/*--------------------------------*- C++ -*----------------------------------*\
| =========                 |                                                 |
| \\      /  F ield         | OpenFOAM: The Open Source CFD Toolbox           |
|  \\    /   O peration     | Version:  2412                                  |
|   \\  /    A nd           | Website:  www.openfoam.com                      |
|    \\/     M anipulation  |                                                 |
\*---------------------------------------------------------------------------*/
FoamFile
{
    version     2.0;
    format      ascii;
    arch        "LSB;label=32;scalar=64";
    class       volScalarField;
    location    "2.75";
    object      p;
}
// * * * * * * * * * * * * * * * * * * * * * * * * * * * * * * * * * * * * * //

dimensions      [1 -1 -2 0 0 0 0];

internalField   nonuniform List<scalar> 
6400
(
7635.86
7635.05
7633.36
7630.82
7627.5
7623.52
7619
7614.07
7608.86
7603.52
7598.17
7592.93
7587.91
7583.17
7578.8
7574.84
7571.31
7568.23
7565.59
7563.36
7561.51
7560
7558.78
7557.79
7556.99
7556.32
7555.74
7555.21
7554.7
7554.19
7553.67
7553.13
7552.59
7552.06
7551.54
7551.06
7550.64
7550.29
7550.02
7549.87
7549.82
7549.89
7550.08
7550.38
7550.78
7551.27
7551.83
7552.46
7553.13
7553.83
7554.55
7555.31
7556.09
7556.92
7557.82
7558.81
7559.95
7561.27
7562.82
7564.65
7566.8
7569.33
7572.25
7575.58
7579.34
7583.52
7588.08
7592.98
7598.16
7603.52
7608.98
7614.41
7619.69
7624.68
7629.25
7633.27
7636.61
7639.17
7640.87
7641.69
7249.64
7248.81
7247.08
7244.47
7241.07
7236.98
7232.35
7227.3
7221.98
7216.53
7211.09
7205.76
7200.66
7195.88
7191.47
7187.49
7183.96
7180.89
7178.26
7176.07
7174.26
7172.8
7171.62
7170.68
7169.92
7169.28
7168.72
7168.21
7167.7
7167.19
7166.65
7166.1
7165.53
7164.96
7164.4
7163.88
7163.42
7163.04
7162.76
7162.59
7162.54
7162.62
7162.82
7163.14
7163.57
7164.09
7164.69
7165.35
7166.05
7166.78
7167.52
7168.28
7169.06
7169.88
7170.76
7171.74
7172.84
7174.12
7175.62
7177.41
7179.53
7182.02
7184.92
7188.25
7192.01
7196.21
7200.8
7205.76
7211
7216.45
7222.01
7227.54
7232.94
7238.04
7242.72
7246.84
7250.27
7252.9
7254.64
7255.48
6864.32
6863.44
6861.61
6858.85
6855.26
6850.96
6846.09
6840.79
6835.23
6829.54
6823.88
6818.37
6813.12
6808.21
6803.72
6799.69
6796.15
6793.1
6790.52
6788.4
6786.68
6785.32
6784.25
6783.41
6782.74
6782.18
6781.69
6781.21
6780.73
6780.22
6779.66
6779.07
6778.45
6777.82
6777.19
6776.61
6776.09
6775.65
6775.33
6775.13
6775.07
6775.16
6775.39
6775.75
6776.23
6776.81
6777.47
6778.19
6778.94
6779.71
6780.48
6781.25
6782.02
6782.81
6783.64
6784.54
6785.56
6786.75
6788.15
6789.85
6791.89
6794.31
6797.17
6800.48
6804.26
6808.5
6813.18
6818.25
6823.65
6829.29
6835.05
6840.82
6846.45
6851.8
6856.72
6861.06
6864.67
6867.44
6869.28
6870.17
6479.96
6479.01
6477.02
6474.03
6470.14
6465.48
6460.23
6454.54
6448.58
6442.52
6436.52
6430.72
6425.22
6420.12
6415.5
6411.39
6407.83
6404.81
6402.31
6400.3
6398.72
6397.52
6396.62
6395.95
6395.43
6395.01
6394.63
6394.23
6393.8
6393.29
6392.72
6392.08
6391.39
6390.67
6389.95
6389.27
6388.65
6388.14
6387.76
6387.52
6387.45
6387.55
6387.81
6388.23
6388.78
6389.44
6390.19
6390.99
6391.82
6392.64
6393.45
6394.22
6394.96
6395.69
6396.43
6397.22
6398.11
6399.16
6400.37
6401.93
6403.84
6406.16
6408.94
6412.22
6416.02
6420.34
6425.15
6430.42
6436.06
6441.98
6448.08
6454.22
6460.24
6465.98
6471.28
6475.96
6479.87
6482.88
6484.88
6485.83
6096.66
6095.6
6093.38
6090.05
6085.73
6080.58
6074.78
6068.52
6062.01
6055.43
6048.96
6042.74
6036.9
6031.54
6026.74
6022.53
6018.95
6015.98
6013.6
6011.75
6010.38
6009.41
6008.75
6008.31
6008.02
6007.8
6007.57
6007.29
6006.92
6006.44
6005.84
6005.14
6004.35
6003.51
6002.66
6001.84
6001.11
6000.49
6000.02
5999.73
5999.64
5999.75
6000.06
6000.56
6001.21
6001.99
6002.85
6003.77
6004.69
6005.59
6006.44
6007.21
6007.92
6008.56
6009.17
6009.79
6010.47
6011.3
6012.32
6013.65
6015.36
6017.53
6020.2
6023.44
6027.26
6031.67
6036.67
6042.19
6048.17
6054.5
6061.06
6067.72
6074.28
6080.58
6086.41
6091.59
6095.93
6099.27
6101.49
6102.55
5714.52
5713.32
5710.8
5707
5702.1
5696.27
5689.74
5682.74
5675.5
5668.23
5661.14
5654.38
5648.1
5642.4
5637.37
5633.04
5629.44
5626.54
5624.32
5622.7
5621.61
5620.96
5620.63
5620.52
5620.53
5620.56
5620.55
5620.42
5620.14
5619.69
5619.05
5618.26
5617.34
5616.35
5615.32
5614.33
5613.42
5612.66
5612.08
5611.73
5611.61
5611.74
5612.11
5612.71
5613.5
5614.43
5615.45
5616.52
5617.58
5618.58
5619.49
5620.27
5620.91
5621.44
5621.87
5622.27
5622.68
5623.21
5623.94
5624.97
5626.42
5628.36
5630.88
5634.04
5637.89
5642.42
5647.64
5653.5
5659.91
5666.78
5673.95
5681.29
5688.58
5695.61
5702.16
5708
5712.92
5716.72
5719.25
5720.45
5333.7
5332.32
5329.39
5324.99
5319.31
5312.6
5305.13
5297.17
5289
5280.87
5272.97
5265.53
5258.69
5252.57
5247.26
5242.8
5239.19
5236.42
5234.41
5233.11
5232.39
5232.16
5232.26
5232.57
5232.98
5233.36
5233.62
5233.69
5233.53
5233.1
5232.41
5231.5
5230.41
5229.19
5227.93
5226.7
5225.58
5224.62
5223.9
5223.45
5223.3
5223.46
5223.92
5224.65
5225.61
5226.75
5228
5229.28
5230.52
5231.66
5232.65
5233.44
5234.02
5234.4
5234.6
5234.7
5234.76
5234.9
5235.23
5235.87
5236.95
5238.6
5240.9
5243.95
5247.8
5252.47
5257.96
5264.23
5271.19
5278.73
5286.7
5294.89
5303.09
5311.08
5318.56
5325.27
5330.95
5335.35
5338.28
5339.67
4954.42
4952.79
4949.33
4944.14
4937.47
4929.62
4920.94
4911.76
4902.4
4893.17
4884.31
4876.03
4868.53
4861.92
4856.29
4851.68
4848.09
4845.48
4843.78
4842.88
4842.66
4842.99
4843.65
4844.51
4845.42
4846.24
4846.85
4847.17
4847.14
4846.74
4845.98
4844.9
4843.56
4842.06
4840.49
4838.94
4837.52
4836.32
4835.4
4834.83
4834.64
4834.84
4835.41
4836.33
4837.53
4838.94
4840.48
4842.04
4843.53
4844.87
4845.98
4846.8
4847.3
4847.5
4847.41
4847.13
4846.74
4846.37
4846.17
4846.29
4846.9
4848.14
4850.15
4853.03
4856.86
4861.68
4867.48
4874.23
4881.85
4890.21
4899.14
4908.41
4917.79
4926.98
4935.65
4943.49
4950.15
4955.33
4958.79
4960.42
4576.92
4574.99
4570.84
4564.62
4556.67
4547.37
4537.16
4526.45
4515.63
4505.05
4495
4485.73
4477.43
4470.24
4464.25
4459.5
4455.97
4453.61
4452.31
4451.95
4452.36
4453.42
4454.8
4456.36
4457.91
4459.29
4460.34
4460.96
4461.09
4460.7
4459.82
4458.51
4456.85
4454.96
4452.97
4451.01
4449.21
4447.67
4446.51
4445.78
4445.54
4445.79
4446.52
4447.68
4449.2
4450.98
4452.9
4454.84
4456.68
4458.29
4459.57
4460.44
4460.87
4460.84
4460.4
4459.63
4458.65
4457.64
4456.75
4456.18
4456.17
4456.89
4458.5
4461.13
4464.9
4469.86
4476.02
4483.34
4491.74
4501.09
4511.18
4521.78
4532.6
4543.3
4553.49
4562.76
4570.69
4576.88
4581.03
4582.96
4201.55
4199.24
4194.18
4186.64
4177.03
4165.89
4153.76
4141.15
4128.53
4116.32
4104.85
4094.39
4085.16
4077.32
4070.93
4066.05
4062.63
4060.61
4059.86
4060.19
4061.4
4063.45
4065.72
4068.17
4070.54
4072.61
4074.21
4075.2
4075.51
4075.12
4074.06
4072.42
4070.32
4067.91
4065.37
4062.87
4060.56
4058.6
4057.11
4056.18
4055.87
4056.19
4057.12
4058.61
4060.55
4062.81
4065.25
4067.7
4070
4071.99
4073.52
4074.49
4074.84
4074.55
4073.66
4072.28
4070.57
4068.72
4066.96
4065.49
4064.67
4064.7
4065.77
4068.06
4071.71
4076.79
4083.34
4091.31
4100.63
4111.15
4122.64
4134.85
4147.44
4160.01
4172.1
4183.19
4192.75
4200.27
4205.31
4207.62
3828.72
3825.92
3819.69
3810.41
3798.68
3785.2
3770.67
3755.72
3740.91
3726.74
3713.58
3701.74
3691.45
3682.85
3676.05
3671.06
3667.85
3666.3
3666.26
3667.51
3669.8
3672.94
3676.41
3679.99
3683.4
3686.35
3688.63
3690.06
3690.57
3690.13
3688.81
3686.72
3684.02
3680.93
3677.66
3674.44
3671.48
3668.96
3667.05
3665.86
3665.46
3665.88
3667.09
3669
3671.49
3674.39
3677.52
3680.65
3683.57
3686.07
3687.96
3689.1
3689.38
3688.78
3687.35
3685.22
3682.57
3679.67
3676.8
3674.13
3672.28
3671.41
3671.77
3673.58
3677.03
3682.21
3689.16
3697.87
3708.25
3720.13
3733.3
3747.43
3762.17
3777.05
3791.5
3804.9
3816.57
3825.81
3832.02
3834.8
3458.93
3455.55
3447.75
3436.19
3421.71
3405.26
3387.75
3369.94
3352.51
3336.01
3320.87
3307.42
3295.92
3286.51
3279.27
3274.22
3271.31
3270.4
3271.29
3273.72
3277.37
3281.94
3286.9
3291.92
3296.63
3300.69
3303.8
3305.76
3306.48
3305.94
3304.24
3301.53
3298.04
3294.04
3289.81
3285.65
3281.83
3278.59
3276.13
3274.61
3274.11
3274.66
3276.22
3278.69
3281.91
3285.66
3289.69
3293.72
3297.48
3300.69
3303.08
3304.47
3304.72
3303.77
3301.68
3298.59
3294.75
3290.51
3286.26
3282
3278.86
3276.83
3276.25
3277.41
3280.53
3285.76
3293.15
3302.67
3314.25
3327.72
3342.83
3359.25
3376.58
3394.26
3411.65
3427.99
3442.39
3453.9
3461.66
3465.02
3092.84
3088.75
3078.84
3064.22
3046.17
3025.97
3004.77
2983.5
2962.94
2943.7
2926.27
2911.02
2898.17
2887.86
2880.18
2875.13
2872.66
2872.61
2874.71
2878.63
2883.99
2890.41
2897.24
2904.08
2910.43
2915.86
2920
2922.59
2923.53
2922.8
2920.55
2916.99
2912.43
2907.23
2901.75
2896.37
2891.43
2887.26
2884.1
2882.15
2881.52
2882.25
2884.29
2887.49
2891.66
2896.51
2901.72
2906.96
2911.83
2915.99
2919.1
2920.88
2921.14
2919.8
2916.9
2912.61
2907.27
2901.29
2895.2
2889.11
2884.26
2880.71
2878.9
2879.18
2881.84
2887.05
2894.87
2905.29
2918.21
2933.48
2950.85
2969.97
2990.36
3011.44
3032.45
3052.5
3070.44
3085.01
3094.88
3098.91
2731.1
2726.26
2713.45
2694.66
2671.97
2647.07
2621.38
2595.97
2571.69
2549.27
2529.26
2511.99
2497.67
2486.41
2478.29
2473.33
2471.47
2472.53
2476.19
2482.01
2489.48
2498.32
2507.48
2516.61
2525.04
2532.19
2537.6
2540.94
2542.07
2541.03
2538
2533.29
2527.3
2520.52
2513.41
2506.44
2500.06
2494.67
2490.6
2488.1
2487.31
2488.28
2490.94
2495.11
2500.52
2506.82
2513.58
2520.39
2526.75
2532.21
2536.3
2538.66
2539.02
2537.25
2533.36
2527.58
2520.31
2512.1
2503.58
2495.37
2488.28
2482.77
2479.35
2478.47
2480.47
2485.57
2493.83
2505.2
2519.61
2536.88
2556.81
2579.06
2603.09
2628.22
2653.64
2678.32
2700.88
2719.61
2732.38
2737.11
2374.39
2368.68
2351.73
2327.32
2298.68
2267.99
2236.92
2206.69
2178.07
2152.02
2129.14
2109.71
2093.83
2081.57
2073.02
2068.24
2067.2
2069.71
2075.38
2083.64
2093.85
2105.46
2117.67
2129.71
2140.78
2150.1
2157.08
2161.29
2162.59
2161.06
2156.94
2150.66
2142.78
2133.92
2124.68
2115.66
2107.4
2100.42
2095.17
2091.95
2090.97
2092.27
2095.76
2101.21
2108.24
2116.41
2125.21
2134.08
2142.42
2149.62
2155.07
2158.28
2158.87
2156.64
2151.56
2143.89
2134.17
2123.12
2111.55
2100.46
2090.62
2082.65
2077.14
2074.72
2075.84
2080.73
2089.43
2101.84
2117.83
2137.29
2160.06
2185.87
2214.15
2243.97
2274.64
2305
2333.47
2357.88
2374.8
2380.28
2024.96
2017.91
1994.16
1961.6
1925.45
1887.93
1850.51
1814.42
1780.9
1750.89
1725.03
1703.43
1685.98
1672.69
1663.69
1659.15
1659.16
1663.56
1671.83
1683.17
1696.73
1711.91
1727.93
1743.65
1758.07
1770.15
1779.07
1784.31
1785.72
1783.42
1777.79
1769.42
1759.01
1747.44
1735.5
1723.86
1713.2
1704.18
1697.38
1693.25
1692.03
1693.79
1698.38
1705.48
1714.6
1725.16
1736.54
1748.08
1759.04
1768.56
1775.87
1780.3
1781.33
1778.63
1772.11
1762.05
1749.17
1734.47
1719.06
1704.25
1690.98
1679.93
1671.7
1667.25
1667.2
1671.8
1680.97
1694.5
1712.15
1733.83
1759.58
1789.3
1822.33
1857.82
1894.61
1931.59
1967.46
2000.16
2024.07
2030.8
1683.72
1673.17
1639.9
1596.27
1550.99
1505.85
1461.75
1419.08
1379.71
1345.12
1316.21
1292.46
1273.41
1258.97
1249.38
1245.05
1246.33
1253.19
1264.83
1280.18
1297.81
1317.49
1338.22
1358.63
1377.32
1392.93
1404.29
1410.74
1412.15
1408.75
1401.02
1389.87
1376.24
1361.28
1345.98
1331.06
1317.32
1305.62
1296.8
1291.47
1289.96
1292.33
1298.39
1307.68
1319.49
1333.06
1347.65
1362.53
1376.83
1389.38
1399.23
1405.38
1407.15
1404.02
1395.74
1382.63
1365.68
1346.3
1325.99
1306.4
1288.88
1274.04
1262.11
1254.99
1253.47
1257.76
1267.59
1282.46
1301.9
1325.84
1354.67
1388.9
1427.61
1469.42
1512.59
1556.75
1601.35
1645.05
1678.62
1688.87
1341.94
1318.71
1276.89
1224.84
1172.03
1120.04
1068.37
1018.2
972.527
933.02
901.934
876.81
856.419
840.658
830.098
825.599
828.034
837.813
853.612
873.538
896.403
921.799
948.596
974.989
999.148
1019.14
1033.38
1041.13
1042.38
1037.51
1027.14
1012.31
994.507
975.346
955.839
936.635
918.672
903.226
891.564
884.558
882.621
885.871
894.017
906.401
921.972
939.609
958.324
977.328
995.841
1012.35
1025.44
1033.89
1036.84
1033.46
1023.26
1006.44
984.31
958.888
932.194
906.35
883.238
863.488
847.483
837.075
834.061
838.435
849.418
865.998
887.165
912.693
943.71
982.812
1027.71
1076.79
1127.21
1177.67
1228.66
1279.47
1321.54
1346.28
1007.9
958.641
903.879
846.329
788.565
730.946
674.821
615.243
561.229
513.479
481.273
455.258
433.479
415.729
402.844
396.365
398.528
411.851
433.897
461.07
491.346
524.654
559.744
594.105
625.296
650.577
667.875
676.616
676.944
669.329
654.638
635.063
612.113
587.38
561.971
536.821
513.069
492.52
477.276
468.365
465.799
469.798
480.363
496.826
517.398
540.56
565.251
590.225
614.415
636.454
654.213
666.291
671.565
668.576
656.598
635.624
607.053
573.688
538.204
503.301
471.922
444.357
421.509
406.811
403.71
410.378
424.665
444.187
467.326
493.799
525.664
572.978
625.974
683.79
738.359
793.581
848.402
903.306
958.349
1011.8
719.824
665.971
589.974
502.845
429.356
360.676
291.652
231.226
183.722
150.031
127.465
111.259
98.7563
88.8848
81.6855
77.7133
77.5883
85.324
100.106
120.325
144.162
172.373
204.219
237.742
269.837
296.072
312.867
319.792
316.999
305.393
287.641
264.816
240.461
215.837
192.576
171.153
151.734
135.453
124.327
118.461
116.589
118.625
125.717
138.075
153.912
172.391
193.681
217.456
242.529
266.26
287.54
304.179
314.036
313.623
302.891
281.678
252.074
218.563
184.894
154.013
127.708
105.693
89.1444
80.1169
79.7658
84.1064
92.8348
104.758
119.287
136.803
159.535
193.065
240.023
299.075
365.563
432.402
503.119
588.375
666.513
722.185
466.536
445.655
372.793
242.604
148.637
85.7117
44.0819
21.0913
8.17755
1.16135
-3.22163
-5.81208
-7.2634
-8.02479
-8.35416
-8.45407
-8.37877
-7.98566
-6.64853
-4.0563
-0.166637
6.21193
16.3973
30.214
45.8806
59.6343
67.4946
69.3583
65.5714
56.85
45.7416
34.2718
24.2608
15.6706
8.53728
2.63817
-2.04412
-5.45275
-7.46601
-8.40622
-8.62368
-8.43117
-7.32743
-5.08008
-1.79694
2.57318
8.23265
15.396
24.189
35.082
46.8138
57.7031
66.0908
67.7207
63.6128
52.7495
37.5205
22.2195
9.72816
1.56258
-3.06892
-5.94262
-7.61543
-8.20752
-8.31424
-8.19971
-7.79624
-6.79152
-4.87022
-1.68138
3.15892
10.4446
23.7485
47.1696
88.0205
149.094
241.945
370.502
446.119
465.419
225.246
191.359
115.186
46.5856
8.56425
-5.696
-8.29479
-8.62649
-8.91115
-9.11736
-9.21906
-9.27685
-9.30195
-9.30658
-9.31516
-9.33368
-9.35785
-9.40382
-9.45009
-9.48164
-9.53028
-9.61825
-9.73116
-9.85321
-9.95744
-10.0344
-10.0663
-10.0692
-10.061
-10.0212
-9.98631
-9.95944
-9.92361
-9.86973
-9.79815
-9.71752
-9.6293
-9.53328
-9.45019
-9.401
-9.39465
-9.42007
-9.48728
-9.57822
-9.67002
-9.75918
-9.8488
-9.9283
-9.9865
-10.0339
-10.067
-10.0783
-10.0775
-10.0513
-10.0221
-9.96774
-9.8743
-9.7408
-9.61518
-9.52121
-9.4458
-9.3829
-9.32887
-9.28839
-9.27438
-9.27729
-9.30712
-9.34858
-9.37114
-9.3586
-9.27167
-9.09013
-8.85721
-8.58611
-5.92388
7.96936
47.4092
109.916
183.034
221.695
68.6602
15.6139
-2.75629
-10.4561
-11.0627
-10.1996
-9.67425
-9.72903
-9.82867
-9.85452
-9.87212
-9.90085
-9.92136
-9.92841
-9.92955
-9.93034
-9.93974
-9.96928
-10.0149
-10.0583
-10.1041
-10.1659
-10.244
-10.3179
-10.3804
-10.4314
-10.4686
-10.4952
-10.5086
-10.4945
-10.4565
-10.4055
-10.3645
-10.3209
-10.2688
-10.2101
-10.149
-10.0866
-10.0308
-9.99667
-9.99192
-10.0142
-10.0626
-10.1277
-10.1984
-10.2698
-10.3356
-10.3923
-10.4423
-10.4925
-10.5255
-10.5184
-10.4969
-10.4687
-10.4293
-10.377
-10.3106
-10.2298
-10.1435
-10.0674
-10.01
-9.95272
-9.89429
-9.86146
-9.86495
-9.88843
-9.92383
-9.96543
-9.99623
-9.99809
-9.95812
-9.92421
-9.93424
-10.0588
-10.7216
-11.7231
-11.0718
-5.01018
10.7474
67.5816
23.0693
-13.7704
-12.6104
-13.0834
-12.4671
-11.3622
-10.7766
-10.7104
-10.6671
-10.5752
-10.5208
-10.5179
-10.5265
-10.5289
-10.5278
-10.5294
-10.537
-10.551
-10.575
-10.6073
-10.6455
-10.6902
-10.7403
-10.7898
-10.8329
-10.8673
-10.8949
-10.9172
-10.9257
-10.9269
-10.9081
-10.8782
-10.8453
-10.8104
-10.7704
-10.7247
-10.6753
-10.6271
-10.5854
-10.5595
-10.5567
-10.576
-10.6139
-10.665
-10.7249
-10.7898
-10.8499
-10.8947
-10.9205
-10.9333
-10.9316
-10.9271
-10.9129
-10.8908
-10.8592
-10.8156
-10.763
-10.7038
-10.6419
-10.5831
-10.5332
-10.4882
-10.4563
-10.4482
-10.4607
-10.4866
-10.5235
-10.5667
-10.6061
-10.6325
-10.6619
-10.7544
-10.9226
-11.179
-11.9329
-12.81
-13.336
-13.1261
-14.1863
16.8507
-12.571
-11.9659
-12.2494
-12.4747
-12.2951
-11.8594
-11.5851
-11.487
-11.3906
-11.263
-11.1761
-11.1382
-11.1239
-11.1157
-11.1104
-11.1084
-11.1096
-11.1148
-11.1254
-11.1432
-11.1693
-11.2014
-11.239
-11.279
-11.3127
-11.3388
-11.3605
-11.3737
-11.3832
-11.3857
-11.3754
-11.3549
-11.3268
-11.2953
-11.2612
-11.2259
-11.1899
-11.1545
-11.1236
-11.1041
-11.1033
-11.1195
-11.1482
-11.1851
-11.2281
-11.2754
-11.3213
-11.3576
-11.38
-11.3906
-11.3903
-11.3768
-11.3612
-11.3402
-11.3119
-11.2744
-11.2308
-11.1845
-11.1377
-11.0937
-11.0568
-11.0305
-11.0189
-11.0249
-11.0459
-11.0775
-11.1171
-11.1632
-11.2155
-11.2782
-11.3847
-11.5738
-11.8208
-12.0102
-12.333
-12.6758
-12.8678
-12.6635
-12.1747
-12.6957
-12.5864
-11.8901
-11.9802
-12.2723
-12.3079
-12.1924
-12.1147
-12.0518
-11.9739
-11.8773
-11.8007
-11.7517
-11.7242
-11.7083
-11.698
-11.6903
-11.6839
-11.68
-11.6793
-11.6857
-11.697
-11.7137
-11.7356
-11.7605
-11.784
-11.8048
-11.8232
-11.8368
-11.8469
-11.8489
-11.8433
-11.8306
-11.8122
-11.7894
-11.7641
-11.7383
-11.7126
-11.6873
-11.6642
-11.6494
-11.6503
-11.6639
-11.6848
-11.7092
-11.7364
-11.7654
-11.7933
-11.8157
-11.831
-11.8403
-11.8424
-11.8361
-11.822
-11.8005
-11.7734
-11.7411
-11.7059
-11.6704
-11.6362
-11.6061
-11.5836
-11.5722
-11.5749
-11.5925
-11.6222
-11.6597
-11.7025
-11.7501
-11.8069
-11.8919
-12.0478
-12.2944
-12.5461
-12.668
-12.7316
-12.7663
-12.7116
-12.4001
-12.2072
-12.6931
-12.5409
-11.9324
-12.2148
-12.4789
-12.6034
-12.61
-12.6011
-12.5736
-12.5291
-12.4739
-12.4236
-12.3814
-12.3482
-12.3224
-12.301
-12.2815
-12.2624
-12.2439
-12.2312
-12.2238
-12.222
-12.2262
-12.2359
-12.2496
-12.265
-12.2806
-12.2954
-12.3079
-12.317
-12.3212
-12.3195
-12.3122
-12.3002
-12.2845
-12.2665
-12.2479
-12.2295
-12.2118
-12.196
-12.1859
-12.1877
-12.1979
-12.2122
-12.2287
-12.2465
-12.265
-12.2824
-12.297
-12.3075
-12.3125
-12.311
-12.3035
-12.2894
-12.2693
-12.2446
-12.2165
-12.1872
-12.1589
-12.1339
-12.1151
-12.1057
-12.1088
-12.1265
-12.1586
-12.2016
-12.2505
-12.302
-12.3556
-12.417
-12.508
-12.6599
-12.8802
-13.0714
-13.1541
-13.1592
-13.0887
-12.93
-12.6511
-12.3319
-12.5183
-12.5024
-12.6033
-12.7329
-12.9014
-13.0468
-13.1102
-13.1357
-13.1305
-13.1132
-13.0907
-13.0625
-13.0279
-12.9908
-12.9549
-12.9204
-12.8863
-12.8521
-12.819
-12.7899
-12.7667
-12.7505
-12.7419
-12.7406
-12.7453
-12.754
-12.7651
-12.7769
-12.7879
-12.7966
-12.8018
-12.8028
-12.7993
-12.792
-12.7818
-12.7696
-12.7567
-12.744
-12.7319
-12.7211
-12.7149
-12.7172
-12.7248
-12.7347
-12.7457
-12.7573
-12.769
-12.7799
-12.7888
-12.7945
-12.7958
-12.7919
-12.7827
-12.7682
-12.7489
-12.7256
-12.7001
-12.6744
-12.6511
-12.6331
-12.6237
-12.6264
-12.6446
-12.6796
-12.7299
-12.7912
-12.8581
-12.9255
-12.9923
-13.0634
-13.1523
-13.273
-13.4202
-13.535
-13.5737
-13.5414
-13.4521
-13.2769
-13.0639
-12.7769
-12.3607
-12.6715
-13.0986
-13.2313
-13.417
-13.5781
-13.6707
-13.7113
-13.7148
-13.7169
-13.724
-13.7152
-13.6867
-13.6469
-13.6026
-13.5557
-13.5061
-13.4543
-13.4029
-13.3551
-13.3141
-13.2822
-13.2604
-13.2484
-13.2449
-13.2477
-13.2548
-13.2642
-13.2739
-13.2824
-13.2884
-13.2914
-13.2909
-13.2874
-13.2813
-13.2736
-13.2652
-13.2567
-13.2488
-13.2419
-13.2384
-13.2412
-13.247
-13.254
-13.2612
-13.2683
-13.2752
-13.2816
-13.2863
-13.2883
-13.2867
-13.2809
-13.2706
-13.2556
-13.2363
-13.2139
-13.1898
-13.1662
-13.1461
-13.133
-13.1313
-13.1459
-13.1808
-13.237
-13.3114
-13.398
-13.4897
-13.5782
-13.6601
-13.7392
-13.823
-13.9149
-14.0026
-14.0524
-14.0414
-13.9777
-13.8637
-13.6857
-13.4409
-13.1662
-12.6329
-12.7401
-13.1453
-13.6028
-13.9627
-14.1601
-14.2744
-14.3239
-14.333
-14.3462
-14.3734
-14.3857
-14.363
-14.3212
-14.2699
-14.2117
-14.1451
-14.0736
-14.0003
-13.9302
-13.8681
-13.8179
-13.7815
-13.7586
-13.7472
-13.7448
-13.7485
-13.7558
-13.7645
-13.7728
-13.7796
-13.7841
-13.786
-13.7853
-13.7826
-13.7784
-13.7735
-13.7685
-13.7637
-13.7597
-13.7582
-13.7605
-13.7657
-13.7707
-13.7753
-13.7793
-13.783
-13.7863
-13.7882
-13.7877
-13.7842
-13.7769
-13.7656
-13.7501
-13.7308
-13.7085
-13.6848
-13.6619
-13.6432
-13.633
-13.6375
-13.6641
-13.7195
-13.8036
-13.9098
-14.0303
-14.1547
-14.2692
-14.3644
-14.4466
-14.5215
-14.5883
-14.6331
-14.6315
-14.5721
-14.482
-14.3553
-14.1678
-13.8466
-13.4146
-12.9332
-13.049
-13.4839
-14.1228
-14.5597
-14.7705
-14.8971
-14.959
-14.9861
-15.0134
-15.0518
-15.0808
-15.0657
-15.024
-14.967
-14.8989
-14.8117
-14.717
-14.617
-14.5187
-14.4305
-14.3581
-14.3049
-14.2702
-14.2511
-14.2437
-14.2445
-14.2502
-14.2583
-14.2668
-14.2744
-14.2802
-14.2839
-14.2856
-14.2855
-14.2841
-14.282
-14.2797
-14.2775
-14.2757
-14.2751
-14.2768
-14.2811
-14.2852
-14.2881
-14.2901
-14.2917
-14.293
-14.293
-14.291
-14.2862
-14.278
-14.2662
-14.2505
-14.2311
-14.2087
-14.1847
-14.1613
-14.1421
-14.1327
-14.1404
-14.1803
-14.2645
-14.3892
-14.5401
-14.7069
-14.8749
-15.022
-15.1257
-15.205
-15.2645
-15.3023
-15.3063
-15.2596
-15.1693
-15.0614
-14.9243
-14.7445
-14.4363
-13.9531
-13.461
-13.6065
-14.0149
-14.7673
-15.204
-15.3958
-15.5194
-15.5927
-15.645
-15.6963
-15.7527
-15.7981
-15.8045
-15.7732
-15.7125
-15.6257
-15.5244
-15.403
-15.2676
-15.1304
-15.0058
-14.9036
-14.8296
-14.7822
-14.7552
-14.7434
-14.7418
-14.7465
-14.7544
-14.7633
-14.7717
-14.7787
-14.7841
-14.7876
-14.7896
-14.7904
-14.7905
-14.7904
-14.7903
-14.7901
-14.7899
-14.7905
-14.794
-14.7976
-14.7996
-14.8006
-14.8012
-14.8013
-14.8003
-14.7973
-14.792
-14.7836
-14.7717
-14.7562
-14.737
-14.7145
-14.69
-14.6653
-14.6441
-14.633
-14.6414
-14.7064
-14.8457
-15.0467
-15.28
-15.5113
-15.7192
-15.8719
-15.9852
-16.0476
-16.076
-16.0756
-16.0272
-15.928
-15.8175
-15.6977
-15.5596
-15.3983
-15.1413
-14.6521
-14.1936
-14.2138
-14.5643
-15.4131
-15.8561
-16.0204
-16.137
-16.2225
-16.3049
-16.3859
-16.47
-16.5378
-16.5923
-16.5981
-16.5534
-16.4724
-16.3546
-16.1949
-16.0051
-15.8035
-15.617
-15.4646
-15.3572
-15.2939
-15.259
-15.2431
-15.2398
-15.244
-15.2521
-15.2617
-15.271
-15.2792
-15.2859
-15.2909
-15.2945
-15.2971
-15.299
-15.3006
-15.3022
-15.3031
-15.303
-15.3018
-15.3052
-15.3085
-15.3103
-15.311
-15.3113
-15.311
-15.3096
-15.3064
-15.301
-15.2929
-15.2816
-15.2668
-15.2485
-15.2263
-15.2018
-15.1759
-15.1529
-15.1375
-15.1591
-15.2975
-15.5757
-15.9428
-16.3186
-16.6382
-16.873
-17.0253
-17.1173
-17.1312
-17.0696
-16.9594
-16.8126
-16.6433
-16.4942
-16.3579
-16.2276
-16.0841
-15.8707
-15.3922
-14.9767
-14.7514
-15.0515
-15.961
-16.493
-16.6288
-16.752
-16.8632
-16.9942
-17.1214
-17.2469
-17.3541
-17.4547
-17.5344
-17.5673
-17.5301
-17.4187
-17.2211
-16.9541
-16.6454
-16.337
-16.0778
-15.901
-15.8067
-15.7623
-15.7424
-15.7383
-15.7426
-15.7514
-15.7619
-15.7723
-15.7815
-15.7893
-15.7955
-15.8004
-15.8042
-15.8073
-15.8102
-15.813
-15.8144
-15.814
-15.8114
-15.8155
-15.8188
-15.8208
-15.8218
-15.8223
-15.8221
-15.8207
-15.8179
-15.813
-15.8057
-15.7955
-15.7822
-15.7654
-15.7451
-15.7216
-15.6959
-15.6738
-15.6522
-15.7517
-16.0709
-16.5943
-17.1604
-17.6511
-18.0379
-18.3002
-18.4542
-18.503
-18.4563
-18.2829
-17.9918
-17.6805
-17.4235
-17.2131
-17.0463
-16.9024
-16.7645
-16.5717
-16.0789
-15.6764
-15.2536
-15.5335
-16.4183
-17.0636
-17.2106
-17.3607
-17.5241
-17.723
-17.9281
-18.1164
-18.2868
-18.4304
-18.5736
-18.692
-18.7112
-18.6113
-18.3957
-18.0768
-17.6796
-17.2404
-16.818
-16.4966
-16.3263
-16.2653
-16.2409
-16.2375
-16.2428
-16.2528
-16.2643
-16.2757
-16.2858
-16.2945
-16.3016
-16.3074
-16.3121
-16.3159
-16.3195
-16.3228
-16.3243
-16.3238
-16.3228
-16.327
-16.3299
-16.3321
-16.3335
-16.3343
-16.3345
-16.3336
-16.3314
-16.3275
-16.3216
-16.3132
-16.3022
-16.2882
-16.2709
-16.2505
-16.2273
-16.2032
-16.2055
-16.4642
-17.0276
-17.7414
-18.3292
-18.7683
-19.1276
-19.4016
-19.5885
-19.6782
-19.6414
-19.4339
-19.0443
-18.602
-18.241
-17.9622
-17.7488
-17.5668
-17.4217
-17.2112
-16.6534
-16.2461
-16.152
-16.3554
-16.941
-17.5532
-17.7991
-17.9611
-18.1893
-18.4621
-18.7515
-19.0107
-19.226
-19.39
-19.4995
-19.5609
-19.557
-19.4644
-19.2713
-18.9812
-18.6107
-18.1706
-17.6641
-17.1808
-16.8711
-16.7679
-16.7398
-16.7376
-16.7452
-16.7568
-16.7696
-16.7818
-16.7927
-16.8019
-16.8096
-16.8159
-16.821
-16.8252
-16.8289
-16.8324
-16.8341
-16.8337
-16.8367
-16.8409
-16.8425
-16.8447
-16.8463
-16.8475
-16.8481
-16.8479
-16.8467
-16.8442
-16.8401
-16.8343
-16.8265
-16.8167
-16.8045
-16.7912
-16.7735
-16.7482
-16.8278
-17.2337
-17.9606
-18.6724
-19.108
-19.4628
-19.772
-20.0285
-20.2414
-20.3946
-20.4029
-20.2504
-19.9097
-19.4636
-19.0238
-18.7037
-18.4362
-18.1973
-18.0294
-17.729
-17.1751
-16.7893
-17.4565
-17.3551
-17.523
-18.0071
-18.3527
-18.5577
-18.8374
-19.1771
-19.5181
-19.8126
-20.0233
-20.1356
-20.1422
-20.0757
-20.0102
-19.9214
-19.7639
-19.5252
-19.2165
-18.8564
-18.4296
-17.9033
-17.4623
-17.2724
-17.239
-17.2413
-17.2512
-17.2645
-17.2784
-17.2912
-17.3024
-17.3119
-17.3198
-17.3262
-17.3315
-17.3358
-17.3395
-17.3431
-17.3451
-17.3454
-17.3518
-17.3558
-17.356
-17.3583
-17.36
-17.3616
-17.3628
-17.3634
-17.3634
-17.3626
-17.3608
-17.3581
-17.3545
-17.3501
-17.3455
-17.3434
-17.3366
-17.3288
-17.481
-17.9426
-18.7276
-19.286
-19.6069
-19.9073
-20.1739
-20.4044
-20.611
-20.7726
-20.87
-20.8332
-20.6192
-20.2444
-19.8326
-19.4634
-19.0951
-18.7899
-18.5556
-18.1262
-17.5899
-17.3491
-18.2622
-18.0685
-17.9931
-18.4173
-18.8569
-19.1443
-19.4705
-19.8662
-20.251
-20.5573
-20.7404
-20.769
-20.6502
-20.4733
-20.3082
-20.1883
-20.0518
-19.8578
-19.61
-19.3242
-19.0023
-18.5569
-18.0746
-17.7961
-17.7418
-17.7514
-17.7634
-17.7773
-17.7915
-17.8042
-17.8152
-17.8244
-17.8321
-17.8385
-17.8437
-17.848
-17.8518
-17.8557
-17.8588
-17.8602
-17.8674
-17.8703
-17.8701
-17.8726
-17.8744
-17.8764
-17.8782
-17.8798
-17.8812
-17.8822
-17.8829
-17.8836
-17.8846
-17.8865
-17.891
-17.9014
-17.9127
-17.9392
-18.1137
-18.592
-19.2756
-19.7086
-19.9843
-20.2453
-20.4868
-20.7419
-21.0561
-21.371
-21.5949
-21.6706
-21.5106
-21.1597
-20.7632
-20.2482
-19.7202
-19.3393
-18.9778
-18.4397
-17.9889
-17.9027
-18.834
-18.6729
-18.5175
-18.8358
-19.3034
-19.6907
-20.0785
-20.5323
-20.972
-21.3207
-21.5143
-21.489
-21.2555
-20.9154
-20.626
-20.4528
-20.3124
-20.14
-19.9294
-19.6917
-19.4367
-19.0996
-18.6547
-18.3456
-18.262
-18.2717
-18.2843
-18.2966
-18.3096
-18.3212
-18.3312
-18.3397
-18.3467
-18.3526
-18.3575
-18.3617
-18.3657
-18.3698
-18.3748
-18.3762
-18.3824
-18.384
-18.3847
-18.387
-18.3891
-18.3915
-18.3941
-18.3967
-18.3994
-18.4023
-18.4056
-18.4096
-18.4152
-18.4231
-18.4358
-18.457
-18.4863
-18.5399
-18.6982
-19.1292
-19.6941
-20.0475
-20.2928
-20.5295
-20.7753
-21.1491
-21.6832
-22.2692
-22.7916
-22.9664
-22.7571
-22.2914
-21.6743
-20.9277
-20.2724
-19.7867
-19.2965
-18.7489
-18.4519
-18.4756
-19.5133
-19.5276
-19.2273
-19.2737
-19.6968
-20.1489
-20.596
-21.0943
-21.5871
-21.9842
-22.2178
-22.2179
-21.9316
-21.4039
-20.9598
-20.7489
-20.5964
-20.4341
-20.2461
-20.043
-19.8297
-19.5544
-19.1862
-18.8986
-18.8066
-18.8056
-18.8144
-18.823
-18.8331
-18.8424
-18.8505
-18.8574
-18.8633
-18.8683
-18.8726
-18.8765
-18.8804
-18.884
-18.8903
-18.8912
-18.896
-18.8972
-18.8989
-18.9013
-18.9038
-18.9068
-18.91
-18.9136
-18.9177
-18.9224
-18.928
-18.935
-18.9444
-18.9572
-18.9758
-19.0037
-19.0431
-19.106
-19.2381
-19.5869
-20.0374
-20.3298
-20.5521
-20.7729
-21.0458
-21.4956
-22.1224
-22.8142
-23.4231
-23.6658
-23.4729
-22.9287
-22.1638
-21.3426
-20.6511
-20.1053
-19.5753
-19.1196
-18.9696
-19.0285
-20.1347
-20.237
-20.0121
-19.8823
-20.091
-20.5199
-20.9566
-21.439
-21.9258
-22.3209
-22.5602
-22.5893
-22.3357
-21.775
-21.2761
-21.0382
-20.891
-20.7437
-20.5765
-20.401
-20.2185
-19.9848
-19.6865
-19.449
-19.3688
-19.3529
-19.353
-19.3561
-19.3615
-19.3673
-19.3726
-19.3774
-19.3816
-19.3854
-19.3888
-19.392
-19.3955
-19.3987
-19.4038
-19.4052
-19.408
-19.4104
-19.4127
-19.4153
-19.4183
-19.4218
-19.4257
-19.4303
-19.4356
-19.4418
-19.4493
-19.4588
-19.471
-19.4871
-19.5089
-19.5395
-19.5813
-19.6386
-19.744
-19.9991
-20.3399
-20.5901
-20.7909
-20.9902
-21.2515
-21.6394
-22.2034
-22.7983
-23.2465
-23.4208
-23.3032
-22.8622
-22.1937
-21.4785
-20.8817
-20.3732
-19.9157
-19.5984
-19.5315
-19.5779
-20.7559
-20.7988
-20.8085
-20.6685
-20.6489
-20.8339
-21.167
-21.5362
-21.9163
-22.2256
-22.4048
-22.4225
-22.2917
-21.8638
-21.519
-21.3142
-21.1917
-21.0674
-20.9244
-20.7749
-20.6166
-20.4222
-20.1819
-20.005
-19.9375
-19.9092
-19.8983
-19.8943
-19.894
-19.8952
-19.897
-19.8991
-19.9012
-19.9034
-19.9056
-19.9079
-19.9106
-19.9132
-19.9173
-19.9188
-19.9205
-19.9235
-19.9261
-19.9291
-19.9325
-19.9364
-19.941
-19.9464
-19.9527
-19.9602
-19.9692
-19.9804
-19.9944
-20.0124
-20.0354
-20.0657
-20.105
-20.1531
-20.2286
-20.3904
-20.6317
-20.8508
-21.0333
-21.2033
-21.4133
-21.6869
-22.0727
-22.4724
-22.7428
-22.8606
-22.7689
-22.4787
-22.0225
-21.5344
-21.1103
-20.7322
-20.3919
-20.1674
-20.0987
-20.1466
-21.372
-21.4076
-21.5123
-21.4536
-21.3646
-21.2875
-21.3035
-21.4691
-21.6981
-21.8937
-22.0361
-22.2036
-22.1301
-21.9006
-21.7202
-21.5882
-21.5017
-21.4035
-21.288
-21.1628
-21.0196
-20.8688
-20.6931
-20.5751
-20.5108
-20.4696
-20.4474
-20.4355
-20.4287
-20.4249
-20.4228
-20.4218
-20.4216
-20.422
-20.4227
-20.424
-20.4256
-20.4275
-20.4305
-20.4324
-20.434
-20.4366
-20.4393
-20.4425
-20.4462
-20.4505
-20.4556
-20.4617
-20.4688
-20.4772
-20.4873
-20.4996
-20.5147
-20.5332
-20.5561
-20.5845
-20.6194
-20.66
-20.711
-20.7999
-20.9539
-21.1283
-21.2898
-21.4286
-21.5736
-21.7457
-21.9377
-22.1313
-22.2556
-22.3189
-22.2893
-22.1706
-21.9544
-21.7065
-21.4673
-21.2297
-20.9822
-20.7913
-20.7205
-20.7362
-21.9549
-21.9999
-22.0869
-22.1529
-22.0768
-21.9017
-21.6233
-21.4779
-21.4558
-21.5629
-21.7696
-21.9645
-22.0006
-21.9643
-21.894
-21.8565
-21.8132
-21.7474
-21.6635
-21.5628
-21.449
-21.3427
-21.2415