/*--------------------------------*- C++ -*----------------------------------*\
| =========                 |                                                 |
| \\      /  F ield         | OpenFOAM: The Open Source CFD Toolbox           |
|  \\    /   O peration     | Version:  2412                                  |
|   \\  /    A nd           | Website:  www.openfoam.com                      |
|    \\/     M anipulation  |                                                 |
\*---------------------------------------------------------------------------*/
FoamFile
{
    version     2.0;
    format      ascii;
    arch        "LSB;label=32;scalar=64";
    class       volVectorField;
    location    "4.15";
    object      U;
}
// * * * * * * * * * * * * * * * * * * * * * * * * * * * * * * * * * * * * * //

dimensions      [0 1 -1 0 0 0 0];

internalField   nonuniform List<vector> 
6400
(
(-0.00110938 0.00109382 0)
(-0.00278458 0.000948683 0)
(-0.00387627 0.000837994 0)
(-0.00476162 0.000778995 0)
(-0.00561979 0.000756255 0)
(-0.00656794 0.000751016 0)
(-0.0076475 0.000751506 0)
(-0.00887081 0.000749227 0)
(-0.0102366 0.000744523 0)
(-0.0117207 0.000740917 0)
(-0.0133169 0.000725079 0)
(-0.0150106 0.00071147 0)
(-0.0167824 0.000691953 0)
(-0.0186197 0.00068389 0)
(-0.0204906 0.000671462 0)
(-0.0223828 0.000657409 0)
(-0.0242708 0.000640257 0)
(-0.0261292 0.000617863 0)
(-0.027929 0.000584155 0)
(-0.0296279 0.000538884 0)
(-0.0311885 0.000480596 0)
(-0.0325712 0.000406719 0)
(-0.0337324 0.000315106 0)
(-0.0346303 0.000206374 0)
(-0.0352287 8.04518e-05 0)
(-0.0354923 -6.53975e-05 0)
(-0.0353725 -0.000222956 0)
(-0.0348611 -0.000386645 0)
(-0.0339554 -0.000551399 0)
(-0.0326524 -0.000716561 0)
(-0.0309563 -0.000879155 0)
(-0.028879 -0.00103646 0)
(-0.02644 -0.00118513 0)
(-0.0236624 -0.00132234 0)
(-0.0205763 -0.00144531 0)
(-0.0172191 -0.00155294 0)
(-0.0136318 -0.00164227 0)
(-0.00985837 -0.00171187 0)
(-0.0059479 -0.00175967 0)
(-0.00195353 -0.00178473 0)
(0.00207062 -0.00178608 0)
(0.00606846 -0.00176271 0)
(0.00998436 -0.00171615 0)
(0.0137657 -0.00164815 0)
(0.0173629 -0.00155862 0)
(0.0207298 -0.00145096 0)
(0.0238248 -0.00132747 0)
(0.026611 -0.00118937 0)
(0.0290569 -0.00103865 0)
(0.0311367 -0.000878253 0)
(0.0328316 -0.000712296 0)
(0.0341282 -0.000543717 0)
(0.0350221 -0.000376446 0)
(0.0355194 -0.000211192 0)
(0.0356255 -5.16542e-05 0)
(0.0353435 9.73242e-05 0)
(0.0347217 0.000228062 0)
(0.0337981 0.000337896 0)
(0.0326114 0.000430636 0)
(0.0312035 0.000506047 0)
(0.0296195 0.000564511 0)
(0.0279011 0.000605796 0)
(0.026085 0.000634732 0)
(0.02421 0.000656778 0)
(0.0223128 0.0006739 0)
(0.0204216 0.000685483 0)
(0.0185554 0.000690051 0)
(0.016726 0.000696798 0)
(0.0149644 0.00071351 0)
(0.0132954 0.000728198 0)
(0.0117186 0.000736916 0)
(0.0102502 0.000744942 0)
(0.00890508 0.000747799 0)
(0.00769321 0.000752089 0)
(0.00662193 0.000754797 0)
(0.0056753 0.000763319 0)
(0.00481592 0.000785198 0)
(0.00392223 0.000843418 0)
(0.00281279 0.000956936 0)
(0.00111479 0.00109823 0)
(-0.00106234 0.00287616 0)
(-0.00203386 0.00182793 0)
(-0.00201244 0.0011544 0)
(-0.00167407 0.000951952 0)
(-0.00134751 0.00104901 0)
(-0.00125669 0.00129092 0)
(-0.00149608 0.00158726 0)
(-0.0020911 0.00189101 0)
(-0.00304675 0.00218269 0)
(-0.0043468 0.00245685 0)
(-0.00596763 0.00268824 0)
(-0.00788023 0.00289109 0)
(-0.0100371 0.00305197 0)
(-0.012411 0.00317916 0)
(-0.0149515 0.00326443 0)
(-0.0175989 0.00330185 0)
(-0.0202972 0.00328977 0)
(-0.0229967 0.00321549 0)
(-0.0256362 0.0030776 0)
(-0.0281395 0.0028647 0)
(-0.0304602 0.00258646 0)
(-0.0325456 0.00223698 0)
(-0.0343333 0.00181592 0)
(-0.0357719 0.00133778 0)
(-0.0368271 0.000799786 0)
(-0.0374637 0.000206164 0)
(-0.037677 -0.000419496 0)
(-0.0374323 -0.00106781 0)
(-0.0367107 -0.00172298 0)
(-0.0355143 -0.00237685 0)
(-0.0338484 -0.00301492 0)
(-0.0317295 -0.00362696 0)
(-0.029181 -0.00420277 0)
(-0.026229 -0.00473216 0)
(-0.0229111 -0.00520748 0)
(-0.0192741 -0.00562091 0)
(-0.0153644 -0.00596335 0)
(-0.0112334 -0.00622993 0)
(-0.00693979 -0.00641312 0)
(-0.00254677 -0.00650813 0)
(0.00188118 -0.00651091 0)
(0.00627619 -0.00642003 0)
(0.0105725 -0.00623978 0)
(0.0147095 -0.00597763 0)
(0.0186288 -0.00563525 0)
(0.0222753 -0.00522253 0)
(0.0256015 -0.0047471 0)
(0.0285639 -0.00421533 0)
(0.0311239 -0.00363559 0)
(0.0332505 -0.00301785 0)
(0.034922 -0.00237374 0)
(0.0361205 -0.00171225 0)
(0.0368393 -0.0010527 0)
(0.0370848 -0.000400632 0)
(0.0368771 0.000227553 0)
(0.0362466 0.000817742 0)
(0.0351902 0.00136607 0)
(0.0337515 0.00184705 0)
(0.0319746 0.00226385 0)
(0.0299037 0.00261033 0)
(0.0275957 0.00288451 0)
(0.025109 0.00308559 0)
(0.0225009 0.00321816 0)
(0.0198342 0.00328642 0)
(0.0171721 0.00329512 0)
(0.0145699 0.00324956 0)
(0.0120821 0.00315239 0)
(0.00975832 0.00301525 0)
(0.00764762 0.00285048 0)
(0.00579039 0.00264908 0)
(0.00421951 0.00241143 0)
(0.00296696 0.00214696 0)
(0.00205504 0.00185765 0)
(0.00149443 0.00156408 0)
(0.00128092 0.00128275 0)
(0.00138275 0.00105179 0)
(0.00171324 0.000961344 0)
(0.00205453 0.00117325 0)
(0.00206919 0.00186602 0)
(0.00107033 0.0028983 0)
(-0.0010505 0.0042921 0)
(-0.00154912 0.0019267 0)
(-0.000851911 0.000529197 0)
(0.00020479 0.000147123 0)
(0.00123 0.000391343 0)
(0.00196871 0.000938056 0)
(0.00231972 0.0016027 0)
(0.00225664 0.00228947 0)
(0.00177826 0.00295646 0)
(0.000899105 0.0035847 0)
(-0.000352673 0.0041512 0)
(-0.00194273 0.00465564 0)
(-0.00383105 0.00508591 0)
(-0.00597971 0.00542634 0)
(-0.00834413 0.0056862 0)
(-0.0108716 0.00584569 0)
(-0.0135073 0.00590208 0)
(-0.0161961 0.00583298 0)
(-0.0188795 0.00564268 0)
(-0.0214721 0.0053211 0)
(-0.0239207 0.00486396 0)
(-0.0261858 0.0042785 0)
(-0.0281844 0.00356653 0)
(-0.0298656 0.00275427 0)
(-0.0311981 0.00184013 0)
(-0.032125 0.000843053 0)
(-0.0326268 -0.000208293 0)
(-0.0326904 -0.0012968 0)
(-0.032294 -0.00240672 0)
(-0.0314381 -0.00351477 0)
(-0.0301243 -0.00459837 0)
(-0.0283719 -0.00563826 0)
(-0.0262031 -0.0066169 0)
(-0.0236444 -0.00751642 0)
(-0.0207314 -0.00832464 0)
(-0.0175056 -0.00902678 0)
(-0.0140138 -0.00960842 0)
(-0.0103077 -0.0100596 0)
(-0.00644393 -0.0103692 0)
(-0.00248388 -0.010529 0)
(0.00150961 -0.010532 0)
(0.00547162 -0.010378 0)
(0.009337 -0.0100741 0)
(0.0130485 -0.00962936 0)
(0.0165489 -0.00905314 0)
(0.019783 -0.00835294 0)
(0.0227066 -0.00754479 0)
(0.0252777 -0.00664155 0)
(0.027459 -0.0056578 0)
(0.0292224 -0.0046112 0)
(0.0305496 -0.00351886 0)
(0.0314155 -0.0024045 0)
(0.0318164 -0.00128905 0)
(0.0317613 -0.000194158 0)
(0.0312657 0.0008604 0)
(0.0303588 0.00184817 0)
(0.0290441 0.00277063 0)
(0.0273646 0.0035856 0)
(0.0253853 0.00428726 0)
(0.0231494 0.00486358 0)
(0.0207207 0.00530911 0)
(0.0181596 0.0056214 0)
(0.0155236 0.00580228 0)
(0.0128786 0.00585504 0)
(0.0102951 0.0057892 0)
(0.00782869 0.00561538 0)
(0.0055287 0.00534473 0)
(0.00344345 0.00498612 0)
(0.00161929 0.00455252 0)
(9.67947e-05 0.00404959 0)
(-0.0010897 0.00348358 0)
(-0.00190949 0.00286514 0)
(-0.00233572 0.00220827 0)
(-0.00235359 0.00154051 0)
(-0.00196964 0.000901457 0)
(-0.0012124 0.000374011 0)
(-0.000174521 0.000145452 0)
(0.000890087 0.000546619 0)
(0.00157676 0.0019708 0)
(0.00105243 0.00433281 0)
(-0.00109122 0.0055689 0)
(-0.00132203 0.00160163 0)
(-0.00018886 -0.000579955 0)
(0.00131761 -0.0011405 0)
(0.00275264 -0.000712574 0)
(0.00384465 0.000193451 0)
(0.00448382 0.00128345 0)
(0.00465035 0.00240655 0)
(0.00436146 0.0034934 0)
(0.00364178 0.00451309 0)
(0.00253014 0.00544449 0)
(0.00106178 0.00627692 0)
(-0.00072881 0.00700167 0)
(-0.00279619 0.00759778 0)
(-0.00510126 0.00806158 0)
(-0.00759861 0.00837887 0)
(-0.0102363 0.00853479 0)
(-0.0129587 0.00850913 0)
(-0.015695 0.00829394 0)
(-0.0183739 0.00789145 0)
(-0.0209338 0.00728226 0)
(-0.0233232 0.00648282 0)
(-0.0254593 0.00550159 0)
(-0.0272879 0.00436112 0)
(-0.0287779 0.00307604 0)
(-0.0298625 0.00167221 0)
(-0.0305138 0.000187476 0)
(-0.0307265 -0.00135063 0)
(-0.0304838 -0.00291736 0)
(-0.0297792 -0.00447738 0)
(-0.0286174 -0.00600416 0)
(-0.027018 -0.00747254 0)
(-0.0250054 -0.00885256 0)
(-0.0226074 -0.010122 0)
(-0.0198593 -0.0112608 0)
(-0.0167997 -0.0122488 0)
(-0.0134736 -0.0130702 0)
(-0.00993319 -0.0137066 0)
(-0.00623475 -0.0141429 0)
(-0.00243936 -0.0143671 0)
(0.00138994 -0.0143702 0)
(0.0051876 -0.0141526 0)
(0.00888835 -0.0137247 0)
(0.0124325 -0.0130963 0)
(0.0157674 -0.0122843 0)
(0.0188376 -0.0113013 0)
(0.021596 -0.0101632 0)
(0.0240064 -0.00889063 0)
(0.0260323 -0.00750356 0)
(0.0276463 -0.00602809 0)
(0.0288222 -0.00449098 0)
(0.0295374 -0.00292683 0)
(0.0297896 -0.00135514 0)
(0.0295888 0.000187757 0)
(0.0289432 0.00167621 0)
(0.0278827 0.00307389 0)
(0.0264176 0.00435832 0)
(0.0245896 0.00549834 0)
(0.0224736 0.00646772 0)
(0.0201152 0.00725563 0)
(0.0175822 0.00784739 0)
(0.0149393 0.00823777 0)
(0.0122471 0.00843215 0)
(0.00957439 0.00843626 0)
(0.00699436 0.00826294 0)
(0.00456439 0.00792456 0)
(0.00232994 0.0074455 0)
(0.000331422 0.00683375 0)
(-0.00138595 0.00610571 0)
(-0.00278228 0.00527434 0)
(-0.00382378 0.00434654 0)
(-0.00447749 0.00333976 0)
(-0.00471104 0.00227466 0)
(-0.00449808 0.00118249 0)
(-0.00382501 0.000128387 0)
(-0.00271255 -0.000746615 0)
(-0.00126459 -0.00114906 0)
(0.000236869 -0.000559397 0)
(0.00136 0.0016716 0)
(0.00110448 0.00563122 0)
(-0.00118805 0.00682626 0)
(-0.00119716 0.000988964 0)
(0.000365206 -0.0020627 0)
(0.00228177 -0.00279156 0)
(0.00407096 -0.00211383 0)
(0.00541982 -0.000768866 0)
(0.0062157 0.000815007 0)
(0.00645484 0.00242686 0)
(0.00618145 0.00396984 0)
(0.00544795 0.00540716 0)
(0.00430279 0.00671702 0)
(0.00279087 0.00788846 0)
(0.000945349 0.00891633 0)
(-0.00119736 0.00978443 0)
(-0.00359244 0.0104744 0)
(-0.00619881 0.0109725 0)
(-0.00897123 0.0112545 0)
(-0.0118506 0.0112916 0)
(-0.0147554 0.0110728 0)
(-0.0176139 0.0105924 0)
(-0.0203602 0.00984279 0)
(-0.0229319 0.00883356 0)
(-0.0252448 0.0075842 0)
(-0.0272405 0.00610729 0)
(-0.0288798 0.00443757 0)
(-0.030087 0.00262339 0)
(-0.0308363 0.000693316 0)
(-0.0311255 -0.00131008 0)
(-0.0309331 -0.00334541 0)
(-0.0302583 -0.00537181 0)
(-0.0291129 -0.00735383 0)
(-0.0275114 -0.0092546 0)
(-0.0254797 -0.0110411 0)
(-0.023053 -0.0126849 0)
(-0.0202647 -0.0141595 0)
(-0.0171555 -0.0154403 0)
(-0.0137693 -0.016507 0)
(-0.0101567 -0.0173351 0)
(-0.00637686 -0.017904 0)
(-0.00249277 -0.0181959 0)
(0.0014284 -0.0182002 0)
(0.00531573 -0.0179172 0)
(0.00910052 -0.0173588 0)
(0.0127192 -0.0165415 0)
(0.0161146 -0.0154853 0)
(0.019236 -0.0142121 0)
(0.0220371 -0.0127411 0)
(0.0244777 -0.0110963 0)
(0.0265215 -0.00930295 0)
(0.0281382 -0.00739369 0)
(0.0292994 -0.00540565 0)
(0.0299835 -0.00337298 0)
(0.0301851 -0.00132935 0)
(0.0299078 0.000679987 0)
(0.0291591 0.00261364 0)
(0.0279721 0.00443182 0)
(0.0263614 0.00608381 0)
(0.0243656 0.00755908 0)
(0.02207 0.00879518 0)
(0.019528 0.00979209 0)
(0.0168062 0.0105215 0)
(0.0139826 0.0109712 0)
(0.0111227 0.0111607 0)
(0.00829619 0.011097 0)
(0.00557977 0.0107896 0)
(0.00304208 0.0102682 0)
(0.00072463 0.00955655 0)
(-0.00134223 0.00867342 0)
(-0.00310917 0.00763923 0)
(-0.004543 0.00646574 0)
(-0.00561056 0.00516669 0)
(-0.00626972 0.00375257 0)
(-0.00648034 0.00224114 0)
(-0.00619158 0.000672087 0)
(-0.00536157 -0.000863182 0)
(-0.00399236 -0.0021642 0)
(-0.00219232 -0.00280101 0)
(-0.000281815 -0.00203037 0)
(0.00124502 0.00108879 0)
(0.00119034 0.00690836 0)
(-0.00132061 0.00809427 0)
(-0.00108784 5.54675e-05 0)
(0.00101204 -0.00398125 0)
(0.00346433 -0.00485299 0)
(0.00568225 -0.00382501 0)
(0.00729586 -0.00191109 0)
(0.00820044 0.000281647 0)
(0.00842921 0.00245882 0)
(0.00807505 0.00450154 0)
(0.00722711 0.00637722 0)
(0.00595279 0.00807872 0)
(0.00430278 0.00960248 0)
(0.00231122 0.0109422 0)
(9.89979e-06 0.0120953 0)
(-0.0025675 0.0130344 0)
(-0.00538008 0.0137317 0)
(-0.00838964 0.0141659 0)
(-0.0115317 0.0142827 0)
(-0.0147103 0.0140755 0)
(-0.0178495 0.0135283 0)
(-0.0208754 0.0126385 0)
(-0.0237115 0.0114099 0)
(-0.0262782 0.00986914 0)
(-0.028507 0.00802862 0)
(-0.0303241 0.00595578 0)
(-0.031674 0.00369211 0)
(-0.0325337 0.00127626 0)
(-0.032882 -0.00122604 0)
(-0.0327085 -0.00376506 0)
(-0.032016 -0.00629064 0)
(-0.0308141 -0.00875665 0)
(-0.0291214 -0.0111084 0)
(-0.0269728 -0.0133196 0)
(-0.0244058 -0.0153565 0)
(-0.0214581 -0.0171849 0)
(-0.0181698 -0.0187758 0)
(-0.0145842 -0.0201018 0)
(-0.0107548 -0.0211356 0)
(-0.00674344 -0.0218482 0)
(-0.00261715 -0.0222144 0)
(0.00155032 -0.0222207 0)
(0.00568069 -0.021867 0)
(0.00969961 -0.0211676 0)
(0.0135382 -0.0201483 0)
(0.0171362 -0.0188349 0)
(0.0204393 -0.0172526 0)
(0.0234015 -0.0154286 0)
(0.025983 -0.0133907 0)
(0.0281432 -0.0111735 0)
(0.0298469 -0.00880873 0)
(0.0310649 -0.00633635 0)
(0.0317736 -0.0038038 0)
(0.0319565 -0.00125393 0)
(0.0316145 0.00125495 0)
(0.0307585 0.00367091 0)
(0.0294103 0.00594272 0)
(0.0276119 0.00800488 0)
(0.0253935 0.00982687 0)
(0.0228399 0.0113578 0)
(0.0200299 0.0125634 0)
(0.0170149 0.0134282 0)
(0.0139052 0.0139349 0)
(0.0107787 0.0141104 0)
(0.00769129 0.0139529 0)
(0.00473824 0.0134833 0)
(0.00199405 0.0127533 0)
(-0.00050494 0.011787 0)
(-0.0027234 0.0106171 0)
(-0.00462564 0.00926582 0)
(-0.00618154 0.00774005 0)
(-0.00736336 0.00605543 0)
(-0.00812891 0.00421045 0)
(-0.00841164 0.00220986 0)
(-0.0081247 9.18597e-05 0)
(-0.00718486 -0.00203364 0)
(-0.00555277 -0.0038855 0)
(-0.00333225 -0.00485501 0)
(-0.00090182 -0.00392725 0)
(0.00115087 0.000187671 0)
(0.00132516 0.00821181 0)
(-0.00150711 0.00940346 0)
(-0.000963079 -0.0013408 0)
(0.00189096 -0.00650582 0)
(0.00509102 -0.00746513 0)
(0.00788038 -0.00591923 0)
(0.00979903 -0.00323426 0)
(0.010765 -0.00026679 0)
(0.0108961 0.002583 0)
(0.0103688 0.00517637 0)
(0.0093301 0.0075067 0)
(0.00786608 0.00960083 0)
(0.00602245 0.0114743 0)
(0.00383623 0.0131453 0)
(0.00132862 0.0146038 0)
(-0.00148937 0.0158155 0)
(-0.00457135 0.0167426 0)
(-0.00789178 0.0173683 0)
(-0.0113821 0.0175929 0)
(-0.014924 0.0174118 0)
(-0.0184378 0.0168004 0)
(-0.0218366 0.0157604 0)
(-0.0250294 0.0142934 0)
(-0.0279316 0.0124255 0)
(-0.0304434 0.0101988 0)
(-0.0324916 0.00767561 0)
(-0.0340349 0.00490084 0)
(-0.0350206 0.00194877 0)
(-0.035431 -0.00110571 0)
(-0.0352628 -0.00420487 0)
(-0.0345222 -0.00727262 0)
(-0.0332177 -0.0102519 0)
(-0.0313821 -0.0130976 0)
(-0.0290638 -0.0157659 0)
(-0.0262949 -0.0182208 0)
(-0.023115 -0.020427 0)
(-0.0195696 -0.0223505 0)
(-0.015705 -0.0239582 0)
(-0.0115748 -0.0252161 0)
(-0.00724315 -0.0260855 0)
(-0.00278377 -0.0265336 0)
(0.00172148 -0.0265421 0)
(0.00618523 -0.0261107 0)
(0.0105248 -0.0252587 0)
(0.014666 -0.0240187 0)
(0.0185462 -0.0224252 0)
(0.02211 -0.0205114 0)
(0.0253085 -0.0183094 0)
(0.0280929 -0.0158528 0)
(0.0304244 -0.0131777 0)
(0.03227 -0.0103189 0)
(0.0335863 -0.00732226 0)
(0.0343448 -0.00424368 0)
(0.034523 -0.00114413 0)
(0.0341126 0.00191764 0)
(0.0331289 0.00486995 0)
(0.031592 0.00764594 0)
(0.0295406 0.0101776 0)
(0.0270313 0.0123839 0)
(0.024143 0.0142338 0)
(0.0209645 0.0156689 0)
(0.0175745 0.0166725 0)
(0.0140919 0.0172384 0)
(0.0105982 0.0173766 0)
(0.00715199 0.0171002 0)
(0.00388599 0.0164403 0)
(0.000875053 0.0154582 0)
(-0.00185357 0.0142099 0)
(-0.00426896 0.0127267 0)
(-0.00635299 0.01104 0)
(-0.00808439 0.00916432 0)
(-0.00944009 0.00708623 0)
(-0.0103807 0.00479034 0)
(-0.0108196 0.00225958 0)
(-0.0106184 -0.000505656 0)
(-0.00961356 -0.00338323 0)
(-0.00768069 -0.00598289 0)
(-0.00489837 -0.00745164 0)
(-0.00173261 -0.00641347 0)
(0.00106058 -0.00114112 0)
(0.00152271 0.00955304 0)
(-0.001799 0.0108089 0)
(-0.000866779 -0.00335884 0)
(0.0030861 -0.00989188 0)
(0.00736714 -0.0108413 0)
(0.0109292 -0.00849058 0)
(0.0131838 -0.00472395 0)
(0.0141178 -0.000751167 0)
(0.01401 0.00289322 0)
(0.0131814 0.00607771 0)
(0.0118589 0.00885878 0)
(0.0101411 0.0113221 0)
(0.00807665 0.0135454 0)
(0.00567983 0.0155598 0)
(0.00293641 0.0173492 0)
(-0.000156101 0.0188731 0)
(-0.00354558 0.02008 0)
(-0.00724485 0.0209368 0)
(-0.0111788 0.021304 0)
(-0.0151794 0.0211784 0)
(-0.0191632 0.0205042 0)
(-0.0230274 0.0193007 0)
(-0.0266708 0.0175709 0)
(-0.0299804 0.0153416 0)
(-0.0328489 0.0126787 0)
(-0.0351999 0.00963308 0)
(-0.0369685 0.00628498 0)
(-0.038099 0.00272501 0)
(-0.0385829 -0.000954181 0)
(-0.0384077 -0.00466749 0)
(-0.0375813 -0.00833298 0)
(-0.0361453 -0.0118822 0)
(-0.0341348 -0.0152666 0)
(-0.0315948 -0.018429 0)
(-0.0285732 -0.0213323 0)
(-0.0251117 -0.0239428 0)
(-0.0212555 -0.0262257 0)
(-0.0170527 -0.0281409 0)
(-0.0125591 -0.0296447 0)
(-0.00784141 -0.030688 0)
(-0.00298031 -0.0312279 0)
(0.00193272 -0.0312387 0)
(0.00679652 -0.03072 0)
(0.0115208 -0.0296991 0)
(0.0160261 -0.0282167 0)
(0.0202453 -0.0263183 0)
(0.024121 -0.0240465 0)
(0.027603 -0.0214403 0)
(0.0306432 -0.018535 0)
(0.0331979 -0.015363 0)
(0.0352252 -0.011964 0)
(0.0366755 -0.00839649 0)
(0.0375063 -0.00471304 0)
(0.0376908 -0.000991243 0)
(0.0372147 0.00269367 0)
(0.0360815 0.00625466 0)
(0.0343195 0.00960435 0)
(0.0319599 0.0126489 0)
(0.0290725 0.0153015 0)
(0.0257641 0.0175044 0)
(0.0221262 0.0192027 0)
(0.018262 0.0203568 0)
(0.0143047 0.0209663 0)
(0.0103502 0.0210421 0)
(0.00646919 0.0206134 0)
(0.00281323 0.0197094 0)
(-0.000514579 0.0184464 0)
(-0.00350189 0.0168684 0)
(-0.00613765 0.0150373 0)
(-0.00841241 0.0129965 0)
(-0.010346 0.0107669 0)
(-0.0119357 0.00831988 0)
(-0.0131334 0.00558906 0)
(-0.0138477 0.00249068 0)
(-0.0138736 -0.00104237 0)
(-0.0128968 -0.00489871 0)
(-0.01063 -0.0085527 0)
(-0.00708086 -0.0108006 0)
(-0.00284972 -0.00973723 0)
(0.00100002 -0.00306391 0)
(0.00181104 0.0109907 0)
(-0.00225689 0.012386 0)
(-0.000893107 -0.00623433 0)
(0.00470036 -0.0145277 0)
(0.0106113 -0.0153002 0)
(0.0152166 -0.0116502 0)
(0.01777 -0.00630331 0)
(0.0184528 -0.00100079 0)
(0.0178548 0.00355542 0)
(0.0165297 0.00733012 0)
(0.014803 0.0105126 0)
(0.0127938 0.013294 0)
(0.0105065 0.0158371 0)
(0.00789242 0.0181915 0)
(0.00490963 0.0203445 0)
(0.00152638 0.0222389 0)
(-0.00221552 0.0237931 0)
(-0.00636631 0.0249336 0)
(-0.0108243 0.0254987 0)
(-0.0153879 0.0254556 0)
(-0.0199589 0.0247416 0)
(-0.0243934 0.0233666 0)
(-0.028592 0.0213421 0)
(-0.0324095 0.0187004 0)
(-0.0357209 0.0155194 0)
(-0.0384375 0.0118783 0)
(-0.0404786 0.00787507 0)
(-0.0417792 0.00362166 0)
(-0.0423231 -0.000768517 0)
(-0.0421164 -0.00517528 0)
(-0.0411865 -0.00951106 0)
(-0.0395775 -0.0136949 0)
(-0.0373374 -0.0176582 0)
(-0.0345274 -0.0213516 0)
(-0.0312047 -0.0247375 0)
(-0.0274145 -0.0277825 0)
(-0.0232016 -0.0304516 0)
(-0.0186115 -0.0327021 0)
(-0.0136999 -0.0344787 0)
(-0.00853588 -0.0357189 0)
(-0.00320552 -0.036364 0)
(0.00218596 -0.0363762 0)
(0.00751554 -0.0357563 0)
(0.0126822 -0.0345438 0)
(0.0176024 -0.0327948 0)
(0.0222075 -0.0305671 0)
(0.0264419 -0.0279111 0)
(0.0302571 -0.0248698 0)
(0.0336035 -0.0214795 0)
(0.0364333 -0.0177741 0)
(0.0386891 -0.0137939 0)
(0.0403142 -0.00959502 0)
(0.0412567 -0.00523915 0)
(0.0414663 -0.000810623 0)
(0.0409188 0.0035921 0)
(0.0396151 0.00785634 0)
(0.0375734 0.0118696 0)
(0.0348384 0.0155058 0)
(0.0314992 0.0186698 0)
(0.027672 0.0212773 0)
(0.0234645 0.0232593 0)
(0.0190075 0.0245781 0)
(0.0144668 0.0252192 0)
(0.00995063 0.0251982 0)
(0.00552942 0.0245693 0)
(0.00143378 0.0233454 0)
(-0.00224391 0.0217341 0)
(-0.00552373 0.0197666 0)
(-0.00838139 0.0175519 0)
(-0.0108493 0.015153 0)
(-0.0129781 0.0125906 0)
(-0.0148242 0.00982601 0)
(-0.016391 0.00671931 0)
(-0.017576 0.00305663 0)
(-0.0180755 -0.00135631 0)
(-0.0173419 -0.00650752 0)
(-0.0147745 -0.0117121 0)
(-0.0101811 -0.0152228 0)
(-0.00433603 -0.0142784 0)
(0.00108874 -0.00578582 0)
(0.00226288 0.0126547 0)
(-0.00298502 0.0143483 0)
(-0.00107919 -0.010338 0)
(0.00733183 -0.0211117 0)
(0.0158194 -0.0213439 0)
(0.0216564 -0.0154887 0)
(0.0241424 -0.00774246 0)
(0.0240249 -0.00068379 0)
(0.0224692 0.00485607 0)
(0.0203644 0.00911169 0)
(0.0180968 0.012537 0)
(0.0157587 0.0155213 0)
(0.0132727 0.0183056 0)
(0.010491 0.0210028 0)
(0.00730573 0.0235768 0)
(0.00363553 0.0259264 0)
(-0.000497172 0.0279224 0)
(-0.00516775 0.0294479 0)
(-0.0102584 0.030292 0)
(-0.015505 0.0303587 0)
(-0.0207879 0.0296335 0)
(-0.0259343 0.028064 0)
(-0.0308188 0.0257041 0)
(-0.0352618 0.0225976 0)
(-0.0391084 0.0188242 0)
(-0.0422584 0.0144857 0)
(-0.0446151 0.00971393 0)
(-0.0461086 0.00465752 0)
(-0.0467179 -0.000546783 0)
(-0.0464536 -0.00575635 0)
(-0.0453669 -0.0108518 0)
(-0.0435232 -0.0157299 0)
(-0.0409926 -0.0203215 0)
(-0.0378541 -0.0245846 0)
(-0.0341757 -0.0284827 0)
(-0.0300074 -0.0319901 0)
(-0.0253937 -0.0350749 0)
(-0.0203736 -0.0376905 0)
(-0.0149952 -0.0397732 0)
(-0.00932563 -0.0412413 0)
(-0.00345629 -0.0420097 0)
(0.00248679 -0.0420207 0)
(0.00834677 -0.0412782 0)
(0.0140083 -0.0398451 0)
(0.0193871 -0.0378003 0)
(0.0244206 -0.0352163 0)
(0.0290598 -0.0321505 0)
(0.0332584 -0.0286467 0)
(0.0369657 -0.0247406 0)
(0.0401265 -0.0204626 0)
(0.0426731 -0.0158545 0)
(0.0445339 -0.0109598 0)
(0.0456344 -0.00584854 0)
(0.0459054 -0.00061608 0)
(0.0452973 0.00461581 0)
(0.043799 0.00970283 0)
(0.0414292 0.0144959 0)
(0.0382391 0.0188402 0)
(0.0343397 0.0225978 0)
(0.0298697 0.0256681 0)
(0.0249711 0.0279717 0)
(0.019797 0.0294598 0)
(0.0145304 0.0301167 0)
(0.00933323 0.0299487 0)
(0.00426658 0.0290264 0)
(-0.000351831 0.0274259 0)
(-0.00440512 0.0253358 0)
(-0.00797219 0.0228877 0)
(-0.0110182 0.020224 0)
(-0.0136299 0.0174557 0)
(-0.0159198 0.0146347 0)
(-0.0180337 0.0116671 0)
(-0.0200856 0.00832666 0)
(-0.0220184 0.00421492 0)
(-0.0234595 -0.00111835 0)
(-0.0235324 -0.00798752 0)
(-0.0210516 -0.0155611 0)
(-0.0152359 -0.0212366 0)
(-0.00681133 -0.020737 0)
(0.00138962 -0.0096586 0)
(0.00300377 0.0147529 0)
(-0.00414644 0.0168873 0)
(-0.000482332 -0.0166276 0)
(0.0136289 -0.0310076 0)
(0.0261002 -0.0294587 0)
(0.032635 -0.019584 0)
(0.0335786 -0.00826015 0)
(0.0312478 0.000888585 0)
(0.0278154 0.00727217 0)
(0.0244809 0.0116565 0)
(0.021543 0.0149927 0)
(0.0189137 0.0179565 0)
(0.0163429 0.0208877 0)
(0.0135258 0.0239268 0)
(0.010218 0.0270063 0)
(0.00628307 0.0299446 0)
(0.00173577 0.0325429 0)
(-0.00353071 0.0345492 0)
(-0.0094003 0.0357893 0)
(-0.0154784 0.0360512 0)
(-0.0216361 0.0353193 0)
(-0.0276623 0.033544 0)
(-0.0333603 0.0307979 0)
(-0.0385558 0.0271514 0)
(-0.0430665 0.0226865 0)
(-0.0467494 0.0175241 0)
(-0.0494751 0.0118348 0)
(-0.0511761 0.00581373 0)
(-0.0518353 -0.000352235 0)
(-0.0514705 -0.00647921 0)
(-0.0501548 -0.0124227 0)
(-0.0479889 -0.0180625 0)
(-0.0450868 -0.0233288 0)
(-0.0415462 -0.0281902 0)
(-0.0374468 -0.0326212 0)
(-0.0328494 -0.0366091 0)
(-0.027792 -0.0401348 0)
(-0.0223043 -0.0431481 0)
(-0.0164211 -0.0455777 0)
(-0.0101959 -0.0473152 0)
(-0.00372478 -0.0482336 0)
(0.00283635 -0.0482393 0)
(0.00928304 -0.0473401 0)
(0.0154808 -0.0456441 0)
(0.0213509 -0.0432689 0)
(0.0268467 -0.0403033 0)
(0.0319336 -0.0368092 0)
(0.0365705 -0.0328256 0)
(0.0407043 -0.0283823 0)
(0.0442678 -0.0235008 0)
(0.0471829 -0.0182098 0)
(0.0493608 -0.0125488 0)
(0.0506951 -0.00658521 0)
(0.0510771 -0.000424483 0)
(0.0504252 0.00578151 0)
(0.0487153 0.0118463 0)
(0.0459627 0.0175685 0)
(0.0422211 0.0227593 0)
(0.0376358 0.0272154 0)
(0.0323874 0.0308135 0)
(0.0266414 0.0334758 0)
(0.0205877 0.0351445 0)
(0.0144389 0.0357986 0)
(0.00839149 0.0354358 0)
(0.00258355 0.0340889 0)
(-0.00263985 0.0319891 0)
(-0.00713448 0.029264 0)
(-0.0109574 0.0261869 0)
(-0.0141106 0.0229724 0)
(-0.0167231 0.0198274 0)
(-0.0190404 0.0168329 0)
(-0.0213794 0.0138789 0)
(-0.0240269 0.0106378 0)
(-0.0271059 0.00643793 0)
(-0.030419 0.000314752 0)
(-0.0327896 -0.00852256 0)
(-0.0319687 -0.0196164 0)
(-0.0255522 -0.0293045 0)
(-0.0131272 -0.0305097 0)
(0.000862628 -0.0156509 0)
(0.00417584 0.0175087 0)
(-0.00553949 0.0192066 0)
(0.00473399 -0.0279393 0)
(0.0285701 -0.0465002 0)
(0.0458229 -0.0394339 0)
(0.0511972 -0.0219191 0)
(0.0475922 -0.00560622 0)
(0.0404856 0.00536524 0)
(0.033693 0.0116775 0)
(0.028532 0.0152942 0)
(0.0248823 0.017902 0)
(0.0221583 0.0204852 0)
(0.0197524 0.0234439 0)
(0.0171237 0.0268336 0)
(0.0138594 0.0305476 0)
(0.00973686 0.034274 0)
(0.00470145 0.037692 0)
(-0.00127313 0.04037 0)
(-0.00802969 0.0421791 0)
(-0.0151691 0.0427275 0)
(-0.02242 0.0419784 0)
(-0.029512 0.0399746 0)
(-0.0362071 0.0367869 0)
(-0.0423171 0.0324981 0)
(-0.047635 0.0272081 0)
(-0.051964 0.0210668 0)
(-0.0551325 0.0142823 0)
(-0.0570569 0.0070993 0)
(-0.0577182 -0.000208182 0)
(-0.057165 -0.00741177 0)
(-0.0555184 -0.0143149 0)
(-0.0529242 -0.0207885 0)
(-0.0495461 -0.0267688 0)
(-0.0455116 -0.03224 0)
(-0.0409147 -0.0372108 0)
(-0.0358284 -0.0416851 0)
(-0.0302846 -0.0456653 0)
(-0.0242985 -0.0491068 0)
(-0.0178883 -0.0519305 0)
(-0.0110863 -0.0539896 0)
(-0.00399087 -0.0550938 0)
(0.00321199 -0.0550859 0)
(0.0102656 -0.0539831 0)
(0.0170124 -0.0519709 0)
(0.0233892 -0.0492285 0)
(0.0293751 -0.0458633 0)
(0.0349543 -0.0419342 0)
(0.0400901 -0.03747 0)
(0.0447242 -0.0324821 0)
(0.0487816 -0.026973 0)
(0.0521676 -0.0209537 0)
(0.054768 -0.0144498 0)
(0.0564388 -0.0075232 0)
(0.0570194 -0.000287977 0)
(0.0563702 0.00707825 0)
(0.0544327 0.0143323 0)
(0.0512333 0.0211844 0)
(0.0468239 0.0273811 0)
(0.0413802 0.0326617 0)
(0.0351716 0.0368714 0)
(0.0284106 0.0399365 0)
(0.0213006 0.0418117 0)
(0.0140739 0.0424486 0)
(0.00695172 0.0418161 0)
(0.000232195 0.0398838 0)
(-0.00570351 0.0370731 0)
(-0.0106913 0.0335019 0)
(-0.0147116 0.0295881 0)
(-0.0177983 0.0256761 0)
(-0.0201771 0.0221104 0)
(-0.0222604 0.0190409 0)
(-0.0245955 0.0164474 0)
(-0.0278451 0.0139658 0)
(-0.0326708 0.0106357 0)
(-0.0392911 0.0047614 0)
(-0.0465708 -0.00569786 0)
(-0.0506556 -0.0216933 0)
(-0.045726 -0.039122 0)
(-0.0286062 -0.0459315 0)
(-0.00460918 -0.0267507 0)
(0.00560649 0.0199505 0)
(-0.00518161 0.0181678 0)
(0.018912 -0.0506025 0)
(0.0511633 -0.0705015 0)
(0.0708376 -0.051044 0)
(0.073254 -0.0203103 0)
(0.0634884 0.0030634 0)
(0.050083 0.0149419 0)
(0.0389369 0.019083 0)
(0.0317644 0.0202151 0)
(0.0277678 0.021041 0)
(0.025521 0.0227242 0)
(0.0237996 0.0255782 0)
(0.0217606 0.0294548 0)
(0.0188143 0.0340563 0)
(0.0146037 0.0388854 0)
(0.00903608 0.0434308 0)
(0.00220952 0.0471008 0)
(-0.00569009 0.0497128 0)
(-0.0142482 0.0505851 0)
(-0.0228838 0.0498444 0)
(-0.0312717 0.0475625 0)
(-0.0391866 0.0438542 0)
(-0.0464249 0.0388143 0)
(-0.0527321 0.0325468 0)
(-0.057844 0.0252227 0)
(-0.0615393 0.0171003 0)
(-0.063691 0.00849662 0)
(-0.0642929 -0.000196827 0)
(-0.0634386 -0.00865481 0)
(-0.061309 -0.0166407 0)
(-0.0581392 -0.0240241 0)
(-0.0541523 -0.0307543 0)
(-0.0495142 -0.0368372 0)
(-0.0443277 -0.0423331 0)
(-0.0386696 -0.047283 0)
(-0.0325778 -0.0517163 0)
(-0.0260653 -0.0555995 0)
(-0.0191422 -0.058847 0)
(-0.0118228 -0.0612695 0)
(-0.00419957 -0.0625913 0)
(0.00353512 -0.0625603 0)
(0.0111034 -0.0612079 0)
(0.0183408 -0.0588331 0)
(0.0252097 -0.0557035 0)
(0.0317155 -0.0519428 0)
(0.0378484 -0.0475961 0)
(0.0435667 -0.0426625 0)
(0.0488005 -0.0371312 0)
(0.0534544 -0.0309771 0)
(0.0574246 -0.0241968 0)
(0.060578 -0.016779 0)
(0.0627242 -0.00877255 0)
(0.0636319 -0.000276853 0)
(0.0630769 0.00848664 0)
(0.060924 0.017194 0)
(0.0571865 0.0254325 0)
(0.0519533 0.0328483 0)
(0.0454536 0.0391204 0)
(0.0380561 0.0440508 0)
(0.0300511 0.0475755 0)
(0.0216486 0.0496919 0)
(0.0130698 0.0502932 0)
(0.00453694 0.0493059 0)
(-0.00334647 0.0466116 0)
(-0.0101497 0.0427824 0)
(-0.015707 0.0380292 0)
(-0.0198402 0.0329446 0)
(-0.0226131 0.0280554 0)
(-0.0243563 0.0239036 0)
(-0.0256552 0.0208522 0)
(-0.0273601 0.0191023 0)
(-0.0307444 0.0184155 0)
(-0.0373532 0.0177394 0)
(-0.0482588 0.0144254 0)
(-0.0620326 0.00345661 0)
(-0.0726954 -0.0194693 0)
(-0.0712384 -0.0503293 0)
(-0.0520945 -0.0699372 0)
(-0.0196952 -0.0496308 0)
(0.00510654 0.0187883 0)
(0.000263019 0.00794924 0)
(0.0339136 -0.0872513 0)
(0.0624761 -0.100865 0)
(0.0781524 -0.0632706 0)
(0.0787229 -0.0159853 0)
(0.067506 0.0166395 0)
(0.0522698 0.0293526 0)
(0.0397738 0.0295497 0)
(0.0325192 0.0261088 0)
(0.0296002 0.0238104 0)
(0.0290661 0.02405 0)
(0.0290744 0.0267615 0)
(0.0283559 0.0314158 0)
(0.0261316 0.0373415 0)
(0.0219765 0.0437919 0)
(0.0157846 0.0499806 0)
(0.007885 0.05512 0)
(-0.00160913 0.0586855 0)
(-0.0121048 0.0600044 0)
(-0.0225213 0.0592541 0)
(-0.0325846 0.056618 0)
(-0.0420428 0.0522909 0)
(-0.0507023 0.0463644 0)
(-0.0582511 0.0389094 0)
(-0.0643211 0.0300988 0)
(-0.0686184 0.0202926 0)
(-0.0709617 0.00995922 0)
(-0.0713468 -0.000420331 0)
(-0.0699752 -0.0103496 0)
(-0.0671625 -0.0195643 0)
(-0.063232 -0.0279329 0)
(-0.058462 -0.0354373 0)
(-0.0530609 -0.0421279 0)
(-0.0471454 -0.0481301 0)
(-0.0407938 -0.0535145 0)
(-0.0340658 -0.0583623 0)
(-0.0270114 -0.0626377 0)
(-0.0196749 -0.0662618 0)
(-0.0120673 -0.0690182 0)
(-0.00424381 -0.0705441 0)
(0.00366808 -0.0704858 0)
(0.0114486 -0.0688834 0)
(0.0189711 -0.0661732 0)
(0.0262445 -0.0627033 0)
(0.0332908 -0.0586115 0)
(0.0400787 -0.0538976 0)
(0.0465157 -0.0485232 0)
(0.0524835 -0.0424566 0)
(0.0578602 -0.0356531 0)
(0.0625536 -0.0280908 0)
(0.0664296 -0.0197239 0)
(0.0692575 -0.0105305 0)
(0.0707073 -0.000569993 0)
(0.0704057 0.00991308 0)
(0.0680965 0.0204366 0)
(0.0637704 0.030457 0)
(0.0575496 0.0394073 0)
(0.0497183 0.0468843 0)
(0.0407925 0.0526521 0)
(0.0312157 0.0566979 0)
(0.0211724 0.059096 0)
(0.0108286 0.0596931 0)
(0.000418812 0.0582759 0)
(-0.0090781 0.054648 0)
(-0.0170528 0.0493433 0)
(-0.0232844 0.0428969 0)
(-0.0274142 0.0360955 0)
(-0.0294966 0.029754 0)
(-0.0299053 0.0246886 0)
(-0.0293867 0.0216155 0)
(-0.0291849 0.0211828 0)
(-0.0311616 0.023596 0)
(-0.0374209 0.0276968 0)
(-0.0493207 0.0288246 0)
(-0.0648999 0.0176392 0)
(-0.0772613 -0.0140932 0)
(-0.0780579 -0.0616615 0)
(-0.0634917 -0.100133 0)
(-0.0352492 -0.0869718 0)
(-0.000682561 0.00792399 0)
(0.00878118 -0.0123874 0)
(0.0275595 -0.120448 0)
(0.0355505 -0.120677 0)
(0.0411791 -0.0692835 0)
(0.0440344 -0.0116204 0)
(0.0409367 0.0271615 0)
(0.0342506 0.0407585 0)
(0.0286775 0.0376724 0)
(0.0266128 0.0294977 0)
(0.0279784 0.0235741 0)
(0.0312428 0.0222566 0)
(0.0345261 0.0252302 0)
(0.03631 0.031406 0)
(0.0356229 0.0395456 0)
(0.0319659 0.0485353 0)
(0.025228 0.05726 0)
(0.0158429 0.0646564 0)