/*--------------------------------*- C++ -*----------------------------------*\
| =========                 |                                                 |
| \\      /  F ield         | OpenFOAM: The Open Source CFD Toolbox           |
|  \\    /   O peration     | Version:  2412                                  |
|   \\  /    A nd           | Website:  www.openfoam.com                      |
|    \\/     M anipulation  |                                                 |
\*---------------------------------------------------------------------------*/
FoamFile
{
    version     2.0;
    format      ascii;
    arch        "LSB;label=32;scalar=64";
    class       volScalarField;
    location    "9";
    object      alpha.soap;
}
// * * * * * * * * * * * * * * * * * * * * * * * * * * * * * * * * * * * * * //

dimensions      [0 0 0 0 0 0 0];

internalField   nonuniform List<scalar> 
6400
(
1
1
1
0.999999
0.999998
0.999998
0.999998
0.999999
0.999999
0.999999
0.999999
0.999999
0.999999
0.999999
0.999999
1
0.999999
1
1
1
1
1
1
1
1
1
1
1
1
1
1
1
1
1
1
1
1
1
1
1
1
1
1
1
1
1
1
0.999999
0.999999
0.999999
1
1
1
1
1
1
1
1
1
1
1
1
1
1
1
1
1
1
0.999999
0.999997
0.999997
0.999998
0.999999
0.999999
0.999996
0.999996
0.999997
0.999999
1
1
0.999993
0.999998
0.999999
0.999998
0.999998
0.999998
0.999998
0.999998
0.999998
0.999998
0.999998
0.999998
0.999999
0.999999
0.999998
1
1
1
1
1
1
0.999999
1
1
1
1
1
1
1
1
1
1
1
1
1
1
1
1
1
1
1
1
1
1
1
1
1
1
1
1
1
1
1
1
1
1
1
1
1
1
1
1
1
1
1
1
0.999999
0.999998
0.999998
0.999998
1
1
0.999998
0.999996
0.999996
0.999997
0.999999
0.999998
0.999999
1
0.999997
0.999997
0.999998
0.999999
0.999999
0.999999
0.999999
0.999998
0.999998
0.999999
0.999998
0.999999
0.999999
0.999999
0.999999
1
0.999999
0.999999
0.999999
0.999999
1
1
1
1
1
1
1
1
1
1
1
1
1
0.999999
0.999999
0.999999
1
1
1
1
1
1
1
1
1
1
1
1
0.999999
0.999998
0.999998
0.999999
0.999999
1
1
1
1
1
1
0.999999
0.999999
0.999999
0.999999
0.999999
1
1
1
1
1
1
1
1
1
1
0.999999
0.999998
0.999996
0.999996
1
0.999999
1
0.999999
0.999999
1
1
1
0.999999
0.999998
0.999998
0.999999
0.999999
0.999999
1
0.999999
0.999998
0.999998
1
1
1
1
1
1
1
1
1
1
1
1
1
1
1
1
1
1
1
1
1
1
1
0.999999
0.999999
0.999999
0.999999
0.999999
0.999999
0.999999
0.999999
0.999999
0.999999
0.999999
0.999999
0.999999
1
1
1
1
1
1
0.999999
0.999999
0.999999
0.999999
1
1
1
1
1
1
0.999999
0.999999
0.999999
0.999998
0.999997
0.999997
0.999999
0.999999
0.999998
1
1
0.999998
1
1
1
1
1
1
0.999999
0.999999
1
1
1
0.999999
0.999999
0.999999
1
1
0.999999
1
1
1
1
1
1
1
1
1
1
1
1
1
1
1
1
1
1
0.999999
0.999998
0.999999
0.999999
0.999999
0.999998
0.999998
0.999998
0.999998
0.999998
0.999999
1
1
1
1
1
0.999999
0.999999
0.999999
1
1
1
1
1
1
1
1
0.999999
0.999998
0.999996
0.999995
0.999995
0.999996
0.999999
0.999996
0.999996
0.999996
0.999998
1
1
1
1
1
0.999999
1
1
1
1
1
1
1
1
1
1
1
1
1
1
0.999999
0.999999
0.999999
0.999999
0.999999
0.999998
0.999998
0.999999
0.999999
1
1
1
1
1
1
1
1
1
0.999999
1
1
1
1
1
1
1
1
0.999999
0.999999
0.999999
0.999999
0.999999
0.999999
0.999999
1
1
1
1
1
1
1
1
1
1
1
1
1
1
1
0.999999
0.999997
0.999995
0.999996
0.999999
1
0.999999
0.999999
1
1
1
1
1
1
1
1
0.999999
1
1
1
1
1
1
0.999999
1
1
1
1
1
0.999998
0.999999
1
0.999999
0.999999
0.999999
0.999999
0.999999
0.999999
0.999999
0.999999
0.999999
0.999999
0.999999
0.999999
0.999999
0.999999
1
1
1
1
1
1
1
1
1
1
1
1
1
1
0.999999
0.999999
0.999999
0.999999
1
1
1
1
1
1
1
1
1
1
1
1
1
1
1
1
1
0.999999
0.999999
0.999999
1
1
1
1
1
1
1
1
0.999999
1
1
0.999999
1
0.999999
1
1
1
1
0.999999
0.999999
1
1
1
1
1
1
0.999999
1
1
0.999999
0.999999
0.999999
0.999999
1
1
0.999999
0.999999
0.999999
1
1
1
1
1
1
1
1
1
1
1
1
1
1
1
1
1
1
1
1
1
1
1
1
1
1
1
1
1
1
1
1
1
1
1
1
1
0.999999
0.999999
0.999999
0.999999
0.999999
0.999999
0.999998
0.999999
1
1
1
1
1
1
1
1
0.999999
1
1
1
1
1
0.999999
0.999999
0.999999
0.999999
1
1
1
1
1
1
1
0.999999
0.999999
0.999999
0.999999
1
1
1
1
1
1
1
1
1
1
1
1
1
1
1
1
1
1
1
1
1
1
1
1
1
1
1
1
1
1
1
1
1
1
1
1
1
1
0.999999
0.999999
1
1
0.999999
0.999998
0.999998
0.999999
0.999999
0.999999
0.999999
1
1
1
1
1
1
1
1
1
1
1
0.999999
1
1
1
0.999999
0.999999
0.999999
1
1
1
1
0.999999
1
0.999999
1
1
1
1
0.999999
0.999998
0.999999
1
1
1
1
1
1
1
1
1
0.999999
1
1
1
1
1
0.999999
0.999999
1
1
1
1
1
1
1
1
1
1
1
1
1
1
1
1
1
1
1
1
1
1
1
1
1
1
1
1
1
1
1
1
1
1
1
1
1
1
1
0.999999
1
1
0.999999
1
1
1
1
0.999999
0.999999
1
1
1
1
0.999999
1
1
1
1
0.999999
0.999999
0.999998
0.999998
0.999998
1
1
1
1
1
1
1
0.999999
1
1
1
1
1
1
1
1
1
1
1
1
1
1
1
1
1
1
1
1
1
1
1
1
1
1
1
1
1
1
1
1
1
1
1
1
1
1
1
1
1
1
1
1
0.999984
0.999947
0.999938
0.999983
1
1
0.999999
1
1
1
0.999651
0.999926
1
1
1
0.999999
0.999999
1
1
1
0.999999
1
1
1
1
1
1
1
1
1
1
1
1
1
1
1
1
1
1
1
1
1
1
1
1
1
1
1
1
1
1
1
1
1
1
1
1
1
1
1
1
1
1
1
1
1
1
1
1
1
1
1
1
1
1
1
1
1
1
1
0.999946
0.999891
0.999891
0.999891
0.999981
1
1
1
1
0.999907
0.999596
0.999762
1
1
1
0.999999
1
0.999999
1
1
1
1
1
1
1
1
1
1
1
1
1
1
1
1
1
1
0.999999
0.999999
1
1
1
1
1
1
1
1
1
1
1
1
1
1
1
1
1
1
1
1
1
1
1
1
1
1
1
1
1
1
1
1
1
1
1
1
1
1
1
1
1
1
0.999998
0.999966
0.999901
0.999891
0.999936
1
1
0.999817
1
0.998735
0.997972
0.999992
0.999992
1
1
0.999999
0.999999
1
1
0.999999
1
1
1
1
1
1
1
1
1
1
1
1
1
1
1
1
1
1
1
1
1
1
1
1
1
1
1
1
1
1
1
1
1
1
1
1
1
1
1
1
1
1
1
1
1
1
1
1
1
1
1
1
1
1
1
1
1
1
1
1
1
1
1
0.999958
0.999969
0.999999
0.999411
0.996217
0.99902
0.998114
0.995017
0.996636
1
1
0.999998
0.999997
0.999997
1
1
1
1
1
1
1
1
1
1
1
1
1
1
1
1
1
1
1
1
1
1
1
1
1
1
1
1
1
1
1
1
1
1
1
1
1
1
1
1
1
1
1
1
1
1
1
1
1
1
1
1
1
1
1
1
1
1
1
1
1
1
0.999999
1
1
1
1
1
0.999961
0.996191
0.995976
0.996158
0.998194
0.994839
0.994058
0.999616
1
0.999996
0.999992
0.999995
1
1
1
0.999999
1
1
1
1
1
1
1
1
1
1
1
1
1
1
1
1
1
1
1
1
1
1
1
1
1
1
1
1
1
1
1
1
1
1
1
1
1
1
1
1
1
1
1
1
1
1
1
1
1
1
1
1
1
1
1
1
1
1
1
1
1
1
1
1
0.998557
0.996163
0.996884
0.997722
0.998427
0.997187
0.994077
0.995702
1
0.999999
0.999992
0.999998
1
1
1
0.999999
0.999999
0.999999
1
1
1
1
1
1
1
1
1
1
1
1
1
1
1
1
1
1
1
1
1
1
1
1
1
1
1
1
0.999999
0.999999
0.999999
1
1
1
1
1
1
1
1
1
1
1
1
1
1
1
1
1
1
1
1
1
1
1
1
0.999999
1
1
1
1
1
1
0.999046
0.996253
0.998286
0.998925
0.999495
0.999408
0.99776
0.998757
1
1
0.999999
1
0.999999
0.999999
0.999997
0.999994
0.999991
0.99999
0.999992
0.999995
0.999997
0.999998
0.999999
0.999999
0.999999
1
1
1
1
1
1
1
1
1
1
1
1
1
1
1
1
1
1
1
1
1
1
1
1
1
1
1
1
1
1
1
1
1
1
1
1
0.999999
0.999999
0.999999
0.999999
0.999998
0.999997
0.999996
0.999995
0.999993
0.999993
0.999992
0.999992
0.999993
0.999997
0.999983
1
1
1
1
0.999964
0.999824
0.999765
0.999698
0.999856
0.999874
0.999945
0.999999
1
1
1
1
0.999999
0.99998
0.999924
0.999864
0.999797
0.999755
0.999784
0.999847
0.999899
0.999934
0.999957
0.999974
0.999985
0.999991
0.999995
0.999997
0.999998
0.999999
0.999999
0.999999
0.999999
0.999999
0.999999
1
1
1
1
1
1
1
1
1
1
1
1
1
1
1
1
1
1
1
1
1
1
1
1
0.999999
0.999997
0.999994
0.99999
0.999984
0.999973
0.999957
0.999933
0.999907
0.999879
0.99985
0.99983
0.999827
0.999834
0.999847
0.999926
0.999992
1
1
1
1
1
0.999996
0.999862
0.999695
0.825642
0.827976
0.816614
0.803903
0.784761
0.764036
0.743746
0.729542
0.713243
0.699429
0.707823
0.723859
0.749634
0.785366
0.829681
0.874602
0.91384
0.944008
0.965484
0.979502
0.987326
0.99063
0.99129
0.990654
0.988781
0.978819
0.966998
0.95221
0.937523
0.929601
0.927962
0.927253
0.921939
0.915643
0.914236
0.922201
0.936404
0.951204
0.959284
0.961411
0.95877
0.953262
0.945547
0.936545
0.927956
0.921323
0.917368
0.916099
0.917032
0.922216
0.93181
0.94615
0.964977
0.984488
0.995044
0.992658
0.992688
0.995608
0.997774
0.997981
0.996746
0.993565
0.986741
0.976643
0.963087
0.946099
0.926273
0.90264
0.871582
0.827149
0.774248
0.736651
0.712549
0.678858
0.652123
0.637691
0.608815
0.581709
0.586691
0.606074
0.194278
0.157265
0.127698
0.110274
0.0963839
0.0852266
0.0775164
0.0724906
0.0645904
0.0543659
0.0467607
0.0471036
0.0570898
0.0737493
0.101952
0.144063
0.197277
0.256678
0.31744
0.374494
0.420412
0.447304
0.451365
0.429893
0.401497
0.37334
0.34228
0.318935
0.301625
0.285785
0.272001
0.264292
0.263073
0.265402
0.265948
0.259197
0.247513
0.233529
0.217661
0.200901
0.186112
0.1749
0.16679
0.161142
0.15798
0.156968
0.157754
0.159733
0.162616
0.168539
0.177778
0.19496
0.223806
0.26702
0.324727
0.392718
0.451552
0.500286
0.530763
0.537391
0.517887
0.477025
0.425048
0.37166
0.319467
0.271225
0.228388
0.185699
0.137663
0.0894145
0.062481
0.0536625
0.0501247
0.0446415
0.0389697
0.0319027
0.0236174
0.0211521
0.0337712
0.0586845
0.00394807
0.00231507
0.00125566
0.000819215
0.000536068
0.000336409
0.000206868
7.78206e-05
2.05613e-05
6.24482e-06
6.25333e-06
6.20865e-06
6.18922e-06
6.17288e-06
6.19169e-06
6.20747e-06
6.22472e-06
6.36045e-06
6.72553e-06
7.50187e-06
8.40192e-06
9.28784e-06
1.07503e-05
0.00500203
0.00705715
0.000760471
0.000205062
0.000155047
0.000128417
0.000127979
8.97777e-05
5.84387e-05
5.97601e-05
5.21322e-05
4.23572e-05
0.000135738
4.41813e-05
2.65331e-05
2.34817e-05
1.41511e-05
2.36881e-05
5.44444e-05
7.74489e-05
7.36795e-05
6.70553e-05
6.23351e-05
6.55214e-05
6.60154e-05
6.66213e-05
7.11375e-05
0.00010807
0.000161013
0.000242584
0.000335371
0.00181232
9.89722e-05
8.04574e-05
7.81462e-05
7.81462e-05
7.08679e-05
5.03319e-05
2.73604e-05
1.49687e-05
1.17549e-05
1.11407e-05
1.10617e-05
1.10612e-05
1.10617e-05
1.10582e-05
1.10192e-05
8.7995e-06
5.92208e-06
4.48968e-06
5.92189e-06
7.48973e-06
0.000211625
0.000627628
0.00129443
0.00269658
0.00396311
0.00126749
0.000714224
0.000250089
0.000105097
5.60679e-05
7.53633e-05
8.07006e-05
2.28425e-05
7.01277e-06
7.48531e-06
6.20756e-06
6.18922e-06
6.17288e-06
6.16378e-06
6.17288e-06
6.19227e-06
6.30721e-06
8.43995e-06
1.74596e-05
2.02486e-05
2.18798e-05
1.9553e-05
2.65355e-05
0.000149231
7.39936e-05
7.25312e-05
6.58064e-05
7.68067e-05
8.24182e-05
8.40868e-05
6.82708e-05
6.17092e-05
6.12012e-05
5.16325e-05
3.89722e-05
2.82472e-05
2.65331e-05
2.46104e-05
1.4933e-05
1.0196e-06
1.65566e-05
7.78094e-05
7.83912e-05
7.4676e-05
6.40107e-05
5.86726e-05
6.5747e-05
6.58625e-05
6.62195e-05
6.76886e-05
0.000119802
0.00013316
0.000174233
0.00023489
0.000122719
8.65265e-05
7.81248e-05
7.81462e-05
7.81462e-05
7.6857e-05
6.95581e-05
6.80213e-05
5.41314e-05
1.67262e-05
1.1277e-05
1.10823e-05
1.10617e-05
1.10599e-05
1.10721e-05
5.36046e-05
9.5681e-05
3.35536e-05
3.54407e-06
4.48967e-06
7.2135e-06
2.76253e-05
0.000198719
0.000490343
0.000671832
0.000690758
0.000361904
0.00023281
8.95556e-05
2.90985e-05
2.56638e-05
6.37657e-05
0.000122486
1.81177e-05
6.23712e-06
6.21997e-06
6.20433e-06
6.17702e-06
6.16378e-06
6.16201e-06
6.16378e-06
6.20267e-06
6.46228e-06
2.99041e-05
3.85029e-05
3.93974e-05
3.95717e-05
3.95024e-05
2.54146e-05
3.67593e-05
2.85223e-05
3.36527e-05
4.51959e-05
6.23256e-05
7.93483e-05
8.47156e-05
0.0001253
0.000155948
0.000155716
0.000155322
0.000155856
0.000100643
7.10319e-05
4.17561e-05
1.41372e-05
4.5308e-07
4.41381e-06
1.56357e-05
2.55463e-05
1.99753e-05
1.5013e-05
5.75537e-05
7.28981e-05
6.98334e-05
6.9964e-05
0.000128939
0.000217819
0.000218267
0.000199976
0.000260383
0.000266284
0.000153099
8.04568e-05
7.81462e-05
8.19297e-05
0.00011223
0.000289491
0.000317232
0.000318159
0.00025008
2.55737e-05
1.1277e-05
1.10823e-05
2.69905e-05
0.000111194
0.000111409
0.00010948
3.7723e-05
3.06721e-06
3.54407e-06
1.79151e-05
5.15977e-05
5.76898e-05
0.000118978
0.000119506
7.13184e-05
8.69305e-05
6.17086e-05
2.97956e-05
1.40822e-05
1.95918e-05
5.61193e-05
0.000122486
0.000105953
1.64363e-05
6.30905e-06
6.23676e-06
6.76845e-06
6.16234e-06
6.16234e-06
6.16214e-06
6.16868e-06
7.72175e-06
1.17024e-05
8.41526e-06
8.45325e-06
8.84959e-06
8.55613e-06
8.72003e-06
9.85893e-06
1.37693e-05
2.20052e-05
3.36877e-05
6.02716e-05
0.000153401
0.000155741
0.000155948
0.000155948
0.000155948
0.000155756
0.000158621
0.000155855
0.00015301
0.000121474
1.42294e-05
4.01872e-08
4.02368e-08
4.01976e-08
4.02368e-08
4.10161e-08
4.94969e-08
1.66307e-07
4.21028e-06
5.13372e-06
5.59026e-06
5.19854e-06
1.73202e-05
3.76106e-05
0.000113382
0.000249773
0.000237798
4.47947e-05
8.89654e-05
0.000283741
0.000293485
0.000305337
0.000314732
0.000318159
0.000318833
0.000318478
0.000185807
1.41701e-05
1.77375e-05
3.39344e-05
0.000112095
0.000113013
7.74176e-05
3.06721e-06
2.80281e-06
2.46795e-06
2.5856e-05
5.14376e-05
3.29152e-05
2.97855e-05
3.05774e-05
2.90213e-05
2.55994e-05
1.71548e-05
1.07816e-05
1.10586e-05
1.54598e-05
7.82775e-05
0.000122224
0.000122176
0.000121746
0.000118997
7.1839e-05
1.64711e-05
9.35613e-06
6.16234e-06
6.169e-06
6.17653e-06
6.17894e-06
6.38348e-06
7.28549e-06
8.18854e-06
8.30776e-06
8.38807e-06
8.49321e-06
8.76806e-06
1.00805e-05
1.39924e-05
3.55278e-05
0.000146012
0.000153241
0.000154388
0.000155741
0.000137432
8.35379e-05
0.000158624
0.000164562
0.00015863
8.88856e-05
3.14329e-07
1.44417e-06
4.40368e-08
4.01797e-08
4.02368e-08
4.10161e-08
3.53223e-08
1.8866e-06
1.38869e-05
2.25067e-05
2.25533e-05
1.31991e-05
4.96468e-06
8.09605e-07
2.47745e-07
1.73474e-07
8.92789e-06
1.07522e-05
7.4445e-07
2.57434e-05
0.000134226
0.000102709
3.11305e-05
0.000132736
0.000314839
0.000318265
0.000318596
0.000167142
8.90185e-06
1.17677e-05
2.00843e-05
7.47384e-05
0.00011272
0.000112885
3.75763e-05
2.29924e-06
1.32355e-06
2.04651e-05
4.88471e-05
2.99784e-05
2.00536e-05
1.8657e-05
1.76428e-05
1.02948e-05
8.25799e-06
7.2887e-06
9.34656e-06
1.43473e-05
0.000122176
0.000122176
0.000122335
0.000122176
0.000121746
0.000121003
0.000109987
1.98001e-05
6.3657e-06
6.47201e-06
5.98078e-06
6.24369e-06
1.27774e-05
1.48657e-05
8.30838e-06
8.01643e-06
8.33278e-06
8.43912e-06
8.61053e-06
9.23386e-06
1.19557e-05
6.62072e-05
0.000149696
0.000152467
0.000153241
7.68725e-05
6.09928e-05
6.38792e-05
9.4756e-05
0.00016865
0.000160161
1.77e-05
6.61344e-08
5.7202e-08
4.5442e-08
4.13006e-08
4.17118e-08
3.53223e-08
1.09421e-08
1.86099e-06
1.11718e-05
1.22739e-05
5.79037e-06
9.51192e-09
1.12552e-07
5.04105e-06
4.26183e-06
9.50391e-08
5.3785e-08
7.51963e-08
5.65748e-07
1.75793e-06
3.07204e-07
5.12157e-07
7.94281e-07
1.31885e-05
0.000279181
0.000314416
0.000312941
6.89085e-05
2.24328e-06
1.62018e-06
2.34358e-06
2.98351e-06
3.74848e-05
0.000110036
0.000103152
9.00195e-06
9.07007e-07
3.34886e-06
3.2449e-05
3.49139e-05
2.13026e-05
1.86236e-05
1.7626e-05
6.68198e-06
6.22108e-06
6.35448e-06
8.18728e-06
2.37104e-05
0.000112692
0.000122215
0.000122215
6.93845e-05
1.33358e-05
3.39124e-06
3.39428e-06
3.5379e-06
1.11932e-05
1.1718e-05
5.79903e-06
5.8807e-06
1.24275e-05
3.21464e-05
8.01643e-06
7.85947e-06
8.01643e-06
8.33474e-06
8.51473e-06
9.20064e-06
1.56738e-05
0.000106132
0.000146487
0.000149696
0.000119143
5.47329e-05
5.68394e-05
6.09968e-05
0.000165132
0.000170284
0.00016865
8.54083e-05
9.45656e-08
6.61345e-08
5.72023e-08
5.19399e-08
3.70668e-08
1.06767e-08
3.82637e-09
2.2393e-09
1.94218e-09
1.91726e-09
1.57562e-09
1.31519e-09
2.09466e-07
1.74616e-06
2.76129e-09
2.42849e-08
2.59953e-08
6.7851e-08
1.06401e-07
1.34258e-07
1.54489e-07
4.88387e-06
1.88595e-05
0.00026727
0.000307671
0.000308153
0.000183907
1.02407e-05
5.60174e-07
1.24014e-07
9.44875e-08
1.49554e-07
2.79623e-07
2.35889e-05
5.26515e-05
2.56086e-05
7.53832e-07
4.1423e-09
9.54556e-06
3.5e-05
3.49447e-05
1.17203e-05
2.79669e-05
5.86473e-06
5.7635e-06
5.96737e-06
1.68858e-05
5.09492e-05
4.88276e-05
2.02743e-05
1.77227e-05
4.41803e-06
3.39199e-06
3.39199e-06
3.39151e-06
3.41735e-06
3.8014e-06
5.13402e-06
5.22134e-06
5.22134e-06
3.10971e-05
5.09313e-05
7.85946e-06
7.59434e-06
8.00268e-06
8.22656e-06
8.17087e-06
8.71469e-06
2.44603e-05
0.000149439
0.000146929
0.000146598
5.8573e-05
5.28073e-05
5.47329e-05
0.000124029
0.000170885
0.000171269
0.000170284
0.000151005
2.25393e-07
9.45753e-08
1.10984e-07
1.25561e-07
9.50965e-08
3.52473e-08
1.06438e-08
3.83824e-09
2.16051e-09
1.57339e-09
1.31507e-09
1.27378e-09
1.31158e-09
1.27858e-09
1.47661e-09
4.32411e-08
8.37947e-07
1.49094e-06
5.81817e-07
9.21693e-07
3.57862e-07
0.000103302
0.000275037
0.000283725
0.000286471
0.000142024
1.57715e-05
1.54192e-06
1.23763e-07
2.12358e-08
1.55647e-08
2.15678e-08
3.56717e-08
1.16336e-07
1.45172e-07
1.68431e-06
3.80324e-07
1.3596e-09
4.1423e-09
2.93944e-06
2.8922e-05
1.14689e-05
5.29161e-05
5.69665e-06
5.66806e-06
5.74746e-06
2.38962e-05
4.9689e-05
4.26969e-05
5.37812e-06
3.7206e-06
3.41439e-06
3.40015e-06
3.39116e-06
3.40015e-06
3.70011e-06
3.07687e-05
3.25235e-05
5.22134e-06
6.61992e-06
6.07611e-05
6.53528e-05
8.83617e-06
7.18043e-06
1.33837e-05
1.31779e-05
7.36249e-06
8.32244e-06
3.83993e-05
0.000152941
0.000151513
0.0001057
5.17297e-05
5.17708e-05
5.28073e-05
0.00011375
0.00017094
0.000170284
0.000167703
0.000164345
9.55197e-06
2.25515e-07
7.61757e-07
5.68698e-07
5.17544e-07
2.43611e-07
6.10901e-08
1.57088e-08
5.03254e-09
2.34707e-09
1.56209e-09
1.31246e-09
1.28247e-09
1.47661e-09
1.32642e-09
5.161e-08
1.73612e-06
2.0743e-06
1.94599e-06
7.34176e-06
6.37226e-05
6.2233e-05
8.98187e-05
5.28045e-05
1.76599e-05
7.92924e-07
2.51857e-07
6.84018e-08
1.14004e-08
3.58412e-09
2.68593e-09
3.35605e-09
4.6598e-09
1.20116e-08
8.26277e-09
3.61339e-09
1.27971e-08
9.70765e-10
8.30253e-07
1.14229e-05
7.75149e-06
1.1381e-05
5.29161e-05
5.68042e-06
5.69665e-06
5.66809e-06
1.31489e-05
4.78622e-05
3.84111e-05
5.77178e-06
3.45967e-06
3.4175e-06
3.41434e-06
3.40002e-06
7.21136e-06
3.83977e-05
6.82966e-05
6.76378e-05
2.59667e-05
8.12627e-06
6.56675e-05
6.57557e-05
4.58176e-05
6.38059e-06
6.17644e-06
6.15434e-06
6.47993e-06
7.27619e-06
6.25351e-05
0.000154949
0.000155968
7.83301e-05
5.17297e-05
5.17113e-05
5.17708e-05
6.02696e-05
0.00016539
0.000167703
0.0001641
0.000159851
2.86688e-05
6.61067e-07
4.30157e-06
2.73086e-05
3.27368e-05
6.77642e-06
3.9432e-07
9.45907e-08
2.55732e-08
7.73533e-09
3.6521e-09
2.04208e-09
1.50883e-09
1.32946e-09
2.01063e-10
6.57938e-11
5.00668e-07
1.8991e-06
4.80288e-07
3.2363e-10
3.54184e-10
4.29074e-10
1.04326e-09
5.15994e-09
9.48565e-09
2.56804e-08
2.13351e-08
6.84655e-09
1.45903e-09
9.21431e-10
9.58743e-10
9.85149e-10
1.06444e-09
1.52435e-09
8.76159e-10
1.16648e-09
9.70765e-10
9.45511e-10
2.81102e-06
1.93856e-05
7.22511e-06
8.15586e-06
3.5722e-05
2.92902e-05
3.25736e-05
5.754e-06
7.19883e-06
2.94605e-05
1.04001e-05
5.40989e-06
3.18078e-06
3.45966e-06
9.11895e-06
1.58787e-05
6.92824e-05
6.90005e-05
6.85989e-05
6.82966e-05
6.53728e-05
3.62239e-05
5.18886e-05
6.23501e-05
6.13585e-05
3.48058e-05
6.08441e-06
6.06191e-06
6.13699e-06
6.47993e-06
5.76977e-05
0.000155968
0.000157203
0.000151398
5.17242e-05
5.17708e-05
6.36323e-05
0.000160536
5.92308e-05
4.97017e-05
0.000150614
0.000157357
9.79197e-05
1.77774e-06
5.09735e-06
7.74323e-05
0.000100452
8.13821e-05
1.07247e-05
5.81858e-07
1.56374e-07
4.26738e-08
1.72606e-08
6.71126e-09
1.09464e-09
3.56847e-10
1.80162e-10
6.23969e-11
6.24326e-11
6.22645e-11
6.51732e-11
2.89422e-10
4.03159e-10
4.50667e-10
1.49292e-09
6.34012e-09
9.65569e-10
1.80718e-09
1.87517e-09
7.20834e-10
5.04975e-10
5.74491e-10
6.98513e-10
7.28811e-10
6.9361e-10
5.56511e-10
2.3884e-10
9.63814e-10
1.16468e-09
9.47506e-10
2.60721e-06
1.94008e-05
8.18163e-06
6.50629e-06
7.50754e-06
5.89401e-05
5.92409e-05
5.08893e-05
7.88236e-06
2.73491e-06
1.554e-06
1.18266e-06
2.58961e-06
3.93327e-05
6.9541e-05
6.96461e-05
6.96461e-05
6.96461e-05
6.1132e-05
4.6092e-05
4.45002e-05
4.88613e-05
9.99821e-07
1.13192e-06
3.17434e-05
5.14124e-05
1.73483e-05
6.32774e-06
6.24113e-06
6.27019e-06
2.50058e-05
0.000157203
0.000157703
0.000158529
0.000148935
0.000106709
0.000163848
0.000164665
0.000125305
4.26401e-05
3.63091e-05
0.000156943
0.000153337
3.69237e-06
7.54962e-06
7.06381e-05
0.000101489
0.000102649
9.97996e-05
1.95706e-05
8.97642e-07
2.43165e-07
9.7562e-08
3.64903e-08
5.10124e-09
3.44729e-10
1.37548e-10
9.24829e-11
6.22357e-11
6.2465e-11
1.33924e-10
6.2913e-10
8.14092e-10
6.74675e-10
5.16337e-10
5.16337e-10
7.97865e-10
9.8993e-10
7.60237e-10
3.54182e-10
4.26717e-10
5.35847e-10
6.62237e-10
6.99677e-10
6.56049e-10
4.2857e-10
1.29164e-10
9.40064e-10
2.35872e-09
9.0563e-10
3.65487e-08
1.93484e-05
1.74583e-05
7.82979e-06
9.64548e-05
5.92409e-05
5.96124e-05
5.96903e-05
1.48031e-05
1.554e-06
1.18266e-06
1.04197e-06
1.5571e-05
6.91769e-05
6.9423e-05
6.9541e-05
6.96461e-05
4.65239e-05
4.11009e-07
3.98219e-07
3.98219e-07
6.79735e-07
7.45061e-07
3.24877e-05
7.74161e-05
4.73283e-05
2.99647e-05
1.85253e-05
6.27019e-06
6.47748e-06
6.68478e-06
7.75074e-05
0.00015851
0.000159743
0.000162256
0.000164311
0.000164665
0.000164675
0.000164665
6.70601e-05
2.81834e-05
0.000156943
0.00015571
2.61212e-05
9.1073e-06
1.9898e-05
0.000102649
0.000102649
0.000102649
0.000102082
3.85195e-05
3.15076e-06
5.34595e-07
2.1057e-07
3.25142e-08
1.63802e-09
2.04573e-10
1.90818e-10
6.2465e-11
8.73726e-11
1.1809e-10
1.46682e-10
1.75635e-10
2.44497e-10
3.97679e-10
6.26775e-10
9.65417e-10
7.60367e-10
3.54486e-10
3.41999e-10
3.35303e-10
3.85965e-10
4.92067e-10
5.56669e-10
5.37481e-10
3.93225e-10
1.11462e-10
1.04163e-09
2.57746e-09
8.74764e-10
6.06437e-10
1.58111e-05
1.74538e-05
1.08685e-05
0.000116994
4.27205e-05
5.97026e-05
5.96868e-05
2.21708e-05
1.18418e-06
1.04197e-06
9.97079e-07
6.64582e-06
4.42099e-05
6.91769e-05
5.59257e-05
1.14382e-05
2.85811e-07
4.33728e-07
4.11009e-07
3.98219e-07
7.78782e-07
1.37721e-05
0.00014551
0.000151416
0.000152032
0.000108996
1.88505e-05
6.59291e-06
6.68478e-06
6.8002e-06
7.53032e-06
8.42245e-05
0.000162047
0.000163937
0.000164534
0.000164654
0.000164665
0.00016467
0.000134825
2.14185e-05
0.000139195
0.000154477
9.63111e-05
9.1073e-06
9.06384e-06
5.99522e-05
0.000102649
0.000102387
0.000101744
9.80179e-05
5.4483e-05
5.06618e-06
1.13448e-06
2.07135e-07
1.04332e-08
3.69494e-10
8.92902e-11
6.34534e-11
7.9454e-11
1.27764e-10
2.09435e-10
3.07466e-10
4.61804e-10
9.79587e-10
1.98646e-09
3.01451e-09
2.02487e-09
7.36602e-10
2.85963e-10
2.21076e-10
2.21301e-10
2.18582e-10
2.40006e-10
2.67987e-10
2.39908e-10
9.92453e-11
4.79159e-10
2.24961e-09
8.14867e-10
2.10818e-10
2.62241e-06
1.74147e-05
9.34621e-06
0.000117061
2.6804e-06
5.96124e-05
5.87121e-05
1.47912e-05
1.14477e-06
1.0032e-06
9.1351e-07
5.19128e-07
2.38735e-06
1.09555e-05
3.06388e-06
5.595e-08
1.13646e-07
2.85811e-07
4.69029e-07
7.02607e-06
5.88069e-05
0.000148884
0.000150983
0.000152032
0.000152032
0.000152032
0.000150319
5.61875e-05
6.8002e-06
7.55101e-06
8.63796e-06
1.06093e-05
4.06701e-05
0.000138909
0.000163793
0.000164534
0.000164654
0.00016461
8.73528e-05
1.56778e-05
5.51386e-05
0.000154477
9.78345e-05
9.10048e-06
1.34069e-05
1.66253e-05
0.000102058
0.000101744
6.96391e-05
5.44955e-05
8.14414e-05
8.0196e-05
2.69281e-05
1.1533e-05
7.50432e-08
2.30404e-09
7.51609e-11
6.57822e-11
7.35753e-11
1.03205e-10
2.39334e-10
6.76781e-10
3.09367e-09
9.88123e-09
2.63538e-08
5.60233e-08
5.09616e-08
3.82012e-08
9.68018e-09
3.16623e-10
1.32883e-10
1.10135e-10
7.8669e-11
7.26049e-11
6.89751e-11
5.31244e-11
7.16989e-11
8.59461e-10
5.30622e-10
1.39342e-10
1.77581e-10
1.30565e-05
3.13801e-06
0.000108627
2.1099e-07
1.95882e-05
1.18264e-05
3.41822e-06
2.13367e-06
2.23199e-06
1.52077e-06
1.05717e-07
6.80169e-08
8.101e-08
5.59501e-08
5.59501e-08
2.6781e-06
4.34337e-05
4.97103e-05
0.000134938
0.000138717
0.00014256
0.000137401
6.55503e-05
0.000117997
0.000150319
0.000147071
0.000145535
0.000122383
1.55663e-05
1.06052e-05
1.41145e-05
1.67807e-05
2.09897e-05
4.28723e-05
9.46078e-05
0.000164369
0.000143795
1.84669e-05
1.32395e-05
5.35034e-05
0.000150988
3.3058e-05
2.30482e-05
7.63423e-05
3.57024e-05
0.000100176
8.9381e-05
3.17519e-06
2.55027e-06
5.96118e-05
0.000143817
0.000156576
0.000129638
3.98552e-06
2.0915e-08
2.83689e-10
7.77895e-11
7.68522e-11
8.17813e-11
2.38275e-10
1.6276e-09
2.08412e-08
3.61725e-07
8.56038e-07
7.10792e-06
7.33547e-06
1.12916e-05
6.45236e-06
6.85348e-07
1.31079e-07
-3.74642e-11
7.68452e-11
5.18609e-11
4.3856e-11
4.83339e-11
4.83345e-11
9.37567e-11
1.86655e-10
1.27027e-10
1.05945e-10
1.53686e-06
5.92375e-08
9.57885e-05
1.20347e-07
2.10619e-07
4.69089e-07
2.8594e-07
2.30101e-06
2.27491e-06
1.58118e-06
6.04105e-08
4.60531e-08
7.28178e-08
8.101e-08
2.32387e-06
0.000103652
0.000153942
0.000152089
0.000150967
0.000142266
8.3808e-05
4.1833e-05
4.79743e-05
5.59446e-05
9.77003e-05
0.00014407
0.000144003
0.000143861
9.83411e-05
1.45352e-05
1.68346e-05
1.86772e-05
1.69815e-05
1.57714e-05
1.51029e-05
2.57528e-05
1.92688e-05
1.30465e-05
1.30874e-05
5.75908e-05
3.10957e-05
1.58864e-05
7.17173e-05
7.78802e-05
7.76154e-05
4.91759e-05
9.05212e-06
2.40238e-06
2.22487e-06
2.36134e-06
3.07253e-05
0.000166307
0.000168841
9.30296e-05
1.34457e-06
3.36054e-09
9.37304e-11
8.17813e-11
9.85153e-11
4.63514e-10
5.98084e-09
6.7148e-08
1.31475e-06
5.92777e-05
0.000138572
0.000139178
0.000154925
0.000141598
8.61782e-05
1.42071e-05
2.78705e-08
1.88211e-09
-5.64955e-10
7.24148e-11
4.42653e-11
4.82771e-11
5.46487e-11
1.2036e-10
1.23089e-10
1.26791e-10
1.66346e-09
1.05631e-08
9.94596e-05
1.11109e-07
8.26963e-08
9.8627e-08
1.49921e-07
2.26837e-06
2.24298e-06
6.98121e-07
3.89949e-08
4.25608e-08
4.60519e-08
4.05407e-07
0.000114684
0.000155004
0.000154842
0.000153942
0.000110589
3.04261e-05
3.12578e-05
3.2141e-05
0.000113359
0.000154961
9.56489e-05
0.00010117
0.000120558
0.00014847
0.000155888
3.6444e-05
1.86724e-05
1.70508e-05
1.60062e-05
1.50883e-05
1.40232e-05
1.31392e-05
1.28514e-05
1.29753e-05
1.3051e-05
2.66654e-05
1.31863e-05
1.45686e-05
6.48083e-05
7.75466e-05
7.77473e-05
3.91358e-05
2.0862e-06
2.04834e-06
1.25726e-06
1.56868e-06
2.87502e-06
0.00011332
0.000172017
0.000172576
3.16119e-05
3.49369e-08
1.5457e-10
9.85153e-11
1.54578e-10
9.86474e-10
1.61334e-08
2.06058e-07
2.80435e-05
0.000169189
0.000169189
0.00016951
0.000169189
0.000169366
0.000169328
0.000165569
2.81429e-05
1.65931e-07
2.08006e-08
2.10435e-09
2.54932e-10
4.57267e-11
6.0731e-11
1.17438e-10
1.21489e-10
1.22845e-10
3.1424e-10
2.69996e-09
0.00010204
7.53515e-08
2.32195e-08
2.12646e-08
1.21009e-07
9.7866e-07
8.27082e-07
4.54749e-08
3.73691e-08
3.86579e-08
1.24352e-07
6.62226e-05
0.000155536
0.000155687
0.000155004
0.000144559
6.63829e-05
2.57194e-05
2.98499e-05
0.00010873
0.000161225
0.000161985
0.000131102
0.000105525
0.000105785
0.00013498
0.000158857
0.000157536
0.000114781
8.83991e-05
4.00336e-05
1.45465e-05
1.31817e-05
1.27858e-05
1.26632e-05
1.31877e-05
1.74706e-05
1.28527e-05
1.28141e-05
1.31863e-05
6.18676e-05
7.65276e-05
7.75466e-05
3.34209e-05
1.64217e-06
8.88093e-07
8.13872e-07
6.73633e-06
1.04426e-05
0.000108006
0.000172413
0.000172552
0.000102479
1.14173e-06
1.65773e-09
1.54578e-10
1.29978e-09
2.5293e-09
2.87697e-08
2.04565e-06
0.00010316
0.000168616
0.000169507
0.000169189
0.00016856
0.000168865
0.000169328
0.000167681
0.000165995
7.09676e-05
4.07644e-07
4.99997e-08
4.98442e-09
5.28073e-10
8.2943e-11
1.18281e-10
1.27707e-10
1.30728e-10
1.60737e-10
2.57507e-09
0.00010577
8.39384e-07
6.72184e-09
5.80065e-09
3.26588e-08
2.28054e-08
1.65105e-08
1.58282e-08
2.74912e-08
6.52655e-08
2.44125e-05
0.0001553
0.000155687
0.0001553
6.5258e-05
3.92779e-05
6.71059e-05
2.55438e-05
2.57194e-05
0.000154832
0.000161985
0.000162135
0.000162161
0.000128726
0.000136113
0.000159287
0.000159694
0.000159494
0.000158704
0.000154284
0.00014711
3.25181e-05
1.31792e-05
1.26442e-05
1.2477e-05
1.24236e-05
1.24112e-05
1.24244e-05
1.244e-05
5.11451e-05
7.7388e-05
7.62024e-05
4.19066e-05
5.74411e-06
3.18331e-06
5.62143e-07
5.18285e-07
2.03481e-05
0.000131033
0.000172013
0.000172552
0.000172618
0.000171442
1.44581e-05
9.77125e-09
1.95982e-09
2.56375e-09
4.23648e-09
4.88632e-08
2.29716e-05
0.000163753
0.000167797
0.00016724
0.000130817
8.48036e-05
5.02015e-05
4.5492e-05
0.00011205
0.000164218
0.000161072
9.94161e-05
1.5563e-06
8.857e-08
8.86426e-09
7.12534e-10
1.69326e-10
1.29018e-10
1.6389e-10
1.73395e-10
1.93868e-06
0.000107006
1.16885e-06
3.91661e-09
3.06629e-09
2.54898e-09
5.54607e-09
4.43921e-09
1.06193e-08
1.4313e-08
1.13416e-07
5.93036e-05
0.000154426
0.0001553
0.000109845
1.80742e-06
2.67003e-06
2.84322e-05
1.52136e-05
3.57242e-05
0.000161976
0.000162135
0.000162161
0.000162187
0.000162161
0.000160659
0.000159696
0.000159803
0.000159758
0.000159494
0.000158726
8.52621e-05
1.44203e-05
1.28109e-05
1.24985e-05
1.24236e-05
1.24107e-05
1.24107e-05
1.24107e-05
3.26604e-05
7.7859e-05
7.76235e-05
6.05602e-05
6.34869e-06
3.78013e-06
3.71688e-06
5.18282e-07
4.73079e-07
2.08468e-05
0.00016826
0.000172003
0.000172618
0.000172677
0.000172648
4.355e-05
1.63113e-08
3.93707e-09
2.16969e-09
3.6435e-09
5.5092e-08
4.97519e-05
0.000158976
0.000139882
5.13199e-05
1.30821e-07
5.31225e-07
6.90116e-07
1.24732e-06
1.973e-06
1.20692e-05
0.000115228
0.00011471
0.000113339
4.71592e-05
1.08207e-07
1.04567e-08
8.08205e-10
3.08517e-11
1.73395e-10
2.3181e-10
2.02719e-05
0.000107006
1.17378e-06
3.08882e-09
2.38707e-09
1.64909e-09
2.20778e-09
2.05654e-09
4.99207e-09
8.68507e-09
1.11571e-06
9.43986e-05
0.000154689
0.000146589
6.02977e-06
1.78075e-06
1.81636e-06
2.42808e-06
1.25976e-05
9.37636e-05
0.00016156
0.000162
0.00016218
0.000162178
0.000162178
0.000130758
0.000159803
0.000159803
0.000159803
0.000127085
5.23435e-05
2.7274e-05
2.37886e-05
2.50461e-05
1.34534e-05
1.24326e-05
1.24108e-05
1.24107e-05
2.34925e-05
7.8217e-05
7.8217e-05
7.7859e-05
2.02076e-05
9.44382e-06
1.10703e-05
4.41591e-06
4.73074e-07
4.22422e-07
4.73075e-07
5.38698e-05
0.000171544
0.000172502
0.000172618
0.000172653
4.77648e-05
2.9056e-09
2.40115e-10
9.07145e-10
1.567e-09
1.65115e-07
4.80102e-05
7.73388e-05
5.26636e-06
2.07177e-08
3.64206e-08
5.27848e-07
2.33842e-06
3.08684e-06
2.3516e-06
4.18613e-06
7.25571e-06
3.98601e-05
9.18543e-05
8.72743e-05
1.76641e-05
9.32844e-08
4.90154e-09
4.49532e-10
2.53836e-10
3.25516e-10
3.38264e-05
0.000107006
1.1744e-06
1.76889e-08
2.42755e-09
1.49812e-09
1.43077e-09
1.44305e-09
3.23121e-09
3.32311e-09
5.41727e-06
0.000152901
0.000154314
0.000103674
1.72471e-06
1.51481e-06
4.70857e-06
1.88297e-05
3.03002e-05
8.42788e-05
0.000160642
0.00016156
0.00016201
0.000124358
4.92096e-05
3.14743e-05
8.06615e-05
0.000159803
0.000117042
4.65303e-05
4.65303e-05
5.76048e-05
6.83243e-05
6.44914e-05
1.62015e-05
1.24659e-05
1.24325e-05
2.79555e-05
7.9391e-05
7.8851e-05
7.8217e-05
4.42008e-05
2.45237e-05
2.45919e-05
1.68058e-05
1.96368e-06
4.07557e-07
3.89216e-07
4.22417e-07
2.36312e-05
0.000169713
0.000172429
0.000172502
0.00016999
2.20156e-05
2.27938e-08
4.75503e-11