/*--------------------------------*- C++ -*----------------------------------*\
| =========                 |                                                 |
| \\      /  F ield         | OpenFOAM: The Open Source CFD Toolbox           |
|  \\    /   O peration     | Version:  2412                                  |
|   \\  /    A nd           | Website:  www.openfoam.com                      |
|    \\/     M anipulation  |                                                 |
\*---------------------------------------------------------------------------*/
FoamFile
{
    version     2.0;
    format      ascii;
    arch        "LSB;label=32;scalar=64";
    class       surfaceScalarField;
    location    "8.75";
    object      phi;
}
// * * * * * * * * * * * * * * * * * * * * * * * * * * * * * * * * * * * * * //

dimensions      [0 3 -1 0 0 0 0];

oriented        oriented;

internalField   nonuniform List<scalar> 
12640
(
4.38154e-09
-4.40337e-09
1.41277e-08
-7.59369e-09
2.3689e-08
-6.38416e-09
2.89292e-08
-2.52727e-09
2.87147e-08
2.84208e-09
2.21661e-08
8.95455e-09
9.18386e-09
1.52823e-08
-1.01812e-08
2.14441e-08
-3.56588e-08
2.72028e-08
-6.67583e-08
3.24908e-08
-1.02851e-07
3.72636e-08
-1.43331e-07
4.149e-08
-1.87586e-07
4.51449e-08
-2.34999e-07
4.82693e-08
-2.84961e-07
5.08474e-08
-3.36912e-07
5.28854e-08
-3.90218e-07
5.42956e-08
-4.44226e-07
5.50393e-08
-4.98175e-07
5.4969e-08
-5.51275e-07
5.40569e-08
-6.02549e-07
5.21565e-08
-6.50982e-07
4.9275e-08
-6.95379e-07
4.5239e-08
-7.34582e-07
4.0091e-08
-7.67279e-07
3.36631e-08
-7.92285e-07
2.60758e-08
-8.08306e-07
1.71824e-08
-8.14276e-07
7.20101e-09
-8.09073e-07
-3.95702e-09
-7.91934e-07
-1.59184e-08
-7.6213e-07
-2.86542e-08
-7.1945e-07
-4.16276e-08
-6.63819e-07
-5.47107e-08
-5.95787e-07
-6.72601e-08
-5.16085e-07
-7.91111e-08
-4.26076e-07
-8.96125e-08
-3.27259e-07
-9.86415e-08
-2.21665e-07
-1.05641e-07
-1.11351e-07
-1.10593e-07
1.28073e-09
-1.13109e-07
1.13929e-07
-1.13301e-07
2.24134e-07
-1.10978e-07
3.2965e-07
-1.06366e-07
4.28266e-07
-9.94642e-08
5.18121e-07
-9.06224e-08
5.97594e-07
-8.00881e-08
6.65448e-07
-6.83435e-08
7.20739e-07
-5.57292e-08
7.62981e-07
-4.26175e-08
7.92184e-07
-2.93411e-08
8.08748e-07
-1.63045e-08
8.13343e-07
-3.92305e-09
8.06786e-07
7.53334e-09
7.90119e-07
1.78686e-08
7.64575e-07
2.69852e-08
7.31557e-07
3.4682e-08
6.92319e-07
4.09382e-08
6.48061e-07
4.58516e-08
5.99985e-07
4.97051e-08
5.49408e-07
5.25951e-08
4.97479e-07
5.45162e-08
4.45045e-07
5.53378e-08
3.92652e-07
5.51134e-08
3.40856e-07
5.39903e-08
2.90281e-07
5.22143e-08
2.4161e-07
4.99099e-08
1.95442e-07
4.71507e-08
1.52327e-07
4.39307e-08
1.12782e-07
4.02668e-08
7.73502e-08
3.61362e-08
4.65744e-08
3.15172e-08
2.09796e-08
2.63756e-08
1.02413e-09
2.07398e-08
-1.29171e-08
1.47052e-08
-2.06376e-08
8.48468e-09
-2.22978e-08
2.46781e-09
-1.87072e-08
-2.66941e-09
-1.15019e-08
-6.09228e-09
-3.78374e-09
-6.56323e-09
-2.61618e-09
9.26982e-09
-9.49064e-09
2.46733e-08
-1.73054e-08
3.66334e-08
-1.27252e-08
3.84468e-08
4.10016e-10
2.71139e-08
1.8705e-08
5.93519e-10
3.95789e-08
-4.18184e-08
6.12925e-08
-1.00045e-07
8.27004e-08
-1.73486e-07
1.03102e-07
-2.61125e-07
1.22084e-07
-3.61663e-07
1.39434e-07
-4.73665e-07
1.54996e-07
-5.95724e-07
1.68694e-07
-7.26343e-07
1.8043e-07
-8.64014e-07
1.90156e-07
-1.0071e-06
1.97714e-07
-1.15391e-06
2.02975e-07
-1.30247e-06
2.0565e-07
-1.45069e-06
2.05496e-07
-1.59612e-06
2.02079e-07
-1.73618e-06
1.95107e-07
-1.86785e-06
1.84116e-07
-1.98809e-06
1.68904e-07
-2.09338e-06
1.49091e-07
-2.1804e-06
1.24663e-07
-2.2455e-06
9.54071e-08
-2.28551e-06
6.1606e-08
-2.29709e-06
2.33349e-08
-2.27774e-06
-1.87042e-08
-2.22504e-06
-6.40303e-08
-2.13774e-06
-1.11455e-07
-2.01494e-06
-1.60088e-07
-1.8572e-06
-2.08344e-07
-1.66562e-06
-2.55071e-07
-1.44283e-06
-2.98523e-07
-1.19202e-06
-3.37544e-07
-9.17755e-07
-3.70547e-07
-6.24938e-07
-3.96653e-07
-3.1952e-07
-4.14722e-07
-7.46044e-09
-4.24346e-07
3.04713e-07
-4.2499e-07
6.10793e-07
-4.16791e-07
9.04501e-07
-3.99873e-07
1.18016e-06
-3.74907e-07
1.43252e-06
-3.42635e-07
1.65725e-06
-3.04199e-07
1.85092e-06
-2.60884e-07
2.01107e-06
-2.1416e-07
2.13621e-06
-1.65551e-07
2.22591e-06
-1.16488e-07
2.28083e-06
-6.84153e-08
2.30245e-06
-2.25374e-08
2.293e-06
2.00517e-08
2.25498e-06
5.87522e-08
2.19151e-06
9.30912e-08
2.10601e-06
1.22919e-07
2.00213e-06
1.4802e-07
1.88324e-06
1.68447e-07
1.75262e-06
1.84182e-07
1.61335e-06
1.95439e-07
1.46847e-06
2.0241e-07
1.32061e-06
2.05546e-07
1.17217e-06
2.05256e-07
1.0252e-06
2.02044e-07
8.8166e-07
1.96261e-07
7.43365e-07
1.88268e-07
6.12054e-07
1.7827e-07
4.89307e-07
1.66437e-07
3.7663e-07
1.52797e-07
2.75393e-07
1.37366e-07
1.86901e-07
1.20141e-07
1.12329e-07
1.01236e-07
5.27011e-08
8.08839e-08
8.72813e-09
5.95272e-08
-1.93619e-08
3.78602e-08
-3.21662e-08
1.69891e-08
-3.16931e-08
-1.25651e-09
-2.17937e-08
-1.42022e-08
-8.09615e-09
-1.83835e-08
-1.00636e-08
9.02986e-09
-1.55351e-08
2.1321e-08
-2.45574e-08
2.54855e-08
-1.17747e-08
1.39996e-08
1.63739e-08
-1.70124e-08
5.39711e-08
-7.00558e-08
9.65259e-08
-1.46103e-07
1.40833e-07
-2.4512e-07
1.8472e-07
-3.66236e-07
2.26736e-07
-5.08062e-07
2.65991e-07
-6.68781e-07
3.0192e-07
-8.46394e-07
3.34203e-07
-1.03878e-06
3.62583e-07
-1.24375e-06
3.86889e-07
-1.45893e-06
4.06847e-07
-1.68183e-06
4.22179e-07
-1.90966e-06
4.32405e-07
-2.13947e-06
4.37061e-07
-2.36783e-06
4.35432e-07
-2.59109e-06
4.26894e-07
-2.80502e-06
4.10589e-07
-3.00522e-06
3.85909e-07
-3.18669e-06
3.52052e-07
-3.34444e-06
3.08651e-07
-3.47303e-06
2.55188e-07
-3.56737e-06
1.91795e-07
-3.62216e-06
1.18507e-07
-3.63293e-06
3.6228e-08
-3.59536e-06
-5.42122e-08
-3.50647e-06
-1.50964e-07
-3.36382e-06
-2.52305e-07
-3.16683e-06
-3.55483e-07
-2.91578e-06
-4.58047e-07
-2.61309e-06
-5.56681e-07
-2.26218e-06
-6.48647e-07
-1.86861e-06
-7.30652e-07
-1.43875e-06
-8.00281e-07
-9.80695e-07
-8.54903e-07
-5.02987e-07
-8.92939e-07
-1.52366e-08
-9.12864e-07
4.72997e-07
-9.142e-07
9.51833e-07
-8.96717e-07
1.41195e-06
-8.61114e-07
1.84445e-06
-8.08464e-07
2.24141e-06
-7.40564e-07
2.59605e-06
-6.59666e-07
2.90299e-06
-5.6847e-07
3.15846e-06
-4.70016e-07
3.36006e-06
-3.67304e-07
3.50707e-06
-2.63416e-07
3.60018e-06
-1.61054e-07
3.64169e-06
-6.29248e-08
3.63478e-06
2.89281e-08
3.58355e-06
1.12725e-07
3.49239e-06
1.87475e-07
3.36649e-06
2.52286e-07
3.21106e-06
3.06924e-07
3.03141e-06
3.51289e-07
2.83242e-06
3.85857e-07
2.61906e-06
4.1105e-07
2.39587e-06
4.27599e-07
2.1672e-06
4.36127e-07
1.93671e-06
4.37507e-07
1.70783e-06
4.32474e-07
1.48356e-06
4.21837e-07
1.2668e-06
4.06159e-07
1.06015e-06
3.8595e-07
8.66077e-07
3.6148e-07
6.86821e-07
3.32978e-07
5.24509e-07
3.00563e-07
3.81053e-07
2.6445e-07
2.58191e-07
2.24949e-07
1.57323e-07
1.82649e-07
7.93905e-08
1.38486e-07
2.45822e-08
9.39417e-08
-7.91147e-09
5.11828e-08
-2.05694e-08
1.3426e-08
-1.82279e-08
-1.47801e-08
-7.62294e-09
-2.7346e-08
-1.72627e-08
5.9164e-09
-1.8646e-08
9.32008e-09
-2.31273e-08
-1.08358e-09
3.45142e-09
-3.26858e-08
5.21335e-08
-8.95005e-08
1.14655e-07
-1.73975e-07
1.84565e-07
-2.86996e-07
2.57115e-07
-4.28343e-07
3.28929e-07
-5.96902e-07
3.97741e-07
-7.90898e-07
4.62059e-07
-1.00812e-06
5.20962e-07
-1.24602e-06
5.7382e-07
-1.50197e-06
6.20224e-07
-1.77311e-06
6.59747e-07
-2.05645e-06
6.91981e-07
-2.34867e-06
7.16285e-07
-2.64623e-06
7.31978e-07
-2.94511e-06
7.38064e-07
-3.24103e-06
7.3357e-07
-3.52902e-06
7.172e-07
-3.80385e-06
6.87852e-07
-4.05955e-06
6.44168e-07
-4.29005e-06
5.85236e-07
-4.48859e-06
5.10002e-07
-4.64865e-06
4.18168e-07
-4.76328e-06
3.09421e-07
-4.82627e-06
1.84531e-07
-4.83136e-06
4.43547e-08
-4.77368e-06
-1.08898e-07
-4.64881e-06
-2.72924e-07
-4.45436e-06
-4.43953e-07
-4.18891e-06
-6.18278e-07
-3.8536e-06
-7.90863e-07
-3.45088e-06
-9.57102e-07
-2.98596e-06
-1.11148e-06
-2.46531e-06
-1.24943e-06
-1.89791e-06
-1.36605e-06
-1.29364e-06
-1.4578e-06
-6.64117e-07
-1.52133e-06
-2.13107e-08
-1.55477e-06
6.21988e-07
-1.55677e-06
1.2533e-06
-1.52743e-06
1.8603e-06
-1.46755e-06
2.4316e-06
-1.37919e-06
2.95683e-06
-1.26519e-06
3.42711e-06
-1.12931e-06
3.83552e-06
-9.76083e-07
4.17696e-06
-8.10423e-07
4.44856e-06
-6.37626e-07
4.64907e-06
-4.62547e-07
4.77951e-06
-2.90015e-07
4.84239e-06
-1.24077e-07
4.84212e-06
3.14155e-08
4.78363e-06
1.73834e-07
4.67286e-06
3.01013e-07
4.51603e-06
4.1189e-07
4.32013e-06
5.0563e-07
4.09171e-06
5.82389e-07
3.83734e-06
6.42541e-07
3.56307e-06
6.87161e-07
3.27499e-06
7.17225e-07
2.9785e-06
7.34057e-07
2.67866e-06
7.38779e-07
2.37978e-06
7.3271e-07
2.08593e-06
7.16908e-07
1.80069e-06
6.92442e-07
1.5275e-06
6.60041e-07
1.26941e-06
6.20348e-07
1.02938e-06
5.73743e-07
8.10052e-07
5.20618e-07
6.13929e-07
4.61351e-07
4.43177e-07
3.96567e-07
2.9962e-07
3.27191e-07
1.84457e-07
2.54758e-07
9.80176e-08
1.81567e-07
3.95043e-08
1.11005e-07
6.47004e-09
4.78971e-08
-5.84369e-09
-1.14335e-09
-4.29364e-09
-2.75076e-08
-2.10269e-08
1.30351e-09
-1.73729e-08
-7.87099e-09
-9.71955e-09
-3.73198e-08
3.71754e-08
-9.3739e-08
1.12184e-07
-1.80665e-07
2.04908e-07
-3.00034e-07
3.07022e-07
-4.52298e-07
4.12231e-07
-6.36876e-07
5.16006e-07
-8.52216e-07
6.15209e-07
-1.09618e-06
7.07798e-07
-1.36613e-06
7.92405e-07
-1.65913e-06
8.68163e-07
-1.97201e-06
9.34365e-07
-2.30151e-06
9.90451e-07
-2.644e-06
1.03567e-06
-2.99567e-06
1.06919e-06
-3.35217e-06
1.0898e-06
-3.70892e-06
1.09621e-06
-4.06061e-06
1.08673e-06
-4.40161e-06
1.05975e-06
-4.72546e-06
1.01333e-06
-5.02548e-06
9.45889e-07
-5.29412e-06
8.55672e-07
-5.52394e-06
7.41689e-07
-5.70677e-06
6.02957e-07
-5.83506e-06
4.39722e-07
-5.90088e-06
2.52426e-07
-5.89759e-06
4.31594e-08
-5.81871e-06
-1.85673e-07
-5.65981e-06
-4.29745e-07
-5.41725e-06
-6.84472e-07
-5.09018e-06
-9.43364e-07
-4.6791e-06
-1.20002e-06
-4.18777e-06
-1.44657e-06
-3.62157e-06
-1.6759e-06
-2.98912e-06
-1.88022e-06
-2.30037e-06
-2.05327e-06
-1.56786e-06
-2.18896e-06
-8.0488e-07
-2.28317e-06
-2.62325e-08
-2.33247e-06
7.53229e-07
-2.33548e-06
1.51826e-06
-2.29184e-06
2.25435e-06
-2.20307e-06
2.94776e-06
-2.07199e-06
3.5861e-06
-1.90289e-06
4.15878e-06
-1.70135e-06
4.65724e-06
-1.47387e-06
5.07566e-06
-1.22797e-06
5.41031e-06
-9.71198e-07
5.66019e-06
-7.11264e-07
5.82596e-06
-4.5481e-07
5.91091e-06
-2.08211e-07
5.9198e-06
2.35193e-08
5.85905e-06
2.35938e-07
5.73515e-06
4.26373e-07
5.55582e-06
5.92725e-07
5.32882e-06
7.34292e-07
5.06232e-06
8.50736e-07
4.76373e-06
9.42943e-07
4.44049e-06
1.01199e-06
4.09938e-06
1.05969e-06
3.74701e-06
1.08768e-06
3.38913e-06
1.09788e-06
3.03113e-06
1.09193e-06
2.67766e-06
1.07153e-06
2.33311e-06
1.03802e-06
2.00132e-06
9.9267e-07
1.68602e-06
9.3634e-07
1.39053e-06
8.69804e-07
1.11809e-06
7.93628e-07
8.71571e-07
7.08501e-07
6.53637e-07
6.15267e-07
4.66494e-07
5.15285e-07
3.11796e-07
4.10614e-07
1.9025e-07
3.04403e-07
1.01408e-07
2.01174e-07
4.31881e-08
1.07392e-07
1.15511e-08
3.16625e-08
4.57787e-10
-1.51678e-08
-2.01997e-08
-4.0747e-09
-1.06982e-08
-2.79609e-08
1.80634e-08
-7.93519e-08
9.25808e-08
-1.63757e-07
2.00039e-07
-2.83765e-07
3.28115e-07
-4.40382e-07
4.66716e-07
-6.33331e-07
6.08137e-07
-8.61377e-07
7.46758e-07
-1.12244e-06
8.78711e-07
-1.41389e-06
1.00139e-06
-1.73271e-06
1.11312e-06
-2.07553e-06
1.21273e-06
-2.43887e-06
1.29938e-06
-2.81897e-06
1.37217e-06
-3.21193e-06
1.4302e-06
-3.61335e-06
1.47215e-06
-4.01859e-06
1.49656e-06
-4.42228e-06
1.50145e-06
-4.81878e-06
1.48477e-06
-5.20151e-06
1.44403e-06
-5.56364e-06
1.377e-06
-5.89732e-06
1.28111e-06
-6.19467e-06
1.15455e-06
-6.44687e-06
9.9541e-07
-6.64548e-06
8.0308e-07
-6.78141e-06
5.77167e-07
-6.84656e-06
3.19111e-07
-6.83268e-06
3.0836e-08
-6.73335e-06
-2.83434e-07
-6.54259e-06
-6.18896e-07
-6.25719e-06
-9.68234e-07
-5.8751e-06
-1.32377e-06
-5.39778e-06
-1.67557e-06
-4.82845e-06
-2.01405e-06
-4.17419e-06
-2.32826e-06
-3.44387e-06
-2.60864e-06
-2.64977e-06
-2.84553e-06
-1.8054e-06
-3.03159e-06
-9.26604e-07
-3.16034e-06
-2.96723e-08
-3.22792e-06
8.68041e-07
-3.23181e-06
1.74949e-06
-3.172e-06
2.59789e-06
-3.05022e-06
3.39765e-06
-2.87043e-06
4.13469e-06
-2.63851e-06
4.79672e-06
-2.36195e-06
5.37418e-06
-2.04995e-06
5.86e-06
-1.71238e-06
6.25055e-06
-1.36009e-06
6.5444e-06
-1.00321e-06
6.74296e-06
-6.51555e-07
6.84925e-06
-3.13085e-07
6.86919e-06
4.84705e-09
6.80955e-06
2.97001e-07
6.67828e-06
5.59082e-07
6.48336e-06
7.88951e-07
6.23391e-06
9.85081e-07
5.93862e-06
1.1476e-06
5.60628e-06
1.27705e-06
5.24474e-06
1.37528e-06
4.86185e-06
1.44422e-06
4.46457e-06
1.48649e-06
4.05959e-06
1.50435e-06
3.65267e-06
1.50031e-06
3.24924e-06
1.47641e-06
2.85401e-06
1.43467e-06
2.47143e-06
1.3766e-06
2.10544e-06
1.30354e-06
1.75988e-06
1.21646e-06
1.43826e-06
1.11628e-06
1.14393e-06
1.00384e-06
8.79923e-07
8.80294e-07
6.48979e-07
7.47298e-07
4.53283e-07
6.07473e-07
2.94261e-07
4.64679e-07
1.72149e-07
3.24517e-07
8.56187e-08
1.94937e-07
3.17249e-08
8.64071e-08
5.9663e-09
1.17522e-08
-1.42877e-08
-9.83943e-09
1.5019e-09
-4.96148e-08
6.1254e-08
-1.2477e-07
1.71371e-07
-2.39297e-07
3.17664e-07
-3.94385e-07
4.86097e-07
-5.8977e-07
6.6498e-07
-8.24093e-07
8.45315e-07
-1.09529e-06
1.02062e-06
-1.40052e-06
1.18639e-06
-1.73666e-06
1.3397e-06
-2.10018e-06
1.47857e-06
-2.48746e-06
1.60176e-06
-2.89461e-06
1.70817e-06
-3.31771e-06
1.79682e-06
-3.75244e-06
1.86639e-06
-4.19432e-06
1.91537e-06
-4.63817e-06
1.94168e-06
-5.07853e-06
1.94302e-06
-5.50908e-06
1.91649e-06
-5.92317e-06
1.85925e-06
-6.31309e-06
1.76802e-06
-6.67099e-06
1.64007e-06
-6.98791e-06
1.47249e-06
-7.25507e-06
1.26355e-06
-7.46276e-06
1.01173e-06
-7.60199e-06
7.17345e-07
-7.66321e-06
3.81288e-07
-7.63838e-06
6.97982e-09
-7.51944e-06
-4.01348e-07
-7.30081e-06
-8.36436e-07
-6.97766e-06
-1.2902e-06
-6.54864e-06
-1.75148e-06
-6.01401e-06
-2.20878e-06
-5.37827e-06
-2.64825e-06
-4.64799e-06
-3.05692e-06
-3.83405e-06
-3.42096e-06
-2.94904e-06
-3.72898e-06
-2.00883e-06
-3.97033e-06
-1.03021e-06
-4.13761e-06
-3.17914e-08
-4.22502e-06
9.67762e-07
-4.23005e-06
1.94928e-06
-4.15222e-06
2.89433e-06
-3.99399e-06
3.78557e-06
-3.76032e-06
4.6073e-06
-3.45873e-06
5.34618e-06
-3.09925e-06
5.99121e-06
-2.69352e-06
6.53511e-06
-2.25496e-06
6.97337e-06
-1.79704e-06
7.30548e-06
-1.33369e-06
7.53268e-06
-8.76966e-07
7.65907e-06
-4.37991e-07
7.69037e-06
-2.52366e-08
7.63478e-06
3.53874e-07
7.50039e-06
6.94747e-07
7.29642e-06
9.93931e-07
7.03194e-06
1.25037e-06
6.71684e-06
1.46359e-06
6.36004e-06
1.63492e-06
5.9705e-06
1.76603e-06
5.55611e-06
1.85983e-06
5.12463e-06
1.91912e-06
4.6828e-06
1.94725e-06
4.23706e-06
1.94706e-06
3.79296e-06
1.92151e-06
3.35574e-06
1.87291e-06
2.92993e-06
1.80341e-06
2.51993e-06
1.71454e-06
2.12968e-06
1.60766e-06
1.7631e-06
1.48377e-06
1.42381e-06
1.34399e-06
1.11534e-06
1.18956e-06
8.40943e-07
1.02245e-06
6.03583e-07
8.45611e-07
4.05568e-07
6.63535e-07
2.48264e-07
4.82657e-07
1.31411e-07
3.12273e-07
5.35169e-08
1.64486e-07
1.1886e-08
5.41256e-08
-2.79482e-09
-1.57726e-08
1.93496e-08
-7.21349e-08
1.20433e-07
-1.72329e-07
2.74692e-07
-3.18456e-07
4.66442e-07
-5.1001e-07
6.8014e-07
-7.45064e-07
9.02604e-07
-1.02091e-06
1.1238e-06
-1.33435e-06
1.33657e-06
-1.68174e-06
1.53612e-06
-2.05926e-06
1.7193e-06
-2.46303e-06
1.88418e-06
-2.88903e-06
2.02939e-06
-3.33329e-06
2.15389e-06
-3.79156e-06
2.25644e-06
-4.25956e-06
2.33562e-06
-4.73247e-06
2.38939e-06
-5.20523e-06
2.41544e-06
-5.67196e-06
2.41067e-06
-6.12648e-06
2.37186e-06
-6.56156e-06
2.29514e-06
-6.96976e-06
2.17697e-06
-7.34244e-06
2.01346e-06
-7.67101e-06
1.80171e-06
-7.9457e-06
1.53886e-06
-8.15724e-06
1.22384e-06
-8.29542e-06
8.56068e-07
-8.35117e-06
4.37573e-07
-8.31491e-06
-2.87312e-08
-8.17912e-06
-5.36576e-07
-7.93638e-06
-1.07854e-06
-7.58246e-06
-1.64342e-06
-7.11419e-06
-2.21897e-06
-6.53271e-06
-2.78941e-06
-5.84122e-06
-3.33888e-06
-5.04789e-06
-3.8494e-06
-4.16315e-06
-4.30493e-06
-3.20182e-06
-4.68965e-06
-2.18014e-06
-4.99146e-06
-1.11721e-06
-5.20007e-06
-3.2492e-08
-5.30928e-06
1.05328e-06
-5.31525e-06
2.11973e-06
-5.21795e-06
3.14667e-06
-5.02014e-06
4.11515e-06
-4.72796e-06
5.0083e-06
-4.35086e-06
5.81126e-06
-3.9011e-06
6.51278e-06
-3.39397e-06
7.10444e-06
-2.84584e-06
7.58235e-06
-2.27448e-06
7.94559e-06
-1.69638e-06
8.19708e-06
-1.12757e-06
8.34066e-06
-5.80793e-07
8.38341e-06
-6.73951e-08
8.33329e-06
4.04724e-07
8.19987e-06
8.2908e-07
7.99204e-06
1.2025e-06
7.71989e-06
1.52294e-06
7.39288e-06
1.79084e-06
7.02096e-06
2.00715e-06
6.61283e-06
2.17458e-06
6.17717e-06
2.296e-06
5.7215e-06
2.37533e-06
5.2531e-06
2.41612e-06
4.77823e-06
2.42234e-06
4.30288e-06
2.39723e-06
3.83218e-06
2.34398e-06
3.37102e-06
2.26496e-06
2.9237e-06
2.16225e-06
2.49451e-06
2.03726e-06
2.08744e-06
1.89126e-06
1.70652e-06
1.72529e-06
1.35564e-06
1.54073e-06
1.03875e-06
1.33954e-06
7.59617e-07
1.1249e-06
5.21726e-07
9.01591e-07
3.27862e-07
6.76706e-07
1.79304e-07
4.60531e-07
7.63599e-08
2.66755e-07
1.80571e-08
1.12098e-07
1.44553e-08
-2.18108e-08
4.3004e-08
-9.52979e-08
1.96244e-07
-2.21585e-07
4.036e-07
-4.00549e-07
6.47655e-07
-6.29601e-07
9.11315e-07
-9.04852e-07
1.18013e-06
-1.22186e-06
1.44326e-06
-1.57616e-06
1.69328e-06
-1.96311e-06
1.92534e-06
-2.37828e-06
2.13652e-06
-2.81729e-06
2.32501e-06
-3.27599e-06
2.48969e-06
-3.75017e-06
2.62948e-06
-4.23571e-06
2.74323e-06
-4.72813e-06
2.82916e-06
-5.22286e-06
2.88512e-06
-5.71459e-06
2.90808e-06
-6.19782e-06
2.89471e-06
-6.66601e-06
2.8408e-06
-7.11243e-06
2.74223e-06
-7.52913e-06
2.59428e-06
-7.9081e-06
2.39298e-06
-8.24008e-06
2.13415e-06
-8.51606e-06
1.81522e-06
-8.72585e-06
1.43393e-06
-8.86009e-06
9.90524e-07
-8.90842e-06
4.86069e-07
-8.86211e-06
-7.49489e-08
-8.71183e-06
-6.86788e-07
-8.45089e-06
-1.33947e-06
-8.07281e-06
-2.02151e-06
-7.57506e-06
-2.71679e-06
-6.95659e-06
-3.40803e-06
-6.22166e-06
-4.07411e-06
-5.37706e-06
-4.69448e-06
-4.43519e-06
-5.24748e-06
-3.41057e-06
-5.71512e-06
-2.32181e-06
-6.08121e-06
-1.1884e-06
-6.33459e-06
-3.20346e-08
-6.46679e-06
1.12571e-06
-6.47406e-06
2.26272e-06
-6.35581e-06
3.35751e-06
-6.11565e-06
4.3898e-06
-5.76089e-06
5.34102e-06
-5.30261e-06
6.1958e-06
-4.75622e-06
6.94163e-06
-4.14e-06
7.57082e-06
-3.4753e-06
8.07875e-06
-2.78309e-06
8.46611e-06
-2.0846e-06
8.73583e-06
-1.39787e-06
8.89376e-06
-7.3926e-07
8.94644e-06
-1.20805e-07
8.90335e-06
4.47263e-07
8.77354e-06
9.58703e-07
8.56719e-06
1.40881e-06
8.29356e-06
1.79636e-06
7.96288e-06
2.12108e-06
7.58432e-06
2.38512e-06
7.16734e-06
2.591e-06
6.72002e-06
2.74281e-06
6.25039e-06
2.84451e-06
5.76525e-06
2.90085e-06
5.2712e-06
2.91598e-06
4.77385e-06
2.8942e-06
4.27858e-06
2.83891e-06
3.78999e-06
2.75323e-06
3.31258e-06
2.63931e-06
2.85048e-06
2.49898e-06
2.40795e-06
2.33339e-06
1.98914e-06
2.14366e-06
1.59848e-06
1.93088e-06
1.24052e-06
1.69692e-06
9.20023e-07
1.44473e-06
6.4174e-07
1.17914e-06
4.10228e-07
9.07474e-07
2.28703e-07
6.40741e-07
9.98177e-08
3.94104e-07
2.42094e-08
1.86058e-07
3.72342e-08
-2.80496e-08
7.2577e-08
-1.19313e-07
2.89396e-07
-2.72883e-07
5.59281e-07
-4.85994e-07
8.62589e-07
-7.5354e-07
1.18059e-06
-1.06925e-06
1.49775e-06
-1.42671e-06
1.80289e-06
-1.81994e-06
2.08869e-06
-2.24331e-06
2.35082e-06
-2.69169e-06
2.58681e-06
-3.16046e-06
2.79545e-06
-3.64521e-06
2.97589e-06
-4.14187e-06
3.12739e-06
-4.64626e-06
3.24867e-06
-5.15423e-06
3.33803e-06
-5.66113e-06
3.39279e-06
-6.16215e-06
3.4098e-06
-6.65162e-06
3.38482e-06
-7.12368e-06
3.31345e-06
-7.57132e-06
3.19042e-06
-7.98744e-06
3.01089e-06
-8.36364e-06
2.7696e-06
-8.6917e-06
2.46253e-06
-8.96202e-06
2.08577e-06
-9.16564e-06
1.63765e-06
-9.29228e-06
1.11714e-06
-9.33286e-06
5.26476e-07
-9.27714e-06
-1.30972e-07
-9.11688e-06
-8.4753e-07
-8.84313e-06
-1.61388e-06
-8.45005e-06
-2.41547e-06
-7.93222e-06
-3.23574e-06
-7.28908e-06
-4.0526e-06
-6.52224e-06
-4.84269e-06
-5.63983e-06
-5.579e-06
-4.65303e-06
-6.23671e-06
-3.57881e-06
-6.79207e-06
-2.43563e-06
-7.22734e-06
-1.24538e-06
-7.52801e-06
-3.02809e-08
-7.6853e-06
1.186e-06
-7.69387e-06
2.38031e-06
-7.5536e-06
3.52977e-06
-7.26847e-06
4.61257e-06
-6.847e-06
5.60925e-06
-6.30252e-06
6.50268e-06
-5.65272e-06
7.2808e-06
-4.92084e-06
7.93531e-06
-4.13219e-06
8.46352e-06
-3.31374e-06
8.86592e-06
-2.48959e-06
9.14807e-06
-1.68224e-06
9.31569e-06
-9.08937e-07
9.37729e-06
-1.84537e-07
9.34141e-06
4.81106e-07
9.2185e-06
1.08e-06
9.01777e-06
1.60835e-06
8.74937e-06
2.06374e-06
8.42227e-06
2.44709e-06
8.04617e-06
2.76003e-06
7.62943e-06
3.00646e-06
7.18058e-06
3.19033e-06
6.70678e-06
3.31695e-06
6.21514e-06
3.39113e-06
5.7116e-06
3.41821e-06
5.20193e-06
3.40263e-06
4.69097e-06
3.34871e-06
4.18341e-06
3.25965e-06
3.68337e-06
3.13819e-06
3.19507e-06
2.98605e-06
2.72259e-06
2.80458e-06
2.27037e-06
2.59452e-06
1.8431e-06
2.35675e-06
1.44607e-06
2.09252e-06
1.08495e-06
1.80432e-06
7.66013e-07
1.49643e-06
4.95771e-07
1.17601e-06
2.79889e-07
8.54378e-07
1.23759e-07
5.47958e-07
3.01695e-08
2.77191e-07
6.57587e-08
-3.46531e-08
1.08437e-07
-1.44853e-07
4.01052e-07
-3.27414e-07
7.43519e-07
-5.76422e-07
1.11305e-06
-8.836e-07
1.48916e-06
-1.23993e-06
1.85565e-06
-1.63672e-06
2.20156e-06
-2.06639e-06
2.52036e-06
-2.52232e-06
2.80871e-06
-2.99887e-06
3.0652e-06
-3.49113e-06
3.28934e-06
-3.99482e-06
3.481e-06
-4.50587e-06
3.63965e-06
-5.02049e-06
3.76431e-06
-5.5346e-06
3.85301e-06
-6.04412e-06
3.90306e-06
-6.54423e-06
3.91061e-06
-7.03004e-06
3.87128e-06
-7.49559e-06
3.77965e-06
-7.93488e-06
3.63034e-06
-8.34063e-06
3.41727e-06
-8.70571e-06
3.13526e-06
-9.02159e-06
2.77893e-06
-9.28024e-06
2.34484e-06
-9.47217e-06
1.82988e-06
-9.58884e-06
1.23392e-06
-9.62017e-06
5.57727e-07
-9.55758e-06
-1.93902e-07
-9.39097e-06
-1.01475e-06
-9.11245e-06
-1.89337e-06
-8.71314e-06
-2.81614e-06
-8.1878e-06
-3.76288e-06
-7.53198e-06
-4.71066e-06
-6.74754e-06
-5.62986e-06
-5.83977e-06
-6.48996e-06
-4.82182e-06
-7.25831e-06
-3.70991e-06
-7.90805e-06
-2.52521e-06
-8.41649e-06
-1.28959e-06
-8.76841e-06
-2.77548e-08
-8.95232e-06
1.23559e-06
-8.96285e-06
2.47526e-06
-8.7991e-06
3.66695e-06
-8.46596e-06
4.7879e-06
-7.97358e-06
5.81676e-06
-7.33696e-06
6.73606e-06
-6.57758e-06
7.53241e-06
-5.72252e-06
8.19975e-06
-4.80428e-06
8.73571e-06
-3.85418e-06
9.14397e-06
-2.90223e-06
9.43043e-06
-1.97245e-06
9.60371e-06
-1.08547e-06
9.67158e-06
-2.5555e-07
9.64415e-06
5.05551e-07
9.5304e-06
1.19115e-06
9.34054e-06
1.79613e-06
9.08316e-06
2.31947e-06
8.76774e-06
2.76111e-06
8.40235e-06
3.12408e-06
7.99565e-06
3.41182e-06
7.55484e-06
3.62973e-06
7.08728e-06
3.78301e-06
6.59906e-06
3.87778e-06
6.09625e-06
3.91946e-06
5.58382e-06
3.91355e-06
5.06661e-06
3.86445e-06
4.5487e-06
3.77612e-06
4.03419e-06
3.65124e-06
3.52684e-06
3.49188e-06
3.03076e-06
3.29905e-06
2.55022e-06
3.07336e-06
2.09029e-06
2.81495e-06
1.65669e-06
2.52435e-06
1.25614e-06
2.20297e-06
8.96365e-07
1.85409e-06
5.862e-07
1.48396e-06
3.34174e-07
1.10375e-06
1.48844e-07
7.30532e-07
3.62648e-08
3.87126e-07
1.00798e-07
-4.19214e-08
1.51371e-07
-1.73074e-07
5.3324e-07
-3.87392e-07
9.59114e-07
-6.74813e-07
1.40163e-06
-1.02311e-06
1.83858e-06
-1.42006e-06
2.25383e-06
-1.8546e-06
2.6376e-06
-2.31748e-06
2.98498e-06
-2.80131e-06
3.29433e-06
-3.30005e-06
3.56569e-06
-3.80887e-06
3.79979e-06
-4.32357e-06
3.99718e-06
-4.84055e-06
4.15794e-06
-5.35618e-06
4.28111e-06
-5.867e-06
4.36487e-06
-6.36904e-06
4.40608e-06
-6.85832e-06
4.40082e-06
-7.32998e-06
4.34389e-06
-7.77914e-06
4.22978e-06
-8.19976e-06
4.05199e-06
-8.58598e-06
3.80454e-06
-8.93057e-06
3.48094e-06
-9.22679e-06
3.07622e-06
-9.46643e-06
2.58549e-06
-9.64212e-06
2.00646e-06
-9.74487e-06
1.33741e-06
-9.76691e-06
5.80252e-07
-9.69852e-06
-2.62093e-07
-9.5315e-06
-1.18195e-06
-9.25546e-06
-2.17001e-06
-8.86214e-06
-3.21055e-06
-8.34188e-06
-4.28472e-06
-7.68944e-06
-5.36517e-06
-6.90157e-06
-6.42028e-06
-5.98384e-06
-7.41074e-06
-4.94713e-06
-8.29853e-06
-3.81056e-06
-9.04861e-06
-2.59474e-06
-9.6367e-06
-1.3243e-06
-1.00436e-05
-2.46013e-08
-1.02571e-05
1.27654e-06
-1.02695e-05
2.55179e-06
-1.00803e-05
3.77493e-06
-9.69512e-06
4.92153e-06
-9.12584e-06
5.9699e-06
-8.39059e-06
6.90023e-06
-7.51333e-06
7.7003e-06
-6.52818e-06
8.36457e-06
-5.47386e-06
8.89522e-06
-4.39001e-06
9.29699e-06
-3.30936e-06
9.57999e-06
-2.2601e-06
9.75279e-06
-1.26217e-06
9.82551e-06
-3.31763e-07
9.80651e-06
5.21298e-07
9.70572e-06
1.28904e-06
9.53117e-06
1.96822e-06
9.29198e-06
2.55668e-06
8.99555e-06
3.05596e-06
8.65015e-06
3.46821e-06
8.26257e-06
3.79832e-06
7.84014e-06
4.05121e-06
7.38873e-06
4.23346e-06
6.91449e-06
4.35106e-06
6.42236e-06
4.41062e-06
5.91731e-06
4.41768e-06
5.40331e-06
4.37757e-06
4.88434e-06
4.29421e-06
4.36382e-06
4.17085e-06
3.84541e-06
4.00934e-06
3.33272e-06
3.81073e-06
2.82996e-06
3.57499e-06
2.34208e-06
3.30163e-06
1.87524e-06
2.98992e-06
1.43687e-06
2.63984e-06
1.03624e-06
2.25286e-06
6.8459e-07
1.83362e-06
3.93918e-07
1.39205e-06
1.7658e-07
9.45311e-07
4.32171e-08
5.18246e-07
1.4331e-07
-5.04518e-08
2.02669e-07
-2.05984e-07
6.89425e-07
-4.56434e-07
1.21032e-06
-7.85939e-07
1.73189e-06
-1.17719e-06
2.2306e-06
-1.61446e-06
2.69175e-06
-2.08434e-06
3.10816e-06
-2.57622e-06
3.47776e-06
-3.08212e-06
3.80129e-06
-3.59613e-06
4.08079e-06
-4.1136e-06
4.31831e-06
-4.63087e-06
4.51542e-06
-5.14462e-06
4.67257e-06
-5.6519e-06
4.7892e-06
-6.14949e-06
4.86323e-06
-6.63421e-06
4.89159e-06
-7.10224e-06
4.8697e-06
-7.54975e-06
4.79234e-06
-7.97197e-06
4.65306e-06
-8.36425e-06
4.44547e-06
-8.7208e-06
4.16242e-06
-9.03626e-06
3.79784e-06
-9.30394e-06
3.34544e-06
-9.518e-06
2.80113e-06
-9.67106e-06
2.16109e-06
-9.75695e-06
1.42476e-06
-9.76755e-06
5.92159e-07
-9.69605e-06
-3.32546e-07
-9.53289e-06
-1.34436e-06
-9.26957e-06
-2.43294e-06
-8.89414e-06
-3.58594e-06
-8.39635e-06
-4.78287e-06
-7.76423e-06
-5.99799e-06
-6.99217e-06
-7.19335e-06
-6.0798e-06
-8.32437e-06
-5.03952e-06
-9.34032e-06
-3.88924e-06
-1.02007e-05
-2.65244e-06
-1.08755e-05
-1.35341e-06
-1.13446e-05
-2.13841e-08
-1.1591e-05
1.31285e-06
-1.16058e-05
2.61737e-06
-1.13873e-05
3.8627e-06
-1.09431e-05
5.02355e-06
-1.02889e-05
6.07668e-06
-9.44508e-06
7.00245e-06
-8.44026e-06
7.78734e-06
-7.31473e-06
8.43113e-06
-6.11925e-06
8.9391e-06
-4.89977e-06
9.32211e-06
-3.69505e-06
9.5912e-06
-2.532e-06
9.75875e-06
-1.432e-06
9.83339e-06
-4.08291e-07
9.82469e-06
5.28364e-07
9.73973e-06
1.37258e-06
9.58685e-06
2.11994e-06
9.37235e-06
2.77021e-06
9.10374e-06
3.32381e-06
8.78688e-06
3.78447e-06
8.42855e-06
4.1562e-06
8.03411e-06
4.44531e-06
7.60945e-06
4.65784e-06
7.15919e-06
4.80104e-06
6.68825e-06
4.88131e-06
6.20045e-06
4.90525e-06
5.69968e-06
4.87812e-06
5.18902e-06
4.80463e-06
4.67174e-06
4.68788e-06
4.15079e-06
4.53004e-06
3.6295e-06
4.33174e-06
3.1115e-06
4.09261e-06
2.60157e-06
3.81109e-06
2.10576e-06
3.48516e-06
1.63202e-06
3.11273e-06
1.19081e-06
2.69284e-06
7.95793e-07
2.22729e-06
4.62765e-07
1.72337e-06
2.09337e-07
1.1971e-06
5.1732e-08
6.74604e-07
1.94865e-07
-6.14729e-08
2.64687e-07
-2.47186e-07
8.7537e-07
-5.40466e-07
1.5036e-06
-9.17035e-07
2.1085e-06
-1.35328e-06
2.66693e-06
-1.82974e-06
3.16786e-06
-2.33118e-06
3.60885e-06
-2.84626e-06
3.99202e-06
-3.3671e-06
4.32138e-06
-3.88816e-06
4.60114e-06
-4.40554e-06
4.83494e-06
-4.91608e-06
5.02515e-06
-5.41722e-06
5.17284e-06
-5.90633e-06
5.27742e-06
-6.38098e-06
5.337e-06
-6.83819e-06
5.34801e-06
-7.27509e-06
5.30594e-06
-7.688e-06
5.20478e-06
-8.07346e-06
5.03823e-06
-8.42696e-06
4.79893e-06
-8.7445e-06
4.48017e-06
-9.02092e-06
4.07473e-06
-9.25194e-06
3.57716e-06
-9.43197e-06
2.98207e-06
-9.55673e-06
2.2869e-06
-9.62028e-06
1.48947e-06
-9.61821e-06
5.9125e-07
-9.54355e-06
-4.06034e-07
-9.39034e-06
-1.49646e-06
-9.1483e-06
-2.67387e-06
-8.80691e-06
-3.92625e-06
-8.34995e-06
-5.23873e-06
-7.76212e-06
-6.58469e-06
-7.02738e-06
-7.92682e-06
-6.14173e-06
-9.20854e-06
-5.11299e-06
-1.03673e-05
-3.96224e-06
-1.13493e-05
-2.7105e-06
-1.21248e-05
-1.38492e-06
-1.26673e-05
-1.78552e-08
-1.29545e-05
1.3518e-06
-1.29711e-05
2.68476e-06
-1.27159e-05
3.94626e-06
-1.22007e-05
5.10879e-06
-1.14477e-05
6.15097e-06
-1.04826e-05
7.0512e-06
-9.33511e-06
7.79896e-06
-8.05766e-06
8.39818e-06
-6.71387e-06
8.86441e-06
-5.36161e-06
9.21242e-06
-4.04004e-06
9.45871e-06
-2.77651e-06
9.61468e-06
-1.58685e-06
9.69092e-06
-4.83707e-07
9.69357e-06
5.26208e-07
9.62979e-06
1.43666e-06
9.50419e-06
2.24569e-06
9.32288e-06
2.9516e-06
9.0902e-06
3.55648e-06
8.81186e-06
4.06274e-06
8.49211e-06
4.47579e-06
8.13618e-06
4.80101e-06
7.74806e-06
5.04567e-06
7.33231e-06
5.21646e-06
6.89243e-06
5.32085e-06
6.43218e-06
5.36518e-06
5.95437e-06
5.35559e-06
5.46196e-06
5.29664e-06
4.95735e-06
5.19205e-06
4.44324e-06
5.04372e-06
3.92215e-06
4.85236e-06
3.39723e-06
4.61694e-06
2.87247e-06
4.33514e-06
2.35353e-06
4.00328e-06
1.84814e-06
3.61703e-06
1.36746e-06
3.17212e-06
9.27078e-07
2.66624e-06
5.4674e-07
2.10201e-06
2.50792e-07
1.49176e-06
6.29313e-08
8.61523e-07
2.57505e-07
-7.74643e-08
3.42294e-07
-3.03236e-07
1.10087e-06
-6.49136e-07
1.84858e-06
-1.07887e-06
2.53735e-06
-1.56151e-06
3.1487e-06
-2.07429e-06
3.6792e-06
-2.60124e-06
4.13358e-06
-3.13158e-06
4.51959e-06
-3.65827e-06
4.84505e-06
-4.1769e-06
5.1166e-06
-4.68439e-06
5.33915e-06
-5.17852e-06
5.5159e-06
-5.6572e-06
5.64808e-06
-6.11858e-06
5.73533e-06
-6.56041e-06
5.77542e-06
-6.98058e-06
5.76486e-06
-7.37631e-06
5.69853e-06
-7.74507e-06
5.57061e-06
-8.0835e-06
5.37401e-06
-8.38875e-06
5.10184e-06
-8.65701e-06
4.74645e-06
-8.88541e-06
4.30151e-06
-9.07001e-06
3.76054e-06
-9.20832e-06
3.1195e-06
-9.29656e-06
2.37463e-06
-9.33281e-06
1.52553e-06
-9.31331e-06
5.71913e-07
-9.23598e-06
-4.82884e-07
-9.09518e-06
-1.63638e-06
-8.88513e-06
-2.88267e-06
-8.5928e-06
-4.21688e-06
-8.20174e-06
-5.62761e-06
-7.68601e-06
-7.09771e-06
-7.02066e-06
-8.58887e-06
-6.18739e-06
-1.00378e-05
-5.19282e-06
-1.13571e-05
-4.05468e-06
-1.24819e-05
-2.79262e-06
-1.33807e-05
-1.43157e-06
-1.40215e-05
-1.42115e-08
-1.43639e-05
1.40705e-06
-1.43834e-05
2.77738e-06
-1.40772e-05
4.05185e-06
-1.34668e-05
5.20297e-06
-1.25913e-05
6.2119e-06
-1.14839e-05
7.06014e-06
-1.01747e-05
7.73859e-06
-8.72783e-06
8.26445e-06
-7.2317e-06
8.66311e-06
-5.7523e-06
8.96023e-06
-4.32997e-06
9.17276e-06
-2.98325e-06
9.31444e-06
-1.72398e-06
9.39168e-06
-5.57411e-07
9.41034e-06
5.1025e-07
9.37269e-06
1.47627e-06
9.28269e-06
2.33708e-06
9.14231e-06
3.09283e-06
8.95549e-06
3.74374e-06
8.72472e-06
4.29355e-06
8.45398e-06
4.74618e-06
8.14609e-06
5.10817e-06
7.8049e-06
5.3858e-06
7.43324e-06
5.5868e-06
7.03457e-06
5.71805e-06
6.61141e-06
5.78677e-06
6.16654e-06
5.7988e-06
5.70198e-06