/*--------------------------------*- C++ -*----------------------------------*\
| =========                 |                                                 |
| \\      /  F ield         | OpenFOAM: The Open Source CFD Toolbox           |
|  \\    /   O peration     | Version:  2412                                  |
|   \\  /    A nd           | Website:  www.openfoam.com                      |
|    \\/     M anipulation  |                                                 |
\*---------------------------------------------------------------------------*/
FoamFile
{
    version     2.0;
    format      ascii;
    arch        "LSB;label=32;scalar=64";
    class       surfaceScalarField;
    location    "9.95";
    object      phi;
}
// * * * * * * * * * * * * * * * * * * * * * * * * * * * * * * * * * * * * * //

dimensions      [0 3 -1 0 0 0 0];

oriented        oriented;

internalField   nonuniform List<scalar> 
12640
(
-1.83422e-10
1.8387e-10
-2.11788e-09
1.57661e-09
-5.19683e-09
2.74104e-09
-9.05178e-09
3.54686e-09
-1.33834e-08
4.04364e-09
-1.79666e-08
4.31661e-09
-2.26344e-08
4.42332e-09
-2.72396e-08
4.38291e-09
-3.16236e-08
4.18346e-09
-3.55933e-08
3.79021e-09
-3.89055e-08
3.1531e-09
-4.12594e-08
2.21403e-09
-4.22942e-08
9.13092e-10
-4.15927e-08
-8.06164e-10
-3.86905e-08
-2.99118e-09
-3.30883e-08
-5.67646e-09
-2.42711e-08
-8.8776e-09
-1.17331e-08
-1.25852e-08
4.98974e-09
-1.67572e-08
2.62792e-08
-2.13118e-08
5.23865e-08
-2.61186e-08
8.33769e-08
-3.09917e-08
1.19068e-07
-3.56837e-08
1.58966e-07
-3.98844e-08
2.02209e-07
-4.32246e-08
2.47521e-07
-4.52896e-08
2.93187e-07
-4.56409e-08
3.37066e-07
-4.38527e-08
3.76652e-07
-3.95574e-08
4.09184e-07
-3.25031e-08
4.31825e-07
-2.26103e-08
4.41883e-07
-1.00274e-08
4.37077e-07
4.83493e-09
4.15812e-07
2.12932e-08
3.77416e-07
3.84209e-08
3.22323e-07
5.51124e-08
2.52151e-07
7.01857e-08
1.69659e-07
8.24997e-08
7.8579e-08
9.10819e-08
-1.66579e-08
9.52335e-08
-1.11279e-07
9.46141e-08
-2.00564e-07
8.92761e-08
-2.80234e-07
7.96617e-08
-3.46789e-07
6.65482e-08
-3.97757e-07
5.09648e-08
-4.31828e-07
3.40725e-08
-4.48861e-07
1.70427e-08
-4.4978e-07
9.39851e-10
-4.36378e-07
-1.33693e-08
-4.11057e-07
-2.52752e-08
-3.76556e-07
-3.44438e-08
-3.35698e-07
-4.07947e-08
-2.91182e-07
-4.44522e-08
-2.45423e-07
-4.57038e-08
-2.00442e-07
-4.49411e-08
-1.57831e-07
-4.25905e-08
-1.18753e-07
-3.90775e-08
-8.39709e-08
-3.48008e-08
-5.38904e-08
-3.01128e-08
-2.86209e-08
-2.53095e-08
-8.0435e-09
-2.06193e-08
8.12463e-09
-1.62076e-08
2.02788e-08
-1.21892e-08
2.8886e-08
-8.63821e-09
3.44465e-08
-5.59012e-09
3.74622e-08
-3.04773e-09
3.84117e-08
-9.88647e-10
3.77336e-08
6.27205e-10
3.58164e-08
1.85059e-09
3.29922e-08
2.73856e-09
2.95341e-08
3.35116e-09
2.56579e-08
3.74636e-09
2.15299e-08
3.97417e-09
1.72833e-08
4.06825e-09
1.30435e-08
4.037e-09
8.96191e-09
3.85496e-09
5.2565e-09
3.45667e-09
2.25288e-09
2.73606e-09
3.98994e-10
1.57311e-09
1.32374e-10
-1.8038e-09
1.65214e-09
-6.90236e-09
6.01832e-09
-1.43503e-08
9.58152e-09
-2.34358e-08
1.20664e-08
-3.35623e-08
1.3634e-08
-4.42459e-08
1.44967e-08
-5.50843e-08
1.47927e-08
-6.56913e-08
1.45568e-08
-7.56366e-08
1.37317e-08
-8.43973e-08
1.21899e-08
-9.13257e-08
9.75614e-09
-9.56325e-08
6.23016e-09
-9.63836e-08
1.40735e-09
-9.25118e-08
-4.90235e-09
-8.28394e-08
-1.28569e-08
-6.61147e-08
-2.25646e-08
-4.1062e-08
-3.40654e-08
-6.44749e-09
-4.73076e-08
3.88365e-08
-6.21236e-08
9.5669e-08
-7.82028e-08
1.64578e-07
-9.50646e-08
2.45604e-07
-1.12034e-07
3.38147e-07
-1.28227e-07
4.4082e-07
-1.42544e-07
5.51309e-07
-1.53688e-07
6.66272e-07
-1.60217e-07
7.81294e-07
-1.60617e-07
8.90929e-07
-1.53433e-07
9.88862e-07
-1.37427e-07
1.0682e-06
-1.11768e-07
1.12191e-06
-7.62369e-08
1.14337e-06
-3.13986e-08
1.12703e-06
2.12707e-08
1.06906e-06
7.93626e-08
9.67949e-07
1.39634e-07
8.24925e-07
1.98238e-07
6.44139e-07
2.5107e-07
4.32553e-07
2.94179e-07
1.99524e-07
3.24199e-07
-4.38776e-08
3.38717e-07
-2.85739e-07
3.36555e-07
-5.14282e-07
3.17896e-07
-7.18809e-07
2.84265e-07
-8.90536e-07
2.38355e-07
-1.02321e-06
1.83719e-07
-1.11343e-06
1.24381e-07
-1.1607e-06
6.4408e-08
-1.16717e-06
7.50717e-09
-1.13715e-06
-4.32854e-08
-1.07651e-06
-8.5809e-08
-9.92001e-07
-1.18845e-07
-8.90642e-07
-1.42055e-07
-7.79179e-07
-1.55831e-07
-6.63698e-07
-1.6112e-07
-5.49361e-07
-1.59239e-07
-4.40278e-07
-1.51661e-07
-3.39503e-07
-1.39867e-07
-2.49095e-07
-1.25247e-07
-1.70224e-07
-1.09041e-07
-1.0331e-07
-9.22946e-08
-4.81802e-08
-7.58306e-08
-4.2215e-09
-6.02568e-08
2.94873e-08
-4.59977e-08
5.40632e-08
-3.33255e-08
7.07266e-08
-2.23807e-08
8.07224e-08
-1.31916e-08
8.52566e-08
-5.69682e-09
8.54479e-08
2.31615e-10
8.22953e-08
4.76471e-09
7.66604e-08
8.09836e-09
6.92602e-08
1.04381e-08
6.06722e-08
1.19825e-08
5.13528e-08
1.29035e-08
4.16717e-08
1.33226e-08
3.1962e-08
1.32849e-08
2.25864e-08
1.27369e-08
1.40085e-08
1.15139e-08
6.84662e-09
9.35654e-09
1.86148e-09
6.02084e-09
1.75181e-09
-3.10262e-09
4.43555e-09
-1.05604e-08
1.2842e-08
-2.09113e-08
1.93453e-08
-3.32946e-08
2.38968e-08
-4.7016e-08
2.68267e-08
-6.1495e-08
2.84747e-08
-7.62095e-08
2.90363e-08
-9.06182e-08
2.85258e-08
-1.04087e-07
2.67927e-08
-1.15833e-07
2.35589e-08
-1.24883e-07
1.84605e-08
-1.30057e-07
1.10896e-08
-1.29968e-07
1.03421e-09
-1.23039e-07
-1.20849e-08
-1.07544e-07
-2.85787e-08
-8.1652e-08
-4.86543e-08
-4.35125e-08
-7.2376e-08
8.65571e-09
-9.96207e-08
7.64401e-08
-1.30027e-07
1.61086e-07
-1.62943e-07
2.63324e-07
-1.97372e-07
3.83166e-07
-2.31924e-07
5.19697e-07
-2.64784e-07
6.70854e-07
-2.93706e-07
8.33231e-07
-3.16051e-07
1.00193e-06
-3.28877e-07
1.17047e-06
-3.29111e-07
1.3309e-06
-3.13791e-07
1.47396e-06
-2.80401e-07
1.58956e-06
-2.27253e-07
1.66734e-06
-1.53899e-07
1.69758e-06
-6.14989e-08
1.67207e-06
4.69274e-08
1.58514e-06
1.66445e-07
1.43452e-06
2.90402e-07
1.222e-06
4.10905e-07
9.5369e-07
5.19522e-07
6.39858e-07
6.08143e-07
2.94331e-07
6.69846e-07
-6.65239e-08
6.99684e-07
-4.25097e-07
6.95232e-07
-7.63972e-07
6.5687e-07
-1.06734e-06
5.87733e-07
-1.32224e-06
4.93348e-07
-1.51944e-06
3.81015e-07
-1.65396e-06
2.58996e-07
-1.7251e-06
1.35638e-07
-1.73605e-06
1.85495e-08
-1.69319e-06
-8.60443e-08
-1.60518e-06
-1.73715e-07
-1.48196e-06
-2.41963e-07
-1.33382e-06
-2.90091e-07
-1.17065e-06
-3.18903e-07
-1.00135e-06
-3.30329e-07
-8.33482e-07
-3.27038e-07
-6.73066e-07
-3.12032e-07
-5.2458e-07
-2.88337e-07
-3.91058e-07
-2.58784e-07
-2.74247e-07
-2.25898e-07
-1.7481e-07
-1.91804e-07
-9.25452e-08
-1.58193e-07
-2.65972e-08
-1.26323e-07
2.43441e-08
-9.70763e-08
6.18826e-08
-7.10201e-08
8.77819e-08
-4.84558e-08
1.0385e-07
-2.94566e-08
1.11847e-07
-1.3916e-08
1.13418e-07
-1.58783e-09
1.10039e-07
7.86533e-09
1.02993e-07
1.48351e-08
9.33547e-08
1.97354e-08
8.19947e-08
2.29694e-08
6.96018e-08
2.48919e-08
5.67236e-08
2.57664e-08
4.38269e-08
2.5719e-08
3.13767e-08
2.46991e-08
1.99212e-08
2.24595e-08
1.01654e-08
1.85859e-08
3.03479e-09
1.26341e-08
4.54648e-09
-3.78762e-09
7.91086e-09
-1.25524e-08
2.09727e-08
-2.44694e-08
3.0675e-08
-3.86127e-08
3.7485e-08
-5.43133e-08
4.19946e-08
-7.10138e-08
4.46687e-08
-8.81769e-08
4.57213e-08
-1.05192e-07
4.50913e-08
-1.21295e-07
4.24745e-08
-1.35509e-07
3.73799e-08
-1.46609e-07
2.91945e-08
-1.53106e-07
1.72464e-08
-1.53249e-07
8.6476e-10
-1.45058e-07
-2.05627e-08
-1.26365e-07
-4.75337e-08
-9.48818e-08
-8.03756e-08
-4.82884e-08
-1.19183e-07
1.56486e-08
-1.63747e-07
9.89323e-08
-2.13476e-07
2.03157e-07
-2.67308e-07
3.29297e-07
-3.23626e-07
4.77464e-07
-3.80178e-07
6.4664e-07
-4.3402e-07
8.34404e-07
-4.81504e-07
1.03668e-06
-5.18327e-07
1.24751e-06
-5.3968e-07
1.45896e-06
-5.40506e-07
1.66115e-06
-5.15902e-07
1.84251e-06
-4.61649e-07
1.99025e-06
-3.74858e-07
2.09116e-06
-2.54653e-07
2.13264e-06
-1.02806e-07
2.10393e-06
7.58163e-08
1.99742e-06
2.73128e-07
1.80987e-06
4.78136e-07
1.54322e-06
6.7772e-07
1.20509e-06
8.57818e-07
8.08504e-07
1.00488e-06
3.7117e-07
1.10732e-06
-8.5878e-08
1.15686e-06
-5.39974e-07
1.14945e-06
-9.68709e-07
1.08573e-06
-1.35179e-06
9.70937e-07
-1.67266e-06
8.14333e-07
-1.91965e-06
6.28125e-07
-2.08665e-06
4.26108e-07
-2.17309e-06
2.22184e-07
-2.18342e-06
2.8983e-08
-2.12614e-06
-1.43228e-07
-2.01254e-06
-2.87213e-07
-1.85544e-06
-3.98963e-07
-1.66795e-06
-4.7747e-07
-1.46254e-06
-5.24194e-07
-1.25034e-06
-5.42418e-07
-1.04068e-06
-5.3659e-07
-8.40944e-07
-5.1168e-07
-6.5655e-07
-4.72673e-07
-4.9111e-07
-4.24204e-07
-3.46657e-07
-3.7037e-07
-2.23905e-07
-3.14616e-07
-1.22521e-07
-2.59678e-07
-4.13806e-08
-2.07599e-07
2.11868e-08
-1.59811e-07
6.72038e-08
-1.17233e-07
9.88784e-08
-8.03521e-08
1.18469e-07
-4.92938e-08
1.28177e-07
-2.38948e-08
1.30062e-07
-3.76909e-09
1.25984e-07
1.1621e-08
1.17563e-07
2.29062e-08
1.06159e-07
3.076e-08
9.28752e-08
3.58465e-08
7.85695e-08
3.87625e-08
6.39005e-08
3.99735e-08
4.93879e-08
3.9745e-08
3.54969e-08
3.80814e-08
2.27392e-08
3.46904e-08
1.17843e-08
2.90009e-08
3.61266e-09
2.02771e-08
7.89721e-09
-3.95645e-09
1.15403e-08
-1.30264e-08
2.93858e-08
-2.53205e-08
4.23619e-08
-3.99976e-08
5.15865e-08
-5.65306e-08
5.79737e-08
-7.44892e-08
6.20993e-08
-9.34103e-08
6.41421e-08
-1.12688e-07
6.38964e-08
-1.31492e-07
6.08319e-08
-1.48711e-07
5.41774e-08
-1.62924e-07
4.30103e-08
-1.72393e-07
2.63424e-08
-1.75077e-07
3.19924e-09
-1.68662e-07
-2.73026e-08
-1.50618e-07
-6.58796e-08
-1.18269e-07
-1.13004e-07
-6.88899e-08
-1.6882e-07
1.70113e-10
-2.33042e-07
9.13304e-08
-3.04847e-07
2.06587e-07
-3.8275e-07
3.47277e-07
-4.64474e-07
5.13811e-07
-5.46838e-07
7.05358e-07
-6.2566e-07
9.19519e-07
-6.95722e-07
1.152e-06
-7.50827e-07
1.39632e-06
-7.8398e-07
1.64362e-06
-7.87749e-07
1.88263e-06
-7.54819e-07
2.09988e-06
-6.78769e-07
2.28019e-06
-5.55016e-07
2.40759e-06
-3.81868e-07
2.46649e-06
-1.61517e-07
2.44329e-06
9.92122e-08
2.328e-06
3.88602e-07
2.11588e-06
6.90444e-07
1.80858e-06
9.85197e-07
1.41478e-06
1.25179e-06
9.49993e-07
1.46983e-06
4.35592e-07
1.62188e-06
-1.02831e-07
1.69545e-06
-6.37631e-07
1.68442e-06
-1.14149e-06
1.58976e-06
-1.58976e-06
1.41939e-06
-1.96252e-06
1.18728e-06
-2.24601e-06
9.118e-07
-2.43342e-06
6.13691e-07
-2.52483e-06
3.13747e-07
-2.52643e-06
3.07248e-08
-2.44923e-06
-2.20302e-07
-2.30743e-06
-4.28902e-07
-2.11676e-06
-5.8953e-07
-1.893e-06
-7.01111e-07
-1.65088e-06
-7.66187e-07
-1.40328e-06
-7.89894e-07
-1.16079e-06
-7.78947e-07
-9.31609e-07
-7.40743e-07
-7.21592e-07
-6.82598e-07
-5.3449e-07
-6.11252e-07
-3.72266e-07
-5.32588e-07
-2.35415e-07
-4.51513e-07
-1.23291e-07
-3.71899e-07
-3.44054e-08
-2.96631e-07
3.33112e-08
-2.2772e-07
8.22887e-08
-1.66442e-07
1.15136e-07
-1.13464e-07
1.34499e-07
-6.89519e-08
1.42946e-07
-3.26641e-08
1.4288e-07
-4.05153e-09
1.36473e-07
1.76533e-08
1.25621e-07
3.33577e-08
1.11914e-07
4.40391e-08
9.66324e-08
5.06745e-08
8.0752e-08
5.41627e-08
6.49823e-08
5.52376e-08
4.98231e-08
5.43753e-08
3.56504e-08
5.17048e-08
2.28332e-08
4.6942e-08
1.18834e-08
3.9374e-08
3.67593e-09
2.79203e-08
1.12798e-08
-3.72121e-09
1.49147e-08
-1.22623e-08
3.72418e-08
-2.39587e-08
5.34269e-08
-3.82492e-08
6.52772e-08
-5.48858e-08
7.40322e-08
-7.36689e-08
8.0331e-08
-9.42883e-08
8.42386e-08
-1.16204e-07
8.5317e-08
-1.38567e-07
8.27258e-08
-1.60174e-07
7.53395e-08
-1.7945e-07
6.18648e-08
-1.94454e-07
4.09487e-08
-2.029e-07
1.12731e-08
-2.02201e-07
-2.83508e-08
-1.89517e-07
-7.88894e-08
-1.61832e-07
-1.40993e-07
-1.16046e-07
-2.14886e-07
-4.90975e-08
-3.00248e-07
4.18838e-08
-3.96063e-07
1.59386e-07
-5.0046e-07
3.05272e-07
-6.1054e-07
4.80492e-07
-7.22204e-07
6.84736e-07
-8.30012e-07
9.16052e-07
-9.27106e-07
1.17043e-06
-1.00523e-06
1.44143e-06
-1.05495e-06
1.7198e-06
-1.06606e-06
1.99339e-06
-1.02831e-06
2.24718e-06
-9.32428e-07
2.46377e-06
-7.71448e-07
2.62427e-06
-5.42203e-07
2.70977e-06
-2.4684e-07
2.70317e-06
1.05987e-07
2.59136e-06
5.00574e-07
2.36735e-06
9.14627e-07
2.03186e-06
1.32085e-06
1.59427e-06
1.68955e-06
1.07244e-06
1.99185e-06
4.9153e-07
2.20299e-06
-1.18021e-07
2.30522e-06
-7.2322e-07
2.28986e-06
-1.29148e-06
2.15828e-06
-1.79356e-06
1.92176e-06
-2.2061e-06
1.60011e-06
-2.51346e-06
1.21945e-06
-2.70859e-06
8.09096e-07
-2.79288e-06
3.98287e-07
-2.77506e-06
1.31116e-08
-2.66937e-06
-3.25819e-07
-2.49346e-06
-6.0467e-07
-2.2663e-06
-8.16574e-07
-2.00639e-06
-9.60911e-07
-1.7305e-06
-1.04197e-06
-1.45284e-06
-1.06743e-06
-1.18477e-06
-1.04689e-06
-9.34744e-07
-9.90653e-07
-7.08505e-07
-9.08735e-07
-5.09469e-07
-8.10215e-07
-3.39124e-07
-7.02905e-07
-1.97435e-07
-5.93227e-07
-8.32236e-08
-4.86194e-07
5.50769e-09
-3.85503e-07
7.12986e-08
-2.93705e-07
1.17007e-07
-2.12392e-07
1.45629e-07
-1.42371e-07
1.60163e-07
-8.38057e-08
1.63496e-07
-3.63488e-08
1.58321e-07
7.42069e-10
1.47072e-07
2.84934e-08
1.31874e-07
4.81213e-08
1.14505e-07
6.09461e-08
9.63845e-08
6.83064e-08
7.85685e-08
7.14639e-08
6.17703e-08
7.1495e-08
4.64089e-08
6.91712e-08
3.2691e-08
6.48354e-08
2.0737e-08
5.82912e-08
1.07613e-08
4.87326e-08
3.34011e-09
3.47361e-08
1.42924e-08
-3.16663e-09
1.7714e-08
-1.05079e-08
4.38692e-08
-2.08502e-08
6.3114e-08
-3.41241e-08
7.79288e-08
-5.05117e-08
8.9821e-08
-7.01477e-08
9.93978e-08
-9.29422e-08
1.06496e-07
-1.18465e-07
1.10334e-07
-1.4588e-07
1.09663e-07
-1.73915e-07
1.02923e-07
-2.00865e-07
8.83909e-08
-2.24618e-07
6.4304e-08
-2.42683e-07
2.89682e-08
-2.52237e-07
-1.91387e-08
-2.50176e-07
-8.12646e-08
-2.33183e-07
-1.58274e-07
-1.9781e-07
-2.50523e-07
-1.40581e-07
-3.57717e-07
-5.81312e-08
-4.78728e-07
5.26166e-08
-6.11397e-07
1.94222e-07
-7.52304e-07
3.68432e-07
-8.96539e-07
5.75817e-07
-1.03748e-06
8.15329e-07
-1.16666e-06
1.0838e-06
-1.27371e-06
1.37541e-06
-1.34653e-06
1.68119e-06
-1.37176e-06
1.9886e-06
-1.33563e-06
2.28149e-06
-1.2252e-06
2.54033e-06
-1.03016e-06
2.74311e-06
-7.44854e-07
2.86694e-06
-3.7055e-07
2.89033e-06
8.27076e-08
2.79597e-06
5.95044e-07
2.57357e-06
1.13715e-06
2.22215e-06
1.67241e-06
1.75138e-06
2.16049e-06
1.18147e-06
2.56197e-06
5.41747e-07
2.84297e-06
-1.31897e-07
2.97917e-06
-8.00361e-07
2.95867e-06
-1.42505e-06
2.78335e-06
-1.97155e-06
2.46866e-06
-2.41279e-06
2.04177e-06
-2.73132e-06
1.5384e-06
-2.92038e-06
9.98561e-07
-2.98357e-06
4.61838e-07
-2.93322e-06
-3.69463e-08
-2.78786e-06
-4.70938e-07
-2.56947e-06
-8.22897e-07
-2.30073e-06
-1.0852e-06
-2.00299e-06
-1.25857e-06
-1.69486e-06
-1.35003e-06
-1.39149e-06
-1.37073e-06
-1.1044e-06
-1.3339e-06
-8.41673e-07
-1.25329e-06
-6.08369e-07
-1.14195e-06
-4.07036e-07
-1.01148e-06
-2.38251e-07
-8.71652e-07
-1.01118e-07
-7.30365e-07
6.30991e-09
-5.93678e-07
8.66884e-08
-4.65993e-07
1.43108e-07
-3.5029e-07
1.78882e-07
-2.48383e-07
1.9739e-07
-1.61142e-07
2.01951e-07
-8.86703e-08
1.95732e-07
-3.04694e-08
1.81674e-07
1.44278e-08
1.62431e-07
4.73333e-08
1.40323e-07
6.97981e-08
1.17291e-07
8.35178e-08
9.4871e-08
9.02371e-08
7.41742e-08
9.16416e-08
5.58886e-08
8.92311e-08
4.03078e-08
8.41727e-08
2.73997e-08
7.71367e-08
1.69338e-08
6.81267e-08
8.67436e-09
5.63441e-08
2.69174e-09
4.00785e-08
1.66299e-08
-2.34027e-09
1.96669e-08
-7.92626e-09
4.87137e-08
-1.63395e-08
7.08507e-08
-2.82214e-08
8.91697e-08
-4.43376e-08
1.05324e-07
-6.52514e-08
1.19734e-07
-9.11446e-08
1.31852e-07
-1.2172e-07
1.40409e-07
-1.5616e-07
1.43638e-07
-1.93132e-07
1.39462e-07
-2.30811e-07
1.25671e-07
-2.66931e-07
1.00057e-07
-2.98823e-07
6.05295e-08
-3.23471e-07
5.21353e-09
-3.37552e-07
-6.74439e-08
-3.37493e-07
-1.5856e-07
-3.19531e-07
-2.68682e-07
-2.79792e-07
-3.97626e-07
-2.14391e-07
-5.44271e-07
-1.19587e-07
-7.06317e-07
8.02573e-09
-8.80004e-07
1.71236e-07
-1.05981e-06
3.71847e-07
-1.23812e-06
6.10195e-07
-1.405e-06
8.84554e-07
-1.54802e-06
1.19043e-06
-1.65234e-06
1.51984e-06
-1.70108e-06
1.86061e-06
-1.6763e-06
2.19591e-06
-1.56041e-06
2.5043e-06
-1.33846e-06
2.76038e-06
-1.00088e-06
2.93654e-06
-5.46665e-07
3.00567e-06
1.36162e-08
2.9448e-06
6.55967e-07
2.73896e-06
1.34308e-06
2.38445e-06
2.02705e-06
1.89076e-06
2.65438e-06
1.28057e-06
3.17244e-06
5.87972e-07
3.53591e-06
-1.4477e-07
3.7123e-06
-8.71372e-07
3.68571e-06
-1.54617e-06
3.45862e-06
-2.12869e-06
3.05167e-06
-2.58765e-06
2.50124e-06
-2.90385e-06
1.85511e-06
-3.07143e-06
1.16664e-06
-3.09735e-06
4.88205e-07
-2.99897e-06
-1.34945e-07
-2.80058e-06
-6.69033e-07
-2.52955e-06
-1.09373e-06
-2.21295e-06
-1.4017e-06
-1.87507e-06
-1.5964e-06
-1.53608e-06
-1.68901e-06
-1.21148e-06
-1.69533e-06
-9.12257e-07
-1.63312e-06
-6.45395e-07
-1.52013e-06
-4.14579e-07
-1.37273e-06
-2.20923e-07
-1.2051e-06
-6.36487e-08
-1.02889e-06
5.93238e-08
-8.53326e-07
1.50928e-07
-6.85304e-07
2.14606e-07
-5.29733e-07
2.54058e-07
-3.8985e-07
2.73066e-07
-2.67545e-07
2.75367e-07
-1.63641e-07
2.64563e-07
-7.81059e-08
2.44055e-07
-1.02388e-08
2.16988e-07
4.11827e-08
1.86201e-07
7.77747e-08
1.54183e-07
1.01439e-07
1.23021e-07
1.1427e-07
9.43594e-08
1.18454e-07
6.93615e-08
1.16159e-07
4.86803e-08
1.09393e-07
3.24607e-08
9.98336e-08
2.03823e-08
8.86181e-08
1.17685e-08
7.61097e-08
5.786e-09
6.16689e-08
1.78012e-09
4.34271e-08
1.80457e-08
-1.24813e-09
2.05091e-08
-4.58036e-09
5.12782e-08
-1.06227e-08
7.61965e-08
-2.0953e-08
9.88429e-08
-3.70636e-08
1.20812e-07
-6.00195e-08
1.42113e-07
-9.02976e-08
1.61601e-07
-1.27728e-07
1.77359e-07
-1.71497e-07
1.86971e-07
-2.20195e-07
1.87763e-07
-2.71874e-07
1.76993e-07
-3.24122e-07
1.51991e-07
-3.74126e-07
1.10262e-07
-4.18715e-07
4.95775e-08
-4.54408e-07
-3.19319e-08
-4.77438e-07
-1.35668e-07
-4.8379e-07
-2.6243e-07
-4.69237e-07
-4.12244e-07
-4.29403e-07
-5.8414e-07
-3.59851e-07
-7.75875e-07
-2.56238e-07
-9.83595e-07
-1.14541e-07
-1.20145e-06
6.85942e-08
-1.42118e-06
2.95363e-07
-1.63167e-06
5.6612e-07
-1.81867e-06
8.78508e-07
-1.9646e-06
1.22643e-06
-2.04889e-06
1.59898e-06
-2.04875e-06
1.97947e-06
-1.94083e-06
2.34494e-06
-1.70389e-06
2.66649e-06
-1.32241e-06
2.91092e-06
-7.9109e-07
3.04398e-06
-1.19433e-07
3.03514e-06
6.64868e-07
2.8629e-06
1.51544e-06
2.51953e-06
2.37062e-06
2.01377e-06
3.16044e-06
1.37099e-06
3.81559e-06
6.30847e-07
4.27649e-06
-1.56832e-07
4.50046e-06
-9.3725e-07
4.46661e-06
-1.65634e-06
4.1782e-06
-2.26645e-06
3.66226e-06
-2.73138e-06
2.96667e-06
-3.03013e-06
2.15437e-06
-3.15855e-06
1.29557e-06
-3.12846e-06
4.58603e-07
-2.96421e-06
-2.98772e-07
-2.69765e-06
-9.3525e-07
-2.36295e-06
-1.42821e-06
-1.99216e-06
-1.77237e-06
-1.61252e-06
-1.97602e-06
-1.2452e-06
-2.05638e-06
-9.05232e-07
-2.03538e-06
-6.02132e-07
-1.9363e-06
-3.40911e-07
-1.78142e-06
-1.23121e-07
-1.59057e-06
5.21631e-08
-1.3804e-06
1.87509e-07
-1.16424e-06
2.86473e-07
-9.52281e-07
3.53139e-07
-7.51966e-07
3.91804e-07
-5.68414e-07
4.06789e-07
-4.04877e-07
4.02307e-07
-2.63139e-07
3.82399e-07
-1.43844e-07
3.50886e-07
-4.67408e-08
3.11341e-07
2.9123e-08
2.67058e-07
8.52469e-08
2.21024e-07
1.23557e-07
1.75869e-07
1.46307e-07
1.3382e-07
1.55995e-07
9.66375e-08
1.55273e-07
6.55492e-08
1.46839e-07
4.11907e-08
1.33295e-07
2.35644e-08
1.16952e-07
1.20407e-08
9.95825e-08
5.42762e-09
8.21172e-08
2.15376e-09
6.42998e-08
6.13615e-10
4.43151e-08
1.83049e-08
1.42368e-10
1.99432e-08
-4.45319e-10
5.10706e-08
-3.77569e-09
7.88077e-08
-1.25912e-08
1.06982e-07
-2.92282e-08
1.36813e-07
-5.52876e-08
1.67589e-07
-9.15243e-08
1.97315e-07
-1.37855e-07
2.23223e-07
-1.93428e-07
2.42128e-07
-2.5672e-07
2.50685e-07
-3.25647e-07
2.45594e-07
-3.97662e-07
2.23727e-07
-4.69835e-07
1.82205e-07
-5.38904e-07
1.18469e-07
-6.013e-07
3.03406e-08
-6.53158e-07
-8.38817e-08
-6.90311e-07
-2.25301e-07
-7.08283e-07
-3.94254e-07
-7.02289e-07
-5.90079e-07
-6.67259e-07
-8.10817e-07
-5.97905e-07
-1.05283e-06
-4.88877e-07
-1.31034e-06
-3.35032e-07
-1.57486e-06
-1.31895e-07
-1.83463e-06
1.23618e-07
-2.074e-06
4.32179e-07
-2.27299e-06
7.90705e-07
-2.40727e-06
1.19079e-06
-2.44872e-06
1.61709e-06
-2.36704e-06
2.046e-06
-2.13274e-06
2.44529e-06
-1.72165e-06
2.77538e-06
-1.1211e-06
2.99304e-06
-3.36977e-07
3.0577e-06
6.00414e-07
2.9389e-06
1.63452e-06
2.62315e-06
2.68677e-06
2.11778e-06
3.66628e-06
1.45119e-06
4.48272e-06
6.6965e-07
5.05858e-06
-1.68124e-07
5.33876e-06
-9.97353e-07
5.29629e-06
-1.75404e-06
4.93526e-06
-2.38204e-06
4.29057e-06
-2.83936e-06
3.42429e-06
-3.1031e-06
2.41845e-06
-3.17178e-06
1.36465e-06
-3.0641e-06
3.51343e-07
-2.81386e-06
-5.48583e-07
-2.4629e-06
-1.28582e-06
-2.0537e-06
-1.83712e-06
-1.62386e-06
-2.20205e-06
-1.20314e-06
-2.39669e-06
-8.12736e-07
-2.44684e-06
-4.65974e-07
-2.38227e-06
-1.69707e-07
-2.23271e-06
7.40853e-08
-2.02535e-06
2.66817e-07
-1.78342e-06
4.12046e-07
-1.52571e-06
5.1451e-07
-1.26675e-06
5.79446e-07
-1.01724e-06
6.12159e-07
-7.84687e-07
6.17785e-07
-5.74044e-07
6.01188e-07
-3.8829e-07
5.66917e-07
-2.28897e-07
5.19211e-07
-9.61911e-08
4.62011e-07
1.03784e-08
3.98972e-07
9.20499e-08
3.33471e-07
1.50605e-07
2.68586e-07
1.88265e-07
2.07066e-07
2.07615e-07
1.51272e-07
2.1154e-07
1.03095e-07
2.03158e-07
6.3866e-08
1.85727e-07
3.42476e-08
1.62516e-07
1.41419e-08
1.366e-07
2.62827e-09
1.10579e-07
-2.02895e-09
8.62024e-08
-2.25694e-09
6.39122e-08
-8.41561e-10
4.22665e-08
1.71306e-08
1.89121e-09
1.76094e-08
4.54961e-09
4.75834e-08
4.16156e-09
7.84443e-08
-3.39744e-09
1.13831e-07
-2.13717e-08
1.54119e-07
-5.18702e-08
1.97478e-07
-9.58591e-08
2.40759e-07
-1.53261e-07
2.8014e-07
-2.23111e-07
3.11544e-07
-3.03729e-07
3.30911e-07
-3.92873e-07
3.34385e-07
-4.87874e-07
3.18415e-07
-5.85729e-07
2.79793e-07
-6.83156e-07
2.1568e-07
-7.76605e-07
1.23629e-07
-8.62237e-07
1.64624e-09
-9.35886e-07
-1.51703e-07
-9.92988e-07
-3.37152e-07
-1.02852e-06
-5.54497e-07
-1.03695e-06
-8.02303e-07
-1.01217e-06
-1.07749e-06
-9.47542e-07
-1.3748e-06
-8.36064e-07
-1.68616e-06
-6.70681e-07
-1.99982e-06
-4.44993e-07
-2.29949e-06
-1.54367e-07
-2.56343e-06
2.02444e-07
-2.7639e-06
6.21187e-07
-2.86729e-06
1.08964e-06
-2.83533e-06
1.58516e-06
-2.62808e-06
2.07299e-06
-2.20925e-06
2.50664e-06
-1.55443e-06
2.83182e-06
-6.61731e-07
2.99471e-06
4.38059e-07
2.9527e-06
1.67716e-06
2.68424e-06
2.95592e-06
2.1946e-06
4.15663e-06
1.51574e-06
5.16226e-06
7.01709e-07
5.87322e-06
-1.78494e-07
6.21943e-06
-1.04864e-06
6.16673e-06
-1.8334e-06
5.72012e-06
-2.46673e-06
4.92387e-06
-2.89979e-06
3.85731e-06
-3.10758e-06
2.62626e-06
-3.09241e-06
1.34962e-06
-2.88244e-06
1.41663e-07
-2.52433e-06
-9.06288e-07
-2.0728e-06
-1.73692e-06
-1.58031e-06
-2.3292e-06
-1.0901e-06
-2.69193e-06
-6.33382e-07
-2.85321e-06
-2.29714e-07
-2.85043e-06
1.1104e-07
-2.72306e-06
3.86238e-07
-2.50803e-06
5.98131e-07
-2.2374e-06
7.51933e-07
-1.93738e-06
8.54347e-07
-1.62827e-06
9.12541e-07
-1.32507e-06
9.33488e-07
-1.03829e-06
9.23642e-07
-7.74921e-07
8.88834e-07
-5.39302e-07
8.34293e-07
-3.33814e-07
7.64729e-07
-1.59406e-07
6.84415e-07
-1.59661e-08
5.97266e-07
9.74155e-08
5.06903e-07
1.82275e-07
4.16689e-07
2.40654e-07
3.29731e-07
2.75028e-07
2.48859e-07
2.88261e-07
1.76562e-07
2.83578e-07
1.1489e-07
2.64531e-07
6.53269e-08
2.34945e-07
2.86379e-08
1.98806e-07
4.70543e-09
1.60075e-07
-7.61314e-09
1.22382e-07
-1.05748e-08
8.85981e-08
-7.52656e-09
6.02595e-08
-2.6535e-09
3.67709e-08
1.41589e-08
4.06115e-09
1.30809e-08
1.04387e-08
4.03328e-08
1.30251e-08
7.50585e-08
6.15237e-09
1.1994e-07
-1.43021e-08
1.73846e-07
-5.08477e-08
2.33349e-07
-1.04529e-07
2.93824e-07
-1.75157e-07
3.50206e-07
-2.61567e-07
3.9743e-07
-3.61861e-07
4.30707e-07
-4.73623e-07
4.45668e-07
-5.94085e-07
4.38417e-07
-7.20233e-07
4.05509e-07
-8.48863e-07
3.43913e-07
-9.76572e-07
2.50987e-07
-1.09971e-06
1.24489e-07
-1.21431e-06
-3.73484e-08
-1.31595e-06
-2.35696e-07
-1.39965e-06
-4.70933e-07
-1.45967e-06
-7.42358e-07
-1.48939e-06
-1.04779e-06
-1.48117e-06
-1.383e-06
-1.42626e-06
-1.741e-06
-1.31498e-06
-2.11099e-06
-1.13723e-06
-2.47711e-06
-8.8354e-07
-2.81696e-06
-5.46924e-07
-3.10033e-06
-1.25437e-07
-3.28854e-06
3.74381e-07
-3.33483e-06
9.33493e-07
-3.18676e-06
1.51659e-06
-2.79176e-06
2.07045e-06
-2.10755e-06
2.52749e-06
-1.11786e-06
2.81664e-06
1.49947e-07
2.87885e-06
1.61603e-06
2.68169e-06
3.15411e-06
2.22761e-06
4.61161e-06
1.55308e-06
5.8375e-06
7.21284e-07
6.7055e-06
-1.87385e-07
7.12836e-06
-1.08431e-06
7.06367e-06
-1.88182e-06
6.5174e-06
-2.50275e-06
5.54441e-06
-2.89022e-06
4.24435e-06
-3.01666e-06
2.75241e-06
-2.88952e-06
1.22239e-06
-2.54978e-06
-1.9791e-07
-2.06128e-06
-1.39441e-06
-1.49514e-06
-2.30253e-06
-9.1539e-07
-2.90835e-06
-3.70104e-07
-3.23663e-06
1.10304e-07
-3.33311e-06
5.10587e-07
-3.25035e-06
8.26734e-07
-3.039e-06
1.06214e-06
-2.74338e-06
1.22453e-06
-2.39983e-06
1.32361e-06
-2.03659e-06
1.36957e-06
-1.67441e-06
1.37202e-06
-1.32773e-06
1.33952e-06
-1.006e-06
1.2794e-06
-7.15019e-07
1.19786e-06
-4.57998e-07
1.10023e-06
-2.36417e-07
9.91094e-07
-5.0525e-08
8.74544e-07
1.0031e-07
7.54284e-07
2.17378e-07
6.33748e-07
3.02487e-07
5.16168e-07
3.57885e-07
4.046e-07
3.86224e-07
3.01907e-07
3.9056e-07
2.10692e-07
3.74375e-07
1.33189e-07
3.4159e-07
7.10991e-08
2.96559e-07
2.53827e-08
2.44009e-07
-3.97912e-09
1.8888e-07
-1.82287e-08
1.36036e-07
-2.0047e-08
8.97914e-08
-1.36863e-08
5.32569e-08
-4.89322e-09
2.733e-08
8.93124e-09
6.66516e-09
5.91416e-09
1.70564e-08
2.90136e-08
2.22492e-08
6.90015e-08
1.50057e-08
1.26342e-07
-9.49505e-09
1.97528e-07
-5.39513e-08
2.77021e-07
-1.19307e-07
3.58435e-07
-2.05124e-07
4.35311e-07
-3.09938e-07
5.01549e-07
-4.31588e-07
5.5166e-07
-5.6748e-07
5.80851e-07
-7.14786e-07
5.84999e-07
-8.70564e-07
5.60559e-07
-1.03181e-06
5.04436e-07
-1.19541e-06
4.13901e-07
-1.35812e-06
2.86544e-07
-1.51638e-06
1.20314e-07
-1.66623e-06
-8.63934e-08
-1.80304e-06
-3.34593e-07
-1.92133e-06
-6.24469e-07
-2.01444e-06
-9.55011e-07
-2.0742e-06
-1.32349e-06
-2.09064e-06
-1.72473e-06
-2.05177e-06
-2.14996e-06
-1.94373e-06
-2.58515e-06
-1.75173e-06
-3.00887e-06
-1.46171e-06
-3.39013e-06
-1.06326e-06
-3.68661e-06
-5.53881e-07
-3.84365e-06
5.51676e-08
-3.79502e-06
7.3189e-07
-3.46745e-06
1.41806e-06
-2.79243e-06
2.03076e-06
-1.72909e-06
2.47672e-06
-2.94453e-07
2.67496e-06
1.41928e-06
2.57852e-06
3.25179e-06
2.18664e-06
5.00437e-06
1.54176e-06
6.48285e-06
7.17701e-07
7.52964e-06
-1.93586e-07
8.03947e-06
-1.09144e-06
7.96119e-06
-1.87586e-06
7.30136e-06
-2.458e-06
6.12604e-06
-2.77171e-06
4.55759e-06
-2.78604e-06
2.76645e-06
-2.51471e-06
9.51053e-07
-2.01602e-06
-6.96323e-07
-1.37638e-06
-2.0335e-06
-6.8753e-07
-2.99067e-06
-2.58492e-08
-3.56921e-06
5.58211e-07
-3.81981e-06
1.03915e-06
-3.8132e-06
1.41003e-06
-3.62049e-06
1.67568e-06
-3.3041e-06
1.84745e-06
-2.91482e-06
1.93955e-06
-2.4918e-06
1.96659e-06
-2.06367e-06
1.94215e-06
-1.65014e-06
1.87798e-06
-1.26385e-06
1.78377e-06
-9.12149e-07
1.66718e-06
-5.98862e-07
1.53434e-06
-3.25635e-07
1.3902e-06
-9.27991e-08
1.23893e-06
1.0019e-07
1.08413e-06
2.54504e-07
9.29098e-07
3.71775e-07
7.769e-07
4.54017e-07
6.30505e-07
5.03588e-07
4.92817e-07
5.23202e-07
3.66668e-07
5.1599e-07
2.54748e-07
4.85569e-07
1.59488e-07
4.36119e-07
8.28635e-08
3.72447e-07
2.61309e-08
2.99995e-07
-1.04935e-08
2.24746e-07
-2.81845e-08
1.52962e-07
-2.98645e-08
9.07137e-08
-2.0546e-08
4.31984e-08
-7.56542e-09
1.36289e-08
9.72998e-10
9.53286e-09
-4.16429e-09
2.36919e-08
1.38743e-08
3.03502e-08
6.14131e-08
2.09432e-08
1.34817e-07
-9.6663e-09
2.2721e-07
-6.40749e-08
3.30509e-07
-1.42935e-07
4.36382e-07
-2.45433e-07
5.36896e-07
-3.69739e-07
6.24928e-07
-5.13406e-07
6.94366e-07
-6.73683e-07
7.40121e-07
-8.47748e-07
7.58008e-07
-1.03283e-06
7.44548e-07
-1.22626e-06
6.96753e-07
-1.42542e-06
6.11942e-07
-1.62761e-06
4.87653e-07
-1.83e-06
3.21656e-07
-2.02935e-06
1.11983e-07
-2.22186e-06
-1.42984e-07
-2.40278e-06
-4.44357e-07
-2.56606e-06
-7.92426e-07
-2.70386e-06
-1.18627e-06
-2.80588e-06
-1.62318e-06
-2.85863e-06
-2.09752e-06
-2.84519e-06
-2.59876e-06
-2.74549e-06
-3.10854e-06
-2.53776e-06
-3.59761e-06
-2.20105e-06
-4.02279e-06
-1.71987e-06
-4.32397e-06
-1.09174e-06
-4.42195e-06
-3.38457e-07
-4.21921e-06
4.81386e-07
-3.6105e-06
1.2686e-06
-2.51439e-06
1.90206e-06
-9.26023e-07
2.27195e-06
1.05103e-06
2.31229e-06
3.21264e-06
2.01946e-06
5.29783e-06
1.44424e-06
7.0581e-06
6.72282e-07
8.30107e-06
-1.94813e-07
8.90578e-06
-1.0471e-06
8.81278e-06
-1.77443e-06
8.02822e-06
-2.27727e-06
6.62867e-06
-2.47929e-06
4.75965e-06
-2.34456e-06
2.63204e-06
-1.89374e-06
5.00865e-07
-1.20813e-06
-1.38101e-06
-4.03458e-07
-2.83705e-06
4.03843e-07
-3.79678e-06
1.12576e-06
-4.28997e-06
1.71512e-06
-4.40803e-06
2.15815e-06
-4.25512e-06
2.46164e-06
-3.92293e-06
2.64259e-06
-3.48418e-06
2.72185e-06
-2.99347e-06
2.72046e-06
-2.49006e-06
2.65759e-06
-2.00072e-06
2.5496e-06
-1.54231e-06
2.40962e-06
-1.12423e-06
2.24759e-06
-7.5063e-07
2.07073e-06
-4.22662e-07
1.88439e-06
-1.40054e-07
1.69265e-06
9.80863e-08
1.49884e-06
2.93062e-07
1.30584e-06
4.46508e-07
1.11627e-06
5.60297e-07
9.32669e-07
6.36534e-07
7.5759e-07
6.77554e-07
5.93672e-07
6.85997e-07
4.43628e-07
6.64916e-07
3.10192e-07
6.17902e-07
1.95978e-07
5.49254e-07
1.03267e-07
4.64103e-07
3.36878e-08
3.68543e-07
-1.21861e-08
2.69615e-07
-3.52863e-08
1.75091e-07
-3.85284e-08
9.3033e-08
-2.73616e-08
3.11668e-08
-1.04717e-08
-4.07564e-09
-9.97234e-09
1.19681e-08
-1.67289e-08
2.83327e-08
-3.49249e-09
3.39407e-08
5.48422e-08
1.95814e-08
1.48171e-07
-1.96377e-08
2.65411e-07
-8.59497e-08
3.95786e-07
-1.79611e-07
5.28974e-07
-2.99389e-07
6.55563e-07
-4.43079e-07
7.67454e-07
-6.07967e-07
8.58027e-07
-7.91208e-07
9.22059e-07
-9.90074e-07
9.55495e-07
-1.20209e-06
9.55124e-07
-1.42508e-06
9.18251e-07
-1.65705e-06
8.42407e-07
-1.8961e-06
7.25221e-07
-2.14031e-06
5.64417e-07
-2.38752e-06
3.57814e-07
-2.63512e-06
1.03331e-07
-2.8797e-06
-2.00953e-07
-3.11661e-06
-5.56559e-07
-3.33938e-06
-9.64393e-07
-3.53874e-06
-1.42453e-06
-3.7013e-06
-1.93546e-06
-3.80851e-06
-2.49182e-06
-3.83638e-06
-3.08067e-06
-3.756e-06
-3.67764e-06
-3.5351e-06
-4.24297e-06
-3.14161e-06
-4.71633e-06
-2.55166e-06
-5.01037e-06
-1.76575e-06
-5.00327e-06
-8.3289e-07
-4.54131e-06
1.3338e-07
-3.47862e-06
9.7925e-07
-1.77006e-06
1.55826e-06
4.73408e-07
1.77967e-06
2.99202e-06
1.63845e-06
5.43931e-06
1.19718e-06
7.49919e-06
5.53742e-07
8.94371e-06
-1.86901e-07
9.64532e-06
-9.12487e-07
9.53752e-06
-1.5084e-06
8.62394e-06
-1.86851e-06
6.98919e-06
-1.90644e-06
4.7985e-06
-1.579e-06
2.30589e-06
-9.13118e-07
-1.63368e-07
-2.08623e-08
-2.27129e-06
9.45834e-07
-3.80155e-06
1.84346e-06
-4.69216e-06
2.57679e-06
-5.02139e-06
3.1126e-06
-4.94227e-06
3.45926e-06
-4.60042e-06
3.6437e-06
-4.10616e-06
3.69775e-06
-3.53718e-06
3.652e-06
-2.94692e-06
3.53334e-06
-2.37092e-06
3.36413e-06
-1.83136e-06
3.16205e-06
-1.3404e-06
2.94024e-06
-9.0285e-07
2.70765e-06
-5.18716e-07
2.47003e-06