/*--------------------------------*- C++ -*----------------------------------*\
| =========                 |                                                 |
| \\      /  F ield         | OpenFOAM: The Open Source CFD Toolbox           |
|  \\    /   O peration     | Version:  2412                                  |
|   \\  /    A nd           | Website:  www.openfoam.com                      |
|    \\/     M anipulation  |                                                 |
\*---------------------------------------------------------------------------*/
FoamFile
{
    version     2.0;
    format      ascii;
    arch        "LSB;label=32;scalar=64";
    class       volScalarField;
    location    "4.55";
    object      p_rgh;
}
// * * * * * * * * * * * * * * * * * * * * * * * * * * * * * * * * * * * * * //

dimensions      [1 -1 -2 0 0 0 0];

internalField   nonuniform List<scalar> 
6400
(
15692.3
15692.3
15692.4
15692.4
15692.4
15692.4
15692.4
15692.4
15692.5
15692.5
15692.5
15692.5
15692.5
15692.5
15692.5
15692.5
15692.6
15692.6
15692.6
15692.6
15692.6
15692.6
15692.6
15692.6
15692.6
15692.6
15692.6
15692.6
15692.6
15692.6
15692.6
15692.6
15692.6
15692.6
15692.6
15692.6
15692.6
15692.6
15692.6
15692.6
15692.5
15692.5
15692.5
15692.5
15692.5
15692.5
15692.4
15692.4
15692.4
15692.4
15692.3
15692.3
15692.3
15692.3
15692.2
15692.2
15692.2
15692.2
15692.1
15692.1
15692.1
15692.1
15692
15692
15692
15691.9
15691.9
15691.9
15691.9
15691.8
15691.8
15691.8
15691.8
15691.7
15691.7
15691.7
15691.6
15691.6
15691.6
15691.6
15692.3
15692.3
15692.3
15692.3
15692.4
15692.4
15692.4
15692.4
15692.4
15692.4
15692.5
15692.5
15692.5
15692.5
15692.5
15692.5
15692.5
15692.5
15692.6
15692.6
15692.6
15692.6
15692.6
15692.6
15692.6
15692.6
15692.6
15692.6
15692.6
15692.6
15692.6
15692.6
15692.6
15692.6
15692.6
15692.6
15692.6
15692.6
15692.5
15692.5
15692.5
15692.5
15692.5
15692.5
15692.5
15692.4
15692.4
15692.4
15692.4
15692.4
15692.3
15692.3
15692.3
15692.3
15692.2
15692.2
15692.2
15692.1
15692.1
15692.1
15692.1
15692
15692
15692
15692
15691.9
15691.9
15691.9
15691.8
15691.8
15691.8
15691.8
15691.7
15691.7
15691.7
15691.7
15691.6
15691.6
15691.6
15691.6
15692.2
15692.3
15692.3
15692.3
15692.3
15692.3
15692.3
15692.3
15692.4
15692.4
15692.4
15692.4
15692.4
15692.4
15692.4
15692.5
15692.5
15692.5
15692.5
15692.5
15692.5
15692.5
15692.5
15692.5
15692.5
15692.5
15692.5
15692.5
15692.5
15692.5
15692.5
15692.5
15692.5
15692.5
15692.5
15692.5
15692.5
15692.5
15692.5
15692.5
15692.4
15692.4
15692.4
15692.4
15692.4
15692.4
15692.3
15692.3
15692.3
15692.3
15692.3
15692.2
15692.2
15692.2
15692.2
15692.1
15692.1
15692.1
15692.1
15692
15692
15692
15691.9
15691.9
15691.9
15691.9
15691.8
15691.8
15691.8
15691.8
15691.7
15691.7
15691.7
15691.6
15691.6
15691.6
15691.6
15691.5
15691.5
15691.5
15692.1
15692.1
15692.2
15692.2
15692.2
15692.2
15692.2
15692.2
15692.2
15692.3
15692.3
15692.3
15692.3
15692.3
15692.3
15692.3
15692.3
15692.4
15692.4
15692.4
15692.4
15692.4
15692.4
15692.4
15692.4
15692.4
15692.4
15692.4
15692.4
15692.4
15692.4
15692.4
15692.4
15692.4
15692.4
15692.4
15692.4
15692.4
15692.4
15692.3
15692.3
15692.3
15692.3
15692.3
15692.3
15692.3
15692.2
15692.2
15692.2
15692.2
15692.1
15692.1
15692.1
15692.1
15692
15692
15692
15692
15691.9
15691.9
15691.9
15691.9
15691.8
15691.8
15691.8
15691.8
15691.7
15691.7
15691.7
15691.6
15691.6
15691.6
15691.6
15691.5
15691.5
15691.5
15691.5
15691.4
15691.4
15691.4
15692
15692
15692
15692
15692
15692
15692.1
15692.1
15692.1
15692.1
15692.1
15692.1
15692.1
15692.2
15692.2
15692.2
15692.2
15692.2
15692.2
15692.2
15692.2
15692.2
15692.2
15692.2
15692.2
15692.2
15692.2
15692.2
15692.2
15692.2
15692.2
15692.2
15692.2
15692.2
15692.2
15692.2
15692.2
15692.2
15692.2
15692.2
15692.2
15692.2
15692.2
15692.1
15692.1
15692.1
15692.1
15692.1
15692
15692
15692
15692
15691.9
15691.9
15691.9
15691.9
15691.8
15691.8
15691.8
15691.8
15691.7
15691.7
15691.7
15691.7
15691.6
15691.6
15691.6
15691.6
15691.5
15691.5
15691.5
15691.5
15691.4
15691.4
15691.4
15691.4
15691.3
15691.3
15691.3
15691.3
15691.8
15691.8
15691.8
15691.8
15691.8
15691.9
15691.9
15691.9
15691.9
15691.9
15691.9
15691.9
15692
15692
15692
15692
15692
15692
15692
15692
15692
15692
15692
15692
15692
15692
15692
15692
15692.1
15692.1
15692
15692
15692
15692
15692
15692
15692
15692
15692
15692
15692
15692
15692
15691.9
15691.9
15691.9
15691.9
15691.9
15691.8
15691.8
15691.8
15691.8
15691.8
15691.7
15691.7
15691.7
15691.7
15691.6
15691.6
15691.6
15691.6
15691.5
15691.5
15691.5
15691.5
15691.4
15691.4
15691.4
15691.4
15691.3
15691.3
15691.3
15691.3
15691.2
15691.2
15691.2
15691.2
15691.1
15691.1
15691.1
15691.6
15691.6
15691.6
15691.6
15691.6
15691.6
15691.6
15691.7
15691.7
15691.7
15691.7
15691.7
15691.7
15691.7
15691.7
15691.7
15691.8
15691.8
15691.8
15691.8
15691.8
15691.8
15691.8
15691.8
15691.8
15691.8
15691.8
15691.8
15691.8
15691.8
15691.8
15691.8
15691.8
15691.8
15691.8
15691.8
15691.8
15691.8
15691.8
15691.8
15691.7
15691.7
15691.7
15691.7
15691.7
15691.7
15691.7
15691.6
15691.6
15691.6
15691.6
15691.6
15691.5
15691.5
15691.5
15691.5
15691.4
15691.4
15691.4
15691.4
15691.3
15691.3
15691.3
15691.3
15691.2
15691.2
15691.2
15691.2
15691.1
15691.1
15691.1
15691.1
15691
15691
15691
15691
15691
15690.9
15690.9
15690.9
15691.3
15691.3
15691.3
15691.3
15691.3
15691.4
15691.4
15691.4
15691.4
15691.4
15691.4
15691.4
15691.4
15691.5
15691.5
15691.5
15691.5
15691.5
15691.5
15691.5
15691.5
15691.5
15691.5
15691.5
15691.5
15691.5
15691.5
15691.5
15691.5
15691.5
15691.5
15691.5
15691.5
15691.5
15691.5
15691.5
15691.5
15691.5
15691.5
15691.5
15691.5
15691.5
15691.4
15691.4
15691.4
15691.4
15691.4
15691.4
15691.4
15691.3
15691.3
15691.3
15691.3
15691.2
15691.2
15691.2
15691.2
15691.2
15691.1
15691.1
15691.1
15691.1
15691
15691
15691
15691
15691
15690.9
15690.9
15690.9
15690.9
15690.8
15690.8
15690.8
15690.8
15690.7
15690.7
15690.7
15690.7
15690.7
15691
15691
15691
15691
15691
15691.1
15691.1
15691.1
15691.1
15691.1
15691.1
15691.1
15691.1
15691.1
15691.2
15691.2
15691.2
15691.2
15691.2
15691.2
15691.2
15691.2
15691.2
15691.2
15691.2
15691.2
15691.2
15691.2
15691.2
15691.2
15691.2
15691.2
15691.2
15691.2
15691.2
15691.2
15691.2
15691.2
15691.2
15691.2
15691.2
15691.2
15691.1
15691.1
15691.1
15691.1
15691.1
15691.1
15691.1
15691
15691
15691
15691
15691
15690.9
15690.9
15690.9
15690.9
15690.8
15690.8
15690.8
15690.8
15690.8
15690.7
15690.7
15690.7
15690.7
15690.6
15690.6
15690.6
15690.6
15690.6
15690.5
15690.5
15690.5
15690.5
15690.5
15690.4
15690.4
15690.4
15690.7
15690.7
15690.7
15690.7
15690.7
15690.7
15690.7
15690.7
15690.8
15690.8
15690.8
15690.8
15690.8
15690.8
15690.8
15690.8
15690.8
15690.8
15690.8
15690.8
15690.9
15690.9
15690.9
15690.9
15690.9
15690.9
15690.9
15690.9
15690.9
15690.9
15690.9
15690.9
15690.9
15690.9
15690.9
15690.9
15690.9
15690.9
15690.8
15690.8
15690.8
15690.8
15690.8
15690.8
15690.8
15690.8
15690.7
15690.7
15690.7
15690.7
15690.7
15690.7
15690.6
15690.6
15690.6
15690.6
15690.6
15690.5
15690.5
15690.5
15690.5
15690.5
15690.4
15690.4
15690.4
15690.4
15690.4
15690.3
15690.3
15690.3
15690.3
15690.3
15690.2
15690.2
15690.2
15690.2
15690.2
15690.1
15690.1
15690.1
15690.3
15690.3
15690.3
15690.3
15690.3
15690.4
15690.4
15690.4
15690.4
15690.4
15690.4
15690.4
15690.4
15690.4
15690.4
15690.4
15690.5
15690.5
15690.5
15690.5
15690.5
15690.5
15690.5
15690.5
15690.5
15690.5
15690.5
15690.5
15690.5
15690.5
15690.5
15690.5
15690.5
15690.5
15690.5
15690.5
15690.5
15690.5
15690.5
15690.5
15690.5
15690.4
15690.4
15690.4
15690.4
15690.4
15690.4
15690.4
15690.4
15690.3
15690.3
15690.3
15690.3
15690.3
15690.3
15690.2
15690.2
15690.2
15690.2
15690.2
15690.1
15690.1
15690.1
15690.1
15690.1
15690
15690
15690
15690
15690
15689.9
15689.9
15689.9
15689.9
15689.9
15689.9
15689.8
15689.8
15689.8
15689.8
15689.9
15689.9
15689.9
15689.9
15689.9
15690
15690
15690
15690
15690
15690
15690
15690
15690
15690
15690
15690.1
15690.1
15690.1
15690.1
15690.1
15690.1
15690.1
15690.1
15690.1
15690.1
15690.1
15690.1
15690.1
15690.1
15690.1
15690.1
15690.1
15690.1
15690.1
15690.1
15690.1
15690.1
15690.1
15690.1
15690.1
15690
15690
15690
15690
15690
15690
15690
15690
15689.9
15689.9
15689.9
15689.9
15689.9
15689.9
15689.9
15689.8
15689.8
15689.8
15689.8
15689.8
15689.8
15689.7
15689.7
15689.7
15689.7
15689.7
15689.6
15689.6
15689.6
15689.6
15689.6
15689.6
15689.5
15689.5
15689.5
15689.5
15689.5
15689.5
15689.5
15689.5
15689.5
15689.5
15689.5
15689.5
15689.5
15689.5
15689.6
15689.6
15689.6
15689.6
15689.6
15689.6
15689.6
15689.6
15689.6
15689.6
15689.6
15689.6
15689.6
15689.6
15689.6
15689.7
15689.7
15689.7
15689.7
15689.7
15689.7
15689.7
15689.7
15689.7
15689.7
15689.7
15689.7
15689.7
15689.7
15689.7
15689.6
15689.6
15689.6
15689.6
15689.6
15689.6
15689.6
15689.6
15689.6
15689.6
15689.6
15689.5
15689.5
15689.5
15689.5
15689.5
15689.5
15689.5
15689.4
15689.4
15689.4
15689.4
15689.4
15689.4
15689.4
15689.3
15689.3
15689.3
15689.3
15689.3
15689.3
15689.2
15689.2
15689.2
15689.2
15689.2
15689.2
15689.2
15689.1
15689.1
15689.1
15689.1
15689.1
15689.1
15689.1
15689.1
15689.1
15689.1
15689.1
15689.1
15689.1
15689.1
15689.1
15689.1
15689.1
15689.2
15689.2
15689.2
15689.2
15689.2
15689.2
15689.2
15689.2
15689.2
15689.2
15689.2
15689.2
15689.2
15689.2
15689.2
15689.2
15689.2
15689.2
15689.2
15689.2
15689.2
15689.2
15689.2
15689.2
15689.2
15689.2
15689.2
15689.2
15689.2
15689.2
15689.2
15689.2
15689.2
15689.1
15689.1
15689.1
15689.1
15689.1
15689.1
15689.1
15689.1
15689.1
15689
15689
15689
15689
15689
15689
15689
15688.9
15688.9
15688.9
15688.9
15688.9
15688.9
15688.9
15688.8
15688.8
15688.8
15688.8
15688.8
15688.8
15688.8
15688.8
15688.7
15688.7
15688.7
15688.7
15688.6
15688.6
15688.6
15688.6
15688.6
15688.7
15688.7
15688.7
15688.7
15688.7
15688.7
15688.7
15688.7
15688.7
15688.7
15688.7
15688.7
15688.7
15688.7
15688.7
15688.7
15688.7
15688.7
15688.7
15688.7
15688.7
15688.7
15688.7
15688.8
15688.8
15688.8
15688.8
15688.8
15688.7
15688.7
15688.7
15688.7
15688.7
15688.7
15688.7
15688.7
15688.7
15688.7
15688.7
15688.7
15688.7
15688.7
15688.7
15688.7
15688.7
15688.6
15688.6
15688.6
15688.6
15688.6
15688.6
15688.6
15688.6
15688.6
15688.5
15688.5
15688.5
15688.5
15688.5
15688.5
15688.5
15688.5
15688.4
15688.4
15688.4
15688.4
15688.4
15688.4
15688.4
15688.4
15688.4
15688.3
15688.3
15688.3
15688.3
15688.2
15688.2
15688.2
15688.2
15688.2
15688.2
15688.2
15688.2
15688.2
15688.2
15688.2
15688.2
15688.2
15688.2
15688.2
15688.2
15688.2
15688.2
15688.2
15688.3
15688.3
15688.3
15688.3
15688.3
15688.3
15688.3
15688.3
15688.3
15688.3
15688.3
15688.3
15688.3
15688.3
15688.3
15688.3
15688.3
15688.3
15688.3
15688.3
15688.3
15688.3
15688.3
15688.2
15688.2
15688.2
15688.2
15688.2
15688.2
15688.2
15688.2
15688.2
15688.2
15688.2
15688.2
15688.1
15688.1
15688.1
15688.1
15688.1
15688.1
15688.1
15688.1
15688.1
15688.1
15688.1
15688
15688
15688
15688
15688
15688
15688
15688
15688
15688
15687.9
15687.9
15687.9
15687.9
15687.9
15687.7
15687.7
15687.7
15687.7
15687.7
15687.7
15687.7
15687.7
15687.7
15687.7
15687.7
15687.7
15687.8
15687.8
15687.8
15687.8
15687.8
15687.8
15687.8
15687.8
15687.8
15687.8
15687.8
15687.8
15687.8
15687.8
15687.8
15687.8
15687.8
15687.8
15687.8
15687.8
15687.8
15687.8
15687.8
15687.8
15687.8
15687.8
15687.8
15687.8
15687.8
15687.8
15687.8
15687.8
15687.8
15687.8
15687.8
15687.7
15687.7
15687.7
15687.7
15687.7
15687.7
15687.7
15687.7
15687.7
15687.7
15687.7
15687.7
15687.7
15687.7
15687.6
15687.6
15687.6
15687.6
15687.6
15687.6
15687.6
15687.6
15687.6
15687.6
15687.6
15687.6
15687.6
15687.5
15687.5
15687.5
15687.5
15687.5
15687.5
15687.3
15687.3
15687.3
15687.3
15687.3
15687.3
15687.3
15687.3
15687.3
15687.3
15687.3
15687.3
15687.3
15687.3
15687.3
15687.3
15687.3
15687.3
15687.3
15687.3
15687.3
15687.3
15687.3
15687.3
15687.3
15687.3
15687.3
15687.3
15687.3
15687.3
15687.3
15687.3
15687.3
15687.3
15687.3
15687.3
15687.3
15687.3
15687.3
15687.3
15687.3
15687.3
15687.3
15687.3
15687.3
15687.3
15687.3
15687.3
15687.3
15687.3
15687.3
15687.3
15687.3
15687.3
15687.3
15687.2
15687.2
15687.2
15687.2
15687.2
15687.2
15687.2
15687.2
15687.2
15687.2
15687.2
15687.2
15687.2
15687.2
15687.2
15687.2
15687.2
15687.2
15687.1
15687.1
15687.1
15687.1
15687.1
15687.1
15687.1
15686.8
15686.8
15686.8
15686.8
15686.8
15686.8
15686.8
15686.8
15686.8
15686.8
15686.8
15686.8
15686.8
15686.8
15686.8
15686.8
15686.8
15686.8
15686.8
15686.8
15686.8
15686.8
15686.8
15686.8
15686.8
15686.8
15686.8
15686.8
15686.8
15686.8
15686.8
15686.8
15686.8
15686.8
15686.8
15686.8
15686.8
15686.8
15686.8
15686.8
15686.8
15686.8
15686.8
15686.8
15686.8
15686.8
15686.8
15686.8
15686.8
15686.8
15686.8
15686.8
15686.8
15686.8
15686.8
15686.8
15686.8
15686.8
15686.8
15686.8
15686.8
15686.8
15686.8
15686.8
15686.8
15686.8
15686.8
15686.8
15686.7
15686.7
15686.7
15686.7
15686.7
15686.7
15686.7
15686.7
15686.7
15686.7
15686.7
15686.7
15686.3
15686.3
15686.3
15686.3
15686.3
15686.3
15686.3
15686.3
15686.3
15686.3
15686.3
15686.3
15686.3
15686.3
15686.3
15686.3
15686.3
15686.3
15686.3
15686.3
15686.3
15686.3
15686.3
15686.3
15686.3
15686.3
15686.3
15686.3
15686.3
15686.3
15686.3
15686.3
15686.3
15686.3
15686.3
15686.3
15686.3
15686.3
15686.3
15686.3
15686.3
15686.3
15686.3
15686.3
15686.3
15686.3
15686.3
15686.3
15686.3
15686.3
15686.3
15686.3
15686.3
15686.3
15686.3
15686.3
15686.3
15686.3
15686.3
15686.3
15686.3
15686.3
15686.3
15686.3
15686.3
15686.3
15686.3
15686.3
15686.3
15686.3
15686.3
15686.3
15686.3
15686.3
15686.3
15686.3
15686.3
15686.3
15686.3
15686.3
0.0738556
0.0833422
0.0820852
0.0816768
0.0814265
0.0807838
0.0799181
0.0788684
0.0774258
0.0755435
0.0732104
0.0707499
0.068662
0.0672848
0.0660149
0.0643837
0.0628861
0.0611958
0.059309
0.0572478
0.0554316
0.0537181
0.0523855
0.0515519
0.0516233
0.0534355
0.0553745
0.0574628
0.0596489
0.0617886
0.0639329
0.0661652
0.0683323
0.0704218
0.0721786
0.0735076
0.0743268
0.0748704
0.0748985
0.0752812
0.0751064
0.0744081
0.0735403
0.0726001
0.0712266
0.0695251
0.067903
0.0660113
0.0639398
0.0618383
0.0596311
0.0575957
0.0555646
0.0537679
0.0520268
0.0504253
0.049049
0.0479201
0.0469028
0.0461996
0.0454952
0.0447847
0.0440514
0.0432022
0.0423279
0.0421861
0.0432909
0.0442954
0.0453491
0.0461408
0.0465756
0.0467442
0.0465424
0.0461416
0.0458151
0.0453472
0.043905
0.0417497
0.0389614
0.0288715
0.0156801
0.0157206
0.015799
0.0159177
0.0160795
0.016287
0.0165426
0.0168485
0.0172068
0.0176197
0.0180893
0.0186178
0.0192073
0.0198614
0.0205845
0.0213798
0.0222511
0.0232035
0.0242426
0.0253739
0.0266053
0.0279454
0.0294007
0.030975
0.0326708
0.0345219
0.0365573
0.0387719
0.0411572
0.0436965
0.0463563
0.0491012
0.0518764
0.0545908
0.0571751
0.0595362
0.0615749
0.0632057
0.0643597
0.0649954
0.0650902
0.064637
0.0636586
0.0621929
0.0603031
0.058078
0.0555928
0.0529206
0.050148
0.047372
0.0446538
0.0420249
0.0395196
0.0371545
0.0349435
0.0329029
0.0310264
0.0292943
0.0276946
0.0262226
0.0248762
0.0236535
0.0225483
0.0215554
0.020671
0.0198841
0.0191747
0.018526
0.0179218
0.0173442
0.0167847
0.0162449
0.0157362
0.0152748
0.0148759
0.0145494
0.0142985
0.0141204
0.0140081
0.0139566
0.0157087
0.0157471
0.0158252
0.0159442
0.0161064
0.0163142
0.0165704
0.0168772
0.0172368
0.017651
0.0181219
0.0186516
0.0192426
0.019898
0.020621
0.0214145
0.0222816
0.0232255
0.0242503
0.0253621
0.0265691
0.0278823
0.029314
0.0308762
0.0325801
0.0344409
0.0364719
0.0386766
0.0410481
0.0435665
0.0462005
0.0489265
0.0516824
0.0544203
0.057051
0.059479
0.0616039
0.0633282
0.0645677
0.0652613
0.0653763
0.0649082
0.0638822
0.0623467
0.0603745
0.0580605
0.0555018
0.0527856
0.0500015
0.0472201
0.0445038
0.041883
0.039392
0.0370427
0.0348422
0.0328019
0.0309246
0.0291998
0.0276139
0.0261579
0.0248269
0.0236171
0.0225242
0.0215437
0.0206691
0.0198894
0.0191885
0.0185463
0.0179424
0.0173612
0.0167965
0.0162531
0.0157441
0.0152852
0.0148901
0.014567
0.0143176
0.0141384
0.014024
0.0139693
0.015633
0.0156706
0.0157461
0.0158613
0.0160186
0.0162206
0.01647
0.0167692
0.0171204
0.0175258
0.0179874
0.0185075
0.0190889
0.0197348
0.0204482
0.0212321
0.0220893
0.023023
0.0240372
0.0251375
0.026332
0.0276316
0.0290498
0.0306009
0.0322999
0.0341611
0.0361952
0.0384058
0.0407903
0.0433385
0.0460328
0.048823
0.051671
0.0545176
0.0572791
0.0598533
0.0621274
0.0639886
0.0653371
0.0660972
0.0662277
0.0657227
0.0646141
0.0629638
0.0608573
0.0584015
0.0557072
0.0528716
0.0499809
0.0471123
0.044318
0.0416382
0.039113
0.0367451
0.0345355
0.0324905
0.0306129
0.0288946
0.0273218
0.0258835
0.0245732
0.0233858
0.0223157
0.021356
0.0204981
0.0197298
0.0190343
0.0183928
0.0177882
0.0172084
0.016649
0.0161148
0.0156168
0.0151688
0.0147826
0.0144655
0.0142191
0.0140412
0.0139271
0.013873
0.0155471
0.0155836
0.0156554
0.0157648
0.0159143
0.0161066
0.0163446
0.0166308
0.0169678
0.0173578
0.0178032
0.0183066
0.0188706
0.0194979
0.0201913
0.0209533
0.0217869
0.0226955
0.0236839
0.024759
0.0259303
0.0272098
0.0286115
0.0301502
0.0318404
0.0336958
0.0357271
0.0379411
0.0403404
0.0429208
0.0456702
0.0485683
0.0515697
0.0546118
0.057605
0.0604335
0.0629632
0.0650554
0.0665839
0.0674525
0.0676081
0.0670428
0.0657972
0.0639516
0.0616132
0.0589129
0.0559845
0.0529397
0.0498688
0.0468546
0.0439442
0.0412047
0.0386369
0.0362461
0.0340285
0.0319827
0.0301094
0.028403
0.0268522
0.0254454
0.0241728
0.0230248
0.0219909
0.02106
0.0202214
0.0194639
0.0187746
0.0181392
0.0175442
0.0169788
0.0164384
0.0159252
0.0154474
0.015016
0.0146418
0.0143319
0.0140894
0.0139129
0.0137993
0.0137456
0.0154162
0.0154509
0.0155175
0.0156187
0.0157572
0.015936
0.0161581
0.0164264
0.0167439
0.0171132
0.0175367
0.0180172
0.018557
0.0191586
0.0198243
0.0205563
0.0213577
0.0222325
0.0231868
0.0242287
0.0253691
0.026621
0.0279984
0.0295158
0.0311874
0.0330269
0.0350474
0.0372615
0.0396802
0.0423108
0.0451533
0.0481972
0.0514089
0.0547252
0.0580473
0.0612402
0.0641392
0.066567
0.068359
0.0693882
0.0695829
0.0689319
0.0674872
0.0653573
0.0626802
0.0596211
0.0563497
0.0530039
0.0496841
0.0464818
0.0434397
0.0405828
0.0379466
0.0355224
0.0332974
0.0312614
0.0294078
0.0277293
0.0262153
0.0248531
0.023629
0.0225278
0.0215342
0.0206344
0.0198177
0.0190758
0.0183998
0.0177799
0.0172047
0.0166639
0.0161511
0.0156653
0.0152117
0.0147997
0.0144393
0.0141385
0.0139016
0.0137289
0.0136181
0.0135666
0.0152478
0.0152801
0.0153401
0.015431
0.0155557
0.0157174
0.0159194
0.0161653
0.0164582
0.0168012
0.017197
0.0176483
0.0181571
0.0187255
0.0193553
0.0200488
0.0208091
0.0216412
0.0225523
0.0235521
0.0246524
0.0258662
0.0272074
0.0286896
0.0303267
0.032134
0.0341288
0.0363317
0.0387653
0.0414514
0.0444044
0.0476301
0.0511081
0.0547791
0.0585381
0.0622276
0.0656414
0.0685457
0.0707168
0.0719814
0.0722391
0.0714708
0.0697402
0.0672011
0.064045
0.0604865
0.0567439
0.052991
0.0493417
0.0458977
0.0426894
0.0397113
0.0370018
0.0345457
0.0323221
0.0303133
0.0285036
0.0268772
0.0254189
0.0241133
0.0229436
0.0218919
0.0209403
0.0200747
0.0192858
0.0185681
0.0179167
0.0173242
0.0167801
0.0162732
0.0157944
0.0153402
0.0149138
0.0145232
0.014179
0.0138902
0.0136621
0.0134961
0.0133903
0.0133422
0.0150427
0.0150722
0.0151244
0.0152032
0.0153116
0.0154532
0.0156318
0.0158511
0.016115
0.0164267
0.0167894
0.0172056
0.017677
0.0182051
0.0187915
0.0194383
0.0201492
0.02093
0.0217889
0.0227365
0.023785
0.024947
0.0262352
0.0276626
0.0292434
0.0309958
0.0329435
0.0351168
0.0375524
0.0402886
0.043359
0.0467798
0.0505683
0.0546724
0.0589897
0.0633419
0.0674662
0.0710413
0.0737506
0.0753524
0.0757048
0.074777
0.0726406
0.0695165
0.0656878
0.0614512
0.057089
0.0528157
0.0487561
0.045019
0.0416274
0.0385445
0.035779
0.0333104
0.0311076
0.0291446
0.0273975
0.0258422
0.0244557
0.023218
0.0221095
0.0211115
0.0202064
0.0193817
0.0186304
0.0179495
0.0173359
0.0167829
0.0162798
0.0158133
0.0153727
0.0149526
0.014555
0.0141883
0.0138635
0.0135904
0.013375
0.0132191
0.0131207
0.0130769
0.0148019
0.0148281
0.0148715
0.0149367
0.015027
0.0151462
0.0152983
0.0154877
0.0157186
0.0159948
0.0163195
0.016695
0.017123
0.0176045
0.0181406
0.0187337
0.0193876
0.0201087
0.020906
0.0217902
0.0227728
0.0238654
0.0250794
0.026427
0.027924
0.0295923
0.0314631
0.0335779
0.0359872
0.0387465
0.0419096
0.0455171
0.0496451
0.0542521
0.0592632
0.0644901
0.0695936
0.0741134
0.0775807
0.0796549
0.0801489
0.0790046
0.0763009
0.0723438
0.0675671
0.0624132
0.0572587
0.0523567
0.0478288
0.0437611
0.0401896
0.0370279
0.0342453
0.0318029
0.0296549
0.0277632
0.0260961
0.0246239
0.0233192
0.0221581
0.0211194
0.0201838
0.0193352
0.0185633
0.017863
0.0172327
0.0166695
0.0161663
0.015711
0.0152892
0.0148888
0.0145042
0.0141375
0.0137977
0.0134961
0.0132431
0.0130447
0.0129022
0.0128133
0.0127745
0.0145263
0.0145488
0.0145828
0.0146335
0.0147043
0.0147992
0.0149228
0.0150797
0.0152745
0.0155114
0.0157937
0.0161238
0.016503
0.0169321
0.017412
0.0179449
0.0185348
0.0191884
0.0199143
0.0207224
0.021623
0.0226257
0.0237405
0.0249793
0.0263597
0.0279081
0.0296632
0.0316766
0.0340122
0.0367438
0.0399461
0.0436674
0.048144
0.0532908
0.0591313
0.0655001
0.0719613
0.0778222
0.0823482
0.0850746
0.0857801
0.0843521
0.0808687
0.0757347
0.0696195
0.0632135
0.057051
0.0514163
0.0464101
0.0420778
0.0383069
0.035094
0.0323431
0.0299772
0.0279296
0.0261468
0.0245868
0.0232156
0.0220052
0.020932
0.0199748
0.0191149
0.0183375
0.0176334
0.0169986
0.0164316
0.015929
0.0154826
0.0150794
0.0147045
0.0143458
0.0139983
0.0136651
0.0133556
0.0130816
0.0128532
0.0126758
0.0125496
0.0124718
0.0124382
0.0142174
0.0142359
0.01426
0.0142956
0.0143462
0.0144158
0.0145094
0.0146318
0.0147881
0.0149827
0.0152191
0.0154997
0.0158257
0.0161975
0.0166161
0.0170833
0.017603
0.0181812
0.0188255
0.0195441
0.0203449
0.0212354
0.0222238
0.0233221
0.0245496
0.0259365
0.0275269
0.0293799
0.0315709
0.0341941
0.0373685
0.0412583
0.0458317
0.0514461
0.0582078
0.0660392
0.0743882
0.0821436
0.0881238
0.0917447
0.0928093
0.0910803
0.086542
0.0797018
0.0716845
0.0635858
0.0561632
0.0497067
0.0442376
0.0396816
0.0358539
0.0326737
0.0300212
0.0277892
0.0258922
0.024262
0.0228459
0.0216051
0.0205121
0.0195457
0.0186875
0.0179203
0.0172303
0.0166089
0.0160523
0.0155586
0.0151237
0.0147385
0.0143899
0.0140634
0.0137479
0.0134397
0.013143
0.0128679
0.0126258
0.0124259
0.0122726
0.012165
0.0120992
0.0120709
0.0138764
0.0138908
0.013905
0.0139253
0.0139554
0.0139994
0.0140622
0.0141491
0.0142653
0.0144155
0.0146034
0.0148313
0.0151005
0.0154113
0.0157644
0.0161612
0.0166049
0.0171002
0.0176527
0.018268
0.018951
0.0197067
0.0205416
0.0214671
0.0225034
0.0236822
0.025049
0.0266652
0.0286104
0.0309887
0.0339394
0.0376423
0.0422833
0.0481798
0.0558319
0.0654564
0.0764227
0.0870048
0.0950001
0.0997803
0.101494
0.0995959
0.0937045
0.0842102
0.0733532
0.0630121
0.0541327
0.0468705
0.0410756
0.0364368
0.0327089
0.029703
0.0272563
0.0252357
0.0235444
0.0221093
0.0208738
0.0197965
0.01885
0.0180156
0.0172775
0.016621
0.0160335
0.0155071
0.0150381
0.0146243
0.0142613
0.0139401
0.0136479
0.0133714
0.0131012
0.0128352
0.0125784
0.0123413
0.0121346
0.0119662
0.0118391
0.0117513
0.0116982
0.0116749
0.0135052
0.0135153
0.0135197
0.0135251
0.013535
0.0135536
0.0135857
0.0136368
0.0137122
0.0138168
0.0139544
0.0141277
0.0143377
0.0145847
0.0148691
0.0151917
0.0155542
0.0159594
0.0164102
0.0169089
0.0174573
0.0180574
0.0187137
0.0194362
0.0202436
0.021165
0.0222422
0.023531
0.0251057
0.0270692
0.0295703
0.0328231
0.0371035
0.0427555
0.0508903
0.0625447
0.0776229
0.0933278
0.103798
0.109674
0.112499
0.111008
0.103457
0.0892553
0.0737812
0.060476
0.0501578
0.0424034
0.0365555
0.0321328
0.028734
0.0260848
0.0239866
0.0222872
0.0208821
0.0196999
0.0186885
0.0178105
0.0170416
0.0163654
0.0157687
0.0152392
0.0147663
0.0143435
0.0139679
0.013638
0.0133496
0.0130943
0.0128605
0.0126362
0.0124139
0.0121929
0.0119793
0.011783
0.0116141
0.011479
0.0113791
0.0113115
0.0112708
0.0112524
0.0131056
0.0131114
0.0131064
0.0130975
0.013088
0.013082
0.0130842
0.0130999
0.0131346
0.0131934
0.0132803
0.013398
0.0135476
0.0137294
0.0139429
0.0141881
0.014465
0.0147737
0.015114
0.0154848
0.0158844
0.0163117
0.0167686
0.017262
0.0178059
0.0184223
0.0191418
0.0200059
0.0210716
0.022423
0.0241945
0.0266032
0.0299583
0.0346985
0.0413737
0.0545611
0.0750799
0.0959398
0.109712
0.117304
0.122353
0.126109
0.118755
0.0948294
0.0711826
0.0542751
0.0430944
0.0355636
0.0303323
0.0266006
0.0238639
0.0218018
0.0202125
0.0189521
0.0179222
0.0170589
0.0163204
0.0156792
0.0151174
0.0146229
0.0141855
0.0137956
0.0134456
0.0131317
0.0128531
0.0126093
0.0123975
0.0122102
0.0120368
0.0118671
0.0116954
0.0115221
0.0113538
0.0112002
0.0110702
0.0109687
0.0108959
0.010848
0.0108194
0.0108055
0.0126799
0.0126814
0.0126676
0.0126453
0.0126176
0.0125883
0.0125618
0.0125434
0.0125385
0.0125524
0.0125892
0.0126516
0.0127409
0.0128569
0.0129985
0.0131642
0.0133518
0.0135589
0.0137819
0.0140162
0.0142569
0.0144996
0.0147423
0.0149868
0.0152391
0.0155089
0.0158092
0.0161575
0.0165792
0.0171151
0.0178415
0.0189131
0.0205042
0.0225562
0.0256798
0.0335072
0.0563845
0.0827351
0.102474
0.112956
0.119026
0.131605
0.135287
0.0980723
0.0609844
0.0415249
0.0315841
0.0258487
0.0222289
0.0198159
0.0181408
0.0169245
0.0160114
0.0153013
0.0147252
0.0142391
0.0138169
0.0134443
0.0131132
0.0128176
0.0125515
0.0123093
0.0120873
0.0118853
0.0117054
0.0115496
0.0114161
0.0112986
0.0111879
0.0110752
0.0109561
0.0108322
0.0107105
0.0106
0.0105085
0.0104398
0.0103929
0.0103637
0.0103464
0.0103368
0.0122307
0.0122282
0.0122062
0.0121716
0.0121271
0.0120761
0.0120227
0.0119721
0.0119295
0.0119003
0.0118887
0.0118975
0.0119277
0.0119787
0.0120483
0.0121334
0.0122297
0.0123318
0.0124333
0.0125265
0.0126032
0.0126556
0.0126767
0.012661
0.0126032
0.0124969
0.0123323
0.0120958
0.0117686
0.0113236
0.0107307
0.0100022
0.00900969
0.00634406
-0.000391599
-0.00394359
0.0255954
0.1222
0.141114
0.124599
0.120295
0.133721
0.145378
0.0797055
0.0313812
0.018024
0.0145779
0.0131213
0.0123449
0.0119222
0.0117067
0.011581
0.0114969
0.0114339
0.0113751
0.0113098
0.011235
0.011153
0.0110672
0.0109798
0.0108909
0.0107997
0.0107075
0.0106186
0.0105387
0.010472
0.0104183
0.0103724
0.0103259
0.0102715
0.0102061
0.0101322
0.0100569
0.00998868
0.00993431
0.00989657
0.00987392
0.00986181
0.00985495
0.0098494
0.0117612
0.0117547
0.0117254
0.0116797
0.01162
0.0115492
0.0114711
0.0113906
0.011313
0.0112434
0.0111863
0.0111442
0.0111177
0.0111056
0.0111045
0.0111093
0.0111136
0.0111098
0.0110889
0.0110408
0.0109542
0.0108173
0.0106174
0.0103397
0.00996589
0.00947139
0.00882192
0.00797001
0.00684789
0.00534913
0.00332196
0.000631991
-0.00318523
-0.0104738
-0.023416
-0.0316356
-0.00958398
0.272985
0.457178
0.417538
0.370152
0.281214
0.288148
0.0315509
-0.0262729
-0.017736
-0.00697577
-0.0016285
0.00138686
0.00340656
0.00490163
0.00600806
0.00683806
0.00747604
0.00796854
0.00834625
0.00863401
0.00885236
0.00901737
0.00914029
0.00922838
0.00928737
0.00932426
0.00934813
0.0093684
0.00939149
0.00941841
0.00944468
0.00946298
0.00946711
0.00945513
0.00943041
0.00940008
0.00937219
0.00935263
0.00934345
0.00934273
0.00934605
0.00934859
0.00934696
0.0112749
0.0112647
0.0112288
0.0111732
0.0110999
0.0110113
0.0109109
0.0108033
0.0106938
0.0105875
0.0104885
0.0103992
0.0103198
0.0102476
0.010178
0.0101044
0.0100184
0.00991062
0.00977027
0.00958519
0.00934151
0.00902308
0.00861046
0.00807934
0.00739817
0.00652485
0.00540234
0.00395249
0.00206304
-0.000444315
-0.00381772
-0.00829595
-0.0146999
-0.0261065
-0.0423767
-0.0480351
-0.0368854
1.15514
1.77869
2.84377
2.78359
0.64227
0.680649
-0.0326848
-0.076255
-0.0511063
-0.0278325
-0.0159488
-0.00938935
-0.00500712
-0.00181362
0.000514104
0.00224956
0.00358192
0.00461917
0.00543334
0.00607745
0.00659062
0.00700118
0.00732926
0.00758959
0.0077947
0.00795768
0.00809251
0.0082119
0.0083241
0.00843096
0.00852857
0.00861052
0.00867176
0.00871153
0.00873393
0.0087462
0.00875593
0.00876832
0.00878492
0.00880373
0.0088207
0.00883165
0.00883384
0.0107757
0.010762
0.0107203
0.010656
0.0105705
0.0104661
0.0103459
0.0102144
0.0100766
0.00993752
0.00980115
0.00966935
0.00954129
0.00941329
0.00927915
0.00913068
0.00895835
0.00875154
0.00849845
0.0081854
0.0077959
0.00730938
0.00669979
0.00593382
0.00496854
0.00374787
0.00219711
0.000214888
-0.0023441
-0.00570992
-0.0101869
-0.0160717
-0.0245197
-0.0393088
-0.0586743
-0.0652571
-0.040561
16.5962
9.40511
18.8983
16.8283
1.22295
0.810827
-0.0708329
-0.100283
-0.07214
-0.0439136
-0.0278504
-0.0188566
-0.0126066
-0.00798849
-0.00460467
-0.00206316
-0.000101329
0.00143549
0.00265328
0.0036286
0.00441669
0.00505701
0.00557788
0.00600088
0.00634496
0.00662888
0.00687097
0.00708665
0.0072854
0.00746957
0.00763577
0.00777846
0.00789388
0.00798244
0.00804894
0.00810072
0.00814489
0.00818612
0.00822564
0.00826161
0.00829053
0.00830898
0.00831489
0.0102678
0.0102508
0.010204
0.010132
0.0100359
0.00991755
0.00978003
0.00962759
0.00946527
0.00929792
0.00912911
0.00895998
0.00878862
0.00860999
0.00841648
0.00819874
0.0079465
0.00764875
0.00729321
0.00686507
0.0063453
0.00570908
0.00492444
0.00395089
0.00273762
0.00121994
-0.000686903
-0.00309702
-0.00617359
-0.0101757
-0.0154283
-0.0222382
-0.0318023
-0.0475861
-0.0668174
-0.0760087
-0.0664236
41.384
1162.61
361.104
361.014
1054.02
0.39835
-0.0925839
-0.10392
-0.0813774
-0.0538458
-0.0364914
-0.026308
-0.018865
-0.013273
-0.00910845
-0.00592661
-0.00344465
-0.0014845
8.19428e-05
0.00134732
0.0023785
0.00322371
0.00391816
0.00448943
0.00496187
0.00535892
0.00570224
0.00600904
0.00628947
0.00654612
0.00677612
0.00697499
0.00714032
0.00727373
0.00738068
0.00746845
0.00754373
0.00761071
0.00767043
0.00772135
0.00776069
0.00778582
0.00779533
0.00975563
0.00973579
0.00968436
0.00960541
0.00949988
0.00936937
0.00921685
0.00904656
0.00886351
0.0086724
0.00847629
0.00827542
0.00806663
0.00784348
0.00759714
0.00731754
0.00699422
0.00661635
0.00617167
0.00564448
0.00501332
0.00424969
0.00331709
0.00217042
0.000754947
-0.000997107
-0.00317248
-0.00588548
-0.0092966
-0.013679
-0.0193572
-0.0266043
-0.0363428
-0.051586
-0.0677915
-0.0751359
-0.0673638
56.9233
12015.7
9424.02
9453.09
11801.2
-0.0983798