/*--------------------------------*- C++ -*----------------------------------*\
| =========                 |                                                 |
| \\      /  F ield         | OpenFOAM: The Open Source CFD Toolbox           |
|  \\    /   O peration     | Version:  2412                                  |
|   \\  /    A nd           | Website:  www.openfoam.com                      |
|    \\/     M anipulation  |                                                 |
\*---------------------------------------------------------------------------*/
FoamFile
{
    version     2.0;
    format      ascii;
    arch        "LSB;label=32;scalar=64";
    class       surfaceScalarField;
    location    "9";
    object      phi;
}
// * * * * * * * * * * * * * * * * * * * * * * * * * * * * * * * * * * * * * //

dimensions      [0 3 -1 0 0 0 0];

oriented        oriented;

internalField   nonuniform List<scalar> 
12640
(
-2.30697e-05
2.30697e-05
-4.07365e-05
1.76614e-05
-5.877e-05
1.80354e-05
-7.64915e-05
1.77247e-05
-9.28083e-05
1.63194e-05
-0.000107196
1.43889e-05
-0.000119465
1.227e-05
-0.000129531
1.00662e-05
-0.000137389
7.85772e-06
-0.000143105
5.71699e-06
-0.000146674
3.57147e-06
-0.000148274
1.60049e-06
-0.00014811
-1.63529e-07
-0.000146335
-1.77353e-06
-0.000143092
-3.24232e-06
-0.000138527
-4.56428e-06
-0.00013285
-5.67747e-06
-0.000126216
-6.63725e-06
-0.00011883
-7.38616e-06
-0.000110927
-7.90336e-06
-0.000102761
-8.16924e-06
-9.45863e-05
-8.17776e-06
-8.66206e-05
-7.96732e-06
-7.90851e-05
-7.53634e-06
-7.21924e-05
-6.89345e-06
-6.59296e-05
-6.26318e-06
-6.03492e-05
-5.57994e-06
-5.52185e-05
-5.12968e-06
-5.04304e-05
-4.78686e-06
-4.58088e-05
-4.62032e-06
-4.13515e-05
-4.45605e-06
-3.7083e-05
-4.26724e-06
-3.30042e-05
-4.07756e-06
-2.88881e-05
-4.11521e-06
-2.44362e-05
-4.45104e-06
-1.96221e-05
-4.81323e-06
-1.43702e-05
-5.25087e-06
-8.73361e-06
-5.63557e-06
-2.85194e-06
-5.88068e-06
3.14123e-06
-5.99228e-06
9.05092e-06
-5.90884e-06
1.46145e-05
-5.5626e-06
1.9691e-05
-5.07551e-06
2.4078e-05
-4.38603e-06
2.77361e-05
-3.65704e-06
3.05801e-05
-2.843e-06
3.27165e-05
-2.13536e-06
3.43896e-05
-1.67225e-06
3.59903e-05
-1.59998e-06
3.77552e-05
-1.76416e-06
3.9917e-05
-2.16111e-06
4.25216e-05
-2.60387e-06
4.58382e-05
-3.31588e-06
5.00838e-05
-4.24496e-06
5.54638e-05
-5.37939e-06
6.20053e-05
-6.54122e-06
6.9644e-05
-7.63868e-06
7.81204e-05
-8.47681e-06
8.71217e-05
-9.00172e-06
9.63622e-05
-9.24094e-06
0.000105525
-9.16229e-06
0.000114323
-8.7983e-06
0.00012246
-8.13641e-06
0.000129633
-7.17321e-06
0.000135623
-5.99042e-06
0.000140195
-4.57358e-06
0.000143181
-2.9868e-06
0.000144362
-1.18044e-06
0.000143642
7.20742e-07
0.000140939
2.70421e-06
0.000136094
4.84432e-06
0.000129121
6.97293e-06
0.000119873
9.2474e-06
0.000108185
1.16888e-05
9.42053e-05
1.39807e-05
7.8073e-05
1.61334e-05
6.02883e-05
1.77857e-05
4.19673e-05
1.83211e-05
2.38378e-05
1.81284e-05
2.38382e-05
-2.50964e-05
4.81784e-05
-4.47231e-05
3.72917e-05
-6.4661e-05
3.79744e-05
-8.38124e-05
3.6878e-05
-0.000100977
3.34863e-05
-0.000115716
2.91297e-05
-0.000127783
2.43379e-05
-0.000137229
1.95135e-05
-0.000144166
1.47962e-05
-0.000148703
1.02561e-05
-0.000151125
5.99537e-06
-0.000151592
2.06925e-06
-0.000150222
-1.53364e-06
-0.000147171
-4.82466e-06
-0.000142668
-7.74739e-06
-0.000136982
-1.0252e-05
-0.00013034
-1.23192e-05
-0.000122954
-1.40251e-05
-0.000115039
-1.53052e-05
-0.000106735
-1.62096e-05
-9.81774e-05
-1.67267e-05
-8.9494e-05
-1.68607e-05
-8.07706e-05
-1.66902e-05
-7.20306e-05
-1.62755e-05
-6.33305e-05
-1.5592e-05
-5.47285e-05
-1.48633e-05
-4.63355e-05
-1.39712e-05
-3.83666e-05
-1.30971e-05
-3.09801e-05
-1.21721e-05
-2.43576e-05
-1.12414e-05
-1.84971e-05
-1.03151e-05
-1.32851e-05
-9.47785e-06
-8.72515e-06
-8.63619e-06
-4.84744e-06
-7.9915e-06
-1.72952e-06
-7.56747e-06
6.36108e-07
-7.17738e-06
2.3298e-06
-6.94318e-06
3.3597e-06
-6.66419e-06
3.87773e-06
-6.39751e-06
4.01393e-06
-6.12723e-06
3.85431e-06
-5.74787e-06
3.59301e-06
-5.29979e-06
3.34342e-06
-4.8242e-06
3.31094e-06
-4.35165e-06
3.65548e-06
-3.99958e-06
4.57966e-06
-3.76519e-06
6.16589e-06
-3.7197e-06
8.41438e-06
-3.91904e-06
1.13083e-05
-4.49235e-06
1.49203e-05
-5.37493e-06
1.93175e-05
-6.55719e-06
2.46419e-05
-7.92729e-06
3.0805e-05
-9.47813e-06
3.77405e-05
-1.118e-05
4.53265e-05
-1.29652e-05
5.35119e-05
-1.47269e-05
6.21864e-05
-1.63137e-05
7.12901e-05
-1.75812e-05
8.0728e-05
-1.844e-05
9.03646e-05
-1.88774e-05
0.000100045
-1.88423e-05
0.00010957
-1.83221e-05
0.000118694
-1.72609e-05
0.000127104
-1.55842e-05
0.000134456
-1.33437e-05
0.000140454
-1.0572e-05
0.000144776
-7.30794e-06
0.000147235
-3.63764e-06
0.00014761
3.47114e-07
0.000145865
4.44969e-06
0.000141943
8.76564e-06
0.000135566
1.33507e-05
0.000126639
1.81754e-05
0.000115118
2.32115e-05
0.000100892
2.82085e-05
8.40466e-05
3.29806e-05
6.50896e-05
3.67435e-05
4.53915e-05
3.80191e-05
2.58401e-05
3.76814e-05
4.96801e-05
-2.53574e-05
7.35377e-05
-4.52276e-05
5.7164e-05
-6.55044e-05
5.82525e-05
-8.50537e-05
5.64294e-05
-0.000102598
5.10324e-05
-0.00011755
4.40838e-05
-0.000129794
3.65833e-05
-0.0001394
2.91212e-05
-0.000146477
2.18748e-05
-0.000151156
1.49349e-05
-0.000153742
8.57933e-06
-0.000154299
2.62519e-06
-0.000153014
-2.82028e-06
-0.000150044
-7.79634e-06
-0.000145569
-1.22211e-05
-0.000139805
-1.60154e-05
-0.000132952
-1.91716e-05
-0.000125248
-2.17263e-05
-0.00011692
-2.36287e-05
-0.000108192
-2.49336e-05
-9.9234e-05
-2.56803e-05
-9.02166e-05
-2.58746e-05
-8.13018e-05
-2.56021e-05
-7.25879e-05
-2.49871e-05
-6.4118e-05
-2.40606e-05
-5.60604e-05
-2.29205e-05
-4.84173e-05
-2.16142e-05
-4.1313e-05
-2.02013e-05
-3.47752e-05
-1.87096e-05
-2.8887e-05
-1.71291e-05
-2.35287e-05
-1.56729e-05
-1.86964e-05
-1.43097e-05
-1.42559e-05
-1.30763e-05
-1.0231e-05
-1.20159e-05
-6.74586e-06
-1.10521e-05
-3.70573e-06
-1.02171e-05
-1.18183e-06
-9.46671e-06
1.00271e-06
-8.84836e-06
2.85648e-06
-8.2508e-06
4.39867e-06
-7.66877e-06
5.6776e-06
-7.02584e-06
6.72022e-06
-6.34112e-06
7.57802e-06
-5.68046e-06
8.39171e-06
-5.16372e-06
9.2314e-06
-4.83773e-06
1.03694e-05
-4.90184e-06
1.18592e-05
-5.20823e-06
1.37202e-05
-5.77908e-06
1.59657e-05
-6.73711e-06
1.87349e-05
-8.1435e-06
2.21577e-05
-9.9794e-06
2.65025e-05
-1.22717e-05
3.18087e-05
-1.4784e-05
3.80872e-05
-1.74582e-05
4.53121e-05
-2.019e-05
5.33802e-05
-2.27951e-05
6.22103e-05
-2.5144e-05
7.16923e-05
-2.70634e-05
8.16634e-05
-2.84111e-05
9.19377e-05
-2.91512e-05
0.000102287
-2.91906e-05
0.000112416
-2.84504e-05
0.00012197
-2.68145e-05
0.000130647
-2.42605e-05
0.000138112
-2.08084e-05
0.000144059
-1.65179e-05
0.000148235
-1.14817e-05
0.000150491
-5.8911e-06
0.000150738
1.00924e-07
0.000148796
6.39127e-06
0.00014466
1.29026e-05
0.000138147
1.98646e-05
0.000129191
2.71336e-05
0.000117717
3.46868e-05
0.000103305
4.26212e-05
8.61504e-05
5.01352e-05
6.68237e-05
5.60696e-05
4.67309e-05
5.81121e-05
2.66282e-05
5.77872e-05
7.63075e-05
-2.6924e-05
0.000100461
-4.80038e-05
7.82445e-05
-6.93324e-05
7.9583e-05
-9.00852e-05
7.71851e-05
-0.000108602
6.9552e-05
-0.000124149
5.96314e-05
-0.000136676
4.91103e-05
-0.000146197
3.86426e-05
-0.000152969
2.86463e-05
-0.000157389
1.93548e-05
-0.000159512
1.07001e-05
-0.000159622
2.73234e-06
-0.000157817
-4.62361e-06
-0.000154316
-1.12987e-05
-0.000149314
-1.722e-05
-0.000143038
-2.22897e-05
-0.000135663
-2.65461e-05
-0.000127436
-2.99513e-05
-0.000118605
-3.2458e-05
-0.000109388
-3.41508e-05
-9.99997e-05
-3.50696e-05
-9.06242e-05
-3.52499e-05
-8.14235e-05
-3.48021e-05
-7.25659e-05
-3.3844e-05
-6.41236e-05
-3.25022e-05
-5.62029e-05
-3.08402e-05
-4.88457e-05
-2.897e-05
-4.21212e-05
-2.69244e-05
-3.59963e-05
-2.48332e-05
-3.04034e-05
-2.27207e-05
-2.53443e-05
-2.07306e-05
-2.08832e-05
-1.87695e-05
-1.68731e-05
-1.70852e-05
-1.32496e-05
-1.56385e-05
-9.93249e-06
-1.43686e-05
-6.8233e-06
-1.33257e-05
-3.78904e-06
-1.25004e-05
-8.85616e-07
-1.17513e-05
2.00933e-06
-1.11453e-05
4.78613e-06
-1.04452e-05
7.34167e-06
-9.58108e-06
9.53266e-06
-8.5319e-06
1.13232e-05
-7.47077e-06
1.27105e-05
-6.55078e-06
1.38138e-05
-5.94069e-06
1.4689e-05
-5.7766e-06
1.5624e-05
-6.14263e-06
1.67583e-05
-6.91273e-06
1.82883e-05
-8.26655e-06
2.0351e-05
-1.02057e-05
2.30727e-05
-1.27007e-05
2.66664e-05
-1.58652e-05
3.13269e-05
-1.94443e-05
3.70947e-05
-2.32259e-05
4.40073e-05
-2.71026e-05
5.20186e-05
-3.08065e-05
6.10388e-05
-3.41644e-05
7.09175e-05
-3.69422e-05
8.14567e-05
-3.89501e-05
9.24218e-05
-4.01159e-05
0.000103518
-4.02866e-05
0.000114389
-3.93202e-05
0.000124677
-3.7102e-05
0.000134035
-3.36188e-05
0.000142145
-2.89173e-05
0.000148726
-2.30988e-05
0.00015352
-1.62744e-05
0.000156278
-8.64993e-06
0.000156848
-4.69141e-07
0.00015518
8.05864e-06
0.000151205
1.68792e-05
0.00014501
2.60613e-05
0.000136362
3.57828e-05
0.000124827
4.62222e-05
0.000110118
5.73311e-05
9.21186e-05
6.81356e-05
7.16563e-05
7.65333e-05
5.02711e-05
7.94996e-05
2.86543e-05
7.94055e-05
0.000104961
-2.95139e-05
0.000129973
-5.24275e-05
0.000101159
-7.55238e-05
0.000102682
-9.80817e-05
9.9745e-05
-0.000117886
8.9357e-05
-0.000134223
7.59686e-05
-0.000146831
6.17173e-05
-0.000156003
4.78155e-05
-0.000162272
3.49152e-05
-0.000165974
2.30567e-05
-0.000167449
1.21766e-05
-0.000166824
2.10734e-06
-0.000164324
-7.12248e-06
-0.00016007
-1.55562e-05
-0.000154255
-2.3035e-05
-0.000147114
-2.9431e-05
-0.000138885
-3.47791e-05
-0.000129787
-3.9054e-05
-0.000120126
-4.21243e-05
-0.00011014
-4.41398e-05
-0.000100059
-4.5152e-05
-9.00887e-05
-4.52211e-05
-8.03873e-05
-4.4503e-05
-7.1098e-05
-4.31322e-05
-6.23586e-05
-4.12399e-05
-5.41669e-05
-3.90295e-05
-4.6669e-05
-3.6465e-05
-3.98317e-05
-3.37585e-05
-3.36733e-05
-3.09885e-05
-2.81193e-05
-2.82721e-05
-2.32602e-05
-2.55877e-05
-1.89423e-05
-2.30858e-05
-1.52097e-05
-2.08164e-05
-1.19879e-05
-1.8859e-05
-9.01108e-06
-1.73443e-05
-6.16935e-06
-1.61665e-05
-3.37155e-06
-1.52974e-05
-4.30008e-07
-1.46921e-05
2.55414e-06
-1.41287e-05
5.53404e-06
-1.34244e-05
8.32071e-06
-1.2367e-05
1.06571e-05
-1.08676e-05
1.24324e-05
-9.24543e-06
1.35854e-05
-7.70339e-06
1.42514e-05
-6.60646e-06
1.46441e-05
-6.16923e-06
1.49279e-05
-6.42645e-06
1.54399e-05
-7.42484e-06
1.63079e-05
-9.13477e-06
1.77614e-05
-1.16595e-05
1.99908e-05
-1.49305e-05
2.32112e-05
-1.90859e-05
2.757e-05
-2.38033e-05
3.32638e-05
-2.89196e-05
4.02696e-05
-3.41083e-05
4.85506e-05
-3.90873e-05
5.80483e-05
-4.3662e-05
6.86009e-05
-4.7495e-05
8.00376e-05
-5.0387e-05
9.20405e-05
-5.21189e-05
0.000104267
-5.25131e-05
0.000116338
-5.13909e-05
0.00012785
-4.86148e-05
0.000138421
-4.41888e-05
0.000147676
-3.8173e-05
0.000155248
-3.06711e-05
0.000160847
-2.18742e-05
0.000164211
-1.20143e-05
0.000165291
-1.54961e-06
0.000163999
9.35169e-06
0.000160401
2.04802e-05
0.000154669
3.17944e-05
0.000146526
4.39247e-05
0.000135277
5.74713e-05
0.000120184
7.24249e-05
0.000101249
8.70732e-05
7.89833e-05
9.88017e-05
5.55696e-05
0.000102916
3.17257e-05
0.000103249
0.00013669
-3.26495e-05
0.000162623
-5.82142e-05
0.000126726
-8.37863e-05
0.000128256
-0.000108805
0.000124763
-0.000130456
0.000111007
-0.000147696
9.32079e-05
-0.000160249
7.42714e-05
-0.000168698
5.62666e-05
-0.000173973
4.01935e-05
-0.00017677
2.58547e-05
-0.000177348
1.27536e-05
-0.00017595
7.09704e-07
-0.000172581
-1.04902e-05
-0.000167336
-2.08028e-05
-0.000160483
-2.98916e-05
-0.000152233
-3.76847e-05
-0.000142844
-4.41697e-05
-0.000132585
-4.93128e-05
-0.0001218
-5.29073e-05
-0.000110761
-5.51762e-05
-9.97403e-05
-5.61703e-05
-8.89428e-05
-5.60169e-05
-7.85481e-05
-5.48962e-05
-6.87107e-05
-5.2968e-05
-5.95305e-05
-5.04187e-05
-5.1106e-05
-4.74529e-05
-4.33991e-05
-4.41715e-05
-3.64062e-05
-4.07512e-05
-3.02634e-05
-3.71311e-05
-2.48239e-05
-3.37111e-05
-2.01417e-05
-3.0269e-05
-1.60926e-05
-2.7134e-05
-1.26329e-05
-2.42755e-05
-9.64697e-06
-2.18445e-05
-7.04958e-06
-1.99414e-05
-4.5798e-06
-1.86359e-05
-2.03426e-06
-1.78426e-05
6.32193e-07
-1.73582e-05
3.57492e-06
-1.70711e-05
6.57288e-06
-1.64221e-05
9.41625e-06
-1.52104e-05
1.16615e-05
-1.31129e-05
1.31413e-05
-1.07254e-05
1.39067e-05
-8.46887e-06
1.40091e-05
-6.70895e-06
1.36991e-05
-5.85923e-06
1.32006e-05
-5.92795e-06
1.29057e-05
-7.13001e-06
1.29391e-05
-9.16841e-06
1.36221e-05
-1.23429e-05
1.5263e-05
-1.65718e-05
1.7981e-05
-2.18042e-05
2.19979e-05
-2.78204e-05
2.75245e-05
-3.44461e-05
3.4663e-05
-4.12463e-05
4.33966e-05
-4.78203e-05
5.35896e-05
-5.38543e-05
6.5143e-05
-5.90481e-05
7.77865e-05
-6.30304e-05
9.11911e-05
-6.55233e-05
0.000104966
-6.62878e-05
0.000118664
-6.50876e-05
0.000131849
-6.17986e-05
0.000144044
-5.63833e-05
0.00015478
-4.89083e-05
0.000163634
-3.95247e-05
0.000170277
-2.85169e-05
0.000174415
-1.61523e-05
0.000175934
-3.06784e-06
0.000174971
1.03165e-05
0.000171855
2.35969e-05
0.000166766
3.68825e-05
0.000159671
5.1018e-05
0.000149137
6.80053e-05
0.000134076
8.74856e-05
0.000113754
0.000107397
8.89771e-05
0.000123578
6.27001e-05
0.000129193
3.56729e-05
0.000130276
0.000172363
-3.62626e-05
0.000198887
-6.51858e-05
0.000155651
-9.42661e-05
0.000157337
-0.000122943
0.00015344
-0.000147096
0.000135158
-0.000165305
0.000111418
-0.000177489
8.64581e-05
-0.000184535
6.33143e-05
-0.000188269
4.39295e-05
-0.000189795
2.73829e-05
-0.000189352
1.23093e-05
-0.000186932
-1.70874e-06
-0.000182443
-1.4982e-05
-0.000176116
-2.71269e-05
-0.000168013
-3.79896e-05
-0.000158367
-4.73239e-05
-0.000147548
-5.49823e-05
-0.000135877
-6.09775e-05
-0.000123654
-6.51256e-05
-0.000111261
-6.75671e-05
-9.90421e-05
-6.83891e-05
-8.72333e-05
-6.78258e-05
-7.60394e-05
-6.60909e-05
-6.55711e-05
-6.34375e-05
-5.59656e-05
-6.00254e-05
-4.71968e-05
-5.62227e-05
-3.93237e-05
-5.20454e-05
-3.23057e-05
-4.77698e-05
-2.60631e-05
-4.33742e-05
-2.07501e-05
-3.90244e-05
-1.61475e-05
-3.48714e-05
-1.23829e-05
-3.0898e-05
-9.39948e-06
-2.72582e-05
-6.97982e-06
-2.42637e-05
-4.90289e-06
-2.20179e-05
-2.95066e-06
-2.05877e-05
-8.32436e-07
-1.99603e-05
1.69217e-06
-1.98822e-05
4.69115e-06
-2.00695e-05
7.88272e-06
-1.96133e-05
1.0971e-05
-1.82985e-05
1.3312e-05
-1.54541e-05
1.46014e-05
-1.20153e-05
1.48032e-05
-8.67132e-06
1.41057e-05
-6.01211e-06
1.28251e-05
-4.57925e-06
1.12821e-05
-4.3854e-06
9.87489e-06
-5.72316e-06
8.85252e-06
-8.14636e-06
8.56436e-06
-1.20551e-05
9.29628e-06
-1.73041e-05
1.12688e-05
-2.37769e-05
1.48614e-05
-3.14128e-05
2.01703e-05
-3.97543e-05
2.7408e-05
-4.84828e-05
3.66673e-05
-5.70783e-05
4.77156e-05
-6.49015e-05
6.04539e-05
-7.17856e-05
7.46019e-05
-7.71778e-05
8.97967e-05
-8.07175e-05
0.000105554
-8.20443e-05
0.000121362
-8.08937e-05
0.000136694
-7.71286e-05
0.000150963
-7.0651e-05
0.000163604
-6.15485e-05
0.000174066
-4.9987e-05
0.000181941
-3.63926e-05
0.00018703
-2.12408e-05
0.000189041
-5.07738e-06
0.00018817
1.11885e-05
0.000185202
2.65629e-05
0.000181229
4.08535e-05
0.000175861
5.63842e-05
0.000167322
7.65452e-05
0.000152616
0.000102192
0.000130517
0.000129496
0.000102073
0.00015202
7.17454e-05
0.000159517
4.05968e-05
0.000161426
0.000212956
-4.06614e-05
0.000239549
-7.38002e-05
0.000188791
-0.000107107
0.000190645
-0.000141008
0.000187341
-0.000168872
0.000163023
-0.000188486
0.000131035
-0.000199345
9.73188e-05
-0.00020375
6.77203e-05
-0.000205004
4.51818e-05
-0.000204911
2.72909e-05
-0.000203272
1.067e-05
-0.000199858
-5.11433e-06
-0.00019433
-2.05068e-05
-0.000186643
-3.48084e-05
-0.000177011
-4.76168e-05
-0.000165751
-5.85839e-05
-0.000153098
-6.76368e-05
-0.000139588
-7.44893e-05
-0.000125587
-7.91274e-05
-0.00011153
-8.16255e-05
-9.78334e-05
-8.20853e-05
-8.47845e-05
-8.08741e-05
-7.26195e-05
-7.82555e-05
-6.14709e-05
-7.45862e-05
-5.13113e-05
-7.01857e-05
-4.22488e-05
-6.5286e-05
-3.42259e-05
-6.00686e-05
-2.71224e-05
-5.48728e-05
-2.0878e-05
-4.96174e-05
-1.56202e-05
-4.42808e-05
-1.13313e-05
-3.9159e-05
-8.00586e-06
-3.42224e-05
-5.55221e-06
-2.97108e-05
-3.8416e-06
-2.5973e-05
-2.53794e-06
-2.332e-05
-1.32419e-06
-2.17998e-05
2.45062e-07
-2.1528e-05
2.65744e-06
-2.22933e-05
5.84583e-06
-2.3257e-05
9.48754e-06
-2.32544e-05
1.30934e-05
-2.19041e-05
1.56823e-05
-1.8043e-05
1.68288e-05
-1.3162e-05
1.63203e-05
-8.16322e-06
1.45591e-05
-4.25133e-06
1.19615e-05
-1.98206e-06
9.1173e-06
-1.54152e-06
6.23858e-06
-2.84468e-06
3.88156e-06
-5.78951e-06
2.34667e-06
-1.05204e-05
1.93573e-06
-1.68934e-05
3.03984e-06
-2.48811e-05
5.86025e-06
-3.42329e-05
1.08009e-05
-4.46943e-05
1.81675e-05
-5.58484e-05
2.78872e-05
-6.67971e-05
4.00353e-05
-7.70491e-05
5.42567e-05
-8.60072e-05
7.02759e-05
-9.31976e-05
8.76611e-05
-9.81032e-05
0.000105911
-0.000100294
0.000124402
-9.93844e-05
0.000142459
-9.51851e-05
0.000159362
-8.75541e-05
0.000174394
-7.65822e-05
0.000186981
-6.25754e-05
0.000196597
-4.60091e-05
0.000202626
-2.72689e-05
0.000204734
-7.18414e-06
0.000203551
1.23708e-05
0.000200612
2.95009e-05
0.000197813
4.36524e-05
0.000195545
5.86536e-05
0.000190534
8.15563e-05
0.000176932
0.000115794
0.00015243
0.000153995
0.000119099
0.000185352
8.40568e-05
0.00019456
4.72946e-05
0.000198189
0.000260253
-4.66636e-05
0.000286214
-8.75256e-05
0.000229655
-0.000125237
0.000228356
-0.000164278
0.000226384
-0.000197309
0.000196056
-0.000218235
0.000151962
-0.000226021
0.000105106
-0.000225498
6.71965e-05
-0.000223397
4.30814e-05
-0.0002216
2.54977e-05
-0.000218989
8.05869e-06
-0.000214525
-9.57513e-06
-0.000207685
-2.7349e-05
-0.0001985
-4.39979e-05
-0.000187126
-5.89961e-05
-0.000173969
-7.17449e-05
-0.000159177
-8.24317e-05
-0.000143494
-9.0173e-05
-0.000127345
-9.52761e-05
-0.00011129
-9.76793e-05
-9.58188e-05
-9.75551e-05
-8.13099e-05
-9.53831e-05
-6.79907e-05
-9.15754e-05
-5.60171e-05
-8.65606e-05
-4.54011e-05
-8.08021e-05
-3.60757e-05
-7.46115e-05
-2.78491e-05
-6.82953e-05
-2.06432e-05
-6.2079e-05
-1.44415e-05
-5.58195e-05
-9.23331e-06
-4.94893e-05
-5.21235e-06
-4.31802e-05
-2.44238e-06
-3.69924e-05
-7.39857e-07
-3.14132e-05
1.26735e-08
-2.67252e-05
2.30105e-07
-2.35368e-05
4.78654e-07
-2.20475e-05
1.27652e-06
-2.2325e-05
3.03415e-06
-2.40499e-05
6.29837e-06
-2.65202e-05
1.14003e-05
-2.83555e-05
1.65833e-05
-2.70863e-05
1.9685e-05
-2.11443e-05
2.01467e-05
-1.36236e-05
1.85945e-05
-6.61113e-06
1.54358e-05
-1.09294e-06
1.11745e-05
2.279e-06
6.55859e-06
3.07427e-06
1.92346e-06
1.79039e-06
-2.04625e-06
-1.81989e-06
-5.19082e-06
-7.37596e-06
-7.10265e-06
-1.49818e-05
-7.32808e-06
-2.4656e-05
-5.24544e-06
-3.63158e-05
-6.39596e-07
-4.93001e-05
6.57439e-06
-6.30624e-05
1.67768e-05
-7.69997e-05
3.01079e-05
-9.0381e-05
4.61188e-05
-0.00010202
6.44044e-05
-0.000111485
8.45461e-05
-0.000118247
0.000105867
-0.000121616
0.000127673
-0.000121192
0.000149123
-0.000116635
0.000169311
-0.000107744
0.000187397
-9.46688e-05
0.000202621
-7.77999e-05
0.000214248
-5.7636e-05
0.000221254
-3.42752e-05
0.000223432
-9.36221e-06
0.000220858
1.49428e-05
0.000216075
3.4282e-05
0.000213721
4.60081e-05
0.000217335
5.5041e-05
0.000221419
7.74718e-05
0.000211276
0.000125936
0.000183812
0.000181457
0.000145398
0.000223767
0.000104579
0.000235379
5.73665e-05
0.000245397
0.000317617
-5.19861e-05
0.000338203
-0.000108757
0.000286428
-0.000154973
0.000274573
-0.000198492
0.000269903
-0.000237403
0.000234969
-0.000259743
0.000174304
-0.000259997
0.000105362
-0.00024712
5.43192e-05
-0.000238887
3.48489e-05
-0.000237669
2.4277e-05
-0.00023613
6.51991e-06
-0.000231104
-1.46059e-05
-0.000222866
-3.55873e-05
-0.000211913
-5.49503e-05
-0.000198534
-7.23737e-05
-0.000182839
-8.74391e-05
-0.000165494
-9.97744e-05
-0.000147063
-0.000108602
-0.000128283
-0.000114054
-0.00010979
-0.000116171
-9.2221e-05
-0.000115124
-7.60245e-05
-0.000111579
-6.15216e-05
-0.000106078
-4.87132e-05
-9.93697e-05
-3.76715e-05
-9.18449e-05
-2.81753e-05
-8.41091e-05
-1.98771e-05
-7.65952e-05
-1.26063e-05
-6.93515e-05
-6.3093e-06
-6.21182e-05
-1.21532e-06
-5.45848e-05
2.51189e-06
-4.69083e-05
4.81851e-06
-3.92991e-05
5.66123e-06
-3.22552e-05
5.3206e-06
-2.63834e-05
4.07904e-06
-2.2294e-05
2.26215e-06
-2.02293e-05
4.89717e-07
-2.05513e-05
3.7728e-07
-2.39364e-05
4.36986e-06
-3.05118e-05
1.34436e-05
-3.74285e-05
2.30012e-05
-3.66434e-05
2.75684e-05
-2.57113e-05
2.66235e-05
-1.26788e-05
2.22261e-05
-2.21403e-06
1.63347e-05
4.79823e-06
1.0058e-05
8.55566e-06
3.32818e-06
9.80417e-06
-3.14979e-06
8.26861e-06
-9.36847e-06
4.39898e-06
-1.49155e-05
-1.82895e-06
-1.88615e-05
-1.10362e-05
-2.06711e-05
-2.2847e-05
-1.99831e-05
-3.70043e-05
-1.60251e-05
-5.32586e-05
-8.36209e-06
-7.07257e-05
2.78146e-06
-8.81438e-05
1.71143e-05
-0.000104715
3.51309e-05
-0.000120037
5.6157e-05
-0.000132512
7.9589e-05
-0.00014168
0.000104712
-0.00014674
0.000130608
-0.000147088
0.000156287
-0.000142315
0.000180658
-0.000132116
0.000202655
-0.000116666
0.000221301
-9.64451e-05
0.000235704
-7.20393e-05
0.000244463
-4.30347e-05
0.000245713
-1.0613e-05
0.000236648
2.40067e-05
0.000222164
4.87662e-05
0.000216887
5.12853e-05
0.000235606
3.63201e-05
0.000263185
4.98886e-05
0.000266057
0.000123061
0.00023567
0.000211845
0.00018979
0.000269646
0.000137252
0.000287916
7.11611e-05
0.000311489
0.000388777
-5.11572e-05
0.000389361
-0.000129107
0.000364377
-0.000197374
0.00034284
-0.000250914
0.000323445
-0.000301503
0.00028556
-0.00032791
0.000200713
-0.000316085
9.35381e-05
-0.000279745
1.7977e-05
-0.000252537
7.64343e-06
-0.00024866
2.03987e-05
-0.000253402
1.12687e-05
-0.000252271
-1.57337e-05
-0.000243642
-4.42107e-05
-0.000230569
-6.80179e-05
-0.000214151
-8.8788e-05
-0.0001947
-0.000106886
-0.000173108
-0.000121364
-0.000150506
-0.000131203
-0.00012799
-0.000136569
-0.000106468
-0.000137693
-8.63131e-05
-0.000135278
-6.82086e-05
-0.000129685
-5.2282e-05
-0.000122006
-3.88496e-05
-0.000112803
-2.76726e-05
-0.000103023
-1.81871e-05
-9.35959e-05
-9.96547e-06
-8.48182e-05
-2.76464e-06
-7.65536e-05
3.57583e-06
-6.84596e-05
9.00305e-06
-6.00124e-05
1.28154e-05
-5.07207e-05
1.48331e-05
-4.13168e-05
1.47211e-05
-3.21432e-05
1.25576e-05
-2.422e-05
8.08909e-06
-1.78252e-05
1.59372e-06
-1.37336e-05
-4.76513e-06
-1.41918e-05
-6.37367e-06
-2.23269e-05
4.86982e-07
-3.73713e-05
1.5796e-05
-5.27364e-05
3.22915e-05
-5.31379e-05
4.0965e-05
-3.43841e-05
3.89659e-05
-1.06795e-05
2.98545e-05
6.89728e-06
1.88691e-05
1.57836e-05
8.32098e-06
1.91038e-05
-1.23176e-06
1.93571e-05
-1.03324e-05
1.73695e-05
-1.88512e-05
1.29178e-05
-2.65719e-05
5.89156e-06
-3.32981e-05
-4.31053e-06
-3.77076e-05
-1.84383e-05
-3.89006e-05
-3.58121e-05
-3.58849e-05
-5.62748e-05
-2.84003e-05
-7.82106e-05
-1.62911e-05
-0.000100253
3.14165e-07
-0.000121321
2.02731e-05
-0.000139997
4.4564e-05
-0.000156804
7.19862e-05
-0.000169102
0.000101895
-0.000176648
0.000133282
-0.000178475
0.000164898
-0.000173931
0.000195358
-0.000162575
0.000223065
-0.000144372
0.000246716
-0.000120096
0.000265333
-9.06558e-05
0.000275761
-5.34645e-05
0.000271587
-6.44134e-06
0.000248682
4.69117e-05
0.000221331
7.61182e-05
0.000221735
5.08814e-05
0.000258918
-8.64776e-07
0.000312117
-3.30988e-06
0.000340804
9.4374e-05
0.000315037
0.000237614
0.000254747
0.000329934
0.000174498
0.000368162
8.17502e-05
0.000404237
0.00047053
-3.53391e-05
0.000424699
-0.000124149
0.000453185
-0.000236768
0.000455459
-0.00032152
0.0004082
-0.000396456
0.000360497
-0.000439681
0.000243936
-0.000427
8.08577e-05
-0.000372762
-3.62612e-05
-0.000313281
-5.18313e-05
-0.000279423
-1.34543e-05
-0.000274697
6.54462e-06
-0.000277638
-1.27903e-05
-0.00027283
-4.90177e-05
-0.000259238
-8.16104e-05
-0.000239572
-0.000108454
-0.000215032
-0.000131426
-0.000186858
-0.000149539
-0.000157485
-0.000160577
-0.000129351
-0.000164703
-0.000103306
-0.000163739
-8.00293e-05
-0.000158555
-5.93611e-05
-0.000150353
-4.1725e-05
-0.000139642
-2.73632e-05
-0.000127165
-1.62176e-05
-0.000114169
-7.56794e-06
-0.000102246
-3.95242e-07
-9.19913e-05
6.82374e-06
-8.37729e-05
1.40861e-05
-7.57222e-05
2.05811e-05
-6.65075e-05
2.54109e-05
-5.55505e-05
2.74975e-05
-4.34031e-05
2.62954e-05
-3.09409e-05
2.09088e-05
-1.88331e-05
1.12233e-05
-8.13936e-06
-6.6326e-07
-1.84647e-06
-9.13395e-06
-5.72041e-06
-8.04144e-06
-2.34186e-05
3.21902e-06
-4.8631e-05
2.11486e-05
-7.06654e-05
4.02022e-05
-7.2191e-05
5.34075e-05
-4.75893e-05
5.37449e-05
-1.10169e-05
4.20157e-05
1.86263e-05
2.44092e-05
3.339e-05
7.36014e-06
3.61528e-05
-7.05643e-06
3.37738e-05
-1.93554e-05
2.96685e-05
-3.06432e-05
2.42055e-05
-4.1179e-05
1.64266e-05
-5.03742e-05
4.88354e-06
-5.79145e-05
-1.08993e-05
-6.14849e-05
-3.22431e-05
-6.00687e-05
-5.76924e-05
-5.28885e-05
-8.53919e-05
-3.95599e-05
-0.000113583
-2.08012e-05
-0.00014008
3.44689e-06
-0.000164246
3.13187e-05
-0.000184676
6.3666e-05
-0.000201449
9.99551e-05
-0.000212937
0.000139262
-0.000217782
0.000179738
-0.000214407
0.000218944
-0.00020178
0.000254311
-0.000179738
0.00028415
-0.000149934
0.000306466
-0.000112972
0.000316787
-6.37865e-05
0.000310861
-5.1486e-07
0.000296445
6.1329e-05
0.000299198
7.33665e-05
0.000330219
1.98588e-05
0.000370519
-4.11672e-05
0.000405124
-3.7913e-05
0.000427401
7.20986e-05
0.000402595
0.000262417
0.000318421
0.000414107
0.000190797
0.000495786
7.28601e-05
0.000522172
0.000543389
1.4475e-05
0.000410222
-6.46565e-05
0.000532316
-0.000236977
0.000627781
-0.00038522
0.000556443
-0.000502921
0.000478195
-0.000584876
0.00032589
-0.000608932
0.000104914
-0.000579562
-6.56296e-05
-0.000503433
-0.000127964
-0.000407428
-0.000109456
-0.000334876
-6.60101e-05
-0.000301151
-4.65174e-05
-0.000289962
-6.02084e-05
-0.000280119
-9.14551e-05
-0.000263378
-0.000125196
-0.000238473
-0.000156332
-0.000206492
-0.000181522
-0.000170827
-0.000196242
-0.000135852
-0.000199677
-0.000104579
-0.000195011
-7.71095e-05
-0.000186023
-5.30638e-05
-0.000174397
-3.29377e-05
-0.000159766
-1.72167e-05
-0.000142884
-6.65427e-06
-0.00012473
1.94091e-07
-0.000109093
6.64518e-06
-9.84408e-05
1.40644e-05
-9.11907e-05
2.27739e-05
-8.44306e-05
3.13101e-05
-7.50428e-05
3.81436e-05
-6.23833e-05
4.13002e-05
-4.65594e-05
3.9021e-05
-2.86616e-05
3.04732e-05
-1.02851e-05
1.75332e-05
4.80091e-06
5.77525e-06
9.91185e-06
2.51041e-06
-2.45514e-06
8.70087e-06
-2.96086e-05
1.86858e-05
-5.86156e-05
3.03622e-05
-8.23415e-05
4.30074e-05
-8.48362e-05
5.41679e-05
-5.87499e-05
5.78317e-05
-1.46809e-05
4.83292e-05
2.81285e-05
2.87983e-05
5.29206e-05
6.5025e-06
5.84483e-05
-1.32017e-05
5.34777e-05
-2.94293e-05
4.58956e-05
-4.3133e-05
3.79083e-05
-5.5751e-05
2.90436e-05
-6.75604e-05
1.66914e-05
-7.7787e-05
-6.7444e-07
-8.46296e-05
-2.54023e-05
-8.57772e-05
-5.65463e-05
-7.91223e-05
-9.20479e-05
-6.40796e-05
-0.000128626
-4.12918e-05
-0.000162868
-1.28089e-05
-0.000192728
2.04586e-05
-0.000217943
5.90636e-05
-0.000240054
0.000102736
-0.00025661
0.000151051
-0.000266096
0.000200682
-0.000264037
0.000247056
-0.000248153
0.000286971
-0.000219651
0.000319375
-0.000182337
0.000344276
-0.000137872
0.000366495
-8.60052e-05
0.00039767
-3.16869e-05
0.000457364
1.63667e-06
0.000545152
-1.44209e-05
0.000625099
-6.00886e-05
0.000654777
-7.08431e-05
0.000621236
-4.36824e-06
0.000560834
0.000132502
0.00048161
0.000341637
0.000345495
0.000550225
0.000160787
0.000680497
3.66265e-05
0.000646337
0.000580012
7.08991e-05
0.000339321
3.53707e-05
0.000567847
-0.000175988
0.000839139
-0.000397282
0.000777734
-0.000574897
0.000655808
-0.000717211
0.000468203
-0.000812351
0.000200051
-0.000841765
-3.62156e-05
-0.000788524
-0.000181206
-0.000662965
-0.000235014
-0.000505775
-0.0002232
-0.000370374
-0.000181918
-0.00028946
-0.000141122
-0.000257807
-0.000123108
-0.000246632
-0.000136371
-0.000233528
-0.000169435
-0.000209634
-0.000205416
-0.000176047
-0.000229829
-0.00013858
-0.000237144
-0.000102036
-0.000231554
-6.87705e-05
-0.000219287
-4.06952e-05
-0.000202471
-1.83185e-05
-0.000182142
-2.63875e-06
-0.000158563
7.45851e-06
-0.000134826
1.43986e-05
-0.000116032
2.26318e-05
-0.000106673
3.42744e-05
-0.000102833
4.64658e-05
-9.66219e-05
5.61824e-05
-8.47594e-05
6.18394e-05
-6.80402e-05
6.23241e-05
-4.70441e-05
5.7664e-05
-2.40013e-05
4.876e-05
-1.3809e-06
3.88969e-05
1.46641e-05
3.38264e-05
1.49827e-05
3.58571e-05
-4.48577e-06
3.88016e-05
-3.2553e-05
3.86032e-05
-5.84172e-05
4.11029e-05
-8.48413e-05
4.24361e-05
-8.61695e-05
4.12036e-05
-5.75176e-05
3.9942e-05
-1.34197e-05
3.24521e-05
3.5618e-05
1.57582e-05
6.96141e-05
-5.28262e-06
7.94887e-05
-2.49401e-05
7.31347e-05
-4.13768e-05
6.23318e-05
-5.60618e-05
5.25927e-05
-7.08617e-05
4.38428e-05
-8.69409e-05
3.27699e-05
-0.000102627
1.50114e-05
-0.000116215
-1.18157e-05
-0.00012161
-5.11516e-05
-0.000115797
-9.78607e-05
-9.82247e-05
-0.000146197
-7.11484e-05
-0.000189943
-3.69721e-05
-0.000226903
3.4844e-06
-0.000258399
4.84992e-05
-0.000285068
9.959e-05
-0.0003077
0.00015322
-0.000319726
0.000204299
-0.000315115
0.000247557
-0.00029141
0.000281472
-0.000253565
0.000311583
-0.000212447
0.000353937
-0.000180226
0.000433046
-0.000165112
0.000567804
-0.000166444
0.000747009
-0.000177568
0.000922452
-0.000189866
0.00102633
-0.000163961
0.00102345
-6.79615e-05
0.000916521
0.000102556
0.000744268
0.000304753
0.000554817
0.00053109
0.000337847
0.000767196
0.000110888
0.000907453
8.37019e-06
0.000748854
0.000588385
7.45063e-05
0.000264815
6.77408e-05
0.000574614
-0.000119479
0.00102636
-0.000364649
0.0010229
-0.000581256
0.000872413
-0.000766134
0.000653078
-0.000918121
0.000352043
-0.000996873
4.25361e-05
-0.00099166
-0.000186417
-0.000901984
-0.000324693
-0.000747107
-0.000378076
-0.000554367
-0.000374658
-0.00037293
-0.000322559
-0.000252071
-0.000243965
-0.000199069
-0.000189372
-0.000182402
-0.000186101
-0.000169864
-0.000217952
-0.000146352
-0.000253341
-0.000111923
-0.000271573
-7.05533e-05
-0.000272925
-3.00547e-05
-0.000259787
3.60532e-06
-0.000236132
2.68882e-05
-0.000205425
4.04665e-05
-0.000172141
4.70935e-05
-0.000141452
5.31964e-05
-0.000122134
6.5995e-05
-0.000119471
8.50812e-05
-0.000121918
0.000103764
-0.000115303
0.000117341
-9.83358e-05
0.000121536
-7.22338e-05
0.000114973
-4.04812e-05
0.000103008
-1.20356e-05
9.18259e-05
9.80196e-06
8.51525e-05
2.13377e-05
8.33475e-05
1.67876e-05
8.03739e-05
-1.51239e-06
7.0402e-05
-2.25814e-05
6.0736e-05
-4.87515e-05
5.87431e-05
-8.28487e-05
4.96163e-05
-7.70429e-05
2.64877e-05
-3.43893e-05
3.50967e-06
9.55813e-06
-1.36144e-05
5.27418e-05
-3.09245e-05
8.69238e-05
-4.70067e-05
9.55704e-05
-5.93474e-05
8.54749e-05
-7.07891e-05
7.37733e-05
-8.62636e-05
6.80673e-05
-0.000107429
6.5008e-05
-0.000134124
5.94653e-05
-0.000163444
4.43314e-05