/*--------------------------------*- C++ -*----------------------------------*\
| =========                 |                                                 |
| \\      /  F ield         | OpenFOAM: The Open Source CFD Toolbox           |
|  \\    /   O peration     | Version:  2412                                  |
|   \\  /    A nd           | Website:  www.openfoam.com                      |
|    \\/     M anipulation  |                                                 |
\*---------------------------------------------------------------------------*/
FoamFile
{
    version     2.0;
    format      ascii;
    arch        "LSB;label=32;scalar=64";
    class       volScalarField;
    location    "0.3";
    object      p;
}
// * * * * * * * * * * * * * * * * * * * * * * * * * * * * * * * * * * * * * //

dimensions      [1 -1 -2 0 0 0 0];

internalField   nonuniform List<scalar> 
6400
(
7537.99
7537.99
7537.99
7537.99
7538
7538
7538
7538.01
7538.02
7538.02
7538.03
7538.04
7538.05
7538.06
7538.07
7538.08
7538.09
7538.1
7538.11
7538.12
7538.14
7538.15
7538.16
7538.17
7538.18
7538.2
7538.21
7538.22
7538.23
7538.24
7538.25
7538.26
7538.26
7538.27
7538.28
7538.28
7538.29
7538.29
7538.29
7538.29
7538.29
7538.29
7538.28
7538.28
7538.28
7538.27
7538.26
7538.25
7538.24
7538.23
7538.22
7538.21
7538.2
7538.19
7538.18
7538.16
7538.15
7538.14
7538.12
7538.11
7538.1
7538.09
7538.07
7538.06
7538.05
7538.04
7538.03
7538.02
7538.01
7538
7537.99
7537.98
7537.97
7537.97
7537.96
7537.96
7537.96
7537.95
7537.95
7537.95
7150.98
7150.98
7150.99
7150.99
7150.99
7150.99
7151
7151.01
7151.01
7151.02
7151.03
7151.03
7151.04
7151.05
7151.06
7151.07
7151.08
7151.1
7151.11
7151.12
7151.13
7151.14
7151.16
7151.17
7151.18
7151.19
7151.2
7151.21
7151.23
7151.24
7151.24
7151.25
7151.26
7151.27
7151.27
7151.28
7151.28
7151.28
7151.29
7151.29
7151.29
7151.28
7151.28
7151.28
7151.27
7151.27
7151.26
7151.25
7151.24
7151.23
7151.22
7151.21
7151.2
7151.19
7151.17
7151.16
7151.15
7151.13
7151.12
7151.11
7151.09
7151.08
7151.07
7151.06
7151.04
7151.03
7151.02
7151.01
7151
7150.99
7150.98
7150.98
7150.97
7150.96
7150.96
7150.95
7150.95
7150.95
7150.95
7150.95
6763.98
6763.98
6763.98
6763.98
6763.98
6763.99
6763.99
6764
6764.01
6764.01
6764.02
6764.03
6764.04
6764.05
6764.06
6764.07
6764.08
6764.09
6764.1
6764.11
6764.13
6764.14
6764.15
6764.16
6764.18
6764.19
6764.2
6764.21
6764.22
6764.23
6764.24
6764.25
6764.26
6764.26
6764.27
6764.28
6764.28
6764.28
6764.28
6764.28
6764.28
6764.28
6764.28
6764.27
6764.27
6764.26
6764.26
6764.25
6764.24
6764.23
6764.22
6764.21
6764.19
6764.18
6764.17
6764.16
6764.14
6764.13
6764.12
6764.1
6764.09
6764.08
6764.06
6764.05
6764.04
6764.03
6764.02
6764.01
6764
6763.99
6763.98
6763.97
6763.96
6763.96
6763.95
6763.95
6763.94
6763.94
6763.94
6763.94
6376.97
6376.97
6376.97
6376.97
6376.98
6376.98
6376.99
6376.99
6377
6377.01
6377.01
6377.02
6377.03
6377.04
6377.05
6377.06
6377.07
6377.09
6377.1
6377.11
6377.12
6377.14
6377.15
6377.16
6377.17
6377.18
6377.2
6377.21
6377.22
6377.23
6377.24
6377.25
6377.26
6377.26
6377.27
6377.27
6377.28
6377.28
6377.28
6377.28
6377.28
6377.28
6377.28
6377.27
6377.27
6377.26
6377.25
6377.24
6377.24
6377.23
6377.21
6377.2
6377.19
6377.18
6377.16
6377.15
6377.14
6377.12
6377.11
6377.1
6377.08
6377.07
6377.06
6377.04
6377.03
6377.02
6377.01
6377
6376.99
6376.98
6376.97
6376.96
6376.96
6376.95
6376.95
6376.94
6376.94
6376.93
6376.93
6376.93
5989.96
5989.96
5989.96
5989.97
5989.97
5989.97
5989.98
5989.99
5989.99
5990
5990.01
5990.02
5990.02
5990.03
5990.05
5990.06
5990.07
5990.08
5990.09
5990.1
5990.12
5990.13
5990.14
5990.16
5990.17
5990.18
5990.19
5990.21
5990.22
5990.23
5990.24
5990.25
5990.26
5990.26
5990.27
5990.27
5990.28
5990.28
5990.28
5990.28
5990.28
5990.28
5990.28
5990.27
5990.27
5990.26
5990.25
5990.24
5990.23
5990.22
5990.21
5990.2
5990.19
5990.17
5990.16
5990.15
5990.13
5990.12
5990.11
5990.09
5990.08
5990.06
5990.05
5990.04
5990.03
5990.01
5990
5989.99
5989.98
5989.97
5989.96
5989.96
5989.95
5989.94
5989.94
5989.93
5989.93
5989.93
5989.93
5989.92
5602.95
5602.95
5602.96
5602.96
5602.96
5602.97
5602.97
5602.98
5602.98
5602.99
5603
5603.01
5603.02
5603.03
5603.04
5603.05
5603.06
5603.07
5603.09
5603.1
5603.11
5603.13
5603.14
5603.15
5603.17
5603.18
5603.19
5603.2
5603.22
5603.23
5603.24
5603.25
5603.26
5603.26
5603.27
5603.28
5603.28
5603.28
5603.28
5603.29
5603.28
5603.28
5603.28
5603.27
5603.27
5603.26
5603.25
5603.24
5603.23
5603.22
5603.21
5603.2
5603.19
5603.17
5603.16
5603.14
5603.13
5603.12
5603.1
5603.09
5603.07
5603.06
5603.04
5603.03
5603.02
5603.01
5603
5602.98
5602.97
5602.96
5602.96
5602.95
5602.94
5602.93
5602.93
5602.92
5602.92
5602.92
5602.92
5602.92
5215.94
5215.94
5215.95
5215.95
5215.95
5215.96
5215.96
5215.97
5215.97
5215.98
5215.99
5216
5216.01
5216.02
5216.03
5216.04
5216.06
5216.07
5216.08
5216.09
5216.11
5216.12
5216.14
5216.15
5216.16
5216.18
5216.19
5216.2
5216.21
5216.23
5216.24
5216.25
5216.26
5216.26
5216.27
5216.28
5216.28
5216.29
5216.29
5216.29
5216.29
5216.29
5216.28
5216.28
5216.27
5216.26
5216.25
5216.24
5216.23
5216.22
5216.21
5216.2
5216.18
5216.17
5216.16
5216.14
5216.13
5216.11
5216.1
5216.08
5216.07
5216.05
5216.04
5216.02
5216.01
5216
5215.99
5215.98
5215.97
5215.96
5215.95
5215.94
5215.93
5215.92
5215.92
5215.91
5215.91
5215.91
5215.91
5215.91
4828.93
4828.93
4828.94
4828.94
4828.94
4828.95
4828.95
4828.96
4828.96
4828.97
4828.98
4828.99
4829
4829.01
4829.02
4829.04
4829.05
4829.06
4829.07
4829.09
4829.1
4829.12
4829.13
4829.15
4829.16
4829.17
4829.19
4829.2
4829.21
4829.23
4829.24
4829.25
4829.26
4829.27
4829.27
4829.28
4829.29
4829.29
4829.29
4829.29
4829.29
4829.29
4829.29
4829.28
4829.27
4829.27
4829.26
4829.25
4829.24
4829.22
4829.21
4829.2
4829.18
4829.17
4829.15
4829.14
4829.12
4829.11
4829.09
4829.08
4829.06
4829.04
4829.03
4829.02
4829
4828.99
4828.98
4828.97
4828.96
4828.95
4828.94
4828.93
4828.92
4828.91
4828.91
4828.9
4828.9
4828.9
4828.9
4828.89
4441.92
4441.92
4441.92
4441.93
4441.93
4441.94
4441.94
4441.95
4441.95
4441.96
4441.97
4441.98
4441.99
4442
4442.01
4442.03
4442.04
4442.05
4442.07
4442.08
4442.1
4442.11
4442.13
4442.14
4442.16
4442.17
4442.19
4442.2
4442.21
4442.23
4442.24
4442.25
4442.26
4442.27
4442.28
4442.29
4442.29
4442.29
4442.3
4442.3
4442.3
4442.29
4442.29
4442.29
4442.28
4442.27
4442.26
4442.25
4442.24
4442.23
4442.21
4442.2
4442.18
4442.17
4442.15
4442.13
4442.12
4442.1
4442.09
4442.07
4442.05
4442.04
4442.02
4442.01
4441.99
4441.98
4441.97
4441.96
4441.95
4441.94
4441.93
4441.92
4441.91
4441.9
4441.9
4441.89
4441.89
4441.89
4441.88
4441.88
4054.91
4054.91
4054.91
4054.92
4054.92
4054.92
4054.93
4054.94
4054.94
4054.95
4054.96
4054.97
4054.98
4054.99
4055.01
4055.02
4055.03
4055.05
4055.06
4055.08
4055.09
4055.11
4055.12
4055.14
4055.16
4055.17
4055.19
4055.2
4055.22
4055.23
4055.24
4055.26
4055.27
4055.28
4055.29
4055.29
4055.3
4055.3
4055.3
4055.31
4055.3
4055.3
4055.3
4055.29
4055.28
4055.28
4055.27
4055.25
4055.24
4055.23
4055.21
4055.2
4055.18
4055.16
4055.15
4055.13
4055.11
4055.1
4055.08
4055.06
4055.05
4055.03
4055.01
4055
4054.98
4054.97
4054.96
4054.95
4054.93
4054.92
4054.91
4054.91
4054.9
4054.89
4054.88
4054.88
4054.88
4054.87
4054.87
4054.87
3667.9
3667.9
3667.9
3667.9
3667.91
3667.91
3667.92
3667.92
3667.93
3667.94
3667.95
3667.96
3667.97
3667.98
3668
3668.01
3668.02
3668.04
3668.05
3668.07
3668.09
3668.1
3668.12
3668.14
3668.15
3668.17
3668.19
3668.2
3668.22
3668.23
3668.25
3668.26
3668.27
3668.28
3668.29
3668.3
3668.31
3668.31
3668.31
3668.31
3668.31
3668.31
3668.31
3668.3
3668.29
3668.28
3668.27
3668.26
3668.25
3668.23
3668.22
3668.2
3668.18
3668.16
3668.15
3668.13
3668.11
3668.09
3668.07
3668.06
3668.04
3668.02
3668.01
3667.99
3667.97
3667.96
3667.95
3667.93
3667.92
3667.91
3667.9
3667.89
3667.88
3667.88
3667.87
3667.87
3667.86
3667.86
3667.86
3667.86
3280.88
3280.88
3280.89
3280.89
3280.89
3280.9
3280.9
3280.91
3280.92
3280.93
3280.94
3280.95
3280.96
3280.97
3280.98
3281
3281.01
3281.03
3281.05
3281.06
3281.08
3281.1
3281.11
3281.13
3281.15
3281.17
3281.19
3281.2
3281.22
3281.24
3281.25
3281.27
3281.28
3281.29
3281.3
3281.31
3281.32
3281.32
3281.32
3281.33
3281.32
3281.32
3281.32
3281.31
3281.3
3281.29
3281.28
3281.27
3281.25
3281.24
3281.22
3281.2
3281.18
3281.16
3281.14
3281.13
3281.11
3281.09
3281.07
3281.05
3281.03
3281.01
3281
3280.98
3280.96
3280.95
3280.93
3280.92
3280.91
3280.9
3280.89
3280.88
3280.87
3280.86
3280.86
3280.85
3280.85
3280.84
3280.84
3280.84
2893.87
2893.87
2893.87
2893.87
2893.88
2893.88
2893.89
2893.9
2893.9
2893.91
2893.92
2893.93
2893.95
2893.96
2893.97
2893.99
2894
2894.02
2894.04
2894.05
2894.07
2894.09
2894.11
2894.13
2894.15
2894.17
2894.19
2894.21
2894.22
2894.24
2894.26
2894.27
2894.29
2894.3
2894.31
2894.32
2894.33
2894.33
2894.34
2894.34
2894.34
2894.33
2894.33
2894.32
2894.31
2894.3
2894.29
2894.27
2894.26
2894.24
2894.22
2894.2
2894.18
2894.16
2894.14
2894.12
2894.1
2894.08
2894.06
2894.04
2894.02
2894
2893.99
2893.97
2893.95
2893.94
2893.92
2893.91
2893.9
2893.88
2893.87
2893.86
2893.86
2893.85
2893.84
2893.84
2893.83
2893.83
2893.83
2893.83
2506.85
2506.85
2506.85
2506.86
2506.86
2506.87
2506.87
2506.88
2506.89
2506.9
2506.91
2506.92
2506.93
2506.95
2506.96
2506.98
2506.99
2507.01
2507.03
2507.05
2507.07
2507.09
2507.11
2507.13
2507.15
2507.17
2507.19
2507.21
2507.23
2507.25
2507.27
2507.28
2507.3
2507.31
2507.32
2507.33
2507.34
2507.35
2507.35
2507.35
2507.35
2507.35
2507.34
2507.34
2507.33
2507.31
2507.3
2507.28
2507.27
2507.25
2507.23
2507.21
2507.19
2507.16
2507.14
2507.12
2507.1
2507.08
2507.05
2507.03
2507.01
2506.99
2506.97
2506.96
2506.94
2506.92
2506.91
2506.89
2506.88
2506.87
2506.86
2506.85
2506.84
2506.83
2506.82
2506.82
2506.81
2506.81
2506.81
2506.81
2119.83
2119.83
2119.84
2119.84
2119.84
2119.85
2119.86
2119.86
2119.87
2119.88
2119.89
2119.91
2119.92
2119.93
2119.95
2119.96
2119.98
2120
2120.02
2120.04
2120.06
2120.08
2120.1
2120.12
2120.15
2120.17
2120.19
2120.21
2120.23
2120.25
2120.27
2120.29
2120.31
2120.32
2120.34
2120.35
2120.36
2120.37
2120.37
2120.37
2120.37
2120.37
2120.36
2120.35
2120.34
2120.33
2120.31
2120.29
2120.28
2120.25
2120.23
2120.21
2120.19
2120.16
2120.14
2120.12
2120.09
2120.07
2120.05
2120.02
2120
2119.98
2119.96
2119.94
2119.93
2119.91
2119.89
2119.88
2119.87
2119.85
2119.84
2119.83
2119.82
2119.81
2119.81
2119.8
2119.8
2119.79
2119.79
2119.79
1732.81
1732.82
1732.82
1732.82
1732.83
1732.83
1732.84
1732.85
1732.86
1732.87
1732.88
1732.89
1732.9
1732.92
1732.93
1732.95
1732.97
1732.99
1733.01
1733.03
1733.05
1733.07
1733.1
1733.12
1733.14
1733.17
1733.19
1733.22
1733.24
1733.26
1733.28
1733.3
1733.32
1733.34
1733.36
1733.37
1733.38
1733.39
1733.39
1733.39
1733.39
1733.39
1733.38
1733.37
1733.36
1733.34
1733.33
1733.31
1733.29
1733.26
1733.24
1733.21
1733.19
1733.16
1733.14
1733.11
1733.09
1733.06
1733.04
1733.02
1732.99
1732.97
1732.95
1732.93
1732.91
1732.89
1732.88
1732.86
1732.85
1732.84
1732.82
1732.81
1732.8
1732.8
1732.79
1732.78
1732.78
1732.77
1732.77
1732.77
1345.79
1345.8
1345.8
1345.8
1345.81
1345.81
1345.82
1345.83
1345.84
1345.85
1345.86
1345.87
1345.89
1345.9
1345.92
1345.94
1345.96
1345.98
1346
1346.02
1346.04
1346.07
1346.09
1346.12
1346.14
1346.17
1346.19
1346.22
1346.24
1346.27
1346.29
1346.32
1346.34
1346.36
1346.37
1346.39
1346.4
1346.41
1346.41
1346.42
1346.42
1346.41
1346.4
1346.39
1346.38
1346.36
1346.34
1346.32
1346.3
1346.27
1346.25
1346.22
1346.19
1346.17
1346.14
1346.11
1346.08
1346.06
1346.03
1346.01
1345.98
1345.96
1345.94
1345.92
1345.9
1345.88
1345.86
1345.84
1345.83
1345.82
1345.8
1345.79
1345.78
1345.78
1345.77
1345.76
1345.76
1345.75
1345.75
1345.75
958.774
958.775
958.777
958.781
958.786
958.792
958.799
958.808
958.818
958.829
958.841
958.854
958.869
958.885
958.903
958.921
958.941
958.962
958.985
959.008
959.033
959.058
959.085
959.112
959.139
959.167
959.196
959.224
959.252
959.28
959.306
959.331
959.355
959.377
959.396
959.412
959.426
959.435
959.442
959.445
959.443
959.438
959.43
959.417
959.402
959.383
959.362
959.338
959.312
959.284
959.256
959.226
959.196
959.166
959.136
959.106
959.077
959.049
959.021
958.995
958.969
958.945
958.921
958.9
958.879
958.86
958.842
958.826
958.811
958.797
958.785
958.773
958.763
958.755
958.747
958.741
958.736
958.732
958.73
958.728
571.751
571.753
571.756
571.76
571.765
571.771
571.778
571.787
571.797
571.808
571.821
571.835
571.85
571.867
571.885
571.905
571.925
571.948
571.971
571.996
572.023
572.05
572.078
572.107
572.137
572.167
572.198
572.229
572.26
572.29
572.32
572.348
572.374
572.398
572.42
572.438
572.454
572.465
572.472
572.475
572.474
572.469
572.459
572.445
572.427
572.406
572.383
572.356
572.327
572.297
572.265
572.233
572.2
572.167
572.134
572.102
572.071
572.041
572.011
571.983
571.955
571.93
571.905
571.882
571.861
571.841
571.823
571.806
571.79
571.776
571.763
571.752
571.742
571.733
571.725
571.719
571.714
571.71
571.707
571.705
184.722
184.724
184.727
184.731
184.736
184.743
184.75
184.759
184.77
184.781
184.795
184.809
184.825
184.843
184.862
184.882
184.904
184.928
184.953
184.98
185.009
185.039
185.071
185.106
185.142
185.179
185.217
185.255
185.294
185.332
185.369
185.404
185.438
185.469
185.497
185.521
185.54
185.555
185.565
185.569
185.568
185.561
185.548
185.531
185.509
185.482
185.452
185.419
185.383
185.345
185.305
185.265
185.225
185.184
185.145
185.106
185.068
185.032
184.998
184.967
184.938
184.91
184.884
184.86
184.837
184.816
184.797
184.779
184.763
184.748
184.735
184.723
184.713
184.703
184.696
184.689
184.684
184.68
184.677
184.675
-9.05796
-9.05633
-9.05343
-9.04912
-9.04343
-9.03638
-9.02792
-9.01798
-9.00655
-8.99361
-8.97914
-8.9631
-8.94545
-8.92617
-8.90523
-8.88261
-8.85829
-8.83225
-8.80449
-8.775
-8.74381
-8.71084
-8.6754
-8.63733
-8.59768
-8.55695
-8.51547
-8.47358
-8.43169
-8.39028
-8.34988
-8.31107
-8.27447
-8.24072
-8.21046
-8.18431
-8.16287
-8.14664
-8.13603
-8.13134
-8.13271
-8.14012
-8.15342
-8.17231
-8.19637
-8.2251
-8.2579
-8.29412
-8.33312
-8.37425
-8.41687
-8.46041
-8.50432
-8.54813
-8.59143
-8.63383
-8.67502
-8.71451
-8.7513
-8.78542
-8.81758
-8.84785
-8.87629
-8.90293
-8.92768
-8.95068
-8.972
-8.99156
-9.0094
-9.02561
-9.04026
-9.05335
-9.06489
-9.07493
-9.08342
-9.09048
-9.09612
-9.10044
-9.10346
-9.1051
-9.57912
-9.57754
-9.57459
-9.57004
-9.56393
-9.55627
-9.54704
-9.53621
-9.52377
-9.50968
-9.49392
-9.47644
-9.45721
-9.43621
-9.41341
-9.38879
-9.36233
-9.33404
-9.30391
-9.27197
-9.23828
-9.20289
-9.16592
-9.12757
-9.08802
-9.04747
-9.00619
-8.96453
-8.92289
-8.88175
-8.84163
-8.8031
-8.76677
-8.73328
-8.70326
-8.67734
-8.65608
-8.64
-8.62951
-8.62488
-8.62624
-8.6336
-8.64679
-8.66554
-8.68942
-8.71793
-8.75048
-8.78645
-8.82516
-8.866
-8.90834
-8.9516
-8.99525
-9.03882
-9.0819
-9.12412
-9.16521
-9.20496
-9.24316
-9.27962
-9.31427
-9.34703
-9.37786
-9.40679
-9.43377
-9.45879
-9.48196
-9.50329
-9.52277
-9.54044
-9.55637
-9.5706
-9.58315
-9.59405
-9.60333
-9.61103
-9.61716
-9.62173
-9.62477
-9.62629
-10.0715
-10.0699
-10.0669
-10.0624
-10.0563
-10.0487
-10.0395
-10.0287
-10.0163
-10.0022
-9.98646
-9.96901
-9.9498
-9.92882
-9.90603
-9.88141
-9.85494
-9.82661
-9.79643
-9.76441
-9.7306
-9.69506
-9.65793
-9.61935
-9.57949
-9.53857
-9.49688
-9.45475
-9.4126
-9.37088
-9.33014
-9.29095
-9.25394
-9.21977
-9.18909
-9.16257
-9.1408
-9.12432
-9.11355
-9.10878
-9.11015
-9.11765
-9.13115
-9.15033
-9.17475
-9.20389
-9.23711
-9.27376
-9.31317
-9.35466
-9.39761
-9.44144
-9.48561
-9.52964
-9.57311
-9.61569
-9.65706
-9.69703
-9.7354
-9.77202
-9.80678
-9.83962
-9.87051
-9.89945
-9.92646
-9.9515
-9.97463
-9.99592
-10.0154
-10.033
-10.0489
-10.0631
-10.0756
-10.0865
-10.0958
-10.1034
-10.1095
-10.1141
-10.1171
-10.1187
-10.5651
-10.5636
-10.5606
-10.5561
-10.55
-10.5424
-10.5333
-10.5225
-10.5102
-10.4962
-10.4805
-10.4631
-10.444
-10.4231
-10.4003
-10.3757
-10.3492
-10.3209
-10.2906
-10.2585
-10.2245
-10.1887
-10.1513
-10.1123
-10.0719
-10.0304
-9.98797
-9.94503
-9.90194
-9.85917
-9.81728
-9.77686
-9.73857
-9.70311
-9.6712
-9.64353
-9.62076
-9.60347
-9.59213
-9.58708
-9.58846
-9.59628
-9.61038
-9.63042
-9.6559
-9.68623
-9.72073
-9.7587
-9.79939
-9.84212
-9.88622
-9.93109
-9.97617
-10.021
-10.0652
-10.1083
-10.1502
-10.1905
-10.2292
-10.2661
-10.301
-10.334
-10.3649
-10.3939
-10.4209
-10.4459
-10.469
-10.4902
-10.5096
-10.5272
-10.543
-10.5571
-10.5696
-10.5804
-10.5896
-10.5972
-10.6033
-10.6078
-10.6109
-10.6124
-11.0603
-11.0588
-11.0558
-11.0514
-11.0454
-11.0378
-11.0288
-11.0181
-11.0058
-10.9919
-10.9763
-10.959
-10.94
-10.9191
-10.8964
-10.8718
-10.8454
-10.8169
-10.7866
-10.7543
-10.72
-10.6839
-10.646
-10.6064
-10.5653
-10.5229
-10.4795
-10.4353
-10.3908
-10.3465
-10.3028
-10.2606
-10.2203
-10.1829
-10.1491
-10.1197
-10.0953
-10.0768
-10.0646
-10.0591
-10.0605
-10.0688
-10.0838
-10.1052
-10.1323
-10.1645
-10.201
-10.2409
-10.2836
-10.3282
-10.374
-10.4205
-10.4669
-10.5129
-10.5581
-10.6021
-10.6446
-10.6856
-10.7247
-10.7619
-10.7971
-10.8302
-10.8613
-10.8903
-10.9173
-10.9422
-10.9653
-10.9864
-11.0057
-11.0231
-11.0388
-11.0528
-11.0652
-11.0759
-11.0851
-11.0926
-11.0986
-11.1031
-11.1061
-11.1076
-11.557
-11.5556
-11.5526
-11.5482
-11.5423
-11.5348
-11.5258
-11.5153
-11.5032
-11.4894
-11.4739
-11.4567
-11.4378
-11.4171
-11.3944
-11.3699
-11.3434
-11.315
-11.2845
-11.252
-11.2174
-11.1809
-11.1423
-11.102
-11.0599
-11.0164
-10.9715
-10.9257
-10.8794
-10.8329
-10.787
-10.7422
-10.6993
-10.6592
-10.6227
-10.5908
-10.5643
-10.544
-10.5305
-10.5244
-10.5258
-10.5348
-10.5512
-10.5744
-10.6038
-10.6385
-10.6778
-10.7205
-10.7659
-10.8131
-10.8613
-10.9098
-10.9581
-11.0057
-11.0522
-11.0972
-11.1407
-11.1823
-11.222
-11.2596
-11.2951
-11.3285
-11.3596
-11.3886
-11.4156
-11.4405
-11.4634
-11.4844
-11.5036
-11.5209
-11.5364
-11.5503
-11.5625
-11.5731
-11.5821
-11.5896
-11.5956
-11.6
-11.6029
-11.6044
-12.0553
-12.0538
-12.0509
-12.0466
-12.0407
-12.0334
-12.0245
-12.0141
-12.0021
-11.9885
-11.9732
-11.9562
-11.9375
-11.9168
-11.8943
-11.8699
-11.8434
-11.8149
-11.7843
-11.7516
-11.7167
-11.6796
-11.6404
-11.5991
-11.5559
-11.511
-11.4644
-11.4166
-11.3679
-11.3188
-11.2699
-11.2218
-11.1755
-11.1319
-11.0919
-11.0566
-11.0271
-11.0044
-10.9893
-10.9823
-10.9837
-10.9937
-11.0118
-11.0375
-11.07
-11.1082
-11.1511
-11.1975
-11.2465
-11.297
-11.3482
-11.3994
-11.45
-11.4996
-11.5477
-11.594
-11.6385
-11.6809
-11.7213
-11.7593
-11.7951
-11.8287
-11.86
-11.889
-11.9159
-11.9407
-11.9635
-11.9843
-12.0033
-12.0204
-12.0358
-12.0495
-12.0615
-12.0719
-12.0808
-12.0882
-12.094
-12.0984
-12.1013
-12.1027
-12.555
-12.5536
-12.5507
-12.5464
-12.5407
-12.5335
-12.5248
-12.5146
-12.5028
-12.4894
-12.4743
-12.4575
-12.439
-12.4185
-12.3962
-12.3719
-12.3455
-12.317
-12.2862
-12.2533
-12.218
-12.1804
-12.1404
-12.0981
-12.0536
-12.007
-11.9585
-11.9083
-11.8568
-11.8045
-11.7519
-11.6998
-11.6491
-11.6009
-11.5564
-11.5168
-11.4834
-11.4575
-11.44
-11.4318
-11.4333
-11.4445
-11.465
-11.494
-11.5305
-11.5733
-11.6209
-11.672
-11.7255
-11.7802
-11.8352
-11.8897
-11.9431
-11.9949
-12.0448
-12.0927
-12.1384
-12.1817
-12.2227
-12.2613
-12.2974
-12.3311
-12.3625
-12.3915
-12.4183
-12.443
-12.4655
-12.4861
-12.5048
-12.5217
-12.5368
-12.5503
-12.5621
-12.5723
-12.5811
-12.5883
-12.594
-12.5983
-12.6011
-12.6025
-13.0562
-13.0548
-13.052
-13.0478
-13.0422
-13.0352
-13.0267
-13.0167
-13.0051
-12.9919
-12.9771
-12.9606
-12.9423
-12.9221
-12.9
-12.8759
-12.8496
-12.8211
-12.7903
-12.7572
-12.7215
-12.6833
-12.6426
-12.5992
-12.5533
-12.5049
-12.4541
-12.4012
-12.3465
-12.2903
-12.2333
-12.1763
-12.1203
-12.0664
-12.0161
-11.9709
-11.9324
-11.9023
-11.8817
-11.8719
-11.8734
-11.8862
-11.9098
-11.9432
-11.985
-12.0335
-12.0871
-12.1441
-12.2032
-12.263
-12.3225
-12.3809
-12.4376
-12.4922
-12.5443
-12.5938
-12.6407
-12.685
-12.7266
-12.7656
-12.802
-12.8358
-12.8672
-12.8962
-12.9228
-12.9472
-12.9695
-12.9898
-13.0082
-13.0248
-13.0396
-13.0528
-13.0643
-13.0744
-13.0829
-13.0899
-13.0955
-13.0996
-13.1024
-13.1038
-13.5588
-13.5574
-13.5547
-13.5506
-13.5452
-13.5384
-13.5301
-13.5203
-13.509
-13.4962
-13.4817
-13.4655
-13.4475
-13.4276
-13.4058
-13.3819
-13.3559
-13.3275
-13.2967
-13.2634
-13.2275
-13.1887
-13.1472
-13.1027
-13.0554
-13.005
-12.9519
-12.896
-12.8375
-12.777
-12.7148
-12.652
-12.5894
-12.5285
-12.4709
-12.4185
-12.3734
-12.3376
-12.313
-12.3011
-12.3025
-12.3174
-12.3451
-12.3842
-12.4328
-12.4887
-12.5498
-12.6141
-12.68
-12.7459
-12.8108
-12.8738
-12.9343
-12.9919
-13.0463
-13.0977
-13.1458
-13.1909
-13.2331
-13.2725
-13.3091
-13.3429
-13.3742
-13.403
-13.4294
-13.4535
-13.4755
-13.4954
-13.5134
-13.5296
-13.5441
-13.5569
-13.5682
-13.5779
-13.5862
-13.593
-13.5984
-13.6025
-13.6051
-13.6065
-14.0627
-14.0614
-14.0588
-14.0549
-14.0496
-14.043
-14.035
-14.0255
-14.0145
-14.002
-13.9879
-13.9721
-13.9545
-13.9351
-13.9137
-13.8901
-13.8643
-13.8362
-13.8055
-13.7722
-13.736
-13.6969
-13.6546
-13.6091
-13.5603
-13.5081
-13.4524
-13.3932
-13.3307
-13.2652
-13.1972
-13.1274
-13.0569
-12.9873
-12.9206
-12.859
-12.8053
-12.7621
-12.7321
-12.7172
-12.7187
-12.7365
-12.7696
-12.8162
-12.8736
-12.9389
-13.0095
-13.0828
-13.1568
-13.2299
-13.3009
-13.369
-13.4336
-13.4945
-13.5515
-13.6047
-13.6541
-13.7
-13.7426
-13.7822
-13.8188
-13.8525
-13.8836
-13.9121
-13.9381
-13.9618
-13.9834
-14.0028
-14.0204
-14.0362
-14.0502
-14.0627
-14.0736
-14.083
-14.091
-14.0976
-14.1028
-14.1067
-14.1093
-14.1106
-14.5681
-14.5668
-14.5643
-14.5605
-14.5555
-14.5491
-14.5413
-14.5322
-14.5216
-14.5095
-14.4959
-14.4805
-14.4634
-14.4445
-14.4235
-14.4004
-14.3751
-14.3473
-14.3168
-14.2836
-14.2474
-14.208
-14.1652
-14.1188
-14.0686
-14.0145
-13.9562
-13.8938
-13.827
-13.7561
-13.6814
-13.6035
-13.5237
-13.4436
-13.3654
-13.2921
-13.2271
-13.1742
-13.1368
-13.118
-13.1194
-13.1411
-13.1816
-13.2382
-13.3071
-13.3845
-13.4669
-13.5511
-13.6347
-13.7161
-13.7939
-13.8675
-13.9366
-14.0008
-14.0604
-14.1154
-14.166
-14.2126
-14.2555
-14.295
-14.3314
-14.3648
-14.3955
-14.4235
-14.4491
-14.4723
-14.4932
-14.5122
-14.5292
-14.5444
-14.558
-14.57
-14.5805
-14.5896
-14.5972
-14.6035
-14.6085
-14.6123
-14.6148
-14.616
-15.0747
-15.0735
-15.0711
-15.0675
-15.0626
-15.0565
-15.0491
-15.0404
-15.0302
-15.0186
-15.0055
-14.9907
-14.9742
-14.9558
-14.9354
-14.9129
-14.8881
-14.8608
-14.8308
-14.7979
-14.7618
-14.7224
-14.6793
-14.6323
-14.581
-14.5252
-14.4646
-14.3988
-14.3276
-14.2509
-14.1689
-14.0819
-13.9912
-13.8983
-13.806
-13.7177
-13.638
-13.5718
-13.5244
-13.5001
-13.5013
-13.5284
-13.5791
-13.6491
-13.7333
-13.8262
-13.9232
-14.0205
-14.1155
-14.2062
-14.2915
-14.3709
-14.4444
-14.512
-14.574
-14.6305
-14.6821
-14.729
-14.7718
-14.8111
-14.847
-14.8799
-14.91
-14.9374
-14.9623
-14.9848
-15.0051
-15.0234
-15.0397
-15.0544
-15.0674
-15.0789
-15.0889
-15.0975
-15.1048
-15.1108
-15.1156
-15.1192
-15.1216
-15.1227
-15.5826
-15.5814
-15.5792
-15.5757
-15.5711
-15.5653
-15.5583
-15.55
-15.5403
-15.5293
-15.5167
-15.5025
-15.4867
-15.469
-15.4494
-15.4276
-15.4035
-15.3769
-15.3475
-15.3152
-15.2795
-15.2404
-15.1973
-15.15
-15.098
-15.041
-14.9783
-14.9095
-14.834
-14.7514
-14.6615
-14.5645
-14.4612
-14.3532
-14.2435
-14.1361
-14.0368
-13.9526
-13.891
-13.8588
-13.8597
-13.8943
-13.9592
-14.0477
-14.1521
-14.2649
-14.3801
-14.4932
-14.6012
-14.7022
-14.7955
-14.8807
-14.9583
-15.0289
-15.0928
-15.1506
-15.2027
-15.2496
-15.2921
-15.3307
-15.3659
-15.398
-15.4272
-15.4537
-15.4777
-15.4994
-15.5189
-15.5364
-15.552
-15.566
-15.5783
-15.5892
-15.5987
-15.6068
-15.6138
-15.6194
-15.624
-15.6273
-15.6296
-15.6307
-16.0916
-16.0905
-16.0884
-16.0852
-16.0809
-16.0754
-16.0688
-16.061
-16.0518
-16.0414
-16.0295
-16.016
-16.001
-15.9841
-15.9654
-15.9445
-15.9213
-15.8956
-15.8671
-15.8356
-15.8007
-15.7622
-15.7196
-15.6725
-15.6204
-15.5626
-15.4984
-15.4271
-15.3478
-15.2596
-15.1617
-15.054
-14.9366
-14.8111
-14.68
-14.5483
-14.423
-14.3137
-14.2315
-14.1872
-14.1874
-14.2331
-14.3183
-14.4326
-14.5641
-14.7027
-14.8403
-14.9719
-15.0945
-15.2066
-15.3079
-15.3987
-15.4799
-15.5527
-15.618
-15.6764
-15.7285
-15.7749
-15.8165
-15.8541
-15.8881
-15.919
-15.947
-15.9724
-15.9954
-16.0161
-16.0346
-16.0511
-16.0659
-16.0791
-16.0907
-16.1009
-16.1098
-16.1175
-16.1239
-16.1293
-16.1335
-16.1366
-16.1387
-16.1397
-16.6018
-16.6008
-16.5988
-16.5958
-16.5918
-16.5867
-16.5805
-16.5732
-16.5647
-16.5549
-16.5437
-16.5311
-16.517
-16.5011
-16.4833
-16.4635
-16.4414
-16.4168
-16.3895
-16.3592
-16.3255
-16.2881
-16.2465
-16.2003
-16.1487
-16.091
-16.0262
-15.9533
-15.8709
-15.7778
-15.6725
-15.5539
-15.4216
-15.276
-15.1194
-14.9566
-14.7963
-14.6514
-14.5386
-14.4756
-14.4744
-14.5367
-14.6522
-14.803
-14.9713
-15.1428
-15.3077
-15.4604
-15.5988
-15.7222
-15.8312
-15.9268
-16.0107
-16.0848
-16.1504
-16.2085
-16.2598
-16.3051
-16.3453
-16.3813
-16.4137
-16.443
-16.4696
-16.4936
-16.5153
-16.5347
-16.5521
-16.5676
-16.5814
-16.5937
-16.6045
-16.614
-16.6222
-16.6293
-16.6353
-16.6402
-16.6441
-16.647
-16.649
-16.6499
-17.113
-17.1121
-17.1102
-17.1075
-17.1038
-17.0991
-17.0934
-17.0867
-17.0788
-17.0698
-17.0594
-17.0478
-17.0346
-17.0198
-17.0032
-16.9846
-16.9638
-16.9407
-16.9148
-16.886
-16.8539
-16.8182
-16.7783
-16.7337
-16.6836
-16.627
-16.5628
-16.4895
-16.4055
-16.3091
-16.1975
-16.069
-15.9216
-15.7543
-15.5677
-15.3659
-15.1584
-14.9621
-14.8025
-14.7093
-14.7053
-14.7943
-14.9563
-15.1602
-15.3784
-15.5916
-15.7886
-15.9646
-16.1189
-16.2527
-16.3683
-16.467
-16.5522
-16.6262
-16.6908
-16.7474
-16.797
-16.8404
-16.8786
-16.9125
-16.9428
-16.9701
-16.9949
-17.0172
-17.0373
-17.0553
-17.0714
-17.0857
-17.0985
-17.1097
-17.1196
-17.1283
-17.1358
-17.1423
-17.1477
-17.1522
-17.1558
-17.1584
-17.1602
-17.1611
-17.6251
-17.6243
-17.6226
-17.6201
-17.6168
-17.6125
-17.6074
-17.6012
-17.5941
-17.5859
-17.5765
-17.5658
-17.5537
-17.5402
-17.5249
-17.5077
-17.4885
-17.467
-17.443
-17.4161
-17.3862
-17.3527
-17.3152
-17.2731
-17.2254
-17.1712
-17.1091
-17.0373
-16.9536
-16.8556
-16.7407
-16.6046
-16.4437
-16.2544
-16.0344
-15.7849
-15.5144
-15.2438
-15.0107
-14.8669
-14.8573
-14.9915
-15.2275
-15.5094
-15.795
-16.0596
-16.2928
-16.4925
-16.661
-16.8025
-16.9208
-17.0212
-17.1058
-17.1778
-17.2398
-17.2936
-17.3404
-17.381
-17.4164
-17.4476
-17.4753
-17.5002
-17.5227
-17.543
-17.5613
-17.5777
-17.5924
-17.6054
-17.6169
-17.627
-17.636
-17.6438
-17.6505
-17.6563
-17.6612
-17.6652
-17.6684
-17.6708
-17.6724
-17.6731
-18.1381
-18.1374
-18.1359
-18.1337
-18.1307
-18.1269
-18.1223
-18.1168
-18.1105
-18.1031
-18.0947
-18.0852
-18.0743
-18.0621
-18.0483
-18.0327
-18.0153
-17.9957
-17.9738
-17.9494
-17.922
-17.8915
-17.8572
-17.8185
-17.7746
-17.7243
-17.666
-17.5978
-17.5174
-17.4216
-17.3066
-17.1672
-16.9969
-16.7885
-16.5346
-16.2302
-15.8782
-15.5001
-15.1492
-14.9165
-14.8946
-15.1098
-15.4677
-15.865
-16.2391
-16.5638
-16.834
-17.0542
-17.2325
-17.3768
-17.4948
-17.5922
-17.6729
-17.7405
-17.7979
-17.8473
-17.89
-17.9268
-17.9586
-17.9864
-18.011
-18.0331
-18.053
-18.0711
-18.0873
-18.1019
-18.1148
-18.1264
-18.1365
-18.1455
-18.1534
-18.1602
-18.1662
-18.1713
-18.1756
-18.1791
-18.1819
-18.184
-18.1854
-18.186
-18.6519
-18.6512
-18.6499
-18.648
-18.6454
-18.6421
-18.6381
-18.6334
-18.6278
-18.6214
-18.614
-18.6057
-18.5962
-18.5854
-18.5732
-18.5594
-18.544
-18.5266
-18.5072
-18.4856
-18.4614
-18.4344
-18.4042
-18.37
-18.331
-18.2862
-18.2338
-18.172
-18.0981
-18.0087
-17.8991
-17.7631
-17.5914
-17.3721
-17.0906
-16.7305
-16.2802
-15.7502
-15.2062
-14.8111
-14.7614
-15.1297
-15.6938
-16.2591
-16.7428
-17.1291
-17.4296
-17.6614
-17.8405
-17.9804
-18.0917
-18.1814
-18.2544
-18.3147
-18.3652
-18.4084
-18.4455
-18.4774
-18.5049
-18.5287
-18.5498
-18.5686
-18.5856
-18.601
-18.615
-18.6275
-18.6387
-18.6486
-18.6573
-18.665
-18.6718
-18.6777
-18.6827
-18.6871
-18.6908
-18.6938
-18.6962
-18.6979
-18.6991
-18.6997
-19.1663
-19.1658
-19.1647
-19.1631
-19.1609
-19.1581
-19.1547
-19.1507
-19.146
-19.1405
-19.1343
-19.1272
-19.1191
-19.1099
-19.0994
-19.0877
-19.0744
-19.0595
-19.043
-19.0245
-19.004
-18.9812
-18.9558
-18.9271
-18.8944
-18.8566
-18.8123
-18.7596
-18.6961
-18.6183
-18.5214
-18.398
-18.2377
-18.024
-17.7336
-17.3336
-16.7823
-16.0512
-15.194
-14.5046
-14.3973
-15.0506
-15.9631
-16.7594
-17.3594
-17.7908
-18.1007
-18.3254
-18.4911
-18.6162
-18.7127
-18.7888
-18.85
-18.8998
-18.9413
-18.9765
-19.0067
-19.0326
-19.0548
-19.0741
-19.0911
-19.1063
-19.1201
-19.1327
-19.1442
-19.1545
-19.1637
-19.1719
-19.1791
-19.1854
-19.191
-19.1958
-19.2
-19.2036
-19.2066
-19.2091
-19.211
-19.2125
-19.2135
-19.214
-19.6813
-19.6809
-19.68
-19.6787
-19.6769
-19.6747
-19.6719
-19.6687
-19.6648
-19.6604
-19.6554
-19.6496
-19.6429
-19.6354
-19.6268
-19.6172
-19.6063
-19.5942
-19.5807
-19.5658
-19.5494
-19.5314
-19.5115
-19.4892
-19.4638
-19.4346
-19.4004
-19.3597
-19.3105
-19.2501
-19.174
-19.0755
-18.9438
-18.7619
-18.5014
-18.1115
-17.5013
-16.5537
-15.2583
-14.0802
-13.8828
-15.0135
-16.4358
-17.499
-18.1715
-18.5924
-18.8677
-19.0559
-19.1884
-19.2848
-19.3572
-19.4134
-19.4583
-19.4947
-19.5249
-19.5506
-19.5726
-19.5916
-19.6079
-19.6221
-19.6346
-19.6459
-19.6563
-19.6658
-19.6746
-19.6825
-19.6897
-19.696
-19.7017
-19.7066
-19.7109
-19.7147
-19.7179
-19.7207
-19.723
-19.725
-19.7265
-19.7276
-19.7284
-19.7288
-20.1968
-20.1965
-20.1958
-20.1948
-20.1935
-20.1918
-20.1897
-20.1872
-20.1843
-20.1809
-20.1771
-20.1726
-20.1675
-20.1617
-20.1551
-20.1477
-20.1394
-20.1301
-20.12
-20.109
-20.0971
-20.0844
-20.0705
-20.0553
-20.0382
-20.0188
-19.9963
-19.9698
-19.9385
-19.9007
-19.8539
-19.7938
-19.7126
-19.5967
-19.4247
-19.1548
-18.6359
-17.6154
-15.9732
-13.995
-13.7378
-15.6955
-17.5175
-18.7084
-19.2873
-19.5686
-19.7442
-19.8569
-19.9308
-19.9831
-20.022
-20.0522
-20.0767
-20.0971
-20.1144
-20.1293
-20.1423
-20.1536
-20.1634
-20.172
-20.1798
-20.1869
-20.1937
-20.2
-20.2059
-20.2114
-20.2164
-20.2209
-20.2248
-20.2283
-20.2313
-20.234
-20.2363
-20.2382
-20.2399
-20.2413
-20.2423
-20.2432
-20.2437
-20.244
-20.7127
-20.7124
-20.712
-20.7113
-20.7104
-20.7092
-20.7078
-20.7061
-20.7041
-20.7018
-20.6992
-20.6961
-20.6927
-20.6887
-20.6841
-20.679
-20.6733
-20.6671
-20.6605