/*--------------------------------*- C++ -*----------------------------------*\
| =========                 |                                                 |
| \\      /  F ield         | OpenFOAM: The Open Source CFD Toolbox           |
|  \\    /   O peration     | Version:  2412                                  |
|   \\  /    A nd           | Website:  www.openfoam.com                      |
|    \\/     M anipulation  |                                                 |
\*---------------------------------------------------------------------------*/
FoamFile
{
    version     2.0;
    format      ascii;
    arch        "LSB;label=32;scalar=64";
    class       surfaceScalarField;
    location    "4.55";
    object      phi;
}
// * * * * * * * * * * * * * * * * * * * * * * * * * * * * * * * * * * * * * //

dimensions      [0 3 -1 0 0 0 0];

oriented        oriented;

internalField   nonuniform List<scalar> 
12640
(
-2.15185e-05
2.15185e-05
-3.79672e-05
1.6443e-05
-5.46802e-05
1.6713e-05
-7.02582e-05
1.55794e-05
-8.37304e-05
1.34731e-05
-9.46249e-05
1.08946e-05
-0.00010271
8.08524e-06
-0.000107872
5.16186e-06
-0.000110084
2.21164e-06
-0.000109268
-8.1538e-07
-0.000105592
-3.67532e-06
-9.92143e-05
-6.37768e-06
-9.03373e-05
-8.87689e-06
-7.94705e-05
-1.08667e-05
-6.68895e-05
-1.25811e-05
-5.31328e-05
-1.37569e-05
-3.85011e-05
-1.46321e-05
-2.34479e-05
-1.50532e-05
-8.42455e-06
-1.50227e-05
6.16352e-06
-1.45881e-05
2.00014e-05
-1.38382e-05
3.25939e-05
-1.25924e-05
4.36996e-05
-1.11055e-05
5.29554e-05
-9.25545e-06
6.01511e-05
-7.19533e-06
6.5138e-05
-4.98647e-06
6.79904e-05
-2.85195e-06
6.88705e-05
-8.79596e-07
6.78896e-05
9.8111e-07
6.51901e-05
2.6997e-06
6.09866e-05
4.20376e-06
5.53486e-05
5.63839e-06
4.84083e-05
6.94106e-06
4.05941e-05
7.81501e-06
3.24049e-05
8.1899e-06
2.42857e-05
8.12016e-06
1.65244e-05
7.76207e-06
9.29582e-06
7.22935e-06
2.62549e-06
6.67086e-06
-3.60557e-06
6.23141e-06
-9.57566e-06
5.97047e-06
-1.55498e-05
5.9748e-06
-2.16476e-05
6.09825e-06
-2.80044e-05
6.35664e-06
-3.45507e-05
6.54639e-06
-4.10948e-05
6.54434e-06
-4.73582e-05
6.26325e-06
-5.28883e-05
5.52976e-06
-5.72493e-05
4.36089e-06
-6.01721e-05
2.92283e-06
-6.16304e-05
1.45846e-06
-6.16113e-05
-1.89308e-08
-6.00487e-05
-1.56253e-06
-5.69708e-05
-3.078e-06
-5.21077e-05
-4.86324e-06
-4.5468e-05
-6.63995e-06
-3.71916e-05
-8.27679e-06
-2.75187e-05
-9.67313e-06
-1.67071e-05
-1.08117e-05
-5.07369e-06
-1.16334e-05
7.08872e-06
-1.21624e-05
1.94756e-05
-1.23868e-05
3.17887e-05
-1.2313e-05
4.37483e-05
-1.19591e-05
5.50165e-05
-1.12675e-05
6.52665e-05
-1.02492e-05
7.41787e-05
-8.91116e-06
8.14498e-05
-7.27041e-06
8.6771e-05
-5.32113e-06
8.98582e-05
-3.08721e-06
9.05954e-05
-7.36971e-07
8.88336e-05
1.76211e-06
8.46703e-05
4.16372e-06
7.80645e-05
6.60611e-06
6.91047e-05
8.96e-06
5.8015e-05
1.10904e-05
4.51233e-05
1.28921e-05
3.1264e-05
1.38596e-05
1.77996e-05
1.34648e-05
1.77997e-05
-2.31041e-05
4.46279e-05
-4.09085e-05
3.42476e-05
-5.8908e-05
3.47123e-05
-7.5419e-05
3.20907e-05
-8.94758e-05
2.75303e-05
-0.000100619
2.20378e-05
-0.000108582
1.60482e-05
-0.00011329
9.871e-06
-0.000114737
3.65851e-06
-0.000113128
-2.42315e-06
-0.000108602
-8.2011e-06
-0.000101525
-1.34545e-05
-9.21214e-05
-1.82809e-05
-8.0657e-05
-2.23314e-05
-6.75249e-05
-2.57134e-05
-5.31128e-05
-2.81689e-05
-3.77942e-05
-2.99503e-05
-2.19904e-05
-3.08573e-05
-6.08719e-06
-3.09258e-05
9.55412e-06
-3.02292e-05
2.44721e-05
-2.87561e-05
3.83147e-05
-2.6435e-05
5.09909e-05
-2.37814e-05
6.19756e-05
-2.02394e-05
7.13469e-05
-1.6566e-05
7.88734e-05
-1.2513e-05
8.43865e-05
-8.36545e-06
8.76406e-05
-4.134e-06
8.85718e-05
4.98573e-08
8.73898e-05
3.88202e-06
8.41769e-05
7.41743e-06
7.9189e-05
1.06271e-05
7.27831e-05
1.33477e-05
6.50625e-05
1.55364e-05
5.60122e-05
1.72406e-05
4.57343e-05
1.83984e-05
3.44273e-05
1.90691e-05
2.22312e-05
1.94258e-05
9.5193e-06
1.93832e-05
-3.44872e-06
1.91999e-05
-1.63252e-05
1.8847e-05
-2.87373e-05
1.83866e-05
-4.03743e-05
1.77354e-05
-5.09122e-05
1.68949e-05
-6.01128e-05
1.57472e-05
-6.78095e-05
1.42415e-05
-7.39463e-05
1.24009e-05
-7.85419e-05
1.01257e-05
-8.16644e-05
7.48327e-06
-8.32036e-05
4.46162e-06
-8.29819e-05
1.2365e-06
-8.08018e-05
-2.19898e-06
-7.67303e-05
-5.6337e-06
-7.0741e-05
-9.06683e-06
-6.31872e-05
-1.24169e-05
-5.42216e-05
-1.56058e-05
-4.40269e-05
-1.84719e-05
-3.27764e-05
-2.09238e-05
-2.06199e-05
-2.2968e-05
-7.83703e-06
-2.44157e-05
5.32744e-06
-2.53263e-05
1.85647e-05
-2.56233e-05
3.167e-05
-2.54175e-05
4.42504e-05
-2.45385e-05
5.6045e-05
-2.30612e-05
6.67329e-05
-2.09367e-05
7.60775e-05
-1.82558e-05
8.37888e-05
-1.49814e-05
8.95819e-05
-1.11137e-05
9.33042e-05
-6.80914e-06
9.469e-05
-2.12236e-06
9.36e-05
2.85221e-06
8.98467e-05
7.91674e-06
8.33139e-05
1.31392e-05
7.41521e-05
1.81225e-05
6.25422e-05
2.2701e-05
4.88282e-05
2.66068e-05
3.39083e-05
2.87804e-05
1.93057e-05
2.80675e-05
3.7106e-05
-2.40418e-05
6.86698e-05
-4.24949e-05
5.2702e-05
-6.12094e-05
5.34275e-05
-7.85191e-05
4.94007e-05
-9.32137e-05
4.22252e-05
-0.000104836
3.36607e-05
-0.000113175
2.43868e-05
-0.000118143
1.48399e-05
-0.000119826
5.34198e-06
-0.0001182
-4.04959e-06
-0.000113517
-1.28844e-05
-0.000106056
-2.09148e-05
-9.61227e-05
-2.82142e-05
-8.39756e-05
-3.44786e-05
-7.00909e-05
-3.95982e-05
-5.48982e-05
-4.3362e-05
-3.87986e-05
-4.60499e-05
-2.2223e-05
-4.74324e-05
-5.62044e-06
-4.75283e-05
1.05472e-05
-4.63972e-05
2.58037e-05
-4.40127e-05
4.01182e-05
-4.07497e-05
5.25392e-05
-3.62033e-05
6.35062e-05
-3.12078e-05
7.2314e-05
-2.53753e-05
7.90838e-05
-1.92839e-05
8.35747e-05
-1.28572e-05
8.58771e-05
-6.437e-06
8.60623e-05
-1.35764e-07
8.40441e-05
5.89951e-06
8.01603e-05
1.13e-05
7.46357e-05
1.61503e-05
6.78057e-05
2.01763e-05
5.98246e-05
2.35162e-05
5.07822e-05
2.62818e-05
4.09373e-05
2.82423e-05
3.0338e-05
2.96673e-05
1.92707e-05
3.0492e-05
7.87082e-06
3.07821e-05
-3.60451e-06
3.06748e-05
-1.50073e-05
3.02505e-05
-2.60233e-05
2.94044e-05
-3.64079e-05
2.81211e-05
-4.59831e-05
2.64709e-05
-5.4581e-05
2.4346e-05
-6.20512e-05
2.17116e-05
-6.82668e-05
1.86161e-05
-7.31737e-05
1.50323e-05
-7.67401e-05
1.10498e-05
-7.88623e-05
6.58453e-06
-7.9294e-05
1.66953e-06
-7.79623e-05
-3.52901e-06
-7.4781e-05
-8.814e-06
-6.96931e-05
-1.41545e-05
-6.29089e-05
-1.92015e-05
-5.44878e-05
-2.40274e-05
-4.458e-05
-2.83796e-05
-3.33869e-05
-3.21161e-05
-2.12625e-05
-3.50916e-05
-8.24809e-06
-3.74296e-05
5.2286e-06
-3.88029e-05
1.89501e-05
-3.93453e-05
3.25284e-05
-3.89966e-05
4.56379e-05
-3.76491e-05
5.79477e-05
-3.53723e-05
6.92253e-05
-3.22144e-05
7.90831e-05
-2.8113e-05
8.71804e-05
-2.30783e-05
9.33547e-05
-1.72885e-05
9.72255e-05
-1.06805e-05
9.86425e-05
-3.5405e-06
9.74189e-05
4.07446e-06
9.33814e-05
1.19535e-05
8.662e-05
1.99001e-05
7.71229e-05
2.76196e-05
6.50315e-05
3.4792e-05
5.07221e-05
4.09155e-05
3.5319e-05
4.41821e-05
2.01381e-05
4.3249e-05
5.72438e-05
-2.64233e-05
9.50923e-05
-4.64845e-05
7.27644e-05
-6.67023e-05
7.36463e-05
-8.54665e-05
6.81656e-05
-0.000101323
5.80816e-05
-0.000113708
4.60464e-05
-0.000122436
3.31148e-05
-0.000127456
1.98597e-05
-0.000128861
6.74649e-06
-0.000126809
-6.10134e-06
-0.000121511
-1.81821e-05
-0.00011311
-2.93157e-05
-0.000102096
-3.92274e-05
-8.89096e-05
-4.76656e-05
-7.39316e-05
-5.45764e-05
-5.75244e-05
-5.9769e-05
-4.02062e-05
-6.33682e-05
-2.24427e-05
-6.51957e-05
-4.70163e-06
-6.5269e-05
1.25493e-05
-6.36484e-05
2.8949e-05
-6.04133e-05
4.38865e-05
-5.5688e-05
5.73298e-05
-4.96468e-05
6.8632e-05
-4.25099e-05
7.7763e-05
-3.45062e-05
8.45355e-05
-2.60567e-05
8.88436e-05
-1.71659e-05
9.07222e-05
-8.31697e-06
9.01678e-05
4.16993e-07
8.74476e-05
8.61834e-06
8.27472e-05
1.59994e-05
7.63715e-05
2.25255e-05
6.84675e-05
2.80798e-05
5.93559e-05
3.26272e-05
4.94495e-05
3.61874e-05
3.89336e-05
3.87576e-05
2.81448e-05
4.0456e-05
1.72712e-05
4.13667e-05
6.42346e-06
4.16323e-05
-4.29861e-06
4.1399e-05
-1.47928e-05
4.07452e-05
-2.50672e-05
3.96789e-05
-3.50444e-05
3.80978e-05
-4.45869e-05
3.60125e-05
-5.35582e-05
3.33166e-05
-6.16721e-05
2.98262e-05
-6.87462e-05
2.56919e-05
-7.46445e-05
2.09322e-05
-7.90131e-05
1.54195e-05
-8.17845e-05
9.35655e-06
-8.27785e-05
2.66362e-06
-8.17923e-05
-4.51542e-06
-7.87811e-05
-1.18255e-05
-7.39096e-05
-1.90263e-05
-6.70143e-05
-2.60971e-05
-5.83366e-05
-3.27051e-05
-4.80285e-05
-3.86874e-05
-3.62716e-05
-4.38728e-05
-2.33016e-05
-4.80618e-05
-9.52796e-06
-5.12038e-05
4.81904e-06
-5.31503e-05
1.93808e-05
-5.39073e-05
3.38146e-05
-5.34305e-05
4.78e-05
-5.16343e-05
6.10215e-05
-4.85937e-05
7.31436e-05
-4.4337e-05
8.38012e-05
-3.87713e-05
9.2781e-05
-3.20588e-05
9.96551e-05
-2.41635e-05
0.000104152
-1.51777e-05
0.000106034
-5.4233e-06
0.000104991
5.11685e-06
0.000101069
1.58753e-05
9.40182e-05
2.695e-05
8.38882e-05
3.77491e-05
7.08013e-05
4.78788e-05
5.52908e-05
5.64257e-05
3.85095e-05
6.09639e-05
2.20978e-05
5.96613e-05
7.93417e-05
-2.97577e-05
0.00012485
-5.19851e-05
9.49928e-05
-7.4537e-05
9.61991e-05
-9.54477e-05
8.90769e-05
-0.000112916
7.555e-05
-0.00012628
5.941e-05
-0.000135429
4.22638e-05
-0.000140394
2.48242e-05
-0.000141389
7.74178e-06
-0.000138615
-8.87571e-06
-0.000132255
-2.45409e-05
-0.000122696
-3.88756e-05
-0.000110438
-5.14844e-05
-9.56859e-05
-6.24178e-05
-7.90442e-05
-7.12183e-05
-6.08943e-05
-7.79187e-05
-4.1802e-05
-8.24603e-05
-2.23001e-05
-8.46972e-05
-2.84359e-06
-8.47251e-05
1.6053e-05
-8.25442e-05
3.38919e-05
-7.82516e-05
5.01419e-05
-7.19379e-05
6.46685e-05
-6.41735e-05
7.69126e-05
-5.47545e-05
8.65734e-05
-4.41676e-05
9.35274e-05
-3.30111e-05
9.79877e-05
-2.16266e-05
9.96333e-05
-9.96256e-06
9.86189e-05
1.43175e-06
9.53283e-05
1.19094e-05
8.98121e-05
2.15161e-05
8.23778e-05
2.99605e-05
7.3451e-05
3.70076e-05
6.32251e-05
4.28543e-05
5.22607e-05
4.71535e-05
4.07732e-05
5.02472e-05
2.91588e-05
5.20726e-05
1.75828e-05
5.29434e-05
6.19376e-06
5.30208e-05
-4.98588e-06
5.25784e-05
-1.5913e-05
5.16727e-05
-2.66811e-05
5.04474e-05
-3.71822e-05
4.85995e-05
-4.73825e-05
4.62139e-05
-5.70338e-05
4.29683e-05
-6.59586e-05
3.87507e-05
-7.3883e-05
3.36157e-05
-8.04693e-05
2.7518e-05
-8.55415e-05
2.04914e-05
-8.88331e-05
1.26482e-05
-9.01587e-05
3.98961e-06
-8.94138e-05
-5.26005e-06
-8.64803e-05
-1.47589e-05
-8.12945e-05
-2.4212e-05
-7.39444e-05
-3.34469e-05
-6.46095e-05
-4.20398e-05
-5.34089e-05
-4.98878e-05
-4.06987e-05
-5.65827e-05
-2.66748e-05
-6.20851e-05
-1.16883e-05
-6.61894e-05
3.88482e-06
-6.8722e-05
1.96883e-05
-6.97093e-05
3.53604e-05
-6.91021e-05
5.06398e-05
-6.69145e-05
6.51667e-05
-6.31212e-05
7.84816e-05
-5.76521e-05
9.04139e-05
-5.07033e-05
0.000100444
-4.20883e-05
0.0001083
-3.20177e-05
0.000113731
-2.06083e-05
0.000116252
-7.94409e-06
0.000115709
5.65991e-06
0.000111813
1.97721e-05
0.00010445
3.43131e-05
9.35303e-05
4.86699e-05
7.91481e-05
6.22627e-05
6.18707e-05
7.37027e-05
4.31102e-05
7.97251e-05
2.48482e-05
7.79233e-05
0.00010419
-3.4089e-05
0.000158939
-5.93985e-05
0.000120303
-8.49855e-05
0.000121787
-0.000108772
0.000112863
-0.000128341
9.51195e-05
-0.000142901
7.39702e-05
-0.00015246
5.18224e-05
-0.000157303
2.96679e-05
-0.000157694
8.1318e-06
-0.000153863
-1.27062e-05
-0.000146237
-3.21664e-05
-0.000135131
-4.99818e-05
-0.000121046
-6.55699e-05
-0.000104307
-7.91565e-05
-8.5413e-05
-9.01116e-05
-6.50884e-05
-9.82426e-05
-4.38103e-05
-0.000103738
-2.2043e-05
-0.000106464
-3.59774e-07
-0.000106408
2.06627e-05
-0.000103567
4.03862e-05
-9.79754e-05
5.85376e-05
-9.00895e-05
7.43525e-05
-7.99883e-05
8.76223e-05
-6.80241e-05
9.81995e-05
-5.47444e-05
0.000105701
-4.05121e-05
0.000110024
-2.59486e-05
0.000111404
-1.13423e-05
0.000109873
2.96372e-06
0.000105643
1.61399e-05
9.8972e-05
2.8187e-05
9.03598e-05
3.85726e-05
7.9965e-05
4.74025e-05
6.85019e-05
5.43176e-05
5.61968e-05
5.94582e-05
4.3516e-05
6.29265e-05
3.08479e-05
6.47387e-05
1.83175e-05
6.54726e-05
6.1117e-06
6.52261e-05
-5.80396e-06
6.44927e-05
-1.7423e-05
6.32911e-05
-2.89534e-05
6.19776e-05
-4.02833e-05
5.9929e-05
-5.13295e-05
5.72595e-05
-6.19054e-05
5.35437e-05
-7.17748e-05
4.86199e-05
-8.06445e-05
4.24853e-05
-8.82329e-05
3.51066e-05
-9.4165e-05
2.64236e-05
-9.81092e-05
1.65919e-05
-9.99233e-05
5.80293e-06
-9.93729e-05
-5.81111e-06
-9.63214e-05
-1.78105e-05
-9.07611e-05
-2.97723e-05
-8.2882e-05
-4.1326e-05
-7.27143e-05
-5.22074e-05
-6.05152e-05
-6.20867e-05
-4.64656e-05
-7.06321e-05
-3.09557e-05
-7.75947e-05
-1.45369e-05
-8.26073e-05
2.61596e-06
-8.58744e-05
2.00361e-05
-8.71295e-05
3.73591e-05
-8.64248e-05
5.42342e-05
-8.37891e-05
7.03247e-05
-7.92107e-05
8.53079e-05
-7.26337e-05
9.87405e-05
-6.41345e-05
0.000110251
-5.35992e-05
0.000119432
-4.11987e-05
0.000126022
-2.71986e-05
0.000129495
-1.14168e-05
0.000129594
5.56185e-06
0.000125962
2.3405e-05
0.000118345
4.19288e-05
0.000106472
6.05429e-05
9.03659e-05
7.83677e-05
7.0601e-05
9.34682e-05
4.9277e-05
0.000101049
2.84651e-05
9.87358e-05
0.000132656
-3.94564e-05
0.000198396
-6.89316e-05
0.000149779
-9.86786e-05
0.000151534
-0.000126378
0.000140562
-0.000148485
0.000117227
-0.00016428
8.97655e-05
-0.000174131
6.16738e-05
-0.000178527
3.40644e-05
-0.000177973
7.57762e-06
-0.000172858
-1.78204e-05
-0.00016351
-4.15146e-05
-0.000150532
-6.29604e-05
-0.000134062
-8.20392e-05
-0.000114834
-9.83852e-05
-9.34272e-05
-0.000111519
-7.02833e-05
-0.000121386
-4.61473e-05
-0.000127874
-2.15469e-05
-0.000131065
2.87077e-06
-0.000130826
2.65176e-05
-0.000127213
4.8792e-05
-0.000120249
6.89979e-05
-0.000110294
8.67686e-05
-9.77582e-05
0.000101518
-8.27733e-05
0.000113006
-6.62322e-05
0.000120972
-4.8478e-05
0.000125368
-3.03445e-05
0.00012626
-1.22348e-05
0.000123846
5.37694e-06
0.000118425
2.15606e-05
0.000110306
3.63043e-05
9.99687e-05
4.8908e-05
8.79218e-05
5.9447e-05
7.46006e-05
6.76356e-05
6.05431e-05
7.35133e-05
4.64216e-05
7.70468e-05
3.24189e-05
7.87402e-05
1.88631e-05
7.90267e-05
5.81636e-06
7.82718e-05
-6.7969e-06
7.71054e-05
-1.91049e-05
7.55988e-05
-3.13925e-05
7.42651e-05
-4.36541e-05
7.2191e-05
-5.57543e-05
6.936e-05
-6.75097e-05
6.52989e-05
-7.86532e-05
5.97628e-05
-8.88993e-05
5.27302e-05
-9.76738e-05
4.38791e-05
-0.000104712
3.34593e-05
-0.000109596
2.1474e-05
-0.000112043
8.24813e-06
-0.000111677
-6.17744e-06
-0.000108573
-2.09154e-05
-0.000102762
-3.55841e-05
-9.41476e-05
-4.99404e-05
-8.27463e-05
-6.36088e-05
-6.91497e-05
-7.56833e-05
-5.37691e-05
-8.60126e-05
-3.65795e-05
-9.47841e-05
-1.82208e-05
-0.000100965
9.44918e-07
-0.000105039
2.03267e-05
-0.000106511
3.96689e-05
-0.000105767
5.8519e-05
-0.000102638
7.66378e-05
-9.73284e-05
9.3614e-05
-8.96097e-05
0.000108956
-7.94772e-05
0.000122269
-6.69124e-05
0.000133221
-5.21505e-05
0.000141317
-3.5294e-05
0.000146117
-1.62165e-05
0.00014715
4.52826e-06
0.000144021
2.65326e-05
0.000136275
4.96744e-05
0.000123375
7.34445e-05
0.000105091
9.66515e-05
8.20118e-05
0.000116548
5.71563e-05
0.000125905
3.28595e-05
0.000123033
0.000165515
-4.5653e-05
0.00024405
-8.05508e-05
0.000184676
-0.000116012
0.000186994
-0.000149258
0.000173809
-0.000174576
0.000142544
-0.000191553
0.000106743
-0.000201226
7.13476e-05
-0.000204654
3.74917e-05
-0.000202739
5.6634e-06
-0.00019588
-2.46795e-05
-0.000184508
-5.28857e-05
-0.000169078
-7.83915e-05
-0.000149831
-0.000101287
-0.000127643
-0.000120573
-0.00010286
-0.000136302
-7.6339e-05
-0.000147906
-4.87885e-05
-0.000155423
-2.07729e-05
-0.000159079
7.05398e-06
-0.000158652
3.40081e-05
-0.000154166
5.92636e-05
-0.000145503
8.22334e-05
-0.000133263
0.000102081
-0.000117605
0.000118811
-9.95037e-05
0.000131343
-7.87639e-05
0.000139932
-5.70669e-05
0.000144299
-3.47107e-05
0.000144557
-1.2492e-05
0.000141166
8.76715e-06
0.000134246
2.84793e-05
0.00012422
4.63289e-05
0.000111629
6.14976e-05
9.71606e-05
7.39159e-05
8.15437e-05
8.32537e-05
6.54451e-05
8.96122e-05
4.93902e-05
9.31013e-05
3.38578e-05
9.42725e-05
1.91342e-05
9.37508e-05
5.30938e-06
9.20966e-05
-8.00253e-06
9.04172e-05
-2.08979e-05
8.84942e-05
-3.39593e-05
8.73259e-05
-4.7245e-05
8.54758e-05
-6.06357e-05
8.27497e-05
-7.39386e-05
7.86008e-05
-8.67446e-05
7.25674e-05
-9.86177e-05
6.46022e-05
-0.000109127
5.43879e-05
-0.000117675
4.2008e-05
-0.00012387
2.76684e-05
-0.000127176
1.15548e-05
-0.000127406
-5.94665e-06
-0.000124294
-2.40277e-05
-0.000117848
-4.20301e-05
-0.000108199
-5.95894e-05
-9.57698e-05
-7.60373e-05
-8.0334e-05
-9.11188e-05
-6.25467e-05
-0.000103799
-4.32488e-05
-0.000114081
-2.2505e-05
-0.000121708
-1.07599e-06
-0.000126468
2.06824e-05
-0.000128267
4.23233e-05
-0.000127406
6.35026e-05
-0.000123817
8.39682e-05
-0.000117793
0.000103245
-0.000108885
0.000120994
-9.72257e-05
0.000136683
-8.26006e-05
0.000149779
-6.52461e-05
0.000159735
-4.52496e-05
0.000166291
-2.27731e-05
0.000168763
2.0567e-06
0.000166678
2.86174e-05
0.000159178
5.71764e-05
0.000145299
8.73226e-05
0.000124334
0.000117618
9.65358e-05
0.000144345
6.67669e-05
0.000155674
3.80981e-05
0.000151701
0.000203613
-5.25152e-05
0.000296565
-9.51612e-05
0.000227322
-0.000138348
0.000230181
-0.000179292
0.000214754
-0.000208274
0.000171527
-0.000225752
0.00012422
-0.000234404
7.99994e-05
-0.000236233
3.93217e-05
-0.000232364
1.79513e-06
-0.000223282
-3.37621e-05
-0.000209517
-6.6652e-05
-0.000191137
-9.67709e-05
-0.00016869
-0.000123734
-0.000142711
-0.000146552
-0.00011403
-0.000164982
-8.35002e-05
-0.000178437
-5.17335e-05
-0.00018719
-1.96078e-05
-0.000191205
1.23039e-05
-0.000190563
4.30514e-05
-0.000184913
7.22333e-05
-0.000174685
9.86055e-05
-0.000159635
0.000121391
-0.000140391
0.000139798
-0.000117909
0.000153909
-9.28748e-05
0.000163172
-6.63292e-05
0.000167492
-3.903e-05
0.000167175
-1.21734e-05
0.000162433
1.35097e-05
0.000153474
3.74395e-05
0.000141025
5.87791e-05
0.000125627
7.68968e-05
0.000108113
9.14301e-05
8.95108e-05
0.000101856
7.06123e-05
0.000108511
5.22497e-05
0.000111465
3.49127e-05
0.00011161
1.90297e-05
0.000109634
4.38812e-06
0.000106738
-9.41467e-06
0.000104219
-2.27293e-05
0.000101808
-3.65739e-05
0.000101171
-5.09839e-05
9.98867e-05
-6.59229e-05
9.76898e-05
-8.10917e-05
9.3771e-05
-9.60923e-05
8.75694e-05
-0.000110216
7.87267e-05
-0.00012288
6.70529e-05
-0.000133456
5.25848e-05
-0.000141283
3.5496e-05
-0.000145789
1.60605e-05
-0.000146478
-5.25824e-06
-0.000143428
-2.70767e-05
-0.00013641
-4.90467e-05
-0.000125479
-7.05196e-05
-0.000110998
-9.05177e-05
-9.36398e-05
-0.000108477
-7.35356e-05
-0.000123904
-5.14326e-05
-0.000136184
-2.79452e-05
-0.000145195
-3.6201e-06
-0.000150793
2.09786e-05
-0.000152867
4.53651e-05
-0.000151793
6.93188e-05
-0.00014777
9.24076e-05
-0.000140881
0.000114567
-0.000131043
0.000135148
-0.000117808
0.000153609
-0.000101062
0.000169287
-8.09246e-05
0.000181753
-5.77153e-05
0.00019053
-3.15489e-05
0.000195055
-2.46735e-06
0.000194681
2.89925e-05
0.000188135
6.37225e-05
0.000173717
0.000101741
0.000149733
0.000141601
0.000115143
0.000178935
7.82466e-05
0.000192572
4.34591e-05
0.000186489
0.000247073
-6.20491e-05
0.000358614
-0.000118166
0.00028344
-0.000170514
0.000282529
-0.000219813
0.000264052
-0.000251972
0.000203687
-0.000268549
0.000140798
-0.000274678
8.6128e-05
-0.000273632
3.82755e-05
-0.000267153
-4.68327e-06
-0.000255543
-4.53719e-05
-0.000238927
-8.3267e-05
-0.000217143
-0.000118556
-0.000190654
-0.000150223
-0.00015997
-0.000177237
-0.000126533
-0.000198419
-9.12693e-05
-0.000213701
-5.49032e-05
-0.000223557
-1.78994e-05
-0.00022821
1.88706e-05
-0.000227334
5.45862e-05
-0.000220629
8.79824e-05
-0.000208081
0.000118698
-0.00019035
0.000145126
-0.000166819
0.000166489
-0.000139271
0.000182134
-0.000108521
0.000191946
-7.6141e-05
0.000196192
-4.32756e-05
0.000194895
-1.08762e-05
0.000188214
2.01924e-05
0.000176833
4.88206e-05
0.000161254
7.43554e-05
0.000142165
9.59842e-05
0.00012101
0.000112585
9.86271e-05
0.000124239
7.62196e-05
0.000130918
5.48998e-05
0.000132784
3.54795e-05
0.000131031
1.81741e-05
0.000126941
2.90857e-06
0.000122005
-1.07383e-05
0.000117869
-2.40255e-05
0.000115098
-3.88064e-05
0.000115953
-5.47668e-05
0.000115848
-7.16651e-05
0.000114589
-8.91469e-05
0.000111253
-0.000106679
0.000105102
-0.000123686
9.5733e-05
-0.000139172
8.25396e-05
-0.000152445
6.58579e-05
-0.000162407
4.54574e-05
-0.000168473
2.21269e-05
-0.000170077
-3.65341e-06
-0.000166991
-3.01625e-05
-0.000159052
-5.69857e-05
-0.000146713
-8.28591e-05
-0.000130158
-0.000107074
-0.000109877
-0.000128758
-8.68089e-05
-0.000146972
-6.12684e-05
-0.000161725
-3.42907e-05
-0.000172174
-6.70806e-06
-0.000178377
2.10716e-05
-0.000180647
4.8588e-05
-0.00017931
7.54515e-05
-0.000174634
0.000101772
-0.000167203
0.00012713
-0.000156402
0.00015121
-0.000141887
0.000173191
-0.000123043
0.000192096
-9.98291e-05
0.000207492
-7.31117e-05
0.00021917
-4.32269e-05
0.000226457
-9.75493e-06
0.000228956
2.64949e-05
0.000224727
6.79502e-05
0.000210517
0.000115953
0.000183086
0.000169032
0.000140331
0.000221691
9.47529e-05
0.000238149
5.02804e-05
0.000230963
0.000297353
-6.651e-05
0.000425125
-0.000152244
0.000369174
-0.000223109
0.000353393
-0.000281363
0.000322306
-0.000313001
0.000235325
-0.000321678
0.000149474
-0.000321972
8.64236e-05
-0.000316437
3.27413e-05
-0.000306391
-1.47305e-05
-0.000292199
-5.95649e-05
-0.000272745
-0.000102722
-0.000247021
-0.000144279
-0.000215522
-0.000181722
-0.000179552
-0.000213206
-0.000140599
-0.000237372
-9.95419e-05
-0.000254758
-5.7666e-05
-0.000265433
-1.4987e-05
-0.000270889
2.74476e-05
-0.000269768
6.86677e-05
-0.000261849
0.000108032
-0.000247445
0.000143445
-0.000225764
0.000174118
-0.000197492
0.000198316
-0.00016347
0.000216235
-0.00012644
0.000226962
-8.68677e-05
0.000231044
-4.73584e-05
0.000228583
-8.41615e-06
0.00021985
2.89225e-05
0.000205205
6.34645e-05
0.000185681
9.38795e-05
0.000162135
0.000119531
0.000136019
0.000138701
0.000108709
0.00015155
8.19762e-05
0.000157653
5.69503e-05
0.000157812
3.45517e-05
0.00015343
1.55835e-05
0.00014591
3.00576e-07
0.000137289
-1.12923e-05
0.000129461
-2.29943e-05
0.000126799
-3.90847e-05
0.000132043
-5.7761e-05
0.000134524
-7.75649e-05
0.000134393
-9.81425e-05
0.000131831
-0.000119183
0.000126143
-0.000139834
0.000116384
-0.000159069
0.000101774
-0.000175511
8.23001e-05
-0.000188282
5.82284e-05
-0.00019647
3.03148e-05
-0.00019911
-1.01482e-06
-0.000195729
-3.35441e-05
-0.000186635
-6.60803e-05
-0.000172304
-9.71902e-05
-0.000153038
-0.000126339
-0.000129593
-0.000152203
-0.000102545
-0.000174021
-7.3194e-05
-0.000191076
-4.2079e-05
-0.00020329
-1.06478e-05
-0.000209808
2.07826e-05
-0.000212079
5.16783e-05
-0.000210207
8.18443e-05
-0.000204801
0.000111365
-0.000196725
0.000140535
-0.000185572
0.000168741
-0.000170093
0.000194978
-0.000149281
0.000217808
-0.00012266
0.000236622
-9.19259e-05
0.000251463
-5.80668e-05
0.000262986
-2.12768e-05
0.000270112
1.93697e-05
0.000270986
6.7077e-05
0.000261805
0.000125134
0.000233549
0.000197288
0.000179389
0.000275853
0.000121786
0.000295752
5.79408e-05
0.000294809
0.000355294
-1.98769e-05
0.000445001
-0.000151849
0.000501147
-0.000308626
0.000510169
-0.000387289
0.00040097
-0.000400593
0.000248629
-0.000387088
0.00013597
-0.000375853
7.51875e-05
-0.000365328
2.22163e-05
-0.000351767
-2.82911e-05
-0.000334627
-7.67037e-05
-0.000312026
-0.000125322
-0.000282842
-0.000173462
-0.000246712
-0.000217851
-0.000204859
-0.000255058
-0.000159074
-0.000283156
-0.000111589
-0.000302244
-6.23542e-05
-0.000314667
-1.24965e-05
-0.000320746
3.71393e-05
-0.000319404
8.57891e-05
-0.000310498
0.000132137
-0.000293792
0.000174111
-0.000267737
0.000209956
-0.000233337
0.00023879
-0.000192303
0.000258314
-0.000145965
0.000269953
-9.85071e-05
0.000273709
-5.11139e-05
0.000269692
-4.397e-06
0.000258301
4.03162e-05
0.000239924
8.18443e-05
0.000215466
0.00011834
0.000186291
0.000148708
0.00015384
0.000171153
0.00012042
0.000184969
8.73659e-05
0.000190706
5.6443e-05
0.000188733
2.95914e-05
0.000180281
8.65732e-06
0.000166843
-4.6676e-06
0.000150613
-1.07793e-05
0.000135573
-1.80077e-05
0.000134027
-3.46184e-05
0.000148654
-5.70609e-05
0.000156966
-8.18216e-05
0.000159153
-0.000107463
0.000157472
-0.000133344
0.000152023
-0.000158788
0.000141828
-0.000182564
0.000125551
-0.000203445
0.00010318
-0.000220091
7.48738e-05
-0.000230744
4.09669e-05
-0.000234685
2.92662e-06
-0.00023106
-3.71677e-05
-0.00022056
-7.65797e-05
-0.000203734
-0.000114016
-0.000180969
-0.000149105
-0.000153345
-0.000179826
-0.000121547
-0.00020582
-8.63571e-05
-0.000226266
-5.01881e-05
-0.000239458
-1.38274e-05
-0.000246169
2.2152e-05
-0.000248057
5.76613e-05
-0.000245715
9.22227e-05
-0.000239362
0.000125647
-0.000230149
0.000158473
-0.000218399
0.000190548
-0.000202168
0.000220698
-0.00017943
0.000247384
-0.000149346
0.000269929
-0.00011447
0.000288957
-7.70931e-05
0.000305121
-3.74395e-05
0.000318087
6.40192e-06
0.00032743
5.77358e-05
0.000332376
0.000120188
0.000315194
0.000214472
0.000257409
0.000333639
0.000150277
0.000402885
3.19825e-05
0.000413103
0.000387276
6.20174e-05
0.000382983
2.73814e-05
0.000535783
-0.000237962
0.000775513
-0.000488033
0.000651041
-0.00053429
0.000294885
-0.00047891
8.05907e-05
-0.000437551
3.38292e-05
-0.000412962
-2.37316e-06
-0.000397222
-4.40319e-05
-0.000381999
-9.19281e-05
-0.000362471
-0.00014485
-0.000333528
-0.000202405
-0.000292532
-0.000258847
-0.000242504
-0.000305086
-0.000189491
-0.00033617
-0.000134581
-0.000357154
-7.70797e-05
-0.000372168
-1.80286e-05
-0.000379797
4.09975e-05
-0.000378429
9.94262e-05
-0.000368926
0.000155702
-0.000350067
0.000207888
-0.000319922
0.000252396
-0.000277844
0.000285692
-0.000225597
0.000308419
-0.00016869
0.000320656
-0.000110741
0.000323492
-5.3947e-05
0.000317391
1.70676e-06
0.000302834
5.48748e-05
0.000280434
0.000104246
0.000250554
0.00014822
0.000215031
0.000184231
0.000175048
0.000211135
0.000132353
0.000227665
8.94236e-05
0.000233635
4.9706e-05
0.00022845
1.78534e-05
0.000212134
-2.82913e-06
0.000187526
-1.1638e-05
0.000159422
-1.14656e-05
0.0001354
-1.30054e-05
0.000135566
-2.68149e-05
0.000162462
-5.0935e-05
0.000181085
-8.08094e-05
0.000189027
-0.000113816
0.000190478
-0.000148151
0.000186359
-0.000181343
0.00017502
-0.000211175
0.000155382
-0.000235964
0.000127969
-0.00025545
9.43603e-05
-0.000269039
5.45557e-05
-0.000274678
8.56611e-06
-0.000271684
-4.01635e-05
-0.000259756
-8.85086e-05
-0.000239834
-0.000133938
-0.000212651
-0.000176288
-0.000178683
-0.000213795
-0.000138691
-0.000245812
-9.51166e-05
-0.000269839
-5.10135e-05
-0.00028356
-8.13767e-06
-0.000289044
3.35947e-05
-0.000289789
7.44267e-05
-0.000286547
0.000112655
-0.000277591
0.000148771
-0.000266263
0.000185619
-0.000255246
0.000223764
-0.000240312
0.000258337
-0.000214002
0.000286017
-0.000177025
0.000307835
-0.000136287
0.000327129
-9.63875e-05
0.000348003
-5.83124e-05
0.000374642
-2.02364e-05
0.00041
2.2378e-05
0.000457049
7.31388e-05
0.000454177
0.000217345
0.000300211
0.000487605
4.27037e-05
0.000660392
-5.58911e-05
0.000511698
0.000331385
0.000172367
0.000210616
0.000372525
0.000335624
0.00017037
0.000977669
-0.000327253
0.00114866
-0.000549348
0.000516979
-0.000548478
7.97203e-05
-0.000504252
-1.03983e-05
-0.000473422
-3.32036e-05
-0.00045782
-5.96346e-05
-0.000448586
-0.000101163
-0.000431862
-0.000161574
-0.000393526
-0.000240741
-0.000331424
-0.000320949
-0.000260725
-0.000375785
-0.000198245
-0.000398649
-0.000143933
-0.000411465
-8.74726e-05
-0.000428628
-2.56357e-05
-0.000441634
4.00718e-05
-0.000444137
0.000108239
-0.000437093
0.000177266
-0.000419093
0.00024223
-0.000384884
0.000297123
-0.000332736
0.000338927
-0.0002674
0.00036522
-0.000194983
0.000377533
-0.000123054
0.000378497
-5.49117e-05
0.000370489
9.7153e-06
0.000353389
7.1974e-05
0.000326527
0.000131108
0.000290193
0.000184554
0.000245167
0.000229256
0.000194012
0.00026229
0.000140131
0.000281546
8.70639e-05
0.000286702
4.28882e-05
0.000272626
1.28385e-05
0.000242183
-3.99903e-06
0.000204362
-1.234e-05
0.000167762
-1.61051e-05
0.000139164
-2.0693e-05
0.000140154
-3.31136e-05
0.000174882
-5.46368e-05
0.000202608
-8.37981e-05
0.000218188
-0.000119407
0.000226087
-0.00016061
0.000227562
-0.00020354
0.000217949
-0.000242322
0.000194164
-0.000274877
0.000160523
-0.000300629
0.000120111
-0.000318128
7.20538e-05
-0.000324618
1.50549e-05
-0.000318956
-4.5826e-05
-0.000303189
-0.000104276
-0.000278286
-0.000158841
-0.00024528
-0.000209293
-0.000204129
-0.000254946
-0.000156166
-0.000293775
-0.00010344
-0.000322567
-5.0949e-05
-0.000336052
-2.81981e-06
-0.000337173
4.10476e-05
-0.000333657
7.82821e-05
-0.000323782
0.000107789
-0.000307097
0.000136046
-0.000294519
0.000177545
-0.000296745
0.00023668
-0.000299448
0.000297076
-0.000274398
0.000339711
-0.000219659
0.000363411
-0.000159987
0.000380919
-0.000113895
0.000406085
-8.34784e-05
0.000449419
-6.35701e-05
0.000511962
-4.01656e-05
0.000546204
3.88969e-05
0.000417832
0.000345717
1.67644e-05
0.000888674
-0.000258607
0.000935764
-0.000141832
0.000394923
0.000189553
0.000411345
-0.000200729
0.000665693
8.12755e-05
0.000511053
0.00113231
-3.99329e-05
0.00169965
-0.000426673
0.000903718
-0.000527222
0.000180269
-0.000524591
-1.30297e-05
-0.000511515
-4.6281e-05
-0.000511087
-6.00626e-05
-0.000506558
-0.000105691
-0.000471682
-0.000196449
-0.000393389
-0.000319035
-0.000286721
-0.000427618
-0.000185545
-0.000476961
-0.000114128
-0.000470066
-6.72994e-05
-0.000458293
-2.38256e-05
-0.000472102
2.70371e-05
-0.000492496
8.81833e-05
-0.000505283
0.000160059
-0.000508968
0.000236431
-0.000495466
0.000307147
-0.000455601
0.000365317
-0.000390907
0.000407506
-0.00030959
0.000434765
-0.000222243
0.000449076
-0.000137365
0.000453619
-5.94551e-05
0.00044782
1.55132e-05
0.00042907
9.07238e-05
0.000394669
0.000165508
0.000344895
0.000234328
0.000284452
0.000289698
0.000220596
0.000326146
0.000159226
0.000342917
0.000108216
0.000337712
7.2711e-05
0.000308131
5.26553e-05
0.000262239
3.68392e-05
0.000220178
1.42793e-05
0.000190322
-1.54942e-05
0.000168938
-4.63548e-05
0.000171015
-7.56353e-05
0.000204163
-0.00010361
0.000230583
-0.000129402
0.000243979
-0.000155934
0.000252619
-0.000189172
0.000260799
-0.000232925
0.000261702
-0.00028192
0.000243159
-0.000328272
0.000206875
-0.000369896
0.000161735
-0.000400888
0.000103046
-0.000412052
2.62187e-05
-0.000400065
-5.78123e-05
-0.000370653
-0.000133688
-0.000333826
-0.000195668
-0.000295771
-0.000247348
-0.000259173
-0.000291546
-0.00022013
-0.000332819
-0.000173798
-0.0003689
-0.000120978
-0.000388873