/*--------------------------------*- C++ -*----------------------------------*\
| =========                 |                                                 |
| \\      /  F ield         | OpenFOAM: The Open Source CFD Toolbox           |
|  \\    /   O peration     | Version:  2412                                  |
|   \\  /    A nd           | Website:  www.openfoam.com                      |
|    \\/     M anipulation  |                                                 |
\*---------------------------------------------------------------------------*/
FoamFile
{
    version     2.0;
    format      ascii;
    arch        "LSB;label=32;scalar=64";
    class       surfaceScalarField;
    location    "3.2";
    object      phi;
}
// * * * * * * * * * * * * * * * * * * * * * * * * * * * * * * * * * * * * * //

dimensions      [0 3 -1 0 0 0 0];

oriented        oriented;

internalField   nonuniform List<scalar> 
12640
(
1.56551e-06
-1.56551e-06
8.26249e-06
-6.6967e-06
1.36304e-05
-5.3679e-06
1.86345e-05
-5.00375e-06
2.3869e-05
-5.23422e-06
2.94646e-05
-5.59586e-06
3.54639e-05
-5.99964e-06
4.19353e-05
-6.47151e-06
4.88924e-05
-6.95679e-06
5.63239e-05
-7.43118e-06
6.42678e-05
-7.94389e-06
7.27238e-05
-8.45611e-06
8.15979e-05
-8.8742e-06
9.072e-05
-9.12171e-06
9.98956e-05
-9.17665e-06
0.000109012
-9.11599e-06
0.000117897
-8.88583e-06
0.000126391
-8.49385e-06
0.000134367
-7.97594e-06
0.000141643
-7.27697e-06
0.000148008
-6.36418e-06
0.000153342
-5.33325e-06
0.000157471
-4.12966e-06
0.000160168
-2.69708e-06
0.000161346
-1.17787e-06
0.000160797
5.48904e-07
0.000158409
2.38841e-06
0.000154184
4.22489e-06
0.000148102
6.0807e-06
0.000140241
7.86207e-06
0.000130624
9.61769e-06
0.00011921
1.14126e-05
0.000105895
1.33161e-05
9.10472e-05
1.48473e-05
7.5088e-05
1.59588e-05
5.8506e-05
1.65827e-05
4.16718e-05
1.68343e-05
2.47855e-05
1.68854e-05
8.00546e-06
1.67791e-05
-8.6471e-06
1.66526e-05
-2.53068e-05
1.666e-05
-4.2139e-05
1.6832e-05
-5.91163e-05
1.69771e-05
-7.62304e-05
1.71143e-05
-9.33085e-05
1.70781e-05
-0.000109975
1.66661e-05
-0.000125865
1.58893e-05
-0.000140436
1.45709e-05
-0.000153177
1.27412e-05
-0.000163807
1.06301e-05
-0.000172434
8.62655e-06
-0.00017906
6.62572e-06
-0.000183558
4.49837e-06
-0.000185981
2.42326e-06
-0.000186201
2.2051e-07
-0.000184351
-1.85044e-06
-0.00018055
-3.80052e-06
-0.00017501
-5.54051e-06
-0.000167942
-7.0682e-06
-0.000159496
-8.44566e-06
-0.000149859
-9.63708e-06
-0.000139322
-1.05368e-05
-0.000128067
-1.12541e-05
-0.000116344
-1.17236e-05
-0.000104324
-1.202e-05
-9.22829e-05
-1.20414e-05
-8.03686e-05
-1.19143e-05
-6.89063e-05
-1.14622e-05
-5.81466e-05
-1.07597e-05
-4.82555e-05
-9.8912e-06
-3.93131e-05
-8.94275e-06
-3.13362e-05
-7.97683e-06
-2.4377e-05
-6.95906e-06
-1.84722e-05
-5.90463e-06
-1.35716e-05
-4.90085e-06
-9.58499e-06
-3.98669e-06
-6.36889e-06
-3.21607e-06
-3.30821e-06
-3.06133e-06
6.97167e-07
-4.00549e-06
6.96923e-07
1.12787e-06
-2.69377e-06
7.58768e-06
-1.31565e-05
1.27274e-05
-1.05073e-05
1.74946e-05
-9.77075e-06
2.25152e-05
-1.02551e-05
2.7911e-05
-1.09922e-05
3.37834e-05
-1.18719e-05
4.02277e-05
-1.29154e-05
4.73206e-05
-1.40491e-05
5.51172e-05
-1.52278e-05
6.35716e-05
-1.63987e-05
7.26111e-05
-1.74957e-05
8.20884e-05
-1.83525e-05
9.19061e-05
-1.89383e-05
0.00010191
-1.91816e-05
0.000111915
-1.91208e-05
0.000121763
-1.87337e-05
0.000131172
-1.79039e-05
0.000140059
-1.68623e-05
0.00014819
-1.54069e-05
0.000155469
-1.36449e-05
0.000161717
-1.15807e-05
0.000166809
-9.22194e-06
0.000170674
-6.56147e-06
0.000173123
-3.62711e-06
0.000174091
-4.18608e-07
0.000173482
2.99687e-06
0.000171117
6.59061e-06
0.00016686
1.03367e-05
0.000160554
1.41684e-05
0.000152123
1.8049e-05
0.000141667
2.18687e-05
0.000129418
2.55648e-05
0.000115267
2.89985e-05
9.91059e-05
3.212e-05
8.09318e-05
3.47556e-05
6.08671e-05
3.68977e-05
3.91967e-05
3.85558e-05
1.62875e-05
3.96888e-05
-7.42857e-06
4.03683e-05
-3.13642e-05
4.05948e-05
-5.48708e-05
4.03386e-05
-7.75407e-05
3.9647e-05
-9.88396e-05
3.84127e-05
-0.000118361
3.65985e-05
-0.000135911
3.4216e-05
-0.000151293
3.1272e-05
-0.0001646
2.78782e-05
-0.000175923
2.40632e-05
-0.000185232
1.99389e-05
-0.000192294
1.5688e-05
-0.000197008
1.13405e-05
-0.000199531
7.02079e-06
-0.000199813
2.70545e-06
-0.00019821
-1.38219e-06
-0.000194766
-5.29423e-06
-0.00018962
-8.94694e-06
-0.000182874
-1.22864e-05
-0.000174625
-1.53166e-05
-0.00016514
-1.79304e-05
-0.000154533
-2.02443e-05
-0.000142984
-2.20855e-05
-0.000130719
-2.35195e-05
-0.000118035
-2.4408e-05
-0.000105132
-2.49236e-05
-9.23568e-05
-2.48166e-05
-7.99043e-05
-2.43669e-05
-6.80026e-05
-2.3364e-05
-5.68007e-05
-2.19619e-05
-4.65233e-05
-2.01691e-05
-3.72754e-05
-1.81908e-05
-2.91703e-05
-1.60816e-05
-2.22524e-05
-1.38772e-05
-1.6476e-05
-1.16818e-05
-1.17697e-05
-9.60764e-06
-8.05329e-06
-7.70353e-06
-5.1544e-06
-6.11564e-06
-2.409e-06
-5.80666e-06
1.244e-06
-7.65924e-06
1.94068e-06
6.17424e-07
-3.31114e-06
7.38999e-06
-1.99295e-05
1.26745e-05
-1.57921e-05
1.74289e-05
-1.45252e-05
2.23663e-05
-1.51926e-05
2.76612e-05
-1.62869e-05
3.34346e-05
-1.76448e-05
3.97964e-05
-1.92769e-05
4.68019e-05
-2.10547e-05
5.44737e-05
-2.29e-05
6.28616e-05
-2.47869e-05
7.18408e-05
-2.64738e-05
8.13302e-05
-2.78421e-05
9.11662e-05
-2.8774e-05
0.000101236
-2.92507e-05
0.000111294
-2.91799e-05
0.00012114
-2.85788e-05
0.00013067
-2.74343e-05
0.000139633
-2.5827e-05
0.000147805
-2.35787e-05
0.00015514
-2.09792e-05
0.000161427
-1.78682e-05
0.000166564
-1.43586e-05
0.000170328
-1.03247e-05
0.000172646
-5.9456e-06
0.000173398
-1.16953e-06
0.000172346
4.04842e-06
0.000169439
9.4971e-06
0.000164599
1.51776e-05
0.000157727
2.10405e-05
0.000148933
2.68425e-05
0.0001381
3.27017e-05
0.000125448
3.82172e-05
0.000110962
4.34825e-05
9.47089e-05
4.83715e-05
7.68344e-05
5.26308e-05
5.73984e-05
5.63345e-05
3.67018e-05
5.92517e-05
1.50054e-05
6.1384e-05
-7.32636e-06
6.26998e-05
-2.98983e-05
6.31666e-05
-5.21911e-05
6.26307e-05
-7.37637e-05
6.12194e-05
-9.4291e-05
5.89403e-05
-0.000113465
5.57721e-05
-0.000130965
5.17161e-05
-0.000146722
4.70274e-05
-0.000160597
4.17527e-05
-0.000172525
3.59915e-05
-0.000182384
2.97971e-05
-0.000190009
2.33122e-05
-0.000195426
1.6758e-05
-0.000198545
1.01391e-05
-0.000199532
3.6924e-06
-0.000198299
-2.61528e-06
-0.000195136
-8.4567e-06
-0.000190137
-1.39465e-05
-0.000183451
-1.89726e-05
-0.000175258
-2.35094e-05
-0.000165697
-2.74913e-05
-0.000154954
-3.09875e-05
-0.000143283
-3.37574e-05
-0.000130875
-3.59274e-05
-0.00011799
-3.7294e-05
-0.000104906
-3.80078e-05
-9.18321e-05
-3.78908e-05
-7.91124e-05
-3.70866e-05
-6.69455e-05
-3.55308e-05
-5.55591e-05
-3.33485e-05
-4.50861e-05
-3.06421e-05
-3.57891e-05
-2.74877e-05
-2.76643e-05
-2.42067e-05
-2.07301e-05
-2.08123e-05
-1.49968e-05
-1.74158e-05
-1.04234e-05
-1.41812e-05
-6.88414e-06
-1.1243e-05
-4.18244e-06
-8.81745e-06
-1.57372e-06
-8.41596e-06
2.07875e-06
-1.1312e-05
4.01939e-06
-4.62938e-07
-2.84853e-06
6.61132e-06
-2.70045e-05
1.20284e-05
-2.12092e-05
1.66281e-05
-1.91246e-05
2.12883e-05
-1.98525e-05
2.63233e-05
-2.13218e-05
3.18519e-05
-2.31731e-05
3.80393e-05
-2.54644e-05
4.49899e-05
-2.80055e-05
5.27567e-05
-3.06666e-05
6.13429e-05
-3.33734e-05
7.06802e-05
-3.58104e-05
8.06092e-05
-3.77701e-05
9.09412e-05
-3.91065e-05
0.000101486
-3.97959e-05
0.000112037
-3.97314e-05
0.000122365
-3.89075e-05
0.000132353
-3.74207e-05
0.000141692
-3.51659e-05
0.000150346
-3.22341e-05
0.000158022
-2.86553e-05
0.00016467
-2.4516e-05
0.000170055
-1.97442e-05
0.000174166
-1.44351e-05
0.000176733
-8.51366e-06
0.000177661
-2.09791e-06
0.00017677
4.94107e-06
0.000173922
1.23436e-05
0.000169066
2.00321e-05
0.000162117
2.79893e-05
0.000153022
3.59376e-05
0.000141885
4.38378e-05
0.000128519
5.15834e-05
0.000113241
5.87598e-05
9.61568e-05
6.54564e-05
7.74867e-05
7.13008e-05
5.75232e-05
7.6297e-05
3.65627e-05
8.02116e-05
1.49275e-05
8.30188e-05
-7.17085e-06
8.47977e-05
-2.94194e-05
8.54147e-05
-5.15896e-05
8.48006e-05
-7.33232e-05
8.29525e-05
-9.43337e-05
7.99498e-05
-0.000114252
7.56898e-05
-0.000132773
7.02361e-05
-0.00014954
6.37948e-05
-0.000164313
5.65249e-05
-0.000176911
4.85899e-05
-0.000187256
4.01413e-05
-0.000195272
3.13282e-05
-0.000200805
2.22908e-05
-0.000204021
1.33558e-05
-0.000204899
4.57031e-06
-0.000203587
-3.92808e-06
-0.000200205
-1.18387e-05
-0.000194866
-1.92862e-05
-0.000187854
-2.5984e-05
-0.000179179
-3.2185e-05
-0.000169107
-3.75631e-05
-0.000157822
-4.22725e-05
-0.000145507
-4.60724e-05
-0.000132448
-4.89858e-05
-0.000118831
-5.09114e-05
-0.00010503
-5.18087e-05
-9.12459e-05
-5.16741e-05
-7.77973e-05
-5.05345e-05
-6.49659e-05
-4.83617e-05
-5.30459e-05
-4.52681e-05
-4.21718e-05
-4.15159e-05
-3.25618e-05
-3.70977e-05
-2.4287e-05
-3.2482e-05
-1.73733e-05
-2.77264e-05
-1.18138e-05
-2.29749e-05
-7.5317e-06
-1.84636e-05
-4.40007e-06
-1.43748e-05
-2.15789e-06
-1.10595e-05
2.61239e-08
-1.06004e-05
3.28928e-06
-1.45756e-05
7.30869e-06
-1.89492e-06
-9.54175e-07
5.50337e-06
-3.44027e-05
1.11687e-05
-2.68741e-05
1.55758e-05
-2.35315e-05
1.98585e-05
-2.41355e-05
2.4451e-05
-2.59145e-05
2.95974e-05
-2.83191e-05
3.55529e-05
-3.14196e-05
4.24116e-05
-3.48646e-05
5.02802e-05
-3.85346e-05
5.91629e-05
-4.2256e-05
6.90044e-05
-4.56536e-05
7.95225e-05
-4.82878e-05
9.05364e-05
-5.01203e-05
0.000101814
-5.10738e-05
0.000113098
-5.10142e-05
0.000124197
-5.0007e-05
0.000134854
-4.80785e-05
0.000144919
-4.523e-05
0.000154169
-4.14848e-05
0.000162583
-3.70703e-05
0.000169851
-3.17854e-05
0.000175952
-2.58463e-05
0.000180469
-1.89527e-05
0.000183634
-1.16787e-05
0.000184993
-3.45708e-06
0.000184499
5.4348e-06
0.000182015
1.48277e-05
0.000177415
2.46328e-05
0.000170576
3.48291e-05
0.000161483
4.50298e-05
0.000149979
5.53423e-05
0.000136227
6.53364e-05
0.000120286
7.4701e-05
0.000102375
8.33675e-05
8.27138e-05
9.09612e-05
6.16949e-05
9.73156e-05
3.95474e-05
0.000102359
1.66998e-05
0.000105867
-6.60413e-06
0.000108102
-3.00759e-05
0.000108886
-5.35251e-05
0.000108249
-7.65008e-05
0.000105928
-9.87344e-05
0.000102184
-0.000119843
9.67977e-05
-0.00013942
8.9813e-05
-0.000157166
8.15408e-05
-0.000172712
7.20712e-05
-0.000185868
6.17457e-05
-0.000196488
5.07607e-05
-0.00020457
3.94107e-05
-0.000210049
2.77691e-05
-0.000213024
1.63315e-05
-0.000213605
5.15149e-06
-0.000211881
-5.65201e-06
-0.00020793
-1.57907e-05
-0.000202086
-2.51305e-05
-0.000194262
-3.3808e-05
-0.00018489
-4.15575e-05
-0.000174008
-4.84461e-05
-0.000161851
-5.44299e-05
-0.000148659
-5.92649e-05
-0.000134613
-6.30318e-05
-0.000120028
-6.54969e-05
-0.000105138
-6.6699e-05
-9.03421e-05
-6.64707e-05
-7.59197e-05
-6.4957e-05
-6.21847e-05
-6.20969e-05
-4.94157e-05
-5.80373e-05
-3.79384e-05
-5.29934e-05
-2.79631e-05
-4.70735e-05
-1.95227e-05
-4.0923e-05
-1.26674e-05
-3.45818e-05
-7.37165e-06
-2.82709e-05
-3.50658e-06
-2.23293e-05
-9.52011e-07
-1.69289e-05
7.15005e-07
-1.27272e-05
2.49315e-06
-1.23785e-05
5.44398e-06
-1.7526e-05
1.27527e-05
-4.47029e-06
3.51601e-06
3.83745e-06
-4.27099e-05
1.01313e-05
-3.31678e-05
1.43903e-05
-2.77912e-05
1.81005e-05
-2.78459e-05
2.20046e-05
-2.9818e-05
2.65566e-05
-3.28705e-05
3.20895e-05
-3.69521e-05
3.87652e-05
-4.15413e-05
4.68057e-05
-4.65764e-05
5.62036e-05
-5.16527e-05
6.66346e-05
-5.60849e-05
7.79807e-05
-5.96347e-05
8.98931e-05
-6.20325e-05
0.000102186
-6.33671e-05
0.000114486
-6.33144e-05
0.000126493
-6.20139e-05
0.00013807
-5.96567e-05
0.00014899
-5.61495e-05
0.000159213
-5.17071e-05
0.000168303
-4.61601e-05
0.000176348
-3.98302e-05
0.000183083
-3.25802e-05
0.000188573
-2.44421e-05
0.000192195
-1.53023e-05
0.00019422
-5.48107e-06
0.000194374
5.28166e-06
0.000192436
1.67659e-05
0.000188207
2.88608e-05
0.000181571
4.14633e-05
0.000172448
5.41525e-05
0.000160701
6.70899e-05
0.000146372
7.96649e-05
0.000129576
9.14958e-05
0.000110555
0.000102389
8.96588e-05
0.000111858
6.72825e-05
0.000119693
4.3685e-05
0.000125957
1.92363e-05
0.000130316
-5.80817e-06
0.000133146
-3.09762e-05
0.000134054
-5.61787e-05
0.000133451
-8.09059e-05
0.000130656
-0.000104791
0.000126069
-0.000127439
0.000119446
-0.000148357
0.000110732
-0.000167209
0.000100393
-0.000183646
8.8508e-05
-0.00019744
7.55406e-05
-0.000208411
6.17318e-05
-0.000216574
4.75742e-05
-0.00022196
3.31552e-05
-0.000224612
1.89837e-05
-0.000224648
5.1868e-06
-0.000222267
-8.03341e-06
-0.00021771
-2.03483e-05
-0.000211064
-3.17764e-05
-0.000202453
-4.24194e-05
-0.00019216
-5.18508e-05
-0.000180323
-6.02827e-05
-0.000167116
-6.76373e-05
-0.000152712
-7.3668e-05
-0.000137444
-7.83001e-05
-0.000121504
-8.14361e-05
-0.000105303
-8.28998e-05
-8.90875e-05
-8.26858e-05
-7.33429e-05
-8.07011e-05
-5.8382e-05
-7.70574e-05
-4.46505e-05
-7.17685e-05
-3.23744e-05
-6.52695e-05
-2.18017e-05
-5.76468e-05
-1.31908e-05
-4.95343e-05
-6.40979e-06
-4.13624e-05
-1.49294e-06
-3.31884e-05
1.77502e-06
-2.55973e-05
3.48873e-06
-1.86431e-05
4.22692e-06
-1.34654e-05
5.69769e-06
-1.38487e-05
8.38235e-06
-2.02106e-05
2.11347e-05
-8.29982e-06
1.18162e-05
1.52771e-06
-5.25372e-05
9.04041e-06
-4.06809e-05
1.32385e-05
-3.19897e-05
1.60845e-05
-3.06916e-05
1.88895e-05
-3.2622e-05
2.25405e-05
-3.65218e-05
2.7433e-05
-4.18455e-05
3.39159e-05
-4.8024e-05
4.22274e-05
-5.48889e-05
5.21835e-05
-6.1609e-05
6.3521e-05
-6.74216e-05
7.59454e-05
-7.20595e-05
8.91063e-05
-7.51937e-05
0.000102598
-7.686e-05
0.000116134
-7.68496e-05
0.000129378
-7.52566e-05
0.000142104
-7.2382e-05
0.000154055
-6.81009e-05
0.000165144
-6.27955e-05
0.000175224
-5.62392e-05
0.00018426
-4.88674e-05
0.00019183
-4.01507e-05
0.000198
-3.06115e-05
0.000202675
-1.99777e-05
0.000205592
-8.39851e-06
0.000206525
4.34545e-06
0.000205247
1.80431e-05
0.000201524
3.25845e-05
0.000195241
4.77454e-05
0.000186102
6.32915e-05
0.000174013
7.91784e-05
0.000159021
9.46562e-05
0.000141141
0.000109376
0.000120901
0.000122629
9.85067e-05
0.000134252
7.43311e-05
0.000143868
4.88093e-05
0.000151478
2.2369e-05
0.000156755
-4.65867e-06
0.000160173
-3.19205e-05
0.000161316
-5.92662e-05
0.000160797
-8.61257e-05
0.000157515
-0.000112068
0.000152012
-0.000136708
0.000144085
-0.000159328
0.000133352
-0.000179705
0.000120771
-0.000197295
0.000106098
-0.000211833
9.00789e-05
-0.00022331
7.32092e-05
-0.000231548
5.58125e-05
-0.000236704
3.83112e-05
-0.000238909
2.11891e-05
-0.000238327
4.60504e-06
-0.000235164
-1.11958e-05
-0.000229651
-2.58614e-05
-0.000222136
-3.92916e-05
-0.000212745
-5.181e-05
-0.00020136
-6.32359e-05
-0.00018815
-7.34923e-05
-0.000173678
-8.21096e-05
-0.000157867
-8.94795e-05
-0.000141038
-9.51286e-05
-0.000123459
-9.90163e-05
-0.000105459
-0.000100899
-8.75425e-05
-0.000100603
-7.01005e-05
-9.81432e-05
-5.3597e-05
-9.3561e-05
-3.8466e-05
-8.68998e-05
-2.51406e-05
-7.85954e-05
-1.39449e-05
-6.88426e-05
-5.00492e-06
-5.84736e-05
1.64322e-06
-4.80103e-05
5.86195e-06
-3.74078e-05
7.94315e-06
-2.76778e-05
8.60849e-06
-1.93087e-05
9.03168e-06
-1.38883e-05
1.03467e-05
-1.5164e-05
1.27588e-05
-2.26232e-05
3.38937e-05
-1.35304e-05
2.53466e-05
-1.6035e-06
-6.44639e-05
8.14913e-06
-5.04333e-05
1.25135e-05
-3.63538e-05
1.39823e-05
-3.21603e-05
1.51475e-05
-3.37872e-05
1.73331e-05
-3.87076e-05
2.13389e-05
-4.58521e-05
2.74925e-05
-5.41767e-05
3.6139e-05
-6.35339e-05
4.68931e-05
-7.23636e-05
5.94463e-05
-7.9976e-05
7.33279e-05
-8.59424e-05
8.81251e-05
-8.99895e-05
0.00010323
-9.19644e-05
0.000118328
-9.19473e-05
0.000133045
-8.99745e-05
0.000147046
-8.6384e-05
0.000160244
-8.12999e-05
0.000172482
-7.50335e-05
0.000183743
-6.75013e-05
0.000193585
-5.87081e-05
0.000202228
-4.87947e-05
0.000209495
-3.78808e-05
0.000215174
-2.56574e-05
0.000219136
-1.23601e-05
0.000221127
2.35473e-06
0.000220788
1.83831e-05
0.000217873
3.54997e-05
0.000212035
5.3583e-05
0.000202907
7.24187e-05
0.000190475
9.16097e-05
0.000174615
0.000110517
0.000155585
0.000128405
0.000133656
0.000144558
0.000109265
0.000158642
8.28952e-05
0.000170238
5.51338e-05
0.00017924
2.62754e-05
0.000185614
-3.21968e-06
0.000189669
-3.29212e-05
0.000191017
-6.28692e-05
0.000190745
-9.23778e-05
0.000187024
-0.000120915
0.000180549
-0.000147988
0.000171159
-0.000172821
0.000158185
-0.000195064
0.000143014
-0.000214125
0.00012516
-0.000229744
0.000105697
-0.000241679
8.51446e-05
-0.000249914
6.40476e-05
-0.000254695
4.30924e-05
-0.000256149
2.26438e-05
-0.00025464
3.09543e-06
-0.000250486
-1.53495e-05
-0.000244056
-3.2292e-05
-0.000235377
-4.79714e-05
-0.000224665
-6.25231e-05
-0.000212062
-7.58394e-05
-0.000197718
-8.78368e-05
-0.000181629
-9.81991e-05
-0.000164201
-0.000106907
-0.00014553
-0.000113799
-0.000125925
-0.000118622
-0.000105797
-0.000121028
-8.56212e-05
-0.000120779
-6.60036e-05
-0.000117761
-4.75694e-05
-0.000111995
-3.07253e-05
-0.000103744
-1.60552e-05
-9.32654e-05
-3.85718e-06
-8.104e-05
5.29051e-06
-6.76206e-05
1.12987e-05
-5.40192e-05
1.50793e-05
-4.11881e-05
1.65465e-05
-2.91449e-05
1.5964e-05
-1.87264e-05
1.47603e-05
-1.26847e-05
1.65655e-05
-1.69693e-05
1.8767e-05
-2.48247e-05
5.26607e-05
-2.26196e-05
4.79663e-05
-7.18637e-06
-7.98964e-05
7.83547e-06
-6.54549e-05
1.28418e-05
-4.13599e-05
1.21108e-05
-3.14293e-05
1.0471e-05
-3.21481e-05
1.04163e-05
-3.86523e-05
1.31151e-05
-4.85501e-05
1.89931e-05
-6.00551e-05
2.81316e-05
-7.26721e-05
4.00775e-05
-8.43087e-05
5.424e-05
-9.41378e-05
7.00773e-05
-0.00010178
8.68714e-05
-0.000106784
0.000104046
-0.000109139
0.000121057
-0.000108959
0.000137513
-0.00010643
0.00015307
-0.000101942
0.000167603
-9.58321e-05
0.000181119
-8.85498e-05
0.000193359
-7.97419e-05
0.000204543
-6.98936e-05
0.000214375
-5.86248e-05
0.000222941
-4.64475e-05
0.000229989
-3.2703e-05
0.00023519
-1.75615e-05
0.000238494
-9.49514e-07
0.000239349
1.75279e-05
0.000237422
3.74263e-05
0.000232216
5.87887e-05
0.000223422
8.12136e-05
0.000210762
0.00010427
0.000193816
0.000127462
0.000173327
0.000148894
0.000149234
0.000168651
0.000122348
0.000185527
9.32596e-05
0.000199327
6.25828e-05
0.000209916
3.10404e-05
0.000217155
-1.29838e-06
0.000222007
-3.39163e-05
0.000223635
-6.69796e-05
0.000223809
-9.97342e-05
0.000219779
-0.000131584
0.000212399
-0.000161682
0.000201257
-0.000189316
0.000185819
-0.000213926
0.000167625
-0.000234782
0.000146016
-0.000251581
0.000122496
-0.000264025
9.75884e-05
-0.000272152
7.21746e-05
-0.000276241
4.71812e-05
-0.00027674
2.31421e-05
-0.000273893
2.48464e-07
-0.00026863
-2.06124e-05
-0.000260979
-3.99436e-05
-0.000250943
-5.80075e-05
-0.000238901
-7.45653e-05
-0.000224975
-8.97656e-05
-0.000209065
-0.000103746
-0.000191327
-0.000115937
-0.00017197
-0.000126264
-0.000151128
-0.000134642
-0.000129123
-0.000140627
-0.000106351
-0.0001438
-8.34036e-05
-0.000143726
-6.10008e-05
-0.000140164
-3.99326e-05
-0.000133064
-2.09104e-05
-0.000122766
-4.48251e-06
-0.000109693
8.72155e-06
-9.42439e-05
1.83498e-05
-7.72491e-05
2.45269e-05
-6.01968e-05
2.68353e-05
-4.34955e-05
2.59958e-05
-2.83057e-05
2.35496e-05
-1.62801e-05
2.21959e-05
-1.1332e-05
2.50062e-05
-1.97799e-05
2.78078e-05
-2.76259e-05
8.04674e-05
-3.93933e-05
8.73603e-05
-1.85821e-05
-0.000100707
7.25415e-06
-9.12918e-05
1.51131e-05
-4.92191e-05
1.08583e-05
-2.71735e-05
4.5935e-06
-2.58829e-05
1.15427e-06
-3.52134e-05
2.04861e-06
-4.94439e-05
7.71926e-06
-6.57257e-05
1.7646e-05
-8.25995e-05
3.11599e-05
-9.78222e-05
4.76168e-05
-0.000110596
6.5995e-05
-0.000120157
8.5544e-05
-0.000126334
0.000105305
-0.0001289
0.000124694
-0.000128348
0.000143146
-0.000124883
0.000160457
-0.000119253
0.000176512
-0.000111887
0.000191335
-0.000103375
0.000205152
-9.3557e-05
0.000217415
-8.21556e-05
0.000228586
-6.97954e-05
0.00023822
-5.6082e-05
0.000246636
-4.11201e-05
0.000253541
-2.44676e-05
0.000258613
-6.02223e-06
0.000261274
1.48674e-05
0.000260848
3.78517e-05
0.000256895
6.27408e-05
0.000248566
8.95425e-05
0.000235477
0.000117358
0.000217542
0.000145398
0.000195036
0.000171399
0.000168376
0.000195311
0.000138248
0.000215655
0.000105703
0.000231871
7.18501e-05
0.000243768
3.68758e-05
0.000252129
1.23366e-06
0.000257649
-3.48292e-05
0.000259698
-7.17423e-05
0.000260722
-0.000108474
0.00025651
-0.000144338
0.000248262
-0.000178146
0.000235065
-0.000209334
0.000217006
-0.000236886
0.000195177
-0.000260008
0.000169137
-0.000278137
0.000140626
-0.00029104
0.000110491
-0.000298812
7.99457e-05
-0.000301814
5.01823e-05
-0.000300748
2.20763e-05
-0.000296342
-4.15822e-06
-0.000289391
-2.75636e-05
-0.000280077
-4.92579e-05
-0.000268862
-6.92235e-05
-0.000255542
-8.78863e-05
-0.000240013
-0.000105295
-0.000222394
-0.000121365
-0.000202844
-0.000135488
-0.000181441
-0.000147667
-0.000158174
-0.00015791
-0.000133217
-0.000165584
-0.000107168
-0.000169849
-8.06674e-05
-0.000170227
-5.48303e-05
-0.000166001
-3.04791e-05
-0.000157415
-8.65229e-06
-0.000144593
9.94528e-06
-0.000128291
2.47391e-05
-0.000109037
3.48999e-05
-8.74101e-05
4.03651e-05
-6.5661e-05
4.15489e-05
-4.46792e-05
3.85715e-05
-2.53293e-05
3.34988e-05
-1.12082e-05
3.20562e-05
-9.88998e-06
3.97698e-05
-2.74932e-05
4.3791e-05
-3.16479e-05
0.000124259
-6.08397e-05
0.000148201
-3.64943e-05
-0.000125054
3.3276e-06
-0.000131114
1.80404e-05
-6.39313e-05
1.05918e-05
-1.97248e-05
-2.72144e-06
-1.25703e-05
-1.15639e-05
-2.63715e-05
-1.31943e-05
-4.78129e-05
-7.35529e-06
-7.1564e-05
3.88705e-06
-9.38427e-05
1.97857e-05
-0.00011372
3.92047e-05
-0.000130016
6.11059e-05
-0.000142059
8.41459e-05
-0.000149374
0.000107328
-0.000152082
0.000129564
-0.000150585
0.000150434
-0.000145753
0.000169626
-0.000138446
0.000187107
-0.000129367
0.000203259
-0.000119527
0.000218097
-0.000108396
0.000231788
-9.58465e-05
0.000244324
-8.23353e-05
0.00025568
-6.74389e-05
0.000265777
-5.12177e-05
0.000274635
-3.33258e-05
0.000281913
-1.33006e-05
0.000286816
9.96421e-06
0.000288535
3.61323e-05
0.0002861
6.51755e-05
0.000278893
9.6749e-05
0.000265939
0.000130311
0.000247067
0.00016427
0.000221924
0.000196541
0.000191551
0.000225683
0.000157516
0.000249689
0.000120965
0.000268423
8.27434e-05
0.00028199
4.36617e-05
0.000291211
4.96981e-06
0.000296341
-3.43028e-05
0.00029897
-7.62667e-05
0.000302686
-0.000118673
0.000298916
-0.000159802
0.000289391
-0.000198445
0.000273709
-0.000233933
0.000252494
-0.00026523
0.000226474
-0.000291242
0.000195149
-0.000310738
0.000160122
-0.000323554
0.000123306
-0.000330602
8.69932e-05
-0.000332117
5.16969e-05
-0.00032889
1.88497e-05
-0.000322281
-1.07681e-05
-0.000313086
-3.6758e-05
-0.000302013
-6.03318e-05
-0.000289298
-8.19394e-05
-0.000274618
-0.000102567
-0.000257549
-0.000122364
-0.000238306
-0.000140608
-0.000216846
-0.000156949
-0.000193189
-0.000171324
-0.000167174
-0.000183925
-0.000138858
-0.000193899
-0.000108616
-0.000200091
-7.77047e-05
-0.000201139
-4.72664e-05
-0.00019644
-1.87501e-05
-0.000185931
6.75621e-06
-0.000170099
2.81151e-05
-0.00014965
4.45716e-05
-0.000125494
5.63521e-05
-9.91916e-05
6.11925e-05
-7.05011e-05
5.96634e-05
-4.31511e-05
5.32645e-05
-1.89295e-05
4.69385e-05
-4.88216e-06
4.96334e-05
-1.25839e-05
6.73297e-05
-4.51884e-05
6.88147e-05
-3.31333e-05
0.000193074
-4.3733e-05
0.000191933
1.29387e-05
-0.000181726
4.02185e-05
-0.000158393
3.07391e-05
-5.44515e-05
1.06814e-05
3.31813e-07
-1.25334e-05
1.06444e-05
-2.74965e-05
-1.14076e-05
-3.21837e-05
-4.31259e-05
-2.72163e-05
-7.65324e-05
-1.41845e-05
-0.000106876
5.19567e-06
-0.0001331
2.89022e-05
-0.000153722
5.55014e-05
-0.000168659
8.32858e-05
-0.000177158
0.000110606
-0.000179403
0.000136373
-0.000176352
0.000159887
-0.000169267
0.000181185
-0.000159744
0.000200139
-0.000148321
0.000217485
-0.000136874
0.000233457
-0.000124369
0.000248337
-0.000110727
0.000262318
-9.63163e-05
0.000275334
-8.04542e-05
0.000287603
-6.3486e-05
0.000299246
-4.49699e-05
0.000309281
-2.33355e-05
0.000317285
1.96005e-06
0.000321895
3.15213e-05
0.000322205
6.48655e-05
0.000316723
0.000102231
0.000304035
0.000143
0.000283665
0.000184638
0.000255135
0.000225071
0.000220612
0.000260206
0.000181143
0.000289159
0.000138738
0.000310827
9.48615e-05
0.000325866
5.1519e-05
0.000334553
1.06361e-05
0.000337224
-3.11637e-05
0.00034077
-7.9463e-05
0.000350985
-0.000129866
0.000349319
-0.000178234
0.000337759
-0.000223262
0.000318736
-0.000264207
0.00029344
-0.000300021
0.000262288
-0.00032935
0.000224478
-0.000351264
0.000182036
-0.000364792
0.000136835
-0.00036981
9.20106e-05
-0.000368043
4.99295e-05
-0.000361349
1.21553e-05
-0.000351506
-2.06113e-05
-0.000339993
-4.82707e-05
-0.00032714
-7.31857e-05
-0.000313142
-9.59375e-05
-0.000296944
-0.000118765
-0.000278402
-0.000140906
-0.000257431
-0.000161579
-0.000234054
-0.000180325
-0.000208317
-0.000197061
-0.000179042
-0.0002132
-0.000146557
-0.000226385
-0.000111298
-0.000235351
-7.46099e-05
-0.000237827
-3.83582e-05
-0.000232691
-4.44694e-06
-0.000219842
2.57289e-05
-0.000200276
5.07889e-05
-0.00017471
7.02072e-05
-0.000144913
8.18068e-05
-0.000110791
8.51502e-05
-7.38443e-05
7.98366e-05
-3.78382e-05
7.15773e-05
-1.06694e-05
6.58179e-05
8.76778e-07
6.16461e-05
-8.41252e-06
6.95672e-05
-5.31116e-05
7.41696e-05
-3.77341e-05
0.000267243
6.84993e-05
0.000123433
0.000269462
-0.000382688
0.000248965
-0.000137896
0.000106031
8.84824e-05
1.44069e-05
9.19554e-05
-3.15663e-05
5.66178e-05
-5.41751e-05
1.12007e-05
-6.07122e-05
-3.65889e-05
-5.33919e-05
-8.38526e-05
-3.65369e-05
-0.000123731
-1.30766e-05
-0.000156561
1.63044e-05
-0.000183103
4.92344e-05
-0.000201587
8.32941e-05
-0.000211218
0.000116157
-0.000212266
0.000146089
-0.000206282
0.000172615
-0.000195794
0.000195504
-0.000182633
0.000216138
-0.000168955
0.000233912
-0.000154648
0.000250821
-0.000141276
0.000266904
-0.00012681
0.000281649
-0.00011106
0.000296086
-9.48915e-05
0.000309994
-7.73934e-05
0.000324005
-5.89813e-05
0.000337719
-3.70486e-05
0.000349768
-1.00884e-05
0.000358847
2.24431e-05
0.00036356
6.01529e-05
0.000361649
0.000104142
0.000351676
0.000152973
0.000330646
0.000205669
0.000298609
0.000257109
0.000256497
0.000302318
0.000207945
0.000337711
0.000157053
0.000361719
0.000106632
0.000376287
5.9839e-05
0.000381346
1.80222e-05
0.00037904
-2.55014e-05
0.000384293
-7.98513e-05
0.000405334
-0.000139674
0.000409141
-0.000198186
0.000396271
-0.000252976
0.000373526
-0.000302465
0.000342929
-0.000344549
0.000304372
-0.000376681
0.00025661
-0.000397841
0.000203196
-0.000409054
0.000148049
-0.000411702
9.46578e-05
-0.000406255
4.44831e-05
-0.000395557
1.4578e-06
-0.000381968
-3.42008e-05
-0.000367643
-6.25954e-05
-0.000353361
-8.74674e-05
-0.00033818
-0.000111118
-0.00032123
-0.000135716
-0.000301865
-0.00016027
-0.000279632
-0.000183812
-0.000255161
-0.000204796
-0.000227105
-0.000225118
-0.000195014
-0.00024529
-0.000157851
-0.000263548
-0.000116047
-0.000277154
-7.16532e-05
-0.00028222
-2.75741e-05
-0.00027677
1.33689e-05
-0.000260786
4.8944e-05
-0.000235852
7.85723e-05
-0.000204338
0.0001013
-0.000167641
0.000115982
-0.000125473
0.000119754
-7.76174e-05
0.000109519
-2.76028e-05
9.12009e-05
7.64869e-06
4.9436e-05
4.26416e-05
-4.69236e-05
8.79476e-05
-0.000113564
1.35299e-05
-1.54494e-05
-0.000135849
0.000251794
0.000239731
-0.000116298
0.000568462
-0.00071142
0.000573073
-0.000142508
0.000277546
0.00038401
5.51933e-05
0.000314308
-6.10175e-05
0.000172829
-0.00011424
6.44241e-05
-0.000120321
-3.05076e-05
-0.000101418
-0.000102757
-7.27987e-05
-0.000152349
-3.91249e-05
-0.000190234
-1.17381e-06
-0.000221055
4.02158e-05
-0.000242977
8.19956e-05
-0.000252998
0.000121569
-0.000251839
0.000156669
-0.000241383
0.000186521
-0.000225645
0.000210749
-0.000206861
0.000230849
-0.000189054
0.000248105
-0.000171906
0.000264965
-0.000158136
0.000281302
-0.000143148
0.000297951
-0.000127709
0.000313896
-0.000110836
0.00033001
-9.35075e-05
0.000347315
-7.6286e-05
0.000366023
-5.5757e-05
0.000384516
-2.85817e-05
0.000400838
6.12168e-06
0.000413038
4.79527e-05
0.00041859
9.85911e-05
0.000411982
0.000159581
0.000390098
0.000227553
0.000350314
0.000296892
0.000296382
0.00035625
0.000237261
0.000396833
0.00017882
0.00042016
0.000122946
0.000432161
7.16164e-05
0.000432675
2.51082e-05
0.000425548
-2.38637e-05
0.000433265
-8.34017e-05
0.000464872
-0.000150591
0.00047633
-0.000218921
0.000464601
-0.000284301
0.000438906
-0.000344484
0.000403112
-0.000396226
0.000356114
-0.000436535
0.00029692
-0.000462114
0.000228774
-0.000471876
0.000157811
-0.000467776
9.05583e-05
-0.000454333
3.104e-05
-0.000433831
-1.90452e-05
-0.000411826
-5.62058e-05
-0.000392036
-8.2385e-05
-0.000375521
-0.000103983
-0.000360331
-0.000126308
-0.000343662
-0.000152384
-0.000323314
-0.000180619
-0.00029976
-0.000207367
-0.000275393
-0.000229163
-0.000247315
-0.000253196
-0.000213262
-0.000279344
-0.000170651
-0.000306158
-0.000120275
-0.000327531
-6.59915e-05
-0.000336504
-1.21138e-05
-0.000330648
3.7512e-05
-0.000310412
8.106e-05
-0.000279399
0.000117808
-0.000241086
0.00014944
-0.000199274
0.000173359
-0.000149392
0.000179452
-8.37109e-05
0.000150281
1.56945e-06
7.51177e-05
8.28111e-05
-9.35893e-05
0.000211349
-0.000407794
0.000402152
-0.000469865
7.56018e-05
-0.000180074
-0.000425639
7.17195e-05
0.000293005
-0.000409304
0.00044636
-0.000864773
0.000471802
-0.000167948
0.00022835
0.000627462
5.29401e-06
0.000537364
-0.000128908
0.000307031
-0.000166847
0.000102362
-0.000162446
-3.49087e-05
-0.000141215
-0.000123989
-0.000110404
-0.00018316
-7.42381e-05
-0.0002264
-3.07504e-05
-0.000264542
1.85585e-05
-0.000292286
7.0392e-05
-0.000304832
0.000118734
-0.00030018
0.000161297
-0.000283947
0.000195966
-0.000260315
0.000222082
-0.000232977
0.000241313
-0.000208286
0.000259706
-0.000190298
0.000278492
-0.000176922
0.000297666
-0.000162321
0.000314721
-0.000144765
0.000332565
-0.000128681
0.000353337
-0.00011428
0.00037864
-0.000101588
0.000406501
-8.36182e-05
0.000432988
-5.50689e-05
0.000456219
-1.71094e-05
0.000474793
2.93793e-05
0.000484889
8.84954e-05
0.000481149
0.000163321
0.00045757
0.000251132
0.00041417
0.000340293
0.000357221
0.0004132
0.000297569
0.000456485
0.000237701
0.000480029
0.000172914
0.000496948
0.000102286
0.000503303
2.93077e-05
0.000498527
-4.3826e-05
0.000506398
-0.000119977
0.000541023
-0.000198707
0.00055506
-0.000274065
0.000539959
-0.000342237
0.000507077
-0.000404227
0.0004651
-0.000460694
0.000412581
-0.000507489
0.000343714
-0.000538774
0.000260058
-0.000552032
0.000171068
-0.000547905
8.64316e-05
-0.00052764
1.07746e-05
-0.000493324
-5.33615e-05
-0.000454968
-9.4562e-05
-0.000424278
-0.000113075
-0.000405309
-0.000122951
-0.000393268