/*--------------------------------*- C++ -*----------------------------------*\
| =========                 |                                                 |
| \\      /  F ield         | OpenFOAM: The Open Source CFD Toolbox           |
|  \\    /   O peration     | Version:  2412                                  |
|   \\  /    A nd           | Website:  www.openfoam.com                      |
|    \\/     M anipulation  |                                                 |
\*---------------------------------------------------------------------------*/
FoamFile
{
    version     2.0;
    format      ascii;
    arch        "LSB;label=32;scalar=64";
    class       volScalarField;
    location    "5.04";
    object      p;
}
// * * * * * * * * * * * * * * * * * * * * * * * * * * * * * * * * * * * * * //

dimensions      [1 -1 -2 0 0 0 0];

internalField   nonuniform List<scalar> 
80000
(
29499.8
29499.9
29500.1
29500.4
29500.7
29501.1
29501.6
29502.2
29502.9
29503.7
29504.5
29505.5
29506.5
29507.6
29508.8
29510.1
29511.5
29512.9
29514.5
29516.1
29517.9
29519.7
29521.6
29523.6
29525.7
29527.9
29530.2
29532.5
29535
29537.5
29540.2
29542.9
29545.7
29548.7
29551.7
29554.8
29558
29561.3
29564.7
29568.1
29571.7
29575.4
29579.2
29583
29587
29591.1
29595.2
29599.5
29603.8
29608.3
29612.8
29617.5
29622.2
29627.1
29632
29637.1
29642.3
29647.5
29652.9
29658.3
29663.9
29669.6
29675.3
29681.2
29687.2
29693.3
29699.4
29705.7
29712.1
29718.6
29725.2
29731.9
29738.8
29745.7
29752.7
29759.9
29767.1
29774.5
29781.9
29789.5
29797.2
29804.9
29812.8
29820.8
29829
29837.2
29845.5
29853.9
29862.5
29871.1
29879.9
29888.8
29897.8
29906.9
29916.1
29925.4
29934.8
29944.3
29953.9
29963.7
29973.5
29983.5
29993.6
30003.7
30014
30024.4
30034.9
30045.5
30056.2
30067
30077.9
30088.9
30100
30111.3
30122.6
30134
30145.5
30157.1
30168.8
30180.7
30192.6
30204.6
30216.7
30228.9
30241.2
30253.5
30266
30278.5
30291.2
30303.9
30316.7
30329.6
30342.6
30355.6
30368.8
30382
30395.2
30408.6
30422
30435.5
30449
30462.6
30476.3
30490
30503.8
30517.7
30531.5
30545.5
30559.5
30573.5
30587.6
30601.7
30615.8
30630
30644.2
30658.4
30672.6
30686.9
30701.2
30715.4
30729.7
30744
30758.3
30772.6
30786.9
30801.2
30815.4
30829.6
30843.8
30858
30872.2
30886.3
30900.3
30914.3
30928.3
30942.2
30956
30969.8
30983.5
30997.1
31010.6
31024
31037.4
31050.6
31063.7
31076.8
31089.7
31102.4
31115.1
31127.6
31140
31152.2
31164.3
31176.2
31187.9
31199.5
31210.8
31222
31233
31243.8
31254.4
31264.8
31274.9
31284.8
31294.5
31303.9
31313.1
31322.1
31330.7
31339.1
31347.2
31355
31362.6
31369.8
31376.7
31383.3
31389.6
31395.5
31401.1
31406.3
31411.2
31415.7
31419.9
31423.6
31427
31430
31432.6
31434.8
31436.5
31437.8
31438.7
31439.1
31439.1
31438.7
31437.7
31436.3
31434.4
31432
31429.2
31425.8
31421.9
31417.4
31412.5
31407
31401
31394.4
31387.2
31379.5
31371.3
31362.4
31353
31342.9
31332.3
31321
31309.2
31296.7
31283.6
31269.9
31255.5
31240.5
31224.8
31208.5
31191.5
31173.9
31155.5
31136.6
31116.9
31096.5
31075.5
31053.7
31031.3
31008.2
30984.3
30959.8
30934.5
30908.5
30881.9
30854.5
30826.4
30797.5
30768
30737.7
30706.7
30675
30642.6
30609.4
30575.6
30541
30505.7
30469.7
30433
30395.6
30357.5
30318.7
30279.2
30239.1
30198.2
30156.7
30114.6
30071.8
30028.3
29984.2
29939.5
29894.2
29848.3
29801.9
29754.8
29707.2
29659.1
29610.4
29561.3
29511.6
29461.5
29411
29360
29308.6
29257
29205
29152.5
29099.9
29047
28994
28940.8
28887.4
28833.9
28780.3
28726.6
28673
28619.3
28565.8
28512.4
28459.1
28406.1
28353.3
28300.7
28248.6
28196.7
28145.3
28094.4
28044
27994.1
27944.8
27896.1
27848.1
27800.8
27754.3
27708.5
27663.5
27619.4
27576.2
27533.9
27492.5
27452
27412.6
27374.2
27336.8
27300.5
27265.2
27231.1
27198.1
27166.3
27135.6
27106.1
27077.8
27050.7
27024.9
27000.3
26977
26955
26934.3
26915
26897
26880.4
26865.2
26851.5
26839.1
26828.3
26818.9
26811
26804.7
26799.9
26796.8
26795.2
26795.2
26797
26800.4
26805.5
26812.4
26821
26831.4
26843.6
26857.6
26873.5
26891.2
26910.8
26932.4
26955.8
26981.1
27008.3
27037.5
27068.6
27101.6
27136.5
27173.3
27212
27252.6
27295
27339.2
27385.2
27432.9
27482.3
27533.3
27585.9
27640
27695.5
27752.4
27810.6
27869.9
27930.4
27991.8
28054.2
28117.3
28181.1
28245.4
28310.2
28375.3
28440.5
28505.8
28571
28636
28700.7
28764.8
28828.3
28891.1
28953
29013.8
29073.4
29131.8
29188.8
29244.3
29298.1
29350.2
29400.4
29448.8
29495
29539.1
29581
29620.6
29658
29693
29725.5
29755.6
29783.3
29808.4
29830.9
29850.9
29868.4
29883.3
29895.7
29905.5
29912.8
29917.6
29920
29919.9
29917.4
29912.5
29905.4
29896
29884.3
29870.5
29854.7
29836.8
29816.9
29795.1
29771.6
29746.3
29719.3
29690.8
29660.8
29629.4
29596.7
29562.7
29527.7
29491.6
29454.6
29416.8
29378.3
29339.1
29299.5
29259.4
29219
29178.5
29137.9
29097.4
29057
29016.8
28976.9
28937.5
28898.6
28860.3
28822.8
28786.1
28750.3
28715.5
28681.8
28649.3
28618
28588.1
28559.5
28532.4
28506.8
28482.8
28460.3
28439.6
28420.5
28403.2
28387.6
28373.9
28362
28351.9
28343.6
28337.1
28332.5
28329.8
28328.8
28329.6
28332.1
28336.3
28342.3
28349.9
28359
28369.8
28382
28395.6
28410.5
28426.8
28444.2
28462.7
28482.3
28502.8
28524.2
28546.4
28569.3
28592.7
28616.7
28641.1
28665.8
28690.7
28715.8
28740.9
28766.1
28791.1
28815.9
28840.5
28864.8
28888.6
28912
28934.9
28957.2
28978.9
28999.9
29020.3
29039.9
29058.7
29076.7
29093.9
29110.2
29125.7
29140.3
29154
29166.8
29178.8
29189.8
29199.9
29209.2
29217.5
29224.9
29231.5
29237.1
29241.9
29245.8
29248.9
29251
29252.3
29252.7
29252.3
29251
29248.9
29245.9
29242
29237.3
29231.8
29225.3
29218
29209.8
29200.7
29190.8
29180
29168.3
29155.7
29142.3
29128
29112.8
29096.8
29079.9
29062.1
29043.6
29024.2
29004
28983.1
28961.5
28939.2
28916.2
28892.6
28868.4
28843.8
28818.7
28793.3
28767.5
28741.6
28715.5
28689.4
28663.4
28637.6
28612
28586.7
28562
28537.9
28514.4
28491.8
28470.2
28449.6
28430.1
28411.9
28395.2
28379.8
28366.1
28354
28343.7
28335.2
28328.7
28324.1
28321.5
28321.1
28322.7
28326.6
28332.6
28340.9
28351.5
28364.2
28379.2
28396.4
28415.8
28437.4
28461.1
28486.8
28514.5
28544.2
28575.8
28609.2
28644.2
28680.8
28719
28758.5
28799.3
28841.2
28884.2
28928.1
28972.7
29017.9
29063.5
29109.5
29155.6
29201.8
29247.8
29293.5
29338.7
29383.3
29427.2
29470.1
29511.8
29552.3
29591.4
29628.9
29664.6
29698.5
29730.4
29760.1
29787.5
29812.4
29834.8
29854.5
29871.4
29885.4
29896.4
29904.2
29908.8
29910.2
29908.1
29902.6
29893.6
29881.1
29865
29845.2
29821.8
29794.8
29764.1
29729.8
29691.9
29650.5
29605.7
29557.5
29506
29451.3
29393.4
29332.8
29269.4
29203.3
29134.8
29064.3
28991.7
28917.4
28841.6
28764.5
28686.3
28607.3
28527.8
28448
28368.2
28288.5
28209.3
28130.7
28053.1
27976.5
27901.4
27827.7
27755.8
27685.7
27617.8
27552
27488.6
27427.7
27369.4
27313.7
27260.9
27210.9
27163.9
27119.9
27078.8
27040.9
27006.1
26974.4
26945.8
26920.3
26898
26878.8
26862.7
26849.7
26839.7
26832.7
26828.7
26827.6
26829.4
26834.1
26841.5
26851.6
26864.4
26879.7
26897.6
26918
26940.7
26965.8
26993.2
27022.8
27054.5
27088.3
27124.1
27161.9
27201.6
27243.1
27286.4
27331.4
27378.1
27426.3
27476.1
27527.4
27580.2
27634.3
27689.7
27746.4
27804.4
27863.4
27923.6
27984.8
28047
28110.1
28174
28238.8
28304.3
28370.5
28437.3
28504.6
28572.4
28640.6
28709.2
28778.1
28847.2
28916.4
28985.6
29054.9
29124.2
29193.4
29262.3
29331
29399.3
29467.3
29534.9
29601.8
29668.1
29733.8
29798.7
29862.8
29926.1
29988.5
30050
30110.5
30169.9
30228.2
30285.5
30341.5
30396.4
30450.1
30502.5
30553.6
30603.5
30652
30699.1
30744.9
30789.3
30832.3
30873.9
30914.1
30952.8
30990.1
31025.9
31060.3
31093.2
31124.6
31154.5
31183
31209.9
31235.4
31259.5
31282
31303.1
31322.7
31340.9
31357.7
31373.1
31387
31399.6
31410.8
31420.6
31429.2
31436.4
31442.3
31447
31450.4
31452.6
31453.7
31453.5
31452.2
31449.9
31446.4
31441.9
31436.3
31429.7
31422.2
31413.7
31404.3
31394
31382.9
31370.9
31358.1
31344.6
31330.3
31315.3
31299.6
31283.2
31266.2
31248.6
31230.4
31211.7
31192.4
31172.7
31152.5
31131.9
31110.8
31089.3
31067.5
31045.4
31022.9
31000.2
30977.2
30953.9
30930.5
30906.8
30883
30859
30834.9
30810.6
30786.3
30762
30737.5
30713.1
30688.6
30664.1
30639.7
30615.3
30591
30566.7
30542.5
30518.4
30494.5
30470.6
30446.9
30423.4
30400
30376.8
30353.8
30331
30308.4
30286
30263.9
30242
30220.4
30199
30177.8
30156.9
30136.4
30116
30096
30076.3
30056.9
30037.8
30018.9
30000.4
29982.3
29964.4
29946.9
29929.7
29912.8
29896.2
29880
29864.2
29848.6
29833.4
29818.6
29804.1
29789.9
29776.1
29762.6
29749.5
29736.7
29724.3
29712.2
29700.5
29689.1
29678.1
29667.4
29657.1
29647.1
29637.5
29628.2
29619.2
29610.6
29602.4
29594.5
29586.9
29579.7
29572.8
29566.3
29560.1
29554.3
29548.8
29543.7
29538.9
29534.4
29530.3
29526.5
29523.1
29520
29517.2
29514.8
29512.7
29511
29509.6
29508.6
29507.9
29507.6
28763.8
28763.9
28764.1
28764.4
28764.7
28765.1
28765.7
28766.3
28766.9
28767.7
28768.6
28769.5
28770.5
28771.7
28772.9
28774.2
28775.5
28777
28778.6
28780.2
28781.9
28783.8
28785.7
28787.7
28789.8
28792
28794.2
28796.6
28799.1
28801.6
28804.2
28807
28809.8
28812.7
28815.7
28818.8
28822
28825.3
28828.7
28832.2
28835.8
28839.5
28843.2
28847.1
28851.1
28855.1
28859.3
28863.5
28867.9
28872.3
28876.9
28881.5
28886.3
28891.2
28896.1
28901.2
28906.3
28911.6
28916.9
28922.4
28927.9
28933.6
28939.4
28945.2
28951.2
28957.3
28963.5
28969.8
28976.2
28982.7
28989.3
28996
29002.8
29009.7
29016.8
29023.9
29031.1
29038.5
29046
29053.5
29061.2
29069
29076.9
29084.9
29093
29101.2
29109.5
29118
29126.5
29135.2
29144
29152.8
29161.8
29170.9
29180.1
29189.4
29198.8
29208.4
29218
29227.7
29237.6
29247.5
29257.6
29267.8
29278.1
29288.4
29298.9
29309.5
29320.2
29331
29342
29353
29364.1
29375.3
29386.6
29398.1
29409.6
29421.2
29432.9
29444.7
29456.6
29468.7
29480.8
29493
29505.2
29517.6
29530.1
29542.6
29555.3
29568
29580.8
29593.7
29606.7
29619.7
29632.9
29646.1
29659.3
29672.7
29686.1
29699.6
29713.1
29726.8
29740.4
29754.2
29768
29781.8
29795.7
29809.6
29823.6
29837.7
29851.7
29865.8
29880
29894.2
29908.4
29922.6
29936.8
29951.1
29965.4
29979.7
29994
30008.3
30022.6
30036.9
30051.2
30065.4
30079.7
30093.9
30108.1
30122.3
30136.5
30150.6
30164.6
30178.6
30192.6
30206.5
30220.3
30234.1
30247.8
30261.4
30275
30288.4
30301.8
30315
30328.2
30341.2
30354.1
30366.9
30379.5
30392.1
30404.4
30416.7
30428.8
30440.7
30452.4
30464
30475.4
30486.6
30497.6
30508.4
30519
30529.4
30539.5
30549.4
30559.1
30568.6
30577.8
30586.7
30595.4
30603.8
30611.9
30619.7
30627.3
30634.5
30641.4
30648
30654.3
30660.3
30665.9
30671.1
30676
30680.6
30684.7
30688.5
30691.9
30694.9
30697.5
30699.6
30701.4
30702.7
30703.6
30704.1
30704.1
30703.6
30702.7
30701.3
30699.4
30697
30694.2
30690.8
30686.9
30682.5
30677.5
30672
30666
30659.5
30652.3
30644.6
30636.4
30627.5
30618.1
30608
30597.4
30586.2
30574.3
30561.8
30548.8
30535
30520.7
30505.6
30490
30473.7
30456.7
30439
30420.7
30401.7
30382
30361.7
30340.6
30318.9
30296.5
30273.3
30249.5
30224.9
30199.7
30173.7
30147
30119.6
30091.5
30062.7
30033.1
30002.8
29971.8
29940.1
29907.7
29874.5
29840.6
29806.1
29770.8
29734.7
29698
29660.6
29622.5
29583.7
29544.2
29504
29463.2
29421.6
29379.5
29336.6
29293.2
29249
29204.3
29159
29113.1
29066.5
29019.5
28971.8
28923.7
28875
28825.8
28776.1
28726
28675.4
28624.4
28573
28521.3
28469.2
28416.8
28364.1
28311.2
28258.1
28204.8
28151.4
28097.8
28044.1
27990.4
27936.7
27883.1
27829.5
27776
27722.7
27669.6
27616.7
27564.2
27511.9
27460.1
27408.6
27357.6
27307.2
27257.2
27207.9
27159.2
27111.2
27063.8
27017.2
26971.4
26926.4
26882.3
26839
26796.7
26755.2
26714.8
26675.3
26636.9
26599.5
26563.1
26527.9
26493.8
26460.7
26428.9
26398.2
26368.7
26340.3
26313.3
26287.4
26262.8
26239.5
26217.5
26196.8
26177.5
26159.5
26142.9
26127.6
26113.9
26101.5
26090.6
26081.2
26073.3
26067
26062.2
26059
26057.4
26057.5
26059.2
26062.6
26067.7
26074.5
26083.1
26093.5
26105.6
26119.6
26135.5
26153.2
26172.8
26194.3
26217.7
26243
26270.2
26299.4
26330.5
26363.5
26398.4
26435.3
26474
26514.6
26557
26601.3
26647.3
26695
26744.5
26795.6
26848.2
26902.4
26958
27014.9
27073.2
27132.6
27193.2
27254.7
27317.2
27380.4
27444.3
27508.8
27573.7
27638.9
27704.3
27769.8
27835.1
27900.3
27965.1
28029.4
28093.1
28156
28218
28279
28338.8
28397.3
28454.4
28510
28564
28616.2
28666.5
28715
28761.4
28805.6
28847.6
28887.3
28924.7
28959.8
28992.4
29022.6
29050.2
29075.4
29097.9
29118
29135.4
29150.4
29162.7
29172.5
29179.8
29184.6
29186.9
29186.8
29184.2
29179.3
29172.1
29162.6
29150.9
29137
29121.1
29103.1
29083.1
29061.3
29037.6
29012.2
28985.2
28956.5
28926.4
28894.9
28862.1
28828
28792.9
28756.7
28719.6
28681.6
28643
28603.8
28564
28523.8
28483.3
28442.7
28402
28361.3
28320.8
28280.5
28240.5
28201
28162
28123.6
28086
28049.2
28013.4
27978.5
27944.8
27912.2
27880.8
27850.8
27822.2
27795
27769.4
27745.3
27722.8
27702
27682.9
27665.6
27650
27636.3
27624.3
27614.2
27606
27599.5
27595
27592.2
27591.2
27592
27594.6
27598.9
27604.9
27612.5
27621.8
27632.5
27644.8
27658.5
27673.5
27689.8
27707.3
27725.9
27745.6
27766.2
27787.7
27810
27832.9
27856.5
27880.5
27905
27929.8
27954.8
27980
28005.2
28030.4
28055.5
28080.4
28105.1
28129.4
28153.3
28176.7
28199.7
28222.1
28243.8
28264.9
28285.2
28304.8
28323.7
28341.7
28358.9
28375.3
28390.8
28405.4
28419.1
28431.9
28443.9
28454.9
28465
28474.2
28482.6
28490
28496.5
28502.2
28507
28510.8
28513.9
28516.1
28517.4
28517.8
28517.4
28516.1
28513.9
28511
28507
28502.4
28496.8
28490.3
28483
28474.8
28465.8
28455.8
28445
28433.3
28420.8
28407.3
28393
28377.8
28361.8
28344.8
28327.1
28308.5
28289.1
28268.9
28248
28226.3
28203.9
28180.9
28157.3
28133.1
28108.4
28083.2
28057.7
28031.9
28005.9
27979.8
27953.6
27927.5
27901.5
27875.8
27850.5
27825.7
27801.4
27777.9
27755.2
27733.5
27712.8
27693.2
27675
27658.1
27642.7
27628.9
27616.7
27606.4
27597.8
27591.2
27586.6
27584
27583.5
27585.1
27589
27595
27603.3
27613.8
27626.6
27641.6
27658.8
27678.2
27699.8
27723.5
27749.3
27777.1
27806.9
27838.5
27871.9
27907.1
27943.8
27982
28021.6
28062.5
28104.5
28147.6
28191.6
28236.3
28281.6
28327.4
28373.5
28419.8
28466.1
28512.2
28558
28603.4
28648.1
28692.1
28735.1
28777
28817.6
28856.8
28894.4
28930.3
28964.3
28996.3
29026.1
29053.6
29078.7
29101.2
29121
29138
29152.1
29163.1
29171
29175.7
29177.1
29175.1
29169.7
29160.7
29148.2
29132
29112.3
29088.8
29061.8
29031.1
28996.7
28958.8
28917.3
28872.3
28824
28772.4
28717.5
28659.6
28598.7
28535.1
28468.9
28400.3
28329.6
28256.8
28182.3
28106.3
28029
27950.7
27871.5
27791.8
27711.8
27631.8
27551.9
27472.6
27393.8
27316.1
27239.4
27164.1
27090.3
27018.3
26948.1
26880.1
26814.2
26750.8
26689.8
26631.4
26575.7
26522.9
26472.9
26425.8
26381.8
26340.7
26302.8
26268
26236.3
26207.7
26182.3
26160
26140.8
26124.7
26111.7
26101.8
26094.8
26090.8
26089.8
26091.6
26096.3
26103.7
26113.9
26126.7
26142.1
26160
26180.4
26203.3
26228.4
26255.8
26285.4
26317.2
26351
26386.9
26424.7
26464.4
26506
26549.3
26594.3
26641
26689.3
26739.2
26790.5
26843.3
26897.4
26952.9
27009.7
27067.6
27126.7
27186.9
27248.2
27310.4
27373.5
27437.5
27502.3
27567.8
27634.1
27700.9
27768.3
27836.1
27904.4
27973
28041.9
28111.1
28180.3
28249.6
28319
28388.3
28457.5
28526.5
28595.2
28663.6
28731.7
28799.2
28866.2
28932.6
28998.3
29063.2
29127.4
29190.8
29253.2
29314.7
29375.2
29434.7
29493.1
29550.3
29606.4
29661.3
29715
29767.5
29818.6
29868.5
29917
29964.2
30010
30054.4
30097.4
30139
30179.2
30218
30255.3
30291.1
30325.4
30358.3
30389.8
30419.7
30448.1
30475.1
30500.6
30524.6
30547.2
30568.3
30587.9
30606.1
30622.9
30638.2
30652.1
30664.7
30675.9
30685.7
30694.2
30701.4
30707.4
30712
30715.4
30717.6
30718.6
30718.5
30717.2
30714.8
30711.3
30706.7
30701.2
30694.6
30687
30678.5
30669.1
30658.8
30647.6
30635.6
30622.8
30609.3
30594.9
30579.9
30564.2
30547.8
30530.8
30513.2
30495
30476.2
30457
30437.2
30417
30396.3
30375.2
30353.8
30332
30309.8
30287.3
30264.6
30241.5
30218.3
30194.8
30171.1
30147.3
30123.3
30099.1
30074.9
30050.6
30026.2
30001.8
29977.3
29952.8
29928.3
29903.9
29879.5
29855.1
29830.8
29806.7
29782.6
29758.6
29734.7
29711
29687.5
29664.1
29640.9
29617.9
29595.1
29572.5
29550.1
29528
29506.1
29484.4
29463
29441.9
29421
29400.4
29380.1
29360.1
29340.4
29320.9
29301.8
29283
29264.5
29246.3
29228.5
29210.9
29193.7
29176.8
29160.3
29144.1
29128.2
29112.7
29097.5
29082.6
29068.1
29054
29040.1
29026.7
29013.6
29000.8
28988.4
28976.3
28964.6
28953.2
28942.1
28931.5
28921.1
28911.1
28901.5
28892.2
28883.3
28874.7
28866.4
28858.5
28851
28843.8
28836.9
28830.4
28824.2
28818.4
28812.9
28807.7
28802.9
28798.5
28794.3
28790.6
28787.1
28784
28781.3
28778.9
28776.8
28775.1
28773.7
28772.7
28772
28771.6
28027.8
28027.9
28028
28028.3
28028.6
28029
28029.6
28030.2
28030.8
28031.6
28032.5
28033.4
28034.4
28035.5
28036.7
28038
28039.4
28040.9
28042.4
28044.1
28045.8
28047.6
28049.6
28051.6
28053.7
28055.8
28058.1
28060.5
28062.9
28065.5
28068.1
28070.9
28073.7
28076.6
28079.6
28082.7
28085.9
28089.2
28092.6
28096.1
28099.6
28103.3
28107.1
28111
28114.9
28119
28123.1
28127.4
28131.8
28136.2
28140.8
28145.4
28150.2
28155
28160
28165
28170.2
28175.4
28180.8
28186.2
28191.8
28197.5
28203.2
28209.1
28215.1
28221.2
28227.3
28233.6
28240
28246.5
28253.1
28259.8
28266.7
28273.6
28280.6
28287.7
28295
28302.3
28309.8
28317.4
28325
28332.8
28340.7
28348.7
28356.8
28365.1
28373.4
28381.8
28390.4
28399
28407.8
28416.7
28425.7
28434.7
28443.9
28453.3
28462.7
28472.2
28481.8
28491.6
28501.4
28511.4
28521.5
28531.6
28541.9
28552.3
28562.8
28573.4
28584.1
28594.9
28605.8
28616.8
28628
28639.2
28650.5
28661.9
28673.5
28685.1
28696.8
28708.6
28720.5
28732.6
28744.7
28756.9
28769.2
28781.5
28794
28806.6
28819.2
28831.9
28844.8
28857.7
28870.6
28883.7
28896.8
28910
28923.3
28936.7
28950.1
28963.6
28977.2
28990.8
29004.5
29018.2
29032
29045.9
29059.8
29073.7
29087.7
29101.8
29115.8
29130
29144.1
29158.3
29172.5
29186.7
29201
29215.3
29229.6
29243.9
29258.2
29272.5
29286.8
29301.1
29315.4
29329.7
29344
29358.2
29372.4
29386.6
29400.8
29414.9
29429
29443
29457
29470.9
29484.8
29498.6
29512.3
29525.9
29539.5
29553
29566.3
29579.6
29592.7
29605.8
29618.7
29631.5
29644.2
29656.8
29669.2
29681.4
29693.5
29705.4
29717.2
29728.8
29740.2
29751.4
29762.4
29773.3
29783.9
29794.3
29804.5
29814.4
29824.1
29833.6
29842.8
29851.8
29860.5
29868.9
29877.1
29884.9
29892.5
29899.7
29906.7
29913.3
29919.6
29925.6
29931.2
29936.5
29941.4
29945.9
29950.1
29953.9
29957.3
29960.4
29963
29965.2
29966.9
29968.3
29969.2
29969.7
29969.7
29969.3
29968.4
29967
29965.1
29962.8
29959.9
29956.5
29952.7
29948.3
29943.4
29937.9
29931.9
29925.3
29918.2
29910.5
29902.3
29893.4
29884
29874
29863.4
29852.2
29840.3
29827.9
29814.8
29801.1
29786.7
29771.7
29756
29739.7
29722.8
29705.1
29686.8
29667.8
29648.1
29627.8
29606.7
29585
29562.5
29539.4
29515.6
29491
29465.7
29439.8
29413.1
29385.6
29357.5
29328.7
29299.1
29268.8
29237.8
29206.1
29173.6
29140.4
29106.5
29071.9
29036.6
29000.6
28963.8
28926.4
28888.2
28849.4
28809.8
28769.6
28728.7
28687.2
28645
28602.1
28558.6
28514.4
28469.6
28424.2
28378.3
28331.7
28284.5
28236.9
28188.6
28139.9
28090.6
28040.9
27990.7
27940
27888.9
27837.5
27785.7
27733.5
27681
27628.3
27575.3
27522.1
27468.7
27415.1
27361.4
27307.7
27253.9
27200.1
27146.3
27092.6
27039
26985.6
26932.4
26879.4
26826.8
26774.4
26722.5
26670.9
26619.9
26569.3
26519.3
26469.9
26421.1
26373
26325.5
26278.9
26233
26188
26143.7
26100.4
26058
26016.6
25976.1
25936.6
25898.1
25860.6
25824.3
25789
25754.8
25721.8
25689.9
25659.2
25629.6
25601.3
25574.2
25548.3
25523.7
25500.3
25478.3
25457.6
25438.2
25420.2
25403.5
25388.3
25374.4
25362
25351.1
25341.7
25333.8
25327.4
25322.5
25319.3
25317.6
25317.6
25319.3
25322.6
25327.7
25334.5
25343
25353.3
25365.5
25379.4
25395.2
25412.9
25432.5
25453.9
25477.3
25502.6
25529.8
25559
25590.1
25623.1
25658
25694.9
25733.6
25774.3
25816.8
25861.1
25907.2
25955
26004.5
26055.7
26108.5
26162.8
26218.6
26275.7
26334.1
26393.7
26454.5
26516.2
26578.9
26642.4
26706.6
26771.3
26836.5
26902
26967.6
27033.4
27099.1
27164.5
27229.6
27294.2
27358.2
27421.4
27483.8
27545
27605.2
27664
27721.4
27777.3
27831.5
27883.9
27934.5
27983.3
28029.8
28074.3
28116.5
28156.4
28194
28229.1
28261.9
28292.1
28319.9
28345.1
28367.7
28387.8
28405.3
28420.2
28432.5
28442.3
28449.5
28454.2
28456.5
28456.2
28453.6
28448.6
28441.2
28431.6
28419.8
28405.8
28389.6
28371.5
28351.3
28329.3
28305.4
28279.8
28252.6
28223.7
28193.4
28161.7
28128.6
28094.3
28059
28022.6
27985.2
27947.1
27908.2
27868.7
27828.7
27788.3
27747.6
27706.8
27665.8
27624.9
27584.2
27543.7
27503.5
27463.8
27424.6
27386.1
27348.3
27311.3
27275.3
27240.3
27206.4
27173.6
27142.2
27112
27083.3
27056
27030.3
27006.1
26983.6
26962.7
26943.6
26926.2
26910.6
26896.8
26884.9
26874.7
26866.5
26860.1
26855.5
26852.8
26851.9
26852.7
26855.4
26859.8
26865.8
26873.6
26882.9
26893.8
26906.2
26920
26935.2
26951.6
26969.3
26988.1
27007.9
27028.7
27050.3
27072.8
27095.9
27119.6
27143.9
27168.5
27193.5
27218.7
27244
27269.4
27294.8
27320
27345.1
27369.9
27394.3
27418.4
27442
27465
27487.5
27509.3
27530.5
27550.9
27570.6
27589.5
27607.5
27624.8
27641.2
27656.7
27671.3
27685
27697.9
27709.8
27720.9
27731
27740.2
27748.5
27755.9
27762.5
27768.1
27772.9
27776.7
27779.7
27781.9
27783.2
27783.6
27783.2
27781.9
27779.8
27776.8
27772.9
27768.2
27762.6
27756.1
27748.8
27740.6
27731.6
27721.7
27710.8
27699.2
27686.6
27673.1
27658.8
27643.6
27627.5
27610.6
27592.8
27574.2
27554.7
27534.5
27513.5
27491.7
27469.3
27446.2
27422.4
27398.1
27373.3
27348
27322.4
27296.4
27270.2
27243.9
27217.6
27191.3
27165.1
27139.3
27113.8
27088.7
27064.3
27040.6
27017.7
26995.8
26974.9
26955.2
26936.8
26919.7
26904.2
26890.2
26877.9
26867.4
26858.8
26852
26847.3
26844.6
26844.1
26845.7
26849.5
26855.5
26863.8
26874.3
26887.1
26902.1
26919.4
26938.8
26960.5
26984.3
27010.2
27038.1
27067.9
27099.7
27133.2
27168.5
27205.4
27243.8
27283.6
27324.7
27366.9
27410.2
27454.4
27499.3
27544.9
27590.9
27637.2
27683.8
27730.3
27776.7
27822.8
27868.4
27913.4
27957.7
28000.9
28043.1
28084
28123.4
28161.3
28197.4
28231.7
28263.9
28294
28321.7
28347
28369.7
28389.7
28406.9
28421.1
28432.3
28440.4
28445.2
28446.7
28444.8
28439.4
28430.5
28418
28401.9
28382.1
28358.6
28331.5
28300.7
28266.2
28228.2
28186.5
28141.4
28092.8
28040.9
27985.8
27927.6
27866.4
27802.5
27736
27667.1
27595.9
27522.8
27447.9
27371.5
27293.8
27215.1
27135.6
27055.5
26975.1
26894.7
26814.6
26734.9
26655.8
26577.8
26500.8
26425.2
26351.2
26279
26208.6
26140.4
26074.4
26010.8
25949.7
25891.2
25835.5
25782.5
25732.5
25685.4
25641.3
25600.3
25562.3
25527.5
25495.8
25467.3
25441.9
25419.6
25400.5
25384.4
25371.5
25361.6
25354.7
25350.8
25349.9
25351.8
25356.5
25364.1
25374.3
25387.2
25402.7
25420.7
25441.2
25464.1
25489.3
25516.8
25546.5
25578.3
25612.3
25648.2
25686.1
25725.9
25767.5
25810.9
25856
25902.8
25951.1
26001
26052.4
26105.3
26159.5
26215
26271.8
26329.9
26389
26449.3
26510.6
26572.9
26636.1
26700.2
26765.1
26830.7
26897
26963.9
27031.3
27099.3
27167.6
27236.3
27305.4
27374.6
27443.9
27513.4
27582.8
27652.2
27721.5
27790.6
27859.5
27927.9
27996
28063.7
28130.8
28197.2
28263
28328.1
28392.3
28455.8
28518.3
28579.9
28640.4
28700
28758.4
28815.8
28871.9
28926.9
28980.6
29033.1
29084.3
29134.2
29182.8
29230
29275.8
29320.3
29363.4
29405
29445.2
29484
29521.3
29557.1
29591.5
29624.4
29655.8
29685.8
29714.2
29741.2
29766.7
29790.7
29813.3
29834.3
29854
29872.1
29888.9
29904.2
29918.1
29930.7
29941.8
29951.7
29960.1
29967.3
29973.2
29977.8
29981.2
29983.4
29984.3
29984.2
29982.8
29980.4
29976.8
29972.3
29966.6
29960
29952.4
29943.9
29934.4
29924.1
29912.9
29900.8
29888
29874.4
29860
29845
29829.2
29812.8
29795.7
29778.1
29759.8
29741
29721.7
29702
29681.7
29661
29639.9
29618.4
29596.5
29574.3
29551.8
29529
29506
29482.7
29459.2
29435.5
29411.6
29387.6
29363.4
29339.2
29314.8
29290.4
29266
29241.5
29217
29192.5
29168
29143.6
29119.2
29094.9
29070.7
29046.6
29022.6
28998.8
28975
28951.5
28928.1
28904.9
28881.9
28859
28836.4
28814.1
28791.9
28770
28748.3
28726.9
28705.8
28684.9
28664.3
28644
28623.9
28604.2
28584.8
28565.7
28546.8
28528.3
28510.2
28492.3
28474.8
28457.5
28440.7
28424.1
28407.9
28392
28376.5
28361.3
28346.5
28332
28317.8
28304
28290.5
28277.4
28264.6
28252.2
28240.1
28228.4
28217
28206
28195.3
28185
28175
28165.4
28156.1
28147.1
28138.5
28130.3
28122.4
28114.8
28107.6
28100.8
28094.2
28088.1
28082.2
28076.7
28071.6
28066.8
28062.3
28058.2
28054.4
28051
28047.9
28045.2
28042.8
28040.7
28039
28037.6
28036.6
28035.9
28035.5
27291.5
27291.6
27291.7
27292
27292.3
27292.7
27293.3
27293.9
27294.5
27295.3
27296.2
27297.1
27298.1
27299.2
27300.4
27301.7
27303.1
27304.6
27306.1
27307.8
27309.5
27311.3
27313.3
27315.3
27317.3
27319.5
27321.8
27324.2
27326.6
27329.2
27331.8
27334.5
27337.4
27340.3
27343.3
27346.4
27349.6
27352.9
27356.3
27359.8
27363.3
27367
27370.8
27374.6
27378.6
27382.7
27386.8
27391.1
27395.4
27399.9
27404.4
27409.1
27413.8
27418.7
27423.6
27428.7
27433.8
27439.1
27444.4
27449.9
27455.4
27461.1
27466.9
27472.7
27478.7
27484.8
27491
27497.3
27503.7
27510.2
27516.8
27523.5
27530.3
27537.2
27544.2
27551.4
27558.6
27566
27573.4
27581
27588.7
27596.5
27604.4
27612.4
27620.5
27628.7
27637
27645.5
27654
27662.7
27671.4
27680.3
27689.3
27698.4
27707.6
27716.9
27726.3
27735.8
27745.5
27755.2
27765.1
27775
27785.1
27795.3
27805.6
27816
27826.5
27837.1
27847.8
27858.6
27869.5
27880.5
27891.7
27902.9
27914.2
27925.6
27937.2
27948.8
27960.5
27972.3
27984.3
27996.3
28008.4
28020.6
28032.9
28045.3
28057.8
28070.3
28083
28095.7
28108.6
28121.5
28134.4
28147.5
28160.7
28173.9
28187.2
28200.5
28214
28227.5
28241.1
28254.7
28268.4
28282.1
28295.9
28309.8
28323.7
28337.7
28351.7
28365.8
28379.9
28394
28408.2
28422.4
28436.6
28450.8
28465.1
28479.4
28493.7
28508
28522.4
28536.7
28551
28565.4
28579.7
28594
28608.3
28622.6
28636.8
28651
28665.2
28679.3
28693.5
28707.5
28721.5
28735.5
28749.3
28763.2
28776.9
28790.6
28804.1
28817.6
28831
28844.3
28857.5
28870.6
28883.5
28896.4
28909.1
28921.7
28934.1
28946.4
28958.5
28970.5
28982.2
28993.9
29005.3
29016.6
29027.6
29038.5
29049.1
29059.6
29069.8
29079.8
29089.5
29099
29108.3
29117.3
29126
29134.5
29142.6
29150.5
29158.1
29165.4
29172.4
29179.1
29185.4
29191.4
29197
29202.4
29207.3
29211.9
29216.1
29220
29223.4
29226.4
29229.1
29231.3
29233.1
29234.5
29235.5
29236
29236
29235.6
29234.7
29233.4
29231.6
29229.2
29226.4
29223.1
29219.2
29214.9
29210
29204.5
29198.6
29192
29184.9
29177.3
29169.1
29160.2
29150.8
29140.8
29130.2
29119
29107.2
29094.8
29081.7
29068
29053.7
29038.7
29023
29006.7
28989.7
28972.1
28953.8
28934.8
28915.1
28894.8
28873.7
28852
28829.6
28806.4
28782.6
28758
28732.7
28706.7
28680
28652.6
28624.4
28595.6
28566
28535.7
28504.6
28472.9
28440.4
28407.2
28373.2
28338.6
28303.2
28267.2
28230.4
28192.9
28154.7
28115.8
28076.2
28035.9
27995
27953.4
27911.1
27868.1
27824.5
27780.3
27735.5
27690
27643.9
27597.3
27550
27502.3
27453.9
27405.1
27355.7
27305.9
27255.6
27204.8
27153.6
27102
27050.1
26997.8
26945.2
26892.3
26839.2
26785.8
26732.3
26678.6
26624.7
26570.8
26516.9
26462.9
26409
26355.1
26301.4
26247.8
26194.5
26141.4
26088.5
26036.1
25983.9
25932.3
25881.1
25830.4
25780.2
25730.7
25681.8
25633.5
25586
25539.2
25493.3
25448.1
25403.8
25360.4
25317.9
25276.4
25235.8
25196.3
25157.7
25120.3
25083.8
25048.5
25014.3
24981.2
24949.3
24918.5
24888.9
24860.5
24833.4
24807.5
24782.8
24759.4
24737.4
24716.6
24697.2
24679.1
24662.4
24647.1
24633.2
24620.7
24609.8
24600.2
24592.3
24585.8
24580.9
24577.6
24575.9
24575.8
24577.4
24580.6
24585.6
24592.3
24600.8
24611
24623.1
24637
24652.7
24670.4
24689.9
24711.3
24734.6
24759.9
24787.1
24816.2
24847.3
24880.3
24915.3
24952.2
24991
25031.7
25074.2
25118.6
25164.8
25212.8
25262.5
25313.9
25366.8
25421.3
25477.3
25534.7
25593.3
25653.2
25714.3
25776.4
25839.4
25903.2
25967.7
26032.9
26098.4
26164.4
26230.5
26296.7
26362.8
26428.7
26494.3
26559.4
26623.8
26687.5
26750.3
26812.1
26872.6
26931.9
26989.8
27046.1
27100.7
27153.5
27204.5
27253.6
27300.5
27345.2
27387.7
27427.9
27465.7
27501.1
27534
27564.4
27592.3
27617.6
27640.3
27660.4
27677.9
27692.8
27705.1
27714.8
27722
27726.6
27728.7
27728.4
27725.6
27720.4
27712.9
27703
27691
27676.7
27660.4
27641.9
27621.5
27599.2
27575.1
27549.2
27521.6
27492.4
27461.8
27429.7
27396.3
27361.7
27326
27289.3
27251.6
27213.1
27173.9
27134
27093.7
27052.9
27011.9
26970.7
26929.5
26888.2
26847.2
26806.3
26765.9
26725.8
26686.4
26647.6
26609.5
26572.3
26536
26500.8
26466.6
26433.7
26402
26371.7
26342.8
26315.4
26289.5
26265.2
26242.6
26221.6
26202.4
26184.9
26169.3
26155.5
26143.5
26133.4
26125.1
26118.7
26114.2
26111.6
26110.7
26111.7
26114.4
26118.9
26125.1
26133
26142.5
26153.6
26166.2
26180.2
26195.5
26212.2
26230.1
26249.1
26269.2
26290.3
26312.2
26334.9
26358.3
26382.3
26406.8
26431.7
26456.9
26482.4
26508
26533.6
26559.2
26584.7
26610
26635
26659.7
26683.9
26707.7
26730.9
26753.5
26775.5
26796.7
26817.3
26837
26856
26874.2
26891.5
26907.9
26923.4
26938.1
26951.9
26964.7
26976.6
26987.7
26997.8
27007
27015.3
27022.7
27029.2
27034.8
27039.6
27043.4
27046.4
27048.6
27049.8
27050.2
27049.8
27048.5
27046.4
27043.4
27039.5
27034.8
27029.2
27022.8
27015.4
27007.3
26998.2
26988.3
26977.5
26965.8
26953.2
26939.7
26925.4
26910.1
26894
26877
26859.2
26840.5
26821
26800.7
26779.6
26757.7
26735.2
26711.9
26688
26663.6
26638.5
26613.1
26587.2
26561
26534.6
26508.1
26481.5
26454.9
26428.5
26402.3
26376.5
26351.2
26326.5
26302.5
26279.3
26257.1
26236
26216
26197.3
26180
26164.2
26150
26137.6
26126.9
26118
26111.2
26106.3
26103.5
26102.8
26104.3
26108.1
26114.1
26122.3
26132.8
26145.6
26160.7
26178
26197.6
26219.3
26243.2
26269.3
26297.3
26327.4
26359.3
26393.1
26428.6
26465.7
26504.3
26544.4
26585.8
26628.3
26671.9
26716.4
26761.7
26807.6
26854
26900.7
26947.6
26994.5
27041.4
27087.8
27133.9
27179.3
27223.9
27267.5
27310.1
27351.4
27391.2
27429.5
27466
27500.6
27533.2
27563.6
27591.7
27617.3
27640.3
27660.6
27678.1
27692.6
27704
27712.3
27717.3
27719
27717.2
27711.9
27703.1
27690.7
27674.6
27654.7
27631.2
27604
27573.1
27538.4
27500.1
27458.2
27412.8
27363.9
27311.7
27256.2
27197.5
27135.9
27071.5
27004.5
26935
26863.3
26789.7
26714.2
26637.2
26558.9
26479.6
26399.5
26318.9
26238
26157
26076.4
25996.1
25916.7
25838.1
25760.8
25684.8
25610.5
25537.9
25467.3
25398.8
25332.5
25268.7