/*--------------------------------*- C++ -*----------------------------------*\
| =========                 |                                                 |
| \\      /  F ield         | OpenFOAM: The Open Source CFD Toolbox           |
|  \\    /   O peration     | Version:  2412                                  |
|   \\  /    A nd           | Website:  www.openfoam.com                      |
|    \\/     M anipulation  |                                                 |
\*---------------------------------------------------------------------------*/
FoamFile
{
    version     2.0;
    format      ascii;
    arch        "LSB;label=32;scalar=64";
    class       surfaceScalarField;
    location    "9.8";
    object      phi;
}
// * * * * * * * * * * * * * * * * * * * * * * * * * * * * * * * * * * * * * //

dimensions      [0 3 -1 0 0 0 0];

oriented        oriented;

internalField   nonuniform List<scalar> 
12640
(
8.50859e-06
-8.50859e-06
2.1277e-05
-1.27693e-05
3.27747e-05
-1.14984e-05
4.32715e-05
-1.04974e-05
5.33341e-05
-1.00632e-05
6.30631e-05
-9.72951e-06
7.23943e-05
-9.33164e-06
8.11948e-05
-8.80086e-06
8.93603e-05
-8.16587e-06
9.6747e-05
-7.38689e-06
0.000103185
-6.43775e-06
0.000108627
-5.44265e-06
0.000112807
-4.17973e-06
0.000115488
-2.681e-06
0.000116651
-1.16313e-06
0.00011639
2.60491e-07
0.000114692
1.69811e-06
0.000111575
3.11682e-06
0.000107089
4.48652e-06
0.000101314
5.77527e-06
9.43557e-05
6.95815e-06
8.63445e-05
8.01137e-06
7.74211e-05
8.92344e-06
6.7727e-05
9.694e-06
5.7502e-05
1.02249e-05
4.69514e-05
1.05506e-05
3.64729e-05
1.04784e-05
2.6495e-05
9.97767e-06
1.7392e-05
9.10268e-06
9.48139e-06
7.91012e-06
2.83306e-06
6.64763e-06
-2.41791e-06
5.25029e-06
-6.26734e-06
3.84895e-06
-8.3791e-06
2.11144e-06
-8.69581e-06
3.1716e-07
-7.16229e-06
-1.53281e-06
-3.94998e-06
-3.21195e-06
6.98833e-07
-4.64799e-06
6.42893e-06
-5.72965e-06
1.28208e-05
-6.39224e-06
1.93814e-05
-6.56093e-06
2.56931e-05
-6.31199e-06
3.12653e-05
-5.573e-06
3.56502e-05
-4.38648e-06
3.84565e-05
-2.80892e-06
3.9365e-05
-9.11393e-07
3.81429e-05
1.21999e-06
3.47566e-05
3.38501e-06
2.93685e-05
5.38768e-06
2.22044e-05
7.16415e-06
1.33856e-05
8.8191e-06
3.08231e-06
1.03039e-05
-8.49075e-06
1.15738e-05
-2.09059e-05
1.24161e-05
-3.3757e-05
1.28522e-05
-4.66756e-05
1.29197e-05
-5.94014e-05
1.2727e-05
-7.18007e-05
1.24006e-05
-8.37312e-05
1.19315e-05
-9.50214e-05
1.12904e-05
-0.000105531
1.05098e-05
-0.000115129
9.5978e-06
-0.000123676
8.54764e-06
-0.000131015
7.33874e-06
-0.000136915
5.89993e-06
-0.000141086
4.17154e-06
-0.000143424
2.33797e-06
-0.000143851
4.27768e-07
-0.000142199
-1.65214e-06
-0.000138299
-3.90034e-06
-0.000131986
-6.31271e-06
-0.000123429
-8.55742e-06
-0.000112682
-1.07466e-05
-0.000100138
-1.25423e-05
-8.60659e-05
-1.40718e-05
-7.06333e-05
-1.54338e-05
-5.3909e-05
-1.67251e-05
-3.54327e-05
-1.84758e-05
-1.52622e-05
-2.01711e-05
-1.52633e-05
6.40243e-06
-1.49118e-05
1.72662e-05
-2.36344e-05
2.69053e-05
-2.11386e-05
3.60498e-05
-1.9643e-05
4.54325e-05
-1.94469e-05
5.50753e-05
-1.93732e-05
6.48798e-05
-1.91368e-05
7.46972e-05
-1.86189e-05
8.42095e-05
-1.76786e-05
9.31003e-05
-1.62782e-05
0.000101085
-1.44225e-05
0.00010787
-1.22276e-05
0.00011327
-9.58047e-06
0.000117234
-6.64529e-06
0.000119674
-3.60351e-06
0.000120396
-4.61264e-07
0.000119364
2.73038e-06
0.00011666
5.82124e-06
0.000112372
8.77406e-06
0.000106668
1.14795e-05
9.9784e-05
1.38425e-05
9.19726e-05
1.58229e-05
8.35354e-05
1.73607e-05
7.48182e-05
1.84113e-05
6.60465e-05
1.89965e-05
5.75933e-05
1.90034e-05
4.95618e-05
1.85095e-05
4.21164e-05
1.74222e-05
3.52683e-05
1.59496e-05
2.9107e-05
1.40702e-05
2.37842e-05
1.19693e-05
1.94478e-05
9.58592e-06
1.62403e-05
7.05646e-06
1.39108e-05
4.44084e-06
1.24917e-05
1.73594e-06
1.18001e-05
-8.41131e-07
1.17915e-05
-3.2036e-06
1.23149e-05
-5.17194e-06
1.32546e-05
-6.66978e-06
1.44136e-05
-7.55197e-06
1.56176e-05
-7.7661e-06
1.66353e-05
-7.33129e-06
1.73453e-05
-6.28516e-06
1.75727e-05
-4.61547e-06
1.71741e-05
-2.41075e-06
1.60824e-05
1.80946e-07
1.41539e-05
3.14961e-06
1.12448e-05
6.29489e-06
7.11036e-06
9.52256e-06
1.71343e-06
1.25615e-05
-4.92702e-06
1.54602e-05
-1.26842e-05
1.80623e-05
-2.14795e-05
2.03705e-05
-3.13113e-05
2.22491e-05
-4.20883e-05
2.36307e-05
-5.36284e-05
2.44612e-05
-6.56706e-05
2.47701e-05
-7.7885e-05
2.46154e-05
-8.99251e-05
2.39718e-05
-0.000101465
2.28302e-05
-0.000112219
2.12645e-05
-0.000121885
1.92639e-05
-0.000130211
1.68737e-05
-0.000136941
1.40679e-05
-0.00014195
1.09083e-05
-0.000145107
7.32808e-06
-0.000146282
3.51222e-06
-0.000145384
-4.7125e-07
-0.000142326
-4.71088e-06
-0.000137076
-9.15128e-06
-0.000129689
-1.37004e-05
-0.000120183
-1.80627e-05
-0.000108831
-2.20986e-05
-9.57647e-05
-2.56088e-05
-8.14131e-05
-2.84243e-05
-6.63396e-05
-3.05079e-05
-5.03808e-05
-3.26834e-05
-3.28923e-05
-3.59651e-05
-1.36313e-05
-3.94323e-05
-2.88946e-05
7.18425e-06
-2.20967e-05
1.88788e-05
-3.53303e-05
2.92628e-05
-3.15238e-05
3.89095e-05
-2.92908e-05
4.86605e-05
-2.91989e-05
5.87732e-05
-2.94869e-05
6.89782e-05
-2.93426e-05
7.88411e-05
-2.84825e-05
8.83038e-05
-2.71419e-05
9.71475e-05
-2.51224e-05
0.000105004
-2.22791e-05
0.000111619
-1.88436e-05
0.000116823
-1.47848e-05
0.000120558
-1.03805e-05
0.000122647
-5.69283e-06
0.000123027
-8.41257e-07
0.000121702
4.05509e-06
0.000118726
8.79752e-06
0.000114178
1.33219e-05
0.000108189
1.74695e-05
0.00010095
2.10814e-05
9.26854e-05
2.40877e-05
8.36625e-05
2.63836e-05
7.41177e-05
2.7956e-05
6.43946e-05
2.87191e-05
5.47122e-05
2.86851e-05
4.53865e-05
2.78343e-05
3.66149e-05
2.6193e-05
2.85677e-05
2.3996e-05
2.13559e-05
2.12813e-05
1.52967e-05
1.80278e-05
1.04711e-05
1.44103e-05
7.01133e-06
1.05146e-05
4.92749e-06
6.52319e-06
4.0981e-06
2.56417e-06
4.42346e-06
-1.16796e-06
5.7402e-06
-4.52155e-06
7.89944e-06
-7.33161e-06
1.0678e-05
-9.44843e-06
1.384e-05
-1.07137e-05
1.71101e-05
-1.1035e-05
2.01267e-05
-1.03448e-05
2.2627e-05
-8.78032e-06
2.43307e-05
-6.3136e-06
2.5025e-05
-3.10083e-06
2.46145e-05
5.9377e-07
2.29775e-05
4.78732e-06
1.99467e-05
9.32583e-06
1.53661e-05
1.41032e-05
9.26132e-06
1.86665e-05
1.60903e-06
2.31123e-05
-7.35426e-06
2.70249e-05
-1.74021e-05
3.04175e-05
-2.8386e-05
3.32322e-05
-4.01317e-05
3.53753e-05
-5.24462e-05
3.67743e-05
-6.5072e-05
3.73952e-05
-7.7721e-05
3.72643e-05
-9.00971e-05
3.63482e-05
-0.000101931
3.46638e-05
-0.000112902
3.2235e-05
-0.000122815
2.91754e-05
-0.000131433
2.54904e-05
-0.000138635
2.12682e-05
-0.000144233
1.6505e-05
-0.000148135
1.12291e-05
-0.000150214
5.5905e-06
-0.000150178
-5.08192e-07
-0.000147886
-7.00296e-06
-0.00014332
-1.37177e-05
-0.000136305
-2.07168e-05
-0.000126886
-2.74813e-05
-0.000115153
-3.38312e-05
-0.000101531
-3.92296e-05
-8.64761e-05
-4.34806e-05
-7.03878e-05
-4.6596e-05
-5.34125e-05
-4.96579e-05
-3.47113e-05
-5.46663e-05
-1.4315e-05
-5.98308e-05
-4.32066e-05
7.22191e-06
-2.93194e-05
1.93213e-05
-4.74312e-05
3.00205e-05
-4.22244e-05
3.97956e-05
-3.90672e-05
4.96979e-05
-3.91025e-05
5.98858e-05
-3.96758e-05
7.02745e-05
-3.97324e-05
8.07937e-05
-3.90027e-05
9.09154e-05
-3.72645e-05
0.000100274
-3.44813e-05
0.000108693
-3.06988e-05
0.000115711
-2.58623e-05
0.000121392
-2.0466e-05
0.000125339
-1.43282e-05
0.000127519
-7.873e-06
0.0001278
-1.12262e-06
0.00012626
5.59544e-06
0.00012291
1.21482e-05
0.000117881
1.83509e-05
0.00011132
2.40305e-05
0.00010341
2.89919e-05
9.43922e-05
3.31062e-05
8.44656e-05
3.63106e-05
7.39689e-05
3.84529e-05
6.31806e-05
3.95076e-05
5.24239e-05
3.9442e-05
4.19945e-05
3.82638e-05
3.20669e-05
3.61208e-05
2.30428e-05
3.30206e-05
1.51027e-05
2.92217e-05
8.51422e-06
2.46166e-05
3.23912e-06
1.96857e-05
-5.63121e-07
1.43166e-05
-2.80322e-06
8.76195e-06
-3.46537e-06
3.22534e-06
-2.63747e-06
-1.99691e-06
-3.29614e-07
-6.82979e-06
3.24286e-06
-1.09037e-05
7.84031e-06
-1.40454e-05
1.30719e-05
-1.59445e-05
1.85399e-05
-1.65021e-05
2.36807e-05
-1.54852e-05
2.8039e-05
-1.31391e-05
3.12655e-05
-9.54128e-06
3.30809e-05
-4.91754e-06
3.32822e-05
3.91754e-07
3.18466e-05
6.22278e-06
2.86649e-05
1.25074e-05
2.38205e-05
1.89469e-05
1.71776e-05
2.53081e-05
8.88867e-06
3.13999e-05
-9.58651e-07
3.68713e-05
-1.21088e-05
4.15669e-05
-2.42812e-05
4.54044e-05
-3.7225e-05
4.83196e-05
-5.06604e-05
5.02105e-05
-6.43263e-05
5.10622e-05
-7.79137e-05
5.08526e-05
-9.11471e-05
4.95821e-05
-0.000103737
4.72539e-05
-0.000115446
4.3945e-05
-0.00012603
3.97606e-05
-0.000135302
3.47635e-05
-0.000143154
2.91215e-05
-0.000149454
2.28073e-05
-0.000154012
1.57882e-05
-0.00015656
8.14036e-06
-0.000156923
-1.42682e-07
-0.000154981
-8.94448e-06
-0.000150525
-1.8174e-05
-0.000143478
-2.77623e-05
-0.00013362
-3.73396e-05
-0.000121202
-4.62509e-05
-0.000106521
-5.39124e-05
-9.03818e-05
-5.96209e-05
-7.33816e-05
-6.35962e-05
-5.55076e-05
-6.75351e-05
-3.57905e-05
-7.4383e-05
-1.47082e-05
-8.09142e-05
-5.79165e-05
6.90299e-06
-3.62232e-05
1.90107e-05
-5.95405e-05
2.97529e-05
-5.29681e-05
3.94409e-05
-4.87565e-05
4.9448e-05
-4.91108e-05
6.01291e-05
-5.03581e-05
7.12881e-05
-5.08924e-05
8.2646e-05
-5.03617e-05
9.37347e-05
-4.83542e-05
0.000104146
-4.48934e-05
0.000113354
-3.99076e-05
0.000121351
-3.386e-05
0.000127607
-2.67226e-05
0.000132003
-1.87243e-05
0.000134394
-1.02635e-05
0.000134721
-1.44996e-06
0.000132982
7.33519e-06
0.000129248
1.58821e-05
0.000123654
2.39459e-05
0.000116393
3.12924e-05
0.000107634
3.77513e-05
9.76227e-05
4.31183e-05
8.6675e-05
4.72588e-05
7.50703e-05
5.00581e-05
6.31496e-05
5.14285e-05
5.1288e-05
5.1304e-05
3.98084e-05
4.97439e-05
2.90854e-05
4.68441e-05
1.93539e-05
4.27524e-05
1.09155e-05
3.76604e-05
3.66709e-06
3.18645e-05
-1.97793e-06
2.53303e-05
-5.95622e-06
1.82953e-05
-8.24119e-06
1.10478e-05
-8.79137e-06
3.7773e-06
-7.5286e-06
-3.25889e-06
-4.58898e-06
-9.76915e-06
-5.55545e-08
-1.54368e-05
5.76277e-06
-1.98644e-05
1.24493e-05
-2.26332e-05
1.94211e-05
-2.34773e-05
2.60525e-05
-2.2121e-05
3.17191e-05
-1.88097e-05
3.5984e-05
-1.3809e-05
3.86073e-05
-7.5422e-06
3.93843e-05
-3.85642e-07
3.82497e-05
7.35751e-06
3.51653e-05
1.55924e-05
3.01549e-05
2.39587e-05
2.31853e-05
3.22799e-05
1.44302e-05
4.01579e-05
3.94484e-06
4.73599e-05
-8.01513e-06
5.353e-05
-2.11748e-05
5.85669e-05
-3.5198e-05
6.23447e-05
-4.97646e-05
6.47779e-05
-6.45874e-05
6.58854e-05
-7.93277e-05
6.55933e-05
-9.36502e-05
6.39052e-05
-0.000107229
6.08334e-05
-0.000119834
5.65494e-05
-0.000131236
5.11632e-05
-0.000141275
4.48022e-05
-0.000149847
3.76922e-05
-0.000156816
2.9776e-05
-0.00016196
2.0932e-05
-0.000165056
1.12349e-05
-0.00016595
7.51511e-07
-0.000164405
-1.04902e-05
-0.000160213
-2.2367e-05
-0.000152933
-3.50444e-05
-0.000142384
-4.78904e-05
-0.000128576
-6.00594e-05
-0.000112452
-7.00371e-05
-9.48962e-05
-7.71768e-05
-7.66134e-05
-8.18805e-05
-5.76624e-05
-8.64857e-05
-3.69825e-05
-9.50653e-05
-1.49646e-05
-0.000102931
-7.28844e-05
6.5819e-06
-4.28061e-05
1.86403e-05
-7.16005e-05
2.92382e-05
-6.35673e-05
3.86439e-05
-5.81633e-05
4.86211e-05
-5.9089e-05
5.98353e-05
-6.15733e-05
7.21441e-05
-6.32021e-05
8.49007e-05
-6.31193e-05
9.74227e-05
-6.08769e-05
0.000109044
-5.65157e-05
0.000119636
-5.04999e-05
0.00012859
-4.28142e-05
0.000135662
-3.37947e-05
0.000140645
-2.37069e-05
0.000143314
-1.29326e-05
0.000143647
-1.78315e-06
0.000141713
9.2695e-06
0.000137543
2.0052e-05
0.000131292
3.01968e-05
0.000123153
3.94326e-05
0.000113358
4.75463e-05
0.000102162
5.43148e-05
8.98692e-05
5.9552e-05
7.68483e-05
6.30793e-05
6.34962e-05
6.47804e-05
5.02209e-05
6.45787e-05
3.74345e-05
6.25294e-05
2.55123e-05
5.87656e-05
1.4752e-05
5.35118e-05
5.38474e-06
4.70276e-05
-2.3693e-06
3.96191e-05
-8.34647e-06
3.13081e-05
-1.25003e-05
2.24494e-05
-1.47596e-05
1.33067e-05
-1.50599e-05
4.07736e-06
-1.33281e-05
-4.99136e-06
-9.58201e-06
-1.35161e-05
-3.95396e-06
-2.10657e-05
3.35034e-06
-2.71698e-05
1.17086e-05
-3.09926e-05
2.04886e-05
-3.22576e-05
2.88151e-05
-3.04462e-05
3.59606e-05
-2.59526e-05
4.14465e-05
-1.9292e-05
4.50183e-05
-1.11114e-05
4.64563e-05
-1.82167e-06
4.57344e-05
8.08109e-06
4.2847e-05
1.84816e-05
3.76923e-05
2.91151e-05
3.03217e-05
3.96521e-05
2.08864e-05
4.95941e-05
9.55992e-06
5.86863e-05
-3.43078e-06
6.652e-05
-1.77744e-05
7.29098e-05
-3.31078e-05
7.76777e-05
-4.91161e-05
8.07861e-05
-6.53579e-05
8.2127e-05
-8.15187e-05
8.17537e-05
-9.71462e-05
7.95319e-05
-0.000111951
7.56374e-05
-0.000125669
7.02661e-05
-0.00013809
6.35839e-05
-0.000149063
5.57756e-05
-0.000158418
4.70463e-05
-0.000166071
3.7429e-05
-0.000171867
2.67281e-05
-0.000175678
1.50456e-05
-0.000177364
2.43698e-06
-0.000176604
-1.12508e-05
-0.000172854
-2.6116e-05
-0.000165648
-4.22496e-05
-0.000154244
-5.92938e-05
-0.000138829
-7.54743e-05
-0.000120238
-8.86283e-05
-0.000100264
-9.71496e-05
-8.01527e-05
-0.000101995
-5.9977e-05
-0.00010666
-3.83046e-05
-0.000116739
-1.51999e-05
-0.000126034
-8.80811e-05
6.36544e-06
-4.91726e-05
1.84795e-05
-8.37156e-05
2.86516e-05
-7.37403e-05
3.72735e-05
-6.67859e-05
4.72826e-05
-6.90987e-05
5.91727e-05
-7.3464e-05
7.27859e-05
-7.68159e-05
8.72972e-05
-7.76313e-05
0.000101575
-7.51558e-05
0.000115215
-7.01554e-05
0.000127349
-6.26342e-05
0.00013773
-5.31956e-05
0.000145868
-4.19323e-05
0.000151547
-2.93863e-05
0.000154593
-1.59781e-05
0.000154929
-2.1191e-06
0.000152654
1.15441e-05
0.000147942
2.47636e-05
0.000140865
3.72742e-05
0.00013166
4.86371e-05
0.000120544
5.86626e-05
0.000107811
6.70477e-05
9.38138e-05
7.35488e-05
7.89823e-05
7.79106e-05
6.38e-05
7.99623e-05
4.87445e-05
7.96341e-05
3.43004e-05
7.69732e-05
2.08946e-05
7.21712e-05
8.89904e-06
6.55068e-05
-1.50493e-06
5.74306e-05
-9.97289e-06
4.8086e-05
-1.65181e-05
3.78529e-05
-2.10004e-05
2.69315e-05
-2.33248e-05
1.56313e-05
-2.33776e-05
4.1297e-06
-2.10942e-05
-7.27557e-06
-1.63847e-05
-1.8226e-05
-9.26114e-06
-2.8188e-05
-7.83987e-08
-3.63492e-05
1.05819e-05
-4.16481e-05
2.18483e-05
-4.35193e-05
3.25365e-05
-4.11312e-05
4.17229e-05
-3.51377e-05
4.87541e-05
-2.63236e-05
5.34532e-05
-1.58115e-05
5.57265e-05
-4.09611e-06
5.55458e-05
8.2605e-06
5.27003e-05
2.13255e-05
4.73735e-05
3.44397e-05
3.95202e-05
4.75028e-05
2.92505e-05
5.98615e-05
1.67897e-05
7.11453e-05
2.41907e-06
8.08897e-05
-1.34945e-05
8.88234e-05
-3.05684e-05
9.47518e-05
-4.83726e-05
9.85906e-05
-6.6471e-05
0.000100226
-8.43181e-05
9.96014e-05
-0.00010157
9.67846e-05
-0.000117863
9.1932e-05
-0.000132917
8.53219e-05
-0.000146515
7.71836e-05
-0.000158497
6.77593e-05
-0.00016875
5.73004e-05
-0.000177194
4.5873e-05
-0.000183828
3.33622e-05
-0.000188646
1.98651e-05
-0.000191423
5.21631e-06
-0.000191833
-1.0839e-05
-0.00018914
-2.88086e-05
-0.000182311
-4.9079e-05
-0.000169939
-7.16658e-05
-0.000151989
-9.34234e-05
-0.00012976
-0.000110857
-0.000106126
-0.000120785
-8.36535e-05
-0.000124467
-6.24593e-05
-0.000127852
-4.00252e-05
-0.00013917
-1.56356e-05
-0.000150425
-0.000103715
6.35186e-06
-5.55252e-05
1.85682e-05
-9.59325e-05
2.79885e-05
-8.3161e-05
3.51025e-05
-7.39e-05
4.45677e-05
-7.8564e-05
5.72407e-05
-8.61371e-05
7.27416e-05
-9.23169e-05
8.98513e-05
-9.47412e-05
0.000106909
-9.22133e-05
0.000122709
-8.59562e-05
0.000136936
-7.68612e-05
0.000149066
-6.53254e-05
0.000158592
-5.1458e-05
0.000165104
-3.5898e-05
0.00016847
-1.9344e-05
0.000168858
-2.50731e-06
0.00016622
1.41818e-05
0.000160754
3.02292e-05
0.000152682
4.53458e-05
0.000142153
5.91658e-05
0.000129416
7.13988e-05
0.000114781
8.16831e-05
9.86888e-05
8.96407e-05
8.16294e-05
9.49703e-05
6.41587e-05
9.74331e-05
4.6871e-05
9.69222e-05
3.03662e-05
9.34779e-05
1.51522e-05
8.73849e-05
1.54848e-06
7.91106e-05
-1.00352e-05
6.90147e-05
-1.9484e-05
5.75346e-05
-2.66824e-05
4.50512e-05
-3.16169e-05
3.18647e-05
-3.40728e-05
1.80872e-05
-3.39275e-05
3.98462e-06
-3.10032e-05
-1.01993e-05
-2.51316e-05
-2.40966e-05
-1.62461e-05
-3.70732e-05
-4.69058e-06
-4.79058e-05
9.0634e-06
-5.54043e-05
2.36788e-05
-5.81378e-05
3.74723e-05
-5.49277e-05
4.91391e-05
-4.68067e-05
5.81125e-05
-3.52985e-05
6.42143e-05
-2.1914e-05
6.74097e-05
-7.29201e-06
6.76479e-05
8.02188e-06
6.50691e-05
2.39039e-05
5.94939e-05
4.00146e-05
5.10624e-05
5.59344e-05
3.97932e-05
7.11313e-05
2.58975e-05
8.50414e-05
9.75737e-06
9.70303e-05
-8.19961e-06
0.000106781
-2.74685e-05
0.000114021
-4.75423e-05
0.000118665
-6.77912e-05
0.000120475
-8.77926e-05
0.000119603
-0.000107026
0.000116017
-0.000125094
0.00011
-0.000141705
0.000101932
-0.00015662
9.20985e-05
-0.000169701
8.08389e-05
-0.000180873
6.84724e-05
-0.0001902
5.51996e-05
-0.000197837
4.10002e-05
-0.000203881
2.59094e-05
-0.000208183
9.51801e-06
-0.000210361
-8.66185e-06
-0.000209626
-2.95428e-05
-0.000203691
-5.50135e-05
-0.000190543
-8.48142e-05
-0.000168901
-0.000115065
-0.000141355
-0.000138402
-0.00011265
-0.000149492
-8.69088e-05
-0.000150207
-6.45171e-05
-0.000150247
-4.09527e-05
-0.000162734
-1.58323e-05
-0.000175546
-0.000119551
6.00019e-06
-6.15257e-05
1.67369e-05
-0.000106669
2.62922e-05
-9.2716e-05
3.19832e-05
-7.95905e-05
4.01406e-05
-8.6721e-05
5.35765e-05
-9.95726e-05
7.2099e-05
-0.000110839
9.29468e-05
-0.000115589
0.000113036
-0.000112303
0.000131732
-0.000104652
0.000148844
-9.39729e-05
0.000163409
-7.98906e-05
0.000174701
-6.27502e-05
0.000182264
-4.34607e-05
0.000186058
-2.31383e-05
0.000186203
-2.65274e-06
0.000182996
1.73887e-05
0.000176611
3.66142e-05
0.000167271
5.46847e-05
0.000155147
7.12892e-05
0.00014045
8.60942e-05
0.000123521
9.86122e-05
0.000104822
0.000108339
8.4948e-05
0.000114844
6.45849e-05
0.000117796
4.44841e-05
0.000117023
2.53464e-05
0.000112616
7.90841e-06
0.000104822
-7.38973e-06
9.44072e-05
-2.03383e-05
8.19617e-05
-3.08756e-05
6.80703e-05
-3.89142e-05
5.3089e-05
-4.43373e-05
3.72863e-05
-4.69951e-05
2.07442e-05
-4.67261e-05
3.71435e-06
-4.3237e-05
-1.36912e-05
-3.64764e-05
-3.08609e-05
-2.61996e-05
-4.73541e-05
-1.18314e-05
-6.22776e-05
6.81e-06
-7.40484e-05
2.70781e-05
-7.84072e-05
4.5066e-05
-7.29159e-05
5.92627e-05
-6.10031e-05
6.99379e-05
-4.59732e-05
7.73058e-05
-2.92818e-05
8.14915e-05
-1.14775e-05
8.24256e-05
7.08798e-06
8.00634e-05
2.62665e-05
7.42552e-05
4.58237e-05
6.50189e-05
6.51717e-05
5.24524e-05
8.36988e-05
3.68633e-05
0.000100631
1.85825e-05
0.000115311
-1.82156e-06
0.000127185
-2.3745e-05
0.000135944
-4.66079e-05
0.000141527
-6.95983e-05
0.000143465
-9.21566e-05
0.000142161
-0.000113769
0.00013763
-0.00013395
0.000130181
-0.000152335
0.000120318
-0.000168672
0.000108436
-0.000182884
9.50518e-05
-0.000195026
8.06145e-05
-0.000205283
6.54557e-05
-0.000213984
4.97013e-05
-0.000221361
3.32856e-05
-0.000227499
1.56549e-05
-0.00023215
-4.01261e-06
-0.000234372
-2.73216e-05
-0.000231576
-5.781e-05
-0.000218896
-9.7496e-05
-0.000191978
-0.000141984
-0.000153684
-0.000176697
-0.000115447
-0.00018773
-8.49029e-05
-0.000180747
-6.04135e-05
-0.000174736
-3.61916e-05
-0.000186956
-1.38471e-05
-0.000197886
-0.000133397
7.01075e-06
-6.85364e-05
1.00008e-05
-0.000109658
1.82947e-05
-0.000101009
2.41447e-05
-8.54397e-05
3.11664e-05
-9.37421e-05
4.64035e-05
-0.000114809
7.14107e-05
-0.000135846
9.91944e-05
-0.000143373
0.000123482
-0.00013659
0.000143967
-0.000125137
0.000163109
-0.000113115
0.000180526
-9.73073e-05
0.000194241
-7.64657e-05
0.000203102
-5.23224e-05
0.000207302
-2.73392e-05
0.000207352
-2.70348e-06
0.000203627
2.11123e-05
0.000196293
4.39466e-05
0.000185546
6.5431e-05
0.000171552
8.52809e-05
0.0001545
0.000103145
0.00013473
0.000118381
0.000112762
0.000130307
8.93412e-05
0.000138264
6.53363e-05
0.0001418
4.16288e-05
0.00014073
1.94164e-05
0.000134828
-6.97608e-07
0.000124937
-1.80766e-05
0.000111788
-3.2559e-05
9.64456e-05
-4.41951e-05
7.97073e-05
-5.30764e-05
6.197e-05
-5.9128e-05
4.33372e-05
-6.21173e-05
2.37324e-05
-6.20265e-05
3.62249e-06
-5.90937e-05
-1.66249e-05
-5.30346e-05
-3.69208e-05
-4.21383e-05
-5.82509e-05
-2.37106e-05
-8.07052e-05
3.14091e-06
-0.0001009
3.29462e-05
-0.000108212
5.79054e-05
-9.78751e-05
7.50318e-05
-7.81297e-05
8.61368e-05
-5.70785e-05
9.34975e-05
-3.66427e-05
9.80693e-05
-1.60493e-05
9.97211e-05
5.43638e-06
9.77242e-05
2.82633e-05
9.17974e-05
5.17502e-05
8.17347e-05
7.5234e-05
6.76384e-05
9.77945e-05
4.98224e-05
0.000118446
2.88181e-05
0.000136315
5.39638e-06
0.000150607
-1.98374e-05
0.000161179
-4.58289e-05
0.00016752
-7.22106e-05
0.000169848
-9.79929e-05
0.000167944
-0.00012252
0.000162158
-0.000145185
0.000152846
-0.000165581
0.000140714
-0.000183447
0.000126303
-0.000198758
0.000110363
-0.00021166
9.35167e-05
-0.000222526
7.63213e-05
-0.000231984
5.91586e-05
-0.000240403
4.17041e-05
-0.000248189
2.34402e-05
-0.000256386
4.18506e-06
-0.000266347
-1.73596e-05
-0.000275052
-4.91054e-05
-0.000268895
-0.00010365
-0.000233567
-0.000177308
-0.0001732
-0.000237062
-0.000111004
-0.000249924
-6.67482e-05
-0.000225005
-3.86061e-05
-0.000202877
-1.80532e-05
-0.00020751
-7.32831e-06
-0.000208614
-0.000140724
1.03067e-05
-7.88426e-05
-4.94158e-07
-9.88563e-05
1.821e-07
-0.000101684
5.01197e-06
-9.02687e-05
8.69641e-06
-9.74259e-05
2.59625e-05
-0.000132075
5.95221e-05
-0.000169405
0.000100325
-0.000184175
0.000136074
-0.000172339
0.000161724
-0.000150788
0.000180988
-0.00013238
0.000198586
-0.000114906
0.000213517
-9.13974e-05
0.000223795
-6.26016e-05
0.000228758
-3.23035e-05
0.000229451
-3.39808e-06
0.000226214
2.43478e-05
0.000218865
5.12946e-05
0.000207209
7.7085e-05
0.000191402
0.000101086
0.000171719
0.000122828
0.000148634
0.000141465
0.000122827
0.000156114
9.50928e-05
0.000165998
6.64104e-05
0.000170484
3.83066e-05
0.000168835
1.18233e-05
0.000161313
-1.15641e-05
0.000148326
-3.12425e-05
0.000131467
-4.71131e-05
0.000112316
-5.96982e-05
9.22938e-05
-6.9208e-05
7.148e-05
-7.5757e-05
4.98874e-05
-7.96567e-05
2.7634e-05
-8.12108e-05
5.17808e-06
-8.0822e-05
-1.7012e-05
-7.6412e-05
-4.13287e-05
-6.33631e-05
-7.12984e-05
-3.79491e-05
-0.000106119
-1.38352e-06
-0.000137465
3.92599e-05
-0.000148857
7.43593e-05
-0.000132975
9.74248e-05
-0.000101196
0.000109196
-6.88506e-05
0.000114911
-4.23589e-05
0.00011834
-1.94802e-05
0.000119749
4.02526e-06
0.000118181
2.98292e-05
0.000112246
5.76832e-05
0.000101309
8.61699e-05
8.553e-05
0.000113573
6.50821e-05
0.000138894
4.07085e-05
0.000160688
1.34378e-05
0.000177877
-1.56954e-05
0.000190312
-4.59069e-05
0.000197731
-7.62231e-05
0.000200164
-0.000105923
0.000197644
-0.000133963
0.000190198
-0.000159529
0.000178412
-0.000182025
0.000163211
-0.000201108
0.000145387
-0.000216696
0.00012595
-0.000229168
0.00010599
-0.000239391
8.65457e-05
-0.000248285
6.80557e-05
-0.00025697
5.03923e-05
-0.000267645
3.41159e-05
-0.000285374
2.19168e-05
-0.000313175
1.04446e-05
-0.00033781
-2.44692e-05
-0.000336471
-0.000104992
-0.000291787
-0.000221994
-0.000209453
-0.000319399
-0.000112456
-0.00034692
-3.64541e-05
-0.00030101
1.41941e-06
-0.00024075
1.04414e-05
-0.000216529
1.60409e-06
-0.000199776
-0.000139121
1.30087e-05
-9.18505e-05
-2.06273e-06
-8.37843e-05
-2.1466e-05
-8.22805e-05
-2.86103e-05
-8.3124e-05
-3.62706e-05
-8.97653e-05
-3.12396e-05
-0.000137106
-5.2022e-06
-0.000195443
4.13767e-05
-0.000230754
0.000102657
-0.00023362
0.000162103
-0.000210234
0.000202649
-0.000172926
0.000225161
-0.000137418
0.000238292
-0.000104529
0.000245762
-7.00724e-05
0.000249263
-3.58055e-05
0.00024962
-3.75535e-06
0.000247126
2.68413e-05
0.000240655
5.77648e-05
0.000228891
8.88496e-05
0.000211508
0.000118469
0.000189147
0.000145188
0.000162611
0.000168
0.000132667
0.000186058
9.99947e-05
0.00019867
6.5604e-05
0.000204874
3.11038e-05
0.000203335
-1.02663e-06
0.000193442
-2.85682e-05
0.000175867
-5.04233e-05
0.000153322
-6.70066e-05
0.0001289
-7.93464e-05
0.000104636
-8.86871e-05
8.0822e-05
-9.5671e-05
5.68716e-05
-0.000101155
3.3118e-05
-0.000105406
9.42987e-06
-0.000106531
-1.58876e-05
-9.92608e-05
-4.85996e-05
-7.85303e-05
-9.20302e-05
-4.47698e-05
-0.000139881
-2.65846e-06
-0.000179578
4.26673e-05
-0.000194184
8.55935e-05
-0.000175903
0.000117876
-0.00013348
0.000135038
-8.60145e-05
0.000141452
-4.87746e-05
0.000143399
-2.14275e-05
0.000143905
3.51874e-06
0.000142177
3.15567e-05
0.000136427
6.3434e-05
0.000125181
9.74161e-05
0.000107543
0.000131211
8.40438e-05
0.000162394
5.56527e-05
0.00018908
2.3683e-05
0.000209847
-1.03581e-05
0.000224353
-4.52981e-05
0.000232671
-8.013e-05
0.000234996
-0.000113911
0.000231425
-0.000145894
0.000222181
-0.000174705
0.000207225
-0.000199212
0.000187719
-0.000218579
0.000164755
-0.000232894
0.000140266
-0.000243278
0.000116376
-0.000251454
9.47234e-05
-0.000259116
7.5717e-05
-0.000268459
5.97334e-05
-0.000284232
4.98884e-05
-0.000310521
4.82035e-05
-0.000340556
4.04756e-05
-0.000351466
-1.35615e-05
-0.000329825
-0.000126633
-0.000277481
-0.000274337
-0.000203793
-0.000393086
-0.000110434
-0.000440277
-1.71847e-05
-0.000394258
3.00195e-05
-0.000287955
2.20031e-05
-0.000208513
-1.30676e-08
-0.000177759
-0.000139133
3.28886e-05
-0.000124739
3.3397e-05
-8.42926e-05
-1.91888e-05
-2.96948e-05
-6.38517e-05
-3.84612e-05
-0.00010307
-5.05469e-05
-0.000139795
-0.000100382
-0.000157211
-0.000178026
-0.000130421
-0.000257545
-4.69886e-05
-0.000317052
7.33686e-05
-0.000330592
0.000188587
-0.000288145
0.000264548
-0.00021338
0.000296014
-0.000135995
0.000298152
-7.22104e-05
0.000289547
-2.72007e-05
0.000280145
5.64621e-06
0.000272156
3.48296e-05
0.00026319
6.67316e-05
0.000249869
0.000102171
0.000230494
0.000137845
0.000205159
0.000170523
0.000174763
0.000198397
0.000140056
0.000220764
0.000101478
0.000237249
5.98297e-05
0.000246521
1.80207e-05
0.000245143
-1.9577e-05
0.00023104
-4.98986e-05
0.000206188
-7.2487e-05
0.00017591
-8.91744e-05
0.000145588
-0.000102154
0.000117614
-0.000112373
9.10388e-05
-0.000120373
6.48696e-05
-0.000126562
3.93047e-05
-0.000129703
1.25679e-05
-0.000125574
-2.00196e-05
-0.000108519
-6.56557e-05
-7.87245e-05
-0.000121826
-4.11529e-05
-0.000177452
1.16469e-06
-0.000221896
4.40426e-05
-0.000237062
8.55989e-05
-0.000217459
0.000123054
-0.000170934
0.00014859
-0.00011155
0.000161692
-6.18742e-05
0.000167651
-2.73848e-05
0.000170462
7.10044e-07
0.000170574
3.14455e-05
0.000166388
6.76204e-05
0.000155817
0.000107987
0.000137443
0.000149584
0.000111219
0.000188617
7.81782e-05
0.000222121
4.03909e-05
0.000247634
2.98195e-07
0.000264445
-4.01242e-05
0.000273094
-7.97305e-05
0.000274602
-0.000118143
0.000269837
-0.000154387
0.000258425
-0.000187106
0.000239945
-0.000214159
0.000214772
-0.000234428
0.000185025
-0.000248644
0.000154481
-0.000258767
0.000126496
-0.000267217
0.000103171
-0.000275853
8.43529e-05
-0.000286896
7.07744e-05
-0.000299517
6.25083e-05
-0.000304489
5.31767e-05
-0.00028457
2.05589e-05
-0.000231851
-6.6279e-05
-0.000158465
-0.000200018
-9.51096e-05
-0.000337691
-5.95734e-05
-0.000428622
-3.59857e-05
-0.000463865
-4.19648e-07
-0.000429822
1.18739e-05
-0.000300248
-1.87064e-05
-0.000177933
-2.72485e-05
-0.000169218
-0.000166381
8.61995e-05
-0.000210938
0.000134338
-0.000132432
5.11673e-05
5.3475e-05
-5.80815e-05
7.07867e-05
-0.000147262
3.86326e-05
-0.000236925
-1.07201e-05
-0.000301788
-0.000113164
-0.000306333
-0.000252999
-0.000230358
-0.000393028
-8.26958e-05
-0.000478253
9.23424e-05
-0.000463183
0.000252117
-0.000373155
0.000357382
-0.000241261
0.000394419
-0.000109247
0.000382044
-1.48252e-05
0.000352022
3.56693e-05
0.000324849
6.20028e-05
0.000303822
8.77598e-05
0.000284224
0.000121769
0.000261434
0.000160635
0.000232912
0.000199046
0.000197953
0.000233355
0.000156641
0.000262077
0.000109844
0.000284045
6.01174e-05
0.000296247
1.24245e-05
0.000292835
-2.69908e-05
0.000270454
-5.60575e-05
0.000235254
-7.69342e-05
0.000196783
-9.36802e-05
0.000162332
-0.000110759
0.000134692
-0.000127891
0.00010817
-0.000141524
7.85017e-05
-0.000147935
4.57155e-05
-0.000145248
9.88009e-06
-0.00013032
-3.49467e-05
-0.000104226
-9.17501e-05
-7.25793e-05
-0.000153472
-3.70927e-05
-0.000212939
5.54369e-06
-0.000264532
4.62622e-05
-0.000277779
7.8697e-05
-0.000249893
0.000109558
-0.000201793
0.00013692
-0.000138911
0.000157438
-8.23916e-05
0.000173415
-4.33614e-05
0.000187441
-1.33157e-05
0.000197351
2.15355e-05
0.000199617
6.53541e-05
0.000192238
0.000115367
0.000173727
0.000168095
0.000143809
0.000218536
0.000104273
0.000261656
5.84563e-05
0.000293451
1.01007e-05
0.000312801
-3.80505e-05
0.000321245
-8.44774e-05
0.000321029
-0.000128924
0.000314284
-0.000170922
0.000300423
-0.000208519
0.000277541
-0.000239747
0.000245998
-0.000264541
0.000209818
-0.000284633
0.000174572
-0.000302298
0.000144162
-0.000319109
0.000119982
-0.00033385
9.90935e-05
-0.000340113
7.70396e-05
-0.000323381
4.57774e-05
-0.000265286
-4.91697e-06
-0.000153928
-9.07991e-05
-1.09268e-05
-0.00020928
0.000118139
-0.000329084
0.000186383
-0.000405935
0.00017624
-0.000418477
0.000106448
-0.000394073
2.66125e-05
-0.000349987
-5.1608e-05
-0.000222027
-0.000111375
-0.000118165
-6.82158e-05
-0.000212377
-0.000234596
0.000142387
-0.000353326
0.000255847
-0.000245892
0.000184356
0.000124964
2.47313e-05
0.00023041
-0.000104489
0.000167851
-0.000206859
9.16485e-05
-0.000277918
-4.21054e-05
-0.000294232
-0.000236685
-0.000232619
-0.000454641
-0.000105836
-0.000605036
4.30757e-05
-0.000612094
0.000198368
-0.000528447
0.000346058
-0.00038895
0.000448319
-0.000211508
0.000479655
-4.61603e-05
0.000456986
5.8338e-05
0.000417039
0.000101951
0.000381078
0.00012372
0.000352747
0.000150101
0.000326772
0.000186611
0.000296069
0.000229749
0.000255588
0.000273836
0.000204529
0.000313136
0.000145308
0.000343265
8.37467e-05
0.000357809
2.77689e-05
0.000348813
-1.74748e-05
0.000315697
-5.23319e-05
0.00027011
-7.62304e-05
0.000220683
-8.97014e-05
0.000175804
-0.000102175
0.000147167
-0.00012217
0.000128167
-0.000142982
9.93145e-05
-0.000152986
5.57204e-05
-0.000146605
3.50005e-06
-0.000125851
-5.57013e-05
-9.74661e-05
-0.000120135
-6.74935e-05
-0.000183445
-3.19858e-05
-0.000248447
1.07768e-05
-0.000307295
5.10734e-05
-0.000318076
7.4761e-05
-0.000273581
9.02003e-05
-0.000217234
0.000108263
-0.000156975
0.000129837
-0.000103966
0.000156992
-7.05166e-05
0.00018725
-4.35741e-05
0.000211527
-2.74105e-06
0.000221636
5.52455e-05
0.000215511
0.000121492
0.00019377
0.000189836
0.000157376
0.00025493
0.000108393
0.000310639
5.14159e-05
0.000350428
-8.64027e-06
0.000372857
-6.79685e-05
0.000380573
-0.000124944
0.000378004
-0.000178594
0.000367933
-0.00022745
0.000349278
-0.000270131
0.000320221
-0.000305833
0.0002817
-0.000336146
0.000240132
-0.000363512
0.000201939
-0.000388492
0.000169143