/*--------------------------------*- C++ -*----------------------------------*\
| =========                 |                                                 |
| \\      /  F ield         | OpenFOAM: The Open Source CFD Toolbox           |
|  \\    /   O peration     | Version:  2412                                  |
|   \\  /    A nd           | Website:  www.openfoam.com                      |
|    \\/     M anipulation  |                                                 |
\*---------------------------------------------------------------------------*/
FoamFile
{
    version     2.0;
    format      ascii;
    arch        "LSB;label=32;scalar=64";
    class       volVectorField;
    location    "9.8";
    object      U;
}
// * * * * * * * * * * * * * * * * * * * * * * * * * * * * * * * * * * * * * //

dimensions      [0 1 -1 0 0 0 0];

internalField   nonuniform List<vector> 
6400
(
(0.000481891 -0.000988243 0)
(0.00295719 -0.00142453 0)
(0.00553177 -0.00128744 0)
(0.00761058 -0.00114415 0)
(0.00966866 -0.00105105 0)
(0.0116383 -0.000978925 0)
(0.0135612 -0.00090763 0)
(0.0153759 -0.000822698 0)
(0.017071 -0.000734551 0)
(0.0186257 -0.00064177 0)
(0.0200205 -0.000544188 0)
(0.0212147 -0.000453262 0)
(0.0221676 -0.00032681 0)
(0.0228507 -0.000180461 0)
(0.0232374 -2.99741e-05 0)
(0.0233345 9.7e-05 0)
(0.0231298 0.000224819 0)
(0.0226355 0.000354352 0)
(0.0218747 0.000482917 0)
(0.0208474 0.000608186 0)
(0.0195694 0.000730785 0)
(0.0180701 0.000850699 0)
(0.0163771 0.000968368 0)
(0.0145167 0.00108524 0)
(0.0125251 0.00118922 0)
(0.0104391 0.00127146 0)
(0.00832763 0.00129736 0)
(0.00627022 0.00124391 0)
(0.00434459 0.00112128 0)
(0.0026282 0.000945866 0)
(0.00117674 0.000766544 0)
(-3.10237e-06 0.000593346 0)
(-0.000909683 0.000406131 0)
(-0.00150786 0.000165587 0)
(-0.00176042 -0.000109666 0)
(-0.00163442 -0.000403082 0)
(-0.00114658 -0.0006792 0)
(-0.000350014 -0.000919589 0)
(0.000686794 -0.00110198 0)
(0.0019111 -0.00121198 0)
(0.00322048 -0.00124606 0)
(0.00451389 -0.00120928 0)
(0.00571895 -0.00108668 0)
(0.00672856 -0.000895828 0)
(0.00745479 -0.000638194 0)
(0.00783574 -0.00032839 0)
(0.0078114 1.40512e-05 0)
(0.00734653 0.0003442 0)
(0.00647164 0.000623109 0)
(0.00520605 0.000850005 0)
(0.00359768 0.00106059 0)
(0.00169381 0.00124417 0)
(-0.000487857 0.00139766 0)
(-0.00289881 0.00147595 0)
(-0.00545224 0.00148372 0)
(-0.008037 0.0014411 0)
(-0.0106011 0.0013724 0)
(-0.0131142 0.00130138 0)
(-0.0155464 0.00123334 0)
(-0.01787 0.0011607 0)
(-0.0200535 0.00108296 0)
(-0.0220658 0.00100076 0)
(-0.0238864 0.000910029 0)
(-0.0254854 0.000807166 0)
(-0.0268108 0.000673379 0)
(-0.0278251 0.000500192 0)
(-0.0284853 0.000312778 0)
(-0.0287685 0.000124791 0)
(-0.0286614 -6.86943e-05 0)
(-0.0281129 -0.000302077 0)
(-0.0271103 -0.000563144 0)
(-0.0256137 -0.000804464 0)
(-0.0236727 -0.00104237 0)
(-0.0213312 -0.00123975 0)
(-0.0186411 -0.0014176 0)
(-0.0156893 -0.00158539 0)
(-0.0124792 -0.00174766 0)
(-0.00907868 -0.00194549 0)
(-0.0050277 -0.00211459 0)
(-0.00116049 -0.00163659 0)
(0.000190061 -0.00236087 0)
(0.00237805 -0.00364865 0)
(0.00450671 -0.0032703 0)
(0.00625963 -0.00301761 0)
(0.00812976 -0.00294763 0)
(0.0100245 -0.0028987 0)
(0.0120012 -0.00282897 0)
(0.0139669 -0.0027175 0)
(0.0158906 -0.00255791 0)
(0.0177434 -0.00234059 0)
(0.0194453 -0.00206319 0)
(0.0209207 -0.00175132 0)
(0.022131 -0.00136571 0)
(0.0230854 -0.000920087 0)
(0.0237293 -0.00046506 0)
(0.0240345 -1.72954e-05 0)
(0.0240003 0.000444721 0)
(0.0236241 0.000893621 0)
(0.0229186 0.00132429 0)
(0.0219108 0.00172302 0)
(0.0206424 0.00207862 0)
(0.0191649 0.00238411 0)
(0.0175322 0.0026312 0)
(0.0157987 0.00281673 0)
(0.0140432 0.00293298 0)
(0.0123211 0.00297003 0)
(0.0106763 0.00291729 0)
(0.00914633 0.0027634 0)
(0.00772343 0.00253009 0)
(0.00642476 0.0022252 0)
(0.00528546 0.00188602 0)
(0.00431337 0.00150833 0)
(0.00353381 0.00112151 0)
(0.00297748 0.000690031 0)
(0.00261041 0.000242634 0)
(0.00241095 -0.000202983 0)
(0.00235707 -0.000614316 0)
(0.00241323 -0.000964047 0)
(0.00255131 -0.00122662 0)
(0.00276564 -0.00138747 0)
(0.00300577 -0.00142658 0)
(0.00322861 -0.00135952 0)
(0.00340133 -0.00117678 0)
(0.00348547 -0.000883692 0)
(0.00346397 -0.000502415 0)
(0.00332295 -4.3206e-05 0)
(0.00302498 0.000474262 0)
(0.00254164 0.00100962 0)
(0.00185722 0.00152878 0)
(0.000917366 0.00201175 0)
(-0.000293955 0.00246568 0)
(-0.00172516 0.00287824 0)
(-0.00337079 0.00323726 0)
(-0.00523331 0.00350161 0)
(-0.00728745 0.00367469 0)
(-0.00951966 0.00375676 0)
(-0.0118902 0.00375749 0)
(-0.0143253 0.00370257 0)
(-0.0167587 0.00358884 0)
(-0.0191297 0.00340965 0)
(-0.0213713 0.00317505 0)
(-0.0234225 0.00288454 0)
(-0.0252279 0.00254396 0)
(-0.0267425 0.00214704 0)
(-0.0279255 0.00168824 0)
(-0.0287495 0.0011573 0)
(-0.0291891 0.000591113 0)
(-0.0292168 2.95245e-06 0)
(-0.0288215 -0.000626065 0)
(-0.027994 -0.00129544 0)
(-0.0267281 -0.00199154 0)
(-0.0250282 -0.0026448 0)
(-0.0229335 -0.00326006 0)
(-0.0204818 -0.00378734 0)
(-0.0177441 -0.0042221 0)
(-0.0147946 -0.00456821 0)
(-0.0116693 -0.0049101 0)
(-0.00845512 -0.00541654 0)
(-0.00462809 -0.00593507 0)
(-0.000912836 -0.00442775 0)
(0.000275054 -0.00363981 0)
(0.00261551 -0.00583447 0)
(0.0049158 -0.00521543 0)
(0.00679199 -0.00486514 0)
(0.00876341 -0.00484277 0)
(0.0107456 -0.00487166 0)
(0.0127707 -0.00484251 0)
(0.0147774 -0.00471004 0)
(0.0167237 -0.00448965 0)
(0.0185663 -0.00415553 0)
(0.0202402 -0.00369069 0)
(0.0216881 -0.0031293 0)
(0.0228808 -0.00246107 0)
(0.0237777 -0.00172878 0)
(0.0243474 -0.000960339 0)
(0.0245929 -0.00015903 0)
(0.0244946 0.000658834 0)
(0.0240594 0.00144646 0)
(0.0233021 0.00219738 0)
(0.0222414 0.00288512 0)
(0.020911 0.00348211 0)
(0.0193548 0.00397725 0)
(0.0176205 0.00435399 0)
(0.015759 0.00460431 0)
(0.01383 0.00472312 0)
(0.0118872 0.00470044 0)
(0.00998606 0.00454835 0)
(0.00818003 0.00427027 0)
(0.00649388 0.00390842 0)
(0.0049689 0.0034691 0)
(0.00364479 0.00295777 0)
(0.00255515 0.00236717 0)
(0.00173134 0.0017383 0)
(0.00117606 0.00109051 0)
(0.000891439 0.000449516 0)
(0.000843011 -0.000151929 0)
(0.0010046 -0.000693246 0)
(0.0013529 -0.00114227 0)
(0.00184326 -0.00147665 0)
(0.00244329 -0.0016798 0)
(0.00309757 -0.00172518 0)
(0.00373123 -0.00161705 0)
(0.00428951 -0.00137422 0)
(0.00470512 -0.000989086 0)
(0.00493912 -0.000477473 0)
(0.00498155 0.000112114 0)
(0.00478053 0.000793599 0)
(0.00431233 0.00153261 0)
(0.00356812 0.00232227 0)
(0.00250159 0.00307196 0)
(0.00111532 0.00378447 0)
(-0.000533785 0.00442323 0)
(-0.0024279 0.00498753 0)
(-0.00453393 0.00546889 0)
(-0.00680795 0.00584221 0)
(-0.00922163 0.00608695 0)
(-0.0117226 0.00619634 0)
(-0.0142515 0.00617811 0)
(-0.0167605 0.0060269 0)
(-0.0191875 0.00574516 0)
(-0.0214797 0.00534479 0)
(-0.0235808 0.00483503 0)
(-0.0254396 0.00421973 0)
(-0.0270203 0.00350513 0)
(-0.0283063 0.00270143 0)
(-0.0292809 0.00181359 0)
(-0.0298897 0.000866675 0)
(-0.0300974 -0.000143187 0)
(-0.0298704 -0.00121872 0)
(-0.0291848 -0.00233057 0)
(-0.0280281 -0.00346695 0)
(-0.0263798 -0.00455733 0)
(-0.0242665 -0.00557675 0)
(-0.0217125 -0.00645199 0)
(-0.0188133 -0.00714937 0)
(-0.0156886 -0.00766188 0)
(-0.0123865 -0.00817439 0)
(-0.00893978 -0.00899241 0)
(-0.00485473 -0.00986775 0)
(-0.000967518 -0.00715908 0)
(0.000260975 -0.00515503 0)
(0.00265744 -0.0082833 0)
(0.00504906 -0.00737948 0)
(0.00696102 -0.00684662 0)
(0.00893366 -0.0068331 0)
(0.0109281 -0.00690592 0)
(0.0130234 -0.0068765 0)
(0.0151272 -0.00671158 0)
(0.0171783 -0.00640278 0)
(0.0191433 -0.00591547 0)
(0.0209319 -0.00526342 0)
(0.022495 -0.00443752 0)
(0.0237656 -0.0034956 0)
(0.0247067 -0.00245396 0)
(0.0253178 -0.0013488 0)
(0.0255648 -0.000198397 0)
(0.0254297 0.000958174 0)
(0.0249313 0.0020848 0)
(0.0240908 0.00315672 0)
(0.0229239 0.00414121 0)
(0.0214693 0.00499965 0)
(0.0197666 0.00571199 0)
(0.0178675 0.00626712 0)
(0.0158252 0.00664366 0)
(0.0136955 0.00683197 0)
(0.0115351 0.00683117 0)
(0.00939597 0.00663709 0)
(0.00736224 0.00626269 0)
(0.00548011 0.00573132 0)
(0.00378704 0.00507144 0)
(0.00233347 0.00427905 0)
(0.00115358 0.00341326 0)
(0.000261106 0.00247648 0)
(-0.000346554 0.00151785 0)
(-0.000639677 0.000571507 0)
(-0.000621537 -0.000325426 0)
(-0.000314592 -0.00113394 0)
(0.000266858 -0.00181729 0)
(0.00108429 -0.00233322 0)
(0.00206728 -0.00264545 0)
(0.00315659 -0.00272767 0)
(0.00423682 -0.00256046 0)
(0.00519309 -0.00217591 0)
(0.00596223 -0.00157627 0)
(0.00645909 -0.000795892 0)
(0.00666363 0.000101643 0)
(0.00654292 0.00110582 0)
(0.00608534 0.00218856 0)
(0.00528495 0.00331538 0)
(0.00413817 0.00441804 0)
(0.00264766 0.00548059 0)
(0.000835283 0.00641944 0)
(-0.00125351 0.00722433 0)
(-0.00359232 0.00787807 0)
(-0.00611153 0.00837776 0)
(-0.00875372 0.00870118 0)
(-0.0114663 0.00884703 0)
(-0.0141946 0.00881051 0)
(-0.0168847 0.00859047 0)
(-0.0194741 0.00818941 0)
(-0.0219126 0.0076143 0)
(-0.024153 0.00688928 0)
(-0.0261465 0.00601968 0)
(-0.0278591 0.00503181 0)
(-0.0292828 0.00392242 0)
(-0.0303861 0.00269845 0)
(-0.0311085 0.00137135 0)
(-0.0314081 -6.60638e-05 0)
(-0.0312576 -0.00160267 0)
(-0.0306434 -0.0031959 0)
(-0.0294977 -0.00482597 0)
(-0.0277926 -0.00644 0)
(-0.0255504 -0.0079522 0)
(-0.0228094 -0.00925962 0)
(-0.0197132 -0.0102619 0)
(-0.0163979 -0.0109827 0)
(-0.0129104 -0.0116884 0)
(-0.00927067 -0.0128662 0)
(-0.00499924 -0.0140499 0)
(-0.000982712 -0.0101101 0)
(0.000174101 -0.00656099 0)
(0.00259915 -0.0106877 0)
(0.00503117 -0.00951208 0)
(0.00691312 -0.00878278 0)
(0.00886309 -0.00882088 0)
(0.0109158 -0.00896839 0)
(0.0131146 -0.00901392 0)
(0.0153829 -0.0088857 0)
(0.017663 -0.00851655 0)
(0.0198304 -0.00789781 0)
(0.0218103 -0.00702982 0)
(0.0235371 -0.00595624 0)
(0.0249391 -0.00471387 0)
(0.0260043 -0.00330434 0)
(0.0266809 -0.00181657 0)
(0.0269484 -0.000268106 0)
(0.0267978 0.00128309 0)
(0.0262408 0.00279231 0)
(0.0253025 0.00421741 0)
(0.0240077 0.00552027 0)
(0.0223962 0.00666283 0)
(0.0205168 0.00761391 0)
(0.0184174 0.00835041 0)
(0.0161534 0.00884608 0)
(0.0138006 0.00908931 0)
(0.0114201 0.00907057 0)
(0.00908045 0.00879783 0)
(0.00686253 0.00829544 0)
(0.00481551 0.00757489 0)
(0.00297245 0.00668825 0)
(0.00141238 0.00564915 0)
(0.000164051 0.00450594 0)
(-0.000793222 0.00326528 0)
(-0.00142991 0.00199218 0)
(-0.00171848 0.000717152 0)
(-0.00164997 -0.000512291 0)
(-0.00123927 -0.00164433 0)
(-0.000493834 -0.0026114 0)
(0.000540323 -0.00335945 0)
(0.00178258 -0.00381815 0)
(0.00317689 -0.00395521 0)
(0.00456674 -0.00372231 0)
(0.00580902 -0.00316259 0)
(0.00681696 -0.00230861 0)
(0.00749835 -0.00122558 0)
(0.00783067 1.85865e-05 0)
(0.0077979 0.00137006 0)
(0.00737468 0.00282378 0)
(0.00656093 0.00429682 0)
(0.00537615 0.00576195 0)
(0.00380248 0.00715596 0)
(0.00187173 0.00842617 0)
(-0.000362927 0.00951208 0)
(-0.00286949 0.010396 0)
(-0.00558503 0.0110688 0)
(-0.00845112 0.0114995 0)
(-0.0113985 0.011693 0)
(-0.0143622 0.0116415 0)
(-0.0172739 0.0113455 0)
(-0.020071 0.0108051 0)
(-0.0226979 0.0100439 0)
(-0.0251068 0.00908373 0)
(-0.0272561 0.0079437 0)
(-0.0291219 0.00666701 0)
(-0.0306902 0.00524202 0)
(-0.03192 0.00365836 0)
(-0.0327545 0.00191867 0)
(-0.0331628 3.91603e-05 0)
(-0.0331134 -0.00197709 0)
(-0.0325561 -0.00407711 0)
(-0.0314216 -0.00626585 0)
(-0.0296369 -0.00847314 0)
(-0.0272082 -0.0105523 0)
(-0.0241771 -0.0123079 0)
(-0.0207379 -0.0135931 0)
(-0.0171382 -0.0144798 0)
(-0.0134393 -0.0153516 0)
(-0.00959786 -0.0168979 0)
(-0.00512132 -0.0183422 0)
(-0.000964802 -0.0130733 0)
(0.000101189 -0.0078793 0)
(0.00253854 -0.0131041 0)
(0.00492573 -0.0116572 0)
(0.00676822 -0.0106867 0)
(0.00870566 -0.0108159 0)
(0.0108276 -0.0111502 0)
(0.0131765 -0.0113526 0)
(0.0156971 -0.011274 0)
(0.0182497 -0.0108484 0)
(0.0207072 -0.0100766 0)
(0.0229397 -0.00898837 0)
(0.0248783 -0.00763916 0)
(0.0264843 -0.00603254 0)
(0.0276889 -0.00423645 0)
(0.0284471 -0.00232437 0)
(0.0287418 -0.000340864 0)
(0.0285709 0.00164624 0)
(0.0279463 0.00357947 0)
(0.0268927 0.0053993 0)
(0.025444 0.00705844 0)
(0.0236453 0.00851724 0)
(0.0215392 0.00973469 0)
(0.0191824 0.0106751 0)
(0.0166451 0.0113109 0)
(0.0140044 0.0116246 0)
(0.0113413 0.0115961 0)
(0.00873304 0.0112392 0)
(0.00625729 0.0105742 0)
(0.0039918 0.00964305 0)
(0.0019894 0.00848521 0)
(0.000294777 0.00716251 0)
(-0.00106752 0.00566949 0)
(-0.00208247 0.0040765 0)
(-0.00273196 0.00244044 0)
(-0.00299678 0.0007885 0)
(-0.00285839 -0.000822063 0)
(-0.00232237 -0.00231847 0)
(-0.00138689 -0.00363817 0)
(-0.000103129 -0.00467984 0)
(0.00145204 -0.00533275 0)
(0.00320233 -0.00553711 0)
(0.00495429 -0.00521926 0)
(0.00651138 -0.00444731 0)
(0.00779008 -0.00329516 0)
(0.00869357 -0.00186041 0)
(0.00917998 -0.000221511 0)
(0.00926345 0.00155085 0)
(0.00890201 0.00342918 0)
(0.00808202 0.00532201 0)
(0.00683735 0.00720669 0)
(0.00516048 0.0089874 0)
(0.00307765 0.0106188 0)
(0.000651516 0.0120186 0)
(-0.0020699 0.0131594 0)
(-0.00503526 0.0140121 0)
(-0.00817047 0.0145642 0)
(-0.0114022 0.014807 0)
(-0.0146536 0.0147383 0)
(-0.0178389 0.0143438 0)
(-0.0208894 0.0136448 0)
(-0.0237468 0.0126762 0)
(-0.0263697 0.0114652 0)
(-0.0287102 0.0100448 0)
(-0.0307503 0.00845874 0)
(-0.0324717 0.00670449 0)
(-0.0338308 0.0047511 0)
(-0.0348029 0.00259971 0)
(-0.0353662 0.000285031 0)
(-0.0354827 -0.00220124 0)
(-0.0350754 -0.00486961 0)
(-0.0340034 -0.00772084 0)
(-0.0321441 -0.0106517 0)
(-0.0294368 -0.0134313 0)
(-0.0259546 -0.0157173 0)
(-0.0220327 -0.0172973 0)
(-0.0180052 -0.0182945 0)
(-0.0140101 -0.0192665 0)
(-0.00996385 -0.0211457 0)
(-0.00527748 -0.0228568 0)
(-0.000916327 -0.0160819 0)
(3.49235e-05 -0.00915645 0)
(0.00253766 -0.0155102 0)
(0.00487186 -0.0137419 0)
(0.00656452 -0.0125058 0)
(0.00836353 -0.0128244 0)
(0.0105552 -0.0134666 0)
(0.0131294 -0.0139185 0)
(0.0159985 -0.0139663 0)
(0.0189585 -0.0134922 0)
(0.0217741 -0.0125784 0)
(0.0243318 -0.0112496 0)
(0.0265871 -0.00955864 0)
(0.0284305 -0.00755064 0)
(0.0298052 -0.00530323 0)
(0.030674 -0.00289841 0)
(0.0310003 -0.000413126 0)
(0.0307982 0.00206188 0)
(0.0300875 0.00446156 0)
(0.028889 0.00672436 0)
(0.0272486 0.00878976 0)
(0.0252094 0.0106077 0)
(0.0228161 0.0121262 0)
(0.0201338 0.0133038 0)
(0.0172464 0.0140962 0)
(0.0142421 0.0144766 0)
(0.0112146 0.01443 0)
(0.00826349 0.0139621 0)
(0.00548202 0.0131061 0)
(0.00294926 0.0119191 0)
(0.000731734 0.0104658 0)
(-0.00114184 0.008785 0)
(-0.00264758 0.00692557 0)
(-0.00374342 0.00494273 0)
(-0.00442923 0.00289107 0)
(-0.00467871 0.000816488 0)
(-0.00446206 -0.00122815 0)
(-0.00378765 -0.00316395 0)
(-0.00261723 -0.00489599 0)
(-0.000984927 -0.00631111 0)
(0.00100231 -0.00721664 0)
(0.00322992 -0.00751401 0)
(0.00546583 -0.00709739 0)
(0.00746957 -0.0060607 0)
(0.00910251 -0.00453684 0)
(0.0102714 -0.00268836 0)
(0.0109557 -0.000593619 0)
(0.0111734 0.00165374 0)
(0.0108672 0.00398932 0)
(0.0100399 0.0063709 0)
(0.00872717 0.00873409 0)
(0.00690906 0.0109654 0)
(0.00463403 0.0129995 0)
(0.00196053 0.0147544 0)
(-0.00105929 0.0161806 0)
(-0.0043549 0.0172492 0)
(-0.00783942 0.017944 0)
(-0.0114272 0.0182423 0)
(-0.0150325 0.0181424 0)
(-0.0185559 0.0176342 0)
(-0.0219145 0.0167562 0)
(-0.0250553 0.0155544 0)
(-0.027929 0.0140689 0)
(-0.0304949 0.0123427 0)
(-0.0327288 0.0104185 0)
(-0.0346093 0.00830795 0)
(-0.0361277 0.005985 0)
(-0.0372897 0.00345148 0)
(-0.0380696 0.000715438 0)
(-0.0384196 -0.00227005 0)
(-0.0382402 -0.00554852 0)
(-0.0373417 -0.00915807 0)
(-0.035462 -0.013011 0)
(-0.0324018 -0.0167208 0)
(-0.0282682 -0.0197114 0)
(-0.023581 -0.0215932 0)
(-0.0189106 -0.0225213 0)
(-0.0145873 -0.0234065 0)
(-0.0104254 -0.0255506 0)
(-0.0055097 -0.0275784 0)
(-0.000861751 -0.0191522 0)
(4.08996e-05 -0.0104445 0)
(0.00253995 -0.0179447 0)
(0.0049147 -0.0156844 0)
(0.00630557 -0.0141335 0)
(0.00779727 -0.0147772 0)
(0.0100322 -0.0158981 0)
(0.0128838 -0.01679 0)
(0.0162435 -0.017075 0)
(0.0197306 -0.0165798 0)
(0.0230519 -0.015502 0)
(0.0260753 -0.0138569 0)
(0.0287091 -0.0117949 0)
(0.0308699 -0.00931377 0)
(0.0324579 -0.00652146 0)
(0.0334442 -0.00354382 0)
(0.0338026 -0.000490769 0)
(0.0335436 0.00254469 0)
(0.0327183 0.00546998 0)
(0.0313494 0.00823256 0)
(0.0294765 0.0107597 0)
(0.0271416 0.0129901 0)
(0.024395 0.0148619 0)
(0.0213138 0.016314 0)
(0.017992 0.0172899 0)
(0.0145361 0.017744 0)
(0.0110566 0.0176689 0)
(0.00767547 0.0170634 0)
(0.00450156 0.01598 0)
(0.00164319 0.0144919 0)
(-0.000842424 0.0126726 0)
(-0.00293335 0.0105821 0)
(-0.00460019 0.0083014 0)
(-0.00581905 0.00587156 0)
(-0.00656575 0.00336228 0)
(-0.00681627 0.000805985 0)
(-0.00652967 -0.00174765 0)
(-0.00566371 -0.0042221 0)
(-0.00419952 -0.00649726 0)
(-0.00217129 -0.00837845 0)
(0.000364464 -0.00961726 0)
(0.00326534 -0.0100653 0)
(0.00615571 -0.00952932 0)
(0.00871989 -0.00814919 0)
(0.0107961 -0.00614435 0)
(0.0123063 -0.00376972 0)
(0.013219 -0.00114631 0)
(0.0135532 0.0016447 0)
(0.0133135 0.00452256 0)
(0.0124906 0.00745097 0)
(0.0110796 0.0103613 0)
(0.00908913 0.0131199 0)
(0.00657151 0.0156385 0)
(0.0035799 0.0178097 0)
(0.000184527 0.0195732 0)
(-0.00352865 0.0208881 0)
(-0.00745194 0.0217342 0)
(-0.0114804 0.0220761 0)
(-0.0155129 0.0219285 0)
(-0.0194404 0.0212858 0)
(-0.0231744 0.0201946 0)
(-0.0266502 0.0187238 0)
(-0.0298109 0.0169242 0)
(-0.0326167 0.0148502 0)
(-0.0350515 0.0125597 0)
(-0.0371107 0.0100789 0)
(-0.0388148 0.00740225 0)
(-0.0402022 0.00452021 0)
(-0.0412633 0.00140112 0)
(-0.041941 -0.002029 0)
(-0.0421499 -0.00594394 0)
(-0.0416131 -0.0104608 0)
(-0.0397926 -0.0155321 0)
(-0.0362567 -0.0205779 0)
(-0.0311358 -0.0245775 0)
(-0.0252828 -0.0267663 0)
(-0.0197442 -0.0273223 0)
(-0.0150893 -0.0277409 0)
(-0.0107866 -0.0301213 0)
(-0.00555674 -0.0325839 0)
(-0.000896725 -0.0223147 0)
(0.000308671 -0.0116932 0)
(0.0021463 -0.0204373 0)
(0.00456633 -0.0175625 0)
(0.00592434 -0.0153573 0)
(0.00694659 -0.0165538 0)
(0.00913772 -0.0184938 0)
(0.0124068 -0.020107 0)
(0.0165151 -0.0207731 0)
(0.0207097 -0.0202578 0)
(0.0246289 -0.0189367 0)
(0.0282155 -0.016973 0)
(0.0313609 -0.0144388 0)
(0.0339536 -0.0113861 0)
(0.0358161 -0.00793725 0)
(0.0369216 -0.00427121 0)
(0.0372971 -0.000554921 0)
(0.0369629 0.00311371 0)
(0.0359777 0.00664368 0)
(0.034388 0.00996776 0)
(0.0322267 0.0130198 0)
(0.0295356 0.0157294 0)
(0.026364 0.018016 0)
(0.0227938 0.0197916 0)
(0.0189277 0.0209796 0)
(0.014899 0.0215277 0)
(0.0108474 0.0214119 0)
(0.00692898 0.020642 0)
(0.00329099 0.0192652 0)
(3.32229e-05 0.0174026 0)
(-0.00277559 0.0151444 0)
(-0.00510574 0.0125932 0)
(-0.00695984 0.00983035 0)
(-0.00830607 0.00691143 0)
(-0.00912299 0.00386909 0)
(-0.0093858 0.000750733 0)
(-0.00902808 -0.00241835 0)
(-0.00803114 -0.00553995 0)
(-0.00636065 -0.00847769 0)
(-0.00395443 -0.0109598 0)
(-0.000678766 -0.0127247 0)
(0.003414 -0.0133975 0)
(0.00733555 -0.0126383 0)
(0.0105418 -0.0107633 0)
(0.0129977 -0.0081695 0)
(0.0147801 -0.00514423 0)
(0.0159379 -0.00188315 0)
(0.0164477 0.00152304 0)
(0.016272 0.00502494 0)
(0.0154466 0.00859039 0)
(0.0139535 0.01213 0)
(0.0117689 0.0155111 0)
(0.0089507 0.0185987 0)
(0.00555762 0.0212628 0)
(0.001685 0.023419 0)
(-0.00254422 0.0250148 0)
(-0.00701001 0.0260347 0)
(-0.0115723 0.0264049 0)
(-0.0161181 0.0261832 0)
(-0.0205453 0.0253702 0)
(-0.0247293 0.0240208 0)
(-0.028591 0.0222244 0)
(-0.0320711 0.0200499 0)
(-0.0351324 0.0175802 0)
(-0.0377727 0.0148904 0)
(-0.0400178 0.0120344 0)
(-0.0419237 0.00902811 0)
(-0.0435493 0.00584298 0)
(-0.0449011 0.00241725 0)
(-0.0460261 -0.00138454 0)
(-0.0468445 -0.00586213 0)
(-0.0469769 -0.0114077 0)
(-0.0456463 -0.0181621 0)
(-0.041732 -0.0252069 0)
(-0.034784 -0.0306758 0)
(-0.0265572 -0.0330401 0)
(-0.019617 -0.0328501 0)
(-0.0145546 -0.0324105 0)
(-0.00977512 -0.0349834 0)
(-0.00457084 -0.0376521 0)
(-0.0010844 -0.0254035 0)
(0.00150271 -0.012839 0)
(0.00137178 -0.0221453 0)
(0.00264429 -0.0195128 0)
(0.00465352 -0.0164186 0)
(0.00518632 -0.0180496 0)
(0.00732691 -0.0212381 0)
(0.0114405 -0.0241151 0)
(0.0171702 -0.0252355 0)
(0.022651 -0.0245094 0)
(0.026984 -0.0229324 0)
(0.0308372 -0.0207271 0)
(0.0345049 -0.017675 0)
(0.037651 -0.01388 0)
(0.0398911 -0.00957911 0)
(0.0411536 -0.00507266 0)
(0.0415402 -0.000572353 0)
(0.0411386 0.00381831 0)
(0.0400072 0.00802533 0)
(0.0381787 0.0119808 0)
(0.0356877 0.0156309 0)
(0.032575 0.018903 0)
(0.0288867 0.021684 0)
(0.0247029 0.0238505 0)
(0.0201507 0.0253018 0)
(0.0154007 0.0259654 0)
(0.0106371 0.0258015 0)
(0.00604563 0.024789 0)
(0.00181741 0.023036 0)
(-0.00190239 0.0206895 0)
(-0.00505775 0.0179152 0)
(-0.00764105 0.0148319 0)
(-0.0096807 0.011533 0)
(-0.0111829 0.0080634 0)
(-0.0120965 0.00442005 0)
(-0.0123951 0.000665421 0)
(-0.0121052 -0.00316793 0)
(-0.011255 -0.00694295 0)
(-0.00970089 -0.0106257 0)
(-0.00693539 -0.014102 0)
(-0.00240591 -0.0170414 0)
(0.00367101 -0.0181365 0)
(0.0093939 -0.016708 0)
(0.0135502 -0.0138454 0)
(0.0162253 -0.0104307 0)
(0.0179867 -0.00673671 0)
(0.0191722 -0.00282901 0)
(0.0197985 0.00125354 0)
(0.0197656 0.00547636 0)
(0.0189864 0.0097875 0)
(0.0173932 0.0140583 0)
(0.0149761 0.0181694 0)
(0.0117854 0.0219343 0)
(0.00789918 0.0251828 0)
(0.00345042 0.0278157 0)
(-0.00139296 0.0297341 0)
(-0.0065323 0.030923 0)
(-0.0117791 0.0313499 0)
(-0.0169624 0.0310182 0)
(-0.0219986 0.0299806 0)
(-0.0267234 0.0283071 0)
(-0.0310331 0.0261074 0)
(-0.0348638 0.0234738 0)
(-0.0381855 0.0205402 0)
(-0.041011 0.0174071 0)
(-0.0433877 0.0141625 0)
(-0.0454255 0.0108503 0)
(-0.0472311 0.00745337 0)
(-0.0488474 0.00384553 0)
(-0.0504118 -0.00018311 0)
(-0.0522698 -0.00503885 0)
(-0.0545689 -0.0115284 0)
(-0.0556361 -0.0202367 0)
(-0.0517467 -0.0306129 0)
(-0.0412569 -0.0390504 0)
(-0.0276743 -0.0414302 0)
(-0.0167569 -0.0392401 0)
(-0.0104983 -0.0374321 0)
(-0.0052811 -0.0397573 0)
(-0.00180866 -0.0413862 0)
(-0.00127714 -0.0277173 0)
(0.00309614 -0.0144993 0)
(0.00114021 -0.0213696 0)
(-0.00122424 -0.0208418 0)
(0.0011559 -0.0177176 0)
(0.00109212 -0.0192049 0)
(0.002648 -0.024423 0)
(0.00781263 -0.0298277 0)
(0.0160559 -0.0317577 0)
(0.0244457 -0.0298442 0)
(0.03053 -0.027047 0)
(0.0345569 -0.0246291 0)
(0.0380312 -0.0214547 0)
(0.0413528 -0.0168917 0)
(0.0439159 -0.0115338 0)
(0.0453703 -0.005998 0)
(0.045879 -0.000614038 0)
(0.0456017 0.00457541 0)
(0.0445369 0.00956117 0)
(0.0426226 0.0142678 0)
(0.0398513 0.0186357 0)
(0.0362817 0.022592 0)
(0.0319935 0.0259807 0)
(0.027097 0.0286441 0)
(0.0217319 0.0304401 0)
(0.0160958 0.0312473 0)
(0.0103966 0.0309833 0)
(0.00491552 0.0296544 0)
(-5.66132e-05 0.027407 0)
(-0.00433785 0.0244469 0)
(-0.00784669 0.0210216 0)
(-0.0106319 0.0173318 0)
(-0.0127946 0.0134236 0)
(-0.014399 0.0093297 0)
(-0.0154313 0.00505643 0)
(-0.0159682 0.00067823 0)
(-0.0161388 -0.00364304 0)
(-0.0158668 -0.00799801 0)
(-0.0144187 -0.0128333 0)
(-0.0106761 -0.0183217 0)
(-0.00430551 -0.0234511 0)
(0.00379435 -0.0252904 0)
(0.0117626 -0.0225827 0)
(0.0176846 -0.0176329 0)
(0.0209484 -0.0125969 0)
(0.0224523 -0.00809824 0)
(0.0232556 -0.00375594 0)
(0.0237507 0.000846042 0)
(0.0237831 0.00582015 0)
(0.0230686 0.0109944 0)
(0.0214202 0.0161867 0)
(0.0187633 0.0211932 0)
(0.015124 0.0257742 0)
(0.0106314 0.0297428 0)
(0.00546031 0.0328962 0)
(-0.000182852 0.0351836 0)
(-0.00611766 0.0365591 0)
(-0.0121828 0.0370376 0)
(-0.0181733 0.0365897 0)
(-0.0239394 0.0352523 0)
(-0.0292999 0.0331402 0)
(-0.0341223 0.0304217 0)
(-0.0382913 0.0272176 0)
(-0.04175 0.0236976 0)
(-0.0445453 0.0200191 0)
(-0.0467996 0.0163363 0)
(-0.0487078 0.0127153 0)
(-0.0504662 0.00911678 0)
(-0.0522464 0.00546432 0)
(-0.0547765 0.001901 0)
(-0.0595742 -0.0016973 0)
(-0.0661951 -0.00774997 0)
(-0.0697674 -0.0201941 0)
(-0.0648644 -0.0388677 0)
(-0.0511257 -0.0543009 0)
(-0.0318819 -0.0574096 0)
(-0.0131456 -0.0499533 0)
(-0.00243008 -0.0431988 0)
(0.00260714 -0.0428986 0)
(0.00167653 -0.041733 0)
(-0.00117981 -0.0283302 0)
(0.00215309 -0.017008 0)
(0.00320662 -0.018187 0)
(-0.00392933 -0.0194901 0)
(-0.0047628 -0.0181895 0)
(-0.0066035 -0.0194002 0)
(-0.00769985 -0.0277534 0)
(-0.00483207 -0.0373285 0)
(0.0024941 -0.0415835 0)
(0.0143736 -0.0392134 0)
(0.027765 -0.0336171 0)
(0.037812 -0.0286225 0)
(0.0434672 -0.0247693 0)
(0.0465751 -0.0199074 0)
(0.0485028 -0.0135842 0)
(0.0495688 -0.00700176 0)
(0.0498737 -0.000816854 0)
(0.0496493 0.00509576 0)
(0.0487959 0.0109386 0)
(0.0469952 0.0166221 0)
(0.0440637 0.0219646 0)
(0.0400405 0.0268037 0)
(0.0351134 0.0309703 0)
(0.0294765 0.0342677 0)
(0.0232345 0.0365187 0)
(0.0165141 0.0375538 0)
(0.00958378 0.0372121 0)
(0.00288213 0.0355052 0)
(-0.00310523 0.0325376 0)
(-0.0080113 0.0286691 0)
(-0.0117528 0.0243471 0)
(-0.0145426 0.0198869 0)
(-0.0166384 0.0153572 0)
(-0.0182208 0.0107084 0)
(-0.0194636 0.00595243 0)
(-0.0204683 0.00125154 0)
(-0.0212059 -0.00340572 0)
(-0.0209997 -0.00884918 0)
(-0.0183975 -0.0160233 0)
(-0.012758 -0.0245015 0)
(-0.00491029 -0.0319027 0)
(0.00391237 -0.0345862 0)
(0.0129505 -0.030917 0)
(0.020887 -0.0231739 0)
(0.0258413 -0.015181 0)
(0.0278578 -0.00902345 0)
(0.0283988 -0.00417266 0)
(0.0285755 0.000652596 0)
(0.0285092 0.00613612 0)
(0.0278492 0.0121949 0)
(0.0262242 0.0184744 0)
(0.0233692 0.0245974 0)
(0.0192722 0.030194 0)
(0.0140418 0.0350377 0)
(0.00796891 0.0388249 0)
(0.00138223 0.0415231 0)
(-0.00551625 0.043117 0)
(-0.0124891 0.0436019 0)
(-0.0193414 0.0429868 0)
(-0.0259327 0.0412917 0)
(-0.0320201 0.0385924 0)
(-0.0373905 0.0351384 0)
(-0.0418046 0.0311143 0)
(-0.0451393 0.0267638 0)
(-0.0475483 0.0223722 0)
(-0.0493604 0.0182186 0)
(-0.0509222 0.0144097 0)
(-0.0525284 0.0109269 0)
(-0.0547177 0.00810632 0)
(-0.0587721 0.00681199 0)
(-0.0655639 0.00563145 0)
(-0.0716756 -0.00211232 0)
(-0.0708725 -0.0229424 0)
(-0.0616616 -0.0517838 0)
(-0.0481599 -0.0750627 0)
(-0.0318189 -0.0822209 0)
(-0.0121109 -0.0708364 0)
(0.00381976 -0.0532139 0)
(0.00785791 -0.0436889 0)
(0.00109904 -0.0380966 0)
(-0.00136028 -0.0274741 0)
(0.0015391 -0.0193102 0)
(0.0119388 -0.015418 0)
(0.00139137 -0.0128789 0)
(-0.00912028 -0.0143563 0)
(-0.0161568 -0.0158 0)
(-0.0246584 -0.0259467 0)
(-0.0315368 -0.0390197 0)
(-0.0315887 -0.0488926 0)
(-0.0201497 -0.0530551 0)
(0.00235517 -0.0500281 0)
(0.0280066 -0.0407329 0)
(0.0476785 -0.0303568 0)
(0.0578094 -0.0217723 0)
(0.0601627 -0.0142943 0)
(0.0588275 -0.00723339 0)
(0.0567528 -0.000676151 0)
(0.0549956 0.00560915 0)
(0.0534142 0.0121523 0)
(0.0513001 0.0189781 0)
(0.0480482 0.0255823 0)
(0.0435206 0.0315531 0)
(0.0379107 0.0366472 0)
(0.0314324 0.0407039 0)
(0.0241509 0.0435948 0)
(0.016104 0.0451254 0)
(0.00766146 0.0448881 0)
(-0.000405426 0.0426281 0)
(-0.00723616 0.0385276 0)
(-0.0123841 0.033262 0)
(-0.0161223 0.0276692 0)
(-0.0189699 0.02228 0)
(-0.021206 0.0171498 0)
(-0.0229775 0.0121308 0)
(-0.0244242 0.00724441 0)
(-0.0255422 0.00236056 0)
(-0.0258423 -0.00329088 0)
(-0.0239946 -0.0110902 0)
(-0.0190602 -0.02137 0)
(-0.0121392 -0.032124 0)
(-0.00407907 -0.0406464 0)
(0.00459629 -0.0438186 0)
(0.0127336 -0.0401502 0)
(0.020977 -0.0308182 0)
(0.0277079 -0.019674 0)
(0.031404 -0.0107881 0)
(0.032923 -0.00460025 0)
(0.033632 0.000664585 0)
(0.0339721 0.00653774 0)
(0.0336847 0.0133622 0)
(0.0323254 0.0208172 0)
(0.0294858 0.0283353 0)
(0.0250497 0.0353231 0)
(0.0190811 0.0412455 0)
(0.0119181 0.045813 0)
(0.00411645 0.0489188 0)
(-0.00394513 0.0506308 0)
(-0.011938 0.0510349 0)
(-0.0196804 0.0502014 0)
(-0.0271683 0.048092 0)
(-0.0341233 0.0447168 0)
(-0.0401482 0.0402346 0)
(-0.0448917 0.0349567 0)
(-0.0482661 0.0294039 0)
(-0.0506104 0.0241219 0)
(-0.0524189 0.0194973 0)
(-0.054097 0.0155922 0)
(-0.0560214 0.0125988 0)
(-0.0584874 0.0112281 0)
(-0.0609554 0.0113727 0)
(-0.0609454 0.00882323 0)
(-0.0549019 -0.00387713 0)
(-0.0407653 -0.0299561 0)
(-0.023834 -0.0612574 0)
(-0.0130085 -0.0855291 0)
(-0.00883102 -0.0964416 0)
(-0.00490258 -0.0886626 0)
(0.00319133 -0.0632034 0)
(0.00134112 -0.0404385 0)
(-0.00855645 -0.0325945 0)
(-0.00267738 -0.0284243 0)
(0.00623801 -0.0280319 0)
(0.0295483 -0.0150423 0)
(0.0231605 0.00269056 0)
(-0.00241756 0.000214143 0)
(-0.0202013 -0.00332278 0)
(-0.0390901 -0.0130413 0)
(-0.0572908 -0.0308107 0)
(-0.064525 -0.0520724 0)
(-0.056475 -0.0714883 0)
(-0.0330827 -0.0810306 0)
(0.000682299 -0.0739267 0)
(0.0359166 -0.0548838 0)
(0.0641008 -0.0324926 0)
(0.078369 -0.0144294 0)
(0.0792561 -0.00317536 0)
(0.0734404 0.00338054 0)
(0.0670944 0.00850292 0)
(0.062357 0.014576 0)
(0.0585276 0.0219618 0)
(0.0544345 0.0297033 0)
(0.0493697 0.0369173 0)
(0.0430346 0.0431244 0)
(0.0354269 0.0481753 0)
(0.0266413 0.0520404 0)
(0.0168769 0.0543298 0)
(0.0068981 0.0540565 0)
(-0.00193782 0.0506459 0)
(-0.00866043 0.0447699 0)
(-0.0133463 0.0378906 0)
(-0.0167759 0.0312998 0)
(-0.0199711 0.0253334 0)
(-0.0235054 0.0196432 0)
(-0.0267482 0.0139623 0)
(-0.0288617 0.00847334 0)
(-0.0294624 0.00256045 0)
(-0.0279525 -0.00520699 0)
(-0.0237066 -0.0157846 0)
(-0.0175805 -0.0280283 0)
(-0.0111888 -0.0395683 0)
(-0.00339488 -0.048891 0)
(0.00565387 -0.0519099 0)
(0.0125055 -0.0477928 0)
(0.0183838 -0.0384494 0)
(0.024749 -0.0257129 0)
(0.0296097 -0.014478 0)
(0.0329349 -0.0065787 0)
(0.0358531 -0.000449859 0)
(0.0384133 0.00608951 0)
(0.0397971 0.0138695 0)
(0.039389 0.0227242 0)
(0.03688 0.031938 0)
(0.0320855 0.0407577 0)
(0.0250853 0.0482606 0)
(0.0164059 0.0539303 0)
(0.0068869 0.0575693 0)
(-0.00277786 0.0592869 0)
(-0.0121724 0.0594579 0)
(-0.0212066 0.0583236 0)
(-0.0298808 0.0557833 0)
(-0.0378786 0.0516546 0)
(-0.0447949 0.0459433 0)
(-0.0503527 0.0392014 0)
(-0.054735 0.0323957 0)
(-0.0584384 0.0263872 0)
(-0.0619279 0.0215592 0)
(-0.0653449 0.0179171 0)
(-0.0680203 0.0153295 0)
(-0.0678592 0.0131724 0)
(-0.0612646 0.00923252 0)
(-0.0450508 -0.00117466 0)
(-0.0188383 -0.0219967 0)
(0.0117517 -0.0495582 0)
(0.0344614 -0.0730064 0)
(0.0406096 -0.0847738 0)
(0.0311195 -0.0879936 0)
(0.0121101 -0.0825519 0)
(-0.00260007 -0.0564361 0)
(-0.0186931 -0.0290816 0)
(-0.0242154 -0.0329448 0)
(-0.00456862 -0.036237 0)
(0.0154273 -0.0536441 0)
(0.0444223 -0.0336256 0)
(0.0537955 0.0201924 0)
(0.0215097 0.0289519 0)
(-0.00977551 0.0188813 0)
(-0.0326524 0.00806179 0)
(-0.0526861 -0.0166029 0)
(-0.0608395 -0.0518872 0)
(-0.0546382 -0.0886717 0)
(-0.0342042 -0.112562 0)