/*--------------------------------*- C++ -*----------------------------------*\
| =========                 |                                                 |
| \\      /  F ield         | OpenFOAM: The Open Source CFD Toolbox           |
|  \\    /   O peration     | Version:  2412                                  |
|   \\  /    A nd           | Website:  www.openfoam.com                      |
|    \\/     M anipulation  |                                                 |
\*---------------------------------------------------------------------------*/
FoamFile
{
    version     2.0;
    format      ascii;
    arch        "LSB;label=32;scalar=64";
    class       volScalarField;
    location    "8.6";
    object      alpha.mercury;
}
// * * * * * * * * * * * * * * * * * * * * * * * * * * * * * * * * * * * * * //

dimensions      [0 0 0 0 0 0 0];

internalField   nonuniform List<scalar> 
6400
(
1
1
0.999998
1
1
1
1
1
1
1
0.999999
0.999998
0.999998
0.999997
0.999995
0.999997
1
1
0.999997
0.999995
0.999997
1
1.00001
1.00001
1.00001
1.00001
1.00001
1.00001
1.00001
1.00001
1.00001
1
1
1
0.999997
0.999995
0.999995
0.999997
0.999998
0.999997
0.999994
0.999993
0.999993
0.999993
0.999995
0.999996
0.999996
0.999996
0.999995
0.999993
0.999993
0.999993
0.999994
0.999996
0.999998
1
1
1
0.999999
0.999999
0.999999
1
1
1.00001
1.00001
1.00001
1.00001
1.00001
1.00001
1.00001
1.00001
1
0.999998
0.999997
1
1
0.999999
0.999997
0.999997
0.999998
0.999995
0.999998
1
1
1
1
1
1
0.999999
0.999998
0.999997
0.999996
0.999997
1
1
0.999999
0.999998
1
1
1.00001
1.00001
1.00001
1.00001
1.00001
1.00001
1.00001
1.00001
1.00001
1.00001
1
1
0.999998
0.999995
0.999994
0.999995
0.999996
0.999995
0.999993
0.999991
0.999991
0.999992
0.999993
0.999994
0.999995
0.999995
0.999995
0.999994
0.999991
0.999991
0.999992
0.999994
0.999998
1
1
1
1
1
1
1
1.00001
1.00001
1.00001
1.00002
1.00002
1.00002
1.00002
1.00001
1.00001
1.00001
1.00001
1
0.999996
0.999997
0.999999
0.999999
0.999993
0.99999
0.999994
0.999997
0.999995
0.999998
0.999998
0.999999
0.999999
0.999999
0.999998
0.999998
0.999999
1
1
1
1.00001
1.00001
1.00001
1.00001
1.00001
1.00002
1.00002
1.00002
1.00001
1.00001
1
1
0.999999
0.999997
0.999995
0.999992
0.999989
0.999989
0.99999
0.99999
0.999991
0.999994
0.999996
0.999997
0.999996
0.999995
0.999995
0.999998
1
1
1
1
1
1
1
1
0.999999
1
1
1.00001
1.00001
1.00001
1.00001
1.00001
1.00001
1.00001
1.00001
1.00001
1.00001
1.00001
1.00001
1.00001
1.00001
1.00001
1.00001
1.00001
1
1
0.999998
0.999992
0.999992
0.999993
0.999992
0.999985
0.999985
0.999988
0.999994
0.999992
0.999997
0.999999
0.999999
0.999998
0.999998
0.999998
0.999999
0.999999
1
1
1.00001
1.00001
1.00001
1.00001
1.00002
1.00002
1.00001
1.00001
1.00001
1.00001
1.00001
1
1
0.999998
0.999996
0.999992
0.999989
0.999988
0.999987
0.999987
0.999989
0.999992
0.999993
0.999993
0.999995
0.999997
0.999999
1
1
1
1.00001
1.00001
1.00001
1.00001
1.00001
1
1
1
1
1
1
1
1.00001
1.00001
1.00001
1.00001
1.00001
1.00001
1.00001
1.00001
1.00001
1.00001
1.00001
1.00001
1.00001
1.00001
1
1
0.999998
0.999992
0.999992
0.999993
0.999998
1
0.999997
0.999993
0.999995
0.999999
0.999995
0.999999
1
0.999999
1
1
1
1
1
1
1
1
1.00001
1.00001
1.00001
1.00001
1.00001
1
1
0.999997
0.999996
0.999998
0.999998
0.999998
0.999998
0.999999
1
1
1
1
1
1
1
1
0.999999
0.999998
0.999996
0.999996
0.999998
1
1
1
1
1
1
1
1
1
1
0.999999
0.999998
0.999996
0.999996
1
1
1
1
1
1
1
1.00001
1.00001
1.00001
1.00001
1.00001
1.00001
1.00001
1
1
1
1
1
0.999999
1
1.00001
1.00001
1
1
1
1
0.999998
1
1
1
1
1
1
1
1
1
1
0.999998
0.999998
0.999999
0.999997
0.999995
0.999998
1
0.999998
0.999995
0.999994
0.999996
0.999999
1
1
1
1
1.00001
1.00001
1.00001
1.00001
1.00001
1.00001
1.00001
1
1
0.999998
0.999996
0.999996
0.999998
0.999999
0.999998
0.999998
0.999997
0.999997
0.999995
0.999993
0.999992
0.999992
0.999993
0.999995
0.999993
0.999993
0.999994
0.999994
0.999994
0.999994
0.999994
0.999995
0.999997
0.999997
0.999998
1
1
1
1
1
1
1
1
1.00001
1.00001
1.00001
1.00001
1.00001
1.00001
1
1
1
1
1
0.999999
0.999994
1
1.00001
1.00001
1.00001
1
1
0.999999
0.999996
0.999992
0.999992
0.999994
0.999995
0.999995
1
1
1
1
1
1
1.00001
1.00001
1.00001
1.00001
1.00001
1.00001
1.00001
1.00001
1.00001
1.00001
1.00001
1.00001
1.00001
1
1
1
0.999999
0.999998
0.999998
0.999997
0.999996
0.999995
0.999994
0.999993
0.999992
0.999992
0.999993
0.999996
0.999998
0.999999
0.999999
0.999999
0.999999
0.999998
0.999998
0.999999
1
1
1
1
1
0.999999
0.999996
0.999996
0.999996
1
1
1.00001
1.00001
1.00001
1.00001
1.00001
1.00001
1
0.999997
1
1
1
1
0.999996
0.999994
1.00001
1
1
1
0.999999
0.999997
0.999995
0.999995
0.999996
0.999997
0.999999
0.999998
0.999996
0.999999
1
1
1
1
1
1
1
1
1
1
1
0.999998
0.999999
1
1
0.999998
0.999998
1
1
1
1
1
1
1
1
1
1
1
1
1
1
1
1
1
1
1
1
1
1
1
1.00001
1.00001
1.00001
1.00001
1.00001
1
1
1
0.999995
0.999991
0.999997
1
1
1
1
1
1
0.999993
0.999989
0.999989
0.999999
1
1
1
1
1
1
1
0.999997
0.999991
0.99999
0.999992
0.999997
0.999997
0.999998
1
1
0.999999
0.999994
0.999993
0.999996
0.999998
0.999997
0.999996
0.999995
0.999995
0.999994
0.999995
0.999997
0.999994
0.999988
0.999987
0.999987
0.999987
0.999989
0.999989
0.999988
0.999988
0.999993
0.999998
0.999999
1
1
1
1
1
1
1.00001
1.00001
1.00001
1.00001
1
1
1
1
1
1
1
1
1
1.00001
1.00001
1.00001
1.00001
1.00001
1
1
0.999999
0.999994
0.999991
0.999991
0.999993
0.999993
0.999993
0.999991
0.999989
0.999986
0.999986
0.999989
0.999995
0.999995
0.999995
0.999997
0.999996
1
1
0.999999
0.999995
0.999992
0.999991
0.99999
0.999995
1
0.999998
0.999995
1
1
1
0.999999
0.999993
0.999992
0.999993
0.999993
0.99999
0.999988
0.999988
0.999988
0.999988
0.999991
0.999997
0.999996
0.999995
0.999996
0.999998
0.999999
0.999999
0.999999
0.999999
1
1
1
1
1
1
1
1
1
1
1
1
1
1.00001
1
1
1
1
1
1
1
1
1
1
1
1
1
1
0.999999
0.999997
0.999996
0.999996
0.999994
0.999985
0.999983
0.999983
0.999983
0.999983
0.999991
1
1
1
1
0.999998
0.999998
0.999999
1
1
0.999995
0.999995
0.999999
1
0.999999
0.999995
1
1
0.999995
0.999995
1
1
1
0.999996
0.999992
0.999992
0.999995
0.999997
0.999998
0.999997
0.999995
0.999996
0.999999
1
1
1
1.00001
1.00001
1.00001
1.00001
1.00001
1.00001
1.00001
1.00001
1.00001
1.00001
1.00001
1.00001
1.00001
1
1
1
1
1
1.00001
1.00001
1.00001
1.00001
1.00001
1.00001
1.00001
1.00001
1.00001
1.00001
1.00001
1.00001
1.00001
1
1
1
1
1
1
1
0.999999
0.999999
0.999999
0.999999
0.999999
0.999999
1
1
1.00001
1
1
0.999999
0.999998
1
1
1
0.999997
1
1
1
1
0.999995
1
1
1
0.999996
0.999995
0.999997
0.999999
1
0.999999
0.999998
0.999999
1
1
1
1
0.999999
0.999999
1
1
1
1
1.00001
1.00001
1.00001
1.00001
1.00001
1.00001
1.00001
1.00001
1.00001
1
1
1
1
1
1
1
1
1.00001
1.00001
1.00001
1.00001
1.00001
1.00001
1.00001
1.00001
1.00001
1.00001
1.00001
1.00001
1.00001
1.00001
1
1
1
1
1
1
1
1
1
1
1
0.999998
1
1
0.999998
0.999996
0.999997
0.999998
0.999995
0.999996
0.999995
0.999994
1
1
0.999996
0.999998
1.00001
1
0.999999
1
1.00001
1.00001
1
1
1.00001
1.00001
1
1
1
0.999998
0.999998
0.999997
0.999997
0.999998
1
1
1
0.999999
0.999996
0.999995
0.999995
0.999998
0.999999
1
1
1
1
1
1
1
1
1
1
1
1
1
1
1
1
1
1
1
1
1
1
1
1
1
1
1
1.00001
1.00001
1
1
1
1
1
1
1
0.999997
0.999995
0.999994
0.999995
0.999996
0.999996
0.999998
1
1
0.999998
0.999995
0.999998
1
1
1
0.999995
0.999994
1
1.00001
1.00001
1.00001
1.00001
1.00001
1.00001
1
1.00001
1.00001
1
1
1
1
1
1
1
1
1
1
1
1
1
1.00001
1.00001
1.00001
1.00001
1.00001
1.00001
1
1
1
1
1
1
1
1
1
1
1
1.00001
1.00001
1.00001
1.00001
1.00001
1.00001
1.00001
1
1
1
1
1
1
1
1
1
1
1
1
1
1
1.00001
1.00001
1.00001
1.00001
1.00001
1.00001
1.00001
1
1
1
1
1
0.999997
0.999999
1
0.999998
0.999999
0.999999
0.999998
0.999995
1
1.00001
1.00001
1.00001
1.00002
1.00001
1.00001
1.00001
1.00001
1
1
1
1
0.999999
0.999999
0.999999
1
1
1
1
1
1
1
1
1.00001
1.00001
1.00001
1
1
1
1
1
1
1
1
1
1
1
1
1
1.00001
1.00001
1.00001
1.00001
1.00001
1
1
1
1
1
1
1
1
1
1
1.00001
1.00001
1.00001
1.00001
1.00001
1.00001
1.00001
1
1
1
1
0.999997
0.999997
0.999997
0.999999
1
1
0.999998
1
0.999997
0.999996
0.999999
0.999998
0.999997
0.999994
0.999997
0.999998
0.999997
0.999997
0.999997
0.999999
1
1
1
1
1
1
1
0.999999
0.999997
0.999996
0.999996
0.999995
0.999995
0.999995
0.999996
0.999997
0.999998
0.999999
1
1
1
1
1
1
1
1
0.999999
0.999998
0.999997
0.999998
1
1
1
1
1
1
0.999999
0.999998
0.999998
0.999998
0.999999
1
1
1
1
1
1
1
1
1
1
1.00001
1.00001
1
1
1
1
1
1.00001
1.00001
1
1
1
0.999999
0.999998
0.999998
0.999998
1
0.999996
0.999993
0.999991
0.999993
0.999995
0.999993
0.999996
0.999998
1
1
1.00001
1.00001
1
1
1
1
0.999999
0.999999
1
1
0.999999
0.999999
0.999998
0.999999
1
1
1
1
1
0.999999
0.999999
0.999999
0.999999
0.999998
0.999998
0.999998
0.999996
0.999995
0.999995
0.999996
0.999996
0.999996
0.999996
0.999996
0.999995
0.999995
0.999995
0.999994
0.999993
0.999993
0.999995
0.999996
0.999997
0.999998
0.999999
1
1
1
1
1
1
1
1
1
1
1
1
1
1
1.00001
1
1
1
1
1
0.999999
0.999996
0.999995
0.999994
0.999996
0.999993
0.999945
0.999846
0.999891
0.999941
0.999968
0.999986
0.999994
0.999999
1
1
1
1
1
1
1
1
1
1
1
0.999999
0.999999
0.999999
0.999999
0.999998
0.999999
0.999999
0.999999
0.999999
0.999998
0.999999
0.999999
0.999999
0.999998
0.999998
0.999998
0.999997
0.999997
0.999997
0.999997
0.999998
0.999998
0.999998
0.999998
0.999998
0.999998
0.999998
0.999997
0.999997
0.999996
0.999996
0.999997
0.999998
0.999998
0.999998
0.999998
0.999998
0.999999
0.999999
0.999999
1
1
1
1
1
1
1
1
1
1
1
0.999999
1
0.999999
0.999997
0.999991
0.999979
0.99996
0.999935
0.999914
0.999962
0.971266
0.953492
0.964514
0.980532
0.993047
0.999186
0.999847
0.999942
0.999989
1
1
1
1
1
1
1
1
1
1
1
1
1
1
1
1
1
1
0.999999
0.999999
0.999998
0.999998
0.999998
0.999998
0.999998
0.999997
0.999997
0.999996
0.999997
0.999997
0.999997
0.999998
0.999998
0.999998
0.999998
0.999998
0.999997
0.999997
0.999996
0.999995
0.999996
0.999997
0.999998
0.999999
1
1
1
1
1
1
1
1
1
1
1
1
1
1
1
1
1
1
0.999996
0.999964
0.999888
0.999758
0.998794
0.994864
0.989034
0.984998
0.992321
0.333234
0.306016
0.335781
0.394831
0.475178
0.572856
0.667398
0.754242
0.829373
0.887844
0.924714
0.945739
0.962777
0.978256
0.987655
0.990424
0.988797
0.9832
0.975193
0.968518
0.964835
0.960298
0.955328
0.951148
0.947723
0.944838
0.942675
0.941573
0.941463
0.943085
0.94651
0.951929
0.95899
0.966451
0.973359
0.979349
0.984248
0.988285
0.991542
0.994176
0.996174
0.99728
0.997076
0.996486
0.99536
0.99304
0.989311
0.984374
0.978338
0.97167
0.965055
0.959074
0.954207
0.950773
0.948626
0.947474
0.947604
0.948143
0.949459
0.951621
0.953431
0.954208
0.95889
0.964139
0.965827
0.962439
0.952299
0.936854
0.921952
0.903209
0.872897
0.825922
0.769091
0.701602
0.634663
0.562808
0.498408
0.44965
0.424478
0.460839
4.3776e-06
4.05528e-06
3.80523e-06
3.71826e-06
3.67239e-06
3.50959e-06
0.0172443
0.0526542
0.103876
0.170914
0.244822
0.316899
0.375394
0.413689
0.431269
0.430597
0.416534
0.393895
0.367195
0.338107
0.308663
0.282604
0.260933
0.243067
0.229547
0.220248
0.214614
0.213558
0.215573
0.220271
0.227392
0.236469
0.247357
0.260289
0.275071
0.2908
0.306904
0.322781
0.337216
0.348987
0.357058
0.361669
0.36247
0.359738
0.353546
0.343966
0.331766
0.317906
0.303078
0.288003
0.273301
0.259625
0.247651
0.237898
0.231876
0.230276
0.233099
0.240594
0.25192
0.265595
0.281979
0.300331
0.317456
0.332672
0.343249
0.343696
0.329763
0.299982
0.257285
0.205559
0.149966
0.0983126
0.0593647
0.0299713
0.00688633
2.70133e-06
2.7012e-06
2.7012e-06
2.7012e-06
2.70236e-06
4.57312e-06
4.51662e-06
4.28016e-06
3.85735e-06
3.50959e-06
3.50213e-06
3.50959e-06
3.50213e-06
3.61196e-06
4.02897e-06
8.35156e-05
0.0002785
0.000632223
0.00159353
0.00240846
0.0023963
0.00176534
0.00128429
0.000740142
0.000572069
0.000407517
0.000254107
0.000144922
7.75837e-05
3.03237e-05
3.2606e-06
3.27212e-06
3.18304e-06
3.05552e-06
2.88429e-06
2.73526e-06
2.49202e-06
2.11881e-06
1.78835e-06
1.54987e-06
1.3461e-06
1.21661e-06
1.16274e-06
1.15258e-06
1.15368e-06
1.15129e-06
1.13831e-06
1.11685e-06
1.10297e-06
1.09668e-06
1.09668e-06
1.09668e-06
1.09663e-06
1.09726e-06
1.10029e-06
1.10782e-06
1.12158e-06
1.14261e-06
1.17231e-06
1.2039e-06
1.11144e-06
2.35716e-05
6.70822e-05
0.000124277
0.000203896
0.000320816
0.000465128
0.000588093
0.000665907
0.000712615
0.000735768
0.000712723
0.000596881
0.000363014
0.00013219
4.10623e-06
3.35286e-06
2.87278e-06
2.73939e-06
2.70941e-06
2.70245e-06
2.70122e-06
2.70116e-06
2.70122e-06
2.70172e-06
4.67778e-06
7.45539e-06
2.36417e-05
2.31626e-05
1.33643e-05
3.50959e-06
3.50213e-06
7.14361e-06
4.68772e-05
4.52539e-05
4.62658e-05
5.50628e-05
4.79189e-05
7.34895e-05
8.12356e-05
0.000102258
0.000129938
0.000107442
6.36732e-05
4.68546e-05
3.69264e-05
3.48409e-05
1.88113e-05
1.79036e-05
1.791e-05
3.72716e-05
3.61705e-05
1.19818e-05
5.40928e-06
7.71566e-06
3.02502e-06
9.2977e-06
2.02528e-05
1.99763e-05
3.04248e-06
1.54987e-06
3.39252e-06
3.94635e-06
3.00264e-06
1.15129e-06
2.73074e-06
5.77258e-06
4.78604e-06
2.41755e-06
1.80241e-06
1.09668e-06
1.09668e-06
1.09726e-06
1.10029e-06
1.41954e-06
2.41535e-06
3.33399e-06
4.61926e-06
5.69378e-06
5.71292e-06
5.01888e-06
8.07475e-06
1.22616e-05
1.56524e-05
1.83867e-05
2.7375e-05
4.08985e-05
5.45857e-05
6.52844e-05
7.37466e-05
7.98576e-05
8.02599e-05
7.26392e-05
5.30907e-05
4.60678e-05
1.92658e-05
7.544e-05
3.44355e-05
2.85987e-06
2.74332e-06
2.70979e-06
2.70245e-06
2.70122e-06
2.70172e-06
2.70211e-06
1.86939e-05
2.44227e-05
2.74032e-05
2.60044e-05
1.75961e-05
7.91825e-06
3.72983e-06
5.71642e-06
4.15643e-05
4.80923e-05
4.71968e-05
6.38184e-05
3.84754e-05
4.38141e-05
3.30901e-05
2.62606e-05
2.74833e-05
2.86153e-05
4.01602e-05
3.12184e-05
9.92379e-06
1.16923e-05
1.28515e-05
1.59464e-05
1.79098e-05
3.29557e-05
3.51867e-05
3.27183e-05
2.87125e-05
1.72191e-05
3.36755e-06
1.96534e-05
2.04299e-05
1.36407e-05
1.9446e-06
1.81016e-06
1.94187e-06
1.93983e-06
2.04208e-06
4.27513e-06
7.02902e-06
7.02587e-06
7.02978e-06
5.92634e-06
1.93926e-06
2.38921e-06
4.41543e-06
6.3005e-06
8.32182e-06
1.12666e-05
1.19064e-05
1.19088e-05
1.19087e-05
1.19978e-05
1.19087e-05
1.086e-05
1.15762e-05
1.31056e-05
1.04541e-05
7.49334e-06
4.84957e-06
5.3393e-06
7.38981e-06
9.58838e-06
1.27629e-05
1.5827e-05
1.6826e-05
1.55116e-05
2.14075e-05
5.27222e-05
2.51607e-05
5.33691e-06
3.81399e-06
2.77264e-06
2.71833e-06
2.70444e-06
2.70156e-06
2.70142e-06
2.70156e-06
3.79267e-06
2.34662e-05
2.81036e-05
2.33261e-05
1.23027e-06
9.34839e-07
7.27521e-06
8.51768e-06
6.58532e-06
8.52594e-06
1.93917e-05
2.32675e-05
1.99534e-05
3.75652e-05
5.09609e-05
2.94244e-05
1.53718e-05
1.32967e-05
1.95822e-05
3.90096e-05
3.0886e-05
6.82445e-06
9.03879e-06
1.24885e-05
2.32332e-05
2.41563e-05
1.50314e-05
1.43963e-05
2.13205e-05
2.888e-05
1.55114e-05
5.07193e-06
1.92757e-05
1.99102e-05
8.3488e-06
1.97296e-06
4.14589e-06
2.25929e-06
1.85735e-06
1.9153e-06
6.78934e-06
7.01401e-06
7.0324e-06
6.97023e-06
4.90441e-06
3.1883e-06
9.79786e-06
1.1533e-05
1.17403e-05
1.18168e-05
1.18489e-05
1.18817e-05
1.19063e-05
1.1913e-05
1.19087e-05
1.2075e-05
1.24509e-05
1.35271e-05
1.43946e-05
1.27297e-05
5.91423e-06
1.79653e-06
1.33871e-06
1.39292e-06
2.0727e-06
3.87278e-06
5.95536e-06
6.87796e-06
8.11272e-06
2.33915e-05
2.26481e-05
6.53222e-06
3.10869e-06
3.09965e-06
3.03179e-06
2.73519e-06
2.705e-06
2.70158e-06
2.70156e-06
3.3252e-06
1.29627e-05
2.34808e-05
2.7613e-05
4.40489e-06
9.34839e-07
6.79748e-07
5.98882e-07
2.86117e-06
5.74576e-06
8.89819e-06
6.6776e-06
4.62009e-06
1.49342e-06
1.40251e-05
4.34898e-05
3.1413e-05
1.32999e-05
1.18084e-05
1.90295e-05
2.46358e-05
6.44876e-06
6.29711e-06
1.05152e-05
2.7252e-05
2.7252e-05
2.43149e-05
2.12106e-06
2.16543e-06
3.8557e-06
1.51141e-05
1.32234e-05
1.82426e-05
1.93293e-05
1.83749e-05
8.85881e-06
1.30262e-05
1.25835e-05
4.16128e-06
1.84786e-06
1.85735e-06
1.9153e-06
3.05496e-06
6.56546e-06
2.79079e-06
2.46671e-06
2.46671e-06
2.20842e-06
6.025e-06
8.28322e-06
1.17404e-05
1.18168e-05
1.18491e-05
1.18817e-05
1.18892e-05
1.1996e-05
1.16407e-05
1.11087e-05
1.14469e-05
1.29013e-05
1.23809e-05
7.56294e-06
8.23511e-07
6.74702e-07
6.76057e-07
9.91751e-07
2.09529e-06
3.43778e-06
4.64543e-06
7.06726e-06
2.45127e-05
1.72966e-05
3.17949e-06
3.12655e-06
3.10869e-06
1.14687e-05
1.1404e-05
5.30359e-06
2.705e-06
7.17072e-06
1.29631e-05
1.30104e-05
2.143e-05
4.47435e-05
1.6131e-05
1.20385e-06
7.03717e-07
4.0605e-07
3.68055e-07
3.63915e-07
2.32981e-06
4.6151e-06
1.09452e-06
3.66958e-07
8.21322e-06
4.5467e-05
4.57386e-05
2.20892e-05
1.08827e-05
2.27619e-05
2.67843e-05
6.42346e-06
6.05226e-06
1.16343e-05
2.7198e-05
2.7252e-05
2.91197e-06
2.1012e-06
2.10809e-06
2.16543e-06
3.03182e-06
1.61647e-05
1.86363e-05
1.91256e-05
1.31976e-05
1.0136e-05
1.30052e-05
1.02496e-05
1.84786e-06
1.84786e-06
1.84786e-06
1.88356e-06
2.04476e-06
2.41852e-06
3.50248e-06
2.91788e-06
2.20842e-06
1.84264e-06
1.73516e-06
1.78348e-06
3.93479e-06
1.01033e-05
1.17281e-05
1.17556e-05
1.15513e-05
8.23253e-06
3.75035e-06
3.12024e-06
3.95969e-06
3.86456e-06
2.43143e-06
1.05504e-06
5.87464e-07
5.68737e-07
5.55428e-07
7.58972e-07
2.05764e-06
5.99187e-06
6.48537e-06
7.06256e-06
2.33529e-05
1.96323e-05
3.2795e-06
3.16628e-06
6.04266e-06
1.63234e-05
1.63057e-05
1.62107e-05
6.61843e-06
1.29332e-05
1.30104e-05
1.30162e-05
2.15147e-05
4.50862e-05
4.53654e-05
2.72074e-05
1.41292e-05
2.14594e-06
3.71447e-07
3.48802e-07
3.45152e-07
3.97882e-07
3.34406e-07
3.25821e-07
1.82943e-05
4.57362e-05
4.57389e-05
3.34093e-05
9.44208e-06
1.27156e-05
2.63548e-05
6.01809e-06
6.02288e-06
6.08384e-06
1.55879e-05
2.60036e-05
2.09549e-06
2.09555e-06
2.1012e-06
2.14606e-06
3.88492e-06
1.83297e-05
1.83643e-05
1.86017e-05
1.35452e-05
1.88972e-05
8.91489e-06
2.24184e-06
1.99952e-06
1.84786e-06
6.11754e-06
7.32442e-06
3.81274e-06
8.68822e-06
2.10779e-05
2.39338e-05
1.38651e-05
4.66445e-06
1.84264e-06
1.74625e-06
1.8176e-06
1.64202e-06
5.37927e-06
5.03123e-06
1.94781e-06
1.42876e-06
1.21334e-06
1.00025e-06
7.91043e-07
6.58774e-07
6.21365e-07
5.94349e-07
5.70342e-07
5.45859e-07
5.27243e-07
5.04048e-07
7.13722e-07
4.13203e-06
1.36094e-05
2.00689e-05
2.12954e-05
1.1642e-05
3.5649e-06
4.02455e-06
1.63946e-05
1.64007e-05
1.60745e-05
7.21985e-06
2.18448e-06
9.79641e-06
1.30159e-05
1.30128e-05
2.8529e-05
4.53654e-05
4.53654e-05
4.53654e-05
4.28348e-05
6.65931e-06
4.2411e-07
3.45221e-07
3.30346e-07
3.19693e-07
3.18191e-07
3.17241e-07
2.49318e-05
4.56936e-05
4.57362e-05
3.13482e-05
8.41794e-06
7.0424e-06
6.67382e-06
6.01809e-06
6.01742e-06
6.02288e-06
1.30774e-05
9.47815e-06
2.09555e-06
2.09542e-06
2.09868e-06
2.12706e-06
2.43077e-06
1.29405e-05
1.83297e-05
1.18913e-05
1.85352e-05
1.9718e-05
1.32065e-05
2.48644e-06
2.24184e-06
2.24411e-06
5.10498e-06
1.21577e-05
2.0922e-05
2.65638e-05
2.7098e-05
2.72204e-05
2.72354e-05
2.66996e-05
1.1663e-05
1.95958e-06
1.64202e-06
1.5815e-06
1.58962e-06
1.5841e-06
1.5927e-06
2.19895e-06
3.21444e-06
3.22369e-06
3.41168e-06
4.1119e-06
2.90675e-06
7.23735e-07
5.44555e-07
5.27327e-07
5.04092e-07
4.80962e-07
4.74215e-07
7.04933e-06
1.87723e-05
1.95744e-05
2.03852e-05
5.07762e-06
3.94597e-06
8.13592e-06
1.64599e-05
1.63934e-05
8.19311e-06
2.18448e-06
2.16983e-06
3.5367e-06
1.29514e-05
8.52366e-06
4.5066e-05
4.51846e-05
4.53654e-05
4.50567e-05
2.58086e-05
7.37029e-06
4.54325e-07
3.34452e-07
3.19693e-07
3.17188e-07
3.15604e-07
3.15414e-07
9.93732e-07
3.57522e-05
4.56936e-05
1.72637e-05
7.04307e-06
6.25493e-06
6.01685e-06
6.01694e-06
6.01809e-06
8.33724e-06
2.37075e-05
4.96479e-06
2.09555e-06
2.09794e-06
2.21157e-06
3.43845e-06
3.09917e-06
3.34838e-06
4.52916e-06
5.39358e-06
1.9718e-05
1.99802e-05
1.9573e-05
3.63124e-06
2.48644e-06
2.59753e-06
2.68988e-06
2.98306e-06
9.46911e-06
1.72404e-05
2.68128e-05
2.72354e-05
2.72775e-05
2.72746e-05
2.72836e-05
1.12668e-05
1.80484e-06
1.60818e-06
1.58128e-06
1.5927e-06
2.88504e-06
4.1532e-06
4.09782e-06
4.09782e-06
4.14766e-06
4.20086e-06
4.20086e-06
4.20086e-06
1.51144e-06
5.09096e-07
4.80964e-07
4.66839e-07
4.59083e-07
6.24018e-06
1.80923e-05
1.87723e-05
1.39676e-05
3.14603e-06
4.39245e-06
1.64598e-05
1.64815e-05
1.64598e-05
1.57522e-05
2.79739e-06
2.15519e-06
2.06522e-06
4.17223e-06
1.52389e-06
3.70775e-05
4.5041e-05
4.5045e-05
1.56597e-05
1.44904e-06
3.83209e-06
1.94558e-06
3.3198e-07
3.17188e-07
3.15604e-07
3.15164e-07
3.15083e-07
3.15414e-07
1.76966e-05
4.52297e-05
8.63604e-06
8.12089e-06
1.00276e-05
6.02317e-06
6.01809e-06
6.02433e-06
1.48789e-05
2.49516e-05
7.44459e-06
2.09794e-06
2.16394e-06
4.49416e-06
4.59212e-06
4.33267e-06
3.04756e-06
2.44213e-06
2.57411e-06
1.65894e-05
2.00314e-05
2.02182e-05
1.89297e-05
3.55864e-06
2.7459e-06
1.01109e-05
1.1383e-05
7.64789e-06
7.70005e-06
9.11545e-06
2.71316e-05
2.72722e-05
2.72886e-05
2.72835e-05
2.64697e-05
5.07357e-06
1.70879e-06
1.60818e-06
2.93785e-06
4.28062e-06
4.21505e-06
4.13016e-06
2.95042e-06
1.30068e-06
3.00082e-06
4.19893e-06
4.0955e-06
9.56977e-07
5.4004e-07
4.66784e-07
4.59127e-07
4.55706e-07
2.19964e-06
1.74016e-05
1.80923e-05
4.742e-06
2.95769e-06
5.12416e-06
1.64815e-05
1.64815e-05
1.64815e-05
1.64527e-05
1.62741e-05
5.23433e-06
1.83034e-06
1.50977e-06
1.45553e-06
1.52744e-05
1.86126e-05
9.22047e-06
1.44904e-06
1.21045e-06
1.15757e-06
1.29976e-06
3.43777e-07
3.15785e-07
3.15164e-07
3.15083e-07
3.1504e-07
3.15083e-07
2.9597e-05
4.43932e-05
2.21723e-05
1.50684e-05
1.03655e-05
6.05223e-06
6.02433e-06
6.55823e-06
2.60562e-05
2.59482e-05
1.10142e-05
2.11862e-06
2.142e-06
3.65617e-06
4.58504e-06
4.59165e-06
3.48533e-06
2.26523e-06
2.27986e-06
3.50448e-06
2.02182e-05
2.02182e-05
2.03325e-05
2.02411e-05
2.03335e-05
2.04502e-05
2.04336e-05
1.0454e-05
7.63596e-06
1.18129e-05
2.71048e-05
2.72509e-05
2.72823e-05
2.72891e-05
2.72823e-05
9.01645e-06
2.02133e-06
1.76471e-06
4.47369e-06
4.4067e-06
3.59161e-06
7.75022e-07
7.84554e-07
7.93678e-07
8.00268e-07
8.15816e-07
1.17709e-06
1.82643e-06
1.94817e-06
8.5979e-07
4.55788e-07
4.51835e-07
4.55808e-07
1.52687e-05
1.05052e-05
2.95895e-06
2.88482e-06
9.96742e-06
1.64798e-05
1.64815e-05
1.64798e-05
1.64184e-05
1.59514e-05
1.52444e-05
6.87255e-06
1.45553e-06
1.44923e-06
1.62284e-05
1.608e-05
7.24785e-06
1.23247e-06
1.15757e-06
1.09713e-06
1.06039e-06
5.89192e-07
3.16355e-07
3.15104e-07
3.15066e-07
3.15066e-07
3.15066e-07
4.08774e-05
4.38582e-05
4.37289e-05
6.67728e-06
6.08734e-06
6.07864e-06
6.05093e-06
1.50961e-05
2.60918e-05
2.60626e-05
2.38621e-05
2.57621e-06
2.23031e-06
2.28644e-06
3.09897e-06
2.99194e-06
2.24988e-06
2.22347e-06
2.22501e-06
2.27793e-06
4.51955e-06
2.02476e-05
2.04657e-05
2.04845e-05
2.04845e-05
2.04845e-05
2.04106e-05
7.25435e-06
8.77328e-06
2.82851e-05
2.73257e-05
2.72289e-05
2.72509e-05
2.72823e-05
2.72416e-05
6.04504e-06
2.57001e-06
4.50812e-06
4.49749e-06
3.38387e-06
6.33623e-07
7.04646e-07
7.7507e-07
7.84555e-07
7.93682e-07
2.12944e-06
5.68755e-06
5.64263e-06
1.55073e-06
4.76797e-07
4.51824e-07
4.49913e-07
4.51835e-07
7.07957e-06
3.0626e-06
2.88491e-06
2.86404e-06
9.83078e-06
1.64742e-05
1.64798e-05
1.63978e-05
7.21851e-06
8.41352e-06
1.39786e-05
2.72785e-06
1.44923e-06
1.44923e-06
2.29956e-05
1.81799e-05
4.88805e-06
1.05526e-06
1.24446e-06
1.5483e-06
1.94111e-06
1.83443e-06
3.2603e-07
3.16353e-07
2.42614e-06
1.1041e-06
1.93185e-05
4.32938e-05
4.38582e-05
1.30882e-05
6.36477e-06
6.42553e-06
7.40562e-06
2.25216e-05
2.60918e-05
2.60918e-05
2.60992e-05
2.60626e-05
2.58157e-05
1.52764e-05
2.37578e-06
2.33108e-06
2.24988e-06
2.22347e-06
2.22343e-06
2.22347e-06
2.22501e-06
2.26802e-06
2.58403e-06
8.92554e-06
2.04657e-05
2.04845e-05
2.04106e-05
7.7488e-06
3.90551e-06
1.44418e-05
2.71178e-05
2.78282e-05
2.73263e-05
2.72289e-05
2.73151e-05
1.59144e-05
3.07318e-06
2.9581e-06
5.92051e-06
4.22529e-06
3.53045e-07
4.93334e-07
9.32242e-07
7.84555e-07
7.93682e-07
1.57236e-06
5.68755e-06
5.74407e-06
5.77799e-06
2.30641e-06
4.72834e-07
4.49906e-07
4.46605e-07
4.49913e-07
1.05551e-06
4.11282e-06
2.86404e-06
2.86081e-06
3.4715e-06
1.20149e-05
1.64626e-05
7.77881e-06
2.51577e-06
2.52074e-06
3.61162e-06
2.65784e-06
1.44956e-06
1.44923e-06
2.30513e-05
2.24864e-06
8.29961e-07
9.35845e-07
1.91053e-06
1.9515e-06
1.9515e-06
1.59924e-06
3.23216e-07
3.20253e-07
4.92674e-06
2.45859e-05
4.13583e-05
4.27029e-05
2.11248e-05
4.751e-06
5.77474e-06
7.89839e-06
2.55762e-05
2.58381e-05
2.59754e-05
2.60981e-05
2.60626e-05
4.40639e-06
4.74241e-06
1.2631e-05
1.42364e-05
1.43589e-05
1.3651e-05
9.68829e-06
2.22343e-06
2.22497e-06
2.24082e-06
2.24838e-06
2.27557e-06
2.38541e-06
2.86539e-06
5.61314e-06
3.41083e-06
2.9002e-06
3.15187e-06
1.72888e-05
2.73624e-05
2.72801e-05
2.76219e-05
2.72953e-05
2.75172e-05
6.21397e-06
3.42816e-06
6.32816e-06
6.20444e-06
1.22923e-07
2.44291e-07
1.00484e-06
1.34569e-06
8.44302e-07
7.99682e-07
1.29025e-06
5.74407e-06
5.77799e-06
5.78742e-06
4.47132e-06
5.44528e-07
4.46352e-07
4.43755e-07
4.46605e-07
5.33586e-06
9.25549e-06
2.86179e-06
2.86179e-06
2.86153e-06
3.01002e-06
4.85831e-06
2.55885e-06
2.5104e-06
2.51577e-06
2.5359e-06
4.15298e-06
4.62132e-06
1.44956e-06
2.28626e-05
1.9192e-06
8.16637e-07
1.76043e-06
1.96781e-06
1.94506e-06
1.68436e-06
4.80013e-07
3.45155e-07
3.06197e-06
1.93011e-05
2.21395e-05
3.67237e-05
3.05144e-05
4.04172e-06
3.99587e-06
8.87271e-06
2.55383e-05
2.57821e-05
2.582e-05
2.58381e-05
2.59754e-05
6.45282e-06
2.86057e-06
2.88038e-06
2.90018e-06
6.0213e-06
1.50325e-05
1.58341e-05
9.76576e-06
7.08242e-06
6.29748e-06
6.35158e-06
5.89078e-06
3.51178e-06
2.78645e-06
3.20075e-06
2.90433e-06
2.9002e-06
2.90019e-06
4.0236e-06
2.51038e-05
2.63355e-05
2.73619e-05
2.72937e-05
2.75222e-05
1.5907e-05
2.89476e-06
3.54062e-06
6.40035e-06
2.20471e-06
8.02712e-09
4.38883e-07
1.34569e-06
1.34569e-06
1.2898e-06
8.16866e-07
9.33081e-07
5.73287e-06
5.78742e-06
5.79047e-06
5.56278e-06
5.91508e-07
4.33461e-07
4.46352e-07
2.80319e-06
9.41585e-06
9.45578e-06
4.49891e-06
2.86176e-06
2.9356e-06
2.88231e-06
2.53506e-06
2.5104e-06
2.50948e-06
2.5104e-06
3.62825e-06
9.17633e-06
1.22828e-05
3.90451e-06
1.94258e-05
4.32857e-06
8.13041e-07
1.96264e-06
1.96761e-06
1.3918e-06
1.34999e-06
1.45949e-06
9.91129e-06
2.12772e-05
2.07162e-05
5.28838e-06
5.78355e-06
4.30883e-06
3.653e-06
3.67282e-06
8.57982e-06
8.09834e-06
6.87639e-06
1.41476e-05
2.582e-05
1.34754e-05
2.86057e-06
2.86057e-06
2.86057e-06
9.86414e-06
1.64661e-05
1.65398e-05
1.63659e-05
1.58963e-05
1.55099e-05
1.53584e-05
1.48791e-05
1.30474e-05
1.29468e-05
1.30349e-05
1.30439e-05
5.0365e-06
1.93971e-06
2.90019e-06
1.52718e-05
2.2229e-05
1.15889e-05
1.95954e-05
2.68677e-05
2.7213e-05
6.01569e-06
2.5425e-06
6.38605e-06
6.38649e-06
8.50566e-08
1.48106e-09
5.61054e-07
1.27485e-06
1.34569e-06
1.30953e-06
1.06042e-06
4.62444e-06
5.78527e-06
5.7927e-06
5.78742e-06
3.35645e-06
4.43501e-07
4.20746e-07
1.34255e-06
9.37135e-06
9.53494e-06
9.49376e-06
9.45578e-06
6.1094e-06
3.1424e-06
4.42465e-06
2.60294e-06
2.50948e-06
2.5104e-06
5.31379e-06
2.92598e-05
3.4617e-05
1.59442e-05
4.41845e-06
5.40907e-06
6.56283e-06
8.10356e-07
1.31657e-06
1.96264e-06
1.26701e-06
2.26681e-06
1.68272e-05
2.21227e-05
2.17622e-05
1.46014e-05
3.98473e-06
3.85938e-06
3.65423e-06
3.61478e-06
3.63942e-06
3.66405e-06
3.62947e-06
3.39894e-06
3.44891e-06
4.34307e-06
2.99452e-06
2.92754e-06
2.86057e-06
7.25806e-06
1.62907e-05
1.65398e-05
1.37835e-05
7.7653e-06
4.95457e-06
4.41815e-06
6.18157e-06
1.03891e-05
1.26177e-05
1.30232e-05
1.31461e-05
1.30191e-05
1.24987e-05
1.26583e-06
2.07282e-06
1.51111e-05
7.01813e-06
1.94132e-06
2.58484e-06
2.37425e-05
1.34938e-05
2.15613e-06
2.39594e-06
6.40314e-06
6.23212e-06
5.28901e-10
5.28901e-10
2.36142e-08
2.11973e-07
7.53039e-07
1.0606e-06
2.7106e-06
4.65378e-06
3.87878e-06
2.13781e-06
1.97059e-06
4.79515e-07
4.20746e-07
4.17845e-07
3.1708e-06
9.53494e-06
9.53494e-06
9.53494e-06
9.08877e-06
8.65139e-06
7.81371e-06
4.1773e-06
2.52073e-06
2.51761e-06
2.51152e-06
3.29741e-05
3.46435e-05
3.45985e-05
2.28403e-05
5.08813e-06
5.27237e-06
2.88482e-06
8.09946e-07
8.09841e-07
8.42618e-07
1.08407e-06
1.04958e-05
2.24109e-05
2.2529e-05
1.89789e-05
3.98446e-06
3.81942e-06
3.68744e-06
3.61533e-06
3.62841e-06
3.62841e-06
5.33074e-06
7.23736e-06
3.4458e-06
3.32954e-06
3.18043e-06
3.01987e-06
2.99452e-06
3.73446e-06
1.60975e-05
1.63976e-05
8.23064e-06
4.52775e-06
4.11721e-06
1.05925e-06
1.05925e-06
1.05925e-06
1.15273e-06
1.26618e-06
5.76668e-06
1.21089e-05
5.81343e-06
4.07722e-07
4.45686e-07
3.03766e-06
2.40673e-06
1.54899e-06
1.75677e-06
2.35953e-06
5.25352e-06
2.62537e-06
1.9942e-06
3.27676e-06
6.40314e-06
1.28969e-06
4.86559e-10
5.99315e-10
1.15861e-09
4.59099e-09
1.60799e-08
5.85202e-08
2.42358e-06
4.54496e-06
3.67334e-07
3.49395e-07
3.61969e-07
4.00835e-07
4.17845e-07
4.17845e-07
2.23564e-06
9.34512e-06
9.53494e-06
3.22622e-06
7.45928e-06
8.17287e-06
7.65394e-06
2.56462e-06
2.56433e-06
1.6223e-05
3.22337e-05
3.39432e-05
3.45621e-05
3.46282e-05
3.04721e-05
6.15995e-06
1.02584e-05
8.59857e-07
8.09762e-07
8.09946e-07
8.17093e-07
8.92641e-07
8.74156e-06
2.25096e-05
1.76405e-05
3.961e-06
3.87889e-06
3.87878e-06
3.81909e-06
3.68714e-06
7.04326e-06
1.52589e-05
1.57596e-05
1.57036e-05
1.01749e-05
3.32954e-06
3.32954e-06
3.18043e-06
5.85968e-06
1.56917e-05
1.57859e-05
8.13751e-06
4.28381e-07
7.69088e-06
1.36513e-05
9.22538e-06
1.05915e-06
1.95838e-06
1.50248e-06
4.7264e-06
1.91162e-06
4.19482e-07
3.81899e-07
3.81899e-07
3.81899e-07
4.45686e-07
8.42808e-07
1.35058e-06
1.86515e-06
3.15419e-06
1.94988e-06
1.94349e-06
1.94988e-06
5.70539e-06
4.74566e-06
4.53319e-10
4.44319e-10
1.41636e-09
1.22162e-08
1.48384e-08
3.95414e-08
9.32082e-08
3.57305e-07
1.01444e-06
5.02504e-07
3.49395e-07
3.49395e-07
4.26745e-07
2.73231e-06
4.17826e-07
6.16079e-07
3.11491e-06
5.22005e-06
1.63093e-06
3.13197e-06
7.67837e-06
3.42958e-06
2.71335e-06
1.77235e-05
2.8335e-05
1.86112e-05
8.51954e-06
2.93727e-05
3.45621e-05
3.21692e-05
7.15791e-06
7.79215e-06
8.10908e-07
8.09946e-07
8.10908e-07
8.16388e-07
8.44357e-07
2.35963e-06
4.15185e-06
3.66727e-06
3.47572e-06
3.96085e-06
3.89208e-06
6.66033e-06
1.49187e-05
1.56767e-05
1.57581e-05
1.57036e-05
1.5755e-05
1.57036e-05
1.42263e-05
9.01305e-06
1.07944e-05
1.55975e-05
1.55975e-05
1.35555e-05
4.69002e-07
4.28399e-07
1.36401e-05
1.36513e-05
1.36513e-05
2.97925e-06
8.39661e-06
8.25215e-06
8.18496e-06
7.93975e-06
1.89093e-06
4.02137e-07
3.81208e-07
4.10774e-07
6.27937e-06
5.40239e-06
2.02204e-06
7.29647e-06
5.66888e-06