/*--------------------------------*- C++ -*----------------------------------*\
| =========                 |                                                 |
| \\      /  F ield         | OpenFOAM: The Open Source CFD Toolbox           |
|  \\    /   O peration     | Version:  2412                                  |
|   \\  /    A nd           | Website:  www.openfoam.com                      |
|    \\/     M anipulation  |                                                 |
\*---------------------------------------------------------------------------*/
FoamFile
{
    version     2.0;
    format      ascii;
    arch        "LSB;label=32;scalar=64";
    class       volVectorField;
    location    "9";
    object      U;
}
// * * * * * * * * * * * * * * * * * * * * * * * * * * * * * * * * * * * * * //

dimensions      [0 1 -1 0 0 0 0];

internalField   nonuniform List<vector> 
6400
(
(-8.10001e-08 5.49629e-07 0)
(-1.89325e-06 7.36259e-07 0)
(-1.53845e-06 -1.01457e-06 0)
(9.75318e-07 -2.83392e-06 0)
(3.89791e-06 -3.06209e-06 0)
(4.85876e-06 -7.91657e-07 0)
(2.29385e-06 3.06925e-06 0)
(-2.8633e-06 6.02324e-06 0)
(-7.42314e-06 5.58304e-06 0)
(-7.92034e-06 1.17789e-06 0)
(-3.12871e-06 -5.02158e-06 0)
(4.6635e-06 -9.15023e-06 0)
(1.07109e-05 -8.08003e-06 0)
(1.07424e-05 -1.69163e-06 0)
(3.92887e-06 6.62712e-06 0)
(-6.15813e-06 1.18024e-05 0)
(-1.34422e-05 1.02201e-05 0)
(-1.30694e-05 2.21437e-06 0)
(-4.63903e-06 -7.79956e-06 0)
(7.21147e-06 -1.38113e-05 0)
(1.54129e-05 -1.18868e-05 0)
(1.47591e-05 -2.7452e-06 0)
(5.23568e-06 8.44945e-06 0)
(-7.7607e-06 1.50693e-05 0)
(-1.65518e-05 1.3016e-05 0)
(-1.57949e-05 3.2779e-06 0)
(-5.7621e-06 -8.55461e-06 0)
(7.74727e-06 -1.55678e-05 0)
(1.6834e-05 -1.36295e-05 0)
(1.61929e-05 -3.8447e-06 0)
(6.23983e-06 8.10739e-06 0)
(-7.18768e-06 1.53352e-05 0)
(-1.63261e-05 1.37649e-05 0)
(-1.60385e-05 4.44811e-06 0)
(-6.71604e-06 -7.16428e-06 0)
(6.11403e-06 -1.4469e-05 0)
(1.51252e-05 -1.35071e-05 0)
(1.54217e-05 -5.10366e-06 0)
(7.19402e-06 5.797e-06 0)
(-4.63449e-06 1.30843e-05 0)
(-1.3398e-05 1.2932e-05 0)
(-1.44725e-05 5.78473e-06 0)
(-7.68999e-06 -4.13147e-06 0)
(2.85459e-06 -1.13366e-05 0)
(1.13008e-05 -1.2133e-05 0)
(1.3287e-05 -6.46641e-06 0)
(8.16254e-06 2.29447e-06 0)
(-9.41334e-07 9.37182e-06 0)
(-9.03021e-06 1.11767e-05 0)
(-1.19766e-05 7.08659e-06 0)
(-8.57866e-06 -4.42772e-07 0)
(-9.6002e-07 -7.34749e-06 0)
(6.74341e-06 -1.01295e-05 0)
(1.06049e-05 -7.58938e-06 0)
(8.86431e-06 -1.29017e-06 0)
(2.68168e-06 5.38387e-06 0)
(-4.59986e-06 9.02034e-06 0)
(-9.23162e-06 7.8939e-06 0)
(-8.95727e-06 2.76515e-06 0)
(-4.09529e-06 -3.59488e-06 0)
(2.70324e-06 -7.87714e-06 0)
(7.87072e-06 -7.94184e-06 0)
(8.78028e-06 -3.89055e-06 0)
(5.08944e-06 2.03869e-06 0)
(-1.12629e-06 6.68886e-06 0)
(-6.51789e-06 7.66678e-06 0)
(-8.27261e-06 4.59334e-06 0)
(-5.60692e-06 -7.48909e-07 0)
(-1.29464e-07 -5.43855e-06 0)
(5.11579e-06 -7.03225e-06 0)
(7.36478e-06 -4.86634e-06 0)
(5.62922e-06 -3.31848e-07 0)
(1.1259e-06 4.00702e-06 0)
(-3.54033e-06 5.90014e-06 0)
(-5.90837e-06 4.64581e-06 0)
(-4.97323e-06 1.35366e-06 0)
(-1.58756e-06 -1.90743e-06 0)
(2.14107e-06 -3.51452e-06 0)
(3.928e-06 -3.16262e-06 0)
(2.1987e-06 -2.11159e-06 0)
(1.24449e-06 -1.04983e-06 0)
(2.88441e-07 6.99076e-07 0)
(-7.19313e-07 -8.05034e-08 0)
(7.71894e-10 -1.74987e-06 0)
(7.14338e-07 -2.84496e-06 0)
(7.93336e-07 -2.1166e-06 0)
(-1.3001e-08 6.76309e-07 0)
(-1.19453e-06 4.1235e-06 0)
(-1.80642e-06 5.81001e-06 0)
(-1.15678e-06 3.96741e-06 0)
(5.86159e-07 -1.02823e-06 0)
(2.36327e-06 -6.46579e-06 0)
(2.87086e-06 -8.78357e-06 0)
(1.48998e-06 -5.90487e-06 0)
(-1.15547e-06 1.1133e-06 0)
(-3.46275e-06 8.35331e-06 0)
(-3.83834e-06 1.12677e-05 0)
(-1.78942e-06 7.56999e-06 0)
(1.62542e-06 -1.07303e-06 0)
(4.34933e-06 -9.75701e-06 0)
(4.5898e-06 -1.31824e-05 0)
(2.00181e-06 -8.93768e-06 0)
(-1.99307e-06 8.3801e-07 0)
(-5.00583e-06 1.05446e-05 0)
(-5.13562e-06 1.43951e-05 0)
(-2.17887e-06 9.92065e-06 0)
(2.1824e-06 -4.49688e-07 0)
(5.361e-06 -1.07419e-05 0)
(5.42768e-06 -1.49459e-05 0)
(2.295e-06 -1.05767e-05 0)
(-2.21217e-06 -1.47633e-07 0)
(-5.446e-06 1.03186e-05 0)
(-5.51692e-06 1.48298e-05 0)
(-2.40822e-06 1.08968e-05 0)
(2.03908e-06 9.02423e-07 0)
(5.23968e-06 -9.37944e-06 0)
(5.38918e-06 -1.41723e-05 0)
(2.48698e-06 -1.09708e-05 0)
(-1.72543e-06 -1.82921e-06 0)
(-4.83003e-06 7.97924e-06 0)
(-5.13589e-06 1.30434e-05 0)
(-2.59803e-06 1.08119e-05 0)
(1.24505e-06 2.84162e-06 0)
(4.21792e-06 -6.28185e-06 0)
(4.7491e-06 -1.16074e-05 0)
(2.69291e-06 -1.05025e-05 0)
(-6.89461e-07 -3.90929e-06 0)
(-3.51142e-06 4.3904e-06 0)
(-4.31522e-06 9.95345e-06 0)
(-2.81003e-06 1.00389e-05 0)
(6.75025e-08 4.91284e-06 0)
(2.73664e-06 -2.48973e-06 0)
(3.83656e-06 -8.24069e-06 0)
(2.90302e-06 -9.48063e-06 0)
(5.35277e-07 -5.80363e-06 0)
(-1.98207e-06 6.77233e-07 0)
(-3.36693e-06 6.5284e-06 0)
(-2.9765e-06 8.79098e-06 0)
(-1.08964e-06 6.45313e-06 0)
(1.27691e-06 8.85919e-07 0)
(2.90473e-06 -4.93667e-06 0)
(2.98935e-06 -8.00628e-06 0)
(1.53374e-06 -6.82697e-06 0)
(-6.70805e-07 -2.14956e-06 0)
(-2.46358e-06 3.47398e-06 0)
(-2.92069e-06 7.07173e-06 0)
(-1.83499e-06 6.82906e-06 0)
(1.82014e-07 3.02166e-06 0)
(2.0378e-06 -2.19417e-06 0)
(2.74836e-06 -5.99783e-06 0)
(1.96473e-06 -6.45316e-06 0)
(1.29143e-07 -3.51326e-06 0)
(-1.78211e-06 1.04201e-06 0)
(-2.77327e-06 4.69722e-06 0)
(-2.24843e-06 5.63642e-06 0)
(-1.78048e-07 3.67666e-06 0)
(2.84071e-06 1.23975e-07 0)
(5.4573e-06 -3.21543e-06 0)
(4.06756e-06 -4.41389e-06 0)
(2.82315e-06 -3.30736e-06 0)
(6.53377e-07 -2.85287e-06 0)
(9.17264e-07 -1.05433e-06 0)
(-5.92503e-07 -1.35236e-06 0)
(6.41975e-07 -2.07605e-06 0)
(1.57625e-06 -1.67404e-06 0)
(1.4087e-06 1.03413e-07 0)
(-1.28495e-08 2.57965e-06 0)
(-1.9405e-06 4.26483e-06 0)
(-3.06374e-06 3.7152e-06 0)
(-2.35118e-06 6.26762e-07 0)
(1.25688e-07 -3.61045e-06 0)
(3.02473e-06 -6.49266e-06 0)
(4.46335e-06 -5.90014e-06 0)
(3.2474e-06 -1.60506e-06 0)
(-2.11814e-07 4.26501e-06 0)
(-3.96962e-06 8.27622e-06 0)
(-5.66347e-06 7.73606e-06 0)
(-4.01773e-06 2.49535e-06 0)
(2.33334e-07 -4.69916e-06 0)
(4.6549e-06 -9.66294e-06 0)
(6.53667e-06 -9.25418e-06 0)
(4.57925e-06 -3.37948e-06 0)
(-2.21524e-07 4.76704e-06 0)
(-5.08881e-06 1.04732e-05 0)
(-7.10432e-06 1.02854e-05 0)
(-4.98455e-06 4.12452e-06 0)
(1.02355e-07 -4.56877e-06 0)
(5.19894e-06 -1.07951e-05 0)
(7.31144e-06 -1.09203e-05 0)
(5.19434e-06 -4.82295e-06 0)
(8.59465e-08 4.0194e-06 0)
(-5.03829e-06 1.05549e-05 0)
(-7.23063e-06 1.10876e-05 0)
(-5.28665e-06 5.38649e-06 0)
(-4.03513e-07 -3.23902e-06 0)
(4.57584e-06 -9.89698e-06 0)
(6.84346e-06 -1.09222e-05 0)
(5.22397e-06 -5.9036e-06 0)
(7.70613e-07 2.19653e-06 0)
(-3.93013e-06 8.82049e-06 0)
(-6.28052e-06 1.04046e-05 0)
(-5.11163e-06 6.29423e-06 0)
(-1.2431e-06 -1.03996e-06 0)
(3.08819e-06 -7.50526e-06 0)
(5.53306e-06 -9.68425e-06 0)
(4.90174e-06 -6.62999e-06 0)
(1.7165e-06 -2.25888e-07 0)
(-2.18925e-06 5.98127e-06 0)
(-4.7303e-06 8.749e-06 0)
(-4.67303e-06 6.81486e-06 0)
(-2.20798e-06 1.43012e-06 0)
(1.25311e-06 -4.44051e-06 0)
(3.88262e-06 -7.74532e-06 0)
(4.38883e-06 -6.91257e-06 0)
(2.62927e-06 -2.56874e-06 0)
(-3.8853e-07 2.89741e-06 0)
(-3.07517e-06 6.63736e-06 0)
(-4.0822e-06 6.81013e-06 0)
(-2.96553e-06 3.47316e-06 0)
(-3.72781e-07 -1.52449e-06 0)
(2.31976e-06 -5.55234e-06 0)
(3.72653e-06 -6.57232e-06 0)
(3.16144e-06 -4.16633e-06 0)
(9.7632e-07 2.98352e-07 0)
(-1.64333e-06 4.43289e-06 0)
(-3.31582e-06 6.1014e-06 0)
(-3.19628e-06 4.53011e-06 0)
(-1.40928e-06 6.66545e-07 0)
(1.04393e-06 -3.37735e-06 0)
(2.85154e-06 -5.4848e-06 0)
(3.08785e-06 -4.64203e-06 0)
(1.67808e-06 -1.4254e-06 0)
(-6.30322e-07 2.39694e-06 0)
(-2.65344e-06 4.84767e-06 0)
(-3.30056e-06 4.78558e-06 0)
(-1.96424e-06 2.36681e-06 0)
(1.10483e-06 -1.30672e-06 0)
(4.44962e-06 -4.77063e-06 0)
(3.01774e-06 -5.54545e-06 0)
(3.00905e-06 -1.36938e-06 0)
(-1.57401e-06 -1.68214e-06 0)
(-3.84238e-07 -5.08989e-07 0)
(-1.7205e-06 -2.63099e-07 0)
(7.7201e-08 -1.3427e-06 0)
(2.0954e-06 -2.17305e-06 0)
(3.1396e-06 -2.01212e-06 0)
(2.2979e-06 -5.21846e-07 0)
(-3.83867e-07 1.78847e-06 0)
(-3.53991e-06 3.60693e-06 0)
(-5.10344e-06 3.58121e-06 0)
(-3.65828e-06 1.29221e-06 0)
(4.15583e-07 -2.2422e-06 0)
(4.89076e-06 -4.98869e-06 0)
(6.92822e-06 -5.09142e-06 0)
(4.89869e-06 -2.1213e-06 0)
(-3.94282e-07 2.45695e-06 0)
(-5.97613e-06 6.00286e-06 0)
(-8.40802e-06 6.25403e-06 0)
(-5.93785e-06 2.78148e-06 0)
(2.70073e-07 -2.59498e-06 0)
(6.67359e-06 -6.77333e-06 0)
(9.41694e-06 -7.19305e-06 0)
(6.68958e-06 -3.42498e-06 0)
(-8.44277e-08 2.47416e-06 0)
(-7.00557e-06 7.10649e-06 0)
(-9.98919e-06 7.72692e-06 0)
(-7.21321e-06 3.89131e-06 0)
(-2.35365e-07 -2.24034e-06 0)
(6.90742e-06 -7.14738e-06 0)
(1.00782e-05 -8.00326e-06 0)
(7.46955e-06 -4.32394e-06 0)
(6.35162e-07 1.76513e-06 0)
(-6.46278e-06 6.78328e-06 0)
(-9.79063e-06 7.91445e-06 0)
(-7.55978e-06 4.60033e-06 0)
(-1.18076e-06 -1.19925e-06 0)
(5.64813e-06 -6.18789e-06 0)
(9.11568e-06 -7.62875e-06 0)
(7.44004e-06 -4.85223e-06 0)
(1.76459e-06 4.58882e-07 0)
(-4.62496e-06 5.30497e-06 0)
(-8.22496e-06 7.07945e-06 0)
(-7.23804e-06 4.96822e-06 0)
(-2.44191e-06 2.92055e-07 0)
(3.39453e-06 -4.32639e-06 0)
(7.12101e-06 -6.44075e-06 0)
(6.90042e-06 -5.06853e-06 0)
(3.08234e-06 -1.1173e-06 0)
(-2.1331e-06 3.20986e-06 0)
(-5.96448e-06 5.64329e-06 0)
(-6.51852e-06 5.02451e-06 0)
(-3.696e-06 1.83322e-06 0)
(8.76458e-07 -2.15787e-06 0)
(4.77638e-06 -4.86188e-06 0)
(6.05204e-06 -4.95611e-06 0)
(4.17717e-06 -2.5123e-06 0)
(2.44125e-07 1.10809e-06 0)
(-3.6583e-06 4.00343e-06 0)
(-5.53783e-06 4.71964e-06 0)
(-4.50395e-06 2.97315e-06 0)
(-1.18641e-06 -2.46709e-07 0)
(2.62938e-06 -3.22676e-06 0)
(4.952e-06 -4.43528e-06 0)
(4.62201e-06 -3.30859e-06 0)
(1.89797e-06 -5.15998e-07 0)
(-1.71487e-06 2.42748e-06 0)
(-4.29155e-06 3.98077e-06 0)
(-4.52042e-06 3.38941e-06 0)
(-2.37458e-06 1.05216e-06 0)
(9.18705e-07 -1.73004e-06 0)
(3.5843e-06 -3.48424e-06 0)
(4.23826e-06 -3.33606e-06 0)
(2.60114e-06 -1.44375e-06 0)
(-4.0672e-07 1.16858e-06 0)
(-3.09884e-06 3.1721e-06 0)
(-3.85008e-06 3.57047e-06 0)
(-2.10224e-06 2.0262e-06 0)
(1.01469e-06 -8.97236e-07 0)
(2.51849e-07 -2.42492e-06 0)
(1.58301e-06 1.70987e-06 0)
(-3.62091e-06 1.51878e-06 0)
(-2.40908e-06 4.26547e-07 0)
(-2.57457e-06 1.11907e-06 0)
(-1.20635e-06 3.11832e-07 0)
(1.06438e-06 -1.42262e-06 0)
(3.27725e-06 -3.08997e-06 0)
(4.04917e-06 -3.37048e-06 0)
(2.35253e-06 -1.57841e-06 0)
(-1.35097e-06 1.67551e-06 0)
(-5.01536e-06 4.60536e-06 0)
(-6.1586e-06 5.25084e-06 0)
(-3.55418e-06 2.78095e-06 0)
(1.70539e-06 -1.75583e-06 0)
(6.61004e-06 -5.8321e-06 0)
(7.9909e-06 -6.87899e-06 0)
(4.58338e-06 -3.92455e-06 0)
(-1.95795e-06 1.62164e-06 0)
(-7.85626e-06 6.62794e-06 0)
(-9.43821e-06 8.04491e-06 0)
(-5.45067e-06 4.79039e-06 0)
(2.01101e-06 -1.46353e-06 0)
(8.62236e-06 -7.15891e-06 0)
(1.03864e-05 -8.9143e-06 0)
(6.08432e-06 -5.56455e-06 0)
(-1.90174e-06 1.07432e-06 0)
(-8.94004e-06 7.21013e-06 0)
(-1.08865e-05 9.28149e-06 0)
(-6.55763e-06 6.0538e-06 0)
(1.55361e-06 -6.42867e-07 0)
(8.75055e-06 -6.97757e-06 0)
(1.08979e-05 -9.34586e-06 0)
(6.82598e-06 -6.44609e-06 0)
(-1.0426e-06 8.76838e-09 0)
(-8.16776e-06 6.3269e-06 0)
(-1.05519e-05 8.98132e-06 0)
(-6.99929e-06 6.5946e-06 0)
(3.07843e-07 6.41792e-07 0)
(7.17552e-06 -5.47838e-06 0)
(9.83377e-06 -8.40695e-06 0)
(7.01225e-06 -6.67652e-06 0)
(5.09566e-07 -1.42539e-06 0)
(-5.96543e-06 4.35497e-06 0)
(-8.92757e-06 7.53968e-06 0)
(-6.98457e-06 6.55835e-06 0)
(-1.4477e-06 2.1437e-06 0)
(4.54844e-06 -3.19595e-06 0)
(7.82705e-06 -6.60804e-06 0)
(6.83739e-06 -6.41226e-06 0)
(2.34672e-06 -2.90234e-06 0)
(-3.11858e-06 1.92819e-06 0)
(-6.6907e-06 5.51723e-06 0)
(-6.64481e-06 6.08091e-06 0)
(-3.19911e-06 3.47955e-06 0)
(1.71546e-06 -8.02819e-07 0)
(5.52558e-06 -4.49686e-06 0)
(6.34299e-06 -5.73833e-06 0)
(3.88001e-06 -3.99485e-06 0)
(-4.74906e-07 -2.80248e-07 0)
(-4.42331e-06 3.42303e-06 0)
(-5.9538e-06 5.21132e-06 0)
(-4.35957e-06 4.23356e-06 0)
(-5.65488e-07 1.095e-06 0)
(3.39057e-06 -2.50034e-06 0)
(5.44446e-06 -4.66908e-06 0)
(4.58639e-06 -4.33606e-06 0)
(1.36607e-06 -1.77278e-06 0)
(-2.44142e-06 1.592e-06 0)
(-4.81246e-06 3.96561e-06 0)
(-4.56023e-06 4.15504e-06 0)
(-1.92801e-06 2.16669e-06 0)
(1.58984e-06 -8.46201e-07 0)
(4.10016e-06 -3.25848e-06 0)
(4.30942e-06 -3.83305e-06 0)
(2.21937e-06 -2.35638e-06 0)
(-9.08753e-07 3.2577e-07 0)
(-3.21868e-06 2.72565e-06 0)
(-3.4836e-06 3.42226e-06 0)
(-2.04175e-06 2.01167e-06 0)
(-2.43907e-06 5.25173e-07 0)
(-9.74555e-07 3.78061e-06 0)
(-3.57471e-06 4.7854e-06 0)
(-3.59287e-06 1.12966e-06 0)
(-2.21083e-06 2.02284e-06 0)
(-2.42121e-06 2.34147e-06 0)
(-1.18653e-06 7.5189e-07 0)
(1.40097e-06 -2.0379e-06 0)
(4.01518e-06 -4.34128e-06 0)
(4.70994e-06 -4.45829e-06 0)
(2.45127e-06 -1.79285e-06 0)
(-1.88845e-06 2.52483e-06 0)
(-5.80387e-06 6.05322e-06 0)
(-6.64894e-06 6.43279e-06 0)
(-3.42754e-06 2.95608e-06 0)
(2.32266e-06 -2.73625e-06 0)
(7.25107e-06 -7.41089e-06 0)
(8.18862e-06 -8.11699e-06 0)
(4.20136e-06 -4.07014e-06 0)
(-2.63429e-06 2.66964e-06 0)
(-8.32812e-06 8.25183e-06 0)
(-9.35132e-06 9.27931e-06 0)
(-4.85041e-06 4.90429e-06 0)
(2.70645e-06 -2.53018e-06 0)
(8.91249e-06 -8.76811e-06 0)
(1.00409e-05 -1.01211e-05 0)
(5.31261e-06 -5.6819e-06 0)
(-2.58361e-06 2.07968e-06 0)
(-9.05731e-06 8.72077e-06 0)
(-1.03326e-05 1.04139e-05 0)
(-5.67676e-06 6.18036e-06 0)
(2.187e-06 -1.54657e-06 0)
(8.70995e-06 -8.35262e-06 0)
(1.01891e-05 -1.0402e-05 0)
(5.88906e-06 -6.62144e-06 0)
(-1.6145e-06 7.5003e-07 0)
(-8.00936e-06 7.51457e-06 0)
(-9.75868e-06 9.93845e-06 0)
(-6.06438e-06 6.82399e-06 0)
(8.07549e-07 7.80385e-08 0)
(6.93994e-06 -6.47469e-06 0)
(9.01855e-06 -9.2814e-06 0)
(6.12047e-06 -6.98999e-06 0)
(7.42311e-08 -1.06859e-06 0)
(-5.7036e-06 5.14041e-06 0)
(-8.1505e-06 8.31975e-06 0)
(-6.16705e-06 6.94215e-06 0)
(-1.0618e-06 1.97064e-06 0)
(4.30768e-06 -3.80106e-06 0)
(7.13426e-06 -7.32092e-06 0)
(6.10906e-06 -6.88011e-06 0)
(1.98676e-06 -2.91303e-06 0)
(-2.94203e-06 2.35433e-06 0)
(-6.11504e-06 6.14878e-06 0)
(-6.00826e-06 6.59461e-06 0)
(-2.84026e-06 3.61999e-06 0)
(1.63413e-06 -1.0986e-06 0)
(5.08131e-06 -5.06992e-06 0)
(5.78746e-06 -6.29017e-06 0)
(3.49712e-06 -4.24208e-06 0)
(-5.08513e-07 -1.03278e-07 0)
(-4.1113e-06 3.91733e-06 0)
(-5.46396e-06 5.74886e-06 0)
(-3.9364e-06 4.52402e-06 0)
(-4.14317e-07 9.90795e-07 0)
(3.19842e-06 -2.92681e-06 0)
(5.00554e-06 -5.17339e-06 0)
(4.1207e-06 -4.64482e-06 0)
(1.11103e-06 -1.73713e-06 0)
(-2.35121e-06 1.92237e-06 0)
(-4.4166e-06 4.38475e-06 0)
(-4.05734e-06 4.42994e-06 0)
(-1.57641e-06 2.16897e-06 0)
(1.59825e-06 -1.076e-06 0)
(3.7432e-06 -3.55176e-06 0)
(3.76864e-06 -4.0066e-06 0)
(1.82876e-06 -2.35694e-06 0)
(-8.6134e-07 3.21228e-07 0)
(-2.87612e-06 2.38133e-06 0)
(-3.5979e-06 2.73305e-06 0)
(-3.71234e-06 1.92853e-06 0)
(-3.16177e-06 3.57731e-06 0)
(-7.05579e-07 5.40194e-06 0)
(-2.47537e-06 9.45743e-07 0)
(-2.28023e-07 1.74248e-06 0)
(-2.54903e-06 3.55651e-06 0)
(-3.41686e-06 3.32868e-06 0)
(-1.80076e-06 8.66878e-07 0)
(1.67856e-06 -2.67798e-06 0)
(4.91243e-06 -5.29783e-06 0)
(5.59055e-06 -5.15063e-06 0)
(2.76346e-06 -1.81076e-06 0)
(-2.29384e-06 3.15763e-06 0)
(-6.63109e-06 6.89322e-06 0)
(-7.38e-06 6.91154e-06 0)
(-3.65506e-06 2.75825e-06 0)
(2.66462e-06 -3.46741e-06 0)
(7.88764e-06 -8.17778e-06 0)
(8.71196e-06 -8.4059e-06 0)
(4.33294e-06 -3.69504e-06 0)
(-2.89622e-06 3.4479e-06 0)
(-8.7537e-06 8.90584e-06 0)
(-9.66161e-06 9.37056e-06 0)
(-4.89999e-06 4.37361e-06 0)
(2.86622e-06 -3.32848e-06 0)
(9.11289e-06 -9.30678e-06 0)
(1.014e-05 -1.00502e-05 0)
(5.29173e-06 -5.05608e-06 0)
(-2.63561e-06 2.84396e-06 0)
(-9.04431e-06 9.12359e-06 0)
(-1.02471e-05 1.01983e-05 0)
(-5.61073e-06 5.49305e-06 0)
(2.12451e-06 -2.26016e-06 0)
(8.50042e-06 -8.64182e-06 0)
(9.9461e-06 -1.00979e-05 0)
(5.79221e-06 -5.93425e-06 0)
(-1.45239e-06 1.37796e-06 0)
(-7.64356e-06 7.69519e-06 0)
(-9.40109e-06 9.57705e-06 0)
(-5.95502e-06 6.16311e-06 0)
(5.64321e-07 -4.69822e-07 0)
(6.46145e-06 -6.58892e-06 0)
(8.58595e-06 -8.92175e-06 0)
(6.00698e-06 -6.40156e-06 0)
(3.68472e-07 -6.14486e-07 0)
(-5.16269e-06 5.20323e-06 0)
(-7.68124e-06 7.98214e-06 0)
(-6.05123e-06 6.42579e-06 0)
(-1.37148e-06 1.57878e-06 0)
(3.75403e-06 -3.86394e-06 0)
(6.66034e-06 -7.05303e-06 0)
(5.98567e-06 -6.46062e-06 0)
(2.27422e-06 -2.58354e-06 0)
(-2.42061e-06 2.42614e-06 0)
(-5.66041e-06 5.94756e-06 0)
(-5.86696e-06 6.24597e-06 0)
(-3.07035e-06 3.31032e-06 0)
(1.18034e-06 -1.22014e-06 0)
(4.65896e-06 -4.95819e-06 0)
(5.61265e-06 -6.01498e-06 0)
(3.63814e-06 -3.94722e-06 0)
(-1.49216e-07 6.31398e-08 0)
(-3.72858e-06 3.87133e-06 0)
(-5.24354e-06 5.5102e-06 0)
(-3.96892e-06 4.20981e-06 0)
(-6.65912e-07 7.6169e-07 0)
(2.85671e-06 -2.94691e-06 0)
(4.73271e-06 -4.96674e-06 0)
(4.03599e-06 -4.31826e-06 0)
(1.2475e-06 -1.47291e-06 0)
(-2.05585e-06 1.96498e-06 0)
(-4.08903e-06 4.1632e-06 0)
(-3.83715e-06 4.0553e-06 0)
(-1.56223e-06 1.85521e-06 0)
(1.38245e-06 -1.12543e-06 0)
(3.36664e-06 -3.27588e-06 0)
(3.37624e-06 -3.57006e-06 0)
(1.54917e-06 -2.11792e-06 0)
(-1.07837e-06 4.29944e-08 0)
(-3.26613e-06 1.68469e-06 0)
(-2.97289e-06 1.75496e-06 0)
(-3.62285e-06 1.35914e-06 0)
(3.5974e-06 2.15441e-06 0)
(9.52817e-07 -2.18207e-07 0)
(2.64483e-06 1.20401e-07 0)
(-1.06863e-06 2.77673e-06 0)
(-4.12385e-06 4.46643e-06 0)
(-4.6628e-06 3.93525e-06 0)
(-2.14024e-06 9.68968e-07 0)
(2.25716e-06 -3.16381e-06 0)
(5.96151e-06 -6.11884e-06 0)
(6.44423e-06 -5.83668e-06 0)
(2.9181e-06 -1.99095e-06 0)
(-2.89255e-06 3.52023e-06 0)
(-7.57967e-06 7.50537e-06 0)
(-8.08784e-06 7.36602e-06 0)
(-3.71656e-06 2.80041e-06 0)
(3.23516e-06 -3.79856e-06 0)
(8.6954e-06 -8.6137e-06 0)
(9.2528e-06 -8.65366e-06 0)
(4.31036e-06 -3.63392e-06 0)
(-3.40911e-06 3.70984e-06 0)
(-9.39552e-06 9.13871e-06 0)
(-1.00349e-05 9.40316e-06 0)
(-4.81959e-06 4.21262e-06 0)
(3.28506e-06 -3.52143e-06 0)
(9.56511e-06 -9.35387e-06 0)
(1.03471e-05 -9.90183e-06 0)
(5.1726e-06 -4.83196e-06 0)
(-2.94422e-06 2.94751e-06 0)
(-9.31125e-06 8.98883e-06 0)
(-1.03139e-05 9.88735e-06 0)
(-5.48433e-06 5.21625e-06 0)
(2.3066e-06 -2.29017e-06 0)
(8.5907e-06 -8.3686e-06 0)
(9.89697e-06 -9.67674e-06 0)
(5.67689e-06 -5.63993e-06 0)
(-1.51368e-06 1.33306e-06 0)
(-7.58718e-06 7.30998e-06 0)
(-9.27169e-06 9.0746e-06 0)
(-5.86778e-06 5.85449e-06 0)
(5.18682e-07 -3.84099e-07 0)
(6.294e-06 -6.15059e-06 0)
(8.40895e-06 -8.39334e-06 0)
(5.95439e-06 -6.10479e-06 0)
(4.95837e-07 -7.31684e-07 0)
(-4.92486e-06 4.73958e-06 0)
(-7.48527e-06 7.44494e-06 0)
(-6.02993e-06 6.12569e-06 0)
(-1.54695e-06 1.67964e-06 0)
(3.48741e-06 -3.43496e-06 0)
(6.46753e-06 -6.5524e-06 0)
(5.98431e-06 -6.17234e-06 0)
(2.46129e-06 -2.65767e-06 0)
(-2.16232e-06 2.04741e-06 0)
(-5.48434e-06 5.48255e-06 0)
(-5.86794e-06 5.94294e-06 0)
(-3.23363e-06 3.31402e-06 0)
(9.58936e-07 -9.33802e-07 0)
(4.50263e-06 -4.55372e-06 0)
(5.5927e-06 -5.70251e-06 0)
(3.74454e-06 -3.8766e-06 0)
(1.36049e-08 -1.32268e-07 0)
(-3.59083e-06 3.51269e-06 0)
(-5.1831e-06 5.16308e-06 0)
(-3.99573e-06 4.03888e-06 0)
(-7.58768e-07 8.47641e-07 0)
(2.73224e-06 -2.64404e-06 0)
(4.61398e-06 -4.59244e-06 0)
(3.96106e-06 -4.06001e-06 0)
(1.25301e-06 -1.47341e-06 0)
(-1.94673e-06 1.68189e-06 0)
(-3.88654e-06 3.7154e-06 0)
(-3.60542e-06 3.65959e-06 0)
(-1.41812e-06 1.7259e-06 0)
(1.30534e-06 -8.96428e-07 0)
(2.98779e-06 -2.80246e-06 0)
(2.72297e-06 -3.12738e-06 0)
(8.11205e-07 -1.91887e-06 0)
(-1.50827e-06 1.16734e-08 0)
(-8.12197e-07 6.8631e-07 0)
(-2.14119e-06 -1.40184e-06 0)
(6.47826e-06 -3.38825e-06 0)
(4.80117e-06 -1.63722e-06 0)
(4.73817e-06 -2.02907e-06 0)
(1.49397e-06 -3.07223e-08 0)
(-2.48443e-06 2.94884e-06 0)
(-5.3436e-06 5.06564e-06 0)
(-5.41783e-06 4.56677e-06 0)
(-2.16361e-06 1.13093e-06 0)
(2.93651e-06 -3.62023e-06 0)
(6.91153e-06 -6.90845e-06 0)
(7.0743e-06 -6.47846e-06 0)
(2.85875e-06 -2.13253e-06 0)
(-3.55887e-06 3.89907e-06 0)
(-8.39275e-06 8.11427e-06 0)
(-8.52441e-06 7.81391e-06 0)
(-3.52893e-06 2.84374e-06 0)
(3.87869e-06 -4.12635e-06 0)
(9.34698e-06 -9.06044e-06 0)
(9.49358e-06 -8.93567e-06 0)
(4.01971e-06 -3.61794e-06 0)
(-3.99711e-06 3.94705e-06 0)
(-9.87172e-06 9.39589e-06 0)
(-1.00976e-05 9.50991e-06 0)
(-4.46587e-06 4.13934e-06 0)
(3.78025e-06 -3.6689e-06 0)
(9.8544e-06 -9.43706e-06 0)
(1.025e-05 -9.863e-06 0)
(4.78563e-06 -4.7322e-06 0)
(-3.33271e-06 2.98913e-06 0)
(-9.43127e-06 8.90186e-06 0)
(-1.00984e-05 9.71652e-06 0)
(-5.1033e-06 5.09427e-06 0)
(2.57647e-06 -2.24471e-06 0)
(8.56317e-06 -8.15128e-06 0)
(9.60084e-06 -9.41717e-06 0)
(5.32666e-06 -5.52076e-06 0)
(-1.67327e-06 1.20433e-06 0)
(-7.4501e-06 6.98592e-06 0)
(-8.93762e-06 8.74611e-06 0)
(-5.56669e-06 5.7318e-06 0)
(5.86161e-07 -2.10194e-07 0)
(6.08925e-06 -5.77451e-06 0)
(8.07377e-06 -8.0414e-06 0)
(5.70948e-06 -5.99534e-06 0)
(4.93504e-07 -9.38288e-07 0)
(-4.69434e-06 4.33443e-06 0)
(-7.17683e-06 7.07731e-06 0)
(-5.83608e-06 6.00638e-06 0)
(-1.57574e-06 1.86964e-06 0)
(3.27048e-06 -3.05496e-06 0)
(6.20428e-06 -6.20486e-06 0)
(5.8281e-06 -6.05034e-06 0)
(2.48686e-06 -2.81813e-06 0)
(-1.98996e-06 1.70516e-06 0)
(-5.27345e-06 5.14902e-06 0)
(-5.72969e-06 5.78868e-06 0)
(-3.225e-06 3.4028e-06 0)
(8.51105e-07 -6.65974e-07 0)
(4.33975e-06 -4.25259e-06 0)
(5.44813e-06 -5.51654e-06 0)
(3.67497e-06 -3.88798e-06 0)
(4.50514e-08 -3.2749e-07 0)
(-3.46746e-06 3.22809e-06 0)
(-5.01182e-06 4.91904e-06 0)
(-3.84773e-06 3.9459e-06 0)
(-7.10262e-07 9.51239e-07 0)
(2.63553e-06 -2.38455e-06 0)
(4.39135e-06 -4.29292e-06 0)
(3.70692e-06 -3.86739e-06 0)
(1.10715e-06 -1.50177e-06 0)
(-1.86742e-06 1.41184e-06 0)
(-3.56734e-06 3.30135e-06 0)
(-3.18395e-06 3.28702e-06 0)
(-1.15879e-06 1.58137e-06 0)
(1.13565e-06 -7.25258e-07 0)
(2.30888e-06 -2.35082e-06 0)
(1.8745e-06 -2.4685e-06 0)
(5.76281e-07 -1.21416e-06 0)
(1.39648e-06 -4.11718e-07 0)
(2.63158e-07 -3.04968e-06 0)
(5.56964e-06 -7.61708e-06 0)
(6.35774e-06 -2.17304e-06 0)
(4.44567e-06 -3.29058e-06 0)
(3.71287e-06 -3.39e-06 0)
(9.28746e-07 -7.41966e-07 0)
(-3.04199e-06 3.18207e-06 0)
(-6.08249e-06 5.81479e-06 0)
(-5.93604e-06 5.19319e-06 0)
(-2.07779e-06 1.22336e-06 0)
(3.58939e-06 -4.0659e-06 0)
(7.69429e-06 -7.56159e-06 0)
(7.47759e-06 -6.91925e-06 0)
(2.65163e-06 -2.12055e-06 0)
(-4.19171e-06 4.29469e-06 0)
(-9.00097e-06 8.59129e-06 0)
(-8.70757e-06 8.05549e-06 0)
(-3.19899e-06 2.72475e-06 0)
(4.45924e-06 -4.47856e-06 0)
(9.76402e-06 -9.37922e-06 0)
(9.47119e-06 -9.01068e-06 0)
(3.60051e-06 -3.43405e-06 0)
(-4.49824e-06 4.21899e-06 0)
(-1.00984e-05 9.53824e-06 0)
(-9.90138e-06 9.42072e-06 0)
(-4.00147e-06 3.90053e-06 0)
(4.1732e-06 -3.86156e-06 0)
(9.89478e-06 -9.42581e-06 0)
(9.91047e-06 -9.64829e-06 0)
(4.30698e-06 -4.47394e-06 0)
(-3.61388e-06 3.0889e-06 0)
(-9.31719e-06 8.74891e-06 0)
(-9.66517e-06 9.39877e-06 0)
(-4.64595e-06 4.82603e-06 0)
(2.74699e-06 -2.27045e-06 0)
(8.33039e-06 -7.89998e-06 0)
(9.11833e-06 -9.04324e-06 0)
(4.91195e-06 -5.26893e-06 0)
(-1.75095e-06 1.16087e-06 0)
(-7.14441e-06 6.66186e-06 0)
(-8.44903e-06 8.33728e-06 0)
(-5.20627e-06 5.49055e-06 0)
(5.98118e-07 -1.35444e-07 0)
(5.75763e-06 -5.43165e-06 0)
(7.61442e-06 -7.6419e-06 0)
(5.4045e-06 -5.78081e-06 0)
(5.1532e-07 -1.03313e-06 0)
(-4.37879e-06 3.99269e-06 0)
(-6.76995e-06 6.69205e-06 0)
(-5.576e-06 5.79538e-06 0)
(-1.59543e-06 1.93917e-06 0)
(3.00725e-06 -2.76192e-06 0)
(5.86285e-06 -5.86343e-06 0)
(5.59633e-06 -5.84756e-06 0)
(2.47231e-06 -2.85176e-06 0)
(-1.8035e-06 1.46827e-06 0)
(-4.99841e-06 4.84162e-06 0)
(-5.50541e-06 5.56595e-06 0)
(-3.15027e-06 3.36543e-06 0)
(7.53658e-07 -5.1239e-07 0)
(4.12194e-06 -3.99033e-06 0)
(5.20863e-06 -5.27271e-06 0)
(3.52019e-06 -3.77782e-06 0)
(4.9102e-08 -4.06081e-07 0)
(-3.29497e-06 2.99013e-06 0)
(-4.73851e-06 4.62688e-06 0)
(-3.60011e-06 3.73908e-06 0)
(-6.22208e-07 9.41133e-07 0)
(2.49106e-06 -2.17348e-06 0)
(4.05536e-06 -3.94886e-06 0)
(3.33731e-06 -3.56261e-06 0)
(9.15133e-07 -1.41454e-06 0)
(-1.73291e-06 1.19306e-06 0)
(-3.13452e-06 2.84037e-06 0)
(-2.69597e-06 2.7898e-06 0)
(-9.65159e-07 1.31455e-06 0)
(8.38109e-07 -5.39174e-07 0)
(1.79472e-06 -1.62804e-06 0)
(1.90519e-06 -1.47067e-06 0)
(2.44742e-06 -9.31294e-07 0)
(2.11709e-06 -2.79852e-06 0)
(8.86644e-07 -7.35503e-06 0)
(4.04102e-06 -1.15938e-06 0)
(1.43334e-06 -2.61576e-06 0)
(4.10501e-06 -5.15885e-06 0)
(4.2897e-06 -4.5093e-06 0)
(1.26147e-06 -8.71534e-07 0)
(-3.42759e-06 3.70315e-06 0)
(-6.77947e-06 6.51371e-06 0)
(-6.33762e-06 5.64527e-06 0)
(-1.88299e-06 1.21239e-06 0)
(4.21377e-06 -4.4545e-06 0)
(8.29208e-06 -8.023e-06 0)
(7.64575e-06 -7.14381e-06 0)
(2.30888e-06 -1.99656e-06 0)
(-4.77231e-06 4.6279e-06 0)
(-9.40006e-06 8.86492e-06 0)
(-8.65494e-06 8.07301e-06 0)
(-2.75337e-06 2.49706e-06 0)
(4.96426e-06 -4.75546e-06 0)
(9.9627e-06 -9.48075e-06 0)
(9.22367e-06 -8.85501e-06 0)
(3.0871e-06 -3.14329e-06 0)
(-4.90886e-06 4.41117e-06 0)
(-1.01108e-05 9.46315e-06 0)
(-9.50113e-06 9.1062e-06 0)
(-3.46514e-06 3.56012e-06 0)
(4.4703e-06 -3.97659e-06 0)
(9.73883e-06 -9.20844e-06 0)
(9.39726e-06 -9.22184e-06 0)
(3.77797e-06 -4.11862e-06 0)
(-3.80248e-06 3.12261e-06 0)
(-9.03397e-06 8.41359e-06 0)
(-9.09111e-06 8.89121e-06 0)
(-4.15349e-06 4.46553e-06 0)
(2.83937e-06 -2.2481e-06 0)
(7.96446e-06 -7.49771e-06 0)
(8.52934e-06 -8.50501e-06 0)
(4.47211e-06 -4.9274e-06 0)
(-1.77162e-06 1.09293e-06 0)
(-6.74399e-06 6.22306e-06 0)
(-7.88442e-06 7.79081e-06 0)
(-4.82337e-06 5.15977e-06 0)
(5.79694e-07 -6.31095e-08 0)
(5.3696e-06 -5.01168e-06 0)
(7.10438e-06 -7.13002e-06 0)
(5.07393e-06 -5.47431e-06 0)
(5.39418e-07 -1.09725e-06 0)
(-4.04077e-06 3.6106e-06 0)
(-6.33045e-06 6.21786e-06 0)
(-5.28238e-06 5.48985e-06 0)
(-1.59039e-06 1.95293e-06 0)
(2.7493e-06 -2.45949e-06 0)
(5.50028e-06 -5.45114e-06 0)
(5.3212e-06 -5.54576e-06 0)
(2.41071e-06 -2.80683e-06 0)
(-1.64174e-06 1.24886e-06 0)
(-4.70742e-06 4.4795e-06 0)
(-5.22802e-06 5.24274e-06 0)
(-3.01249e-06 3.23419e-06 0)
(6.92311e-07 -3.94934e-07 0)
(3.88916e-06 -3.68499e-06 0)
(4.90838e-06 -4.92829e-06 0)
(3.29279e-06 -3.56404e-06 0)
(1.20399e-08 -4.35684e-07 0)
(-3.10551e-06 2.71822e-06 0)
(-4.39776e-06 4.23565e-06 0)
(-3.27373e-06 3.42296e-06 0)
(-4.92442e-07 8.73243e-07 0)
(2.32375e-06 -1.93469e-06 0)
(3.64514e-06 -3.5049e-06 0)
(2.88993e-06 -3.13981e-06 0)
(6.90066e-07 -1.25561e-06 0)
(-1.57951e-06 9.62997e-07 0)
(-2.67459e-06 2.30526e-06 0)
(-2.20727e-06 2.23563e-06 0)
(-7.15649e-07 1.10652e-06 0)
(8.91041e-07 -1.85883e-07 0)
(2.02488e-06 -9.06438e-07 0)
(2.02202e-06 -7.66446e-07 0)
(2.49678e-06 -1.11946e-06 0)
(-4.86688e-06 -2.30604e-06 0)
(-1.20762e-06 9.53342e-07 0)
(-2.89015e-06 -1.86006e-07 0)
(2.1578e-06 -4.00363e-06 0)
(5.56905e-06 -5.96522e-06 0)
(5.23198e-06 -4.73679e-06 0)
(1.26901e-06 -6.81148e-07 0)
(-4.02821e-06 4.17372e-06 0)
(-7.40432e-06 7.00953e-06 0)
(-6.5275e-06 5.88535e-06 0)
(-1.55243e-06 1.0893e-06 0)
(4.78175e-06 -4.79874e-06 0)
(8.67363e-06 -8.31104e-06 0)
(7.57519e-06 -7.16909e-06 0)
(1.85386e-06 -1.76709e-06 0)
(-5.27046e-06 4.90955e-06 0)
(-9.57427e-06 8.96302e-06 0)
(-8.37418e-06 7.90003e-06 0)
(-2.21574e-06 2.18078e-06 0)
(5.37126e-06 -4.96659e-06 0)
(9.93664e-06 -9.40531e-06 0)
(8.76365e-06 -8.52094e-06 0)
(2.50073e-06 -2.77969e-06 0)
(-5.21468e-06 4.53169e-06 0)
(-9.91094e-06 9.22175e-06 0)
(-8.91226e-06 8.6346e-06 0)
(-2.87296e-06 3.16398e-06 0)
(4.66724e-06 -4.02016e-06 0)
(9.39706e-06 -8.84342e-06 0)
(8.72726e-06 -8.66307e-06 0)
(3.20863e-06 -3.72069e-06 0)
(-3.90346e-06 3.09392e-06 0)
(-8.59835e-06 7.95745e-06 0)
(-8.39241e-06 8.27886e-06 0)
(-3.6292e-06 4.07226e-06 0)
(2.86647e-06 -2.17842e-06 0)
(7.48593e-06 -7.00529e-06 0)
(7.8476e-06 -7.88844e-06 0)
(4.00395e-06 -4.55809e-06 0)
(-1.75398e-06 9.97311e-07 0)
(-6.27074e-06 5.72569e-06 0)
(-7.25398e-06 7.18931e-06 0)
(-4.40932e-06 4.80187e-06 0)
(5.52989e-07 1.53804e-08 0)
(4.94625e-06 -4.56226e-06 0)
(6.54997e-06 -6.58108e-06 0)
(4.70544e-06 -5.13675e-06 0)
(5.43049e-07 -1.1453e-06 0)
(-3.69864e-06 3.22488e-06 0)
(-5.86086e-06 5.7204e-06 0)
(-4.94102e-06 5.14843e-06 0)
(-1.53942e-06 1.93275e-06 0)
(2.51129e-06 -2.17136e-06 0)
(5.11617e-06 -5.02222e-06 0)
(4.98867e-06 -5.20057e-06 0)
(2.28406e-06 -2.71266e-06 0)
(-1.51557e-06 1.05669e-06 0)
(-4.39866e-06 4.10442e-06 0)
(-4.88562e-06 4.8707e-06 0)
(-2.79783e-06 3.04491e-06 0)
(6.7464e-07 -3.10396e-07 0)
(3.6394e-06 -3.36639e-06 0)
(4.53851e-06 -4.53055e-06 0)
(2.98321e-06 -3.28769e-06 0)
(-7.08269e-08 -4.30948e-07 0)
(-2.89733e-06 2.43113e-06 0)
(-3.98425e-06 3.78807e-06 0)
(-2.86434e-06 3.04283e-06 0)
(-3.19709e-07 7.72315e-07 0)
(2.13514e-06 -1.67812e-06 0)
(3.16703e-06 -3.00362e-06 0)
(2.3733e-06 -2.65463e-06 0)
(4.31444e-07 -1.0601e-06 0)
(-1.41752e-06 7.46222e-07 0)
(-2.16391e-06 1.80351e-06 0)
(-1.57556e-06 1.76399e-06 0)
(-1.73325e-07 9.32652e-07 0)
(1.20976e-06 -7.03137e-08 0)
(7.27553e-07 -2.48718e-07 0)
(1.51614e-06 7.46103e-07 0)
(-7.99659e-06 4.45975e-06 0)
(-6.28307e-06 2.76492e-06 0)
(-6.08133e-06 2.57664e-06 0)
(-1.2214e-06 -4.3418e-07 0)
(3.86026e-06 -4.06997e-06 0)
(6.57366e-06 -6.06961e-06 0)
(5.44842e-06 -4.7848e-06 0)
(8.75067e-07 -4.92323e-07 0)
(-4.65506e-06 4.53858e-06 0)
(-7.82514e-06 7.29431e-06 0)
(-6.48113e-06 5.88462e-06 0)
(-1.10963e-06 8.21617e-07 0)
(5.27886e-06 -5.10829e-06 0)
(8.85383e-06 -8.40666e-06 0)
(7.29974e-06 -6.96023e-06 0)
(1.31552e-06 -1.40107e-06 0)
(-5.68215e-06 5.15217e-06 0)
(-9.54925e-06 8.87522e-06 0)
(-7.90685e-06 7.50903e-06 0)
(-1.61872e-06 1.74338e-06 0)
(5.67798e-06 -5.13612e-06 0)
(9.71798e-06 -9.15846e-06 0)
(8.14032e-06 -7.99201e-06 0)
(1.87839e-06 -2.31027e-06 0)
(-5.41421e-06 4.6164e-06 0)
(-9.53529e-06 8.83556e-06 0)
(-8.18801e-06 8.00038e-06 0)
(-2.26308e-06 2.67909e-06 0)
(4.76424e-06 -4.03834e-06 0)
(8.90818e-06 -8.36626e-06 0)
(7.95446e-06 -7.97622e-06 0)
(2.636e-06 -3.24798e-06 0)
(-3.91832e-06 3.05625e-06 0)
(-8.0485e-06 7.42641e-06 0)
(-7.62051e-06 7.57348e-06 0)
(-3.1075e-06 3.61522e-06 0)
(2.82993e-06 -2.11943e-06 0)
(6.92957e-06 -6.47572e-06 0)
(7.11929e-06 -7.21105e-06 0)
(3.53824e-06 -4.13227e-06 0)
(-1.69862e-06 9.33368e-07 0)
(-5.75359e-06 5.2263e-06 0)
(-6.59658e-06 6.55457e-06 0)
(-3.99092e-06 4.39193e-06 0)
(5.16272e-07 4.31502e-08 0)
(4.509e-06 -4.13968e-06 0)
(5.98194e-06 -6.01941e-06 0)
(4.3223e-06 -4.74814e-06 0)
(5.31545e-07 -1.12578e-06 0)
(-3.36508e-06 2.88889e-06 0)
(-5.38332e-06 5.22589e-06 0)