/*--------------------------------*- C++ -*----------------------------------*\
| =========                 |                                                 |
| \\      /  F ield         | OpenFOAM: The Open Source CFD Toolbox           |
|  \\    /   O peration     | Version:  2412                                  |
|   \\  /    A nd           | Website:  www.openfoam.com                      |
|    \\/     M anipulation  |                                                 |
\*---------------------------------------------------------------------------*/
FoamFile
{
    version     2.0;
    format      ascii;
    arch        "LSB;label=32;scalar=64";
    class       volScalarField;
    location    "7.05";
    object      p;
}
// * * * * * * * * * * * * * * * * * * * * * * * * * * * * * * * * * * * * * //

dimensions      [1 -1 -2 0 0 0 0];

internalField   nonuniform List<scalar> 
6400
(
15557.3
15554.7
15550.3
15545.3
15540.7
15537
15534.5
15533.3
15533.3
15534.6
15537
15540.5
15545
15550.6
15557.1
15564.5
15572.9
15582.2
15592.6
15604.1
15616.8
15630.7
15645.9
15662.5
15680.5
15700
15720.9
15743.2
15766.6
15790.9
15815.6
15840.3
15864.5
15887.5
15908.7
15927.4
15943.1
15955.3
15963.7
15968
15968.1
15964
15955.9
15943.9
15928.5
15910.1
15889.3
15866.7
15843
15818.6
15794.1
15770.1
15746.9
15724.8
15704
15684.6
15666.7
15650.2
15635.2
15621.4
15608.8
15597.4
15587
15577.7
15569.3
15561.9
15555.4
15549.9
15545.4
15542
15539.6
15538.4
15538.3
15539.6
15542.1
15545.8
15550.4
15555.3
15559.6
15562.2
14774.9
14772.2
14768.5
14764.4
14760.8
14757.9
14756
14755.3
14755.8
14757.4
14760.1
14763.9
14768.7
14774.5
14781.2
14788.8
14797.3
14806.7
14817.1
14828.5
14840.8
14854.3
14868.8
14884.5
14901.3
14919.3
14938.4
14958.5
14979.4
15000.9
15022.6
15044.1
15065.1
15084.9
15103.1
15119.1
15132.5
15142.9
15150.1
15153.7
15153.8
15150.3
15143.3
15133
15119.9
15104.1
15086.3
15066.8
15046.3
15025.1
15003.7
14982.5
14961.9
14942
14923
14905.2
14888.5
14873
14858.6
14845.3
14833
14821.8
14811.4
14802
14793.5
14785.9
14779.3
14773.5
14768.8
14765.1
14762.4
14760.8
14760.3
14761
14762.9
14765.8
14769.4
14773.4
14777.2
14779.8
13993.9
13990.7
13986.9
13983.4
13980.4
13978.2
13977
13976.8
13977.7
13979.7
13982.7
13986.8
13991.9
13997.9
14004.8
14012.5
14021.1
14030.6
14040.9
14052
14064
14076.8
14090.5
14105.2
14120.7
14137
14154.2
14172
14190.3
14209
14227.7
14246.1
14263.8
14280.5
14295.8
14309.1
14320.3
14329
14334.9
14337.8
14337.8
14334.8
14329
14320.4
14309.3
14296.1
14281.1
14264.7
14247.4
14229.4
14211.1
14192.8
14174.9
14157.3
14140.5
14124.3
14109
14094.5
14080.9
14068.2
14056.3
14045.3
14035.1
14025.7
14017.1
14009.4
14002.5
13996.6
13991.6
13987.5
13984.5
13982.6
13981.7
13981.9
13983.2
13985.4
13988.3
13991.8
13995.5
13998.7
13212.9
13208.8
13204.6
13201.2
13198.4
13196.6
13195.7
13195.9
13197.1
13199.4
13202.8
13207.1
13212.4
13218.6
13225.6
13233.5
13242.1
13251.6
13261.7
13272.5
13284.1
13296.4
13309.3
13323
13337.2
13352.1
13367.6
13383.4
13399.6
13416
13432.2
13448.1
13463.4
13477.6
13490.6
13502
13511.4
13518.7
13523.7
13526.2
13526.1
13523.5
13518.4
13511.1
13501.6
13490.2
13477.4
13463.4
13448.5
13433
13417.2
13401.4
13385.7
13370.2
13355.1
13340.5
13326.4
13313
13300.2
13288.1
13276.6
13265.9
13255.9
13246.5
13237.9
13230.1
13223.1
13217
13211.7
13207.4
13204.2
13201.9
13200.7
13200.5
13201.4
13203.2
13205.9
13209.3
13213.5
13217.6
12430.9
12425.9
12421.1
12417.5
12414.9
12413.2
12412.6
12413.1
12414.6
12417.2
12420.7
12425.3
12430.8
12437.2
12444.3
12452.3
12461
12470.3
12480.3
12490.8
12502
12513.7
12525.9
12538.5
12551.7
12565.2
12579.1
12593.3
12607.6
12622
12636.2
12650.1
12663.3
12675.7
12686.9
12696.7
12704.8
12711.1
12715.4
12717.5
12717.4
12715.2
12710.8
12704.4
12696.1
12686.2
12674.9
12662.7
12649.7
12636.3
12622.5
12608.7
12594.9
12581.2
12567.8
12554.5
12541.6
12529.2
12517.1
12505.6
12494.6
12484.2
12474.4
12465.1
12456.5
12448.6
12441.5
12435.2
12429.7
12425.2
12421.7
12419.2
12417.7
12417.2
12417.9
12419.5
12422.1
12425.6
12430.4
12435.3
11647.1
11641.5
11636.2
11632.4
11629.8
11628.2
11627.8
11628.5
11630.2
11633
11636.8
11641.6
11647.3
11653.9
11661.2
11669.2
11677.9
11687.2
11697
11707.3
11718
11729.2
11740.6
11752.4
11764.5
11776.8
11789.3
11802
11814.7
11827.4
11839.9
11852.1
11863.8
11874.6
11884.5
11893.1
11900.3
11905.8
11909.6
11911.6
11911.7
11909.8
11906
11900.3
11893
11884.1
11874
11863
11851.4
11839.5
11827.4
11815.2
11803.1
11791
11778.9
11767
11755.2
11743.6
11732.3
11721.4
11710.8
11700.7
11691
11681.8
11673.2
11665.2
11657.9
11651.5
11645.8
11641.1
11637.3
11634.5
11632.8
11632.2
11632.6
11634.2
11636.7
11640.5
11645.8
11651.4
10861.4
10855.3
10849.6
10845.6
10843
10841.5
10841.2
10842
10844
10847
10851.1
10856.1
10862
10868.8
10876.2
10884.4
10893.1
10902.4
10912.1
10922.2
10932.5
10943.2
10954
10965
10976.1
10987.3
10998.6
11009.9
11021.3
11032.6
11043.7
11054.6
11065.1
11074.9
11083.8
11091.6
11098.1
11103.2
11106.8
11108.7
11109
11107.5
11104.3
11099.3
11092.6
11084.4
11075
11064.8
11054.1
11043.2
11032.3
11021.4
11010.6
10999.8
10989
10978.3
10967.5
10956.7
10946.1
10935.6
10925.4
10915.5
10905.9
10896.8
10888.1
10880
10872.6
10865.9
10860.1
10855.1
10851.1
10848.1
10846.2
10845.3
10845.6
10847.1
10849.7
10853.6
10859.3
10865.4
10073.5
10067
10061.1
10057.1
10054.4
10053
10052.8
10053.9
10056
10059.3
10063.6
10068.9
10075
10082
10089.7
10098
10106.8
10116.1
10125.8
10135.7
10145.8
10156
10166.3
10176.5
10186.8
10197
10207.2
10217.4
10227.6
10237.8
10248
10257.9
10267.6
10276.7
10285
10292.4
10298.6
10303.4
10306.8
10308.8
10309.3
10308.3
10305.6
10301.2
10295.2
10287.5
10278.4
10268.5
10258.1
10247.7
10237.4
10227.4
10217.6
10208
10198.4
10188.6
10178.7
10168.7
10158.7
10148.6
10138.7
10128.9
10119.4
10110.2
10101.5
10093.2
10085.6
10078.7
10072.6
10067.3
10063.1
10059.8
10057.7
10056.7
10056.9
10058.3
10060.9
10064.9
10070.8
10077.2
9283.3
9276.76
9270.76
9266.64
9264.01
9262.69
9262.66
9263.87
9266.27
9269.78
9274.36
9279.91
9286.36
9293.62
9301.57
9310.13
9319.17
9328.6
9338.3
9348.16
9358.08
9367.98
9377.79
9387.46
9396.99
9406.38
9415.67
9424.93
9434.2
9443.53
9452.93
9462.33
9471.57
9480.44
9488.6
9495.8
9501.77
9506.41
9509.69
9511.65
9512.31
9511.6
9509.48
9505.74
9500.29
9493.03
9484.22
9474.25
9463.82
9453.42
9443.38
9433.79
9424.67
9415.88
9407.18
9398.35
9389.27
9379.93
9370.37
9360.67
9350.92
9341.22
9331.68
9322.38
9313.43
9304.95
9297.05
9289.84
9283.42
9277.89
9273.34
9269.84
9267.46
9266.26
9266.3
9267.61
9270.22
9274.31
9280.3
9286.84
8490.93
8484.41
8478.42
8474.31
8471.74
8470.53
8470.65
8472.08
8474.74
8478.55
8483.44
8489.34
8496.15
8503.76
8512.07
8520.96
8530.31
8539.98
8549.85
8559.78
8569.67
8579.4
8588.9
8598.11
8607.04
8615.72
8624.24
8632.69
8641.22
8649.94
8658.93
8668.13
8677.42
8686.43
8694.79
8702.02
8707.87
8712.19
8715.12
8716.84
8717.44
8716.98
8715.26
8712.18
8707.33
8700.64
8692.04
8682.06
8671.35
8660.73
8650.56
8641.06
8632.23
8623.96
8615.94
8607.83
8599.42
8590.61
8581.42
8571.94
8562.26
8552.51
8542.81
8533.29
8524.06
8515.25
8507
8499.43
8492.64
8486.76
8481.87
8478.07
8475.43
8474.02
8473.9
8475.1
8477.66
8481.74
8487.73
8494.25
7696.45
7690.03
7684.11
7680.05
7677.55
7676.47
7676.78
7678.45
7681.41
7685.56
7690.83
7697.14
7704.38
7712.45
7721.21
7730.55
7740.33
7750.39
7760.58
7770.76
7780.78
7790.51
7799.86
7808.78
7817.25
7825.35
7833.2
7841
7848.95
7857.31
7866.19
7875.64
7885.4
7895.1
7904
7911.49
7917.09
7920.84
7923.01
7924.08
7924.41
7923.96
7922.68
7920.07
7915.88
7909.59
7901.32
7891.24
7880.33
7869.38
7859.07
7849.53
7840.83
7832.81
7825.2
7817.57
7809.6
7801.13
7792.13
7782.68
7772.9
7762.93
7752.93
7743.03
7733.39
7724.15
7715.45
7707.43
7700.22
7693.92
7688.65
7684.5
7681.56
7679.9
7679.59
7680.67
7683.15
7687.18
7693.09
7699.51
6899.98
6893.69
6887.85
6883.84
6881.41
6880.45
6880.97
6882.92
6886.23
6890.79
6896.51
6903.31
6911.07
6919.69
6929.03
6938.95
6949.31
6959.93
6970.64
6981.27
6991.63
7001.58
7010.98
7019.76
7027.93
7035.57
7042.87
7050.1
7057.63
7065.8
7074.93
7085.02
7095.92
7106.84
7116.87
7124.75
7129.98
7132.63
7133.51
7133.55
7133.36
7133.13
7132.29
7130.36
7126.43
7120.33
7111.8
7101.5
7090.12
7078.94
7068.52
7059.12
7050.61
7042.86
7035.52
7028.16
7020.4
7012.02
7002.95
6993.28
6983.15
6972.73
6962.2
6951.74
6941.52
6931.7
6922.43
6913.86
6906.12
6899.33
6893.61
6889.06
6885.77
6883.83
6883.31
6884.25
6886.66
6890.63
6896.45
6902.71
6101.7
6095.5
6089.69
6085.65
6083.27
6082.45
6083.2
6085.47
6089.18
6094.21
6100.47
6107.85
6116.24
6125.52
6135.58
6146.24
6157.37
6168.76
6180.22
6191.54
6202.51
6212.92
6222.61
6231.47
6239.48
6246.75
6253.52
6260.21
6267.31
6275.44
6285
6296.31
6308.94
6322.1
6333.89
6342.6
6347.07
6347.97
6346.79
6345.37
6344.97
6345.48
6346.17
6345.28
6341.83
6334.89
6325.26
6313.53
6301.21
6289.33
6278.84
6269.64
6261.58
6254.24
6247.24
6240.06
6232.32
6223.76
6214.35
6204.15
6193.37
6182.2
6170.87
6159.6
6148.58
6137.99
6128
6118.74
6110.37
6103
6096.74
6091.72
6088.02
6085.76
6085
6085.79
6088.15
6092.13
6097.91
6104.07
5301.9
5295.62
5289.67
5285.5
5283.11
5282.42
5283.43
5286.09
5290.27
5295.86
5302.74
5310.8
5319.93
5330.02
5340.94
5352.54
5364.64
5377.06
5389.56
5401.88
5413.77
5424.97
5435.23
5444.38
5452.37
5459.29
5465.46
5471.4
5477.89
5485.76
5495.91
5508.71
5524.13
5540.66
5555.76
5565.74
5569.19
5567.21
5562.98
5559.75
5559.55
5562.48
5566.2
5568.14
5565.13
5556.61
5543.6
5528.91
5514.1
5500.97
5489.96
5481.07
5473.57
5466.9
5460.34
5453.36
5445.5
5436.55
5426.49
5415.46
5403.69
5391.47
5379.06
5366.72
5354.68
5343.13
5332.24
5322.17
5313.04
5304.98
5298.1
5292.51
5288.33
5285.67
5284.63
5285.29
5287.65
5291.75
5297.68
5303.92
4500.96
4494.24
4487.81
4483.31
4480.82
4480.27
4481.62
4484.74
4489.5
4495.74
4503.33
4512.17
4522.16
4533.19
4545.14
4557.86
4571.19
4584.92
4598.78
4612.47
4625.67
4638.02
4649.19
4658.89
4666.97
4673.51
4678.81
4683.61
4688.89
4696.06
4706.39
4721.13
4740.28
4762.53
4783.09
4796.07
4798.23
4792.46
4783.87
4778.08
4778.7
4785.3
4794.39
4800.16
4798.13
4785.64
4766.55
4745.76
4727.28
4712.15
4700.9
4692.58
4686.21
4680.56
4674.76
4668.04
4659.98
4650.41
4639.4
4627.18
4614.09
4600.48
4586.7
4573.04
4559.76
4547.07
4535.14
4524.12
4514.14
4505.29
4497.68
4491.44
4486.67
4483.53
4482.16
4482.67
4485.13
4489.57
4496
4502.71
3699.37
3691.56
3684.05
3678.92
3676.23
3675.85
3677.62
3681.33
3686.77
3693.76
3702.17
3711.88
3722.82
3734.89
3748.01
3762.05
3776.84
3792.17
3807.75
3823.22
3838.18
3852.14
3864.63
3875.21
3883.57
3889.64
3893.76
3896.7
3899.94
3905.3
3915.27
3931.81
3956.49
3987.66
4018.66
4037.37
4038.25
4025.65
4009.04
3998.09
3999.12
4011.91
4029.23
4042.18
4041.13
4022.41
3991.85
3961.5
3937.28
3920.63
3909.94
3903.59
3899.34
3895.59
3890.94
3884.64
3876.25
3865.76
3853.38
3839.54
3824.68
3809.29
3793.77
3778.5
3763.74
3749.73
3736.62
3724.54
3713.59
3703.86
3695.44
3688.43
3682.97
3679.23
3677.43
3677.77
3680.42
3685.53
3693.07
3700.88
2898.39
2888.22
2878.42
2872.18
2869.24
2869.15
2871.55
2876.07
2882.4
2890.32
2899.68
2910.41
2922.44
2935.74
2950.25
2965.88
2982.5
2999.88
3017.72
3035.6
3053.02
3069.33
3083.86
3095.9
3104.88
3110.5
3112.89
3112.96
3112.41
3114.19
3121.88
3140.01
3172.36
3220.36
3271.85
3300.33
3288.94
3250.22
3205.98
3177.7
3178.74
3208.02
3252.85
3292.25
3305.06
3277.43
3226.3
3177.86
3145.13
3126.59
3118.34
3115.8
3115.6
3114.9
3112.11
3106.29
3097.26
3085.25
3070.78
3054.52
3037.15
3019.29
3001.46
2984.08
2967.46
2951.81
2937.27
2923.94
2911.88
2901.12
2891.72
2883.77
2877.41
2872.86
2870.42
2870.47
2873.4
2879.66
2889.48
2899.6
2102.43
2085.47
2070.77
2062.75
2059.72
2060.41
2064.03
2069.93
2077.67
2086.99
2097.76
2109.93
2123.53
2138.58
2155.11
2173.08
2192.42
2212.91
2234.25
2255.95
2277.35
2297.59
2315.66
2330.43
2340.82
2345.96
2345.58
2340.3
2332.3
2325.44
2326.05
2342.41
2386.78
2469.55
2569.9
2615.16
2558.53
2440.69
2325.27
2257.45
2257.7
2325.5
2440.5
2561.16
2622.89
2581.14
2481.01
2395.72
2348.85
2330.9
2329.22
2335.38
2342.86
2347.78
2347.93
2342.67
2332.24
2317.44
2299.36
2279.09
2257.65
2235.9
2214.5
2193.94
2174.54
2156.5
2139.91
2124.79
2111.14
2098.91
2088.1
2078.74
2070.96
2065.02
2061.38
2060.66
2063.7
2071.73
2086.42
2103.32
1311.85
1276.63
1255.18
1246.14
1244
1246.36
1251.84
1259.53
1268.87
1279.6
1291.65
1305.07
1319.98
1336.54
1354.86
1375.04
1397.05
1420.77
1445.9
1471.92
1498.06
1523.2
1545.94
1564.56
1577.18
1582.05
1577.87
1564.57
1543.9
1520.91
1504.24
1509.01
1562.07
1701.22
1894.34
1998.97
1953.99
1850.77
1763.33
1717.34
1720.64
1770.88
1859.41
1965.32
2016.51
1914.95
1720.34
1573.96
1516.06
1508.66
1523.98
1546.26
1566.62
1579.79
1583.95
1579.08
1566.45
1547.8
1525.02
1499.8
1473.58
1447.46
1422.23
1398.4
1376.29
1356.02
1337.61
1320.97
1305.98
1292.49
1280.39
1269.61
1260.22
1252.49
1246.97
1244.6
1246.74
1255.78
1277.24
1312.53
467.391
429.503
415.164
411.133
411.4
414.259
418.733
424.223
430.435
437.274
444.776
453.052
462.253
472.543
484.082
497
511.385
527.248
544.497
562.888
581.975
601.051
619.097
634.748
646.322
651.931
649.794
638.64
618.614
592.11
565.32
549.533
572.292
684.331
860.748
1066.45
1568.86
2296.44
2837.8
3046.96
3060.82
2880.4
2357.76
1625.88
1099.2
877.99
700.041
579.951
552.95
567.16
593.229
619.501
639.521
650.771
653.002
647.46
635.909
620.246
602.156
583.015
563.85
545.375
528.042
512.096
497.635
484.645
473.043
462.695
453.445
445.125
437.584
430.709
424.464
418.945
414.448
411.575
411.297
415.323
429.693
467.733
-8.13941
-8.23074
-7.76177
-7.37761
-7.04665
-6.72783
-6.40234
-6.05675
-5.67774
-5.25124
-4.76182
-4.19213
-3.52235
-2.72966
-1.78774
-0.666486
0.66778
2.25132
4.12058
6.30755
8.83185
11.6881
14.8279
18.1359
21.4023
24.3024
26.3937
27.1634
26.1335
23.0996
18.3724
13.1449
11.219
21.7102
45.1418
277.59
1190.72
2332.06
3065.58
3394.9
3412.19
3115.85
2411.2
1269.02
313.717
47.7573
23.3811
11.7404
13.2385
18.3976
23.1382
26.2098
27.2831
26.5429
24.4666
21.5676
18.293
14.971
11.8144
8.94089
6.40018
4.19837
2.31614
0.721531
-0.622038
-1.75103
-2.69936
-3.49733
-4.17148
-4.74481
-5.23729
-5.6664
-6.04771
-6.39535
-6.72261
-7.04302
-7.37567
-7.76176
-8.2326
-8.13917
-10.5487
-10.5492
-10.5492
-10.5493
-10.5494
-10.5495
-10.5497
-10.5499
-10.5502
-10.5505
-10.551
-10.5515
-10.5522
-10.5531
-10.554
-10.5551
-10.5564
-10.5578
-10.5594
-10.561
-10.5627
-10.5645
-10.5664
-10.5686
-10.5718
-10.5767
-10.5834
-10.5907
-10.5946
-10.5917
-10.5838
-10.5782
-10.5809
-10.5943
-10.2578
91.2133
379.455
1350.41
2341.45
2704.82
2717.89
2386.05
1422.47
415.985
107.356
-10.1893
-10.6071
-10.5824
-10.5708
-10.5801
-10.5907
-10.5958
-10.5937
-10.5882
-10.5825
-10.578
-10.575
-10.5728
-10.5711
-10.5695
-10.5679
-10.5664
-10.565
-10.5636
-10.5624
-10.5612
-10.5603
-10.5594
-10.5587
-10.5581
-10.5576
-10.5572
-10.5569
-10.5567
-10.5565
-10.5564
-10.5562
-10.5561
-10.5561
-10.5557
-11.04
-11.0399
-11.0399
-11.04
-11.0401
-11.0403
-11.0404
-11.0407
-11.041
-11.0414
-11.0419
-11.0425
-11.0433
-11.0441
-11.0452
-11.0463
-11.0477
-11.0492
-11.0508
-11.0526
-11.0546
-11.0566
-11.0587
-11.0609
-11.0639
-11.0682
-11.0738
-11.0791
-11.0812
-11.0782
-11.0714
-11.0637
-11.0603
-11.0811
-11.1753
-11.2851
61.1921
693.658
1372.42
1412.63
1417.21
1398.5
743.657
75.957
-11.3201
-11.1777
-11.0844
-11.0597
-11.0589
-11.0687
-11.0772
-11.0821
-11.082
-11.0784
-11.0739
-11.07
-11.0672
-11.0651
-11.0632
-11.0614
-11.0596
-11.0579
-11.0564
-11.0549
-11.0536
-11.0524
-11.0513
-11.0504
-11.0497
-11.049
-11.0485
-11.048
-11.0477
-11.0474
-11.0472
-11.0471
-11.047
-11.0469
-11.0469
-11.0469
-11.5303
-11.5304
-11.5305
-11.5306
-11.5307
-11.5308
-11.531
-11.5313
-11.5316
-11.532
-11.5325
-11.5331
-11.5338
-11.5346
-11.5356
-11.5367
-11.538
-11.5393
-11.5408
-11.5423
-11.5439
-11.5456
-11.5475
-11.5498
-11.553
-11.5578
-11.5639
-11.5698
-11.5726
-11.5687
-11.5599
-11.5644
-11.5845
-11.6281
-11.6964
-11.7144
-11.7846
384.986
1157.71
1190.44
1193.93
1188.12
428.756
-11.8322
-11.804
-11.7535
-11.6491
-11.5851
-11.559
-11.5558
-11.5671
-11.5738
-11.573
-11.5685
-11.5635
-11.5592
-11.5562
-11.5539
-11.5522
-11.5507
-11.5492
-11.5478
-11.5465
-11.5452
-11.5439
-11.5428
-11.5418
-11.5409
-11.5402
-11.5395
-11.539
-11.5386
-11.5383
-11.538
-11.5378
-11.5376
-11.5375
-11.5374
-11.5374
-11.5373
-12.0209
-12.021
-12.021
-12.0211
-12.0212
-12.0214
-12.0216
-12.0218
-12.0221
-12.0225
-12.023
-12.0236
-12.0243
-12.0251
-12.0261
-12.0271
-12.0283
-12.0297
-12.0311
-12.0325
-12.0341
-12.0358
-12.0376
-12.0397
-12.0424
-12.0465
-12.0523
-12.0587
-12.0629
-12.0664
-12.0707
-12.0943
-12.1377
-12.1312
-12.0548
-12.0443
-12.1602
66.2134
602.089
894.879
905.609
637.685
84.9046
-12.2507
-12.0296
-12.0831
-12.1954
-12.1819
-12.1043
-12.0725
-12.0681
-12.0645
-12.0627
-12.0574
-12.0523
-12.0487
-12.0462
-12.0442
-12.0425
-12.0409
-12.0394
-12.038
-12.0367
-12.0355
-12.0343
-12.0332
-12.0323
-12.0314
-12.0307
-12.0301
-12.0295
-12.0291
-12.0288
-12.0285
-12.0283
-12.0282
-12.0281
-12.028
-12.0279
-12.0279
-12.5115
-12.5115
-12.5116
-12.5117
-12.5118
-12.5119
-12.5121
-12.5124
-12.5127
-12.513
-12.5135
-12.5141
-12.5148
-12.5156
-12.5165
-12.5175
-12.5187
-12.5199
-12.5212
-12.5226
-12.524
-12.5254
-12.5268
-12.5282
-12.5299
-12.5327
-12.5382
-12.5475
-12.5577
-12.5704
-12.5954
-12.5978
-12.5545
-12.4879
-12.4768
-12.5038
-12.4886
-9.2363
84.4499
274.603
282.027
99.1029
-8.66943
-12.4694
-12.4709
-12.4535
-12.4946
-12.5857
-12.6291
-12.6125
-12.5829
-12.5682
-12.5572
-12.5463
-12.5398
-12.5367
-12.5348
-12.5334
-12.5321
-12.5308
-12.5295
-12.5282
-12.5269
-12.5257
-12.5246
-12.5236
-12.5227
-12.5219
-12.5211
-12.5205
-12.5201
-12.5196
-12.5193
-12.5191
-12.5188
-12.5187
-12.5186
-12.5185
-12.5184
-12.5184
-13.002
-13.002
-13.0021
-13.0022
-13.0023
-13.0024
-13.0026
-13.0029
-13.0032
-13.0035
-13.004
-13.0045
-13.0052
-13.006
-13.0068
-13.0078
-13.0089
-13.0101
-13.0114
-13.0126
-13.0139
-13.0152
-13.0164
-13.0177
-13.019
-13.0211
-13.0262
-13.0381
-13.055
-13.0694
-13.0757
-13.0718
-13.0476
-13.0098
-12.9954
-13.0222
-12.9674
-12.9197
-12.8392
-12.8188
-12.8102
-12.8371
-12.9824
-13.0301
-13.0144
-12.9805
-12.9965
-13.033
-13.0669
-13.0876
-13.0868
-13.0728
-13.052
-13.0361
-13.0288
-13.026
-13.0244
-13.0231
-13.0218
-13.0206
-13.0194
-13.0182
-13.017
-13.0159
-13.0149
-13.0139
-13.013
-13.0122
-13.0116
-13.011
-13.0105
-13.0101
-13.0098
-13.0095
-13.0093
-13.0092
-13.0091
-13.009
-13.0089
-13.0089
-13.4925
-13.4926
-13.4926
-13.4927
-13.4928
-13.4929
-13.4931
-13.4934
-13.4936
-13.494
-13.4944
-13.495
-13.4956
-13.4963
-13.4972
-13.4981
-13.4991
-13.5003
-13.5014
-13.5027
-13.5039
-13.5051
-13.5064
-13.5077
-13.5093
-13.5117
-13.5173
-13.5301
-13.5504
-13.5727
-13.5887
-13.5883
-13.5683
-13.5405
-13.5276
-13.5336
-13.5404
-13.3719
-13.3361
-13.3315
-13.3313
-13.3325
-13.382
-13.5259
-13.5242
-13.5158
-13.5336
-13.5651
-13.5854
-13.5856
-13.5739
-13.5593
-13.5409
-13.5263
-13.5193
-13.5162
-13.5144
-13.5129
-13.5117
-13.5105
-13.5094
-13.5082
-13.5071
-13.506
-13.505
-13.5041
-13.5033
-13.5026
-13.5019
-13.5014
-13.5009
-13.5005
-13.5002
-13.5
-13.4998
-13.4996
-13.4995
-13.4994
-13.4994
-13.4994
-13.983
-13.983
-13.9831
-13.9832
-13.9833
-13.9834
-13.9836
-13.9838
-13.9841
-13.9844
-13.9849
-13.9854
-13.9859
-13.9866
-13.9874
-13.9883
-13.9893
-13.9904
-13.9915
-13.9927
-13.9939
-13.9952
-13.9965
-13.998
-14
-14.0031
-14.0089
-14.0208
-14.0402
-14.062
-14.0766
-14.0763
-14.0583
-14.0328
-14.0179
-14.0062
-13.9604
-13.8882
-13.8549
-13.8373
-13.8361
-13.8586
-13.9037
-13.9617
-13.9947
-14.0165
-14.0412
-14.0674
-14.0824
-14.0797
-14.0673
-14.0494
-14.0299
-14.0166
-14.0101
-14.0067
-14.0045
-14.0029
-14.0016
-14.0004
-13.9993
-13.9982
-13.9971
-13.9961
-13.9952
-13.9943
-13.9935
-13.9928
-13.9922
-13.9917
-13.9913
-13.9909
-13.9907
-13.9904
-13.9902
-13.9901
-13.99
-13.9899
-13.9898
-13.9898
-14.4735
-14.4735
-14.4736
-14.4736
-14.4738
-14.4739
-14.4741
-14.4743
-14.4745
-14.4749
-14.4753
-14.4757
-14.4763
-14.4769
-14.4777
-14.4785
-14.4794
-14.4804
-14.4815
-14.4826
-14.4839
-14.4852
-14.4866
-14.4883
-14.4905
-14.4938
-14.4992
-14.5078
-14.5219
-14.5375
-14.5478
-14.5463
-14.5344
-14.5144
-14.4957
-14.4737
-14.4404
-14.4055
-14.374
-14.3565
-14.3589
-14.3821
-14.417
-14.4531
-14.4846
-14.5084
-14.5298
-14.5487
-14.5576
-14.556
-14.5461
-14.5312
-14.5159
-14.5058
-14.5002
-14.4968
-14.4945
-14.4928
-14.4914
-14.4902
-14.4891
-14.488
-14.487
-14.4861
-14.4852
-14.4844
-14.4837
-14.4831
-14.4825
-14.482
-14.4816
-14.4813
-14.481
-14.4808
-14.4806
-14.4805
-14.4804
-14.4803
-14.4802
-14.4802
-14.964
-14.964
-14.964
-14.9641
-14.9642
-14.9643
-14.9645
-14.9647
-14.965
-14.9653
-14.9656
-14.9661
-14.9666
-14.9672
-14.9679
-14.9686
-14.9695
-14.9705
-14.9715
-14.9726
-14.9738
-14.9751
-14.9765
-14.9782
-14.9804
-14.9834
-14.9877
-14.9938
-15.0021
-15.0112
-15.0174
-15.0166
-15.0079
-14.9975
-14.9868
-14.9717
-14.95
-14.9267
-14.903
-14.8866
-14.8895
-14.9117
-14.9392
-14.9644
-14.984
-14.9984
-15.0105
-15.0206
-15.0263
-15.0249
-15.0183
-15.0092
-15.0003
-14.9938
-14.9893
-14.9863
-14.9842
-14.9825
-14.9811
-14.98
-14.9789
-14.9779
-14.9769
-14.9761
-14.9753
-14.9745
-14.9739
-14.9733
-14.9728
-14.9723
-14.972
-14.9716
-14.9714
-14.9712
-14.971
-14.9709
-14.9708
-14.9707
-14.9706
-14.9706
-15.4544
-15.4544
-15.4545
-15.4545
-15.4546
-15.4548
-15.4549
-15.4551
-15.4554
-15.4556
-15.456
-15.4564
-15.4568
-15.4574
-15.458
-15.4587
-15.4596
-15.4604
-15.4614
-15.4624
-15.4636
-15.4648
-15.4662
-15.4679
-15.4699
-15.4725
-15.4758
-15.4801
-15.4853
-15.4905
-15.4941
-15.4942
-15.49
-15.4845
-15.4803
-15.4737
-15.4626
-15.4478
-15.4292
-15.4138
-15.4155
-15.4342
-15.4544
-15.4694
-15.4788
-15.4856
-15.492
-15.4974
-15.5002
-15.4992
-15.4954
-15.4903
-15.4853
-15.4811
-15.4778
-15.4753
-15.4735
-15.472
-15.4707
-15.4696
-15.4686
-15.4676
-15.4668
-15.466
-15.4652
-15.4646
-15.464
-15.4634
-15.463
-15.4626
-15.4622
-15.462
-15.4617
-15.4615
-15.4614
-15.4612
-15.4611
-15.461
-15.461
-15.461
-15.9448
-15.9449
-15.9449
-15.945
-15.9451
-15.9452
-15.9453
-15.9455
-15.9457
-15.946
-15.9463
-15.9467
-15.9471
-15.9476
-15.9482
-15.9488
-15.9496
-15.9504
-15.9513
-15.9522
-15.9533
-15.9544
-15.9558
-15.9573
-15.9591
-15.9612
-15.9638
-15.9669
-15.9704
-15.9738
-15.9763
-15.977
-15.9758
-15.9743
-15.9746
-15.9746
-15.9701
-15.9605
-15.9464
-15.9321
-15.9307
-15.9432
-15.9564
-15.9641
-15.9681
-15.9712
-15.9746
-15.9778
-15.9795
-15.9791
-15.9771
-15.9742
-15.9711
-15.9683
-15.9659
-15.964
-15.9625
-15.9612
-15.9601
-15.9591
-15.9582
-15.9574
-15.9566
-15.9559
-15.9552
-15.9546
-15.9541
-15.9536
-15.9532
-15.9528
-15.9525
-15.9522
-15.952
-15.9518
-15.9517
-15.9516
-15.9515
-15.9514
-15.9513
-15.9513
-16.4352
-16.4353
-16.4353
-16.4354
-16.4355
-16.4356
-16.4357
-16.4359
-16.4361
-16.4363
-16.4366
-16.4369
-16.4373
-16.4378
-16.4383
-16.4389
-16.4396
-16.4403
-16.4411
-16.442
-16.4429
-16.4439
-16.4451
-16.4465
-16.448
-16.4497
-16.4517
-16.4539
-16.4563
-16.4586
-16.4604
-16.4614
-16.4619
-16.4627
-16.4655
-16.4692
-16.469
-16.4626
-16.4515
-16.4377
-16.4324
-16.4387
-16.4461
-16.4501
-16.4526
-16.4547
-16.4573
-16.4597
-16.4612
-16.4614
-16.4606
-16.4591
-16.4573
-16.4555
-16.4539
-16.4525
-16.4514
-16.4503
-16.4494
-16.4485
-16.4478
-16.447
-16.4463
-16.4457
-16.4451
-16.4446
-16.4441
-16.4437
-16.4433
-16.443
-16.4427
-16.4425
-16.4423
-16.4421
-16.442
-16.4419
-16.4418
-16.4417
-16.4417
-16.4416
-16.9256
-16.9257
-16.9257
-16.9258
-16.9258
-16.9259
-16.9261
-16.9262
-16.9264
-16.9266
-16.9269
-16.9272
-16.9275
-16.928
-16.9284
-16.9289
-16.9295
-16.9302
-16.9309
-16.9316
-16.9325
-16.9334
-16.9344
-16.9355
-16.9367
-16.938
-16.9395
-16.941
-16.9426
-16.9441
-16.9453
-16.9462
-16.9471
-16.9486
-16.9519
-16.9565
-16.9584
-16.9541
-16.9446
-16.9311
-16.9229
-16.924
-16.9282
-16.9314
-16.9343
-16.9372
-16.9401
-16.9426
-16.9443
-16.9451
-16.9452
-16.9446
-16.9438
-16.9428
-16.9419
-16.941
-16.9401
-16.9393
-16.9386
-16.9379
-16.9373
-16.9366
-16.9361
-16.9355
-16.935
-16.9346
-16.9342
-16.9338
-16.9335
-16.9332
-16.9329
-16.9327
-16.9325
-16.9324
-16.9322
-16.9321
-16.9321
-16.932
-16.932
-16.9319
-17.416
-17.416
-17.4161
-17.4161
-17.4162
-17.4163
-17.4164
-17.4166
-17.4168
-17.4169
-17.4172
-17.4174
-17.4178
-17.4181
-17.4185
-17.419
-17.4195
-17.42
-17.4207
-17.4213
-17.422
-17.4227
-17.4235
-17.4244
-17.4253
-17.4263
-17.4274
-17.4284
-17.4293
-17.4302
-17.4309
-17.4313
-17.4318
-17.4329
-17.4352
-17.4385
-17.4402
-17.4369
-17.4281
-17.4165
-17.4068
-17.4048
-17.4079
-17.4119
-17.4161
-17.4201
-17.4236
-17.4265
-17.4286
-17.4299
-17.4307
-17.4308
-17.4307
-17.4304
-17.4299
-17.4294
-17.4289
-17.4283
-17.4278
-17.4273
-17.4267
-17.4262
-17.4258
-17.4253
-17.4249
-17.4245
-17.4242
-17.4239
-17.4236
-17.4233
-17.4231
-17.4229
-17.4228
-17.4226
-17.4225
-17.4224
-17.4223
-17.4223
-17.4222
-17.4222
-17.9064
-17.9064
-17.9064
-17.9065
-17.9066
-17.9067
-17.9068
-17.9069
-17.9071
-17.9072
-17.9074
-17.9077
-17.9079
-17.9083
-17.9086
-17.909
-17.9094
-17.9099
-17.9104
-17.911
-17.9115
-17.9121
-17.9127
-17.9134
-17.914
-17.9147
-17.9153
-17.9159
-17.9164
-17.9167
-17.9169
-17.9168
-17.9166
-17.9167
-17.9173
-17.9184
-17.9185
-17.915
-17.9073
-17.8975
-17.8885
-17.8855
-17.8886
-17.8938
-17.8993
-17.9042
-17.9082
-17.9114
-17.9139
-17.9157
-17.9169
-17.9176
-17.918
-17.9181
-17.9181
-17.9179
-17.9176
-17.9173
-17.917
-17.9166
-17.9162
-17.9158
-17.9155
-17.9151
-17.9148
-17.9145
-17.9142
-17.9139
-17.9137
-17.9135
-17.9133
-17.9131
-17.913
-17.9128
-17.9127
-17.9127
-17.9126
-17.9125
-17.9125
-17.9125
-18.3967
-18.3967
-18.3968
-18.3968
-18.3969
-18.397
-18.3971
-18.3972
-18.3974
-18.3975
-18.3977
-18.3979
-18.3981
-18.3984
-18.3987
-18.399
-18.3994
-18.3998
-18.4002
-18.4006
-18.4011
-18.4015
-18.4019
-18.4024
-18.4028
-18.4031
-18.4034
-18.4036
-18.4037
-18.4036
-18.4033
-18.4027
-18.4019
-18.401
-18.4
-18.399
-18.3971
-18.393
-18.3861
-18.3783
-18.3711
-18.3687
-18.3722
-18.3782
-18.3843
-18.3896
-18.394
-18.3974
-18.4002
-18.4023
-18.4038
-18.4049
-18.4057
-18.4061
-18.4064
-18.4065
-18.4065
-18.4064
-18.4062
-18.406
-18.4057
-18.4055
-18.4052
-18.4049
-18.4047
-18.4044
-18.4042
-18.404
-18.4038
-18.4036
-18.4034
-18.4033
-18.4032
-18.4031
-18.403
-18.4029
-18.4028
-18.4028
-18.4027
-18.4027
-18.8871
-18.8871
-18.8871
-18.8872
-18.8872
-18.8873
-18.8874
-18.8875
-18.8877
-18.8878
-18.888
-18.8881
-18.8883
-18.8885
-18.8888
-18.889
-18.8893
-18.8897
-18.89
-18.8903
-18.8906
-18.8909
-18.8912
-18.8914
-18.8916
-18.8918
-18.8918
-18.8917
-18.8914
-18.8909
-18.8902
-18.8892
-18.8878
-18.8861
-18.8841
-18.8816
-18.8783
-18.8736
-18.8674
-18.8612
-18.8561
-18.8549
-18.8589
-18.865
-18.8712
-18.8765
-18.8809
-18.8844
-18.8873
-18.8896
-18.8913
-18.8927
-18.8937
-18.8944
-18.8949
-18.8952
-18.8954
-18.8955
-18.8955
-18.8954
-18.8952
-18.8951
-18.8949
-18.8947
-18.8945
-18.8944
-18.8942
-18.894
-18.8939
-18.8937
-18.8936
-18.8935
-18.8933
-18.8933
-18.8932
-18.8931
-18.893
-18.893
-18.893
-18.893
-19.3774
-19.3774
-19.3775
-19.3775
-19.3776
-19.3776
-19.3777
-19.3778
-19.3779
-19.3781
-19.3782
-19.3784
-19.3785
-19.3787
-19.3789
-19.3791
-19.3793
-19.3795
-19.3798
-19.38
-19.3802
-19.3804
-19.3806
-19.3806
-19.3806
-19.3806
-19.3803
-19.38
-19.3794
-19.3786
-19.3776
-19.3763
-19.3746
-19.3724
-19.3698
-19.3665
-19.3625
-19.3576
-19.352
-19.3471
-19.3438
-19.3438
-19.348
-19.3539
-19.3597
-19.3646
-19.3688
-19.3723
-19.3751
-19.3775
-19.3794
-19.3809
-19.3821
-19.383
-19.3837
-19.3842
-19.3845
-19.3847
-19.3848
-19.3848
-19.3848
-19.3847
-19.3847
-19.3845
-19.3844
-19.3843
-19.3842
-19.3841
-19.3839
-19.3838
-19.3837
-19.3836
-19.3835
-19.3834
-19.3834
-19.3833
-19.3833
-19.3832
-19.3832
-19.3832
-19.8677
-19.8678
-19.8678
-19.8678
-19.8679
-19.868
-19.868
-19.8681
-19.8682
-19.8683
-19.8684
-19.8686
-19.8687
-19.8688
-19.869
-19.8691
-19.8693
-19.8695
-19.8696
-19.8698
-19.8699
-19.87
-19.87
-19.8699
-19.8698
-19.8696
-19.8692
-19.8686
-19.8679
-19.8669
-19.8656
-19.8641
-19.8621
-19.8598
-19.857
-19.8535
-19.8493
-19.8445
-19.8396
-19.8357
-19.8337
-19.8346
-19.8388
-19.8441
-19.8493
-19.8538
-19.8576
-19.8609
-19.8637
-19.866
-19.868
-19.8696
-19.8708
-19.8719
-19.8726
-19.8732
-19.8737
-19.874
-19.8742
-19.8743
-19.8744
-19.8744
-19.8744
-19.8744
-19.8743
-19.8743
-19.8742
-19.8741
-19.874
-19.8739
-19.8738
-19.8738
-19.8737
-19.8736
-19.8736
-19.8735
-19.8735
-19.8734
-19.8734
-19.8734
-20.3581
-20.3581
-20.3581
-20.3581
-20.3582
-20.3583
-20.3583
-20.3584
-20.3585
-20.3586
-20.3587
-20.3588
-20.3589
-20.359
-20.3591
-20.3592
-20.3593
-20.3594
-20.3595
-20.3596
-20.3596
-20.3596
-20.3595
-20.3594
-20.3591
-20.3588
-20.3582
-20.3576
-20.3567
-20.3555
-20.3542
-20.3525
-20.3505
-20.3482
-20.3454
-20.342
-20.3381
-20.3337
-20.3294
-20.3263
-20.3252
-20.3267
-20.3305
-20.3352
-20.3396
-20.3436
-20.3471
-20.3501
-20.3527
-20.355
-20.3569
-20.3585
-20.3599
-20.3609
-20.3618
-20.3625
-20.363
-20.3634
-20.3637
-20.3639
-20.3641
-20.3642
-20.3642
-20.3642
-20.3642
-20.3642
-20.3642
-20.3641
-20.3641
-20.364
-20.364
-20.3639
-20.3638
-20.3638
-20.3637
-20.3637
-20.3637
-20.3636
-20.3636
-20.3636
-20.8484
-20.8484
-20.8484
-20.8485
-20.8485
-20.8486
-20.8486
-20.8487
-20.8488
-20.8488
-20.8489
-20.849
-20.8491
-20.8492
-20.8492
-20.8493
-20.8494
-20.8494
-20.8494
-20.8494
-20.8494
-20.8493
-20.8492
-20.8489
-20.8486
-20.8481
-20.8475
-20.8468
-20.8458
-20.8446
-20.8432
-20.8415
-20.8396
-20.8373
-20.8347
-20.8317
-20.8282
-20.8243
-20.8207
-20.8182
-20.8177
-20.8194
-20.8227
-20.8267
-20.8305
-20.834
-20.8371
-20.8398
-20.8422
-20.8444
-20.8462
-20.8478
-20.8491
-20.8502
-20.8512
-20.8519
-20.8525
-20.853
-20.8533
-20.8536
-20.8538
-20.854
-20.8541
-20.8541
-20.8542
-20.8542
-20.8542
-20.8542
-20.8542
-20.8541
-20.8541
-20.854
-20.854
-20.854
-20.8539
-20.8539
-20.8538
-20.8538
-20.8538
-20.8538
-21.3387
-21.3387
-21.3387
-21.3388
-21.3388
-21.3389
-21.3389
-21.339
-21.339
-21.3391
-21.3392
-21.3392
-21.3393
-21.3393
-21.3394
-21.3394
-21.3394
-21.3394
-21.3394
-21.3394
-21.3393
-21.3391
-21.3389
-21.3386
-21.3382
-21.3377
-21.3371
-21.3362
-21.3353
-21.3341
-21.3327