/*--------------------------------*- C++ -*----------------------------------*\
| =========                 |                                                 |
| \\      /  F ield         | OpenFOAM: The Open Source CFD Toolbox           |
|  \\    /   O peration     | Version:  2412                                  |
|   \\  /    A nd           | Website:  www.openfoam.com                      |
|    \\/     M anipulation  |                                                 |
\*---------------------------------------------------------------------------*/
FoamFile
{
    version     2.0;
    format      ascii;
    arch        "LSB;label=32;scalar=64";
    class       surfaceScalarField;
    location    "9.15";
    object      alphaPhi0.water;
}
// * * * * * * * * * * * * * * * * * * * * * * * * * * * * * * * * * * * * * //

dimensions      [0 3 -1 0 0 0 0];

oriented        oriented;

internalField   nonuniform List<scalar> 
12640
(
-2.08592e-05
2.08591e-05
-3.65949e-05
1.57538e-05
-5.29965e-05
1.64014e-05
-6.94472e-05
1.64477e-05
-8.4979e-05
1.553e-05
-9.9158e-05
1.41786e-05
-0.000111843
1.26853e-05
-0.000122959
1.1116e-05
-0.000132471
9.51117e-06
-0.000140373
7.90216e-06
-0.000146579
6.20537e-06
-0.000151146
4.56734e-06
-0.000154127
2.98091e-06
-0.000155553
1.42586e-06
-0.000155459
-9.30754e-08
-0.000153874
-1.58397e-06
-0.000150908
-2.96502e-06
-0.00014664
-4.26871e-06
-0.000141219
-5.42104e-06
-0.000134838
-6.3806e-06
-0.000127733
-7.10646e-06
-0.000120159
-7.57425e-06
-0.000112354
-7.80521e-06
-0.000104574
-7.78152e-06
-9.70681e-05
-7.50797e-06
-8.98793e-05
-7.18996e-06
-8.31076e-05
-6.77217e-06
-7.65843e-05
-6.52349e-06
-7.02554e-05
-6.32861e-06
-6.40033e-05
-6.25145e-06
-5.78711e-05
-6.13114e-06
-5.19189e-05
-5.95118e-06
-4.61717e-05
-5.74631e-06
-4.04239e-05
-5.74729e-06
-3.43958e-05
-6.02793e-06
-2.80603e-05
-6.33563e-06
-2.13522e-05
-6.7082e-06
-1.43186e-05
-7.03366e-06
-7.08342e-06
-7.23546e-06
2.23579e-07
-7.30731e-06
7.4386e-06
-7.21515e-06
1.4316e-05
-6.87735e-06
2.07285e-05
-6.41229e-06
2.64885e-05
-5.75967e-06
3.15651e-05
-5.0763e-06
3.58823e-05
-4.31691e-06
3.95519e-05
-3.66937e-06
4.28102e-05
-3.25836e-06
4.6032e-05
-3.22207e-06
4.94409e-05
-3.40912e-06
5.3236e-05
-3.79539e-06
5.74349e-05
-4.19915e-06
6.22485e-05
-4.81394e-06
6.78416e-05
-5.59363e-06
7.43683e-05
-6.52735e-06
8.18066e-05
-7.43896e-06
9.00402e-05
-8.23385e-06
9.87682e-05
-8.72787e-06
0.000107642
-8.87348e-06
0.000116352
-8.70886e-06
0.00012457
-8.21883e-06
0.00013202
-7.45018e-06
0.000138431
-6.41159e-06
0.000143547
-5.11571e-06
0.0001472
-3.65272e-06
0.000149234
-2.03282e-06
0.000149556
-3.22131e-07
0.00014806
1.49499e-06
0.000144722
3.33789e-06
0.000139607
5.11549e-06
0.000132688
6.92041e-06
0.000124065
8.62378e-06
0.000113681
1.03858e-05
0.000101425
1.22562e-05
8.74545e-05
1.39705e-05
7.18924e-05
1.55625e-05
5.5154e-05
1.67397e-05
3.82376e-05
1.69184e-05
2.17989e-05
1.64401e-05
2.18022e-05
-2.29706e-05
4.38102e-05
-4.07602e-05
3.35428e-05
-5.91119e-05
3.47555e-05
-7.70079e-05
3.43445e-05
-9.33679e-05
3.18894e-05
-0.000107845
2.8655e-05
-0.000120264
2.51037e-05
-0.000130694
2.15453e-05
-0.000139221
1.80379e-05
-0.000145907
1.45876e-05
-0.000150933
1.12316e-05
-0.000154344
7.97799e-06
-0.000156147
4.78562e-06
-0.000156392
1.67142e-06
-0.000155141
-1.34379e-06
-0.000152551
-4.17509e-06
-0.000148731
-6.78489e-06
-0.000143801
-9.19921e-06
-0.000137906
-1.13164e-05
-0.00013115
-1.31383e-05
-0.00012365
-1.46068e-05
-0.000115542
-1.56841e-05
-0.000106933
-1.64155e-05
-9.78875e-05
-1.68276e-05
-8.85131e-05
-1.68823e-05
-7.89271e-05
-1.67754e-05
-6.93034e-05
-1.63949e-05
-5.99139e-05
-1.59122e-05
-5.09732e-05
-1.52686e-05
-4.27057e-05
-1.45184e-05
-3.51522e-05
-1.36844e-05
-2.8243e-05
-1.28605e-05
-2.20035e-05
-1.19864e-05
-1.64839e-05
-1.12676e-05
-1.17788e-05
-1.07337e-05
-7.89048e-06
-1.02247e-05
-4.72934e-06
-9.87038e-06
-2.26999e-06
-9.49419e-06
-3.67425e-07
-9.13902e-06
1.1082e-06
-8.78368e-06
2.27768e-06
-8.38526e-06
3.34273e-06
-7.94302e-06
4.43561e-06
-7.50575e-06
5.77706e-06
-7.10157e-06
7.54047e-06
-6.8401e-06
9.93748e-06
-6.71436e-06
1.30555e-05
-6.78799e-06
1.68915e-05
-7.09511e-06
2.14196e-05
-7.75098e-06
2.66851e-05
-8.67535e-06
3.27345e-05
-9.84543e-06
3.96688e-05
-1.11341e-05
4.73665e-05
-1.25123e-05
5.57049e-05
-1.39329e-05
6.45028e-05
-1.53259e-05
7.36472e-05
-1.65836e-05
8.29766e-05
-1.75628e-05
9.23805e-05
-1.8131e-05
0.00010172
-1.82127e-05
0.000110833
-1.7821e-05
0.00011955
-1.69364e-05
0.000127682
-1.55823e-05
0.000135009
-1.37387e-05
0.000141266
-1.13715e-05
0.000146178
-8.56429e-06
0.000149533
-5.38688e-06
0.000151119
-1.90828e-06
0.000150821
1.79241e-06
0.000148622
5.53805e-06
0.000144522
9.2182e-06
0.00013857
1.28739e-05
0.000130605
1.65901e-05
0.000120604
2.03875e-05
0.000108568
2.42922e-05
9.44015e-05
2.81378e-05
7.81421e-05
3.18238e-05
6.02038e-05
3.46805e-05
4.18374e-05
3.5286e-05
2.38921e-05
3.43875e-05
4.56931e-05
-2.28635e-05
6.66736e-05
-4.05993e-05
5.12756e-05
-5.90125e-05
5.3168e-05
-7.70559e-05
5.23872e-05
-9.35925e-05
4.84249e-05
-0.000108168
4.32301e-05
-0.000120741
3.7676e-05
-0.000131403
3.2207e-05
-0.000140236
2.68712e-05
-0.000147302
2.16529e-05
-0.000152776
1.67059e-05
-0.000156607
1.18087e-05
-0.000158775
6.95256e-06
-0.00015937
2.26506e-06
-0.000158397
-2.31812e-06
-0.00015593
-6.64235e-06
-0.00015206
-1.06569e-05
-0.000146932
-1.43283e-05
-0.000140705
-1.75422e-05
-0.000133561
-2.0281e-05
-0.00012566
-2.25076e-05
-0.000117181
-2.41625e-05
-0.000108314
-2.52801e-05
-9.92055e-05
-2.59346e-05
-8.99601e-05
-2.61269e-05
-8.08037e-05
-2.59317e-05
-7.18115e-05
-2.53879e-05
-6.31717e-05
-2.45533e-05
-5.49725e-05
-2.34693e-05
-4.73443e-05
-2.21481e-05
-4.02199e-05
-2.08103e-05
-3.36236e-05
-1.94578e-05
-2.74592e-05
-1.81516e-05
-2.17734e-05
-1.69544e-05
-1.66901e-05
-1.58188e-05
-1.21247e-05
-1.47921e-05
-8.13522e-06
-1.3862e-05
-4.56241e-06
-1.30691e-05
-1.36327e-06
-1.23403e-05
1.51097e-06
-1.166e-05
4.09191e-06
-1.09681e-05
6.43461e-06
-1.02872e-05
8.61061e-06
-9.68279e-06
1.07725e-05
-9.26409e-06
1.30174e-05
-9.08554e-06
1.56134e-05
-9.31068e-06
1.86351e-05
-9.81009e-06
2.21102e-05
-1.05705e-05
2.60401e-05
-1.16811e-05
3.05345e-05
-1.31698e-05
3.56956e-05
-1.50066e-05
4.17464e-05
-1.7185e-05
4.86877e-05
-1.94538e-05
5.64755e-05
-2.1721e-05
6.50171e-05
-2.38678e-05
7.41467e-05
-2.5713e-05
8.37194e-05
-2.7135e-05
9.35679e-05
-2.79789e-05
0.000103484
-2.81285e-05
0.000113249
-2.75857e-05
0.00012262
-2.63071e-05
0.000131308
-2.42704e-05
0.000138988
-2.14173e-05
0.000145396
-1.7779e-05
0.000150268
-1.3435e-05
0.000153384
-8.50311e-06
0.000154592
-3.11621e-06
0.000153886
2.49776e-06
0.000151254
8.17053e-06
0.000146656
1.38168e-05
0.000140225
1.93051e-05
0.000131909
2.49064e-05
0.000121738
3.05575e-05
0.000109704
3.63256e-05
9.54316e-05
4.24102e-05
7.90264e-05
4.82292e-05
6.09504e-05
5.27554e-05
4.2467e-05
5.3767e-05
2.42989e-05
5.25581e-05
6.99886e-05
-2.39635e-05
9.06401e-05
-4.24981e-05
6.98081e-05
-6.16057e-05
7.22739e-05
-8.05137e-05
7.12936e-05
-9.77528e-05
6.5663e-05
-0.000112761
5.82378e-05
-0.000125572
5.04879e-05
-0.000136246
4.28808e-05
-0.000144997
3.5621e-05
-0.000152095
2.87511e-05
-0.000157474
2.20839e-05
-0.000161235
1.55679e-05
-0.000163359
9.07558e-06
-0.00016382
2.7257e-06
-0.000162692
-3.44973e-06
-0.000160033
-9.30082e-06
-0.000155899
-1.47905e-05
-0.000150438
-1.97886e-05
-0.000143825
-2.41556e-05
-0.000136241
-2.78654e-05
-0.000127892
-3.08581e-05
-0.000118978
-3.30771e-05
-0.000109706
-3.45534e-05
-0.000100299
-3.53429e-05
-9.09038e-05
-3.55234e-05
-8.17014e-05
-3.51348e-05
-7.28122e-05
-3.42772e-05
-6.4374e-05
-3.29912e-05
-5.64247e-05
-3.14181e-05
-4.89574e-05
-2.9615e-05
-4.20197e-05
-2.77479e-05
-3.57039e-05
-2.57741e-05
-2.99045e-05
-2.39517e-05
-2.4578e-05
-2.22819e-05
-1.96501e-05
-2.07475e-05
-1.50194e-05
-1.94233e-05
-1.05618e-05
-1.83198e-05
-6.29197e-06
-1.73388e-05
-2.10652e-06
-1.65253e-05
1.93639e-06
-1.57021e-05
5.74031e-06
-1.47708e-05
9.17862e-06
-1.37242e-05
1.22359e-05
-1.27387e-05
1.49317e-05
-1.19586e-05
1.73991e-05
-1.15519e-05
1.97302e-05
-1.16409e-05
2.22061e-05
-1.22854e-05
2.49823e-05
-1.33463e-05
2.82472e-05
-1.49457e-05
3.2126e-05
-1.70483e-05
3.6713e-05
-1.95933e-05
4.21701e-05
-2.26419e-05
4.86262e-05
-2.59098e-05
5.60723e-05
-2.91669e-05
6.44751e-05
-3.22704e-05
7.37136e-05
-3.49512e-05
8.36239e-05
-3.70448e-05
9.3989e-05
-3.83437e-05
0.000104557
-3.86962e-05
0.00011505
-3.8079e-05
0.000125153
-3.64114e-05
0.000134511
-3.36283e-05
0.000142788
-2.96944e-05
0.000149686
-2.46777e-05
0.000154958
-1.87082e-05
0.000158415
-1.19615e-05
0.000159911
-4.61303e-06
0.000159334
3.0753e-06
0.000156662
1.08432e-05
0.000151992
1.84863e-05
0.000145398
2.5899e-05
0.000137109
3.31956e-05
0.000127062
4.06054e-05
0.00011494
4.84479e-05
0.00010046
5.68911e-05
8.34434e-05
6.52458e-05
6.45409e-05
7.16571e-05
4.51273e-05
7.31846e-05
2.58449e-05
7.18407e-05
9.58347e-05
-2.59467e-05
0.000116588
-4.57936e-05
8.96539e-05
-6.61795e-05
9.26584e-05
-8.64134e-05
9.15263e-05
-0.00010455
8.37992e-05
-0.000120077
7.37643e-05
-0.000132891
6.3302e-05
-0.000143336
5.3325e-05
-0.00015187
4.41541e-05
-0.000158691
3.55711e-05
-0.000163941
2.73342e-05
-0.000167559
1.91853e-05
-0.000169544
1.10608e-05
-0.000169817
2.99872e-06
-0.000168401
-4.86594e-06
-0.000165337
-1.23657e-05
-0.000160716
-1.94138e-05
-0.000154652
-2.58548e-05
-0.000147369
-3.1441e-05
-0.000139075
-3.61604e-05
-0.00013
-3.99359e-05
-0.000120375
-4.27036e-05
-0.000110422
-4.45085e-05
-0.00010036
-4.54066e-05
-9.04116e-05
-4.54722e-05
-8.06786e-05
-4.48681e-05
-7.13885e-05
-4.35678e-05
-6.25981e-05
-4.17828e-05
-5.44009e-05
-3.9617e-05
-4.67911e-05
-3.72263e-05
-3.99003e-05
-3.46399e-05
-3.36268e-05
-3.20481e-05
-2.80319e-05
-2.95463e-05
-2.30496e-05
-2.72635e-05
-1.84439e-05
-2.53523e-05
-1.40918e-05
-2.37746e-05
-9.88008e-06
-2.25307e-05
-5.64216e-06
-2.15759e-05
-1.43025e-06
-2.07365e-05
2.7509e-06
-1.98826e-05
6.71051e-06
-1.873e-05
1.02153e-05
-1.72288e-05
1.31798e-05
-1.57033e-05
1.55836e-05
-1.43625e-05
1.75758e-05
-1.35442e-05
1.93927e-05
-1.34579e-05
2.12297e-05
-1.41222e-05
2.342e-05
-1.55363e-05
2.61014e-05
-1.76266e-05
2.94886e-05
-2.04347e-05
3.37444e-05
-2.38482e-05
3.90229e-05
-2.79196e-05
4.5414e-05
-3.23003e-05
5.30268e-05
-3.67793e-05
6.17688e-05
-4.10123e-05
7.15179e-05
-4.47004e-05
8.21211e-05
-4.76483e-05
9.33386e-05
-4.95617e-05
0.000104925
-5.02835e-05
0.000116513
-4.96681e-05
0.000127729
-4.76278e-05
0.000138185
-4.40855e-05
0.0001475
-3.90109e-05
0.000155338
-3.25175e-05
0.000161406
-2.47766e-05
0.00016544
-1.59963e-05
0.000167284
-6.45677e-06
0.000166842
3.51847e-06
0.00016419
1.34955e-05
0.000159382
2.32935e-05
0.000152687
3.25946e-05
0.000144464
4.14193e-05
0.000134662
5.04084e-05
0.000122763
6.03495e-05
0.000108078
7.15785e-05
9.04607e-05
8.28649e-05
7.02202e-05
9.18996e-05
4.92662e-05
9.41436e-05
2.82735e-05
9.28316e-05
0.000124112
-2.8334e-05
0.000144921
-5.0138e-05
0.000111458
-7.23443e-05
0.000114864
-9.43711e-05
0.000113553
-0.000113766
0.000103194
-0.000129796
8.97939e-05
-0.000142424
7.59293e-05
-0.000152318
6.32177e-05
-0.000160302
5.21382e-05
-0.000166833
4.2102e-05
-0.000171914
3.24162e-05
-0.000175506
2.27776e-05
-0.000177416
1.29715e-05
-0.000177489
3.06952e-06
-0.000175727
-6.62806e-06
-0.000172151
-1.59435e-05
-0.000166851
-2.47154e-05
-0.000159968
-3.27375e-05
-0.00015176
-3.96486e-05
-0.000142474
-4.54475e-05
-0.000132391
-5.00196e-05
-0.000121766
-5.33284e-05
-0.000110864
-5.54107e-05
-9.99419e-05
-5.63295e-05
-8.9213e-05
-5.62018e-05
-7.88893e-05
-5.5193e-05
-6.90524e-05
-5.34059e-05
-5.97996e-05
-5.10365e-05
-5.13343e-05
-4.80824e-05
-4.35984e-05
-4.49621e-05
-3.66899e-05
-4.15484e-05
-3.05354e-05
-3.8203e-05
-2.51172e-05
-3.49653e-05
-2.03316e-05
-3.20504e-05
-1.60811e-05
-2.96041e-05
-1.21145e-05
-2.77425e-05
-8.21963e-06
-2.64268e-05
-4.30621e-06
-2.54906e-05
-2.0111e-07
-2.48428e-05
3.8878e-06
-2.39725e-05
7.79848e-06
-2.26414e-05
1.11133e-05
-2.05439e-05
1.36929e-05
-1.82828e-05
1.56149e-05
-1.62841e-05
1.6974e-05
-1.49028e-05
1.80553e-05
-1.45387e-05
1.91018e-05
-1.51683e-05
2.05207e-05
-1.6955e-05
2.24743e-05
-1.95799e-05
2.52548e-05
-2.32148e-05
2.91116e-05
-2.77044e-05
3.41442e-05
-3.29516e-05
4.05053e-05
-3.86609e-05
4.82874e-05
-4.45611e-05
5.74961e-05
-5.0221e-05
6.80161e-05
-5.52206e-05
7.9608e-05
-5.92405e-05
9.2064e-05
-6.2018e-05
0.000105031
-6.32504e-05
0.00011811
-6.27476e-05
0.000130863
-6.03805e-05
0.000142823
-5.60449e-05
0.000153571
-4.97595e-05
0.000162687
-4.16334e-05
0.000169788
-3.18765e-05
0.000174566
-2.07733e-05
0.000176833
-8.72227e-06
0.000176529
3.82207e-06
0.000173666
1.63573e-05
0.000168506
2.8453e-05
0.000161611
3.94901e-05
0.000153439
4.95937e-05
0.000144247
5.96028e-05
0.000132972
7.16257e-05
0.000118558
8.59939e-05
0.0001001
0.000101324
7.80311e-05
0.00011397
5.48734e-05
0.000117301
3.14005e-05
0.000116304
0.000155512
-3.10312e-05
0.000175952
-5.53226e-05
0.000135749
-8.0192e-05
0.000139733
-0.00010494
0.000138301
-0.000125999
0.000124253
-0.000142413
0.000106207
-0.000154448
8.79642e-05
-0.000163199
7.19681e-05
-0.000170282
5.92207e-05
-0.000176406
4.82265e-05
-0.000181446
3.74567e-05
-0.000185063
2.63936e-05
-0.000186905
1.48127e-05
-0.000186881
3.04218e-06
-0.000184779
-8.72814e-06
-0.000180588
-2.0134e-05
-0.000174458
-3.08436e-05
-0.000166573
-4.06213e-05
-0.000157159
-4.90618e-05
-0.000146566
-5.60392e-05
-0.000135168
-6.14166e-05
-0.000123281
-6.52138e-05
-0.000111222
-6.74691e-05
-9.92426e-05
-6.83088e-05
-8.76251e-05
-6.78195e-05
-7.64994e-05
-6.63186e-05
-6.60521e-05
-6.3853e-05
-5.6361e-05
-6.07275e-05
-4.74547e-05
-5.69885e-05
-3.95507e-05
-5.28664e-05
-3.25127e-05
-4.85874e-05
-2.64792e-05
-4.42376e-05
-2.14073e-05
-4.00385e-05
-1.7119e-05
-3.63398e-05
-1.33939e-05
-3.333e-05
-9.98228e-06
-3.11545e-05
-6.58584e-06
-2.98232e-05
-2.92779e-06
-2.91482e-05
1.13959e-06
-2.89093e-05
5.31345e-06
-2.81454e-05
9.34282e-06
-2.66699e-05
1.26275e-05
-2.3828e-05
1.4884e-05
-2.05393e-05
1.61184e-05
-1.75185e-05
1.65777e-05
-1.53621e-05
1.661e-05
-1.4571e-05
1.65978e-05
-1.51561e-05
1.69488e-05
-1.73058e-05
1.79604e-05
-2.05912e-05
1.99536e-05
-2.52077e-05
2.31779e-05
-3.09282e-05
2.78138e-05
-3.75871e-05
3.41257e-05
-4.49724e-05
4.21204e-05
-5.25556e-05
5.18763e-05
-5.9977e-05
6.33392e-05
-6.66835e-05
7.61837e-05
-7.20847e-05
9.01599e-05
-7.59935e-05
0.000104874
-7.79634e-05
0.000119871
-7.77427e-05
0.000134605
-7.5113e-05
0.000148533
-6.99711e-05
0.000161139
-6.23642e-05
0.000171893
-5.23867e-05
0.000180326
-4.0308e-05
0.000186041
-2.64862e-05
0.000188814
-1.14941e-05
0.000188576
4.06001e-06
0.000185301
1.96329e-05
0.000179386
3.43685e-05
0.000171744
4.71333e-05
0.000163744
5.75944e-05
0.000155613
6.77328e-05
0.000146125
8.11133e-05
0.000132498
9.96206e-05
0.000113105
0.000120716
8.83535e-05
0.000138722
6.19927e-05
0.000143659
3.52946e-05
0.000143006
0.000190806
-3.43246e-05
0.000210277
-6.16737e-05
0.000163097
-8.97954e-05
0.000167854
-0.000118556
0.000167061
-0.000142101
0.000147799
-0.000158962
0.000123068
-0.000169347
9.83487e-05
-0.000175864
7.84839e-05
-0.000181428
6.47834e-05
-0.000187143
5.39413e-05
-0.000192315
4.2627e-05
-0.000196284
3.03617e-05
-0.000198377
1.69075e-05
-0.000198298
2.96372e-06
-0.000195837
-1.11896e-05
-0.000190997
-2.49744e-05
-0.000183802
-3.80403e-05
-0.00017459
-4.98337e-05
-0.000163655
-5.99979e-05
-0.000151414
-6.82805e-05
-0.000138346
-7.4486e-05
-0.000124852
-7.8709e-05
-0.000111323
-8.09987e-05
-9.8083e-05
-8.155e-05
-8.53128e-05
-8.05902e-05
-7.3291e-05
-7.8341e-05
-6.21246e-05
-7.502e-05
-5.18425e-05
-7.10102e-05
-4.25036e-05
-6.6328e-05
-3.43074e-05
-6.10632e-05
-2.73036e-05
-5.55913e-05
-2.1531e-05
-5.00096e-05
-1.68997e-05
-4.46686e-05
-1.32586e-05
-3.99794e-05
-1.03159e-05
-3.62714e-05
-7.68834e-06
-3.3781e-05
-4.90006e-06
-3.26108e-05
-1.44639e-06
-3.26016e-05
2.61272e-06
-3.29685e-05
7.07133e-06
-3.26044e-05
1.14555e-05
-3.10547e-05
1.48241e-05
-2.71974e-05
1.67621e-05
-2.24779e-05
1.71336e-05
-1.78904e-05
1.63795e-05
-1.46083e-05
1.50045e-05
-1.31963e-05
1.36318e-05
-1.37836e-05
1.2555e-05
-1.62292e-05
1.23754e-05
-2.04118e-05
1.33617e-05
-2.61939e-05
1.57706e-05
-3.33369e-05
1.98785e-05
-4.16948e-05
2.59478e-05
-5.10415e-05
3.41232e-05
-6.07311e-05
4.4573e-05
-7.04269e-05
5.70802e-05
-7.91909e-05
7.15365e-05
-8.65406e-05
8.74391e-05
-9.1895e-05
0.000104354
-9.48771e-05
0.000121732
-9.51188e-05
0.000138982
-9.23619e-05
0.000155438
-8.64269e-05
0.000170425
-7.735e-05
0.000183274
-6.52343e-05
0.000193383
-5.04154e-05
0.000200339
-3.344e-05
0.000203834
-1.49885e-05
0.000203517
4.37653e-06
0.000199362
2.37878e-05
0.000192006
4.17252e-05
0.000183098
5.60419e-05
0.000174908
6.57833e-05
0.00016876
7.38814e-05
0.00016246
8.7414e-05
0.000150665
0.000111419
0.000130221
0.000141162
0.000101885
0.00016706
7.17779e-05
0.000173766
4.06969e-05
0.000174088
0.000231504
-3.92162e-05
0.000249493
-7.23669e-05
0.000196247
-0.000103576
0.000199063
-0.000136274
0.000199759
-0.000163253
0.000174779
-0.000179906
0.00013972
-0.000186671
0.000105113
-0.000189035
8.0847e-05
-0.000192736
6.84832e-05
-0.000198427
5.96336e-05
-0.000204299
4.84984e-05
-0.000208887
3.49502e-05
-0.000211453
1.94718e-05
-0.000211472
2.98154e-06
-0.000208731
-1.39326e-05
-0.000203208
-3.04996e-05
-0.000194807
-4.64438e-05
-0.000184023
-6.06193e-05
-0.000171215
-7.28089e-05
-0.000156942
-8.25554e-05
-0.000141787
-8.96411e-05
-0.000126301
-9.41953e-05
-0.000110941
-9.63597e-05
-9.61127e-05
-9.63779e-05
-8.20835e-05
-9.46198e-05
-6.90193e-05
-9.14057e-05
-5.69429e-05
-8.70971e-05
-4.59408e-05
-8.20128e-05
-3.61225e-05
-7.6146e-05
-2.75871e-05
-6.95975e-05
-2.05743e-05
-6.26028e-05
-1.51373e-05
-5.54454e-05
-1.11387e-05
-4.86666e-05
-8.44643e-06
-4.26716e-05
-6.5381e-06
-3.81797e-05
-4.92363e-06
-3.53954e-05
-3.08555e-06
-3.44487e-05
-5.11106e-07
-3.51755e-05
3.43515e-06
-3.69143e-05
9.17091e-06
-3.83398e-05
1.49664e-05
-3.68502e-05
1.86314e-05
-3.08627e-05
1.9675e-05
-2.35218e-05
1.87512e-05
-1.6967e-05
1.63465e-05
-1.22038e-05
1.31805e-05
-1.00306e-05
9.95948e-06
-1.0563e-05
7.26588e-06
-1.3536e-05
5.47462e-06
-1.86209e-05
4.96271e-06
-2.56822e-05
6.21688e-06
-3.45911e-05
9.65211e-06
-4.513e-05
1.54934e-05
-5.68829e-05
2.40622e-05
-6.93002e-05
3.51726e-05
-8.15378e-05
4.89614e-05
-9.29801e-05
6.52925e-05
-0.000102872
8.35611e-05
-0.000110163
0.000103189
-0.000114504
0.000123588
-0.000115517
0.00014398
-0.000112754
0.000163593
-0.000106039
0.000181563
-9.53197e-05
0.00019704
-8.07099e-05
0.000209302
-6.26762e-05
0.000217794
-4.19307e-05
0.000222071
-1.92663e-05
0.00022153
4.91824e-06
0.000216191
2.91282e-05
0.000206235
5.16834e-05
0.00019396
6.83177e-05
0.00018407
7.56743e-05
0.00018161
7.63438e-05
0.00018348
8.55471e-05
0.000176428
0.000118473
0.000155133
0.000162459
0.00012328
0.000198913
8.88533e-05
0.000208196
4.9407e-05
0.000213534
0.000280911
-4.4258e-05
0.00029375
-9.05697e-05
0.000242559
-0.000127359
0.000235853
-0.000163062
0.000235463
-0.000193802
0.000205518
-0.0002092
0.000155117
-0.000207214
0.000103128
-0.000198978
7.26129e-05
-0.000199539
6.90451e-05
-0.00020823
6.83256e-05
-0.000217122
5.73882e-05
-0.000223222
4.10504e-05
-0.00022647
2.27186e-05
-0.00022681
3.32183e-06
-0.000223895
-1.6847e-05
-0.000217365
-3.70296e-05
-0.000207491
-5.63175e-05
-0.00019464
-7.34696e-05
-0.000179457
-8.79925e-05
-0.00016261
-9.94031e-05
-0.00014488
-0.000107373
-0.000126968
-0.000112108
-0.000109499
-0.00011383
-9.28293e-05
-0.000113048
-7.73424e-05
-0.000110107
-6.31207e-05
-0.000105628
-5.0093e-05
-0.000100125
-3.82843e-05
-9.38215e-05
-2.77937e-05
-8.66369e-05
-1.89155e-05
-7.84766e-05
-1.18604e-05
-6.9659e-05
-6.68527e-06
-6.06217e-05
-3.42056e-06
-5.19322e-05
-1.76372e-06
-4.43288e-05
-1.422e-06
-3.85213e-05
-2.02618e-06
-3.47907e-05
-2.99614e-06
-3.34781e-05
-2.52775e-06
-3.56435e-05
1.91801e-06
-4.13599e-05
1.14283e-05
-4.78503e-05
2.14237e-05
-4.68461e-05
2.63448e-05
-3.57842e-05
2.5661e-05
-2.28383e-05
2.1496e-05
-1.28019e-05
1.61451e-05
-6.85286e-06
1.06888e-05
-4.57415e-06
5.29342e-06
-5.16755e-06
4.42591e-07
-8.68534e-06
-3.49021e-06
-1.46884e-05
-6.01669e-06
-2.31558e-05
-6.35988e-06
-3.42477e-05
-4.02125e-06
-4.74681e-05
1.37383e-06
-6.22776e-05
1.02409e-05
-7.81671e-05
2.2729e-05
-9.40258e-05
3.83255e-05
-0.000108576
5.66612e-05
-0.000121207
7.77122e-05
-0.000131213
0.000100659
-0.000137449
0.000124731
-0.000139588
0.000149065
-0.000137087
0.000172639
-0.000129613
0.000194408
-0.000117089
0.000213314
-9.96142e-05
0.000228401
-7.77631e-05
0.000238938
-5.24675e-05
0.000244433
-2.47615e-05
0.000244114
5.23779e-06
0.000236656
3.6588e-05
0.00021955
6.87892e-05
0.000195856
9.20108e-05
0.000178937
9.25933e-05
0.000186673
6.86087e-05
0.000210268
6.19522e-05
0.000218735
0.000110005
0.000198245
0.000182948
0.000161297
0.000235859
0.000118121
0.000251373
6.26798e-05
0.000268975
0.000343591
-4.4845e-05
0.000338593
-0.000110941
0.000308647
-0.00016374
0.000288652
-0.0002064
0.000278122
-0.000245666
0.000244783
-0.000260651
0.000170102
-0.000243641
8.61186e-05
-0.000214059
4.30319e-05
-0.000201299
5.62859e-05
-0.000212182
7.92076e-05
-0.000230017
7.52245e-05
-0.000242064
5.30974e-05
-0.00024749
2.81468e-05
-0.000248401
4.23562e-06
-0.000244826
-2.04211e-05
-0.0002364
-4.54552e-05
-0.000223564
-6.91524e-05
-0.000207261
-8.97733e-05
-0.000188532
-0.000106722
-0.000168345
-0.00011959
-0.000147327
-0.000128391
-0.000126446
-0.000132989
-0.000106294
-0.000133983
-8.75974e-05
-0.000131745
-7.06044e-05
-0.000127101
-5.51796e-05
-0.000121054
-4.11949e-05
-0.000114112
-2.85505e-05
-0.000106468
-1.72592e-05
-9.79303e-05
-7.58971e-06
-8.81477e-05
-3.66993e-08
-7.72132e-05
5.06313e-06
-6.57224e-05
7.46209e-06
-5.43316e-05
7.26451e-06
-4.41313e-05
4.25702e-06
-3.55137e-05
-1.21329e-06
-2.93202e-05
-6.99698e-06
-2.76943e-05
-8.30043e-06
-3.434e-05
-1.2677e-06
-4.83926e-05
1.41028e-05
-6.3221e-05
3.06644e-05
-6.34078e-05
3.94433e-05
-4.45632e-05
3.73911e-05
-2.07861e-05
2.81113e-05
-3.52173e-06
1.72611e-05
3.99777e-06
7.19846e-06
5.48885e-06
-1.40246e-06
3.43359e-06
-8.8348e-06
-1.25293e-06
-1.5044e-05
-8.47908e-06
-1.96662e-05
-1.85331e-05
-2.22099e-05
-3.17033e-05
-2.16068e-05
-4.80704e-05
-1.71031e-05
-6.67802e-05
-8.02926e-06
-8.72402e-05
5.61235e-06
-0.000107667
2.36128e-05
-0.000126576
4.51306e-05
-0.000142724
6.92055e-05
-0.000155287
9.61874e-05
-0.000164431
0.000124797
-0.000168198
0.000154188
-0.000166478
0.000183248
-0.000158674
0.000210608
-0.000144448
0.000234786
-0.000123793
0.000254241
-9.72185e-05
0.000267947
-6.61746e-05
0.000275503
-3.2318e-05
0.000275001
5.7402e-06
0.000261227
5.03611e-05
0.000229505
0.00010051
0.000189442
0.000132072
0.000170651
0.000111382
0.000191727
4.75264e-05
0.000239426
1.42511e-05
0.000276409
7.30226e-05
0.000266604
0.000192753
0.00022096
0.000281503
0.000156169
0.000316163
7.5992e-05
0.000349151
0.000419583
-3.28556e-05
0.000371448
-0.000113875
0.000389544
-0.000202285
0.000377058
-0.00026855
0.000344385
-0.000327516
0.00030375
-0.000353127
0.000195713
-0.000330978
6.39701e-05
-0.000284224
-3.72229e-06
-0.000243252
1.53141e-05
-0.000230822
6.67765e-05
-0.00024534
8.97437e-05
-0.000265092
7.28503e-05
-0.000277234
4.02883e-05
-0.000281046
8.04788e-06
-0.000277347
-2.41202e-05
-0.000266293
-5.65098e-05
-0.000248585
-8.68612e-05
-0.00022644
-0.000111919
-0.000202266
-0.000130895
-0.000177126
-0.000144731
-0.000151896
-0.000153621
-0.000126929
-0.000157958
-0.00010322
-0.000157693
-8.16866e-05
-0.000153279
-6.294e-05
-0.000145849
-4.67535e-05
-0.000137242
-3.24455e-05
-0.000128421
-1.88291e-05
-0.000120085
-5.97913e-06
-0.00011078
5.52806e-06
-9.96549e-05
1.44837e-05
-8.61688e-05
1.99123e-05
-7.11507e-05
2.12868e-05
-5.57058e-05
1.78294e-05
-4.06737e-05
9.4845e-06
-2.71686e-05
-1.70486e-06
-1.81307e-05
-9.63268e-06
-1.97663e-05
-8.40742e-06
-3.55651e-05
2.63164e-06
-5.94315e-05
2.00086e-05
-8.05978e-05
3.8525e-05
-8.19241e-05
5.13652e-05
-5.74031e-05
5.13221e-05
-2.07424e-05
3.91144e-05
8.68674e-06
2.10118e-05
2.21011e-05
3.87838e-06
2.2623e-05
-9.98948e-06
1.73019e-05
-2.09322e-05
9.69003e-06
-2.96993e-05
2.88195e-07
-3.68352e-05
-1.1397e-05
-4.15037e-05
-2.70343e-05
-4.29411e-05
-4.66324e-05
-3.94526e-05
-7.02681e-05
-3.0352e-05
-9.63407e-05
-1.53236e-05
-0.000122695
5.49488e-06
-0.000147395
3.1083e-05
-0.000168313
6.06378e-05
-0.000184843
9.2455e-05
-0.000196249
0.000126772
-0.000202516
0.000162952
-0.000202659
0.00019994
-0.000195662
0.000235676
-0.000180184
0.000267455
-0.000155573
0.000292675
-0.000122439
0.000309949
-8.34481e-05
0.000318382
-4.07497e-05
0.000315382
8.74016e-06
0.000297333
6.84098e-05
0.000269583
0.000128259
0.000252043
0.000149614
0.000259339
0.000104086
0.000283027
2.38294e-05
0.00031372
-1.64427e-05
0.000346019
4.07217e-05
0.000343478
0.0001953
0.000285419
0.000339564
0.000183344
0.000418238
7.52439e-05
0.000457249
0.000494828
1.26593e-05
0.000358788
-7.05178e-05
0.000472721
-0.00021325
0.000519731
-0.000329468
0.000460597
-0.000425019
0.000399301
-0.000486664
0.000257358
-0.000500387
7.76916e-05
-0.000471883
-3.2227e-05
-0.000407771
-4.87979e-05
-0.000335073
-5.92251e-06
-0.000290489
4.51569e-05
-0.000282457
6.48168e-05
-0.000294209
5.20385e-05
-0.000306301
2.01388e-05
-0.000309085
-2.13385e-05
-0.000301009
-6.45867e-05
-0.000281969
-0.000105901
-0.00025499
-0.000138897
-0.000224376
-0.00016151
-0.000193183
-0.000175923
-0.000162123
-0.000184681
-0.000131614
-0.000188467
-0.000102966
-0.000186341
-7.76257e-05
-0.00017862
-5.70666e-05
-0.000166408
-4.05461e-05
-0.000153762
-2.54005e-05
-0.000143566
-1.01823e-05
-0.000135303
5.19015e-06
-0.000126153
1.90428e-05
-0.000113508
3.00887e-05
-9.72152e-05
3.65725e-05
-7.76352e-05
3.68662e-05
-5.60001e-05
3.02261e-05
-3.40342e-05
1.85423e-05
-1.54853e-05
7.47341e-06
-7.06225e-06
4.27374e-06
-1.65669e-05
1.01762e-05
-4.14676e-05
1.93738e-05
-6.86291e-05
2.99922e-05
-9.1216e-05
4.15778e-05
-9.35093e-05
5.17839e-05
-6.76088e-05
5.46164e-05
-2.35742e-05
4.39176e-05
1.93863e-05
2.31637e-05
4.28559e-05
7.58567e-08
4.57116e-05
-1.97294e-05
3.71075e-05
-3.50494e-05
2.501e-05
-4.65455e-05
1.17842e-05
-5.51994e-05
-2.74306e-06
-6.1788e-05
-2.04455e-05
-6.4922e-05
-4.34982e-05
-6.2917e-05
-7.22732e-05
-5.42562e-05
-0.000105002
-3.74882e-05
-0.000139464
-1.26949e-05
-0.000172189
1.87987e-05
-0.000199807
5.45685e-05
-0.000220614
9.30971e-05
-0.000234779
0.000134626
-0.000244046
0.000178711
-0.000246744
0.000224302
-0.000241252
0.000267847
-0.000223729
0.000304671
-0.000192396
0.000331593
-0.000149361
0.000348023
-9.98755e-05
0.000355692
-4.84166e-05
0.000359722
4.71097e-06
0.000369715
5.84165e-05
0.000404981
9.29953e-05
0.00046695
8.76478e-05
0.000528905
4.21331e-05
0.000550683
2.05178e-06
0.000523631
1.05931e-05
0.00047648
8.78721e-05
0.000421831
0.000249963
0.000323888
0.000437509
0.000172265
0.000569862
4.72043e-05
0.000582311
0.000542031
7.31559e-05
0.000284611
2.37507e-05
0.000519069
-0.000165904
0.000709381
-0.000346604
0.000641291
-0.000496526
0.000549222
-0.000620466
0.000381298
-0.000704518
0.000161744
-0.000726775
-9.97046e-06
-0.000675108
-0.000100469
-0.000564835
-0.000116196
-0.000435809
-8.38708e-05
-0.000335651
-3.53419e-05
-0.000289237
5.6243e-06
-0.000287666
1.85678e-05
-0.000302142
-6.86103e-06
-0.00030917
-5.75582e-05
-0.000300565
-0.000114506
-0.000277086
-0.000162376
-0.000243977
-0.000194619
-0.000206097
-0.000213803
-0.000166892
-0.000223886
-0.000129448
-0.000225911
-9.56797e-05
-0.000220108
-6.73581e-05
-0.000206941
-4.48207e-05
-0.000188945
-2.60361e-05
-0.000172547
-6.56374e-06
-0.000163038
1.47164e-05
-0.000156583
3.45062e-05
-0.000145943
4.9727e-05
-0.000128729
5.91445e-05
-0.000106633
6.22063e-05
-8.06972e-05
5.94254e-05
-5.32196e-05
5.19339e-05
-2.65431e-05
4.29119e-05
-6.4637e-06
3.81171e-05
-2.26776e-06
3.99489e-05
-1.83989e-05
4.21958e-05
-4.37145e-05
4.07318e-05
-6.71649e-05
4.18213e-05
-9.23053e-05
4.19651e-05
-9.36528e-05
3.92049e-05
-6.48483e-05
3.64682e-05
-2.0837e-05
2.69679e-05
2.88871e-05
8.05838e-06
6.17659e-05
-1.49483e-05
6.87185e-05
-3.58177e-05
5.7977e-05
-5.22648e-05
4.14572e-05
-6.52085e-05
2.4728e-05
-7.60776e-05
8.12637e-06
-8.61e-05
-1.04227e-05
-9.37686e-05
-3.58291e-05
-9.67505e-05
-6.92908e-05
-9.02742e-05
-0.000111478
-7.20362e-05
-0.000157702
-4.26011e-05
-0.000201624
-5.05907e-06
-0.00023735
3.7756e-05
-0.000263429
8.46376e-05
-0.00028166
0.000134085
-0.000293493
0.000186333
-0.000298991
0.000237042
-0.000291959
0.000281017
-0.000267703
0.000313422
-0.000224801
0.000332818
-0.000168755
0.000343999
-0.000111056
0.000361658
-6.60751e-05
0.000410203
-4.38343e-05
0.000510101
-4.14815e-05
0.000653026
-4.99277e-05
0.000804066
-6.33922e-05
0.000906747
-6.05499e-05
0.000919178
-1.03785e-05
0.000832669
9.71042e-05
0.000677602
0.000242927
0.000510921
0.000416648
0.000331794
0.000616648
0.000131058
0.000770559
1.17924e-05
0.000701577
0.000553823
9.90515e-05
0.000185189
9.71082e-05
0.000520957
-8.96942e-05
0.000892665
-0.000306704
0.000858304
-0.000499469
0.00074199
-0.000671384
0.000553212
-0.000809551
0.000299897
-0.000875105
5.55828e-05
-0.000863129
-0.000112445
-0.000784378
-0.000194947
-0.000655884
-0.000212364
-0.000502613
-0.000188613
-0.000367674
-0.000129315
-0.000290722
-5.83851e-05
-0.000272557
-2.50268e-05
-0.000279937
-5.01778e-05
-0.000282903
-0.000111541
-0.000268467
-0.000176811
-0.000236575
-0.00022651
-0.000191638
-0.00025874
-0.000142393
-0.000273131
-9.64254e-05
-0.000271877
-5.86484e-05
-0.000257885
-2.94774e-05
-0.000236112
-6.49301e-06
-0.00021193
1.47095e-05
-0.000193749
4.00498e-05
-0.000188378
6.919e-05
-0.000185723
9.56739e-05
-0.000172427
0.000115378
-0.000148433
0.000124323
-0.000115578
0.000120589
-7.69644e-05
0.000109621
-4.22514e-05
9.87336e-05
-1.56564e-05
9.21325e-05
1.3687e-07
9.03101e-05
-4.45724e-07
8.72757e-05
-1.53647e-05
7.67208e-05
-3.31596e-05
6.54125e-05
-5.58565e-05
6.13305e-05
-8.82233e-05
5.08254e-05
-8.31477e-05
2.56715e-05
-3.96945e-05
5.39923e-07
4.29446e-06
-1.94548e-05
4.88818e-05
-4.02294e-05
8.25406e-05
-5.98473e-05
8.83368e-05
-7.51379e-05
7.32679e-05
-8.81429e-05
5.44628e-05
-0.000102947
3.95335e-05
-0.000120764
2.59442e-05
-0.000140735
9.5496e-06
-0.000160187
-1.63759e-05