/*--------------------------------*- C++ -*----------------------------------*\
| =========                 |                                                 |
| \\      /  F ield         | OpenFOAM: The Open Source CFD Toolbox           |
|  \\    /   O peration     | Version:  2412                                  |
|   \\  /    A nd           | Website:  www.openfoam.com                      |
|    \\/     M anipulation  |                                                 |
\*---------------------------------------------------------------------------*/
FoamFile
{
    version     2.0;
    format      ascii;
    arch        "LSB;label=32;scalar=64";
    class       volScalarField;
    location    "9.55";
    object      alpha.water;
}
// * * * * * * * * * * * * * * * * * * * * * * * * * * * * * * * * * * * * * //

dimensions      [0 0 0 0 0 0 0];

internalField   nonuniform List<scalar> 
6400
(
1
1
1
1
1
1
1
1
1
1
1
1
1
1
1
1
1
1
1
1
1
1
1
1
1
1
1
0.999999
0.999999
0.999999
1
0.999999
0.999999
0.999999
1
0.999999
0.999999
0.999999
0.999999
0.999999
1
1
1
1
1
0.999999
0.999999
0.999999
0.999999
0.999999
0.999999
1
1
1
1
1
1
1
1
1
1
1
1
1
1
1
1
1
1
1
1
1
1
0.999999
0.999999
1
1
1
1
1
0.999996
1
1
1
1
1
1
1
1
1
1
0.999999
1
1
1
1
1
1
1
1
1
1
1
1
0.999999
0.999999
0.999999
1
1
1
1
1
1
1
1
0.999999
0.999999
1
1
1
1
1
1
0.999999
0.999999
0.999999
0.999999
0.999999
0.999999
1
1
1
1
1
1
1
1
1
1
1
1
1
1
1
1
1
1
1
1
1
1
1
1
0.999999
1
1
0.999999
0.999999
1
0.999998
0.999999
1
1
1
1
1
1
1
1
1
1
1
0.999999
0.999999
1
0.999999
0.999998
0.999999
0.999999
0.999999
1
0.999999
0.999999
0.999999
1
1
1
1
1
1
1
1
1
1
1
1
1
1
1
1
1
1
1
1
0.999999
0.999999
0.999999
0.999999
0.999999
0.999998
0.999998
0.999998
0.999999
1
1
1
1
0.999999
0.999998
0.999998
0.999998
1
1
1
1
1
1
1
1
1
1
1
1
0.999999
1
0.999999
0.999998
1
0.999999
1
1
1
1
1
1
1
1
1
1
1
1
0.999999
1
0.999999
0.999999
0.999999
0.999999
1
1
1
1
1
1
1
1
1
1
1
1
1
1
1
1
1
1
1
1
1
1
1
1
1
0.999999
0.999999
0.999998
0.999999
1
1
1
1
1
1
1
1
1
1
1
1
1
1
1
1
1
1
1
1
1
1
1
1
1
0.999999
1
1
1
0.999999
1
1
1
1
1
1
1
1
1
1
1
1
1
1
1
0.999999
1
1
1
1
1
1
1
1
1
1
0.999999
0.999999
0.999999
1
1
1
1
1
1
1
1
0.999999
0.999999
1
1
1
1
1
1
1
1
1
1
1
1
1
1
1
1
1
1
1
1
1
1
1
1
1
1
1
1
1
1
1
1
1
1
1
1
1
1
1
1
1
1
1
1
0.999999
1
1
1
1
1
1
1
1
1
1
1
1
1
1
1
1
0.999999
0.999999
0.999999
0.999999
0.999999
1
1
1
1
1
1
1
1
1
1
1
1
1
1
1
1
1
1
1
1
1
1
1
1
1
1
1
1
1
1
1
1
1
1
1
1
1
0.999999
0.999998
0.999998
0.999999
0.999999
0.999999
0.999999
1
1
1
1
1
1
1
1
1
1
1
1
1
1
1
1
1
1
1
1
1
1
1
1
1
0.999999
0.999999
0.999998
0.999999
0.999998
0.999997
0.999997
0.999997
0.999997
0.999998
1
1
1
1
1
1
1
1
0.999999
1
1
1
1
1
1
1
1
1
1
1
1
1
1
1
1
1
1
1
1
1
1
0.999999
0.999999
0.999999
0.999999
0.999999
0.999999
0.999999
0.999999
0.999999
0.999999
0.999998
0.999997
0.999997
0.999997
0.999998
0.999998
0.999998
0.999999
0.999999
0.999999
1
1
1
1
1
0.999999
1
1
1
1
1
1
1
1
1
0.999999
0.999998
0.999998
0.999998
0.999999
1
0.999999
0.999999
0.999999
1
1
1
1
1
0.999999
0.999998
0.999999
1
1
1
1
1
1
1
1
1
1
1
1
1
1
1
1
1
1
1
1
1
1
1
1
1
1
1
1
1
1
1
0.999999
1
1
1
1
1
1
0.999999
0.999999
0.999999
1
1
1
1
1
1
1
1
1
1
1
1
1
1
1
1
1
1
1
1
1
0.999999
0.999998
0.999999
0.999999
0.999999
1
1
1
1
1
1
1
1
1
0.999999
0.999997
0.999997
0.999998
0.999998
0.999999
0.999999
1
1
1
1
1
1
1
1
1
1
1
1
1
1
1
1
1
1
1
1
1
1
1
1
1
1
1
1
1
1
1
1
1
1
1
1
1
1
1
1
1
1
1
1
1
1
0.999999
1
1
0.999999
1
1
1
1
1
1
1
1
1
0.999999
0.999999
0.999999
1
1
1
1
1
1
1
1
1
1
1
1
1
1
1
1
1
1
1
1
1
1
1
1
1
1
1
1
1
1
1
1
1
1
1
1
1
1
1
1
1
1
1
1
1
1
0.999999
0.999999
1
1
1
1
1
1
1
1
1
1
1
1
1
1
1
1
1
1
1
1
1
1
1
1
0.999998
0.999974
1
1
1
1
1
1
1
1
0.999999
0.999999
0.999999
0.999999
1
1
1
1
1
1
1
1
1
1
1
1
1
1
1
1
1
1
1
1
1
1
1
1
1
1
1
1
1
1
1
1
0.999999
0.999999
0.999999
0.999998
0.999998
0.999998
0.999999
1
1
1
1
1
1
1
1
1
1
1
1
1
1
1
1
1
1
0.999999
0.999982
0.999969
0.999981
0.999999
0.999999
1
1
1
0.99999
0.999863
0.999991
1
1
1
1
0.999999
0.999998
0.999999
1
1
1
1
1
1
1
1
1
1
1
1
1
1
0.999999
0.999999
0.999999
0.999999
1
1
1
1
1
1
1
1
1
1
1
1
1
1
1
1
1
1
1
1
1
1
1
1
1
1
1
1
1
1
1
1
1
1
1
1
1
0.999999
0.999999
1
1
1
1
0.999996
0.999964
0.999959
0.999959
0.999972
0.999999
1
0.999998
1
0.99999
0.999981
0.999945
0.999993
1
0.999999
0.999999
1
1
1
1
1
1
1
1
1
1
0.999999
0.999999
0.999998
0.999998
0.999998
0.999998
0.999998
0.999999
0.999999
1
1
1
1
1
1
1
1
1
1
1
1
1
1
1
1
1
1
1
1
1
1
1
1
1
1
1
1
1
1
1
1
1
1
1
1
1
0.999999
0.999999
0.999999
0.999999
0.999999
0.999999
0.999999
0.999999
0.999999
1
0.999999
0.999969
0.99996
0.999986
0.999999
0.999999
1
0.999292
0.999459
0.99996
0.999994
1
1
1
1
1
0.999999
0.999999
1
1
1
1
1
1
1
1
0.999999
0.999999
0.999999
1
1
1
1
1
1
1
1
1
1
1
1
1
1
1
1
1
1
1
1
1
1
1
1
1
1
1
1
1
1
1
1
1
1
1
1
1
1
1
1
1
1
0.999999
0.999999
0.999999
0.999999
0.999999
0.999999
0.999999
1
1
0.999999
1
0.999982
0.999985
0.999978
0.999999
0.999999
0.995285
0.994325
0.999336
0.999999
0.999999
0.999995
0.999997
1
1
1
1
1
1
1
1
1
1
1
1
1
1
1
1
1
1
1
1
1
1
1
1
1
1
1
1
1
1
1
1
1
1
1
1
1
1
1
1
1
0.999999
0.999999
1
1
1
1
1
1
1
1
1
1
1
1
1
1
1
0.999999
0.999999
0.999999
1
1
1
1
1
1
1
1
1
0.999865
0.997728
0.997392
0.996613
0.994318
0.994866
0.999632
0.999999
0.999989
0.999992
1
1
1
1
1
1
1
1
1
1
1
1
1
1
1
0.999999
0.999999
0.999999
0.999999
1
1
1
1
1
1
1
1
1
1
1
1
1
1
1
1
1
1
1
1
1
1
1
1
1
1
1
1
1
1
1
1
1
1
1
1
1
1
1
1
1
1
1
1
1
1
0.999999
1
0.999999
1
1
0.999058
0.994019
0.994014
0.999466
0.994509
0.994267
0.998179
0.999996
0.999989
0.999989
0.999999
1
1
1
1
1
1
1
1
1
1
1
1
1
0.999999
0.999999
0.999999
0.999999
0.999999
1
1
1
1
1
1
1
1
1
1
1
1
1
1
1
1
1
1
1
1
1
1
1
1
1
1
1
1
1
1
1
1
1
1
1
1
1
1
1
1
1
1
1
0.999999
0.999999
0.999999
1
1
1
1
0.999698
0.99494
0.994014
0.994399
0.999466
0.998434
0.994295
0.998378
0.99999
0.999989
0.999991
0.999999
1
1
1
1
1
1
1
1
1
1
1
1
1
1
1
1
1
1
1
1
0.999999
0.999998
0.999998
0.999999
0.999999
1
1
1
1
1
1
1
1
1
1
1
0.999999
0.999999
0.999998
0.999998
0.999998
0.999998
0.999999
0.999999
1
1
1
1
1
1
1
1
1
1
1
1
1
1
1
1
1
1
1
0.999997
1
1
1
0.999996
0.999423
0.99568
0.996072
0.997928
0.999415
0.998991
0.999364
0.999671
0.999965
0.999987
0.999988
0.999994
0.999997
0.999997
1
1
1
1
1
1
1
1
1
1
1
1
1
1
1
0.999972
0.999994
0.999977
0.999951
0.999931
0.999929
0.999942
0.999959
0.999973
0.999982
0.999987
0.99999
0.99999
0.999989
0.999987
0.999986
0.999986
0.999984
0.999978
0.999966
0.999948
0.999928
0.999913
0.999907
0.999911
0.999924
0.999941
0.999963
0.999986
0.999957
1
1
1
1
1
1
1
1
1
1
1
1
1
1
1
0.999999
0.999995
0.999993
0.999994
0.999995
0.99998
0.999578
0.999262
0.998808
0.998234
0.981955
0.983872
0.989194
0.991203
0.991911
0.992396
0.992743
0.994406
0.997845
0.999904
1
1
1
0.999515
0.982837
0.956663
0.92052
0.875996
0.826186
0.775715
0.729178
0.690524
0.661315
0.638148
0.615137
0.60278
0.616321
0.639983
0.671504
0.710927
0.752734
0.792771
0.829673
0.861985
0.887627
0.905289
0.915464
0.919864
0.920926
0.921526
0.926555
0.934005
0.937661
0.934433
0.922015
0.902096
0.875874
0.8446
0.810108
0.772874
0.734103
0.696863
0.659473
0.635397
0.623291
0.61375
0.609007
0.61188
0.626333
0.656319
0.697769
0.744874
0.793216
0.841265
0.884971
0.920491
0.948304
0.971585
0.990906
1
0.999994
0.997567
0.993872
0.995208
0.997022
0.998171
0.998358
0.997531
0.99534
0.994297
0.396282
0.405565
0.429514
0.437846
0.442822
0.448768
0.462024
0.485415
0.508441
0.526921
0.539528
0.539255
0.518922
0.470767
0.410114
0.335642
0.258869
0.188753
0.131501
0.0882896
0.0571791
0.0347206
0.0184664
0.0103655
0.00803791
0.00821327
0.00765826
0.0107308
0.0207328
0.0371256
0.0586835
0.0826789
0.106397
0.129105
0.150886
0.171133
0.189525
0.205434
0.218312
0.226013
0.226923
0.221749
0.214503
0.201627
0.181022
0.153991
0.123597
0.0933123
0.0649036
0.0392797
0.0174464
0.00177491
1.96045e-06
2.22019e-06
5.04885e-06
0.00137407
0.0085842
0.0180763
0.0281511
0.0408977
0.0591258
0.0864466
0.125843
0.179884
0.246141
0.316441
0.385304
0.446485
0.491955
0.512012
0.503747
0.478324
0.468934
0.48014
0.50555
0.531463
0.541834
0.530117
0.50632
0.502767
3.61811e-05
3.61811e-05
3.61811e-05
3.61819e-05
3.61922e-05
3.6308e-05
3.74714e-05
4.26081e-05
0.00494117
0.0107049
0.0107862
0.00978237
0.00720841
0.0034599
0.000859182
0.000618991
0.00057944
0.000449347
0.000295468
0.000196581
0.000152452
0.000135457
0.000118487
8.84736e-05
1.78747e-05
3.1722e-06
2.06874e-07
1.37869e-07
8.64122e-08
5.93095e-08
4.85321e-08
4.24014e-08
3.6295e-08
3.18529e-08
2.69159e-08
1.92256e-08
1.17493e-08
4.29837e-09
2.83376e-31
-2.46816e-09
-6.13654e-08
-1.42566e-07
-2.07118e-07
-2.96577e-07
-5.58693e-07
-1.01239e-06
-1.17642e-06
-1.05701e-06
-5.77962e-07
0
1.71391e-07
6.24211e-07
1.29279e-06
5.56363e-06
3.5832e-05
2.40807e-05
2.30124e-05
2.99284e-05
7.23615e-05
0.000146873
0.000290566
0.000468267
0.000636001
0.000667922
0.000592149
0.000525634
0.00046426
0.000293479
0.00170051
0.00179565
0.00083204
4.3185e-06
4.3185e-06
4.3185e-06
4.3426e-06
4.52779e-06
5.00199e-06
6.19346e-06
1.0977e-05
1.97692e-05
3.61811e-05
3.61804e-05
3.61815e-05
3.61918e-05
3.63102e-05
3.73864e-05
4.00694e-05
4.20974e-05
3.63672e-05
3.79102e-05
2.79468e-05
2.53054e-05
2.18459e-05
2.08678e-05
1.98362e-05
1.51747e-05
1.61479e-05
1.47338e-05
1.42683e-05
2.07998e-05
2.92173e-05
3.80367e-05
3.70078e-05
1.92453e-05
1.82803e-06
4.70681e-07
8.619e-07
1.85906e-06
1.71701e-06
9.05173e-07
6.41689e-08
3.00187e-07
3.29438e-07
5.13912e-08
1.25187e-07
4.18484e-07
5.00323e-07
4.29438e-07
4.03359e-07
4.70694e-07
2.9741e-07
1.35347e-07
2.39012e-07
4.72301e-07
-1.43157e-22
0
-3.23117e-25
0
-5.75616e-10
6.85372e-06
1.85837e-05
1.70689e-05
6.62835e-06
5.31968e-06
6.99161e-06
8.56278e-06
1.05373e-05
1.47992e-05
2.26492e-05
2.04969e-05
2.3547e-05
3.982e-05
5.13778e-05
5.39754e-05
5.44045e-05
5.68585e-05
4.58302e-05
3.59842e-05
2.87057e-05
2.15272e-05
4.48392e-06
4.3298e-06
4.3133e-06
4.3298e-06
6.07509e-06
5.15353e-06
6.04991e-06
8.89609e-06
1.82217e-05
2.35643e-05
4.9887e-05
3.61815e-05
3.6203e-05
5.56454e-05
0.000196774
0.000149832
4.61172e-05
4.24201e-05
3.50848e-05
2.87186e-05
2.88455e-05
2.29009e-05
1.53382e-05
1.3595e-05
1.00816e-05
3.05629e-06
8.1654e-07
1.08366e-06
3.33554e-06
1.08335e-05
1.89884e-05
2.92173e-05
3.8037e-05
3.85529e-05
2.86656e-06
3.43582e-07
5.99382e-07
1.85518e-06
1.44482e-06
4.47454e-07
1.14424e-07
2.38743e-06
1.21271e-05
1.34312e-05
5.07041e-06
7.90705e-07
4.95759e-07
8.40525e-07
6.6119e-07
1.34822e-06
9.4409e-06
3.2927e-05
5.50521e-05
5.63265e-05
2.24765e-05
1.94725e-06
2.66547e-08
1.34261e-07
1.48133e-07
8.52846e-06
1.91371e-05
1.92278e-05
1.92278e-05
1.92194e-05
1.53056e-05
1.01716e-05
1.02501e-05
1.26759e-05
2.66862e-05
1.1952e-05
7.58632e-06
1.03308e-05
1.43927e-05
1.62951e-05
1.76472e-05
1.93773e-05
2.09485e-05
2.02409e-05
1.98685e-05
3.38479e-05
2.33404e-05
6.80131e-06
4.3298e-06
9.5607e-06
1.56976e-05
9.37612e-06
2.97694e-05
0.000147569
0.00016193
6.70541e-05
5.1392e-05
3.66688e-05
3.71682e-05
9.46852e-05
0.000216458
0.000216571
0.000216155
0.000212714
8.67896e-05
2.71349e-05
2.63502e-05
2.14648e-05
1.3595e-05
1.28308e-05
1.21015e-05
1.61641e-06
8.1654e-07
8.1654e-07
2.76933e-06
1.172e-05
2.03096e-05
3.77617e-05
5.34444e-05
3.26275e-05
3.43582e-07
3.43582e-07
3.43569e-07
4.34554e-07
8.29633e-07
7.0862e-07
2.73908e-05
0.000136819
0.000146502
0.000142927
3.23247e-05
8.98476e-07
7.88346e-07
4.75143e-06
2.45331e-06
1.28389e-05
6.75621e-05
8.01104e-05
8.01132e-05
8.01063e-05
8.00806e-05
5.33914e-05
1.53941e-07
2.30452e-07
5.45733e-07
6.06174e-07
1.00727e-06
9.89768e-06
1.91893e-05
1.91943e-05
1.92184e-05
1.86886e-05
1.90863e-05
1.90668e-05
1.86034e-05
8.83764e-06
6.43183e-06
9.88106e-06
1.26776e-05
1.45082e-05
1.63288e-05
1.76472e-05
2.00074e-05
1.98985e-05
1.98685e-05
2.43048e-05
2.74193e-05
2.74193e-05
8.61783e-06
3.98464e-06
5.72825e-06
1.31177e-05
3.39127e-05
0.000173239
0.000174486
0.000165738
5.17093e-05
3.67326e-05
3.67209e-05
8.81963e-05
0.000216571
0.000216571
0.000216571
0.0002153
0.000199387
6.50267e-05
2.0969e-05
2.76459e-05
3.63897e-05
4.20317e-05
4.29613e-05
2.84984e-05
8.1654e-07
4.10839e-06
5.22258e-05
5.77617e-05
5.69164e-05
5.59159e-05
5.50727e-05
4.53026e-07
4.03544e-07
3.43576e-07
4.12452e-07
7.39777e-07
6.0672e-06
0.000107024
0.000147786
0.000147702
0.000147702
0.000146502
0.000119299
6.96099e-06
1.66924e-06
3.36003e-06
5.52069e-06
2.97537e-05
7.71155e-05
8.01125e-05
8.01054e-05
8.00772e-05
8.10856e-05
8.29217e-05
5.39754e-05
4.09856e-07
6.06172e-07
7.60158e-07
1.27951e-06
1.99513e-06
2.7293e-06
2.87586e-06
5.38738e-06
1.02202e-05
1.01266e-05
5.26172e-06
2.1703e-06
1.84701e-06
5.43786e-06
6.13654e-05
7.73562e-05
6.07457e-05
5.23002e-05
7.41786e-05
7.91114e-05
7.94636e-05
7.95583e-05
5.22538e-05
6.08528e-06
4.30748e-06
3.98444e-06
3.90616e-06
3.85153e-06
3.84552e-06
3.85153e-06
8.13089e-06
0.000160816
0.000164939
5.18588e-05
3.64067e-05
3.5633e-05
4.09856e-05
0.000181629
0.000216571
0.000215623
8.01183e-05
5.72576e-07
5.72901e-07
7.35508e-07
1.42168e-06
3.00355e-06
2.67534e-05
4.29613e-05
4.29613e-05
1.29788e-05
3.10655e-07
2.42126e-05
5.76541e-05
5.77686e-05
4.38168e-05
7.89536e-06
4.98333e-07
4.53185e-07
4.14139e-07
8.86281e-07
3.68028e-06
7.99952e-05
0.000152974
0.00014988
0.000147786
9.07965e-05
1.23605e-05
9.90478e-06
7.63845e-06
5.90736e-06
7.16745e-06
1.05986e-05
8.2626e-06
2.58264e-06
3.28721e-06
3.61896e-05
7.67182e-05
8.29217e-05
8.51127e-05
8.97012e-05
7.07995e-05
1.09182e-05
1.15197e-05
1.53618e-05
3.00479e-05
2.01142e-05
3.59754e-06
3.22815e-07
2.44811e-07
6.94228e-08
8.85973e-08
1.97793e-07
9.89602e-07
4.9312e-05
8.13801e-05
8.04899e-05
7.87272e-05
7.84603e-05
7.91114e-05
7.94704e-05
7.96612e-05
7.96147e-05
7.96153e-05
1.65431e-05
4.54178e-06
4.12854e-06
3.98462e-06
3.90615e-06
4.12693e-06
3.84552e-06
3.91204e-06
6.04827e-06
0.000113795
5.17813e-05
3.59571e-05
3.5592e-05
3.56573e-05
4.3238e-05
0.000144141
0.000131136
3.17392e-07
4.47227e-07
5.72576e-07
5.85623e-06
2.58117e-05
2.67006e-05
1.92e-05
3.75006e-05
4.16337e-05
2.26257e-05
8.62738e-08
2.7096e-06
1.50467e-05
1.63572e-05
2.07999e-06
4.58028e-07
6.30872e-07
4.96823e-07
7.7365e-07
2.3134e-06
3.8416e-05
0.000166071
0.000158814
0.000153101
9.25516e-05
3.27879e-05
1.7745e-05
9.70513e-05
0.000113031
2.11302e-05
1.1476e-05
7.73912e-06
2.28266e-06
1.62641e-06
1.4002e-06
9.4232e-07
5.9306e-07
1.93539e-06
5.35193e-05
9.43606e-05
9.66567e-05
9.66657e-05
9.81688e-05
9.87003e-05
0.00010265
0.00010265
8.42729e-05
3.42479e-05
3.05431e-06
6.94228e-08
6.91392e-08
8.85973e-08
1.75727e-05
8.2494e-05
8.2494e-05
3.41147e-05
1.2591e-05
1.50717e-05
3.53042e-05
4.94187e-05
2.63038e-05
1.49604e-05
1.05082e-05
1.01878e-05
2.04923e-05
5.75886e-06
2.0375e-05
7.35724e-05
3.68227e-05
3.98107e-06
3.99222e-06
4.53062e-06
4.16755e-05
4.62413e-05
3.55906e-05
3.55393e-05
3.55585e-05
3.56448e-05
3.60947e-05
2.58776e-05
3.12908e-07
3.17392e-07
5.81687e-07
4.63895e-05
0.000100537
0.000101546
4.13262e-05
2.06945e-05
4.02813e-05
2.43233e-05
7.12041e-08
3.14452e-08
6.71797e-08
1.29407e-07
1.61064e-07
2.77806e-07
4.58314e-07
6.40954e-07
1.32742e-06
7.65068e-06
0.000108932
0.000169368
0.000165763
0.000148069
5.70356e-05
4.57633e-05
0.000117082
0.000134657
0.000134164
0.000132628
0.000128996
7.41581e-05
6.31792e-06
3.90436e-06
9.4232e-07
5.9306e-07
4.63267e-07
2.21881e-07
5.80614e-08
8.38327e-07
5.04548e-05
9.60185e-05
0.000100192
0.000102044
0.000103101
0.000102044
0.000100983
0.000100959
7.92331e-05
4.34268e-07
8.85973e-08
5.56003e-07
5.16758e-05
8.30155e-05
2.78198e-05
2.30838e-07
2.30705e-07
2.30875e-07
2.38956e-07
3.19312e-07
9.46925e-06
2.594e-05
2.60256e-05
2.02697e-05
1.97059e-05
2.16242e-05
0.000220167
0.000277038
0.000266249
3.6644e-05
4.48034e-06
5.09937e-06
3.41805e-05
3.56067e-05
3.55393e-05
3.55275e-05
3.55107e-05
3.4843e-05
3.3853e-05
2.97591e-05
3.14157e-07
3.13987e-07
4.31993e-06
8.48233e-05
0.000101546
0.000101807
0.000102521
2.09824e-05
3.25911e-05
2.62194e-05
3.35383e-06
8.34867e-09
1.69057e-08
3.7821e-08
8.07975e-08
1.61082e-07
2.7903e-07
6.37779e-07
2.14621e-06
3.99227e-05
0.000172906
0.000171568
0.000169224
0.00013916
4.51369e-05
0.000105741
0.000134657
0.000134657
0.000134657
0.000134164
0.000132379
0.000129884
0.000132812
4.67673e-05
7.50147e-06
8.12528e-07
2.21881e-07
5.79744e-08
2.96521e-08
4.96351e-09
4.34512e-09
4.33324e-09
1.73925e-05
6.20223e-05
7.77373e-05
8.41252e-05
9.65095e-05
0.000100447
9.83002e-05
8.00352e-05
1.38205e-07
3.60872e-06
7.34887e-05
8.2494e-05
1.43858e-05
2.3073e-07
2.30875e-07
2.36488e-07
2.37482e-06
9.76034e-06
2.30747e-05
2.60261e-05
1.44953e-05
7.41398e-06
8.03399e-06
0.000121525
0.000278157
0.000278002
0.000278651
0.000232606
1.93597e-05
5.86202e-06
7.97427e-06
3.55505e-05
3.55275e-05
3.55247e-05
3.55243e-05
3.55754e-05
6.27439e-05
3.48329e-05
3.15442e-07
4.31682e-07
8.36166e-06
8.00133e-05
6.82668e-05
0.000102564
0.000103059
7.64605e-05
3.46857e-05
1.49319e-05
8.34863e-09
6.02036e-09
8.34858e-09
1.68931e-08
3.77027e-08
8.05762e-08
2.20635e-07
7.72829e-07
3.63672e-06
8.55334e-05
0.000176778
0.000173971
0.000172049
0.000134271
2.54261e-05
0.000127983
0.000134062
0.000134657
0.000134164
0.000127461
9.29271e-05
9.87861e-05
0.000120241
0.000105013
9.97904e-05
1.63446e-05
2.96784e-06
1.08e-07
4.77459e-09
4.34463e-09
3.73911e-09
3.56615e-09
2.96972e-09
1.88133e-09
1.5582e-09
6.23615e-09
9.57957e-08
5.11377e-05
9.67844e-05
9.15349e-05
6.53567e-06
6.23849e-06
7.57095e-05
8.04385e-05
5.51029e-05
2.37692e-07
2.36488e-07
2.43306e-07
7.71518e-06
2.32531e-05
2.32531e-05
1.71304e-05
6.50184e-06
6.26652e-06
7.41398e-06
0.000223287
0.000279591
0.000278541
0.000278074
0.000278074
8.58614e-05
7.97427e-06
9.49227e-06
3.55297e-05
3.55247e-05
3.55243e-05
3.55247e-05
4.82897e-05
6.27055e-05
1.61055e-05
5.1632e-07
3.92106e-07
8.40218e-06
3.79206e-05
3.60257e-06
3.85585e-05
0.000103059
0.000103059
2.97518e-05
1.98368e-05
6.02029e-09
5.46439e-09
6.02027e-09
8.69526e-09
1.89777e-08
5.73647e-08
2.16091e-07
8.9525e-07
9.4101e-06
0.000126281
0.00017791
0.00017666
0.000174184
0.00012182
1.48489e-05
6.53199e-05
0.000134158
0.000133947
0.000101211
1.22461e-05
1.01001e-05
1.03618e-05
4.65736e-05
8.14334e-05
8.93552e-05
8.01913e-05
5.35339e-05
6.27416e-07
3.78067e-09
3.51803e-09
3.55431e-09
9.11681e-09
3.49874e-09
1.69886e-09
1.29935e-09
1.55821e-09
6.23615e-09
9.57954e-08
2.2884e-05
8.77134e-05
5.79329e-05
4.44646e-06
4.85709e-05
7.79227e-05
6.53033e-05
3.24367e-06
2.43306e-07
2.30819e-07
2.20209e-06
7.10355e-06
2.062e-05
7.3339e-06
3.76142e-06
5.15675e-06
6.17617e-05
0.000280022
0.000281473
0.000279124
0.000278074
0.000276987
6.79048e-05
1.17534e-05
6.63624e-05
3.55298e-05
3.55295e-05
3.55247e-05
6.13643e-05
7.81653e-05
4.78511e-05
6.04043e-07
3.60177e-07
3.63132e-07
2.98123e-06
7.54537e-06
3.6026e-06
3.76425e-06
0.000102683
0.000101338
3.11408e-05
2.8626e-05
3.58665e-06
5.22479e-09
5.46439e-09
6.8391e-09
1.3876e-08
4.62751e-08
1.94265e-07
8.72582e-07
1.50792e-05
0.00015369
0.000178821
0.000177818
0.000176962
9.79969e-05
1.13985e-05
1.14084e-05
3.11831e-05
2.24113e-05
1.00051e-05
1.00059e-05
1.00255e-05
1.01001e-05
1.03538e-05
1.12703e-05
2.18396e-05
6.29717e-05
7.4541e-05
6.61136e-05
1.38147e-08
2.4182e-09
2.01448e-09
9.03205e-09
9.4272e-09
3.70198e-09
1.15884e-09
1.29935e-09
2.44485e-09
1.90638e-08
2.15578e-07
1.79678e-05
3.9821e-05
4.07908e-06
6.55394e-06
3.32682e-06
1.08762e-05
1.71903e-05
3.52903e-07
2.01833e-07
1.95239e-07
1.99284e-07
1.9916e-07
2.01791e-07
2.95256e-06
1.05236e-05
0.000271581
0.000282415
0.000281904
0.000279898
9.31465e-05
0.000110967
2.60888e-05
1.41597e-05
0.000117747
3.61727e-05
7.06706e-05
8.05136e-05
8.5397e-05
8.02631e-05
2.58621e-06
3.60177e-07
3.60177e-07
3.63548e-07
4.59583e-06
8.26793e-06
3.60244e-06
3.6052e-06
4.20009e-05
9.76775e-05
4.50889e-05
2.54637e-05
7.3695e-06
4.899e-09
5.10948e-09
5.97863e-09
1.04441e-08
3.38424e-08
1.51381e-07
7.06925e-07
1.96705e-05
0.000177597
0.000178778
0.00017844
0.000176961
7.25112e-05
1.05538e-05
1.03559e-05
1.01253e-05
1.00059e-05
1.00059e-05
1.00055e-05
1.00277e-05
1.01559e-05
1.08142e-05
1.32102e-05
1.58681e-05
1.60145e-05
7.70552e-05
9.20619e-05
2.36674e-05
1.52043e-09
1.25437e-09
1.10723e-09
2.73551e-09
9.21007e-10
9.70716e-10
1.10109e-09
3.05467e-09
3.82964e-07
7.09331e-06
9.65566e-06
4.6175e-06
3.98401e-06
2.94552e-06
2.94552e-06
3.32682e-06
4.32547e-06
4.82201e-07
2.48917e-07
2.01833e-07
1.95324e-07
2.0124e-07
2.07244e-07
2.79788e-05
0.000246977
0.000282415
0.000282495
0.000282415
6.16079e-05
1.59437e-05
1.75407e-05
1.57077e-05
1.46497e-05
0.000115709
8.79954e-05
8.90051e-05
8.83737e-05
8.69576e-05
2.15541e-05
3.66126e-07
3.63152e-07
3.60177e-07
9.33793e-07
1.48022e-05
1.45928e-05
3.6052e-06
3.81416e-06
3.61933e-05
9.44362e-05
5.85169e-05
1.26886e-05
1.24027e-05
4.75088e-09
4.70065e-09
5.2138e-09
8.33851e-09
2.52421e-08
9.49606e-08
4.51923e-07
1.5273e-05
0.000165089
0.000178911
0.000178735
0.000177942
9.13456e-05
1.03559e-05
1.01307e-05
1.00117e-05
1.00062e-05
1.00045e-05
1.001e-05
1.0145e-05
1.06936e-05
1.70323e-05
2.01992e-05
1.60162e-05
1.60162e-05
1.91242e-05
9.20619e-05
8.96462e-05
3.75497e-09
1.11603e-09
9.34631e-10
9.21006e-10
9.14579e-10
9.11479e-10
9.59779e-10
1.62002e-09
3.17956e-08
1.81551e-05
9.27035e-05
7.00717e-05
3.61082e-06
2.94552e-06
5.08148e-06
2.14148e-05
6.17348e-05
4.37154e-05
5.66824e-06
3.28525e-07
2.17146e-07
2.07244e-07
2.07795e-07
5.4052e-05
0.000281581
0.000282495
0.000282495
0.000276031
1.5768e-05
1.56372e-05
1.59438e-05
1.70538e-05
1.9131e-05
0.000144338
8.83535e-05
8.87407e-05
8.83956e-05
7.89519e-05
5.77668e-07
4.71897e-07
3.66126e-07
9.21171e-06
6.10018e-06
1.45938e-05
8.13083e-06
3.81416e-06
4.34539e-06
1.95311e-05
7.57481e-05
3.14298e-05
6.20118e-06
1.11382e-05
4.69294e-09
4.46411e-09
4.70065e-09
7.76686e-09
1.67774e-08
5.04569e-08
2.23627e-07
7.48952e-06
0.000115178
0.000179005
0.00017897
0.000178652
0.000175467
2.23825e-05
1.00247e-05
1.00095e-05
1.00097e-05
1.00062e-05
1.01709e-05
1.0834e-05
2.75444e-05
0.000140697
0.000147519
2.17255e-05
1.57838e-05
1.59503e-05
9.20619e-05
9.16904e-05
2.5104e-06
1.88336e-09
9.95808e-10
9.14007e-10
9.0984e-10
9.04207e-10
9.24826e-10
2.51127e-09
4.77762e-09
3.86346e-06
9.49886e-05
0.000109331
9.79512e-05
4.40164e-05
9.62314e-05
0.000130519
0.000129955
0.000130138
7.94319e-05
5.5045e-06
3.79007e-07
2.40996e-07
2.42366e-07
3.60774e-07
0.000254065
0.000281599
0.000282495
0.000214015
1.56342e-05
1.55913e-05
1.56372e-05
1.60536e-05
3.49384e-05
0.000272645
8.8435e-05
8.84717e-05
8.84574e-05
1.59641e-05
1.29967e-06
2.84995e-06
3.1739e-05
3.1764e-05
1.0142e-05
1.56722e-05
5.28092e-05
3.71078e-05
4.48471e-06
3.69561e-06
5.05871e-06
2.95298e-06
3.31493e-06
5.50991e-06
4.46411e-09
4.40503e-09
4.46411e-09
4.87228e-09
7.13082e-09
1.8455e-08
1.74991e-07
2.35594e-06
5.13999e-05
0.00017897
0.000179021
0.00017897
0.000178639
0.000167358
7.13557e-05
3.37667e-05
3.02834e-05
5.51516e-05
0.000102234
0.000108793
0.000166747
0.000174086
0.000174026
0.000137459
1.66317e-05
1.55513e-05
9.13265e-05
8.86752e-05
7.70611e-06
6.03442e-09
3.31283e-09
1.40332e-09
9.35958e-10
9.03596e-10
9.02087e-10
1.83083e-09
2.07602e-08
2.14306e-08
4.48255e-06
0.000101313
0.000130529
0.000130589
0.000130589
0.000130589
0.000130519
0.000129668
0.000128138
4.40231e-05
6.94937e-07
4.37166e-07
1.45556e-06
5.31324e-07
0.000145658
0.000280704
0.000278136
0.000238102
1.55936e-05
1.55936e-05
1.55916e-05
1.57289e-05
2.57069e-05
0.000273061
8.84522e-05
8.85046e-05
8.85528e-05
2.90389e-06
2.02164e-06
1.68813e-05
3.26813e-05
3.25458e-05
1.17903e-05
4.04249e-05
9.89385e-05
9.90066e-05
1.25547e-05
2.2869e-06
2.37895e-06
2.4392e-06
2.60302e-06
2.59787e-06
2.30386e-06
4.42078e-09
4.42078e-09
4.48121e-09
4.98938e-09
7.85006e-09
7.78409e-08
1.08986e-06
9.43515e-06
0.000168132
0.00017897
0.000178914
0.000178857
0.000178629
0.000178378
0.0001773
0.000174133
0.000173547
0.00017288
0.00017244
0.00017355
0.000174026
0.000174131
0.000174026
5.61147e-05
1.55513e-05
6.89126e-05
4.79636e-05
7.81091e-06
2.05074e-08
6.25106e-09
1.76735e-09
9.71258e-10
9.08731e-10
9.01976e-10
9.02426e-10
1.0575e-09
2.1253e-08
7.17849e-09
7.30556e-09
5.62018e-05
0.000119248
0.000130589
0.00013018
0.000129394
0.000127918
0.000127669
6.29163e-05
8.89356e-07
6.94941e-07
1.50694e-06
4.27228e-06
6.97129e-05
0.000179907
0.000173829
0.000283378
0.000147274
1.55918e-05
1.55936e-05
1.58157e-05
7.53403e-05
0.000273061
8.8452e-05
8.84528e-05
7.58865e-05
3.18742e-06
2.64639e-06
2.93225e-05
3.26813e-05
2.90153e-05
2.99779e-05
9.43821e-05
9.89382e-05
9.87742e-05
2.10171e-05
2.26155e-06
2.27926e-06
2.35513e-06
2.4392e-06
2.59087e-06
1.62354e-05
5.49636e-05
5.59657e-05
4.98938e-09
6.52916e-09
6.98166e-09
1.03193e-08
4.13147e-08
3.30608e-07
7.91891e-05
0.000178914
0.000178857
0.000178805
0.000178801
0.000178793
0.000178376
0.000177974
0.000171108
0.000116466
0.000123527
0.000168625
0.00017355
0.000174026
0.000173948
8.35322e-05
1.71494e-05
1.7364e-05
1.33238e-05
7.20468e-06
2.59249e-07
8.1527e-09
1.36567e-09
9.59106e-10
9.12675e-10
9.0244e-10
9.02055e-10
9.02384e-10
9.08861e-10
1.57098e-08
8.54226e-09
5.29471e-09
2.89226e-09
2.0594e-05
3.00971e-05
3.73968e-05
4.28112e-05
8.12286e-05
4.00534e-05
1.16956e-06
9.41579e-07
1.52719e-06
1.03959e-05
3.10485e-05
3.37207e-05
0.000186983
0.000287399
0.000282193
6.04274e-05
1.58158e-05
8.70646e-05
0.00026994
0.000273061
8.84505e-05
8.8452e-05
2.03706e-05
3.12308e-06
2.95107e-06
1.85314e-05
3.00745e-05
2.71844e-05
4.37542e-05
9.78124e-05
0.000100375
6.55643e-05
2.26155e-06
2.26155e-06
2.26155e-06
2.27926e-06
2.3551e-06
2.85871e-06
6.57171e-05
0.000121898
0.00012195
0.000105719
2.58569e-05
1.04801e-08
4.17133e-08
7.91409e-08
1.43205e-07
3.42162e-06
0.000178565
0.000178805
0.000178801
0.000178793
0.000178797
0.000136333
7.3891e-05
7.31473e-05
7.31473e-05
7.31473e-05
7.73467e-05
0.000167425
0.000173288
0.000173345
6.12961e-05
2.09713e-05
2.3326e-05
3.83783e-05
1.94259e-05
1.3465e-07
1.03128e-08
1.83727e-09
1.05131e-09
9.31643e-10
9.13431e-10
9.02497e-10
9.02385e-10
9.04306e-10
7.31235e-09
1.21686e-08
7.93328e-09
2.34933e-09
2.07016e-09
2.27578e-09
2.45483e-09
4.23203e-09
7.94204e-09
8.71772e-06
1.33838e-06
1.5931e-06
1.71397e-06
1.80874e-06
2.47072e-06
0.000116966
0.000287753
0.000287732
0.000287399
0.000279183
0.000196253
0.000261481
0.00026596
8.16163e-05
7.6039e-05
8.84505e-05
1.49187e-05
2.95876e-06
2.95876e-06
2.95876e-06
9.59537e-06
2.67238e-05
2.30372e-05
7.32357e-05
0.00010503
3.6283e-05
2.42463e-06
2.72109e-06
7.85301e-06
2.35501e-06
2.86128e-06
3.42707e-06
7.87531e-05
0.000122014
0.000121997
0.00012195
0.000121439
6.06144e-05
2.41104e-07
1.43265e-07
3.90007e-07
5.69777e-07
9.04439e-05
0.000178624
0.000178793
0.000165006
6.48931e-05
6.59239e-05
7.6661e-05
7.47506e-05
7.52849e-05
0.000161189
0.000169541
0.00016962
0.000171026
0.000167532
3.02121e-05
2.42019e-05
4.3366e-05
4.29574e-05
1.87343e-05
1.34538e-07
1.26821e-08
2.22864e-09
1.19524e-09
1.01971e-09
9.5844e-10
9.08163e-10
9.04306e-10
9.06305e-10
9.21204e-10
8.3454e-09
1.22008e-08
9.63657e-09
1.75388e-09
3.60355e-09
4.07668e-09
7.78669e-09
2.3061e-08
6.42478e-08
1.34917e-06
3.41687e-06
1.80874e-06
2.64676e-06
0.000127806
0.000287753
0.000287771
0.000287753
0.000287689
0.000287218
0.000284759
0.000197678
0.000115145
3.23841e-05
4.19729e-05
8.81365e-05
7.78599e-05
3.03778e-06
2.95876e-06
3.03778e-06
3.30323e-06
1.28172e-05
1.9056e-05
5.29696e-05
0.000108356
6.97563e-05
2.84405e-06
4.65549e-06
1.27073e-05
1.26067e-05
3.43045e-06
3.51164e-06
4.92705e-05
0.000121898
0.000122044
0.000109627
0.000116909
0.000115578
1.72828e-05
3.95356e-07
5.82316e-07
6.39808e-07
1.17724e-06
5.65522e-05
8.6153e-05
3.803e-05
4.03596e-05
0.000129863
0.000158721
0.000155211
0.000151304
0.000163061
0.000166323
0.00016949
0.000169803
6.29591e-05
3.02952e-05
3.06134e-05
4.84595e-05
4.09934e-05
3.09375e-06
5.64543e-08
7.84855e-09
2.13245e-09
1.41656e-09
1.23094e-09
1.00999e-09
9.3376e-10
9.23138e-10
9.21204e-10
9.91264e-10
1.2074e-09
7.45252e-09
5.95464e-09
9.64053e-10
2.8091e-08
2.22775e-07
3.68483e-08
6.42478e-08
1.27946e-07
1.55358e-06
9.59873e-06
2.32971e-06
8.56439e-05
0.000287247
0.000287771
0.000287753
0.000250339
9.70455e-05
0.00011024
7.58974e-05
1.57783e-05
9.1187e-06
1.83568e-05
4.17047e-05
8.67233e-05
8.52478e-05
4.17088e-05
3.03778e-06
3.30426e-06
3.4995e-06
3.57497e-06
5.69982e-06
4.173e-05
0.000109141
0.000110516
9.46635e-06
2.86663e-06
1.04742e-05
1.42505e-05
9.55043e-06
5.36119e-06
3.93325e-05
0.000122014
6.26913e-05
7.3299e-09
2.83784e-05
0.000112652
8.61257e-05
3.44751e-06
6.47192e-07
8.95147e-07
1.07711e-06
2.0256e-06
3.27148e-06
2.28458e-05
0.000160236
0.000162491
0.000162491
9.82169e-05
2.42566e-05
5.54674e-05
0.000157068
0.000127364
3.40481e-05
3.61027e-05
4.6244e-05
5.30614e-05
5.11416e-05
7.11455e-06
1.42469e-07
2.05717e-08
4.5521e-09
2.47569e-09
1.99368e-09
1.43135e-09
1.08311e-09
1.11583e-09
1.08169e-09
2.9442e-09
2.78357e-09
1.18018e-09
9.65755e-10
9.6356e-10
9.64053e-10
3.41297e-08
1.0736e-06
1.4077e-07
1.98105e-07
1.5782e-07
9.13362e-07
9.84011e-06
9.11126e-06
0.000168548
0.000286922
0.000286626
6.63125e-05
9.44546e-06
6.41947e-06
3.06032e-06
1.30382e-06
6.43718e-07
1.49397e-07
7.42708e-08
4.48555e-05
2.69187e-05
8.25523e-05
7.97242e-05
3.10654e-05
3.49935e-06
3.57503e-06
3.74068e-06
3.8542e-06
1.96497e-05
0.000110412
0.000115999
6.53449e-05
2.96345e-06
3.03082e-06
1.4216e-05
1.30682e-05
5.96335e-06
4.44598e-05
8.94776e-05
9.72016e-06
5.25555e-09
3.18121e-09
1.29885e-06
8.50942e-05
8.57114e-06
9.27588e-07
1.07755e-06
1.10999e-06
1.30881e-06
2.22512e-06
9.39234e-05
0.000163922
0.000163206
6.29043e-05
2.50787e-05
2.24039e-05
2.72973e-05
2.82979e-05
3.07133e-05
3.22333e-05
3.86002e-05
5.71286e-05
5.49813e-05
1.67623e-05
2.29112e-07
3.50529e-08
7.50347e-09
3.32402e-09
2.75201e-09
2.6283e-09
1.61652e-09
1.64453e-09
2.41559e-08
2.15256e-08
1.40849e-08
4.64405e-09
1.03043e-09
9.7008e-10
9.64053e-10
9.63284e-10
9.6412e-10
9.08938e-07
1.93947e-06
1.00832e-05
1.08099e-06
5.43339e-07
7.64448e-06
1.13026e-05
0.000123891
0.000279538
0.000110603
2.03277e-05
1.87081e-05
2.80194e-05
4.5803e-07
3.56525e-07
1.82048e-07
4.37723e-08
4.37723e-08
4.48472e-05
1.00504e-05
5.41811e-05
7.60934e-05
7.34973e-05
2.68768e-05
3.74013e-06
3.85332e-06
4.00658e-06
9.68354e-06