/*--------------------------------*- C++ -*----------------------------------*\
| =========                 |                                                 |
| \\      /  F ield         | OpenFOAM: The Open Source CFD Toolbox           |
|  \\    /   O peration     | Version:  2412                                  |
|   \\  /    A nd           | Website:  www.openfoam.com                      |
|    \\/     M anipulation  |                                                 |
\*---------------------------------------------------------------------------*/
FoamFile
{
    version     2.0;
    format      ascii;
    arch        "LSB;label=32;scalar=64";
    class       surfaceScalarField;
    location    "5.6";
    object      alphaPhi0.ethanol;
}
// * * * * * * * * * * * * * * * * * * * * * * * * * * * * * * * * * * * * * //

dimensions      [0 3 -1 0 0 0 0];

oriented        oriented;

internalField   nonuniform List<scalar> 
12640
(
-1.80637e-05
1.80637e-05
-3.36908e-05
1.56421e-05
-4.7026e-05
1.33346e-05
-5.90492e-05
1.20201e-05
-7.04807e-05
1.14297e-05
-8.16896e-05
1.12084e-05
-9.27718e-05
1.1082e-05
-0.000103604
1.0832e-05
-0.000113959
1.03546e-05
-0.000123507
9.54693e-06
-0.000131971
8.46434e-06
-0.000139035
7.06294e-06
-0.000144515
5.47863e-06
-0.00014826
3.7447e-06
-0.000150143
1.88166e-06
-0.000150143
-3.30794e-10
-0.000148245
-1.89944e-06
-0.000144579
-3.66712e-06
-0.000139256
-5.32313e-06
-0.000132486
-6.77148e-06
-0.000124467
-8.01942e-06
-0.000115442
-9.02568e-06
-0.000105675
-9.7667e-06
-9.54227e-05
-1.02528e-05
-8.49622e-05
-1.04602e-05
-7.45522e-05
-1.04094e-05
-6.44532e-05
-1.00982e-05
-5.48826e-05
-9.57006e-06
-4.59727e-05
-8.90983e-06
-3.79176e-05
-8.05548e-06
-3.07491e-05
-7.16923e-06
-2.45413e-05
-6.20869e-06
-1.9281e-05
-5.26132e-06
-1.49534e-05
-4.32861e-06
-1.14761e-05
-3.47851e-06
-8.75212e-06
-2.72514e-06
-6.6452e-06
-2.10785e-06
-5.02655e-06
-1.61959e-06
-3.72431e-06
-1.30245e-06
-2.57902e-06
-1.14602e-06
-1.42314e-06
-1.15584e-06
-1.15628e-07
-1.30702e-06
1.51315e-06
-1.62871e-06
3.63455e-06
-2.12159e-06
6.40828e-06
-2.77404e-06
9.93104e-06
-3.52338e-06
1.43302e-05
-4.39999e-06
1.9641e-05
-5.3118e-06
2.58924e-05
-6.25192e-06
3.31416e-05
-7.24924e-06
4.12993e-05
-8.15805e-06
5.0255e-05
-8.95592e-06
5.99113e-05
-9.65601e-06
7.00695e-05
-1.01584e-05
8.05437e-05
-1.0475e-05
9.10753e-05
-1.05324e-05
0.000101385
-1.03109e-05
0.000111199
-9.81534e-06
0.000120249
-9.0509e-06
0.000128276
-8.02795e-06
0.000135049
-6.77399e-06
0.000140339
-5.29112e-06
0.000143968
-3.63041e-06
0.000145788
-1.82141e-06
0.000145715
7.22787e-08
0.000143792
1.92302e-06
0.00013999
3.80145e-06
0.000134514
5.47568e-06
0.000127516
6.99691e-06
0.000119196
8.31938e-06
0.00010983
9.3663e-06
9.97138e-05
1.01157e-05
8.92118e-05
1.05009e-05
7.85178e-05
1.06933e-05
6.78007e-05
1.07168e-05
5.69214e-05
1.08782e-05
4.54717e-05
1.14494e-05
3.27457e-05
1.27255e-05
1.76528e-05
1.50916e-05
1.76521e-05
-1.70641e-05
3.51117e-05
-2.90942e-05
2.76711e-05
-3.70371e-05
2.12787e-05
-4.30845e-05
1.80677e-05
-4.86039e-05
1.69481e-05
-5.44973e-05
1.71008e-05
-6.11796e-05
1.77636e-05
-6.85742e-05
1.82259e-05
-7.6354e-05
1.81335e-05
-8.41523e-05
1.7344e-05
-9.15606e-05
1.58714e-05
-9.83414e-05
1.38426e-05
-0.000103922
1.10574e-05
-0.000108209
8.0307e-06
-0.000111062
4.73299e-06
-0.000112377
1.31431e-06
-0.00011216
-2.11778e-06
-0.000110455
-5.37416e-06
-0.000107349
-8.42965e-06
-0.000102995
-1.11267e-05
-9.75641e-05
-1.34508e-05
-9.12413e-05
-1.5349e-05
-8.42499e-05
-1.67582e-05
-7.68228e-05
-1.76797e-05
-6.91787e-05
-1.81042e-05
-6.15233e-05
-1.8065e-05
-5.40281e-05
-1.75939e-05
-4.68443e-05
-1.67547e-05
-4.01592e-05
-1.55958e-05
-3.40461e-05
-1.41697e-05
-2.85771e-05
-1.26393e-05
-2.37461e-05
-1.10407e-05
-1.96104e-05
-9.39792e-06
-1.60872e-05
-7.85261e-06
-1.31227e-05
-6.44375e-06
-1.06345e-05
-5.21399e-06
-8.54328e-06
-4.19921e-06
-6.72538e-06
-3.438e-06
-5.08041e-06
-2.94701e-06
-3.52427e-06
-2.7017e-06
-1.96135e-06
-2.71849e-06
-2.90911e-07
-2.9777e-06
1.56704e-06
-3.48701e-06
3.70492e-06
-4.25964e-06
6.28341e-06
-5.35297e-06
9.37801e-06
-6.61861e-06
1.30017e-05
-8.02354e-06
1.72581e-05
-9.56775e-06
2.22115e-05
-1.12056e-05
2.7804e-05
-1.2842e-05
3.40642e-05
-1.4418e-05
4.09076e-05
-1.57991e-05
4.82007e-05
-1.6949e-05
5.58288e-05
-1.77864e-05
6.36169e-05
-1.82633e-05
7.13591e-05
-1.82756e-05
7.88529e-05
-1.78062e-05
8.58755e-05
-1.68396e-05
9.22173e-05
-1.53942e-05
9.76309e-05
-1.34429e-05
0.000101924
-1.10683e-05
0.000104969
-8.33816e-06
0.00010658
-5.24331e-06
0.00010668
-1.92108e-06
0.000105242
1.5096e-06
0.000102179
4.98682e-06
9.78591e-05
8.12069e-06
9.22514e-05
1.10825e-05
8.56105e-05
1.36372e-05
7.83274e-05
1.56027e-05
7.06777e-05
1.70154e-05
6.32062e-05
1.75854e-05
5.62741e-05
1.74308e-05
5.01956e-05
1.6771e-05
4.48639e-05
1.60493e-05
4.00733e-05
1.56682e-05
3.47907e-05
1.67309e-05
2.76721e-05
1.98438e-05
1.64649e-05
2.62989e-05
3.41169e-05
-1.59437e-05
5.10546e-05
-2.51241e-05
3.6848e-05
-2.96254e-05
2.57791e-05
-3.2009e-05
2.0451e-05
-3.4041e-05
1.89797e-05
-3.68381e-05
1.98974e-05
-4.09096e-05
2.18348e-05
-4.62359e-05
2.35517e-05
-5.24329e-05
2.43298e-05
-5.90571e-05
2.39674e-05
-6.56216e-05
2.24352e-05
-7.16599e-05
1.98808e-05
-7.69588e-05
1.6356e-05
-8.11008e-05
1.21724e-05
-8.39377e-05
7.56979e-06
-8.53512e-05
2.7274e-06
-8.52788e-05
-2.19004e-06
-8.38278e-05
-6.82537e-06
-8.10441e-05
-1.12139e-05
-7.71129e-05
-1.50585e-05
-7.21973e-05
-1.83671e-05
-6.65024e-05
-2.1045e-05
-6.02316e-05
-2.30306e-05
-5.3589e-05
-2.43242e-05
-4.6851e-05
-2.48439e-05
-4.02178e-05
-2.46995e-05
-3.38703e-05
-2.39422e-05
-2.79757e-05
-2.26495e-05
-2.26658e-05
-2.09057e-05
-1.79919e-05
-1.88431e-05
-1.40732e-05
-1.65573e-05
-1.09028e-05
-1.42104e-05
-8.42741e-06
-1.18727e-05
-6.57171e-06
-9.70755e-06
-5.29062e-06
-7.72389e-06
-4.51654e-06
-5.9873e-06
-4.1006e-06
-4.61437e-06
-3.94578e-06
-3.59174e-06
-3.96979e-06
-2.92268e-06
-4.06468e-06
-2.60735e-06
-4.14969e-06
-2.63292e-06
-4.13861e-06
-2.98748e-06
-3.9145e-06
-3.71032e-06
-3.40028e-06
-4.77293e-06
-2.5283e-06
-6.22329e-06
-1.17503e-06
-7.97033e-06
7.73524e-07
-9.97159e-06
3.36412e-06
-1.21579e-05
6.6511e-06
-1.44912e-05
1.07644e-05
-1.69538e-05
1.55208e-05
-1.91736e-05
2.09937e-05
-2.12709e-05
2.70473e-05
-2.30015e-05
3.35464e-05
-2.4285e-05
4.03202e-05
-2.50369e-05
4.71931e-05
-2.51483e-05
5.39191e-05
-2.45321e-05
6.02768e-05
-2.31972e-05
6.60194e-05
-2.11368e-05
7.09911e-05
-1.84151e-05
7.49111e-05
-1.49888e-05
7.76307e-05
-1.10581e-05
7.8998e-05
-6.6109e-06
7.8927e-05
-1.84949e-06
7.73539e-05
3.08436e-06
7.45456e-05
7.79589e-06
7.03652e-05
1.23006e-05
6.51075e-05
1.63399e-05
5.90257e-05
1.97191e-05
5.24875e-05
2.21402e-05
4.61767e-05
2.33244e-05
4.03814e-05
2.33795e-05
3.55625e-05
2.22516e-05
3.20531e-05
2.02833e-05
3.0018e-05
1.80844e-05
2.87985e-05
1.6888e-05
2.7299e-05
1.82322e-05
2.37017e-05
2.34434e-05
1.52959e-05
3.4705e-05
4.94162e-05
-1.58368e-05
6.68932e-05
-2.36673e-05
4.46764e-05
-2.59754e-05
2.80863e-05
-2.61783e-05
2.06536e-05
-2.62381e-05
1.90395e-05
-2.76001e-05
2.12593e-05
-3.0761e-05
2.49956e-05
-3.55555e-05
2.8346e-05
-4.15896e-05
3.03637e-05
-4.81629e-05
3.05406e-05
-5.46619e-05
2.89342e-05
-6.05913e-05
2.58105e-05
-6.57565e-05
2.15219e-05
-6.96499e-05
1.60658e-05
-7.21508e-05
1.00711e-05
-7.31293e-05
3.70608e-06
-7.25735e-05
-2.74557e-06
-7.05495e-05
-8.84882e-06
-6.7213e-05
-1.45502e-05
-6.26623e-05
-1.96095e-05
-5.71613e-05
-2.38686e-05
-5.0938e-05
-2.72684e-05
-4.42291e-05
-2.97393e-05
-3.73118e-05
-3.12412e-05
-3.03972e-05
-3.17583e-05
-2.37364e-05
-3.13603e-05
-1.75456e-05
-3.01335e-05
-1.20068e-05
-2.8189e-05
-7.23473e-06
-2.56785e-05
-3.40518e-06
-2.26733e-05
-4.48752e-07
-1.95142e-05
1.54815e-06
-1.62076e-05
2.70103e-06
-1.30254e-05
3.09039e-06
-1.00965e-05
2.84238e-06
-7.47518e-06
2.013e-06
-5.15648e-06
7.78552e-07
-3.37949e-06
-7.94756e-07
-2.01789e-06
-2.56853e-06
-1.1482e-06
-4.41525e-06
-7.60352e-07
-6.25406e-06
-7.9513e-07
-7.98742e-06
-1.25575e-06
-9.50631e-06
-2.1923e-06
-1.06743e-05
-3.60511e-06
-1.14371e-05
-5.46095e-06
-1.16062e-05
-7.80099e-06
-1.10745e-05
-1.05023e-05
-9.7437e-06
-1.34884e-05
-7.45391e-06
-1.67816e-05
-4.43805e-06
-1.99706e-05
-4.43564e-07
-2.31691e-05
4.39585e-06
-2.61111e-05
1.01014e-05
-2.87072e-05
1.64647e-05
-3.06481e-05
2.33147e-05
-3.1887e-05
3.03907e-05
-3.22244e-05
3.74723e-05
-3.16139e-05
4.43082e-05
-3.00335e-05
5.06003e-05
-2.74286e-05
5.61014e-05
-2.39161e-05
6.05939e-05
-1.94818e-05
6.38486e-05
-1.43129e-05
6.58027e-05
-8.56442e-06
6.63472e-05
-2.39382e-06
6.53732e-05
4.05778e-06
6.28074e-05
1.03599e-05
5.8871e-05
1.62353e-05
5.37732e-05
2.1437e-05
4.76982e-05
2.57939e-05
4.13314e-05
2.85067e-05
3.49984e-05
2.9658e-05
2.93448e-05
2.90337e-05
2.50237e-05
2.65723e-05
2.25373e-05
2.27702e-05
2.19714e-05
1.86508e-05
2.27728e-05
1.6088e-05
2.35338e-05
1.74725e-05
2.21035e-05
2.48736e-05
1.51729e-05
4.16343e-05
6.45873e-05
-1.6167e-05
8.30609e-05
-2.30001e-05
5.15093e-05
-2.34393e-05
2.85254e-05
-2.14792e-05
1.86937e-05
-2.00207e-05
1.75812e-05
-2.07271e-05
2.19658e-05
-2.40184e-05
2.82871e-05
-2.95608e-05
3.38887e-05
-3.65401e-05
3.73429e-05
-4.41556e-05
3.81563e-05
-5.16493e-05
3.64283e-05
-5.83918e-05
3.25529e-05
-6.38364e-05
2.69667e-05
-6.77924e-05
2.00218e-05
-7.00871e-05
1.23663e-05
-7.06556e-05
4.27518e-06
-6.95374e-05
-3.86363e-06
-6.6761e-05
-1.1625e-05
-6.25032e-05
-1.88071e-05
-5.69835e-05
-2.51277e-05
-5.04655e-05
-3.03846e-05
-4.32158e-05
-3.45158e-05
-3.5531e-05
-3.74221e-05
-2.77004e-05
-3.90706e-05
-2.00094e-05
-3.94493e-05
-1.27677e-05
-3.86024e-05
-6.19479e-06
-3.67067e-05
-4.80196e-07
-3.39034e-05
4.13167e-06
-3.02898e-05
7.78785e-06
-2.63285e-05
1.02549e-05
-2.19802e-05
1.16128e-05
-1.75645e-05
1.18871e-05
-1.32984e-05
1.1156e-05
-9.36364e-06
9.57841e-06
-5.89668e-06
7.50419e-06
-3.08133e-06
4.91254e-06
-7.87687e-07
1.88889e-06
1.00532e-06
-1.29668e-06
2.03461e-06
-4.57232e-06
2.51262e-06
-7.84586e-06
2.4775e-06
-1.10262e-05
1.92444e-06
-1.39896e-05
7.70998e-07
-1.65352e-05
-1.05947e-06
-1.86067e-05
-3.38937e-06
-1.99815e-05
-6.42623e-06
-2.04928e-05
-9.99064e-06
-2.00741e-05
-1.39059e-05
-1.86917e-05
-1.81625e-05
-1.60866e-05
-2.25745e-05
-1.23179e-05
-2.69373e-05
-7.37064e-06
-3.10582e-05
-1.45881e-06
-3.46196e-05
5.34104e-06
-3.74485e-05
1.27454e-05
-3.92915e-05
2.06118e-05
-4.00903e-05
2.86205e-05
-3.96213e-05
3.64295e-05
-3.78409e-05
4.38232e-05
-3.48216e-05
5.0442e-05
-3.05342e-05
5.59846e-05
-2.50237e-05
6.02321e-05
-1.85604e-05
6.29632e-05
-1.12959e-05
6.40039e-05
-3.43511e-06
6.32748e-05
4.78675e-06
6.07741e-05
1.28612e-05
5.66274e-05
2.03828e-05
5.09487e-05
2.71169e-05
4.43289e-05
3.24138e-05
3.70176e-05
3.58166e-05
2.95238e-05
3.71512e-05
2.28672e-05
3.56917e-05
1.78315e-05
3.1609e-05
1.52481e-05
2.53533e-05
1.54484e-05
1.84486e-05
1.78398e-05
1.36938e-05
2.07755e-05
1.45352e-05
2.12914e-05
2.43575e-05
1.54841e-05
4.7444e-05
8.00723e-05
-1.68564e-05
9.99172e-05
-2.23462e-05
5.70003e-05
-2.02284e-05
2.64084e-05
-1.57718e-05
1.42374e-05
-1.26671e-05
1.4477e-05
-1.29054e-05
2.22047e-05
-1.72657e-05
3.26478e-05
-2.46497e-05
4.12729e-05
-3.3875e-05
4.6568e-05
-4.35733e-05
4.78541e-05
-5.2908e-05
4.57631e-05
-6.10756e-05
4.07204e-05
-6.75588e-05
3.34497e-05
-7.20872e-05
2.45496e-05
-7.45498e-05
1.48283e-05
-7.4911e-05
4.6363e-06
-7.32474e-05
-5.52671e-06
-6.96469e-05
-1.5225e-05
-6.4371e-05
-2.40823e-05
-5.76435e-05
-3.18546e-05
-4.98265e-05
-3.82015e-05
-4.12249e-05
-4.31181e-05
-3.21921e-05
-4.64563e-05
-2.30297e-05
-4.82344e-05
-1.41863e-05
-4.82936e-05
-5.9464e-06
-4.68425e-05
1.43851e-06
-4.40912e-05
7.73489e-06
-4.01991e-05
1.28579e-05
-3.54121e-05
1.65201e-05
-2.999e-05
1.88605e-05
-2.43199e-05
1.97035e-05
-1.84067e-05
1.92135e-05
-1.28085e-05
1.7785e-05
-7.93527e-06
1.53925e-05
-3.50451e-06
1.21067e-05
2.03658e-07
8.28097e-06
3.03691e-06
4.13722e-06
5.15007e-06
-2.27167e-07
6.40147e-06
-4.6342e-06
6.92193e-06
-9.05233e-06
6.89651e-06
-1.34191e-05
6.29066e-06
-1.7567e-05
4.918e-06
-2.12676e-05
2.64086e-06
-2.44168e-05
-2.3924e-07
-2.67764e-05
-4.06494e-06
-2.81996e-05
-8.56624e-06
-2.84917e-05
-1.3614e-05
-2.74839e-05
-1.9171e-05
-2.49734e-05
-2.50857e-05
-2.10478e-05
-3.08635e-05
-1.58378e-05
-3.6268e-05
-9.30449e-06
-4.11525e-05
-1.65646e-06
-4.50958e-05
6.86052e-06
-4.78073e-05
1.59797e-05
-4.92085e-05
2.53449e-05
-4.89863e-05
3.45834e-05
-4.70784e-05
4.33089e-05
-4.35458e-05
5.11904e-05
-3.84149e-05
5.79487e-05
-3.1781e-05
6.31909e-05
-2.38017e-05
6.6727e-05
-1.4831e-05
6.82295e-05
-4.937e-06
6.76443e-05
5.37159e-06
6.49289e-05
1.55759e-05
6.0136e-05
2.51751e-05
5.34367e-05
3.38153e-05
4.51826e-05
4.06675e-05
3.58014e-05
4.51998e-05
2.62729e-05
4.66819e-05
1.73283e-05
4.46349e-05
1.04001e-05
3.85349e-05
6.94119e-06
2.88117e-05
7.55979e-06
1.7832e-05
1.17715e-05
9.4843e-06
1.74319e-05
8.87627e-06
2.06067e-05
2.11827e-05
1.60705e-05
5.19781e-05
9.6142e-05
-1.77644e-05
0.000117682
-2.14897e-05
6.07273e-05
-1.53978e-05
2.03176e-05
-6.78659e-06
5.62696e-06
-1.24829e-06
8.93938e-06
-1.76052e-06
2.27176e-05
-8.1102e-06
3.89974e-05
-1.86415e-05
5.18036e-05
-3.13809e-05
5.93073e-05
-4.46009e-05
6.10738e-05
-5.66686e-05
5.78304e-05
-6.69223e-05
5.09735e-05
-7.46575e-05
4.1184e-05
-8.00012e-05
2.98927e-05
-8.28247e-05
1.76517e-05
-8.31786e-05
4.98936e-06
-8.11001e-05
-7.60678e-06
-7.667e-05
-1.96575e-05
-7.02604e-05
-3.0495e-05
-6.21708e-05
-3.99477e-05
-5.27082e-05
-4.76674e-05
-4.24371e-05
-5.33917e-05
-3.17106e-05
-5.71847e-05
-2.08584e-05
-5.90878e-05
-1.05086e-05
-5.86442e-05
-8.50996e-07
-5.65005e-05
7.76314e-06
-5.27056e-05
1.49845e-05
-4.74208e-05
2.05896e-05
-4.1017e-05
2.46187e-05
-3.40188e-05
2.67465e-05
-2.64476e-05
2.74609e-05
-1.91209e-05
2.6538e-05
-1.18857e-05
2.41493e-05
-5.54762e-06
2.07728e-05
-1.28744e-07
1.63959e-05
4.58094e-06
1.15042e-05
7.93017e-06
6.31619e-06
1.0339e-05
8.7517e-07
1.18422e-05
-4.68142e-06
1.24777e-05
-1.02105e-05
1.24254e-05
-1.55722e-05
1.16533e-05
-2.07169e-05
1.00646e-05
-2.55372e-05
7.4622e-06
-2.98857e-05
4.10825e-06
-3.31925e-05
-7.60211e-07
-3.54032e-05
-6.35785e-06
-3.62354e-05
-1.27836e-05
-3.55231e-05
-1.98846e-05
-3.31044e-05
-2.75056e-05
-2.89559e-05
-3.50135e-05
-2.30587e-05
-4.21665e-05
-1.55818e-05
-4.863e-05
-6.71245e-06
-5.39657e-05
3.24151e-06
-5.77618e-05
1.38798e-05
-5.98466e-05
2.50109e-05
-6.01169e-05
3.59591e-05
-5.8026e-05
4.64e-05
-5.39858e-05
5.59331e-05
-4.79473e-05
6.40709e-05
-3.9919e-05
7.04928e-05
-3.02244e-05
7.47833e-05
-1.91235e-05
7.67698e-05
-6.92511e-06
7.62244e-05
5.91608e-06
7.30539e-05
1.87464e-05
6.72671e-05
3.09628e-05
5.89282e-05
4.21547e-05
4.84508e-05
5.1144e-05
3.61819e-05
5.7468e-05
2.3059e-05
5.98059e-05
1.06095e-05
5.70848e-05
5.58928e-07
4.8588e-05
-4.9845e-06
3.43567e-05
-4.54326e-06
1.73891e-05
2.33848e-06
2.59982e-06
1.22915e-05
-1.07887e-06
1.95967e-05
1.38767e-05
1.69273e-05
5.46472e-05
0.000113068
-1.88004e-05
0.000136483
-1.88396e-05
6.07682e-05
-5.22754e-06
6.7068e-06
1.00277e-05
-9.62745e-06
1.814e-05
8.27504e-07
1.60247e-05
2.48329e-05
5.39199e-06
4.96298e-05
-1.0799e-05
6.79939e-05
-2.90535e-05
7.75615e-05
-4.68052e-05
7.88254e-05
-6.25118e-05
7.35368e-05
-7.52379e-05
6.36994e-05
-8.52095e-05
5.11554e-05
-9.17719e-05
3.64541e-05
-9.49313e-05
2.08099e-05
-9.49545e-05
5.01095e-06
-9.2052e-05
-1.05115e-05
-8.65764e-05
-2.5135e-05
-7.87082e-05
-3.83645e-05
-6.89253e-05
-4.97315e-05
-5.74826e-05
-5.91106e-05
-4.51314e-05
-6.57434e-05
-3.2256e-05
-7.00604e-05
-1.94081e-05
-7.19361e-05
-7.0703e-06
-7.09824e-05
4.37477e-06
-6.79457e-05
1.44784e-05
-6.28088e-05
2.28641e-05
-5.5806e-05
2.93754e-05
-4.75276e-05
3.37438e-05
-3.83865e-05
3.59806e-05
-2.86845e-05
3.62391e-05
-1.93805e-05
3.46072e-05
-1.0255e-05
3.13354e-05
-2.27697e-06
2.67303e-05
4.47562e-06
2.12724e-05
1.00363e-05
1.5127e-05
1.40726e-05
8.63777e-06
1.68257e-05
2.0116e-06
1.84673e-05
-4.67102e-06
1.9161e-05
-1.13661e-05
1.91214e-05
-1.79583e-05
1.82454e-05
-2.43149e-05
1.642e-05
-3.03977e-05
1.35433e-05
-3.56644e-05
9.3735e-06
-4.03342e-05
3.90929e-06
-4.34998e-05
-3.19235e-06
-4.50139e-05
-1.12703e-05
-4.46446e-05
-2.02555e-05
-4.21864e-05
-2.99657e-05
-3.76049e-05
-3.9596e-05
-3.0854e-05
-4.89184e-05
-2.22165e-05
-5.7268e-05
-1.18308e-05
-6.43517e-05
-9.1217e-08
-6.95018e-05
1.25573e-05
-7.24963e-05
2.57934e-05
-7.33538e-05
3.89031e-05
-7.11364e-05
5.1436e-05
-6.65198e-05
6.29371e-05
-5.94492e-05
7.28742e-05
-4.98568e-05
8.06759e-05
-3.80259e-05
8.60462e-05
-2.44929e-05
8.85724e-05
-9.44988e-06
8.80111e-05
6.47822e-06
8.43184e-05
2.24377e-05
7.74079e-05
3.78706e-05
6.71039e-05
5.24569e-05
5.36933e-05
6.45557e-05
3.76526e-05
7.35113e-05
1.98112e-05
7.76471e-05
1.67874e-06
7.52143e-05
-1.41234e-05
6.43883e-05
-2.40802e-05
4.43126e-05
-2.48527e-05
1.81601e-05
-1.51953e-05
-7.05688e-06
1.55655e-06
-1.7831e-05
1.66819e-05
-1.25049e-06
1.79481e-05
5.3381e-05
0.000131016
-1.89526e-05
0.000155437
-9.07663e-06
5.08936e-05
1.98385e-05
-2.22076e-05
4.56096e-05
-3.53981e-05
5.49101e-05
-8.47278e-06
4.62229e-05
3.35197e-05
2.59213e-05
6.99309e-05
-8.23575e-09
9.39233e-05
-2.65022e-05
0.000104056
-5.04858e-05
0.000102809
-7.09068e-05
9.39575e-05
-8.71329e-05
7.99253e-05
-9.89456e-05
6.29682e-05
-0.000106518
4.40268e-05
-0.00011005
2.43428e-05
-0.000109815
4.77699e-06
-0.000106023
-1.43018e-05
-9.91263e-05
-3.20311e-05
-8.93651e-05
-4.81248e-05
-7.72934e-05
-6.18025e-05
-6.35717e-05
-7.28321e-05
-4.85802e-05
-8.07349e-05
-3.30646e-05
-8.5576e-05
-1.76028e-05
-8.7398e-05
-2.82014e-06
-8.57652e-05
1.07779e-05
-8.15439e-05
2.26871e-05
-7.4718e-05
3.2456e-05
-6.55746e-05
3.99718e-05
-5.50435e-05
4.47377e-05
-4.31531e-05
4.71353e-05
-3.10829e-05
4.68457e-05
-1.90917e-05
4.44237e-05
-7.83418e-06
3.99735e-05
2.17072e-06
3.38646e-05
1.05822e-05
2.69745e-05
1.69247e-05
1.93815e-05
2.16654e-05
1.14764e-05
2.47315e-05
3.51749e-06
2.64272e-05
-4.57226e-06
2.72514e-05
-1.27119e-05
2.72611e-05
-2.07346e-05
2.62683e-05
-2.8658e-05
2.4344e-05
-3.62418e-05
2.11275e-05
-4.3158e-05
1.629e-05
-4.89636e-05
9.71475e-06
-5.34463e-05
1.28957e-06
-5.5788e-05
-8.92947e-06
-5.58335e-05
-2.02106e-05
-5.34125e-05
-3.23871e-05
-4.82953e-05
-4.47135e-05
-4.05949e-05
-5.66191e-05
-3.04386e-05
-6.74252e-05
-1.81046e-05
-7.66869e-05
-4.1202e-06
-8.34871e-05
1.10427e-05
-8.76604e-05
2.68566e-05
-8.91686e-05
4.25875e-05
-8.68671e-05
5.77771e-05
-8.17082e-05
7.18244e-05
-7.34947e-05
8.38619e-05
-6.18927e-05
9.35531e-05
-4.77168e-05
0.000100182
-3.11229e-05
0.000103472
-1.27417e-05
0.00010322
6.72988e-06
9.90033e-05
2.66549e-05
9.05458e-05
4.63298e-05
7.81826e-05
6.4821e-05
6.12881e-05
8.14497e-05
4.0297e-05
9.45015e-05
1.57661e-05
0.000102175
-1.07373e-05
0.000101718
-3.62913e-05
8.99437e-05
-5.60492e-05
6.40695e-05
-6.35291e-05
2.56387e-05
-5.2531e-05
-1.80555e-05
-2.47004e-05
-4.56622e-05
6.25573e-06
-3.22064e-05
1.77791e-05
4.18556e-05
0.000148795
-1.40452e-05
0.000169483
1.84384e-05
1.84103e-05
7.46592e-05
-7.84284e-05
0.000114245
-7.49844e-05
0.000119489
-1.37159e-05
9.55435e-05
5.74653e-05
5.62095e-05
0.000109265
1.37146e-05
0.000136418
-2.50871e-05
0.000142858
-5.7749e-05
0.000135472
-8.35113e-05
0.00011972
-0.000102744
9.91593e-05
-0.00011627
7.6495e-05
-0.000124843
5.26009e-05
-0.000128804
2.8305e-05
-0.000128136
4.10974e-06
-0.000123091
-1.93461e-05
-0.00011441
-4.07123e-05
-0.000102301
-6.02344e-05
-8.74279e-05
-7.66766e-05
-7.06144e-05
-8.96459e-05
-5.23414e-05
-9.90079e-05
-3.36853e-05
-0.000104232
-1.50345e-05
-0.000106049
2.72837e-06
-0.000103528
1.90349e-05
-9.78502e-05
3.32114e-05
-8.88949e-05
4.48553e-05
-7.72194e-05
5.34384e-05
-6.36274e-05
5.89534e-05
-4.86685e-05
6.12611e-05
-3.33907e-05
6.03702e-05
-1.82005e-05
5.68098e-05
-4.2725e-06
5.08654e-05
8.11823e-06
4.31011e-05
1.83494e-05
3.4135e-05
2.5893e-05
2.45226e-05
3.1279e-05
1.47799e-05
3.44754e-05
5.05387e-06
3.61545e-05
-4.55525e-06
3.68615e-05
-1.41349e-05
3.68413e-05
-2.38947e-05
3.60288e-05
-3.36853e-05
3.41355e-05
-4.32406e-05
3.06831e-05
-5.21874e-05
2.52369e-05
-5.97859e-05
1.73134e-05
-6.56876e-05
7.1914e-06
-6.92761e-05
-5.34065e-06
-6.99804e-05
-1.95061e-05
-6.7592e-05
-3.47756e-05
-6.19219e-05
-5.03839e-05
-5.29773e-05
-6.55639e-05
-4.09158e-05
-7.94865e-05
-2.62397e-05
-9.13628e-05
-9.48414e-06
-0.000100243
8.72994e-06
-0.000105874
2.78012e-05
-0.000108239
4.69376e-05
-0.000106002
6.54775e-05
-0.000100247
8.24085e-05
-9.04264e-05
9.73168e-05
-7.6802e-05
0.00010942
-5.98197e-05
0.000117809
-3.951e-05
0.000122452
-1.73822e-05
0.000122516
6.66714e-06
0.000118062
3.11084e-05
0.000108546
5.58448e-05
9.35597e-05
7.98073e-05
7.31329e-05
0.000101877
4.65155e-05
0.00012112
1.31969e-05
0.000135494
-2.62014e-05
0.000141118
-6.89323e-05
0.000132674
-0.000108104
0.000103239
-0.000131463
4.89992e-05
-0.000124377
-2.51427e-05
-8.21378e-05
-8.79026e-05
-2.28147e-05
-9.15291e-05
1.21918e-05
6.84945e-06
0.000160987
2.23478e-06
0.000167249
7.11277e-05
-5.04833e-05
0.000158553
-0.000165854
0.000207944
-0.000124376
0.000203251
-9.02269e-06
0.000156254
0.000104461
9.04771e-05
0.000175042
2.58216e-05
0.000201074
-2.83332e-05
0.000197013
-7.00638e-05
0.000177202
-0.000101237
0.000150893
-0.000123905
0.000121827
-0.00013937
9.19589e-05
-0.000148469
6.16978e-05
-0.000151933
3.17679e-05
-0.000150302
2.47569e-06
-0.000143683
-2.59673e-05
-0.000132507
-5.18905e-05
-0.000117483
-7.52591e-05
-9.91949e-05
-9.4966e-05
-7.86775e-05
-0.000110163
-5.66125e-05
-0.000121073
-3.38812e-05
-0.000126963
-1.12673e-05
-0.000128662
1.01097e-05
-0.000124905
2.97838e-05
-0.000117525
4.67791e-05
-0.000105891
6.07166e-05
-9.1157e-05
7.07974e-05
-7.37079e-05
7.71035e-05
-5.49738e-05
7.92913e-05
-3.55771e-05
7.76051e-05
-1.6512e-05
7.25303e-05
8.03095e-07
6.45424e-05
1.61065e-05
5.44498e-05
2.84425e-05
4.31332e-05
3.72108e-05
3.09213e-05
4.34919e-05
1.89331e-05
4.64638e-05
7.17887e-06
4.79087e-05
-4.38879e-06
4.84295e-05
-1.59836e-05
4.84368e-05
-2.78008e-05
4.78467e-05
-3.98611e-05
4.61957e-05
-5.204e-05
4.28617e-05
-6.32971e-05
3.64941e-05
-7.34825e-05
2.74993e-05
-8.13865e-05
1.50959e-05
-8.63929e-05
-3.34003e-07
-8.79311e-05
-1.79676e-05
-8.57556e-05
-3.69512e-05
-7.93858e-05
-5.67538e-05
-6.88868e-05
-7.60628e-05
-5.45559e-05
-9.38174e-05
-3.6949e-05
-0.000108969
-1.66923e-05
-0.000120499
5.35052e-06
-0.000127917
2.84183e-05
-0.000131307
5.15788e-05
-0.000129163
7.42486e-05
-0.000122916
9.49978e-05
-0.000111174
0.00011353
-9.53331e-05
0.000128507
-7.47968e-05
0.000139367
-5.03699e-05
0.000145424
-2.34403e-05
0.000146073
6.01848e-06
0.000141165
3.60167e-05
0.000130713
6.62979e-05
0.000114221
9.63006e-05
9.03784e-05
0.000125721
5.77445e-05
0.000153753
1.46379e-05
0.000178601
-4.05908e-05
0.000196347
-0.000106005
0.000198087
-0.000171884
0.000169118
-0.00021789
9.50061e-05
-0.000221037
-2.19965e-05
-0.000168627
-0.000140312
-7.75434e-05
-0.000182614
-4.64567e-06
-6.60482e-05
0.00015634
2.91746e-05
0.000138074
0.000132176
-0.000153486
0.000229929
-0.000263607
0.000271635
-0.000166082
0.000253752
8.85931e-06
0.00018804
0.000170172
0.000103066
0.000260015
2.16819e-05
0.000282458
-4.41436e-05
0.000262837
-9.3024e-05
0.000226081
-0.000127413
0.000185279
-0.000151436
0.000145849
-0.000167066
0.000107587
-0.000176392
7.10215e-05
-0.000179401
3.47758e-05
-0.000176256
-6.69388e-07
-0.000167823
-3.44007e-05
-0.00015392
-6.5793e-05
-0.000135337
-9.3842e-05
-0.000112862
-0.00011744
-8.75458e-05
-0.000135479
-6.07538e-05
-0.000147864
-3.30969e-05
-0.00015462
-5.85164e-06
-0.000155907
2.00037e-05
-0.000150761
4.38159e-05
-0.000141338
6.43e-05
-0.000126375
8.09294e-05
-0.000107788
9.3207e-05
-8.59869e-05
0.000100305
-6.20726e-05
0.00010237
-3.76432e-05
9.95289e-05
-1.36717e-05
9.24924e-05
7.84037e-06
8.18662e-05
2.67345e-05
6.89086e-05
4.14016e-05
5.41902e-05
5.19296e-05
3.94397e-05
5.82423e-05
2.44056e-05
6.14982e-05
9.95006e-06
6.23646e-05
-4.16477e-06
6.25439e-05
-1.83182e-05
6.25889e-05
-3.28858e-05
6.24132e-05
-4.7847e-05
6.11559e-05
-6.3179e-05
5.81931e-05
-7.76304e-05
5.09453e-05
-9.06056e-05
4.04748e-05
-0.000101195
2.56854e-05
-0.000108295
6.76689e-06
-0.000111185
-1.50777e-05
-0.00010923
-3.8907e-05
-0.000101988
-6.39963e-05
-8.94324e-05
-8.86188e-05
-7.21729e-05
-0.000111077
-5.09379e-05
-0.000130205
-2.63837e-05
-0.000145053
3.796e-07
-0.00015468
2.82254e-05
-0.000159151
5.65178e-05
-0.000157454
8.38751e-05
-0.000150274
0.000109501
-0.000136801
0.000132158
-0.000117991
0.000150762
-9.34001e-05
0.000164631
-6.42392e-05
0.00017283
-3.16398e-05
0.000174725
4.12349e-06
0.000170447
4.02952e-05
0.000159646
7.71001e-05
0.000141804
0.000114141
0.000115814
0.000151709
7.93622e-05
0.000190205
2.89887e-05
0.000228976
-3.81935e-05
0.000263528
-0.000120148
0.000280041
-0.000204804
0.000253775
-0.00026872
0.00015892
-0.000284812
-5.90455e-06
-0.000239862
-0.000185262
-0.00013904
-0.000283436
-3.22415e-05
-0.000172848
0.000124099
5.41972e-05
8.38763e-05
0.000158096
-0.000257386
0.00022421
-0.000329723
0.00023598
-0.000177853
0.000202299
4.25386e-05
0.000135631
0.000236838
5.56988e-05
0.000339946
-2.13883e-05
0.000359544
-8.47321e-05
0.00032618
-0.000131722
0.00027307
-0.00016458
0.000218137
-0.000186851
0.00016812
-0.000201579
0.000122316
-0.000209608
7.90507e-05
-0.000211449
3.66177e-05
-0.00020673
-5.38703e-06
-0.00019552
-4.561e-05
-0.000178101
-8.32118e-05
-0.00015519
-0.000116753
-0.000127739
-0.000144892
-9.68482e-05
-0.00016637
-6.40091e-05
-0.000180704
-3.07642e-05
-0.000187865
1.95674e-06
-0.000188629
3.34232e-05
-0.000182228
6.21119e-05
-0.000170027
8.7143e-05
-0.000151408
0.000107498
-0.000128144
0.000122099
-0.000100588
0.000130241
-7.02163e-05
0.000131787
-3.91889e-05
0.000127819
-9.70288e-06
0.000118387
1.72716e-05
0.000104609
4.05118e-05
8.76629e-05
5.83476e-05
6.96005e-05
6.99918e-05
5.08876e-05
7.69552e-05
3.19354e-05
8.04502e-05
1.38569e-05
8.04425e-05
-3.88555e-06
8.02858e-05
-2.1688e-05
8.0391e-05
-3.99588e-05
8.06838e-05
-5.89985e-05
8.01952e-05
-7.75453e-05
7.67394e-05
-9.61518e-05
6.9552e-05
-0.000113094
5.74171e-05
-0.000127007
3.95986e-05
-0.000136701
1.64601e-05
-0.000141211
-1.05686e-05
-0.000139664
-4.04545e-05
-0.000131454
-7.2207e-05
-0.000116494
-0.00010358
-9.55125e-05
-0.000132058
-6.95004e-05
-0.000156216
-3.94727e-05
-0.000175081
-6.9554e-06
-0.000187196
2.68083e-05
-0.000192915
6.0849e-05
-0.000191495
9.39014e-05
-0.000183327
0.000125457
-0.000168357
0.000153534
-0.000146069
0.000176815
-0.000116682
0.000194115
-8.15407e-05
0.000204448
-4.19733e-05
0.000208313
2.58464e-07
0.000204525
4.40833e-05
0.000194314
8.73099e-05
0.000177121
0.000131334
0.000152085
0.000176745
0.000116811
0.000225479
6.79781e-05
0.000277809
3.71781e-06
0.000327787
-7.29473e-05
0.000356707
-0.000151375
0.000332201
-0.00021566
0.000223197
-0.000244651
2.30851e-05
-0.000230778
-0.000199136
-0.000163036
-0.000351178
-5.71194e-05
-0.000278765
6.69799e-05
5.5043e-05
2.88325e-05
0.000108327
-0.000310671
0.000107828
-0.000329225
7.95176e-05
-0.000149545
3.5407e-05
8.66472e-05
-1.28555e-05
0.0002851
-6.61781e-05
0.000393268
-0.000116671
0.000410036
-0.000159648
0.000369157
-0.000192995
0.000306417
-0.000217693
0.000242836
-0.000235045
0.000185473
-0.000246459
0.00013373
-0.000252247
8.48389e-05
-0.000251712
3.60827e-05
-0.000244516
-1.25843e-05
-0.000230158
-5.99675e-05
-0.000207997
-0.000105373
-0.000179642
-0.00014511
-0.000145656
-0.000178878
-0.000108046
-0.000203981
-6.83255e-05
-0.000220424
-2.78225e-05
-0.000228368
1.19147e-05
-0.000228367
5.0152e-05
-0.000220465
8.54132e-05
-0.000205289
0.000116328
-0.000182323
0.000141328
-0.000153145
0.000158793
-0.000118053
0.000168849
-8.0272e-05
0.000170513
-4.0852e-05
0.000164568
-3.75921e-06
0.000151896
2.99432e-05
0.000134187
5.82205e-05
0.000112983
7.95507e-05
8.98144e-05
9.316e-05
6.63452e-05
0.000100424
4.23925e-05
0.000104403
1.93099e-05
0.000103525
-3.50667e-06
0.000103102
-2.63907e-05
0.000103275
-4.96484e-05
0.000103941
-7.37111e-05
0.000104257
-9.72785e-05
0.000100306
-0.000120685
9.2958e-05
-0.000142022
7.8754e-05
-0.000160234
5.78107e-05
-0.000173308
2.95336e-05
-0.000179807
-4.07022e-06
-0.000178519
-4.17432e-05
-0.000169013
-8.17143e-05
-0.000151324
-0.000121268
-0.000125311
-0.000158072
-9.303e-05
-0.000188498
-5.5925e-05
-0.000212187
-1.60929e-05
-0.00022703
2.50024e-05
-0.000234012
6.63259e-05
-0.00023282
0.000106724
-0.000223725
0.000145032
-0.000206665
0.000179535
-0.000180572
0.00020886
-0.000146007
0.000230902
-0.000103581
0.000244841
-5.59119e-05
0.000250606
-5.50712e-06
0.000248597
4.60933e-05
0.000239888
9.60186e-05
0.000224886
0.000146336
0.000203846
0.000197786
0.000176039
0.000253288
0.000140613
0.000313233
9.72355e-05
0.000371165
4.77262e-05
0.000406215
-2.9067e-06
0.000382825
-4.64949e-05
0.000266785
-8.72627e-05
6.38502e-05
-0.000112278
-0.000174121
-0.000111119
-0.000352338
-5.70723e-05
-0.000332812
9.9083e-06
1.9219e-05
9.61223e-06
-1.77982e-05
-0.000273655
-8.76027e-05
-0.000259423
-0.000152111
-8.50379e-05
-0.000198817
0.000133352
-0.000226762
0.000313044
-0.000243928
0.000410434
-0.000258329
0.000424436
-0.000273405
0.000384234
-0.000289194
0.000322206
-0.000303857
0.000257499
-0.000315233
0.000196849
-0.000322346
0.00014084
-0.000324298
8.67899e-05
-0.000319665
3.14489e-05
-0.000307192
-2.50572e-05
-0.000286355
-8.08047e-05
-0.000257612
-0.000134117
-0.000220544
-0.000182177
-0.000177292
-0.000222129
-0.000129867
-0.000251407
-8.0238e-05
-0.000270053
-2.99548e-05
-0.000278651
1.91082e-05
-0.000277429
6.65969e-05
-0.000267953
0.000110927
-0.000249618
0.000150039
-0.000221434
0.000181572
-0.000184677
0.000204276
-0.000140757
0.000216235
-9.22312e-05
0.000218022
-4.26388e-05
0.000210199
4.06437e-06
0.000194252
4.58892e-05
0.000171069
8.14043e-05
0.000143481
0.000107138
0.000113974
0.000122668
8.44038e-05
0.000129994
5.46144e-05
0.000134192
2.56321e-05
0.000132507
-3.02343e-06
0.000131757
-3.15961e-05
0.000131847
-6.0451e-05
0.000132796
-9.05217e-05
0.000134328
-0.000120158
0.000129942
-0.000149073
0.000121873
-0.000177088
0.000106768
-0.000200943
8.16658e-05
-0.000218098
4.66888e-05
-0.000227126
4.95715e-06
-0.000226734
-4.21344e-05
-0.000215446
-9.3003e-05
-0.000192753
-0.000143961
-0.000159932
-0.000190894
-0.000118648
-0.000229785
-7.16717e-05
-0.000259165
-2.15626e-05
-0.000277141
2.96197e-05