/*--------------------------------*- C++ -*----------------------------------*\
| =========                 |                                                 |
| \\      /  F ield         | OpenFOAM: The Open Source CFD Toolbox           |
|  \\    /   O peration     | Version:  2412                                  |
|   \\  /    A nd           | Website:  www.openfoam.com                      |
|    \\/     M anipulation  |                                                 |
\*---------------------------------------------------------------------------*/
FoamFile
{
    version     2.0;
    format      ascii;
    arch        "LSB;label=32;scalar=64";
    class       volScalarField;
    location    "5.65";
    object      p_rgh;
}
// * * * * * * * * * * * * * * * * * * * * * * * * * * * * * * * * * * * * * //

dimensions      [1 -1 -2 0 0 0 0];

internalField   nonuniform List<scalar> 
6400
(
7254.78
7254.9
7255.19
7255.66
7256.33
7257.19
7258.27
7259.58
7261.13
7262.93
7264.98
7267.29
7269.84
7272.62
7275.61
7278.77
7282.07
7285.45
7288.87
7292.26
7295.56
7298.73
7301.69
7304.39
7306.8
7308.88
7310.61
7311.97
7312.98
7313.64
7313.98
7314.04
7313.88
7313.55
7313.11
7312.61
7312.12
7311.69
7311.36
7311.16
7311.1
7311.19
7311.42
7311.77
7312.19
7312.65
7313.11
7313.48
7313.72
7313.78
7313.59
7313.12
7312.35
7311.23
7309.78
7308
7305.89
7303.49
7300.83
7297.97
7294.94
7291.81
7288.62
7285.44
7282.31
7279.29
7276.4
7273.67
7271.15
7268.84
7266.76
7264.91
7263.28
7261.89
7260.73
7259.78
7259.04
7258.51
7258.17
7258.02
7254.63
7254.75
7255.03
7255.49
7256.15
7257
7258.07
7259.37
7260.91
7262.7
7264.75
7267.06
7269.62
7272.42
7275.44
7278.64
7281.98
7285.41
7288.88
7292.32
7295.68
7298.89
7301.9
7304.65
7307.09
7309.19
7310.93
7312.29
7313.29
7313.92
7314.23
7314.25
7314.02
7313.64
7313.15
7312.6
7312.07
7311.6
7311.23
7311.01
7310.96
7311.06
7311.31
7311.69
7312.16
7312.67
7313.16
7313.58
7313.89
7313.99
7313.84
7313.4
7312.64
7311.53
7310.07
7308.27
7306.14
7303.71
7301.01
7298.1
7295.02
7291.84
7288.61
7285.39
7282.22
7279.15
7276.23
7273.49
7270.95
7268.64
7266.55
7264.7
7263.08
7261.69
7260.53
7259.59
7258.85
7258.33
7258
7257.86
7254.33
7254.44
7254.7
7255.14
7255.77
7256.59
7257.64
7258.91
7260.44
7262.22
7264.27
7266.59
7269.18
7272.02
7275.1
7278.37
7281.8
7285.33
7288.91
7292.46
7295.94
7299.25
7302.36
7305.19
7307.7
7309.85
7311.61
7312.97
7313.93
7314.51
7314.75
7314.69
7314.31
7313.84
7313.23
7312.58
7311.95
7311.42
7310.96
7310.72
7310.65
7310.78
7311.08
7311.52
7312.08
7312.69
7313.3
7313.83
7314.23
7314.42
7314.35
7313.97
7313.25
7312.16
7310.69
7308.86
7306.67
7304.17
7301.39
7298.38
7295.21
7291.93
7288.6
7285.28
7282.03
7278.89
7275.91
7273.12
7270.55
7268.21
7266.11
7264.25
7262.64
7261.27
7260.12
7259.19
7258.47
7257.96
7257.64
7257.5
7253.85
7253.95
7254.18
7254.59
7255.18
7255.97
7256.97
7258.21
7259.7
7261.46
7263.51
7265.85
7268.48
7271.39
7274.56
7277.95
7281.52
7285.21
7288.96
7292.69
7296.34
7299.83
7303.08
7306.05
7308.66
7310.88
7312.67
7314.02
7314.94
7315.44
7315.54
7315.33
7314.83
7314.16
7313.37
7312.54
7311.76
7311.08
7310.55
7310.24
7310.16
7310.32
7310.69
7311.25
7311.95
7312.72
7313.51
7314.21
7314.77
7315.11
7315.16
7314.88
7314.22
7313.15
7311.66
7309.78
7307.51
7304.9
7301.99
7298.83
7295.5
7292.06
7288.57
7285.11
7281.72
7278.47
7275.39
7272.53
7269.9
7267.53
7265.42
7263.57
7261.97
7260.61
7259.49
7258.58
7257.88
7257.38
7257.09
7256.96
7253.22
7253.29
7253.5
7253.86
7254.4
7255.13
7256.07
7257.24
7258.68
7260.41
7262.45
7264.81
7267.5
7270.5
7273.8
7277.36
7281.13
7285.04
7289.02
7293
7296.9
7300.62
7304.09
7307.24
7310
7312.32
7314.16
7315.5
7316.36
7316.73
7316.67
7316.25
7315.53
7314.6
7313.54
7312.47
7311.45
7310.59
7309.93
7309.54
7309.44
7309.65
7310.13
7310.85
7311.75
7312.75
7313.78
7314.74
7315.53
7316.08
7316.31
7316.16
7315.58
7314.53
7313.03
7311.07
7308.68
7305.91
7302.82
7299.45
7295.9
7292.23
7288.53
7284.85
7281.28
7277.87
7274.66
7271.69
7269
7266.59
7264.46
7262.62
7261.05
7259.72
7258.63
7257.76
7257.09
7256.62
7256.34
7256.22
7252.44
7252.49
7252.65
7252.96
7253.43
7254.08
7254.92
7256.01
7257.36
7259.04
7261.05
7263.43
7266.19
7269.31
7272.78
7276.55
7280.57
7284.77
7289.08
7293.39
7297.61
7301.65
7305.42
7308.81
7311.77
7314.22
7316.12
7317.46
7318.23
7318.45
7318.17
7317.47
7316.42
7315.14
7313.73
7312.32
7311
7309.88
7309.04
7308.54
7308.42
7308.69
7309.32
7310.26
7311.44
7312.76
7314.12
7315.41
7316.53
7317.36
7317.83
7317.85
7317.38
7316.38
7314.84
7312.78
7310.23
7307.25
7303.9
7300.25
7296.41
7292.44
7288.44
7284.49
7280.67
7277.05
7273.67
7270.58
7267.8
7265.34
7263.22
7261.4
7259.87
7258.59
7257.56
7256.73
7256.09
7255.66
7255.41
7255.31
7251.53
7251.54
7251.65
7251.9
7252.28
7252.81
7253.53
7254.48
7255.72
7257.31
7259.28
7261.68
7264.5
7267.76
7271.44
7275.48
7279.83
7284.41
7289.11
7293.85
7298.5
7302.95
7307.09
7310.81
7314.02
7316.65
7318.65
7319.97
7320.63
7320.65
7320.08
7319.01
7317.55
7315.81
7313.94
7312.07
7310.34
7308.88
7307.8
7307.16
7307.02
7307.37
7308.19
7309.42
7310.97
7312.71
7314.52
7316.26
7317.8
7319.01
7319.78
7320.03
7319.69
7318.73
7317.15
7314.95
7312.19
7308.93
7305.25
7301.25
7297.01
7292.66
7288.29
7283.99
7279.86
7275.97
7272.39
7269.14
7266.26
7263.77
7261.64
7259.87
7258.41
7257.22
7256.26
7255.49
7254.89
7254.53
7254.31
7254.23
7250.51
7250.46
7250.51
7250.69
7250.96
7251.34
7251.87
7252.64
7253.71
7255.16
7257.07
7259.46
7262.36
7265.79
7269.72
7274.09
7278.85
7283.89
7289.11
7294.38
7299.57
7304.54
7309.16
7313.3
7316.84
7319.7
7321.81
7323.13
7323.66
7323.42
7322.48
7320.94
7318.93
7316.6
7314.12
7311.66
7309.41
7307.51
7306.11
7305.28
7305.1
7305.57
7306.66
7308.27
7310.3
7312.59
7314.98
7317.3
7319.38
7321.07
7322.24
7322.77
7322.61
7321.7
7320.04
7317.67
7314.63
7311.01
7306.91
7302.44
7297.72
7292.88
7288.04
7283.31
7278.8
7274.58
7270.74
7267.31
7264.33
7261.79
7259.7
7258
7256.65
7255.59
7254.75
7254.06
7253.65
7253.24
7253.01
7252.97
7249.38
7249.23
7249.23
7249.34
7249.48
7249.65
7249.93
7250.44
7251.26
7252.53
7254.32
7256.69
7259.68
7263.3
7267.53
7272.31
7277.56
7283.17
7289.02
7294.96
7300.83
7306.46
7311.68
7316.35
7320.32
7323.48
7325.75
7327.05
7327.42
7326.87
7325.46
7323.32
7320.61
7317.52
7314.26
7311.05
7308.11
7305.64
7303.82
7302.75
7302.53
7303.16
7304.58
7306.69
7309.34
7312.34
7315.48
7318.55
7321.33
7323.63
7325.29
7326.19
7326.23
7325.37
7323.62
7321.02
7317.63
7313.55
7308.92
7303.86
7298.54
7293.09
7287.66
7282.4
7277.41
7272.8
7268.65
7265.01
7261.91
7259.35
7257.3
7255.72
7254.54
7253.68
7253.02
7252.47
7252.09
7251.69
7251.49
7251.52
7248.25
7247.96
7247.96
7247.97
7247.81
7247.61
7247.6
7247.8
7248.28
7249.29
7250.92
7253.25
7256.33
7260.16
7264.75
7270.01
7275.87
7282.19
7288.82
7295.59
7302.29
7308.74
7314.72
7320.05
7324.57
7328.11
7330.59
7331.92
7332.09
7331.13
7329.14
7326.25
7322.65
7318.59
7314.33
7310.15
7306.32
7303.11
7300.75
7299.38
7299.1
7299.93
7301.79
7304.55
7308.01
7311.93
7316.04
7320.06
7323.72
7326.79
7329.07
7330.41
7330.7
7329.9
7328.02
7325.11
7321.26
7316.61
7311.31
7305.52
7299.43
7293.23
7287.09
7281.16
7275.6
7270.52
7266.01
7262.12
7258.89
7256.32
7254.35
7252.95
7252
7251.36
7250.94
7250.8
7250.5
7250.12
7249.85
7249.98
7247.43
7247.01
7246.51
7245.66
7244.78
7244.51
7244.56
7244.58
7244.59
7245.31
7246.73
7248.98
7252.13
7256.22
7261.22
7267.07
7273.66
7280.85
7288.44
7296.23
7303.97
7311.43
7318.37
7324.54
7329.73
7333.77
7336.52
7337.88
7337.83
7336.39
7333.66
7329.83
7325.12
7319.83
7314.28
7308.85
7303.88
7299.72
7296.66
7294.89
7294.55
7295.63
7298.07
7301.68
7306.19
7311.3
7316.64
7321.87
7326.65
7330.69
7333.74
7335.61
7336.2
7335.45
7333.39
7330.08
7325.65
7320.27
7314.12
7307.43
7300.4
7293.28
7286.25
7279.53
7273.27
7267.62
7262.68
7258.51
7255.15
7252.57
7250.72
7249.52
7248.83
7248.22
7247.56
7247.28
7247.65
7248.12
7248.31
7248.61
7247.45
7246.17
7243.54
7240.41
7238.82
7239.24
7240.1
7240.27
7240.06
7240.41
7241.54
7243.68
7246.91
7251.28
7256.77
7263.31
7270.79
7279.03
7287.8
7296.84
7305.87
7314.58
7322.7
7329.91
7335.97
7340.64
7343.75
7345.18
7344.87
7342.85
7339.23
7334.23
7328.11
7321.26
7314.08
7307.03
7300.59
7295.2
7291.23
7288.96
7288.53
7289.96
7293.16
7297.86
7303.73
7310.36
7317.28
7324.05
7330.24
7335.48
7339.48
7342.01
7342.94
7342.22
7339.89
7336.07
7330.9
7324.6
7317.41
7309.59
7301.41
7293.14
7285.05
7277.35
7270.26
7263.94
7258.5
7254
7250.49
7247.92
7246.2
7245.16
7244.67
7243.62
7241.81
7240.57
7241.6
7244.37
7246.81
7247.98
7248.44
7245.83
7239.15
7232.38
7230.53
7232.4
7234.34
7234.78
7234.38
7234.33
7235.14
7237.12
7240.42
7245.1
7251.16
7258.52
7267.07
7276.57
7286.77
7297.35
7307.96
7318.23
7327.8
7336.33
7343.47
7348.95
7352.54
7354.08
7353.49
7350.77
7346.06
7339.6
7331.74
7322.91
7313.64
7304.53
7296.2
7289.21
7284.07
7281.14
7280.6
7282.49
7286.66
7292.79
7300.43
7309.03
7317.98
7326.7
7334.66
7341.4
7346.55
7349.86
7351.16
7350.44
7347.75
7343.25
7337.14
7329.69
7321.19
7311.98
7302.38
7292.72
7283.32
7274.46
7266.37
7259.25
7253.23
7248.37
7244.7
7242.17
7240.63
7239.81
7239.25
7237.67
7234.54
7231.53
7232.15
7239.12
7245.61
7248.11
7250.77
7246.93
7236.94
7229.17
7225.56
7227.31
7228.65
7228.54
7227.57
7226.92
7227.28
7229.03
7232.37
7237.4
7244.1
7252.41
7262.24
7273.29
7285.24
7297.69
7310.24
7322.43
7333.81
7343.96
7352.46
7358.97
7363.2
7364.92
7364.01
7360.47
7354.44
7346.19
7336.13
7324.81
7312.88
7301.12
7290.33
7281.28
7274.62
7270.84
7270.17
7272.65
7278.11
7286.11
7296.05
7307.19
7318.74
7329.95
7340.12
7348.71
7355.26
7359.48
7361.21
7360.42
7357.23
7351.83
7344.51
7335.61
7325.5
7314.57
7303.22
7291.87
7280.89
7270.62
7261.36
7253.31
7246.62
7241.36
7237.56
7235.11
7233.86
7233.43
7233.2
7231.96
7228.6
7223.79
7226.34
7234.88
7245.65
7249.33
7255.28
7250.77
7240.43
7232.15
7226.78
7225.45
7224.03
7222
7219.68
7218.04
7217.73
7219.13
7222.47
7227.86
7235.29
7244.64
7256.08
7269.01
7283.07
7297.81
7312.73
7327.28
7340.89
7353.04
7363.23
7371.05
7376.1
7378.09
7376.84
7372.33
7364.7
7354.26
7341.48
7327.01
7311.67
7296.48
7282.51
7270.78
7262.14
7257.24
7256.39
7259.68
7266.83
7277.28
7290.21
7304.65
7319.55
7333.91
7346.85
7357.7
7365.94
7371.24
7373.41
7372.49
7368.62
7362.05
7353.23
7342.53
7330.42
7317.39
7303.91
7290.49
7277.59
7265.62
7254.97
7245.84
7238.41
7232.74
7228.84
7226.59
7225.8
7226.13
7226.98
7227.45
7225.12
7224.1
7228.41
7236.22
7248.26
7252.44
7262.15
7257.6
7248.15
7238.44
7231.48
7225.43
7220.13
7215.05
7210.62
7207.51
7206.23
7207.09
7210.33
7216.12
7224.46
7235.06
7248.44
7263.53
7280.1
7297.61
7315.42
7332.85
7349.19
7363.8
7376.07
7385.56
7391.66
7394.04
7392.45
7386.82
7377.26
7364.13
7347.98
7329.54
7309.84
7290.18
7272.06
7256.81
7245.56
7239.17
7238.11
7242.46
7251.88
7265.56
7282.4
7301.14
7320.38
7338.73
7355.1
7368.71
7378.98
7385.51
7388.16
7386.98
7382.2
7374.2
7363.5
7350.6
7336.05
7320.44
7304.38
7288.47
7273.28
7259.31
7246.95
7236.55
7228.28
7222.21
7218.29
7216.38
7216.32
7217.85
7220.52
7223.74
7226.84
7229.61
7233.65
7244.25
7253.54
7257.6
7270.56
7265.66
7256.62
7245.8
7235
7224.9
7215.53
7207.01
7199.94
7194.91
7192.27
7192.28
7195.22
7201.36
7210.88
7223.75
7238.54
7256.03
7275.64
7296.61
7318.07
7339.14
7358.92
7376.59
7391.46
7402.99
7410.4
7413.3
7411.33
7404.37
7392.55
7376.2
7355.93
7332.51
7307.18
7281.73
7258.14
7238.19
7223.37
7214.94
7213.59
7219.44
7231.97
7250.01
7272.04
7296.39
7321.22
7344.63
7365.23
7382.17
7394.79
7402.73
7405.89
7404.36
7398.47
7388.67
7375.64
7359.96
7342.34
7323.5
7304.21
7285.22
7267.27
7250.98
7236.59
7224.68
7215.55
7209.17
7205.37
7204.05
7205.06
7208.2
7213.13
7219.35
7226.39
7234.18
7242.79
7251.91
7259.95
7263.94
7280.68
7276.02
7265.9
7252.7
7238.28
7223.79
7209.87
7197.18
7186.61
7178.88
7174.26
7172.94
7175.23
7181.51
7192.27
7206.93
7224.02
7244.45
7267.94
7293.41
7319.64
7345.41
7369.6
7391.2
7409.39
7423.5
7432.79
7436.55
7434.33
7425.9
7411.39
7391.17
7365.94
7336.22
7303.46
7270.28
7239.56
7213.67
7194.37
7183.25
7181.51
7189.4
7205.89
7229.48
7258.24
7290.01
7322.35
7352.32
7377.97
7398.86
7414.24
7423.72
7427.19
7424.86
7417.25
7405.04
7388.96
7369.85
7348.41
7325.46
7301.93
7278.91
7257.59
7238.83
7222.56
7208.56
7198.59
7192.05
7188.56
7188.17
7190.83
7196.32
7204.28
7214.09
7225.04
7236.62
7248.33
7259.24
7267.53
7271.58
7291.84
7287.14
7276.16
7260.39
7242.02
7222.6
7203.08
7184.75
7169.47
7158.33
7151.36
7148.46
7149.92
7156.13
7169.15
7185.39
7202.87
7226.13
7254.62
7286.22
7318.81
7350.7
7380.25
7406.31
7428.31
7445.79
7457.63
7463.01
7461.15
7451.84
7435.03
7410.65
7379.15
7341.43
7299.55
7256.5
7215.89
7181.36
7154.67
7138.75
7136.28
7147.94
7171.26
7203.27
7241.45
7282.87
7324.52
7362.6
7394.85
7420.34
7438.2
7448.5
7451.39
7447.32
7437.02
7421.41
7401.57
7378.7
7353.07
7325.25
7296.12
7267.38
7241.37
7220.52
7204.42
7187.25
7177.05
7170.33
7166.89
7167.43
7172.15
7180.84
7193.09
7207.88
7223.82
7239.71
7254.54
7267.09
7275.69
7279.33
6802.34
6770.17
6592.85
6353.09
6093.26
5802.29
5470.22
5135.65
4862.56
4671.85
4550.38
4497.33
4529.92
4633.43
4808.42
5035.12
5398.19
5814.77
6236.98
6632.7
6969.77
7215.09
7357.04
7421.54
7451.39
7473.96
7489.67
7497.45
7496.01
7485.59
7466.29
7429.69
7386.55
7115.17
6564.19
5905.95
5184.18
4570.48
4093.72
3795.39
3750.76
3981.33
4411.89
4987.98
5691.05
6359.28
6960.95
7353.82
7401.86
7449.89
7469.9
7480.76
7482.75
7476.13
7461.93
7441.51
7407.84
7339.53
7215.28
7012.32
6722.1
6372.18
6002.5
5653.57
5358.17
5160.25
5065.05
4932.27
4835.72
4829.64
4910.19
5061.25
5280.07
5548.11
5827.73
6081.85
6300.15
6488.02
6623.65
6644.48
1826.49
1807.57
1679.21
1422.73
1114.17
837.003
591.762
383.453
247.104
166.713
112.926
74.0333
45.7302
26.08
16.9936
64.4213
200.213
431.095
797.539
1318.82
1997.73
2808.79
3663.86
4498.47
5177.2
5627.37
5920.89
6044.34
5944.23
5630.26
5122.43
4409.05
3472.86
2475.07
1589.55
955.747
588.447
341.238
172.019
86.6135
71.3968
123.291
268.641
495.642
804.212
1308.45
2066.23
3001.9
3984.18
4753.66
5298.38
5634.32
5742
5630
5344.22
4924.93
4250.89
3527.42
2818.49
2120.24
1487.43
981.039
614.967
374.167
226.284
167.542
141.054
138.108
159.454
193.21
244.093
324.765
451.072
621.415
826.563
1050.58
1280
1467.44
1564.16
1589.08
3.65477
3.03851
3.26669
4.42963
4.61451
4.85493
5.11039
4.79016
4.38649
4.09027
4.09815
4.50735
4.86152
4.1375
3.49964
3.14937
2.68321
2.23012
1.76625
1.22877
0.572248
-0.138721
-0.776603
-0.809993
83.0058
291.491
482.134
640.253
658.652
600.96
447.336
239.058
66.2179
1.94716
5.98469
9.09428
8.98263
8.15164
7.09628
5.05596
4.03607
5.09098
6.21253
5.83871
3.97181
3.83965
1.9172
22.2032
128.324
304.576
445.597
498.408
469.945
338.747
180.077
14.6469
-0.0411585
-0.0360868
0.127083
0.218697
0.297976
0.460928
0.693056
0.911776
1.09616
1.85496
3.75889
4.49031
4.42055
3.92439
3.55553
3.69986
4.05613
4.33578
3.79052
2.87782
2.42813
1.99715
1.53871
1.95855
2.35363
2.04777
1.47147
1.87164
2.14879
2.37222
2.72732
3.14532
3.34445
3.47205
3.77045
4.32732
4.93667
5.36619
5.25206
4.80623
4.43609
4.11111
3.44246
2.19366
0.873587
-0.0175315
-0.297315
-0.307063
-0.480823
-0.706121
-0.841539
-0.915906
-0.793551
-0.49315
-0.0979911
0.319261
0.621244
0.77418
5.64326
8.81564
7.651
5.105
3.04109
2.25787
1.94195
2.08695
2.55596
2.81312
2.24048
3.75323
1.30379
1.50039
1.52548
1.10194
0.700827
0.562165
0.518131
0.462
0.380717
0.326751
0.214546
0.232886
0.309391
0.357116
0.397222
0.490157
0.640586
0.792367
1.32045
3.31476
4.46001
4.40755
4.49347
4.27625
3.47749
3.61214
3.73654
3.60792
2.91705
1.98641
1.52671
1.30277
0.924767
0.948689
2.42609
1.95291
1.11417
1.34349
1.5676
1.76217
1.98975
2.42888
2.86819
3.45858
5.26122
5.72802
6.17532
6.4326
6.40119
6.094
5.60424
5.03966
4.50334
4.06236
3.71514
1.55976
0.702619
0.903973
0.157513
-0.699708
-0.784231
-0.737963
-0.576996
-0.277712
0.034537
0.355288
0.677424
0.958681
1.151
1.83124
7.95138
5.87402
2.15516
1.78953
1.69176
1.66876
1.93749
2.06027
1.65625
1.39736
1.26719
2.45155
4.33866
4.77744
4.84857
1.57851
0.558701
1.12662
1.69173
1.65941
0.870105
0.310884
0.357517
0.411847
0.488432
0.609503
0.755855
0.86027
0.922342
1.33563
2.40435
3.80173
3.93309
3.2553
3.24553
3.94005
4.10756
3.88921
2.96834
1.87488
1.54975
1.29504
0.823973
0.829355
1.97031
1.88758
0.930814
1.0556
1.16632
1.2207
1.2499
2.53069
4.1515
4.30317
4.64407
5.13838
5.61027
5.85262
5.59507
4.05039
2.71256
2.1816
2.2817
2.89928
2.98758
2.56848
2.21717
1.09573
-0.39244
-0.520784
-0.555306
-0.538473
-0.457957
-0.307814
-0.109313
0.113844
0.354596
0.567224
0.707477
0.835962
1.4904
4.55658
2.3406
1.58193
1.58736
1.53696
2.35867
1.36006
1.02594
0.945274
1.07159
4.25186
5.29429
5.15719
4.77528
0.447042
0.464901
0.424594
1.02226
1.63388
1.48805
0.697878
0.397916
0.442734
0.520244
0.66361
0.804894
0.892588
0.923913
0.896045
0.850688
0.827795
0.84927
0.878395
0.886191
2.8008
3.06568
0.845919
0.796945
1.98114
2.63463
2.63451
0.787676
0.795098
2.25373
1.30736
0.83069
0.824501
0.760201
0.673581
3.21254
3.74089
3.47984
3.53761
3.89362
4.43187
4.97255
5.27074
1.35622
0.610586
0.521573
0.363431
0.165162
-0.0358982
-0.0271466
-0.118768
-0.432971
-0.566365
-0.624161
-0.678595
-0.708024
-0.677872
-0.588531
-0.449164
-0.283197
-0.107571
0.0668805
0.227763
0.37464
0.527367
0.71606
1.61095
2.54272
1.5265
1.48839
1.64248
2.30056
1.32901
0.858914
0.803279
0.790306
0.867007
1.69941
2.05729
0.377999
0.399337
0.401549
0.361271
0.311652
0.313697
0.363398
0.432603
0.495307
0.607855
0.757533
0.859712
0.967485
1.05343
1.00631
0.915089
0.859751
0.83712
0.92926
1.19007
0.94792
0.831278
0.831888
0.780007
0.734232
0.698113
2.00728
2.65783
0.976003
0.772471
2.31554
0.889573
0.805491
0.661027
0.475437
3.28029
3.27364
2.94383
2.42317
0.637778
3.14306
3.74226
4.40158
1.82673
0.0986141
0.196323
0.187136
0.0952771
-0.0373265
-0.159586
-0.285845
-0.407963
-0.521815
-0.60512
-0.66418
-0.712303
-0.737106
-0.713424
-0.638976
-0.524966
-0.393481
-0.258823
-0.122804
0.0125739
0.13548
0.258401
0.405968
0.613393
2.30091
1.94687
1.31508
1.80556
2.08333
1.2023
0.730255
0.704341
0.722769
0.592783
0.448721
0.314765
0.894394
1.12817
0.959102
0.373176
0.357539
0.362252
0.395815
0.471881
0.628803
0.696002
0.76869
0.856179
0.90204
0.936532
0.996938
0.9093
0.840481
0.934245
1.18316
1.15359
1.12156
1.10053
1.05753
0.725497
0.678503
0.671221
0.691781
1.89747
1.8525
0.764662
2.41751
0.982345
0.795797
0.529174
3.17633
3.21646
2.73098
2.2477
-1.03033
-1.00641
0.286639
3.22278
4.00875
-0.147628
-0.301041
-0.140326
-0.0893397
-0.122819
-0.00765963
0.0405906
-0.041576
-0.152863
-0.457016
-0.645581
-0.719423
-0.783991
-0.820191
-0.805429
-0.736883
-0.626925
-0.504437
-0.389441
-0.272587
-0.145536
-0.0369648
0.0572845
0.167478
0.318441
1.87341
1.98449
1.11997
1.88118
1.92842
0.897117
0.633759
0.631506
0.680048
0.568885
0.438477
0.331968
0.356327
0.528502
0.542617
0.390364
0.382906
0.442905
0.551158
0.582516
0.621082
0.540914
0.519917
0.595749
0.691744
0.769825
0.815389
0.828517
0.797805
0.727897
0.656755
0.595949
0.659286
1.0002
0.979539
0.988234
0.949307
0.642643
0.68367
0.731926
2.02988
0.78495
1.79193
1.03743
0.768973
0.6145
3.51714
2.95812
2.30465
-0.986415
-1.32682
-1.37004
1.53339
2.95692
3.72814
0.193644
-0.566327
-0.395371
-0.302624
-0.262426
0.0485472
-0.0197665
-0.0844619
-0.224293
-0.593776
-0.708773
-0.795241
-0.873772
-0.918111
-0.906406
-0.839169
-0.331945
0.0683105
-0.164444
-0.404304
-0.283842
-0.177029
-0.0976305
-0.0128044
0.0983347
1.2152
1.7155
1.41583
1.1311
1.77072
0.580784
0.542504
0.554382
0.935872
0.968521
0.397179
0.315269
0.266458
0.251744
0.315086
0.387619
0.375977
0.364523
0.317359
0.288742
0.314669
0.373595
0.45446
0.551362
0.644623
0.713136
0.744703
0.740485
0.705238
0.633283
0.544595
0.465574
0.407015
0.372952
0.385982
0.837978
0.877123
0.805322
0.636746
0.703574
1.87049
0.871905
1.15374
1.04285
0.823754
3.71869
3.47992
2.87885
2.23865
-1.1098
-1.38126
-1.43213
2.23027
2.90715
3.63523
1.0899
-0.762794
-0.560411
-0.443448
-0.0944639
-0.0373825
-0.0845369
-0.291487
-0.631074
-0.696995
-0.786597
-0.890519
-0.98687
-1.04441
-1.03941
-0.94817
0.790601
2.77526
0.312516
-0.512049
-0.415429
-0.312589
-0.238035
-0.159784
-0.0720142
0.199896
1.51856
1.64295
0.78312
1.26356
0.451743
0.446287
0.462683
1.04616
1.19954
0.332137
0.265948
0.230821
0.223033
0.22053
0.214465
0.206427
0.20278
0.207908
0.224199
0.279444
0.352295
0.430349
0.488948
0.568764
0.620073
0.634301
0.625323
0.579795
0.490343
0.374597
0.267457
0.198439
0.160135
0.176573
0.228686
0.380525
0.456461
0.545801
0.63704
1.77595
0.925022
1.14614
1.04893
0.932548
4.15766
3.52506
2.9443
2.43315
-0.801539
-1.25937
-1.30759
1.17132
3.01986
3.71326
1.28893
-0.85373
-0.634364
-0.510278
-0.0638971
-0.0786208
-0.232395
-0.619778
-0.678183
-0.758385
-0.862305
-0.986149
-1.10409
-1.18123
-1.1896
-1.13189
-0.562814
3.12929
3.78697
0.647835
-0.544807
-0.462188
-0.3797
-0.299641
-0.221336
-0.110084
1.09884
1.39178
0.600293
0.385841
0.343261
0.345288
0.356941
0.916852
1.207
0.25459
0.198463
0.179105
0.185861
0.18668
0.181558
0.175956
0.17183
0.180923
0.23825
0.266538
0.310076
0.358884
0.402591
0.466274
0.488195
0.481635
0.479706
0.646981
1.33303
1.91281
2.03956
1.48543
0.918794
0.0683476
-0.0142029
0.148405
0.286527
0.418651
0.539868
1.37293
1.12428
1.18668
1.08917
0.740573
4.21103
3.67386
3.11686
2.50115
-0.762911
-0.986133
-1.02022
2.475
3.36752
3.95239
0.914687
-0.827283
-0.625585
-0.512503
-0.12637
-0.0772227
-0.575813
-0.636706
-0.705354
-0.798944
-0.912821
-1.0562
-1.19368
-1.29626
-1.31965
-1.2671
-1.18267
2.96885
3.83104
4.00359
2.09047
-0.577941
-0.531716
-0.44214
-0.362966
-0.25541
0.0449827
0.62854
0.480308
0.212118
0.23443
0.245781
0.256056
0.844206
1.18288
0.172393
0.123981
0.127907
0.151645
0.15127
0.142928
0.13847
0.135498
0.178815
0.201068
0.21167
0.234887
0.235887
0.297926
0.333384
0.318875
0.284728
1.32766
3.82709
4.71791
4.45128
4.25779
4.1644
4.17742
4.28345
4.05145
1.92411
0.12458
0.24506
0.411001
0.632156
1.04845
4.62013
3.89347
0.945691
0.725401
3.84467
3.41724
0.898295
-0.35779
-0.599129
1.7431
3.53981
3.85361
4.40231
0.392455
-0.7235
-0.552246
-0.466024
-0.110743
-0.1177
-0.554333
-0.629704
-0.7086
-0.809682
-0.793062
-1.008
-1.24021
-1.3738
-1.40985
-1.3661
-0.857232
3.51205
3.83433
3.93774
4.07777
1.17304
-0.697388
-0.586255
-0.496023
-0.37888
-0.221
0.02923
0.366338
0.104524
0.136795
0.15566
0.164967
0.909989
1.82788
0.0991374
0.0624256
0.282236
0.803393
0.191069
0.0960775
0.0914418
0.0898074
0.107935
0.156831
0.160553
0.12366
0.161316
0.200608
0.200201
0.14913
0.182106
4.95211
4.57202
4.14303
3.77535
3.4994
3.35988
3.3698
3.53841
3.84882
4.223
4.53436
2.91326
0.270612
0.522426
0.746544
6.08625
5.99537
1.43302
1.21419
0.87587
1.15816
0.993399
2.70661
3.9681
3.98971
4.11232
4.44011
4.92295
-0.176258
-0.596078
-0.462392
-0.376958
0.0265109
-0.359107
-0.538066
-0.60407
-0.690228
-0.534987
0.0911541
-0.252656
-1.25009
-1.41398
-1.46388
-1.43752
1.13124
3.80154
3.78209
3.85933
3.98831
1.47786
-0.865712
-0.718236
-0.615062
-0.374493
-0.260592
-0.0915457
0.267778
0.0345437
0.0524585
0.0780671
0.0943448
1.12953
1.89772
0.0846916
0.0322686
1.26371
3.25965
1.73167
0.0323876
0.0359952
0.0390426
0.0390906
0.0519627
0.0641646
0.0641001
0.0963242
0.111792
0.0871605
0.269871
3.12636
4.69293
4.12862
3.61511
3.16951
2.80403
2.61782
2.59755
2.76216
3.14611
3.65394
4.17584
4.61224
1.56523
0.391537
0.574229
6.22277
6.21717
5.71562
1.77717
1.51322
1.2031
1.70454
4.67347
4.63297
4.64283
4.78211
5.08174
2.02249
-0.58561
-0.460635
-0.370858
-0.145689
0.0977806
-0.262374
-0.496735
-0.568358
-0.64968
-0.00207018
0.200289
0.0207225
-0.875898
-1.42336
-1.49575
1.08235
3.84481
3.7522
3.74009
3.80724
3.31313
-0.163605
-0.938825
-0.470729
0.3162
0.775575
-0.158701
-0.213007
0.178603
0.147396
-0.022167
0.00978371
0.0417552
1.29553
1.88355
0.21392
0.177158
2.76326
3.25579
2.37073
-0.0366782
-0.022859
-0.0139291
-0.00839579
-0.00663495
-0.00170363
0.019176
0.058877
0.0390443
-0.0156573
0.381851
5.0095
4.45265
3.82942
3.27029
2.7417
0.818285
-1.09732
-2.55014
-1.92219
2.36135
3.12005
3.6668
4.27001
4.73337
0.462495
0.392508
2.18489
6.38126
6.23165
5.78865
2.18952
2.7231
5.65557
5.46667
5.33058
5.33474
5.50332
5.68436
0.392848
-0.395156
-0.326314
-0.280475
0.153308
0.162528
-0.306465
-0.454921
-0.5285
-0.61013
0.189707
0.274319
0.0975798
-0.123253
-1.38332
-1.10921
2.85151
3.85526
3.76881
3.7668
3.83632
3.97607
-0.258383
-0.569171
0.600468
0.739321
0.83259
0.810045
-0.316174
0.0986769
0.0740955
-0.0942071
-0.0571272
0.209428
2.7463
1.78816
0.197273
0.725907
4.25807
2.87361
-0.0414037
-0.100768
-0.0807579
-0.0663718
-0.0560764
-0.0507859
-0.0448878
0.00461524
0.0910638
0.048939
-0.0811385
0.215751
4.89866
4.34558
3.72635
3.1316
0.711087
-2.57691
-2.71804
-2.75031
-2.66281
-2.07703
2.82905
3.39457
4.00886
4.53925
1.37425
0.178329
0.694142
1.91507
2.85786
5.85381
6.49978
6.55281
6.32614
6.12817
6.05222
6.09212
6.16539
0.785668
-0.28389
-0.249769
-0.220202
-0.208239
0.201803
0.189412
-0.346938
-0.414625
-0.486996
-0.576345
-0.262951
0.366045
0.201286
0.0242126
-0.688732
-1.27877
-0.285854
3.9981
3.91293
3.90642
3.97046
4.09889
0.218218
0.435087
0.586697
0.705989
0.836334
0.439512
-0.403037
-0.0601161
-0.167409
-0.169376
-0.130034
0.498822
2.80315
1.77135
0.205712
1.75304
4.49725
0.537577
-0.196291
-0.161083
-0.137483
-0.11838
-0.104484
-0.097113
-0.0918931
-0.0350334
0.0614982
0.0486048
-0.101646
-0.266033
2.36279
4.39086
3.78736
3.17935
-1.05493
-2.47662
-2.62022
-2.66221
-2.58247
-2.3466
-0.187486
3.39998
3.94888
4.46752
1.96489
0.14008
0.695185
0.346291
0.37809
1.0739
3.04643
3.91495
3.04555
6.14844
6.71427
3.96643
-0.124631
-0.127277
-0.138378
-0.145047
-0.150051
-0.161742
0.203797
-0.279248
-0.320525
-0.376358
-0.444491
-0.52767
-0.487848
0.467498
0.324434
0.167264
-0.141706
-1.21993
-1.46576
0.745545
4.18906
4.16681
2.89347
0.251297
-0.376396
0.151425
0.603958
0.719926
0.0880085
-0.551455
-0.462592
-0.341295
-0.291514
-0.248623
-0.212818
0.94093
2.84465
1.88756
0.21936
2.99294
4.77481
-0.272132
-0.259174
-0.225586
-0.195519
-0.170939
-0.1537
-0.144967
-0.141909
-0.104396
-0.0644683
-0.111665
-0.208549
-0.390216
0.00352009
4.60144
4.02773
3.31297
2.64167
-2.05229
-2.35578
-2.39495
-2.30681
-2.08708
0.746973
3.61183
4.09392
4.56623
0.975599
0.236816
0.18434
0.201913
0.383698
0.308689
0.335659
0.454052
0.457202
0.154008
0.00614141
0.00531564
0.00767226
-0.00782108
0.0822157
-0.0418638
-0.110051
-0.0768331
-0.0718543
-0.249954
-0.290643
-0.340869
-0.402526
-0.477193
-0.547009
0.196967
0.456976
0.319122
0.160991
-1.09078
-1.31072
-1.15794
-0.48529
-0.243876
-1.19831
-1.31573
-1.16837
-0.804657
-0.177021
-0.530172
-0.666578
-0.594206
-0.476889
-0.395519
-0.349019
-0.328658
-0.146212
2.83369
2.84076
2.38047
0.265009
3.38789
5.15259
-0.356655
-0.334348
-0.298294
-0.257108
-0.224619
-0.203105
-0.192606
-0.191607
-0.185626
-0.186871
-0.205392
-0.280759
-0.451217
-0.271574
2.67545
4.35974
3.67006
3.2519
3.09256
-0.289506
1.72522
3.08573
2.38532
3.56965
3.93922
4.39516
2.98577
-0.22264
0.641529
0.143232
0.146839
0.151644
0.178504
0.464989
0.630264
0.396828
0.0940857
0.0783132
0.0654986
0.0523284
0.258282
0.222655
0.074091
-0.0875312
-0.000485884
-0.197019
-0.226785
-0.263989
-0.308177
-0.361942
-0.426664
-0.50306
-0.358608
0.585751
0.462753
0.344917
-0.586833
-1.09384
-1.19795
-1.26156
-1.27192
-1.22824
-1.14105
-1.03339
-0.929819
-0.824477
-0.722955
-0.620523
-0.526564
-0.449115
-0.409855
-0.398479
-0.40878
0.427044
2.79818
2.79034
2.77472
0.366544
3.02115
5.92481
0.71734
-0.431996
-0.385464
-0.325306
-0.279338
-0.251273
-0.237736
-0.237791
-0.248306
-0.258556
-0.281249
-0.35043
-0.502902
-0.736273
-1.01704
2.12153
4.12843
3.82505
3.67416
3.55804
3.52511
3.60794
3.77615
4.01085
4.35079
4.8226
3.85974
-0.169702
0.558705
0.125767
0.125342
0.127663
0.119275
0.102769
0.0847188
0.0735365
0.0863335
0.0941122
0.163687
0.371616
0.331422
0.230182
-0.0761658
-0.0730793
-0.0417642
-0.178835
-0.206693
-0.239328
-0.277621
-0.323273
-0.377666
-0.44187
-0.496307
0.188766
0.597601
0.506463
0.268645
-0.884042
-0.957736
-1.00793
-1.01722
-0.985529
-0.921386
-0.842408
-0.763132
-0.680869
-0.597305
-0.517027
-0.450413
-0.410556
-0.407144
-0.430532
-0.478886
0.720133
2.72207
2.71201
2.62006
3.39327
4.96024
5.95056
4.86079
-0.562493
-0.4868
-0.400203
-0.333301
-0.295627
-0.27785
-0.27708
-0.292404
-0.317844
-0.348298
-0.420714
-0.544312
-0.714256
-0.942567
-1.2097
-0.256869
3.35908
4.22056
4.15479
4.10799
4.15131
4.30575
4.55158
4.91529
5.34675
2.89791
-0.00291823
0.163588
0.111779
0.10929
0.109235
0.103811
0.0929309
0.0807247
0.0730454
0.122918
0.31397
0.411988
0.377714
0.327381
-0.0659807
-0.0911201
-0.112027
-0.139485
-0.162039
-0.187593
-0.215975
-0.248715
-0.286772
-0.331289
-0.383359
-0.442042
-0.399557
0.609125
0.634475
0.572153
0.125067
-0.760945
-0.790963
-0.796408
-0.771152
-0.721105
-0.659603
-0.59657
-0.534309
-0.473988
-0.420497
-0.382457
-0.370982
-0.391817
-0.44055
-0.508079
0.344739
1.51341
0.873935
0.774843
3.28216
5.97398
5.90171
6.01987
1.4078
-0.584368
-0.46976
-0.380885
-0.332339
-0.310432
-0.307913
-0.323825
-0.357568
-0.395308
-0.443723
-0.577768
-0.687883
-0.812696
-0.953862
-1.11645
-1.29018
-0.80959
3.55168
4.81078
4.8995
5.0191
5.22401
5.51949
2.28045
-0.0355159
0.10655
0.159628
0.101039
0.0985615
0.0958754
0.0930505
0.0850625
0.0745547
0.0745052
0.406391
0.437089
0.412915
0.319272
-0.0129775
-0.059123
-0.0821429
-0.104073
-0.125149
-0.145757
-0.168957
-0.193607
-0.221306
-0.252646
-0.288344
-0.329187
-0.375735
-0.42669
-0.368419
0.649179
0.694881
0.539049
-0.607584
-0.624973
-0.625935
-0.603365
-0.561034
-0.510267
-0.460158
-0.414314
-0.374128
-0.34276
-0.32639
-0.33273
-0.366519
-0.427673
-0.493967
-0.356605
-0.640353
-0.712818
-0.494602
-0.0559996
2.13753
6.03872
5.72734
2.40851
-0.644472
-0.512635
-0.41345
-0.357884
-0.333569
-0.329424
-0.342647
-0.374698
-0.420766
-0.44798
-0.552685
-0.649194
-0.701451
-0.735704
-0.765032
-0.800982
-0.848559
-0.900366
-0.921528
0.0349812
1.43185
1.82688
0.722318
-0.0537875
0.0723783
0.119337
0.159768
0.0915422
0.0890336
0.0851815
0.0806463
0.0746726
0.0681493
0.0950769
0.261747
0.434738
0.321586
-0.0105975
-0.031408