/*--------------------------------*- C++ -*----------------------------------*\
| =========                 |                                                 |
| \\      /  F ield         | OpenFOAM: The Open Source CFD Toolbox           |
|  \\    /   O peration     | Version:  2412                                  |
|   \\  /    A nd           | Website:  www.openfoam.com                      |
|    \\/     M anipulation  |                                                 |
\*---------------------------------------------------------------------------*/
FoamFile
{
    version     2.0;
    format      ascii;
    arch        "LSB;label=32;scalar=64";
    class       volScalarField;
    location    "5.75";
    object      p_rgh;
}
// * * * * * * * * * * * * * * * * * * * * * * * * * * * * * * * * * * * * * //

dimensions      [1 -1 -2 0 0 0 0];

internalField   nonuniform List<scalar> 
6400
(
9858.86
9858.53
9857.88
9856.95
9855.78
9854.42
9852.94
9851.41
9849.91
9848.52
9847.31
9846.36
9845.72
9845.47
9845.63
9846.26
9847.36
9848.95
9851.03
9853.58
9856.58
9859.98
9863.75
9867.82
9872.15
9876.66
9881.29
9885.98
9890.63
9895.19
9899.57
9903.69
9907.5
9910.93
9913.92
9916.42
9918.38
9919.78
9920.58
9920.79
9920.39
9919.43
9917.97
9915.97
9913.53
9910.7
9907.55
9904.13
9900.52
9896.77
9892.93
9889.07
9885.24
9881.49
9877.87
9874.41
9871.17
9868.17
9865.45
9863.04
9860.95
9859.21
9857.83
9856.81
9856.14
9855.83
9855.85
9856.17
9856.76
9857.58
9858.58
9859.7
9860.9
9862.11
9863.27
9864.34
9865.25
9865.98
9866.49
9866.75
9859.16
9858.81
9858.14
9857.16
9855.94
9854.52
9852.97
9851.36
9849.79
9848.32
9847.04
9846.02
9845.34
9845.04
9845.17
9845.78
9846.87
9848.47
9850.56
9853.13
9856.16
9859.6
9863.42
9867.55
9871.94
9876.52
9881.23
9885.98
9890.72
9895.35
9899.81
9904
9907.87
9911.36
9914.41
9916.95
9918.95
9920.37
9921.18
9921.38
9920.98
9919.99
9918.46
9916.41
9913.91
9911.02
9907.8
9904.32
9900.65
9896.85
9892.95
9889.03
9885.14
9881.35
9877.68
9874.19
9870.91
9867.88
9865.14
9862.7
9860.6
9858.85
9857.47
9856.45
9855.79
9855.48
9855.54
9855.9
9856.53
9857.39
9858.44
9859.62
9860.87
9862.13
9863.35
9864.46
9865.42
9866.18
9866.71
9866.99
9859.75
9859.37
9858.64
9857.59
9856.26
9854.71
9853.02
9851.27
9849.55
9847.94
9846.52
9845.37
9844.57
9844.18
9844.25
9844.8
9845.88
9847.48
9849.59
9852.21
9855.31
9858.84
9862.76
9867
9871.52
9876.24
9881.09
9886
9890.89
9895.68
9900.29
9904.63
9908.63
9912.25
9915.4
9918.02
9920.11
9921.57
9922.4
9922.58
9922.14
9921.08
9919.46
9917.31
9914.69
9911.68
9908.32
9904.71
9900.92
9896.98
9892.96
9888.94
9884.95
9881.06
9877.3
9873.73
9870.39
9867.3
9864.5
9862.02
9859.89
9858.12
9856.73
9855.72
9855.1
9854.85
9854.94
9855.36
9856.07
9857.03
9858.18
9859.46
9860.82
9862.2
9863.52
9864.72
9865.76
9866.58
9867.15
9867.45
9860.67
9860.24
9859.42
9858.25
9856.76
9855.02
9853.12
9851.14
9849.19
9847.34
9845.71
9844.37
9843.4
9842.87
9842.83
9843.32
9844.36
9845.96
9848.12
9850.81
9854.01
9857.67
9861.74
9866.16
9870.87
9875.8
9880.87
9886.01
9891.14
9896.17
9901.01
9905.56
9909.79
9913.61
9916.95
9919.74
9921.9
9923.42
9924.26
9924.43
9923.92
9922.76
9921
9918.68
9915.88
9912.66
9909.11
9905.29
9901.3
9897.18
9892.98
9888.79
9884.64
9880.61
9876.72
9873.03
9869.58
9866.39
9863.52
9860.98
9858.8
9857
9855.61
9854.61
9854.02
9853.82
9854
9854.53
9855.36
9856.46
9857.76
9859.22
9860.75
9862.29
9863.77
9865.12
9866.28
9867.19
9867.84
9868.16
9861.95
9861.46
9860.53
9859.18
9857.47
9855.47
9853.27
9850.98
9848.7
9846.54
9844.6
9842.99
9841.79
9841.06
9840.87
9841.27
9842.26
9843.87
9846.09
9848.88
9852.23
9856.06
9860.35
9865.01
9869.98
9875.19
9880.56
9886.01
9891.46
9896.81
9901.96
9906.84
9911.37
9915.46
9919.03
9922.01
9924.33
9925.93
9926.81
9926.94
9926.34
9925.04
9923.08
9920.54
9917.47
9914
9910.17
9906.07
9901.79
9897.42
9892.99
9888.56
9884.21
9879.98
9875.92
9872.07
9868.48
9865.17
9862.19
9859.56
9857.32
9855.49
9854.08
9853.1
9852.55
9852.43
9852.71
9853.38
9854.38
9855.67
9857.19
9858.88
9860.65
9862.43
9864.13
9865.69
9867.01
9868.06
9868.79
9869.18
9863.66
9863.09
9862
9860.42
9858.42
9856.07
9853.48
9850.77
9848.07
9845.49
9843.16
9841.2
9839.68
9838.71
9838.33
9838.61
9839.55
9841.18
9843.47
9846.4
9849.92
9853.99
9858.55
9863.51
9868.82
9874.39
9880.15
9885.99
9891.84
9897.6
9903.17
9908.46
9913.38
9917.82
9921.7
9924.95
9927.46
9929.19
9930.1
9930.19
9929.47
9927.98
9925.77
9922.92
9919.51
9915.68
9911.48
9907.02
9902.39
9897.66
9892.97
9888.25
9883.64
9879.17
9874.89
9870.85
9867.07
9863.6
9860.49
9857.75
9855.42
9853.54
9852.1
9851.14
9850.65
9850.63
9851.05
9851.89
9853.11
9854.65
9856.45
9858.44
9860.52
9862.61
9864.62
9866.44
9867.99
9869.22
9870.06
9870.51
9865.85
9865.18
9863.89
9862.04
9859.67
9856.87
9853.78
9850.53
9847.28
9844.18
9841.35
9838.93
9837.03
9835.74
9835.14
9835.26
9836.15
9837.8
9840.19
9843.29
9847.05
9851.41
9856.3
9861.64
9867.36
9873.37
9879.6
9885.93
9892.29
9898.54
9904.64
9910.45
9915.86
9920.75
9925
9928.6
9931.37
9933.25
9934.21
9934.25
9933.37
9931.63
9929.09
9925.85
9922.04
9917.72
9913.05
9908.14
9903.07
9897.94
9892.84
9887.81
9882.89
9878.14
9873.6
9869.31
9865.32
9861.66
9858.37
9855.5
9853.06
9851.11
9849.65
9848.7
9848.27
9848.36
9848.96
9850.02
9851.51
9853.36
9855.52
9857.89
9860.37
9862.86
9865.25
9867.41
9869.26
9870.7
9871.7
9872.22
9868.61
9867.82
9866.3
9864.1
9861.27
9857.9
9854.17
9850.25
9846.32
9842.55
9839.11
9836.14
9833.76
9832.08
9831.19
9831.14
9831.96
9833.65
9836.17
9839.49
9843.54
9848.26
9853.55
9859.35
9865.57
9872.12
9878.9
9885.83
9892.75
9899.64
9906.37
9912.81
9918.83
9924.31
9929.13
9933.09
9936.15
9938.22
9939.25
9939.21
9938.13
9936.06
9933.1
9929.36
9924.98
9920.09
9914.85
9909.38
9903.79
9898.17
9892.61
9887.19
9881.93
9876.85
9872.01
9867.44
9863.2
9859.31
9855.82
9852.78
9850.21
9848.17
9846.66
9845.73
9845.38
9845.6
9846.39
9847.71
9849.52
9851.76
9854.35
9857.2
9860.19
9863.18
9866.05
9868.65
9870.86
9872.58
9873.77
9874.39
9872.05
9871.11
9869.32
9866.71
9863.3
9859.23
9854.7
9849.95
9845.17
9840.58
9836.38
9832.72
9829.75
9827.61
9826.38
9826.13
9826.89
9828.63
9831.33
9834.92
9839.33
9844.48
9850.26
9856.6
9863.4
9870.56
9877.99
9885.58
9893.24
9900.87
9908.35
9915.54
9922.31
9928.48
9933.92
9938.43
9941.91
9944.23
9945.34
9945.2
9943.85
9941.37
9937.87
9933.49
9928.41
9922.79
9916.85
9910.7
9904.49
9898.3
9892.23
9886.33
9880.75
9875.28
9870.09
9865.22
9860.68
9856.53
9852.8
9849.54
9846.82
9844.66
9843.1
9842.17
9841.88
9842.26
9843.27
9844.89
9847.09
9849.79
9852.92
9856.35
9859.96
9863.59
9867.06
9870.22
9872.89
9874.95
9876.35
9877.09
9876.28
9875.15
9873.08
9869.97
9865.86
9860.9
9855.39
9849.6
9843.78
9838.2
9833.06
9828.58
9824.91
9822.2
9820.57
9820.09
9820.78
9822.62
9825.54
9829.48
9834.32
9839.98
9846.34
9853.3
9860.77
9868.64
9876.83
9885.19
9893.68
9902.18
9910.55
9918.65
9926.31
9933.35
9939.58
9944.79
9948.78
9951.43
9952.64
9952.38
9950.7
9947.68
9943.48
9938.3
9932.33
9925.76
9919
9912.06
9905.11
9898.28
9891.64
9885.26
9879.18
9873.35
9867.81
9862.59
9857.73
9853.26
9849.25
9845.75
9842.82
9840.52
9838.89
9837.95
9837.72
9838.25
9839.52
9841.5
9844.14
9847.39
9851.14
9855.28
9859.66
9864.08
9868.32
9872.16
9875.41
9877.89
9879.54
9880.41
9881.5
9879.97
9877.74
9874.07
9869.05
9862.98
9856.25
9849.2
9842.12
9835.33
9829.08
9823.6
9819.08
9815.69
9813.57
9812.84
9813.49
9815.47
9818.69
9823.04
9828.42
9834.68
9841.72
9849.4
9857.63
9866.3
9875.32
9884.58
9894.01
9903.49
9912.91
9922.09
9930.85
9938.94
9946.2
9952.28
9956.95
9960.02
9961.37
9960.96
9958.84
9955.13
9950.04
9943.83
9936.78
9929.22
9921.29
9913.34
9905.52
9897.95
9890.7
9883.8
9877.24
9871.02
9865.1
9859.51
9854.28
9849.46
9845.11
9841.32
9838.15
9835.68
9833.94
9832.98
9832.81
9833.51
9835.04
9837.42
9840.58
9844.46
9848.96
9853.96
9859.28
9864.66
9869.83
9874.56
9878.55
9881.55
9883.42
9884.48
9887.12
9877.73
9883.42
9879.22
9873.05
9865.53
9857.31
9848.75
9840.15
9831.9
9824.3
9817.62
9812.08
9807.87
9805.15
9804.15
9804.81
9807
9810.61
9815.5
9821.51
9828.49
9836.31
9844.81
9853.88
9863.43
9873.37
9883.61
9894.09
9904.7
9915.33
9925.8
9935.92
9945.41
9953.89
9961.08
9966.62
9970.25
9971.8
9971.19
9968.5
9963.89
9957.64
9950.09
9941.64
9932.66
9923.44
9914.34
9905.55
9897.18
9889.28
9881.85
9874.84
9868.22
9861.91
9855.93
9850.29
9845.06
9840.31
9836.16
9832.7
9830.01
9828.15
9827.16
9827.07
9827.89
9829.71
9832.54
9836.3
9840.91
9846.29
9852.31
9858.77
9865.32
9871.62
9877.46
9882.46
9886.13
9888
9889.52
9889.08
9853.03
9857.33
9885.64
9877.84
9868.45
9858.46
9848.17
9837.78
9827.78
9818.56
9810.44
9803.66
9798.46
9794.89
9793.69
9794.46
9796.99
9801.1
9806.63
9813.4
9821.24
9829.97
9839.4
9849.42
9859.92
9870.84
9882.14
9893.76
9905.61
9917.61
9929.6
9941.35
9952.52
9962.66
9971.31
9978.03
9982.43
9984.27
9983.45
9980
9974.19
9966.41
9957.12
9946.84
9936.08
9925.3
9914.86
9904.97
9895.75
9887.19
9879.26
9871.85
9864.86
9858.17
9851.77
9845.67
9839.93
9834.69
9830.1
9826.3
9823.36
9821.35
9820.32
9820.26
9821.22
9823.34
9826.68
9831.12
9836.58
9842.97
9850.18
9858.01
9865.91
9873.54
9880.88
9887.34
9891.54
9872.14
9887.63
9899.32
9878.15
9854.44
9865.14
9883.31
9871.45
9859.42
9847.35
9834.97
9822.86
9811.71
9801.85
9793.64
9787.4
9783.36
9781.3
9782.25
9785.2
9789.9
9796.19
9803.88
9812.74
9822.54
9833.05
9844.12
9855.65
9867.61
9880.01
9892.81
9905.99
9919.5
9933.24
9946.97
9960.27
9972.56
9983.16
9991.47
9996.98
9999.3
9998.23
9993.78
9986.33
9976.48
9964.9
9952.29
9939.31
9926.56
9914.52
9903.42
9893.34
9884.21
9875.88
9868.18
9860.89
9853.84
9846.96
9840.27
9833.89
9828.03
9822.91
9818.7
9815.51
9813.38
9812.37
9812.32
9813.39
9815.83
9819.74
9824.95
9831.33
9838.82
9847.43
9856.6
9865.94
9875.03
9884.43
9892.81
9879.73
9861.59
9890.55
9908.81
9903.39
9886.69
9842.75
9873.17
9874.71
9860.2
9846.16
9831.67
9817.01
9803.61
9791.76
9781.82
9774.27
9769.75
9768.06
9768.23
9771.65
9777.01
9784.17
9792.94
9803.01
9814.03
9825.72
9837.87
9850.42
9863.37
9876.82
9890.83
9905.41
9920.57
9936.31
9952.41
9968.41
9983.49
9996.74
10007.3
10014.4
10017.5
10016.1
10010.3
10000.7
9987.94
9973.2
9957.46
9941.64
9926.57
9912.77
9900.4
9889.53
9880
9871.52
9863.73
9856.26
9848.89
9841.5
9834.14
9827
9820.38
9814.6
9809.93
9806.48
9804.25
9803.39
9803.18
9804.11
9806.84
9811.53
9817.78
9825.1
9833.5
9843.52
9853.98
9864.8
9875.79
9885.54
9874.23
9855.39
9895.62
9898.98
9907.19
9868.37
9855.7
9836.91
9837.32
9878.01
9859.99
9844.54
9827.15
9809.74
9794
9780.02
9767.84
9758.19
9752.42
9750.79
9752.66
9756.54
9762.69
9770.84
9780.86
9792.34
9804.76
9817.68
9830.86
9844.22
9857.83
9871.91
9886.68
9902.41
9919.36
9937.59
9956.8
9976.33
9995.18
10012.1
10025.9
10035.4
10039.6
10037.9
10030.1
10017.4
10000.7
9981.77
9961.94
9942.58
9924.6
9908.58
9894.9
9883.47
9873.88
9865.51
9857.83
9850.49
9843.16
9835.59
9827.72
9819.79
9812.28
9805.75
9800.56
9796.85
9794.41
9793.4
9792.62
9792.97
9795.83
9801.7
9809.43
9817.71
9826.59
9837.42
9851.4
9858.91
9876.66
9873.63
9812.7
9812.63
9884.63
9898.9
9900.59
9803.49
9797.65
9838.12
9855.63
9880.5
9856.48
9842.63
9822.92
9802.02
9783
9766.03
9750.73
9738.33
9731.03
9729.5
9732.2
9738.4
9745.93
9755.37
9766.99
9780.3
9794.55
9809.07
9823.4
9837.33
9851.02
9864.85
9879.38
9895.35
9913.62
9934.56
9957.81
9982.29
10006.6
10029
10047.7
10060.6
10066.1
10063.4
10052.8
10035.7
10013.6
9988.66
9963.1
9938.98
9917.73
9899.83
9885.63
9874.54
9865.5
9857.55
9850.24
9843.44
9836.67
9829.36
9820.96
9811.86
9802.95
9795.27
9789.49
9785.81
9783.84
9781.69
9780.16
9780.07
9783.32
9790.52
9799.84
9809.35
9819.54
9832.55
9849.23
9859.04
9874.45
9866.13
9810.63
9802.98
9808.74
9902.68
9901.72
9811.53
9826.42
9912.66
9911.21
9880.56
9858.38
9842.08
9820.56
9795.46
9770.65
9747.52
9727.3
9711.97
9703.59
9702.76
9708.97
9715.04
9722.66
9732.75
9746.5
9763.04
9780.51
9797.52
9813.28
9827.59
9840.91
9854.21
9868.55
9885.04
9904.7
9928.13
9955.51
9985.99
10017.6
10047.6
10073.1
10090.8
10098.3
10094.3
10079.1
10055.2
10025.3
9992.29
9959.41
9929.46
9905.24
9886.46
9872.71
9863
9855.57
9848.74
9841.86
9835.01
9827.88
9819.83
9810.23
9799.19
9787.75
9777.42
9769.74
9765.81
9764.99
9764.61
9763.56
9763.89
9768.02
9776.61
9787.68
9799.67
9813.38
9830.01
9847.85
9862.23
9870.72
9890.58
9881.81
9829.25
9826
9913.58
10007.7
9983.45
9967.25
9961.59
9940.3
9896.94
9866.53
9845.7
9819.65
9789.25
9756.94
9723.71
9695.64
9676.85
9667.92
9670
9676.65
9680.54
9683.74
9691.34
9709.04
9733.16
9757.77
9779.14
9796.98
9811.66
9824.55
9837.51
9852.11
9870.25
9893.09
9920.73
9952.37
9987.06
10027.9
10068.6
10104.5
10129.9
10140.4
10134.2
10112.4
10079.4
10040.2
9997.01
9954.16
9917.04
9889
9867.47
9853.02
9845.47
9841.27
9836.7
9830.61
9823.08
9814.3
9804.03
9791.5
9776.72
9760.72
9744.87
9732.52
9729.47
9735.58
9741.45
9741.26
9741.1
9746.22
9757.78
9772.38
9788.05
9805.62
9826.04
9846.53
9862.8
9889.26
9922.18
9942.61
9946.09
9957.68
9942.88
10011
9997.39
10020.5
10000.6
9971.34
9606.45
9196.24
8925.05
8484.5
8078.7
7600.08
7010.38
6532.65
6290.93
6208.81
6231.35
6362.56
6466.25
6562.12
6771.95
7147.63
7630.55
8024.25
8290.41
8481.18
8605.4
8684.41
8751.66
8808.18
8903.71
9068.94
9305.86
9611.87
9926.81
10040.9
10093.5
10142
10177.7
10194.2
10185.2
10151.5
10104.6
10050.9
9866.95
9425.09
8932.1
8688.56
8555.71
8523.59
8606.63
8712.11
8767.71
8774.23
8744.77
8685.08
8586.64
8429.58
8219.2
7969.92
7678.1
7392.07
7307.67
7543.98
7805.28
7731.29
7564.73
7541.49
7628.04
7757.44
7912.88
8112.34
8440.74
8768.8
9137.87
9649.7
9948.07
9976.12
9989.08
9844.26
9794.2
6016.12
5597.08
5126.48
4675.26
3947.42
3161.07
2567.05
1962.19
1588.62
1242.13
769.766
397.044
185.466
87.4472
31.678
2.08209
1.36431
0.885335
0.52482
34.4533
266.287
686.74
1065.52
1291.43
1458.02
1573.16
1640.36
1693.67
1726.49
1807.98
2001.36
2346.42
2812.1
3391.83
4527.62
5825.55
6967.1
7991.08
8399.71
8268.67
7466.47
6074.27
4589.08
3346.02
2372.56
1775.92
1515.38
1392.86
1358.11
1462.4
1614.04
1707.42
1730.54
1700.84
1619.3
1489.55
1308.16
1100.88
878.899
586.607
298.547
188.447
236.92
390.213
536.521
633.318
680.115
748.942
877.442
1043.45
1236.62
1462.7
1715.08
2058.12
2645.83
3507.27
4133.44
4403.35
4736.01
5375.58
387.801
184.413
58.4388
17.0783
4.80776
3.08783
1.75048
1.01642
1.45915
2.39625
2.75847
2.81521
2.79877
2.50103
2.26722
2.13079
1.782
0.902638
0.431166
0.266349
0.204911
0.368005
0.628722
0.811494
0.955391
1.08483
1.19956
1.29844
1.39594
1.49361
1.61278
1.79968
2.12745
99.6129
106.377
304.512
843.403
1443.28
1664.02
1375.1
754.67
265.129
70.9021
21.1161
5.59421
1.28009
1.15856
1.14545
1.10379
1.01816
0.892463
0.748623
0.599281
0.449564
0.329266
0.267748
0.259949
0.263616
0.304331
0.389872
0.404266
0.446124
0.679662
1.22409
1.4288
1.28445
1.87651
3.13459
4.32286
4.88122
5.06819
4.47432
4.27283
4.24417
4.20591
4.18876
4.23959
11.2816
54.355
154.877
4.67371
3.97735
2.44319
1.36936
0.92597
0.562836
0.29978
0.0985293
0.28028
0.837604
1.92148
2.56293
2.83771
2.48846
2.3308
2.04649
1.34357
0.386855
0.270973
0.26248
1.0181
3.1365
3.45856
2.67991
1.03035
1.07075
1.19142
1.27527
1.34916
1.42912
1.4227
1.45551
1.4924
3.17302
13.4661
15.4261
10.7778
16.6859
21.8632
24.3451
21.1163
15.8917
9.27653
3.26148
1.03532
1.09392
1.09418
1.07582
1.03832
0.996442
0.949353
0.771047
0.603772
0.486609
0.379898
0.309203
0.514808
1.21771
1.27056
0.386345
0.235516
0.236149
0.781983
1.71527
1.74544
1.33865
1.41875
2.53825
3.51242
4.04242
4.70326
4.22102
4.2471
4.17287
4.12189
4.06922
4.12773
3.95643
2.85003
2.89504
1.74405
1.76597
1.21229
0.690838
0.409355
0.142823
-0.100767
-0.163193
0.0801529
0.607662
2.32304
2.72227
2.99209
2.73648
1.75766
0.425852
0.265117
0.147334
0.0591526
0.037461
1.89463
3.24519
3.4389
3.73739
4.09046
2.89325
1.22524
1.29637
1.41426
1.95844
1.57737
1.4584
2.63434
2.68407
3.76315
5.00856
2.95994
4.08715
5.66142
7.17656
6.36344
6.68228
4.65719
1.39265
1.25493
1.34193
1.10911
1.06723
1.19296
2.58953
2.96147
1.67436
0.801857
1.1906
1.18401
1.28611
1.97974
1.94715
1.89123
0.771394
0.204306
0.248751
0.304724
0.406132
0.558033
0.750898
0.964499
1.17734
1.45322
3.38863
5.22925
5.36702
5.39928
4.35303
4.28536
4.13068
4.64809
3.90137
1.8192
2.05173
1.12471
0.93888
0.737487
0.507808
0.270812
0.00605694
-0.207278
-0.265161
-0.0284753
1.51818
2.503
2.80095
2.45656
0.728138
0.368322
0.256842
0.13458
0.012464
-0.0978469
-0.192359
-0.25516
1.01766
3.34511
3.61379
3.93221
4.27191
2.31893
1.29961
1.75831
1.92658
1.80752
1.60129
2.05559
1.2911
1.89887
2.00081
1.9269
2.60407
4.20809
5.73468
5.3178
6.6832
4.70653
1.57801
1.38911
1.35437
0.978193
1.07403
2.82762
2.94803
2.81969
2.70359
2.59545
2.49778
2.40504
2.30804
2.20834
1.81337
0.362864
0.114915
0.172296
0.263215
0.36875
0.499844
0.655124
0.824261
0.996917
1.16308
1.30874
1.42031
1.4994
3.30066
5.39147
5.53969
5.50407
5.38552
4.4436
3.36549
1.40846
1.55763
1.09394
0.856864
0.623022
0.42255
0.215253
-0.00599834
-0.185253
-0.251506
-0.153181
2.27539
2.47169
2.69447
0.456341
0.299097
0.247087
0.167095
0.0578957
-0.072688
-0.20719
-0.321591
-0.393307
1.39949
3.31703
3.49885
3.77273
4.13694
3.58488
1.33611
1.67559
1.81907
1.38965
0.949469
0.847753
0.915033
1.32837
1.3542
1.55385
2.22088
4.84441
6.19942
5.19238
6.87217
4.4926
1.16826
0.805076
0.962051
0.936594
0.860879
1.40943
1.99945
1.50592
0.478333
0.174475
0.0476236
0.0672185
0.315155
0.387436
0.0393674
-0.0566905
0.0156084
0.117995
0.235816
0.374262
0.52844
0.690561
0.856332
1.01296
1.15422
1.28303
1.38316
1.43189
1.4566
1.46778
3.72203
4.82885
3.21347
1.31183
1.33255
1.39653
1.50627
1.77298
0.802652
0.516959
0.356204
0.222169
0.0746303
-0.0569394
-0.114893
1.60211
2.46756
2.61154
0.720595
0.224433
0.232964
0.195876
0.125172
0.0217892
-0.110493
-0.260283
-0.403016
-0.507887
2.62396
3.30341
3.42495
3.67758
4.03218
2.3617
1.00036
1.06758
1.36325
0.843165
0.780641
0.73312
0.845846
0.842297
2.01188
3.48388
3.33832
2.6329
0.656381
1.60023
6.8282
4.55904
0.829014
0.481211
0.6403
0.805477
0.679293
0.377255
0.245713
0.152431
0.0604245
-0.0258464
-0.105667
-0.170308
-0.217112
-0.23305
-0.211852
-0.15339
-0.0625196
0.0530354
0.190133
0.34938
0.521119
0.697573
0.86907
1.02261
1.16083
1.27088
1.34452
1.39144
1.41813
1.42614
1.41641
1.40557
1.39579
1.37561
1.47793
1.52407
1.57286
2.67605
1.41225
0.385323
0.307069
0.267865
0.198933
0.163744
2.27579
2.60213
2.66259
2.43967
0.228761
0.209678
0.213987
0.177952
0.113149
0.0193689
-0.10309
-0.246885
-0.41015
-0.474183
2.26877
3.35299
3.46181
3.48307
2.31726
0.932725
0.739395
0.657323
0.712534
0.697272
0.679264
0.648945
0.851918
2.73633
3.69773
3.62326
2.78977
0.688891
0.556258
1.04231
5.99127
5.39584
1.26954
0.324955
0.481283
0.670345
0.633577
0.269081
0.13363
0.0529726
-0.0327204
-0.12251
-0.209939
-0.284922
-0.337841
-0.358533
-0.33104
-0.258977
-0.120903
0.0526419
0.195771
0.29234
0.483766
0.679702
0.868041
1.03093
1.16323
1.25979
1.32775
1.37153
1.39432
1.43869
1.77106
1.9798
1.72877
1.57127
1.599
1.68105
1.63954
2.48649
1.17074
0.319511
0.311094
0.330209
0.309269
2.3401
2.80924
2.79953
2.87085
1.23659
0.187852
0.22064
0.213683
0.177041
0.120651
0.0428568
-0.0577503
-0.17899
-0.324885
-0.459396
0.979294
3.42361
3.25133
1.35668
1.30899
1.32825
0.445562
0.505693
0.569128
0.594694
0.597885
0.597677
2.27929
3.70062
3.7175
3.25804
0.834288
0.688607
0.56535
0.845323
4.497
4.62798
0.352536
0.216147
0.418449
0.568384
0.535167
0.120749
0.0407864
-0.0396636
-0.135653
-0.242477
-0.35146
-0.432553
-0.485813
-0.543067
-0.493933
-0.15463
0.528667
1.08352
1.15978
0.516766
0.498634
0.640424
0.854255
1.03402
1.17367
1.26989
1.3312
1.36667
1.38304
1.3927
2.43107
3.30107
3.31758
2.07607
1.62313
1.70286
1.71488
1.76905
1.64514
0.353702
0.37613
0.451005
2.60088
3.00741
2.96486
2.93889
3.06227
1.38143
0.235787
0.236161
0.219446
0.184685
0.13918
0.0797773
0.00887349
-0.0719696
-0.163819
-0.263142
-0.226782
0.421669
1.26372
1.93506
2.11153
2.13571
0.329217
0.417088
0.474534
0.508843
0.528028
1.07315
3.7431
3.69207
3.66652
0.882397
0.775954
1.15385
1.04746
0.761042
0.40369
0.626851
0.103251
0.158068
0.305056
0.499347
0.202307
0.0281548
-0.0504575
-0.150458
-0.183875
0.0679833
-0.217708
-0.643654
-0.736625
-0.786279
-0.342661
0.604804
0.709646
0.877004
1.12689
1.44818
1.20076
0.6164
0.862185
1.06904
1.18813
1.28399
1.33866
1.36594
1.39894
1.3916
1.9179
3.35244
3.34264
3.35711
2.6414
1.68316
1.71626
4.50736
1.58066
0.407649
0.471443
0.494242
2.02303
3.11564
1.68809
1.63569
2.45754
1.82687
0.417005
0.244951
0.224757
0.194845
0.159335
0.119362
0.071436
0.0303364
-0.0131912
-0.0691018
-0.126578
0.32497
1.96725
2.09383
2.22198
2.31431
0.66368
0.36263
0.403863
0.43561
0.466026
1.63725
3.67035
3.64431
1.46465
0.341211
1.10748
1.16505
1.10681
0.858597
0.103123
0.0858496
0.136604
0.148911
0.136035
0.115796
0.0360609
-0.0459472
-0.158429
-0.058357
0.447268
0.400178
-0.237824
-0.925927
-1.01875
-1.04524
-0.456761
0.28953
0.445853
0.516694
0.970587
1.32006
1.61076
1.66174
1.87026
2.06437
1.7745
1.61118
1.35822
1.36336
1.39747
1.4066
1.34521
1.70949
3.3403
3.30595
3.31173
2.81517
1.71429
5.23662
1.32603
0.539462
0.560178
0.587975
0.557618
0.620282
0.828218
2.35857
2.14004
0.603395
0.252667
0.244665
0.226937
0.203062
0.17495
0.16224
0.119183
0.101228
0.0800728
0.0491022
-0.00153517
0.258262
0.782906
1.01527
1.987
2.36575
2.18399
0.322569
0.347985
0.375449
0.407366
1.65294
3.58145
1.80505
0.182909
0.137357
0.421825
1.11655
1.11008
1.0716
0.200839
0.154889
0.173116
0.158011
0.121136
0.0689499
-0.00644259
-0.122964
-0.281459
-0.435849
-0.175523
0.214068
-0.10312
-1.18326
-1.28929
-1.31125
-1.25755
-1.09649
-0.81094
-0.377377
0.156136
0.768279
1.76791
3.86173
3.83048
2.67087
2.84082
2.96785
2.14251
1.38002
1.35502
1.33078
1.31289
1.23498
1.25334
2.71382
3.25616
3.24367
2.94735
5.38162
4.98651
2.54962
2.09205
0.967342
0.701832
2.06674
2.47152
2.44559
1.19843
0.250711
0.249174
0.241758
0.225052
0.206301
0.182364
0.185393
0.472338
0.765303
0.11959
0.0928503
0.056942
0.0467355
0.0440106
0.554503
2.35565
2.40768
2.46304
0.763835
0.300168
0.323304
0.466572
1.73691
2.23203
0.196878
0.034906
0.000897891
0.0188077
0.12998
0.850613
1.06546
0.666228
0.189668
0.196804
0.173131
0.126824
0.0591914
-0.0391995
-0.192429
-0.408533
-0.675067
-0.913272
-0.370866
1.76649
0.156475
-1.07081
-0.503848
-0.0336301
0.217557
0.690042
0.567232
0.466101
0.914007
3.19384
4.15086
4.55925
2.97982
3.19465
3.21453
3.11262
2.3129
1.31577
1.28366
1.2457
1.20177
1.14381
1.10381
1.50534
2.22712
2.9288
5.48782
5.41069
5.20342
5.11836
5.07812
4.26661
2.53261
1.34331
0.26943
0.232318
0.237294
0.238398
0.232558
0.217876
0.202315
0.18276
0.217318
1.2402
1.33899
0.834809
0.104056
0.0776629
0.0530774
0.0642082
1.26784
2.38154
2.43889
1.83352
1.36102
0.257466
0.275231
0.545083
1.6044
0.569332
0.116935
-0.0361571
-0.0804
-0.0590206
0.217376
0.969172
0.957997
0.635655
0.398713
0.218702
0.203121
0.161352
0.13443
-0.0285249
-0.23376
-0.512526
-0.834464
-0.722639
1.83622
2.02503
1.99381
2.03899
2.15353
2.31629
2.46975
2.66236
2.91176
3.12137
3.17149
3.74767
4.13113
4.55499
4.65404
2.58412
2.49137
3.03968
3.10725
1.84998
1.23021
1.18927
1.15502
1.12024
1.09318
1.08742
1.10148
1.7242
5.6119
1.03384
0.617028
0.363295
0.273902
0.160747
0.179451
0.196746
0.207575
0.21493
0.222538
0.222817
0.215151
0.206435
0.193472
0.17697
0.240062
1.3974
1.36134
1.32687
0.242096
0.158797
0.0811658
0.153422
1.93739
2.3834
1.47574
0.243817
0.533165
0.228548
0.235553
0.326531
1.22754
1.07078
0.399166
-0.051628
-0.100197
0.0298726
1.68774
1.78628
1.87147
1.07697
1.07204
2.70355
2.97437
2.86429
2.23069
0.205023
-0.223356
-0.55669
-0.699774
1.29987
1.59882
0.0601501
-1.2551
-0.812334
0.252375
1.49792
2.37872
2.63997
2.89606
3.16798
3.46921
3.80507
4.16897
4.54704
4.91043
3.79639
2.09488
2.99339
3.07968
3.11507
1.41662
1.12551
1.09529
1.07342
1.06113
1.06947
1.07547
1.09694
4.15307
0.295698
0.313577
0.328902
0.296668
0.224053
0.166139
0.193727
0.199968
0.199552
0.204694
0.20422
0.200231
0.193238
0.18233
0.168395
0.152072
0.621113
1.40056
1.3137
0.11152
0.120583
0.120489
0.143982
1.50269
2.33492
1.72643
0.233286
0.206607
0.214671
0.208793
0.199378
0.420248
1.28838
1.14274
-0.0346221
-0.0778494
0.48808
1.7369
1.80391
1.47815
1.5976
3.67872
3.78186
3.87193
3.88869
3.81869
2.38488
-0.0871409
-0.49166
-0.721177
1.39515
0.674958
-2.02765
-2.19892
-2.22335
-2.15467
-2.04063
1.05145
2.62484
2.93322
3.23651
3.56608
3.90397
4.23619
4.58053
4.91882
5.15127
1.95531
2.00981
3.04367
3.08848
2.2565
1.07735
1.03462
1.02167
1.01723
1.0377
1.03619
1.04404
3.21947
0.299083
0.438373
0.336389
0.288696
0.212673
0.156357
0.186418
0.1862
0.183833
0.187698
0.188203
0.185596
0.179833
0.170794
0.159074
0.145287
0.156857
1.21387
1.59234
0.965323
0.100366
0.108255
0.116608
0.277122
1.20924
1.82995
1.08353
0.22923
0.202717
0.507077
0.950772
0.405763
1.28243
0.584309
-0.00749439
-0.0487728
1.6393
1.78099
0.458043
-0.0256767
0.762165
2.63288
3.88586
3.96865
4.02322
4.01317
3.87492
2.92938
2.25562
2.46841
-0.139843
-1.62416
-1.98487
-2.14478
-2.17187
-2.08279
-1.95366
-1.64736
1.28016
3.00429
3.36268
3.71033
4.01224
4.30135
4.62077
5.00954
3.85298
1.39185
1.57617
2.97673
3.05074
2.95783
1.14417
0.966557
0.960536
0.958865
0.981294
1.00765
0.99493
3.34804
0.47176
0.779763
0.232825
0.119733
0.130576
0.152601
0.171757
0.163526
0.169973
0.173421
0.174101
0.172088
0.167368
0.159922
0.150032
0.138322
0.125212
0.185238
1.67054
1.71345
1.19979
0.131072
0.134095
0.124734
0.152971
0.753894
2.22997
0.263725
0.187211
0.705461
2.91714
0.717854
0.990662
0.0807348
0.0149127
0.554506
1.63938
1.06843
-0.164603
-0.110624
0.0147546
0.173631
1.05674
3.32622
4.095
4.12043
4.03509
3.78868
3.39006
2.90941
1.23298
-1.38443
-1.72374
-1.764
-1.80092
-1.84289
-1.71777
-1.41297
-0.534131
3.07905
3.49891
3.86572
3.34848
2.00399
4.25046
3.68217
0.994095
1.1024
1.37817
2.94414
3.01357
3.01211
1.16669
0.891578
0.89202
0.895112
0.900988
0.971573
0.943405
1.49307
1.7513
0.799423
0.117159
0.121621
0.129616
0.138127
0.145751
0.152827
0.157927
0.16092
0.161647
0.160078
0.156217
0.150087
0.141866
0.131817
0.120015
0.107484
0.100011
1.66791
2.28832
2.10469
0.749437
0.16669
0.170026
0.199904
2.24788
0.433769
0.174441
1.3863
2.96269
2.72553
0.224539
0.126369
0.135868
1.60883
1.64834
-0.19233
-0.19183
-0.137514
-0.072047
-0.00787041
0.0683567
0.284077
1.89609
4.17046
4.09557
3.93775
3.63365
3.2295
2.82525
2.0292
2.11806
2.11221
1.97727
1.44969
0.415868
-0.989126
0.581689
3.34876
3.73594
4.02239
0.773396
0.693079
0.684841
0.738167
0.90749
1.02567
1.08779
2.06728
2.99167
2.3065
0.885698
0.813259
0.819007
0.82524
0.831051
0.904238
0.877513
1.54134
2.05388
0.445187
0.114164
0.118695
0.125267
0.131835
0.138124
0.143578
0.14769
0.150205
0.150866
0.149609
0.146391
0.141275
0.134407
0.125843
0.115503
0.103868
0.0928884
0.0854531
0.273118
1.81053
1.97507
1.81688
0.413461
0.219105
2.07549
3.40936
0.220158
3.0677
2.98111
2.93753
0.265959
0.281125
1.41226
1.466
0.273199
-0.233753
-0.205175
-0.150718
-0.0882121
-0.0317132
0.01748
0.0790322
0.133111
0.815822
1.08083
4.04819
3.83676
3.53743
3.23311
2.95946
2.74688
2.6069
2.53995
2.53979
2.58836
1.20607
3.12517
3.79583
4.16447
3.87496
0.489618
0.37079
0.483524
0.658744
0.823986
0.938434
1.00262
1.44666
3.16756
1.5844
0.725511
0.732634
0.741769
0.750227
0.760109
0.832068
0.813368
2.11249
2.11278
0.378064
0.10686
0.113234
0.120022
0.125735
0.131112
0.135654
0.139082
0.141175
0.141749
0.140695
0.137964
0.13359
0.127651
0.120163
0.111055
0.100472
0.0887351
0.078109
0.0726444
0.196119
1.47909
2.3934
2.03603
0.217151
3.29557
3.80708
0.230974
3.08303
3.00549
2.59072
0.232299
0.747372
0.968986
0.442128
-0.245935
-0.246364
-0.216271
-0.162757
-0.0730849
0.014744
0.0371775
0.0668105
0.100433
0.0796695
0.068169
0.309695
0.357989
1.37693
3.63722
3.42654
3.28483
3.18462
3.11862
3.08169
3.06087
2.81347
1.29735
2.91009
4.81531
5.2745
2.66552
0.355186
0.399095
0.549151
0.703424
0.819698
0.894248
1.60668
3.30839
1.38407
0.637339
0.647779
0.659872
0.670439
0.697254
0.755414
0.737545
1.8314
0.775984
0.28447
0.100008
0.107853
0.114703
0.120014
0.124909
0.128885
0.13182
0.133588
0.134076
0.133193
0.130861
0.127046
0.121772
0.115042
0.106771
0.0968564
0.0850726
0.0716642
0.0583645
0.0469239
0.0904153
1.14334
3.14894
3.16164
3.85981
3.82991
0.244166
3.07851
3.0392
0.436836
0.195386
0.131312
-0.098663
-0.213279
-0.248012
-0.251232
-0.222108
-0.171613
-0.0441412
0.125823
0.164419
0.177935
0.0373691
0.0200027
0.0255058
-0.00892458
-0.0705393
-0.10696
-0.115429
0.0267322
1.61811
3.67488
3.64221
3.52155
2.12923
1.32523
1.51339
1.74487
5.43763
5.58844
4.71193
0.494914
0.242379
0.374565
0.537287
0.667775
0.760312
1.87134
3.46741
1.81067
0.544727
0.556929
0.572854
0.586098
0.609586
0.675383
0.639335
0.644682
0.232546
0.298111
0.0955848
0.10346
0.110125
0.115123
0.119613
0.123121
0.125662
0.12719
0.127624
0.126868
0.124844
0.121494
0.116781
0.110669
0.103068
0.0937834
0.0823634
0.0680069
0.0508588
0.0338726
0.0183274
0.0242124
2.08135
3.91074
3.88912
3.87807
2.76047
2.75747
0.788386
0.219367
0.19531
0.16222
0.278897
0.228769
-0.218349
-0.237613
-0.214488
-0.171543
-0.0169292
0.116148
0.146555
0.122264
-0.00983561
-0.0165052
-0.0266922
-0.0502877
-0.0869323
-0.063427
-0.0727879
-0.152611
-0.180894
-0.0963533
1.88823
1.36312
1.37212
1.30172
1.65857
5.70453
5.66232
5.65384
5.43195
1.39078
0.0692804
0.169107
0.342326
0.495005
0.609692
2.35172
3.58653
1.86257
0.441208
0.459931
0.481203
0.498024
0.510359
0.566321
0.533637
0.512802
0.0910147
0.109714
0.0936305
0.100518
0.106588
0.111309
0.115278
0.118324
0.120521
0.121854
0.122245
0.1216
0.119849
0.116926
0.112757
0.107259
0.100306
0.0916833
0.0809348
0.0670867
0.0493742
0.0294148
0.00913182
-0.0134149
1.21296
3.95788
3.9378
3.94938
3.99776
2.28086
0.302289
0.253981
0.203358
0.282109
2.99828
3.17456
1.48138
-0.192665
-0.199402
-0.139267
0.0761216
0.111233
0.119714
-0.0343367
-0.0424464
-0.0440533
-0.0540507
-0.0719029
-0.0690534
-0.0774808
-0.126196
-0.136006
-0.12353
-0.0763255
0.0868084
1.17943
1.87049
4.59062
6.09659
5.91056
5.74675
5.6535
5.67088
5.34843
1.00229
-0.00447397
0.150992
0.322695
0.457293
3.18757
3.5909
1.48224
0.3288
0.35879
0.386692
0.407832
0.42263
0.429865
0.436457
0.119984
0.081993