/*--------------------------------*- C++ -*----------------------------------*\
| =========                 |                                                 |
| \\      /  F ield         | OpenFOAM: The Open Source CFD Toolbox           |
|  \\    /   O peration     | Version:  2412                                  |
|   \\  /    A nd           | Website:  www.openfoam.com                      |
|    \\/     M anipulation  |                                                 |
\*---------------------------------------------------------------------------*/
FoamFile
{
    version     2.0;
    format      ascii;
    arch        "LSB;label=32;scalar=64";
    class       volVectorField;
    location    "3.1";
    object      U;
}
// * * * * * * * * * * * * * * * * * * * * * * * * * * * * * * * * * * * * * //

dimensions      [0 1 -1 0 0 0 0];

internalField   nonuniform List<vector> 
6400
(
(2.37633e-11 -2.31442e-11 0)
(4.91348e-11 -5.69768e-12 0)
(4.55047e-12 1.96295e-11 0)
(-1.30463e-10 4.4633e-11 0)
(-3.13073e-10 3.98515e-11 0)
(-5.02508e-10 4.04443e-11 0)
(-6.95277e-10 4.11879e-11 0)
(-8.84635e-10 3.82259e-11 0)
(-1.06694e-09 3.69949e-11 0)
(-1.2397e-09 3.60194e-11 0)
(-1.4038e-09 3.6324e-11 0)
(-1.55267e-09 3.36919e-11 0)
(-1.68259e-09 3.10715e-11 0)
(-1.78693e-09 2.65056e-11 0)
(-1.86673e-09 2.37699e-11 0)
(-1.91991e-09 2.03108e-11 0)
(-1.94972e-09 1.85549e-11 0)
(-1.95313e-09 1.52288e-11 0)
(-1.93134e-09 1.2594e-11 0)
(-1.8801e-09 8.12068e-12 0)
(-1.80108e-09 4.39764e-12 0)
(-1.69267e-09 -1.15377e-13 0)
(-1.56026e-09 -2.98871e-12 0)
(-1.40637e-09 -5.62237e-12 0)
(-1.23941e-09 -6.16034e-12 0)
(-1.06446e-09 -5.89452e-12 0)
(-8.90877e-10 -3.61209e-12 0)
(-7.24022e-10 -5.44899e-13 0)
(-5.71993e-10 4.05167e-12 0)
(-4.38508e-10 9.03709e-12 0)
(-3.28628e-10 1.47061e-11 0)
(-2.4281e-10 1.99764e-11 0)
(-1.81942e-10 2.49008e-11 0)
(-1.4275e-10 2.86171e-11 0)
(-1.22402e-10 3.1183e-11 0)
(-1.1505e-10 3.20909e-11 0)
(-1.1597e-10 3.15928e-11 0)
(-1.18852e-10 2.95465e-11 0)
(-1.1935e-10 2.63969e-11 0)
(-1.12607e-10 2.22195e-11 0)
(-9.62306e-11 1.75464e-11 0)
(-6.78045e-11 1.25216e-11 0)
(-2.75218e-11 7.69305e-12 0)
(2.44904e-11 3.15977e-12 0)
(8.56547e-11 -5.88773e-13 0)
(1.54013e-10 -3.60965e-12 0)
(2.25606e-10 -5.55246e-12 0)
(2.98073e-10 -6.71191e-12 0)
(3.67589e-10 -6.91027e-12 0)
(4.32983e-10 -6.65795e-12 0)
(4.91792e-10 -5.85501e-12 0)
(5.44891e-10 -5.075e-12 0)
(5.9143e-10 -4.17296e-12 0)
(6.34204e-10 -3.6826e-12 0)
(6.73433e-10 -3.37268e-12 0)
(7.12984e-10 -3.63094e-12 0)
(7.52886e-10 -4.05147e-12 0)
(7.9657e-10 -4.77867e-12 0)
(8.42408e-10 -5.31936e-12 0)
(8.92318e-10 -5.70581e-12 0)
(9.42471e-10 -5.51893e-12 0)
(9.92978e-10 -4.66581e-12 0)
(1.0378e-09 -2.80357e-12 0)
(1.07559e-09 1.41255e-13 0)
(1.09954e-09 4.04605e-12 0)
(1.10911e-09 8.67319e-12 0)
(1.0992e-09 1.36061e-11 0)
(1.07124e-09 1.88334e-11 0)
(1.02178e-09 2.41022e-11 0)
(9.53451e-10 2.9516e-11 0)
(8.64543e-10 3.46343e-11 0)
(7.5966e-10 3.9296e-11 0)
(6.40277e-10 4.28598e-11 0)
(5.13365e-10 4.52547e-11 0)
(3.82251e-10 4.65116e-11 0)
(2.54409e-10 4.63233e-11 0)
(1.3724e-10 4.30105e-11 0)
(4.46302e-11 3.6444e-11 0)
(-9.37297e-12 2.67034e-11 0)
(-1.71754e-11 5.7035e-12 0)
(2.37032e-11 -3.9718e-11 0)
(-4.46316e-12 6.84431e-11 0)
(-1.75432e-10 2.29204e-10 0)
(-5.05585e-10 3.71007e-10 0)
(-9.29324e-10 4.01653e-10 0)
(-1.39245e-09 4.2098e-10 0)
(-1.87097e-09 4.26777e-10 0)
(-2.35672e-09 4.20868e-10 0)
(-2.83344e-09 4.07159e-10 0)
(-3.2961e-09 3.93624e-10 0)
(-3.7288e-09 3.70292e-10 0)
(-4.12633e-09 3.39082e-10 0)
(-4.47135e-09 2.95152e-10 0)
(-4.76317e-09 2.49159e-10 0)
(-4.98988e-09 1.9868e-10 0)
(-5.15639e-09 1.51602e-10 0)
(-5.25291e-09 1.01135e-10 0)
(-5.28478e-09 5.12433e-11 0)
(-5.24138e-09 -4.2302e-12 0)
(-5.12856e-09 -5.95136e-11 0)
(-4.93878e-09 -1.16933e-10 0)
(-4.68283e-09 -1.68312e-10 0)
(-4.36078e-09 -2.13937e-10 0)
(-3.99034e-09 -2.4723e-10 0)
(-3.57857e-09 -2.69241e-10 0)
(-3.14714e-09 -2.75911e-10 0)
(-2.70658e-09 -2.69699e-10 0)
(-2.27828e-09 -2.49352e-10 0)
(-1.87169e-09 -2.186e-10 0)
(-1.50341e-09 -1.78484e-10 0)
(-1.17784e-09 -1.3377e-10 0)
(-9.03583e-10 -8.70451e-11 0)
(-6.77807e-10 -4.30577e-11 0)
(-5.00559e-10 -4.32782e-12 0)
(-3.62485e-10 2.5797e-11 0)
(-2.57474e-10 4.62783e-11 0)
(-1.72961e-10 5.59954e-11 0)
(-1.00878e-10 5.58598e-11 0)
(-2.94698e-11 4.67011e-11 0)
(4.73559e-11 3.08236e-11 0)
(1.37621e-10 1.00742e-11 0)
(2.43072e-10 -1.26715e-11 0)
(3.66848e-10 -3.54332e-11 0)
(5.05785e-10 -5.5519e-11 0)
(6.58752e-10 -7.16401e-11 0)
(8.18807e-10 -8.20109e-11 0)
(9.82782e-10 -8.67306e-11 0)
(1.1425e-09 -8.53971e-11 0)
(1.29589e-09 -7.96689e-11 0)
(1.43623e-09 -7.02411e-11 0)
(1.56497e-09 -5.96111e-11 0)
(1.67813e-09 -4.86458e-11 0)
(1.78126e-09 -3.97468e-11 0)
(1.87273e-09 -3.32613e-11 0)
(1.96122e-09 -3.07989e-11 0)
(2.04548e-09 -3.15359e-11 0)
(2.13476e-09 -3.55878e-11 0)
(2.22523e-09 -4.08181e-11 0)
(2.32404e-09 -4.62465e-11 0)
(2.42291e-09 -4.94051e-11 0)
(2.52566e-09 -4.89279e-11 0)
(2.61912e-09 -4.24972e-11 0)
(2.70377e-09 -2.88726e-11 0)
(2.76314e-09 -7.33214e-12 0)
(2.79733e-09 2.13394e-11 0)
(2.79113e-09 5.52951e-11 0)
(2.74786e-09 9.28818e-11 0)
(2.65594e-09 1.32216e-10 0)
(2.52211e-09 1.72406e-10 0)
(2.33899e-09 2.11319e-10 0)
(2.1172e-09 2.47326e-10 0)
(1.85536e-09 2.77135e-10 0)
(1.5691e-09 2.98521e-10 0)
(1.26339e-09 3.09434e-10 0)
(9.55971e-10 3.0999e-10 0)
(6.55055e-10 2.97677e-10 0)
(3.82146e-10 2.65427e-10 0)
(1.59541e-10 2.08713e-10 0)
(2.06349e-11 1.28952e-10 0)
(-2.54928e-11 2.06095e-11 0)
(8.29653e-12 4.36442e-12 0)
(-9.89728e-11 2.53583e-10 0)
(-3.75395e-10 5.92561e-10 0)
(-8.31329e-10 8.7111e-10 0)
(-1.4075e-09 9.81241e-10 0)
(-2.04884e-09 1.04122e-09 0)
(-2.73265e-09 1.07349e-09 0)
(-3.43164e-09 1.07074e-09 0)
(-4.1327e-09 1.05112e-09 0)
(-4.80892e-09 1.01073e-09 0)
(-5.45339e-09 9.54113e-10 0)
(-6.04073e-09 8.69001e-10 0)
(-6.5685e-09 7.68021e-10 0)
(-7.01399e-09 6.49418e-10 0)
(-7.3813e-09 5.28597e-10 0)
(-7.65143e-09 3.99192e-10 0)
(-7.83187e-09 2.70023e-10 0)
(-7.90498e-09 1.3076e-10 0)
(-7.8803e-09 -9.88136e-12 0)
(-7.74371e-09 -1.57066e-10 0)
(-7.50942e-09 -2.98102e-10 0)
(-7.17044e-09 -4.32059e-10 0)
(-6.74809e-09 -5.44971e-10 0)
(-6.24477e-09 -6.35771e-10 0)
(-5.68851e-09 -6.94718e-10 0)
(-5.08877e-09 -7.23345e-10 0)
(-4.47583e-09 -7.17486e-10 0)
(-3.86123e-09 -6.82385e-10 0)
(-3.27187e-09 -6.19334e-10 0)
(-2.71585e-09 -5.36716e-10 0)
(-2.21187e-09 -4.39942e-10 0)
(-1.76073e-09 -3.38962e-10 0)
(-1.37063e-09 -2.40534e-10 0)
(-1.03417e-09 -1.53212e-10 0)
(-7.50211e-10 -8.1765e-11 0)
(-5.05525e-10 -3.08437e-11 0)
(-2.93621e-10 -1.21538e-12 0)
(-9.96536e-11 7.0185e-12 0)
(8.33755e-11 -3.08083e-12 0)
(2.67864e-10 -2.83651e-11 0)
(4.57458e-10 -6.35213e-11 0)
(6.59676e-10 -1.041e-10 0)
(8.72902e-10 -1.443e-10 0)
(1.09945e-09 -1.80242e-10 0)
(1.33262e-09 -2.07324e-10 0)
(1.57125e-09 -2.23954e-10 0)
(1.8057e-09 -2.28146e-10 0)
(2.0346e-09 -2.21605e-10 0)
(2.24844e-09 -2.0516e-10 0)
(2.44894e-09 -1.83085e-10 0)
(2.62881e-09 -1.57532e-10 0)
(2.79451e-09 -1.33433e-10 0)
(2.94129e-09 -1.12494e-10 0)
(3.08009e-09 -9.86414e-11 0)
(3.20718e-09 -9.16622e-11 0)
(3.33574e-09 -9.28134e-11 0)
(3.45984e-09 -9.88744e-11 0)
(3.59163e-09 -1.08162e-10 0)
(3.72017e-09 -1.15665e-10 0)
(3.85445e-09 -1.18381e-10 0)
(3.97733e-09 -1.11106e-10 0)
(4.09389e-09 -9.05406e-11 0)
(4.18155e-09 -5.31767e-11 0)
(4.24345e-09 1.50411e-12 0)
(4.25591e-09 7.18969e-11 0)
(4.22427e-09 1.54713e-10 0)
(4.12809e-09 2.45632e-10 0)
(3.97702e-09 3.41462e-10 0)
(3.75604e-09 4.37666e-10 0)
(3.47978e-09 5.30757e-10 0)
(3.14036e-09 6.14411e-10 0)
(2.75844e-09 6.83471e-10 0)
(2.33509e-09 7.31204e-10 0)
(1.89561e-09 7.54859e-10 0)
(1.44747e-09 7.51888e-10 0)
(1.01735e-09 7.18698e-10 0)
(6.21364e-10 6.4209e-10 0)
(2.97455e-10 5.09697e-10 0)
(7.74339e-11 3.21823e-10 0)
(-1.94019e-11 6.07934e-11 0)
(-2.49961e-12 9.53225e-11 0)
(-1.68379e-10 5.19166e-10 0)
(-5.16812e-10 1.05434e-09 0)
(-1.05798e-09 1.48692e-09 0)
(-1.72973e-09 1.6983e-09 0)
(-2.49402e-09 1.82839e-09 0)
(-3.31141e-09 1.8971e-09 0)
(-4.16434e-09 1.91428e-09 0)
(-5.01614e-09 1.88231e-09 0)
(-5.8556e-09 1.81988e-09 0)
(-6.64955e-09 1.71273e-09 0)
(-7.39494e-09 1.57244e-09 0)
(-8.06028e-09 1.39077e-09 0)
(-8.64768e-09 1.19138e-09 0)
(-9.12829e-09 9.69375e-10 0)
(-9.51022e-09 7.42218e-10 0)
(-9.76754e-09 4.98233e-10 0)
(-9.9119e-09 2.49392e-10 0)
(-9.92105e-09 -1.30166e-11 0)
(-9.81167e-09 -2.72634e-10 0)
(-9.56869e-09 -5.30298e-10 0)
(-9.21542e-09 -7.65471e-10 0)
(-8.74585e-09 -9.74029e-10 0)
(-8.19038e-09 -1.13807e-09 0)
(-7.55246e-09 -1.25605e-09 0)
(-6.86718e-09 -1.31769e-09 0)
(-6.1435e-09 -1.32706e-09 0)
(-5.41571e-09 -1.28294e-09 0)
(-4.69272e-09 -1.19545e-09 0)
(-4.00246e-09 -1.0711e-09 0)
(-3.34877e-09 -9.24298e-10 0)
(-2.74947e-09 -7.65913e-10 0)
(-2.20085e-09 -6.10681e-10 0)
(-1.7102e-09 -4.68717e-10 0)
(-1.26693e-09 -3.50554e-10 0)
(-8.70343e-10 -2.61299e-10 0)
(-5.06125e-10 -2.04699e-10 0)
(-1.70015e-10 -1.79392e-10 0)
(1.52057e-10 -1.82867e-10 0)
(4.63482e-10 -2.08792e-10 0)
(7.74965e-10 -2.51022e-10 0)
(1.08602e-09 -3.00944e-10 0)
(1.40265e-09 -3.5179e-10 0)
(1.71944e-09 -3.95438e-10 0)
(2.03838e-09 -4.27386e-10 0)
(2.35016e-09 -4.42617e-10 0)
(2.65543e-09 -4.41223e-10 0)
(2.94353e-09 -4.22678e-10 0)
(3.21715e-09 -3.91822e-10 0)
(3.46659e-09 -3.51372e-10 0)
(3.69884e-09 -3.08572e-10 0)
(3.90609e-09 -2.66672e-10 0)
(4.10023e-09 -2.32547e-10 0)
(4.27458e-09 -2.07504e-10 0)
(4.44461e-09 -1.9535e-10 0)
(4.60207e-09 -1.93113e-10 0)
(4.763e-09 -1.99777e-10 0)
(4.91441e-09 -2.08351e-10 0)
(5.07037e-09 -2.14621e-10 0)
(5.21142e-09 -2.10238e-10 0)
(5.34822e-09 -1.89764e-10 0)
(5.45464e-09 -1.45778e-10 0)
(5.53858e-09 -7.48619e-11 0)
(5.57035e-09 2.44378e-11 0)
(5.55856e-09 1.49293e-10 0)
(5.47472e-09 2.94317e-10 0)
(5.33125e-09 4.53644e-10 0)
(5.10476e-09 6.19807e-10 0)
(4.81312e-09 7.86989e-10 0)
(4.44012e-09 9.46163e-10 0)
(4.00949e-09 1.08943e-09 0)
(3.51508e-09 1.20487e-09 0)
(2.98733e-09 1.285e-09 0)
(2.42909e-09 1.32245e-09 0)
(1.87204e-09 1.31463e-09 0)
(1.32675e-09 1.25264e-09 0)
(8.32632e-10 1.11801e-09 0)
(4.18532e-10 8.92098e-10 0)
(1.30785e-10 5.74728e-10 0)
(-1.34603e-11 1.25941e-10 0)
(-3.88408e-12 2.11577e-10 0)
(-2.04083e-10 8.41095e-10 0)
(-6.11075e-10 1.58087e-09 0)
(-1.20622e-09 2.16927e-09 0)
(-1.9458e-09 2.50362e-09 0)
(-2.78382e-09 2.7124e-09 0)
(-3.69748e-09 2.83919e-09 0)
(-4.64544e-09 2.8748e-09 0)
(-5.61275e-09 2.84677e-09 0)
(-6.55762e-09 2.75189e-09 0)
(-7.47521e-09 2.60665e-09 0)
(-8.32776e-09 2.39566e-09 0)
(-9.1177e-09 2.14182e-09 0)
(-9.80741e-09 1.84022e-09 0)
(-1.04038e-08 1.51844e-09 0)
(-1.08718e-08 1.16692e-09 0)
(-1.12243e-08 8.04032e-10 0)
(-1.14305e-08 4.17198e-10 0)
(-1.15084e-08 2.60017e-11 0)
(-1.14337e-08 -3.7326e-10 0)
(-1.12311e-08 -7.55565e-10 0)
(-1.08854e-08 -1.11637e-09 0)
(-1.04281e-08 -1.4294e-09 0)
(-9.8533e-09 -1.68892e-09 0)
(-9.19807e-09 -1.87595e-09 0)
(-8.4649e-09 -1.99079e-09 0)
(-7.69232e-09 -2.02612e-09 0)
(-6.88639e-09 -1.99085e-09 0)
(-6.0819e-09 -1.88941e-09 0)
(-5.28327e-09 -1.73826e-09 0)
(-4.51706e-09 -1.55028e-09 0)
(-3.78246e-09 -1.34536e-09 0)
(-3.09596e-09 -1.13876e-09 0)
(-2.45065e-09 -9.47778e-10 0)
(-1.85391e-09 -7.8355e-10 0)
(-1.29421e-09 -6.5588e-10 0)
(-7.73054e-10 -5.67854e-10 0)
(-2.77326e-10 -5.20329e-10 0)
(1.93336e-10 -5.08458e-10 0)
(6.50654e-10 -5.26408e-10 0)
(1.09343e-09 -5.6434e-10 0)
(1.53012e-09 -6.13517e-10 0)
(1.95594e-09 -6.62768e-10 0)
(2.3758e-09 -7.04432e-10 0)
(2.78117e-09 -7.29742e-10 0)
(3.17513e-09 -7.35833e-10 0)
(3.54695e-09 -7.19274e-10 0)
(3.90081e-09 -6.83751e-10 0)
(4.2258e-09 -6.31117e-10 0)
(4.52962e-09 -5.69801e-10 0)
(4.80222e-09 -5.03962e-10 0)
(5.056e-09 -4.43223e-10 0)
(5.28155e-09 -3.90663e-10 0)
(5.4956e-09 -3.53492e-10 0)
(5.68752e-09 -3.30278e-10 0)
(5.87612e-09 -3.22423e-10 0)
(6.0466e-09 -3.22396e-10 0)
(6.21732e-09 -3.26066e-10 0)
(6.36729e-09 -3.22483e-10 0)
(6.51278e-09 -3.04771e-10 0)
(6.62577e-09 -2.61569e-10 0)
(6.71989e-09 -1.86278e-10 0)
(6.76172e-09 -7.23626e-11 0)
(6.76447e-09 8.03426e-11 0)
(6.69347e-09 2.68576e-10 0)
(6.56452e-09 4.85461e-10 0)
(6.34627e-09 7.21342e-10 0)
(6.05966e-09 9.67448e-10 0)
(5.68001e-09 1.21219e-09 0)
(5.23374e-09 1.44595e-09 0)
(4.70535e-09 1.65293e-09 0)
(4.12845e-09 1.82009e-09 0)
(3.49976e-09 1.93276e-09 0)
(2.85651e-09 1.98567e-09 0)
(2.20082e-09 1.9714e-09 0)
(1.57099e-09 1.87655e-09 0)
(9.89746e-10 1.67121e-09 0)
(5.08546e-10 1.33907e-09 0)
(1.66763e-10 8.72316e-10 0)
(-8.43617e-12 2.13836e-10 0)
(-1.01258e-12 3.33871e-10 0)
(-2.22089e-10 1.20926e-09 0)
(-6.65174e-10 2.14662e-09 0)
(-1.29801e-09 2.89953e-09 0)
(-2.07147e-09 3.3578e-09 0)
(-2.96229e-09 3.66606e-09 0)
(-3.9262e-09 3.84925e-09 0)
(-4.94806e-09 3.92506e-09 0)
(-5.9806e-09 3.89281e-09 0)
(-7.01453e-09 3.78521e-09 0)
(-8.00528e-09 3.58882e-09 0)
(-8.95581e-09 3.32558e-09 0)
(-9.82354e-09 2.98344e-09 0)
(-1.06164e-08 2.59458e-09 0)
(-1.12907e-08 2.15228e-09 0)
(-1.18588e-08 1.68508e-09 0)
(-1.22806e-08 1.17968e-09 0)
(-1.25751e-08 6.594e-10 0)
(-1.27089e-08 1.16206e-10 0)
(-1.27073e-08 -4.21167e-10 0)
(-1.25452e-08 -9.49993e-10 0)
(-1.22546e-08 -1.43769e-09 0)
(-1.182e-08 -1.87582e-09 0)
(-1.12785e-08 -2.23582e-09 0)
(-1.06238e-08 -2.51269e-09 0)
(-9.89607e-09 -2.6901e-09 0)
(-9.09524e-09 -2.77274e-09 0)
(-8.26032e-09 -2.7593e-09 0)
(-7.39306e-09 -2.66511e-09 0)
(-6.52672e-09 -2.50175e-09 0)
(-5.66106e-09 -2.29175e-09 0)
(-4.82089e-09 -2.05347e-09 0)
(-4.00197e-09 -1.81014e-09 0)
(-3.2203e-09 -1.57891e-09 0)
(-2.46769e-09 -1.37676e-09 0)
(-1.7531e-09 -1.2131e-09 0)
(-1.06604e-09 -1.09461e-09 0)
(-4.11519e-10 -1.02062e-09 0)
(2.21087e-10 -9.88144e-10 0)
(8.27605e-10 -9.88488e-10 0)
(1.41704e-09 -1.0128e-09 0)
(1.98363e-09 -1.04838e-09 0)
(2.53398e-09 -1.08521e-09 0)
(3.05961e-09 -1.11114e-09 0)
(3.56556e-09 -1.11988e-09 0)
(4.04118e-09 -1.1042e-09 0)
(4.49214e-09 -1.06513e-09 0)
(4.90699e-09 -1.00215e-09 0)
(5.29433e-09 -9.23328e-10 0)
(5.64276e-09 -8.32558e-10 0)
(5.96511e-09 -7.41311e-10 0)
(6.24991e-09 -6.5397e-10 0)
(6.51451e-09 -5.81168e-10 0)
(6.74622e-09 -5.23633e-10 0)
(6.96562e-09 -4.86548e-10 0)
(7.15632e-09 -4.63476e-10 0)
(7.33997e-09 -4.52158e-10 0)
(7.49448e-09 -4.40245e-10 0)
(7.64102e-09 -4.20659e-10 0)
(7.75068e-09 -3.78829e-10 0)
(7.84305e-09 -3.05883e-10 0)
(7.88276e-09 -1.89735e-10 0)
(7.88856e-09 -2.59278e-11 0)
(7.8217e-09 1.87545e-10 0)
(7.70243e-09 4.4571e-10 0)
(7.49288e-09 7.39534e-10 0)
(7.2174e-09 1.05803e-09 0)
(6.84321e-09 1.38704e-09 0)
(6.39964e-09 1.71499e-09 0)
(5.86168e-09 2.02434e-09 0)
(5.26485e-09 2.29908e-09 0)
(4.59636e-09 2.51618e-09 0)
(3.89898e-09 2.6621e-09 0)
(3.17037e-09 2.72639e-09 0)
(2.44996e-09 2.70551e-09 0)
(1.74409e-09 2.57191e-09 0)
(1.10583e-09 2.28702e-09 0)
(5.68313e-10 1.83534e-09 0)
(1.94494e-10 1.1991e-09 0)
(-4.91841e-12 3.18551e-10 0)
(-2.31261e-12 4.58477e-10 0)
(-2.30754e-10 1.59955e-09 0)
(-6.91168e-10 2.73707e-09 0)
(-1.33464e-09 3.64861e-09 0)
(-2.13176e-09 4.24675e-09 0)
(-3.03937e-09 4.64884e-09 0)
(-4.0414e-09 4.91164e-09 0)
(-5.09275e-09 5.01998e-09 0)
(-6.18279e-09 5.008e-09 0)
(-7.25857e-09 4.87381e-09 0)
(-8.31968e-09 4.65002e-09 0)
(-9.31924e-09 4.31859e-09 0)
(-1.02678e-08 3.91179e-09 0)
(-1.11174e-08 3.41844e-09 0)
(-1.18814e-08 2.8759e-09 0)
(-1.25111e-08 2.27289e-09 0)
(-1.30251e-08 1.63984e-09 0)
(-1.33803e-08 9.65363e-10 0)
(-1.36028e-08 2.81138e-10 0)
(-1.36576e-08 -4.13947e-10 0)
(-1.35771e-08 -1.08259e-09 0)
(-1.33352e-08 -1.71617e-09 0)
(-1.29696e-08 -2.27779e-09 0)
(-1.24634e-08 -2.75775e-09 0)
(-1.18575e-08 -3.12912e-09 0)
(-1.1143e-08 -3.39046e-09 0)
(-1.03611e-08 -3.53146e-09 0)
(-9.50775e-09 -3.56314e-09 0)
(-8.62053e-09 -3.49201e-09 0)
(-7.69679e-09 -3.33997e-09 0)
(-6.76779e-09 -3.12525e-09 0)
(-5.82974e-09 -2.87459e-09 0)
(-4.90634e-09 -2.60952e-09 0)
(-3.99169e-09 -2.35356e-09 0)
(-3.10258e-09 -2.12292e-09 0)
(-2.23137e-09 -1.93139e-09 0)
(-1.38984e-09 -1.78454e-09 0)
(-5.69733e-10 -1.68457e-09 0)
(2.19842e-10 -1.62644e-09 0)
(9.86681e-10 -1.60348e-09 0)
(1.72212e-09 -1.6036e-09 0)
(2.43278e-09 -1.61609e-09 0)
(3.10887e-09 -1.62674e-09 0)
(3.75617e-09 -1.62641e-09 0)
(4.36346e-09 -1.60413e-09 0)
(4.93725e-09 -1.55749e-09 0)
(5.46559e-09 -1.48252e-09 0)
(5.95768e-09 -1.38543e-09 0)
(6.40127e-09 -1.26857e-09 0)
(6.80952e-09 -1.14397e-09 0)
(7.16957e-09 -1.0164e-09 0)
(7.499e-09 -8.9919e-10 0)
(7.78349e-09 -7.95056e-10 0)
(8.04457e-09 -7.13494e-10 0)
(8.26456e-09 -6.50369e-10 0)
(8.46739e-09 -6.07067e-10 0)
(8.63011e-09 -5.71428e-10 0)
(8.77776e-09 -5.37777e-10 0)
(8.8811e-09 -4.89504e-10 0)
(8.96513e-09 -4.17032e-10 0)
(8.99383e-09 -3.03562e-10 0)
(8.99188e-09 -1.40738e-10 0)
(8.9183e-09 8.04182e-11 0)
(8.79868e-09 3.59276e-10 0)
(8.59049e-09 6.91141e-10 0)
(8.32233e-09 1.06529e-09 0)
(7.95454e-09 1.46676e-09 0)
(7.52001e-09 1.88159e-09 0)
(6.98491e-09 2.29099e-09 0)
(6.38697e-09 2.67832e-09 0)
(5.70257e-09 3.01695e-09 0)
(4.97613e-09 3.28499e-09 0)
(4.19796e-09 3.458e-09 0)
(3.41583e-09 3.53199e-09 0)
(2.62716e-09 3.49659e-09 0)
(1.87707e-09 3.32127e-09 0)
(1.18489e-09 2.94776e-09 0)
(6.14311e-10 2.36575e-09 0)
(2.11581e-10 1.54411e-09 0)
(-1.26657e-12 4.3486e-10 0)
(-3.78865e-12 5.84991e-10 0)
(-2.3415e-10 1.99325e-09 0)
(-6.87852e-10 3.32694e-09 0)
(-1.33579e-09 4.40851e-09 0)
(-2.12926e-09 5.13864e-09 0)
(-3.05044e-09 5.65267e-09 0)
(-4.05171e-09 5.98427e-09 0)
(-5.12914e-09 6.15329e-09 0)
(-6.2316e-09 6.1486e-09 0)
(-7.35313e-09 6.01556e-09 0)
(-8.43738e-09 5.74559e-09 0)
(-9.49439e-09 5.37431e-09 0)
(-1.04739e-08 4.88441e-09 0)
(-1.13934e-08 4.31517e-09 0)
(-1.21994e-08 3.65432e-09 0)
(-1.29114e-08 2.94059e-09 0)
(-1.34771e-08 2.16127e-09 0)
(-1.39227e-08 1.35278e-09 0)
(-1.42032e-08 5.09545e-10 0)
(-1.43516e-08 -3.27972e-10 0)
(-1.43314e-08 -1.15355e-09 0)
(-1.41806e-08 -1.92382e-09 0)
(-1.38717e-08 -2.62647e-09 0)
(-1.34459e-08 -3.22446e-09 0)
(-1.28841e-08 -3.70989e-09 0)
(-1.22284e-08 -4.06141e-09 0)
(-1.14664e-08 -4.28336e-09 0)
(-1.06382e-08 -4.37373e-09 0)
(-9.73573e-09 -4.35042e-09 0)
(-8.79456e-09 -4.2278e-09 0)
(-7.80853e-09 -4.03285e-09 0)
(-6.80731e-09 -3.7885e-09 0)
(-5.78521e-09 -3.52277e-09 0)
(-4.7659e-09 -3.25738e-09 0)
(-3.74366e-09 -3.01311e-09 0)
(-2.73715e-09 -2.80255e-09 0)
(-1.74065e-09 -2.63457e-09 0)
(-7.69258e-10 -2.50984e-09 0)
(1.82547e-10 -2.42597e-09 0)
(1.10159e-09 -2.37383e-09 0)
(1.99302e-09 -2.34402e-09 0)
(2.84413e-09 -2.32223e-09 0)
(3.66003e-09 -2.29782e-09 0)
(4.42775e-09 -2.25711e-09 0)
(5.15354e-09 -2.19443e-09 0)
(5.82428e-09 -2.10201e-09 0)
(6.44906e-09 -1.98317e-09 0)
(7.0147e-09 -1.83762e-09 0)
(7.53424e-09 -1.67666e-09 0)
(7.9938e-09 -1.50437e-09 0)
(8.41081e-09 -1.33568e-09 0)
(8.7697e-09 -1.17454e-09 0)
(9.09224e-09 -1.03439e-09 0)
(9.35975e-09 -9.1383e-10 0)
(9.59745e-09 -8.19106e-10 0)
(9.7818e-09 -7.39843e-10 0)
(9.94054e-09 -6.73522e-10 0)
(1.00443e-08 -6.0292e-10 0)
(1.01225e-08 -5.19542e-10 0)
(1.01392e-08 -4.03408e-10 0)
(1.01247e-08 -2.43987e-10 0)
(1.00373e-08 -2.54811e-11 0)
(9.90832e-09 2.5662e-10 0)
(9.6927e-09 6.05022e-10 0)
(9.42392e-09 1.01242e-09 0)
(9.05701e-09 1.46641e-09 0)
(8.62902e-09 1.95164e-09 0)
(8.09881e-09 2.44846e-09 0)
(7.50729e-09 2.93982e-09 0)
(6.82103e-09 3.39894e-09 0)
(6.08583e-09 3.80191e-09 0)
(5.28021e-09 4.11386e-09 0)
(4.45526e-09 4.31435e-09 0)
(3.60311e-09 4.38904e-09 0)
(2.7747e-09 4.33487e-09 0)
(1.97131e-09 4.1087e-09 0)
(1.24943e-09 3.64295e-09 0)
(6.42378e-10 2.91898e-09 0)
(2.23845e-10 1.90205e-09 0)
(-9.80026e-13 5.57041e-10 0)
(-4.6368e-12 7.12244e-10 0)
(-2.26407e-10 2.37217e-09 0)
(-6.72815e-10 3.91216e-09 0)
(-1.30495e-09 5.15411e-09 0)
(-2.09695e-09 6.0336e-09 0)
(-3.00241e-09 6.64339e-09 0)
(-4.00723e-09 7.06557e-09 0)
(-5.0674e-09 7.28075e-09 0)
(-6.18692e-09 7.31692e-09 0)
(-7.30614e-09 7.16688e-09 0)
(-8.42715e-09 6.88217e-09 0)
(-9.49203e-09 6.44875e-09 0)
(-1.05204e-08 5.90837e-09 0)
(-1.14575e-08 5.24333e-09 0)
(-1.23272e-08 4.49688e-09 0)
(-1.30714e-08 3.65449e-09 0)
(-1.37169e-08 2.75827e-09 0)
(-1.42096e-08 1.79902e-09 0)
(-1.45829e-08 8.20617e-10 0)
(-1.47901e-08 -1.75011e-10 0)
(-1.48699e-08 -1.14008e-09 0)
(-1.47844e-08 -2.06243e-09 0)
(-1.45751e-08 -2.89655e-09 0)
(-1.42124e-08 -3.62954e-09 0)
(-1.37388e-08 -4.2286e-09 0)
(-1.31322e-08 -4.69042e-09 0)
(-1.24339e-08 -5.002e-09 0)
(-1.16278e-08 -5.17453e-09 0)
(-1.07522e-08 -5.21492e-09 0)
(-9.79554e-09 -5.14696e-09 0)
(-8.79156e-09 -4.99135e-09 0)
(-7.73207e-09 -4.77751e-09 0)
(-6.64604e-09 -4.53014e-09 0)
(-5.52764e-09 -4.27535e-09 0)
(-4.40156e-09 -4.03209e-09 0)
(-3.2636e-09 -3.81612e-09 0)
(-2.13492e-09 -3.63487e-09 0)
(-1.01229e-09 -3.49173e-09 0)
(8.57053e-11 -3.38245e-09 0)
(1.1619e-09 -3.30084e-09 0)
(2.19934e-09 -3.23461e-09 0)
(3.2012e-09 -3.1734e-09 0)
(4.15145e-09 -3.10249e-09 0)
(5.05482e-09 -3.01387e-09 0)
(5.89602e-09 -2.89658e-09 0)
(6.68292e-09 -2.75067e-09 0)
(7.40082e-09 -2.57262e-09 0)
(8.06182e-09 -2.37187e-09 0)
(8.65095e-09 -2.15092e-09 0)
(9.18484e-09 -1.92513e-09 0)
(9.64691e-09 -1.69872e-09 0)
(1.00584e-08 -1.48808e-09 0)
(1.03999e-08 -1.29422e-09 0)
(1.06969e-08 -1.12858e-09 0)
(1.09255e-08 -9.83714e-10 0)
(1.11149e-08 -8.6186e-10 0)
(1.12358e-08 -7.46739e-10 0)
(1.13208e-08 -6.32695e-10 0)
(1.13343e-08 -4.98262e-10 0)
(1.13115e-08 -3.33008e-10 0)
(1.12106e-08 -1.15876e-10 0)
(1.10688e-08 1.61626e-10 0)
(1.08401e-08 5.10678e-10 0)
(1.05637e-08 9.29588e-10 0)
(1.01912e-08 1.41273e-09 0)
(9.76438e-09 1.94618e-09 0)
(9.23601e-09 2.51104e-09 0)
(8.6508e-09 3.0892e-09 0)
(7.9671e-09 3.65484e-09 0)
(7.23346e-09 4.18514e-09 0)
(6.41739e-09 4.64353e-09 0)
(5.57099e-09 5.00032e-09 0)
(4.67459e-09 5.2206e-09 0)
(3.78432e-09 5.29585e-09 0)
(2.89507e-09 5.21191e-09 0)
(2.06121e-09 4.93101e-09 0)
(1.29592e-09 4.36394e-09 0)
(6.68402e-10 3.49179e-09 0)
(2.27235e-10 2.26851e-09 0)
(-4.05415e-13 6.80497e-10 0)
(-2.70976e-12 8.33601e-10 0)
(-2.19135e-10 2.73969e-09 0)
(-6.50206e-10 4.47728e-09 0)
(-1.27336e-09 5.88922e-09 0)
(-2.04004e-09 6.90449e-09 0)
(-2.94082e-09 7.63036e-09 0)
(-3.91746e-09 8.11755e-09 0)
(-4.97191e-09 8.40691e-09 0)
(-6.05955e-09 8.46547e-09 0)
(-7.18858e-09 8.33691e-09 0)
(-8.29378e-09 8.01489e-09 0)
(-9.38822e-09 7.55492e-09 0)
(-1.04119e-08 6.93955e-09 0)
(-1.13925e-08 6.21534e-09 0)
(-1.22703e-08 5.3628e-09 0)
(-1.30758e-08 4.42805e-09 0)
(-1.37481e-08 3.39796e-09 0)
(-1.43218e-08 2.32018e-09 0)
(-1.47411e-08 1.19175e-09 0)
(-1.50455e-08 6.3766e-11 0)
(-1.51871e-08 -1.05446e-09 0)
(-1.52083e-08 -2.11114e-09 0)
(-1.50691e-08 -3.09097e-09 0)
(-1.48126e-08 -3.95079e-09 0)
(-1.44064e-08 -4.68028e-09 0)
(-1.38923e-08 -5.25439e-09 0)
(-1.32451e-08 -5.67603e-09 0)
(-1.25041e-08 -5.94189e-09 0)
(-1.16503e-08 -6.06959e-09 0)
(-1.07195e-08 -6.07398e-09 0)
(-9.69842e-09 -5.98248e-09 0)
(-8.61936e-09 -5.8194e-09 0)
(-7.47384e-09 -5.61341e-09 0)
(-6.29105e-09 -5.38786e-09 0)
(-5.06641e-09 -5.16422e-09 0)
(-3.82629e-09 -4.95659e-09 0)
(-2.56879e-09 -4.77456e-09 0)
(-1.31783e-09 -4.61993e-09 0)
(-7.28886e-11 -4.49109e-09 0)
(1.14412e-09 -4.37958e-09 0)
(2.33371e-09 -4.27699e-09 0)
(3.47571e-09 -4.1695e-09 0)
(4.57224e-09 -4.04817e-09 0)
(5.60474e-09 -3.90008e-09 0)
(6.57864e-09 -3.72241e-09 0)
(7.47686e-09 -3.50846e-09 0)
(8.30944e-09 -3.26509e-09 0)
(9.05978e-09 -2.99259e-09 0)
(9.74288e-09 -2.7057e-09 0)
(1.0341e-08 -2.40811e-09 0)
(1.08741e-08 -2.11798e-09 0)
(1.13219e-08 -1.83791e-09 0)
(1.17094e-08 -1.58396e-09 0)
(1.20123e-08 -1.35206e-09 0)
(1.22601e-08 -1.15024e-09 0)
(1.24237e-08 -9.64658e-10 0)
(1.25373e-08 -7.94147e-10 0)
(1.25662e-08 -6.17425e-10 0)
(1.25487e-08 -4.26378e-10 0)
(1.2444e-08 -1.96793e-10 0)
(1.22941e-08 8.14461e-11 0)
(1.20532e-08 4.26994e-10 0)
(1.17663e-08 8.43611e-10 0)
(1.13839e-08 1.33517e-09 0)
(1.09532e-08 1.89266e-09 0)
(1.0423e-08 2.50208e-09 0)
(9.84214e-09 3.14517e-09 0)
(9.16172e-09 3.79715e-09 0)
(8.43371e-09 4.43598e-09 0)
(7.61633e-09 5.02746e-09 0)
(6.76387e-09 5.54183e-09 0)
(5.84458e-09 5.9343e-09 0)
(4.91486e-09 6.17759e-09 0)
(3.95845e-09 6.24508e-09 0)
(3.03539e-09 6.13184e-09 0)
(2.14635e-09 5.78427e-09 0)
(1.35417e-09 5.11322e-09 0)
(6.89574e-10 4.08143e-09 0)
(2.35113e-10 2.64328e-09 0)
(-1.46675e-12 8.031e-10 0)
(-2.9074e-12 9.50271e-10 0)
(-2.12148e-10 3.09288e-09 0)
(-6.41078e-10 5.03359e-09 0)
(-1.24289e-09 6.59376e-09 0)
(-1.99664e-09 7.76225e-09 0)
(-2.86541e-09 8.58535e-09 0)
(-3.83592e-09 9.15857e-09 0)
(-4.84989e-09 9.48952e-09 0)
(-5.92504e-09 9.60487e-09 0)
(-7.00992e-09 9.47492e-09 0)
(-8.11929e-09 9.15829e-09 0)
(-9.18567e-09 8.64577e-09 0)
(-1.02334e-08 7.99534e-09 0)
(-1.11992e-08 7.18645e-09 0)
(-1.2118e-08 6.26814e-09 0)
(-1.2926e-08 5.22119e-09 0)
(-1.36607e-08 4.09613e-09 0)
(-1.42598e-08 2.88437e-09 0)
(-1.4764e-08 1.6396e-09 0)
(-1.51165e-08 3.66435e-10 0)
(-1.53611e-08 -8.79045e-10 0)
(-1.54479e-08 -2.08212e-09 0)
(-1.54212e-08 -3.19135e-09 0)
(-1.52384e-08 -4.19147e-09 0)
(-1.49422e-08 -5.04573e-09 0)
(-1.44972e-08 -5.74868e-09 0)
(-1.39435e-08 -6.28516e-09 0)
(-1.3253e-08 -6.66463e-09 0)
(-1.24625e-08 -6.89316e-09 0)
(-1.1551e-08 -6.99301e-09 0)
(-1.05527e-08 -6.98461e-09 0)
(-9.45364e-09 -6.89593e-09 0)
(-8.2858e-09 -6.75173e-09 0)
(-7.04179e-09 -6.57699e-09 0)
(-5.75173e-09 -6.39105e-09 0)
(-4.41324e-09 -6.20906e-09 0)
(-3.05474e-09 -6.03912e-09 0)
(-1.67705e-09 -5.88468e-09 0)
(-3.06924e-10 -5.74229e-09 0)
(1.05355e-09 -5.60668e-09 0)
(2.37948e-09 -5.46661e-09 0)
(3.66975e-09 -5.31367e-09 0)
(4.90165e-09 -5.13463e-09 0)
(6.0772e-09 -4.92465e-09 0)
(7.17592e-09 -4.67456e-09 0)
(8.20467e-09 -4.38844e-09 0)
(9.14441e-09 -4.06407e-09 0)
(1.00074e-08 -3.7148e-09 0)
(1.07745e-08 -3.3432e-09 0)
(1.14632e-08 -2.96817e-09 0)
(1.20524e-08 -2.59297e-09 0)
(1.25653e-08 -2.23724e-09 0)
(1.29773e-08 -1.89991e-09 0)
(1.33173e-08 -1.59506e-09 0)
(1.3556e-08 -1.31235e-09 0)
(1.3728e-08 -1.0565e-09 0)
(1.37992e-08 -8.0799e-10 0)
(1.381e-08 -5.63012e-10 0)
(1.37205e-08 -2.96333e-10 0)
(1.35764e-08 1.10643e-12 0)
(1.33327e-08 3.53319e-10 0)
(1.30397e-08 7.67446e-10 0)
(1.26482e-08 1.25692e-09 0)
(1.22112e-08 1.81913e-09 0)
(1.16759e-08 2.44913e-09 0)
(1.10966e-08 3.13183e-09 0)
(1.04191e-08 3.84625e-09 0)
(9.69877e-09 4.57051e-09 0)
(8.88562e-09 5.27251e-09 0)
(8.03695e-09 5.9258e-09 0)
(7.1105e-09 6.48571e-09 0)
(6.16405e-09 6.91796e-09 0)
(5.16726e-09 7.17593e-09 0)
(4.18005e-09 7.24246e-09 0)
(3.19192e-09 7.09131e-09 0)
(2.26846e-09 6.67748e-09 0)
(1.42178e-09 5.89172e-09 0)
(7.29607e-10 4.69428e-09 0)
(2.45585e-10 3.02683e-09 0)
(1.31664e-12 9.28319e-10 0)
(-2.80107e-12 1.0626e-09 0)
(-2.14397e-10 3.44356e-09 0)
(-6.35643e-10 5.57331e-09 0)
(-1.23721e-09 7.2871e-09 0)
(-1.96141e-09 8.58009e-09 0)
(-2.81729e-09 9.52931e-09 0)
(-3.75201e-09 1.01597e-08 0)
(-4.75859e-09 1.05556e-08 0)
(-5.78302e-09 1.06901e-08 0)
(-6.8525e-09 1.05985e-08 0)
(-7.90841e-09 1.02596e-08 0)
(-8.97547e-09 9.74062e-09 0)
(-9.98526e-09 9.02706e-09 0)
(-1.09723e-08 8.17737e-09 0)
(-1.18701e-08 7.1685e-09 0)
(-1.27202e-08 6.05275e-09 0)
(-1.34562e-08 4.81438e-09 0)
(-1.41221e-08 3.5088e-09 0)
(-1.46537e-08 2.13415e-09 0)
(-1.5097e-08 7.49238e-10 0)
(-1.53933e-08 -6.34532e-10 0)
(-1.55888e-08 -1.95982e-09 0)
(-1.56311e-08 -3.20934e-09 0)
(-1.55643e-08 -4.3363e-09 0)
(-1.53431e-08 -5.32817e-09 0)
(-1.50084e-08 -6.15757e-09 0)
(-1.45223e-08 -6.82507e-09 0)
(-1.39223e-08 -7.32595e-09 0)
(-1.31783e-08 -7.67508e-09 0)
(-1.23248e-08 -7.88598e-09 0)
(-1.13405e-08 -7.98278e-09 0)
(-1.02582e-08 -7.98838e-09 0)
(-9.06531e-09 -7.92823e-09 0)
(-7.79405e-09 -7.82458e-09 0)
(-6.43928e-09 -7.69645e-09 0)
(-5.03257e-09 -7.55742e-09 0)
(-3.57433e-09 -7.41573e-09 0)
(-2.09528e-09 -7.27329e-09 0)
(-5.99129e-10 -7.12844e-09 0)
(8.84641e-10 -6.97361e-09 0)
(2.35176e-09 -6.80199e-09 0)
(3.77489e-09 -6.60156e-09 0)
(5.15215e-09 -6.36658e-09 0)
(6.45885e-09 -6.08653e-09 0)
(7.69778e-09 -5.76296e-09 0)
(8.84657e-09 -5.39132e-09 0)
(9.91377e-09 -4.98297e-09 0)
(1.08778e-08 -4.53905e-09 0)
(1.17531e-08 -4.07837e-09 0)
(1.25172e-08 -3.60422e-09 0)
(1.31906e-08 -3.1386e-09 0)
(1.3748e-08 -2.68267e-09 0)
(1.42166e-08 -2.25597e-09 0)
(1.45669e-08 -1.85206e-09 0)
(1.48326e-08 -1.48237e-09 0)
(1.49798e-08 -1.13058e-09 0)
(1.50494e-08 -7.98794e-10 0)
(1.50027e-08 -4.62765e-10 0)
(1.48873e-08 -1.16988e-10 0)
(1.46597e-08 2.65468e-10 0)
(1.43739e-08 6.92207e-10 0)
(1.39818e-08 1.18429e-09 0)
(1.35419e-08 1.74433e-09 0)
(1.30018e-08 2.3784e-09 0)
(1.24217e-08 3.07721e-09 0)
(1.17454e-08 3.82762e-09 0)
(1.10328e-08 4.6104e-09 0)
(1.02274e-08 5.39719e-09 0)
(9.38936e-09 6.16265e-09 0)
(8.46733e-09 6.86675e-09 0)
(7.52145e-09 7.47679e-09 0)
(6.50909e-09 7.93938e-09 0)
(5.48988e-09 8.22111e-09 0)
(4.43628e-09 8.28111e-09 0)
(3.41325e-09 8.10126e-09 0)
(2.4207e-09 7.61254e-09 0)
(1.53215e-09 6.71307e-09 0)
(7.83809e-10 5.33514e-09 0)
(2.71616e-10 3.42834e-09 0)
(3.79597e-12 1.06121e-09 0)
(-5.72547e-12 1.17719e-09 0)
(-2.15746e-10 3.78508e-09 0)
(-6.42236e-10 6.11551e-09 0)
(-1.23773e-09 7.96067e-09 0)
(-1.96531e-09 9.38488e-09 0)
(-2.78612e-09 1.04301e-08 0)
(-3.71112e-09 1.11521e-08 0)
(-4.67647e-09 1.15739e-08 0)
(-5.69237e-09 1.17564e-08 0)
(-6.70397e-09 1.16616e-08 0)
(-7.7453e-09 1.13442e-08 0)
(-8.75308e-09 1.07869e-08 0)
(-9.76342e-09 1.0059e-08 0)
(-1.07069e-08 9.13985e-09 0)
(-1.16272e-08 8.08765e-09 0)
(-1.2455e-08 6.88009e-09 0)
(-1.32383e-08 5.5734e-09 0)
(-1.3908e-08 4.15766e-09 0)
(-1.45134e-08 2.69288e-09 0)
(-1.49886e-08 1.18459e-09 0)
(-1.53824e-08 -3.06177e-10 0)
(-1.56337e-08 -1.76333e-09 0)
(-1.57887e-08 -3.13242e-09 0)
(-1.57925e-08 -4.39634e-09 0)
(-1.56873e-08 -5.51638e-09 0)
(-1.54257e-08 -6.48455e-09 0)
(-1.50459e-08 -7.28444e-09 0)
(-1.45085e-08 -7.92237e-09 0)
(-1.38477e-08 -8.4029e-09 0)
(-1.30332e-08 -8.74385e-09 0)
(-1.20975e-08 -8.96328e-09 0)
(-1.10205e-08 -9.08402e-09 0)
(-9.83498e-09 -9.12829e-09 0)
(-8.53079e-09 -9.11644e-09 0)
(-7.14113e-09 -9.06588e-09 0)
(-5.66392e-09 -8.98847e-09 0)
(-4.13246e-09 -8.8912e-09 0)
(-2.55039e-09 -8.77581e-09 0)
(-9.50856e-10 -8.63879e-09 0)
(6.59594e-10 -8.47523e-09 0)
(2.24908e-09 -8.27537e-09 0)
(3.81191e-09 -8.03353e-09 0)
(5.31886e-09 -7.73905e-09 0)
(6.7681e-09 -7.3915e-09 0)
(8.13325e-09 -6.98453e-09 0)
(9.41824e-09 -6.52722e-09 0)
(1.05985e-08 -6.01914e-09 0)
(1.16843e-08 -5.47831e-09 0)
(1.26511e-08 -4.90777e-09 0)