/*--------------------------------*- C++ -*----------------------------------*\
| =========                 |                                                 |
| \\      /  F ield         | OpenFOAM: The Open Source CFD Toolbox           |
|  \\    /   O peration     | Version:  2412                                  |
|   \\  /    A nd           | Website:  www.openfoam.com                      |
|    \\/     M anipulation  |                                                 |
\*---------------------------------------------------------------------------*/
FoamFile
{
    version     2.0;
    format      ascii;
    arch        "LSB;label=32;scalar=64";
    class       volScalarField;
    location    "1.8";
    object      alpha.honey;
}
// * * * * * * * * * * * * * * * * * * * * * * * * * * * * * * * * * * * * * //

dimensions      [0 0 0 0 0 0 0];

internalField   nonuniform List<scalar> 
6400
(
1
1
1
1
1
1
1
1
1
1
1
1
1
1
1
1
1
1
1
1
1
1
1
1
1
1
1
1
1
1
1
1
1
1
1
1
1
1
1
1
1
1
1
1
1
1
1
1
1
1
1
1
1
1
1
1
1
1
1
1
1
1
1
1
1
1
1
1
1
1
1
1
1
1
1
1
1
1
1
1
1
1
1
1
1
1
1
1
1
1
1
1
1
1
1
1
1
1
1
1
1
1
1
1
1
1
1
1
1
1
1
1
1
1
1
1
1
1
1
1
1
1
1
1
1
1
1
1
1
1
1
1
1
1
1
1
1
1
1
1
1
1
1
1
1
1
1
1
1
1
1
1
1
1
1
1
1
1
1
1
1
1
1
1
1
1
1
1
1
1
1
1
1
1
1
1
1
1
1
1
1
1
1
1
1
1
1
1
1
1
1
1
1
1
1
1
1
1
1
1
1
1
1
1
1
1
1
1
1
1
1
1
1
1
1
1
1
1
1
1
1
1
1
1
1
1
1
1
1
1
1
1
1
1
1
1
1
1
1
1
1
1
1
1
1
1
1
1
1
1
1
1
1
1
1
1
1
1
1
1
1
1
1
1
1
1
1
1
1
1
1
1
1
1
1
1
1
1
1
1
1
1
1
1
1
1
1
1
1
1
1
1
1
1
1
1
1
1
1
1
1
1
1
1
1
1
1
1
1
1
1
1
1
1
1
1
1
1
1
1
1
1
1
1
1
1
1
1
1
1
1
1
1
1
1
1
1
1
1
1
1
1
1
1
1
1
1
1
1
1
1
1
1
1
1
1
1
1
1
1
1
1
1
1
1
1
1
1
1
1
1
1
1
1
1
1
1
1
1
1
1
1
1
1
1
1
1
1
1
1
1
1
1
1
1
1
1
1
1
1
1
1
1
1
1
1
1
1
1
1
1
1
1
1
1
1
1
1
1
1
1
1
1
1
1
1
1
1
1
1
1
1
1
1
1
1
1
1
1
1
1
1
1
1
1
1
1
1
1
1
1
1
1
1
1
1
1
1
1
1
1
1
1
1
1
1
1
1
1
1
1
1
1
1
1
1
1
1
1
1
1
1
1
1
1
1
1
1
1
1
1
1
1
1
1
1
1
1
1
1
1
1
1
1
1
1
1
1
1
1
1
1
1
1
1
1
1
1
1
1
1
1
1
1
1
1
1
1
1
1
1
1
1
1
1
1
1
1
1
1
1
1
1
1
1
1
1
1
1
1
1
1
1
1
1
1
1
1
1
1
1
1
1
1
1
1
1
1
1
1
1
1
1
1
1
1
1
1
1
1
1
1
1
1
1
1
1
1
1
1
1
1
1
1
1
1
1
1
1
1
1
1
1
1
1
1
1
1
1
1
1
1
1
1
1
1
1
1
1
1
1
1
1
1
1
1
1
1
1
1
1
1
1
1
1
1
1
1
1
1
1
1
1
1
1
1
1
1
1
1
1
1
1
1
1
1
1
1
1
1
1
1
1
1
1
1
1
1
1
1
1
1
1
1
1
1
1
1
1
1
1
1
1
1
1
1
1
1
1
1
1
1
1
1
1
1
1
1
1
1
1
1
1
1
1
1
1
1
1
1
1
1
1
1
1
1
1
1
1
1
1
1
1
1
1
1
1
1
1
1
1
1
1
1
1
1
1
1
1
1
1
1
1
1
1
1
1
1
1
1
1
1
1
1
1
1
1
1
1
1
1
1
1
1
1
1
1
1
1
1
1
1
1
1
1
1
1
1
1
1
1
1
1
1
1
1
1
1
1
1
1
1
1
1
1
1
1
1
1
1
1
1
1
1
1
1
1
1
1
1
1
1
1
1
1
1
1
1
1
1
1
1
1
1
1
1
1
1
1
1
1
1
1
1
1
1
1
1
1
1
1
1
1
1
1
1
1
1
1
1
1
1
1
1
1
1
1
1
1
1
1
1
1
1
1
1
1
1
1
1
1
1
1
1
1
1
1
1
1
1
1
1
1
1
1
1
1
1
1
1
1
1
1
1
1
1
1
1
1
1
1
1
1
1
1
1
1
1
1
1
1
1
1
1
1
1
1
1
1
1
1
1
1
1
1
1
1
1
1
1
1
1
1
1
1
1
1
1
1
1
1
1
1
1
1
1
1
1
1
1
1
1
1
1
1
1
1
1
1
1
1
1
1
1
1
1
1
1
1
1
1
1
1
1
1
1
1
1
1
1
1
1
1
1
1
1
1
1
1
1
1
1
1
1
1
1
1
1
1
1
1
1
1
1
1
1
1
1
1
1
1
1
1
1
1
1
1
1
1
1
1
1
1
1
1
1
1
1
1
1
1
1
1
1
1
1
1
1
1
1
1
1
1
1
1
1
1
1
1
1
1
1
1
1
1
1
1
1
1
1
1
1
1
1
1
1
1
1
1
1
1
1
1
1
1
1
1
1
1
1
1
1
1
1
1
1
1
1
1
1
1
1
1
1
1
1
1
1
1
1
1
1
1
1
1
1
1
1
1
1
1
1
1
1
1
1
1
1
1
1
1
1
1
1
1
1
1
1
1
1
1
1
1
1
1
1
1
1
1
1
1
1
1
1
1
1
1
1
1
1
1
1
1
1
1
1
1
1
1
1
1
1
1
1
1
1
1
1
1
1
1
1
1
1
1
1
1
1
1
1
1
1
1
1
1
1
1
1
1
1
1
1
1
1
1
1
1
1
1
1
1
1
1
1
1
1
1
1
1
1
1
1
1
1
1
1
1
1
1
1
1
1
1
1
1
1
1
1
1
1
1
1
1
1
1
1
1
1
1
1
1
1
1
1
1
1
1
1
1
1
1
1
1
1
1
1
1
1
1
1
1
1
1
1
1
1
1
1
1
1
1
1
1
1
1
1
1
1
1
1
1
1
1
1
1
1
1
1
1
1
1
1
1
1
1
1
1
1
1
1
1
1
1
1
1
1
1
1
1
1
1
1
1
1
1
1
1
1
1
1
1
1
1
1
1
1
1
1
1
1
1
1
1
1
1
1
1
1
1
1
1
1
1
1
1
1
1
1
1
1
1
1
1
1
1
1
1
1
1
1
1
1
1
1
1
1
1
1
1
1
1
1
1
1
1
1
1
1
1
1
1
1
1
1
1
1
1
1
1
1
1
1
1
1
1
1
1
1
1
1
1
1
1
1
1
1
1
1
1
1
1
1
1
1
1
1
1
1
1
1
1
1
1
1
1
1
1
1
1
1
1
1
1
1
1
1
1
1
1
1
1
1
1
1
1
1
1
1
1
1
1
1
1
1
1
1
1
1
1
1
1
1
1
1
1
1
1
1
1
1
1
1
1
1
1
1
1
1
1
1
1
1
1
1
1
1
1
1
1
1
1
1
1
1
1
1
1
1
1
1
1
1
1
1
1
1
1
1
1
1
1
1
1
1
1
1
1
1
1
1
1
1
1
1
1
1
1
1
1
1
1
1
1
1
1
1
1
1
1
1
1
1
1
1
1
1
1
1
1
1
1
1
1
1
1
1
1
1
1
1
1
1
1
1
1
1
1
1
1
1
1
1
1
1
1
1
1
1
1
1
1
1
1
1
1
1
1
1
1
1
1
1
1
1
1
1
1
1
1
1
1.56476e-07
2.47278e-07
3.05255e-07
3.43586e-07
3.67347e-07
3.7929e-07
3.81826e-07
3.76305e-07
3.64163e-07
3.46889e-07
3.2534e-07
3.00335e-07
2.72925e-07
2.4631e-07
2.17429e-07
1.8661e-07
1.54176e-07
1.25162e-07
1.01643e-07
7.95827e-08
6.39366e-08
4.94616e-08
3.58956e-08
2.62195e-08
1.69379e-08
8.43889e-09
2.8889e-09
8.11707e-10
-4.28464e-43
-8.75509e-42
-6.91053e-40
-1.28272e-38
-1.10741e-33
-1.09138e-25
-4.66784e-34
-8.27181e-26
-5.31633e-40
-1.79075e-40
-5.8716e-41
-1.02111e-41
-2.88824e-43
-5.16553e-42
-2.64637e-41
-9.95633e-41
-3.14328e-40
-4.1359e-26
-7.52452e-26
-1.01996e-33
-5.62171e-39
-1.01732e-38
-5.27471e-39
-7.76638e-39
-2.22422e-39
4.1359e-26
1.08995e-09
3.57146e-09
6.20312e-09
1.49774e-08
2.76718e-08
4.17781e-08
6.05341e-08
8.4858e-08
1.19203e-07
1.78896e-07
2.48754e-07
3.16081e-07
3.85278e-07
4.44605e-07
4.9303e-07
5.28085e-07
5.49017e-07
5.56192e-07
5.49816e-07
5.33497e-07
5.06986e-07
4.74839e-07
4.36654e-07
3.94348e-07
3.34253e-07
2.44966e-07
4.6262e-21
1.50858e-20
1.57749e-20
1.4787e-20
1.58415e-20
1.83752e-20
2.11153e-20
2.29799e-20
2.34545e-20
2.24632e-20
2.01234e-20
1.67573e-20
1.26494e-20
8.14606e-21
-8.48822e-26
1.42893e-25
1.90912e-26
-2.29592e-42
-2.54057e-49
-7.50768e-38
-2.70821e-38
-9.24555e-36
-4.85965e-36
-1.76903e-33
-5.11878e-31
-8.36831e-29
-2.66073e-30
-1.64628e-30
-9.66292e-31
-4.57156e-31
-8.35922e-32
-7.19404e-31
-4.11155e-31
-2.14021e-31
-9.99803e-32
-4.17741e-32
-1.68768e-32
-5.50662e-33
-1.43734e-33
-2.47705e-34
-8.74705e-36
-1.24583e-34
-6.40429e-34
-2.4306e-33
-7.78416e-33
-2.05756e-32
-4.70761e-32
-9.55957e-32
-1.9586e-31
-3.70868e-31
-6.35644e-31
-9.96425e-31
-3.0726e-31
-7.55835e-31
-1.34681e-30
-2.01143e-30
-1.18854e-32
-4.69337e-48
6.39702e-48
1.85743e-46
2.05268e-46
9.08742e-27
6.86116e-26
2.75096e-25
1.06417e-24
1.06055e-20
2.02465e-20
2.81078e-20
3.30781e-20
3.49247e-20
3.42593e-20
3.18796e-20
2.9553e-20
2.69876e-20
2.43153e-20
2.21232e-20
2.1196e-20
2.18086e-20
2.01428e-20
1.03054e-20
7.85825e-25
2.43785e-24
2.51851e-24
2.3347e-24
2.48911e-24
2.80588e-24
3.22176e-24
3.441e-24
3.39691e-24
3.10187e-24
2.63088e-24
2.06186e-24
1.43799e-24
8.01739e-25
1.39961e-25
9.52554e-25
4.18179e-25
7.61586e-26
1.78809e-28
-2.22204e-26
-5.96769e-29
-9.84026e-27
-3.67995e-26
-1.84583e-26
-1.672e-26
-2.32797e-51
4.00315e-97
1.34704e-94
4.01676e-92
9.88972e-90
1.7073e-87
6.88122e-86
-1.28227e-110
-8.25946e-139
-1.14392e-158
1.70638e-77
4.15499e-76
1.27768e-92
2.3838e-105
1.33522e-74
1.21068e-80
0
0
-3.83523e-94
-3.1919e-108
1.80476e-88
-3.20377e-211
-7.58428e-178
5.32245e-111
-4.70778e-288
-1.00578e-248
-1.15406e-205
-3.50837e-159
1.01167e-108
4.30646e-111
1.26736e-113
-2.38669e-37
1.88421e-26
1.19329e-25
3.96474e-25
1.05493e-24
1.49138e-24
3.3633e-24
6.857e-24
2.07177e-24
4.7547e-24
5.82157e-24
7.39528e-24
7.62166e-24
4.77747e-24
4.664e-24
4.64893e-24
4.26255e-24
3.88934e-24
3.5296e-24
3.35249e-24
3.28527e-24
3.53248e-24
3.35918e-24
1.60148e-24
4.33279e-26
2.17485e-26
2.44899e-26
1.29442e-26
4.03604e-27
1.68474e-27
8.59344e-28
9.40112e-28
9.63977e-28
9.24752e-28
8.03513e-28
6.26504e-28
4.41643e-28
2.55133e-28
1.17708e-28
7.34529e-28
3.43501e-28
1.01256e-28
1.14093e-29
-2.35885e-29
-5.57458e-32
-9.65067e-30
-9.81142e-30
-2.11492e-30
-9.7705e-33
5.20188e-100
5.98e-97
2.78346e-94
1.13464e-91
4.01716e-89
1.21928e-86
3.12156e-84
5.75197e-82
9.60855e-80
1.25294e-77
1.52358e-75
1.18234e-73
6.62006e-72
2.60685e-71
5.97939e-71
2.74771e-71
4.55796e-72
1.49384e-75
1.2401e-78
1.21526e-81
9.67976e-85
5.16898e-88
1.81035e-91
4.64391e-95
1.21358e-98
8.14e-102
7.82563e-105
1.63437e-107
1.95104e-110
3.49076e-113
8.2591e-114
-3.12084e-42
2.98321e-30
3.32374e-29
1.57242e-28
5.45903e-28
7.78108e-28
2.04406e-27
4.83289e-27
3.8874e-26
9.17657e-26
1.38517e-25
1.73451e-25
1.9133e-25
1.96322e-25
1.87652e-25
1.7344e-25
1.5884e-25
1.47874e-25
1.3907e-25
1.30646e-25
1.18291e-25
1.00237e-25
6.8549e-26
7.88805e-26
1.12295e-29
5.58132e-30
6.58602e-30
3.77914e-30
2.04517e-30
7.6988e-31
4.24095e-31
3.31783e-31
3.37202e-31
3.19776e-31
2.81262e-31
2.18961e-31
1.52076e-31
8.72426e-32
2.91089e-32
1.37821e-31
6.76853e-32
2.43312e-32
5.6154e-33
-1.16978e-32
-2.6405e-35
-3.67867e-33
-1.92026e-33
-1.69975e-34
1.37947e-97
3.4251e-96
1.77048e-93
8.07996e-91
3.23376e-88
1.12312e-85
3.34264e-83
8.39455e-81
1.74502e-78
2.93009e-76
3.85017e-74
3.81089e-72
2.8824e-70
1.78142e-68
1.08586e-67
1.68072e-67
1.3828e-67
1.92241e-68
4.72036e-72
4.0618e-75
4.18015e-78
3.54295e-81
2.04369e-84
7.12494e-88
2.23257e-91
6.41558e-95
2.63579e-98
1.70623e-101
1.52621e-104
1.63631e-107
1.95104e-110
1.57342e-109
-3.1561e-47
4.38219e-35
9.3714e-34
6.48957e-33
2.97041e-32
6.04464e-32
1.94999e-31
5.30512e-31
5.67758e-30
1.81951e-29
2.9819e-29
3.78089e-29
4.09901e-29
4.24899e-29
4.10353e-29
4.01377e-29
3.73224e-29
3.44017e-29
3.14273e-29
3.05e-29
3.03393e-29
2.58117e-29
1.59342e-29
1.88892e-29
3.30209e-33
1.90615e-33
2.17368e-33
1.57036e-33
1.06555e-33
5.78798e-34
2.74266e-34
1.49468e-34
1.50171e-34
1.40406e-34
1.21306e-34
9.509e-35
6.41048e-35
3.60065e-35
1.46691e-35
4.93893e-35
2.31157e-35
7.99308e-36
1.58012e-36
-5.09544e-36
1.04501e-37
-1.17138e-36
-3.59363e-37
-1.31491e-38
2.88349e-94
7.79172e-93
3.95078e-90
1.76643e-87
6.9219e-85
2.35274e-82
6.85087e-80
1.68324e-77
3.42416e-75
5.62986e-73
7.25034e-71
7.0385e-69
5.19307e-67
3.0672e-65
2.01505e-64
3.24228e-64
2.67712e-64
3.71358e-65
9.8327e-69
8.77406e-72
9.488e-75
8.56669e-78
4.79344e-81
1.68988e-84
6.03631e-88
2.28315e-91
1.02004e-94
6.9363e-98
6.41851e-101
7.09829e-104
8.7171e-107
2.93687e-105
-3.70834e-52
2.84565e-39
1.05473e-37
1.01356e-36
5.83534e-36
1.41739e-35
5.21755e-35
1.58445e-34
1.05882e-33
3.93049e-33
6.91304e-33
9.40616e-33
1.0593e-32
1.12331e-32
1.08426e-32
1.00666e-32
9.29331e-33
8.8011e-33
8.41962e-33
8.02047e-33
7.42738e-33
6.36493e-33
4.4847e-33
5.20939e-33
1.46919e-36
9.04774e-37
1.05981e-36
8.60115e-37
6.60902e-37
4.35996e-37
2.064e-37
1.08725e-37
8.14378e-38
7.49668e-38
6.3542e-38
4.90357e-38
3.26933e-38
1.76397e-38
1.29452e-38
2.10771e-38
9.35395e-39
3.07542e-39
6.09905e-40
-2.23618e-39
1.27464e-40
-3.66827e-40
-7.07759e-41
-1.12336e-42
4.16456e-91
1.41933e-89
7.04867e-87
3.08253e-84
1.18051e-81
3.91917e-79
1.11426e-76
2.67288e-74
5.30992e-72
8.5308e-70
1.0745e-67
1.02107e-65
7.34748e-64
4.16316e-62
2.88082e-61
4.73781e-61
3.9171e-61
5.42268e-62
1.5145e-65
1.40232e-68
1.59465e-71
1.5352e-74
8.07375e-78
3.17373e-81
1.26592e-84
6.03636e-88
2.93306e-91
2.09618e-94
2.00648e-97
2.28721e-100
2.89168e-103
3.1638e-101
-7.28217e-57
2.33785e-43
1.46171e-41
1.92726e-40
1.3857e-39
3.99644e-39
1.67398e-38
5.65421e-38
2.89871e-37
1.22724e-36
2.3475e-36
3.35824e-36
3.98127e-36
4.25139e-36
4.21438e-36
3.97528e-36
3.71774e-36
3.56571e-36
3.44505e-36
3.30613e-36
3.07614e-36
2.64747e-36
1.88479e-36
2.19266e-36
8.1249e-40
5.28451e-40
6.32025e-40
5.56443e-40
4.60748e-40
3.28588e-40
1.92741e-40
8.85849e-41
6.14902e-41
4.72901e-41
3.93103e-41
2.96188e-41
1.95157e-41
1.02483e-41
9.69883e-42
1.05553e-41
4.4333e-42
1.3793e-42
2.67375e-43
-9.8563e-43
2.30761e-44
-1.20295e-43
-1.53772e-44
-1.13922e-46
3.89442e-88
2.14603e-86
1.042e-83
4.44932e-81
1.66231e-78
5.3805e-76
1.49093e-73
3.48553e-71
6.75014e-69
1.05783e-66
1.30089e-64
1.20817e-62
8.4774e-61
4.62225e-59
3.31263e-58
5.51114e-58
4.55793e-58
6.29495e-59
1.80876e-62
1.76281e-65
2.1102e-68
1.99064e-71
1.11789e-74
4.91033e-78
2.19295e-81
1.26592e-84
6.71697e-88
5.07632e-91
5.05359e-94
5.96515e-97
7.79843e-100
1.93996e-97
-2.44131e-61
1.6108e-47
2.46735e-45
4.40214e-44
3.91969e-43
1.33489e-42
6.33946e-42
2.37305e-41
1.09695e-40
4.69347e-40
9.80421e-40
1.48229e-39
1.85424e-39
1.99727e-39
2.05158e-39
1.96762e-39
1.86995e-39
1.81722e-39
1.77312e-39
1.71414e-39
1.60242e-39
1.38383e-39
9.93292e-40
1.15435e-39
5.4981e-43
3.79527e-43
4.62633e-43
4.34967e-43
3.81233e-43
2.92481e-43
2.009e-43
1.0848e-43
6.01742e-44
3.59451e-44
2.81623e-44
2.0722e-44
1.33177e-44
6.91633e-45
7.40472e-45
6.13395e-45
2.4353e-45
7.15728e-46
1.33879e-46
-4.20546e-46
1.00573e-47
-4.25021e-47
-3.78444e-48
-1.41921e-50
1.45888e-85
2.75449e-83
1.30561e-80
5.43431e-78
1.97747e-75
6.23047e-73
1.68006e-70
3.82209e-68
7.2051e-66
1.0998e-63
1.31864e-61
1.19531e-59
8.17672e-58
4.30076e-56
3.15126e-55
5.26785e-55
4.35594e-55
5.99879e-56
1.55305e-59
1.809e-62
2.28263e-65
2.1038e-68
1.30615e-71
6.42902e-75
3.22582e-78
2.07619e-81
1.27752e-84
1.02899e-87
1.07303e-90
1.31943e-93
1.79221e-96
-6.19615e-118
-1.20244e-65
1.10925e-51
5.04051e-49
1.19773e-47
1.3077e-46
5.22601e-46
2.8014e-45
1.15773e-44
5.21551e-44
2.14324e-43
4.89255e-43
7.83158e-43
1.02062e-42
1.14582e-42
1.19184e-42
1.17225e-42
1.13379e-42
1.11817e-42
1.10462e-42
1.07703e-42
1.01326e-42
8.79074e-43
6.3644e-43
7.35459e-43
4.51781e-46
3.32018e-46
4.15467e-46
4.13773e-46
3.79291e-46
3.21888e-46
2.40451e-46
1.69926e-46
9.9472e-47
4.9418e-47
2.79483e-47
1.65586e-47
1.03481e-47
6.47573e-48
5.95276e-48
4.15022e-48
1.5433e-48
4.26731e-49
1.53998e-49
-1.6298e-49
6.31584e-51
-1.60833e-50
-1.06679e-51
-2.21789e-54
2.60558e-83
3.04533e-80
1.40759e-77
5.70258e-75
2.01822e-72
6.18148e-70
1.61995e-67
3.58176e-65
6.56444e-63
9.74801e-61
1.13815e-58
1.00588e-56
6.70691e-55
3.40956e-53
2.52854e-52
4.22692e-52
3.49371e-52
4.7954e-53
1.13439e-56
1.55305e-59
2.02216e-62
1.90554e-65
1.31217e-68
7.26197e-72
4.11006e-75
2.94053e-78
2.0762e-81
1.79815e-84
1.98101e-87
2.55677e-90
3.63566e-93
1.36255e-108
-8.72738e-70
7.86864e-56
1.24088e-52
3.85772e-51
5.10899e-50
2.37865e-49
1.43165e-48
6.50694e-48
2.89531e-47
1.14949e-46
2.87704e-46
4.95714e-46
6.80162e-46
8.01653e-46
8.4759e-46
8.60528e-46
8.50106e-46
8.51225e-46
8.49305e-46
8.33238e-46
7.87194e-46
6.84501e-46
4.98844e-46
5.75165e-46
4.18354e-49
3.22766e-49
4.10643e-49
4.24399e-49
4.03689e-49
3.55796e-49
2.9116e-49
2.1431e-49
1.48876e-49
8.68838e-50
4.3101e-50
2.1383e-50
9.77205e-51
7.315e-51
4.99631e-51
3.18981e-51
1.13672e-51
4.06226e-52
1.22822e-52
-5.09729e-53
4.34026e-54
-6.41402e-54
-3.46126e-55
-4.3788e-58
2.53024e-80
2.93198e-77
1.3191e-74
5.19486e-72
1.78602e-69
5.31179e-67
1.35143e-64
2.90108e-62
5.16399e-60
7.45273e-58
8.4652e-56
7.2872e-54
4.73517e-52
2.33017e-50
1.73459e-49
2.88957e-49
2.38706e-49
3.26423e-50
7.13351e-54
1.06613e-56
1.4527e-59
1.49909e-62
1.14936e-65
7.18183e-69
4.60589e-72
3.68691e-75
2.94053e-78
2.76113e-81
3.23874e-84
4.41504e-87
6.60835e-90
-2.7905e-105
-9.03008e-74
5.22988e-60
3.66908e-56
1.46407e-54
2.32441e-53
1.25082e-52
8.40656e-52
4.18221e-51
1.92974e-50
7.92538e-50
2.12651e-49
3.80164e-49
5.37579e-49
6.49574e-49
7.07158e-49
7.2399e-49
7.29772e-49
7.38764e-49
7.44118e-49
7.34123e-49
6.95538e-49
6.06473e-49
4.44593e-49
5.10535e-49
4.29414e-52
3.44512e-52
4.42708e-52
4.70386e-52
4.58122e-52
4.12386e-52
3.5322e-52
2.78698e-52
1.97899e-52
1.31021e-52
7.41338e-53
3.61826e-53
1.60007e-53
7.8452e-54
4.67095e-54
2.69042e-54
1.17861e-54
4.36532e-55
1.04497e-55
-1.2705e-56
2.49734e-57
-2.7055e-57
-1.29047e-58
-1.09078e-61
2.15217e-77
2.47926e-74
1.08173e-71
4.13708e-69
1.38045e-66
3.98313e-64
9.83005e-62
2.04709e-59
3.53616e-57
4.95583e-55
5.47155e-53
4.58417e-51
2.90236e-49
1.38416e-47
1.02716e-46
1.70042e-46
1.40393e-46
1.91222e-47
3.89508e-51
6.19097e-54
9.11949e-57
1.03475e-59
8.87372e-63
6.29073e-66
4.59543e-69
4.14424e-72
3.68691e-75
3.78606e-78
4.76786e-81
6.9106e-84
1.09419e-86
8.12141e-113
-1.32345e-77
3.54858e-64
1.29903e-59
6.52548e-58
1.22617e-56
7.87362e-56
5.63938e-55
3.13834e-54
1.57874e-53
6.54432e-53
1.78865e-52
3.29884e-52
4.79712e-52
5.93432e-52
6.61169e-52
6.86092e-52
7.0103e-52
7.18241e-52
7.28601e-52
7.22479e-52
6.86248e-52
5.99943e-52
4.42096e-52
5.04777e-52
4.83756e-55
4.01087e-55
5.18294e-55
5.61189e-55
5.5623e-55
5.12035e-55
4.47975e-55
3.67118e-55
2.73988e-55
1.84661e-55
1.14556e-55
6.14551e-56
2.69549e-56
1.05799e-56
5.1742e-57
3.28924e-57
1.32345e-57
4.00884e-58
8.61454e-59
3.22115e-60
1.96642e-60
-1.26433e-60
-5.56747e-62
-3.42183e-65
1.59888e-74
1.84197e-71
7.79685e-69
2.89362e-66
9.3644e-64
2.61969e-61
6.26742e-59
1.26535e-56
2.11982e-54
2.883e-52
3.09173e-50
2.51924e-48
1.55382e-46
7.18775e-45
5.28565e-44
8.67607e-44
7.15943e-44
9.71156e-45
1.85794e-48
3.15116e-51
5.03851e-54
6.31612e-57
6.09075e-60
4.92575e-63
4.12129e-66
4.21478e-69
4.14424e-72
4.69671e-75
6.40974e-78
9.95905e-81
1.67927e-83
0
-2.6774e-81
1.16623e-68
5.49045e-63
3.40502e-61
7.48104e-60
5.69952e-59
4.30131e-58
2.65721e-57
1.44549e-56
6.08036e-56
1.69125e-55
3.20648e-55
4.7804e-55
6.04059e-55
6.84988e-55
7.22053e-55
7.46932e-55
7.71859e-55
7.88234e-55
7.85016e-55
7.47183e-55
6.5483e-55
4.84891e-55
5.49748e-55
5.93725e-58
5.06716e-58
6.56531e-58
7.20586e-58
7.23975e-58
6.8118e-58
6.01379e-58
5.04944e-58
3.8925e-58
2.72823e-58
1.71233e-58
9.80303e-59
4.68317e-59
1.8234e-59
6.87635e-60
3.83035e-60
1.44459e-60
4.04342e-61
8.21633e-62
1.48587e-62
1.42729e-63
-6.48823e-64
-2.80262e-65
-1.33844e-68
1.0714e-71
1.21104e-68
4.95115e-66
1.78242e-63
5.59211e-61
1.5161e-58
3.51471e-56
6.87639e-54
1.11667e-51
1.473e-49
1.53342e-47
1.21443e-45
7.29578e-44
3.27552e-42
2.37435e-41
3.85685e-41
3.1811e-41
4.29868e-42
7.77384e-46
1.41251e-48
2.46335e-51
3.43064e-54
3.74295e-57
3.47467e-60
3.34906e-63
3.90845e-66
4.21478e-69
5.31554e-72
7.92989e-75
1.33113e-77
2.40819e-80
4.85885e-83
8.22234e-82
1.28087e-72
2.7649e-66
2.07681e-64
5.26165e-63
4.70681e-62
3.83325e-61
2.6171e-60
1.47636e-59
6.31488e-59
1.78328e-58
3.46349e-58
5.27885e-58
6.79746e-58
7.82855e-58
8.36358e-58
8.744e-58
9.10215e-58
9.34626e-58
9.34153e-58
8.90406e-58
7.82112e-58
5.81813e-58
6.54251e-58
7.88927e-61
6.91329e-61
8.96333e-61
9.93911e-61
1.01036e-60
9.66185e-61
8.62972e-61
7.34187e-61
5.77802e-61
4.16778e-61
2.69931e-61
1.55486e-61
7.77819e-62
3.26725e-62
1.17075e-62
4.81416e-63
1.72329e-63
4.68014e-64
8.91526e-65
1.25201e-65
1.22482e-66
-3.5652e-67
-1.58974e-68
4.32572e-70
1.74302e-68
7.10737e-66
2.77167e-63
9.68213e-61
2.9443e-58
7.73432e-56
1.73702e-53
3.29236e-51
5.18092e-49
6.62573e-47
6.6923e-45
5.14853e-43
3.01226e-41
1.31303e-39
9.33655e-39
1.49824e-38
1.23522e-38
1.66496e-39
2.86065e-43
5.59446e-46
1.07013e-48
1.66647e-51
2.07169e-54
2.22289e-57
2.483e-60
3.32628e-63
3.90845e-66
5.52689e-69
9.08424e-72
1.65924e-74
3.23662e-77
7.50661e-80
5.09864e-79
3.17343e-76
1.65514e-69
1.47696e-67
4.25434e-66
4.39615e-65
3.88275e-64
2.88686e-63
1.67751e-62
7.2989e-62
2.08594e-61
4.13512e-61
6.42298e-61
8.40533e-61
9.80908e-61
1.05954e-60
1.11748e-60
1.1704e-60
1.20654e-60
1.20917e-60
1.15366e-60
1.0152e-60
7.5853e-61
8.45163e-61
1.12874e-63
1.01398e-63
1.31369e-63
1.46852e-63
1.51097e-63
1.46136e-63
1.32491e-63
1.13353e-63
9.05729e-64
6.65868e-64
4.42668e-64
2.61527e-64
1.31242e-64
5.65059e-65
1.95997e-65
6.99571e-66
2.338e-66
5.93148e-67
1.03142e-67
1.39399e-68
1.31056e-69
5.80724e-70
9.13548e-70
2.56956e-68
9.81996e-66
3.67798e-63
1.36918e-60
4.63852e-58
1.3672e-55
3.4798e-53
7.5707e-51
1.39005e-48
2.11926e-46
2.62686e-44
2.57326e-42
1.92208e-40
1.09508e-38
4.63517e-37
3.21827e-36
5.0935e-36
4.19755e-36
5.6796e-37
9.27085e-41
1.9621e-43
4.14385e-46
7.27005e-49
1.03812e-51
1.29727e-54
1.6894e-57
2.483e-60
3.32628e-63
5.30997e-66
9.6837e-69
1.93732e-71
4.1016e-74
1.12206e-75
1.86468e-77
5.46683e-76
1.12298e-72
1.22139e-70
3.94504e-69
4.63875e-68
4.41144e-67
3.53812e-66
2.11472e-65
9.35182e-65
2.69507e-64
5.43189e-64
8.56921e-64
1.1363e-63
1.34031e-63
1.46032e-63
1.5508e-63
1.63154e-63
1.68648e-63
1.69285e-63
1.61575e-63
1.42376e-63
1.06825e-63
1.17828e-63
1.73022e-66
1.5921e-66
2.05901e-66
2.31701e-66
2.40974e-66
2.3546e-66
2.16236e-66
1.8652e-66
1.50565e-66
1.12293e-66
7.60139e-67
4.60132e-67
2.37432e-67
1.01089e-67
3.60437e-68
1.24453e-68
3.60083e-69
8.17242e-70
1.39067e-70
1.12911e-70
4.34051e-70
8.02717e-70
3.46668e-68
1.33799e-65
4.91168e-63
1.7135e-60
6.00114e-58
1.95722e-55
5.59427e-53
1.3799e-50
2.9087e-48
5.17389e-46
7.64226e-44
9.17977e-42
8.71867e-40
6.32018e-38
3.5063e-36
1.44106e-34
9.72591e-34
1.51577e-33
1.24886e-33
1.69383e-34
2.64692e-38
6.10149e-41
1.43371e-43
2.8585e-46
4.73148e-49
6.94304e-52
1.06038e-54
1.6894e-57
2.61212e-60
4.73559e-63
9.63908e-66
2.12315e-68
5.24569e-71
1.67836e-72
4.8964e-75
2.22941e-75
4.48365e-75
1.1501e-73
4.18562e-72
5.52205e-71
5.61081e-70
4.8108e-69
2.9496e-68
1.32337e-67
3.83123e-67
7.81851e-67
1.24821e-66
1.67192e-66
1.98788e-66
2.17945e-66
2.32572e-66
2.4537e-66
2.53978e-66
2.55055e-66
2.43369e-66
2.1463e-66
1.61679e-66
1.76384e-66
2.82915e-69
2.66525e-69
3.43841e-69
3.89129e-69
4.08773e-69
4.03355e-69
3.74815e-69
3.27335e-69
2.65749e-69
2.00658e-69
1.37798e-69
8.49047e-70
4.49799e-70
1.97425e-70
7.10462e-71
2.3114e-71
6.03653e-72
2.36222e-72
7.34433e-72
6.7369e-71
1.70513e-70
4.23173e-68
1.69528e-65
6.3261e-63
2.21215e-60
7.2933e-58
2.33869e-55
7.25175e-53
2.0131e-50
4.81461e-48
9.83652e-46
1.69553e-43
2.42678e-41
2.82487e-39
2.60079e-37
1.82905e-35
9.88128e-34
3.94229e-32
2.57465e-31
3.94496e-31
3.25044e-31
4.41021e-32
6.65365e-36
1.68309e-38
4.44005e-41
1.01615e-43
1.96983e-46
3.4244e-49
6.16773e-52
1.06038e-54
1.90146e-57
3.93521e-60
8.98611e-63
2.19253e-65
6.83829e-67
2.44163e-69
6.7263e-72
1.95302e-74
4.5053e-75
3.92061e-75
5.51401e-75
7.37303e-74
7.97197e-73
7.24396e-72
4.54229e-71
2.06084e-70
5.97061e-70
1.22848e-69
1.97726e-69
2.66655e-69
3.18688e-69
3.50723e-69
3.75285e-69
3.9635e-69
4.10274e-69
4.11687e-69
3.92433e-69
3.46188e-69
2.61765e-69
2.82219e-69
4.91452e-72
4.7391e-72
6.09605e-72
6.93407e-72
7.35516e-72
7.32919e-72
6.88882e-72
6.08882e-72
4.99026e-72
3.80333e-72
2.64615e-72
1.65496e-72
8.94929e-73
4.04397e-73
1.44152e-73
3.96075e-74
1.32081e-73
1.82901e-72
2.54414e-72
9.66925e-71
4.40644e-68
1.86711e-65
7.25998e-63
2.60894e-60
8.71666e-58
2.72241e-55
8.01248e-53
2.36102e-50
6.3497e-48
1.47389e-45
2.92045e-43
4.88065e-41
6.77143e-39
7.63999e-37
6.81818e-35
4.65079e-33
2.44719e-31
9.4733e-30
5.95884e-29
8.96201e-29
7.38695e-29
1.00096e-29
1.47029e-33
4.11732e-36
1.23233e-38
3.2749e-41
7.5213e-44
1.56357e-46
3.33727e-49
6.16773e-52
1.28761e-54
3.05522e-57
7.86147e-60
2.18255e-62
8.66866e-64
3.08899e-66
8.8406e-69
2.45023e-71
6.4208e-74
1.97174e-75
1.37742e-75
7.67477e-76
1.20777e-75
1.20316e-74
7.86027e-74
3.52161e-73
1.01644e-72
2.09951e-72
3.39365e-72
4.59245e-72
5.50099e-72
6.06157e-72
6.4898e-72
6.84929e-72
7.07958e-72
7.08989e-72
6.74634e-72
5.94958e-72
4.51466e-72
4.80644e-72
9.03491e-75
8.91849e-75
1.14355e-74
1.3069e-74
1.39975e-74
1.40946e-74
1.33966e-74
1.19859e-74
9.95171e-75
7.64348e-75
5.38764e-75
3.418e-75
1.87935e-75
7.39061e-76
7.43691e-76
7.3551e-75
4.00828e-74
2.32309e-73
8.26469e-71
3.76351e-68
1.75335e-65
7.33308e-63
2.78584e-60
9.69171e-58
3.10766e-55
9.23767e-53
2.56104e-50
6.84736e-48
1.74628e-45
3.9426e-43
7.58412e-41
1.22979e-38
1.65493e-36
1.8106e-34
1.56653e-32
1.03635e-30
5.31348e-29
1.99439e-27
1.20229e-26
1.77191e-26
1.46164e-26
1.97555e-27
2.84872e-31
8.92185e-34
3.06729e-36
9.59178e-39
2.6439e-41
6.63736e-44
1.56357e-46
3.33727e-49
8.13029e-52
2.21899e-54
6.45888e-57
2.45957e-58
1.07073e-60
3.46708e-63
1.0762e-65
3.09808e-68
8.21177e-71
1.99041e-73
8.35353e-76
3.79008e-76
1.03609e-76
3.12925e-77
1.42527e-76
6.57499e-76
1.88368e-75
3.8891e-75
6.28844e-75
8.5099e-75
1.01863e-74
1.12097e-74
1.19822e-74
1.26149e-74
1.29999e-74
1.29776e-74
1.23168e-74
1.08526e-74
8.26245e-75
8.67953e-75
1.75156e-77
1.77025e-77
2.26227e-77
2.59726e-77
2.80932e-77
2.86166e-77
2.74998e-77
2.492e-77
2.09727e-77
1.63322e-77
1.1626e-77
7.37052e-78
2.89122e-78
1.33441e-76
4.08235e-76
7.58966e-76
1.50377e-73
7.37473e-71
3.32343e-68
1.37346e-65
5.80665e-63
2.42547e-60
9.08296e-58
3.08151e-55
9.54148e-53
2.71247e-50
7.11662e-48
1.73835e-45
4.19102e-43
9.1569e-41
1.71402e-38
2.69971e-36
3.52706e-34
3.74459e-32
3.14237e-30
2.01659e-28
1.0082e-26
3.66573e-25
2.10652e-24
3.03676e-24
2.50825e-24
3.37993e-25
4.82039e-29
1.70828e-31
6.84397e-34
2.55739e-36
8.5866e-39
2.63227e-41
6.63736e-44
1.68578e-46
4.79287e-49
1.50864e-51
5.07018e-54
2.56984e-55
1.10461e-57
3.68914e-60
1.19261e-62
3.54201e-65
9.59371e-68
2.35012e-70
5.14244e-73
1.04704e-75
3.28473e-77
2.58695e-77
6.50104e-78
8.91775e-79
3.75489e-78
7.7819e-78
1.25361e-77
1.69063e-77
2.01624e-77
2.21024e-77
2.35354e-77
2.46736e-77
2.53112e-77
2.51574e-77
2.37948e-77
2.09353e-77
1.59875e-77
1.6559e-77
3.5686e-80
3.69396e-80
4.70474e-80
5.426e-80
5.92886e-80
6.11208e-80
5.94342e-80
5.45956e-80
4.6617e-80
3.68064e-80
1.95929e-80
1.01046e-79
1.81697e-78
2.80532e-78
1.61771e-76
9.40129e-74
5.07121e-71
2.48884e-68
1.11344e-65
4.54573e-63
1.69835e-60
6.8742e-58
2.57054e-55
8.59155e-53
2.5908e-50
7.09702e-48
1.77628e-45
4.08464e-43
8.87088e-41
1.83743e-38
3.34824e-36
5.1316e-34
6.51719e-32
6.7218e-30
5.47579e-28
3.41078e-26
1.66489e-24
5.85643e-23
3.18875e-22
4.48766e-22
3.71433e-22
4.9917e-23
7.08103e-27
2.87657e-29
1.36569e-31
6.20821e-34
2.55739e-36
8.5866e-39
2.63227e-41
7.98245e-44
2.63766e-46
9.60596e-49
4.82805e-50
2.5379e-52
9.68969e-55
3.53992e-57
1.18372e-59
3.59619e-62
9.8519e-65
2.40747e-67
5.15412e-70
9.33338e-73
1.32396e-75
7.67359e-78
5.46207e-79
4.42006e-79
2.96569e-80
1.31637e-80
2.67295e-80
3.5885e-80
4.25104e-80
4.63022e-80
4.90093e-80
5.10701e-80
5.20787e-80
5.14693e-80
4.84756e-80
4.25627e-80
3.25943e-80
3.32618e-80
7.61582e-83
8.07724e-83
1.02534e-82
1.18802e-82
1.31186e-82
1.36926e-82
1.34921e-82
1.25694e-82
1.05154e-82
8.80553e-83
6.326e-81
9.89453e-81
1.01577e-79
6.4833e-77
4.3095e-74
2.58598e-71
1.40406e-68
6.91224e-66
3.09033e-63
1.25614e-60
4.64334e-58
1.57711e-55
6.0076e-53
2.00708e-50
5.96419e-48
1.58988e-45
3.82548e-43
8.35277e-41
1.66824e-38
3.19838e-36
5.59289e-34
8.37725e-32
1.03616e-29
1.03989e-27
8.23523e-26
4.98511e-24
2.38053e-22
8.08672e-21
4.14372e-20
5.68081e-20
4.71587e-20
6.31739e-21
8.94503e-25
4.22122e-27
2.42128e-29
1.36569e-31
6.20821e-34
2.58326e-36
9.81913e-39
3.57356e-41
1.35632e-43
6.02235e-46
4.02713e-47
2.07261e-49
8.0734e-52
3.05404e-54
1.04526e-56
3.21082e-59
8.76622e-62
2.09305e-64
4.23574e-67
6.72306e-70
1.52016e-72
3.45165e-75
7.6288e-78
2.87034e-80
4.70657e-81
3.26177e-81
9.29898e-83
6.86052e-83
9.50994e-83
1.02704e-82
1.07826e-82
1.11487e-82
1.1285e-82
1.10767e-82
1.03796e-82
9.08964e-83
6.9783e-83
7.0114e-83
1.69706e-85
1.84493e-85
2.3346e-85
2.71798e-85
3.03443e-85
3.20878e-85
3.20796e-85
2.55846e-85
3.07872e-84
2.56873e-83
6.97471e-83
2.12689e-80
1.79266e-77
1.35567e-74
9.19644e-72
5.61482e-69
3.09289e-66
1.53977e-63
6.93608e-61
2.82911e-58
1.04504e-55
3.49627e-53
1.12046e-50
3.8296e-48
1.14073e-45
3.00104e-43
7.0293e-41
1.47435e-38
2.78329e-36
4.78502e-34
7.95447e-32
1.15909e-29
1.40316e-27
1.37364e-25
1.05992e-23
6.24986e-22
2.92595e-20
9.57936e-19
4.63964e-18
6.18764e-18
5.13612e-18
7.23828e-19
9.53681e-23
5.27944e-25
3.73457e-27
2.42128e-29
1.36735e-31
7.2236e-34
3.49414e-36
1.55839e-38
6.64879e-41
6.80984e-42
4.35383e-44
1.89091e-46
8.15142e-49
3.16009e-51
1.09243e-53
3.3374e-56
8.87522e-59
1.99514e-61
3.5287e-64
6.46092e-67
1.61611e-69
3.6898e-72
7.66079e-75
1.44578e-77
2.8318e-80
8.42422e-83
1.85875e-83
1.15077e-83
2.12495e-85
2.34501e-85
2.49803e-85
2.55833e-85
2.56692e-85
2.49943e-85
2.32835e-85
2.03255e-85
1.5639e-85
1.54607e-85
3.93624e-88
4.38826e-88
5.53662e-88
6.47815e-88
7.31471e-88
7.78093e-88
7.05199e-88
4.72135e-86
8.40898e-86
2.30229e-84
2.62481e-81
2.89268e-78
2.70473e-75
2.18467e-72
1.52526e-69
9.56115e-67
5.39272e-64
2.74053e-61
1.25579e-58
5.19001e-56
1.93427e-53
6.4955e-51
1.96496e-48
5.85116e-46
1.79547e-43
4.75724e-41
1.10274e-38
2.25353e-36
4.08222e-34
6.59492e-32
9.76584e-30
1.34938e-27
1.59379e-25
1.53008e-23
1.1544e-21
6.65681e-20
3.07295e-18
9.90104e-17
4.54889e-16
5.83486e-16
4.86688e-16
1.20264e-16
7.62769e-21
4.73449e-23
4.10636e-25
3.73457e-27
2.69177e-29
1.86972e-31
1.2155e-33
7.33707e-36
5.37711e-37
3.8064e-39
1.96323e-41
9.71125e-44
4.28389e-46
1.67176e-48
5.7221e-51
1.69306e-53
4.20709e-56
9.6272e-59
2.92372e-61
8.08419e-64
2.02809e-66
4.61833e-69
9.5373e-72
1.73453e-74
2.59061e-77
3.46305e-80
4.15087e-83
1.12924e-85
3.7532e-86
5.50719e-87
5.36141e-88
6.14953e-88
6.10898e-88
5.89486e-88
5.45383e-88
4.74438e-88
3.65727e-88
3.55526e-88
9.47421e-91
1.08361e-90
1.36351e-90
1.60371e-90
1.77595e-90
4.6641e-90
1.42959e-88
1.87058e-88
-3.99771e-86
1.24151e-83
7.42631e-80
1.31733e-76
1.65519e-73
1.68491e-70
1.48682e-67
1.10543e-64
6.83589e-62
3.63674e-59
1.71442e-56
7.26236e-54
2.76251e-51
9.42614e-49
2.87986e-46
7.8716e-44
2.14029e-41
5.90703e-39
1.38957e-36
2.82457e-34
4.99793e-32
7.73584e-30
1.0561e-27
1.32614e-25
1.49908e-23
1.40981e-21
1.04507e-19
5.95869e-18
3.0693e-16
1.01332e-14
2.41418e-14
2.91591e-14
2.47526e-14
3.74775e-15
4.32658e-19
2.43287e-21
2.3097e-23
2.46075e-25
2.67782e-27
2.81968e-29
2.84968e-31
1.00214e-32
8.34798e-35
5.31462e-37
3.02813e-39
1.52718e-41
6.75374e-44
2.59667e-46
8.55246e-49
3.10581e-51
1.04617e-53
3.16529e-56
8.61502e-59
2.11123e-61
4.66053e-64
9.26742e-67
1.65912e-69
2.67111e-72
3.85976e-75
4.99174e-78
5.75482e-81
5.88289e-84
5.49408e-87
1.33304e-88
7.45686e-89
1.39169e-90
1.50863e-90
1.44861e-90
1.3299e-90
1.1524e-90
8.89727e-91
8.49986e-91
2.35922e-93
2.76948e-93
3.4763e-93
3.912e-93
4.77669e-92
3.71246e-91
-8.34951e-90
-1.47e-86
-2.02483e-83
-2.40027e-80
-2.46634e-77
-2.20382e-74
-1.71089e-71
-1.14644e-68
-6.52565e-66
-3.03834e-63
-6.93906e-61
3.52818e-58
5.24954e-55
3.69827e-52
1.94123e-49
8.33089e-47
3.00586e-44
8.86857e-42
2.18997e-39
5.32381e-37
1.32761e-34
2.77156e-32
4.91942e-30
7.47877e-28
9.77639e-26
1.11086e-23
1.1591e-21
1.05045e-19
7.65721e-18
4.62412e-16
2.81799e-14
3.98686e-13
3.98775e-13
4.91731e-13
3.07438e-13
9.48881e-15
2.52162e-17
1.15328e-19
9.55027e-22
8.77473e-24
8.4016e-26
1.04789e-27
1.55927e-29
4.86505e-31
4.02954e-33
2.58749e-35
1.495e-37
7.49736e-40
3.22975e-42
1.17737e-44
4.56056e-47
1.69385e-49
5.61602e-52
1.66434e-54
4.41771e-57
1.05171e-59
2.24777e-62
4.31491e-65
7.43873e-68
1.15076e-70
1.5949e-73
1.97527e-76
2.17788e-79
2.12661e-82
1.82591e-85
1.37691e-88
5.0466e-91
2.17091e-91
8.15064e-93
3.47085e-93
3.36553e-93
2.90395e-93
2.24485e-93
2.10644e-93
6.05981e-96
7.29911e-96
8.96586e-96
1.8791e-94
7.99409e-94
2.81127e-92
6.84139e-89
1.43484e-85