/*--------------------------------*- C++ -*----------------------------------*\
| =========                 |                                                 |
| \\      /  F ield         | OpenFOAM: The Open Source CFD Toolbox           |
|  \\    /   O peration     | Version:  2412                                  |
|   \\  /    A nd           | Website:  www.openfoam.com                      |
|    \\/     M anipulation  |                                                 |
\*---------------------------------------------------------------------------*/
FoamFile
{
    version     2.0;
    format      ascii;
    arch        "LSB;label=32;scalar=64";
    class       volVectorField;
    location    "1.8";
    object      U;
}
// * * * * * * * * * * * * * * * * * * * * * * * * * * * * * * * * * * * * * //

dimensions      [0 1 -1 0 0 0 0];

internalField   nonuniform List<vector> 
6400
(
(-2.52389e-11 1.03873e-11 0)
(-1.02285e-10 -4.8275e-11 0)
(-1.99158e-10 -8.34813e-11 0)
(-2.2707e-10 -8.70408e-11 0)
(-2.30292e-10 -8.42392e-11 0)
(-2.40891e-10 -7.94464e-11 0)
(-2.70273e-10 -7.63261e-11 0)
(-3.12559e-10 -7.26496e-11 0)
(-3.66545e-10 -7.17016e-11 0)
(-4.23902e-10 -7.01994e-11 0)
(-4.85694e-10 -7.07187e-11 0)
(-5.45692e-10 -7.01287e-11 0)
(-6.06945e-10 -7.11096e-11 0)
(-6.63992e-10 -7.09696e-11 0)
(-7.20078e-10 -7.23056e-11 0)
(-7.69929e-10 -7.25989e-11 0)
(-8.16858e-10 -7.40556e-11 0)
(-8.56191e-10 -7.46492e-11 0)
(-8.91095e-10 -7.61929e-11 0)
(-9.17481e-10 -7.70903e-11 0)
(-9.38184e-10 -7.87769e-11 0)
(-9.49878e-10 -7.98599e-11 0)
(-9.55337e-10 -8.1437e-11 0)
(-9.52004e-10 -8.26057e-11 0)
(-9.42246e-10 -8.41217e-11 0)
(-9.24144e-10 -8.52959e-11 0)
(-8.99787e-10 -8.66654e-11 0)
(-8.67827e-10 -8.77991e-11 0)
(-8.30033e-10 -8.90164e-11 0)
(-7.85563e-10 -9.00351e-11 0)
(-7.35962e-10 -9.10506e-11 0)
(-6.80764e-10 -9.19155e-11 0)
(-6.21255e-10 -9.27357e-11 0)
(-5.57195e-10 -9.34424e-11 0)
(-4.89605e-10 -9.4096e-11 0)
(-4.1834e-10 -9.46743e-11 0)
(-3.44218e-10 -9.51878e-11 0)
(-2.67209e-10 -9.56076e-11 0)
(-1.88105e-10 -9.59159e-11 0)
(-1.06992e-10 -9.61055e-11 0)
(-2.46553e-11 -9.61757e-11 0)
(5.88605e-11 -9.61447e-11 0)
(1.42783e-10 -9.60095e-11 0)
(2.27158e-10 -9.57931e-11 0)
(3.11066e-10 -9.54607e-11 0)
(3.9457e-10 -9.50455e-11 0)
(4.76416e-10 -9.44695e-11 0)
(5.5672e-10 -9.38276e-11 0)
(6.33864e-10 -9.29966e-11 0)
(7.08218e-10 -9.21732e-11 0)
(7.77769e-10 -9.11116e-11 0)
(8.43209e-10 -9.01154e-11 0)
(9.01943e-10 -8.87499e-11 0)
(9.55087e-10 -8.75334e-11 0)
(9.99498e-10 -8.58308e-11 0)
(1.03703e-09 -8.44572e-11 0)
(1.06399e-09 -8.24423e-11 0)
(1.08304e-09 -8.09266e-11 0)
(1.08986e-09 -7.85617e-11 0)
(1.08821e-09 -7.70038e-11 0)
(1.0735e-09 -7.45016e-11 0)
(1.05087e-09 -7.31832e-11 0)
(1.0153e-09 -7.06532e-11 0)
(9.72903e-10 -6.9533e-11 0)
(9.18267e-10 -6.69693e-11 0)
(8.58808e-10 -6.62948e-11 0)
(7.89325e-10 -6.41023e-11 0)
(7.18158e-10 -6.40536e-11 0)
(6.39808e-10 -6.21177e-11 0)
(5.62795e-10 -6.25068e-11 0)
(4.82177e-10 -6.11146e-11 0)
(4.07634e-10 -6.26636e-11 0)
(3.36602e-10 -6.29955e-11 0)
(2.8043e-10 -6.67732e-11 0)
(2.38598e-10 -6.93342e-11 0)
(2.19166e-10 -7.40026e-11 0)
(2.11549e-10 -7.46308e-11 0)
(1.97775e-10 -7.12553e-11 0)
(1.41249e-10 -5.62278e-11 0)
(5.85741e-11 -2.62761e-11 0)
(-9.47914e-11 1.94567e-11 0)
(-2.6769e-10 -1.2082e-10 0)
(-4.49982e-10 -2.43138e-10 0)
(-5.32656e-10 -2.94509e-10 0)
(-5.75507e-10 -2.88712e-10 0)
(-6.4205e-10 -2.60971e-10 0)
(-7.39461e-10 -2.28676e-10 0)
(-8.73134e-10 -2.06596e-10 0)
(-1.0223e-09 -1.91299e-10 0)
(-1.18951e-09 -1.86595e-10 0)
(-1.35513e-09 -1.84447e-10 0)
(-1.52665e-09 -1.88718e-10 0)
(-1.68718e-09 -1.92823e-10 0)
(-1.84691e-09 -2.01603e-10 0)
(-1.99021e-09 -2.1011e-10 0)
(-2.12716e-09 -2.22617e-10 0)
(-2.24328e-09 -2.34243e-10 0)
(-2.34864e-09 -2.48954e-10 0)
(-2.43057e-09 -2.62637e-10 0)
(-2.49859e-09 -2.78675e-10 0)
(-2.54195e-09 -2.93774e-10 0)
(-2.5693e-09 -3.10123e-10 0)
(-2.57221e-09 -3.25062e-10 0)
(-2.55857e-09 -3.40668e-10 0)
(-2.52187e-09 -3.55015e-10 0)
(-2.46888e-09 -3.69411e-10 0)
(-2.3949e-09 -3.82477e-10 0)
(-2.30575e-09 -3.95198e-10 0)
(-2.19825e-09 -4.06621e-10 0)
(-2.07726e-09 -4.17359e-10 0)
(-1.94077e-09 -4.26835e-10 0)
(-1.79281e-09 -4.35499e-10 0)
(-1.63217e-09 -4.43074e-10 0)
(-1.46209e-09 -4.499e-10 0)
(-1.2818e-09 -4.55911e-10 0)
(-1.09383e-09 -4.61326e-10 0)
(-8.9772e-10 -4.66079e-10 0)
(-6.95628e-10 -4.70196e-10 0)
(-4.87355e-10 -4.73609e-10 0)
(-2.74899e-10 -4.76327e-10 0)
(-5.81048e-11 -4.78401e-10 0)
(1.61078e-10 -4.79841e-10 0)
(3.82966e-10 -4.80713e-10 0)
(6.05366e-10 -4.8087e-10 0)
(8.28705e-10 -4.80301e-10 0)
(1.05004e-09 -4.78642e-10 0)
(1.2699e-09 -4.75944e-10 0)
(1.48428e-09 -4.71753e-10 0)
(1.69414e-09 -4.66393e-10 0)
(1.8943e-09 -4.5925e-10 0)
(2.08647e-09 -4.50867e-10 0)
(2.26395e-09 -4.40225e-10 0)
(2.4295e-09 -4.28248e-10 0)
(2.57471e-09 -4.13636e-10 0)
(2.70411e-09 -3.98042e-10 0)
(2.80766e-09 -3.797e-10 0)
(2.8921e-09 -3.6088e-10 0)
(2.94551e-09 -3.39082e-10 0)
(2.97736e-09 -3.17613e-10 0)
(2.97423e-09 -2.93553e-10 0)
(2.94921e-09 -2.71402e-10 0)
(2.88764e-09 -2.4712e-10 0)
(2.80595e-09 -2.25823e-10 0)
(2.68813e-09 -2.02432e-10 0)
(2.55404e-09 -1.83596e-10 0)
(2.38738e-09 -1.63738e-10 0)
(2.21122e-09 -1.50224e-10 0)
(2.00889e-09 -1.35815e-10 0)
(1.80509e-09 -1.28314e-10 0)
(1.58357e-09 -1.2049e-10 0)
(1.3708e-09 -1.21923e-10 0)
(1.15371e-09 -1.26214e-10 0)
(9.61098e-10 -1.43862e-10 0)
(7.85316e-10 -1.67995e-10 0)
(6.54839e-10 -2.04587e-10 0)
(5.58935e-10 -2.36704e-10 0)
(4.97679e-10 -2.5058e-10 0)
(4.14041e-10 -2.13629e-10 0)
(2.61947e-10 -1.25806e-10 0)
(9.60685e-11 -2.65965e-11 0)
(-1.25465e-10 3.48621e-12 0)
(-3.47556e-10 -2.3199e-10 0)
(-5.85725e-10 -4.52717e-10 0)
(-7.16781e-10 -5.46268e-10 0)
(-8.22487e-10 -5.35881e-10 0)
(-9.49757e-10 -4.70499e-10 0)
(-1.13079e-09 -4.0269e-10 0)
(-1.34325e-09 -3.47312e-10 0)
(-1.59254e-09 -3.17119e-10 0)
(-1.84701e-09 -3.00727e-10 0)
(-2.11728e-09 -3.02205e-10 0)
(-2.37436e-09 -3.08959e-10 0)
(-2.63394e-09 -3.27112e-10 0)
(-2.86947e-09 -3.46513e-10 0)
(-3.09883e-09 -3.75141e-10 0)
(-3.29729e-09 -4.04479e-10 0)
(-3.48229e-09 -4.408e-10 0)
(-3.63129e-09 -4.76807e-10 0)
(-3.76106e-09 -5.17759e-10 0)
(-3.85248e-09 -5.57542e-10 0)
(-3.92121e-09 -6.00734e-10 0)
(-3.95133e-09 -6.41883e-10 0)
(-3.95679e-09 -6.84207e-10 0)
(-3.92521e-09 -7.23894e-10 0)
(-3.86898e-09 -7.6363e-10 0)
(-3.77882e-09 -8.00386e-10 0)
(-3.66528e-09 -8.36037e-10 0)
(-3.52178e-09 -8.68547e-10 0)
(-3.35714e-09 -8.99279e-10 0)
(-3.16692e-09 -9.26855e-10 0)
(-2.95836e-09 -9.52258e-10 0)
(-2.72863e-09 -9.74752e-10 0)
(-2.48352e-09 -9.95129e-10 0)
(-2.22123e-09 -1.01312e-09 0)
(-1.94631e-09 -1.02934e-09 0)
(-1.65764e-09 -1.04369e-09 0)
(-1.35889e-09 -1.05645e-09 0)
(-1.04939e-09 -1.06749e-09 0)
(-7.32339e-10 -1.07686e-09 0)
(-4.07244e-10 -1.08457e-09 0)
(-7.71091e-11 -1.09067e-09 0)
(2.58664e-10 -1.09529e-09 0)
(5.96905e-10 -1.09827e-09 0)
(9.38406e-10 -1.0996e-09 0)
(1.27915e-09 -1.09863e-09 0)
(1.62007e-09 -1.09525e-09 0)
(1.95569e-09 -1.08853e-09 0)
(2.28743e-09 -1.0787e-09 0)
(2.60799e-09 -1.06467e-09 0)
(2.9198e-09 -1.04709e-09 0)
(3.21323e-09 -1.02432e-09 0)
(3.49218e-09 -9.97517e-10 0)
(3.74435e-09 -9.64534e-10 0)
(3.97603e-09 -9.27654e-10 0)
(4.17215e-09 -8.84322e-10 0)
(4.34232e-09 -8.37974e-10 0)
(4.46839e-09 -7.85008e-10 0)
(4.56395e-09 -7.30222e-10 0)
(4.60793e-09 -6.69393e-10 0)
(4.61912e-09 -6.09535e-10 0)
(4.574e-09 -5.45431e-10 0)
(4.49698e-09 -4.85324e-10 0)
(4.3621e-09 -4.22061e-10 0)
(4.19937e-09 -3.65677e-10 0)
(3.98138e-09 -3.08401e-10 0)
(3.7436e-09 -2.62226e-10 0)
(3.45769e-09 -2.17386e-10 0)
(3.16293e-09 -1.86038e-10 0)
(2.831e-09 -1.57175e-10 0)
(2.50385e-09 -1.45087e-10 0)
(2.15549e-09 -1.4016e-10 0)
(1.83009e-09 -1.59114e-10 0)
(1.50771e-09 -1.93572e-10 0)
(1.23406e-09 -2.58366e-10 0)
(9.95179e-10 -3.36181e-10 0)
(8.23584e-10 -4.15729e-10 0)
(6.79617e-10 -4.41807e-10 0)
(5.32405e-10 -3.71449e-10 0)
(3.09157e-10 -1.84734e-10 0)
(1.02898e-10 7.01231e-12 0)
(-1.25647e-10 3.70336e-11 0)
(-3.81247e-10 -2.75883e-10 0)
(-6.51202e-10 -5.85168e-10 0)
(-8.36089e-10 -7.1995e-10 0)
(-9.9306e-10 -6.91062e-10 0)
(-1.1961e-09 -5.86122e-10 0)
(-1.44118e-09 -4.66468e-10 0)
(-1.74423e-09 -3.79381e-10 0)
(-2.0651e-09 -3.22121e-10 0)
(-2.41646e-09 -3.01517e-10 0)
(-2.75774e-09 -2.98926e-10 0)
(-3.10953e-09 -3.19598e-10 0)
(-3.43408e-09 -3.48106e-10 0)
(-3.75569e-09 -3.92532e-10 0)
(-4.03896e-09 -4.40779e-10 0)
(-4.3096e-09 -5.02088e-10 0)
(-4.53496e-09 -5.65205e-10 0)
(-4.7394e-09 -6.38278e-10 0)
(-4.89389e-09 -7.10959e-10 0)
(-5.02148e-09 -7.89918e-10 0)
(-5.09798e-09 -8.66945e-10 0)
(-5.14431e-09 -9.47307e-10 0)
(-5.14065e-09 -1.02386e-09 0)
(-5.10542e-09 -1.10081e-09 0)
(-5.02354e-09 -1.17296e-09 0)
(-4.911e-09 -1.24349e-09 0)
(-4.75665e-09 -1.30853e-09 0)
(-4.57387e-09 -1.37052e-09 0)
(-4.35483e-09 -1.42683e-09 0)
(-4.11056e-09 -1.47924e-09 0)
(-3.83579e-09 -1.52614e-09 0)
(-3.53936e-09 -1.56899e-09 0)
(-3.21786e-09 -1.60702e-09 0)
(-2.87829e-09 -1.64141e-09 0)
(-2.51849e-09 -1.67189e-09 0)
(-2.144e-09 -1.69924e-09 0)
(-1.7535e-09 -1.72327e-09 0)
(-1.35161e-09 -1.74428e-09 0)
(-9.37456e-10 -1.76216e-09 0)
(-5.15161e-10 -1.77707e-09 0)
(-8.38839e-11 -1.78915e-09 0)
(3.52298e-10 -1.79833e-09 0)
(7.94426e-10 -1.80469e-09 0)
(1.23769e-09 -1.80747e-09 0)
(1.68332e-09 -1.80643e-09 0)
(2.12493e-09 -1.80016e-09 0)
(2.56425e-09 -1.78861e-09 0)
(2.99272e-09 -1.77009e-09 0)
(3.41321e-09 -1.7452e-09 0)
(3.81433e-09 -1.71167e-09 0)
(4.20067e-09 -1.67069e-09 0)
(4.55737e-09 -1.61923e-09 0)
(4.89175e-09 -1.55982e-09 0)
(5.18526e-09 -1.48899e-09 0)
(5.44926e-09 -1.41113e-09 0)
(5.66102e-09 -1.3217e-09 0)
(5.8369e-09 -1.22675e-09 0)
(5.94978e-09 -1.12066e-09 0)
(6.02242e-09 -1.01242e-09 0)
(6.02382e-09 -8.95781e-10 0)
(5.98418e-09 -7.82282e-10 0)
(5.86875e-09 -6.63392e-10 0)
(5.71541e-09 -5.52531e-10 0)
(5.4865e-09 -4.39746e-10 0)
(5.22753e-09 -3.41474e-10 0)
(4.89879e-09 -2.46161e-10 0)
(4.55199e-09 -1.71127e-10 0)
(4.14661e-09 -1.02266e-10 0)
(3.73888e-09 -5.81852e-11 0)
(3.2894e-09 -2.5188e-11 0)
(2.85672e-09 -2.5229e-11 0)
(2.4062e-09 -4.76008e-11 0)
(1.99846e-09 -1.16021e-10 0)
(1.6081e-09 -2.17582e-10 0)
(1.29216e-09 -3.58498e-10 0)
(1.02244e-09 -4.85997e-10 0)
(8.15822e-10 -5.43992e-10 0)
(5.97099e-10 -4.42784e-10 0)
(3.3452e-10 -1.78312e-10 0)
(1.00135e-10 7.29652e-11 0)
(-1.23921e-10 9.43819e-11 0)
(-3.9205e-10 -2.70848e-10 0)
(-6.94755e-10 -6.59254e-10 0)
(-9.15134e-10 -8.17362e-10 0)
(-1.13676e-09 -7.6836e-10 0)
(-1.39102e-09 -6.07751e-10 0)
(-1.7168e-09 -4.4153e-10 0)
(-2.07604e-09 -3.08047e-10 0)
(-2.48532e-09 -2.3336e-10 0)
(-2.89323e-09 -1.97249e-10 0)
(-3.32326e-09 -2.03931e-10 0)
(-3.7268e-09 -2.29799e-10 0)
(-4.13474e-09 -2.83829e-10 0)
(-4.50079e-09 -3.47433e-10 0)
(-4.85776e-09 -4.32023e-10 0)
(-5.16251e-09 -5.21918e-10 0)
(-5.44789e-09 -6.28397e-10 0)
(-5.67463e-09 -7.37363e-10 0)
(-5.87362e-09 -8.5786e-10 0)
(-6.01075e-09 -9.77079e-10 0)
(-6.11451e-09 -1.10296e-09 0)
(-6.15685e-09 -1.225e-09 0)
(-6.16301e-09 -1.34925e-09 0)
(-6.11058e-09 -1.46714e-09 0)
(-6.02149e-09 -1.58356e-09 0)
(-5.87884e-09 -1.69212e-09 0)
(-5.70121e-09 -1.79664e-09 0)
(-5.47633e-09 -1.89258e-09 0)
(-5.21953e-09 -1.98286e-09 0)
(-4.9223e-09 -2.06449e-09 0)
(-4.597e-09 -2.1398e-09 0)
(-4.23796e-09 -2.20713e-09 0)
(-3.85498e-09 -2.26838e-09 0)
(-3.44445e-09 -2.32281e-09 0)
(-3.01412e-09 -2.37191e-09 0)
(-2.56175e-09 -2.41533e-09 0)
(-2.09365e-09 -2.45388e-09 0)
(-1.60843e-09 -2.48732e-09 0)
(-1.1115e-09 -2.516e-09 0)
(-6.01782e-10 -2.54001e-09 0)
(-8.43025e-11 -2.55948e-09 0)
(4.42147e-10 -2.57459e-09 0)
(9.72066e-10 -2.58469e-09 0)
(1.50687e-09 -2.58954e-09 0)
(2.03956e-09 -2.58743e-09 0)
(2.57204e-09 -2.57803e-09 0)
(3.09504e-09 -2.55901e-09 0)
(3.61165e-09 -2.53073e-09 0)
(4.10957e-09 -2.49028e-09 0)
(4.59379e-09 -2.43882e-09 0)
(5.04802e-09 -2.37239e-09 0)
(5.48015e-09 -2.29348e-09 0)
(5.8694e-09 -2.19756e-09 0)
(6.22809e-09 -2.08952e-09 0)
(6.53042e-09 -1.96392e-09 0)
(6.79444e-09 -1.82789e-09 0)
(6.9887e-09 -1.67444e-09 0)
(7.13845e-09 -1.51393e-09 0)
(7.2069e-09 -1.33877e-09 0)
(7.22814e-09 -1.16334e-09 0)
(7.16019e-09 -9.78267e-10 0)
(7.04663e-09 -8.00438e-10 0)
(6.84084e-09 -6.18098e-10 0)
(6.59615e-09 -4.51542e-10 0)
(6.26239e-09 -2.87577e-10 0)
(5.90142e-09 -1.48822e-10 0)
(5.46079e-09 -1.92836e-11 0)
(5.00921e-09 7.75096e-11 0)
(4.49415e-09 1.59103e-10 0)
(3.98811e-09 1.99708e-10 0)
(3.44125e-09 2.14032e-10 0)
(2.92794e-09 1.7155e-10 0)
(2.40709e-09 8.36171e-11 0)
(1.95321e-09 -7.47532e-11 0)
(1.53371e-09 -2.6967e-10 0)
(1.2048e-09 -4.66653e-10 0)
(9.14345e-10 -5.56274e-10 0)
(6.516e-10 -4.49052e-10 0)
(3.43494e-10 -1.24174e-10 0)
(9.97162e-11 1.50017e-10 0)
(-1.20105e-10 1.60496e-10 0)
(-4.02317e-10 -2.40543e-10 0)
(-7.21826e-10 -6.85792e-10 0)
(-9.91654e-10 -8.61991e-10 0)
(-1.25232e-09 -7.73981e-10 0)
(-1.57856e-09 -5.63488e-10 0)
(-1.94886e-09 -3.35423e-10 0)
(-2.38836e-09 -1.67427e-10 0)
(-2.84062e-09 -6.06085e-11 0)
(-3.33108e-09 -2.44813e-11 0)
(-3.80022e-09 -2.76916e-11 0)
(-4.28326e-09 -7.66069e-11 0)
(-4.72368e-09 -1.4512e-10 0)
(-5.16203e-09 -2.46225e-10 0)
(-5.54423e-09 -3.58471e-10 0)
(-5.91122e-09 -4.95726e-10 0)
(-6.21286e-09 -6.39336e-10 0)
(-6.48872e-09 -8.01942e-10 0)
(-6.69445e-09 -9.66078e-10 0)
(-6.86659e-09 -1.14206e-09 0)
(-6.96735e-09 -1.31491e-09 0)
(-7.02962e-09 -1.49343e-09 0)
(-7.02269e-09 -1.66515e-09 0)
(-6.97512e-09 -1.83693e-09 0)
(-6.86291e-09 -1.99891e-09 0)
(-6.71045e-09 -2.15662e-09 0)
(-6.49991e-09 -2.30285e-09 0)
(-6.25154e-09 -2.44202e-09 0)
(-5.95257e-09 -2.5691e-09 0)
(-5.61941e-09 -2.68761e-09 0)
(-5.24333e-09 -2.79443e-09 0)
(-4.83743e-09 -2.89241e-09 0)
(-4.396e-09 -2.97992e-09 0)
(-3.92939e-09 -3.05927e-09 0)
(-3.434e-09 -3.12973e-09 0)
(-2.91815e-09 -3.19286e-09 0)
(-2.37966e-09 -3.24823e-09 0)
(-1.82548e-09 -3.29661e-09 0)
(-1.25415e-09 -3.33792e-09 0)
(-6.71795e-10 -3.37258e-09 0)
(-7.70494e-11 -3.40081e-09 0)
(5.23893e-10 -3.4223e-09 0)
(1.13253e-09 -3.43692e-09 0)
(1.74145e-09 -3.44294e-09 0)
(2.35257e-09 -3.43985e-09 0)
(2.95629e-09 -3.42482e-09 0)
(3.55568e-09 -3.39789e-09 0)
(4.13815e-09 -3.35552e-09 0)
(4.70878e-09 -3.29871e-09 0)
(5.25083e-09 -3.22274e-09 0)
(5.77231e-09 -3.12985e-09 0)
(6.25146e-09 -3.01434e-09 0)
(6.70082e-09 -2.8811e-09 0)
(7.09293e-09 -2.7237e-09 0)
(7.44654e-09 -2.55004e-09 0)
(7.72759e-09 -2.35198e-09 0)
(7.96258e-09 -2.14074e-09 0)
(8.11069e-09 -1.90712e-09 0)
(8.20826e-09 -1.66746e-09 0)
(8.20784e-09 -1.41149e-09 0)
(8.15674e-09 -1.1595e-09 0)
(8.00107e-09 -8.98384e-10 0)
(7.79969e-09 -6.52053e-10 0)
(7.49337e-09 -4.0552e-10 0)
(7.15188e-09 -1.86311e-10 0)
(6.71188e-09 2.30428e-11 0)
(6.25234e-09 1.93385e-10 0)
(5.7081e-09 3.44912e-10 0)
(5.16415e-09 4.47531e-10 0)
(4.55622e-09 5.20999e-10 0)
(3.97218e-09 5.30734e-10 0)
(3.35386e-09 4.90338e-10 0)
(2.79006e-09 3.62109e-10 0)
(2.23443e-09 1.64658e-10 0)
(1.76834e-09 -1.05193e-10 0)
(1.34837e-09 -3.61794e-10 0)
(1.01466e-09 -5.0663e-10 0)
(6.86596e-10 -3.96958e-10 0)
(3.57443e-10 -4.23e-11 0)
(9.50343e-11 2.35818e-10 0)
(-1.1907e-10 2.32111e-10 0)
(-4.04385e-10 -1.82657e-10 0)
(-7.53536e-10 -6.74293e-10 0)
(-1.04972e-09 -8.47239e-10 0)
(-1.37248e-09 -7.23666e-10 0)
(-1.73433e-09 -4.46125e-10 0)
(-2.17904e-09 -1.69228e-10 0)
(-2.65191e-09 4.8996e-11 0)
(-3.18127e-09 1.70389e-10 0)
(-3.69935e-09 2.22645e-10 0)
(-4.24414e-09 2.02845e-10 0)
(-4.74873e-09 1.45892e-10 0)
(-5.25958e-09 4.14062e-11 0)
(-5.7125e-09 -8.33786e-11 0)
(-6.15696e-09 -2.44309e-10 0)
(-6.53195e-09 -4.17381e-10 0)
(-6.88556e-09 -6.18621e-10 0)
(-7.16246e-09 -8.25615e-10 0)
(-7.40816e-09 -1.05204e-09 0)
(-7.57457e-09 -1.27774e-09 0)
(-7.70273e-09 -1.51437e-09 0)
(-7.7524e-09 -1.74481e-09 0)
(-7.75966e-09 -1.97867e-09 0)
(-7.69235e-09 -2.20182e-09 0)
(-7.58133e-09 -2.42189e-09 0)
(-7.402e-09 -2.62802e-09 0)
(-7.18012e-09 -2.82648e-09 0)
(-6.89764e-09 -3.00947e-09 0)
(-6.57559e-09 -3.18204e-09 0)
(-6.20126e-09 -3.33894e-09 0)
(-5.79152e-09 -3.48426e-09 0)
(-5.33783e-09 -3.61488e-09 0)
(-4.85355e-09 -3.73417e-09 0)
(-4.33319e-09 -3.84054e-09 0)
(-3.78738e-09 -3.93652e-09 0)
(-3.21281e-09 -4.02129e-09 0)
(-2.61818e-09 -4.09634e-09 0)
(-2.00145e-09 -4.16128e-09 0)
(-1.37003e-09 -4.21698e-09 0)
(-7.22348e-10 -4.26358e-09 0)
(-6.53894e-11 -4.30121e-09 0)
(6.02394e-10 -4.32991e-09 0)
(1.27321e-09 -4.34827e-09 0)
(1.94889e-09 -4.35576e-09 0)
(2.61973e-09 -4.34933e-09 0)
(3.28858e-09 -4.32867e-09 0)
(3.94293e-09 -4.28973e-09 0)
(4.58765e-09 -4.23326e-09 0)
(5.20626e-09 -4.15395e-09 0)
(5.80657e-09 -4.05376e-09 0)
(6.36682e-09 -3.92587e-09 0)
(6.89928e-09 -3.77479e-09 0)
(7.37599e-09 -3.59287e-09 0)
(7.81558e-09 -3.38833e-09 0)
(8.18292e-09 -3.152e-09 0)
(8.50475e-09 -2.89576e-09 0)
(8.73798e-09 -2.60871e-09 0)
(8.91977e-09 -2.30826e-09 0)
(8.99906e-09 -1.98276e-09 0)
(9.02513e-09 -1.65534e-09 0)
(8.93879e-09 -1.31185e-09 0)
(8.80228e-09 -9.79665e-10 0)
(8.5491e-09 -6.42045e-10 0)
(8.2545e-09 -3.30846e-10 0)
(7.84582e-09 -2.70445e-11 0)
(7.40998e-09 2.34531e-10 0)
(6.8704e-09 4.75846e-10 0)
(6.32264e-09 6.61458e-10 0)
(5.68869e-09 8.15304e-10 0)
(5.06897e-09 8.99314e-10 0)
(4.3892e-09 9.32605e-10 0)
(3.75127e-09 8.71184e-10 0)
(3.09097e-09 7.27631e-10 0)
(2.50739e-09 4.69026e-10 0)
(1.94897e-09 1.43443e-10 0)
(1.4956e-09 -1.95591e-10 0)
(1.0845e-09 -3.87453e-10 0)
(7.29705e-10 -3.02418e-10 0)
(3.60709e-10 7.21881e-11 0)
(9.48681e-11 3.28632e-10 0)
(-1.13463e-10 3.11758e-10 0)
(-4.10493e-10 -1.01675e-10 0)
(-7.69462e-10 -6.15478e-10 0)
(-1.11411e-09 -7.83886e-10 0)
(-1.46461e-09 -6.05778e-10 0)
(-1.89466e-09 -2.73136e-10 0)
(-2.36617e-09 7.00362e-11 0)
(-2.91289e-09 3.1908e-10 0)
(-3.4619e-09 4.72504e-10 0)
(-4.05265e-09 5.18391e-10 0)
(-4.60905e-09 5.00213e-10 0)
(-5.18219e-09 4.11308e-10 0)
(-5.69787e-09 2.88509e-10 0)
(-6.21282e-09 1.15636e-10 0)
(-6.6559e-09 -7.73568e-11 0)
(-7.08422e-09 -3.09671e-10 0)
(-7.43141e-09 -5.53816e-10 0)
(-7.75199e-09 -8.26979e-10 0)
(-7.98694e-09 -1.10339e-09 0)
(-8.18627e-09 -1.39827e-09 0)
(-8.29946e-09 -1.68901e-09 0)
(-8.37076e-09 -1.98848e-09 0)
(-8.35879e-09 -2.27751e-09 0)
(-8.30173e-09 -2.56656e-09 0)
(-8.16705e-09 -2.84018e-09 0)
(-7.98676e-09 -3.10692e-09 0)
(-7.73633e-09 -3.35522e-09 0)
(-7.44201e-09 -3.59211e-09 0)
(-7.08616e-09 -3.8094e-09 0)
(-6.6899e-09 -4.0128e-09 0)
(-6.24107e-09 -4.19701e-09 0)
(-5.75643e-09 -4.36667e-09 0)
(-5.22798e-09 -4.51877e-09 0)
(-4.669e-09 -4.65701e-09 0)
(-4.07456e-09 -4.77978e-09 0)
(-3.45539e-09 -4.88956e-09 0)
(-2.80855e-09 -4.98553e-09 0)
(-2.14297e-09 -5.06916e-09 0)
(-1.45671e-09 -5.14035e-09 0)
(-7.57736e-10 -5.19977e-09 0)
(-4.44377e-11 -5.24757e-09 0)
(6.74938e-10 -5.28291e-09 0)
(1.40209e-09 -5.3054e-09 0)
(2.12726e-09 -5.31215e-09 0)
(2.85297e-09 -5.30259e-09 0)
(3.56696e-09 -5.27236e-09 0)
(4.27365e-09 -5.22187e-09 0)
(4.9572e-09 -5.14544e-09 0)
(5.62495e-09 -5.04477e-09 0)
(6.25588e-09 -4.91222e-09 0)
(6.86159e-09 -4.75166e-09 0)
(7.41466e-09 -4.55415e-09 0)
(7.93295e-09 -4.32764e-09 0)
(8.3815e-09 -4.06192e-09 0)
(8.78644e-09 -3.7693e-09 0)
(9.10413e-09 -3.43736e-09 0)
(9.37132e-09 -3.08396e-09 0)
(9.53525e-09 -2.69563e-09 0)
(9.64554e-09 -2.2973e-09 0)
(9.63981e-09 -1.8737e-09 0)
(9.58177e-09 -1.45537e-09 0)
(9.39968e-09 -1.02399e-09 0)
(9.17208e-09 -6.15262e-10 0)
(8.81895e-09 -2.08321e-10 0)
(8.43268e-09 1.56828e-10 0)
(7.92686e-09 5.03644e-10 0)
(7.40537e-09 7.90471e-10 0)
(6.77795e-09 1.04429e-09 0)
(6.15579e-09 1.22287e-09 0)
(5.44943e-09 1.3508e-09 0)
(4.77349e-09 1.38095e-09 0)
(4.04566e-09 1.32947e-09 0)
(3.37922e-09 1.14583e-09 0)
(2.70589e-09 8.53107e-10 0)
(2.13057e-09 4.48243e-10 0)
(1.59473e-09 4.50893e-11 0)
(1.16167e-09 -2.1847e-10 0)
(7.48602e-10 -1.56703e-10 0)
(3.71186e-10 2.10719e-10 0)
(8.82749e-11 4.30712e-10 0)
(-1.11116e-10 3.96944e-10 0)
(-4.05154e-10 7.24625e-12 0)
(-7.90442e-10 -5.19248e-10 0)
(-1.15255e-09 -6.60982e-10 0)
(-1.56344e-09 -4.36839e-10 0)
(-2.01568e-09 -3.05365e-11 0)
(-2.55773e-09 3.59791e-10 0)
(-3.11898e-09 6.58421e-10 0)
(-3.7391e-09 8.19037e-10 0)
(-4.3343e-09 8.78655e-10 0)
(-4.95799e-09 8.3507e-10 0)
(-5.5269e-09 7.35467e-10 0)
(-6.10414e-09 5.66829e-10 0)
(-6.60868e-09 3.66893e-10 0)
(-7.10622e-09 1.1468e-10 0)
(-7.51969e-09 -1.56962e-10 0)
(-7.91303e-09 -4.69232e-10 0)
(-8.21612e-09 -7.90605e-10 0)
(-8.48834e-09 -1.14002e-09 0)
(-8.66825e-09 -1.48896e-09 0)
(-8.80905e-09 -1.85405e-09 0)
(-8.85927e-09 -2.2104e-09 0)
(-8.86512e-09 -2.57191e-09 0)
(-8.78518e-09 -2.91778e-09 0)
(-8.65842e-09 -3.25945e-09 0)
(-8.4528e-09 -3.58063e-09 0)
(-8.20045e-09 -3.89076e-09 0)
(-7.87766e-09 -4.17783e-09 0)
(-7.5104e-09 -4.44955e-09 0)
(-7.08193e-09 -4.69765e-09 0)
(-6.61289e-09 -4.92839e-09 0)
(-6.09201e-09 -5.13662e-09 0)
(-5.53564e-09 -5.32739e-09 0)
(-4.93661e-09 -5.49777e-09 0)
(-4.30799e-09 -5.65148e-09 0)
(-3.64551e-09 -5.78693e-09 0)
(-2.95987e-09 -5.90651e-09 0)
(-2.24848e-09 -6.00958e-09 0)
(-1.52055e-09 -6.09753e-09 0)
(-7.74301e-10 -6.17039e-09 0)
(-1.86253e-11 -6.22808e-09 0)
(7.48045e-10 -6.2704e-09 0)
(1.51585e-09 -6.295e-09 0)
(2.28688e-09 -6.30126e-09 0)
(3.04921e-09 -6.28477e-09 0)
(3.80661e-09 -6.24561e-09 0)
(4.544e-09 -6.17788e-09 0)
(5.26801e-09 -6.08306e-09 0)
(5.95882e-09 -5.95308e-09 0)
(6.62709e-09 -5.79124e-09 0)
(7.24667e-09 -5.5874e-09 0)
(7.83416e-09 -5.34875e-09 0)
(8.35581e-09 -5.06391e-09 0)
(8.83646e-09 -4.7452e-09 0)
(9.23331e-09 -4.37901e-09 0)
(9.58183e-09 -3.98331e-09 0)
(9.82924e-09 -3.54264e-09 0)
(1.00242e-08 -3.08272e-09 0)
(1.01032e-08 -2.58668e-09 0)
(1.01298e-08 -2.08753e-09 0)
(1.00292e-08 -1.56547e-09 0)
(9.88108e-09 -1.05968e-09 0)
(9.60034e-09 -5.47381e-10 0)
(9.28259e-09 -7.30415e-11 0)
(8.83375e-09 3.88766e-10 0)
(8.36345e-09 7.90148e-10 0)
(7.77096e-09 1.15994e-09 0)
(7.17613e-09 1.45052e-09 0)
(6.47594e-09 1.69157e-09 0)
(5.79611e-09 1.83244e-09 0)
(5.03726e-09 1.89594e-09 0)
(4.32581e-09 1.82553e-09 0)
(3.57394e-09 1.63536e-09 0)
(2.90393e-09 1.28245e-09 0)
(2.24563e-09 8.2515e-10 0)
(1.70055e-09 3.33946e-10 0)
(1.19786e-09 1.13556e-11 0)
(7.75842e-10 2.36039e-11 0)
(3.64971e-10 3.78326e-10 0)
(8.72936e-11 5.37648e-10 0)
(-1.0325e-10 4.88553e-10 0)
(-4.05077e-10 1.35919e-10 0)
(-7.90982e-10 -3.78049e-10 0)
(-1.19879e-09 -4.93307e-10 0)
(-1.62755e-09 -2.02662e-10 0)
(-2.1468e-09 2.605e-10 0)
(-2.70081e-09 7.16821e-10 0)
(-3.33187e-09 1.03988e-09 0)
(-3.95188e-09 1.22858e-09 0)
(-4.6138e-09 1.27249e-09 0)
(-5.22626e-09 1.22693e-09 0)
(-5.85651e-09 1.08567e-09 0)
(-6.4146e-09 8.96065e-10 0)
(-6.97404e-09 6.38359e-10 0)
(-7.44788e-09 3.51662e-10 0)
(-7.90926e-09 1.13239e-11 0)
(-8.27707e-09 -3.45579e-10 0)
(-8.62053e-09 -7.42131e-10 0)
(-8.86706e-09 -1.14356e-09 0)
(-9.07932e-09 -1.57065e-09 0)
(-9.1951e-09 -1.99223e-09 0)
(-9.26937e-09 -2.42625e-09 0)
(-9.25094e-09 -2.84589e-09 0)
(-9.1865e-09 -3.26614e-09 0)
(-9.03554e-09 -3.66514e-09 0)
(-8.8367e-09 -4.0553e-09 0)
(-8.55925e-09 -4.41982e-09 0)
(-8.23453e-09 -4.76889e-09 0)
(-7.84023e-09 -5.09038e-09 0)
(-7.40138e-09 -5.39258e-09 0)
(-6.90256e-09 -5.66734e-09 0)
(-6.36359e-09 -5.92137e-09 0)
(-5.77443e-09 -6.14968e-09 0)
(-5.15078e-09 -6.35747e-09 0)
(-4.48653e-09 -6.54189e-09 0)
(-3.79436e-09 -6.70653e-09 0)
(-3.07073e-09 -6.84994e-09 0)
(-2.32627e-09 -6.97437e-09 0)
(-1.55889e-09 -7.07942e-09 0)
(-7.78326e-10 -7.16589e-09 0)
(1.68888e-11 -7.23366e-09 0)
(8.16634e-10 -7.28126e-09 0)
(1.62257e-09 -7.30814e-09 0)
(2.42302e-09 -7.3103e-09 0)
(3.22096e-09 -7.2875e-09 0)
(4.00214e-09 -7.23384e-09 0)
(4.77216e-09 -7.15055e-09 0)
(5.51265e-09 -7.0295e-09 0)
(6.23301e-09 -6.87359e-09 0)
(6.90893e-09 -6.67191e-09 0)
(7.55535e-09 -6.43066e-09 0)
(8.14053e-09 -6.1372e-09 0)
(8.6874e-09 -5.80334e-09 0)
(9.15524e-09 -5.41442e-09 0)
(9.5774e-09 -4.98835e-09 0)
(9.9027e-09 -4.50788e-09 0)
(1.01777e-08 -3.99876e-09 0)
(1.03397e-08 -3.44211e-09 0)
(1.04506e-08 -2.87239e-09 0)
(1.0435e-08 -2.26811e-09 0)
(1.03718e-08 -1.67136e-09 0)
(1.01732e-08 -1.05746e-09 0)
(9.9357e-09 -4.74919e-10 0)
(9.56017e-09 1.04093e-10 0)
(9.15948e-09 6.26293e-10 0)
(8.62492e-09 1.12237e-09 0)
(8.0824e-09 1.53809e-09 0)
(7.41732e-09 1.90699e-09 0)
(6.76458e-09 2.17414e-09 0)
(6.00951e-09 2.36928e-09 0)
(5.28988e-09 2.43284e-09 0)
(4.4987e-09 2.38277e-09 0)
(3.77195e-09 2.15674e-09 0)
(3.02067e-09 1.77721e-09 0)
(2.37104e-09 1.24218e-09 0)
(1.75053e-09 6.86087e-10 0)
(1.24574e-09 2.78897e-10 0)
(7.72272e-10 2.46981e-10 0)
(3.67497e-10 5.62055e-10 0)
(7.84999e-11 6.50119e-10 0)
(-9.96739e-11 5.83137e-10 0)
(-3.92056e-10 2.89216e-10 0)
(-8.00882e-10 -2.0416e-10 0)
(-1.21751e-09 -2.68645e-10 0)
(-1.70645e-09 7.8313e-11 0)
(-2.23759e-09 6.17687e-10 0)
(-2.86104e-09 1.1156e-09 0)
(-3.49042e-09 1.48351e-09 0)
(-4.17699e-09 1.6696e-09 0)
(-4.82269e-09 1.72194e-09 0)
(-5.49622e-09 1.64082e-09 0)
(-6.09961e-09 1.48516e-09 0)
(-6.71254e-09 1.24025e-09 0)
(-7.23911e-09 9.5362e-10 0)
(-7.76146e-09 5.9903e-10 0)
(-8.18821e-09 2.18848e-10 0)
(-8.59841e-09 -2.14063e-10 0)
(-8.90839e-09 -6.5879e-10 0)
(-9.19075e-09 -1.14069e-09 0)
(-9.37211e-09 -1.62191e-09 0)
(-9.51685e-09 -2.12494e-09 0)
(-9.5633e-09 -2.61635e-09 0)
(-9.56668e-09 -3.11544e-09 0)
(-9.4771e-09 -3.59397e-09 0)
(-9.34047e-09 -4.06809e-09 0)
(-9.11803e-09 -4.51522e-09 0)
(-8.84711e-09 -4.94869e-09 0)
(-8.49888e-09 -5.35148e-09 0)
(-8.10318e-09 -5.73442e-09 0)
(-7.63961e-09 -6.08546e-09 0)
(-7.13183e-09 -6.41332e-09 0)
(-6.56617e-09 -6.71009e-09 0)
(-5.96132e-09 -6.98271e-09 0)
(-5.30869e-09 -7.22639e-09 0)
(-4.62322e-09 -7.44623e-09 0)
(-3.8999e-09 -7.63951e-09 0)
(-3.15105e-09 -7.80959e-09 0)
(-2.37395e-09 -7.95525e-09 0)
(-1.57944e-09 -8.07827e-09 0)
(-7.66009e-10 -8.1783e-09 0)
(5.57399e-11 -8.25497e-09 0)
(8.8706e-10 -8.30783e-09 0)
(1.71638e-09 -8.33372e-09 0)
(2.54585e-09 -8.33223e-09 0)
(3.36189e-09 -8.29776e-09 0)
(4.16893e-09 -8.23117e-09 0)
(4.94999e-09 -8.12459e-09 0)
(5.71302e-09 -7.98065e-09 0)
(6.43573e-09 -7.78826e-09 0)
(7.13119e-09 -7.55273e-09 0)
(7.77014e-09 -7.26035e-09 0)
(8.37317e-09 -6.9219e-09 0)
(8.90245e-09 -6.52172e-09 0)
(9.38866e-09 -6.07733e-09 0)
(9.78349e-09 -5.57014e-09 0)
(1.01305e-08 -5.02548e-09 0)
(1.03694e-08 -4.42236e-09 0)
(1.05594e-08 -3.79572e-09 0)
(1.06264e-08 -3.12204e-09 0)
(1.06472e-08 -2.4454e-09 0)
(1.05338e-08 -1.73913e-09 0)
(1.03815e-08 -1.05525e-09 0)
(1.00888e-08 -3.63445e-10 0)
(9.76933e-09 2.78433e-10 0)
(9.30903e-09 9.03538e-10 0)
(8.83753e-09 1.45104e-09 0)
(8.23131e-09 1.95752e-09 0)
(7.63171e-09 2.36233e-09 0)
(6.91128e-09 2.7009e-09 0)
(6.21746e-09 2.91143e-09 0)
(5.42549e-09 3.01946e-09 0)
(4.68293e-09 2.95645e-09 0)
(3.87938e-09 2.73453e-09 0)
(3.15781e-09 2.3008e-09 0)
(2.43057e-09 1.71957e-09 0)
(1.82101e-09 1.07353e-09 0)
(1.25085e-09 5.98257e-10 0)
(7.82869e-10 4.95436e-10 0)
(3.50886e-10 7.66551e-10 0)
(7.67162e-11 7.63031e-10 0)
(-8.97334e-11 6.81758e-10 0)
(-3.87254e-10 4.59399e-10 0)
(-7.91449e-10 1.26664e-11 0)
(-1.25508e-09 -1.78017e-12 0)
(-1.75545e-09 4.23119e-10 0)
(-2.35521e-09 1.01862e-09 0)
(-2.97931e-09 1.57748e-09 0)
(-3.67644e-09 1.95876e-09 0)
(-4.34446e-09 2.16535e-09 0)
(-5.05085e-09 2.19049e-09 0)
(-5.69092e-09 2.10196e-09 0)
(-6.34825e-09 1.89453e-09 0)
(-6.9193e-09 1.62619e-09 0)
(-7.49404e-09 1.27327e-09 0)
(-7.97187e-09 8.84319e-10 0)
(-8.44163e-09 4.28607e-10 0)
(-8.80911e-09 -4.73355e-11 0)
(-9.15704e-09 -5.73455e-10 0)
(-9.40079e-09 -1.10534e-09 0)
(-9.61464e-09 -1.67041e-09 0)
(-9.726e-09 -2.22812e-09 0)
(-9.79923e-09 -2.80268e-09 0)
(-9.77443e-09 -3.35891e-09 0)
(-9.70551e-09 -3.91746e-09 0)
(-9.54484e-09 -4.44922e-09 0)
(-9.33636e-09 -4.97133e-09 0)
(-9.04377e-09 -5.46093e-09 0)
(-8.70229e-09 -5.93202e-09 0)
(-8.28557e-09 -6.36761e-09 0)
(-7.82153e-09 -6.77894e-09 0)
(-7.29205e-09 -7.15423e-09 0)
(-6.71913e-09 -7.50246e-09 0)
(-6.09103e-09 -7.81608e-09 0)
(-5.42518e-09 -8.10195e-09 0)
(-4.71458e-09 -8.3555e-09 0)
(-3.97342e-09 -8.5815e-09 0)
(-3.19793e-09 -8.77744e-09 0)
(-2.40029e-09 -8.9462e-09 0)
(-1.57868e-09 -9.08676e-09 0)
(-7.44465e-10 -9.19993e-09 0)
(1.03327e-10 -9.28523e-09 0)
(9.52994e-10 -9.34065e-09 0)
(1.80589e-09 -9.36575e-09 0)
(2.64891e-09 -9.35562e-09 0)
(3.48521e-09 -9.31076e-09 0)
(4.29904e-09 -9.22375e-09 0)
(5.09669e-09 -9.09694e-09 0)
(5.85792e-09 -8.91963e-09 0)
(6.59366e-09 -8.69649e-09 0)
(7.27739e-09 -8.41331e-09 0)
(7.92703e-09 -8.07957e-09 0)
(8.50816e-09 -7.6787e-09 0)
(9.04833e-09 -7.22734e-09 0)
(9.50304e-09 -6.70596e-09 0)
(9.9122e-09 -6.13922e-09 0)
(1.02193e-08 -5.50432e-09 0)
(1.04796e-08 -4.83588e-09 0)
(1.06228e-08 -4.10822e-09 0)
(1.07218e-08 -3.36637e-09 0)
(1.06908e-08 -2.58141e-09 0)
(1.06224e-08 -1.80805e-09 0)
(1.04152e-08 -1.01359e-09 0)
(1.01816e-08 -2.59773e-10 0)
(9.80507e-09 4.8972e-10 0)
(9.41622e-09 1.16812e-09 0)
(8.88586e-09 1.81473e-09 0)
(8.35938e-09 2.36263e-09 0)
(7.69917e-09 2.85226e-09 0)
(7.05987e-09 3.2168e-09 0)
(6.30198e-09 3.49133e-09 0)
(5.58269e-09 3.6051e-09 0)
(4.77067e-09 3.57508e-09 0)
(4.02137e-09 3.32607e-09 0)
(3.22464e-09 2.87812e-09 0)
(2.52646e-09 2.22547e-09 0)
(1.84259e-09 1.51626e-09 0)
(1.28253e-09 9.48353e-10 0)
(7.64038e-10 7.80125e-10 0)
(3.4747e-10 9.80432e-10 0)
(6.57397e-11 8.77366e-10 0)
(-8.54265e-11 7.81697e-10 0)
(-3.70712e-10 6.53662e-10 0)
(-8.01201e-10 2.63444e-10 0)
(-1.27352e-09 3.23974e-10 0)
(-1.84023e-09 8.14383e-10 0)
(-2.44609e-09 1.48453e-09 0)
(-3.14033e-09 2.07477e-09 0)
(-3.82059e-09 2.48936e-09 0)
(-4.54965e-09 2.67934e-09 0)
(-5.21792e-09 2.70417e-09 0)
(-5.91023e-09 2.56835e-09 0)
(-6.51676e-09 2.34245e-09 0)
(-7.13408e-09 2.01019e-09 0)
(-7.65383e-09 1.62825e-09 0)
(-8.17387e-09 1.16509e-09 0)
(-8.59039e-09 6.72284e-10 0)
(-8.99634e-09 1.15362e-10 0)
(-9.29623e-09 -4.55172e-10 0)
(-9.57448e-09 -1.07187e-09 0)
(-9.74742e-09 -1.68704e-09 0)
(-9.8891e-09 -2.3302e-09 0)
(-9.92909e-09 -2.95873e-09 0)
(-9.92996e-09 -3.59853e-09 0)
(-9.83454e-09 -4.21328e-09 0)
(-9.6941e-09 -4.82483e-09 0)
(-9.46404e-09 -5.40361e-09 0)
(-9.18547e-09 -5.96749e-09 0)
(-8.82521e-09 -6.49358e-09 0)
(-8.41585e-09 -6.99625e-09 0)
(-7.93398e-09 -7.45882e-09 0)
(-7.40521e-09 -7.89272e-09 0)
(-6.81391e-09 -8.28666e-09 0)
(-6.18026e-09 -8.64959e-09 0)
(-5.49462e-09 -8.97432e-09 0)
(-4.77323e-09 -9.2673e-09 0)
(-4.01079e-09 -9.5242e-09 0)
(-3.22095e-09 -9.74919e-09 0)
(-2.4013e-09 -9.94005e-09 0)
(-1.56412e-09 -1.00988e-08 0)