/*--------------------------------*- C++ -*----------------------------------*\
| =========                 |                                                 |
| \\      /  F ield         | OpenFOAM: The Open Source CFD Toolbox           |
|  \\    /   O peration     | Version:  2412                                  |
|   \\  /    A nd           | Website:  www.openfoam.com                      |
|    \\/     M anipulation  |                                                 |
\*---------------------------------------------------------------------------*/
FoamFile
{
    version     2.0;
    format      ascii;
    arch        "LSB;label=32;scalar=64";
    class       volScalarField;
    location    "3.75";
    object      p_rgh;
}
// * * * * * * * * * * * * * * * * * * * * * * * * * * * * * * * * * * * * * //

dimensions      [1 -1 -2 0 0 0 0];

internalField   nonuniform List<scalar> 
6400
(
132761
132755
132742
132722
132697
132668
132636
132604
132573
132545
132522
132507
132501
132504
132520
132548
132588
132641
132707
132784
132872
132969
133074
133185
133301
133419
133537
133655
133770
133881
133986
134084
134173
134253
134323
134382
134430
134465
134489
134499
134496
134481
134453
134411
134358
134292
134215
134127
134028
133921
133806
133684
133557
133428
133297
133167
133041
132919
132804
132699
132604
132522
132453
132398
132357
132332
132320
132322
132336
132360
132393
132431
132473
132516
132558
132596
132628
132654
132671
132679
132767
132761
132747
132727
132701
132670
132637
132603
132570
132540
132516
132499
132491
132494
132509
132536
132576
132630
132696
132774
132863
132962
133068
133181
133298
133418
133538
133658
133774
133886
133992
134091
134182
134263
134333
134393
134441
134477
134500
134510
134508
134493
134464
134423
134369
134303
134225
134136
134036
133928
133812
133688
133560
133429
133296
133165
133036
132913
132796
132689
132593
132510
132440
132384
132344
132319
132308
132312
132327
132353
132388
132428
132472
132517
132561
132600
132634
132661
132679
132687
132780
132773
132759
132737
132708
132675
132638
132601
132564
132531
132503
132483
132472
132473
132486
132512
132552
132606
132674
132754
132846
132947
133057
133173
133293
133416
133540
133663
133782
133897
134006
134107
134199
134282
134354
134415
134463
134500
134524
134535
134532
134517
134488
134446
134391
134324
134245
134155
134054
133943
133824
133698
133566
133431
133294
133159
133027
132901
132778
132668
132570
132484
132413
132357
132316
132292
132284
132289
132308
132338
132377
132421
132470
132519
132567
132611
132648
132676
132695
132705
132802
132794
132777
132753
132721
132683
132641
132598
132555
132516
132482
132457
132442
132439
132449
132475
132515
132570
132639
132722
132818
132924
133038
133160
133286
133414
133543
133671
133795
133914
134026
134131
134226
134312
134386
134448
134498
134536
134561
134572
134570
134554
134525
134482
134427
134358
134277
134184
134080
133966
133844
133713
133574
133433
133291
133150
133012
132879
132753
132637
132534
132444
132370
132313
132273
132250
132244
132254
132278
132314
132359
132411
132467
132524
132578
132627
132669
132701
132722
132732
132832
132823
132804
132776
132738
132694
132645
132594
132543
132495
132453
132421
132399
132391
132399
132422
132462
132519
132591
132679
132779
132892
133013
133142
133276
133412
133548
133682
133813
133938
134055
134165
134264
134352
134429
134494
134546
134585
134611
134623
134621
134605
134575
134532
134475
134404
134320
134224
134116
133998
133869
133732
133588
133439
133289
133139
132992
132851
132717
132594
132484
132389
132312
132252
132212
132191
132189
132205
132236
132280
132335
132397
132463
132530
132593
132650
132698
132735
132760
132772
132872
132862
132840
132807
132762
132710
132651
132589
132527
132468
132416
132373
132344
132329
132332
132353
132393
132451
132528
132621
132730
132850
132981
133120
133263
133409
133554
133697
133836
133968
134093
134208
134312
134405
134485
134553
134607
134648
134675
134687
134686
134670
134640
134595
134536
134463
134376
134276
134163
134039
133903
133758
133606
133448
133287
133126
132967
132814
132670
132537
132419
132317
132235
132173
132132
132114
132117
132139
132180
132236
132304
132380
132459
132539
132614
132681
132738
132782
132811
132824
132925
132913
132887
132847
132794
132731
132660
132584
132508
132434
132368
132313
132272
132250
132246
132264
132304
132366
132448
132549
132667
132799
132942
133092
133248
133406
133563
133717
133866
134007
134140
134262
134371
134469
134553
134624
134681
134724
134752
134766
134765
134749
134718
134672
134612
134536
134445
134340
134222
134090
133947
133792
133629
133458
133284
133109
132937
132770
132612
132467
132337
132226
132137
132071
132030
132015
132024
132056
132110
132180
132265
132358
132455
132551
132642
132723
132791
132843
132877
132893
132991
132978
132947
132899
132836
132759
132672
132580
132485
132393
132309
132238
132184
132150
132140
132155
132195
132261
132350
132461
132591
132737
132894
133060
133231
133403
133575
133742
133903
134055
134197
134326
134443
134546
134635
134710
134770
134815
134845
134859
134859
134843
134812
134765
134702
134623
134529
134418
134293
134153
134000
133835
133657
133471
133282
133091
132902
132719
132542
132380
132237
132114
132016
131945
131903
131891
131908
131952
132021
132111
132216
132331
132450
132568
132678
132776
132858
132920
132960
132979
133074
133059
133022
132965
132889
132796
132690
132576
132459
132344
132238
132146
132075
132027
132008
132019
132060
132131
132230
132354
132499
132662
132838
133022
133211
133402
133590
133773
133948
134113
134266
134404
134528
134638
134732
134810
134873
134920
134952
134968
134968
134953
134922
134873
134808
134726
134628
134512
134379
134230
134065
133886
133691
133489
133281
133071
132861
132656
132460
132280
132115
131977
131868
131790
131746
131738
131764
131824
131912
132026
132157
132300
132447
132591
132725
132844
132943
133017
133065
133087
133177
133159
133116
133048
132956
132844
132715
132575
132429
132286
132151
132034
131941
131877
131847
131853
131896
131974
132085
132225
132390
132574
132772
132980
133191
133403
133611
133812
134003
134182
134347
134496
134628
134745
134844
134927
134992
135042
135075
135092
135093
135078
135046
134998
134931
134847
134744
134621
134481
134321
134144
133948
133737
133515
133285
133050
132815
132584
132362
132157
131972
131814
131689
131601
131554
131550
131587
131665
131778
131921
132086
132264
132445
132621
132785
132929
133049
133138
133195
133220
133301
133282
133232
133151
133040
132904
132748
132576
132396
132217
132047
131897
131776
131692
131649
131650
131695
131787
131912
132072
132259
132469
132698
132932
133170
133407
133639
133861
134071
134265
134443
134603
134745
134868
134973
135059
135128
135179
135214
135233
135235
135220
135189
135140
135072
134985
134878
134750
134601
134430
134239
134026
133794
133549
133293
133030
132764
132502
132249
132012
131800
131618
131474
131372
131319
131318
131369
131470
131614
131795
132001
132221
132445
132661
132861
133036
133180
133287
133355
133383
133450
133431
133373
133276
133144
132980
132792
132582
132361
132137
131922
131731
131575
131465
131406
131403
131454
131558
131705
131891
132109
132350
132611
132880
133150
133417
133676
133922
134153
134366
134558
134730
134881
135010
135120
135210
135281
135334
135370
135389
135393
135379
135349
135300
135233
135144
135034
134900
134742
134560
134353
134122
133867
133595
133308
133011
132709
132409
132118
131844
131596
131383
131213
131094
131032
131035
131102
131230
131413
131640
131899
132173
132449
132713
132955
133167
133340
133469
133549
133580
133627
133610
133541
133425
133268
133075
132849
132596
132323
132043
131771
131527
131327
131184
131107
131101
131161
131283
131459
131679
131935
132215
132514
132824
133132
133434
133725
133999
134254
134486
134694
134878
135037
135173
135286
135378
135451
135505
135542
135563
135567
135555
135527
135480
135414
135325
135212
135074
134908
134714
134491
134240
133959
133655
133333
132997
132653
132308
131970
131650
131357
131103
130900
130759
130680
130686
130771
130934
131165
131452
131776
132118
132458
132780
133072
133326
133533
133688
133783
133815
133832
133816
133731
133592
133412
133189
132925
132621
132286
131935
131590
131276
131019
130835
130737
130728
130803
130953
131167
131431
131734
132063
132409
132767
133119
133462
133790
134095
134376
134629
134854
135049
135217
135357
135473
135567
135639
135693
135730
135752
135758
135748
135723
135679
135615
135529
135416
135275
135102
134896
134657
134384
134076
133735
133373
132991
132597
132199
131805
131427
131079
130772
130523
130346
130253
130257
130362
130566
130858
131221
131630
132057
132475
132864
133212
133512
133757
133942
134058
134092
134065
134035
133925
133766
133570
133326
133024
132665
132255
131812
131369
130964
130632
130398
130276
130268
130367
130558
130823
131144
131505
131893
132296
132710
133115
133506
133875
134216
134525
134801
135043
135249
135422
135566
135683
135775
135846
135899
135934
135956
135964
135958
135937
135899
135841
135759
135649
135506
135328
135112
134856
134560
134225
133838
133431
132996
132543
132080
131621
131175
130757
130382
130072
129847
129726
129724
129850
130104
130475
130937
131457
131993
132506
132972
133379
133722
134004
134224
134368
134415
134330
134264
134125
133958
133763
133507
133171
132748
132244
131680
131105
130576
130143
129843
129693
129693
129831
130083
130417
130812
131246
131705
132178
132654
133122
133569
133986
134367
134708
135006
135261
135479
135658
135802
135916
136004
136071
136120
136153
136174
136183
136182
136168
136140
136091
136018
135913
135772
135592
135368
135096
134774
134403
133980
133518
133020
132498
131962
131423
130892
130387
129922
129530
129239
129074
129057
129206
129523
129995
130590
131259
131937
132568
133124
133589
133972
134282
134532
134710
134789
134653
134555
134395
134226
134033
133762
133384
132892
132271
131537
130771
130059
129489
129104
128925
128948
129153
129504
129935
130430
130954
131497
132051
132606
133147
133659
134132
134558
134932
135253
135524
135748
135927
136067
136174
136255
136314
136356
136384
136402
136413
136418
136415
136399
136364
136310
136211
136078
135900
135670
135383
135037
134630
134161
133637
133068
132464
131840
131206
130576
129962
129372
128865
128478
128243
128195
128364
128758
129365
130145
131027
131907
132687
133339
133878
134307
134645
134920
135130
135241
135027
134928
134767
134616
134433
134160
133751
133190
132427
131440
130392
129429
128664
128165
127952
128018
128335
128869
129412
129987
130614
131257
131913
132564
133195
133785
134322
134798
135209
135554
135835
136054
136235
136364
136459
136527
136573
136604
136623
136637
136649
136661
136673
136679
136655
136611
136543
136427
136258
136027
135729
135359
134914
134392
133796
133141
132443
131714
130971
130227
129516
128749
128087
127570
127232
127125
127309
127797
128589
129623
130818
131997
132958
133712
134322
134789
135150
135431
135658
135771
135427
135312
135161
135072
134965
134743
134333
133721
132807
131346
126713
119236
112602
108686
108130
110779
115215
120183
124768
128189
130136
130970
131766
132542
133281
133963
134573
135105
135555
135926
136222
136450
136606
136700
136772
136821
136849
136862
136869
136875
136885
136905
136939
136993
137018
136987
136934
136837
136679
136450
136141
135747
135269
134689
134009
133250
132435
131580
130701
129213
126277
121828
115837
109156
103221
99755
100578
105009
112994
122525
130548
132306
133484
134325
134997
135453
135772
136016
136239
136343
136026
135748
135328
135138
135209
130877
124455
119089
107880
85178.1
57275.5
35138.6
21996.4
16034.1
14238.4
16480.7
21722.5
30109.7
42019.7
57654.2
75567.8
91383.9
104903
116624
125168
130602
133433
135054
135951
136395
136693
136897
136982
137056
137114
137141
137143
137131
137117
137109
137113
137131
137162
137244
137308
137355
137356
137299
137171
136956
136643
136223
135494
134153
130651
124002
114130
101145
86633
64751.7
45760.1
32131.4
22248.1
15062.5
10380.6
8238.66
9182.8
12959.6
22560.8
41697.8
70663.7
99138.1
113980
122068
131633
136268
136520
136766
137005
137121
87036
80368.8
73395.3
70123
69813.9
70807.4
68699.9
56618.6
34544.4
12050.7
1104.54
96.5333
52.513
45.3719
61.2764
6.71053
2.83418
1.76465
2.3793
3.05441
3.89875
712.891
7090.89
15532.7
26778.7
40360.7
54932.1
68533.5
79498.8
87366.4
93022.9
96619.9
98424.1
98912.6
98502.6
97569
96326.2
95121.7
94243.4
93862.6
94142.2
95063.6
96565.7
98487.7
100550
102421
103735
103996
102764
99595.8
93992.5
85596
74119.1
58831.6
42299.3
27337.9
15425.9
6608.36
271.425
50.2918
42.9953
31.835
22.7023
18.874
22.3162
36.9877
61.4451
90.4636
153.049
287.678
7134.12
29593.6
57106.4
75588.1
83761.8
89565.6
95739.8
102445
108476
109883
11.3857
10.1685
4.53319
2.29335
1.58905
1.48084
1.86676
2.29866
2.77385
12.1126
14.6895
7.6372
4.69471
5.1408
112.479
121.797
19.7456
2.96192
3.102
3.82866
3.36302
2.39125
0.956075
1.00211
2.01412
2.73495
2.95996
3.84552
589.327
2591.47
4113.86
5121.95
5593.29
5658.31
5402.66
4978.11
4511.1
4062.56
3707.78
3504.55
3506.04
3729.41
4089.66
4611.21
5276.35
5992.35
6568.72
6798.28
6524.55
5661.5
4159.08
1761.74
21.1538
20.6843
21.3556
28.4182
38.5522
45.0764
48.8755
146.671
143.622
133.196
81.5705
18.6433
21.1387
26.0124
47.2791
66.9606
86.6832
102.795
95.7293
117.853
-0.121142
0.280279
2.09309
5.74087
93.0951
2242.67
5480.63
9561.32
11.0587
11.7485
7.35557
4.83023
3.52626
2.96712
3.02938
3.18407
3.29286
3.173
2.86915
2.45854
2.24312
2.9561
17.1087
45.7389
42.3991
7.12603
1.93299
3.62936
4.39015
3.4275
1.5023
5.01522
7.60094
6.83196
3.58519
3.6474
3.80937
4.05079
5.14703
6.42207
7.07415
7.34137
7.59368
7.77737
7.86413
8.09592
10.3041
11.2883
7.30542
6.64748
6.1403
5.52537
4.71603
3.65727
2.45968
2.20776
5.165
10.2582
61.3411
78.9245
93.1803
74.9313
72.6543
125.058
129.478
136.633
143.61
143.841
140.56
129.633
15.8401
17.5053
18.329
48.1478
87.9199
97.7251
89.8814
81.3005
56.3452
74.9915
18.6864
3.98306
4.03226
4.20429
4.10691
3.66137
4.76991
4.57363
19.1128
18.2686
14.5356
8.92348
2.93972
1.7073
1.81926
2.05258
2.3453
2.49075
2.37247
2.22151
2.01612
1.71545
1.22819
0.763434
0.66441
1.24656
1.26585
1.19223
3.66738
4.20663
4.01419
4.01484
5.08461
6.84958
7.22505
5.35803
4.1155
10.0035
19.5018
19.1818
7.36727
8.0334
9.09221
8.95506
7.66921
7.9224
14.8722
21.9413
16.3881
6.89418
6.23501
5.86211
5.37776
3.70096
2.88069
2.5584
3.89267
50.8172
105.285
105.379
101.067
123.09
124.125
125.985
129.222
99.7484
84.503
91.9095
110.92
88.0376
24.4356
24.7095
24.3635
59.8376
49.1968
31.0591
67.0644
100.758
41.0924
12.0567
8.59983
2.82897
2.52383
2.71383
19.5981
26.504
27.6457
27.827
19.0317
4.79068
1.67841
1.54009
1.58615
1.7402
1.93697
2.11984
2.26808
2.30214
2.23906
2.12329
2.02241
1.83835
1.43547
0.875243
0.436998
0.298144
0.468573
0.766301
1.11047
1.63762
4.61825
4.96081
4.53726
2.83032
3.04171
3.82914
4.31658
7.99195
17.4967
19.4628
19.5245
8.17389
7.32715
7.48854
7.59655
11.0957
22.3705
22.1232
13.5393
7.68889
14.1665
13.4331
12.5478
7.31324
3.43981
6.88766
34.2567
38.0196
9.66619
1.44187
1.99882
3.15896
10.5081
12.1567
10.286
15.3395
19.56
19.1351
16.9825
22.7788
80.8048
81.1699
77.7518
22.7536
3.84131
3.23265
16.2315
88.5775
42.949
0.900933
1.19336
-0.0890244
3.63052
4.21131
-1.48014
-1.35998
-0.770681
-0.321327
14.7715
3.9748
1.48935
1.51693
1.56369
1.65092
1.79118
1.98038
2.16962
2.27484
2.29171
2.25956
2.15007
1.89243
1.41626
0.784076
0.250799
0.0164709
0.127421
0.519195
0.996921
1.4112
1.9632
2.5412
2.48397
2.50976
3.04816
7.67635
7.94842
8.25582
5.16787
13.3113
22.5605
23.4182
9.64876
7.63463
7.77771
11.0935
22.3463
11.2069
8.18876
14.1594
13.5565
13.0351
10.813
13.5276
15.6075
15.9278
14.5015
2.9352
0.968074
1.35084
2.14716
4.36427
3.78765
2.18875
5.02411
21.2489
28.4019
21.8758
14.1607
9.57239
14.758
10.527
4.14821
3.88449
3.28442
2.43411
1.88558
33.183
26.1942
2.10539
-0.758995
-0.870194
1.92808
3.90727
2.92051
-0.434844
-0.846869
-0.191179
1.85314
4.22193
1.48547
1.43924
1.41432
1.44229
1.55268
1.7434
1.9787
2.18442
2.27318
2.28411
2.19474
2.11263
3.83862
5.76402
6.44547
3.69877
0.711014
0.307002
0.932307
1.46754
1.83219
3.29283
7.90336
7.995
7.83532
7.51274
7.28748
5.12802
2.28094
3.2165
20.2565
23.7321
21.8927
8.36928
16.3325
12.3846
6.67793
3.94733
4.9339
6.5123
4.33219
4.29537
10.8548
13.7117
14.5174
9.90181
2.13035
0.342499
1.05553
3.50581
3.71359
3.70037
1.16229
0.871293
12.4677
29.8245
31.6563
32.5776
32.5381
7.61096
3.75462
4.01882
4.01893
3.62932
2.95042
2.04731
0.891542
0.642638
2.73436
1.20788
-0.0569804
-0.234345
-0.809169
4.16961
4.11956
2.91608
-0.315042
0.287838
1.67
3.16335
1.40425
1.28459
1.20357
1.22604
1.3677
1.62062
1.94041
2.23981
2.42715
2.44968
3.87241
11.0251
13.3333
12.3901
11.6402
10.6661
0.00325964
0.360974
0.919865
1.47476
2.4129
2.77802
2.1333
1.66763
1.3548
1.0013
1.00632
0.959751
1.40503
2.23023
14.9667
24.025
25.5149
9.91669
18.3542
10.8192
4.16993
3.3202
2.55246
1.90647
1.43266
1.08888
0.906672
1.14502
1.52062
1.38794
0.546578
0.303453
2.31639
3.49808
3.67625
1.33278
0.833275
0.755738
0.862456
3.4953
19.5905
29.3812
24.2303
6.71908
3.50279
3.6533
3.58271
3.30625
2.77454
1.98968
1.13647
0.523829
0.282415
0.429921
0.629707
0.545409
0.103686
0.247182
1.25884
0.608668
0.446096
0.913551
1.56908
1.57014
1.296
1.11101
1.00322
1.03869
1.2045
1.48193
1.84433
2.19176
4.41138
15.0401
14.8704
14.184
13.1837
12.1608
9.73065
1.89025
-0.264293
0.393733
1.04493
1.64581
1.85005
1.8708
1.77935
1.54979
1.20248
0.856061
1.02584
0.765167
0.993685
1.63373
14.3191
23.9398
25.1989
9.8029
17.8022
6.9211
3.49363
2.84319
2.20684
1.65505
1.20401
0.848457
0.591334
0.477669
0.419624
0.337454
0.212566
0.204424
1.10955
1.49046
0.734596
0.689199
0.792872
1.18724
1.2928
1.08577
1.56292
2.10545
2.6798
3.17392
3.40888
3.45439
3.42359
3.19775
2.76809
2.12154
1.44685
0.986326
0.829539
0.904652
0.978985
0.881163
0.626182
0.452348
0.465907
0.65551
0.950524
1.28571
1.57986
1.40418
1.23108
0.977948
0.838916
0.867511
1.04712
1.31271
1.62601
5.02718
14.9286
14.6301
14.1565
13.3569
4.65918
0.522189
0.584939
0.95438
1.50696
2.05336
2.65859
2.3312
1.88692
1.77766
1.65217
1.4242
1.11027
1.24202
1.34493
0.932635
0.754825
1.19449
10.788
23.5282
24.5169
17.684
17.2847
3.34379
2.80649
2.30144
1.76826
1.26622
0.828833
0.502766
0.320723
0.237675
0.223639
0.201996
0.162798
0.15424
0.537366
0.769912
0.829053
0.619041
0.831906
2.06933
2.26465
2.02419
1.62806
2.1884
2.79025
3.25092
3.42744
3.39241
3.32204
3.10795
2.74122
2.31971
1.98935
2.20915
2.19009
1.78414
1.31354
0.950523
0.81343
0.747256
0.758042
0.839876
1.00245
1.24917
1.75257
1.56924
1.29917
0.984572
0.791566
0.769027
0.89008
1.10851
2.68341
11.6793
13.7732
4.25833
0.156159
-0.435079
-0.881094
-0.955081
2.99122
4.36444
5.07418
5.83311
6.54025
7.04875
5.47025
2.17747
1.49973
1.34395
1.16328
0.980034
0.842865
0.801104
0.780664
0.949167
1.74581
19.763
15.2964
20.001
17.2396
2.23747
1.93197
1.46438
0.935339
0.442853
0.0516931
-0.204369
-0.287368
-0.232564
-0.109127
-0.00467376
0.0579834
0.101283
0.150968
0.230778
0.333898
0.481132
0.614873
1.63088
2.45482
2.81804
2.77068
2.2645
2.83857
3.28357
3.4401
3.36946
3.1727
2.94859
2.62341
2.26524
3.1382
3.96256
3.76241
3.62839
3.50888
3.11004
1.4422
1.35864
1.02251
0.715143
0.78775
0.982785
2.10126
1.90374
1.58682
1.22749
0.959625
0.835773
0.864988
3.17122
9.81098
10.4109
4.64165
-0.542516
-1.09639
-1.68717
-2.12177
-2.2513
-0.797807
3.33618
4.36065
5.26213
6.07891
6.73111
7.1752
6.49993
1.37713
1.31344
1.48989
3.08528
5.71383
3.39482
1.50837
1.00135
0.815866
2.25967
4.10726
19.5834
10.869
1.1737
0.819532
0.326259
-0.195364
-0.634241
-0.950023
-1.05343
-1.09413
-0.918686
-0.64355
-0.383545
-0.200726
-0.0515842
0.0854073
0.227068
0.39196
0.681264
0.929693
1.07495
2.62367
2.97323
3.18446
2.6475
2.9035
3.42313
3.52658
3.3793
3.15907
2.88335
2.56086
2.26398
3.77222
4.09366
3.84119
3.62935
3.44715
3.30707
3.20691
2.7703
1.1718
0.503699
0.507145
0.673251
2.57998
2.38943
2.07412
1.69506
1.36225
1.15809
4.23059
10.6247
9.27953
6.90511
-1.05705
-1.80181
-2.42971
-2.59596
-3.55361
-3.56097
-3.28753
-2.87553
-2.21127
0.895716
5.00056
6.23004
6.97941
7.55862
3.87964
1.34207
2.06211
21.0859
30.7057
30.6509
28.8009
19.9042
8.3548
2.6198
6.33062
20.3245
1.18472
-0.0346857
-0.594869
1.00775
5.32376
5.76164
1.87086
-1.7799
-2.07102
-1.77865
-1.33756
-0.887684
-0.561602
-0.301837
-0.0679062
0.153092
0.382147
1.27544
1.52625
1.49239
1.92961
2.39468
2.96777
4.48155
7.22307
6.01462
3.69483
3.38336
3.13424
2.86484
2.54945
2.26613
3.78517
4.18107
3.87273
3.59003
3.3513
2.67145
1.04994
0.464659
0.400555
0.349141
0.289273
0.489766
3.08724
2.92084
2.63372
2.27262
1.93672
5.78283
12.0048
10.8653
9.40601
1.68195
-2.10054
-3.12136
-2.20297
-3.35225
-5.13906
-4.56819
-4.11852
-3.97137
-3.16971
-2.3238
-1.44427
0.91387
6.42479
7.67161
8.19805
1.89364
4.22893
27.0609
31.5123
31.2311
30.8656
30.4752
29.9584
17.3835
25.5076
20.3813
-0.762496
-1.63814
1.37405
4.99405
4.21857
3.97005
4.32839
4.34245
-2.39766
-2.7847
-2.17752
-1.51906
-1.01106
-0.630033
-0.291942
0.0220798
0.304091
0.882632
1.45808
1.68602
1.9344
2.33408
4.19875
9.83186
11.7857
9.19139
3.44053
3.25494
3.07657
2.81579
2.51405
2.19413
3.10361
4.22949
3.86674
3.5109
1.85281
0.41657
0.381597
0.361653
0.329315
0.292521
0.278722
0.436959
3.504
3.36571
3.11481
2.80513
5.70786
13.5302
12.3806
11.1322
9.18681
-2.09445
-3.29598
-3.0194
-3.83485
-5.9072
-4.11661
-0.445046
0.972722
-3.87151
-4.07297
-3.07358
-2.05655
-1.16801
-0.486949
5.71267
9.31081
10.1997
5.46801
6.32492
30.5509
31.7438
30.9982
30.1958
29.7891
29.1819
27.4836
9.5552
-1.7749
-3.02106
3.32879
2.13209
1.23326
0.379674
1.929
3.04808
2.02754
-3.88385
-3.09001
-2.22286
-1.51759
-1.00088
-0.564123
-0.154659
0.211888
0.707206
1.26054
1.81261
3.33263
6.20332
10.8381
11.1813
11.5627
11.4571
4.08376
3.00658
2.87542
2.6844
2.41583
2.11219
2.17689
4.09368
3.79395
3.37002
0.989509
0.228653
0.2154
0.228581
0.252612
0.297812
0.351407
0.417691
3.74286
3.62707
3.41148
3.54541
11.752
13.8414
12.688
11.18
6.56135
-3.58414
-4.37789
-4.12076
-5.18188
-8.33461
-7.16573
-1.15026
0.398808
2.00258
-3.28184
-3.80753
-2.64471
-1.58914
-0.841287
-0.360209
5.2436
10.4941
11.1414
6.31632
5.43008
32.5189
31.4931
19.6653
29.3439
28.7164
27.9449
-1.84835
-3.11498
-3.86505
0.815631
-0.438625
-9.05021
-9.62328
-6.49201
0.689638
2.15544
-0.51714
-3.96303
-2.91542
-2.01444
-1.37814
-0.865559
-0.0108309
2.61543
4.79071
6.05291
7.17851
9.68435
10.1512
10.5621
10.8952
11.1694
11.5077
6.50792
2.63373
2.60439
2.41958
2.21674
1.93415
1.67752
3.18644
3.58791
3.11
0.830712
-0.0641049
-0.0470621
0.0124352
0.104373
0.227873
0.327636
0.345313
3.77844
3.67533
3.48837
6.43423
14.9883
14.0989
13.0008
11.443
0.575274
-4.01511
-5.6204
-4.97588
-7.68162
-8.9434
-8.99057
-8.52452
-2.86642
1.87627
3.31106
-4.43954
-3.18208
-1.98373
-1.12006
-0.605184
-0.327724
6.8717
11.2178
8.68757
3.93618
17.9462
25.4656
14.7496
30.2145
29.4143
25.2065
-2.6648
-4.22982
0.14521
-1.31068
-7.21099
-11.7451
-11.9145
-11.1729
-7.7156
0.635533
2.57942
-4.51932
-3.5
-2.45884
-1.73668
-1.07976
5.00937
7.64338
7.88722
8.06265
8.10629
6.59057
5.89185
8.38285
10.443
10.6963
10.9103
9.08592
2.69866
2.03708
2.01331
1.88544
1.62955
1.28197
1.40267
2.65117
1.93228
-0.430667
-0.52144
-0.45525
-0.326998
-0.150781
0.055502
0.199496
0.209702
3.63349
3.52357
3.33545
7.80183
15.158
14.2479
13.241
11.4973
-1.83703
-3.81563
-5.69236
-7.23296
-8.39606
-8.9158
-8.92953
-8.43946
-7.63646
-0.919599
4.3656
-3.48209
-3.57187
-2.30589
-1.35632
-0.780689
-0.492218
0.0817102
11.2015
11.7954
4.31421
6.01567
24.1521
13.7988
16.4962
31.0518
5.62184
-1.88451
-3.44767
-1.1872
-3.66104
-12.2949
-13.4807
-13.6242
-12.6218
-10.7815
-1.06794
2.00024
-0.407463
-3.57103
-2.79134
-2.02326
1.47144
7.1066
7.4998
7.75478
7.65078
3.74818
-0.0635829
0.0711847
0.170323
4.04629
9.00388
8.62748
4.78182
1.5421
1.86076
1.78938
1.42048
1.18628
0.792222
0.320269
-0.191028
-0.791527
-1.14741
-1.20223
-1.06175
-0.831096
-0.54361
-0.234224
-0.00667538
0.0268934
3.38215
3.23594
3.01868
4.71285
15.2376
14.3628
13.449
12.3717
6.49528
-3.28187
-4.93979
-6.53362
-7.65986
-8.2351
-8.27842
-7.86132
-7.17516
-1.06954
4.62438
0.559151
-3.76014
-2.50038
-1.51822
-0.905806
-0.570029
-0.142708
11.2428
12.0757
8.65208
4.00708
9.35529
15.4139
8.39015
6.56824
0.895639
-0.977565
-2.25253
-1.40072
-4.01838
-11.8927
-14.3456
-14.4392
-13.2573
-11.1193
-8.34936
1.96735
3.59616
-2.35489
-2.9531
-2.21121
6.33143
7.06193
7.4191
5.40152
-0.166185
-0.437925
-0.289199
-0.188417
-0.0958242
0.0664534
0.149435
0.233663
0.411588
0.753334
1.59959
1.75863
0.865318
0.600897
0.142122
-0.510142
-1.20734
-1.69109
-1.46013
-2.14815
-1.8972
-1.50514
-1.0195
-0.655319
-0.311813
-0.217011
3.09458
2.9161
2.69255
2.43761
4.05388
13.1426
13.6368
12.7483
11.7287
6.14815
-1.77739
-5.24716
-6.31171
-6.90702
-7.05674
-6.85023
-6.4696
3.3538
5.13316
2.10962
-3.7322
-2.54648
-1.58909
-0.990933
-0.665429
-0.47741
11.2397
12.0827
12.2244
5.88273
1.54718
11.7206
9.09788
3.38814
2.02254
0.163641
-2.73065
-0.652803
-3.62629
-5.5719
-12.4737
-14.1419
-12.8226
-10.6013
-5.9805
2.44709
3.88856
-1.29274
-2.88379
-1.48474
6.59207
7.14754
4.5076
-0.92621
-0.750039
-0.604119
-0.495711
-0.0709253
1.47698
1.43873
0.797797
0.038046
0.183217
0.385362
1.08784
1.20189
0.912181
-0.101422
-0.665901
-1.51489
-0.486174
7.3679
4.34633
-1.27777
-1.88524
-2.11844
-1.50725
-1.20172
-0.735664
-0.540962
2.96406
2.63612
2.48741
6.98785
3.11841
2.32128
12.3296
13.1405
12.2175
11.1931
9.8656
6.45397
2.46528
-2.08579
-5.93338
-5.97381
0.116172
5.70056
5.76112
-0.624663
-3.58242
-2.42804
-1.55091
-1.01432
-0.71339
0.480482
11.1339
11.9138
11.9266
6.34316
0.78695
3.50851
11.8569
9.59618
2.97926
1.41847
-1.34262
-2.78012
-1.95618
-4.3079
-6.18795
-11.9215
-11.0739
-9.06399
-2.05561
3.41318
4.74433
-1.11331
-2.52073
3.10935
6.65555
6.97991
-1.17636
-0.999845
-0.854794
-0.746573
-0.463939
2.37129
2.77128
2.78684
2.8586
1.23107
-0.0312513
0.0694361
0.153046
0.675174
0.443966
-0.805506
-1.61038
-2.67523
0.775303
5.72477
5.25935
5.63772
4.81608
-3.14726
-2.28357
-1.6748
-1.24263
-0.925846
2.57617
5.4282
21.0621
21.889
13.059
11.8334
4.73044
6.65392
8.52393
8.75905
8.00738
7.52272
6.45873
5.48633
4.30746
6.39389
6.34409
6.31265
6.66644
-1.65413
-3.16332
-2.1402
-1.4
-0.962385
-0.697279
2.69295
10.3038
7.57219
1.17608
2.64234
0.557358
0.788283
12.0424
12.3418
11.3147
4.37173
0.386409
-2.05138
-3.2127
-3.45077
-6.61019
-9.241
-8.2767
-6.8563
2.01814
4.82642
5.8855
-1.36011
-1.9148
6.02278
6.92818
0.691256
-1.1423
-1.01574
-0.921769
-0.861336
0.0101248
2.56554
2.60613
2.63355
2.70918
1.33709
-0.324158
-0.305634
-0.363041
0.0606714
-0.199287
-0.76141
-2.49216
-3.7361
-3.04036
4.39043
3.83049
4.19753
5.30635
1.87146
-2.94594
-1.93587
-1.70832
-1.30289
2.15941
9.13464
21.4128
21.3416
21.2593
7.57003
3.88192
2.58631
2.08546
1.53297
1.28992
4.84838
3.55158
1.20364
5.50121
7.38291
7.24103
7.29789
3.52721
-3.20624
-2.52977
-1.71561
-1.16258
-0.836817
-0.214815
4.41049
2.41224
-0.199437
-0.134603
0.0178047
0.342455
0.535734
8.83389
12.0857
11.9822
11.049
8.27293
0.333463
-3.44167
-5.33296
-6.30135
-6.2632
-5.47538
-3.34424
5.45029
6.33529
5.11684
-1.35066
-1.17232
6.68152
7.35409
-0.0671626
-1.05703
-0.990231
-0.951614
-0.943831
-0.68655
2.02772
2.08769
0.897514
0.103486
-0.679416
-0.701277
-0.762499
-0.891504
-1.11548
-0.825365
-1.44594
-2.95818
-4.39549
-5.973
-3.1559
3.49365
3.79158
4.80251
6.30845
-2.18147
-2.31859
-1.90938
-1.57068
1.75094
3.69283
19.804
20.8332
18.5072
1.04907
0.72267
0.331176
-0.128899
0.589795
2.46492
1.87807
2.52076
2.11184
1.69495
2.23892
8.60614
4.92492
-2.88514
-2.46129
-1.78569
-1.24884
-0.894909
-0.663588
3.60574
4.62653
0.227335
-0.1714
-0.114562
0.0361347
0.308676
0.620246
0.969755
4.74593
8.18739
9.12474
7.13479
-0.177075
-1.93381
-3.36899
-4.05323
-3.95225
-3.36809
-2.27457
7.1253
7.79227
2.63254
-1.0101
2.71563
7.61633
6.63925
-0.133733
-0.941099
-0.934983
-0.950362
-0.995047
-1.06498
-0.855135
-1.23044
-1.19807
-0.986233
1.15865
-0.186523
-1.38093
-1.54614
-1.78239
-2.11859
-2.03476
-3.20987
-4.59096
-5.71876
-6.80097
-6.63876
-1.96792
5.31901
6.37674
1.38114
-2.33582
-1.9066
-1.62396
2.75827
2.45638
3.26325
17.7012
12.0931
1.56526
0.186873
-0.0266463
-0.240319
-0.566351
-1.02386
-0.435807
6.14595
6.22481
6.04561
3.74471
-2.10741
-2.30811
-1.94448
-1.51684
-1.13732
-0.853892
-0.654723
0.698637
4.4512
4.83334
0.399417
-0.133047
-0.0684822
0.0529959
0.249688
0.389679
0.368844
0.388531
0.59037
0.862826
0.949542
1.91826
4.43908
-1.75114
-2.58089
-2.4571
-1.93402
-1.31851
4.09074
5.74613
0.326984
-0.405704
4.80707
8.40608
8.08945
0.990888
-0.814046
-0.864488
-0.928194
-1.01953
-1.13416
-1.26775
-1.4194
-1.5776
2.92614
4.48541
4.13681
0.147379
-0.570573
-2.16114
-2.76524
-3.04901
-3.43263
-4.30112
-5.07075
-5.63904
-5.84749
-5.59796
2.7794
7.14053
3.75501
-2.00083
-1.70335
-1.40239
5.62278
5.56182
5.36749
4.76711
2.84112
0.965369
0.359833
0.886928
0.880579
-0.372494
-0.975828
4.03018
7.07375
6.62167
6.60815
7.00669
3.91009
-1.24185
-1.11894
-0.900133
-0.732437
-0.589692
-0.458563
3.02491
4.40217
0.270316
-0.141556
-0.119068
-0.0776213
-0.00169387
0.10174
0.163764
0.166632
0.163106
0.147137
0.214783
0.958805
13.2059
21.3947
20.6509
9.60682
-1.48876
-0.993317
-0.489403
-0.0703142
-0.0209377
0.0418017
0.147614
5.80527
9.21213
8.69576
0.97212
-0.697217
-0.790032
-0.892863
-1.0217
-1.17446
-1.34686
-1.56864
0.477613
4.43142
3.86157
3.42354
3.12426
2.90518
2.60968
-0.918527
-3.64053
-3.65737
-3.48265
-3.74319
-4.47492
-4.43143
-4.19028
3.18969
8.22374
4.29825
-1.4842
-1.16184
-0.926759
5.61697
4.6867
5.85482
5.47005
1.37082
1.21562
1.34242
6.76765
4.22467
-0.343728
-0.921099
3.55195
7.4064
7.15645
7.2162
6.54262
-0.180286
-0.93669
-0.705565
-0.584402
-0.507116
-0.403211
1.2338
3.11712
2.18585
0.0944126
-0.143869
-0.130024
-0.118454
-0.0966037
-0.0693405
-0.0523482
-0.0493103
-0.0332828
-0.0289321
-0.0660035
13.2535
22.6905
22.0676
21.7031
21.6528
21.4594
10.0374
-0.0996852
0.0429006
0.353986
0.555402
0.900966
8.747
9.84947
3.94841
-0.415998
-0.586616
-0.715334