/*--------------------------------*- C++ -*----------------------------------*\
| =========                 |                                                 |
| \\      /  F ield         | OpenFOAM: The Open Source CFD Toolbox           |
|  \\    /   O peration     | Version:  2412                                  |
|   \\  /    A nd           | Website:  www.openfoam.com                      |
|    \\/     M anipulation  |                                                 |
\*---------------------------------------------------------------------------*/
FoamFile
{
    version     2.0;
    format      ascii;
    arch        "LSB;label=32;scalar=64";
    class       volScalarField;
    location    "3.14";
    object      p;
}
// * * * * * * * * * * * * * * * * * * * * * * * * * * * * * * * * * * * * * //

dimensions      [1 -1 -2 0 0 0 0];

internalField   nonuniform List<scalar> 
80000
(
29041.7
29041.8
29041.8
29041.8
29041.8
29041.8
29041.8
29041.8
29041.9
29041.9
29041.9
29042
29042
29042
29042.1
29042.1
29042.2
29042.2
29042.3
29042.4
29042.4
29042.5
29042.6
29042.7
29042.8
29042.8
29042.9
29043
29043.1
29043.2
29043.3
29043.5
29043.6
29043.7
29043.8
29043.9
29044.1
29044.2
29044.4
29044.5
29044.6
29044.8
29045
29045.1
29045.3
29045.5
29045.6
29045.8
29046
29046.2
29046.4
29046.6
29046.8
29047
29047.3
29047.5
29047.7
29047.9
29048.2
29048.4
29048.7
29049
29049.2
29049.5
29049.8
29050.1
29050.3
29050.6
29051
29051.3
29051.6
29051.9
29052.3
29052.6
29052.9
29053.3
29053.7
29054
29054.4
29054.8
29055.2
29055.6
29056
29056.5
29056.9
29057.3
29057.8
29058.3
29058.7
29059.2
29059.7
29060.2
29060.7
29061.2
29061.8
29062.3
29062.9
29063.4
29064
29064.6
29065.2
29065.8
29066.5
29067.1
29067.8
29068.4
29069.1
29069.8
29070.5
29071.2
29072
29072.7
29073.5
29074.3
29075.1
29075.9
29076.7
29077.6
29078.5
29079.3
29080.2
29081.2
29082.1
29083.1
29084
29085
29086
29087.1
29088.1
29089.2
29090.3
29091.4
29092.5
29093.7
29094.9
29096.1
29097.3
29098.6
29099.9
29101.2
29102.5
29103.8
29105.2
29106.6
29108.1
29109.5
29111
29112.5
29114.1
29115.7
29117.3
29118.9
29120.6
29122.3
29124
29125.8
29127.6
29129.5
29131.3
29133.2
29135.2
29137.2
29139.2
29141.3
29143.4
29145.5
29147.7
29149.9
29152.2
29154.5
29156.8
29159.2
29161.6
29164.1
29166.7
29169.2
29171.9
29174.5
29177.3
29180
29182.9
29185.8
29188.7
29191.7
29194.7
29197.8
29201
29204.2
29207.5
29210.8
29214.2
29217.7
29221.2
29224.8
29228.4
29232.2
29235.9
29239.8
29243.7
29247.7
29251.8
29255.9
29260.2
29264.5
29268.8
29273.3
29277.8
29282.4
29287.1
29291.9
29296.7
29301.7
29306.7
29311.8
29317.1
29322.4
29327.8
29333.2
29338.8
29344.5
29350.3
29356.2
29362.2
29368.3
29374.4
29380.7
29387.1
29393.7
29400.3
29407
29413.9
29420.8
29427.9
29435.1
29442.4
29449.9
29457.5
29465.2
29473
29480.9
29489
29497.2
29505.5
29514
29522.6
29531.4
29540.3
29549.3
29558.5
29567.8
29577.3
29586.9
29596.7
29606.6
29616.6
29626.9
29637.2
29647.8
29658.5
29669.3
29680.4
29691.5
29702.9
29714.4
29726.1
29737.9
29750
29762.2
29774.5
29787.1
29799.8
29812.7
29825.8
29839
29852.5
29866.1
29879.9
29893.8
29908
29922.4
29936.9
29951.6
29966.5
29981.6
29996.9
30012.4
30028
30043.9
30059.9
30076.1
30092.5
30109.1
30125.9
30142.9
30160
30177.4
30194.9
30212.6
30230.5
30248.6
30266.8
30285.2
30303.8
30322.6
30341.6
30360.7
30380
30399.4
30419
30438.8
30458.7
30478.8
30499
30519.4
30539.9
30560.6
30581.3
30602.2
30623.3
30644.4
30665.7
30687
30708.5
30730.1
30751.7
30773.4
30795.2
30817.1
30839
30861
30883
30905
30927.1
30949.2
30971.2
30993.3
31015.3
31037.4
31059.3
31081.3
31103.1
31124.9
31146.6
31168.2
31189.6
31211
31232.1
31253.1
31274
31294.6
31315
31335.2
31355.2
31374.9
31394.3
31413.4
31432.1
31450.6
31468.6
31486.3
31503.6
31520.4
31536.8
31552.7
31568.1
31583
31597.3
31611.1
31624.3
31636.9
31648.8
31660
31670.5
31680.3
31689.4
31697.6
31705.1
31711.7
31717.5
31722.4
31726.3
31729.3
31731.3
31732.4
31732.4
31731.3
31729.2
31726
31721.6
31716.1
31709.5
31701.6
31692.6
31682.3
31670.7
31657.9
31643.8
31628.4
31611.7
31593.7
31574.4
31553.7
31531.6
31508.2
31483.5
31457.4
31429.9
31401.1
31370.9
31339.3
31306.4
31272.1
31236.5
31199.5
31161.2
31121.5
31080.6
31038.3
30994.7
30949.9
30903.7
30856.4
30807.7
30757.9
30706.8
30654.5
30601
30546.4
30490.6
30433.7
30375.7
30316.5
30256.4
30195.1
30132.9
30069.6
30005.4
29940.3
29874.2
29807.3
29739.5
29670.9
29601.4
29531.3
29460.6
29389.2
29317.3
29244.7
29171.7
29098.4
29024.8
28950.8
28876.5
28802
28727.5
28653
28578.6
28504.4
28430.3
28356.6
28283.4
28210.6
28138.5
28067
27996.4
27926.6
27857.8
27790.1
27723.5
27658.2
27594.3
27531.9
27471
27411.8
27354.3
27298.7
27245
27193.3
27143.7
27096.4
27051.3
27008.6
26968.3
26930.6
26895.5
26863.1
26833.4
26806.6
26782.7
26761.8
26743.9
26729.1
26717.4
26708.9
26703.6
26701.6
26703
26707.6
26715.7
26727.1
26741.9
26760.2
26781.8
26806.7
26835.1
26866.7
26901.7
26939.9
26981.3
27025.8
27073.3
27123.8
27177.2
27233.3
27292
27353.3
27416.9
27482.7
27550.6
27620.4
27691.9
27765
27839.5
27915.1
27991.7
28069.1
28147.1
28225.4
28304
28382.6
28461
28539
28616.5
28693.2
28769.1
28843.8
28917.4
28989.8
29060.6
29129.7
29197.1
29262.8
29326.4
29388.1
29447.9
29505.6
29561.2
29614.7
29666
29715.2
29762.3
29807.2
29850
29890.8
29929.5
29966.3
30001.1
30034.1
30065.2
30094.6
30122.3
30148.4
30173
30196
30217.7
30238.1
30257.2
30275
30291.8
30307.4
30322
30335.6
30348.2
30359.9
30370.6
30380.4
30389.4
30397.4
30404.5
30410.8
30416.1
30420.4
30423.9
30426.5
30428
30428.7
30428.3
30427
30424.6
30421.4
30417.1
30411.7
30405.4
30398
30389.6
30380.2
30369.7
30358.1
30345.4
30331.6
30316.6
30300.3
30282.8
30264
30243.7
30222
30198.7
30173.8
30147.3
30118.9
30088.8
30056.7
30022.6
29986.5
29948.2
29907.7
29865
29820
29772.6
29722.9
29670.8
29616.2
29559.3
29500
29438.4
29374.4
29308.3
29239.8
29169.2
29096.5
29022
28945.6
28867.4
28787.9
28707.2
28625.3
28542.5
28458.9
28374.9
28290.6
28206.3
28122.1
28038.5
27955.5
27873.5
27792.7
27713.4
27635.7
27560
27486.5
27415.4
27346.8
27281.1
27218.4
27158.9
27102.7
27050
27001
26955.8
26914.4
26877
26843.6
26814.4
26789.4
26768.6
26752
26739.7
26731.7
26728
26728.4
26733.1
26742
26754.9
26771.9
26792.9
26817.9
26846.6
26879.1
26915.2
26954.9
26998
27044.5
27094.1
27146.9
27202.6
27261.2
27322.5
27386.4
27452.8
27521.4
27592.3
27665.2
27740
27816.6
27894.8
27974.5
28055.5
28137.8
28221.1
28305.3
28390.3
28476
28562.2
28648.7
28735.5
28822.4
28909.4
28996
29082.4
29168.6
29254.3
29339.5
29423.9
29507.5
29590.3
29672.3
29753.2
29832.9
29911.5
29988.8
30064.9
30139.5
30212.8
30284.6
30355
30423.8
30491
30556.7
30620.6
30683
30743.6
30802.5
30859.7
30915.1
30968.7
31020.6
31070.6
31118.7
31165
31209.5
31252
31292.7
31331.5
31368.3
31403.3
31436.3
31467.4
31496.5
31523.7
31549
31572.4
31593.8
31613.3
31630.9
31646.7
31660.5
31672.5
31682.7
31691
31697.6
31702.4
31705.5
31706.9
31706.7
31704.8
31701.4
31696.4
31690
31682.2
31672.9
31662.3
31650.4
31637.2
31622.8
31607.3
31590.7
31573
31554.3
31534.6
31514
31492.6
31470.3
31447.2
31423.3
31398.8
31373.6
31347.8
31321.4
31294.5
31267
31239.1
31210.8
31182.1
31153
31123.6
31094
31064.1
31034
31003.7
30973.3
30942.7
30912.1
30881.4
30850.7
30820
30789.3
30758.7
30728.2
30697.8
30667.5
30637.3
30607.3
30577.5
30547.9
30518.6
30489.4
30460.5
30431.9
30403.5
30375.4
30347.7
30320.2
30293.1
30266.2
30239.8
30213.6
30187.8
30162.4
30137.3
30112.5
30088.2
30064.2
30040.5
30017.3
29994.4
29971.9
29949.7
29928
29906.6
29885.6
29865
29844.7
29824.8
29805.3
29786.2
29767.4
29749
29730.9
29713.3
29695.9
29678.9
29662.3
29646
29630.1
29614.5
29599.2
29584.3
29569.6
29555.3
29541.4
29527.7
29514.3
29501.3
29488.5
29476.1
29463.9
29452
29440.4
29429.1
29418.1
29407.3
29396.7
29386.5
29376.5
29366.7
29357.2
29347.9
29338.8
29330
29321.4
29313
29304.8
29296.9
29289.1
29281.6
29274.3
29267.1
29260.1
29253.4
29246.8
29240.3
29234.1
29228
29222.1
29216.4
29210.8
29205.3
29200.1
29194.9
29189.9
29185.1
29180.4
29175.8
29171.3
29167
29162.8
29158.7
29154.8
29150.9
29147.2
29143.6
29140
29136.6
29133.3
29130.1
29127
29124
29121
29118.2
29115.4
29112.7
29110.1
29107.6
29105.2
29102.8
29100.5
29098.3
29096.2
29094.1
29092.1
29090.1
29088.2
29086.4
29084.6
29082.9
29081.2
29079.6
29078.1
29076.5
29075.1
29073.7
29072.3
29071
29069.7
29068.5
29067.3
29066.1
29065
29064
29062.9
29061.9
29061
29060
29059.1
29058.3
29057.4
29056.6
29055.8
29055.1
29054.4
29053.7
29053
29052.3
29051.7
29051.1
29050.6
29050
29049.5
29049
29048.5
29048
29047.6
29047.2
29046.8
29046.4
29046
29045.7
29045.3
29045
29044.7
29044.4
29044.2
29043.9
29043.7
29043.4
29043.2
29043
29042.9
29042.7
29042.6
29042.4
29042.3
29042.2
29042.1
29042
29042
29041.9
29041.9
29041.8
29041.8
28306
28306
28306
28306
28306
28306
28306.1
28306.1
28306.1
28306.1
28306.2
28306.2
28306.3
28306.3
28306.4
28306.4
28306.5
28306.5
28306.6
28306.6
28306.7
28306.8
28306.9
28306.9
28307
28307.1
28307.2
28307.3
28307.4
28307.5
28307.6
28307.7
28307.8
28307.9
28308.1
28308.2
28308.3
28308.5
28308.6
28308.7
28308.9
28309
28309.2
28309.4
28309.5
28309.7
28309.9
28310.1
28310.3
28310.4
28310.6
28310.8
28311.1
28311.3
28311.5
28311.7
28311.9
28312.2
28312.4
28312.7
28312.9
28313.2
28313.5
28313.7
28314
28314.3
28314.6
28314.9
28315.2
28315.5
28315.8
28316.2
28316.5
28316.8
28317.2
28317.5
28317.9
28318.3
28318.7
28319
28319.4
28319.9
28320.3
28320.7
28321.1
28321.6
28322
28322.5
28323
28323.4
28323.9
28324.4
28324.9
28325.5
28326
28326.6
28327.1
28327.7
28328.3
28328.8
28329.5
28330.1
28330.7
28331.3
28332
28332.7
28333.3
28334
28334.7
28335.5
28336.2
28337
28337.7
28338.5
28339.3
28340.1
28341
28341.8
28342.7
28343.6
28344.5
28345.4
28346.3
28347.3
28348.2
28349.2
28350.2
28351.3
28352.3
28353.4
28354.5
28355.6
28356.8
28357.9
28359.1
28360.3
28361.5
28362.8
28364.1
28365.4
28366.7
28368.1
28369.4
28370.8
28372.3
28373.7
28375.2
28376.8
28378.3
28379.9
28381.5
28383.1
28384.8
28386.5
28388.2
28390
28391.8
28393.7
28395.5
28397.4
28399.4
28401.4
28403.4
28405.4
28407.5
28409.7
28411.9
28414.1
28416.3
28418.6
28421
28423.4
28425.8
28428.3
28430.8
28433.4
28436
28438.7
28441.4
28444.2
28447
28449.9
28452.9
28455.8
28458.9
28462
28465.1
28468.4
28471.6
28475
28478.4
28481.8
28485.3
28488.9
28492.6
28496.3
28500.1
28503.9
28507.9
28511.9
28515.9
28520.1
28524.3
28528.6
28533
28537.4
28541.9
28546.5
28551.2
28556
28560.9
28565.8
28570.8
28576
28581.2
28586.5
28591.9
28597.4
28602.9
28608.6
28614.4
28620.3
28626.3
28632.3
28638.5
28644.8
28651.2
28657.7
28664.4
28671.1
28678
28684.9
28692
28699.2
28706.5
28714
28721.5
28729.2
28737
28745
28753
28761.3
28769.6
28778.1
28786.7
28795.4
28804.3
28813.4
28822.5
28831.8
28841.3
28850.9
28860.7
28870.6
28880.7
28890.9
28901.3
28911.8
28922.5
28933.4
28944.4
28955.5
28966.9
28978.4
28990.1
29001.9
29014
29026.2
29038.5
29051.1
29063.8
29076.7
29089.8
29103
29116.4
29130.1
29143.8
29157.8
29172
29186.3
29200.9
29215.6
29230.5
29245.6
29260.9
29276.3
29292
29307.8
29323.9
29340.1
29356.5
29373.1
29389.9
29406.9
29424
29441.4
29458.9
29476.6
29494.5
29512.5
29530.8
29549.2
29567.8
29586.6
29605.6
29624.7
29644
29663.4
29683
29702.8
29722.7
29742.8
29763
29783.4
29803.9
29824.6
29845.4
29866.3
29887.3
29908.5
29929.8
29951.1
29972.6
29994.2
30015.8
30037.6
30059.4
30081.2
30103.2
30125.1
30147.2
30169.2
30191.3
30213.4
30235.5
30257.5
30279.6
30301.6
30323.6
30345.6
30367.4
30389.2
30410.9
30432.5
30454
30475.4
30496.6
30517.6
30538.5
30559.1
30579.6
30599.8
30619.8
30639.5
30658.9
30678
30696.8
30715.3
30733.3
30751
30768.3
30785.2
30801.6
30817.6
30833
30847.9
30862.3
30876.1
30889.3
30901.9
30913.9
30925.1
30935.7
30945.5
30954.6
30962.9
30970.4
30977.1
30982.8
30987.7
30991.7
30994.8
30996.8
30997.9
30997.9
30996.9
30994.8
30991.6
30987.3
30981.8
30975.2
30967.3
30958.3
30948
30936.5
30923.7
30909.6
30894.2
30877.5
30859.5
30840.1
30819.5
30797.4
30774
30749.3
30723.1
30695.7
30666.8
30636.6
30605
30572
30537.7
30502.1
30465.1
30426.8
30387.1
30346.1
30303.8
30260.2
30215.3
30169.2
30121.7
30073.1
30023.2
29972.1
29919.7
29866.2
29811.6
29755.7
29698.8
29640.7
29581.6
29521.3
29460.1
29397.8
29334.5
29270.2
29205
29138.9
29071.9
29004.1
28935.4
28866
28795.8
28725
28653.6
28581.5
28509
28435.9
28362.5
28288.7
28214.6
28140.2
28065.7
27991.1
27916.5
27842
27767.7
27693.6
27619.8
27546.4
27473.6
27401.3
27329.8
27259
27189.1
27120.2
27052.4
26985.8
26920.4
26856.4
26793.9
26733
26673.7
26616.1
26560.4
26506.6
26454.9
26405.2
26357.8
26312.6
26269.9
26229.6
26191.8
26156.6
26124.2
26094.5
26067.6
26043.7
26022.7
26004.8
25989.9
25978.2
25969.7
25964.4
25962.4
25963.7
25968.4
25976.4
25987.8
26002.6
26020.8
26042.5
26067.4
26095.8
26127.5
26162.5
26200.7
26242.2
26286.7
26334.3
26384.9
26438.3
26494.5
26553.3
26614.7
26678.4
26744.4
26812.4
26882.3
26954
27027.2
27101.8
27177.6
27254.4
27331.9
27410.1
27488.7
27567.4
27646.2
27724.8
27803
27880.7
27957.6
28033.6
28108.5
28182.3
28254.7
28325.6
28394.9
28462.5
28528.2
28592
28653.9
28713.7
28771.5
28827.1
28880.7
28932.1
28981.3
29028.4
29073.3
29116.2
29156.9
29195.7
29232.4
29267.2
29300.1
29331.1
29360.5
29388.1
29414.1
29438.6
29461.6
29483.2
29503.5
29522.5
29540.3
29557
29572.6
29587.1
29600.6
29613.2
29624.8
29635.5
29645.3
29654.2
29662.2
29669.3
29675.5
29680.8
29685.2
29688.6
29691.2
29692.8
29693.4
29693
29691.7
29689.4
29686.1
29681.8
29676.5
29670.2
29662.9
29654.5
29645.1
29634.7
29623.2
29610.6
29596.8
29581.8
29565.7
29548.2
29529.4
29509.2
29487.6
29464.4
29439.6
29413.1
29384.8
29354.7
29322.7
29288.6
29252.5
29214.3
29173.8
29131.1
29086.1
29038.7
28989
28936.8
28882.2
28825.3
28765.9
28704.2
28640.1
28573.7
28505.2
28434.4
28361.6
28286.9
28210.4
28132.2
28052.5
27971.5
27889.4
27806.4
27722.7
27638.4
27553.9
27469.4
27385.1
27301.2
27218.1
27135.9
27054.9
26975.4
26897.6
26821.8
26748.1
26676.8
26608.2
26542.4
26479.6
26419.9
26363.7
26310.9
26261.9
26216.6
26175.1
26137.7
26104.3
26075.1
26050.1
26029.3
26012.7
26000.4
25992.5
25988.7
25989.2
25993.9
26002.8
26015.8
26032.9
26053.9
26078.9
26107.7
26140.2
26176.4
26216.1
26259.3
26305.8
26355.6
26408.4
26464.2
26522.9
26584.3
26648.3
26714.7
26783.5
26854.4
26927.4
27002.3
27079
27157.3
27237.1
27318.3
27400.6
27484
27568.4
27653.5
27739.3
27825.6
27912.2
27999.1
28086.1
28173.1
28260
28346.5
28432.8
28518.6
28603.8
28688.3
28772
28854.9
28936.9
29017.9
29097.7
29176.3
29253.7
29329.8
29404.5
29477.8
29549.7
29620.1
29688.9
29756.2
29821.9
29885.9
29948.3
30008.9
30067.9
30125.1
30180.5
30234.2
30286
30336.1
30384.2
30430.6
30475
30517.6
30558.3
30597.1
30633.9
30668.9
30701.9
30733
30762.2
30789.4
30814.7
30838
30859.4
30879
30896.6
30912.3
30926.1
30938.1
30948.2
30956.6
30963.1
30967.9
30971
30972.3
30972.1
30970.2
30966.7
30961.8
30955.3
30947.4
30938.1
30927.5
30915.5
30902.3
30887.9
30872.4
30855.7
30838
30819.2
30799.5
30778.9
30757.4
30735
30711.9
30688
30663.5
30638.2
30612.4
30586
30559
30531.5
30503.6
30475.2
30446.5
30417.4
30388
30358.3
30328.4
30298.3
30268
30237.5
30207
30176.3
30145.6
30114.9
30084.2
30053.5
30022.9
29992.3
29961.9
29931.6
29901.4
29871.4
29841.6
29812
29782.6
29753.4
29724.5
29695.9
29667.5
29639.4
29611.7
29584.2
29557
29530.2
29503.7
29477.6
29451.8
29426.3
29401.2
29376.5
29352.1
29328.1
29304.5
29281.2
29258.4
29235.8
29213.7
29192
29170.6
29149.6
29129
29108.7
29088.8
29069.3
29050.2
29031.4
29013
28994.9
28977.3
28959.9
28942.9
28926.3
28910
28894.1
28878.5
28863.2
28848.3
28833.7
28819.4
28805.4
28791.7
28778.4
28765.3
28752.6
28740.1
28728
28716.1
28704.5
28693.2
28682.1
28671.3
28660.8
28650.6
28640.5
28630.8
28621.3
28612
28602.9
28594.1
28585.5
28577.1
28569
28561
28553.3
28545.7
28538.4
28531.2
28524.3
28517.5
28510.9
28504.5
28498.2
28492.2
28486.3
28480.5
28474.9
28469.5
28464.2
28459.1
28454.1
28449.2
28444.5
28440
28435.5
28431.2
28427
28422.9
28418.9
28415.1
28411.4
28407.7
28404.2
28400.8
28397.5
28394.3
28391.2
28388.2
28385.2
28382.4
28379.6
28376.9
28374.3
28371.8
28369.4
28367
28364.7
28362.5
28360.4
28358.3
28356.3
28354.3
28352.4
28350.6
28348.8
28347.1
28345.4
28343.8
28342.3
28340.8
28339.3
28337.9
28336.5
28335.2
28333.9
28332.7
28331.5
28330.4
28329.3
28328.2
28327.2
28326.1
28325.2
28324.3
28323.4
28322.5
28321.6
28320.8
28320.1
28319.3
28318.6
28317.9
28317.2
28316.6
28316
28315.4
28314.8
28314.2
28313.7
28313.2
28312.7
28312.3
28311.8
28311.4
28311
28310.6
28310.2
28309.9
28309.6
28309.2
28308.9
28308.7
28308.4
28308.1
28307.9
28307.7
28307.5
28307.3
28307.1
28306.9
28306.8
28306.7
28306.5
28306.4
28306.3
28306.3
28306.2
28306.1
28306.1
28306.1
28306.1
27570.2
27570.2
27570.2
27570.2
27570.3
27570.3
27570.3
27570.3
27570.3
27570.4
27570.4
27570.4
27570.5
27570.5
27570.6
27570.6
27570.7
27570.7
27570.8
27570.9
27570.9
27571
27571.1
27571.2
27571.2
27571.3
27571.4
27571.5
27571.6
27571.7
27571.8
27571.9
27572.1
27572.2
27572.3
27572.4
27572.6
27572.7
27572.8
27573
27573.1
27573.3
27573.4
27573.6
27573.8
27573.9
27574.1
27574.3
27574.5
27574.7
27574.9
27575.1
27575.3
27575.5
27575.7
27575.9
27576.2
27576.4
27576.7
27576.9
27577.2
27577.4
27577.7
27578
27578.2
27578.5
27578.8
27579.1
27579.4
27579.7
27580
27580.4
27580.7
27581.1
27581.4
27581.8
27582.1
27582.5
27582.9
27583.3
27583.7
27584.1
27584.5
27584.9
27585.3
27585.8
27586.2
27586.7
27587.2
27587.7
27588.1
27588.6
27589.2
27589.7
27590.2
27590.8
27591.3
27591.9
27592.5
27593.1
27593.7
27594.3
27594.9
27595.5
27596.2
27596.9
27597.5
27598.2
27598.9
27599.7
27600.4
27601.2
27601.9
27602.7
27603.5
27604.3
27605.2
27606
27606.9
27607.7
27608.6
27609.6
27610.5
27611.5
27612.4
27613.4
27614.4
27615.5
27616.5
27617.6
27618.7
27619.8
27620.9
27622.1
27623.3
27624.5
27625.7
27627
27628.2
27629.5
27630.9
27632.2
27633.6
27635
27636.4
27637.9
27639.4
27640.9
27642.5
27644
27645.6
27647.3
27648.9
27650.6
27652.4
27654.2
27656
27657.8
27659.7
27661.6
27663.5
27665.5
27667.5
27669.6
27671.7
27673.8
27676
27678.2
27680.5
27682.8
27685.1
27687.5
27689.9
27692.4
27694.9
27697.5
27700.1
27702.8
27705.5
27708.3
27711.1
27714
27716.9
27719.9
27723
27726.1
27729.2
27732.4
27735.7
27739
27742.4
27745.9
27749.4
27753
27756.6
27760.3
27764.1
27768
27771.9
27775.9
27780
27784.1
27788.3
27792.6
27797
27801.4
27805.9
27810.5
27815.2
27820
27824.8
27829.8
27834.8
27839.9
27845.1
27850.4
27855.8
27861.3
27866.9
27872.6
27878.3
27884.2
27890.2
27896.3
27902.5
27908.8
27915.2
27921.7
27928.3
27935
27941.9
27948.8
27955.9
27963.1
27970.4
27977.8
27985.4
27993.1
28000.9
28008.8
28016.9
28025.1
28033.4
28041.9
28050.5
28059.3
28068.2
28077.2
28086.4
28095.7
28105.1
28114.7
28124.5
28134.4
28144.5
28154.7
28165.1
28175.6
28186.3
28197.1
28208.1
28219.3
28230.7
28242.2
28253.8
28265.7
28277.7
28289.9
28302.3
28314.8
28327.5
28340.4
28353.5
28366.7
28380.2
28393.8
28407.6
28421.5
28435.7
28450.1
28464.6
28479.3
28494.2
28509.3
28524.6
28540.1
28555.7
28571.6
28587.6
28603.8
28620.2
28636.8
28653.6
28670.6
28687.7
28705.1
28722.6
28740.3
28758.2
28776.3
28794.5
28813
28831.6
28850.3
28869.3
28888.4
28907.7
28927.2
28946.8
28966.6
28986.5
29006.6
29026.9
29047.2
29067.8
29088.4
29109.2
29130.2
29151.2
29172.4
29193.7
29215.1
29236.6
29258.1
29279.8
29301.6
29323.4
29345.3
29367.2
29389.2
29411.3
29433.3
29455.4
29477.5
29499.7
29521.8
29543.9
29565.9
29587.9
29609.9
29631.8
29653.6
29675.4
29697
29718.5
29739.9
29761.2
29782.2
29803.1
29823.8
29844.3
29864.6
29884.6
29904.4
29923.8
29943
29961.9
29980.4
29998.5
30016.3
30033.6
30050.6
30067
30083
30098.5
30113.5
30128
30141.8
30155.1
30167.8
30179.8
30191.1
30201.7
30211.6
30220.8
30229.1
30236.7
30243.4
30249.3
30254.3
30258.3
30261.4
30263.5
30264.6
30264.7
30263.8
30261.7
30258.6
30254.3
30248.9
30242.3
30234.5
30225.5
30215.2
30203.7
30190.9
30176.9
30161.5
30144.8
30126.8
30107.5
30086.8
30064.7
30041.3
30016.5
29990.4
29962.9
29934
29903.8
29872.1
29839.2
29804.8
29769.1
29732.1
29693.7
29654
29612.9
29570.6
29526.9
29482
29435.8
29388.3
29339.6
29289.6
29238.4
29186
29132.4
29077.7
29021.8
28964.8
28906.6
28847.4
28787.1
28725.7
28663.3
28600
28535.6
28470.3
28404.1
28337
28269.1
28200.3
28130.8
28060.5
27989.5
27918
27845.8
27773.1
27699.9
27626.3
27552.3
27478
27403.5
27328.9
27254.1
27179.3
27104.6
27030.1
26955.8
26881.8
26808.3
26735.2
26662.8
26591
26520.1
26450
26380.9
26313
26246.1
26180.6
26116.4
26053.7
25992.6
25933.2
25875.4
25819.6
25765.7
25713.8
25664
25616.4
25571.2
25528.3
25487.9
25450
25414.7
25382.2
25352.4
25325.4
25301.4
25280.4
25262.3
25247.4
25235.6
25227.1
25221.7
25219.7
25221
25225.6
25233.6
25245
25259.8
25278
25299.6
25324.6
25353
25384.8
25419.8
25458.1
25499.6
25544.3
25592
25642.7
25696.3
25752.6
25811.6
25873.2
25937.1
26003.3
26071.6
26141.8
26213.8
26287.3
26362.3
26438.4
26515.5
26593.4
26671.9
26750.9
26830
26909.1
26988.1
27066.7
27144.7
27222
27298.3
27373.6
27447.7
27520.4
27591.6
27661.2
27729
27795
27859
27921.1
27981.1
28039
28094.8
28148.5
28199.9
28249.2
28296.4
28341.3
28384.2
28424.9
28463.6
28500.3
28535
28567.8
28598.8
28628
28655.5
28681.3
28705.7
28728.6
28750
28770.1
28789
28806.7
28823.2
28838.6
28853
28866.4
28878.8
28890.3
28901
28910.7
28919.5
28927.5
28934.5
28940.7
28946
28950.4
28953.8
28956.4
28958
28958.6
28958.3
28957
28954.7
28951.4
28947.2
28941.9
28935.7
28928.4
28920.1
28910.8
28900.5
28889.1
28876.6
28862.9
28848.1
28832
28814.7
28796.1
28776
28754.5
28731.5
28706.8
28680.4
28652.3
28622.3
28590.4
28556.4
28520.4
28482.2
28441.8
28399.1
28354.1
28306.7
28256.9
28204.6
28150
28092.9
28033.3
27971.4
27907.1
27840.6
27771.7
27700.7
27627.6
27552.6
27475.8
27397.2
27317.2
27235.9
27153.4
27070
26985.9
26901.3
26816.4
26731.4
26646.7
26562.5
26479
26396.4
26315.1
26235.3
26157.1
26081
26007
25935.5
25866.6
25800.6
25737.6
25677.8
25621.4
25568.5
25519.3
25473.9
25432.4
25394.9
25361.5
25332.3
25307.2
25286.4
25269.9
25257.6
25249.7
25246
25246.5
25251.3
25260.2
25273.3
25290.5
25311.6
25336.7
25365.6
25398.2
25434.5
25474.4
25517.7
25564.4
25614.2
25667.2
25723.2
25782
25843.6
25907.7
25974.4
26043.3
26114.4
26187.6
26262.7
26339.6
26418.1
26498.2
26579.5
26662.1
26745.7
26830.3
26915.6
27001.6
27088.1
27175
27262.1
27349.3
27436.5
27523.6
27610.4
27696.8
27782.8
27868.1
27952.8
28036.7
28119.8
28201.9
28283
28362.9
28441.7
28519.2
28595.4
28670.2
28743.6
28815.6
28886.1
28955
29022.4
29088.1
29152.2
29214.6
29275.4
29334.4
29391.6
29447.1
29500.8
29552.7
29602.8
29651
29697.4
29741.9
29784.5
29825.2
29864
29900.9
29935.9
29968.9
30000
30029.2
30056.4
30081.7
30105
30126.5
30146
30163.6
30179.2
30193.1
30205
30215.1
30223.4
30229.9
30234.6
30237.7
30239
30238.7
30236.7
30233.2
30228.1
30221.6
30213.6
30204.3
30193.5
30181.5
30168.2
30153.8
30138.1
30121.4
30103.6
30084.8
30065
30044.3
30022.7
30000.3
29977.1
29953.2
29928.6
29903.3
29877.3
29850.9
29823.8
29796.3
29768.3
29739.9
29711.1
29682
29652.5
29622.8
29592.8
29562.6
29532.3
29501.8
29471.2
29440.5
29409.8
29379
29348.3
29317.5
29286.9
29256.3
29225.8
29195.5
29165.3
29135.3
29105.4
29075.8
29046.4
29017.2
28988.3
28959.7
28931.3
28903.2
28875.4
28847.9
28820.8
28793.9
28767.4
28741.3
28715.5
28690
28664.9
28640.2
28615.8
28591.8
28568.2
28544.9
28522
28499.5
28477.4
28455.7
28434.3
28413.3
28392.7
28372.4
28352.5
28333
28313.9
28295.1
28276.7
28258.7
28241
28223.7
28206.7
28190.1
28173.8
28157.9
28142.3
28127
28112.1
28097.5
28083.2
28069.2
28055.6
28042.2
28029.2
28016.5
28004
27991.9
27980
27968.4
27957.1
27946
27935.3
27924.7
27914.5
27904.5
27894.7
27885.2
27875.9
27866.9
27858.1
27849.5
27841.1
27832.9
27825
27817.3
27809.7
27802.4
27795.2
27788.3
27781.5
27774.9
27768.5
27762.3
27756.2
27750.3
27744.6
27739
27733.6
27728.3
27723.2
27718.2
27713.3
27708.6
27704
27699.6
27695.3
27691.1
27687
27683.1
27679.2
27675.5
27671.9
27668.4
27664.9
27661.6
27658.4
27655.3
27652.3
27649.4
27646.5
27643.8
27641.1
27638.5
27636
27633.6
27631.2
27628.9
27626.7
27624.5
27622.5
27620.4
27618.5
27616.6
27614.8
27613
27611.3
27609.6
27608
27606.5
27605
27603.5
27602.1
27600.7
27599.4
27598.1
27596.9
27595.7
27594.6
27593.5
27592.4
27591.4
27590.4
27589.4
27588.5
27587.6
27586.7
27585.9
27585.1
27584.3
27583.5
27582.8
27582.1
27581.4
27580.8
27580.2
27579.6
27579
27578.5
27577.9
27577.4
27577
27576.5
27576.1
27575.6
27575.2
27574.8
27574.5
27574.1
27573.8
27573.5
27573.2
27572.9
27572.6
27572.4
27572.1
27571.9
27571.7
27571.5
27571.3
27571.2
27571
27570.9
27570.8
27570.7
27570.6
27570.5
27570.4
27570.4
27570.3
27570.3
27570.3
26834.5
26834.5
26834.5
26834.5
26834.5
26834.5
26834.5
26834.6
26834.6
26834.6
26834.6
26834.7
26834.7
26834.8
26834.8
26834.9
26834.9
26835
26835
26835.1
26835.2
26835.2
26835.3
26835.4
26835.5
26835.6
26835.7
26835.7
26835.8
26835.9
26836.1
26836.2
26836.3
26836.4
26836.5
26836.6
26836.8
26836.9
26837.1
26837.2
26837.3
26837.5
26837.7
26837.8
26838
26838.2
26838.3
26838.5
26838.7
26838.9
26839.1
26839.3
26839.5
26839.7
26839.9
26840.2
26840.4
26840.6
26840.9
26841.1
26841.4
26841.6
26841.9
26842.2
26842.4
26842.7
26843
26843.3
26843.6
26843.9
26844.3
26844.6
26844.9
26845.3
26845.6
26846
26846.3
26846.7
26847.1
26847.5
26847.9
26848.3
26848.7
26849.1
26849.5
26850
26850.4
26850.9
26851.4
26851.9
26852.3
26852.8
26853.4
26853.9
26854.4
26855
26855.5
26856.1
26856.7
26857.2
26857.8
26858.5
26859.1
26859.7
26860.4
26861
26861.7
26862.4
26863.1
26863.8
26864.6
26865.3
26866.1
26866.9
26867.7
26868.5
26869.3
26870.2
26871
26871.9
26872.8
26873.7
26874.7
26875.6
26876.6
26877.6
26878.6
26879.6
26880.7
26881.7
26882.8
26883.9
26885.1
26886.2
26887.4
26888.6
26889.8
26891.1
26892.4
26893.7
26895
26896.3
26897.7
26899.1
26900.5
26902
26903.5
26905
26906.6
26908.1
26909.7
26911.4
26913
26914.7
26916.5
26918.2
26920
26921.9
26923.7
26925.6
26927.6
26929.6
26931.6
26933.6
26935.7
26937.9
26940
26942.2
26944.5
26946.8
26949.1
26951.5
26954
26956.4
26959
26961.5
26964.2
26966.8
26969.5
26972.3
26975.1
26978
26980.9
26983.9
26986.9
26990
26993.2
26996.4
26999.7
27003
27006.4
27009.8
27013.3
27016.9
27020.6
27024.3
27028.1
27031.9
27035.8
27039.8
27043.9
27048
27052.2
27056.5
27060.9
27065.3
27069.8
27074.4
27079.1
27083.9
27088.7
27093.6
27098.7
27103.8
27109
27114.3
27119.6
27125.1
27130.7
27136.4
27142.1
27148
27154
27160.1
27166.2
27172.5
27178.9
27185.4
27192
27198.8
27205.6
27212.5
27219.6
27226.8
27234.1
27241.5
27249.1
27256.8
27264.6
27272.5
27280.6
27288.8
27297.1
27305.6
27314.2
27322.9
27331.8
27340.8
27350
27359.3
27368.7
27378.3
27388.1
27398
27408
27418.3
27428.6
27439.1
27449.8
27460.7
27471.7
27482.9
27494.2
27505.7
27517.4
27529.2
27541.2
27553.4
27565.8
27578.3
27591
27603.9
27617
27630.2
27643.6
27657.2
27671
27685
27699.2
27713.5
27728
27742.8
27757.7
27772.7
27788
27803.5
27819.1
27835
27851
27867.2
27883.7
27900.2
27917
27934
27951.2
27968.5
27986
28003.8
28021.7
28039.7
28058
28076.4
28095
28113.8
28132.8
28151.9
28171.2
28190.7
28210.3
28230.1
28250.1
28270.2
28290.5
28310.9
28331.4
28352.1
28372.9
28393.8
28414.9
28436.1
28457.4
28478.8
28500.3
28521.9
28543.6
28565.4
28587.3
28609.2
28631.2
28653.2
28675.3
28697.4
28719.5
28741.7
28763.8
28786
28808.1
28830.2
28852.3
28874.3
28896.3
28918.1
28939.9
28961.6
28983.2
29004.6
29025.9
29047.1
29068
29088.8
29109.4
29129.7
29149.8
29169.6
29189.2
29208.4
29227.3
29245.9
29264.1
29282
29299.4
29316.4
29333
29349.1
29364.7
29379.8
29394.3
29408.3
29421.6
29434.4
29446.5
29457.9
29468.7
29478.7
29487.9
29496.4
29504.1
29510.9
29516.8
29521.9
29526
29529.2
29531.4
29532.6
29532.8
29532
29530
29526.9
29522.7
29517.4
29510.8
29503.1
29494.1
29483.9
29472.5
29459.7
29445.7
29430.3
29413.7
29395.7
29376.3
29355.6
29333.6
29310.1
29285.4
29259.2
29231.6
29202.7
29172.4
29140.8
29107.7
29073.3
29037.6
29000.4
28962
28922.2
28881.1
28838.6
28794.9
28749.9
28703.5
28656
28607.1
28557.1
28505.8
28453.3
28399.6
28344.8
28288.7
28231.6
28173.3
28114
28053.6
27992.1
27929.6
27866.1
27801.6
27736.1
27669.8
27602.5
27534.4
27465.5
27395.8
27325.3
27254.2
27182.4
27110
27037.1
26963.7
26889.9
26815.6
26741.1
26666.4
26591.4
26516.4
26441.4
26366.4
26291.6
26217
26142.7
26068.9
25995.6
25922.8
25850.8
25779.6
25709.2
25639.9
25571.6
25504.5
25438.7
25374.3
25311.4
25250
25190.3
25132.3
25076.2
25022.1
24970
24920
24872.3
24826.8
24783.7
24743.2
24705.1
24669.7
24637
24607.1
24580
24555.9
24534.7
24516.6
24501.5
24489.7
24481
24475.6
24473.5
24474.7
24479.3
24487.2
24498.6
24513.4
24531.6
24553.2
24578.3
24606.7
24638.5
24673.6
24712
24753.7
24798.5
24846.3
24897.2
24951
25007.6
25066.9
25128.8
25193.1
25259.6
25328.3
25398.9
25471.3
25545.3
25620.7
25697.4
25775
25853.5
25932.5
26012
26091.7
26171.4
26250.9
26330.1
26408.6
26486.4
26563.3
26639.1
26713.7
26786.8
26858.5
26928.4
26996.7
27063
27127.4
27189.8
27250.1
27308.2
27364.2
27418
27469.6
27519
27566.2
27611.2
27654.1
27694.8
27733.4
27770
27804.6
27837.2
27868
27897.1
27924.4
27950.1
27974.2
27996.8
28018
28037.9
28056.6
28074
28090.3
28105.5
28119.7
28132.9
28145.2
28156.6
28167
28176.6
28185.4
28193.3
28200.3
28206.4
28211.7
28216
28219.5
28222
28223.6
28224.3
28224
28222.7
28220.5
28217.3
28213.1
28207.9
28201.7
28194.6
28186.4
28177.2
28167
28155.8
28143.4
28129.9
28115.3
28099.5
28082.4
28064
28044.1
28022.8
28000
27975.5
27949.4
27921.4
27891.6
27859.8
27826
27790.1
27752
27711.6
27668.9
27623.9
27576.5
27526.6
27474.3
27419.4
27362.2
27302.4
27240.2
27175.6
27108.7
27039.5
26968.1
26894.6
26819.1
26741.7
26662.7
26582.2
26500.3
26417.2
26333.2
26248.5
26163.3
26077.8
25992.3
25907
25822.2
25738.1
25655
25573.2
25492.8
25414.2
25337.6
25263.3
25191.3
25122.1
25055.7
24992.4
24932.3
24875.7
24822.6
24773.3
24727.7
24686.1
24648.6
24615.1
24585.8
24560.7
24539.9
24523.4
24511.2
24503.3
24499.7
24500.3
24505.2
24514.3
24527.5
24544.8
24566
24591.2
24620.3
24653.1
24689.6
24729.7
24773.2
24820
24870.1
24923.3
24979.5
25038.6
25100.4
25164.8
25231.7
25300.9
25372.4
25445.8
25521.2
25598.4
25677.2
25757.6
25839.2
25922.1
26006.1
26091
26176.7
26263
26349.8
26437
26524.4
26612
26699.5
26786.8
26873.9
26960.7
27046.9
27132.5
27217.5
27301.6
27384.9
27467.2
27548.5
27628.6
27707.6
27785.3
27861.6
27936.6
28010.2
28082.3
28152.9
28222
28289.4
28355.3
28419.5
28482
28542.9
28601.9
28659.3
28714.9
28768.6
28820.6
28870.7
28919
28965.5