/*--------------------------------*- C++ -*----------------------------------*\
| =========                 |                                                 |
| \\      /  F ield         | OpenFOAM: The Open Source CFD Toolbox           |
|  \\    /   O peration     | Version:  2412                                  |
|   \\  /    A nd           | Website:  www.openfoam.com                      |
|    \\/     M anipulation  |                                                 |
\*---------------------------------------------------------------------------*/
FoamFile
{
    version     2.0;
    format      ascii;
    arch        "LSB;label=32;scalar=64";
    class       volScalarField;
    location    "5.65";
    object      p;
}
// * * * * * * * * * * * * * * * * * * * * * * * * * * * * * * * * * * * * * //

dimensions      [1 -1 -2 0 0 0 0];

internalField   nonuniform List<scalar> 
6400
(
12135.3
12135.5
12135.6
12135.7
12135.7
12135.6
12135.3
12135
12134.5
12133.8
12133.1
12132.2
12131.2
12130.1
12128.8
12127.3
12125.6
12123.7
12121.5
12119.1
12116.4
12113.4
12110.1
12106.5
12102.5
12098.2
12093.5
12088.6
12083.4
12078.1
12072.6
12067.1
12061.8
12056.7
12051.9
12047.7
12044.2
12041.5
12039.6
12038.8
12039
12040.1
12042.3
12045.2
12049
12053.4
12058.3
12063.5
12068.9
12074.3
12079.7
12085
12090.1
12094.9
12099.4
12103.6
12107.5
12111
12114.2
12117.1
12119.7
12122
12124.1
12126
12127.6
12129.1
12130.4
12131.5
12132.5
12133.4
12134.1
12134.7
12135.3
12135.7
12135.9
12136.1
12136.1
12136.1
12135.9
12135.8
11517.1
11517.3
11517.4
11517.5
11517.4
11517.3
11517
11516.6
11516
11515.4
11514.6
11513.7
11512.6
11511.4
11510
11508.4
11506.6
11504.7
11502.5
11500
11497.3
11494.2
11490.9
11487.3
11483.4
11479.2
11474.8
11470.1
11465.1
11460.1
11454.9
11449.8
11444.9
11440.1
11435.8
11431.9
11428.7
11426.2
11424.6
11423.8
11424
11425
11427
11429.7
11433.1
11437.1
11441.6
11446.4
11451.4
11456.5
11461.6
11466.6
11471.4
11476.1
11480.4
11484.5
11488.3
11491.8
11495
11498
11500.6
11503
11505.2
11507.1
11508.8
11510.3
11511.7
11512.9
11514
11514.9
11515.7
11516.3
11516.9
11517.3
11517.6
11517.8
11517.9
11517.9
11517.7
11517.6
10898.9
10899.1
10899.3
10899.3
10899.2
10899
10898.7
10898.2
10897.6
10896.9
10896.1
10895.1
10894
10892.7
10891.2
10889.6
10887.8
10885.7
10883.5
10880.9
10878.2
10875.2
10871.9
10868.3
10864.5
10860.4
10856.1
10851.6
10846.9
10842.1
10837.3
10832.5
10827.9
10823.5
10819.5
10816
10813
10810.7
10809.2
10808.5
10808.7
10809.6
10811.4
10813.9
10817
10820.7
10824.8
10829.3
10834
10838.7
10843.5
10848.3
10852.9
10857.3
10861.6
10865.6
10869.3
10872.8
10876
10878.9
10881.6
10884
10886.2
10888.2
10890
10891.6
10893.1
10894.3
10895.5
10896.4
10897.3
10898
10898.6
10899
10899.4
10899.6
10899.7
10899.7
10899.6
10899.4
10280.8
10281
10281.2
10281.2
10281.1
10280.8
10280.5
10280
10279.4
10278.7
10277.8
10276.8
10275.6
10274.3
10272.7
10271.1
10269.2
10267.1
10264.8
10262.2
10259.4
10256.4
10253.1
10249.6
10245.9
10241.9
10237.7
10233.3
10228.8
10224.2
10219.6
10215
10210.6
10206.4
10202.6
10199.2
10196.4
10194.3
10192.8
10192.2
10192.3
10193.2
10194.9
10197.2
10200.2
10203.7
10207.6
10211.9
10216.3
10220.9
10225.5
10230.1
10234.6
10238.9
10243
10246.9
10250.6
10254
10257.2
10260.2
10262.9
10265.4
10267.6
10269.7
10271.5
10273.2
10274.7
10276
10277.1
10278.2
10279
10279.8
10280.4
10280.9
10281.3
10281.5
10281.6
10281.6
10281.5
10281.3
9662.85
9663.08
9663.23
9663.22
9663.09
9662.84
9662.46
9661.96
9661.33
9660.56
9659.65
9658.59
9657.37
9655.99
9654.44
9652.7
9650.78
9648.65
9646.31
9643.75
9640.96
9637.94
9634.69
9631.2
9627.49
9623.56
9619.44
9615.16
9610.75
9606.26
9601.75
9597.31
9593
9588.94
9585.21
9581.93
9579.18
9577.07
9575.66
9575
9575.12
9576.02
9577.65
9579.96
9582.88
9586.3
9590.13
9594.26
9598.6
9603.06
9607.55
9612.01
9616.38
9620.6
9624.65
9628.51
9632.15
9635.56
9638.74
9641.69
9644.42
9646.92
9649.21
9651.29
9653.18
9654.88
9656.41
9657.77
9658.98
9660.03
9660.94
9661.71
9662.36
9662.87
9663.26
9663.53
9663.68
9663.7
9663.57
9663.36
9045.04
9045.27
9045.4
9045.38
9045.23
9044.96
9044.56
9044.03
9043.37
9042.58
9041.64
9040.55
9039.31
9037.89
9036.31
9034.54
9032.59
9030.43
9028.08
9025.5
9022.71
9019.7
9016.46
9013
9009.32
9005.44
9001.37
8997.14
8992.79
8988.35
8983.89
8979.48
8975.2
8971.13
8967.39
8964.09
8961.32
8959.17
8957.74
8957.07
8957.19
8958.1
8959.76
8962.09
8965.03
8968.47
8972.3
8976.43
8980.74
8985.16
8989.6
8994.01
8998.32
9002.49
9006.5
9010.31
9013.92
9017.31
9020.49
9023.44
9026.17
9028.69
9031
9033.12
9035.04
9036.77
9038.33
9039.73
9040.96
9042.04
9042.98
9043.78
9044.44
9044.98
9045.39
9045.68
9045.85
9045.89
9045.78
9045.57
8427.4
8427.6
8427.71
8427.67
8427.49
8427.2
8426.78
8426.23
8425.56
8424.74
8423.78
8422.67
8421.4
8419.97
8418.36
8416.57
8414.6
8412.42
8410.05
8407.47
8404.68
8401.67
8398.45
8395.01
8391.35
8387.5
8383.45
8379.25
8374.9
8370.46
8365.98
8361.52
8357.16
8353.01
8349.15
8345.73
8342.84
8340.59
8339.09
8338.38
8338.51
8339.46
8341.19
8343.64
8346.7
8350.26
8354.19
8358.4
8362.78
8367.23
8371.69
8376.09
8380.39
8384.54
8388.52
8392.32
8395.91
8399.28
8402.45
8405.4
8408.14
8410.67
8413
8415.13
8417.07
8418.83
8420.42
8421.84
8423.1
8424.2
8425.16
8425.98
8426.66
8427.22
8427.65
8427.96
8428.16
8428.22
8428.14
8427.96
7809.93
7810.1
7810.16
7810.08
7809.88
7809.56
7809.13
7808.57
7807.88
7807.05
7806.08
7804.95
7803.67
7802.21
7800.59
7798.78
7796.79
7794.61
7792.23
7789.65
7786.86
7783.86
7780.64
7777.22
7773.58
7769.73
7765.69
7761.48
7757.1
7752.61
7748.03
7743.45
7738.93
7734.57
7730.5
7726.84
7723.73
7721.3
7719.66
7718.89
7719.03
7720.06
7721.95
7724.59
7727.87
7731.66
7735.82
7740.22
7744.74
7749.3
7753.83
7758.28
7762.6
7766.75
7770.73
7774.51
7778.09
7781.46
7784.62
7787.56
7790.3
7792.84
7795.18
7797.33
7799.29
7801.07
7802.67
7804.11
7805.38
7806.5
7807.48
7808.31
7809
7809.57
7810.02
7810.36
7810.58
7810.69
7810.65
7810.52
7192.63
7192.73
7192.73
7192.61
7192.39
7192.05
7191.6
7191.04
7190.34
7189.5
7188.52
7187.39
7186.09
7184.63
7182.99
7181.18
7179.18
7176.99
7174.61
7172.03
7169.24
7166.25
7163.05
7159.63
7156
7152.16
7148.1
7143.85
7139.41
7134.81
7130.09
7125.3
7120.52
7115.85
7111.42
7107.4
7103.95
7101.24
7099.4
7098.53
7098.68
7099.85
7101.97
7104.92
7108.56
7112.71
7117.21
7121.91
7126.67
7131.42
7136.08
7140.6
7144.97
7149.15
7153.14
7156.92
7160.48
7163.84
7166.99
7169.93
7172.67
7175.21
7177.55
7179.71
7181.68
7183.47
7185.09
7186.53
7187.82
7188.95
7189.93
7190.77
7191.47
7192.05
7192.51
7192.87
7193.12
7193.27
7193.3
7193.24
6575.49
6575.5
6575.43
6575.26
6575
6574.65
6574.2
6573.63
6572.94
6572.11
6571.13
6569.99
6568.69
6567.22
6565.58
6563.76
6561.76
6559.57
6557.18
6554.61
6551.83
6548.85
6545.66
6542.25
6538.63
6534.78
6530.71
6526.4
6521.87
6517.13
6512.2
6507.13
6501.98
6496.86
6491.94
6487.4
6483.45
6480.32
6478.18
6477.17
6477.36
6478.72
6481.17
6484.58
6488.73
6493.4
6498.39
6503.51
6508.62
6513.62
6518.46
6523.1
6527.54
6531.76
6535.75
6539.53
6543.09
6546.43
6549.57
6552.5
6555.23
6557.76
6560.11
6562.27
6564.24
6566.04
6567.66
6569.12
6570.41
6571.54
6572.52
6573.35
6574.06
6574.64
6575.11
6575.48
6575.77
6575.97
6576.08
6576.11
5958.47
5958.37
5958.21
5957.99
5957.71
5957.36
5956.92
5956.36
5955.68
5954.86
5953.89
5952.76
5951.46
5949.99
5948.35
5946.53
5944.53
5942.34
5939.96
5937.4
5934.63
5931.67
5928.5
5925.11
5921.49
5917.64
5913.54
5909.18
5904.54
5899.63
5894.44
5889.01
5883.37
5877.66
5872.04
5866.77
5862.12
5858.4
5855.84
5854.63
5854.85
5856.5
5859.44
5863.47
5868.34
5873.74
5879.39
5885.08
5890.63
5895.96
5901.03
5905.82
5910.34
5914.59
5918.6
5922.38
5925.92
5929.25
5932.37
5935.28
5938
5940.52
5942.86
5945.02
5947
5948.79
5950.42
5951.87
5953.16
5954.28
5955.25
5956.08
5956.77
5957.34
5957.81
5958.19
5958.5
5958.76
5958.96
5959.1
5341.54
5341.32
5341.05
5340.78
5340.5
5340.16
5339.74
5339.22
5338.57
5337.77
5336.82
5335.71
5334.42
5332.96
5331.32
5329.5
5327.5
5325.32
5322.96
5320.41
5317.66
5314.72
5311.58
5308.21
5304.61
5300.77
5296.65
5292.24
5287.5
5282.41
5276.93
5271.05
5264.82
5258.32
5251.76
5245.47
5239.84
5235.26
5232.11
5230.62
5230.91
5232.95
5236.57
5241.5
5247.35
5253.73
5260.27
5266.68
5272.78
5278.51
5283.84
5288.79
5293.39
5297.69
5301.7
5305.46
5308.99
5312.29
5315.39
5318.28
5320.98
5323.5
5325.83
5327.98
5329.95
5331.74
5333.36
5334.81
5336.09
5337.2
5338.15
5338.95
5339.61
5340.16
5340.6
5340.97
5341.29
5341.6
5341.92
5342.19
4724.68
4724.3
4723.91
4723.61
4723.33
4723.03
4722.66
4722.19
4721.59
4720.84
4719.92
4718.83
4717.56
4716.11
4714.48
4712.67
4710.68
4708.52
4706.17
4703.64
4700.92
4698.01
4694.9
4691.58
4688.02
4684.2
4680.1
4675.66
4670.84
4665.58
4659.8
4653.44
4646.48
4638.98
4631.16
4623.47
4616.45
4610.68
4606.68
4604.8
4605.19
4607.8
4612.39
4618.55
4625.76
4633.46
4641.15
4648.46
4655.21
4661.36
4666.96
4672.06
4676.74
4681.05
4685.06
4688.8
4692.29
4695.57
4698.64
4701.51
4704.19
4706.68
4709
4711.14
4713.11
4714.9
4716.51
4717.95
4719.21
4720.3
4721.22
4721.98
4722.59
4723.08
4723.48
4723.81
4724.12
4724.47
4724.91
4725.33
4107.81
4107.24
4106.73
4106.41
4106.18
4105.96
4105.68
4105.29
4104.76
4104.07
4103.19
4102.13
4100.88
4099.45
4097.82
4096.02
4094.05
4091.89
4089.57
4087.06
4084.38
4081.52
4078.46
4075.19
4071.69
4067.94
4063.89
4059.48
4054.64
4049.27
4043.24
4036.41
4028.63
4019.88
4010.39
4000.78
3991.83
3984.4
3979.22
3976.79
3977.33
3980.77
3986.72
3994.62
4003.71
4013.18
4022.35
4030.72
4038.15
4044.71
4050.52
4055.72
4060.42
4064.71
4068.68
4072.37
4075.82
4079.05
4082.08
4084.92
4087.58
4090.06
4092.36
4094.5
4096.46
4098.24
4099.85
4101.27
4102.52
4103.57
4104.45
4105.16
4105.7
4106.11
4106.41
4106.67
4106.93
4107.3
4107.86
4108.48
3490.82
3490.05
3489.43
3489.14
3489.02
3488.93
3488.78
3488.51
3488.07
3487.44
3486.61
3485.58
3484.35
3482.92
3481.31
3479.51
3477.54
3475.4
3473.09
3470.61
3467.97
3465.16
3462.17
3458.98
3455.58
3451.94
3448
3443.71
3438.96
3433.61
3427.45
3420.23
3411.62
3401.37
3389.73
3377.55
3365.96
3356.21
3349.41
3346.2
3346.96
3351.56
3359.45
3369.77
3381.44
3393.31
3404.33
3413.91
3421.97
3428.81
3434.7
3439.87
3444.48
3448.67
3452.53
3456.13
3459.51
3462.68
3465.66
3468.46
3471.09
3473.55
3475.84
3477.97
3479.93
3481.71
3483.32
3484.74
3485.96
3487
3487.83
3488.47
3488.92
3489.21
3489.38
3489.5
3489.66
3489.99
3490.67
3491.51
2873.53
2872.56
2871.89
2871.74
2871.84
2871.96
2872
2871.87
2871.53
2870.97
2870.18
2869.17
2867.94
2866.51
2864.88
2863.08
2861.1
2858.96
2856.66
2854.2
2851.6
2848.85
2845.94
2842.86
2839.59
2836.1
2832.36
2828.29
2823.79
2818.66
2812.61
2805.25
2795.93
2783.99
2769.56
2753.95
2738.68
2725.66
2716.54
2712.17
2713.19
2719.47
2730.11
2743.9
2759.24
2774.35
2787.76
2798.62
2807.11
2813.95
2819.68
2824.61
2828.97
2832.94
2836.6
2840.05
2843.31
2846.39
2849.3
2852.05
2854.64
2857.08
2859.37
2861.5
2863.46
2865.26
2866.87
2868.29
2869.52
2870.53
2871.32
2871.88
2872.23
2872.37
2872.35
2872.26
2872.2
2872.41
2873.18
2874.23
2255.69
2254.59
2253.96
2254.12
2254.59
2255.05
2255.34
2255.39
2255.17
2254.67
2253.91
2252.89
2251.65
2250.19
2248.53
2246.7
2244.7
2242.55
2240.25
2237.82
2235.26
2232.57
2229.76
2226.82
2223.72
2220.46
2217
2213.3
2209.28
2204.7
2199.24
2192.36
2182.91
2169.08
2150.6
2129.78
2108.78
2090.7
2078.02
2071.71
2072.96
2081.74
2096.57
2115.76
2136.93
2157.11
2173.93
2186.03
2194.31
2200.58
2205.71
2210.09
2213.98
2217.55
2220.92
2224.13
2227.23
2230.19
2233
2235.68
2238.22
2240.63
2242.91
2245.04
2247.02
2248.84
2250.48
2251.92
2253.16
2254.16
2254.92
2255.42
2255.64
2255.59
2255.31
2254.89
2254.47
2254.41
2255.18
2256.4
1637.04
1635.78
1635.33
1636.07
1637.15
1638.1
1638.74
1639.02
1638.93
1638.49
1637.74
1636.71
1635.44
1633.95
1632.27
1630.42
1628.42
1626.28
1624.01
1621.63
1619.15
1616.59
1613.94
1611.21
1608.38
1605.43
1602.4
1599.31
1596.13
1592.72
1588.84
1584.17
1576.5
1560.57
1534.66
1504.66
1474.32
1448.61
1431.4
1422.3
1423.69
1435.96
1456.6
1483.93
1514.79
1544.1
1566.7
1579.33
1585.36
1589.65
1593.42
1596.78
1599.88
1602.84
1605.74
1608.64
1611.53
1614.33
1616.99
1619.54
1621.99
1624.34
1626.58
1628.7
1630.68
1632.51
1634.17
1635.64
1636.9
1637.91
1638.65
1639.08
1639.16
1638.88
1638.25
1637.33
1636.32
1635.72
1636.36
1637.77
1015.68
1014.7
1015.48
1017.59
1019.78
1021.5
1022.62
1023.16
1023.2
1022.81
1022.05
1021
1019.69
1018.17
1016.46
1014.6
1012.6
1010.48
1008.25
1005.93
1003.54
1001.1
998.624
996.106
993.529
990.85
988.153
985.644
983.432
981.491
980.015
979.369
976.112
958.731
922.775
883.241
846.516
825.107
817.13
811.524
812.165
820.277
833.56
858.234
896.792
936.719
965.507
977.431
978.605
979.538
981.498
983.698
985.994
988.343
990.8
993.468
996.263
998.966
1001.49
1003.91
1006.26
1008.55
1010.75
1012.85
1014.83
1016.68
1018.36
1019.87
1021.16
1022.2
1022.93
1023.31
1023.26
1022.71
1021.59
1019.9
1017.78
1015.8
1015.23
1016.46
381.767
388.182
395.22
401.084
405.43
408.395
410.255
411.255
411.593
411.417
410.844
409.957
408.824
407.493
406.006
404.395
402.682
400.889
399.028
397.107
395.147
393.155
391.134
389.082
386.956
384.642
382.167
379.712
377.438
375.318
373.751
373.83
372.78
368.862
382.195
409.184
426.041
441.898
458.193
463.282
462.63
457.211
443.461
427.049
406.481
376.279
365.82
372.779
372.593
373.222
375.445
377.779
380.085
382.296
384.495
386.85
389.239
391.448
393.438
395.352
397.252
399.129
400.962
402.736
404.432
406.027
407.498
408.811
409.928
410.797
411.354
411.514
411.163
410.151
408.286
405.33
401.021
395.212
388.319
382.257
23.8799
31.7248
37.849
42.1672
45.0803
46.982
48.1741
48.8585
49.1701
49.2006
49.0154
48.6607
48.1716
47.5757
46.8954
46.1489
45.3517
44.5154
43.6455
42.7457
41.812
40.8355
39.8336
38.7917
37.7189
36.6251
35.4345
33.793
31.8478
29.6654
27.4574
25.7761
24.2659
37.447
109.598
200.042
259.6
300.584
327.074
338.246
337.104
323.986
294.887
248.434
179.729
83.1746
26.7847
24.492
26.2384
27.9744
30.1237
32.1168
33.8981
35.557
37.0733
38.3301
39.1893
40.0328
40.9334
41.8452
42.747
43.6313
44.4869
45.3102
46.0931
46.8257
47.4938
48.0779
48.5562
48.901
49.0772
49.0377
48.7191
48.0286
46.8324
44.9306
42.02
37.7009
31.5942
23.8575
-10.547
-10.5464
-10.5464
-10.5465
-10.5466
-10.5466
-10.5466
-10.5467
-10.5467
-10.5467
-10.5466
-10.5465
-10.5463
-10.546
-10.5456
-10.5448
-10.543
-10.5393
-10.535
-10.5277
-10.5293
-10.5509
-10.5526
-10.5493
-10.4895
-10.2757
-9.91999
-9.94036
-10.0944
-10.1305
-9.90255
-8.86221
-6.78332
0.203797
21.8743
81.7237
135.268
170.489
192.143
197.854
197.116
189.894
166.14
126.312
63.7527
12.8363
-3.39998
-7.2361
-8.80321
-9.84303
-10.1866
-10.29
-10.2191
-9.98371
-9.73669
-9.75904
-10.2193
-10.4995
-10.5626
-10.5592
-10.5514
-10.5421
-10.539
-10.5396
-10.5415
-10.542
-10.5419
-10.5415
-10.5412
-10.5411
-10.5411
-10.5411
-10.5412
-10.5412
-10.5413
-10.5413
-10.5414
-10.5413
-10.5413
-10.5419
-11.0368
-11.0368
-11.0369
-11.0369
-11.0369
-11.037
-11.037
-11.037
-11.037
-11.037
-11.0369
-11.0368
-11.0366
-11.0362
-11.0355
-11.0343
-11.0325
-11.0288
-11.0238
-11.0241
-11.0302
-11.0384
-11.0353
-11.0349
-11.024
-10.9777
-10.8031
-10.6605
-10.6477
-10.6549
-10.5449
-10.1149
-9.37351
-8.58207
-5.91239
8.2337
21.6489
31.9609
46.4836
42.0251
41.5311
44.6392
32.0593
21.8968
4.4208
-8.19492
-8.77035
-9.40172
-10.0762
-10.6268
-10.7447
-10.7477
-10.7136
-10.6358
-10.6091
-10.7597
-10.9735
-11.0323
-11.0448
-11.0359
-11.0362
-11.0308
-11.0308
-11.0317
-11.0323
-11.0323
-11.0322
-11.0319
-11.0317
-11.0315
-11.0315
-11.0315
-11.0315
-11.0315
-11.0316
-11.0316
-11.0316
-11.0317
-11.0317
-11.0316
-11.5273
-11.5272
-11.5272
-11.5273
-11.5273
-11.5273
-11.5274
-11.5274
-11.5274
-11.5275
-11.5274
-11.5274
-11.5272
-11.527
-11.5267
-11.5259
-11.524
-11.5207
-11.5168
-11.5173
-11.5235
-11.5302
-11.5321
-11.5314
-11.5251
-11.5163
-11.4558
-11.3494
-11.2992
-11.2963
-11.3063
-11.2464
-11.1481
-11.1671
-11.4055
-11.4184
-11.4321
-11.4551
-4.78399
-8.38519
-8.62015
-6.19511
-11.5056
-11.505
-11.5053
-11.4649
-11.1069
-11.0456
-11.165
-11.364
-11.3524
-11.3287
-11.3298
-11.3043
-11.3351
-11.4465
-11.5306
-11.5511
-11.5447
-11.5408
-11.5329
-11.524
-11.52
-11.5202
-11.522
-11.523
-11.5231
-11.5226
-11.5222
-11.522
-11.5219
-11.5219
-11.5219
-11.5219
-11.522
-11.522
-11.5221
-11.5221
-11.5221
-11.5222
-12.0177
-12.0176
-12.0176
-12.0177
-12.0177
-12.0178
-12.0178
-12.0179
-12.018
-12.018
-12.0181
-12.0181
-12.0181
-12.018
-12.0179
-12.0176
-12.0166
-12.0148
-12.0136
-12.0146
-12.0164
-12.0223
-12.0192
-12.0129
-12.0136
-12.0178
-12.0135
-11.985
-11.9633
-11.9638
-11.9759
-12
-12.0253
-12.0785
-12.009
-11.9341
-11.9194
-11.9459
-12.006
-11.9958
-11.9909
-11.9956
-11.9952
-11.995
-11.9942
-11.9961
-12.0667
-12.0079
-11.9944
-11.9739
-11.9628
-11.9668
-11.9823
-11.963
-11.9803
-12.0311
-12.0463
-12.0467
-12.0409
-12.035
-12.0271
-12.0198
-12.0138
-12.013
-12.0138
-12.014
-12.0135
-12.013
-12.0126
-12.0125
-12.0124
-12.0124
-12.0124
-12.0124
-12.0125
-12.0125
-12.0126
-12.0126
-12.0126
-12.0127
-12.508
-12.508
-12.508
-12.5081
-12.5081
-12.5082
-12.5083
-12.5083
-12.5085
-12.5086
-12.5087
-12.5089
-12.509
-12.5091
-12.5091
-12.5091
-12.5089
-12.5096
-12.511
-12.5088
-12.51
-12.5167
-12.5021
-12.4899
-12.4981
-12.5072
-12.5131
-12.5134
-12.4954
-12.4926
-12.4917
-12.4882
-12.4893
-12.4943
-12.4913
-12.4796
-12.4707
-12.474
-12.4868
-12.4837
-12.4854
-12.486
-12.4867
-12.4863
-12.4849
-12.4818
-12.4883
-12.4905
-12.4855
-12.4884
-12.4949
-12.4981
-12.5058
-12.5198
-12.5389
-12.5448
-12.5454
-12.5443
-12.5408
-12.5247
-12.518
-12.5182
-12.5144
-12.5076
-12.505
-12.5049
-12.5046
-12.5038
-12.5032
-12.503
-12.5029
-12.5029
-12.5029
-12.503
-12.503
-12.5031
-12.5031
-12.5032
-12.5032
-12.5032
-12.9984
-12.9984
-12.9984
-12.9985
-12.9985
-12.9986
-12.9987
-12.9988
-12.999
-12.9992
-12.9995
-12.9998
-13.0001
-13.0005
-13.0009
-13.0013
-13.0018
-13.0021
-13.0021
-13.0057
-13.0127
-13.0016
-12.9864
-12.9888
-12.9967
-12.9994
-12.9984
-12.9938
-12.9881
-12.9845
-12.9827
-12.982
-12.9822
-12.9833
-12.9844
-12.9862
-12.9903
-12.9828
-12.9803
-12.9786
-12.9777
-12.9791
-12.9795
-12.9788
-12.9775
-12.9767
-12.9762
-12.9768
-12.9772
-12.9767
-12.9828
-12.9962
-13.0075
-13.019
-13.0312
-13.0374
-13.0327
-13.02
-12.997
-12.9897
-13.0012
-13.0068
-13.0122
-13.0064
-12.9989
-12.9964
-12.9959
-12.9951
-12.9942
-12.9938
-12.9937
-12.9936
-12.9936
-12.9937
-12.9937
-12.9937
-12.9938
-12.9938
-12.9938
-12.9939
-13.4888
-13.4888
-13.4888
-13.4889
-13.4889
-13.489
-13.4891
-13.4893
-13.4895
-13.4898
-13.4901
-13.4906
-13.4913
-13.4921
-13.4931
-13.4944
-13.4959
-13.4961
-13.4952
-13.4996
-13.5107
-13.5155
-13.512
-13.5128
-13.5102
-13.504
-13.4955
-13.4865
-13.4802
-13.4766
-13.4745
-13.4736
-13.4736
-13.4739
-13.4738
-13.4742
-13.4751
-13.4753
-13.4739
-13.4723
-13.471
-13.4715
-13.4711
-13.4699
-13.4685
-13.4666
-13.4663
-13.467
-13.4681
-13.4699
-13.4752
-13.485
-13.4973
-13.5126
-13.5299
-13.5434
-13.5465
-13.5371
-13.5168
-13.4974
-13.4852
-13.4847
-13.5012
-13.5042
-13.4941
-13.4887
-13.4873
-13.4865
-13.4854
-13.4848
-13.4846
-13.4845
-13.4844
-13.4844
-13.4845
-13.4845
-13.4845
-13.4845
-13.4846
-13.4846
-13.9792
-13.9792
-13.9792
-13.9793
-13.9793
-13.9794
-13.9795
-13.9797
-13.98
-13.9803
-13.9807
-13.9814
-13.9823
-13.9835
-13.9852
-13.9878
-13.9914
-13.9929
-13.9916
-13.9982
-14.0189
-14.0409
-14.0502
-14.0482
-14.0357
-14.0173
-13.9993
-13.9854
-13.9765
-13.9713
-13.9683
-13.9667
-13.9661
-13.9659
-13.9658
-13.9659
-13.9659
-13.9657
-13.9655
-13.9643
-13.9633
-13.9632
-13.9624
-13.9616
-13.9607
-13.9597
-13.9593
-13.9599
-13.9615
-13.9645
-13.9707
-13.9822
-13.9996
-14.0227
-14.0488
-14.07
-14.0773
-14.0673
-14.0416
-14.0074
-13.9799
-13.9727
-13.985
-13.9975
-13.9888
-13.9817
-13.979
-13.9779
-13.9767
-13.9759
-13.9756
-13.9754
-13.9753
-13.9753
-13.9753
-13.9753
-13.9753
-13.9753
-13.9753
-13.9753
-14.4696
-14.4696
-14.4696
-14.4696
-14.4697
-14.4698
-14.4699
-14.4701
-14.4703
-14.4707
-14.4712
-14.4719
-14.4729
-14.4743
-14.4764
-14.4803
-14.4855
-14.4892
-14.4926
-14.51
-14.547
-14.5851
-14.6039
-14.5992
-14.5746
-14.5406
-14.5095
-14.4876
-14.4745
-14.4669
-14.4625
-14.46
-14.4586
-14.4577
-14.4573
-14.4573
-14.4574
-14.4574
-14.4569
-14.4563
-14.4554
-14.4549
-14.4542
-14.4535
-14.4528
-14.4523
-14.4524
-14.4534
-14.4557
-14.4601
-14.4683
-14.4831
-14.5068
-14.5399
-14.5781
-14.6097
-14.6216
-14.61
-14.576
-14.5297
-14.4864
-14.4682
-14.4758
-14.4888
-14.4813
-14.4732
-14.4702
-14.4691
-14.4679
-14.4671
-14.4667
-14.4665
-14.4663
-14.4662
-14.4662
-14.4662
-14.4661
-14.4661
-14.4661
-14.4661
-14.96
-14.96
-14.96
-14.96
-14.9601
-14.9602
-14.9603
-14.9604
-14.9607
-14.961
-14.9614
-14.9621
-14.9631
-14.9645
-14.9668
-14.9709
-14.9762
-14.982
-14.9951
-15.0305
-15.0871
-15.1381
-15.1619
-15.153
-15.1165
-15.0667
-15.0219
-14.9913
-14.9733
-14.9631
-14.9572
-14.9537
-14.9516
-14.9502
-14.9493
-14.9487
-14.9484
-14.9483
-14.9483
-14.9479
-14.9472
-14.9467
-14.9461
-14.9456
-14.9453
-14.9454
-14.9461
-14.9478
-14.9509
-14.9566
-14.9673
-14.9864
-15.0173
-15.0619
-15.1143
-15.1575
-15.1743
-15.1596
-15.1173
-15.0605
-15.0031
-14.975
-14.9753
-14.9773
-14.9711
-14.9647
-14.9614
-14.9602
-14.9591
-14.9584
-14.9579
-14.9576
-14.9574
-14.9572
-14.9571
-14.9571
-14.957
-14.957
-14.957
-14.957
-15.4503
-15.4503
-15.4504
-15.4504
-15.4504
-15.4505
-15.4506
-15.4507
-15.4509
-15.4512
-15.4515
-15.4521
-15.4529
-15.454
-15.4561
-15.4598
-15.4637
-15.4698
-15.4923
-15.5448
-15.6171
-15.6765
-15.7027
-15.6904
-15.6443
-15.5827
-15.5283
-15.4917
-15.4705
-15.4585
-15.4515
-15.4472
-15.4444
-15.4426
-15.4414
-15.4406
-15.4401
-15.44
-15.4399
-15.4396
-15.439
-15.4386
-15.4382
-15.4379
-15.438
-15.4386
-15.4398
-15.4421
-15.446
-15.4528
-15.4655
-15.4876
-15.5239
-15.5776
-15.6419
-15.6943
-15.7141
-15.6966
-15.648
-15.5834
-15.5174
-15.485
-15.4785
-15.4647
-15.4591
-15.4565
-15.4531
-15.4515
-15.4504
-15.4496
-15.4491
-15.4487
-15.4484
-15.4482
-15.4481
-15.448
-15.4479
-15.4479
-15.4479
-15.4478
-15.9407
-15.9407
-15.9407
-15.9408
-15.9408
-15.9408
-15.9409
-15.941
-15.9411
-15.9413
-15.9415
-15.9419
-15.9423
-15.943
-15.9444
-15.9471
-15.9502
-15.9557
-15.9811
-16.0418
-16.121
-16.1833
-16.2091
-16.1941
-16.1432
-16.0783
-16.0229
-15.9859
-15.9647
-15.9524
-15.9449
-15.9402
-15.9371
-15.935
-15.9335
-15.9325
-15.9318
-15.9317
-15.9316
-15.9313
-15.9309
-15.9306
-15.9303
-15.9303
-15.9307
-15.9317
-15.9333
-15.936
-15.9404
-15.9478
-15.9609
-15.9833
-16.0204
-16.0765
-16.1457
-16.2018
-16.2226
-16.2035
-16.1527
-16.0836
-16.0123
-15.9792
-15.9699
-15.957
-15.951
-15.9488
-15.9452
-15.9431
-15.9418
-15.9409
-15.9403
-15.9398
-15.9395
-15.9392
-15.939
-15.9389
-15.9388
-15.9388
-15.9387
-15.9387
-16.4311
-16.4311
-16.4311
-16.4311
-16.4311
-16.4312
-16.4312
-16.4312
-16.4313
-16.4314
-16.4315
-16.4316
-16.4318
-16.432
-16.4324
-16.4339
-16.4372
-16.4434
-16.4641
-16.5188
-16.5938
-16.653
-16.6765
-16.66
-16.6124
-16.5548
-16.5064
-16.4742
-16.4557
-16.4444
-16.4372
-16.4326
-16.4294
-16.4271
-16.4255
-16.4244
-16.4236
-16.4234
-16.4232
-16.4231
-16.4227
-16.4225
-16.4224
-16.4226
-16.4233
-16.4245
-16.4263
-16.4293
-16.4338
-16.441
-16.4534
-16.4724
-16.5054
-16.5557
-16.6194
-16.6726
-16.6932
-16.6746
-16.6256
-16.5568
-16.4887
-16.4596
-16.4531
-16.4482
-16.4449
-16.4412
-16.4371
-16.4347
-16.4332
-16.4321
-16.4314
-16.4309
-16.4305
-16.4302
-16.43
-16.4299
-16.4297
-16.4297
-16.4296
-16.4296
-16.9215
-16.9215
-16.9215
-16.9215
-16.9215
-16.9215
-16.9215
-16.9215
-16.9215
-16.9215
-16.9215
-16.9214
-16.9214
-16.9214
-16.9213
-16.9217
-16.9248
-16.9326
-16.9457
-16.9839
-17.0406
-17.0879
-17.1056
-17.0942
-17.0605
-17.0189
-16.9834
-16.9589
-16.9442
-16.9349
-16.9286
-16.9243
-16.9212
-16.919
-16.9174
-16.9162
-16.9154
-16.915
-16.9149
-16.9147
-16.9145
-16.9144
-16.9144
-16.9148
-16.9156
-16.9169
-16.9189
-16.9218
-16.9262
-16.9326
-16.9428
-16.9584
-16.9832
-17.0202
-17.0673
-17.1084
-17.1248
-17.1101
-17.0682
-17.0105
-16.9622
-16.9433
-16.9399
-16.9383
-16.9358
-16.9318
-16.9282
-16.9259
-16.9244
-16.9233
-16.9225
-16.9219
-16.9215
-16.9212
-16.9209
-16.9208
-16.9206
-16.9205
-16.9205
-16.9205
-17.4119
-17.4119
-17.4119
-17.4119
-17.4119
-17.4118
-17.4118
-17.4118
-17.4117
-17.4117
-17.4116
-17.4115
-17.4113
-17.4111
-17.411
-17.411
-17.4128
-17.419
-17.4291
-17.4501
-17.4841
-17.5154
-17.5298
-17.5266
-17.5077
-17.482
-17.4589
-17.4424
-17.4317
-17.4244
-17.4192
-17.4154
-17.4126
-17.4106
-17.409
-17.4079
-17.407
-17.4066
-17.4064
-17.4063
-17.4061
-17.4061
-17.4062
-17.4067
-17.4076
-17.409
-17.4109
-17.4137
-17.4176
-17.4232
-17.4314
-17.4432
-17.46
-17.4831
-17.5104
-17.5327
-17.5382
-17.5287
-17.5011
-17.4666
-17.4411
-17.4328
-17.4296
-17.4275
-17.4246
-17.4214
-17.4187
-17.4168
-17.4153
-17.4143
-17.4135
-17.4129
-17.4124
-17.4121
-17.4118
-17.4116
-17.4115
-17.4114
-17.4113
-17.4113
-17.9023
-17.9023
-17.9023
-17.9023
-17.9022
-17.9022
-17.9021
-17.9021
-17.902
-17.9019
-17.9018
-17.9016
-17.9014
-17.9012
-17.9011
-17.9013
-17.902
-17.9057
-17.913
-17.9249
-17.9431
-17.9618
-17.9735
-17.9741
-17.9642
-17.9499
-17.9366
-17.9264
-17.919
-17.9135
-17.9093
-17.9061
-17.9037
-17.9018
-17.9004
-17.8993
-17.8985
-17.8981
-17.8979
-17.8977
-17.8976
-17.8977
-17.8978
-17.8984
-17.8993
-17.9007
-17.9025
-17.9051
-17.9085
-17.9131
-17.9196
-17.9283
-17.9398
-17.954
-17.9685
-17.9781
-17.9778
-17.9701
-17.955
-17.9388
-17.927
-17.9227
-17.9193
-17.9164
-17.9136
-17.9111
-17.909
-17.9074
-17.9061
-17.9051
-17.9044
-17.9038
-17.9033
-17.903
-17.9027
-17.9025
-17.9023
-17.9022
-17.9022
-17.9021
-18.3927
-18.3927
-18.3927
-18.3927
-18.3926
-18.3926
-18.3925
-18.3924
-18.3923
-18.3922
-18.3921
-18.3919
-18.3917
-18.3916
-18.3915
-18.3917
-18.3924
-18.3944
-18.3988
-18.4061
-18.4164
-18.4271
-18.4342
-18.4356
-18.4316
-18.4249
-18.4179
-18.4116
-18.4065
-18.4024
-18.3992
-18.3966
-18.3945
-18.3929
-18.3916
-18.3906
-18.3899
-18.3894
-18.3892
-18.389
-18.389
-18.3891
-18.3893
-18.3899
-18.3908
-18.3921
-18.3938
-18.396
-18.3989
-18.4028
-18.4077
-18.414
-18.4219
-18.431
-18.4396
-18.445
-18.4455
-18.4396
-18.4307
-18.4217
-18.4154
-18.4116
-18.4082
-18.4054
-18.403
-18.401
-18.3993
-18.3979
-18.3967
-18.3958
-18.3951
-18.3946
-18.3941
-18.3938
-18.3935
-18.3933
-18.3931
-18.393
-18.393
-18.3929
-18.8831
-18.8831
-18.8831
-18.8831
-18.883
-18.883
-18.8829
-18.8828
-18.8827
-18.8826
-18.8825
-18.8823
-18.8822
-18.8821
-18.8821
-18.8823
-18.883
-18.8844
-18.887
-18.8914
-18.8973
-18.9034
-18.9078
-18.9097
-18.9089
-18.9058
-18.9018
-18.8979
-18.8944
-18.8914
-18.8889
-18.8868
-18.8851
-18.8837
-18.8826
-18.8817
-18.8811
-18.8806
-18.8804
-18.8802
-18.8803
-18.8804
-18.8806
-18.8812
-18.882
-18.8832
-18.8847
-18.8867
-18.8891
-18.8922
-18.896
-18.9006
-18.9059
-18.9116
-18.9166
-18.9198
-18.9203
-18.9176
-18.9127
-18.9073
-18.903
-18.8996
-18.8968
-18.8946
-18.8926
-18.8909
-18.8895
-18.8883
-18.8873
-18.8865
-18.8858
-18.8853
-18.8849
-18.8845
-18.8843
-18.884
-18.8839
-18.8838
-18.8837
-18.8837
-19.3735
-19.3735
-19.3735
-19.3735
-19.3734
-19.3734
-19.3733
-19.3732
-19.3731
-19.373
-19.3729
-19.3728
-19.3727
-19.3726
-19.3727
-19.373
-19.3736
-19.3747
-19.3766
-19.3793
-19.3829
-19.3867
-19.3898
-19.3913
-19.3912
-19.3897
-19.3874
-19.385
-19.3826
-19.3804
-19.3785
-19.3769
-19.3755
-19.3744
-19.3735
-19.3727
-19.3721
-19.3717
-19.3715
-19.3713
-19.3714
-19.3715
-19.3717
-19.3723
-19.3731
-19.3741
-19.3755
-19.3771
-19.3792
-19.3817
-19.3846
-19.3879
-19.3916
-19.3953
-19.3983
-19.4001
-19.4002
-19.3988
-19.3961
-19.393
-19.3901
-19.3877
-19.3856
-19.3838
-19.3822
-19.3809
-19.3796
-19.3786
-19.3778
-19.377
-19.3764
-19.3759
-19.3755
-19.3752
-19.375
-19.3748
-19.3746
-19.3745
-19.3744
-19.3744
-19.864
-19.864
-19.864
-19.8639
-19.8639
-19.8638
-19.8638
-19.8637
-19.8636
-19.8635
-19.8634
-19.8633
-19.8632
-19.8632
-19.8633
-19.8636
-19.8641
-19.865
-19.8664
-19.8683
-19.8706
-19.8731
-19.875
-19.8762
-19.8763
-19.8757
-19.8744
-19.8728
-19.8712
-19.8697
-19.8683
-19.867
-19.8659
-19.865
-19.8642
-19.8636
-19.8631
-19.8627
-19.8624
-19.8623
-19.8624
-19.8625
-19.8628
-19.8633
-19.864
-19.8649
-19.8661
-19.8675
-19.8692
-19.8712
-19.8734
-19.8759
-19.8785
-19.881
-19.8829
-19.8841
-19.8842
-19.8833
-19.8817
-19.8798
-19.8779
-19.8762
-19.8746
-19.8732
-19.8719
-19.8708
-19.8698
-19.8689
-19.8682
-19.8675
-19.867
-19.8665
-19.8662
-19.8659
-19.8656
-19.8654
-19.8653
-19.8652
-19.8651
-19.8651
-20.3544
-20.3544
-20.3544
-20.3544
-20.3543
-20.3543
-20.3542
-20.3541
-20.3541
-20.354
-20.3539
-20.3538
-20.3538
-20.3538
-20.3539
-20.3542
-20.3546
-20.3553
-20.3563
-20.3577
-20.3592
-20.3608
-20.3622
-20.363
-20.3633
-20.363
-20.3623
-20.3613
-20.3602
-20.3591
-20.358
-20.3571
-20.3562
-20.3555
-20.3548
-20.3543
-20.3539
-20.3536
-20.3533
-20.3532
-20.3533
-20.3534
-20.3537
-20.3542
-20.3548
-20.3556
-20.3566
-20.3578
-20.3592
-20.3608
-20.3625
-20.3644
-20.3663
-20.368
-20.3693
-20.3701
-20.3702
-20.3698
-20.3688
-20.3676
-20.3663
-20.365
-20.3638
-20.3627
-20.3617
-20.3608
-20.3599
-20.3592
-20.3585
-20.358
-20.3575
-20.3571
-20.3568
-20.3565
-20.3563
-20.3561
-20.3559
-20.3558
-20.3558
-20.3557
-20.8449
-20.8449
-20.8449
-20.8448
-20.8448
-20.8447
-20.8447
-20.8446
-20.8446
-20.8445
-20.8444
-20.8444
-20.8444
-20.8444
-20.8445
-20.8447
-20.8451
-20.8456
-20.8464
-20.8473
-20.8484
-20.8495
-20.8504
-20.8511
-20.8513
-20.8512
-20.8508
-20.8502
-20.8495
-20.8487
-20.8479
-20.8472
-20.8465
-20.8459
-20.8454
-20.845
-20.8447
-20.8444
-20.8442
-20.844
-20.8442
-20.8443
-20.8446
-20.845
-20.8456
-20.8463
-20.8471
-20.8481
-20.8492
-20.8505
-20.8519
-20.8533
-20.8546
-20.8559
-20.8568
-20.8574
-20.8576
-20.8573
-20.8567
-20.8559
-20.855
-20.8541
-20.8532
-20.8523
-20.8515
-20.8507
-20.8501
-20.8494
-20.8489
-20.8484
-20.848
-20.8476
-20.8473
-20.8471
-20.8468
-20.8467
-20.8465
-20.8465
-20.8464
-20.8464
-21.3354
-21.3354
-21.3353
-21.3353
-21.3353
-21.3352
-21.3352
-21.3351
-21.3351
-21.335
-21.335
-21.3349
-21.3349
-21.335
-21.3351
-21.3353
-21.3356
-21.336
-21.3366
-21.3373
-21.338
-21.3388
-21.3394
-21.3399
-21.3401
-21.3401
-21.3399
-21.3395
-21.339
-21.3384
-21.3379
-21.3373
-21.3368
-21.3363