/*--------------------------------*- C++ -*----------------------------------*\
| =========                 |                                                 |
| \\      /  F ield         | OpenFOAM: The Open Source CFD Toolbox           |
|  \\    /   O peration     | Version:  2412                                  |
|   \\  /    A nd           | Website:  www.openfoam.com                      |
|    \\/     M anipulation  |                                                 |
\*---------------------------------------------------------------------------*/
FoamFile
{
    version     2.0;
    format      ascii;
    arch        "LSB;label=32;scalar=64";
    class       volVectorField;
    location    "90";
    object      U;
}
// * * * * * * * * * * * * * * * * * * * * * * * * * * * * * * * * * * * * * //

dimensions      [0 1 -1 0 0 0 0];

internalField   nonuniform List<vector> 
6400
(
(2.53281e-07 3.58591e-07 0)
(9.76658e-07 3.22908e-07 0)
(2.08926e-06 7.35736e-08 0)
(4.18001e-06 -1.13065e-07 0)
(7.68029e-06 -2.65155e-07 0)
(1.26787e-05 -2.78964e-07 0)
(1.91388e-05 -1.20085e-07 0)
(2.6847e-05 3.04262e-07 0)
(3.53805e-05 9.74468e-07 0)
(4.42951e-05 1.95307e-06 0)
(5.31078e-05 3.1609e-06 0)
(6.1225e-05 4.68732e-06 0)
(6.81298e-05 6.38828e-06 0)
(7.33364e-05 8.2616e-06 0)
(7.65571e-05 1.01171e-05 0)
(7.75872e-05 1.1952e-05 0)
(7.64852e-05 1.35793e-05 0)
(7.33907e-05 1.4998e-05 0)
(6.87179e-05 1.59957e-05 0)
(6.28194e-05 1.67331e-05 0)
(5.62434e-05 1.69546e-05 0)
(4.95461e-05 1.67509e-05 0)
(4.35709e-05 1.59894e-05 0)
(3.90155e-05 1.48832e-05 0)
(3.63111e-05 1.3377e-05 0)
(3.54584e-05 1.18109e-05 0)
(3.67556e-05 1.02806e-05 0)
(4.0249e-05 8.70495e-06 0)
(4.5995e-05 7.01383e-06 0)
(5.36049e-05 5.68855e-06 0)
(6.26032e-05 4.63808e-06 0)
(7.23676e-05 3.78085e-06 0)
(8.23537e-05 3.00088e-06 0)
(9.22755e-05 2.6415e-06 0)
(0.00010176 2.74808e-06 0)
(0.000109921 3.04601e-06 0)
(0.000117056 3.14403e-06 0)
(0.000122397 3.24214e-06 0)
(0.00012617 3.66826e-06 0)
(0.000128234 4.01542e-06 0)
(0.000129038 3.93001e-06 0)
(0.000128881 3.91239e-06 0)
(0.000127751 3.73434e-06 0)
(0.000126236 3.64326e-06 0)
(0.000124039 3.42058e-06 0)
(0.000121613 3.26072e-06 0)
(0.000118799 3.1402e-06 0)
(0.00011564 3.25475e-06 0)
(0.000111822 3.45414e-06 0)
(0.000107255 3.99758e-06 0)
(0.000101472 4.65971e-06 0)
(9.42999e-05 5.65224e-06 0)
(8.53179e-05 6.67881e-06 0)
(7.45696e-05 7.9589e-06 0)
(6.17747e-05 9.09426e-06 0)
(4.73438e-05 1.03378e-05 0)
(3.13938e-05 1.12416e-05 0)
(1.47026e-05 1.21049e-05 0)
(-2.38049e-06 1.24676e-05 0)
(-1.89424e-05 1.27101e-05 0)
(-3.46006e-05 1.23661e-05 0)
(-4.83506e-05 1.1963e-05 0)
(-5.99589e-05 1.10398e-05 0)
(-6.85832e-05 1.01521e-05 0)
(-7.41576e-05 8.85243e-06 0)
(-7.62514e-05 7.82703e-06 0)
(-7.54598e-05 6.63123e-06 0)
(-7.16813e-05 5.83257e-06 0)
(-6.55162e-05 4.92685e-06 0)
(-5.71234e-05 4.51932e-06 0)
(-4.74014e-05 4.1713e-06 0)
(-3.67571e-05 4.37128e-06 0)
(-2.61665e-05 4.61573e-06 0)
(-1.60053e-05 5.28388e-06 0)
(-7.01992e-06 5.92939e-06 0)
(5.76629e-07 6.8208e-06 0)
(6.26318e-06 7.61341e-06 0)
(9.70926e-06 8.64819e-06 0)
(9.70738e-06 9.55621e-06 0)
(4.90558e-06 6.86903e-06 0)
(7.54483e-09 2.6087e-06 0)
(6.99186e-07 4.13863e-06 0)
(2.43343e-06 3.91101e-06 0)
(6.24819e-06 3.17145e-06 0)
(1.28663e-05 2.2984e-06 0)
(2.26455e-05 1.48421e-06 0)
(3.55378e-05 1.1263e-06 0)
(5.13428e-05 1.23578e-06 0)
(6.93531e-05 2.06056e-06 0)
(8.89095e-05 3.40081e-06 0)
(0.000109108 5.43843e-06 0)
(0.000129108 8.00048e-06 0)
(0.000147928 1.12127e-05 0)
(0.000164866 1.46259e-05 0)
(0.000179258 1.82607e-05 0)
(0.00019077 2.17159e-05 0)
(0.000199182 2.50673e-05 0)
(0.000204771 2.77847e-05 0)
(0.00020787 3.00059e-05 0)
(0.000209183 3.17235e-05 0)
(0.000209283 3.29018e-05 0)
(0.000209231 3.29653e-05 0)
(0.000209883 3.2172e-05 0)
(0.00021198 3.04303e-05 0)
(0.000215793 2.85078e-05 0)
(0.000221987 2.67946e-05 0)
(0.00023099 2.51076e-05 0)
(0.000242777 2.28388e-05 0)
(0.000256703 2.0817e-05 0)
(0.000272243 1.93678e-05 0)
(0.000288795 1.87633e-05 0)
(0.000305582 1.84253e-05 0)
(0.000321525 1.85952e-05 0)
(0.000336175 1.89761e-05 0)
(0.000348788 1.97997e-05 0)
(0.000358236 2.16132e-05 0)
(0.000364935 2.33949e-05 0)
(0.000368039 2.44763e-05 0)
(0.000367721 2.64687e-05 0)
(0.000363821 2.80068e-05 0)
(0.00035701 2.88918e-05 0)
(0.000347635 2.93052e-05 0)
(0.000336105 3.00122e-05 0)
(0.000322822 3.03546e-05 0)
(0.000308588 3.0311e-05 0)
(0.000293428 3.00829e-05 0)
(0.000277608 3.02853e-05 0)
(0.00026078 3.03206e-05 0)
(0.000243323 3.06004e-05 0)
(0.000224611 3.08752e-05 0)
(0.00020466 3.1679e-05 0)
(0.000182622 3.24186e-05 0)
(0.000158788 3.36149e-05 0)
(0.000132444 3.45066e-05 0)
(0.000104284 3.5723e-05 0)
(7.38922e-05 3.63388e-05 0)
(4.276e-05 3.704e-05 0)
(1.08489e-05 3.68158e-05 0)
(-1.99981e-05 3.66538e-05 0)
(-4.97383e-05 3.54634e-05 0)
(-7.63681e-05 3.43211e-05 0)
(-9.98854e-05 3.219e-05 0)
(-0.000118392 3.02699e-05 0)
(-0.000132171 2.74222e-05 0)
(-0.000139802 2.51866e-05 0)
(-0.000142463 2.25479e-05 0)
(-0.000139505 2.09004e-05 0)
(-0.000132202 1.89295e-05 0)
(-0.000120185 1.79971e-05 0)
(-0.00010525 1.69707e-05 0)
(-8.76216e-05 1.72447e-05 0)
(-6.92521e-05 1.75591e-05 0)
(-5.04678e-05 1.89122e-05 0)
(-3.30073e-05 2.01711e-05 0)
(-1.70516e-05 2.21241e-05 0)
(-3.869e-06 2.37847e-05 0)
(6.48816e-06 2.57261e-05 0)
(1.2933e-05 2.75934e-05 0)
(1.41192e-05 2.89326e-05 0)
(7.80495e-06 2.01562e-05 0)
(-1.78003e-07 5.70051e-06 0)
(7.9308e-07 8.99687e-06 0)
(3.6912e-06 8.44125e-06 0)
(9.64741e-06 6.51968e-06 0)
(1.94443e-05 3.91892e-06 0)
(3.34642e-05 1.2836e-06 0)
(5.18165e-05 -1.06724e-06 0)
(7.41532e-05 -2.60468e-06 0)
(9.98901e-05 -3.43219e-06 0)
(0.000128097 -3.30553e-06 0)
(0.00015791 -2.41755e-06 0)
(0.000188142 -4.19775e-07 0)
(0.00021795 2.18123e-06 0)
(0.000246342 5.506e-06 0)
(0.00027264 8.94755e-06 0)
(0.00029598 1.28352e-05 0)
(0.00031638 1.64221e-05 0)
(0.000333712 1.9887e-05 0)
(0.000348573 2.26296e-05 0)
(0.000361414 2.52867e-05 0)
(0.000373096 2.71884e-05 0)
(0.000384199 2.85108e-05 0)
(0.00039554 2.8746e-05 0)
(0.000407411 2.8605e-05 0)
(0.000420795 2.80614e-05 0)
(0.000435803 2.81482e-05 0)
(0.000453136 2.81875e-05 0)
(0.00047262 2.79688e-05 0)
(0.000493214 2.76486e-05 0)
(0.000513999 2.87711e-05 0)
(0.000534651 3.07296e-05 0)
(0.000554202 3.32391e-05 0)
(0.000571943 3.58457e-05 0)
(0.000586783 3.90168e-05 0)
(0.00059818 4.23129e-05 0)
(0.000605136 4.69636e-05 0)
(0.000607384 5.14709e-05 0)
(0.000604796 5.57218e-05 0)
(0.000597334 6.0008e-05 0)
(0.000585037 6.38511e-05 0)
(0.000568403 6.66791e-05 0)
(0.000548068 6.9257e-05 0)
(0.000524969 7.14911e-05 0)
(0.000498778 7.33239e-05 0)
(0.000470875 7.40625e-05 0)
(0.000441903 7.46013e-05 0)
(0.000411702 7.48846e-05 0)
(0.000380775 7.51923e-05 0)
(0.00034868 7.46284e-05 0)
(0.000316071 7.44648e-05 0)
(0.000281869 7.3933e-05 0)
(0.000246604 7.36859e-05 0)
(0.000209316 7.27033e-05 0)
(0.000170851 7.20865e-05 0)
(0.000130189 7.07013e-05 0)
(8.92753e-05 6.94665e-05 0)
(4.77112e-05 6.7098e-05 0)
(7.43103e-06 6.50428e-05 0)
(-3.20387e-05 6.17677e-05 0)
(-6.79851e-05 5.89109e-05 0)
(-0.00010083 5.46755e-05 0)
(-0.000127812 5.10545e-05 0)
(-0.000149755 4.62016e-05 0)
(-0.000164343 4.23384e-05 0)
(-0.000173249 3.78288e-05 0)
(-0.000174868 3.4933e-05 0)
(-0.000171247 3.14857e-05 0)
(-0.000161167 2.97667e-05 0)
(-0.000147057 2.76997e-05 0)
(-0.000128452 2.75052e-05 0)
(-0.000108134 2.72676e-05 0)
(-8.59169e-05 2.87844e-05 0)
(-6.43904e-05 3.00873e-05 0)
(-4.34435e-05 3.26676e-05 0)
(-2.51234e-05 3.47814e-05 0)
(-9.2582e-06 3.75094e-05 0)
(2.74808e-06 3.95786e-05 0)
(1.08858e-05 4.24045e-05 0)
(1.31679e-05 4.42104e-05 0)
(7.64699e-06 3.12362e-05 0)
(1.68129e-08 8.96274e-06 0)
(2.33646e-06 1.3518e-05 0)
(7.54906e-06 1.19876e-05 0)
(1.69699e-05 7.95778e-06 0)
(3.12099e-05 2.81975e-06 0)
(5.06984e-05 -2.86578e-06 0)
(7.53592e-05 -8.16055e-06 0)
(0.000104978 -1.28312e-05 0)
(0.00013872 -1.62777e-05 0)
(0.000175691 -1.89651e-05 0)
(0.000214689 -2.01934e-05 0)
(0.000254794 -2.03651e-05 0)
(0.000294853 -1.9286e-05 0)
(0.000333966 -1.76277e-05 0)
(0.000370653 -1.49238e-05 0)
(0.000404703 -1.18268e-05 0)
(0.000435541 -8.1204e-06 0)
(0.000463528 -4.85732e-06 0)
(0.000488704 -1.48366e-06 0)
(0.000512015 1.5885e-06 0)
(0.000533556 4.98719e-06 0)
(0.000554384 7.6923e-06 0)
(0.000574594 1.05761e-05 0)
(0.000595451 1.29693e-05 0)
(0.00061694 1.54651e-05 0)
(0.000639804 1.80915e-05 0)
(0.000664066 2.17803e-05 0)
(0.000689842 2.52574e-05 0)
(0.00071589 2.93532e-05 0)
(0.000741526 3.44335e-05 0)
(0.000765544 4.08414e-05 0)
(0.000787502 4.74978e-05 0)
(0.000806494 5.46464e-05 0)
(0.000821621 6.17126e-05 0)
(0.000831646 6.94001e-05 0)
(0.000836377 7.80496e-05 0)
(0.000834876 8.71182e-05 0)
(0.00082708 9.54393e-05 0)
(0.000812979 0.000103849 0)
(0.000792453 0.00011068 0)
(0.000766985 0.00011678 0)
(0.000736821 0.00012206 0)
(0.000703761 0.00012685 0)
(0.000667304 0.000130804 0)
(0.000627909 0.000133913 0)
(0.000586469 0.000135426 0)
(0.000543824 0.000136578 0)
(0.000499928 0.00013613 0)
(0.000455639 0.000135495 0)
(0.000409608 0.000133689 0)
(0.000363321 0.000131593 0)
(0.000315585 0.000128192 0)
(0.000267421 0.000125127 0)
(0.000217131 0.000120976 0)
(0.000166267 0.000116581 0)
(0.000114843 0.000110472 0)
(6.52456e-05 0.000105125 0)
(1.60054e-05 9.85456e-05 0)
(-2.99225e-05 9.25413e-05 0)
(-7.3188e-05 8.48671e-05 0)
(-0.000110135 7.79125e-05 0)
(-0.000141951 6.97365e-05 0)
(-0.000165787 6.32489e-05 0)
(-0.000183556 5.58361e-05 0)
(-0.00019268 5.06314e-05 0)
(-0.000195677 4.49218e-05 0)
(-0.000190466 4.14283e-05 0)
(-0.000180388 3.76887e-05 0)
(-0.000163909 3.65296e-05 0)
(-0.000144429 3.50886e-05 0)
(-0.000121301 3.61694e-05 0)
(-9.79168e-05 3.69892e-05 0)
(-7.37621e-05 3.98155e-05 0)
(-5.17197e-05 4.209e-05 0)
(-3.12797e-05 4.55733e-05 0)
(-1.4563e-05 4.80689e-05 0)
(-1.06199e-06 5.10347e-05 0)
(7.69518e-06 5.40313e-05 0)
(1.11219e-05 5.69748e-05 0)
(6.73534e-06 4.06435e-05 0)
(4.35934e-07 1.17491e-05 0)
(4.87431e-06 1.65138e-05 0)
(1.34181e-05 1.27587e-05 0)
(2.72942e-05 5.70106e-06 0)
(4.70705e-05 -3.21374e-06 0)
(7.28736e-05 -1.2754e-05 0)
(0.000104701 -2.23473e-05 0)
(0.000142006 -3.09121e-05 0)
(0.000184174 -3.84363e-05 0)
(0.000229747 -4.44238e-05 0)
(0.000277854 -4.91869e-05 0)
(0.000327339 -5.20366e-05 0)
(0.000377101 -5.39958e-05 0)
(0.000425317 -5.41335e-05 0)
(0.000471488 -5.31506e-05 0)
(0.000514662 -5.06217e-05 0)
(0.000554903 -4.78738e-05 0)
(0.000591946 -4.44603e-05 0)
(0.000626329 -4.11558e-05 0)
(0.000657882 -3.68928e-05 0)
(0.000687696 -3.23075e-05 0)
(0.000716027 -2.68088e-05 0)
(0.000744026 -2.12084e-05 0)
(0.000771993 -1.50483e-05 0)
(0.000800735 -9.04208e-06 0)
(0.000829946 -1.88058e-06 0)
(0.00086028 5.64593e-06 0)
(0.000890874 1.43612e-05 0)
(0.000921846 2.37132e-05 0)
(0.000950802 3.51244e-05 0)
(0.000978299 4.67597e-05 0)
(0.00100227 5.92641e-05 0)
(0.00102268 7.17992e-05 0)
(0.00103774 8.49643e-05 0)
(0.0010466 9.82392e-05 0)
(0.00104881 0.000112492 0)
(0.00104396 0.000126592 0)
(0.00103134 0.000140569 0)
(0.00101184 0.000153197 0)
(0.000985281 0.000165498 0)
(0.000952356 0.000176336 0)
(0.000913895 0.000185603 0)
(0.000871648 0.000192682 0)
(0.000826465 0.000199527 0)
(0.000777588 0.000205002 0)
(0.000726339 0.000209015 0)
(0.000672968 0.000210426 0)
(0.000618697 0.000210644 0)
(0.0005631 0.000208955 0)
(0.000506877 0.000206178 0)
(0.000449114 0.000200922 0)
(0.000391499 0.000195484 0)
(0.000331987 0.000188258 0)
(0.00027277 0.000181103 0)
(0.000211875 0.000171179 0)
(0.000152542 0.000161195 0)
(9.34559e-05 0.000149669 0)
(3.78267e-05 0.000139289 0)
(-1.58863e-05 0.000126995 0)
(-6.36346e-05 0.000115668 0)
(-0.000106653 0.00010243 0)
(-0.000141205 9.15831e-05 0)
(-0.000169808 7.98924e-05 0)
(-0.000188684 7.07838e-05 0)
(-0.000200811 6.10713e-05 0)
(-0.000203509 5.48153e-05 0)
(-0.00020008 4.79409e-05 0)
(-0.000188662 4.46088e-05 0)
(-0.00017306 4.10428e-05 0)
(-0.000151717 4.08028e-05 0)
(-0.000128921 4.02952e-05 0)
(-0.000103675 4.26729e-05 0)
(-7.97498e-05 4.45127e-05 0)
(-5.62441e-05 4.84171e-05 0)
(-3.61051e-05 5.1367e-05 0)
(-1.83941e-05 5.52721e-05 0)
(-5.05613e-06 5.80174e-05 0)
(4.53072e-06 6.23606e-05 0)
(8.3997e-06 6.61149e-05 0)
(5.50465e-06 4.80165e-05 0)
(9.80378e-07 1.36435e-05 0)
(8.00799e-06 1.70812e-05 0)
(2.04299e-05 9.89211e-06 0)
(3.95163e-05 -1.61513e-06 0)
(6.53995e-05 -1.52089e-05 0)
(9.81958e-05 -3.00088e-05 0)
(0.000137485 -4.45468e-05 0)
(0.000182868 -5.84128e-05 0)
(0.000233219 -7.04556e-05 0)
(0.000287447 -8.1149e-05 0)
(0.000344315 -8.97678e-05 0)
(0.000402885 -9.67155e-05 0)
(0.0004608 -0.000101563 0)
(0.000517411 -0.000104539 0)
(0.00057171 -0.000105066 0)
(0.000623344 -0.000104232 0)
(0.000671736 -0.000102157 0)
(0.000716995 -9.95776e-05 0)
(0.000758518 -9.52907e-05 0)
(0.000797375 -9.00694e-05 0)
(0.000833737 -8.28889e-05 0)
(0.000868902 -7.52135e-05 0)
(0.000903088 -6.58798e-05 0)
(0.0009376 -5.60027e-05 0)
(0.000971996 -4.48606e-05 0)
(0.00100669 -3.29051e-05 0)
(0.00104132 -1.92991e-05 0)
(0.00107654 -5.19746e-06 0)
(0.00111079 1.0669e-05 0)
(0.00114274 2.90067e-05 0)
(0.00117268 4.80465e-05 0)
(0.00119879 6.66265e-05 0)
(0.00121975 8.62896e-05 0)
(0.00123483 0.000106185 0)
(0.00124203 0.000127148 0)
(0.00124215 0.000147795 0)
(0.0012336 0.000168604 0)
(0.00121751 0.000188997 0)
(0.00119338 0.000208829 0)
(0.00116212 0.000226715 0)
(0.00112366 0.000242762 0)
(0.00107848 0.000255938 0)
(0.00102851 0.000266518 0)
(0.000974886 0.000276314 0)
(0.00091793 0.000285647 0)
(0.000857925 0.00029118 0)
(0.000796436 0.000294456 0)
(0.000732783 0.000294412 0)
(0.000668582 0.000292718 0)
(0.000602617 0.000287702 0)
(0.000536464 0.000280999 0)
(0.000468689 0.000271429 0)
(0.000401121 0.000261097 0)
(0.00033221 0.000248003 0)
(0.000265132 0.000234165 0)
(0.000197521 0.000217459 0)
(0.000132771 0.000201542 0)
(6.93115e-05 0.000183607 0)
(1.15221e-05 0.000166939 0)
(-4.26712e-05 0.000147978 0)
(-8.85323e-05 0.00013083 0)
(-0.000128519 0.00011301 0)
(-0.000158551 9.87619e-05 0)
(-0.000181744 8.36478e-05 0)
(-0.000194131 7.22406e-05 0)
(-0.000200078 6.09145e-05 0)
(-0.000196334 5.39257e-05 0)
(-0.000187417 4.68297e-05 0)
(-0.000170839 4.39045e-05 0)
(-0.000151553 4.09026e-05 0)
(-0.000127864 4.18145e-05 0)
(-0.000104454 4.23199e-05 0)
(-7.99234e-05 4.5862e-05 0)
(-5.81412e-05 4.8558e-05 0)
(-3.77781e-05 5.32287e-05 0)
(-2.15353e-05 5.66221e-05 0)
(-8.06115e-06 6.10116e-05 0)
(8.60191e-07 6.57656e-05 0)
(5.4633e-06 7.15228e-05 0)
(3.8678e-06 5.26584e-05 0)
(1.60517e-06 1.44301e-05 0)
(1.14487e-05 1.48823e-05 0)
(2.81401e-05 2.62242e-06 0)
(5.27491e-05 -1.4394e-05 0)
(8.52431e-05 -3.41702e-05 0)
(0.000125239 -5.49306e-05 0)
(0.000172389 -7.58636e-05 0)
(0.00022572 -9.54042e-05 0)
(0.000284402 -0.000113354 0)
(0.000346954 -0.000128961 0)
(0.000412223 -0.000143198 0)
(0.000478461 -0.000153943 0)
(0.000544027 -0.000162468 0)
(0.000607866 -0.00016783 0)
(0.000669789 -0.000171302 0)
(0.000728863 -0.000171881 0)
(0.000784669 -0.000171527 0)
(0.000835949 -0.000168445 0)
(0.000883867 -0.00016373 0)
(0.000928384 -0.000156394 0)
(0.00097093 -0.000147488 0)
(0.00101154 -0.000136188 0)
(0.00105159 -0.000123831 0)
(0.00109083 -0.000108902 0)
(0.00113004 -9.25402e-05 0)
(0.00116846 -7.38292e-05 0)
(0.00120716 -5.43453e-05 0)
(0.00124526 -3.30257e-05 0)
(0.00128233 -1.02654e-05 0)
(0.00131629 1.65621e-05 0)
(0.00134822 4.299e-05 0)
(0.00137542 6.96018e-05 0)
(0.00139695 9.68998e-05 0)
(0.00141119 0.000125588 0)
(0.0014175 0.000154651 0)
(0.00141592 0.00018333 0)
(0.00140493 0.000211969 0)
(0.00138591 0.000240283 0)
(0.00135844 0.00026602 0)
(0.00132282 0.000290532 0)
(0.00127946 0.00031228 0)
(0.00122936 0.000331503 0)
(0.00117286 0.000346669 0)
(0.00111253 0.000361066 0)
(0.00104821 0.000372302 0)
(0.000981693 0.000380701 0)
(0.000912499 0.000384691 0)
(0.000842205 0.000385936 0)
(0.000769737 0.000382845 0)
(0.000697052 0.000377187 0)
(0.000622432 0.000367108 0)
(0.000548142 0.000355132 0)
(0.000471873 0.000339101 0)
(0.00039713 0.000321394 0)
(0.000322789 0.000300347 0)
(0.000251161 0.000279773 0)
(0.000179305 0.000256093 0)
(0.000112286 0.000233233 0)
(4.81385e-05 0.000207746 0)
(-7.9561e-06 0.000184423 0)
(-5.96554e-05 0.000159187 0)
(-0.000101243 0.000137418 0)
(-0.000136062 0.000115331 0)
(-0.000159749 9.78742e-05 0)
(-0.00017656 7.99903e-05 0)
(-0.000182532 6.73939e-05 0)
(-0.000182669 5.50807e-05 0)
(-0.000173503 4.80535e-05 0)
(-0.000160438 4.10366e-05 0)
(-0.000141056 3.90647e-05 0)
(-0.000120785 3.69748e-05 0)
(-9.76331e-05 3.91034e-05 0)
(-7.63799e-05 4.0617e-05 0)
(-5.52044e-05 4.51996e-05 0)
(-3.77413e-05 4.87466e-05 0)
(-2.21972e-05 5.41233e-05 0)
(-1.084e-05 5.83651e-05 0)
(-2.22927e-06 6.5242e-05 0)
(1.97807e-06 7.21873e-05 0)
(2.08883e-06 5.45211e-05 0)
(2.22582e-06 1.40987e-05 0)
(1.49876e-05 9.64872e-06 0)
(3.60809e-05 -9.08308e-06 0)
(6.65183e-05 -3.3295e-05 0)
(0.000105691 -6.00993e-05 0)
(0.000153195 -8.83112e-05 0)
(0.000208134 -0.000115966 0)
(0.000269662 -0.000142546 0)
(0.000336368 -0.000166543 0)
(0.000407306 -0.000188593 0)
(0.000479599 -0.000207775 0)
(0.000552581 -0.000223496 0)
(0.000624704 -0.000235252 0)
(0.000695782 -0.000244682 0)
(0.000764336 -0.000250489 0)
(0.000830039 -0.000253819 0)
(0.000890917 -0.000253746 0)
(0.000947691 -0.000250853 0)
(0.00100042 -0.000244596 0)
(0.00105036 -0.000236282 0)
(0.00109756 -0.000224412 0)
(0.0011432 -0.000210331 0)
(0.00118703 -0.000193003 0)
(0.00123021 -0.000173427 0)
(0.00127211 -0.000150009 0)
(0.00131398 -0.000124761 0)
(0.00135557 -9.78468e-05 0)
(0.00139686 -6.98674e-05 0)
(0.00143517 -3.82324e-05 0)
(0.00147115 -3.63426e-06 0)
(0.00150387 3.21751e-05 0)
(0.00153234 6.7012e-05 0)
(0.00155322 0.000103692 0)
(0.00156699 0.000141098 0)
(0.00157247 0.000179983 0)
(0.00156936 0.000216668 0)
(0.00155713 0.000254138 0)
(0.00153582 0.000289543 0)
(0.00150535 0.000323519 0)
(0.00146622 0.000355043 0)
(0.00141891 0.000384268 0)
(0.00136428 0.00040921 0)
(0.00130361 0.000430766 0)
(0.00123774 0.000448513 0)
(0.00116853 0.000463575 0)
(0.00109599 0.000473682 0)
(0.00102176 0.000480089 0)
(0.000944984 0.000481103 0)
(0.000867577 0.000478494 0)
(0.000788055 0.000470218 0)
(0.000708811 0.000458792 0)
(0.000627648 0.000442064 0)
(0.000547393 0.000422663 0)
(0.000465559 0.000397381 0)
(0.000387315 0.000371751 0)
(0.000309566 0.000343317 0)
(0.000235747 0.000315076 0)
(0.000162916 0.000283179 0)
(9.68052e-05 0.000252211 0)
(3.52812e-05 0.000219449 0)
(-1.68426e-05 0.000190377 0)
(-6.38343e-05 0.000159914 0)
(-9.91994e-05 0.000134119 0)
(-0.000127719 0.000108477 0)
(-0.000144732 8.87031e-05 0)
(-0.000155548 6.9272e-05 0)
(-0.000155812 5.61905e-05 0)
(-0.000151345 4.35731e-05 0)
(-0.000138732 3.71154e-05 0)
(-0.000124117 3.09333e-05 0)
(-0.000104772 3.0253e-05 0)
(-8.63362e-05 2.93332e-05 0)
(-6.64329e-05 3.27766e-05 0)
(-4.96355e-05 3.54689e-05 0)
(-3.36744e-05 4.12199e-05 0)
(-2.17368e-05 4.58314e-05 0)
(-1.17203e-05 5.23538e-05 0)
(-5.40635e-06 5.96288e-05 0)
(-1.2511e-06 6.89419e-05 0)
(1.15409e-08 5.32171e-05 0)
(2.83666e-06 1.25084e-05 0)
(1.84255e-05 1.32059e-06 0)
(4.40076e-05 -2.57176e-05 0)
(8.02643e-05 -5.82584e-05 0)
(0.000126319 -9.36749e-05 0)
(0.000181208 -0.000129805 0)
(0.000244173 -0.000165802 0)
(0.000313704 -0.00019955 0)
(0.000388542 -0.000230955 0)
(0.000466517 -0.000258675 0)
(0.000545438 -0.000283307 0)
(0.000624557 -0.000303338 0)
(0.000703445 -0.000320175 0)
(0.000779964 -0.000333393 0)
(0.000853764 -0.000343042 0)
(0.000923711 -0.000347337 0)
(0.000989228 -0.000348074 0)
(0.00105007 -0.000343972 0)
(0.00110762 -0.000337676 0)
(0.0011614 -0.000327478 0)
(0.00121274 -0.000313644 0)
(0.00126135 -0.000294901 0)
(0.0013085 -0.000273131 0)
(0.00135353 -0.000246822 0)
(0.00139798 -0.000217669 0)
(0.00144213 -0.000184766 0)
(0.00148685 -0.000150575 0)
(0.00152986 -0.000114115 0)
(0.00156937 -7.40787e-05 0)
(0.00160618 -3.0348e-05 0)
(0.00163997 1.38644e-05 0)
(0.00166788 5.8835e-05 0)
(0.00168888 0.000104871 0)
(0.00170206 0.000152708 0)
(0.00170685 0.000200175 0)
(0.00170203 0.000246879 0)
(0.00168854 0.000292071 0)
(0.00166594 0.000336003 0)
(0.00163326 0.000378628 0)
(0.0015912 0.00041932 0)
(0.00154071 0.000455375 0)
(0.00148312 0.000487463 0)
(0.00141903 0.00051423 0)
(0.0013502 0.000537462 0)
(0.00127691 0.000555387 0)
(0.00120108 0.000569075 0)
(0.00112211 0.000576436 0)
(0.00104201 0.000579109 0)
(0.000959528 0.000575024 0)
(0.000877055 0.000566369 0)
(0.000792582 0.000551133 0)
(0.000708975 0.000532239 0)
(0.000623627 0.000506793 0)
(0.000539712 0.000477817 0)
(0.000455095 0.000443382 0)
(0.000375704 0.000409759 0)
(0.000297301 0.000372707 0)
(0.000224547 0.000336235 0)
(0.000153256 0.000295612 0)
(9.08573e-05 0.000257312 0)
(3.3965e-05 0.000218373 0)
(-1.25945e-05 0.000184291 0)
(-5.32608e-05 0.000149297 0)
(-8.18344e-05 0.000120619 0)
(-0.000104198 9.25541e-05 0)
(-0.000115206 7.16599e-05 0)
(-0.000121022 5.15745e-05 0)
(-0.000117218 3.8855e-05 0)
(-0.000110445 2.69082e-05 0)
(-9.7159e-05 2.1841e-05 0)
(-8.37667e-05 1.70587e-05 0)
(-6.72276e-05 1.80337e-05 0)
(-5.3078e-05 1.8683e-05 0)
(-3.85192e-05 2.37508e-05 0)
(-2.7668e-05 2.80179e-05 0)
(-1.79514e-05 3.51546e-05 0)
(-1.1963e-05 4.13348e-05 0)
(-7.29132e-06 5.08821e-05 0)
(-4.65895e-06 6.10352e-05 0)
(-1.99127e-06 4.90696e-05 0)
(3.35522e-06 9.82471e-06 0)
(2.16812e-05 -1.02128e-05 0)
(5.16575e-05 -4.70724e-05 0)
(9.38525e-05 -8.97062e-05 0)
(0.000146752 -0.000134424 0)
(0.000209401 -0.000180297 0)
(0.000280015 -0.000224808 0)
(0.000357007 -0.000267043 0)
(0.000438492 -0.000305167 0)
(0.000523023 -0.000339531 0)
(0.000608377 -0.000368957 0)
(0.000693933 -0.00039478 0)
(0.000777946 -0.000415457 0)
(0.000858819 -0.000432589 0)
(0.000935544 -0.00044459 0)
(0.00100895 -0.00045128 0)
(0.00107763 -0.000451856 0)
(0.00114313 -0.000448563 0)
(0.00120425 -0.000440148 0)
(0.00126138 -0.000428468 0)
(0.00131475 -0.000411155 0)
(0.00136587 -0.000388725 0)
(0.00141456 -0.000361142 0)
(0.00146203 -0.000329788 0)
(0.00150846 -0.000293631 0)
(0.00155552 -0.000255254 0)
(0.00160096 -0.000212106 0)
(0.00164468 -0.000166697 0)
(0.00168433 -0.000116769 0)
(0.00172217 -6.51167e-05 0)
(0.00175521 -1.101e-05 0)
(0.00178258 4.40475e-05 0)
(0.00180296 0.000100523 0)
(0.00181586 0.000156663 0)
(0.00181935 0.000214734 0)
(0.00181377 0.000271166 0)
(0.00179866 0.000325852 0)
(0.0017745 0.000377556 0)
(0.00174029 0.000430214 0)
(0.00169636 0.000479606 0)
(0.00164421 0.000524325 0)
(0.00158525 0.00056272 0)
(0.00151984 0.000596354 0)
(0.00144876 0.000624078 0)
(0.00137386 0.000646961 0)
(0.00129504 0.000662808 0)
(0.00121447 0.000673173 0)
(0.00113098 0.000675751 0)
(0.00104708 0.000672475 0)
(0.000961022 0.00066111 0)
(0.000875668 0.000644753 0)
(0.000788293 0.000620883 0)
(0.000702563 0.000592699 0)
(0.00061524 0.000556973 0)
(0.000530289 0.000518231 0)
(0.00044549 0.000474649 0)
(0.000367282 0.00043235 0)
(0.000290844 0.000386305 0)
(0.000221124 0.000341494 0)
(0.000153825 0.000292701 0)
(9.72943e-05 0.000248737 0)
(4.59675e-05 0.000204481 0)
(6.01365e-06 0.000166238 0)
(-2.81978e-05 0.000128124 0)
(-5.05217e-05 9.77629e-05 0)
(-6.75759e-05 6.8527e-05 0)
(-7.39665e-05 4.76621e-05 0)
(-7.67276e-05 2.81149e-05 0)
(-7.13974e-05 1.68443e-05 0)
(-6.50373e-05 6.50823e-06 0)
(-5.38491e-05 3.44819e-06 0)
(-4.42408e-05 6.53951e-07 0)
(-3.28516e-05 3.78392e-06 0)
(-2.48031e-05 6.56528e-06 0)
(-1.69464e-05 1.36186e-05 0)
(-1.28336e-05 1.96835e-05 0)
(-9.63288e-06 2.83894e-05 0)
(-8.85543e-06 3.77492e-05 0)
(-7.24929e-06 4.99132e-05 0)
(-4.10647e-06 4.18162e-05 0)
(3.75224e-06 5.9994e-06 0)
(2.46132e-05 -2.4799e-05 0)
(5.90731e-05 -7.35957e-05 0)
(0.000107252 -0.000127346 0)
(0.000167427 -0.000183388 0)
(0.000237444 -0.000239215 0)
(0.000315197 -0.000293082 0)
(0.000398656 -0.000342879 0)
(0.000486346 -0.000388747 0)
(0.000576198 -0.000429155 0)
(0.000667058 -0.000465128 0)
(0.00075701 -0.000495302 0)
(0.000845231 -0.000520708 0)
(0.000929832 -0.000539637 0)
(0.00100999 -0.000554306 0)
(0.00108554 -0.000562424 0)
(0.00115787 -0.000565361 0)
(0.00122568 -0.000561883 0)
(0.0012893 -0.00055297 0)
(0.00134828 -0.00053716 0)
(0.00140379 -0.00051695 0)
(0.00145599 -0.000489811 0)
(0.00150712 -0.00045787 0)
(0.00155621 -0.000420383 0)
(0.00160522 -0.000379136 0)
(0.00165225 -0.000332516 0)
(0.00169758 -0.000282087 0)
(0.00173982 -0.000226108 0)
(0.00178018 -0.000167389 0)
(0.00181704 -0.000106346 0)
(0.00184932 -4.37779e-05 0)
(0.00187513 2.23402e-05 0)
(0.00189468 8.87213e-05 0)
(0.00190582 0.00015556 0)
(0.00190878 0.000222336 0)
(0.00190234 0.000289002 0)
(0.00188661 0.000352418 0)
(0.00186068 0.000414541 0)
(0.00182542 0.000476589 0)
(0.00178102 0.000535576 0)
(0.00172863 0.00058744 0)
(0.00167027 0.000632987 0)
(0.00160526 0.00067306 0)
(0.00153389 0.000707652 0)
(0.00145777 0.000734215 0)
(0.00137888 0.000754405 0)
(0.00129656 0.00076605 0)
(0.00121329 0.000770865 0)
(0.00112747 0.000766277 0)
(0.00104201 0.000755036 0)
(0.000954399 0.00073491 0)
(0.000868052 0.000709289 0)
(0.000779995 0.000675204 0)
(0.000694527 0.00063651 0)
(0.000607518 0.000590327 0)
(0.00052399 0.000542058 0)
(0.000441218 0.000489049 0)
(0.000366311 0.00043785 0)
(0.000293358 0.000383143 0)
(0.000228454 0.00033022 0)
(0.000167024 0.000275427 0)
(0.000116811 0.000226863 0)
(7.16184e-05 0.000178351 0)
(3.80696e-05 0.000137494 0)
(9.50169e-06 9.77116e-05 0)
(-7.80176e-06 6.70423e-05 0)
(-2.11659e-05 3.81043e-05 0)
(-2.51626e-05 1.86785e-05 0)
(-2.74016e-05 9.23493e-07 0)
(-2.32895e-05 -7.9612e-06 0)
(-1.99881e-05 -1.58253e-05 0)
(-1.34404e-05 -1.61312e-05 0)
(-9.73399e-06 -1.61719e-05 0)
(-5.20739e-06 -1.03813e-05 0)
(-4.36454e-06 -5.1495e-06 0)
(-3.86759e-06 3.78018e-06 0)
(-6.38038e-06 1.1678e-05 0)
(-8.43673e-06 2.30581e-05 0)
(-9.57815e-06 3.50443e-05 0)
(-5.82773e-06 3.21972e-05 0)
(3.99765e-06 1.12426e-06 0)
(2.7298e-05 -4.2761e-05 0)
(6.62282e-05 -0.000105124 0)
(0.000120986 -0.00017213 0)
(0.000188332 -0.000240036 0)
(0.000265404 -0.000306524 0)
(0.000349555 -0.000369005 0)
(0.000439065 -0.000427256 0)
(0.000531722 -0.000479626 0)
(0.000626231 -0.000526908 0)
(0.000720646 -0.000567719 0)
(0.000814109 -0.000603314 0)
(0.000904808 -0.000631958 0)
(0.000992411 -0.000654956 0)
(0.00107515 -0.000670657 0)
(0.00115383 -0.000681405 0)
(0.00122755 -0.000684943 0)
(0.00129694 -0.000682151 0)
(0.00136135 -0.000671164 0)
(0.00142219 -0.000653827 0)
(0.00147878 -0.000628882 0)
(0.00153315 -0.000598967 0)
(0.00158469 -0.000561427 0)
(0.0016351 -0.000518384 0)
(0.00168317 -0.00046893 0)
(0.00172938 -0.000414891 0)
(0.001773 -0.000355236 0)
(0.00181479 -0.000292024 0)
(0.00185346 -0.000223806 0)
(0.00188933 -0.000153692 0)
(0.00191967 -8.06163e-05 0)
(0.00194467 -6.0641e-06 0)
(0.0019624 7.06122e-05 0)
(0.00197257 0.000147238 0)
(0.00197406 0.000224636 0)
(0.00196723 0.000299862 0)
(0.00195069 0.000373685 0)
(0.00192444 0.00044563 0)
(0.00188914 0.000517146 0)
(0.00184553 0.000583294 0)
(0.00179452 0.000643135 0)
(0.00173656 0.000694677 0)
(0.00167355 0.000742593 0)
(0.00160362 0.000783693 0)
(0.00152905 0.000816813 0)
(0.0014503 0.000839702 0)
(0.0013697 0.000854936 0)
(0.00128623 0.00086004 0)
(0.00120266 0.000856992 0)
(0.00111649 0.000843388 0)
(0.00103115 0.000822848 0)
(0.0009436 0.000792627 0)
(0.000858693 0.000756209 0)
(0.000772521 0.000711026 0)
(0.000689055 0.00066195 0)
(0.000604291 0.000605528 0)
(0.000524209 0.000547778 0)
(0.00044522 0.000485486 0)
(0.000375143 0.000425636 0)
(0.00030709 0.000362551 0)
(0.000248116 0.000303927 0)
(0.000192899 0.000244443 0)
(0.000149045 0.00019265 0)
(0.000109451 0.00014167 0)
(8.12212e-05 0.000100027 0)
(5.68018e-05 6.03153e-05 0)
(4.26265e-05 3.10214e-05 0)
(3.07098e-05 4.01987e-06 0)
(2.64749e-05 -1.26146e-05 0)
(2.20509e-05 -2.73338e-05 0)
(2.22453e-05 -3.2764e-05 0)
(2.01505e-05 -3.71326e-05 0)
(2.00565e-05 -3.39667e-05 0)
(1.64227e-05 -3.07626e-05 0)
(1.31257e-05 -2.22944e-05 0)
(6.46775e-06 -1.48443e-05 0)
(6.67697e-08 -4.32935e-06 0)
(-7.17457e-06 6.00518e-06 0)
(-1.04145e-05 1.8952e-05 0)
(-7.31724e-06 2.04983e-05 0)
(4.12347e-06 -4.87337e-06 0)
(2.99515e-05 -6.41486e-05 0)
(7.39106e-05 -0.000142616 0)
(0.000135092 -0.000224405 0)
(0.000209663 -0.000304989 0)
(0.000293235 -0.000381329 0)
(0.000383438 -0.000453032 0)
(0.000477767 -0.000518305 0)
(0.000574655 -0.000577859 0)
(0.000672106 -0.000630295 0)
(0.000769215 -0.000676885 0)
(0.000864232 -0.000716119 0)
(0.000956716 -0.00074927 0)
(0.00104523 -0.000774368 0)
(0.00112988 -0.000793327 0)
(0.00120947 -0.000804368 0)
(0.00128439 -0.000808494 0)
(0.00135377 -0.000803699 0)
(0.00141906 -0.000791937 0)
(0.00147994 -0.000771363 0)
(0.00153802 -0.000744038 0)
(0.00159224 -0.000708338 0)
(0.00164398 -0.000666483 0)
(0.00169265 -0.000616612 0)
(0.00173972 -0.000560885 0)
(0.00178422 -0.00049842 0)
(0.00182734 -0.000431685 0)
(0.00186733 -0.00035959 0)
(0.00190491 -0.000284225 0)
(0.00193809 -0.000204523 0)
(0.00196696 -0.000122755 0)
(0.00198972 -3.79393e-05 0)
(0.00200652 4.74487e-05 0)
(0.00201547 0.000134229 0)
(0.00201667 0.000220134 0)
(0.00200892 0.000305508 0)
(0.00199238 0.000388458 0)
(0.00196646 0.000470347 0)
(0.0019322 0.000548751 0)
(0.00189041 0.00062301 0)
(0.00184127 0.0006898 0)
(0.00178519 0.000750157 0)
(0.00172283 0.000803896 0)
(0.00165624 0.000851852 0)
(0.00158467 0.00088944 0)
(0.0015098 0.000918348 0)
(0.00143058 0.00093561 0)
(0.00135091 0.000943254 0)
(0.00126888 0.000939635 0)
(0.00118671 0.000927727 0)
(0.00110136 0.000904105 0)
(0.00101796 0.000872232 0)
(0.000933227 0.000829686 0)
(0.00085175 0.000782492 0)
(0.000768166 0.000726544 0)
(0.000688478 0.000667214 0)
(0.000607897 0.000600607 0)
(0.000533282 0.000533764 0)
(0.000459799 0.000462959 0)
(0.000395101 0.000396054 0)
(0.00033233 0.000326954 0)
(0.000279661 0.000264316 0)
(0.000230213 0.000202001 0)
(0.000191793 0.000148924 0)
(0.00015664 9.76489e-05 0)
(0.000132073 5.72998e-05 0)
(0.000109877 1.96593e-05 0)
(9.64173e-05 -6.40978e-06 0)
(8.32615e-05 -2.97334e-05 0)
(7.59522e-05 -4.20906e-05 0)
(6.68057e-05 -5.24594e-05 0)
(6.08437e-05 -5.34834e-05 0)
(5.16492e-05 -5.36854e-05 0)
(4.36235e-05 -4.68822e-05 0)
(3.20461e-05 -4.05858e-05 0)
(2.09372e-05 -3.00104e-05 0)
(7.7424e-06 -2.08744e-05 0)
(-3.20969e-06 -9.15281e-06 0)