/*--------------------------------*- C++ -*----------------------------------*\
| =========                 |                                                 |
| \\      /  F ield         | OpenFOAM: The Open Source CFD Toolbox           |
|  \\    /   O peration     | Version:  2412                                  |
|   \\  /    A nd           | Website:  www.openfoam.com                      |
|    \\/     M anipulation  |                                                 |
\*---------------------------------------------------------------------------*/
FoamFile
{
    version     2.0;
    format      ascii;
    arch        "LSB;label=32;scalar=64";
    class       volScalarField;
    location    "6.45";
    object      alpha.oil;
}
// * * * * * * * * * * * * * * * * * * * * * * * * * * * * * * * * * * * * * //

dimensions      [0 0 0 0 0 0 0];

internalField   nonuniform List<scalar> 
6400
(
1
0.999996
0.999997
0.999997
0.999997
0.999999
1
0.999999
1
1
1
1
1
1
1
1
1.00001
1.00001
1
1
1
1
1
1
1
0.999999
0.999998
0.999998
0.999998
0.999998
0.999998
0.999998
0.999998
0.999998
0.999998
0.999998
0.999998
0.999998
0.999998
0.999998
0.999999
0.999999
0.999999
0.999999
0.999999
0.999998
0.999998
0.999998
0.999998
0.999999
0.999999
0.999998
0.999998
0.999998
0.999998
0.999998
0.999998
0.999997
0.999997
0.999998
0.999998
0.999999
0.999999
0.999999
1
1
1
1
1
1
1
1
1
1
1
1
1
1
1.00001
1.00001
0.999996
0.999994
0.999995
0.999997
0.999998
0.999999
0.999999
1
1
1
1
1
1
1.00001
1.00001
1.00001
1.00001
1.00001
1
1
1
1
1
1
0.999999
0.999998
0.999997
0.999997
0.999997
0.999997
0.999997
0.999997
0.999997
0.999997
0.999997
0.999997
0.999997
0.999998
0.999998
0.999998
0.999998
0.999998
0.999998
0.999997
0.999997
0.999997
0.999997
0.999997
0.999997
0.999997
0.999996
0.999996
0.999996
0.999996
0.999996
0.999996
0.999996
0.999997
0.999997
0.999997
0.999998
0.999998
0.999999
1
1
1
1
1
1
1
1
1
1
1
1
1.00001
1.00001
1.00001
1.00001
1
0.999996
0.999996
0.999997
0.999998
0.999998
0.999999
0.999999
0.999999
1
1
1
1
1
0.999999
0.999998
0.999999
1
1
1
1
1
1
1
1
1
1
1
1
1
1
1
1
1
1
1
1
1
1
1
1
1
1
1
1
1
1
1
0.999999
0.999999
0.999999
0.999999
0.999999
0.999999
0.999999
1
1
1
0.999999
0.999999
0.999998
0.999998
0.999998
0.999998
0.999998
0.999998
0.999999
0.999999
0.999999
0.999999
0.999999
0.999998
0.999998
0.999998
0.999999
1
1
1
1
1
0.999997
0.999998
0.999998
0.999998
0.999999
0.999998
0.999999
0.999999
0.999998
0.999998
0.999998
0.999998
0.999997
0.999997
0.999995
0.999994
0.999994
0.999995
0.999997
0.999998
0.999998
0.999998
0.999999
0.999999
0.999999
0.999999
1
1
1
1
1
1
1
1
1
1
1
1
1
1
1
1
1
1
1
1
1.00001
1
1
1
1
1
1
1
1
1
1
1
1
1
1
1
1
1
1
1
0.999999
0.999998
0.999998
0.999997
0.999997
0.999997
0.999997
0.999997
0.999998
0.999998
0.999997
0.999997
0.999997
0.999995
0.999993
0.999999
0.999999
0.999999
0.999999
0.999998
0.999998
0.999998
0.999997
0.999997
0.999997
0.999996
0.999997
0.999997
0.999996
0.999993
0.999992
0.999992
0.999993
0.999994
0.999994
0.999995
0.999995
0.999996
0.999997
0.999998
0.999998
0.999999
1
1
1
1
1
1
1
1
1
1.00001
1.00001
1.00001
1.00001
1.00001
1.00001
1.00001
1.00001
1.00001
1.00001
1.00001
1.00001
1.00001
1.00001
1.00001
1.00001
1.00001
1.00001
1.00001
1.00001
1
1
1
1
1
1
1
1
1
1
0.999999
0.999998
0.999997
0.999997
0.999997
0.999997
0.999997
0.999997
0.999996
0.999995
0.999994
0.999993
0.99999
0.999996
1
1
0.999999
0.999999
0.999998
0.999998
0.999998
0.999997
0.999998
0.999998
0.999998
0.999999
1
1
0.999999
0.999996
0.999995
0.999995
0.999995
0.999996
0.999996
0.999996
0.999997
0.999997
0.999998
0.999999
0.999999
1
1
1
1
1
1
1
1
1
1
1
1
1
1
1
1
1
1
1
1
1
1
1
1
1
1
1
1
1
1
1
1
1
1
1
1
1
1
0.999999
0.999998
0.999997
0.999997
0.999997
0.999998
0.999998
0.999998
0.999998
0.999997
0.999996
0.999995
0.999993
0.999994
1
0.999999
1
1
0.999999
0.999999
1
0.999999
0.999999
1
1
1
1
1
1.00001
1.00001
1
1
1
1
1
1
1
1
1
1
1
1
1
1
0.999999
0.999999
1
1
1
1
0.999999
0.999999
0.999998
0.999998
0.999998
0.999998
0.999997
0.999996
0.999995
0.999995
0.999995
0.999996
0.999996
0.999997
0.999997
0.999997
0.999998
0.999998
0.999998
0.999998
0.999998
0.999998
0.999998
0.999998
0.999998
0.999998
0.999998
0.999998
0.999998
0.999998
0.999997
0.999997
0.999997
0.999997
0.999998
0.999999
0.999999
1
1
1
0.999999
0.999999
0.999999
1
1.00001
1
1
1
1
1
1
1
1
1
1
0.999999
0.999999
1
1
1.00001
1
1
1
1
1
1
1
1
1
1
1
1
1
0.999999
0.999998
0.999998
0.999998
0.999998
0.999998
0.999998
0.999997
0.999997
0.999996
0.999996
0.999996
0.999996
0.999996
0.999995
0.999994
0.999994
0.999994
0.999994
0.999994
0.999994
0.999994
0.999994
0.999994
0.999994
0.999994
0.999994
0.999994
0.999995
0.999995
0.999995
0.999995
0.999996
0.999996
0.999996
0.999996
0.999997
0.999997
0.999998
0.999999
1
1
1
1
1
1
1
1
1
1
1.00001
1
1
1
1
1
1
1
1
1
1
1
0.999996
0.999993
0.999995
0.999998
0.999999
0.999999
0.999998
0.999998
0.999999
0.999999
0.999999
0.999999
1
1
0.999999
0.999999
0.999999
0.999999
0.999998
0.999997
0.999997
0.999998
0.999998
0.999998
0.999998
0.999998
0.999998
0.999998
0.999998
0.999999
0.999999
0.999999
0.999999
1
1
1
1
1
1
0.999999
0.999999
0.999999
0.999999
0.999999
0.999999
0.999999
0.999999
0.999998
0.999998
0.999998
0.999998
0.999998
0.999998
0.999998
0.999999
0.999999
1
1
1
1
1
1
1
0.999999
0.999999
0.999998
1
1
1
0.99999
1
1
1
1
1
1.00001
1
1
1
1
0.999997
0.999993
0.999993
0.999994
0.999995
0.999996
0.999996
0.999996
0.999996
0.999997
0.999997
0.999997
0.999998
0.999998
0.999998
0.999998
0.999998
0.999998
0.999998
0.999997
0.999996
0.999997
0.999997
0.999998
0.999999
0.999999
1
1
1
1
1
1
1
1
1
1
1
1
1
1
1
1
1
1
1
1
1
1
1
1
1
0.999999
0.999999
0.999998
0.999998
0.999999
1
1
1
1
1
0.999999
0.999999
0.999998
0.999998
0.999998
1
1
0.999993
0.999992
1
1
1
1
1
1.00001
1
0.999999
1
1
1
0.999999
0.999998
0.999999
1
0.999999
0.999999
0.999999
0.999999
0.999999
0.999999
1
1
0.999999
0.999999
0.999999
0.999998
0.999998
0.999998
0.999998
0.999998
0.999998
0.999998
0.999998
0.999999
0.999999
0.999999
0.999998
0.999998
0.999998
0.999998
0.999998
0.999998
0.999998
0.999998
0.999998
0.999998
0.999998
0.999998
0.999998
0.999998
0.999998
0.999998
0.999998
0.999998
0.999998
0.999999
1
1
1
1
0.999999
0.999999
0.999998
0.999998
0.999998
0.999999
1
1
1
1
0.999999
0.999999
0.999999
1
1
1
1
0.99999
1.00001
1
1
1
1
0.999998
1
0.999999
0.999998
1
1
1
1
1
1
1
1
1
1
1
1
1
1
1
1
1
1
1
1
1
1
1
1
1
1
1
1
0.999999
0.999999
0.999998
0.999998
0.999998
0.999997
0.999997
0.999996
0.999996
0.999996
0.999996
0.999996
0.999995
0.999995
0.999994
0.999994
0.999994
0.999994
0.999995
0.999996
0.999997
0.999998
0.999999
1
1
1
1
1
1
1
1
1
1
1
0.999999
0.999999
0.999999
1
1
1
1
0.999996
0.999999
1.00001
1
0.999999
1
0.999999
0.999997
1
0.999996
0.999996
1
1
0.999998
0.999997
0.999997
0.999998
0.999999
0.999999
0.999999
0.999999
0.999999
0.999999
0.999999
1
1
1
1
0.999999
1
1
1
1
1
1
1
1
1
1
1
1
1
1
1
1
1
1
1
1
1
1
1
1
1
1
1
1
1
1
1
1
1
1
1
1
1
1
1
1
1
1
1
0.999999
0.999998
0.999998
0.999998
1
1
1
0.999996
0.999993
1.00001
0.999996
1
0.999997
0.999999
0.999996
1
0.999999
0.999995
0.999996
0.999999
0.999999
0.999997
0.999996
0.999996
0.999997
0.999998
0.999998
0.999998
0.999998
0.999998
0.999999
0.999999
0.999999
0.999999
0.999999
1
0.999999
0.999999
1
1
0.999999
0.999999
0.999999
0.999999
0.999999
0.999999
1
1
1
1
1
1
1
1
1
1
1
1
1
1
1
1
1
1
1
1
1
0.999999
0.999999
0.999998
0.999998
0.999998
0.999999
0.999999
1
1
1
1
1
1
0.999999
0.999999
0.999999
1
1
1
0.999998
0.999994
1
1
0.999991
0.999999
0.999998
1
0.999996
1.00001
1
0.999998
1
1
1
1
1
1
1
1
1
1
1
1
1
1
1
1
1
0.999999
0.999999
0.999999
0.999998
0.999996
0.999996
0.999996
0.999996
0.999998
0.999998
0.999999
0.999999
1
1
1
1
1
1
1
1
0.999999
0.999999
0.999999
0.999999
0.999999
0.999999
0.999999
0.999998
0.999998
0.999997
0.999997
0.999996
0.999996
0.999996
0.999996
0.999997
0.999997
0.999997
0.999998
0.999998
0.999999
1
1
1
1
1
1
1
1
1
1
0.999998
0.999999
1.00001
0.999993
1
1
1
1.00001
1
1.00001
1
1
1
1
1
1
1
1
1
1
1
1
1
1
0.999999
0.999999
0.999999
0.999999
0.999999
0.999999
0.999998
0.999997
0.999997
0.999997
0.999997
0.999998
0.999999
0.999999
1
1
0.999999
0.999998
0.999998
0.999998
0.999998
0.999998
0.999997
0.999997
0.999997
0.999997
0.999997
0.999997
0.999997
0.999997
0.999997
0.999997
0.999996
0.999996
0.999996
0.999998
0.999998
0.999998
0.999998
0.999998
0.999997
0.999997
0.999997
0.999998
0.999999
0.999999
0.999999
0.999999
1
1
1
1
1
1
1
1
0.999998
1
1.00001
0.999994
1.00001
1
1
1
1.00001
1.00001
1
1
1
1
0.999999
0.999998
0.999997
0.999997
0.999997
0.999997
0.999997
0.999997
0.999997
0.999998
0.999997
0.999998
0.999999
0.999999
0.999999
0.999999
0.999999
1
1
1
1
1
1
1
1
0.999999
0.999998
0.999998
0.999998
0.999998
0.999998
0.999998
0.999998
0.999998
0.999998
0.999998
0.999998
0.999999
0.999999
1
1
1
1
1
1
1
1
1
1
1
1
1
1
1
1
1
1
0.999999
0.999999
1
1
1
1
1
1
0.999998
0.999998
1.00001
0.999996
1.00001
1
1
1
0.999998
1
1
1
1
1
1
0.999999
0.999999
0.999999
0.999998
0.999998
0.999998
0.999999
0.999999
0.999999
0.999999
0.999999
0.999999
0.999999
1
1
1
1
1
1
1
1
1
1
1
1
1
1
0.999999
0.999998
0.999998
0.999997
0.999997
0.999997
0.999997
0.999998
0.999998
0.999998
0.999999
0.999999
0.999999
0.999999
0.999999
0.999999
1
1
1
1
1
1
1
1
1
1
1
1
1
1
1
0.999999
1
1
1
1
1
1
0.999999
0.999999
1
0.999996
1
0.999995
1
1
0.999999
1
1
1
0.999999
1
1
0.999999
0.999999
0.999998
0.999998
0.999998
0.999998
0.999998
0.999999
0.999999
0.999999
0.999999
1
1
1
1
1
1
1
1
1
1
1
1
1
1
1
1
1
1
1
1
1
1
1
1
1
1
1
1
1
1
1
1
1
1
1
1
1
1
1
1
1
1
1
1
1
1
0.999999
0.999999
1
1
1
1
1
1
0.999999
0.999999
1
0.999998
1
0.999998
0.926304
0.921945
0.919398
0.917571
0.915854
0.91421
0.913246
0.913212
0.912952
0.912377
0.91192
0.911533
0.910844
0.909769
0.908638
0.907851
0.907586
0.907585
0.907544
0.907309
0.906672
0.90534
0.903131
0.902122
0.904133
0.905745
0.905512
0.904749
0.903966
0.902864
0.901355
0.899491
0.898199
0.899235
0.90157
0.903658
0.90543
0.906716
0.907194
0.907701
0.907926
0.907199
0.906532
0.90588
0.904261
0.902614
0.899794
0.896806
0.897135
0.898937
0.900726
0.901974
0.902932
0.903852
0.904503
0.903249
0.901008
0.900926
0.903217
0.905229
0.90612
0.906454
0.906555
0.906695
0.907016
0.907205
0.907344
0.9084
0.909871
0.910945
0.911572
0.912119
0.912732
0.912962
0.913548
0.915087
0.916953
0.91884
0.921392
0.925753
0.20008
0.199432
0.197458
0.195312
0.193715
0.19266
0.191758
0.189953
0.188979
0.188361
0.187861
0.187449
0.187244
0.187621
0.187478
0.186902
0.18644
0.185777
0.185289
0.185112
0.185451
0.186506
0.187827
0.188894
0.186485
0.185094
0.184892
0.185397
0.186228
0.18738
0.188893
0.191248
0.193659
0.19483
0.193421
0.191756
0.190217
0.189054
0.188417
0.187948
0.187784
0.188186
0.188704
0.189355
0.190554
0.191978
0.193872
0.194593
0.1923
0.189775
0.187976
0.186501
0.18538
0.184604
0.184447
0.18564
0.188445
0.188042
0.186393
0.18487
0.184206
0.184267
0.184708
0.185289
0.185988
0.186677
0.188153
0.188438
0.188216
0.188029
0.188368
0.188928
0.189719
0.190958
0.192725
0.193855
0.195471
0.19766
0.1997
0.200512
4.58766e-06
4.58678e-06
4.58766e-06
4.6156e-06
4.69684e-06
4.75427e-06
4.75152e-06
4.89742e-06
7.71922e-06
1.17897e-05
1.46875e-05
1.7315e-05
1.98687e-05
2.15235e-05
2.17191e-05
2.30757e-05
2.87062e-05
3.40505e-05
3.65549e-05
3.86328e-05
3.98511e-05
4.06897e-05
5.26162e-05
9.68786e-05
0.000182609
0.000302275
0.000457691
0.000652385
0.000885625
0.00115514
0.00144179
0.00107463
0.000623815
7.5313e-05
1.18961e-05
4.74862e-06
1.94159e-06
1.87459e-06
1.86709e-06
1.86652e-06
1.84939e-06
1.83478e-06
1.79304e-06
1.79218e-06
2.65671e-06
5.39106e-06
2.94467e-05
0.000577746
0.00104454
0.0013415
0.00107268
0.00082416
0.000609656
0.00042916
0.000286453
0.000172173
8.38758e-05
5.42173e-05
5.45132e-05
4.74918e-05
4.52968e-05
4.27101e-05
3.90508e-05
3.49962e-05
2.65557e-05
1.85869e-05
1.72346e-05
1.70579e-05
1.56265e-05
1.27879e-05
9.91394e-06
7.20236e-06
3.66883e-06
1.10247e-06
8.8772e-07
8.88143e-07
8.77109e-07
8.61457e-07
8.56416e-07
8.58183e-07
4.58628e-06
5.98562e-06
2.06467e-05
5.63581e-05
2.25067e-05
4.75427e-06
0.000161578
0.00141691
0.00145643
0.00142785
0.00135787
0.00140412
0.00140426
0.000568925
0.00172815
0.00333489
0.00333756
0.00333825
0.0033388
0.00333912
0.0033393
0.00333944
0.0033393
0.00198491
0.00421867
0.00421882
0.00421933
0.00413181
0.00390317
0.00388043
0.00389002
0.00388461
0.00219673
1.46558e-05
6.1822e-06
2.7379e-06
1.89839e-07
1.19047e-07
7.83026e-08
5.0139e-08
2.93385e-08
5.61568e-08
6.58585e-08
9.72199e-08
9.2215e-07
1.79421e-06
4.78677e-07
0.000759024
0.0037734
0.00442319
0.00442368
0.00441171
0.00467495
0.00472539
0.00472517
0.00462372
0.00142863
0.00317015
0.00404937
0.00404937
0.00404937
0.00404937
0.00404909
0.00404858
0.00404382
0.00393044
0.00168858
0.000489538
0.000678869
0.00132227
0.00132251
0.00132227
0.00132194
0.00122689
0.000186468
8.8772e-07
1.73489e-05
1.4656e-05
6.68474e-06
8.50923e-07
4.59311e-06
4.68315e-06
6.06363e-05
6.00023e-05
3.90942e-05
9.32869e-06
0.00013248
0.000134178
0.000196369
0.000296979
0.000430977
0.000540244
0.000616521
0.000662763
0.000631435
9.35711e-05
0.000172516
0.000232573
0.000296138
0.000348449
0.000381772
0.00037868
0.000342315
0.000635002
7.98841e-05
1.98872e-06
8.53975e-08
4.38375e-08
1.06772e-08
1.29328e-09
3.36161e-10
2.0453e-10
3.36202e-10
3.23205e-06
1.11052e-05
2.74816e-06
1.17636e-07
7.82345e-08
5.44115e-08
3.76104e-08
7.22988e-09
1.92226e-08
2.13903e-08
2.49427e-08
8.84769e-07
2.17044e-06
3.91997e-07
1.18569e-09
2.14515e-09
7.94269e-09
3.88778e-08
3.05585e-08
1.84592e-08
3.30879e-09
1.23648e-05
0.000256993
0.00101504
0.000696479
0.00031273
0.000361148
0.000339237
0.000271565
0.000173593
0.000114443
5.16117e-07
7.85871e-07
0.000582422
0.000709845
0.000709826
0.000483041
0.000368815
0.000259341
0.000133842
4.17126e-05
5.939e-05
3.60261e-05
5.83158e-05
5.83158e-05
4.04772e-06
8.45429e-07
1.96663e-05
7.24872e-05
7.025e-05
4.40533e-05
2.35042e-05
1.14767e-05
5.76849e-06
4.1131e-07
2.65304e-07
1.81665e-07
1.23966e-07
6.44791e-08
2.64103e-06
8.28694e-05
3.44122e-07
2.6465e-09
5.85912e-10
5.8009e-10
5.74323e-10
5.71046e-10
5.71046e-10
5.70988e-10
5.71046e-10
5.82394e-10
2.3253e-06
1.03845e-05
1.09553e-05
1.09524e-05
1.09486e-05
2.06731e-06
2.12992e-11
2.13287e-11
2.10408e-10
4.36317e-06
1.09917e-05
6.57856e-07
1.42291e-07
3.99102e-07
4.63191e-07
3.5685e-08
6.94447e-09
1.82497e-08
1.99691e-08
1.4205e-08
8.59548e-07
2.22789e-06
6.7073e-07
3.36335e-11
4.76757e-07
1.84776e-06
1.84991e-06
1.84625e-06
1.16163e-06
2.11222e-10
1.52606e-09
3.47854e-09
3.48895e-09
2.24765e-09
6.16266e-10
4.58254e-10
4.36332e-10
4.58254e-10
4.99609e-10
7.1743e-10
5.1138e-07
9.42195e-07
1.28132e-09
5.52508e-05
2.47692e-05
7.06699e-09
7.06699e-09
4.67086e-08
9.27719e-06
4.22201e-05
5.88735e-05
5.80892e-05
5.83158e-05
5.79151e-05
3.7314e-05
8.49681e-07
0.000143917
0.000143944
1.45597e-05
2.18243e-06
7.01194e-07
5.57639e-07
4.11346e-07
2.59691e-07
9.9001e-08
5.9318e-08
3.63584e-08
2.16782e-08
1.42147e-08
9.85981e-09
2.53908e-08
3.69273e-09
2.84626e-09
2.4555e-09
2.58124e-09
2.07411e-09
8.05824e-10
8.87681e-10
5.74597e-09
7.23849e-09
2.10175e-11
2.06173e-11
2.05937e-11
2.09347e-11
2.12252e-11
2.12505e-11
2.12802e-11
2.12992e-11
9.00131e-07
6.7128e-06
4.98611e-06
2.13036e-07
2.8412e-07
7.08969e-07
7.11377e-07
4.67158e-07
6.86709e-09
2.11083e-08
2.78953e-08
1.36103e-08
4.70961e-07
2.22329e-06
1.40922e-06
3.36335e-11
3.36329e-11
3.37635e-11
3.55158e-11
3.24838e-11
2.89131e-11
2.89397e-11
2.92239e-11
1.55388e-08
1.36486e-07
1.41925e-07
1.42013e-07
9.50618e-08
4.2867e-10
4.67451e-10
9.46866e-10
1.52139e-09
1.58583e-09
2.77719e-09
1.28132e-09
1.28067e-09
2.02265e-09
4.88989e-09
1.47485e-08
7.76537e-08
3.60052e-06
8.29101e-06
4.18554e-06
7.29147e-07
7.57165e-06
3.81835e-05
6.75919e-05
5.21919e-05
0.000143955
7.45534e-05
1.77396e-05
2.632e-05
5.46957e-06
6.47409e-07
2.1393e-07
1.00086e-07
5.9319e-08
3.63604e-08
2.16784e-08
1.42141e-08
9.86219e-09
7.49983e-09
7.10272e-09
6.96535e-09
1.41697e-08
1.57923e-08
8.82993e-09
2.52115e-09
9.75349e-10
3.73465e-10
5.81894e-11
2.59464e-11
2.06173e-11
2.05937e-11
2.05937e-11
2.11486e-11
2.52381e-11
2.23221e-11
2.12294e-11
2.13287e-11
1.88615e-06
6.06106e-06
2.13036e-07
2.13036e-07
2.89212e-07
3.93675e-07
7.11095e-07
6.55614e-07
6.89181e-09
7.27537e-09
2.80073e-08
1.35303e-08
4.74389e-08
1.88925e-06
1.5234e-06
3.36329e-11
5.01031e-11
3.25176e-10
2.91726e-10
6.81101e-11
2.89131e-11
2.8913e-11
2.89397e-11
2.92238e-11
3.1578e-11
2.8812e-10
2.96416e-10
3.21123e-10
3.89311e-10
7.57549e-10
3.71056e-09
8.63818e-09
1.00118e-08
8.12293e-09
2.71187e-09
2.01992e-09
7.7535e-09
1.47507e-08
6.11729e-07
9.27908e-06
1.36412e-05
3.45895e-06
7.39884e-07
4.65692e-08
4.0371e-08
6.48425e-08
6.86707e-05
0.000138213
0.000140554
6.44198e-05
0.000161678
0.000257776
0.000143418
9.03185e-06
6.98801e-07
2.14347e-07
1.00172e-07
1.73124e-07
8.95901e-08
1.61177e-08
9.31139e-09
7.92869e-09
7.50059e-09
1.13942e-08
2.78264e-08
2.78764e-08
1.4985e-08
1.04916e-09
4.77078e-10
4.99374e-10
3.66801e-10
1.50403e-10
3.88497e-11
2.30242e-11
2.52276e-11
5.27842e-11
7.46178e-11
3.41761e-11
2.11452e-11
2.04845e-07
2.13417e-06
6.6931e-07
2.41042e-07
3.86437e-07
2.70081e-07
1.56089e-07
3.68887e-07
7.5818e-07
3.44788e-07
1.34605e-09
6.72833e-09
7.55102e-09
4.6958e-09
1.99204e-07
5.22632e-07
1.08452e-07
4.48358e-11
7.54394e-11
8.3609e-11
3.75457e-11
3.07463e-11
3.13751e-11
7.32496e-11
1.74663e-10
2.62694e-10
3.13798e-10
3.52547e-10
4.1332e-10
5.27502e-10
8.82998e-10
2.68901e-09
6.62899e-09
9.46717e-09
8.00791e-09
3.55247e-09
7.7501e-09
2.50755e-07
8.24325e-06
1.38658e-05
1.38443e-05
1.38837e-05
1.38443e-05
1.02042e-05
4.0371e-08
3.65951e-08
3.74326e-08
3.73494e-05
0.000138216
0.000130867
0.00010278
0.000263546
0.000263401
0.000263067
3.99798e-05
1.12272e-06
3.74536e-07
1.87514e-07
1.25808e-06
2.72849e-06
1.66303e-06
3.7284e-08
9.29334e-09
7.93187e-09
1.22433e-08
2.74102e-08
2.78783e-08
1.83365e-08
1.5852e-09
1.95996e-10
1.87966e-10
1.54055e-10
9.26636e-11
3.63637e-11
1.82351e-11
2.02532e-11
5.95295e-11
7.85222e-11
2.19456e-11
2.13756e-11
4.34558e-07
2.13161e-06
2.44083e-07
3.57073e-07
8.44968e-07
5.40431e-07
1.49952e-07
2.80542e-07
7.5818e-07
5.3628e-07
1.32047e-09
3.67306e-09
3.96925e-09
4.21894e-09
3.58294e-09
2.09704e-09
3.56479e-08
1.11675e-09
6.98519e-11
7.03318e-11
4.07228e-11
2.2934e-11
1.803e-11
3.41799e-11
1.4349e-10
3.73694e-10
5.68074e-10
6.20613e-10
6.13398e-10
5.66418e-10
5.40327e-10
6.87408e-10
1.02669e-09
2.48267e-09
8.74173e-09
3.23527e-08
3.39634e-07
8.49821e-06
1.34514e-05
1.37028e-05
1.32693e-05
1.18934e-05
1.03825e-05
3.9641e-06
1.57422e-07
3.36568e-08
3.34156e-08
3.11958e-05
0.000138213
0.000174139
0.000263546
0.000263546
0.00026359
0.000263401
4.91114e-05
7.71618e-07
1.87512e-07
7.22681e-08
2.19069e-06
2.82022e-06
2.88492e-06
1.05055e-06
2.81305e-08
1.32757e-08
1.48079e-08
2.65504e-08
2.29474e-08
5.95185e-09
3.49894e-10
3.0069e-10
2.17123e-10
1.29711e-10
6.71721e-11
2.74313e-11
1.19906e-11
1.20462e-11
2.98403e-11
7.11704e-11
1.79848e-11
3.89478e-08
5.277e-07
5.36216e-07
2.45743e-07
5.62802e-07
8.46469e-07
8.47718e-07
1.46296e-07
1.20291e-07
7.5818e-07
3.12822e-07
1.27678e-09
3.22549e-09
4.7422e-09
4.70921e-09
2.03831e-09
7.03268e-10
5.07145e-10
1.75914e-09
1.74343e-10
4.88868e-11
2.4879e-11
9.96023e-12
6.5519e-12
1.21141e-11
7.44449e-11
2.44256e-10
3.99116e-10
4.41026e-10
3.85271e-10
3.06945e-10
3.0112e-10
4.53341e-10
6.61482e-10
9.70455e-10
2.60422e-09
9.98363e-09
7.38532e-08
1.82337e-06
4.72507e-06
5.79746e-06
5.54073e-06
1.2301e-06
1.76741e-07
4.29461e-08
3.36568e-08
3.3348e-08
3.34156e-08
1.35799e-05
0.000138125
0.000135283
0.000263492
0.000263571
0.000263492
0.00026268
3.66619e-05
3.86097e-07
7.22639e-08
2.11025e-08
2.00848e-06
2.88492e-06
2.90461e-06
2.88492e-06
5.59799e-07
2.47497e-08
1.79822e-08
1.82469e-08
9.62412e-09
1.43647e-09
4.38935e-10
3.0387e-10
1.86069e-10
1.04933e-10
5.15661e-11
1.96723e-11
8.5388e-12
6.39397e-12
9.29477e-12
4.0378e-11
1.72907e-11
2.53565e-09
5.21711e-07
2.55373e-07
2.9921e-07
3.91163e-07
8.48033e-07
8.47899e-07
2.68206e-07
2.17462e-08
6.33466e-07
2.06087e-07
1.20591e-09
3.48752e-09
5.65875e-09
5.36777e-09
1.77914e-09
5.59318e-10
4.71599e-10
8.76911e-10
1.39657e-10
3.04873e-11
9.52236e-12
3.00556e-12
2.22228e-12
4.56484e-12
3.0284e-11
1.19531e-10
2.2992e-10
2.70512e-10
2.48344e-10
2.13086e-10
2.13004e-10
2.25005e-10
3.0576e-10
7.77232e-10
3.08963e-09
2.01962e-08
7.55283e-08
3.58176e-07
1.1629e-06
3.28183e-06
1.37074e-05
1.22786e-05
1.09386e-06
1.53547e-07
4.07007e-08
3.36568e-08
3.33602e-08
1.08255e-06
5.20337e-05
9.49134e-05
0.00026303
0.000263492
0.00026303
0.000260429
3.63645e-05
1.71962e-07
1.91314e-08
2.58311e-09
1.69636e-06
2.90461e-06
2.90889e-06
2.90461e-06
8.92968e-07
1.65259e-08
9.74981e-09
8.62165e-09
3.18667e-09
7.7659e-10
4.15049e-10
2.36319e-10
1.34447e-10
8.02608e-11
3.87922e-11
1.36987e-11
5.92998e-12
3.77126e-12
3.78553e-12
1.12277e-11
1.70079e-11
1.72907e-11
1.77139e-07
2.55167e-07
1.80765e-07
1.70797e-07
8.47899e-07
8.47963e-07
1.50043e-07
4.84559e-09
5.74299e-07
2.47182e-07
1.13543e-09
3.15158e-09
5.65875e-09
5.65875e-09
3.07535e-09
7.72326e-10
4.42083e-10
4.32066e-10
7.03936e-11
1.51121e-11
2.96928e-12
1.15157e-12
1.08327e-12
2.88468e-12
1.65375e-11
6.9937e-11
1.45051e-10
1.83836e-10
1.94956e-10
2.0572e-10
2.25885e-10
3.05838e-10
6.91282e-10
9.51611e-08
5.4484e-07
5.29385e-07
2.58745e-06
7.01952e-06
2.66978e-05
8.74304e-05
0.000189076
0.000199167
9.84436e-05
2.39851e-06
1.50497e-07
4.0638e-08
7.68491e-08
9.94843e-08
1.01686e-07
8.45986e-05
0.000225628
0.00026303
0.000262137
0.000127699
9.21364e-06
5.1474e-09
4.7407e-10
1.57e-10
4.82852e-07
2.90778e-06
2.90772e-06
2.34852e-06
3.8966e-07
7.24868e-09
3.33578e-09
2.08401e-09
1.08794e-09
6.3136e-10
3.24365e-10
1.44956e-10
8.63147e-11
5.61415e-11
2.67295e-11
8.80465e-12
3.62993e-12
2.21454e-12
1.92383e-12
3.68925e-12
1.82341e-11
1.79128e-11
1.92304e-11
2.29395e-07
7.62548e-08
1.42182e-07
4.95778e-07
2.83863e-07
1.92545e-08
4.34358e-09
8.25223e-07
2.17172e-07
1.08966e-09
1.97088e-09
4.73511e-09
5.59885e-09
4.38191e-09
9.21062e-10
3.19288e-10
1.78587e-10
2.77134e-11
6.02014e-12
9.80211e-13
5.63332e-13
7.06872e-13
2.15872e-12
1.18597e-11
4.79761e-11
9.87595e-11
1.31733e-10
1.56338e-10
3.01598e-10
1.10676e-09
5.62062e-09
2.91634e-08
1.59219e-07
1.3075e-05
6.35614e-05
0.00010667
0.000122751
0.000173989
0.000253329
0.00025544
0.000255311
0.000256208
8.30992e-05
8.40749e-07
1.32412e-07
8.927e-08
1.01682e-07
2.81188e-05
7.45877e-05
7.56981e-05
0.000261424
0.000184279
1.83756e-06
3.60017e-07
4.7196e-10
9.8299e-12
1.34412e-11
1.57001e-10
7.35581e-07
1.26485e-06
3.10559e-07
6.91969e-08
2.66238e-09
5.23568e-10
5.13195e-10
5.12131e-10
3.94079e-10
1.77967e-10
6.94601e-11
4.71477e-11
3.2962e-11
1.58744e-11
4.98586e-12
1.82921e-12
1.08185e-12
9.72479e-13
1.93394e-12
1.36497e-11
1.80707e-11
6.3244e-10
6.8724e-08
1.82669e-09
8.92006e-08
1.6436e-08
2.35409e-09
2.12998e-09
3.56146e-09
8.26842e-07
2.98626e-07
1.06577e-09
1.19558e-09
2.22154e-09
3.89348e-09
3.36095e-09
8.36052e-10
1.77465e-10
5.70926e-11
1.16197e-11
2.26648e-12
3.97274e-13
2.8425e-13
4.36595e-13
1.5453e-12
8.82562e-12
3.31176e-11
6.58213e-11
8.41708e-11
7.12023e-11
1.88654e-10
1.21138e-09
9.19076e-09
6.34601e-08
3.94137e-07
3.10836e-05
0.000146058
0.000147546
0.000148821
0.00014598
0.00018586
0.000255137
0.00025628
0.000256334
0.000248923
3.06588e-05
3.70813e-07
1.20009e-07
1.06843e-07
5.40281e-05
6.99417e-05
7.00096e-05
0.000259409
1.11976e-05
2.98516e-07
1.86669e-08
-2.50556e-12
7.31759e-12
4.36875e-12
1.34416e-11
1.0337e-09
8.28914e-09
5.11271e-09
7.84807e-09
1.84593e-09
2.86977e-10
2.64952e-10
2.3644e-10
1.53228e-10
5.71076e-11
2.53126e-11
1.98729e-11
1.49147e-11
7.74166e-12
2.43895e-12
7.51231e-13
4.28664e-13
4.2505e-13
1.13198e-12
7.72024e-12
2.15356e-11
1.34469e-10
9.6382e-11
2.21274e-10
2.83253e-09
1.83196e-09
2.05446e-09
2.11471e-09
1.0922e-08
8.26871e-07
5.76646e-07
1.05615e-09
1.04394e-09
1.01523e-09
9.71042e-10
1.08605e-09
4.31293e-10
8.0257e-11
2.15762e-11
5.96966e-12
1.00614e-12
1.81115e-13
1.32745e-13
2.22424e-13
9.85648e-13
5.95909e-12
2.01461e-11
3.67443e-11
4.38015e-11
1.86412e-11
4.84102e-11
3.05617e-10
2.49029e-09
1.93238e-08
1.53894e-07
2.06914e-05
5.00015e-05
3.44478e-05
1.66026e-05
1.66315e-05
1.65583e-05
0.000168531
0.000256334
0.000256713
0.000256689
0.000134181
1.39526e-06
1.59353e-07
1.24387e-07
5.52583e-05
6.98831e-05
0.000127974
0.000203858
1.24273e-06
4.51849e-07
1.39425e-07
-4.74603e-11
4.35071e-12
3.94189e-12
4.36884e-12
9.97763e-11
9.54044e-10
6.67446e-10
3.31933e-09
1.48105e-09
2.50564e-10
1.24162e-10
7.56339e-11
3.44174e-11
1.22251e-11
7.28278e-12
6.21906e-12
5.05256e-12
3.00233e-12
1.01125e-12
2.64459e-13
1.45652e-13
1.59573e-13
6.69325e-13
4.5299e-12
1.85277e-11
4.02201e-11
4.21591e-11
2.2322e-10
2.44601e-10
1.72404e-09
2.29529e-09
2.11772e-09
2.41705e-08
8.26871e-07
5.37263e-07
1.06577e-09
1.18255e-09
1.41156e-09
3.92945e-10
1.53242e-10
1.09434e-10
3.89063e-11
1.31604e-11
3.5984e-12
5.41814e-13
8.42928e-14
5.5242e-14
9.09817e-14
5.21836e-13
3.23575e-12
9.88859e-12
1.57803e-11
1.6032e-11
4.09633e-12
1.19417e-11
8.23918e-11
8.11209e-10
7.78896e-09
7.53513e-07
1.28044e-05
1.50927e-05
1.68576e-05
1.66315e-05
1.6563e-05
1.79553e-05
5.7346e-05
0.000255782
0.000256689
0.000256707
0.000204416
8.61709e-06
2.52758e-07
2.11234e-07
5.60089e-05
7.02831e-05
0.000263016
0.000175343
3.90937e-06
1.24273e-06
6.25255e-06
8.98848e-07
3.88844e-12
3.94195e-12
1.59902e-11
2.99554e-11
2.18938e-10
1.86311e-10
1.33087e-09
8.80306e-10
1.69527e-10
4.12175e-11
1.53779e-11
5.77255e-12
2.59605e-12
1.82012e-12
1.57652e-12
1.37338e-12
9.38629e-13
3.51943e-13
8.49921e-14
4.4629e-14
5.80746e-14
4.03715e-13
2.96526e-12
1.3153e-11
3.20639e-11
5.50515e-11
2.50497e-10
8.74973e-10
2.87972e-09
2.98426e-09
2.11408e-09
2.13005e-08
8.26871e-07
2.31134e-07
1.08585e-09
1.46501e-09
2.06938e-09
6.16848e-10
1.04324e-10
5.13233e-11
2.65491e-11
9.79276e-12
2.35299e-12
3.23273e-13
4.00926e-14
2.08425e-14
3.0981e-14
2.10792e-13
1.27125e-12
3.50673e-12
4.99766e-12
4.48721e-12
1.24965e-12
4.09534e-12
4.21106e-11
5.5883e-10
7.22728e-09
1.80054e-06
6.45685e-05
7.13892e-05
4.90893e-05
1.68576e-05
1.79553e-05
3.74994e-05
0.000170507
0.000253995
0.00025648
0.000256689
0.000225744
1.49763e-05
1.96189e-07
2.04894e-07
5.58377e-05
7.25015e-05
0.000263016
0.00026302
5.66286e-05
6.32231e-06
5.48161e-05
7.54471e-06
4.12971e-12
3.94195e-12
2.10788e-11
6.81952e-11
1.07025e-10
1.12809e-10
3.10592e-10
2.70622e-10
6.29036e-11
9.27204e-12
2.6718e-12
1.17613e-12
6.4993e-13
4.46709e-13
3.78255e-13
3.41747e-13
2.56006e-13
1.06852e-13
2.57483e-14
1.2834e-14
2.39421e-14
2.49523e-13
1.9785e-12
9.00601e-12
2.64259e-11
6.45426e-11
2.8554e-10
1.71722e-09
3.32525e-09
2.92227e-09
2.31106e-09
2.51162e-09
7.37859e-07
4.57711e-09
1.13838e-09
2.07154e-09
2.15901e-09
1.00572e-09
1.21828e-10
4.46565e-11
2.15031e-11
7.46388e-12
1.57872e-12
2.02394e-13
2.11143e-14
7.61446e-15
9.31909e-15
6.31776e-14
3.58351e-13
9.1186e-13
1.20885e-12
1.01524e-12
3.96613e-13
1.24965e-12
1.42029e-11
2.55246e-10
4.6669e-09
1.06928e-06
7.1471e-05
7.29284e-05
6.58303e-05
1.86046e-05
0.000114687
0.000223705
0.000226164
0.00020522
0.000254597
0.00025648
0.000195836
9.64687e-06
1.76818e-07
2.6144e-07
1.03864e-05
0.000126623
0.000263711
0.000263003
0.000249227
4.94199e-05
6.16908e-05
1.18824e-05
4.46647e-12
4.13076e-12
1.64396e-11
6.41773e-11
7.43551e-11
5.80884e-11
4.9508e-11
3.92962e-11
1.02081e-11
1.5673e-12
5.59427e-13
3.03763e-13
1.73196e-13
1.10046e-13
9.07934e-14
8.27925e-14
6.52467e-14
2.9545e-14
7.31677e-15
3.64202e-15
1.21979e-14
1.53492e-13
1.26431e-12
6.20581e-12
2.18312e-11
7.19984e-11
3.13879e-10
1.62845e-09
3.32364e-09
1.29591e-09
3.52057e-08
4.52907e-07
8.07283e-08
2.14401e-10
1.35583e-09
2.17584e-09
2.17386e-09
9.53363e-10
1.41066e-10
4.08549e-11
1.78369e-11
5.50741e-12
1.05434e-12
1.31745e-13
1.30844e-14
2.91204e-15
2.69612e-15
1.57554e-14
8.53651e-14
2.06167e-13
2.61719e-13
1.93315e-13
2.92096e-14
3.79297e-13
9.73964e-12
2.74583e-10
8.21723e-09
2.18564e-05
7.14022e-05
8.01147e-05
8.66161e-05
0.000112584
0.000228928
0.00022938
0.000227163
1.74884e-05
0.000101074
0.000252648
7.31017e-05
1.76818e-07
1.66186e-07
1.71087e-07
4.12253e-07
0.000264328
0.000264387
0.000263314
0.000259433
0.000189083
3.78437e-05
3.76591e-06
5.95659e-10
3.46087e-12
2.47943e-12
3.38866e-11
3.54096e-11
1.59604e-11
6.16564e-12
3.44175e-12
1.01941e-12
2.69609e-13
1.33067e-13
7.8688e-14
4.27274e-14
2.50662e-14
2.00626e-14
1.82528e-14
1.49385e-14
7.16497e-15
1.88018e-15
1.12795e-15
7.29599e-15
9.14103e-14
7.61086e-13
4.15989e-12
1.80598e-11
7.62214e-11
3.10503e-10
1.07374e-09
2.27692e-09
8.04918e-10
1.18822e-07
8.19346e-07
7.31523e-10
1.591e-10
1.41165e-09
2.098e-09
1.71743e-09
7.58803e-10
1.37294e-10
3.72231e-11
1.44361e-11
3.86554e-12
6.92288e-13
8.89305e-14
9.16424e-15
1.26931e-15
8.10399e-16
3.91669e-15
2.13384e-14
4.80412e-14
5.60272e-14
2.4373e-14
9.58995e-16
1.18936e-14
4.24166e-13
5.20173e-11
2.44985e-07
6.49011e-05
7.14446e-05
5.92641e-05
9.07205e-05
0.000228355
0.00022938
0.000228417
0.000167522
9.0971e-06
6.42146e-06
3.931e-05
1.35414e-06
1.66353e-07
1.66353e-07
2.34172e-07
4.70124e-06
0.000264387
0.000264309
0.000260427
0.000254065
0.000248142
2.42509e-05
4.08971e-06
6.10899e-08
2.37528e-12
2.12585e-12
6.14701e-12
6.54039e-12
1.25791e-12
6.1475e-13
3.65704e-13
1.58136e-13
5.11111e-14
2.985e-14
1.73861e-14
8.90081e-15
4.83577e-15
3.65411e-15
3.27451e-15
2.7507e-15
1.38087e-15
4.21617e-16
4.16768e-16
4.57797e-15
5.23984e-14
4.37097e-13
2.66235e-12
1.40995e-11
7.28719e-11
2.71917e-10
5.21113e-10
8.22143e-10
4.78102e-10
1.58385e-07
8.19575e-07
6.07741e-09
1.51136e-10
1.03545e-09
1.45558e-09
9.53095e-10
4.60431e-10
1.13157e-10
3.46779e-11
1.13259e-11
2.58231e-12
4.46226e-13
6.0886e-14
6.64089e-15
6.79326e-16
2.52265e-16
9.71709e-16
5.55226e-15
1.15939e-14
1.24354e-14
2.78691e-15
1.46193e-16
9.5766e-16
1.1625e-14
4.27485e-13
1.99106e-11
5.46351e-05
7.123e-05
2.56342e-05
8.68477e-05
0.000223553
0.000228355
0.000225441
0.000175434
6.42146e-06
5.77489e-06
5.36696e-06
1.4372e-05
4.76517e-07
1.66353e-07
7.34252e-06
7.33445e-05
0.000264309
0.000231216
9.66077e-05
0.000235522
0.000235804