/*--------------------------------*- C++ -*----------------------------------*\
| =========                 |                                                 |
| \\      /  F ield         | OpenFOAM: The Open Source CFD Toolbox           |
|  \\    /   O peration     | Version:  2412                                  |
|   \\  /    A nd           | Website:  www.openfoam.com                      |
|    \\/     M anipulation  |                                                 |
\*---------------------------------------------------------------------------*/
FoamFile
{
    version     2.0;
    format      ascii;
    arch        "LSB;label=32;scalar=64";
    class       volScalarField;
    location    "5.8";
    object      p;
}
// * * * * * * * * * * * * * * * * * * * * * * * * * * * * * * * * * * * * * //

dimensions      [1 -1 -2 0 0 0 0];

internalField   nonuniform List<scalar> 
6400
(
13572.2
13572.2
13572.2
13572.2
13572.2
13572.2
13572.2
13572.2
13572.2
13572.2
13572.2
13572.2
13572.2
13572.2
13572.2
13572.2
13572.2
13572.2
13572.2
13572.2
13572.2
13572.2
13572.2
13572.2
13572.2
13572.2
13572.2
13572.2
13572.2
13572.2
13572.2
13572.2
13572.2
13572.2
13572.2
13572.2
13572.2
13572.2
13572.2
13572.2
13572.2
13572.2
13572.2
13572.2
13572.2
13572.2
13572.2
13572.2
13572.2
13572.2
13572.2
13572.2
13572.2
13572.2
13572.2
13572.2
13572.2
13572.2
13572.2
13572.2
13572.2
13572.2
13572.2
13572.2
13572.2
13572.2
13572.2
13572.2
13572.2
13572.2
13572.2
13572.2
13572.2
13572.2
13572.2
13572.2
13572.2
13572.2
13572.2
13572.2
12875.6
12875.6
12875.6
12875.6
12875.6
12875.6
12875.6
12875.6
12875.6
12875.6
12875.6
12875.6
12875.6
12875.6
12875.6
12875.7
12875.7
12875.7
12875.7
12875.7
12875.7
12875.7
12875.7
12875.7
12875.7
12875.7
12875.7
12875.7
12875.7
12875.7
12875.7
12875.7
12875.7
12875.7
12875.7
12875.7
12875.7
12875.7
12875.7
12875.7
12875.7
12875.7
12875.7
12875.7
12875.7
12875.7
12875.7
12875.7
12875.7
12875.7
12875.7
12875.7
12875.7
12875.7
12875.7
12875.7
12875.7
12875.7
12875.7
12875.7
12875.7
12875.7
12875.7
12875.7
12875.7
12875.7
12875.7
12875.7
12875.6
12875.6
12875.6
12875.6
12875.6
12875.6
12875.6
12875.6
12875.6
12875.6
12875.6
12875.6
12179.1
12179.1
12179.1
12179.1
12179.1
12179.1
12179.1
12179.1
12179.1
12179.1
12179.1
12179.1
12179.1
12179.1
12179.1
12179.1
12179.1
12179.1
12179.1
12179.1
12179.2
12179.2
12179.2
12179.2
12179.2
12179.2
12179.2
12179.2
12179.2
12179.2
12179.2
12179.2
12179.2
12179.2
12179.2
12179.2
12179.2
12179.2
12179.2
12179.2
12179.2
12179.2
12179.2
12179.2
12179.2
12179.2
12179.2
12179.2
12179.2
12179.2
12179.2
12179.2
12179.2
12179.2
12179.2
12179.2
12179.2
12179.2
12179.2
12179.2
12179.2
12179.2
12179.2
12179.1
12179.1
12179.1
12179.1
12179.1
12179.1
12179.1
12179.1
12179.1
12179.1
12179.1
12179.1
12179.1
12179.1
12179.1
12179.1
12179.1
11482.6
11482.6
11482.6
11482.6
11482.6
11482.6
11482.6
11482.6
11482.6
11482.6
11482.6
11482.6
11482.6
11482.6
11482.6
11482.6
11482.6
11482.6
11482.6
11482.6
11482.6
11482.6
11482.6
11482.7
11482.7
11482.7
11482.7
11482.7
11482.7
11482.7
11482.7
11482.7
11482.7
11482.7
11482.7
11482.7
11482.7
11482.7
11482.7
11482.7
11482.7
11482.7
11482.7
11482.7
11482.7
11482.7
11482.7
11482.7
11482.7
11482.7
11482.7
11482.7
11482.7
11482.7
11482.7
11482.7
11482.7
11482.7
11482.6
11482.6
11482.6
11482.6
11482.6
11482.6
11482.6
11482.6
11482.6
11482.6
11482.6
11482.6
11482.6
11482.6
11482.6
11482.6
11482.6
11482.6
11482.6
11482.6
11482.6
11482.6
10786.1
10786.1
10786.1
10786.1
10786.1
10786.1
10786.1
10786.1
10786.1
10786.1
10786.1
10786.1
10786.1
10786.1
10786.1
10786.1
10786.1
10786.1
10786.1
10786.1
10786.1
10786.1
10786.1
10786.1
10786.1
10786.1
10786.1
10786.2
10786.2
10786.2
10786.2
10786.2
10786.2
10786.2
10786.2
10786.2
10786.2
10786.2
10786.2
10786.2
10786.2
10786.2
10786.2
10786.2
10786.2
10786.2
10786.2
10786.2
10786.2
10786.2
10786.2
10786.2
10786.2
10786.2
10786.2
10786.1
10786.1
10786.1
10786.1
10786.1
10786.1
10786.1
10786.1
10786.1
10786.1
10786.1
10786.1
10786.1
10786.1
10786.1
10786.1
10786.1
10786.1
10786.1
10786.1
10786.1
10786.1
10786.1
10786.1
10786.1
10089.6
10089.6
10089.6
10089.6
10089.6
10089.6
10089.6
10089.6
10089.6
10089.6
10089.6
10089.6
10089.6
10089.6
10089.6
10089.6
10089.6
10089.6
10089.6
10089.6
10089.6
10089.6
10089.6
10089.6
10089.6
10089.6
10089.6
10089.6
10089.6
10089.6
10089.7
10089.7
10089.7
10089.7
10089.7
10089.7
10089.7
10089.7
10089.7
10089.7
10089.7
10089.7
10089.7
10089.7
10089.7
10089.7
10089.7
10089.7
10089.7
10089.7
10089.7
10089.7
10089.6
10089.6
10089.6
10089.6
10089.6
10089.6
10089.6
10089.6
10089.6
10089.6
10089.6
10089.6
10089.6
10089.6
10089.6
10089.6
10089.6
10089.6
10089.6
10089.6
10089.6
10089.6
10089.6
10089.6
10089.6
10089.6
10089.6
10089.6
9393.09
9393.09
9393.09
9393.09
9393.09
9393.09
9393.09
9393.09
9393.09
9393.09
9393.09
9393.1
9393.1
9393.1
9393.1
9393.1
9393.1
9393.1
9393.11
9393.11
9393.11
9393.11
9393.12
9393.12
9393.12
9393.13
9393.13
9393.13
9393.14
9393.14
9393.14
9393.15
9393.15
9393.15
9393.16
9393.16
9393.16
9393.16
9393.16
9393.16
9393.16
9393.16
9393.16
9393.16
9393.16
9393.16
9393.16
9393.15
9393.15
9393.15
9393.14
9393.14
9393.14
9393.13
9393.13
9393.13
9393.12
9393.12
9393.12
9393.12
9393.11
9393.11
9393.11
9393.11
9393.11
9393.1
9393.1
9393.1
9393.1
9393.1
9393.1
9393.1
9393.1
9393.1
9393.1
9393.1
9393.1
9393.1
9393.1
9393.1
8696.58
8696.58
8696.58
8696.58
8696.58
8696.58
8696.58
8696.58
8696.58
8696.58
8696.58
8696.59
8696.59
8696.59
8696.59
8696.59
8696.59
8696.59
8696.6
8696.6
8696.6
8696.6
8696.61
8696.61
8696.61
8696.62
8696.62
8696.62
8696.63
8696.63
8696.63
8696.64
8696.64
8696.64
8696.65
8696.65
8696.65
8696.65
8696.66
8696.66
8696.66
8696.66
8696.65
8696.65
8696.65
8696.65
8696.65
8696.64
8696.64
8696.64
8696.63
8696.63
8696.63
8696.62
8696.62
8696.62
8696.61
8696.61
8696.61
8696.61
8696.6
8696.6
8696.6
8696.6
8696.6
8696.59
8696.59
8696.59
8696.59
8696.59
8696.59
8696.59
8696.59
8696.59
8696.59
8696.59
8696.59
8696.59
8696.59
8696.59
8000.07
8000.07
8000.07
8000.07
8000.07
8000.07
8000.07
8000.07
8000.07
8000.07
8000.07
8000.07
8000.08
8000.08
8000.08
8000.08
8000.08
8000.08
8000.09
8000.09
8000.09
8000.09
8000.1
8000.1
8000.1
8000.11
8000.11
8000.11
8000.12
8000.12
8000.12
8000.13
8000.13
8000.13
8000.14
8000.14
8000.14
8000.15
8000.15
8000.15
8000.15
8000.15
8000.15
8000.14
8000.14
8000.14
8000.14
8000.13
8000.13
8000.13
8000.12
8000.12
8000.12
8000.11
8000.11
8000.11
8000.1
8000.1
8000.1
8000.09
8000.09
8000.09
8000.09
8000.09
8000.08
8000.08
8000.08
8000.08
8000.08
8000.08
8000.08
8000.08
8000.08
8000.08
8000.08
8000.08
8000.08
8000.08
8000.08
8000.08
7303.56
7303.56
7303.56
7303.56
7303.56
7303.56
7303.56
7303.56
7303.56
7303.56
7303.56
7303.56
7303.56
7303.57
7303.57
7303.57
7303.57
7303.57
7303.57
7303.58
7303.58
7303.58
7303.58
7303.59
7303.59
7303.59
7303.6
7303.6
7303.61
7303.61
7303.61
7303.62
7303.62
7303.63
7303.63
7303.63
7303.64
7303.64
7303.64
7303.64
7303.64
7303.64
7303.64
7303.64
7303.63
7303.63
7303.63
7303.62
7303.62
7303.62
7303.61
7303.61
7303.61
7303.6
7303.6
7303.6
7303.59
7303.59
7303.59
7303.58
7303.58
7303.58
7303.58
7303.58
7303.57
7303.57
7303.57
7303.57
7303.57
7303.57
7303.57
7303.57
7303.57
7303.57
7303.57
7303.57
7303.57
7303.57
7303.57
7303.57
6607.05
6607.05
6607.05
6607.05
6607.05
6607.05
6607.05
6607.05
6607.05
6607.05
6607.05
6607.05
6607.05
6607.06
6607.06
6607.06
6607.06
6607.06
6607.06
6607.07
6607.07
6607.07
6607.07
6607.08
6607.08
6607.08
6607.09
6607.09
6607.1
6607.1
6607.1
6607.11
6607.11
6607.12
6607.12
6607.13
6607.13
6607.13
6607.13
6607.13
6607.13
6607.13
6607.13
6607.13
6607.13
6607.12
6607.12
6607.12
6607.11
6607.11
6607.1
6607.1
6607.09
6607.09
6607.09
6607.08
6607.08
6607.08
6607.08
6607.07
6607.07
6607.07
6607.07
6607.06
6607.06
6607.06
6607.06
6607.06
6607.06
6607.06
6607.06
6607.06
6607.05
6607.05
6607.05
6607.05
6607.05
6607.06
6607.06
6607.06
5910.54
5910.54
5910.54
5910.54
5910.54
5910.54
5910.54
5910.54
5910.54
5910.54
5910.54
5910.54
5910.54
5910.54
5910.55
5910.55
5910.55
5910.55
5910.55
5910.55
5910.56
5910.56
5910.56
5910.57
5910.57
5910.57
5910.58
5910.58
5910.58
5910.59
5910.59
5910.6
5910.6
5910.61
5910.61
5910.62
5910.62
5910.63
5910.63
5910.63
5910.63
5910.63
5910.63
5910.62
5910.62
5910.62
5910.61
5910.61
5910.6
5910.6
5910.59
5910.59
5910.58
5910.58
5910.58
5910.57
5910.57
5910.57
5910.56
5910.56
5910.56
5910.56
5910.55
5910.55
5910.55
5910.55
5910.55
5910.55
5910.55
5910.55
5910.55
5910.54
5910.54
5910.54
5910.54
5910.54
5910.54
5910.54
5910.54
5910.55
5214.03
5214.03
5214.03
5214.03
5214.03
5214.03
5214.03
5214.03
5214.03
5214.03
5214.03
5214.03
5214.03
5214.03
5214.03
5214.04
5214.04
5214.04
5214.04
5214.04
5214.05
5214.05
5214.05
5214.05
5214.06
5214.06
5214.06
5214.07
5214.07
5214.08
5214.08
5214.09
5214.1
5214.1
5214.11
5214.11
5214.12
5214.12
5214.12
5214.12
5214.12
5214.12
5214.12
5214.12
5214.11
5214.11
5214.1
5214.1
5214.09
5214.09
5214.08
5214.08
5214.07
5214.07
5214.06
5214.06
5214.06
5214.05
5214.05
5214.05
5214.05
5214.05
5214.04
5214.04
5214.04
5214.04
5214.04
5214.04
5214.04
5214.03
5214.03
5214.03
5214.03
5214.03
5214.03
5214.03
5214.03
5214.03
5214.03
5214.03
4517.52
4517.52
4517.52
4517.52
4517.52
4517.52
4517.52
4517.52
4517.52
4517.52
4517.52
4517.52
4517.52
4517.52
4517.52
4517.52
4517.53
4517.53
4517.53
4517.53
4517.53
4517.54
4517.54
4517.54
4517.55
4517.55
4517.55
4517.56
4517.56
4517.57
4517.57
4517.58
4517.59
4517.59
4517.6
4517.61
4517.61
4517.62
4517.62
4517.62
4517.62
4517.62
4517.62
4517.61
4517.61
4517.6
4517.6
4517.59
4517.58
4517.58
4517.57
4517.56
4517.56
4517.56
4517.55
4517.55
4517.55
4517.54
4517.54
4517.54
4517.54
4517.53
4517.53
4517.53
4517.53
4517.53
4517.53
4517.53
4517.52
4517.52
4517.52
4517.52
4517.52
4517.52
4517.52
4517.52
4517.52
4517.52
4517.52
4517.52
3821.01
3821.01
3821.01
3821.01
3821.01
3821.01
3821.01
3821.01
3821.01
3821.01
3821.01
3821.01
3821.01
3821.01
3821.01
3821.01
3821.01
3821.02
3821.02
3821.02
3821.02
3821.02
3821.03
3821.03
3821.03
3821.04
3821.04
3821.05
3821.05
3821.06
3821.06
3821.07
3821.08
3821.09
3821.09
3821.1
3821.11
3821.11
3821.12
3821.12
3821.12
3821.12
3821.11
3821.11
3821.1
3821.1
3821.09
3821.08
3821.07
3821.07
3821.06
3821.05
3821.05
3821.04
3821.04
3821.04
3821.03
3821.03
3821.03
3821.03
3821.02
3821.02
3821.02
3821.02
3821.02
3821.02
3821.01
3821.01
3821.01
3821.01
3821.01
3821.01
3821.01
3821.01
3821.01
3821.01
3821.01
3821.01
3821.01
3821.01
3124.5
3124.5
3124.5
3124.49
3124.49
3124.49
3124.49
3124.49
3124.49
3124.5
3124.5
3124.5
3124.5
3124.5
3124.5
3124.5
3124.5
3124.5
3124.5
3124.51
3124.51
3124.51
3124.51
3124.52
3124.52
3124.52
3124.53
3124.53
3124.54
3124.55
3124.55
3124.56
3124.57
3124.58
3124.59
3124.6
3124.61
3124.61
3124.62
3124.62
3124.62
3124.62
3124.61
3124.61
3124.6
3124.59
3124.58
3124.57
3124.56
3124.56
3124.55
3124.54
3124.54
3124.53
3124.53
3124.52
3124.52
3124.52
3124.52
3124.51
3124.51
3124.51
3124.51
3124.51
3124.5
3124.5
3124.5
3124.5
3124.5
3124.5
3124.5
3124.5
3124.5
3124.5
3124.5
3124.5
3124.5
3124.5
3124.5
3124.5
2427.99
2427.99
2427.98
2427.98
2427.98
2427.98
2427.98
2427.98
2427.98
2427.98
2427.98
2427.98
2427.99
2427.99
2427.99
2427.99
2427.99
2427.99
2427.99
2427.99
2428
2428
2428
2428
2428.01
2428.01
2428.02
2428.02
2428.03
2428.03
2428.04
2428.05
2428.06
2428.07
2428.08
2428.1
2428.11
2428.11
2428.12
2428.12
2428.12
2428.12
2428.11
2428.11
2428.1
2428.09
2428.08
2428.06
2428.05
2428.04
2428.04
2428.03
2428.02
2428.02
2428.01
2428.01
2428.01
2428
2428
2428
2428
2428
2428
2427.99
2427.99
2427.99
2427.99
2427.99
2427.99
2427.99
2427.99
2427.99
2427.99
2427.99
2427.99
2427.99
2427.99
2427.99
2427.99
2427.99
1731.48
1731.47
1731.47
1731.47
1731.47
1731.47
1731.47
1731.47
1731.47
1731.47
1731.47
1731.47
1731.47
1731.47
1731.48
1731.48
1731.48
1731.48
1731.48
1731.48
1731.48
1731.49
1731.49
1731.49
1731.49
1731.5
1731.5
1731.51
1731.51
1731.52
1731.53
1731.54
1731.55
1731.56
1731.58
1731.59
1731.61
1731.61
1731.62
1731.62
1731.62
1731.62
1731.62
1731.61
1731.6
1731.58
1731.57
1731.56
1731.54
1731.53
1731.52
1731.52
1731.51
1731.5
1731.5
1731.5
1731.49
1731.49
1731.49
1731.49
1731.49
1731.48
1731.48
1731.48
1731.48
1731.48
1731.48
1731.48
1731.48
1731.48
1731.48
1731.48
1731.48
1731.48
1731.48
1731.48
1731.48
1731.48
1731.48
1731.48
1034.97
1034.96
1034.96
1034.96
1034.96
1034.96
1034.96
1034.96
1034.96
1034.96
1034.96
1034.96
1034.96
1034.96
1034.96
1034.96
1034.96
1034.97
1034.97
1034.97
1034.97
1034.97
1034.97
1034.98
1034.98
1034.98
1034.99
1034.99
1035
1035.01
1035.02
1035.03
1035.04
1035.05
1035.07
1035.09
1035.11
1035.12
1035.13
1035.14
1035.14
1035.13
1035.12
1035.11
1035.1
1035.08
1035.06
1035.05
1035.03
1035.02
1035.01
1035
1034.99
1034.99
1034.99
1034.98
1034.98
1034.98
1034.98
1034.97
1034.97
1034.97
1034.97
1034.97
1034.97
1034.97
1034.97
1034.97
1034.97
1034.97
1034.96
1034.96
1034.96
1034.96
1034.96
1034.96
1034.96
1034.96
1034.97
1034.97
338.449
338.445
338.444
338.444
338.444
338.444
338.444
338.444
338.445
338.445
338.445
338.446
338.446
338.446
338.447
338.447
338.448
338.448
338.449
338.45
338.451
338.452
338.453
338.455
338.457
338.459
338.463
338.467
338.472
338.479
338.489
338.501
338.515
338.533
338.561
338.6
338.643
338.684
338.715
338.733
338.733
338.717
338.684
338.643
338.603
338.569
338.542
338.522
338.505
338.492
338.484
338.478
338.473
338.469
338.465
338.462
338.46
338.458
338.457
338.456
338.455
338.454
338.454
338.453
338.453
338.452
338.452
338.451
338.451
338.451
338.45
338.45
338.45
338.449
338.449
338.449
338.449
338.449
338.45
338.454
-10.0614
-10.0611
-10.061
-10.0609
-10.0608
-10.0607
-10.0606
-10.0606
-10.0605
-10.0604
-10.0604
-10.0603
-10.0601
-10.06
-10.0598
-10.0596
-10.0593
-10.059
-10.0587
-10.0583
-10.0578
-10.0572
-10.0565
-10.0556
-10.0544
-10.0526
-10.0501
-10.0466
-10.0415
-10.0345
-10.0246
-10.0107
-9.992
-9.96754
-9.93562
-9.88987
-9.82785
-9.76357
-9.71533
-9.68955
-9.6881
-9.71308
-9.76435
-9.83105
-9.89155
-9.93584
-9.96577
-9.98574
-9.99976
-10.0106
-10.0201
-10.0283
-10.035
-10.0403
-10.0442
-10.047
-10.049
-10.0504
-10.0514
-10.0522
-10.0527
-10.0531
-10.0534
-10.0537
-10.0539
-10.0541
-10.0543
-10.0545
-10.0546
-10.0547
-10.0549
-10.055
-10.0551
-10.0552
-10.0554
-10.0555
-10.0557
-10.0559
-10.056
-10.0563
-10.5528
-10.5528
-10.5528
-10.5528
-10.5528
-10.5528
-10.5528
-10.5528
-10.5528
-10.5527
-10.5526
-10.5526
-10.5524
-10.5523
-10.5521
-10.5519
-10.5517
-10.5514
-10.551
-10.5507
-10.5502
-10.5496
-10.5489
-10.548
-10.5467
-10.5448
-10.5421
-10.5381
-10.5324
-10.5243
-10.5127
-10.496
-10.4729
-10.4437
-10.41
-10.369
-10.3187
-10.2665
-10.2254
-10.2028
-10.202
-10.2248
-10.2689
-10.3243
-10.3761
-10.4169
-10.4464
-10.467
-10.4815
-10.4933
-10.5046
-10.515
-10.5235
-10.53
-10.5348
-10.5381
-10.5405
-10.5421
-10.5432
-10.544
-10.5446
-10.545
-10.5454
-10.5457
-10.546
-10.5463
-10.5465
-10.5467
-10.5468
-10.547
-10.5471
-10.5472
-10.5473
-10.5474
-10.5474
-10.5475
-10.5475
-10.5476
-10.5476
-10.5476
-11.0433
-11.0433
-11.0433
-11.0433
-11.0433
-11.0433
-11.0432
-11.0432
-11.0432
-11.0431
-11.043
-11.0429
-11.0428
-11.0426
-11.0424
-11.0422
-11.0419
-11.0415
-11.0411
-11.0406
-11.04
-11.0394
-11.0385
-11.0375
-11.0361
-11.0343
-11.0317
-11.0282
-11.0234
-11.0167
-11.0074
-10.9947
-10.9775
-10.9544
-10.9225
-10.8761
-10.8129
-10.7488
-10.7041
-10.6815
-10.6811
-10.7048
-10.7531
-10.8186
-10.8776
-10.9205
-10.9495
-10.969
-10.9828
-10.9938
-11.0031
-11.0108
-11.0171
-11.0221
-11.0258
-11.0285
-11.0305
-11.0319
-11.033
-11.0338
-11.0344
-11.0349
-11.0354
-11.0358
-11.0361
-11.0364
-11.0367
-11.0369
-11.0371
-11.0373
-11.0375
-11.0376
-11.0377
-11.0378
-11.0379
-11.0379
-11.038
-11.038
-11.038
-11.038
-11.5338
-11.5338
-11.5338
-11.5338
-11.5338
-11.5338
-11.5338
-11.5338
-11.5337
-11.5337
-11.5336
-11.5335
-11.5334
-11.5333
-11.5331
-11.5329
-11.5326
-11.5323
-11.5319
-11.5314
-11.5309
-11.5303
-11.5295
-11.5284
-11.5271
-11.5253
-11.523
-11.5199
-11.5158
-11.5104
-11.5034
-11.4943
-11.4827
-11.4678
-11.4432
-11.3957
-11.3298
-11.2596
-11.2017
-11.1734
-11.1739
-11.2042
-11.2622
-11.3331
-11.3959
-11.4365
-11.4599
-11.4743
-11.4845
-11.4926
-11.4994
-11.5051
-11.5099
-11.5139
-11.517
-11.5194
-11.5212
-11.5226
-11.5236
-11.5244
-11.5251
-11.5256
-11.5261
-11.5265
-11.5268
-11.5271
-11.5274
-11.5276
-11.5278
-11.5279
-11.5281
-11.5282
-11.5283
-11.5284
-11.5284
-11.5285
-11.5285
-11.5286
-11.5286
-11.5286
-12.0243
-12.0243
-12.0243
-12.0243
-12.0243
-12.0243
-12.0243
-12.0243
-12.0243
-12.0242
-12.0242
-12.0241
-12.024
-12.0239
-12.0237
-12.0235
-12.0232
-12.023
-12.0226
-12.0223
-12.0218
-12.0213
-12.0206
-12.0198
-12.0188
-12.0175
-12.0158
-12.0136
-12.0109
-12.0077
-12.0039
-11.9994
-11.9951
-11.9934
-11.9909
-11.9647
-11.906
-11.82
-11.74
-11.6956
-11.6921
-11.7334
-11.8104
-11.8847
-11.9417
-11.9713
-11.9814
-11.9861
-11.9904
-11.9945
-11.9982
-12.0017
-12.0047
-12.0074
-12.0096
-12.0113
-12.0127
-12.0138
-12.0147
-12.0154
-12.0159
-12.0164
-12.0168
-12.0172
-12.0175
-12.0177
-12.018
-12.0182
-12.0183
-12.0185
-12.0186
-12.0187
-12.0188
-12.0189
-12.019
-12.019
-12.019
-12.0191
-12.0191
-12.0191
-12.5148
-12.5148
-12.5148
-12.5148
-12.5148
-12.5149
-12.5149
-12.5148
-12.5148
-12.5148
-12.5148
-12.5147
-12.5146
-12.5145
-12.5144
-12.5142
-12.514
-12.5138
-12.5136
-12.5133
-12.513
-12.5126
-12.5122
-12.5117
-12.5112
-12.5105
-12.5096
-12.5087
-12.5078
-12.5072
-12.5072
-12.508
-12.5122
-12.5274
-12.5528
-12.5475
-12.4841
-12.4053
-12.3641
-12.2959
-12.2791
-12.3244
-12.3849
-12.4575
-12.506
-12.5248
-12.5139
-12.5032
-12.4995
-12.4988
-12.4989
-12.4996
-12.5007
-12.5019
-12.503
-12.504
-12.5048
-12.5055
-12.5061
-12.5066
-12.507
-12.5074
-12.5077
-12.508
-12.5082
-12.5085
-12.5087
-12.5088
-12.509
-12.5091
-12.5092
-12.5093
-12.5094
-12.5095
-12.5095
-12.5096
-12.5096
-12.5096
-12.5096
-12.5096
-13.0054
-13.0054
-13.0054
-13.0054
-13.0054
-13.0054
-13.0054
-13.0054
-13.0054
-13.0054
-13.0054
-13.0053
-13.0053
-13.0052
-13.0051
-13.005
-13.0049
-13.0048
-13.0046
-13.0045
-13.0043
-13.0042
-13.0041
-13.004
-13.0039
-13.004
-13.0041
-13.0045
-13.0054
-13.0074
-13.011
-13.0167
-13.0277
-13.0518
-13.0842
-13.0814
-13.0012
-12.8296
-12.9923
-13.022
-13.0029
-12.993
-12.9113
-12.9913
-13.053
-13.081
-13.0505
-13.0219
-13.0094
-13.0037
-13.0001
-12.9981
-12.9972
-12.9969
-12.9969
-12.9971
-12.9973
-12.9975
-12.9978
-12.998
-12.9983
-12.9985
-12.9987
-12.9989
-12.9991
-12.9993
-12.9994
-12.9996
-12.9997
-12.9998
-12.9999
-12.9999
-13
-13.0001
-13.0001
-13.0001
-13.0002
-13.0002
-13.0002
-13.0002
-13.4959
-13.4959
-13.4959
-13.4959
-13.4959
-13.4959
-13.496
-13.496
-13.496
-13.496
-13.496
-13.496
-13.496
-13.496
-13.4959
-13.4959
-13.4959
-13.4958
-13.4958
-13.4958
-13.4958
-13.4959
-13.4961
-13.4965
-13.497
-13.4977
-13.4988
-13.5005
-13.5031
-13.5073
-13.5138
-13.5235
-13.5393
-13.5671
-13.5998
-13.6014
-13.552
-13.1331
-13.5501
-13.86
-13.9033
-13.6935
-13.2655
-13.4899
-13.599
-13.614
-13.5751
-13.537
-13.5177
-13.5077
-13.5009
-13.4965
-13.4937
-13.492
-13.491
-13.4903
-13.49
-13.4898
-13.4897
-13.4896
-13.4897
-13.4897
-13.4898
-13.4899
-13.49
-13.4901
-13.4902
-13.4903
-13.4904
-13.4905
-13.4905
-13.4906
-13.4906
-13.4907
-13.4907
-13.4907
-13.4907
-13.4907
-13.4907
-13.4907
-13.9864
-13.9864
-13.9864
-13.9864
-13.9865
-13.9865
-13.9865
-13.9866
-13.9866
-13.9866
-13.9867
-13.9867
-13.9867
-13.9867
-13.9868
-13.9868
-13.9868
-13.9869
-13.987
-13.9871
-13.9874
-13.9877
-13.9883
-13.989
-13.99
-13.9914
-13.9934
-13.9962
-14.0001
-14.006
-14.0147
-14.0271
-14.0461
-14.0762
-14.1085
-14.1172
-14.1087
-13.4269
-14.117
-15.0656
-15.1669
-14.1664
-13.4576
-14.0818
-14.1344
-14.125
-14.0862
-14.0459
-14.0227
-14.0095
-14.0003
-13.994
-13.9898
-13.987
-13.985
-13.9836
-13.9827
-13.9821
-13.9816
-13.9813
-13.9811
-13.981
-13.981
-13.981
-13.981
-13.981
-13.9811
-13.9811
-13.9811
-13.9812
-13.9812
-13.9812
-13.9813
-13.9813
-13.9813
-13.9813
-13.9813
-13.9813
-13.9813
-13.9813
-14.4769
-14.4769
-14.477
-14.477
-14.477
-14.4771
-14.4771
-14.4772
-14.4772
-14.4773
-14.4773
-14.4774
-14.4775
-14.4775
-14.4776
-14.4777
-14.4778
-14.478
-14.4782
-14.4785
-14.479
-14.4796
-14.4804
-14.4815
-14.483
-14.485
-14.4877
-14.4913
-14.4962
-14.5032
-14.513
-14.5267
-14.547
-14.5757
-14.6029
-14.6131
-14.5997
-13.9317
-19.0889
-20.1717
-20.3806
-18.4039
-13.938
-14.6142
-14.6281
-14.6172
-14.5853
-14.547
-14.5229
-14.5083
-14.4978
-14.4904
-14.4852
-14.4815
-14.4788
-14.4768
-14.4754
-14.4743
-14.4736
-14.473
-14.4727
-14.4724
-14.4722
-14.4721
-14.472
-14.472
-14.4719
-14.4719
-14.4719
-14.4719
-14.4719
-14.4719
-14.4719
-14.4719
-14.4719
-14.4719
-14.4719
-14.4719
-14.4719
-14.4719
-14.9674
-14.9675
-14.9675
-14.9675
-14.9676
-14.9676
-14.9677
-14.9677
-14.9678
-14.9679
-14.968
-14.9681
-14.9682
-14.9683
-14.9685
-14.9686
-14.9688
-14.9691
-14.9694
-14.9699
-14.9705
-14.9713
-14.9724
-14.9738
-14.9757
-14.9781
-14.9814
-14.9856
-14.9912
-14.9987
-15.0088
-15.0227
-15.0423
-15.0679
-15.0888
-15.0954
-15.0867
-14.8482
-35.0689
-59.504
-60.3391
-33.834
-14.8482
-15.1004
-15.1054
-15.098
-15.0736
-15.0401
-15.0183
-15.0039
-14.9932
-14.9854
-14.9796
-14.9753
-14.9721
-14.9697
-14.9679
-14.9665
-14.9655
-14.9647
-14.9641
-14.9637
-14.9634
-14.9632
-14.963
-14.9629
-14.9628
-14.9627
-14.9627
-14.9626
-14.9626
-14.9626
-14.9626
-14.9625
-14.9625
-14.9625
-14.9625
-14.9625
-14.9625
-14.9625
-15.458
-15.458
-15.458
-15.458
-15.4581
-15.4582
-15.4582
-15.4583
-15.4584
-15.4585
-15.4586
-15.4588
-15.4589
-15.4591
-15.4593
-15.4595
-15.4598
-15.4602
-15.4606
-15.4612
-15.4619
-15.4629
-15.4642
-15.4658
-15.468
-15.4708
-15.4744
-15.4791
-15.485
-15.4926
-15.5025
-15.5156
-15.5333
-15.5561
-15.5727
-15.5784
-15.5723
-15.3293
-16.3686
-33.3724
-33.2177
-14.7313
-15.3958
-15.5698
-15.5775
-15.5715
-15.555
-15.5274
-15.5101
-15.4969
-15.4867
-15.479
-15.473
-15.4684
-15.4649
-15.4622
-15.4601
-15.4585
-15.4572
-15.4563
-15.4556
-15.455
-15.4546
-15.4543
-15.454
-15.4538
-15.4537
-15.4536
-15.4535
-15.4534
-15.4533
-15.4533
-15.4532
-15.4532
-15.4531
-15.4531
-15.4531
-15.4531
-15.4531
-15.4531
-15.9485
-15.9485
-15.9485
-15.9486
-15.9486
-15.9487
-15.9488
-15.9489
-15.949
-15.9491
-15.9493
-15.9495
-15.9496
-15.9499
-15.9501
-15.9504
-15.9507
-15.9512
-15.9517
-15.9524
-15.9532
-15.9543
-15.9558
-15.9576
-15.96
-15.963
-15.9668
-15.9716
-15.9776
-15.9852
-15.9946
-16.0065
-16.0217
-16.0426
-16.0558
-16.0609
-16.0557
-15.9611
-12.0639
-15.6531
-15.1379
-11.0465
-15.9816
-16.04
-16.0475
-16.0428
-16.0314
-16.0134
-15.9992
-15.9878
-15.9786
-15.9713
-15.9655
-15.9608
-15.9572
-15.9543
-15.952
-15.9502
-15.9489
-15.9478
-15.9469
-15.9463
-15.9457
-15.9453
-15.945
-15.9448
-15.9445
-15.9444
-15.9442
-15.9441
-15.944
-15.9439
-15.9439
-15.9438
-15.9438
-15.9437
-15.9437
-15.9437
-15.9436
-15.9436
-16.439
-16.439
-16.439
-16.4391
-16.4391
-16.4392
-16.4393
-16.4394
-16.4396
-16.4397
-16.4399
-16.4401
-16.4403
-16.4406
-16.4409
-16.4412
-16.4416
-16.4421
-16.4427
-16.4435
-16.4444
-16.4456
-16.4471
-16.4491
-16.4515
-16.4547
-16.4585
-16.4633
-16.4692
-16.4765
-16.4855
-16.4961
-16.5101
-16.5271
-16.5379
-16.5426
-16.5372
-16.6193
-11.9204
-0.62627
-0.322195
-11.5562
-16.5422
-16.5148
-16.5214
-16.5172
-16.5096
-16.498
-16.4872
-16.4775
-16.4695
-16.4627
-16.4571
-16.4526
-16.4489
-16.446
-16.4436
-16.4418
-16.4403
-16.4391
-16.4382
-16.4374
-16.4368
-16.4363
-16.436
-16.4356
-16.4354
-16.4352
-16.435
-16.4348
-16.4347
-16.4346
-16.4345
-16.4344
-16.4344
-16.4343
-16.4343
-16.4342
-16.4342
-16.4342
-16.9295
-16.9295
-16.9295
-16.9296
-16.9296
-16.9297
-16.9298
-16.93
-16.9301
-16.9303
-16.9305
-16.9307
-16.931
-16.9313
-16.9316
-16.932
-16.9324
-16.933
-16.9336
-16.9344
-16.9354
-16.9367
-16.9382
-16.9402
-16.9427
-16.9458
-16.9496
-16.9543
-16.9599
-16.9667
-16.9749
-16.9848
-16.997
-17.0114
-17.0202
-17.024
-17.0177
-16.9185
2.27578
24.4732
24.5983
2.24526
-16.9735
-16.9955
-17.0029
-16.998
-16.9922
-16.9838
-16.975
-16.9667
-16.9595
-16.9532
-16.948
-16.9437
-16.9402
-16.9373
-16.9349
-16.933
-16.9315
-16.9303
-16.9293
-16.9285
-16.9278
-16.9273
-16.9268
-16.9265
-16.9262
-16.9259
-16.9257
-16.9255
-16.9254
-16.9252
-16.9251
-16.925
-16.925
-16.9249
-16.9249
-16.9248
-16.9248
-16.9248
-17.4199
-17.4199
-17.42
-17.42
-17.4201
-17.4202
-17.4204
-17.4205
-17.4207
-17.4208
-17.4211
-17.4213
-17.4216
-17.4219
-17.4222
-17.4227
-17.4231
-17.4237
-17.4244
-17.4252
-17.4262
-17.4275
-17.4291
-17.431
-17.4335
-17.4365
-17.4401
-17.4445
-17.4498
-17.4561
-17.4635
-17.4724
-17.4831
-17.4956
-17.5038
-17.5066
-17.4952
-17.3964
-17.1002
-12.4022
-12.4385
-17.1627
-17.442
-17.4835
-17.4914
-17.4849
-17.4795
-17.4713
-17.4631
-17.4556
-17.4489
-17.4432
-17.4384
-17.4343
-17.431
-17.4282
-17.4259
-17.424
-17.4225
-17.4212
-17.4202
-17.4194
-17.4187
-17.4181
-17.4177
-17.4173
-17.4169
-17.4166
-17.4164
-17.4162
-17.416
-17.4159
-17.4158
-17.4156
-17.4156
-17.4155
-17.4154
-17.4154
-17.4154
-17.4153
-17.9104
-17.9104
-17.9104
-17.9105
-17.9106
-17.9107
-17.9108
-17.911
-17.9112
-17.9114
-17.9116
-17.9119
-17.9121
-17.9125
-17.9129
-17.9133
-17.9138
-17.9144
-17.9151
-17.9159
-17.9169
-17.9182
-17.9197
-17.9216
-17.9239
-17.9267
-17.9302
-17.9343
-17.9391
-17.9448
-17.9514
-17.9594
-17.9688
-17.9801
-17.9888
-17.9923
-17.9957
-17.967
-17.9761
-17.9561
-17.9487
-17.9662
-17.9651
-17.9859
-17.9833
-17.9787
-17.9699
-17.9595
-17.9513
-17.9441
-17.938
-17.9327
-17.9282
-17.9245
-17.9214
-17.9187
-17.9166
-17.9148
-17.9133
-17.9121
-17.911
-17.9102
-17.9095
-17.9089
-17.9084
-17.908
-17.9076
-17.9073
-17.9071
-17.9068
-17.9067
-17.9065
-17.9063
-17.9062
-17.9061
-17.906
-17.906
-17.9059
-17.9059
-17.9059
-18.4008
-18.4009
-18.4009
-18.401
-18.4011
-18.4012
-18.4013
-18.4015
-18.4016
-18.4019
-18.4021
-18.4024
-18.4027
-18.403
-18.4034
-18.4038
-18.4043
-18.4049
-18.4056
-18.4064
-18.4074
-18.4086
-18.4101
-18.4118
-18.414
-18.4166
-18.4198
-18.4235
-18.4279
-18.4329
-18.4389
-18.4459
-18.4541
-18.4642
-18.473
-18.4763
-18.4792
-18.4628
-18.4543
-18.4524
-18.4503
-18.4523
-18.4594
-18.4725
-18.4709
-18.468
-18.4584
-18.447
-18.4389
-18.4321
-18.4265
-18.4217
-18.4177
-18.4143
-18.4114
-18.409
-18.407
-18.4053
-18.4039
-18.4027
-18.4017
-18.4009
-18.4002
-18.3996
-18.3991
-18.3987
-18.3983
-18.398
-18.3977
-18.3975
-18.3973
-18.3971
-18.3969
-18.3968
-18.3967
-18.3966
-18.3965
-18.3965
-18.3964
-18.3964
-18.8913
-18.8913
-18.8913
-18.8914
-18.8915
-18.8916
-18.8917
-18.8919
-18.8921
-18.8923
-18.8925
-18.8928
-18.8931
-18.8935
-18.8939
-18.8943
-18.8948
-18.8954
-18.8961
-18.8968
-18.8978
-18.8989
-18.9003
-18.9019
-18.9039
-18.9062
-18.9091
-18.9124
-18.9162
-18.9207
-18.9259
-18.932
-18.9391
-18.9479
-18.9563
-18.9594
-18.9573
-18.9508
-18.9456
-18.9414
-18.9391
-18.9419
-18.9456
-18.9535
-18.956
-18.9539
-18.9438
-18.933
-18.9256
-18.9195
-18.9145
-18.9103
-18.9068
-18.9038
-18.9012
-18.899
-18.8972
-18.8957
-18.8943
-18.8932
-18.8923
-18.8915
-18.8908
-18.8902
-18.8897
-18.8893
-18.8889
-18.8886
-18.8883
-18.888
-18.8878
-18.8876
-18.8875
-18.8873
-18.8872
-18.8871
-18.8871
-18.887
-18.887
-18.887
-19.3817
-19.3817
-19.3817
-19.3818
-19.3819
-19.382
-19.3822
-19.3823
-19.3825
-19.3827
-19.383
-19.3832
-19.3836
-19.3839
-19.3843
-19.3847
-19.3852
-19.3858
-19.3864
-19.3871
-19.388
-19.389
-19.3903
-19.3917
-19.3935
-19.3956
-19.3981
-19.401
-19.4043
-19.4082
-19.4126
-19.4179
-19.4241
-19.4317
-19.4398
-19.4442
-19.4429
-19.4396
-19.4372
-19.4321
-19.4286
-19.4308
-19.4325
-19.4364
-19.439
-19.4361
-19.4266
-19.4176
-19.4114
-19.4063
-19.4021
-19.3986
-19.3956
-19.393
-19.3907
-19.3888
-19.3872
-19.3858
-19.3846
-19.3836
-19.3827
-19.382
-19.3813
-19.3808
-19.3803
-19.3798
-19.3795
-19.3791
-19.3788
-19.3786
-19.3784
-19.3782
-19.378
-19.3779
-19.3777
-19.3777
-19.3776
-19.3775
-19.3775
-19.3775
-19.8721
-19.8721
-19.8721
-19.8722
-19.8723
-19.8724
-19.8725
-19.8727
-19.8729
-19.8731
-19.8734
-19.8736
-19.8739
-19.8743
-19.8746
-19.8751
-19.8755
-19.876
-19.8766
-19.8773
-19.8781
-19.879
-19.8801
-19.8814
-19.883
-19.8848
-19.8869
-19.8893
-19.8921
-19.8953
-19.8991
-19.9036
-19.9089
-19.9155
-19.9234
-19.9294
-19.9307
-19.9292
-19.9277
-19.9219
-19.917
-19.918
-19.9182
-19.9186
-19.9193
-19.9157
-19.908
-19.9015
-19.8967
-19.8928
-19.8895
-19.8866
-19.8841
-19.882
-19.8801
-19.8785
-19.8771
-19.8759
-19.8748
-19.8739
-19.8731
-19.8724
-19.8718
-19.8712
-19.8707
-19.8703
-19.87
-19.8696
-19.8693
-19.8691
-19.8689
-19.8687
-19.8685
-19.8684
-19.8682
-19.8682
-19.8681
-19.868
-19.868
-19.868
-20.3624
-20.3625
-20.3625
-20.3626
-20.3627
-20.3628
-20.3629
-20.3631
-20.3633
-20.3635
-20.3637
-20.364
-20.3643
-20.3646
-20.3649
-20.3653
-20.3658
-20.3662
-20.3668
-20.3674
-20.3681
-20.3689
-20.3698
-20.3709
-20.3723
-20.3738
-20.3755
-20.3775
-20.3798
-20.3824
-20.3853
-20.3889
-20.3933
-20.3989
-20.4061
-20.413
-20.4167
-20.4165
-20.4148
-20.4077
-20.4012
-20.402
-20.4009
-20.3993
-20.3983
-20.3949
-20.3896
-20.3853
-20.382
-20.3792
-20.3767
-20.3745
-20.3726
-20.3709
-20.3693
-20.368
-20.3668
-20.3658
-20.3649
-20.364
-20.3633
-20.3627
-20.3621
-20.3616
-20.3612
-20.3608
-20.3604
-20.3601
-20.3598
-20.3596
-20.3593
-20.3592
-20.359
-20.3589
-20.3587
-20.3586
-20.3586
-20.3585
-20.3585
-20.3585
-20.8528
-20.8528
-20.8529
-20.8529
-20.853
-20.8531
-20.8533
-20.8534
-20.8536
-20.8538
-20.854
-20.8543
-20.8546
-20.8549
-20.8552
-20.8556
-20.856
-20.8564
-20.8569
-20.8574
-20.858
-20.8587
-20.8595
-20.8604
-20.8614
-20.8627
-20.8641
-20.8656
-20.8674
-20.8693
-20.8715
-20.8741
-20.8773
-20.8815
-20.8872
-20.8934
-20.8975
-20.8978
-20.8949
-20.8884
-20.8819
-20.8813
-20.8805
-20.879
-20.8778
-20.8754
-20.8722
-20.8697
-20.8677
-20.8658
-20.8641
-20.8625
-20.861
-20.8597
-20.8585
-20.8574
-20.8565
-20.8556
-20.8548
-20.8541
-20.8535
-20.8529
-20.8524
-20.8519
-20.8515
-20.8512
-20.8508
-20.8505
-20.8503
-20.85
-20.8498
-20.8496
-20.8495
-20.8493
-20.8492
-20.8491
-20.849
-20.849
-20.8489
-20.8489
-21.3432
-21.3432
-21.3432
-21.3433
-21.3434
-21.3435
-21.3436
-21.3437
-21.3439
-21.3441
-21.3443
-21.3445
-21.3448
-21.3451