/*--------------------------------*- C++ -*----------------------------------*\
| =========                 |                                                 |
| \\      /  F ield         | OpenFOAM: The Open Source CFD Toolbox           |
|  \\    /   O peration     | Version:  2412                                  |
|   \\  /    A nd           | Website:  www.openfoam.com                      |
|    \\/     M anipulation  |                                                 |
\*---------------------------------------------------------------------------*/
FoamFile
{
    version     2.0;
    format      ascii;
    arch        "LSB;label=32;scalar=64";
    class       volScalarField;
    location    "1.35";
    object      alpha.soap;
}
// * * * * * * * * * * * * * * * * * * * * * * * * * * * * * * * * * * * * * //

dimensions      [0 0 0 0 0 0 0];

internalField   nonuniform List<scalar> 
6400
(
1
1
1
0.999999
1
1
1
1
1
1
1
1
1
1
1
1
1
1
1
1
1
1
1
1
1
1
1
1
1
1
1
1
1
1
1
1
1
1
1
1
1
1
1
1
1
1
1
1
1
1
1
1
1
1
1
1
1
1
1
1
1
1
1
1
1
1
1
1
1
1
1
1
1
1
1
1
1
1
1
1
0.999996
1
1
1
1
1
1
1
1
1
1
1
1
1
1
1
1
1
1
1
1
1
1
1
1
1
1
1
1
1
1
1
1
1
1
1
1
1
1
1
1
1
1
1
1
1
1
1
1
1
1
1
1
1
1
1
1
1
1
1
1
1
1
1
1
1
1
1
1
1
1
1
1
1
1
1
1
1
1
1
1
0.999999
1
1
1
1
1
1
1
1
1
1
1
1
1
1
1
1
1
1
1
1
1
1
1
1
1
1
1
1
1
1
1
1
1
1
1
1
1
1
1
1
1
1
1
1
1
1
1
1
1
1
1
1
1
1
1
1
1
1
1
1
1
1
1
1
1
1
1
1
1
1
1
1
1
1
1
1
1
1
1
1
1
1
1
1
1
1
1
1
1
1
1
1
1
1
1
1
1
1
1
1
1
1
1
1
1
1
1
1
1
1
1
1
1
1
1
1
1
1
1
1
1
1
1
1
1
1
1
1
1
1
1
1
1
1
1
1
1
1
1
1
1
1
1
1
1
1
1
1
1
1
1
1
1
1
1
1
1
1
1
1
1
1
1
1
1
1
1
1
1
1
1
1
1
1
1
1
1
1
1
1
1
1
1
1
1
1
1
1
1
1
1
1
1
1
1
1
1
1
1
1
1
1
1
1
1
1
1
1
1
1
1
1
1
1
1
1
1
1
1
1
1
1
1
1
1
1
1
1
1
1
1
1
1
1
1
1
1
1
1
1
1
1
1
1
1
1
1
1
1
1
1
1
1
1
1
1
1
1
1
1
1
1
1
1
1
1
1
1
1
1
1
1
1
1
1
1
1
1
1
1
1
1
1
1
1
1
1
1
1
1
1
1
1
1
1
1
1
1
1
1
1
1
1
1
1
1
1
1
1
1
1
1
1
1
1
1
1
1
1
1
1
1
1
1
1
1
1
1
1
1
1
1
1
1
1
1
1
1
1
1
1
1
1
1
1
1
1
1
1
1
1
1
1
1
1
1
1
1
1
1
1
1
1
1
1
1
1
1
1
1
1
1
1
1
1
1
1
1
1
1
1
1
1
1
1
1
1
1
1
1
1
1
1
1
1
1
1
1
1
1
1
1
1
1
1
1
1
1
1
1
1
1
1
1
1
1
1
1
1
1
1
1
1
1
1
1
1
1
1
1
1
1
1
1
1
1
1
1
1
1
1
1
1
1
1
1
1
1
1
1
1
1
1
1
1
1
1
1
1
1
1
1
1
1
1
1
1
1
1
1
1
1
1
1
1
1
1
1
1
1
1
1
1
1
1
1
1
1
1
1
1
1
1
1
1
1
1
1
1
1
1
1
1
1
1
1
1
1
1
1
1
1
1
1
1
1
1
1
1
1
1
1
1
1
1
1
1
1
1
1
1
1
1
1
1
1
1
1
1
1
1
1
1
1
1
1
1
1
1
1
1
1
1
1
1
1
1
1
1
1
1
1
1
1
1
1
1
1
1
1
1
1
1
1
1
1
1
1
1
1
1
1
1
1
1
1
1
1
1
1
1
1
1
1
1
1
1
1
1
1
1
1
1
1
1
1
1
1
1
1
1
1
1
1
1
1
1
1
1
1
1
1
1
1
1
1
1
1
1
1
1
1
1
1
1
1
1
1
1
1
1
1
1
1
1
1
1
1
1
1
1
1
1
1
1
1
1
1
1
1
1
1
1
1
1
1
1
1
1
1
1
1
1
1
1
1
1
1
1
1
1
1
1
1
1
1
1
1
1
1
1
1
1
1
1
1
1
1
1
1
1
1
1
1
1
1
1
1
1
1
1
1
1
1
1
1
1
1
1
1
1
1
1
1
1
1
1
1
1
1
1
1
1
1
1
1
1
1
1
1
1
1
1
1
1
1
1
1
1
1
1
1
1
1
1
1
1
1
1
1
1
1
1
1
1
1
1
1
1
1
1
1
1
1
1
1
1
1
1
1
1
1
1
1
1
1
1
1
1
1
1
1
1
1
1
1
1
1
1
1
1
1
1
1
1
1
1
1
1
1
1
1
1
1
1
1
1
1
1
1
1
1
1
1
1
1
1
1
1
1
1
1
1
1
1
1
1
1
1
1
1
1
1
1
1
1
1
1
1
1
1
1
1
1
1
1
1
1
1
1
1
1
1
1
1
1
1
1
1
1
1
1
1
1
1
1
1
1
1
1
1
1
1
1
1
1
1
1
1
1
1
1
1
1
1
1
1
1
1
1
1
1
1
1
1
1
1
1
1
1
1
1
1
1
1
1
1
1
1
1
1
1
1
1
1
1
1
1
1
1
1
1
1
1
1
1
1
1
1
1
1
1
1
1
1
1
1
1
1
1
1
1
1
1
1
1
1
1
1
1
1
1
1
1
1
1
1
1
1
1
1
1
1
1
1
1
1
1
1
1
1
1
1
1
1
1
1
1
1
1
1
1
1
1
1
1
1
1
1
1
1
1
1
1
1
1
1
1
1
1
1
1
1
1
1
1
1
1
1
1
1
1
1
1
1
1
1
1
1
1
1
1
1
1
1
1
1
1
1
1
1
1
1
1
1
1
1
1
1
1
1
1
1
1
1
1
1
1
1
1
1
1
1
1
1
1
1
1
1
1
1
1
1
1
1
1
1
1
1
1
1
1
1
1
1
1
1
1
1
1
1
1
1
1
1
1
1
1
1
1
1
1
1
1
1
1
1
1
1
1
1
1
1
1
1
1
1
1
1
1
1
1
1
1
1
1
1
1
1
1
1
1
1
1
1
1
1
0.999999
0.999999
0.999998
0.999997
0.999993
0.999995
0.999995
0.999994
0.999997
0.999995
1
1
1
1
1
1
1
1
1
1
1
1
1
1
1
1
1
1
1
1
0.995163
0.990412
0.997307
1
0.999998
0.999997
0.999997
0.999996
0.999997
0.999998
0.999999
1
1
1
1
1
1
1
1
1
1
1
1
1
1
1
1
1
1
1
1
1
1
1
1
1
1
1
1
1
1
1
1
1
1
1
0.999999
0.999999
0.999998
0.999995
0.999987
0.999968
0.99995
0.99992
0.999839
0.999845
0.999829
0.969213
0.907598
0.8312
0.763089
0.713188
0.703312
0.760852
0.864794
0.982297
1
1
1
1
1
1
1
1
1
1
1
0.903146
0.703035
0.516596
0.410492
0.376609
0.481446
0.755937
0.940651
0.998351
0.999918
0.999903
0.999942
0.999955
0.99997
0.999988
0.999996
0.999998
0.999999
1
1
1
1
1
1
1
1
1
1
1
1
1
1
1
1
1
1
1
1
1
1
1
1
1
1
1
0.999999
0.999998
0.999995
0.999991
0.999983
0.99997
0.999948
0.999894
0.999732
0.999391
0.99623
0.975033
0.887206
0.800175
0.636978
0.28543
0.0661801
0.0134473
0.00357383
0.00259682
0.0135663
0.0614815
0.214792
0.507819
0.825518
0.980675
0.999999
1
1
1
1
1
0.999998
0.920096
0.663778
0.333475
0.0654108
0.00393468
0.0014717
0.000669728
0.00194943
0.0315966
0.157009
0.565347
0.903489
0.95396
0.994981
0.999005
0.999412
0.999742
0.999905
0.999955
0.999973
0.999983
0.999991
0.999995
0.999998
0.999999
1
1
1
1
1
1
1
1
1
1
1
1
1
1
1
1
1
1
1
1
1
0.999938
0.999237
0.998484
0.998405
0.995517
0.986732
0.97416
0.962615
0.943693
0.875471
0.718554
0.528267
0.366942
0.146546
0.0391952
0.0152341
0.000891776
0.000435871
0.000233121
0.000203025
0.000334588
0.000740232
0.001911
0.00595657
0.0972576
0.574949
0.942528
0.999999
0.999997
1
1
1
0.999999
0.999999
0.880443
0.315049
0.0117745
0.00340135
0.00111972
0.000476783
0.000267119
0.00031661
0.000794788
0.00123959
0.0376646
0.109922
0.264605
0.50967
0.61106
0.729204
0.870147
0.940283
0.958134
0.967732
0.980795
0.993076
0.999111
0.999887
0.999517
0.999764
0.999984
1
1
1
1
1
1
1
1
1
0.58258
0.608217
0.643463
0.650809
0.64962
0.650674
0.65689
0.668985
0.688888
0.713636
0.726891
0.721785
0.702058
0.649078
0.565753
0.477523
0.410636
0.366261
0.28056
0.120705
0.00946552
1.56184e-05
2.47358e-05
9.59655e-05
0.000245488
0.000233967
0.000169769
0.000112659
9.20941e-05
0.000111516
0.000161471
0.000294522
0.000657136
0.00190056
0.00599794
0.132683
0.819687
0.999999
0.999999
1
0.999999
0.999995
0.999999
0.999999
0.682148
0.0529125
0.00339887
0.00112828
0.00047403
0.000257193
0.00018151
0.000169122
0.000246194
0.000341203
0.000395856
0.000131531
3.38785e-05
1.28913e-05
8.66314e-06
0.0202738
0.130852
0.294499
0.370343
0.390194
0.431345
0.510288
0.597334
0.664298
0.701235
0.714915
0.717683
0.707409
0.689359
0.672223
0.656635
0.641825
0.639757
0.651363
0.625225
0.561016
0.0194581
0.023134
0.0841447
0.165439
0.190312
0.17059
0.131823
0.117699
0.138679
0.266437
0.416956
0.4548
0.279185
0.0834648
0.0152693
1.77901e-08
4.76456e-08
6.71993e-08
1.07145e-07
2.37783e-07
7.54004e-07
3.78483e-06
5.90691e-05
0.000188241
6.52062e-05
6.76485e-05
6.29914e-05
6.41246e-05
7.27723e-05
8.79322e-05
0.000113729
0.000164653
0.000294133
0.00066737
0.00181481
0.00684789
0.36591
1
1
0.999999
0.999999
0.999995
0.999999
0.999999
0.360619
0.00575035
0.00140892
0.00050653
0.000258726
0.000183807
0.000157147
0.000145194
0.000148706
0.000146903
0.000143791
0.000692947
0.000228308
1.06241e-05
2.85116e-06
1.4138e-06
9.85945e-07
7.6487e-07
6.12599e-07
2.80251e-07
0.00136738
0.00883183
0.0314879
0.104831
0.279489
0.400424
0.35818
0.235026
0.127237
0.0923132
0.0968388
0.124017
0.170586
0.154267
0.0623332
0.0200069
0.016259
0.0134036
0.00168675
0.00111057
0.000518633
0.000521384
0.0159217
0.0224186
0.0125131
0.00191923
0.000915001
4.75423e-11
1.25503e-10
4.99571e-10
1.83443e-09
5.77442e-09
1.77912e-08
6.51498e-08
4.61428e-07
1.00111e-06
1.69617e-06
8.24114e-06
3.62922e-05
4.44507e-05
3.23751e-05
3.97722e-05
4.56204e-05
5.27136e-05
6.43326e-05
7.29341e-05
8.7069e-05
0.000144796
0.000256908
0.000405794
0.000533546
0.00153042
0.0407264
0.651665
1
0.999999
0.999999
0.999999
0.999999
0.636592
0.0332876
0.00149363
0.000411084
0.000293376
0.00020169
0.000156877
0.00014538
0.000143792
0.00012777
0.000103857
8.48969e-05
0.00020814
0.000251927
7.03521e-05
5.70805e-06
2.67442e-06
1.4138e-06
1.06943e-06
5.01238e-07
8.93457e-08
2.89219e-08
9.45032e-09
2.97723e-09
8.65338e-10
3.02546e-10
-2.96096e-22
8.09527e-05
9.51706e-05
0.00295893
0.0107431
0.00885909
0.000138628
0.000527378
0.00115958
0.00161224
0.0159792
0.0135293
0.00181572
0.000462098
0.000190071
4.7113e-05
-1.81625e-06
1.14784e-07
7.29573e-08
1.66894e-08
7.87905e-11
-1.11569e-12
-1.61991e-14
-2.28473e-12
-2.25612e-12
7.75056e-10
5.91219e-09
2.64863e-08
1.06691e-07
1.18267e-06
6.65497e-06
8.64943e-06
7.82425e-06
1.06099e-05
1.53125e-05
2.37591e-05
3.23714e-05
3.97844e-05
4.56347e-05
5.2711e-05
6.84633e-05
0.000311264
0.000672376
0.000711805
0.000460462
0.000240631
0.000167835
0.000297311
0.0247853
0.653162
0.999999
0.999999
0.999999
0.714411
0.0397105
0.000350732
8.85082e-05
0.000151907
0.000248767
0.000323239
0.000537424
0.000449199
0.000182284
0.00010387
8.43006e-05
6.21972e-05
4.62392e-05
4.58875e-05
1.65885e-05
8.75338e-06
7.86765e-06
6.92289e-06
1.66118e-05
6.81689e-06
2.17968e-07
4.60688e-08
9.75736e-09
1.85175e-09
1.84418e-10
1.58457e-34
-5.21682e-10
-3.91039e-09
-1.56162e-08
1.88536e-05
-1.71991e-07
-8.79068e-08
3.06906e-06
6.58013e-05
0.000262684
0.000585022
0.0125735
0.0105247
0.000384193
0.00014501
3.83723e-05
4.95307e-06
1.62298e-08
7.41729e-08
1.67188e-08
8.36689e-11
-1.54549e-17
-1.51165e-09
-1.70153e-09
-8.23685e-10
-5.61403e-14
5.57752e-11
7.73204e-10
6.1619e-09
3.9476e-08
2.5437e-07
3.94004e-06
8.8969e-06
9.7753e-06
1.50169e-05
0.000125808
0.00018172
4.48856e-05
4.56394e-05
4.86656e-05
5.72509e-05
0.000254148
0.000760057
0.000760057
0.000760169
0.000541637
0.00017287
7.9741e-05
9.67445e-06
-1.11441e-06
-1.06308e-05
0.188161
0.417812
0.260572
-7.91644e-06
-6.45356e-06
5.62852e-07
1.52692e-05
9.20194e-05
0.000238772
0.000833121
0.000952121
0.000952531
0.000840217
0.000193658
6.17319e-05
4.61412e-05
3.17838e-05
2.40786e-05
2.2057e-05
0.00016704
0.000650106
0.000413445
3.12163e-05
1.21213e-06
1.56477e-07
1.7974e-08
1.88985e-09
1.84418e-10
3.78653e-28
-3.36867e-10
-4.13655e-10
-3.90077e-10
-4.31666e-10
-2.51042e-15
3.73078e-11
9.04648e-11
-1.43336e-09
8.10095e-06
6.28643e-05
0.000221437
0.00902457
0.00867072
0.000147236
4.05324e-05
6.09072e-06
8.00601e-07
6.30441e-07
8.96846e-07
1.09095e-06
2.47868e-07
7.97285e-11
-3.80787e-14
-1.34641e-14
1.4395e-10
4.24249e-10
4.16087e-10
6.45275e-10
4.52272e-09
4.76453e-08
4.01763e-07
2.5092e-06
4.40758e-05
0.000236001
0.000326708
0.000334534
0.000328359
0.000279598
0.000136358
6.2899e-05
0.000166516
0.000672397
0.000759208
0.000760327
0.000759901
0.000759568
0.000660726
1.71337e-05
6.00532e-07
6.26672e-07
5.53218e-07
5.45128e-07
3.55344e-07
2.2782e-07
1.73127e-07
2.27844e-07
2.62919e-07
1.49827e-06
0.000202072
0.000943468
0.0009491
0.000952531
0.000952531
0.000952531
0.000461653
5.97784e-05
4.22265e-05
3.27083e-05
3.17788e-05
7.59896e-05
0.000734941
0.000835896
0.000782038
9.18427e-05
1.44276e-06
1.29458e-07
9.94615e-09
9.55429e-10
3.86523e-10
3.48118e-10
4.03857e-10
3.81477e-10
3.53007e-10
3.15961e-11
1.14664e-09
1.26774e-09
1.04102e-10
-1.37873e-08
2.50359e-07
1.0057e-05
7.6251e-05
0.00411371
0.00914055
7.01486e-05
1.05752e-05
2.77651e-06
1.725e-06
2.34411e-06
2.46427e-06
2.08474e-06
5.87435e-07
2.3711e-08
7.51649e-10
1.31249e-11
1.74097e-10
4.16089e-10
4.01128e-10
2.38387e-10
1.21413e-09
1.59462e-08
1.92622e-07
1.77458e-06
0.00013313
0.000333363
0.000338356
0.000338125
0.000334534
0.000328359
0.000221881
0.000508919
0.000695989
0.000704172
0.000708866
0.000759208
0.000759568
0.000754183
0.000748754
0.000665172
4.59329e-07
6.35064e-07
6.34863e-07
1.87462e-06
5.73561e-06
8.68382e-07
1.01125e-07
1.52055e-07
3.1216e-07
1.02347e-05
0.000930974
0.000935355
0.000942044
0.0009491
0.000952531
0.000945563
0.000697109
6.87129e-05
3.10129e-05
2.55892e-05
4.39884e-05
0.000485552
0.000835896
0.000839713
0.000792867
8.32733e-05
1.25418e-06
1.04627e-07
7.42976e-09
7.61835e-10
3.57064e-10
4.00314e-10
3.87221e-10
3.28585e-10
3.83595e-10
9.86165e-11
1.07856e-09
6.04095e-09
9.29301e-10
7.48607e-09
-2.1749e-08
1.77724e-06
1.81278e-05
0.000735381
0.00905514
2.81146e-05
5.45914e-06
3.38143e-06
3.29927e-06
2.50443e-06
4.68297e-07
3.26395e-08
2.86813e-08
1.12179e-08
6.78201e-10
1.51244e-10
2.16886e-10
1.66308e-10
1.42836e-10
9.94148e-11
2.12163e-10
2.56476e-09
3.6749e-08
8.19417e-07
4.23108e-05
0.0002579
0.000338125
0.000338288
0.000338125
0.000269777
3.3478e-05
0.000111353
0.00016177
5.36751e-05
6.04119e-06
0.000225892
0.00070449
0.000748646
0.00073855
0.000728154
0.000422774
6.91033e-07
6.75174e-07
3.64522e-06
7.82084e-06
9.79773e-07
5.04878e-08
6.35413e-07
3.08015e-06
0.000625661
0.00092423
0.000931035
0.000935371
0.000421403
0.000381921
0.000686422
0.000419869
4.57546e-05
2.20529e-05
2.30012e-05
0.000108593
0.000825592
0.000839719
0.000835896
0.00066969
4.09744e-05
6.36815e-07
4.89607e-08
3.25524e-09
3.09754e-10
1.45051e-10
1.75904e-10
1.6489e-10
1.77452e-10
2.72886e-10
1.88609e-10
1.3521e-09
1.90512e-08
4.6712e-08
8.64066e-08
1.30918e-07
5.79352e-07
5.96104e-06
0.00389507
0.006869
9.20282e-06
3.8646e-06
3.19679e-06
3.13554e-06
6.40629e-07
1.7128e-07
8.89e-09
4.25291e-09
3.88151e-09
1.85648e-09
1.93055e-10
2.13352e-10
1.3967e-10
8.50452e-11
7.66968e-11
7.37422e-11
3.15061e-10
5.01007e-09
1.52137e-07
1.67747e-06
2.3728e-05
0.00017512
0.00030252
0.000303428
9.01033e-05
4.25897e-06
1.22933e-06
2.72199e-07
3.02529e-08
5.57857e-09
2.84682e-09
1.14085e-05
0.000456581
0.000728215
0.000708819
0.000673627
6.94349e-07
6.63587e-07
1.49199e-06
7.83594e-06
1.35056e-07
4.52822e-08
5.11675e-08
0.000141741
0.000871131
0.000899529
0.000924623
0.000367855
8.4369e-08
3.05357e-07
7.60437e-05
0.000127972
3.34714e-05
1.92013e-05
2.14571e-05
0.000373262
0.000827477
0.00083499
0.000837557
0.000303699
2.07215e-06
1.68365e-07
1.1124e-08
7.09777e-10
1.21734e-10
1.01165e-10
1.03008e-10
1.08372e-10
1.19481e-10
1.22324e-10
2.14556e-10
1.29246e-07
3.86737e-07
2.79295e-07
8.82561e-07
7.93994e-07
1.05618e-06
1.65925e-05
0.00498511
0.00128823
0.000244133
7.17251e-06
3.81265e-06
3.48717e-06
2.57672e-06
1.05741e-06
5.67446e-08
1.84454e-09
2.48242e-10
1.55403e-10
1.52272e-10
1.01977e-10
6.13839e-11
5.02901e-11
5.26498e-11
5.3146e-11
5.94538e-11
4.74204e-10
6.13424e-09
7.84007e-08
7.13985e-07
4.33388e-06
2.87403e-05
3.49883e-05
1.18114e-05
2.73264e-06
2.98431e-07
7.77962e-08
3.57581e-08
3.1001e-09
5.93645e-10
2.24783e-10
1.29847e-10
0.000326531
0.000689924
0.000494989
6.63593e-07
6.57389e-07
7.14729e-07
7.78158e-06
4.66501e-08
1.98892e-08
2.00963e-08
0.000139015
0.000669889
0.000832158
0.00036741
4.40898e-08
6.55619e-08
8.4369e-08
2.69788e-06
1.80477e-05
1.44359e-05
1.75135e-05
5.1194e-05
0.000813091
0.000830261
0.000827477
0.000443673
1.35495e-05
3.58016e-07
2.48761e-08
1.36629e-09
1.20926e-10
6.02531e-11
7.12285e-11
6.26835e-11
6.37814e-11
6.99215e-11
1.89644e-10
1.74407e-09
5.14481e-07
5.41965e-06
2.93701e-06
1.40711e-06
1.23219e-06
1.33861e-06
0.000124324
0.00498511
0.000171118
0.000910306
0.000484335
0.000102338
3.81265e-06
3.05777e-06
8.68348e-07
5.98288e-08
5.10754e-09
5.20948e-10
1.53519e-10
1.24622e-10
6.26343e-11
2.71442e-11
2.38114e-11
2.76041e-11
3.35297e-11
3.72349e-11
4.87698e-11
5.30089e-10
8.50277e-09
8.69919e-08
3.39391e-07
6.88348e-07
6.84455e-07
8.00675e-07
9.21955e-07
1.33477e-07
1.47133e-08
5.81176e-09
2.79588e-09
1.22348e-09
2.21535e-10
6.48273e-11
5.21284e-11
0.000234182
4.77282e-05
1.58507e-06
7.09653e-07
3.19179e-07
7.53136e-06
7.73006e-09
3.96967e-09
4.50178e-09
6.69105e-06
2.17178e-05
5.97948e-05
1.38666e-08
2.1379e-08
5.02808e-08
1.41005e-07
3.88238e-07
8.36363e-07
2.98136e-06
8.79282e-05
0.000734834
0.000778976
0.000786778
0.000356893
1.35602e-05
5.35724e-07
5.0637e-08
2.41566e-09
1.34168e-10
3.70725e-11
4.36265e-11
3.7284e-11
3.18679e-11
3.39055e-11
3.98638e-11
2.79152e-10
6.08889e-09
7.64474e-07
1.20011e-05
1.73342e-05
1.52826e-06
1.33861e-06
3.52923e-06
0.000369532
0.00498511
3.7091e-05
0.000438621
0.000449555
0.000430428
9.04595e-05
4.19451e-06
7.18155e-07
9.38394e-08
9.3223e-09
7.51585e-10
1.08913e-10
5.15551e-11
2.31957e-11
9.16123e-12
8.25642e-12
9.86259e-12
1.33382e-11
1.88974e-11
1.84901e-11
5.3511e-11
7.85788e-10
8.46187e-09
3.42095e-08
6.95814e-08
6.76066e-08
3.70147e-08
4.00016e-08
2.75096e-08
7.6152e-09
1.76562e-09
9.3242e-10
6.09347e-10
3.5988e-10
1.05225e-10
4.11655e-11
5.21227e-11
6.0265e-11
6.23096e-06
1.28988e-06
5.19274e-08
3.18005e-06
2.12383e-09
1.76665e-09
3.10722e-09
6.31196e-10
4.92606e-10
7.77284e-10
3.02284e-09
1.40227e-08
6.55968e-08
3.47608e-07
1.03228e-06
2.97418e-06
6.43128e-05
0.000236502
0.000378669
0.000391139
0.000109268
5.37294e-06
6.71239e-07
5.20816e-08
3.0993e-09
1.71497e-10
2.54003e-11
2.33688e-11
1.80472e-11
1.49452e-11
1.44851e-11
1.69388e-11
7.64665e-11
1.59653e-09
2.70711e-08
3.15554e-07
1.29798e-05
0.000111069
0.000108903
2.87082e-05
0.000183422
0.00132437
0.00218218
3.70268e-06
2.49318e-05
0.000223179
0.000187229
5.88813e-05
2.00998e-06
3.31178e-07
4.30548e-08
4.46756e-09
3.88804e-10
5.43619e-11
1.99947e-11
6.18008e-12
2.16686e-12
1.90555e-12
2.23956e-12
3.12063e-12
4.93933e-12
8.07095e-12
7.74494e-12
6.84824e-11
6.4807e-10
2.72979e-09
5.48126e-09
5.11265e-09
2.54268e-09
8.83657e-10
1.04519e-09
8.81605e-10
5.43571e-10
3.52269e-10
2.08591e-10
1.20222e-10
8.37883e-11
3.75642e-11
2.96595e-11
6.65298e-11
2.61139e-06
6.17358e-07
6.20981e-09
4.33076e-09
6.51327e-10
6.41846e-10
6.31196e-10
5.20893e-10
3.12012e-10
2.40532e-10
8.90502e-10
4.34058e-09
2.12817e-08
1.0268e-07
5.43453e-06
2.74197e-05
4.2992e-05
4.0458e-05
3.28471e-06
5.91182e-06
1.90931e-06
5.56148e-07
7.41105e-08
4.45703e-09
2.02076e-10
1.11403e-11
1.05966e-11
7.14619e-12
5.26884e-12
4.46307e-12
4.7936e-12
1.76487e-11
2.41678e-10
4.46244e-09
6.30576e-08
6.43823e-07
8.60758e-06
0.000167965
0.0003574
0.000418509
0.000489181
0.00056175
3.09375e-05
4.19671e-07
3.70209e-06
8.4303e-06
4.64223e-06
8.00964e-06
1.79273e-06
6.03528e-08
7.54183e-09
7.96334e-10
9.37865e-11
1.76138e-11
5.474e-12
1.18036e-12
3.76554e-13
2.90469e-13
3.25101e-13
4.30041e-13
6.91682e-13
1.36283e-12
2.21532e-12
5.75254e-12
4.28834e-11
1.76454e-10
3.37553e-10
2.9789e-10
1.58773e-10
7.1129e-11
1.35824e-10
1.81592e-10
1.66157e-10
1.35856e-10
9.33006e-11
5.44657e-11
4.06314e-11
3.74212e-12
8.72367e-12
1.39382e-08
1.00509e-08
6.20981e-09
6.18342e-09
3.42242e-09
6.63912e-10
6.112e-10
7.46887e-10
7.43142e-10
2.48924e-10
7.78946e-11
5.80834e-11
5.25335e-11
-3.56637e-10
5.59404e-08
4.18945e-07
7.76397e-07
6.10335e-07
1.73665e-07
2.83013e-07
3.385e-07
1.79893e-07
5.38188e-08
6.07418e-09
3.31625e-10
1.22893e-11
2.03178e-12
2.32972e-12
1.42332e-12
1.10095e-12
1.00387e-12
1.69442e-12
1.47057e-11
2.03986e-10
3.13935e-09
3.76548e-08
3.54868e-07
2.52126e-06
8.03538e-05
0.000291402
0.0003574
0.000258934
2.23884e-05
2.31565e-06
5.46826e-08
4.19697e-07
1.54839e-06
8.50551e-07
2.79559e-07
9.65813e-08
1.28168e-08
1.23729e-09
1.5674e-10
2.38456e-11
6.14589e-12
1.0365e-12
1.79826e-13
5.26322e-14
3.29908e-14
3.46279e-14
4.11201e-14
6.06288e-14
1.13304e-13
2.49927e-13
4.57611e-13
2.82707e-12
1.12988e-11
2.18488e-11
2.09212e-11
1.45805e-11
3.13542e-11
4.39618e-11
5.64225e-11
5.74652e-11
5.35234e-11
4.27696e-11
2.65264e-11
6.73594e-12
2.06217e-12
6.33833e-10
1.2962e-07
1.07589e-07
2.09627e-08
3.59543e-09
6.30661e-09
8.57449e-07
5.25729e-10
1.62881e-09
1.67808e-09
3.1715e-10
8.01594e-11
5.44376e-11
3.42103e-11
3.20578e-11
3.84264e-11
8.50533e-11
8.24017e-10
5.06188e-09
8.15596e-09
1.70412e-08
2.10203e-08
1.32123e-08
3.34975e-09
5.23212e-10
2.27783e-11
9.48979e-13
5.80206e-13
3.14374e-13
2.05199e-13
1.69698e-13
1.80005e-13
6.8998e-13
4.33134e-12
5.01824e-11
6.07476e-10
6.93956e-09
6.33841e-08
6.60703e-07
1.26724e-05
5.57702e-05
8.3049e-05
1.71674e-05
2.31556e-06
2.26587e-07
6.25492e-09
4.79395e-08
2.58434e-07
1.31981e-07
4.04912e-08
9.06193e-09
1.75651e-09
2.50073e-10
3.70526e-11
8.68332e-12
1.23396e-12
1.55164e-13
2.57517e-14
6.59475e-15
3.35683e-15
3.32321e-15
3.53545e-15
4.54354e-15
7.57797e-15
1.52096e-14
2.57067e-14
1.23146e-13
4.89358e-13
9.21281e-13
1.23982e-12
4.48948e-12
6.12518e-12
7.76009e-12
1.17338e-11
1.68352e-11
1.66964e-11
1.45441e-11
9.57162e-12
2.71633e-12
1.88463e-12
4.9009e-08
1.36282e-07
1.36282e-07
6.70799e-08
5.40945e-10
3.59543e-09
1.01418e-05
4.55383e-10
1.80534e-09
2.02472e-09
1.13687e-09
7.81161e-11
5.46245e-11
4.30282e-11
3.1568e-11
2.49842e-11
2.00684e-11
2.22384e-11
4.94747e-10
2.3087e-10
6.33487e-10
1.11842e-09
5.82199e-10
2.28641e-10
3.03504e-11
1.4013e-12
1.0861e-13
6.39256e-14
3.31985e-14
2.38583e-14
2.12489e-14
2.68296e-14
1.61233e-13
1.72096e-12
1.03843e-11
9.96989e-11
9.38204e-10
9.59839e-09
1.08703e-07
3.80489e-07
1.27326e-06
2.68488e-06
2.33378e-06
2.26502e-07
3.04356e-08
7.11503e-10
5.44594e-09
3.67138e-08
1.76204e-08
5.21359e-09
1.24165e-09
2.55891e-10
5.36645e-11
1.20908e-11
1.64375e-12
1.7125e-13
2.16003e-14
3.40303e-15
7.7922e-16
3.46288e-16
3.05456e-16
3.11992e-16
3.59719e-16
5.17793e-16
9.14703e-16
1.26641e-15
4.35825e-15
1.49814e-14
5.90404e-14
1.60249e-13
3.19608e-13
4.26166e-13
6.86158e-13
1.44559e-12
3.21516e-12
4.59918e-12
4.44243e-12
3.72274e-12
2.22575e-12
1.79894e-12
1.88463e-12
4.90812e-08
6.86994e-08
6.66952e-09
3.91615e-12
4.5767e-08
1.26169e-05
4.02905e-10
1.49871e-09
2.02472e-09
1.422e-09
1.0529e-10
1.41987e-11
2.44261e-11
3.05478e-11
2.77431e-11
1.80479e-11
1.95303e-11
3.60667e-11
6.85386e-12
1.96319e-11
2.88144e-11
3.22101e-11
1.23172e-11
1.78777e-12
9.57743e-14
7.6242e-15
4.96921e-15
3.13113e-15
2.54606e-15
2.41279e-15
3.7602e-15
2.65579e-14
3.71683e-13
3.65424e-12
1.9677e-11
1.7308e-10
1.48592e-09
1.05516e-08
4.93258e-08
1.86794e-07
4.2758e-07
3.89824e-07
2.7715e-08
3.08558e-09
9.99526e-11
6.08743e-10
4.53675e-09
2.07555e-09
6.47049e-10
1.70155e-10
5.01632e-11
1.30777e-11
1.93858e-12
1.98429e-13
2.15508e-14
2.67814e-15
4.06431e-16
8.60243e-17
3.4582e-17
2.7185e-17
2.72921e-17
2.94605e-17
3.80394e-17
6.02595e-17
8.29895e-17
1.4789e-16
3.82857e-16
2.0209e-15
5.63638e-15
8.81432e-15
1.83418e-14
4.10369e-14
1.3382e-13
4.74353e-13
1.12804e-12
1.41304e-12
1.31435e-12
1.30682e-12
1.78613e-12
2.10847e-12
2.15314e-12
2.21308e-12
2.23368e-12
2.23367e-12
9.25628e-08
1.2729e-05
3.77368e-10
1.17398e-09
1.46826e-09
7.23229e-10
1.45746e-10
4.27835e-12
3.0943e-12
5.71091e-12
5.89831e-12
3.79354e-12
3.04686e-12
3.88717e-12
4.58521e-12
5.34431e-13
1.69647e-12
1.44055e-12
4.82244e-13
6.58731e-14
4.1773e-15
4.70756e-16
4.01531e-16
2.91093e-16
2.59942e-16
2.53476e-16
3.75983e-16
2.17834e-15
2.95058e-14
3.94791e-13
3.14868e-12
1.80137e-11
1.51343e-10
1.08442e-09
5.9777e-09
2.35975e-08
5.72246e-08
5.52019e-08
2.96573e-09
3.36967e-10
2.25902e-11
9.58873e-11
4.9921e-10
2.57978e-10
8.6341e-11
3.35183e-11
1.0354e-11
1.74514e-12
1.99587e-13
2.17944e-14
2.40295e-15
2.94816e-16
4.34599e-17
8.67322e-18
3.18628e-18
2.26249e-18
2.22926e-18
2.30737e-18
2.78133e-18
4.09536e-18
6.30333e-18
6.93648e-18
1.22457e-17
6.46167e-17
1.5763e-16
2.92359e-16
8.79439e-16
3.97939e-15
2.21494e-14
1.03298e-13
3.07585e-13
5.85824e-13
7.05151e-13
7.92862e-13
1.65957e-12
3.60515e-12
3.38159e-12
2.88488e-12
2.23085e-12
2.2629e-12
5.6241e-06
1.27429e-05
3.2005e-10
1.87486e-09
7.0553e-11
1.46528e-10
3.44106e-11
8.37398e-12
4.29398e-13
9.70144e-13
1.07843e-12
6.44512e-13
2.12278e-13
1.40107e-13
2.38443e-13
3.16063e-13
6.71836e-14
3.13851e-14
1.27733e-14
1.90689e-15
1.36107e-16
3.95175e-17
3.29195e-17
2.66294e-17
2.5113e-17
2.43123e-17
2.25351e-17
1.03707e-16
1.4158e-15
1.84268e-14
2.2027e-13
2.01462e-12
1.53772e-11
1.13633e-10
6.4959e-10
2.62895e-09
6.61691e-09
6.80406e-09
2.93089e-10
4.38794e-11
4.30669e-12
1.28548e-11
6.38157e-11
3.43001e-11
1.80306e-11
6.10711e-12
1.17524e-12
1.58543e-13
1.91563e-14
2.14074e-15
2.37863e-16
2.89075e-17
4.1563e-18
7.89338e-19
2.66025e-19
1.73439e-19
1.63078e-19
1.65607e-19
1.90037e-19
2.67118e-19
4.26436e-19
6.38696e-19
1.2868e-18
3.077e-18
6.63828e-18
1.89209e-17
1.48516e-16
2.00364e-15
1.53405e-14
7.30273e-14
2.26012e-13
4.76234e-13
6.42267e-13
7.49184e-13
1.53948e-12
3.19302e-12
3.60543e-12
4.03133e-12
2.27526e-12
2.33801e-12
1.73713e-05
1.2728e-05
1.92556e-10
5.21511e-09
3.62694e-14
3.62693e-14
3.63924e-14
3.84373e-14
9.29658e-14
1.31362e-13
1.43633e-13
8.45163e-14
1.81374e-14
3.42011e-15
3.06904e-15
7.59661e-15
2.66102e-15
6.27417e-16
2.51901e-16
4.41913e-17
4.24229e-18
3.31763e-18
2.62441e-18
2.2923e-18
2.23526e-18
2.13738e-18
1.02951e-18
6.80445e-18
8.84471e-17
1.10093e-15
1.29044e-14
1.39611e-13
1.78105e-12
1.17728e-11
7.50396e-11
2.94024e-10
6.8273e-10
7.5219e-10
3.92855e-11
9.56936e-12
4.52126e-13
8.87203e-12
8.82745e-12
7.48792e-12
2.77822e-12
5.90945e-13
9.61068e-14
1.35026e-14
1.66179e-15
1.88111e-16
2.10292e-17
2.53564e-18
3.56409e-19
6.47333e-20
2.011e-20
1.21324e-20
1.07215e-20
1.07486e-20
1.18058e-20
1.59038e-20
2.53614e-20
4.36795e-20
8.11141e-20
1.63246e-19
5.7872e-19
5.01396e-18
6.61441e-17
1.53882e-15
1.37303e-14
7.00642e-14
2.25807e-13
4.63576e-13
6.43956e-13
6.89197e-13
7.31866e-13
7.78213e-13
8.91397e-13
3.41047e-12
2.33801e-12
2.43154e-12
2.4041e-05
6.79208e-06
1.17928e-10
6.16894e-09
3.66917e-14
3.64748e-14
3.76415e-14
2.70452e-14
2.24574e-14
1.99107e-14
1.64885e-14
6.56901e-15
1.15412e-15
9.78541e-17
3.01091e-17
6.3499e-17
5.60431e-17
8.82406e-18
3.7228e-18
8.39621e-19
1.69167e-19
2.44052e-19
1.94454e-19
1.79633e-19
1.78759e-19
1.72639e-19
5.58393e-20
4.71008e-19
6.23535e-18
7.96776e-17
9.68255e-16
1.0973e-14
1.44843e-13
2.32051e-12
1.49676e-11
3.58929e-11
8.16042e-11
1.00178e-10
7.66149e-12
1.61771e-12
3.35947e-14
2.18217e-12
1.44878e-12
8.6155e-13
2.22778e-13
4.39828e-14
7.38103e-15
1.04739e-15
1.30124e-16
1.48714e-17
1.66947e-18
1.99753e-19
2.74815e-20
4.79021e-21
1.38005e-21
7.73387e-22
6.42436e-22
6.26789e-22
6.66357e-22
8.5527e-22
1.33553e-21
2.2457e-21
4.13582e-21
1.58329e-20
1.75813e-19
2.59057e-18
3.35627e-17
9.49191e-16
9.08731e-15
4.61871e-14
1.49512e-13
3.18808e-13
4.82828e-13
6.34179e-13
8.03552e-13
1.10092e-12
4.82889e-12
1.4114e-11
2.43154e-12
2.8229e-12
2.46233e-05
5.60114e-06
4.96328e-11
6.19412e-09
3.68782e-14
5.64171e-14
1.14912e-13
2.48601e-14
1.59444e-14
8.60952e-15
4.18182e-15
1.38685e-15
2.45304e-16
2.11842e-17
8.78996e-19
5.69567e-19
8.05217e-19
1.28889e-19
4.14199e-20
1.60324e-20
1.50651e-20
1.56744e-20
1.30779e-20
1.26026e-20
1.28956e-20
1.28782e-20
3.18811e-21
3.04367e-20
4.12128e-19
5.41195e-18
6.80201e-17
8.03257e-16
9.09683e-15
2.22065e-13
2.5396e-12
8.07637e-12
9.85969e-12
1.21711e-11
8.26434e-12
1.53301e-13
2.30921e-15
1.47731e-13
1.2674e-13
5.92607e-14
1.51893e-14
3.07774e-15
5.18535e-16
7.38612e-17
9.23693e-18
1.0627e-18
1.19518e-19
1.41785e-20
1.90971e-21
3.20232e-22
8.60584e-23
4.49115e-23
3.52267e-23
3.29969e-23
3.428e-23
4.18391e-23
6.16065e-23
1.02326e-22
3.75629e-22
5.00971e-21
8.74308e-20
1.34111e-18
1.60078e-17
4.0655e-16
4.04383e-15
2.19019e-14
7.70541e-14
1.85876e-13
3.79036e-13
6.12183e-13
1.20139e-12
1.83345e-12
3.0436e-11
3.67386e-11
2.8229e-12
1.23012e-08
2.48656e-05
6.81139e-06
9.77489e-12
4.8498e-09
3.97001e-14
1.51441e-13
2.90372e-13
4.88695e-14
1.72711e-14
6.65395e-15
1.98133e-15
4.77579e-16
7.6768e-17
6.75239e-18
2.49432e-19
2.77207e-20
1.11673e-20
5.74843e-21
9.48028e-22
6.89778e-22
1.12684e-21
9.01323e-22
7.96977e-22
7.88993e-22
8.47612e-22
8.78066e-22
1.93908e-22
1.83724e-21
2.55657e-20
3.45663e-19
4.48569e-18
5.48857e-17
6.1397e-16
1.42363e-14
2.01589e-13
9.74133e-13
1.8817e-12
2.33335e-12
1.96167e-12
1.13529e-14
1.46659e-16
9.45042e-15
8.16375e-15
3.78891e-15
9.74019e-16
1.97665e-16
3.32808e-17
4.7501e-18
5.9649e-19
6.88843e-20
7.74158e-21
9.09207e-22
1.19826e-22
1.93561e-23
4.87638e-24
2.37391e-24
1.76504e-24
1.58029e-24
1.60084e-24
1.83687e-24
2.6421e-24
9.52986e-24
1.40672e-22
2.74946e-21
4.63737e-20
6.75898e-19
8.03037e-18
1.4361e-16
1.48032e-15
9.43112e-15
4.1135e-14
1.35399e-13
3.56976e-13
7.86417e-13
1.89708e-12
2.63795e-12
1.13811e-10
6.72976e-11
4.70485e-12
1.57167e-06
2.50158e-05
1.34806e-05
3.56717e-12
7.58368e-10
4.49264e-13
5.11898e-13
4.47618e-13
9.28903e-14
2.80415e-14
7.47037e-15
1.60711e-15
2.50948e-16
2.48531e-17
1.63247e-18
1.25991e-19
9.50176e-21
8.29939e-22
2.31141e-22
1.19986e-22
7.53334e-23
5.91363e-23
4.71853e-23
4.36969e-23
4.48079e-23
5.07021e-23
5.42803e-23
1.11592e-23
1.02724e-22
1.47675e-21
2.0629e-20
2.76611e-19
3.49563e-18
4.04208e-17
9.47085e-16
1.31163e-14
6.54898e-14
1.71053e-13
2.30189e-13
1.06809e-13
7.89192e-16
8.50085e-18
6.16547e-16
5.07826e-16
2.2466e-16
5.7428e-17
1.16399e-17
1.95629e-18
2.793e-19
3.51323e-20
4.06094e-21
4.54863e-22
5.27898e-23
6.80037e-24
1.05874e-24
2.51009e-25
1.14191e-25
8.06857e-26
6.90408e-26
6.71526e-26
7.94439e-26
3.04576e-25
5.21903e-24
1.08825e-22
1.99953e-21
3.16745e-20
4.54644e-19
5.77206e-18
6.4523e-17
7.03048e-16
5.67645e-15
3.14675e-14
1.27733e-13
3.89834e-13
1.01152e-12
2.34558e-12
3.39183e-12
2.70433e-10
7.52729e-11
1.95827e-11
1.86399e-05
2.50629e-05
1.7689e-05
3.56746e-12
3.56716e-12
7.93011e-12
1.79517e-12
5.15474e-13
1.372e-13
3.67023e-14
8.21477e-15
1.60842e-15
2.11161e-16
1.83239e-17
1.11675e-18
1.09483e-19
8.03979e-21
5.56121e-22
3.99323e-23
6.51401e-24
3.59031e-24
2.69494e-24
2.25364e-24
2.15484e-24
2.32108e-24
2.75447e-24
3.03687e-24
5.56135e-25
5.27843e-24
7.87706e-23
1.14132e-21
1.585e-20
2.06781e-19
2.46118e-18
5.88947e-17
8.16115e-16
4.07422e-15
1.04374e-14
1.47414e-14
6.98117e-15
5.02801e-17
4.50362e-19
3.6895e-17
2.90473e-17
1.22684e-17
3.11391e-18
6.29656e-19
1.0552e-19
1.50435e-20
1.89101e-21
2.18179e-22
2.42921e-23
2.78028e-24
3.49603e-25
5.24589e-26
1.17346e-26
5.00489e-27
3.36077e-27
2.70627e-27
2.86818e-27
1.03401e-26
2.05698e-25
4.84635e-24
1.00899e-22
1.8147e-21
2.86563e-20
4.08295e-19
5.36437e-18
5.0583e-17
5.37461e-16
4.56387e-15
2.71768e-14
1.23671e-13
3.87929e-13
1.241e-12
2.47975e-12
9.00224e-12
4.524e-10
5.32299e-11
4.8947e-11
2.53266e-05
2.5188e-05
1.5362e-05
3.56665e-12
4.47637e-12
8.93394e-12
4.25679e-12
6.34115e-13
1.7977e-13
4.3229e-14
8.33019e-15
1.26933e-15
1.5526e-16
1.55827e-17
1.32463e-18
1.17318e-19
8.62416e-21
5.88526e-22
3.53437e-23
2.02774e-24
2.16244e-25
1.09007e-25
9.67677e-26
9.65158e-26
1.09484e-25
1.35864e-25
1.54265e-25
2.39596e-26
2.48299e-25
3.86156e-24
5.82357e-23
8.39904e-22
1.13242e-20
1.38473e-19
3.38413e-18
4.69208e-17
2.38226e-16
6.27233e-16
9.08696e-16
4.71885e-16
2.91835e-18
2.18685e-20
2.02104e-18
1.52484e-18
6.17465e-19
1.55515e-19
3.1337e-20
5.2306e-21
7.43349e-22
9.3162e-23
1.07004e-23
1.18117e-24
1.33031e-25
1.63037e-26
2.357e-27
4.98437e-28
2.00527e-28
1.23005e-28
1.08415e-28
3.03098e-28
6.55864e-27
1.82625e-25
4.43285e-24