/*--------------------------------*- C++ -*----------------------------------*\
| =========                 |                                                 |
| \\      /  F ield         | OpenFOAM: The Open Source CFD Toolbox           |
|  \\    /   O peration     | Version:  2412                                  |
|   \\  /    A nd           | Website:  www.openfoam.com                      |
|    \\/     M anipulation  |                                                 |
\*---------------------------------------------------------------------------*/
FoamFile
{
    version     2.0;
    format      ascii;
    arch        "LSB;label=32;scalar=64";
    class       surfaceScalarField;
    location    "7";
    object      phi;
}
// * * * * * * * * * * * * * * * * * * * * * * * * * * * * * * * * * * * * * //

dimensions      [0 3 -1 0 0 0 0];

oriented        oriented;

internalField   nonuniform List<scalar> 
12640
(
-6.74787e-06
6.74787e-06
-1.22153e-05
5.45838e-06
-1.60133e-05
3.7913e-06
-1.85164e-05
2.49766e-06
-2.00246e-05
1.50406e-06
-2.07601e-05
7.3255e-07
-2.08971e-05
1.35383e-07
-2.04613e-05
-4.36062e-07
-1.94751e-05
-9.8562e-07
-1.78995e-05
-1.57398e-06
-1.57169e-05
-2.17966e-06
-1.29122e-05
-2.80104e-06
-9.5138e-06
-3.39514e-06
-5.62247e-06
-3.88764e-06
-1.36537e-06
-4.25218e-06
3.11799e-06
-4.47851e-06
7.68723e-06
-4.56575e-06
1.21598e-05
-4.47044e-06
1.63667e-05
-4.2063e-06
2.01524e-05
-3.78719e-06
2.33921e-05
-3.24358e-06
2.59829e-05
-2.59612e-06
2.78446e-05
-1.86666e-06
2.89364e-05
-1.09531e-06
2.92418e-05
-3.07074e-07
2.87997e-05
4.41646e-07
2.76333e-05
1.16655e-06
2.58291e-05
1.80445e-06
2.34927e-05
2.33688e-06
2.07537e-05
2.73974e-06
1.7747e-05
3.00788e-06
1.45996e-05
3.14861e-06
1.14299e-05
3.17076e-06
8.34356e-06
3.08693e-06
5.41984e-06
2.92412e-06
2.71062e-06
2.70946e-06
2.36164e-07
2.47431e-06
-1.99535e-06
2.23071e-06
-4.01519e-06
2.01848e-06
-5.8461e-06
1.82949e-06
-7.53873e-06
1.69162e-06
-9.15533e-06
1.61619e-06
-1.07482e-05
1.59278e-06
-1.23523e-05
1.60398e-06
-1.39838e-05
1.63072e-06
-1.56379e-05
1.65245e-06
-1.72916e-05
1.65075e-06
-1.8888e-05
1.59214e-06
-2.03485e-05
1.45565e-06
-2.15789e-05
1.22577e-06
-2.24747e-05
8.92114e-07
-2.29489e-05
4.72099e-07
-2.29001e-05
-4.91543e-08
-2.23089e-05
-5.89619e-07
-2.11306e-05
-1.17527e-06
-1.93484e-05
-1.77844e-06
-1.69725e-05
-2.37216e-06
-1.4035e-05
-2.93431e-06
-1.06e-05
-3.4322e-06
-6.74905e-06
-3.8484e-06
-2.58602e-06
-4.16053e-06
1.76557e-06
-4.34918e-06
6.16304e-06
-4.39493e-06
1.04533e-05
-4.28724e-06
1.44978e-05
-4.04101e-06
1.81576e-05
-3.65644e-06
2.13123e-05
-3.15222e-06
2.38484e-05
-2.53514e-06
2.57412e-05
-1.89351e-06
2.69383e-05
-1.19919e-06
2.7461e-05
-5.25931e-07
2.74325e-05
2.41089e-08
2.68443e-05
5.82848e-07
2.57068e-05
1.13094e-06
2.40544e-05
1.64525e-06
2.16966e-05
2.35107e-06
1.83974e-05
3.29485e-06
1.38935e-05
4.50355e-06
7.74918e-06
6.1475e-06
7.75158e-06
-6.25104e-06
1.29894e-05
-9.60917e-06
8.80524e-06
-9.97273e-06
4.14664e-06
-8.30428e-06
8.23262e-07
-5.24565e-06
-1.55827e-06
-1.45694e-06
-3.05782e-06
2.68569e-06
-4.00711e-06
6.92788e-06
-4.67618e-06
1.1365e-05
-5.41925e-06
1.60629e-05
-6.2681e-06
2.1128e-05
-7.24011e-06
2.66207e-05
-8.28723e-06
3.25436e-05
-9.31148e-06
3.88549e-05
-1.01938e-05
4.54463e-05
-1.08391e-05
5.21728e-05
-1.12008e-05
5.88459e-05
-1.12363e-05
6.52679e-05
-1.08923e-05
7.12297e-05
-1.01704e-05
7.65428e-05
-9.1035e-06
8.10274e-05
-7.73064e-06
8.45427e-05
-6.11229e-06
8.69665e-05
-4.28953e-06
8.82108e-05
-2.33754e-06
8.82234e-05
-3.17075e-07
8.69895e-05
1.67813e-06
8.45702e-05
3.58849e-06
8.10565e-05
5.32068e-06
7.65358e-05
6.86007e-06
7.11343e-05
8.14356e-06
6.49765e-05
9.16771e-06
5.81932e-05
9.93335e-06
5.09217e-05
1.04431e-05
4.32997e-05
1.07087e-05
3.54576e-05
1.07653e-05
2.75e-05
1.06655e-05
1.95098e-05
1.04629e-05
1.1555e-05
1.0184e-05
3.72588e-06
9.84618e-06
-3.94785e-06
9.50184e-06
-1.144e-05
9.18223e-06
-1.87455e-05
8.91969e-06
-2.58457e-05
8.69037e-06
-3.27099e-05
8.46462e-06
-3.92863e-05
8.20264e-06
-4.55141e-05
7.87501e-06
-5.13325e-05
7.46394e-06
-5.66505e-05
6.90541e-06
-6.13537e-05
6.1554e-06
-6.53396e-05
5.2103e-06
-6.85283e-05
4.08189e-06
-7.08355e-05
2.78293e-06
-7.22554e-05
1.37603e-06
-7.26772e-05
-1.61658e-07
-7.21114e-05
-1.73513e-06
-7.05618e-05
-3.3226e-06
-6.80733e-05
-4.85621e-06
-6.47216e-05
-6.28223e-06
-6.06061e-05
-7.54432e-06
-5.58565e-05
-8.59448e-06
-5.06153e-05
-9.39756e-06
-4.50486e-05
-9.91083e-06
-3.93243e-05
-1.0114e-05
-3.36088e-05
-9.99765e-06
-2.80699e-05
-9.57534e-06
-2.284e-05
-8.88275e-06
-1.80276e-05
-7.96238e-06
-1.36811e-05
-6.88122e-06
-9.8318e-06
-5.74468e-06
-6.40131e-06
-4.6338e-06
-3.26823e-06
-3.66535e-06
-3.27005e-07
-2.92524e-06
2.5891e-06
-2.34234e-06
5.56512e-06
-1.85392e-06
8.32943e-06
-1.12605e-06
1.04528e-05
2.24433e-07
1.14263e-05
2.3234e-06
1.06067e-05
5.32919e-06
6.94498e-06
9.81404e-06
1.46891e-05
-5.62203e-06
1.86048e-05
-7.22251e-06
1.04007e-05
-5.24736e-06
2.16839e-06
-9.04541e-07
-3.5213e-06
4.81068e-06
-7.27403e-06
1.11219e-05
-9.36879e-06
1.75186e-05
-1.04035e-05
2.38129e-05
-1.09699e-05
2.99558e-05
-1.15611e-05
3.60797e-05
-1.23914e-05
4.23277e-05
-1.34883e-05
4.88049e-05
-1.4764e-05
5.55501e-05
-1.60561e-05
6.25395e-05
-1.71828e-05
6.96825e-05
-1.79814e-05
7.68325e-05
-1.83489e-05
8.38036e-05
-1.82031e-05
9.0401e-05
-1.74823e-05
9.64121e-05
-1.61706e-05
0.000101642
-1.43203e-05
0.000105891
-1.19661e-05
0.000109003
-9.21165e-06
0.000110852
-6.12782e-06
0.00011136
-2.83606e-06
0.000110479
5.72231e-07
0.000108218
3.94641e-06
0.000104674
7.13847e-06
9.99148e-05
1.0084e-05
9.40463e-05
1.27318e-05
8.72087e-05
1.49832e-05
7.95587e-05
1.68188e-05
7.12625e-05
1.82299e-05
6.24802e-05
1.92251e-05
5.33596e-05
1.98281e-05
4.40467e-05
2.00767e-05
3.46711e-05
2.00399e-05
2.53288e-05
1.98041e-05
1.60891e-05
1.94223e-05
7.006e-06
1.89269e-05
-1.89445e-06
1.8399e-05
-1.06037e-05
1.78875e-05
-1.91259e-05
1.74378e-05
-2.74438e-05
1.70049e-05
-3.55402e-05
1.65591e-05
-4.33666e-05
1.60291e-05
-5.08662e-05
1.5377e-05
-5.79594e-05
1.45618e-05
-6.45531e-05
1.35054e-05
-7.05276e-05
1.21373e-05
-7.57768e-05
1.0467e-05
-8.02059e-05
8.51782e-06
-8.37124e-05
6.29488e-06
-8.62335e-05
3.90115e-06
-8.77421e-05
1.34963e-06
-8.81302e-05
-1.34514e-06
-8.7441e-05
-4.01029e-06
-8.57143e-05
-6.58153e-06
-8.30252e-05
-8.96974e-06
-7.94791e-05
-1.10886e-05
-7.51985e-05
-1.28727e-05
-7.03387e-05
-1.42543e-05
-6.50622e-05
-1.51838e-05
-5.95374e-05
-1.56348e-05
-5.39407e-05
-1.559e-05
-4.84178e-05
-1.50932e-05
-4.30928e-05
-1.42022e-05
-3.80558e-05
-1.2994e-05
-3.33388e-05
-1.15937e-05
-2.89211e-05
-1.01592e-05
-2.46892e-05
-8.86401e-06
-2.04717e-05
-7.88232e-06
-1.60969e-05
-7.30001e-06
-1.14083e-05
-7.03054e-06
-6.42937e-06
-6.83178e-06
-1.35504e-06
-6.19785e-06
3.37999e-06
-4.50572e-06
6.93822e-06
-1.22775e-06
8.32811e-06
3.94483e-06
6.34522e-06
1.17912e-05
2.10301e-05
-5.66571e-06
2.42672e-05
-6.42403e-06
1.11594e-05
-3.04714e-06
-1.20764e-06
3.01494e-06
-9.58241e-06
1.03821e-05
-1.46405e-05
1.81805e-05
-1.7167e-05
2.58178e-05
-1.8042e-05
3.31023e-05
-1.82569e-05
4.00913e-05
-1.85533e-05
4.69825e-05
-1.92867e-05
5.39775e-05
-2.04881e-05
6.12133e-05
-2.20036e-05
6.87384e-05
-2.3584e-05
7.65258e-05
-2.49717e-05
8.44725e-05
-2.59273e-05
9.24057e-05
-2.62777e-05
0.00010012
-2.59088e-05
0.000107394
-2.47447e-05
0.000114001
-2.27627e-05
0.000119689
-1.99926e-05
0.000124267
-1.65275e-05
0.000127535
-1.24653e-05
0.00012936
-7.93959e-06
0.00012965
-3.11531e-06
0.000128342
1.8903e-06
0.000125528
6.76926e-06
0.000121226
1.14481e-05
0.000115537
1.57782e-05
0.000108588
1.96849e-05
0.00010055
2.30233e-05
9.16168e-05
2.57534e-05
8.19954e-05
2.78523e-05
7.18732e-05
2.93478e-05
6.14191e-05
3.02817e-05
5.07983e-05
3.06959e-05
4.017e-05
3.06661e-05
2.96446e-05
3.03274e-05
1.92872e-05
2.97775e-05
9.11927e-06
2.90927e-05
-8.45246e-07
2.83612e-05
-1.06052e-05
2.76452e-05
-2.01687e-05
2.69997e-05
-2.95426e-05
2.63782e-05
-3.87047e-05
2.57224e-05
-4.7617e-05
2.49445e-05
-5.62077e-05
2.39729e-05
-6.43947e-05
2.27553e-05
-7.20663e-05
2.11839e-05
-7.91153e-05
1.91927e-05
-8.54197e-05
1.67765e-05
-9.08408e-05
1.39426e-05
-9.52589e-05
1.07151e-05
-9.85864e-05
7.22956e-06
-0.000100749
3.51224e-06
-0.000101683
-4.10402e-07
-0.000101408
-4.28445e-06
-9.99355e-05
-8.05335e-06
-9.73816e-05
-1.15228e-05
-9.38313e-05
-1.46384e-05
-8.94308e-05
-1.72726e-05
-8.43476e-05
-1.93362e-05
-7.8768e-05
-2.07612e-05
-7.2893e-05
-2.15068e-05
-6.69008e-05
-2.15791e-05
-6.09579e-05
-2.10322e-05
-5.5199e-05
-1.99563e-05
-4.97119e-05
-1.84754e-05
-4.45378e-05
-1.67617e-05
-3.96499e-05
-1.50409e-05
-3.49284e-05
-1.35797e-05
-3.01757e-05
-1.26296e-05
-2.51473e-05
-1.23234e-05
-1.96159e-05
-1.25569e-05
-1.35018e-05
-1.29404e-05
-6.97619e-06
-1.27172e-05
-6.09624e-07
-1.08653e-05
4.68248e-06
-6.5139e-06
7.53997e-06
1.08762e-06
6.42585e-06
1.28982e-05
2.7461e-05
-6.14307e-06
3.04106e-05
-6.51548e-06
1.15354e-05
-1.89311e-06
-5.82738e-06
5.51115e-06
-1.69853e-05
1.41412e-05
-2.32709e-05
2.28235e-05
-2.58512e-05
3.09789e-05
-2.62014e-05
3.85284e-05
-2.58123e-05
4.57071e-05
-2.5738e-05
5.28413e-05
-2.64272e-05
6.02217e-05
-2.7875e-05
6.80214e-05
-2.9807e-05
7.62875e-05
-3.18512e-05
8.49696e-05
-3.36529e-05
9.3927e-05
-3.48819e-05
0.000102941
-3.52869e-05
0.000111756
-3.47185e-05
0.0001201
-3.30803e-05
0.000127689
-3.0342e-05
0.000134255
-2.65484e-05
0.000139562
-2.18246e-05
0.000143372
-1.62661e-05
0.000145545
-1.01041e-05
0.000145972
-3.53509e-06
0.000144521
3.34824e-06
0.000141354
9.94127e-06
0.000136461
1.63447e-05
0.000130018
2.22245e-05
0.000122134
2.75706e-05
0.000112997
3.21603e-05
0.000102856
3.58944e-05
9.19556e-05
3.87524e-05
8.05319e-05
4.0771e-05
6.87715e-05
4.2041e-05
5.68627e-05
4.26026e-05
4.49691e-05
4.25569e-05
3.32279e-05
4.20659e-05
2.17081e-05
4.12952e-05
1.04247e-05
4.03747e-05
-6.25044e-07
3.94103e-05
-1.1466e-05
3.84858e-05
-2.20989e-05
3.76324e-05
-3.25365e-05
3.68157e-05
-4.27734e-05
3.59592e-05
-5.27727e-05
3.49441e-05
-6.24633e-05
3.3664e-05
-7.17185e-05
3.20113e-05
-8.04315e-05
2.9898e-05
-8.84804e-05
2.72425e-05
-9.57142e-05
2.40113e-05
-0.000101982
2.02113e-05
-0.000107148
1.58808e-05
-0.00011108
1.11611e-05
-0.000113719
6.15083e-06
-0.000114963
8.32663e-07
-0.000114781
-4.46642e-06
-0.000113237
-9.598e-06
-0.000110408
-1.4351e-05
-0.000106419
-1.86281e-05
-0.000101462
-2.22304e-05
-9.57006e-05
-2.50981e-05
-8.93766e-05
-2.70846e-05
-8.27105e-05
-2.81717e-05
-7.59241e-05
-2.83639e-05
-6.92049e-05
-2.77497e-05
-6.27291e-05
-2.64297e-05
-5.66157e-05
-2.45853e-05
-5.09517e-05
-2.24214e-05
-4.57348e-05
-2.02528e-05
-4.08458e-05
-1.84634e-05
-3.60476e-05
-1.74227e-05
-3.09923e-05
-1.73741e-05
-2.53065e-05
-1.82384e-05
-1.87143e-05
-1.95282e-05
-1.12648e-05
-2.01626e-05
-3.54538e-06
-1.85818e-05
3.21683e-06
-1.32769e-05
7.46382e-06
-3.16601e-06
6.86761e-06
1.34911e-05
3.43333e-05
-6.89982e-06
3.73129e-05
-6.82121e-06
1.14606e-05
-8.19764e-07
-1.18268e-05
8.12444e-06
-2.59293e-05
1.78394e-05
-3.2988e-05
2.69106e-05
-3.49259e-05
3.48513e-05
-3.41467e-05
4.18641e-05
-3.28307e-05
4.84754e-05
-3.23534e-05
5.52365e-05
-3.31912e-05
6.25539e-05
-3.51946e-05
7.06405e-05
-3.78927e-05
7.95292e-05
-4.07362e-05
8.91129e-05
-4.32311e-05
9.91706e-05
-4.49335e-05
0.000109436
-4.55468e-05
0.000119576
-4.48546e-05
0.000129243
-4.27447e-05
0.000138098
-3.91935e-05
0.00014581
-3.4258e-05
0.0001521
-2.81132e-05
0.000156685
-2.08513e-05
0.000159385
-1.28041e-05
0.000160059
-4.21042e-06
0.000158694
4.71257e-06
0.000155132
1.35022e-05
0.000149742
2.17326e-05
0.000142531
2.94336e-05
0.000133704
3.63948e-05
0.000123498
4.23642e-05
0.000112174
4.72149e-05
0.00010003
5.08939e-05
8.73468e-05
5.34532e-05
7.43683e-05
5.50189e-05
6.12914e-05
5.56787e-05
4.82853e-05
5.55619e-05
3.54928e-05
5.48573e-05
2.29965e-05
5.37908e-05
1.08074e-05
5.25637e-05
-1.09782e-06
5.13161e-05
-1.27527e-05
5.01415e-05
-2.42061e-05
4.90863e-05
-3.54816e-05
4.80912e-05
-4.65864e-05
4.70632e-05
-5.74912e-05
4.58473e-05
-6.81117e-05
4.42826e-05
-7.83414e-05
4.22388e-05
-8.80244e-05
3.9579e-05
-9.70009e-05
3.62176e-05
-0.000105107
3.21164e-05
-0.000112157
2.72619e-05
-0.00011799
2.17142e-05
-0.00012243
1.56008e-05
-0.000125366
9.08708e-06
-0.000126804
2.2709e-06
-0.000126522
-4.74761e-06
-0.00012466
-1.14598e-05
-0.000121328
-1.76819e-05
-0.000116655
-2.33002e-05
-0.000110847
-2.80376e-05
-0.000104141
-3.1805e-05
-9.67778e-05
-3.44477e-05
-8.90503e-05
-3.58986e-05
-8.12113e-05
-3.62021e-05
-7.352e-05
-3.54408e-05
-6.61913e-05
-3.37583e-05
-5.94385e-05
-3.13377e-05
-5.34227e-05
-2.84366e-05
-4.81867e-05
-2.54876e-05
-4.36234e-05
-2.30248e-05
-3.94315e-05
-2.16127e-05
-3.51227e-05
-2.16815e-05
-3.00845e-05
-2.32757e-05
-2.37171e-05
-2.58954e-05
-1.57823e-05
-2.80987e-05
-6.80842e-06
-2.75604e-05
1.70916e-06
-2.18041e-05
7.55969e-06
-9.02828e-06
7.56165e-06
1.34895e-05
4.18896e-05
-7.69753e-06
4.50128e-05
-6.55929e-06
1.03249e-05
1.82827e-06
-2.02134e-05
1.29562e-05
-3.70573e-05
2.37323e-05
-4.37655e-05
3.25139e-05
-4.37091e-05
3.91889e-05
-4.08225e-05
4.45507e-05
-3.81933e-05
4.96301e-05
-3.74309e-05
5.53001e-05
-3.88573e-05
6.21004e-05
-4.19912e-05
7.02392e-05
-4.6026e-05
7.96768e-05
-5.01665e-05
9.02067e-05
-5.37533e-05
0.000101529
-5.62488e-05
0.000113252
-5.72657e-05
0.000124965
-5.65653e-05
0.000136236
-5.40173e-05
0.000146635
-4.95959e-05
0.000155755
-4.33828e-05
0.000163231
-3.55939e-05
0.000168765
-2.63915e-05
0.000172106
-1.61514e-05
0.000173112
-5.22213e-06
0.000171709
6.11026e-06
0.000167863
1.73453e-05
0.000161819
2.77734e-05
0.00015375
3.75009e-05
0.00014387
4.62738e-05
0.000132476
5.37578e-05
0.00011988
5.98104e-05
0.00010643
6.43446e-05
9.24618e-05
6.74223e-05
7.82738e-05
6.92094e-05
6.40937e-05
6.98623e-05
5.01009e-05
6.95582e-05
3.6436e-05
6.85257e-05
2.31833e-05
6.70468e-05
1.03504e-05
6.53998e-05
-2.1173e-06
6.37873e-05
-1.42964e-05
6.23241e-05
-2.62732e-05
6.10665e-05
-3.81118e-05
5.99326e-05
-4.98554e-05
5.88088e-05
-6.14682e-05
5.74613e-05
-7.29093e-05
5.57238e-05
-8.40228e-05
5.33516e-05
-9.46413e-05
5.01961e-05
-0.000104564
4.6139e-05
-0.000113567
4.11184e-05
-0.000121428
3.51241e-05
-0.000127927
2.82148e-05
-0.000132865
2.05419e-05
-0.000136088
1.23133e-05
-0.000137612
3.79895e-06
-0.000137148
-5.20878e-06
-0.000134862
-1.37421e-05
-0.000130839
-2.1701e-05
-0.000125296
-2.88407e-05
-0.000118425
-3.4907e-05
-0.000110516
-3.97135e-05
-0.000101857
-4.3107e-05
-9.27979e-05
-4.49582e-05
-8.36727e-05
-4.53278e-05
-7.48071e-05
-4.43074e-05
-6.65198e-05
-4.20473e-05
-5.91377e-05
-3.87219e-05
-5.29134e-05
-3.46635e-05
-4.79793e-05
-3.04242e-05
-4.42804e-05
-2.67256e-05
-4.14804e-05
-2.44142e-05
-3.8919e-05
-2.42442e-05
-3.56289e-05
-2.65674e-05
-3.0468e-05
-3.10586e-05
-2.26148e-05
-3.59563e-05
-1.22744e-05
-3.79085e-05
-1.25447e-06
-3.28343e-05
7.13884e-06
-1.74268e-05
8.32362e-06
1.23083e-05
5.02075e-05
-8.09502e-06
5.31093e-05
-4.32873e-06
6.56122e-06
8.42206e-06
-3.29623e-05
2.30536e-05
-5.16863e-05
3.47537e-05
-5.54629e-05
4.19529e-05
-5.09053e-05
4.55752e-05
-4.44402e-05
4.75799e-05
-4.01947e-05
4.98281e-05
-3.96732e-05
5.35697e-05
-4.25926e-05
5.94152e-05
-4.78326e-05
6.74683e-05
-5.40768e-05
7.75288e-05
-6.02256e-05
8.92249e-05
-6.54485e-05
0.000102093
-6.91173e-05
0.000115621
-7.07954e-05
0.000129276
-7.02253e-05
0.000142515
-6.72619e-05
0.000154807
-6.18936e-05
0.000165642
-5.42243e-05
0.000174555
-4.4512e-05
0.000181223
-3.30633e-05
0.000185325
-2.02575e-05
0.000186691
-6.5897e-06
0.000185206
7.59531e-06
0.000180937
2.16159e-05
0.000174071
3.46426e-05
0.000164946
4.66295e-05
0.000153784
5.74414e-05
0.000140967
6.65806e-05
0.000126884
7.38974e-05
0.00011194
7.92919e-05
9.65315e-05
8.2834e-05
8.10233e-05
8.47213e-05
6.56932e-05
8.51963e-05
5.07358e-05
8.45197e-05
3.62998e-05
8.29658e-05
2.24584e-05
8.08918e-05
9.1948e-06
7.86667e-05
-3.58088e-06
7.65663e-05
-1.60344e-05
7.4781e-05
-2.82898e-05
7.33255e-05
-4.05156e-05
7.21619e-05
-5.2735e-05
7.10315e-05
-6.50099e-05
6.9739e-05
-7.72144e-05
6.7931e-05
-8.92261e-05
6.53649e-05
-0.000100839
6.18092e-05
-0.000111799
5.70987e-05
-0.000121817
5.1137e-05
-0.000130608
4.39163e-05
-0.000137882
3.54913e-05
-0.000143411
2.60746e-05
-0.000146973
1.58801e-05
-0.000148559
5.38992e-06
-0.000147854
-5.90881e-06
-0.000145049
-1.6543e-05
-0.000140196
-2.65493e-05
-0.000133584
-3.54493e-05
-0.000125416
-4.30735e-05
-0.000116029
-4.91017e-05
-0.000105798
-5.33404e-05
-9.50987e-05
-5.56605e-05
-8.43693e-05
-5.60599e-05
-7.40505e-05
-5.4629e-05
-6.45985e-05
-5.15022e-05
-5.64836e-05
-4.68399e-05
-5.00597e-05
-4.1091e-05
-4.5645e-05
-3.48426e-05
-4.33301e-05
-2.90435e-05
-4.28385e-05
-2.4908e-05
-4.33787e-05
-2.37056e-05
-4.35018e-05
-2.64457e-05
-4.11916e-05
-3.33706e-05
-3.44955e-05
-4.26551e-05
-2.2764e-05
-4.96433e-05
-7.95855e-06
-4.76396e-05
4.89174e-06
-3.02669e-05
8.7797e-06
8.42602e-06
5.89951e-05
-7.48423e-06
6.05951e-05
1.79673e-06
-2.71459e-06
2.18046e-05
-5.29656e-05
4.11483e-05
-7.10243e-05
5.30487e-05
-6.73575e-05
5.65368e-05
-5.43882e-05
5.45076e-05
-4.24051e-05
5.08872e-05
-3.65733e-05
4.87462e-05
-3.75303e-05
4.97154e-05
-4.35615e-05
5.43046e-05
-5.24236e-05
6.23454e-05
-6.21234e-05
7.33204e-05
-7.12095e-05
8.65894e-05
-7.87267e-05
0.000101481
-8.40169e-05
0.000117321
-8.66434e-05
0.000133428
-8.63392e-05
0.00014913
-8.29699e-05
0.000163766
-7.65322e-05
0.000176717
-6.71752e-05
0.00018742
-5.52137e-05
0.000195446
-4.10855e-05
0.000200447
-2.52554e-05
0.000202183
-8.32066e-06
0.000200588
9.19487e-06
0.000195745
2.6464e-05
0.000187948
4.2445e-05
0.000177378
5.72044e-05
0.000164565
7.026e-05
0.000149947
8.1205e-05
0.000134014
8.9835e-05
0.000117256
9.60529e-05
0.00010014
9.99509e-05
8.30936e-05
0.000101768
6.64526e-05
0.000101836
5.04795e-05
0.000100491
3.52972e-05
9.81464e-05
2.09618e-05
9.52251e-05
7.42058e-06
9.22052e-05
-5.48918e-06
8.94733e-05
-1.79949e-05
8.72839e-05
-3.038e-05
8.57083e-05
-4.28246e-05
8.46047e-05
-5.55042e-05
8.37099e-05
-6.83941e-05
8.2629e-05
-8.14421e-05
8.09808e-05
-9.44687e-05
7.83946e-05
-0.000107231
7.4575e-05
-0.000119413
6.92829e-05
-0.000130656
6.23823e-05
-0.000140589
5.38514e-05
-0.000148833
4.37381e-05
-0.000155169
3.24127e-05
-0.000159168
1.98824e-05
-0.000160848
7.0731e-06
-0.000159894
-6.86114e-06
-0.000156404
-2.00319e-05
-0.000150638
-3.23144e-05
-0.000142682
-4.34036e-05
-0.000132906
-5.28482e-05
-0.000121701
-6.03079e-05
-0.000109502
-6.55415e-05
-9.67856e-05
-6.8381e-05
-8.40598e-05
-6.87894e-05
-7.18967e-05
-6.67957e-05
-6.09041e-05
-6.24979e-05
-5.16906e-05
-5.60555e-05
-4.48491e-05
-4.79347e-05
-4.09589e-05
-3.87347e-05
-4.04108e-05
-2.95923e-05
-4.31854e-05
-2.21328e-05
-4.847e-05
-1.84199e-05
-5.42621e-05
-2.06525e-05
-5.72298e-05
-3.04021e-05
-5.35061e-05
-4.63781e-05
-4.07771e-05
-6.23691e-05
-2.08159e-05
-6.75905e-05
-7.65586e-07
-5.03006e-05
8.44247e-06
-7.78263e-07
6.74492e-05
-5.51546e-06
6.61137e-05
1.23136e-05
-2.05363e-05
4.11655e-05
-8.18118e-05
6.48757e-05
-9.47299e-05
7.52527e-05
-7.77312e-05
7.27174e-05
-5.18522e-05
6.27755e-05
-3.24607e-05
5.17927e-05
-2.55949e-05
4.42724e-05
-3.0013e-05
4.21693e-05
-4.14635e-05
4.56971e-05
-5.59559e-05
5.42001e-05
-7.06316e-05
6.67151e-05
-8.37315e-05
8.22296e-05
-9.42482e-05
9.98456e-05
-0.000101638
0.000118683
-0.000105485
0.000137917
-0.000105576
0.000156731
-0.000101785
0.000174323
-9.41226e-05
0.000189934
-8.27837e-05
0.000202881
-6.81571e-05
0.00021258
-5.078e-05
0.000218653
-3.13247e-05
0.000220877
-1.05411e-05
0.000219012
1.10625e-05
0.000213437
3.20426e-05
0.000204247
5.16378e-05
0.00019191
6.9544e-05
0.000176999
8.51738e-05
0.000160096
9.81142e-05
0.000141839
0.000108098
0.000122834
0.000115062
0.000103652
0.000119137
8.47835e-05
0.000120638
6.66419e-05
0.000119979
4.94974e-05
0.000117635
3.35217e-05
0.00011412
1.87389e-05
0.000110005
5.03359e-06
0.000105906
-7.82901e-06
0.00010233
-2.02472e-05
9.96951e-05
-3.25918e-05
9.80458e-05
-4.51879e-05
9.71941e-05
-5.82459e-05
9.67614e-05
-7.18107e-05
9.61887e-05
-8.58319e-05
9.5e-05
-0.000100069
9.26328e-05
-0.000114238
8.8748e-05
-0.000127946
8.29948e-05
-0.000140743
7.51831e-05
-0.000152152
6.52636e-05
-0.000161718
5.3306e-05
-0.000168986
3.96816e-05
-0.000173643
2.45393e-05
-0.00017552
8.95194e-06
-0.000174267
-8.11435e-06
-0.0001701
-2.41992e-05
-0.00016306
-3.93536e-05
-0.000153469
-5.29922e-05
-0.000141703
-6.4612e-05
-0.000128242
-7.37675e-05
-0.000113606
-8.01778e-05
-9.83574e-05
-8.36314e-05
-8.31135e-05
-8.40359e-05
-6.85487e-05
-8.13639e-05
-5.54005e-05
-7.56491e-05
-4.44558e-05
-6.70013e-05
-3.66039e-05
-5.57865e-05
-3.28321e-05
-4.25051e-05
-3.39851e-05
-2.84358e-05
-4.04998e-05
-1.56123e-05
-5.17448e-05
-7.16811e-06
-6.50634e-05
-7.3275e-06
-7.54926e-05
-1.99671e-05
-7.6736e-05
-4.51282e-05
-6.42499e-05
-7.48452e-05
-3.90764e-05
-9.27499e-05
-1.01789e-05
-7.91903e-05
6.85799e-06
-1.78128e-05
7.43058e-05
-2.42099e-06
6.8539e-05
2.32846e-05
-4.62371e-05
5.76759e-05
-0.000116201
8.14493e-05
-0.000118504
8.73464e-05
-8.36296e-05
7.78092e-05
-4.23194e-05
6.0415e-05
-1.50654e-05
4.31282e-05
-8.31149e-06
3.1554e-05
-1.84372e-05
2.77064e-05
-3.76142e-05
3.14091e-05
-5.96559e-05
4.15072e-05
-8.07258e-05
5.66593e-05
-9.88796e-05
7.54696e-05
-0.000113055
9.67621e-05
-0.000122927
0.000119517
-0.000128237
0.000142749
-0.000128808
0.000165511
-0.000124546
0.000186835
-0.000115448
0.000205789
-0.000101739
0.000221519
-8.38898e-05
0.000233324
-6.25858e-05
0.000240707
-3.87092e-05
0.000243385
-1.32201e-05
0.000241228
1.32207e-05
0.000234657
3.86162e-05
0.000223703
6.25953e-05
0.000209113
8.41365e-05
0.000191559
0.00010273
0.000171781
0.000117894
0.00015063
0.000129254
0.000128865
0.000136832
0.000107164
0.000140844
8.61367e-05
0.00014167
6.62307e-05
0.000139888
4.7771e-05
0.000136097
3.09536e-05
0.00013094
1.57666e-05
0.000125192
2.03321e-06
0.000119638
-1.06307e-05
0.000114993
-2.27713e-05
0.000111833
-3.49211e-05
0.000110192
-4.75551e-05
0.000109824
-6.09949e-05
0.000110196
-7.53163e-05
0.000110505
-9.04383e-05
0.000110117
-0.000106189
0.00010838
-0.000122112
0.000104669
-0.000137754
9.86364e-05
-0.000152524
8.9953e-05
-0.000165807
7.85466e-05
-0.000176999
6.44976e-05
-0.000185691
4.83741e-05
-0.000191166
3.00166e-05
-0.000193364
1.11524e-05
-0.000191826
-9.64813e-06
-0.000186685
-2.93375e-05
-0.000178153
-4.78834e-05
-0.000166556
-6.45856e-05
-0.00015233
-7.88362e-05
-0.000136068
-9.00275e-05
-0.000118398
-9.78483e-05
-9.99728e-05
-0.000102058
-8.15e-05
-0.000102511
-6.37193e-05
-9.91481e-05
-4.75243e-05
-9.18478e-05
-3.38552e-05
-8.06726e-05
-2.39099e-05
-6.57321e-05
-1.91752e-05
-4.72388e-05
-2.09318e-05
-2.66763e-05
-3.01411e-05
-6.39801e-06
-4.64556e-05
9.15264e-06
-6.65659e-05
1.27894e-05
-8.42539e-05
-2.27194e-06
-9.14572e-05
-3.79153e-05
-8.18241e-05
-8.44653e-05
-5.51251e-05
-0.000119437
-2.01601e-05
-0.000114158
4.30605e-06
-4.22737e-05
7.86073e-05
-7.24073e-07
6.92655e-05
2.57432e-05
-7.27066e-05
5.48216e-05
-0.000145283
6.97962e-05
-0.000133481
6.74724e-05
-8.13064e-05
5.247e-05
-2.73179e-05
3.22884e-05
5.12131e-06
1.42686e-05
9.7114e-06
3.20954e-06
-7.37298e-06
1.06214e-06
-3.54589e-05
7.68752e-06
-6.62734e-05
2.16169e-05
-9.46488e-05
4.08237e-05
-0.000118081
6.42351e-05
-0.000136462
9.04595e-05
-0.000149148
0.000118289
-0.000156064
0.000146623
-0.000157141
0.000174355
-0.00015228
0.000200358
-0.000141454
0.00022347
-0.000124856
0.000242646
-0.00010307
0.00025704
-7.69828e-05
0.000266079
-4.7751e-05
0.000269474
-1.66164e-05
0.00026693
1.57637e-05
0.00025919
4.63565e-05
0.000246141
7.56459e-05
0.000228844
0.000101432
0.000208074
0.000123498
0.000184801
0.000141163
0.000160144
0.000153905
0.000135086
0.000161885
0.000110451
0.000165476
8.6915e-05
0.000165203
6.50086e-05
0.000161794
4.51375e-05
0.000155969
2.74669e-05
0.000148612
1.20142e-05
0.000140648
-1.5693e-06
0.000133226
-1.38157e-05
0.000127243
-2.54519e-05
0.000123473
-3.7247e-05
0.00012199
-4.9819e-05
0.000122398
-6.35969e-05
0.000123975
-7.87834e-05
0.000125691
-9.52677e-05
0.0001266
-0.000112733
0.000125844
-0.000130805
0.000122738
-0.000148809
0.000116638
-0.000166052
0.000107193
-0.000181711
9.42051e-05
-0.000195075
7.78629e-05
-0.00020524
5.85413e-05
-0.000211809
3.65894e-05
-0.000214338
1.36879e-05
-0.000212352
-1.16266e-05
-0.000206121
-3.55639e-05
-0.000195769
-5.82334e-05
-0.000181701
-7.86534e-05
-0.000164508
-9.60281e-05
-0.000144816
-0.00010972
-0.00012341
-0.000119254
-0.000101022
-0.000124447
-7.83879e-05
-0.000125147
-5.63531e-05
-0.000121186
-3.58345e-05
-0.000112371
-1.81231e-05
-9.83892e-05
-4.66688e-06
-7.91937e-05
3.19478e-06
-5.51057e-05
3.42854e-06
-2.6915e-05
-4.8806e-06
1.90683e-06
-2.16496e-05
2.59183e-05
-4.36484e-05
3.47864e-05
-6.47825e-05
1.88633e-05
-7.73393e-05
-2.5353e-05
-7.45682e-05
-8.72286e-05
-5.47232e-05
-0.00013928
-2.32696e-05
-0.000145614
2.73385e-06
-6.82683e-05
8.13491e-05
-4.70066e-06
7.39645e-05
8.32774e-06
-8.57405e-05
1.69096e-05
-0.000153867
1.33338e-05
-0.000129905
4.28464e-07
-6.83981e-05
-1.72185e-05
-9.66598e-06
-3.44222e-05
2.2329e-05
-4.64234e-05
2.17178e-05
-5.04498e-05
-3.34753e-06
-4.54064e-05
-4.05039e-05
-3.21777e-05
-7.95034e-05
-1.21101e-05
-0.000114719
1.36993e-05
-0.000143894
4.34777e-05
-0.000166243
7.60696e-05
-0.000181742
0.000110347
-0.000190343
0.000145026
-0.000191821
0.000178895
-0.00018615
0.000210591
-0.000173149
0.000238756
-0.00015302
0.000262151
-0.000126464
0.00027982
-9.46509e-05
0.000291126
-5.90557e-05
0.000295745
-2.1234e-05
0.000293355
1.81536e-05
0.000284561
5.5153e-05
0.000269786
9.04237e-05
0.000249432
0.000121788
0.000224936
0.000147997
0.000197683
0.00016842
0.000169061
0.000182531
0.000140307
0.000190643
0.000112411
0.000193374
8.61359e-05
0.00019148
6.2149e-05
0.000185781
4.09048e-05
0.000177212
2.26334e-05
0.000166882
7.15792e-06
0.000156121
-5.82361e-06
0.000146204
-1.72498e-05
0.000138668
-2.8034e-05
0.000134257
-3.91439e-05
0.000133104
-5.14437e-05
0.000134704
-6.55268e-05
0.000138064
-8.16369e-05
0.000141806
-9.96019e-05
0.000144568
-0.000119093
0.000145337
-0.000139557
0.000143203
-0.000160325
0.000137407
-0.000180431
0.0001273
-0.00019883
0.000112606
-0.000214427
9.34636e-05
-0.000226505
7.06225e-05
-0.00023402
4.41053e-05
-0.000236544
1.62145e-05
-0.000233846
-1.43213e-05
-0.000226022
-4.33856e-05
-0.00021336
-7.08928e-05
-0.000196338
-9.56754e-05
-0.000175592
-0.000116773
-0.000151879
-0.000133434
-0.000125998
-0.000145137
-9.87491e-05
-0.000151698
-7.08871e-05
-0.00015301
-4.33089e-05
-0.000148765
-1.7036e-05
-0.000138643
6.7229e-06
-0.000122146
2.64106e-05
-9.88793e-05
4.03156e-05
-6.9009e-05
4.69455e-05
-3.3544e-05
4.45236e-05
4.3286e-06
3.36764e-05
3.67645e-05
1.64013e-05
5.20612e-05
-2.67868e-06
3.79453e-05
-1.82596e-05
-9.76821e-06
-2.64448e-05
-7.90421e-05
-2.38093e-05
-0.000141921
-9.97216e-06
-0.000159445
5.62611e-06
-8.38582e-05
8.69828e-05
-1.7807e-05
9.17682e-05
-3.38477e-05
-6.97014e-05
-5.87251e-05
-0.000128988
-8.76579e-05
-0.00010097
-0.000113744
-4.23143e-05
-0.00013228
8.87363e-06
-0.000141842
3.18842e-05
-0.000142606
2.24802e-05
-0.000135122
-1.08336e-05
-0.000119934
-5.56927e-05
-9.764e-05
-0.000101799
-6.90067e-05
-0.000143353
-3.50673e-05
-0.000177834
2.99576e-06
-0.000204306
4.37992e-05
-0.000222544
8.59124e-05
-0.000232455
0.000128157
-0.000234063
0.000169193
-0.000227185
0.000207471
-0.000211423
0.000241528
-0.000187074
0.000270037
-0.00015497
0.000291982
-0.000116593
0.000306664
-7.37357e-05
0.000313735
-2.83044e-05
0.000313274
1.86159e-05
0.000304627
6.3803e-05
0.00028862
0.000106439
0.00026576
0.000144656
0.000237854
0.000175909
0.000206626
0.000199653
0.000173999
0.000215162
0.000141644
0.000222999
0.00011064
0.000224377
8.18362e-05
0.000220283
5.59642e-05
0.00021165
3.36579e-05
0.000199515
1.51943e-05
0.000185344
4.04383e-07
0.000170909
-1.10353e-05
0.000157643
-2.06406e-05
0.000148272
-2.96779e-05
0.000143291
-3.94874e-05
0.000142909
-5.1123e-05
0.000146335
-6.52487e-05
0.000152185
-8.20773e-05
0.00015863
-0.000101505
0.000163994
-0.000123001
0.000166833
-0.000145944
0.000166147
-0.000169498
0.000160963
-0.000192588
0.000150392
-0.000213758
0.000133777
-0.00023163
0.000111335
-0.00024458
8.3569e-05
-0.000252498
5.20178e-05
-0.000253919
1.763e-05
-0.000249551
-1.86934e-05
-0.000239425
-5.35147e-05
-0.000223858
-8.6463e-05
-0.000203312
-0.000116224
-0.000178514
-0.000141573
-0.000150283
-0.000161666
-0.000119275
-0.000176144
-8.63277e-05
-0.000184643
-5.20108e-05
-0.000187322
-1.7172e-05
-0.000183599
1.67439e-05
-0.000172554
4.85068e-05
-0.000153904
7.6621e-05
-0.000126989
9.94382e-05
-9.18224e-05
0.000115788
-4.98908e-05
0.00012473
-4.61155e-06
0.000125885
3.56131e-05
0.000119453
5.84977e-05
0.000106491
5.09136e-05
8.77074e-05
9.01946e-06
6.53361e-05
-5.66719e-05
4.28764e-05
-0.000119463
2.57321e-05
-0.000142287
1.62976e-05
-7.442e-05
0.000103274
-4.02605e-05
0.000132028
-9.69949e-05
-1.29662e-05
-0.000159572
-6.64104e-05
-0.00021569
-4.48516e-05
-0.000256146
-1.86839e-06
-0.000277203
2.99352e-05
-0.000281639
3.63228e-05
-0.000273674
1.4518e-05
-0.000256546
-2.79578e-05
-0.000232011
-8.02217e-05
-0.000200557
-0.000133247
-0.000162552
-0.000181352
-0.000118801
-0.00022158
-7.07476e-05
-0.000252356
-2.01404e-05
-0.000273149
3.12764e-05
-0.000283871
8.21583e-05
-0.000284945
0.000131089
-0.000276116
0.000176488
-0.000256822
0.000217093
-0.00022768
0.000251683
-0.000189561
0.000279214
-0.000144123
0.000299117
-9.36401e-05
0.000310938
-4.0127e-05
0.000314502
1.50449e-05
0.000308076
7.02162e-05
0.000292789
0.000121712
0.000269071
0.000168361
0.000238544
0.000206426
0.000204168
0.000234023
0.000168432
0.000250893
0.000133429
0.000258001
0.000100234
0.000257574
6.96668e-05
0.000250856
4.26805e-05
0.000238643
2.03349e-05
0.000221867
2.90678e-06
0.000202778
-9.074e-06
0.00018289
-1.76425e-05
0.000166211
-2.36346e-05
0.00015426
-2.91769e-05
0.00014883
-3.61981e-05
0.000149929
-4.60849e-05
0.000156223
-5.94874e-05
0.000165589
-7.65723e-05
0.000175717
-9.69046e-05
0.000184328
-0.000119898
0.000189827
-0.000144762
0.000191012
-0.00017058
0.00018678
-0.000195986
0.000175797
-0.000219278
0.000157065
-0.000238188
0.000130242
-0.000251636
9.70107e-05
-0.000257549
5.79245e-05
-0.000256232
1.63083e-05
-0.000248692
-2.62347e-05
-0.000234915
-6.72912e-05
-0.000215477
-0.000105899