/*--------------------------------*- C++ -*----------------------------------*\
| =========                 |                                                 |
| \\      /  F ield         | OpenFOAM: The Open Source CFD Toolbox           |
|  \\    /   O peration     | Version:  2412                                  |
|   \\  /    A nd           | Website:  www.openfoam.com                      |
|    \\/     M anipulation  |                                                 |
\*---------------------------------------------------------------------------*/
FoamFile
{
    version     2.0;
    format      ascii;
    arch        "LSB;label=32;scalar=64";
    class       surfaceScalarField;
    location    "8.35";
    object      alphaPhi0.oil;
}
// * * * * * * * * * * * * * * * * * * * * * * * * * * * * * * * * * * * * * //

dimensions      [0 3 -1 0 0 0 0];

oriented        oriented;

internalField   nonuniform List<scalar> 
12640
(
2.40309e-08
-2.40302e-08
9.92334e-08
-7.5034e-08
2.05145e-07
-1.05746e-07
3.2046e-07
-1.15295e-07
4.32639e-07
-1.11955e-07
5.34914e-07
-1.0202e-07
6.2491e-07
-8.9904e-08
7.02912e-07
-7.78952e-08
7.70436e-07
-6.73183e-08
8.29254e-07
-5.85521e-08
8.80751e-07
-5.12291e-08
9.26076e-07
-4.50801e-08
9.66015e-07
-3.97232e-08
1.00077e-06
-3.45909e-08
1.03034e-06
-2.95106e-08
1.05469e-06
-2.44332e-08
1.07361e-06
-1.91218e-08
1.08669e-06
-1.33589e-08
1.09352e-06
-7.12469e-09
1.0937e-06
-5.07128e-10
1.08698e-06
6.34302e-09
1.07325e-06
1.33169e-08
1.05247e-06
2.0319e-08
1.02473e-06
2.72755e-08
9.90194e-07
3.41174e-08
9.49129e-07
4.0712e-08
9.01969e-07
4.68848e-08
8.49301e-07
5.24646e-08
7.91799e-07
5.73579e-08
7.30206e-07
6.15045e-08
6.65287e-07
6.4887e-08
5.97829e-07
6.74857e-08
5.28616e-07
6.93033e-08
4.5837e-07
7.03957e-08
3.8771e-07
7.08675e-08
3.17071e-07
7.09027e-08
2.46743e-07
7.0651e-08
1.76885e-07
7.02396e-08
1.07486e-07
6.98347e-08
3.8343e-08
6.9626e-08
-3.07859e-08
6.96457e-08
-1.0012e-07
6.98718e-08
-1.69918e-07
7.03444e-08
-2.40222e-07
7.08502e-08
-3.10978e-07
7.12976e-08
-3.82095e-07
7.1648e-08
-4.53227e-07
7.16466e-08
-5.23856e-07
7.11191e-08
-5.93267e-07
6.98662e-08
-6.60619e-07
6.77704e-08
-7.2513e-07
6.48872e-08
-7.86001e-07
6.11999e-08
-8.42415e-07
5.66923e-08
-8.93702e-07
5.15114e-08
-9.39243e-07
4.57092e-08
-9.78525e-07
3.93943e-08
-1.01117e-06
3.27006e-08
-1.03691e-06
2.57604e-08
-1.05565e-06
1.87111e-08
-1.06734e-06
1.16176e-08
-1.07204e-06
4.59568e-09
-1.06995e-06
-2.22104e-09
-1.06135e-06
-8.7515e-09
-1.04657e-06
-1.49576e-08
-1.02591e-06
-2.08418e-08
-9.99671e-07
-2.6432e-08
-9.68055e-07
-3.18095e-08
-9.30991e-07
-3.72577e-08
-8.88077e-07
-4.31045e-08
-8.38523e-07
-4.9738e-08
-7.8111e-07
-5.75844e-08
-7.14263e-07
-6.70035e-08
-6.36217e-07
-7.81902e-08
-5.4551e-07
-9.08478e-08
-4.41885e-07
-1.03779e-07
-3.27708e-07
-1.14362e-07
-2.09781e-07
-1.18158e-07
-1.01404e-07
-1.08655e-07
-2.4047e-08
-7.768e-08
-2.43915e-08
7.61285e-08
-9.99035e-08
2.5144e-07
-2.50097e-07
4.79347e-07
-3.3326e-07
7.22483e-07
-3.58238e-07
9.56466e-07
-3.45661e-07
1.168e-06
-3.13206e-07
1.35209e-06
-2.73707e-07
1.5093e-06
-2.34747e-07
1.6428e-06
-2.00371e-07
1.75651e-06
-1.71798e-07
1.85413e-06
-1.48434e-07
1.93872e-06
-1.29327e-07
2.01224e-06
-1.13002e-07
2.07556e-06
-9.77701e-08
2.12888e-06
-8.28056e-08
2.17215e-06
-6.78389e-08
2.20504e-06
-5.23254e-08
2.2269e-06
-3.56808e-08
2.23686e-06
-1.76543e-08
2.234e-06
1.69401e-09
2.21761e-06
2.20353e-08
2.18723e-06
4.29813e-08
2.1427e-06
6.41472e-08
2.08414e-06
8.51941e-08
2.01189e-06
1.0582e-07
1.92653e-06
1.25625e-07
1.82896e-06
1.44121e-07
1.72037e-06
1.60814e-07
1.60225e-06
1.75335e-07
1.47628e-06
1.87426e-07
1.34424e-06
1.96963e-07
1.20795e-06
2.03901e-07
1.06915e-06
2.08333e-07
9.29383e-07
2.10486e-07
7.89918e-07
2.10749e-07
6.51661e-07
2.09666e-07
5.15116e-07
2.07786e-07
3.80392e-07
2.05632e-07
2.47206e-07
2.03757e-07
1.14919e-07
2.02701e-07
-1.73327e-08
2.02719e-07
-1.50403e-07
2.0378e-07
-2.85037e-07
2.05817e-07
-4.21679e-07
2.08319e-07
-5.60458e-07
2.1088e-07
-7.01189e-07
2.1315e-07
-8.43291e-07
2.14477e-07
-9.85746e-07
2.1425e-07
-1.12708e-06
2.11816e-07
-1.26553e-06
2.06762e-07
-1.39923e-06
1.99045e-07
-1.52634e-06
1.88682e-07
-1.64511e-06
1.75757e-07
-1.75392e-06
1.60528e-07
-1.85144e-06
1.43346e-07
-1.93658e-06
1.24588e-07
-2.00853e-06
1.04617e-07
-2.06675e-06
8.38792e-08
-2.11099e-06
6.28045e-08
-2.14122e-06
4.16608e-08
-2.15769e-06
2.08523e-08
-2.16089e-06
7.39683e-10
-2.15148e-06
-1.84086e-08
-2.13019e-06
-3.65029e-08
-2.09767e-06
-5.35963e-08
-2.05443e-06
-6.99001e-08
-2.00065e-06
-8.57875e-08
-1.93591e-06
-1.02179e-07
-1.85892e-06
-1.2024e-07
-1.76745e-06
-1.41319e-07
-1.65836e-06
-1.66764e-07
-1.52778e-06
-1.97667e-07
-1.37162e-06
-2.34441e-07
-1.18682e-06
-2.75799e-07
-9.73125e-07
-3.17707e-07
-7.35721e-07
-3.52113e-07
-4.88301e-07
-3.66042e-07
-2.56154e-07
-3.41346e-07
-7.73949e-08
-2.57047e-07
-1.02027e-07
1.08654e-07
-2.08386e-07
3.40217e-07
-4.81808e-07
6.29157e-07
-6.22221e-07
9.302e-07
-6.59546e-07
1.21497e-06
-6.30491e-07
1.46817e-06
-5.66393e-07
1.68431e-06
-4.8993e-07
1.86464e-06
-4.15085e-07
2.01378e-06
-3.49422e-07
2.13731e-06
-2.9519e-07
2.24058e-06
-2.51522e-07
2.32813e-06
-2.16662e-07
2.40302e-06
-1.87607e-07
2.46673e-06
-1.61134e-07
2.51972e-06
-1.35443e-07
2.56196e-06
-1.09832e-07
2.59306e-06
-8.33455e-08
2.61227e-06
-5.49729e-08
2.61853e-06
-2.40948e-08
2.61068e-06
9.34397e-09
2.58768e-06
4.48397e-08
2.54882e-06
8.16644e-08
2.49376e-06
1.19044e-07
2.42252e-06
1.56286e-07
2.33545e-06
1.92767e-07
2.23325e-06
2.27755e-07
2.117e-06
2.60362e-07
1.98819e-06
2.89677e-07
1.84873e-06
3.14907e-07
1.70083e-06
3.35485e-07
1.54689e-06
3.51099e-07
1.38934e-06
3.61697e-07
1.23046e-06
3.675e-07
1.07228e-06
3.69007e-07
9.16382e-07
3.67033e-07
7.63828e-07
3.62636e-07
6.15098e-07
3.56962e-07
4.70005e-07
3.512e-07
3.278e-07
3.46464e-07
1.87242e-07
3.43784e-07
4.67922e-08
3.43708e-07
-9.51795e-08
3.46295e-07
-2.40092e-07
3.51262e-07
-3.88951e-07
3.5769e-07
-5.42308e-07
3.64719e-07
-7.00116e-07
3.71408e-07
-8.61762e-07
3.76536e-07
-1.02602e-06
3.78877e-07
-1.19107e-06
3.77184e-07
-1.35463e-06
3.70591e-07
-1.51422e-06
3.58837e-07
-1.66736e-06
3.4197e-07
-1.81178e-06
3.20255e-07
-1.94535e-06
2.94135e-07
-2.06633e-06
2.643e-07
-2.1733e-06
2.31494e-07
-2.26527e-06
1.96477e-07
-2.34157e-06
1.60048e-07
-2.40191e-06
1.22997e-07
-2.44636e-06
8.59567e-08
-2.47533e-06
4.96685e-08
-2.48952e-06
1.47912e-08
-2.48983e-06
-1.82099e-08
-2.47721e-06
-4.92095e-08
-2.45251e-06
-7.83739e-08
-2.41623e-06
-1.06219e-07
-2.36838e-06
-1.33659e-07
-2.30803e-06
-1.62506e-07
-2.23311e-06
-1.95121e-07
-2.14021e-06
-2.34163e-07
-2.02469e-06
-2.82217e-07
-1.88098e-06
-3.41308e-07
-1.7034e-06
-4.11986e-07
-1.48761e-06
-4.91608e-07
-1.23286e-06
-5.72537e-07
-9.44957e-07
-6.40202e-07
-6.39592e-07
-6.71698e-07
-3.46181e-07
-6.35159e-07
-1.10879e-07
-4.92785e-07
-2.13029e-07
1.21707e-07
-3.29985e-07
3.74844e-07
-7.35243e-07
6.83058e-07
-9.3054e-07
9.96437e-07
-9.73296e-07
1.28576e-06
-9.19955e-07
1.53608e-06
-8.16795e-07
1.74302e-06
-6.97084e-07
1.90931e-06
-5.81533e-07
2.04113e-06
-4.81265e-07
2.14541e-06
-3.99408e-07
2.22874e-06
-3.34723e-07
2.29675e-06
-2.84463e-07
2.35343e-06
-2.43941e-07
2.40085e-06
-2.08024e-07
2.43964e-06
-1.73531e-07
2.46963e-06
-1.39066e-07
2.49023e-06
-1.03296e-07
2.50072e-06
-6.49672e-08
2.50006e-06
-2.30663e-08
2.487e-06
2.2708e-08
2.46037e-06
7.17572e-08
2.41921e-06
1.23077e-07
2.36298e-06
1.75508e-07
2.29149e-06
2.27954e-07
2.20498e-06
2.79404e-07
2.10413e-06
3.28722e-07
1.99004e-06
3.74558e-07
1.8643e-06
4.15527e-07
1.72896e-06
4.50355e-07
1.58649e-06
4.78066e-07
1.4396e-06
4.98063e-07
1.29112e-06
5.1024e-07
1.14371e-06
5.14958e-07
9.99686e-07
5.13077e-07
8.60823e-07
5.05925e-07
7.28189e-07
4.95278e-07
6.01989e-07
4.83145e-07
4.81619e-07
4.71535e-07
3.65734e-07
4.62302e-07
2.52395e-07
4.57076e-07
1.39288e-07
4.56769e-07
2.39462e-08
4.6159e-07
-9.59164e-08
4.71072e-07
-2.2208e-07
4.83786e-07
-3.55632e-07
4.98185e-07
-4.96801e-07
5.12474e-07
-6.45039e-07
5.2466e-07
-7.99049e-07
5.32764e-07
-9.56853e-07
5.34854e-07
-1.11592e-06
5.29514e-07
-1.27342e-06
5.16177e-07
-1.42649e-06
4.94871e-07
-1.57246e-06
4.66066e-07
-1.70906e-06
4.30571e-07
-1.83432e-06
3.89407e-07
-1.94671e-06
3.43751e-07
-2.04518e-06
2.9484e-07
-2.1291e-06
2.4389e-07
-2.19823e-06
1.921e-07
-2.25278e-06
1.40537e-07
-2.2933e-06
9.02932e-08
-2.32065e-06
4.232e-08
-2.33587e-06
-2.73747e-09
-2.34003e-06
-4.47123e-08
-2.33404e-06
-8.39533e-08
-2.31838e-06
-1.21413e-07
-2.29275e-06
-1.58753e-07
-2.25587e-06
-1.98815e-07
-2.20505e-06
-2.45341e-07
-2.13608e-06
-3.02543e-07
-2.04325e-06
-3.74485e-07
-1.91975e-06
-4.64336e-07
-1.75846e-06
-5.72917e-07
-1.55361e-06
-6.96246e-07
-1.30308e-06
-8.23017e-07
-1.01155e-06
-9.31812e-07
-6.94315e-07
-9.89105e-07
-3.81873e-07
-9.47847e-07
-1.24795e-07
-7.50049e-07
-3.3782e-07
1.2261e-07
-4.52841e-07
3.73905e-07
-9.87093e-07
6.73307e-07
-1.23034e-06
9.69434e-07
-1.2701e-06
1.23394e-06
-1.18486e-06
1.45365e-06
-1.03682e-06
1.62617e-06
-8.70076e-07
1.75627e-06
-7.12011e-07
1.85178e-06
-5.77e-07
1.92077e-06
-4.68517e-07
1.97062e-06
-3.84625e-07
2.00767e-06
-3.21491e-07
2.03647e-06
-2.72565e-07
2.05959e-06
-2.30689e-07
2.07784e-06
-1.90955e-07
2.09078e-06
-1.50957e-07
2.0977e-06
-1.09095e-07
2.09778e-06
-6.4005e-08
2.08999e-06
-1.43783e-08
2.07314e-06
4.03536e-08
2.04595e-06
9.96772e-08
2.0073e-06
1.62407e-07
1.95636e-06
2.27061e-07
1.89272e-06
2.92128e-07
1.81643e-06
3.56144e-07
1.72802e-06
4.17518e-07
1.6285e-06
4.74402e-07
1.51943e-06
5.24902e-07
1.40282e-06
5.6725e-07
1.28118e-06
5.99954e-07
1.15745e-06
6.21987e-07
1.03474e-06
6.33083e-07
9.16033e-07
6.3374e-07
8.03923e-07
6.25228e-07
7.00322e-07
6.09528e-07
6.06216e-07
5.89336e-07
5.21498e-07
5.67756e-07
4.45059e-07
5.47811e-07
3.74907e-07
5.32247e-07
3.0835e-07
5.23397e-07
2.42204e-07
5.22662e-07
1.73108e-07
5.30425e-07
9.78366e-08
5.46073e-07
1.37377e-08
5.67601e-07
-8.09374e-08
5.92558e-07
-1.86812e-07
6.18031e-07
-3.03483e-07
6.41006e-07
-4.29618e-07
6.5858e-07
-5.63063e-07
6.67988e-07
-7.01077e-07
6.67226e-07
-8.40568e-07
6.55377e-07
-9.78416e-07
6.32444e-07
-1.11175e-06
5.99144e-07
-1.23812e-06
5.56721e-07
-1.35558e-06
5.0668e-07
-1.46267e-06
4.50705e-07
-1.55844e-06
3.90524e-07
-1.6424e-06
3.27832e-07
-1.7145e-06
2.64251e-07
-1.77508e-06
2.01244e-07
-1.82481e-06
1.40241e-07
-1.86465e-06
8.2477e-08
-1.89575e-06
2.87725e-08
-1.91922e-06
-2.0736e-08
-1.93595e-06
-6.66462e-08
-1.94633e-06
-1.10403e-07
-1.94997e-06
-1.54435e-07
-1.94539e-06
-2.02706e-07
-1.92957e-06
-2.60467e-07
-1.89784e-06
-3.33615e-07
-1.84389e-06
-4.27862e-07
-1.75996e-06
-5.47787e-07
-1.63768e-06
-6.94867e-07
-1.46951e-06
-8.64201e-07
-1.2513e-06
-1.04113e-06
-9.85564e-07
-1.19753e-06
-6.85911e-07
-1.28877e-06
-3.82301e-07
-1.2515e-06
-1.26319e-07
-1.00596e-06
-4.63977e-07
1.17097e-07
-5.70331e-07
3.52729e-07
-1.22327e-06
6.26152e-07
-1.5041e-06
8.86971e-07
-1.53153e-06
1.10922e-06
-1.40739e-06
1.28252e-06
-1.21031e-06
1.40707e-06
-9.9503e-07
1.48995e-06
-7.95184e-07
1.54068e-06
-6.27866e-07
1.56822e-06
-4.96148e-07
1.58033e-06
-3.96824e-07
1.58346e-06
-3.24721e-07
1.58233e-06
-2.71495e-07
1.57976e-06
-2.2795e-07
1.57664e-06
-1.8728e-07
1.57252e-06
-1.45891e-07
1.56653e-06
-1.01924e-07
1.55764e-06
-5.38881e-08
1.54474e-06
-3.51067e-10
1.52666e-06
5.9438e-08
1.50208e-06
1.25164e-07
1.4697e-06
1.95601e-07
1.42847e-06
2.69032e-07
1.37769e-06
3.43546e-07
1.31717e-06
4.17212e-07
1.24718e-06
4.87952e-07
1.16855e-06
5.53406e-07
1.08263e-06
6.11146e-07
9.91307e-07
6.58859e-07
8.97091e-07
6.94428e-07
8.03069e-07
7.1621e-07
7.1262e-07
7.2365e-07
6.29087e-07
7.17317e-07
5.55396e-07
6.9891e-07
4.93634e-07
6.71238e-07
4.44755e-07
6.38114e-07
4.08429e-07
6.03918e-07
3.83055e-07
5.72949e-07
3.65969e-07
5.49034e-07
3.53634e-07
5.35386e-07
3.4196e-07
5.33962e-07
3.26626e-07
5.45372e-07
3.0347e-07
5.68838e-07
2.68941e-07
6.01733e-07
2.20581e-07
6.40508e-07
1.57211e-07
6.80979e-07
7.91163e-08
7.18676e-07
-1.22993e-08
7.49582e-07
-1.14634e-07
7.6993e-07
-2.24786e-07
7.7701e-07
-3.393e-07
7.69552e-07
-4.54807e-07
7.47641e-07
-5.68309e-07
7.12373e-07
-6.77371e-07
6.65552e-07
-7.80145e-07
6.09275e-07
-8.75383e-07
5.45823e-07
-9.6237e-07
4.77461e-07
-1.04087e-06
4.06362e-07
-1.11104e-06
3.34533e-07
-1.17341e-06
2.63809e-07
-1.22878e-06
1.95911e-07
-1.27819e-06
1.32289e-07
-1.32281e-06
7.38971e-08
-1.36378e-06
2.0834e-08
-1.40196e-06
-2.77889e-08
-1.43778e-06
-7.38724e-08
-1.47085e-06
-1.20632e-07
-1.49967e-06
-1.73166e-07
-1.52132e-06
-2.38127e-07
-1.53108e-06
-3.23236e-07
-1.52241e-06
-4.3603e-07
-1.48688e-06
-5.82937e-07
-1.41496e-06
-7.66553e-07
-1.29732e-06
-9.81729e-07
-1.12734e-06
-1.21104e-06
-9.04749e-07
-1.42005e-06
-6.40479e-07
-1.55292e-06
-3.62208e-07
-1.52956e-06
-1.20553e-07
-1.24726e-06
-5.84203e-07
1.08813e-07
-6.79373e-07
3.21558e-07
-1.4362e-06
5.59479e-07
-1.7419e-06
7.74841e-07
-1.74709e-06
9.45388e-07
-1.57774e-06
1.06458e-06
-1.32921e-06
1.13566e-06
-1.06616e-06
1.16821e-06
-8.27683e-07
1.1733e-06
-6.32769e-07
1.16052e-06
-4.83179e-07
1.13757e-06
-3.73768e-07
1.11026e-06
-2.97469e-07
1.08304e-06
-2.445e-07
1.05852e-06
-2.03648e-07
1.03759e-06
-1.66313e-07
1.01985e-06
-1.27737e-07
1.00433e-06
-8.56735e-08
9.89878e-07
-3.85658e-08
9.75316e-07
1.50776e-08
9.5936e-07
7.6169e-08
9.40608e-07
1.44588e-07
9.1763e-07
2.19167e-07
8.8915e-07
2.98027e-07
8.54203e-07
3.78928e-07
8.12244e-07
4.59518e-07
7.63225e-07
5.37236e-07
7.07615e-07
6.09208e-07
6.46469e-07
6.72428e-07
5.815e-07
7.23946e-07
5.1514e-07
7.60906e-07
4.50606e-07
7.8084e-07
3.91595e-07
7.82693e-07
3.419e-07
7.66972e-07
3.04927e-07
7.35793e-07
2.83157e-07
6.92895e-07
2.77693e-07
6.43443e-07
2.88062e-07
5.93375e-07
3.12239e-07
5.48547e-07
3.46846e-07
5.14146e-07
3.87463e-07
4.94441e-07
4.29041e-07
4.92029e-07
4.66261e-07
5.07789e-07
4.94064e-07
5.4068e-07
5.08017e-07
5.87437e-07
5.04881e-07
6.43305e-07
4.82981e-07
7.02542e-07
4.42362e-07
7.58956e-07
3.84736e-07
8.06878e-07
3.12965e-07
8.41391e-07
2.30692e-07
8.59e-07
1.41856e-07
8.58132e-07
5.0187e-08
8.39082e-07
-4.1208e-08
8.03573e-07
-1.30005e-07
7.54191e-07
-2.14647e-07
6.93802e-07
-2.94225e-07
6.25337e-07
-3.68357e-07
5.51592e-07
-4.37138e-07
4.75213e-07
-5.00978e-07
3.98523e-07
-5.60588e-07
3.23655e-07
-6.16943e-07
2.5259e-07
-6.71159e-07
1.86924e-07
-7.24456e-07
1.27709e-07
-7.77972e-07
7.49487e-08
-8.32598e-07
2.74863e-08
-8.88818e-07
-1.69905e-08
-9.46392e-07
-6.24187e-08
-1.00415e-06
-1.14823e-07
-1.05959e-06
-1.82189e-07
-1.10844e-06
-2.74003e-07
-1.14421e-06
-4.00006e-07
-1.15819e-06
-5.68844e-07
-1.13988e-06
-7.84878e-07
-1.07821e-06
-1.04346e-06
-9.64026e-07
-1.32526e-06
-7.93792e-07
-1.59021e-06
-5.74771e-07
-1.77175e-06
-3.30964e-07
-1.77301e-06
-1.11215e-07
-1.46641e-06
-6.95045e-07
9.96377e-08
-7.79005e-07
2.86043e-07
-1.62231e-06
4.83167e-07
-1.93837e-06
6.47408e-07
-1.91105e-06
7.61605e-07
-1.69124e-06
8.24104e-07
-1.39093e-06
8.41592e-07
-1.08333e-06
8.26278e-07
-8.11994e-07
7.90497e-07
-5.96457e-07
7.43968e-07
-4.36138e-07
6.93763e-07
-3.23136e-07
6.44548e-07
-2.48046e-07
5.9961e-07
-1.997e-07
5.60879e-07
-1.65324e-07
5.29017e-07
-1.34873e-07
5.03649e-07
-1.02579e-07
4.83906e-07
-6.58692e-08
4.68687e-07
-2.31008e-08
4.568e-07
2.72657e-08
4.46863e-07
8.63655e-08
4.37323e-07
1.54309e-07
4.26581e-07
2.30028e-07
4.13136e-07
3.11548e-07
3.95731e-07
3.9637e-07
3.73449e-07
4.81797e-07
3.45797e-07
5.64852e-07
3.12756e-07
6.42176e-07
2.74958e-07
7.1012e-07
2.33814e-07
7.64997e-07
1.91652e-07
8.03034e-07
1.51794e-07
8.20712e-07
1.18343e-07
8.16149e-07
9.57228e-08
7.89554e-07
8.81098e-08
7.43334e-07
9.86828e-08
6.8225e-07
1.28948e-07
6.13123e-07
1.78418e-07
5.43867e-07
2.44654e-07
4.82266e-07
3.2357e-07
4.35163e-07
4.09854e-07
4.08063e-07
4.97446e-07
4.04321e-07
5.80044e-07
4.25075e-07
6.51635e-07
4.69005e-07
7.06951e-07
5.32073e-07
7.41968e-07
6.08274e-07
7.54582e-07
6.89914e-07
7.44733e-07
7.68801e-07
7.14551e-07
8.37068e-07
6.67698e-07
8.8826e-07
6.08661e-07
9.18064e-07
5.42081e-07
9.24747e-07
4.72129e-07
9.09076e-07
4.02027e-07
8.73724e-07
3.33881e-07
8.2239e-07
2.68799e-07
7.58942e-07
2.0713e-07
6.87072e-07
1.48753e-07
6.10053e-07
9.32478e-08
5.30829e-07
3.99348e-08
4.5198e-07
-1.21095e-08
3.75885e-07
-6.39976e-08
3.04707e-07
-1.16972e-07
2.40174e-07
-1.723e-07
1.83364e-07
-2.31139e-07
1.34157e-07
-2.94453e-07
9.11737e-08
-3.62855e-07
5.17412e-08
-4.3645e-07
1.14248e-08
-5.14674e-07
-3.64603e-08
-5.95737e-07
-1.01109e-07
-6.76184e-07
-1.93663e-07
-7.50122e-07
-3.26292e-07
-8.09e-07
-5.10283e-07
-8.41779e-07
-7.52451e-07
-8.35958e-07
-1.04957e-06
-7.79852e-07
-1.38148e-06
-6.66289e-07
-1.70366e-06
-4.97913e-07
-1.93988e-06
-2.94188e-07
-1.97624e-06
-1.01314e-07
-1.6586e-06
-7.96194e-07
9.01872e-08
-8.68912e-07
2.47782e-07
-1.7792e-06
4.00087e-07
-2.08961e-06
5.09265e-07
-2.01974e-06
5.64867e-07
-1.74588e-06
5.71201e-07
-1.39623e-06
5.38759e-07
-1.05051e-06
4.82338e-07
-7.55164e-07
4.14874e-07
-5.28411e-07
3.45506e-07
-3.66174e-07
2.80005e-07
-2.57026e-07
2.21216e-07
-1.8875e-07
1.70415e-07
-1.48725e-07
1.28211e-07
-1.23353e-07
9.47517e-08
-1.01894e-07
6.97192e-08
-7.80304e-08
5.25281e-08
-4.9023e-08
4.23488e-08
-1.31262e-08
3.81745e-08
3.13038e-08
3.85904e-08
8.5795e-08
4.1873e-08
1.50806e-07
4.61541e-08
2.25465e-07
4.96581e-08
3.07731e-07
5.08506e-08
3.94852e-07
4.84223e-08
4.839e-07
4.13655e-08
5.716e-07
2.90317e-08
6.54202e-07
1.13929e-08
7.27438e-07
-1.06029e-08
7.86701e-07
-3.48199e-08
8.27064e-07
-5.78042e-08
8.43632e-07
-7.4953e-08
8.33297e-07
-8.09099e-08
7.95511e-07
-7.03274e-08
7.32726e-07
-3.89464e-08
6.50851e-07
1.53912e-08
5.58805e-07
9.23183e-08
4.67002e-07
1.89057e-07
3.85625e-07
3.00811e-07
3.23512e-07
4.21378e-07
2.87593e-07
5.43711e-07
2.82081e-07
6.60468e-07
3.08415e-07
7.64679e-07
3.64918e-07
8.50187e-07
4.4674e-07
9.12278e-07
5.46407e-07
9.48403e-07
6.5405e-07
9.587e-07
7.58784e-07
9.45924e-07
8.50132e-07
9.14902e-07
9.19575e-07
8.71385e-07
9.61873e-07
8.21003e-07
9.75417e-07
7.68462e-07
9.61896e-07
7.17061e-07
9.25395e-07
6.68544e-07
8.7116e-07
6.23329e-07
8.04397e-07
5.80942e-07
7.29676e-07
5.40585e-07
6.50607e-07
5.01484e-07
5.7011e-07
4.62747e-07
4.90884e-07
4.23287e-07
4.15504e-07
3.81848e-07
3.46291e-07
3.37057e-07
2.85095e-07
2.87549e-07
2.32997e-07
2.32122e-07
1.89695e-07
1.69742e-07
1.53615e-07
9.96202e-08
1.21825e-07
2.11539e-08
8.97095e-08
-6.58242e-08
5.0174e-08
-1.60658e-07
-6.7666e-09
-2.6112e-07
-9.38056e-08
-3.62563e-07
-2.25515e-07
-4.57289e-07
-4.16219e-07
-5.3443e-07
-6.7588e-07
-5.80619e-07
-1.00374e-06
-5.81824e-07
-1.38032e-06
-5.26926e-07
-1.75833e-06
-4.13273e-07
-2.05324e-06
-2.54743e-07
-2.13429e-06
-9.24047e-08
-1.82044e-06
-8.88802e-07
7.99473e-08
-9.48315e-07
2.04904e-07
-1.90333e-06
3.07293e-07
-2.19085e-06
3.57327e-07
-2.0695e-06
3.5311e-07
-1.74086e-06
3.05906e-07
-1.34816e-06
2.30355e-07
-9.74949e-07
1.43416e-07
-6.68221e-07
5.76413e-08
-4.42454e-07
-1.95574e-08
-2.88768e-07
-8.48594e-08
-1.91389e-07
-1.37957e-07
-1.35189e-07
-1.80267e-07
-1.06046e-07
-2.13099e-07
-9.04486e-08
-2.37157e-07
-7.80347e-08
-2.5262e-07
-6.28604e-08
-2.5954e-07
-4.23339e-08
-2.58111e-07
-1.46794e-08
-2.48983e-07
2.21327e-08
-2.33486e-07
7.02648e-08
-2.13567e-07
1.30799e-07
-1.9147e-07
2.03206e-07
-1.69299e-07
2.8534e-07
-1.48841e-07
3.74135e-07
-1.31697e-07
4.66492e-07
-1.19428e-07
5.591e-07
-1.13543e-07
6.48096e-07
-1.15022e-07
7.28654e-07
-1.23691e-07
7.95089e-07
-1.377e-07
8.40878e-07
-1.53488e-07
8.59376e-07
-1.65788e-07
8.45661e-07
-1.67928e-07
7.97726e-07
-1.52912e-07
7.17763e-07
-1.14985e-07
6.12942e-07
-5.10019e-08
4.94835e-07
3.89768e-08
3.77061e-07
1.51848e-07
2.72823e-07
2.82085e-07
1.93361e-07
4.22616e-07
1.47144e-07
5.65455e-07
1.39297e-07
7.02305e-07
1.71599e-07
8.25256e-07
2.42007e-07
9.27201e-07
3.44864e-07
1.00271e-06
4.71014e-07
1.04886e-06
6.08051e-07
1.06605e-06
7.41766e-07
1.05814e-06
8.58231e-07
1.03158e-06
9.46343e-07
9.93862e-07
9.99797e-07
9.51975e-07
1.01751e-06
9.1131e-07
1.00277e-06
8.75159e-07
9.6176e-07
8.44661e-07
9.01888e-07
8.19183e-07
8.30106e-07
7.97095e-07
7.51994e-07
7.76704e-07
6.71223e-07
7.56826e-07
5.90205e-07
7.36471e-07
5.11441e-07
7.14591e-07
4.3757e-07
6.89813e-07
3.71217e-07
6.60597e-07
3.14411e-07
6.25477e-07
2.68176e-07
5.83171e-07
2.3202e-07
5.3264e-07
2.04094e-07
4.729e-07
1.81391e-07
4.02957e-07
1.59314e-07
3.21675e-07
1.3094e-07
2.28248e-07
8.59982e-08
1.2304e-07
1.06672e-08
8.68379e-09
-1.11877e-07
-1.08958e-07
-2.99185e-07
-2.20223e-07
-5.65006e-07
-3.1172e-07
-9.12307e-07
-3.67689e-07
-1.32403e-06
-3.73013e-07
-1.75246e-06
-3.19077e-07
-2.10674e-06
-2.12038e-07
-2.24087e-06
-8.33268e-08
-1.949e-06
-9.72464e-07
6.71894e-08
-1.01486e-06
1.52536e-07
-1.98818e-06
1.9717e-07
-2.23462e-06
1.8271e-07
-2.05544e-06
1.18111e-07
-1.67595e-06
2.19882e-08
-1.25161e-06
-8.66245e-08
-8.66848e-07
-1.89576e-07
-5.65813e-07
-2.7598e-07
-3.56439e-07
-3.41814e-07
-2.23341e-07
-3.87755e-07
-1.45718e-07
-4.1728e-07
-1.05649e-07
-4.34973e-07
-8.81634e-08
-4.44349e-07
-8.0918e-08
-4.4712e-07
-7.52249e-08
-4.43252e-07
-6.67114e-08
-4.31806e-07
-5.36581e-08
-4.1191e-07
-3.43035e-08
-3.83551e-07
-5.80416e-09
-3.47951e-07
3.51737e-08
-3.07441e-07
9.08055e-08
-2.64793e-07
1.61023e-07
-2.22456e-07
2.43395e-07
-1.82342e-07
3.34317e-07
-1.46169e-07
4.30554e-07
-1.16057e-07
5.29244e-07
-9.45929e-08
6.26883e-07
-8.40774e-08
7.18275e-07
-8.55367e-08
7.96548e-07
-9.77597e-08
8.53079e-07
-1.17152e-07
8.78849e-07
-1.37545e-07
8.66243e-07
-1.50534e-07
8.10939e-07
-1.46851e-07
7.14258e-07
-1.18582e-07
5.84776e-07
-6.1207e-08
4.37494e-07
2.55465e-08
2.90303e-07
1.38134e-07
1.60222e-07
2.70204e-07
6.12707e-08
4.139e-07
3.40773e-09
5.6053e-07
-7.42588e-09
7.0109e-07
3.08842e-08
8.26846e-07
1.16049e-07
9.29766e-07
2.41723e-07
1.00349e-06
3.97062e-07
1.04459e-06
5.66737e-07
1.05377e-06
7.32366e-07
1.03642e-06
8.75374e-07
1.00137e-06
9.81197e-07
9.58463e-07
1.04252e-06
9.16498e-07
1.05931e-06
8.81735e-07
1.03739e-06
8.57306e-07
9.86076e-07
8.433e-07
9.15834e-07
8.37539e-07
8.3587e-07
8.36749e-07
7.52843e-07
8.38057e-07
6.7003e-07
8.39796e-07
5.88637e-07
8.41249e-07
5.10199e-07
8.41693e-07
4.37366e-07
8.39761e-07
3.73375e-07
8.33669e-07
3.20681e-07
8.21784e-07
2.80187e-07
8.02784e-07
2.51104e-07
7.75735e-07
2.3117e-07
7.39724e-07
2.17332e-07
6.93421e-07
2.0542e-07
6.34681e-07
1.89349e-07
5.6085e-07
1.59407e-07
4.69726e-07
1.01362e-07
3.60926e-07
-3.40973e-09
2.37251e-07
-1.75651e-07
1.05794e-07
-4.33412e-07
-2.1477e-08
-7.84545e-07
-1.28136e-07
-1.21654e-06
-1.9553e-07
-1.68415e-06
-2.08149e-07
-2.09354e-06
-1.60856e-07
-2.28776e-06
-7.07599e-08
-2.03921e-06
-1.04324e-06
4.89869e-08
-1.06339e-06
8.31036e-08
-2.02247e-06
5.81388e-08
-2.20919e-06
-2.79489e-08
-1.97043e-06
-1.5249e-07
-1.55142e-06
-2.90192e-07
-1.11368e-06
-4.18086e-07
-7.39502e-07
-5.18273e-07
-4.66092e-07
-5.83186e-07
-2.91874e-07
-6.14203e-07
-1.928e-07
-6.17922e-07
-1.42476e-07
-6.03229e-07
-1.20606e-07
-5.78514e-07
-1.12917e-07
-5.496e-07
-1.09787e-07
-5.19022e-07
-1.05784e-07
-4.86222e-07
-9.94742e-08
-4.4861e-07
-9.11066e-08
-4.0354e-07
-7.90314e-08
-3.4995e-07
-5.88545e-08
-2.89081e-07
-2.49977e-08
-2.23984e-07
2.64997e-08
-1.58264e-07
9.61226e-08
-9.47119e-08
1.80628e-07
-3.50174e-08
2.75283e-07
1.93061e-08
3.76765e-07
6.56967e-08
4.83402e-07
1.00222e-07
5.92925e-07
1.18737e-07
7.00185e-07
1.1854e-07
7.96917e-07
9.96772e-08
8.71957e-07
6.55339e-08
9.13025e-07
2.32161e-08
9.08684e-07
-1.66129e-08
8.50949e-07
-4.14643e-08
7.39282e-07
-4.03139e-08
5.83744e-07
-6.9375e-09
4.04157e-07
5.90061e-08
2.24333e-07
1.53145e-07
6.60258e-08
2.6826e-07
-5.38978e-08
3.95884e-07
-1.24263e-07
5.27048e-07
-1.3867e-07
6.5256e-07
-9.47647e-08
7.63288e-07
5.13369e-09
8.50349e-07
1.54437e-07
9.06111e-07
3.41043e-07
9.26086e-07
5.46483e-07
9.11181e-07
7.46973e-07
8.68816e-07
9.1743e-07
8.11206e-07
1.0385e-06
7.51538e-07
1.1019e-06
7.00836e-07
1.10975e-06
6.66244e-07
1.07172e-06
6.50455e-07
1.00165e-06
6.51962e-07
9.1417e-07
6.66248e-07
8.21507e-07
6.87696e-07
7.31392e-07
7.11924e-07
6.45884e-07
7.37038e-07
5.63692e-07
7.63191e-07
4.84304e-07
7.90434e-07
4.10459e-07
8.17454e-07
3.4671e-07
8.42053e-07
2.96387e-07
8.62178e-07
2.60289e-07
8.76577e-07
2.36862e-07
8.84755e-07
2.23084e-07
8.86369e-07
2.15739e-07
8.80046e-07
2.11696e-07
8.62667e-07
2.06625e-07
8.29346e-07
1.9262e-07
7.74521e-07
1.56151e-07
6.93684e-07
7.75399e-08
5.85241e-07
-6.68893e-08
4.51852e-07
-2.99473e-07
3.02045e-07
-6.33941e-07
1.51105e-07
-1.06461e-06
2.01047e-08
-1.55229e-06
-6.75251e-08
-2.00562e-06
-9.15159e-08
-2.2637e-06
-5.15297e-08
-2.07932e-06
-1.09444e-06
2.10261e-08
-1.08431e-06
-1.41782e-08
-1.98794e-06
-1.25495e-07
-2.09739e-06
-2.91888e-07
-1.80514e-06
-4.73929e-07
-1.3689e-06
-6.41645e-07
-9.45361e-07
-7.7006e-07
-6.10985e-07
-8.43768e-07
-3.91922e-07
-8.60596e-07
-2.74444e-07
-8.29322e-07
-2.23745e-07
-7.64824e-07
-2.06888e-07
-6.82942e-07
-2.02428e-07
-5.96761e-07
-1.98984e-07
-5.14318e-07
-1.92131e-07
-4.38654e-07
-1.81461e-07
-3.68084e-07
-1.70156e-07
-2.97367e-07
-1.61933e-07
-2.20927e-07
-1.55504e-07
-1.36223e-07
-1.43479e-07
-4.47975e-08
-1.16225e-07
4.88505e-08
-6.68419e-08
1.39682e-07
5.68963e-09
2.24591e-07
9.61677e-08
3.02803e-07
1.97418e-07
3.73851e-07
3.05885e-07
4.34882e-07
4.22563e-07
4.80146e-07
5.47961e-07
5.03059e-07
6.77508e-07
4.98715e-07
8.01212e-07
4.65555e-07
9.04813e-07
4.06124e-07
9.72094e-07
3.28115e-07
9.86401e-07
2.44951e-07
9.3392e-07
1.73665e-07
8.10443e-07
1.29639e-07
6.27676e-07
1.21061e-07
4.12624e-07
1.4773e-07
1.97518e-07
2.03695e-07
9.89325e-09
2.80683e-07
-1.31015e-07
3.70083e-07
-2.13716e-07
4.6342e-07
-2.32013e-07
5.52302e-07
-1.83638e-07
6.27977e-07
-7.05199e-08
6.81015e-07
1.01427e-07
7.02006e-07
3.20077e-07
6.84428e-07
5.64074e-07
6.28778e-07
8.0262e-07
5.45136e-07
1.00106e-06
4.50534e-07
1.13309e-06
3.62635e-07
1.18981e-06
2.95062e-07
1.17736e-06
2.55642e-07
1.11119e-06
2.46171e-07
1.01115e-06
2.6288e-07
8.97502e-07
2.97971e-07
7.86488e-07
3.42488e-07
6.86972e-07
3.90063e-07
5.98443e-07
4.39231e-07
5.14698e-07
4.9209e-07
4.31692e-07
5.50177e-07
3.52717e-07
6.12112e-07
2.85161e-07
6.74803e-07
2.34036e-07
7.35456e-07
1.99863e-07
7.92894e-07
1.79524e-07
8.47587e-07
1.68374e-07
9.00467e-07
1.62758e-07
9.50873e-07
1.61158e-07
9.949e-07
1.62493e-07
1.02508e-06
1.62434e-07
1.03169e-06
1.49685e-07
1.00509e-06
1.04452e-07
9.37772e-07
8.97652e-10
8.26038e-07
-1.87183e-07
6.72258e-07
-4.7956e-07
4.87696e-07
-8.79487e-07
2.9383e-07
-1.35819e-06
1.21972e-07
-1.83414e-06
9.28712e-09
-2.15135e-06
-2.24257e-08
-2.04729e-06
-1.11652e-06
-2.33122e-08
-1.06108e-06
-1.55288e-07
-1.85649e-06
-3.7511e-07
-1.87651e-06
-6.29978e-07
-1.5508e-06
-8.62716e-07
-1.13458e-06
-1.04192e-06
-7.65078e-07
-1.14568e-06
-5.06819e-07
-1.16387e-06
-3.72873e-07
-1.10181e-06
-3.35417e-07
-9.77741e-07
-3.46997e-07
-8.1722e-07
-3.66904e-07
-6.44826e-07
-3.74433e-07
-4.78343e-07
-3.65083e-07
-3.2766e-07
-3.4246e-07
-1.95996e-07
-3.12895e-07
-8.00389e-08
-2.86033e-07
2.95397e-08
-2.71556e-07
1.42832e-07
-2.68901e-07
2.6447e-07
-2.65272e-07
3.92003e-07
-2.43965e-07
5.18204e-07
-1.93242e-07
6.35492e-07
-1.11705e-07
7.40435e-07
-8.75085e-09
8.34505e-07
1.03309e-07
9.19858e-07
2.20273e-07
9.93611e-07
3.48571e-07
1.0475e-06
4.94039e-07
1.07186e-06
6.53221e-07
1.05917e-06
8.13768e-07
1.00585e-06
9.57692e-07
9.12627e-07
1.06475e-06
7.86651e-07
1.11182e-06
6.44236e-07
1.07587e-06
5.08759e-07
9.45544e-07
4.01851e-07
7.34275e-07
3.33729e-07
4.80447e-07
3.02306e-07
2.28621e-07
2.98774e-07
1.30494e-08
3.13494e-07
-1.46094e-07
3.38654e-07
-2.39162e-07
3.6776e-07
-2.61349e-07
3.94703e-07
-2.10764e-07
4.12602e-07
-8.85573e-08
4.12193e-07
1.01731e-07
3.81654e-07
3.50528e-07
3.10724e-07
6.34921e-07
1.98045e-07
9.15223e-07
5.70931e-08
1.14194e-06
-8.80625e-08
1.2782e-06
-2.14213e-07
1.31595e-06
-3.05195e-07
1.2684e-06
-3.52983e-07
1.15906e-06
-3.57231e-07
1.01548e-06
-3.24683e-07
8.64997e-07
-2.67432e-07
7.29256e-07
-1.9917e-07
6.18717e-07
-1.28996e-07
5.28282e-07
-5.69986e-08
4.42689e-07
2.30343e-08
3.51693e-07
1.15302e-07
2.60601e-07
2.17873e-07
1.82829e-07
3.25743e-07
1.26409e-07
4.34713e-07
9.10501e-08
5.43716e-07
7.05366e-08
6.54836e-07
5.70926e-08
7.71451e-07
4.58508e-08
8.94636e-07
3.76518e-08
1.02015e-06
3.67484e-08
1.13767e-06
4.48956e-08
1.23263e-06
5.4955e-08
1.28941e-06
4.80927e-08
1.2936e-06
-2.78503e-09
1.23328e-06
-1.26457e-07
1.1014e-06
-3.47434e-07
9.0127e-07
-6.79319e-07
6.51046e-07
-1.10829e-06
3.8639e-07
-1.57019e-06
1.59588e-07
-1.9246e-06
2.37441e-08
-1.9103e-06
-1.09261e-06
-9.53261e-08
-9.65566e-07
-3.65062e-07
-1.58651e-06
-7.20138e-07
-1.51991e-06
-1.06617e-06
-1.20533e-06
-1.33322e-06
-8.65861e-07
-1.49508e-06
-6.02579e-07
-1.54143e-06
-4.60951e-07
-1.47085e-06
-4.43852e-07
-1.29672e-06
-5.09713e-07
-1.04869e-06
-5.95263e-07
-7.65746e-07
-6.50145e-07
-4.82323e-07
-6.58028e-07
-2.19699e-07
-6.27664e-07
1.19682e-08
-5.73934e-07
2.09268e-07
-5.10001e-07
3.76698e-07
-4.5329e-07
5.29509e-07
-4.24275e-07
6.84576e-07
-4.23925e-07
8.49307e-07
-4.30028e-07
1.01916e-06
-4.14036e-07
1.18219e-06
-3.56622e-07
1.32644e-06
-2.56218e-07
1.448e-06
-1.30284e-07
1.55283e-06
-1.48378e-09
1.64867e-06
1.24241e-07
1.73292e-06
2.64137e-07
1.79349e-06
4.33556e-07
1.81702e-06
6.3007e-07
1.79361e-06
8.37523e-07
1.71754e-06
1.0339e-06
1.58615e-06
1.19614e-06
1.4038e-06
1.29412e-06
1.18869e-06
1.29094e-06
9.72995e-07
1.16125e-06
7.87547e-07
9.19774e-07
6.44165e-07
6.23898e-07
5.36203e-07
3.36612e-07
4.49988e-07
9.91768e-08
3.74469e-07
-7.07078e-08
3.04342e-07
-1.69167e-07
2.37442e-07
-1.94613e-07
1.72106e-07
-1.45632e-07
1.05861e-07
-2.25458e-08
3.12992e-08
1.76038e-07
-6.645e-08
4.48016e-07
-2.04151e-07
7.72372e-07
-3.8793e-07
1.09878e-06
-6.00079e-07
1.35391e-06
-8.06101e-07
1.48406e-06
-9.76384e-07
1.48615e-06
-1.09353e-06
1.38556e-06
-1.15046e-06
1.21606e-06
-1.14879e-06
1.01394e-06
-1.09867e-06
8.15046e-07
-1.0172e-06
6.47943e-07
-9.24772e-07
5.26441e-07
-8.34702e-07
4.38387e-07
-7.43958e-07
3.52027e-07
-6.38485e-07
2.46276e-07
-5.09776e-07
1.32018e-07
-3.61203e-07
3.4483e-08
-2.01643e-07
-3.28976e-08
-3.78176e-08
-7.25656e-08
1.29258e-07
-9.64454e-08
3.04207e-07
-1.17982e-07
4.94423e-07
-1.44707e-07
7.0417e-07
-1.72542e-07
9.29439e-07
-1.88907e-07
1.15679e-06