/*--------------------------------*- C++ -*----------------------------------*\
| =========                 |                                                 |
| \\      /  F ield         | OpenFOAM: The Open Source CFD Toolbox           |
|  \\    /   O peration     | Version:  2412                                  |
|   \\  /    A nd           | Website:  www.openfoam.com                      |
|    \\/     M anipulation  |                                                 |
\*---------------------------------------------------------------------------*/
FoamFile
{
    version     2.0;
    format      ascii;
    arch        "LSB;label=32;scalar=64";
    class       surfaceScalarField;
    location    "5.45";
    object      alphaPhi0.mercury;
}
// * * * * * * * * * * * * * * * * * * * * * * * * * * * * * * * * * * * * * //

dimensions      [0 3 -1 0 0 0 0];

oriented        oriented;

internalField   nonuniform List<scalar> 
12640
(
-1.27675e-05
1.27676e-05
-2.19753e-05
9.20923e-06
-2.92517e-05
7.278e-06
-3.55038e-05
6.25403e-06
-4.10672e-05
5.56554e-06
-4.62504e-05
5.18561e-06
-5.12076e-05
4.9595e-06
-5.58268e-05
4.62153e-06
-6.01305e-05
4.30582e-06
-6.39592e-05
3.83042e-06
-6.71683e-05
3.21067e-06
-6.9677e-05
2.51012e-06
-7.14366e-05
1.76037e-06
-7.24248e-05
9.88582e-07
-7.26438e-05
2.20064e-07
-7.21248e-05
-5.17237e-07
-7.09222e-05
-1.20098e-06
-6.91063e-05
-1.8138e-06
-6.67902e-05
-2.31292e-06
-6.40805e-05
-2.70509e-06
-6.10699e-05
-3.00547e-06
-5.78765e-05
-3.18861e-06
-5.45956e-05
-3.27697e-06
-5.12994e-05
-3.29343e-06
-4.80366e-05
-3.26102e-06
-4.48421e-05
-3.19384e-06
-4.17312e-05
-3.11141e-06
-3.86571e-05
-3.07556e-06
-3.56283e-05
-3.0309e-06
-3.25592e-05
-3.07167e-06
-2.93787e-05
-3.18352e-06
-2.60088e-05
-3.37306e-06
-2.23915e-05
-3.62026e-06
-1.84943e-05
-3.89956e-06
-1.43286e-05
-4.16726e-06
-9.8905e-06
-4.43916e-06
-5.24038e-06
-4.65073e-06
-4.37521e-07
-4.80316e-06
4.44026e-06
-4.87758e-06
9.2784e-06
-4.83719e-06
1.39757e-05
-4.69551e-06
1.84234e-05
-4.44557e-06
2.25241e-05
-4.09839e-06
2.62001e-05
-3.67372e-06
2.94242e-05
-3.22208e-06
3.21969e-05
-2.77118e-06
3.45262e-05
-2.32907e-06
3.6459e-05
-1.93403e-06
3.81054e-05
-1.64909e-06
3.95638e-05
-1.46185e-06
4.09941e-05
-1.43429e-06
4.24697e-05
-1.47927e-06
4.41151e-05
-1.64809e-06
4.59763e-05
-1.86315e-06
4.81339e-05
-2.15932e-06
5.05627e-05
-2.43025e-06
5.32217e-05
-2.65996e-06
5.61348e-05
-2.91356e-06
5.91658e-05
-3.03116e-06
6.2239e-05
-3.07354e-06
6.52492e-05
-3.01056e-06
6.80685e-05
-2.81933e-06
7.05304e-05
-2.4616e-06
7.25138e-05
-1.98285e-06
7.38917e-05
-1.37611e-06
7.45447e-05
-6.48788e-07
7.43859e-05
1.65063e-07
7.33704e-05
1.02104e-06
7.14742e-05
1.89785e-06
6.87557e-05
2.71474e-06
6.5219e-05
3.52944e-06
6.10016e-05
4.20983e-06
5.62136e-05
4.78305e-06
5.09414e-05
5.27132e-06
4.52409e-05
5.70206e-06
3.89959e-05
6.24762e-06
3.19487e-05
7.04975e-06
2.37552e-05
8.19539e-06
1.36181e-05
1.01378e-05
1.36166e-05
-1.02672e-05
2.3037e-05
-1.44731e-05
1.34186e-05
-1.55898e-05
8.39821e-06
-1.52279e-05
5.896e-06
-1.42665e-05
4.60832e-06
-1.33091e-05
4.23232e-06
-1.26407e-05
4.29493e-06
-1.25302e-05
4.51442e-06
-1.27182e-05
4.49698e-06
-1.31671e-05
4.28167e-06
-1.37139e-05
3.75893e-06
-1.4244e-05
3.04179e-06
-1.46666e-05
2.18469e-06
-1.49193e-05
1.24257e-06
-1.49998e-05
3.02057e-07
-1.49144e-05
-5.99866e-07
-1.47042e-05
-1.4065e-06
-1.44429e-05
-2.06916e-06
-1.42037e-05
-2.54571e-06
-1.40334e-05
-2.86932e-06
-1.39743e-05
-3.05912e-06
-1.40945e-05
-3.06391e-06
-1.44139e-05
-2.95395e-06
-1.49165e-05
-2.78838e-06
-1.55715e-05
-2.60501e-06
-1.63099e-05
-2.45584e-06
-1.70299e-05
-2.39295e-06
-1.76335e-05
-2.47442e-06
-1.79488e-05
-2.71869e-06
-1.7936e-05
-3.08766e-06
-1.74123e-05
-3.7103e-06
-1.63346e-05
-4.45334e-06
-1.4575e-05
-5.38187e-06
-1.20942e-05
-6.38197e-06
-8.90763e-06
-7.35494e-06
-5.02977e-06
-8.31784e-06
-6.06872e-07
-9.0742e-06
4.25645e-06
-9.66686e-06
9.36694e-06
-9.98814e-06
1.45479e-05
-1.00177e-05
1.95843e-05
-9.7308e-06
2.4258e-05
-9.11769e-06
2.83685e-05
-8.20736e-06
3.1777e-05
-7.08096e-06
3.43582e-05
-5.80262e-06
3.60651e-05
-4.47808e-06
3.68669e-05
-3.13184e-06
3.68165e-05
-1.88553e-06
3.60487e-05
-8.83534e-07
3.47057e-05
-1.21141e-07
3.28494e-05
4.20425e-07
3.07173e-05
6.51527e-07
2.84529e-05
6.15326e-07
2.62291e-05
3.60177e-07
2.41298e-05
-6.01565e-08
2.23013e-05
-6.0143e-07
2.08427e-05
-1.20067e-06
1.97885e-05
-1.85831e-06
1.91246e-05
-2.36564e-06
1.88766e-05
-2.82354e-06
1.89559e-05
-3.08757e-06
1.93045e-05
-3.16487e-06
1.98114e-05
-2.96419e-06
2.0387e-05
-2.55334e-06
2.09406e-05
-1.92538e-06
2.13656e-05
-1.07186e-06
2.15915e-05
-6.19681e-08
2.15665e-05
1.04298e-06
2.13152e-05
2.14601e-06
2.08672e-05
3.16127e-06
2.03711e-05
4.02683e-06
1.99285e-05
4.65617e-06
1.96516e-05
5.06414e-06
1.96749e-05
5.25168e-06
1.9813e-05
5.56627e-06
1.97784e-05
6.28359e-06
1.89966e-05
7.83287e-06
1.66987e-05
1.0494e-05
1.13174e-05
1.55183e-05
2.49354e-05
-9.28134e-06
3.23199e-05
-1.12455e-05
1.53862e-05
-9.65074e-06
6.8067e-06
-6.44602e-06
2.6946e-06
-2.57968e-06
7.45227e-07
1.08572e-06
5.69935e-07
4.10812e-06
1.2751e-06
6.35731e-06
2.26717e-06
7.97715e-06
2.87869e-06
9.07423e-06
3.18569e-06
9.8269e-06
3.00653e-06
1.03924e-05
2.47605e-06
1.08964e-05
1.68029e-06
1.14115e-05
7.27436e-07
1.19804e-05
-2.66154e-07
1.25706e-05
-1.18908e-06
1.31521e-05
-1.98731e-06
1.36867e-05
-2.60325e-06
1.40322e-05
-2.89016e-06
1.41507e-05
-2.9857e-06
1.39746e-05
-2.88014e-06
1.34912e-05
-2.57735e-06
1.25686e-05
-2.02816e-06
1.12693e-05
-1.48604e-06
9.63606e-06
-9.68812e-07
7.74678e-06
-5.63726e-07
5.70831e-06
-3.51817e-07
3.63657e-06
-4.00124e-07
1.67284e-06
-7.52477e-07
8.23147e-08
-1.49488e-06
-1.10693e-06
-2.51937e-06
-1.6902e-06
-3.86939e-06
-1.64667e-06
-5.426e-06
-8.47354e-07
-7.18331e-06
6.9845e-07
-8.904e-06
2.97574e-06
-1.05993e-05
5.90551e-06
-1.20086e-05
9.31631e-06
-1.30824e-05
1.30379e-05
-1.37144e-05
1.68382e-05
-1.38219e-05
2.04861e-05
-1.33811e-05
2.37628e-05
-1.23953e-05
2.64664e-05
-1.09105e-05
2.84221e-05
-9.03478e-06
2.95033e-05
-6.88031e-06
2.96269e-05
-4.59668e-06
2.88157e-05
-2.31418e-06
2.7179e-05
-2.41516e-07
2.47756e-05
1.52713e-06
2.17141e-05
2.94687e-06
1.82289e-05
3.91126e-06
1.45436e-05
4.34168e-06
1.08112e-05
4.35258e-06
7.18805e-06
3.98808e-06
3.83954e-06
3.29288e-06
9.12361e-07
2.32998e-06
-1.4904e-06
1.20624e-06
-3.36671e-06
2.23098e-08
-4.63435e-06
-1.09376e-06
-5.33463e-06
-2.11973e-06
-5.54899e-06
-2.87115e-06
-5.32838e-06
-3.38538e-06
-4.83665e-06
-3.45828e-06
-4.13515e-06
-3.25965e-06
-3.3547e-06
-2.7112e-06
-2.55141e-06
-1.87694e-06
-1.81677e-06
-7.90811e-07
-1.15398e-06
3.9435e-07
-5.28544e-07
1.53965e-06
1.47479e-07
2.50355e-06
1.00471e-06
3.18255e-06
2.19408e-06
3.47299e-06
3.87305e-06
3.38628e-06
6.06488e-06
3.05917e-06
8.72735e-06
2.90436e-06
1.14715e-05
3.5423e-06
1.34553e-05
5.85306e-06
1.37272e-05
1.02252e-05
1.04534e-05
1.87933e-05
3.53917e-05
-9.1568e-06
4.14785e-05
-1.00017e-05
1.62345e-05
-6.85577e-06
3.66383e-06
-1.80378e-06
-2.35459e-06
3.62447e-06
-4.68061e-06
8.62705e-06
-4.43066e-06
1.27281e-05
-2.82446e-06
1.59211e-05
-9.24883e-07
1.8237e-05
5.63217e-07
1.99925e-05
1.43013e-06
2.13616e-05
1.63704e-06
2.25608e-05
1.27666e-06
2.37196e-05
5.211e-07
2.48967e-05
-4.50433e-07
2.61593e-05
-1.52934e-06
2.744e-05
-2.46931e-06
2.86827e-05
-3.22836e-06
2.98515e-05
-3.76964e-06
3.07978e-05
-3.83322e-06
3.14277e-05
-3.61201e-06
3.17249e-05
-3.17355e-06
3.13898e-05
-2.23834e-06
3.05604e-05
-1.19464e-06
2.91713e-05
-9.25724e-08
2.72634e-05
9.43738e-07
2.49109e-05
1.79363e-06
2.22207e-05
2.34301e-06
1.93248e-05
2.49972e-06
1.64032e-05
2.17206e-06
1.36118e-05
1.29813e-06
1.11924e-05
-1.00134e-07
9.26827e-06
-1.94731e-06
8.01831e-06
-4.17982e-06
7.53558e-06
-6.70541e-06
7.88041e-06
-9.25403e-06
8.98724e-06
-1.17108e-05
1.07924e-05
-1.38174e-05
1.30955e-05
-1.53883e-05
1.5748e-05
-1.63688e-05
1.84816e-05
-1.65563e-05
2.10621e-05
-1.5961e-05
2.32442e-05
-1.45754e-05
2.48144e-05
-1.24779e-05
2.5576e-05
-9.79284e-06
2.54177e-05
-6.71758e-06
2.42686e-05
-3.44198e-06
2.2097e-05
-1.3583e-07
1.90811e-05
2.78155e-06
1.52813e-05
5.33403e-06
1.09278e-05
7.30703e-06
6.17934e-06
8.66542e-06
1.37409e-06
9.15149e-06
-3.4022e-06
9.13257e-06
-7.89304e-06
8.4819e-06
-1.19097e-05
7.31146e-06
-1.53068e-05
5.72765e-06
-1.79901e-05
3.88847e-06
-1.99205e-05
1.95034e-06
-2.10836e-05
6.58549e-08
-2.15694e-05
-1.63852e-06
-2.13202e-05
-3.12534e-06
-2.06588e-05
-4.05037e-06
-1.95786e-05
-4.53878e-06
-1.82322e-05
-4.6027e-06
-1.67984e-05
-4.13893e-06
-1.53416e-05
-3.32602e-06
-1.39296e-05
-2.19349e-06
-1.25949e-05
-9.30199e-07
-1.13111e-05
2.6554e-07
-9.99496e-06
1.19484e-06
-8.49235e-06
1.68444e-06
-6.60136e-06
1.5846e-06
-4.0962e-06
8.83536e-07
-8.36825e-07
-1.96362e-07
3.11852e-06
-1.04529e-06
7.29647e-06
-6.2927e-07
1.09687e-05
2.18574e-06
1.27674e-05
8.42841e-06
1.04964e-05
2.10658e-05
4.58897e-05
-9.43148e-06
5.09119e-05
-9.43292e-06
1.62389e-05
-4.77024e-06
-9.96337e-07
1.62813e-06
-8.75086e-06
8.21638e-06
-1.12673e-05
1.39787e-05
-1.01919e-05
1.84814e-05
-7.32635e-06
2.17732e-05
-4.21619e-06
2.4113e-05
-1.77622e-06
2.58675e-05
-3.23851e-07
2.73324e-05
1.72272e-07
2.87284e-05
-1.18611e-07
3.0203e-05
-9.52077e-07
3.1842e-05
-2.0873e-06
3.36419e-05
-3.3261e-06
3.55945e-05
-4.41811e-06
3.75647e-05
-5.19444e-06
3.93864e-05
-5.58689e-06
4.10712e-05
-5.51344e-06
4.23518e-05
-4.88799e-06
4.31271e-05
-3.94412e-06
4.32485e-05
-2.35493e-06
4.26632e-05
-6.04605e-07
4.13339e-05
1.24152e-06
3.92774e-05
3.00493e-06
3.65752e-05
4.50003e-06
3.33398e-05
5.5815e-06
2.9737e-05
6.10412e-06
2.59583e-05
5.95066e-06
2.22302e-05
5.02433e-06
1.88177e-05
3.3091e-06
1.5958e-05
9.0797e-07
1.374e-05
-1.96688e-06
1.23114e-05
-5.28187e-06
1.18253e-05
-8.77213e-06
1.21963e-05
-1.20847e-05
1.33604e-05
-1.49826e-05
1.51437e-05
-1.71712e-05
1.73468e-05
-1.85707e-05
1.96713e-05
-1.8879e-05
2.18219e-05
-1.81092e-05
2.35113e-05
-1.62617e-05
2.4518e-05
-1.34812e-05
2.46008e-05
-9.87271e-06
2.36116e-05
-5.7258e-06
2.1489e-05
-1.31667e-06
1.83494e-05
3.00663e-06
1.41675e-05
6.96621e-06
9.2269e-06
1.0277e-05
3.68792e-06
1.28474e-05
-2.08896e-06
1.44423e-05
-8.0859e-06
1.51471e-05
-1.38152e-05
1.48595e-05
-1.90737e-05
1.37373e-05
-2.36471e-05
1.18807e-05
-2.73884e-05
9.46363e-06
-3.01861e-05
6.67962e-06
-3.20015e-05
3.75882e-06
-3.28569e-05
9.14836e-07
-3.28338e-05
-1.66654e-06
-3.19915e-05
-3.97085e-06
-3.05652e-05
-5.47752e-06
-2.86784e-05
-6.42311e-06
-2.65825e-05
-6.69393e-06
-2.43534e-05
-6.3636e-06
-2.21668e-05
-5.5101e-06
-2.01374e-05
-4.22213e-06
-1.83168e-05
-2.75059e-06
-1.67041e-05
-1.34696e-06
-1.52084e-05
-3.00705e-07
-1.36432e-05
1.19195e-07
-1.17256e-05
-3.32898e-07
-9.10808e-06
-1.733e-06
-5.49685e-06
-3.80534e-06
-8.36663e-07
-5.7021e-06
4.46432e-06
-5.92714e-06
9.44148e-06
-2.79037e-06
1.25141e-05
5.35456e-06
1.0966e-05
2.26142e-05
5.68527e-05
-9.84137e-06
6.07551e-05
-8.92053e-06
1.53204e-05
-2.66158e-06
-7.25353e-06
5.26725e-06
-1.66783e-05
1.2887e-05
-1.88861e-05
1.90213e-05
-1.63255e-05
2.33368e-05
-1.16411e-05
2.60839e-05
-6.96262e-06
2.7767e-05
-3.45847e-06
2.89135e-05
-1.46853e-06
2.99361e-05
-8.48208e-07
3.10989e-05
-1.2784e-06
3.25651e-05
-2.41494e-06
3.44009e-05
-3.91941e-06
3.66058e-05
-5.52688e-06
3.90502e-05
-6.85836e-06
4.16954e-05
-7.836e-06
4.42709e-05
-8.15932e-06
4.66855e-05
-7.92541e-06
4.8638e-05
-6.83785e-06
5.00609e-05
-5.36439e-06
5.06533e-05
-2.94444e-06
5.03632e-05
-3.11436e-07
4.91052e-05
2.50248e-06
4.68841e-05
5.22859e-06
4.37826e-05
7.60356e-06
3.9961e-05
9.40397e-06
3.56109e-05
1.04536e-05
3.0969e-05
1.05907e-05
2.63128e-05
9.6774e-06
2.19897e-05
7.62839e-06
1.81596e-05
4.73396e-06
1.52034e-05
9.85381e-07
1.323e-05
-3.31178e-06
1.22989e-05
-7.84379e-06
1.24414e-05
-1.2229e-05
1.35811e-05
-1.61229e-05
1.55047e-05
-1.90945e-05
1.80053e-05
-2.10707e-05
2.06414e-05
-2.15145e-05
2.30983e-05
-2.05653e-05
2.50243e-05
-1.81861e-05
2.60849e-05
-1.45397e-05
2.60109e-05
-9.79701e-06
2.47118e-05
-4.42555e-06
2.19589e-05
1.43667e-06
1.79942e-05
6.9715e-06
1.28855e-05
1.20746e-05
6.83134e-06
1.63306e-05
1.58481e-07
1.95192e-05
-6.88023e-06
2.14792e-05
-1.38984e-05
2.21626e-05
-2.05876e-05
2.15457e-05
-2.66361e-05
1.97831e-05
-3.17945e-05
1.7037e-05
-3.58609e-05
1.35285e-05
-3.87295e-05
9.54714e-06
-4.03632e-05
5.3922e-06
-4.08042e-05
1.35652e-06
-4.0146e-05
-2.32303e-06
-3.86554e-05
-5.4598e-06
-3.63358e-05
-7.7957e-06
-3.3619e-05
-9.13745e-06
-3.06004e-05
-9.70882e-06
-2.75571e-05
-9.40365e-06
-2.4738e-05
-8.32772e-06
-2.22356e-05
-6.72465e-06
-2.01733e-05
-4.81337e-06
-1.85929e-05
-2.92749e-06
-1.73966e-05
-1.49735e-06
-1.63596e-05
-9.18648e-07
-1.50771e-05
-1.61678e-06
-1.30192e-05
-3.79248e-06
-9.6539e-06
-7.17227e-06
-4.7001e-06
-1.06572e-05
1.53418e-06
-1.21629e-05
7.92197e-06
-9.18031e-06
1.25128e-05
7.61942e-07
1.16444e-05
2.34823e-05
6.84929e-05
-1.03969e-05
7.11534e-05
-8.10581e-06
1.30307e-05
4.88685e-07
-1.58471e-05
1.05257e-05
-2.67147e-05
1.92522e-05
-2.7612e-05
2.53983e-05
-2.24713e-05
2.88827e-05
-1.51246e-05
3.03527e-05
-8.43155e-06
3.068e-05
-3.78462e-06
3.06307e-05
-1.4174e-06
3.07436e-05
-9.58978e-07
3.13335e-05
-1.86527e-06
3.25472e-05
-3.62563e-06
3.44334e-05
-5.80315e-06
3.69149e-05
-8.00635e-06
3.99492e-05
-9.89083e-06
4.32216e-05
-1.11074e-05
4.66359e-05
-1.15734e-05
4.98177e-05
-1.11073e-05
5.26699e-05
-9.69042e-06
5.46862e-05
-7.38084e-06
5.58555e-05
-4.11344e-06
5.58783e-05
-3.3365e-07
5.46605e-05
3.72092e-06
5.21968e-05
7.69274e-06
4.85889e-05
1.12114e-05
4.4028e-05
1.39643e-05
3.87629e-05
1.57173e-05
3.30947e-05
1.6257e-05
2.73948e-05
1.53757e-05
2.19227e-05
1.30993e-05
1.7246e-05
9.40993e-06
1.35443e-05
4.68703e-06
1.10657e-05
-8.32609e-07
1.00316e-05
-6.80897e-06
1.03491e-05
-1.25462e-05
1.19155e-05
-1.76893e-05
1.45874e-05
-2.17665e-05
1.79164e-05
-2.44005e-05
2.15403e-05
-2.51405e-05
2.49761e-05
-2.40038e-05
2.77404e-05
-2.09529e-05
2.94296e-05
-1.62307e-05
2.97261e-05
-1.00949e-05
2.835e-05
-3.051e-06
2.52871e-05
4.49789e-06
2.06136e-05
1.16432e-05
1.45276e-05
1.8159e-05
7.29054e-06
2.35667e-05
-6.97099e-07
2.75067e-05
-9.12276e-06
2.99053e-05
-1.74089e-05
3.04495e-05
-2.52386e-05
2.93767e-05
-3.22326e-05
2.67791e-05
-3.80807e-05
2.28881e-05
-4.2549e-05
1.8001e-05
-4.55169e-05
1.25202e-05
-4.69589e-05
6.84003e-06
-4.69336e-05
1.33811e-06
-4.55696e-05
-3.67915e-06
-4.31595e-05
-7.86276e-06
-3.9968e-05
-1.09821e-05
-3.61821e-05
-1.29191e-05
-3.21657e-05
-1.37207e-05
-2.82987e-05
-1.32673e-05
-2.47634e-05
-1.18611e-05
-2.1832e-05
-9.65545e-06
-1.96907e-05
-6.95369e-06
-1.8424e-05
-4.19213e-06
-1.79709e-05
-1.94816e-06
-1.80401e-05
-8.47557e-07
-1.80901e-05
-1.56528e-06
-1.73251e-05
-4.55695e-06
-1.48369e-05
-9.66071e-06
-9.95083e-06
-1.55439e-05
-2.74754e-06
-1.93669e-05
5.47187e-06
-1.73994e-05
1.22366e-05
-6.0006e-06
1.25497e-05
2.31691e-05
8.10426e-05
-1.09054e-05
8.20595e-05
-6.1025e-06
8.22834e-06
6.46614e-06
-2.84155e-05
1.95286e-05
-3.9777e-05
2.93365e-05
-3.74199e-05
3.47444e-05
-2.78796e-05
3.63336e-05
-1.6714e-05
3.54748e-05
-7.57246e-06
3.35891e-05
-1.89854e-06
3.17189e-05
4.53521e-07
3.05072e-05
2.53494e-07
3.02712e-05
-1.62759e-06
3.10987e-05
-4.45103e-06
3.30036e-05
-7.7062e-06
3.5855e-05
-1.08562e-05
3.94605e-05
-1.3495e-05
4.35969e-05
-1.52423e-05
4.79883e-05
-1.59634e-05
5.22209e-05
-1.53386e-05
5.61155e-05
-1.35835e-05
5.89747e-05
-1.02384e-05
6.07942e-05
-5.93137e-06
6.11743e-05
-7.12372e-07
5.99809e-05
4.91516e-06
5.71969e-05
1.04769e-05
5.2927e-05
1.54813e-05
4.74083e-05
1.94825e-05
4.09572e-05
2.2168e-05
3.39844e-05
2.32298e-05
2.68601e-05
2.25011e-05
2.01185e-05
1.98431e-05
1.42256e-05
1.5306e-05
9.69463e-06
9.22177e-06
6.63843e-06
2.2273e-06
5.54887e-06
-5.71642e-06
6.32213e-06
-1.33178e-05
8.75092e-06
-2.01178e-05
1.25554e-05
-2.5572e-05
1.72941e-05
-2.91415e-05
2.25005e-05
-3.03509e-05
2.75047e-05
-2.90132e-05
3.16614e-05
-2.51152e-05
3.44161e-05
-1.89908e-05
3.53422e-05
-1.10261e-05
3.42037e-05
-1.91726e-06
3.08595e-05
7.83763e-06
2.54473e-05
1.70513e-05
1.82196e-05
2.53833e-05
9.56535e-06
3.22188e-05
-1.28377e-07
3.71997e-05
-1.02163e-05
3.99937e-05
-2.01261e-05
4.03607e-05
-2.94335e-05
3.86857e-05
-3.76352e-05
3.4982e-05
-4.43476e-05
2.96013e-05
-4.93316e-05
2.29852e-05
-5.24347e-05
1.56235e-05
-5.36471e-05
8.05217e-06
-5.30642e-05
7.55422e-07
-5.0817e-05
-5.92452e-06
-4.73166e-05
-1.13613e-05
-4.28561e-05
-1.54424e-05
-3.78509e-05
-1.79255e-05
-3.26784e-05
-1.88944e-05
-2.7673e-05
-1.82744e-05
-2.32887e-05
-1.62482e-05
-1.98642e-05
-1.30827e-05
-1.76619e-05
-9.15724e-06
-1.68942e-05
-4.95827e-06
-1.75509e-05
-1.28803e-06
-1.93412e-05
9.46997e-07
-2.15931e-05
6.91376e-07
-2.31615e-05
-2.98387e-06
-2.25789e-05
-1.02394e-05
-1.84438e-05
-1.96757e-05
-1.02191e-05
-2.75888e-05
8.78275e-07
-2.84933e-05
1.10966e-05
-1.62153e-05
1.35187e-05
2.07459e-05
9.45629e-05
-1.09194e-05
9.29791e-05
-5.99535e-07
-2.09175e-06
1.89593e-05
-4.7975e-05
3.64112e-05
-5.72298e-05
4.65698e-05
-4.75791e-05
4.92933e-05
-3.06044e-05
4.68571e-05
-1.42793e-05
4.18994e-05
-2.61596e-06
3.66021e-05
3.39857e-06
3.21821e-05
4.87372e-06
2.92542e-05
3.18242e-06
2.80112e-05
-3.82747e-07
2.84563e-05
-4.89362e-06
3.04234e-05
-9.67018e-06
3.37653e-05
-1.41948e-05
3.82271e-05
-1.79532e-05
4.35081e-05
-2.05197e-05
4.91814e-05
-2.16326e-05
5.48534e-05
-2.10064e-05
5.98613e-05
-1.85872e-05
6.39698e-05
-1.43431e-05
6.67116e-05
-8.67009e-06
6.75721e-05
-1.57084e-06
6.64453e-05
6.04264e-06
6.32778e-05
1.36446e-05
5.81684e-05
2.05906e-05
5.13795e-05
2.62714e-05
4.33511e-05
3.01969e-05
3.45845e-05
3.19977e-05
2.55944e-05
3.14933e-05
1.70786e-05
2.8362e-05
9.72844e-06
2.26592e-05
4.0355e-06
1.49173e-05
5.17425e-07
5.74675e-06
-6.42765e-07
-4.55652e-06
6.1728e-07
-1.45796e-05
4.14289e-06
-2.36463e-05
9.55339e-06
-3.09861e-05
1.6244e-05
-3.58359e-05
2.35818e-05
-3.76932e-05
3.07368e-05
-3.61732e-05
3.68234e-05
-3.12064e-05
4.10752e-05
-2.32471e-05
4.29723e-05
-1.29276e-05
4.21572e-05
-1.10642e-06
3.84016e-05
1.15891e-05
3.20465e-05
2.34025e-05
2.33814e-05
3.40449e-05
1.28212e-05
4.27762e-05
1.12601e-06
4.88929e-05
-1.10079e-05
5.21262e-05
-2.31567e-05
5.25085e-05
-3.43739e-05
4.9902e-05
-4.4104e-05
4.47103e-05
-5.19418e-05
3.74364e-05
-5.75599e-05
2.85993e-05
-6.08092e-05
1.88679e-05
-6.16939e-05
8.93035e-06
-6.03868e-05
-5.59028e-07
-5.6938e-05
-9.37981e-06
-5.19673e-05
-1.63383e-05
-4.60619e-05
-2.13547e-05
-3.93839e-05
-2.46101e-05
-3.25881e-05
-2.56957e-05
-2.61686e-05
-2.46986e-05
-2.06569e-05
-2.17643e-05
-1.64984e-05
-1.72447e-05
-1.41448e-05
-1.1512e-05
-1.391e-05
-5.19088e-06
-1.59994e-05
8.05542e-07
-2.02357e-05
5.18788e-06
-2.59378e-05
6.398e-06
-3.16229e-05
2.70531e-06
-3.50141e-05
-6.84499e-06
-3.33503e-05
-2.13373e-05
-2.45947e-05
-3.6343e-05
-9.27467e-06
-4.38124e-05
7.35471e-06
-3.28467e-05
1.41398e-05
1.39562e-05
0.0001087
-8.69347e-06
0.000101672
1.24175e-05
-2.32035e-05
4.42432e-05
-7.98016e-05
6.7514e-05
-8.05024e-05
7.57488e-05
-5.58152e-05
7.17819e-05
-2.6639e-05
6.14909e-05
-3.99015e-06
4.95425e-05
9.33101e-06
3.92314e-05
1.37096e-05
3.15011e-05
1.26041e-05
2.6551e-05
8.13389e-06
2.42523e-05
1.91813e-06
2.43702e-05
-5.00944e-06
2.66356e-05
-1.19334e-05
3.0695e-05
-1.8252e-05
3.63255e-05
-2.35813e-05
4.3031e-05
-2.72229e-05
5.0501e-05
-2.91002e-05
5.79405e-05
-2.84434e-05
6.48066e-05
-2.54513e-05
7.04758e-05
-2.0011e-05
7.45359e-05
-1.27297e-05
7.60463e-05
-3.08165e-06
7.50489e-05
7.03895e-06
7.14059e-05
1.72861e-05
6.52269e-05
2.67684e-05
5.68272e-05
3.46708e-05
4.67189e-05
4.03056e-05
3.55219e-05
4.31956e-05
2.41596e-05
4.28565e-05
1.32953e-05
3.92267e-05
3.91287e-06
3.20409e-05
-3.23994e-06
2.20684e-05
-7.68309e-06
1.01872e-05
-8.91842e-06
-3.32507e-06
-6.98118e-06
-1.65211e-05
-2.0512e-06
-2.858e-05
5.41147e-06
-3.84516e-05
1.47145e-05
-4.51406e-05
2.48657e-05
-4.78457e-05
3.47447e-05
-4.6054e-05
4.33095e-05
-3.97725e-05
4.95942e-05
-2.95331e-05
5.27365e-05
-1.60711e-05
5.23203e-05
-6.91584e-07
4.8159e-05
1.5749e-05
4.0593e-05
3.0967e-05
2.99741e-05
4.46623e-05
1.70227e-05
5.57263e-05
2.54771e-06
6.33671e-05
-1.25969e-05
6.72702e-05
-2.73505e-05
6.72617e-05
-4.09347e-05
6.34864e-05
-5.2598e-05
5.63736e-05
-6.1828e-05
4.66665e-05
-6.82249e-05
3.49957e-05
-7.15951e-05
2.22377e-05
-7.19438e-05
9.27715e-06
-6.94283e-05
-3.07746e-06
-6.46729e-05
-1.41376e-05
-5.79936e-05
-2.30208e-05
-4.97956e-05
-2.95571e-05
-4.10267e-05
-3.3382e-05
-3.22014e-05
-3.45206e-05
-2.39515e-05
-3.29459e-05
-1.68142e-05
-2.88985e-05
-1.15089e-05
-2.2547e-05
-8.65799e-06
-1.43597e-05
-8.83421e-06
-5.0103e-06
-1.26029e-05
4.5783e-06
-2.01438e-05
1.27316e-05
-3.10239e-05
1.72792e-05
-4.36639e-05
1.53449e-05
-5.47213e-05
4.21121e-06
-5.9009e-05
-1.70508e-05
-5.13379e-05
-4.40154e-05
-3.01359e-05
-6.50166e-05
-2.55699e-06
-6.04303e-05
1.32825e-05
-1.8866e-06
0.000121982
-1.98957e-06
0.000103661
3.67733e-05
-6.19672e-05
8.50796e-05
-0.000128109
0.000113982
-0.000109405
0.000116763
-5.85977e-05
0.000101192
-1.107e-05
7.84608e-05
1.874e-05
5.70625e-05
3.07279e-05
4.00355e-05
3.07362e-05
2.84796e-05
2.41586e-05
2.15682e-05
1.50435e-05
1.84524e-05
5.03274e-06
1.85818e-05
-5.13945e-06
2.13868e-05
-1.47385e-05
2.65499e-05
-2.34143e-05
3.36923e-05
-3.07221e-05
4.24308e-05
-3.59594e-05
5.20964e-05
-3.87635e-05
6.20462e-05
-3.8391e-05
7.14457e-05
-3.48492e-05
7.94337e-05
-2.79982e-05
8.48016e-05
-1.80975e-05
8.74619e-05
-5.74243e-06
8.67053e-05
7.79474e-06
8.24863e-05
2.15043e-05
7.49539e-05
3.43002e-05
6.44904e-05
4.51339e-05
5.16679e-05
5.31275e-05
3.72995e-05
5.75625e-05
2.25433e-05
5.76108e-05
8.72344e-06
5.30438e-05
-3.34738e-06
4.41086e-05
-1.25408e-05
3.1259e-05
-1.81809e-05
1.58256e-05
-1.96747e-05
-1.83198e-06
-1.69007e-05
-1.92948e-05
-1.01231e-05
-3.53566e-05
-2.95358e-08
-4.8544e-05
1.25283e-05
-5.76973e-05
2.62346e-05
-6.15513e-05
3.97426e-05
-5.95626e-05
5.15446e-05
-5.15759e-05
6.02626e-05
-3.82535e-05
6.50372e-05
-2.08484e-05
6.51052e-05
-7.61522e-07
6.03972e-05
2.04563e-05
5.11552e-05
4.02097e-05
3.79985e-05
5.78204e-05
2.18311e-05
7.18952e-05
3.75298e-06
8.14461e-05
-1.49545e-05
8.59772e-05
-3.31329e-05
8.5438e-05
-4.98656e-05
8.02161e-05
-6.4014e-05
7.0518e-05
-7.49806e-05
5.76293e-05
-8.2304e-05
4.23154e-05
-8.57597e-05
2.56921e-05
-8.53858e-05
8.90165e-06
-8.14486e-05
-7.01533e-06
-7.45878e-05
-2.09956e-05
-6.53211e-05
-3.2284e-05
-5.46518e-05
-4.02244e-05
-4.31458e-05
-4.48864e-05
-3.16619e-05
-4.60009e-05
-2.08171e-05
-4.37848e-05
-1.14823e-05
-3.8227e-05
-4.40227e-06
-2.9622e-05
-4.64728e-07
-1.82937e-05
-5.89989e-07
-4.88203e-06
-5.98087e-06
9.97018e-06
-1.74544e-05
2.42046e-05
-3.52292e-05
3.50527e-05
-5.78392e-05
3.79534e-05
-8.06398e-05
2.70113e-05
-9.49619e-05
-2.72782e-06
-9.08482e-05
-4.8128e-05
-6.34039e-05
-9.24616e-05
-2.11274e-05
-0.000102708
9.37804e-06
-3.23924e-05
0.000131363
8.23492e-06
9.54253e-05
6.61407e-05
-0.000119873
0.000126226
-0.000188194
0.00015609
-0.00013927
0.000151246
-5.37538e-05
0.000123606
1.65678e-05
8.88292e-05
5.35147e-05
5.78945e-05
6.16593e-05
3.53294e-05
5.32983e-05
2.07987e-05
3.86867e-05
1.29306e-05
2.29094e-05
9.67457e-06
8.28695e-06
1.04522e-05
-5.91843e-06
1.43384e-05
-1.86253e-05
2.10549e-05
-3.01304e-05
3.02604e-05
-3.99261e-05
4.1598e-05
-4.7295e-05
5.42569e-05
-5.142e-05
6.7683e-05
-5.1815e-05
8.0215e-05
-4.73795e-05
9.09151e-05
-3.86972e-05
9.86849e-05
-2.58668e-05
0.000102686
-9.74396e-06
0.000102284
8.19735e-06
9.73691e-05
2.64186e-05
8.81672e-05
4.35019e-05
7.51413e-05
5.81595e-05
5.89621e-05
6.9306e-05
4.07583e-05
7.5764e-05
2.175e-05
7.6616e-05
3.43026e-06
7.136e-05
-1.23782e-05
5.99145e-05
-2.43957e-05
4.32752e-05
-3.16238e-05
2.30539e-05
-3.33358e-05
-1.19188e-07
-2.94298e-05
-2.31998e-05
-2.03792e-05
-4.44072e-05
-6.85737e-06
-6.20671e-05
9.73846e-06
-7.42954e-05
2.79793e-05
-7.97949e-05
4.59876e-05
-7.75728e-05
6.18435e-05
-6.7433e-05
7.38091e-05
-5.02187e-05
8.05256e-05
-2.7565e-05
8.12252e-05
-1.4616e-06
7.56516e-05
2.60293e-05
6.42073e-05
5.16541e-05
4.77207e-05
7.4308e-05
2.73454e-05
9.22722e-05
4.6321e-06
0.000104161
-1.88291e-05
0.000109438
-4.1547e-05
0.000108154
-6.20916e-05
0.000100757
-7.93233e-05
8.77459e-05
-9.2439e-05
7.07419e-05
-0.000100852
5.07262e-05
-0.00010433
2.91716e-05
-0.000102964
7.53676e-06
-9.70847e-05
-1.28963e-05
-8.74277e-05
-3.06531e-05
-7.52329e-05
-4.44789e-05
-6.1091e-05
-5.43664e-05
-4.6071e-05
-5.99057e-05
-3.09775e-05
-6.10925e-05
-1.69362e-05
-5.78238e-05
-4.45316e-06
-5.07084e-05
5.45545e-06
-3.9531e-05
1.13807e-05
-2.42204e-05
1.23823e-05
-5.88379e-06
6.57045e-06
1.57824e-05
-8.04246e-06
3.88178e-05
-3.22864e-05
5.92969e-05
-6.47134e-05
7.03803e-05
-9.89845e-05
6.12824e-05
-0.000123348
2.1636e-05
-0.000124237
-4.72406e-05
-9.45375e-05
-0.000122164
-4.23378e-05
-0.000154907
2.34797e-06
-7.70767e-05
0.000133708
1.74756e-05
7.79497e-05
7.91904e-05
-0.000181589
0.000131332
-0.000240335
0.000151823
-0.000159761
0.000140661
-4.25919e-05
0.000109415
4.78123e-05
7.23151e-05
9.06112e-05
3.99939e-05
9.39776e-05
1.72695e-05
7.60191e-05
3.36639e-06
5.25863e-05
-3.19594e-06
2.94685e-05
-4.81837e-06
9.90656e-06
-2.42524e-06
-8.31404e-06
3.31923e-06
-2.43718e-05
1.22799e-05
-3.90926e-05
2.43171e-05
-5.19644e-05
3.91863e-05
-6.21648e-05
5.60822e-05
-6.83163e-05
7.34649e-05
-6.91978e-05
9.03603e-05
-6.42752e-05
0.000104991
-5.33282e-05
0.000115811
-3.66855e-05
0.000121656
-1.55885e-05
0.000121753
8.10089e-06
0.000116078
3.20941e-05
0.000104886
5.46932e-05
8.86272e-05
7.44161e-05
6.80842e-05
8.98466e-05
4.45847e-05
9.92608e-05
2.00344e-05
0.000101164
-3.40172e-06
9.47953e-05
-2.39439e-05
8.04576e-05
-3.95529e-05
5.88853e-05
-4.88698e-05
3.23704e-05
-5.09204e-05
1.92797e-06
-4.54816e-05
-2.86446e-05
-3.32318e-05
-5.66638e-05
-1.53635e-05
-7.99408e-05
6.55621e-06
-9.62177e-05
3.04895e-05
-0.000103729
5.41332e-05
-0.000101217
7.49555e-05
-8.82557e-05
9.08618e-05
-6.61258e-05
0.000100147
-3.68507e-05
0.00010159
-2.90351e-06
9.47427e-05
3.28782e-05
8.04144e-05
6.59831e-05
5.94963e-05
9.52257e-05
3.3765e-05
0.000118002
5.09241e-06
0.000132831
-2.44611e-05
0.000138989
-5.27907e-05
0.000136484
-7.81245e-05
0.000126093
-9.92835e-05
0.000108909
-0.000114912
8.63733e-05
-0.000124562
6.03758e-05
-0.000127959
3.25669e-05
-0.000125277
4.85262e-06
-0.000116574
-2.15998e-05
-0.000103991
-4.32341e-05
-8.75156e-05
-6.09557e-05
-6.89301e-05
-7.29568e-05
-4.93735e-05
-7.94682e-05
-2.9943e-05
-8.05269e-05
-1.12889e-05
-7.64793e-05
5.67651e-06
-6.76736e-05
1.93193e-05
-5.3174e-05
2.96149e-05
-3.45171e-05
3.36483e-05
-9.9184e-06
2.99273e-05
1.95025e-05
1.64411e-05
5.23035e-05
-8.54684e-06
8.42845e-05
-4.29718e-05
0.000104805
-7.99198e-05
9.82297e-05
-0.000107102
4.88173e-05
-0.000112541
-4.1804e-05
-9.07785e-05
-0.000143926
-4.7007e-05
-0.000198676
-2.33094e-06
-0.00012175
0.000131377
1.50646e-05
6.28868e-05
5.1137e-05
-0.000217659
6.9614e-05
-0.000258811
6.93617e-05
-0.00015951
5.47514e-05
-2.79819e-05
3.1763e-05
7.08009e-05
7.44187e-06
0.000114931
-1.26914e-05
0.000114109
-2.65711e-05
8.98963e-05
-3.40028e-05
6.00153e-05
-3.65084e-05
3.19715e-05
-3.43887e-05
7.78427e-06
-2.88543e-05
-1.38511e-05
-1.98742e-05
-3.33541e-05
-7.57464e-06
-5.1394e-05
8.70398e-06
-6.82445e-05
2.86522e-05
-8.21143e-05
5.09345e-05
-9.05994e-05
7.43947e-05
-9.26587e-05
9.71609e-05
-8.70422e-05
0.000116632
-7.28002e-05
0.000131863
-5.19171e-05
0.000140476
-2.42015e-05
0.000141643
6.93376e-06
0.000135586
3.81512e-05
0.000122496
6.77822e-05
0.000102677
9.42345e-05
7.72817e-05
0.000115241
4.77341e-05
0.000128809
1.61836e-05
0.000132716
-1.44373e-05
0.000125417
-4.11418e-05
0.00010716
-6.12378e-05
7.89767e-05
-7.30037e-05
4.41292e-05
-7.49977e-05
3.91416e-06
-6.71034e-05
-3.65445e-05
-5.02269e-05
-7.35428e-05
-2.61991e-05
-0.000103969
2.91803e-06
-0.000125335
3.44535e-05
-0.000135267
6.53368e-05
-0.000132104
9.26801e-05
-0.000115603
0.00011367
-8.7119e-05
0.000126098
-4.92824e-05
0.000128603
-5.4122e-06
0.000120019
4.14575e-05
0.000101957
8.40424e-05
7.54043e-05
0.000121776
4.26026e-05
0.000150803
6.23025e-06
0.000169205
-3.08134e-05
0.000176036
-6.6059e-05
0.000171732
-9.70752e-05
0.000157109
-0.000122591
0.000134423
-0.000141145
0.000104924
-0.000151978
7.12084e-05
-0.000154829
3.54165e-05
-0.000149887
-9.60566e-08
-0.000138341
-3.31522e-05
-0.000120701
-6.08754e-05
-9.92743e-05
-8.23773e-05
-7.49143e-05
-9.73107e-05
-4.92489e-05
-0.000105129
-2.31405e-05
-0.000106633
1.92987e-06
-0.00010155
2.47898e-05
-9.05341e-05
4.58582e-05
-7.42441e-05
6.27398e-05
-5.13999e-05
7.38606e-05
-2.1042e-05
7.6671e-05
1.66872e-05
7.03144e-05
5.86542e-05
5.40813e-05
0.000100512
2.99141e-05
0.000128968
4.03571e-06
0.000124107
-1.61281e-05
6.89805e-05
-2.66783e-05
-3.12528e-05
-2.59221e-05
-0.000144675
-1.47847e-05
-0.00020981
3.05904e-06
-0.000139594
0.000134442
-5.39443e-06
6.82831e-05
-2.33082e-05
-0.000199743
-5.37136e-05
-0.000228404
-8.03971e-05
-0.000132825
-9.81391e-05
-1.02396e-05
-0.000108249
8.09102e-05
-0.000113138
0.00011982
-0.00011521
0.000116181
-0.000115358
9.00433e-05
-0.000113541
5.8197e-05
-0.000109523
2.79511e-05
-0.000102105
3.64523e-07
-9.15908e-05
-2.4368e-05
-7.70147e-05
-4.79326e-05
-5.79092e-05
-7.05017e-05
-3.46804e-05
-9.14754e-05
-7.52158e-06
-0.000109275
2.28908e-05
-0.000121014
5.49112e-05
-0.000124682
8.53119e-05
-0.000117445
0.000112695
-0.000100185
0.000133181
-7.24031e-05
0.000146734
-3.77546e-05
0.000151085
2.58344e-06
0.000146251
4.29851e-05
0.000132167
8.18669e-05
0.000109347
0.000117056
7.86808e-05
0.000145909
4.2214e-05
0.000165279
2.60235e-06
0.000172329
-3.64549e-05
0.000164472
-7.05655e-05
0.000141266
-9.61365e-05
0.000104543
-0.000110613
5.86045e-05
-0.000111691
4.99553e-06
-9.94281e-05
-4.88043e-05
-7.56059e-05
-9.73651e-05
-4.21645e-05
-0.000137416
-2.24684e-06
-0.00016526
4.05339e-05
-0.000178054
8.22132e-05
-0.000173789
0.000118953
-0.000152347
0.00014726
-0.00011543
0.000164339
-6.6364e-05
0.000168316
-9.39109e-06
0.000157896
5.18775e-05
0.000134659
0.000107278
0.000100628
0.000155807
5.87583e-05
0.000192671
1.2965e-05
0.000214995
-3.30511e-05
0.000222048
-7.61498e-05
0.000214831
-0.000113675
0.000194636
-0.000143389
0.000164141
-0.00016435
0.000125883
-0.000175516
8.23743e-05
-0.000176757
3.66612e-05
-0.000168317
-8.53111e-06
-0.000151351
-5.01121e-05
-0.000127542
-8.46808e-05
-9.85758e-05