/*--------------------------------*- C++ -*----------------------------------*\
| =========                 |                                                 |
| \\      /  F ield         | OpenFOAM: The Open Source CFD Toolbox           |
|  \\    /   O peration     | Version:  2412                                  |
|   \\  /    A nd           | Website:  www.openfoam.com                      |
|    \\/     M anipulation  |                                                 |
\*---------------------------------------------------------------------------*/
FoamFile
{
    version     2.0;
    format      ascii;
    arch        "LSB;label=32;scalar=64";
    class       volScalarField;
    location    "1.35";
    object      p_rgh;
}
// * * * * * * * * * * * * * * * * * * * * * * * * * * * * * * * * * * * * * //

dimensions      [1 -1 -2 0 0 0 0];

internalField   nonuniform List<scalar> 
6400
(
24463.1
24459.6
24459
24458.4
24457.3
24455.2
24451.3
24445.3
24438.1
24430.3
24423.1
24417.3
24413.1
24409.9
24406.9
24403.7
24401.3
24401.7
24406.1
24414.2
24424.8
24436.6
24448.8
24461.5
24474.9
24489.1
24503.8
24518.5
24532.5
24545.5
24556.9
24566.4
24573.6
24578.4
24580.5
24579.8
24576.3
24570.1
24561.3
24550.2
24537.1
24522.2
24506
24488.9
24471.4
24453.8
24436.7
24420.5
24405.6
24392.4
24381
24371.7
24364.7
24360.1
24357.9
24358.1
24360.7
24365.4
24372.1
24380.7
24390.8
24402.1
24414.5
24427.6
24441
24454.6
24467.9
24480.5
24492.3
24502.9
24512.3
24520.5
24527.3
24532.6
24536
24537.1
24535.8
24532.7
24528.5
24525.2
24460.5
24459.5
24459.3
24457.6
24455
24452.3
24448.9
24444.3
24438.5
24431.7
24424.4
24417.6
24412.5
24409.5
24408.2
24407.4
24406.5
24406.4
24408.5
24413.9
24422.3
24433
24445
24457.7
24471
24484.9
24499.2
24513.4
24527.1
24539.7
24550.8
24560
24567.1
24571.8
24573.9
24573.4
24570.1
24564.3
24555.9
24545.1
24532.3
24517.8
24502.1
24485.4
24468.4
24451.4
24434.9
24419.3
24404.9
24392.1
24381.1
24372.1
24365.3
24360.8
24358.6
24358.9
24361.4
24366.1
24372.9
24381.4
24391.5
24402.8
24415.1
24428.1
24441.5
24455
24468.4
24481.3
24493.4
24504.5
24514.3
24522.8
24530.1
24536.6
24542
24545.9
24546.6
24542.8
24535.9
24531.6
24461.5
24462.6
24463.3
24461.2
24457.5
24453.8
24450.2
24446.2
24441.5
24436
24429.5
24422.4
24416.2
24412.5
24411.7
24412.8
24414.1
24415.2
24417
24420.9
24427.7
24437.2
24448.7
24461.2
24474.4
24488
24501.8
24515.5
24528.6
24540.7
24551.3
24560
24566.6
24570.9
24572.7
24571.9
24568.5
24562.6
24554.1
24543.4
24530.7
24516.3
24500.7
24484.2
24467.4
24450.7
24434.5
24419.2
24405.2
24392.6
24381.9
24373.1
24366.4
24362
24359.9
24360.2
24362.7
24367.4
24374.1
24382.7
24392.8
24404.1
24416.4
24429.4
24442.8
24456.3
24469.7
24482.9
24495.4
24507
24517.2
24525.9
24533.3
24540.1
24547
24553.5
24557.3
24555.3
24547.9
24541.4
24463.8
24466.3
24468
24466.3
24462.1
24457.4
24452.9
24448.4
24444.1
24439.8
24434.7
24428.3
24421.4
24416
24414
24415.4
24418.5
24421.7
24424.6
24428.4
24434.2
24442.7
24453.4
24465.7
24478.7
24492
24505.4
24518.6
24531.2
24542.8
24552.9
24561.1
24567.2
24571.1
24572.5
24571.4
24567.7
24561.6
24553.1
24542.5
24529.8
24515.6
24500.1
24483.9
24467.4
24451
24435.1
24420.1
24406.4
24394.1
24383.7
24375.2
24368.7
24364.5
24362.5
24362.9
24365.4
24370.1
24376.8
24385.3
24395.4
24406.7
24419
24431.9
24445.1
24458.4
24471.6
24484.6
24497.1
24508.8
24519.2
24527.8
24534.6
24540.7
24547.3
24555
24561.7
24562.9
24557.7
24551.8
24467.4
24470
24472.3
24471.5
24467.9
24463
24457.6
24452.1
24447
24442.9
24439.2
24434.6
24428.4
24421.9
24417.7
24417.4
24420.5
24425.1
24429.8
24434.7
24440.6
24448.4
24458.4
24469.9
24482.5
24495.5
24508.5
24521.2
24533.2
24544.2
24553.9
24561.7
24567.4
24570.9
24571.9
24570.5
24566.7
24560.5
24552
24541.4
24528.9
24515
24499.9
24484
24467.8
24451.8
24436.3
24421.8
24408.4
24396.6
24386.5
24378.3
24372.1
24368.2
24366.4
24366.9
24369.6
24374.3
24381
24389.4
24399.3
24410.5
24422.6
24435.4
24448.5
24461.5
24474.4
24487
24499.3
24511
24521.5
24530.1
24536.5
24541.3
24546.3
24553
24560.6
24564.9
24563.4
24560.8
24473
24474.7
24476.7
24476.5
24474
24470
24464.9
24458.6
24452.1
24447
24443.8
24441.2
24437.2
24431.6
24426.1
24423.4
24424.5
24428.8
24434.5
24440.7
24447.2
24454.9
24464.2
24475
24486.8
24499.2
24511.6
24523.7
24535.1
24545.5
24554.5
24561.9
24567.2
24570.3
24571
24569.4
24565.3
24559
24550.6
24540.1
24527.9
24514.3
24499.6
24484.2
24468.6
24453.1
24438.1
24424
24411.2
24399.7
24390
24382.2
24376.3
24372.6
24371.1
24371.8
24374.7
24379.5
24386.1
24394.3
24404.1
24415
24427
24439.7
24452.7
24465.7
24478.4
24490.7
24502.7
24514.3
24525.2
24534.3
24541.1
24545.4
24548.8
24553.5
24559.9
24564.9
24566.2
24567.2
24480.3
24480.5
24481.5
24481
24479.2
24476.7
24472.9
24467.2
24460
24453.1
24448.7
24446.8
24445.3
24442.2
24437.7
24433.8
24432.7
24435.2
24440.4
24446.9
24454.1
24461.9
24470.7
24480.8
24491.8
24503.4
24515.1
24526.5
24537.2
24546.9
24555.2
24562
24566.8
24569.5
24570
24568.1
24564
24557.6
24549.2
24538.9
24526.9
24513.7
24499.5
24484.7
24469.7
24454.8
24440.4
24426.9
24414.5
24403.6
24394.3
24386.8
24381.3
24377.9
24376.6
24377.4
24380.3
24385.2
24391.8
24400
24409.4
24420.1
24431.8
24444.2
24457.1
24470
24482.6
24494.7
24506.4
24517.9
24528.9
24538.8
24546.5
24551.5
24554.5
24557.6
24561.9
24565.9
24567.9
24570.7
24487.9
24487.4
24487.2
24485.6
24483.4
24481.5
24479.4
24475.5
24469.1
24461.3
24454.8
24451.5
24450.7
24450.2
24448.3
24445.4
24443.5
24444.2
24448
24453.8
24461
24468.8
24477.5
24487
24497.3
24508.1
24519
24529.7
24539.6
24548.5
24556.2
24562.3
24566.6
24568.9
24569.1
24567
24562.8
24556.4
24548.1
24538
24526.4
24513.6
24499.8
24485.6
24471.2
24457
24443.3
24430.4
24418.7
24408.3
24399.5
24392.4
24387.2
24384
24382.8
24383.7
24386.6
24391.5
24398.1
24406.1
24415.3
24425.5
24436.6
24448.6
24461.1
24473.8
24486.2
24498.1
24509.4
24520.3
24531.1
24541.2
24549.9
24556.1
24559.9
24562.6
24565.5
24567.9
24569.2
24572.1
24494.4
24494.3
24493.6
24491
24487.5
24484.9
24483.4
24481.5
24477.4
24470.5
24462.8
24457.1
24454.9
24455.1
24455.4
24454.8
24453.8
24454
24456.5
24461.3
24467.8
24475.4
24483.8
24492.9
24502.6
24512.7
24522.9
24532.8
24542.1
24550.3
24557.3
24562.8
24566.6
24568.5
24568.4
24566.2
24561.9
24555.6
24547.4
24537.6
24526.3
24514
24500.8
24487.2
24473.4
24459.9
24446.9
24434.7
24423.6
24413.8
24405.5
24398.9
24394
24391
24389.9
24390.8
24393.6
24398.3
24404.7
24412.5
24421.4
24431.2
24441.6
24452.8
24464.6
24476.8
24488.9
24500.5
24511.3
24521.6
24531.6
24541.3
24550.1
24557.2
24562.1
24565.5
24568.2
24569.6
24569.9
24571.9
24499
24500.1
24500
24497.2
24492.5
24488.2
24485.7
24484.7
24483
24478.7
24471.8
24464.9
24460.4
24459.2
24460
24461
24461.7
24462.6
24464.8
24468.8
24474.5
24481.6
24489.6
24498.3
24507.4
24516.9
24526.4
24535.6
24544.2
24551.9
24558.2
24563.2
24566.5
24568
24567.6
24565.3
24561.1
24555
24547
24537.5
24526.7
24514.9
24502.3
24489.3
24476.3
24463.5
24451.3
24439.8
24429.3
24420.1
24412.3
24406.1
24401.6
24398.9
24397.9
24398.7
24401.2
24405.5
24411.5
24419
24427.6
24436.9
24446.8
24457.1
24468
24479.4
24490.9
24502.1
24512.5
24522.2
24531.3
24540.1
24548.3
24555.4
24560.9
24565.2
24568.3
24569.5
24569.2
24570.4
24502.1
24504
24504.9
24503.2
24498.6
24492.9
24488.4
24486.2
24485.5
24483.8
24479.7
24473.7
24468.1
24464.9
24464.6
24465.8
24467.6
24469.6
24472.1
24475.9
24481
24487.4
24494.9
24503
24511.6
24520.4
24529.3
24537.8
24545.7
24552.8
24558.6
24563.1
24566
24567.2
24566.7
24564.3
24560.1
24554.2
24546.6
24537.5
24527.2
24516
24504.1
24491.8
24479.6
24467.6
24456.2
24445.4
24435.7
24427
24419.7
24414
24409.8
24407.3
24406.5
24407.2
24409.5
24413.3
24418.7
24425.6
24433.6
24442.5
24451.9
24461.4
24471.3
24481.7
24492.4
24503
24513.1
24522.3
24530.7
24538.5
24545.7
24552.2
24557.7
24562.3
24565.9
24567.3
24566.7
24567.3
24504.6
24506.1
24507.7
24507.5
24504.4
24499
24493
24488.6
24486.7
24486.1
24484.6
24481.1
24476.4
24472.5
24470.7
24471.1
24472.9
24475.3
24478.4
24482.2
24487
24492.9
24499.7
24507.3
24515.2
24523.4
24531.5
24539.3
24546.5
24552.9
24558.3
24562.3
24564.8
24565.8
24565.1
24562.7
24558.7
24553
24545.8
24537.3
24527.6
24517.1
24506
24494.6
24483.2
24472.1
24461.5
24451.6
24442.6
24434.6
24427.8
24422.4
24418.5
24416.2
24415.5
24416.3
24418.4
24421.7
24426.4
24432.4
24439.7
24447.9
24456.7
24465.7
24474.7
24484
24493.5
24503.4
24513
24521.9
24529.8
24536.8
24543.1
24548.7
24553.7
24558.3
24562
24563.6
24563
24563
24507.5
24507.3
24508.5
24509.3
24508.4
24504.7
24498.9
24493
24489.1
24487.5
24487
24485.7
24483
24479.9
24477.8
24477.3
24478.4
24480.7
24483.8
24487.7
24492.3
24497.8
24504
24510.9
24518.2
24525.6
24533
24540
24546.5
24552.3
24557
24560.6
24562.8
24563.6
24562.8
24560.5
24556.6
24551.3
24544.6
24536.6
24527.7
24518
24507.8
24497.3
24486.9
24476.7
24467.1
24458.1
24449.9
24442.7
24436.5
24431.5
24427.8
24425.6
24424.9
24425.6
24427.6
24430.7
24434.7
24439.8
24446
24453.3
24461.4
24469.8
24478.2
24486.4
24494.8
24503.5
24512.3
24520.7
24528.3
24534.8
24540.4
24545.2
24549.5
24553.7
24557.4
24559.2
24558.7
24558.3
24511.1
24508.6
24508.4
24509.1
24509.5
24508.3
24504.4
24498.9
24493.6
24490.3
24488.9
24488.4
24487.5
24485.9
24484.3
24483.6
24484.2
24486
24488.9
24492.5
24496.8
24501.9
24507.5
24513.8
24520.3
24527
24533.6
24539.8
24545.6
24550.6
24554.8
24557.9
24559.8
24560.4
24559.6
24557.4
24553.8
24548.9
24542.7
24535.5
24527.4
24518.6
24509.4
24500
24490.6
24481.5
24472.9
24464.9
24457.6
24451.2
24445.6
24441.1
24437.7
24435.6
24434.8
24435.4
24437.2
24440
24443.5
24447.8
24452.9
24459
24466.1
24473.8
24481.6
24489.1
24496.4
24503.8
24511.4
24519
24526.1
24532.3
24537.4
24541.5
24545
24548.6
24552.2
24554.3
24554.4
24554
24514.8
24510.7
24508.8
24508.4
24508.9
24509.1
24507.7
24504
24499.1
24494.8
24492.3
24491.2
24490.8
24490.3
24489.6
24489.3
24489.7
24491.2
24493.6
24496.8
24500.7
24505.2
24510.2
24515.7
24521.5
24527.4
24533.2
24538.6
24543.6
24548
24551.6
24554.2
24555.8
24556.2
24555.5
24553.5
24550.2
24545.8
24540.3
24533.9
24526.7
24518.9
24510.8
24502.6
24494.4
24486.4
24478.8
24471.8
24465.5
24459.9
24455.1
24451.2
24448.2
24446.2
24445.2
24445.5
24447
24449.5
24452.7
24456.3
24460.5
24465.4
24471.2
24477.8
24484.8
24491.8
24498.3
24504.6
24511
24517.5
24523.8
24529.5
24534.3
24537.8
24540.5
24543.2
24546.2
24548.8
24550
24550.6
24517.7
24513.2
24510.5
24508.8
24508.4
24508.6
24508.5
24506.9
24503.8
24500
24496.9
24495.1
24494.4
24494.2
24494.1
24494.2
24494.8
24496
24498
24500.7
24504
24507.8
24512.2
24516.9
24521.8
24526.8
24531.7
24536.4
24540.6
24544.2
24547.2
24549.4
24550.7
24551
24550.3
24548.5
24545.7
24541.9
24537.2
24531.6
24525.5
24518.9
24512
24505
24498.1
24491.4
24484.9
24479
24473.6
24468.9
24464.9
24461.7
24459.1
24457.4
24456.5
24456.4
24457.4
24459.4
24462.1
24465.3
24468.8
24472.7
24477.1
24482.4
24488.3
24494.5
24500.4
24505.9
24511.1
24516.4
24521.7
24526.9
24531.2
24534.4
24536.4
24537.7
24539.7
24542.4
24545
24547.5
24518.5
24515.3
24513
24510.9
24509.5
24508.8
24508.6
24508.2
24506.8
24504.4
24501.8
24499.9
24498.8
24498.4
24498.5
24498.8
24499.4
24500.4
24502.1
24504.2
24506.9
24510
24513.5
24517.3
24521.3
24525.4
24529.3
24533.1
24536.5
24539.4
24541.8
24543.5
24544.5
24544.8
24544.2
24542.7
24540.4
24537.3
24533.4
24528.9
24523.9
24518.5
24513
24507.3
24501.8
24496.3
24491.2
24486.4
24482
24478.1
24474.9
24472.3
24470.3
24469
24468.2
24468
24468.6
24470
24472.1
24474.8
24477.7
24480.8
24484.1
24488
24492.6
24497.6
24502.6
24507.4
24511.7
24515.9
24520.2
24524.5
24528.5
24531.5
24533
24533.2
24533.6
24535.4
24538.7
24543.2
24516.9
24516.1
24515.5
24514.1
24512.4
24510.8
24509.8
24509.4
24508.8
24507.7
24506.2
24504.7
24503.7
24503.2
24503.1
24503.3
24503.9
24504.7
24505.9
24507.5
24509.5
24511.8
24514.4
24517.3
24520.2
24523.2
24526.2
24529
24531.5
24533.7
24535.5
24536.8
24537.5
24537.7
24537.2
24536.1
24534.3
24532
24529
24525.6
24521.9
24517.8
24513.7
24509.5
24505.3
24501.3
24497.5
24493.9
24490.6
24487.6
24485.1
24483.2
24481.7
24480.7
24480.2
24480
24480.3
24481.2
24482.7
24484.7
24487
24489.4
24491.9
24494.6
24497.8
24501.4
24505.3
24509.2
24512.6
24515.9
24519.2
24522.7
24526.2
24529.1
24530.5
24530.2
24529.2
24529.3
24531.4
24535.9
24512.4
24515.5
24517.3
24517.1
24515.8
24514
24512.6
24511.9
24511.4
24511
24510.4
24509.6
24509
24508.6
24508.4
24508.5
24508.8
24509.2
24509.9
24510.8
24512
24513.4
24515
24516.7
24518.5
24520.4
24522.2
24523.9
24525.4
24526.7
24527.8
24528.6
24529
24529.1
24528.8
24528.1
24527.1
24525.6
24523.8
24521.7
24519.3
24516.8
24514.2
24511.6
24509.1
24506.6
24504.3
24502.1
24500
24498.2
24496.6
24495.3
24494.4
24493.7
24493.4
24493.3
24493.5
24493.9
24494.7
24495.9
24497.4
24499
24500.6
24502.3
24504.2
24506.5
24509
24511.6
24514
24516.3
24518.6
24521
24523.6
24526.2
24527.8
24528
24526.7
24525.1
24523.5
24523.5
24508.8
24513.7
24515.9
24516.3
24515.8
24514.9
24514.1
24513.7
24513.5
24513.4
24513.3
24513.2
24513
24513
24512.9
24512.9
24513
24513.1
24513.3
24513.5
24513.7
24514.1
24514.5
24514.9
24515.4
24515.9
24516.3
24516.8
24517.2
24517.6
24517.8
24518
24518.1
24518.1
24518.1
24517.9
24517.6
24517.3
24516.8
24516.3
24515.7
24515.1
24514.4
24513.7
24513
24512.4
24511.8
24511.2
24510.7
24510.2
24509.9
24509.6
24509.3
24509.2
24509.2
24509.2
24509.3
24509.4
24509.5
24509.8
24510.1
24510.6
24511
24511.5
24511.9
24512.5
24513.2
24514
24514.8
24515.6
24516.3
24517.1
24518
24519
24520
24520.5
24520.1
24518.7
24515.8
24510.9
0.303622
0.643764
0.513238
0.379074
0.307517
0.243235
0.186721
0.150399
0.128044
0.112757
0.104973
0.0988842
0.0947884
0.0947131
0.0984556
0.108945
0.122895
0.135877
0.157288
0.201136
0.248282
0.291153
0.336935
0.386976
0.434879
0.480305
0.528744
0.572982
0.616505
0.67338
0.743837
0.803721
0.858724
0.912749
0.953931
0.977513
0.987206
0.990125
0.979232
0.953497
0.912517
0.868209
0.822264
0.828107
0.823726
0.810682
0.791544
0.769461
0.744607
0.717051
0.687386
0.655715
0.621396
0.586144
0.554148
0.527901
0.508031
0.497917
0.532393
0.598753
0.667714
0.730671
0.790031
0.851858
0.909138
0.960081
0.996787
1.02696
1.05115
1.06176
1.06605
1.0605
1.03037
0.99837
0.964802
0.924779
0.910279
0.905823
1.00227
0.964549
-0.000409827
-0.000885965
-0.000225559
0.000381596
0.000384287
0.000147921
1.54903e-05
4.06684e-05
9.91527e-05
0.000115583
0.000101233
9.38203e-05
9.6394e-05
9.89362e-05
0.000100707
0.000100319
9.79111e-05
9.91794e-05
0.000102911
0.000103373
0.000102483
0.000104432
0.000105434
0.000105007
0.000106135
0.000108204
0.000109442
0.000110241
0.000111368
0.000112455
0.000112977
0.000113595
0.0001143
0.000114743
0.000115267
0.000115846
0.000115993
0.00011578
0.000115684
0.00011533
0.000114457
0.000113749
0.00011358
0.000112747
0.000110628
0.000109753
0.000111156
0.000109048
0.000103827
0.000104561
0.000109717
0.00010495
9.70271e-05
9.95332e-05
0.000107673
0.000101851
8.86353e-05
9.38319e-05
0.000106172
9.81618e-05
8.3957e-05
8.52808e-05
9.57295e-05
9.50973e-05
8.75314e-05
7.89829e-05
8.42914e-05
9.07328e-05
8.66164e-05
7.70977e-05
7.80195e-05
8.28302e-05
8.78983e-05
8.09621e-05
7.43271e-05
7.41231e-05
7.48219e-05
7.70363e-05
7.80121e-05
7.93216e-05
2.129e-05
-0.000557994
-0.000244269
0.000237414
0.000323451
0.000170538
4.79028e-05
4.42967e-05
8.74261e-05
0.000109626
0.000102674
9.50124e-05
9.60794e-05
9.78562e-05
9.95428e-05
0.000100409
9.84327e-05
9.87344e-05
0.000102402
0.000103856
0.000103219
0.000104499
0.000105715
0.000105487
0.000106171
0.000107905
0.000109167
0.000109922
0.000110804
0.000111755
0.000112189
0.000112623
0.000113219
0.000113629
0.000114066
0.00011462
0.000114905
0.000114805
0.000114765
0.000114654
0.000114044
0.000113388
0.000113215
0.00011286
0.000111271
0.000109826
0.000110843
0.000110233
0.000105783
0.000104543
0.000109329
0.00010747
0.000100192
0.000100059
0.000106949
0.000104826
9.28417e-05
9.4032e-05
0.00010397
0.000100147
8.90806e-05
8.728e-05
9.45036e-05
9.42976e-05
9.03239e-05
8.20575e-05
8.50698e-05
8.96192e-05
8.69469e-05
7.86486e-05
7.86128e-05
8.21621e-05
8.75671e-05
8.24961e-05
7.55839e-05
7.44038e-05
7.43633e-05
7.6607e-05
7.79735e-05
7.95079e-05
0.000732083
2.31168e-05
-0.000248001
-9.44082e-05
0.000133731
0.000189412
0.000128693
7.62228e-05
7.50253e-05
9.59606e-05
0.000103401
9.83076e-05
9.6443e-05
9.60492e-05
9.72302e-05
0.000101225
0.000101817
9.99077e-05
0.000101483
0.000104011
0.000103318
0.000103612
0.000105628
0.000106322
0.000106547
0.000107884
0.000109452
0.000110329
0.000110864
0.000111724
0.00011224
0.000112566
0.000113211
0.000113774
0.000114132
0.000114647
0.000115184
0.00011516
0.000114966
0.000115114
0.000114887
0.000113971
0.000113429
0.000113928
0.000113273
0.000110103
0.000109889
0.000112691
0.000110023
0.000103236
0.000106446
0.000111639
0.000105671
9.77914e-05
0.000101799
0.000108764
9.95036e-05
9.02423e-05
9.63782e-05
0.000102375
9.70943e-05
8.80773e-05
8.96606e-05
9.26149e-05
9.46499e-05
8.59334e-05
8.19132e-05
8.43645e-05
8.91352e-05
8.39779e-05
7.9673e-05
7.60319e-05
8.08594e-05
8.40928e-05
8.08223e-05
7.86431e-05
7.56994e-05
7.54688e-05
7.62347e-05
7.74723e-05
0.000536544
0.000392386
5.25123e-05
-8.44821e-05
8.97979e-06
0.000120015
0.000135613
0.000102242
8.12483e-05
8.73343e-05
9.80556e-05
9.85616e-05
9.79185e-05
9.72172e-05
9.58485e-05
9.88713e-05
0.000102014
0.000100741
0.000100854
0.000103776
0.000104138
0.000103457
0.000104802
0.000106287
0.000106886
0.000107836
0.00010939
0.000110641
0.000111206
0.000112012
0.000112809
0.000113324
0.000114068
0.000114979
0.000115576
0.000116005
0.000116678
0.000116977
0.000116588
0.000116513
0.000116722
0.000116098
0.000114686
0.00011472
0.000115699
0.000113013
0.000109588
0.00011186
0.000113985
0.000107113
0.000103906
0.000109795
0.000110137
0.000102141
9.96687e-05
0.000106483
0.000104134
9.52161e-05
9.41267e-05
9.77942e-05
9.95962e-05
9.37294e-05
9.0111e-05
9.00767e-05
9.35215e-05
8.88767e-05
8.53527e-05
8.33971e-05
8.66797e-05
8.4281e-05
8.1436e-05
7.75435e-05
7.80616e-05
8.17968e-05
8.09102e-05
7.83946e-05
7.46306e-05
7.37118e-05
7.45889e-05
7.55535e-05
5.26738e-05
0.000318987
0.000235789
6.81246e-05
1.23456e-05
6.34335e-05
0.000111088
0.000113936
9.68385e-05
8.98525e-05
9.53703e-05
9.79123e-05
9.81636e-05
9.92973e-05
9.71006e-05
9.78635e-05
0.000102136
0.000102746
0.000101258
0.000102937
0.000104381
0.000103949
0.000104513
0.000106106
0.000107213
0.000107967
0.000109171
0.000110606
0.000111397
0.000112182
0.000113205
0.000114045
0.000114867
0.000115978
0.000116942
0.000117327
0.000117808
0.000118474
0.000118315
0.000117726
0.000118033
0.000118259
0.00011676
0.000115362
0.000116725
0.00011652
0.000112065
0.000110884
0.000114961
0.000112421
0.000106179
0.000108595
0.000110954
0.000104867
0.000101357
0.000105871
0.000104434
9.82253e-05
9.63147e-05
9.65004e-05
9.69326e-05
9.49536e-05
9.09307e-05
9.16162e-05
9.36424e-05
8.78408e-05
8.46654e-05
8.34151e-05
8.63808e-05
8.64626e-05
8.16561e-05
7.80922e-05
7.46203e-05
7.60915e-05
8.0114e-05
8.18823e-05
7.80535e-05
7.4674e-05
7.4646e-05
7.30609e-05
-0.000124875
0.000106582
0.000204457
0.000151848
7.42768e-05
5.40537e-05
8.01659e-05
0.0001006
9.99703e-05
9.29437e-05
9.34593e-05
9.57379e-05
9.67101e-05
9.97643e-05
9.94288e-05
9.76794e-05
0.000100528
0.000103314
0.00010228
0.000102592
0.000104258
0.000104625
0.000104915
0.000106373
0.00010813
0.000109322
0.000110391
0.000111885
0.000113029
0.000113949
0.000115149
0.000116391
0.000117403
0.000118546
0.000119893
0.000120584
0.000120742
0.000121326
0.000121709
0.00012084
0.000120538
0.000121087
0.000120466
0.000118105
0.000117938
0.000119248
0.00011634
0.000112626
0.000114726
0.000115113
0.000109293
0.000110186
0.000113875
0.00010649
0.000100787
0.000106309
0.000106302
9.94468e-05
9.65338e-05
9.79997e-05
9.82849e-05
9.75262e-05
8.9113e-05
8.84652e-05
9.50954e-05
9.17066e-05
8.51241e-05
8.10785e-05
8.10478e-05
8.67573e-05
8.41891e-05
8.2048e-05
7.80874e-05
7.23334e-05
7.25179e-05
7.83158e-05
8.00076e-05
7.74809e-05
7.79439e-05
7.43698e-05
-3.28966e-05
6.55785e-06
0.00010444
0.00014297
0.000116439
8.08e-05
7.66237e-05
9.13353e-05
0.000100212
9.7452e-05
9.59935e-05
9.64765e-05
9.54976e-05
9.8063e-05
0.000100285
9.85527e-05
9.90022e-05
0.000102342
0.00010282
0.000102591
0.000103923
0.000104982
0.000105423
0.000106429
0.000108214
0.000109882
0.000111115
0.000112663
0.000114201
0.00011545
0.000116832
0.000118458
0.000119838
0.000120902
0.000122229
0.000123345
0.000123509
0.000123609
0.000124336
0.000123984
0.000123175
0.000123233
0.000123447
0.000121513
0.000119941
0.00012093
0.000119636
0.000116221
0.000116853
0.000117798
0.000110859
0.000109164
0.000117302
0.000112602
0.000101236
0.000103769
0.000108496
0.000103704
9.62821e-05
9.49025e-05
9.64396e-05
0.000101655
9.379e-05
8.53023e-05
8.89548e-05
9.23716e-05
8.83113e-05
8.50109e-05
7.81146e-05
8.11465e-05
8.07717e-05
8.0065e-05
8.18347e-05
7.76628e-05
7.1114e-05
7.16078e-05
7.55939e-05
7.54986e-05
7.83696e-05
7.76481e-05
9.64843e-05
2.47677e-05
4.6425e-05
9.05562e-05
0.000111103
9.73932e-05
8.33315e-05
8.44352e-05
9.28723e-05
9.56957e-05
9.62156e-05
9.7908e-05
9.68057e-05
9.76198e-05
0.000100971
0.000100755
9.92768e-05
0.000101121
0.000102384
0.000102275
0.000103206
0.000104925
0.00010622
0.000107356
0.00010902
0.000110914
0.000112347
0.000113847
0.000115568
0.000117098
0.000118544
0.000120262
0.000122026
0.000123262
0.000124371
0.000125659
0.00012624
0.000125999
0.000126435
0.000126737
0.000126067
0.000125654
0.000126003
0.000124742
0.000123069
0.000123608
0.000121943
0.000118171
0.000119146
0.000122853
0.000116173
0.000107834
0.000115356
0.000118186
0.000107327
0.00010151
0.000105271
0.00010742
0.000101881
9.5092e-05
9.07786e-05
9.74631e-05
9.78436e-05
9.07526e-05
8.6544e-05
8.89977e-05
8.49083e-05
8.57951e-05
8.14445e-05
8.12298e-05
8.09794e-05
7.75819e-05
7.91202e-05
8.11737e-05
7.77562e-05
7.31427e-05
7.34185e-05
7.23218e-05
7.37052e-05
7.64736e-05
0.000143757
8.55079e-05
5.72625e-05
6.79016e-05
9.1987e-05
9.99034e-05
9.39879e-05
8.94229e-05
9.22979e-05
9.48817e-05
9.53441e-05
9.75934e-05
9.72077e-05
9.64061e-05
9.9542e-05
0.00010181
0.000100905
0.000101439
0.00010277
0.000102983
0.000103302
0.000104787
0.000106652
0.000108301
0.000110147
0.000112388
0.00011432
0.000116021
0.000117968
0.000119932
0.000121683
0.000123404
0.000125275
0.00012678
0.000127762
0.000128833
0.000129789
0.000129748
0.000129718
0.000130019
0.000129447
0.000128961
0.000129206
0.00012757
0.000125612
0.000127663
0.000126847
0.000120211
0.000118763
0.000125439
0.000123652
0.000111872
0.000112849
0.000118293
0.000114591
0.000105433
0.000101334
0.000104326
0.000106225
0.000100787
9.22995e-05
9.22315e-05
9.23097e-05
9.23435e-05
8.71627e-05
9.02048e-05
8.57753e-05
8.26767e-05
8.06829e-05
7.9552e-05
8.02506e-05
7.77882e-05
7.56612e-05
7.68981e-05
7.90492e-05
7.79057e-05
7.66731e-05
7.5575e-05
7.33826e-05
7.4827e-05
0.000113935
0.000110772
8.50202e-05
6.91884e-05
7.62708e-05
8.89041e-05
9.39174e-05
9.25212e-05
9.36577e-05
9.59523e-05
9.61396e-05
9.84611e-05
9.93165e-05
9.71378e-05
9.76185e-05
0.000100072
0.000100407
0.000100681
0.000102123
0.000103297
0.000103911
0.00010512
0.00010703
0.000108905
0.000110699
0.000112897
0.000115156
0.000117095
0.000119108
0.000121275
0.000123382
0.000125288
0.00012717
0.000128912
0.00013009
0.000130974
0.000131972
0.000132422
0.000132627
0.000133036
0.000132316
0.000131867
0.000133105
0.000131402
0.000126487
0.00012883
0.000132947
0.000125766
0.000118614
0.000124582
0.000128445
0.000117784
0.000113637
0.0001162
0.00011826
0.000112375
0.000102933
9.95558e-05
0.000104598
0.000103482
9.62645e-05
9.40533e-05
8.82123e-05
9.06982e-05
8.56288e-05
8.64553e-05
8.75716e-05
8.25109e-05
7.99908e-05
7.91152e-05
7.93029e-05
7.87839e-05
7.68079e-05
7.42638e-05
7.42179e-05
7.66607e-05
7.58543e-05
7.67117e-05
7.45323e-05
7.33584e-05
7.32974e-05
9.53653e-05
9.58253e-05
8.43081e-05
7.92004e-05
8.41041e-05
9.11008e-05
9.27324e-05
9.35161e-05
9.55954e-05
9.52567e-05
9.69323e-05
9.99128e-05
9.93933e-05
9.85749e-05
9.97671e-05
0.000100246
0.000100092
0.000100906
0.00010251
0.000103867
0.00010532
0.000107444
0.000109763
0.000111864
0.000113988
0.000116368
0.000118594
0.000120758
0.000122994
0.000125287
0.000127475
0.000129443
0.000131279
0.000132782
0.000133844
0.00013472
0.000135095
0.000135502
0.000136559
0.000135582
0.000133911
0.000136106
0.000137693
0.000129998
0.000126882
0.000135543
0.000133987
0.000121679
0.000122302
0.000130707
0.000123952
0.000115845
0.0001121
0.000116671
0.00011892
0.0001112
9.82168e-05
9.92552e-05
0.000102684
9.95115e-05
9.85574e-05
8.59178e-05
8.51291e-05
8.67588e-05
8.4075e-05
8.82706e-05
8.57407e-05
8.0612e-05
7.88807e-05
7.86618e-05
7.86792e-05
7.86982e-05
7.69507e-05
7.25089e-05
7.49224e-05
7.45849e-05
7.61764e-05
7.64904e-05
7.31984e-05
6.39564e-05
7.62156e-05
8.79092e-05
8.97838e-05
8.64118e-05
8.61208e-05
9.07808e-05
9.36781e-05
9.44622e-05
9.66494e-05
9.61053e-05
9.55221e-05
9.80158e-05
9.91819e-05
9.90123e-05
9.99987e-05
0.000101021
0.00010116
0.000101376
0.000102619
0.000104265
0.000105883
0.000107954
0.000110405
0.000112915
0.000115262
0.000117787
0.000120334
0.000122824
0.000125246
0.000127586
0.000129942
0.000132096
0.000133921
0.000135472
0.000136887
0.000138173
0.000138322
0.000138074
0.000139943
0.000139759
0.000136088
0.000135783
0.000142092
0.000137842
0.000126633
0.000132193
0.000139775
0.000129036
0.000120631
0.00012847
0.000130403
0.0001244
0.000111209
0.000108996
0.000115743
0.000118818
0.000106495
9.58147e-05
9.41431e-05
9.65139e-05
0.000105922
9.62561e-05
8.02669e-05
8.13057e-05
7.87511e-05
8.23551e-05
8.60663e-05
8.32742e-05
7.98078e-05
7.80912e-05
7.82063e-05
7.92427e-05
8.16086e-05
7.61249e-05
7.5453e-05
7.45726e-05
7.47777e-05
7.80399e-05
7.71687e-05
7.59229e-05
7.28169e-05
8.03689e-05
8.68875e-05
8.86135e-05
8.7905e-05
9.01838e-05
9.31431e-05
9.38568e-05
9.62913e-05
9.72343e-05
9.60002e-05
9.6935e-05
9.8044e-05
9.79065e-05
9.83546e-05
9.9616e-05
0.000100691
0.000101279
0.000102342
0.000104076
0.000105925
0.000108023
0.000110414
0.000112979
0.000115459
0.000117978
0.000120646
0.000123443
0.000126308
0.000128921
0.000131444
0.000133955
0.000136095
0.000137559
0.000138866
0.000140903
0.000141785
0.000140508
0.000142178
0.000144045
0.000140851
0.000134798
0.00014052
0.000145207
0.000132785
0.000128098
0.000138639
0.000136913
0.000123807
0.000121661
0.000127507
0.000134028
0.000122008
0.00010755
0.000106478
0.000114707
0.000117232
0.000106847
9.09083e-05
8.25108e-05
9.48029e-05
0.000107502
9.11636e-05
8.22414e-05
7.81685e-05
7.6628e-05
8.05442e-05
8.28255e-05
8.16976e-05
7.76496e-05
7.5206e-05
7.39097e-05
7.8589e-05
7.77354e-05
7.63863e-05
7.57308e-05
7.28259e-05
7.35529e-05
7.66879e-05
8.63954e-05
8.00481e-05
8.1165e-05
8.57913e-05
8.94939e-05
8.97349e-05
9.00537e-05
9.20095e-05
9.22352e-05
9.39958e-05
9.62888e-05
9.61747e-05
9.68294e-05
9.82174e-05
9.85366e-05
9.8466e-05
9.9004e-05
0.000100226
0.000101389
0.000102667
0.000104498
0.000106531
0.000108701
0.000111063
0.000113717
0.000116488
0.000119206
0.000121965
0.0001248
0.000127926
0.00013091
0.000133523
0.000136139
0.000138789
0.000140508
0.000141064
0.000142814
0.000144977
0.000143182
0.000142434
0.000145775
0.000146885
0.000138246
0.00013643
0.000145511
0.000140394
0.000129206
0.000134521
0.000140525
0.000133333
0.00012018
0.000116425
0.000129779
0.000131549
0.000116752
0.000105604
0.000102089
0.000111941
0.000118587
0.00010539
8.52832e-05
7.56592e-05
9.6021e-05
9.94697e-05
8.81082e-05
8.15944e-05
7.73041e-05
7.63748e-05
7.84767e-05
8.247e-05
8.16391e-05
7.90404e-05
7.506e-05
7.52617e-05
7.65243e-05
7.54444e-05
7.64695e-05
7.54723e-05
7.1964e-05
7.17956e-05
8.75208e-05
8.47371e-05
8.32677e-05
8.50216e-05
8.85183e-05
9.05419e-05
9.09209e-05
9.23236e-05
9.20459e-05
9.23899e-05
9.45172e-05
9.5197e-05
9.56882e-05
9.71293e-05
9.83554e-05
9.89821e-05
9.93781e-05
0.000100296
0.000101549
0.000102945
0.000104841
0.000107044
0.000109391
0.000111777
0.000114308
0.000117172
0.000120196
0.000123316
0.000126293
0.000129449
0.000132729
0.000135499
0.000137845
0.000140655
0.000143244
0.000143595
0.000144072
0.000147205
0.000146839
0.000143085
0.000144094
0.000148596
0.000144092
0.000136637
0.000142818
0.000143956
0.000131907
0.000129696
0.000137449
0.000142923
0.000130251
0.00011298
0.00011824
0.000128782
0.000122715
0.000113927
9.8539e-05
9.86002e-05
0.000112533
0.000112066
0.000102285
7.72357e-05
7.66754e-05
9.2836e-05
9.20051e-05
8.51531e-05
8.04727e-05
7.7532e-05
7.50608e-05
7.82027e-05
8.05922e-05
8.0008e-05
7.91375e-05
7.69589e-05
7.82647e-05
7.78797e-05
7.74361e-05
7.96592e-05
7.9279e-05
7.59301e-05
8.59476e-05
8.73458e-05
8.56907e-05
8.49924e-05
8.59353e-05
8.75964e-05
8.83833e-05
9.04981e-05
9.12895e-05
9.13541e-05
9.30074e-05
9.41969e-05
9.46356e-05
9.55057e-05
9.66465e-05
9.78423e-05
9.87956e-05
9.99414e-05
0.000101408
0.000102914
0.000104746
0.000106915
0.000109405
0.000112032
0.00011471
0.000117593
0.000120742
0.00012421
0.000127606
0.000130872
0.000134347
0.000137496
0.000139541
0.000141712
0.000144925
0.000145975
0.000144821
0.000147409
0.000149869
0.000145968
0.000143665
0.00014674
0.00014632
0.000138069
0.000141561
0.000148135
0.000137719
0.00012638
0.000126291
0.000141844
0.000141316
0.000120049
0.000112817
0.000123612
0.000124062
0.000121425
0.000103499
9.27232e-05
0.000104933
0.000106849
0.000108382
9.49665e-05
7.29869e-05
7.83536e-05
8.71643e-05
8.59171e-05
8.129e-05
7.80359e-05
7.31531e-05
7.29879e-05
7.71591e-05
7.65393e-05
7.79637e-05
7.55972e-05
7.44453e-05
7.54617e-05
7.37843e-05
7.3639e-05
7.5874e-05
7.64516e-05
8.33022e-05
8.64972e-05
8.66134e-05
8.62314e-05
8.61307e-05
8.66299e-05
8.63884e-05
8.79392e-05
8.95629e-05
9.02037e-05
9.17872e-05
9.35474e-05
9.45697e-05
9.54895e-05
9.63941e-05
9.75328e-05
9.86726e-05
9.99912e-05
0.000101769
0.000103648
0.00010568
0.000107835
0.000110291
0.00011302
0.000115867
0.00011889
0.000122063
0.000125518
0.000129108
0.00013241
0.000135814
0.000139405
0.000141588
0.000142667
0.000145604
0.000148063
0.000145981
0.000146139
0.000150182
0.000148535
0.000145719
0.000146928
0.000148112
0.000137369
0.000135426
0.000148929
0.000149506
0.000135048
0.000118081
0.000130867
0.000144141
0.000128684
0.000108629
0.000112113
0.000122439
0.000129584