/*--------------------------------*- C++ -*----------------------------------*\
| =========                 |                                                 |
| \\      /  F ield         | OpenFOAM: The Open Source CFD Toolbox           |
|  \\    /   O peration     | Version:  2412                                  |
|   \\  /    A nd           | Website:  www.openfoam.com                      |
|    \\/     M anipulation  |                                                 |
\*---------------------------------------------------------------------------*/
FoamFile
{
    version     2.0;
    format      ascii;
    arch        "LSB;label=32;scalar=64";
    class       volScalarField;
    location    "7.15";
    object      p_rgh;
}
// * * * * * * * * * * * * * * * * * * * * * * * * * * * * * * * * * * * * * //

dimensions      [1 -1 -2 0 0 0 0];

internalField   nonuniform List<scalar> 
6400
(
24631.2
24292.4
23738.6
23458
23910.4
25104.6
26385.2
26793.6
25754.1
23609.5
21572.3
21027.7
22596.9
25593.1
28302.1
28987.1
27015.1
23366.1
20142.5
19327.7
21545.2
25606.2
29163.6
30100.4
27812.3
23594.7
19887.9
18834.3
21020.3
25152.1
28842.3
30015.9
28091
24255
20716
19411.6
20941.6
24316.9
27607.1
29057.7
28023.2
25221.5
22239.5
20628
21106.1
23274.4
25921.7
27701.1
27798.1
26273.2
23960.8
22019.3
21370.9
22285.2
24278.2
26356.3
27492.8
27122.4
25426.7
23260
21734.3
21650.9
23069.2
25252.1
27040.8
27475.8
26325.2
24219.9
22308.2
21616.1
22482.2
24388.9
26282.6
27182
26706
25212.7
23486.8
22214.8
21633.9
21500.4
24827.8
25051.4
24695.6
23905.8
23201.6
23254.4
24291.2
25815.7
26836.3
26510
24787.3
22581.4
21277.3
21848.3
24154.1
26915.2
28441.7
27688.4
24964.9
21822.3
20146.1
21002
23953.9
27293.2
29052.4
28187
25202
21844.7
20057.9
20836.9
23672.4
26892.4
28668.5
28067.7
25537.5
22576.4
20831.2
21173.9
23279.8
25899.1
27608.6
27584.8
25980.3
23747.1
22067.8
21736.1
22805.4
24642.3
26300.4
26995.6
26453.8
24995.7
23352.8
22316.3
22374.4
23489.8
25113.8
26439.4
26791.4
25972.4
24385.9
22851.1
22183.8
22753.7
24266.3
25907.3
26784.2
26424.9
25043.1
23412.7
22421.7
22572
23720
25205.1
26262.7
26443.7
25767.9
24563.9
23249.7
21804.9
24376.9
25317.9
25584.3
24954.5
23623.9
22466.5
22443.4
23882.5
26103.2
27723.4
27529.9
25357.2
22346.3
20335.1
20712.5
23466.5
27075.1
29370
28868.1
25736.4
21759.3
19294.4
19845.8
23134.4
27247.5
29779.2
29265.3
26039.2
22005.6
19490.1
19876.1
22841.2
26614.6
29056.1
28885
26345.1
22967
20630.7
20512.4
22508.2
25405.2
27626.5
28088.9
26706.8
24329.2
22216.7
21381.8
22131
23992.5
26008.4
27212.7
27068.3
25687.2
23757.5
22220.1
21829
22787.8
24631.1
26431.9
27255.8
26650.7
24910.1
22946.4
21814.9
22134.9
23735
25736.1
27041
26951.9
25556.4
23656.4
22291.4
22150.9
23226.2
24886
26272.8
26735.4
26064.7
24593.9
22567.2
23598.2
24928.3
25958.4
26167.7
25098.8
23192.2
21660.5
21728.5
23717.4
26637.4
28676.1
28342.6
25532.3
21759.2
19321
19869.2
23293.8
27673.2
30382
29699.1
25910.5
21196.3
18343
19062.7
22952.8
27735.5
30624.2
29977.1
26238.5
21625.3
18783.6
19247.7
22612.7
26864.2
29606.9
29428.3
26613.6
22860.3
20239.7
20048.9
22192.3
25368.1
27865.9
28483
27072.5
24499.7
22111.6
21045.6
21720
23708.8
26002.9
27501.7
27513
26055.6
23846.4
21970.9
21370.1
22369.5
24487.4
26644.2
27704
27081.2
25083.1
22774.1
21407.6
21729.6
23553
25859
27376.3
27301
25735.8
23595.3
22055.9
21893.4
23094.9
24930.8
26377.9
26645.9
25676.8
23805.4
23086.2
23962.2
25312.1
26589.7
26758
25301.1
22852.8
20953.2
21067
23497.5
26988.7
29383.4
28983.6
25737.8
21431.6
18678.6
19299.7
23115.7
27955.2
30924.2
30173.5
26062.3
20981.1
17925.3
18694.7
22820.9
27868.5
30906.7
30240.4
26361.4
21584
18635.7
19078.5
22487.4
26812.2
29631.6
29520.7
26751.6
23000.3
20319.2
20013.5
22035.3
25153.2
27706.5
28480.9
27249.6
24770.9
22324.2
21068.3
21527.5
23405.1
25764.2
27470.7
27710.1
26364.9
24085.9
22003.3
21184.3
22083
24269.3
26612.3
27859.3
27318.3
25263.3
22809.3
21303.1
21564.5
23421.3
25813.8
27411.9
27375
25807.2
23651.6
22113.5
21971.7
23171.9
24903.8
26093.6
26141.3
25179.6
23453.5
23043.5
23818.6
25570.9
27241.9
27432.5
25584.2
22560.5
20248
20353.9
23178
27226.8
30022.3
29652.2
26072.1
21276.8
18156.8
18718.4
22782.7
28015.1
31302.5
30644.6
26386
21022.9
17703.3
18343.6
22510.4
27725.6
30973.9
30474.6
26659.6
21822.2
18711.1
18949.9
22200
26491.4
29434.9
29561.1
27029.3
23386.1
20610.5
20042.2
21768.5
24724.4
27350.4
28402
27501.2
25217.4
22714.9
21181.4
21299.4
22968.1
25367.9
27336
27903.1
26764.7
24462
22152
21041.1
21747.6
23935.9
26454.2
27938.1
27566.1
25537
22975.7
21302.5
21424.1
23222.7
25643.5
27325
27385.6
25901.1
23805.8
22302.6
22152.3
23261.2
24803.4
25837.8
26130.2
24763.1
22929
22392.7
23488.3
25854.1
27947
28130.9
25868.2
22275.3
19570.2
19675.5
22872.1
27438.4
30602.2
30261.7
26385.7
21157.3
17709.6
18207.3
22471.8
28032.9
31598
31041.9
26689.5
21110.8
17565.6
18063.8
22216
27535.7
30961.4
30644.7
26946.2
22104.6
18856.8
18874.8
21920.3
26132.4
29180.8
29559.5
27301.8
23800.9
20944
20101.3
21506.8
24278.2
26968.1
28302.7
27745.3
25668.2
23116.3
21306.9
21083.4
22540.9
24975.3
27194.4
28077.6
27140.9
24822
22304
20923.2
21448.1
23628.8
26295
27985.3
27767.3
25775.3
23139.9
21337.8
21341.6
23074.3
25486.9
27201.5
27319.1
25910
23907.8
22500
22408.5
23501
24951.4
26231.2
26328.5
23922.2
22113.4
21650.5
23237.1
26166.4
28613.1
28768.1
26129.9
22043.2
19006.7
19111.4
22607.3
27580.1
31029
30718.7
26638.8
21112.6
17436.7
17872
22235
27976.7
31711.4
31253.1
26910.5
21266.6
17605.5
17968.4
22008.1
27289.2
30786.4
30641.8
27145.1
22427.5
19141.1
18954.8
21728.1
25752.8
28817.9
29424.9
27487.1
24213.9
21353.5
20269.9
21332.3
23857.8
26543.3
28116.9
27901.1
26069
23527.9
21497.7
20957.6
22186.2
24601.5
27006.2
28160.3
27425.1
25138.3
22486.7
20897.7
21255.8
23385.6
26119.8
27942.5
27851.1
25932
23303.7
21457
21385.9
23030.1
25355.1
27004.2
27110.9
25778
23946.6
22765
22867.6
23967
25502.8
27082.6
25539.2
23404.6
21426.3
21072.1
23028.2
26417.5
29167.8
29310.6
26376.6
21899.7
18597
18679.9
22369.8
27616.5
31270.4
31016
26855
21181.7
17366.5
17711.5
22041.8
27806
31618.5
31286.2
27083.8
21529.8
17842.6
18044.9
21851.2
26949.8
30434
30479.9
27289.4
22822.5
19575.3
19176.2
21594.9
25326.8
28337.4
29168.3
27607.4
24644.6
21846.4
20541.3
21230.4
23449.4
26069
27846.3
27975.9
26429.1
23957.6
21757.9
20921.3
21898.4
24237.4
26762
28146.7
27621
25421.9
22713.1
20972.2
21167.6
23193.9
25913.6
27800.7
27819.9
26019.1
23481.8
21668.8
21553.7
23075.2
25228.8
26722.9
26776.6
25559.4
24010.2
23167.3
23404.6
24415.9
26323.6
26744.3
25602.6
23198.3
20926.2
20564.8
22805.1
26579.5
29585.4
29734.1
26595.5
21847.7
18354.3
18396.1
22171.1
27554.7
31329.9
31153.1
27027.7
21350.6
17481.4
17713
21893.9
27540.4
31349
31164.6
27211.2
21876.3
18238
18261.8
21740.5
26544.3
29948.8
30195.9
27386.1
23261.6
20112.4
19500.1
21512.7
24881.7
27785.8
28828.4
27671.5
25068.2
22379.2
20878.8
21191.4
23073.9
25583.4
27523.9
27980.5
26733.1
24374
22058.1
20961.8
21686.2
23906.6
26487.5
28051.7
27727
25657.1
22961.1
21128.7
21177.8
23062.7
25696
27581.2
27686.3
26034.7
23657.5
21948.3
21821.2
23195.8
25113.6
26393.5
26386.9
25336.7
24114.7
23503.2
23584.5
24306.4
26654
27315.9
25960.8
23066.6
20489.7
20131.3
22603.1
26659.5
29842.2
30006.2
26765.6
21885.3
18293.2
18282.7
22032
27405.7
31205.6
31116.3
27136.3
21599.9
17771.4
17881.7
21811.5
27206.8
30923.2
30890.7
27273.4
22273.5
18762.9
18610.9
21694.6
26109.6
29365.5
29802.4
27417.6
23706
20714.1
19910.9
21497.5
24456.2
27202.3
28422.7
27665.7
25448.1
22913.9
21264.2
21226
22763.7
25121.8
27168.5
27908
26953.7
24745.8
22379.6
21081.7
21570.2
23635.6
26201.4
27878.2
27730.1
25822.2
23211.3
21358.6
21291.4
23008
25486.5
27298.2
27453.9
25970.2
23813.7
22274.1
22168.7
23383.1
25025
26061.7
25991.1
25089.9
24095
23386.9
22190.8
25208.5
27378.8
27941
26170.9
22922.6
20181.1
19849.8
22457.4
26652.9
29915.4
30104.4
26874.1
22011.7
18421.7
18350.7
21962.2
27175.7
30899
30902.1
27172.6
21918.2
18226.4
18214.6
21801.8
26821
30358.4
30472.6
27263.5
22701.6
19395
19080.5
21720.4
25668.1
28709.7
29313
27376.8
24131.9
21353.9
20394.5
21556.3
24073.8
26612.9
27964.4
27583.4
25762.4
23426.5
21685.1
21339.8
22538.1
24705
26791.3
27754.8
27076.1
25056
22712.1
21281.5
21560
23437.2
25913.6
27629.3
27626.5
25909
23454.2
21654.5
21506.2
23033.1
25293.6
26963.3
27133.6
25831.4
23945.9
22629.9
22573.4
23621.5
24964.2
25730.1
25553.6
24757.5
23779.3
21310.1
23281.6
25707.5
27841.1
28218.9
26253.6
22866.7
20072.2
19751
22375.4
26558.4
29801.3
30023.4
26913.5
22217.1
18729.7
18594.6
21965.2
26878.2
30428.8
30524.5
27136.2
22288.7
18820.6
18691.2
21862.9
26402.6
29685.2
29934.7
27184.5
23139.4
20101.2
19644.6
21814.4
25241.1
28014.6
28753.3
27267.4
24519.4
22000.4
20926.7
21685.1
23752.1
26045.4
27475.6
27429.2
25997.3
23894
22122.5
21527.2
22406
24350.6
26408.4
27528.2
27096.7
25293
23042.1
21551.7
21653.4
23317.1
25635.4
27317.4
27424.5
25917.4
23681
22001.6
21807.4
23131.2
25122.8
26594.1
26748.8
25636.5
24056.4
22998.2
23003.9
23875.8
24894.8
25364.4
25113.7
24403.6
22253.7
22100.8
23392.7
25778.9
27937.1
28298.6
26304.4
22920.8
20157.4
19834.2
22368.6
26393.9
29514
29765
26870.6
22477.8
19193.8
19003.3
22050
26539.9
29826.5
30002.6
27021.7
22682.2
19516.3
19286.5
21997.8
25982.1
28945.1
29305.6
27035.5
23557
20839.1
20273
21975.7
24856.6
27320.9
28153.3
27092.1
24843.8
22616.4
21479.2
21879.4
23511
25531.8
26982.1
27209.7
26138.6
24290.5
22553.1
21778.8
22375.2
24077.5
26040.1
27240.3
27014.9
25444.7
23352.1
21877
21844
23280.5
25381.4
26960.6
27137.5
25849.7
23880.3
22379.6
22174.6
23291.3
24979.8
26212.8
26329.7
25409.5
24149.4
23356.3
23415.2
24094.3
24794.2
25054.8
24870.6
24441.7
22382
21924
23193
25698.4
27880.4
28230.1
26289.1
23045.9
20422.6
20108.8
22458.6
26180.4
29064
29325.3
26728.5
22771
19795.2
19572
22229.8
26187.2
29118.8
29348.3
26818.3
23069.3
20280.9
19983.4
22215.4
25590.3
28173.7
28605.6
26809.3
23923.6
21572.2
20944.3
22210
24543.7
26663.9
27534.5
26847.2
25079.1
23169.8
22031.4
22140.9
23372
25100.3
26503.3
26926
26170.4
24593.3
22959.4
22090.3
22454.7
23902.6
25702.4
26899.5
26828.7
25500.7
23628
22245.2
22126.1
23330.9
25163.4
26574.6
26778.6
25710.1
24044.3
22769.9
22586.2
23499.5
24867
25840.2
25907.1
25174.6
24225.2
23675.8
23767.4
24270.1
24746
24998.8
26528
23828.4
22117.3
21761.1
23173.3
25617.2
27654.5
27961.8
26178.7
23235
20867.8
20572.8
22641.6
25917.1
28457.6
28715.2
26495.6
23094.9
20521.3
20284.2
22495.2
25825.2
28323.4
28581.4
26534.7
23441.7
21093.7
20761.6
22508.6
25237.9
27392.9
27853.8
26510.9
24227.5
22280
21642.1
22514.5
24314.1
26061.6
26910.1
26533.7
25215.4
23646.4
22574
22469.2
23342.3
24760.1
26045.1
26578.8
26089.3
24797.8
23338
22459.7
22643.6
23825.5
25396.6
26509.9
26544.2
25466.2
23869.5
22649.2
22488.1
23458.5
24980.5
26169.9
26365.6
25513.9
24175.6
23159.1
23018.2
23734.7
24780
25492.7
25508.4
24951.3
24282.5
23943.4
24067.6
24449.2
24859.8
27347.3
25382.4
23562.2
22164
22007
23311.7
25465
27246.3
27522.4
25995
23474.5
21447
21174.1
22890.4
25619.8
27746.3
27993.1
26203.1
23434.5
21318.8
21079.1
22813.5
25468.1
27492.4
27761.1
26203.4
23787.7
21907.4
21566.6
22846.2
24932.8
26642.3
27097.9
26169.9
24466.1
22932.1
22326.5
22861.2
24164.3
25534
26311.3
26178.3
25262.6
24036.6
23083.4
22838.7
23405.5
24511
25623.5
26192.9
25917.8
24913.1
23679.2
22862.4
22914.2
23830.2
25127.6
26095.8
26193
25362.5
24076
23065.4
22896.4
23638.1
24830
25768.3
25932.8
25288.7
24280
23527.9
23437.6
23969.4
24711.5
25184.5
25156.8
24757.4
24332.4
24176
24326.8
24648.8
26700.8
26038.8
25021.7
23668
22591.3
22471.1
23538.9
25297.1
26733.7
26934.5
25689.1
23676.8
22086.9
21895.6
23253.5
25375.4
27007.3
27183.9
25809.7
23706.1
22108.3
21925.5
23217.9
25193.5
26704.2
26923.6
25800.8
24038.9
22647.7
22358
23241.8
24732.1
25990.4
26381.1
25783.3
24594.6
23467.5
22952.6
23242.8
24126
25133.8
25784.3
25797.9
25201.8
24296.4
23513.6
23223.7
23568.4
24388
25283.5
25800.9
25659.9
24913.3
23940.8
23261.4
23253
23932.9
24932.5
25695.9
25795.8
25183
24217.6
23456.7
23324.8
23866.3
24731.4
25401.6
25508.7
25047.1
24349.4
23852.6
23817.2
24185.5
24659.2
24926.7
24869.9
24612.6
24394.6
24368.4
24515.8
25385.1
25558.2
25436.1
24847.6
23944.4
23225.9
23188.7
23951
25120.8
26007.5
26046.8
25170
23870.7
22918.7
22891.8
23818.9
25156.8
26117.4
26141.8
25229.9
23929.2
22998.3
22956.3
23791.8
24993.4
25869.5
25952.1
25245.5
24189.3
23381.2
23235.3
23774.6
24657
25393.9
25621.5
25273
24576.4
23906.6
23585.4
23736.1
24250.1
24861.1
25278.7
25317
24970.2
24408.7
23902.2
23697.5
23901.2
24420.6
24998
25333.8
25243.1
24762.2
24142.1
23719.1
23729.5
24170.9
24797.5
25256.7
25292.9
24896.2
24305.9
23865.3
23816.9
24162.1
24672.4
25040.1
25069.3
24785.1
24397.1
24148.8
24161.4
24373.6
24609.4
24713.9
24656.9
24533.1
24463.4
24489.2
24526.9
24656.7
24759
24753.2
24581.4
24325.7
24153.2
24189.1
24425.6
24721.5
24904.2
24858.1
24600
24272.9
24080
24140.9
24417.6
24737.7
24921.3
24865.7
24607.7
24294.7
24114.8
24167
24409.3
24688.4
24852.9
24821.4
24625.2
24378.1
24220.2
24229.4
24385.8
24590.7
24736.2
24757
24656
24493.3
24351
24296.7
24349
24476.2
24612.6
24696.4
24691.1
24601
24466.9
24351.5
24315
24379.5
24514.8
24648.5
24712.3
24670.7
24543.1
24393.2
24306.9
24335.2
24462.7
24611.6
24699.9
24680.8
24569
24428
24342.6
24360.7
24464
24580.4
24642.7
24622.9
24544.3
24460.2
24424.3
24450.5
24508.1
24549.6
24552.5
24527.7
24505.7
24506.5
5.40425
8.96666
9.39149
7.30187
5.39132
9.22861
11.5935
8.42662
4.50444
9.61119
13.1283
9.79637
4.76181
9.4538
12.173
8.84634
3.86727
8.76041
12.1351
9.28621
3.90189
7.60676
10.0516
7.81339
3.2433
6.47044
9.18747
7.75706
3.43156
5.0538
6.98259
6.36445
3.40128
3.85351
5.83096
6.20767
4.25827
2.71418
4.20329
5.08472
4.47454
2.61059
3.24133
4.87037
5.42738
3.8715
2.7132
4.52399
5.76216
4.71745
2.56769
4.64816
6.61036
5.85389
2.95713
4.63037
6.69683
6.06358
3.0041
4.65266
7.12181
6.7068
3.4898
4.71547
6.78187
6.19616
3.18351
4.19479
5.92749
5.2553
2.6797
3.46361
4.35635
3.44182
1.67458
2.37228
2.44297
1.57548
1.439
1.30418
-0.000105093
8.35301e-05
0.0002418
0.00037285
0.000299381
6.36633e-05
-0.000167934
-0.000270168
-0.000143822
0.000126432
0.000386473
0.000484356
0.000342664
4.72801e-05
-0.000208353
-0.000290421
-0.000131843
0.0001574
0.00041459
0.000496861
0.000353042
7.463e-05
-0.000153431
-0.000219997
-8.37186e-05
0.000157847
0.000367334
0.00044496
0.000349453
0.000144354
-3.47361e-05
-0.000110603
-4.50737e-05
0.000112998
0.0002664
0.000360188
0.000341886
0.000225847
9.15381e-05
-2.93286e-06
-2.12938e-05
4.18891e-05
0.000155555
0.000260709
0.000321073
0.00029771
0.000194975
7.48427e-05
-1.55314e-05
-2.51746e-05
5.9661e-05
0.000180922
0.000288441
0.00031748
0.00024157
0.000101306
-1.91774e-05
-6.06882e-05
4.53406e-06
0.000130056
0.000244414
0.000285453
0.000224152
9.69765e-05
-1.02565e-05
-4.71378e-05
6.41299e-06
0.000104308
0.000184951
0.000202128
0.000149569
6.90028e-05
2.01761e-05
2.37416e-05
6.79808e-05
0.000107887
0.000117374
9.34277e-05
6.80067e-05
7.08231e-05
2.03346e-05
5.87769e-05
0.000126879
0.000182104
0.000169383
9.74193e-05
9.74104e-06
-3.8313e-05
-6.81173e-06
8.19564e-05
0.00018099
0.00022705
0.0001921
0.000101702
6.6485e-06
-3.27432e-05
1.07669e-05
0.000105907
0.000204062
0.000243743
0.000205976
0.000121681
3.82254e-05
8.07432e-06
4.68834e-05
0.000124425
0.000202342
0.000238158
0.000214641
0.000155245
9.30215e-05
6.12486e-05
7.60431e-05
0.000121383
0.000177385
0.000216134
0.000218556
0.000187732
0.000142333
0.000105372
9.24169e-05
0.000105594
0.000139966
0.000179601
0.000205284
0.000203262
0.000173787
0.000129976
9.33033e-05
8.18923e-05
0.000102016
0.000141192
0.000181252
0.00019575
0.00017351
0.000127734
8.04766e-05
5.93734e-05
7.45817e-05
0.000112218
0.000152276
0.000168841
0.000151448
0.000111904
7.05345e-05
5.10622e-05
6.23652e-05
9.16524e-05
0.000119591
0.000128023
0.000113282
8.68975e-05
6.69262e-05
6.46102e-05
7.67425e-05
9.01622e-05
9.34644e-05
8.5826e-05
7.70971e-05
7.53735e-05
8.73378e-05
3.18751e-05
1.95027e-05
4.98943e-05
0.000105796
0.00014768
0.000151578
0.000113579
6.35479e-05
2.14354e-05
2.33353e-05
6.30828e-05
0.000122176
0.000168017
0.000167799
0.000128856
8.02097e-05
4.18097e-05
5.01975e-05
8.96513e-05
0.000140325
0.000179115
0.000176713
0.000145929
0.000107534
7.90241e-05
8.24593e-05
0.000113235
0.00014781
0.000180384
0.000189196
0.000173949
0.000143158
0.000115752
0.000104942
0.000116272
0.000141389
0.000169121
0.000186706
0.000186338
0.000169235
0.000144171
0.000121848
0.000113209
0.000121537
0.000142171
0.000166165
0.000179524
0.000174455
0.000152802
0.000122086
0.000101165
0.000101547
0.00011916
0.000140838
0.000158378
0.000154131
0.000133826
0.000108877
8.73105e-05
8.41327e-05
9.61451e-05
0.000116461
0.000132523
0.000130371
0.000114418
9.30287e-05
7.67032e-05
7.36303e-05
8.40471e-05
9.77611e-05
0.000103866
9.82977e-05
8.67421e-05
7.80972e-05
7.74774e-05
8.2139e-05
8.49281e-05
8.28676e-05
7.9028e-05
0.000111283
8.71983e-05
6.3276e-05
5.37148e-05
6.37934e-05
8.82198e-05
0.000117014
0.000127129
0.000111657
8.52621e-05
5.76934e-05
5.61965e-05
7.40312e-05
0.000105873
0.000137349
0.000144021
0.000127048
0.000100049
7.3521e-05
7.73584e-05
9.91799e-05
0.000129443
0.000155383
0.000156257
0.000142184
0.000123283
0.000105776
0.000104916
0.000120393
0.000138771
0.000158121
0.000164929
0.000161718
0.00015314
0.000140718
0.000133099
0.000134681
0.000141897
0.00015256
0.000161334
0.000164874
0.000162985
0.000155097
0.000143909
0.000135515
0.000133963
0.000138623
0.000148402
0.000155478
0.000155457
0.000147792
0.000132893
0.000116742
0.000111543
0.000118733
0.00013066
0.000141861
0.000138532
0.000127212
0.000113465
9.85933e-05
9.4813e-05
9.8415e-05
0.000106556
0.000115998
0.000115303
0.000107409
9.6667e-05
8.66253e-05
8.31258e-05
8.54321e-05
9.0549e-05
9.31687e-05
9.06715e-05
8.51215e-05
8.06405e-05
8.00182e-05
8.17976e-05
8.26088e-05
8.08699e-05
8.75612e-05
9.62117e-05
9.48713e-05
8.62873e-05
7.61966e-05
7.01688e-05
7.5707e-05
8.82034e-05
9.89215e-05
0.000104924
9.97157e-05
9.20132e-05
8.50647e-05
8.38693e-05
9.45099e-05
0.000109078
0.000119018
0.00012255
0.000115216
0.000108255
0.000105685
0.000108802
0.000121304
0.00013149
0.000136643
0.000139168
0.000136438
0.000132704
0.000132252
0.000132308
0.000136292
0.000141499
0.000146857
0.000152021
0.000154093
0.00015327
0.000151379
0.000148796
0.00014721
0.000147318
0.000149099
0.000152334
0.000155243
0.000155706
0.000153018
0.000148137
0.000142175
0.000138526
0.000138016
0.000139875
0.000142974
0.000143354
0.000138088
0.000130252
0.000123611
0.000120197
0.000123078
0.000124648
0.000124363
0.000121998
0.000116403
0.00011058
0.000105143
0.000101296
0.000101176
0.000101958
0.000102075
0.000100537
9.63799e-05
9.16077e-05
8.80125e-05
8.68625e-05
8.73929e-05
8.75406e-05
8.60657e-05
8.34131e-05
8.1468e-05
8.12651e-05
8.19417e-05
8.14538e-05
7.11201e-05
8.31061e-05
9.16969e-05
9.47894e-05
9.15603e-05
8.37465e-05
7.77392e-05
7.68581e-05
8.23078e-05
9.27554e-05
0.000101092
0.000105172
0.00010323
9.70142e-05
9.35167e-05
9.48104e-05
0.000101703
0.000112669
0.000120182
0.000123152
0.00012111
0.0001165
0.000116073
0.000119904
0.000124796
0.000131339
0.00013684
0.000140429
0.000142119
0.00014102
0.000139781
0.000139537
0.000141181
0.000145188
0.000149863
0.000153641
0.000155752
0.000155511
0.0001535
0.000150828
0.000148698
0.000148279
0.000149722
0.000151958
0.000153433
0.000152883
0.000149448
0.000144368
0.000139339
0.000135977
0.00013579
0.000137648
0.000138523
0.000136981
0.000132228
0.000125188
0.00012024
0.000117947
0.000116751
0.000116961
0.000116481
0.000114796
0.000111248
0.000106269
0.000101933
9.89871e-05
9.7639e-05
9.72859e-05
9.63734e-05
9.42737e-05
9.12331e-05
8.8371e-05
8.6588e-05
8.57868e-05
8.51814e-05
8.40561e-05
8.26516e-05
8.17765e-05
8.18307e-05
8.17259e-05
7.28007e-05
7.76051e-05
8.32465e-05
8.84396e-05
9.11535e-05
8.99449e-05
8.64955e-05
8.30186e-05
8.23444e-05
8.64424e-05
9.30598e-05
0.000100092
0.000104537
0.000104555
0.000102361
0.000100108
0.000100606
0.000105839
0.000113152
0.000120239
0.000124312
0.000123987
0.000122001
0.000121259
0.000123338
0.000127323
0.000132373
0.000137475
0.00014169
0.00014376
0.000144281
0.0001441
0.000144211
0.000145631
0.000148253
0.000151372
0.000154209
0.000155893
0.00015606
0.000154893
0.000152968
0.000151176
0.000150268
0.000150378
0.000151034
0.000151411
0.000150442
0.000147815
0.000143895
0.000139543
0.000136314
0.000134996
0.000134842
0.00013484
0.000133397
0.000129248
0.000123842
0.000119887
0.000116538
0.000114656
0.00011358
0.000112671
0.000111006
0.000108017
0.000104298
0.000100616
9.77055e-05
9.5926e-05
9.47806e-05
9.35671e-05
9.17768e-05
8.95292e-05
8.73812e-05
8.57964e-05
8.48027e-05
8.40095e-05
8.3127e-05
8.23099e-05
8.2043e-05
8.19812e-05
7.89747e-05
7.98248e-05
8.14924e-05
8.42858e-05
8.72004e-05
8.88434e-05
8.89497e-05
8.78921e-05
8.69693e-05
8.80053e-05
9.10877e-05
9.57658e-05
0.000100608
0.000103777
0.000105121
0.000105063
0.000104949
0.000106771
0.000110618
0.000115881
0.000121091
0.000124335
0.000125313
0.000125239
0.000126462
0.000128693
0.000131956
0.000135894
0.000139961
0.000143215
0.000145396
0.000146662
0.000147438
0.0001484
0.000149883
0.000151811
0.000153878
0.000155588
0.00015652
0.000156508
0.000155649
0.000154299
0.000152954
0.000151937
0.000151287
0.000150788
0.000149933
0.00014831
0.000145783
0.000142467
0.000139005
0.000136168
0.000134145
0.000132872
0.00013172
0.000129466
0.00012582
0.000122079
0.000118395
0.000115379
0.000113062
0.000111273
0.000109576
0.000107421
0.000104722
0.000101697
9.87404e-05
9.62797e-05
9.44009e-05
9.28966e-05
9.14095e-05
8.97324e-05
8.79407e-05
8.62905e-05
8.50104e-05
8.40964e-05
8.337e-05
8.27145e-05
8.23675e-05
8.22857e-05
8.1885e-05
8.19522e-05
8.22103e-05
8.34046e-05
8.52716e-05
8.70842e-05
8.84088e-05
8.90908e-05
8.94223e-05
9.03153e-05
9.21689e-05
9.50797e-05
9.86569e-05
0.000101963
0.000104553
0.000106286
0.000107437
0.000108977
0.000111402
0.000114812
0.000118898
0.000122694
0.000125431
0.000127138
0.000128761
0.000130753
0.000133314
0.000136394
0.000139804
0.000143044
0.000145765
0.000147858
0.000149408
0.000150711
0.000152043
0.000153501
0.000155026
0.000156403
0.000157358
0.000157699
0.000157391
0.000156511
0.000155335
0.000154095
0.000152904
0.000151749
0.000150446
0.000148766
0.000146597
0.000143911
0.000140888
0.000137906
0.000135175
0.000132837
0.000130875
0.000128766
0.000125966
0.000122767
0.000119423
0.000116284
0.000113506
0.0001111
0.000108942
0.000106756
0.000104385
0.000101837
9.92353e-05
9.67912e-05
9.46533e-05
9.2832e-05
9.12164e-05
8.96739e-05
8.81429e-05
8.66664e-05
8.53745e-05
8.43668e-05
8.36315e-05
8.30608e-05
8.27168e-05
8.2621e-05
8.29521e-05
8.28644e-05
8.28895e-05
8.35578e-05
8.48551e-05
8.64325e-05
8.79706e-05
8.92842e-05
9.03598e-05
9.15881e-05
9.32687e-05
9.55455e-05
9.83524e-05
0.000101267
0.000103972
0.000106313
0.000108271
0.000110222
0.000112493
0.000115231
0.000118467
0.000121886
0.000125032
0.000127639
0.000129937
0.000132228
0.000134733
0.000137512
0.00014054
0.000143599
0.000146439
0.000148901
0.000150934
0.000152616
0.000154092
0.000155465
0.000156765
0.000157927
0.000158807
0.000159253
0.000159173
0.000158555
0.000157522
0.000156235
0.000154814
0.000153317
0.000151696
0.000149818
0.000147609
0.000145045
0.000142191
0.000139245
0.000136338
0.000133556
0.000130992
0.000128538
0.000125853
0.000122927
0.00011984
0.00011679
0.000113918
0.000111276
0.000108843
0.000106502
0.000104147
0.000101757
9.93679e-05
9.70658e-05
9.49385e-05
9.3021e-05
9.12947e-05
8.97198e-05
8.82638e-05
8.69123e-05
8.57011e-05
8.46948e-05
8.39392e-05
8.3395e-05
8.30639e-05
8.29608e-05
8.35716e-05
8.33661e-05
8.33968e-05
8.38957e-05
8.49378e-05
8.63693e-05
8.79609e-05
8.95375e-05
9.09897e-05
9.24497e-05
9.4117e-05
9.61358e-05
9.85559e-05
0.0001012
0.000103849
0.000106368
0.000108675
0.000110904
0.000113254
0.000115832
0.00011871
0.000121815
0.000124955
0.000127918
0.00013067
0.000133308
0.000135968
0.000138724
0.00014161
0.000144558
0.000147425
0.000150079
0.000152423
0.000154431
0.000156138
0.000157598
0.000158854
0.000159911
0.000160718
0.000161183
0.000161216
0.000160761
0.000159837
0.000158537
0.000156964
0.000155212
0.000153322
0.000151244
0.000148918
0.000146316
0.000143451
0.000140442
0.000137401
0.000134391
0.000131485
0.000128711
0.000125924
0.000123053
0.000120088
0.000117111
0.000114222
0.000111483
0.000108912
0.000106468
0.000104086
0.000101737
9.94348e-05
9.72201e-05
9.51393e-05
9.32227e-05
9.14686e-05
8.98678e-05
8.84186e-05
8.71183e-05
8.5972e-05
8.50037e-05
8.42514e-05
8.3714e-05
8.33911e-05
8.32833e-05
8.39521e-05
8.38002e-05
8.39268e-05
8.43877e-05
8.52761e-05
8.65632e-05
8.81232e-05
8.98156e-05
9.14988e-05
9.31583e-05
9.48842e-05
9.67893e-05
9.89703e-05
0.000101398
0.000103953
0.000106523
0.000109008
0.000111417
0.000113856
0.000116414
0.000119159
0.000122096
0.000125163
0.000128243
0.000131251
0.000134172
0.00013705
0.000139927
0.000142839
0.000145779
0.000148684
0.000151463
0.000154028
0.000156308
0.000158274
0.000159925
0.000161275
0.000162339
0.000163111
0.000163553
0.000163611
0.000163226
0.000162373
0.000161082
0.00015942
0.000157471
0.000155321
0.000152992
0.000150472
0.000147744
0.000144791
0.000141672
0.000138482
0.000135284
0.000132141
0.000129105
0.000126151
0.000123226
0.000120289
0.000117357
0.000114475
0.000111692
0.000109044
0.000106526
0.000104113
0.000101775
9.95111e-05
9.73398e-05
9.529e-05
9.33871e-05
9.16373e-05
9.00379e-05
8.85949e-05
8.73157e-05
8.62041e-05
8.52706e-05
8.45343e-05
8.40032e-05
8.3682e-05
8.35701e-05
8.42025e-05
8.42101e-05
8.44828e-05
8.50028e-05
8.58332e-05
8.69985e-05
8.84576e-05
9.01312e-05
9.19046e-05
9.37039e-05
9.55311e-05
9.74366e-05
9.9502e-05
0.000101766
0.000104195
0.000106729
0.000109282
0.000111811
0.000114348
0.000116948
0.000119669
0.00012254
0.000125555
0.000128665
0.000131805
0.000134928
0.000138022
0.00014109
0.000144146
0.000147193
0.000150204
0.000153122
0.000155877
0.000158394
0.000160615
0.000162501
0.000164031
0.000165202
0.000166011
0.000166444
0.000166478
0.00016608
0.000165223
0.000163909
0.000162175
0.000160077
0.000157701
0.000155105
0.000152321
0.000149373
0.000146251
0.000142977
0.000139622
0.000136246
0.000132905
0.000129649
0.000126511
0.000123466
0.000120482
0.000117549
0.000114672
0.000111875
0.000109188
0.00010662
0.000104172
0.000101829
9.95809e-05
9.74333e-05
9.54038e-05
9.35123e-05
9.1771e-05
9.01826e-05
8.8752e-05
8.74886e-05
8.63982e-05
8.54878e-05
8.47675e-05
8.42444e-05
8.39237e-05
8.3808e-05
8.44233e-05
8.45576e-05
8.49528e-05
8.55647e-05
8.64139e-05
8.75258e-05
8.88985e-05
9.04995e-05
9.226e-05
9.41088e-05
9.60096e-05
9.79631e-05
0.000100009
0.000102191
0.000104518
0.000106976
0.00010952
0.000112103
0.000114717
0.000117382
0.000120139
0.000123017
0.000126031
0.000129167
0.000132392
0.000135663
0.000138951
0.000142236
0.000145509
0.000148759
0.000151966
0.000155086
0.000158062
0.000160824
0.000163303
0.00016544
0.00016719
0.000168524
0.000169426
0.000169886
0.000169892
0.000169433
0.0001685
0.000167098
0.000165251
0.000162998
0.000160414
0.000157561
0.000154489
0.000151261
0.000147891
0.000144401
0.000140844
0.000137272
0.000133741
0.000130293
0.000126967
0.00012377
0.000120684
0.000117702
0.000114806
0.000111998
0.000109293
0.0001067
0.000104222
0.000101864
9.9618e-05
9.74824e-05
9.54675e-05
9.35872e-05
9.18546e-05
9.02773e-05
8.88606e-05
8.76114e-05
8.65379e-05
8.56445e-05
8.49382e-05
8.44243e-05
8.41054e-05
8.39844e-05
8.46964e-05
8.48903e-05
8.53477e-05
8.60205e-05
8.69041e-05
8.80076e-05
8.93334e-05
9.0869e-05
9.25796e-05
9.44153e-05
9.63373e-05
9.83251e-05
0.000100386
0.000102545
0.00010482
0.000107217
0.000109723
0.000112312
0.000114969
0.000117694
0.00012051
0.000123438
0.000126498
0.000129693
0.00013301
0.000136422
0.000139902
0.000143423
0.000146959
0.000150486
0.000153973
0.000157377
0.000160639
0.000163691
0.000166457
0.000168866
0.000170854
0.000172375
0.000173396
0.0001739
0.000173878
0.000173333
0.00017227
0.000170711
0.000168686
0.000166229
0.000163412
0.000160295
0.000156931
0.000153396
0.000149731
0.000145971
0.000142168
0.000138366
0.000134622
0.000130973
0.000127462
0.000124102
0.000120888
0.000117818
0.000114873
0.000112038
0.000109317
0.00010671
0.000104217
0.000101845
9.95947e-05
9.74653e-05
9.54612e-05
9.35928e-05
9.1871e-05
9.03052e-05
8.89023e-05
8.76679e-05
8.66086e-05
8.57293e-05
8.50332e-05
8.45262e-05
8.4212e-05
8.40877e-05
8.49786e-05
8.51911e-05
8.56659e-05
8.63613e-05
8.72616e-05
8.83654e-05
8.96683e-05
9.11609e-05
9.28238e-05
9.46248e-05
9.65333e-05
9.85267e-05
0.000100598
0.000102755
0.00010501
0.000107373
0.000109848
0.000112427
0.000115103
0.000117874
0.000120751
0.000123751
0.000126892
0.000130185
0.000133628
0.000137206
0.00014091
0.000144699
0.000148545
0.000152412
0.000156256
0.000160024
0.000163649
0.000167054
0.000170155
0.000172869
0.000175117
0.000176836
0.000177981
0.000178524
0.000178457
0.000177793
0.000176548
0.000174762
0.000172486
0.000169758
0.000166654
0.000163238
0.000159564
0.000155708
0.000151725
0.000147662
0.000143577
0.000139513
0.000135524
0.000131662
0.000127951
0.000124415
0.000121058
0.000117877
0.000114856
0.000111979
0.000109231
0.000106612
0.000104112
0.000101734
9.94817e-05
9.73572e-05
9.53626e-05
9.35074e-05
9.18002e-05
9.0249e-05
8.88615e-05
8.76422e-05
8.65965e-05
8.57309e-05
8.5046e-05
8.45448e-05
8.42317e-05
8.41054e-05
8.52025e-05
8.54169e-05
8.58882e-05
8.65823e-05
8.74805e-05
8.85762e-05
8.98605e-05
9.13219e-05
9.29458e-05
9.471e-05
9.65913e-05
9.85704e-05
0.000100636
0.000102789
0.000105034
0.00010738
0.000109837
0.000112407
0.000115094
0.000117901
0.00012084
0.000123925
0.000127175
0.000130604
0.000134221
0.000138023
0.000141984
0.00014609
0.000150301
0.000154571
0.000158845
0.000163053
0.000167117
0.000170945
0.00017444
0.000177503
0.000180041
0.000181973
0.000183239
0.000183805
0.000183659
0.000182824
0.000181333
0.000179242
0.000176627
0.000173545
0.000170081
0.000166311
0.000162288
0.000158092
0.000153776
0.000149395
0.000145009
0.000140667
0.00013643
0.000132314
0.000128389
0.000124663
0.00012115
0.000117844
0.00011473
0.000111796
0.000109014