/*--------------------------------*- C++ -*----------------------------------*\
| =========                 |                                                 |
| \\      /  F ield         | OpenFOAM: The Open Source CFD Toolbox           |
|  \\    /   O peration     | Version:  2412                                  |
|   \\  /    A nd           | Website:  www.openfoam.com                      |
|    \\/     M anipulation  |                                                 |
\*---------------------------------------------------------------------------*/
FoamFile
{
    version     2.0;
    format      ascii;
    arch        "LSB;label=32;scalar=64";
    class       volScalarField;
    location    "2.65";
    object      p_rgh;
}
// * * * * * * * * * * * * * * * * * * * * * * * * * * * * * * * * * * * * * //

dimensions      [1 -1 -2 0 0 0 0];

internalField   nonuniform List<scalar> 
6400
(
7747.73
7747.05
7745.67
7743.63
7741.01
7737.9
7734.41
7730.68
7726.84
7723.01
7719.32
7715.9
7712.84
7710.25
7708.18
7706.7
7705.83
7705.6
7706
7707.01
7708.6
7710.71
7713.3
7716.28
7719.59
7723.15
7726.89
7730.71
7734.55
7738.34
7742.01
7745.49
7748.74
7751.69
7754.32
7756.57
7758.42
7759.85
7760.83
7761.35
7761.41
7761.02
7760.18
7758.91
7757.24
7755.18
7752.78
7750.08
7747.11
7743.93
7740.59
7737.14
7733.65
7730.18
7726.81
7723.59
7720.62
7717.94
7715.65
7713.79
7712.43
7711.61
7711.37
7711.72
7712.75
7714.29
7716.4
7719.02
7722.08
7725.49
7729.16
7732.96
7736.77
7740.47
7743.92
7746.99
7749.59
7751.61
7752.97
7753.64
7748.4
7747.69
7746.27
7744.16
7741.45
7738.23
7734.64
7730.79
7726.82
7722.87
7719.08
7715.56
7712.42
7709.76
7707.65
7706.14
7705.26
7705.04
7705.46
7706.51
7708.15
7710.32
7712.97
7716.02
7719.41
7723.04
7726.84
7730.73
7734.63
7738.47
7742.18
7745.7
7748.98
7751.96
7754.6
7756.86
7758.72
7760.15
7761.13
7761.65
7761.71
7761.31
7760.46
7759.19
7757.5
7755.43
7753.01
7750.29
7747.29
7744.08
7740.69
7737.2
7733.66
7730.13
7726.7
7723.42
7720.37
7717.64
7715.28
7713.37
7711.96
7711.11
7710.84
7711.2
7712.19
7713.78
7715.93
7718.62
7721.75
7725.26
7729.03
7732.95
7736.88
7740.69
7744.25
7747.43
7750.12
7752.2
7753.61
7754.31
7749.8
7749.05
7747.52
7745.27
7742.37
7738.94
7735.1
7731
7726.78
7722.59
7718.57
7714.85
7711.55
7708.75
7706.53
7704.96
7704.06
7703.85
7704.31
7705.43
7707.17
7709.46
7712.25
7715.45
7718.99
7722.77
7726.72
7730.75
7734.78
7738.73
7742.55
7746.16
7749.51
7752.54
7755.23
7757.53
7759.4
7760.84
7761.83
7762.35
7762.4
7761.99
7761.13
7759.83
7758.11
7756
7753.54
7750.76
7747.69
7744.4
7740.92
7737.32
7733.66
7730.01
7726.44
7723.03
7719.84
7716.96
7714.48
7712.45
7710.95
7710.02
7709.72
7710.06
7711.06
7712.7
7714.96
7717.77
7721.07
7724.78
7728.77
7732.92
7737.1
7741.16
7744.95
7748.35
7751.22
7753.44
7754.95
7755.7
7752.01
7751.18
7749.49
7747.01
7743.81
7740.04
7735.82
7731.33
7726.71
7722.14
7717.76
7713.73
7710.15
7707.15
7704.77
7703.1
7702.16
7701.97
7702.5
7703.74
7705.63
7708.11
7711.11
7714.54
7718.32
7722.34
7726.52
7730.77
7735
7739.15
7743.13
7746.88
7750.35
7753.48
7756.25
7758.6
7760.52
7761.99
7762.98
7763.51
7763.55
7763.12
7762.22
7760.88
7759.11
7756.93
7754.39
7751.51
7748.33
7744.9
7741.28
7737.51
7733.67
7729.81
7726.03
7722.4
7718.99
7715.9
7713.21
7711.01
7709.35
7708.31
7707.94
7708.26
7709.29
7711.02
7713.42
7716.43
7719.99
7724
7728.33
7732.86
7737.43
7741.88
7746.04
7749.78
7752.94
7755.4
7757.06
7757.89
7755.1
7754.16
7752.25
7749.44
7745.83
7741.56
7736.82
7731.77
7726.59
7721.48
7716.59
7712.14
7708.2
7704.9
7702.31
7700.51
7699.52
7699.35
7699.98
7701.39
7703.5
7706.24
7709.53
7713.28
7717.38
7721.73
7726.24
7730.8
7735.32
7739.72
7743.93
7747.88
7751.52
7754.79
7757.66
7760.1
7762.08
7763.59
7764.6
7765.12
7765.15
7764.69
7763.74
7762.34
7760.49
7758.22
7755.56
7752.55
7749.21
7745.6
7741.77
7737.77
7733.67
7729.54
7725.47
7721.53
7717.82
7714.43
7711.46
7709.01
7707.14
7705.94
7705.46
7705.74
7706.81
7708.66
7711.26
7714.56
7718.46
7722.88
7727.71
7732.76
7737.87
7742.87
7747.56
7751.77
7755.35
7758.13
7760.01
7760.95
7759.19
7758.1
7755.9
7752.64
7748.47
7743.56
7738.1
7732.32
7726.42
7720.61
7715.11
7710.05
7705.62
7701.93
7699.07
7697.1
7696.05
7695.93
7696.7
7698.32
7700.71
7703.8
7707.49
7711.65
7716.19
7720.97
7725.9
7730.86
7735.75
7740.49
7744.99
7749.19
7753.04
7756.5
7759.51
7762.05
7764.1
7765.65
7766.69
7767.21
7767.22
7766.71
7765.71
7764.23
7762.28
7759.89
7757.08
7753.89
7750.36
7746.51
7742.42
7738.12
7733.69
7729.21
7724.75
7720.42
7716.31
7712.53
7709.2
7706.41
7704.26
7702.84
7702.21
7702.44
7703.56
7705.55
7708.41
7712.06
7716.43
7721.39
7726.86
7732.6
7738.43
7744.15
7749.54
7754.39
7758.52
7761.74
7763.92
7765
7764.45
7763.17
7760.56
7756.73
7751.83
7746.08
7739.7
7732.97
7726.13
7719.43
7713.09
7707.32
7702.29
7698.13
7694.94
7692.77
7691.66
7691.6
7692.56
7694.46
7697.24
7700.77
7704.95
7709.65
7714.73
7720.06
7725.51
7730.97
7736.32
7741.47
7746.34
7750.86
7754.96
7758.62
7761.79
7764.46
7766.6
7768.21
7769.27
7769.79
7769.76
7769.21
7768.14
7766.55
7764.49
7761.95
7758.97
7755.57
7751.79
7747.67
7743.25
7738.59
7733.76
7728.83
7723.9
7719.07
7714.46
7710.19
7706.38
7703.16
7700.64
7698.93
7698.11
7698.26
7699.41
7701.58
7704.75
7708.85
7713.8
7719.49
7725.73
7732.34
7739.1
7745.74
7752.04
7757.72
7762.56
7766.35
7768.93
7770.2
7771.07
7769.54
7766.43
7761.85
7756.02
7749.19
7741.65
7733.72
7725.7
7717.87
7710.5
7703.85
7698.1
7693.36
7689.77
7687.38
7686.21
7686.25
7687.45
7689.73
7692.98
7697.07
7701.88
7707.24
7712.99
7719
7725.09
7731.16
7737.07
7742.71
7748.01
7752.89
7757.3
7761.2
7764.56
7767.37
7769.61
7771.27
7772.36
7772.87
7772.81
7772.19
7771.03
7769.34
7767.13
7764.43
7761.25
7757.61
7753.55
7749.1
7744.31
7739.22
7733.9
7728.43
7722.92
7717.49
7712.25
7707.36
7702.96
7699.19
7696.2
7694.12
7693.04
7693.07
7694.25
7696.61
7700.15
7704.79
7710.45
7716.97
7724.23
7731.94
7739.85
7747.68
7755.11
7761.86
7767.63
7772.16
7775.24
7776.76
7779.33
7777.47
7773.71
7768.18
7761.16
7752.97
7743.98
7734.55
7725.06
7715.84
7707.2
7699.5
7692.86
7687.45
7683.39
7680.75
7679.53
7679.73
7681.25
7684.01
7687.86
7692.66
7698.23
7704.4
7710.99
7717.81
7724.69
7731.48
7738.05
7744.28
7750.07
7755.37
7760.12
7764.29
7767.86
7770.81
7773.15
7774.87
7775.97
7776.47
7776.37
7775.68
7774.41
7772.59
7770.23
7767.34
7763.94
7760.05
7755.68
7750.86
7745.64
7740.04
7734.15
7728.05
7721.85
7715.67
7709.67
7704.02
7698.89
7694.44
7690.85
7688.28
7686.86
7686.7
7687.89
7690.47
7694.43
7699.71
7706.22
7713.77
7722.26
7731.33
7740.68
7749.97
7758.85
7766.94
7773.89
7779.36
7783.09
7784.93
7789.55
7787.29
7782.68
7775.95
7767.42
7757.52
7746.7
7735.42
7724.13
7713.22
7703.04
7694.08
7686.38
7680.18
7675.59
7672.68
7671.45
7671.86
7673.81
7677.16
7681.77
7687.43
7693.96
7701.12
7708.71
7716.52
7724.33
7731.99
7739.32
7746.22
7752.58
7758.35
7763.47
7767.93
7771.71
7774.81
7777.25
7779.02
7780.13
7780.6
7780.44
7779.67
7778.3
7776.33
7773.8
7770.72
7767.08
7762.91
7758.21
7752.99
7747.29
7741.13
7734.58
7727.73
7720.71
7713.64
7706.72
7700.13
7694.09
7688.8
7684.46
7681.27
7679.39
7678.98
7680.14
7682.93
7687.37
7693.41
7700.95
7709.82
7719.72
7730.41
7741.53
7752.65
7763.34
7773.13
7781.57
7788.24
7792.8
7795.05
7802.17
7799.38
7793.7
7785.42
7774.98
7762.93
7749.84
7736.28
7722.79
7709.87
7697.98
7687.37
7678.4
7671.28
7666.1
7662.92
7661.72
7662.43
7664.92
7669.04
7674.58
7681.32
7689
7697.37
7706.18
7715.16
7724.08
7732.74
7740.97
7748.64
7755.63
7761.9
7767.42
7772.17
7776.16
7779.4
7781.92
7783.73
7784.85
7785.28
7785.05
7784.18
7782.68
7780.57
7777.87
7774.58
7770.71
7766.25
7761.19
7755.55
7749.32
7742.54
7735.25
7727.54
7719.54
7711.42
7703.38
7695.66
7688.51
7682.17
7676.89
7672.92
7670.45
7669.68
7670.74
7673.74
7678.7
7685.6
7694.32
7704.7
7716.36
7729.06
7742.35
7755.73
7768.67
7780.59
7790.93
7799.14
7804.77
7807.54
7817.73
7814.27
7807.19
7796.92
7784.05
7769.3
7753.4
7737.04
7720.86
7705.47
7691.43
7678.98
7668.58
7660.42
7654.6
7651.16
7650.06
7651.19
7654.39
7659.46
7666.16
7674.2
7683.3
7693.13
7703.39
7713.78
7724.01
7733.85
7743.1
7751.62
7759.31
7766.11
7772.02
7777.06
7781.24
7784.61
7787.19
7789.02
7790.11
7790.49
7790.17
7789.19
7787.56
7785.3
7782.42
7778.93
7774.82
7770.08
7764.68
7758.6
7751.83
7744.36
7736.24
7727.55
7718.42
7709.05
7699.67
7690.57
7682.05
7674.43
7667.99
7663.02
7659.79
7658.52
7659.4
7662.57
7668.09
7675.95
7686.04
7698.17
7711.95
7727.09
7743.05
7759.21
7774.94
7789.54
7802.29
7812.48
7819.51
7822.94
7836.93
7832.6
7823.67
7810.83
7794.86
7776.74
7757.37
7737.56
7718.11
7699.73
7683.1
7668.54
7656.5
7647.19
7640.7
7637.04
7636.14
7637.84
7641.95
7648.21
7656.32
7665.97
7676.78
7688.38
7700.39
7712.45
7724.21
7735.41
7745.83
7755.29
7763.72
7771.08
7777.37
7782.65
7786.98
7790.43
7793.04
7794.85
7795.89
7796.18
7795.76
7794.66
7792.89
7790.48
7787.44
7783.76
7779.44
7774.45
7768.75
7762.25
7754.92
7746.73
7737.69
7727.88
7717.43
7706.57
7695.59
7684.82
7674.64
7665.43
7657.55
7651.35
7647.13
7645.18
7645.75
7649.02
7655.12
7664.05
7675.72
7689.9
7706.19
7724.28
7743.48
7763.06
7782.24
7800.2
7816.03
7828.79
7837.66
7841.95
7860.64
7855.19
7843.79
7827.56
7807.64
7785.31
7761.68
7737.69
7714.23
7692.23
7672.58
7655.57
7641.67
7631.1
7623.94
7620.15
7619.59
7622.06
7627.31
7635.04
7644.9
7656.49
7669.38
7683.11
7697.21
7711.25
7724.82
7737.59
7749.32
7759.83
7769.02
7776.9
7783.51
7788.97
7793.38
7796.85
7799.42
7801.15
7802.09
7802.26
7801.72
7800.48
7798.59
7796.05
7792.86
7789.03
7784.54
7779.36
7773.4
7766.56
7758.7
7749.76
7739.74
7728.67
7716.71
7704.08
7691.17
7678.37
7666.17
7655.03
7645.39
7637.65
7632.17
7629.3
7629.37
7632.64
7639.3
7649.39
7662.85
7679.43
7698.66
7720.33
7743.5
7767.24
7790.64
7812.78
7832.55
7848.69
7860.04
7865.44
7889.95
7883.03
7868.23
7847.51
7822.54
7794.99
7766.2
7737.17
7708.84
7682.43
7659.31
7639.47
7623.48
7611.58
7603.81
7600
7599.97
7603.45
7610.14
7619.66
7631.63
7645.57
7660.98
7677.28
7693.89
7710.29
7725.99
7740.59
7753.79
7765.43
7775.4
7783.73
7790.56
7796.06
7800.44
7803.82
7806.26
7807.84
7808.59
7808.59
7807.89
7806.52
7804.51
7801.86
7798.56
7794.63
7790.06
7784.8
7778.72
7771.63
7763.32
7753.67
7742.6
7730.14
7716.41
7701.67
7686.43
7671.17
7656.49
7643.01
7631.25
7621.63
7614.55
7610.45
7609.78
7612.89
7620.02
7631.35
7646.84
7666.22
7688.9
7714.82
7742.83
7771.6
7800.13
7827.44
7852.23
7872.86
7887.64
7894.47
7926.34
7917.16
7897.45
7870.75
7839.46
7805.66
7770.78
7735.77
7701.35
7669.76
7642.66
7619.41
7601.08
7587.88
7579.62
7576.03
7576.79
7581.58
7590.04
7601.73
7616.22
7633
7651.46
7670.85
7690.45
7709.66
7727.88
7744.61
7759.49
7772.35
7783.08
7791.74
7798.6
7803.94
7808.15
7811.33
7813.54
7814.83
7815.3
7815.04
7814.15
7812.67
7810.58
7807.85
7804.48
7800.49
7795.9
7790.7
7784.69
7777.56
7768.96
7758.65
7746.51
7732.49
7716.68
7699.45
7681.38
7663.12
7645.41
7629.1
7614.83
7602.99
7593.91
7588.16
7586.39
7589.05
7596.5
7609.07
7626.83
7649.61
7676.29
7707.02
7741.18
7775.99
7810.61
7844.07
7875.08
7901.7
7921.5
7930.57
7973.32
7960.19
7932.75
7897.68
7858.21
7817.08
7775.86
7735.51
7695.65
7657.03
7622.17
7594.3
7573.41
7559.06
7550.65
7547.66
7549.54
7556.01
7566.61
7580.86
7598.41
7618.64
7640.79
7663.81
7686.91
7709.42
7730.6
7749.8
7766.6
7780.8
7792.26
7801
7807.52
7812.69
7816.67
7819.58
7821.41
7822.25
7822.26
7821.6
7820.49
7818.96
7816.89
7814.17
7810.78
7806.72
7802.11
7797.04
7791.25
7784.41
7775.74
7764.87
7751.64
7735.89
7717.71
7697.51
7676.08
7654.23
7632.82
7613.03
7595.86
7581.46
7569.86
7561.88
7558.55
7560.36
7567.75
7581.42
7601.71
7629.11
7663.51
7701.7
7740.97
7781.07
7821.97
7862.43
7901.31
7936.31
7964.12
7977.18
8027.06
8006.86
7972
7926.99
7877.92
7827.84
7777.51
7727.25
7679.23
7634.52
7594.7
7562.81
7540.05
7525.2
7517.22
7515.25
7518.33
7526.61
7539.49
7556.69
7578.32
7603.08
7629.83
7657.1
7684.03
7710.01
7734.29
7756.08
7774.9
7790.63
7802.97
7811.8
7817.78
7822.19
7825.73
7828.11
7829.15
7829.08
7828.22
7826.92
7825.5
7823.99
7822.17
7819.79
7816.68
7812.78
7808.28
7803.5
7798.39
7791.94
7783.31
7772.01
7757.83
7740.47
7719.92
7696.69
7671.63
7645.59
7619.48
7595.1
7574.05
7556.88
7542.32
7531.46
7526.26
7526.9
7533.83
7547.95
7570.1
7601.62
7641.46
7686.27
7733.59
7782.86
7833.04
7881.83
7929.65
7973.95
8004.8
8008.59
7903.06
8008.78
8010.14
7955.08
7896.85
7842.17
7785.57
7727.29
7667.86
7609.21
7558.83
7471.59
7365.56
7297.71
7274.79
7290.69
7321.37
7356.06
7396.44
7461.96
7554.38
7588.76
7621.71
7653.78
7684.34
7713.35
7740.39
7764.49
7784.92
7801.47
7813.63
7821.2
7825.61
7829.44
7832.37
7833.72
7833.39
7831.98
7830.18
7828.33
7826.5
7824.7
7822.93
7820.97
7818.35
7814.74
7810.56
7806.39
7802.74
7798.07
7790.86
7780.26
7765.98
7747.56
7725.19
7699.64
7671.53
7641.23
7609.06
7577.15
7508.57
7439.59
7394.74
7360.33
7333.03
7315.24
7333.91
7390.65
7487.68
7565.42
7616.11
7674.88
7733.44
7789.85
7847.57
7900.4
7955.81
8008.48
8007.7
7844.84
7820.28
8036.72
8071.28
7998.92
7929.4
7858.96
7403.8
6581.75
5637.56
4462.45
3437.96
2831.76
2521.38
2353.56
2279.58
2284.88
2346.7
2510.3
2788.21
3232.43
3877.15
4618.53
5267.92
5781.78
6179.27
6487.87
6735.35
6946.31
7152.73
7388.56
7588.55
7652.38
7590.63
7546.14
7556.41
7579.36
7575.6
7569.78
7569.68
7566.31
7552.83
7528.76
7500.13
7476.66
7452.59
7400.36
7345.75
7351.45
7415.96
7413.02
7285.33
7091.5
6938.68
6805.49
6635.6
6398.45
6078.16
5649.16
5066.09
4352.45
3607.83
3046.79
2689.04
2467.45
2380.35
2363.08
2441.52
2623.59
2935.91
3541.74
4573.76
5733.26
6639.33
7410.46
7863.06
7931.44
7997.73
8067.25
8072.34
7921.36
8019.47
8254.44
8180.88
6444.85
4310.63
2494.02
1323.46
660.539
255.281
58.5807
9.47282
2.59429
2.29615
1.85982
1.49766
1.3776
1.28214
1.22493
1.32598
4.64894
43.3324
151.855
316.899
543.214
798.312
1083.09
1392.94
1672.87
1881.79
2015.76
2086.28
2106.98
2134
2269.08
2406.94
2501.88
2524.05
2531.16
2553.15
2561.82
2520.97
2437.79
2335.93
2251.13
2157.68
2007.63
1847.09
1704.23
1668.94
1691.24
1717.8
1715.65
1646.83
1466.99
1216.66
962.2
712.711
463.135
249.876
88.5658
9.64705
1.42312
1.28732
1.3394
1.44302
1.55216
1.9461
2.66503
3.26053
15.8635
81.4161
302.928
739.21
1432.33
2616.89
4370.57
6344.63
8158.55
8249.51
8123.06
7723.92
7128.23
2988.96
983.754
191.636
10.1156
5.91776
3.90525
2.56399
2.1234
1.80981
1.6459
1.53039
1.42578
1.34775
1.2998
1.27479
1.25695
1.56203
1.71274
1.40291
1.30865
1.41579
1.23727
1.85136
2.67943
3.34011
3.49883
2.94428
2.07921
0.873535
0.376198
0.33946
0.298306
0.277218
0.231432
0.239362
0.292297
0.344186
0.37303
0.385903
0.379515
0.356914
0.31445
0.28476
0.303579
0.307253
0.294536
0.28108
0.55905
1.69597
3.16645
4.25872
4.21226
3.00926
1.71675
1.08406
0.955518
0.93748
1.01504
1.12876
1.27759
1.24734
1.30604
1.3748
1.43462
1.4861
1.60442
1.73937
1.90783
2.08568
2.20964
2.54682
3.55098
7.70188
185.476
945.975
2850.36
6896.66
7839.56
6290.54
4161.48
1012
24.2163
9.39535
6.66616
5.50355
4.75267
2.43792
1.82804
1.56037
1.4485
1.35783
1.27067
1.19344
1.11918
1.27792
1.52276
1.5179
1.46411
1.39591
1.29574
1.17332
1.06507
1.15487
1.22767
0.98759
0.93344
0.878552
0.857235
0.645093
0.633898
0.637339
0.504915
0.395242
0.395071
0.402081
0.430764
0.473849
0.502027
0.509503
0.492987
0.463494
0.426239
0.395539
0.390713
0.384776
0.508445
0.617313
0.381455
0.45962
0.730107
1.0488
1.33483
1.14661
0.85478
0.839553
0.996703
0.926799
0.990431
1.07986
1.13213
1.15801
1.18716
1.24525
1.33121
1.39503
1.44005
1.5013
1.61297
1.78858
2.09748
2.50395
3.00568
3.9991
7.36474
22.3104
861.767
3989.17
6433.97
6487.5
633.949
2.48486
7.72
7.12809
6.36309
6.05493
6.39435
6.09308
4.15836
1.32413
1.27119
1.21107
1.15025
1.09849
1.06059
1.00929
0.967189
0.933663
0.896192
0.898608
0.912894
0.912828
1.06891
1.29709
1.21601
0.945613
0.902288
0.906054
1.01902
1.14537
0.736975
0.49137
0.413251
0.399736
0.397757
0.400353
0.418853
0.447464
0.467976
0.471764
0.459061
0.435986
0.409347
0.383829
0.364537
0.352779
0.354108
0.421723
0.472404
0.530361
0.694923
0.945735
1.2622
1.20342
0.842135
0.827619
0.860574
0.902724
0.950729
1.0038
1.04562
1.078
1.16271
1.20656
1.24306
1.27699
1.27917
1.31838
1.39332
1.52536
4.32675
7.47223
7.60735
5.30595
6.1232
7.05927
2.87765
526.785
6626.22
6097.39
645.242
2.58968
4.61955
7.68768
5.36752
4.67419
2.35555
1.31448
1.26899
1.17008
1.11116
1.06902
1.02664
0.982124
0.939262
0.911243
0.886973
0.865685
0.842086
0.814407
0.786037
0.759077
0.731126
0.704733
0.697383
0.81314
0.927429
0.937136
0.862972
0.704424
0.726446
0.710622
0.480557
0.430351
0.428022
0.433714
0.447977
0.467159
0.481399
0.482974
0.47225
0.454836
0.43585
0.417836
0.402122
0.392894
0.397225
0.424637
0.648662
0.916598
0.97587
0.978756
0.767589
0.742813
0.784073
0.820804
0.851393
0.883388
0.917475
0.951411
0.978014
0.996288
1.0263
1.06064
1.07127
1.08895
1.12084
1.14935
1.14643
2.86885
6.9346
7.19396
7.53202
6.85018
7.78395
4.50726
3.06869
584.678
5861.97
999.267
639.137
2.63528
3.44907
7.43131
3.74631
1.237
1.10268
1.00729
0.948788
0.934815
0.927813
0.911761
0.888744
0.857192
0.828253
0.809502
0.796586
0.786821
0.776338
0.763102
0.7482
0.731931
0.713232
0.691595
0.666713
0.637591
0.604539
0.56983
0.537498
0.508871
0.485497
0.476279
0.485713
0.449724
0.442379
0.443509
0.452293
0.466246
0.477133
0.47733
0.468182
0.456371
0.447687
0.443452
0.44301
0.448091
0.463403
0.550468
0.665247
0.66852
0.682015
0.659556
0.694871
0.736716
0.774004
0.805103
0.831177
0.855174
0.87726
0.895891
0.90818
0.914547
0.919519
0.927439
0.939526
0.954352
0.969488
0.964075
0.903164
0.996253
1.13508
4.34392
7.17137
7.45526
7.6412
4.03489
3.3245
568.6
914.052
15.9648
472.046
1.7463
2.6255
6.69071
1.96174
0.79096
0.745863
0.719234
0.711556
0.712413
0.710487
0.707925
0.705339
0.700745
0.69471
0.695208
0.699745
0.705626
0.710085
0.711247
0.709
0.702998
0.692898
0.678132
0.658592
0.634489
0.606639
0.577403
0.548862
0.522668
0.500215
0.481939
0.46809
0.458537
0.451923
0.45019
0.453906
0.461823
0.468535
0.467829
0.46184
0.456483
0.455223
0.458764
0.46687
0.480078
0.49941
0.524916
0.555518
0.588516
0.623727
0.660188
0.697103
0.73211
0.763376
0.789625
0.810565
0.826618
0.837575
0.842238
0.839613
0.830593
0.818546
0.807384
0.798947
0.792178
0.780719
0.749868
0.684431
0.598978
0.558947
0.584725
0.984496
6.14783
7.23481
4.17166
2.63714
395.648
11.7383
16.0559
122.498
0.621851
1.91631
3.45779
0.310007
0.329179
0.352971
0.393402
0.435813
0.46518
0.478991
0.491175
0.506511
0.524888
0.545993
0.569453
0.594232
0.618322
0.639528
0.655819
0.666223
0.670277
0.667827
0.659264
0.644922
0.625499
0.60237
0.577476
0.552601
0.529172
0.508452
0.490945
0.47683
0.466061
0.458539
0.454571
0.454949
0.459141
0.463106
0.46215
0.458735
0.45745
0.460455
0.468134
0.479904
0.495577
0.515362
0.539103
0.566383
0.59619
0.627904
0.660067
0.692203
0.722607
0.749528
0.7714
0.787047
0.795589
0.796027
0.787246
0.768637
0.741283
0.708484
0.674251
0.640882
0.607329
0.567934
0.517653
0.453904
0.389357
0.349403
0.337914
0.343685
0.33699
5.80235
4.08031
1.70661
74.0476
12.0015
7.68338
-0.282626
-0.0402953
0.174404
-0.111292
-0.166932
-0.102353
0.0127587
0.147238
0.182645
0.214547
0.240148
0.265428
0.299931
0.340261
0.384326
0.430969
0.478289
0.523504
0.56356
0.596055
0.619734
0.634256
0.63988
0.637397
0.627973
0.613032
0.594193
0.573162
0.551569
0.530792
0.511817
0.495351
0.481646
0.470695
0.462549
0.457378
0.455767
0.457201
0.458869
0.457813
0.456339
0.457586
0.462964
0.47271
0.486054
0.502448
0.521854
0.544171
0.569064
0.596032
0.624514
0.653625
0.682417
0.709379
0.732767
0.75076
0.761544
0.763249
0.75388
0.731576
0.695239
0.645926
0.587688
0.525877
0.464398
0.402477
0.336399
0.266405
0.195455
0.137083
0.101868
0.078318
0.0112137
-0.0523767
1.11866
1.0867
1.31132
0.673269
5.39081
5.91174
0.372292
-0.065083
-0.488686
-0.594322
-0.520882
-0.439179
-0.323484
0.0981681
0.870373
0.67228
0.0181715
0.0276386
0.0793499
0.140772
0.207623
0.278501
0.350584
0.419635
0.481159
0.531762
0.56988
0.595494
0.609516
0.61345
0.609131
0.598505
0.583506
0.565932
0.547361
0.529075
0.512017
0.496807
0.483838
0.473155
0.464804
0.458939
0.45593
0.45553
0.45575
0.454954
0.454284
0.456781
0.463276
0.473793
0.487328
0.503214
0.521415
0.541984
0.564776
0.589482
0.615485
0.642081
0.66826
0.692585
0.713281
0.728246
0.735023
0.730747
0.712136
0.675902
0.61949
0.543469
0.453753
0.35877
0.266209
0.17576
0.0816285
-0.00679484
-0.0864506
-0.138123
0.349594
1.11184
0.288608
-0.391428
-0.414002
-0.320148
0.274298
0.792992
3.84734
2.72898
0.820858
0.0406094
-0.624769
-0.768135
-0.734715
-0.664768
-0.562633
-0.276733
1.55988
2.01415
0.591741
-0.224178
-0.160128
-0.0791101
0.0112429
0.108767
0.20927
0.306393
0.393161
0.464555
0.518707
0.556174
0.578797
0.589095
0.589691
0.583078
0.571526
0.556994
0.541083
0.525031
0.509755
0.495876
0.483763
0.473455
0.465175
0.458938
0.454987
0.45327
0.452827
0.452526
0.45233
0.455204
0.461994
0.472402
0.485291
0.500081
0.516797
0.53556
0.556304
0.578933
0.602684
0.627059
0.651082
0.673383
0.692151
0.705023
0.708913
0.699841
0.672781
0.622354
0.542936
0.432599
0.301726
0.164015
0.0350943
-0.0844368
-0.198845
-0.313992
-0.396384
-0.291067
1.67771
1.78183
0.748425
-0.582646
-0.546289
-0.486952
-0.02036
0.836371
1.61883
1.5722
1.02451
0.068666
-0.661563
-0.818647
-0.838115
-0.81597
-0.765033
-0.546587
1.39553
1.93698
1.38
-0.488721
-0.426759
-0.332948
-0.217358
-0.0875208
0.0485186
0.182038
0.300708
0.396841
0.468849
0.518785
0.549928
0.566147
0.571091
0.567903
0.559218
0.547188
0.533477
0.519313
0.505586
0.4929
0.481609
0.471849
0.463667
0.457237
0.45257
0.45003
0.449482
0.450144
0.450354
0.453031
0.459555
0.469247
0.480979
0.494312
0.50936
0.526257
0.544919
0.565672
0.587256
0.609608
0.631805
0.652568
0.670108
0.681895
0.684283
0.672046
0.638159
0.575084
0.467546
0.307999
0.118941
-0.0783116
-0.0933571
-0.0330289
-0.324811
-0.67523
-0.745107
0.120765
1.59517
1.58177
0.777035
-0.704099
-0.662541
-0.59862
-0.154293
0.669756
1.4056
1.59957
1.17213
0.167328
-0.608237
-0.139438
-0.782062
-0.94177
-0.964838
-0.909553
0.802745
1.78598
1.84381
-0.0342727
-0.733235
-0.642341
-0.50185
-0.331024
-0.145809
0.036754
0.201789
0.330567
0.42278
0.485705
0.524865
0.546212
0.554585
0.553947
0.547356
0.537162
0.525092
0.512383
0.499901
0.488223
0.477672
0.468406
0.460516
0.454048
0.44861
0.445792
0.445576
0.447864
0.448097
0.450813
0.456081
0.464723
0.474922
0.486606
0.499914
0.514961
0.531736
0.550201
0.569866
0.590347
0.61092
0.630488
0.647393
0.659082
0.661452
0.647747
0.610022
0.536711
0.397296
0.210922
0.280808
0.431408
2.43354
2.9005
1.22216
-1.05682
-1.14321
1.00989
1.3465
1.31319
0.138373
-0.857152
-0.752629
-0.0127188
-0.128843
0.609048
4.1824
1.76755
1.41367
0.318206
-0.316131
1.28648
-0.346366
-1.08985
-1.1967
-1.2334
0.0404766
1.51709
1.61419
1.66729
-0.22703
-0.483459
0.350344
0.534363
-0.108376
-0.113492
0.0900246
0.264112
0.381221
0.458398
0.505131
0.530405
0.541031
0.541832
0.536406
0.527293
0.516278
0.504571
0.493006
0.482129
0.472214
0.463418
0.455823
0.449316
0.443923
0.441077
0.441437
0.450171
0.448287
0.449641
0.451535
0.458427
0.467201
0.477204
0.488762
0.501958
0.516803
0.533188
0.550838
0.569469
0.588447
0.606942
0.62353
0.636056
0.639907
0.626569
0.587914
0.545435
1.65547
2.6004
3.94134
3.08834
2.5873
2.28919
2.12567
-0.843316
-0.671846
0.958688
0.976296
0.311899
-1.18491
-1.06001
-0.0806766
0.0790041
-0.0891282
0.555298
11.6201
13.0931
2.062
0.410793
1.1528
1.32485
0.196593
-1.29557
-1.46221
-1.54834
-1.21161
1.09421
1.29617
1.29072
1.27339
1.21841
1.28786
1.6089
2.23064
1.29599
0.498306
0.19891
0.344874
0.437255
0.491742
0.519382
0.53073
0.531646
0.526406
0.517627
0.507107
0.495991
0.485043
0.474775
0.465425
0.457119
0.449934
0.443717
0.438587
0.436157
0.438726
0.600124
0.53031
0.444207
0.444933
0.450486
0.457692
0.466135
0.476004
0.487387
0.50028
0.514603
0.530181
0.546769
0.563989
0.581144
0.59703
0.611343
0.617755
0.60739
0.586216
3.47655
5.44361
4.52182
3.6339
2.35794
1.4634
0.684407
-1.30329
-2.03194
-0.740738
0.462878
-0.458079
-1.64208
-1.54444
-1.27612
-0.436598
0.00846881
-0.0224179
1.25855
12.1532
35.1062
3.35266
0.328176
0.623948
1.29039
0.335719
-1.54285
-1.66799
-1.92857
-1.95136
-1.44792
0.699396
1.03512
0.395449
-1.52971
-0.135315
1.05643
1.83693
2.57291
3.46771
1.55728
0.319495
0.424724
0.485422
0.513247
0.523402
0.52273
0.516917
0.507836
0.497336
0.486494
0.475984
0.466216
0.457391
0.449564
0.442917
0.437261
0.432601
0.430638
0.444252
0.649181
0.579554
0.43421
0.436146
0.440578
0.44646
0.453445
0.4617
0.471284
0.482192
0.494353
0.507656
0.521958
0.53705
0.552566
0.567828
0.581605
0.594141
0.607654
3.48585
6.06643
5.19569
3.57666
-0.213541
-2.3718
-2.61724
-2.6744
-2.55593
-2.29882
-1.68043
-1.07151
-0.781181
3.7866
-0.187012
-1.53639
-1.077
-0.644648
0.0858612
10.7568
12.5514
33.1035
9.39144
0.43366
0.43042
1.2174
-0.280653
-1.80501
-2.02339
-2.31182
-2.30857
-2.15579
-1.95435
0.838321
0.788419
-1.65828
-1.80389
-1.71944
-0.929122
1.65872
3.34208
4.11607
1.50722
0.430357
0.488797
0.510538
0.517468
0.514816
0.507282
0.497333
0.486533
0.475789
0.465599
0.456244
0.447892
0.440622
0.434504
0.42945
0.42527
0.43054
0.529955
0.644447
0.507608
0.422992
0.425194
0.428734
0.433595
0.439187
0.445891
0.453698
0.462572
0.472432
0.483188
0.494747
0.506972
0.519707
0.532472
0.543638
0.563526
1.86121
6.58671
5.95369
4.99812
-1.70316
-2.13835
-2.45422
-2.62062
-2.61884
-2.27367
-0.103748
-0.854208
0.116326
8.80102
8.18615
-1.41019
-1.76978
-1.17868
-0.585792
7.90963
11.5622
11.9539
-0.116307
37.9646
5.56715
0.334629
-0.411497
-1.43819
-1.96431
-2.33178
-2.65999
-2.62957
-2.35393
-2.10903
-2.00363
0.8734
-0.400509
-1.68724
-1.67121
-1.45559
-1.08829
2.13797
4.08362
4.77172
1.10888
0.497535
0.508351
0.511066
0.505444
0.496063
0.485204
0.474121
0.463485
0.453616
0.444679
0.436784
0.429976
0.424254
0.41955
0.415645
0.516194
0.642336
0.637927
0.437934
0.411049
0.41238
0.41535
0.419032
0.423456
0.428695
0.434741
0.441524
0.448936
0.456861
0.465169
0.473679
0.482242
0.489851
0.495895
0.700737
5.10228
6.61268
5.93987
1.88424
-1.67688
-2.0415
-2.30423
-2.41624
-2.382
-2.10853
2.72275
8.80126
9.91892
9.28471
3.62603
-2.67962
-1.86651
-1.0853
7.79899
10.9316
11.5089
1.81306
-0.134321
38.9215
38.7039
2.60623
-0.692176
-1.41355
-1.98938
-2.50004
-2.76876
-2.73357
-2.4605
-2.12444
-1.86731
-1.18567
-0.130478
-0.531972
-1.37681
-1.24901
-0.960959
-0.555602
3.90153
4.80291
3.14464
0.56967
0.503465
0.500887
0.492776
0.481882
0.470478
0.45941
0.449095
0.439696
0.431285
0.423894
0.417512
0.412077
0.407438
0.404958
0.571932
0.63406
0.630205
0.400979
0.397638
0.397918
0.400519
0.403285
0.406548
0.410343
0.414624
0.419282
0.424158
0.429063
0.433739
0.437846
0.440929
0.441218
0.439146
0.958221
6.96825
6.68244
6.02227
1.71347
-1.4844
-1.79776
-1.92715
-2.10284
-1.99283
4.51444
11.4138
10.7761
10.1986
3.7437
-2.95339
-2.27506
-1.63063
7.43312
9.68717
10.7075
7.91761
1.51411
-0.3003
20.1429
38.3028
34.7665
1.54734
-0.982202
-1.68095
-2.18027
-2.48353
-2.5224
0.569953
0.502595
-1.43582
-1.31019
-0.685966
-0.196492
-0.339985
-0.918915
-0.733257
-0.377709
2.61219
4.89835
4.90631
0.812198
0.492127
0.483891
0.474713
0.463445
0.452291
0.44184
0.432276
0.423653
0.415974
0.409217
0.403321
0.398223
0.393623
0.389871
0.510277
0.625306
0.580321
0.381426
0.382624
0.383366
0.384863
0.386648
0.388745
0.391126
0.393676
0.396235
0.398582
0.40043
0.401373
0.400848
0.397959
0.39058
0.378171
0.747817
6.26368
6.79702
6.20971
5.14258
-0.880832
-0.796321
0.634364
-1.61079
0.0546352
10.9024
11.9125
11.397
7.41916
-1.73168
-1.71569
-1.56455
5.48233
10.1273
10.3418
10.2248
0.887921
1.31384
-0.454945
-0.51542
37.9652
38.3215
36.2655
4.80761
-0.925345
-1.54009
-0.162265
26.6942
37.5872
13.6614
-0.951436
-1.07698
-0.921552
-0.220615
-0.036405
-0.0898124
-0.511187
-0.177743
3.63301
5.06653
5.32335
0.915697
0.468339
0.458196
0.449818
0.439888
0.430141
0.421104
0.412852
0.405405
0.398747
0.39283
0.387587
0.382974
0.378631
0.375158
0.421558
0.616524
0.47576
0.367172
0.367466
0.367844
0.368518
0.369374
0.370349
0.371368
0.372261
0.372821
0.372771
0.371734
0.369181
0.364363
0.356106
0.342388
0.321032
0.299372
3.1521
6.938
6.41782
5.78457
1.98492
-0.253219
1.1945
0.882823
0.604798
9.14238
12.6698
12.407
11.3705
0.225366
-0.393427
4.15666
11.0203
10.9803
10.8876
1.17143
0.488029
1.19496
-0.839655
-0.927731
24.02
39.9626
41.2277
41.5451
18.1612
9.91205
32.4021
39.9797
39.2483
26.352
1.34818
-0.660499
-0.890106
-0.656869
0.249552
-0.250674
-0.275144
-0.0142252
4.74286
5.33225
4.36501
0.625609
0.428816
0.423092
0.417835
0.411044
0.404
0.397255
0.390934
0.385105
0.379785
0.374944
0.37055
0.366564
0.362704
0.35952
0.391374
0.607432
0.535962
0.352351
0.351988
0.351812
0.351744
0.351725
0.351646
0.351393
0.35076
0.349506
0.34731
0.343739
0.338201
0.329855
0.317454
0.299294
0.272774
0.237224
1.60471
7.03838
6.58759
5.31424
0.52378
0.0561339
1.43795
1.41527
-0.253873
4.02153
13.6238
13.4613
13.4525
13.0043
10.6369
12.9019
12.2495
11.7573
1.17643
0.14391
0.252978
-0.189925
-0.894526
-0.571629
-0.875838
40.788
42.7888
43.7075
43.7637
43.9499
44.0055
42.4416
38.8505
8.48877
-0.240516
-0.684757
-0.782169
-0.667239
-0.00738864
-0.24979
-0.0609001
0.559429
5.45543
5.54634
3.26294
0.401614
0.376428
0.379521
0.379759
0.377709
0.374496
0.370805
0.366949
0.363113
0.359398
0.355845
0.352491
0.349321
0.346236
0.343536
0.363256
0.597874
0.596985
0.336913
0.336133
0.335449
0.334728
0.33392
0.332892
0.331499
0.32952
0.326697
0.322687
0.317037
0.309156
0.298239
0.283121
0.262355
0.233493
0.192213
0.282027
4.67588
6.69532
4.93866
0.567922
0.257953
1.06356
1.79105
-0.178016
-0.418164
8.43173
14.4815
14.5908
14.6731
14.4543
13.9613
13.5432
3.06348
0.307659
0.404067
1.10322
-0.342359
-0.883902
-0.678736
-0.887299
7.03037
44.1812
44.5497
45.2927
45.6165
45.3849
42.2157
11.291
0.0394621
-0.401654
-0.552143
-0.588656
-0.00755819
0.225256
-0.123718
0.062732
3.37966
5.94025
5.84969
1.72661
0.292121
0.316022
0.330157
0.337689
0.341455
0.342757
0.342593
0.341536
0.33993
0.338002
0.335897
0.333731
0.331526
0.329323
0.327186
0.333515
0.588184
0.58154
0.32112
0.320067
0.318934
0.317658
0.31616
0.314302
0.311921
0.3088
0.304683
0.299232
0.292005
0.282461
0.269911