/*--------------------------------*- C++ -*----------------------------------*\
| =========                 |                                                 |
| \\      /  F ield         | OpenFOAM: The Open Source CFD Toolbox           |
|  \\    /   O peration     | Version:  2412                                  |
|   \\  /    A nd           | Website:  www.openfoam.com                      |
|    \\/     M anipulation  |                                                 |
\*---------------------------------------------------------------------------*/
FoamFile
{
    version     2.0;
    format      ascii;
    arch        "LSB;label=32;scalar=64";
    class       volScalarField;
    location    "5.85";
    object      p;
}
// * * * * * * * * * * * * * * * * * * * * * * * * * * * * * * * * * * * * * //

dimensions      [1 -1 -2 0 0 0 0];

internalField   nonuniform List<scalar> 
6400
(
7609.2
7608.83
7608.17
7607.25
7606.05
7604.59
7602.91
7601.01
7598.93
7596.7
7594.36
7591.95
7589.53
7587.14
7584.83
7582.65
7580.65
7578.88
7577.37
7576.17
7575.3
7574.79
7574.64
7574.86
7575.43
7576.34
7577.55
7579.04
7580.74
7582.62
7584.61
7586.65
7588.67
7590.61
7592.4
7594
7595.34
7596.38
7597.08
7597.43
7597.41
7597.01
7596.27
7595.21
7593.84
7592.22
7590.4
7588.46
7586.43
7584.41
7582.45
7580.61
7578.95
7577.52
7576.38
7575.56
7575.08
7574.96
7575.22
7575.84
7576.81
7578.12
7579.73
7581.6
7583.69
7585.96
7588.34
7590.79
7593.26
7595.7
7598.06
7600.31
7602.4
7604.3
7605.99
7607.44
7608.63
7609.56
7610.21
7610.57
7222.56
7222.18
7221.51
7220.56
7219.35
7217.88
7216.17
7214.25
7212.13
7209.86
7207.48
7205.02
7202.54
7200.09
7197.72
7195.48
7193.42
7191.6
7190.05
7188.81
7187.91
7187.37
7187.21
7187.43
7188.01
7188.94
7190.2
7191.73
7193.49
7195.43
7197.49
7199.6
7201.69
7203.7
7205.57
7207.22
7208.61
7209.69
7210.43
7210.79
7210.76
7210.36
7209.58
7208.48
7207.06
7205.38
7203.5
7201.47
7199.38
7197.28
7195.25
7193.34
7191.63
7190.16
7188.98
7188.13
7187.64
7187.53
7187.8
7188.44
7189.45
7190.8
7192.46
7194.39
7196.54
7198.86
7201.3
7203.81
7206.34
7208.83
7211.24
7213.52
7215.64
7217.57
7219.28
7220.74
7221.95
7222.89
7223.55
7223.93
6836.19
6835.81
6835.12
6834.16
6832.92
6831.41
6829.66
6827.67
6825.49
6823.15
6820.67
6818.12
6815.54
6812.98
6810.49
6808.14
6805.98
6804.06
6802.42
6801.1
6800.15
6799.57
6799.39
6799.62
6800.23
6801.21
6802.54
6804.16
6806.04
6808.1
6810.3
6812.55
6814.79
6816.94
6818.94
6820.71
6822.2
6823.36
6824.14
6824.53
6824.5
6824.07
6823.24
6822.05
6820.53
6818.72
6816.72
6814.55
6812.31
6810.07
6807.89
6805.86
6804.04
6802.48
6801.23
6800.33
6799.82
6799.7
6799.99
6800.68
6801.76
6803.19
6804.93
6806.97
6809.22
6811.66
6814.21
6816.83
6819.46
6822.04
6824.54
6826.9
6829.08
6831.06
6832.81
6834.31
6835.54
6836.5
6837.18
6837.56
6450.1
6449.72
6449.01
6448.02
6446.74
6445.18
6443.36
6441.29
6439.01
6436.55
6433.94
6431.24
6428.51
6425.79
6423.14
6420.63
6418.31
6416.24
6414.47
6413.05
6412.01
6411.38
6411.18
6411.41
6412.07
6413.13
6414.57
6416.34
6418.38
6420.64
6423.05
6425.52
6427.97
6430.33
6432.53
6434.48
6436.12
6437.4
6438.26
6438.69
6438.67
6438.19
6437.27
6435.96
6434.28
6432.3
6430.08
6427.7
6425.24
6422.77
6420.39
6418.17
6416.18
6414.47
6413.11
6412.14
6411.59
6411.47
6411.79
6412.55
6413.71
6415.26
6417.15
6419.33
6421.74
6424.34
6427.06
6429.84
6432.62
6435.35
6437.97
6440.44
6442.72
6444.78
6446.59
6448.14
6449.41
6450.39
6451.08
6451.46
6064.31
6063.92
6063.2
6062.17
6060.84
6059.21
6057.3
6055.12
6052.7
6050.08
6047.29
6044.4
6041.46
6038.52
6035.65
6032.92
6030.4
6028.13
6026.19
6024.62
6023.47
6022.77
6022.53
6022.78
6023.5
6024.67
6026.26
6028.23
6030.51
6033.03
6035.72
6038.48
6041.23
6043.89
6046.36
6048.55
6050.4
6051.85
6052.83
6053.31
6053.29
6052.75
6051.72
6050.23
6048.34
6046.1
6043.61
6040.93
6038.16
6035.39
6032.73
6030.24
6028.01
6026.11
6024.6
6023.53
6022.92
6022.8
6023.16
6024
6025.29
6026.99
6029.07
6031.45
6034.08
6036.91
6039.85
6042.84
6045.83
6048.75
6051.54
6054.16
6056.57
6058.74
6060.63
6062.24
6063.55
6064.56
6065.28
6065.67
5678.84
5678.43
5677.69
5676.62
5675.23
5673.52
5671.49
5669.17
5666.58
5663.76
5660.75
5657.61
5654.4
5651.18
5648.03
5645.02
5642.22
5639.7
5637.53
5635.78
5634.48
5633.68
5633.4
5633.67
5634.46
5635.78
5637.57
5639.78
5642.37
5645.23
5648.28
5651.44
5654.59
5657.63
5660.45
5662.97
5665.1
5666.76
5667.89
5668.45
5668.42
5667.81
5666.63
5664.92
5662.74
5660.18
5657.31
5654.24
5651.08
5647.91
5644.87
5642.04
5639.5
5637.35
5635.64
5634.43
5633.76
5633.63
5634.04
5634.99
5636.45
5638.36
5640.67
5643.32
5646.24
5649.35
5652.58
5655.85
5659.1
5662.27
5665.28
5668.09
5670.66
5672.96
5674.96
5676.64
5678
5679.05
5679.78
5680.18
5293.68
5293.27
5292.5
5291.4
5289.95
5288.14
5285.97
5283.48
5280.68
5277.61
5274.33
5270.88
5267.34
5263.77
5260.26
5256.9
5253.75
5250.92
5248.46
5246.46
5244.98
5244.05
5243.72
5244.01
5244.9
5246.38
5248.42
5250.96
5253.92
5257.22
5260.75
5264.39
5268.04
5271.57
5274.85
5277.79
5280.27
5282.2
5283.52
5284.17
5284.15
5283.43
5282.06
5280.07
5277.54
5274.55
5271.22
5267.66
5263.98
5260.32
5256.79
5253.52
5250.6
5248.12
5246.17
5244.79
5244.03
5243.89
5244.38
5245.48
5247.14
5249.31
5251.93
5254.91
5258.19
5261.66
5265.25
5268.88
5272.46
5275.92
5279.2
5282.25
5285.02
5287.47
5289.59
5291.36
5292.78
5293.85
5294.6
5295
4908.87
4908.44
4907.66
4906.53
4905.01
4903.09
4900.77
4898.07
4895.03
4891.67
4888.05
4884.23
4880.28
4876.29
4872.34
4868.54
4864.97
4861.74
4858.93
4856.62
4854.9
4853.82
4853.41
4853.71
4854.72
4856.42
4858.76
4861.69
4865.13
4868.96
4873.07
4877.33
4881.6
4885.74
4889.6
4893.05
4895.97
4898.25
4899.81
4900.58
4900.55
4899.72
4898.1
4895.76
4892.78
4889.27
4885.35
4881.17
4876.85
4872.56
4868.44
4864.62
4861.23
4858.36
4856.1
4854.52
4853.65
4853.52
4854.1
4855.38
4857.31
4859.81
4862.8
4866.21
4869.92
4873.85
4877.89
4881.94
4885.92
4889.74
4893.35
4896.67
4899.66
4902.3
4904.56
4906.42
4907.89
4908.99
4909.75
4910.16
4524.4
4523.97
4523.19
4522.03
4520.42
4518.38
4515.89
4512.98
4509.65
4505.95
4501.93
4497.67
4493.24
4488.74
4484.26
4479.93
4475.84
4472.12
4468.86
4466.18
4464.16
4462.87
4462.37
4462.68
4463.82
4465.77
4468.48
4471.89
4475.9
4480.39
4485.22
4490.24
4495.28
4500.17
4504.75
4508.84
4512.31
4515.02
4516.87
4517.8
4517.77
4516.77
4514.85
4512.07
4508.54
4504.38
4499.74
4494.78
4489.69
4484.62
4479.77
4475.28
4471.3
4467.95
4465.33
4463.51
4462.52
4462.4
4463.11
4464.63
4466.88
4469.79
4473.26
4477.18
4481.44
4485.91
4490.48
4495.05
4499.5
4503.76
4507.74
4511.37
4514.63
4517.46
4519.87
4521.82
4523.37
4524.48
4525.23
4525.64
4140.3
4139.87
4139.11
4137.91
4136.21
4134.01
4131.35
4128.2
4124.57
4120.49
4116.02
4111.24
4106.24
4101.12
4096.01
4091.03
4086.31
4081.99
4078.2
4075.05
4072.66
4071.11
4070.47
4070.79
4072.07
4074.31
4077.46
4081.44
4086.15
4091.43
4097.14
4103.09
4109.08
4114.9
4120.36
4125.25
4129.39
4132.63
4134.85
4135.97
4135.93
4134.74
4132.45
4129.13
4124.91
4119.94
4114.4
4108.5
4102.44
4096.43
4090.69
4085.39
4080.7
4076.77
4073.72
4071.62
4070.51
4070.41
4071.29
4073.1
4075.77
4079.19
4083.24
4087.79
4092.71
4097.84
4103.06
4108.23
4113.25
4118
4122.41
4126.4
4129.92
4132.96
4135.52
4137.65
4139.23
4140.35
4141.08
4141.47
3756.58
3756.21
3755.4
3754.05
3752.18
3749.82
3747.04
3743.72
3739.8
3735.31
3730.34
3724.96
3719.29
3713.45
3707.58
3701.82
3696.34
3691.29
3686.83
3683.11
3680.26
3678.38
3677.56
3677.86
3679.31
3681.88
3685.55
3690.21
3695.75
3702
3708.77
3715.85
3722.99
3729.96
3736.48
3742.36
3747.34
3751.24
3753.92
3755.26
3755.22
3753.8
3751.04
3747.05
3741.99
3736.03
3729.39
3722.33
3715.1
3707.93
3701.1
3694.82
3689.29
3684.66
3681.1
3678.67
3677.43
3677.38
3678.49
3680.68
3683.87
3687.91
3692.68
3698
3703.71
3709.64
3715.63
3721.52
3727.2
3732.52
3737.4
3741.76
3745.52
3748.68
3751.3
3753.53
3755.3
3756.57
3757.33
3757.67
3373.34
3372.99
3371.89
3370.06
3367.94
3365.51
3362.83
3359.49
3355.36
3350.47
3344.94
3338.89
3332.44
3325.74
3318.96
3312.28
3305.88
3299.95
3294.68
3290.25
3286.81
3284.51
3283.46
3283.71
3285.32
3288.28
3292.54
3298.01
3304.54
3311.94
3320
3328.45
3337
3345.36
3353.23
3360.3
3366.3
3371.02
3374.26
3375.89
3375.85
3374.13
3370.81
3366
3359.89
3352.72
3344.74
3336.27
3327.59
3319.03
3310.87
3303.4
3296.86
3291.42
3287.26
3284.47
3283.09
3283.12
3284.52
3287.2
3291.03
3295.86
3301.5
3307.76
3314.43
3321.31
3328.22
3334.97
3341.4
3347.37
3352.76
3357.47
3361.39
3364.5
3366.97
3369.27
3371.22
3372.96
3374.01
3374.33
2990.7
2990.21
2988.47
2985.83
2983.27
2981.11
2978.78
2975.6
2971.33
2966.05
2959.92
2953.09
2945.73
2938.02
2930.16
2922.36
2914.85
2907.85
2901.59
2896.29
2892.14
2889.31
2887.93
2888.1
2889.87
2893.25
2898.19
2904.61
2912.31
2921.1
2930.7
2940.81
2951.08
2961.14
2970.63
2979.17
2986.45
2992.18
2996.12
2998.11
2998.07
2995.99
2991.96
2986.14
2978.76
2970.1
2960.48
2950.27
2939.84
2929.58
2919.83
2910.94
2903.18
2896.78
2891.93
2888.73
2887.22
2887.4
2889.19
2892.49
2897.12
2902.91
2909.62
2917.02
2924.85
2932.87
2940.87
2948.62
2955.93
2962.64
2968.59
2973.63
2977.61
2980.48
2982.51
2984.39
2986.86
2989.44
2991.12
2991.58
2608.89
2608.08
2605.57
2602.19
2599.41
2597.45
2595.42
2592.36
2587.94
2582.22
2575.4
2567.66
2559.23
2550.32
2541.17
2532.03
2523.18
2514.89
2507.42
2501.05
2496.02
2492.51
2490.7
2490.72
2492.63
2496.46
2502.19
2509.7
2518.79
2529.22
2540.67
2552.79
2565.14
2577.28
2588.76
2599.12
2607.98
2614.96
2619.78
2622.22
2622.18
2619.65
2614.75
2607.68
2598.72
2588.23
2576.6
2564.28
2551.72
2539.39
2527.73
2517.13
2507.93
2500.41
2494.77
2491.12
2489.52
2489.92
2492.23
2496.31
2501.95
2508.92
2516.95
2525.73
2534.95
2544.35
2553.64
2562.58
2570.93
2578.49
2585.06
2590.46
2594.52
2597.19
2598.87
2600.55
2603.17
2606.47
2608.87
2609.59
2228.11
2227.03
2224.08
2220.41
2217.55
2215.54
2213.49
2210.3
2205.57
2199.27
2191.59
2182.77
2173.04
2162.68
2151.97
2141.21
2130.74
2120.88
2111.95
2104.29
2098.15
2093.79
2091.41
2091.17
2093.18
2097.49
2104.08
2112.86
2123.57
2135.96
2149.63
2164.16
2179.04
2193.73
2207.66
2220.26
2231.06
2239.6
2245.52
2248.53
2248.49
2245.4
2239.41
2230.79
2219.9
2207.17
2193.08
2178.18
2163.03
2148.21
2134.23
2121.59
2110.69
2101.86
2095.32
2091.21
2089.56
2090.3
2093.3
2098.37
2105.27
2113.7
2123.35
2133.78
2144.69
2155.74
2166.6
2176.96
2186.55
2195.12
2202.45
2208.33
2212.61
2215.35
2217
2218.68
2221.23
2224.95
2227.63
2228.56
1848.32
1847.24
1844.27
1840.71
1837.94
1835.78
1833.41
1829.84
1824.56
1817.47
1808.72
1798.54
1787.23
1775.11
1762.49
1749.74
1737.27
1725.51
1714.84
1705.6
1698.1
1692.67
1689.57
1688.99
1691.07
1695.88
1703.41
1713.69
1726.27
1740.93
1757.25
1774.67
1792.6
1810.38
1827.3
1842.66
1855.85
1866.34
1873.66
1877.4
1877.36
1873.56
1866.19
1855.65
1842.39
1826.93
1809.84
1791.81
1773.54
1755.71
1738.97
1723.9
1711
1700.64
1693.1
1688.49
1686.84
1688.03
1691.9
1698.21
1706.66
1716.9
1728.48
1740.94
1753.92
1767
1779.76
1791.84
1802.94
1812.77
1821.05
1827.6
1832.3
1835.32
1837.2
1839
1841.5
1844.79
1847.45
1848.39
1469.16
1468.26
1465.83
1462.67
1460.33
1458.09
1455.36
1451.26
1445.25
1437.14
1427.01
1415.13
1401.83
1387.51
1372.49
1357.19
1342.17
1328.05
1315.34
1304.19
1295.07
1288.37
1284.41
1283.39
1285.49
1290.84
1299.48
1311.36
1326.19
1343.59
1363.05
1383.93
1405.57
1427.11
1447.66
1466.41
1482.54
1495.43
1504.5
1509.17
1509.13
1504.41
1495.33
1482.44
1466.32
1447.53
1426.82
1404.99
1382.91
1361.46
1341.4
1323.41
1308.1
1295.94
1287.23
1282.1
1280.53
1282.33
1287.27
1295.06
1305.39
1317.81
1331.71
1346.67
1362.25
1377.91
1393.05
1407.28
1420.26
1431.66
1441.17
1448.57
1453.84
1457.22
1459.33
1461.12
1463.25
1465.89
1467.92
1468.62
1089.79
1089.45
1088.09
1086.5
1084.48
1082.42
1079.49
1074.87
1067.97
1058.5
1046.53
1032.39
1016.55
999.456
981.396
962.76
944.355
927.252
912.427
898.991
887.708
879.304
874.122
872.37
874.314
880.205
890.132
904.092
921.885
942.881
966.319
991.381
1017.44
1043.64
1068.69
1091.51
1111.12
1127
1138.39
1144.33
1144.29
1138.32
1126.98
1111.17
1091.68
1068.98
1043.81
1017.26
990.615
964.819
940.583
918.769
900.218
885.708
875.53
869.838
868.559
871.345
877.782
887.562
900.356
915.503
932.049
949.957
968.944
987.955
1006.13
1023.04
1038.41
1051.87
1063.01
1071.55
1077.49
1081.17
1083.26
1084.65
1086.04
1087.39
1088.33
1088.44
708.942
709.468
709.488
709.644
709.623
708.763
706.28
701.47
693.709
682.624
668.31
651.335
632.429
612.094
590.369
567.304
544.148
522.877
505.794
488.054
473.146
462.332
455.618
452.9
454.595
461.143
472.739
489.55
511.457
537.457
566.362
596.956
628.366
659.735
689.939
718.003
741.964
761.649
776.135
783.862
783.774
776.077
761.741
742.24
718.602
691.011
660.482
628.766
596.803
565.365
535.368
508.135
484.999
467.185
454.989
448.533
447.698
451.813
460.238
472.737
489.376
509.187
529.671
551.072
574.747
598.217
620.093
640.181
658.435
674.46
687.654
697.547
704.076
707.66
709.06
709.134
708.643
708.083
707.519
706.561
329.462
330.505
332.264
335.024
337.712
338.682
337.268
333.114
325.452
313.73
298.272
280.249
260.852
240.611
219.276
196.765
174.953
156.237
141.907
130.085
120.833
114.763
111.511
110.155
111.146
115.143
123.07
135.118
151.637
172.123
195.918
222.681
252.442
285.247
318.611
348.43
374.961
397.558
415.528
425.426
425.165
415.41
397.697
375.319
349.301
319.688
286.802
253.806
223.254
195.566
170.666
149.058
131.555
118.731
110.794
106.967
106.564
108.821
113.308
120.687
131.504
145.143
161
180.874
203.504
226.424
248.032
268.161
286.876
303.754
317.909
328.433
334.979
338.015
338.371
336.748
333.784
330.709
328.546
327.278
65.5035
65.9129
67.216
69.6187
72.2089
73.4614
73.1595
71.3781
67.5506
61.2855
53.0845
44.1127
35.2338
26.6146
18.0978
10.0122
3.48884
-0.841443
-3.64311
-5.88044
-7.48725
-8.30351
-8.36639
-8.33446
-8.2576
-7.9154
-6.63002
-4.39394
-0.923284
4.05
10.6972
19.2322
29.5784
42.8725
59.1963
75.8688
91.6743
107.066
121.344
129.464
128.932
121.183
107.33
92.0192
76.6418
60.2925
43.7426
29.9625
19.2007
10.3634
3.36289
-1.85552
-5.45517
-7.7356
-8.58925
-8.76328
-8.8184
-8.85489
-8.85363
-7.97727
-6.09144
-3.36167
-0.0208692
4.94206
12.148
20.6864
29.555
38.3986
47.1699
55.6319
63.1473
68.8817
72.2861
73.6151
73.3998
71.945
69.388
66.8255
65.3076
64.7483
-9.78977
-9.95535
-9.91523
-9.88807
-9.84331
-9.7766
-9.7437
-9.76479
-9.81059
-9.84454
-9.83097
-9.80715
-9.79079
-9.76997
-9.70798
-9.57088
-9.41009
-9.30511
-9.24405
-9.16944
-9.07275
-8.97426
-8.91294
-8.86824
-8.83259
-8.80878
-8.82829
-8.87952
-8.95482
-9.04866
-9.15766
-9.2772
-9.39427
-9.49071
-9.60165
-9.41385
-8.4059
-6.21851
-3.57122
-1.84137
-1.95503
-3.60611
-6.19567
-8.45173
-9.59395
-9.88379
-9.81097
-9.70065
-9.57677
-9.45241
-9.34634
-9.2715
-9.22584
-9.21498
-9.26649
-9.3361
-9.38845
-9.45387
-9.57889
-9.77604
-9.93296
-10.007
-9.99559
-9.93381
-9.86316
-9.8082
-9.76457
-9.71585
-9.66779
-9.6244
-9.56631
-9.45827
-9.35452
-9.29652
-9.27708
-9.28327
-9.29041
-9.28729
-9.34599
-9.27497
-10.4852
-10.5429
-10.5379
-10.5405
-10.5581
-10.5706
-10.5616
-10.5481
-10.546
-10.539
-10.5144
-10.4737
-10.4222
-10.3632
-10.2917
-10.1695
-10.005
-9.8638
-9.76678
-9.66163
-9.5558
-9.47199
-9.41359
-9.37918
-9.36813
-9.37956
-9.41449
-9.46646
-9.53086
-9.60709
-9.69676
-9.8032
-9.91984
-10.0388
-10.1541
-10.2569
-10.3629
-10.4406
-10.497
-10.4937
-10.48
-10.6073
-10.6403
-10.5825
-10.4903
-10.4147
-10.3143
-10.1965
-10.0855
-9.98567
-9.9015
-9.83882
-9.80195
-9.78805
-9.8078
-9.85794
-9.93318
-10.0062
-10.0956
-10.2173
-10.3431
-10.4218
-10.4392
-10.4105
-10.3684
-10.338
-10.3213
-10.2934
-10.2549
-10.2156
-10.1753
-10.1319
-10.0923
-10.0643
-10.038
-10.0062
-9.96342
-9.93516
-9.93429
-9.91057
-11.0964
-11.1225
-11.1004
-11.0852
-11.0938
-11.1372
-11.1698
-11.1581
-11.1361
-11.1126
-11.0652
-11.0007
-10.9311
-10.8593
-10.77
-10.6497
-10.5306
-10.4172
-10.288
-10.1722
-10.0702
-9.98359
-9.91781
-9.88455
-9.88697
-9.92094
-9.97605
-10.0397
-10.1062
-10.1761
-10.2523
-10.3375
-10.4369
-10.5495
-10.6369
-10.7237
-10.8168
-10.9106
-11.0158
-11.0813
-11.0762
-11.0902
-11.0633
-11.0016
-10.9341
-10.8694
-10.8037
-10.7119
-10.6153
-10.5227
-10.4598
-10.4173
-10.3944
-10.3952
-10.4041
-10.4202
-10.4806
-10.5654
-10.6469
-10.7405
-10.8232
-10.8674
-10.8698
-10.8453
-10.8093
-10.771
-10.737
-10.7122
-10.6928
-10.6804
-10.6691
-10.6575
-10.6348
-10.595
-10.5646
-10.5315
-10.4954
-10.4619
-10.4483
-10.4318
-11.6989
-11.7126
-11.7178
-11.6978
-11.6994
-11.7718
-11.8281
-11.8204
-11.7837
-11.7371
-11.6583
-11.5495
-11.4456
-11.3549
-11.2643
-11.1674
-11.062
-10.959
-10.8375
-10.7159
-10.6116
-10.5178
-10.4439
-10.406
-10.4107
-10.4535
-10.5231
-10.5985
-10.6713
-10.7422
-10.8126
-10.8815
-10.9569
-11.0329
-11.1132
-11.1909
-11.262
-11.3407
-11.4308
-11.5049
-11.5313
-11.5159
-11.4848
-11.4351
-11.3718
-11.3047
-11.2449
-11.1895
-11.1248
-11.0673
-11.0559
-11.043
-11.0232
-11.0356
-11.0467
-11.0388
-11.0823
-11.1684
-11.241
-11.3047
-11.3544
-11.3725
-11.3524
-11.3163
-11.2818
-11.2509
-11.2239
-11.2025
-11.1869
-11.1736
-11.167
-11.1656
-11.1534
-11.1253
-11.0942
-11.0618
-11.0257
-10.9761
-10.9515
-10.9412
-12.2955
-12.3188
-12.3681
-12.3901
-12.4227
-12.5044
-12.5456
-12.5325
-12.4883
-12.4101
-12.2909
-12.1371
-12.0094
-11.908
-11.8116
-11.7176
-11.6313
-11.5276
-11.421
-11.3136
-11.2144
-11.1273
-11.0591
-11.0141
-11.0057
-11.0349
-11.0983
-11.1817
-11.2578
-11.3265
-11.3943
-11.465
-11.5307
-11.5996
-11.6622
-11.7207
-11.7756
-11.8347
-11.9007
-11.9629
-11.9979
-11.9824
-11.9523
-11.9116
-11.8506
-11.7915
-11.7538
-11.7281
-11.6847
-11.6469
-11.664
-11.6954
-11.6802
-11.6732
-11.6881
-11.6759
-11.6936
-11.7529
-11.7977
-11.833
-11.8724
-11.8793
-11.8493
-11.8091
-11.7745
-11.7478
-11.7263
-11.7092
-11.6951
-11.6825
-11.6713
-11.6598
-11.6463
-11.6318
-11.6107
-11.6022
-11.5585
-11.4995
-11.466
-11.4535
-12.842
-12.8842
-12.9812
-13.0936
-13.2127
-13.3003
-13.3024
-13.2482
-13.193
-13.0961
-12.9362
-12.7644
-12.6348
-12.5309
-12.4365
-12.3494
-12.2727
-12.1896
-12.1154
-12.033
-11.9448
-11.864
-11.7917
-11.7264
-11.6899
-11.6875
-11.7202
-11.7887
-11.8658
-11.9274
-11.9832
-12.0406
-12.0975
-12.1554
-12.2109
-12.2621
-12.3089
-12.3538
-12.3975
-12.4353
-12.4592
-12.4597
-12.4369
-12.414
-12.375
-12.3301
-12.2901
-12.2682
-12.2386
-12.2153
-12.2361
-12.2813
-12.2885
-12.2608
-12.2508
-12.2612
-12.2461
-12.2653
-12.3041
-12.3467
-12.3911
-12.3988
-12.3633
-12.3204
-12.2872
-12.2643
-12.2473
-12.2333
-12.2202
-12.2065
-12.1915
-12.1726
-12.1514
-12.1314
-12.1184
-12.1289
-12.1135
-12.0398
-11.9809
-11.9668
-13.3278
-13.4051
-13.5875
-13.7719
-13.9177
-13.9623
-13.9298
-13.8835
-13.8341
-13.7261
-13.5556
-13.405
-13.295
-13.2092
-13.1366
-13.0777
-13.0277
-12.9862
-12.9444
-12.8787
-12.7879
-12.6836
-12.5763
-12.475
-12.4101
-12.3878
-12.3977
-12.4362
-12.4996
-12.5502
-12.5872
-12.6268
-12.6708
-12.7155
-12.7583
-12.7975
-12.8326
-12.8646
-12.8938
-12.9165
-12.9317
-12.9395
-12.9321
-12.9277
-12.9311
-12.8984
-12.8451
-12.7946
-12.769
-12.7489
-12.7562
-12.7871
-12.8064
-12.7925
-12.7721
-12.7915
-12.7829
-12.7852
-12.8234
-12.8668
-12.9167
-12.925
-12.891
-12.8488
-12.8195
-12.802
-12.7896
-12.7787
-12.767
-12.7525
-12.734
-12.7108
-12.6828
-12.6564
-12.6385
-12.6434
-12.6521
-12.5893
-12.5055
-12.4778
-13.8382
-13.9931
-14.1899
-14.3412
-14.4333
-14.4463
-14.4266
-14.4095
-14.3652
-14.2662
-14.1293
-14.0234
-13.9565
-13.9164
-13.8969
-13.8868
-13.891
-13.8907
-13.8386
-13.7529
-13.6338
-13.4915
-13.3459
-13.2149
-13.1361
-13.1041
-13.1047
-13.1315
-13.1677
-13.201
-13.2113
-13.2259
-13.252
-13.2815
-13.3099
-13.336
-13.3587
-13.3785
-13.3961
-13.4092
-13.4164
-13.421
-13.4231
-13.4282
-13.4579
-13.4513
-13.3955
-13.3251
-13.2797
-13.258
-13.2482
-13.2542
-13.2671
-13.2772
-13.2756
-13.2858
-13.3205
-13.3472
-13.3934
-13.4493
-13.4651
-13.4546
-13.423
-13.3897
-13.3698
-13.3611
-13.3567
-13.3527
-13.346
-13.3337
-13.3141
-13.2862
-13.2499
-13.2119
-13.1799
-13.1668
-13.1657
-13.1149
-13.0265
-12.9847
-14.3654
-14.5344
-14.6605
-14.7573
-14.8079
-14.8297
-14.8437
-14.8485
-14.817
-14.7476
-14.6618
-14.6041
-14.5877
-14.6177
-14.6763
-14.751
-14.7894
-14.7767
-14.7034
-14.5804
-14.4271
-14.2549
-14.0825
-13.9308
-13.8439
-13.8242
-13.8231
-13.8508
-13.874
-13.8756
-13.8478
-13.8313
-13.8364
-13.8498
-13.8649
-13.8795
-13.8926
-13.9034
-13.9116
-13.9158
-13.9144
-13.9096
-13.9073
-13.9124
-13.9391
-13.963
-13.9411
-13.8797
-13.8102
-13.7694
-13.7475
-13.7282
-13.7187
-13.7291
-13.7529
-13.7751
-13.8124
-13.8753
-13.9385
-13.9762
-13.9813
-13.9583
-13.942
-13.9331
-13.9335
-13.9422
-13.9546
-13.9659
-13.9706
-13.9644
-13.945
-13.9117
-13.8635
-13.8077
-13.7531
-13.711
-13.6833
-13.6301
-13.5407
-13.4886
-14.8489
-14.9577
-15.0365
-15.1029
-15.1554
-15.1956
-15.2294
-15.2462
-15.2319
-15.1917
-15.147
-15.1297
-15.1698
-15.2874
-15.4502
-15.5973
-15.642
-15.5993
-15.4917
-15.3298
-15.1466
-14.9605
-14.7813
-14.6238
-14.5257
-14.5139
-14.5344
-14.5709
-14.5917
-14.5535
-14.4815
-14.4337
-14.418
-14.4162
-14.4196
-14.4258
-14.4323
-14.4376
-14.4405
-14.439
-14.43
-14.4125
-14.398
-14.3974
-14.417
-14.4448
-14.4576
-14.4335
-14.3706
-14.2986
-14.2582
-14.2199
-14.1912
-14.1965
-14.2266
-14.2617
-14.3031
-14.3451
-14.3704
-14.3961
-14.4127
-14.4219
-14.4435
-14.4725
-14.5071
-14.5476
-14.5903
-14.6291
-14.6542
-14.6589
-14.641
-14.5983
-14.5319
-14.4513
-14.3662
-14.2871
-14.2225
-14.1509
-14.0573
-13.9983
-15.2831
-15.3418
-15.4022
-15.4581
-15.5091
-15.5587
-15.6039
-15.6307
-15.6263
-15.603
-15.5852
-15.5978
-15.6821
-15.8723
-16.1304
-16.3146
-16.3527
-16.2924
-16.1622
-15.9835
-15.7923
-15.6137
-15.4474
-15.306
-15.2119
-15.1799
-15.2067
-15.2602
-15.2715
-15.1981
-15.093
-15.0224
-14.9902
-14.9762
-14.9719
-14.973
-14.9758
-14.9787
-14.9801
-14.9765
-14.9605
-14.9273
-14.8983
-14.8926
-14.9132
-14.9417
-14.9559
-14.9554
-14.921
-14.8512
-14.7877
-14.7361
-14.6948
-14.6904
-14.7109
-14.7437
-14.7832
-14.8077
-14.8063
-14.8026
-14.8256
-14.8785
-14.9424
-15.0139
-15.0942
-15.1824
-15.2699
-15.3483
-15.4015
-15.4237
-15.4118
-15.3572
-15.2645
-15.1492
-15.0234
-14.8989
-14.7904
-14.6912
-14.5895
-14.5275
-15.699
-15.7404
-15.7843
-15.8284
-15.872
-15.9256
-15.9839
-16.0241
-16.0258
-16.0055
-15.9997
-16.0191
-16.1071
-16.2987
-16.5797
-16.7816
-16.8659
-16.825
-16.7073
-16.5512
-16.395
-16.2538
-16.1196
-16.0028
-15.9131
-15.8419
-15.8317
-15.8728
-15.8715
-15.7836
-15.6687
-15.5898
-15.5487
-15.5283
-15.5204
-15.5194
-15.5214
-15.5245
-15.5258
-15.5217
-15.5009
-15.4464
-15.4032
-15.395
-15.4292
-15.4668
-15.4767
-15.4586
-15.4297
-15.3766
-15.3105
-15.247
-15.1956
-15.175
-15.181
-15.2022
-15.2291
-15.2398
-15.2332
-15.2298
-15.2678
-15.3469
-15.4478
-15.5657
-15.7028
-15.8541
-16.0023
-16.136
-16.2277
-16.2692
-16.2547
-16.1806
-16.0566
-15.8992
-15.7232
-15.5438
-15.3862
-15.2528
-15.143
-15.0781
-16.1207
-16.1515
-16.1844
-16.22
-16.2568
-16.3175
-16.3978
-16.4571
-16.468
-16.452
-16.4247
-16.4205
-16.4779
-16.6315
-16.8653
-17.0903
-17.2295
-17.2449
-17.1765
-17.0747
-16.9855
-16.9086
-16.8169
-16.7046
-16.5858
-16.4805
-16.4304
-16.4264
-16.4043
-16.3161
-16.2115
-16.137
-16.0951
-16.0741
-16.0659
-16.0659
-16.0695
-16.0735
-16.0759
-16.0813
-16.0754
-16.037
-15.9893
-15.9639
-15.9881
-16.0309
-16.0317
-15.9823
-15.9135
-15.8429
-15.7729
-15.708
-15.6537
-15.6265
-15.6309
-15.6456
-15.6655
-15.6757
-15.6778
-15.6847
-15.733
-15.8312
-15.966
-16.1344
-16.34
-16.5756
-16.8291
-17.0747
-17.2631
-17.3383
-17.2852
-17.1253
-16.9118
-16.6981
-16.46
-16.2139
-16.0017
-15.8323
-15.7166
-15.6428
-16.5629
-16.5866
-16.6141
-16.6502
-16.6816
-16.7548
-16.8651
-16.9527
-16.998
-16.9894
-16.9381
-16.9024
-16.9274
-17.0438
-17.2367
-17.4356
-17.5623
-17.5967
-17.5854
-17.5634
-17.5443
-17.5139
-17.4496
-17.341
-17.2062
-17.085
-17.006
-16.9643
-16.9144
-16.8246
-16.7368
-16.6723
-16.6344
-16.6162
-16.6108
-16.6134
-16.6206
-16.627
-16.6354
-16.6622
-16.6973
-16.7035
-16.6596
-16.6194
-16.6229
-16.6471
-16.6231
-16.5345
-16.4179
-16.2969
-16.1963
-16.129
-16.0824
-16.0672
-16.0767
-16.0961
-16.1196
-16.1388
-16.1379
-16.1609
-16.22
-16.3323
-16.4968
-16.7175
-17.0147
-17.3977
-17.8258
-18.2137
-18.4982
-18.6088
-18.5196
-18.256
-17.9045
-17.5602
-17.2275
-16.8963
-16.6221
-16.4215
-16.3032
-16.2163
-17.0301
-17.054
-17.0883
-17.1249
-17.1531
-17.2364
-17.3821
-17.5182
-17.5964
-17.5919
-17.5437
-17.495
-17.4966
-17.5645
-17.6888
-17.8091
-17.8926
-17.9333
-17.964
-18.0055
-18.0412
-18.0389
-17.9843
-17.8883
-17.771
-17.6515
-17.5563
-17.4907
-17.423
-17.3321
-17.2598
-17.2054
-17.1727
-17.1583
-17.157
-17.1646
-17.1767
-17.1886
-17.2036
-17.2422
-17.3114
-17.3521
-17.3094
-17.2613
-17.2687
-17.276
-17.2176
-17.0983
-16.9478
-16.7823
-16.6374
-16.5518
-16.5135
-16.5137
-16.5272
-16.5566
-16.5865
-16.6069
-16.6115
-16.64
-16.712
-16.8397
-17.0284
-17.3149
-17.7645
-18.3154
-18.866
-19.3236
-19.635
-19.7521
-19.6648
-19.3741
-18.9428
-18.4376
-17.9836
-17.5582
-17.2208
-17.0085
-16.8953
-16.762
-17.5177
-17.5423
-17.5884
-17.6136
-17.6497
-17.7337
-17.903
-18.0914
-18.1909
-18.1956
-18.1481
-18.0906
-18.0643
-18.0816
-18.1293
-18.188
-18.2466
-18.3043
-18.3624
-18.4282
-18.4861
-18.5041
-18.472
-18.3974
-18.297
-18.1852
-18.0882
-18.0072
-17.9313
-17.8496
-17.7868
-17.7402
-17.7128
-17.7023
-17.7053
-17.7188
-17.7399
-17.7616
-17.7795
-17.8097
-17.873
-17.9317
-17.9134
-17.8484
-17.8388
-17.836
-17.7677
-17.6444
-17.4858
-17.2959
-17.1138
-17.0008
-16.9643
-16.9674
-16.9909
-17.0243
-17.0549
-17.0724
-17.0901
-17.1238
-17.2028
-17.3365
-17.547
-17.9446
-18.538
-19.1515
-19.7212
-20.189
-20.5151
-20.6517
-20.5691
-20.2737
-19.8169
-19.224
-18.6456
-18.1551
-17.7769
-17.5773
-17.4473
-17.2233
-18.0247
-18.0461
-18.0832
-18.0962
-18.1372
-18.2113
-18.3653
-18.5738
-18.6937
-18.7212
-18.6791
-18.6111
-18.557
-18.5396
-18.5449
-18.5814
-18.6402
-18.7113
-18.7823
-18.8511
-18.9103
-18.9394
-18.932
-18.8873
-18.8015
-18.6938
-18.5968
-18.5134
-18.4389
-18.37
-18.3157
-18.2772
-18.255
-18.2478
-18.2546
-18.2754
-18.3081
-18.3414
-18.3631
-18.3798
-18.4167
-18.4613
-18.4595
-18.3888
-18.3412
-18.319
-18.2629
-18.158
-18.0156
-17.8242
-17.6206
-17.4843
-17.4428
-17.4335
-17.4614
-17.4986
-17.5262
-17.5504
-17.5697
-17.6069
-17.6863
-17.8188
-18.0556
-18.5647
-19.1924
-19.7935
-20.3424
-20.8106
-21.1498
-21.3008
-21.2333
-20.9434
-20.4767
-19.8488
-19.1778
-18.6659
-18.3092
-18.093
-17.8703
-17.6413
-18.5487
-18.5651
-18.5852
-18.5892
-18.6034
-18.6609
-18.7732
-18.9273
-19.033
-19.0711
-19.0512
-19.0084
-18.9696
-18.9517
-18.9604
-19.0019
-19.0707
-19.1449
-19.2148
-19.281
-19.3382
-19.3762
-19.3863
-19.3581
-19.2763
-19.1779
-19.0879
-19.0111
-18.9449
-18.8875
-18.8434
-18.8137
-18.7973
-18.7933
-18.8046
-18.8327
-18.8745
-18.9135
-18.9338
-18.9406
-18.9668
-18.9989
-18.989
-18.9325
-18.841
-18.7869
-18.735
-18.6525
-18.5378
-18.358
-18.1468
-18.0002
-17.9492
-17.9318
-17.9609
-17.9827
-18.0088
-18.0353
-18.0555
-18.094
-18.1658
-18.2918
-18.5825
-19.1106
-19.6933
-20.2431
-20.7604
-21.2247
-21.5615
-21.7057
-21.6632
-21.3872
-20.9269
-20.3167
-19.6383
-19.1209
-18.791
-18.523
-18.2512
-18.1102
-19.0855
-19.111
-19.113
-19.1061
-19.0917
-19.113
-19.1647
-19.2494
-19.3152
-19.344
-19.3645
-19.3765
-19.3808
-19.3819
-19.4039
-19.4596
-19.5341
-19.604
-19.6693
-19.733
-19.7884
-19.8298
-19.8426
-19.8034
-19.7263
-19.6425
-19.5672
-19.5033
-19.4498
-19.4022
-19.3695
-19.3486
-19.3379
-19.3389
-19.3566
-19.392
-19.4415
-19.4911
-19.5227
-19.5293
-19.5621
-19.6145
-19.6266
-19.556
-19.4089
-19.304
-19.2238
-19.1531
-19.0653
-18.8974
-18.6841
-18.5421
-18.4764
-18.4653
-18.47
-18.4806
-18.5077
-18.5398
-18.5607
-18.5958
-18.6548
-18.7811
-19.0801
-19.5605
-20.0746
-20.5602
-21.0346
-21.4677
-21.7852
-21.9339
-21.8842
-21.6217
-21.1871
-20.6246
-20.0115
-19.5111
-19.1637
-18.8917
-18.7296
-18.6753
-19.6319
-19.663
-19.6648
-19.6535
-19.6372
-19.6242
-19.6387
-19.6801
-19.7222
-19.7458
-19.7677
-19.8028
-19.8261
-19.8438
-19.8808
-19.942
-20.0107
-20.0791
-20.1441
-20.2032
-20.2541
-20.2887
-20.2777
-20.2268
-20.1615
-20.0984
-20.0417
-19.9919
-19.9498
-19.9157
-19.8932
-19.8799
-19.8756
-19.8844
-19.911
-19.9576
-20.0224
-20.1
-20.1815
-20.2595
-20.3442
-20.4255
-20.4473
-20.3328
-20.1281
-19.9347
-19.7564
-19.6737
-19.6124
-19.4484
-19.235
-19.1163
-19.0397
-19.0182
-19.0041
-19.0125
-19.0493
-19.0811
-19.0961
-19.1209
-19.1639
-19.2803
-19.5424
-19.9449
-20.3866
-20.8076
-21.214
-21.5858
-21.8481
-21.9629
-21.8997
-21.649
-21.2406
-20.728
-20.1959
-19.7513
-19.4369
-19.2658
-19.2362
-19.2429
-20.1768
-20.1952
-20.2147
-20.2058
-20.1875
-20.1693
-20.1752
-20.1979
-20.2176
-20.2277
-20.2441
-20.2745
-20.3026
-20.3309
-20.3731
-20.43
-20.4916
-20.5561
-20.6188
-20.6707
-20.7056
-20.7157
-20.6905
-20.649
-20.6031
-20.5584
-20.5167
-20.4794
-20.4485
-20.4256
-20.4121
-20.4061
-20.4092
-20.4277
-20.4667
-20.5316
-20.6255
-20.7503
-20.905
-21.0974
-21.2701
-21.3787
-21.3768
-21.2336
-20.982
-20.6805
-20.3956
-20.2698
-20.1959
-20.0112
-19.8221
-19.7156
-19.6392
-19.6037
-19.5837
-19.6071
-19.6446
-19.6545
-19.6584
-19.6673
-19.6931
-19.7847
-19.9977
-20.3161
-20.6914
-21.0628
-21.4012
-21.6864
-21.8694
-21.9279
-21.8408
-21.5841
-21.1911
-20.7472
-20.3363
-20.0189
-19.8181
-19.7438
-19.7589
-19.7738
-20.6961
-20.705
-20.7294
-20.7193
-20.6969
-20.6839
-20.6888
-20.7071
-20.7234
-20.7339
-20.7481
-20.7692
-20.7954
-20.8228
-20.8572
-20.9048
-20.9612
-21.0192
-21.0696
-21.1076
-21.1264
-21.1234
-21.1057
-21.081
-21.0523
-21.0221
-20.9924
-20.9659
-20.9451
-20.9315
-20.9251
-20.926
-20.9364
-20.9654
-21.0201
-21.1083
-21.2424
-21.4212
-21.6291
-21.8675
-22.0865
-22.2236
-22.2264
-22.0874
-21.794
-21.4096
-21.1162
-20.9483
-20.8075
-20.597
-20.4283
-20.3288
-20.2574
-20.2261
-20.217
-20.2378
-20.2536
-20.2411
-20.2328
-20.2273
-20.2419
-20.311
-20.476
-20.7383
-21.0605
-21.389
-21.6782
-21.9023
-22.0377
-22.0497
-21.9221
-21.6592
-21.3065
-20.9495
-20.6613
-20.4666
-20.3541
-20.3072
-20.3096
-20.3112
-21.1887
-21.1913
-21.2052
-21.2018
-21.1887
-21.1796
-21.1841
-21.2021
-21.2234
-21.2407
-21.2499
-21.2624
-21.2786
-21.2969
-21.3224
-21.36
-21.4097
-21.4598
-21.4993
-21.5264
-21.5411