/*--------------------------------*- C++ -*----------------------------------*\
| =========                 |                                                 |
| \\      /  F ield         | OpenFOAM: The Open Source CFD Toolbox           |
|  \\    /   O peration     | Version:  2412                                  |
|   \\  /    A nd           | Website:  www.openfoam.com                      |
|    \\/     M anipulation  |                                                 |
\*---------------------------------------------------------------------------*/
FoamFile
{
    version     2.0;
    format      ascii;
    arch        "LSB;label=32;scalar=64";
    class       volVectorField;
    location    "9.85";
    object      U;
}
// * * * * * * * * * * * * * * * * * * * * * * * * * * * * * * * * * * * * * //

dimensions      [0 1 -1 0 0 0 0];

internalField   nonuniform List<vector> 
6400
(
(2.35942e-07 -2.42665e-07 0)
(1.03329e-06 -4.68454e-07 0)
(1.72481e-06 -4.78139e-07 0)
(2.10299e-06 -3.58491e-07 0)
(1.8319e-06 -2.04529e-07 0)
(7.99386e-07 -4.811e-08 0)
(-9.95889e-07 1.01805e-07 0)
(-3.49986e-06 2.37357e-07 0)
(-6.64982e-06 3.59903e-07 0)
(-1.03555e-05 4.61835e-07 0)
(-1.4536e-05 5.47826e-07 0)
(-1.90858e-05 6.11358e-07 0)
(-2.39263e-05 6.62035e-07 0)
(-2.89536e-05 6.91815e-07 0)
(-3.41047e-05 7.12343e-07 0)
(-3.92784e-05 7.11338e-07 0)
(-4.44241e-05 7.03356e-07 0)
(-4.94343e-05 6.73181e-07 0)
(-5.42673e-05 6.40033e-07 0)
(-5.88066e-05 5.84992e-07 0)
(-6.30234e-05 5.31277e-07 0)
(-6.6791e-05 4.54972e-07 0)
(-7.00945e-05 3.83144e-07 0)
(-7.27936e-05 2.8663e-07 0)
(-7.48887e-05 1.96729e-07 0)
(-7.62257e-05 7.99526e-08 0)
(-7.68274e-05 -2.71904e-08 0)
(-7.65328e-05 -1.61047e-07 0)
(-7.53993e-05 -2.79922e-07 0)
(-7.327e-05 -4.22347e-07 0)
(-7.02511e-05 -5.43179e-07 0)
(-6.62029e-05 -6.8271e-07 0)
(-6.12908e-05 -7.94e-07 0)
(-5.54014e-05 -9.17814e-07 0)
(-4.8762e-05 -1.0072e-06 0)
(-4.12866e-05 -1.10224e-06 0)
(-3.32568e-05 -1.15854e-06 0)
(-2.46065e-05 -1.21469e-06 0)
(-1.56551e-05 -1.23124e-06 0)
(-6.34702e-06 -1.2439e-06 0)
(2.9789e-06 -1.21934e-06 0)
(1.23746e-05 -1.1885e-06 0)
(2.14966e-05 -1.12475e-06 0)
(3.03979e-05 -1.05329e-06 0)
(3.87462e-05 -9.55027e-07 0)
(4.66029e-05 -8.49501e-07 0)
(5.36661e-05 -7.25613e-07 0)
(6.00178e-05 -5.97659e-07 0)
(6.54075e-05 -4.62055e-07 0)
(6.99474e-05 -3.27876e-07 0)
(7.34482e-05 -1.96879e-07 0)
(7.60488e-05 -7.20223e-08 0)
(7.76181e-05 4.23728e-08 0)
(7.83133e-05 1.49014e-07 0)
(7.80549e-05 2.41567e-07 0)
(7.70097e-05 3.2619e-07 0)
(7.51386e-05 3.95022e-07 0)
(7.2606e-05 4.56249e-07 0)
(6.94006e-05 5.01354e-07 0)
(6.56752e-05 5.39453e-07 0)
(6.14368e-05 5.62347e-07 0)
(5.68246e-05 5.7999e-07 0)
(5.18625e-05 5.8541e-07 0)
(4.66809e-05 5.87922e-07 0)
(4.13219e-05 5.80286e-07 0)
(3.59103e-05 5.69111e-07 0)
(3.05028e-05 5.46498e-07 0)
(2.52189e-05 5.1681e-07 0)
(2.01266e-05 4.72812e-07 0)
(1.53419e-05 4.17628e-07 0)
(1.09442e-05 3.45163e-07 0)
(7.04745e-06 2.5773e-07 0)
(3.73616e-06 1.51316e-07 0)
(1.11007e-06 2.94587e-08 0)
(-7.66318e-07 -1.0756e-07 0)
(-1.84006e-06 -2.52047e-07 0)
(-2.11876e-06 -3.94512e-07 0)
(-1.70121e-06 -5.10533e-07 0)
(-9.009e-07 -5.43692e-07 0)
(-1.31804e-07 -3.76564e-07 0)
(2.63703e-07 -1.28583e-06 0)
(1.47671e-06 -2.17526e-06 0)
(2.1954e-06 -1.79938e-06 0)
(1.87998e-06 -6.77056e-07 0)
(-6.10801e-08 7.7904e-07 0)
(-3.87573e-06 2.33276e-06 0)
(-9.56616e-06 3.84203e-06 0)
(-1.70521e-05 5.24712e-06 0)
(-2.61569e-05 6.49345e-06 0)
(-3.67067e-05 7.5751e-06 0)
(-4.84517e-05 8.46182e-06 0)
(-6.11926e-05 9.17501e-06 0)
(-7.46529e-05 9.68835e-06 0)
(-8.86492e-05 1.00372e-05 0)
(-0.000102898 1.01884e-05 0)
(-0.000117247 1.01892e-05 0)
(-0.000131399 9.99612e-06 0)
(-0.00014523 9.66887e-06 0)
(-0.000158423 9.14992e-06 0)
(-0.000170884 8.51054e-06 0)
(-0.000182266 7.67676e-06 0)
(-0.000192514 6.73396e-06 0)
(-0.000201245 5.59312e-06 0)
(-0.00020845 4.35721e-06 0)
(-0.000213706 2.92501e-06 0)
(-0.000217066 1.42001e-06 0)
(-0.000218078 -2.66851e-07 0)
(-0.000216881 -1.98917e-06 0)
(-0.000213018 -3.85824e-06 0)
(-0.000206749 -5.70459e-06 0)
(-0.000197639 -7.63718e-06 0)
(-0.000186099 -9.46792e-06 0)
(-0.000171751 -1.13021e-05 0)
(-0.000155175 -1.29441e-05 0)
(-0.000136064 -1.44992e-05 0)
(-0.000115165 -1.57811e-05 0)
(-9.22328e-05 -1.69e-05 0)
(-6.81485e-05 -1.76933e-05 0)
(-4.27038e-05 -1.82754e-05 0)
(-1.68611e-05 -1.85131e-05 0)
(9.57313e-06 -1.85162e-05 0)
(3.56032e-05 -1.81813e-05 0)
(6.14219e-05 -1.76073e-05 0)
(8.60443e-05 -1.67227e-05 0)
(0.000109677 -1.56162e-05 0)
(0.000131397 -1.42532e-05 0)
(0.000151448 -1.27144e-05 0)
(0.000169024 -1.10025e-05 0)
(0.000184435 -9.18924e-06 0)
(0.000197034 -7.30549e-06 0)
(0.00020721 -5.40543e-06 0)
(0.000214485 -3.53047e-06 0)
(0.000219305 -1.70792e-06 0)
(0.000221348 2.15139e-08 0)
(0.000221089 1.65412e-06 0)
(0.000218334 3.15056e-06 0)
(0.000213562 4.5229e-06 0)
(0.000206679 5.73407e-06 0)
(0.000198144 6.80678e-06 0)
(0.000187937 7.70809e-06 0)
(0.000176481 8.46718e-06 0)
(0.000163811 9.05618e-06 0)
(0.000150315 9.50577e-06 0)
(0.000136073 9.79007e-06 0)
(0.000121447 9.93419e-06 0)
(0.000106561 9.91082e-06 0)
(9.17537e-05 9.73671e-06 0)
(7.71863e-05 9.38455e-06 0)
(6.31791e-05 8.86552e-06 0)
(4.99204e-05 8.15699e-06 0)
(3.77135e-05 7.27023e-06 0)
(2.67602e-05 6.19406e-06 0)
(1.7332e-05 4.94934e-06 0)
(9.60466e-06 3.54875e-06 0)
(3.76423e-06 2.04173e-06 0)
(-1.23066e-07 4.95112e-07 0)
(-2.07274e-06 -9.5442e-07 0)
(-2.34451e-06 -2.07963e-06 0)
(-1.51947e-06 -2.48735e-06 0)
(-2.51014e-07 -1.57726e-06 0)
(1.90435e-07 -2.50031e-06 0)
(9.99512e-07 -3.73228e-06 0)
(7.13209e-07 -2.34165e-06 0)
(-1.31105e-06 5.88916e-07 0)
(-5.77391e-06 4.27263e-06 0)
(-1.294e-05 8.1841e-06 0)
(-2.28463e-05 1.20281e-05 0)
(-3.53364e-05 1.56033e-05 0)
(-5.0219e-05 1.88213e-05 0)
(-6.71716e-05 2.15882e-05 0)
(-8.59188e-05 2.39019e-05 0)
(-0.000106062 2.57093e-05 0)
(-0.000127317 2.70533e-05 0)
(-0.000149255 2.78858e-05 0)
(-0.000171622 2.82752e-05 0)
(-0.000193965 2.81617e-05 0)
(-0.000216074 2.76344e-05 0)
(-0.000237464 2.66133e-05 0)
(-0.000257974 2.52065e-05 0)
(-0.000277074 2.33083e-05 0)
(-0.000294661 2.10479e-05 0)
(-0.000310152 1.82946e-05 0)
(-0.000323512 1.52059e-05 0)
(-0.000334097 1.16316e-05 0)
(-0.000341963 7.76493e-06 0)
(-0.000346409 3.44419e-06 0)
(-0.000347615 -1.09517e-06 0)
(-0.000344847 -6.01472e-06 0)
(-0.000338449 -1.10304e-05 0)
(-0.000327693 -1.6291e-05 0)
(-0.000313142 -2.14644e-05 0)
(-0.000294118 -2.66812e-05 0)
(-0.000271445 -3.15774e-05 0)
(-0.000244537 -3.62749e-05 0)
(-0.000214494 -4.04111e-05 0)
(-0.000180832 -4.41188e-05 0)
(-0.000144895 -4.70753e-05 0)
(-0.000106277 -4.94364e-05 0)
(-6.64903e-05 -5.09405e-05 0)
(-2.5165e-05 -5.17585e-05 0)
(1.60977e-05 -5.16913e-05 0)
(5.76601e-05 -5.09085e-05 0)
(9.79046e-05 -4.92732e-05 0)
(0.000137204 -4.69487e-05 0)
(0.000174 -4.38698e-05 0)
(0.000208703 -4.0201e-05 0)
(0.000239899 -3.59553e-05 0)
(0.000268079 -3.12984e-05 0)
(0.000292053 -2.63095e-05 0)
(0.000312424 -2.11399e-05 0)
(0.000328275 -1.59019e-05 0)
(0.000340311 -1.07049e-05 0)
(0.000347874 -5.65863e-06 0)
(0.000351727 -8.17387e-07 0)
(0.000351434 3.72517e-06 0)
(0.000347772 7.95941e-06 0)
(0.000340485 1.18057e-05 0)
(0.00033033 1.52848e-05 0)
(0.000317191 1.83298e-05 0)
(0.000301778 2.09798e-05 0)
(0.000284081 2.31788e-05 0)
(0.000264748 2.49738e-05 0)
(0.000243851 2.6316e-05 0)
(0.000221982 2.72498e-05 0)
(0.000199284 2.77288e-05 0)
(0.000176304 2.77867e-05 0)
(0.000153245 2.73763e-05 0)
(0.000130619 2.65192e-05 0)
(0.000108679 2.51722e-05 0)
(8.79012e-05 2.33535e-05 0)
(6.85698e-05 2.10379e-05 0)
(5.11187e-05 1.82598e-05 0)
(3.58226e-05 1.50359e-05 0)
(2.30262e-05 1.14491e-05 0)
(1.29108e-05 7.60121e-06 0)
(5.62938e-06 3.69291e-06 0)
(1.11571e-06 2.74117e-08 0)
(-9.06876e-07 -2.87709e-06 0)
(-1.12377e-06 -4.2231e-06 0)
(-2.27574e-07 -2.81154e-06 0)
(9.1381e-08 -3.30014e-06 0)
(-1.41104e-08 -4.18551e-06 0)
(-1.96696e-06 -1.07435e-06 0)
(-6.42125e-06 4.4281e-06 0)
(-1.40076e-05 1.11099e-05 0)
(-2.50052e-05 1.81749e-05 0)
(-3.93714e-05 2.50896e-05 0)
(-5.69619e-05 3.15608e-05 0)
(-7.74462e-05 3.73545e-05 0)
(-0.000100518 4.23829e-05 0)
(-0.000125706 4.65296e-05 0)
(-0.000152657 4.98152e-05 0)
(-0.000180835 5.21667e-05 0)
(-0.000209904 5.36606e-05 0)
(-0.000239289 5.42232e-05 0)
(-0.000268701 5.39645e-05 0)
(-0.000297521 5.27894e-05 0)
(-0.000325521 5.08354e-05 0)
(-0.00035203 4.79755e-05 0)
(-0.000376893 4.43752e-05 0)
(-0.000399369 3.98725e-05 0)
(-0.000419393 3.46684e-05 0)
(-0.000436141 2.85721e-05 0)
(-0.000449662 2.18326e-05 0)
(-0.000459048 1.42426e-05 0)
(-0.000464492 6.11194e-06 0)
(-0.000465022 -2.76608e-06 0)
(-0.000461022 -1.20074e-05 0)
(-0.000451487 -2.17967e-05 0)
(-0.000437055 -3.16664e-05 0)
(-0.000416746 -4.17617e-05 0)
(-0.000391519 -5.15414e-05 0)
(-0.000360478 -6.11162e-05 0)
(-0.000324952 -6.99136e-05 0)
(-0.000284174 -7.80435e-05 0)
(-0.000239833 -8.49705e-05 0)
(-0.000191282 -9.08447e-05 0)
(-0.000140494 -9.52245e-05 0)
(-8.689e-05 -9.83102e-05 0)
(-3.26149e-05 -9.97683e-05 0)
(2.28914e-05 -9.98252e-05 0)
(7.74165e-05 -9.82489e-05 0)
(0.000131525 -9.52722e-05 0)
(0.000183031 -9.0772e-05 0)
(0.000232529 -8.49955e-05 0)
(0.000277968 -7.79481e-05 0)
(0.000320019 -6.99026e-05 0)
(0.000356884 -6.09872e-05 0)
(0.000389362 -5.14815e-05 0)
(0.000416002 -4.15924e-05 0)
(0.000437749 -3.15613e-05 0)
(0.000453518 -2.16088e-05 0)
(0.000464351 -1.18948e-05 0)
(0.000469485 -2.60694e-06 0)
(0.000469991 6.18461e-06 0)
(0.000465366 1.43319e-05 0)
(0.000456661 2.18307e-05 0)
(0.000443587 2.85625e-05 0)
(0.000427135 3.45634e-05 0)
(0.000407186 3.97369e-05 0)
(0.00038465 4.41399e-05 0)
(0.000359537 4.76919e-05 0)
(0.000332673 5.04552e-05 0)
(0.000304169 5.23587e-05 0)
(0.000274776 5.34567e-05 0)
(0.000244694 5.36815e-05 0)
(0.000214614 5.30719e-05 0)
(0.000184809 5.15633e-05 0)
(0.000155918 4.91835e-05 0)
(0.000128271 4.58846e-05 0)
(0.000102455 4.17077e-05 0)
(7.88192e-05 3.66548e-05 0)
(5.78706e-05 3.08242e-05 0)
(3.99058e-05 2.43219e-05 0)
(2.52701e-05 1.73773e-05 0)
(1.4083e-05 1.03062e-05 0)
(6.37667e-06 3.64096e-06 0)
(1.85134e-06 -1.81758e-06 0)
(-8.73044e-08 -4.83848e-06 0)
(-1.21742e-07 -3.67396e-06 0)
(-2.40172e-08 -3.45812e-06 0)
(-1.32428e-06 -3.05168e-06 0)
(-5.3922e-06 2.58e-06 0)
(-1.27522e-05 1.1359e-05 0)
(-2.39338e-05 2.171e-05 0)
(-3.90836e-05 3.25087e-05 0)
(-5.81502e-05 4.30632e-05 0)
(-8.08375e-05 5.28798e-05 0)
(-0.00010684 6.16992e-05 0)
(-0.000135653 6.92805e-05 0)
(-0.000166879 7.5571e-05 0)
(-0.00019991 8.04454e-05 0)
(-0.00023435 8.39662e-05 0)
(-0.000269537 8.60407e-05 0)
(-0.000305118 8.6791e-05 0)
(-0.000340378 8.61094e-05 0)
(-0.000375031 8.41564e-05 0)
(-0.000408297 8.07885e-05 0)
(-0.000439976 7.62022e-05 0)
(-0.000469211 7.02115e-05 0)
(-0.000495906 6.30552e-05 0)
(-0.000519106 5.45071e-05 0)
(-0.000538842 4.48624e-05 0)
(-0.000554053 3.38682e-05 0)
(-0.000564929 2.18946e-05 0)
(-0.000570307 8.68381e-06 0)
(-0.000570585 -5.29749e-06 0)
(-0.000564519 -2.02819e-05 0)
(-0.000552775 -3.56856e-05 0)
(-0.000534081 -5.16837e-05 0)
(-0.000509451 -6.75686e-05 0)
(-0.00047766 -8.34442e-05 0)
(-0.000440153 -9.85129e-05 0)
(-0.000395833 -0.000112839 0)
(-0.000346613 -0.000125623 0)
(-0.000291555 -0.000136961 0)
(-0.000232992 -0.000146162 0)
(-0.000170099 -0.000153412 0)
(-0.000105492 -0.000158181 0)
(-3.83871e-05 -0.000160732 0)
(2.84596e-05 -0.000160692 0)
(9.58318e-05 -0.000158356 0)
(0.000160949 -0.000153499 0)
(0.000224609 -0.00014644 0)
(0.000284124 -0.000137133 0)
(0.000340352 -0.000125948 0)
(0.000390849 -0.000113039 0)
(0.000436598 -9.8827e-05 0)
(0.000475544 -8.36161e-05 0)
(0.000508844 -6.78155e-05 0)
(0.000534901 -5.17862e-05 0)
(0.000555025 -3.58474e-05 0)
(0.000568049 -2.03287e-05 0)
(0.00057534 -5.41532e-06 0)
(0.000576083 8.63542e-06 0)
(0.000571618 2.17614e-05 0)
(0.000561413 3.37694e-05 0)
(0.000546735 4.46771e-05 0)
(0.000527283 5.43326e-05 0)
(0.000504229 6.27953e-05 0)
(0.000477458 6.99408e-05 0)
(0.000448032 7.5846e-05 0)
(0.000415982 8.04055e-05 0)
(0.000382263 8.36952e-05 0)
(0.000347026 8.562e-05 0)
(0.000311135 8.62413e-05 0)
(0.000274841 8.54704e-05 0)
(0.000238934 8.33517e-05 0)
(0.000203748 7.981e-05 0)
(0.00017001 7.4891e-05 0)
(0.000138109 6.85652e-05 0)
(0.000108702 6.09275e-05 0)
(8.2177e-05 5.20561e-05 0)
(5.90673e-05 4.21769e-05 0)
(3.96591e-05 3.1577e-05 0)
(2.42549e-05 2.0756e-05 0)
(1.28764e-05 1.0424e-05 0)
(5.37969e-06 1.69331e-06 0)
(1.26818e-06 -3.83436e-06 0)
(3.11472e-09 -3.91103e-06 0)
(-1.41283e-07 -2.88599e-06 0)
(-2.79274e-06 -6.74556e-08 0)
(-9.22392e-06 8.95778e-06 0)
(-1.98287e-05 2.17517e-05 0)
(-3.48863e-05 3.63531e-05 0)
(-5.44614e-05 5.14095e-05 0)
(-7.83118e-05 6.59759e-05 0)
(-0.000106139 7.94994e-05 0)
(-0.000137424 9.15378e-05 0)
(-0.000171734 0.0001019 0)
(-0.000208415 0.000110363 0)
(-0.000247013 0.000116938 0)
(-0.000286811 0.000121496 0)
(-0.000327404 0.000124158 0)
(-0.00036802 0.000124806 0)
(-0.000408325 0.000123616 0)
(-0.000447473 0.000120435 0)
(-0.00048522 0.000115483 0)
(-0.000520638 0.000108557 0)
(-0.000553596 9.99263e-05 0)
(-0.00058306 8.93368e-05 0)
(-0.000609041 7.71202e-05 0)
(-0.000630378 6.29836e-05 0)
(-0.000647254 4.73417e-05 0)
(-0.000658372 2.98838e-05 0)
(-0.000664129 1.11349e-05 0)
(-0.0006631 -9.19736e-06 0)
(-0.000655952 -3.0446e-05 0)
(-0.000641165 -5.28386e-05 0)
(-0.000619751 -7.55387e-05 0)
(-0.000590165 -9.86685e-05 0)
(-0.00055387 -0.000121228 0)
(-0.000509406 -0.000143237 0)
(-0.000458778 -0.000163612 0)
(-0.000400705 -0.000182355 0)
(-0.000337751 -0.000198455 0)
(-0.000268811 -0.000212016 0)
(-0.000196881 -0.000222241 0)
(-0.000120937 -0.000229378 0)
(-4.42171e-05 -0.000232862 0)
(3.43006e-05 -0.000233028 0)
(0.000111287 -0.000229514 0)
(0.000187776 -0.00022269 0)
(0.000260469 -0.000212407 0)
(0.000330423 -0.000199102 0)
(0.000394533 -0.000182894 0)
(0.000453962 -0.000164335 0)
(0.000505996 -0.000143806 0)
(0.000551991 -0.000121907 0)
(0.000589761 -9.91562e-05 0)
(0.000620862 -7.60776e-05 0)
(0.000643653 -5.318e-05 0)
(0.000659798 -3.08204e-05 0)
(0.000668109 -9.41523e-06 0)
(0.000670235 1.08623e-05 0)
(0.00066534 2.97057e-05 0)
(0.000654976 4.70865e-05 0)
(0.000638594 6.27788e-05 0)
(0.00061762 7.68359e-05 0)
(0.000591749 8.9078e-05 0)
(0.000562274 9.95931e-05 0)
(0.000529091 0.000108231 0)
(0.000493359 0.000115088 0)
(0.00045513 0.000120034 0)
(0.000415444 0.000123154 0)
(0.000374483 0.00012433 0)
(0.000333184 0.000123627 0)
(0.00029184 0.000120939 0)
(0.000251307 0.000116322 0)
(0.000211964 0.000109705 0)
(0.000174601 0.000101172 0)
(0.000139653 9.07451e-05 0)
(0.000107818 7.86205e-05 0)
(7.95125e-05 6.50188e-05 0)
(5.52777e-05 5.03803e-05 0)
(3.53866e-05 3.5296e-05 0)
(2.00833e-05 2.07076e-05 0)
(9.28609e-06 7.96225e-06 0)
(2.77038e-06 -9.70336e-07 0)
(1.17159e-07 -3.43299e-06 0)
(-2.57209e-07 -1.54191e-06 0)
(-4.31598e-06 4.90577e-06 0)
(-1.32664e-05 1.82924e-05 0)
(-2.72834e-05 3.58269e-05 0)
(-4.64372e-05 5.52727e-05 0)
(-7.05343e-05 7.49757e-05 0)
(-9.92672e-05 9.38893e-05 0)
(-0.00013209 0.000111255 0)
(-0.000168523 0.000126668 0)
(-0.000207866 0.000139758 0)
(-0.000249611 0.000150435 0)
(-0.000292989 0.000158509 0)
(-0.000337545 0.000164071 0)
(-0.00038247 0.000166989 0)
(-0.000427396 0.000167449 0)
(-0.00047145 0.000165295 0)
(-0.000514355 0.000160766 0)
(-0.000555148 0.000153652 0)
(-0.000593673 0.000144244 0)
(-0.000628854 0.00013227 0)
(-0.000660686 0.000118088 0)
(-0.000687958 0.000101373 0)
(-0.000710847 8.25731e-05 0)
(-0.000727984 6.13272e-05 0)
(-0.000739763 3.81996e-05 0)
(-0.000744648 1.28296e-05 0)
(-0.000743297 -1.40658e-05 0)
(-0.000734009 -4.2793e-05 0)
(-0.000717771 -7.24366e-05 0)
(-0.000692765 -0.000103181 0)
(-0.000660402 -0.00013388 0)
(-0.000618854 -0.000164551 0)
(-0.000570094 -0.000193849 0)
(-0.00051244 -0.000221674 0)
(-0.000448535 -0.000246647 0)
(-0.000376934 -0.000268721 0)
(-0.000300901 -0.000286728 0)
(-0.000219151 -0.000300834 0)
(-0.000135339 -0.000310202 0)
(-4.81995e-05 -0.000315173 0)
(3.84392e-05 -0.000315196 0)
(0.000125864 -0.000310689 0)
(0.000210214 -0.000301347 0)
(0.000292784 -0.000287648 0)
(0.000369816 -0.000269598 0)
(0.000442654 -0.000247823 0)
(0.000507881 -0.000222717 0)
(0.000567033 -0.000195071 0)
(0.000617274 -0.000165562 0)
(0.000660391 -0.000134964 0)
(0.000694202 -0.000104003 0)
(0.000720668 -7.32617e-05 0)
(0.000738171 -4.33543e-05 0)
(0.000748688 -1.46161e-05 0)
(0.000751034 1.24857e-05 0)
(0.000747076 3.78305e-05 0)
(0.000735966 6.1083e-05 0)
(0.000719398 8.22693e-05 0)
(0.000696807 0.000101139 0)
(0.000669718 0.000117789 0)
(0.000637819 0.000132014 0)
(0.000602475 0.00014393 0)
(0.000563586 0.000153363 0)
(0.000522362 0.000160424 0)
(0.000478874 0.000164959 0)
(0.0004342 0.000167058 0)
(0.000388551 0.000166579 0)
(0.000342898 0.000163594 0)
(0.00029757 0.000157986 0)
(0.00025346 0.00014983 0)
(0.000210997 0.000139082 0)
(0.000171012 0.000125891 0)
(0.000133987 0.000110379 0)
(0.000100665 9.28978e-05 0)
(7.15007e-05 7.38968e-05 0)
(4.706e-05 5.41444e-05 0)
(2.76177e-05 3.4707e-05 0)
(1.3378e-05 1.72057e-05 0)
(4.30471e-06 3.89036e-06 0)
(2.21285e-07 -2.19166e-06 0)
(-3.65377e-07 5.7715e-07 0)
(-5.85636e-06 1.19455e-05 0)
(-1.73809e-05 3.06906e-05 0)
(-3.49457e-05 5.37503e-05 0)
(-5.82651e-05 7.85554e-05 0)
(-8.69906e-05 0.000103299 0)
(-0.000120516 0.000126705 0)
(-0.000158266 0.000148035 0)
(-0.000199471 0.000166707 0)
(-0.000243543 0.00018249 0)
(-0.000289661 0.0001951 0)
(-0.000337305 0.000204574 0)
(-0.000385633 0.000210748 0)
(-0.000434239 0.000213804 0)
(-0.000482244 0.000213589 0)
(-0.000529354 0.00021036 0)
(-0.000574606 0.000203908 0)
(-0.000617828 0.000194546 0)
(-0.000657942 0.000181994 0)
(-0.00069493 0.00016663 0)
(-0.000727574 0.000148106 0)
(-0.000756049 0.000126894 0)
(-0.000778967 0.000102592 0)
(-0.000796728 7.57903e-05 0)
(-0.00080775 4.60614e-05 0)
(-0.000812695 1.41481e-05 0)
(-0.000809763 -2.03519e-05 0)
(-0.00079992 -5.64928e-05 0)
(-0.000781155 -9.45705e-05 0)
(-0.000754806 -0.000133369 0)
(-0.000718719 -0.00017298 0)
(-0.000674741 -0.000211877 0)
(-0.000620749 -0.00024991 0)
(-0.000559296 -0.000285341 0)
(-0.000488505 -0.000317928 0)
(-0.000411744 -0.00034603 0)
(-0.000327422 -0.000369616 0)
(-0.000239526 -0.000387464 0)
(-0.000146553 -0.000399857 0)
(-5.27847e-05 -0.000405992 0)
(4.33155e-05 -0.000406312 0)
(0.000137364 -0.000400322 0)
(0.000230917 -0.000388528 0)
(0.00031962 -0.000370758 0)
(0.000405023 -0.000347648 0)
(0.000482992 -0.000319493 0)
(0.000555201 -0.000287205 0)
(0.000618092 -0.00025158 0)
(0.000673661 -0.000213679 0)
(0.000719123 -0.000174486 0)
(0.000756748 -0.000134885 0)
(0.000784449 -9.57426e-05 0)
(0.000804556 -5.76056e-05 0)
(0.000815497 -2.11307e-05 0)
(0.000819479 1.34338e-05 0)
(0.000815324 4.56058e-05 0)
(0.000805027 7.53485e-05 0)
(0.000787723 0.000102311 0)
(0.000765174 0.000126583 0)
(0.000736799 0.000147892 0)
(0.00070416 0.000166377 0)
(0.00066694 0.000181805 0)
(0.000626522 0.00019432 0)
(0.000582809 0.00020372 0)
(0.000537021 0.000210128 0)
(0.000489239 0.000213362 0)
(0.000440545 0.000213516 0)
(0.000391171 0.000210428 0)
(0.000342099 0.000204172 0)
(0.000293692 0.000194634 0)
(0.000246873 0.000181917 0)
(0.000202124 0.000166029 0)
(0.000160324 0.000147216 0)
(0.000122036 0.000125753 0)
(8.80665e-05 0.000102223 0)
(5.89631e-05 7.7415e-05 0)
(3.53403e-05 5.2595e-05 0)
(1.75234e-05 2.95522e-05 0)
(5.85002e-06 1.08521e-05 0)
(3.27034e-07 -1.45014e-07 0)
(-4.69381e-07 3.46935e-06 0)
(-7.38503e-06 2.10704e-05 0)
(-2.15531e-05 4.62426e-05 0)
(-4.27126e-05 7.55791e-05 0)
(-7.0302e-05 0.000106296 0)
(-0.000103608 0.000136322 0)
(-0.000141906 0.00016437 0)
(-0.000184285 0.00018953 0)
(-0.000230019 0.000211368 0)
(-0.000278205 0.000229486 0)
(-0.000328237 0.000243843 0)
(-0.000379232 0.000254242 0)
(-0.000430729 0.000260844 0)
(-0.000481846 0.000263498 0)
(-0.000532271 0.000262471 0)
(-0.000581068 0.00025757 0)
(-0.00062806 0.000249126 0)
(-0.000672201 0.000236865 0)
(-0.000713467 0.000221186 0)
(-0.000750672 0.000201728 0)
(-0.000783989 0.000178983 0)
(-0.000812059 0.00015252 0)
(-0.00083529 0.000122947 0)
(-0.000852119 8.97838e-05 0)
(-0.000863222 5.37851e-05 0)
(-0.000866788 1.44542e-05 0)
(-0.000863787 -2.72641e-05 0)
(-0.000852122 -7.18091e-05 0)
(-0.000833082 -0.000117971 0)
(-0.000804284 -0.000166002 0)
(-0.000767422 -0.000214319 0)
(-0.00071995 -0.000262845 0)
(-0.000664182 -0.000309585 0)
(-0.000597705 -0.000354144 0)
(-0.000523751 -0.000394361 0)
(-0.000440315 -0.000429877 0)
(-0.000351568 -0.000458909 0)
(-0.000255772 -0.000481554 0)
(-0.000157606 -0.000496653 0)
(-5.53134e-05 -0.00050464 0)
(4.62313e-05 -0.000504786 0)
(0.000148831 -0.000497623 0)
(0.000247568 -0.000482761 0)
(0.000344246 -0.000460823 0)
(0.000434055 -0.000431885 0)
(0.000518806 -0.000396862 0)
(0.000594126 -0.00035653 0)
(0.000662145 -0.00031221 0)
(0.00071939 -0.000265169 0)
(0.000768437 -0.000216685 0)
(0.000806703 -0.000167966 0)
(0.000836933 -0.000119865 0)
(0.000857166 -7.32801e-05 0)
(0.000869999 -2.86137e-05 0)
(0.000873887 1.34982e-05 0)
(0.00087116 5.29427e-05 0)
(0.00086062 8.92444e-05 0)
(0.000844303 0.000122463 0)
(0.000821314 0.000152233 0)
(0.000793415 0.000178704 0)
(0.000760011 0.000201577 0)
(0.000722647 0.000221025 0)
(0.000681002 0.000236789 0)
(0.000636433 0.00024903 0)
(0.000588845 0.000257517 0)
(0.000539427 0.000262379 0)
(0.000488267 0.000263407 0)
(0.000436427 0.000260691 0)
(0.000384155 0.000254049 0)
(0.000332432 0.000243557 0)
(0.000281669 0.000229108 0)
(0.00023282 0.000210847 0)
(0.000186455 0.000188856 0)
(0.000143536 0.000163519 0)
(0.000104761 0.000135328 0)
(7.10693e-05 0.000105202 0)
(4.31515e-05 7.44493e-05 0)
(2.17324e-05 4.51e-05 0)
(7.38902e-06 1.99596e-05 0)
(4.56949e-07 2.73603e-06 0)
(-5.67593e-07 7.12853e-06 0)
(-8.93267e-06 3.23249e-05 0)
(-2.5794e-05 6.49928e-05 0)
(-5.06727e-05 0.000101417 0)
(-8.25498e-05 0.000138482 0)
(-0.000120478 0.000174044 0)
(-0.000163337 0.000206643 0)
(-0.000210163 0.000235519 0)
(-0.000259887 0.000260106 0)
(-0.000311763 0.000280279 0)
(-0.000364848 0.000295813 0)
(-0.000418606 0.000306854 0)
(-0.000472148 0.00031326 0)
(-0.000525127 0.000315309 0)
(-0.000576644 0.000312825 0)
(-0.000626518 0.000306162 0)
(-0.000673764 0.000295061 0)
(-0.00071836 0.000279941 0)
(-0.000759183 0.000260447 0)
(-0.000796405 0.000237086 0)
(-0.000828737 0.000209415 0)
(-0.000856591 0.000178059 0)
(-0.000878475 0.0001425 0)
(-0.000895083 0.000103506 0)
(-0.000904671 6.05042e-05 0)
(-0.000908236 1.44309e-05 0)
(-0.000903711 -3.52963e-05 0)
(-0.000892388 -8.75185e-05 0)
(-0.000871804 -0.00014271 0)
(-0.00084355 -0.000199359 0)
(-0.000804772 -0.000257616 0)
(-0.000757489 -0.000315432 0)
(-0.0006987 -0.000372436 0)
(-0.00063124 -0.000426048 0)
(-0.000552475 -0.000475546 0)
(-0.00046647 -0.000518392 0)
(-0.000371181 -0.000554252 0)
(-0.000271602 -0.000581411 0)
(-0.000165797 -0.000600194 0)
(-5.90992e-05 -0.000609571 0)
(5.04916e-05 -0.0006101 0)
(0.000157498 -0.000601148 0)
(0.000263942 -0.000583334 0)
(0.000364391 -0.000556461 0)
(0.000460854 -0.000521355 0)
(0.00054814 -0.000478558 0)
(0.0006284 -0.000429489 0)
(0.000697313 -0.000375629 0)
(0.000757681 -0.000318733 0)
(0.000806383 -0.000260463 0)
(0.000846636 -0.000202123 0)
(0.00087613 -0.00014496 0)
(0.000897972 -8.96151e-05 0)
(0.000910275 -3.69025e-05 0)
(0.000915754 1.29974e-05 0)
(0.000912842 5.95038e-05 0)
(0.000903872 0.000102655 0)
(0.000887603 0.000141981 0)
(0.000866024 0.00017763 0)
(0.000838211 0.000209213 0)
(0.000805869 0.000236926 0)
(0.000768392 0.000260439 0)
(0.000727268 0.000279948 0)
(0.000682172 0.000295164 0)
(0.000634401 0.000306256 0)
(0.000583856 0.000312966 0)
(0.00053167 0.000315416 0)
(0.000477936 0.000313368 0)
(0.000423674 0.000306895 0)
(0.000369161 0.000295793 0)
(0.000315375 0.000280132 0)
(0.0002628 0.000259813 0)
(0.000212455 0.000235026 0)
(0.000165055 0.000205955 0)
(0.000121719 0.00017317 0)
(8.33735e-05 0.000137485 0)
(5.1162e-05 0.000100344 0)
(2.60069e-05 6.38786e-05 0)
(8.96604e-06 3.12253e-05 0)
(5.93549e-07 6.42311e-06 0)
(-6.69363e-07 1.15742e-05 0)
(-1.05302e-05 4.57628e-05 0)
(-3.02472e-05 8.70763e-05 0)
(-5.89689e-05 0.000131326 0)
(-9.52821e-05 0.000175189 0)
(-0.000137748 0.00021631 0)
(-0.000185073 0.000253365 0)
(-0.000235902 0.000285513 0)
(-0.000289234 0.000312495 0)
(-0.000343993 0.000334064 0)
(-0.000399538 0.000350378 0)
(-0.000454964 0.000361336 0)
(-0.000509877 0.000367243 0)
(-0.000563415 0.000367964 0)
(-0.000615386 0.000363873 0)
(-0.00066488 0.000354743 0)
(-0.000711878 0.000341009 0)
(-0.000755349 0.000322335 0)
(-0.000795465 0.000299242 0)
(-0.000831033 0.000271291 0)
(-0.000862468 0.000239123 0)
(-0.000888382 0.000202206 0)
(-0.000909486 0.000161326 0)
(-0.000924152 0.000115864 0)
(-0.000933419 6.67592e-05 0)
(-0.000935343 1.33216e-05 0)
(-0.000931274 -4.33408e-05 0)
(-0.000918833 -0.000103928 0)
(-0.000899613 -0.000167071 0)
(-0.000870664 -0.000233275 0)
(-0.000833794 -0.000300665 0)
(-0.000785529 -0.000369176 0)
(-0.000728152 -0.000436123 0)
(-0.000658182 -0.000500632 0)
(-0.000579113 -0.000559397 0)
(-0.000488289 -0.000611379 0)
(-0.000390789 -0.000653915 0)
(-0.000284529 -0.000686969 0)
(-0.000175253 -0.000709056 0)
(-6.08167e-05 -0.000720709 0)
(5.27347e-05 -0.000721015 0)
(0.00016753 -0.000710614 0)
(0.000277451 -0.000689033 0)
(0.00038469 -0.00065703 0)
(0.000483341 -0.000614769 0)
(0.000575596 -0.000563506 0)
(0.000656105 -0.000504655 0)
(0.000727669 -0.000440412 0)
(0.000786482 -0.00037301 0)
(0.000836247 -0.000304418 0)
(0.000874366 -0.000236399 0)
(0.000904598 -0.000169972 0)
(0.000924827 -0.000106207 0)
(0.000938301 -4.53876e-05 0)
(0.000943102 1.18179e-05 0)
(0.000941898 6.54694e-05 0)
(0.000933051 0.000115028 0)
(0.000918792 0.000160663 0)
(0.000897824 0.000201888 0)
(0.000872028 0.000238917 0)
(0.000840455 0.000271326 0)
(0.00080472 0.000299342 0)
(0.000764212 0.000322596 0)
(0.00072033 0.0003413 0)
(0.000672747 0.000355131 0)
(0.000622668 0.00036426 0)
(0.000569993 0.000368392 0)
(0.000515775 0.000367632 0)
(0.000460115 0.000361699 0)
(0.000403986 0.000350637 0)
(0.000347707 0.000334201 0)
(0.000292275 0.000312435 0)
(0.00023829 0.000285239 0)
(0.000186901 0.000252849 0)
(0.000139067 0.000215585 0)
(9.61765e-05 0.000174295 0)
(5.94955e-05 0.000130321 0)
(3.04923e-05 8.59811e-05 0)
(1.05889e-05 4.46521e-05 0)
(7.04733e-07 1.08674e-05 0)
(-7.75845e-07 1.68438e-05 0)
(-1.22864e-05 6.15468e-05 0)
(-3.51035e-05 0.000112667 0)
(-6.79851e-05 0.000165516 0)
(-0.000108856 0.000216417 0)
(-0.000155912 0.000263074 0)
(-0.000207387 0.000304139 0)
(-0.00026189 0.000339129 0)
(-0.000318083 0.00036776 0)
(-0.000375126 0.000390218 0)
(-0.000432058 0.00040649 0)
(-0.000488431 0.000416953 0)
(-0.000543424 0.000421555 0)
(-0.000596828 0.000420714 0)
(-0.000647815 0.000414255 0)
(-0.00069637 0.000402632 0)
(-0.000741568 0.000385541 0)
(-0.000783583 0.000363515 0)
(-0.000821338 0.000336131 0)
(-0.000855243 0.000304042 0)
(-0.000884038 0.000266722 0)
(-0.000908435 0.000224977 0)
(-0.000926958 0.000178179 0)
(-0.000940672 0.000127288 0)
(-0.00094782 7.15616e-05 0)
(-0.00094983 1.20955e-05 0)
(-0.000944537 -5.19724e-05 0)
(-0.000933647 -0.000119403 0)
(-0.000914366 -0.000191075 0)
(-0.000888497 -0.000265429 0)
(-0.0008524 -0.000342974 0)
(-0.000807924 -0.000421346 0)
(-0.000750765 -0.000500024 0)
(-0.000683424 -0.00057536 0)
(-0.000602065 -0.000645676 0)
(-0.0005112 -0.000706925 0)
(-0.000408418 -0.000758104 0)
(-0.000299791 -0.000796922 0)
(-0.000183054 -0.000823744 0)
(-6.4748e-05 -0.000837234 0)
(5.7232e-05 -0.000838002 0)
(0.000175919 -0.000825279 0)
(0.000293412 -0.000799842 0)
(0.000403017 -0.000761556 0)
(0.000507101 -0.000711434 0)
(0.000599363 -0.000650362 0)
(0.000682349 -0.000580606 0)
(0.000751191 -0.000504935 0)
(0.000809915 -0.000426262 0)
(0.000855671 -0.000347184 0)
(0.000893066 -0.000269351 0)
(0.000919923 -0.000194205 0)
(0.000940234 -0.000122183 0)
(0.000951864 -5.40424e-05 0)
(0.000957934 1.03279e-05 0)
(0.0009564 7.03749e-05 0)
(0.000949743 0.000126347 0)
(0.000936234 0.000177699 0)
(0.000917929 0.000224683 0)
(0.000893489 0.00026677 0)
(0.00086465 0.000304213 0)
(0.000830462 0.000336541 0)
(0.000792416 0.000364001 0)
(0.000749912 0.000386185 0)
(0.000704231 0.00040331 0)
(0.000655045 0.000415018 0)
(0.000603449 0.000421467 0)
(0.000549338 0.000422318 0)
(0.000493673 0.000417637 0)
(0.000436567 0.000407084 0)
(0.000378949 0.000390635 0)
(0.000321208 0.000367974 0)
(0.000264396 0.000339082 0)
(0.000209308 0.000303833 0)
(0.000157329 0.000262511 0)
(0.000109809 0.000215649 0)
(6.85542e-05 0.000164586 0)
(3.53566e-05 0.000111595 0)
(1.23497e-05 6.03966e-05 0)
(7.67325e-07 1.60799e-05 0)
(-9.03564e-07 2.30398e-05 0)
(-1.43467e-05 7.99409e-05 0)
(-4.07677e-05 0.000142155 0)
(-7.82338e-05 0.000204231 0)
(-0.000123977 0.000262327 0)
(-0.00017553 0.000314119 0)
(-0.000230926 0.000358676 0)
(-0.000288419 0.000395644 0)
(-0.000346846 0.000425268 0)
(-0.000405101 0.000447678 0)
(-0.000462635 0.000463378 0)
(-0.00051866 0.000472462 0)
(-0.00057296 0.000475438 0)
(-0.000624802 0.000472221 0)
(-0.000674174 0.000463305 0)
(-0.000720269 0.000448434 0)
(-0.000763262 0.000428152 0)
(-0.000802208 0.000402062 0)
(-0.000837503 0.000370824 0)
(-0.000868029 0.000333931 0)
(-0.00089448 0.000292205 0)
(-0.000915542 0.000245033 0)
(-0.00093228 0.000193411 0)
(-0.000943146 0.000136601 0)
(-0.000949622 7.57348e-05 0)
(-0.00094983 9.89075e-06 0)
(-0.000945626 -5.97319e-05 0)
(-0.000934582 -0.00013427 0)
(-0.00091871 -0.000212452 0)
(-0.000894631 -0.000295433 0)
(-0.000864145 -0.000381488 0)
(-0.000822577 -0.000471022 0)
(-0.000771496 -0.00056088 0)
(-0.000705536 -0.000649556 0)
(-0.000627577 -0.000731883 0)
(-0.000533964 -0.000805203 0)
(-0.000430707 -0.00086538 0)
(-0.000315472 -0.000912245 0)
(-0.000195022 -0.000943894 0)
(-6.71725e-05 -0.000960663 0)
(6.0161e-05 -0.000961203 0)
(0.000188489 -0.000946242 0)
(0.000309755 -0.000915467 0)
(0.000426153 -0.000870041 0)
(0.000530711 -0.000810332 0)
(0.000625921 -0.000737934 0)
(0.000705454 -0.000655511 0)
(0.000773111 -0.000567055 0)
(0.00082558 -0.000476499 0)
(0.000868508 -0.00038666 0)
(0.000899982 -0.000299665 0)
(0.000925067 -0.000216226 0)
(0.000941622 -0.00013714 0)
(0.000953421 -6.21673e-05 0)