/*--------------------------------*- C++ -*----------------------------------*\
| =========                 |                                                 |
| \\      /  F ield         | OpenFOAM: The Open Source CFD Toolbox           |
|  \\    /   O peration     | Version:  2412                                  |
|   \\  /    A nd           | Website:  www.openfoam.com                      |
|    \\/     M anipulation  |                                                 |
\*---------------------------------------------------------------------------*/
FoamFile
{
    version     2.0;
    format      ascii;
    arch        "LSB;label=32;scalar=64";
    class       surfaceScalarField;
    location    "3.1";
    object      alphaPhi0.oil;
}
// * * * * * * * * * * * * * * * * * * * * * * * * * * * * * * * * * * * * * //

dimensions      [0 3 -1 0 0 0 0];

oriented        oriented;

internalField   nonuniform List<scalar> 
12640
(
1.46754e-07
-1.46758e-07
1.31194e-07
1.45936e-08
-1.63961e-07
2.94313e-07
-7.11191e-07
5.46864e-07
-1.43609e-06
7.24472e-07
-2.2574e-06
8.21288e-07
-3.1049e-06
8.47451e-07
-3.92399e-06
8.19028e-07
-4.67576e-06
7.51971e-07
-5.33549e-06
6.60027e-07
-5.8897e-06
5.54355e-07
-6.33273e-06
4.43091e-07
-6.66428e-06
3.31967e-07
-6.88809e-06
2.24649e-07
-7.01066e-06
1.23211e-07
-7.03984e-06
2.90664e-08
-6.98375e-06
-5.66466e-08
-6.85084e-06
-1.33071e-07
-6.6501e-06
-2.00052e-07
-6.39099e-06
-2.57734e-07
-6.08325e-06
-3.06232e-07
-5.73664e-06
-3.45504e-07
-5.36065e-06
-3.75493e-07
-4.96437e-06
-3.96304e-07
-4.55629e-06
-4.08325e-07
-4.14419e-06
-4.12267e-07
-3.735e-06
-4.09141e-07
-3.33458e-06
-4.0017e-07
-2.94757e-06
-3.86689e-07
-2.57729e-06
-3.70039e-07
-2.22576e-06
-3.51488e-07
-1.89372e-06
-3.322e-07
-1.58083e-06
-3.13202e-07
-1.28591e-06
-2.95319e-07
-1.00718e-06
-2.79195e-07
-7.42463e-07
-2.65202e-07
-4.89333e-07
-2.53571e-07
-2.45247e-07
-2.4443e-07
-7.71889e-09
-2.37782e-07
2.25572e-07
-2.3352e-07
4.5693e-07
-2.31615e-07
6.88714e-07
-2.32044e-07
9.23222e-07
-2.3471e-07
1.16287e-06
-2.39746e-07
1.41003e-06
-2.47109e-07
1.66686e-06
-2.56633e-07
1.93544e-06
-2.68292e-07
2.21751e-06
-2.8182e-07
2.51439e-06
-2.96764e-07
2.82685e-06
-3.12453e-07
3.15468e-06
-3.27883e-07
3.49668e-06
-3.42049e-07
3.85049e-06
-3.53864e-07
4.21248e-06
-3.62039e-07
4.5778e-06
-3.65376e-07
4.94055e-06
-3.62804e-07
5.29375e-06
-3.53292e-07
5.62963e-06
-3.36057e-07
5.93981e-06
-3.10474e-07
6.21553e-06
-2.76134e-07
6.44776e-06
-2.32777e-07
6.62731e-06
-1.80229e-07
6.74493e-06
-1.18406e-07
6.79142e-06
-4.73352e-08
6.75771e-06
3.28521e-08
6.63505e-06
1.21809e-07
6.41538e-06
2.18886e-07
6.09205e-06
3.22653e-07
5.66075e-06
4.30734e-07
5.12095e-06
5.39309e-07
4.47793e-06
6.42576e-07
3.74525e-06
7.32239e-07
2.94761e-06
7.97115e-07
2.12375e-06
8.23242e-07
1.32835e-06
7.94799e-07
6.31418e-07
6.96651e-07
1.12259e-07
5.19539e-07
-1.57186e-07
2.70661e-07
-1.54576e-07
-8.4264e-10
-1.53197e-07
-9.7479e-09
-1.38122e-07
-4.80556e-07
4.84263e-07
-1.56057e-06
1.37347e-06
-3.18023e-06
2.16653e-06
-5.18635e-06
2.73032e-06
-7.40561e-06
3.04048e-06
-9.68013e-06
3.12225e-06
-1.18822e-05
3.02135e-06
-1.39173e-05
2.78716e-06
-1.57215e-05
2.46451e-06
-1.72567e-05
2.09023e-06
-1.85047e-05
1.69175e-06
-1.94614e-05
1.28905e-06
-2.01328e-05
8.96244e-07
-2.05316e-05
5.22485e-07
-2.06751e-05
1.73376e-07
-2.05833e-05
-1.47513e-07
-2.02777e-05
-4.37745e-07
-1.97811e-05
-6.95816e-07
-1.91174e-05
-9.20863e-07
-1.83112e-05
-1.1123e-06
-1.73874e-05
-1.26971e-06
-1.63705e-05
-1.39307e-06
-1.52845e-05
-1.48304e-06
-1.41522e-05
-1.54119e-06
-1.29946e-05
-1.57005e-06
-1.18306e-05
-1.57299e-06
-1.06765e-05
-1.55406e-06
-9.54533e-06
-1.51768e-06
-8.44693e-06
-1.46843e-06
-7.38779e-06
-1.41081e-06
-6.37127e-06
-1.34906e-06
-5.39796e-06
-1.28692e-06
-4.46619e-06
-1.22749e-06
-3.57252e-06
-1.17317e-06
-2.7123e-06
-1.12562e-06
-1.88009e-06
-1.08588e-06
-1.07e-06
-1.0545e-06
-2.76021e-07
-1.03161e-06
5.07769e-07
-1.01703e-06
1.28715e-06
-1.01061e-06
2.0679e-06
-1.01231e-06
2.85576e-06
-1.02197e-06
3.65642e-06
-1.03971e-06
4.4754e-06
-1.06533e-06
5.31774e-06
-1.09824e-06
6.18788e-06
-1.13775e-06
7.08931e-06
-1.18266e-06
8.02419e-06
-1.23119e-06
8.9929e-06
-1.28086e-06
9.99351e-06
-1.3283e-06
1.10213e-05
-1.3697e-06
1.20686e-05
-1.40103e-06
1.31247e-05
-1.41794e-06
1.41756e-05
-1.4162e-06
1.52047e-05
-1.39197e-06
1.61931e-05
-1.34186e-06
1.71198e-05
-1.26315e-06
1.79625e-05
-1.1538e-06
1.86981e-05
-1.01253e-06
1.93029e-05
-8.38567e-07
1.97531e-05
-6.31593e-07
2.00251e-05
-3.91642e-07
2.00959e-05
-1.19191e-07
1.99429e-05
1.84774e-07
1.95455e-05
5.18424e-07
1.88852e-05
8.7855e-07
1.7948e-05
1.25944e-06
1.67265e-05
1.65189e-06
1.52237e-05
2.04178e-06
1.34572e-05
2.40856e-06
1.14649e-05
2.72381e-06
9.31066e-06
2.95051e-06
7.08949e-06
3.04387e-06
4.92934e-06
2.95507e-06
2.98699e-06
2.64011e-06
1.43224e-06
2.07647e-06
4.12842e-07
1.2929e-06
-1.12886e-08
4.25579e-07
-1.64847e-07
-2.8739e-07
1.48579e-07
-1.37491e-06
1.57201e-06
-3.29501e-06
3.29384e-06
-5.92108e-06
4.79305e-06
-9.04579e-06
5.85557e-06
-1.24414e-05
6.4365e-06
-1.58976e-05
6.57867e-06
-1.92407e-05
6.36438e-06
-2.23387e-05
5.88508e-06
-2.51001e-05
5.22579e-06
-2.74678e-05
4.45791e-06
-2.94125e-05
3.63624e-06
-3.09248e-05
2.80136e-06
-3.201e-05
1.98202e-06
-3.2684e-05
1.19728e-06
-3.29697e-05
4.59473e-07
-3.28948e-05
-2.23055e-07
-3.24899e-05
-8.444e-07
-3.17874e-05
-1.40055e-06
-3.08218e-05
-1.88888e-06
-2.96287e-05
-2.30769e-06
-2.82443e-05
-2.65599e-06
-2.67051e-05
-2.93376e-06
-2.5047e-05
-3.14241e-06
-2.3304e-05
-3.28502e-06
-2.15081e-05
-3.36644e-06
-1.96881e-05
-3.39321e-06
-1.78689e-05
-3.37324e-06
-1.60709e-05
-3.31545e-06
-1.43098e-05
-3.22917e-06
-1.25966e-05
-3.12372e-06
-1.09375e-05
-3.00782e-06
-9.33477e-06
-2.88929e-06
-7.78716e-06
-2.77466e-06
-6.29077e-06
-2.66903e-06
-4.83973e-06
-2.57602e-06
-3.42688e-06
-2.49795e-06
-2.04434e-06
-2.4361e-06
-6.83922e-07
-2.39094e-06
6.62585e-07
-2.36232e-06
2.00326e-06
-2.35004e-06
3.34603e-06
-2.3539e-06
4.69876e-06
-2.37365e-06
6.06918e-06
-2.40922e-06
7.46461e-06
-2.45998e-06
8.89176e-06
-2.52468e-06
1.03563e-05
-2.60156e-06
1.18622e-05
-2.68788e-06
1.34114e-05
-2.77976e-06
1.5003e-05
-2.87194e-06
1.66328e-05
-2.95756e-06
1.82924e-05
-3.02874e-06
1.99689e-05
-3.07698e-06
2.16449e-05
-3.09348e-06
2.32989e-05
-3.06967e-06
2.49051e-05
-2.99768e-06
2.64344e-05
-2.8708e-06
2.78553e-05
-2.68371e-06
2.91344e-05
-2.43256e-06
3.0237e-05
-2.11495e-06
3.11284e-05
-1.72968e-06
3.17735e-05
-1.27649e-06
3.21383e-05
-7.55969e-07
3.21894e-05
-1.69661e-07
3.18953e-05
4.79731e-07
3.12271e-05
1.18766e-06
3.01603e-05
1.94657e-06
2.86769e-05
2.74392e-06
2.67696e-05
3.56011e-06
2.4446e-05
4.36595e-06
2.17348e-05
5.1199e-06
1.8693e-05
5.76562e-06
1.54124e-05
6.23108e-06
1.20254e-05
6.43106e-06
8.70618e-06
6.27493e-06
5.66389e-06
5.68361e-06
3.12267e-06
4.61924e-06
1.28255e-06
3.13411e-06
2.57669e-07
1.44985e-06
9.19754e-08
-5.53518e-07
7.01867e-07
-2.23419e-06
3.25367e-06
-4.94068e-06
6.00153e-06
-8.46902e-06
8.32245e-06
-1.25596e-05
9.94678e-06
-1.69434e-05
1.08207e-05
-2.13758e-05
1.10111e-05
-2.56538e-05
1.06421e-05
-2.96219e-05
9.85272e-06
-3.31704e-05
8.77379e-06
-3.62289e-05
7.51628e-06
-3.87599e-05
6.16673e-06
-4.07496e-05
4.79018e-06
-4.22018e-05
3.43353e-06
-4.31332e-05
2.12852e-06
-4.35698e-05
8.96029e-07
-4.35441e-05
-2.49519e-07
-4.30926e-05
-1.29767e-06
-4.22544e-05
-2.24093e-06
-4.10714e-05
-3.07413e-06
-3.9587e-05
-3.79381e-06
-3.7846e-05
-4.39797e-06
-3.5894e-05
-4.88636e-06
-3.37756e-05
-5.26094e-06
-3.15343e-05
-5.52631e-06
-2.92106e-05
-5.68994e-06
-2.68413e-05
-5.7621e-06
-2.44584e-05
-5.75543e-06
-2.20887e-05
-5.6843e-06
-1.9753e-05
-5.56397e-06
-1.74661e-05
-5.40972e-06
-1.52371e-05
-5.23596e-06
-1.30699e-05
-5.05561e-06
-1.09642e-05
-4.87951e-06
-8.91602e-06
-4.71624e-06
-6.91909e-06
-4.57192e-06
-4.96555e-06
-4.45046e-06
-3.04653e-06
-4.35407e-06
-1.15268e-06
-4.28367e-06
7.25426e-07
-4.23925e-06
2.5971e-06
-4.22057e-06
4.47142e-06
-4.22722e-06
6.35727e-06
-4.25871e-06
8.26331e-06
-4.31472e-06
1.01977e-05
-4.39406e-06
1.21679e-05
-4.49467e-06
1.41799e-05
-4.61338e-06
1.62378e-05
-4.74543e-06
1.83427e-05
-4.88427e-06
2.04921e-05
-5.02105e-06
2.26794e-05
-5.14454e-06
2.48926e-05
-5.24173e-06
2.71144e-05
-5.29856e-06
2.93217e-05
-5.30056e-06
3.14861e-05
-5.23384e-06
3.35744e-05
-5.08575e-06
3.55495e-05
-4.84553e-06
3.7371e-05
-4.50488e-06
3.89968e-05
-4.05793e-06
4.03835e-05
-3.50129e-06
4.14879e-05
-2.83351e-06
4.22669e-05
-2.05485e-06
4.26787e-05
-1.16701e-06
4.26832e-05
-1.7318e-07
4.22428e-05
9.21397e-07
4.13234e-05
2.10837e-06
3.98969e-05
3.37438e-06
3.79438e-05
4.69818e-06
3.54576e-05
6.04725e-06
3.245e-05
7.37405e-06
2.89583e-05
8.61189e-06
2.50522e-05
9.67166e-06
2.08422e-05
1.0441e-05
1.64848e-05
1.07886e-05
1.21835e-05
1.05764e-05
8.18259e-06
9.68481e-06
4.74729e-06
8.0544e-06
2.12945e-06
5.75067e-06
5.19823e-07
3.05797e-06
6.11761e-07
-7.70811e-07
1.47342e-06
-2.95931e-06
5.44425e-06
-6.34992e-06
9.39358e-06
-1.06591e-05
1.26329e-05
-1.55744e-05
1.48628e-05
-2.07902e-05
1.60368e-05
-2.60349e-05
1.62558e-05
-3.10852e-05
1.56922e-05
-3.57708e-05
1.45375e-05
-3.99698e-05
1.29718e-05
-4.36033e-05
1.11492e-05
-4.66277e-05
9.19036e-06
-4.9026e-05
7.1871e-06
-5.08003e-05
5.20642e-06
-5.19673e-05
3.29466e-06
-5.25544e-05
1.48288e-06
-5.25963e-05
-2.07367e-07
-5.21333e-05
-1.7604e-06
-5.12091e-05
-3.1648e-06
-4.98705e-05
-4.41222e-06
-4.81667e-05
-5.49674e-06
-4.6149e-05
-6.41461e-06
-4.38695e-05
-7.16468e-06
-4.13803e-05
-7.74905e-06
-3.87321e-05
-8.17367e-06
-3.59726e-05
-8.44877e-06
-3.31454e-05
-8.58872e-06
-3.02887e-05
-8.6115e-06
-2.74347e-05
-8.5377e-06
-2.46086e-05
-8.38945e-06
-2.18287e-05
-8.18908e-06
-1.91066e-05
-7.95766e-06
-1.64479e-05
-7.71413e-06
-1.38529e-05
-7.47438e-06
-1.1318e-05
-7.25102e-06
-8.83684e-06
-7.053e-06
-6.4012e-06
-6.88606e-06
-4.00184e-06
-6.75346e-06
-1.62889e-06
-6.65666e-06
7.27706e-07
-6.59584e-06
3.07783e-06
-6.57065e-06
5.4311e-06
-6.58049e-06
7.79684e-06
-6.62451e-06
1.0184e-05
-6.70207e-06
1.26011e-05
-6.81144e-06
1.50557e-05
-6.94967e-06
1.75538e-05
-7.11197e-06
2.00992e-05
-7.29118e-06
2.26922e-05
-7.47755e-06
2.53289e-05
-7.65798e-06
2.80002e-05
-7.81609e-06
3.06912e-05
-7.9329e-06
3.33803e-05
-7.98786e-06
3.60395e-05
-7.95995e-06
3.86345e-05
-7.82905e-06
4.11256e-05
-7.57701e-06
4.34686e-05
-7.18862e-06
4.5616e-05
-6.65232e-06
4.75183e-05
-5.96037e-06
4.91256e-05
-5.10864e-06
5.03881e-05
-4.09598e-06
5.1257e-05
-2.92373e-06
5.16853e-05
-1.59523e-06
5.16282e-05
-1.16003e-07
5.10444e-05
1.50549e-06
4.98968e-05
3.2563e-06
4.81554e-05
5.11625e-06
4.58001e-05
7.05395e-06
4.28254e-05
9.02229e-06
3.92466e-05
1.09531e-05
3.51063e-05
1.27522e-05
3.04832e-05
1.42947e-05
2.54996e-05
1.54244e-05
2.03281e-05
1.59599e-05
1.51931e-05
1.57109e-05
1.03663e-05
1.45109e-05
6.15009e-06
1.22691e-05
2.85001e-06
9.04891e-06
7.35857e-07
5.17189e-06
1.34816e-06
-9.39859e-07
2.41434e-06
-3.5473e-06
8.05378e-06
-7.51943e-06
1.3367e-05
-1.25013e-05
1.76159e-05
-1.81287e-05
2.04909e-05
-2.40609e-05
2.19691e-05
-3.00021e-05
2.21969e-05
-3.57125e-05
2.14027e-05
-4.10106e-05
1.98348e-05
-4.57661e-05
1.77263e-05
-4.98941e-05
1.52764e-05
-5.33465e-05
1.2642e-05
-5.61036e-05
9.94279e-06
-5.8166e-05
7.26707e-06
-5.95496e-05
4.67697e-06
-6.02821e-05
2.21492e-06
-6.03994e-05
-8.9598e-08
-5.99439e-05
-2.21489e-06
-5.89622e-05
-4.14513e-06
-5.75047e-05
-5.86814e-06
-5.56249e-05
-7.37479e-06
-5.3379e-05
-8.65878e-06
-5.08248e-05
-9.71729e-06
-4.80206e-05
-1.05519e-05
-4.50238e-05
-1.11697e-05
-4.18887e-05
-1.15835e-05
-3.86652e-05
-1.18121e-05
-3.53973e-05
-1.18793e-05
-3.21224e-05
-1.18126e-05
-2.88699e-05
-1.1642e-05
-2.56613e-05
-1.13977e-05
-2.25104e-05
-1.11087e-05
-1.94242e-05
-1.08006e-05
-1.64037e-05
-1.04953e-05
-1.34455e-05
-1.02097e-05
-1.05429e-05
-9.95605e-06
-7.68744e-06
-9.74203e-06
-4.86938e-06
-9.57205e-06
-2.07846e-06
-9.44811e-06
6.9581e-07
-9.37055e-06
3.46385e-06
-9.33898e-06
6.23576e-06
-9.35257e-06
9.02129e-06
-9.41013e-06
1.18297e-05
-9.51057e-06
1.46697e-05
-9.65155e-06
1.75489e-05
-9.82913e-06
2.04735e-05
-1.00368e-05
2.34468e-05
-1.02648e-05
2.64686e-05
-1.04996e-05
2.95338e-05
-1.07234e-05
3.26313e-05
-1.09138e-05
3.57431e-05
-1.10449e-05
3.88439e-05
-1.10888e-05
4.19007e-05
-1.1017e-05
4.48737e-05
-1.08023e-05
4.77168e-05
-1.04205e-05
5.03792e-05
-9.85137e-06
5.28067e-05
-9.08021e-06
5.49435e-05
-8.09765e-06
5.67337e-05
-6.89938e-06
5.81224e-05
-5.48529e-06
5.90566e-05
-3.85859e-06
5.94856e-05
-2.02501e-06
5.93618e-05
7.02655e-09
5.86414e-05
2.22523e-06
5.72857e-05
4.61143e-06
5.52637e-05
7.13786e-06
5.25554e-05
9.76212e-06
4.91565e-05
1.24212e-05
4.50847e-05
1.50252e-05
4.03869e-05
1.74503e-05
3.51478e-05
1.95341e-05
2.94982e-05
2.10741e-05
2.36229e-05
2.18351e-05
1.77636e-05
2.15695e-05
1.22172e-05
2.00561e-05
7.32266e-06
1.71622e-05
3.43825e-06
1.29326e-05
9.04786e-07
7.70629e-06
2.25246e-06
-1.07463e-06
3.4901e-06
-4.03668e-06
1.10173e-05
-8.51789e-06
1.7849e-05
-1.4101e-05
2.31997e-05
-2.03723e-05
2.67626e-05
-2.69554e-05
2.85523e-05
-3.35309e-05
2.87722e-05
-3.98422e-05
2.77145e-05
-4.56981e-05
2.56902e-05
-5.09613e-05
2.29887e-05
-5.55416e-05
1.98562e-05
-5.9387e-05
1.64872e-05
-6.2475e-05
1.30302e-05
-6.48046e-05
9.59547e-06
-6.63906e-05
6.26177e-06
-6.72605e-05
3.08385e-06
-6.7451e-05
1.00279e-07
-6.70054e-05
-2.66075e-06
-6.59725e-05
-5.17806e-06
-6.44054e-05
-7.43505e-06
-6.23613e-05
-9.41861e-06
-5.99007e-05
-1.11189e-05
-5.7087e-05
-1.25306e-05
-5.39849e-05
-1.36538e-05
-5.06586e-05
-1.44962e-05
-4.71693e-05
-1.50731e-05
-4.35739e-05
-1.54081e-05
-3.99226e-05
-1.55312e-05
-3.6258e-05
-1.54777e-05
-3.26143e-05
-1.52862e-05
-2.90162e-05
-1.49962e-05
-2.54798e-05
-1.46453e-05
-2.20133e-05
-1.42674e-05
-1.86178e-05
-1.38909e-05
-1.52898e-05
-1.35379e-05
-1.20219e-05
-1.32241e-05
-8.80464e-06
-1.29593e-05
-5.62746e-06
-1.27492e-05
-2.47921e-06
-1.25963e-05
6.51535e-07
-1.25011e-05
3.77625e-06
-1.24634e-05
6.90608e-06
-1.2482e-05
1.00519e-05
-1.25554e-05
1.32239e-05
-1.26819e-05
1.64314e-05
-1.28585e-05
1.96826e-05
-1.30798e-05
2.2984e-05
-1.33378e-05
2.63392e-05
-1.36197e-05
2.97477e-05
-1.39079e-05
3.32035e-05
-1.4179e-05
3.66937e-05
-1.44038e-05
4.01973e-05
-1.45484e-05
4.36849e-05
-1.45764e-05
4.71184e-05
-1.44505e-05
5.04517e-05
-1.41358e-05
5.3632e-05
-1.3601e-05
5.66013e-05
-1.28209e-05
5.92981e-05
-1.17775e-05
6.16601e-05
-1.04601e-05
6.36255e-05
-8.86535e-06
6.51348e-05
-6.99513e-06
6.61312e-05
-4.85562e-06
6.65614e-05
-2.45589e-06
6.63755e-05
1.92051e-07
6.55282e-05
3.07161e-06
6.398e-05
6.15887e-06
6.16994e-05
9.41794e-06
5.86665e-05
1.27947e-05
5.48785e-05
1.62094e-05
5.03552e-05
1.95491e-05
4.5147e-05
2.26595e-05
3.93437e-05
2.53386e-05
3.30838e-05
2.7335e-05
2.65629e-05
2.83564e-05
2.004e-05
2.80921e-05
1.38375e-05
2.62579e-05
8.33178e-06
2.26674e-05
3.93171e-06
1.73333e-05
1.03962e-06
1.05986e-05
3.29041e-06
-1.19368e-06
4.68455e-06
-4.48302e-06
1.43072e-05
-9.44695e-06
2.28131e-05
-1.5611e-05
2.93638e-05
-2.2512e-05
3.36637e-05
-2.97362e-05
3.57766e-05
-3.69385e-05
3.59739e-05
-4.38442e-05
3.46212e-05
-5.02514e-05
3.20975e-05
-5.60156e-05
2.87528e-05
-6.10411e-05
2.48821e-05
-6.52721e-05
2.0719e-05
-6.86829e-05
1.64417e-05
-7.127e-05
1.21832e-05
-7.30474e-05
8.03948e-06
-7.40421e-05
4.07868e-06
-7.42913e-05
3.49369e-07
-7.38398e-05
-3.1128e-06
-7.27379e-05
-6.28062e-06
-7.10415e-05
-9.13226e-06
-6.88114e-05
-1.16496e-05
-6.6113e-05
-1.38182e-05
-6.3016e-05
-1.56285e-05
-5.95925e-05
-1.70784e-05
-5.59147e-05
-1.81751e-05
-5.20526e-05
-1.89367e-05
-4.80708e-05
-1.93913e-05
-4.40272e-05
-1.95762e-05
-3.99707e-05
-1.95354e-05
-3.59406e-05
-1.93173e-05
-3.19657e-05
-1.89719e-05
-2.80644e-05
-1.85471e-05
-2.42458e-05
-1.80863e-05
-2.05109e-05
-1.76259e-05
-1.6855e-05
-1.71938e-05
-1.32691e-05
-1.68097e-05
-9.74211e-06
-1.64859e-05
-6.2616e-06
-1.62291e-05
-2.81448e-06
-1.60427e-05
6.12776e-07
-1.59277e-05
4.03388e-06
-1.58837e-05
7.46236e-06
-1.59097e-05
1.09114e-05
-1.60036e-05
1.43932e-05
-1.61629e-05
1.79191e-05
-1.63834e-05
2.14986e-05
-1.66584e-05
2.51393e-05
-1.69777e-05
2.88458e-05
-1.73255e-05
3.26181e-05
-1.76796e-05
3.64496e-05
-1.801e-05
4.03256e-05
-1.82795e-05
4.4222e-05
-1.84447e-05
4.81046e-05
-1.84591e-05
5.19293e-05
-1.82755e-05
5.56428e-05
-1.78496e-05
5.9184e-05
-1.71426e-05
6.2486e-05
-1.61235e-05
6.54788e-05
-1.47709e-05
6.80921e-05
-1.3074e-05
7.02574e-05
-1.10312e-05
7.19097e-05
-8.64806e-06
7.29887e-05
-5.9352e-06
7.34384e-05
-2.90619e-06
7.32072e-05
4.22532e-07
7.22484e-05
4.02964e-06
7.05213e-05
7.88513e-06
6.79941e-05
1.19445e-05
6.46473e-05
1.61411e-05
6.04791e-05
2.03777e-05
5.55118e-05
2.45171e-05
4.97994e-05
2.83731e-05
4.34369e-05
3.17026e-05
3.65708e-05
3.42027e-05
2.94086e-05
3.55196e-05
2.22281e-05
3.52731e-05
1.53796e-05
3.31068e-05
9.2792e-06
2.87691e-05
4.38573e-06
2.22282e-05
1.15913e-06
1.3824e-05
4.44948e-06
-1.31618e-06
6.0009e-06
-4.9471e-06
1.79377e-05
-1.04205e-05
2.82858e-05
-1.72029e-05
3.61455e-05
-2.47777e-05
4.12382e-05
-3.26893e-05
4.36882e-05
-4.05631e-05
4.38468e-05
-4.8104e-05
4.21631e-05
-5.50971e-05
3.90915e-05
-6.139e-05
3.50463e-05
-6.68813e-05
3.03746e-05
-7.15105e-05
2.53497e-05
-7.52482e-05
2.01811e-05
-7.80885e-05
1.50253e-05
-8.0044e-05
9.99691e-06
-8.11418e-05
5.17839e-06
-8.14201e-05
6.29356e-07
-8.09256e-05
-3.60623e-06
-7.97111e-05
-7.4945e-06
-7.78356e-05
-1.10076e-05
-7.53643e-05
-1.41211e-05
-7.23688e-05
-1.68141e-05
-6.89267e-05
-1.90713e-05
-6.51194e-05
-2.08865e-05
-6.10299e-05
-2.22657e-05
-5.67387e-05
-2.32292e-05
-5.23208e-05
-2.38106e-05
-4.78429e-05
-2.40554e-05
-4.33621e-05
-2.40174e-05
-3.8924e-05
-2.37565e-05
-3.4562e-05
-2.33348e-05
-3.02972e-05
-2.28125e-05
-2.61393e-05
-2.22445e-05
-2.20884e-05
-2.16768e-05
-1.81374e-05
-2.11446e-05
-1.42748e-05
-2.0672e-05
-1.04865e-05
-2.02738e-05
-6.75674e-06
-1.99583e-05
-3.06897e-06
-1.97299e-05
5.94182e-07
-1.95903e-05
4.25053e-06
-1.95395e-05
7.91782e-06
-1.95764e-05
1.16134e-05
-1.96987e-05
1.53536e-05
-1.99026e-05
1.91527e-05
-2.0182e-05
2.30232e-05
-2.05285e-05
2.69751e-05
-2.0929e-05
3.10148e-05
-2.13647e-05
3.51438e-05
-2.18082e-05
3.93556e-05
-2.22216e-05
4.36338e-05
-2.25577e-05
4.79506e-05
-2.27618e-05
5.22665e-05
-2.27753e-05
5.65298e-05
-2.25394e-05
6.06781e-05
-2.19988e-05
6.46401e-05
-2.11055e-05
6.83378e-05
-1.98221e-05
7.169e-05
-1.81241e-05
7.46159e-05
-1.60009e-05
7.70383e-05
-1.34545e-05
7.88858e-05
-1.04965e-05
8.00934e-05
-7.14369e-06
8.06022e-05
-3.41581e-06
8.03583e-05
6.65453e-07
7.93131e-05
5.07366e-06
7.74247e-05
9.7725e-06
7.46599e-05
1.47084e-05
7.09991e-05
1.98012e-05
6.64416e-05
2.49347e-05
6.10122e-05
2.99465e-05
5.47688e-05
3.4617e-05
4.78123e-05
3.86599e-05
4.02978e-05
4.17182e-05
3.2447e-05
4.33713e-05
2.4559e-05
4.3162e-05
1.70164e-05
4.0651e-05
1.02793e-05
3.55085e-05
4.86098e-06
2.76473e-05
1.28421e-06
1.74001e-05
5.73648e-06
-1.46081e-06
7.46129e-06
-5.49031e-06
2.1966e-05
-1.15552e-05
3.43496e-05
-1.9053e-05
4.36418e-05
-2.74032e-05
4.95878e-05
-3.61006e-05
5.23855e-05
-4.4735e-05
5.24803e-05
-5.29888e-05
5.04174e-05
-6.0632e-05
4.67354e-05
-6.75036e-05
4.19185e-05
-7.34961e-05
3.63678e-05
-7.85442e-05
3.03985e-05
-8.26147e-05
2.4252e-05
-8.56991e-05
1.81101e-05
-8.7809e-05
1.21075e-05
-8.89726e-05
6.3429e-06
-8.92304e-05
8.88201e-07
-8.86321e-05
-4.20358e-06
-8.72343e-05
-8.89153e-06
-8.51003e-05
-1.3141e-05
-8.2301e-05
-1.69199e-05
-7.89159e-05
-2.01989e-05
-7.50329e-05
-2.29541e-05
-7.07462e-05
-2.51731e-05
-6.61525e-05
-2.68595e-05
-6.13459e-05
-2.80359e-05
-5.64142e-05
-2.87424e-05
-5.14354e-05
-2.90341e-05
-4.64763e-05
-2.89763e-05
-4.159e-05
-2.86424e-05
-3.68154e-05
-2.81089e-05
-3.21765e-05
-2.74508e-05
-2.76834e-05
-2.6737e-05
-2.33339e-05
-2.60255e-05
-1.91173e-05
-2.53604e-05
-1.5018e-05
-2.47707e-05
-1.10171e-05
-2.4274e-05
-7.09406e-06
-2.38806e-05
-3.22698e-06
-2.35963e-05
6.07487e-07
-2.3424e-05
4.43366e-06
-2.33649e-05
8.27595e-06
-2.3418e-05
1.21584e-05
-2.35805e-05
1.61033e-05
-2.38468e-05
2.01304e-05
-2.42085e-05
2.42565e-05
-2.4654e-05
2.84952e-05
-2.51672e-05
3.28564e-05
-2.57254e-05
3.73441e-05
-2.62954e-05
4.19529e-05
-2.68302e-05
4.66651e-05
-2.72697e-05
5.14489e-05
-2.75455e-05
5.6258e-05
-2.75845e-05
6.10321e-05
-2.73137e-05
6.56979e-05
-2.66648e-05
7.0171e-05
-2.5579e-05
7.43593e-05
-2.40107e-05
7.81667e-05
-2.19319e-05
8.14988e-05
-1.93333e-05
8.42667e-05
-1.62229e-05
8.63906e-05
-1.26208e-05
8.77996e-05
-8.55324e-06
8.84308e-05
-4.04765e-06
8.82274e-05
8.68052e-07
8.7138e-05
6.16217e-06
8.51175e-05
1.17922e-05
8.21304e-05
1.76948e-05
7.81559e-05
2.37752e-05
7.31936e-05
2.98966e-05
6.72707e-05
3.58693e-05
6.04492e-05
4.14384e-05
5.28361e-05
4.62731e-05
4.45958e-05
4.99587e-05
3.59653e-05
5.20023e-05
2.72687e-05
5.18597e-05
1.89258e-05
4.89954e-05
1.14492e-05
4.29865e-05
5.41897e-06
3.36769e-05
1.4341e-06
2.13866e-05
7.17231e-06
-1.64598e-06
9.10639e-06
-6.17461e-06
2.64927e-05
-1.29696e-05
4.11433e-05
-2.13377e-05
5.2008e-05
-3.06172e-05
5.88662e-05
-4.02411e-05
6.20086e-05
-4.97559e-05
6.19946e-05
-5.88207e-05
5.94812e-05
-6.71903e-05
5.51042e-05
-7.46952e-05
4.94231e-05
-8.12232e-05
4.28956e-05
-8.67045e-05
3.58791e-05
-9.11019e-05
2.86481e-05
-9.44048e-05
2.14114e-05
-9.66253e-05
1.43263e-05
-9.77941e-05
7.51019e-06
-9.79565e-05
1.04928e-06
-9.71676e-05
-4.99379e-06
-9.54891e-05
-1.05711e-05
-9.29902e-05
-1.56408e-05
-8.97489e-05
-2.01618e-05
-8.5855e-05
-2.40932e-05
-8.14099e-05
-2.73995e-05
-7.65242e-05
-3.00588e-05
-7.13123e-05
-3.20712e-05
-6.58857e-05
-3.34622e-05
-6.03473e-05
-3.42802e-05
-5.47887e-05
-3.45917e-05
-4.92877e-05
-3.44761e-05
-4.39062e-05
-3.40224e-05
-3.86892e-05
-3.33244e-05
-3.36639e-05
-3.24747e-05
-2.88397e-05
-3.15597e-05
-2.42109e-05
-3.0653e-05
-1.97609e-05
-2.98089e-05
-1.54681e-05
-2.90619e-05
-1.13077e-05
-2.84329e-05
-7.25248e-06
-2.79344e-05
-3.27326e-06
-2.7574e-05
6.61564e-07
-2.73574e-05
4.58539e-06
-2.72872e-05
8.5322e-06
-2.73632e-05
1.25355e-05
-2.75822e-05
1.66263e-05
-2.79359e-05
2.08316e-05
-2.84122e-05
2.51743e-05
-2.89951e-05
2.96728e-05
-2.96642e-05
3.43418e-05
-3.03931e-05
3.91902e-05
-3.11425e-05
4.4215e-05
-3.18538e-05
4.93974e-05
-3.2451e-05
5.47015e-05
-3.28484e-05
6.00738e-05
-3.29557e-05
6.5444e-05
-3.26828e-05
7.07259e-05
-3.19456e-05
7.58198e-05
-3.06718e-05
8.06156e-05
-2.88056e-05
8.49985e-05
-2.63139e-05
8.88558e-05
-2.31898e-05
9.20837e-05
-1.94502e-05
9.45913e-05
-1.51278e-05
9.63004e-05
-1.02618e-05
9.7143e-05
-4.8899e-06
9.70582e-05
9.52999e-07
9.59899e-05
7.2304e-06
9.38878e-05
1.38942e-05
9.07115e-05
2.08712e-05
8.64368e-05
2.80502e-05
8.1063e-05
3.52708e-05
7.46187e-05
4.23138e-05
6.71694e-05
4.88877e-05
5.88273e-05
5.4615e-05
4.9765e-05
5.90207e-05
4.02347e-05
6.15327e-05
3.0587e-05
6.1508e-05
2.12856e-05
5.82972e-05
1.29081e-05
5.13632e-05
6.12266e-06
4.04614e-05
1.62451e-06
2.58874e-05
8.79446e-06
-1.89101e-06
1.09963e-05
-7.06583e-06
3.16654e-05
-1.4788e-05
4.88644e-05
-2.42363e-05
6.14545e-05
-3.46398e-05
6.92689e-05
-4.53558e-05
7.27224e-05
-5.58804e-05
7.25194e-05
-6.58501e-05
6.94498e-05
-7.50094e-05
6.42619e-05
-8.31846e-05
5.75977e-05
-9.0261e-05
4.9972e-05
-9.61655e-05
4.17836e-05
-0.000100858
3.33401e-05
-0.000104326
2.48788e-05
-0.000106584
1.65833e-05
-0.000107668
8.59362e-06
-0.000107633
1.01255e-06
-0.00010654
-6.08726e-06
-0.000104461
-1.26519e-05
-0.00010147
-1.86327e-05
-9.7655e-05
-2.39776e-05
-9.31175e-05
-2.86312e-05
-8.79761e-05
-3.25413e-05
-8.23624e-05
-3.56728e-05
-7.64132e-05
-3.80205e-05
-7.02604e-05
-3.96149e-05
-6.40243e-05
-4.05161e-05
-5.7811e-05
-4.08045e-05
-5.17105e-05
-4.05758e-05
-4.57942e-05
-3.99377e-05
-4.01133e-05
-3.90043e-05
-3.46977e-05
-3.78894e-05
-2.95557e-05
-3.67009e-05
-2.46754e-05
-3.55325e-05
-2.00319e-05
-3.44515e-05
-1.55958e-05
-3.34971e-05
-1.13349e-05
-3.26927e-05
-7.21433e-06
-3.20538e-05
-3.19592e-06
-3.15913e-05
7.62358e-07
-3.13144e-05
4.70549e-06
-3.12291e-05
8.6798e-06
-3.13364e-05
1.27313e-05
-3.16325e-05
1.69025e-05
-3.21057e-05
2.12295e-05
-3.27379e-05
2.57422e-05
-3.35065e-05
3.04647e-05
-3.43856e-05
3.54181e-05
-3.53454e-05
4.0619e-05
-3.63424e-05
4.6069e-05
-3.73027e-05
5.17492e-05
-3.81299e-05
5.76192e-05
-3.87174e-05
6.36186e-05
-3.89539e-05
6.96662e-05
-3.87293e-05
7.56621e-05
-3.79405e-05
8.14894e-05
-3.64983e-05
8.7017e-05
-3.43326e-05
9.21067e-05
-3.14029e-05
9.66224e-05
-2.7705e-05
0.000100441
-2.32685e-05
0.000103459
-1.81447e-05
0.000105588
-1.23902e-05
0.000106755
-6.05625e-06
0.000106893
8.14844e-07
0.00010594
8.18329e-06
0.000103836
1.59973e-05
0.000100533
2.4174e-05
9.60003e-05
3.25829e-05
9.02342e-05
4.10368e-05
8.32644e-05
4.92835e-05
7.51581e-05
5.69936e-05
6.60296e-05
6.37428e-05
5.60557e-05
6.89939e-05
4.5499e-05
7.20891e-05
3.47353e-05
7.22715e-05
2.42772e-05
6.87543e-05
1.47842e-05
6.08546e-05
7.04107e-06
4.82054e-05
1.87319e-06
3.10555e-05
1.06653e-05
-2.21907e-06
1.32143e-05
-8.24209e-06
3.76863e-05
-1.7151e-05
5.77727e-05
-2.79379e-05
7.224e-05
-3.96833e-05
8.10153e-05
-5.16526e-05
8.46896e-05
-6.32926e-05
8.41602e-05
-7.42233e-05
8.03812e-05
-8.41907e-05
7.42293e-05
-9.30267e-05
6.64342e-05
-0.000100619
5.75657e-05
-0.000106895
4.80602e-05
-0.00011181
3.82564e-05
-0.000115352
2.8422e-05
-0.00011754
1.87716e-05
-0.000118419
9.47343e-06
-0.000118056
6.50605e-07
-0.000116528
-7.6149e-06
-0.000113913
-1.52662e-05
-0.000110296
-2.22494e-05
-0.000105772
-2.85004e-05
-0.000100459
-3.39443e-05
-9.44931e-05
-3.85064e-05
-8.80336e-05
-4.21319e-05
-8.12441e-05
-4.48097e-05
-7.42797e-05
-4.65792e-05
-6.72783e-05
-4.75176e-05
-6.036e-05
-4.77231e-05
-5.36265e-05
-4.73095e-05
-4.71585e-05
-4.64058e-05
-4.10125e-05
-4.51503e-05
-3.52214e-05
-4.36806e-05
-2.97913e-05
-4.21312e-05
-2.47007e-05
-4.06232e-05
-1.99131e-05
-3.92391e-05
-1.539e-05
-3.80201e-05
-1.10917e-05
-3.69909e-05
-6.97486e-06
-3.61706e-05
-2.99164e-06
-3.55746e-05
9.12141e-07
-3.52183e-05
4.79497e-06
-3.51121e-05
8.71776e-06
-3.52594e-05
1.27419e-05
-3.56569e-05
1.69237e-05
-3.62878e-05
2.13101e-05
-3.71245e-05
2.59384e-05
-3.8135e-05
3.08373e-05
-3.92846e-05
3.60355e-05
-4.05436e-05
4.15617e-05
-4.18686e-05
4.74253e-05
-4.31663e-05
5.36074e-05
-4.4312e-05
6.00642e-05
-4.51741e-05
6.67284e-05
-4.56182e-05
7.35093e-05
-4.55104e-05
8.0294e-05
-4.47256e-05
8.69487e-05
-4.31533e-05
9.33191e-05
-4.07035e-05
9.92384e-05
-3.73225e-05
0.000104542
-3.30088e-05
0.000109083
-2.78101e-05
0.000112742
-2.18036e-05
0.000115422
-1.507e-05
0.000117042
-7.67722e-06
0.000117532
3.24722e-07
0.000116819
8.89594e-06
0.00011483
1.79853e-05
0.000111502
2.75009e-05
0.000106795
3.72893e-05
0.000100701
4.71303e-05
9.32479e-05
5.67354e-05
8.45038e-05
6.57368e-05
7.45793e-05
7.36664e-05
6.36455e-05
7.99269e-05
5.19641e-05
8.37701e-05
3.99266e-05
8.43085e-05
2.80945e-05
8.05852e-05
1.72259e-05
7.17236e-05
8.25694e-06
5.71762e-05
2.20888e-06
3.71005e-05
1.2876e-05
-2.66434e-06
1.58782e-05
-9.81157e-06
4.48325e-05
-2.02371e-05
6.81988e-05
-3.26554e-05
8.46574e-05
-4.59516e-05
9.43132e-05
-5.92868e-05
9.80253e-05
-7.20751e-05
9.69497e-05
-8.39401e-05
9.22473e-05
-9.46496e-05
8.49397e-05
-0.000104058
7.58441e-05
-0.000112066
6.5575e-05
-0.0001186
5.45955e-05
-0.000123614
4.32718e-05
-0.000127095
3.19041e-05
-0.000129067
2.07443e-05
-0.000129592
9.9983e-06
-0.000128755
-1.85578e-07
-0.000126651
-9.71817e-06
-0.000123371
-1.85461e-05
-0.000119006
-2.66142e-05
-0.00011366
-3.38452e-05
-0.000107465
-4.01396e-05
-0.00010058
-4.53909e-05
-9.31952e-05
-4.95165e-05
-8.55072e-05
-5.24977e-05
-7.76948e-05
-5.43919e-05
-6.99098e-05
-5.53033e-05
-6.22831e-05
-5.53506e-05
-5.49266e-05
-5.46668e-05
-4.7928e-05
-5.3405e-05
-4.13476e-05
-5.1731e-05
-3.52211e-05
-4.98073e-05
-2.9553e-05
-4.77997e-05
-2.43078e-05
-4.5869e-05
-1.9432e-05
-4.41155e-05
-1.48793e-05
-4.25736e-05
-1.06036e-05
-4.12675e-05
-6.55354e-06
-4.02216e-05
-2.67206e-06
-3.94571e-05
1.10804e-06
-3.89993e-05
4.85965e-06
-3.88646e-05
8.65909e-06
-3.90597e-05
1.25856e-05
-3.95842e-05
1.67118e-05
-4.04148e-05
2.10958e-05
-4.15092e-05
2.57819e-05
-4.28218e-05
3.0799e-05
-4.43023e-05
3.61824e-05
-4.59276e-05
4.19817e-05
-4.76685e-05
4.82173e-05
-4.94025e-05
5.48694e-05
-5.09646e-05
6.18908e-05
-5.21961e-05
6.92106e-05
-5.29388e-05
7.67309e-05
-5.30314e-05
8.43294e-05
-5.23248e-05
9.18588e-05
-5.06832e-05
9.91419e-05
-4.79869e-05
0.000105979
-4.41599e-05
0.000112171
-3.92006e-05
0.000117543
-3.31826e-05
0.000121959
-2.62196e-05
0.000125313
-1.84243e-05
0.000127521
-9.8848e-06
0.000128504
-6.58761e-07
0.00012818
9.21944e-06
0.000126458
1.97073e-05
0.000123251
3.07067e-05
0.000118506
4.20344e-05
0.000112207
5.3428e-05
0.000104384
6.45576e-05
9.51012e-05
7.50192e-05
8.4458e-05
8.43093e-05
7.2604e-05
9.17808e-05
5.97774e-05
9.65968e-05
4.63624e-05
9.77231e-05
3.29549e-05
9.39928e-05
2.04174e-05
8.42633e-05
9.88264e-06
6.77112e-05
2.67257e-06
4.43098e-05
1.55509e-05
-3.28937e-06
1.91676e-05
-1.19494e-05
5.34927e-05
-2.4301e-05
8.05522e-05
-3.86455e-05
9.90025e-05
-5.36316e-05
0.000109299
-6.83284e-05
0.000112724
-8.21581e-05
0.00011078
-9.47893e-05
0.000104879
-0.000106046
9.61969e-05
-0.000115829
8.56278e-05
-0.00012406
7.38064e-05
-0.000130668
6.12036e-05
-0.000135602
4.82058e-05
-0.000138846
3.51474e-05
-0.000140429
2.23271e-05
-0.000140433
1.00024e-05
-0.000138975
-1.64425e-06
-0.000136172
-1.25218e-05
-0.000132126
-2.25926e-05
-0.000126933
-3.18069e-05
-0.000120705
-4.00734e-05
-0.000113583
-4.72623e-05
-0.00010575
-5.3224e-05
-9.74325e-05
-5.78339e-05
-8.88657e-05
-6.10645e-05
-8.02498e-05
-6.30079e-05
-7.17406e-05
-6.38127e-05
-6.34724e-05
-6.36191e-05
-5.55636e-05
-6.25757e-05
-4.81063e-05
-6.08622e-05
-4.116e-05
-5.8677e-05
-3.47648e-05
-5.62021e-05
-2.89284e-05
-5.36364e-05
-2.35938e-05
-5.12043e-05
-1.86836e-05
-4.90266e-05
-1.41489e-05
-4.71095e-05
-9.94163e-06
-4.5476e-05
-6.00302e-06
-4.41614e-05
-2.26901e-06
-4.31924e-05
1.34085e-06
-4.26101e-05
4.91341e-06
-4.2438e-05
8.53801e-06
-4.26851e-05
1.23141e-05
-4.33611e-05
1.63331e-05
-4.44347e-05
2.06635e-05
-4.58404e-05
2.53567e-05
-4.75158e-05
3.04306e-05
-4.93771e-05
3.59218e-05
-5.14195e-05
4.19165e-05
-5.36639e-05
4.845e-05
-5.59366e-05
5.54951e-05
-5.80104e-05
6.3002e-05
-5.97035e-05
7.0901e-05
-6.08382e-05
7.90914e-05
-6.1222e-05
8.74485e-05