/*--------------------------------*- C++ -*----------------------------------*\
| =========                 |                                                 |
| \\      /  F ield         | OpenFOAM: The Open Source CFD Toolbox           |
|  \\    /   O peration     | Version:  2412                                  |
|   \\  /    A nd           | Website:  www.openfoam.com                      |
|    \\/     M anipulation  |                                                 |
\*---------------------------------------------------------------------------*/
FoamFile
{
    version     2.0;
    format      ascii;
    arch        "LSB;label=32;scalar=64";
    class       volScalarField;
    location    "3.45";
    object      p_rgh;
}
// * * * * * * * * * * * * * * * * * * * * * * * * * * * * * * * * * * * * * //

dimensions      [1 -1 -2 0 0 0 0];

internalField   nonuniform List<scalar> 
6400
(
7315.91
7315.8
7315.57
7315.26
7314.89
7314.5
7314.11
7313.74
7313.45
7313.23
7313.1
7313.1
7313.22
7313.48
7313.87
7314.4
7315.07
7315.88
7316.81
7317.88
7319.06
7320.36
7321.78
7323.29
7324.9
7326.58
7328.33
7330.12
7331.93
7333.74
7335.52
7337.24
7338.87
7340.37
7341.72
7342.89
7343.85
7344.58
7345.06
7345.28
7345.23
7344.9
7344.31
7343.46
7342.37
7341.07
7339.56
7337.89
7336.08
7334.16
7332.17
7330.12
7328.06
7325.99
7323.96
7321.97
7320.05
7318.21
7316.47
7314.83
7313.31
7311.92
7310.66
7309.54
7308.57
7307.76
7307.12
7306.63
7306.3
7306.13
7306.1
7306.19
7306.39
7306.67
7306.99
7307.34
7307.66
7307.94
7308.14
7308.25
7316.03
7315.9
7315.65
7315.31
7314.92
7314.49
7314.07
7313.67
7313.34
7313.09
7312.95
7312.92
7313.03
7313.28
7313.67
7314.21
7314.88
7315.69
7316.64
7317.71
7318.91
7320.23
7321.65
7323.19
7324.81
7326.52
7328.29
7330.1
7331.95
7333.79
7335.6
7337.35
7339.02
7340.55
7341.94
7343.13
7344.12
7344.86
7345.35
7345.58
7345.52
7345.19
7344.59
7343.73
7342.62
7341.29
7339.76
7338.06
7336.21
7334.26
7332.23
7330.16
7328.06
7325.97
7323.91
7321.9
7319.96
7318.1
7316.34
7314.68
7313.14
7311.73
7310.46
7309.34
7308.36
7307.55
7306.9
7306.42
7306.1
7305.95
7305.94
7306.06
7306.29
7306.61
7306.97
7307.35
7307.7
7308
7308.24
7308.36
7316.27
7316.12
7315.83
7315.44
7314.98
7314.49
7314
7313.54
7313.14
7312.84
7312.65
7312.6
7312.68
7312.92
7313.3
7313.84
7314.52
7315.34
7316.3
7317.4
7318.62
7319.96
7321.41
7322.98
7324.64
7326.38
7328.2
7330.06
7331.96
7333.86
7335.73
7337.55
7339.27
7340.87
7342.31
7343.56
7344.59
7345.37
7345.89
7346.13
7346.08
7345.74
7345.11
7344.22
7343.07
7341.69
7340.1
7338.34
7336.44
7334.43
7332.34
7330.2
7328.05
7325.91
7323.81
7321.75
7319.77
7317.88
7316.08
7314.4
7312.83
7311.39
7310.09
7308.95
7307.96
7307.14
7306.49
7306.02
7305.72
7305.6
7305.64
7305.81
7306.11
7306.49
7306.93
7307.38
7307.8
7308.16
7308.44
7308.58
7316.65
7316.46
7316.11
7315.64
7315.09
7314.49
7313.89
7313.33
7312.84
7312.46
7312.21
7312.1
7312.16
7312.37
7312.75
7313.29
7313.98
7314.83
7315.82
7316.94
7318.19
7319.57
7321.06
7322.66
7324.37
7326.17
7328.04
7329.98
7331.95
7333.94
7335.9
7337.81
7339.63
7341.32
7342.85
7344.18
7345.28
7346.11
7346.67
7346.93
7346.88
7346.53
7345.88
7344.93
7343.72
7342.27
7340.6
7338.75
7336.76
7334.65
7332.47
7330.26
7328.03
7325.81
7323.64
7321.53
7319.5
7317.55
7315.71
7313.98
7312.37
7310.89
7309.56
7308.38
7307.36
7306.52
7305.87
7305.41
7305.15
7305.07
7305.17
7305.44
7305.83
7306.32
7306.87
7307.44
7307.97
7308.41
7308.76
7308.93
7317.2
7316.96
7316.52
7315.93
7315.24
7314.49
7313.74
7313.04
7312.42
7311.93
7311.59
7311.42
7311.43
7311.63
7312
7312.56
7313.27
7314.15
7315.17
7316.33
7317.62
7319.04
7320.58
7322.24
7324.01
7325.87
7327.82
7329.85
7331.92
7334.02
7336.1
7338.14
7340.09
7341.91
7343.56
7345
7346.19
7347.1
7347.71
7348
7347.96
7347.59
7346.89
7345.88
7344.59
7343.03
7341.25
7339.28
7337.16
7334.93
7332.63
7330.3
7327.97
7325.67
7323.41
7321.23
7319.13
7317.12
7315.21
7313.42
7311.76
7310.22
7308.84
7307.61
7306.56
7305.7
7305.04
7304.59
7304.36
7304.34
7304.53
7304.91
7305.45
7306.09
7306.8
7307.53
7308.21
7308.78
7309.23
7309.45
7317.95
7317.64
7317.08
7316.33
7315.45
7314.5
7313.55
7312.65
7311.86
7311.22
7310.77
7310.52
7310.49
7310.66
7311.04
7311.62
7312.36
7313.28
7314.35
7315.56
7316.9
7318.38
7319.97
7321.69
7323.53
7325.47
7327.52
7329.65
7331.85
7334.09
7336.32
7338.52
7340.64
7342.63
7344.43
7346.02
7347.34
7348.35
7349.04
7349.37
7349.33
7348.94
7348.18
7347.08
7345.67
7343.98
7342.05
7339.92
7337.64
7335.25
7332.8
7330.33
7327.88
7325.46
7323.11
7320.83
7318.65
7316.56
7314.59
7312.73
7310.99
7309.38
7307.93
7306.64
7305.53
7304.63
7303.95
7303.51
7303.32
7303.38
7303.69
7304.22
7304.93
7305.79
7306.72
7307.67
7308.56
7309.31
7309.88
7310.18
7318.96
7318.56
7317.83
7316.86
7315.73
7314.51
7313.29
7312.14
7311.12
7310.3
7309.72
7309.38
7309.29
7309.45
7309.84
7310.44
7311.24
7312.21
7313.34
7314.62
7316.02
7317.56
7319.22
7321.01
7322.92
7324.95
7327.11
7329.37
7331.72
7334.12
7336.55
7338.96
7341.29
7343.49
7345.5
7347.27
7348.75
7349.9
7350.68
7351.06
7351.04
7350.6
7349.77
7348.57
7347.01
7345.14
7343.02
7340.69
7338.2
7335.61
7332.98
7330.33
7327.72
7325.17
7322.7
7320.33
7318.05
7315.89
7313.83
7311.88
7310.06
7308.36
7306.81
7305.44
7304.25
7303.29
7302.57
7302.13
7301.98
7302.14
7302.59
7303.31
7304.27
7305.4
7306.64
7307.88
7309.04
7310.02
7310.78
7311.17
7320.3
7319.78
7318.82
7317.58
7316.11
7314.53
7312.95
7311.47
7310.17
7309.11
7308.36
7307.92
7307.78
7307.94
7308.36
7309.02
7309.89
7310.94
7312.14
7313.49
7314.97
7316.57
7318.3
7320.16
7322.15
7324.29
7326.56
7328.97
7331.49
7334.1
7336.77
7339.42
7342.02
7344.49
7346.76
7348.77
7350.46
7351.77
7352.67
7353.12
7353.11
7352.63
7351.71
7350.35
7348.61
7346.53
7344.16
7341.57
7338.83
7335.99
7333.12
7330.27
7327.48
7324.78
7322.18
7319.69
7317.32
7315.07
7312.92
7310.88
7308.95
7307.14
7305.48
7303.99
7302.69
7301.64
7300.87
7300.41
7300.31
7300.56
7301.18
7302.15
7303.42
7304.92
7306.54
7308.17
7309.7
7311
7311.99
7312.52
7322.07
7321.39
7320.13
7318.51
7316.61
7314.56
7312.51
7310.6
7308.93
7307.59
7306.63
7306.08
7305.91
7306.08
7306.56
7307.31
7308.27
7309.42
7310.73
7312.17
7313.73
7315.41
7317.21
7319.13
7321.2
7323.43
7325.83
7328.4
7331.13
7333.99
7336.93
7339.9
7342.83
7345.64
7348.24
7350.55
7352.5
7354.02
7355.07
7355.6
7355.6
7355.07
7354.02
7352.49
7350.51
7348.14
7345.47
7342.56
7339.5
7336.36
7333.21
7330.11
7327.11
7324.24
7321.5
7318.91
7316.44
7314.1
7311.86
7309.71
7307.66
7305.72
7303.91
7302.26
7300.82
7299.64
7298.77
7298.28
7298.2
7298.56
7299.38
7300.66
7302.33
7304.29
7306.43
7308.58
7310.59
7312.31
7313.61
7314.32
7324.39
7323.48
7321.85
7319.73
7317.26
7314.58
7311.91
7309.43
7307.29
7305.62
7304.43
7303.77
7303.58
7303.8
7304.39
7305.26
7306.37
7307.66
7309.09
7310.65
7312.3
7314.05
7315.91
7317.89
7320.03
7322.35
7324.87
7327.62
7330.58
7333.72
7337
7340.36
7343.7
7346.93
7349.94
7352.63
7354.91
7356.7
7357.93
7358.56
7358.58
7357.98
7356.78
7355.01
7352.73
7350.02
7346.96
7343.65
7340.19
7336.68
7333.19
7329.81
7326.57
7323.51
7320.64
7317.94
7315.39
7312.96
7310.63
7308.38
7306.19
7304.09
7302.09
7300.24
7298.6
7297.23
7296.22
7295.63
7295.55
7296.02
7297.1
7298.74
7300.91
7303.48
7306.31
7309.16
7311.8
7314.05
7315.76
7316.7
7327.37
7326.14
7324.07
7321.34
7318.11
7314.6
7311.06
7307.84
7305.11
7303.02
7301.59
7300.83
7300.68
7301.02
7301.78
7302.85
7304.16
7305.63
7307.22
7308.9
7310.66
7312.48
7314.39
7316.4
7318.59
7320.97
7323.61
7326.54
7329.75
7333.23
7336.92
7340.75
7344.61
7348.36
7351.89
7355.06
7357.75
7359.87
7361.33
7362.1
7362.14
7361.45
7360.05
7357.99
7355.34
7352.19
7348.64
7344.83
7340.88
7336.9
7333.01
7329.28
7325.78
7322.52
7319.52
7316.74
7314.13
7311.64
7309.23
7306.87
7304.53
7302.23
7299.99
7297.88
7295.97
7294.34
7293.09
7292.35
7292.22
7292.8
7294.14
7296.24
7299.03
7302.38
7306.14
7309.93
7313.44
7316.37
7318.55
7319.79
7331.12
7329.47
7326.94
7323.39
7319.15
7314.49
7309.83
7305.6
7302.13
7299.56
7297.9
7297.09
7297.04
7297.61
7298.64
7300.01
7301.59
7303.3
7305.1
7306.94
7308.8
7310.69
7312.62
7314.64
7316.82
7319.23
7321.96
7325.05
7328.55
7332.42
7336.61
7341.02
7345.51
7349.93
7354.11
7357.87
7361.09
7363.62
7365.38
7366.32
7366.38
7365.57
7363.93
7361.5
7358.37
7354.66
7350.51
7346.07
7341.5
7336.96
7332.57
7328.44
7324.63
7321.18
7318.07
7315.24
7312.62
7310.12
7307.65
7305.18
7302.67
7300.13
7297.61
7295.15
7292.87
7290.86
7289.28
7288.28
7288.01
7288.64
7290.26
7292.9
7296.49
7300.8
7305.91
7310.94
7315.58
7319.4
7322.1
7323.74
7335.96
7333.57
7330.77
7326.11
7320.33
7314.15
7307.91
7302.33
7297.95
7294.84
7292.98
7292.23
7292.43
7293.37
7294.83
7296.62
7298.59
7300.63
7302.68
7304.71
7306.71
7308.65
7310.58
7312.56
7314.65
7317.01
7319.78
7323.03
7326.83
7331.15
7335.94
7341.07
7346.36
7351.62
7356.62
7361.15
7365.02
7368.07
7370.2
7371.35
7371.43
7370.48
7368.52
7365.63
7361.9
7357.49
7352.57
7347.33
7341.99
7336.74
7331.75
7327.15
7323.02
7319.37
7316.19
7313.38
7310.82
7308.36
7305.88
7303.32
7300.61
7297.79
7294.89
7292
7289.21
7286.68
7284.57
7283.13
7282.6
7283.19
7285.08
7288.35
7293.04
7299.06
7305.52
7312.11
7318.33
7323.45
7326.49
7328.94
7343.19
7338.48
7333.82
7326.9
7320.46
7312.85
7304.64
7297.27
7291.88
7288.25
7286.29
7285.79
7286.48
7288.07
7290.19
7292.59
7295.07
7297.53
7299.91
7302.18
7304.33
7306.34
7308.21
7310.04
7311.95
7314.17
7316.9
7320.29
7324.41
7329.26
7334.78
7340.8
7347.1
7353.42
7359.46
7364.95
7369.65
7373.37
7375.95
7377.37
7377.48
7376.34
7373.98
7370.5
7366.02
7360.72
7354.82
7348.58
7342.26
7336.13
7330.41
7325.25
7320.75
7316.94
7313.75
7311.05
7308.66
7306.36
7303.94
7301.29
7298.36
7295.18
7291.82
7288.35
7284.89
7281.6
7278.71
7276.55
7275.48
7275.87
7277.94
7281.88
7287.73
7295.48
7304.13
7312.17
7319.11
7325.85
7331.9
7336.73
7356.85
7346.57
7332.43
7321.44
7317.09
7309.35
7298.93
7289.74
7282.83
7278.77
7277.08
7277.26
7278.87
7281.48
7284.56
7287.77
7290.89
7293.85
7296.63
7299.22
7301.58
7303.66
7305.42
7306.97
7308.54
7310.48
7313.08
7316.55
7321.02
7326.51
7332.92
7340.06
7347.64
7355.32
7362.7
7369.42
7375.16
7379.7
7382.85
7384.6
7384.73
7383.34
7380.49
7376.27
7370.84
7364.41
7357.27
7349.74
7342.18
7334.95
7328.33
7322.52
7317.62
7313.66
7310.55
7308.12
7306.07
7304.08
7301.82
7299.09
7295.89
7292.26
7288.3
7284.09
7279.75
7275.46
7271.47
7268.17
7266.12
7265.88
7267.85
7272.38
7279.78
7289.6
7300.67
7308.38
7309.38
7320.85
7340.49
7350.61
7376.14
7360.4
7331.01
7315.92
7312.64
7301.89
7288.3
7276.47
7269.27
7265.8
7265.15
7266.62
7269.69
7273.71
7277.98
7282.12
7285.92
7289.36
7292.56
7295.53
7298.19
7300.38
7301.98
7303.08
7304.1
7305.57
7307.91
7311.41
7316.28
7322.53
7330.07
7338.63
7347.87
7357.32
7366.44
7374.73
7381.81
7387.37
7391.23
7393.31
7393.47
7391.79
7388.32
7383.19
7376.56
7368.7
7359.95
7350.74
7341.58
7332.94
7325.21
7318.61
7313.26
7309.18
7306.26
7304.26
7302.78
7301.33
7299.35
7296.56
7293
7288.8
7284.12
7279.08
7273.75
7268.25
7262.87
7258.02
7254.47
7253.05
7254.27
7258.56
7266.62
7279.17
7293.56
7305.99
7305.91
7321.5
7353.95
7369.78
7407.58
7382.22
7343.99
7320.5
7305.45
7287.22
7269.76
7256.03
7251.04
7248.8
7249.22
7252.12
7257.41
7263.73
7269.78
7275.17
7279.73
7283.57
7287.09
7290.48
7293.61
7296.07
7297.45
7297.84
7298.07
7298.91
7300.86
7304.35
7309.64
7316.81
7325.75
7336.17
7347.62
7359.43
7370.86
7381.18
7389.89
7396.66
7401.31
7403.75
7403.93
7401.9
7397.73
7391.5
7383.42
7373.77
7362.93
7351.47
7340.13
7329.63
7320.52
7313.04
7307.23
7303.06
7300.43
7299
7298.28
7297.64
7296.13
7293.21
7289.11
7284.22
7278.78
7272.86
7266.35
7259.27
7251.91
7244.67
7238.82
7236.09
7236.81
7240.35
7246.48
7261.46
7279.99
7299.45
7314.59
7337.61
7376.59
7400.99
7465.03
7437.12
7382.9
7338.16
7300.43
7267.72
7244.83
7234.96
7221.57
7215.8
7217.65
7225.36
7236.76
7248.1
7257.52
7264.94
7270.56
7275.03
7279.29
7283.61
7287.7
7290.78
7291.96
7291.07
7289.99
7289.76
7291.05
7294.45
7300.29
7308.66
7319.41
7332.17
7346.49
7361.52
7376.07
7389.03
7399.73
7407.9
7413.41
7416.26
7416.43
7414.02
7409.04
7401.52
7391.68
7379.8
7366.2
7351.63
7337.3
7324.42
7313.66
7305.17
7298.81
7294.43
7292.16
7291.73
7292.36
7293.13
7292.25
7288.97
7283.92
7277.84
7271.1
7263.77
7255.53
7246.02
7235.18
7223.02
7211.13
7203.75
7203.66
7211.72
7227.04
7237.96
7262.09
7296.05
7333.61
7375.88
7424.68
7453.36
7522.21
7494.92
7433.59
7352.01
7264.13
7195.34
7093.45
7077.58
7034.7
7034.2
7110.19
7172.75
7204.1
7226.88
7242.65
7253.36
7260.73
7266.6
7272.71
7279.4
7285.45
7288.95
7288.7
7286.01
7282.59
7280.39
7280.34
7283.26
7289.38
7298.83
7311.39
7326.78
7344.62
7363.71
7382.22
7398.48
7411.62
7421.45
7427.98
7431.27
7431.43
7428.54
7422.66
7413.53
7401.49
7386.88
7369.82
7351.32
7333.26
7317.6
7305.34
7296.21
7289.59
7285.23
7283.69
7284.99
7288.03
7290.84
7291.99
7289.15
7282.67
7274.01
7264.41
7254.41
7243.05
7229.24
7211.8
7188.78
7158.68
7090.45
7000.49
6994.2
7050.33
7092.39
7196.41
7266.75
7352.48
7429.77
7487.02
7512.94
7545.83
7525.05
7354.34
6106.27
4391.61
3249.12
3256.22
3301.08
3043.5
2966.04
3684.9
4876.79
5678.98
6066.94
6276.49
6414.94
6511.65
6572.37
6636.78
6738.35
6871.47
7032.17
7072.95
6899.48
6720.6
6583.63
6481.35
6421.71
6430.4
6501.84
6627.2
6808.2
7023.28
7226.05
7384.92
7409.57
7425.96
7437.81
7445.5
7449.31
7449.4
7445.81
7438.68
7427.98
7413.58
7395.34
7327.73
7153.07
6945.75
6751.28
6608.6
6522.81
6494.35
6509.45
6579.63
6700.35
6865.06
7048.69
7109.34
6968.18
6830.56
6708.38
6589.03
6465.58
6297.54
6081.94
5816.32
5422.8
4680.65
3565.73
2835.5
2853.73
3152.48
3219.82
3374.71
4559.15
6242.15
7389.79
7522.26
7539.23
6224.31
6493.63
5495.62
3001.22
693.575
51.3443
6.74044
2.66172
1.91183
1.10911
1.15655
24.2597
525.016
858.848
1065.64
1207.46
1308.49
1363.21
1431.13
1544.69
1621.14
1544.74
1402.85
1285.77
1158.74
1043.21
1010.77
1081.39
1183.57
1326
1529.46
1786.64
2123.94
2541.08
2998.25
3529.29
3956.32
4274.04
4486.62
4594.72
4603.56
4511.81
4324.43
4041.23
3657.22
3176.43
2664.56
2234.22
1864.52
1592.87
1418.57
1306.59
1195.32
1085.7
1060.12
1162.69
1318.41
1462.46
1603.6
1712.38
1672.1
1526.54
1376.12
1232.87
1059.97
861.4
648.08
354.67
2.14734
1.15404
1.37019
2.822
3.9542
8.55697
75.0765
854.718
3197.16
5546.59
6431.55
6156.58
590.673
747.93
515.313
131.994
6.75999
11.7549
6.49426
1.69116
1.2763
1.03127
1.10549
1.42249
1.4947
1.48633
1.45503
1.40671
1.34053
1.26728
1.1826
1.08564
0.96569
0.87096
0.879621
0.910637
1.08623
1.41597
2.21634
3.67355
3.97868
3.66514
3.32489
2.94119
2.55722
2.2654
2.16605
12.5248
39.3345
71.0179
97.8373
113.627
114.115
97.6101
71.4488
42.1822
15.7173
1.83095
1.34059
1.5424
1.91398
2.46884
3.11425
3.82923
4.00623
2.76507
1.5602
1.02065
0.73427
0.646262
0.59665
0.629717
0.74791
0.8785
0.987903
1.09331
1.1978
1.28878
1.3565
1.40955
1.3745
1.1325
1.18686
1.60994
3.1221
24.5387
29.0581
10.6118
150.051
512.154
701.11
564.104
6.71758
5.64886
2.7921
1.77564
1.66338
3.42149
3.79487
1.51776
1.19144
1.10161
1.17278
1.39894
1.50862
1.51819
1.48232
1.42999
1.36411
1.29077
1.21314
1.13751
1.04568
0.985986
0.946534
0.931522
0.932897
0.934587
0.950212
1.0369
1.02138
0.953548
0.88415
0.815263
0.755747
0.706057
0.656208
0.575697
0.487796
0.445087
0.437656
0.441035
0.446505
0.453074
0.457406
0.478409
0.532949
0.595399
0.631244
0.660263
0.68965
0.733838
0.790615
0.865055
0.900443
0.81328
0.752194
0.727671
0.708614
0.702214
0.70898
0.750431
0.827117
0.923053
1.01785
1.11292
1.20814
1.29554
1.36403
1.39397
1.32022
1.15625
1.1207
1.25136
5.15157
16.6536
13.1549
2.01453
0.510116
1.11425
4.66746
6.05035
6.03159
4.01432
2.31784
1.36441
1.39549
1.59133
1.4817
1.02742
1.1823
1.34572
1.62291
1.66349
1.61525
1.57729
1.5109
1.43593
1.35773
1.27927
1.20422
1.13328
1.06101
1.00261
0.96324
0.93974
0.925552
0.910813
0.894268
0.873523
0.839593
0.80644
0.765808
0.725965
0.686524
0.645634
0.599321
0.54378
0.49055
0.453127
0.434828
0.431154
0.434748
0.443603
0.459079
0.487647
0.525454
0.565033
0.59657
0.622415
0.643085
0.662667
0.681731
0.702109
0.721147
0.727733
0.727473
0.72725
0.727482
0.731679
0.74778
0.785764
0.846414
0.926584
1.01358
1.10621
1.20553
1.30499
1.39542
1.45852
1.45244
1.34679
1.16625
0.895275
2.66861
7.48906
7.99957
0.253364
0.0555838
0.607816
1.1161
1.39861
18.1265
5.90058
1.01246
1.00693
1.26409
2.31881
2.4702
2.61691
2.72382
2.58808
2.111
1.78445
1.73355
1.64789
1.55621
1.45556
1.3565
1.26515
1.18568
1.11814
1.05624
1.00099
0.955809
0.923855
0.902563
0.88318
0.862497
0.83949
0.810799
0.781704
0.746859
0.711838
0.676386
0.639398
0.599961
0.558278
0.518751
0.488174
0.470423
0.464825
0.467912
0.476832
0.490972
0.511865
0.537653
0.565059
0.590221
0.61329
0.633709
0.65223
0.668816
0.683855
0.697322
0.704742
0.709525
0.713943
0.718954
0.729722
0.755651
0.796237
0.851969
0.922789
1.00591
1.10189
1.21117
1.32343
1.4276
1.5138
1.56474
1.50802
1.30799
0.899109
0.369408
0.129072
0.948978
-0.0199462
-0.20517
0.400439
0.77796
1.12619
18.0885
5.9526
0.727475
1.5105
2.5751
2.3728
2.3417
2.57735
3.11515
3.34276
2.06809
1.82812
1.78633
1.75758
1.88655
1.64939
1.38187
1.23666
1.14945
1.08202
1.02908
0.980085
0.936684
0.904732
0.879123
0.856282
0.833784
0.8106
0.785267
0.757782
0.728665
0.698339
0.667026
0.634744
0.601578
0.568313
0.537529
0.512833
0.496981
0.490723
0.492619
0.500102
0.512213
0.527555
0.545431
0.565835
0.586748
0.606799
0.62511
0.641493
0.655846
0.667978
0.677727
0.68465
0.690477
0.696456
0.704768
0.719517
0.745069
0.782738
0.832537
0.897547
0.98165
1.10579
1.45307
1.51733
1.45978
1.52125
1.55287
1.52678
1.31678
1.06397
0.983698
0.460971
1.16489
0.48407
1.12884
2.00687
1.17361
0.971435
18.4544
2.13251
0.683594
2.70237
2.61157
2.44685
2.19925
1.4502
1.56587
1.73766
1.69132
1.77562
1.97196
2.78815
3.20136
2.904
2.28583
1.58769
1.1621
1.02201
0.982274
0.943044
0.907926
0.878445
0.8536
0.830899
0.809005
0.786862
0.763345
0.738433
0.712397
0.685386
0.657644
0.629474
0.601258
0.573827
0.548832
0.528536
0.51496
0.508927
0.509462
0.514495
0.523971
0.535109
0.548701
0.565576
0.583639
0.601337
0.617513
0.632027
0.644592
0.654987
0.66302
0.668623
0.673114
0.678046
0.68532
0.697737
0.718192
0.747074
0.788393
0.850383
1.0766
1.75961
2.31729
2.44697
2.11054
1.51625
1.47993
1.39749
1.15241
0.75306
0.628996
1.4527
1.54791
1.65677
2.02082
2.47953
1.6581
0.974729
15.0141
0.866177
0.809756
1.57266
1.58702
0.59315
0.507843
0.635511
0.972343
1.30642
1.53453
1.85318
3.2034
3.43503
3.30283
3.07209
2.86514
2.25007
1.14536
0.957047
0.921249
0.896256
0.870686
0.846361
0.824595
0.804203
0.784153
0.763776
0.742389
0.719967
0.696647
0.672633
0.648159
0.623561
0.599316
0.576185
0.555395
0.53861
0.527399
0.522025
0.521676
0.524395
0.531567
0.539707
0.55116
0.565774
0.581343
0.597169
0.611324
0.623968
0.63475
0.643354
0.649534
0.65323
0.655199
0.656586
0.658996
0.664736
0.6755
0.69393
0.727552
1.01661
1.94438
2.16098
2.26734
2.3828
2.49049
2.30624
1.38456
1.24201
1.02305
0.678053
0.284692
0.113144
0.454831
2.10577
2.44307
2.80769
1.47355
1.07849
1.28939
1.02408
0.971125
0.848396
0.715391
0.630266
0.649626
0.771713
0.956212
1.16806
1.39304
2.43969
3.42864
3.76398
2.53654
2.66304
2.21227
1.44599
1.01524
0.910259
0.873509
0.847602
0.828212
0.81039
0.793215
0.776272
0.758945
0.740881
0.721841
0.701821
0.680989
0.659613
0.637999
0.616499
0.595564
0.575828
0.558297
0.544455
0.535377
0.530708
0.530148
0.532385
0.536777
0.543135
0.553415
0.566036
0.579618
0.593288
0.605946
0.617153
0.626462
0.633407
0.637586
0.638763
0.637112
0.633271
0.628385
0.624078
0.623561
0.633812
0.72758
1.81697
1.97526
2.08457
2.18779
2.2997
2.3976
2.44528
2.27755
1.17785
0.903153
0.680635
0.443675
0.278005
0.253005
0.389349
1.78968
1.98177
1.21588
1.21373
1.4386
1.35148
1.15377
0.994012
0.840708
0.740653
0.72846
1.20045
1.1899
1.26822
1.37688
2.00134
3.29211
3.99685
1.77722
1.31794
1.14322
1.03261
0.962691
0.888695
0.83102
0.798419
0.782333
0.771673
0.760707
0.748128
0.733976
0.718433
0.701651
0.68383
0.665245
0.646212
0.627086
0.608238
0.590049
0.573029
0.558088
0.546668
0.539285
0.53554
0.535329
0.539331
0.542251
0.547657
0.554457
0.565404
0.577591
0.589859
0.601347
0.611499
0.619758
0.625484
0.628005
0.62669
0.621013
0.610702
0.59592
0.577364
0.566468
0.570261
0.910088
1.61904
1.76859
1.56289
1.32021
1.49344
2.12664
2.3741
2.30161
1.15125
0.774888
0.632137
0.526228
0.470695
0.502699
0.640008
0.872818
1.08999
1.28504
1.31878
1.75457
1.70101
1.27055
1.08281
0.916106
1.85733
7.081
7.95233
7.37047
1.84781
1.30933
1.79555
4.49473
5.90057
4.23389
2.04438
1.08904
0.9612
0.934738
1.14839
0.895413
0.74267
0.73187
0.730744
0.728019
0.720455
0.709567
0.696522
0.681841
0.665984
0.649369
0.632377
0.615381
0.598776
0.58286
0.568027
0.555138
0.545536
0.539585
0.542709
0.539108
0.543794
0.547148
0.548466
0.554022
0.564043
0.575283
0.586678
0.597489
0.607133
0.614945
0.620102
0.62163
0.618373
0.608899
0.591527
0.564036
0.526941
0.501563
0.58754
0.860803
0.633394
0.642326
0.716791
0.828118
1.11088
2.63268
2.04119
1.10672
0.825353
0.634684
0.534476
0.51247
0.53073
0.607925
0.753484
0.950779
1.1473
1.29966
1.37234
2.91029
1.83706
1.3103
1.13118
2.95133
9.12115
8.65452
8.22358
2.93972
1.1625
1.44025
5.27141
5.52442
5.56151
5.56611
5.49935
2.52338
0.874037
0.865861
1.1035
1.08262
0.68111
0.67925
0.689749
0.697043
0.694602
0.686528
0.675641
0.662699
0.648443
0.633447
0.618168
0.602924
0.58823
0.574229
0.561172
0.549882
0.541502
0.537087
0.545196
0.622093
0.544015
0.542369
0.545234
0.552294
0.561932
0.572683
0.583696
0.594366
0.604118
0.612218
0.617708
0.619329
0.61535
0.603337
0.579843
0.537744
0.479161
0.599061
0.773661
0.526678
0.50602
0.529957
0.573577
0.657586
1.59807
4.23148
4.12981
1.52101
0.661294
0.443571
2.40882
2.89833
1.02447
0.630734
0.785507
0.976606
1.16685
1.30323
1.37517
4.49148
1.62711
1.29178
1.311
6.81144
9.20315
8.77331
4.5374
1.47297
1.40256
4.43432
4.50448
4.64825
4.78782
4.90909
5.02203
5.12628
1.90874
0.719232
0.880818
1.01725
0.659539
0.633838
0.653625
0.670805
0.672283
0.665693
0.656363
0.644524
0.631351
0.617561
0.603727
0.589754
0.576779
0.56444
0.55289
0.542857
0.535429
0.532354
0.539979
0.643106
0.544101
0.537276
0.541973
0.549605
0.559214
0.569875
0.580967
0.592034
0.602545
0.611764
0.618682
0.62186
0.619121
0.60727
0.580874
0.528309
0.451462
0.736098
0.711831
0.51107
0.392835
0.380879
0.368081
0.387546
2.69546
4.06482
3.90738
3.89956
0.944261
0.0212037
2.31466
6.98842
7.68132
4.1959
0.79101
0.951512
1.13116
1.26056
1.32788
4.47523
1.50719
1.22716
1.93834
9.60159
9.21318
8.1631
0.95112
0.935653
3.35095
3.26492
3.33795
2.99282
2.44331
4.02949
4.36114
4.65605
4.82738
0.549865
0.576147
0.686494
0.637433
0.605585
0.631881
0.651896
0.654427
0.648656
0.639156
0.62743
0.614659
0.601591
0.588669
0.576175
0.564505
0.553629
0.543525
0.534622
0.528254
0.526365
0.52965
0.642348
0.542842
0.533252
0.538322
0.546215
0.555961
0.56681
0.578374
0.590338
0.602253
0.613461
0.623031
0.629537
0.630736
0.62332
0.600245
0.549051
0.46644
0.520813
0.570308
0.317677
0.26779
0.183496
0.0856322
0.190135
1.6307
3.76705
3.14255
2.96163
2.79531
-0.362503
0.401727
7.19714
7.94842
8.51637
3.12938
0.892456
1.04304
1.16824
1.23125
4.43037
1.5891
1.11596
2.50398
9.97392
9.11921
6.35223
0.151521
-0.460145
2.01717
2.08305
1.43514
0.762351
0.845683
0.830587
3.25955
4.22684
5.04129
1.77303
0.522649
0.567625
0.609105
0.610085
0.631561
0.644128
0.643466
0.635072
0.623828
0.611206
0.598204
0.585405
0.573159
0.561692
0.55122
0.541728
0.533091
0.525623
0.520898
0.520356
0.522219
0.640207
0.563395
0.528317
0.533938
0.542107
0.552021
0.563241
0.575581
0.588855
0.60274
0.616745
0.630172
0.64182
0.649798
0.651436
0.639873
0.603631
0.543402
0.453754
0.360654
0.255826
0.124989
-0.0329042
0.166299
0.911039
3.76835
3.65005
1.94405
1.80779
1.97583
-0.432025
0.269231
5.01057
8.04691
8.48439
5.87026
0.881042
0.89398
1.02873
1.09354
4.22204
2.27459
0.931028
1.89763
10.047
9.37989
2.26349
-0.520768
-1.34475
-1.87042
-1.93906
-0.463123
3.80815
1.70241
-0.670834
-0.568004
2.52418
5.18784
6.21622
0.526887
0.597145
0.638177
0.644744
0.649437
0.647611
0.638189
0.624242
0.609722
0.595316
0.581556
0.568711
0.556911
0.546252
0.536835
0.528674
0.521614
0.515878
0.513149
0.514353
0.51693
0.63786
0.614025
0.524382
0.528426
0.536839
0.546969
0.558727
0.572073
0.586943
0.603176
0.620515
0.638652
0.656729
0.673582
0.687583
0.693569
0.680629
0.639558
0.563398
0.4489
0.281586
0.234116
0.425282
0.589783
6.29213
6.61283
3.55358
-0.654257
0.0936209
0.900035
0.435857
-0.576651
0.363078
7.8761
8.42948
8.20771
1.0066
0.694355
0.858975
0.938229
4.4387
1.63852
0.608741
1.87482
10.3819
9.62063
-0.128122
-1.01272
-1.90663
-2.59681
-2.97802
3.36453
6.34853
7.18325
4.0117
-1.2892
-1.04897
3.6175
6.46029
1.67709
0.663348
0.701169
0.695729
0.677345
0.656936
0.635146
0.614057
0.595433
0.578822
0.564092
0.551079
0.539633
0.529672
0.521173
0.514161
0.508446
0.503982
0.53168
0.638215
0.658569
0.630455
0.569713
0.514115
0.520882
0.52962
0.540151
0.552607
0.567087
0.583677
0.602434
0.623405
0.646581
0.671608
0.698067
0.725472
0.750345
0.762071
0.745634
0.679477
0.548391
1.30291
2.08437
1.75409
2.30218
7.05635
6.29565
5.4503
-1.78355
-2.64607
-2.09003
-1.96126
-1.23552
-0.361137
4.91591
8.45482
8.84112
1.54646
0.461306
0.676361
0.801353
5.93473
0.735492
0.349567
1.4131
10.2658
9.83116
1.09494
-1.30127
-2.18992
-2.96483
-3.54597
2.50283
5.91974
6.87204
7.98559
1.06848
-1.23481
-0.552756
6.94087
7.81688
0.747648
0.764452
0.745303
0.704085
0.663865
0.62948
0.601528
0.579074
0.560535
0.545051
0.53202
0.521011
0.511746
0.504059
0.497908
0.493095
0.49172
0.62049
0.676563
0.679379
0.559744
0.501179
0.502859
0.510696
0.519934
0.53105
0.54427
0.55986
0.578084
0.599207
0.623495
0.651273
0.682775
0.71807
0.757627
0.799362
0.833007
0.836433
0.781355
0.947883
3.24761
2.59242
-0.383128
2.24615
7.1357
6.19636
5.2771
-0.0615255
-3.27716
-2.92589
-2.36299
-1.57578
-0.738029
4.8656
8.39956
8.74109
1.24722
0.241993
0.515671
0.702454
6.01519
2.86076
0.113479
-0.0387846
10.2859
9.74778
9.1401
-1.40957
-2.21186
-2.97663
-3.58875
-1.96194
6.00303
6.8297
7.3099
1.04409
-1.2894
-0.734159
5.94792
8.57522
1.29032
0.808076
0.773483
0.712784
0.658745
0.615846
0.583421
0.558662
0.539203
0.523643
0.511034
0.500733
0.492311
0.485488
0.480092
0.475953
0.472594
0.547993
0.663319
0.666992
0.567982
0.480655
0.490202
0.497891
0.507713
0.519383
0.533228
0.549675
0.56914
0.592072
0.619002
0.650544
0.687217
0.729396
0.778069
0.83203
0.881718
0.898394
0.85506
3.7091
3.27212
1.44921
-0.619156
1.43789
1.45203
6.2511
5.29778
0.890421
-3.32018
-2.94705
-2.38924
-1.63421
0.210765
7.85266
8.27769
7.94952
0.125829
0.0157136
0.396134
0.62273
5.87511
5.77105
0.0960282
-0.334407
5.12984
9.74323
9.27408
5.46763
-2.07776
-2.72551
-3.25762
4.56451
6.34791
7.0346
-1.40849
-1.98087
-1.25534
-0.664597
1.25748
8.89982
4.44216
0.849567
0.766637
0.694819
0.635128
0.59012
0.557199
0.532675
0.513913
0.499319
0.487808
0.478645
0.471336
0.465554
0.461066
0.457706
0.455152
0.455719
0.516556
0.654895
0.647523
0.46619
0.475258
0.48262
0.493025
0.505003
0.519159
0.536034
0.556147
0.580105
0.608608
0.642432
0.682302
0.728653
0.782555
0.843161
0.902225
0.93212
1.44444
4.05666
2.78846
-0.237635
-0.623343
-1.44828
-2.26736
5.12656
5.64046
5.39686
-1.45605
-2.70402
-2.18448
1.76572
7.31435
7.77708
8.2684
0.869632
-0.617081
-0.205075
0.385433
4.34985
5.78852
5.57893
1.42953
-0.226081
-0.838335
9.90423
9.32489
8.95189
7.7631
2.60354
5.29266
6.75773
6.84317
0.251781
-2.69659
-1.82088
-1.10998
-0.528191
2.54381
9.36169
7.14534
0.898322
0.713803
0.646444
0.591308
0.551021
0.522049
0.500574
0.484332
0.471893
0.462254
0.454731
0.448867
0.444358
0.440994
0.43864
0.437215
0.43656
0.467187
0.642576
0.528272
0.450045
0.457969
0.466175
0.476197
0.488001
0.501959
0.51868
0.538683
0.562677
0.591446
0.625895
0.666802
0.714801
0.770758
0.834208
0.898443
1.05821
3.31821
4.08093
0.253212
-0.142347
-0.650813
-1.35427
-2.20422
-0.319585
6.19925
5.8618
6.02678
4.37051
6.23968
6.97758
7.37649
7.83189
6.57394
-1.17551
-0.683686
-0.444887
0.527448
5.96058
1.99064
5.55411
2.10746
-0.0478768
-0.706849
0.613909
8.74551
9.04868
8.49181
8.18261
7.79033
7.59931
6.37756
-2.50016
-2.29531
-1.50259
-0.87699
-0.347994
6.49715
9.76852
7.75806
0.841978
0.619365
0.569142
0.529368
0.499827
0.478826
0.462846
0.450771
0.441591
0.434554
0.429154
0.425055
0.422037
0.419956
0.418738
0.418374
0.419229
0.527707
0.607713
0.425474
0.432452
0.439491
0.447622
0.457137
0.468362
0.481676
0.497593
0.516657
0.539556
0.567089
0.600303
0.63989
0.686536
0.740756
0.802113
0.870591
1.25941
3.82229
3.37659
0.297009
-0.0458599
-0.500341
-1.10945
-1.85159
-1.15997
6.27489
6.65295
6.64009
6.83067
7.15952
7.48396
7.72211
3.68357
-0.949895
-1.02178
-0.627253
-0.478965
3.30111
4.74735
-0.0893404
2.21326
1.04964
0.216938
-0.245908
-0.844692
-0.590261
1.85316
3.55798
5.5526
8.86814
5.14266
-3.02191
-2.43846
-1.75869
-1.11625
-0.600426
-0.13052
9.35142
9.99383
5.60698
0.535453
0.492222
0.472272
0.45461
0.440161
0.429387
0.420777
0.414131
0.409032
0.405154
0.402252
0.400162
0.398788
0.398063
0.397967
0.398536
0.428404
0.556921
0.4535
0.407398
0.41346
0.419816
0.42738
0.436105
0.446358
0.458472
0.472915
0.490183
0.510886
0.535806
0.565645
0.601399
0.643648
0.692106
0.747797
0.816133
1.41126
4.31978
1.58345
0.31783
0.0127687
-0.373451
-0.868153
-1.4586
-2.07581
-2.62437
-0.966091
2.39024
3.2931
2.02045
0.91716
-0.30805
-1.39582
-1.07877
-0.701708
-0.444426
0.0633614
3.25157
-0.317006
-0.21835
1.47411
1.55278
0.574121
0.283451
-0.162751
-0.69842
-1.22701
-1.6905
-1.8603
-1.99802
-2.15721
-1.92569
-1.5602
-1.14717
-0.749264
-0.333842
3.48386
10.5476
10.3632
3.04997
0.316944
0.35163
0.367921
0.374291
0.376223
0.37691
0.376387
0.375734
0.37514
0.374707
0.374499
0.374541
0.37487
0.375507
0.376466
0.377846
0.415289
0.540472
0.401672
0.388255
0.393404
0.399087
0.405762
0.413424
0.422337
0.432775
0.445104
0.459744
0.477168
0.497926
0.522632
0.55205
0.586582
0.625166
0.669371
0.726717
1.87504
5.95495
2.02165
0.297017
0.0213004
-0.295888
-0.670324
-1.08785
-1.50916
-1.8033
-1.93875
-1.96003
-1.82843
-1.69412
-1.44326
-1.16226
-0.86827
-0.573599
-0.320556
-0.17599
0.400249
2.77599
-0.227833
-0.219464
-0.200912
1.66165
1.70436
0.622764
0.400196