/*--------------------------------*- C++ -*----------------------------------*\
| =========                 |                                                 |
| \\      /  F ield         | OpenFOAM: The Open Source CFD Toolbox           |
|  \\    /   O peration     | Version:  2412                                  |
|   \\  /    A nd           | Website:  www.openfoam.com                      |
|    \\/     M anipulation  |                                                 |
\*---------------------------------------------------------------------------*/
FoamFile
{
    version     2.0;
    format      ascii;
    arch        "LSB;label=32;scalar=64";
    class       surfaceScalarField;
    location    "2.25";
    object      alphaPhi0.ethanol;
}
// * * * * * * * * * * * * * * * * * * * * * * * * * * * * * * * * * * * * * //

dimensions      [0 3 -1 0 0 0 0];

oriented        oriented;

internalField   nonuniform List<scalar> 
12640
(
-3.54213e-05
3.54212e-05
-6.57297e-05
3.03081e-05
-9.31243e-05
2.73945e-05
-0.000118697
2.55727e-05
-0.000142162
2.34652e-05
-0.000163063
2.09009e-05
-0.000181066
1.80024e-05
-0.000195909
1.48431e-05
-0.000207439
1.15298e-05
-0.000215592
8.15273e-06
-0.000220357
4.76554e-06
-0.000221812
1.45473e-06
-0.000220061
-1.75024e-06
-0.000215409
-4.65249e-06
-0.000208107
-7.30162e-06
-0.000198438
-9.66918e-06
-0.000186782
-1.16556e-05
-0.000173497
-1.32848e-05
-0.000158894
-1.46048e-05
-0.000143412
-1.54813e-05
-0.000127355
-1.6059e-05
-0.000111088
-1.62664e-05
-9.49791e-05
-1.61089e-05
-7.92857e-05
-1.56946e-05
-6.43591e-05
-1.49257e-05
-5.03981e-05
-1.39598e-05
-3.76915e-05
-1.27065e-05
-2.63438e-05
-1.13471e-05
-1.65155e-05
-9.82718e-06
-8.2769e-06
-8.2378e-06
-1.70926e-06
-6.56706e-06
3.22457e-06
-4.93354e-06
6.52553e-06
-3.30049e-06
8.31013e-06
-1.78405e-06
8.76856e-06
-4.58146e-07
8.17362e-06
5.95168e-07
6.69848e-06
1.47561e-06
4.59475e-06
2.10446e-06
2.09335e-06
2.5022e-06
-5.87042e-07
2.68109e-06
-3.24491e-06
2.65836e-06
-5.68218e-06
2.43755e-06
-7.67198e-06
1.99e-06
-9.02376e-06
1.35206e-06
-9.47725e-06
4.53913e-07
-8.87542e-06
-6.01348e-07
-6.9293e-06
-1.94566e-06
-3.48758e-06
-3.44144e-06
1.57222e-06
-5.05975e-06
8.30013e-06
-6.72805e-06
1.66201e-05
-8.32019e-06
2.64587e-05
-9.83892e-06
3.77679e-05
-1.13097e-05
5.03556e-05
-1.25883e-05
6.4154e-05
-1.37992e-05
7.8858e-05
-1.47047e-05
9.42661e-05
-1.54086e-05
0.000110025
-1.57594e-05
0.000125969
-1.59448e-05
0.000141655
-1.56875e-05
0.000156732
-1.50778e-05
0.000170934
-1.42024e-05
0.000183883
-1.29494e-05
0.000195207
-1.13235e-05
0.000204657
-9.45034e-06
0.000211793
-7.13538e-06
0.000216283
-4.49111e-06
0.000217971
-1.68665e-06
0.000216526
1.44572e-06
0.000211843
4.6835e-06
0.000203851
7.99127e-06
0.000192549
1.13013e-05
0.000177978
1.45701e-05
0.000160311
1.76667e-05
0.000139778
2.05341e-05
0.000116744
2.30346e-05
9.16009e-05
2.51419e-05
6.46734e-05
2.69267e-05
3.48571e-05
2.98165e-05
3.48573e-05
-3.36367e-05
6.90576e-05
-5.8981e-05
5.56521e-05
-8.02784e-05
4.86918e-05
-9.99159e-05
4.52101e-05
-0.000117571
4.11198e-05
-0.000132776
3.61061e-05
-0.000145173
3.03985e-05
-0.000154575
2.42444e-05
-0.000160845
1.78007e-05
-0.000163884
1.11915e-05
-0.000163757
4.63881e-06
-0.000160578
-1.7241e-06
-0.000154582
-7.7462e-06
-0.000145964
-1.32699e-05
-0.000135015
-1.82505e-05
-0.000122011
-2.26735e-05
-0.000107406
-2.62618e-05
-9.13932e-05
-2.9297e-05
-7.45826e-05
-3.14176e-05
-5.72051e-05
-3.28583e-05
-3.96991e-05
-3.35662e-05
-2.24318e-05
-3.35335e-05
-5.73953e-06
-3.27999e-05
9.99082e-06
-3.14253e-05
2.4503e-05
-2.94383e-05
3.74536e-05
-2.69095e-05
4.86276e-05
-2.38794e-05
5.77641e-05
-2.04827e-05
6.46789e-05
-1.67415e-05
6.92585e-05
-1.28173e-05
7.1431e-05
-8.73945e-06
7.11569e-05
-4.65912e-06
6.85235e-05
-6.66907e-07
6.36285e-05
3.11106e-06
5.66194e-05
6.55136e-06
4.77058e-05
9.50944e-06
3.71799e-05
1.20025e-05
2.54068e-05
1.38787e-05
1.27893e-05
1.51207e-05
-2.46533e-07
1.57177e-05
-1.32952e-05
1.57075e-05
-2.59061e-05
1.50489e-05
-3.76909e-05
1.37754e-05
-4.82157e-05
1.18774e-05
-5.71376e-05
9.37658e-06
-6.41374e-05
6.39902e-06
-6.90222e-05
2.93941e-06
-7.16301e-05
-8.33578e-07
-7.18835e-05
-4.80661e-06
-6.9749e-05
-8.86293e-06
-6.52029e-05
-1.28669e-05
-5.83087e-05
-1.67339e-05
-4.92691e-05
-2.03503e-05
-3.82001e-05
-2.36584e-05
-2.54093e-05
-2.6591e-05
-1.10895e-05
-2.90254e-05
4.41889e-06
-3.09179e-05
2.08709e-05
-3.22126e-05
3.78521e-05
-3.29273e-05
5.50909e-05
-3.29275e-05
7.21241e-05
-3.21116e-05
8.86959e-05
-3.07742e-05
0.000104359
-2.8612e-05
0.000118778
-2.57428e-05
0.000131493
-2.21656e-05
0.000142355
-1.79975e-05
0.000150883
-1.30181e-05
0.000156848
-7.6512e-06
0.000160081
-1.78645e-06
0.000160303
4.46143e-06
0.000157411
1.08816e-05
0.000151366
1.73455e-05
0.00014222
2.37155e-05
0.000130141
2.97472e-05
0.000115299
3.53755e-05
9.80079e-05
4.03246e-05
7.87861e-05
4.43624e-05
5.79101e-05
4.78032e-05
3.30623e-05
5.46644e-05
6.79192e-05
-3.34733e-05
0.000102531
-5.75627e-05
7.97411e-05
-7.7768e-05
6.8897e-05
-9.62559e-05
6.36977e-05
-0.000112662
5.7525e-05
-0.000126603
5.00475e-05
-0.000137631
4.14255e-05
-0.000145576
3.21893e-05
-0.000150258
2.24828e-05
-0.000151672
1.26056e-05
-0.000149819
2.78612e-06
-0.0001448
-6.74359e-06
-0.000136855
-1.56912e-05
-0.000126177
-2.39466e-05
-0.000113121
-3.13073e-05
-9.81471e-05
-3.76474e-05
-8.14554e-05
-4.29535e-05
-6.34911e-05
-4.72615e-05
-4.48408e-05
-5.00676e-05
-2.57214e-05
-5.19771e-05
-6.6255e-06
-5.26631e-05
1.20911e-05
-5.22513e-05
3.00202e-05
-5.07296e-05
4.67792e-05
-4.81846e-05
6.203e-05
-4.46892e-05
7.54317e-05
-4.0312e-05
8.66922e-05
-3.51414e-05
9.55524e-05
-2.93444e-05
0.000101786
-2.29763e-05
0.00010524
-1.62714e-05
0.000105818
-9.31802e-06
0.000103468
-2.31052e-06
9.82523e-05
4.54893e-06
9.02977e-05
1.10659e-05
7.97655e-05
1.70841e-05
6.68798e-05
2.23959e-05
5.2024e-05
2.68593e-05
3.55894e-05
3.03143e-05
1.80415e-05
3.26693e-05
-8.43618e-08
3.38441e-05
-1.82104e-05
3.3834e-05
-3.58236e-05
3.26624e-05
-5.23258e-05
3.02779e-05
-6.72463e-05
2.67983e-05
-8.01836e-05
2.23143e-05
-9.07582e-05
1.69739e-05
-9.87433e-05
1.09246e-05
-0.000103972
4.39477e-06
-0.000106324
-2.4543e-06
-0.000105782
-9.40501e-06
-0.00010233
-1.63195e-05
-9.61509e-05
-2.29131e-05
-8.73534e-05
-2.91483e-05
-7.61711e-05
-3.48413e-05
-6.28993e-05
-3.98632e-05
-4.78169e-05
-4.4108e-05
-3.12603e-05
-4.74747e-05
-1.35696e-05
-4.99036e-05
4.87886e-06
-5.13765e-05
2.36367e-05
-5.1686e-05
4.25488e-05
-5.1024e-05
6.09582e-05
-4.91832e-05
7.85836e-05
-4.62373e-05
9.49941e-05
-4.21536e-05
0.000109848
-3.70202e-05
0.000122579
-3.07283e-05
0.000133245
-2.36835e-05
0.000141182
-1.5588e-05
0.000146241
-6.84582e-06
0.000148222
2.48076e-06
0.000146936
1.21666e-05
0.000142449
2.18322e-05
0.000134775
3.13888e-05
0.000124027
4.04946e-05
0.000110425
4.89765e-05
9.43946e-05
5.63535e-05
7.6311e-05
6.24464e-05
5.65349e-05
6.75796e-05
3.28844e-05
7.83148e-05
0.000100804
-3.53068e-05
0.000137837
-6.0823e-05
0.000105257
-8.22829e-05
9.03569e-05
-0.000101951
8.33651e-05
-0.00011932
7.48944e-05
-0.000133913
6.46393e-05
-0.000145438
5.29503e-05
-0.000153602
4.03536e-05
-0.000158255
2.71349e-05
-0.000159367
1.37182e-05
-0.000156927
3.45653e-07
-0.000151164
-1.25059e-05
-0.000142263
-2.45925e-05
-0.000130515
-3.56938e-05
-0.000116215
-4.56068e-05
-9.997e-05
-5.38928e-05
-8.17938e-05
-6.11288e-05
-6.26608e-05
-6.63956e-05
-4.25445e-05
-7.01839e-05
-2.20402e-05
-7.24828e-05
-1.57814e-06
-7.31251e-05
1.84831e-05
-7.23116e-05
3.76521e-05
-6.98992e-05
5.55846e-05
-6.61184e-05
7.19004e-05
-6.10059e-05
8.62288e-05
-5.4641e-05
9.82337e-05
-4.71465e-05
0.000107715
-3.88259e-05
0.000114339
-2.96006e-05
0.00011789
-1.98226e-05
0.000118315
-9.74201e-06
0.000115517
4.87922e-07
0.00010957
1.04967e-05
0.000100571
2.00655e-05
8.87161e-05
2.89405e-05
7.43065e-05
3.68065e-05
5.77539e-05
4.34128e-05
3.94588e-05
4.86102e-05
1.99999e-05
5.21286e-05
-5.62642e-08
5.39005e-05
-2.01314e-05
5.39093e-05
-3.96138e-05
5.21448e-05
-5.7953e-05
4.86174e-05
-7.45888e-05
4.34343e-05
-8.90704e-05
3.67962e-05
-0.000100989
2.88925e-05
-0.000110036
1.99719e-05
-0.000116004
1.03628e-05
-0.000118814
3.55477e-07
-0.000118359
-9.85961e-06
-0.000114801
-1.98785e-05
-0.000108212
-2.95021e-05
-9.88266e-05
-3.85341e-05
-8.68636e-05
-4.68044e-05
-7.2661e-05
-5.40657e-05
-5.65186e-05
-6.02502e-05
-3.87945e-05
-6.51989e-05
-1.98742e-05
-6.88241e-05
-1.27863e-07
-7.1123e-05
2.00798e-05
-7.18937e-05
4.02029e-05
-7.11469e-05
5.99775e-05
-6.8958e-05
7.89486e-05
-6.52086e-05
9.67006e-05
-5.9906e-05
0.000112781
-5.31004e-05
0.000126905
-4.48534e-05
0.000138519
-3.52978e-05
0.000147386
-2.44559e-05
0.000153187
-1.26473e-05
0.000155749
-8.12916e-08
0.000154803
1.31112e-05
0.000150381
2.62532e-05
0.000142444
3.9325e-05
0.000131255
5.1682e-05
0.000117007
6.32229e-05
0.0001
7.33611e-05
8.07677e-05
8.16793e-05
5.97173e-05
8.863e-05
3.47201e-05
0.000103312
0.000135524
-3.81554e-05
0.000175992
-6.59305e-05
0.000133032
-8.93458e-05
0.000113772
-0.000110648
0.000104667
-0.000129618
9.38637e-05
-0.00014551
8.05316e-05
-0.000157907
6.53468e-05
-0.000166642
4.90892e-05
-0.00017147
3.1963e-05
-0.000172455
1.4703e-05
-0.000169443
-2.66684e-06
-0.00016292
-1.90288e-05
-0.000153009
-3.45021e-05
-0.000140041
-4.86622e-05
-0.000124376
-6.12715e-05
-0.000106378
-7.18914e-05
-8.70563e-05
-8.04503e-05
-6.61476e-05
-8.73057e-05
-4.43872e-05
-9.19422e-05
-2.23192e-05
-9.45517e-05
-3.02676e-07
-9.51438e-05
2.12315e-05
-9.38461e-05
4.18319e-05
-9.04989e-05
6.11028e-05
-8.53887e-05
7.86639e-05
-7.85669e-05
9.41168e-05
-7.0094e-05
0.000107085
-6.01144e-05
0.000117274
-4.90147e-05
0.000124459
-3.67851e-05
0.000128377
-2.37398e-05
0.000128929
-1.02935e-05
0.000125943
3.47451e-06
0.000119495
1.69442e-05
0.000109727
2.98338e-05
9.68139e-05
4.18543e-05
8.10531e-05
5.25674e-05
6.29466e-05
6.15192e-05
4.30206e-05
6.85359e-05
2.18151e-05
7.33337e-05
-3.13781e-08
7.57466e-05
-2.18881e-05
7.57657e-05
-4.31375e-05
7.3394e-05
-6.31616e-05
6.86416e-05
-8.13456e-05
6.16183e-05
-9.7161e-05
5.26116e-05
-0.000110122
4.18538e-05
-0.000119938
2.97877e-05
-0.000126384
1.68087e-05
-0.000129341
3.31287e-06
-0.000128822
-1.03788e-05
-0.00012481
-2.38895e-05
-0.000117638
-3.66743e-05
-0.000107455
-4.8717e-05
-9.45619e-05
-5.96972e-05
-7.92514e-05
-6.93763e-05
-6.18733e-05
-7.76284e-05
-4.28449e-05
-8.42272e-05
-2.25356e-05
-8.91332e-05
-1.39229e-06
-9.22665e-05
2.0215e-05
-9.35012e-05
4.19711e-05
-9.29033e-05
6.32937e-05
-9.02807e-05
8.37908e-05
-8.57058e-05
0.000103084
-7.91996e-05
0.000120682
-7.06977e-05
0.000136141
-6.03129e-05
0.000148996
-4.81539e-05
0.00015889
-3.43508e-05
0.000165465
-1.92221e-05
0.000168577
-3.19314e-06
0.000167773
1.39142e-05
0.000163145
3.08809e-05
0.000154775
4.76934e-05
0.000142687
6.377e-05
0.000127142
7.87683e-05
0.00010859
9.19142e-05
8.76922e-05
0.000102577
6.47368e-05
0.000111585
3.75071e-05
0.000130542
0.000173031
-4.19121e-05
0.000217905
-7.26066e-05
0.000163727
-9.8483e-05
0.000139649
-0.000122114
0.000128298
-0.000142968
0.000114718
-0.000160546
9.81091e-05
-0.000174108
7.89096e-05
-0.000183498
5.84793e-05
-0.000188547
3.70126e-05
-0.00018921
1.5366e-05
-0.000185422
-6.45459e-06
-0.000177696
-2.67549e-05
-0.000166349
-4.58489e-05
-0.000151794
-6.3218e-05
-0.000134589
-7.84773e-05
-0.000114987
-9.14942e-05
-9.3167e-05
-0.000102269
-7.02887e-05
-0.000110186
-4.66036e-05
-0.000115627
-2.25255e-05
-0.000118629
1.5055e-06
-0.000119175
2.49004e-05
-0.000117242
4.73333e-05
-0.000112933
6.83288e-05
-0.000106384
8.74968e-05
-9.77346e-05
0.000104404
-8.70007e-05
0.00011864
-7.43506e-05
0.000129833
-6.02073e-05
0.000137761
-4.4713e-05
0.000142194
-2.81723e-05
0.000142918
-1.10169e-05
0.000139796
6.59761e-06
0.000132856
2.38842e-05
0.000122111
4.05794e-05
0.000107808
5.61568e-05
9.03732e-05
7.00022e-05
7.02576e-05
8.16341e-05
4.80341e-05
9.07588e-05
2.43823e-05
9.69851e-05
-1.23614e-10
0.000100129
-2.43978e-05
0.000100163
-4.81078e-05
9.7104e-05
-7.0424e-05
9.09577e-05
-9.0635e-05
8.18293e-05
-0.00010816
7.01365e-05
-0.000122513
5.6207e-05
-0.000133266
4.05401e-05
-0.000140203
2.37462e-05
-0.000143309
6.41876e-06
-0.00014249
-1.11968e-05
-0.000137997
-2.8382e-05
-0.000129994
-4.46769e-05
-0.00011872
-5.99913e-05
-0.00010458
-7.38371e-05
-8.78447e-05
-8.61109e-05
-6.88596e-05
-9.66133e-05
-4.81496e-05
-0.000104937
-2.60781e-05
-0.000111205
-3.0642e-06
-0.000115281
2.05711e-05
-0.000117137
4.41714e-05
-0.000116504
6.7478e-05
-0.000113587
8.99944e-05
-0.000108222
0.000111201
-0.000100406
0.000130751
-9.02477e-05
0.000147883
-7.74455e-05
0.000162294
-6.25657e-05
0.000173565
-4.56221e-05
0.000181296
-2.69514e-05
0.000185095
-6.99202e-06
0.000184577
1.44308e-05
0.00017978
3.5678e-05
0.000170703
5.67699e-05
0.000157472
7.70025e-05
0.00014037
9.58712e-05
0.00011992
0.000112363
9.67123e-05
0.000125784
7.12969e-05
0.000137001
4.12262e-05
0.000160613
0.000214257
-4.67272e-05
0.000264632
-8.08866e-05
0.000197887
-0.000110004
0.000168766
-0.000136485
0.000154779
-0.000159886
0.000138118
-0.000179319
0.000117543
-0.00019436
9.3951e-05
-0.000204658
6.87777e-05
-0.000209916
4.22709e-05
-0.000210254
1.57036e-05
-0.000205755
-1.09528e-05
-0.000196794
-3.57167e-05
-0.000183712
-5.89309e-05
-0.000167001
-7.99294e-05
-0.000147117
-9.83617e-05
-0.000124713
-0.000113899
-0.0001008
-0.000126182
-7.52761e-05
-0.000135709
-4.89661e-05
-0.000141938
-2.22908e-05
-0.000145304
4.10237e-06
-0.000145568
2.98705e-05
-0.000143009
5.45995e-05
-0.000137661
7.78025e-05
-0.000129587
9.888e-05
-0.000118812
0.000117502
-0.000105623
0.000133382
-9.02306e-05
0.000145969
-7.27948e-05
0.00015497
-5.37143e-05
0.000160112
-3.33139e-05
0.000161143
-1.20478e-05
0.000157915
9.82587e-06
0.000150265
3.15343e-05
0.000138391
5.24529e-05
0.000122385
7.21622e-05
0.000102755
8.9632e-05
7.99767e-05
0.000104411
5.47524e-05
0.000115982
2.78655e-05
0.000123871
7.17674e-08
0.000127922
-2.77297e-05
0.000127964
-5.47195e-05
0.000124094
-8.00547e-05
0.000116293
-0.00010297
0.000104744
-0.00012272
8.98864e-05
-0.000138769
7.22553e-05
-0.000150688
5.24595e-05
-0.00015831
3.13685e-05
-0.000161421
9.53071e-06
-0.00016027
-1.23475e-05
-0.000155043
-3.36081e-05
-0.000145859
-5.38599e-05
-0.000133197
-7.26533e-05
-0.000117385
-8.96485e-05
-9.88035e-05
-0.000104692
-7.79748e-05
-0.000117442
-5.51384e-05
-0.000127773
-3.08183e-05
-0.000135525
-5.53622e-06
-0.000140563
2.03722e-05
-0.000143046
4.64196e-05
-0.000142552
7.22232e-05
-0.000139391
9.71699e-05
-0.000133169
0.000120824
-0.00012406
0.000142526
-0.000111949
0.00016219
-9.71103e-05
0.000178755
-7.91304e-05
0.0001918
-5.86666e-05
0.000200817
-3.59675e-05
0.000205654
-1.18291e-05
0.000205627
1.44576e-05
0.000200637
4.06682e-05
0.000190704
6.67034e-05
0.000176047
9.16608e-05
0.000157022
0.000114896
0.000134089
0.000135296
0.000108075
0.000151799
7.95001e-05
0.000165576
4.59202e-05
0.000194193
0.000260178
-5.27821e-05
0.000317414
-9.15188e-05
0.000236624
-0.000124109
0.000201356
-0.000154177
0.000184847
-0.000180657
0.000164599
-0.000202594
0.00013948
-0.000219424
0.000110782
-0.000230684
8.00376e-05
-0.000236209
4.77952e-05
-0.00023594
1.54343e-05
-0.000230262
-1.66309e-05
-0.000219469
-4.65085e-05
-0.000204093
-7.43077e-05
-0.000184687
-9.93363e-05
-0.000161968
-0.000121081
-0.000136734
-0.000139134
-0.000109418
-0.000153498
-8.07605e-05
-0.000164365
-5.13801e-05
-0.000171317
-2.18423e-05
-0.00017484
7.56597e-06
-0.000174975
3.61494e-05
-0.000171593
6.37018e-05
-0.000165213
8.93689e-05
-0.000155254
0.000112962
-0.000142406
0.000133891
-0.000126552
0.000151647
-0.000107987
0.000166009
-8.71564e-05
0.000176385
-6.40894e-05
0.000182484
-3.9413e-05
0.000183986
-1.35495e-05
0.00018058
1.3232e-05
0.000172234
3.988e-05
0.000158914
6.57721e-05
0.000140926
9.01495e-05
0.000118553
0.000112004
9.24272e-05
0.000130536
6.33839e-05
0.000145025
3.22849e-05
0.00015497
2.40698e-07
0.000159966
-3.18987e-05
0.000160104
-6.31115e-05
0.000155306
-9.23686e-05
0.000145549
-0.000118705
0.000131081
-0.000141235
0.000112416
-0.000159379
9.03998e-05
-0.000172687
6.57675e-05
-0.000180946
3.96277e-05
-0.000184223
1.28079e-05
-0.000182503
-1.40665e-05
-0.000176072
-4.00378e-05
-0.00016553
-6.4401e-05
-0.000151129
-8.70541e-05
-0.000133273
-0.000107504
-0.000112459
-0.000125506
-8.91089e-05
-0.000140792
-6.37635e-05
-0.000153119
-3.68062e-05
-0.000162482
-8.721e-06
-0.000168648
1.99202e-05
-0.000171687
4.88088e-05
-0.000171441
7.74495e-05
-0.000168032
0.000105328
-0.000161046
0.000132219
-0.000150952
0.000157176
-0.000136906
0.000179541
-0.000119476
0.000198683
-9.82729e-05
0.000214064
-7.40475e-05
0.00022499
-4.68936e-05
0.00023083
-1.76695e-05
0.000231478
1.38095e-05
0.000226301
4.58454e-05
0.000215368
7.76371e-05
0.000199018
0.00010801
0.000177537
0.000136376
0.000151583
0.00016125
0.000121959
0.000181423
8.99804e-05
0.000197554
5.19232e-05
0.00023225
0.0003121
-6.03526e-05
0.000377767
-0.000104447
0.000280718
-0.000141576
0.000238486
-0.000175655
0.000218926
-0.000205817
0.000194761
-0.000230915
0.000164577
-0.00024997
0.000129837
-0.000262335
9.24019e-05
-0.000268048
5.35083e-05
-0.000267103
1.44903e-05
-0.00025964
-2.40952e-05
-0.000246464
-5.96836e-05
-0.000228004
-9.27685e-05
-0.000205261
-0.000122079
-0.00017903
-0.000147312
-0.000150008
-0.000168156
-0.000118785
-0.000184721
-8.66273e-05
-0.000196524
-5.36848e-05
-0.000204261
-2.06774e-05
-0.000207848
1.2085e-05
-0.000207738
4.40635e-05
-0.000203571
7.45937e-05
-0.000195742
0.000103442
-0.000184101
0.000130062
-0.000169026
0.000153658
-0.000150148
0.000174033
-0.000128361
0.000190295
-0.000103419
0.000202347
-7.61421e-05
0.000209845
-4.69106e-05
0.000211994
-1.56985e-05
0.000208629
1.65967e-05
0.000199547
4.89615e-05
0.000184627
8.06914e-05
0.000164131
0.000110645
0.000138408
0.000137726
0.000108118
0.000160826
7.42491e-05
0.000178893
3.79672e-05
0.000191252
4.64992e-07
0.000197468
-3.71199e-05
0.000197688
-7.35928e-05
0.000191778
-0.000107799
0.000179754
-0.00013839
0.000161672
-0.000164485
0.00013851
-0.000185152
0.000111067
-0.000200153
8.0769e-05
-0.000209133
4.8608e-05
-0.000212192
1.5868e-05
-0.000209656
-1.66023e-05
-0.000201968
-4.77249e-05
-0.000189399
-7.69703e-05
-0.00017271
-0.000103743
-0.000152476
-0.000127737
-0.000128875
-0.000149108
-0.000102578
-0.000167089
-7.42105e-05
-0.000181486
-4.42188e-05
-0.000192473
-1.29081e-05
-0.000199959
1.89907e-05
-0.000203587
5.11573e-05
-0.000203608
8.31041e-05
-0.000199978
0.000114631
-0.000192572
0.000144728
-0.000181049
0.00017329
-0.000165469
0.000199186
-0.000145373
0.000221989
-0.000121077
0.000240427
-9.24859e-05
0.0002538
-6.02678e-05
0.000261352
-2.52211e-05
0.000262741
1.24201e-05
0.000257568
5.10182e-05
0.000245674
8.95304e-05
0.000227071
0.000126612
0.000202433
0.000161015
0.000172723
0.000190961
0.000139326
0.000214819
0.000102781
0.000234099
5.94302e-05
0.000275601
0.000371531
-6.95478e-05
0.000447315
-0.000120246
0.000331417
-0.000162633
0.000280873
-0.00020165
0.000257943
-0.000236478
0.000229589
-0.00026523
0.00019333
-0.000286823
0.00015143
-0.000300709
0.000106288
-0.000306453
5.9251e-05
-0.000304261
1.23e-05
-0.000294575
-3.37807e-05
-0.000278307
-7.5952e-05
-0.000256303
-0.000114773
-0.00022945
-0.000148934
-0.000198516
-0.000178246
-0.000164705
-0.000201967
-0.00012944
-0.000219985
-9.28455e-05
-0.000233119
-5.58047e-05
-0.000241302
-1.87251e-05
-0.000244928
1.77548e-05
-0.000244218
5.36115e-05
-0.000239428
8.79357e-05
-0.000230067
0.000120544
-0.00021671
0.000150408
-0.000198891
0.00017728
-0.000177022
0.000200344
-0.000151426
0.000219403
-0.000122478
0.000233754
-9.04936e-05
0.000242727
-5.58835e-05
0.000245979
-1.89502e-05
0.000242931
1.96446e-05
0.00023317
5.87218e-05
0.000216583
9.72783e-05
0.000193017
0.000134211
0.000163082
0.000167661
0.000127638
0.000196271
8.78227e-05
0.000218708
4.5063e-05
0.000234011
8.53265e-07
0.000241677
-4.35315e-05
0.000242072
-8.67212e-05
0.000234968
-0.000127079
0.000220112
-0.000163214
0.000197806
-0.000193548
0.000168845
-0.000217383
0.000134902
-0.000234052
9.74381e-05
-0.000243654
5.82104e-05
-0.00024633
1.85439e-05
-0.00024247
-2.04618e-05
-0.000232797
-5.73979e-05
-0.000217938
-9.18294e-05
-0.000198548
-0.000123134
-0.000175102
-0.000151184
-0.000148403
-0.000175806
-0.000118831
-0.000196661
-8.68324e-05
-0.000213483
-5.31146e-05
-0.000226191
-1.83166e-05
-0.000234758
1.72339e-05
-0.000239138
5.32301e-05
-0.000239604
8.91548e-05
-0.000235903
0.00012485
-0.000228268
0.000159541
-0.00021574
0.000192528
-0.000198457
0.000222963
-0.000175809
0.000249476
-0.00014759
0.000271618
-0.000114629
0.000288113
-7.67623e-05
0.000298101
-3.52096e-05
0.000300747
9.77432e-06
0.000295539
5.62259e-05
0.000282228
0.000102841
0.000261142
0.000147699
0.000232863
0.000189295
0.000198549
0.000225273
0.000160124
0.000253245
0.000118439
0.000275786
6.85859e-05
0.000325454
0.000440117
-8.1249e-05
0.000528564
-0.000139102
0.000389269
-0.000187752
0.000329522
-0.000232702
0.000302893
-0.000273152
0.00027004
-0.000306571
0.000226748
-0.000331439
0.000176298
-0.000346733
0.000121583
-0.000352318
6.48369e-05
-0.000348445
8.42616e-06
-0.000335838
-4.63885e-05
-0.000315485
-9.63061e-05
-0.000288851
-0.000141405
-0.000256475
-0.000181309
-0.00022058
-0.000214141
-0.000181527
-0.00024102
-0.000140625
-0.000260888
-9.89673e-05
-0.000274777
-5.71154e-05
-0.000283153
-1.57816e-05
-0.000286262
2.50914e-05
-0.000285091
6.48992e-05
-0.000279237
0.000103812
-0.000268982
0.00014038
-0.000253279
0.000174512
-0.000233023
0.000205077
-0.000207586
0.000231726
-0.000178075
0.000253782
-0.000144534
0.00027099
-0.000107702
0.000282166
-6.706e-05
0.000287173
-2.39568e-05
0.000284801
2.20162e-05
0.000274634
6.88892e-05
0.000256014
0.000115898
0.000229261
0.000160964
0.000194418
0.000202505
0.000152457
0.000238232
0.000104971
0.000266194
5.40437e-05
0.000284939
1.43502e-06
0.000294286
-5.13519e-05
0.000294859
-0.000103035
0.00028665
-0.0001514
0.000268476
-0.000194202
0.000240609
-0.000230028
0.000204671
-0.00025736
0.000162234
-0.000276068
0.000116146
-0.000285872
6.80137e-05
-0.000287687
2.03594e-05
-0.000281932
-2.6217e-05
-0.000269663
-6.96665e-05
-0.000251655
-0.000109836
-0.000228846
-0.000145942
-0.000201903
-0.000178127
-0.000171341
-0.000206367
-0.00013771
-0.000230292
-0.000101776
-0.000249417
-6.39157e-05
-0.000264052
-2.49543e-05
-0.00027372
1.47936e-05
-0.000278886
5.49013e-05
-0.000279713
9.53119e-05
-0.000276314
0.000135568
-0.000268525
0.000175265
-0.000255438
0.000213576
-0.000236767
0.000248974
-0.000211208
0.000281153
-0.000179768
0.000307846
-0.000141322
0.000328601
-9.75166e-05
0.000341652
-4.82609e-05
0.000346243
5.18376e-06
0.000341296
6.11737e-05
0.000326597
0.000117541
0.000302273
0.000172023
0.000269292
0.000222277
0.000229308
0.000265257
0.000184997
0.000297557
0.000137023
0.000323758
8.02784e-05
0.000382199
0.000520394
-9.55255e-05
0.000624089
-0.000162676
0.000456419
-0.000217632
0.000384478
-0.000269668
0.000354929
-0.00031721
0.000317584
-0.00035648
0.000266019
-0.000384971
0.000204788
-0.000402007
0.000138618
-0.000407231
7.00614e-05
-0.00040096
2.1558e-06
-0.00038444
-6.29088e-05
-0.000359061
-0.000121686
-0.000326091
-0.000174377
-0.000287773
-0.000219627
-0.000244666
-0.000257248
-0.000199062
-0.000286624
-0.000151654
-0.000308295
-0.000104262
-0.000322169
-5.76644e-05
-0.000329751
-1.14615e-05
-0.000332466
3.3954e-05
-0.000330507
7.86738e-05
-0.000323956
0.000122064
-0.000312371
0.000164015
-0.000295231
0.000202541
-0.000271548
0.000237528
-0.000242573
0.000268154
-0.000208702
0.000294169
-0.000170549
0.000314755
-0.000128289
0.000329266
-8.15717e-05
0.000336493
-3.11841e-05
0.000335719
2.27904e-05
0.000325522
7.9086e-05
0.000305534
0.000135886
0.000274809
0.000191689
0.000233783
0.000243531
0.00018375
0.000288264
0.000126812
0.000323133
6.54771e-05
0.000346273
2.36451e-06
0.000357398
-6.11794e-05
0.000358402
-0.000123583
0.000349053
-0.000182068
0.000326961
-0.000233641
0.000292181
-0.00027594
0.00024697
-0.000307552
0.000193846
-0.000327821
0.000136415
-0.000337671
7.78625e-05
-0.000337496
2.01851e-05
-0.000328942
-3.47703e-05
-0.000313104
-8.55044e-05
-0.000291033
-0.000131906
-0.000263792
-0.000173183
-0.00023273
-0.000209189
-0.000198069
-0.000241028
-0.000160172
-0.000268189
-0.000119328
-0.000290261
-7.67527e-05
-0.000306627
-3.31264e-05
-0.000317347
1.09866e-05
-0.000323
5.54798e-05
-0.000324206
0.000100525
-0.00032136
0.000146138
-0.000314139
0.000191703
-0.000301004
0.000236328
-0.000281391
0.000279018
-0.000253899
0.000317138
-0.000217888
0.000350335
-0.00017452
0.000376235
-0.000123416
0.000393416
-6.5442e-05
0.000400701
-2.0999e-06
0.00039641
6.54643e-05
0.000379981
0.00013397
0.000352007
0.000199998
0.000313057
0.000261226
0.000265805
0.00031251
0.000214245
0.000349116
0.000160486
0.000377517
9.44768e-05
0.000448208
0.000614871
-0.000112906
0.000736995
-0.000190921
0.000534435
-0.000253226
0.000446783
-0.000314009
0.000415712
-0.000370249
0.000373823
-0.000416827
0.000312597
-0.000450451
0.000238412
-0.000469039
0.000157207
-0.000473177
7.41986e-05
-0.000463083
-7.93832e-06
-0.000441394
-8.45992e-05
-0.0004094
-0.000153678
-0.000369085
-0.000214693
-0.000322304
-0.000266407
-0.000271259
-0.000308292
-0.000217506
-0.000340378
-0.000163088
-0.000362713
-0.000109101
-0.000376156
-5.67884e-05
-0.000382063
-5.77347e-06
-0.00038348
4.44813e-05
-0.000380762
9.46394e-05
-0.000374114
0.000144016
-0.000361748
0.000191238
-0.000342452
0.000235622
-0.000315933
0.000275556
-0.000282507
0.000310921
-0.000244067
0.000341511
-0.00020114
0.000366398
-0.000153177
0.000384984
-0.000100158
0.000395941
-4.21418e-05
0.000397634
2.10967e-05
0.000388811
8.79083e-05
0.000367504
0.000157193
0.000332582
0.00022661
0.000284198
0.000291915
0.00022395
0.000348512
0.000154693
0.00039239
8.02146e-05
0.000420751
3.68721e-06
0.000433925
-7.33703e-05
0.000435459
-0.00014976
0.000425442
-0.000221425
0.000398626
-0.000284115
0.000354871
-0.000334472
0.000297326
-0.000370778
0.000230152
-0.000392544
0.00015818
-0.000400885
8.62026e-05
-0.000397903
1.72027e-05
-0.000385236
-4.74374e-05
-0.000364487
-0.000106254
-0.000337229
-0.000159164
-0.00030509
-0.000205323
-0.000268897
-0.000245382
-0.000229361
-0.000280564
-0.000186248
-0.000311303
-0.000140026
-0.000336484
-9.17395e-05
-0.000354914
-4.29033e-05
-0.000366183
5.70868e-06
-0.000371612
5.47134e-05
-0.000373212
0.000104484
-0.000371132
0.000155715
-0.000365369
0.000208756
-0.000354044
0.000261244
-0.00033388
0.000311517
-0.000304172
0.00035855
-0.000264922
0.000399189
-0.000215158
0.000431806
-0.000156032
0.00045457
-8.82054e-05
0.000466068
-1.35977e-05
0.000463046
6.84866e-05
0.000445405
0.000151612
0.000412265
0.000233138
0.000365881
0.000307611
0.00030941
0.000368981
0.00024909
0.000409435
0.000188278
0.00043833
0.000111914
0.000524573
0.000726785
-0.000132217
0.000869211
-0.00021995
0.000622169
-0.000289936
0.00051677
-0.000361645
0.00048742
-0.000431206
0.000443384
-0.000488635
0.000370026
-0.00052884
0.000278617
-0.000549591
0.000177958
-0.000551482
7.60895e-05
-0.000536295
-2.3126e-05
-0.000507048
-0.000113845
-0.000466352
-0.000194375
-0.000416878
-0.000264166
-0.00036047
-0.000322814
-0.000299125
-0.000369637
-0.000235075
-0.000404429
-0.000171448
-0.00042634
-0.000109773
-0.00043783
-5.17139e-05
-0.000440122
3.89411e-06
-0.000439088
5.95334e-05
-0.000436401
0.000116215
-0.000430795
0.000173141
-0.000418674
0.000228308
-0.000397618
0.000278943
-0.000366568
0.000324554
-0.000328117
0.000365002
-0.000284515
0.000400467
-0.000236605
0.000430668
-0.000183379
0.000454103
-0.000123592
0.000469299
-5.73387e-05
0.000474272
1.61237e-05
0.000468144
9.40366e-05
0.000447023
0.000178314
0.000408006
0.000265628
0.000350712
0.000349209
0.000277562
0.000421662
0.000192346
0.000477606
0.000100269
0.000512827
5.17527e-06
0.000529018
-9.06939e-05
0.000531328
-0.00018521
0.000519958
-0.000273773
0.00048719
-0.000350506
0.000431605
-0.000410862
0.000357681
-0.000452181
0.000271469
-0.000474211
0.000180209
-0.000479576
9.15665e-05
-0.000473077
1.0703e-05
-0.000455388
-6.51271e-05
-0.000429137
-0.000132506
-0.000395711
-0.00019259
-0.000357173
-0.000243861
-0.000315449
-0.000287107
-0.000270677
-0.000325336
-0.000221779
-0.000360201
-0.000168512
-0.000389751
-0.000112833
-0.000410593
-5.70823e-05
-0.000421932
-2.93028e-06
-0.000425763
4.9994e-05
-0.000426136
0.000104447
-0.000425585
0.000162758
-0.000423679
0.000224094
-0.00041538
0.000286678
-0.000396464
0.000347675
-0.000365169
0.000403971
-0.000321217
0.000454204
-0.00026539
0.000495733
-0.000197562
0.000526631
-0.000119103
0.000544039
-3.10062e-05
0.000543779
6.87464e-05
0.000524424
0.000170966
0.000484683
0.000272879
0.000426737
0.000365559
0.000355881
0.000439835
0.000283996
0.000481321
0.000216097
0.000506229
0.000131037
0.000609633
0.000857821
-0.000141783
0.00101099
-0.000235361
0.000715747
-0.000312222
0.00059363
-0.000401907
0.000577105
-0.000493046
0.000534523
-0.000567979
0.00044496
-0.000617583
0.00032822
-0.0006408
0.000201176
-0.000639005
7.42943e-05
-0.000616665
-4.54678e-05
-0.000577957
-0.000152552
-0.000525988
-0.000246343
-0.000464828
-0.000325326
-0.000395997
-0.000391646
-0.000321939
-0.000443696
-0.000244537
-0.000481831
-0.000168607
-0.000502271
-9.80262e-05
-0.000508412
-3.45335e-05
-0.000503616
2.4999e-05
-0.000498621
8.72351e-05
-0.000498638
0.000153365
-0.000496925
0.00022136
-0.000486668
0.000287299
-0.000463556
0.000346055
-0.000425323
0.000396698
-0.00037876
0.00044115
-0.000328967
0.000481074
-0.000276529
0.000516441
-0.000218746
0.000544631
-0.000151782
0.000563922
-7.66296e-05
0.000574102
5.94379e-06
0.000571847
9.6292e-05
0.000552782
0.00019738
0.000511136
0.000307273
0.000444525
0.000415819
0.000355024
0.000511163
0.000248007
0.000584623
0.000129935
0.000630899
6.65613e-06
0.000652297
-0.000117475
0.000655459
-0.000238304
0.000640788
-0.000349801
0.000598686
-0.000444453
0.000526257
-0.000516134
0.000429362
-0.000561496
0.00031683
-0.000581923
0.000200636
-0.000583488
9.31315e-05
-0.000570272
-2.51261e-06
-0.000548306
-8.70926e-05
-0.000516042
-0.000164769
-0.000475496
-0.000233137
-0.000429871
-0.000289486
-0.000383326
-0.000333651
-0.000334874
-0.000373788
-0.000280117
-0.000414958
-0.000216989
-0.000452878