/*--------------------------------*- C++ -*----------------------------------*\
| =========                 |                                                 |
| \\      /  F ield         | OpenFOAM: The Open Source CFD Toolbox           |
|  \\    /   O peration     | Version:  2412                                  |
|   \\  /    A nd           | Website:  www.openfoam.com                      |
|    \\/     M anipulation  |                                                 |
\*---------------------------------------------------------------------------*/
FoamFile
{
    version     2.0;
    format      ascii;
    arch        "LSB;label=32;scalar=64";
    class       volScalarField;
    location    "4.65";
    object      alpha.lava;
}
// * * * * * * * * * * * * * * * * * * * * * * * * * * * * * * * * * * * * * //

dimensions      [0 0 0 0 0 0 0];

internalField   nonuniform List<scalar> 
6400
(
1
0.999989
0.999979
0.999985
1.00001
1.00005
1.00007
1.00005
1
0.999942
0.999913
0.999935
1
1.00008
1.00012
1.00009
1.00002
0.999935
0.999886
0.999903
0.999976
1.00006
1.00011
1.0001
1.00004
0.999958
0.999907
0.999911
0.999964
1.00003
1.00008
1.00008
1.00004
0.999987
0.999949
0.999944
0.999972
1.00001
1.00004
1.00005
1.00003
1
0.99998
0.99997
0.999976
0.999993
1.00001
1.00002
1.00002
1.00001
0.999994
0.999976
0.999968
0.999974
0.999992
1.00001
1.00003
1.00003
1
0.999974
0.999952
0.999952
0.999977
1.00002
1.00005
1.00005
1.00002
0.999976
0.999937
0.999928
0.999956
1
1.00005
1.00006
1.00004
0.999995
0.99995
0.999928
0.999936
0.999973
1.00001
1.00002
1.00001
0.999984
0.999964
0.999971
1
1.00005
1.00007
1.00007
1.00002
0.999964
0.99993
0.999942
0.999996
1.00006
1.0001
1.00009
1.00003
0.999963
0.99992
0.999928
0.99998
1.00004
1.00008
1.00007
1.00003
0.999969
0.999932
0.999933
0.999968
1.00001
1.00004
1.00004
1.00002
0.999986
0.999964
0.999962
0.99998
1.00001
1.00002
1.00003
1.00002
1.00001
0.999993
0.999986
0.999988
0.999997
1.00001
1.00002
1.00002
1.00002
1
0.999986
0.999974
0.999974
0.999988
1.00001
1.00003
1.00003
1.00001
0.999981
0.999957
0.999952
0.99997
1
1.00003
1.00004
1.00002
0.999982
0.999949
0.999937
0.999954
0.999991
1.00003
1.00005
1.00005
1.00002
1
0.999951
0.999991
1.00003
1.00003
1.00001
0.999969
0.999945
0.999957
1.00001
1.00007
1.0001
1.00009
1.00002
0.999949
0.999907
0.999927
0.999999
1.00008
1.00013
1.00011
1.00004
0.99995
0.999901
0.999912
0.999975
1.00005
1.00009
1.00008
1.00002
0.999957
0.999916
0.99992
0.99996
1.00001
1.00004
1.00004
1.00002
0.999982
0.999959
0.999958
0.999978
1.00001
1.00003
1.00003
1.00003
1.00001
0.999997
0.999987
0.999987
0.999995
1.00001
1.00002
1.00003
1.00002
1.00001
0.999983
0.999966
0.999966
0.999985
1.00001
1.00004
1.00004
1.00001
0.999972
0.99994
0.999934
0.999959
1
1.00004
1.00005
1.00002
0.999978
0.999937
0.999924
0.999946
0.999992
1.00004
1.00006
1.00005
1.00002
0.99995
0.999966
1.00003
1.00005
1.00004
1.00001
0.999953
0.999924
0.999945
1.00001
1.00009
1.00013
1.0001
1.00002
0.999929
0.999883
0.999912
1
1.0001
1.00015
1.00012
1.00003
0.999934
0.99988
0.999899
0.999973
1.00006
1.0001
1.00008
1.00002
0.999945
0.999902
0.99991
0.999957
1.00001
1.00005
1.00005
1.00002
0.999977
0.999953
0.999954
0.999976
1.00001
1.00003
1.00004
1.00003
1.00002
0.999997
0.999985
0.999982
0.999991
1.00001
1.00003
1.00004
1.00003
1.00001
0.999978
0.999956
0.999956
0.999981
1.00002
1.00005
1.00005
1.00001
0.999964
0.999925
0.99992
0.999954
1.00001
1.00005
1.00006
1.00003
0.999975
0.999928
0.999915
0.999944
0.999999
1.00005
1.00006
1.00005
0.999973
0.999955
1
1.00004
1.00007
1.00006
1.00001
0.999945
0.99991
0.999933
1.00001
1.0001
1.00015
1.00012
1.00003
0.999926
0.999875
0.999904
0.999998
1.0001
1.00015
1.00012
1.00003
0.999931
0.999877
0.999895
0.999969
1.00005
1.0001
1.00008
1.00001
0.999944
0.999904
0.999913
0.999958
1.00001
1.00004
1.00004
1.00001
0.999981
0.999959
0.99996
0.999978
1
1.00003
1.00004
1.00003
1.00002
1
0.999985
0.999979
0.999985
1
1.00003
1.00004
1.00004
1.00001
0.999975
0.999948
0.999946
0.999973
1.00002
1.00005
1.00005
1.00002
0.999961
0.999918
0.999912
0.999948
1.00001
1.00006
1.00007
1.00003
0.999978
0.999931
0.999919
0.999949
1
1.00004
1.00005
1.00001
0.999969
0.999968
0.999998
1.00005
1.00009
1.00008
1.00001
0.999936
0.999892
0.999917
1
1.0001
1.00016
1.00013
1.00003
0.999925
0.999866
0.999893
0.999987
1.00009
1.00015
1.00012
1.00003
0.999932
0.999875
0.99989
0.999961
1.00004
1.00009
1.00007
1.00001
0.999948
0.99991
0.999916
0.999956
1.00001
1.00004
1.00004
1.00002
0.999987
0.999967
0.999964
0.999978
1
1.00002
1.00003
1.00004
1.00002
1.00001
0.999985
0.999973
0.999977
0.999998
1.00003
1.00005
1.00004
1.00002
0.999974
0.99994
0.999936
0.999965
1.00001
1.00005
1.00006
1.00002
0.999964
0.999915
0.999906
0.999942
1
1.00006
1.00007
1.00004
0.999984
0.999936
0.999924
0.999952
0.999999
1.00003
1.00004
1.00001
0.999949
0.999951
0.999993
1.00006
1.00011
1.00009
1.00002
0.999928
0.999878
0.999905
1
1.00011
1.00017
1.00014
1.00004
0.999923
0.999859
0.999884
0.99998
1.00009
1.00015
1.00012
1.00003
0.999933
0.999876
0.999889
0.999957
1.00004
1.00008
1.00007
1.00001
0.999952
0.999916
0.99992
0.999956
1
1.00003
1.00004
1.00002
0.999993
0.999972
0.999966
0.999975
0.999994
1.00001
1.00003
1.00004
1.00003
1.00001
0.999983
0.999966
0.999968
0.999991
1.00002
1.00005
1.00005
1.00002
0.999972
0.999933
0.999926
0.999958
1.00001
1.00006
1.00007
1.00003
0.999966
0.999912
0.999901
0.999938
1
1.00006
1.00007
1.00004
0.999986
0.99994
0.999931
0.999961
1
1.00006
1.00005
0.999962
0.999931
0.999935
0.999995
1.00008
1.00013
1.00011
1.00002
0.999923
0.999867
0.999895
0.999996
1.00011
1.00017
1.00014
1.00004
0.99992
0.999855
0.999878
0.999973
1.00008
1.00014
1.00012
1.00003
0.999934
0.99988
0.999892
0.999955
1.00003
1.00007
1.00006
1.00001
0.999958
0.999924
0.999927
0.999959
0.999999
1.00003
1.00003
1.00002
0.999998
0.999978
0.999969
0.999973
0.999988
1.00001
1.00003
1.00004
1.00003
1.00001
0.999982
0.99996
0.999959
0.999984
1.00002
1.00005
1.00006
1.00002
0.999971
0.999927
0.999919
0.999953
1.00001
1.00006
1.00007
1.00003
0.999969
0.999914
0.999901
0.999939
1
1.00006
1.00007
1.00004
0.999985
0.999946
0.999946
0.999977
1.00004
1.00007
1
0.999954
0.999913
0.999926
0.999997
1.00009
1.00014
1.00012
1.00003
0.99992
0.99986
0.999887
0.999989
1.00011
1.00017
1.00014
1.00004
0.999921
0.999857
0.999878
0.999968
1.00007
1.00013
1.00011
1.00003
0.99994
0.999889
0.999898
0.999955
1.00002
1.00006
1.00005
1.00001
0.999963
0.999933
0.999934
0.99996
0.999995
1.00002
1.00003
1.00002
1
0.999984
0.999971
0.99997
0.999981
1
1.00003
1.00004
1.00004
1.00001
0.999981
0.999955
0.999952
0.999979
1.00002
1.00006
1.00006
1.00003
0.999972
0.999924
0.999914
0.999949
1.00001
1.00007
1.00008
1.00004
0.999973
0.999917
0.999905
0.999942
1
1.00005
1.00006
1.00003
0.999986
0.999959
0.999967
1.00001
1.00005
1.00005
1.00001
0.999948
0.999903
0.999919
0.999996
1.00009
1.00015
1.00013
1.00003
0.999919
0.999856
0.999882
0.999983
1.0001
1.00016
1.00014
1.00004
0.999925
0.999863
0.999881
0.999964
1.00006
1.00011
1.0001
1.00003
0.999947
0.9999
0.999907
0.999956
1.00001
1.00005
1.00005
1.00001
0.99997
0.999944
0.999942
0.999962
0.99999
1.00001
1.00002
1.00002
1.00001
0.999989
0.999974
0.999968
0.999976
0.999997
1.00002
1.00004
1.00004
1.00002
0.999981
0.999951
0.999946
0.999974
1.00002
1.00006
1.00007
1.00003
0.999973
0.999922
0.99991
0.999947
1.00001
1.00007
1.00008
1.00004
0.999977
0.999924
0.999913
0.999948
1.00001
1.00005
1.00005
1.00003
0.999991
0.999976
0.999985
0.99999
1.00007
1.00007
1.00002
0.999945
0.999895
0.999912
0.999994
1.0001
1.00015
1.00013
1.00003
0.999921
0.999857
0.999881
0.999977
1.00009
1.00015
1.00013
1.00004
0.999931
0.999872
0.999888
0.999963
1.00005
1.0001
1.00009
1.00003
0.999955
0.999913
0.999917
0.999959
1.00001
1.00004
1.00004
1.00001
0.999979
0.999955
0.999952
0.999965
0.999987
1.00001
1.00002
1.00002
1.00001
0.999995
0.999977
0.999966
0.999971
0.999993
1.00002
1.00005
1.00005
1.00002
0.999982
0.999948
0.999941
0.99997
1.00002
1.00006
1.00007
1.00004
0.999975
0.999923
0.999911
0.999946
1.00001
1.00006
1.00008
1.00004
0.999981
0.999932
0.999923
0.999956
1.00001
1.00004
1.00005
1.00002
0.999997
0.999972
0.999933
1.00005
1.00009
1.00009
1.00003
0.99994
0.999889
0.999907
0.999992
1.00009
1.00015
1.00013
1.00004
0.999926
0.999864
0.999884
0.999973
1.00008
1.00014
1.00012
1.00003
0.999939
0.999885
0.999898
0.999964
1.00004
1.00009
1.00008
1.00002
0.999963
0.999926
0.999928
0.999962
1
1.00003
1.00003
1.00001
0.999986
0.999965
0.999959
0.999966
0.999983
1
1.00002
1.00002
1.00002
1
0.999979
0.999965
0.999967
0.999988
1.00002
1.00005
1.00005
1.00002
0.999982
0.999945
0.999938
0.999967
1.00002
1.00006
1.00007
1.00004
0.999977
0.999926
0.999914
0.999948
1.00001
1.00006
1.00007
1.00004
0.999983
0.99994
0.999935
0.999964
1.00001
1.00004
1.00003
1.00002
0.999976
0.999911
1
1.00006
1.00011
1.00009
1.00003
0.99994
0.999889
0.999907
0.999988
1.00009
1.00014
1.00012
1.00004
0.999933
0.999873
0.99989
0.99997
1.00006
1.00012
1.0001
1.00003
0.999948
0.9999
0.99991
0.999966
1.00003
1.00007
1.00006
1.00002
0.99997
0.999938
0.999939
0.999965
0.999998
1.00002
1.00002
1.00001
0.99999
0.999972
0.999964
0.999967
0.999979
0.999997
1.00001
1.00002
1.00002
1.00001
0.999983
0.999966
0.999965
0.999986
1.00002
1.00005
1.00005
1.00003
0.999985
0.999947
0.999938
0.999966
1.00002
1.00006
1.00007
1.00004
0.99998
0.999932
0.99992
0.999951
1.00001
1.00005
1.00006
1.00003
0.999984
0.99995
0.999948
0.999974
1.00001
1.00003
1.00002
0.999993
0.999937
0.999958
1
1.00007
1.00011
1.0001
1.00003
0.999944
0.999893
0.999908
0.999984
1.00008
1.00013
1.00011
1.00003
0.999941
0.999887
0.9999
0.99997
1.00005
1.0001
1.00009
1.00003
0.999959
0.999917
0.999924
0.999969
1.00002
1.00006
1.00005
1.00002
0.999977
0.99995
0.999949
0.999968
0.999993
1.00001
1.00002
1.00001
0.999994
0.999979
0.999969
0.999968
0.999977
0.999994
1.00001
1.00003
1.00003
1.00001
0.999988
0.999968
0.999965
0.999984
1.00002
1.00005
1.00005
1.00003
0.999989
0.999951
0.999941
0.999966
1.00001
1.00006
1.00006
1.00004
0.999984
0.999939
0.999928
0.999956
1
1.00004
1.00005
1.00003
0.999987
0.999961
0.999961
0.999983
1.00001
1.00002
1.00001
0.999995
0.999941
0.999949
0.999994
1.00006
1.0001
1.00009
1.00003
0.999949
0.9999
0.999912
0.99998
1.00006
1.00011
1.0001
1.00003
0.999951
0.999903
0.999913
0.999971
1.00004
1.00008
1.00007
1.00003
0.999969
0.999934
0.999938
0.999973
1.00002
1.00004
1.00004
1.00001
0.999983
0.999962
0.999959
0.999971
0.99999
1.00001
1.00001
1.00001
0.999999
0.999986
0.999976
0.999973
0.999979
0.999994
1.00001
1.00003
1.00003
1.00002
0.999991
0.999969
0.999965
0.999983
1.00002
1.00005
1.00005
1.00003
0.999992
0.999956
0.999945
0.999967
1.00001
1.00005
1.00006
1.00003
0.999988
0.999949
0.99994
0.999963
1
1.00004
1.00004
1.00002
0.99999
0.999972
0.999974
0.999991
1.00001
1.00002
1.00005
0.99996
0.999934
0.999938
0.999987
1.00005
1.00009
1.00008
1.00003
0.999954
0.99991
0.999918
0.999976
1.00005
1.00009
1.00008
1.00003
0.999961
0.999921
0.999927
0.999972
1.00003
1.00006
1.00006
1.00002
0.999979
0.999951
0.999952
0.999977
1.00001
1.00003
1.00003
1.00001
0.999991
0.999975
0.99997
0.999977
0.99999
1
1.00001
1.00001
1.00001
0.999996
0.999985
0.99998
0.999983
0.999996
1.00001
1.00003
1.00003
1.00002
0.999995
0.999973
0.999968
0.999984
1.00001
1.00004
1.00005
1.00003
0.999996
0.999963
0.999952
0.99997
1.00001
1.00004
1.00005
1.00003
0.999995
0.999963
0.999955
0.999974
1.00001
1.00003
1.00003
1.00002
0.999995
0.999984
0.999987
0.999999
1.00001
1.00007
0.999997
0.999959
0.999926
0.999937
0.999981
1.00004
1.00007
1.00007
1.00002
0.999961
0.999922
0.999926
0.999971
1.00003
1.00007
1.00006
1.00002
0.999973
0.99994
0.999942
0.999975
1.00002
1.00005
1.00005
1.00002
0.99999
0.999969
0.999967
0.999984
1.00001
1.00002
1.00003
1.00002
1
0.999989
0.999983
0.999986
0.999994
1
1.00001
1.00001
1.00001
1.00001
0.999995
0.999986
0.999986
0.999996
1.00001
1.00003
1.00003
1.00002
0.999999
0.999978
0.999972
0.999985
1.00001
1.00004
1.00005
1.00003
1
0.999972
0.999962
0.999976
1.00001
1.00004
1.00005
1.00003
1
0.999979
0.999973
0.999986
1.00001
1.00003
1.00003
1.00002
1
0.999994
1
1.00001
1.00005
1.00002
0.999996
0.999957
0.999932
0.999935
0.999969
1.00002
1.00005
1.00005
1.00001
0.999965
0.999932
0.999932
0.999965
1.00001
1.00004
1.00005
1.00002
0.999982
0.999956
0.999956
0.999979
1.00001
1.00003
1.00004
1.00002
1
0.999986
0.999983
0.999994
1.00001
1.00002
1.00003
1.00002
1.00001
1
0.999999
0.999998
1
1.00001
1.00002
1.00002
1.00002
1.00001
1
0.999993
0.99999
0.999997
1.00001
1.00003
1.00003
1.00002
1
0.999984
0.999977
0.999987
1.00001
1.00003
1.00004
1.00003
1.00001
0.999986
0.999977
0.999988
1.00001
1.00004
1.00005
1.00004
1.00002
0.999998
0.999992
1
1.00002
1.00003
1.00003
1.00002
1.00001
1.00001
1.00001
1.00001
1.00002
1.00001
0.999992
0.999963
0.999941
0.99994
0.999963
0.999998
1.00002
1.00003
1.00001
0.999972
0.999948
0.999946
0.999968
1
1.00003
1.00003
1.00002
0.999992
0.999974
0.999972
0.999986
1.00001
1.00002
1.00003
1.00002
1.00001
1
0.999998
1
1.00001
1.00002
1.00003
1.00003
1.00002
1.00002
1.00001
1.00001
1.00001
1.00001
1.00002
1.00002
1.00002
1.00002
1.00001
0.999998
0.999994
0.999999
1.00001
1.00002
1.00003
1.00002
1.00001
0.999991
0.999986
0.999993
1.00001
1.00003
1.00004
1.00003
1.00002
1
0.999993
1
1.00002
1.00003
1.00004
1.00004
1.00002
1.00001
1.00001
1.00001
1.00002
1.00003
1.00003
1.00002
1.00002
1.00001
0.999852
0.999794
0.999828
0.999887
0.999863
0.999782
0.999755
0.99982
0.999838
0.999772
0.999769
0.999851
0.999877
0.999791
0.999764
0.999829
0.999875
0.99982
0.999815
0.999879
0.999922
0.999862
0.999839
0.999879
0.999927
0.999895
0.999888
0.999922
0.99996
0.999934
0.999917
0.999929
0.999958
0.999953
0.999942
0.999946
0.999963
0.999972
0.999956
0.999946
0.999947
0.99996
0.999958
0.99994
0.999934
0.999947
0.999956
0.999928
0.999908
0.999919
0.999941
0.999918
0.999905
0.999927
0.999959
0.999926
0.999895
0.999909
0.999947
0.99992
0.999898
0.999922
0.999965
0.999929
0.999893
0.999906
0.999949
0.999926
0.999908
0.999929
0.999967
0.999942
0.999923
0.999939
0.999964
0.999951
0.999952
0.999967
0.999969
0.999971
0.000110692
0.000166395
0.000140596
9.00928e-05
0.00011396
0.000184845
0.000193468
0.000112049
8.51842e-05
0.000154248
0.000169024
0.000101279
8.36784e-05
0.000168218
0.00018628
0.000111369
6.24207e-05
0.000123565
0.00014166
9.31749e-05
6.04912e-05
0.000123493
0.000143946
0.000100371
5.30594e-05
9.05059e-05
0.000107288
8.49055e-05
5.44124e-05
8.4635e-05
0.000103019
8.99448e-05
6.09706e-05
6.79739e-05
8.17405e-05
8.15011e-05
6.73142e-05
5.94639e-05
7.39512e-05
8.13566e-05
7.52721e-05
5.705e-05
5.56169e-05
7.10483e-05
7.72708e-05
6.43192e-05
5.54702e-05
8.09066e-05
9.56077e-05
7.89539e-05
5.3097e-05
7.65555e-05
9.52854e-05
8.07874e-05
5.51672e-05
8.98155e-05
0.000118085
9.88808e-05
5.76645e-05
8.69465e-05
0.000116637
0.000103403
6.88052e-05
0.000107405
0.000141027
0.000121855
7.351e-05
9.51521e-05
0.000117149
0.000100695
6.6494e-05
9.04119e-05
0.000103765
8.25073e-05
5.24135e-05
6.3264e-05
6.21381e-05
4.79504e-05
4.96484e-05
4.43543e-05
1.20459e-18
1.78235e-16
3.32343e-14
1.86758e-14
3.44889e-19
4.89256e-20
3.50599e-19
4.31303e-19
1.98501e-18
8.12436e-17
9.88049e-14
3.90284e-14
4.71191e-19
3.60894e-20
4.712e-19
3.10338e-19
1.64249e-18
1.13255e-16
6.10927e-14
2.52487e-14
1.79094e-19
3.27532e-21
1.324e-19
9.2689e-20
4.61276e-19
1.06559e-16
1.94437e-14
1.05995e-14
8.33872e-21
1.84171e-20
1.81659e-21
6.6594e-21
7.745e-21
6.65959e-21
2.92405e-15
3.7001e-15
1.44972e-15
4.78173e-21
4.92964e-33
-1.00033e-47
-3.15544e-31
-3.29357e-36
-1.27253e-30
1.37806e-15
4.05594e-15
2.8792e-15
1.12028e-20
1.26158e-20
2.59081e-21
1.34975e-20
3.64397e-21
6.83038e-17
9.97303e-15
1.01979e-14
4.70244e-20
4.34348e-20
1.62485e-21
5.92087e-20
1.57348e-20
1.06586e-19
1.55041e-14
1.62429e-14
6.37994e-20
6.24317e-20
1.20069e-20
7.34252e-20
1.76091e-20
9.59478e-20
9.78799e-15
7.14056e-15
7.87326e-21
7.46849e-21
2.24864e-21
5.52296e-21
6.24142e-22
8.12441e-18
5.90327e-16
3.27481e-22
1.91197e-22
4.01913e-23
5.55724e-19
6.83966e-19
8.15183e-19
3.2507e-19
1.90505e-20
4.89188e-20
1.52816e-20
1.07658e-19
5.49975e-19
7.58295e-19
2.57619e-18
7.04777e-19
2.10267e-20
3.60692e-20
2.8115e-25
1.82043e-20
4.64498e-19
3.9316e-19
1.23833e-18
3.48329e-19
-2.99946e-25
3.26771e-21
8.4282e-25
3.58242e-24
1.13833e-19
5.44095e-20
2.12076e-19
7.46938e-20
-3.52816e-25
3.31995e-20
-2.58498e-53
-1.82614e-48
2.08764e-21
-1.20565e-23
5.70687e-21
5.22303e-21
-4.20966e-25
-6.39384e-22
5.55458e-36
-4.7374e-34
-2.06001e-30
-1.05214e-26
-2.83737e-31
-4.23014e-25
1.25748e-20
5.00714e-21
-2.07479e-23
2.62587e-21
-1.42424e-48
4.70877e-25
3.4109e-21
1.93711e-21
8.8706e-20
8.38698e-20
4.72082e-21
3.46084e-20
-2.76109e-49
2.99164e-24
1.5731e-20
7.86647e-21
2.09824e-19
1.93806e-19
1.29061e-20
4.17107e-20
3.6692e-28
1.47138e-20
1.76063e-20
8.80416e-21
1.24547e-19
6.8726e-20
1.64856e-21
2.08632e-21
1.42017e-26
3.69016e-21
6.21831e-22
3.11893e-22
2.98853e-21
3.93331e-23
8.24753e-23
3.86369e-23
2.80175e-24
2.00808e-26
5.92672e-24
2.04069e-24
3.92589e-25
8.06205e-28
1.76658e-24
5.21215e-24
1.88794e-27
6.29104e-25
1.12046e-23
4.80358e-25
4.80342e-25
4.70002e-28
-3.73516e-25
3.20339e-24
8.99626e-25
2.11139e-28
1.40396e-24
4.02641e-26
2.05609e-26
1.93283e-29
-9.65236e-26
3.02596e-26
5.513e-25
9.62959e-36
3.85186e-35
9.62968e-36
8.07307e-30
6.91787e-25
-3.55292e-34
-8.24236e-30
-7.42159e-26
-3.82505e-32
-2.04234e-27
-1.30749e-30
-5.64622e-27
4.68142e-34
-1.63176e-34
-3.78757e-29
-2.22577e-28
-9.72342e-33
-1.41699e-38
-3.86359e-26
-7.58491e-30
-4.75711e-27
-6.31497e-32
-2.52445e-26
-8.59186e-30
4.54476e-31
7.95217e-31
-4.55357e-25
-1.45601e-28
-1.30007e-25
1.72116e-29
4.88282e-26
-4.40149e-29
-3.28588e-25
5.56809e-26
-7.34046e-25
5.76501e-26
2.581e-25
6.78108e-26
1.67475e-25
3.6692e-28
2.15416e-25
1.23963e-25
-2.51797e-25
5.06737e-25
3.68721e-25
1.15036e-26
1.30983e-27
1.42002e-26
6.05606e-26
5.36228e-27
3.39485e-27
1.88719e-26
1.39927e-26
1.34749e-27
8.89864e-26
5.52576e-24
2.00341e-26
4.33173e-26
9.24629e-27
3.79483e-27
7.65665e-28
1.6027e-26
2.05972e-26
1.85963e-27
1.88808e-27
1.95826e-26
1.72673e-26
1.45724e-27
4.97149e-28
4.74522e-27
1.05688e-26
6.2807e-28
1.38688e-28
2.22406e-27
4.10575e-27
2.44106e-28
2.73893e-29
8.62735e-29
5.0193e-28
3.52541e-29
0
-1.20672e-31
2.0076e-38
1.35429e-32
1.23945e-32
9.33864e-39
8.22576e-37
1.84268e-32
1.4338e-32
4.96101e-38
9.29774e-39
8.48361e-33
5.09568e-33
2.32722e-33
3.06873e-34
1.94518e-41
1.84211e-44
5.66115e-33
1.36793e-32
1.83006e-34
3.13082e-31
6.04424e-31
8.62288e-31
7.12022e-31
8.82605e-31
1.5892e-30
-4.33322e-30
-1.34158e-33
7.56182e-30
3.42758e-29
4.92392e-30
-1.56607e-55
1.97237e-28
2.56272e-28
1.40293e-32
1.15456e-28
1.55713e-27
6.14746e-28
7.87401e-29
3.7144e-28
2.34625e-27
7.78297e-28
2.63253e-28
1.68877e-27
1.91922e-27
2.47875e-28
8.40704e-29
5.70839e-28
3.7646e-28
2.90542e-29
1.39446e-28
1.02743e-28
6.36374e-30
1.37922e-29
9.15893e-29
7.52439e-28
8.00687e-30
1.35486e-29
3.72566e-31
1.72587e-31
6.67482e-32
7.4117e-31
1.44841e-31
7.71257e-32
1.04112e-31
8.15281e-31
7.52903e-32
2.99185e-32
3.46698e-32
2.53202e-31
5.01647e-32
1.53221e-32
9.17112e-33
9.2829e-32
1.84612e-32
2.02511e-33
2.11015e-34
2.09411e-33
4.79236e-34
1.38393e-35
-4.0188e-37
6.52089e-39
8.61403e-39
1.01484e-38
1.18771e-38
1.34884e-38
1.43019e-38
1.41834e-38
1.31851e-38
1.11201e-38
8.39398e-39
5.54075e-39
3.20327e-39
1.45136e-39
4.59811e-40
7.90389e-41
2.13261e-44
9.08447e-42
1.14602e-38
1.06053e-37
3.70824e-37
8.51176e-37
1.47714e-36
2.12315e-36
2.50105e-36
2.45297e-36
3.16099e-36
3.4523e-36
1.4487e-36
3.1566e-37
2.53104e-37
1.38083e-40
2.58747e-33
2.05562e-33
3.32231e-35
6.18509e-33
2.52003e-32
2.09621e-33
1.43709e-33
1.89432e-32
2.15783e-32
1.56641e-32
1.73528e-32
2.17326e-32
1.30398e-32
2.05469e-33
5.28929e-33
5.87521e-33
2.97005e-33
2.48818e-34
1.44536e-33
8.57379e-34
4.52953e-35
5.54705e-34
2.76074e-33
9.12397e-34
3.96583e-36
8.66892e-36
4.30615e-37
4.5046e-37
2.57603e-38
7.80511e-37
8.30952e-37
1.43183e-37
4.12461e-38
7.50903e-37
4.22314e-37
7.13389e-38
9.6699e-39
6.27974e-38
1.58068e-37
1.58339e-38
1.98152e-43
1.25461e-38
6.03692e-39
9.32088e-40
1.73451e-42
4.02425e-42
5.81476e-43
2.21202e-44
5.12566e-45
4.00742e-45
5.73765e-45
7.48782e-45
9.05357e-45
1.01205e-44
1.04752e-44
1.01912e-44
9.32708e-45
7.71964e-45
5.65542e-45
3.54852e-45
1.92809e-45
8.3862e-46
2.60272e-46
4.32928e-47
9.23375e-51
4.14518e-49
2.73021e-47
3.73318e-44
2.68484e-43
8.97816e-43
1.98216e-42
3.33229e-42
4.32297e-42
4.42243e-42
3.61335e-42
2.32107e-42
1.15992e-42
4.05961e-43
8.38548e-44
7.77857e-43
5.23306e-42
2.1819e-40
1.54761e-40
9.61827e-40
8.36986e-39
7.2893e-39
2.0562e-39
9.47769e-39
6.29405e-38
2.94287e-38
1.43167e-38
7.82494e-38
1.00344e-37
1.48926e-38
5.7383e-39
3.54971e-38
2.76536e-38
2.37415e-39
1.08522e-38
8.29381e-39
4.2424e-40
8.02232e-40
1.90013e-39
5.40869e-39
5.48539e-41
8.49045e-41
4.36788e-42
6.56683e-42
1.53307e-43
1.04569e-41
1.0714e-41
1.68072e-42
4.72446e-43
9.25261e-42
4.84672e-42
7.31752e-43
9.33552e-44
5.99236e-43
1.3504e-42
1.09738e-43
1.6285e-48
7.45139e-44
2.68367e-44
2.71113e-45
1.94906e-48
1.1218e-48
1.27609e-49
2.12044e-50
3.61507e-51
4.01649e-51
5.56094e-51
6.99744e-51
8.12753e-51
8.69195e-51
8.54452e-51
7.89029e-51
6.86206e-51
5.39686e-51
3.76307e-51
2.24764e-51
1.14876e-51
4.68783e-52
1.39571e-52
2.26271e-53
4.68513e-57
1.98956e-55
1.9434e-54
4.91793e-51
1.30688e-49
7.28691e-49
2.16412e-48
4.38621e-48
6.41291e-48
6.96579e-48
5.75486e-48
3.64074e-48
1.75342e-48
5.91475e-49
1.04664e-49
8.25576e-50
1.73464e-48
5.00057e-46
4.08059e-48
5.1403e-45
4.56183e-44
4.93172e-44
1.5293e-44
7.78072e-44
6.10525e-43
2.87088e-43
1.47302e-43
8.91196e-43
1.20688e-42
1.81381e-43
6.79439e-44
4.55912e-43
3.61069e-43
3.12621e-44
1.45538e-43
1.11384e-43
5.77178e-45
8.67067e-45
1.1882e-44
1.48803e-43
3.54679e-46
1.40924e-45
7.10868e-47
1.11163e-46
4.97663e-48
1.83004e-46
1.76279e-46
2.62878e-47
8.90814e-48
1.42314e-46
7.05354e-47
9.88971e-48
1.17126e-48
7.17898e-48
1.4866e-47
1.04634e-48
1.58548e-53
5.69356e-49
1.64678e-49
1.1526e-50
6.65077e-54
2.00426e-54
2.0847e-55
2.39314e-56
3.40314e-57
4.75153e-57
6.33617e-57
7.6408e-57
8.45035e-57
8.56038e-57
7.93378e-57
6.86652e-57
5.57941e-57
4.09688e-57
2.65675e-57
1.47809e-57
7.02839e-58
2.65009e-58
7.33323e-59
1.12688e-59
2.48376e-63
1.07428e-61
6.57089e-61
7.28044e-60
2.54848e-56
3.62411e-55
1.67159e-54
4.42087e-54
7.75607e-54
9.47206e-54
8.32273e-54
5.44781e-54
2.62567e-54
8.64143e-55
1.46743e-55
1.36145e-55
1.89736e-54
1.63927e-51
1.58628e-54
3.38895e-50
3.17432e-49
4.2788e-49
1.42165e-49
8.00097e-49
7.05664e-48
3.59946e-48
1.83838e-48
1.22219e-47
1.74135e-47
2.69966e-48
9.7758e-49
7.13323e-48
5.73971e-48
4.96388e-49
2.3646e-48
1.81991e-48
9.55427e-50
1.36229e-49
1.63626e-49
1.0515e-48
3.80862e-51
2.3667e-50
1.3549e-51
2.22052e-51
4.45685e-53
3.28506e-51
3.29943e-51
4.66372e-52
1.45591e-52
2.4194e-51
1.1683e-51
1.56353e-52
1.70688e-53
9.82772e-53
1.90092e-52
1.19793e-53
1.8663e-58
4.98698e-54
1.20356e-54
6.19471e-56
2.44022e-59
4.98463e-60
4.56144e-61
2.91139e-62
4.23829e-63
6.16524e-63
7.83748e-63
8.95537e-63
9.33256e-63
8.84633e-63
7.63126e-63
6.12445e-63
4.61332e-63
3.14695e-63
1.89244e-63
9.77687e-64
4.33923e-64
1.52972e-64
3.9666e-65
5.77108e-66
1.41104e-69
6.39755e-68
3.99715e-67
1.80449e-66
7.86815e-64
1.10705e-61
9.30096e-61
3.4792e-60
7.75235e-60
1.11487e-59
1.06668e-59
7.53703e-60
3.82355e-60
1.27147e-60
2.14615e-61
1.9814e-61
3.92512e-60
6.39151e-57
-2.56038e-54
2.48094e-55
2.70098e-54
4.40424e-54
1.59329e-54
9.9667e-54
9.27643e-53
5.29889e-53
2.68746e-53
1.97856e-52
2.96837e-52
4.79878e-53
1.66798e-53
1.30154e-52
1.0699e-52
9.35766e-54
4.50876e-53
3.50865e-53
1.87498e-54
2.5463e-54
2.82325e-54
8.47426e-54
7.96597e-56
5.20262e-55
3.16749e-56
4.98135e-56
1.67144e-57
7.3043e-56
7.19597e-56
9.73364e-57
3.31305e-57
4.912e-56
2.26347e-56
2.87211e-57
2.91845e-58
1.57895e-57
2.82802e-57
1.60795e-58
2.61557e-63
5.17279e-59
1.04597e-59
4.09856e-61
1.09321e-64
1.57528e-65
1.11865e-66
3.75816e-68
5.99822e-69
8.39589e-69
1.00487e-68
1.07425e-68
1.0411e-68
9.11497e-69
7.21208e-69
5.27941e-69
3.62973e-69
2.28796e-69
1.27065e-69
6.09271e-70
2.53621e-70
8.49203e-71
2.11775e-71
3.00964e-72
8.93679e-76
4.48212e-74
2.85464e-73
1.21927e-72
9.75159e-72
2.8429e-68
4.51804e-67
2.40039e-66
6.91983e-66
1.20813e-65
1.27011e-65
9.76458e-66
5.4214e-66
1.92187e-66
3.32221e-67
3.10901e-67
1.10704e-65
3.0128e-62
-3.26238e-58
1.86918e-60
2.80035e-59
5.25828e-59
2.08542e-59
1.46993e-58
1.45417e-57
9.03354e-58
4.69094e-58
3.69046e-57
5.81754e-57
9.77789e-58
3.32557e-58
2.73634e-57
2.31477e-57
2.03465e-58
9.93555e-58
7.84194e-58
4.22657e-59
5.56729e-59
5.74893e-59
1.94727e-58
1.78554e-60
1.34223e-59
8.10136e-61
1.28153e-60
2.99637e-62
1.76237e-60
1.77412e-60
2.29788e-61
7.93205e-62
1.13816e-60
5.01056e-61
6.07981e-62
5.82965e-63
2.94813e-62
4.89521e-62
2.51739e-63
6.73985e-67
6.36407e-64
1.08505e-64
3.30679e-66
5.85062e-70
6.01252e-71
3.06571e-72
5.3035e-74
9.07834e-75
1.19748e-74
1.34025e-74
1.33356e-74
1.19486e-74
9.63967e-75
6.96655e-75
4.63284e-75
2.93227e-75
1.70365e-75
8.79321e-76
3.96138e-76
1.5707e-76
5.10098e-77
1.25855e-77
1.80582e-78
6.4419e-82
3.452e-80
2.26869e-79
9.30716e-79
6.58216e-78
2.76546e-75
1.53833e-73
1.31116e-72
5.21865e-72
1.17718e-71
1.45622e-71
1.24062e-71
7.65469e-72
3.03674e-72
5.69721e-73
6.34637e-73
3.82498e-71
1.78305e-67
-2.70451e-62
3.92211e-66
3.40708e-64
7.55285e-64
3.19492e-64
2.50692e-63
2.65814e-62
1.76119e-62
9.45638e-63
7.85381e-62
1.30493e-61
2.27496e-62
7.61039e-63
6.52625e-62
5.71484e-62
5.05896e-63
2.47883e-62
2.00456e-62
1.0919e-63
1.38947e-63
1.3473e-63
5.31076e-63
5.2203e-65
3.88467e-64
2.39764e-65
3.68653e-65
9.96141e-67
4.92383e-65
4.95552e-65
6.1802e-66
2.17267e-66
2.9963e-65
1.2604e-65
1.45945e-66
1.32716e-67
6.29285e-67
9.74715e-67
4.55396e-68
3.32295e-71
9.18104e-69
1.33086e-69
3.22765e-71
3.76014e-75
2.72515e-76
9.42923e-78
8.19555e-80
1.4975e-80
1.85068e-80
1.9311e-80
1.7751e-80
1.45908e-80
1.07778e-80
7.01713e-81
4.21068e-81
2.41284e-81
1.27595e-81
6.06587e-82
2.56049e-82
9.71703e-83
3.09701e-83
1.25976e-83
4.23993e-84
6.18186e-86
5.69229e-86
1.86685e-85
7.73123e-85
5.23052e-84
5.31169e-83
1.58761e-80
4.79561e-79
3.20505e-78
1.0399e-77
1.66683e-77
1.65079e-77
1.13311e-77
5.06639e-78
1.08601e-78
1.693e-78
1.6476e-76
1.28254e-72
-2.01447e-66
6.58573e-84
4.78304e-69
1.2574e-68
5.66823e-69
4.8696e-68
5.59958e-67
3.92693e-67
2.13191e-67
1.53466e-66
3.25154e-66
5.97593e-67
1.97832e-67
1.74644e-66
1.58089e-66
1.40947e-67
6.95045e-67
5.73706e-67
3.13897e-68
3.90412e-68
3.6071e-68
1.64283e-67
1.59807e-69
1.2549e-68
7.77487e-70
1.17616e-69
2.85213e-71
1.50932e-69
1.53723e-69
1.86208e-70
6.64047e-71
8.8497e-70
3.5808e-70
3.93846e-71
3.41081e-72
1.52042e-71
2.21488e-71
9.4549e-73
9.88108e-76
1.53687e-73
1.91337e-74
3.76714e-76
2.89562e-80
1.45789e-81
3.33646e-83
1.44766e-85
2.72719e-86
3.14288e-86
3.0361e-86
2.55874e-86
1.90972e-86
1.27016e-86
7.32993e-87
3.87942e-87
1.95361e-87
9.14275e-88
9.15786e-88
8.70948e-87
4.06667e-84
1.38851e-82
2.9265e-82
2.48422e-82
1.07878e-82
1.2372e-87
4.88715e-91
4.33622e-91
4.27104e-90
4.61842e-89
5.38472e-88
1.07736e-85
1.69792e-84
8.60521e-84
1.92438e-83
2.38437e-83
1.82104e-83
8.89975e-84
2.21242e-84
4.46942e-84
9.16867e-82
1.08612e-77
-1.48422e-70
7.5492e-94
7.86779e-74
2.37594e-73
1.1674e-73
1.05729e-72
1.34507e-71
9.93435e-72
5.33867e-72
-1.99885e-67
1.14765e-71
1.75487e-71
5.75996e-72
5.25003e-71
4.85234e-71
4.29593e-72
2.16858e-71
1.8231e-71
1.00353e-72
1.21762e-72
1.08267e-72
5.64301e-72
5.66483e-74
4.48045e-73
2.81268e-74
4.11272e-74
9.91348e-76
5.14559e-74
5.27053e-74
6.22673e-75
2.27018e-75
2.91502e-74
1.13877e-74
1.18696e-75
9.85422e-77
4.13671e-76
5.70573e-76
2.23824e-77
2.72816e-80
2.97183e-78
3.18959e-79
5.1952e-81
2.70607e-85
9.28837e-87
1.35757e-88
2.96039e-91
5.41028e-92
5.80786e-92
5.17563e-92
3.98686e-92
2.68858e-92
1.59426e-92
8.09722e-93
8.10191e-93
1.52575e-92
2.91991e-89
6.3154e-86
1.12547e-82
5.10535e-80
1.32606e-78
3.35673e-78
2.89856e-78
1.2591e-78
1.4988e-83
4.05386e-89
1.88457e-93
3.71747e-95
3.69926e-95
5.4929e-94
1.63265e-92
8.18148e-91
6.80476e-90
2.17793e-89
3.62497e-89
3.22306e-89
1.67159e-89
4.64508e-90
1.27345e-89
6.19526e-87
1.14229e-82
-1.10062e-74
7.2419e-98
1.49159e-78
5.07448e-78
2.74715e-78
2.59748e-77
3.62592e-76
2.82322e-76
1.52921e-76
-5.5217e-70
0
5.58215e-76
1.87026e-76
1.7539e-75
1.64577e-75
1.29758e-76
7.47384e-76
6.38075e-76
3.53814e-77
4.19088e-77
3.60504e-77
2.13549e-76
2.16779e-78
1.75286e-77
1.11694e-78
1.57053e-78
3.62191e-80
1.92192e-78
1.98886e-78
2.29632e-79
8.51465e-80
1.06375e-78
4.02976e-79
3.97436e-80
3.17488e-81
1.25988e-80
1.65822e-80
6.01224e-82
7.87746e-85
6.60916e-83
6.17181e-84
8.48561e-86
3.09649e-90
7.13857e-92
6.44939e-94
7.25638e-97
1.16445e-97
1.16348e-97
9.5537e-98
6.71376e-98
4.1638e-98
4.29838e-98
1.11651e-95
4.37838e-92
1.50112e-88
3.82953e-85
7.29298e-82
1.29357e-78
5.64088e-76
1.38452e-74
3.44095e-74
2.971e-74
1.30128e-74
1.61144e-79
4.64196e-85
2.29152e-89
8.34453e-94
3.5288e-98
6.92959e-99
6.9259e-99
3.71561e-97
5.39546e-96
2.37598e-95
5.49516e-95
6.18125e-95
3.38161e-95
1.0002e-95
4.88444e-95
5.15505e-92
1.47331e-87
-8.40673e-79
0
3.23022e-83
1.23556e-82
7.2923e-83
7.30428e-82
1.09228e-80
8.96085e-81
4.9162e-81
-5.45494e-73
-5.98488e-77
1.09199e-99
7.24158e-81
6.46268e-80
5.89119e-80
-1.53778e-77
1.52336e-80
2.46326e-80
1.37688e-81
1.57941e-81
1.31567e-81
8.84274e-81
9.14026e-83
7.45663e-82
4.85473e-83
6.52047e-83
1.45259e-84
7.8363e-83
8.22539e-83
9.26097e-84
3.54652e-84
4.28623e-83
1.57961e-83
1.47253e-84
1.13679e-85
4.28245e-85
5.41801e-85
1.82649e-86
2.47384e-89
1.68448e-87
1.38152e-88
1.63394e-90
4.35119e-95
6.74854e-97
3.65229e-99
2.22698e-102
2.76077e-103
2.55773e-103
2.5592e-103
1.05217e-102
5.46038e-99
3.08876e-95
1.38763e-91
5.19727e-88
1.61316e-84
4.00828e-81
7.46643e-78
1.33115e-74
5.56488e-72
1.28428e-70
3.12801e-70
2.70147e-70
1.19155e-70
1.54183e-75
4.74604e-81
2.54965e-85
1.02421e-89
3.92328e-94
1.68728e-98
3.92364e-102
2.82434e-102
4.48498e-102
2.5818e-101
7.88222e-101
1.2166e-100