/*--------------------------------*- C++ -*----------------------------------*\
| =========                 |                                                 |
| \\      /  F ield         | OpenFOAM: The Open Source CFD Toolbox           |
|  \\    /   O peration     | Version:  2412                                  |
|   \\  /    A nd           | Website:  www.openfoam.com                      |
|    \\/     M anipulation  |                                                 |
\*---------------------------------------------------------------------------*/
FoamFile
{
    version     2.0;
    format      ascii;
    arch        "LSB;label=32;scalar=64";
    class       volScalarField;
    location    "9.4";
    object      p_rgh;
}
// * * * * * * * * * * * * * * * * * * * * * * * * * * * * * * * * * * * * * //

dimensions      [1 -1 -2 0 0 0 0];

internalField   nonuniform List<scalar> 
6400
(
12411.8
12411.8
12411.8
12411.9
12412
12412.2
12412.4
12412.6
12412.9
12413.2
12413.5
12413.8
12414.1
12414.4
12414.8
12415.1
12415.5
12415.8
12416.1
12416.4
12416.6
12416.7
12416.7
12416.7
12416.4
12416.1
12415.5
12414.7
12413.8
12412.7
12411.3
12409.9
12408.4
12406.8
12405.2
12403.8
12402.6
12401.6
12400.9
12400.6
12400.6
12401.1
12401.8
12402.9
12404.2
12405.7
12407.3
12408.9
12410.4
12411.8
12413.1
12414.2
12415.1
12415.9
12416.4
12416.7
12416.9
12417
12417
12416.8
12416.6
12416.3
12416
12415.7
12415.4
12415
12414.7
12414.4
12414.1
12413.8
12413.5
12413.2
12412.9
12412.7
12412.5
12412.3
12412.2
12412.1
12412.1
12412.1
12411.8
12411.8
12411.8
12411.9
12412
12412.2
12412.4
12412.6
12412.8
12413.1
12413.4
12413.7
12414
12414.3
12414.6
12414.9
12415.2
12415.5
12415.8
12416
12416.2
12416.3
12416.3
12416.2
12416
12415.6
12415.1
12414.4
12413.5
12412.4
12411.2
12409.9
12408.6
12407.2
12405.8
12404.6
12403.5
12402.6
12402
12401.7
12401.8
12402.2
12402.8
12403.8
12404.9
12406.2
12407.6
12409
12410.4
12411.7
12412.9
12413.9
12414.7
12415.4
12415.9
12416.3
12416.5
12416.6
12416.6
12416.5
12416.3
12416.1
12415.8
12415.5
12415.2
12414.9
12414.6
12414.2
12413.9
12413.7
12413.4
12413.1
12412.9
12412.7
12412.5
12412.3
12412.2
12412.1
12412.1
12412.1
12411.8
12411.7
12411.8
12411.9
12412
12412.1
12412.3
12412.5
12412.7
12413
12413.2
12413.5
12413.8
12414.1
12414.4
12414.7
12415
12415.3
12415.5
12415.7
12415.9
12416
12416
12415.8
12415.6
12415.2
12414.7
12414.1
12413.3
12412.3
12411.2
12410.1
12408.8
12407.6
12406.4
12405.3
12404.3
12403.5
12403
12402.8
12402.8
12403.2
12403.8
12404.6
12405.6
12406.7
12408
12409.2
12410.5
12411.6
12412.7
12413.6
12414.4
12415.1
12415.6
12415.9
12416.1
12416.2
12416.2
12416.1
12416
12415.8
12415.5
12415.3
12415
12414.7
12414.4
12414.1
12413.8
12413.5
12413.3
12413
12412.8
12412.6
12412.4
12412.3
12412.1
12412.1
12412
12412
12411.7
12411.7
12411.7
12411.8
12411.9
12412
12412.2
12412.4
12412.6
12412.9
12413.1
12413.4
12413.7
12414
12414.3
12414.5
12414.8
12415.1
12415.3
12415.5
12415.7
12415.7
12415.7
12415.6
12415.4
12415
12414.6
12413.9
12413.2
12412.3
12411.3
12410.2
12409.1
12407.9
12406.8
12405.8
12404.9
12404.2
12403.7
12403.5
12403.5
12403.8
12404.4
12405.1
12406.1
12407.2
12408.3
12409.5
12410.6
12411.7
12412.7
12413.6
12414.3
12414.9
12415.3
12415.7
12415.9
12416
12416
12415.9
12415.8
12415.6
12415.3
12415.1
12414.8
12414.5
12414.2
12413.9
12413.7
12413.4
12413.2
12412.9
12412.7
12412.5
12412.3
12412.2
12412.1
12412
12412
12412
12411.6
12411.5
12411.6
12411.7
12411.8
12411.9
12412.1
12412.3
12412.5
12412.7
12413
12413.2
12413.5
12413.8
12414.1
12414.4
12414.7
12414.9
12415.1
12415.3
12415.5
12415.6
12415.6
12415.5
12415.3
12415
12414.5
12414
12413.3
12412.4
12411.5
12410.4
12409.3
12408.2
12407.1
12406.1
12405.3
12404.6
12404.1
12403.9
12403.9
12404.2
12404.8
12405.5
12406.4
12407.5
12408.6
12409.7
12410.8
12411.9
12412.8
12413.6
12414.3
12414.9
12415.3
12415.6
12415.8
12415.8
12415.8
12415.7
12415.6
12415.4
12415.2
12414.9
12414.6
12414.4
12414.1
12413.8
12413.5
12413.3
12413
12412.8
12412.6
12412.4
12412.2
12412.1
12412
12411.9
12411.8
12411.8
12411.4
12411.4
12411.5
12411.5
12411.7
12411.8
12412
12412.2
12412.4
12412.6
12412.8
12413.1
12413.3
12413.6
12413.9
12414.2
12414.5
12414.8
12415
12415.2
12415.4
12415.5
12415.5
12415.5
12415.3
12415
12414.6
12414.1
12413.4
12412.6
12411.7
12410.7
12409.6
12408.5
12407.4
12406.4
12405.5
12404.8
12404.3
12404.1
12404.1
12404.4
12405
12405.7
12406.7
12407.7
12408.9
12410
12411.1
12412.1
12413
12413.8
12414.4
12414.9
12415.3
12415.6
12415.7
12415.8
12415.7
12415.6
12415.5
12415.3
12415
12414.7
12414.5
12414.2
12413.9
12413.6
12413.4
12413.1
12412.9
12412.6
12412.4
12412.3
12412.1
12411.9
12411.8
12411.7
12411.7
12411.6
12411.2
12411.2
12411.3
12411.4
12411.5
12411.7
12411.8
12412
12412.2
12412.4
12412.6
12412.9
12413.2
12413.5
12413.8
12414.1
12414.3
12414.6
12414.9
12415.1
12415.3
12415.5
12415.6
12415.6
12415.4
12415.2
12414.9
12414.4
12413.8
12413
12412.1
12411
12409.9
12408.7
12407.6
12406.5
12405.5
12404.7
12404.2
12404
12404
12404.4
12405
12405.8
12406.8
12408
12409.1
12410.3
12411.5
12412.5
12413.4
12414.1
12414.7
12415.2
12415.5
12415.7
12415.8
12415.8
12415.7
12415.6
12415.4
12415.2
12414.9
12414.6
12414.3
12414
12413.7
12413.4
12413.2
12412.9
12412.7
12412.5
12412.3
12412.1
12411.9
12411.8
12411.7
12411.6
12411.5
12411.4
12410.9
12411
12411.1
12411.2
12411.3
12411.5
12411.6
12411.8
12412
12412.2
12412.5
12412.7
12413
12413.3
12413.6
12413.9
12414.2
12414.5
12414.8
12415.1
12415.4
12415.6
12415.7
12415.7
12415.7
12415.5
12415.2
12414.8
12414.2
12413.4
12412.5
12411.4
12410.2
12409
12407.7
12406.4
12405.3
12404.5
12403.9
12403.6
12403.6
12404
12404.7
12405.7
12406.8
12408.1
12409.4
12410.7
12411.9
12413
12413.9
12414.6
12415.2
12415.6
12415.8
12416
12416
12415.9
12415.8
12415.6
12415.4
12415.1
12414.8
12414.5
12414.2
12413.8
12413.5
12413.3
12413
12412.7
12412.5
12412.3
12412.1
12411.9
12411.7
12411.6
12411.5
12411.4
12411.2
12411.2
12410.7
12410.8
12410.9
12411
12411.1
12411.3
12411.4
12411.6
12411.8
12412
12412.3
12412.5
12412.8
12413.1
12413.4
12413.8
12414.1
12414.5
12414.8
12415.1
12415.4
12415.7
12415.9
12416
12416.1
12416
12415.8
12415.4
12414.8
12414.1
12413.1
12412
12410.6
12409.2
12407.7
12406.3
12405
12403.9
12403.2
12402.8
12402.9
12403.4
12404.2
12405.4
12406.7
12408.2
12409.7
12411.1
12412.4
12413.6
12414.5
12415.2
12415.7
12416.1
12416.3
12416.3
12416.3
12416.1
12415.9
12415.7
12415.4
12415
12414.7
12414.4
12414
12413.7
12413.4
12413.1
12412.8
12412.5
12412.3
12412.1
12411.9
12411.7
12411.6
12411.4
12411.3
12411.2
12411
12410.9
12410.4
12410.5
12410.7
12410.8
12411
12411.1
12411.2
12411.4
12411.6
12411.8
12412
12412.3
12412.6
12412.9
12413.3
12413.6
12414
12414.4
12414.8
12415.2
12415.6
12415.9
12416.2
12416.4
12416.6
12416.6
12416.5
12416.2
12415.7
12414.9
12413.9
12412.7
12411.2
12409.5
12407.7
12405.9
12404.3
12403
12402.1
12401.6
12401.7
12402.3
12403.4
12404.8
12406.4
12408.2
12410
12411.6
12413.1
12414.3
12415.3
12416
12416.5
12416.7
12416.8
12416.8
12416.6
12416.4
12416.1
12415.8
12415.4
12415
12414.6
12414.3
12413.9
12413.5
12413.2
12412.9
12412.6
12412.3
12412.1
12411.9
12411.7
12411.5
12411.4
12411.3
12411.1
12411
12410.8
12410.7
12410.2
12410.3
12410.5
12410.6
12410.8
12410.9
12411
12411.2
12411.4
12411.6
12411.8
12412.1
12412.4
12412.7
12413.1
12413.5
12413.9
12414.3
12414.8
12415.3
12415.7
12416.2
12416.6
12416.9
12417.2
12417.3
12417.3
12417.2
12416.7
12416
12415
12413.6
12411.9
12409.9
12407.7
12405.4
12403.4
12401.6
12400.5
12399.9
12400
12400.7
12402.1
12403.9
12406
12408.2
12410.3
12412.3
12413.9
12415.3
12416.3
12416.9
12417.3
12417.5
12417.5
12417.3
12417.1
12416.7
12416.3
12415.9
12415.5
12415
12414.6
12414.1
12413.7
12413.3
12413
12412.7
12412.4
12412.1
12411.9
12411.7
12411.5
12411.4
12411.2
12411.1
12410.9
12410.8
12410.6
12410.5
12410
12410.1
12410.3
12410.4
12410.6
12410.7
12410.8
12410.9
12411.1
12411.2
12411.5
12411.7
12412
12412.4
12412.8
12413.2
12413.7
12414.2
12414.7
12415.3
12415.9
12416.4
12417
12417.5
12417.9
12418.2
12418.4
12418.4
12418.1
12417.4
12416.4
12414.9
12412.9
12410.4
12407.6
12404.8
12402.2
12400
12398.4
12397.6
12397.8
12398.8
12400.5
12402.9
12405.6
12408.4
12411
12413.3
12415.2
12416.6
12417.6
12418.2
12418.5
12418.5
12418.3
12418
12417.5
12417.1
12416.5
12416
12415.5
12414.9
12414.4
12413.9
12413.5
12413.1
12412.7
12412.4
12412.1
12411.8
12411.6
12411.4
12411.3
12411.1
12411
12410.9
12410.8
12410.6
12410.4
12410.2
12409.8
12410
12410.1
12410.3
12410.3
12410.4
12410.5
12410.5
12410.7
12410.8
12411
12411.3
12411.6
12412
12412.4
12412.9
12413.4
12414
12414.6
12415.2
12415.9
12416.6
12417.3
12418
12418.6
12419.2
12419.6
12419.8
12419.7
12419.2
12418.2
12416.6
12414.2
12411.3
12407.8
12404.2
12400.7
12397.9
12395.8
12394.8
12395
12396.3
12398.6
12401.8
12405.3
12408.9
12412.2
12415
12417.1
12418.5
12419.4
12419.8
12419.9
12419.6
12419.2
12418.7
12418.1
12417.4
12416.7
12416
12415.4
12414.8
12414.2
12413.6
12413.1
12412.7
12412.3
12411.9
12411.6
12411.4
12411.2
12411
12410.9
12410.8
12410.7
12410.6
12410.6
12410.4
12410.3
12410
12409.7
12409.9
12410
12410.1
12410.1
12410.1
12410.1
12410.1
12410.2
12410.3
12410.4
12410.7
12411
12411.4
12411.8
12412.3
12412.9
12413.5
12414.2
12415
12415.8
12416.6
12417.5
12418.4
12419.3
12420.1
12420.9
12421.4
12421.7
12421.4
12420.6
12418.9
12416.3
12412.6
12408.3
12403.6
12399.2
12395.4
12392.8
12391.4
12391.6
12393.3
12396.3
12400.5
12405.3
12410
12414.3
12417.6
12419.9
12421.2
12421.9
12422
12421.7
12421.1
12420.3
12419.4
12418.6
12417.7
12416.8
12416
12415.2
12414.5
12413.8
12413.1
12412.6
12412.1
12411.6
12411.3
12411
12410.7
12410.6
12410.4
12410.4
12410.3
12410.3
12410.3
12410.3
12410.2
12410.1
12409.9
12409.6
12409.9
12410
12410
12410
12409.9
12409.8
12409.7
12409.7
12409.7
12409.8
12410
12410.3
12410.7
12411.2
12411.7
12412.4
12413.1
12413.9
12414.7
12415.7
12416.7
12417.7
12418.9
12420.1
12421.2
12422.4
12423.4
12424.1
12424.3
12423.7
12422.2
12419.2
12414.7
12409.1
12403
12397.1
12392.3
12388.8
12386.9
12387
12389
12393.1
12398.6
12405.1
12411.6
12417.1
12421.2
12423.6
12424.8
12425
12424.6
12423.8
12422.7
12421.6
12420.3
12419.1
12418
12416.9
12415.9
12415
12414.1
12413.3
12412.6
12412
12411.4
12411
12410.6
12410.3
12410
12409.9
12409.8
12409.8
12409.9
12409.9
12410
12410.1
12410.1
12409.9
12409.8
12409.8
12410
12410.1
12410
12409.9
12409.8
12409.6
12409.5
12409.4
12409.4
12409.5
12409.7
12410
12410.4
12411
12411.5
12412.2
12413
12413.9
12414.9
12416
12417.1
12418.4
12419.8
12421.2
12422.8
12424.4
12425.9
12427.1
12427.9
12428
12426.7
12423.3
12417.8
12410.3
12401.9
12393.9
12387.3
12382.7
12380.1
12379.9
12382.4
12387.6
12395.1
12403.9
12412.9
12420.3
12425.4
12428.1
12428.9
12428.5
12427.5
12426.1
12424.6
12423
12421.4
12419.9
12418.6
12417.3
12416.2
12415.1
12414.2
12413.3
12412.5
12411.8
12411.2
12410.7
12410.3
12410
12409.8
12409.6
12409.6
12409.6
12409.7
12409.9
12410
12410.2
12410.2
12410.1
12409.9
12410.1
12410.5
12410.3
12410.2
12410
12409.8
12409.6
12409.4
12409.4
12409.4
12409.5
12409.7
12410.1
12410.5
12411.1
12411.8
12412.5
12413.4
12414.4
12415.5
12416.7
12418
12419.4
12421
12422.8
12424.7
12426.8
12428.9
12431
12432.7
12433.7
12433.1
12429.5
12422
12411.3
12398.9
12387.3
12378
12372.1
12368.8
12368.6
12372
12379
12389.2
12401.5
12414
12424.1
12430.5
12433.2
12433.3
12432.1
12430.3
12428.3
12426.3
12424.3
12422.5
12420.8
12419.3
12417.9
12416.7
12415.6
12414.6
12413.6
12412.8
12412.1
12411.4
12410.9
12410.5
12410.1
12409.9
12409.8
12409.8
12409.9
12410
12410.2
12410.5
12410.7
12410.8
12410.7
12410.5
12410.8
12411.2
12410.8
12410.4
12410
12409.7
12409.4
12409.2
12409.1
12409.1
12409.2
12409.5
12409.9
12410.4
12411
12411.8
12412.6
12413.6
12414.6
12415.8
12417.2
12418.6
12420.3
12422.1
12424.2
12426.6
12429.4
12432.4
12435.7
12439
12442.2
12443.8
12440.3
12429.4
12412.9
12393.1
12376
12363.5
12356
12351.9
12351.9
12356.7
12366.2
12380.1
12398
12417.2
12432.2
12440.8
12442.6
12440.5
12437.4
12434.2
12431.1
12428.3
12425.7
12423.5
12421.5
12419.8
12418.4
12417.1
12415.9
12414.8
12413.8
12412.9
12412.1
12411.4
12410.8
12410.3
12410
12409.7
12409.6
12409.7
12409.8
12410.1
12410.4
12410.8
12411.1
12411.4
12411.5
12411.2
12411.8
12412.1
12411.5
12410.7
12409.9
12409.2
12408.6
12408.1
12407.8
12407.7
12407.7
12408
12408.3
12408.9
12409.5
12410.3
12411.2
12412.2
12413.4
12414.7
12416.2
12417.8
12419.6
12421.7
12424.1
12427.2
12430.9
12435.2
12440.2
12446
12453.3
12460.3
12459.2
12445.5
12421.5
12393.2
12369.8
12354
12346.1
12340.9
12340.8
12346.8
12358
12375.7
12399.8
12429
12450
12459.8
12458.3
12450.8
12444.1
12438.8
12434.2
12430.2
12426.7
12423.7
12421.3
12419.3
12417.7
12416.3
12414.9
12413.7
12412.5
12411.5
12410.6
12409.9
12409.2
12408.7
12408.4
12408.2
12408.1
12408.2
12408.5
12409
12409.6
12410.3
12411
12411.7
12412.3
12412.1
12344.9
12204.9
12101
12016.5
11950.9
11901.4
11864.7
11838.1
11819.7
11807.7
11800.8
11797.8
11797.9
11800.3
11804.3
11809.4
11815.1
11820.8
11826.4
11831.8
11837
11842.2
11847.6
11853.9
11861.9
11871.8
11883.7
11896
11906.3
11910.8
11896.6
11835
11716
11344.5
10053.2
8572.47
7468.76
6657.28
6378.36
6152.99
6151.76
6406.07
6883.74
7730.22
8865.14
10551.6
11522.7
11731.9
11844.7
11896
11905
11900.3
11891.4
11881.1
11871.6
11863.4
11856.5
11851.1
11847
11843.4
11839.5
11835
11830
11824.6
11819.3
11814.4
11810.4
11808.1
11808
11810.9
11817.8
11829.7
11848
11874.4
11910.9
11959.9
12024.8
12108.2
12210.4
12347.6
1271.99
1544.38
1676.4
1739.96
1768.75
1780.32
1783.75
1783.68
1782.19
1780.41
1778.98
1778.18
1778.23
1779.28
1781.44
1784.95
1790.1
1796.98
1805.6
1815.85
1827.66
1840.88
1855.11
1870.12
1886.02
1903.93
1924.6
1948.67
1975.96
2008
2039.46
2041.61
2062.13
2005.72
1692.93
1745.86
1780.33
1792.15
1800.06
1802.25
1801.59
1798.16
1791.75
1779.37
1727.38
1619.25
1901.41
2042.44
2061.02
2041.46
2008.68
1978.37
1950.87
1926.5
1903.81
1884.12
1867.49
1852.72
1839.5
1826.61
1814.84
1804.65
1796.2
1789.52
1784.56
1781.18
1779.25
1778.52
1778.82
1779.98
1781.76
1783.84
1785.56
1785.8
1782.46
1770.93
1742.04
1678.21
1545.87
1272.57
0.00193899
0.00173667
0.00163795
0.00147088
0.00123004
0.000902657
0.000472028
-0.000101986
-0.000764726
-0.00141619
-0.00212111
-0.00337674
-0.00295993
0.0170242
0.0904921
0.164638
0.14119
0.0599634
0.00379046
-0.0068299
-0.00591746
0.0160249
0.375467
0.929206
1.16688
1.26118
1.30435
1.54906
2.05056
3.0744
3.66626
4.25108
7.05659
495.333
3186.25
3577.71
3601.47
3617.43
3625.41
3623.7
3622.91
3623.02
3614.66
3598.32
3570.12
2675.86
194.726
5.0034
3.64415
3.27883
2.61091
1.52585
1.00955
0.922021
1.23497
1.61298
1.44875
1.17896
0.641732
0.11192
0.00883505
0.00626552
-0.00139758
0.00766935
0.0307961
0.039774
0.0380822
0.0294288
0.0141927
0.00398065
0.00280354
0.00347212
0.00364348
0.00380381
0.00421718
0.00459749
0.00489595
0.00511555
0.00524929
0.00547057
0.00168306
0.00161105
0.00148511
0.00129696
0.0010443
0.000723288
0.000332288
-0.000129107
-0.000645639
-0.00112718
-0.00155014
-0.00248617
-0.00384238
0.0135953
0.115157
0.175563
0.160898
0.0924499
0.021092
-0.00493361
-0.00552571
-0.0034182
0.330172
4.15375
4.95385
4.99278
2.08353
1.6395
2.71358
7.12432
7.78307
4.41281
4.67722
78.5887
928.185
1768.1
2339
2839.55
3178.1
2777.56
2778.98
3085.33
2790.24
2327.93
1672.68
680.344
11.7216
5.89636
6.10101
10.2337
9.92899
3.75882
0.988257
0.989512
4.04988
6.58186
6.56616
6.45606
2.97158
0.0110171
0.00724791
0.00798105
0.0057968
0.0173375
0.0289081
0.031039
0.0280785
0.0153576
0.00743138
0.00586577
0.00526457
0.00472533
0.00427985
0.00419369
0.00433139
0.00454797
0.00477134
0.0049568
0.00508709
0.00516933
0.00171958
0.00165773
0.00154836
0.00137681
0.00113218
0.000801305
0.00036942
-0.000190739
-0.000860606
-0.00153615
-0.00231331
-0.00348541
-0.00414268
0.0720364
0.253814
0.256552
0.253329
0.240752
0.0256912
-0.00645081
-0.0062746
-0.00706623
0.174715
3.56983
4.97135
5.04308
3.91236
1.57722
4.00909
34.5071
38.3992
38.4575
38.257
12.2725
0.011082
0.08228
0.0508889
0.0169627
0.00757424
0.0084275
0.00723996
0.00647326
0.00627755
0.00634393
0.00655289
-0.0527036
10.5704
40.3815
40.4953
40.4334
31.9907
2.08853
0.906009
3.7778
6.65429
6.6442
6.59676
5.91316
1.07575
0.00695721
0.00772852
0.00567469
0.055803
0.182583
0.198379
0.19671
0.190974
0.149007
0.0475891
0.0042831
0.00242653
0.00292596
0.00335962
0.00369382
0.00409875
0.00448851
0.00479765
0.0050286
0.00518121
0.00526862
0.00179059
0.00173886
0.00163315
0.00146652
0.00123239
0.000919775
0.000518947
5.23926e-07
-0.000638528
-0.00127971
-0.00195398
-0.00297222
-0.00417984
-0.0032943
0.116548
0.257496
0.237403
0.0447516
-0.00868963
-0.00703968
-0.00644215
-0.006952
-0.00736622
-0.00801564
0.457012
3.88757
4.78101
4.77612
2.72148
0.00606717
1.89859
4.54009
4.7898
1.16518
0.267943
1.14479
1.14164
0.18835
0.009065
0.00889061
0.00800575
0.0078399
0.00760611
0.00750058
0.00749254
0.00758106
2.71179
6.6747
5.14847
0.960271
0.129251
1.00384
2.22521
3.25506
4.2783
3.84377
1.5503
0.00519057
0.00569966
0.00726059
0.00882031
0.00707648
0.169336
0.202878
0.207168
0.207345
0.207231
0.206919
0.204968
0.0477385
0.00202873
0.00191937
0.00278861
0.00356422
0.00410596
0.00451463
0.00483984
0.00508182
0.00523764
0.0053138
0.00186065
0.00182243
0.00173114
0.00158469
0.00137621
0.00109424
0.000726106
0.000239352
-0.000366765
-0.00101255
-0.00178862
-0.00294117
-0.00401907
-0.00467841
-0.00627808
-0.00928993
-0.00479222
-0.00992401
-0.0087552
-0.00732588
-0.00629597
-0.00651614
-0.00828583
-0.0111795
-0.0117669
-0.00604243
0.000911055
0.00136166
0.00639299
0.00803959
0.00758601
0.00860141
0.00631705
0.00674098
0.159075
0.823825
0.902286
0.23704
0.00775511
0.00833401
0.00702468
0.00650286
0.00633832
0.0062888
0.00635666
0.00718886
0.00723201
0.00731647
0.00835499
0.00835437
0.00855795
0.393917
0.733777
0.371262
0.00753713
0.00699587
0.00191609
0.00306463
0.00525946
0.00758863
0.010926
0.0115272
0.0605674
0.185343
0.097907
0.053988
0.136884
0.207945
0.209439
0.0949015
0.000835625
0.00122388
0.00240306
0.00346705
0.00411194
0.00455541
0.00489155
0.0051307
0.00527956
0.00534058
0.00195051
0.0019194
0.00184379
0.00172313
0.00154989
0.00131361
0.00100178
0.000583165
4.01006e-05
-0.000575759
-0.00133266
-0.00251709
-0.00364514
-0.00487743
-0.00632297
-0.00827726
-0.0106992
-0.0114281
-0.0108318
-0.0102762
-0.00973576
-0.00938961
-0.00952077
-0.00966842
-0.00834006
-0.00484696
-0.000886006
0.00223696
0.00457433
0.00578841
0.00660978
0.00721626
0.00697166
0.00625491
0.00550389
0.00432746
0.00534046
0.008666
0.00924377
0.0078193
0.00698797
0.00681514
0.00699057
0.00690162
0.00683983
0.00747199
0.00794353
0.00822718
0.0086574
0.00858703
0.0096756
0.00898929
0.00480331
0.00279567
0.00293934
0.00372631
0.00389436
0.00390942
0.00467695
0.00596261
0.00824133
0.0109606
0.00437529
0.0032657
-0.00743651
-0.0142808
-0.0147451
0.0614453
0.182079
0.0672382
-0.000341815
0.000963058
0.00222132
0.00339678
0.00414043
0.00460368
0.00493038
0.00515594
0.00529447
0.0053473
0.00205075
0.00202488
0.00196683
0.00187525
0.00174345
0.00156339
0.00132493
0.00100016
0.000562948
7.3168e-05
-0.000445798
-0.00115258
-0.00240367
-0.00420993
-0.00658337
-0.00899835
-0.0115922
-0.0138777
-0.015508
-0.0164802
-0.0167363
-0.0163719
-0.0150106
-0.0128226
-0.00938361
-0.00514471
-0.00134137
0.00194015
0.00448078
0.00596854
0.00658622
0.00682458
0.0068208
0.00679402
0.00674365
0.0063154
0.00571506
0.0060273
0.00725378
0.00710117
0.00689392
0.00673216
0.00654856
0.00661615
0.00688731
0.0074159
0.00773663
0.00782342
0.00836411
0.00856257
0.00857097
0.00805698
0.00715648
0.0061399
0.00546318
0.00505229
0.00395758
0.00250615
0.00133559
0.000336174
-0.000702513
-0.00216683
-0.00740964
-0.015804
-0.0183344
-0.0165063
-0.0159609
-0.0150102
-0.0112093
0.0221789
0.00306027
0.00120697
0.00263277
0.00357966
0.00423516
0.00466832
0.00496006
0.00515811
0.00528038
0.00532897
0.00214744
0.00212942
0.00209085
0.00203024
0.00194297
0.0018236
0.00166511
0.00144333
0.00112389
0.000761638
0.00036716
-0.000174489
-0.00143386
-0.00346876
-0.00638002
-0.00984014
-0.0137584
-0.0175607
-0.0207855
-0.0228304
-0.0232935
-0.0221657
-0.0198653
-0.0162266
-0.0115466
-0.00662092
-0.00234601
0.00106366
0.00356054
0.0051744
0.00608657
0.00653801
0.00667258
0.0066113
0.00652353
0.00638517
0.00609461
0.00598371
0.00631013
0.00666532
0.00684331
0.00663793
0.00643781
0.00644391
0.00673431
0.00715971
0.00748973
0.00770424
0.00795568
0.00808366
0.00814235
0.00794226
0.00712133
0.0058164
0.0044923
0.0032153
0.00158796
-0.000773913
-0.00408456
-0.00836849
-0.0131768
-0.0179081
-0.0223646
-0.0254633
-0.0236025
-0.0193005
-0.0173131
-0.0157445
-0.0113644
0.00491683
0.0235179
0.00621362
0.00389908
0.00415894
0.00444635
0.0047652
0.00498731
0.00513892
0.00523526
0.00527626
0.00223294
0.00222414
0.00220524
0.00217548
0.00213237
0.00207269
0.00199219
0.0018734
0.00168372
0.00145599
0.00120812
0.00096925
-0.000294246
-0.00291943
-0.00666166
-0.0115328
-0.01729
-0.0233229
-0.0289883
-0.0332462
-0.0349333
-0.0334757
-0.029225
-0.0228819
-0.0157204
-0.00907375
-0.00377272
0.000111255
0.002816
0.00456325
0.0055996
0.00619333
0.00651793
0.00665406
0.00661799
0.00638022
0.00597136
0.00569303
0.00576814
0.00626054
0.00665468
0.00646173
0.0062406
0.00621676
0.00643429
0.00673455
0.00696437
0.00711671
0.00726265
0.00732722
0.00724693
0.00690346
0.00615893
0.00499486
0.00352003
0.00169836
-0.000961554
-0.00546042
-0.0127456
-0.0227106
-0.0333273
-0.0414951
-0.0453231
-0.0436413
-0.0364546
-0.0267846
-0.0189963
-0.0133382
-0.00840898
0.0129805
0.0338265
0.0207729
0.00431811
0.00471114
0.00469721
0.00485546
0.00499325
0.0050884
0.00515223
0.0051806
0.00230173
0.00230146
0.00230048
0.00229906
0.00229633
0.00229103
0.0022813
0.00225812
0.00219767
0.0021079
0.00202082
0.00206882
0.000821921
-0.00258181
-0.0076341
-0.0143474
-0.0226251
-0.0311978
-0.0406736
-0.0489483
-0.0535297
-0.0519281
-0.0449849
-0.0348604
-0.0233914
-0.0133611
-0.00597983
-0.0011904
0.00188382
0.00385915
0.00505766
0.00577113
0.00619048
0.00642408
0.0064997
0.00639948
0.00613109
0.00573458
0.00561241
0.00591682
0.00636684
0.00623958
0.00601008
0.00594697
0.00608064
0.00626335
0.00640513
0.00649475
0.00653755
0.00649038
0.00629153
0.00584758
0.00502028
0.00369129
0.00180272
-0.000843202
-0.00509075
-0.0127411
-0.0257828
-0.0438101
-0.0621686
-0.0747909
-0.078224
-0.0715995
-0.0569243
-0.0386458
-0.0220163
-0.0101144
-0.00272935
0.00147379
0.0370254
0.0155435
0.00426184
0.00496996
0.00482099
0.00487102
0.00494074
0.00498654
0.00502054
0.00503569
0.00234773
0.00235455
0.00236853
0.00239082
0.00242174
0.00246164
0.0025105
0.00256579
0.00261111
0.00263853
0.00267921
0.00290194
0.00173101
-0.00245705
-0.00903112
-0.018058
-0.0290576
-0.0437133
-0.0596366
-0.0731312
-0.0804844
-0.0769694
-0.0655843
-0.0495998
-0.0343028
-0.0200418
-0.00916207
-0.00270522
0.000903343
0.00314871
0.00449949
0.0053139
0.00580007
0.00608242
0.00621277
0.00618031
0.00597156
0.00566376
0.0054429
0.00557505
0.00598772
0.00595174
0.00573151
0.00566302
0.00570806
0.00577964
0.00582408
0.00582272
0.00575907
0.00559123
0.00525445
0.00465218
0.00364043
0.00206104
-0.000254382
-0.00373885
-0.0096876
-0.0211006
-0.0408601
-0.0676261
-0.0939887
-0.111054
-0.11426
-0.102778
-0.0799003
-0.0521984
-0.0264399
-0.00742256
0.00348329
0.00910005
0.0315977
0.0215078
0.00459387
0.00513704
0.00484511
0.0047922
0.00480706
0.00481712
0.00482981
0.00483512
0.00236665
0.00237869
0.00240376
0.00244351
0.00249893
0.00257128
0.00266117
0.00276852
0.00288006
0.00297399
0.00308541
0.00319478
0.00209464
-0.00259562
-0.0106431
-0.0224425
-0.0375646
-0.0582634
-0.0807743
-0.10052
-0.110896
-0.108795
-0.0914783
-0.0659615
-0.042175
-0.0232578
-0.0131397
-0.00432393
-4.32392e-05
0.00244783
0.00393144
0.00481478
0.00534554
0.00565653
0.00582646
0.00586699
0.0057492
0.00552292
0.00529098
0.00528156
0.0055912
0.00560283
0.00542048
0.0053464
0.00531855
0.00529586
0.00525134
0.00516168
0.00499714
0.00471284
0.00424437
0.00349307
0.00230196
0.000475532
-0.00223568
-0.0064551
-0.0138299
-0.0284214
-0.0535793
-0.087098
-0.119084
-0.139185
-0.142419
-0.127738
-0.0986899
-0.0636508
-0.0307723
-0.00586959
0.00930849
0.00979946
0.125255
0.0505759
0.00400898
0.00505312
0.00470204
0.00459557
0.0045786
0.00457145
0.00457443
0.00457538
0.00235718
0.00237219
0.00240383
0.00245388
0.00252331
0.00261335
0.0027239
0.00285332
0.00298893
0.00309469
0.00318531
0.00314973
0.00191883
-0.00276008
-0.0120393
-0.0260251
-0.0455384
-0.0698899
-0.0975719
-0.121587
-0.13294
-0.130226
-0.110029
-0.080183
-0.0507849
-0.0262002
-0.0103399
-0.00577132
-0.000733725
0.00182674
0.00338208
0.00429727
0.00485398
0.00518277
0.00537162
0.00545601
0.00541698
0.00527611
0.00508404
0.00501345
0.00518973
0.00523086
0.00507442
0.00499214
0.00491312
0.00481812
0.00469922
0.00452976
0.00427499
0.00388969
0.00331008
0.0024376
0.00111235
-0.000874748
-0.0038144
-0.0083851
-0.0163302
-0.0320267
-0.0592984
-0.0954792
-0.129521
-0.150533
-0.153922
-0.13832
-0.107032
-0.0690888
-0.0333771
-0.00498558
0.0106754
0.0592173
0.146454
0.0853151
0.00365482
0.0044783
0.00428922
0.00424528
0.00424458
0.00424863
0.00425705
0.00426083
0.00232052
0.00233602
0.00236973
0.00242294
0.00249606
0.00258942
0.00270132
0.00282646
0.00294969
0.00303113
0.00303914
0.0028913
0.00181243
-0.00254724
-0.0100455
-0.0241873
-0.0477189
-0.0750449
-0.10409
-0.127939
-0.139573
-0.136157
-0.114938
-0.0887067
-0.0594317
-0.0275303
-0.00900419
-0.00485942
-0.00105373
0.00132775
0.00286047
0.00377529
0.00433744
0.00468115
0.00488761
0.0050052
0.00502891
0.00496296
0.00480977
0.004733
0.0048093
0.00483627
0.00470988
0.00461373
0.00449857
0.00435258
0.00417641
0.00394189
0.00361492
0.0031521
0.00249291
0.00154433
0.000154857
-0.00187673
-0.00484049
-0.00930364
-0.0167153
-0.0310707
-0.0565907
-0.0909931
-0.123582
-0.14365
-0.146905
-0.132102
-0.102516
-0.0663118
-0.0330201
-0.00413659
0.0106589
0.14821
0.148222
0.0665681
0.00267138
0.00353153
0.00365426
0.003755
0.00382032
0.00386308
0.00389158
0.00390622
0.00225974
0.00227306
0.00230504
0.0023552
0.00242318
0.00250805
0.00260579
0.00270773
0.00279406
0.00282419
0.00275533
0.00247297
0.00143183
-0.00186322
-0.00824233
-0.0199765
-0.0399939
-0.0688523
-0.097135
-0.118939
-0.129407
-0.126167
-0.10951
-0.0844308
-0.0550699
-0.0239946
-0.00734422
-0.00380703
-0.00109056
0.00103906
0.0023898
0.00326681
0.00381009
0.00416549
0.00438946
0.00453226
0.00460122
0.00459516
0.00448899
0.00442191
0.00444184
0.00443704
0.00433906
0.00422838
0.00408707
0.00390737
0.00369008
0.00340722
0.00302867
0.00251397
0.00180805
0.000829798
-0.000555964
-0.00253388
-0.00536336
-0.00939325
-0.0154289
-0.0269287
-0.0472224
-0.0753961
-0.103184
-0.120784
-0.123663
-0.110925
-0.0857953
-0.0557785
-0.0298144
-0.00441699
0.137168
0.148108
0.121342
0.0116191
0.00158812
0.0025259
0.00295504
0.00320444
0.00335423
0.00344691
0.00350222
0.00353519
0.00217956
0.00218704
0.00221501
0.00225726
0.00231346
0.00238164
0.00245493
0.00252226
0.00255965
0.00251685
0.00240339
0.00203451
0.00109455
-0.00126202
-0.00766529
-0.01437
-0.0316964
-0.0524826
-0.0750947
-0.0928608
-0.102609
-0.102721
-0.0895194
-0.0686095
-0.0401784
-0.0171202
-0.00376928
-0.00403775
-0.0010123
0.00081442
0.00195415
0.00275928
0.00329189
0.00365249
0.00389377
0.00405719
0.00415906
0.00419724
0.0041373
0.00408715
0.00407889
0.00405338
0.00396946
0.00384989
0.00369057
0.00348997
0.0032456
0.00293096
0.00252093
0.00197934
0.00125739
0.000288982
-0.00104282
-0.00287768
-0.00544147
-0.00884928
-0.0136636
-0.0216567
-0.0350703
-0.054021
-0.0739116
-0.08726
-0.0893205
-0.079386
-0.0607425
-0.0400352
-0.0241056
0.0290953
0.137231
0.118616
0.0118824
-0.00080937
0.000738041
0.00174917
0.00233625
0.00268321
0.00290136
0.00303833
0.00311492
0.00317612
0.00208558
0.00208167
0.00210535
0.00213653
0.0021761
0.00222364
0.0022671
0.00229594
0.00228887
0.00220791
0.00200606
0.00157876
0.000726099
-0.000919654
-0.00506615
-0.0123214
-0.0209394
-0.0357618
-0.0517129
-0.0646184
-0.0710427
-0.0689818
-0.0636802
-0.047721
-0.0228444
-0.00944729
-0.00192171
-0.00385231
-0.000930737
0.000556221
0.00153247
0.00226926
0.00278659
0.00315193
0.00340981
0.00359257
0.00371928
0.00378859
0.0037703
0.00374107
0.0037229
0.00368676
0.00361258
0.00348734
0.00331755
0.00310581
0.00284617
0.0025149
0.00209119
0.00154443
0.000832985
-8.74892e-05
-0.00131564
-0.00297228
-0.00519626
-0.00808836
-0.0119196
-0.0173371
-0.0250944
-0.0354186
-0.0461699
-0.053365
-0.0536909
-0.0471803
-0.0359704
-0.0242747
-0.0129836
0.0154906
0.0145486
0.00215309
-0.0022402
-0.00108464
0.000273163
0.00124536
0.00185192
0.00224055
0.0024988
0.00266571
0.00275254
0.00285172
0.00197633
0.00196568
0.00198288
0.0020013
0.0020239
0.00204548
0.00205742
0.00204702
0.00199434
0.00186651
0.00161447
0.00115612
0.000384284
-0.000855244
-0.0032903
-0.0082276
-0.0158613
-0.0245424
-0.031876
-0.0407435
-0.0454496
-0.0445153
-0.0356827
-0.0213472
-0.0114432
-0.00300172
-0.000883946
-0.00328371
-0.000989302
0.000233844
0.0011101
0.00179704
0.00230309
0.00267456
0.00294769
0.00314818
0.00329409
0.00338625
0.00340223
0.00339589
0.00337867
0.00334039
0.00327365
0.00314628
0.00297283
0.00275759
0.00249257
0.0021577
0.00173597
0.00120389
0.00052816
-0.000331564
-0.00143821
-0.00287795
-0.00475361
-0.00716655
-0.0102519
-0.0141981
-0.0190764
-0.0243665
-0.0287614
-0.0311953
-0.03026
-0.0263601
-0.0200211
-0.01425
-0.0105555
-0.00999122
-0.00670089
-0.00427978
-0.0027303
-0.00124086
4.56669e-05
0.000910145
0.00149441
0.00189417
0.00216401
0.00234537
0.00244041
0.00255805
0.00185648
0.00184373
0.00185154
0.00185723
0.00186183
0.00185901
0.00184037
0.00179321
0.00169881
0.00152905
0.00124284
0.000778018
6.29092e-05
-0.000976282
-0.00259222
-0.00540531
-0.00979794
-0.0154774
-0.0211059
-0.0255402
-0.024385
-0.0176716
-0.0148419
-0.00966455
-0.00387716
0.00134758
-0.00224378
-0.00291736
-0.00120291
-0.000130984
0.000696479
0.00135228
0.0018515
0.00222959
0.00251561
0.00273096
0.00289183
0.00300117
0.00304449
0.00306106
0.00305065
0.00301669
0.00295522
0.00282959
0.00265826
0.00244578
0.00218395
0.00185707
0.00145119
0.00094591
0.000317036
-0.000466813
-0.00144656
-0.00267457