/*--------------------------------*- C++ -*----------------------------------*\
| =========                 |                                                 |
| \\      /  F ield         | OpenFOAM: The Open Source CFD Toolbox           |
|  \\    /   O peration     | Version:  2412                                  |
|   \\  /    A nd           | Website:  www.openfoam.com                      |
|    \\/     M anipulation  |                                                 |
\*---------------------------------------------------------------------------*/
FoamFile
{
    version     2.0;
    format      ascii;
    arch        "LSB;label=32;scalar=64";
    class       surfaceScalarField;
    location    "3.8";
    object      phi;
}
// * * * * * * * * * * * * * * * * * * * * * * * * * * * * * * * * * * * * * //

dimensions      [0 3 -1 0 0 0 0];

oriented        oriented;

internalField   nonuniform List<scalar> 
12640
(
1.72803e-08
-1.72534e-08
4.57144e-08
-2.86104e-08
6.8803e-08
-2.33482e-08
7.72255e-08
-8.69744e-09
6.72309e-08
9.72905e-09
3.82656e-08
2.87105e-08
-8.40405e-09
4.64273e-08
-7.05693e-08
6.19404e-08
-1.4565e-07
7.48788e-08
-2.31052e-07
8.52249e-08
-3.24371e-07
9.31683e-08
-4.23496e-07
9.89987e-08
-5.26634e-07
1.03034e-07
-6.32281e-07
1.05564e-07
-7.39168e-07
1.06818e-07
-8.46163e-07
1.06939e-07
-9.52191e-07
1.0598e-07
-1.05612e-06
1.03888e-07
-1.1567e-06
1.00539e-07
-1.25246e-06
9.57164e-08
-1.3417e-06
8.91923e-08
-1.42244e-06
8.06852e-08
-1.49249e-06
6.99975e-08
-1.54947e-06
5.6928e-08
-1.59101e-06
4.14768e-08
-1.61473e-06
2.36704e-08
-1.61863e-06
3.84903e-09
-1.60101e-06
-1.76527e-08
-1.56091e-06
-4.01183e-08
-1.49792e-06
-6.29701e-08
-1.41262e-06
-8.52503e-08
-1.30616e-06
-1.06378e-07
-1.18059e-06
-1.2544e-07
-1.03824e-06
-1.42177e-07
-8.82033e-07
-1.56005e-07
-7.14614e-07
-1.67184e-07
-5.38858e-07
-1.75506e-07
-3.56972e-07
-1.81626e-07
-1.71274e-07
-1.85452e-07
1.66055e-08
-1.87653e-07
2.0468e-07
-1.87896e-07
3.91366e-07
-1.86556e-07
5.74363e-07
-1.82943e-07
7.51519e-07
-1.7717e-07
9.1986e-07
-1.68445e-07
1.07663e-06
-1.56942e-07
1.21854e-06
-1.42176e-07
1.34293e-06
-1.24702e-07
1.44711e-06
-1.04565e-07
1.52942e-06
-8.27239e-08
1.58862e-06
-5.96482e-08
1.62461e-06
-3.64456e-08
1.63784e-06
-1.36816e-08
1.62969e-06
7.71881e-09
1.60192e-06
2.73606e-08
1.55686e-06
4.47025e-08
1.49686e-06
5.96704e-08
1.42447e-06
7.21198e-08
1.342e-06
8.22363e-08
1.25168e-06
9.01449e-08
1.15538e-06
9.61614e-08
1.05475e-06
1.00523e-07
9.51153e-07
1.03523e-07
8.45753e-07
1.05341e-07
7.39577e-07
1.06126e-07
6.33626e-07
1.05905e-07
5.28941e-07
1.04637e-07
4.26726e-07
1.02164e-07
3.2841e-07
9.82555e-08
2.35733e-07
9.26083e-08
1.50754e-07
8.49001e-08
7.58356e-08
7.48288e-08
1.35439e-08
6.21944e-08
-3.35522e-08
4.69944e-08
-6.32282e-08
2.95742e-08
-7.41579e-08
1.0832e-08
-6.67816e-08
-7.46766e-09
-4.46715e-08
-2.21935e-08
-1.69155e-08
-2.78338e-08
-1.70482e-08
2.87777e-08
-4.64794e-08
6.86735e-08
-6.90979e-08
8.92062e-08
-4.43984e-08
7.31589e-08
6.8662e-09
1.25464e-08
6.98934e-08
-9.42998e-08
1.35138e-07
-2.45e-07
1.9674e-07
-4.34831e-07
2.51419e-07
-6.57952e-07
2.97688e-07
-9.08242e-07
3.3525e-07
-1.17982e-06
3.64537e-07
-1.46735e-06
3.86366e-07
-1.76609e-06
4.01684e-07
-2.07194e-06
4.11377e-07
-2.38122e-06
4.16141e-07
-2.69055e-06
4.16396e-07
-2.99662e-06
4.12245e-07
-3.29592e-06
4.03466e-07
-3.58457e-06
3.89548e-07
-3.85816e-06
3.69746e-07
-4.11164e-06
3.43174e-07
-4.33933e-06
3.08931e-07
-4.53496e-06
2.66215e-07
-4.69192e-06
2.14502e-07
-4.80347e-06
1.53631e-07
-4.86322e-06
8.40116e-08
-4.86543e-06
6.58266e-09
-4.80564e-06
-7.69932e-08
-4.68081e-06
-1.64598e-07
-4.49005e-06
-2.53497e-07
-4.2343e-06
-3.40907e-07
-3.91691e-06
-4.23808e-07
-3.54276e-06
-4.99786e-07
-3.11862e-06
-5.66632e-07
-2.65179e-06
-6.2331e-07
-2.15042e-06
-6.6911e-07
-1.62201e-06
-7.04583e-07
-1.07419e-06
-7.30151e-07
-5.13354e-07
-7.47063e-07
5.39139e-08
-7.55681e-07
6.21945e-07
-7.56702e-07
1.18416e-06
-7.49484e-07
1.73423e-06
-7.33709e-07
2.26439e-06
-7.07931e-07
2.76694e-06
-6.71551e-07
3.23305e-06
-6.23498e-07
3.65464e-06
-5.64153e-07
4.0236e-06
-4.93944e-07
4.33367e-06
-4.1487e-07
4.57979e-06
-3.28981e-07
4.75949e-06
-2.39436e-07
4.87205e-06
-1.49039e-07
4.91936e-06
-6.09815e-08
4.9048e-06
2.23324e-08
4.8336e-06
9.86285e-08
4.71179e-06
1.6661e-07
4.54619e-06
2.25362e-07
4.34361e-06
2.74807e-07
4.11078e-06
3.15169e-07
3.85382e-06
3.47187e-07
3.57834e-06
3.71709e-07
3.28915e-06
3.89769e-07
2.99042e-06
4.02264e-07
2.68578e-06
4.09977e-07
2.37848e-06
4.13392e-07
2.0716e-06
4.12724e-07
1.76831e-06
4.07838e-07
1.47207e-06
3.98297e-07
1.18682e-06
3.83373e-07
9.17117e-07
3.62153e-07
6.68189e-07
3.33653e-07
4.458e-07
2.97019e-07
2.56003e-07
2.51768e-07
1.04613e-07
1.98131e-07
-3.60549e-09
1.37503e-07
-6.61486e-08
7.30433e-08
-8.44494e-08
1.04562e-08
-6.61517e-08
-4.08854e-08
-2.79373e-08
-6.6331e-08
-4.51719e-08
2.41605e-08
-7.09333e-08
4.53021e-08
-9.09202e-08
3.00699e-08
-2.97428e-08
-4.09535e-08
7.73289e-08
-1.76908e-07
2.05298e-07
-3.79533e-07
3.37224e-07
-6.45495e-07
4.62183e-07
-9.68336e-07
5.73771e-07
-1.33999e-06
6.68886e-07
-1.75185e-06
7.46706e-07
-2.19553e-06
8.07851e-07
-2.66322e-06
8.5374e-07
-3.14789e-06
8.86073e-07
-3.6432e-06
9.06461e-07
-4.14339e-06
9.16147e-07
-4.64298e-06
9.15845e-07
-5.13648e-06
9.0563e-07
-5.61804e-06
8.84955e-07
-6.08121e-06
8.52677e-07
-6.5187e-06
8.07221e-07
-6.92225e-06
7.4673e-07
-7.28262e-06
6.69345e-07
-7.5898e-06
5.73445e-07
-7.83319e-06
4.57978e-07
-8.00218e-06
3.22728e-07
-8.08661e-06
1.68568e-07
-8.07753e-06
-2.34541e-09
-7.96776e-06
-1.8658e-07
-7.75273e-06
-3.79411e-07
-7.43072e-06
-5.75252e-07
-7.0035e-06
-7.6783e-07
-6.47591e-06
-9.51066e-07
-5.85609e-06
-1.11924e-06
-5.15422e-06
-1.2681e-06
-4.38251e-06
-1.39458e-06
-3.55342e-06
-1.49775e-06
-2.67987e-06
-1.57767e-06
-1.77355e-06
-1.63601e-06
-8.46006e-07
-1.67417e-06
9.26686e-08
-1.69395e-06
1.03185e-06
-1.69554e-06
1.96154e-06
-1.67889e-06
2.87009e-06
-1.64207e-06
3.74577e-06
-1.58351e-06
4.57502e-06
-1.50079e-06
5.34461e-06
-1.39317e-06
6.04068e-06
-1.26041e-06
6.6513e-06
-1.10481e-06
7.16577e-06
-9.29657e-07
7.5769e-06
-7.40477e-07
7.88017e-06
-5.43109e-07
8.07513e-06
-3.44413e-07
8.16419e-06
-1.50452e-07
8.15314e-06
3.29682e-08
8.0498e-06
2.01573e-07
7.86398e-06
3.52064e-07
7.60616e-06
4.82834e-07
7.28736e-06
5.93297e-07
6.91811e-06
6.84126e-07
6.50845e-06
7.56595e-07
6.06731e-06
8.12609e-07
5.6027e-06
8.54161e-07
5.12151e-06
8.83241e-07
4.62983e-06
9.01443e-07
4.13311e-06
9.09907e-07
3.63647e-06
9.09138e-07
3.14506e-06
8.99015e-07
2.66433e-06
8.78772e-07
2.20032e-06
8.47109e-07
1.75984e-06
8.02349e-07
1.35046e-06
7.42721e-07
9.80442e-07
6.66723e-07
6.58254e-07
5.73629e-07
3.91928e-07
4.64124e-07
1.87965e-07
3.41131e-07
4.98516e-08
2.10819e-07
-2.38644e-08
8.38274e-08
-4.1889e-08
-2.32128e-08
-2.29387e-08
-8.55876e-08
-6.83488e-08
1.00748e-08
-8.12535e-08
-5.81351e-09
-7.58305e-08
-7.83312e-08
4.21142e-08
-2.25573e-07
2.23928e-07
-4.55503e-07
4.34581e-07
-7.68583e-07
6.49651e-07
-1.15998e-06
8.52938e-07
-1.62154e-06
1.0347e-06
-2.14332e-06
1.19007e-06
-2.7148e-06
1.31762e-06
-3.32567e-06
1.41819e-06
-3.96625e-06
1.49384e-06
-4.6277e-06
1.54709e-06
-5.30191e-06
1.5803e-06
-5.98136e-06
1.59527e-06
-6.65871e-06
1.59292e-06
-7.32651e-06
1.57319e-06
-7.9767e-06
1.53496e-06
-8.60043e-06
1.47625e-06
-9.18762e-06
1.3943e-06
-9.72698e-06
1.28602e-06
-1.02059e-05
1.14825e-06
-1.06109e-05
9.78374e-07
-1.09275e-05
7.74657e-07
-1.11416e-05
5.36864e-07
-1.12395e-05
2.66574e-07
-1.12092e-05
-3.24647e-08
-1.10413e-05
-3.54271e-07
-1.07297e-05
-6.90802e-07
-1.02723e-05
-1.0323e-06
-9.67163e-06
-1.36814e-06
-8.93468e-06
-1.68756e-06
-8.07241e-06
-1.98097e-06
-7.09937e-06
-2.24051e-06
-6.03189e-06
-2.46137e-06
-4.88766e-06
-2.6412e-06
-3.68365e-06
-2.78085e-06
-2.43643e-06
-2.88234e-06
-1.16063e-06
-2.94907e-06
1.29435e-07
-2.98311e-06
1.4207e-06
-2.98594e-06
2.6989e-06
-2.95625e-06
3.94958e-06
-2.892e-06
5.15589e-06
-2.78916e-06
6.3005e-06
-2.64485e-06
7.3643e-06
-2.45654e-06
8.32928e-06
-2.22509e-06
9.17806e-06
-1.95339e-06
9.89676e-06
-1.64829e-06
1.04746e-05
-1.31833e-06
1.0906e-05
-9.74587e-07
1.11894e-05
-6.2802e-07
1.13286e-05
-2.89834e-07
1.13306e-05
3.06512e-08
1.12064e-05
3.25515e-07
1.09686e-05
5.89544e-07
1.06316e-05
8.19488e-07
1.02099e-05
1.01458e-06
9.71811e-06
1.17559e-06
9.16954e-06
1.30481e-06
8.57656e-06
1.40523e-06
7.95006e-06
1.48031e-06
7.29963e-06
1.53331e-06
6.63366e-06
1.56705e-06
5.95968e-06
1.58352e-06
5.28465e-06
1.58378e-06
4.61548e-06
1.56779e-06
3.95927e-06
1.53456e-06
3.32377e-06
1.48218e-06
2.71748e-06
1.40818e-06
2.14982e-06
1.30992e-06
1.63087e-06
1.18519e-06
1.171e-06
1.033e-06
7.80063e-07
8.54556e-07
4.6626e-07
6.54433e-07
2.34555e-07
4.42024e-07
8.47887e-08
2.33094e-07
9.46819e-09
5.16009e-08
-8.71131e-09
-6.78957e-08
-7.73923e-08
-8.71632e-09
-7.28564e-08
-7.25452e-08
-1.30069e-08
-2.16409e-07
1.85147e-07
-4.54662e-07
4.61376e-07
-7.92296e-07
7.71394e-07
-1.22722e-06
1.08373e-06
-1.75233e-06
1.3772e-06
-2.35743e-06
1.63895e-06
-3.03073e-06
1.86253e-06
-3.76e-06
2.04609e-06
-4.53337e-06
2.1908e-06
-5.33974e-06
2.29948e-06
-6.16887e-06
2.37553e-06
-7.01129e-06
2.4221e-06
-7.85804e-06
2.44145e-06
-8.70025e-06
2.43463e-06
-9.52872e-06
2.40121e-06
-1.03335e-05
2.33935e-06
-1.11034e-05
2.24582e-06
-1.18258e-05
2.11648e-06
-1.24866e-05
1.94658e-06
-1.30699e-05
1.73151e-06
-1.35589e-05
1.46728e-06
-1.39357e-05
1.1515e-06
-1.41826e-05
7.83844e-07
-1.42828e-05
3.66893e-07
-1.42214e-05
-9.36088e-08
-1.39869e-05
-5.8845e-07
-1.35719e-05
-1.10528e-06
-1.29745e-05
-1.62918e-06
-1.21983e-05
-2.1437e-06
-1.12526e-05
-2.63242e-06
-1.01524e-05
-3.0803e-06
-8.91625e-06
-3.47562e-06
-7.56588e-06
-3.81058e-06
-6.12336e-06
-4.08245e-06
-4.61061e-06
-4.29223e-06
-3.04713e-06
-4.44438e-06
-1.45104e-06
-4.54365e-06
1.62078e-07
-4.5947e-06
1.77649e-06
-4.59882e-06
3.37692e-06
-4.5552e-06
4.94545e-06
-4.45912e-06
6.46291e-06
-4.30531e-06
7.90675e-06
-4.0875e-06
9.25394e-06
-3.8027e-06
1.04803e-05
-3.45056e-06
1.15642e-05
-3.03659e-06
1.24866e-05
-2.57009e-06
1.3234e-05
-2.06532e-06
1.3798e-05
-1.53828e-06
1.4177e-05
-1.00678e-06
1.43744e-05
-4.87187e-07
1.43995e-05
5.47844e-09
1.42652e-05
4.59728e-07
1.39876e-05
8.67014e-07
1.35841e-05
1.22275e-06
1.30731e-05
1.52526e-06
1.24724e-05
1.7759e-06
1.1799e-05
1.9778e-06
1.10682e-05
2.13555e-06
1.02939e-05
2.2542e-06
9.48787e-06
2.33877e-06
8.66085e-06
2.39351e-06
7.82216e-06
2.42163e-06
6.98044e-06
2.4249e-06
6.14397e-06
2.40362e-06
5.32125e-06
2.35662e-06
4.52129e-06
2.28146e-06
3.75392e-06
2.17485e-06
3.02991e-06
2.0332e-06
2.36088e-06
1.85349e-06
1.75881e-06
1.63432e-06
1.2354e-06
1.37722e-06
8.0082e-07
1.08827e-06
4.62283e-07
7.79822e-07
2.22157e-07
4.72489e-07
7.59155e-08
1.97093e-07
1.00104e-08
-2.77144e-09
-6.78537e-08
-2.9718e-08
-4.3537e-08
-1.47809e-07
1.03869e-07
-3.72182e-07
4.08503e-07
-7.11825e-07
8.00037e-07
-1.1673e-06
1.22586e-06
-1.73277e-06
1.64815e-06
-2.39802e-06
2.04139e-06
-3.1503e-06
2.39014e-06
-3.97575e-06
2.68689e-06
-4.86053e-06
2.92978e-06
-5.79141e-06
3.12063e-06
-6.75616e-06
3.2632e-06
-7.74353e-06
3.36191e-06
-8.74303e-06
3.42067e-06
-9.74463e-06
3.44218e-06
-1.07382e-05
3.42743e-06
-1.17132e-05
3.37546e-06
-1.26578e-05
3.28332e-06
-1.35589e-05
3.14639e-06
-1.44016e-05
2.95865e-06
-1.51689e-05
2.71353e-06
-1.58421e-05
2.40447e-06
-1.64011e-05
2.02612e-06
-1.68248e-05
1.57507e-06
-1.7092e-05
1.05114e-06
-1.71829e-05
4.57973e-07
-1.70802e-05
-1.96087e-07
-1.67702e-05
-8.97997e-07
-1.62448e-05
-1.63004e-06
-1.55023e-05
-2.37091e-06
-1.4548e-05
-3.09704e-06
-1.33947e-05
-3.7847e-06
-1.20612e-05
-4.41248e-06
-1.05719e-05
-4.96339e-06
-8.95381e-06
-5.42706e-06
-7.23455e-06
-5.79988e-06
-5.4397e-06
-6.08511e-06
-3.59222e-06
-6.28974e-06
-1.71078e-06
-6.42288e-06
1.87927e-07
-6.49112e-06
2.08942e-06
-6.49802e-06
3.97747e-06
-6.44096e-06
5.8344e-06
-6.31383e-06
7.63774e-06
-6.10653e-06
9.36239e-06
-5.81017e-06
1.09792e-05
-5.41773e-06
1.24594e-05
-4.92914e-06
1.37745e-05
-4.35028e-06
1.49011e-05
-3.69549e-06
1.58208e-05
-2.98396e-06
1.65231e-05
-2.23979e-06
1.70045e-05
-1.48751e-06
1.72692e-05
-7.51471e-07
1.73274e-05
-5.23268e-08
1.71944e-05
5.92865e-07
1.6889e-05
1.17251e-06
1.64321e-05
1.67952e-06
1.58454e-05
2.11183e-06
1.51501e-05
2.47087e-06
1.43663e-05
2.76119e-06
1.35123e-05
2.98896e-06
1.26046e-05
3.16136e-06
1.16574e-05
3.28532e-06
1.06831e-05
3.36701e-06
9.69286e-06
3.41107e-06
8.69657e-06
3.42034e-06
7.7037e-06
3.39558e-06
6.72372e-06
3.33565e-06
5.7666e-06
3.23761e-06
4.84311e-06
3.09732e-06
3.96512e-06
2.91016e-06
3.1455e-06
2.67207e-06
2.39784e-06
2.38092e-06
1.73582e-06
2.03819e-06
1.17211e-06
1.65091e-06
7.16986e-07
1.2339e-06
3.76498e-07
8.11944e-07
1.50513e-07
4.22014e-07
3.07951e-08
1.15795e-07
-3.76996e-08
-5.17567e-08
7.72726e-09
-2.28e-07
2.787e-07
-5.39269e-07
7.18566e-07
-9.88074e-07
1.24768e-06
-1.56929e-06
1.80587e-06
-2.27219e-06
2.3498e-06
-3.08255e-06
2.85046e-06
-3.9845e-06
3.29078e-06
-4.96186e-06
3.66292e-06
-5.99909e-06
3.96567e-06
-7.0818e-06
4.20199e-06
-8.19688e-06
4.37695e-06
-9.33236e-06
4.49609e-06
-1.04771e-05
4.56417e-06
-1.16203e-05
4.58421e-06
-1.2751e-05
4.55701e-06
-1.38573e-05
4.48077e-06
-1.49262e-05
4.35127e-06
-1.59427e-05
4.16199e-06
-1.68896e-05
3.90489e-06
-1.77477e-05
3.57101e-06
-1.84955e-05
3.15178e-06
-1.91096e-05
2.63996e-06
-1.95661e-05
2.03131e-06
-1.98404e-05
1.32551e-06
-1.99101e-05
5.27756e-07
-1.9755e-05
-3.50807e-07
-1.93602e-05
-1.29229e-06
-1.87167e-05
-2.2728e-06
-1.78236e-05
-3.26309e-06
-1.66885e-05
-4.23098e-06
-1.53279e-05
-5.14383e-06
-1.37665e-05
-5.97216e-06
-1.20349e-05
-6.6931e-06
-1.01668e-05
-7.29294e-06
-8.19545e-06
-7.76881e-06
-6.15102e-06
-8.12689e-06
-4.05762e-06
-8.38033e-06
-1.93425e-06
-8.54326e-06
2.05501e-07
-8.6278e-06
2.34911e-06
-8.63849e-06
4.48414e-06
-8.57284e-06
6.59303e-06
-8.41962e-06
8.65374e-06
-8.16425e-06
1.06368e-05
-7.79038e-06
1.25091e-05
-7.28741e-06
1.4234e-05
-6.65165e-06
1.57773e-05
-5.89148e-06
1.71082e-05
-5.0245e-06
1.82041e-05
-4.07829e-06
1.90503e-05
-3.08466e-06
1.96423e-05
-2.07838e-06
1.99834e-05
-1.09172e-06
2.00855e-05
-1.53701e-07
1.99655e-05
7.13315e-07
1.96453e-05
1.49298e-06
1.91488e-05
2.17622e-06
1.85008e-05
2.75971e-06
1.77259e-05
3.24561e-06
1.68471e-05
3.63957e-06
1.58855e-05
3.95001e-06
1.48599e-05
4.18627e-06
1.37866e-05
4.3578e-06
1.26798e-05
4.47286e-06
1.15519e-05
4.53796e-06
1.0414e-05
4.55721e-06
9.27625e-06
4.53216e-06
8.14891e-06
4.46177e-06
7.04251e-06
4.34273e-06
5.96851e-06
4.17001e-06
4.93956e-06
3.93776e-06
3.96968e-06
3.64058e-06
3.07408e-06
3.27514e-06
2.26869e-06
2.84219e-06
1.56925e-06
2.34898e-06
9.89932e-07
1.81185e-06
5.41605e-07
1.25891e-06
2.29756e-07
7.3247e-07
5.25164e-08
2.91501e-07
1.40374e-08
-7.44888e-08
8.16165e-08
-3.11968e-07
5.1461e-07
-7.15565e-07
1.12081e-06
-1.28035e-06
1.81117e-06
-1.99426e-06
2.51845e-06
-2.84054e-06
3.19468e-06
-3.80006e-06
3.80854e-06
-4.85321e-06
4.34247e-06
-5.98122e-06
4.78945e-06
-7.16686e-06
5.1498e-06
-8.3947e-06
5.4283e-06
-9.65099e-06
5.63171e-06
-1.09234e-05
5.76699e-06
-1.22005e-05
5.83972e-06
-1.34709e-05
5.85324e-06
-1.47231e-05
5.80788e-06
-1.59445e-05
5.70088e-06
-1.71206e-05
5.52624e-06
-1.82351e-05
5.27543e-06
-1.92689e-05
4.93778e-06
-2.02006e-05
4.50188e-06
-2.1006e-05
3.95653e-06
-2.16592e-05
3.29271e-06
-2.21329e-05
2.50479e-06
-2.24002e-05
1.59276e-06
-2.24355e-05
5.63117e-07
-2.22166e-05
-5.69297e-07
-2.17269e-05
-1.78144e-06
-2.09572e-05
-3.04169e-06
-1.99073e-05
-4.31179e-06
-1.85881e-05
-5.54883e-06
-1.70207e-05
-6.70945e-06
-1.52366e-05
-7.75426e-06
-1.32743e-05
-8.65306e-06
-1.11756e-05
-9.38909e-06
-8.98068e-06
-9.96075e-06
-6.72354e-06
-1.03808e-05
-4.42967e-06
-1.06708e-05
-2.1146e-06
-1.08547e-05
2.12386e-07
-1.0951e-05
2.54625e-06
-1.09685e-05
4.87926e-06
-1.0902e-05
7.19912e-06
-1.07357e-05
9.48327e-06
-1.04447e-05
1.1701e-05
-1.00046e-05
1.38121e-05
-9.39517e-06
1.57734e-05
-8.61e-06
1.75411e-05
-7.65645e-06
1.90778e-05
-6.55877e-06
2.03535e-05
-5.35198e-06
2.13504e-05
-4.0799e-06
2.20609e-05
-2.78746e-06
2.24888e-05
-1.51843e-06
2.26459e-05
-3.09957e-07
2.25521e-05
8.0787e-07
2.2231e-05
1.8145e-06
2.171e-05
2.69755e-06
2.10166e-05
3.45312e-06
2.01786e-05
4.08347e-06
1.92216e-05
4.59617e-06
1.81694e-05
5.00167e-06
1.70428e-05
5.31216e-06
1.586e-05
5.53971e-06
1.46367e-05
5.69521e-06
1.33862e-05
5.78725e-06
1.21206e-05
5.82162e-06
1.08506e-05
5.80083e-06
9.58671e-06
5.72419e-06
8.3399e-06
5.58806e-06
7.1219e-06
5.38647e-06
5.94595e-06
5.11214e-06
4.82704e-06
4.75789e-06
3.78204e-06
4.31853e-06
2.8294e-06
3.79321e-06
1.98847e-06
3.18829e-06
1.27823e-06
2.52049e-06
7.15479e-07
1.82007e-06
3.12548e-07
1.13377e-06
7.48555e-08
5.27394e-07
8.80949e-08
-9.81359e-08
1.79057e-07
-4.00431e-07
8.15268e-07
-9.02401e-07
1.62136e-06
-1.59051e-06
2.49794e-06
-2.44433e-06
3.3709e-06
-3.43981e-06
4.18872e-06
-4.55196e-06
4.91924e-06
-5.75697e-06
5.54602e-06
-7.03325e-06
6.06428e-06
-8.36194e-06
6.47702e-06
-9.72677e-06
6.79164e-06
-1.11137e-05
7.01717e-06
-1.25104e-05
7.16214e-06
-1.39053e-05
7.2331e-06
-1.5287e-05
7.23349e-06
-1.66436e-05
7.16311e-06
-1.79617e-05
7.01776e-06
-1.92263e-05
6.78962e-06
-2.04194e-05
6.46751e-06
-2.15207e-05
6.03811e-06
-2.25065e-05
5.48686e-06
-2.33507e-05
4.80006e-06
-2.40246e-05
3.96619e-06
-2.44987e-05
2.97863e-06
-2.4743e-05
1.83705e-06
-2.47298e-05
5.5007e-07
-2.44347e-05
-8.64041e-07
-2.38398e-05
-2.37572e-06
-2.29354e-05
-3.94516e-06
-2.1723e-05
-5.52294e-06
-2.02164e-05
-7.05393e-06
-1.84427e-05
-8.48129e-06
-1.64412e-05
-9.75356e-06
-1.42603e-05
-1.08314e-05
-1.19519e-05
-1.16946e-05
-9.56453e-06
-1.2345e-05
-7.13703e-06
-1.28049e-05
-4.69381e-06
-1.31103e-05
-2.24592e-06
-1.32987e-05
2.07351e-07
-1.34002e-05
2.67037e-06
-1.34274e-05
5.14666e-06
-1.33741e-05
7.62958e-06
-1.32144e-05
1.01008e-05
-1.29119e-05
1.25259e-05
-1.24258e-05
1.48595e-05
-1.17252e-05
1.70475e-05
-1.07946e-05
1.90369e-05
-9.64286e-06
2.07795e-05
-8.29879e-06
2.22395e-05
-6.80982e-06
2.33931e-05
-5.23163e-06
2.4231e-05
-3.62396e-06
2.47557e-05
-2.04193e-06
2.49806e-05
-5.34045e-07
2.49266e-05
8.62505e-07
2.46205e-05
2.12101e-06
2.40917e-05
3.22662e-06
2.3371e-05
4.17384e-06
2.24884e-05
4.96594e-06
2.14724e-05
5.61189e-06
2.03485e-05
6.12497e-06
1.91398e-05
6.52018e-06
1.78659e-05
6.81279e-06
1.65436e-05
7.01648e-06
1.51873e-05
7.1424e-06
1.38095e-05
7.19822e-06
1.24212e-05
7.18776e-06
1.10331e-05
7.11084e-06
9.65609e-06
6.96359e-06
8.30194e-06
6.73908e-06
6.98416e-06
6.42834e-06
5.71853e-06
6.02192e-06
4.52346e-06
5.51197e-06
3.42014e-06
4.89491e-06
2.43204e-06
4.17478e-06
1.58383e-06
3.36708e-06
8.99515e-07
2.50279e-06
3.99639e-07
1.63202e-06
9.80571e-08
8.27163e-07
1.85519e-07
-1.23378e-07
3.01687e-07
-4.95714e-07
1.18603e-06
-1.10415e-06
2.22845e-06
-1.92479e-06
3.31735e-06
-2.92697e-06
4.37184e-06
-4.07786e-06
5.33832e-06
-5.34578e-06
6.18585e-06
-6.70225e-06
6.90122e-06
-8.12291e-06
7.48372e-06
-9.5875e-06
7.94041e-06
-1.10793e-05
8.28226e-06
-1.25844e-05
8.52103e-06
-1.40906e-05
8.66715e-06
-1.55867e-05
8.72803e-06
-1.70616e-05
8.70719e-06
-1.85031e-05
8.6035e-06
-1.98977e-05
8.41128e-06
-2.12293e-05
8.12029e-06
-2.24793e-05
7.7167e-06
-2.36258e-05
7.18387e-06
-2.46437e-05
6.50426e-06
-2.5505e-05
5.66087e-06
-2.61792e-05
4.6401e-06
-2.66342e-05
3.43352e-06
-2.68383e-05
2.04123e-06
-2.67612e-05
4.73254e-07
-2.63772e-05
-1.24753e-06
-2.56669e-05
-3.08535e-06
-2.46207e-05
-4.99039e-06
-2.3241e-05
-6.90145e-06
-2.15452e-05
-8.7482e-06
-1.95664e-05
-1.04582e-05
-1.73535e-05
-1.19643e-05
-1.49667e-05
-1.32158e-05
-1.24708e-05
-1.41878e-05
-9.92482e-06
-1.48878e-05
-7.37275e-06
-1.53536e-05
-4.83792e-06
-1.56415e-05
-2.32199e-06
-1.58109e-05
1.88051e-07
-1.59064e-05
2.71339e-06
-1.59488e-05
5.27068e-06
-1.59274e-05
7.86559e-06
-1.58054e-05
1.0483e-05
-1.55254e-05
1.3088e-05
-1.50271e-05
1.56256e-05
-1.42592e-05
1.80312e-05
-1.3197e-05
2.02373e-05
-1.18461e-05
2.21862e-05
-1.02452e-05
2.38324e-05
-8.45382e-06
2.51481e-05
-6.54566e-06
2.61206e-05
-4.5952e-06
2.67527e-05
-2.67318e-06
2.7058e-05
-8.38703e-07
2.70595e-05
8.61312e-07
2.67856e-05
2.3951e-06
2.62685e-05
3.74381e-06
2.55408e-05
4.90146e-06
2.46351e-05
5.87145e-06
2.35815e-05
6.66508e-06
2.24078e-05
7.29813e-06
2.11383e-05
7.78906e-06
1.9794e-05
8.15632e-06
1.83927e-05
8.41693e-06
1.69494e-05
8.58474e-06
1.54768e-05
8.66971e-06
1.39863e-05
8.67718e-06
1.24882e-05
8.60775e-06
1.0993e-05
8.45747e-06
9.51237e-06
8.21843e-06
8.05962e-06
7.87977e-06
6.65094e-06
7.42925e-06
5.30611e-06
6.85544e-06
4.04899e-06
6.15067e-06
2.90754e-06
5.31487e-06
1.91305e-06
4.36023e-06
1.09813e-06
3.3164e-06
4.9338e-07
2.23542e-06
1.22825e-07
1.1962e-06
3.08024e-07
-1.51373e-07
4.52334e-07
-6.01833e-07
1.63513e-06
-1.32832e-06
2.95382e-06
-2.29375e-06
4.2818e-06
-3.45466e-06
5.53181e-06
-4.76776e-06
6.65042e-06
-6.19388e-06
7.61093e-06
-7.69984e-06
8.40619e-06
-9.25882e-06
9.0418e-06
-1.08497e-05
9.53047e-06
-1.24558e-05
9.88763e-06
-1.40639e-05
1.01283e-05
-1.56623e-05
1.02649e-05
-1.72406e-05
1.03056e-05
-1.87879e-05
1.02538e-05
-2.02923e-05
1.01072e-05
-2.17399e-05
9.85825e-06
-2.31144e-05
9.49423e-06
-2.43962e-05
8.99807e-06
-2.55627e-05
8.35001e-06
-2.65875e-05
7.5288e-06
-2.74414e-05
6.5146e-06
-2.80922e-05
5.29089e-06
-2.85067e-05
3.84818e-06
-2.86513e-05
2.18607e-06
-2.84948e-05
3.17077e-07
-2.80095e-05
-1.73224e-06
-2.71757e-05
-3.91842e-06
-2.5983e-05
-6.1822e-06
-2.44351e-05
-8.44824e-06
-2.25517e-05
-1.06302e-05
-2.03726e-05
-1.26357e-05
-1.79562e-05
-1.43788e-05
-1.53773e-05
-1.57924e-05
-1.27166e-05
-1.6846e-05
-1.00471e-05
-1.75547e-05
-7.41953e-06
-1.79783e-05
-4.85376e-06
-1.82042e-05
-2.34015e-06
-1.83213e-05
1.53769e-07
-1.8397e-05
2.66881e-06
-1.84605e-05
5.24282e-06
-1.84982e-05
7.89433e-06
-1.84537e-05
1.06169e-05
-1.82448e-05
1.33719e-05
-1.77789e-05
1.60958e-05
-1.69801e-05
1.87068e-05
-1.58052e-05
2.11237e-05
-1.42604e-05
2.32741e-05
-1.23932e-05
2.51055e-05
-1.02833e-05
2.65842e-05
-8.02272e-06
2.76968e-05
-5.70663e-06
2.84448e-05
-3.42041e-06
2.88434e-05
-1.23705e-06
2.89165e-05
7.88353e-07
2.86945e-05
2.61704e-06
2.82106e-05
4.22758e-06
2.74996e-05
5.61224e-06
2.65951e-05
6.77565e-06
2.55291e-05
7.73068e-06
2.43304e-05
8.49636e-06
2.30246e-05
9.09432e-06
2.16336e-05
9.54677e-06
2.01758e-05
9.87399e-06
1.86668e-05
1.0093e-05
1.71196e-05
1.02162e-05
1.55451e-05
1.02508e-05
1.39536e-05
1.01985e-05
1.23549e-05
1.00553e-05
1.07599e-05
9.81257e-06
9.18139e-06
9.4574e-06
7.63542e-06
8.97431e-06
6.14259e-06
8.34736e-06
4.7291e-06
7.56324e-06
3.42752e-06
6.61555e-06
2.27646e-06
5.51041e-06
1.31884e-06
4.27317e-06
5.97811e-07
2.95557e-06
1.50344e-07
1.64263e-06
4.58319e-07
-1.83954e-07
6.35669e-07
-7.24997e-07
2.17514e-06
-1.58619e-06
3.81421e-06
-2.71276e-06
5.40772e-06
-4.04492e-06
6.86346e-06
-5.52711e-06
8.13206e-06
-7.11229e-06
9.19546e-06
-8.76305e-06
1.00563e-05
-1.0451e-05
1.07292e-05
-1.2155e-05
1.1234e-05
-1.38594e-05
1.15916e-05
-1.55519e-05
1.18205e-05
-1.72222e-05
1.19349e-05
-1.88605e-05
1.19436e-05
-2.04566e-05
1.18495e-05
-2.19986e-05
1.1649e-05
-2.34729e-05
1.13322e-05
-2.48625e-05
1.08837e-05
-2.61479e-05
1.02833e-05
-2.73054e-05
9.50743e-06
-2.83084e-05
8.5318e-06
-2.91267e-05
7.33295e-06
-2.9728e-05
5.89229e-06
-3.0078e-05
4.19836e-06
-3.01431e-05
2.25144e-06
-2.9891e-05
6.53473e-08
-2.92945e-05
-2.32828e-06
-2.83325e-05
-4.87983e-06
-2.6995e-05
-7.51901e-06
-2.52848e-05
-1.01575e-05
-2.32239e-05
-1.269e-05
-2.08557e-05
-1.50027e-05
-1.8249e-05
-1.69839e-05
-1.54944e-05
-1.85453e-05
-1.26927e-05
-1.96457e-05
-9.93493e-06
-2.03105e-05
-7.28033e-06
-2.06308e-05
-4.74488e-06
-2.07375e-05
-2.30194e-06
-2.0762e-05
1.03135e-07
-2.07999e-05
2.53864e-06
-2.08939e-05
5.06511e-06
-2.10227e-05
7.72106e-06
-2.11078e-05
1.05068e-05
-2.10287e-05
1.33836e-05
-2.06537e-05
1.62728e-05
-1.98673e-05
1.90753e-05
-1.86059e-05
2.16889e-05
-1.68722e-05
2.40296e-05
-1.47322e-05
2.60357e-05
-1.22878e-05
2.76723e-05
-9.65778e-06
2.89239e-05
-6.95695e-06
2.97938e-05
-4.28939e-06
3.02969e-05
-1.73966e-06
3.04585e-05
6.26831e-07
3.03092e-05
2.76636e-06
2.98832e-05
4.65343e-06
2.92154e-05
6.27989e-06
2.83404e-05
7.65044e-06
2.72905e-05
8.78036e-06
2.60954e-05
9.6912e-06
2.47811e-05
1.04083e-05
2.33703e-05
1.09572e-05
2.18818e-05
1.13621e-05
2.03315e-05
1.16429e-05
1.87324e-05
1.18149e-05
1.70954e-05
1.18873e-05
1.54301e-05
1.18633e-05
1.37457e-05
1.17393e-05
1.20517e-05
1.1506e-05
1.036e-05
1.11486e-05
8.68562e-06
1.06482e-05
7.04912e-06
9.98335e-06
5.47818e-06
9.13365e-06
4.00947e-06
8.08374e-06
2.68939e-06
6.82999e-06
1.57291e-06
5.38918e-06
7.19138e-07
3.80885e-06
1.82443e-07
2.17868e-06
6.40721e-07
-2.24135e-07
8.59365e-07
-8.74838e-07
2.82521e-06
-1.89436e-06
4.8333e-06
-3.20319e-06
6.71624e-06
-4.72074e-06
8.38095e-06
-6.37756e-06
9.78892e-06
-8.11921e-06
1.0937e-05
-9.90555e-06
1.18424e-05
-1.17082e-05
1.25315e-05
-1.35075e-05
1.30331e-05
-1.52896e-05
1.33736e-05
-1.70441e-05
1.35749e-05
-1.87621e-05
1.36528e-05
-2.04349e-05
1.36164e-05
-2.20527e-05
1.34673e-05
-2.36041e-05
1.32003e-05
-2.50751e-05
1.28032e-05
-2.6449e-05
1.22576e-05
-2.77057e-05
1.15399e-05
-2.88218e-05
1.06236e-05
-2.97705e-05
9.48048e-06
-3.05221e-05
8.08461e-06
-3.10444e-05
6.41456e-06
-3.13043e-05
4.45834e-06
-3.12686e-05
2.21579e-06
-3.09069e-05
-2.96291e-07
-3.01921e-05
-3.04299e-06
-2.91046e-05
-5.96713e-06
-2.7633e-05
-8.99023e-06
-2.57801e-05
-1.201e-05
-2.35654e-05
-1.49042e-05
-2.10339e-05
-1.75335e-05
-1.82606e-05
-1.97562e-05
-1.53533e-05
-2.14516e-05
-1.24365e-05
-2.25613e-05
-9.62428e-06
-2.31215e-05
-6.98741e-06
-2.32667e-05
-4.53498e-06
-2.31892e-05
-2.22074e-06
-2.30757e-05
3.78845e-08
-2.30581e-05
2.33677e-06
-2.31926e-05
4.76524e-06
-2.34511e-05
7.3798e-06
-2.37225e-05
1.01931e-05
-2.38422e-05
1.31616e-05
-2.36222e-05
1.61935e-05
-2.28991e-05
1.91628e-05
-2.15751e-05
2.19482e-05
-1.96574e-05
2.44514e-05
-1.72351e-05
2.66089e-05
-1.4445e-05
2.83845e-05
-1.14327e-05
2.97662e-05
-8.3378e-06
3.07571e-05
-5.27942e-06
3.13737e-05
-2.35562e-06
3.16398e-05
3.61056e-07
3.1586e-05
2.82046e-06
3.12446e-05
4.99491e-06
3.06502e-05
6.87438e-06
2.98363e-05
8.46452e-06
2.8835e-05
9.78178e-06
2.76756e-05
1.08507e-05
2.63845e-05
1.16995e-05
2.49841e-05
1.23576e-05
2.3494e-05
1.28522e-05
2.19299e-05
1.32069e-05
2.0305e-05
1.34396e-05
1.86301e-05
1.35621e-05
1.69143e-05
1.3579e-05
1.51656e-05
1.34879e-05
1.33924e-05
1.3279e-05
1.16046e-05
1.29362e-05
9.81551e-06
1.24371e-05
8.04402e-06
1.17546e-05
6.31781e-06
1.08596e-05
4.67627e-06
9.725e-06
3.1731e-06
8.33289e-06
1.87684e-06
6.68518e-06
8.66912e-07
4.81847e-06
2.2205e-07
2.82304e-06
8.6254e-07
-2.77292e-07
1.13642e-06
-1.06698e-06
3.61467e-06
-2.27768e-06
6.04387e-06
-3.79452e-06
8.23294e-06
-5.51114e-06
1.00978e-05
-7.34384e-06
1.16222e-05
-9.23295e-06
1.28267e-05
-1.11384e-05
1.37484e-05
-1.30345e-05
1.44281e-05
-1.4905e-05
1.49039e-05
-1.67389e-05
1.5208e-05
-1.85284e-05
1.53649e-05
-2.02662e-05
1.53911e-05
-2.19444e-05
1.5295e-05
-2.35537e-05
1.50771e-05
-2.50827e-05
1.47298e-05
-2.65175e-05
1.42384e-05
-2.7841e-05
1.35816e-05
-2.90337e-05
1.2733e-05
-3.00723e-05
1.16625e-05
-3.0931e-05
1.03395e-05
-3.15811e-05
8.73493e-06
-3.19929e-05
6.82637e-06
-3.21349e-05
4.60042e-06
-3.19779e-05
2.05864e-06
-3.14937e-05
-7.80595e-07
-3.06598e-05
-3.87706e-06
-2.94582e-05
-7.169e-06
-2.78793e-05
-1.05693e-05
-2.59223e-05
-1.39671e-05
-2.36025e-05
-1.7224e-05
-2.09579e-05
-2.0178e-05
-1.80644e-05
-2.26497e-05
-1.50419e-05
-2.44739e-05
-1.20428e-05
-2.55605e-05
-9.20884e-06
-2.59557e-05
-6.62384e-06
-2.58523e-05
-4.2874e-06
-2.55269e-05
-2.12807e-06
-2.52369e-05
-3.86224e-08
-2.51496e-05
2.10426e-06
-2.53377e-05
4.41228e-06
-2.57615e-05
6.96169e-06
-2.62742e-05
9.77291e-06
-2.66557e-05
1.28036e-05
-2.66551e-05
1.59428e-05
-2.60401e-05
1.90383e-05
-2.46721e-05
2.19442e-05
-2.2565e-05
2.45582e-05
-1.98509e-05
2.68183e-05
-1.6707e-05
2.8697e-05
-1.3313e-05
3.01853e-05
-9.82698e-06
3.12893e-05
-6.38379e-06
3.20231e-05
-3.08961e-06
3.24092e-05
-2.51727e-08
3.24737e-05
2.75589e-06
3.22465e-05
5.2221e-06
3.17584e-05
7.36263e-06
3.10409e-05
9.18227e-06
3.01241e-05
1.0699e-05
2.90365e-05
1.19388e-05
2.78034e-05
1.29332e-05
2.64474e-05
1.37142e-05
2.49878e-05
1.43125e-05
2.34406e-05
1.47546e-05
2.18193e-05
1.50615e-05
2.01345e-05
1.52474e-05
1.8395e-05
1.5319e-05
1.66082e-05
1.52752e-05
1.47806e-05
1.5107e-05
1.292e-05
1.47972e-05
1.10365e-05
1.43209e-05
9.14569e-06
1.36456e-05
7.27272e-06
1.27327e-05
5.45683e-06
1.15411e-05
3.7569e-06
1.0033e-05
2.25529e-06
8.1869e-06
1.05658e-06
6.0172e-06
2.74383e-07
3.60501e-06
1.1369e-06
-3.53927e-07
1.49024e-06
-1.32825e-06
4.58917e-06
-2.77444e-06
7.49016e-06
-4.52751e-06
9.98583e-06
-6.45167e-06
1.20221e-05
-8.45192e-06
1.36232e-05
-1.04684e-05
1.48444e-05
-1.2466e-05
1.57473e-05
-1.44252e-05
1.63886e-05
-1.63352e-05
1.68152e-05
-1.81892e-05
1.70634e-05
-1.9982e-05
1.71591e-05
-2.17077e-05
1.71182e-05
-2.3359e-05
1.69478e-05
-2.49266e-05
1.66462e-05
-2.63989e-05
1.62035e-05
-2.77614e-05
1.56024e-05
-2.89975e-05
1.4819e-05
-3.00875e-05
1.38242e-05
-3.10096e-05
1.25857e-05
-3.17392e-05
1.10702e-05
-3.22511e-05
9.24765e-06
-3.2518e-05
7.09399e-06
-3.25141e-05
4.59711e-06
-3.22146e-05
1.75949e-06
-3.15992e-05
-1.39587e-06
-3.0651e-05
-4.82531e-06
-2.93598e-05
-8.46045e-06
-2.77184e-05
-1.2211e-05
-2.57256e-05
-1.59602e-05
-2.33859e-05
-1.95641e-05
-2.07222e-05
-2.28421e-05
-1.77947e-05
-2.55776e-05
-1.47287e-05
-2.75405e-05
-1.16992e-05
-2.85907e-05
-8.87839e-06
-2.87775e-05
-6.36162e-06
-2.83706e-05
-4.13163e-06
-2.77593e-05
-2.09015e-06
-2.72818e-05
-1.15163e-07
-2.71283e-05
1.92471e-06
-2.73813e-05
4.15306e-06
-2.79935e-05
6.64923e-06
-2.87736e-05
9.44358e-06
-2.94529e-05
1.24945e-05
-2.97081e-05
1.5683e-05
-2.92299e-05
1.88233e-05
-2.78134e-05
2.17568e-05
-2.54993e-05
2.43853e-05
-2.24804e-05
2.66666e-05
-1.89902e-05
2.85853e-05
-1.52343e-05
3.01413e-05
-1.13854e-05
3.1339e-05
-7.58345e-06
3.21898e-05
-3.94194e-06
3.27086e-05
-5.4526e-07
3.29157e-05
2.5478e-06
3.28334e-05
5.3036e-06
3.24875e-05
7.70805e-06
3.19045e-05
9.76508e-06
3.11117e-05
1.14919e-05
3.01347e-05
1.29162e-05
2.89979e-05
1.40707e-05
2.77229e-05
1.49901e-05
2.63288e-05
1.57076e-05
2.48321e-05
1.62526e-05
2.32463e-05
1.66485e-05