/*--------------------------------*- C++ -*----------------------------------*\
| =========                 |                                                 |
| \\      /  F ield         | OpenFOAM: The Open Source CFD Toolbox           |
|  \\    /   O peration     | Version:  2412                                  |
|   \\  /    A nd           | Website:  www.openfoam.com                      |
|    \\/     M anipulation  |                                                 |
\*---------------------------------------------------------------------------*/
FoamFile
{
    version     2.0;
    format      ascii;
    arch        "LSB;label=32;scalar=64";
    class       volScalarField;
    location    "0.65";
    object      p_rgh;
}
// * * * * * * * * * * * * * * * * * * * * * * * * * * * * * * * * * * * * * //

dimensions      [1 -1 -2 0 0 0 0];

internalField   nonuniform List<scalar> 
6400
(
12350.9
12350.9
12350.9
12350.9
12350.9
12350.9
12350.9
12350.9
12350.9
12350.9
12350.9
12350.9
12350.9
12350.9
12350.9
12350.9
12350.9
12350.9
12350.9
12350.9
12350.9
12350.9
12350.9
12350.9
12350.9
12350.9
12350.9
12350.9
12350.9
12350.9
12350.9
12350.9
12350.9
12350.9
12350.9
12350.9
12350.9
12350.9
12350.9
12350.9
12350.9
12350.9
12350.9
12350.9
12350.9
12350.9
12350.9
12350.9
12350.9
12350.9
12350.9
12350.9
12350.9
12350.9
12350.9
12350.9
12350.9
12350.9
12350.9
12350.9
12350.9
12350.9
12350.9
12350.9
12350.9
12350.9
12350.9
12350.9
12350.9
12350.9
12350.9
12350.9
12350.9
12350.9
12350.9
12350.9
12350.9
12350.9
12350.9
12350.9
12350.9
12350.9
12350.9
12350.9
12350.9
12350.9
12350.9
12350.9
12350.9
12350.9
12350.9
12350.9
12350.9
12350.9
12350.9
12350.9
12350.9
12350.9
12350.9
12350.9
12350.9
12350.9
12350.9
12350.9
12350.9
12350.9
12350.9
12350.9
12350.9
12350.9
12350.9
12350.9
12350.9
12350.9
12350.9
12350.9
12350.9
12350.9
12350.9
12350.9
12350.9
12350.9
12350.9
12350.9
12350.9
12350.9
12350.9
12350.9
12350.9
12350.9
12350.9
12350.9
12350.9
12350.9
12350.9
12350.9
12350.9
12350.9
12350.9
12350.9
12350.9
12350.9
12350.9
12350.9
12350.9
12350.9
12350.9
12350.9
12350.9
12350.9
12350.9
12350.9
12350.9
12350.9
12350.9
12350.9
12350.9
12350.9
12350.9
12350.9
12350.9
12350.9
12350.9
12350.9
12350.9
12350.9
12350.9
12350.9
12350.9
12350.9
12350.9
12350.9
12350.9
12350.9
12350.9
12350.9
12350.9
12350.9
12350.9
12350.9
12350.9
12350.9
12350.9
12350.9
12350.9
12350.9
12350.9
12350.9
12350.9
12350.9
12350.9
12350.9
12350.9
12350.9
12350.9
12350.9
12350.9
12350.9
12350.9
12350.9
12350.9
12350.9
12350.9
12350.9
12350.9
12350.9
12350.9
12350.9
12350.9
12350.9
12350.9
12350.9
12350.9
12350.9
12350.9
12350.9
12350.9
12350.9
12350.9
12350.9
12350.9
12350.9
12350.9
12350.9
12350.9
12350.9
12350.9
12350.9
12350.9
12350.9
12350.9
12350.9
12350.9
12350.9
12350.9
12350.9
12350.9
12350.9
12350.9
12350.9
12350.9
12350.9
12350.9
12350.9
12350.9
12350.9
12350.9
12350.9
12350.9
12350.9
12350.9
12350.9
12350.9
12350.9
12350.9
12350.9
12350.9
12350.9
12350.9
12350.9
12350.9
12350.9
12350.9
12350.9
12350.9
12350.9
12350.9
12350.9
12350.9
12350.9
12350.9
12350.9
12350.9
12350.9
12350.9
12350.9
12350.9
12350.9
12350.9
12350.9
12350.9
12350.9
12350.9
12350.9
12350.9
12350.9
12350.9
12350.9
12350.9
12350.9
12350.9
12350.9
12350.9
12350.9
12350.9
12350.9
12350.9
12350.9
12350.9
12350.9
12350.9
12350.9
12350.9
12350.9
12350.9
12350.9
12350.9
12350.9
12350.9
12350.9
12350.9
12350.9
12350.9
12350.9
12350.9
12350.9
12350.9
12350.9
12350.9
12350.9
12350.9
12350.9
12350.9
12350.9
12350.9
12350.9
12350.9
12350.9
12350.9
12350.9
12350.9
12350.9
12350.9
12350.9
12350.9
12350.9
12350.9
12350.9
12350.9
12350.9
12350.9
12350.9
12350.9
12350.9
12350.9
12350.9
12350.9
12350.9
12350.9
12350.9
12350.9
12350.9
12350.9
12350.9
12350.9
12350.9
12350.9
12350.9
12350.9
12350.9
12350.9
12350.9
12350.9
12350.9
12350.9
12350.9
12350.9
12350.9
12350.9
12350.9
12350.9
12350.9
12350.9
12350.9
12350.9
12350.9
12350.9
12350.9
12350.9
12350.9
12350.9
12350.9
12350.9
12350.9
12350.9
12350.9
12350.9
12350.9
12350.9
12350.9
12350.9
12350.9
12350.9
12350.9
12350.9
12350.9
12350.9
12350.9
12350.9
12350.9
12350.9
12350.9
12350.9
12350.9
12350.9
12350.9
12350.9
12350.9
12350.9
12350.9
12350.9
12350.9
12350.9
12350.9
12350.9
12350.9
12350.9
12350.9
12350.9
12350.9
12350.9
12350.9
12350.9
12350.9
12350.9
12350.9
12350.9
12350.9
12350.9
12350.9
12350.9
12350.9
12350.9
12350.9
12350.9
12350.9
12350.9
12350.9
12350.9
12350.9
12350.9
12350.9
12350.9
12350.9
12350.9
12350.9
12350.9
12350.9
12350.9
12350.9
12350.9
12350.9
12350.9
12350.9
12350.9
12350.9
12350.9
12350.9
12350.9
12350.9
12350.9
12350.9
12350.9
12350.9
12350.9
12350.9
12350.9
12350.9
12350.9
12350.9
12350.9
12350.9
12350.9
12350.9
12350.9
12350.9
12350.9
12350.9
12350.9
12350.9
12350.9
12350.9
12350.9
12350.9
12350.9
12350.9
12350.9
12350.9
12350.9
12350.9
12350.9
12350.9
12350.9
12350.9
12350.9
12350.9
12350.9
12350.9
12350.9
12350.9
12350.9
12350.9
12350.9
12350.9
12350.9
12350.9
12350.9
12350.9
12350.9
12350.9
12350.9
12350.9
12350.9
12350.9
12350.9
12350.9
12350.9
12350.9
12350.9
12350.9
12350.9
12350.9
12350.9
12350.9
12350.9
12350.9
12350.9
12350.9
12350.9
12350.9
12350.9
12350.9
12350.9
12350.9
12350.9
12350.9
12350.9
12350.9
12350.9
12350.9
12350.9
12350.9
12350.9
12350.9
12350.9
12350.9
12350.9
12350.9
12350.9
12350.9
12350.9
12350.9
12350.9
12350.9
12350.9
12350.9
12350.9
12350.9
12350.9
12350.9
12350.9
12350.9
12350.9
12350.9
12350.9
12350.9
12350.9
12350.9
12350.9
12350.9
12350.9
12350.9
12350.9
12350.9
12350.9
12350.9
12350.9
12350.9
12350.9
12350.9
12350.9
12350.9
12350.9
12350.9
12350.9
12350.9
12350.9
12350.9
12350.9
12350.9
12350.9
12350.9
12350.9
12350.9
12350.9
12350.9
12350.9
12350.9
12350.9
12350.9
12350.9
12350.9
12350.9
12350.9
12350.9
12350.9
12350.9
12350.9
12350.9
12350.9
12350.9
12350.9
12350.9
12350.9
12350.9
12350.9
12350.9
12350.9
12350.9
12350.9
12350.9
12350.9
12350.9
12350.9
12350.9
12350.9
12350.9
12350.9
12350.9
12350.9
12350.9
12350.9
12350.9
12350.9
12350.9
12350.9
12350.9
12350.9
12350.9
12350.9
12350.9
12350.9
12350.9
12350.9
12350.9
12350.9
12350.9
12350.9
12350.9
12350.9
12350.9
12350.9
12350.9
12350.9
12350.9
12350.9
12350.9
12350.9
12350.9
12350.9
12350.9
12350.9
12350.9
12350.9
12350.9
12350.9
12350.9
12350.9
12350.9
12350.9
12350.9
12350.9
12350.9
12350.9
12350.9
12350.9
12350.9
12350.9
12350.9
12350.9
12350.9
12350.9
12350.9
12350.9
12350.9
12350.9
12350.9
12350.9
12350.9
12350.9
12350.9
12350.9
12350.9
12350.9
12350.9
12350.9
12350.9
12350.9
12350.9
12350.9
12350.9
12350.9
12350.9
12350.9
12350.9
12350.9
12350.9
12350.9
12350.9
12350.9
12350.9
12350.9
12350.9
12350.9
12350.9
12350.9
12350.9
12350.9
12350.9
12350.9
12350.9
12350.9
12350.9
12350.9
12350.9
12350.9
12350.9
12350.9
12350.9
12350.9
12350.9
12350.9
12350.9
12350.9
12350.9
12350.9
12350.9
12350.9
12350.9
12350.9
12350.9
12350.9
12350.9
12350.9
12350.9
12350.9
12350.9
12350.9
12350.9
12350.9
12350.9
12350.9
12350.9
12350.9
12350.9
12350.9
12350.9
12350.9
12350.9
12350.9
12350.9
12350.9
12350.9
12350.9
12350.9
12350.9
12350.9
12350.9
12350.9
12350.9
12350.9
12350.9
12350.9
12350.9
12350.9
12350.9
12350.9
12350.9
12350.9
12350.9
12350.9
12350.9
12350.9
12350.9
12350.9
12350.9
12350.9
12350.9
12350.9
12350.9
12350.9
12350.9
12350.9
12350.9
12350.9
12350.9
12350.9
12350.9
12350.9
12350.9
12350.9
12350.9
12350.9
12350.9
12350.9
12350.9
12350.9
12350.9
12350.9
12350.9
12350.9
12350.9
12350.9
12350.9
12350.9
12350.9
12350.9
12350.9
12350.9
12350.9
12350.9
12350.9
12350.9
12350.9
12350.9
12350.9
12350.9
12350.9
12350.9
12350.9
12350.9
12350.9
12350.9
12350.9
12350.9
12350.9
12350.9
12350.9
12350.9
12350.9
12350.9
12350.9
12350.9
12350.9
12350.9
12350.9
12350.9
12350.9
12350.9
12350.9
12350.9
12350.9
12350.9
12350.9
12350.9
12350.9
12350.9
12350.9
12350.9
12350.9
12350.9
12350.9
12350.9
12350.9
12350.9
12350.9
12350.9
12350.9
12350.9
12350.9
12350.9
12350.9
12350.9
12350.9
12350.9
12350.9
12350.9
12350.9
12350.9
12350.9
12350.9
12350.9
12350.9
12350.9
12350.9
12350.9
12350.9
12350.9
12350.9
12350.9
12350.9
12350.9
12350.9
12350.9
12350.9
12350.9
12350.9
12350.9
12350.9
12350.9
12350.9
12350.9
12350.9
12350.9
12350.9
12350.9
12350.9
12350.9
12350.9
12350.9
12350.9
12350.9
12350.9
12350.9
12350.9
12350.9
12350.9
12350.9
12350.9
12350.9
12350.9
12350.9
12350.9
12350.9
12350.9
12350.9
12350.9
12350.9
12350.9
12350.9
12350.9
12350.9
12350.9
12350.9
12350.9
12350.9
12350.9
12350.9
12350.9
12350.9
12350.9
12350.9
12350.9
12350.9
12350.9
12350.9
12350.9
12350.9
12350.9
12350.9
12350.9
12350.9
12350.9
12350.9
12350.9
12350.9
12350.9
12350.9
12350.9
12350.9
12350.9
12350.9
12350.9
12350.9
12350.9
12350.9
12350.9
12350.9
12350.9
12350.9
12350.9
12350.9
12350.9
12350.9
12350.9
12350.9
12350.9
12350.9
12350.9
12350.9
12350.9
12350.9
12350.9
12350.9
12350.9
12350.9
12350.9
12350.9
12350.9
12350.9
12350.9
12350.9
12350.9
12350.9
12350.9
12350.9
12350.9
12350.9
12350.9
12350.9
12350.9
12350.9
12350.9
12350.9
12350.9
12350.9
12350.9
12350.9
12350.9
12350.9
12350.9
12350.9
12350.9
12350.9
12350.9
12350.9
12350.9
12350.9
12350.9
12350.9
12350.9
12350.9
12350.9
12350.9
12350.9
12350.9
12350.9
12350.9
12350.9
12350.9
12350.9
12350.9
12350.9
12350.9
12350.9
12350.9
12350.9
12350.9
12350.9
12350.9
12350.9
12350.9
12350.9
12350.9
12350.9
12350.9
12350.9
12350.9
12350.9
12350.9
12350.9
12350.9
12350.9
12350.9
12350.9
12350.9
12350.9
12350.9
12350.9
12350.9
12350.9
12350.9
12350.9
12350.9
12350.9
12350.9
12350.9
12350.9
12350.9
12350.9
12350.9
12350.9
12350.9
12350.9
12350.9
12350.9
12350.9
12350.9
12350.9
12350.9
12350.9
12350.9
12350.9
12350.9
12350.9
12350.9
12350.9
12350.9
12350.9
12350.9
12350.9
12350.9
12350.9
12350.9
12350.9
12350.9
12350.9
12350.9
12350.9
12350.9
12350.9
12350.9
12350.9
12350.9
12350.9
12350.9
12350.9
12350.9
12350.9
12350.9
12350.9
12350.9
12350.9
12350.9
12350.9
12350.9
12350.9
12350.9
12350.9
12350.9
12350.9
12350.9
12350.9
12350.9
12350.9
12350.9
12350.9
12350.9
12350.9
12350.9
12350.9
12350.9
12350.9
12350.9
12350.9
12350.9
12350.9
12350.9
12350.9
12350.9
12350.9
12350.9
12350.9
12350.9
12350.9
12350.9
12350.9
12350.9
12350.9
12350.9
12350.9
12350.9
12350.9
12350.9
12350.9
12350.9
12350.9
12350.9
12350.9
12350.9
12350.9
12350.9
12350.9
12350.9
12350.9
12350.9
12350.9
12350.9
12350.9
12350.9
12350.9
12350.9
12350.9
12350.9
12350.9
12350.9
12350.9
12350.9
12350.9
12350.9
12350.9
12350.9
12350.9
12350.9
12350.9
12350.9
12350.9
12350.9
12350.9
12350.9
12350.9
12350.9
12350.9
12350.9
12350.9
12350.9
12350.9
12350.9
12350.9
12350.9
12350.9
12350.9
12350.9
12350.9
12350.9
12350.9
12350.9
12350.9
12350.9
12350.9
12350.9
12350.9
12350.9
12350.9
12350.9
12350.9
12350.9
12350.9
12350.9
12350.9
12350.9
12350.9
12350.9
12350.9
12350.9
12350.9
12350.9
12350.9
12350.9
12350.9
12350.9
12350.9
12350.9
12350.9
12350.9
12350.9
12350.9
12350.9
12350.9
12350.9
12350.9
12350.9
12350.9
12350.9
12350.9
12350.9
12350.9
12350.9
12350.9
12350.9
12350.9
12350.9
12350.9
12350.9
12350.9
12350.9
12350.9
12350.9
12350.9
12350.9
12350.9
12350.9
12350.9
12350.9
12350.9
12350.9
12350.9
12350.9
12350.9
12350.9
12350.9
12350.9
12350.9
12350.9
12350.9
12350.9
12350.9
12350.9
12350.9
12350.9
12350.9
12350.9
12350.9
12350.9
12350.9
12350.9
12350.9
12350.9
12350.9
12350.9
12350.9
12350.9
12350.9
12350.9
12350.9
12350.9
12350.9
12350.9
12350.9
12350.9
12350.9
12350.9
12350.9
12350.9
12350.9
12350.9
12350.9
12350.9
12350.9
12350.9
12350.9
12350.9
12350.9
12350.9
12350.9
12350.9
12350.9
12350.9
12350.9
12350.9
12350.9
12350.9
12350.9
12350.9
12350.9
12350.9
12350.9
12350.9
12350.9
12350.9
12350.9
12350.9
12350.9
12350.9
12350.9
12350.9
12350.9
12350.9
12350.9
12350.9
12350.9
12350.9
12350.9
12350.9
12350.9
12350.9
12350.9
12350.9
12350.9
12350.9
12350.9
12350.9
12350.9
12350.9
12350.9
12350.9
12350.9
12350.9
12350.9
12350.9
12350.9
12350.9
12350.9
12350.9
12350.9
12350.9
12350.9
12350.9
12350.9
12350.9
12350.9
12350.9
12350.9
12350.9
12350.9
12350.9
12350.9
12350.9
12350.9
12350.9
12350.9
12350.9
12350.9
12350.9
12350.9
12350.9
12350.9
12350.9
12350.9
12350.9
12350.9
12350.9
12350.9
12350.9
12350.9
12350.9
12350.9
12350.9
12350.9
12350.9
12350.9
12350.9
12350.9
12350.9
12350.9
12350.9
12350.9
12350.9
12350.9
12350.9
12350.9
12350.9
12350.9
12350.9
12350.9
12350.9
12350.9
12350.9
12350.9
12350.9
12350.9
12350.9
12350.9
12350.9
12350.9
12350.9
12350.9
12350.9
12350.9
12350.9
12350.9
12350.9
12350.9
12350.9
12350.9
12350.9
12350.9
12350.9
12350.9
12350.9
12350.9
12350.9
12350.9
12350.9
12350.9
12350.9
12350.9
12350.9
12350.9
12350.9
12350.9
12350.9
12350.9
12350.9
12350.9
12350.9
12350.9
12350.9
12350.9
12350.9
12350.9
12350.9
12350.9
12350.9
12350.9
12350.9
12350.9
12350.9
12350.9
12350.9
12350.9
12350.9
12350.9
12350.9
12350.9
12350.9
12350.9
12350.9
12350.9
12350.9
12350.9
12350.9
12350.9
12350.9
12350.9
12350.9
12350.9
12350.9
12350.9
12350.9
12350.9
12350.9
12350.9
12350.9
12350.9
12350.9
12350.9
12350.9
12350.9
12350.9
12350.9
12350.9
12350.9
12350.9
12350.9
12350.9
12350.9
12350.9
12350.9
12350.9
12350.9
12350.9
12350.9
12350.9
12350.9
12350.9
12350.9
12350.9
12350.9
12350.9
12350.9
12350.9
12350.9
12350.9
12350.9
12350.9
12350.9
12350.9
12350.9
12350.9
12350.9
12350.9
12350.9
12350.9
12350.9
12350.9
12350.9
12350.9
12350.9
12350.9
12350.9
12350.9
12350.9
12350.9
12350.9
12350.9
12350.9
12350.9
12350.9
12350.9
12350.9
12350.8
12350.8
12350.8
12350.8
12350.8
12350.8
12350.8
12350.8
12350.8
12350.8
12350.8
12350.8
12350.8
12350.8
12350.8
12350.8
12350.8
12350.8
12350.8
12350.9
12350.9
12350.9
12350.9
12350.9
12350.9
12350.9
12350.9
12350.9
12350.9
12350.9
12350.9
12350.9
12350.9
12350.9
12350.9
12350.9
12350.9
12350.9
12350.9
12350.9
12350.9
12350.9
12350.9
12350.9
12350.9
12350.9
12350.9
12350.9
12350.9
0.0854803
0.0943959
0.100439
0.104938
0.107955
0.109724
0.110499
0.110528
0.110004
0.109067
0.107812
0.106301
0.104577
0.102664
0.100583
0.0983364
0.0959332
0.093384
0.0907039
0.0879118
0.0850383
0.0832679
0.0846155
0.0860096
0.0874238
0.0888437
0.0902565
0.0916488
0.0930079
0.0943213
0.0955775
0.096765
0.0978725
0.0988888
0.0998021
0.100601
0.101274
0.10181
0.102201
0.102439
0.102521
0.102443
0.102208
0.101819
0.101282
0.100608
0.0998068
0.0988922
0.0978775
0.0967764
0.0956042
0.094377
0.093107
0.091802
0.0904758
0.0891486
0.087829
0.0865187
0.08522
0.0851225
0.0872548
0.0907162
0.0941725
0.097604
0.101001
0.104344
0.107539
0.110519
0.11322
0.115626
0.117621
0.119178
0.120169
0.120453
0.120075
0.118978
0.115823
0.110974
0.10598
0.0940577
0.0663884
0.0664757
0.0666083
0.0668203
0.0671196
0.067508
0.0679872
0.0685577
0.0692186
0.0699657
0.0707929
0.0716923
0.0726555
0.0736748
0.0747437
0.0758574
0.0770126
0.0782071
0.0794386
0.0807031
0.0819927
0.083303
0.084646
0.0860253
0.0874256
0.088832
0.0902307
0.0916081
0.0929517
0.0942496
0.0954906
0.0966639
0.0977585
0.098763
0.099666
0.100456
0.101121
0.101651
0.102037
0.102273
0.102352
0.102275
0.102042
0.101657
0.101128
0.100463
0.0996732
0.0987714
0.0977708
0.0966848
0.0955283
0.094317
0.0930623
0.0917724
0.0904615
0.0891498
0.0878464
0.0865476
0.0852668
0.0840368
0.0828592
0.0816973
0.0805379
0.0794164
0.0783636
0.07736
0.0763672
0.0753857
0.0744563
0.0736159
0.0728698
0.0722052
0.071617
0.071112
0.0706923
0.070345
0.0700518
0.0698085
0.069631
0.0695423
0.0663082
0.0663951
0.0665397
0.0667563
0.0670552
0.0674421
0.0679197
0.0684885
0.0691467
0.0698902
0.0707123
0.0716054
0.0725615
0.0735731
0.0746346
0.0757418
0.0768922
0.0780843
0.079317
0.0805883
0.0818952
0.0832345
0.0846044
0.0860004
0.0874129
0.0888302
0.0902401
0.0916302
0.0929886
0.0943035
0.0955633
0.0967561
0.0978698
0.0988917
0.099809
0.100609
0.10128
0.101812
0.102195
0.102424
0.102496
0.102409
0.102166
0.101772
0.101233
0.100559
0.0997604
0.0988506
0.097843
0.0967503
0.0955852
0.0943642
0.0931029
0.0918087
0.090487
0.089156
0.0878393
0.0865379
0.085243
0.0839714
0.0827532
0.0815866
0.0804451
0.0793262
0.0782538
0.0772368
0.0762564
0.0752971
0.0743711
0.0735087
0.0727366
0.0720687
0.0715079
0.0710443
0.070655
0.0703123
0.0700034
0.0697433
0.0695639
0.069481
0.0661727
0.0662488
0.0663961
0.0666184
0.0669221
0.0673123
0.0677919
0.0683611
0.0690177
0.0697575
0.0705747
0.0714625
0.0724141
0.0734232
0.074485
0.0755959
0.0767531
0.0779547
0.0791986
0.0804821
0.0818019
0.0831545
0.0845364
0.0859425
0.0873649
0.0887946
0.090221
0.0916331
0.0930187
0.0943649
0.0956579
0.096883
0.0980251
0.0990694
0.100001
0.100808
0.101478
0.102001
0.102373
0.102588
0.102645
0.102544
0.102289
0.101885
0.101339
0.10066
0.0998565
0.0989417
0.097929
0.0968313
0.09566
0.0944292
0.093156
0.0918514
0.0905193
0.0891728
0.0878351
0.086514
0.085201
0.0839102
0.082673
0.0814896
0.0803319
0.0791977
0.0781153
0.0770932
0.0761031
0.0751231
0.0741742
0.0733048
0.0725519
0.0719212
0.0713936
0.0709406
0.0705362
0.0701679
0.0698455
0.0695966
0.0694418
0.0693751
0.0659481
0.0660202
0.0661691
0.0663969
0.0667069
0.0671025
0.0675852
0.0681548
0.0688091
0.0695442
0.0703556
0.071238
0.0721863
0.0731958
0.0742625
0.0753827
0.0765532
0.0777707
0.0790315
0.0803318
0.0816678
0.0830357
0.084432
0.0858526
0.0872921
0.0887436
0.0901986
0.091646
0.0930727
0.0944635
0.0958013
0.0970682
0.0982461
0.0993179
0.100268
0.101085
0.101757
0.102278
0.102643
0.102849
0.102897
0.102786
0.102521
0.102106
0.101548
0.100854
0.100034
0.0991003
0.0980661
0.0969455
0.0957498
0.0944923
0.093192
0.0918619
0.0905023
0.0891232
0.0877563
0.0864154
0.0850794
0.083751
0.0824764
0.0812771
0.0801175
0.0789711
0.0778633
0.076826
0.0758511
0.0749113
0.0740048
0.0731599
0.0724062
0.0717527
0.0711894
0.0706992
0.0702689
0.0698971
0.0695968
0.0693843
0.0692541
0.0691949
0.0656358
0.0657088
0.0658612
0.0660951
0.0664123
0.0668139
0.0673002
0.0678701
0.0685215
0.0692515
0.070057
0.0709348
0.0718817
0.0728944
0.0739696
0.0751035
0.0762915
0.0775288
0.0788103
0.0801309
0.0814865
0.0828738
0.0842903
0.0857337
0.0872005
0.0886857
0.0901808
0.0916742
0.0931508
0.0945926
0.0959797
0.0972917
0.0985091
0.099614
0.100592
0.10143
0.10212
0.102654
0.103029
0.103241
0.103289
0.103174
0.102897
0.102462
0.101877
0.10115
0.100291
0.0993137
0.0982328
0.0970658
0.095824
0.0945183
0.093171
0.091803
0.0904118
0.088993
0.0875811
0.0862111
0.0848616
0.0835106
0.0821997
0.0809758
0.0798178
0.0786832
0.0775798
0.0765433
0.0755779
0.0746562
0.0737631
0.0729161
0.0721451
0.0714676
0.0708816
0.0703752
0.0699391
0.069575
0.0692938
0.0691002
0.0689773
0.0689126
0.0652407
0.0653159
0.0654734
0.0657142
0.0660386
0.0664462
0.0669358
0.0675057
0.068154
0.068879
0.0696793
0.0705538
0.071501
0.0725191
0.073605
0.0747544
0.0759618
0.0772208
0.0785252
0.0798696
0.08125
0.0826641
0.0841107
0.0855888
0.0870959
0.0886266
0.0901718
0.091718
0.0932482
0.0947426
0.09618
0.0975398
0.0988027
0.0999518
0.100972
0.101853
0.102582
0.103152
0.103555
0.103786
0.10384
0.103717
0.103419
0.102949
0.102316
0.101533
0.100612
0.0995686
0.0984193
0.0971871
0.095887
0.0945245
0.0931187
0.091702
0.0902796
0.0888303
0.0873765
0.0859734
0.084616
0.0832606
0.0819276
0.0806786
0.0795139
0.0783828
0.0772687
0.0762001
0.0751956
0.0742449
0.0733391
0.0724939
0.0717361
0.0710783
0.070511
0.0700149
0.0695789
0.0692092
0.0689214
0.0687191
0.0685877
0.0685112
0.0647667
0.0648439
0.0650069
0.0652546
0.0655858
0.0659987
0.0664909
0.0670604
0.0677057
0.0684264
0.0692228
0.0700955
0.0710447
0.0720692
0.0731662
0.074331
0.0755574
0.0768383
0.0781673
0.0795396
0.0809519
0.0824029
0.0838922
0.0854186
0.0869786
0.0885655
0.0901681
0.0917713
0.093357
0.0949056
0.0963972
0.0978128
0.0991346
0.100346
0.101432
0.102377
0.103167
0.103789
0.10423
0.104481
0.104537
0.104396
0.104062
0.103541
0.102845
0.10199
0.100996
0.0998767
0.0986508
0.0973446
0.0959806
0.0945613
0.0930952
0.0916211
0.0901629
0.0886905
0.0872011
0.0857578
0.0843829
0.083024
0.0816693
0.080378
0.0791733
0.0780131
0.0768679
0.0757561
0.0747055
0.0737221
0.0728067
0.0719738
0.0712434
0.0706185
0.0700779
0.0695928
0.0691496
0.0687603
0.0684486
0.0682244
0.06808
0.0679958
0.0642165
0.0642953
0.064463
0.0647166
0.0650535
0.0654704
0.0659644
0.0665332
0.0671761
0.0678938
0.0686878
0.0695603
0.0705122
0.0715431
0.0726501
0.0738285
0.0750721
0.0763744
0.0777299
0.079135
0.0805874
0.0820864
0.0836307
0.0852177
0.0868413
0.0884927
0.0901586
0.0918234
0.09347
0.0950812
0.0966397
0.0981288
0.099531
0.100828
0.102001
0.103029
0.103891
0.104569
0.105047
0.105312
0.105361
0.105192
0.104814
0.104236
0.103473
0.102544
0.101472
0.100277
0.0989708
0.097581
0.09614
0.0946547
0.0931196
0.0915687
0.09005
0.0885409
0.0870101
0.0855096
0.0840897
0.0827078
0.081324
0.0799824
0.0787234
0.0775239
0.0763541
0.0752239
0.0741597
0.0731735
0.0722665
0.0714476
0.0707294
0.0701103
0.0695673
0.0690707
0.0686084
0.0681961
0.0678621
0.0676209
0.0674692
0.0673862
0.0635918
0.0636718
0.0638431
0.064101
0.0644416
0.064861
0.0653557
0.0659237
0.0665649
0.0672808
0.0680741
0.0689474
0.0699023
0.0709384
0.0720533
0.0732427
0.0745016
0.075825
0.0772093
0.0786522
0.0801526
0.0817088
0.083318
0.0849744
0.0866691
0.0883915
0.0901278
0.0918637
0.0935851
0.0952779
0.0969271
0.0985161
0.100025
0.101431
0.102708
0.103829
0.104767
0.1055
0.10601
0.106287
0.106327
0.106132
0.105712
0.10508
0.104252
0.103245
0.102086
0.100799
0.0993954
0.0978973
0.0963457
0.094763
0.0931353
0.0914796
0.0898618
0.0882844
0.0866979
0.0851283
0.0836436
0.0822244
0.0808159
0.0794394
0.0781403
0.0769135
0.0757349
0.0746085
0.0735568
0.0725911
0.071708
0.0709049
0.0701846
0.0695446
0.0689693
0.0684395
0.0679504
0.0675201
0.0671755
0.0669306
0.0667805
0.0667059
0.0628944
0.0629752
0.0631485
0.0634085
0.0637506
0.0641704
0.0646647
0.0652316
0.0658717
0.066587
0.0673806
0.0682553
0.0692127
0.0702525
0.0713729
0.072571
0.0738437
0.0751885
0.0766039
0.0780892
0.0796429
0.081262
0.082941
0.0846714
0.0864427
0.0882425
0.0900604
0.0918848
0.0937048
0.0955083
0.09728
0.0989998
0.100642
0.102178
0.103573
0.104796
0.105816
0.106611
0.107164
0.107463
0.107505
0.107294
0.106835
0.106145
0.105239
0.104132
0.102852
0.101435
0.0998977
0.0982551
0.0965508
0.0948298
0.0930833
0.0913047
0.0895619
0.0878901
0.0862388
0.0846047
0.083056
0.0815993
0.0801787
0.0787915
0.0774747
0.076234
0.0750509
0.0739249
0.0728763
0.0719199
0.0710527
0.0702633
0.0695418
0.068881
0.0682721
0.0677091
0.0671981
0.0667596
0.0664165
0.0661787
0.066036
0.0659715
0.0621261
0.0622069
0.0623805
0.0626402
0.0629813
0.0633995
0.0638919
0.0644572
0.0650964
0.0658117
0.066606
0.0674819
0.0684406
0.0694825
0.0706066
0.071812
0.0730982
0.0744653
0.0759138
0.0774435
0.0790522
0.0807349
0.0824838
0.0842891
0.0861404
0.0880278
0.0899443
0.0918819
0.0938315
0.0957799
0.097708
0.0995895
0.101392
0.103079
0.104613
0.10596
0.107087
0.107971
0.108591
0.108935
0.108994
0.108767
0.108258
0.107481
0.106459
0.105209
0.103762
0.102167
0.100456
0.0986419
0.0967595
0.0948727
0.0929919
0.0910906
0.0892196
0.0874399
0.0857179
0.0840273
0.0824227
0.0809269
0.0794958
0.0781082
0.0767843
0.0755327
0.0743404
0.0732016
0.0721321
0.0711533
0.0702724
0.0694798
0.0687578
0.0680904
0.0674681
0.0668917
0.0663749
0.0659404
0.0656073
0.0653807
0.0652465
0.0651892
0.0612888
0.061369
0.061541
0.0617979
0.0621353
0.0625496
0.0630384
0.0636012
0.0642389
0.0649538
0.0657483
0.0666244
0.0675834
0.0686259
0.0697528
0.0709653
0.0722656
0.0736559
0.075138
0.0767114
0.0783725
0.0801151
0.0819305
0.0838102
0.0857465
0.0877341
0.0897706
0.0918494
0.0939606
0.0960871
0.0982036
0.100277
0.102271
0.104143
0.105855
0.107368
0.108648
0.109663
0.110384
0.110789
0.110864
0.110602
0.110007
0.109097
0.10791
0.106473
0.104823
0.103015
0.101102
0.0991049
0.0970396
0.0949735
0.0929435
0.0909183
0.0889203
0.0870213
0.0852111
0.0834537
0.0817888
0.0802396
0.0787776
0.0773763
0.0760374
0.0747674
0.0735602
0.0724076
0.0713156
0.0703048
0.069393
0.0685806
0.0678518
0.0671856
0.0665681
0.0659993
0.065494
0.0650737
0.0647551
0.0645392
0.064411
0.0643557
0.0603844
0.0604633
0.0606319
0.0608837
0.061215
0.061623
0.0621062
0.0626646
0.0632995
0.0640126
0.0648057
0.0656804
0.0666382
0.0676806
0.0688102
0.0700306
0.0713459
0.0727598
0.0742738
0.0758868
0.0775944
0.0793902
0.0812675
0.0832217
0.0852503
0.0873521
0.0895306
0.0917763
0.0940768
0.0964101
0.0987459
0.101047
0.103274
0.105383
0.107331
0.109073
0.110561
0.111748
0.112593
0.113059
0.113129
0.112799
0.112078
0.110995
0.109602
0.107948
0.106071
0.104028
0.101884
0.0996831
0.097423
0.0951591
0.0929506
0.0907791
0.0886417
0.0866122
0.0846913
0.0828422
0.081101
0.0794831
0.0779663
0.076528
0.0751577
0.0738562
0.0726259
0.071463
0.070366
0.0693459
0.0684198
0.0675945
0.0668602
0.0661978
0.0655924
0.0650417
0.0645571
0.0641567
0.0638535
0.063646
0.0635206
0.0634632
0.0594152
0.0594921
0.0596557
0.0599002
0.0602229
0.0606222
0.0610976
0.0616494
0.062279
0.0629877
0.063777
0.0646482
0.0656032
0.066645
0.0677777
0.0690068
0.0703373
0.0717731
0.0733151
0.0749611
0.076707
0.0785487
0.0804842
0.0825149
0.084645
0.0868791
0.0892123
0.0916435
0.094155
0.0967213
0.0993104
0.101885
0.104403
0.106817
0.109072
0.111105
0.11285
0.114239
0.115214
0.115734
0.115778
0.115354
0.114484
0.113202
0.111572
0.109662
0.107521
0.105204
0.102776
0.100317
0.0978257
0.0953377
0.0929218
0.0905795
0.0882974
0.0861235
0.0840875
0.0821361
0.0803052
0.0786115
0.0770333
0.0755493
0.0741416
0.0728037
0.0715424
0.0703637
0.0692678
0.0682582
0.0673434
0.0665266
0.0657992
0.0651458
0.0645542
0.0640224
0.0635595
0.0631789
0.0628899
0.0626891
0.0625647
0.0625039
0.0583832
0.0584576
0.0586147
0.0588502
0.0591623
0.0595506
0.0600155
0.0605578
0.0611789
0.0618799
0.062662
0.0635269
0.0644774
0.0655177
0.0666535
0.067891
0.0692353
0.0706891
0.0722524
0.0739231
0.0756989
0.0775802
0.0795717
0.0816813
0.0839186
0.0862899
0.0887935
0.0914241
0.0941651
0.0969926
0.099877
0.102782
0.10566
0.108451
0.111081
0.113461
0.115501
0.117115
0.118235
0.118815
0.118834
0.118309
0.117271
0.115759
0.113841
0.111601
0.109119
0.106457
0.103677
0.100888
0.0981198
0.0953897
0.0927601
0.0902445
0.0878102
0.0854985
0.0833534
0.081312
0.0793903
0.0776135
0.0759714
0.0744448
0.0730102
0.0716513
0.0703706
0.0691775
0.0680789
0.0670798
0.0661835
0.0653861
0.0646749
0.0640348
0.0634566
0.0629405
0.062495
0.0621309
0.0618536
0.0616588
0.0615355
0.0614726
0.0572905
0.0573618
0.0575116
0.0577366
0.0580363
0.0584115
0.0588632
0.0593928
0.0600017
0.0606909
0.061462
0.0623173
0.0632608
0.064298
0.0654353
0.0666787
0.0680323
0.0694976
0.0710737
0.0727598
0.0745576
0.0764737
0.0785197
0.0807097
0.0830569
0.0855695
0.0882479
0.0910868
0.0940766
0.097199
0.100428
0.103725
0.107032
0.110268
0.113333
0.116114
0.118499
0.120384
0.121691
0.122367
0.122382
0.121746
0.120498
0.118688
0.116395
0.113722
0.110795
0.107708
0.104522
0.10135
0.0982617
0.0952683
0.0924183
0.0897348
0.0871675
0.084722
0.0824534
0.0803276
0.0783301
0.0764725
0.0747604
0.0731873
0.0717317
0.0703723
0.0691004
0.0679172
0.0668283
0.0658421
0.0649631
0.0641846
0.0634905
0.0628641
0.0622976
0.0617935
0.0613608
0.0610087
0.0607406
0.0605514
0.0604306
0.0603682
0.0561391
0.056207
0.0563488
0.0565623
0.0568484
0.0572085
0.0576444
0.058158
0.0587506
0.0594237
0.0601794
0.0610213
0.0619544
0.062985
0.0641198
0.0653637
0.0667192
0.0681864
0.069765
0.071457
0.0732695
0.0752158
0.0773135
0.0795814
0.0820357
0.0846869
0.0875405
0.0905965
0.0938572
0.0973116
0.100936
0.104683
0.108481
0.112226
0.115796
0.119057
0.121874
0.124121
0.125695
0.126519
0.126542
0.125761
0.124225
0.122018
0.11925
0.116045
0.112575
0.108981
0.10534
0.101734
0.0982689
0.0949632
0.0918535
0.088975
0.0862757
0.0837381
0.0813603
0.0791523
0.0771026
0.075194
0.0734286
0.0718092
0.0703251
0.0689626
0.06771
0.0665565
0.0654972
0.0645366
0.0636796
0.0629202
0.0622419
0.0616286
0.0610733
0.0605797
0.0601573
0.0598146
0.0595543
0.0593708
0.0592539
0.0591943
0.0549308
0.0549951
0.0551285
0.05533
0.0556015
0.055945
0.0563629
0.0568572
0.0574296
0.0580822
0.0588182
0.059642
0.0605599
0.0615785
0.0627038
0.0639393
0.0652858
0.0667431
0.0683125
0.0700003
0.0718194
0.073789
0.0759315
0.078269
0.0808205
0.0836023
0.0866285
0.0899109
0.0934643
0.097284
0.101346
0.105595
0.109945
0.11428
0.11846
0.12233
0.125722
0.128466
0.130407
0.131428
0.131455
0.130476
0.128562
0.125847
0.122506
0.118675
0.114561
0.110343
0.106152
0.102034
0.0981137
0.0944326
0.091026
0.0879151
0.0850511
0.0824507
0.0800248
0.0777677
0.0756899
0.073767
0.0719881
0.0703502
0.0688468
0.0674752
0.0662319
0.0651041
0.0640783
0.0631504
0.0623209
0.0615829
0.0609213
0.0603219
0.0597792
0.0592976
0.0588864
0.0585537
0.0583015
0.0581248
0.0580133
0.0579579
0.0536674
0.053728
0.0538528
0.0540423
0.0542986
0.0546244
0.0550222
0.0554945
0.0560432
0.0566712
0.0573826
0.0581831
0.0590795
0.0600784
0.0611843
0.0623992
0.0637231
0.0651564
0.0667035
0.0683754
0.0701904
0.0721721
0.0743459
0.076737
0.0793695
0.0822692
0.0854639
0.0889822
0.0928358
0.0970403
0.10157
0.106369
0.111349
0.116392
0.121342
0.126011
0.130173
0.133583
0.136008
0.137277
0.137303
0.136078
0.133695
0.130336
0.126265
0.121659
0.11675
0.111759
0.106897
0.102194
0.0977627
0.0936543
0.0899385
0.0866006
0.0835488
0.0808469
0.0783921
0.0761257
0.0740456
0.0721329
0.0703732
0.0687546
0.0672649
0.0659037
0.0646747
0.0635701
0.0625756
0.0616817
0.0608827
0.060169
0.0595263
0.0589427
0.0584152
0.0579486
0.0575517
0.0572316
0.05699
0.0568219
0.0567175
0.0566672
0.0523508
0.0524074
0.0525239
0.0527013
0.0529422
0.0532495
0.0536259
0.0540738
0.0545957
0.0551953
0.0558774
0.0566487
0.0575159
0.0584849
0.059559
0.0607389
0.0620245
0.0634181
0.0649279
0.0665695
0.0683651
0.0703409
0.0725247
0.0749455
0.0776356
0.080633
0.0839807
0.0877197
0.0918787
0.0964701
0.101488
0.10689
0.112606
0.118521
0.12446
0.130174
0.135349
0.139634
0.142696
0.144297
0.144329
0.142795
0.139805
0.135583
0.130513
0.124889
0.118986
0.113073
0.107439
0.102134
0.0972126
0.0926716
0.0885783
0.085013
0.081823
0.0790238
0.0765342
0.0742742
0.0722066
0.0703096
0.0685741
0.0669872
0.0655322
0.0642046
0.0630071
0.0619352
0.0609772
0.0601221
0.0593598
0.0586767
0.0580584
0.0574955
0.0569871
0.0565391
0.0561596
0.0558551
0.0556269
0.0554697
0.0553737
0.0553288
0.0509829
0.0510356
0.0511439
0.0513095