/*--------------------------------*- C++ -*----------------------------------*\
| =========                 |                                                 |
| \\      /  F ield         | OpenFOAM: The Open Source CFD Toolbox           |
|  \\    /   O peration     | Version:  2412                                  |
|   \\  /    A nd           | Website:  www.openfoam.com                      |
|    \\/     M anipulation  |                                                 |
\*---------------------------------------------------------------------------*/
FoamFile
{
    version     2.0;
    format      ascii;
    arch        "LSB;label=32;scalar=64";
    class       surfaceScalarField;
    location    "0.65";
    object      phi;
}
// * * * * * * * * * * * * * * * * * * * * * * * * * * * * * * * * * * * * * //

dimensions      [0 3 -1 0 0 0 0];

oriented        oriented;

internalField   nonuniform List<scalar> 
12640
(
-1.11623e-13
1.11574e-13
2.30931e-13
2.35316e-12
-2.40954e-12
5.06654e-12
-7.82082e-12
7.64946e-12
-1.54984e-11
9.73079e-12
-2.49803e-11
1.12342e-11
-3.58293e-11
1.222e-11
-4.7636e-11
1.27616e-11
-5.99971e-11
1.29156e-11
-7.25729e-11
1.27075e-11
-8.50376e-11
1.21991e-11
-9.71214e-11
1.14743e-11
-1.08547e-10
1.05017e-11
-1.19113e-10
9.41607e-12
-1.28601e-10
8.19367e-12
-1.36864e-10
6.90451e-12
-1.4378e-10
5.57667e-12
-1.49266e-10
4.23563e-12
-1.53276e-10
2.90827e-12
-1.55799e-10
1.61887e-12
-1.5685e-10
3.81946e-13
-1.56478e-10
-7.93764e-13
-1.54753e-10
-1.90355e-12
-1.51762e-10
-2.94332e-12
-1.476e-10
-3.91544e-12
-1.4236e-10
-4.82707e-12
-1.36137e-10
-5.68095e-12
-1.29027e-10
-6.47892e-12
-1.2112e-10
-7.22709e-12
-1.12494e-10
-7.93168e-12
-1.03223e-10
-8.59459e-12
-9.33738e-11
-9.21495e-12
-8.30102e-11
-9.79147e-12
-7.219e-11
-1.03227e-11
-6.09674e-11
-1.08066e-11
-4.9397e-11
-1.1239e-11
-3.75376e-11
-1.1613e-11
-2.54535e-11
-1.19206e-11
-1.32114e-11
-1.21571e-11
-8.76163e-13
-1.23233e-11
1.14913e-11
-1.24231e-11
2.38325e-11
-1.246e-11
3.60885e-11
-1.24349e-11
4.8199e-11
-1.23478e-11
6.01037e-11
-1.22004e-11
7.17463e-11
-1.19972e-11
8.30773e-11
-1.17448e-11
9.40531e-11
-1.14494e-11
1.04633e-10
-1.1114e-11
1.14774e-10
-1.07364e-11
1.24425e-10
-1.03106e-11
1.33527e-10
-9.83031e-12
1.42013e-10
-9.29033e-12
1.49808e-10
-8.68566e-12
1.5682e-10
-8.00745e-12
1.62942e-10
-7.24103e-12
1.68043e-10
-6.36891e-12
1.71979e-10
-5.37662e-12
1.746e-10
-4.25595e-12
1.75765e-10
-3.00339e-12
1.75344e-10
-1.61711e-12
1.73228e-10
-9.73361e-14
1.69335e-10
1.55066e-12
1.63616e-10
3.31287e-12
1.56066e-10
5.16227e-12
1.4673e-10
7.05335e-12
1.35714e-10
8.92546e-12
1.23176e-10
1.07157e-11
1.0932e-10
1.23638e-11
9.4416e-11
1.37909e-11
7.88359e-11
1.48864e-11
6.30513e-11
1.55416e-11
4.75929e-11
1.56951e-11
3.30452e-11
1.52943e-11
2.00981e-11
1.42325e-11
9.51836e-12
1.24192e-11
2.041e-12
9.86507e-12
-1.71819e-12
6.68999e-12
-1.81639e-12
3.62432e-12
2.22545e-12
-1.45686e-12
4.30034e-12
-5.57239e-12
1.1489e-11
-1.58149e-11
1.96535e-11
-3.19124e-11
2.74514e-11
-5.2972e-11
3.39263e-11
-7.80313e-11
3.87989e-11
-1.06101e-10
4.20872e-11
-1.36254e-10
4.39112e-11
-1.67523e-10
4.4423e-11
-1.99085e-10
4.37849e-11
-2.30178e-10
4.2142e-11
-2.60081e-10
3.97142e-11
-2.88198e-10
3.65531e-11
-3.13987e-10
3.28814e-11
-3.37017e-10
2.87861e-11
-3.56925e-10
2.44104e-11
-3.73436e-10
1.98586e-11
-3.86371e-10
1.52202e-11
-3.95641e-10
1.05823e-11
-4.01228e-10
6.01677e-12
-4.03188e-10
1.58277e-12
-4.01641e-10
-2.67644e-12
-3.9675e-10
-6.73487e-12
-3.88712e-10
-1.05729e-11
-3.77748e-10
-1.41845e-11
-3.64086e-10
-1.75753e-11
-3.47957e-10
-2.07487e-11
-3.29583e-10
-2.37099e-11
-3.09173e-10
-2.64706e-11
-2.86923e-10
-2.9041e-11
-2.63019e-10
-3.14237e-11
-2.37636e-10
-3.36166e-11
-2.10939e-10
-3.56183e-11
-1.83082e-10
-3.74288e-11
-1.54212e-10
-3.90462e-11
-1.24479e-10
-4.04625e-11
-9.40314e-11
-4.16637e-11
-6.30261e-11
-4.26351e-11
-3.16197e-11
-4.33701e-11
3.37831e-14
-4.38729e-11
3.17838e-11
-4.41534e-11
6.3483e-11
-4.42213e-11
9.49854e-11
-4.40823e-11
1.26147e-10
-4.37408e-11
1.56829e-10
-4.32037e-11
1.86898e-10
-4.24833e-11
2.16233e-10
-4.15956e-11
2.44718e-10
-4.05539e-11
2.72239e-10
-3.93627e-11
2.98674e-10
-3.8014e-11
3.23887e-10
-3.6491e-11
3.47725e-10
-3.47737e-11
3.70011e-10
-3.28418e-11
3.90542e-10
-3.06699e-11
4.09078e-10
-2.82195e-11
4.25336e-10
-2.54371e-11
4.38993e-10
-2.22626e-11
4.49693e-10
-1.8642e-11
4.57067e-10
-1.45334e-11
4.60748e-10
-9.90835e-12
4.60391e-10
-4.75271e-12
4.55694e-10
9.26122e-13
4.46421e-10
7.09023e-12
4.32421e-10
1.36609e-11
4.1366e-10
2.05037e-11
3.90245e-10
2.74214e-11
3.62439e-10
3.41752e-11
3.30653e-10
4.05219e-11
2.95457e-10
4.62109e-11
2.57617e-10
5.09462e-11
2.18112e-10
5.43988e-11
1.78087e-10
5.62865e-11
1.38824e-10
5.63943e-11
1.01744e-10
5.45258e-11
6.83543e-11
5.05295e-11
4.02178e-11
4.44043e-11
1.89499e-11
3.62827e-11
5.96269e-12
2.64896e-11
1.61098e-12
1.61317e-11
6.89537e-12
-3.78801e-12
1.05144e-11
-1.3724e-11
2.56229e-11
-3.19583e-11
4.16272e-11
-5.79722e-11
5.66766e-11
-9.0607e-11
6.92417e-11
-1.28592e-10
7.88843e-11
-1.70583e-10
8.5584e-11
-2.15298e-10
8.94773e-11
-2.61434e-10
9.07749e-11
-3.07791e-10
8.97843e-11
-3.53319e-10
8.67864e-11
-3.9698e-10
8.20612e-11
-4.37943e-10
7.58881e-11
-4.75429e-10
6.8564e-11
-5.08822e-10
6.03075e-11
-5.37636e-10
5.13752e-11
-5.61495e-10
4.19973e-11
-5.80132e-10
3.2355e-11
-5.93417e-10
2.26373e-11
-6.0134e-10
1.30047e-11
-6.03978e-10
3.58722e-12
-6.01482e-10
-5.51012e-12
-5.94074e-10
-1.421e-11
-5.82027e-10
-2.24544e-11
-5.65646e-10
-3.02109e-11
-5.4525e-10
-3.74703e-11
-5.21158e-10
-4.42333e-11
-4.9368e-10
-5.05086e-11
-4.63116e-10
-5.63123e-11
-4.29755e-10
-6.16581e-11
-3.93872e-10
-6.65519e-11
-3.55732e-10
-7.09967e-11
-3.15586e-10
-7.49982e-11
-2.73674e-10
-7.85646e-11
-2.30227e-10
-8.17005e-11
-1.85475e-10
-8.44014e-11
-1.39648e-10
-8.66538e-11
-9.29748e-11
-8.84434e-11
-4.56883e-11
-8.9765e-11
1.98103e-12
-9.0627e-11
4.98043e-11
-9.10461e-11
9.75572e-11
-9.10394e-11
1.45021e-10
-9.06207e-11
1.91984e-10
-8.98012e-11
2.3824e-10
-8.8595e-11
2.83595e-10
-8.70215e-11
3.27861e-10
-8.5103e-11
3.70855e-10
-8.28558e-11
4.12395e-10
-8.02811e-11
4.52287e-10
-7.73601e-11
4.90319e-10
-7.40585e-11
5.26253e-10
-7.0333e-11
5.59818e-10
-6.61339e-11
5.90699e-10
-6.13978e-11
6.18531e-10
-5.60403e-11
6.42895e-10
-4.99571e-11
6.63323e-10
-4.3037e-11
6.79309e-10
-3.51782e-11
6.90322e-10
-2.62998e-11
6.95834e-10
-1.6352e-11
6.95349e-10
-5.32813e-12
6.88434e-10
6.7241e-12
6.7475e-10
1.96904e-11
6.54084e-10
3.33678e-11
6.26395e-10
4.74361e-11
5.91852e-10
6.14599e-11
5.50842e-10
7.49425e-11
5.03983e-10
8.73709e-11
4.52153e-10
9.81973e-11
3.96515e-10
1.06829e-10
3.38459e-10
1.12725e-10
2.79574e-10
1.15453e-10
2.21687e-10
1.14614e-10
1.66791e-10
1.09881e-10
1.16865e-10
1.01162e-10
7.39398e-11
8.85419e-11
4.00441e-11
7.23955e-11
1.69136e-11
5.35198e-11
5.30229e-12
3.34679e-11
1.38754e-11
-6.06976e-12
1.87444e-11
-2.1786e-11
4.46856e-11
-4.76658e-11
7.05031e-11
-8.26999e-11
9.43191e-11
-1.25432e-10
1.14172e-10
-1.74346e-10
1.29525e-10
-2.27811e-10
1.4031e-10
-2.84277e-10
1.46728e-10
-3.42261e-10
1.49069e-10
-4.00291e-10
1.47692e-10
-4.5709e-10
1.4311e-10
-5.11441e-10
1.3565e-10
-5.62343e-10
1.25789e-10
-6.0889e-10
1.13955e-10
-6.50324e-10
1.00537e-10
-6.86048e-10
8.59165e-11
-7.15634e-10
7.04588e-11
-7.38777e-10
5.44661e-11
-7.55304e-10
3.8257e-11
-7.65185e-10
2.21195e-11
-7.68499e-10
6.27767e-12
-7.65413e-10
-9.08375e-12
-7.56178e-10
-2.38095e-11
-7.41106e-10
-3.77818e-11
-7.20545e-10
-5.09279e-11
-6.94865e-10
-6.32127e-11
-6.64444e-10
-7.46263e-11
-6.29654e-10
-8.51763e-11
-5.9086e-10
-9.48795e-11
-5.48422e-10
-1.03752e-10
-5.02689e-10
-1.11805e-10
-4.53997e-10
-1.19054e-10
-4.02672e-10
-1.25519e-10
-3.49032e-10
-1.31221e-10
-2.93382e-10
-1.3618e-10
-2.36025e-10
-1.40402e-10
-1.77259e-10
-1.43882e-10
-1.17386e-10
-1.46609e-10
-5.6709e-11
-1.48584e-10
4.46923e-12
-1.49819e-10
6.58496e-11
-1.50337e-10
1.27139e-10
-1.50166e-10
1.88055e-10
-1.49326e-10
2.4832e-10
-1.47838e-10
3.0767e-10
-1.45721e-10
3.65847e-10
-1.43e-10
4.22601e-10
-1.39699e-10
4.77687e-10
-1.35833e-10
5.30855e-10
-1.31395e-10
5.8184e-10
-1.2635e-10
6.30358e-10
-1.20639e-10
6.76094e-10
-1.14187e-10
7.1869e-10
-1.06906e-10
7.57738e-10
-9.86828e-11
7.92776e-10
-8.93822e-11
8.23287e-10
-7.88456e-11
8.48704e-10
-6.69087e-11
8.68415e-10
-5.34202e-11
8.81788e-10
-3.82642e-11
8.88196e-10
-2.13841e-11
8.87058e-10
-2.80415e-12
8.77872e-10
1.73587e-11
8.60244e-10
3.88772e-11
8.33941e-10
6.13737e-11
7.98942e-10
8.42832e-11
7.55474e-10
1.06879e-10
7.04026e-10
1.28355e-10
6.45381e-10
1.4786e-10
5.80654e-10
1.64492e-10
5.11269e-10
1.77349e-10
4.38889e-10
1.85678e-10
3.65419e-10
1.88878e-10
2.93019e-10
1.86424e-10
2.23981e-10
1.78016e-10
1.60669e-10
1.63637e-10
1.05497e-10
1.43393e-10
6.06815e-11
1.17815e-10
2.80618e-11
8.79436e-11
8.77511e-12
5.57262e-11
2.24654e-11
-8.05163e-12
2.86543e-11
-2.8993e-11
6.81617e-11
-6.18388e-11
1.05574e-10
-1.04964e-10
1.39398e-10
-1.56542e-10
1.67432e-10
-2.14773e-10
1.89125e-10
-2.77832e-10
2.04424e-10
-3.43923e-10
2.13577e-10
-4.11384e-10
2.17023e-10
-4.7864e-10
2.15171e-10
-5.44242e-10
2.08711e-10
-6.0688e-10
1.98123e-10
-6.65421e-10
1.84049e-10
-7.18903e-10
1.67047e-10
-7.66519e-10
1.47673e-10
-8.07608e-10
1.26473e-10
-8.41678e-10
1.03962e-10
-8.68403e-10
8.05983e-11
-8.87592e-10
5.68326e-11
-8.99188e-10
3.30828e-11
-9.03252e-10
9.68922e-12
-8.99947e-10
-1.30589e-11
-8.89521e-10
-3.4912e-11
-8.7229e-10
-5.56773e-11
-8.48616e-10
-7.52267e-11
-8.18892e-10
-9.34888e-11
-7.83524e-10
-1.10435e-10
-7.42923e-10
-1.26063e-10
-6.975e-10
-1.4039e-10
-6.47665e-10
-1.53432e-10
-5.93824e-10
-1.65215e-10
-5.36376e-10
-1.75766e-10
-4.75712e-10
-1.85124e-10
-4.12215e-10
-1.93331e-10
-3.46257e-10
-2.00425e-10
-2.78209e-10
-2.06427e-10
-2.08439e-10
-2.11341e-10
-1.3732e-10
-2.15164e-10
-6.5224e-11
-2.17901e-10
7.47663e-12
-2.19569e-10
8.0416e-11
-2.20201e-10
1.53236e-10
-2.1983e-10
2.2559e-10
-2.18487e-10
2.97141e-10
-2.16198e-10
3.6756e-10
-2.12985e-10
4.36531e-10
-2.08875e-10
5.0374e-10
-2.03891e-10
5.68876e-10
-1.98041e-10
6.31622e-10
-1.91303e-10
6.91647e-10
-1.83625e-10
7.48594e-10
-1.74919e-10
8.02076e-10
-1.65075e-10
8.51661e-10
-1.5396e-10
8.96868e-10
-1.41413e-10
9.37168e-10
-1.27249e-10
9.71978e-10
-1.11258e-10
1.00067e-09
-9.32229e-11
1.02258e-09
-7.29475e-11
1.03701e-09
-5.02912e-11
1.04332e-09
-2.52079e-11
1.04088e-09
2.23017e-12
1.02917e-09
3.18203e-11
1.00779e-09
6.31974e-11
9.76526e-10
9.57727e-11
9.354e-10
1.28705e-10
8.84695e-10
1.60958e-10
8.24986e-10
1.91385e-10
7.57189e-10
2.18758e-10
6.82573e-10
2.41807e-10
6.02705e-10
2.59342e-10
5.19447e-10
2.70345e-10
4.3495e-10
2.73975e-10
3.5152e-10
2.69647e-10
2.71591e-10
2.57118e-10
1.97811e-10
2.36392e-10
1.3281e-10
2.07723e-10
7.89761e-11
1.71634e-10
3.81228e-11
1.29097e-10
1.17485e-11
8.21488e-11
3.19761e-11
-9.74311e-12
3.98117e-11
-3.52302e-11
9.53049e-11
-7.42502e-11
1.46004e-10
-1.24552e-10
1.90952e-10
-1.83893e-10
2.27903e-10
-2.50137e-10
2.56365e-10
-3.2126e-10
2.76426e-10
-3.95317e-10
2.88398e-10
-4.70445e-10
2.9285e-10
-5.45009e-10
2.90365e-10
-6.17461e-10
2.81731e-10
-6.86487e-10
2.67635e-10
-7.50882e-10
2.48872e-10
-8.09652e-10
2.26173e-10
-8.61983e-10
2.00254e-10
-9.07205e-10
1.71824e-10
-9.44797e-10
1.41546e-10
-9.74409e-10
1.10042e-10
-9.95838e-10
7.7917e-11
-1.009e-09
4.57251e-11
-1.01392e-09
1.39316e-11
-1.01073e-09
-1.70553e-11
-9.9966e-10
-4.68809e-11
-9.80999e-10
-7.52684e-11
-9.55103e-10
-1.02027e-10
-9.22359e-10
-1.27039e-10
-8.83182e-10
-1.50251e-10
-8.37999e-10
-1.71648e-10
-7.8725e-10
-1.91241e-10
-7.31382e-10
-2.09053e-10
-6.70843e-10
-2.25119e-10
-6.06085e-10
-2.39484e-10
-5.37552e-10
-2.52205e-10
-4.65683e-10
-2.63347e-10
-3.90917e-10
-2.72963e-10
-3.13689e-10
-2.81088e-10
-2.3444e-10
-2.87732e-10
-1.53613e-10
-2.92899e-10
-7.1652e-11
-2.96595e-10
1.10047e-11
-2.98845e-10
9.39236e-11
-2.99684e-10
1.76682e-10
-2.99153e-10
2.58867e-10
-2.97287e-10
3.40079e-10
-2.94114e-10
4.19926e-10
-2.89659e-10
4.98026e-10
-2.83948e-10
5.74e-10
-2.76998e-10
6.47469e-10
-2.68809e-10
7.18049e-10
-2.59347e-10
7.85341e-10
-2.48537e-10
8.48923e-10
-2.36267e-10
9.08342e-10
-2.22392e-10
9.63107e-10
-2.06737e-10
1.01269e-09
-1.89104e-10
1.0565e-09
-1.6926e-10
1.09395e-09
-1.46951e-10
1.12436e-09
-1.21915e-10
1.14706e-09
-9.39181e-11
1.16137e-09
-6.28101e-11
1.16661e-09
-2.85695e-11
1.16222e-09
8.67626e-12
1.14766e-09
4.86332e-11
1.12259e-09
9.07842e-11
1.08683e-09
1.34315e-10
1.04046e-09
1.78111e-10
9.83826e-10
2.20833e-10
9.17571e-10
2.60985e-10
8.42712e-10
2.96953e-10
7.60596e-10
3.27119e-10
6.72875e-10
3.49993e-10
5.81552e-10
3.64227e-10
4.88909e-10
3.68721e-10
3.97328e-10
3.62818e-10
3.09389e-10
3.4614e-10
2.27805e-10
3.1868e-10
1.55234e-10
2.80838e-10
9.41642e-11
2.33033e-10
4.64014e-11
1.76105e-10
1.38753e-11
1.1193e-10
4.21652e-11
-1.11839e-11
5.18876e-11
-4.06036e-11
1.25465e-10
-8.50259e-11
1.91034e-10
-1.41651e-10
2.48145e-10
-2.07813e-10
2.94656e-10
-2.81041e-10
3.30234e-10
-3.5903e-10
3.55144e-10
-4.39715e-10
3.69899e-10
-5.21108e-10
3.75174e-10
-6.01512e-10
3.7179e-10
-6.79319e-10
3.60653e-10
-7.53243e-10
3.42692e-10
-8.22095e-10
3.18836e-10
-8.84882e-10
2.90005e-10
-9.40803e-10
2.57083e-10
-9.89206e-10
2.20932e-10
-1.02958e-09
1.82379e-10
-1.06157e-09
1.42209e-10
-1.08493e-09
1.01179e-10
-1.09955e-09
5.9974e-11
-1.10542e-09
1.91887e-11
-1.10263e-09
-2.06438e-11
-1.09135e-09
-5.90599e-11
-1.07184e-09
-9.56953e-11
-1.04443e-09
-1.30291e-10
-1.00949e-09
-1.62684e-10
-9.67407e-10
-1.92788e-10
-9.18627e-10
-2.20574e-10
-8.63597e-10
-2.46046e-10
-8.02789e-10
-2.69233e-10
-7.36684e-10
-2.90177e-10
-6.65769e-10
-3.08935e-10
-5.90535e-10
-3.25583e-10
-5.11475e-10
-3.40196e-10
-4.29088e-10
-3.52836e-10
-3.43879e-10
-3.63542e-10
-2.56357e-10
-3.72325e-10
-1.67038e-10
-3.79186e-10
-7.6434e-11
-3.84131e-10
1.49459e-11
-3.87184e-10
1.066e-10
-3.88381e-10
1.98038e-10
-3.87764e-10
2.8878e-10
-3.85371e-10
3.78357e-10
-3.81231e-10
4.66308e-10
-3.7537e-10
5.52181e-10
-3.6781e-10
6.35526e-10
-3.58567e-10
7.15896e-10
-3.47635e-10
7.9284e-10
-3.3497e-10
8.65894e-10
-3.20485e-10
9.34576e-10
-3.04045e-10
9.9838e-10
-2.85479e-10
1.05677e-09
-2.64585e-10
1.10918e-09
-2.4113e-10
1.15502e-09
-2.14853e-10
1.19367e-09
-1.85463e-10
1.22447e-09
-1.52662e-10
1.24677e-09
-1.16197e-10
1.25991e-09
-7.59245e-11
1.2633e-09
-3.1858e-11
1.25639e-09
1.58191e-11
1.23873e-09
6.67191e-11
1.21002e-09
1.20167e-10
1.17016e-09
1.75133e-10
1.1193e-09
2.30257e-10
1.05781e-09
2.8393e-10
9.86424e-10
3.34327e-10
9.06182e-10
3.79481e-10
8.18469e-10
4.17444e-10
7.25007e-10
4.46379e-10
6.27856e-10
4.6458e-10
5.29297e-10
4.70718e-10
4.31807e-10
4.63914e-10
3.38097e-10
4.43499e-10
2.50824e-10
4.09389e-10
1.72562e-10
3.61889e-10
1.05768e-10
3.01273e-10
5.23954e-11
2.28298e-10
1.4951e-11
1.44832e-10
5.33772e-11
-1.24256e-11
6.46763e-11
-4.52657e-11
1.58139e-10
-9.44488e-11
2.40063e-10
-1.567e-10
3.10334e-10
-2.28908e-10
3.66971e-10
-3.08286e-10
4.09939e-10
-3.92258e-10
4.39712e-10
-4.78562e-10
4.57068e-10
-5.65142e-10
4.62903e-10
-6.5025e-10
4.58273e-10
-7.32299e-10
4.4426e-10
-8.09992e-10
4.22045e-10
-8.82224e-10
3.92718e-10
-9.48059e-10
3.5739e-10
-1.00673e-09
3.17123e-10
-1.05762e-09
2.72926e-10
-1.10023e-09
2.25777e-10
-1.13419e-09
1.76621e-10
-1.15924e-09
1.26355e-10
-1.17524e-09
7.57883e-11
-1.18211e-09
2.56437e-11
-1.1799e-09
-2.34265e-11
-1.16873e-09
-7.08562e-11
-1.14882e-09
-1.16196e-10
-1.12044e-09
-1.59122e-10
-1.08392e-09
-1.99425e-10
-1.03964e-09
-2.36987e-10
-9.88033e-10
-2.71761e-10
-9.29545e-10
-3.03741e-10
-8.6466e-10
-3.32955e-10
-7.93879e-10
-3.59445e-10
-7.17718e-10
-3.83276e-10
-6.36706e-10
-4.0452e-10
-5.51387e-10
-4.23249e-10
-4.62318e-10
-4.39519e-10
-3.70069e-10
-4.53356e-10
-2.75219e-10
-4.64759e-10
-1.78352e-10
-4.73719e-10
-8.00515e-11
-4.80232e-10
1.91026e-11
-4.84315e-10
1.18537e-10
-4.86001e-10
2.17687e-10
-4.85332e-10
3.16001e-10
-4.82345e-10
4.12931e-10
-4.77072e-10
5.07943e-10
-4.6954e-10
6.00506e-10
-4.59773e-10
6.90099e-10
-4.4779e-10
7.76204e-10
-4.3359e-10
8.58304e-10
-4.17131e-10
9.35876e-10
-3.9832e-10
1.00839e-09
-3.77013e-10
1.07529e-09
-3.53025e-10
1.13601e-09
-3.26138e-10
1.18998e-09
-2.96106e-10
1.23661e-09
-2.6265e-10
1.27529e-09
-2.25458e-10
1.30541e-09
-1.84217e-10
1.32635e-09
-1.38674e-10
1.33755e-09
-8.87127e-11
1.33848e-09
-3.43895e-11
1.32868e-09
2.40526e-11
1.30778e-09
8.61271e-11
1.27557e-09
1.51004e-10
1.23204e-09
2.17463e-10
1.17738e-09
2.83943e-10
1.11203e-09
3.48603e-10
1.03673e-09
4.09347e-10
9.52516e-10
4.63935e-10
8.60766e-10
5.10107e-10
7.63244e-10
5.45646e-10
6.61972e-10
5.68535e-10
5.59176e-10
5.77173e-10
4.57414e-10
5.70275e-10
3.59375e-10
5.46896e-10
2.67737e-10
5.06622e-10
1.85008e-10
4.49433e-10
1.13586e-10
3.75399e-10
5.58139e-11
2.85187e-10
1.50258e-11
1.811e-10
6.63441e-11
-1.35283e-11
7.80952e-11
-4.93987e-11
1.93066e-10
-1.02872e-10
2.92732e-10
-1.7026e-10
3.77131e-10
-2.48009e-10
4.4443e-10
-3.32929e-10
4.9494e-10
-4.22216e-10
5.29501e-10
-5.13414e-10
5.49179e-10
-6.04388e-10
5.55188e-10
-6.93342e-10
5.48862e-10
-7.78789e-10
5.31559e-10
-8.59447e-10
5.04685e-10
-9.34284e-10
4.69542e-10
-1.00245e-09
4.27423e-10
-1.06324e-09
3.79563e-10
-1.11608e-09
3.2712e-10
-1.1605e-09
2.71218e-10
-1.19612e-09
2.12935e-10
-1.22267e-09
1.53287e-10
-1.23994e-09
9.31965e-11
-1.24782e-09
3.35056e-11
-1.24631e-09
-2.50258e-11
-1.23546e-09
-8.17424e-11
-1.21544e-09
-1.36123e-10
-1.18647e-09
-1.87786e-10
-1.14884e-09
-2.36478e-10
-1.10289e-09
-2.82048e-10
-1.04904e-09
-3.24424e-10
-9.87732e-10
-3.63586e-10
-9.19439e-10
-3.99547e-10
-8.44674e-10
-4.32336e-10
-7.63972e-10
-4.61999e-10
-6.77898e-10
-4.88584e-10
-5.8704e-10
-5.12139e-10
-4.92009e-10
-5.32686e-10
-3.93437e-10
-5.50225e-10
-2.91968e-10
-5.64728e-10
-1.88253e-10
-5.76162e-10
-8.29498e-11
-5.84508e-10
2.32868e-11
-5.89771e-10
1.29806e-10
-5.91979e-10
2.35964e-10
-5.91172e-10
3.41122e-10
-5.87391e-10
4.44651e-10
-5.8067e-10
5.4593e-10
-5.71045e-10
6.4435e-10
-5.58554e-10
7.39314e-10
-5.43233e-10
8.30234e-10
-5.25095e-10
9.16533e-10
-5.04112e-10
9.97634e-10
-4.80199e-10
1.07296e-09
-4.53217e-10
1.14193e-09
-4.22982e-10
1.20396e-09
-3.89278e-10
1.25849e-09
-3.51861e-10
1.30494e-09
-3.10453e-10
1.34275e-09
-2.64742e-10
1.37137e-09
-2.14423e-10
1.39027e-09
-1.59269e-10
1.39898e-09
-9.92091e-11
1.39707e-09
-3.43545e-11
1.38418e-09
3.49792e-11
1.36007e-09
1.08195e-10
1.32461e-09
1.84319e-10
1.27788e-09
2.61974e-10
1.22013e-09
3.39438e-10
1.15183e-09
4.1467e-10
1.07372e-09
4.85379e-10
9.86776e-10
5.49141e-10
8.92335e-10
6.03428e-10
7.92109e-10
6.45691e-10
6.88017e-10
6.73677e-10
5.82236e-10
6.85412e-10
4.77277e-10
6.79129e-10
3.75696e-10
6.53635e-10
2.80217e-10
6.07918e-10
1.93449e-10
5.41441e-10
1.17971e-10
4.54013e-10
5.68164e-11
3.46223e-10
1.4447e-11
2.20975e-10
8.17193e-11
-1.45459e-11
9.21148e-11
-5.32388e-11
2.30201e-10
-1.10787e-10
3.48971e-10
-1.83046e-10
4.48406e-10
-2.66041e-10
5.26838e-10
-3.56165e-10
5.84951e-10
-4.50321e-10
6.24065e-10
-5.45904e-10
6.45668e-10
-6.40711e-10
6.51351e-10
-7.32911e-10
6.42802e-10
-8.21108e-10
6.2174e-10
-9.04114e-10
5.8979e-10
-9.80987e-10
5.48503e-10
-1.05096e-09
4.99368e-10
-1.11341e-09
4.43766e-10
-1.1678e-09
3.82996e-10
-1.2137e-09
3.18308e-10
-1.25073e-09
2.50891e-10
-1.27858e-09
1.81853e-10
-1.29701e-09
1.12215e-10
-1.30586e-09
4.29165e-11
-1.30508e-09
-2.51935e-11
-1.29466e-09
-9.13897e-11
-1.27472e-09
-1.55092e-10
-1.24541e-09
-2.1587e-10
-1.20699e-09
-2.73425e-10
-1.15977e-09
-3.27569e-10
-1.10413e-09
-3.78198e-10
-1.04047e-09
-4.25262e-10
-9.69279e-10
-4.68736e-10
-8.9105e-10
-5.08613e-10
-8.06338e-10
-5.44889e-10
-7.15734e-10
-5.77562e-10
-6.19863e-10
-6.06624e-10
-5.19387e-10
-6.32049e-10
-4.14993e-10
-6.53787e-10
-3.07388e-10
-6.71774e-10
-1.97296e-10
-6.85946e-10
-8.54496e-11
-6.96263e-10
2.74152e-11
-7.02716e-10
1.4056e-10
-7.05328e-10
2.5325e-10
-7.04143e-10
3.64752e-10
-6.99207e-10
4.74345e-10
-6.90572e-10
5.81318e-10
-6.78292e-10
6.8498e-10
-6.62435e-10
7.84659e-10
-6.43062e-10
8.79701e-10
-6.20217e-10
9.69469e-10
-5.93897e-10
1.05334e-09
-5.64038e-10
1.1307e-09
-5.30517e-10
1.20095e-09
-4.93168e-10
1.26351e-09
-4.51793e-10
1.31783e-09
-4.06166e-10
1.3634e-09
-3.56031e-10
1.39969e-09
-3.01096e-10
1.42626e-09
-2.41089e-10
1.44267e-09
-1.75834e-10
1.44857e-09
-1.05319e-10
1.44364e-09
-2.97223e-11
1.42765e-09
5.05459e-11
1.40046e-09
1.34762e-10
1.36207e-09
2.21814e-10
1.31263e-09
3.10207e-10
1.25245e-09
3.98074e-10
1.18204e-09
4.83213e-10
1.10211e-09
5.63191e-10
1.01357e-09
6.35457e-10
9.17639e-10
6.97291e-10
8.1585e-10
7.45942e-10
7.09996e-10
7.78916e-10
6.02175e-10
7.93835e-10
4.9465e-10
7.88565e-10
3.89874e-10
7.61478e-10
2.90549e-10
7.10956e-10
1.99532e-10
6.35837e-10
1.20045e-10
5.35511e-10
5.62335e-11
4.10574e-10
1.38049e-11
2.64239e-10
9.95755e-11
-1.55586e-11
1.06825e-10
-5.70441e-11
2.69725e-10
-1.18738e-10
4.09021e-10
-1.95931e-10
5.24369e-10
-2.84127e-10
6.14264e-10
-3.79319e-10
6.799e-10
-4.78106e-10
7.2317e-10
-5.77711e-10
7.46125e-10
-6.759e-10
7.50842e-10
-7.70908e-10
7.39476e-10
-8.61381e-10
7.14134e-10
-9.46254e-10
6.76703e-10
-1.0247e-09
6.28975e-10
-1.09607e-09
5.72644e-10
-1.15981e-09
5.09236e-10
-1.21544e-09
4.4016e-10
-1.26255e-09
3.66761e-10
-1.30075e-09
2.90305e-10
-1.32972e-09
2.11967e-10
-1.34918e-09
1.32839e-10
-1.35893e-09
5.39349e-11
-1.35885e-09
-2.38322e-11
-1.34891e-09
-9.96806e-11
-1.32914e-09
-1.72981e-10
-1.29968e-09
-2.43256e-10
-1.26072e-09
-3.10164e-10
-1.21251e-09
-3.7347e-10
-1.15539e-09
-4.33022e-10
-1.08975e-09
-4.88715e-10
-1.01602e-09
-5.40462e-10
-9.34697e-10
-5.8818e-10
-8.46343e-10
-6.31788e-10
-7.51564e-10
-6.71206e-10
-6.51021e-10
-7.0635e-10
-5.45417e-10
-7.37124e-10
-4.35496e-10
-7.63421e-10
-3.22032e-10
-7.8513e-10
-2.05822e-10
-8.02155e-10
-8.76813e-11
-8.14436e-10
3.15611e-11
-8.21954e-10
1.51069e-10
-8.24732e-10
2.70002e-10
-8.22822e-10
3.87529e-10
-8.16291e-10
5.02828e-10
-8.05214e-10
6.151e-10
-7.89684e-10
7.23572e-10
-7.69803e-10
8.27497e-10
-7.45674e-10
9.26156e-10
-7.17374e-10
1.01886e-09
-6.84937e-10
1.10493e-09
-6.48328e-10
1.18374e-09
-6.07455e-10
1.25469e-09
-5.62181e-10
1.31722e-09
-5.1234e-10
1.37081e-09
-4.57746e-10
1.415e-09
-3.98174e-10
1.44938e-09
-3.33376e-10
1.47357e-09
-2.63136e-10
1.48727e-09
-1.87344e-10
1.49024e-09
-1.06051e-10
1.48227e-09
-1.95102e-11
1.46327e-09
7.17509e-11
1.43324e-09
1.66861e-10
1.39226e-09
2.64579e-10
1.34056e-09
3.63303e-10
1.27853e-09
4.61047e-10
1.20672e-09
5.55476e-10
1.12582e-09
6.44051e-10
1.03665e-09
7.24096e-10
9.40253e-10
7.92779e-10
8.37892e-10
8.47258e-10
7.31191e-10
8.84763e-10
6.22063e-10
9.02547e-10
5.12428e-10
8.98244e-10
4.04586e-10
8.69603e-10
3.01184e-10
8.14526e-10
2.05467e-10
7.31284e-10
1.2168e-10
6.18736e-10
5.55092e-11
4.77327e-10
1.37434e-11
3.10124e-10
1.19109e-10
-1.66747e-11
1.22432e-10
-6.1193e-11
3.12119e-10
-1.274e-10
4.73443e-10
-2.09917e-10
6.05548e-10
-3.03579e-10
7.07069e-10
-4.03895e-10
7.79879e-10
-5.07189e-10
8.26674e-10
-6.10533e-10
8.50198e-10
-7.11706e-10
8.53173e-10
-8.09071e-10
8.3831e-10
-9.01378e-10
8.08112e-10
-9.87699e-10
7.64798e-10
-1.06733e-09
7.10397e-10
-1.13974e-09
6.46775e-10
-1.20444e-09
5.75581e-10
-1.26103e-09
4.98304e-10
-1.30909e-09
4.16346e-10
-1.34826e-09
3.31011e-10
-1.37818e-09
2.43509e-10
-1.39853e-09
1.54971e-10
-1.40908e-09
6.64601e-11
-1.40966e-09
-2.10598e-11
-1.4002e-09
-1.06754e-10
-1.38068e-09
-1.89947e-10
-1.35119e-09
-2.70118e-10
-1.31185e-09
-3.46874e-10
-1.26288e-09
-4.19924e-10
-1.20452e-09
-4.89044e-10
-1.13713e-09
-5.54042e-10
-1.06111e-09
-6.14738e-10
-9.76929e-10
-6.70945e-10
-8.85147e-10
-7.22478e-10
-7.86385e-10
-7.69155e-10
-6.81333e-10
-8.10799e-10
-5.7074e-10
-8.47241e-10
-4.55409e-10
-8.78311e-10
-3.36182e-10
-9.03856e-10
-2.13941e-10
-9.23752e-10
-8.95948e-11
-9.3792e-10
3.59228e-11
-9.46338e-10
1.61665e-10
-9.49035e-10
2.86684e-10
-9.46079e-10
4.1004e-10
-9.37566e-10
5.30817e-10
-9.23609e-10
6.48126e-10
-9.04341e-10
7.61113e-10
-8.79905e-10
8.68956e-10
-8.50444e-10
9.70872e-10
-8.16078e-10
1.06612e-09
-7.76878e-10
1.15399e-09
-7.32852e-10
1.23385e-09
-6.83946e-10
1.30511e-09
-6.30068e-10
1.36723e-09
-5.71104e-10
1.41976e-09
-5.06915e-10
1.4623e-09
-4.37331e-10
1.49454e-09
-3.62163e-10
1.51624e-09
-2.81266e-10
1.5272e-09
-1.94605e-10
1.52728e-09
-1.02289e-10
1.51639e-09
-4.64654e-12
1.49457e-09
9.76695e-11
1.46195e-09
2.03625e-10
1.41872e-09
3.11853e-10
1.36519e-09
4.20665e-10
1.3018e-09
5.27979e-10
1.22915e-09
6.31366e-10
1.14793e-09
7.2818e-10
1.05888e-09
8.15611e-10
9.62801e-10
8.90768e-10
8.60693e-10
9.5072e-10
7.53917e-10
9.9242e-10
6.44043e-10
1.01284e-09
5.32739e-10
1.00925e-09
4.21975e-10
9.78873e-10
3.14335e-10
9.1916e-10
2.13573e-10
8.27952e-10
1.25156e-10
7.03626e-10
5.63679e-11
5.46053e-10
1.47358e-11
3.57707e-10
1.38925e-10
-1.80074e-11
1.3926e-10
-6.61989e-11
3.58221e-10
-1.37778e-10
5.43276e-10
-2.26385e-10
6.92833e-10
-3.26008e-10
8.05834e-10
-4.31597e-10
8.85077e-10
-5.39252e-10
9.34388e-10
-6.45976e-10
9.57434e-10
-7.49688e-10
9.57757e-10
-8.48891e-10
9.3865e-10
-9.42506e-10
9.03045e-10
-1.02978e-09
8.53499e-10
-1.11018e-09
7.92269e-10
-1.18324e-09
7.21352e-10
-1.24859e-09
6.42476e-10
-1.30585e-09
5.57177e-10
-1.35465e-09
4.66864e-10
-1.39459e-09
3.72838e-10
-1.42531e-09
2.76307e-10
-1.44644e-09
1.78414e-10
-1.45771e-09
8.02477e-11
-1.4589e-09
-1.71709e-11
-1.44992e-09
-1.12943e-10
-1.43071e-09
-2.06342e-10
-1.40129e-09
-2.96802e-10
-1.36172e-09
-3.83876e-10
-1.31213e-09
-4.67197e-10
-1.2527e-09
-5.46445e-10
-1.18372e-09
-6.21316e-10
-1.10554e-09
-6.91504e-10
-1.01861e-09
-7.56697e-10
-9.23482e-10
-8.16589e-10
-8.20786e-10
-8.70887e-10
-7.1125e-10
-9.19323e-10
-5.9567e-10
-9.61653e-10
-4.74913e-10
-9.97656e-10
-3.49903e-10
-1.02714e-09
-2.21615e-10
-1.04995e-09
-9.10645e-11
-1.066e-09
4.07e-11
-1.07526e-09
1.72617e-10
-1.07776e-09
3.03628e-10
-1.0736e-09
4.32693e-10
-1.06291e-09
5.588e-10
-1.04583e-09
6.80972e-10
-1.02253e-09
7.98273e-10
-9.93184e-10
9.09806e-10
-9.57985e-10
1.01473e-09
-9.17091e-10
1.11225e-09
-8.70622e-10
1.20166e-09
-8.18638e-10
1.2823e-09
-7.6114e-10
1.35361e-09
-6.98099e-10
1.4151e-09
-6.2947e-10
1.4664e-09
-5.5519e-10
1.50718e-09
-4.75156e-10
1.53725e-09
-3.89252e-10
1.55647e-09
-2.97419e-10
1.56478e-09
-1.99701e-10
1.56215e-09
-9.62638e-11
1.54857e-09
1.25085e-11
1.52419e-09
1.25848e-10
1.48929e-09
2.42557e-10
1.44419e-09
3.61141e-10
1.38923e-09
4.79846e-10
1.3249e-09
5.96556e-10
1.25186e-09
7.08796e-10
1.1708e-09
8.13823e-10
1.08242e-09
9.08684e-10
9.87269e-10
9.90451e-10
8.86039e-10
1.05607e-09
7.79749e-10
1.10223e-09
6.69584e-10
1.12564e-09
5.56981e-10
1.12299e-09
4.43559e-10
1.09108e-09
3.3178e-10
1.02691e-09
2.25908e-10
9.27853e-10
1.32589e-10
7.9178e-10
6.03175e-11
6.17581e-10
1.69202e-11
4.06653e-10
1.57896e-10
-1.98396e-11
1.57929e-10
-7.29206e-11
4.0943e-10
-1.51368e-10
6.20168e-10
-2.47278e-10
7.87538e-10
-3.53484e-10
9.11239e-10
-4.64417e-10
9.95613e-10
-5.76069e-10
1.04594e-09
-6.85589e-10
1.06719e-09
-7.9112e-10
1.06383e-09
-8.91425e-10
1.03972e-09
-9.85665e-10
9.98214e-10
-1.07329e-09
9.4219e-10
-1.15392e-09
8.74089e-10
-1.22721e-09
7.95983e-10
-1.29284e-09
7.09627e-10
-1.35048e-09
6.16549e-10
-1.39977e-09
5.18123e-10
-1.44032e-09
4.15604e-10
-1.47172e-09
3.10162e-10
-1.49356e-09
2.02916e-10
-1.5055e-09
9.49801e-11
-1.5073e-09
-1.25413e-11
-1.49881e-09
-1.18646e-10
-1.47996e-09
-2.22545e-10
-1.45072e-09
-3.23637e-10
-1.41104e-09
-4.21419e-10
-1.36095e-09
-5.15433e-10
-1.30057e-09
-6.05244e-10
-1.23008e-09
-6.90414e-10
-1.14979e-09
-7.70497e-10
-1.06013e-09
-8.45045e-10
-9.61639e-10
-9.13628e-10
-8.54978e-10
-9.75848e-10
-7.40906e-10
-1.03135e-09
-6.20278e-10
-1.07983e-09
-4.94032e-10
-1.12102e-09
-3.63185e-10
-1.15467e-09
-2.28815e-10
-1.18062e-09
-9.20533e-11
-1.19873e-09
4.59361e-11
-1.20898e-09
1.8398e-10
-1.21141e-09
3.20915e-10
-1.2061e-09
4.55604e-10
-1.19322e-09
5.86942e-10
-1.17292e-09
7.13862e-10
-1.14542e-09
8.35342e-10
-1.11091e-09
9.50416e-10
-1.06961e-09
1.05818e-09
-1.02175e-09
1.15782e-09
-9.67498e-10
1.2486e-09
-9.06994e-10
1.32986e-09
-8.40319e-10
1.40108e-09
-7.6753e-10
1.46184e-09
-6.88684e-10
1.51182e-09
-6.0382e-10
1.55082e-09
-5.12932e-10
1.57873e-09
-4.15998e-10
1.59555e-09
-3.13053e-10
1.60138e-09
-2.04229e-10
1.59628e-09
-8.97472e-11
1.58032e-09
2.9976e-11
1.55369e-09
1.54101e-10
1.51683e-09
2.81284e-10
1.47023e-09
4.09873e-10
1.41431e-09
5.38062e-10
1.34952e-09
6.63795e-10
1.27652e-09
7.84651e-10
1.19608e-09
8.97834e-10
1.10885e-09
1.0003e-09
1.01521e-09
1.08901e-09
9.15427e-10
1.1609e-09
8.10062e-10
1.21245e-09
7.0001e-10
1.23995e-09
5.86417e-10
1.23952e-09
4.70676e-10
1.20734e-09
3.55129e-10
1.13989e-09
2.44317e-10
1.03389e-09
1.45663e-10
8.86223e-10
6.83071e-11
6.94391e-10
2.0079e-11
4.58135e-10
1.76153e-10
-2.2747e-11
1.79617e-10
-8.3015e-11
4.68191e-10
-1.70618e-10
7.06538e-10
-2.75324e-10
8.91226e-10
-3.88699e-10
1.02386e-09
-5.04671e-10
1.11119e-09
-6.19484e-10
1.16056e-09
-7.30736e-10
1.17841e-09
-8.36966e-10
1.17022e-09
-9.37294e-10
1.14042e-09
-1.0312e-09
1.09269e-09
-1.11838e-09
1.03013e-09
-1.19858e-09
9.55281e-10
-1.27155e-09
8.70215e-10
-1.33703e-09
7.76666e-10
-1.39472e-09
6.76111e-10
-1.44428e-09
5.69848e-10
-1.48529e-09
4.59047e-10
-1.51731e-09
3.44794e-10
-1.53985e-09
2.28158e-10
-1.55246e-09
1.10285e-10
-1.55487e-09
-7.57528e-12
-1.54693e-09
-1.24242e-10
-1.52855e-09
-2.38858e-10
-1.49959e-09
-3.50817e-10
-1.45992e-09
-4.59574e-10
-1.40945e-09
-5.64578e-10
-1.34817e-09
-6.65264e-10
-1.27621e-09
-7.61051e-10
-1.19383e-09
-8.5135e-10
-1.10143e-09
-9.35582e-10
-9.99563e-10
-1.0132e-09
-8.88903e-10
-1.08372e-09
-7.70258e-10
-1.1467e-09
-6.44546e-10
-1.20177e-09
-5.12789e-10
-1.2486e-09
-3.76099e-10
-1.2869e-09
-2.35666e-10
-1.31642e-09
-9.27326e-11
-1.33701e-09
5.14297e-11
-1.34859e-09
1.95544e-10
-1.35118e-09
3.38347e-10
-1.34488e-09
4.78606e-10
-1.32984e-09
6.15117e-10
-1.30622e-09
7.46721e-10
-1.27426e-09
8.7231e-10
-1.23417e-09
9.90845e-10
-1.18625e-09
1.10137e-09
-1.13078e-09
1.20304e-09
-1.06803e-09
1.29509e-09
-9.98234e-10
1.37689e-09
-9.21594e-10
1.44794e-09
-8.38288e-10
1.50787e-09
-7.48509e-10
1.55648e-09
-6.52433e-10
1.59366e-09
-5.50195e-10
1.61941e-09
-4.419e-10
1.63388e-09
-3.2769e-10
1.63732e-09
-2.07783e-10
1.62996e-09
-8.24545e-11
1.6119e-09