/*--------------------------------*- C++ -*----------------------------------*\
| =========                 |                                                 |
| \\      /  F ield         | OpenFOAM: The Open Source CFD Toolbox           |
|  \\    /   O peration     | Version:  2412                                  |
|   \\  /    A nd           | Website:  www.openfoam.com                      |
|    \\/     M anipulation  |                                                 |
\*---------------------------------------------------------------------------*/
FoamFile
{
    version     2.0;
    format      ascii;
    arch        "LSB;label=32;scalar=64";
    class       volVectorField;
    location    "8.1";
    object      U;
}
// * * * * * * * * * * * * * * * * * * * * * * * * * * * * * * * * * * * * * //

dimensions      [0 1 -1 0 0 0 0];

internalField   nonuniform List<vector> 
6400
(
(-0.000276182 -0.000238031 0)
(0.000759622 -0.000687476 0)
(0.00194915 -0.000595313 0)
(0.00271267 -0.000526862 0)
(0.00369962 -0.000538083 0)
(0.00474283 -0.000578604 0)
(0.00596566 -0.000615813 0)
(0.00730704 -0.000655949 0)
(0.00876156 -0.00068329 0)
(0.0102993 -0.000694212 0)
(0.0118804 -0.00072867 0)
(0.0134833 -0.000732935 0)
(0.015069 -0.000710251 0)
(0.0165737 -0.000662816 0)
(0.0179732 -0.000606745 0)
(0.0192271 -0.000543077 0)
(0.0203458 -0.000469343 0)
(0.0213152 -0.00039145 0)
(0.0220959 -0.000306378 0)
(0.0226842 -0.000207903 0)
(0.02307 -9.63566e-05 0)
(0.0232398 2.8041e-05 0)
(0.023177 0.000168819 0)
(0.0228718 0.000330327 0)
(0.0223349 0.000513656 0)
(0.0215327 0.000670608 0)
(0.0205088 0.000808673 0)
(0.0193198 0.000871635 0)
(0.0180043 0.000889653 0)
(0.0166306 0.000864413 0)
(0.015206 0.000828706 0)
(0.0137427 0.000816313 0)
(0.0122337 0.000792926 0)
(0.0107113 0.000723619 0)
(0.00923244 0.000589786 0)
(0.00782959 0.000439002 0)
(0.00651838 0.000273256 0)
(0.00528599 0.000142317 0)
(0.00411867 4.28976e-05 0)
(0.0029789 -3.36583e-06 0)
(0.00181503 7.63703e-06 0)
(0.000568665 8.157e-05 0)
(-0.00080745 0.000214181 0)
(-0.00234853 0.000403963 0)
(-0.00408598 0.000612294 0)
(-0.00602283 0.000848144 0)
(-0.00815257 0.00106063 0)
(-0.0104393 0.00121315 0)
(-0.0128019 0.00128805 0)
(-0.0151555 0.00131156 0)
(-0.0174435 0.00129935 0)
(-0.0196307 0.00127952 0)
(-0.0216712 0.00121918 0)
(-0.0234975 0.00109153 0)
(-0.0250548 0.000895239 0)
(-0.0262513 0.000669688 0)
(-0.0270599 0.000428977 0)
(-0.0275175 0.000216126 0)
(-0.0276207 2.87445e-05 0)
(-0.0274035 -0.000136986 0)
(-0.0268969 -0.000278974 0)
(-0.0261089 -0.000401712 0)
(-0.0250671 -0.000512962 0)
(-0.0237997 -0.000607839 0)
(-0.0223504 -0.000702256 0)
(-0.02075 -0.000776943 0)
(-0.0190033 -0.000853733 0)
(-0.0171538 -0.000893533 0)
(-0.0152248 -0.000904724 0)
(-0.0133226 -0.000906874 0)
(-0.0114749 -0.000856671 0)
(-0.00965774 -0.000835869 0)
(-0.00793107 -0.000801437 0)
(-0.00636063 -0.000725263 0)
(-0.00496396 -0.000655583 0)
(-0.00377563 -0.000584841 0)
(-0.0027194 -0.000540943 0)
(-0.00191686 -0.000568512 0)
(-0.000738655 -0.000634931 0)
(0.000242252 -0.000216668 0)
(-0.000512315 -0.000185722 0)
(0.000261677 -0.00154597 0)
(0.00106237 -0.0012787 0)
(0.00155097 -0.00124751 0)
(0.00235901 -0.00144459 0)
(0.00333908 -0.00169893 0)
(0.00459677 -0.0019552 0)
(0.00605836 -0.0021658 0)
(0.00772461 -0.00233077 0)
(0.00948126 -0.0024321 0)
(0.0112928 -0.00249328 0)
(0.013131 -0.00246789 0)
(0.0148927 -0.00238963 0)
(0.0165616 -0.00225662 0)
(0.0181327 -0.00208337 0)
(0.0195484 -0.00186888 0)
(0.0207978 -0.00161873 0)
(0.0218551 -0.00135445 0)
(0.0227016 -0.00106708 0)
(0.0233463 -0.00076483 0)
(0.0237862 -0.000451085 0)
(0.0240322 -0.000126404 0)
(0.024096 0.000197019 0)
(0.0240012 0.00052025 0)
(0.0237663 0.000849086 0)
(0.0234086 0.00113715 0)
(0.0229415 0.00139897 0)
(0.0223537 0.00161396 0)
(0.0216233 0.00179668 0)
(0.020716 0.00193027 0)
(0.0196364 0.00205291 0)
(0.0184056 0.0021553 0)
(0.0170516 0.00224373 0)
(0.0155792 0.0023033 0)
(0.0139726 0.0023075 0)
(0.0122177 0.00228923 0)
(0.0103057 0.0022625 0)
(0.00825472 0.00225162 0)
(0.00605991 0.00226461 0)
(0.00376575 0.00230441 0)
(0.00137896 0.00239379 0)
(-0.00109262 0.00253586 0)
(-0.00360418 0.00270571 0)
(-0.00613765 0.00290746 0)
(-0.00863751 0.00309442 0)
(-0.0110784 0.00327343 0)
(-0.013439 0.00340624 0)
(-0.0156922 0.00347599 0)
(-0.0178393 0.00344882 0)
(-0.019875 0.00334292 0)
(-0.0217474 0.00317889 0)
(-0.0234184 0.002946 0)
(-0.024882 0.00265583 0)
(-0.026106 0.00228404 0)
(-0.0271045 0.00184247 0)
(-0.0278771 0.00136265 0)
(-0.0283995 0.000847962 0)
(-0.0286613 0.000346056 0)
(-0.0286472 -0.000138314 0)
(-0.028343 -0.000599061 0)
(-0.0277473 -0.00103062 0)
(-0.0268563 -0.00143342 0)
(-0.0256845 -0.00180638 0)
(-0.0242671 -0.0021226 0)
(-0.022638 -0.00239774 0)
(-0.0208543 -0.00261512 0)
(-0.0189439 -0.00277642 0)
(-0.0169544 -0.00287588 0)
(-0.0149177 -0.00291733 0)
(-0.0128223 -0.00292298 0)
(-0.0107715 -0.00283675 0)
(-0.00880791 -0.00271506 0)
(-0.00692558 -0.00252126 0)
(-0.00525725 -0.00223178 0)
(-0.00382848 -0.00193906 0)
(-0.00268902 -0.00161843 0)
(-0.0017836 -0.00134954 0)
(-0.00118919 -0.00132379 0)
(-0.000286282 -0.00153491 0)
(0.000476383 -0.000201811 0)
(-0.000494496 -1.66451e-06 0)
(0.000327267 -0.00228874 0)
(0.00117929 -0.00186069 0)
(0.00167142 -0.00189352 0)
(0.00249483 -0.00232471 0)
(0.00349496 -0.00283185 0)
(0.00479574 -0.00334924 0)
(0.00630244 -0.00376155 0)
(0.00797801 -0.00408071 0)
(0.00974706 -0.00429648 0)
(0.0115742 -0.00434395 0)
(0.0134251 -0.00429554 0)
(0.0152039 -0.00414902 0)
(0.0168827 -0.00392049 0)
(0.0184547 -0.00361425 0)
(0.0198785 -0.00323891 0)
(0.0211385 -0.00280184 0)
(0.0222136 -0.00233786 0)
(0.0230847 -0.00183662 0)
(0.0237441 -0.00132169 0)
(0.0241892 -0.000801789 0)
(0.0244233 -0.000279465 0)
(0.0244483 0.000225684 0)
(0.0242855 0.000700403 0)
(0.0239306 0.0011489 0)
(0.0233871 0.00155272 0)
(0.022704 0.00192117 0)
(0.0218821 0.00227372 0)
(0.0209042 0.00260764 0)
(0.0198021 0.00290997 0)
(0.01857 0.0031921 0)
(0.0172343 0.00342489 0)
(0.0158532 0.00361829 0)
(0.0144 0.00378065 0)
(0.0128565 0.0039329 0)
(0.0112243 0.00407185 0)
(0.0094913 0.00421335 0)
(0.00767173 0.00435094 0)
(0.00575865 0.00450495 0)
(0.00376056 0.00466207 0)
(0.00168529 0.00484607 0)
(-0.000491565 0.0050469 0)
(-0.00273961 0.00523943 0)
(-0.00505568 0.0054171 0)
(-0.00740788 0.00556226 0)
(-0.00976101 0.00564477 0)
(-0.0120939 0.00568453 0)
(-0.0143959 0.00564831 0)
(-0.0166623 0.0055227 0)
(-0.0188596 0.00529981 0)
(-0.0209657 0.00497678 0)
(-0.0229109 0.00452591 0)
(-0.0246433 0.00400646 0)
(-0.0261301 0.00340698 0)
(-0.0273432 0.00274328 0)
(-0.0282762 0.00201877 0)
(-0.0289012 0.00125308 0)
(-0.0292154 0.000465766 0)
(-0.0292119 -0.0003151 0)
(-0.0288856 -0.0010799 0)
(-0.0282451 -0.00181749 0)
(-0.0273043 -0.00251495 0)
(-0.0260829 -0.00315248 0)
(-0.0246262 -0.00370642 0)
(-0.0229797 -0.00416389 0)
(-0.0211677 -0.00452464 0)
(-0.0192285 -0.00477155 0)
(-0.0172147 -0.00494121 0)
(-0.0151426 -0.00501251 0)
(-0.0130243 -0.00500365 0)
(-0.0109511 -0.00491537 0)
(-0.00896286 -0.00467391 0)
(-0.00703736 -0.00429584 0)
(-0.0053187 -0.00382378 0)
(-0.00383764 -0.00323482 0)
(-0.00266199 -0.00264129 0)
(-0.00175575 -0.00210083 0)
(-0.00115068 -0.00201351 0)
(-0.000231744 -0.00234092 0)
(0.000500284 -1.35465e-05 0)
(-0.000599278 8.60137e-05 0)
(0.000118374 -0.00315292 0)
(0.000905606 -0.00254085 0)
(0.00129751 -0.00256513 0)
(0.00205335 -0.00321708 0)
(0.00302418 -0.00400582 0)
(0.00435653 -0.00475978 0)
(0.005957 -0.00537311 0)
(0.00772891 -0.00583441 0)
(0.00964962 -0.00611075 0)
(0.01162 -0.00618984 0)
(0.0135794 -0.00610893 0)
(0.0154714 -0.005904 0)
(0.0172415 -0.00557027 0)
(0.0188823 -0.0051261 0)
(0.0203602 -0.00458357 0)
(0.0216584 -0.00397292 0)
(0.0227498 -0.00330815 0)
(0.0236303 -0.00260094 0)
(0.0242857 -0.0018672 0)
(0.0247148 -0.00112092 0)
(0.0249248 -0.000375577 0)
(0.0249116 0.000351079 0)
(0.0246983 0.00104809 0)
(0.0242733 0.00170038 0)
(0.0236418 0.00231193 0)
(0.0228489 0.00287854 0)
(0.0219003 0.00338231 0)
(0.0208044 0.00382584 0)
(0.0195948 0.00423168 0)
(0.0182828 0.00456868 0)
(0.0168723 0.00486123 0)
(0.0153877 0.00512174 0)
(0.0138347 0.00532125 0)
(0.0122309 0.00550728 0)
(0.010589 0.00568003 0)
(0.00891982 0.00583994 0)
(0.00724108 0.00601695 0)
(0.00553965 0.00620879 0)
(0.003796 0.00642988 0)
(0.00199753 0.00669543 0)
(8.70433e-05 0.0069935 0)
(-0.00194325 0.00730205 0)
(-0.00410188 0.00760053 0)
(-0.00639009 0.00784432 0)
(-0.00876488 0.00800612 0)
(-0.0112148 0.00807494 0)
(-0.0137039 0.00804968 0)
(-0.0161505 0.00790905 0)
(-0.0185251 0.0076346 0)
(-0.0208193 0.00719573 0)
(-0.0229496 0.00660352 0)
(-0.0248715 0.00584928 0)
(-0.0265502 0.00497228 0)
(-0.0279295 0.00398072 0)
(-0.0289829 0.00290939 0)
(-0.0296877 0.00179469 0)
(-0.0300464 0.000657034 0)
(-0.0300523 -0.000468712 0)
(-0.0297088 -0.00157068 0)
(-0.0290266 -0.00262773 0)
(-0.0280304 -0.00361442 0)
(-0.0267534 -0.00450208 0)
(-0.0252308 -0.00527509 0)
(-0.0234957 -0.00591554 0)
(-0.0215834 -0.00642926 0)
(-0.0195454 -0.00680063 0)
(-0.0174187 -0.0070412 0)
(-0.015221 -0.00713011 0)
(-0.0129978 -0.00712002 0)
(-0.0108 -0.00697921 0)
(-0.00866534 -0.00665044 0)
(-0.00663186 -0.00613264 0)
(-0.00477015 -0.00546117 0)
(-0.00322398 -0.00459207 0)
(-0.00207182 -0.00366848 0)
(-0.00120471 -0.00287402 0)
(-0.00072761 -0.00273857 0)
(7.29027e-05 -0.00314464 0)
(0.00064091 0.000177642 0)
(-0.00080727 0.000494725 0)
(-0.000275651 -0.00379691 0)
(0.000383166 -0.0030209 0)
(0.000588041 -0.00305816 0)
(0.00118945 -0.00400988 0)
(0.00214286 -0.0051715 0)
(0.00357353 -0.0062621 0)
(0.00533675 -0.00716021 0)
(0.00732706 -0.00780178 0)
(0.00946765 -0.00814536 0)
(0.0116506 -0.00824826 0)
(0.0137911 -0.00813695 0)
(0.0158226 -0.0078336 0)
(0.0177352 -0.00735874 0)
(0.0194977 -0.00675219 0)
(0.0210671 -0.00601641 0)
(0.0224341 -0.0052034 0)
(0.023578 -0.00431735 0)
(0.0244934 -0.00338733 0)
(0.0251708 -0.00242118 0)
(0.0256017 -0.00143972 0)
(0.0257936 -0.000465012 0)
(0.02575 0.000481413 0)
(0.0254859 0.00139052 0)
(0.0250135 0.00223519 0)
(0.0243458 0.00302027 0)
(0.023502 0.00373882 0)
(0.0224918 0.00439447 0)
(0.0213525 0.00498306 0)
(0.0200949 0.00550738 0)
(0.0187142 0.00595337 0)
(0.0172593 0.00634621 0)
(0.01571 0.00667447 0)
(0.0140738 0.00694772 0)
(0.0124123 0.00717192 0)
(0.0107247 0.00735184 0)
(0.00904358 0.00753344 0)
(0.00738031 0.00771454 0)
(0.00571824 0.00791123 0)
(0.00403742 0.00817531 0)
(0.00231349 0.00851599 0)
(0.00046306 0.00894637 0)
(-0.00154021 0.0094107 0)
(-0.00372636 0.00985334 0)
(-0.00608873 0.0102354 0)
(-0.00858497 0.0105033 0)
(-0.0111678 0.0106251 0)
(-0.0137984 0.0106192 0)
(-0.0164291 0.0104233 0)
(-0.0189975 0.0100613 0)
(-0.0214582 0.00948176 0)
(-0.0237597 0.00870097 0)
(-0.0258364 0.00770476 0)
(-0.0276358 0.00654892 0)
(-0.0291262 0.00523583 0)
(-0.0302615 0.00382853 0)
(-0.0310248 0.00234644 0)
(-0.0314081 0.000839987 0)
(-0.0313995 -0.000658939 0)
(-0.0310048 -0.00212473 0)
(-0.0302432 -0.00352275 0)
(-0.0291492 -0.00482021 0)
(-0.0277536 -0.00598171 0)
(-0.0260921 -0.00698622 0)
(-0.0242174 -0.00782394 0)
(-0.0221594 -0.00849618 0)
(-0.0199595 -0.00898431 0)
(-0.0176554 -0.00929474 0)
(-0.0153009 -0.00943788 0)
(-0.0129322 -0.00943125 0)
(-0.0105582 -0.00923209 0)
(-0.00821663 -0.00883005 0)
(-0.00595291 -0.00817218 0)
(-0.00390317 -0.00721706 0)
(-0.00222322 -0.00599634 0)
(-0.00103566 -0.0046316 0)
(-0.000283921 -0.00346953 0)
(-1.93261e-05 -0.00325725 0)
(0.000562193 -0.00370431 0)
(0.000873014 0.000735014 0)
(-0.00104596 0.00122481 0)
(-0.000785941 -0.00421827 0)
(-0.000378803 -0.00333686 0)
(-0.000420425 -0.00340847 0)
(-2.13982e-05 -0.00475336 0)
(0.000910679 -0.00639336 0)
(0.00245948 -0.00793132 0)
(0.00448194 -0.00918236 0)
(0.00680801 -0.0100094 0)
(0.00927225 -0.0104406 0)
(0.0117054 -0.0105285 0)
(0.0140799 -0.01033 0)
(0.0163389 -0.00990026 0)
(0.0184105 -0.00927034 0)
(0.0202983 -0.00848185 0)
(0.0219825 -0.00754792 0)
(0.0234462 -0.00650721 0)
(0.02466 -0.00539256 0)
(0.0256248 -0.00421023 0)
(0.0263344 -0.00298128 0)
(0.0267711 -0.00174446 0)
(0.0269464 -0.000522854 0)
(0.0268725 0.000664973 0)
(0.0265623 0.00179791 0)
(0.0260221 0.00285723 0)
(0.0252781 0.00383356 0)
(0.0243633 0.00472436 0)
(0.0232904 0.00551145 0)
(0.0220778 0.00625574 0)
(0.0207428 0.00687897 0)
(0.0193083 0.00742338 0)
(0.0177791 0.00788945 0)
(0.0161674 0.00828051 0)
(0.0144925 0.00861892 0)
(0.0127731 0.00886992 0)
(0.0110606 0.00904251 0)
(0.00935952 0.00921045 0)
(0.00767082 0.00936537 0)
(0.0060306 0.00955818 0)
(0.00439478 0.00986213 0)
(0.00271937 0.0102814 0)
(0.000903514 0.0108657 0)
(-0.00113253 0.0115269 0)
(-0.00337794 0.0121523 0)
(-0.00582848 0.0127201 0)
(-0.0084623 0.0131171 0)
(-0.0112103 0.0133356 0)
(-0.0140584 0.0133568 0)
(-0.0168984 0.0131497 0)
(-0.0196683 0.0127026 0)
(-0.0223586 0.0119902 0)
(-0.0248716 0.0110115 0)
(-0.0271403 0.00977333 0)
(-0.0291219 0.00829376 0)
(-0.0307544 0.00663422 0)
(-0.0319936 0.00484167 0)
(-0.0328223 0.00295144 0)
(-0.0332174 0.00102788 0)
(-0.0331808 -0.000885584 0)
(-0.0327098 -0.00274816 0)
(-0.031835 -0.00452085 0)
(-0.0306017 -0.00615287 0)
(-0.0290413 -0.00761079 0)
(-0.0271949 -0.00886951 0)
(-0.0251228 -0.00991391 0)
(-0.0228663 -0.0107295 0)
(-0.0204712 -0.0113312 0)
(-0.0179872 -0.0117173 0)
(-0.015442 -0.0119161 0)
(-0.0128619 -0.0119143 0)
(-0.0102736 -0.0117003 0)
(-0.00767361 -0.0112641 0)
(-0.00508878 -0.0104681 0)
(-0.00270941 -0.0092069 0)
(-0.000809454 -0.00749525 0)
(0.00043084 -0.00557924 0)
(0.000998695 -0.00390941 0)
(0.000981165 -0.00352487 0)
(0.00125022 -0.00397022 0)
(0.00118011 0.00172498 0)
(-0.00130745 0.00237609 0)
(-0.00139958 -0.00429678 0)
(-0.00142136 -0.00334875 0)
(-0.00180714 -0.00344325 0)
(-0.00173143 -0.00538786 0)
(-0.000831254 -0.00767116 0)
(0.000913338 -0.00984499 0)
(0.00334616 -0.0115656 0)
(0.00616367 -0.012606 0)
(0.00906234 -0.0130804 0)
(0.0118814 -0.0131009 0)
(0.0145343 -0.0127486 0)
(0.0169998 -0.0121612 0)
(0.0192695 -0.0113502 0)
(0.0213162 -0.0103498 0)
(0.0231342 -0.00919775 0)
(0.0247027 -0.00790958 0)
(0.0260031 -0.00654193 0)
(0.0270394 -0.00508338 0)
(0.0277829 -0.00357226 0)
(0.028223 -0.00205293 0)
(0.0283777 -0.000553819 0)
(0.0282534 0.000895919 0)
(0.0278673 0.0022683 0)
(0.027242 0.00354983 0)
(0.0264079 0.00473304 0)
(0.0253768 0.00579137 0)
(0.024229 0.00672519 0)
(0.0229493 0.00756388 0)
(0.0215218 0.00830711 0)
(0.0200039 0.00894531 0)
(0.0184029 0.00950395 0)
(0.0167273 0.00997396 0)
(0.0149608 0.0103389 0)
(0.0131495 0.0106047 0)
(0.0113724 0.0107907 0)
(0.00963607 0.0108713 0)
(0.00795723 0.010968 0)
(0.00638305 0.011126 0)
(0.00483088 0.0114666 0)
(0.00323864 0.011993 0)
(0.00152126 0.0127792 0)
(-0.000499409 0.0136785 0)
(-0.00281824 0.014569 0)
(-0.00541332 0.0153338 0)
(-0.00824952 0.0159215 0)
(-0.0112179 0.0162681 0)
(-0.0142954 0.0163329 0)
(-0.0174162 0.0161272 0)
(-0.0204885 0.0156034 0)
(-0.0234503 0.0147435 0)
(-0.0262339 0.0135557 0)
(-0.028773 0.012033 0)
(-0.0309771 0.0102159 0)
(-0.0327834 0.0081682 0)
(-0.0341607 0.00593254 0)
(-0.0350658 0.00359655 0)
(-0.0354761 0.00121034 0)
(-0.0353974 -0.00117029 0)
(-0.034841 -0.00347659 0)
(-0.0338308 -0.00565748 0)
(-0.0324136 -0.0076583 0)
(-0.0306397 -0.00944224 0)
(-0.028557 -0.0109696 0)
(-0.0262337 -0.0122236 0)
(-0.0237297 -0.0131955 0)
(-0.0210935 -0.0139038 0)
(-0.0183758 -0.0143596 0)
(-0.0156227 -0.0145819 0)
(-0.0128364 -0.0146087 0)
(-0.0100173 -0.0144385 0)
(-0.00707973 -0.0140161 0)
(-0.00401456 -0.0131548 0)
(-0.00110055 -0.0115623 0)
(0.00119457 -0.00918414 0)
(0.00252521 -0.00644977 0)
(0.00283055 -0.00403742 0)
(0.00239001 -0.00340696 0)
(0.0021197 -0.00375581 0)
(0.00155904 0.00327442 0)
(-0.00152856 0.00395214 0)
(-0.00211202 -0.00386811 0)
(-0.0026497 -0.00290124 0)
(-0.00367788 -0.00298391 0)
(-0.00415504 -0.00581107 0)
(-0.00329644 -0.00903739 0)
(-0.0012825 -0.0121579 0)
(0.0018381 -0.0145142 0)
(0.00542716 -0.0157493 0)
(0.00893852 -0.0161619 0)
(0.0122061 -0.0160185 0)
(0.0151755 -0.0154666 0)
(0.0178866 -0.0146466 0)
(0.0203695 -0.0136112 0)
(0.0225825 -0.0123754 0)
(0.0245472 -0.0109687 0)
(0.02624 -0.00942073 0)
(0.0276397 -0.00776105 0)
(0.0287545 -0.00600515 0)
(0.0295398 -0.0041892 0)
(0.0299934 -0.00235133 0)
(0.030122 -0.000545181 0)
(0.0299277 0.00120436 0)
(0.0294501 0.00284506 0)
(0.0287185 0.00435748 0)
(0.0277539 0.00573317 0)
(0.0266019 0.00695054 0)
(0.0253301 0.00802812 0)
(0.0239532 0.00897663 0)
(0.0224486 0.0098128 0)
(0.0208502 0.010558 0)
(0.0191549 0.0112037 0)
(0.0173365 0.0117527 0)
(0.0154506 0.0121647 0)
(0.0135561 0.0124286 0)
(0.0116582 0.0125591 0)
(0.00985446 0.0125725 0)
(0.00823346 0.0125556 0)
(0.00677123 0.0126106 0)
(0.00537074 0.0129274 0)
(0.00392867 0.0135528 0)
(0.00233231 0.0145882 0)
(0.000365418 0.0158176 0)
(-0.00202998 0.0170774 0)
(-0.00478522 0.0181346 0)
(-0.00784457 0.0189786 0)
(-0.0111333 0.0194886 0)
(-0.0145591 0.0196143 0)
(-0.0180127 0.0194166 0)
(-0.0214385 0.0188263 0)
(-0.0247655 0.0178278 0)
(-0.0279009 0.0164086 0)
(-0.0307673 0.0145839 0)
(-0.0332579 0.0123733 0)
(-0.0353059 0.00987595 0)
(-0.0368376 0.00715014 0)
(-0.0378175 0.00429318 0)
(-0.0382512 0.00138036 0)
(-0.0381247 -0.00152513 0)
(-0.0374494 -0.00433359 0)
(-0.0362656 -0.00697491 0)
(-0.0346182 -0.0093925 0)
(-0.0325646 -0.0115346 0)
(-0.0301817 -0.0133459 0)
(-0.0275568 -0.014813 0)
(-0.0247473 -0.015928 0)
(-0.0218161 -0.0167254 0)
(-0.0188348 -0.017233 0)
(-0.0158683 -0.0174932 0)
(-0.0128975 -0.0175552 0)
(-0.00983916 -0.0174863 0)
(-0.0065331 -0.017203 0)
(-0.00280251 -0.0164752 0)
(0.00103999 -0.0145252 0)
(0.00403415 -0.0111903 0)
(0.0055313 -0.00725784 0)
(0.00534022 -0.00368481 0)
(0.00418868 -0.00273795 0)
(0.00324494 -0.00291228 0)
(0.00194802 0.00548978 0)
(-0.00156181 0.00610003 0)
(-0.00346203 -0.00279185 0)
(-0.0044684 -0.00188573 0)
(-0.00609511 -0.00181091 0)
(-0.00753123 -0.00590437 0)
(-0.00679684 -0.0105317 0)
(-0.00431317 -0.0151038 0)
(-5.17216e-05 -0.0183772 0)
(0.00469983 -0.0197019 0)
(0.00901036 -0.0198233 0)
(0.0128106 -0.0193539 0)
(0.016144 -0.018488 0)
(0.0191014 -0.0173707 0)
(0.02179 -0.016063 0)
(0.0241938 -0.0145729 0)
(0.0263081 -0.0128886 0)
(0.0281261 -0.0110577 0)
(0.0296405 -0.0090787 0)
(0.030837 -0.0069891 0)
(0.031672 -0.00483045 0)
(0.0321292 -0.00263415 0)
(0.0322251 -0.000474223 0)
(0.0319515 0.00160633 0)
(0.0313351 0.00353778 0)
(0.0304442 0.0053086 0)
(0.0293237 0.00688317 0)
(0.0280262 0.00825401 0)
(0.0266448 0.00944786 0)
(0.0251532 0.0104883 0)
(0.0235491 0.0114308 0)
(0.0218502 0.0122916 0)
(0.0200447 0.0130339 0)
(0.0181161 0.0136514 0)
(0.0160583 0.014115 0)
(0.0139807 0.014376 0)
(0.0119807 0.0144264 0)
(0.0101189 0.0143101 0)
(0.00844967 0.0141125 0)
(0.00704107 0.0140036 0)
(0.00589354 0.0142272 0)
(0.00489499 0.0149169 0)
(0.00353802 0.0162644 0)
(0.00159571 0.0179522 0)
(-0.000947199 0.0196849 0)
(-0.00394396 0.0212028 0)
(-0.00731808 0.0222966 0)
(-0.0110181 0.0229753 0)
(-0.0148327 0.0232737 0)
(-0.0186908 0.0231132 0)
(-0.0225658 0.0224544 0)
(-0.0263385 0.0213212 0)
(-0.0299161 0.0196481 0)
(-0.0332145 0.0174675 0)
(-0.0360635 0.0148298 0)
(-0.0383655 0.0118078 0)
(-0.0400884 0.00851971 0)
(-0.0411719 0.0050634 0)
(-0.0416231 0.00153898 0)
(-0.0414331 -0.00196034 0)
(-0.0406116 -0.00534402 0)
(-0.0392063 -0.00852225 0)
(-0.0372695 -0.0114123 0)
(-0.0348719 -0.0139553 0)
(-0.0321171 -0.0160714 0)
(-0.0291054 -0.0177512 0)
(-0.025919 -0.0189917 0)
(-0.0226581 -0.0198509 0)
(-0.0194099 -0.0203571 0)
(-0.0162298 -0.0205932 0)
(-0.0130991 -0.0206804 0)
(-0.00986001 -0.0207768 0)
(-0.00618431 -0.020929 0)
(-0.00149907 -0.0207145 0)
(0.00382024 -0.0185447 0)
(0.00794296 -0.0137356 0)
(0.00977269 -0.00788938 0)
(0.00879526 -0.00253585 0)
(0.00684841 -0.00128637 0)
(0.00525396 -0.00113156 0)
(0.00232014 0.00865721 0)
(-0.00108394 0.00907293 0)
(-0.00583715 -0.000310376 0)
(-0.00853506 -0.000152897 0)
(-0.00975869 0.000438561 0)
(-0.0123861 -0.00520689 0)
(-0.0117806 -0.0121167 0)
(-0.00856145 -0.0190555 0)
(-0.0023528 -0.0236617 0)
(0.00427778 -0.0247793 0)
(0.00953386 -0.0242224 0)
(0.0138616 -0.0231174 0)
(0.0175665 -0.021824 0)
(0.0207602 -0.0203285 0)
(0.0236211 -0.0187095 0)
(0.0262101 -0.0169373 0)
(0.0285092 -0.0149706 0)
(0.0304914 -0.0128209 0)
(0.0321447 -0.0105076 0)
(0.0334305 -0.00805133 0)
(0.0343213 -0.00550128 0)
(0.0347926 -0.00289826 0)
(0.0348287 -0.000329344 0)
(0.034413 0.002109 0)
(0.0336187 0.0043906 0)
(0.0325269 0.00644765 0)
(0.0311842 0.00822762 0)
(0.0296975 0.00972328 0)
(0.0281391 0.0109972 0)
(0.0265427 0.0120958 0)
(0.0248831 0.0131462 0)
(0.0230991 0.0141003 0)
(0.021155 0.01501 0)
(0.0190535 0.015718 0)
(0.0168348 0.0162374 0)
(0.0145868 0.016479 0)
(0.0123444 0.0164502 0)
(0.0101717 0.0161115 0)
(0.00821531 0.0156157 0)
(0.00679202 0.0151832 0)
(0.0062307 0.015041 0)
(0.00632643 0.0158199 0)
(0.00559859 0.0178598 0)
(0.00360693 0.0202693 0)
(0.000663576 0.0225532 0)
(-0.00287296 0.0245338 0)
(-0.00675221 0.0260108 0)
(-0.0108039 0.0269688 0)
(-0.0150696 0.0274148 0)
(-0.0194979 0.0272655 0)
(-0.0239044 0.0265995 0)
(-0.0282323 0.0252868 0)
(-0.0323858 0.023365 0)
(-0.0361831 0.0207951 0)
(-0.0394681 0.0176558 0)
(-0.0421229 0.0140162 0)
(-0.0440638 0.0100555 0)
(-0.0452782 0.00589867 0)
(-0.0457624 0.00167715 0)
(-0.0455012 -0.00251166 0)
(-0.0445041 -0.0065551 0)
(-0.0428173 -0.0103564 0)
(-0.0405213 -0.013785 0)
(-0.037697 -0.016768 0)
(-0.0344636 -0.0192097 0)
(-0.0309531 -0.021099 0)
(-0.027292 -0.0224593 0)
(-0.0236172 -0.0233147 0)
(-0.0200274 -0.0237295 0)
(-0.0166148 -0.0238844 0)
(-0.0133627 -0.0239609 0)
(-0.010192 -0.0242922 0)
(-0.00654659 -0.0253497 0)
(-0.00061248 -0.0265353 0)
(0.00786639 -0.0244338 0)
(0.0139639 -0.0172727 0)
(0.0162153 -0.0082407 0)
(0.0141307 -0.000472577 0)
(0.0121947 0.000864941 0)
(0.00872464 0.0022651 0)
(0.00240281 0.0133655 0)
(0.00150258 0.0129485 0)
(-0.00705561 0.00564357 0)
(-0.0160686 0.00172162 0)
(-0.0164189 0.00219357 0)
(-0.0203694 -0.0041816 0)
(-0.0202655 -0.0142593 0)
(-0.015612 -0.0247968 0)
(-0.00516484 -0.0314131 0)
(0.00536236 -0.0313816 0)
(0.0113054 -0.0292742 0)
(0.0152943 -0.0273375 0)
(0.0189621 -0.0254477 0)
(0.0222939 -0.0234769 0)
(0.0252541 -0.0215333 0)
(0.0280497 -0.0194889 0)
(0.030698 -0.0172529 0)
(0.0330758 -0.0147665 0)
(0.0350681 -0.0120783 0)
(0.0365842 -0.00920548 0)
(0.0375897 -0.00620111 0)
(0.0380723 -0.00311664 0)
(0.0380097 -6.61814e-05 0)
(0.037442 0.00283234 0)
(0.0364231 0.00551886 0)
(0.0350251 0.00785818 0)
(0.0333724 0.00980995 0)
(0.0316166 0.0113913 0)
(0.0298763 0.0126799 0)
(0.0281885 0.0138148 0)
(0.0264721 0.0149273 0)
(0.0246734 0.0160244 0)
(0.0226634 0.0170648 0)
(0.0203989 0.0179794 0)
(0.0179489 0.0186055 0)
(0.0153115 0.0189188 0)
(0.0124104 0.0188345 0)
(0.00937106 0.0183822 0)
(0.00690517 0.0174232 0)
(0.00579565 0.015941 0)
(0.00643339 0.0146014 0)
(0.00825385 0.0155185 0)
(0.00883992 0.0190538 0)
(0.00703456 0.0229149 0)
(0.00335064 0.0260947 0)
(-0.00116699 0.0285155 0)
(-0.00590831 0.0303057 0)
(-0.0106789 0.031518 0)
(-0.0155535 0.0320681 0)
(-0.0205055 0.0320344 0)
(-0.025539 0.0313617 0)
(-0.0305419 0.0299295 0)
(-0.0353459 0.0277126 0)
(-0.0398214 0.0246845 0)
(-0.0436898 0.0209002 0)
(-0.0467719 0.0165245 0)
(-0.0489944 0.0117653 0)
(-0.0503435 0.00680893 0)
(-0.0508313 0.00179559 0)
(-0.0504647 -0.0032015 0)
(-0.0492603 -0.00801981 0)
(-0.0472394 -0.0125406 0)
(-0.0444554 -0.0166012 0)
(-0.0409936 -0.0200911 0)
(-0.0369958 -0.0229104 0)
(-0.0327006 -0.0250156 0)
(-0.0283175 -0.0264312 0)
(-0.0240367 -0.0271825 0)
(-0.0200214 -0.027435 0)
(-0.0163773 -0.0274227 0)
(-0.0134644 -0.0273343 0)
(-0.0120067 -0.0276089 0)
(-0.0105235 -0.0299457 0)
(-0.00293295 -0.0344401 0)
(0.0133676 -0.0332711 0)
(0.0252806 -0.0220906 0)
(0.0276861 -0.00827853 0)
(0.0236419 0.00176113 0)
(0.0218135 0.00404829 0)
(0.0124679 0.00943355 0)
(0.00177977 0.0201665 0)
(0.00106185 0.0147251 0)
(-0.00364296 0.0189582 0)
(-0.0223599 0.00940902 0)
(-0.0274534 0.00583527 0)
(-0.032583 -0.00116129 0)
(-0.0352733 -0.0163652 0)
(-0.0288012 -0.0342067 0)
(-0.0118073 -0.0446117 0)
(0.00697819 -0.040362 0)
(0.0159687 -0.0335926 0)
(0.018213 -0.0308599 0)
(0.0201632 -0.0288711 0)
(0.0228396 -0.0266959 0)
(0.0257283 -0.0245333 0)
(0.028711 -0.0224219 0)
(0.0317804 -0.0200602 0)
(0.0348164 -0.0172725 0)
(0.037523 -0.0140858 0)
(0.0395788 -0.0106213 0)
(0.0408425 -0.00698644 0)
(0.0413623 -0.00329931 0)
(0.0412408 0.000354249 0)
(0.0405738 0.00382754 0)
(0.0393531 0.00695458 0)
(0.0376072 0.00963365 0)
(0.0355133 0.0117543 0)
(0.0333278 0.0133292 0)
(0.0313014 0.0144973 0)
(0.0295705 0.015563 0)
(0.0280081 0.0166898 0)
(0.0263659 0.0179599 0)
(0.0244915 0.0192092 0)
(0.0221727 0.0204017 0)
(0.0193219 0.0213931 0)
(0.0158355 0.0220731 0)
(0.0117961 0.0222419 0)
(0.00800557 0.0215328 0)
(0.00570422 0.0191977 0)
(0.0056952 0.0155853 0)
(0.00767472 0.0124429 0)
(0.0103818 0.0134293 0)
(0.0120822 0.0190608 0)
(0.0111886 0.0256629 0)
(0.00737004 0.0307115 0)
(0.00165936 0.0338441 0)
(-0.00453349 0.0356128 0)
(-0.0105049 0.0367364 0)
(-0.0162023 0.0373013 0)
(-0.0217682 0.0374233 0)
(-0.0274068 0.0367607 0)
(-0.0330915 0.0352795 0)
(-0.0386756 0.0327811 0)
(-0.0439145 0.0292491 0)
(-0.0484891 0.0247272 0)
(-0.0521218 0.0194376 0)
(-0.0546459 0.0136969 0)
(-0.0560302 0.00779532 0)
(-0.0563778 0.00185451 0)
(-0.0557772 -0.00405114 0)
(-0.0542879 -0.00977276 0)
(-0.0518663 -0.0151926 0)
(-0.048397 -0.0201264 0)
(-0.0438981 -0.0242815 0)
(-0.038643 -0.0276011 0)
(-0.0331582 -0.0298818 0)
(-0.0278428 -0.0311754 0)
(-0.02287 -0.031628 0)
(-0.0184334 -0.0314403 0)
(-0.0151897 -0.0304855 0)
(-0.0144847 -0.0284478 0)
(-0.0169212 -0.02694 0)
(-0.0165964 -0.0332256 0)
(-0.00399352 -0.0493036 0)
(0.0177956 -0.0535685 0)
(0.0399688 -0.0319304 0)
(0.0459694 -0.00648251 0)
(0.0397237 0.00677271 0)
(0.0332448 0.01243 0)
(0.0128841 0.0238087 0)
(0.000989745 0.0282182 0)
(0.00406222 0.0155387 0)
(0.00710744 0.031844 0)
(-0.0195706 0.0257841 0)
(-0.0414599 0.0124285 0)
(-0.0503398 0.00439308 0)
(-0.0580242 -0.0175103 0)
(-0.0520553 -0.0484088 0)
(-0.0320698 -0.0664377 0)
(-0.00522185 -0.0582096 0)
(0.0162016 -0.0396237 0)
(0.023518 -0.0317294 0)
(0.0250349 -0.030224 0)
(0.0264163 -0.029289 0)
(0.0286813 -0.0275576 0)
(0.031147 -0.0257177 0)
(0.0336288 -0.0235463 0)
(0.0363523 -0.0206685 0)
(0.0392449 -0.0168902 0)
(0.041706 -0.0125081 0)
(0.0432551 -0.00791266 0)
(0.0439164 -0.00344277 0)
(0.043867 0.000855198 0)
(0.0431525 0.0049229 0)
(0.0417396 0.00866945 0)
(0.0395754 0.0119009 0)
(0.0368515 0.0142967 0)
(0.0340879 0.0158041 0)
(0.03186 0.0166055 0)
(0.0303011 0.0172537 0)
(0.0291043 0.0182254 0)
(0.0278639 0.0196325 0)
(0.0262474 0.0213339 0)
(0.0239511 0.0231582 0)
(0.0206183 0.0249714 0)
(0.0162745 0.0263644 0)
(0.0117919 0.0265537 0)
(0.00862342 0.0243723 0)
(0.00797214 0.0194763 0)
(0.00920223 0.0138026 0)
(0.0109922 0.0096933 0)
(0.0125641 0.0108383 0)
(0.0136601 0.0179626 0)
(0.0134304 0.0275843 0)
(0.0103845 0.0356142 0)
(0.00442194 0.0403808 0)
(-0.00287489 0.0424554 0)
(-0.0101289 0.0432032 0)
(-0.0167829 0.0434437 0)
(-0.0229735 0.0434309 0)
(-0.029113 0.0428587 0)
(-0.0353025 0.0414075 0)
(-0.0415844 0.0387235 0)
(-0.0477279 0.0346625 0)
(-0.0532696 0.0292725 0)
(-0.0576388 0.0228526 0)
(-0.060452 0.0158061 0)
(-0.0617114 0.00865049 0)
(-0.0617038 0.00166989 0)
(-0.060683 -0.00511551 0)
(-0.0587956 -0.0118067 0)
(-0.0559008 -0.0183965 0)
(-0.0516089 -0.0246593 0)
(-0.0460885 -0.0299016 0)
(-0.0399817 -0.033776 0)
(-0.0340354 -0.0360782 0)
(-0.02861 -0.036976 0)
(-0.0234868 -0.0368759 0)
(-0.0188095 -0.0355226 0)
(-0.0156637 -0.0318122 0)
(-0.0146734 -0.026152 0)
(-0.0129941 -0.0262628 0)
(-0.00189829 -0.0437887 0)
(0.0197204 -0.0703544 0)
(0.0381743 -0.0801327 0)
(0.0550166 -0.0518909 0)
(0.0645789 -0.00811221 0)
(0.0591435 0.0154229 0)
(0.0385243 0.0303009 0)
(0.004107 0.0448767 0)
(-0.00265004 0.0346643 0)
(0.0154736 0.00420521 0)
(0.0301823 0.0483113 0)
(0.00426738 0.0603938 0)
(-0.0402055 0.0356019 0)
(-0.0652237 0.0180394 0)
(-0.0807612 -0.0135292 0)
(-0.0812734 -0.062188 0)
(-0.065702 -0.0929718 0)
(-0.0400185 -0.0876242 0)
(-0.00787926 -0.0617367 0)
(0.0175901 -0.0405235 0)
(0.0324205 -0.0318131 0)
(0.0397271 -0.0299624 0)
(0.0432215 -0.0288308 0)
(0.0441863 -0.0271988 0)
(0.0439013 -0.025452 0)
(0.043658 -0.0232176 0)
(0.0443993 -0.0195711 0)
(0.0459906 -0.0145948 0)
(0.0476564 -0.00913747 0)
(0.0488044 -0.0038148 0)
(0.049015 0.00124006 0)
(0.0480349 0.00609109 0)
(0.0459084 0.0107284 0)
(0.0428244 0.0147436 0)
(0.0394333 0.0174956 0)
(0.0366183 0.0185951 0)
(0.0349146 0.0186097 0)
(0.0341255 0.0185683 0)
(0.0333543 0.0192375 0)
(0.0319362 0.0208256 0)
(0.0297592 0.0232406 0)
(0.0268074 0.0261619 0)
(0.0229913 0.029016 0)
(0.0187064 0.0307478 0)
(0.0152828 0.0298089 0)
(0.0140384 0.0252382 0)
(0.0146594 0.0184788 0)
(0.015014 0.012611 0)
(0.015189 0.00883297 0)
(0.0149831 0.0104063 0)
(0.0131952 0.0179837 0)
(0.0114607 0.0289535 0)
(0.00866384 0.0396476 0)
(0.00339785 0.046839 0)
(-0.00364375 0.0501373 0)
(-0.0110037 0.0508025 0)
(-0.0178461 0.0505502 0)
(-0.0243123 0.050068 0)
(-0.0309645 0.0494537 0)
(-0.0381685 0.0481773 0)
(-0.0460043 0.0455517 0)
(-0.0540006 0.0412199 0)
(-0.0611829 0.0349166 0)
(-0.0665167 0.0269847 0)
(-0.0695297 0.0181214 0)
(-0.0705655 0.00924215 0)
(-0.0702622 0.00106369 0)
(-0.0689037 -0.0066689 0)
(-0.0664553 -0.0143826 0)
(-0.062813 -0.0223091 0)
(-0.0578864 -0.0299695 0)
(-0.0524396 -0.0361494 0)
(-0.0475873 -0.0399323 0)
(-0.043544 -0.0415807 0)
(-0.0397883 -0.0418455 0)
(-0.0352002 -0.0412839 0)
(-0.0282505 -0.0388909 0)
(-0.0179434 -0.0343385 0)
(-0.00301385 -0.0313764 0)
(0.0192318 -0.0397214 0)
(0.0504318 -0.0633499 0)
(0.0782686 -0.0858904 0)
(0.0904578 -0.0898373 0)
(0.0851484 -0.0611826 0)
(0.0812704 -0.00788921 0)
(0.0676902 0.0340867 0)
(0.0262442 0.066158 0)
(-0.0135022 0.0708729 0)
(-0.0101379 0.0297241 0)
(0.0204446 -0.0345989 0)
(0.0487649 0.044946 0)
(0.030485 0.0958517 0)
(-0.0274263 0.0761746 0)
(-0.0688184 0.0466502 0)
(-0.0943424 0.000269676 0)
(-0.103606 -0.0670902 0)
(-0.0988069 -0.112084 0)
(-0.0829084 -0.116023 0)
(-0.0527656 -0.0964244 0)