/*--------------------------------*- C++ -*----------------------------------*\
| =========                 |                                                 |
| \\      /  F ield         | OpenFOAM: The Open Source CFD Toolbox           |
|  \\    /   O peration     | Version:  2412                                  |
|   \\  /    A nd           | Website:  www.openfoam.com                      |
|    \\/     M anipulation  |                                                 |
\*---------------------------------------------------------------------------*/
FoamFile
{
    version     2.0;
    format      ascii;
    arch        "LSB;label=32;scalar=64";
    class       volScalarField;
    location    "7.9";
    object      alpha.lava;
}
// * * * * * * * * * * * * * * * * * * * * * * * * * * * * * * * * * * * * * //

dimensions      [0 0 0 0 0 0 0];

internalField   nonuniform List<scalar> 
6400
(
0.999999
0.999999
1
1
1.00001
1.00001
1.00001
1.00001
1
0.999999
0.999996
0.999994
0.999995
1
1.00001
1.00002
1.00003
1.00002
1.00001
0.999988
0.999973
0.999972
0.999988
1.00001
1.00004
1.00005
1.00003
1
0.999969
0.999955
0.999966
0.999996
1.00003
1.00005
1.00005
1.00002
0.999987
0.999963
0.999961
0.99998
1.00001
1.00004
1.00004
1.00003
1.00001
0.999981
0.999967
0.99997
0.999987
1.00001
1.00002
1.00002
1.00001
0.999996
0.999979
0.999971
0.999976
0.99999
1.00001
1.00001
1.00001
1
0.999987
0.99998
0.999983
0.999993
1
1.00001
1
0.99999
0.999981
0.99998
0.999989
1
1.00001
1.00001
0.999996
0.999984
0.999977
0.999986
1
1
1
0.999997
0.999997
1
1.00001
1.00002
1.00002
1.00001
1.00001
1.00001
1
1.00001
1.00001
1.00001
1.00001
1.00002
1.00002
1.00002
1.00001
1
0.999995
0.999989
0.99999
0.999997
1.00001
1.00002
1.00002
1
0.999987
0.999973
0.99997
0.99998
0.999997
1.00001
1.00002
1.00002
1
0.999989
0.99998
0.999983
0.999995
1.00001
1.00002
1.00003
1.00002
1.00001
0.999993
0.999986
0.999986
0.999994
1
1.00001
1.00001
1.00001
0.999995
0.999986
0.999982
0.999986
0.999993
1
1
0.999998
0.999992
0.999987
0.999986
0.99999
0.999993
0.999994
0.999991
0.999986
0.999984
0.999986
0.999993
1
1.00001
1
0.999996
0.99999
1
1.00001
1.00001
1
0.999994
0.999994
1
1.00001
1.00002
1.00003
1.00003
1.00002
1.00001
1
0.999999
1
1.00001
1.00002
1.00003
1.00003
1.00002
1.00001
0.999993
0.999979
0.999976
0.999986
1
1.00002
1.00002
1.00001
0.99999
0.999969
0.999958
0.999964
0.999982
1
1.00002
1.00002
1.00001
0.999995
0.999982
0.99998
0.999989
1
1.00002
1.00003
1.00003
1.00002
1
0.999993
0.99999
0.999993
1
1.00001
1.00001
1.00001
1
0.999991
0.999985
0.999986
0.99999
0.999996
0.999997
0.999993
0.999986
0.99998
0.999981
0.999987
0.999995
0.999999
0.999995
0.999986
0.999978
0.999976
0.999985
1
1.00001
1.00002
1.00001
0.999997
0.999994
1.00001
1.00001
1.00001
0.999999
0.999991
0.999992
1
1.00002
1.00003
1.00003
1.00003
1.00002
1.00001
1
0.999998
1
1.00001
1.00002
1.00003
1.00003
1.00003
1.00001
0.99999
0.999975
0.999971
0.99998
0.999998
1.00001
1.00002
1.00001
0.999988
0.999965
0.999953
0.999958
0.999977
1
1.00002
1.00002
1.00001
0.999996
0.999982
0.999979
0.999987
1
1.00002
1.00003
1.00003
1.00002
1.00001
0.999994
0.999989
0.999992
1
1.00001
1.00001
1.00001
1
0.999991
0.999984
0.999985
0.99999
0.999995
0.999995
0.99999
0.999982
0.999978
0.999981
0.99999
0.999999
1
0.999996
0.999985
0.999976
0.999976
0.999988
1
1.00002
1.00001
1.00001
0.999987
1.00001
1.00002
1.00002
1.00001
0.999999
0.999991
0.999994
1
1.00002
1.00003
1.00003
1.00003
1.00002
1.00001
1
1
1
1.00001
1.00001
1.00002
1.00002
1.00002
1.00001
0.999993
0.999976
0.999967
0.999972
0.999987
1
1.00001
1.00001
0.999993
0.999971
0.999956
0.999957
0.999972
0.999996
1.00002
1.00002
1.00002
1
0.999989
0.999982
0.999986
0.999999
1.00001
1.00003
1.00003
1.00002
1.00001
0.999996
0.999989
0.999989
0.999996
1
1.00001
1.00001
1
0.99999
0.999983
0.999983
0.999987
0.999991
0.999991
0.999986
0.999979
0.999977
0.999981
0.999991
1
1
0.999997
0.999986
0.999978
0.99998
0.99999
1.00001
1.00001
1.00002
0.999982
1
1.00001
1.00002
1.00002
1.00001
0.999997
0.999991
0.999994
1.00001
1.00002
1.00003
1.00003
1.00003
1.00002
1.00001
1.00001
1
1
1
1
1.00001
1.00002
1.00002
1.00001
0.999997
0.999977
0.999963
0.999963
0.999976
0.999996
1.00001
1.00001
0.999999
0.999978
0.99996
0.999956
0.999968
0.99999
1.00001
1.00002
1.00002
1.00001
0.999996
0.999986
0.999986
0.999994
1.00001
1.00002
1.00003
1.00002
1.00001
1
0.99999
0.999988
0.999992
1
1.00001
1.00001
0.999999
0.999991
0.999986
0.999985
0.999988
0.99999
0.999989
0.999984
0.999979
0.999978
0.999984
0.999994
1
1
0.999997
0.999987
0.99998
0.999982
0.999994
1.00001
1.00002
0.999985
0.999992
0.999998
1.00001
1.00003
1.00002
1.00001
0.999997
0.99999
0.999995
1.00001
1.00002
1.00003
1.00003
1.00002
1.00002
1.00001
1.00001
1.00001
1
0.999997
0.999997
1
1.00001
1.00002
1.00001
1
0.99998
0.999963
0.999959
0.999969
0.99999
1.00001
1.00001
1
0.999984
0.999965
0.999958
0.999966
0.999986
1.00001
1.00002
1.00002
1.00001
1
0.999988
0.999985
0.99999
1
1.00001
1.00002
1.00002
1.00001
1
0.999991
0.999987
0.99999
0.999996
1
1
0.999998
0.999991
0.999987
0.999987
0.999989
0.99999
0.999988
0.999982
0.999978
0.999979
0.999987
0.999998
1.00001
1.00001
0.999998
0.999987
0.999982
0.999986
1
1.00002
0.999998
0.999988
0.999986
1
1.00002
1.00003
1.00003
1.00001
0.999997
0.99999
0.999995
1.00001
1.00002
1.00003
1.00003
1.00002
1.00001
1.00001
1.00001
1.00001
1
0.999993
0.99999
0.999993
1
1.00001
1.00001
1
0.999983
0.999964
0.999957
0.999965
0.999984
1
1.00001
1.00001
0.999991
0.999972
0.999963
0.999967
0.999983
1
1.00002
1.00002
1.00002
1
0.999992
0.999986
0.999988
0.999996
1.00001
1.00002
1.00002
1.00001
1
0.999994
0.999988
0.999989
0.999993
0.999997
0.999998
0.999996
0.999992
0.999991
0.999991
0.999993
0.999992
0.999987
0.999981
0.999977
0.99998
0.999989
1
1.00001
1.00001
0.999997
0.999988
0.999985
0.999995
1.00001
1.00001
0.99999
0.999981
0.999984
1
1.00003
1.00004
1.00003
1.00001
0.999995
0.999988
0.999996
1.00001
1.00002
1.00003
1.00002
1.00001
1
1
1.00001
1.00001
1
0.999991
0.999984
0.999985
0.999995
1.00001
1.00001
1.00001
0.999988
0.999968
0.999957
0.999961
0.999978
0.999999
1.00001
1.00001
0.999997
0.999979
0.999967
0.999968
0.999979
0.999997
1.00001
1.00002
1.00002
1.00001
0.999996
0.999988
0.999987
0.999992
1
1.00001
1.00002
1.00001
1.00001
0.999998
0.999992
0.99999
0.999991
0.999993
0.999994
0.999994
0.999993
0.999994
0.999996
0.999996
0.999993
0.999987
0.99998
0.999978
0.999982
0.999992
1
1.00001
1.00001
0.999998
0.999991
0.999995
1
1.00002
1
0.999988
0.999978
0.999986
1.00001
1.00003
1.00004
1.00003
1.00001
0.999993
0.999986
0.999995
1.00001
1.00002
1.00002
1.00001
1
0.999997
1
1.00001
1.00001
1
0.99999
0.99998
0.999979
0.999989
1
1.00001
1.00001
0.999993
0.999972
0.999958
0.999959
0.999974
0.999994
1.00001
1.00001
1
0.999986
0.999973
0.99997
0.999977
0.999991
1.00001
1.00002
1.00002
1.00001
1
0.999992
0.999988
0.99999
0.999997
1.00001
1.00001
1.00001
1.00001
1
0.999996
0.999992
0.99999
0.99999
0.99999
0.999991
0.999994
0.999997
1
1
0.999995
0.999988
0.999981
0.999979
0.999985
0.999995
1.00001
1.00001
1.00001
1
0.999998
0.999998
1.00002
1.00001
1.00001
0.999987
0.999978
0.999988
1.00001
1.00003
1.00004
1.00003
1.00001
0.999989
0.999984
0.999995
1.00001
1.00002
1.00002
1.00001
0.999996
0.999991
0.999998
1.00001
1.00001
1.00001
0.999991
0.999978
0.999975
0.999985
1
1.00001
1.00001
0.999998
0.999978
0.999962
0.999961
0.999973
0.999992
1.00001
1.00001
1.00001
0.999993
0.99998
0.999974
0.999977
0.999988
1
1.00001
1.00002
1.00001
1.00001
0.999997
0.99999
0.999989
0.999994
1
1.00001
1.00001
1.00001
1.00001
1
0.999994
0.999989
0.999986
0.999986
0.999989
0.999994
1
1
1
0.999997
0.999988
0.999982
0.999981
0.999988
0.999998
1.00001
1.00001
1.00001
1
0.999998
1
1.00002
1.00003
1.00001
0.999986
0.999977
0.999988
1.00001
1.00004
1.00004
1.00003
1.00001
0.999987
0.999983
0.999996
1.00001
1.00002
1.00002
1
0.999991
0.999987
0.999995
1.00001
1.00001
1.00001
0.999993
0.999978
0.999973
0.999981
0.999998
1.00001
1.00001
1
0.999984
0.999968
0.999964
0.999972
0.999989
1
1.00001
1.00001
0.999997
0.999985
0.999978
0.999978
0.999985
0.999996
1.00001
1.00001
1.00001
1.00001
1
0.999993
0.999989
0.99999
0.999996
1
1.00001
1.00001
1.00001
1
0.999996
0.999988
0.999984
0.999983
0.999987
0.999995
1
1.00001
1
0.999998
0.999989
0.999982
0.999983
0.99999
0.999999
1.00001
1.00001
1
0.999999
0.99998
1.00002
1.00004
1.00003
1.00001
0.999985
0.999976
0.999988
1.00001
1.00004
1.00004
1.00003
1
0.999984
0.999982
0.999995
1.00001
1.00002
1.00001
1
0.999986
0.999983
0.999993
1.00001
1.00002
1.00001
0.999996
0.999979
0.999972
0.999978
0.999994
1.00001
1.00001
1
0.999988
0.999973
0.999967
0.999972
0.999985
0.999998
1.00001
1.00001
1
0.999991
0.999983
0.999981
0.999985
0.999994
1
1.00001
1.00002
1.00001
1.00001
0.999998
0.999991
0.999989
0.999993
0.999999
1.00001
1.00001
1.00001
1.00001
0.999998
0.999989
0.999983
0.999982
0.999986
0.999994
1
1.00001
1.00001
0.999998
0.999989
0.999984
0.999985
0.999992
1
1.00001
1.00001
1
0.999963
1.00001
1.00003
1.00004
1.00003
1.00001
0.999984
0.999976
0.999989
1.00001
1.00003
1.00004
1.00002
1
0.999983
0.999982
0.999995
1.00001
1.00002
1.00001
0.999998
0.999984
0.999981
0.999992
1.00001
1.00002
1.00001
0.999999
0.999982
0.999973
0.999976
0.99999
1
1.00001
1.00001
0.999993
0.999978
0.999971
0.999972
0.999981
0.999993
1
1.00001
1
0.999998
0.999991
0.999987
0.999988
0.999993
1
1.00001
1.00002
1.00002
1.00001
1
0.999995
0.999991
0.999992
0.999997
1
1.00001
1.00001
1.00001
1
0.999991
0.999984
0.999982
0.999986
0.999994
1
1.00001
1.00001
0.999998
0.999991
0.999987
0.999989
0.999995
1
1.00001
1
0.999965
0.999994
1.00001
1.00003
1.00004
1.00003
1.00001
0.999984
0.999976
0.999988
1.00001
1.00003
1.00003
1.00002
0.999997
0.999981
0.999982
0.999996
1.00001
1.00002
1.00001
0.999997
0.999983
0.999981
0.999991
1.00001
1.00002
1.00001
1
0.999984
0.999974
0.999976
0.999987
1
1.00001
1.00001
0.999997
0.999984
0.999976
0.999975
0.999981
0.999991
1
1.00001
1.00001
1
0.999999
0.999994
0.999991
0.999993
0.999999
1.00001
1.00001
1.00002
1.00001
1.00001
0.999999
0.999992
0.999991
0.999995
1
1.00001
1.00001
1.00001
1
0.999993
0.999986
0.999983
0.999987
0.999995
1
1.00001
1
0.999999
0.999993
0.999991
0.999993
0.999998
1
1.00001
0.999984
0.999985
0.999984
1
1.00003
1.00003
1.00003
1
0.999982
0.999974
0.999984
1.00001
1.00002
1.00003
1.00001
0.999993
0.99998
0.999982
0.999995
1.00001
1.00002
1.00001
0.999997
0.999985
0.999982
0.999992
1.00001
1.00002
1.00001
1
0.999989
0.999979
0.999979
0.999988
1
1.00001
1.00001
1
0.999992
0.999984
0.999981
0.999985
0.999992
1
1.00001
1.00001
1.00001
1.00001
1
0.999995
0.999994
0.999997
1
1.00001
1.00002
1.00002
1.00001
1
0.999995
0.999992
0.999994
1
1.00001
1.00001
1.00001
1.00001
0.999998
0.999991
0.999989
0.999992
0.999999
1.00001
1.00001
1.00001
1
0.999998
0.999996
0.999998
1
1.00001
1.00001
0.999987
0.999973
0.999974
0.999996
1.00002
1.00003
1.00002
0.999999
0.999979
0.999971
0.999981
1
1.00002
1.00002
1.00001
0.999991
0.999981
0.999983
0.999995
1.00001
1.00002
1.00001
0.999999
0.999989
0.999986
0.999994
1.00001
1.00002
1.00002
1.00001
0.999997
0.999988
0.999987
0.999993
1
1.00001
1.00001
1.00001
1
0.999995
0.999991
0.999991
0.999996
1
1.00001
1.00001
1.00001
1.00001
1.00001
0.999999
0.999995
0.999996
1
1.00001
1.00002
1.00002
1.00001
1.00001
1
0.999995
0.999995
1
1.00001
1.00001
1.00002
1.00001
1.00001
0.999999
0.999997
0.999999
1
1.00001
1.00001
1.00001
1.00001
1
1
1.00001
1
1.00002
0.999992
0.999976
0.999962
0.999968
0.999986
1.00001
1.00001
1.00001
0.99999
0.999973
0.999967
0.999975
0.999992
1.00001
1.00001
1
0.999989
0.999981
0.999983
0.999994
1.00001
1.00001
1.00001
1
0.999995
0.999992
0.999998
1.00001
1.00002
1.00002
1.00002
1.00001
1
0.999999
1
1.00001
1.00001
1.00002
1.00002
1.00001
1.00001
1
1
1
1
1.00001
1.00001
1.00002
1.00001
1.00001
1
0.999997
0.999996
1
1.00001
1.00001
1.00002
1.00002
1.00001
1.00001
1
1
1.00001
1.00001
1.00002
1.00002
1.00002
1.00002
1.00001
1.00001
1.00001
1.00001
1.00002
1.00002
1.00002
1.00002
1.00001
1.00001
1
1.00002
0.999995
0.999982
0.999968
0.999961
0.999966
0.99998
0.999994
1
0.999996
0.999984
0.999972
0.999968
0.999976
0.999989
1
1
0.999999
0.99999
0.999984
0.999986
0.999995
1.00001
1.00001
1.00001
1.00001
1
0.999998
1
1.00001
1.00002
1.00002
1.00002
1.00002
1.00001
1.00001
1.00001
1.00001
1.00002
1.00002
1.00002
1.00002
1.00002
1.00001
1.00001
1
1.00001
1.00001
1.00001
1.00002
1.00002
1.00001
1
1
0.999998
1
1.00001
1.00002
1.00002
1.00002
1.00002
1.00001
1.00001
1.00001
1.00001
1.00002
1.00002
1.00003
1.00003
1.00002
1.00002
1.00002
1.00002
1.00002
1.00002
1.00002
1.00002
1.00002
1.00002
1.00001
0.999742
0.999579
0.999559
0.999648
0.999739
0.999541
0.999397
0.99953
0.999739
0.999516
0.999359
0.999505
0.999742
0.999508
0.999353
0.999507
0.999774
0.999561
0.99941
0.999541
0.999799
0.999613
0.999477
0.999589
0.999838
0.999698
0.999573
0.999643
0.999854
0.99977
0.999661
0.999695
0.999862
0.99985
0.999751
0.999736
0.999836
0.999903
0.999813
0.999765
0.999807
0.999907
0.999864
0.999785
0.999767
0.999845
0.999877
0.999779
0.999724
0.999787
0.999887
0.999788
0.999707
0.999752
0.999881
0.999791
0.999693
0.999731
0.999882
0.999808
0.999705
0.999735
0.999884
0.99982
0.999722
0.999751
0.999893
0.999847
0.999773
0.999806
0.999922
0.99988
0.999835
0.999875
0.999952
0.999917
0.999913
0.999952
0.999961
0.999964
0.000233142
0.00039293
0.000418003
0.000328304
0.000228476
0.000413905
0.000546456
0.000408147
0.000201377
0.000430156
0.000592482
0.000448612
0.000208196
0.000437489
0.000590451
0.000438676
0.00017874
0.000401604
0.000559421
0.000432455
0.000175529
0.000361048
0.000498926
0.000393171
0.000153664
0.000302633
0.000434509
0.000367687
0.000157411
0.000241785
0.00035214
0.000322434
0.000162193
0.000179973
0.000282189
0.000297559
0.000195433
0.000124731
0.000211982
0.000257083
0.000214796
0.00011519
0.000157817
0.000235097
0.000250318
0.000166848
0.000129438
0.000222172
0.000274582
0.000211769
0.000114856
0.000217393
0.000301542
0.00025786
0.000127768
0.00021662
0.00031316
0.000276244
0.000129458
0.000209754
0.000318362
0.000293626
0.000146776
0.000210093
0.000306634
0.000275949
0.000134127
0.000182187
0.00025872
0.000226189
0.000110306
0.000149473
0.000190429
0.000147645
6.74608e-05
0.000100122
0.00010291
6.39064e-05
5.814e-05
5.21599e-05
2.02681e-15
6.64714e-19
1.29801e-18
6.72015e-19
2.27304e-19
4.21771e-18
1.149e-13
1.08439e-13
8.1844e-19
1.36802e-18
1.36802e-18
2.39535e-18
1.0898e-18
5.41144e-16
1.85581e-13
1.58576e-13
9.35083e-19
1.61231e-18
1.61231e-18
1.82102e-18
8.31655e-19
4.78619e-18
1.37536e-13
1.2737e-13
1.25443e-19
6.04477e-19
8.47621e-19
5.66096e-19
5.29168e-22
1.7524e-18
5.27827e-14
7.00636e-14
-7.30461e-19
1.31122e-20
1.68901e-19
1.62898e-19
6.10119e-24
2.36819e-19
8.57699e-15
2.96382e-14
1.8639e-14
1.04228e-15
2.69192e-20
4.46493e-20
2.9114e-20
-2.80816e-53
4.91648e-21
1.10466e-14
2.43901e-14
2.64042e-19
2.38402e-19
1.26218e-30
1.32592e-19
6.70293e-21
6.70393e-21
-3.32632e-19
2.37943e-14
1.84556e-14
1.02321e-15
1.71468e-19
2.99343e-19
9.19125e-20
2.07435e-22
5.73784e-17
1.36566e-14
1.23163e-14
9.68476e-20
1.18883e-19
1.03467e-19
2.80125e-20
1.07806e-22
1.66794e-17
2.18238e-15
1.09224e-15
1.34208e-17
2.46778e-21
2.29458e-22
2.74795e-23
2.29455e-22
1.85327e-18
1.67744e-20
6.17209e-19
1.44592e-18
5.13254e-19
1.44441e-20
5.27633e-20
2.82502e-18
2.60283e-18
5.88745e-19
1.80051e-18
5.5416e-18
1.52618e-18
6.46857e-20
1.17717e-19
4.68705e-18
3.64529e-18
7.98196e-19
1.90069e-18
4.85575e-18
7.91189e-19
6.84768e-20
3.72279e-20
2.60826e-18
2.06394e-18
7.65467e-20
6.04481e-19
1.47273e-18
8.08424e-23
3.71828e-23
8.2119e-23
3.93504e-19
6.66798e-19
6.54388e-21
1.31026e-20
2.72671e-20
6.88161e-24
-2.01457e-50
2.57268e-26
7.65912e-25
5.90502e-20
7.41546e-21
2.98097e-26
5.45332e-31
-6.26087e-51
-1.36926e-46
-1.80578e-23
6.03362e-26
-1.06523e-19
1.16738e-19
-1.03537e-20
6.27382e-19
-5.21436e-20
7.8469e-20
3.32396e-20
7.91978e-19
1.15322e-20
2.21387e-19
1.46425e-19
3.36506e-21
5.59015e-20
2.54884e-19
8.75876e-20
1.94279e-23
1.94245e-22
1.55962e-19
1.29869e-19
6.65068e-21
5.65901e-20
1.13173e-19
3.67863e-20
7.73946e-23
6.89539e-23
2.0461e-20
8.46352e-21
7.93062e-23
3.34948e-21
2.18034e-21
2.74694e-23
1.37458e-23
1.21893e-23
5.33321e-24
3.6799e-24
1.65559e-23
7.19642e-24
1.08539e-25
1.74087e-26
9.65786e-24
3.01084e-23
2.07961e-24
5.06367e-24
1.68289e-23
3.12313e-23
2.18965e-25
1.10323e-26
1.2061e-25
3.04535e-23
-5.0185e-25
1.55279e-26
6.0908e-26
1.69468e-23
1.30267e-25
1.869e-27
-6.53063e-25
1.94039e-26
-8.66657e-24
3.63887e-28
1.62131e-33
6.64859e-29
4.17324e-27
7.65233e-23
-2.29598e-39
-2.58297e-39
-4.52773e-44
-9.11797e-30
-1.21293e-25
-7.0426e-29
-1.41228e-25
4.10609e-26
-2.85091e-37
-1.08539e-29
-3.87756e-26
-1.47073e-31
-3.41715e-41
-1.28563e-28
-1.74193e-26
-1.4778e-30
4.56455e-32
-5.35716e-29
-2.53773e-24
-6.92065e-29
4.63134e-25
0
-2.55034e-24
-3.45912e-28
1.87575e-24
-1.89419e-24
-5.47391e-28
2.10212e-25
6.01323e-37
-5.17253e-24
5.61029e-25
9.4958e-25
7.53287e-24
-8.76883e-25
8.86376e-25
1.08333e-24
8.98118e-26
1.19088e-27
1.39762e-24
6.52335e-25
1.19463e-24
-6.12983e-26
2.2457e-25
1.08304e-25
5.12335e-25
5.67164e-26
3.77362e-26
1.87322e-25
3.49857e-27
2.59595e-25
5.54172e-24
2.67977e-26
1.52774e-25
1.59302e-25
4.66634e-26
1.70653e-26
3.06127e-25
4.1283e-25
3.03347e-26
1.98874e-26
2.90001e-25
5.07392e-25
2.65761e-26
1.10284e-26
2.27485e-25
3.75051e-25
1.48727e-26
1.5524e-26
1.01829e-25
2.17584e-25
8.32213e-27
1.879e-27
8.71773e-27
4.24726e-26
1.82192e-27
7.1138e-28
-1.01805e-30
1.08221e-28
1.52913e-29
-2.18604e-31
9.02211e-44
4.17366e-43
4.52782e-44
-1.0565e-41
5.37329e-43
4.56039e-41
4.75125e-37
5.05763e-33
6.55963e-44
2.96132e-44
1.8122e-44
1.55156e-44
4.58463e-33
1.58277e-37
1.04726e-37
1.04743e-37
5.98361e-31
3.9127e-35
1.70383e-36
1.70684e-36
1.55543e-30
-7.34305e-30
-1.06016e-31
-2.38962e-34
1.45294e-28
-2.05154e-28
-2.19907e-32
3.93224e-27
2.18506e-27
-1.40127e-46
3.56062e-27
1.79021e-26
6.41536e-27
1.08168e-27
1.40623e-26
2.58419e-26
6.09737e-27
1.17797e-27
1.1186e-26
1.29663e-26
2.00518e-27
1.08184e-27
5.49044e-27
2.61896e-27
1.43434e-28
4.36083e-28
4.80589e-28
4.20047e-29
4.93084e-29
1.21732e-28
9.18476e-27
2.20169e-29
2.52363e-29
8.5219e-30
1.20508e-29
2.63081e-30
2.17393e-29
1.15257e-29
5.26251e-30
4.51586e-30
2.89351e-29
1.90788e-29
5.09899e-30
2.47594e-30
3.69651e-29
9.88947e-30
2.30406e-30
2.84415e-30
1.32426e-29
4.07642e-30
6.69984e-31
1.47848e-31
1.02543e-30
4.52808e-31
2.22128e-34
2.40707e-33
-3.46146e-35
8.39205e-39
1.01376e-38
1.18671e-38
1.34692e-38
1.42573e-38
1.4127e-38
1.31121e-38
1.1067e-38
8.34611e-39
5.49822e-39
3.18021e-39
1.44206e-39
4.57356e-40
7.8767e-41
3.57526e-44
8.98814e-42
1.13156e-38
1.04908e-37
3.67035e-37
8.43425e-37
1.4657e-36
2.11347e-36
2.49195e-36
2.44603e-36
3.14722e-36
3.44357e-36
4.39892e-36
2.53465e-35
-1.52304e-33
-9.33576e-34
1.27342e-31
7.19454e-32
1.33406e-32
1.89483e-31
3.70793e-31
5.68942e-31
1.567e-31
5.39662e-31
6.02091e-31
3.02856e-31
1.2003e-31
5.91862e-31
3.28637e-31
8.12794e-32
9.95031e-32
2.11512e-31
8.11995e-32
2.36629e-33
1.27889e-32
1.30523e-32
5.86981e-34
1.43368e-33
2.96017e-33
1.49543e-32
3.15619e-35
6.79198e-35
3.32414e-35
1.88647e-35
3.36922e-36
7.74347e-35
7.39154e-35
9.58588e-36
1.5011e-36
4.11281e-35
7.07417e-35
6.33126e-36
7.36336e-37
2.2712e-35
2.85001e-35
1.996e-36
3.72386e-37
2.46202e-36
2.81217e-36
2.23874e-37
1.45391e-38
2.99794e-38
3.04871e-39
4.02176e-43
5.09508e-45
4.01112e-45
5.73928e-45
7.47776e-45
9.02709e-45
1.00742e-44
1.04331e-44
1.01213e-44
9.25207e-45
7.6489e-45
5.59826e-45
3.51082e-45
1.90716e-45
8.29624e-46
2.57677e-46
4.29323e-47
1.72326e-50
4.08612e-49
2.68629e-47
3.66948e-44
2.64317e-43
8.85727e-43
1.95965e-42
3.30212e-42
4.30334e-42
4.40301e-42
3.61279e-42
2.32885e-42
1.16795e-42
4.10755e-43
1.20108e-43
-1.12636e-38
6.13061e-39
1.62299e-38
4.97671e-38
1.54393e-37
8.30669e-37
4.50612e-37
1.68529e-37
1.82314e-36
3.37016e-36
8.85721e-37
2.61476e-37
2.23674e-36
2.58747e-36
4.38879e-37
3.09077e-37
1.39834e-36
6.71275e-37
3.35613e-38
1.10027e-37
1.2744e-37
1.00531e-38
1.29303e-38
7.84089e-39
1.01107e-37
3.3538e-40
1.45533e-39
8.37346e-40
4.41509e-40
2.57392e-41
1.94227e-39
1.86445e-39
2.04797e-40
2.65792e-41
8.07775e-40
1.60941e-39
1.15912e-40
1.74172e-44
3.67229e-40
5.13207e-40
2.62095e-41
5.16179e-43
1.88228e-41
2.72346e-41
1.42314e-42
5.97793e-45
3.23678e-44
6.66138e-46
2.24971e-50
3.60974e-51
4.01815e-51
5.55779e-51
6.98055e-51
8.09289e-51
8.63701e-51
8.47996e-51
7.82042e-51
6.79233e-51
5.3354e-51
3.7163e-51
2.2183e-51
1.13345e-51
4.62631e-52
1.37856e-52
2.23883e-53
8.97144e-57
1.9569e-55
1.90918e-54
4.81927e-51
1.28092e-49
7.15928e-49
2.13205e-48
4.33413e-48
6.36007e-48
6.92717e-48
5.74928e-48
3.65283e-48
1.76638e-48
5.99155e-49
1.08909e-49
-1.93398e-43
7.84593e-45
6.95363e-44
3.63938e-44
1.50041e-42
9.67045e-42
5.48304e-42
2.54006e-42
3.23918e-41
6.35313e-41
1.68187e-41
5.27837e-42
4.86059e-41
5.84651e-41
9.97662e-42
7.34071e-42
3.43065e-41
1.6482e-41
8.23116e-43
2.73231e-42
3.19856e-42
2.57221e-43
3.20628e-43
1.22561e-43
3.11051e-42
9.34766e-45
4.67782e-44
2.72545e-44
1.42171e-44
1.85294e-45
6.39457e-44
5.8788e-44
6.28014e-45
1.03104e-45
2.46374e-44
4.61353e-44
3.10436e-45
5.80868e-49
9.10701e-45
1.17403e-44
5.35338e-46
1.33738e-47
3.27455e-46
3.61522e-46
1.47902e-47
1.16145e-49
1.25833e-49
7.73093e-52
2.34447e-56
3.40361e-57
4.75529e-57
6.32693e-57
7.6137e-57
8.39857e-57
8.49408e-57
7.85775e-57
6.79059e-57
5.50953e-57
4.03994e-57
2.61681e-57
1.45487e-57
6.916e-58
2.60841e-58
7.22489e-59
1.11235e-59
4.62774e-63
1.05403e-61
6.44428e-61
7.12251e-60
2.48784e-56
3.54322e-55
1.63968e-54
4.35259e-54
7.66977e-54
9.40582e-54
8.29998e-54
5.46396e-54
2.64606e-54
8.76224e-55
1.4903e-55
-3.90844e-48
7.95565e-51
4.89732e-49
3.27906e-49
2.03102e-47
1.48421e-46
9.35971e-47
5.16103e-47
7.22703e-46
1.50099e-45
4.12867e-46
1.43486e-46
1.36206e-45
1.65693e-45
2.87385e-46
2.22667e-46
1.05796e-45
5.08402e-46
2.52646e-47
8.73364e-47
1.0166e-46
8.14891e-48
1.02919e-47
3.50405e-48
1.13838e-46
3.34646e-49
1.80558e-48
1.0525e-48
5.44926e-49
2.95816e-50
2.33766e-48
2.19029e-48
2.26802e-49
3.70517e-50
8.46999e-49
1.54627e-48
9.87387e-50
6.46129e-53
2.63515e-49
3.16969e-49
1.31719e-50
3.9848e-52
6.65119e-51
5.74755e-51
1.88113e-52
1.32626e-54
6.56986e-55
1.6404e-57
2.85064e-62
4.2417e-63
6.16694e-63
7.81824e-63
8.90876e-63
9.26232e-63
8.7601e-63
7.54105e-63
6.04189e-63
4.54366e-63
3.09467e-63
1.85866e-63
9.59542e-64
4.25748e-64
1.50139e-64
3.8974e-65
5.68229e-66
2.52472e-69
6.25844e-68
3.91074e-67
1.76361e-66
7.65468e-64
1.07718e-61
9.07911e-61
3.41067e-60
7.63829e-60
1.10507e-59
1.06123e-59
7.55304e-60
3.85278e-60
1.29053e-60
2.18208e-61
-1.0947e-52
6.82797e-74
4.33144e-54
3.76413e-54
3.31e-52
2.80279e-51
1.95037e-51
1.27247e-51
1.95002e-50
4.22598e-50
1.21675e-50
4.70854e-51
4.60431e-50
5.65539e-50
9.98986e-51
8.08312e-51
3.89142e-50
1.8828e-50
9.44071e-52
3.37018e-51
3.89344e-51
3.10676e-52
3.96153e-52
1.24718e-52
4.90947e-51
1.56187e-53
8.19192e-53
4.75279e-53
2.40283e-53
2.43946e-54
1.04277e-52
9.5082e-53
9.57429e-54
1.81018e-54
3.52748e-53
6.07783e-53
3.67472e-54
4.43451e-57
8.97563e-54
1.00686e-53
3.82773e-55
1.3082e-56
1.60161e-55
1.09627e-55
2.88465e-57
1.6111e-59
4.54672e-60
5.20789e-63
3.67915e-68
6.00278e-69
8.39165e-69
1.00105e-68
1.06689e-68
1.03146e-68
9.00532e-69
7.10842e-69
5.19365e-69
3.56457e-69
2.24313e-69
1.24406e-69
5.96081e-70
2.48066e-70
8.30934e-71
2.07471e-71
2.95521e-72
1.50363e-75
4.37045e-74
2.78431e-73
1.18882e-72
9.47822e-72
2.75563e-68
4.38972e-67
2.34245e-66
6.79004e-66
1.19427e-65
1.26136e-65
9.77138e-66
5.45835e-66
1.95171e-66
3.38365e-67
-5.84901e-57
3.54196e-75
4.83643e-59
5.44393e-59
6.45347e-57
6.39039e-56
4.85454e-56
3.71022e-56
6.22549e-55
1.41608e-54
4.25616e-55
1.83111e-55
1.82301e-54
2.26075e-54
4.0615e-55
3.43909e-55
1.67198e-54
8.16627e-55
4.14701e-56
1.52713e-55
1.74931e-55
1.38021e-56
1.78668e-56
5.25285e-57
2.44897e-55
7.68385e-58
4.23557e-57
2.43725e-57
1.21252e-57
8.53306e-59
5.14151e-57
4.72798e-57
4.63079e-58
9.25589e-59
1.66967e-57
2.73984e-57
1.57717e-58
3.47179e-61
3.54615e-58
3.72913e-58
1.30086e-59
4.90734e-61
4.52731e-60
2.49883e-60
5.31206e-62
2.29989e-64
4.05526e-65
2.30132e-68
5.1925e-74
9.08376e-75
1.19588e-74
1.3326e-74
1.32276e-74
1.18124e-74
9.49988e-75
6.84678e-75
4.54395e-75
2.87052e-75
1.66474e-75
8.58007e-76
3.86244e-76
1.53394e-76
5.01169e-77
1.24373e-77
1.79711e-78
4.7058e-80
4.56704e-80
2.20472e-79
9.04634e-79
6.37756e-78
2.6699e-75
1.48706e-73
1.27294e-72
5.0958e-72
1.15874e-71
1.4441e-71
1.23835e-71
7.69895e-72
3.08282e-72
5.81014e-73
-4.76035e-61
0
6.65022e-64
9.45144e-64
1.50096e-61
1.72057e-60
1.43557e-60
1.26423e-60
2.30862e-59
5.53369e-59
1.73295e-59
8.2499e-60
8.34481e-59
1.04353e-58
1.90478e-59
1.68251e-59
8.23846e-59
4.07149e-59
2.10529e-60
7.93605e-60
9.04114e-60
7.06625e-61
9.22924e-61
2.55382e-61
1.36855e-59
4.59336e-62
2.48396e-61
1.41333e-61
6.90219e-62
6.10761e-63
2.92143e-61
2.66019e-61
2.54686e-62
5.42943e-63
8.99708e-62
1.4032e-61
7.69813e-63
2.6826e-65
1.60047e-62
1.59032e-62
5.11279e-64
2.04679e-65
1.49059e-64
6.7384e-65
1.16679e-66
3.94143e-69
4.6209e-70
1.39125e-73
8.03174e-80
1.49828e-80
1.84504e-80
1.91852e-80
1.75706e-80
1.43907e-80
1.05911e-80
6.87437e-81
4.11574e-81
2.35253e-81
1.25396e-81
1.25584e-81
8.46769e-81
1.84895e-78
7.74242e-77
8.42775e-77
6.9581e-77
2.57607e-77
1.24488e-81
2.02516e-85
1.06426e-85
5.05002e-84
5.12055e-83
1.52689e-80
4.6247e-79
3.11022e-78
1.01779e-77
1.64898e-77
1.64116e-77
1.13948e-77
5.14044e-78
1.10833e-78
-4.90161e-65
-9.89859e-69
9.60585e-69
1.47896e-68
4.06684e-66
5.39716e-65
4.96924e-65
4.97741e-65
9.84039e-64
2.49259e-63
8.11781e-64
4.23541e-64
4.36382e-63
5.48054e-63
1.01297e-63
9.34493e-64
4.5924e-63
2.29362e-63
1.20678e-64
4.66223e-64
5.27469e-64
4.06467e-65
5.38392e-65
1.40866e-65
8.53026e-64
2.92334e-66
1.61686e-65
9.0969e-66
4.36993e-66
3.55973e-67
1.83157e-65
1.66928e-65
1.56871e-66
3.52211e-67
5.44515e-66
8.09427e-66
4.23412e-67
1.84341e-69
8.18493e-67
7.74286e-67
2.30661e-68
9.53611e-70
5.68388e-69
2.1336e-69
3.03619e-71
8.1238e-74
6.62484e-75
1.12826e-78
1.42963e-85
2.72786e-86
3.12938e-86
3.01197e-86
2.52706e-86
1.87838e-86
1.24343e-86
7.17479e-87
7.19468e-87
3.81443e-86
5.06618e-83
6.72326e-80
6.70209e-77
1.51607e-74
2.41461e-73
5.16993e-73
4.86871e-73
1.86508e-73
9.37875e-78
5.01373e-83
3.89991e-87
4.37589e-89
4.31064e-89
5.16815e-88
1.03288e-85
1.6361e-84
8.3671e-84
1.89275e-83
2.36703e-83
1.82701e-83
9.03122e-84
2.25976e-84
-6.04813e-69
-1.42031e-71
1.38359e-73
-8.57889e-69
7.39533e-71
2.0128e-69
1.98865e-69
2.25802e-69
4.75758e-68
1.28022e-67
4.33812e-68
2.4504e-68
2.56673e-67
3.24791e-67
6.07361e-68
5.81666e-68
2.87411e-67
1.44608e-67
7.73656e-69
3.0578e-68
3.4336e-68
2.60839e-69
3.49854e-69
8.69668e-70
5.85591e-68
2.11246e-70
1.16433e-69
6.47935e-70
3.05314e-70
2.59828e-71
1.27637e-69
1.15992e-69
1.07312e-70
2.53699e-71
3.66576e-70
5.2144e-70
2.60478e-71
1.33323e-73
4.71544e-71
4.2751e-71
1.18652e-72
4.97772e-74
2.50557e-73
7.87252e-74
9.31583e-76
2.01173e-78
1.18187e-79
1.21114e-83
2.99176e-91
5.40731e-92
5.78021e-92
5.12425e-92
3.92579e-92
3.92591e-92
4.16909e-92
5.68151e-89
1.50731e-85
2.92561e-82
4.31757e-79
4.86544e-76
4.75767e-73
1.03098e-70
1.55201e-69
3.25538e-69
3.06604e-69
1.18164e-69
6.2041e-74
3.54106e-79
2.96182e-83
1.86246e-87
1.18354e-91
1.5662e-92
1.56401e-92
7.83266e-91
6.57216e-90
2.12814e-89
3.58923e-89
3.22095e-89
1.69941e-89
4.85102e-90
-9.16091e-73
-4.85789e-75
0
-2.90502e-71
-4.52842e-93
9.65492e-74
9.13766e-74
1.16847e-73
2.60342e-72
7.43433e-72
2.60533e-72
1.59172e-72
1.52366e-71
2.13628e-71
4.05506e-72
4.02172e-72
1.99931e-71
1.01054e-71
5.48365e-73
2.21906e-72
2.46932e-72
1.85132e-73
2.51136e-73
5.9371e-74
4.39898e-72
1.65167e-74
9.16921e-74
5.05826e-74
2.33566e-74
1.98768e-75
9.76256e-74
8.86668e-74
8.09161e-75
1.99315e-75
2.72552e-74
3.72733e-74
1.7826e-75
9.77962e-78
3.03991e-75
2.66339e-75
6.92598e-77
2.92258e-78
1.2714e-77
3.3743e-78
3.36032e-80
5.9736e-83
2.60282e-84
1.70006e-88
7.76268e-97
1.16298e-97
1.16294e-97
1.18689e-97
1.36831e-95
4.72936e-92
1.68046e-88
4.60307e-85
1.06178e-81
1.96192e-78
2.80868e-75
3.09247e-72
2.99666e-69
6.20443e-67
8.78346e-66
1.80223e-65
1.69757e-65
6.57823e-66
3.61295e-70
2.20973e-75
2.02047e-79
1.41152e-83
8.81992e-88
5.92272e-92
9.68288e-96
5.19594e-96
5.19461e-96
2.30589e-95
5.4128e-95
6.15467e-95
3.44134e-95
1.115e-95
-1.6997e-76
-1.4235e-78
0
-4.70819e-74
0
4.78846e-78
4.81279e-78
6.84136e-78
1.61458e-76
4.84682e-76
1.75389e-76
1.09295e-76
5.49639e-76
9.23571e-76
3.01611e-76
3.06468e-76
1.53323e-75
7.77514e-76
4.25897e-77
1.76895e-76
1.95043e-76
1.44622e-77
1.97397e-77
4.45053e-78
3.59267e-76
1.4137e-78
7.84996e-78
4.29906e-78
1.94582e-78
1.66742e-79
8.14815e-78
7.4157e-78
6.67918e-79
1.72365e-79
2.23037e-78
2.94058e-78
1.35059e-79
7.62502e-82
2.18456e-79
1.86419e-79
4.5707e-81
1.93557e-82
7.3978e-82
1.67597e-82
1.4203e-84
2.1204e-87
7.03131e-89
3.09012e-93
3.36851e-100
3.36851e-100
4.97116e-99
2.49565e-95
1.0169e-91
3.59823e-88
1.0932e-84
2.9256e-81
6.53031e-78
1.16846e-74
1.62241e-71
1.74638e-68
1.67793e-65
3.30917e-63
4.38338e-62
8.78199e-62
8.27393e-62
3.21977e-62
1.85602e-66
1.22161e-71
1.22784e-75
9.59444e-80
6.83839e-84
5.28358e-88
4.60194e-92
4.92432e-96
6.61984e-100
7.75142e-101
7.73579e-101
1.20754e-100
7.10626e-101
2.9871e-101
-3.79282e-80
-4.24638e-82
0
-6.09671e-77
-1.37801e-79
-1.14433e-91
2.97169e-82
4.5112e-82
1.12607e-80
3.53017e-80
1.31216e-80
8.71213e-81
-8.04317e-75
0
2.35113e-80
2.56806e-80
1.28529e-79
6.53114e-80
3.39723e-81
1.53124e-80
1.67593e-80
1.22021e-81
1.69048e-81
3.63248e-82
3.1704e-80
1.302e-82
7.26445e-82
3.94655e-82
1.75503e-82
1.53232e-83
7.38812e-82
6.75112e-82
6.00798e-83
1.6141e-83
1.99502e-82
2.54755e-82
1.12787e-83
6.28628e-86
1.74286e-83
1.45998e-83
3.39867e-85
1.44478e-86
4.91645e-86
9.64831e-87
7.02643e-89
8.98853e-92
2.32082e-93
7.01029e-98
3.36851e-100
6.86558e-99
3.56135e-95
1.59897e-91
6.29282e-88
2.15128e-84
6.31623e-81
1.65352e-77
3.57142e-74
6.1869e-71
8.33028e-68
8.77393e-65
8.36081e-62
1.56545e-59
1.92936e-58
3.76653e-58
3.55013e-58