/*--------------------------------*- C++ -*----------------------------------*\
| =========                 |                                                 |
| \\      /  F ield         | OpenFOAM: The Open Source CFD Toolbox           |
|  \\    /   O peration     | Version:  2412                                  |
|   \\  /    A nd           | Website:  www.openfoam.com                      |
|    \\/     M anipulation  |                                                 |
\*---------------------------------------------------------------------------*/
FoamFile
{
    version     2.0;
    format      ascii;
    arch        "LSB;label=32;scalar=64";
    class       surfaceScalarField;
    location    "7.9";
    object      phi;
}
// * * * * * * * * * * * * * * * * * * * * * * * * * * * * * * * * * * * * * //

dimensions      [0 3 -1 0 0 0 0];

oriented        oriented;

internalField   nonuniform List<scalar> 
12640
(
1.3193e-08
-1.22399e-08
3.13568e-08
-5.07525e-08
2.4561e-08
-6.82903e-08
-1.3289e-08
-3.35342e-08
-6.03818e-08
4.6992e-08
-7.81311e-08
1.26345e-07
-4.20592e-08
1.44107e-07
3.62346e-08
6.89043e-08
1.1027e-07
-7.12204e-08
1.26376e-07
-1.96152e-07
6.14114e-08
-2.20037e-07
-5.55533e-08
-1.09556e-07
-1.55352e-07
8.52443e-08
-1.70351e-07
2.52562e-07
-8.01057e-08
2.84406e-07
6.97815e-08
1.46857e-07
1.9085e-07
-9.1048e-08
2.05124e-07
-2.92181e-07
9.57586e-08
-3.3217e-07
-7.81647e-08
-1.77451e-07
-2.14292e-07
8.90918e-08
-2.28544e-07
3.13505e-07
-1.07757e-07
3.61631e-07
7.9948e-08
2.00626e-07
2.24609e-07
-7.91423e-08
2.40157e-07
-3.1615e-07
1.16365e-07
-3.72846e-07
-7.47791e-08
-2.16675e-07
-2.22009e-07
6.14144e-08
-2.4075e-07
3.01299e-07
-1.22277e-07
3.67537e-07
6.28293e-08
2.26699e-07
2.07721e-07
-3.64368e-08
2.31941e-07
-2.71085e-07
1.26372e-07
-3.48175e-07
-4.47533e-08
-2.31749e-07
-1.83698e-07
5.62321e-09
-2.15745e-07
2.28852e-07
-1.29292e-07
3.18104e-07
2.18788e-08
2.33037e-07
1.52534e-07
2.92233e-08
1.94429e-07
-1.78376e-07
1.31504e-07
-2.80707e-07
4.08274e-09
-2.31364e-07
-1.17101e-07
-6.57259e-08
-1.70219e-07
1.23797e-07
-1.33175e-07
2.39338e-07
-3.11512e-08
2.27239e-07
8.02249e-08
1.01303e-07
1.44969e-07
-6.90866e-08
1.34021e-07
-1.96835e-07
5.71197e-08
-2.2064e-07
-4.4623e-08
-1.33202e-07
-1.20223e-07
1.79009e-08
-1.3354e-07
1.55469e-07
-7.9901e-08
2.11167e-07
1.25336e-08
1.58811e-07
9.6937e-08
2.6728e-08
1.30897e-07
-1.16791e-07
9.75381e-08
-1.98092e-07
1.42866e-08
-1.7584e-07
-7.56066e-08
-6.25654e-08
-1.25186e-07
8.16164e-08
-1.08511e-07
1.80569e-07
-3.48103e-08
1.82681e-07
5.61263e-08
8.85098e-08
1.15412e-07
-4.98762e-08
1.11847e-07
-1.57787e-07
4.89666e-08
-1.78934e-07
-3.74683e-08
-1.05459e-07
-1.00169e-07
1.97182e-08
-1.07093e-07
1.28693e-07
-5.86027e-08
1.66581e-07
1.49547e-08
1.1938e-07
7.33659e-08
1.68062e-08
9.16199e-08
-8.84738e-08
7.37137e-08
-1.50039e-07
4.16573e-08
-1.47934e-07
1.29648e-08
-9.57759e-08
-2.15796e-08
-1.72447e-08
2.00538e-08
2.76469e-08
-1.85926e-08
6.44598e-08
-7.2954e-08
5.50009e-08
-8.88104e-08
-8.916e-09
-3.76215e-08
-8.82136e-08
6.33785e-08
-1.2428e-07
1.53229e-07
-7.90686e-08
1.62753e-07
3.28371e-08
6.45926e-08
1.45688e-07
-9.79613e-08
1.81551e-07
-2.28438e-07
1.03524e-07
-2.35296e-07
-5.30233e-08
-9.51285e-08
-1.95602e-07
1.22365e-07
-2.3037e-07
2.89052e-07
-1.24187e-07
2.9548e-07
6.83077e-08
1.23047e-07
2.33201e-07
-1.36558e-07
2.66218e-07
-3.31075e-07
1.39447e-07
-3.38932e-07
-7.72809e-08
-1.46171e-07
-2.55891e-07
1.40165e-07
-2.87389e-07
3.52951e-07
-1.49339e-07
3.64545e-07
7.8837e-08
1.64481e-07
2.62845e-07
-1.32659e-07
2.94152e-07
-3.5452e-07
1.54897e-07
-3.72842e-07
-7.22596e-08
-1.78557e-07
-2.54477e-07
1.14375e-07
-2.87825e-07
3.37382e-07
-1.57178e-07
3.65882e-07
5.79295e-08
1.89433e-07
2.3281e-07
-8.63385e-08
2.71006e-07
-3.04273e-07
1.57693e-07
-3.4644e-07
-3.65132e-08
-1.9798e-07
-2.00341e-07
5.04364e-08
-2.46348e-07
2.58891e-07
-1.57331e-07
3.17738e-07
9.71876e-09
2.04771e-07
1.60461e-07
-9.3106e-09
2.16821e-07
-2.05567e-07
1.5672e-07
-2.83124e-07
2.02955e-08
-2.10078e-07
-1.16786e-07
-3.40835e-08
-1.85229e-07
1.48588e-07
-1.5611e-07
2.45479e-07
-5.11417e-08
2.13543e-07
7.27159e-08
7.63854e-08
1.53734e-07
-9.21908e-08
1.5503e-07
-2.073e-07
8.00481e-08
-2.14502e-07
-3.15431e-08
-1.14404e-07
-1.24128e-07
3.99179e-08
-1.52813e-07
1.70223e-07
-1.04541e-07
2.11774e-07
-4.20621e-09
1.45048e-07
9.73318e-08
5.2594e-09
1.48275e-07
-1.35329e-07
1.22243e-07
-2.04148e-07
3.25699e-08
-1.65919e-07
-7.37109e-08
-4.14845e-08
-1.40196e-07
1.02792e-07
-1.3145e-07
1.90276e-07
-5.27222e-08
1.75356e-07
5.25567e-08
6.80643e-08
1.26856e-07
-7.19706e-08
1.30817e-07
-1.69011e-07
6.50445e-08
-1.73101e-07
-3.14499e-08
-8.64446e-08
-1.05127e-07
4.03163e-08
-1.19388e-07
1.38566e-07
-7.40308e-08
1.6006e-07
-5.3084e-10
1.00832e-07
6.33898e-08
-1.18761e-09
9.92438e-08
-9.06886e-08
1.03778e-07
-1.27299e-07
8.44231e-08
-1.07621e-07
-4.96628e-08
-6.79278e-08
4.36449e-08
-2.48244e-08
3.81571e-08
5.27467e-08
-2.29882e-08
1.10715e-07
-9.59487e-08
9.45038e-08
-1.23164e-07
3.84354e-10
-6.70408e-08
-1.19315e-07
5.5035e-08
-1.8296e-07
1.71448e-07
-1.33751e-07
1.98771e-07
1.50422e-08
1.00113e-07
1.78691e-07
-8.09358e-08
2.50049e-07
-2.38189e-07
1.70074e-07
-2.66368e-07
-2.69474e-08
-1.31536e-07
-2.26775e-07
9.87292e-08
-3.03006e-07
2.89378e-07
-1.98093e-07
3.18874e-07
3.49843e-08
1.57494e-07
2.59815e-07
-1.07984e-07
3.3827e-07
-3.22005e-07
2.16732e-07
-3.5339e-07
-3.77957e-08
-1.76915e-07
-2.75736e-07
1.08075e-07
-3.54796e-07
3.35081e-07
-2.26435e-07
3.69724e-07
3.43877e-08
1.90469e-07
2.74357e-07
-9.83633e-08
3.53759e-07
-3.28891e-07
2.2898e-07
-3.69068e-07
-2.38325e-08
-1.99217e-07
-2.56486e-07
7.91399e-08
-3.37179e-07
3.05384e-07
-2.2593e-07
3.53956e-07
6.59392e-09
2.04482e-07
2.24847e-07
-5.14944e-08
3.08622e-07
-2.67666e-07
2.19496e-07
-3.27639e-07
1.67057e-08
-2.07503e-07
-1.82561e-07
1.71757e-08
-2.71648e-07
2.195e-07
-2.11207e-07
2.93483e-07
-4.43712e-08
2.08938e-07
1.33593e-07
2.11412e-08
2.2998e-07
-1.65362e-07
2.0214e-07
-2.55043e-07
7.40981e-08
-2.09283e-07
-8.22135e-08
-6.07051e-08
-1.87212e-07
1.09373e-07
-1.93031e-07
2.15089e-07
-1.03467e-07
2.08138e-07
3.22586e-08
9.8179e-08
1.45997e-07
-5.57219e-08
1.8362e-07
-1.76121e-07
1.2951e-07
-2.0496e-07
1.25143e-08
-1.30617e-07
-1.08587e-07
7.65277e-09
-1.73463e-07
1.3954e-07
-1.49701e-07
1.98497e-07
-4.93873e-08
1.55042e-07
7.60315e-08
3.20675e-08
1.61339e-07
-1.06297e-07
1.61498e-07
-1.87617e-07
7.62479e-08
-1.69366e-07
-4.87336e-08
-6.20168e-08
-1.45987e-07
7.61972e-08
-1.63263e-07
1.70847e-07
-9.26324e-08
1.72119e-07
2.53114e-08
8.19507e-08
1.25005e-07
-4.80439e-08
1.53491e-07
-1.46543e-07
9.96745e-08
-1.62745e-07
-2.02201e-09
-9.3393e-08
-9.47267e-08
1.84893e-08
-1.33024e-07
1.10915e-07
-1.05224e-07
1.38884e-07
-3.07563e-08
9.74475e-08
5.93366e-08
1.91038e-08
1.22845e-07
-5.24724e-08
1.30248e-07
-8.93202e-08
-6.93465e-08
-9.0781e-08
3.4816e-08
-8.82594e-08
8.05687e-08
-1.85136e-08
6.30507e-08
8.81443e-08
-2.38881e-08
1.56646e-07
-1.30255e-07
1.26663e-07
-1.76126e-07
-3.05638e-09
-1.09762e-07
-1.60551e-07
4.86541e-08
-2.39834e-07
2.08807e-07
-1.72039e-07
2.62516e-07
2.0274e-08
1.56294e-07
2.26591e-07
-6.42451e-08
3.13301e-07
-2.72253e-07
2.10979e-07
-3.34243e-07
-3.34493e-08
-1.96593e-07
-2.77505e-07
7.2608e-08
-3.68196e-07
3.17336e-07
-2.39311e-07
3.86179e-07
4.1717e-08
2.27461e-07
3.09901e-07
-7.36401e-08
4.0181e-07
-3.41919e-07
2.56786e-07
-4.16359e-07
-4.33567e-08
-2.48373e-07
-3.2195e-07
6.68017e-08
-4.13713e-07
3.45646e-07
-2.64351e-07
4.25413e-07
3.74028e-08
2.60552e-07
3.14096e-07
-5.14672e-08
4.05967e-07
-3.29359e-07
2.64395e-07
-4.15294e-07
-2.29612e-08
-2.65568e-07
-2.87781e-07
2.79795e-08
-3.81376e-07
2.95596e-07
-2.58858e-07
3.89314e-07
8.04774e-10
2.65251e-07
2.46534e-07
2.49728e-09
3.44274e-07
-2.48087e-07
2.50176e-07
-3.51549e-07
2.79621e-08
-2.61396e-07
-1.94373e-07
-3.82188e-08
-2.98986e-07
1.91095e-07
-2.40067e-07
3.0603e-07
-6.12036e-08
2.55084e-07
1.35973e-07
7.6431e-08
2.497e-07
-1.29628e-07
2.29487e-07
-2.56988e-07
9.59752e-08
-2.4726e-07
-7.63694e-08
-1.1441e-07
-2.00438e-07
6.81338e-08
-2.19063e-07
2.07613e-07
-1.29363e-07
2.37758e-07
1.98846e-08
1.48726e-07
1.53984e-07
-1.11584e-08
2.08217e-07
-1.60822e-07
1.57852e-07
-2.26308e-07
2.92948e-08
-1.76474e-07
-1.12662e-07
-3.79262e-08
-1.96258e-07
1.18181e-07
-1.78605e-07
2.11743e-07
-6.8369e-08
1.94654e-07
7.72751e-08
7.62584e-08
1.81537e-07
-8.07457e-08
1.88767e-07
-1.93033e-07
9.52293e-08
-2.01302e-07
-4.79407e-08
-1.02591e-07
-1.62513e-07
4.81292e-08
-1.86759e-07
1.68583e-07
-1.09945e-07
1.95002e-07
2.25342e-08
1.16966e-07
1.36369e-07
-1.86327e-08
1.71336e-07
-1.36131e-07
1.14105e-07
-1.74621e-07
1.97064e-09
-1.20559e-07
-1.02297e-07
-1.1143e-08
-1.46098e-07
9.14256e-08
-1.10515e-07
1.37093e-07
-1.33516e-08
1.12398e-07
8.68648e-08
3.84675e-08
1.27344e-07
-4.4093e-08
-7.10956e-08
-5.31843e-08
-1.16224e-08
-1.09989e-07
6.68061e-08
-1.0635e-07
1.25036e-07
-1.58048e-08
9.29883e-08
1.16676e-07
-2.82911e-08
1.99457e-07
-1.67275e-07
1.58666e-07
-2.25743e-07
-2.35687e-09
-1.43801e-07
-1.92552e-07
5.07483e-08
-2.85704e-07
2.47278e-07
-2.04538e-07
3.16222e-07
1.99645e-08
1.94643e-07
2.57662e-07
-6.33449e-08
3.56457e-07
-3.09316e-07
2.40732e-07
-3.87924e-07
-3.33549e-08
-2.36298e-07
-3.05094e-07
6.88997e-08
-4.05707e-07
3.5067e-07
-2.64797e-07
4.36731e-07
4.13272e-08
2.66598e-07
3.32188e-07
-6.687e-08
4.31965e-07
-3.69521e-07
2.77504e-07
-4.61436e-07
-4.18466e-08
-2.85655e-07
-3.37579e-07
5.66289e-08
-4.35643e-07
3.66029e-07
-2.8041e-07
4.63448e-07
3.39864e-08
2.95232e-07
3.22364e-07
-3.7589e-08
4.19625e-07
-3.416e-07
2.76364e-07
-4.45408e-07
-1.70281e-08
-2.97251e-07
-2.88644e-07
1.03079e-08
-3.87413e-07
2.99416e-07
-2.67605e-07
4.11305e-07
-8.00767e-09
2.93828e-07
2.40511e-07
2.37819e-08
3.43784e-07
-2.43838e-07
2.56563e-07
-3.65787e-07
3.95592e-08
-2.86927e-07
-1.82601e-07
-6.26386e-08
-2.93475e-07
1.7966e-07
-2.44962e-07
3.13297e-07
-7.51804e-08
2.77666e-07
1.19924e-07
1.03164e-07
2.40749e-07
-1.12376e-07
2.33497e-07
-2.58387e-07
1.11494e-07
-2.6698e-07
-5.78324e-08
-1.42368e-07
-1.89644e-07
4.67279e-08
-2.22552e-07
2.0435e-07
-1.45314e-07
2.54551e-07
7.16451e-10
1.76525e-07
1.4273e-07
1.2494e-08
2.11185e-07
-1.54165e-07
1.72852e-07
-2.40004e-07
4.72245e-08
-2.02598e-07
-1.02109e-07
-6.18996e-08
-1.98459e-07
1.09261e-07
-1.91242e-07
2.21978e-07
-8.34732e-08
2.17478e-07
6.81245e-08
9.86899e-08
1.82362e-07
-7.05221e-08
1.97587e-07
-1.99311e-07
1.06215e-07
-2.19254e-07
-4.05037e-08
-1.21864e-07
-1.61206e-07
3.72333e-08
-1.90585e-07
1.70171e-07
-1.16017e-07
2.06447e-07
1.68813e-08
1.31531e-07
1.32487e-07
-7.6099e-09
1.69337e-07
-1.32149e-07
1.13472e-07
-1.77364e-07
2.51778e-09
-1.27255e-07
-9.87628e-08
-1.85322e-08
-1.34498e-07
8.52348e-08
-8.63844e-08
1.30244e-07
6.6494e-09
9.75039e-08
7.26841e-08
1.36999e-08
-4.53615e-08
3.79173e-08
-6.73043e-08
-5.61939e-08
-4.93982e-09
-1.42559e-07
1.08824e-07
-1.39248e-07
1.71189e-07
-2.0108e-08
1.21794e-07
1.46786e-07
-2.96529e-08
2.46823e-07
-1.98765e-07
1.95183e-07
-2.71061e-07
1.84639e-09
-1.78239e-07
-2.22948e-07
4.59967e-08
-3.32924e-07
2.74117e-07
-2.41634e-07
3.58881e-07
1.32683e-08
2.29233e-07
2.83668e-07
-5.50479e-08
3.99133e-07
-3.30085e-07
2.75855e-07
-4.24638e-07
-2.41448e-08
-2.68361e-07
-3.2466e-07
5.77901e-08
-4.41272e-07
3.64285e-07
-2.96386e-07
4.65712e-07
2.95033e-08
2.94858e-07
3.44003e-07
-5.31267e-08
4.58949e-07
-3.75285e-07
3.04817e-07
-4.81777e-07
-2.72181e-08
-3.09553e-07
-3.40955e-07
4.03377e-08
-4.53471e-07
3.63787e-07
-3.03287e-07
4.75018e-07
1.64488e-08
3.14706e-07
3.1726e-07
-1.89104e-08
4.28463e-07
-3.31745e-07
2.94975e-07
-4.48708e-07
3.24491e-09
-3.1254e-07
-2.75726e-07
-1.04037e-08
-3.88133e-07
2.8287e-07
-2.82442e-07
4.07345e-07
-3.06614e-08
3.05352e-07
2.20907e-07
4.59496e-08
3.37622e-07
-2.21962e-07
2.68102e-07
-3.55934e-07
6.38468e-08
-2.95179e-07
-1.57964e-07
-8.54863e-08
-2.82026e-07
1.54096e-07
-2.53727e-07
2.99064e-07
-1.00156e-07
2.83061e-07
9.21356e-08
1.25691e-07
2.2566e-07
-8.49732e-08
2.39832e-07
-2.41351e-07
1.35936e-07
-2.69847e-07
-2.89537e-08
-1.63457e-07
-1.72548e-07
1.93444e-08
-2.26655e-07
1.85945e-07
-1.67882e-07
2.55016e-07
-2.7236e-08
1.94932e-07
1.25049e-07
3.80315e-08
2.13009e-07
-1.35683e-07
1.92092e-07
-2.38075e-07
7.23231e-08
-2.17123e-07
-8.50597e-08
-8.39903e-08
-1.97832e-07
9.17007e-08
-2.05818e-07
2.17489e-07
-1.04147e-07
2.26979e-07
5.25162e-08
1.15985e-07
1.78899e-07
-5.46119e-08
2.06272e-07
-1.91995e-07
1.21208e-07
-2.22727e-07
-2.69174e-08
-1.33292e-07
-1.54627e-07
2.34615e-08
-1.92503e-07
1.59634e-07
-1.24218e-07
2.0274e-07
6.42563e-09
1.35589e-07
1.23503e-07
2.74093e-09
1.63917e-07
-1.18681e-07
1.12203e-07
-1.6475e-07
6.03668e-09
-1.19322e-07
-8.87575e-08
-1.86325e-08
-1.18317e-07
7.34308e-08
-7.54046e-08
1.03299e-07
-8.61338e-09
6.27917e-08
6.87907e-10
1.31611e-07
-9.00785e-08
5.51594e-08
-9.21856e-08
-8.54927e-08
9.01962e-09
-1.94241e-07
1.41178e-07
-1.74475e-07
2.12735e-07
-2.07633e-08
1.53762e-07
1.79683e-07
-2.56675e-08
2.93765e-07
-2.26137e-07
2.29148e-07
-3.15149e-07
3.86027e-09
-2.15191e-07
-2.53027e-07
3.54734e-08
-3.76937e-07
2.94322e-07
-2.74374e-07
3.9761e-07
9.24001e-09
2.65357e-07
3.08602e-07
-3.97887e-08
4.37234e-07
-3.41831e-07
3.05471e-07
-4.55385e-07
-1.79826e-08
-3.01409e-07
-3.4277e-07
3.8662e-08
-4.71556e-07
3.67031e-07
-3.21956e-07
4.87226e-07
2.08158e-08
3.23696e-07
3.54154e-07
-3.06739e-08
4.80446e-07
-3.68981e-07
3.26085e-07
-4.93661e-07
-1.56471e-08
-3.33665e-07
-3.42703e-07
1.51018e-08
-4.66093e-07
3.48945e-07
-3.20516e-07
4.77602e-07
1.76773e-09
3.33991e-07
3.1078e-07
8.43319e-09
4.32748e-07
-3.09432e-07
3.08612e-07
-4.42918e-07
2.0871e-08
-3.27177e-07
-2.61918e-07
-3.90246e-08
-3.8526e-07
2.5458e-07
-2.93158e-07
3.94507e-07
-5.08442e-08
3.15652e-07
2.01088e-07
7.4835e-08
3.29017e-07
-1.89539e-07
2.76444e-07
-3.37662e-07
8.57697e-08
-3.01539e-07
-1.33911e-07
-1.13528e-07
-2.69354e-07
1.19521e-07
-2.60177e-07
2.77023e-07
-1.22769e-07
2.85804e-07
6.58013e-08
1.51656e-07
2.10543e-07
-5.03077e-08
2.44635e-07
-2.17201e-07
1.57925e-07
-2.69261e-07
-2.39515e-09
-1.86126e-07
-1.565e-07
-1.34707e-08
-2.29854e-07
1.61158e-07
-1.87836e-07
2.51235e-07
-5.2081e-08
2.13082e-07
1.09301e-07
6.71955e-08
2.14381e-07
-1.1156e-07
2.08526e-07
-2.31196e-07
9.36769e-08
-2.29695e-07
-7.05929e-08
-1.08015e-07
-1.97041e-07
6.92532e-08
-2.17417e-07
2.07506e-07
-1.20623e-07
2.33059e-07
3.99371e-08
1.33657e-07
1.75499e-07
-3.46435e-08
2.11916e-07
-1.789e-07
1.31681e-07
-2.21559e-07
-1.68524e-08
-1.43537e-07
-1.48581e-07
6.80623e-09
-1.91493e-07
1.43519e-07
-1.27314e-07
1.93357e-07
7.82037e-10
1.36401e-07
1.16545e-07
1.36472e-08
1.56604e-07
-1.0108e-07
1.06071e-07
-1.46179e-07
3.13515e-09
-1.06784e-07
-8.82812e-08
-1.91749e-08
-1.14693e-07
5.65106e-08
-7.74637e-08
7.8221e-08
4.30111e-08
1.61937e-07
-5.40482e-08
1.57004e-07
-1.3216e-07
4.31022e-08
-1.16486e-07
-1.28137e-07
5.33315e-09
-2.39306e-07
1.67275e-07
-2.03406e-07
2.55022e-07
-1.98023e-08
1.87707e-07
2.09191e-07
-1.86969e-08
3.34486e-07
-2.48872e-07
2.57974e-07
-3.54219e-07
5.65343e-09
-2.49423e-07
-2.77132e-07
2.32654e-08
-4.11441e-07
3.08652e-07
-2.99553e-07
4.2911e-07
5.77872e-09
2.96935e-07
3.25905e-07
-2.3533e-08
4.63367e-07
-3.47234e-07
3.25729e-07
-4.77822e-07
-1.2695e-08
-3.28899e-07
-3.5223e-07
1.9036e-08
-4.88391e-07
3.63364e-07
-3.37111e-07
5.00008e-07
1.32392e-08
3.46471e-07
3.55263e-07
-8.15731e-09
4.87922e-07
-3.56572e-07
3.36506e-07
-4.96949e-07
-5.47227e-09
-3.51586e-07
-3.3569e-07
-9.75039e-09
-4.64992e-07
3.28668e-07
-3.26999e-07
4.72181e-07
-1.11396e-08
3.47225e-07
2.9643e-07
3.48803e-08
4.24325e-07
-2.82679e-07
3.11985e-07
-4.30084e-07
3.61961e-08
-3.36103e-07
-2.41666e-07
-6.61817e-08
-3.71249e-07
2.2308e-07
-2.94342e-07
3.75829e-07
-6.80388e-08
3.2069e-07
1.76659e-07
1.01634e-07
3.11224e-07
-1.5528e-07
2.76122e-07
-3.14885e-07
1.03891e-07
-3.03136e-07
-1.07329e-07
-1.38836e-07
-2.4962e-07
8.45285e-08
-2.5885e-07
2.51831e-07
-1.40673e-07
2.8428e-07
3.9109e-08
1.74245e-07
1.90504e-07
-1.66031e-08
2.42503e-07
-1.91196e-07
1.74282e-07
-2.64874e-07
2.24235e-08
-2.04834e-07
-1.37539e-07
-4.40748e-08
-2.26882e-07
1.35683e-07
-2.01308e-07
2.44092e-07
-7.33114e-08
2.26792e-07
9.241e-08
9.30935e-08
2.1027e-07
-8.77535e-08
2.17808e-07
-2.21375e-07
1.09891e-07
-2.37504e-07
-5.64574e-08
-1.27955e-07
-1.91428e-07
4.79655e-08
-2.21471e-07
1.95023e-07
-1.30823e-07
2.34233e-07
2.89562e-08
1.46625e-07
1.68084e-07
-1.66154e-08
2.1e-07
-1.63865e-07
1.35004e-07
-2.15515e-07
-9.80985e-09
-1.48471e-07
-1.39849e-07
-6.85039e-09
-1.83359e-07
1.26502e-07
-1.2226e-07
1.79519e-07
4.24802e-10
1.31299e-07
1.09406e-07
1.99177e-08
1.43254e-07
-8.50439e-08
8.91001e-08
-1.26476e-07
-1.37376e-08
-9.202e-08
-9.26632e-08
-1.48356e-08
-1.01538e-07
5.20503e-08
5.86134e-08
9.49001e-08
2.71271e-08
1.75658e-07
-8.70114e-08
1.64861e-07
-1.81147e-07
3.18091e-08
-1.53421e-07
-1.56305e-07
9.91683e-10
-2.75947e-07
1.92539e-07
-2.29345e-07
2.93542e-07
-2.06012e-08
2.19151e-07
2.32669e-07
-9.13237e-09
3.67505e-07
-2.63829e-07
2.81874e-07
-3.83977e-07
8.95827e-09
-2.78071e-07
-2.93222e-07
9.19704e-09
-4.35623e-07
3.13982e-07
-3.18314e-07
4.4905e-07
4.65681e-10
3.2088e-07
3.3357e-07
-6.34291e-09
4.77474e-07
-3.43243e-07
3.38775e-07
-4.87462e-07
-5.21795e-09
-3.47428e-07
-3.51099e-07
-6.81644e-10
-4.92373e-07
3.50465e-07
-3.44785e-07
4.99593e-07
3.28759e-09
3.59551e-07
3.45532e-07
1.36168e-08
4.82508e-07
-3.35643e-07
3.39533e-07
-4.87378e-07
6.97935e-09
-3.59561e-07
-3.18309e-07
-3.29848e-08
-4.51651e-07
3.01075e-07
-3.26416e-07
4.54857e-07
-2.59072e-08
3.50632e-07
2.72817e-07
5.87737e-08
4.04844e-07
-2.50224e-07
3.08738e-07
-4.06788e-07
5.26463e-08
-3.35605e-07
-2.1376e-07
-8.98127e-08
-3.47715e-07
1.87766e-07
-2.89357e-07
3.48448e-07
-8.53354e-08
3.16895e-07
1.46541e-07
1.2393e-07
2.85637e-07
-1.19236e-07
2.70036e-07
-2.8533e-07
1.20894e-07
-2.966e-07
-7.71884e-08
-1.58703e-07
-2.23845e-07
4.97848e-08
-2.52061e-07
2.21811e-07
-1.56131e-07
2.75376e-07
1.09997e-08
1.90552e-07
1.66082e-07
1.49429e-08
2.35115e-07
-1.62224e-07
1.86881e-07
-2.53885e-07
4.66697e-08
-2.16579e-07
-1.15666e-07
-7.08449e-08
-2.18791e-07
1.08933e-07
-2.09848e-07
2.31144e-07
-9.2261e-08
2.33088e-07
7.38455e-08
1.13804e-07
2.01181e-07
-6.41464e-08
2.21255e-07
-2.06581e-07
1.22485e-07
-2.37732e-07
-4.16763e-08
-1.41712e-07
-1.81088e-07
2.81489e-08
-2.19148e-07
1.78488e-07
-1.36404e-07
2.27974e-07
1.83242e-08
1.52729e-07
1.56514e-07
-1.26099e-09
2.01585e-07
-1.45938e-07
1.32841e-07
-2.02557e-07
-4.42796e-09
-1.46034e-07
-1.28068e-07
-1.63577e-08
-1.68903e-07
1.08489e-07
-1.10742e-07
1.60223e-07
3.11199e-09
1.18969e-07
9.93573e-08
2.02327e-08
1.20812e-07
-7.18267e-08
6.08765e-08
-1.05371e-07
-2.68123e-08
-6.93129e-08
-7.35245e-08
2.0287e-09
4.17965e-08
-4.09573e-08
1.0396e-07
8.51439e-08
2.32648e-08
1.95666e-07
-1.32256e-07
1.88431e-07
-2.25551e-07
3.44869e-08
-1.79963e-07
-1.78358e-07
-2.80807e-09
-3.08057e-07
2.10156e-07
-2.51959e-07
3.22997e-07
-2.24353e-08
2.46094e-07
2.49615e-07
3.48926e-09
3.91434e-07
-2.69296e-07
2.99511e-07
-4.02697e-07
1.30762e-08
-3.00336e-07
-3.01312e-07
-7.12504e-09
-4.49043e-07
3.09229e-07
-3.29969e-07
4.56537e-07
-5.85408e-09
3.37116e-07
3.32476e-07
1.24945e-08
4.80166e-07
-3.28979e-07
3.44539e-07
-4.83983e-07
3.45135e-09
-3.57497e-07
-3.41049e-07
-2.14452e-08
-4.85057e-07
3.27661e-07
-3.45444e-07
4.86133e-07
-7.89996e-09
3.63863e-07
3.27313e-07
3.57176e-08
4.66539e-07
-3.05749e-07
3.36069e-07
-4.6549e-07
2.04624e-08
-3.588e-07
-2.93428e-07
-5.56851e-08
-4.28985e-07
2.65946e-07
-3.19991e-07
4.26453e-07
-4.12303e-08
3.45569e-07
2.43137e-07
8.11386e-08
3.77588e-07
-2.12029e-07
3.00314e-07
-3.74004e-07
6.89355e-08
-3.27054e-07
-1.81512e-07
-1.1083e-07
-3.18092e-07
1.48731e-07
-2.79778e-07
3.13372e-07
-1.01552e-07
3.05546e-07
1.13958e-07
1.42498e-07
2.5565e-07
-8.15605e-08
2.59822e-07
-2.49925e-07
1.35794e-07
-2.8304e-07
-4.64483e-08
-1.73771e-07
-1.95225e-07
1.54303e-08
-2.4147e-07
1.87726e-07
-1.68443e-07
2.5999e-07
-1.5993e-08
2.01111e-07
1.40154e-07
4.42737e-08
2.24132e-07
-1.30821e-07
1.95386e-07
-2.36972e-07
6.83495e-08
-2.21836e-07
-9.33631e-08
-9.38695e-08
-2.0725e-07
8.11885e-08
-2.13551e-07
2.12873e-07
-1.07542e-07
2.32443e-07
5.56718e-08
1.29606e-07
1.88811e-07
-4.07663e-08
2.19423e-07
-1.87149e-07
1.30688e-07
-2.30902e-07
-2.79212e-08
-1.49765e-07
-1.67779e-07
9.63447e-09
-2.11462e-07
1.58186e-07
-1.37159e-07
2.14932e-07
9.36394e-09
1.52646e-07
1.42584e-07
1.17055e-08
1.88072e-07
-1.25483e-07
1.25585e-07
-1.83595e-07
-1.39471e-09
-1.37222e-07
-1.14629e-07
-2.21937e-08
-1.49855e-07
8.99148e-08
-9.4864e-08
1.36719e-07
6.30299e-09
1.00948e-07
8.48586e-08
1.6133e-08
9.38702e-08
-5.88256e-08
4.22358e-08
-7.82412e-08
-1.44734e-08
-4.05862e-08
6.76108e-09
-1.66553e-07
1.23132e-07
-6.75751e-08
1.28825e-07
1.06593e-07
5.91135e-09
2.38294e-07
-1.54749e-07
2.14591e-07
-2.51026e-07
3.49493e-08
-2.0235e-07
-1.97379e-07
-1.22501e-08
-3.32238e-07
2.17301e-07
-2.67969e-07
3.41851e-07
-2.44421e-08
2.67292e-07
2.58776e-07
1.84498e-08
4.04169e-07
-2.65158e-07
3.09165e-07
-4.09538e-07
1.73862e-08
-3.15058e-07
-3.00849e-07
-2.46547e-08
-4.50408e-07
2.95024e-07
-3.33137e-07
4.51622e-07
-1.22901e-08
3.45072e-07
3.22725e-07
3.18945e-08
4.70778e-07
-3.05699e-07
3.41871e-07
-4.68269e-07
1.21238e-08
-3.59087e-07
-3.2282e-07
-4.21471e-08
-4.66368e-07
2.96745e-07
-3.38133e-07
4.61212e-07
-1.8837e-08
3.59842e-07
3.0194e-07
5.7021e-08
4.4047e-07
-2.69107e-07
3.25333e-07
-4.33417e-07
3.32396e-08
-3.50099e-07
-2.6287e-07
-7.67444e-08
-3.97877e-07
2.25773e-07
-3.0708e-07
3.89474e-07
-5.51851e-08
3.33103e-07
2.09577e-07
1.00936e-07
3.43763e-07
-1.707e-07
2.86196e-07
-3.34438e-07
8.30464e-08
-3.11707e-07
-1.47326e-07
-1.28322e-07
-2.83799e-07
1.08534e-07
-2.65204e-07
2.73341e-07
-1.14679e-07
2.88018e-07
8.13847e-08
1.56612e-07
2.22787e-07
-4.46194e-08
2.45199e-07
-2.11308e-07
1.46693e-07
-2.63903e-07
-1.75095e-08
-1.8356e-07
-1.65304e-07
-1.64893e-08
-2.26932e-07
1.51997e-07
-1.75933e-07
2.39606e-07
-3.96652e-08
2.05746e-07
1.14213e-07
6.97597e-08
2.09573e-07
-9.91201e-08
1.98437e-07
-2.15642e-07
8.55588e-08
-2.20775e-07
-7.20277e-08
-1.12001e-07
-1.9247e-07
5.42496e-08
-2.11447e-07
1.9081e-07
-1.17619e-07
2.25405e-07
3.91725e-08
1.39862e-07
1.73598e-07
-1.90749e-08
2.11789e-07
-1.64651e-07
1.33363e-07
-2.17954e-07
-1.6364e-08
-1.51983e-07
-1.52182e-07
-6.43229e-09
-1.98353e-07
1.35751e-07
-1.32384e-07
1.96459e-07
3.06112e-09
1.46778e-07
1.27142e-07
2.14852e-08
1.69918e-07
-1.04189e-07
1.13297e-07
-1.60475e-07
-9.90757e-10
-1.23224e-07
-1.00349e-07
-2.43785e-08
-1.27988e-07
7.19752e-08
-7.71098e-08
1.11172e-07
9.39463e-09
8.02973e-08
7.24251e-08
1.16612e-08
7.71564e-08
-4.33587e-08
4.04283e-08
-5.27457e-08
-2.3741e-08
-2.02598e-07
6.6244e-08
-1.88984e-07
1.57152e-07
-5.08102e-08
1.44023e-07
1.45209e-07
1.65184e-08
2.67009e-07
-1.60641e-07
2.27881e-07
-2.69984e-07
3.31847e-08
-2.22923e-07
-2.08531e-07
-2.54222e-08
-3.44659e-07
2.14863e-07
-2.75845e-07
3.49063e-07
-2.69289e-08
2.809e-07
2.58906e-07
3.4355e-08
4.04407e-07
-2.51716e-07
3.10102e-07
-4.03742e-07
2.19192e-08
-3.20893e-07
-2.91278e-07
-4.20815e-08
-4.3909e-07
2.72111e-07
-3.2746e-07
4.34183e-07
-1.88013e-08
3.43788e-07
3.04206e-07
5.04247e-08
4.49213e-07
-2.74688e-07
3.30697e-07
-4.40819e-07
2.06342e-08
-3.51569e-07
-2.96734e-07
-6.12264e-08
-4.36656e-07
2.59482e-07
-3.22962e-07
4.25861e-07
-2.91806e-08
3.47142e-07
2.70134e-07
7.58747e-08
4.0501e-07
-2.27854e-07
3.07535e-07
-3.92609e-07
4.47868e-08
-3.33356e-07
-2.27671e-07
-9.448e-08
-3.59276e-07
1.82936e-07
-2.87924e-07
3.45671e-07
-6.70858e-08
3.1334e-07
1.7339e-07
1.16527e-07
3.04443e-07
-1.28715e-07
2.66601e-07
-2.90012e-07
9.41788e-08
-2.89844e-07
-1.12558e-07
-1.40771e-07
-2.45929e-07
6.96137e-08
-2.45804e-07
2.30337e-07
-1.23868e-07
2.64744e-07
5.01637e-08
1.64955e-07
1.88076e-07
-1.06881e-08
2.26283e-07
-1.71425e-07
1.5277e-07
-2.3976e-07
8.39984e-09
-1.87029e-07
-1.34978e-07
-4.39705e-08
-2.08527e-07
1.1646e-07
-1.7789e-07
2.14932e-07
-5.89945e-08
2.03749e-07
8.89897e-08
8.9754e-08
1.91514e-07
-6.87891e-08
1.95511e-07
-1.9074e-07
9.75472e-08
-2.13072e-07
-5.2212e-08
-1.24005e-07
-1.7457e-07
2.95862e-08
-2.03267e-07
1.65947e-07
-1.22049e-07
2.12061e-07
2.47371e-08
1.43781e-07
1.55756e-07
-3.28875e-10
1.98381e-07
-1.40224e-07
1.3039e-07
-1.99404e-07
-7.23933e-09
-1.4804e-07
-1.3462e-07
-1.90244e-08
-1.80176e-07
1.12472e-07
-1.22355e-07
1.73546e-07
-6.16656e-10
1.35373e-07
1.10559e-07
2.74357e-08
1.47936e-07
-8.33902e-08
9.69544e-08
-1.34771e-07
-2.73448e-09
-1.05297e-07
-8.59313e-08
-2.32908e-08
-1.04851e-07
5.56977e-08
-5.73304e-08
8.63608e-08
1.75334e-08
6.07177e-08
6.58257e-08
7.2938e-09
6.37965e-08
-3.36785e-08
-3.40068e-08
-1.24073e-07
-3.39598e-08
-2.01621e-07
8.61395e-08
-1.76961e-07
1.89647e-07
-3.15046e-08
1.73531e-07
1.59202e-07
2.89219e-08
2.77129e-07
-1.62352e-07
2.32923e-07
-2.79578e-07
3.3518e-08
-2.36105e-07
-2.09692e-07
-3.94696e-08
-3.44624e-07
2.02868e-07
-2.75496e-07
3.43183e-07
-3.00369e-08
2.85256e-07
2.49822e-07
5.01073e-08
3.92066e-07
-2.29243e-07
3.0235e-07
-3.84872e-07
2.66427e-08
-3.17007e-07
-2.72892e-07
-5.85247e-08
-4.15621e-07
2.41111e-07
-3.13387e-07
4.04362e-07
-2.53311e-08
3.32828e-07
2.7765e-07
6.71848e-08
4.16563e-07
-2.36963e-07
3.11794e-07
-4.02273e-07
2.88475e-08
-3.34804e-07
-2.63908e-07
-7.77224e-08
-3.97434e-07
2.17236e-07
-3.009e-07
3.81128e-07
-3.86823e-08
3.25859e-07
2.3331e-07
9.12741e-08
3.61936e-07
-1.83606e-07
2.83731e-07
-3.44399e-07
5.47559e-08
-3.08832e-07
-1.89416e-07
-1.07876e-07
-3.15067e-07
1.3919e-07
-2.63577e-07
2.96544e-07
-7.65196e-08
2.86656e-07
1.36199e-07
1.26933e-07
2.61481e-07
-8.78548e-08
2.4252e-07
-2.42286e-07
1.01908e-07
-2.61917e-07
-7.87412e-08
-1.47292e-07
-2.06188e-07
3.36609e-08
-2.22473e-07
1.85879e-07
-1.2875e-07
2.36228e-07
2.1625e-08
1.66792e-07
1.52985e-07
1.87293e-08
2.03863e-07
-1.31681e-07
1.53778e-07
-2.11164e-07
3.02446e-08
-1.83652e-07
-1.05433e-07
-6.57797e-08
-1.86959e-07
8.23507e-08
-1.74255e-07
1.86576e-07
-7.33055e-08
1.94863e-07
6.53626e-08
1.03358e-07
1.7061e-07
-4.08615e-08
1.86796e-07
-1.6294e-07
1.04033e-07
-1.98776e-07
-3.44982e-08
-1.29358e-07
-1.54194e-07
8.01611e-09
-1.89477e-07
1.39035e-07
-1.20943e-07
1.928e-07
1.26808e-08
1.41239e-07
1.35943e-07
1.48733e-08
1.79955e-07
-1.14718e-07
1.22272e-07
-1.76009e-07
-5.86057e-10
-1.38252e-07
-1.15749e-07
-2.78064e-08
-1.57979e-07
8.92793e-08
-1.08042e-07
1.47372e-07
-2.03446e-09
1.19331e-07
9.33915e-08
2.96797e-08
1.23457e-07
-6.39715e-08
7.80096e-08
-1.08146e-07
-5.81711e-09
-8.51395e-08
-7.12183e-08
-1.96018e-08
-7.96756e-08
4.21527e-08
-3.3668e-08
6.406e-08
2.46561e-08
4.10012e-08
5.073e-08
-1.87195e-09
-2.38292e-08
2.11711e-08
-1.14148e-07
-9.84599e-08
-3.74564e-08
-1.93238e-07
1.1453e-07
-1.7759e-07
2.11661e-07
-3.33767e-08
1.85704e-07
1.59295e-07
3.87303e-08
2.76955e-07
-1.53236e-07
2.31991e-07
-2.74631e-07
3.52886e-08
-2.40046e-07
-2.01894e-07
-5.42982e-08
-3.32516e-07
1.80956e-07
-2.66648e-07
3.23966e-07
-3.31113e-08
2.80276e-07
2.32302e-07
6.55614e-08
3.67779e-07
-1.98149e-07
2.86077e-07
-3.5356e-07
3.10247e-08
-3.03908e-07
-2.46825e-07
-7.39353e-08
-3.81218e-07
2.02791e-07
-2.91477e-07
3.63316e-07
-3.12959e-08
3.13052e-07
2.44625e-07
8.2115e-08
3.74554e-07
-1.93606e-07
2.85998e-07
-3.54175e-07
3.60953e-08
-3.09867e-07
-2.26244e-07
-9.15196e-08
-3.50769e-07
1.71332e-07
-2.72938e-07
3.28802e-07
-4.65998e-08
2.97178e-07
1.93568e-07
1.0306e-07
3.13493e-07
-1.37804e-07
2.54981e-07
-2.9067e-07
6.23796e-08
-2.77734e-07
-1.50253e-07
-1.16755e-07
-2.67516e-07
9.59739e-08
-2.351e-07
2.43932e-07
-8.27566e-08
2.54213e-07
1.00055e-07
1.32001e-07
2.17029e-07
-4.94385e-08
2.14976e-07
-1.9294e-07
1.0561e-07
-2.29009e-07
-4.77029e-08
-1.4781e-07
-1.6651e-07
1.77718e-09
-1.9618e-07
1.41413e-07
-1.28878e-07
2.0346e-07
-2.73585e-09
1.6218e-07
1.19163e-07
4.28275e-08
1.78858e-07
-9.32386e-08
1.49513e-07
-1.79021e-07
4.69361e-08
-1.73669e-07
-7.79889e-08
-8.146e-08
-1.63112e-07
5.05352e-08
-1.65117e-07
1.55386e-07
-8.19589e-08
1.79558e-07
4.43203e-08
1.10493e-07
1.47733e-07
-1.59133e-08
1.72701e-07
-1.33068e-07
1.04836e-07
-1.78618e-07
-1.95553e-08
-1.28358e-07
-1.32222e-07
-1.01455e-08
-1.70812e-07
1.10919e-07
-1.14565e-07
1.6863e-07
3.36583e-09
1.32901e-07
1.15045e-07
2.64513e-08
1.5755e-07
-8.90165e-08
1.09723e-07
-1.49078e-07
3.59124e-09
-1.2368e-07
-9.63802e-08
-3.29759e-08
-1.33082e-07
6.70561e-08
-9.0679e-08
1.19548e-07
-1.70655e-09
1.00195e-07
7.6195e-08
2.88455e-08
9.79603e-08
-4.66325e-08
5.83399e-08
-8.2287e-08
-8.46767e-09
-6.44483e-08
-5.50114e-08
-1.41802e-08
-5.3675e-08
3.07767e-08
-1.66133e-08
4.23337e-08
1.74295e-08
2.06258e-08
-5.15725e-09
1.44887e-07
-1.24457e-07
5.1897e-08
-1.30332e-07
-9.71115e-08
-2.40207e-08
-2.04794e-07
1.13576e-07
-1.82546e-07
2.06441e-07
-3.52443e-08
1.88938e-07
1.53507e-07
5.28546e-08
2.65972e-07
-1.33018e-07
2.22441e-07
-2.57548e-07
3.65292e-08
-2.36245e-07
-1.85872e-07
-6.92325e-08
-3.08179e-07
1.51533e-07
-2.48681e-07
2.94138e-07
-3.5334e-08
2.67423e-07
2.07171e-07
7.99739e-08
3.32121e-07
-1.61126e-07
2.613e-07
-3.13018e-07
3.43613e-08
-2.8348e-07
-2.14299e-07
-8.76781e-08
-3.37015e-07
1.60071e-07
-2.62075e-07
3.14642e-07
-3.58947e-08
2.86656e-07
2.06762e-07
9.46884e-08
3.24757e-07
-1.47618e-07
2.53856e-07
-3.00293e-07
4.14711e-08
-2.79124e-07
-1.85667e-07
-1.02224e-07
-2.98508e-07
1.24678e-07
-2.3973e-07
2.7262e-07
-5.19557e-08
2.63536e-07
1.52985e-07
1.11032e-07
2.6165e-07
-9.3092e-08
2.21982e-07
-2.34947e-07
6.66706e-08
-2.42484e-07
-1.12268e-07
-1.21161e-07
-2.18577e-07
5.55218e-08
-2.0319e-07
1.91008e-07
-8.48727e-08
2.18366e-07
6.69103e-08
1.32066e-07
1.7291e-07
-1.51867e-08
1.84642e-07
-1.44704e-07
1.045e-07
-1.93369e-07
-2.11462e-08
-1.42981e-07
-1.28509e-07
-2.48936e-08
-1.67577e-07
9.917e-08
-1.23684e-07
1.68571e-07
-2.1563e-08
1.52111e-07
8.79519e-08
6.10613e-08
1.51908e-07
-5.78207e-08
1.39687e-07
-1.45338e-07
5.75321e-08
-1.58401e-07
-5.36936e-08
-9.10407e-08
-1.37641e-07
2.22502e-08
-1.50516e-07
1.23247e-07
-8.44618e-08
1.59447e-07
2.66124e-08
1.11708e-07
1.23578e-07
5.26187e-09
1.53622e-07
-1.02884e-07
9.99229e-08
-1.54446e-07
-7.84074e-09
-1.21994e-07