/*--------------------------------*- C++ -*----------------------------------*\
| =========                 |                                                 |
| \\      /  F ield         | OpenFOAM: The Open Source CFD Toolbox           |
|  \\    /   O peration     | Version:  2412                                  |
|   \\  /    A nd           | Website:  www.openfoam.com                      |
|    \\/     M anipulation  |                                                 |
\*---------------------------------------------------------------------------*/
FoamFile
{
    version     2.0;
    format      ascii;
    arch        "LSB;label=32;scalar=64";
    class       volVectorField;
    location    "2.4";
    object      U;
}
// * * * * * * * * * * * * * * * * * * * * * * * * * * * * * * * * * * * * * //

dimensions      [0 1 -1 0 0 0 0];

internalField   nonuniform List<vector> 
6400
(
(-8.44744e-08 3.23409e-08 0)
(-1.93091e-07 1.74095e-07 0)
(-1.93529e-07 2.77132e-07 0)
(-1.86081e-08 2.05167e-07 0)
(2.58059e-07 -8.26063e-08 0)
(4.46741e-07 -4.56647e-07 0)
(3.72099e-07 -6.77069e-07 0)
(1.70951e-08 -5.49987e-07 0)
(-4.35084e-07 -7.50285e-08 0)
(-6.96261e-07 5.16105e-07 0)
(-5.58554e-07 8.78944e-07 0)
(-4.66934e-08 7.66105e-07 0)
(5.69837e-07 1.9926e-07 0)
(9.30143e-07 -5.22336e-07 0)
(8.06146e-07 -9.8905e-07 0)
(2.54729e-07 -9.29288e-07 0)
(-4.09173e-07 -3.76099e-07 0)
(-8.0242e-07 3.50802e-07 0)
(-7.07815e-07 8.4057e-07 0)
(-2.00163e-07 8.34701e-07 0)
(4.09928e-07 3.70311e-07 0)
(7.7354e-07 -2.62391e-07 0)
(7.09736e-07 -7.06713e-07 0)
(2.95488e-07 -7.48709e-07 0)
(-2.06196e-07 -4.20054e-07 0)
(-5.18162e-07 5.16561e-08 0)
(-5.07613e-07 3.97873e-07 0)
(-2.38327e-07 4.62671e-07 0)
(9.72766e-08 2.67915e-07 0)
(3.07711e-07 -3.28521e-08 0)
(3.0715e-07 -2.63901e-07 0)
(1.4034e-07 -3.26199e-07 0)
(-7.06822e-08 -2.3187e-07 0)
(-2.10516e-07 -7.00668e-08 0)
(-2.30704e-07 6.05135e-08 0)
(-1.57881e-07 1.06184e-07 0)
(-5.85809e-08 7.32222e-08 0)
(8.14911e-09 5.79724e-09 0)
(2.01457e-08 -4.98921e-08 0)
(-7.85e-09 -7.10103e-08 0)
(-4.49018e-08 -6.1789e-08 0)
(-6.69817e-08 -4.05096e-08 0)
(-6.81521e-08 -2.30732e-08 0)
(-5.68244e-08 -1.45009e-08 0)
(-4.41937e-08 -1.11433e-08 0)
(-3.49414e-08 -8.46511e-09 0)
(-2.61575e-08 -6.63503e-09 0)
(-1.3306e-08 -9.61775e-09 0)
(3.03824e-09 -1.93999e-08 0)
(1.58445e-08 -3.12421e-08 0)
(1.72893e-08 -3.50705e-08 0)
(7.01719e-09 -2.33194e-08 0)
(-4.14384e-09 5.27353e-10 0)
(1.37183e-10 2.03156e-08 0)
(2.89736e-08 1.66155e-08 0)
(7.3219e-08 -1.75449e-08 0)
(1.06461e-07 -6.56525e-08 0)
(1.00961e-07 -9.28386e-08 0)
(5.05452e-08 -6.80042e-08 0)
(-1.66726e-08 8.90797e-09 0)
(-4.90309e-08 9.57645e-08 0)
(-4.99482e-09 1.26711e-07 0)
(1.10697e-07 5.61041e-08 0)
(2.35559e-07 -9.97936e-08 0)
(2.79672e-07 -2.55009e-07 0)
(1.85198e-07 -2.97064e-07 0)
(-2.14532e-08 -1.60987e-07 0)
(-2.27022e-07 1.10979e-07 0)
(-2.90775e-07 3.7271e-07 0)
(-1.3706e-07 4.50052e-07 0)
(1.8048e-07 2.52411e-07 0)
(4.92397e-07 -1.52882e-07 0)
(6.07865e-07 -5.57957e-07 0)
(4.32314e-07 -7.26749e-07 0)
(2.86738e-08 -5.36938e-07 0)
(-4.22911e-07 -6.28991e-08 0)
(-7.35e-07 4.65311e-07 0)
(-7.98089e-07 7.9221e-07 0)
(-6.40237e-07 7.78264e-07 0)
(-2.83107e-07 3.11294e-07 0)
(-4.72313e-08 -1.57836e-08 0)
(-1.58822e-07 3.01349e-07 0)
(-4.32908e-07 5.37799e-07 0)
(-5.15571e-07 4.31187e-07 0)
(-2.3541e-07 -1.16681e-07 0)
(3.04071e-07 -8.73198e-07 0)
(7.66283e-07 -1.37915e-06 0)
(8.10422e-07 -1.23118e-06 0)
(3.38016e-07 -3.81487e-07 0)
(-4.06623e-07 7.67859e-07 0)
(-9.58886e-07 1.55889e-06 0)
(-9.28481e-07 1.47836e-06 0)
(-2.67209e-07 4.97187e-07 0)
(6.68769e-07 -8.68601e-07 0)
(1.32875e-06 -1.85079e-06 0)
(1.31086e-06 -1.88581e-06 0)
(6.22533e-07 -9.61359e-07 0)
(-3.24561e-07 3.82389e-07 0)
(-9.72924e-07 1.38158e-06 0)
(-9.66925e-07 1.50705e-06 0)
(-3.56772e-07 7.54253e-07 0)
(4.56428e-07 -3.91304e-07 0)
(9.88968e-07 -1.27657e-06 0)
(9.66506e-07 -1.46499e-06 0)
(4.62365e-07 -9.55187e-07 0)
(-1.89504e-07 -1.20519e-07 0)
(-6.22216e-07 5.52361e-07 0)
(-6.50966e-07 7.48785e-07 0)
(-3.46265e-07 4.64416e-07 0)
(5.21371e-08 -5.29409e-08 0)
(3.03248e-07 -4.89542e-07 0)
(2.99106e-07 -6.4695e-07 0)
(9.53583e-08 -5.1952e-07 0)
(-1.58109e-07 -2.47947e-07 0)
(-3.22763e-07 -6.08973e-09 0)
(-3.44487e-07 9.9683e-08 0)
(-2.59833e-07 6.56955e-08 0)
(-1.4976e-07 -3.97943e-08 0)
(-8.13604e-08 -1.36949e-07 0)
(-7.48067e-08 -1.80987e-07 0)
(-1.07316e-07 -1.73095e-07 0)
(-1.41127e-07 -1.40959e-07 0)
(-1.5156e-07 -1.11077e-07 0)
(-1.37939e-07 -9.30143e-08 0)
(-1.15283e-07 -8.20395e-08 0)
(-9.74595e-08 -7.19959e-08 0)
(-8.57075e-08 -6.49606e-08 0)
(-7.00656e-08 -6.9318e-08 0)
(-4.10465e-08 -8.89494e-08 0)
(-1.23334e-09 -1.14022e-07 0)
(3.3165e-08 -1.23708e-07 0)
(4.37684e-08 -1.01482e-07 0)
(2.66996e-08 -5.28609e-08 0)
(1.55022e-09 -9.5607e-09 0)
(2.18451e-09 -1.21279e-08 0)
(5.23911e-08 -7.78405e-08 0)
(1.41438e-07 -1.77169e-07 0)
(2.20951e-07 -2.40506e-07 0)
(2.31409e-07 -2.01478e-07 0)
(1.47379e-07 -5.19518e-08 0)
(8.98787e-09 1.2996e-07 0)
(-8.81151e-08 2.12574e-07 0)
(-5.09056e-08 9.44912e-08 0)
(1.3901e-07 -2.06931e-07 0)
(3.8912e-07 -5.32893e-07 0)
(5.35777e-07 -6.57551e-07 0)
(4.45631e-07 -4.34108e-07 0)
(1.2041e-07 8.21047e-08 0)
(-2.75323e-07 6.22339e-07 0)
(-4.95055e-07 8.4215e-07 0)
(-3.64384e-07 5.34154e-07 0)
(9.35044e-08 -2.1159e-07 0)
(6.4729e-07 -1.02196e-06 0)
(9.81341e-07 -1.43631e-06 0)
(8.7228e-07 -1.17943e-06 0)
(3.0811e-07 -3.33558e-07 0)
(-4.97876e-07 6.97927e-07 0)
(-1.192e-06 1.42528e-06 0)
(-1.4339e-06 1.48795e-06 0)
(-7.33706e-07 6.92442e-07 0)
(1.33381e-07 -2.30254e-07 0)
(2.00487e-07 -1.22501e-08 0)
(-2.65849e-07 3.72054e-07 0)
(-7.46339e-07 5.83206e-07 0)
(-8.34193e-07 3.35824e-07 0)
(-3.52625e-07 -3.71778e-07 0)
(4.78249e-07 -1.19038e-06 0)
(1.16363e-06 -1.60625e-06 0)
(1.2352e-06 -1.26875e-06 0)
(5.77839e-07 -2.67206e-07 0)
(-4.54823e-07 8.70838e-07 0)
(-1.22704e-06 1.46691e-06 0)
(-1.22484e-06 1.12225e-06 0)
(-3.97113e-07 -1.57692e-08 0)
(7.86428e-07 -1.31178e-06 0)
(1.62602e-06 -2.02639e-06 0)
(1.62811e-06 -1.75934e-06 0)
(8.14648e-07 -6.92675e-07 0)
(-3.08592e-07 5.39265e-07 0)
(-1.07985e-06 1.23963e-06 0)
(-1.09421e-06 1.06404e-06 0)
(-4.23521e-07 1.88355e-07 0)
(4.68878e-07 -8.37994e-07 0)
(1.04621e-06 -1.44819e-06 0)
(1.01968e-06 -1.37719e-06 0)
(4.83523e-07 -7.6972e-07 0)
(-1.98826e-07 -3.46899e-08 0)
(-6.46249e-07 4.23282e-07 0)
(-6.80504e-07 4.25589e-07 0)
(-3.86492e-07 7.09505e-08 0)
(-1.02138e-08 -3.75984e-07 0)
(2.15378e-07 -6.64997e-07 0)
(1.97121e-07 -6.90146e-07 0)
(-3.94919e-10 -5.09866e-07 0)
(-2.3167e-07 -2.71411e-07 0)
(-3.72729e-07 -1.07772e-07 0)
(-3.84092e-07 -7.12102e-08 0)
(-3.07597e-07 -1.31094e-07 0)
(-2.17723e-07 -2.17901e-07 0)
(-1.68344e-07 -2.74766e-07 0)
(-1.68074e-07 -2.84168e-07 0)
(-1.90519e-07 -2.62246e-07 0)
(-2.03324e-07 -2.34664e-07 0)
(-1.92274e-07 -2.15639e-07 0)
(-1.65983e-07 -2.03216e-07 0)
(-1.42462e-07 -1.89478e-07 0)
(-1.30753e-07 -1.73505e-07 0)
(-1.22441e-07 -1.65078e-07 0)
(-9.91556e-08 -1.75586e-07 0)
(-5.03686e-08 -2.04209e-07 0)
(1.29575e-08 -2.31928e-07 0)
(6.0966e-08 -2.31865e-07 0)
(6.56767e-08 -1.90849e-07 0)
(2.62458e-08 -1.27182e-07 0)
(-2.05875e-08 -8.66204e-08 0)
(-1.92704e-08 -1.13818e-07 0)
(6.44427e-08 -2.13472e-07 0)
(2.0683e-07 -3.32162e-07 0)
(3.26219e-07 -3.80476e-07 0)
(3.28887e-07 -2.93599e-07 0)
(1.80778e-07 -9.04989e-08 0)
(-4.76511e-08 1.11784e-07 0)
(-2.03134e-07 1.58443e-07 0)
(-1.43677e-07 -3.86552e-08 0)
(1.52773e-07 -4.13782e-07 0)
(5.39357e-07 -7.54815e-07 0)
(7.67519e-07 -8.15735e-07 0)
(6.40546e-07 -4.84556e-07 0)
(1.64522e-07 1.11796e-07 0)
(-4.18971e-07 6.43247e-07 0)
(-7.54622e-07 7.62924e-07 0)
(-5.93012e-07 3.28732e-07 0)
(3.64137e-08 -4.75906e-07 0)
(8.10575e-07 -1.22518e-06 0)
(1.27855e-06 -1.49071e-06 0)
(1.11037e-06 -1.09865e-06 0)
(3.0433e-07 -2.25509e-07 0)
(-7.24141e-07 6.92657e-07 0)
(-1.35964e-06 1.18145e-06 0)
(-7.2502e-07 8.16681e-07 0)
(3.64115e-07 -3.40185e-07 0)
(6.70631e-07 -4.54401e-07 0)
(2.405e-07 -1.31131e-07 0)
(-4.97202e-07 3.83073e-07 0)
(-1.09181e-06 6.80719e-07 0)
(-1.0864e-06 4.25176e-07 0)
(-3.56252e-07 -3.83508e-07 0)
(7.50109e-07 -1.34108e-06 0)
(1.58072e-06 -1.86617e-06 0)
(1.57697e-06 -1.56691e-06 0)
(6.6925e-07 -5.38466e-07 0)
(-6.34148e-07 6.58916e-07 0)
(-1.53373e-06 1.31494e-06 0)
(-1.45098e-06 1.02114e-06 0)
(-4.03811e-07 -7.23187e-08 0)
(9.88806e-07 -1.33215e-06 0)
(1.90213e-06 -2.03881e-06 0)
(1.81724e-06 -1.81497e-06 0)
(8.33872e-07 -8.44394e-07 0)
(-4.27586e-07 2.75349e-07 0)
(-1.23237e-06 9.07974e-07 0)
(-1.18372e-06 7.57131e-07 0)
(-4.20361e-07 -2.73792e-09 0)
(5.2455e-07 -8.78624e-07 0)
(1.08875e-06 -1.385e-06 0)
(1.00855e-06 -1.31341e-06 0)
(4.24921e-07 -8.06164e-07 0)
(-2.68611e-07 -2.1293e-07 0)
(-6.94827e-07 1.40526e-07 0)
(-7.03107e-07 1.27659e-07 0)
(-4.04076e-07 -1.54506e-07 0)
(-4.87033e-08 -4.89444e-07 0)
(1.46236e-07 -6.88751e-07 0)
(1.09802e-07 -6.86268e-07 0)
(-8.18705e-08 -5.40783e-07 0)
(-2.89008e-07 -3.67947e-07 0)
(-4.04348e-07 -2.60586e-07 0)
(-4.0365e-07 -2.4514e-07 0)
(-3.331e-07 -2.89444e-07 0)
(-2.59619e-07 -3.41365e-07 0)
(-2.24004e-07 -3.664e-07 0)
(-2.24851e-07 -3.6146e-07 0)
(-2.34324e-07 -3.43857e-07 0)
(-2.27123e-07 -3.30149e-07 0)
(-1.99807e-07 -3.22802e-07 0)
(-1.68902e-07 -3.12675e-07 0)
(-1.52653e-07 -2.92508e-07 0)
(-1.52168e-07 -2.68163e-07 0)
(-1.47568e-07 -2.57229e-07 0)
(-1.13088e-07 -2.74291e-07 0)
(-4.12386e-08 -3.14443e-07 0)
(4.34413e-08 -3.49304e-07 0)
(9.46234e-08 -3.43739e-07 0)
(7.72776e-08 -2.84142e-07 0)
(1.21892e-09 -1.98968e-07 0)
(-7.12659e-08 -1.49687e-07 0)
(-6.01402e-08 -1.92006e-07 0)
(7.28623e-08 -3.26848e-07 0)
(2.7793e-07 -4.81163e-07 0)
(4.2908e-07 -5.39708e-07 0)
(3.98546e-07 -4.23258e-07 0)
(1.57548e-07 -1.60015e-07 0)
(-1.73467e-07 1.00833e-07 0)
(-3.72272e-07 1.6767e-07 0)
(-2.55455e-07 -6.65127e-08 0)
(1.78699e-07 -5.21875e-07 0)
(7.04187e-07 -9.46262e-07 0)
(9.81182e-07 -1.04983e-06 0)
(7.69861e-07 -6.99566e-07 0)
(1.16843e-07 -3.35948e-08 0)
(-6.31641e-07 5.83813e-07 0)
(-1.01502e-06 7.7192e-07 0)
(-7.48939e-07 3.70548e-07 0)
(7.15037e-08 -4.38039e-07 0)
(9.8775e-07 -1.22303e-06 0)
(1.43121e-06 -1.54634e-06 0)
(1.08451e-06 -1.2149e-06 0)
(1.616e-07 -3.8924e-07 0)
(-6.52e-07 4.49681e-07 0)
(-4.0549e-07 7.07922e-07 0)
(4.46089e-07 -2.35864e-07 0)
(8.89967e-07 -7.68106e-07 0)
(7.80398e-07 -8.05839e-07 0)
(1.77642e-07 -3.07079e-07 0)
(-7.16419e-07 4.35153e-07 0)
(-1.36534e-06 8.75188e-07 0)
(-1.2625e-06 5.92514e-07 0)
(-3.18719e-07 -3.99014e-07 0)
(9.9251e-07 -1.59141e-06 0)
(1.88929e-06 -2.27714e-06 0)
(1.77351e-06 -1.98662e-06 0)
(6.58021e-07 -8.28076e-07 0)
(-8.07604e-07 5.55087e-07 0)
(-1.72387e-06 1.35305e-06 0)
(-1.52196e-06 1.10031e-06 0)
(-3.21581e-07 -4.86732e-08 0)
(1.14359e-06 -1.41141e-06 0)
(2.00529e-06 -2.21406e-06 0)
(1.79481e-06 -2.04664e-06 0)
(7.10509e-07 -1.08818e-06 0)
(-5.57908e-07 5.41826e-08 0)
(-1.28232e-06 7.32514e-07 0)
(-1.13647e-06 6.40499e-07 0)
(-3.35087e-07 -6.11586e-08 0)
(5.62274e-07 -8.98692e-07 0)
(1.03085e-06 -1.40462e-06 0)
(8.75047e-07 -1.37444e-06 0)
(2.84062e-07 -9.33253e-07 0)
(-3.50986e-07 -3.98441e-07 0)
(-6.97972e-07 -6.5923e-08 0)
(-6.58736e-07 -5.21844e-08 0)
(-3.6868e-07 -2.75616e-07 0)
(-6.44923e-08 -5.50864e-07 0)
(7.49507e-08 -7.18132e-07 0)
(1.26825e-08 -7.22154e-07 0)
(-1.64899e-07 -6.11481e-07 0)
(-3.32842e-07 -4.79098e-07 0)
(-4.09828e-07 -3.96675e-07 0)
(-3.9124e-07 -3.81584e-07 0)
(-3.26709e-07 -4.06833e-07 0)
(-2.72089e-07 -4.34102e-07 0)
(-2.52061e-07 -4.42562e-07 0)
(-2.54314e-07 -4.3576e-07 0)
(-2.50694e-07 -4.28528e-07 0)
(-2.24827e-07 -4.28581e-07 0)
(-1.85179e-07 -4.28795e-07 0)
(-1.55618e-07 -4.1524e-07 0)
(-1.52434e-07 -3.83535e-07 0)
(-1.66155e-07 -3.48482e-07 0)
(-1.64197e-07 -3.37118e-07 0)
(-1.14898e-07 -3.6702e-07 0)
(-1.78205e-08 -4.26169e-07 0)
(8.47777e-08 -4.71714e-07 0)
(1.28972e-07 -4.56179e-07 0)
(7.64294e-08 -3.66019e-07 0)
(-4.53709e-08 -2.46351e-07 0)
(-1.42858e-07 -1.83858e-07 0)
(-1.11864e-07 -2.5158e-07 0)
(8.25575e-08 -4.43824e-07 0)
(3.5454e-07 -6.5549e-07 0)
(5.28791e-07 -7.2984e-07 0)
(4.48241e-07 -5.64958e-07 0)
(1.01593e-07 -2.04911e-07 0)
(-3.30266e-07 1.48556e-07 0)
(-5.56741e-07 2.44182e-07 0)
(-3.66291e-07 -5.43392e-08 0)
(2.05886e-07 -6.41897e-07 0)
(8.49236e-07 -1.19775e-06 0)
(1.14674e-06 -1.35836e-06 0)
(8.42462e-07 -9.57541e-07 0)
(4.39533e-08 -1.59914e-07 0)
(-8.04285e-07 5.99908e-07 0)
(-1.17509e-06 8.7059e-07 0)
(-8.02374e-07 4.60254e-07 0)
(1.22815e-07 -4.25489e-07 0)
(1.04188e-06 -1.29114e-06 0)
(1.38709e-06 -1.63015e-06 0)
(1.00705e-06 -1.23705e-06 0)
(3.30135e-07 -3.72574e-07 0)
(8.75639e-08 3.70273e-07 0)
(2.51095e-07 6.32522e-08 0)
(5.81142e-07 -7.17613e-07 0)
(9.41699e-07 -1.27789e-06 0)
(8.90441e-07 -1.21238e-06 0)
(1.85923e-07 -4.73351e-07 0)
(-8.74967e-07 5.02044e-07 0)
(-1.6063e-06 1.04287e-06 0)
(-1.42804e-06 6.86923e-07 0)
(-2.9915e-07 -4.94886e-07 0)
(1.17801e-06 -1.87315e-06 0)
(2.11468e-06 -2.6345e-06 0)
(1.90192e-06 -2.28012e-06 0)
(6.38088e-07 -9.78313e-07 0)
(-9.19231e-07 5.30019e-07 0)
(-1.81997e-06 1.36578e-06 0)
(-1.53401e-06 1.06395e-06 0)
(-2.67132e-07 -1.66227e-07 0)
(1.18547e-06 -1.58019e-06 0)
(1.96704e-06 -2.38043e-06 0)
(1.67825e-06 -2.17893e-06 0)
(5.8597e-07 -1.19599e-06 0)
(-6.08962e-07 -6.16139e-08 0)
(-1.23238e-06 5.87701e-07 0)
(-1.03495e-06 4.78031e-07 0)
(-2.72483e-07 -2.06381e-07 0)
(5.19289e-07 -9.96989e-07 0)
(8.85325e-07 -1.45624e-06 0)
(6.95137e-07 -1.41101e-06 0)
(1.55276e-07 -9.96055e-07 0)
(-3.80757e-07 -5.10635e-07 0)
(-6.43561e-07 -2.18487e-07 0)
(-5.80626e-07 -2.11943e-07 0)
(-3.30445e-07 -4.0767e-07 0)
(-9.51802e-08 -6.39431e-07 0)
(-8.55708e-09 -7.73005e-07 0)
(-8.00608e-08 -7.69178e-07 0)
(-2.25691e-07 -6.75382e-07 0)
(-3.45028e-07 -5.70127e-07 0)
(-3.84804e-07 -5.07937e-07 0)
(-3.5569e-07 -4.96449e-07 0)
(-3.04517e-07 -5.10268e-07 0)
(-2.71954e-07 -5.20942e-07 0)
(-2.66143e-07 -5.18754e-07 0)
(-2.66175e-07 -5.13014e-07 0)
(-2.46716e-07 -5.16162e-07 0)
(-2.02596e-07 -5.27411e-07 0)
(-1.54725e-07 -5.30644e-07 0)
(-1.32909e-07 -5.08527e-07 0)
(-1.48695e-07 -4.61905e-07 0)
(-1.79113e-07 -4.16867e-07 0)
(-1.77626e-07 -4.10485e-07 0)
(-1.0835e-07 -4.60809e-07 0)
(1.78245e-08 -5.43817e-07 0)
(1.36502e-07 -5.9781e-07 0)
(1.64835e-07 -5.62718e-07 0)
(6.4843e-08 -4.3025e-07 0)
(-1.11338e-07 -2.70391e-07 0)
(-2.32961e-07 -2.00604e-07 0)
(-1.71631e-07 -3.09442e-07 0)
(9.77376e-08 -5.75118e-07 0)
(4.44026e-07 -8.49273e-07 0)
(6.37555e-07 -9.28905e-07 0)
(4.9502e-07 -6.95956e-07 0)
(3.18351e-08 -2.24644e-07 0)
(-5.02748e-07 2.18821e-07 0)
(-7.49936e-07 3.24225e-07 0)
(-4.78711e-07 -5.93281e-08 0)
(2.29324e-07 -7.82413e-07 0)
(9.78512e-07 -1.44775e-06 0)
(1.28648e-06 -1.6306e-06 0)
(8.97597e-07 -1.15965e-06 0)
(-1.40212e-08 -2.51138e-07 0)
(-9.21666e-07 5.88291e-07 0)
(-1.26395e-06 8.67173e-07 0)
(-8.15403e-07 4.14946e-07 0)
(1.57031e-07 -4.90931e-07 0)
(1.06105e-06 -1.28727e-06 0)
(1.39404e-06 -1.47445e-06 0)
(1.12999e-06 -9.63649e-07 0)
(5.22916e-07 -8.21924e-08 0)
(-1.78088e-07 3.86086e-07 0)
(-2.16427e-07 -2.81951e-07 0)
(4.93945e-07 -1.21555e-06 0)
(1.15893e-06 -1.80002e-06 0)
(1.12648e-06 -1.5903e-06 0)
(2.28891e-07 -6.31516e-07 0)
(-1.04035e-06 5.3177e-07 0)
(-1.845e-06 1.14317e-06 0)
(-1.57158e-06 7.25622e-07 0)
(-2.62879e-07 -5.89884e-07 0)
(1.34726e-06 -2.07824e-06 0)
(2.28929e-06 -2.86501e-06 0)
(1.97262e-06 -2.45896e-06 0)
(5.88445e-07 -1.09006e-06 0)
(-1.01806e-06 4.42548e-07 0)
(-1.87834e-06 1.24866e-06 0)
(-1.51931e-06 9.03825e-07 0)
(-2.23643e-07 -3.31413e-07 0)
(1.18118e-06 -1.69558e-06 0)
(1.87603e-06 -2.4251e-06 0)
(1.53465e-06 -2.18907e-06 0)
(4.71989e-07 -1.24232e-06 0)
(-6.27497e-07 -1.97615e-07 0)
(-1.15748e-06 3.66539e-07 0)
(-9.36535e-07 2.33961e-07 0)
(-2.38452e-07 -3.93929e-07 0)
(4.43988e-07 -1.08269e-06 0)
(7.27167e-07 -1.45555e-06 0)
(5.30715e-07 -1.38658e-06 0)
(5.92562e-08 -1.0162e-06 0)
(-3.80883e-07 -6.09178e-07 0)
(-5.77687e-07 -3.8036e-07 0)
(-5.09733e-07 -3.89592e-07 0)
(-3.05948e-07 -5.53235e-07 0)
(-1.31105e-07 -7.31183e-07 0)
(-8.08309e-08 -8.21737e-07 0)
(-1.47769e-07 -8.05232e-07 0)
(-2.57331e-07 -7.27782e-07 0)
(-3.33658e-07 -6.51347e-07 0)
(-3.46284e-07 -6.11326e-07 0)
(-3.1497e-07 -6.04788e-07 0)
(-2.80183e-07 -6.08172e-07 0)
(-2.67469e-07 -6.03523e-07 0)
(-2.70876e-07 -5.92492e-07 0)
(-2.63914e-07 -5.89635e-07 0)
(-2.2644e-07 -6.03873e-07 0)
(-1.65719e-07 -6.24862e-07 0)
(-1.14921e-07 -6.27484e-07 0)
(-1.07927e-07 -5.92519e-07 0)
(-1.48289e-07 -5.28644e-07 0)
(-1.96266e-07 -4.75338e-07 0)
(-1.90313e-07 -4.79594e-07 0)
(-9.30007e-08 -5.56929e-07 0)
(6.77675e-08 -6.66897e-07 0)
(2.00258e-07 -7.25981e-07 0)
(2.02012e-07 -6.62623e-07 0)
(4.09852e-08 -4.78897e-07 0)
(-1.97137e-07 -2.75762e-07 0)
(-3.38239e-07 -2.04056e-07 0)
(-2.3152e-07 -3.64705e-07 0)
(1.28704e-07 -7.12752e-07 0)
(5.54976e-07 -1.05104e-06 0)
(7.5913e-07 -1.13083e-06 0)
(5.38309e-07 -8.24545e-07 0)
(-5.21872e-08 -2.43428e-07 0)
(-6.85431e-07 2.8172e-07 0)
(-9.37232e-07 3.90637e-07 0)
(-5.71135e-07 -7.04387e-08 0)
(2.70352e-07 -9.0426e-07 0)
(1.10442e-06 -1.6491e-06 0)
(1.39796e-06 -1.84271e-06 0)
(9.17313e-07 -1.3282e-06 0)
(-8.56764e-08 -3.71226e-07 0)
(-1.01171e-06 4.80883e-07 0)
(-1.28656e-06 7.44754e-07 0)
(-7.37697e-07 3.06172e-07 0)
(2.90254e-07 -5.00934e-07 0)
(1.15298e-06 -1.11989e-06 0)
(1.38119e-06 -1.13737e-06 0)
(6.98521e-07 -4.80186e-07 0)
(-6.23596e-07 5.063e-07 0)
(-1.11402e-06 2.95522e-07 0)
(-4.09497e-07 -5.97681e-07 0)
(7.2344e-07 -1.65666e-06 0)
(1.51798e-06 -2.24679e-06 0)
(1.34948e-06 -1.9275e-06 0)
(2.20573e-07 -7.93565e-07 0)
(-1.21737e-06 5.24718e-07 0)
(-2.03699e-06 1.19674e-06 0)
(-1.644e-06 7.37827e-07 0)
(-1.86147e-07 -6.66144e-07 0)
(1.49025e-06 -2.21858e-06 0)
(2.37921e-06 -3.01458e-06 0)
(1.94724e-06 -2.58561e-06 0)
(4.84911e-07 -1.20899e-06 0)
(-1.10398e-06 2.93786e-07 0)
(-1.87545e-06 1.05558e-06 0)
(-1.44054e-06 7.01116e-07 0)
(-1.53725e-07 -4.79882e-07 0)
(1.15514e-06 -1.74673e-06 0)
(1.73576e-06 -2.39718e-06 0)
(1.34696e-06 -2.15804e-06 0)
(3.40419e-07 -1.29432e-06 0)
(-6.37612e-07 -3.71081e-07 0)
(-1.06381e-06 1.07932e-07 0)
(-8.24425e-07 -2.1495e-08 0)
(-2.00273e-07 -5.61462e-07 0)
(3.69339e-07 -1.13171e-06 0)
(5.73991e-07 -1.42301e-06 0)
(3.77244e-07 -1.34875e-06 0)
(-2.53616e-08 -1.04046e-06 0)
(-3.76117e-07 -7.18025e-07 0)
(-5.1531e-07 -5.46598e-07 0)
(-4.45609e-07 -5.6057e-07 0)
(-2.83208e-07 -6.84435e-07 0)
(-1.58305e-07 -8.08406e-07 0)
(-1.34786e-07 -8.61719e-07 0)
(-1.93714e-07 -8.39391e-07 0)
(-2.70946e-07 -7.81893e-07 0)
(-3.12134e-07 -7.33278e-07 0)
(-3.05113e-07 -7.11414e-07 0)
(-2.75538e-07 -7.05677e-07 0)
(-2.5679e-07 -6.96665e-07 0)
(-2.60477e-07 -6.77681e-07 0)
(-2.68503e-07 -6.60942e-07 0)
(-2.50749e-07 -6.64427e-07 0)
(-1.93997e-07 -6.91537e-07 0)
(-1.19096e-07 -7.21084e-07 0)
(-7.12715e-08 -7.1919e-07 0)
(-8.61716e-08 -6.6674e-07 0)
(-1.55481e-07 -5.83212e-07 0)
(-2.19334e-07 -5.23663e-07 0)
(-2.01147e-07 -5.44681e-07 0)
(-6.62948e-08 -6.55948e-07 0)
(1.33551e-07 -7.9604e-07 0)
(2.74866e-07 -8.56788e-07 0)
(2.37379e-07 -7.56487e-07 0)
(3.07591e-09 -5.12657e-07 0)
(-2.99656e-07 -2.62929e-07 0)
(-4.50093e-07 -1.93634e-07 0)
(-2.81389e-07 -4.15027e-07 0)
(1.80561e-07 -8.52933e-07 0)
(6.83058e-07 -1.25735e-06 0)
(8.8196e-07 -1.3351e-06 0)
(5.6841e-07 -9.54626e-07 0)
(-1.47594e-07 -2.68382e-07 0)
(-8.58384e-07 3.30583e-07 0)
(-1.08842e-06 4.40833e-07 0)
(-6.18796e-07 -8.58037e-08 0)
(3.32828e-07 -1.00523e-06 0)
(1.20514e-06 -1.80495e-06 0)
(1.44406e-06 -2.00434e-06 0)
(8.70021e-07 -1.47052e-06 0)
(-1.75767e-07 -5.06835e-07 0)
(-1.03933e-06 3.28694e-07 0)
(-1.17422e-06 5.85926e-07 0)
(-5.17213e-07 1.99886e-07 0)
(4.40881e-07 -4.75914e-07 0)
(1.00933e-06 -9.05442e-07 0)
(5.51385e-07 -6.67428e-07 0)
(-8.11463e-07 2.93009e-07 0)
(-1.57598e-06 6.30166e-07 0)
(-1.28207e-06 2.23202e-07 0)
(-2.42904e-07 -8.1786e-07 0)
(1.04933e-06 -2.00391e-06 0)
(1.80551e-06 -2.62736e-06 0)
(1.47641e-06 -2.22333e-06 0)
(1.6901e-07 -9.43499e-07 0)
(-1.36161e-06 4.92611e-07 0)
(-2.14409e-06 1.19771e-06 0)
(-1.63617e-06 7.01217e-07 0)
(-9.0181e-08 -7.53872e-07 0)
(1.57242e-06 -2.32183e-06 0)
(2.36057e-06 -3.09816e-06 0)
(1.82841e-06 -2.65475e-06 0)
(3.54608e-07 -1.30831e-06 0)
(-1.14257e-06 1.23403e-07 0)
(-1.78949e-06 8.22031e-07 0)
(-1.29823e-06 4.69178e-07 0)
(-7.51767e-08 -6.28813e-07 0)
(1.08672e-06 -1.77365e-06 0)
(1.5361e-06 -2.33843e-06 0)
(1.12011e-06 -2.10632e-06 0)
(2.06442e-07 -1.33964e-06 0)
(-6.22855e-07 -5.43485e-07 0)
(-9.40759e-07 -1.44211e-07 0)
(-6.96104e-07 -2.61457e-07 0)
(-1.61623e-07 -7.10524e-07 0)
(2.8888e-07 -1.1691e-06 0)
(4.19489e-07 -1.39068e-06 0)
(2.30447e-07 -1.31903e-06 0)
(-9.98119e-08 -1.07088e-06 0)
(-3.64492e-07 -8.22468e-07 0)
(-4.52234e-07 -6.96338e-07 0)
(-3.83944e-07 -7.08981e-07 0)
(-2.60274e-07 -7.96119e-07 0)
(-1.78738e-07 -8.75619e-07 0)
(-1.7598e-07 -9.01741e-07 0)
(-2.25084e-07 -8.79028e-07 0)
(-2.72928e-07 -8.40594e-07 0)
(-2.84557e-07 -8.14399e-07 0)
(-2.63166e-07 -8.04302e-07 0)
(-2.38227e-07 -7.95076e-07 0)
(-2.35391e-07 -7.72933e-07 0)
(-2.52806e-07 -7.42156e-07 0)
(-2.61441e-07 -7.24014e-07 0)
(-2.2932e-07 -7.37783e-07 0)
(-1.52227e-07 -7.79304e-07 0)
(-6.6025e-08 -8.15447e-07 0)
(-2.75053e-08 -8.04249e-07 0)
(-7.10277e-08 -7.29257e-07 0)
(-1.72067e-07 -6.24111e-07 0)
(-2.47806e-07 -5.61456e-07 0)
(-2.08063e-07 -6.06422e-07 0)
(-2.67258e-08 -7.5871e-07 0)
(2.14119e-07 -9.31168e-07 0)
(3.56735e-07 -9.88928e-07 0)
(2.6753e-07 -8.42796e-07 0)
(-4.82797e-08 -5.3156e-07 0)
(-4.12554e-07 -2.3446e-07 0)
(-5.59212e-07 -1.73324e-07 0)
(-3.15411e-07 -4.62669e-07 0)
(2.49821e-07 -9.92916e-07 0)
(8.15412e-07 -1.45969e-06 0)
(9.91315e-07 -1.53064e-06 0)
(5.79893e-07 -1.07863e-06 0)
(-2.43629e-07 -3.01066e-07 0)
(-9.9843e-07 3.53142e-07 0)
(-1.18179e-06 4.55584e-07 0)
(-6.16789e-07 -1.24252e-07 0)
(3.99436e-07 -1.09622e-06 0)
(1.25182e-06 -1.91297e-06 0)
(1.40645e-06 -2.09689e-06 0)
(7.67727e-07 -1.55007e-06 0)
(-2.40593e-07 -6.06485e-07 0)
(-9.60765e-07 1.81056e-07 0)
(-9.56426e-07 4.04961e-07 0)
(-3.53245e-07 5.67508e-08 0)
(2.56852e-07 -4.57851e-07 0)
(1.87187e-07 -5.92081e-07 0)
(-5.85551e-07 -1.83998e-07 0)
(-1.2602e-06 4.48991e-07 0)
(-1.58433e-06 7.09347e-07 0)
(-1.20934e-06 2.13954e-07 0)
(-7.24686e-08 -9.91367e-07 0)
(1.26821e-06 -2.29923e-06 0)
(1.97922e-06 -2.93472e-06 0)
(1.52731e-06 -2.4478e-06 0)
(1.03897e-07 -1.0651e-06 0)
(-1.45304e-06 4.26333e-07 0)
(-2.16363e-06 1.12303e-06 0)
(-1.5625e-06 5.95626e-07 0)
(4.40987e-09 -8.60216e-07 0)
(1.58383e-06 -2.38192e-06 0)
(2.24489e-06 -3.10253e-06 0)
(1.64466e-06 -2.65289e-06 0)
(2.25253e-07 -1.37854e-06 0)
(-1.12546e-06 -6.44956e-08 0)
(-1.63734e-06 5.46829e-07 0)
(-1.12319e-06 2.02305e-07 0)
(-1.2273e-08 -7.86465e-07 0)
(9.73657e-07 -1.78347e-06 0)
(1.29743e-06 -2.25055e-06 0)
(8.83749e-07 -2.02773e-06 0)
(9.14999e-08 -1.36596e-06 0)
(-5.80345e-07 -7.01999e-07 0)
(-8.02099e-07 -3.82962e-07 0)
(-5.71159e-07 -4.88033e-07 0)
(-1.36283e-07 -8.50081e-07 0)
(2.003e-07 -1.20461e-06 0)
(2.70914e-07 -1.36306e-06 0)
(1.00858e-07 -1.29431e-06 0)
(-1.56213e-07 -1.09905e-06 0)
(-3.43403e-07 -9.13862e-07 0)
(-3.90385e-07 -8.25066e-07 0)
(-3.28886e-07 -8.35683e-07 0)
(-2.41461e-07 -8.92529e-07 0)
(-1.95855e-07 -9.37048e-07 0)
(-2.06789e-07 -9.43447e-07 0)
(-2.43307e-07 -9.22672e-07 0)
(-2.63989e-07 -9.00508e-07 0)
(-2.51291e-07 -8.9119e-07 0)
(-2.20937e-07 -8.87542e-07 0)
(-2.04011e-07 -8.71909e-07 0)
(-2.17426e-07 -8.36937e-07 0)
(-2.45995e-07 -7.97424e-07 0)
(-2.50982e-07 -7.82232e-07 0)
(-2.00749e-07 -8.09839e-07 0)
(-1.02601e-07 -8.66532e-07 0)
(-8.77983e-09 -9.06378e-07 0)
(1.35539e-08 -8.80534e-07 0)
(-6.47809e-08 -7.78261e-07 0)
(-1.98593e-07 -6.50699e-07 0)
(-2.80318e-07 -5.89325e-07 0)
(-2.09258e-07 -6.65664e-07 0)
(2.5604e-08 -8.64794e-07 0)
(3.06125e-07 -1.06991e-06 0)
(4.4057e-07 -1.11925e-06 0)
(2.88934e-07 -9.20379e-07 0)
(-1.11223e-07 -5.38818e-07 0)
(-5.28309e-07 -1.97659e-07 0)
(-6.56854e-07 -1.50611e-07 0)
(-3.30519e-07 -5.09558e-07 0)
(3.29508e-07 -1.12537e-06 0)
(9.37311e-07 -1.64319e-06 0)
(1.07332e-06 -1.70235e-06 0)
(5.69063e-07 -1.19033e-06 0)
(-3.31038e-07 -3.49174e-07 0)
(-1.09034e-06 3.30413e-07 0)
(-1.20848e-06 4.13855e-07 0)
(-5.7044e-07 -1.9832e-07 0)
(4.55654e-07 -1.1752e-06 0)
(1.23742e-06 -1.95713e-06 0)
(1.30112e-06 -2.09589e-06 0)
(6.4455e-07 -1.54265e-06 0)
(-2.67492e-07 -6.58508e-07 0)
(-8.49987e-07 2.96066e-08 0)
(-8.35779e-07 1.94287e-07 0)
(-4.72136e-07 -6.62264e-08 0)
(-1.92323e-07 -3.36235e-07 0)
(-2.74692e-08 -6.70793e-07 0)
(-2.63394e-07 -2.10485e-07 0)
(-1.08148e-06 4.99482e-07 0)
(-1.59969e-06 7.62518e-07 0)
(-1.22668e-06 1.55129e-07 0)
(1.1601e-08 -1.16668e-06 0)
(1.40894e-06 -2.52239e-06 0)
(2.07136e-06 -3.12937e-06 0)
(1.51331e-06 -2.58011e-06 0)
(2.73548e-08 -1.16125e-06 0)
(-1.49221e-06 3.13438e-07 0)
(-2.10136e-06 9.66085e-07 0)
(-1.43338e-06 4.26093e-07 0)
(9.07899e-08 -9.73684e-07 0)
(1.5304e-06 -2.39127e-06 0)
(2.05142e-06 -3.03095e-06 0)
(1.41759e-06 -2.5923e-06 0)
(1.05611e-07 -1.43209e-06 0)
(-1.06447e-06 -2.73308e-07 0)
(-1.44486e-06 2.3855e-07 0)
(-9.38659e-07 -8.387e-08 0)
(2.96156e-08 -9.39068e-07 0)
(8.31775e-07 -1.77103e-06 0)
(1.04633e-06 -2.13777e-06 0)
(6.5875e-07 -1.93133e-06 0)
(-5.77306e-10 -1.38112e-06 0)
(-5.22912e-07 -8.49525e-07 0)
(-6.67096e-07 -6.06255e-07 0)
(-4.63103e-07 -6.96549e-07 0)
(-1.25561e-07 -9.75386e-07 0)
(1.12535e-07 -1.23474e-06 0)
(1.40189e-07 -1.33805e-06 0)
(-3.59661e-09 -1.27373e-06 0)
(-1.93369e-07 -1.1254e-06 0)
(-3.16594e-07 -9.93991e-07 0)
(-3.34647e-07 -9.35472e-07 0)
(-2.83534e-07 -9.43221e-07 0)
(-2.27386e-07 -9.74882e-07 0)
(-2.08805e-07 -9.91975e-07 0)
(-2.26281e-07 -9.84538e-07 0)
(-2.48143e-07 -9.67504e-07 0)
(-2.44632e-07 -9.59389e-07 0)
(-2.13302e-07 -9.62533e-07 0)
(-1.79594e-07 -9.61064e-07 0)
(-1.74062e-07 -9.36723e-07 0)
(-2.03819e-07 -8.89449e-07 0)
(-2.40503e-07 -8.44242e-07 0)
(-2.37215e-07 -8.36114e-07 0)
(-1.65324e-07 -8.80549e-07 0)
(-4.63525e-08 -9.52331e-07 0)
(5.02223e-08 -9.92275e-07 0)
(4.90735e-08 -9.46456e-07 0)
(-6.91714e-08 -8.13169e-07 0)
(-2.34614e-07 -6.63868e-07 0)
(-3.1478e-07 -6.08908e-07 0)
(-2.0333e-07 -7.23058e-07 0)
(8.87602e-08 -9.72349e-07 0)
(4.0363e-07 -1.20815e-06 0)
(5.19097e-07 -1.24396e-06 0)
(2.9782e-07 -9.89308e-07 0)
(-1.82421e-07 -5.40321e-07 0)
(-6.37483e-07 -1.62361e-07 0)
(-7.33538e-07 -1.33841e-07 0)
(-3.24717e-07 -5.56652e-07 0)
(4.10651e-07 -1.24172e-06 0)
(1.03274e-06 -1.79355e-06 0)
(1.11418e-06 -1.8382e-06 0)
(5.32262e-07 -1.2869e-06 0)
(-4.03087e-07 -4.20299e-07 0)
(-1.12492e-06 2.50053e-07 0)
(-1.16608e-06 3.07027e-07 0)
(-4.85303e-07 -3.07628e-07 0)
(4.97852e-07 -1.23449e-06 0)
(1.17186e-06 -1.93009e-06 0)
(1.14636e-06 -2.0033e-06 0)
(4.94246e-07 -1.46319e-06 0)
(-3.26147e-07 -6.76788e-07 0)
(-8.25361e-07 -9.80946e-08 0)
(-8.4267e-07 6.71143e-08 0)
(-4.08599e-07 -6.16468e-08 0)
(5.72675e-07 -8.79646e-07 0)
(8.97026e-07 -9.87468e-07 0)
(-1.48458e-08 -3.39406e-07 0)
(-1.17156e-06 4.40752e-07 0)
(-1.74979e-06 6.8372e-07 0)
(-1.25194e-06 3.64053e-08 0)
(1.03019e-07 -1.30361e-06 0)
(1.50385e-06 -2.6371e-06 0)
(2.07346e-06 -3.19936e-06 0)
(1.42326e-06 -2.62585e-06 0)
(-6.13411e-08 -1.24083e-06 0)
(-1.4772e-06 1.52998e-07 0)
(-1.96201e-06 7.36825e-07 0)
(-1.25922e-06 2.0701e-07 0)
(1.62453e-07 -1.08658e-06 0)
(1.41785e-06 -2.35658e-06 0)
(1.7966e-06 -2.90243e-06 0)
(1.16339e-06 -2.4932e-06 0)
(-3.12867e-10 -1.47737e-06 0)
(-9.71105e-07 -4.93516e-07 0)
(-1.23111e-06 -8.0362e-08 0)
(-7.57905e-07 -3.6656e-07 0)
(5.18685e-08 -1.07547e-06 0)
(6.75412e-07 -1.74099e-06 0)
(7.99918e-07 -2.01546e-06 0)
(4.54172e-07 -1.83315e-06 0)
(-7.28778e-08 -1.39345e-06 0)
(-4.61359e-07 -9.84279e-07 0)
(-5.45609e-07 -8.05615e-07 0)
(-3.74449e-07 -8.77665e-07 0)
(-1.24237e-07 -1.08067e-06 0)
(3.38948e-08 -1.25849e-06 0)
(3.31854e-08 -1.31803e-06 0)
(-8.20987e-08 -1.26085e-06 0)
(-2.14254e-07 -1.15309e-06 0)
(-2.87535e-07 -1.06505e-06 0)
(-2.86351e-07 -1.02882e-06 0)
(-2.46642e-07 -1.03204e-06 0)
(-2.15612e-07 -1.04283e-06 0)
(-2.15731e-07 -1.0394e-06 0)
(-2.34091e-07 -1.02371e-06 0)
(-2.40546e-07 -1.01237e-06 0)
(-2.16415e-07 -1.01656e-06 0)
(-1.72156e-07 -1.02828e-06 0)
(-1.40434e-07 -1.02513e-06 0)
(-1.49265e-07 -9.90094e-07 0)
(-1.94895e-07 -9.31296e-07 0)
(-2.36091e-07 -8.83538e-07 0)
(-2.19792e-07 -8.86305e-07 0)
(-1.23474e-07 -9.49782e-07 0)
(1.4568e-08 -1.03561e-06 0)
(1.07734e-07 -1.07163e-06 0)
(7.59672e-08 -1.00127e-06 0)
(-8.52463e-08 -8.35047e-07 0)
(-2.78422e-07 -6.66401e-07 0)
(-3.4829e-07 -6.23024e-07 0)
(-1.8949e-07 -7.78994e-07 0)
(1.58688e-07 -1.0779e-06 0)
(4.98175e-07 -1.33976e-06 0)
(5.83736e-07 -1.35802e-06 0)
(2.91224e-07 -1.04989e-06 0)
(-2.56294e-07 -5.43319e-07 0)
(-7.28845e-07 -1.3994e-07 0)
(-7.80068e-07 -1.32442e-07 0)
(-2.98227e-07 -6.0589e-07 0)
(4.8218e-07 -1.33527e-06 0)
(1.08602e-06 -1.89964e-06 0)
(1.10309e-06 -1.92919e-06 0)
(4.69026e-07 -1.36557e-06 0)
(-4.53112e-07 -5.16424e-07 0)
(-1.0972e-06 1.10847e-07 0)
(-1.05719e-06 1.39015e-07 0)
(-3.6819e-07 -4.44843e-07 0)
(5.23213e-07 -1.2716e-06 0)
(1.05554e-06 -1.84292e-06 0)
(9.29427e-07 -1.84168e-06 0)
(2.83061e-07 -1.32106e-06 0)
(-4.21682e-07 -6.16676e-07 0)
(-7.55749e-07 -9.02066e-08 0)
(-3.9614e-07 9.01328e-08 0)
(8.83554e-07 -6.72735e-07 0)
(1.58737e-06 -1.42362e-06 0)
(1.02205e-06 -1.323e-06 0)
(-1.7312e-07 -5.91409e-07 0)
(-1.36722e-06 2.47189e-07 0)
(-1.80896e-06 5.30088e-07 0)
(-1.1743e-06 -8.52117e-08 0)
(2.11373e-07 -1.38097e-06 0)
(1.525e-06 -2.65013e-06 0)
(1.96791e-06 -3.1616e-06 0)
(1.26066e-06 -2.60032e-06 0)
(-1.50959e-07 -1.30999e-06 0)
(-1.40567e-06 -4.87498e-08 0)
(-1.75755e-06 4.50428e-07 0)
(-1.05779e-06 -4.7178e-08 0)
(2.10031e-07 -1.19544e-06 0)
(1.25335e-06 -2.28895e-06 0)
(1.49987e-06 -2.73636e-06 0)
(9.00644e-07 -2.37088e-06 0)
(-8.67989e-08 -1.51547e-06 0)
(-8.54812e-07 -7.11021e-07 0)
(-1.01251e-06 -3.8904e-07 0)
(-5.92471e-07 -6.30052e-07 0)
(5.46911e-08 -1.1928e-06 0)
(5.14527e-07 -1.70257e-06 0)
(5.69955e-07 -1.89746e-06 0)
(2.76229e-07 -1.74316e-06 0)
(-1.26546e-07 -1.4047e-06 0)
(-4.00487e-07 -1.10121e-06 0)
(-4.4079e-07 -9.7408e-07 0)
(-3.04005e-07 -1.02698e-06 0)
(-1.28062e-07 -1.16564e-06 0)
(-3.17202e-08 -1.27834e-06 0)
(-4.90364e-08 -1.30584e-06 0)
(-1.36319e-07 -1.25731e-06 0)
(-2.21141e-07 -1.18252e-06 0)
(-2.56929e-07 -1.12704e-06 0)