/*--------------------------------*- C++ -*----------------------------------*\
| =========                 |                                                 |
| \\      /  F ield         | OpenFOAM: The Open Source CFD Toolbox           |
|  \\    /   O peration     | Version:  2412                                  |
|   \\  /    A nd           | Website:  www.openfoam.com                      |
|    \\/     M anipulation  |                                                 |
\*---------------------------------------------------------------------------*/
FoamFile
{
    version     2.0;
    format      ascii;
    arch        "LSB;label=32;scalar=64";
    class       volScalarField;
    location    "5.28";
    object      p_rgh;
}
// * * * * * * * * * * * * * * * * * * * * * * * * * * * * * * * * * * * * * //

dimensions      [1 -1 -2 0 0 0 0];

internalField   nonuniform List<scalar> 
80000
(
30082.3
30082.4
30082.6
30082.9
30083.3
30083.9
30084.6
30085.3
30086.2
30087.2
30088.3
30089.5
30090.8
30092.2
30093.7
30095.3
30097.1
30098.9
30100.8
30102.9
30105.1
30107.3
30109.7
30112.2
30114.8
30117.5
30120.4
30123.3
30126.4
30129.5
30132.8
30136.2
30139.7
30143.3
30147.1
30150.9
30154.9
30159
30163.2
30167.5
30171.9
30176.4
30181.1
30185.9
30190.8
30195.8
30200.9
30206.1
30211.5
30216.9
30222.5
30228.2
30234
30239.9
30246
30252.1
30258.4
30264.8
30271.3
30277.9
30284.7
30291.5
30298.5
30305.6
30312.8
30320.1
30327.5
30335.1
30342.7
30350.5
30358.4
30366.4
30374.5
30382.7
30391.1
30399.5
30408.1
30416.8
30425.6
30434.5
30443.5
30452.6
30461.9
30471.2
30480.7
30490.2
30499.9
30509.7
30519.6
30529.5
30539.6
30549.8
30560.1
30570.5
30581
30591.6
30602.3
30613.1
30624
30635
30646.1
30657.3
30668.5
30679.9
30691.4
30702.9
30714.5
30726.2
30738
30749.9
30761.8
30773.9
30786
30798.2
30810.4
30822.7
30835.1
30847.6
30860.1
30872.7
30885.3
30898.1
30910.8
30923.6
30936.5
30949.4
30962.3
30975.3
30988.4
31001.4
31014.5
31027.7
31040.8
31054
31067.2
31080.5
31093.7
31106.9
31120.2
31133.5
31146.7
31160
31173.2
31186.5
31199.7
31212.9
31226.1
31239.2
31252.4
31265.5
31278.5
31291.5
31304.5
31317.4
31330.2
31343
31355.7
31368.3
31380.9
31393.4
31405.8
31418.1
31430.3
31442.4
31454.4
31466.2
31478
31489.6
31501.1
31512.5
31523.7
31534.8
31545.7
31556.4
31567
31577.4
31587.7
31597.7
31607.6
31617.2
31626.7
31636
31645
31653.8
31662.4
31670.7
31678.9
31686.7
31694.3
31701.7
31708.7
31715.5
31722
31728.3
31734.2
31739.8
31745.1
31750.1
31754.8
31759.2
31763.2
31766.8
31770.1
31773.1
31775.7
31777.9
31779.7
31781.2
31782.3
31782.9
31783.2
31783
31782.4
31781.4
31780
31778.1
31775.8
31773
31769.7
31766
31761.8
31757.1
31752
31746.3
31740.2
31733.5
31726.3
31718.7
31710.4
31701.7
31692.4
31682.6
31672.2
31661.3
31649.8
31637.7
31625.1
31611.9
31598.1
31583.7
31568.8
31553.2
31537.1
31520.3
31503
31485
31466.4
31447.2
31427.4
31406.9
31385.8
31364.1
31341.8
31318.8
31295.2
31270.9
31246
31220.4
31194.3
31167.4
31139.9
31111.8
31083
31053.6
31023.5
30992.8
30961.4
30929.4
30896.8
30863.5
30829.6
30795
30759.9
30724
30687.6
30650.6
30612.9
30574.6
30535.8
30496.3
30456.3
30415.6
30374.4
30332.6
30290.3
30247.5
30204.1
30160.1
30115.7
30070.7
30025.3
29979.4
29933.1
29886.3
29839
29791.4
29743.3
29694.8
29646
29597
29547.5
29497.8
29447.8
29397.6
29347.1
29296.5
29245.7
29194.8
29143.7
29092.5
29041.3
28990
28938.8
28887.6
28836.4
28785.4
28734.6
28683.9
28633.5
28583.3
28533.4
28483.9
28434.8
28386.1
28337.9
28290.2
28243
28196.4
28150.5
28105.3
28060.8
28017
27974
27931.9
27890.7
27850.4
27811
27772.6
27735.2
27698.9
27663.6
27629.5
27596.5
27564.6
27534
27504.5
27476.2
27449.2
27423.5
27399
27375.8
27353.9
27333.4
27314.1
27296.2
27279.7
27264.6
27250.8
27238.4
27227.4
27217.9
27209.8
27203.1
27197.9
27194.1
27191.8
27191.1
27191.8
27194
27197.8
27203.2
27210.1
27218.6
27228.7
27240.4
27253.8
27268.7
27285.3
27303.6
27323.5
27345.1
27368.4
27393.4
27420
27448.4
27478.4
27510.2
27543.6
27578.6
27615.3
27653.7
27693.7
27735.3
27778.4
27823.1
27869.3
27916.9
27965.9
28016.3
28068
28121
28175.1
28230.3
28286.5
28343.7
28401.7
28460.4
28519.9
28579.9
28640.4
28701.2
28762.3
28823.5
28884.7
28945.8
29006.6
29067.2
29127.2
29186.7
29245.5
29303.4
29360.4
29416.3
29471
29524.5
29576.6
29627.2
29676.2
29723.5
29769.2
29812.9
29854.7
29894.4
29932.2
29967.8
30001.3
30032.6
30061.7
30088.5
30113
30135.2
30155.1
30172.7
30188
30200.9
30211.6
30219.9
30226
30229.9
30231.5
30230.9
30228.3
30223.5
30216.7
30207.9
30197.1
30184.4
30169.9
30153.6
30135.6
30115.9
30094.6
30071.9
30047.7
30022.1
29995.2
29967.1
29937.8
29907.4
29876.1
29843.8
29810.7
29776.9
29742.4
29707.3
29671.7
29635.6
29599.3
29562.8
29526.1
29489.3
29452.6
29415.8
29379.3
29343.1
29307.2
29271.7
29236.8
29202.5
29168.8
29135.9
29103.8
29072.7
29042.4
29013.3
28985.2
28958.4
28932.7
28908.4
28885.4
28863.9
28843.7
28825
28807.9
28792.2
28778.2
28765.7
28754.9
28745.7
28738.3
28732.5
28728.4
28725.9
28725.1
28725.8
28728.1
28732
28737.5
28744.4
28752.7
28762.5
28773.6
28786.1
28799.7
28814.6
28830.5
28847.5
28865.5
28884.4
28904
28924.4
28945.5
28967.1
28989.3
29011.8
29034.6
29057.7
29080.9
29104.2
29127.5
29150.7
29173.7
29196.5
29219
29241.2
29262.9
29284.1
29304.9
29325
29344.5
29363.4
29381.6
29399.1
29415.8
29431.8
29447.1
29461.5
29475.2
29488.1
29500.3
29511.7
29522.4
29532.4
29541.6
29550.2
29558.1
29565.4
29572
29578.1
29583.6
29588.5
29593
29597
29600.5
29603.6
29606.3
29608.6
29610.5
29612.1
29613.4
29614.3
29615
29615.4
29615.5
29615.3
29614.8
29614.1
29613.1
29611.8
29610.2
29608.3
29606.1
29603.6
29600.7
29597.4
29593.8
29589.8
29585.3
29580.4
29575
29569.1
29562.7
29555.7
29548.1
29539.9
29531.1
29521.6
29511.4
29500.5
29488.8
29476.4
29463.2
29449.2
29434.5
29418.9
29402.5
29385.3
29367.3
29348.5
29329
29308.8
29287.8
29266.3
29244.1
29221.3
29198.1
29174.4
29150.4
29126.1
29101.6
29076.9
29052.3
29027.8
29003.4
28979.3
28955.7
28932.5
28910
28888.1
28867.2
28847.1
28828.1
28810.3
28793.7
28778.4
28764.6
28752.3
28741.6
28732.6
28725.4
28720
28716.5
28714.9
28715.3
28717.6
28722.1
28728.6
28737.1
28747.9
28760.7
28775.5
28792.4
28811.3
28832.2
28855
28879.7
28906.3
28934.5
28964.5
28996.1
29029.2
29063.8
29099.7
29136.9
29175.2
29214.5
29254.7
29295.7
29337.4
29379.6
29422.1
29465
29508
29551
29593.9
29636.5
29678.8
29720.6
29761.7
29801.9
29841.2
29879.5
29916.5
29952.1
29986.2
30018.8
30049.6
30078.5
30105.4
30130.3
30152.9
30173.2
30191
30206.2
30218.8
30228.5
30235.4
30239.4
30240.3
30238.2
30232.8
30224.3
30212.4
30197.3
30178.7
30156.8
30131.5
30102.8
30070.6
30035.2
29996.4
29954.4
29909.1
29860.9
29809.6
29755.3
29697.8
29638.1
29576
29511.4
29444.7
29376.1
29305.7
29233.8
29160.6
29086.2
29011
28935.1
28858.8
28782.3
28705.8
28629.7
28553.9
28478.9
28404.9
28331.9
28260.2
28190.1
28121.6
28055
27990.3
27927.8
27867.6
27809.8
27754.4
27701.7
27651.6
27604.3
27559.7
27518
27479.2
27443.3
27410.4
27380.4
27353.3
27329.2
27308
27289.8
27274.4
27261.9
27252.2
27245.4
27241.3
27239.9
27241.3
27245.2
27251.7
27260.8
27272.4
27286.4
27302.7
27321.5
27342.5
27365.7
27391.2
27418.8
27448.4
27480.1
27513.8
27549.4
27587
27626.3
27667.4
27710.3
27754.8
27801
27848.8
27898
27948.8
28001
28054.5
28109.4
28165.5
28222.8
28281.2
28340.8
28401.3
28462.9
28525.3
28588.6
28652.7
28717.5
28783
28849
28915.6
28982.6
29050
29117.8
29185.8
29253.9
29322
29390.2
29458.5
29526.6
29594.5
29662.1
29729.4
29796.4
29862.9
29928.9
29994.2
30058.9
30122.9
30186.2
30248.6
30310.2
30370.9
30430.7
30489.5
30547.3
30604
30659.6
30714.1
30767.4
30819.6
30870.5
30920.2
30968.7
31015.8
31061.7
31106.2
31149.4
31191.3
31231.7
31270.8
31308.4
31344.7
31379.5
31412.9
31444.9
31475.5
31504.6
31532.3
31558.5
31583.3
31606.7
31628.7
31649.3
31668.5
31686.3
31702.7
31717.8
31731.5
31743.9
31755.1
31764.9
31773.4
31780.7
31786.8
31791.7
31795.4
31797.9
31799.3
31799.6
31798.8
31796.9
31794
31790
31785.1
31779.2
31772.4
31764.7
31756.1
31746.6
31736.3
31725.2
31713.3
31700.7
31687.3
31673.3
31658.6
31643.2
31627.2
31610.7
31593.6
31575.9
31557.8
31539.1
31520
31500.5
31480.6
31460.3
31439.6
31418.6
31397.3
31375.7
31353.9
31331.8
31309.6
31287.1
31264.5
31241.7
31218.8
31195.8
31172.7
31149.6
31126.4
31103.2
31079.9
31056.7
31033.6
31010.4
30987.4
30964.4
30941.5
30918.8
30896.1
30873.6
30851.3
30829.1
30807.1
30785.3
30763.7
30742.4
30721.2
30700.3
30679.7
30659.3
30639.1
30619.3
30599.7
30580.4
30561.5
30542.8
30524.5
30506.5
30488.8
30471.5
30454.5
30437.8
30421.5
30405.6
30390
30374.8
30359.9
30345.4
30331.4
30317.7
30304.3
30291.4
30278.9
30266.7
30255
30243.6
30232.7
30222.1
30212
30202.3
30193
30184.1
30175.6
30167.5
30159.8
30152.6
30145.7
30139.3
30133.3
30127.8
30122.6
30117.9
30113.6
30109.7
30106.3
30103.3
30100.7
30098.5
30096.8
30095.5
30094.6
30094.2
30082
30082.1
30082.3
30082.6
30083.1
30083.6
30084.2
30085
30085.8
30086.8
30087.8
30089
30090.3
30091.7
30093.2
30094.8
30096.6
30098.4
30100.4
30102.4
30104.6
30106.9
30109.3
30111.8
30114.4
30117.2
30120
30123
30126
30129.2
30132.5
30135.9
30139.4
30143.1
30146.8
30150.7
30154.6
30158.7
30162.9
30167.2
30171.7
30176.2
30180.9
30185.6
30190.5
30195.5
30200.6
30205.9
30211.2
30216.7
30222.3
30228
30233.8
30239.7
30245.7
30251.9
30258.2
30264.6
30271.1
30277.7
30284.4
30291.3
30298.3
30305.3
30312.5
30319.9
30327.3
30334.8
30342.5
30350.3
30358.2
30366.2
30374.3
30382.5
30390.9
30399.3
30407.9
30416.6
30425.4
30434.3
30443.3
30452.4
30461.7
30471
30480.5
30490
30499.7
30509.5
30519.4
30529.3
30539.4
30549.6
30559.9
30570.3
30580.8
30591.4
30602.1
30612.9
30623.8
30634.8
30645.9
30657.1
30668.4
30679.7
30691.2
30702.7
30714.4
30726.1
30737.9
30749.7
30761.7
30773.7
30785.8
30798
30810.3
30822.6
30835
30847.5
30860
30872.6
30885.2
30897.9
30910.7
30923.5
30936.4
30949.3
30962.3
30975.3
30988.3
31001.4
31014.5
31027.6
31040.8
31054
31067.2
31080.4
31093.7
31106.9
31120.2
31133.5
31146.7
31160
31173.2
31186.5
31199.7
31212.9
31226.1
31239.3
31252.4
31265.5
31278.6
31291.6
31304.6
31317.5
31330.3
31343.1
31355.8
31368.5
31381
31393.5
31405.9
31418.2
31430.4
31442.5
31454.5
31466.4
31478.2
31489.8
31501.3
31512.7
31523.9
31535
31545.9
31556.7
31567.3
31577.7
31588
31598
31607.9
31617.6
31627
31636.3
31645.4
31654.2
31662.8
31671.1
31679.2
31687.1
31694.7
31702.1
31709.2
31716
31722.5
31728.7
31734.7
31740.3
31745.6
31750.7
31755.3
31759.7
31763.7
31767.4
31770.7
31773.7
31776.3
31778.5
31780.4
31781.8
31782.9
31783.6
31783.8
31783.7
31783.1
31782.1
31780.7
31778.8
31776.5
31773.7
31770.4
31766.7
31762.6
31757.9
31752.7
31747.1
31740.9
31734.3
31727.1
31719.4
31711.2
31702.5
31693.2
31683.4
31673
31662.1
31650.6
31638.6
31625.9
31612.7
31599
31584.6
31569.6
31554.1
31537.9
31521.2
31503.8
31485.9
31467.3
31448.1
31428.2
31407.8
31386.7
31365
31342.6
31319.6
31296
31271.7
31246.8
31221.3
31195.1
31168.2
31140.7
31112.6
31083.8
31054.4
31024.3
30993.6
30962.2
30930.2
30897.5
30864.2
30830.3
30795.7
30760.6
30724.7
30688.3
30651.2
30613.5
30575.3
30536.4
30496.9
30456.8
30416.2
30374.9
30333.2
30290.8
30247.9
30204.5
30160.5
30116.1
30071.1
30025.7
29979.7
29933.3
29886.5
29839.3
29791.6
29743.5
29695
29646.2
29597.1
29547.6
29497.9
29447.8
29397.5
29347.1
29296.4
29245.5
29194.5
29143.4
29092.2
29040.9
28989.6
28938.3
28887.1
28835.9
28784.8
28733.9
28683.2
28632.7
28582.5
28532.6
28483
28433.9
28385.1
28336.8
28289.1
28241.9
28195.3
28149.3
28104
28059.5
28015.7
27972.7
27930.5
27889.2
27848.9
27809.5
27771
27733.6
27697.3
27662
27627.9
27594.8
27563
27532.3
27502.8
27474.5
27447.5
27421.7
27397.2
27374
27352.1
27331.6
27312.3
27294.4
27277.9
27262.7
27249
27236.6
27225.6
27216
27207.9
27201.2
27196
27192.2
27189.9
27189.2
27189.9
27192.1
27196
27201.3
27208.2
27216.7
27226.7
27238.4
27251.7
27266.7
27283.3
27301.5
27321.5
27343
27366.3
27391.3
27417.9
27446.3
27476.3
27508.1
27541.5
27576.5
27613.3
27651.7
27691.7
27733.3
27776.4
27821.2
27867.4
27915.1
27964.2
28014.6
28066.4
28119.4
28173.5
28228.8
28285.1
28342.4
28400.5
28459.4
28518.9
28579
28639.6
28700.6
28761.8
28823.1
28884.4
28945.7
29006.7
29067.4
29127.6
29187.2
29246.1
29304.1
29361.3
29417.3
29472.2
29525.8
29578
29628.7
29677.9
29725.3
29771
29814.9
29856.7
29896.6
29934.4
29970.2
30003.7
30035.1
30064.2
30091
30115.6
30137.8
30157.7
30175.3
30190.6
30203.5
30214.1
30222.5
30228.5
30232.3
30233.9
30233.3
30230.6
30225.8
30218.9
30210
30199.2
30186.4
30171.8
30155.4
30137.3
30117.6
30096.2
30073.4
30049.1
30023.4
29996.4
29968.2
29938.8
29908.3
29876.9
29844.5
29811.3
29777.4
29742.8
29707.6
29671.9
29635.8
29599.4
29562.8
29526
29489.1
29452.2
29415.4
29378.8
29342.5
29306.5
29271
29236
29201.6
29167.9
29134.9
29102.8
29071.5
29041.2
29012
28983.9
28957
28931.3
28907
28883.9
28862.3
28842.1
28823.4
28806.2
28790.6
28776.5
28764
28753.2
28744
28736.6
28730.8
28726.7
28724.2
28723.4
28724.2
28726.5
28730.5
28735.9
28742.9
28751.3
28761.1
28772.3
28784.8
28798.5
28813.4
28829.4
28846.5
28864.5
28883.5
28903.2
28923.7
28944.9
28966.6
28988.8
29011.4
29034.3
29057.5
29080.8
29104.2
29127.5
29150.8
29173.9
29196.8
29219.4
29241.6
29263.3
29284.6
29305.4
29325.6
29345.1
29364.1
29382.3
29399.8
29416.6
29432.6
29447.8
29462.3
29476
29488.9
29501
29512.4
29523.1
29533
29542.3
29550.8
29558.7
29565.9
29572.6
29578.6
29584.1
29589
29593.5
29597.4
29600.9
29604
29606.6
29608.9
29610.8
29612.4
29613.7
29614.6
29615.3
29615.6
29615.7
29615.5
29615.1
29614.3
29613.3
29612
29610.4
29608.6
29606.4
29603.9
29601
29597.8
29594.2
29590.2
29585.7
29580.9
29575.5
29569.6
29563.2
29556.2
29548.7
29540.5
29531.7
29522.2
29512
29501.1
29489.5
29477.1
29463.9
29449.9
29435.1
29419.6
29403.2
29386
29367.9
29349.2
29329.6
29309.4
29288.4
29266.7
29244.5
29221.7
29198.4
29174.7
29150.5
29126.2
29101.6
29076.9
29052.1
29027.5
29003.1
28978.9
28955.2
28931.9
28909.3
28887.3
28866.3
28846.1
28827.1
28809.1
28792.5
28777.1
28763.2
28750.9
28740.2
28731.1
28723.8
28718.4
28714.8
28713.2
28713.6
28715.9
28720.4
28726.8
28735.4
28746.1
28758.9
28773.8
28790.7
28809.7
28830.6
28853.5
28878.2
28904.8
28933.1
28963.1
28994.8
29028
29062.6
29098.6
29135.9
29174.2
29213.6
29253.9
29295
29336.8
29379.1
29421.8
29464.7
29507.8
29550.9
29593.9
29636.7
29679.1
29721
29762.2
29802.5
29842
29880.3
29917.4
29953.2
29987.4
30020.1
30051
30080
30107.1
30132
30154.7
30175.1
30193
30208.3
30220.9
30230.8
30237.8
30241.8
30242.8
30240.7
30235.4
30226.8
30215
30199.8
30181.3
30159.4
30134
30105.2
30073.1
30037.6
29998.7
29956.6
29911.3
29862.9
29811.5
29757.1
29699.5
29639.6
29577.3
29512.6
29445.8
29377
29306.5
29234.4
29161
29086.5
29011
28935
28858.5
28781.8
28705.2
28628.9
28553
28477.9
28403.6
28330.5
28258.8
28188.5
28119.9
28053.2
27988.5
27925.9
27865.7
27807.8
27752.4
27699.6
27649.5
27602.1
27557.5
27515.8
27477
27441.1
27408.2
27378.2
27351.1
27327
27305.9
27287.7
27272.3
27259.9
27250.2
27243.4
27239.4
27238
27239.4
27243.3
27249.9
27259
27270.6
27284.6
27301.1
27319.8
27340.9
27364.2
27389.6
27417.2
27446.9
27478.7
27512.4
27548
27585.6
27625
27666.1
27709
27753.6
27799.8
27847.6
27896.9
27947.7
27999.9
28053.5
28108.3
28164.5
28221.8
28280.3
28339.9
28400.5
28462
28524.5
28587.9
28652
28716.8
28782.3
28848.4
28915
28982.1
29049.6
29117.4
29185.4
29253.5
29321.8
29390.1
29458.3
29526.5
29594.4
29662.1
29729.5
29796.5
29863
29929
29994.4
30059.1
30123.2
30186.5
30249
30310.6
30371.4
30431.2
30490
30547.8
30604.5
30660.2
30714.7
30768
30820.2
30871.2
30920.9
30969.4
31016.6
31062.5
31107
31150.2
31192.1
31232.5
31271.6
31309.3
31345.6
31380.4
31413.8
31445.8
31476.3
31505.5
31533.1
31559.4
31584.2
31607.6
31629.6
31650.2
31669.3
31687.1
31703.6
31718.6
31732.4
31744.8
31755.9
31765.7
31774.2
31781.5
31787.6
31792.4
31796.1
31798.6
31800
31800.2
31799.4
31797.5
31794.6
31790.6
31785.7
31779.8
31773
31765.2
31756.6
31747.1
31736.8
31725.6
31713.7
31701.1
31687.7
31673.7
31658.9
31643.6
31627.6
31611
31593.9
31576.2
31558
31539.4
31520.3
31500.7
31480.8
31460.4
31439.8
31418.8
31397.4
31375.9
31354
31331.9
31309.6
31287.2
31264.5
31241.7
31218.8
31195.8
31172.7
31149.5
31126.3
31103.1
31079.9
31056.7
31033.5
31010.4
30987.3
30964.3
30941.4
30918.6
30896
30873.5
30851.1
30829
30807
30785.2
30763.6
30742.2
30721
30700.1
30679.5
30659.1
30638.9
30619.1
30599.5
30580.3
30561.3
30542.6
30524.3
30506.3
30488.6
30471.2
30454.2
30437.6
30421.3
30405.3
30389.7
30374.5
30359.7
30345.2
30331.1
30317.4
30304.1
30291.2
30278.6
30266.5
30254.7
30243.4
30232.4
30221.9
30211.8
30202
30192.7
30183.8
30175.3
30167.2
30159.6
30152.3
30145.5
30139.1
30133.1
30127.5
30122.4
30117.7
30113.4
30109.5
30106
30103
30100.4
30098.3
30096.5
30095.2
30094.4
30093.9
30081.7
30081.8
30082
30082.3
30082.7
30083.2
30083.9
30084.6
30085.5
30086.4
30087.5
30088.7
30090
30091.4
30092.9
30094.5
30096.2
30098.1
30100
30102.1
30104.3
30106.5
30108.9
30111.4
30114
30116.8
30119.6
30122.6
30125.6
30128.8
30132.1
30135.5
30139
30142.6
30146.4
30150.2
30154.2
30158.3
30162.5
30166.8
30171.2
30175.7
30180.4
30185.2
30190.1
30195.1
30200.2
30205.4
30210.8
30216.2
30221.8
30227.5
30233.3
30239.2
30245.3
30251.4
30257.7
30264.1
30270.6
30277.2
30284
30290.8
30297.8
30304.9
30312.1
30319.4
30326.8
30334.4
30342
30349.8
30357.7
30365.7
30373.8
30382.1
30390.4
30398.9
30407.5
30416.1
30424.9
30433.8
30442.9
30452
30461.2
30470.6
30480
30489.6
30499.3
30509.1
30519
30528.9
30539
30549.2
30559.5
30570
30580.5
30591.1
30601.8
30612.6
30623.5
30634.5
30645.6
30656.8
30668
30679.4
30690.9
30702.4
30714
30725.7
30737.5
30749.4
30761.4
30773.4
30785.6
30797.7
30810
30822.3
30834.7
30847.2
30859.8
30872.4
30885
30897.7
30910.5
30923.3
30936.2
30949.1
30962.1
30975.1
30988.1
31001.2
31014.3
31027.5
31040.7
31053.9
31067.1
31080.3
31093.6
31106.9
31120.1
31133.4
31146.7
31160
31173.3
31186.5
31199.8
31213
31226.2
31239.4
31252.5
31265.6
31278.7
31291.7
31304.7
31317.6
31330.5
31343.3
31356
31368.7
31381.3
31393.8
31406.2
31418.5
31430.8
31442.9
31454.9
31466.8
31478.6
31490.2
31501.8
31513.1
31524.4
31535.5
31546.4
31557.2
31567.8
31578.3
31588.5
31598.6
31608.5
31618.2
31627.7
31637
31646.1
31654.9
31663.5
31671.9
31680
31687.9
31695.6
31702.9
31710
31716.9
31723.4
31729.7
31735.6
31741.3
31746.6
31751.7
31756.4
31760.8
31764.8
31768.5
31771.8
31774.8
31777.4
31779.7
31781.6
31783
31784.1
31784.8
31785.1
31785
31784.4
31783.4
31782
31780.1
31777.9
31775.1
31771.9
31768.2
31764
31759.4
31754.2
31748.6
31742.5
31735.8
31728.7
31721
31712.8
31704.1
31694.8
31685
31674.6
31663.7
31652.3
31640.2
31627.6
31614.4
31600.6
31586.3
31571.3
31555.8
31539.6
31522.9
31505.5
31487.6
31469
31449.8
31429.9
31409.5
31388.4
31366.7
31344.3
31321.3
31297.7
31273.4
31248.5
31222.9
31196.7
31169.9
31142.4
31114.2
31085.4
31056
31025.9
30995.1
30963.7
30931.7
30899
30865.7
30831.8
30797.2
30762
30726.1
30689.6
30652.5
30614.8
30576.5
30537.6
30498.1
30458
30417.3
30376
30334.2
30291.8
30248.9
30205.4
30161.4
30116.9
30071.9
30026.4
29980.4
29933.9
29887
29839.7
29792
29743.8
29695.3
29646.4
29597.2
29547.7
29497.9
29447.8
29397.4
29346.9
29296.1
29245.2
29194.1
29142.8
29091.5
29040.2
28988.8
28937.4
28886.1
28834.8
28783.7
28732.7
28681.9
28631.3
28581
28531
28481.3
28432
28383.2
28334.8
28286.9
28239.7
28193
28146.9
28101.5
28056.9
28013
27969.9
27927.7
27886.4
27845.9
27806.5
27768
27730.5
27694.1
27658.8
27624.6
27591.5
27559.6
27528.9
27499.4
27471.1
27444
27418.3
27393.7
27370.5
27348.6
27328
27308.8
27290.9
27274.3
27259.2
27245.4
27233
27222
27212.4
27204.2
27197.5
27192.3
27188.5
27186.2
27185.4
27186.1
27188.3
27192.1
27197.4
27204.2
27212.7
27222.8
27234.4
27247.7
27262.6
27279.2
27297.4
27317.3
27338.9
27362.2
27387.1
27413.8
27442.1
27472.1
27503.9
27537.3
27572.4
27609.2
27647.6
27687.6
27729.3
27772.5
27817.3
27863.6
27911.4
27960.6
28011.1
28063
28116.1
28170.5
28225.9
28282.4
28339.8
28398.1
28457.2
28517
28577.3
28638.1
28699.3
28760.8
28822.4
28884
28945.5
29006.8
29067.7
29128.2
29188.1
29247.3
29305.6
29363
29419.4
29474.5
29528.4
29580.8
29631.8
29681.2
29728.8
29774.8
29818.8
29860.9
29900.9
29938.9
29974.8
30008.5
30039.9
30069.1
30096.1
30120.7
30142.9
30162.9
30180.5
30195.8
30208.7
30219.3
30227.6
30233.6
30237.3
30238.8
30238.1
30235.3
30230.3
30223.3
30214.3
30203.3
30190.4
30175.7
30159.1
30140.9
30120.9
30099.4
30076.4
30051.9
30026
29998.8
29970.4
29940.8
29910.2
29878.6
29846
29812.6
29778.5
29743.7
29708.3
29672.5
29636.2
29599.6
29562.7
29525.7
29488.7
29451.6
29414.6
29377.9
29341.4
29305.2
29269.6
29234.4
29199.9
29166
29132.9
29100.6
29069.2
29038.8
29009.5
28981.3
28954.3
28928.5
28904
28880.9
28859.2
28839
28820.2
28803
28787.3
28773.2
28760.7
28749.8
28740.6
28733.2
28727.4
28723.3
28720.9
28720.1
28720.9
28723.3
28727.3
28732.8
28739.9
28748.4
28758.3
28769.6
28782.2
28796
28811.1
28827.2
28844.4
28862.6
28881.7
28901.6
28922.3
28943.6
28965.5
28987.9
29010.6
29033.7
29057
29080.5
29104
29127.6
29151
29174.3
29197.3
29220
29242.3
29264.2
29285.6
29306.5
29326.7
29346.4
29365.4
29383.7
29401.2
29418
29434
29449.3
29463.7
29477.4
29490.4
29502.5
29513.9
29524.5
29534.4
29543.6
29552.1
29559.9
29567.1
29573.7
29579.7
29585.1
29590
29594.4
29598.3
29601.7
29604.7
29607.4
29609.6
29611.5
29613
29614.3
29615.2
29615.8
29616.2
29616.2
29616
29615.6
29614.8
29613.8
29612.5
29611
29609.1
29607
29604.5
29601.7
29598.5
29594.9
29591
29586.6
29581.7
29576.4
29570.6
29564.2
29557.3
29549.8
29541.6
29532.9
29523.4
29513.3
29502.4
29490.8
29478.4
29465.3
29451.3
29436.5
29421
29404.6
29387.3
29369.3
29350.4
29330.8
29310.5
29289.4
29267.7
29245.4
29222.4
29199
29175.1
29150.9
29126.3
29101.6
29076.7
29051.8
29027
29002.4
28978
28954.1
28930.7
28907.8
28885.7
28864.5
28844.2
28824.9
28806.8
28790
28774.5
28760.5
28748.1
28737.2
28728.1
28720.7
28715.2
28711.5
28709.8
28710.2
28712.5
28716.9
28723.4
28732
28742.7
28755.5
28770.4
28787.4
28806.4
28827.4
28850.3
28875.1
28901.8
28930.3
28960.4
28992.2
29025.5
29060.3
29096.4
29133.8
29172.4
29212
29252.4
29293.7
29335.7
29378.1
29421
29464.2
29507.5
29550.9
29594.1
29637.1
29679.7
29721.8
29763.2
29803.8
29843.4
29882
29919.3
29955.3
29989.8
30022.6
30053.8
30083
30110.3
30135.5
30158.4
30178.9
30197
30212.4
30225.2
30235.3
30242.4
30246.5
30247.6
30245.6
30240.4
30231.9
30220.1
30205
30186.4
30164.5
30139.1
30110.2
30078
30042.3
30003.4
29961.1
29915.6
29867
29815.3
29760.8
29702.6
29642.6
29580
29515
29447.9
29378.8
29307.9
29235.5
29161.7
29086.9
29011.1
28934.7
28857.9
28780.9
28703.9
28627.3
28551.1
28475.7
28401.2
28327.8
28255.9
28185.4
28116.6
28049.7
27984.8
27922.1
27861.7
27803.7
27748.2
27695.4
27645.2
27597.8
27553.2
27511.4
27472.6
27436.7
27403.8
27373.8
27346.8
27322.8
27301.6
27283.5
27268.2
27255.8
27246.2
27239.5
27235.5
27234.2
27235.6
27239.7
27246.3
27255.5
27267.1
27281.2
27297.7
27316.5
27337.6
27361
27386.5
27414.2
27444
27475.8
27509.5
27545.3
27582.9
27622.3
27663.5
27706.5
27751.1
27797.4
27845.2
27894.6
27945.4
27997.7
28051.3
28106.3
28162.5
28219.9
28278.4
28338.1
28398.7
28460.4
28522.9
28586.4
28650.6
28715.5
28781.1
28847.3
28914
28981.1
29048.7
29116.5
29184.6
29252.9
29321.3
29389.7
29458
29526.3
29594.3
29662.1
29729.5
29796.6
29863.2
29929.3
29994.8
30059.6
30123.8
30187.1
30249.7
30311.4
30372.2
30432.1
30491
30548.8
30605.6
30661.3
30715.9
30769.3
30821.5
30872.5
30922.3
30970.8
31018
31064
31108.5
31151.8
31193.7
31234.2
31273.3
31311
31347.3
31382.1
31415.5
31447.5
31478.1
31507.2
31534.9
31561.1
31586
31609.3
31631.3
31651.9
31671
31688.8
31705.2
31720.3
31734
31746.4
31757.4
31767.2
31775.7
31783
31789
31793.9
31797.5
31800
31801.3
31801.6
31800.7
31798.8
31795.8
31791.8
31786.8
31780.9
31774
31766.3
31757.6
31748.1
31737.7
31726.5
31714.6
31701.9
31688.5
31674.4
31659.7
31644.2
31628.2
31611.6
31594.4
31576.7
31558.5
31539.8
31520.7
31501.1
31481.1
31460.8
31440.1
31419
31397.7
31376.1
31354.2
31332.1
31309.8
31287.3
31264.6
31241.8
31218.8
31195.8
31172.7
31149.5
31126.3
31103
31079.8
31056.6
31033.4
31010.2
30987.1
30964.1
30941.2
30918.4
30895.8
30873.2
30850.9
30828.7
30806.7
30784.9
30763.3
30741.9
30720.7
30699.8
30679.1
30658.7
30638.6
30618.7
30599.1
30579.9
30560.9
30542.2
30523.9
30505.8
30488.2
30470.8
30453.8
30437.1
30420.8
30404.9
30389.3
30374.1
30359.2
30344.8
30330.7
30317
30303.6
30290.7
30278.2
30266
30254.3
30242.9
30232
30221.4
30211.3
30201.6
30192.2
30183.3
30174.8
30166.8
30159.1
30151.8
30145
30138.6
30132.6
30127
30121.9
30117.2
30112.9
30109
30105.6
30102.5
30100
30097.8
30096.1
30094.8
30093.9
30093.5
30080.8
30081
30081.2
30081.5
30081.9
30082.5
30083.1
30083.9
30084.7
30085.7
30086.8
30087.9
30089.2
30090.6
30092.2
30093.8
30095.5
30097.3
30099.3
30101.4
30103.5
30105.8
30108.2
30110.7
30113.3
30116
30118.9
30121.8
30124.9
30128.1
30131.4
30134.8
30138.3
30141.9
30145.7
30149.5
30153.5
30157.6
30161.8
30166.1
30170.5
30175
30179.7
30184.5
30189.4
30194.4
30199.5
30204.7
30210.1
30215.5
30221.1
30226.8
30232.6
30238.5
30244.6
30250.8
30257
30263.4
30269.9
30276.6
30283.3
30290.1
30297.1
30304.2
30311.4
30318.7
30326.2
30333.7
30341.4
30349.2
30357.1
30365.1
30373.2
30381.4
30389.8
30398.2
30406.8
30415.5
30424.3
30433.2
30442.2
30451.4
30460.6
30470
30479.4
30489
30498.7
30508.5
30518.3
30528.3
30538.4
30548.6
30559
30569.4
30579.9
30590.5
30601.2
30612
30622.9
30633.9
30645
30656.2
30667.5
30678.9
30690.3
30701.9
30713.5
30725.3
30737.1
30749
30760.9
30773
30785.1
30797.3
30809.6
30821.9
30834.4
30846.8
30859.4
30872
30884.7
30897.4
30910.2
30923
30935.9
30948.8
30961.8
30974.9
30987.9
31001
31014.2
31027.3
31040.5
31053.7
31067
31080.2
31093.5
31106.8
31120.1
31133.4
31146.7
31160
31173.3
31186.6
31199.8
31213.1
31226.3
31239.5
31252.7
31265.8
31278.9
31291.9
31304.9
31317.9
31330.8
31343.6
31356.4
31369.1
31381.7
31394.2
31406.6
31419
31431.2
31443.4
31455.4
31467.4
31479.2
31490.8
31502.4
31513.8
31525.1
31536.2
31547.2
31558
31568.7
31579.1
31589.4
31599.5
31609.5
31619.2
31628.7
31638
31647.1
31656
31664.6
31673.1
31681.2
31689.2
31696.8
31704.2
31711.4
31718.2
31724.8
31731.1
31737.1
31742.8
31748.1
31753.2
31757.9
31762.4
31766.4
31770.2
31773.5
31776.5
31779.2
31781.5
31783.4
31784.9
31786
31786.7
31787
31786.9
31786.4
31785.5
31784.1
31782.2
31780
31777.2
31774
31770.4
31766.2
31761.6
31756.5
31750.9
31744.8
31738.1
31731
31723.4
31715.2
31706.5
31697.2
31687.4
31677.1
31666.2
31654.7
31642.7
31630.1
31616.9
31603.2
31588.8
31573.9
31558.3
31542.2
31525.5
31508.1
31490.1
31471.5
31452.3
31432.5
31412.1
31391
31369.2
31346.9
31323.9
31300.2
31276
31251
31225.4
31199.2
31172.4
31144.8
31116.7
31087.8
31058.4
31028.2
30997.5
30966.1
30934
30901.3
30867.9
30833.9
30799.3
30764.1
30728.2
30691.6
30654.5
30616.8
30578.4
30539.4
30499.8
30459.7
30418.9
30377.6
30335.7
30293.3
30250.3
30206.7
30162.7
30118.1
30073
30027.4
29981.3
29934.8
29887.8
29840.4
29792.6
29744.4
29695.8
29646.8
29597.5
29547.8
29497.9
29447.7
29397.2
29346.6
29295.7
29244.6
29193.4
29142
29090.6
29039.1
28987.6
28936.1
28884.6
28833.2
28781.9
28730.8
28679.8
28629.1
28578.6
28528.5
28478.7
28429.2
28380.3
28331.7
28283.8
28236.3
28189.5
28143.3
28097.8
28053
28009
27965.8
27923.5
27882
27841.5
27802
27763.4
27725.9
27689.4
27654
27619.7
27586.6
27554.6
27523.8
27494.3
27465.9
27438.9
27413
27388.5
27365.3
27343.3
27322.7
27303.5
27285.5
27269
27253.8
27240
27227.5
27216.5
27206.9
27198.7
27192
27186.7
27182.9
27180.6
27179.7
27180.4
27182.6
27186.3
27191.5
27198.4
27206.8
27216.8
27228.4
27241.6
27256.5
27273.1
27291.3
27311.1
27332.7
27355.9
27380.8
27407.5
27435.8
27465.8
27497.6
27531
27566.2
27603
27641.4
27681.5
27723.3
27766.6
27811.5
27857.9
27905.8
27955.1
28005.9
28057.9
28111.3
28165.8
28221.5
28278.2
28335.9
28394.5
28453.9
28514
28574.7
28635.9
28697.4
28759.2
28821.2
28883.2
28945.2
29006.9
29068.2
29129.1
29189.5
29249.1
29307.9
29365.7
29422.4
29478
29532.3
29585.1
29636.4
29686.1
29734.1
29780.5
29824.8
29867.1
29907.4
29945.6
29981.7
30015.6
30047.2
30076.6
30103.6
30128.3
30150.7
30170.7
30188.3
30203.5
30216.4
30227
30235.2
30241.1
30244.7
30246.1
30245.3
30242.3
30237.2
30230
30220.7
30209.5
30196.4
30181.4
30164.6
30146.1
30125.9
30104.2
30080.9
30056.1
30029.9
30002.4
29973.7
29943.9
29913
29881
29848.2
29814.5
29780.1
29745
29709.4
29673.2
29636.6
29599.7
29562.6
29525.3
29488
29450.7
29413.5
29376.4
29339.7
29303.3
29267.4
29232
29197.2
29163.1
29129.8
29097.3
29065.8
29035.2
29005.7
28977.3
28950.2
28924.2
28899.7
28876.4
28854.6
28834.2
28815.4
28798
28782.3
28768.1
28755.6
28744.7
28735.5
28728.1
28722.4
28718.3
28715.9
28715.1
28716
28718.5
28722.6
28728.2
28735.3
28744
28754
28765.5
28778.3
28792.3
28807.5
28823.9
28841.3
28859.7
28879.1
28899.2
28920.1
28941.7
28963.8
28986.4
29009.5
29032.8
29056.4
29080.1
29103.9
29127.6
29151.3
29174.8
29198
29220.9
29243.4
29265.5
29287.1
29308.1
29328.5
29348.2
29367.3
29385.7
29403.3
29420.2
29436.2
29451.5
29466
29479.7
29492.6
29504.7
29516
29526.6
29536.4
29545.6
29554
29561.8
29568.9
29575.4
29581.3
29586.6
29591.4
29595.7
29599.5
29602.9
29605.9
29608.4
29610.6
29612.4
29613.9
29615.1
29616
29616.6
29616.9
29617
29616.8
29616.3
29615.6
29614.6
29613.3
29611.8
29610
29607.9
29605.4
29602.6
29599.5
29596
29592.1
29587.8
29583
29577.8
29572
29565.7
29558.9
29551.4
29543.4
29534.7
29525.3
29515.2
29504.4
29492.8
29480.5
29467.3
29453.4
29438.6
29423.1
29406.6
29389.4
29371.3
29352.3
29332.7
29312.2
29291
29269.2
29246.7
29223.6
29199.9
29175.9
29151.4
29126.6
29101.6
29076.5
29051.3
29026.3
29001.3
28976.7
28952.5
28928.8
28905.7
28883.3
28861.8
28841.2
28821.7
28803.4
28786.3
28770.7
28756.4
28743.8
28732.8
28723.5
28716
28710.3
28706.6
28704.8
28705
28707.3
28711.7
28718.2
28726.8
28737.5
28750.4
28765.3
28782.3
28801.4
28822.5
28845.6
28870.5
28897.3
28926
28956.3
28988.3
29021.8
29056.8
29093.2
29130.8
29169.6
29209.4
29250.2
29291.7
29333.9
29376.7
29419.9
29463.4
29507
29550.7
29594.3
29637.6
29680.5
29723
29764.7
29805.7
29845.7
29884.6
29922.2
29958.5
29993.3
30026.5
30058
30087.6
30115.2
30140.6
30163.8
30184.6
30203
30218.7
30231.7
30242
30249.3
30253.6
30254.9
30253.1
30247.9
30239.5
30227.8
30212.7
30194.1
30172.1
30146.6
30117.7
30085.3
30049.5
30010.3
29967.8
29922.1
29873.1
29821.1
29766.1
29707.8
29647.3
29584.2