/*--------------------------------*- C++ -*----------------------------------*\
| =========                 |                                                 |
| \\      /  F ield         | OpenFOAM: The Open Source CFD Toolbox           |
|  \\    /   O peration     | Version:  2412                                  |
|   \\  /    A nd           | Website:  www.openfoam.com                      |
|    \\/     M anipulation  |                                                 |
\*---------------------------------------------------------------------------*/
FoamFile
{
    version     2.0;
    format      ascii;
    arch        "LSB;label=32;scalar=64";
    class       volScalarField;
    location    "2.75";
    object      alpha.honey;
}
// * * * * * * * * * * * * * * * * * * * * * * * * * * * * * * * * * * * * * //

dimensions      [0 0 0 0 0 0 0];

internalField   nonuniform List<scalar> 
6400
(
1
1
1
1
1
1
1
1
1
1
1
1
1
1
1
1
1
1
1
1
1
1
1
1
1
1
1
1
1
1
1
1
1
1
1
1
1
1
1
1
1
1
1
1
1
1
1
1
1
1
1
1
1
1
1
1
1
1
1
1
1
1
1
1
1
1
1
1
1
1
1
1
1
1
1
1
1
1
1
1
1
1
1
1
1
1
1
1
1
1
1
1
1
1
1
1
1
1
1
1
1
1
1
1
1
1
1
1
1
1
1
1
1
1
1
1
1
1
1
1
1
1
1
1
1
1
1
1
1
1
1
1
1
1
1
1
1
1
1
1
1
1
1
1
1
1
1
1
1
1
1
1
1
1
1
1
1
1
1
1
1
1
1
1
1
1
1
1
1
1
1
1
1
1
1
1
1
1
1
1
1
1
1
1
1
1
1
1
1
1
1
1
1
1
1
1
1
1
1
1
1
1
1
1
1
1
1
1
1
1
1
1
1
1
1
1
1
1
1
1
1
1
1
1
1
1
1
1
1
1
1
1
1
1
1
1
1
1
1
1
1
1
1
1
1
1
1
1
1
1
1
1
1
1
1
1
1
1
1
1
1
1
1
1
1
1
1
1
1
1
1
1
1
1
1
1
1
1
1
1
1
1
1
1
1
1
1
1
1
1
1
1
1
1
1
1
1
1
1
1
1
1
1
1
1
1
1
1
1
1
1
1
1
1
1
1
1
1
1
1
1
1
1
1
1
1
1
1
1
1
1
1
1
1
1
1
1
1
1
1
1
1
1
1
1
1
1
1
1
1
1
1
1
1
1
1
1
1
1
1
1
1
1
1
1
1
1
1
1
1
1
1
1
1
1
1
1
1
1
1
1
1
1
1
1
1
1
1
1
1
1
1
1
1
1
1
1
1
1
1
1
1
1
1
1
1
1
1
1
1
1
1
1
1
1
1
1
1
1
1
1
1
1
1
1
1
1
1
1
1
1
1
1
1
1
1
1
1
1
1
1
1
1
1
1
1
1
1
1
1
1
1
1
1
1
1
1
1
1
1
1
1
1
1
1
1
1
1
1
1
1
1
1
1
1
1
1
1
1
1
1
1
1
1
1
1
1
1
1
1
1
1
1
1
1
1
1
1
1
1
1
1
1
1
1
1
1
1
1
1
1
1
1
1
1
1
1
1
1
1
1
1
1
1
1
1
1
1
1
1
1
1
1
1
1
1
1
1
1
1
1
1
1
1
1
1
1
1
1
1
1
1
1
1
1
1
1
1
1
1
1
1
1
1
1
1
1
1
1
1
1
1
1
1
1
1
1
1
1
1
1
1
1
1
1
1
1
1
1
1
1
1
1
1
1
1
1
1
1
1
1
1
1
1
1
1
1
1
1
1
1
1
1
1
1
1
1
1
1
1
1
1
1
1
1
1
1
1
1
1
1
1
1
1
1
1
1
1
1
1
1
1
1
1
1
1
1
1
1
1
1
1
1
1
1
1
1
1
1
1
1
1
1
1
1
1
1
1
1
1
1
1
1
1
1
1
1
1
1
1
1
1
1
1
1
1
1
1
1
1
1
1
1
1
1
1
1
1
1
1
1
1
1
1
1
1
1
1
1
1
1
1
1
1
1
1
1
1
1
1
1
1
1
1
1
1
1
1
1
1
1
1
1
1
1
1
1
1
1
1
1
1
1
1
1
1
1
1
1
1
1
1
1
1
1
1
1
1
1
1
1
1
1
1
1
1
1
1
1
1
1
1
1
1
1
1
1
1
1
1
1
1
1
1
1
1
1
1
1
1
1
1
1
1
1
1
1
1
1
1
1
1
1
1
1
1
1
1
1
1
1
1
1
1
1
1
1
1
1
1
1
1
1
1
1
1
1
1
1
1
1
1
1
1
1
1
1
1
1
1
1
1
1
1
1
1
1
1
1
1
1
1
1
1
1
1
1
1
1
1
1
1
1
1
1
1
1
1
1
1
1
1
1
1
1
1
1
1
1
1
1
1
1
1
1
1
1
1
1
1
1
1
1
1
1
1
1
1
1
1
1
1
1
1
1
1
1
1
1
1
1
1
1
1
1
1
1
1
1
1
1
1
1
1
1
1
1
1
1
1
1
1
1
1
1
1
1
1
1
1
1
1
1
1
1
1
1
1
1
1
1
1
1
1
1
1
1
1
1
1
1
1
1
1
1
1
1
1
1
1
1
1
1
1
1
1
1
1
1
1
1
1
1
1
1
1
1
1
1
1
1
1
1
1
1
1
1
1
1
1
1
1
1
1
1
1
1
1
1
1
1
1
1
1
1
1
1
1
1
1
1
1
1
1
1
1
1
1
1
1
1
1
1
1
1
1
1
1
1
1
1
1
1
1
1
1
1
1
1
1
1
1
1
1
1
1
1
1
1
1
1
1
1
1
1
1
1
1
1
1
1
1
1
1
1
1
1
1
1
1
1
1
1
1
1
1
1
1
1
1
1
1
1
1
1
1
1
1
1
1
1
1
1
1
1
1
1
1
1
1
1
1
1
1
1
1
1
1
1
1
1
1
1
1
1
1
1
1
1
1
1
1
1
1
1
1
1
1
1
1
1
1
1
1
1
1
1
1
1
1
1
1
1
1
1
1
1
1
1
1
1
1
1
1
1
1
1
1
1
1
1
1
1
1
1
1
1
1
1
1
1
1
1
1
1
1
1
1
1
1
1
1
1
1
1
1
1
1
1
1
1
1
1
1
1
1
1
1
1
1
1
1
1
1
1
1
1
1
1
1
1
1
1
1
1
1
1
1
1
1
1
1
1
1
1
1
1
1
1
1
1
1
1
1
1
1
1
1
1
1
1
1
1
1
1
1
1
1
1
1
1
1
1
1
1
1
1
1
1
1
1
1
1
1
1
1
1
1
1
1
1
1
1
1
1
1
1
1
1
1
1
1
1
1
1
1
1
1
1
1
1
1
1
1
1
1
1
1
1
1
1
1
1
1
1
1
1
1
1
1
1
1
1
1
1
1
1
1
1
1
1
1
1
1
1
1
1
1
1
1
1
1
1
1
1
1
1
1
1
1
1
1
1
1
1
1
1
1
1
1
1
1
1
1
1
1
1
1
1
1
1
1
1
1
1
1
1
1
1
1
1
1
1
1
1
1
1
1
1
1
1
1
1
1
1
1
1
1
1
1
1
1
1
1
1
1
1
1
1
1
1
1
1
1
1
1
1
1
1
1
1
1
1
1
1
1
1
1
1
1
1
1
1
1
1
1
1
1
1
1
1
1
1
1
1
1
1
1
1
1
1
1
1
1
1
1
1
1
1
1
1
1
1
1
1
1
1
1
1
1
1
1
1
1
1
1
1
1
1
1
1
1
1
1
1
1
1
1
1
1
1
1
1
1
1
1
1
1
1
1
1
1
1
1
1
1
1
1
1
1
1
1
1
1
1
1
1
1
1
1
1
1
1
1
1
1
1
1
1
1
1
1
1
1
1
1
1
1
1
1
1
1
1
1
1
1
1
1
1
0.999999
0.999999
0.999999
0.999999
0.999999
0.999999
0.999999
0.999999
0.999999
0.999999
0.999999
0.999999
0.999999
0.999999
0.999999
0.999999
0.999999
0.999999
0.999999
0.999999
0.999999
0.999999
0.999999
0.999999
0.999999
0.999999
1
1
1
1
1
1
1
1
1
1
1
1
1
1
1
1
1
1
1
1
1
1
1
1
1
2.51604e-07
3.8497e-07
4.76712e-07
5.42954e-07
5.8373e-07
6.05761e-07
6.13669e-07
6.0949e-07
5.95165e-07
5.72605e-07
5.43032e-07
5.07577e-07
4.6667e-07
4.20903e-07
3.70383e-07
3.1575e-07
2.57162e-07
2.07374e-07
1.6902e-07
1.32432e-07
1.02656e-07
7.45419e-08
4.9077e-08
2.85374e-08
9.24927e-09
-8.46245e-34
-1.03398e-26
-2.03366e-37
-3.90449e-38
-8.24979e-38
-2.30587e-38
-1.78357e-37
-1.75906e-32
-1.09138e-25
-1.0085e-32
-8.2718e-26
-5.78072e-39
-1.94898e-39
-5.32145e-40
-9.3162e-41
-3.23833e-42
-4.69146e-41
-2.37587e-40
-8.81393e-40
-2.73635e-39
-4.1359e-26
-7.52452e-26
-1.00147e-32
-5.47688e-38
-9.41245e-38
-1.35148e-37
-1.88157e-37
-2.52369e-38
-1.34921e-37
-7.54476e-35
-6.70257e-39
1.13155e-10
1.95538e-08
4.35094e-08
7.02511e-08
1.02979e-07
1.41489e-07
1.90583e-07
2.73839e-07
3.72498e-07
4.6609e-07
5.51752e-07
6.26057e-07
6.87745e-07
7.3414e-07
7.64186e-07
7.77855e-07
7.74929e-07
7.58444e-07
7.27581e-07
6.86049e-07
6.32474e-07
5.6728e-07
4.76063e-07
3.40358e-07
6.92567e-20
6.68467e-20
9.40181e-20
1.14316e-19
1.32764e-19
1.51168e-19
1.69491e-19
1.86808e-19
2.02708e-19
2.17916e-19
2.2883e-19
2.32461e-19
2.28563e-19
2.16209e-19
1.93511e-19
1.60503e-19
1.19345e-19
8.20615e-20
5.2276e-20
2.89833e-20
1.31705e-20
-2.0344e-24
-7.38824e-25
-3.87707e-25
-2.20486e-27
-4.47025e-28
-5.60209e-30
-2.25606e-30
-3.79552e-31
-4.27711e-31
-1.30058e-31
-6.93386e-31
-3.95706e-31
-2.05876e-31
-9.62659e-32
-4.03698e-32
-1.63444e-32
-5.35548e-33
-1.40549e-33
-2.43945e-34
-8.66209e-36
-1.22929e-34
-6.27506e-34
-2.36822e-33
-7.54942e-33
-1.99024e-32
-4.54686e-32
-9.23002e-32
-1.88572e-31
-3.57238e-31
-6.1379e-31
-9.6533e-31
-2.637e-31
-1.68213e-30
-3.64288e-30
-2.60759e-31
-7.2863e-31
-1.96123e-29
1.17359e-45
-4.42576e-29
1.51277e-20
3.47754e-20
6.80448e-20
1.21359e-19
1.8034e-19
2.20663e-19
2.3741e-19
2.33367e-19
2.15467e-19
1.86439e-19
1.63907e-19
1.44259e-19
1.27887e-19
1.15387e-19
1.06084e-19
9.89803e-20
9.16262e-20
8.05265e-20
6.01102e-20
6.81089e-20
2.02207e-23
1.84052e-23
2.54787e-23
3.07626e-23
3.58072e-23
4.11718e-23
4.31209e-23
4.59135e-23
4.8848e-23
5.19156e-23
5.42653e-23
5.49019e-23
5.41259e-23
5.12794e-23
4.55469e-23
3.66079e-23
2.51082e-23
1.50179e-23
7.64886e-24
2.71994e-24
2.50902e-25
-1.31731e-24
-5.00197e-25
-2.58176e-25
-1.56677e-27
-3.20517e-28
1.84113e-78
-9.82554e-98
1.15254e-73
8.25671e-72
5.63244e-80
1.2188e-67
-3.38493e-81
3.51913e-91
2.52047e-64
3.0842e-60
3.14172e-59
2.06699e-59
7.86164e-58
3.4767e-58
2.58751e-58
7.29631e-60
-3.53737e-75
1.78592e-100
1.3494e-80
4.25583e-126
-1.35413e-109
-2.51346e-89
5.20257e-79
-3.04361e-231
-4.45112e-185
-4.04433e-186
-2.83792e-158
-5.45566e-129
1.04029e-94
-4.001e-35
1.1792e-27
1.69262e-26
3.50456e-25
8.2542e-25
4.36887e-24
1.26765e-23
2.80829e-23
5.35781e-23
5.42548e-23
3.95778e-23
5.3111e-23
5.06916e-23
4.73559e-23
4.24518e-23
3.90637e-23
3.55301e-23
3.1098e-23
2.63964e-23
2.38711e-23
2.4433e-23
2.2855e-23
2.0365e-23
1.5425e-23
2.34561e-23
2.70118e-25
4.06139e-26
1.71744e-26
1.45004e-26
1.69002e-26
1.95138e-26
2.23759e-26
2.51028e-26
2.78877e-26
3.09877e-26
3.37086e-26
3.54287e-26
3.58928e-26
3.46274e-26
3.09928e-26
2.48198e-26
1.67431e-26
9.61517e-27
4.55251e-27
1.49692e-27
1.77385e-28
-3.92596e-28
-4.6396e-28
-1.98362e-28
-1.20387e-30
-9.9531e-33
-5.01882e-97
2.08164e-75
1.06897e-72
2.01341e-70
2.99192e-68
4.51086e-66
4.54246e-64
4.15134e-62
2.99868e-60
2.03826e-58
9.13736e-57
3.39984e-55
1.06298e-54
1.24084e-54
8.51926e-55
7.41929e-56
1.51116e-59
3.46933e-62
7.21932e-65
1.13583e-67
1.27988e-70
1.01601e-73
6.26017e-77
4.11856e-80
4.10103e-83
6.10692e-86
1.15528e-88
2.48822e-91
0
-1.70546e-39
9.3518e-31
2.55562e-29
3.84304e-28
8.36357e-28
2.3779e-27
7.38083e-27
1.82966e-26
3.75288e-26
2.01355e-25
9.69997e-25
1.37006e-24
1.63867e-24
1.61318e-24
1.44359e-24
1.18338e-24
9.7914e-25
8.34926e-25
7.30074e-25
6.59393e-25
6.11213e-25
5.65073e-25
4.9485e-25
3.54025e-25
3.92037e-25
1.29605e-28
3.37197e-29
1.22714e-29
9.74646e-30
1.1368e-29
1.3155e-29
1.51332e-29
1.7186e-29
1.92774e-29
2.15881e-29
2.36577e-29
2.50113e-29
2.54171e-29
2.45196e-29
2.18362e-29
1.72894e-29
1.1458e-29
6.41647e-30
2.94192e-30
9.59611e-31
1.60305e-31
-1.22665e-31
-3.16486e-31
-1.04375e-31
-4.84287e-34
-3.14182e-90
1.07298e-74
6.1709e-72
1.30645e-69
2.4117e-67
3.8412e-65
5.20105e-63
5.87663e-61
5.41135e-59
3.93852e-57
2.18653e-55
9.54404e-54
3.39467e-52
1.20642e-51
1.47497e-51
1.01774e-51
8.97957e-53
2.06916e-56
4.96265e-59
1.09543e-61
1.85782e-64
2.29557e-67
2.0345e-70
1.42126e-73
1.06446e-76
1.18685e-79
1.95634e-82
4.1017e-85
9.85188e-88
-4.23096e-137
-2.02324e-44
5.61355e-38
2.34456e-34
2.2818e-32
1.42701e-31
9.83458e-31
3.64646e-30
9.90544e-30
2.16686e-29
8.60437e-29
4.38981e-28
6.27176e-28
7.48982e-28
7.20963e-28
6.32924e-28
5.10184e-28
4.18928e-28
3.54977e-28
3.08757e-28
2.77855e-28
2.59477e-28
2.44218e-28
2.15329e-28
1.52548e-28
1.68352e-28
7.83905e-32
2.87637e-32
1.31697e-32
9.89015e-33
9.92176e-33
1.14921e-32
1.32411e-32
1.51176e-32
1.70213e-32
1.90848e-32
2.0926e-32
2.20835e-32
2.23298e-32
2.13369e-32
1.87186e-32
1.44991e-32
9.3323e-33
5.02761e-33
2.20388e-33
6.91409e-34
1.24447e-34
-4.68621e-35
-2.05385e-34
-5.03387e-35
-1.55639e-37
0
1.05252e-71
5.77216e-69
1.1961e-66
2.16162e-64
3.37034e-62
4.46699e-60
4.94075e-58
4.45495e-56
3.1769e-54
1.72895e-52
7.35037e-51
2.50697e-49
9.72221e-49
1.21558e-48
8.40551e-49
7.46842e-50
1.86251e-53
4.67119e-56
1.09476e-58
2.00338e-61
2.63474e-64
2.34986e-67
2.1203e-70
1.77363e-73
2.12625e-76
3.65985e-79
7.93989e-82
1.96944e-84
-2.84333e-125
-1.90662e-49
-1.93011e-57
2.34717e-38
6.43315e-36
5.3447e-35
5.20336e-34
2.17928e-33
6.48827e-33
1.51889e-32
4.31195e-32
2.32382e-31
3.30447e-31
3.89963e-31
3.7009e-31
3.17643e-31
2.52275e-31
2.05997e-31
1.73753e-31
1.50824e-31
1.3608e-31
1.26828e-31
1.18664e-31
1.05304e-31
7.71552e-32
8.56585e-32
7.16414e-35
3.43601e-35
2.79442e-35
1.39672e-35
1.29176e-35
1.2335e-35
1.42171e-35
1.62381e-35
1.83463e-35
2.0564e-35
2.24655e-35
2.35885e-35
2.3649e-35
2.22999e-35
1.91967e-35
1.44883e-35
9.01711e-36
4.65013e-36
1.93666e-36
5.7631e-37
1.03383e-37
-2.14995e-38
-1.39503e-37
-2.50998e-38
-4.88286e-41
1.13349e-70
1.87466e-68
4.30219e-66
8.70548e-64
1.53769e-61
2.34242e-59
3.0325e-57
3.27608e-55
2.88591e-53
2.01172e-51
1.07086e-49
4.43401e-48
1.45413e-46
5.9862e-46
7.55908e-46
5.23197e-46
4.66589e-47
1.23577e-50
3.24477e-53
8.08465e-56
1.59868e-58
2.04154e-61
2.06297e-64
2.16426e-67
2.1974e-70
2.84023e-73
5.11922e-76
1.15073e-78
2.95005e-81
5.12533e-142
-2.81719e-54
1.27718e-58
2.8571e-42
2.24639e-39
2.38578e-38
3.28744e-37
1.55431e-36
5.06485e-36
1.26953e-35
3.6307e-35
1.69619e-34
2.53791e-34
2.92398e-34
2.82937e-34
2.43275e-34
1.94276e-34
1.59884e-34
1.35453e-34
1.18006e-34
1.06848e-34
9.99303e-35
9.37746e-35
8.34552e-35
6.15838e-35
6.81174e-35
8.40349e-38
4.86194e-38
4.94106e-38
3.06579e-38
2.11095e-38
2.03196e-38
1.85996e-38
2.06718e-38
2.33589e-38
2.61729e-38
2.85069e-38
2.97057e-38
2.94801e-38
2.73984e-38
2.31163e-38
1.6982e-38
1.0209e-38
5.03516e-39
1.98887e-39
5.58526e-40
9.66756e-41
-1.17035e-41
-1.03929e-40
-1.37876e-41
-1.69644e-44
0
1.17379e-65
2.638e-63
5.21291e-61
8.98601e-59
1.33518e-56
1.68537e-54
1.77511e-52
1.52482e-50
1.03704e-48
5.38969e-47
2.1732e-45
6.86892e-44
2.9427e-43
3.72481e-43
2.57931e-43
2.30373e-44
6.41772e-48
1.76686e-50
4.68828e-53
9.33502e-56
1.30004e-58
1.49338e-61
1.7668e-64
2.16434e-67
3.03752e-70
5.77803e-73
1.35414e-75
3.52943e-78
1.53372e-93
-8.45537e-59
-1.41993e-66
1.96146e-46
9.58857e-43
1.27111e-41
2.46201e-40
1.3089e-39
4.65405e-39
1.24732e-38
3.90672e-38
1.59396e-37
2.4793e-37
2.81166e-37
2.78668e-37
2.42112e-37
1.96125e-37
1.63559e-37
1.39785e-37
1.22647e-37
1.1165e-37
1.04799e-37
9.84985e-38
8.7673e-38
6.49596e-38
7.17675e-38
1.14417e-40
7.42416e-41
8.3063e-41
6.81656e-41
3.94928e-41
3.63866e-41
3.5858e-41
3.38122e-41
3.43825e-41
3.84756e-41
4.1781e-41
4.32953e-41
4.25133e-41
3.89167e-41
3.21942e-41
2.30368e-41
1.3388e-41
6.32571e-42
2.37167e-42
6.27956e-43
1.03221e-43
-7.50427e-45
-8.72003e-44
-8.65861e-45
-7.02741e-48
1.02633e-65
6.20956e-63
1.36174e-60
2.62477e-58
4.40979e-56
6.38199e-54
7.84325e-52
8.04167e-50
6.72564e-48
4.45578e-46
2.25755e-44
8.86277e-43
2.70506e-41
1.18804e-40
1.50006e-40
1.03904e-40
9.27959e-42
2.70444e-45
7.82193e-48
2.21048e-50
4.44516e-53
6.98576e-56
9.16086e-59
1.229e-61
1.7668e-64
2.71633e-67
5.51007e-70
1.35848e-72
3.78385e-75
-7.82713e-75
-4.9856e-63
-9.9754e-69
1.40907e-50
4.9762e-46
8.08495e-45
2.15113e-43
1.29031e-42
4.9842e-42
1.42414e-41
4.79816e-41
1.79527e-40
2.87745e-40
3.24024e-40
3.28625e-40
2.8895e-40
2.37494e-40
2.00522e-40
1.72784e-40
1.52585e-40
1.39542e-40
1.31335e-40
1.23552e-40
1.09942e-40
8.16893e-41
8.99013e-41
1.76831e-43
1.2408e-43
1.46183e-43
1.3501e-43
1.03501e-43
6.91086e-44
7.04186e-44
6.99664e-44
6.76906e-44
6.43041e-44
6.96298e-44
7.17834e-44
6.99046e-44
6.31663e-44
5.12487e-44
3.57772e-44
2.01383e-44
9.14457e-45
3.26292e-45
8.1577e-46
1.2637e-46
-5.63997e-48
-8.37452e-47
-6.36438e-48
-3.59811e-51
4.67015e-63
2.80489e-60
6.00186e-58
1.1273e-55
1.84385e-53
2.59615e-51
3.10268e-49
3.09297e-47
2.51541e-45
1.62124e-43
7.99756e-42
3.0564e-40
9.02223e-39
4.01475e-38
5.0391e-38
3.49139e-38
3.11395e-39
8.98525e-43
2.88268e-45
8.08879e-48
1.81173e-50
3.22849e-53
4.85771e-56
7.43487e-59
1.229e-61
2.08811e-64
4.56329e-67
1.1941e-69
3.51039e-72
8.87916e-72
-5.23106e-67
-1.32652e-72
7.05398e-54
3.13096e-49
6.12916e-48
2.20007e-46
1.47856e-45
6.17032e-45
1.87202e-44
6.73452e-44
2.35915e-43
3.87024e-43
4.35544e-43
4.51291e-43
4.01352e-43
3.34243e-43
2.8519e-43
2.47434e-43
2.1966e-43
2.01591e-43
1.90098e-43
1.78925e-43
1.59162e-43
1.18521e-43
1.29579e-43
3.06358e-46
2.27963e-46
2.77352e-46
2.73294e-46
2.37724e-46
1.78346e-46
1.4679e-46
1.50392e-46
1.50962e-46
1.49088e-46
1.3488e-46
1.33867e-46
1.29447e-46
1.15757e-46
9.24994e-47
6.30901e-47
3.44815e-47
1.50996e-47
5.14822e-48
1.2194e-48
1.77594e-49
-4.95037e-51
-9.29539e-50
-5.55167e-51
-2.32103e-54
1.82776e-60
1.09221e-57
2.27968e-55
4.16886e-53
6.63257e-51
9.07724e-49
1.05396e-46
1.02054e-44
8.06244e-43
5.04989e-41
2.42282e-39
9.0121e-38
2.57617e-36
1.15036e-35
1.43162e-35
9.92294e-36
8.82915e-37
2.39598e-40
8.40698e-43
2.55433e-45
6.40638e-48
1.30199e-50
2.26132e-53
3.97492e-56
7.43487e-59
1.40805e-61
3.34832e-64
9.37904e-67
2.92288e-69
-2.45455e-89
0
5.42735e-72
4.60011e-57
2.37738e-52
5.52261e-51
2.62861e-49
1.95776e-48
8.77012e-48
2.81132e-47
1.07935e-46
3.57032e-46
5.9241e-46
6.79144e-46
7.07559e-46
6.37477e-46
5.37168e-46
4.62256e-46
4.03222e-46
3.59377e-46
3.3062e-46
3.1212e-46
2.93794e-46
2.61225e-46
1.94866e-46
2.11221e-46
5.88668e-49
4.592e-49
5.71115e-49
5.86582e-49
5.47211e-49
4.67179e-49
3.56411e-49
3.43891e-49
3.53555e-49
3.58625e-49
3.34728e-49
2.98633e-49
2.67591e-49
2.3724e-49
1.87251e-49
1.25505e-49
6.6892e-50
2.83075e-50
9.26708e-51
2.08868e-51
2.86389e-52
-5.04875e-54
-1.19865e-52
-5.7925e-54
-1.94548e-58
6.1658e-58
3.69158e-55
7.50575e-53
1.33546e-50
2.06531e-48
2.7456e-46
3.09506e-44
2.90885e-42
2.23055e-40
1.35649e-38
6.32383e-37
2.28922e-35
6.34322e-34
2.81945e-33
3.47186e-33
2.40783e-33
2.13553e-34
5.50576e-38
2.09354e-40
7.02678e-43
1.98591e-45
4.63434e-48
9.35457e-51
1.90152e-53
3.97492e-56
8.4662e-59
2.21421e-61
6.70446e-64
2.23782e-66
7.92104e-69
1.54634e-70
3.60215e-68
2.40118e-60
2.16941e-55
5.89467e-54
3.65212e-52
2.97997e-51
1.42285e-50
4.7921e-50
1.96239e-49
6.16223e-49
1.02679e-48
1.20748e-48
1.25223e-48
1.14383e-48
9.73094e-49
8.42818e-49
7.37995e-49
6.59457e-49
6.07493e-49
5.73664e-49
5.39734e-49
4.7956e-49
3.58207e-49
3.84411e-49
1.24282e-51
1.0089e-51
1.27525e-51
1.34888e-51
1.31676e-51
1.20936e-51
1.02892e-51
8.51022e-52
8.81875e-52
9.11775e-52
8.70928e-52
8.03852e-52
6.75019e-52
5.40101e-52
4.22191e-52
2.79148e-52
1.46009e-52
6.01724e-53
1.89435e-53
4.08511e-54
5.29404e-55
-5.96535e-57
-1.79039e-55
-3.56917e-57
9.26614e-58
5.34513e-55
1.10112e-52
2.14819e-50
3.71821e-48
5.58746e-46
7.21222e-44
7.88985e-42
7.19358e-40
5.3509e-38
3.15722e-36
1.42903e-34
5.03416e-33
1.35317e-31
5.9445e-31
7.23054e-31
5.0189e-31
4.43415e-32
1.09613e-35
4.5437e-38
1.69602e-40
5.44149e-43
1.4695e-45
3.4734e-48
8.21987e-51
1.90152e-53
4.59328e-56
1.33485e-58
4.41269e-61
1.58904e-63
6.34725e-66
1.37034e-67
2.96579e-65
1.4557e-63
2.37e-58
7.42484e-57
5.87425e-55
5.19022e-54
2.62144e-53
9.21957e-53
4.01042e-52
1.2029e-51
2.00763e-51
2.40568e-51
2.48657e-51
2.29441e-51
1.96612e-51
1.7103e-51
1.50084e-51
1.34269e-51
1.23711e-51
1.16752e-51
1.0973e-51
9.73926e-52
7.28096e-52
7.72783e-52
2.85925e-54
2.40366e-54
3.07705e-54
3.32834e-54
3.35702e-54
3.23425e-54
2.96243e-54
2.52986e-54
2.3529e-54
2.4699e-54
2.40843e-54
2.2699e-54
1.94989e-54
1.47455e-54
1.05413e-54
6.90091e-55
3.55814e-55
1.43798e-55
4.4028e-56
9.15818e-57
3.13531e-57
1.75586e-57
5.11696e-58
4.96001e-57
7.68867e-55
1.50292e-52
2.86418e-50
5.34721e-48
9.00907e-46
1.31539e-43
1.64834e-41
1.74954e-39
1.54704e-37
1.11583e-35
6.38411e-34
2.80358e-32
9.61146e-31
2.5076e-29
1.08178e-28
1.29775e-28
9.0191e-29
7.93438e-30
1.89661e-33
8.63173e-36
3.6116e-38
1.32685e-40
4.18377e-43
1.16755e-45
3.23757e-48
8.21987e-51
2.26819e-53
7.39e-56
2.69101e-58
1.05332e-60
4.89962e-63
1.21743e-64
1.54479e-64
2.57777e-64
3.08277e-61
1.09925e-59
1.08913e-57
1.02997e-56
5.45921e-56
1.99195e-55
9.16654e-55
2.6365e-54
4.39441e-54
5.32906e-54
5.49328e-54
5.10179e-54
4.39176e-54
3.82857e-54
3.36112e-54
3.00602e-54
2.7668e-54
2.60717e-54
2.44612e-54
2.16788e-54
1.62135e-54
1.7005e-54
7.1158e-57
6.17419e-57
7.98723e-57
8.79724e-57
9.10156e-57
9.08122e-57
8.73747e-57
8.00314e-57
7.08565e-57
7.14852e-57
7.10529e-57
6.8029e-57
5.96095e-57
4.62606e-57
2.96888e-57
1.8868e-57
9.63392e-58
3.85635e-58
1.33771e-58
1.22116e-58
2.00605e-57
3.27153e-57
2.87133e-57
1.00397e-54
1.9843e-52
3.69266e-50
6.53117e-48
1.16159e-45
1.89861e-43
2.69408e-41
3.2779e-39
3.37577e-37
2.89489e-35
2.02424e-33
1.12257e-31
4.78027e-30
1.59512e-28
4.04087e-27
1.7016e-26
2.01049e-26
1.39963e-26
1.22596e-27
2.85626e-31
1.43938e-33
6.8141e-36
2.89546e-38
1.07686e-40
3.58004e-43
1.16755e-45
3.23757e-48
1.02642e-50
3.7769e-53
1.52672e-55
6.54672e-58
3.79249e-59
2.29579e-61
4.8387e-64
1.03428e-63
1.46497e-63
1.68237e-62
2.31653e-60
2.31922e-59
1.27948e-58
4.81086e-58
2.33106e-57
6.44608e-57
1.06915e-56
1.30441e-56
1.34001e-56
1.24818e-56
1.07639e-56
9.38242e-57
8.2254e-57
7.34288e-57
6.74313e-57
6.3382e-57
5.9322e-57
5.24708e-57
3.92451e-57
4.06376e-57
1.90329e-59
1.70041e-59
2.21988e-59
2.483e-59
2.62362e-59
2.69139e-59
2.68642e-59
2.58668e-59
2.40055e-59
2.26886e-59
2.23822e-59
2.17242e-59
1.941e-59
1.5402e-59
1.02211e-59
5.69335e-60
2.96503e-60
4.11834e-60
1.86922e-59
8.62221e-59
1.23526e-58
5.25085e-57
1.17737e-54
2.40865e-52
4.58589e-50
8.16195e-48
1.36618e-45
2.22691e-43
3.46767e-41
4.79114e-39
5.66278e-37
5.66045e-35
4.70855e-33
3.19208e-31
1.71548e-29
7.08052e-28
2.30056e-26
5.66014e-25
2.31307e-24
2.68821e-24
1.87574e-24
1.6365e-25
3.74313e-29
2.10992e-31
1.14259e-33
5.68091e-36
2.52089e-38
1.00803e-40
3.58004e-43
1.17033e-45
4.27939e-48
1.78825e-50
8.07742e-53
4.14678e-55
2.77895e-56
1.68063e-58
7.97923e-61
3.36229e-63
3.89069e-63
5.63115e-63
9.23573e-63
5.88988e-62
3.36059e-61
1.29825e-60
6.56539e-60
1.74757e-59
2.87327e-59
3.50713e-59
3.58654e-59
3.33742e-59
2.87555e-59
2.50038e-59
2.18489e-59
1.94382e-59
1.7787e-59
1.66603e-59
1.55434e-59
1.37142e-59
1.02532e-59
1.04757e-59
5.43928e-62
4.995e-62
6.57506e-62
7.45606e-62
8.02474e-62
8.42778e-62
8.66601e-62
8.66883e-62
8.43443e-62
8.15745e-62
7.60636e-62
7.39682e-62
6.74495e-62
5.46473e-62
3.74061e-62
5.08638e-62
9.19548e-62
2.92484e-60
4.1279e-60
1.80815e-59
4.74345e-57
1.13508e-54
2.47294e-52
4.94388e-50
9.1158e-48
1.55728e-45
2.47569e-43
3.69914e-41
5.49097e-39
7.36863e-37
8.47122e-35
8.22423e-33
6.63946e-31
4.36541e-29
2.2736e-27
9.0936e-26
2.87894e-24
6.8799e-23
2.71276e-22
3.09723e-22
2.16794e-22
1.88595e-23
4.2597e-27
2.71818e-29
1.70555e-31
1.00561e-33
5.39403e-36
2.52089e-38
1.00803e-40
3.90909e-43
1.65077e-45
7.8576e-48
3.99442e-50
2.70183e-51
1.976e-53
1.05697e-55
5.564e-58
2.72199e-60
8.15128e-63
9.23573e-63
7.67432e-63
7.35107e-64
1.0854e-63
3.98457e-63
2.03828e-62
5.22399e-62
8.48056e-62
1.03005e-61
1.04721e-61
9.69382e-62
8.32335e-62
7.20302e-62
6.26164e-62
5.54289e-62
5.04738e-62
4.70626e-62
4.37339e-62
3.84702e-62
2.8738e-62
2.89523e-62
1.65193e-64
1.55742e-64
2.066e-64
2.37273e-64
2.59692e-64
2.78514e-64
2.93849e-64
3.03391e-64
3.06659e-64
3.08345e-64
2.92212e-64
2.73194e-64
2.50853e-64
2.10773e-64
3.94738e-64
3.19952e-62
5.0867e-62
9.19628e-62
1.45548e-59
3.50558e-57
8.68901e-55
2.09381e-52
4.54151e-50
8.94026e-48
1.60664e-45
2.64845e-43
4.02155e-41
5.6614e-39
7.63983e-37
9.7482e-35
1.09176e-32
1.03058e-30
8.08183e-29
5.15717e-27
2.60397e-25
1.0093e-23
3.11716e-22
7.23543e-21
2.73575e-20
3.06434e-20
2.15535e-20
1.87327e-21
4.18933e-25
3.0693e-27
2.26513e-29
1.60813e-31
1.00561e-33
5.39403e-36
2.6247e-38
1.21557e-40
5.91461e-43
3.20483e-45
1.97154e-47
1.62606e-48
1.17727e-50
6.42543e-53
3.50604e-55
1.76383e-57
8.12909e-60
3.34938e-62
7.35107e-64
6.63406e-64
3.60959e-64
3.62103e-65
6.501e-65
1.71114e-64
2.73429e-64
3.2877e-64
3.31728e-64
3.04194e-64
2.59614e-64
2.23083e-64
1.92556e-64
1.69327e-64
1.53239e-64
1.42087e-64
1.31412e-64
1.1518e-64
8.59298e-65
8.53246e-65
5.30513e-67
5.13053e-67
6.85679e-67
7.97028e-67
8.86245e-67
9.69192e-67
1.04678e-66
1.11144e-66
1.16063e-66
1.20768e-66
1.19309e-66
1.10528e-66
1.46693e-66
4.35122e-65
2.06176e-64
4.80912e-64
3.40485e-62
9.68457e-60
2.5523e-57
6.14038e-55
1.35263e-52
3.14765e-50
6.8944e-48
1.35127e-45
2.38866e-43
3.82957e-41
5.59443e-39
7.47587e-37
9.22319e-35
1.10919e-32
1.2013e-30
1.10629e-28
8.43946e-27
5.23271e-25
2.56348e-23
9.63372e-22
2.90732e-20
6.5549e-19
2.37067e-18
2.59976e-18
1.83593e-18
1.60016e-19
3.52697e-23
3.01553e-25
2.66297e-27
2.26513e-29
1.60813e-31
1.05916e-33
6.3713e-36
3.56284e-38
1.98508e-40
1.21496e-42
1.00465e-43
9.23764e-46
5.77694e-48
3.53449e-50
1.9866e-52
1.0179e-54
4.72727e-57
1.97395e-59
7.30145e-62
3.55123e-64
3.62103e-65
2.60615e-65
4.72008e-66
4.25188e-67
9.41599e-67
1.13489e-66
1.134e-66
1.02606e-66
8.68151e-67
7.39024e-67
6.32169e-67
5.51351e-67
4.9524e-67
4.56174e-67
4.19567e-67
3.66214e-67
2.72726e-67
2.668e-67
1.79329e-69
1.77783e-69
2.39352e-69
2.81503e-69
3.17839e-69
3.54144e-69
3.91065e-69
4.26142e-69
4.58435e-69
4.90257e-69
4.9209e-69
2.89584e-68
8.35157e-67
1.46693e-66
4.37579e-65
1.48385e-62
4.78135e-60
1.39873e-57
3.71864e-55
8.99254e-53
1.97711e-50
3.96612e-48
8.63863e-46
1.71415e-43
3.02057e-41
4.76333e-39
6.75785e-37
8.66185e-35
1.00848e-32
1.09069e-30
1.1226e-28
1.00677e-26
7.49554e-25
4.52353e-23
2.15301e-21
7.8541e-20
2.31728e-18
5.10185e-17
1.87258e-16
2.00177e-16
1.40882e-16
1.18749e-17
2.49051e-21
2.52992e-23
2.72575e-25
2.66297e-27
2.31859e-29
1.91538e-31
1.4604e-33
1.01448e-35
6.4933e-38
7.90332e-39
9.11293e-41
6.47836e-43
4.44157e-45
2.80592e-47
1.60716e-49
8.29404e-52
3.82793e-54
1.56105e-56
5.50362e-59
1.59989e-61
3.61843e-64
4.6751e-66
4.18101e-67
2.68372e-67
1.71534e-68
3.16699e-69
4.15563e-69
3.70297e-69
3.09738e-69
2.60617e-69
2.20519e-69
1.90451e-69
1.69575e-69
1.5501e-69
1.41672e-69
1.23072e-69
9.14474e-70
8.81054e-70
6.35277e-72
6.45302e-72
8.75207e-72
1.04135e-71
1.19362e-71
1.35455e-71
1.52838e-71
1.70758e-71
1.82882e-71
2.12615e-71
2.44852e-69
4.46907e-69
3.12073e-68
1.0989e-65
4.4511e-63
1.62746e-60
5.37433e-58
1.60545e-55
4.34244e-53
1.06392e-50
2.36114e-48
4.73928e-46
8.64409e-44
1.74214e-41
3.1218e-39
4.91971e-37
6.87088e-35
8.54828e-33
9.50711e-31
9.5315e-29
8.96155e-27
7.68576e-25
5.59282e-23
3.29483e-21
1.52572e-19
5.41962e-18
1.61467e-16
3.53886e-15
9.93625e-15
1.0552e-14
7.64104e-15
1.56425e-15
1.16645e-19
1.41043e-21
1.8488e-23
2.51259e-25
2.98247e-27
3.18937e-29
3.23946e-31
3.07155e-33
7.63862e-35
2.86117e-36
2.74034e-38
2.04791e-40
1.4649e-42
9.44494e-45
5.447e-47
2.79128e-49
1.25671e-51
4.86703e-54
1.69434e-56
7.72384e-59
3.23758e-61
1.23876e-63
4.63265e-66
1.71627e-68
1.76004e-69
1.00387e-69
1.68006e-71
1.37084e-71
1.17351e-71
9.73901e-72
8.13616e-72
6.94769e-72
6.12445e-72
5.55033e-72
5.03693e-72
4.35253e-72
3.22532e-72
3.05943e-72
2.34869e-74
2.44363e-74
3.33912e-74
4.01943e-74
4.67704e-74
5.40599e-74
6.22503e-74
5.9469e-74
4.05114e-73
8.84342e-72
2.52546e-71
1.24904e-69
9.19248e-67
5.74288e-64
2.90297e-61
1.24811e-58
4.50802e-56
1.38912e-53
3.86203e-51
9.68705e-49
2.19101e-46
4.46459e-44
8.1744e-42
1.35244e-39
2.49977e-37
4.03602e-35
5.6612e-33
6.9523e-31
7.51242e-29
7.16588e-27
6.10288e-25
4.89057e-23
3.44125e-21
1.98975e-19
8.95301e-18
3.15705e-16
1.25717e-14
1.77322e-13
1.41423e-13
1.55663e-13
1.09373e-13
1.84466e-14
2.89597e-18
3.74743e-20
5.31088e-22
8.11956e-24
1.28049e-25
1.97858e-27
2.92235e-29
6.17569e-31
2.00987e-32
2.158e-34
1.93565e-36
1.5866e-38
1.16149e-40
7.55056e-43
4.33377e-45
2.17378e-47
1.11289e-49
5.61159e-52
2.5636e-54
1.0607e-56
3.97669e-59
1.35047e-61
4.15053e-64
1.15269e-66
2.90843e-69
1.37556e-71
3.49391e-72
2.93914e-73
3.70529e-74
3.82973e-74
3.16233e-74
2.66516e-74
2.32319e-74
2.08535e-74
1.87773e-74
1.61316e-74
1.19162e-74
1.11253e-74
9.02597e-77
9.61681e-77
1.32414e-76
1.61271e-76
1.90557e-76
2.2346e-76
1.97605e-76
1.09186e-74
3.1774e-74
-1.88693e-73
-1.48404e-70
-7.33665e-68
-3.06874e-65
-1.04944e-62
-2.65063e-60
-2.79683e-58
3.11889e-55
2.78836e-52
1.26e-49
4.31462e-47
1.22303e-44
2.94207e-42
5.9479e-40
9.93203e-38
1.48711e-35
2.49701e-33
3.62992e-31
4.51307e-29
4.83968e-27
4.49728e-25
3.63193e-23
2.59104e-21
1.7269e-19
9.73558e-18
4.38446e-16
1.6386e-14
3.67552e-13
2.61938e-12
4.8635e-12
4.72816e-12
2.45627e-12
1.25111e-14
8.65817e-17
1.10392e-18
1.38978e-20
1.75033e-22
2.31102e-24
3.46713e-26
5.93624e-28
2.94886e-29
4.4287e-31
4.63161e-33
4.35991e-35
3.64551e-37
2.68165e-39
1.72588e-41
9.62815e-44
5.36102e-46
2.96023e-48
1.47667e-50
6.63889e-53
2.69328e-55
9.86402e-58
3.26174e-60
9.73341e-63
2.61823e-65
6.33571e-68
1.37622e-70
2.93818e-73
1.74815e-74
9.42712e-75
1.85049e-76
1.1398e-76
1.07042e-76
9.21841e-77
8.18804e-77
7.31043e-77
6.24074e-77
4.59351e-77
4.22e-77
3.59177e-79
3.91831e-79
5.43739e-79
6.70246e-79
7.99405e-79
7.94337e-79
7.58903e-77
1.4791e-76
6.72967e-75
5.59503e-72
4.19809e-69
2.76627e-66
1.61157e-63
8.33842e-61
3.84221e-58
1.57868e-55
5.78494e-53
1.89333e-50
5.51603e-48
1.43025e-45
3.32109e-43
6.9245e-41
1.46583e-38
3.30945e-36
6.5329e-34
1.05238e-31
1.68219e-29
2.20736e-27
2.42685e-25
2.25792e-23
1.78542e-21
1.20424e-19
7.07348e-18
3.88749e-16
2.06457e-14
4.70905e-13
2.2951e-12
1.55828e-11
1.15259e-10
1.0594e-10
7.96393e-11
4.67599e-13
4.00994e-15
6.72435e-17
1.10392e-18
1.38978e-20
1.75033e-22
2.31102e-24
3.77341e-25
7.71583e-27
8.72197e-29
9.42762e-31
8.94533e-33
7.33881e-35
5.16102e-37
3.06343e-39
1.48481e-41
8.6201e-44
5.31799e-46
2.94999e-48
1.47175e-50
6.33303e-53
2.23942e-55
7.12409e-58
2.04085e-60
5.25845e-63
1.21663e-65
2.52097e-68
4.66026e-71
7.66925e-74
1.77937e-76
3.58163e-77
1.42576e-77
3.61979e-79
3.80366e-79
3.34719e-79
2.96086e-79
2.51048e-79
1.84063e-79
1.66336e-79
1.47449e-81
1.64683e-81
2.30363e-81
2.86006e-81
3.41193e-81
2.57938e-79
5.50875e-79
9.58355e-77
1.03915e-73
9.77292e-71
8.00474e-68
5.76464e-65
3.6754e-62
2.0849e-59
1.05576e-56
4.78219e-54
1.93942e-51
7.04181e-49
2.28696e-46
6.6323e-44
1.71372e-41
3.93436e-39
8.00032e-37
1.43568e-34
2.2752e-32
3.16643e-30
4.45035e-28
7.14409e-26
8.61458e-24
8.38402e-22
6.73926e-20
4.49076e-18
2.52769e-16
1.37796e-14
4.20767e-13
3.28165e-12
4.33453e-11
3.84482e-10
3.02882e-09
2.66841e-09
2.09548e-09
1.50616e-11
1.59453e-13
3.60254e-15
6.72435e-17
1.12073e-18
1.82276e-20
3.75485e-21
9.78849e-23
1.3098e-24
1.63267e-26
1.77269e-28
1.64024e-30
1.27665e-32
8.18501e-35
4.38986e-37
3.33368e-39
2.28099e-41
1.38777e-43
7.05443e-46
2.95752e-48
1.10973e-50
3.73694e-53
1.12993e-55
3.06866e-58
7.48184e-61
1.63546e-63
3.19749e-66
5.57102e-69
8.60536e-72
1.17017e-74
1.42416e-77
1.85697e-79
9.76755e-80
1.48225e-81
1.41406e-81
1.24297e-81
1.04624e-81
7.63819e-82
6.78833e-82
6.22185e-84
7.11398e-84
1.00075e-83
1.26307e-83
2.47973e-82
1.19053e-81
3.26065e-79
4.62036e-76
5.56997e-73
5.77247e-70
5.21007e-67
4.13433e-64
2.90416e-61
1.81464e-58
1.01186e-55
5.04482e-53
2.25061e-50
8.98253e-48
3.20383e-45
1.01929e-42
2.88504e-40
7.24114e-38
1.60534e-35
3.12958e-33
5.33809e-31
7.9226e-29
1.01694e-26
1.12157e-24
1.77687e-22
1.98349e-20
1.71332e-18
1.21922e-16
7.31102e-15
2.13108e-13
2.17499e-12
4.03606e-11
1.09478e-09
2.05786e-08
6.17086e-08
5.19793e-08
4.31431e-08
4.28001e-10
5.02533e-12
1.4778e-13
3.60254e-15
8.35228e-17
2.00124e-17
6.5002e-19
1.02591e-20
1.49876e-22
1.86916e-24
1.94665e-26
1.66511e-28
1.17722e-30
1.11139e-32
8.60793e-35
5.53609e-37
3.12309e-39
1.5593e-41
6.91385e-44
2.73076e-46
9.6326e-49
3.04067e-51
8.601e-54
2.18153e-56
4.96053e-59
1.01012e-61
1.83803e-64
2.97827e-67
4.27591e-70
5.40143e-73
5.94576e-76
5.65372e-79
1.17202e-81
3.72084e-82
5.62912e-84
5.3698e-84
4.50104e-84
3.27094e-84
2.8583e-84
2.68908e-86
3.1465e-86
4.45257e-86
5.7263e-86
2.74638e-84
1.6593e-82
3.08994e-79
4.95253e-76
6.70433e-73
7.80519e-70
7.91704e-67
7.06309e-64
5.58001e-61
3.92243e-58
2.46102e-55
1.38064e-52
6.92965e-50
3.11038e-47
1.24679e-44
4.45332e-42
1.41312e-39
3.96867e-37
9.94294e-35
2.13063e-32
4.02846e-30
6.59702e-28
9.29104e-26
1.11673e-23
1.31021e-21
2.49046e-19
2.35586e-17
1.86567e-15
7.43456e-14
6.90613e-13
1.85398e-11
3.94667e-10
3.12842e-08
3.50248e-07
9.38115e-07
7.63296e-07
6.72447e-07
1.08647e-08
1.16278e-10
3.05098e-12
1.47773e-13
1.8695e-14
1.02735e-15
2.49125e-17
4.18583e-19
5.94517e-21
6.94196e-23
6.45846e-25
5.78991e-27
5.30613e-29
4.20794e-31
2.89109e-33
1.73375e-35
9.12179e-38
4.23035e-40
1.73661e-42
6.33358e-45
2.05853e-47
5.97693e-50
1.55296e-52
3.61421e-55
7.53481e-58
1.40589e-60
2.34302e-63
3.47626e-66
4.56904e-69
5.28344e-72
5.32424e-75
4.61448e-78
3.38579e-81
4.78445e-84