/*--------------------------------*- C++ -*----------------------------------*\
| =========                 |                                                 |
| \\      /  F ield         | OpenFOAM: The Open Source CFD Toolbox           |
|  \\    /   O peration     | Version:  2412                                  |
|   \\  /    A nd           | Website:  www.openfoam.com                      |
|    \\/     M anipulation  |                                                 |
\*---------------------------------------------------------------------------*/
FoamFile
{
    version     2.0;
    format      ascii;
    arch        "LSB;label=32;scalar=64";
    class       volScalarField;
    location    "7.95";
    object      p_rgh;
}
// * * * * * * * * * * * * * * * * * * * * * * * * * * * * * * * * * * * * * //

dimensions      [1 -1 -2 0 0 0 0];

internalField   nonuniform List<scalar> 
6400
(
9934.35
9933.82
9932.75
9931.15
9929.03
9926.4
9923.26
9919.65
9915.58
9911.09
9906.22
9901
9895.5
9889.75
9883.83
9877.79
9871.77
9865.69
9859.68
9853.81
9848.13
9842.69
9837.53
9832.7
9828.21
9824.1
9820.36
9817
9814
9811.36
9809.07
9807.08
9805.38
9803.94
9802.73
9801.72
9800.9
9800.25
9799.76
9799.43
9799.26
9799.27
9799.48
9799.91
9800.59
9801.57
9802.87
9804.54
9806.61
9809.11
9812.07
9815.5
9819.41
9823.8
9828.66
9833.97
9839.67
9845.74
9852.12
9858.74
9865.52
9872.41
9879.32
9886.19
9892.8
9899.33
9905.59
9911.53
9917.09
9922.25
9926.96
9931.2
9934.97
9938.24
9941.03
9943.33
9945.16
9946.52
9947.42
9947.87
9934.88
9934.35
9933.28
9931.67
9929.54
9926.89
9923.74
9920.1
9916
9911.47
9906.55
9901.29
9895.73
9889.93
9883.95
9877.85
9871.74
9865.6
9859.54
9853.61
9847.88
9842.4
9837.21
9832.35
9827.84
9823.72
9819.97
9816.61
9813.63
9811.03
9808.75
9806.79
9805.12
9803.71
9802.52
9801.53
9800.73
9800.09
9799.6
9799.26
9799.08
9799.07
9799.25
9799.65
9800.3
9801.24
9802.5
9804.14
9806.17
9808.65
9811.59
9815.01
9818.93
9823.33
9828.22
9833.56
9839.31
9845.44
9851.87
9858.56
9865.42
9872.38
9879.36
9886.28
9893.02
9899.6
9905.91
9911.9
9917.5
9922.69
9927.42
9931.68
9935.45
9938.73
9941.51
9943.81
9945.62
9946.97
9947.86
9948.31
9935.94
9935.4
9934.33
9932.72
9930.57
9927.9
9924.7
9921.02
9916.85
9912.24
9907.23
9901.87
9896.19
9890.27
9884.17
9877.94
9871.7
9865.43
9859.25
9853.21
9847.38
9841.81
9836.55
9831.63
9827.1
9822.95
9819.21
9815.87
9812.93
9810.35
9808.13
9806.22
9804.6
9803.24
9802.1
9801.16
9800.38
9799.76
9799.27
9798.93
9798.72
9798.67
9798.79
9799.13
9799.71
9800.57
9801.76
9803.32
9805.3
9807.72
9810.63
9814.03
9817.95
9822.39
9827.32
9832.73
9838.57
9844.81
9851.37
9858.19
9865.2
9872.31
9879.45
9886.53
9893.4
9900.12
9906.55
9912.64
9918.33
9923.58
9928.36
9932.65
9936.44
9939.71
9942.48
9944.76
9946.55
9947.87
9948.75
9949.19
9937.54
9936.99
9935.91
9934.29
9932.12
9929.41
9926.17
9922.4
9918.14
9913.41
9908.26
9902.74
9896.9
9890.8
9884.5
9878.07
9871.65
9865.18
9858.81
9852.59
9846.61
9840.91
9835.54
9830.54
9825.95
9821.78
9818.04
9814.73
9811.83
9809.32
9807.17
9805.35
9803.83
9802.55
9801.49
9800.61
9799.88
9799.28
9798.8
9798.44
9798.19
9798.07
9798.12
9798.35
9798.82
9799.57
9800.64
9802.09
9803.97
9806.31
9809.16
9812.54
9816.47
9820.94
9825.95
9831.46
9837.45
9843.85
9850.6
9857.64
9864.87
9872.22
9879.59
9886.9
9894
9900.92
9907.53
9913.77
9919.59
9924.94
9929.79
9934.12
9937.92
9941.2
9943.95
9946.19
9947.94
9949.23
9950.08
9950.5
9939.66
9939.11
9938.03
9936.4
9934.21
9931.46
9928.14
9924.28
9919.89
9915
9909.66
9903.93
9897.86
9891.51
9884.95
9878.26
9871.54
9864.82
9858.19
9851.75
9845.55
9839.66
9834.15
9829.04
9824.38
9820.17
9816.44
9813.17
9810.34
9807.93
9805.89
9804.2
9802.79
9801.64
9800.69
9799.9
9799.24
9798.68
9798.21
9797.82
9797.52
9797.31
9797.24
9797.34
9797.65
9798.23
9799.14
9800.43
9802.16
9804.4
9807.17
9810.51
9814.44
9818.96
9824.06
9829.72
9835.9
9842.53
9849.55
9856.87
9864.42
9872.09
9879.78
9887.4
9894.83
9902.02
9908.87
9915.32
9921.3
9926.79
9931.73
9936.12
9939.94
9943.21
9945.92
9948.1
9949.79
9951.01
9951.81
9952.2
9942.3
9941.76
9940.68
9939.06
9936.86
9934.06
9930.66
9926.68
9922.12
9917.03
9911.46
9905.45
9899.08
9892.42
9885.52
9878.49
9871.41
9864.34
9857.39
9850.63
9844.16
9838.04
9832.33
9827.09
9822.33
9818.1
9814.38
9811.16
9808.43
9806.15
9804.27
9802.74
9801.51
9800.52
9799.72
9799.06
9798.49
9797.99
9797.53
9797.11
9796.73
9796.42
9796.19
9796.1
9796.2
9796.55
9797.23
9798.31
9799.86
9801.93
9804.59
9807.87
9811.8
9816.38
9821.61
9827.46
9833.88
9840.81
9848.17
9855.87
9863.82
9871.91
9880.03
9888.06
9895.88
9903.43
9910.6
9917.32
9923.52
9929.16
9934.21
9938.67
9942.52
9945.76
9948.41
9950.51
9952.09
9953.21
9953.93
9954.29
9945.45
9944.93
9943.88
9942.28
9940.08
9937.25
9933.76
9929.63
9924.87
9919.53
9913.66
9907.33
9900.6
9893.54
9886.22
9878.76
9871.23
9863.73
9856.37
9849.23
9842.41
9836
9830.06
9824.63
9819.78
9815.5
9811.8
9808.66
9806.06
9803.96
9802.28
9800.98
9799.98
9799.21
9798.6
9798.1
9797.66
9797.24
9796.81
9796.35
9795.88
9795.41
9794.98
9794.65
9794.47
9794.53
9794.92
9795.71
9797
9798.87
9801.37
9804.57
9808.5
9813.15
9818.54
9824.61
9831.34
9838.64
9846.43
9854.62
9863.08
9871.69
9880.34
9888.89
9897.21
9905.2
9912.76
9919.81
9926.27
9932.11
9937.29
9941.81
9945.68
9948.88
9951.44
9953.41
9954.83
9955.8
9956.39
9956.7
9949.1
9948.6
9947.61
9946.07
9943.91
9941.05
9937.48
9933.17
9928.18
9922.54
9916.33
9909.6
9902.42
9894.88
9887.07
9879.08
9871.02
9862.99
9855.11
9847.5
9840.25
9833.47
9827.23
9821.6
9816.62
9812.3
9808.64
9805.63
9803.21
9801.33
9799.93
9798.91
9798.2
9797.71
9797.36
9797.08
9796.81
9796.49
9796.09
9795.6
9795.01
9794.36
9793.67
9793.03
9792.5
9792.18
9792.18
9792.61
9793.57
9795.16
9797.47
9800.56
9804.46
9809.19
9814.76
9821.11
9828.21
9835.97
9844.29
9853.07
9862.16
9871.43
9880.73
9889.92
9898.85
9907.4
9915.44
9922.88
9929.65
9935.7
9941.02
9945.61
9949.47
9952.61
9955.05
9956.81
9958
9958.72
9959.15
9959.35
9953.18
9952.74
9951.86
9950.43
9948.36
9945.53
9941.88
9937.38
9932.1
9926.1
9919.48
9912.28
9904.6
9896.5
9888.08
9879.46
9870.75
9862.07
9853.57
9845.38
9837.61
9830.39
9823.8
9817.92
9812.79
9808.43
9804.84
9801.98
9799.8
9798.22
9797.16
9796.52
9796.18
9796.06
9796.04
9796.04
9795.98
9795.8
9795.45
9794.92
9794.2
9793.32
9792.3
9791.27
9790.29
9789.49
9789
9788.95
9789.49
9790.73
9792.77
9795.7
9799.57
9804.39
9810.16
9816.85
9824.4
9832.71
9841.68
9851.17
9861.03
9871.1
9881.21
9891.19
9900.85
9910.06
9918.68
9926.59
9933.71
9940
9945.46
9950.1
9953.95
9957.03
9959.27
9960.73
9961.55
9961.93
9962.08
9962.11
9957.61
9957.28
9956.6
9955.37
9953.48
9950.74
9947.04
9942.32
9936.69
9930.27
9923.17
9915.44
9907.16
9898.4
9889.27
9879.89
9870.4
9860.95
9851.7
9842.81
9834.42
9826.66
9819.65
9813.47
9808.18
9803.79
9800.29
9797.64
9795.76
9794.57
9793.96
9793.79
9793.94
9794.28
9794.69
9795.04
9795.26
9795.26
9794.98
9794.41
9793.54
9792.39
9790.94
9789.42
9787.87
9786.45
9785.33
9784.67
9784.66
9785.44
9787.15
9789.88
9793.68
9798.6
9804.62
9811.7
9819.78
9828.76
9838.51
9848.87
9859.66
9870.7
9881.79
9892.72
9903.27
9913.29
9922.59
9931.06
9938.59
9945.13
9950.69
9955.35
9959.19
9962.15
9964.15
9965.17
9965.44
9965.31
9965.02
9964.82
9962.26
9962.08
9961.75
9960.85
9959.27
9956.73
9953.03
9948.07
9941.99
9935.08
9927.44
9919.13
9910.17
9900.64
9890.68
9880.42
9870.01
9859.62
9849.46
9839.72
9830.56
9822.16
9814.65
9808.12
9802.64
9798.23
9794.87
9792.5
9791.03
9790.33
9790.29
9790.72
9791.48
9792.41
9793.34
9794.16
9794.73
9794.96
9794.8
9794.19
9793.13
9791.62
9789.72
9787.56
9785.29
9783.08
9781.14
9779.71
9779
9779.19
9780.47
9782.93
9786.66
9791.67
9797.98
9805.52
9814.24
9824.01
9834.69
9846.09
9858.01
9870.22
9882.48
9894.56
9906.2
9917.18
9927.31
9936.43
9944.42
9951.2
9956.81
9961.41
9965.2
9968.09
9969.73
9970.12
9969.58
9968.69
9967.71
9967.13
9966.39
9962.84
9967.22
9966.86
9965.67
9963.48
9959.91
9954.64
9948.04
9940.56
9932.38
9923.43
9913.71
9903.31
9892.37
9881.06
9869.55
9858.04
9846.78
9836
9825.92
9816.75
9808.63
9801.7
9796.01
9791.6
9788.44
9786.44
9785.48
9785.42
9786.09
9787.29
9788.81
9790.47
9792.08
9793.46
9794.48
9795.04
9795.04
9794.42
9793.15
9791.23
9788.7
9785.75
9782.57
9779.36
9776.4
9773.98
9772.38
9771.84
9772.56
9774.69
9778.29
9783.41
9790.04
9798.13
9807.59
9818.3
9830.08
9842.74
9856.01
9869.61
9883.28
9896.8
9909.71
9921.84
9932.96
9942.87
9951.39
9958.4
9963.92
9968.27
9971.89
9974.64
9976.01
9975.49
9973.83
9971.82
9969.5
9968.28
9969.62
9965.02
9968.66
9973.22
9972.43
9970.7
9967.36
9961.85
9954.65
9946.68
9938.05
9928.45
9917.88
9906.46
9894.39
9881.85
9869.03
9856.16
9843.57
9831.54
9820.35
9810.24
9801.41
9794
9788.09
9783.72
9780.83
9779.32
9779.03
9779.76
9781.33
9783.48
9785.95
9788.52
9790.96
9793.06
9794.66
9795.64
9795.88
9795.3
9793.82
9791.38
9788.04
9784.1
9779.76
9775.28
9771.02
9767.35
9764.62
9763.15
9763.19
9764.88
9768.34
9773.57
9780.57
9789.28
9799.62
9811.44
9824.55
9838.71
9853.59
9868.86
9884.13
9899.52
9913.89
9927.39
9939.73
9950.62
9959.8
9967.01
9972.16
9975.89
9979.08
9981.65
9982.39
9980.86
9977.75
9973.57
9964.97
9966.9
9968.52
9969.17
9971.19
9979.18
9979.16
9977.56
9974.43
9968.91
9961.45
9953.28
9944.47
9934.38
9922.92
9910.29
9896.88
9882.87
9868.47
9853.95
9839.75
9826.2
9813.66
9802.41
9792.72
9784.75
9778.61
9774.32
9771.81
9770.94
9771.5
9773.24
9775.92
9779.24
9782.89
9786.59
9790.06
9793.07
9795.42
9796.98
9797.57
9797.08
9795.38
9792.39
9787.94
9782.75
9776.91
9770.82
9764.9
9759.65
9755.51
9752.88
9752.06
9753.24
9756.51
9761.88
9769.3
9778.73
9790.07
9803.19
9817.89
9833.85
9850.69
9867.98
9885.32
9902.55
9918.81
9934.03
9947.89
9960.04
9970.05
9977.42
9981.96
9984.77
9987.46
9989.6
9989.06
9985.91
9980.63
9971.84
9961.87
9960.44
9957.13
9926.73
9973.09
9984.62
9984.98
9983.05
9979.93
9975.01
9968.09
9960.29
9951.6
9941.2
9928.89
9914.85
9899.97
9884.27
9867.97
9851.44
9835.19
9819.75
9805.54
9792.93
9782.2
9773.57
9767.17
9763.04
9761.06
9760.99
9762.58
9765.59
9769.66
9774.47
9779.6
9784.72
9789.49
9793.67
9797.01
9799.31
9800.36
9800.02
9798.11
9794.42
9788.89
9781.98
9774.16
9765.95
9757.91
9750.64
9744.73
9740.66
9738.79
9739.34
9742.37
9747.86
9755.72
9765.93
9778.45
9793.13
9809.75
9827.91
9847.12
9866.89
9886.72
9906.19
9924.75
9942.05
9957.75
9971.43
9982.34
9989.68
9993.4
9995.1
9996.59
9997.64
9995.46
9989.85
9982.14
9961.96
9907.37
9937.06
9956.93
9911.59
9936.78
9987.33
9988.96
9986.71
9983.71
9980.24
9974.83
9967.74
9959.27
9948.68
9935.48
9920.19
9903.73
9886.24
9867.74
9848.68
9829.84
9811.98
9795.67
9781.36
9769.39
9760.02
9753.4
9749.57
9748.33
9749.28
9752.03
9756.4
9762.23
9768.93
9775.95
9782.88
9789.35
9795.04
9799.65
9802.89
9804.52
9804.44
9802.38
9797.95
9791.01
9781.98
9771.56
9760.57
9749.79
9739.98
9731.84
9725.97
9722.8
9722.55
9725.25
9730.8
9739.13
9750.28
9764.21
9780.8
9799.74
9820.57
9842.71
9865.55
9888.42
9910.72
9931.86
9951.39
9969.03
9984.22
9995.82
10002.7
10005.3
10005.3
10004.2
10002.4
9997.38
9989.79
9979.5
9928.53
9892.04
9923.29
9959.14
9908.24
9914.13
9982.75
9991.95
9990.01
9987.48
9985.68
9982.12
9975.78
9967.41
9956.74
9943.09
9926.78
9908.73
9889.21
9868.04
9845.7
9823.57
9802.64
9783.73
9767.37
9753.93
9743.69
9736.91
9733.65
9733.52
9735.8
9740.01
9746.13
9753.84
9762.77
9772.05
9781.21
9789.82
9797.43
9803.61
9807.98
9810.36
9810.61
9808.35
9803.05
9794.38
9782.77
9769.08
9754.58
9740.39
9727.43
9716.51
9708.37
9703.59
9702.45
9704.9
9710.68
9719.55
9731.68
9747.21
9766.02
9787.7
9811.72
9837.39
9864
9890.52
9916.14
9940.18
9962.11
9981.69
9998.04
10009.5
10015.2
10016.2
10014
10008.9
10001.9
9994.29
9984.63
9969.56
9889.06
9877.37
9915.51
9974.78
9939.04
9934.64
9990.83
9996.91
9996.73
9994.93
9994.24
9991.82
9985.72
9976.83
9965.83
9952.03
9935.12
9915.58
9893.48
9868.91
9841.97
9815.72
9790.99
9768.91
9750.1
9734.84
9723.49
9716.63
9714.5
9716.24
9720.22
9725.9
9733.94
9744.2
9756.22
9768.16
9779.81
9790.91
9800.99
9809.27
9815.18
9818.48
9819.01
9816.38
9810.08
9799.5
9784.75
9767.04
9748.14
9729.61
9712.64
9698.21
9687.28
9680.68
9678.91
9681.75
9688.6
9697.58
9710.25
9727.23
9748.47
9773.39
9801.18
9830.91
9861.89
9892.4
9921.76
9948.88
9973.41
9994.98
10012.4
10023.8
10028.9
10029.2
10024.9
10015.8
10004.3
9991.51
9977.59
9960.7
9898.91
9890.73
9912.92
9995.53
9989.78
9993.64
10001.1
10007.7
10011.3
10011.9
10011.9
10009.2
10001.2
9989.6
9976.21
9961.12
9943.95
9923.65
9898.88
9869.67
9837.49
9805.3
9775.2
9748.73
9726.48
9708.34
9694.89
9688.04
9688.88
9695.06
9702.78
9710.42
9720.14
9734
9749.45
9764.68
9779.19
9793.28
9806.6
9817.52
9825.07
9829.17
9829.99
9827.47
9820.81
9808.35
9790.17
9767.6
9742.97
9718.51
9696.06
9677.09
9662.74
9654.04
9652.49
9658.27
9664.39
9671.39
9683.39
9701.49
9725.65
9754.87
9787.7
9822.5
9859.77
9894.44
9927.17
9956.87
9983.26
10006.8
10026.9
10041.4
10050.3
10053
10047.9
10033.4
10018.6
9998.33
9976.77
9954.84
9934
9918.65
9916.47
9504.46
9555.73
9737.74
9913.42
10001
10006.3
9954.53
9922.89
9995.16
9986.88
9949.4
9903.68
9852.8
9796.84
9705.89
9532.83
9256.68
8895.19
8489.45
8080.94
7706.85
7386.77
7108.57
6870.92
6713.77
6704.46
6848.83
7070.63
7290.47
7478.09
7694.94
7957.39
8159.9
8256.73
8359.69
8514.15
8635.73
8729.2
8806.33
8870.12
8906.94
8869.59
8717.17
8441.88
8073.08
7659.53
7247.73
6869.86
6540.31
6274.52
6100.51
6037.35
6085.66
6197.43
6357.92
6577.37
6895.81
7299.34
7755.2
8229.07
8684.07
9089.91
9425.73
9678.83
9844.97
9940.04
10000.3
10041.2
10067.1
10083.5
10091.9
10088.6
10077.3
9989.47
9857.11
9699.92
9468.99
9120.13
8799.49
8752.1
4135.04
3830.93
3831.23
4159.53
4587.84
4967.59
5178.7
5345.34
5390.63
5166.92
4884.01
4598.57
4320.19
4045.73
3635
3032.54
2353.71
1724.06
1233.27
890.065
651.509
473.937
316.414
172.798
84.6533
62.104
70.9943
98.0963
156.1
267.028
445.954
679.329
915.583
1200.21
1498.09
1773.49
1988.66
2128.32
2162.54
2130.31
2077.37
1966.97
1743.17
1417.09
1055.49
729.779
468.425
275.541
143.478
58.9086
14.4469
1.39692
1.24995
1.24278
16.5991
110.823
239.78
438.21
719.741
1092.99
1562.85
2130.51
2790.12
3518.95
4267.82
4928.38
5508.64
6083.71
6439.86
6637.56
6612.43
6306.33
5785.16
5256.91
4569.52
3776.91
3053.22
2533.66
2318.5
2358.56
180.73
49.5055
20.7802
13.2057
17.9973
45.2027
97.2746
56.1063
0.749374
0.541351
0.529949
0.495812
0.424413
0.346492
0.313943
0.330123
0.338661
0.342175
0.383244
0.474761
0.568497
0.639217
0.69096
0.769603
0.874541
0.957884
1.00771
1.01079
0.970863
0.956079
1.27171
1.15835
1.01554
0.779508
0.638374
0.763531
1.11126
1.6282
2.04873
2.15104
2.14224
2.25663
2.39102
2.31172
1.97251
1.58712
1.29704
1.10546
1.00623
0.990929
1.0318
1.12475
1.12674
1.11201
1.08014
0.989387
0.929596
0.875701
0.822915
0.774556
0.738717
0.719922
0.711978
0.721382
0.761785
0.830553
0.969436
19.37
162.026
278.983
346.738
399.971
394.008
253.738
35.6709
7.67938
12.6856
24.7658
46.6082
76.766
43.0005
12.6304
3.57393
1.41266
1.25987
0.636952
0.609191
0.623779
0.640995
0.583133
0.551879
0.642389
0.782867
0.977428
1.09306
0.818956
0.472838
0.391351
0.406532
0.442602
0.577076
1.41412
1.70541
1.76154
1.76424
1.67731
1.78267
1.59697
1.28888
1.21858
0.972047
0.463644
0.415968
0.382717
0.33407
0.311197
0.291367
0.279828
0.278183
0.264643
0.275694
0.322255
0.385441
0.438013
0.493883
0.56531
0.64052
0.715124
0.796915
0.890754
0.981204
1.04118
1.04311
1.02632
0.990878
0.936808
0.886146
0.838679
0.796312
0.760781
0.735455
0.723174
0.722579
0.729484
0.751963
0.786396
0.794861
0.784404
0.712417
0.670728
0.661661
0.685211
0.742615
0.824539
1.00701
0.476868
1.08208
4.80301
14.0165
28.4837
14.9891
4.57667
0.874897
0.391541
1.17721
1.72763
0.865464
0.589043
0.620488
0.598936
0.563949
1.28191
2.04278
2.03772
2.06531
2.10977
1.89701
0.498493
0.461001
1.06624
1.55041
1.58286
1.62004
1.11021
1.59844
2.1143
2.14664
2.11916
2.04956
1.97714
0.906451
0.363018
0.361078
0.351026
0.334423
0.31125
0.287194
0.27057
0.265781
0.266231
0.271236
0.286168
0.317993
0.368961
0.435362
0.511416
0.591705
0.673496
0.756012
0.835734
0.904045
0.946434
0.957683
0.948041
0.922199
0.885326
0.849043
0.819682
0.784321
0.760709
0.738286
0.729847
0.726312
0.745296
0.775465
0.779314
0.795517
0.787426
0.838717
0.931209
2.09358
4.07693
4.21179
1.84539
1.02578
0.590831
0.468083
1.29068
4.75337
10.072
4.8498
1.19994
0.359887
0.185143
0.193909
0.591792
1.08817
1.18707
1.21766
0.598306
0.566846
0.537874
0.538388
1.6182
2.09488
2.12251
2.14448
1.85954
0.503929
0.554032
1.42447
1.51862
1.17062
0.574167
0.621428
1.46492
2.09254
2.06443
1.9934
1.91001
1.04969
0.317637
0.33821
0.343529
0.335543
0.318875
0.300755
0.287677
0.28121
0.280815
0.287543
0.30462
0.334752
0.377983
0.432185
0.494862
0.563609
0.635323
0.706734
0.7738
0.829275
0.865073
0.879166
0.875307
0.85752
0.830752
0.801062
0.79151
0.895787
0.946445
0.877766
0.716827
0.704453
0.744281
1.53713
2.06239
1.95509
2.30847
1.73861
1.12909
1.26104
4.44625
4.56477
4.49856
1.11256
0.70256
0.596603
0.681509
1.90215
3.77649
2.02343
1.10768
0.164787
0.110287
0.0696582
0.085496
0.934084
1.11008
1.1848
1.17257
0.553965
0.543033
0.519074
0.514891
0.56406
1.38216
2.14479
1.7895
0.553941
0.486409
0.646672
1.40749
0.833877
0.526691
0.561078
1.68558
2.07207
2.03227
1.2425
0.556555
0.440551
0.291335
0.317992
0.327598
0.324624
0.314119
0.301552
0.291721
0.286688
0.287221
0.294755
0.311223
0.33776
0.374098
0.419252
0.471966
0.531246
0.594288
0.657016
0.714937
0.762823
0.79526
0.810415
0.810439
0.798533
0.778526
0.754862
0.743923
0.959315
0.988888
0.988842
0.808257
0.69469
0.696521
1.75808
3.63541
3.80544
3.86432
3.83217
3.11647
1.39009
1.35629
3.19114
4.66732
4.65723
0.849396
0.730758
0.769879
1.14399
1.78583
0.687861
0.760182
0.146474
0.0729461
0.0231758
-0.0168774
0.14791
0.391226
0.594814
0.672579
1.06116
1.07732
0.614739
0.551096
0.574901
0.59763
0.678953
0.998451
0.724777
0.48343
0.47034
0.474263
0.493341
0.51197
0.532626
1.5502
2.06948
1.44256
0.260493
0.254452
0.271565
0.32002
0.318586
0.311871
0.308995
0.301346
0.292332
0.28467
0.280211
0.280606
0.287565
0.302233
0.324824
0.354929
0.392265
0.43666
0.48783
0.544354
0.602136
0.65591
0.7005
0.731528
0.747446
0.75015
0.742518
0.727483
0.70814
0.68712
0.708156
0.912283
0.971839
0.965416
0.694021
0.717813
0.882264
1.41928
2.33538
3.54674
3.89823
3.89237
3.86267
2.40265
2.30101
4.45889
4.81714
4.16172
0.850011
0.818707
0.991691
1.1235
0.310648
0.258785
0.138463
0.0736293
0.0210593
-0.0177926
-0.0231976
0.201034
0.127319
0.141567
0.203237
0.303196
0.449898
1.13289
1.14169
0.61619
0.618972
0.600792
0.55223
0.465289
0.511899
0.703176
0.517825
0.524621
0.555512
0.624254
1.82003
1.65964
0.401377
0.290789
0.298893
0.340815
0.345514
0.311381
0.292749
0.284961
0.276394
0.268652
0.263685
0.263709
0.270382
0.283839
0.302916
0.326737
0.355545
0.390859
0.434023
0.484919
0.540215
0.594243
0.640253
0.672687
0.690061
0.694988
0.690841
0.680128
0.664767
0.646269
0.626021
0.60692
0.750039
1.38936
1.47467
1.41197
1.109
1.07103
0.918761
0.799231
1.63232
3.807
3.83677
3.81835
3.66546
1.94051
4.93036
4.90322
1.41436
0.833488
0.825571
0.899816
0.227386
0.22883
0.189736
0.114641
0.0639099
0.0282598
0.0206671
0.232694
0.171173
0.134215
0.185403
0.216657
0.217936
1.02185
1.53338
0.999074
0.745551
0.721137
0.521681
0.454584
1.72183
2.39855
2.00758
0.702724
0.595113
0.662076
0.757385
1.69099
0.909525
0.325321
0.317202
0.347811
0.341688
0.319864
0.273725
0.262718
0.251048
0.240242
0.232769
0.231149
0.237145
0.249755
0.265673
0.282383
0.302356
0.329034
0.365051
0.412455
0.468615
0.527585
0.58064
0.618325
0.638585
0.645737
0.644569
0.637715
0.626212
0.610285
0.589888
0.565158
0.538874
1.1721
2.33967
2.3761
2.31017
1.37234
1.29159
0.644438
0.372343
0.571019
3.5068
3.78335
3.63242
0.684355
1.5683
4.25412
2.29223
0.79605
0.724417
0.782776
0.211109
0.22814
0.276117
0.204992
0.136504
0.108534
0.154718
0.26413
0.162703
0.142039
0.191287
0.1757
0.169901
0.175053
1.46507
1.93821
1.97096
1.94991
1.6674
2.41963
2.38842
2.41322
2.46834
2.52819
1.58292
0.737888
0.817153
1.34678
1.38898
0.463416
0.316527
0.329249
0.329863
0.274252
0.246528
0.228681
0.209906
0.19214
0.178588
0.173184
0.178783
0.193672
0.209926
0.221948
0.233659
0.252019
0.28095
0.326699
0.397725
0.463605
0.534117
0.578522
0.590833
0.600037
0.602003
0.599017
0.591477
0.57864
0.55923
0.532235
0.497415
0.644311
0.816381
2.03451
2.68855
2.56199
2.41204
1.93952
0.159589
0.043742
1.42959
2.42148
0.913048
0.378026
0.402318
0.844734
1.46848
1.02876
0.66604
0.796322
0.206496
0.219102
0.298589
0.348215
0.298153
0.304486
0.319345
0.245614
0.172146
0.177487
0.173064
0.156511
0.117481
0.128784
1.14884
1.98877
1.98506
1.96075
1.92038
1.24827
1.42077
2.25094
2.46974
2.55526
2.62201
1.91723
0.918608
0.999893
1.50033
0.696144
0.319208
0.291551
0.271724
0.233432
0.206539
0.177707
0.146797
0.11611
0.0917772
0.0805233
0.108552
0.391728
0.5754
0.354563
0.149647
0.160169
0.182582
0.22798
0.307738
0.702948
1.12748
1.07945
0.631197
0.552503
0.559152
0.56083
0.557661
0.548312
0.531285
0.505764
0.471205
0.427338
0.37958
0.328877
2.34177
3.07885
1.13009
0.756762
0.158345
-0.11545
-0.0206222
0.923188
1.56464
0.447389
0.275442
0.431796
0.527341
0.846981
0.614808
0.847796
0.212132
0.217972
0.231901
0.385951
0.405008
0.410705
0.395474
0.233059
0.206287
0.203189
0.171006
0.114354
0.0993179
0.105692
0.758488
2.02382
2.02
1.99542
1.67823
0.170781
0.0497703
0.0688163
0.303557
2.4014
2.6997
2.7717
1.33217
1.29737
1.52946
0.454696
0.317069
0.276848
0.235749
0.194965
0.153442
0.108616
0.0586426
0.00691376
-0.0350133
-0.0519589
0.747169
3.35461
3.59825
3.32463
0.311007
0.201042
0.0676068
0.121935
0.237104
1.07091
1.36191
1.45301
1.40794
0.517632
0.51348
0.520863
0.522466
0.516456
0.501813
0.478672
0.446836
0.405906
0.355866
0.295363
2.29084
4.0599
-0.0133999
-0.192325
-0.223957
-0.20004
-0.10735
1.06479
1.58292
0.772607
0.206139
0.342665
0.451202
0.502086
0.557709
0.768547
0.228316
0.225254
0.216249
0.317447
0.433812
0.44462
0.323857
0.235964
0.248212
0.215667
0.152975
0.123975
0.109562
0.108402
0.284473
1.96407
2.07134
1.93526
0.445425
0.096396
0.0917945
0.112834
0.160521
0.217956
2.70513
2.83667
2.49353
1.58868
1.52945
0.431813
0.309344
0.260127
0.20692
0.150615
0.0904437
0.0235327
-0.0538067
-0.133363
-0.158474
1.86122
3.42377
3.39784
3.41348
3.47
3.65087
2.07074
-0.0673483
0.0119602
0.127059
0.947493
1.27588
1.37693
1.47568
1.27891
0.464693
0.479641
0.485531
0.482459
0.469617
0.44833
0.418277
0.37905
0.327711
0.262386
2.60318
4.85394
0.668015
-0.207483
-0.25616
-0.248702
-0.184094
0.216981
1.33458
1.21083
0.189295
0.288961
0.39052
0.447745
0.673669
0.672936
0.261097
0.661595
0.229243
0.242182
0.367362
0.356497
0.259538
0.243267
0.269186
0.199161
0.173261
0.144397
0.127586
0.12651
0.133055
0.48645
0.958789
0.446176
0.145063
0.133825
0.134372
0.152741
0.195183
0.252552
1.22378
2.89269
2.54925
1.59065
1.83419
0.600357
0.293114
0.238622
0.175379
0.103475
0.0223734
-0.0720826
-0.184198
-0.29138
0.487131
3.26074
3.15089
3.10131
3.11933
3.20393
3.33756
3.42515
0.389834
-0.106941
0.00129465
0.244105
1.14624
1.30131
1.43106
1.5557
0.550917
0.438984
0.447592
0.447065
0.435711
0.41574
0.3868
0.348057
0.295371
0.236155
2.86339
4.95719
3.28204
-0.1608
0.230856
-0.182368
-0.254218
-0.155177
0.27083
1.23851
0.958874
0.259702
0.348935
0.701372
1.13313
0.653895
0.636881
1.39162
0.943681
0.242924
0.246121
0.248084
0.244322
0.244201
0.274306
0.206247
0.191774
0.171673
0.156487
0.156227
0.162432
0.162772
0.176303
0.268092
0.378735
0.288637
0.159186
0.164786
0.197825
0.254421
0.307664
2.89963
3.01257
2.39933
1.7712
0.40387
0.271196
0.21402
0.143263
0.0572051
-0.0455258
-0.170974
-0.325395
-0.342284
2.1041
2.9987
2.84475
2.77129
2.77955
2.87024
3.09158
3.4579
1.36618
-0.25344
-0.0779872
0.0708846
0.1749
0.921013
1.38972
1.53925
1.53621
0.398573
0.410355
0.411611
0.402082
0.383268
0.355617
0.316806
0.262392
0.263497
3.33164
5.04414
4.82613
0.00280201
0.863162
0.634252
-0.304317
-0.21586
-0.115229
0.811817
1.20357
0.546113
0.320145
1.09457
1.1303
0.795386
0.867069
1.40888
1.41433
0.68903
0.228679
0.225352
0.22431
0.245059
0.273735
0.209577
0.200749
0.186525
0.177463
0.511487
1.6878
2.06708
1.71093
1.09599
0.291332
0.294968
0.505127
0.160818
0.181837
0.235215
0.29105
2.74636
3.05828
3.06107
2.30088
0.292997
0.249594
0.190996
0.114581
0.0162114
-0.106888
-0.262284
-0.459472
-0.0882624
3.04653
2.76007
2.57564
2.47144
2.46054
2.56052
2.78414
2.98696
2.92496
-0.149151
-0.0488041
0.00129649
0.129785
0.22382
0.717329
1.57997
1.75281
0.622822
0.37578
0.37719
0.370745
0.353749
0.328141
0.290782
0.238414
0.24395
3.95909
5.13213
4.86249
0.627082
0.816914
0.830537
-0.29676
-0.259937
-0.127439
-0.00942592
0.771806
0.812193
0.819706
1.1055
1.13197
1.15119
0.48485
1.41756
1.41561
1.42326
0.780533
0.216128
0.202308
0.24422
0.270004
0.207397
0.200633
0.188122
0.5805
2.26844
2.24782
2.22652
2.20546
0.441181
0.414772
1.20675
1.19211
0.549089
0.167843
0.211624
0.262607
1.96228
3.08631
3.08855
2.86805
0.849575
0.233699
0.174538
0.0945713
-0.0136062
-0.153568
-0.333238
-0.566106
-0.422083
2.22109
2.63877
2.43789
-0.206688
-1.61137
-0.226899
2.05783
2.64297
2.69722
2.83756
1.87959
0.376498
0.0568153
0.159738
0.255282
1.00497
1.74006
1.88039
0.343836
0.346151
0.343807
0.329987
0.307241
0.272965
0.224511
0.216373
3.8541
5.23574
4.93496
3.97178
0.553569
0.552313
-0.458154
-0.272807
-0.11375
-0.0346818
0.0168861
0.675829
0.604493
0.972695
1.14192
1.16082
0.21252
1.38789
1.41505
1.41667
1.43065
0.260277
0.18481
0.235683
0.263269
0.215866
0.193088
0.180908
1.25419
2.31345
2.29072
2.26285
1.19969
0.743829
1.21816
1.21666
1.21337
1.08382
0.168851
0.201548
0.243371
0.997511
3.10784
1.83929
1.45443
2.24882
1.47582
0.16762
0.0874556
-0.0265889
-0.17563
-0.363194
-0.606713
-0.887739
-0.718263
0.759157
-0.315785
-1.68219
-1.66173
-1.59486
-1.48996
-0.0927434
1.76155
2.37159
2.3552
2.38584
0.37623
0.103082
0.228071
0.362295
1.7752
1.92625
0.691419
0.32224
0.322748
0.314149
0.29526
0.265899
0.223731
0.173753
2.74017
5.37285
5.02944
4.83399
0.439331
0.202651
-0.428454
-0.239656
-0.070948
0.0105493
0.0305938
0.0406351
0.117709
0.302265
1.16231
1.1796
0.178897
0.358501
1.33245
1.43448
0.94363
0.207581
0.179094
0.217132
0.253854
0.228354
0.188252
0.190544
1.5453
2.37302
1.42948
0.354026
0.467414
0.813541
0.504087
0.264478
0.437691
0.78678
0.81025
0.813243
0.679306
0.817995
1.53163
0.58659
0.68175
2.24572
2.26402
1.17318
0.0946934
-0.0209196
-0.178064
-0.332156
-0.501711
-0.806137
-1.13149
-1.35372
-1.50584
-1.5977
-1.60307
-1.52059
-1.37309
-1.2724
-1.10462
-0.70862
0.653101
2.11985
2.17559
0.066618
0.222917
0.364048
1.45597
1.92243
1.96254
0.308034
0.308887
0.306919
0.292874
0.269907
0.236071
0.190186
2.16507
5.53877
5.17693
4.80566
-0.0340298
-0.204678
-0.12228
-0.169597
-0.0167715
0.349479
1.83397
0.245637
0.152351
0.223337
0.759166
0.815733
0.150621
0.144689
0.305987
0.514347
0.234368
0.235384
0.192537
0.18144
0.241545
0.19442
0.20035
0.245901
1.75888
2.46366
0.340654
0.137512
0.107118
0.103988
0.0752251
0.0857827
0.100534
0.131057
0.512527
0.984427
1.00563
1.01028
0.619625
0.586986
0.559572
0.831704
2.21194
2.15166
1.23448
-0.00208238
-0.157974
-0.342104
-0.327923
-0.624729
-0.897154
-1.11223
-1.33787
-1.46208
-1.50997
-1.50525
-1.30152
-1.26972
-1.08511
-0.774686
-0.368301
0.772379
2.02673
0.128037
0.274063
0.416231
0.623023
1.94392
2.04879
0.343645
0.304321
0.307761
0.299173
0.283159
0.25843
0.223496
1.209
5.69223
5.36078
3.79907
-0.274799
-0.209896
-0.129808
-0.0748453
0.179306
3.81912
5.09233
1.91312
0.149082
0.244512
0.286727
0.3433
0.141095
0.14529
0.158421
0.166668
0.18021
0.223121
0.194669
0.164876
0.1865
0.152904
0.173075
0.271071
1.70279
2.53409
1.13225
0.126119
0.0996558
0.21819
0.363474
0.0876781
0.101634
0.126156
0.155612
0.29977
0.816263
1.02477
1.02933
0.972603
0.595059
0.605959
0.815926
1.92959
2.24012
1.18553
-0.129106
-0.317586
-0.533395
1.342
2.2072
-0.61275
-1.15854
-1.30481
-1.38439
-1.41443
-1.4064
-1.19457
0.236548
0.671016
-0.000805741
0.277934
0.864506
1.82565
2.33742
0.466204
0.652403
1.99532
2.09009
1.27687
0.308148
0.314165
0.311447
0.302209
0.286147
0.26142
0.545583
4.66284
5.52307
4.03426
-0.0565314
-0.0130647
0.0384826
0.067627
0.997848
5.51234
5.26173
1.05097
0.166565
0.284607
0.325264
0.715203
0.146669
0.149811
0.156423
0.162979
0.18102
0.192838
0.17597
0.151739
0.145677
0.136385
0.128249
0.195568
0.914245
2.55299
2.58471
1.01666
1.20212
2.7095
2.74332
2.13913
0.161814
0.120563
0.149955
0.176193
0.21603
0.509996
0.819359
0.958372
1.11601
1.0241
0.750729
0.728957
2.10551
2.27322
1.52089
0.0448271
0.273661
2.78929
2.65548
2.48424
0.815419
-1.11663
-1.2423
-1.29055
-1.29316
1.19224
2.21546
2.43339
2.69838
0.736583
0.875598
3.35605
3.66226
1.31148
0.723695
1.31652
2.13268
2.19833
0.317898
0.323644
0.32611
0.322507
0.314032
0.298251
0.268149
1.01979
5.63037
5.21177
2.61303
0.188743
0.220962
1.09512
5.88282
6.2802
4.68702
0.0752114
0.231341
0.338767
1.09233
1.78276
0.147774
0.147984
0.152294
0.181377
0.183532
0.17081
0.149495
0.140687
0.133906
0.124129
0.109737
0.10191
0.0680074
1.90308
2.6223
2.69325
2.72406
2.71275
2.73873
2.80489
0.853259
0.107832
0.137316
0.1626
0.18004
0.186754
0.211955
0.303613
1.13388
1.20332
1.15189
0.820938
0.821204
2.11591
2.95011
2.99772
3.14146
2.99297
2.81994
2.66468
2.53317
2.43033
1.02274
-0.271289
1.81071
2.33184
2.46642
2.66535
2.90419
3.15529
0.995789
3.27916
3.83492
3.66207
0.802467
0.787413
2.14088
2.21697
0.340083
0.334407
0.339671
0.339756
0.336543
0.328047
0.310156
0.385281
3.15704
5.4023
5.36818
5.37809
5.30402
6.58876
6.53509
6.45965
6.41733
2.19084
0.326696
0.98252
1.84566
1.82903
0.144511
0.15247
0.155007
0.166131
0.177249
0.148949
0.137377
0.132544
0.125531
0.115655
0.101723
0.0836803
0.0530016
0.0840612
1.28084
2.64771
2.74751
2.73896
2.76936
2.31446
0.30769
0.0968477
0.122918
0.144108
0.158467
0.163385
0.155806
0.1328
0.341827
1.20497
1.20589
1.18822
0.960499
0.921035
1.87926
3.41761
3.34051
3.16337
2.99427
2.84691
2.72993
2.64328
2.58914
2.56359
2.56588
2.61907
2.72389
2.91404
3.12912
3.33878
1.85967
2.94754
4.01393
4.07196
1.04042
0.824836
2.02908
1.94518
0.425076
0.344226
0.348804
0.350512
0.349642
0.345271
0.407903
0.537149
0.406081
1.79455
5.33182
5.47171
5.40487