/*--------------------------------*- C++ -*----------------------------------*\
| =========                 |                                                 |
| \\      /  F ield         | OpenFOAM: The Open Source CFD Toolbox           |
|  \\    /   O peration     | Version:  2412                                  |
|   \\  /    A nd           | Website:  www.openfoam.com                      |
|    \\/     M anipulation  |                                                 |
\*---------------------------------------------------------------------------*/
FoamFile
{
    version     2.0;
    format      ascii;
    arch        "LSB;label=32;scalar=64";
    class       surfaceScalarField;
    location    "8.5";
    object      phi;
}
// * * * * * * * * * * * * * * * * * * * * * * * * * * * * * * * * * * * * * //

dimensions      [0 3 -1 0 0 0 0];

oriented        oriented;

internalField   nonuniform List<scalar> 
12640
(
1.3494e-08
-1.34851e-08
7.99974e-08
-6.74084e-08
1.89166e-07
-1.09945e-07
3.2101e-07
-1.325e-07
4.60184e-07
-1.39918e-07
5.9688e-07
-1.37308e-07
7.25533e-07
-1.29147e-07
8.43364e-07
-1.1828e-07
9.4969e-07
-1.06688e-07
1.04485e-06
-9.53866e-08
1.12931e-06
-8.45601e-08
1.20372e-06
-7.43821e-08
1.26866e-06
-6.47942e-08
1.32435e-06
-5.54441e-08
1.37092e-06
-4.62965e-08
1.40855e-06
-3.739e-08
1.43724e-06
-2.85308e-08
1.4568e-06
-1.95018e-08
1.46698e-06
-1.02502e-08
1.46759e-06
-8.19223e-10
1.45858e-06
8.68052e-09
1.44e-06
1.81627e-08
1.41202e-06
2.75423e-08
1.37485e-06
3.67502e-08
1.32876e-06
4.57202e-08
1.27414e-06
5.43231e-08
1.21154e-06
6.23877e-08
1.14164e-06
6.9745e-08
1.06525e-06
7.63044e-08
9.83209e-07
8.20055e-08
8.96413e-07
8.68303e-08
8.05759e-07
9.07573e-08
7.12145e-07
9.37868e-08
6.16413e-07
9.59695e-08
5.19306e-07
9.7404e-08
4.2139e-07
9.82674e-08
3.23093e-07
9.87039e-08
2.24718e-07
9.88348e-08
1.26411e-07
9.88207e-08
2.81255e-08
9.88459e-08
-7.02133e-08
9.89377e-08
-1.68659e-07
9.90702e-08
-2.67302e-07
9.92822e-08
-3.6602e-07
9.93605e-08
-4.64596e-07
9.92166e-08
-5.62778e-07
9.88157e-08
-6.60062e-07
9.79079e-08
-7.55776e-07
9.63231e-08
-8.4905e-07
9.38648e-08
-9.38898e-07
9.04193e-08
-1.02439e-06
8.60454e-08
-1.1046e-06
8.0729e-08
-1.17854e-06
7.44561e-08
-1.24544e-06
6.73756e-08
-1.30451e-06
5.95386e-08
-1.35513e-06
5.10558e-08
-1.39678e-06
4.20621e-08
-1.42907e-06
3.26892e-08
-1.45177e-06
2.30739e-08
-1.46468e-06
1.32763e-08
-1.46773e-06
3.40516e-09
-1.46096e-06
-6.41826e-09
-1.4445e-06
-1.6129e-08
-1.41848e-06
-2.57066e-08
-1.38303e-06
-3.51683e-08
-1.33824e-06
-4.45427e-08
-1.28414e-06
-5.38898e-08
-1.22056e-06
-6.34322e-08
-1.14709e-06
-7.33795e-08
-1.06315e-06
-8.39192e-08
-9.68021e-07
-9.5171e-08
-8.61083e-07
-1.07063e-07
-7.42069e-07
-1.19226e-07
-6.11681e-07
-1.30696e-07
-4.72504e-07
-1.39586e-07
-3.30262e-07
-1.42746e-07
-1.95137e-07
-1.35699e-07
-8.27331e-08
-1.12985e-07
-1.33372e-08
-6.98909e-08
-1.36504e-08
6.74817e-08
-8.19018e-08
2.47461e-07
-2.48884e-07
5.07109e-07
-3.71047e-07
8.10984e-07
-4.37508e-07
1.12938e-06
-4.59442e-07
1.4421e-06
-4.50996e-07
1.73689e-06
-4.24715e-07
2.00751e-06
-3.89519e-07
2.25188e-06
-3.51458e-07
2.47014e-06
-3.13824e-07
2.66348e-06
-2.7786e-07
2.8334e-06
-2.44103e-07
2.98115e-06
-2.12198e-07
3.10739e-06
-1.81243e-07
3.21248e-06
-1.50925e-07
3.29675e-06
-1.2128e-07
3.36034e-06
-9.19001e-08
3.40309e-06
-6.22139e-08
3.4246e-06
-3.19052e-08
3.42444e-06
-9.47133e-10
3.40232e-06
3.0411e-08
3.35822e-06
6.18288e-08
3.2924e-06
9.29539e-08
3.20532e-06
1.23471e-07
3.09767e-06
1.53095e-07
2.97037e-06
1.81445e-07
2.82464e-06
2.08039e-07
2.66201e-06
2.32383e-07
2.48432e-06
2.54102e-07
2.29361e-06
2.72926e-07
2.09203e-06
2.88716e-07
1.88178e-06
3.01408e-07
1.66499e-06
3.11078e-07
1.44362e-06
3.17933e-07
1.21936e-06
3.22334e-07
9.93589e-07
3.24799e-07
7.6727e-07
3.2585e-07
5.4101e-07
3.25985e-07
3.15044e-07
3.25732e-07
8.92637e-08
3.25611e-07
-1.36649e-07
3.25861e-07
-3.62998e-07
3.26442e-07
-5.89978e-07
3.27282e-07
-8.17489e-07
3.27875e-07
-1.04512e-06
3.27826e-07
-1.27216e-06
3.26802e-07
-1.49751e-06
3.2417e-07
-1.71966e-06
3.19339e-07
-1.93665e-06
3.11674e-07
-2.14624e-06
3.00783e-07
-2.34611e-06
2.86639e-07
-2.53398e-06
2.69273e-07
-2.70769e-06
2.48785e-07
-2.86519e-06
2.25449e-07
-3.00476e-06
1.99626e-07
-3.12493e-06
1.71708e-07
-3.22449e-06
1.42071e-07
-3.30255e-06
1.1117e-07
-3.35852e-06
7.94377e-08
-3.392e-06
4.71357e-08
-3.40287e-06
1.46509e-08
-3.39125e-06
-1.76858e-08
-3.35741e-06
-4.96433e-08
-3.30165e-06
-8.11689e-08
-3.22423e-06
-1.12335e-07
-3.12526e-06
-1.43322e-07
-3.00465e-06
-1.74391e-07
-2.86184e-06
-2.06214e-07
-2.69579e-06
-2.39504e-07
-2.50502e-06
-2.74875e-07
-2.28791e-06
-3.12597e-07
-2.04314e-06
-3.52284e-07
-1.77047e-06
-3.92493e-07
-1.47206e-06
-4.29821e-07
-1.1543e-06
-4.58164e-07
-8.29882e-07
-4.68044e-07
-5.19714e-07
-4.46709e-07
-2.53867e-07
-3.79525e-07
-6.91602e-08
-2.55033e-07
-8.24349e-08
1.11146e-07
-1.93833e-07
3.74686e-07
-5.13159e-07
7.3443e-07
-7.3155e-07
1.14516e-06
-8.48743e-07
1.57099e-06
-8.85815e-07
1.98742e-06
-8.6778e-07
2.37914e-06
-8.16634e-07
2.73819e-06
-7.48672e-07
3.06188e-06
-6.7513e-07
3.3504e-06
-6.02167e-07
3.60529e-06
-5.32449e-07
3.82873e-06
-4.67126e-07
4.0225e-06
-4.05414e-07
4.18763e-06
-3.45662e-07
4.32464e-06
-2.87114e-07
4.43393e-06
-2.29717e-07
4.51572e-06
-1.72861e-07
4.5699e-06
-1.15648e-07
4.59607e-06
-5.74223e-08
4.59368e-06
1.98652e-09
4.56232e-06
6.22014e-08
4.50189e-06
1.22594e-07
4.41261e-06
1.82463e-07
4.29508e-06
2.41167e-07
4.15018e-06
2.98116e-07
3.97911e-06
3.52602e-07
3.78349e-06
4.03737e-07
3.56536e-06
4.50598e-07
3.32718e-06
4.92362e-07
3.07176e-06
5.28424e-07
2.80214e-06
5.58428e-07
2.52137e-06
5.82273e-07
2.23241e-06
6.00133e-07
1.93801e-06
6.12452e-07
1.64047e-06
6.19984e-07
1.34165e-06
6.23721e-07
1.04285e-06
6.24745e-07
7.44716e-07
6.24185e-07
4.47394e-07
6.23105e-07
1.50547e-07
6.22493e-07
-1.46436e-07
6.22865e-07
-4.44252e-07
6.24259e-07
-7.43382e-07
6.26389e-07
-1.04391e-06
6.28345e-07
-1.34546e-06
6.29293e-07
-1.64712e-06
6.28331e-07
-1.94739e-06
6.24283e-07
-2.24423e-06
6.1597e-07
-2.53498e-06
6.02194e-07
-2.81662e-06
5.82137e-07
-3.08587e-06
5.55583e-07
-3.33957e-06
5.22625e-07
-3.57473e-06
4.83572e-07
-3.78858e-06
4.38909e-07
-3.97871e-06
3.89368e-07
-4.14312e-06
3.35734e-07
-4.28022e-06
2.78803e-07
-4.38878e-06
2.19406e-07
-4.46798e-06
1.58353e-07
-4.51736e-06
9.62793e-08
-4.53678e-06
3.3912e-08
-4.52643e-06
-2.81252e-08
-4.48668e-06
-8.94158e-08
-4.41792e-06
-1.49877e-07
-4.32046e-06
-2.09677e-07
-4.19438e-06
-2.69235e-07
-4.03939e-06
-3.29194e-07
-3.85458e-06
-3.90818e-07
-3.63838e-06
-4.55508e-07
-3.38868e-06
-5.24427e-07
-3.10319e-06
-5.97988e-07
-2.78012e-06
-6.75319e-07
-2.41925e-06
-7.53396e-07
-2.02359e-06
-8.25593e-07
-1.60142e-06
-8.80487e-07
-1.16859e-06
-9.01014e-07
-7.50468e-07
-8.64841e-07
-3.83374e-07
-7.46383e-07
-1.14245e-07
-5.23576e-07
-1.96016e-07
1.37192e-07
-3.31629e-07
4.52296e-07
-8.28614e-07
8.72139e-07
-1.15172e-06
1.3434e-06
-1.32011e-06
1.8268e-06
-1.3694e-06
2.29618e-06
-1.33721e-06
2.73559e-06
-1.25598e-06
3.13689e-06
-1.14993e-06
3.4976e-06
-1.03575e-06
3.81819e-06
-9.22584e-07
4.10062e-06
-8.1466e-07
4.3475e-06
-7.13766e-07
4.56116e-06
-6.1873e-07
4.74298e-06
-5.26935e-07
4.89355e-06
-4.36891e-07
5.01312e-06
-3.48291e-07
5.10177e-06
-2.60409e-07
5.15952e-06
-1.72277e-07
5.18611e-06
-8.29067e-08
5.181e-06
8.11464e-09
5.14376e-06
1.00355e-07
5.07418e-06
1.92963e-07
4.97239e-06
2.84894e-07
4.83894e-06
3.75133e-07
4.67475e-06
4.62713e-07
4.48116e-06
5.46517e-07
4.25997e-06
6.25185e-07
4.01349e-06
6.97289e-07
3.74454e-06
7.61494e-07
3.45636e-06
8.16744e-07
3.15254e-06
8.6235e-07
2.83676e-06
8.98113e-07
2.51262e-06
9.24299e-07
2.18341e-06
9.41666e-07
1.85192e-06
9.51428e-07
1.52031e-06
9.55242e-07
1.1899e-06
9.54999e-07
8.6127e-07
9.526e-07
5.3429e-07
9.49809e-07
2.08272e-07
9.48185e-07
-1.17819e-07
9.48588e-07
-4.45166e-07
9.51201e-07
-7.74762e-07
9.55548e-07
-1.10711e-06
9.60221e-07
-1.44206e-06
9.6372e-07
-1.7786e-06
9.64317e-07
-2.11503e-06
9.60102e-07
-2.4489e-06
9.49191e-07
-2.77714e-06
9.29741e-07
-3.09616e-06
9.00427e-07
-3.40212e-06
8.60773e-07
-3.69119e-06
8.10895e-07
-3.95979e-06
7.51347e-07
-4.20475e-06
6.83027e-07
-4.42325e-06
6.07039e-07
-4.61298e-06
5.24643e-07
-4.77211e-06
4.37152e-07
-4.8993e-06
3.45852e-07
-4.99363e-06
2.51994e-07
-5.05463e-06
1.56675e-07
-5.08223e-06
6.09889e-08
-5.07664e-06
-3.41388e-08
-5.03827e-06
-1.28106e-07
-4.96759e-06
-2.20774e-07
-4.86493e-06
-3.12452e-07
-4.73032e-06
-4.03889e-07
-4.56324e-06
-4.96255e-07
-4.36253e-06
-5.91459e-07
-4.12628e-06
-6.91662e-07
-3.85195e-06
-7.98644e-07
-3.53679e-06
-9.13019e-07
-3.17858e-06
-1.03339e-06
-2.77677e-06
-1.15504e-06
-2.33426e-06
-1.26789e-06
-1.85954e-06
-1.35492e-06
-1.36918e-06
-1.39098e-06
-8.90195e-07
-1.34324e-06
-4.62544e-07
-1.17324e-06
-1.41239e-07
-8.43941e-07
-3.3693e-07
1.49919e-07
-4.81605e-07
4.90866e-07
-1.16921e-06
9.3979e-07
-1.60027e-06
1.43792e-06
-1.81769e-06
1.94398e-06
-1.87508e-06
2.43164e-06
-1.82442e-06
2.88544e-06
-1.70933e-06
3.29803e-06
-1.56222e-06
3.66772e-06
-1.40521e-06
3.99541e-06
-1.25009e-06
4.28334e-06
-1.10251e-06
4.53447e-06
-9.64958e-07
4.7514e-06
-8.35793e-07
4.93585e-06
-7.11409e-07
5.08847e-06
-5.89307e-07
5.2093e-06
-4.68639e-07
5.29829e-06
-3.48728e-07
5.35546e-06
-2.2868e-07
5.38066e-06
-1.07316e-07
5.37349e-06
1.60164e-08
5.33349e-06
1.40986e-07
5.26036e-06
2.66604e-07
5.15409e-06
3.91547e-07
5.01507e-06
5.14404e-07
4.84417e-06
6.33764e-07
4.64271e-06
7.48041e-07
4.41254e-06
8.55352e-07
4.15606e-06
9.53727e-07
3.8762e-06
1.04129e-06
3.57645e-06
1.11641e-06
3.26078e-06
1.17792e-06
2.93338e-06
1.22539e-06
2.59838e-06
1.25917e-06
2.25954e-06
1.28036e-06
1.92004e-06
1.29076e-06
1.5822e-06
1.29289e-06
1.24731e-06
1.28965e-06
9.1571e-07
1.28391e-06
5.86919e-07
1.27827e-06
2.59788e-07
1.27494e-06
-6.72911e-08
1.27526e-06
-3.96091e-07
1.27957e-06
-7.28244e-07
1.28726e-06
-1.06483e-06
1.29636e-06
-1.40605e-06
1.30448e-06
-1.75105e-06
1.30883e-06
-2.09796e-06
1.30652e-06
-2.44408e-06
1.29479e-06
-2.78592e-06
1.27104e-06
-3.11945e-06
1.2334e-06
-3.44035e-06
1.18111e-06
-3.74433e-06
1.11431e-06
-4.0274e-06
1.03385e-06
-4.28606e-06
9.41114e-07
-4.51732e-06
8.37754e-07
-4.71879e-06
7.25586e-07
-4.88859e-06
6.06471e-07
-5.02539e-06
4.82219e-07
-5.12833e-06
3.54556e-07
-5.19698e-06
2.25016e-07
-5.23128e-06
9.50672e-08
-5.23151e-06
-3.40543e-08
-5.19811e-06
-1.61547e-07
-5.13157e-06
-2.87272e-07
-5.03219e-06
-4.1172e-07
-4.89991e-06
-5.35998e-07
-4.73417e-06
-6.61796e-07
-4.53371e-06
-7.91705e-07
-4.29647e-06
-9.28708e-07
-4.01969e-06
-1.07526e-06
-3.70036e-06
-1.23221e-06
-3.33584e-06
-1.39778e-06
-2.92498e-06
-1.56577e-06
-2.46985e-06
-1.72286e-06
-1.97804e-06
-1.84649e-06
-1.46546e-06
-1.90321e-06
-9.59517e-07
-1.84871e-06
-5.02468e-07
-1.62976e-06
-1.54505e-07
-1.19159e-06
-4.91927e-07
1.54202e-07
-6.35604e-07
5.03341e-07
-1.5176e-06
9.59535e-07
-2.05586e-06
1.46129e-06
-2.31871e-06
1.96666e-06
-2.38001e-06
2.45017e-06
-2.30749e-06
2.89759e-06
-2.15637e-06
3.30272e-06
-1.96727e-06
3.66494e-06
-1.76752e-06
3.98574e-06
-1.57105e-06
4.26742e-06
-1.38453e-06
4.5128e-06
-1.211e-06
4.72456e-06
-1.04849e-06
4.90456e-06
-8.92435e-07
5.05356e-06
-7.3918e-07
5.17149e-06
-5.87177e-07
5.25825e-06
-4.35808e-07
5.3137e-06
-2.84249e-07
5.33771e-06
-1.3132e-07
5.33001e-06
2.37605e-08
5.29017e-06
1.80858e-07
5.21779e-06
3.38974e-07
5.11268e-06
4.96585e-07
4.97508e-06
6.51904e-07
4.80567e-06
8.03051e-07
4.60564e-06
9.47937e-07
4.37674e-06
1.08413e-06
4.12129e-06
1.20907e-06
3.84224e-06
1.3203e-06
3.54319e-06
1.41549e-06
3.22841e-06
1.49279e-06
2.90254e-06
1.55142e-06
2.57021e-06
1.5917e-06
2.23571e-06
1.61512e-06
1.90256e-06
1.62422e-06
1.57325e-06
1.62256e-06
1.24905e-06
1.61423e-06
9.30057e-07
1.60329e-06
6.15338e-07
1.59336e-06
3.03146e-07
1.58749e-06
-8.79175e-09
1.58754e-06
-3.22963e-07
1.59409e-06
-6.41695e-07
1.60635e-06
-9.6672e-07
1.62175e-06
-1.29872e-06
1.63686e-06
-1.63715e-06
1.64764e-06
-1.98007e-06
1.64981e-06
-2.32449e-06
1.63958e-06
-2.66651e-06
1.6134e-06
-3.00154e-06
1.56878e-06
-3.32475e-06
1.50464e-06
-3.63142e-06
1.42128e-06
-3.91727e-06
1.31999e-06
-4.17865e-06
1.20278e-06
-4.41256e-06
1.07193e-06
-4.61665e-06
9.29937e-07
-4.78916e-06
7.79245e-07
-4.92891e-06
6.22211e-07
-5.03512e-06
4.61004e-07
-5.10747e-06
2.97593e-07
-5.14598e-06
1.33792e-07
-5.15093e-06
-2.88991e-08
-5.12278e-06
-1.895e-07
-5.06201e-06
-3.4786e-07
-4.96891e-06
-5.04677e-07
-4.84346e-06
-6.61364e-07
-4.68512e-06
-8.20127e-07
-4.49269e-06
-9.8424e-07
-4.26423e-06
-1.15737e-06
-3.99705e-06
-1.34273e-06
-3.68808e-06
-1.54154e-06
-3.33428e-06
-1.75198e-06
-2.93376e-06
-1.96668e-06
-2.48741e-06
-2.16956e-06
-2.00136e-06
-2.33281e-06
-1.49015e-06
-2.41463e-06
-9.80609e-07
-2.35849e-06
-5.15695e-07
-2.0951e-06
-1.58587e-07
-1.54964e-06
-6.51646e-07
1.53876e-07
-7.89139e-07
5.00356e-07
-1.86326e-06
9.49991e-07
-2.50497e-06
1.4406e-06
-2.80869e-06
1.93088e-06
-2.87007e-06
2.39717e-06
-2.77357e-06
2.82696e-06
-2.58601e-06
3.21543e-06
-2.35599e-06
3.56304e-06
-2.11557e-06
3.87173e-06
-1.88018e-06
4.14369e-06
-1.65702e-06
4.38105e-06
-1.44923e-06
4.58615e-06
-1.25489e-06
4.76067e-06
-1.06856e-06
4.90535e-06
-8.85501e-07
5.02021e-06
-7.03499e-07
5.10508e-06
-5.21855e-07
5.15983e-06
-3.39879e-07
5.18433e-06
-1.56455e-07
5.1783e-06
2.92918e-08
5.14134e-06
2.17405e-07
5.07297e-06
4.06967e-07
4.97287e-06
5.9633e-07
4.84105e-06
7.83409e-07
4.67795e-06
9.65902e-07
4.48451e-06
1.14121e-06
4.26221e-06
1.30633e-06
4.01319e-06
1.45808e-06
3.74028e-06
1.59329e-06
3.44715e-06
1.70884e-06
3.13831e-06
1.80198e-06
2.81885e-06
1.87135e-06
2.49398e-06
1.91716e-06
2.16858e-06
1.9412e-06
1.84671e-06
1.94687e-06
1.53115e-06
1.93899e-06
1.22318e-06
1.92313e-06
9.22664e-07
1.9048e-06
6.28136e-07
1.88889e-06
3.37159e-07
1.87947e-06
4.66917e-08
1.87901e-06
-2.46562e-07
1.88833e-06
-5.45639e-07
1.90642e-06
-8.52968e-07
1.93009e-06
-1.16982e-06
1.95475e-06
-1.49597e-06
1.97484e-06
-1.82957e-06
1.98446e-06
-2.16716e-06
1.97823e-06
-2.50424e-06
1.95152e-06
-2.83556e-06
1.90112e-06
-3.15565e-06
1.82574e-06
-3.45932e-06
1.72593e-06
-3.74203e-06
1.60366e-06
-4.00011e-06
1.4618e-06
-4.23073e-06
1.30345e-06
-4.43174e-06
1.13182e-06
-4.60161e-06
9.4994e-07
-4.73934e-06
7.60718e-07
-4.84434e-06
5.66708e-07
-4.91637e-06
3.70255e-07
-4.95557e-06
1.73514e-07
-4.96226e-06
-2.17974e-08
-4.93692e-06
-2.14534e-07
-4.88002e-06
-4.04561e-07
-4.79188e-06
-5.92757e-07
-4.67256e-06
-7.80792e-07
-4.52166e-06
-9.71328e-07
-4.33827e-06
-1.16811e-06
-4.12087e-06
-1.37543e-06
-3.8672e-06
-1.5972e-06
-3.57424e-06
-1.83536e-06
-3.23876e-06
-2.08835e-06
-2.85815e-06
-2.34815e-06
-2.43208e-06
-2.59643e-06
-1.96501e-06
-2.80061e-06
-1.46968e-06
-2.91071e-06
-9.71353e-07
-2.85777e-06
-5.12302e-07
-2.55548e-06
-1.57409e-07
-1.90634e-06
-8.10016e-07
1.51434e-07
-9.40145e-07
4.89404e-07
-2.20057e-06
9.24433e-07
-2.9397e-06
1.39535e-06
-3.27916e-06
1.86266e-06
-3.33745e-06
2.30559e-06
-3.2165e-06
2.71371e-06
-2.99408e-06
3.08372e-06
-2.72635e-06
3.41687e-06
-2.44924e-06
3.7153e-06
-2.17896e-06
3.98065e-06
-1.92256e-06
4.21401e-06
-1.68292e-06
4.41662e-06
-1.45826e-06
4.58956e-06
-1.24268e-06
4.73339e-06
-1.03075e-06
4.84819e-06
-8.19716e-07
4.93393e-06
-6.08843e-07
4.99063e-06
-3.97543e-07
5.01825e-06
-1.84773e-07
5.01657e-06
3.04895e-08
4.98513e-06
2.48493e-07
4.92337e-06
4.68436e-07
4.83082e-06
6.88622e-07
4.70726e-06
9.06752e-07
4.55283e-06
1.12019e-06
4.3681e-06
1.32589e-06
4.15415e-06
1.52031e-06
3.91278e-06
1.69955e-06
3.64661e-06
1.85962e-06
3.35927e-06
1.99643e-06
3.05551e-06
2.10611e-06
2.74091e-06
2.18642e-06
2.42142e-06
2.2372e-06
2.10278e-06
2.26046e-06
1.78982e-06
2.26053e-06
1.48582e-06
2.24377e-06
1.19217e-06
2.21762e-06
9.0843e-07
2.18941e-06
6.32594e-07
2.16563e-06
3.61479e-07
2.15149e-06
9.11794e-08
2.15019e-06
-1.82442e-07
2.1628e-06
-4.63241e-07
2.18804e-06
-7.54344e-07
2.22201e-06
-1.05768e-06
2.2589e-06
-1.3733e-06
2.2913e-06
-1.69934e-06
2.31136e-06
-2.03184e-06
2.31159e-06
-2.36537e-06
2.28592e-06
-2.69378e-06
2.23039e-06
-3.01076e-06
2.14358e-06
-3.31057e-06
2.02658e-06
-3.58845e-06
1.88237e-06
-3.84083e-06
1.71499e-06
-4.06518e-06
1.52861e-06
-4.2598e-06
1.32723e-06
-4.42352e-06
1.11444e-06
-4.55555e-06
8.93495e-07
-4.65545e-06
6.673e-07
-4.72311e-06
4.38536e-07
-4.75874e-06
2.09643e-07
-4.76275e-06
-1.74198e-08
-4.73567e-06
-2.41384e-07
-4.67798e-06
-4.6215e-07
-4.59008e-06
-6.80713e-07
-4.47214e-06
-8.98966e-07
-4.32407e-06
-1.11983e-06
-4.14553e-06
-1.34729e-06
-3.93559e-06
-1.58617e-06
-3.69268e-06
-1.84102e-06
-3.41427e-06
-2.1147e-06
-3.0972e-06
-2.40629e-06
-2.73848e-06
-2.70766e-06
-2.33674e-06
-2.99887e-06
-1.8948e-06
-3.24322e-06
-1.42318e-06
-3.38309e-06
-9.44663e-07
-3.33732e-06
-4.99942e-07
-3.00157e-06
-1.54353e-07
-2.25339e-06
-9.64374e-07
1.4822e-07
-1.08803e-06
4.74668e-07
-2.52666e-06
8.9053e-07
-3.35557e-06
1.33722e-06
-3.72555e-06
1.77828e-06
-3.77884e-06
2.1968e-06
-3.63511e-06
2.58484e-06
-3.38191e-06
2.94046e-06
-3.0822e-06
3.26522e-06
-2.77442e-06
3.56086e-06
-2.4747e-06
3.82803e-06
-2.18937e-06
4.06624e-06
-1.92057e-06
4.27495e-06
-1.66661e-06
4.45403e-06
-1.42177e-06
4.6036e-06
-1.18068e-06
4.72385e-06
-9.40495e-07
4.81509e-06
-7.00605e-07
4.87766e-06
-4.60496e-07
4.91185e-06
-2.19132e-07
4.91754e-06
2.48261e-08
4.89426e-06
2.71939e-07
4.84129e-06
5.2161e-07
4.75797e-06
7.72128e-07
4.64386e-06
1.02101e-06
4.49876e-06
1.26543e-06
4.32279e-06
1.50204e-06
4.1165e-06
1.72681e-06
3.88112e-06
1.93512e-06
3.6189e-06
2.12197e-06
3.33336e-06
2.28207e-06
3.02946e-06
2.41012e-06
2.71338e-06
2.50263e-06
2.39208e-06
2.55864e-06
2.07251e-06
2.58016e-06
1.76064e-06
2.57253e-06
1.46044e-06
2.54411e-06
1.1735e-06
2.50469e-06
8.99141e-07
2.46393e-06
6.34745e-07
2.43017e-06
3.76358e-07
2.41002e-06
1.19203e-07
2.40746e-06
-1.41796e-07
2.42387e-06
-4.11352e-07
2.45761e-06
-6.93391e-07
2.50401e-06
-9.90432e-07
2.55588e-06
-1.30289e-06
2.60371e-06
-1.62862e-06
2.63704e-06
-1.96295e-06
2.6459e-06
-2.29924e-06
2.62221e-06
-2.62998e-06
2.56115e-06
-2.94783e-06
2.46144e-06
-3.24636e-06
2.32515e-06
-3.52065e-06
2.1567e-06
-3.76736e-06
1.96175e-06
-3.98452e-06
1.74585e-06
-4.17113e-06
1.51395e-06
-4.32653e-06
1.27e-06
-4.45015e-06
1.0173e-06
-4.54161e-06
7.58977e-07
-4.60086e-06
4.98014e-07
-4.62818e-06
2.37142e-07
-4.62409e-06
-2.14178e-08
-4.58922e-06
-2.7626e-07
-4.52412e-06
-5.27348e-07
-4.42927e-06
-7.75761e-07
-4.30499e-06
-1.02353e-06
-4.15164e-06
-1.27355e-06
-3.96949e-06
-1.52991e-06
-3.75859e-06
-1.79762e-06
-3.51835e-06
-2.0818e-06
-3.24725e-06
-2.38626e-06
-2.94277e-06
-2.71106e-06
-2.60204e-06
-3.04851e-06
-2.22317e-06
-3.37777e-06
-1.80741e-06
-3.65901e-06
-1.36277e-06
-3.82788e-06
-9.08941e-07
-3.79153e-06
-4.84036e-07
-3.42692e-06
-1.51498e-07
-2.58596e-06
-1.11494e-06
1.44596e-07
-1.23251e-06
4.57321e-07
-2.83929e-06
8.5091e-07
-3.74937e-06
1.27125e-06
-4.14552e-06
1.68597e-06
-4.19399e-06
2.08296e-06
-4.03209e-06
2.45701e-06
-3.75542e-06
2.8073e-06
-3.4324e-06
3.1348e-06
-3.10221e-06
3.43999e-06
-2.77995e-06
3.72162e-06
-2.4705e-06
3.97709e-06
-2.17513e-06
4.20351e-06
-1.89201e-06
4.39903e-06
-1.61645e-06
4.56304e-06
-1.34411e-06
4.6959e-06
-1.07298e-06
4.79846e-06
-8.02912e-07
4.87177e-06
-5.33541e-07
4.91657e-06
-2.63559e-07
4.93299e-06
8.93205e-09
4.92049e-06
2.85071e-07
4.87816e-06
5.64609e-07
4.80511e-06
8.45785e-07
4.70072e-06
1.12588e-06
4.56451e-06
1.40199e-06
4.3961e-06
1.67073e-06
4.19528e-06
1.92788e-06
3.96246e-06
2.16813e-06
3.69921e-06
2.38527e-06
3.40887e-06
2.5723e-06
3.09659e-06
2.72218e-06
2.76929e-06
2.82963e-06
2.4353e-06
2.89227e-06
2.10325e-06
2.91179e-06
1.78058e-06
2.89472e-06
1.4723e-06
2.85187e-06
1.18034e-06
2.7961e-06
9.03758e-07
2.73995e-06
6.39268e-07
2.6941e-06
3.82133e-07
2.6666e-06
1.26725e-07
2.66232e-06
-1.32913e-07
2.68293e-06
-4.02376e-07
2.72646e-06
-6.86477e-07
2.78744e-06
-9.88399e-07
2.85707e-06
-1.30888e-06
2.92341e-06
-1.64543e-06
2.97282e-06
-1.99228e-06
2.99197e-06
-2.34114e-06
2.97031e-06
-2.68268e-06
2.90196e-06
-3.00813e-06
2.78617e-06
-3.31026e-06
2.62658e-06
-3.58402e-06
2.42979e-06
-3.82657e-06
2.20365e-06
-4.03686e-06
1.95552e-06
-4.21488e-06
1.6914e-06
-4.36071e-06
1.41533e-06
-4.47397e-06
1.13017e-06
-4.55424e-06
8.38952e-07
-4.60128e-06
5.44872e-07
-4.61541e-06
2.51133e-07
-4.5973e-06
-3.96859e-08
-4.54769e-06
-3.26066e-07
-4.46728e-06
-6.08005e-07
-4.35658e-06
-8.86732e-07
-4.21612e-06
-1.16424e-06
-4.0466e-06
-1.4433e-06
-3.84909e-06
-1.72759e-06
-3.62485e-06
-2.02196e-06
-3.37482e-06
-2.33181e-06
-3.09905e-06
-2.66182e-06
-2.79649e-06
-3.01319e-06
-2.46521e-06
-3.37917e-06
-2.10338e-06
-3.73893e-06
-1.7112e-06
-4.0506e-06
-1.29406e-06
-4.24456e-06
-8.68013e-07
-4.21717e-06
-4.66906e-07
-3.82732e-06
-1.48632e-07
-2.903e-06
-1.26257e-06
1.39971e-07
-1.37254e-06
4.35998e-07
-3.13518e-06
8.04142e-07
-4.1177e-06
1.19725e-06
-4.5378e-06
1.58807e-06
-4.58516e-06
1.96964e-06
-4.41336e-06
2.33965e-06
-4.12442e-06
2.69777e-06
-3.78999e-06
3.04349e-06
-3.44807e-06
3.3747e-06
-3.11139e-06
3.68705e-06
-2.78274e-06
3.97487e-06
-2.46247e-06
4.23251e-06
-2.149e-06
4.45618e-06
-1.83946e-06
4.64435e-06
-1.53173e-06
4.79761e-06
-1.22582e-06
4.91782e-06
-9.22803e-07
5.00711e-06
-6.22536e-07
5.06692e-06
-3.23045e-07
5.09765e-06
-2.13599e-08
5.09857e-06
2.84698e-07
5.06843e-06
5.95358e-07
5.00616e-06
9.08645e-07
4.91111e-06
1.2214e-06
4.78269e-06
1.53068e-06
4.61996e-06
1.83359e-06
4.42169e-06
2.12624e-06
4.18713e-06
2.40274e-06
3.91683e-06
2.6555e-06
3.61361e-06
2.87527e-06
3.28277e-06
3.05261e-06
2.93223e-06
3.17967e-06
2.57204e-06
3.25189e-06
2.21308e-06
3.27014e-06
1.86493e-06
3.24222e-06
1.53395e-06
3.18217e-06
1.22246e-06
3.1069e-06
9.29082e-07
3.03263e-06
6.49764e-07
2.97272e-06
3.7902e-07
2.93669e-06
1.10564e-07
2.93018e-06
-1.62226e-07
2.95517e-06
-4.45727e-07
3.00943e-06
-7.45651e-07
3.08683e-06
-1.06607e-06
3.17691e-06
-1.40822e-06
3.26492e-06
-1.76927e-06
3.33319e-06
-2.14194e-06
3.36393e-06
-2.51556e-06
3.34321e-06
-2.87844e-06
3.26413e-06
-3.21989e-06
3.12692e-06
-3.53167e-06
2.93769e-06
-3.80873e-06
2.70621e-06
-4.04916e-06
2.44344e-06
-4.25333e-06
2.15906e-06
-4.4227e-06
1.86014e-06
-4.55831e-06
1.55036e-06
-4.66005e-06
1.23142e-06
-4.72701e-06
9.05519e-07
-4.75847e-06
5.76089e-07
-4.75465e-06
2.47171e-07
-4.71645e-06
-7.80023e-08
-4.64482e-06
-3.97821e-07
-4.5406e-06
-7.124e-07
-4.40431e-06
-1.02323e-06
-4.23648e-06
-1.33226e-06
-4.03808e-06
-1.64179e-06
-3.81102e-06
-1.95458e-06
-3.55806e-06
-2.27466e-06
-3.28221e-06
-2.60722e-06
-2.98594e-06
-2.95748e-06
-2.67055e-06
-3.32781e-06
-2.33608e-06
-3.71277e-06
-1.98185e-06
-4.09236e-06
-1.60773e-06
-4.42411e-06
-1.21683e-06
-4.635e-06
-8.2086e-07
-4.61252e-06
-4.46781e-07
-4.20029e-06
-1.43972e-07
-3.2046e-06
-1.40634e-06
1.32916e-07
-1.50552e-06
4.07308e-07
-3.40909e-06
7.45644e-07
-4.45601e-06
1.11107e-06
-4.90163e-06
1.48267e-06
-4.95701e-06
1.85801e-06
-4.78808e-06
2.2372e-06
-4.50217e-06
2.61959e-06
-4.17139e-06
3.00227e-06
-3.83057e-06
3.37913e-06
-3.48842e-06
3.7413e-06
-3.14504e-06
4.07868e-06
-2.79987e-06
4.38236e-06
-2.45263e-06
4.64641e-06
-2.10349e-06
4.86854e-06
-1.7539e-06
5.04982e-06
-1.40721e-06
5.19371e-06
-1.06685e-06
5.30406e-06
-7.33068e-07
5.38338e-06
-4.02558e-07
5.43214e-06
-7.02646e-08
5.44913e-06
2.67667e-07
5.43247e-06
6.12058e-07
5.38096e-06
9.60271e-07
5.2943e-06
1.30816e-06
5.17213e-06
1.65279e-06
5.01297e-06
1.99252e-06
4.81428e-06
2.32465e-06
4.57359e-06
2.64319e-06
4.29002e-06
2.93882e-06
3.96545e-06
3.1995e-06
3.60518e-06
3.41244e-06
3.21814e-06
3.56621e-06
2.81662e-06
3.6529e-06
2.41459e-06
3.67166e-06
2.02467e-06
3.63167e-06
1.65491e-06
3.55147e-06
1.30771e-06
3.45365e-06
9.80913e-07
3.35897e-06
6.69597e-07
3.28359e-06
3.67657e-07
3.2382e-06
6.85329e-08
3.22894e-06
-2.34589e-07
3.25801e-06
-5.48484e-07
3.32313e-06
-8.797e-07
3.41791e-06
-1.23356e-06
3.53066e-06
-1.61234e-06
3.64356e-06
-2.01305e-06
3.73373e-06
-2.42639e-06
3.77709e-06
-2.83843e-06
3.75506e-06
-3.23414e-06
3.65966e-06
-3.60043e-06
3.49306e-06
-3.92798e-06
3.26513e-06
-4.21201e-06
2.99019e-06
-4.45207e-06
2.68347e-06
-4.65074e-06
2.35771e-06
-4.81165e-06
2.02101e-06
-4.93712e-06
1.67575e-06
-5.02696e-06
1.32117e-06
-5.07913e-06
9.57636e-07
-5.092e-06
5.88991e-07
-5.06562e-06
2.20925e-07
-5.0013e-06
-1.42139e-07
-4.90054e-06
-4.98431e-07
-4.76422e-06
-8.48632e-07
-4.59262e-06
-1.19484e-06
-4.38587e-06
-1.53906e-06
-4.14502e-06
-1.88259e-06
-3.87279e-06
-2.22657e-06
-3.57372e-06
-2.57326e-06
-3.25352e-06
-2.92677e-06
-2.9179e-06
-3.29237e-06
-2.57149e-06
-3.6735e-06
-2.21761e-06
-4.06601e-06
-1.8581e-06
-4.45143e-06
-1.49374e-06
-4.7883e-06
-1.12608e-06
-5.0026e-06
-7.61742e-07
-4.97649e-06
-4.18387e-07
-4.54293e-06
-1.36263e-07
-3.48651e-06
-1.54292e-06
1.21121e-07
-1.62648e-06
3.6579e-07
-3.65278e-06
6.68133e-07
-4.75829e-06
1.00562e-06
-5.23675e-06
1.36484e-06
-5.31669e-06
1.74629e-06
-5.16899e-06
2.15096e-06
-4.90541e-06
2.57662e-06
-4.59595e-06
3.01699e-06
-4.27056e-06
3.4609e-06
-3.93227e-06
3.89328e-06
-3.57737e-06
4.29845e-06
-3.20495e-06
4.66338e-06
-2.8175e-06
4.97996e-06
-2.4201e-06
5.24523e-06
-2.0193e-06
5.46121e-06
-1.62341e-06
5.63387e-06
-1.23979e-06
5.76987e-06
-8.69366e-07
5.87312e-06
-5.06148e-07
5.94386e-06
-1.41372e-07
5.97965e-06
2.31518e-07
5.97749e-06
6.13916e-07
5.93603e-06
1.00153e-06
5.85604e-06
1.38805e-06
5.73826e-06
1.77042e-06
5.58079e-06
2.14967e-06
5.37918e-06
2.52585e-06
5.12859e-06
2.8934e-06
4.8262e-06
3.24093e-06
4.47267e-06
3.55277e-06
4.07279e-06
3.81204e-06
3.63628e-06
4.00241e-06
3.17803e-06
4.11082e-06
2.71634e-06
4.13304e-06
2.26802e-06
4.07971e-06
1.84305e-06
3.97617e-06
1.44337e-06
3.85306e-06
1.06527e-06
3.73676e-06
7.02749e-07
3.64574e-06
3.49499e-07
3.59103e-06
-6.21181e-10
3.5786e-06
-3.53686e-07
3.61061e-06
-7.16146e-07
3.68517e-06
-1.09512e-06
3.79654e-06
-1.49769e-06
3.93295e-06
-1.92814e-06
4.07376e-06
-2.38393e-06
4.18929e-06
-2.85324e-06
4.24619e-06
-3.31749e-06
4.21917e-06
-3.75722e-06
4.09929e-06
-4.15651e-06
3.89234e-06
-4.50505e-06
3.61376e-06
-4.79876e-06
3.28411e-06
-5.03931e-06
2.92435e-06
-5.23252e-06
2.5513e-06
-5.38519e-06
2.17407e-06
-5.5013e-06
1.79222e-06
-5.57986e-06
1.39999e-06
-5.61658e-06
9.94556e-07
-5.60818e-06
5.80801e-07
-5.55474e-06
1.67741e-07
-5.45854e-06
-2.38068e-07
-5.32193e-06
-6.34774e-07
-5.14594e-06
-1.02441e-06
-4.93015e-06
-1.41053e-06
-4.67373e-06
-1.79547e-06
-4.37723e-06
-2.17905e-06
-4.04404e-06
-2.55954e-06
-3.68081e-06
-2.93601e-06
-3.29653e-06
-3.31039e-06
-2.90084e-06
-3.68742e-06
-2.50272e-06
-4.07114e-06
-2.11e-06
-4.45844e-06
-1.72883e-06
-4.8325e-06
-1.36274e-06
-5.1545e-06
-1.01289e-06
-5.35253e-06
-6.80727e-07
-5.30833e-06
-3.74419e-07
-4.84893e-06
-1.24333e-07
-3.73695e-06
-1.667e-06
1.00878e-07
-1.72695e-06
3.02987e-07
-3.85365e-06
5.61213e-07
-5.01708e-06
8.71774e-07
-5.54458e-06
1.2284e-06
-5.67452e-06
1.63201e-06
-5.57294e-06
2.08105e-06
-5.35383e-06
2.5703e-06
-5.08489e-06
3.08947e-06
-4.78994e-06
3.62154e-06
-4.46469e-06
4.14375e-06
-4.09978e-06
4.63343e-06
-3.69468e-06
5.07335e-06
-3.25739e-06
5.45329e-06
-2.80002e-06
5.7696e-06
-2.33566e-06
6.02552e-06
-1.87946e-06
6.23085e-06
-1.44527e-06
6.39648e-06
-1.0351e-06
6.52818e-06
-6.37913e-07
6.62532e-06
-2.38571e-07
6.68303e-06
1.73698e-07
6.69613e-06
6.00678e-07
6.66313e-06
1.03447e-06
6.58713e-06
1.46415e-06
6.47153e-06
1.88622e-06
6.31427e-06
2.30705e-06
6.10824e-06
2.7319e-06
5.8454e-06
3.15627e-06
5.52052e-06
3.56597e-06
5.13276e-06
3.94076e-06
4.68572e-06
4.25934e-06
4.18892e-06
4.49948e-06
3.65993e-06
4.64e-06
3.12293e-06
4.67019e-06
2.60073e-06
4.60205e-06
2.10535e-06
4.47163e-06
1.63694e-06
4.32155e-06
1.18896e-06
4.18477e-06
7.53986e-07
4.08066e-06
3.26426e-07
4.01846e-06
-9.80349e-08
4.0028e-06
-5.23334e-07
4.03554e-06
-9.54185e-07
4.11559e-06
-1.39762e-06
4.23954e-06
-1.86315e-06
4.39806e-06
-2.35876e-06
4.56899e-06
-2.88377e-06
4.71394e-06
-3.42318e-06
4.78531e-06
-3.95179e-06
4.74756e-06
-4.44462e-06
4.59199e-06
-4.88281e-06
4.33046e-06
-5.25535e-06
3.98632e-06
-5.55945e-06
3.58831e-06
-5.79972e-06
3.16486e-06
-5.98625e-06
2.7382e-06
-6.13053e-06
2.31877e-06
-6.23886e-06
1.901e-06
-6.30829e-06
1.4698e-06
-6.33009e-06
1.01661e-06
-6.29822e-06
5.49098e-07
-6.2133e-06
8.2978e-08
-6.07969e-06
-3.71548e-07
-5.9014e-06
-8.12956e-07
-5.67962e-06
-1.24611e-06
-5.41263e-06
-1.67755e-06
-5.09768e-06
-2.11059e-06
-4.73403e-06
-2.54291e-06
-4.32551e-06
-2.96816e-06
-3.88114e-06
-3.38028e-06
-3.41369e-06
-3.77757e-06
-2.93733e-06
-4.16366e-06
-2.46581e-06
-4.54276e-06
-2.01244e-06
-4.91209e-06
-1.58975e-06
-5.25547e-06
-1.20641e-06
-5.53808e-06
-8.65122e-07
-5.69389e-06
-5.64406e-07
-5.60871e-06
-3.05609e-07
-5.10773e-06
-1.03635e-07
-3.93922e-06
-1.77002e-06
6.59034e-08
-1.79244e-06
2.06164e-07
-3.99284e-06
4.1128e-07
-5.22416e-06
6.99806e-07
-5.83087e-06
1.0691e-06
-6.04533e-06
1.51508e-06
-6.02001e-06
2.02831e-06
-5.86719e-06
2.59974e-06
-5.65666e-06
3.2161e-06
-5.40706e-06
3.85404e-06
-5.10348e-06
4.48133e-06
-4.72779e-06
5.0675e-06
-4.28144e-06
5.59196e-06
-3.78236e-06
6.04334e-06
-3.25188e-06
6.41693e-06
-2.70973e-06
6.71638e-06
-2.17949e-06
6.95708e-06
-1.68651e-06
7.15611e-06
-1.23458e-06
7.32152e-06
-8.036e-07
7.45055e-06
-3.67698e-07
7.53414e-06
9.0033e-08
7.56328e-06
5.71382e-07
7.53604e-06
1.06155e-06
7.46002e-06
1.54025e-06
7.34407e-06
2.00246e-06
7.18637e-06
2.46509e-06
6.97582e-06
2.94276e-06
6.70036e-06
3.43203e-06
6.35231e-06
3.91443e-06
5.92933e-06
4.36423e-06
5.43278e-06
4.75644e-06
4.86993e-06
5.06288e-06
4.25993e-06
5.25047e-06
3.63493e-06
5.29555e-06
3.02666e-06
5.2107e-06
2.44885e-06
5.04978e-06
1.89722e-06
4.87359e-06
1.36036e-06
4.72213e-06
8.29297e-07
4.61226e-06
3.00822e-07
4.54754e-06
-2.25245e-07
4.52946e-06
-7.48598e-07
4.5594e-06
-1.26978e-06
4.63721e-06
-1.79415e-06
4.76429e-06
-2.33431e-06
4.93861e-06
-2.90472e-06
5.1398e-06
-3.5094e-06
5.31906e-06
-4.12947e-06
5.40586e-06
-4.73008e-06
5.34869e-06
-5.27989e-06
5.14234e-06
-5.75801e-06
4.80907e-06
-6.1535e-06
4.38223e-06
-6.4655e-06
3.9006e-06
-6.70223e-06
3.40189e-06
-6.87896e-06
2.91531e-06
-7.01394e-06
2.45415e-06
-7.11722e-06
2.00476e-06
-7.18184e-06
1.53485e-06
-7.1908e-06
1.02588e-06
-7.13377e-06
4.92276e-07
-7.01295e-06
-3.77212e-08
-6.83682e-06