/*--------------------------------*- C++ -*----------------------------------*\
| =========                 |                                                 |
| \\      /  F ield         | OpenFOAM: The Open Source CFD Toolbox           |
|  \\    /   O peration     | Version:  2412                                  |
|   \\  /    A nd           | Website:  www.openfoam.com                      |
|    \\/     M anipulation  |                                                 |
\*---------------------------------------------------------------------------*/
FoamFile
{
    version     2.0;
    format      ascii;
    arch        "LSB;label=32;scalar=64";
    class       volScalarField;
    location    "4";
    object      p_rgh;
}
// * * * * * * * * * * * * * * * * * * * * * * * * * * * * * * * * * * * * * //

dimensions      [1 -1 -2 0 0 0 0];

internalField   nonuniform List<scalar> 
6400
(
24615.9
23944
23190.9
23060
24062
25923.9
27520.1
27576.4
25612.8
22464.3
19939.7
19745.5
22335.6
26464.6
29807.1
30323.3
27537.9
22913.4
19046.5
18152.8
20753.6
25367.3
29384.8
30594.8
28437.2
24257.8
20454.2
19067.8
20667
24142.4
27461.3
28871.1
27829.4
25167.1
22477.7
21165.6
21723.3
23600.4
25648.6
26810.8
26646.4
25444.9
23950.7
22918.8
22760.8
23427.1
24516.3
25502.6
25959
25704.5
24857.7
23794.9
23016.8
22941.2
23686.6
24954.3
26112
26488.2
25756.6
24189.6
22594.1
21906.4
22644
24535.4
26589.7
27616.6
26925
24781.2
22322.6
20938.6
21465
23675.8
26391.7
28151
28038.6
26155.5
23435.6
20991.1
19511.4
18897
25110.5
25163.5
24426.4
23252.9
22501.7
22999.1
24754.5
26814.4
27800.5
26830.1
24207.6
21376.4
20089.5
21296.7
24469.5
27833.3
29403.7
28196.1
24851.7
21278.7
19522.7
20557.5
23731.8
27191.2
28992.8
28225.3
25473.1
22389.5
20686.4
21168.1
23363.6
25912.8
27412.3
27190.7
25584.4
23622.6
22376.2
22381.4
23442
24855.7
25864.2
26045.9
25454.9
24495.5
23659.7
23294.5
23493.4
24116.2
24878.4
25457.6
25597.5
25203.5
24408.9
23564
23109.1
23354.4
24271.7
25437.5
26208.1
26071.5
24983.6
23469.1
22379
22409.7
23656.7
25493.7
26887.9
26993
25671.5
23614.6
21963.7
21651.4
22861.5
24941.9
26810.1
27561.7
26871.3
24981.2
22572.1
19758.1
24569.5
25772
25818.7
24580.5
22650.5
21404.5
21971.8
24377.4
27350.9
29019.6
28109.1
24869.4
21066.5
18974.2
19969.6
23622.1
27881.4
30277.8
29403.9
25763
21462.9
18953.3
19588
22878.1
26854.8
29274.8
28914.7
26191.2
22795.4
20633.9
20745.1
22816.3
25508.9
27317.2
27408.3
25977.6
23991.3
22551.9
22298.6
23160.3
24526.2
25656.3
26064.8
25688.3
24815.7
23886.9
23292.9
23251.5
23763.7
24622.3
25466.1
25893.8
25636.1
24725.8
23556.4
22744
22813.4
23861.9
25417.1
26626.6
26723
25510.2
23561.8
21960.4
21688.6
23018.6
25287.9
27233.2
27713.4
26394.3
23970
21774.4
21015.4
22100.4
24446
26833.1
28022.1
27301.1
24966.4
21434.6
23353.7
25444.9
26709.4
26501.9
24543.6
21889.1
20318.8
21178.4
24355.7
28140.4
30180.6
28981.3
24965.5
20356.5
17889.4
19132.9
23479.3
28457.2
31193.8
30128.1
25925.2
21044.9
18257.3
19026.4
22729.1
27128.9
29753.1
29309
26314.7
22643.7
20347.1
20499.4
22721.1
25568.9
27461.5
27551.3
26064.8
24008.4
22509
22213.5
23056.9
24441
25635.2
26139.4
25843.7
24979.1
23956.3
23199.3
23017
23510.1
24511.2
25598.2
26229.6
25996.9
24887.9
23389.7
22308.7
22345
23642.3
25602.4
27139.6
27283.1
25792.5
23391.2
21422.3
21083.2
22686.3
25410
27730.9
28301.9
26754
23928.4
21394.3
20548.5
21833.9
24509.1
27044.3
27921.7
26692.1
23761.4
22279.4
24117.3
26199.7
27644.4
27168.4
24603.4
21302
19408.2
20453.5
24202.2
28597.7
30943.4
29607
25141.9
20062.5
17364.4
18698.6
23341.8
28612.5
31476.9
30350
25993
20992.4
18182.3
18999.3
22743.5
27125.6
29687.2
29201
26241.3
22677.8
20493.7
20680.2
22822.8
25521.5
27290.6
27364.9
25981.9
24078.6
22678.9
22364
23086
24335.2
25478.7
26054.4
25901.9
25146.5
24111.9
23217.9
22861.3
23267.1
24343.4
25637.2
26481.4
26324.2
25088.2
23322.6
21992
21953.8
23407.2
25668.8
27476.3
27699.4
26053.7
23358.8
21130.8
20709.6
22435.6
25394.7
27918.6
28556.4
26935.1
23982.8
21379.6
20572.3
21931.6
24536
26710.3
27215
26034.5
22369.9
22558.6
24239.1
26805
28567.7
27919.8
24759.7
20781.1
18513.4
19674.2
23923.5
28901.5
31603.2
30251.7
25471.9
19988.5
17006.9
18277.2
23042.8
28513.9
31554.9
30533.6
26213.7
21197.7
18323.8
19026.6
22625.3
26885.3
29418.3
29035.3
26277.7
22915
20815.6
20913.4
22836.7
25309.7
26978.9
27137.8
25970.2
24279.2
22958.1
22543.3
23056.3
24125.9
25237.5
25949.4
26010.1
25399.8
24339.1
23256.3
22666.9
22951.3
24108.1
25647.4
26754.8
26711.4
25358.3
23304.4
21682.1
21523.2
23100.9
25660.4
27767.2
28123.9
26381.2
23427.9
20932.4
20374
22141.7
25265.6
27966.4
28705.8
27098
24126.6
21534.4
20763.6
22095.9
24519.8
26478.9
27387.3
24005.4
21907.2
21908.6
24100.8
27408.5
29523.6
28668.4
24904.6
20292.7
17706.2
18994.8
23693.1
29162.9
32144.7
30765
25730.9
19943.7
16761.1
17986.5
22822.4
28404.5
31547.6
30611.2
26365.7
21401
18518.8
19124.3
22555.3
26653.3
29126.3
28837.9
26293.1
23146.6
21139.6
21146.5
22846.1
25095.7
26676.4
26933
25984.2
24492.8
23226.2
22689.7
22988.2
23894.4
25004.3
25879.7
26161.7
25680.7
24563.5
23264.7
22434.3
22611.1
23874
25679.1
27052.9
27110.1
25622.9
23274.1
21369
21105.4
22814.4
25659.2
28037.7
28503.6
26664.2
23485.9
20776
20123.2
21934.7
25171.7
27961.5
28720.7
27098.7
24157.8
21686.9
21092.2
22554.9
24931
27285.5
26472.6
22862.8
20793.5
21088
24060.2
28024.3
30386.7
29310.5
25034.6
19927
17113.1
18507.3
23517.1
29297.1
32436.2
31038.4
25891.9
19997.1
16754.5
17943.9
22726.9
28237.7
31343.8
30467.7
26389.4
21624.9
18854.3
19394.7
22598.1
26427.3
28749.7
28524.4
26224.5
23360.2
21504.3
21444.4
22907.2
24900.6
26362.9
26703.4
25975.9
24694.3
23491
22837
22922.9
23668.5
24779.7
25819
26317.3
25957.5
24778.2
23266.3
22205.7
22285.7
23654.4
25709.2
27325.8
27469.8
25860.1
23254.6
21111.8
20765.2
22581.6
25645.8
28221.1
28758.4
26852.8
23542.7
20730.2
20050.9
21883.8
25119.1
27840.3
28500.1
26854
24068.9
21951.3
21782.2
23383.4
25913.2
28272.4
25078.6
21875.2
19798.3
20522.6
24067.6
28511.5
31056.2
29817.1
25177.9
19733.3
16767.1
18205.8
23356.6
29260.6
32462.9
31100
26010.9
20196.8
16994.7
18109
22689.9
27961.3
30937.1
30146.9
26352.8
21922.1
19338.7
19799
22691.8
26157.9
28276.7
28123.8
26121.9
23597.9
21923.3
21789.3
22984.5
24691.8
26023.6
26455.7
25965.7
24905.4
23766
22987.6
22854.1
23437.3
24552.3
25757.6
26471.4
26230.8
24992.1
23276.6
21997.2
21982.9
23442.7
25718.2
27549.9
27776.3
26074.8
23268.3
20938.6
20519.7
22398.1
25596.5
28288.6
28871.3
26951.9
23622.1
20822.2
20169.2
21974.9
25073.7
27574.1
28057.1
26451
24019
22461.2
22603.6
24099.1
28075.1
27253.5
24725.4
21307.7
19144.8
20067.7
24007.4
28814.1
31502.1
30168.9
25323.7
19707.1
16666.4
18092
23222.4
29078.6
32259
30977.4
26089.6
20510.3
17426.4
18431.1
22695.7
27606.1
30391.3
29711.2
26282.7
22269
19911.3
20273.4
22804.2
25859.8
27758
27692.4
26016.9
23852.8
22359.7
22137.7
23052.2
24471.8
25683.2
26219.1
25970.7
25124.3
24036.2
23125.3
22774.7
23205.1
24331.9
25701.7
26621.4
26491.6
25196.7
23295
21817.8
21716.5
23248.8
25705.2
27713.9
28013.5
26254.8
23312.9
20857.2
20382.6
22276.9
25519.3
28241
28837.5
26953
23712.5
21036.7
20458.5
22189.5
25034.6
27207.3
27501.5
26032.5
24047.4
22881.2
22808.2
25700.4
27950.3
27658.4
24870.4
20975.8
18622.6
19680.7
23906.4
28940
31701.3
30333.8
25448.9
19840.4
16815.7
18180.3
23136.6
28776.2
31844.6
30674.6
26109.9
20902.1
18012.4
18891.6
22755.6
27210.1
29751
29188
26173.9
22630.8
20527.4
20788.4
22936.2
25561.6
27232
27256.3
25910.2
24102.5
22783.4
22470.2
23111.1
24258.4
25363.3
26005.2
25986.2
25334.9
24285.9
23245.9
22694.8
22989.4
24131.2
25650.4
26751.9
26719
25378.9
23324.6
21686.5
21510.9
23088.8
25669
27799.3
28156
26380.3
23384.1
20879.7
20375.6
22238.9
25425.4
28077.9
28647.5
26842.3
23798.3
21354.7
20896.5
22513.9
25022.7
26811.9
26915.4
25567.7
23893.6
22580.9
22388.8
26601.2
28813.7
28311
24948.2
20699.9
18286.5
19460.2
23811.3
28886.5
31633.4
30294.7
25544.2
20126.4
17207.5
18465.5
23102.4
28368.4
31241.8
30209.3
26073.5
21354
18723.4
19466.2
22864.6
26790.5
29046
28601.8
26032.3
22992.6
21161.9
21323.7
23083.2
25275.2
26717.6
26829.2
25802.6
24337.1
23181.9
22780.7
23165
24061.6
25071.9
25813.2
26002.4
25524.9
24509.4
23355.4
22629.7
22806
23956.2
25594.8
26843.3
26893.4
25530.2
23374.1
21624.3
21388.2
22974
25604.2
27788
28182.9
26438.8
23482.1
21016.7
20512.1
22293.9
25319.3
27801.2
28304.6
26623.4
23875.3
21756.9
21453.6
22927.9
25042.5
26390.1
26232.1
24965.3
23291.9
20089.8
23967.4
27437.7
29471.5
28548.2
24925.6
20613.6
18246.6
19450.3
23728.3
28653.9
31305.5
30059.5
25606
20544.1
17809.7
18920.7
23115.1
27878.9
30492.1
29618.7
25991.7
21845
19517.4
20115.3
23007.4
26363.1
28311.9
27987.7
25873.2
23344.5
21788.1
21853
23233.4
25006.7
26231.6
26426.9
25700.4
24551.7
23545.7
23062.7
23214.8
23887.2
24813.7
25641.9
26011.8
25685.6
24703.1
23459.5
22592.3
22667.6
23811.3
25527.5
26879.7
26999.1
25644.3
23449.4
21646
21363.5
22912.1
25508.8
27671.3
28084.6
26423.9
23604.3
21266.6
20789.4
22439.7
25205
27426.1
27833.1
26318.1
23947.5
22220.5
22085.6
23377.7
25029.5
25871.7
25520.2
24346.3
20203.7
21678.5
24434.1
27700.9
29544.2
28540.5
24961.6
20772.5
18498.7
19639.6
23665.1
28269.7
30749.8
29645.8
25624.4
21056.9
18575.6
19513.5
23175.6
27343
29646.9
28942.3
25871.2
22345.7
20346.6
20799.6
23173.6
25949.5
27587.9
27378.8
25706.9
23671.6
22378.1
22352.6
23379.7
24766.3
25792.4
26063.1
25605.1
24737.7
23863.7
23311.2
23264.7
23745.1
24596.6
25490.5
26004.7
25804.1
24859.8
23561.7
22595.7
22589.6
23705.6
25445.8
26848.5
27020.6
25710.5
23549.6
21759.2
21448.5
22913.4
25388.6
27450.7
27859.6
26331
23741.8
21615.4
21192
22667.5
25089.7
26979.9
27273.1
25960.6
24021.3
22710.7
22718.5
23771.4
24933
25405.6
25122.2
22643.1
21137.2
21749.8
24297.8
27531.7
29353.8
28412.1
25035.7
21121.2
19006.3
20022.4
23641.9
27768.9
30000.3
29070.6
25588.7
21629.5
19462.2
20216.1
23286.4
26792.7
28750.3
28212
25714.4
22829.7
21172
21490.1
23358.8
25569.3
26903.4
26796.7
25536.4
23959.7
22912.1
22810.1
23523.4
24565.6
25411.7
25741.3
25509.9
24883.2
24128.3
23529.5
23327.7
23650
24426.9
25352
25963.6
25862.1
24971.1
23669.2
22659
22592.6
23650
25345.6
26733.2
26938.3
25715.9
23673.2
21972.5
21655.4
22988.3
25250.5
27130.1
27509.7
26158.1
23884.8
22044.2
21696.9
22962.3
24980.2
26495.9
26673
25588.7
24094.5
23174.5
23276.1
24086.1
24891.5
25334.8
25892.5
22557.3
21005.6
21547.7
24141.6
27248.9
28950.3
28107.9
25094.4
21623.6
19740.1
20576.2
23654.1
27172.3
29096.1
28370.3
25511.4
22242
20427.8
20988.5
23432.2
26245
27839.9
27463.6
25536
23285.1
21965.4
22159.9
23551.8
25230
26276.1
26257.1
25367
24204.1
23382.1
23221.2
23666
24408.6
25090.7
25456.5
25406.2
24982.6
24342.7
23729.5
23418.3
23610
24300.3
25210.7
25869.8
25849
25041
23798.2
22801.4
22687.7
23641.8
25213.4
26518.9
26744.7
25663.5
23828.6
22291.4
21982.5
23130.8
25091.8
26717.3
27051.5
25920.1
24033
22531.2
22268.9
23296.2
24876.5
26007.8
26082.2
25233.2
24157.3
23578.4
23762.1
24399.1
25104.2
28046
24837.5
22357.7
21040.9
21740.5
24109.7
26832.6
28321.4
27645.5
25134.5
22225
20612.3
21228.8
23687.8
26533
28127.4
27621.5
25414
22852.3
21393.9
21761.3
23589
25728.8
26976.1
26752.9
25358.7
23694.7
22685.6
22769.6
23734.7
24939.5
25729.8
25783.8
25211
24403.2
23777.3
23574.2
23800.3
24293.6
24831.5
25212.4
25298
25039.8
24509.3
23911
23532.8
23618.9
24211.5
25066.4
25729.8
25774.9
25076.5
23946.5
23009.9
22858
23670.9
25054.9
26227
26466.4
25568.1
24007.3
22684.9
22391.9
23318.1
24921.1
26250.9
26534.6
25649.2
24180.9
23033.9
22851.2
23630.5
24779.7
25552.3
25545.8
24921
24219.5
23945.4
24194.2
24750.8
28095
26383.9
24457.6
22545.2
21615.1
22233.4
24157.2
26354.2
27557.6
27036
25066
22786.1
21515.2
21962.8
23820.9
25976.9
27197.5
26852
25240.8
23358.6
22271.2
22503.2
23792.8
25320.1
26229.1
26108.4
25160.7
24006.2
23282.3
23297
23920.3
24733
25299.6
25393.4
25060.4
24531.9
24071.1
23854.7
23931.1
24241.5
24659.7
25026.3
25184.5
25034.7
24597.8
24048.3
23664.9
23696
24198.6
24957.6
25561.6
25624.6
25033.3
24061.4
23251.6
23109.4
23782.6
24933.6
25907.2
26112.4
25392.1
24142.4
23089.9
22855.4
23570.8
24797.2
25799.3
26003.9
25347.4
24289.1
23492.1
23392.3
23944.5
24703.7
25163.5
25099.4
24683.7
24312.9
24264.1
24524.9
26500.1
26240.1
25548.2
24356.8
23143.8
22579.9
23060.9
24383.3
25814.6
26523.7
26090.6
24766.7
23324.2
22589.7
22956
24166.8
25495.7
26191.9
25913.8
24894.2
23761.4
23147.6
23332.9
24125.8
25025
25535.2
25438.6
24874
24207.4
23798.6
23812.3
24168.4
24631.5
24961.7
25031.5
24857.5
24555.9
24268.6
24106
24121
24305
24590.6
24863.7
24993.9
24892
24570.5
24167.2
23897.2
23940.5
24323.2
24869.4
25275.6
25279
24828.6
24145
23615.4
23570.6
24074.2
24861.9
25481.7
25560.7
25037.9
24211.2
23563.8
23470.4
23969.1
24744.1
25329.6
25401.4
24968.6
24342.9
23917.3
23909.9
24245.8
24645.3
24839.9
24757.3
24548
24426.5
24478.1
24755.9
24890.4
24890.5
24720.7
24397.3
24095.4
24011.5
24214.8
24594.1
24930.1
25026.5
24828.6
24453.8
24122.9
24024.1
24202.7
24541
24839.1
24934.4
24790.8
24508.7
24257.1
24171.3
24278.9
24497
24693.9
24768.5
24699.5
24545.2
24399
24334.4
24368.9
24467
24569.9
24629.9
24629.3
24579.6
24508.2
24444.6
24411.5
24421.1
24472.6
24548.5
24617.1
24642.3
24601.8
24505.1
24397.4
24340.4
24376.9
24499.2
24645.8
24731.7
24697.5
24550.1
24367
24256.2
24289.9
24456.7
24663.6
24789.9
24758.8
24586.1
24372.7
24245.6
24276.8
24440.8
24632.6
24738.6
24705
24567.8
24422.1
24357.5
24398.6
24497.1
24574.8
24583.5
24538.7
24499.4
24505.1
1.75968
2.52559
1.79209
1.09776
2.27664
3.09035
2.65266
1.24399
1.51268
2.13334
1.84926
0.826826
1.61003
2.6806
2.48564
1.21891
1.08168
1.65084
1.5523
0.869704
1.16852
2.01858
2.04796
1.33725
1.02161
1.41146
1.44928
1.15138
1.1139
1.61045
1.75755
1.52573
1.26007
1.42028
1.50883
1.45472
1.33581
1.4115
1.55611
1.57486
1.42806
1.2049
1.20868
1.31108
1.28892
1.12341
1.25105
1.56459
1.61569
1.27352
1.09317
1.34276
1.37508
1.05987
1.05127
1.69259
1.89487
1.41415
1.02282
1.54049
1.74416
1.42578
1.28297
2.16639
2.50465
2.03705
1.45773
1.89565
2.04566
1.71428
1.42988
1.95987
2.05704
1.6565
1.27536
1.39102
1.32684
1.14613
1.24473
1.1021
-6.74696e-05
0.000236887
0.000417615
0.000487994
0.000322443
1.1179e-06
-0.000283585
-0.000346649
-0.00013655
0.00019976
0.000479277
0.000529145
0.000339486
2.63647e-05
-0.000231698
-0.000284992
-0.000109231
0.000163892
0.00038736
0.000432745
0.000300544
8.27303e-05
-9.49756e-05
-0.000138058
-3.61991e-05
0.000129273
0.000265875
0.000304734
0.000243254
0.000133795
3.83718e-05
-5.10499e-07
2.75997e-05
9.6679e-05
0.000166442
0.000210498
0.000215681
0.000185372
0.000135612
8.43711e-05
4.50332e-05
3.88595e-05
7.81193e-05
0.000149699
0.000222379
0.000254766
0.000216543
0.000122337
1.44641e-05
-4.69603e-05
-1.17246e-05
0.000107554
0.000247986
0.000323346
0.000283322
0.000141139
-2.74434e-05
-0.000125165
-8.5166e-05
6.87791e-05
0.00024992
0.000348223
0.000304878
0.000143824
-3.57974e-05
-0.000128598
-8.52013e-05
5.88423e-05
0.00020744
0.000270774
0.000220389
0.000102386
1.97093e-06
-2.22389e-05
3.20367e-05
0.000104993
0.000137388
0.00011282
7.14164e-05
7.08162e-05
-1.00502e-06
0.000155595
0.000226206
0.000239699
0.00018826
7.58678e-05
-2.85828e-05
-5.57845e-05
5.02638e-06
0.000123667
0.000224997
0.000249709
0.000196199
8.68105e-05
-5.15945e-06
-2.5358e-05
2.5232e-05
0.000117589
0.000197356
0.000217881
0.000183006
0.000110011
4.88395e-05
3.38807e-05
6.11371e-05
0.000116348
0.000164047
0.000180152
0.000165919
0.000132614
0.000100292
8.54885e-05
9.12382e-05
0.000111865
0.000136389
0.000154531
0.000159899
0.000152473
0.00013612
0.000117296
0.000100336
9.44699e-05
0.000105134
0.000130643
0.0001597
0.000174695
0.000163692
0.000129312
8.72351e-05
6.19949e-05
6.82329e-05
0.000109546
0.000161428
0.000189876
0.000180247
0.000130176
6.6653e-05
2.93172e-05
3.61525e-05
8.65328e-05
0.00015077
0.00018684
0.000177007
0.000122048
5.63373e-05
2.12359e-05
3.05141e-05
7.63295e-05
0.000127588
0.000150313
0.000137241
9.80357e-05
6.20689e-05
5.19608e-05
6.81157e-05
9.12011e-05
0.000101537
9.3293e-05
8.0225e-05
7.69303e-05
-1.20459e-05
2.27399e-05
7.34222e-05
0.000130338
0.000175021
0.000179478
0.000132044
6.58059e-05
1.43293e-05
1.48436e-05
6.58053e-05
0.000131466
0.000180663
0.000182147
0.000137061
8.12412e-05
4.11793e-05
4.16007e-05
8.1064e-05
0.000128845
0.000163739
0.000166
0.000137604
0.000104289
8.13271e-05
8.07515e-05
0.000101533
0.00012726
0.000148286
0.000154307
0.000144777
0.00012901
0.00011485
0.000107809
0.000110434
0.000120379
0.000132691
0.000143454
0.000149391
0.00014737
0.000138798
0.000124861
0.000110232
0.000103567
0.000110999
0.00013016
0.000151671
0.000159946
0.000149399
0.000124305
9.59258e-05
8.01869e-05
9.10111e-05
0.000117505
0.000147289
0.000160749
0.00014448
0.000110619
7.53119e-05
5.60612e-05
6.84386e-05
0.000101067
0.000133443
0.000148479
0.000131707
9.88002e-05
6.54278e-05
5.06433e-05
6.3742e-05
9.02928e-05
0.000112291
0.000118203
0.000103664
8.17159e-05
6.8675e-05
7.26855e-05
8.54326e-05
9.30187e-05
9.0277e-05
8.28049e-05
8.93857e-05
6.01296e-05
6.49963e-05
7.89096e-05
0.000105091
0.00013592
0.000143486
0.000126267
9.59865e-05
6.67448e-05
6.08108e-05
7.9646e-05
0.000110048
0.000140888
0.000144826
0.00012772
0.000103754
8.09809e-05
7.81644e-05
9.46653e-05
0.000116825
0.000137848
0.000139866
0.000127943
0.000115043
0.000102537
0.000102703
0.00011162
0.000121986
0.000132122
0.000136012
0.000134326
0.000131032
0.000127133
0.000124604
0.000124029
0.000125044
0.000127146
0.00013025
0.00013368
0.00013647
0.000136889
0.000133613
0.000126436
0.000119364
0.000116515
0.000120951
0.00013084
0.000137883
0.00013709
0.000127516
0.000110578
9.91561e-05
9.99427e-05
0.000109222
0.000125867
0.000135057
0.000130051
0.000115897
9.51604e-05
8.21727e-05
8.28793e-05
9.45756e-05
0.000113161
0.000121757
0.000115243
0.000101906
8.42782e-05
7.52331e-05
7.83926e-05
8.72357e-05
9.75224e-05
9.97291e-05
9.3927e-05
8.45277e-05
7.87387e-05
8.05037e-05
8.58452e-05
8.86101e-05
8.53135e-05
0.000122285
0.000104801
9.62154e-05
8.63172e-05
8.01826e-05
8.80354e-05
0.000101245
0.000113556
0.000119191
0.000111929
9.90194e-05
8.98416e-05
8.62644e-05
9.73717e-05
0.000110204
0.000118235
0.000121866
0.000115388
0.000106004
0.000101548
0.000101454
0.000110547
0.000119729
0.000124316
0.000125223
0.000122036
0.0001192
0.000118884
0.000119055
0.000121497
0.000124825
0.000127459
0.000129701
0.000130986
0.000131191
0.000131109
0.000130655
0.000129504
0.000128045
0.000127376
0.000128379
0.00013103
0.000134103
0.000134676
0.000131981
0.000126537
0.000120547
0.000118192
0.000120402
0.000125166
0.000130023
0.0001286
0.000121348
0.000113457
0.00010594
0.000105683
0.000111218
0.000116167
0.000119137
0.000115881
0.00010714
9.83066e-05
9.1586e-05
9.16047e-05
9.67104e-05
0.000100608
0.000103501
0.000100839
9.3981e-05
8.80692e-05
8.4172e-05
8.52179e-05
8.83717e-05
9.01747e-05
8.88454e-05
8.52853e-05
8.30231e-05
8.37652e-05
8.60925e-05
8.54839e-05
0.000104602
0.000106535
0.000108117
0.000104837
9.57657e-05
8.96198e-05
8.90991e-05
9.43516e-05
0.000104232
0.000111209
0.000112317
0.000108435
0.000100404
9.67535e-05
9.82224e-05
0.000102985
0.000111067
0.000116243
0.000116603
0.000113938
0.000109202
0.000108428
0.000111511
0.000115831
0.000120123
0.000122456
0.000123358
0.00012403
0.000123665
0.000123556
0.000124234
0.000125302
0.000126838
0.000128469
0.000129729
0.000130856
0.000131794
0.000132096
0.0001314
0.000129924
0.000128369
0.000127704
0.000128606
0.000130254
0.000131606
0.000131238
0.000128072
0.000123536
0.000119793
0.000118362
0.000120676
0.000123701
0.000124112
0.000121944
0.000115863
0.000109486
0.000106861
0.000106543
0.00010892
0.000111596
0.000111265
0.000108394
0.000102129
9.62275e-05
9.36852e-05
9.28858e-05
9.4774e-05
9.68074e-05
9.63281e-05
9.38913e-05
8.96528e-05
8.64313e-05
8.54562e-05
8.61679e-05
8.70607e-05
8.65879e-05
8.50988e-05
8.40979e-05
8.48324e-05
8.49419e-05
9.15358e-05
9.58524e-05
0.000100774
0.000104254
0.000103195
9.96707e-05
9.60995e-05
9.42261e-05
9.64886e-05
0.000101069
0.000105697
0.000108801
0.000107851
0.000105313
0.000103222
0.000102357
0.000104896
0.000109209
0.000113123
0.000115562
0.000114965
0.00011342
0.00011319
0.000114436
0.000116976
0.000119533
0.000121536
0.000123399
0.000124552
0.000125272
0.000125944
0.000126572
0.00012734
0.00012824
0.00012905
0.000129852
0.000130745
0.000131596
0.000132075
0.000131881
0.000130921
0.000129525
0.000128415
0.000127971
0.000128368
0.000129149
0.000129037
0.000127398
0.0001244
0.000120783
0.00011869
0.000118554
0.000119094
0.000119909
0.000118733
0.000114982
0.000110549
0.000107294
0.000105616
0.000105784
0.000106185
0.000106369
0.000104435
0.000100922
9.78026e-05
9.48007e-05
9.30827e-05
9.28361e-05
9.28801e-05
9.26561e-05
9.10659e-05
8.86778e-05
8.65828e-05
8.55066e-05
8.54863e-05
8.56611e-05
8.5273e-05
8.43764e-05
8.4269e-05
8.43382e-05
9.235e-05
9.35461e-05
9.54384e-05
9.86472e-05
0.000100911
0.000101473
0.000100645
9.88628e-05
9.80357e-05
9.86691e-05
0.000100618
0.00010366
0.00010589
0.000106895
0.000106942
0.000106076
0.000105923
0.000107122
0.000109383
0.000112331
0.000114425
0.000115251
0.000115579
0.000116017
0.000117393
0.000119035
0.000120635
0.000122374
0.000123981
0.000125355
0.000126534
0.00012746
0.000128231
0.000128952
0.000129596
0.000130184
0.000130775
0.000131361
0.00013184
0.000132055
0.000131815
0.000131062
0.000130012
0.000128903
0.000128071
0.000127751
0.000127607
0.000127117
0.000125798
0.000123333
0.000120628
0.000118562
0.000117044
0.000116588
0.000116575
0.000115695
0.000113347
0.000110284
0.000107226
0.000105142
0.000103851
0.000103334
0.000102435
0.000100648
9.88436e-05
9.67497e-05
9.45055e-05
9.26206e-05
9.12417e-05
9.0559e-05
8.98697e-05
8.87392e-05
8.72856e-05
8.5914e-05
8.50712e-05
8.47752e-05
8.46337e-05
8.4138e-05
8.38437e-05
8.37944e-05
9.48442e-05
9.51879e-05
9.50805e-05
9.616e-05
9.79397e-05
9.94988e-05
0.0001003
0.000100091
9.96938e-05
9.96488e-05
0.000100153
0.000101608
0.000103422
0.000105127
0.000106537
0.000107154
0.000107377
0.000107802
0.000108757
0.000110592
0.000112772
0.000114628
0.00011601
0.000116984
0.00011811
0.000119411
0.000120759
0.000122247
0.000123802
0.000125317
0.000126719
0.000127891
0.000128818
0.000129581
0.000130244
0.000130858
0.000131449
0.000131971
0.000132329
0.000132448
0.000132246
0.000131715
0.000130953
0.000130041
0.000129069
0.000128192
0.000127417
0.000126609
0.00012551
0.00012373
0.000121566
0.000119614
0.000117677
0.000115917
0.000114701
0.000113945
0.000112875
0.000110943
0.000108302
0.000105719
0.000103643
0.000102378
0.000101278
9.96202e-05
9.79204e-05
9.639e-05
9.48251e-05
9.30518e-05
9.117e-05
8.97044e-05
8.87133e-05
8.78818e-05
8.69488e-05
8.5885e-05
8.49134e-05
8.42519e-05
8.39426e-05
8.36211e-05
8.33576e-05
8.32646e-05
9.52138e-05
9.58768e-05
9.56517e-05
9.57569e-05
9.66145e-05
9.78647e-05
9.89313e-05
9.93465e-05
9.9454e-05
9.97161e-05
0.000100251
0.000101274
0.000102567
0.000103903
0.000105293
0.000106462
0.000107357
0.000108148
0.000109009
0.0001103
0.000112026
0.000113873
0.000115593
0.000117008
0.000118307
0.000119637
0.000120999
0.000122441
0.000123951
0.000125475
0.000126953
0.000128281
0.000129389
0.000130282
0.000131009
0.000131637
0.000132232
0.000132787
0.000133197
0.000133343
0.000133143
0.000132595
0.000131815
0.00013092
0.000129953
0.000128945
0.000127921
0.000126872
0.000125659
0.00012388
0.000121635
0.000119685
0.000118137
0.00011649
0.000114557
0.000112845
0.000111622
0.000110253
0.000108322
0.000105888
0.000103455
0.000101766
0.000100672
9.92321e-05
9.73181e-05
9.5485e-05
9.40422e-05
9.27103e-05
9.11189e-05
8.94642e-05
8.81072e-05
8.71061e-05
8.62678e-05
8.54099e-05
8.45477e-05
8.38049e-05
8.33404e-05
8.30284e-05
8.28031e-05
8.27074e-05
9.50801e-05
9.53917e-05
9.55568e-05
9.56214e-05
9.60127e-05
9.68862e-05
9.7935e-05
9.86254e-05
9.89369e-05
9.92471e-05
9.98054e-05
0.000100787
0.000102032
0.000103265
0.000104482
0.000105656
0.00010677
0.00010786
0.000108946
0.0001102
0.000111717
0.00011341
0.000115144
0.000116755
0.000118244
0.000119699
0.000121162
0.000122667
0.000124212
0.000125768
0.0001273
0.000128742
0.000130024
0.000131116
0.000132012
0.000132727
0.000133315
0.000133832
0.000134253
0.000134467
0.000134353
0.000133859
0.000133058
0.000132092
0.000131022
0.000129821
0.000128498
0.000127206
0.000126032
0.000124512
0.000122177
0.000119618
0.000117758
0.000116508
0.000114917
0.000112727
0.00011068
0.000109139
0.000107734
0.00010587
0.000103395
0.000101111
9.97079e-05
9.86313e-05
9.70546e-05
9.50141e-05
9.31907e-05
9.1866e-05
9.06217e-05
8.91751e-05
8.77027e-05
8.64898e-05
8.55647e-05
8.47667e-05
8.39971e-05
8.32804e-05
8.27496e-05
8.24007e-05
8.21916e-05
8.21021e-05
9.49944e-05
9.4594e-05
9.48076e-05
9.51212e-05
9.54294e-05
9.59735e-05
9.68654e-05
9.777e-05
9.83978e-05
9.88341e-05
9.9314e-05
0.00010012
0.000101286
0.000102566
0.000103812
0.000105005
0.000106184
0.000107393
0.000108623
0.000109941
0.000111416
0.000113035
0.000114741
0.000116441
0.000118083
0.000119686
0.000121281
0.000122897
0.00012454
0.000126188
0.000127816
0.000129378
0.000130816
0.000132098
0.000133211
0.000134123
0.000134813
0.000135323
0.000135704
0.000135926
0.000135873
0.000135429
0.000134602
0.000133559
0.00013244
0.000131174
0.000129565
0.000127718
0.000126161
0.000124941
0.000123162
0.000120369
0.000117543
0.000115807
0.000114697
0.000112956
0.000110524
0.000108224
0.000106606
0.000105311
0.000103432
0.00010091
9.87692e-05
9.74968e-05
9.64111e-05
9.47312e-05
9.26879e-05
9.09978e-05
8.97757e-05
8.86102e-05
8.72707e-05
8.59476e-05
8.48761e-05
8.40495e-05
8.33338e-05
8.26707e-05
8.21256e-05
8.17451e-05
8.15247e-05
8.14393e-05
9.47804e-05
9.41202e-05
9.40012e-05
9.44126e-05
9.48811e-05
9.52993e-05
9.5906e-05
9.67283e-05
9.75608e-05
9.82676e-05
9.88582e-05
9.95437e-05
0.000100526
0.000101749
0.000103044
0.000104311
0.000105564
0.000106852
0.000108174
0.000109555
0.000111042
0.000112648
0.000114351
0.000116107
0.000117871
0.00011963
0.000121385
0.000123153
0.000124941
0.000126737
0.000128522
0.000130261
0.000131889
0.000133357
0.000134667
0.000135807
0.000136706
0.000137314
0.000137676
0.00013786
0.00013784
0.000137467
0.000136599
0.000135341
0.000134011
0.000132769
0.000131268
0.000129069
0.000126603
0.000124855
0.000123646
0.000121605
0.00011835
0.000115351
0.000113735
0.000112595
0.000110719
0.000108054
0.000105576
0.000104049
0.000102859
0.000100921
9.8392e-05
9.63645e-05
9.52029e-05
9.40826e-05
9.23554e-05
9.0401e-05
8.88537e-05
8.77311e-05
8.66349e-05
8.5405e-05
8.42334e-05
8.33015e-05
8.25812e-05
8.1968e-05
8.14443e-05
8.10508e-05
8.08128e-05
8.07249e-05
9.39804e-05
9.3703e-05
9.33024e-05
9.3505e-05
9.40829e-05
9.46294e-05
9.51399e-05
9.57643e-05
9.65384e-05
9.73885e-05
9.81922e-05
9.89526e-05
9.98359e-05
0.000100945
0.000102216
0.000103529
0.000104844
0.000106198
0.000107599
0.000109049
0.00011058
0.000112215
0.000113951
0.000115768
0.00011764
0.000119551
0.000121489
0.000123451
0.000125439
0.000127436
0.000129428
0.000131399
0.000133289
0.000135006
0.000136517
0.000137856
0.000138999
0.000139826
0.000140256
0.000140356
0.000140261
0.000139969
0.00013922
0.000137808
0.000135971
0.00013432
0.000133008
0.000131186
0.000128218
0.000125136
0.000123301
0.00012213
0.000119766
0.000116091
0.000113018
0.000111387
0.000110246
0.00010824
0.000105333
0.000102819
0.000101452
0.000100326
9.83241e-05
9.58026e-05
9.39178e-05
9.28451e-05
9.16951e-05
8.99854e-05
8.81604e-05
8.67535e-05
8.57109e-05
8.46891e-05
8.35899e-05
8.25764e-05
8.17849e-05
8.1177e-05
8.06872e-05
8.03084e-05
8.00619e-05
7.99654e-05
9.26889e-05
9.30061e-05
9.27523e-05
9.26778e-05
9.30911e-05
9.3722e-05
9.4336e-05
9.49197e-05
9.55699e-05
9.63689e-05
9.7274e-05
9.81795e-05
9.90997e-05
0.000100147
0.000101365
0.000102684
0.000104037
0.000105433
0.000106894
0.000108417
0.000110013
0.000111707
0.000113513
0.00011542
0.000117414
0.000119484
0.000121621
0.000123813
0.000126056
0.000128321
0.000130575
0.000132812
0.000135013
0.000137074
0.000138871
0.0001404
0.000141733
0.00014283
0.000143503
0.000143613
0.000143285
0.000142826
0.000142228
0.000141046
0.000138904
0.00013632
0.000134391
0.00013306
0.000130783
0.000126949
0.000123297
0.000121482
0.000120303
0.000117571
0.000113649
0.000110522
0.00010888
0.000107724
0.000105539
0.000102442
9.99932e-05
9.88122e-05
9.77143e-05
9.56452e-05
9.31818e-05
9.14542e-05
9.04348e-05
8.92797e-05
8.76474e-05
8.59831e-05
8.4705e-05
8.37337e-05
8.28009e-05
8.18446e-05
8.09977e-05
8.03444e-05
7.98546e-05
7.94928e-05
7.92604e-05
7.91603e-05
9.13122e-05
9.18162e-05
9.20231e-05
9.19729e-05
9.21495e-05
9.26501e-05
9.33161e-05
9.39948e-05
9.46497e-05
9.53713e-05
9.62449e-05
9.72236e-05
9.82279e-05
9.9282e-05
0.000100463
0.000101771
0.000103147
0.000104575
0.000106078
0.000107665
0.000109337
0.000111112
0.00011301
0.000115036
0.000117182
0.00011944
0.000121803
0.000124254
0.000126794
0.000129398
0.000131999
0.000134553
0.000137076
0.000139534
0.000141756
0.000143583
0.000145051
0.000146299
0.000147286
0.000147693
0.000147271
0.000146329
0.000145401
0.000144509
0.000142794
0.000139664
0.000136222
0.000134097
0.000132771
0.000129939
0.000125181
0.000121107
0.000119349
0.000118019
0.000115013
0.000110928
0.000107682
0.000106127
0.000105
0.000102626
9.94061e-05
9.71216e-05
9.61191e-05
9.50151e-05
9.29159e-05
9.05808e-05
8.89914e-05
8.80013e-05
8.68604e-05
8.53575e-05
8.38743e-05
8.27233e-05
8.18305e-05
8.09945e-05
8.01849e-05
7.95016e-05
7.89883e-05
7.86284e-05
7.84026e-05
7.83073e-05
9.02374e-05
9.04008e-05
9.08896e-05
9.11268e-05
9.12901e-05
9.16195e-05
9.21807e-05
9.28959e-05
9.36376e-05
9.43731e-05
9.51958e-05
9.61629e-05
9.72186e-05
9.83121e-05
9.94813e-05
0.000100771
0.00010216
0.000103618
0.000105157
0.000106801
0.000108554
0.000110426
0.000112437
0.000114605
0.000116932
0.000119412
0.000122036
0.000124786
0.000127654
0.000130643
0.000133687
0.000136667
0.000139545
0.000142374
0.000145091
0.000147436
0.000149191
0.000150448
0.000151495
0.000152299
0.000152264
0.000151058
0.000149238
0.000147802
0.000146658
0.000144246
0.000139881
0.000135519
0.000133296
0.000131977
0.000128472
0.000122914
0.000118615
0.00011681
0.000115285
0.000112119
0.000107882
0.000104615
0.000103252