/*--------------------------------*- C++ -*----------------------------------*\
| =========                 |                                                 |
| \\      /  F ield         | OpenFOAM: The Open Source CFD Toolbox           |
|  \\    /   O peration     | Version:  2412                                  |
|   \\  /    A nd           | Website:  www.openfoam.com                      |
|    \\/     M anipulation  |                                                 |
\*---------------------------------------------------------------------------*/
FoamFile
{
    version     2.0;
    format      ascii;
    arch        "LSB;label=32;scalar=64";
    class       volScalarField;
    location    "9.25";
    object      p;
}
// * * * * * * * * * * * * * * * * * * * * * * * * * * * * * * * * * * * * * //

dimensions      [1 -1 -2 0 0 0 0];

internalField   nonuniform List<scalar> 
6400
(
12102.5
12102.5
12102.5
12102.6
12102.8
12103
12103.3
12103.5
12103.8
12104.1
12104.5
12104.8
12105.1
12105.5
12105.8
12106.2
12106.5
12106.8
12107.1
12107.4
12107.5
12107.7
12107.7
12107.6
12107.3
12106.9
12106.3
12105.5
12104.5
12103.3
12102
12100.5
12098.9
12097.3
12095.7
12094.3
12093
12092
12091.3
12091
12091.1
12091.5
12092.3
12093.4
12094.7
12096.2
12097.8
12099.4
12101
12102.5
12103.8
12104.9
12105.9
12106.7
12107.2
12107.6
12107.8
12107.9
12107.9
12107.8
12107.6
12107.4
12107.1
12106.8
12106.4
12106.1
12105.8
12105.4
12105.1
12104.8
12104.5
12104.2
12103.9
12103.6
12103.4
12103.1
12103
12102.9
12102.8
12102.8
11484.5
11484.5
11484.5
11484.6
11484.8
11485
11485.2
11485.4
11485.7
11486
11486.3
11486.6
11486.9
11487.3
11487.6
11487.9
11488.2
11488.5
11488.8
11489
11489.1
11489.2
11489.2
11489.1
11488.8
11488.4
11487.8
11487.1
11486.2
11485.1
11483.9
11482.5
11481.1
11479.7
11478.3
11477
11475.9
11475.1
11474.5
11474.2
11474.2
11474.6
11475.3
11476.3
11477.4
11478.8
11480.2
11481.6
11483
11484.3
11485.5
11486.6
11487.5
11488.2
11488.7
11489.1
11489.4
11489.5
11489.5
11489.4
11489.3
11489
11488.8
11488.5
11488.2
11487.9
11487.6
11487.2
11486.9
11486.6
11486.3
11486
11485.8
11485.5
11485.3
11485.1
11484.9
11484.8
11484.8
11484.8
10866.4
10866.4
10866.4
10866.5
10866.7
10866.9
10867.1
10867.3
10867.6
10867.8
10868.1
10868.4
10868.7
10869
10869.3
10869.6
10869.9
10870.2
10870.4
10870.6
10870.8
10870.8
10870.8
10870.7
10870.4
10870
10869.5
10868.8
10867.9
10867
10865.9
10864.7
10863.4
10862.1
10860.9
10859.8
10858.8
10858
10857.5
10857.3
10857.3
10857.6
10858.2
10859.1
10860.1
10861.3
10862.6
10863.8
10865.1
10866.3
10867.4
10868.3
10869.2
10869.8
10870.3
10870.7
10871
10871.1
10871.1
10871
10870.9
10870.7
10870.5
10870.2
10869.9
10869.6
10869.3
10869
10868.7
10868.4
10868.2
10867.9
10867.6
10867.4
10867.2
10867
10866.9
10866.8
10866.7
10866.7
10248.3
10248.3
10248.3
10248.4
10248.6
10248.7
10248.9
10249.2
10249.4
10249.7
10249.9
10250.2
10250.5
10250.8
10251.1
10251.4
10251.7
10251.9
10252.2
10252.4
10252.5
10252.5
10252.5
10252.4
10252.2
10251.8
10251.3
10250.6
10249.9
10249
10247.9
10246.8
10245.7
10244.5
10243.3
10242.3
10241.4
10240.7
10240.2
10240
10240
10240.3
10240.9
10241.7
10242.6
10243.7
10244.9
10246.1
10247.2
10248.3
10249.4
10250.3
10251
10251.6
10252.1
10252.5
10252.7
10252.8
10252.8
10252.8
10252.6
10252.4
10252.2
10252
10251.7
10251.4
10251.1
10250.8
10250.5
10250.3
10250
10249.7
10249.5
10249.3
10249.1
10248.9
10248.7
10248.6
10248.6
10248.6
9630.07
9630.1
9630.17
9630.28
9630.42
9630.59
9630.78
9630.99
9631.23
9631.48
9631.74
9632.02
9632.31
9632.6
9632.89
9633.18
9633.46
9633.72
9633.95
9634.14
9634.28
9634.35
9634.34
9634.24
9634.03
9633.7
9633.24
9632.65
9631.92
9631.07
9630.1
9629.04
9627.92
9626.79
9625.69
9624.67
9623.79
9623.09
9622.62
9622.39
9622.43
9622.74
9623.29
9624.06
9624.99
9626.05
9627.18
9628.33
9629.45
9630.5
9631.46
9632.3
9633.01
9633.58
9634.03
9634.34
9634.54
9634.63
9634.63
9634.56
9634.42
9634.23
9634
9633.75
9633.47
9633.19
9632.9
9632.61
9632.33
9632.06
9631.79
9631.55
9631.31
9631.1
9630.91
9630.74
9630.59
9630.48
9630.41
9630.37
9011.83
9011.89
9011.98
9012.1
9012.24
9012.41
9012.6
9012.81
9013.03
9013.28
9013.54
9013.81
9014.09
9014.39
9014.68
9014.98
9015.26
9015.53
9015.77
9015.98
9016.14
9016.24
9016.26
9016.2
9016.03
9015.75
9015.33
9014.79
9014.1
9013.28
9012.35
9011.31
9010.2
9009.06
9007.95
9006.91
9006.01
9005.29
9004.8
9004.57
9004.61
9004.93
9005.5
9006.28
9007.24
9008.32
9009.46
9010.61
9011.72
9012.75
9013.67
9014.47
9015.14
9015.66
9016.06
9016.33
9016.49
9016.55
9016.52
9016.41
9016.25
9016.05
9015.81
9015.54
9015.26
9014.97
9014.68
9014.4
9014.12
9013.85
9013.59
9013.35
9013.12
9012.91
9012.72
9012.56
9012.41
9012.28
9012.19
9012.12
8393.55
8393.64
8393.76
8393.89
8394.04
8394.21
8394.4
8394.6
8394.82
8395.06
8395.32
8395.59
8395.87
8396.17
8396.47
8396.78
8397.08
8397.37
8397.63
8397.87
8398.07
8398.21
8398.28
8398.26
8398.14
8397.91
8397.55
8397.06
8396.41
8395.62
8394.69
8393.64
8392.5
8391.31
8390.13
8389.02
8388.05
8387.26
8386.73
8386.47
8386.52
8386.87
8387.49
8388.34
8389.38
8390.53
8391.73
8392.92
8394.06
8395.09
8396
8396.77
8397.39
8397.87
8398.21
8398.43
8398.54
8398.55
8398.47
8398.33
8398.14
8397.9
8397.64
8397.36
8397.06
8396.76
8396.47
8396.18
8395.9
8395.63
8395.38
8395.14
8394.92
8394.71
8394.52
8394.35
8394.2
8394.06
8393.94
8393.84
7775.25
7775.37
7775.52
7775.66
7775.82
7775.99
7776.18
7776.38
7776.59
7776.83
7777.08
7777.35
7777.64
7777.94
7778.26
7778.58
7778.9
7779.22
7779.53
7779.81
7780.05
7780.24
7780.37
7780.42
7780.37
7780.21
7779.91
7779.47
7778.86
7778.09
7777.15
7776.06
7774.85
7773.56
7772.25
7771.01
7769.9
7769
7768.39
7768.09
7768.15
7768.54
7769.25
7770.23
7771.39
7772.68
7774
7775.29
7776.49
7777.56
7778.47
7779.22
7779.79
7780.22
7780.49
7780.64
7780.68
7780.63
7780.5
7780.3
7780.07
7779.79
7779.49
7779.18
7778.87
7778.55
7778.25
7777.95
7777.67
7777.4
7777.15
7776.91
7776.7
7776.5
7776.31
7776.13
7775.97
7775.81
7775.66
7775.54
7156.94
7157.09
7157.26
7157.43
7157.59
7157.76
7157.95
7158.14
7158.35
7158.58
7158.83
7159.1
7159.39
7159.71
7160.04
7160.38
7160.74
7161.09
7161.44
7161.77
7162.08
7162.34
7162.55
7162.68
7162.72
7162.64
7162.42
7162.04
7161.48
7160.72
7159.76
7158.6
7157.27
7155.82
7154.32
7152.86
7151.55
7150.48
7149.74
7149.38
7149.44
7149.92
7150.76
7151.92
7153.3
7154.79
7156.3
7157.75
7159.05
7160.18
7161.1
7161.82
7162.35
7162.7
7162.9
7162.96
7162.92
7162.78
7162.58
7162.32
7162.02
7161.7
7161.36
7161.02
7160.67
7160.34
7160.01
7159.71
7159.42
7159.15
7158.9
7158.67
7158.46
7158.27
7158.08
7157.9
7157.73
7157.56
7157.38
7157.22
6538.63
6538.81
6539.01
6539.19
6539.36
6539.53
6539.7
6539.89
6540.09
6540.31
6540.55
6540.83
6541.12
6541.45
6541.8
6542.17
6542.56
6542.97
6543.37
6543.77
6544.15
6544.49
6544.79
6545.03
6545.17
6545.2
6545.09
6544.79
6544.29
6543.56
6542.56
6541.31
6539.81
6538.13
6536.34
6534.57
6532.96
6531.64
6530.71
6530.27
6530.34
6530.93
6531.98
6533.4
6535.08
6536.88
6538.67
6540.33
6541.79
6542.99
6543.93
6544.62
6545.08
6545.34
6545.44
6545.39
6545.24
6545.01
6544.71
6544.37
6544.01
6543.62
6543.23
6542.84
6542.46
6542.1
6541.76
6541.44
6541.15
6540.88
6540.64
6540.41
6540.21
6540.02
6539.84
6539.67
6539.49
6539.31
6539.1
6538.91
5920.32
5920.54
5920.77
5920.96
5921.12
5921.29
5921.45
5921.62
5921.81
5922.02
5922.26
5922.53
5922.83
5923.17
5923.54
5923.95
5924.38
5924.83
5925.3
5925.77
5926.24
5926.69
5927.1
5927.46
5927.74
5927.9
5927.92
5927.75
5927.33
5926.64
5925.61
5924.24
5922.52
5920.52
5918.33
5916.13
5914.09
5912.41
5911.23
5910.66
5910.75
5911.49
5912.83
5914.63
5916.75
5918.98
5921.15
5923.11
5924.76
5926.06
5927.02
5927.66
5928.02
5928.16
5928.12
5927.94
5927.65
5927.3
5926.89
5926.45
5926
5925.54
5925.09
5924.65
5924.24
5923.84
5923.48
5923.15
5922.85
5922.58
5922.35
5922.14
5921.95
5921.77
5921.61
5921.44
5921.26
5921.07
5920.83
5920.61
5302.05
5302.3
5302.55
5302.74
5302.9
5303.05
5303.19
5303.34
5303.51
5303.7
5303.93
5304.2
5304.51
5304.86
5305.26
5305.69
5306.17
5306.68
5307.22
5307.78
5308.35
5308.92
5309.47
5309.97
5310.42
5310.76
5310.95
5310.94
5310.65
5310.03
5308.99
5307.49
5305.49
5303.05
5300.32
5297.5
5294.87
5292.69
5291.15
5290.41
5290.53
5291.5
5293.23
5295.57
5298.29
5301.12
5303.82
5306.17
5308.06
5309.46
5310.41
5310.96
5311.19
5311.16
5310.94
5310.59
5310.14
5309.64
5309.1
5308.55
5308
5307.46
5306.94
5306.44
5305.98
5305.55
5305.17
5304.82
5304.52
5304.25
5304.03
5303.83
5303.67
5303.51
5303.37
5303.22
5303.05
5302.85
5302.59
5302.33
4683.82
4684.1
4684.37
4684.56
4684.7
4684.82
4684.93
4685.05
4685.19
4685.36
4685.57
4685.83
4686.15
4686.51
4686.94
4687.41
4687.94
4688.51
4689.13
4689.79
4690.47
4691.17
4691.88
4692.56
4693.2
4693.76
4694.18
4694.4
4694.31
4693.83
4692.82
4691.18
4688.84
4685.83
4682.34
4678.66
4675.2
4672.31
4670.29
4669.31
4669.47
4670.75
4673.04
4676.13
4679.7
4683.37
4686.78
4689.64
4691.81
4693.3
4694.19
4694.58
4694.61
4694.36
4693.91
4693.34
4692.7
4692.02
4691.33
4690.65
4689.99
4689.36
4688.76
4688.2
4687.69
4687.23
4686.82
4686.46
4686.15
4685.9
4685.68
4685.51
4685.37
4685.25
4685.14
4685.02
4684.87
4684.68
4684.4
4684.11
4065.66
4065.97
4066.25
4066.42
4066.52
4066.6
4066.66
4066.73
4066.84
4066.98
4067.18
4067.43
4067.75
4068.13
4068.58
4069.1
4069.68
4070.32
4071.03
4071.79
4072.6
4073.45
4074.33
4075.22
4076.1
4076.93
4077.65
4078.17
4078.38
4078.13
4077.24
4075.52
4072.78
4069.02
4064.47
4059.58
4054.94
4051.08
4048.39
4047.1
4047.31
4049.02
4052.08
4056.21
4060.97
4065.83
4070.2
4073.71
4076.18
4077.69
4078.43
4078.57
4078.3
4077.75
4077.01
4076.18
4075.31
4074.44
4073.58
4072.76
4071.98
4071.25
4070.57
4069.94
4069.38
4068.88
4068.44
4068.06
4067.75
4067.51
4067.31
4067.17
4067.07
4066.99
4066.93
4066.85
4066.74
4066.56
4066.27
4065.95
3447.6
3447.94
3448.21
3448.33
3448.38
3448.38
3448.38
3448.4
3448.45
3448.56
3448.73
3448.98
3449.3
3449.7
3450.18
3450.74
3451.38
3452.1
3452.89
3453.76
3454.71
3455.72
3456.79
3457.92
3459.08
3460.24
3461.34
3462.28
3462.92
3463.07
3462.46
3460.76
3457.6
3452.87
3446.87
3440.26
3433.97
3428.76
3425.18
3423.46
3423.75
3426.04
3430.15
3435.71
3442.15
3448.67
3454.36
3458.67
3461.41
3462.81
3463.22
3462.97
3462.27
3461.32
3460.22
3459.08
3457.94
3456.85
3455.81
3454.84
3453.94
3453.1
3452.34
3451.65
3451.03
3450.48
3450.02
3449.63
3449.31
3449.08
3448.91
3448.81
3448.76
3448.74
3448.74
3448.72
3448.67
3448.53
3448.24
3447.9
2829.69
2830.05
2830.27
2830.32
2830.27
2830.17
2830.08
2830.01
2830
2830.06
2830.21
2830.44
2830.76
2831.18
2831.7
2832.3
2833
2833.8
2834.69
2835.67
2836.76
2837.93
2839.21
2840.59
2842.07
2843.62
2845.19
2846.69
2847.95
2848.73
2848.68
2847.25
2843.73
2837.79
2829.78
2820.71
2812.05
2804.98
2800.22
2797.94
2798.32
2801.39
2806.91
2814.48
2823.3
2832.19
2839.66
2844.91
2847.81
2848.84
2848.66
2847.78
2846.49
2845.01
2843.47
2841.96
2840.53
2839.2
2837.98
2836.87
2835.84
2834.9
2834.05
2833.28
2832.61
2832.02
2831.52
2831.12
2830.8
2830.58
2830.45
2830.39
2830.4
2830.47
2830.56
2830.63
2830.67
2830.59
2830.34
2829.98
2211.99
2212.33
2212.46
2212.38
2212.18
2211.95
2211.72
2211.55
2211.46
2211.46
2211.57
2211.79
2212.12
2212.56
2213.11
2213.76
2214.53
2215.4
2216.39
2217.49
2218.71
2220.06
2221.55
2223.19
2225.01
2227.02
2229.18
2231.41
2233.55
2235.34
2236.35
2235.74
2232.03
2224.38
2213.34
2200.45
2188.25
2178.51
2172.18
2169.15
2169.63
2173.72
2181.17
2191.62
2204.05
2216.68
2226.85
2233.36
2236.09
2236.17
2234.95
2233.1
2230.99
2228.83
2226.74
2224.79
2223.03
2221.46
2220.06
2218.8
2217.65
2216.61
2215.67
2214.83
2214.09
2213.46
2212.93
2212.5
2212.19
2211.98
2211.88
2211.89
2211.98
2212.15
2212.36
2212.56
2212.72
2212.77
2212.61
2212.24
1594.62
1594.89
1594.79
1594.5
1594.11
1593.7
1593.32
1593.01
1592.83
1592.77
1592.84
1593.06
1593.4
1593.87
1594.46
1595.17
1596.01
1596.98
1598.07
1599.29
1600.67
1602.21
1603.91
1605.82
1608.03
1610.6
1613.52
1616.76
1620.19
1623.66
1626.9
1628.62
1625.23
1614.51
1598
1578.52
1560.83
1547.42
1539.29
1535.3
1535.82
1541.13
1550.99
1565.44
1583.61
1602.99
1618.18
1626.76
1628.36
1626.03
1622.74
1619.37
1616.08
1612.99
1610.18
1607.7
1605.56
1603.73
1602.16
1600.76
1599.48
1598.31
1597.27
1596.34
1595.53
1594.84
1594.26
1593.81
1593.48
1593.29
1593.22
1593.29
1593.47
1593.76
1594.12
1594.49
1594.83
1595.07
1595.11
1594.79
977.573
977.835
977.442
976.821
976.143
975.46
974.844
974.357
974.033
973.883
973.91
974.104
974.453
974.942
975.567
976.331
977.238
978.284
979.467
980.804
982.323
984.028
985.898
988.001
990.542
993.685
997.472
1001.91
1006.97
1012.89
1020.2
1027.4
1026.57
1013.09
988.994
960.362
936.582
919.912
911.526
906.408
906.577
912.908
924.403
942.483
967.077
996.682
1018.13
1027.75
1025.63
1018.02
1011.18
1005.71
1000.98
996.796
993.182
990.136
987.618
985.585
983.922
982.443
981.048
979.762
978.618
977.61
976.728
975.977
975.36
974.884
974.558
974.384
974.369
974.521
974.841
975.314
975.902
976.543
977.162
977.713
978.029
977.665
361.166
366.524
369.295
370.413
370.758
370.698
370.472
370.229
370.042
369.945
369.955
370.069
370.292
370.615
371.037
371.572
372.237
373.028
373.945
375.005
376.252
377.683
379.233
380.943
382.987
385.625
388.933
392.993
397.82
404.061
413.48
426.423
435.104
445.676
459.811
465.758
466.285
466.385
467.064
465.321
464.926
466.575
467.332
467.526
465.612
456.532
440.898
432.365
422.975
410.732
402.399
396.815
392.321
388.482
385.278
382.686
380.593
378.957
377.619
376.375
375.177
374.101
373.189
372.419
371.77
371.238
370.819
370.512
370.318
370.224
370.228
370.331
370.521
370.761
370.976
371.015
370.634
369.466
366.625
361.152
20.8789
26.5487
29.6605
31.2491
32.0449
32.4067
32.5484
32.5888
32.5849
32.5667
32.5514
32.5503
32.5722
32.6274
32.7201
32.8371
32.9902
33.1886
33.4455
33.7695
34.1636
34.6386
35.2542
36.0246
36.6697
37.3586
38.2097
39.4318
41.125
43.7324
47.401
53.0532
64.8142
112.133
184.853
229.498
256.408
274.204
283.382
285.781
285.167
281.527
271.018
251.914
221.522
167.962
95.0379
59.6713
51.6272
46.6308
43.3578
40.9449
39.3169
38.1206
37.2774
36.6646
36.0814
35.5418
34.8807
34.2552
33.7927
33.4458
33.1692
32.9645
32.8162
32.7105
32.6422
32.6024
32.5835
32.5888
32.609
32.6313
32.6393
32.6017
32.4606
32.0974
31.2957
29.6965
26.5701
20.8714
-10.5434
-10.5436
-10.5437
-10.5439
-10.5441
-10.5444
-10.5449
-10.5454
-10.5461
-10.5468
-10.5475
-10.5488
-10.5491
-10.5382
-10.5158
-10.5118
-10.523
-10.5434
-10.5554
-10.553
-10.5522
-10.5413
-10.3967
-10.0675
-9.99076
-10.0726
-10.2024
-10.1513
-9.83843
-8.99055
-8.47541
-8.12489
-5.98935
15.9207
68.4762
112.498
136.169
152.318
160.758
158.938
158.282
158.584
149.947
133.397
105.197
54.3234
7.25056
-7.25052
-8.18909
-8.36979
-8.96624
-9.86069
-10.1936
-10.2566
-10.0956
-9.88265
-9.83339
-9.88175
-10.2051
-10.4664
-10.5385
-10.5407
-10.5495
-10.5434
-10.5299
-10.5219
-10.5177
-10.5202
-10.5337
-10.5419
-10.5424
-10.5419
-10.5419
-10.5416
-10.5412
-10.5408
-10.5405
-10.5402
-10.5401
-10.5399
-11.0342
-11.0342
-11.0343
-11.0345
-11.0348
-11.0351
-11.0355
-11.036
-11.0365
-11.037
-11.0374
-11.0383
-11.0397
-11.0391
-11.0329
-11.0274
-11.0306
-11.0387
-11.0421
-11.0413
-11.0418
-11.0414
-11.0247
-10.9021
-10.7563
-10.7045
-10.7056
-10.6762
-10.5231
-10.1447
-9.7452
-9.50696
-9.24959
-8.80338
0.83854
15.9508
23.661
30.0405
33.0897
28.5973
28.3644
31.9651
29.4509
23.6538
14.1438
-2.84925
-9.33429
-9.37196
-9.50458
-9.69741
-10.1584
-10.5916
-10.71
-10.7065
-10.6694
-10.6196
-10.6385
-10.7574
-10.9526
-11.026
-11.0297
-11.029
-11.0318
-11.0316
-11.0272
-11.0232
-11.0225
-11.026
-11.029
-11.0301
-11.0307
-11.0314
-11.0318
-11.0318
-11.0316
-11.0314
-11.0311
-11.0309
-11.0308
-11.0307
-11.5246
-11.5247
-11.5248
-11.525
-11.5252
-11.5255
-11.526
-11.5265
-11.5272
-11.5279
-11.5287
-11.5299
-11.5308
-11.5302
-11.5266
-11.5237
-11.5269
-11.5329
-11.5347
-11.5335
-11.5333
-11.534
-11.5325
-11.4997
-11.4365
-11.3572
-11.3139
-11.307
-11.3005
-11.1753
-11.0319
-10.9668
-11.0789
-11.4171
-11.5252
-11.4433
-11.4751
-11.51
-11.5191
-11.518
-11.5192
-11.52
-11.5201
-11.52
-11.5198
-11.5834
-11.3516
-10.9888
-10.9009
-10.9688
-11.1639
-11.3491
-11.3209
-11.3026
-11.3029
-11.3187
-11.3727
-11.4512
-11.5109
-11.52
-11.5198
-11.5223
-11.5257
-11.5239
-11.5184
-11.5148
-11.5137
-11.5151
-11.5198
-11.5232
-11.5239
-11.5235
-11.5231
-11.5227
-11.5223
-11.5219
-11.5216
-11.5213
-11.5212
-11.5211
-12.0151
-12.0151
-12.0152
-12.0154
-12.0156
-12.0159
-12.0163
-12.0168
-12.0175
-12.0181
-12.0188
-12.0199
-12.0212
-12.0214
-12.0208
-12.0203
-12.0233
-12.0266
-12.0262
-12.0246
-12.024
-12.0245
-12.025
-12.0257
-12.0212
-11.9845
-11.9646
-11.9677
-11.9866
-12.0122
-11.9914
-11.9932
-12.0278
-12.0078
-11.9939
-11.9708
-11.9738
-12.0009
-12.0077
-12.0078
-12.0088
-12.009
-12.0093
-12.0094
-12.0094
-12.0094
-11.9984
-11.9946
-11.9654
-11.9926
-12.0052
-11.9756
-11.9484
-11.9503
-11.9429
-11.9536
-11.9914
-12.0122
-12.012
-12.0103
-12.0088
-12.0114
-12.0172
-12.0152
-12.0115
-12.012
-12.0116
-12.0112
-12.0131
-12.0148
-12.015
-12.015
-12.0142
-12.0134
-12.0128
-12.0124
-12.012
-12.0118
-12.0116
-12.0115
-12.5055
-12.5056
-12.5056
-12.5058
-12.506
-12.5063
-12.5066
-12.5071
-12.5077
-12.5083
-12.5091
-12.5102
-12.5114
-12.5121
-12.5135
-12.5164
-12.5186
-12.5178
-12.5166
-12.5154
-12.5145
-12.5147
-12.5163
-12.519
-12.5198
-12.5155
-12.5078
-12.5066
-12.5032
-12.5009
-12.5003
-12.4995
-12.5018
-12.5013
-12.4979
-12.4932
-12.4912
-12.4978
-12.4998
-12.499
-12.5004
-12.5009
-12.5011
-12.5011
-12.5011
-12.5002
-12.5002
-12.5001
-12.4988
-12.4985
-12.4986
-12.499
-12.5024
-12.5018
-12.4996
-12.5004
-12.5059
-12.5049
-12.5025
-12.5
-12.4967
-12.4976
-12.5075
-12.5119
-12.5124
-12.5135
-12.512
-12.5089
-12.5064
-12.5064
-12.5068
-12.5064
-12.5051
-12.504
-12.5033
-12.5028
-12.5025
-12.5023
-12.5021
-12.502
-12.9959
-12.996
-12.996
-12.9962
-12.9963
-12.9966
-12.9969
-12.9973
-12.9978
-12.9984
-12.9991
-13.0001
-13.0014
-13.0029
-13.0043
-13.0062
-13.0086
-13.0096
-13.0092
-13.0089
-13.0085
-13.0081
-13.0082
-13.0083
-13.0072
-13.004
-13.0001
-12.9969
-12.9945
-12.9933
-12.9923
-12.9915
-12.9917
-12.9923
-12.9929
-12.994
-12.993
-12.9895
-12.9887
-12.9901
-12.991
-12.9912
-12.991
-12.9911
-12.9912
-12.9905
-12.9899
-12.9896
-12.9891
-12.9892
-12.9881
-12.9888
-12.9933
-12.9953
-12.9952
-12.9944
-12.9944
-12.9945
-12.9938
-12.9924
-12.9897
-12.9879
-12.9964
-13.0085
-13.0133
-13.0141
-13.0143
-13.0095
-13.0029
-12.9995
-12.9986
-12.9972
-12.9958
-12.9946
-12.9938
-12.9933
-12.993
-12.9927
-12.9926
-12.9926
-13.4864
-13.4864
-13.4865
-13.4865
-13.4867
-13.4868
-13.4871
-13.4874
-13.4878
-13.4883
-13.4888
-13.4895
-13.4911
-13.4929
-13.495
-13.4975
-13.5002
-13.5025
-13.5043
-13.5055
-13.5059
-13.5056
-13.5043
-13.5022
-13.499
-13.4948
-13.491
-13.4878
-13.4852
-13.4835
-13.4827
-13.4824
-13.4823
-13.4822
-13.4822
-13.4825
-13.4831
-13.4827
-13.4813
-13.4814
-13.4816
-13.4818
-13.4819
-13.4818
-13.4815
-13.4809
-13.4806
-13.4805
-13.4799
-13.4796
-13.4797
-13.4802
-13.4812
-13.4823
-13.483
-13.4835
-13.4849
-13.4867
-13.4882
-13.4896
-13.4913
-13.4927
-13.499
-13.5069
-13.5083
-13.5065
-13.5059
-13.5041
-13.4997
-13.4943
-13.4902
-13.4872
-13.4859
-13.4849
-13.4842
-13.4838
-13.4835
-13.4833
-13.4831
-13.4831
-13.9768
-13.9768
-13.9769
-13.9769
-13.977
-13.9771
-13.9772
-13.9774
-13.9777
-13.9781
-13.9784
-13.9791
-13.9806
-13.9824
-13.9849
-13.9885
-13.9926
-13.9966
-14
-14.0022
-14.0029
-14.0019
-13.9997
-13.9962
-13.9916
-13.9868
-13.9825
-13.9791
-13.9765
-13.9748
-13.9737
-13.9731
-13.9729
-13.9729
-13.9729
-13.9729
-13.9732
-13.9732
-13.9728
-13.9724
-13.9722
-13.9723
-13.9725
-13.9725
-13.9722
-13.9717
-13.9713
-13.9711
-13.9708
-13.9707
-13.9706
-13.9708
-13.9717
-13.9732
-13.9746
-13.9761
-13.978
-13.9809
-13.9849
-13.9899
-13.9952
-14
-14.0044
-14.0065
-14.0036
-13.9993
-13.9972
-13.9946
-13.9897
-13.985
-13.9809
-13.9768
-13.9752
-13.9749
-13.9745
-13.9742
-13.974
-13.9738
-13.9737
-13.9737
-14.4672
-14.4673
-14.4673
-14.4673
-14.4673
-14.4674
-14.4674
-14.4675
-14.4677
-14.4679
-14.4681
-14.4687
-14.4699
-14.472
-14.4754
-14.4804
-14.4864
-14.4927
-14.4986
-14.5032
-14.5051
-14.5038
-14.4997
-14.4934
-14.4863
-14.4798
-14.4745
-14.4705
-14.4677
-14.4658
-14.4647
-14.464
-14.4635
-14.4633
-14.4632
-14.4634
-14.4638
-14.464
-14.4639
-14.4633
-14.4629
-14.463
-14.4632
-14.4632
-14.463
-14.4626
-14.4624
-14.4622
-14.4621
-14.462
-14.4621
-14.4625
-14.4633
-14.4646
-14.4662
-14.4683
-14.4714
-14.4768
-14.4855
-14.4966
-14.5077
-14.5152
-14.518
-14.5147
-14.5062
-14.4959
-14.4878
-14.4815
-14.476
-14.4722
-14.4701
-14.467
-14.4649
-14.4648
-14.4648
-14.4647
-14.4645
-14.4644
-14.4643
-14.4643
-14.9577
-14.9577
-14.9577
-14.9577
-14.9577
-14.9577
-14.9577
-14.9577
-14.9577
-14.9578
-14.9578
-14.9581
-14.9592
-14.9619
-14.9667
-14.9736
-14.9822
-14.9922
-15.0023
-15.0106
-15.0146
-15.0131
-15.0064
-14.996
-14.9845
-14.9746
-14.9672
-14.9624
-14.9591
-14.957
-14.9557
-14.9548
-14.9543
-14.954
-14.9538
-14.9538
-14.954
-14.9545
-14.9545
-14.9542
-14.9537
-14.9538
-14.9539
-14.954
-14.9538
-14.9536
-14.9535
-14.9534
-14.9533
-14.9534
-14.9536
-14.9541
-14.955
-14.9565
-14.9586
-14.9616
-14.9666
-14.9759
-14.991
-15.0106
-15.0292
-15.0407
-15.0418
-15.0325
-15.0157
-14.9963
-14.9793
-14.9674
-14.9601
-14.9578
-14.9591
-14.9576
-14.9554
-14.9551
-14.9552
-14.9552
-14.9551
-14.955
-14.955
-14.955
-15.4482
-15.4482
-15.4482
-15.4482
-15.4481
-15.4481
-15.448
-15.4479
-15.4479
-15.4478
-15.4477
-15.4478
-15.4487
-15.4521
-15.4585
-15.4679
-15.4803
-15.4955
-15.5118
-15.5255
-15.5327
-15.5312
-15.5211
-15.5049
-15.4871
-15.4719
-15.4609
-15.4544
-15.4506
-15.4482
-15.4467
-15.4458
-15.4452
-15.4448
-15.4446
-15.4445
-15.4447
-15.445
-15.4452
-15.445
-15.4446
-15.4446
-15.4447
-15.4448
-15.4447
-15.4446
-15.4446
-15.4446
-15.4447
-15.4449
-15.4452
-15.4459
-15.447
-15.4488
-15.4514
-15.4554
-15.4625
-15.4761
-15.4986
-15.5271
-15.5531
-15.568
-15.568
-15.553
-15.5274
-15.4984
-15.4726
-15.4541
-15.444
-15.444
-15.4487
-15.4483
-15.4459
-15.4455
-15.4458
-15.4458
-15.4458
-15.4457
-15.4457
-15.4457
-15.9387
-15.9387
-15.9387
-15.9386
-15.9386
-15.9385
-15.9384
-15.9383
-15.9382
-15.938
-15.9379
-15.9378
-15.9387
-15.9427
-15.9506
-15.9626
-15.9792
-16.0004
-16.0234
-16.0431
-16.0536
-16.0521
-16.0388
-16.0165
-15.992
-15.9709
-15.9555
-15.9465
-15.942
-15.9393
-15.9377
-15.9367
-15.9361
-15.9357
-15.9354
-15.9353
-15.9354
-15.9356
-15.9358
-15.9358
-15.9354
-15.9354
-15.9356
-15.9356
-15.9356
-15.9357
-15.9357
-15.9358
-15.936
-15.9363
-15.9368
-15.9377
-15.939
-15.941
-15.9441
-15.9489
-15.9578
-15.9748
-16.0029
-16.0381
-16.0692
-16.0865
-16.086
-16.0672
-16.0353
-15.999
-15.9665
-15.9425
-15.9294
-15.933
-15.941
-15.9392
-15.9368
-15.9362
-15.9365
-15.9365
-15.9365
-15.9365
-15.9365
-15.9365
-16.4293
-16.4292
-16.4292
-16.4292
-16.4291
-16.429
-16.4289
-16.4288
-16.4286
-16.4285
-16.4284
-16.4283
-16.4291
-16.4334
-16.4426
-16.4567
-16.4764
-16.5021
-16.5303
-16.5543
-16.5669
-16.5651
-16.5493
-16.523
-16.4936
-16.4684
-16.4496
-16.4383
-16.4332
-16.4304
-16.4287
-16.4277
-16.427
-16.4266
-16.4264
-16.4262
-16.4262
-16.4263
-16.4265
-16.4266
-16.4263
-16.4263
-16.4264
-16.4265
-16.4266
-16.4267
-16.4268
-16.427
-16.4273
-16.4277
-16.4283
-16.4293
-16.4308
-16.433
-16.4363
-16.4414
-16.4509
-16.4691
-16.4991
-16.5368
-16.5697
-16.5876
-16.5871
-16.5673
-16.5333
-16.4945
-16.4596
-16.4313
-16.4217
-16.4303
-16.4343
-16.4302
-16.4279
-16.4273
-16.4274
-16.4274
-16.4274
-16.4274
-16.4273
-16.4273
-16.9198
-16.9198
-16.9198
-16.9197
-16.9197
-16.9196
-16.9195
-16.9193
-16.9192
-16.9191
-16.9191
-16.9192
-16.92
-16.9237
-16.9333
-16.9486
-16.9696
-16.9964
-17.026
-17.0511
-17.0641
-17.0619
-17.0454
-17.0183
-16.9873
-16.9608
-16.9416
-16.9294
-16.9239
-16.9213
-16.9196
-16.9186
-16.918
-16.9176
-16.9173
-16.9171
-16.9171
-16.9171
-16.9173
-16.9173
-16.9172
-16.9172
-16.9173
-16.9174
-16.9175
-16.9177
-16.9178
-16.9181
-16.9185
-16.919
-16.9197
-16.9208
-16.9223
-16.9245
-16.9278
-16.9328
-16.9414
-16.958
-16.986
-17.0215
-17.0529
-17.0699
-17.0695
-17.051
-17.0191
-16.9825
-16.9509
-16.9242
-16.9233
-16.9287
-16.9258
-16.9213
-16.9194
-16.9187
-16.9185
-16.9184
-16.9183
-16.9183
-16.9182
-16.9182
-17.4104
-17.4104
-17.4104
-17.4103
-17.4103
-17.4102
-17.4101
-17.41
-17.4099
-17.4099
-17.41
-17.4102
-17.4111
-17.4137
-17.4223
-17.4372
-17.4575
-17.4825
-17.5094
-17.5323
-17.5441
-17.542
-17.5269
-17.5019
-17.4731
-17.4481
-17.4306
-17.4196
-17.4143
-17.412
-17.4105
-17.4096
-17.4089
-17.4085
-17.4083
-17.4081
-17.408
-17.408
-17.4081
-17.4081
-17.4081
-17.4081
-17.4082
-17.4083
-17.4084
-17.4086
-17.4089
-17.4092
-17.4096
-17.4101
-17.4109
-17.412
-17.4135
-17.4157
-17.4188
-17.4232
-17.4301
-17.4433
-17.4653
-17.4943
-17.5211
-17.536
-17.5357
-17.52
-17.4933
-17.4634
-17.4392
-17.4245
-17.4229
-17.4203
-17.4156
-17.4126
-17.411
-17.4101
-17.4097
-17.4094
-17.4093
-17.4092
-17.4091
-17.4091
-17.901
-17.901
-17.901
-17.901
-17.9009
-17.9009
-17.9008
-17.9007
-17.9007
-17.9007
-17.9009
-17.9013
-17.9021
-17.9041
-17.9102
-17.9223
-17.9398
-17.9608
-17.9827
-18.0011
-18.0108
-18.0094
-17.9967
-17.9758
-17.9521
-17.9318
-17.9177
-17.909
-17.9045
-17.9026
-17.9013
-17.9005
-17.8999
-17.8995
-17.8992
-17.899
-17.8989
-17.8989
-17.8989
-17.899
-17.899
-17.899
-17.8991
-17.8992
-17.8994
-17.8996
-17.8998
-17.9002
-17.9006
-17.9012
-17.902
-17.903
-17.9045
-17.9065
-17.9093
-17.9129
-17.9183
-17.9272
-17.9416
-17.9611
-17.9801
-17.9915
-17.9911
-17.9789
-17.9595
-17.9396
-17.9243
-17.9191
-17.9133
-17.9082
-17.9055
-17.9037
-17.9023
-17.9013
-17.9008
-17.9004
-17.9002
-17.9001
-17.9
-17.8999
-18.3917
-18.3917
-18.3916
-18.3916
-18.3916
-18.3916
-18.3915
-18.3915
-18.3915
-18.3916
-18.3919
-18.3923
-18.3931
-18.3946
-18.3983
-18.4064
-18.4191
-18.4348
-18.4511
-18.4647
-18.4719
-18.4705
-18.4607
-18.4453
-18.4285
-18.4144
-18.4044
-18.398
-18.3947
-18.3932
-18.3922
-18.3914
-18.3908
-18.3905
-18.3902
-18.39
-18.3898
-18.3898
-18.3898
-18.3898
-18.3898
-18.3899
-18.3899
-18.3901
-18.3902
-18.3905
-18.3908
-18.3911
-18.3916
-18.3922
-18.3929
-18.3939
-18.3953
-18.3971
-18.3994
-18.4025
-18.4066
-18.4124
-18.4207
-18.4312
-18.4414
-18.4472
-18.4461
-18.4383
-18.4267
-18.4163
-18.4091
-18.4066
-18.4014
-18.3974
-18.3958
-18.3945
-18.3932
-18.3923
-18.3918
-18.3914
-18.3911
-18.391
-18.3909
-18.3908
-18.8823
-18.8823
-18.8823
-18.8823
-18.8823
-18.8823
-18.8823
-18.8823
-18.8824
-18.8825
-18.8828
-18.8833
-18.8841
-18.8853
-18.8876
-18.8923
-18.8999
-18.9099
-18.9202
-18.9287
-18.9332
-18.9327
-18.9268
-18.9173
-18.9071
-18.8982
-18.8917
-18.8874
-18.8851
-18.8839
-18.883
-18.8823
-18.8818
-18.8814
-18.8811
-18.8809
-18.8808
-18.8807
-18.8807
-18.8807
-18.8807
-18.8807
-18.8808
-18.8809
-18.8811
-18.8813
-18.8816
-18.882
-18.8824
-18.883
-18.8837
-18.8847
-18.8859
-18.8874
-18.8894
-18.8919
-18.8952
-18.8993
-18.9044
-18.9098
-18.9143
-18.916
-18.9143
-18.91
-18.9044
-18.8997
-18.8965
-18.8937
-18.8906
-18.8885
-18.8868
-18.8852
-18.884
-18.8832
-18.8826
-18.8822
-18.882
-18.8818
-18.8817
-18.8816
-19.3729
-19.373
-19.373
-19.373
-19.373
-19.373
-19.373
-19.3731
-19.3732
-19.3734
-19.3737
-19.3742
-19.375
-19.376
-19.3776
-19.3804
-19.3846
-19.39
-19.3957
-19.4005
-19.4035
-19.4039
-19.4011
-19.3957
-19.3897
-19.3844
-19.3802
-19.3773
-19.3757
-19.3747
-19.3738
-19.3732
-19.3727
-19.3723
-19.372
-19.3718
-19.3717
-19.3715
-19.3715
-19.3715
-19.3715
-19.3716
-19.3716
-19.3718
-19.3719
-19.3722
-19.3725
-19.3728
-19.3732
-19.3738
-19.3745
-19.3753
-19.3763
-19.3776
-19.3793
-19.3813
-19.3838
-19.3869
-19.3904
-19.3938
-19.3964
-19.3974
-19.3964
-19.3937
-19.3906
-19.3879
-19.3858
-19.3834
-19.381
-19.379
-19.3771
-19.3757
-19.3746
-19.3739
-19.3734
-19.373
-19.3728
-19.3726
-19.3725
-19.3724
-19.8636
-19.8636
-19.8636
-19.8636
-19.8637
-19.8637
-19.8637
-19.8638
-19.864
-19.8642
-19.8646
-19.8651
-19.8658
-19.8668
-19.8681
-19.8699
-19.8725
-19.8758
-19.879
-19.8819
-19.8837
-19.8839
-19.8823
-19.8794
-19.8759
-19.8723
-19.8695
-19.8677
-19.8664
-19.8654
-19.8647
-19.864
-19.8636
-19.8632
-19.8629
-19.8627
-19.8625
-19.8624
-19.8624
-19.8623
-19.8623
-19.8624
-19.8624
-19.8626
-19.8627
-19.863
-19.8632
-19.8636
-19.864
-19.8645
-19.8651
-19.8658
-19.8667
-19.8678
-19.8692
-19.8707
-19.8726
-19.8748
-19.8772
-19.8795
-19.8812
-19.882
-19.8817
-19.8802
-19.8783
-19.8764
-19.8745
-19.8725
-19.8704
-19.8686
-19.8671
-19.866
-19.8652
-19.8645
-19.8641
-19.8637
-19.8635
-19.8633
-19.8632
-19.8631
-20.3542
-20.3543
-20.3543
-20.3543
-20.3543
-20.3544
-20.3545
-20.3546
-20.3548
-20.355
-20.3554
-20.3559
-20.3566
-20.3574
-20.3586
-20.36
-20.3619
-20.3642
-20.3665
-20.3681
-20.3687
-20.3688
-20.3679
-20.366
-20.3637
-20.3614
-20.3596
-20.3582
-20.3571
-20.3562
-20.3554
-20.3549
-20.3544
-20.354
-20.3538
-20.3535
-20.3534
-20.3532
-20.3532
-20.3531
-20.3531
-20.3532
-20.3532
-20.3533
-20.3535
-20.3537
-20.354
-20.3543
-20.3547
-20.3551
-20.3557
-20.3563
-20.3571
-20.358
-20.3591
-20.3603
-20.3617
-20.3633
-20.3648
-20.3663
-20.3674
-20.3679
-20.3677
-20.3669
-20.3657
-20.3643
-20.3628
-20.3612
-20.3597
-20.3583
-20.3573
-20.3564
-20.3557
-20.3551
-20.3547
-20.3544
-20.3542
-20.354
-20.3539
-20.3538
-20.8449
-20.8449
-20.8449
-20.845
-20.845
-20.8451
-20.8452
-20.8453
-20.8455
-20.8458
-20.8461
-20.8466
-20.8472
-20.848
-20.849
-20.8502
-20.8516
-20.8532
-20.8548
-20.8561
-20.8569
-20.8565
-20.8557
-20.8543
-20.8527
-20.8513
-20.8499
-20.8487
-20.8477
-20.8468
-20.8462
-20.8456
-20.8452
-20.8448
-20.8446
-20.8443
-20.8442
-20.844
-20.844
-20.8439
-20.8439
-20.8439
-20.844
-20.8441
-20.8442
-20.8444
-20.8447
-20.845
-20.8453
-20.8457
-20.8462
-20.8468
-20.8474
-20.8482
-20.849
-20.85
-20.8511
-20.8522
-20.8533
-20.8542
-20.8549
-20.8551
-20.855
-20.8544
-20.8536
-20.8526
-20.8515
-20.8504
-20.8493
-20.8483
-20.8474
-20.8467
-20.8461
-20.8457
-20.8453
-20.845
-20.8448
-20.8446
-20.8445
-20.8445
-21.3355
-21.3355
-21.3356
-21.3356
-21.3357
-21.3357
-21.3359
-21.336
-21.3362
-21.3365
-21.3368
-21.3373
-21.3378
-21.3385
-21.3394
-21.3404
-21.3415
-21.3427
-21.3437
-21.3446
-21.3451
-21.3449
-21.3444
-21.3435
-21.3424
-21.3412
-21.34