/*--------------------------------*- C++ -*----------------------------------*\
| =========                 |                                                 |
| \\      /  F ield         | OpenFOAM: The Open Source CFD Toolbox           |
|  \\    /   O peration     | Version:  2412                                  |
|   \\  /    A nd           | Website:  www.openfoam.com                      |
|    \\/     M anipulation  |                                                 |
\*---------------------------------------------------------------------------*/
FoamFile
{
    version     2.0;
    format      ascii;
    arch        "LSB;label=32;scalar=64";
    class       volScalarField;
    location    "6.2";
    object      p;
}
// * * * * * * * * * * * * * * * * * * * * * * * * * * * * * * * * * * * * * //

dimensions      [1 -1 -2 0 0 0 0];

internalField   nonuniform List<scalar> 
6400
(
7644.66
7644.23
7643.32
7641.91
7640
7637.62
7634.79
7631.55
7627.93
7623.97
7619.73
7615.24
7610.55
7605.73
7600.81
7595.86
7590.93
7586.08
7581.35
7576.8
7572.48
7568.43
7564.7
7561.31
7558.29
7555.65
7553.41
7551.56
7550.09
7548.97
7548.18
7547.68
7547.42
7547.36
7547.45
7547.64
7547.88
7548.13
7548.36
7548.55
7548.67
7548.73
7548.74
7548.71
7548.66
7548.65
7548.71
7548.88
7549.2
7549.74
7550.53
7551.61
7553
7554.74
7556.83
7559.3
7562.12
7565.3
7568.81
7572.63
7576.73
7581.06
7585.59
7590.27
7595.03
7599.85
7604.65
7609.39
7614.02
7618.48
7622.71
7626.68
7630.33
7633.61
7636.48
7638.9
7640.85
7642.29
7643.22
7643.66
7258.08
7257.65
7256.73
7255.31
7253.39
7250.99
7248.14
7244.87
7241.22
7237.23
7232.95
7228.42
7223.7
7218.83
7213.87
7208.88
7203.9
7199
7194.23
7189.63
7185.27
7181.19
7177.42
7174.01
7170.97
7168.33
7166.08
7164.23
7162.77
7161.67
7160.9
7160.43
7160.2
7160.17
7160.29
7160.51
7160.78
7161.05
7161.3
7161.5
7161.62
7161.68
7161.68
7161.63
7161.56
7161.52
7161.55
7161.69
7161.99
7162.5
7163.27
7164.32
7165.71
7167.44
7169.53
7172
7174.84
7178.04
7181.57
7185.42
7189.56
7193.93
7198.5
7203.21
7208.02
7212.88
7217.73
7222.51
7227.18
7231.68
7235.95
7239.95
7243.63
7246.94
7249.84
7252.29
7254.25
7255.7
7256.64
7257.08
6871.97
6871.54
6870.61
6869.16
6867.21
6864.77
6861.87
6858.54
6854.82
6850.76
6846.41
6841.8
6836.99
6832.03
6826.97
6821.88
6816.8
6811.8
6806.93
6802.24
6797.8
6793.64
6789.81
6786.35
6783.28
6780.61
6778.37
6776.54
6775.11
6774.05
6773.34
6772.94
6772.78
6772.83
6773.03
6773.32
6773.65
6773.97
6774.26
6774.48
6774.61
6774.65
6774.62
6774.53
6774.42
6774.31
6774.27
6774.34
6774.57
6775.02
6775.72
6776.73
6778.08
6779.78
6781.87
6784.35
6787.21
6790.44
6794.03
6797.95
6802.15
6806.6
6811.26
6816.07
6820.97
6825.93
6830.87
6835.75
6840.5
6845.09
6849.45
6853.53
6857.28
6860.66
6863.62
6866.11
6868.11
6869.6
6870.55
6871
6486.37
6485.93
6484.98
6483.5
6481.5
6478.99
6476
6472.58
6468.76
6464.59
6460.1
6455.36
6450.41
6445.31
6440.1
6434.84
6429.61
6424.44
6419.42
6414.59
6410.01
6405.74
6401.82
6398.28
6395.16
6392.47
6390.23
6388.44
6387.06
6386.09
6385.48
6385.19
6385.17
6385.34
6385.67
6386.07
6386.51
6386.92
6387.26
6387.52
6387.66
6387.68
6387.61
6387.45
6387.24
6387.04
6386.88
6386.83
6386.94
6387.27
6387.88
6388.8
6390.08
6391.74
6393.81
6396.3
6399.19
6402.48
6406.15
6410.16
6414.48
6419.06
6423.85
6428.81
6433.86
6438.97
6444.06
6449.09
6453.99
6458.71
6463.21
6467.41
6471.29
6474.78
6477.83
6480.41
6482.47
6483.99
6484.97
6485.43
6101.28
6100.83
6099.86
6098.33
6096.26
6093.65
6090.55
6087
6083.03
6078.7
6074.05
6069.13
6063.99
6058.67
6053.25
6047.78
6042.32
6036.94
6031.7
6026.67
6021.91
6017.47
6013.41
6009.77
6006.59
6003.88
6001.65
5999.9
5998.62
5997.77
5997.31
5997.19
5997.34
5997.71
5998.21
5998.79
5999.37
5999.91
6000.34
6000.65
6000.8
6000.8
6000.65
6000.39
6000.06
5999.7
5999.37
5999.15
5999.09
5999.25
5999.71
6000.51
6001.69
6003.29
6005.33
6007.82
6010.76
6014.13
6017.9
6022.05
6026.53
6031.29
6036.27
6041.43
6046.69
6052.01
6057.31
6062.54
6067.65
6072.56
6077.24
6081.62
6085.66
6089.3
6092.48
6095.17
6097.32
6098.91
6099.92
6100.39
5716.72
5716.26
5715.26
5713.67
5711.5
5708.77
5705.52
5701.8
5697.65
5693.12
5688.26
5683.1
5677.71
5672.14
5666.44
5660.68
5654.94
5649.27
5643.75
5638.45
5633.45
5628.8
5624.57
5620.79
5617.52
5614.77
5612.57
5610.89
5609.73
5609.04
5608.79
5608.9
5609.3
5609.92
5610.68
5611.48
5612.27
5612.97
5613.53
5613.9
5614.07
5614.03
5613.79
5613.39
5612.88
5612.31
5611.76
5611.29
5610.99
5610.93
5611.19
5611.81
5612.87
5614.38
5616.38
5618.88
5621.87
5625.34
5629.26
5633.59
5638.27
5643.27
5648.51
5653.93
5659.46
5665.05
5670.62
5676.12
5681.48
5686.64
5691.55
5696.15
5700.4
5704.23
5707.6
5710.43
5712.7
5714.36
5715.42
5715.9
5332.71
5332.24
5331.19
5329.53
5327.24
5324.35
5320.92
5316.99
5312.63
5307.86
5302.74
5297.3
5291.61
5285.71
5279.68
5273.57
5267.46
5261.42
5255.55
5249.92
5244.61
5239.69
5235.22
5231.28
5227.9
5225.11
5222.92
5221.34
5220.34
5219.87
5219.88
5220.29
5221.02
5221.98
5223.06
5224.18
5225.23
5226.15
5226.86
5227.33
5227.52
5227.42
5227.07
5226.49
5225.74
5224.89
5224.03
5223.25
5222.64
5222.28
5222.27
5222.67
5223.55
5224.95
5226.9
5229.41
5232.48
5236.07
5240.17
5244.73
5249.68
5254.98
5260.53
5266.29
5272.17
5278.09
5284
5289.82
5295.49
5300.95
5306.15
5311.02
5315.52
5319.59
5323.17
5326.2
5328.61
5330.37
5331.48
5331.98
4949.25
4948.77
4947.68
4945.92
4943.49
4940.41
4936.75
4932.59
4927.97
4922.93
4917.51
4911.75
4905.69
4899.41
4892.97
4886.43
4879.87
4873.4
4867.08
4861.03
4855.33
4850.07
4845.32
4841.16
4837.64
4834.79
4832.64
4831.18
4830.37
4830.19
4830.54
4831.34
4832.49
4833.87
4835.38
4836.89
4838.29
4839.49
4840.41
4840.99
4841.21
4841.05
4840.53
4839.72
4838.66
4837.46
4836.21
4835.02
4834
4833.26
4832.91
4833.03
4833.68
4834.94
4836.82
4839.34
4842.5
4846.26
4850.59
4855.43
4860.72
4866.38
4872.33
4878.5
4884.79
4891.13
4897.45
4903.66
4909.7
4915.51
4921.04
4926.22
4931.02
4935.38
4939.23
4942.49
4945.09
4946.97
4948.14
4948.65
4566.36
4565.9
4564.76
4562.87
4560.24
4556.92
4553.01
4548.58
4543.68
4538.34
4532.61
4526.45
4519.99
4513.26
4506.33
4499.27
4492.19
4485.17
4478.32
4471.76
4465.58
4459.89
4454.79
4450.36
4446.64
4443.72
4441.61
4440.29
4439.75
4439.91
4440.69
4441.99
4443.67
4445.6
4447.64
4449.65
4451.49
4453.05
4454.24
4454.97
4455.22
4454.97
4454.26
4453.14
4451.69
4450.03
4448.28
4446.58
4445.04
4443.82
4443.03
4442.79
4443.17
4444.24
4446.04
4448.59
4451.86
4455.83
4460.44
4465.64
4471.34
4477.45
4483.88
4490.54
4497.34
4504.17
4510.97
4517.64
4524.11
4530.33
4536.24
4541.78
4546.91
4551.59
4555.75
4559.3
4562.14
4564.19
4565.44
4565.94
4184.07
4183.66
4182.43
4180.35
4177.43
4173.82
4169.65
4164.97
4159.78
4154.11
4147.97
4141.44
4134.52
4127.28
4119.78
4112.12
4104.4
4096.73
4089.23
4082.04
4075.27
4069.06
4063.51
4058.73
4054.8
4051.78
4049.7
4048.57
4048.34
4048.94
4050.26
4052.17
4054.52
4057.15
4059.86
4062.5
4064.9
4066.91
4068.42
4069.35
4069.64
4069.29
4068.32
4066.82
4064.88
4062.65
4060.27
4057.9
4055.72
4053.89
4052.56
4051.86
4051.9
4052.75
4054.45
4057.03
4060.45
4064.68
4069.65
4075.28
4081.48
4088.14
4095.15
4102.41
4109.8
4117.22
4124.58
4131.78
4138.75
4145.42
4151.75
4157.68
4163.17
4168.17
4172.66
4176.57
4179.76
4182.05
4183.42
4183.88
3802.41
3802.06
3800.63
3798.14
3794.81
3790.9
3786.56
3781.72
3776.29
3770.32
3763.8
3756.8
3749.35
3741.51
3733.36
3724.98
3716.5
3708.05
3699.78
3691.82
3684.34
3677.48
3671.39
3666.18
3661.94
3658.8
3656.76
3655.85
3656.01
3657.15
3659.14
3661.83
3665.01
3668.49
3672.05
3675.47
3678.57
3681.15
3683.07
3684.23
3684.57
3684.08
3682.8
3680.82
3678.27
3675.31
3672.14
3668.96
3665.98
3663.39
3661.38
3660.11
3659.73
3660.31
3661.91
3664.52
3668.15
3672.7
3678.1
3684.27
3691.08
3698.4
3706.11
3714.08
3722.18
3730.29
3738.3
3746.11
3753.64
3760.82
3767.62
3773.94
3779.77
3785
3789.74
3794.04
3797.72
3800.49
3802.11
3802.53
3421.44
3421.04
3419.13
3415.92
3412.06
3407.98
3403.66
3398.88
3393.25
3386.96
3380.07
3372.58
3364.54
3356.02
3347.1
3337.89
3328.51
3319.14
3309.92
3301.05
3292.7
3285.04
3278.27
3272.52
3267.9
3264.59
3262.6
3261.95
3262.58
3264.39
3267.22
3270.86
3275.08
3279.63
3284.22
3288.62
3292.56
3295.84
3298.27
3299.71
3300.11
3299.45
3297.77
3295.2
3291.88
3288.03
3283.89
3279.69
3275.71
3272.18
3269.34
3267.38
3266.49
3266.75
3268.22
3270.92
3274.8
3279.76
3285.71
3292.53
3300.07
3308.19
3316.74
3325.55
3334.48
3343.4
3352.17
3360.68
3368.84
3376.58
3383.83
3390.57
3396.78
3401.99
3406.81
3411.39
3415.71
3419.29
3421.44
3421.95
3041.34
3040.57
3037.86
3033.74
3029.38
3025.27
3021.12
3016.31
3010.72
3004.2
2996.89
2988.86
2980.16
2970.86
2961.06
2950.87
2940.44
2929.96
2919.62
2909.64
2900.23
2891.6
2883.98
2877.57
2872.44
2868.91
2866.96
2866.61
2867.82
2870.45
2874.32
2879.15
2884.65
2890.51
2896.39
2901.98
2906.97
2911.1
2914.14
2915.92
2916.38
2915.49
2913.32
2910
2905.74
2900.79
2895.44
2890
2884.79
2880.1
2876.23
2873.44
2871.93
2871.82
2873.18
2875.98
2880.21
2885.7
2892.33
2899.96
2908.4
2917.48
2927.01
2936.83
2946.74
2956.6
2966.25
2975.56
2984.43
2992.78
3000.53
3007.57
3013.7
3019.26
3024.11
3028.88
3033.82
3038.41
3041.43
3042.34
2662.36
2660.95
2657.36
2652.46
2647.73
2643.59
2639.53
2634.79
2629.02
2622.19
2614.41
2605.75
2596.32
2586.14
2575.32
2563.98
2552.31
2540.51
2528.83
2517.51
2506.81
2496.98
2488.31
2481.06
2475.26
2471.44
2469.52
2469.53
2471.43
2475.08
2480.22
2486.53
2493.6
2501.08
2508.54
2515.58
2521.86
2527.02
2530.81
2533.01
2533.54
2532.37
2529.57
2525.32
2519.88
2513.57
2506.74
2499.76
2493.03
2486.92
2481.8
2477.99
2475.76
2475.23
2476.47
2479.46
2484.16
2490.32
2497.81
2506.42
2515.95
2526.19
2536.91
2547.91
2558.99
2569.94
2580.61
2590.83
2600.5
2609.57
2617.91
2625.43
2631.96
2637.6
2642.55
2647.53
2652.98
2658.44
2662.38
2663.97
2284.83
2282.79
2278.53
2273.1
2268.03
2263.64
2259.36
2254.48
2248.35
2241.05
2232.69
2223.39
2213.16
2202
2190
2177.31
2164.16
2150.8
2137.51
2124.57
2112.29
2100.98
2090.97
2082.58
2076.06
2071.79
2069.83
2070.24
2072.97
2077.84
2084.57
2092.71
2101.74
2111.23
2120.62
2129.44
2137.27
2143.72
2148.42
2151.14
2151.75
2150.23
2146.66
2141.26
2134.37
2126.37
2117.71
2108.82
2100.21
2092.32
2085.65
2080.62
2077.54
2076.56
2077.73
2081
2086.32
2093.35
2101.93
2111.77
2122.63
2134.25
2146.4
2158.81
2171.26
2183.51
2195.35
2206.6
2217.17
2227.02
2236.08
2244.23
2251.33
2257.42
2262.81
2268.24
2274.21
2280.3
2284.97
2287.21
1908.94
1906.59
1901.82
1895.94
1890.37
1885.38
1880.46
1875.43
1868.71
1860.89
1851.96
1841.94
1830.82
1818.64
1805.33
1791.06
1776.16
1760.93
1745.71
1730.82
1716.61
1703.43
1691.7
1681.84
1674.28
1669.37
1667.3
1668.13
1671.8
1678.17
1686.86
1697.32
1708.82
1720.79
1732.55
1743.55
1753.3
1761.31
1767.16
1770.53
1771.26
1769.31
1764.77
1757.95
1749.25
1739.18
1728.24
1716.96
1705.97
1695.85
1687.25
1680.76
1676.72
1675.28
1676.45
1680.19
1686.32
1694.54
1704.51
1715.89
1728.37
1741.67
1755.51
1769.61
1783.67
1797.44
1810.64
1822.98
1834.54
1845.25
1855.09
1863.95
1871.79
1878.66
1884.83
1891.08
1897.74
1904.45
1909.73
1912.34
1534.76
1532.24
1527.13
1520.73
1514.41
1508.59
1502.94
1496.92
1489.84
1481.63
1472.24
1461.64
1449.76
1436.57
1421.78
1405.58
1388.6
1371.17
1353.64
1336.39
1319.79
1304.19
1290.14
1278.24
1269.16
1263.31
1260.96
1262.19
1266.96
1275.11
1286.27
1299.69
1314.43
1329.42
1344.01
1357.6
1369.73
1379.79
1387.15
1391.35
1392.21
1389.68
1383.85
1375.14
1364.19
1351.63
1337.95
1323.71
1309.66
1296.7
1285.7
1277.46
1272.36
1270.48
1271.81
1276.29
1283.68
1293.59
1305.47
1318.85
1333.33
1348.64
1364.49
1380.55
1396.51
1412.1
1426.94
1440.32
1452.79
1464.3
1474.87
1484.43
1493.09
1500.93
1508.29
1515.72
1523.42
1530.86
1536.63
1539.48
1161.91
1159.19
1153.72
1146.74
1139.51
1132.64
1126.03
1119.21
1111.7
1103.23
1093.61
1082.68
1070.21
1055.95
1039.88
1021.14
1001.76
981.775
961.522
941.493
922.086
903.498
886.416
871.95
860.892
853.801
850.952
852.338
857.897
867.611
881.437
898.616
917.399
936.068
953.871
970.446
985.328
997.605
1006.47
1011.4
1012.38
1009.34
1002.23
991.502
977.932
962.445
945.654
927.93
910.044
893.474
879.766
870.007
864.218
862.24
863.985
869.524
878.604
890.708
905.057
920.917
937.707
955.381
973.574
991.903
1010.04
1027.8
1043.93
1058.76
1072.09
1084.21
1095.34
1105.57
1115.05
1124.01
1132.76
1141.64
1150.63
1158.98
1165.35
1168.49
790.149
787.097
781.064
773.303
765.049
757.026
749.349
741.814
734.023
725.577
716.13
705.338
692.74
677.705
658.869
637.85
616.013
593.136
569.603
546.264
523.546
500.918
479.097
460.293
445.781
436.413
432.611
434.168
441.069
453.318
470.924
493.215
517.505
540.64
562.713
582.936
600.592
614.763
624.945
630.7
631.868
628.27
619.983
607.515
591.318
572.255
551.189
528.824
506.039
484.784
467.359
455.327
448.551
446.6
449.095
456.612
468.719
484.661
502.968
521.952
541.505
562.073
583.042
603.971
624.471
644.257
663.441
679.006
692.72
705.058
716.427
727.081
737.308
747.455
757.776
768.346
778.88
788.459
795.711
799.356
419.916
416.479
409.41
400.627
391.328
382.239
373.666
365.929
358.512
350.845
342.379
332.71
321.075
306.687
288.955
267.505
246.962
227.168
207.885
189.214
171.063
152.236
134.579
120.47
110.405
104.208
101.727
102.381
106.362
113.931
125.496
142.429
162.031
181.734
201.432
220.521
237.481
251.691
262.753
269.366
270.601
265.992
256.621
243.752
228.013
209.825
190.422
170.719
151.58
134.698
122.254
114.545
110.645
109.996
111.745
117.133
126.103
138.885
154.142
169.553
184.823
200.954
217.775
235.247
254.005
273.473
290.71
305.485
318.404
329.917
340.626
350.851
361.075
371.933
383.789
396.078
408.417
419.726
428.409
432.71
121.981
119.693
114.302
108.083
101.548
95.2242
90.8077
87.243
83.9219
80.5093
76.5187
71.8073
65.6037
57.5339
48.3413
38.4534
29.6089
22.6653
16.8797
11.9064
7.23125
2.61695
-0.909306
-3.04791
-4.14656
-4.75425
-5.06394
-5.18877
-5.11402
-4.65747
-3.71963
-2.04295
0.0327401
4.33486
11.2541
19.6229
28.4085
36.8175
44.3738
48.6975
49.455
46.3278
39.6674
31.6349
23.1267
14.5174
7.09401
1.90252
-0.599862
-2.61098
-4.00499
-4.90418
-5.30439
-5.28404
-4.97835
-4.25122
-3.03313
-0.704119
2.75199
6.60897
10.351
14.4121
19.2147
24.8607
32.1819
40.5106
48.6863
56.4722
63.4044
69.2427
74.5723
79.5216
84.5181
90.0716
96.6171
105.211
114.322
122.866
129.731
133.08
-3.68953
-4.38299
-5.36588
-6.61019
-8.10443
-9.56644
-9.91279
-10.0141
-9.98249
-9.89853
-9.85111
-9.84945
-9.85503
-9.77975
-9.6837
-9.6441
-9.60634
-9.48437
-9.27365
-9.09869
-8.91465
-8.55931
-8.12842
-7.8176
-7.62479
-7.56574
-7.63563
-7.8505
-8.22686
-8.77242
-9.29564
-9.57988
-9.74589
-10.0124
-10.2972
-10.3974
-10.2771
-10.1286
-10.0144
-9.90644
-9.84377
-9.86383
-9.92155
-9.9733
-10.0077
-10.0107
-9.91481
-9.77689
-9.69282
-9.51753
-9.2815
-9.11475
-9.0183
-8.91274
-8.81203
-8.79212
-8.90085
-9.07328
-9.19072
-9.22733
-9.30282
-9.39446
-9.47261
-9.5397
-9.62492
-9.72016
-9.80714
-9.87742
-9.90988
-9.93719
-9.95683
-9.96027
-9.9183
-9.73254
-9.22616
-7.39779
-5.34402
-3.53252
-2.0074
-0.875192
-10.4779
-10.5446
-10.5709
-10.5721
-10.5495
-10.4737
-10.4929
-10.4906
-10.4334
-10.3332
-10.2567
-10.2208
-10.2073
-10.1945
-10.1474
-10.1258
-10.1058
-10.0095
-9.85677
-9.69032
-9.48139
-9.17576
-8.83497
-8.57697
-8.42721
-8.38541
-8.45059
-8.6328
-8.93914
-9.34487
-9.75096
-10.0606
-10.355
-10.5883
-10.6734
-10.5865
-10.4388
-10.3254
-10.2425
-10.1573
-10.111
-10.1302
-10.1757
-10.224
-10.271
-10.3132
-10.3416
-10.2901
-10.1826
-10.0606
-9.91254
-9.78599
-9.68584
-9.5891
-9.52292
-9.52286
-9.60238
-9.7163
-9.79429
-9.83052
-9.88141
-9.94072
-9.99408
-10.0494
-10.1057
-10.1649
-10.222
-10.2687
-10.3083
-10.3403
-10.3641
-10.3855
-10.3909
-10.3718
-10.3066
-10.3716
-10.4099
-10.4287
-10.4664
-10.4832
-11.077
-11.0932
-11.0913
-11.109
-11.1153
-11.0779
-11.051
-11.0327
-10.9725
-10.8599
-10.7634
-10.7397
-10.7581
-10.7341
-10.686
-10.6623
-10.6286
-10.5515
-10.4344
-10.2858
-10.0911
-9.84048
-9.55809
-9.34923
-9.24855
-9.24198
-9.3246
-9.49208
-9.73815
-10.042
-10.364
-10.6415
-10.8594
-10.9588
-10.935
-10.8781
-10.8225
-10.7586
-10.6677
-10.5832
-10.5597
-10.5749
-10.6164
-10.6704
-10.6893
-10.6587
-10.6225
-10.6288
-10.6453
-10.616
-10.5247
-10.4168
-10.317
-10.2374
-10.1878
-10.1685
-10.1981
-10.2696
-10.3413
-10.3943
-10.4485
-10.4967
-10.5362
-10.5723
-10.6136
-10.6603
-10.7096
-10.7589
-10.8037
-10.8441
-10.8744
-10.8831
-10.8707
-10.8447
-10.8564
-10.879
-10.8863
-10.896
-10.9283
-10.9472
-11.6658
-11.6378
-11.6124
-11.6308
-11.6635
-11.6604
-11.6278
-11.5851
-11.5221
-11.4077
-11.282
-11.2394
-11.2405
-11.2097
-11.1759
-11.1668
-11.1646
-11.1248
-11.0481
-10.9315
-10.7614
-10.566
-10.346
-10.1762
-10.1266
-10.1598
-10.2461
-10.3904
-10.5804
-10.7985
-11.0277
-11.2469
-11.3978
-11.4375
-11.3847
-11.3153
-11.2496
-11.1767
-11.1058
-11.0583
-11.045
-11.0515
-11.0734
-11.12
-11.1326
-11.0905
-11.0506
-11.0669
-11.1327
-11.1771
-11.1357
-11.0498
-10.9601
-10.8798
-10.8335
-10.843
-10.8526
-10.8519
-10.8976
-10.9634
-11.0121
-11.0398
-11.0551
-11.0768
-11.1112
-11.1543
-11.1996
-11.2452
-11.29
-11.3348
-11.3735
-11.3883
-11.392
-11.3968
-11.4184
-11.4266
-11.4119
-11.401
-11.4115
-11.4282
-12.2053
-12.181
-12.1866
-12.2322
-12.2938
-12.3183
-12.2871
-12.2101
-12.1145
-11.9955
-11.8561
-11.778
-11.7414
-11.6919
-11.6725
-11.7006
-11.7542
-11.7565
-11.7171
-11.6239
-11.4766
-11.3118
-11.1448
-11.0273
-11.0316
-11.1094
-11.2002
-11.2993
-11.436
-11.6021
-11.7717
-11.9233
-12.0149
-12.0217
-11.9412
-11.8431
-11.7669
-11.7066
-11.6534
-11.607
-11.5816
-11.5812
-11.585
-11.6241
-11.6263
-11.5998
-11.5757
-11.6026
-11.6511
-11.7266
-11.7348
-11.6782
-11.6115
-11.5479
-11.4856
-11.4546
-11.4255
-11.3975
-11.4305
-11.5042
-11.5507
-11.5637
-11.5624
-11.5715
-11.6067
-11.6566
-11.7062
-11.7542
-11.8002
-11.8414
-11.8757
-11.9001
-11.9139
-11.9268
-11.9672
-12.009
-11.9851
-11.9544
-11.9265
-11.9521
-12.7208
-12.7425
-12.8068
-12.8943
-12.9739
-13.0085
-12.9777
-12.8886
-12.7596
-12.6191
-12.4888
-12.3731
-12.2904
-12.2405
-12.2477
-12.323
-12.4065
-12.4455
-12.4242
-12.3322
-12.1943
-12.0622
-11.959
-11.9025
-11.9289
-12.0136
-12.1218
-12.2162
-12.3068
-12.4141
-12.5248
-12.6265
-12.6807
-12.6451
-12.5313
-12.4133
-12.3306
-12.2704
-12.2188
-12.1752
-12.1458
-12.1316
-12.1225
-12.1545
-12.1763
-12.1711
-12.1671
-12.1686
-12.1746
-12.2362
-12.2707
-12.2448
-12.1928
-12.1306
-12.0499
-11.9664
-11.899
-11.8708
-11.9215
-12.0149
-12.0787
-12.1078
-12.1025
-12.0964
-12.1246
-12.1814
-12.2348
-12.283
-12.328
-12.3668
-12.3981
-12.4203
-12.4371
-12.4583
-12.4986
-12.5516
-12.5622
-12.5235
-12.4663
-12.4676
-13.246
-13.3099
-13.3903
-13.4832
-13.5624
-13.6022
-13.5915
-13.5342
-13.432
-13.2993
-13.1635
-13.015
-12.8999
-12.8618
-12.8958
-12.9992
-13.1029
-13.1478
-13.1131
-13.0203
-12.9034
-12.8117
-12.7657
-12.7467
-12.7816
-12.8679
-12.9857
-13.1052
-13.1982
-13.2551
-13.285
-13.3314
-13.3577
-13.2807
-13.1302
-12.9935
-12.9003
-12.8347
-12.7845
-12.746
-12.7164
-12.6949
-12.6841
-12.7054
-12.7524
-12.745
-12.7247
-12.6919
-12.6828
-12.7049
-12.7355
-12.7277
-12.6839
-12.6208
-12.5474
-12.4636
-12.3925
-12.3745
-12.4258
-12.5357
-12.6325
-12.6778
-12.6766
-12.6669
-12.6888
-12.7388
-12.7907
-12.8373
-12.8784
-12.9145
-12.942
-12.9603
-12.9736
-12.9887
-13.0118
-13.0462
-13.0754
-13.0654
-12.9991
-12.9621
-13.7869
-13.864
-13.9283
-14.0096
-14.0743
-14.1153
-14.1342
-14.1381
-14.0914
-13.9851
-13.8498
-13.6662
-13.5496
-13.5207
-13.5679
-13.6798
-13.789
-13.8171
-13.7762
-13.6888
-13.6027
-13.5461
-13.5253
-13.5388
-13.609
-13.7148
-13.8281
-13.9409
-14.0223
-14.0347
-14.0125
-14.0194
-14.0173
-13.9012
-13.7223
-13.5715
-13.4691
-13.3995
-13.3501
-13.3138
-13.2859
-13.2659
-13.2565
-13.2691
-13.3196
-13.3113
-13.2543
-13.1862
-13.1618
-13.156
-13.1592
-13.1447
-13.1091
-13.0618
-13.0101
-12.9551
-12.9227
-12.921
-12.9415
-13.0218
-13.1277
-13.1955
-13.2238
-13.2483
-13.2804
-13.3199
-13.3723
-13.4214
-13.4608
-13.4916
-13.5124
-13.5221
-13.5235
-13.5224
-13.5235
-13.5286
-13.5338
-13.5394
-13.4882
-13.4339
-14.3126
-14.383
-14.4397
-14.5151
-14.5804
-14.6352
-14.6903
-14.7275
-14.7083
-14.617
-14.4836
-14.3144
-14.1906
-14.1536
-14.2001
-14.3265
-14.4267
-14.4474
-14.4054
-14.333
-14.2665
-14.2327
-14.236
-14.2903
-14.396
-14.5261
-14.6365
-14.7195
-14.7565
-14.7294
-14.6867
-14.6767
-14.6426
-14.4906
-14.2968
-14.1415
-14.0357
-13.964
-13.9136
-13.8768
-13.8496
-13.8304
-13.8199
-13.8214
-13.8492
-13.8549
-13.8014
-13.7187
-13.6568
-13.6278
-13.6044
-13.5621
-13.5112
-13.4811
-13.4616
-13.4356
-13.4116
-13.407
-13.4288
-13.4854
-13.567
-13.6466
-13.7192
-13.7904
-13.8501
-13.9082
-13.9767
-14.0379
-14.0809
-14.1076
-14.1187
-14.1136
-14.0954
-14.0706
-14.0446
-14.0194
-13.9937
-13.9747
-13.95
-13.8982
-14.8035
-14.8649
-14.9177
-14.9906
-15.0661
-15.1375
-15.214
-15.2654
-15.2553
-15.1755
-15.0474
-14.8866
-14.7643
-14.7207
-14.7809
-14.9174
-15.0077
-15.0287
-14.9816
-14.9193
-14.8753
-14.8715
-14.9116
-14.9986
-15.1246
-15.2589
-15.356
-15.4106
-15.4182
-15.3697
-15.3139
-15.2997
-15.2262
-15.0427
-14.8455
-14.6947
-14.5915
-14.5204
-14.4696
-14.4316
-14.4027
-14.3806
-14.3654
-14.3554
-14.356
-14.3546
-14.3253
-14.2581
-14.168
-14.1225
-14.0903
-14.0406
-13.9881
-13.9686
-13.9563
-13.9307
-13.9069
-13.9047
-13.9254
-13.9614
-14.0158
-14.0939
-14.1969
-14.3058
-14.4107
-14.5152
-14.6199
-14.7052
-14.7591
-14.7828
-14.7795
-14.7498
-14.7009
-14.6442
-14.5853
-14.528
-14.4729
-14.4295
-14.3987
-14.37
-15.2555
-15.3086
-15.3594
-15.428
-15.5098
-15.5896
-15.6655
-15.7221
-15.7161
-15.6444
-15.5213
-15.3666
-15.2605
-15.2425
-15.3155
-15.4426
-15.5241
-15.5297
-15.4885
-15.45
-15.4453
-15.4753
-15.5432
-15.6479
-15.78
-15.8973
-15.9648
-15.9951
-15.9875
-15.9397
-15.8959
-15.8698
-15.7526
-15.5502
-15.362
-15.2233
-15.1278
-15.0611
-15.0126
-14.9756
-14.9457
-14.9204
-14.8993
-14.8805
-14.861
-14.837
-14.8058
-14.7623
-14.6999
-14.6412
-14.6139
-14.5999
-14.5589
-14.5081
-14.4795
-14.4423
-14.4135
-14.4089
-14.4206
-14.4415
-14.4824
-14.5632
-14.6891
-14.8423
-15.0138
-15.1906
-15.3531
-15.4673
-15.5258
-15.5395
-15.5189
-15.4509
-15.3574
-15.2572
-15.1562
-15.0616
-14.9772
-14.9096
-14.8661
-14.8494
-15.689
-15.7251
-15.7703
-15.8324
-15.9148
-15.9945
-16.0649
-16.1103
-16.1048
-16.0412
-15.9321
-15.8112
-15.741
-15.7566
-15.8168
-15.9058
-15.968
-15.9751
-15.9623
-15.9633
-15.9912
-16.047
-16.1272
-16.2304
-16.3512
-16.4401
-16.4793
-16.4974
-16.4884
-16.452
-16.4194
-16.3636
-16.2129
-16.0101
-15.8457
-15.7257
-15.6426
-15.5841
-15.5415
-15.5087
-15.4808
-15.4553
-15.4317
-15.4067
-15.371
-15.3246
-15.2854
-15.2498
-15.2157
-15.185
-15.1721
-15.1776
-15.1491
-15.0553
-15.003
-14.9576
-14.927
-14.9183
-14.9182
-14.9262
-14.9616
-15.0593
-15.2307
-15.4674
-15.763
-16.0694
-16.3238
-16.4855
-16.54
-16.5015
-16.3853
-16.2333
-16.082
-15.9256
-15.7686
-15.6262
-15.5082
-15.4164
-15.3613
-15.3393
-16.1132
-16.1336
-16.1703
-16.2236
-16.302
-16.3774
-16.4391
-16.474
-16.4667
-16.4155
-16.3373
-16.266
-16.2396
-16.2634
-16.3136
-16.3571
-16.3996
-16.4239
-16.4411
-16.4719
-16.5232
-16.5915
-16.6709
-16.7646
-16.8616
-16.9107
-16.9338
-16.9468
-16.9387
-16.9083
-16.8622
-16.7727
-16.6164
-16.4449
-16.3077
-16.2094
-16.1415
-16.0942
-16.0601
-16.0333
-16.0096
-15.9867
-15.9645
-15.9403
-15.8962
-15.8383
-15.7863
-15.7435
-15.7232
-15.7162
-15.7178
-15.7165
-15.6733
-15.583
-15.5162
-15.4684
-15.4382
-15.4252
-15.4148
-15.4151
-15.4632
-15.6105
-15.8812
-16.2645
-16.7289
-17.1905
-17.5482
-17.7551
-17.7956
-17.6884
-17.4469
-17.162
-16.887
-16.6508
-16.4265
-16.2251
-16.0648
-15.9445
-15.875
-15.8418
-16.5383
-16.5537
-16.5782
-16.6219
-16.6953
-16.7656
-16.8202
-16.8512
-16.8464
-16.8055
-16.7503
-16.7074
-16.707
-16.7437
-16.8076
-16.8431
-16.8666
-16.8896
-16.9265
-16.9801
-17.0437
-17.113
-17.1856
-17.2647
-17.3236
-17.3407
-17.3514
-17.3551
-17.3409
-17.3027
-17.2373
-17.1321
-16.9954
-16.8646
-16.7613
-16.6862
-16.6344
-16.5992
-16.5742
-16.5545
-16.5364
-16.5182
-16.5033
-16.4987
-16.4766
-16.4389
-16.3734
-16.3013
-16.2563
-16.2426
-16.2337
-16.2059
-16.148
-16.0745
-16.0031
-15.9601
-15.9339
-15.9143
-15.903
-15.903
-16.0023
-16.2495
-16.6245
-17.1296
-17.7308
-18.301
-18.7256
-18.9486
-18.9882
-18.8635
-18.5827
-18.2092
-17.8009
-17.4304
-17.1258
-16.8554
-16.6434
-16.4907
-16.4056
-16.3672
-16.9816
-16.9898
-17.0052
-17.0434
-17.1157
-17.1788
-17.2277
-17.2647
-17.2665
-17.2313
-17.1856
-17.1604
-17.1694
-17.2208
-17.2927
-17.3305
-17.3468
-17.3716
-17.4172
-17.4812
-17.5498
-17.6161
-17.6752
-17.7352
-17.7519
-17.7528
-17.7509
-17.74
-17.7114
-17.6612
-17.5892
-17.4939
-17.3891
-17.296
-17.2227
-17.1682
-17.1309
-17.1063
-17.0901
-17.0782
-17.0671
-17.0561
-17.0558
-17.0854
-17.1279
-17.1214
-17.0457
-16.9442
-16.8558
-16.8126
-16.7724
-16.6949
-16.5998
-16.5197
-16.4657
-16.4316
-16.4177
-16.3954
-16.3833
-16.3972
-16.5843
-16.9112
-17.326
-17.8956
-18.5913
-19.2167
-19.6497
-19.8718
-19.921
-19.8098
-19.5427
-19.1728
-18.7318
-18.2573
-17.8506
-17.5005
-17.2324
-17.0477
-16.947
-16.9168
-17.4469
-17.449
-17.4583
-17.5024
-17.5821
-17.6534
-17.7016
-17.7289
-17.7415
-17.7279
-17.7005
-17.6913
-17.7001
-17.7376
-17.781
-17.8088
-17.8274
-17.8605
-17.9082
-17.9734
-18.0373
-18.0914
-18.1368
-18.1658
-18.1683
-18.1625
-18.1509
-18.1287
-18.0915
-18.0378
-17.9703
-17.8937
-17.818
-17.7528
-17.7012
-17.663
-17.6368
-17.6207
-17.6125
-17.6082
-17.6048
-17.6028
-17.6144
-17.6601
-17.74
-17.7627
-17.6992
-17.5871
-17.4842
-17.4224
-17.3551
-17.2208
-17.0679
-16.9745
-16.9312
-16.912
-16.8997
-16.884
-16.863
-16.933
-17.1745
-17.4959
-17.9124
-18.5433
-19.2835
-19.911
-20.3281
-20.5476
-20.6011
-20.5125
-20.2986
-19.9673
-19.5409
-19.0489
-18.5592
-18.1245
-17.8096
-17.5973
-17.477
-17.4679
-17.9435
-17.9461
-17.9428
-18.0135
-18.1245
-18.2231
-18.2756
-18.2933
-18.3116
-18.3194
-18.3037
-18.2737
-18.2573
-18.2646
-18.2789
-18.2934
-18.3082
-18.3393
-18.3868
-18.4423
-18.4942
-18.5355
-18.5659
-18.5817
-18.5828
-18.5767
-18.5626
-18.5375
-18.5002
-18.4511
-18.3942
-18.3362
-18.2821
-18.2356
-18.1983
-18.1709
-18.1527
-18.1439
-18.1431
-18.1472
-18.1529
-18.1593
-18.1718
-18.2023
-18.2507
-18.2683
-18.223
-18.1371
-18.0634
-18.0189
-17.9417
-17.7659
-17.5718
-17.461
-17.4172
-17.4189
-17.4031
-17.3895
-17.3822
-17.4967
-17.7359
-18.0203
-18.4324
-19.0835
-19.8126
-20.42
-20.8371
-21.0719
-21.1461
-21.0825
-20.9049
-20.6025
-20.2016
-19.7156
-19.1729
-18.6834
-18.3482
-18.1199
-17.9838
-17.9994
-18.4739
-18.4813
-18.4671
-18.5619
-18.7134
-18.8506
-18.9139
-18.9353
-18.9469
-18.9346
-18.895
-18.8438
-18.8025
-18.7834
-18.7812
-18.7822
-18.7892
-18.8107
-18.8504
-18.8929
-18.9332
-18.9672
-18.9908
-19.0028
-19.006
-19.0023
-18.9899
-18.9675
-18.9354
-18.8956
-18.8526
-18.8095
-18.7702
-18.7354
-18.7076
-18.6884
-18.678
-18.6757
-18.6809
-18.6924
-18.708
-18.7233
-18.7344
-18.7403
-18.7376
-18.7109
-18.6576
-18.6023
-18.5709
-18.552
-18.4802
-18.3015
-18.1028
-17.9855
-17.9553
-17.9542
-17.9437
-17.932
-17.9567
-18.0812
-18.2972
-18.5647
-18.9747
-19.5625
-20.2105
-20.7758
-21.1927
-21.4485
-21.5523
-21.5171
-21.3597
-21.0797
-20.6995
-20.2129
-19.633
-19.1496
-18.8245
-18.6153
-18.5057
-18.5114
-19.0303
-19.0401
-19.0373
-19.1044
-19.255
-19.4286
-19.5209
-19.5388
-19.5279
-19.4867
-19.4299
-19.3705
-19.3247
-19.2955
-19.2783
-19.2703
-19.2717
-19.2866
-19.3149
-19.3479
-19.38
-19.4071
-19.4269
-19.4391
-19.4445
-19.4429
-19.4331
-19.415
-19.3896
-19.3592
-19.3278
-19.2971
-19.2682
-19.2424
-19.224
-19.2147
-19.2141
-19.2184
-19.2266
-19.2413
-19.2622
-19.2855
-19.3002
-19.2932
-19.2558
-19.1898
-19.1197
-19.0826
-19.0648
-19.0461
-18.9822
-18.8231
-18.6481
-18.5421
-18.5289
-18.5197
-18.5219
-18.5234
-18.579
-18.711
-18.9105
-19.1854
-19.5636
-20.0439
-20.5607
-21.0278
-21.3933
-21.6308
-21.7356
-21.721
-21.5842
-21.3221
-20.9515
-20.4685
-19.9289
-19.5168
-19.2369
-19.0718
-19.0325
-19.0302
-19.6084
-19.6123
-19.6183
-19.6256
-19.7408
-19.8829
-19.9805
-20.0139
-19.9989
-19.9575
-19.9111
-19.8625
-19.8175
-19.785
-19.7642
-19.7548
-19.7556
-19.7676
-19.7887
-19.8139
-19.839
-19.8612
-19.8788
-19.8909
-19.8972
-19.8969
-19.8898
-19.8762
-19.8573
-19.8354
-19.8128
-19.7904
-19.7694
-19.7533
-19.7461
-19.7502
-19.7646
-19.7829
-19.802
-19.8213
-19.8434
-19.8671
-19.8791
-19.8632
-19.8117
-19.7245
-19.6556
-19.6094
-19.5808
-19.5514
-19.4854
-19.3428
-19.2006
-19.1277
-19.1203
-19.1212
-19.139
-19.1622
-19.2394
-19.3809
-19.5973
-19.8744
-20.198
-20.5627
-20.9292
-21.2481
-21.4916
-21.6466
-21.7058
-21.6704
-21.5344
-21.2961
-20.9586
-20.5417
-20.1283
-19.8251
-19.6325
-19.5421
-19.5516
-19.5576
-20.1806
-20.1813
-20.1817
-20.1812
-20.2269
-20.2808
-20.3456
-20.3842
-20.3886
-20.3809
-20.3571
-20.3254
-20.2878
-20.2583
-20.2429
-20.2376
-20.2409
-20.252
-20.2688
-20.2885
-20.3085
-20.327
-20.3424
-20.3537
-20.3602
-20.3612
-20.3567
-20.3474
-20.3344
-20.3196
-20.3037
-20.2888
-20.2746
-20.2695
-20.2765
-20.2984
-20.3335
-20.3723
-20.412
-20.4461
-20.4821
-20.5153
-20.5185
-20.4783
-20.4046
-20.3074
-20.2394
-20.1778
-20.1283
-20.0791
-20.0003
-19.8701
-19.7608
-19.7214
-19.7181
-19.7513
-19.7854
-19.8347
-19.9333
-20.1001
-20.3251
-20.5859
-20.8484
-21.1063
-21.3428
-21.5304
-21.6428
-21.6795
-21.6502
-21.5475
-21.3797
-21.1661
-20.9008
-20.6059
-20.347
-20.171
-20.0736
-20.0577
-20.0823
-20.0772
-20.7167
-20.7261
-20.7268
-20.7307
-20.7208
-20.7255
-20.7551
-20.7899
-20.8101
-20.8131
-20.801
-20.7787
-20.7509
-20.7306
-20.7221
-20.7218
-20.7275
-20.7379
-20.7518
-20.7677
-20.7842
-20.7999
-20.8134
-20.8239
-20.8306
-20.833
-20.8311
-20.8257
-20.8181
-20.809
-20.7988
-20.7895
-20.7844
-20.7922
-20.8172
-20.8617
-20.9218
-20.9817
-21.0514
-21.1196
-21.1931
-21.2501
-21.2468
-21.1514
-21.0241
-20.912
-20.8335
-20.7696
-20.6986
-20.6245
-20.5274
-20.4096
-20.3252
-20.3037
-20.3254
-20.385
-20.4346
-20.5108
-20.6299
-20.8075
-21.0348
-21.2679
-21.4778
-21.6613
-21.8068
-21.89
-21.8957
-21.8271
-21.7
-21.5343
-21.3561
-21.1741
-20.987
-20.8068
-20.6724
-20.6
-20.5698
-20.5717
-20.5861
-20.5763
-21.222
-21.2326
-21.2327
-21.2247
-21.2096
-21.2056
-21.2208
-21.2455
-21.2609
-21.262
-21.2526
-21.2357
-21.2179
-21.2071
-21.2047
-21.2078
-21.2146