/*--------------------------------*- C++ -*----------------------------------*\
| =========                 |                                                 |
| \\      /  F ield         | OpenFOAM: The Open Source CFD Toolbox           |
|  \\    /   O peration     | Version:  2412                                  |
|   \\  /    A nd           | Website:  www.openfoam.com                      |
|    \\/     M anipulation  |                                                 |
\*---------------------------------------------------------------------------*/
FoamFile
{
    version     2.0;
    format      ascii;
    arch        "LSB;label=32;scalar=64";
    class       volScalarField;
    location    "8";
    object      alpha.honey;
}
// * * * * * * * * * * * * * * * * * * * * * * * * * * * * * * * * * * * * * //

dimensions      [0 0 0 0 0 0 0];

internalField   nonuniform List<scalar> 
6400
(
1
0.999999
0.999998
0.999999
0.999999
0.999999
0.999999
0.999999
0.999999
0.999999
0.999999
0.999999
0.999999
0.999999
0.999999
0.999999
0.999999
0.999999
0.999999
0.999999
0.999999
0.999999
0.999999
1
1
1
1
1
1
1
1
0.999999
0.999999
0.999999
0.999999
0.999999
0.999999
0.999999
0.999999
0.999999
0.999999
0.999999
0.999999
0.999999
0.999999
0.999999
1
1
1
0.999999
0.999999
0.999999
0.999999
0.999999
0.999998
0.999999
1
1
1
1
1
1
1
1
1
0.999999
0.999999
0.999999
0.999999
0.999999
0.999999
0.999999
1
1
1
1
1
1
1
1
0.999998
0.999997
0.999997
0.999997
0.999997
0.999997
0.999997
0.999997
0.999997
0.999997
0.999998
0.999998
0.999998
0.999998
0.999998
0.999998
0.999998
0.999998
0.999998
0.999998
0.999998
0.999998
0.999999
0.999999
0.999999
0.999999
0.999999
0.999999
0.999999
0.999999
0.999999
0.999999
0.999999
0.999999
0.999999
0.999999
0.999999
0.999999
0.999999
0.999999
0.999999
0.999999
0.999999
0.999999
0.999999
0.999999
0.999999
0.999999
0.999999
0.999999
0.999998
0.999998
0.999998
0.999998
0.999998
0.999998
0.999998
0.999998
0.999999
0.999999
0.999999
0.999999
0.999999
0.999999
0.999998
0.999998
0.999997
0.999997
0.999997
0.999998
0.999998
0.999998
0.999998
0.999999
0.999999
0.999999
0.999999
0.999999
0.999999
0.999999
0.999998
0.999997
0.999997
0.999997
0.999997
0.999997
0.999997
0.999998
0.999998
0.999998
0.999998
0.999998
0.999998
0.999998
0.999998
0.999999
0.999999
0.999999
0.999999
0.999999
0.999999
0.999999
0.999999
0.999999
0.999999
0.999999
0.999999
0.999999
0.999999
0.999999
0.999999
0.999999
0.999998
0.999998
0.999998
0.999998
0.999998
0.999998
0.999998
0.999998
0.999998
0.999998
0.999998
0.999998
0.999998
0.999998
0.999998
0.999998
0.999998
0.999998
0.999999
0.999999
0.999999
0.999998
0.999997
0.999997
0.999997
0.999998
0.999998
0.999999
0.999999
0.999999
0.999999
0.999999
0.999998
0.999998
0.999998
0.999998
0.999998
0.999998
0.999998
0.999998
0.999999
0.999999
0.999999
0.999999
0.999999
0.999999
0.999999
0.999999
0.999998
0.999997
0.999997
0.999997
0.999997
0.999997
0.999997
0.999998
0.999998
0.999998
0.999998
0.999998
0.999998
0.999998
0.999998
0.999998
0.999998
0.999999
0.999999
0.999999
0.999999
0.999999
0.999999
0.999999
0.999999
0.999999
0.999999
0.999999
0.999998
0.999998
0.999998
0.999998
0.999998
0.999998
0.999999
0.999998
0.999998
0.999998
0.999998
0.999998
0.999997
0.999997
0.999997
0.999997
0.999997
0.999997
0.999997
0.999997
0.999998
0.999998
0.999998
0.999999
0.999999
0.999999
0.999998
0.999997
0.999997
0.999998
0.999998
0.999998
0.999998
0.999998
0.999998
0.999998
0.999998
0.999998
0.999998
0.999998
0.999998
0.999998
0.999998
0.999998
0.999999
0.999999
0.999999
0.999999
0.999999
0.999999
0.999999
0.999999
0.999998
0.999997
0.999997
0.999997
0.999997
0.999997
0.999997
0.999998
0.999998
0.999998
0.999998
0.999998
0.999998
0.999998
0.999998
0.999999
0.999999
0.999999
0.999999
0.999999
0.999999
0.999999
0.999999
0.999999
0.999999
0.999999
0.999998
0.999998
0.999998
0.999998
0.999998
0.999998
0.999998
0.999999
0.999998
0.999998
0.999998
0.999998
0.999997
0.999997
0.999996
0.999996
0.999996
0.999996
0.999996
0.999996
0.999996
0.999996
0.999997
0.999997
0.999998
0.999998
0.999999
0.999999
0.999999
0.999999
0.999998
0.999998
0.999998
0.999998
0.999998
0.999998
0.999998
0.999998
0.999998
0.999998
0.999998
0.999998
0.999998
0.999998
0.999998
0.999998
0.999998
0.999999
0.999999
0.999999
0.999999
0.999999
0.999999
0.999999
0.999998
0.999997
0.999997
0.999997
0.999997
0.999997
0.999997
0.999998
0.999998
0.999998
0.999998
0.999998
0.999998
0.999998
0.999998
0.999999
0.999999
0.999999
0.999999
0.999999
0.999999
0.999999
0.999999
0.999999
0.999998
0.999998
0.999998
0.999998
0.999998
0.999998
0.999998
0.999998
0.999998
0.999998
0.999998
0.999998
0.999997
0.999997
0.999997
0.999996
0.999996
0.999996
0.999996
0.999996
0.999995
0.999996
0.999995
0.999996
0.999996
0.999997
0.999997
0.999998
0.999999
0.999999
0.999999
0.999999
0.999998
0.999998
0.999997
0.999997
0.999997
0.999998
0.999998
0.999998
0.999999
0.999999
0.999999
0.999999
0.999998
0.999998
0.999998
0.999998
0.999998
0.999998
0.999999
0.999999
0.999999
0.999999
0.999999
0.999999
0.999998
0.999997
0.999997
0.999997
0.999997
0.999997
0.999997
0.999998
0.999998
0.999998
0.999998
0.999998
0.999998
0.999998
0.999998
0.999999
0.999999
0.999999
0.999999
0.999999
0.999999
0.999999
0.999999
0.999999
0.999998
0.999998
0.999998
0.999998
0.999998
0.999998
0.999998
0.999998
0.999998
0.999998
0.999998
0.999997
0.999997
0.999997
0.999996
0.999996
0.999996
0.999996
0.999996
0.999996
0.999996
0.999996
0.999996
0.999995
0.999996
0.999996
0.999997
0.999997
0.999998
0.999998
0.999999
0.999998
0.999998
0.999998
0.999997
0.999997
0.999998
0.999998
0.999998
0.999999
0.999999
0.999999
0.999999
0.999999
0.999998
0.999998
0.999998
0.999998
0.999998
0.999998
0.999999
0.999999
0.999999
0.999999
0.999999
0.999999
0.999998
0.999997
0.999997
0.999997
0.999997
0.999997
0.999997
0.999998
0.999998
0.999998
0.999998
0.999998
0.999998
0.999998
0.999999
0.999999
0.999999
0.999999
0.999999
0.999999
0.999999
0.999999
0.999999
0.999998
0.999998
0.999998
0.999998
0.999998
0.999998
0.999998
0.999998
0.999998
0.999998
0.999997
0.999997
0.999997
0.999996
0.999996
0.999996
0.999997
0.999997
0.999997
0.999997
0.999997
0.999996
0.999997
0.999996
0.999996
0.999996
0.999996
0.999996
0.999997
0.999997
0.999998
0.999998
0.999998
0.999998
0.999998
0.999998
0.999998
0.999998
0.999998
0.999999
0.999999
0.999999
0.999999
0.999999
0.999999
0.999998
0.999998
0.999998
0.999998
0.999998
0.999999
0.999999
0.999999
0.999999
0.999999
0.999999
0.999999
0.999998
0.999997
0.999997
0.999997
0.999997
0.999997
0.999998
0.999998
0.999998
0.999998
0.999998
0.999998
0.999998
0.999998
0.999999
0.999999
0.999999
0.999999
0.999999
0.999999
0.999999
0.999999
0.999999
0.999998
0.999998
0.999998
0.999998
0.999998
0.999998
0.999998
0.999998
0.999998
0.999997
0.999997
0.999996
0.999996
0.999996
0.999996
0.999997
0.999997
0.999997
0.999997
0.999998
0.999998
0.999998
0.999998
0.999998
0.999997
0.999997
0.999996
0.999996
0.999996
0.999997
0.999997
0.999998
0.999998
0.999998
0.999998
0.999998
0.999998
0.999998
0.999998
0.999999
0.999999
0.999999
0.999999
0.999999
0.999999
0.999998
0.999998
0.999998
0.999998
0.999998
0.999999
0.999999
0.999999
0.999999
0.999999
0.999999
0.999999
0.999998
0.999997
0.999997
0.999997
0.999998
0.999998
0.999998
0.999998
0.999998
0.999998
0.999998
0.999998
0.999998
0.999998
0.999999
0.999999
0.999999
0.999999
0.999999
0.999999
0.999999
0.999998
0.999998
0.999998
0.999998
0.999998
0.999998
0.999998
0.999998
0.999998
0.999998
0.999997
0.999997
0.999996
0.999996
0.999996
0.999996
0.999997
0.999997
0.999998
0.999998
0.999999
0.999999
0.999999
0.999999
0.999999
0.999998
0.999998
0.999997
0.999996
0.999995
0.999995
0.999996
0.999997
0.999998
0.999998
0.999998
0.999998
0.999998
0.999998
0.999998
0.999998
0.999998
0.999999
0.999999
0.999999
0.999998
0.999998
0.999998
0.999998
0.999998
0.999998
0.999998
0.999999
0.999999
0.999999
0.999999
0.999999
0.999999
0.999999
0.999998
0.999998
0.999998
0.999998
0.999998
0.999998
0.999998
0.999998
0.999998
0.999998
0.999998
0.999998
0.999999
0.999999
0.999999
0.999999
0.999999
0.999999
0.999998
0.999998
0.999998
0.999998
0.999998
0.999998
0.999998
0.999998
0.999998
0.999998
0.999997
0.999997
0.999997
0.999997
0.999996
0.999996
0.999996
0.999996
0.999997
0.999997
0.999998
0.999998
0.999999
0.999999
0.999999
0.999999
0.999999
0.999997
0.999997
0.999997
0.999997
0.999996
0.999996
0.999995
0.999995
0.999996
0.999997
0.999998
0.999998
0.999998
0.999998
0.999998
0.999998
0.999998
0.999998
0.999998
0.999998
0.999998
0.999998
0.999998
0.999998
0.999998
0.999998
0.999999
0.999999
0.999999
0.999999
0.999999
0.999999
0.999999
0.999999
0.999999
0.999998
0.999998
0.999998
0.999998
0.999998
0.999998
0.999999
0.999999
0.999999
0.999999
0.999999
0.999999
0.999999
0.999999
0.999999
0.999999
0.999999
0.999999
0.999999
0.999998
0.999998
0.999998
0.999998
0.999998
0.999998
0.999998
0.999998
0.999998
0.999998
0.999997
0.999997
0.999996
0.999996
0.999996
0.999996
0.999997
0.999997
0.999997
0.999997
0.999997
0.999997
0.999997
0.999997
0.999997
0.999997
0.999997
0.999996
0.999997
0.999997
0.999998
0.999997
0.999997
0.999996
0.999997
0.999997
0.999998
0.999998
0.999998
0.999998
0.999998
0.999998
0.999998
0.999998
0.999998
0.999999
0.999999
0.999999
0.999999
0.999999
0.999999
0.999999
0.999999
0.999999
0.999999
0.999999
0.999999
0.999999
0.999999
0.999999
1
0.999999
0.999998
0.999999
0.999999
0.999999
0.999999
0.999999
0.999999
0.999999
0.999999
0.999999
1
1
1
1
0.999999
0.999999
0.999999
0.999999
0.999999
0.999998
0.999998
0.999998
0.999998
0.999998
0.999998
0.999998
0.999998
0.999997
0.999997
0.999996
0.999997
0.999996
0.999997
0.999996
0.999997
0.999996
0.999996
0.999995
0.999994
0.999994
0.999993
0.999993
0.999994
0.999996
0.999996
0.999997
0.999997
0.999997
0.999997
0.999998
0.999997
0.999998
0.999997
0.999998
0.999998
0.999998
0.999998
0.999998
0.999998
0.999998
0.999998
0.999998
0.999999
0.999999
0.999999
0.999999
1
1
1
1
1
1
1
1
1
1
1
1
1
0.999999
0.999999
0.999999
0.999999
0.999999
0.999999
0.999999
0.999999
1
1
1
1
1
1
1
1
1
0.999999
0.999999
0.999999
0.999999
0.999998
0.999998
0.999998
0.999998
0.999998
0.999998
0.999998
0.999998
0.999997
0.999997
0.999996
0.999997
0.999996
0.999996
0.999996
0.999995
0.999993
0.999992
0.99999
0.999989
0.999989
0.999989
0.999991
0.999992
0.999994
0.999995
0.999997
0.999996
0.999996
0.999995
0.999996
0.999996
0.999997
0.999997
0.999998
0.999998
0.999999
0.999998
0.999998
0.999998
0.999999
0.999999
0.999999
0.999999
1
1
1
1
1
1
1
1
1
1
1
1
1
1
1
1
0.999999
0.999999
0.999999
0.999999
0.999999
1
1
1
1
1
1
1
1
1
1
1
1
1
0.999999
0.999999
0.999999
0.999999
0.999999
0.999999
0.999999
0.999999
0.999999
0.999998
0.999998
0.999997
0.999997
0.999996
0.999997
0.999996
0.999996
0.999994
0.999993
0.999991
0.99999
0.999988
0.999988
0.999989
0.999989
0.999993
0.999991
0.999992
0.999993
0.999996
0.999995
0.999996
0.999996
0.999997
0.999997
0.999998
0.999998
0.999999
0.999999
0.999999
0.999999
0.999999
0.999999
1
1
1
1
1
1
1
1
1
1
1
1
1
1
1
1
1
1
1
0.999999
0.999999
0.999999
0.999999
0.999999
1
1
1
1
1
1
1
1
1
1
1
1
1
1
1
0.999999
0.999999
0.999999
0.999999
0.999999
0.999999
0.999998
0.999998
0.999997
0.999998
0.999997
0.999998
0.999997
0.999998
0.999996
0.999996
0.999994
0.999993
0.999992
0.999992
0.999992
0.999993
0.999995
0.999996
0.999998
0.999995
0.999996
0.999996
0.999997
0.999996
0.999997
0.999996
0.999997
0.999998
0.999999
0.999999
0.999999
0.999999
1
1
1
1
1
1
1
1
1
1
1
1
1
1
1
1
1
1
1
0.999999
1
1
0.999998
0.999999
0.999999
0.999999
0.999999
0.999999
0.999999
0.999999
0.999999
0.999999
0.999999
0.999999
1
1
1
1
1
0.999999
0.999999
0.999999
0.999999
0.999999
0.999999
0.999999
0.999999
0.999998
0.999998
0.999996
0.999997
0.999996
0.999997
0.999997
0.999999
0.999998
0.999999
0.999996
0.999994
0.999992
0.999992
0.999992
0.999993
0.999997
0.999998
1
1
1
1
1
0.999999
0.999999
0.999997
0.999997
0.999997
0.999998
0.999998
0.999999
0.999999
0.999999
0.999999
0.999999
0.999999
0.999999
0.999999
0.999999
0.999999
0.999999
0.999999
0.999999
0.999999
0.999999
0.999999
0.999999
0.999999
0.999999
0.999999
0.999999
0.999999
0.999999
1
1
0.999998
0.999999
0.999999
0.999998
0.999998
0.999998
0.999998
0.999998
0.999998
0.999998
0.999998
0.999998
0.999998
0.999999
0.999999
0.999999
0.999999
0.999999
0.999999
0.999999
0.999999
0.999999
0.999999
0.999999
0.999998
0.999998
0.999997
0.999996
0.999995
0.999996
0.999995
0.999997
0.999998
0.999998
0.999999
0.999998
0.999995
0.999993
0.999992
0.999993
0.999995
0.999997
0.999998
0.999998
0.999997
0.999997
0.999999
0.999997
0.999998
0.999997
0.999998
0.999998
0.999998
0.999998
0.999999
0.999999
0.999999
0.999999
0.999999
0.999999
0.999999
0.999998
0.999998
0.999998
0.999998
0.999998
0.999998
0.999998
0.999998
0.999998
0.999998
0.999998
0.999998
0.999998
0.999998
0.999998
0.999998
0.999998
1
1
1
1
1
1
1
0.999999
0.999999
0.999999
0.999999
0.999999
0.999999
0.999999
0.999998
0.999998
0.999998
0.999998
0.999998
0.999997
0.999998
0.999998
0.999998
0.999998
0.999998
0.999998
0.999998
0.999998
0.999999
0.999998
0.999998
0.999997
0.999996
0.999997
0.999998
0.999998
0.999999
0.999997
0.999993
0.999007
0.99637
0.99627
0.998909
0.999995
0.999997
0.999997
0.999997
0.999998
0.999999
0.999998
0.999998
0.999998
0.999997
0.999998
0.999997
0.999998
0.999998
0.999998
0.999998
0.999998
0.999998
0.999998
0.999998
0.999998
0.999998
0.999998
0.999999
0.999999
0.999999
0.999999
0.999999
0.999999
0.999999
1
1
1
1
1
1
1
1
1
1
1
1
1
1
0.999999
0.999999
0.999999
0.999999
0.999999
0.999999
0.999999
0.999998
0.999998
0.999998
0.999998
0.999998
0.999998
0.999998
0.999998
0.999998
0.999998
0.999999
0.999999
1
1
1
0.999755
0.997599
0.992729
0.984303
0.971019
0.950385
0.918913
0.852717
0.753549
0.64081
0.552284
0.506716
0.505648
0.549864
0.63672
0.749616
0.849748
0.917661
0.949551
0.970498
0.983977
0.992537
0.997506
0.99973
1
1
1
1
1
0.999999
0.999999
0.999998
0.999998
0.999998
0.999998
0.999998
0.999999
0.999999
0.999999
0.999999
0.999999
0.999999
0.999999
0.999999
1
1
1
1
1
1
1
1
0.0142112
0.0221251
0.0279911
0.0328732
0.0368976
0.0403329
0.0433894
0.0462195
0.0489388
0.0516368
0.0543818
0.0572252
0.0602038
0.0633414
0.0666495
0.0701271
0.07376
0.0775188
0.0813568
0.0852061
0.0889737
0.0925356
0.0957313
0.0983541
0.100143
0.100763
0.0998163
0.0967803
0.091258
0.0840854
0.0749375
0.0631734
0.0482037
0.029084
0.00532018
2.04746e-06
2.61969e-06
0.00399961
0.0105237
0.0121229
0.0125236
0.0109118
0.0034349
2.92451e-06
2.30893e-06
0.0046162
0.0284247
0.0477202
0.0628076
0.0746707
0.0838963
0.0911324
0.0967255
0.0998351
0.100837
0.100255
0.0984938
0.0958893
0.092705
0.0891489
0.0853832
0.081533
0.0776922
0.0739291
0.070291
0.0668076
0.0634933
0.0603495
0.0573645
0.0545148
0.0517633
0.0490589
0.0463329
0.0434959
0.0404317
0.0369879
0.0329533
0.0280593
0.0221791
0.0142464
6.65872e-09
2.42469e-09
5.97592e-09
9.73383e-09
1.35478e-08
1.73929e-08
2.11989e-08
2.49415e-08
2.86193e-08
3.22314e-08
3.57682e-08
3.92018e-08
4.24827e-08
4.55255e-08
4.82133e-08
5.03763e-08
5.18164e-08
5.22768e-08
5.15116e-08
4.92444e-08
4.53201e-08
3.96363e-08
3.2367e-08
2.39485e-08
1.53814e-08
7.53789e-09
1.8964e-09
1.06829e-10
1.36775e-10
1.57477e-10
1.75577e-10
2.17015e-10
6.42603e-10
2.73235e-09
6.21542e-09
6.77906e-07
0.0538529
0.223782
0.327905
0.325806
0.325994
0.329572
0.227971
0.0569514
7.83046e-07
6.8251e-09
3.11729e-09
9.05124e-10
4.15939e-10
3.68107e-10
3.53259e-10
3.51187e-10
3.29121e-10
1.81246e-09
7.44813e-09
1.53537e-08
2.40433e-08
3.25275e-08
3.98082e-08
4.55564e-08
4.95492e-08
5.18711e-08
5.26673e-08
5.22151e-08
5.07657e-08
4.85816e-08
4.58647e-08
4.27894e-08
3.94739e-08
3.60052e-08
3.24333e-08
2.87871e-08
2.50763e-08
2.13026e-08
1.74674e-08
1.35948e-08
9.75923e-09
5.98727e-09
2.42817e-09
6.67949e-09
1.27658e-11
1.88719e-12
6.04536e-12
1.12202e-11
1.6969e-11
2.3159e-11
2.9505e-11
3.62172e-11
4.32135e-11
5.03278e-11
5.74145e-11
6.42407e-11
7.04911e-11
7.56189e-11
7.87852e-11
7.87429e-11
7.38602e-11
6.23303e-11
4.27043e-11
1.4815e-11
-1.27317e-11
-1.07424e-11
-1.98376e-11
2.06707e-13
5.97226e-13
6.97191e-13
1.26118e-11
7.22432e-11
9.30635e-10
2.30829e-09
2.17015e-10
6.7048e-07
2.62514e-06
3.33562e-06
1.32615e-06
3.77029e-07
0.0270181
0.318837
0.401975
0.401975
0.401975
0.401975
0.330437
0.0301374
4.25349e-07
1.5363e-06
3.56079e-06
2.76735e-06
7.64332e-07
1.16426e-08
1.99019e-08
4.65481e-09
2.67259e-10
2.35847e-11
1.13241e-12
1.90796e-13
1.85267e-13
1.87027e-13
1.41553e-13
1.36812e-13
2.86886e-11
7.37172e-11
1.11795e-10
1.30161e-10
1.35167e-10
1.30753e-10
1.21272e-10
1.09961e-10
9.81502e-11
8.63311e-11
7.47147e-11
6.34665e-11
5.24895e-11
4.14687e-11
3.08944e-11
1.85897e-11
1.23556e-11
6.72849e-12
2.15538e-12
1.77366e-11
3.17092e-14
2.90098e-15
9.80729e-15
1.86743e-14
2.96013e-14
4.27948e-14
5.81141e-14
7.57105e-14
9.57721e-14
1.18393e-13
1.43519e-13
1.70772e-13
1.99184e-13
2.26704e-13
2.49501e-13
2.61206e-13
2.5241e-13
2.12522e-13
1.37375e-13
-2.33857e-15
4.0424e-14
4.03667e-14
6.42996e-14
1.12356e-13
5.07179e-13
5.97692e-13
7.24671e-13
1.26192e-11
6.09988e-11
3.31214e-08
1.06691e-06
3.80318e-06
1.90998e-05
2.225e-05
1.49066e-05
2.74358e-07
3.77029e-07
0.0600158
0.401974
0.401975
0.401975
0.401973
0.0700794
4.25349e-07
2.98574e-07
1.45496e-05
2.3204e-05
2.3204e-05
8.19307e-06
2.76657e-06
1.52252e-07
1.77353e-10
2.3592e-11
1.16825e-12
3.00861e-13
2.55673e-13
2.1326e-13
1.79742e-13
1.39771e-13
1.36812e-13
1.23234e-13
4.49631e-13
6.02127e-13
6.38709e-13
6.10117e-13
5.48234e-13
4.74307e-13
4.02307e-13
3.37335e-13
2.80058e-13
2.29914e-13
1.86243e-13
1.4835e-13
1.15489e-13
8.69424e-14
6.20403e-14
3.81309e-14
1.8959e-14
5.37246e-15
4.67881e-14
9.70731e-17
5.92284e-18
2.05468e-17
4.00919e-17
6.60959e-17
1.00354e-16
1.44404e-16
2.00402e-16
2.71259e-16
3.60334e-16
4.71258e-16
6.07247e-16
7.69598e-16
9.54317e-16
1.14592e-15
1.30682e-15
1.3687e-15
1.23587e-15
9.61153e-16
2.98667e-15
4.04166e-14
4.57015e-13
7.85178e-12
2.2995e-11
5.83239e-12
7.24767e-13
1.59332e-10
1.23948e-09
1.181e-09
8.29133e-07
4.89725e-06
4.90423e-06
4.39958e-06
2.39613e-06
1.86525e-07
2.58339e-07
2.74358e-07
0.00898251
0.302374
0.350985
0.352908
0.314396
0.0124356
2.98574e-07
2.83201e-07
1.32501e-07
4.56018e-06
9.38034e-06
9.8506e-06
9.59635e-06
1.49864e-06
3.63786e-09
3.82952e-08
8.86121e-09
1.16842e-12
3.01088e-13
4.79583e-12
8.91985e-12
2.56157e-12
2.01759e-13
2.07441e-14
9.32572e-15
9.35611e-15
8.16061e-15
6.40463e-15
4.88834e-15
3.67711e-15
2.75208e-15
2.06254e-15
1.54646e-15
1.15541e-15
8.56501e-16
6.26782e-16
4.49471e-16
3.12178e-16
2.06104e-16
1.25496e-16
6.47014e-17
1.93194e-17
1.37827e-16
4.08068e-18
2.49961e-20
9.73107e-20
1.55778e-19
2.02352e-19
2.8397e-19
4.32343e-19
6.39616e-19
9.28363e-19
1.32944e-18
1.88449e-18
2.64704e-18
3.67508e-18
5.01277e-18
6.64181e-18
8.37113e-18
9.69085e-18
1.07885e-17
8.96541e-17
2.26101e-15
2.03688e-14
4.08646e-13
1.58163e-12
1.57775e-11
6.97333e-09
1.59881e-07
2.34369e-07
2.35032e-07
1.79231e-07
1.06564e-10
1.13992e-10
8.06179e-10
7.946e-10
1.00076e-09
1.09237e-07
7.92677e-07
9.8036e-07
0.000787801
1.45374e-11
0.00745516
0.00804036
1.55208e-11
0.000843117
6.19577e-07
6.97917e-07
1.68484e-07
3.9613e-09
3.87458e-09
3.94655e-09
1.60509e-09
1.6059e-09
5.67621e-07
1.26774e-06
1.26774e-06
8.26227e-07
1.21138e-08
8.0826e-12
8.41357e-12
1.97152e-12
1.31488e-13
8.7135e-15
5.48719e-15
4.68065e-15
3.41383e-15
2.13462e-15
1.31916e-15
8.17538e-16
5.08141e-16
3.20359e-16
2.05481e-16
1.33533e-16
8.74255e-17
5.7318e-17
3.73331e-17
2.38701e-17
1.46994e-17
8.45003e-18
4.18908e-18
1.20066e-18
6.19585e-18
1.54609e-20
1.8281e-22
1.42926e-21
1.56772e-21
1.08829e-21
1.63657e-21
2.37818e-21
3.38043e-21
4.74186e-21
6.60263e-21
9.16227e-21
1.36071e-20
2.082e-20
3.14826e-20
4.65066e-20
6.55192e-20
8.81812e-20
3.49548e-19
2.10343e-17
6.00348e-16
2.78441e-14
3.99169e-13
4.64476e-12
1.23455e-10
7.42736e-08
2.3628e-07
2.3628e-07
6.96412e-08
8.34943e-11
9.37681e-11
1.99458e-10
2.84673e-10
8.75011e-10
1.44672e-07
7.60598e-07
1.88368e-06
9.50152e-06
4.58086e-05
1.45374e-11
1.45374e-11
1.46884e-11
1.50476e-11
1.55208e-11
6.03251e-07
7.53491e-07
7.54171e-07
1.56906e-07
3.9613e-09
9.22701e-09
1.49593e-08
6.76534e-09
2.6307e-09
9.77785e-09
5.07833e-07
5.03462e-07
5.08121e-08
1.08643e-10
5.40609e-12
1.37228e-12
9.25564e-14
2.37779e-15
5.01685e-16
3.00941e-16
1.62744e-16
7.67294e-17
3.63894e-17
1.7752e-17
8.87635e-18
4.59581e-18
2.46874e-18
1.36738e-18
7.75013e-19
4.46133e-19
2.58521e-19
1.48975e-19
8.38125e-20
4.4671e-20
2.08591e-20
5.75802e-21
2.7635e-20
4.46333e-23
1.58341e-24
8.73891e-24
1.31644e-23
1.33911e-23
1.05516e-23
1.1362e-23
1.775e-23
2.78007e-23
4.38004e-23
6.96675e-23
1.12275e-22
1.83724e-22
3.05584e-22
5.06305e-22
6.75389e-22
1.22203e-21
1.62846e-20
3.82057e-19
7.14659e-17
4.42076e-15
6.25357e-14
2.4052e-12
7.51943e-11
5.80936e-08
2.3628e-07
1.65856e-07
8.34943e-11
7.25248e-11
1.08357e-10
1.32856e-10
1.19667e-10
1.80715e-08
3.86897e-07
5.16967e-07
1.89987e-07
2.30493e-08
1.43898e-11
1.81184e-11
4.97175e-11
9.6314e-11
1.18975e-10
1.12722e-10
1.04093e-10
9.20186e-11
9.03096e-11
9.03339e-11
5.61585e-09
2.32695e-08
2.36557e-08
2.25346e-08
3.81806e-09
1.01313e-10
3.24178e-08
1.35744e-07
4.96761e-08
5.00416e-11
2.35119e-12
8.05644e-13
4.14615e-14
6.39394e-16
1.8409e-17
4.46438e-18
1.82553e-18
7.37143e-19
2.96135e-19
1.25284e-19
5.58106e-20
2.61599e-20
1.28596e-20
6.57474e-21
3.4659e-21
1.86869e-21
1.02131e-21
5.59136e-22
3.01236e-22
1.55103e-22
7.03956e-23
1.92175e-23
9.4096e-23
1.63081e-25
9.39741e-27
4.54391e-26
8.13348e-26
1.10028e-25
1.23502e-25
1.23099e-25
1.1185e-25
1.62469e-25
2.81631e-25
4.9784e-25
8.98506e-25
1.65674e-24
3.12102e-24
5.73533e-24
8.97517e-24
1.23095e-23
2.82983e-22
1.61271e-20
1.35183e-18
1.03179e-16
6.57797e-15
3.436e-13
4.23313e-11
2.33908e-08
7.18735e-08
3.01444e-08
7.20685e-11
6.93365e-11
1.56961e-10
1.3425e-10
1.16044e-10
9.24724e-11
5.43366e-11
3.71313e-11
3.09026e-11
2.94842e-11
2.88574e-11
3.92487e-11
6.17761e-11
1.2849e-10
1.47436e-10
1.47436e-10
1.26117e-10
9.10667e-11
9.04172e-11
9.00962e-11
9.04172e-11
9.13253e-11
1.01361e-10
3.19654e-10
5.8776e-10
7.17229e-11
7.73666e-11
6.08284e-09
1.45555e-08
1.15318e-09
6.39396e-13
2.41819e-13
7.55514e-15
1.08418e-16
1.40228e-18
8.14583e-20
2.49491e-20
9.24423e-21
3.36406e-21
1.26887e-21
5.0749e-22
2.14917e-22
9.6027e-23
4.49276e-23
2.18326e-23
1.09359e-23
5.59819e-24
2.89547e-24
1.48719e-24
7.36916e-25
3.24626e-25
8.70023e-26
4.07905e-25
6.49774e-28
5.02764e-29
2.31697e-28
4.58986e-28
7.38974e-28
1.05977e-27
1.35566e-27
1.66732e-27
1.94705e-27
2.29721e-27
3.63694e-27
7.25224e-27
1.49051e-26
3.15537e-26
6.63147e-26
1.10074e-25
1.34011e-25
1.02446e-24
1.23367e-22
1.79415e-20
2.50634e-18
2.72735e-16
2.14035e-14
1.4364e-10
2.57795e-09
1.9409e-10
4.98304e-11
6.85787e-11
6.84655e-11
7.79251e-11
7.9654e-11
1.78618e-10
4.29948e-10
6.17261e-10
6.81101e-10
2.96139e-10
7.63879e-11
2.86177e-11
2.47461e-11
3.48435e-11
1.08969e-10
1.33435e-10
1.17705e-10
1.16666e-10
1.22617e-10
1.14665e-10
1.27681e-10
1.62188e-10
1.80014e-10
1.52735e-10
1.13563e-10
8.89037e-11
2.22963e-11
2.21449e-11
3.11613e-11
6.61209e-10
1.85232e-10
1.91746e-12
2.9926e-14
5.4159e-16
8.57681e-18
1.06162e-19
2.35544e-21
4.49671e-22
1.422e-22
4.57355e-23
1.51206e-23
5.34146e-24
2.01812e-24
8.11979e-25
3.45269e-25
1.53907e-25
7.13726e-26
3.41407e-26
1.66556e-26
8.14645e-27
3.88095e-27
1.65828e-27
4.35785e-28
1.94077e-27
2.75102e-30
2.66386e-31
1.20327e-30
2.55817e-30
4.59682e-30
7.73914e-30
1.23332e-29
1.8746e-29
2.80615e-29
4.33235e-29
6.9525e-29
1.159e-28
2.25538e-28
5.33891e-28
1.72856e-27
4.95971e-27
2.32287e-27
5.32882e-27
2.49589e-25
3.33314e-23
3.7695e-21
3.94154e-19
3.59492e-16
1.39915e-11
7.75718e-12
1.52854e-11
1.88885e-11
6.69858e-11
6.29743e-11
5.52712e-11
4.89887e-11
5.18461e-11
8.70147e-11
7.15625e-10
1.26487e-09
1.23582e-09
6.15906e-10
1.17965e-10
2.47461e-11
2.62927e-11
9.72427e-11
9.94215e-11
6.96627e-11
8.73336e-11
1.2103e-10
2.00562e-10
2.49029e-10
1.61534e-10
6.71304e-11
4.50816e-11
3.22704e-11
2.10975e-11
1.59109e-11
1.79948e-11
5.40174e-12
1.41978e-11
5.9463e-12
1.55652e-13
1.29032e-15
2.08336e-17
3.21962e-19
4.26914e-21
7.12125e-23
8.4484e-24
2.24795e-24
6.36048e-25
1.85624e-25
5.82722e-26
1.9748e-26
7.18974e-27
2.79066e-27
1.14552e-27
4.93509e-28
2.21262e-28
1.02084e-28
4.7651e-29
2.18622e-29
9.07239e-30
2.33975e-30
9.8652e-30
1.2233e-32
1.43121e-33
6.41244e-33
1.44231e-32
2.81025e-32
5.2806e-32
9.79055e-32
1.79871e-31
3.30763e-31
6.11585e-31
1.21224e-30
2.58518e-30
6.15513e-30
1.68384e-29
5.51809e-29
2.23679e-28
6.00525e-28
2.29312e-28
2.68228e-27
2.49589e-25
3.33314e-23
3.7695e-21
3.94154e-19
1.59892e-13
1.39705e-12
4.83569e-12
9.1703e-12
3.03361e-11
3.38523e-11
2.99981e-11
2.58101e-11
2.66681e-11
4.4133e-11
8.64163e-11
3.54407e-10
1.1345e-09
1.10831e-09
2.76931e-10
3.12804e-11
1.83311e-11
8.86043e-11
8.99123e-11
6.87322e-11
1.24735e-10
1.97485e-10
2.07854e-10
1.46154e-10
4.04763e-11
2.07806e-11
1.40843e-11
1.05684e-11
8.42267e-12
7.11749e-12
4.80717e-12
2.7024e-12
1.49286e-12
1.19951e-13
1.86049e-15
2.94149e-17
5.03196e-19
7.811e-21
1.0652e-22
1.74405e-24
1.54254e-25
3.50785e-26
8.78023e-27
2.28833e-27
6.45064e-28
1.97721e-28
6.55904e-29
2.33742e-29
8.87896e-30
3.56857e-30
1.50497e-30
6.58643e-31
2.94137e-31
1.30216e-31
5.2559e-32
1.33153e-32
5.29689e-32
5.65103e-35
7.83238e-36
3.50346e-35
8.27095e-35
1.72257e-34
3.5235e-34
7.28058e-34
1.54038e-33
3.35427e-33
7.55582e-33
1.80994e-32
4.64996e-32
1.31063e-31
4.18308e-31
1.55193e-30
6.90439e-30
4.25688e-29
1.50521e-28
5.63558e-29
2.68228e-27
4.6662e-25
6.35383e-22
5.71763e-18
2.56706e-15
8.2894e-14
4.80928e-13
1.40808e-12
3.57385e-12
5.97277e-12
6.31544e-12
6.27496e-12
8.06715e-12
1.84146e-11
5.10529e-11
9.15708e-11
1.29145e-10
4.32055e-10
3.03648e-10
4.46573e-11
1.15198e-11
8.07188e-11
8.82564e-11
7.09872e-11
1.4327e-10
1.71965e-10
1.41636e-10
5.02406e-11
1.45972e-11
6.06134e-12
3.51797e-12
2.61204e-12
2.10052e-12
1.35734e-12
5.17957e-13
3.1994e-13
5.58989e-14
2.49189e-15
3.52705e-17
5.60488e-19
9.65698e-21
1.46531e-22
1.99822e-24
3.36836e-26
2.65864e-27
5.31093e-28
1.18682e-28
2.79317e-29
7.14473e-30
1.9979e-30
6.08296e-31
2.00264e-31
7.07711e-32
2.66562e-32
1.06154e-32
4.42128e-33
1.89407e-33
8.10822e-34
3.18832e-34
7.94264e-35
2.9722e-34
2.68494e-37
4.35983e-38
1.95428e-37
4.81808e-37
1.06359e-36
2.33767e-36
5.27128e-36
1.23999e-35
3.07363e-35
8.08469e-35
2.27839e-34
6.94101e-34
2.31914e-33
8.64314e-33
3.63992e-32
1.74182e-31
1.00284e-30
1.15107e-29
1.30282e-29
7.66563e-28
1.62996e-25
3.39186e-23
4.46114e-19
5.07969e-17
2.01735e-15
1.35193e-14
5.238e-14
1.08652e-13
2.38638e-13
3.56145e-13
6.33782e-13
1.82274e-12
6.8477e-12
2.81606e-11
6.45408e-11
6.48854e-11
9.12628e-11
7.05617e-11
2.81691e-11
8.3659e-12
7.12398e-11
8.85917e-11
5.87825e-11
9.95063e-11
1.10526e-10
7.27168e-11
2.06018e-11
4.72513e-12
1.25163e-12
4.3669e-13
2.43143e-13
1.72991e-13
8.063e-14
1.94405e-14
7.05644e-15
1.20181e-15
5.20788e-17
7.43487e-19
1.11193e-20
1.70594e-22
2.33172e-24
3.08731e-26
5.38331e-28
4.25199e-29
7.67774e-30
1.54967e-30
3.33107e-31
7.81362e-32
2.01127e-32
5.66371e-33
1.73402e-33
5.73338e-34
2.03374e-34
7.67991e-35
3.05486e-35
1.25907e-35
5.22386e-36
2.00462e-36
4.91591e-37
1.72607e-36
1.3002e-39
2.45876e-40
1.10687e-39
2.8397e-39
6.60725e-39
1.54807e-38
3.76582e-38
9.67561e-38
2.65501e-37
7.83516e-37
2.50966e-36
8.77053e-36
3.36705e-35
1.42783e-34
6.70691e-34
3.48132e-33
1.99737e-32
1.53081e-31
1.68474e-30
2.25043e-29
4.49404e-27
6.01505e-25
3.20269e-21
7.63984e-19
2.97195e-17
1.96989e-16
7.2482e-16
1.43366e-15
3.03602e-15
1.25862e-14
9.01837e-14
5.34747e-13
2.57273e-12
1.18622e-11
3.54733e-11
5.02505e-11
4.50133e-11
3.33417e-11
1.98507e-11
7.65277e-12
5.99024e-11
9.93895e-11
4.30632e-11
6.26884e-11
6.55767e-11
3.33839e-11
8.52392e-12
1.82614e-12
3.70227e-13
6.11624e-14
1.0081e-14
3.10215e-15
1.05746e-15
2.04672e-16
8.32667e-17
2.10662e-17
9.20922e-19
1.3382e-20
1.97035e-22
2.86393e-24
3.63354e-26
4.32098e-28
7.54446e-30
6.24789e-31
1.04594e-31
1.9323e-32
3.83892e-33
8.34468e-34
1.99537e-34
5.23818e-35
1.5017e-35
4.67347e-36
1.5693e-36
5.64427e-37
2.1522e-37
8.56024e-38
3.45059e-38
1.29458e-38
3.12861e-39
1.0284e-38
6.36448e-42
1.39775e-42
6.32721e-42
1.68462e-41
4.11442e-41
1.02195e-40
2.66204e-40
7.39636e-40
2.21491e-39
7.19365e-39
2.55394e-38
9.94172e-38
4.25828e-37
2.00026e-36
1.01858e-35
5.58318e-35
3.29649e-34
2.1666e-33
2.40825e-32
9.23193e-31
1.31247e-28
1.55412e-26
3.16861e-23
7.55952e-21
2.95206e-19
2.39976e-18
8.11871e-18
2.27493e-17
1.7209e-16
2.45256e-15
2.84498e-14
2.0253e-13
1.01127e-12
4.42848e-12
1.52426e-11
3.11772e-11
3.41924e-11
3.1738e-11
2.12811e-11
7.53421e-12
4.78682e-11
1.15713e-10
3.44297e-11
4.07741e-11
3.97484e-11
1.63352e-11
4.1243e-12
9.18271e-13
1.80302e-13
2.39985e-14
2.11868e-15
1.44808e-16
9.08681e-18
1.48611e-18
1.02539e-18
2.94381e-19
1.28949e-20
1.99387e-22
2.98955e-24
4.279e-26
5.22495e-28
5.89751e-30
1.00695e-31
8.35068e-33
1.32232e-33
2.28041e-34
4.23779e-35
8.62503e-36
1.93354e-36
4.76963e-37
1.28934e-37
3.7999e-38
1.21428e-38
4.17865e-39
1.53327e-39
5.90392e-40
2.31795e-40
8.51812e-41
2.031e-41
6.23684e-41
3.12346e-44
7.99001e-45
3.62747e-44
1.00021e-43
2.55574e-43
6.70052e-43
1.85888e-42
5.54834e-42
1.79881e-41
6.34378e-41
2.43825e-40
1.01668e-39
4.59361e-39
2.25607e-38
1.20139e-37
6.90018e-37
4.26119e-36
3.13419e-35
7.98766e-34
1.23596e-31
2.0266e-29
1.7312e-27
3.07467e-25
2.40417e-23
2.50736e-21
2.34182e-20
1.58624e-19
2.45256e-18
4.79814e-17
8.73109e-16
1.11602e-14
8.77667e-14
4.48718e-13
1.88537e-12
6.6339e-12
1.7009e-11
2.40986e-11
2.31438e-11
1.60679e-11
5.92144e-12
3.60471e-11
1.34631e-10
3.02907e-11
2.85257e-11
2.42882e-11
8.59489e-12
2.21367e-12
5.15905e-13
9.54236e-14
1.17264e-14
9.21799e-16
5.17415e-17
2.55198e-18
1.22632e-19
1.16922e-20
3.28497e-21
1.40897e-22
2.49775e-24
3.97237e-26
5.74335e-28
6.91702e-30
7.59837e-32
1.26989e-33
1.02839e-34
1.55422e-35
2.53661e-36
4.45163e-37
8.56417e-38
1.81613e-38
4.24365e-39
1.08927e-39
3.05892e-40
9.35216e-41
3.09338e-41
1.09651e-41
4.10063e-42
1.5721e-42
5.66952e-43
1.33522e-43
3.82249e-43
1.52396e-46
4.58927e-47
2.06584e-46
5.88694e-46
1.56493e-45