/*--------------------------------*- C++ -*----------------------------------*\
| =========                 |                                                 |
| \\      /  F ield         | OpenFOAM: The Open Source CFD Toolbox           |
|  \\    /   O peration     | Version:  2412                                  |
|   \\  /    A nd           | Website:  www.openfoam.com                      |
|    \\/     M anipulation  |                                                 |
\*---------------------------------------------------------------------------*/
FoamFile
{
    version     2.0;
    format      ascii;
    arch        "LSB;label=32;scalar=64";
    class       volScalarField;
    location    "8.9";
    object      p_rgh;
}
// * * * * * * * * * * * * * * * * * * * * * * * * * * * * * * * * * * * * * //

dimensions      [1 -1 -2 0 0 0 0];

internalField   nonuniform List<scalar> 
6400
(
24407.3
24661.6
25151.8
25467.5
25192.3
24225.7
23039.5
22458.3
23100.3
24851
26778.7
27632.5
26655.9
24183.6
21577.1
20461.7
21699.9
24758.5
27919.7
29265.6
27861
24392.3
20832
19293.8
20756.9
24442
28236.7
29930.3
28521.7
24813.8
20942.3
19122.7
20366.3
23918.2
27727.9
29652.6
28674
25431.5
21798.1
19783.5
20417
23232.6
26604.9
28697
28461.8
26150.9
23097.4
20942.7
20758.7
22529.6
25232.9
27428.6
28018.8
26783.7
24441.8
22237.3
21287.6
22025.5
24009.1
26177.3
27410.3
27104.2
25467.8
23393.9
21976.6
21932.6
23233.2
25142.4
26632.7
26944.8
25981.6
24322.4
22868
22332.8
22884.4
24129.1
25423.4
26282.3
26599.9
26615.8
24290.1
24062.7
24310.7
24933.3
25559.8
25628
24869.7
23601.4
22613.6
22676.5
23971.7
25857
27181.6
26998.8
25228.7
22812.3
21203.6
21478.8
23618
26439
28264.2
27937.3
25560.2
22479.9
20507.9
20836
23308.6
26500.3
28555.1
28283.2
25856.1
22690.8
20606.3
20763.7
23017
26037.9
28112.6
28124.4
26152.4
23368.8
21331.7
21107.6
22719.9
25202.5
27184.3
27647.9
26441.5
24296.2
22382.2
21673.1
22461.9
24259.5
26094.5
27032.3
26641.3
25181.2
23439.3
22312.7
22353.3
23500.4
25128.8
26383.2
26624.7
25758.5
24272.6
22967.8
22524
23139.9
24442
25709.1
26279.1
25904.1
24852.6
23715.5
23052.3
23105.7
23752.1
24672.9
25568.9
26473.3
24696.2
23894.3
23586.8
23994.9
25056.7
26123.2
26360.9
25356.5
23520.1
21948
21760.3
23318.7
25865.4
27887.2
28031.4
26010.2
22887.2
20508.9
20391.4
22746.3
26276
28905.1
29023.9
26485.6
22732.5
19957
19798
22362
26159
28988.3
29234.2
26796.9
23118.5
20311.5
19930.1
22105.7
25531.2
28259.6
28821.9
27015.8
23944.1
21333.1
20556.5
21920.3
24574.5
27045
28052.9
27165.6
24957.3
22641.4
21407.7
21823.5
23589.1
25741.3
27171.2
27185.6
25834.4
23856.4
22284
21910.7
22892.3
24680.1
26319.8
26958.9
26294.7
24722.7
23107.7
22304.9
22697.9
24012.8
25501.5
26377.3
26240.2
25250.6
23979.8
23066.4
22906.6
23531.3
24631.5
26004.9
25341.6
24259.1
23341
23040.7
23799.1
25375.4
26821.6
27042.5
25588.8
23114.1
21103.3
20967.3
23065.9
26333.3
28822
28886.4
26272.4
22390.2
19538.4
19516.2
22478.5
26767.1
29860.7
29884.7
26760.7
22282.1
19061.3
18979.3
22075.7
26539
29789.5
29992.8
27102.1
22834.3
19630.7
19243.3
21776.1
25704.5
28807.4
29433.6
27374.9
23888.5
20921.6
20019.5
21532.3
24517.5
27328.2
28519.9
27578.3
25113.7
22471.8
21005.7
21397.1
23355.9
25817.8
27513.1
27610.2
26117
23850.4
21999.6
21508.2
22591.5
24638.1
26546.2
27316.8
26584
24795.3
22944.8
22015.3
22445.2
23920.6
25593.2
26577.8
26427.5
25327.1
23932.9
22994.8
22977.8
23798.9
25151
25729.2
25052.7
23934.5
22810.4
22517
23588.8
25635.6
27423.7
27632.7
25806.2
22821
20475
20383.5
22876
26642.5
29432.6
29426.6
26426.4
22086
18978.4
19042.1
22359.3
27045.7
30345.6
30281.7
26853.3
22049.7
18669.4
18663.7
21999.5
26710.7
30081
30231.9
27174.3
22733.4
19439.8
19071.8
21698.4
25733.6
28907.3
29551.3
27465.8
23926.7
20898.4
19942.3
21426.5
24425
27294.6
28570.4
27697.1
25243.7
22541.8
20971.9
21273.2
23209.6
25732.6
27537.6
27728.2
26257.8
23933.2
21982.4
21410.5
22477.1
24571.6
26554.6
27379.7
26655.9
24838.9
22951.8
22001.4
22429.5
23907
25568.1
26523.5
26345.5
25260.9
23973.4
23235
23347
24129.3
25362.1
25750.4
25179.6
23766.5
22289.1
21932.5
23302.4
25834.4
28000.1
28252.9
26114.6
22650.8
19939.3
19798.4
22569.3
26766.8
29890.6
29944.1
26720
22019.4
18622.4
18612.9
22085.7
27047.4
30587.1
30614.5
27107.5
22119
18547.9
18429
21763.9
26571.3
30087.6
30375.7
27394.6
22937.7
19536.4
19008.5
21493.1
25476.9
28727.3
29549.2
27656.4
24219.8
21139.5
19995.7
21254.8
24116.7
27018.4
28480.7
27844.5
25545.2
22828.5
21086.4
21158.7
22938.1
25458.6
27407.6
27800.8
26478.9
24175.9
22122.4
21389.7
22324.1
24374.3
26408.1
27341.8
26729.4
24982
23102.9
22104.3
22449.6
23836.6
25424.6
26346.8
26198.9
25225.1
24106.4
23449.2
23351.6
24218.8
25755.8
26308.7
25528.3
23597.7
21718.6
21313.6
23004.3
26027.7
28566.5
28863.4
26426.3
22503.4
19436.6
19235.9
22256.6
26854.9
30301.7
30434
27025.8
22001.5
18323.5
18212.9
21792.8
26990.4
30765.6
30919.2
27387.5
22253.4
18491.4
18219.1
21497.5
26364.7
30031.5
30499.2
27648.3
23207.6
19690.5
18961
21254.6
25160.5
28497.5
29535.3
27877
24563.6
21421.3
20057.8
21058.9
23768.9
26711.1
28383.6
28008.2
25873.9
23137.4
21208.5
21037.2
22651.9
25170.3
27268.8
27870.9
26703.1
24426.5
22273.3
21380.2
22178.3
24175.5
26250.1
27285.7
26785.3
25116.3
23260.3
22230
22504
23800.3
25300.6
26164.4
26013.7
25095.8
24030.9
23174.9
22901.5
24870.6
26457.3
26987
25814.9
23387.3
21164.2
20742.3
22735.5
26196.1
29054.5
29382
26689.8
22389.2
19039.8
18795.6
22009.9
26908.2
30590.7
30782
27253.1
22017.5
18154.4
17965.1
21585.9
26902.9
30814.5
31070.2
27577.5
22411.6
18556.4
18157.3
21322.5
26144.2
29868.9
30486.3
27811.1
23478.3
19930.9
19034.1
21105.8
24858.7
28205.1
29419.2
28009.6
24876.5
21740.4
20203.2
20949.3
23468.4
26391
28221.8
28087.8
26140.4
23436.7
21378.4
20997.2
22439.9
24910.7
27097.3
27863.3
26844.9
24633.6
22443.4
21442.9
22119.6
24032.6
26086.8
27165.4
26750.6
25180.2
23404.9
22410.9
22657.9
23859.5
25214.5
25925.9
25673.8
24769.1
23645.9
22310
23538
25325.2
27045.5
27514
26040.5
23208.3
20696.2
20255.7
22493.8
26306.1
29421.2
29783.2
26913.3
22346
18792.7
18499.7
21814.6
26883.1
30711.4
30968
27421.1
22114.6
18162
17887.5
21443.7
26737.2
30688.2
31050.8
27699.1
22639.5
18785.8
18259.2
21219.4
25868.3
29560.4
30321.6
27898.6
23785.5
20292.9
19243.8
21036.2
24542.1
27818.8
29183.3
28058.6
25180.7
22124.8
20451.2
20927.4
23199.4
26033.5
27974.2
28076.1
26355
23748.4
21618.6
21050.2
22296.5
24660
26870.1
27763.9
26906.6
24814.4
22654.9
21592.8
22148.1
23931.4
25898.3
26965.9
26623.6
25186.5
23557.7
22662.1
22903.8
23971.3
25094.9
25576
25267.4
24455.4
23011.6
22615.9
23500.2
25463.4
27453.1
27960.8
26262.3
23092.4
20336.4
19871.1
22286.7
26353.8
29656.4
30057.8
27092.5
22373
18694.2
18345
21668.2
26782.8
30674.9
31006.6
27538.2
22287.1
18326.5
17956.2
21353.1
26501.2
30413.9
30892.5
27768.7
22927.3
19147.4
18488.4
21169.4
25547.9
29141
30043.9
27930.6
24118.8
20741.4
19551
21025.4
24220.3
27371.5
28865.1
28044.7
25469.6
22545.4
20767.2
20972.6
22965
25662.1
27671.1
27994.3
26519.3
24055.4
21903.3
21174.8
22215
24428.6
26608.7
27594.5
26899.6
24964.5
22889.9
21807.5
22248.1
23870.7
25698.7
26710.6
26427.2
25148.1
23712.4
22951.1
23183.1
24075.6
24943.6
25296.9
25140.2
24758.3
22792.2
22134.5
23140
25522.2
27808.5
28346.5
26457.1
23029.3
20099.9
19614.8
22134.7
26344.4
29750.1
30186.6
27207.7
22457.8
18743.5
18342.6
21589.7
26626.7
30492.2
30894.4
27586.4
22509.6
18627.4
18167.3
21330.9
26225.4
30019.8
30605.1
27770.8
23240.9
19606.9
18830.1
21186.5
25218.8
28648.7
29671.9
27895.5
24442
21236.7
19934.7
21082.6
23927
26902.6
28487.2
27962.1
25713
22965.4
21128.3
21087
22789.9
25309.8
27335.8
27844.4
26614.7
24329.7
22209.4
21364.3
22207
24239.5
26335.7
27366.4
26819.3
25066.3
23126.7
22071.4
22416.8
23861.2
25507.1
26420.3
26176.3
25066
23849.1
23238.4
23463.9
24205.2
24923.4
25374.1
26550.7
24056.7
22156.8
21556.7
22907.2
25620.1
28079
28605.5
26588.2
23018.3
20006.2
19509.3
22052
26279.5
29692.8
30155.4
27246.7
22594.9
18943.1
18501.2
21590.4
26424.6
30167.9
30627.9
27554.9
22768
19054
18519.8
21387.6
25927.7
29522.1
30193.6
27695
23559.3
20144.3
19276.7
21280.6
24903.6
28106.1
29214.8
27783.8
24732.5
21755.6
20384.4
21215.9
23683.9
26434.5
28060.5
27804.2
25891.6
23364.1
21523.3
21274.7
22689.8
24994.4
26979
27625.2
26630.1
24556.5
22526.3
21616.5
22278.7
24103.7
26061.6
27085.2
26664.7
25112.8
23355.2
22375.1
22648.7
23903.3
25331.3
26108.2
25884.4
24945.9
23963.6
23526
23784
24431.8
25139.8
27266.1
25650.2
23591.1
21743
21292.2
22825.5
25679.6
28194.7
28703.1
26645.8
23061.3
20062.1
19563.3
22046.8
26165.2
29487.5
29963.2
27204.6
22775.6
19283.6
18815
21672.6
26187.4
29717
30218.5
27443.5
23049
19586.4
18998.2
21522.2
25623.1
28943.9
29676
27543.3
23866.8
20734.9
19808.8
21449.2
24617.6
27537.4
28692
27598.9
24976.2
22275.2
20881.8
21421.1
23502.5
25987.1
27601.7
27576.5
25997.7
23725.8
21937.7
21528.8
22668.5
24727.4
26613.5
27345.2
26566.2
24729
22843.2
21921.2
22425.1
24023.5
25795.3
26763.2
26445.4
25107
23569.4
22705
22927.7
23986.4
25172
25788
25573.9
24813.7
24084
23839.7
24115.7
24679.3
26425.5
26565.5
25511
23535
21663.4
21229.7
22800.6
25664.2
28150.2
28636.5
26620.8
23147.8
20262.6
19780.7
22130.8
26016
29145.8
29613.2
27073.1
22983.2
19746.7
19274
21841.2
25934.5
29164
29682.1
27249.7
23331.7
20195.8
19582.4
21735
25333.3
28316.3
29075
27317.1
24142.4
21347.2
20402.5
21689.2
24380.2
26972.9
28127.3
27345.3
25156.9
22768.6
21404.2
21692
23395
25583.1
27131.7
27287.2
26024
24032.6
22352.6
21839.1
22727.7
24520.9
26255.6
27016.9
26426.6
24840.9
23146.4
22263.8
22637.1
23999.5
25547.3
26416.2
26176.4
25055.1
23762.9
23043.5
23232.4
24095
25029
25479
25279.9
24706.3
24219.6
24096.2
24293.3
24537.1
26253.3
26696
25703.6
23623
21718.5
21297.3
22839.9
25596.4
27953.4
28398.6
26501.8
23270.6
20607.6
20166.9
22311.7
25839.8
28673.3
29106.7
26847.6
23207.1
20320
19870.6
22099
25679.3
28526.8
29030.8
26971.9
23600
20860.2
20257.1
22027.3
25075.8
27663.4
28407.5
27015.8
24368.2
21956.5
21040.6
22000.5
24208
26435.9
27537.4
27024.4
25260.7
23215.4
21936.1
22025.8
23371.5
25239.1
26664.3
26940.8
25964.8
24272.6
22756.1
22198.5
22868
24381.8
25915.3
26649.7
26215.9
24889.9
23427.5
22632.4
22904.3
24028.3
25323.9
26058.8
25873.9
24967.2
23932.9
23374.3
23540
24213
24905.4
25205.2
25030.4
24620
24287.8
24148.7
22742.3
25002.3
26505
26874.1
25747.2
23686.8
21891.9
21522.7
22959.8
25479
27608
28001.9
26305.2
23438.6
21090.2
20700.9
22567
25627.3
28081.5
28469.7
26552.3
23454
20987.8
20576.1
22422
25417.6
27823.6
28293.9
26632.5
23856.2
21561.1
20994.6
22378.6
24849.3
27002.7
27698.4
26657.1
24545.7
22548.6
21702.4
22367.7
24098.5
25936.5
26938.7
26649.5
25292.2
23609.9
22465.9
22410.3
23424.8
24955.6
26207.4
26549.3
25830.5
24450
23143.6
22595.1
23075.8
24302.1
25595.2
26256.1
25950.9
24887.6
23685.7
23013.5
23207.6
24095.7
25124.7
25705.4
25560.1
24860
24080.8
23682.3
23828.8
24327.2
24803.9
24975.5
24814.9
24508.3
24220.2
22016.4
23698.9
25300.5
26526.4
26703.7
25618.6
23769.2
22191.1
21880
23144.5
25333.7
27167.5
27501.5
26054.9
23627.9
21649.6
21319
22867.4
25402.4
27435
27770.7
26219.9
23701.5
21685.5
21321
22775.7
25169
27115.8
27539.1
26267.3
24085.6
22243.3
21731.6
22752.7
24662.6
26380.8
27004.8
26277.9
24673.3
23086.9
22337.9
22754
24045.6
25500.5
26373.2
26257.5
25264.6
23937.3
22958.8
22809.1
23534.6
24737.8
25788.2
26147.8
25646.7
24567.8
23494.1
22995.4
23321.9
24272
25309.7
25867
25662.1
24848.4
23912.1
23380.3
23516.5
24184
24953.4
25378.3
25262.5
24751.9
24206.8
23952.5
24079.9
24424.8
24717
24777.3
24623.8
24372.4
22524.9
23152.5
24091.5
25286.2
26220.7
26318.5
25383.1
23838.1
22560.2
22360.1
23447.6
25244.1
26694.7
26902.4
25693.4
23749.8
22215.1
22008.5
23266
25254.8
26810.2
27029.8
25803.1
23861.7
22333.8
22078.5
23199.8
25016.2
26482.7
26798.8
25845.8
24213.4
22830.1
22430.9
23170
24580.1
25869.6
26367.7
25868.2
24698.2
23506
22903.5
23159.1
24089.8
25185.8
25885.9
25858.1
25150.3
24148.3
23370.4
23204.5
23717
24625.4
25449
25760.2
25408.2
24596.3
23769.8
23371.9
23602.2
24311
25090.7
25510.9
25361.7
24764
24083.7
23706.7
23814.1
24291.7
24823
25098.1
24999.8
24651.2
24307.2
24172.6
24278.9
24492.1
24633.5
24620.1
24485.7
23638.4
23539
23714.2
24290.8
25109.2
25729.3
25720.1
24988.8
23902.7
23099.1
23094.5
23944.6
25178.5
26066.4
26061.4
25140.8
23833.1
22907.3
22912.4
23847.9
25165.1
26095.9
26108.7
25213.6
23943.6
23030.8
22978.8
23784.8
24963
25842.5
25953.5
25276
24222.9
23385.3
23199.3
23722.2
24631.2
25423.2
25693.5
25337.4
24579.9
23834.4
23479.2
23670.3
24280
24978.7
25410
25368.6
24894.7
24244.3
23754.7
23672.1
24027.9
24626.1
25147.8
25320.3
25061.8
24522.9
24001.9
23779.1
23962.5
24432.6
24916.4
25147
25015.6
24624.5
24215.3
24018.4
24119.5
24421.9
24724
24852.6
24765.7
24559.7
24386.2
24344.1
24421.7
24524.7
24565.3
24524.8
24467.6
24312.8
24241.7
24301
24508.5
24754.4
24886.2
24802.7
24528.8
24207.8
24045.7
24157.2
24484.8
24825.6
24986
24868.7
24536.1
24170.2
23997.7
24124.8
24473.7
24826.4
24989.6
24877.1
24559.9
24213.6
24042.9
24140.8
24440.8
24757
24920
24852.6
24605.7
24317.6
24146.7
24179.8
24386.8
24644
24811.2
24813.3
24661.3
24442.9
24268.2
24225.3
24330.1
24522.6
24698.3
24768.8
24705.7
24547.1
24374.7
24272.8
24296.7
24433.2
24607.2
24719.6
24717
24606.1
24450
24327.9
24309.3
24402.6
24550.4
24660.7
24678.6
24604.2
24488.1
24394.4
24376.9
24438.2
24531.6
24592.9
24594.6
24549.5
24495.9
24468
24479.8
24510.2
24526.8
24518.8
6.80628
11.3411
12.3305
10.087
6.70156
12.2691
17.0678
13.2984
6.24924
12.5319
17.5336
13.8788
6.38655
13.3338
18.9765
14.656
5.8078
11.9381
16.8639
13.6219
5.62463
11.2737
16.4182
13.3861
5.19658
9.22548
13.4519
11.8025
5.19605
7.65815
11.7784
11.0801
5.50281
5.61294
8.99011
9.64877
6.30071
3.93364
7.12785
8.79287
7.0592
3.49076
5.17501
7.62756
7.8384
4.8972
4.26829
7.33638
8.75365
6.31436
3.59337
6.76725
9.16744
7.59853
3.77744
6.76566
9.69866
8.28651
3.7293
6.2748
9.41738
8.56282
4.14364
6.23985
9.15758
8.10045
3.75156
5.24713
7.47015
6.47688
3.03416
4.28038
5.49621
4.18447
1.81273
2.79991
2.87337
1.71138
1.5606
1.37919
0.000354534
0.00019997
-0.000101111
-0.000336101
-0.000277935
8.29253e-05
0.00046938
0.000681392
0.000559838
0.000143248
-0.000285024
-0.00049862
-0.000346291
0.000120812
0.000563827
0.000777321
0.000611583
0.000142312
-0.0003062
-0.000507699
-0.000338833
0.000132232
0.000561865
0.000754819
0.000601223
0.000189132
-0.000208017
-0.000401282
-0.000279945
0.000102765
0.000480971
0.00067614
0.000589972
0.00028512
-3.87645e-05
-0.000239349
-0.000206634
3.58163e-05
0.000343657
0.000548305
0.000558264
0.000385137
0.000123686
-8.25216e-05
-0.000150117
-4.56012e-05
0.000194915
0.000404431
0.000503992
0.000438063
0.000242982
3.08378e-05
-0.00010688
-9.3697e-05
5.93241e-05
0.000270993
0.000413124
0.000412336
0.00027999
7.8393e-05
-7.09394e-05
-9.03261e-05
2.08192e-05
0.00019595
0.000317899
0.00033145
0.000233985
8.4582e-05
-1.47331e-05
-1.61944e-05
6.65812e-05
0.000166094
0.000218087
0.000197892
0.000133608
8.17515e-05
7.80367e-05
0.000113691
0.000140474
0.000128494
0.000214525
0.000184386
6.66915e-05
-3.46555e-05
-3.68572e-05
6.3917e-05
0.000215128
0.000318423
0.00030494
0.000184551
1.32169e-05
-8.89711e-05
-6.20669e-05
7.23582e-05
0.000249446
0.000358045
0.000331382
0.000193221
1.3623e-05
-8.40406e-05
-4.83832e-05
8.99759e-05
0.000262637
0.000358757
0.000331067
0.000212396
6.22368e-05
-2.71692e-05
-6.50884e-06
0.000101971
0.000249668
0.000344307
0.000337487
0.000252067
0.000137551
5.01598e-05
4.09676e-05
0.000105388
0.000215211
0.000305102
0.000327649
0.000281176
0.000198818
0.000113543
7.16926e-05
9.01884e-05
0.0001619
0.000247161
0.000297209
0.000285775
0.000226684
0.000147921
8.55517e-05
7.31962e-05
0.000111626
0.000183515
0.000243848
0.000252979
0.000216345
0.000146953
8.28305e-05
6.31952e-05
9.00462e-05
0.000143043
0.000193035
0.000207609
0.000182187
0.000129807
8.5979e-05
7.69303e-05
9.93798e-05
0.000131691
0.000153727
0.000151397
0.000130574
0.000110835
0.000107307
0.000117719
0.000127023
0.00012646
0.000122816
0.000172311
0.00019343
0.000160959
9.47005e-05
4.73954e-05
4.23574e-05
9.09612e-05
0.000163213
0.000208025
0.000208333
0.000158528
8.54708e-05
4.10022e-05
4.80543e-05
0.00010604
0.000182122
0.000225042
0.000215644
0.000160811
9.48623e-05
6.03514e-05
7.7792e-05
0.000132239
0.000193917
0.00022975
0.000225521
0.000186721
0.000133606
0.000103072
0.000104124
0.000141244
0.000196522
0.000236385
0.000244599
0.000222624
0.000179569
0.000145519
0.000131522
0.0001469
0.000186108
0.000225232
0.000241725
0.000236368
0.000207475
0.000170959
0.000146784
0.000143095
0.000162685
0.000195319
0.000218189
0.000221137
0.0002014
0.000167745
0.000139048
0.000129666
0.00014303
0.000164641
0.000184057
0.000188989
0.000174963
0.000148799
0.000123194
0.000112561
0.000118244
0.000137149
0.00015413
0.000159023
0.00014789
0.000126778
0.000111729
0.000110916
0.00011927
0.000129701
0.00013325
0.000127338
0.000118554
0.000115776
0.000119541
0.000123074
7.92584e-05
0.000115102
0.0001571
0.000173235
0.000160434
0.000126563
8.68381e-05
7.04079e-05
9.07876e-05
0.000135445
0.000177919
0.000186344
0.000166923
0.000126092
8.29496e-05
7.19144e-05
9.91281e-05
0.00014935
0.000193143
0.00019666
0.000172453
0.000129805
9.30073e-05
9.81617e-05
0.000126233
0.000164448
0.0002017
0.000211916
0.000196773
0.000165799
0.000136389
0.000130631
0.000144765
0.000169936
0.000198705
0.000217392
0.000217321
0.000200464
0.000174225
0.000159838
0.00016071
0.000173408
0.000193171
0.000211409
0.000218104
0.00021044
0.00018746
0.000165821
0.000158089
0.000162395
0.000174816
0.000191054
0.000200406
0.000194642
0.00017586
0.000150266
0.000137839
0.000142079
0.000151014
0.000166291
0.000173558
0.000167214
0.000154595
0.000138228
0.000125492
0.000122696
0.000128534
0.0001393
0.000143964
0.000140065
0.000131351
0.000122708
0.000118552
0.000120057
0.000124103
0.000125794
0.000123436
0.00012019
0.000119621
0.000121468
0.000104459
0.000103061
0.000115416
0.000131239
0.0001426
0.000143564
0.000131768
0.000114248
0.000102024
0.000105283
0.000122895
0.000141561
0.000153911
0.000152567
0.000136511
0.000117341
0.000106362
0.00011362
0.00013754
0.00016052
0.000170699
0.000165244
0.000145304
0.000129679
0.00012838
0.000138011
0.000156253
0.000173551
0.000184928
0.000185547
0.000176804
0.00016812
0.00016372
0.00016527
0.000173737
0.000186135
0.000196844
0.000201643
0.000198049
0.000191026
0.00018446
0.000181061
0.000182554
0.000188534
0.00019576
0.000200439
0.000198394
0.000190919
0.000182307
0.000175261
0.000171689
0.000173389
0.000178628
0.00018301
0.000182251
0.000172222
0.000159065
0.00015155
0.000147364
0.00014934
0.000153059
0.000154664
0.000153501
0.00014846
0.000140689
0.000133397
0.000129247
0.000129711
0.000132145
0.000133487
0.000132228
0.000128466
0.00012402
0.000121353
0.000121337
0.000122557
0.000122816
0.000121642
0.000120493
0.000120934
0.000126444
0.000119433
0.000116773
0.000118803
0.000124091
0.000130121
0.000132857
0.000130846
0.000124941
0.000119613
0.000119758
0.000124073
0.000131545
0.00013906
0.000141316
0.000138352
0.000131864
0.000126726
0.000129145
0.000137465
0.000148122
0.000157186
0.000157124
0.000151345
0.000148128
0.000147935
0.000152301
0.000159221
0.000167203
0.000174043
0.000177119
0.00017796
0.000177867
0.000177488
0.000178505
0.000181707
0.00018635
0.000191171
0.000194108
0.000194965
0.000194141
0.000192255
0.000190392
0.000189605
0.000190104
0.0001914
0.000192059
0.000191046
0.000188454
0.000184613
0.000179872
0.000175797
0.00017354
0.000173093
0.00017385
0.000172134
0.000166199
0.000160758
0.000155369
0.000151717
0.000149707
0.000148221
0.000147106
0.000145465
0.000142578
0.000138688
0.000134606
0.000131624
0.000130127
0.00012957
0.000129127
0.000127955
0.000125849
0.000123546
0.00012204
0.000121682
0.00012181
0.000121577
0.00012089
0.000120831
0.000126843
0.000125256
0.000122774
0.000121428
0.000121539
0.000123331
0.000125774
0.000127878
0.000128435
0.000127413
0.000126589
0.000126307
0.00012735
0.000130414
0.000133766
0.000136577
0.000137658
0.000136854
0.000136515
0.000137667
0.000140839
0.000146678
0.000151956
0.00015467
0.00015519
0.000156143
0.000158287
0.000161292
0.000165099
0.000169565
0.000173543
0.000176939
0.000179909
0.000182147
0.000183913
0.000185687
0.000187675
0.000189985
0.00019212
0.000193786
0.000194815
0.000195098
0.000194655
0.000193757
0.000192679
0.000191648
0.000190647
0.000189413
0.000187845
0.000185879
0.000183105
0.000179651
0.000175979
0.00017254
0.000170308
0.000168656
0.000166007
0.000162091
0.000158139
0.000154449
0.000151196
0.000148128
0.000145433
0.00014311
0.00014088
0.000138525
0.000135925
0.000133313
0.000131011
0.000129169
0.000127803
0.00012669
0.000125496
0.000124114
0.000122767
0.000121834
0.000121423
0.000121246
0.000120892
0.000120758
0.000123662
0.000123929
0.000123479
0.000123222
0.000123217
0.000123693
0.000124474
0.000125503
0.000126508
0.000127149
0.00012784
0.000128486
0.000129053
0.000130238
0.000131815
0.00013383
0.000136019
0.000137716
0.000139254
0.000140764
0.000142296
0.000145042
0.000148799
0.000152715
0.000155393
0.00015783
0.000160525
0.000163528
0.000166769
0.000170353
0.000173896
0.000177215
0.0001804
0.000183272
0.000185766
0.000187983
0.000189992
0.000191903
0.00019359
0.000194912
0.00019579
0.0001962
0.00019611
0.00019558
0.000194696
0.000193531
0.000192124
0.000190387
0.000188316
0.000186068
0.000183542
0.000180692
0.000177547
0.000174025
0.000170646
0.000167783
0.000164996
0.000161698
0.000158249
0.000154849
0.000151662
0.000148567
0.000145593
0.000142825
0.000140267
0.000137897
0.000135633
0.000133449
0.000131376
0.000129436
0.000127709
0.000126258
0.000125043
0.000123955
0.000122918
0.000121998
0.000121347
0.000121017
0.000120758
0.000120644
0.000122893
0.000122601
0.000122471
0.000122623
0.000123082
0.00012387
0.000124721
0.000125462
0.000126066
0.000126511
0.000127155
0.000128146
0.000129285
0.000130729
0.000132268
0.000133828
0.000135518
0.00013721
0.000139134
0.000141384
0.000143612
0.000146106
0.000149066
0.00015249
0.000155698
0.000158633
0.000161538
0.000164638
0.000167956
0.000171536
0.000175179
0.000178633
0.00018186
0.000184782
0.000187364
0.000189668
0.000191756
0.000193693
0.000195413
0.000196773
0.000197645
0.000197989
0.000197801
0.000197156
0.000196176
0.000194955
0.000193532
0.000191805
0.000189655
0.00018714
0.000184306
0.000181257
0.000178135
0.000174842
0.000171425
0.000168149
0.000165027
0.00016175
0.000158331
0.000154885
0.000151598
0.000148496
0.000145567
0.000142806
0.000140191
0.000137718
0.000135388
0.000133217
0.000131229
0.000129398
0.000127706
0.000126177
0.000124852
0.000123739
0.000122792
0.000121962
0.000121281
0.00012085
0.000120589
0.000120487
0.000122848
0.000122446
0.000122277
0.000122289
0.00012258
0.000123263
0.000124219
0.000125198
0.000126028
0.00012661
0.000127139
0.000127915
0.00012898
0.000130457
0.000132223
0.000134045
0.000135846
0.000137541
0.000139322
0.000141491
0.000143965
0.000146696
0.000149653
0.000152937
0.000156313
0.000159579
0.000162724
0.000165906
0.000169222
0.000172746
0.000176412
0.000180016
0.00018343
0.000186549
0.000189303
0.000191705
0.000193803
0.000195667
0.000197302
0.000198631
0.000199538
0.000199943
0.0001998
0.000199126
0.000198008
0.000196567
0.000194911
0.000193041
0.000190861
0.000188326
0.000185418
0.0001822
0.000178855
0.000175458
0.000171992
0.000168547
0.000165214
0.000161879
0.000158477
0.000155026
0.000151648
0.000148437
0.000145434
0.000142647
0.000140042
0.000137581
0.000135243
0.00013304
0.000131021
0.000129199
0.000127554
0.000126062
0.000124724
0.000123565
0.0001226
0.000121799
0.000121136
0.000120671
0.000120392
0.000120289
0.000122232
0.000122173
0.000122218
0.000122305
0.000122494
0.000122922
0.000123652
0.00012459
0.000125595
0.000126503
0.000127292
0.000128122
0.000129093
0.000130364
0.000131996
0.000133881
0.000135898
0.000137894
0.000139853
0.000141993
0.000144431
0.00014719
0.000150182
0.000153431
0.000156873
0.000160375
0.000163829
0.000167257
0.00017071
0.000174245
0.000177877
0.000181504
0.000185016
0.000188307
0.000191281
0.000193888
0.000196118
0.000197996
0.000199548
0.000200762
0.000201582
0.000201954
0.00020183
0.000201187
0.000200048
0.000198477
0.000196581
0.000194437
0.000192046
0.000189396
0.000186453
0.000183206
0.000179749
0.000176201
0.000172605
0.000168996
0.000165458
0.000161983
0.000158537
0.000155102
0.000151717
0.000148451
0.000145362
0.000142487
0.000139825
0.000137348
0.000135025
0.00013284
0.000130811
0.00012897
0.00012732
0.000125846
0.000124526
0.000123362
0.000122373
0.000121565
0.000120913
0.000120439
0.00012015
0.000120042
0.000121484
0.000121631
0.00012186
0.00012212
0.00012241
0.000122794
0.000123361
0.000124139
0.000125091
0.000126126
0.000127156
0.000128203
0.000129301
0.000130538
0.000132025
0.000133787
0.0001358
0.000137969
0.00014019
0.000142504
0.000145008
0.000147784
0.0001508
0.000154046
0.000157502
0.00016111
0.000164785
0.000168473
0.000172159
0.000175848
0.000179552
0.000183228
0.000186805
0.000190204
0.000193338
0.000196132
0.000198535
0.000200522
0.000202091
0.000203243
0.00020396
0.000204223
0.000204012
0.000203312
0.000202125
0.000200475
0.000198423
0.000196048
0.000193402
0.000190527
0.000187433
0.00018411
0.000180585
0.000176935
0.000173222
0.00016948
0.000165776
0.00016214
0.000158582
0.000155099
0.0001517
0.000148416
0.000145284
0.000142338
0.000139601
0.000137068
0.000134725
0.00013255
0.000130535
0.000128691
0.000127029
0.000125549
0.000124238
0.000123082
0.000122087
0.000121268
0.000120618
0.000120141
0.000119846
0.000119733
0.000120941
0.000121112
0.000121382
0.00012173
0.000122131
0.00012259
0.000123153
0.000123862
0.000124736
0.000125754
0.000126864
0.00012805
0.000129305
0.000130649
0.000132146
0.00013385
0.000135798
0.000137983
0.000140338
0.000142828
0.000145474
0.000148335
0.000151421
0.000154724
0.000158226
0.000161909
0.000165719
0.000169599
0.000173506
0.000177405
0.000181278
0.000185092
0.000188792
0.000192317
0.000195591
0.000198542
0.0002011
0.000203215
0.000204857
0.000206011
0.000206667
0.000206823
0.000206476
0.000205634
0.000204311
0.000202525
0.00020032
0.000197752
0.000194879
0.000191766
0.000188455
0.000184968
0.000181327
0.00017757
0.00017375
0.000169902
0.000166077
0.000162313
0.000158635
0.000155065
0.000151611
0.000148291
0.000145126
0.000142136
0.000139341
0.000136753
0.000134368
0.000132176
0.000130164
0.000128325
0.000126661
0.000125174
0.000123861
0.000122711
0.00012172
0.000120897
0.000120246
0.000119768
0.000119469
0.000119351
0.00012047
0.000120616
0.000120871
0.000121234
0.000121686
0.000122213
0.000122831
0.000123559
0.000124419
0.000125418
0.00012654
0.000127776
0.000129119
0.000130568
0.000132147
0.00013389
0.000135836
0.000138015
0.000140417
0.000143012
0.000145786
0.000148758
0.000151942
0.000155337
0.000158934
0.000162714
0.000166647
0.000170687
0.000174788
0.000178903
0.000182992
0.000187011
0.000190908
0.000194619
0.000198074
0.000201197
0.000203916
0.000206164
0.000207894
0.000209076
0.000209696
0.000209754
0.000209258
0.000208231
0.000206702
0.000204702
0.000202285
0.000199499
0.000196394
0.000193043
0.000189498
0.000185803
0.000181993
0.000178096
0.000174156
0.000170202
0.000166277
0.000162413
0.000158636
0.000154979
0.000151453
0.000148077
0.000144867
0.000141838
0.000139
0.000136368
0.000133944
0.000131723
0.000129697
0.000127857
0.000126194
0.000124706
0.000123391
0.000122243
0.000121258
0.000120438
0.000119788
0.000119311
0.000119011
0.000118888
0.000119939
0.000120067
0.000120309
0.000120668
0.000121135
0.000121699
0.000122361
0.000123128
0.000124011
0.00012502
0.000126155
0.000127415
0.000128801
0.000130316
0.000131972
0.000133787
0.000135784
0.000137992
0.000140429
0.00014309
0.000145959
0.000149037
0.000152329
0.000155833
0.000159543
0.000163444
0.000167512
0.000171715
0.000176009
0.00018035
0.000184685
0.000188963
0.000193122
0.000197092
0.000200794
0.000204147
0.000207066
0.000209473
0.000211308
0.000212528
0.000213112
0.000213061
0.000212391
0.000211138
0.000209349
0.000207069
0.000204365
0.000201299
0.000197921
0.000194306
0.000190507
0.000186577
0.000182565
0.000178498
0.000174418
0.000170347
0.000166324
0.000162373
0.000158515
0.000154783
0.000151191
0.000147756
0.000144496
0.000141425
0.000138549
0.000135881
0.000133424
0.000131176
0.000129132
0.000127283
0.000125619
0.000124132
0.000122818
0.000121673
0.000120694
0.00011988
0.000119233
0.000118758
0.000118459
0.000118334
0.000119288
0.000119407
0.000119645
0.000120003
0.000120477
0.000121061
0.000121751
0.00012255
0.000123461
0.000124493
0.000125649
0.000126933
0.000128352
0.000129912
0.000131624
0.000133504
0.000135566
0.000137831
0.000140317
0.000143033
0.000145978
0.000149147
0.000152539
0.000156153
0.000159984
0.000164019
0.000168241
0.000172625
0.000177133
0.000181726
0.00018635
0.000190944
0.000195439
0.000199751
0.000203788
0.000207451
0.00021064
0.000213258
0.000215228
0.000216496
0.000217032
0.000216842
0.00021595
0.000214409
0.00021229
0.000209653
0.000206585
0.000203165
0.000199451
0.000195522
0.000191435
0.000187243
0.000183002
0.000178741
0.000174503
0.000170305
0.000166177
0.000162141
0.000158215
0.00015442
0.000150774
0.000147291
0.000143987
0.000140877
0.000137969
0.000135269
0.000132785
0.000130515
0.000128453
0.000126594
0.000124928
0.000123443
0.000122134
0.000120995
0.000120023
0.000119216
0.000118576
0.000118105
0.000117806
0.00011768
0.000118502
0.000118618
0.000118857
0.000119218
0.000119697
0.000120292
0.000121001
0.000121822
0.000122757
0.000123811
0.00012499
0.000126299
0.000127746
0.000129343
0.0001311
0.000133032
0.000135153
0.000137477
0.000140019
0.000142792
0.0001458
0.000149046
0.000152527
0.000156244
0.000160194
0.00016437
0.00016876
0.000173349
0.000178104
0.000182992
0.000187962
0.00019295
0.000197874
0.000202635
0.000207121
0.000211206
0.000214762
0.000217668
0.00021982
0.000221149
0.000221618
0.000221238
0.000220049
0.000218126
0.000215572
0.000212475
0.000208947
0.000205084
0.000200959
0.000196657
0.000192237
0.000187751
0.000183254
0.00017878
0.000174364
0.000170025
0.000165792
0.000161674
0.000157688
0.000153845
0.000150157
0.000146642
0.000143307