/*--------------------------------*- C++ -*----------------------------------*\
| =========                 |                                                 |
| \\      /  F ield         | OpenFOAM: The Open Source CFD Toolbox           |
|  \\    /   O peration     | Version:  2412                                  |
|   \\  /    A nd           | Website:  www.openfoam.com                      |
|    \\/     M anipulation  |                                                 |
\*---------------------------------------------------------------------------*/
FoamFile
{
    version     2.0;
    format      ascii;
    arch        "LSB;label=32;scalar=64";
    class       volScalarField;
    location    "5.9";
    object      p_rgh;
}
// * * * * * * * * * * * * * * * * * * * * * * * * * * * * * * * * * * * * * //

dimensions      [1 -1 -2 0 0 0 0];

internalField   nonuniform List<scalar> 
6400
(
9883.85
9883.06
9881.49
9879.19
9876.17
9872.5
9868.23
9863.44
9858.2
9852.6
9846.74
9840.73
9834.66
9828.65
9822.8
9817.22
9812.01
9807.28
9803.11
9799.58
9796.75
9794.67
9793.37
9792.85
9793.11
9794.12
9795.81
9798.11
9800.92
9804.14
9807.64
9811.27
9814.91
9818.4
9821.62
9824.43
9826.73
9828.43
9829.46
9829.78
9829.38
9828.28
9826.53
9824.2
9821.39
9818.21
9814.79
9811.27
9807.79
9804.48
9801.48
9798.9
9796.85
9795.42
9794.68
9794.68
9795.43
9796.96
9799.24
9802.25
9805.94
9810.24
9815.08
9820.37
9826.01
9831.92
9837.98
9844.11
9850.19
9856.14
9861.85
9867.26
9872.28
9876.83
9880.85
9884.29
9887.1
9889.24
9890.69
9891.42
9884.62
9883.82
9882.23
9879.89
9876.82
9873.09
9868.75
9863.87
9858.54
9852.85
9846.89
9840.77
9834.6
9828.48
9822.52
9816.84
9811.54
9806.72
9802.47
9798.88
9796
9793.89
9792.58
9792.07
9792.37
9793.43
9795.19
9797.59
9800.51
9803.86
9807.49
9811.26
9815.04
9818.67
9822.01
9824.93
9827.32
9829.09
9830.15
9830.48
9830.07
9828.92
9827.1
9824.68
9821.75
9818.45
9814.89
9811.23
9807.61
9804.17
9801.05
9798.36
9796.23
9794.73
9793.94
9793.91
9794.66
9796.2
9798.52
9801.58
9805.33
9809.7
9814.62
9820
9825.75
9831.76
9837.92
9844.14
9850.32
9856.36
9862.16
9867.65
9872.73
9877.35
9881.43
9884.91
9887.76
9889.93
9891.4
9892.14
9886.17
9885.34
9883.7
9881.29
9878.12
9874.27
9869.78
9864.75
9859.24
9853.36
9847.2
9840.87
9834.48
9828.14
9821.97
9816.08
9810.58
9805.58
9801.18
9797.45
9794.48
9792.31
9790.97
9790.49
9790.85
9792.02
9793.94
9796.52
9799.68
9803.28
9807.18
9811.25
9815.31
9819.22
9822.82
9825.97
9828.54
9830.44
9831.58
9831.94
9831.48
9830.24
9828.27
9825.65
9822.49
9818.93
9815.09
9811.15
9807.24
9803.54
9800.17
9797.27
9794.96
9793.33
9792.44
9792.35
9793.1
9794.67
9797.05
9800.21
9804.09
9808.62
9813.71
9819.28
9825.23
9831.44
9837.8
9844.22
9850.59
9856.81
9862.78
9868.43
9873.66
9878.4
9882.59
9886.16
9889.09
9891.31
9892.82
9893.58
9888.53
9887.66
9885.94
9883.41
9880.1
9876.06
9871.36
9866.08
9860.31
9854.14
9847.68
9841.03
9834.31
9827.64
9821.14
9814.93
9809.13
9803.86
9799.21
9795.28
9792.15
9789.88
9788.51
9788.06
9788.52
9789.85
9792
9794.89
9798.39
9802.38
9806.72
9811.22
9815.73
9820.07
9824.07
9827.57
9830.43
9832.54
9833.8
9834.19
9833.67
9832.28
9830.08
9827.16
9823.64
9819.66
9815.4
9811.02
9806.68
9802.56
9798.82
9795.6
9793.01
9791.17
9790.14
9789.97
9790.69
9792.31
9794.8
9798.11
9802.19
9806.96
9812.33
9818.19
9824.44
9830.95
9837.63
9844.35
9851.01
9857.51
9863.74
9869.61
9875.06
9879.99
9884.34
9888.06
9891.1
9893.41
9894.97
9895.76
9891.73
9890.81
9888.99
9886.3
9882.78
9878.5
9873.51
9867.9
9861.77
9855.21
9848.34
9841.25
9834.09
9826.96
9820.01
9813.37
9807.15
9801.5
9796.51
9792.31
9788.96
9786.56
9785.13
9784.72
9785.31
9786.86
9789.33
9792.62
9796.6
9801.14
9806.06
9811.19
9816.32
9821.26
9825.81
9829.8
9833.06
9835.46
9836.91
9837.34
9836.74
9835.14
9832.61
9829.26
9825.23
9820.69
9815.83
9810.83
9805.89
9801.21
9796.95
9793.28
9790.32
9788.19
9786.96
9786.69
9787.4
9789.08
9791.72
9795.25
9799.61
9804.71
9810.45
9816.71
9823.37
9830.31
9837.41
9844.54
9851.59
9858.46
9865.04
9871.23
9876.96
9882.15
9886.73
9890.64
9893.82
9896.24
9897.88
9898.71
9895.83
9894.84
9892.88
9890
9886.22
9881.62
9876.26
9870.24
9863.65
9856.6
9849.19
9841.55
9833.81
9826.11
9818.58
9811.37
9804.62
9798.47
9793.04
9788.47
9784.84
9782.24
9780.74
9780.36
9781.11
9782.95
9785.82
9789.63
9794.24
9799.49
9805.19
9811.13
9817.08
9822.82
9828.12
9832.76
9836.55
9839.35
9841.02
9841.51
9840.8
9838.92
9835.96
9832.04
9827.33
9822.04
9816.38
9810.57
9804.85
9799.42
9794.5
9790.24
9786.8
9784.3
9782.82
9782.42
9783.12
9784.9
9787.74
9791.56
9796.29
9801.83
9808.05
9814.82
9822.02
9829.51
9837.15
9844.81
9852.36
9859.7
9866.71
9873.31
9879.41
9884.92
9889.78
9893.92
9897.29
9899.86
9901.59
9902.46
9900.89
9899.81
9897.69
9894.56
9890.47
9885.47
9879.66
9873.13
9865.98
9858.32
9850.27
9841.95
9833.5
9825.08
9816.83
9808.91
9801.48
9794.7
9788.72
9783.67
9779.67
9776.83
9775.21
9774.87
9775.8
9777.99
9781.37
9785.84
9791.24
9797.39
9804.08
9811.05
9818.06
9824.82
9831.07
9836.55
9841.03
9844.34
9846.32
9846.89
9846.03
9843.79
9840.26
9835.6
9830.02
9823.76
9817.08
9810.24
9803.51
9797.13
9791.35
9786.36
9782.33
9779.38
9777.6
9777.05
9777.74
9779.66
9782.75
9786.95
9792.16
9798.25
9805.08
9812.51
9820.38
9828.55
9836.86
9845.17
9853.34
9861.26
9868.81
9875.89
9882.42
9888.32
9893.53
9897.95
9901.55
9904.29
9906.13
9907.06
9906.99
9905.8
9903.49
9900.07
9895.59
9890.13
9883.77
9876.63
9868.81
9860.43
9851.6
9842.46
9833.17
9823.87
9814.74
9805.95
9797.69
9790.13
9783.45
9777.81
9773.35
9770.18
9768.4
9768.08
9769.24
9771.84
9775.84
9781.1
9787.47
9794.74
9802.66
9810.94
9819.27
9827.32
9834.77
9841.32
9846.69
9850.64
9853.01
9853.68
9852.64
9849.93
9845.68
9840.08
9833.39
9825.9
9817.92
9809.78
9801.79
9794.24
9787.42
9781.53
9776.77
9773.28
9771.14
9770.42
9771.12
9773.22
9776.66
9781.34
9787.14
9793.91
9801.51
9809.75
9818.46
9827.46
9836.58
9845.67
9854.58
9863.18
9871.36
9879.02
9886.07
9892.43
9898.03
9902.79
9906.66
9909.6
9911.57
9912.57
9914.23
9912.91
9910.36
9906.6
9901.67
9895.64
9888.65
9880.8
9872.21
9862.98
9853.24
9843.13
9832.82
9822.47
9812.29
9802.46
9793.19
9784.68
9777.14
9770.76
9765.71
9762.13
9760.14
9759.82
9761.21
9764.29
9769.01
9775.23
9782.79
9791.43
9800.87
9810.76
9820.74
9830.41
9839.38
9847.28
9853.76
9858.53
9861.38
9862.19
9860.91
9857.61
9852.44
9845.66
9837.57
9828.53
9818.93
9809.16
9799.62
9790.64
9782.53
9775.57
9769.94
9765.81
9763.26
9762.37
9763.11
9765.46
9769.33
9774.6
9781.14
9788.76
9797.3
9806.53
9816.24
9826.23
9836.32
9846.34
9856.12
9865.52
9874.44
9882.75
9890.39
9897.29
9903.34
9908.49
9912.69
9915.85
9917.97
9919.05
9922.75
9921.21
9918.43
9914.27
9908.78
9902.1
9894.37
9885.71
9876.23
9866.02
9855.24
9844
9832.5
9820.92
9809.47
9798.39
9787.9
9778.25
9769.66
9762.37
9756.58
9752.46
9750.17
9749.81
9751.45
9755.08
9760.65
9768.03
9777.01
9787.31
9798.61
9810.49
9822.51
9834.2
9845.06
9854.65
9862.52
9868.33
9871.8
9872.78
9871.2
9867.15
9860.83
9852.54
9842.69
9831.71
9820.1
9808.34
9796.88
9786.16
9776.52
9768.25
9761.61
9756.73
9753.73
9752.65
9753.48
9756.15
9760.57
9766.6
9774.04
9782.69
9792.39
9802.81
9813.72
9824.9
9836.15
9847.25
9858.03
9868.36
9878.09
9887.15
9895.47
9902.95
9909.53
9915.14
9919.7
9923.12
9925.38
9926.57
9932.74
9930.75
9927.84
9923.19
9917.03
9909.56
9900.99
9891.43
9880.95
9869.66
9857.67
9845.14
9832.24
9819.2
9806.27
9793.71
9781.78
9770.74
9760.86
9752.46
9745.74
9740.94
9738.24
9737.79
9739.68
9743.92
9750.47
9759.19
9769.87
9782.19
9795.74
9810.07
9824.6
9838.79
9852.02
9863.72
9873.35
9880.46
9884.72
9885.91
9883.96
9878.97
9871.18
9861
9848.93
9835.54
9821.42
9807.2
9793.41
9780.57
9769.09
9759.31
9751.48
9745.76
9742.27
9741.02
9741.98
9745.09
9750.2
9757.16
9765.75
9775.73
9786.74
9798.58
9810.92
9823.51
9836.09
9848.45
9860.4
9871.76
9882.42
9892.3
9901.35
9909.49
9916.64
9922.78
9927.77
9931.52
9933.86
9935.24
9943.87
9935.26
9938.74
9933.54
9926.51
9918.07
9908.57
9898.06
9886.51
9873.99
9860.64
9846.61
9832.1
9817.36
9802.68
9788.37
9774.72
9762.03
9750.59
9740.84
9732.96
9727.27
9724.03
9723.4
9725.51
9730.42
9738.08
9748.37
9761.05
9775.78
9792.09
9809.42
9827.03
9844.34
9860.52
9874.86
9886.69
9895.45
9900.71
9902.17
9899.75
9893.56
9883.92
9871.35
9856.49
9840.07
9822.85
9805.59
9788.99
9773.62
9759.96
9748.4
9739.21
9732.56
9728.53
9727.14
9728.32
9731.98
9737.96
9746.06
9756.02
9767.55
9780.26
9793.81
9807.86
9822.1
9836.25
9850.09
9863.36
9875.88
9887.54
9898.29
9908.11
9916.97
9924.72
9931.44
9937
9941.21
9943.35
9945.25
9951.87
9920.92
9925.49
9945.51
9937.2
9927.56
9917.09
9905.67
9893
9879.12
9864.26
9848.52
9832.13
9815.4
9798.66
9782.29
9766.62
9751.99
9738.8
9727.24
9717.89
9711.07
9707.1
9706.19
9708.49
9714.09
9722.99
9735.09
9750.14
9767.75
9787.38
9808.35
9829.85
9851
9870.86
9888.5
9903.1
9913.95
9920.46
9922.28
9919.27
9911.57
9899.59
9883.98
9865.61
9845.4
9824.34
9803.35
9783.3
9764.93
9748.71
9735.09
9724.36
9716.68
9712.1
9710.61
9712.11
9716.48
9723.53
9733.03
9744.69
9758.13
9772.88
9788.51
9804.59
9820.75
9836.73
9852.26
9867.04
9880.84
9893.56
9905.21
9915.72
9925.4
9933.72
9941.13
9947.55
9952.45
9936.41
9950.7
9967.68
9943.58
9926.91
9951.73
9948.94
9937.67
9926.29
9914.29
9900.61
9885.21
9868.68
9851.04
9832.5
9813.41
9794.24
9775.43
9757.36
9740.37
9724.87
9711.24
9700.08
9691.85
9686.93
9685.6
9688.03
9694.36
9704.63
9718.79
9736.62
9757.66
9781.29
9806.73
9832.99
9858.94
9883.39
9905.19
9923.28
9936.76
9944.86
9947.15
9943.44
9933.83
9918.86
9899.4
9876.63
9851.64
9825.79
9800.21
9776.01
9754.01
9734.82
9718.87
9706.41
9697.64
9692.5
9690.94
9692.87
9698.1
9706.44
9717.66
9731.43
9747.24
9764.51
9782.65
9801.12
9819.52
9837.6
9855.16
9871.69
9886.87
9900.61
9913.3
9925.02
9934.6
9943.11
9951.45
9959.12
9956.32
9932.68
9956.34
9987.13
9981.65
9967.85
9923.15
9958.69
9948.37
9936.03
9923.78
9909.52
9892.25
9874.15
9854.49
9833.42
9811.44
9789.35
9767.72
9746.9
9727.16
9708.91
9692.69
9679.27
9669.23
9663.06
9661.09
9663.51
9670.48
9682.17
9698.62
9719.68
9744.87
9773.41
9804.33
9836.44
9868.36
9898.54
9925.6
9948.13
9964.96
9975.11
9978.02
9973.47
9961.47
9942.66
9918.15
9889.81
9858.65
9826.92
9795.69
9766.52
9740.27
9717.61
9698.98
9684.63
9674.79
9669.1
9667.61
9670.14
9676.47
9686.39
9699.62
9715.85
9734.78
9755.17
9776.33
9797.53
9818.34
9838.74
9858.91
9877.7
9894.4
9908.59
9921.84
9933.77
9943.36
9952.34
9961.59
9969.91
9952.94
9968
9971.65
9991.86
9961.8
9962.54
9904.95
9932.78
9959.35
9946.14
9934.12
9919.03
9900.2
9881.04
9859.48
9835.25
9809.43
9783.75
9758.95
9735.16
9712.46
9691.22
9671.67
9655.42
9643.06
9635.26
9632.37
9634.56
9641.98
9654.9
9673.56
9698.05
9727.99
9762.53
9800.41
9839.98
9879.42
9916.83
9950.58
9978.85
10000
10012.7
10016.3
10010.9
9996.13
9973.24
9942.61
9906.94
9868.08
9827.97
9789.31
9753.91
9722.63
9695.98
9674.32
9657.94
9646.99
9641.25
9640.35
9643.95
9651.77
9663.62
9679.29
9698.38
9721.11
9745.09
9769.71
9793.96
9817.42
9840.57
9863.66
9885.3
9903.63
9918.06
9931.07
9944.19
9950.17
9962.01
9963.65
9908.52
9898.52
9968.23
9976.73
9970.56
9887.79
9882
9907.52
9917.75
9971.36
9954.5
9945.5
9930.2
9911.22
9890.67
9866.78
9838.74
9808.01
9777.57
9748.74
9721.4
9695.38
9671.16
9648.28
9628.6
9613.2
9603.18
9599.06
9600.77
9608.3
9622.04
9642.71
9670.79
9706.06
9747.44
9793.65
9842.73
9891.89
9938.51
9981.15
10016.9
10043.6
10059
10063.3
10056.2
10038.2
10009.5
9971.3
9926.14
9877.07
9826.64
9778.65
9736.66
9700.11
9669.21
9644.33
9625.83
9613.92
9608.31
9608.44
9613.66
9623.53
9638.01
9657.03
9680.13
9705.95
9733.98
9762.75
9790.8
9817.75
9844.51
9871.26
9896.03
9916.1
9931.06
9944.02
9957.17
9963.23
9970.83
9951.56
9896.86
9889.07
9895.53
9982.69
9986.72
9902.24
9895.43
9975.58
9979.72
9982.91
9966.37
9959.77
9945.85
9927.45
9904.86
9877.24
9844.07
9807.36
9770.72
9736.17
9703.76
9673.51
9647.17
9620.81
9595.45
9574.68
9561.49
9556.2
9557.67
9565.28
9579.87
9603.22
9636.48
9679.53
9729.59
9785.44
9845.75
9907.07
9966.82
10018.4
10063.9
10097.9
10116.7
10121.7
10113.2
10090.3
10054
10005.7
9947.78
9883.6
9818.12
9762.38
9715.46
9673.88
9637.94
9609.13
9587.78
9573.84
9567.2
9567.41
9573.81
9585.94
9603.88
9627.58
9655.8
9685.78
9719.29
9753.94
9787.45
9819.74
9851.9
9883.26
9911.14
9933.09
9949.37
9962.1
9973.45
9979.73
9977.25
9968.97
9910.24
9901.86
9905.54
9985.1
10084.5
10056.6
10037.5
10050
10034
10005.4
9984.91
9977.18
9967.51
9949.23
9924.99
9892.7
9852.57
9807.53
9762.15
9719.62
9679.8
9641.68
9584.02
9489.35
9374.38
9277.59
9230.56
9221.55
9233.6
9262.54
9315.34
9404.53
9523.03
9635.4
9706.51
9775.31
9849.31
9923.35
9989.92
10060.3
10122.4
10169.7
10187.1
10191.6
10183.1
10153.3
10110.4
10051.1
9978.27
9902.27
9825.69
9756.83
9694.97
9625.56
9541.97
9460.51
9389.1
9335.27
9305.3
9303.4
9324.54
9367.13
9427.38
9503.84
9586.31
9653.97
9700.32
9743.48
9782.5
9820.16
9859.33
9897.79
9931.1
9956.47
9974.8
9987.98
9994.93
9993.75
9999.64
10014.7
10021
10002.6
10030
10021.7
10128.8
10117.3
10104.9
10093.1
10069.1
10040.2
9991.41
9877.93
9777.38
9766.96
9723.33
9464.7
9020.97
8466.95
7880.84
7299.66
6683.84
5966.9
5219.6
4526.9
3910.67
3494.86
3324.03
3307.47
3361.51
3454.51
3613.28
3929.33
4530.84
5531.75
6747.96
7964.32
9148.48
9954.97
10042.9
10116.2
10183.5
10234.2
10266.3
10268.2
10240.7
10224.7
10181.2
10111.3
10021
9643.31
8371.23
7137.24
6134.78
5214.59
4573.39
4148.64
3848.95
3656.07
3570.36
3563.71
3642.29
3801.76
4062.23
4477.52
5161.03
6170.34
7159.83
7898.94
8288.32
8653.11
9096.78
9467.1
9703.1
9820.83
9907.22
9980.77
10007.1
10007.8
10021
10045.7
10065.3
10069
10072.7
10081
7437.13
7227.16
7035.37
6762.19
6145.79
5327.66
4598.19
4390.47
4214.23
3946.61
3557.01
2929.78
2158.4
1414.48
827.011
436.592
175.234
10.4203
0.463296
0.63663
0.752417
0.85092
1.00699
1.23477
1.49514
1.72565
1.89809
2.04009
2.17345
2.45712
198.241
787.008
1657.23
3242.31
5497.05
7654.86
9187.59
9974.24
10209.2
10303.2
10279.4
9959.84
9116.4
7406.93
4897.12
2338.15
934.211
293.142
29.4444
1.72401
1.57039
1.44184
1.33044
1.22567
1.11355
0.99607
0.905998
0.873296
0.916535
0.949696
0.79334
1.44033
271.014
649.749
1176.69
1800.56
2557.67
3288.28
3866.7
4236.24
4396.44
4381.18
4289.77
4371.89
4854.45
5559.07
6113.34
6205.38
6346.08
6553.94
752.59
642.788
455.876
263.086
72.807
62.0861
32.558
15.3724
8.63398
4.16102
2.33342
1.84823
1.68558
1.33412
0.977148
0.77815
0.721448
0.780486
0.616347
0.56518
0.618538
0.737113
0.915098
1.15742
1.38902
1.59622
1.7334
1.82069
1.87977
2.03398
2.00152
2.33705
32.0635
200.616
612.169
1558.82
3040.81
4443.54
5098.47
5176.39
4630.09
3479.2
2008.93
795.176
104.577
10.1124
2.57772
1.15643
1.24793
1.3422
1.3396
1.28086
1.20184
1.10469
0.997513
0.882538
0.795129
0.775967
0.809388
0.853507
0.901544
0.984439
0.793751
0.790977
0.883244
3.43929
1.76482
2.23382
4.29744
6.8105
13.7796
15.7889
12.6824
9.97477
6.10867
4.75623
74.3162
217.481
314.93
311.469
1.14397
1.05607
0.931498
0.718236
0.812341
0.577571
0.484615
0.442192
1.18307
1.84728
1.71613
1.44611
1.37969
1.21978
1.01037
0.837439
0.708331
0.601485
0.477762
0.398209
0.411187
0.504617
0.668666
1.0545
2.18404
1.79457
1.52428
1.56296
1.57402
1.55648
1.36751
1.11063
1.52452
1.62828
1.59616
1.07586
1.47022
2.35162
55.3085
63.5762
25.4894
4.64037
2.43848
0.979099
2.92327
1.67054
0.973927
1.02259
1.10377
1.14737
1.13434
1.09042
1.09816
1.97402
2.42371
1.00865
0.680641
0.665514
0.671861
0.697727
0.741847
0.746809
0.756563
0.851283
0.95689
1.06897
1.19223
1.75114
1.98906
3.68034
5.19866
5.55916
5.38205
4.64761
4.4891
4.12181
3.16164
1.89896
1.9497
1.96873
1.14609
1.04293
0.994127
0.61914
0.380221
0.0858171
-0.0971517
-0.0807466
0.760065
2.43291
2.92682
2.79487
2.07396
1.00789
0.850295
0.739753
0.638403
0.530935
0.414585
0.31544
0.277801
0.320307
0.433371
0.935092
3.49996
4.19582
2.81804
1.31405
1.29357
1.38302
1.18297
0.906741
1.68686
3.80928
3.23979
0.745261
1.18482
2.39752
3.22499
4.39153
3.82685
3.56113
1.59179
0.288993
0.74175
1.19735
1.18655
1.5692
2.04697
0.933521
0.922161
1.72247
2.57318
2.47869
2.39808
1.67947
0.538801
0.54753
0.576358
0.62144
0.674332
0.714993
0.775271
0.878313
1.00105
1.13257
1.26459
1.39371
1.90246
4.23671
5.57249
5.81541
5.86092
5.10934
4.49435
4.77198
4.6269
4.46063
2.6078
1.76742
0.99579
0.913582
0.804586
0.592343
0.280918
-0.0389329
-0.229574
-0.244765
0.0857579
2.0544
2.71269
3.0027
1.11718
0.763927
0.711
0.648662
0.567239
0.461929
0.339874
0.222631
0.15079
0.158522
0.234077
0.338359
2.96687
4.09827
4.32804
2.2356
1.11286
1.1781
1.4697
1.49724
2.60828
2.90153
1.58916
0.529813
1.10025
4.62859
5.38712
5.30575
4.65355
3.54846
1.65474
0.230392
0.510384
0.956863
1.97634
2.49104
2.4822
2.44899
2.4435
2.42059
2.37707
2.33858
1.34449
0.362965
0.37342
0.393291
0.43313
0.495201
0.573811
0.663611
0.773042
0.901743
1.03989
1.17826
1.31024
1.42767
1.51845
1.57723
1.62106
2.02758
3.08679
3.84862
3.70694
2.55901
2.37704
3.01281
2.02862
1.53611
1.30042
0.950887
0.806243
0.560901
0.238695
-0.0675127
-0.242659
-0.256816
-0.15414
2.15334
2.60084
2.58473
0.678968
0.614459
0.595645
0.555348
0.48688
0.388328
0.266037
0.136049
0.0455047
0.0340861
0.0770355
0.619392
3.63932
3.96573
4.15614
4.32482
1.83223
1.12458
1.4724
1.42351
1.26721
0.54521
0.48646
0.389113
1.38625
4.01594
3.00884
2.60249
4.99803
5.51713
1.67162
0.109871
0.296801
1.16958
2.29839
2.33136
2.3522
1.869
0.842098
1.10238
0.778062
0.38067
0.219454
0.184936
0.188244
0.21572
0.266306
0.344201
0.449162
0.577216
0.72579
0.886132
1.04876
1.20442
1.34315
1.45577
1.53604
1.58518
1.60987
1.61771
1.61493
1.8853
1.89832
1.51396
1.37753
1.36489
1.38379
1.44569
1.81756
1.71143
0.793317
0.470328
0.217125
-0.0140507
-0.148616
-0.159933
-0.00662863
2.34481
2.62126
2.18665
0.539389
0.516004
0.509419
0.479027
0.419499
0.328069
0.208963
0.0662096
-0.041924
-0.0127531
2.15027
3.73455
3.7268
3.81549
3.99538
4.22217
2.44719
1.46095
1.09544
0.652884
0.614269
0.539143
0.464292
2.28757
2.52447
0.95191
0.312625
0.258418
3.07164
5.6577
0.893055
-0.0472144
0.0947935
0.859134
2.17338
1.98425
0.44602
0.14854
0.0932899
0.0813672
0.0609189
0.026956
-0.00325694
-0.0245866
-0.0265106
0.00758211
0.0520925
0.148705
0.287898
0.462183
0.655473
0.852103
1.04354
1.21964
1.36807
1.48163
1.55716
1.59655
1.60775
1.60506
1.79577
1.99233
1.86186
1.54571
1.46349
1.42714
1.44819
1.49318
4.22592
3.09613
0.719636
0.332017
0.206156
0.0958014
0.0231454
0.0141064
1.21774
2.52871
2.72399
2.59757
0.532294
0.451169
0.448275
0.424159
0.374296
0.294882
0.184663
0.0492923
-0.0337299
2.86185
3.69682
3.62087
3.61965
3.71274
3.89216
4.12914
1.56735
1.22217
0.545677
0.567447
0.589048
0.576897
1.87089
2.86411
2.55774
0.478154
0.331422
0.355787
4.27161
5.60167
-0.33849
-0.134371
-0.0226844
0.543527
0.726212
0.0501739
-0.0419518
-0.0416061
-0.0542518
-0.080342
-0.119249
-0.17495
-0.238139
-0.151338
0.439317
0.56366
-0.0687065
-0.0924331
0.296381
0.852651
1.12227
0.994515
1.02567
1.22473
1.38492
1.50412
1.57899
1.61237
1.61376
1.59124
2.31934
3.18304
3.14276
2.31734
1.53694
1.53211
1.61852
1.56605
4.70656
3.15515
0.304555
0.174477
0.186115
0.20302
0.201072
0.200243
2.23753
2.70004
2.858
1.76491
0.402919
0.407225
0.405969
0.388024
0.349259
0.287767
0.198308
0.0797678
0.310092
3.77983
3.78725
3.68172
3.67091
3.75366
3.45443
1.09072
0.407568
0.444473
0.456099
0.520119
0.554478
1.5247
3.05858
2.95501
0.769534
0.529677
0.381373
2.8821
4.49874
3.78514
-0.340003
-0.155456
-0.0490898
0.308706
-0.0578493
-0.131954
-0.136369
-0.15604
-0.194698
-0.253897
-0.333389
-0.421911
-0.449491
0.381806
0.783025
0.79028
0.584072
1.0203
2.43514
3.62774
3.93151
3.76414
2.43139
1.83105
1.4587
1.52599
1.59594
1.62145
1.61552
1.58589
1.8744
3.21892
3.17527
3.13398
2.64036
1.55431
1.68781
1.71032
4.675
1.54532
0.102348
0.111732
0.193319
0.28131
0.327674
1.6518
2.77066
2.84063
2.98192
0.899926
0.359009
0.375422
0.375012
0.362644
0.334864
0.293968
0.238291
0.162166
0.0560721
1.15315
4.06585
3.79203
0.705703
0.75858
0.266808
0.0644636
0.200333
0.314417
0.402827
0.466897
0.612395
3.02001
3.0542
2.0363
0.79432
0.576754
0.725275
2.82817
2.44455
-0.108766
-0.268417
-0.141569
0.115582
0.261881
-0.112316
-0.184367
-0.211437
-0.261984
-0.34068
-0.44701
-0.576936
-0.710234
-0.621609
0.257049
0.402067
0.366616
0.584894
2.84327
3.04865
3.31321
3.66538
4.06668
4.47319
4.84142
3.57932
2.03025
1.70368
1.63537
1.60673
1.56998
1.51066
1.62783
3.10275
3.13053
3.09222
2.88952
1.66984
1.70728
4.74949
1.67929
0.14327
0.175908
0.263663
0.357062
0.559961
2.6917
2.86234
2.9778
1.55399
0.31367
0.337758
0.349396
0.349211
0.340648
0.342616
0.329778
0.26921
0.220086
0.13168
0.486681
3.17445
3.62392
0.172401
0.0779465
0.0461516
0.0968642
0.190396
0.277657
0.351264
0.579118
2.86834
2.95487
3.00012
0.671941
0.78215
0.870196
0.714787
-0.056659
-0.243975
-0.237297
-0.172544
-0.0256756
0.171703
0.160486
-0.186854
-0.220992
-0.277524
-0.366667
-0.456799
-0.622679
-0.813592
-1.00116
-1.00303
-0.676973
-0.531457
0.181034
0.105132
0.261808
2.78956
3.07751
3.44743
3.87291
4.31144
4.72767
5.09135
5.26226
3.97733
3.00001
1.99862
1.53303
1.46785
1.40022
1.32894
2.59885
3.06873
3.03476
2.99901
1.76972
4.85599
4.7589
0.351254
0.281572
0.364352
0.43924
0.491297
0.599469
1.66558
1.41537
0.36285
0.303509
0.318318
0.324736
0.323924
0.31654
0.479892
1.08971
0.71858
0.229849
0.162593
0.260366
1.09506
1.86925
2.12236
1.54999
0.128152
0.15552
0.197725
0.246351
0.295885
1.10106
2.94333
2.90064
2.03225
0.402842
0.621245
0.894942
0.431537
-0.116391
-0.139517
-0.114397
-0.0902553
-0.0518114
0.0220434
-0.0774854
-0.184913
-0.249013
-0.246325
-0.156931
-0.539814
-0.8183
-1.03957
-1.28722
-1.4875
-1.57314
-0.953271
0.770727
1.6301
1.52307
2.64188
2.94639
3.30681
3.7422
4.19959
4.63761
5.0263
5.33267
5.50427
5.28418
3.42225
2.09657
1.40954
1.34275
1.27663
1.21793
1.55161
2.10085
2.41944
2.6772
4.964
4.779
3.17176
1.45913
0.559782
0.538478
0.734748
1.52061
1.65222
1.00705
0.291707
0.290437
0.29848
0.299251
0.296997
0.289235
0.662675
1.38017
1.35196
0.215003
0.167292
0.108059
0.0693145
0.996926
2.27057
2.29587
1.11003
0.19368
0.196683
0.215381
0.286664
2.09117
2.92706
2.77623
0.290021
0.244461
0.195188
0.592728
1.03212
-0.0609615
-0.0533989
-0.0373141
-0.0356058
-0.0545314
-0.0866491
-0.127387
-0.177131
-0.262968
-0.236111
-0.222634
-0.625183
-0.973398
-1.23119
-1.49664
-1.69633
-0.352502
1.81666
1.81218
1.86446
2.05146
2.52442
2.85249
3.22621
3.67742
4.15346
4.59646
4.99175
5.29968
5.46089
2.50948
3.34402
3.31185
1.8195
1.27365
1.21792
1.17448
1.1462
1.1385
1.14921
2.01412
5.06355
0.636335
2.62635
3.49422
3.64929
3.7202
3.73757
2.67074
0.28347
0.245511
0.257745
0.268403
0.273824
0.272914
0.269227
0.260793
0.700748
1.38294
1.34238
0.846703
0.150137
0.124828
0.0979571
1.14239
2.36736
2.3967
2.40013
0.572012
0.187806
0.187804
0.324662
2.95071
2.91669
2.63085
0.109209
0.0752525
0.0794741
0.724537
1.09211
-0.0402785
-0.0209525
-0.00221092
-0.00471477
-0.0325186
-0.0692875
-0.110181
-0.169257
-0.263621
-0.408712
-0.492619
-0.337056
0.530187
0.442358
0.0436501
1.54924
1.54563
1.55837
1.01315
0.898654
1.27149
1.09722
1.31394
2.46383
3.72118
4.17729
4.57749
5.00932
5.32695
3.32714
1.68154
2.95983
3.22306
3.00888
1.40889
1.14392
1.11214
1.09661
1.09317
1.0999
1.11135
2.76764
0.116488
0.105651
0.1043
0.111045
0.112642
0.130771
0.156302
0.187281
0.21099
0.232437
0.242483
0.246197
0.247124
0.242846
0.23412
0.409309
1.38899
1.34142
1.13927
0.12974
0.144911
0.139698
1.49037
2.43324
2.45098
2.45563
1.50155
0.177015
0.163725
0.25346
2.70368
2.93136
1.80935
-0.0095356
-0.0594385
0.328323
1.44138
1.51232
0.942207
-0.0190861
0.481893
0.837085
0.175167
-0.0478375
-0.0821997
-0.140127
-0.249049
-0.43857
-0.558167
1.47172
1.92546
1.64519
1.23019
-0.452631
-1.03563
-1.67871
-2.02449
-1.83134
-1.52797
-1.09767
-0.678783
-0.296984
2.11251
4.25593
4.73724
5.11226
5.19605
1.72054
1.51371
1.50594
3.10227
3.07137
2.19273
1.07508
1.03399
1.02623
1.03311
1.03582
1.0457
1.1981
0.161923
0.149913
0.151883
0.169797
0.147008
0.12186
0.160486
0.181994
0.195818
0.210041
0.218498
0.223237
0.223666
0.219517
0.211392
0.198286
0.61666
1.36094
0.943703
0.129408
0.149899
0.147876
1.37782
2.50353
2.50047
1.05033
0.709843
0.262699
0.147705
0.161728
1.64108
2.95417
0.245287
-0.0600639
-0.11609
0.0617851
1.42465
1.50371
1.4279
3.29997
3.482
3.49749
3.13118
0.522666
-0.02755
-0.0782121
-0.196493
-0.411348
-0.621265
1.35118
1.9367
1.64917
0.210596
-1.91939
-2.08385
-2.12902
-2.0378
-1.7366
-1.25969
-0.849713
-0.516249
-0.222004
0.953481
4.54083
4.88246
5.11623
1.81117
1.31498
1.3774
1.3968
2.48562
2.96558
2.8427
1.14976
0.942533
0.941551
0.955835
0.966499
0.96174
2.09916
0.28053
0.525008
0.106425
0.113324
0.126015
0.125738
0.15496
0.169005
0.178298
0.190381
0.198337
0.202528
0.202906
0.199402
0.192439
0.182141
0.22768
1.23643
1.48873
0.571344
0.157569
0.156605
0.57118
2.16796
2.33299
0.29316
0.233421
0.239075
0.144021
0.116555
0.209802
1.74175
0.0691775
-0.061341
-0.124639
0.423005
1.46003
1.09685
0.0694168
2.74806
3.50947
3.56366
3.59984
3.55658
1.27834
0.013955
-0.0974203
-0.315615
-0.624076
-0.641665
1.11617
1.776
-0.90207
-1.77128
-1.93587
-1.9532
-1.40399
1.14626
1.41174
-0.46943
-0.380025
-0.100148
3.43726
4.875
5.27869
1.63835
1.09251
1.17261
1.24913
1.27826
1.71478
2.86254
2.77324
1.27584
0.837316
0.842771
0.852058
0.899139
0.879487
2.21742
1.48892
0.62098
0.0863484
0.0916807
0.104156
0.129111
0.146963
0.151109
0.164071
0.173966
0.180731
0.184353
0.184786
0.182035
0.176327
0.168058
0.157085
0.1978
1.55086
1.71344
0.367549
0.171343
0.166263
0.350281
0.988436
0.862054
0.253161
0.19613
0.147014
0.156845
0.123519
0.0897828
0.721755
0.172708
-0.0997103
0.174267
1.46781
0.419713
-0.247301
-0.0435923
1.516
3.41015
3.64813
3.72731
3.74315
2.48269
0.55129
-0.172435
-0.452361
-0.73781
1.7291
2.00931
-0.917553
-1.43765
-1.46705
0.325111
1.52405
1.68318
1.87284
1.85601
-0.0994178
0.687205
4.87412
5.20305
5.6554
3.28302
1.03952
1.02476
1.08973
1.13639
1.29186
2.69292
2.39346
0.935836
0.722815
0.734933
0.745812
0.798591
0.791763
1.73101
1.85563
0.498337
0.0927336
0.0978053
0.107281
0.1183
0.130351
0.141996
0.152017
0.159985
0.165564
0.168615
0.169051
0.166934
0.162403
0.155574
0.146611
0.137565
0.43777
1.73353
1.75731
0.756562
0.188551
0.19584
0.228668
1.01826
1.19906
0.209908
0.144667
0.176789
0.217129
0.174237
0.908504
0.766381
-0.0685146
0.653013
1.41465
-0.285685
-0.277697
-0.249181
-0.208511
0.0588704
1.34267
3.26248
3.70853
3.7478
3.65435
2.29666
1.21607
2.44328
2.74233
2.47917
1.75623
1.80761
1.95083
1.92155
1.97186
2.08159
2.22212
2.29669
0.508364
1.13409
5.16964
5.33017
5.62236
5.93118
3.22819
0.857414
0.899179
0.969281
1.13338
2.48112
1.43544
0.600846
0.605765
0.622885
0.636912
0.690351
0.694201
1.74131
1.90493
0.370131
0.0911756
0.0977797
0.106261
0.115374
0.124864
0.133876
0.141754
0.148112
0.152626
0.155105
0.155444
0.153709
0.150004
0.144342
0.136784
0.128115
0.120693
0.185821
1.22388
1.51169
1.1107
0.314637
0.258684
0.420241
1.39324
0.222586
0.129954
0.127829
2.45711
0.261338
0.970942
0.23264
-0.0310088
1.17607
1.16074
-0.308968
-0.29471
-0.257709
-0.210252
-0.158709
-0.100997
0.145015
1.14143
2.48081
2.93845
3.49529
3.49611
3.34854
3.12357
2.92439
2.7841
2.63008
2.48766
2.45945
2.45956
2.48736
2.55579
1.51587
1.01204
1.55165
5.12773
5.38543
5.57258
5.78002
5.14915
0.839854
0.681323
0.784891
1.59617
2.37452
0.779679
0.463479
0.4852
0.50737
0.524558
0.581441
0.606287
1.91023
1.43432
0.294122
0.0867717
0.0953317
0.103664
0.111522
0.119402
0.12666
0.132957
0.138021
0.141612
0.143535
0.143689
0.142082
0.138799
0.133893
0.127452
0.119657
0.111784
0.107717
0.168822
1.33774
1.77167
1.72211
0.261275
0.292429
1.39609
0.740842
0.113043
1.09817
2.86894
1.24833
1.00005
0.170951
0.0997686
1.21823
0.263461
-0.319173
-0.303462
-0.261901
-0.195163
-0.135757
-0.0911543
-0.0519455
-0.0158578
0.00995561
0.0924195
0.647895
1.38856
1.9362
1.51267
0.552082
0.210921
0.786986
1.23639
0.509186
0.200496
0.880204
1.36965
1.63918
3.01629
5.26654
5.34318
5.40591
5.48837
5.62427
5.37312
0.6357
0.440407
0.593071
1.24417
2.76152
1.20691
0.33176
0.360817
0.389678
0.411928
0.486639
0.496506
1.67742
0.0795292
0.256572
0.0841037
0.0929123
0.100831
0.107692
0.114371
0.120318
0.12539
0.129412
0.132208
0.13361
0.133497
0.131841
0.128694
0.124106
0.118127
0.110799
0.102562
0.0952736
0.0907094
0.170137
1.18737
2.2231
2.21984
0.30757
2.21306
3.81667
0.229024
2.92104
2.90213
2.82668
0.690611
0.599722
1.2779
1.2658
-0.290072
-0.321422
-0.307981
-0.264424
-0.209119
-0.0161729
0.0632014
0.0910263
0.0161052
-0.0555474
-0.081818
-0.117396
-0.17457
-0.247322
-0.323683
-0.382056
-0.431315
-0.47106
-0.50316
-0.507253
-0.402884
0.128273
1.18321
5.37165
5.4583
5.42611
5.4125
5.39006
5.4068
5.4984
4.92454
0.250315
0.183862
0.383711
1.18594
2.78042
1.55144
0.199972
0.234098
0.271414
0.305497
0.379901
0.388037
0.173783
0.0879983
0.173107
0.0837332
0.0913979
0.0984058
0.104335
0.10994
0.114792
0.118858
0.12202
0.124138
0.12505
0.124632
0.122832
0.119658
0.115132
0.109261
0.102031
0.0933848
0.0835663
0.0740664
0.0659001
0.0930109
1.12723
2.97673
1.99079
3.93411
3.90745
0.379269
2.9851
2.91809
2.87166
0.211474
0.240474
0.301774
0.110418
-0.293086
-0.309056
-0.300519
-0.264162
-0.219515
-0.00219027
0.057866
0.0844033
0.0887433
-0.0758783
-0.108649
-0.141314
-0.191338
-0.240994
-0.288003
-0.319343
-0.350769
-0.377001
-0.175403
1.12373
2.95212
5.23316
5.35717
5.40748
5.46521
5.43752
5.42003
5.37825
5.34738
5.41437
4.80903
-0.0278409
-0.0447363
0.178678
1.29902
2.76574
1.51585
0.0607327
0.109828
0.155513
0.192353
0.273495
0.268363
0.162924
0.0726786
0.0786351
0.0850174
0.0907532
0.0965127
0.101575
0.106111
0.109997
0.113204
0.115631
0.117159
0.117641
0.116942
0.11498
0.111724
0.107149
0.101198
0.0938067
0.0847533
0.073616
0.0608904
0.0482346
0.0351465
0.0744354
2.65952
4.00901
3.9648
3.91949
0.442671
3.00894
2.94329
2.5356
0.127232
0.0392893
-0.101179
-0.238864
-0.257718
-0.27701
-0.277586
-0.25268
-0.172265
0.0220381
0.0520896
0.0743826
-0.0213604
-0.11296
-0.128315
-0.154894
-0.191496
-0.214538
-0.252712
-0.294397
-0.326465
0.540897
4.20219
5.00813
4.91094
4.99572
5.24898
5.39834
5.42474
4.31298
5.51493
5.41353
5.33387
5.36265
5.29048
-0.0787561
-0.231399
0.00981878
1.62328
2.71191