/*--------------------------------*- C++ -*----------------------------------*\
| =========                 |                                                 |
| \\      /  F ield         | OpenFOAM: The Open Source CFD Toolbox           |
|  \\    /   O peration     | Version:  2412                                  |
|   \\  /    A nd           | Website:  www.openfoam.com                      |
|    \\/     M anipulation  |                                                 |
\*---------------------------------------------------------------------------*/
FoamFile
{
    version     2.0;
    format      ascii;
    arch        "LSB;label=32;scalar=64";
    class       surfaceScalarField;
    location    "3.05";
    object      alphaPhi0.honey;
}
// * * * * * * * * * * * * * * * * * * * * * * * * * * * * * * * * * * * * * //

dimensions      [0 3 -1 0 0 0 0];

oriented        oriented;

internalField   nonuniform List<scalar> 
12640
(
2.0937e-14
-2.17387e-14
3.75781e-15
8.77176e-14
-1.4434e-13
2.13807e-13
-4.03404e-13
3.21627e-13
-7.54678e-13
4.14346e-13
-1.18191e-12
4.9056e-13
-1.66792e-12
5.50012e-13
-2.19772e-12
5.93919e-13
-2.75358e-12
6.20485e-13
-3.32183e-12
6.32771e-13
-3.88969e-12
6.32677e-13
-4.44784e-12
6.22681e-13
-4.987e-12
6.03841e-13
-5.50022e-12
5.77496e-13
-5.97931e-12
5.4341e-13
-6.42002e-12
5.04573e-13
-6.81677e-12
4.60602e-13
-7.16684e-12
4.13462e-13
-7.46594e-12
3.62492e-13
-7.71188e-12
3.0894e-13
-7.9007e-12
2.51898e-13
-8.03212e-12
1.94278e-13
-8.10395e-12
1.34927e-13
-8.11592e-12
7.51038e-14
-8.06635e-12
1.40696e-14
-7.95604e-12
-4.63067e-14
-7.78435e-12
-1.06869e-13
-7.55272e-12
-1.66085e-13
-7.2618e-12
-2.24278e-13
-6.9143e-12
-2.79804e-13
-6.51232e-12
-3.32939e-13
-6.05958e-12
-3.82424e-13
-5.55935e-12
-4.2846e-13
-5.01611e-12
-4.70083e-13
-4.43398e-12
-5.07514e-13
-3.81796e-12
-5.40054e-13
-3.1731e-12
-5.6758e-13
-2.50532e-12
-5.89319e-13
-1.82086e-12
-6.04932e-13
-1.12627e-12
-6.14126e-13
-4.28209e-13
-6.16854e-13
2.67033e-13
-6.13404e-13
9.53011e-13
-6.03735e-13
1.6239e-12
-5.88319e-13
2.27337e-12
-5.66805e-13
2.89588e-12
-5.39775e-13
3.48522e-12
-5.06757e-13
4.03659e-12
-4.68867e-13
4.54465e-12
-4.25859e-13
5.00612e-12
-3.79365e-13
5.41673e-12
-3.28855e-13
5.77439e-12
-2.75896e-13
6.07547e-12
-2.19574e-13
6.31907e-12
-1.61893e-13
6.50281e-12
-1.02112e-13
6.62744e-12
-4.25323e-14
6.69144e-12
1.82128e-14
6.69625e-12
7.8124e-14
6.64088e-12
1.38581e-13
6.5284e-12
1.96614e-13
6.35972e-12
2.5316e-13
6.1394e-12
3.05775e-13
5.86828e-12
3.56864e-13
5.55047e-12
4.04422e-13
5.1877e-12
4.49456e-13
4.78693e-12
4.88078e-13
4.35284e-12
5.21158e-13
3.89335e-12
5.46853e-13
3.4129e-12
5.67195e-13
2.92047e-12
5.79111e-13
2.42443e-12
5.81756e-13
1.93858e-12
5.71151e-13
1.47544e-12
5.47208e-13
1.05021e-12
5.08564e-13
6.74704e-13
4.57443e-13
3.63596e-13
3.92204e-13
1.31179e-13
3.12322e-13
-1.07367e-14
2.21357e-13
-5.02374e-14
1.18399e-13
2.37157e-14
-3.97766e-14
9.13071e-14
-2.55891e-13
4.4302e-13
-7.36426e-13
8.26036e-13
-1.45965e-12
1.17427e-12
-2.39588e-12
1.48032e-12
-3.51407e-12
1.73975e-12
-4.77783e-12
1.94496e-12
-6.1466e-12
2.09497e-12
-7.58507e-12
2.19108e-12
-9.0568e-12
2.23736e-12
-1.05318e-11
2.24002e-12
-1.1981e-11
2.20461e-12
-1.33831e-11
2.13786e-12
-1.47179e-11
2.04435e-12
-1.59684e-11
1.92508e-12
-1.71171e-11
1.78449e-12
-1.81539e-11
1.62761e-12
-1.90656e-11
1.45548e-12
-1.98456e-11
1.27201e-12
-2.04838e-11
1.07687e-12
-2.09752e-11
8.72601e-13
-2.13126e-11
6.61477e-13
-2.14948e-11
4.46992e-13
-2.15171e-11
2.28332e-13
-2.13795e-11
8.05711e-15
-2.10796e-11
-2.12861e-13
-2.06204e-11
-4.31389e-13
-2.00027e-11
-6.46867e-13
-1.92317e-11
-8.56229e-13
-1.83116e-11
-1.05823e-12
-1.72505e-11
-1.24997e-12
-1.60555e-11
-1.43036e-12
-1.47372e-11
-1.59703e-12
-1.33056e-11
-1.74917e-12
-1.17729e-11
-1.88501e-12
-1.01517e-11
-2.00361e-12
-8.45628e-12
-2.10304e-12
-6.70176e-12
-2.18184e-12
-4.90449e-12
-2.2385e-12
-3.0812e-12
-2.27229e-12
-1.24866e-12
-2.28317e-12
5.76177e-13
-2.27129e-12
2.37733e-12
-2.23744e-12
4.13819e-12
-2.18166e-12
5.84366e-12
-2.10474e-12
7.47747e-12
-2.00647e-12
9.02584e-12
-1.88834e-12
1.0474e-11
-1.75094e-12
1.1811e-11
-1.59719e-12
1.30247e-11
-1.42811e-12
1.41073e-11
-1.24667e-12
1.50487e-11
-1.05317e-12
1.58442e-11
-8.50794e-13
1.64868e-11
-6.40391e-13
1.69757e-11
-4.26174e-13
1.73067e-11
-2.08634e-13
1.7482e-11
9.10966e-15
1.74991e-11
2.27605e-13
1.73632e-11
4.42814e-13
1.70753e-11
6.53396e-13
1.66445e-11
8.54603e-13
1.60742e-11
1.04715e-12
1.53746e-11
1.22917e-12
1.45505e-11
1.40119e-12
1.36161e-11
1.55776e-12
1.25815e-11
1.69592e-12
1.14648e-11
1.81159e-12
1.02787e-11
1.90536e-12
9.04405e-12
1.97409e-12
7.77966e-12
2.01362e-12
6.51433e-12
2.01638e-12
5.27486e-12
1.97732e-12
4.09517e-12
1.89235e-12
3.00596e-12
1.76036e-12
2.04266e-12
1.58184e-12
1.23625e-12
1.35666e-12
6.14581e-13
1.09019e-12
2.01029e-13
7.88252e-13
1.92899e-14
4.4823e-13
1.10725e-13
-1.4285e-13
3.00867e-13
-6.0775e-13
1.03411e-12
-1.4348e-12
1.7729e-12
-2.59419e-12
2.45086e-12
-4.04536e-12
3.04986e-12
-5.74987e-12
3.56281e-12
-7.65911e-12
3.97381e-12
-9.71705e-12
4.27243e-12
-1.18717e-11
4.46604e-12
-1.40763e-11
4.56177e-12
-1.62836e-11
4.56752e-12
-1.84555e-11
4.49592e-12
-2.05537e-11
4.35557e-12
-2.25516e-11
4.16088e-12
-2.4422e-11
3.9141e-12
-2.61438e-11
3.62398e-12
-2.76949e-11
3.29623e-12
-2.906e-11
2.93731e-12
-3.02232e-11
2.5519e-12
-3.11754e-11
2.14522e-12
-3.19047e-11
1.71823e-12
-3.24043e-11
1.27724e-12
-3.2666e-11
8.25541e-13
-3.26879e-11
3.67565e-13
-3.24661e-11
-9.52104e-14
-3.2002e-11
-5.5734e-13
-3.12958e-11
-1.01625e-12
-3.03527e-11
-1.46677e-12
-2.91774e-11
-1.90606e-12
-2.77793e-11
-2.32859e-12
-2.61676e-11
-2.73127e-12
-2.43557e-11
-3.10927e-12
-2.2357e-11
-3.45999e-12
-2.01884e-11
-3.77945e-12
-1.78671e-11
-4.06527e-12
-1.54135e-11
-4.31381e-12
-1.28488e-11
-4.5222e-12
-1.01961e-11
-4.68695e-12
-7.47958e-12
-4.8057e-12
-4.72423e-12
-4.87697e-12
-1.95531e-12
-4.90034e-12
8.02424e-13
-4.87653e-12
3.52389e-12
-4.80597e-12
6.1853e-12
-4.68994e-12
8.76206e-12
-4.5285e-12
1.12319e-11
-4.32349e-12
1.35717e-11
-4.07589e-12
1.57624e-11
-3.78985e-12
1.77843e-11
-3.46798e-12
1.96224e-11
-3.11562e-12
2.12607e-11
-2.73493e-12
2.26885e-11
-2.33116e-12
2.3894e-11
-1.90679e-12
2.4872e-11
-1.46876e-12
2.56157e-11
-1.0202e-12
2.61247e-11
-5.67383e-13
2.63958e-11
-1.11225e-13
2.64325e-11
3.42756e-13
2.62357e-11
7.92001e-13
2.58147e-11
1.22834e-12
2.51746e-11
1.64916e-12
2.4328e-11
2.04975e-12
2.3283e-11
2.43049e-12
2.20564e-11
2.78538e-12
2.06622e-11
3.10944e-12
1.91225e-11
3.39394e-12
1.7456e-11
3.63571e-12
1.56894e-11
3.82976e-12
1.38488e-11
3.9712e-12
1.19689e-11
4.04967e-12
1.0085e-11
4.05446e-12
8.24034e-12
3.97534e-12
6.47756e-12
3.80611e-12
4.84506e-12
3.54284e-12
3.39122e-12
3.18313e-12
2.15776e-12
2.73654e-12
1.17712e-12
2.21484e-12
4.89847e-13
1.6186e-12
1.13231e-13
9.61038e-13
2.86504e-13
-2.48814e-13
6.11887e-13
-9.605e-13
1.86496e-12
-2.12861e-12
3.05364e-12
-3.70057e-12
4.13399e-12
-5.62461e-12
5.08515e-12
-7.84894e-12
5.89957e-12
-1.03171e-11
6.55434e-12
-1.29638e-11
7.03236e-12
-1.57243e-11
7.33941e-12
-1.85386e-11
7.48937e-12
-2.13536e-11
7.49514e-12
-2.41191e-11
7.37424e-12
-2.67925e-11
7.14077e-12
-2.93325e-11
6.81276e-12
-3.17105e-11
6.40283e-12
-3.38966e-11
5.92085e-12
-3.58677e-11
5.37703e-12
-3.75991e-11
4.77836e-12
-3.90743e-11
4.1361e-12
-4.02766e-11
3.4565e-12
-4.11959e-11
2.74624e-12
-4.18192e-11
2.00967e-12
-4.21401e-11
1.25568e-12
-4.21511e-11
4.88816e-13
-4.18518e-11
-2.83353e-13
-4.12402e-11
-1.05635e-12
-4.03201e-11
-1.82211e-12
-3.90949e-11
-2.57567e-12
-3.7574e-11
-3.30865e-12
-3.57661e-11
-4.01545e-12
-3.36859e-11
-4.68803e-12
-3.13477e-11
-5.32118e-12
-2.8771e-11
-5.90783e-12
-2.59754e-11
-6.44327e-12
-2.29852e-11
-6.92128e-12
-1.98251e-11
-7.33713e-12
-1.65235e-11
-7.6849e-12
-1.31095e-11
-7.95995e-12
-9.61441e-12
-8.15822e-12
-6.06992e-12
-8.2775e-12
-2.50794e-12
-8.31734e-12
1.03923e-12
-8.27803e-12
4.54032e-12
-8.16103e-12
7.96323e-12
-7.96678e-12
1.1278e-11
-7.69738e-12
1.44538e-11
-7.35395e-12
1.7464e-11
-6.94123e-12
2.02812e-11
-6.46305e-12
2.28836e-11
-5.92704e-12
2.52482e-11
-5.3378e-12
2.73583e-11
-4.70329e-12
2.91961e-11
-4.02798e-12
3.07515e-11
-3.32154e-12
3.20131e-11
-2.59014e-12
3.29775e-11
-1.84428e-12
3.36385e-11
-1.0881e-12
3.39977e-11
-3.29643e-13
3.4054e-11
4.27488e-13
3.38156e-11
1.17258e-12
3.3287e-11
1.89937e-12
3.24818e-11
2.59815e-12
3.14089e-11
3.26672e-12
3.00867e-11
3.89814e-12
2.85301e-11
4.48735e-12
2.67635e-11
5.0226e-12
2.48074e-11
5.49605e-12
2.26919e-11
5.898e-12
2.04461e-11
6.22133e-12
1.81085e-11
6.45481e-12
1.57168e-11
6.5858e-12
1.33177e-11
6.59789e-12
1.09598e-11
6.47536e-12
8.69938e-12
6.20826e-12
6.59422e-12
5.78733e-12
4.70333e-12
5.2127e-12
3.07294e-12
4.50325e-12
1.75192e-12
3.67165e-12
7.83846e-13
2.72033e-12
2.00259e-13
1.6732e-12
5.46248e-13
-3.44179e-13
1.01684e-12
-1.28563e-12
2.92013e-12
-2.7764e-12
4.6532e-12
-4.73601e-12
6.19991e-12
-7.09895e-12
7.55566e-12
-9.7987e-12
8.70675e-12
-1.27647e-11
9.62883e-12
-1.5928e-11
1.03037e-11
-1.92132e-11
1.07334e-11
-2.25508e-11
1.0935e-11
-2.58789e-11
1.09315e-11
-2.91429e-11
1.07454e-11
-3.22938e-11
1.03988e-11
-3.5287e-11
9.91195e-12
-3.80834e-11
9.30512e-12
-4.06532e-11
8.59532e-12
-4.29656e-11
7.79399e-12
-4.49976e-11
6.91405e-12
-4.67248e-11
5.96684e-12
-4.8131e-11
4.96572e-12
-4.91994e-11
3.91792e-12
-4.99203e-11
2.83369e-12
-5.02812e-11
1.72044e-12
-5.02776e-11
5.89649e-13
-4.99038e-11
-5.51408e-13
-4.91615e-11
-1.69159e-12
-4.80513e-11
-2.82336e-12
-4.6581e-11
-3.93511e-12
-4.47577e-11
-5.01856e-12
-4.25953e-11
-6.06203e-12
-4.01076e-11
-7.05715e-12
-3.73144e-11
-7.99299e-12
-3.42363e-11
-8.86166e-12
-3.08991e-11
-9.65345e-12
-2.73296e-11
-1.0361e-11
-2.35591e-11
-1.09754e-11
-1.96202e-11
-1.14892e-11
-1.55485e-11
-1.1895e-11
-1.13807e-11
-1.21878e-11
-7.15438e-12
-1.23643e-11
-2.90766e-12
-1.24235e-11
1.32168e-12
-1.23662e-11
5.49502e-12
-1.21929e-11
9.5754e-12
-1.19058e-11
1.3525e-11
-1.15059e-11
1.73096e-11
-1.09981e-11
2.08947e-11
-1.03868e-11
2.42514e-11
-9.68107e-12
2.735e-11
-8.88809e-12
3.01675e-11
-8.01879e-12
3.26798e-11
-7.08022e-12
3.48711e-11
-6.08471e-12
3.67244e-11
-5.04126e-12
3.82322e-11
-3.96477e-12
3.93843e-11
-2.86391e-12
4.01799e-11
-1.75105e-12
4.06145e-11
-6.31906e-13
4.06941e-11
4.80755e-13
4.04216e-11
1.57806e-12
3.98099e-11
2.64501e-12
3.88675e-11
3.67468e-12
3.76128e-11
4.65675e-12
3.60606e-11
5.58585e-12
3.42355e-11
6.44905e-12
3.21586e-11
7.23602e-12
2.98599e-11
7.93218e-12
2.73686e-11
8.5262e-12
2.47241e-11
9.0035e-12
2.19651e-11
9.35036e-12
1.91387e-11
9.54908e-12
1.62941e-11
9.57789e-12
1.34896e-11
9.41532e-12
1.07882e-11
9.04315e-12
8.25796e-12
8.45088e-12
5.96034e-12
7.64143e-12
3.9569e-12
6.63757e-12
2.30629e-12
5.45099e-12
1.05785e-12
4.0973e-12
2.8052e-13
2.57229e-12
8.83769e-13
-4.26386e-13
1.50134e-12
-1.57985e-12
4.18242e-12
-3.36863e-12
6.54494e-12
-5.69157e-12
8.62477e-12
-8.46373e-12
1.04295e-11
-1.16023e-11
1.19483e-11
-1.5024e-11
1.3153e-11
-1.86487e-11
1.40317e-11
-2.23973e-11
1.45844e-11
-2.61914e-11
1.48319e-11
-2.99639e-11
1.48057e-11
-3.36519e-11
1.45351e-11
-3.72057e-11
1.40529e-11
-4.05765e-11
1.33829e-11
-4.37242e-11
1.25517e-11
-4.66105e-11
1.15801e-11
-4.92057e-11
1.04866e-11
-5.1481e-11
9.28649e-12
-5.34149e-11
7.9971e-12
-5.49841e-11
6.63129e-12
-5.61741e-11
5.20391e-12
-5.69686e-11
3.72461e-12
-5.73588e-11
2.20739e-12
-5.73341e-11
6.62688e-13
-5.68923e-11
-8.94374e-13
-5.60304e-11
-2.45308e-12
-5.47532e-11
-3.99835e-12
-5.30648e-11
-5.51897e-12
-5.09771e-11
-6.9994e-12
-4.85017e-11
-8.42784e-12
-4.56575e-11
-9.78898e-12
-4.24639e-11
-1.10712e-11
-3.8947e-11
-1.22603e-11
-3.51337e-11
-1.33455e-11
-3.10567e-11
-1.4314e-11
-2.67502e-11
-1.51553e-11
-2.22526e-11
-1.58579e-11
-1.76038e-11
-1.64128e-11
-1.28458e-11
-1.68131e-11
-8.02144e-12
-1.70546e-11
-3.17382e-12
-1.71361e-11
1.65286e-12
-1.70573e-11
6.41541e-12
-1.68198e-11
1.10696e-11
-1.64244e-11
1.55742e-11
-1.58756e-11
1.98877e-11
-1.51774e-11
2.3974e-11
-1.43399e-11
2.77968e-11
-1.3372e-11
3.13268e-11
-1.22874e-11
3.45335e-11
-1.10963e-11
3.7395e-11
-9.81384e-12
3.98885e-11
-8.45159e-12
4.20009e-11
-7.02823e-12
4.37177e-11
-5.55721e-12
4.50342e-11
-4.05668e-12
4.59426e-11
-2.5364e-12
4.64458e-11
-1.01212e-12
4.65438e-11
5.0542e-13
4.62478e-11
1.99703e-12
4.55653e-11
3.4506e-12
4.45137e-11
4.85018e-12
4.31065e-11
6.18796e-12
4.13677e-11
7.44967e-12
3.93176e-11
8.62428e-12
3.69857e-11
9.69418e-12
3.43994e-11
1.06446e-11
3.15962e-11
1.14566e-11
2.86129e-11
1.21134e-11
2.5495e-11
1.25958e-11
2.22904e-11
1.28802e-11
1.90561e-11
1.29395e-11
1.58533e-11
1.2744e-11
1.27538e-11
1.22689e-11
9.82909e-12
1.15001e-11
7.15012e-12
1.04452e-11
4.79304e-12
9.11746e-12
2.82232e-12
7.54478e-12
1.31242e-12
5.72823e-12
3.53516e-13
3.64777e-12
1.29051e-12
-4.99335e-13
2.05645e-12
-1.84324e-12
5.6279e-12
-3.91137e-12
8.71077e-12
-6.5753e-12
1.1384e-11
-9.73184e-12
1.36827e-11
-1.32799e-11
1.55924e-11
-1.7125e-11
1.70953e-11
-2.11725e-11
1.81755e-11
-2.53363e-11
1.8845e-11
-2.95347e-11
1.91259e-11
-3.3694e-11
1.90607e-11
-3.77506e-11
1.86859e-11
-4.16466e-11
1.80428e-11
-4.53363e-11
1.71651e-11
-4.87752e-11
1.60826e-11
-5.1926e-11
1.48217e-11
-5.47529e-11
1.34038e-11
-5.72297e-11
1.18526e-11
-5.93296e-11
1.0186e-11
-6.10329e-11
8.42309e-12
-6.2318e-11
6.5776e-12
-6.31716e-11
4.66684e-12
-6.35785e-11
2.70368e-12
-6.35322e-11
7.06517e-13
-6.30246e-11
-1.31042e-12
-6.20566e-11
-3.32799e-12
-6.06281e-11
-5.33171e-12
-5.87477e-11
-7.30205e-12
-5.64234e-11
-9.22359e-12
-5.3672e-11
-1.10765e-11
-5.05103e-11
-1.28448e-11
-4.69629e-11
-1.45096e-11
-4.30555e-11
-1.60557e-11
-3.88204e-11
-1.74656e-11
-3.42917e-11
-1.87248e-11
-2.95093e-11
-1.98172e-11
-2.45147e-11
-2.07295e-11
-1.93527e-11
-2.14497e-11
-1.40697e-11
-2.19693e-11
-8.71311e-12
-2.22831e-11
-3.3317e-12
-2.23885e-11
2.02592e-12
-2.22854e-11
7.30981e-12
-2.1974e-11
1.24723e-11
-2.14577e-11
1.74652e-11
-2.07398e-11
2.22454e-11
-1.983e-11
2.67697e-11
-1.87378e-11
3.1002e-11
-1.74795e-11
3.4906e-11
-1.60681e-11
3.84533e-11
-1.45221e-11
4.1615e-11
-1.28557e-11
4.43721e-11
-1.10906e-11
4.67048e-11
-9.24428e-12
4.86038e-11
-7.34096e-12
5.00573e-11
-5.39619e-12
5.10647e-11
-3.43064e-12
5.16226e-11
-1.45762e-12
5.17396e-11
5.00393e-13
5.14212e-11
2.42706e-12
5.06837e-11
4.30002e-12
4.95389e-11
6.10681e-12
4.80095e-11
7.82991e-12
4.61141e-11
9.45769e-12
4.38811e-11
1.0971e-11
4.13353e-11
1.23537e-11
3.8512e-11
1.35829e-11
3.54449e-11
1.46385e-11
3.21757e-11
1.54987e-11
2.87474e-11
1.61397e-11
2.5214e-11
1.65305e-11
2.16337e-11
1.66359e-11
1.80732e-11
1.64217e-11
1.46072e-11
1.5851e-11
1.13118e-11
1.49124e-11
8.27376e-12
1.35986e-11
5.57623e-12
1.19311e-11
3.30266e-12
9.93269e-12
1.54824e-12
7.5975e-12
4.20797e-13
4.88345e-12
1.76156e-12
-5.62934e-13
2.67155e-12
-2.08317e-12
7.24354e-12
-4.41552e-12
1.11334e-11
-7.40616e-12
1.44644e-11
-1.09275e-11
1.72932e-11
-1.48653e-11
1.96206e-11
-1.91077e-11
2.14273e-11
-2.3549e-11
2.2707e-11
-2.80926e-11
2.34776e-11
-3.26526e-11
2.3775e-11
-3.71525e-11
2.36482e-11
-4.15269e-11
2.31477e-11
-4.57181e-11
2.23198e-11
-4.96759e-11
2.12082e-11
-5.33587e-11
1.98491e-11
-5.67258e-11
1.8272e-11
-5.97455e-11
1.65055e-11
-6.2386e-11
1.45746e-11
-6.46236e-11
1.25044e-11
-6.64327e-11
1.03129e-11
-6.77954e-11
8.02083e-12
-6.86918e-11
5.64415e-12
-6.91107e-11
3.20403e-12
-6.9039e-11
7.17398e-13
-6.84727e-11
-1.79286e-12
-6.74063e-11
-4.30865e-12
-6.5844e-11
-6.80619e-12
-6.37894e-11
-9.26626e-12
-6.12555e-11
-1.16643e-11
-5.82555e-11
-1.39803e-11
-5.48112e-11
-1.61899e-11
-5.09453e-11
-1.8273e-11
-4.66885e-11
-2.02068e-11
-4.20734e-11
-2.19719e-11
-3.71393e-11
-2.35469e-11
-3.19279e-11
-2.49139e-11
-2.64856e-11
-2.60546e-11
-2.08606e-11
-2.69553e-11
-1.51037e-11
-2.76051e-11
-9.26721e-12
-2.79971e-11
-3.40438e-12
-2.8128e-11
2.43005e-12
-2.79961e-11
8.18257e-12
-2.76028e-11
1.37988e-11
-2.69505e-11
1.92285e-11
-2.60471e-11
2.44218e-11
-2.4902e-11
2.93358e-11
-2.35321e-11
3.39275e-11
-2.19531e-11
3.81623e-11
-2.01869e-11
4.20051e-11
-1.82507e-11
4.54306e-11
-1.61693e-11
4.8413e-11
-1.39631e-11
5.09379e-11
-1.16613e-11
5.29888e-11
-9.28589e-12
5.45612e-11
-6.86424e-12
5.56478e-11
-4.4143e-12
5.62542e-11
-1.9622e-12
5.6383e-11
4.72405e-13
5.6049e-11
2.86142e-12
5.52622e-11
5.18667e-12
5.40438e-11
7.42517e-12
5.24107e-11
9.56284e-12
5.03901e-11
1.15788e-11
4.80045e-11
1.34572e-11
4.52862e-11
1.51736e-11
4.22651e-11
1.67058e-11
3.89793e-11
1.80275e-11
3.54661e-11
1.91151e-11
3.17724e-11
1.99382e-11
2.79506e-11
2.0457e-11
2.40624e-11
2.06304e-11
2.01769e-11
2.04129e-11
1.63689e-11
1.97662e-11
1.27267e-11
1.86608e-11
9.34366e-12
1.70892e-11
6.31937e-12
1.50616e-11
3.75486e-12
1.26046e-11
1.76772e-12
9.69026e-12
4.78669e-13
6.27457e-12
2.2859e-12
-6.22905e-13
3.34365e-12
-2.30841e-12
9.01565e-12
-4.89741e-12
1.38063e-11
-8.20699e-12
1.78556e-11
-1.20866e-11
2.12558e-11
-1.64009e-11
2.4017e-11
-2.10222e-11
2.61318e-11
-2.58328e-11
2.75996e-11
-3.07264e-11
2.84534e-11
-3.56128e-11
2.87423e-11
-4.04137e-11
2.85296e-11
-4.50633e-11
2.78762e-11
-4.95044e-11
2.68393e-11
-5.36892e-11
2.54697e-11
-5.7573e-11
2.3809e-11
-6.11198e-11
2.18934e-11
-6.42946e-11
1.97545e-11
-6.70702e-11
1.74232e-11
-6.94168e-11
1.49238e-11
-7.13129e-11
1.22814e-11
-7.27345e-11
9.51502e-12
-7.36659e-11
6.64845e-12
-7.40889e-11
3.70077e-12
-7.39942e-11
6.97662e-13
-7.33709e-11
-2.3397e-12
-7.22176e-11
-5.38347e-12
-7.05324e-11
-8.41054e-12
-6.83235e-11
-1.13916e-11
-6.5599e-11
-1.43023e-11
-6.23768e-11
-1.71128e-11
-5.86755e-11
-1.97982e-11
-5.45226e-11
-2.23294e-11
-4.99477e-11
-2.46818e-11
-4.49882e-11
-2.68281e-11
-3.96841e-11
-2.87446e-11
-3.40819e-11
-3.04068e-11
-2.823e-11
-3.17946e-11
-2.21814e-11
-3.28898e-11
-1.59908e-11
-3.36797e-11
-9.71516e-12
-3.41555e-11
-3.41316e-12
-3.43118e-11
2.85651e-12
-3.41472e-11
9.03388e-12
-3.36617e-11
1.50622e-11
-3.2861e-11
2.08848e-11
-3.17527e-11
2.64514e-11
-3.03531e-11
3.17123e-11
-2.86791e-11
3.66263e-11
-2.67553e-11
4.11518e-11
-2.46027e-11
4.52571e-11
-2.2249e-11
4.891e-11
-1.97175e-11
5.20903e-11
-1.70413e-11
5.47763e-11
-1.42477e-11
5.69591e-11
-1.13714e-11
5.86271e-11
-8.43711e-12
5.97823e-11
-5.47637e-12
6.0424e-11
-2.51248e-12
6.05649e-11
4.21564e-13
6.02131e-11
3.30215e-12
5.93884e-11
6.09963e-12
5.81057e-11
8.79543e-12
5.63913e-11
1.13649e-11
5.42664e-11
1.37912e-11
5.17613e-11
1.60504e-11
4.89022e-11
1.81209e-11
4.57234e-11
1.99741e-11
4.22563e-11
2.15843e-11
3.8541e-11
2.29219e-11
3.46213e-11
2.39496e-11
3.05497e-11
2.46223e-11
2.63866e-11
2.48874e-11
2.22017e-11
2.46936e-11
1.80749e-11
2.39886e-11
1.41021e-11
2.27312e-11
1.03859e-11
2.0902e-11
7.03956e-12
1.85063e-11
4.19324e-12
1.5548e-11
1.97486e-12
1.2007e-11
5.34299e-13
7.80728e-12
2.86249e-12
-6.80571e-13
4.06903e-12
-2.53427e-12
1.09486e-11
-5.37737e-12
1.67244e-11
-9.01008e-12
2.15632e-11
-1.32494e-11
2.55693e-11
-1.79363e-11
2.87791e-11
-2.2923e-11
3.11928e-11
-2.80825e-11
3.28339e-11
-3.32992e-11
3.37435e-11
-3.84798e-11
3.39961e-11
-4.35461e-11
3.36675e-11
-4.84321e-11
3.28333e-11
-5.3084e-11
3.15606e-11
-5.74544e-11
2.99088e-11
-6.15036e-11
2.79253e-11
-6.51935e-11
2.56499e-11
-6.84942e-11
2.31206e-11
-7.13744e-11
2.03684e-11
-7.38092e-11
1.7423e-11
-7.57714e-11
1.4308e-11
-7.72414e-11
1.10496e-11
-7.81966e-11
7.66887e-12
-7.86227e-11
4.19305e-12
-7.85027e-11
6.45333e-13
-7.78296e-11
-2.94329e-12
-7.65951e-11
-6.54626e-12
-7.48015e-11
-1.01297e-11
-7.24511e-11
-1.36647e-11
-6.95564e-11
-1.71163e-11
-6.61307e-11
-2.04545e-11
-6.21972e-11
-2.36439e-11
-5.77809e-11
-2.66543e-11
-5.29161e-11
-2.94517e-11
-4.76392e-11
-3.20064e-11
-4.19951e-11
-3.42869e-11
-3.60311e-11
-3.6266e-11
-2.98004e-11
-3.79176e-11
-2.33589e-11
-3.92213e-11
-1.67661e-11
-4.01607e-11
-1.00838e-11
-4.07246e-11
-3.37501e-12
-4.09065e-11
3.2955e-12
-4.07032e-11
9.86488e-12
-4.01167e-11
1.62699e-11
-3.91522e-11
2.24531e-11
-3.78233e-11
2.83574e-11
-3.61464e-11
3.39345e-11
-3.41472e-11
3.9136e-11
-3.18499e-11
4.39234e-11
-2.9286e-11
4.82578e-11
-2.6482e-11
5.21127e-11
-2.3474e-11
5.54605e-11
-2.02936e-11
5.82873e-11
-1.69821e-11
6.0577e-11
-1.35716e-11
6.23276e-11
-1.0101e-11
6.35343e-11
-6.59896e-12
6.42072e-11
-3.10349e-12
6.43519e-11
3.56673e-13
6.39872e-11
3.74505e-12
6.31264e-11
7.03727e-12
6.1795e-11
1.02029e-11
6.00129e-11
1.32222e-11
5.78098e-11
1.60695e-11
5.52097e-11
1.87255e-11
5.22446e-11
2.1162e-11
4.89411e-11
2.33535e-11
4.53327e-11
2.52703e-11
4.1454e-11
2.68787e-11
3.73484e-11
2.81353e-11
3.30633e-11
2.89881e-11
2.86569e-11
2.93769e-11
2.41979e-11
2.92359e-11
1.97705e-11
2.85018e-11
1.54779e-11
2.71094e-11
1.14321e-11
2.50358e-11
7.76831e-12
2.22572e-11
4.6321e-12
1.87733e-11
2.18246e-12
1.45442e-11
5.87813e-13
9.48693e-12
3.48718e-12
-7.41989e-13
4.85226e-12
-2.77264e-12
1.30482e-11
-5.88706e-12
1.99063e-11
-9.85439e-12
2.55959e-11
-1.44652e-11
3.02467e-11
-1.95259e-11
3.39056e-11
-2.48726e-11
3.66059e-11
-3.03613e-11
3.83877e-11
-3.58757e-11
3.93232e-11
-4.13186e-11
3.95027e-11
-4.66135e-11
3.90258e-11
-5.1698e-11
3.79794e-11
-5.65206e-11
3.64443e-11
-6.10391e-11
3.44868e-11
-6.5215e-11
3.21601e-11
-6.90168e-11
2.95093e-11
-7.24119e-11
2.6573e-11
-7.53739e-11
2.33869e-11
-7.78734e-11
1.99791e-11
-7.98882e-11
1.63792e-11
-8.1392e-11
1.26105e-11
-8.23665e-11
8.70134e-12
-8.27897e-11
4.67539e-12
-8.26483e-11
5.64963e-13
-8.19273e-11
-3.60126e-12
-8.06222e-11
-7.78557e-12
-7.87284e-11
-1.19549e-11
-7.62523e-11
-1.60688e-11
-7.32009e-11
-2.00923e-11
-6.95919e-11
-2.3984e-11
-6.54445e-11
-2.77081e-11
-6.07881e-11
-3.12234e-11
-5.56546e-11
-3.44941e-11
-5.00851e-11
-3.7481e-11
-4.41238e-11
-4.01497e-11
-3.78228e-11
-4.24652e-11
-3.12372e-11
-4.43985e-11
-2.44279e-11
-4.59236e-11
-1.74582e-11
-4.70213e-11
-1.03947e-11
-4.76775e-11
-3.30616e-12
-4.78835e-11
3.73921e-12
-4.76366e-11
1.06722e-11
-4.69379e-11
1.74281e-11
-4.57971e-11
2.39426e-11
-4.4228e-11
3.01595e-11
-4.22553e-11
3.60231e-11
-3.99048e-11
4.14874e-11
-3.72111e-11
4.65066e-11
-3.42048e-11
5.10471e-11
-3.09254e-11
5.50749e-11
-2.74081e-11
5.85706e-11
-2.36992e-11
6.15131e-11
-1.98379e-11
6.38959e-11
-1.58714e-11
6.571e-11
-1.18355e-11
6.69616e-11
-7.77428e-12
6.76535e-11
-3.72196e-12
6.78027e-11
2.78139e-13
6.74211e-11
4.19498e-12
6.65339e-11
7.9909e-12
6.51606e-11
1.1641e-11
6.33314e-11
1.51152e-11
6.10691e-11
1.83948e-11
5.84043e-11
2.14533e-11
5.53616e-11
2.42676e-11
5.19707e-11
2.68082e-11
4.82579e-11
2.90473e-11
4.42569e-11
3.09458e-11
4.00046e-11
3.24543e-11
3.55435e-11
3.35184e-11
3.09267e-11
3.40635e-11
2.622e-11
3.40153e-11
2.15123e-11
3.32825e-11
1.69051e-11
3.17924e-11
1.25315e-11
2.9485e-11
8.53861e-12
2.63282e-11
5.09931e-12
2.22898e-11
2.40011e-12
1.73225e-11
6.45563e-13
1.13149e-11
4.16559e-12
-8.08161e-13
5.69648e-12
-3.04241e-12
1.53427e-11
-6.45945e-12
2.33804e-11
-1.07954e-11
2.99892e-11
-1.57947e-11
3.53025e-11
-2.12395e-11
3.94077e-11
-2.6939e-11
4.23615e-11
-3.27399e-11
4.42452e-11
-3.85211e-11
4.51594e-11
-4.41903e-11
4.52268e-11
-4.96732e-11
4.4562e-11
-5.49136e-11
4.32728e-11
-5.98663e-11
4.14483e-11
-6.44924e-11
3.91637e-11
-6.87604e-11
3.64778e-11
-7.26393e-11
3.34375e-11
-7.61022e-11
3.00844e-11
-7.91189e-11
2.64522e-11
-8.16656e-11
2.25743e-11
-8.37143e-11
1.84769e-11
-8.52438e-11
1.41898e-11
-8.6228e-11
9.73671e-12
-8.66489e-11
5.14905e-12
-8.64842e-11
4.55228e-13
-8.57225e-11
-4.30542e-12
-8.4351e-11
-9.09659e-12
-8.23694e-11
-1.38726e-11
-7.97773e-11
-1.85933e-11
-7.65863e-11
-2.32116e-11
-7.28086e-11
-2.76859e-11
-6.84678e-11
-3.19688e-11
-6.3589e-11
-3.60178e-11
-5.82086e-11
-3.97859e-11
-5.23655e-11
-4.32314e-11
-4.61086e-11
-4.631e-11
-3.94906e-11
-4.89833e-11
-3.25714e-11
-5.12145e-11
-2.54149e-11
-5.29743e-11
-1.80896e-11
-5.42386e-11
-1.06671e-11
-5.49905e-11
-3.2201e-12
-5.522e-11
4.17683e-12
-5.49226e-11
1.14521e-11
-5.41025e-11
1.85345e-11
-5.27694e-11
2.53594e-11
-5.09443e-11
3.18633e-11
-4.86523e-11
3.79921e-11
-4.59294e-11
4.36923e-11
-4.28097e-11
4.89224e-11
-3.93368e-11
5.36416e-11
-3.55499e-11
5.78237e-11
-3.14997e-11
6.14424e-11
-2.72312e-11
6.44863e-11
-2.27996e-11
6.6942e-11
-1.8249e-11
6.88115e-11
-1.36311e-11
7.00936e-11
-8.98638e-12
7.08028e-11
-4.36504e-12
7.0949e-11
1.94732e-13
7.05567e-11
4.64683e-12
6.96453e-11
8.95927e-12
6.82462e-11
1.30948e-11
6.6383e-11
1.70314e-11
6.40869e-11
2.07428e-11
6.13813e-11
2.42099e-11
5.82951e-11
2.74048e-11
5.4851e-11
3.03034e-11
5.1076e-11
3.28746e-11
4.69952e-11
3.50794e-11
4.26384e-11
3.6866e-11
3.8043e-11
3.81695e-11
3.32517e-11
3.89135e-11
2.83306e-11
3.89958e-11
2.33606e-11
3.8315e-11
1.84513e-11
3.67645e-11
1.37394e-11
3.42626e-11
9.39864e-12
3.07344e-11
5.62413e-12
2.61323e-11
2.64942e-12
2.03638e-11
7.06892e-13
1.33224e-11
4.8989e-12
-8.9113e-13
6.61943e-12
-3.36804e-12
1.78677e-11
-7.14731e-12
2.72078e-11
-1.19003e-11
3.47885e-11
-1.73245e-11
4.07741e-11
-2.31604e-11
4.52898e-11
-2.92024e-11
4.84505e-11
-3.52875e-11
5.03758e-11
-4.12998e-11
5.12174e-11
-4.71499e-11
5.11212e-11
-5.27737e-11
5.02299e-11
-5.81225e-11
4.86642e-11
-6.31591e-11
4.65272e-11
-6.78524e-11
4.38981e-11
-7.21736e-11
4.084e-11
-7.60978e-11
3.74021e-11
-7.95966e-11
3.36236e-11
-8.26453e-11
2.95413e-11
-8.52154e-11
2.51855e-11
-8.72849e-11
2.05883e-11
-8.88258e-11
1.57738e-11
-8.98163e-11
1.07721e-11
-9.02288e-11
5.60861e-12
-9.00447e-11
3.20803e-13
-8.92425e-11
-5.0549e-12
-8.78138e-11
-1.0469e-11
-8.57503e-11
-1.5876e-11
-8.30568e-11
-2.12224e-11
-7.97382e-11
-2.64616e-11
-7.58107e-11
-3.154e-11
-7.12923e-11
-3.64094e-11
-6.6212e-11
-4.10153e-11
-6.06022e-11
-4.53085e-11
-5.45064e-11
-4.92355e-11
-4.79724e-11
-5.27483e-11
-4.10575e-11
-5.57986e-11
-3.38237e-11
-5.83456e-11
-2.63397e-11
-6.03526e-11
-1.86785e-11
-6.17919e-11
-1.09162e-11
-6.26432e-11
-3.13148e-12
-6.28939e-11
4.59793e-12
-6.25407e-11
1.2194e-11
-6.15874e-11
1.95841e-11
-6.00492e-11
2.66964e-11
-5.79477e-11
3.3468e-11
-5.53172e-11
3.98372e-11
-5.21942e-11
4.57535e-11
-4.86252e-11
5.11685e-11
-4.46543e-11
5.60482e-11
-4.03364e-11
6.036e-11
-3.57224e-11
6.40871e-11
-3.08743e-11
6.72116e-11
-2.58445e-11
6.97309e-11
-2.06939e-11
7.16398e-11
-1.54703e-11
7.29493e-11
-1.02311e-11
7.3666e-11
-5.02152e-12
7.38131e-11
1.03522e-13
7.3409e-11
5.10307e-12
7.24864e-11
9.93032e-12
7.10706e-11
1.45562e-11
6.91953e-11
1.89499e-11
6.68845e-11
2.30949e-11
6.4169e-11
2.69657e-11
6.10708e-11
3.05424e-11
5.76142e-11
3.37995e-11
5.38185e-11
3.67099e-11
4.97048e-11
3.92342e-11
4.52923e-11
4.13202e-11
4.06089e-11
4.28972e-11
3.56909e-11
4.38766e-11
3.0592e-11
4.41429e-11
2.53891e-11
4.35668e-11
2.0186e-11
4.20197e-11
1.51316e-11
3.93693e-11
1.04089e-11
3.55122e-11
6.25855e-12
3.03371e-11
2.95208e-12
2.3727e-11
7.86309e-13
1.55397e-11
5.70691e-12
-1.003e-12
7.64823e-12
-3.8022e-12
2.0705e-11
-8.02888e-12
3.14709e-11
-1.32724e-11
4.0069e-11
-1.91577e-11
4.66953e-11
-2.5392e-11
5.15609e-11
-3.17501e-11
5.48442e-11
-3.80792e-11
5.67409e-11
-4.42683e-11
5.74412e-11
-5.02438e-11
5.71314e-11
-5.59512e-11
5.59706e-11
-6.13543e-11
5.41008e-11
-6.64252e-11
5.16305e-11
-7.11395e-11
4.86448e-11
-7.54751e-11
4.52075e-11
-7.94074e-11
4.13665e-11
-8.29132e-11
3.71617e-11
-8.59646e-11
3.26257e-11
-8.85389e-11
2.77937e-11
-9.06086e-11
2.26932e-11
-9.2151e-11
1.73534e-11
-9.31359e-11
1.17963e-11
-9.35392e-11
6.054e-12
-9.33314e-11
1.5809e-13
-9.24943e-11
-5.84316e-12
-9.10104e-11
-1.19004e-11
-8.88767e-11
-1.79526e-11
-8.60908e-11
-2.39467e-11
-8.26621e-11
-2.98238e-11
-7.85997e-11
-3.5531e-11
-7.39247e-11
-4.10078e-11
-6.86606e-11
-4.6198e-11
-6.28436e-11
-5.10392e-11
-5.65143e-11
-5.5474e-11
-4.97248e-11
-5.94425e-11
-4.25327e-11
-6.28915e-11
-3.50051e-11
-6.57704e-11
-2.7214e-11
-6.8038e-11
-1.92372e-11
-6.96606e-11
-1.1156e-11
-7.06143e-11
-3.05335e-12
-7.08854e-11
4.987e-12
-7.04693e-11
1.28846e-11
-6.93735e-11
2.05596e-11
-6.76134e-11
2.79398e-11
-6.52187e-11
3.49545e-11
-6.22247e-11
4.15438e-11
-5.86793e-11
4.76502e-11
-5.46306e-11
5.3231e-11
-5.01383e-11
5.82461e-11
-4.52588e-11
6.26719e-11
-4.00607e-11
6.64854e-11
-3.4605e-11
6.96795e-11
-2.89617e-11
7.22452e-11
-2.31879e-11
7.41898e-11
-1.73491e-11
7.55166e-11
-1.14972e-11
7.62447e-11
-5.69462e-12
7.63897e-11
8.67977e-15
7.59847e-11
5.55333e-12
7.5057e-11
1.08992e-11
7.36445e-11
1.60062e-11
7.17733e-11
2.08555e-11
6.94764e-11
2.54237e-11
6.67779e-11
2.96941e-11
6.37058e-11
3.36436e-11
6.02768e-11
3.72566e-11
5.65076e-11
4.05078e-11
5.24103e-11
4.33602e-11
4.79967e-11
4.57644e-11
4.32829e-11
4.76421e-11
3.82931e-11
4.89003e-11
3.30698e-11
4.9401e-11
2.7672e-11
4.90024e-11
2.22008e-11
4.75294e-11
1.67974e-11
4.48142e-11
1.16658e-11
4.06852e-11
7.07064e-12
3.49764e-11
3.35574e-12
2.74847e-11
8.9141e-13
1.80459e-11
6.61303e-12
-1.18012e-12
8.84932e-12
-4.42976e-12
2.39791e-11
-9.2394e-12
3.63073e-11
-1.50567e-11
4.59116e-11
-2.14365e-11
5.31016e-11
-2.80487e-11
5.81986e-11
-3.46787e-11
6.15004e-11
-4.11837e-11
6.32708e-11
-4.74783e-11
6.37611e-11
-5.35043e-11
6.31816e-11
-5.92281e-11
6.17188e-11
-6.4624e-11
5.95203e-11
-6.96741e-11
5.67044e-11
-7.43615e-11
5.33557e-11
-7.86674e-11
4.95373e-11
-8.25721e-11
4.52956e-11
-8.60502e-11
4.0665e-11
-8.9078e-11
3.56797e-11
-9.16281e-11
3.03716e-11
-9.36795e-11
2.47742e-11
-9.52031e-11
1.89089e-11
-9.61737e-11
1.28017e-11
-9.65569e-11
6.47489e-12
-9.63256e-11
-3.16664e-14
-9.54504e-11
-6.67298e-12
-9.39182e-11
-1.33828e-11
-9.17189e-11
-2.00975e-11
-8.8856e-11
-2.67501e-11
-8.53305e-11
-3.32848e-11
-8.11548e-11
-3.96369e-11
-7.63422e-11
-4.57456e-11
-7.09191e-11
-5.15409e-11
-6.49164e-11
-5.69568e-11
-5.83787e-11
-6.19219e-11
-5.13565e-11
-6.63706e-11
-4.39122e-11
-7.02375e-11
-3.61145e-11
-7.34664e-11
-2.80406e-11
-7.60072e-11
-1.97726e-11
-7.78215e-11
-1.13964e-11
-7.88815e-11
-3.00051e-12
-7.91711e-11
5.32778e-12
-7.8687e-11
1.35012e-11
-7.74362e-11
2.14382e-11
-7.54408e-11
2.9059e-11
-7.27312e-11
3.62935e-11
-6.93534e-11
4.30746e-11
-6.53573e-11
4.93495e-11
-6.08061e-11
5.50689e-11
-5.57622e-11
6.02011e-11
-5.03004e-11
6.47164e-11
-4.44902e-11
6.86025e-11
-3.84112e-11
7.18465e-11
-3.21313e-11
7.44529e-11
-2.57262e-11
7.64226e-11
-1.92564e-11
7.77715e-11
-1.27902e-11
7.85093e-11
-6.382e-12
7.86641e-11
-1.01684e-13
7.82632e-11
5.99357e-12
7.73497e-11
1.18471e-11
7.59553e-11
1.74308e-11
7.41171e-11
2.27201e-11
7.18595e-11