/*--------------------------------*- C++ -*----------------------------------*\
| =========                 |                                                 |
| \\      /  F ield         | OpenFOAM: The Open Source CFD Toolbox           |
|  \\    /   O peration     | Version:  2412                                  |
|   \\  /    A nd           | Website:  www.openfoam.com                      |
|    \\/     M anipulation  |                                                 |
\*---------------------------------------------------------------------------*/
FoamFile
{
    version     2.0;
    format      ascii;
    arch        "LSB;label=32;scalar=64";
    class       volScalarField;
    location    "1.25";
    object      p_rgh;
}
// * * * * * * * * * * * * * * * * * * * * * * * * * * * * * * * * * * * * * //

dimensions      [1 -1 -2 0 0 0 0];

internalField   nonuniform List<scalar> 
6400
(
13920.3
13920.3
13920.3
13920.3
13920.3
13920.3
13920.3
13920.3
13920.3
13920.3
13920.3
13920.3
13920.3
13920.3
13920.3
13920.3
13920.3
13920.3
13920.3
13920.3
13920.3
13920.3
13920.3
13920.3
13920.3
13920.3
13920.3
13920.3
13920.3
13920.3
13920.3
13920.3
13920.3
13920.3
13920.3
13920.3
13920.3
13920.3
13920.3
13920.3
13920.3
13920.3
13920.3
13920.3
13920.3
13920.3
13920.3
13920.3
13920.3
13920.3
13920.3
13920.3
13920.3
13920.3
13920.3
13920.3
13920.3
13920.3
13920.3
13920.3
13920.3
13920.3
13920.3
13920.3
13920.3
13920.3
13920.3
13920.3
13920.3
13920.3
13920.3
13920.3
13920.3
13920.3
13920.3
13920.3
13920.3
13920.3
13920.3
13920.3
13920.3
13920.3
13920.3
13920.3
13920.3
13920.3
13920.3
13920.3
13920.3
13920.3
13920.3
13920.3
13920.3
13920.3
13920.3
13920.3
13920.3
13920.3
13920.3
13920.3
13920.3
13920.3
13920.3
13920.3
13920.3
13920.3
13920.3
13920.3
13920.3
13920.3
13920.3
13920.3
13920.3
13920.3
13920.3
13920.3
13920.3
13920.3
13920.3
13920.3
13920.3
13920.3
13920.3
13920.3
13920.3
13920.3
13920.3
13920.3
13920.3
13920.3
13920.3
13920.3
13920.3
13920.3
13920.3
13920.3
13920.3
13920.3
13920.3
13920.3
13920.3
13920.3
13920.3
13920.3
13920.3
13920.3
13920.3
13920.3
13920.3
13920.3
13920.3
13920.3
13920.3
13920.3
13920.3
13920.3
13920.3
13920.3
13920.3
13920.3
13920.3
13920.3
13920.3
13920.3
13920.3
13920.3
13920.3
13920.3
13920.3
13920.3
13920.3
13920.3
13920.3
13920.3
13920.3
13920.3
13920.3
13920.3
13920.3
13920.3
13920.3
13920.3
13920.3
13920.3
13920.3
13920.3
13920.3
13920.3
13920.3
13920.3
13920.3
13920.3
13920.3
13920.3
13920.3
13920.3
13920.3
13920.3
13920.3
13920.3
13920.3
13920.3
13920.3
13920.3
13920.3
13920.3
13920.3
13920.3
13920.3
13920.3
13920.3
13920.3
13920.3
13920.3
13920.3
13920.3
13920.3
13920.3
13920.3
13920.3
13920.3
13920.3
13920.3
13920.3
13920.3
13920.3
13920.3
13920.3
13920.3
13920.3
13920.3
13920.3
13920.3
13920.3
13920.3
13920.3
13920.3
13920.3
13920.3
13920.3
13920.3
13920.3
13920.3
13920.3
13920.3
13920.3
13920.3
13920.3
13920.3
13920.3
13920.3
13920.3
13920.3
13920.3
13920.3
13920.3
13920.3
13920.3
13920.3
13920.3
13920.3
13920.3
13920.3
13920.3
13920.3
13920.3
13920.3
13920.3
13920.3
13920.3
13920.3
13920.3
13920.3
13920.3
13920.3
13920.3
13920.3
13920.3
13920.3
13920.3
13920.3
13920.3
13920.3
13920.3
13920.3
13920.3
13920.3
13920.3
13920.3
13920.3
13920.3
13920.3
13920.3
13920.3
13920.3
13920.3
13920.3
13920.3
13920.3
13920.3
13920.3
13920.3
13920.3
13920.3
13920.3
13920.3
13920.3
13920.3
13920.3
13920.3
13920.3
13920.3
13920.3
13920.3
13920.3
13920.3
13920.3
13920.3
13920.3
13920.3
13920.3
13920.3
13920.3
13920.3
13920.3
13920.3
13920.3
13920.3
13920.3
13920.3
13920.3
13920.3
13920.3
13920.3
13920.3
13920.3
13920.3
13920.3
13920.3
13920.3
13920.3
13920.3
13920.3
13920.3
13920.3
13920.3
13920.3
13920.3
13920.3
13920.3
13920.3
13920.3
13920.3
13920.3
13920.3
13920.3
13920.3
13920.3
13920.3
13920.3
13920.3
13920.3
13920.3
13920.3
13920.3
13920.3
13920.3
13920.3
13920.3
13920.3
13920.3
13920.3
13920.3
13920.3
13920.3
13920.3
13920.3
13920.3
13920.3
13920.3
13920.3
13920.3
13920.3
13920.3
13920.3
13920.3
13920.3
13920.3
13920.3
13920.3
13920.3
13920.3
13920.3
13920.3
13920.3
13920.3
13920.3
13920.3
13920.3
13920.3
13920.3
13920.3
13920.3
13920.3
13920.3
13920.3
13920.3
13920.3
13920.3
13920.3
13920.3
13920.3
13920.3
13920.3
13920.3
13920.3
13920.3
13920.3
13920.3
13920.3
13920.3
13920.3
13920.3
13920.3
13920.3
13920.3
13920.3
13920.3
13920.3
13920.3
13920.3
13920.3
13920.3
13920.3
13920.3
13920.3
13920.3
13920.3
13920.3
13920.3
13920.3
13920.3
13920.3
13920.3
13920.3
13920.3
13920.3
13920.3
13920.3
13920.3
13920.3
13920.3
13920.3
13920.3
13920.3
13920.3
13920.3
13920.3
13920.3
13920.3
13920.3
13920.3
13920.3
13920.3
13920.3
13920.3
13920.3
13920.3
13920.3
13920.3
13920.3
13920.3
13920.3
13920.3
13920.3
13920.3
13920.3
13920.3
13920.3
13920.3
13920.3
13920.3
13920.3
13920.3
13920.3
13920.3
13920.3
13920.3
13920.3
13920.3
13920.3
13920.3
13920.3
13920.3
13920.3
13920.3
13920.3
13920.3
13920.3
13920.3
13920.3
13920.3
13920.3
13920.3
13920.3
13920.3
13920.3
13920.3
13920.3
13920.3
13920.3
13920.3
13920.3
13920.3
13920.3
13920.3
13920.3
13920.3
13920.3
13920.3
13920.3
13920.3
13920.3
13920.3
13920.3
13920.3
13920.3
13920.3
13920.3
13920.3
13920.3
13920.3
13920.3
13920.3
13920.3
13920.3
13920.3
13920.3
13920.3
13920.3
13920.3
13920.3
13920.3
13920.3
13920.3
13920.3
13920.3
13920.3
13920.3
13920.3
13920.3
13920.3
13920.3
13920.3
13920.3
13920.3
13920.3
13920.3
13920.3
13920.3
13920.3
13920.3
13920.3
13920.3
13920.3
13920.3
13920.3
13920.3
13920.3
13920.3
13920.3
13920.3
13920.3
13920.3
13920.3
13920.3
13920.3
13920.3
13920.3
13920.3
13920.3
13920.3
13920.3
13920.3
13920.3
13920.3
13920.3
13920.3
13920.3
13920.3
13920.3
13920.3
13920.3
13920.3
13920.3
13920.3
13920.3
13920.3
13920.3
13920.3
13920.3
13920.3
13920.3
13920.3
13920.3
13920.3
13920.3
13920.3
13920.3
13920.3
13920.3
13920.3
13920.3
13920.3
13920.3
13920.3
13920.3
13920.3
13920.3
13920.3
13920.3
13920.3
13920.3
13920.3
13920.3
13920.3
13920.3
13920.3
13920.3
13920.3
13920.3
13920.3
13920.3
13920.3
13920.3
13920.3
13920.3
13920.3
13920.3
13920.3
13920.3
13920.3
13920.3
13920.3
13920.3
13920.3
13920.3
13920.3
13920.3
13920.3
13920.3
13920.3
13920.3
13920.3
13920.3
13920.3
13920.3
13920.3
13920.3
13920.3
13920.3
13920.3
13920.3
13920.3
13920.3
13920.3
13920.3
13920.3
13920.3
13920.3
13920.3
13920.3
13920.3
13920.3
13920.3
13920.3
13920.3
13920.3
13920.3
13920.3
13920.3
13920.3
13920.3
13920.3
13920.3
13920.3
13920.3
13920.3
13920.3
13920.3
13920.3
13920.3
13920.3
13920.3
13920.3
13920.3
13920.3
13920.3
13920.3
13920.3
13920.3
13920.3
13920.3
13920.3
13920.3
13920.3
13920.3
13920.3
13920.3
13920.3
13920.3
13920.3
13920.3
13920.3
13920.3
13920.3
13920.3
13920.3
13920.3
13920.3
13920.3
13920.3
13920.3
13920.3
13920.3
13920.3
13920.3
13920.3
13920.3
13920.3
13920.3
13920.3
13920.3
13920.3
13920.3
13920.3
13920.3
13920.3
13920.3
13920.3
13920.3
13920.3
13920.3
13920.3
13920.3
13920.3
13920.3
13920.3
13920.3
13920.3
13920.3
13920.3
13920.3
13920.3
13920.3
13920.3
13920.3
13920.3
13920.3
13920.3
13920.3
13920.3
13920.3
13920.3
13920.3
13920.3
13920.3
13920.3
13920.3
13920.3
13920.3
13920.3
13920.3
13920.3
13920.3
13920.3
13920.3
13920.3
13920.3
13920.3
13920.3
13920.3
13920.3
13920.3
13920.3
13920.3
13920.3
13920.3
13920.3
13920.3
13920.3
13920.3
13920.3
13920.3
13920.3
13920.3
13920.3
13920.3
13920.3
13920.3
13920.3
13920.3
13920.3
13920.3
13920.3
13920.3
13920.3
13920.3
13920.3
13920.3
13920.3
13920.3
13920.3
13920.3
13920.3
13920.3
13920.3
13920.3
13920.3
13920.3
13920.3
13920.3
13920.3
13920.3
13920.3
13920.3
13920.3
13920.3
13920.3
13920.3
13920.3
13920.3
13920.3
13920.3
13920.3
13920.3
13920.3
13920.3
13920.3
13920.3
13920.3
13920.3
13920.3
13920.3
13920.3
13920.3
13920.3
13920.3
13920.3
13920.3
13920.3
13920.3
13920.3
13920.3
13920.3
13920.3
13920.3
13920.3
13920.3
13920.3
13920.3
13920.3
13920.3
13920.3
13920.3
13920.3
13920.3
13920.3
13920.3
13920.3
13920.3
13920.3
13920.3
13920.3
13920.3
13920.3
13920.3
13920.3
13920.3
13920.3
13920.3
13920.3
13920.3
13920.3
13920.3
13920.3
13920.3
13920.3
13920.3
13920.3
13920.3
13920.3
13920.3
13920.3
13920.3
13920.3
13920.3
13920.3
13920.3
13920.3
13920.3
13920.3
13920.3
13920.3
13920.3
13920.3
13920.3
13920.3
13920.3
13920.3
13920.3
13920.3
13920.3
13920.3
13920.3
13920.3
13920.3
13920.3
13920.3
13920.3
13920.3
13920.3
13920.3
13920.3
13920.3
13920.3
13920.3
13920.3
13920.3
13920.3
13920.3
13920.3
13920.3
13920.3
13920.3
13920.3
13920.3
13920.3
13920.3
13920.3
13920.3
13920.3
13920.3
13920.3
13920.3
13920.3
13920.3
13920.3
13920.3
13920.3
13920.3
13920.3
13920.3
13920.3
13920.3
13920.3
13920.3
13920.3
13920.3
13920.3
13920.3
13920.3
13920.3
13920.3
13920.3
13920.3
13920.3
13920.3
13920.3
13920.3
13920.3
13920.3
13920.3
13920.3
13920.3
13920.3
13920.3
13920.3
13920.3
13920.3
13920.3
13920.3
13920.3
13920.3
13920.3
13920.3
13920.3
13920.3
13920.3
13920.3
13920.3
13920.3
13920.3
13920.3
13920.3
13920.3
13920.3
13920.3
13920.3
13920.3
13920.3
13920.3
13920.3
13920.3
13920.3
13920.3
13920.3
13920.3
13920.3
13920.3
13920.3
13920.3
13920.3
13920.3
13920.3
13920.3
13920.3
13920.3
13920.3
13920.3
13920.3
13920.3
13920.3
13920.3
13920.3
13920.3
13920.3
13920.3
13920.3
13920.3
13920.3
13920.3
13920.3
13920.3
13920.3
13920.3
13920.3
13920.3
13920.3
13920.3
13920.3
13920.3
13920.3
13920.3
13920.3
13920.3
13920.3
13920.3
13920.3
13920.3
13920.3
13920.3
13920.3
13920.3
13920.3
13920.3
13920.3
13920.3
13920.3
13920.3
13920.3
13920.3
13920.3
13920.3
13920.3
13920.3
13920.3
13920.3
13920.3
13920.3
13920.3
13920.3
13920.3
13920.3
13920.3
13920.3
13920.3
13920.3
13920.3
13920.3
13920.3
13920.3
13920.3
13920.3
13920.3
13920.3
13920.3
13920.3
13920.3
13920.3
13920.3
13920.3
13920.3
13920.3
13920.3
13920.3
13920.3
13920.3
13920.3
13920.3
13920.3
13920.3
13920.3
13920.3
13920.3
13920.3
13920.3
13920.3
13920.3
13920.3
13920.3
13920.3
13920.3
13920.3
13920.3
13920.3
13920.3
13920.3
13920.3
13920.3
13920.4
13920.4
13920.4
13920.4
13920.4
13920.4
13920.4
13920.4
13920.4
13920.4
13920.4
13920.4
13920.4
13920.4
13920.4
13920.4
13920.4
13920.4
13920.4
13920.4
13920.4
13920.4
13920.4
13920.4
13920.4
13920.4
13920.4
13920.4
13920.4
13920.4
13920.4
13920.4
13920.4
13920.4
13920.4
13920.4
13920.4
13920.4
13920.4
13920.4
13920.4
13920.4
13920.4
13920.4
13920.4
13920.4
13920.4
13920.4
13920.4
13920.4
13920.4
13920.4
13920.4
13920.4
13920.4
13920.4
13920.4
13920.4
13920.4
13920.4
13920.4
13920.4
13920.4
13920.4
13920.4
13920.4
13920.4
13920.4
13920.4
13920.4
13920.4
13920.4
13920.4
13920.4
13920.4
13920.4
13920.4
13920.4
13920.4
13920.4
13920.4
13920.4
13920.4
13920.4
13920.4
13920.4
13920.4
13920.4
13920.4
13920.4
13920.4
13920.4
13920.4
13920.4
13920.4
13920.4
13920.4
13920.4
13920.4
13920.4
13920.4
13920.4
13920.4
13920.4
13920.4
13920.4
13920.4
13920.4
13920.4
13920.4
13920.4
13920.4
13920.4
13920.4
13920.4
13920.4
13920.4
13920.4
13920.4
13920.4
13920.4
13920.4
13920.4
13920.4
13920.4
13920.4
13920.4
13920.4
13920.4
13920.4
13920.4
13920.4
13920.4
13920.4
13920.4
13920.4
13920.4
13920.4
13920.4
13920.4
13920.4
13920.4
13920.4
13920.4
13920.4
13920.4
13920.4
13920.4
13920.4
13920.4
13920.4
13920.4
13920.4
13920.4
13920.4
13920.4
13920.4
13920.4
13920.4
13920.4
13920.4
13920.4
13920.4
13920.4
13920.4
13920.4
13920.4
13920.4
13920.4
13920.4
13920.4
13920.4
13920.4
13920.4
13920.4
13920.4
13920.4
13920.4
13920.4
13920.4
13920.4
13920.4
13920.4
13920.4
13920.4
13920.4
13920.4
13920.4
13920.4
13920.4
13920.4
13920.4
13920.4
13920.4
13920.4
13920.4
13920.4
13920.4
13920.4
13920.4
13920.4
13920.4
13920.4
13920.4
13920.4
13920.4
13920.4
13920.4
13920.4
13920.4
13920.4
13920.4
13920.4
13920.4
13920.4
13920.4
13920.4
13920.4
13920.4
13920.4
13920.4
13920.4
13920.4
13920.4
13920.4
13920.4
13920.4
13920.4
13920.4
13920.4
13920.4
13920.4
13920.4
13920.4
13920.4
13920.4
13920.4
13920.4
13920.4
13920.4
13920.4
13920.4
13920.4
13920.4
13920.4
13920.4
13920.4
13920.4
13920.4
13920.4
13920.4
13920.4
13920.4
13920.4
13920.4
13920.4
13920.4
13920.4
13920.4
13920.4
13920.4
13920.4
13920.4
13920.4
13920.4
13920.4
13920.4
13920.4
13920.4
13920.4
13920.4
13920.4
13920.4
13920.4
13920.4
13920.4
13920.4
13920.4
13920.4
13920.4
13920.4
13920.4
13920.4
13920.4
13920.4
13920.4
13920.4
13920.4
13920.4
13920.4
13920.4
13920.4
13920.4
13920.4
13920.4
13920.4
13920.4
13920.4
13920.4
13920.4
13920.4
13920.4
13920.4
13920.4
13920.4
13920.4
13920.4
13920.4
13920.4
13920.4
13920.4
13920.4
13920.4
13920.4
13920.4
13920.4
13920.4
13920.4
13920.4
13920.4
13920.4
13920.4
13920.4
13920.4
13920.4
13920.4
13920.4
13920.4
13920.4
13920.4
13920.4
13920.4
13920.4
13920.4
13920.4
13920.4
13920.4
13920.4
13920.4
13920.4
13920.4
13920.4
13920.4
13920.4
13920.4
13920.4
13920.4
13920.4
13920.4
13920.4
13920.4
13920.4
13920.4
13920.4
13920.4
13920.4
13920.4
13920.4
13920.4
13920.4
13920.4
13920.4
13920.4
13920.4
13920.4
13920.4
13920.4
13920.4
13920.4
13920.4
13920.4
13920.4
13920.4
13920.4
13920.4
13920.4
13920.4
13920.4
13920.4
13920.4
13920.4
13920.4
13920.4
13920.4
13920.4
13920.4
13920.4
13920.4
13920.4
13920.4
13920.4
13920.4
13920.4
13920.4
13920.4
13920.4
13920.4
13920.4
13920.4
13920.4
13920.4
13920.4
13920.4
13920.4
13920.4
13920.4
13920.4
13920.4
13920.4
13920.4
13920.4
13920.4
13920.4
13920.4
13920.4
13920.4
13920.4
13920.4
13920.4
13920.4
13920.4
13920.4
13920.4
13920.4
13920.4
13920.4
13920.4
13920.4
13920.4
13920.4
13920.4
13920.4
13920.4
13920.4
13920.4
13920.4
13920.4
13920.4
13920.4
13920.4
13920.4
13920.4
13920.4
13920.4
13920.4
13920.4
13920.4
13920.4
13920.4
13920.4
13920.4
13920.4
13920.4
13920.4
13920.4
13920.4
13920.4
13920.4
13920.4
13920.4
13920.4
13920.4
13920.4
13920.4
13920.4
13920.4
13920.4
13920.4
13920.4
13920.4
13920.4
13920.4
13920.4
13920.4
13920.4
13920.4
13920.4
13920.4
13920.4
13920.4
0.0109051
0.0120059
0.0127206
0.0131977
0.013457
0.013572
0.0135939
0.0135371
0.0134188
0.0132578
0.0130646
0.0128489
0.0126106
0.0123528
0.0120707
0.0117669
0.0114464
0.0111834
0.0110038
0.0108462
0.0107868
0.0107447
0.0107172
0.0107467
0.0107818
0.0108288
0.0108815
0.0109394
0.0110191
0.0111137
0.0112078
0.0113003
0.0113901
0.0114758
0.0115564
0.0116306
0.0116974
0.0117557
0.0118048
0.0118441
0.011873
0.0118914
0.0118993
0.0118972
0.0118848
0.0118628
0.0118322
0.0117947
0.0117511
0.0117025
0.0116503
0.011596
0.0115407
0.0114859
0.0114327
0.011382
0.0113396
0.01136
0.0113909
0.0114399
0.0115552
0.0117523
0.0120966
0.0128124
0.0136843
0.0145209
0.0152915
0.0159698
0.0165174
0.0168967
0.0170988
0.0171317
0.016999
0.0167554
0.0164026
0.0160141
0.015589
0.0151766
0.014525
0.0134419
0.00906527
0.00907003
0.00908071
0.00909747
0.00912024
0.00914875
0.00918277
0.00922203
0.00926622
0.00931506
0.00936828
0.00942564
0.00948692
0.00955191
0.00962034
0.00969184
0.00976594
0.00984248
0.00992185
0.0100042
0.0100899
0.0101791
0.0102717
0.0103682
0.010466
0.0105671
0.0106703
0.0107747
0.0108795
0.010984
0.0110871
0.0111878
0.0112848
0.011377
0.0114633
0.0115426
0.0116139
0.0116763
0.011729
0.0117714
0.0118031
0.0118238
0.0118334
0.0118323
0.0118205
0.0117988
0.0117679
0.0117284
0.0116816
0.0116283
0.0115698
0.0115073
0.0114419
0.0113749
0.0113073
0.0112405
0.0111756
0.0111126
0.0110522
0.0109952
0.010942
0.0108925
0.0108465
0.0108017
0.0107563
0.0107111
0.0106674
0.0106258
0.0105869
0.010551
0.0105184
0.0104892
0.0104633
0.0104409
0.0104217
0.0104058
0.0103932
0.0103838
0.0103775
0.0103745
0.0090616
0.00906711
0.00907833
0.00909529
0.00911793
0.00914609
0.00917955
0.00921807
0.0092614
0.00930926
0.00936143
0.00941767
0.0094778
0.00954162
0.00960897
0.00967973
0.00975379
0.00983118
0.00991197
0.00999624
0.0100841
0.0101755
0.0102704
0.010368
0.01047
0.0105739
0.0106798
0.010787
0.0108947
0.011002
0.0111079
0.0112112
0.0113107
0.0114053
0.0114938
0.0115751
0.0116481
0.0117119
0.0117657
0.0118089
0.0118411
0.0118619
0.0118714
0.0118697
0.0118572
0.0118344
0.011802
0.0117609
0.0117121
0.0116567
0.011596
0.011531
0.0114631
0.0113934
0.0113232
0.0112534
0.0111848
0.0111185
0.011055
0.0109944
0.0109372
0.0108834
0.0108327
0.0107846
0.010739
0.0106955
0.0106545
0.0106158
0.0105797
0.0105462
0.0105154
0.0104875
0.0104624
0.0104404
0.0104213
0.0104054
0.0103926
0.0103829
0.0103761
0.0103723
0.00905394
0.00905958
0.00907085
0.00908776
0.00911026
0.00913818
0.00917134
0.00920953
0.00925253
0.0093001
0.00935205
0.00940821
0.00946841
0.00953255
0.0096005
0.00967222
0.00974764
0.0098268
0.00990977
0.00999667
0.0100875
0.0101824
0.0102811
0.0103834
0.0104894
0.0105981
0.0107089
0.0108212
0.010934
0.0110463
0.0111571
0.0112652
0.0113692
0.0114681
0.0115605
0.0116453
0.0117213
0.0117877
0.0118436
0.0118884
0.0119215
0.0119428
0.0119522
0.0119498
0.011936
0.0119113
0.0118766
0.0118327
0.0117806
0.0117215
0.0116567
0.0115873
0.0115147
0.0114401
0.0113646
0.0112894
0.0112155
0.0111437
0.0110747
0.0110091
0.0109471
0.0108889
0.0108342
0.0107829
0.0107346
0.0106892
0.0106466
0.0106071
0.0105705
0.0105369
0.0105063
0.0104787
0.0104541
0.0104324
0.0104138
0.0103982
0.0103856
0.0103759
0.0103692
0.0103652
0.00904017
0.00904591
0.00905715
0.00907393
0.00909617
0.00912374
0.0091565
0.00919427
0.00923688
0.00928417
0.009336
0.00939226
0.00945285
0.00951773
0.00958689
0.00966034
0.00973811
0.00982028
0.00990694
0.00999818
0.010094
0.0101944
0.0102992
0.0104082
0.010521
0.010637
0.0107553
0.0108753
0.0109958
0.0111158
0.0112341
0.0113493
0.0114603
0.0115655
0.0116638
0.0117538
0.0118344
0.0119047
0.0119636
0.0120107
0.0120452
0.0120671
0.0120761
0.0120725
0.0120567
0.0120292
0.0119909
0.0119426
0.0118854
0.0118206
0.0117495
0.0116733
0.0115934
0.0115111
0.0114278
0.0113445
0.0112624
0.0111824
0.0111053
0.0110319
0.0109624
0.0108972
0.0108362
0.0107795
0.0107269
0.0106782
0.0106333
0.0105922
0.0105547
0.0105208
0.0104902
0.0104629
0.0104387
0.0104176
0.0103995
0.0103844
0.0103722
0.0103628
0.0103561
0.0103521
0.00902055
0.00902636
0.00903749
0.00905405
0.00907595
0.00910312
0.00913544
0.00917279
0.00921508
0.0092622
0.0093141
0.00937075
0.00943215
0.00949835
0.0095694
0.00964542
0.00972652
0.00981282
0.00990443
0.0100014
0.0101038
0.0102115
0.0103243
0.0104419
0.0105638
0.0106892
0.0108174
0.0109472
0.0110778
0.0112077
0.0113356
0.0114601
0.0115798
0.0116933
0.0117991
0.0118958
0.0119823
0.0120574
0.0121203
0.0121702
0.0122066
0.0122291
0.0122378
0.0122327
0.0122142
0.012183
0.0121399
0.0120859
0.0120221
0.0119498
0.0118705
0.0117854
0.0116961
0.011604
0.0115105
0.0114168
0.0113242
0.0112337
0.0111464
0.011063
0.010984
0.01091
0.0108411
0.0107774
0.0107189
0.0106654
0.010617
0.0105732
0.010534
0.010499
0.010468
0.0104407
0.0104169
0.0103963
0.0103788
0.0103643
0.0103526
0.0103436
0.0103371
0.0103332
0.0089949
0.00900074
0.00901172
0.00902799
0.00904951
0.00907623
0.00910809
0.00914505
0.00918707
0.00923416
0.00928634
0.00934369
0.00940631
0.00947435
0.00954798
0.00962738
0.00971274
0.00980424
0.00990202
0.0100061
0.0101166
0.0102332
0.0103557
0.0104837
0.0106166
0.0107535
0.0108934
0.0110352
0.0111777
0.0113194
0.0114588
0.0115944
0.0117245
0.0118477
0.0119623
0.012067
0.0121604
0.0122414
0.012309
0.0123623
0.0124008
0.0124242
0.0124323
0.0124254
0.0124038
0.0123682
0.0123195
0.0122586
0.0121868
0.0121056
0.0120164
0.0119207
0.0118201
0.0117163
0.0116106
0.0115045
0.0113995
0.0112966
0.0111971
0.0111019
0.0110117
0.0109272
0.0108487
0.0107766
0.0107108
0.0106513
0.010598
0.0105506
0.0105088
0.0104721
0.0104402
0.0104125
0.0103889
0.0103688
0.0103519
0.010338
0.0103269
0.0103183
0.0103121
0.0103082
0.00896301
0.00896887
0.00897966
0.0089956
0.00901669
0.00904294
0.00907434
0.00911094
0.00915279
0.00919999
0.00925268
0.00931104
0.00937531
0.00944572
0.00952256
0.00960611
0.00969663
0.00979434
0.0098994
0.0100119
0.0101317
0.0102587
0.0103925
0.0105325
0.0106779
0.0108279
0.0109813
0.0111367
0.0112926
0.0114477
0.0116
0.011748
0.0118899
0.012024
0.0121486
0.0122622
0.0123634
0.0124509
0.0125237
0.0125809
0.0126219
0.0126463
0.0126541
0.0126452
0.0126202
0.0125797
0.0125246
0.012456
0.0123752
0.0122838
0.0121834
0.0120756
0.0119623
0.011845
0.0117256
0.0116056
0.0114864
0.0113696
0.0112564
0.0111479
0.0110451
0.0109487
0.0108593
0.0107773
0.010703
0.0106362
0.010577
0.0105249
0.0104796
0.0104405
0.0104071
0.0103788
0.010355
0.0103352
0.0103188
0.0103056
0.010295
0.0102869
0.010281
0.0102772
0.00892461
0.00893049
0.00894107
0.00895665
0.00897731
0.00900308
0.00903406
0.00907036
0.00911214
0.00915962
0.00921305
0.00927276
0.00933907
0.00941237
0.00949304
0.00958145
0.00967793
0.00978276
0.00989611
0.010018
0.0101484
0.010287
0.0104333
0.0105865
0.0107459
0.0109102
0.0110782
0.0112484
0.0114191
0.0115885
0.0117548
0.0119162
0.0120707
0.0122165
0.0123519
0.0124751
0.0125846
0.0126792
0.0127577
0.0128192
0.0128631
0.0128888
0.0128963
0.0128856
0.0128572
0.0128116
0.0127498
0.012673
0.0125826
0.0124801
0.0123675
0.0122465
0.0121191
0.0119872
0.0118528
0.0117175
0.0115831
0.0114511
0.011323
0.0112001
0.0110834
0.010974
0.0108725
0.0107796
0.0106956
0.0106205
0.0105543
0.0104966
0.010447
0.0104048
0.0103693
0.0103398
0.0103155
0.0102957
0.0102797
0.0102669
0.0102569
0.0102492
0.0102435
0.0102397
0.00887945
0.00888534
0.00889569
0.00891093
0.00893114
0.00895647
0.00898706
0.00902314
0.00906499
0.00911293
0.00916736
0.00922872
0.00929748
0.00937414
0.0094592
0.0095531
0.00965627
0.00976899
0.00989147
0.0100237
0.0101656
0.0103166
0.0104763
0.0106438
0.010818
0.0109975
0.011181
0.0113667
0.0115527
0.0117372
0.0119181
0.0120933
0.0122609
0.0124188
0.0125653
0.0126984
0.0128167
0.0129186
0.0130032
0.0130693
0.0131163
0.0131437
0.0131513
0.0131391
0.0131076
0.0130572
0.0129889
0.0129039
0.0128036
0.0126898
0.0125643
0.0124294
0.0122871
0.0121397
0.0119892
0.0118377
0.011687
0.0115391
0.0113953
0.011257
0.0111257
0.0110024
0.010888
0.0107833
0.0106886
0.0106043
0.0105302
0.010466
0.0104113
0.0103652
0.010327
0.0102958
0.0102705
0.0102504
0.0102345
0.010222
0.0102124
0.010205
0.0101996
0.0101958
0.00882723
0.00883313
0.00884325
0.00885814
0.00887794
0.00890285
0.00893313
0.0089691
0.00901115
0.00905975
0.00911543
0.00917875
0.00925032
0.00933077
0.00942069
0.00952064
0.00963106
0.00975229
0.00988452
0.0100277
0.0101817
0.0103458
0.0105195
0.0107017
0.0108911
0.0110863
0.0112856
0.011487
0.0116886
0.0118883
0.0120838
0.0122729
0.0124536
0.0126236
0.0127811
0.012924
0.0130509
0.0131603
0.0132509
0.0133217
0.0133721
0.0134015
0.0134097
0.0133967
0.0133628
0.0133084
0.0132344
0.0131419
0.0130323
0.0129074
0.0127693
0.0126202
0.0124626
0.012299
0.0121319
0.0119635
0.0117958
0.0116313
0.0114712
0.0113171
0.0111706
0.0110329
0.010905
0.0107878
0.0106818
0.0105874
0.0105047
0.0104332
0.0103726
0.010322
0.0102804
0.0102469
0.0102202
0.0101993
0.0101832
0.0101708
0.0101614
0.0101542
0.0101489
0.0101451
0.00876762
0.00877353
0.00878344
0.008798
0.00881742
0.00884198
0.00887203
0.008908
0.00895041
0.00899986
0.009057
0.00912256
0.00919726
0.00928185
0.00937703
0.00948341
0.0096015
0.00973166
0.00987403
0.0100285
0.0101949
0.0103724
0.0105602
0.0107572
0.0109619
0.0111726
0.0113875
0.0116045
0.0118213
0.0120357
0.0122454
0.012448
0.0126411
0.0128227
0.0129905
0.0131428
0.0132777
0.013394
0.0134902
0.0135656
0.0136193
0.013651
0.0136603
0.0136473
0.0136121
0.013555
0.0134768
0.0133784
0.013261
0.0131264
0.0129766
0.012814
0.0126414
0.0124617
0.0122776
0.012092
0.0119074
0.0117254
0.0115486
0.0113784
0.0112164
0.011064
0.0109223
0.0107922
0.0106745
0.0105695
0.0104775
0.0103982
0.010331
0.0102751
0.0102296
0.0101931
0.0101645
0.0101425
0.0101257
0.0101131
0.0101037
0.0100966
0.0100913
0.0100874
0.00870031
0.00870623
0.00871594
0.0087302
0.00874928
0.00877356
0.00880346
0.00883955
0.00888246
0.00893293
0.00899175
0.00905977
0.00913784
0.00922683
0.00932751
0.00944058
0.00956656
0.0097058
0.00985843
0.0100243
0.0102029
0.0103937
0.0105954
0.0108068
0.0110263
0.011252
0.0114818
0.0117135
0.0119447
0.012173
0.0123958
0.0126106
0.0128151
0.0130069
0.013184
0.0133443
0.0134861
0.0136081
0.0137091
0.0137882
0.0138447
0.0138785
0.0138892
0.0138769
0.0138418
0.0137839
0.0137039
0.0136021
0.0134797
0.013338
0.0131788
0.0130047
0.0128185
0.0126234
0.0124228
0.01222
0.0120178
0.0118188
0.0116251
0.0114388
0.0112613
0.0110941
0.0109384
0.0107954
0.0106657
0.0105499
0.0104482
0.0103604
0.0102861
0.0102244
0.0101743
0.0101345
0.0101034
0.0100797
0.010062
0.0100488
0.0100391
0.0100319
0.0100265
0.0100224
0.00862496
0.00863089
0.00864042
0.00865441
0.00867321
0.00869726
0.00872712
0.00876343
0.00880697
0.00885859
0.00891924
0.00898987
0.00907147
0.00916498
0.00927127
0.00939107
0.00952492
0.00967317
0.00983586
0.0100128
0.0102034
0.0104067
0.0106217
0.0108467
0.01108
0.0113196
0.0115632
0.0118083
0.0120524
0.0122929
0.0125272
0.0127526
0.0129666
0.0131668
0.0133511
0.0135175
0.0136643
0.0137901
0.013894
0.0139752
0.0140334
0.0140683
0.0140802
0.014069
0.0140351
0.0139786
0.0138995
0.0137981
0.0136746
0.0135301
0.0133658
0.0131838
0.012987
0.0127789
0.0125632
0.012344
0.0121248
0.0119087
0.0116983
0.0114959
0.011303
0.0111212
0.0109518
0.0107958
0.0106542
0.0105274
0.0104158
0.0103193
0.0102375
0.0101696
0.0101144
0.0100706
0.0100366
0.0100108
0.00999168
0.00997764
0.0099674
0.00995987
0.00995423
0.00994997
0.00854125
0.00854718
0.00855655
0.0085703
0.00858887
0.00861277
0.00864264
0.00867926
0.00872352
0.00877639
0.00883894
0.00891225
0.0089974
0.00909542
0.00920723
0.0093336
0.00947507
0.00963193
0.00980419
0.00999151
0.0101932
0.0104083
0.0106354
0.0108728
0.0111185
0.0113704
0.0116259
0.0118826
0.0121376
0.0123882
0.0126317
0.0128652
0.0130863
0.0132924
0.0134813
0.0136511
0.0138002
0.0139273
0.0140316
0.0141125
0.01417
0.0142044
0.0142161
0.0142056
0.0141734
0.0141198
0.0140446
0.0139476
0.0138283
0.0136867
0.0135233
0.0133394
0.0131373
0.0129204
0.0126929
0.0124594
0.0122245
0.0119921
0.0117655
0.0115472
0.0113393
0.0111433
0.0109604
0.0107918
0.0106384
0.0105008
0.0103794
0.0102741
0.0101846
0.01011
0.0100494
0.0100012
0.00996381
0.00993551
0.00991456
0.0098993
0.00988825
0.00988019
0.0098742
0.00986971
0.00844887
0.0084548
0.00846402
0.00847756
0.00849593
0.00851972
0.00854967
0.00858665
0.00863166
0.00868581
0.00875025
0.00882618
0.00891477
0.00901711
0.00913416
0.0092667
0.00941526
0.00958008
0.00976108
0.00995782
0.0101695
0.0103949
0.0106326
0.0108807
0.011137
0.0113991
0.0116644
0.0119302
0.0121935
0.0124515
0.0127013
0.0129401
0.0131652
0.0133742
0.0135649
0.0137352
0.0138837
0.0140091
0.0141108
0.0141884
0.0142424
0.0142733
0.0142823
0.0142705
0.014239
0.0141885
0.0141191
0.01403
0.0139202
0.0137882
0.0136334
0.0134556
0.013256
0.0130373
0.0128036
0.0125601
0.0123122
0.0120653
0.0118235
0.0115901
0.0113677
0.0111579
0.0109622
0.0107815
0.0106168
0.0104687
0.0103376
0.0102235
0.0101262
0.010045
0.00997859
0.00992568
0.00988456
0.00985338
0.00983028
0.00981347
0.00980135
0.00979257
0.00978611
0.00978134
0.00834754
0.00835346
0.00836253
0.00837589
0.00839408
0.00841778
0.00844782
0.00848516
0.0085309
0.00858626
0.00865249
0.00873086
0.00882262
0.0089289
0.00905069
0.00918877
0.00934362
0.00951544
0.00970403
0.00990887
0.010129
0.0103631
0.0106095
0.0108661
0.0111307
0.0114005
0.0116728
0.0119448
0.0122134
0.0124756
0.0127286
0.0129695
0.0131957
0.0134049
0.0135947
0.0137633
0.0139089
0.0140304
0.014127
0.0141986
0.0142458
0.0142698
0.0142723
0.0142553
0.0142211
0.0141714
0.014107
0.0140273
0.0139305
0.0138143
0.0136759
0.0135135
0.0133263
0.0131153
0.0128838
0.0126371
0.0123814
0.0121233
0.0118685
0.0116215
0.0113855
0.0111628
0.0109548
0.0107627
0.0105873
0.0104292
0.0102889
0.0101664
0.0100615
0.00997346
0.00990126
0.00984345
0.00979831
0.00976396
0.00973842
0.0097198
0.00970637
0.00969669
0.00968965
0.00968457
0.008237
0.0082429
0.00825183
0.00826499
0.008283
0.00830661
0.0083367
0.00837434
0.00842072
0.00847713
0.00854491
0.00862539
0.00871988
0.00882954
0.00895537
0.0090981
0.0092582
0.00943577
0.00963053
0.00984183
0.0100686
0.0103093
0.0105622
0.0108249
0.011095
0.0113696
0.0116458
0.0119207
0.0121912
0.0124543
0.0127074
0.0129477
0.0131729
0.0133806
0.0135687
0.0137351
0.013878
0.0139955
0.0140868
0.0141514
0.0141898
0.0142035
0.0141949
0.0141673
0.014124
0.0140688
0.0140043
0.0139308
0.0138469
0.0137491
0.0136331
0.0134944
0.0133299
0.0131378
0.0129195
0.0126791
0.0124231
0.0121595
0.0118956
0.0116374
0.0113897
0.0111552
0.010936
0.0107333
0.010548
0.0103807
0.0102318
0.0101013
0.00998906
0.00989448
0.00981651
0.00975374
0.00970446
0.00966673
0.00963853
0.00961788
0.00960296
0.00959223
0.00958452
0.00957911
0.00811705
0.0081229
0.00813167
0.00814462
0.00816243
0.00818588
0.00821595
0.00825377
0.00830059
0.00835779
0.00842675
0.00850888
0.00860549
0.00871777
0.0088467
0.00899299
0.00915703
0.00933886
0.00953811
0.00975398
0.00998526
0.0102303
0.010487
0.0107531
0.0110257
0.0113019
0.0115786
0.011853
0.012122
0.0123831
0.0126339
0.0128722
0.0130961
0.0133036
0.0134924
0.0136603
0.0138046
0.0139228
0.0140125
0.0140725
0.0141027
0.0141044
0.0140806
0.0140355
0.0139742
0.0139028
0.0138271
0.0137502
0.0136722
0.0135895
0.0134962
0.0133857
0.0132516
0.013089
0.0128955
0.0126729
0.0124268
0.0121656
0.0118984
0.0116332
0.0113764
0.0111321
0.0109032
0.0106911
0.0104969
0.0103213
0.0101645
0.0100267
0.00990767
0.00980689
0.00972336
0.00965573
0.0096023
0.00956112
0.00953014
0.00950731
0.00949077
0.00947888
0.00947044
0.00946467
0.00798755
0.00799332
0.0080019
0.0080146
0.00803213
0.00805533
0.00808524
0.00812302
0.00817001
0.00822761
0.00829727
0.00838042
0.00847838
0.00859233
0.00872324
0.00887176
0.00903825
0.00922263
0.00942445
0.00964278
0.00987626
0.0101231
0.0103809
0.0106473
0.0109191
0.0111935
0.0114675
0.0117378
0.0120026
0.0122596
0.0125075
0.0127449
0.0129708
0.0131835
0.0133809
0.0135599
0.0137164
0.0138459
0.0139438
0.0140068
0.0140333
0.0140239
0.013982
0.0139126
0.0138224
0.0137202
0.0136162
0.0135185
0.0134306
0.0133509
0.0132728
0.0131876
0.0130857
0.0129586
0.0127996
0.0126061
0.0123811
0.0121322
0.0118696
0.0116032
0.0113414
0.0110902
0.0108535
0.0106336
0.0104319
0.010249
0.0100854
0.00994107
0.00981597
0.00970952
0.00962083
0.00954859
0.00949113
0.00944654
0.00941274
0.00938769
0.00936944
0.00935634
0.00934712
0.009341
0.0078484
0.00785406