/*--------------------------------*- C++ -*----------------------------------*\
| =========                 |                                                 |
| \\      /  F ield         | OpenFOAM: The Open Source CFD Toolbox           |
|  \\    /   O peration     | Version:  2412                                  |
|   \\  /    A nd           | Website:  www.openfoam.com                      |
|    \\/     M anipulation  |                                                 |
\*---------------------------------------------------------------------------*/
FoamFile
{
    version     2.0;
    format      ascii;
    arch        "LSB;label=32;scalar=64";
    class       surfaceScalarField;
    location    "8.85";
    object      phi;
}
// * * * * * * * * * * * * * * * * * * * * * * * * * * * * * * * * * * * * * //

dimensions      [0 3 -1 0 0 0 0];

oriented        oriented;

internalField   nonuniform List<scalar> 
12640
(
6.26582e-09
-4.15641e-09
1.37847e-08
-8.71484e-09
2.12751e-08
-7.28173e-09
2.55311e-08
-3.30083e-09
2.40166e-08
1.74058e-09
1.67302e-08
7.59228e-09
3.46121e-09
1.36946e-08
-1.59957e-08
1.95519e-08
-4.13911e-08
2.49553e-08
-7.20899e-08
2.99046e-08
-1.07356e-07
3.44082e-08
-1.46533e-07
3.84753e-08
-1.89065e-07
4.20468e-08
-2.34453e-07
4.51139e-08
-2.82192e-07
4.76135e-08
-3.31754e-07
4.95578e-08
-3.82569e-07
5.08521e-08
-4.3401e-07
5.14984e-08
-4.85356e-07
5.13516e-08
-5.35778e-07
5.04207e-08
-5.84326e-07
4.85238e-08
-6.29961e-07
4.57043e-08
-6.71562e-07
4.17588e-08
-7.07959e-07
3.67933e-08
-7.37948e-07
3.05965e-08
-7.60331e-07
2.33585e-08
-7.73957e-07
1.48755e-08
-7.77775e-07
5.45307e-09
-7.7089e-07
-5.06968e-09
-7.52611e-07
-1.62372e-08
-7.22504e-07
-2.81387e-08
-6.80405e-07
-4.01657e-08
-6.26477e-07
-5.23381e-08
-5.61182e-07
-6.39368e-08
-4.8535e-07
-7.49534e-08
-4.001e-07
-8.46481e-08
-3.06911e-07
-9.30542e-08
-2.07483e-07
-9.95173e-08
-1.03795e-07
-1.04169e-07
2.08893e-09
-1.06514e-07
1.0795e-07
-1.06795e-07
2.11654e-07
-1.04704e-07
3.11041e-07
-1.00586e-07
4.04197e-07
-9.43277e-08
4.89306e-07
-8.63552e-08
5.64929e-07
-7.67404e-08
6.29833e-07
-6.59602e-08
6.83246e-07
-5.42348e-08
7.24645e-07
-4.20447e-08
7.53964e-07
-2.96737e-08
7.71353e-07
-1.75196e-08
7.77355e-07
-5.83646e-09
7.72659e-07
5.10541e-09
7.58248e-07
1.51195e-08
7.35156e-07
2.40595e-08
7.04581e-07
3.18126e-08
6.6767e-07
3.83361e-08
6.25617e-07
4.35906e-08
5.79515e-07
4.76244e-08
5.30467e-07
5.04732e-08
4.79482e-07
5.2257e-08
4.27557e-07
5.30632e-08
3.75571e-07
5.30337e-08
3.24327e-07
5.22498e-08
2.74479e-07
5.08119e-08
2.26596e-07
4.87513e-08
1.81162e-07
4.61097e-08
1.38682e-07
4.28828e-08
9.96906e-08
3.90906e-08
6.47941e-08
3.47365e-08
3.46208e-08
2.98564e-08
9.78653e-09
2.44885e-08
-9.18726e-09
1.87151e-08
-2.19325e-08
1.26612e-08
-2.83403e-08
6.54271e-09
-2.86829e-08
6.8363e-10
-2.37922e-08
-4.43941e-09
-1.52413e-08
-8.1405e-09
-5.71994e-09
-9.10983e-09
-5.12496e-09
9.45812e-09
-1.41346e-08
2.36175e-08
-2.1598e-08
3.29932e-08
-1.56929e-08
3.32131e-08
-2.2612e-09
2.00463e-08
1.55045e-08
-7.70759e-09
3.56754e-08
-5.06927e-08
5.6619e-08
-1.09057e-07
7.71756e-08
-1.82141e-07
9.67106e-08
-2.68661e-07
1.14866e-07
-3.67131e-07
1.31431e-07
-4.76057e-07
1.46223e-07
-5.94035e-07
1.59146e-07
-7.19649e-07
1.7008e-07
-8.51471e-07
1.78961e-07
-9.87936e-07
1.85618e-07
-1.12741e-06
1.89923e-07
-1.26801e-06
1.91599e-07
-1.40771e-06
1.90461e-07
-1.54414e-06
1.86156e-07
-1.67476e-06
1.785e-07
-1.79667e-06
1.67109e-07
-1.90696e-06
1.51873e-07
-2.00243e-06
1.32445e-07
-2.07999e-06
1.08873e-07
-2.13644e-06
8.09319e-08
-2.16885e-06
4.89398e-08
-2.1744e-06
1.29175e-08
-2.15082e-06
-2.64171e-08
-2.09624e-06
-6.86912e-08
-2.00954e-06
-1.12725e-07
-1.89029e-06
-1.57786e-07
-1.73896e-06
-2.02311e-07
-1.55684e-06
-2.45349e-07
-1.34623e-06
-2.85177e-07
-1.11022e-06
-3.20881e-07
-8.52793e-07
-3.50894e-07
-5.78623e-07
-3.74599e-07
-2.929e-07
-3.9084e-07
-1.31339e-09
-3.99446e-07
2.90406e-07
-3.99789e-07
5.76322e-07
-3.92182e-07
8.50925e-07
-3.76565e-07
1.1088e-06
-3.53721e-07
1.34538e-06
-3.24139e-07
1.55645e-06
-2.8901e-07
1.73899e-06
-2.49278e-07
1.89051e-06
-2.06385e-07
2.00986e-06
-1.61525e-07
2.0964e-06
-1.16132e-07
2.15076e-06
-7.13313e-08
2.17395e-06
-2.82733e-08
2.16801e-06
1.21918e-08
2.13513e-06
4.92952e-08
2.07826e-06
8.25076e-08
2.00025e-06
1.11434e-07
1.90437e-06
1.35874e-07
1.79364e-06
1.55792e-07
1.67125e-06
1.713e-07
1.54005e-06
1.82642e-07
1.40293e-06
1.90119e-07
1.26243e-06
1.94087e-07
1.12102e-06
1.94871e-07
9.80793e-07
1.92786e-07
8.43689e-07
1.88083e-07
7.11343e-07
1.80984e-07
5.8533e-07
1.7165e-07
4.67087e-07
1.6022e-07
3.58124e-07
1.46795e-07
2.59912e-07
1.31476e-07
1.73946e-07
1.14368e-07
1.0157e-07
9.5634e-08
4.3926e-08
7.55385e-08
1.73664e-09
5.45342e-08
-2.48726e-08
3.33394e-08
-3.66807e-08
1.30413e-08
-3.56317e-08
-4.80429e-09
-2.5123e-08
-1.79787e-08
-1.01426e-08
-2.29784e-08
-1.43871e-08
9.73465e-09
-2.28516e-08
2.0981e-08
-3.18015e-08
2.3157e-08
-1.69741e-08
1.06626e-08
1.13578e-08
-2.13628e-08
4.79148e-08
-7.47864e-08
8.91349e-08
-1.50437e-07
1.31981e-07
-2.48364e-07
1.74304e-07
-3.6763e-07
2.14737e-07
-5.0661e-07
2.52429e-07
-6.63284e-07
2.86797e-07
-8.35573e-07
3.1747e-07
-1.02131e-06
3.44157e-07
-1.21837e-06
3.66655e-07
-1.42442e-06
3.84685e-07
-1.63708e-06
3.97971e-07
-1.85361e-06
4.06079e-07
-2.07116e-06
4.08597e-07
-2.28637e-06
4.04945e-07
-2.49572e-06
3.94635e-07
-2.69508e-06
3.76998e-07
-2.88027e-06
3.51575e-07
-3.04659e-06
3.17737e-07
-3.18949e-06
2.75222e-07
-3.30401e-06
2.23632e-07
-3.38564e-06
1.63132e-07
-3.42967e-06
9.37906e-08
-3.4322e-06
1.64541e-08
-3.38949e-06
-6.81052e-08
-3.29903e-06
-1.58168e-07
-3.15886e-06
-2.52153e-07
-2.96862e-06
-3.47492e-07
-2.72881e-06
-4.41958e-07
-2.44174e-06
-5.32462e-07
-2.11072e-06
-6.16577e-07
-1.74077e-06
-6.91262e-07
-1.33789e-06
-7.54464e-07
-9.09334e-07
-8.03764e-07
-4.63074e-07
-8.37923e-07
-7.71624e-09
-8.55489e-07
4.47816e-07
-8.5623e-07
8.94699e-07
-8.39796e-07
1.32419e-06
-8.07001e-07
1.72838e-06
-7.5862e-07
2.09983e-06
-6.9646e-07
2.43255e-06
-6.22305e-07
2.72131e-06
-5.38731e-07
2.9628e-06
-4.48207e-07
3.15457e-06
-3.53654e-07
3.29619e-06
-2.57694e-07
3.38791e-06
-1.62992e-07
3.43176e-06
-7.17356e-08
3.43014e-06
1.4106e-08
3.38684e-06
9.30543e-08
3.3057e-06
1.63932e-07
3.19151e-06
2.25989e-07
3.04876e-06
2.78792e-07
2.88249e-06
3.22256e-07
2.6972e-06
3.56579e-07
2.49762e-06
3.8218e-07
2.28787e-06
3.99642e-07
2.0721e-06
4.09611e-07
1.85384e-06
4.12756e-07
1.63654e-06
4.09693e-07
1.42309e-06
4.00985e-07
1.21627e-06
3.87099e-07
1.01848e-06
3.68437e-07
8.32135e-07
3.45315e-07
6.59433e-07
3.18004e-07
5.02626e-07
2.86735e-07
3.63774e-07
2.51774e-07
2.44801e-07
2.1348e-07
1.47224e-07
1.72438e-07
7.20396e-08
1.29589e-07
1.93508e-08
8.63929e-08
-1.18735e-08
4.49873e-08
-2.41047e-08
8.34058e-09
-2.13613e-08
-1.95951e-08
-9.82179e-09
-3.3118e-08
-2.30306e-08
6.79869e-09
-2.848e-08
9.6239e-09
-3.31209e-08
-2.11211e-09
-4.10388e-09
-3.38016e-08
4.45442e-08
-9.05e-08
1.0538e-07
-1.74141e-07
1.73135e-07
-2.85427e-07
2.43319e-07
-4.24117e-07
3.12628e-07
-5.89038e-07
3.78864e-07
-7.78196e-07
4.40566e-07
-9.8921e-07
4.96767e-07
-1.21941e-06
5.46783e-07
-1.46614e-06
5.90148e-07
-1.72652e-06
6.26421e-07
-1.99766e-06
6.55185e-07
-2.27626e-06
6.7586e-07
-2.55892e-06
6.87823e-07
-2.84166e-06
6.90241e-07
-3.12035e-06
6.82299e-07
-3.39011e-06
6.62981e-07
-3.64598e-06
6.31409e-07
-3.88224e-06
5.86542e-07
-4.09329e-06
5.2767e-07
-4.27291e-06
4.54007e-07
-4.41527e-06
3.65358e-07
-4.51412e-06
2.61567e-07
-4.56402e-06
1.43364e-07
-4.55943e-06
1.16289e-08
-4.49617e-06
-1.31609e-07
-4.37041e-06
-2.84154e-07
-4.18028e-06
-4.42543e-07
-3.92472e-06
-6.0332e-07
-3.605e-06
-7.61883e-07
-3.22358e-06
-9.14038e-07
-2.78533e-06
-1.0548e-06
-2.29637e-06
-1.18011e-06
-1.76486e-06
-1.28559e-06
-1.19999e-06
-1.36823e-06
-6.1222e-07
-1.42499e-06
-1.26592e-08
-1.45443e-06
5.87232e-07
-1.45525e-06
1.17585e-06
-1.42775e-06
1.74219e-06
-1.37245e-06
2.27559e-06
-1.29141e-06
2.76689e-06
-1.18695e-06
3.20771e-06
-1.06264e-06
3.59192e-06
-9.22261e-07
3.9144e-06
-7.70379e-07
4.17273e-06
-6.1146e-07
4.36547e-06
-4.5022e-07
4.49375e-06
-2.90847e-07
4.55926e-06
-1.37226e-07
4.56586e-06
7.53195e-09
4.51753e-06
1.40852e-07
4.41988e-06
2.609e-07
4.27827e-06
3.66393e-07
4.09911e-06
4.56663e-07
3.88824e-06
5.31525e-07
3.65201e-06
5.91257e-07
3.39598e-06
6.3649e-07
3.12593e-06
6.68105e-07
2.84674e-06
6.87132e-07
2.56336e-06
6.94632e-07
2.27991e-06
6.91632e-07
2.00046e-06
6.79059e-07
1.72841e-06
6.57725e-07
1.46715e-06
6.28306e-07
1.21961e-06
5.91367e-07
9.88786e-07
5.47375e-07
7.77378e-07
4.96758e-07
5.88045e-07
4.39982e-07
4.2309e-07
3.77686e-07
2.84476e-07
3.10844e-07
1.73439e-07
2.40979e-07
9.02871e-08
1.70377e-07
3.3998e-08
1.02341e-07
2.13482e-09
4.13859e-08
-9.27266e-09
-6.66254e-09
-6.54013e-09
-3.39571e-08
-2.80614e-08
2.18915e-09
-2.90157e-08
-7.07228e-09
-2.19044e-08
-3.72247e-08
2.74215e-08
-9.27534e-08
1.01898e-07
-1.78362e-07
1.92013e-07
-2.95651e-07
2.90866e-07
-4.44795e-07
3.92532e-07
-6.25121e-07
4.92573e-07
-8.35012e-07
5.87925e-07
-1.07218e-06
6.76542e-07
-1.33377e-06
7.57028e-07
-1.61678e-06
8.28436e-07
-1.91793e-06
8.90025e-07
-2.23399e-06
9.41173e-07
-2.56135e-06
9.81169e-07
-2.8963e-06
1.00923e-06
-3.23452e-06
1.02432e-06
-3.57159e-06
1.02534e-06
-3.90224e-06
1.01094e-06
-4.22113e-06
9.7977e-07
-4.522e-06
9.30332e-07
-4.79865e-06
8.61347e-07
-5.04401e-06
7.71482e-07
-5.2514e-06
6.59958e-07
-5.4134e-06
5.26129e-07
-5.52338e-06
3.70283e-07
-5.57423e-06
1.9305e-07
-5.56021e-06
-3.6369e-09
-5.47556e-06
-2.17367e-07
-5.31658e-06
-4.44187e-07
-5.08015e-06
-6.79734e-07
-4.76586e-06
-9.18127e-07
-4.37438e-06
-1.15345e-06
-3.90945e-06
-1.37864e-06
-3.37619e-06
-1.58728e-06
-2.78258e-06
-1.77245e-06
-2.13787e-06
-1.92864e-06
-1.45349e-06
-2.05047e-06
-7.41678e-07
-2.13445e-06
-1.57996e-08
-2.17753e-06
7.10429e-07
-2.17872e-06
1.42337e-06
-2.1376e-06
2.10952e-06
-2.05574e-06
2.75664e-06
-1.93542e-06
3.35311e-06
-1.78069e-06
3.88966e-06
-1.5963e-06
4.35805e-06
-1.3883e-06
4.7531e-06
-1.16304e-06
5.07087e-06
-9.27491e-07
5.31072e-06
-6.88295e-07
5.47291e-06
-4.51915e-07
5.5606e-06
-2.23882e-07
5.57724e-06
-8.94395e-09
5.52855e-06
1.89272e-07
5.42009e-06
3.68031e-07
5.25907e-06
5.25581e-07
5.05211e-06
6.6094e-07
4.80685e-06
7.73871e-07
4.53002e-06
8.64733e-07
4.22886e-06
9.34384e-07
3.90951e-06
9.84045e-07
3.57831e-06
1.01516e-06
3.24053e-06
1.02925e-06
2.9015e-06
1.02779e-06
2.56565e-06
1.01217e-06
2.23734e-06
9.83566e-07
1.92032e-06
9.4299e-07
1.61829e-06
8.91274e-07
1.33458e-06
8.29125e-07
1.07249e-06
7.57181e-07
8.34995e-07
6.76149e-07
6.24919e-07
5.86963e-07
4.44559e-07
4.91012e-07
2.95628e-07
3.90405e-07
1.78773e-07
2.88259e-07
9.34335e-08
1.89025e-07
3.76169e-08
9.87375e-08
7.89546e-09
2.50211e-08
-1.5585e-09
-2.22865e-08
-2.80943e-08
-2.96408e-09
-2.35926e-08
-2.66196e-08
3.55687e-09
-7.79941e-08
7.99206e-08
-1.60405e-07
1.85909e-07
-2.77788e-07
3.10056e-07
-4.30943e-07
4.43934e-07
-6.19287e-07
5.80309e-07
-8.41393e-07
7.13674e-07
-1.09517e-06
8.40193e-07
-1.37782e-06
9.57264e-07
-1.68619e-06
1.06316e-06
-2.01678e-06
1.15668e-06
-2.36607e-06
1.23689e-06
-2.73025e-06
1.3029e-06
-3.1055e-06
1.35381e-06
-3.48741e-06
1.38846e-06
-3.87146e-06
1.40555e-06
-4.25234e-06
1.40344e-06
-4.62461e-06
1.38043e-06
-4.98185e-06
1.33452e-06
-5.31769e-06
1.26385e-06
-5.62467e-06
1.16644e-06
-5.89567e-06
1.04078e-06
-6.12256e-06
8.85511e-07
-6.29796e-06
7.00176e-07
-6.41359e-06
4.84777e-07
-6.46248e-06
2.4071e-07
-6.43714e-06
-2.99229e-08
-6.33214e-06
-3.23234e-07
-6.14213e-06
-6.34542e-07
-5.86463e-06
-9.57229e-07
-5.49793e-06
-1.28411e-06
-5.04385e-06
-1.60629e-06
-4.5055e-06
-1.91502e-06
-3.88966e-06
-2.20056e-06
-3.20458e-06
-2.45436e-06
-2.46158e-06
-2.6679e-06
-1.67311e-06
-2.83478e-06
-8.5357e-07
-2.94932e-06
-1.79529e-08
-3.0083e-06
8.18128e-07
-3.00952e-06
1.63895e-06
-2.95325e-06
2.42953e-06
-2.84086e-06
3.17528e-06
-2.6761e-06
3.86371e-06
-2.46388e-06
4.48328e-06
-2.21123e-06
5.02567e-06
-1.92604e-06
5.48382e-06
-1.61742e-06
5.85453e-06
-1.2946e-06
6.13582e-06
-9.66955e-07
6.32949e-06
-6.43069e-07
6.43788e-06
-3.30676e-07
6.46629e-06
-3.60753e-08
6.4199e-06
2.35725e-07
6.30615e-06
4.81161e-07
6.13186e-06
6.97883e-07
5.90547e-06
8.84679e-07
5.63442e-06
1.04127e-06
5.32712e-06
1.16814e-06
4.99076e-06
1.26643e-06
4.63293e-06
1.33772e-06
4.25998e-06
1.38391e-06
3.87837e-06
1.40699e-06
3.49347e-06
1.40896e-06
3.11067e-06
1.39164e-06
2.73444e-06
1.35665e-06
2.3693e-06
1.30536e-06
2.0191e-06
1.23892e-06
1.68778e-06
1.15826e-06
1.37883e-06
1.06425e-06
1.09576e-06
9.57805e-07
8.41684e-07
8.40127e-07
6.19483e-07
7.12964e-07
4.31325e-07
5.78945e-07
2.78576e-07
4.41938e-07
1.61393e-07
3.07452e-07
7.8716e-08
1.82927e-07
2.79568e-08
7.76426e-08
4.26736e-09
3.24556e-09
-2.28583e-08
-8.53067e-09
-1.27324e-08
-4.7842e-08
4.33038e-08
-1.22143e-07
1.54107e-07
-2.33472e-07
2.97654e-07
-3.84499e-07
4.60584e-07
-5.74921e-07
6.33077e-07
-8.03022e-07
8.06732e-07
-1.06652e-06
9.75156e-07
-1.36256e-06
1.13386e-06
-1.68789e-06
1.27984e-06
-2.03887e-06
1.41112e-06
-2.4118e-06
1.52638e-06
-2.80269e-06
1.62451e-06
-3.20766e-06
1.70451e-06
-3.62234e-06
1.76514e-06
-4.04233e-06
1.80503e-06
-4.46244e-06
1.8224e-06
-4.87742e-06
1.81525e-06
-5.28099e-06
1.78124e-06
-5.66692e-06
1.71797e-06
-6.02781e-06
1.62283e-06
-6.35648e-06
1.49352e-06
-6.6446e-06
1.32784e-06
-6.88441e-06
1.12439e-06
-7.06703e-06
8.82246e-07
-7.1847e-06
6.01859e-07
-7.22868e-06
2.84518e-07
-7.19211e-06
-6.65667e-08
-7.06766e-06
-4.47104e-07
-6.85073e-06
-8.50511e-07
-6.53703e-06
-1.26912e-06
-6.12588e-06
-1.69294e-06
-5.61765e-06
-2.11136e-06
-5.01694e-06
-2.51207e-06
-4.3299e-06
-2.88325e-06
-3.56672e-06
-3.21273e-06
-2.73901e-06
-3.49032e-06
-1.86134e-06
-3.70673e-06
-9.49114e-07
-3.8556e-06
-1.92141e-08
-3.9319e-06
9.11167e-07
-3.93368e-06
1.82488e-06
-3.86048e-06
2.70488e-06
-3.71481e-06
3.53569e-06
-3.50078e-06
4.30252e-06
-3.22532e-06
4.99369e-06
-2.89701e-06
5.59877e-06
-2.52665e-06
6.11146e-06
-2.12584e-06
6.52686e-06
-1.70695e-06
6.84456e-06
-1.2819e-06
7.06517e-06
-8.6196e-07
7.19313e-06
-4.56914e-07
7.23285e-06
-7.49502e-08
7.19159e-06
2.77631e-07
7.07598e-06
5.96264e-07
6.89473e-06
8.78055e-07
6.6555e-06
1.12154e-06
6.36743e-06
1.32644e-06
6.03833e-06
1.49347e-06
5.67685e-06
1.62407e-06
5.29018e-06
1.72025e-06
4.88587e-06
1.78435e-06
4.4701e-06
1.81891e-06
4.04916e-06
1.82639e-06
3.62825e-06
1.80915e-06
3.21261e-06
1.76924e-06
2.80665e-06
1.70844e-06
2.41485e-06
1.62819e-06
2.04112e-06
1.52968e-06
1.68949e-06
1.41397e-06
1.36363e-06
1.28212e-06
1.06721e-06
1.1355e-06
8.0354e-07
9.76111e-07
5.75572e-07
8.06947e-07
3.85484e-07
6.32477e-07
2.34603e-07
4.59102e-07
1.23039e-07
2.95489e-07
4.94492e-08
1.52431e-07
1.02509e-08
4.32762e-08
-1.23047e-08
-1.45696e-08
3.07581e-09
-7.01098e-08
9.74014e-08
-1.68441e-07
2.50675e-07
-3.10064e-07
4.38169e-07
-4.96012e-07
6.44646e-07
-7.24427e-07
8.58995e-07
-9.92311e-07
1.07187e-06
-1.29621e-06
1.27621e-06
-1.63249e-06
1.46715e-06
-1.99719e-06
1.64145e-06
-2.38639e-06
1.79708e-06
-2.79594e-06
1.93267e-06
-3.22189e-06
2.04713e-06
-3.65993e-06
2.13928e-06
-4.10584e-06
2.20778e-06
-4.55473e-06
2.25085e-06
-5.00167e-06
2.26642e-06
-5.44078e-06
2.2519e-06
-5.86622e-06
2.20454e-06
-6.27094e-06
2.12119e-06
-6.64813e-06
1.99887e-06
-6.9896e-06
1.83452e-06
-7.28775e-06
1.62572e-06
-7.53353e-06
1.37045e-06
-7.71893e-06
1.06795e-06
-7.83457e-06
7.18308e-07
-7.87269e-06
3.23526e-07
-7.8245e-06
-1.13167e-07
-7.68368e-06
-5.8606e-07
-7.44348e-06
-1.08796e-06
-7.10063e-06
-1.60886e-06
-6.65231e-06
-2.13733e-06
-6.10016e-06
-2.65932e-06
-5.44718e-06
-3.16025e-06
-4.70129e-06
-3.62418e-06
-3.87209e-06
-4.03657e-06
-2.97338e-06
-4.38353e-06
-2.02005e-06
-4.65441e-06
-1.02954e-06
-4.84034e-06
-1.97627e-08
-4.93609e-06
9.90561e-07
-4.93839e-06
1.98265e-06
-4.84748e-06
2.93855e-06
-4.66569e-06
3.84062e-06
-4.39873e-06
4.67378e-06
-4.05456e-06
5.42402e-06
-3.64442e-06
6.08167e-06
-3.18155e-06
6.63848e-06
-2.68111e-06
7.09127e-06
-2.1585e-06
7.4381e-06
-1.62886e-06
7.68194e-06
-1.10599e-06
7.82603e-06
-6.01988e-07
7.87726e-06
-1.26747e-07
7.84173e-06
3.12052e-07
7.72824e-06
7.08917e-07
7.54429e-06
1.06039e-06
7.29933e-06
1.36474e-06
7.00132e-06
1.62178e-06
6.65956e-06
1.8324e-06
6.28175e-06
1.99848e-06
5.87631e-06
2.12244e-06
5.45005e-06
2.20718e-06
5.01012e-06
2.25572e-06
4.56228e-06
2.2711e-06
4.11247e-06
2.25614e-06
3.66554e-06
2.21339e-06
3.2265e-06
2.14502e-06
2.79957e-06
2.05279e-06
2.38916e-06
1.93812e-06
1.99922e-06
1.80218e-06
1.63392e-06
1.6461e-06
1.29719e-06
1.47128e-06
9.93047e-07
1.27975e-06
7.25181e-07
1.0747e-06
4.96976e-07
8.60935e-07
3.11079e-07
6.45507e-07
1.69211e-07
4.38087e-07
7.14846e-08
2.5085e-07
1.60367e-08
9.88975e-08
4.16725e-09
-2.09689e-08
2.40308e-08
-9.31175e-08
1.6672e-07
-2.16318e-07
3.7103e-07
-3.89372e-07
6.09095e-07
-6.11122e-07
8.6373e-07
-8.77893e-07
1.12266e-06
-1.18502e-06
1.37585e-06
-1.52787e-06
1.61595e-06
-1.90174e-06
1.83802e-06
-2.30214e-06
2.03896e-06
-2.72457e-06
2.21683e-06
-3.16488e-06
2.37041e-06
-3.61879e-06
2.49864e-06
-4.08225e-06
2.60039e-06
-4.55071e-06
2.6741e-06
-5.01968e-06
2.7178e-06
-5.4838e-06
2.72893e-06
-5.93777e-06
2.70457e-06
-6.37517e-06
2.64127e-06
-6.78978e-06
2.53547e-06
-7.17396e-06
2.38342e-06
-7.52058e-06
2.18175e-06
-7.82097e-06
1.92733e-06
-8.06732e-06
1.61809e-06
-8.25022e-06
1.2527e-06
-8.36167e-06
8.31626e-07
-8.39213e-06
3.56536e-07
-8.33421e-06
-1.68421e-07
-8.17935e-06
-7.37457e-07
-7.92206e-06
-1.34168e-06
-7.55641e-06
-1.97023e-06
-7.08071e-06
-2.60881e-06
-6.49398e-06
-3.24139e-06
-5.80068e-06
-3.84914e-06
-5.00702e-06
-4.41323e-06
-4.12476e-06
-4.91446e-06
-3.16727e-06
-5.33665e-06
-2.15175e-06
-5.66578e-06
-1.09606e-06
-5.89217e-06
-1.99128e-08
-6.00864e-06
1.0568e-06
-6.01215e-06
2.1142e-06
-5.90218e-06
3.13249e-06
-5.68218e-06
4.09365e-06
-5.35832e-06
4.98014e-06
-4.94072e-06
5.77843e-06
-4.44257e-06
6.47658e-06
-3.88067e-06
7.06824e-06
-3.27368e-06
7.54855e-06
-2.64101e-06
7.91832e-06
-2.00104e-06
8.17908e-06
-1.37041e-06
8.33704e-06
-7.63287e-07
8.39762e-06
-1.91189e-07
8.36952e-06
3.37059e-07
8.25997e-06
8.15196e-07
8.07854e-06
1.23924e-06
7.83303e-06
1.60732e-06
7.53299e-06
1.91922e-06
7.18618e-06
2.17615e-06
6.80152e-06
2.3803e-06
6.3862e-06
2.53465e-06
5.948e-06
2.64259e-06
5.4931e-06
2.70773e-06
5.02804e-06
2.73363e-06
4.55803e-06
2.72366e-06
4.08851e-06
2.68081e-06
3.62396e-06
2.60765e-06
3.16904e-06
2.50623e-06
2.72781e-06
2.37814e-06
2.30461e-06
2.22459e-06
1.90357e-06
2.04664e-06
1.5292e-06
1.84555e-06
1.186e-06
1.62319e-06
8.78718e-07
1.38258e-06
6.11944e-07
1.12858e-06
3.90092e-07
8.68538e-07
2.16701e-07
6.12839e-07
9.38537e-08
3.74948e-07
2.17364e-08
1.71831e-07
2.76053e-08
-2.76234e-08
5.08888e-08
-1.16861e-07
2.52881e-07
-2.65952e-07
5.17322e-07
-4.71605e-07
8.12691e-07
-7.30027e-07
1.11975e-06
-1.03521e-06
1.42519e-06
-1.38072e-06
1.7187e-06
-1.76041e-06
1.99308e-06
-2.16874e-06
2.24388e-06
-2.60042e-06
2.46843e-06
-3.05076e-06
2.66524e-06
-3.51527e-06
2.83336e-06
-3.98996e-06
2.97195e-06
-4.47059e-06
3.07986e-06
-4.95312e-06
3.15553e-06
-5.43279e-06
3.19667e-06
-5.90495e-06
3.20046e-06
-6.3639e-06
3.16342e-06
-6.8042e-06
3.08171e-06
-7.21901e-06
2.95106e-06
-7.60199e-06
2.76736e-06
-7.94517e-06
2.5265e-06
-8.2414e-06
2.22519e-06
-8.48175e-06
1.86067e-06
-8.6586e-06
1.43174e-06
-8.76243e-06
9.38302e-07
-8.78562e-06
3.82527e-07
-8.7187e-06
-2.31823e-07
-8.55483e-06
-8.97919e-07
-8.2857e-06
-1.6068e-06
-7.90664e-06
-2.34562e-06
-7.41251e-06
-3.09893e-06
-6.80337e-06
-3.84706e-06
-6.08055e-06
-4.56839e-06
-5.25205e-06
-5.23877e-06
-4.32811e-06
-5.83552e-06
-3.32469e-06
-6.3377e-06
-2.25877e-06
-6.72958e-06
-1.15045e-06
-6.99874e-06
-2.00556e-08
-7.13777e-06
1.11096e-06
-7.14219e-06
2.22116e-06
-7.01214e-06
3.29013e-06
-6.75093e-06
4.29758e-06
-6.36643e-06
5.22617e-06
-5.87e-06
6.05961e-06
-5.27785e-06
6.78755e-06
-4.61019e-06
7.40181e-06
-3.8904e-06
7.90085e-06
-3.14221e-06
8.28414e-06
-2.38783e-06
8.55682e-06
-1.64664e-06
8.72358e-06
-9.34733e-07
8.79295e-06
-2.64862e-07
8.77171e-06
3.53419e-07
8.6695e-06
9.13308e-07
8.49384e-06
1.41064e-06
8.25432e-06
1.84338e-06
7.95842e-06
2.21146e-06
7.61522e-06
2.51624e-06
7.23183e-06
2.76035e-06
6.8164e-06
2.94717e-06
6.37526e-06
3.08067e-06
5.91536e-06
3.16497e-06
5.44211e-06
3.20422e-06
4.96133e-06
3.20228e-06
4.47763e-06
3.16262e-06
3.99589e-06
3.08815e-06
3.52013e-06
2.98117e-06
3.0547e-06
2.84336e-06
2.60359e-06
2.67588e-06
2.17129e-06
2.47959e-06
1.76239e-06
2.2554e-06
1.38218e-06
2.00471e-06
1.03625e-06
1.73008e-06
7.30775e-07
1.43594e-06
4.72017e-07
1.12948e-06
2.65919e-07
8.21436e-07
1.16923e-07
5.26383e-07
2.79058e-08
2.63262e-07
5.82977e-08
-3.45136e-08
8.46145e-08
-1.4179e-07
3.57974e-07
-3.18296e-07
6.92228e-07
-5.58194e-07
1.0516e-06
-8.543e-07
1.41468e-06
-1.19795e-06
1.76746e-06
-1.5805e-06
2.09987e-06
-1.99446e-06
2.40556e-06
-2.43324e-06
2.68107e-06
-2.89121e-06
2.92474e-06
-3.36327e-06
3.13582e-06
-3.84515e-06
3.31388e-06
-4.33272e-06
3.45835e-06
-4.82232e-06
3.56825e-06
-5.30978e-06
3.64188e-06
-5.79115e-06
3.67686e-06
-6.26152e-06
3.66994e-06
-6.71628e-06
3.61734e-06
-7.14955e-06
3.51458e-06
-7.55591e-06
3.35708e-06
-7.92838e-06
3.14001e-06
-8.26075e-06
2.85905e-06
-8.54501e-06
2.51019e-06
-8.77435e-06
2.09069e-06
-8.93996e-06
1.59869e-06
-9.03473e-06
1.03431e-06
-9.04934e-06
3.99076e-07
-8.97672e-06
-3.02717e-07
-8.80744e-06
-1.06484e-06
-8.53501e-06
-1.8773e-06
-8.15094e-06
-2.7273e-06
-7.65103e-06
-3.59705e-06
-7.03077e-06
-4.46523e-06
-6.29239e-06
-5.30533e-06
-5.44054e-06
-6.08904e-06
-4.48792e-06
-6.78713e-06
-3.44942e-06
-7.37516e-06
-2.34485e-06
-7.8334e-06
-1.1943e-06
-8.14855e-06
-2.02723e-08
-8.31097e-06
1.1545e-06
-8.31634e-06
2.30718e-06
-8.16398e-06
3.41516e-06
-7.85851e-06
4.45814e-06
-7.40851e-06
5.41591e-06
-6.82769e-06
6.27314e-06
-6.13478e-06
7.01693e-06
-5.35468e-06
7.64255e-06
-4.51607e-06
8.14748e-06
-3.64805e-06
8.53596e-06
-2.7769e-06
8.81193e-06
-1.92461e-06
8.9841e-06
-1.10878e-06
9.05894e-06
-3.42801e-07
9.04606e-06
3.63412e-07
8.95254e-06
1.00312e-06
8.78793e-06
1.57209e-06
8.5592e-06
2.0685e-06
8.27529e-06
2.49233e-06
7.94287e-06
2.84528e-06
7.57012e-06
3.13019e-06
7.16315e-06
3.35092e-06
6.7291e-06
3.51184e-06
6.27331e-06
3.61765e-06
5.80181e-06
3.673e-06
5.31921e-06
3.68226e-06
4.83056e-06
3.64932e-06
4.3398e-06
3.57742e-06
3.8512e-06
3.46904e-06
3.36843e-06
3.3259e-06
2.89564e-06
3.149e-06
2.437e-06
2.93889e-06
1.99752e-06
2.69589e-06
1.58278e-06
2.42067e-06
1.19948e-06
2.11485e-06
8.55193e-07
1.78191e-06
5.58513e-07
1.42825e-06
3.18103e-07
1.06438e-06
1.41562e-07
7.05645e-07
3.49031e-08
3.7292e-07
9.50783e-08
-4.1847e-08
1.26242e-07
-1.68891e-07
4.84549e-07
-3.75394e-07
8.98967e-07
-6.51922e-07
1.32873e-06
-9.87188e-07
1.75035e-06
-1.36924e-06
2.14976e-06
-1.78721e-06
2.518e-06
-2.23206e-06
2.85037e-06
-2.6966e-06
3.1451e-06
-3.17483e-06
3.402e-06
-3.66185e-06
3.62146e-06
-4.15332e-06
3.80377e-06
-4.64571e-06
3.94883e-06
-5.13532e-06
4.05576e-06
-5.61883e-06
4.1229e-06
-6.09216e-06
4.14761e-06
-6.55154e-06
4.12646e-06
-6.99206e-06
4.05514e-06
-7.40929e-06
3.92893e-06
-7.79738e-06
3.74259e-06
-8.1512e-06
3.4911e-06
-8.46388e-06
3.16947e-06
-8.72977e-06
2.77368e-06
-8.94116e-06
2.30031e-06
-9.09207e-06
1.74768e-06
-9.17413e-06
1.1152e-06
-9.18112e-06
4.04676e-07
-9.10394e-06
-3.80528e-07
-8.93594e-06
-1.23384e-06
-8.66718e-06
-2.14638e-06
-8.29068e-06
-3.10458e-06
-7.79689e-06
-4.09097e-06
-7.18141e-06
-5.08128e-06
-6.4406e-06
-6.04604e-06
-5.58014e-06
-6.94972e-06
-4.60993e-06
-7.75697e-06
-3.54821e-06
-8.43657e-06
-2.41398e-06
-8.96675e-06
-1.23018e-06
-9.33105e-06
-2.01891e-08
-9.51908e-06
1.19065e-06
-9.52465e-06
2.37693e-06
-9.34783e-06
3.51489e-06
-8.9936e-06
4.58153e-06
-8.47283e-06
5.55734e-06
-7.80088e-06
6.42364e-06
-6.9998e-06
7.17023e-06
-6.09982e-06
7.79116e-06
-5.13673e-06
8.28998e-06
-4.1459e-06
8.67076e-06
-3.15777e-06
8.943e-06
-2.19653e-06
9.11369e-06
-1.28031e-06
9.19297e-06
-4.22538e-07
9.18743e-06
3.67357e-07
9.10646e-06
1.08285e-06
8.95626e-06
1.72019e-06
8.74542e-06
2.27766e-06
8.47976e-06
2.75563e-06
8.16711e-06
3.15589e-06
7.81299e-06
3.48168e-06
7.4244e-06
3.73708e-06
7.00635e-06
3.92695e-06
6.56485e-06
4.05634e-06
6.10429e-06
4.13044e-06
5.62976e-06
4.15403e-06
5.14504e-06
4.13143e-06
4.65435e-06
4.06614e-06
4.16098e-06
3.96083e-06
3.66867e-06
3.8172e-06
3.18088e-06
3.63607e-06
2.70188e-06
3.41749e-06
2.23639e-06
3.16109e-06
1.79048e-06
2.86644e-06
1.37145e-06
2.53377e-06
9.88505e-07
2.16493e-06
6.52505e-07
1.76474e-06
3.75498e-07
1.34254e-06
1.68872e-07
9.13683e-07
4.25011e-08
5.00864e-07
1.37041e-07
-5.01062e-08
1.77062e-07
-2.00133e-07
6.35976e-07
-4.40752e-07
1.14162e-06
-7.57434e-07
1.64735e-06
-1.13369e-06
2.12826e-06
-1.55394e-06
2.5715e-06
-2.00495e-06
2.97054e-06
-2.47653e-06
3.32336e-06
-2.96103e-06
3.63058e-06
-3.4527e-06
3.89395e-06
-3.94681e-06
4.1152e-06
-4.43971e-06
4.29559e-06
-4.92795e-06
4.43547e-06
-5.4087e-06
4.53423e-06
-5.87862e-06
4.59012e-06
-6.33473e-06
4.60042e-06
-6.77309e-06
4.56132e-06
-7.19021e-06
4.46833e-06
-7.58135e-06
4.31618e-06
-7.94249e-06
4.09949e-06
-8.26803e-06
3.81266e-06
-8.55351e-06
3.4507e-06
-8.79261e-06
3.00903e-06
-8.98069e-06
2.48443e-06
-9.11088e-06
1.87458e-06
-9.17847e-06
1.17922e-06
-9.17587e-06
3.99279e-07
-9.09784e-06
-4.61749e-07
-8.93524e-06
-1.39882e-06
-8.68101e-06
-2.40342e-06
-8.32339e-06
-3.46414e-06
-7.85326e-06
-4.56345e-06
-7.25843e-06
-5.67745e-06
-6.53395e-06
-6.77206e-06
-5.67877e-06
-7.80529e-06
-4.70512e-06
-8.73085e-06
-3.62948e-06
-9.51129e-06
-2.4741e-06
-1.01207e-05
-1.26164e-06
-1.05411e-05
-1.94242e-08
-1.07581e-05
1.22382e-06
-1.07643e-05
2.43894e-06
-1.0559e-05
3.59828e-06
-1.01498e-05
4.67902e-06
-9.55024e-06
5.65861e-06
-8.77851e-06
6.52006e-06
-7.85934e-06
7.25076e-06
-6.83026e-06
7.85119e-06
-5.73675e-06
8.32615e-06
-4.62171e-06
8.68776e-06
-3.51949e-06
8.94505e-06
-2.45498e-06
9.11007e-06
-1.44569e-06
9.18981e-06
-5.03543e-07
9.1936e-06
3.62955e-07
9.12674e-06
1.14832e-06
8.99712e-06
1.84908e-06
8.80936e-06
2.46403e-06
8.5705e-06
2.99353e-06
8.28496e-06
3.43975e-06
7.9592e-06
3.80596e-06
7.59752e-06
4.09662e-06
7.20565e-06
4.31675e-06
6.78752e-06
4.47187e-06
6.34807e-06
4.56742e-06
5.89078e-06
4.60867e-06
5.41977e-06
4.60021e-06
4.938e-06
4.54587e-06
4.44888e-06
4.44842e-06
3.95515e-06
4.3096e-06
3.46021e-06
4.12999e-06
2.96757e-06
3.90916e-06
2.48192e-06
3.64586e-06
2.00905e-06
3.33835e-06
1.55686e-06
2.98499e-06
1.13563e-06
2.58528e-06
7.58669e-07
2.14131e-06
4.41555e-07
1.65991e-06
2.00588e-07
1.15508e-06
5.0383e-08
6.50888e-07
1.86408e-07
-6.04472e-08
2.39163e-07
-2.39059e-07
8.17353e-07
-5.20235e-07
1.42586e-06
-8.81736e-07
2.01138e-06
-1.30092e-06
2.54941e-06
-1.75833e-06
3.03066e-06
-2.23882e-06
3.45295e-06
-2.7315e-06
3.8182e-06
-3.22903e-06
4.13013e-06
-3.72607e-06
4.39262e-06
-4.21881e-06
4.60893e-06
-4.70399e-06
4.7812e-06
-5.17909e-06
4.9103e-06
-5.64141e-06
4.99576e-06
-6.08862e-06
5.03588e-06
-6.51766e-06
5.02769e-06
-6.9259e-06
4.96725e-06
-7.30962e-06
4.84965e-06
-7.66581e-06
4.66952e-06
-7.99007e-06
4.42103e-06
-8.27913e-06
4.0986e-06
-8.52802e-06
3.69685e-06
-8.73349e-06
3.21142e-06
-8.89029e-06
2.6387e-06
-8.99544e-06
1.97681e-06
-9.0434e-06
1.22492e-06
-9.03124e-06
3.84326e-07
-8.95234e-06
-5.42701e-07
-8.80221e-06
-1.55161e-06
-8.57072e-06
-2.63671e-06
-8.24863e-06
-3.78863e-06
-7.81959e-06
-4.99394e-06
-7.26925e-06
-6.2297e-06
-6.58113e-06
-7.46085e-06
-5.75172e-06
-8.63533e-06
-4.78791e-06
-9.69375e-06
-3.71014e-06
-1.05876e-05
-2.53771e-06
-1.12905e-05
-1.29669e-06
-1.17792e-05
-1.79911e-08
-1.20334e-05
1.26178e-06
-1.20403e-05
2.5057e-06
-1.17996e-05
3.68213e-06
-1.1323e-05
4.76519e-06
-1.06309e-05
5.73512e-06
-9.74561e-06
6.57119e-06
-8.69369e-06
7.26605e-06
-7.52254e-06
7.82219e-06
-6.29184e-06
8.25586e-06
-5.05382e-06
8.58134e-06
-3.8448e-06
8.81537e-06
-2.68809e-06
8.96731e-06
-1.59784e-06
9.04747e-06
-5.83303e-07
9.06026e-06
3.49411e-07
9.01266e-06
1.19578e-06
8.90764e-06
1.95321e-06
8.751e-06
2.62044e-06
8.54553e-06
3.19809e-06
8.29658e-06
3.68812e-06
8.00718e-06
4.09402e-06
7.68242e-06
4.4202e-06
7.32544e-06
4.67196e-06
6.94079e-06
4.85491e-06
6.53147e-06
4.97487e-06
6.10139e-06
5.03728e-06
5.65317e-06
5.04707e-06
5.18999e-06
5.00824e-06
4.71405e-06
4.92379e-06
4.22807e-06
4.79542e-06
3.73441e-06
4.6236e-06
3.23631e-06
4.40742e-06
2.73752e-06
4.14477e-06
2.24354e-06
3.83245e-06
1.76193e-06
3.46662e-06
1.3037e-06
3.04367e-06
8.83895e-07
2.56169e-06
5.21914e-07
2.02302e-06
2.39967e-07
1.43802e-06
5.99156e-08
8.30746e-07
2.47886e-07
-7.53074e-08
3.1672e-07
-2.92116e-07
1.03722e-06
-6.23284e-07
1.75994e-06
-1.03531e-06
2.42549e-06
-1.49848e-06
3.01378e-06
-1.99017e-06
3.52295e-06
-2.49428e-06
3.95777e-06
-3.00048e-06
4.32539e-06
-3.50225e-06
4.63302e-06
-3.99557e-06
4.88682e-06
-4.4774e-06
5.09133e-06
-4.94559e-06
5.24947e-06
-5.39798e-06
5.36241e-06
-5.83281e-06
5.4298e-06
-6.24777e-06
5.4498e-06
-6.64091e-06
5.41936e-06
-7.0094e-06
5.33424e-06
-7.35107e-06
5.18946e-06
-7.66256e-06
4.97931e-06
-7.9416e-06
4.69804e-06
-8.18449e-06
4.33982e-06
-8.38915e-06
3.89954e-06
-8.55184e-06
3.37267e-06
-8.67115e-06
2.75618e-06
-8.74354e-06
2.04801e-06
-8.76842e-06
1.24805e-06
-8.74223e-06
3.57087e-07
-8.66431e-06
-6.22359e-07
-8.52908e-06
-1.68775e-06
-8.33204e-06
-2.83538e-06
-8.05992e-06
-4.06139e-06
-7.69739e-06
-5.35778e-06
-7.21802e-06
-6.7092e-06
-6.59778e-06
-8.08152e-06
-5.81785e-06
-9.41404e-06
-4.8853e-06
-1.06248e-05
-3.81643e-06
-1.16535e-05
-2.62973e-06
-1.2474e-05
-1.34908e-06
-1.30567e-05
-1.64669e-08
-1.33635e-05
1.31756e-06
-1.33721e-05
2.6015e-06
-1.30811e-05
3.79288e-06
-1.25123e-05
4.86751e-06
-1.17025e-05
5.80656e-06
-1.06824e-05
6.59337e-06
-9.4769e-06
7.22066e-06
-8.14639e-06
7.70577e-06
-6.7725e-06
8.07235e-06
-5.41753e-06
8.34702e-06
-4.11629e-06
8.5456e-06
-2.88511e-06
8.68193e-06
-1.73201e-06
8.76034e-06
-6.61147e-07
8.78666e-06
3.23936e-07
8.76156e-06
1.22048e-06
8.68898e-06
2.02598e-06
8.56942e-06
2.73942e-06
8.40661e-06
3.36088e-06
8.20169e-06
3.89226e-06
7.9585e-06
4.33664e-06
7.67887e-06
4.69852e-06
7.36667e-06
4.983e-06
7.02406e-06
5.19591e-06
6.65463e-06
5.34303e-06
6.26052e-06
5.43007e-06
5.84473e-06
5.46206e-06