/*--------------------------------*- C++ -*----------------------------------*\
| =========                 |                                                 |
| \\      /  F ield         | OpenFOAM: The Open Source CFD Toolbox           |
|  \\    /   O peration     | Version:  2412                                  |
|   \\  /    A nd           | Website:  www.openfoam.com                      |
|    \\/     M anipulation  |                                                 |
\*---------------------------------------------------------------------------*/
FoamFile
{
    version     2.0;
    format      ascii;
    arch        "LSB;label=32;scalar=64";
    class       volScalarField;
    location    "2.35";
    object      alpha.water;
}
// * * * * * * * * * * * * * * * * * * * * * * * * * * * * * * * * * * * * * //

dimensions      [0 0 0 0 0 0 0];

internalField   nonuniform List<scalar> 
6400
(
1
1
1
1
1
1
1
1
1
1
0.999999
1
1
1
1
1
1
1
1
1
1
1
1
1
1
1
1
1
1
1
1
1
1
1
1
1
1
1
1
1
1
1
1
1
1
1
1
1
1
1
1
1
1
1
1
1
1
1
1
1
1
1
1
1
1
1
1
1
1
1
1
1
1
1
0.999999
1
1
0.999999
0.999999
1
0.999996
1
1
1
1
1
1
0.999999
0.999999
1
1
0.999999
1
1
1
1
1
1
1
1
1
1
1
1
1
1
1
1
1
1
1
1
1
1
1
1
1
1
1
1
1
1
1
1
1
1
1
1
1
1
1
1
1
1
1
1
1
1
1
1
1
1
1
1
1
1
1
1
1
1
1
1
1
1
1
0.999999
0.999999
0.999999
1
0.999999
1
1
1
1
1
1
1
1
0.999999
1
1
1
1
1
1
1
1
1
1
1
1
1
1
1
1
1
1
1
1
1
1
1
1
1
1
1
1
1
1
1
1
1
1
1
1
1
1
1
1
1
1
1
1
1
1
1
1
1
1
1
1
1
1
1
1
1
1
1
1
1
1
1
1
1
1
1
1
1
1
1
1
1
1
1
1
1
1
1
1
1
1
1
1
1
1
1
1
1
1
1
1
1
1
1
1
1
1
1
1
1
1
1
1
1
1
1
1
1
1
1
1
1
1
1
1
1
1
1
1
1
1
1
1
1
1
1
1
1
1
1
1
1
1
1
1
1
1
0.999999
0.999999
1
1
1
1
1
1
0.999999
0.999999
1
1
1
1
1
1
1
1
1
1
1
1
1
0.999999
1
1
1
1
1
1
1
1
1
1
1
1
1
1
1
1
1
1
1
1
1
1
1
1
1
1
1
1
1
1
1
1
1
1
1
1
1
1
1
1
1
1
1
1
1
1
1
1
1
1
1
1
1
1
1
1
1
1
1
1
1
1
1
1
1
1
1
1
1
1
1
1
1
0.999999
0.999999
1
1
1
1
1
1
0.999999
1
1
1
1
1
1
0.999999
1
1
1
1
1
1
1
1
1
1
1
1
1
1
1
1
1
1
1
1
1
1
1
1
1
1
1
1
1
1
1
1
1
1
1
1
1
1
1
1
1
1
1
1
1
1
1
1
1
1
1
1
1
1
1
1
1
1
1
1
1
1
1
1
0.999999
1
1
1
0.999999
1
1
1
1
0.999999
1
1
1
1
1
1
1
1
1
1
1
1
1
1
1
1
1
1
1
1
1
1
1
1
1
1
1
1
1
1
1
1
1
1
1
1
1
1
1
1
1
1
1
1
1
1
1
1
1
1
1
1
1
0.999999
1
1
1
1
1
1
1
1
1
1
1
0.999999
1
1
1
1
1
1
1
1
1
1
1
1
1
1
1
1
1
1
1
1
1
1
1
1
1
1
1
1
0.999999
1
1
1
1
1
0.999999
1
1
1
1
1
1
1
1
1
1
1
1
1
1
1
1
1
1
1
1
1
1
1
1
1
1
1
1
1
1
1
1
1
1
1
1
1
1
1
1
1
1
1
1
1
1
1
1
1
1
1
1
1
1
1
1
1
0.999999
1
1
1
1
1
1
1
1
1
1
1
1
1
1
1
1
1
1
1
1
1
0.999999
1
1
1
1
1
1
1
1
1
1
1
1
1
1
1
1
1
0.999999
0.999999
0.999999
1
1
1
1
1
1
1
1
1
1
1
1
1
1
1
1
1
1
1
1
1
1
1
1
1
1
1
1
1
1
1
1
1
1
0.999999
1
1
1
1
1
1
1
1
1
1
1
1
1
1
1
1
1
1
1
1
1
1
1
1
1
1
1
1
1
1
1
1
1
1
1
1
1
1
1
1
1
1
0.999999
1
1
1
1
1
1
1
1
1
1
1
1
1
1
1
1
1
1
1
1
1
1
1
1
1
1
1
1
1
1
1
1
1
1
1
1
1
1
1
1
1
1
1
1
1
1
1
1
1
1
1
1
1
1
1
1
1
1
1
1
1
1
1
1
1
1
1
1
1
1
1
1
1
1
1
1
1
1
1
1
1
1
1
1
1
1
1
1
1
1
1
1
1
1
1
1
1
1
1
1
1
1
1
1
1
1
1
1
1
1
1
1
1
1
1
1
1
1
1
1
1
1
1
1
0.999999
1
1
1
1
1
1
1
1
1
1
1
1
1
1
1
1
1
1
1
1
1
1
1
1
1
1
1
1
1
1
1
1
1
1
1
1
1
1
1
1
1
1
1
1
1
1
1
1
1
1
1
1
1
1
1
1
1
1
1
1
1
1
1
1
1
1
1
1
1
1
1
1
1
1
1
1
1
1
0.999999
0.999999
0.999999
1
1
1
1
1
1
1
1
1
1
1
1
1
1
1
1
1
1
1
1
1
1
1
1
1
1
1
1
0.999999
0.999999
0.999999
1
1
1
1
1
1
1
1
1
1
1
1
1
1
1
1
1
1
1
1
0.999999
1
1
1
1
1
1
1
1
1
1
1
1
1
1
1
1
1
1
1
1
1
1
1
1
0.999999
0.999999
1
1
1
1
1
1
1
1
1
1
1
1
1
1
1
1
1
1
1
1
1
1
1
1
1
1
1
1
1
0.999999
0.999999
1
1
1
1
1
1
1
1
1
1
1
1
1
1
1
1
1
1
1
1
1
1
1
1
1
1
1
1
1
1
1
1
1
1
1
1
1
1
1
1
1
1
1
1
1
1
1
0.999999
0.999999
1
1
1
1
1
1
1
1
1
1
1
1
1
1
1
1
1
1
1
1
1
1
1
1
1
1
1
1
1
0.999999
0.999999
1
1
1
1
1
1
1
1
1
1
1
1
1
1
1
1
1
1
1
1
1
1
1
1
1
1
1
1
1
1
0.999999
1
1
1
1
1
1
1
1
1
1
1
1
1
0.999999
0.999999
1
1
1
1
1
1
1
1
1
1
1
1
1
1
1
1
1
1
1
1
1
1
1
1
1
1
1
1
1
1
1
1
1
1
0.999999
1
1
1
1
1
1
1
1
1
1
1
1
1
1
1
1
1
1
1
1
1
1
1
1
1
1
1
1
1
1
1
1
1
1
1
1
1
1
1
1
1
1
1
1
0.999999
1
1
1
1
1
1
1
1
1
1
1
1
1
1
1
1
1
1
1
1
1
1
1
1
1
1
1
1
1
1
1
1
1
1
1
1
1
1
0.999976
0.999965
1
1
1
1
1
1
1
1
1
1
1
1
1
1
1
1
1
1
1
1
1
1
1
1
0.999999
1
0.989434
0.989058
0.965542
0.993603
1
1
1
1
1
1
1
1
0.999999
0.999999
0.999999
0.999998
0.999999
0.999999
0.999999
0.999999
0.999998
0.999999
0.999999
0.999999
1
0.999681
0.999906
0.999999
1
1
1
1
0.999982
0.999853
0.999865
0.999991
1
1
1
1
0.999999
0.999999
0.999999
1
1
1
1
1
1
1
1
0.999999
0.999986
0.99826
0.997971
0.99956
0.999999
0.999999
0.999999
1
1
1
0.999998
1
0.999999
0.999999
0.999999
0.999999
1
1
1
1
1
1
1
1
1
0.99886
0.991332
0.962216
0.811497
0.878027
0.833549
0.962477
0.976198
0.950241
0.942943
0.968654
0.987538
0.998162
0.999997
0.999987
0.999974
0.999962
0.999952
0.999943
0.999967
0.999643
0.999984
0.999963
0.999945
0.999831
0.998519
0.996871
0.994973
0.991813
0.990125
0.992524
0.997405
0.999922
0.999996
1
0.999991
0.999998
0.999999
0.999999
1
1
1
1
1
1
1
1
1
1
1
1
0.999995
0.999984
0.999973
0.999393
0.994115
0.987188
0.983294
0.979923
0.982228
0.990032
0.996696
0.999755
0.999987
0.999994
0.999996
0.995217
0.999965
0.999931
0.999944
0.999964
0.999985
0.999997
0.999259
0.988939
0.972789
0.951844
0.957244
0.97883
0.959157
0.877574
0.901944
0.783193
0.81216
0.786195
0.645005
0.709607
0.77999
0.830265
0.871241
0.902355
0.918755
0.927714
0.933697
0.936564
0.938606
0.939439
0.924604
0.849461
0.799826
0.824506
0.877323
0.822592
0.686134
0.581438
0.520631
0.486815
0.461459
0.437802
0.425316
0.444241
0.507173
0.586905
0.663911
0.738443
0.850357
0.935445
0.991102
1
1
1
1
1
1
1
1
1
1
1
0.999311
0.960567
0.88462
0.775167
0.674466
0.563453
0.469015
0.417834
0.403867
0.405369
0.413124
0.430378
0.474562
0.572926
0.737886
0.908783
0.910637
0.789648
0.764648
0.842778
0.913733
0.926592
0.931405
0.932566
0.927905
0.915671
0.893947
0.85919
0.817645
0.78473
0.735859
0.721194
0.839881
0.809103
0.752319
0.229714
0.0407573
0.0399741
0.0428946
0.116327
0.191063
0.252921
0.282349
0.286993
0.280497
0.272949
0.269667
0.276086
0.291345
0.305896
0.282725
0.183958
0.0992041
0.0362343
0.0061549
3.63936e-08
3.02645e-08
2.80337e-08
3.01368e-08
3.38692e-08
5.07445e-08
2.19864e-07
6.18337e-07
8.67965e-07
1.37633e-06
0.0198961
0.0595073
0.144232
0.321157
0.568257
0.774882
0.911319
0.988005
1
1
1
0.99764
0.937253
0.825367
0.659445
0.439492
0.220134
0.110118
0.0448472
0.00565886
1.59997e-07
1.6e-07
1.55232e-07
1.7809e-07
4.61771e-07
1.38548e-06
2.86451e-06
6.29903e-06
3.21748e-05
0.0170608
0.0638033
0.14504
0.228495
0.275197
0.253809
0.228414
0.229694
0.241103
0.255828
0.257814
0.24855
0.218649
0.167077
0.114611
0.0725074
0.0693898
0.0758799
0.306696
0.773127
0.597833
0.00978965
0.0023961
0.000413877
2.55495e-05
2.86902e-05
2.86452e-05
2.6105e-05
1.94141e-05
1.45375e-05
1.04725e-05
6.90315e-06
5.10811e-06
4.45929e-06
3.31245e-06
2.56917e-06
4.85613e-06
7.34002e-06
7.52987e-06
4.08061e-06
1.21673e-06
2.03346e-07
3.65745e-08
2.73621e-08
3.01066e-08
3.31026e-08
7.28431e-08
4.87692e-07
6.8382e-07
7.70314e-07
8.67965e-07
1.37633e-06
8.48751e-06
3.82918e-05
0.00198953
0.0254044
0.0953531
0.234134
0.417982
0.582563
0.628744
0.552574
0.389038
0.228304
0.1011
0.0312661
0.00170895
4.35657e-06
1.36422e-07
2.65696e-07
2.97512e-07
3.51517e-07
1.6e-07
2.78612e-06
2.38805e-05
4.15634e-05
4.98808e-05
4.69822e-05
4.66937e-05
4.88538e-05
5.28918e-05
6.12209e-05
5.6517e-05
3.2338e-05
1.91068e-05
1.28589e-05
1.01336e-05
8.82396e-06
8.29756e-06
8.10087e-06
8.26946e-06
8.2817e-06
8.36629e-06
8.64741e-06
9.1011e-06
9.0802e-06
0.000484311
0.00297143
0.0132669
0.627751
0.477089
0.00239919
0.000439022
5.74515e-05
3.41985e-05
2.86902e-05
3.48086e-05
0.000253248
0.000335647
0.000139895
8.87594e-05
6.40643e-05
2.38785e-05
3.68735e-06
1.42233e-06
9.26419e-07
5.71885e-05
8.11276e-05
8.1353e-05
8.11239e-05
7.54859e-05
3.74624e-05
1.25297e-05
1.45942e-08
2.18238e-08
2.92441e-08
6.20493e-08
7.87042e-06
1.53164e-05
4.54608e-06
1.91588e-06
4.25088e-05
8.84131e-05
5.2271e-05
7.27683e-06
2.96675e-06
1.12504e-06
1.26221e-05
0.00170927
0.0156572
0.0235801
0.0100026
0.000204548
6.44929e-07
1.00281e-08
3.18392e-08
7.67049e-07
1.36436e-07
3.8826e-08
3.12703e-07
4.20224e-07
1.68273e-07
1.61639e-07
9.72685e-06
6.5494e-05
0.000143457
0.000143457
0.000143457
0.000141715
0.000134611
0.000163214
0.000293643
0.000470472
0.000316775
4.70619e-05
1.50269e-05
1.02126e-05
8.59806e-06
8.10087e-06
8.01194e-06
8.16853e-06
1.78014e-05
4.56498e-05
2.91415e-05
9.58007e-06
1.30663e-05
3.54965e-05
0.000506741
0.00297143
0.472352
0.325302
0.00607005
0.000112154
3.65218e-05
3.33941e-05
3.24668e-05
0.000156075
0.000335864
0.000336549
0.000335647
0.000333879
0.000330312
0.000279384
4.62377e-06
1.06787e-06
1.36599e-08
1.99304e-08
1.02361e-05
4.2285e-05
6.34208e-05
7.47821e-05
7.26451e-05
2.82627e-05
1.31995e-08
2.39676e-08
4.63849e-08
5.07998e-08
2.16311e-06
1.48468e-05
2.14452e-05
2.85384e-05
3.85307e-05
3.16662e-05
3.22789e-05
1.68775e-05
3.36734e-06
2.51163e-07
1.839e-06
1.24573e-06
7.72158e-06
1.27015e-05
1.5593e-05
3.23383e-06
7.62987e-09
8.91714e-09
8.06926e-10
3.09111e-10
1.67789e-07
3.78408e-08
4.07479e-07
5.57526e-07
5.52692e-07
2.00065e-07
3.16122e-07
2.59047e-07
2.31323e-05
6.18672e-05
4.08979e-05
1.44956e-05
5.86163e-05
0.000424533
0.000475675
0.000478009
0.000478539
0.000260922
1.28373e-05
9.1808e-06
8.19416e-06
8.01182e-06
8.08261e-06
1.87876e-05
0.00016895
0.000181073
0.000176774
2.66644e-05
2.47038e-05
3.30896e-05
0.000117695
0.00692395
0.391217
0.0679335
0.00868409
6.75569e-05
3.34666e-05
3.35073e-05
3.34336e-05
3.51511e-05
0.000138221
0.000304715
0.00032831
0.000322147
0.000322984
0.000318357
0.000262327
1.36599e-08
1.06931e-08
1.36599e-08
1.99304e-08
3.11224e-08
5.27401e-10
6.91505e-06
1.07342e-05
1.10454e-08
1.11581e-08
8.02262e-08
1.19542e-07
7.17951e-08
1.46349e-09
4.5066e-12
2.67335e-12
9.01403e-06
2.2813e-05
2.45349e-05
2.86901e-05
2.87787e-05
5.66532e-06
2.24444e-07
1.71119e-08
1.2288e-08
9.99649e-08
3.19411e-07
3.28333e-07
1.02922e-07
8.0107e-09
3.34965e-08
4.04209e-10
3.0336e-10
3.0179e-10
3.01005e-10
3.0179e-10
3.01009e-10
3.01891e-10
1.17676e-07
9.17704e-07
3.98893e-07
1.69076e-09
1.62905e-10
2.46396e-11
1.59741e-10
2.72255e-10
1.60144e-05
0.000475137
0.000479004
0.000478539
0.000293054
1.11372e-05
8.75474e-06
8.54626e-06
8.19417e-06
8.01271e-06
8.19967e-06
0.000113098
0.00018519
0.00018519
0.000138081
7.71811e-05
5.87902e-05
8.36271e-05
0.0117964
0.18844
0.00630878
0.0208583
0.000262833
4.35494e-05
3.35054e-05
3.43257e-05
3.44291e-05
8.60941e-05
7.32663e-05
3.14153e-05
3.47142e-05
0.00031295
0.000318253
0.000317555
1.06931e-08
7.3236e-09
4.39113e-08
2.9326e-07
1.97961e-07
5.27407e-10
5.26651e-10
6.09496e-10
1.77095e-08
8.6686e-08
1.28056e-07
1.24069e-07
1.18475e-07
5.24584e-08
2.67319e-12
2.67335e-12
2.67299e-12
2.69683e-12
2.56644e-12
4.38144e-07
3.93164e-06
5.09427e-06
7.73214e-07
9.46968e-09
1.10665e-09
7.18329e-09
1.46566e-08
9.33739e-09
2.48016e-09
3.18013e-09
2.22212e-09
1.23933e-09
1.1189e-09
4.56941e-10
4.54863e-10
3.01005e-10
3.01891e-10
2.6624e-08
2.95501e-07
3.1214e-07
7.78337e-08
1.06522e-11
2.45461e-12
2.0541e-12
2.46396e-11
1.83777e-10
6.02533e-10
0.000275409
0.000478539
0.000478882
0.000149335
9.15923e-06
8.99027e-06
8.76743e-06
8.54627e-06
8.3118e-06
8.16191e-06
9.97453e-06
0.000100039
0.000177402
0.000166623
0.000134212
7.54857e-05
0.00025755
0.0136709
0.0108442
0.00182434
0.0209808
0.0184779
0.00245341
4.34693e-05
3.47746e-05
3.52435e-05
3.22932e-05
3.14153e-05
3.14153e-05
3.14153e-05
4.40284e-05
0.000318149
0.000258009
7.3236e-09
5.319e-09
2.27697e-08
3.01495e-07
3.19374e-07
5.64054e-10
3.152e-10
1.03482e-08
1.29304e-07
1.38206e-07
1.37873e-07
3.60927e-08
8.31356e-08
6.68764e-08
2.83603e-12
2.67306e-12
2.73875e-12
2.74385e-12
2.45871e-12
2.41789e-12
2.41816e-12
2.41768e-12
1.26947e-07
1.5027e-08
2.17102e-10
4.22772e-10
2.14582e-09
1.87727e-09
1.29086e-09
1.19304e-09
1.17338e-09
1.17686e-09
1.12502e-09
3.4467e-09
2.4703e-09
3.03708e-10
6.99682e-09
7.97878e-08
7.14722e-08
2.1598e-11
2.42891e-12
1.83365e-12
1.84922e-12
1.95256e-12
2.04016e-08
6.51839e-09
8.32569e-10
3.84309e-05
0.000476129
0.000478539
0.000142313
9.38719e-06
9.15715e-06
1.0292e-05
5.52414e-05
0.000155576
9.42262e-05
7.99286e-05
5.25584e-05
5.32566e-05
5.88423e-05
5.73484e-05
6.19737e-05
0.000342269
0.0121129
0.00445252
0.000532898
0.0172116
0.0176785
0.0147681
0.00409863
7.01492e-05
3.94045e-05
3.36062e-05
3.1595e-05
3.14153e-05
3.1595e-05
0.000123048
0.000318149
9.74445e-05
4.44715e-09
1.88899e-09
8.33404e-10
2.9649e-10
1.45767e-07
1.48582e-10
7.18712e-11
1.21415e-08
1.09463e-07
1.38206e-07
6.15461e-08
3.97203e-12
2.11116e-12
2.22508e-12
3.60605e-09
3.26645e-12
6.24316e-12
5.58036e-12
4.78912e-12
4.44059e-12
3.20358e-12
2.43144e-12
1.91276e-12
1.88644e-10
2.11495e-10
2.49434e-10
1.61237e-09
1.53075e-09
1.20911e-09
1.17338e-09
1.17337e-09
1.17338e-09
1.34673e-08
2.0821e-08
5.54593e-09
3.72905e-10
5.33983e-09
1.75974e-08
1.22057e-12
1.3279e-12
1.40505e-12
1.76811e-12
1.83716e-12
1.84978e-12
1.51976e-07
8.17967e-08
1.83616e-09
5.75446e-10
0.000252984
0.000476129
0.000355805
9.47582e-06
9.90665e-06
4.08983e-05
0.00039544
0.000501203
0.000473795
8.26973e-05
5.25584e-05
5.25137e-05
5.32566e-05
5.5262e-05
5.73484e-05
0.000238263
0.00407333
0.00298434
0.000352293
0.00197949
0.00524356
0.0058342
0.0053965
0.00483375
0.000691395
4.74528e-05
3.3608e-05
3.1595e-05
3.18915e-05
0.000250565
0.00031736
2.61487e-05
1.29823e-08
1.26534e-09
4.89572e-10
1.3533e-10
1.27416e-10
6.06126e-10
6.89998e-11
7.40292e-12
2.71006e-11
3.97712e-08
6.24737e-11
2.52825e-10
2.10534e-12
2.10534e-12
2.17852e-12
2.37895e-12
2.3152e-12
2.58266e-12
5.17661e-12
6.35658e-12
6.35658e-12
5.0768e-12
1.84431e-12
2.65438e-10
2.33911e-09
3.97753e-09
4.30629e-09
4.26769e-09
3.1409e-09
1.228e-09
1.17338e-09
4.60623e-08
1.29917e-07
4.22496e-08
3.41779e-10
1.57223e-09
1.8357e-10
7.47171e-13
9.26714e-13
1.33279e-12
1.46412e-12
1.81819e-12
1.8211e-12
5.34044e-12
1.53049e-07
1.13227e-07
1.89737e-09
1.64396e-10
9.02159e-06
0.000391026
0.000392137
1.82398e-05
1.38809e-05
0.000109989
0.000535013
0.000518431
0.000304689
5.51665e-05
5.25311e-05
5.32566e-05
8.80488e-05
9.15872e-05
6.92477e-05
9.54401e-05
0.000272343
0.00267723
0.000268838
0.000308961
0.000409045
0.000542072
0.00403762
0.00461293
0.00330537
0.000481611
5.10455e-05
3.57545e-05
0.000230157
0.000250909
0.000145382
1.86039e-06
2.20141e-08
9.64298e-09
1.34121e-08
2.77723e-09
1.26167e-10
1.25962e-10
7.03022e-11
6.89715e-12
4.97277e-12
4.14218e-12
4.99131e-11
1.59838e-09
2.42998e-12
2.1612e-12
1.93518e-12
1.59055e-12
9.94938e-13
9.2673e-13
1.25083e-12
1.8091e-12
2.48122e-12
1.44859e-12
1.49867e-12
4.00433e-10
5.30111e-09
5.60057e-09
5.25451e-09
2.87275e-09
1.21553e-09
1.2207e-09
1.32465e-07
3.8042e-07
2.54672e-07
6.73274e-09
1.27885e-11
8.26304e-13
4.44974e-13
7.16422e-13
1.08802e-12
1.59518e-12
1.85736e-12
2.24426e-12
4.31991e-12
4.47628e-12
9.26912e-08
1.77852e-08
7.25774e-11
1.39919e-10
1.64396e-10
2.48671e-05
0.000364999
0.000107233
2.18332e-05
0.000127922
0.000548307
0.000535007
0.000197557
5.74308e-05
0.000438961
0.00175026
0.00176274
0.00101821
0.000922407
0.0019032
0.00236938
0.00222135
0.00025249
0.000268838
0.000329053
0.000429137
0.00150736
0.00420745
0.00388281
0.00142139
0.000141663
0.000229655
0.000238838
0.000127619
5.96141e-07
5.8725e-08
2.47e-08
2.28072e-08
2.98202e-08
3.94216e-09
1.61075e-10
2.00238e-10
1.22305e-10
4.20569e-11
1.0788e-11
4.01236e-12
2.97035e-12
2.85763e-12
2.56289e-12
2.44757e-12
1.82622e-12
9.31508e-13
4.58643e-13
3.73856e-13
4.42828e-13
5.67071e-13
6.87051e-13
8.553e-13
1.22771e-12
1.62646e-10
3.13381e-09
2.60159e-09
2.52269e-09
2.7674e-09
2.07887e-07
3.65707e-06
3.76832e-06
5.7788e-07
3.93089e-10
1.52599e-11
7.69257e-13
2.67647e-13
4.2e-13
7.30208e-13
1.48209e-12
1.88824e-12
1.89897e-12
2.3179e-12
1.01246e-11
4.47874e-11
4.4958e-11
4.83142e-11
7.10862e-11
7.7462e-11
8.15841e-11
2.60417e-08
1.79809e-05
0.00022671
0.000219481
0.000164372
0.000550053
0.000539736
0.000223419
0.000287509
0.00176492
0.00185665
0.00203781
0.00215683
0.0024566
0.00255155
0.00247483
0.00100943
0.000241952
0.000603453
0.00129438
0.00271885
0.00356819
0.00388281
0.00356819
0.00186332
0.000320371
0.000212303
5.69609e-05
8.40272e-07
1.6843e-07
4.20218e-08
2.66559e-08
2.49525e-08
2.99491e-08
1.86292e-09
1.95964e-10
2.19053e-10
1.42163e-10
5.21711e-11
1.59458e-11
8.3097e-12
4.55302e-12
2.13323e-12
1.67887e-12
1.48057e-12
9.71863e-13
4.30399e-13
1.61456e-13
1.07078e-13
1.52759e-13
2.93563e-13
4.83826e-13
7.76502e-13
1.75611e-12
2.44559e-11
2.83019e-10
3.22496e-10
9.18578e-10
4.07381e-06
1.34141e-05
9.76324e-06
1.10161e-06
6.42292e-10
2.03652e-11
1.00844e-12
1.48525e-13
2.19152e-13
3.82159e-13
8.15473e-13
1.37014e-12
1.66846e-12
1.55491e-12
2.28592e-12
1.30207e-11
6.91644e-11
1.27226e-10
1.89037e-10
1.94174e-10
1.7828e-10
1.52527e-10
1.2912e-09
5.1018e-08
0.000137297
0.000525409
0.000540601
0.000550053
0.00054114
0.000265199
0.000482759
0.00173011
0.00182895
0.000253565
0.000431932
0.00174741
0.00220508
0.00126723
2.49678e-05
0.000227052
0.00185054
0.00220914
0.00185731
0.00345473
0.00356819
0.00275273
0.00103038
0.000316821
6.42413e-05
1.05136e-06
1.27438e-06
7.57628e-07
1.75444e-07
5.40916e-08
3.43145e-08
1.80274e-08
2.21037e-10
2.13002e-10
2.19283e-10
1.45528e-10
5.7035e-11
1.41405e-11
4.2339e-12
2.33834e-12
9.27485e-13
4.46114e-13
4.13985e-13
2.6962e-13
1.13474e-13
3.95582e-14
2.87968e-14
7.7453e-14
2.03517e-13
4.08467e-13
7.93656e-13
1.90066e-12
1.92135e-12
4.25663e-12
5.17096e-08
6.2261e-06
2.03577e-05
1.82392e-05
2.00917e-06
7.04796e-10
2.03653e-11
7.55556e-13
1.64908e-13
1.18711e-13
1.57518e-13
3.2553e-13
8.29012e-13
1.35428e-12
1.29128e-12
1.16178e-12
2.22137e-12
1.55737e-11
7.40481e-11
1.97285e-10
2.45565e-10
2.21841e-10
1.94725e-10
4.27624e-10
1.18474e-08
1.10648e-07
4.43412e-05
6.97837e-05
6.49195e-05
0.00022226
0.000515174
0.000357111
0.000644531
0.0015999
0.00066345
7.1775e-05
3.67852e-05
3.62371e-05
9.77194e-05
2.01159e-05
1.18478e-05
0.000121853
0.00116366
0.00147746
0.000228764
0.00124358
0.00171433
0.000386467
7.1659e-05
5.92178e-05
1.05136e-06
1.05136e-06
2.62153e-06
5.44856e-05
7.11314e-07
1.12631e-07
1.84776e-08
1.64302e-09
2.68427e-10
1.87673e-10
1.87975e-10
1.29901e-10
5.91139e-11
1.42866e-11
1.80928e-12
2.34605e-13
1.42627e-13
8.70816e-14
8.03408e-14
4.88311e-14
1.96924e-14
7.77581e-15
1.19049e-14
5.36558e-14
1.6506e-13
3.71856e-13
8.21386e-13
2.2467e-12
2.25136e-12
2.21876e-11
9.08968e-07
2.03699e-05
2.03957e-05
1.4254e-05
6.9742e-07
1.56176e-10
3.40628e-12
1.71151e-13
5.16202e-14
4.31698e-14
6.16299e-14
1.99308e-13
5.62925e-13
8.83396e-13
7.93748e-13
6.35485e-13
2.09447e-12
1.71639e-11
7.6005e-11
1.69591e-10
2.23931e-10
2.0232e-10
1.99161e-10
3.07291e-09
1.01949e-07
1.0869e-06
0.000272664
0.000318558
0.000184667
0.000145312
0.000256872
0.000569049
0.000621987
0.00145237
0.000587708
3.67871e-05
2.50374e-05
1.32017e-05
9.21377e-06
9.1685e-06
1.20558e-05
3.08239e-05
0.00024467
0.000116469
8.02268e-05
0.000103856
0.000105544
4.3427e-05
1.08292e-05
2.97631e-06
2.02162e-06
1.05136e-06
0.000159093
0.000372882
7.25138e-05
7.11293e-07
1.33583e-07
1.62257e-08
1.03346e-09
1.45887e-10
1.19871e-10
1.0324e-10
5.33191e-11
1.50117e-11
1.74009e-12
9.52642e-14
1.51535e-14
1.3825e-14
1.18035e-14
6.30221e-15
2.29766e-15
1.51827e-15
8.01718e-15
4.05385e-14
1.35952e-13
3.4384e-13
9.31262e-13
5.97199e-12
1.43306e-11
1.44388e-11
7.6783e-09
2.03938e-05
1.76563e-05
2.67052e-06
1.00983e-10
1.47024e-12
2.0694e-13
6.23609e-14
2.10648e-14
1.16665e-14
1.89667e-14
7.70053e-14
2.02471e-13
3.23597e-13
2.70467e-13
2.56573e-13
1.91211e-12
1.75585e-11
6.1228e-11
1.09996e-10
1.15203e-10
1.03554e-10
4.03229e-10
3.27697e-08
1.02178e-06
0.000139837
0.000318558
0.000320732
0.000320109
0.000152023
0.000161387
0.000564092
0.000860965
0.00124871
0.00117249
0.000829633
0.000154415
1.48756e-05
8.07493e-06
7.61559e-06
7.62441e-06
3.07422e-05
5.28086e-05
3.7093e-05
4.3042e-05
5.59434e-05
3.43858e-05
1.21465e-05
4.06908e-06
2.70124e-06
2.99146e-06
7.07989e-05
0.000378421
0.000377705
0.000370976
5.17036e-05
1.21819e-06
1.61363e-07
9.54958e-09
2.4017e-10
8.89697e-11
7.83368e-11
4.41206e-11
1.33585e-11
1.67855e-12
7.63076e-14
3.93636e-15
1.599e-15
1.0411e-15
4.67835e-16
2.00553e-16
6.98286e-16
5.71542e-15
3.03838e-14
1.10983e-13
3.31605e-13
1.367e-12
1.27995e-11
2.57928e-11
2.44913e-11
3.32807e-11
1.905e-05
2.66476e-06
1.00983e-10
1.67646e-12
5.91692e-13
5.77395e-13
1.63487e-13
1.78118e-14
2.87906e-15
4.44619e-15
1.86448e-14
5.32606e-14
7.64593e-14
6.21425e-14
1.022e-13
1.62379e-12
1.38404e-11
4.23744e-11
7.43717e-11
7.13465e-11
1.33351e-10
1.71287e-09
3.4252e-07
7.94813e-05
0.00029567
0.000313888
0.000320052
0.000320504
0.000272315
0.00017079
0.000265126
0.000496623
0.000654486
0.00117245
0.00123097
0.00127172
0.000973729
8.03726e-05
7.63349e-06
7.61422e-06
3.13061e-05
3.38414e-05
3.58128e-05
3.7093e-05
3.39949e-05
1.27894e-05
4.23411e-06
2.70147e-06
2.2343e-06
2.70138e-06
0.000214684
0.000378421
0.000378527
0.000377705
0.000371842
8.08289e-05
1.35792e-06
8.49012e-08
2.72016e-09
1.2195e-10
5.23487e-11
4.25595e-11
1.19064e-11
1.46373e-12
6.47607e-14
1.63792e-15
1.29973e-16
5.81115e-17
2.2867e-17
3.96212e-17
4.78762e-16
3.96319e-15
2.29659e-14
9.45359e-14
3.27386e-13
1.93711e-12
2.44241e-11
2.89774e-11
2.82237e-11
1.84778e-08
2.1929e-05
4.0891e-06
1.42382e-10
2.18026e-12
8.04345e-13
7.926e-13
1.64629e-13
1.05458e-14
1.19227e-15
8.47854e-16
2.90388e-15
8.8229e-15
1.19494e-14
1.09269e-14
5.75258e-14
1.37645e-12
1.0801e-11
3.42973e-11
4.24762e-11
5.97033e-11
4.03423e-11
4.74117e-08
0.000148057
0.000299663
0.00029171
0.00019033
0.000131878
0.000320052
0.000311083
0.000235978
6.59124e-05
3.66067e-05
6.38147e-05
0.000942301
0.00127172
0.00128346
0.00128508
0.000557573
1.52939e-05
7.83892e-06
7.88723e-05
9.57607e-05
8.34758e-05
4.17826e-05
3.81135e-05
3.042e-05
4.27384e-05
1.81794e-05
2.2343e-06
1.7749e-06
0.000211252
0.000378468
0.000378421
0.0003383
0.000348412
0.000326455
0.000132048
7.06852e-07
2.31115e-08
1.13647e-09
2.1233e-10
5.22744e-11
1.269e-11
1.42274e-12
6.10713e-14
1.3368e-15
3.31203e-17
4.07586e-18
2.58199e-18
2.55645e-17
3.2394e-16
2.85123e-15
1.8475e-14
8.69588e-14
3.38739e-13
2.08869e-12
4.43949e-11
3.04782e-11
2.70551e-11
2.14526e-06
2.20099e-05
1.03414e-05
1.46126e-08
3.88053e-12
6.03256e-13
7.16958e-13
1.00756e-13
7.43106e-15
9.7331e-16
1.50274e-16
2.53766e-16
7.80808e-16
1.08188e-15
1.65368e-15
4.15977e-14
1.12023e-12
8.95665e-12
2.98228e-11
8.42594e-11
8.07497e-10
7.43976e-09
6.67051e-06
0.000305693
0.000301724
0.000229729
9.09144e-05
9.05406e-05
0.000232619
0.000304972
0.00030194
5.88206e-05
1.10489e-05
2.07421e-05
0.000122515
0.000926565
0.00128455
0.00128346
0.000554024
8.51301e-06
6.72797e-06
0.000139692
0.000200107
0.000477366
4.31879e-05
3.98614e-05
3.94034e-05
5.45471e-05
5.34147e-05
4.26814e-06
1.17738e-06
0.000262514
0.000378421
0.000284907
0.000128555
0.000169739
0.000313358
0.000306497
7.43672e-05
1.44853e-06
1.25957e-07
7.85317e-10
4.17775e-11
1.60034e-11
2.2718e-12
9.11616e-14
2.05728e-15
3.56056e-17
2.02594e-18
1.79228e-18
1.82551e-17
2.34226e-16
2.27128e-15
1.60453e-14
8.48276e-14
3.80672e-13
1.49934e-12
6.79578e-11
3.05131e-11
2.57793e-11
1.79742e-05
2.20267e-05
2.12818e-05
9.37828e-07
1.45799e-11
2.70265e-13
1.38312e-13
5.21482e-14
7.24133e-15
8.54214e-16
8.19206e-17
1.15197e-17
2.40785e-17
5.08939e-17
4.70788e-16
3.20831e-14
9.38154e-13
7.53292e-12
2.38606e-11
2.06054e-10
1.33114e-08
4.30337e-06
0.000177143
0.000307598
0.00030343
9.09144e-05
9.05351e-05
9.05956e-05
0.000158846
0.000302667
0.000248205
2.4088e-05
2.76229e-06
5.94835e-06
2.04995e-05
8.45216e-05
0.000778973
0.000811313
0.000192469
5.339e-06
5.14119e-06
3.58259e-05
0.000199212
0.000487325
0.000159002
4.36584e-05
4.69604e-05
5.36701e-05
4.547e-05
2.51322e-06
9.47412e-07
0.000149273
0.000377405
0.00022206
0.0001255
0.000126228
0.00025151
0.000306502
0.000306077
4.90129e-05
1.87712e-07
3.22962e-09
1.38746e-10
9.3887e-12
4.66142e-12
3.52874e-13
7.89623e-15
1.59693e-16
3.70993e-18
1.79228e-18
1.45474e-17
1.90648e-16
1.98476e-15
1.46238e-14
9.10335e-14
4.23518e-13
1.8805e-12
8.75547e-11
2.42822e-11
1.9725e-11
2.20193e-05
2.20267e-05
2.20267e-05
1.85041e-06
6.54111e-13
2.34161e-13
1.91294e-13
5.07376e-14
6.94613e-15
7.64801e-16
6.73697e-17
4.87706e-18
1.26742e-18
5.10277e-18
2.98616e-16
2.74072e-14
8.11317e-13
3.67676e-12
9.47408e-12
3.17414e-10
1.36506e-08
2.69513e-05
0.000307596
0.000307596
0.000247283
9.20187e-05
9.09144e-05
9.05956e-05
0.000186463
0.00030049
3.18723e-05
1.95798e-06
6.64683e-07
1.62771e-06
5.93343e-06
1.61525e-05
5.98137e-05
4.39449e-05
2.94856e-05
4.5338e-06
3.91818e-06
3.05535e-05
0.00015816
0.000485446
0.000487325
0.000216216
7.5328e-05
2.19254e-05
4.84622e-06
9.46896e-07
7.80978e-07
8.83953e-07
0.000292418
0.000293448
0.000173313
0.0001255
0.00013061
0.000306497
0.000304393
0.000132481
2.64589e-07
1.42955e-08
6.54285e-10
2.73592e-11
3.32069e-12
7.37645e-13
2.80275e-14
5.37202e-16
1.06688e-17
1.84355e-18
1.27676e-17
1.67952e-16
1.81605e-15
1.37373e-14
1.1399e-13
4.96036e-13
4.12258e-12
1.00082e-10
1.46517e-11
1.48042e-11
2.06071e-05
2.20267e-05
1.89773e-05
1.03186e-12
1.03484e-12
1.21354e-12
3.64066e-13
5.01883e-14
6.792e-15
7.15157e-16
5.94635e-17
4.06187e-18
8.24469e-19
3.06291e-18
2.69886e-16
2.96678e-14
5.85498e-13
9.85635e-13
2.6303e-11
1.16894e-09
4.02288e-08
4.0827e-05
0.000306891
0.000307599
0.000302478
9.61034e-05
9.20187e-05
0.000201945
0.000218998
0.00021918
6.95357e-07
2.22855e-07
2.23325e-07
5.60398e-07
1.60691e-06
4.64423e-06
8.44215e-06
5.11346e-06
1.9246e-06
1.42249e-06
7.76013e-06
2.50151e-05
0.000115279
0.000258283
0.000342819
0.000316511
0.000138397
4.11776e-06
1.33843e-06
7.80813e-07
6.4716e-07
6.43634e-07
4.70605e-05
0.000280114
0.000272471
0.000137099
0.000264029
0.000304388
0.000304179
0.000158598
5.92956e-07
3.1967e-08
1.64635e-09
6.41327e-11
4.50485e-12
8.29232e-13
4.3776e-14
9.28502e-16
1.79996e-17
2.29237e-18
1.18937e-17
1.53526e-16
1.70731e-15
1.33395e-14
1.45378e-13
6.37074e-13
8.03819e-12
1.03826e-10
1.43609e-11
1.45088e-11
1.68129e-05
2.16109e-05
1.079e-06
1.03062e-12
5.94586e-12
5.35016e-12
5.51659e-13
4.93903e-14
6.86335e-15
6.9402e-16
5.52991e-17
3.64219e-18
8.01511e-19
3.29215e-18
2.50683e-16
1.94308e-14
3.87915e-13
1.43247e-12
4.17833e-11
1.53504e-09
4.3105e-08
1.3223e-05
0.000264805
0.000306891
0.000305815
0.000300449
0.000128256
0.000210129
0.000184608
6.95439e-07
1.59107e-07
1.15197e-07
1.28411e-07
2.38243e-07
6.0038e-07
1.27276e-06
2.276e-06
1.54962e-06
9.16868e-07
1.24932e-06
1.41753e-05
9.38316e-06
0.000109849
0.000152568
7.94807e-05
0.000113516
5.594e-05
2.27538e-06
9.68039e-07
6.4711e-07
5.73124e-07
5.61515e-07
6.43548e-07
6.43498e-05
0.000208618
0.000284606
0.000295112
0.000299557
0.000303647
8.66868e-05
5.10364e-07
3.60612e-08
1.8788e-09
9.93214e-11
6.22934e-12
5.47381e-13
3.50714e-14
8.83713e-16
1.63593e-17
3.52647e-18
1.14766e-17
1.44598e-16
1.654e-15
1.33963e-14
1.97012e-13
8.6891e-13
1.20054e-11
1.03543e-10
1.40883e-11
1.23308e-06
1.92879e-05
3.81708e-06
1.26887e-12
1.19694e-12
6.21501e-12
6.6415e-12
1.0322e-12
7.12838e-14
7.82854e-15
7.05686e-16
5.33832e-17
3.46439e-18
7.01729e-19
1.91402e-18
1.51554e-16
9.7209e-15
1.70982e-13
2.28499e-12
2.18396e-11
1.45262e-09
3.689e-08
3.588e-06
0.000190949
0.000305815
0.000303846
0.000175775
7.30331e-05
0.000210129
7.35179e-05
1.57516e-07
1.02549e-07
1.00022e-07
1.05635e-07
1.25698e-07
1.96541e-07
4.042e-07
7.72579e-07
8.32659e-07
7.67923e-07
3.36111e-05
1.43726e-05
1.07488e-06
8.26787e-05
0.000152419
5.67275e-05
8.65965e-06
2.55666e-06
1.04897e-06
6.66044e-07
5.73133e-07
5.59723e-07
5.61517e-07
5.61498e-07
2.02831e-05
0.000158107
7.50229e-05
0.000127029
0.000319858
0.00027067
3.30291e-05
3.74463e-07
2.68454e-08
1.69516e-09
9.16937e-11
5.8217e-12
4.5476e-13
2.81097e-14
7.32649e-16
1.2598e-17
3.70866e-18
1.12313e-17
1.41028e-16
1.65049e-15
1.63401e-14
2.70282e-13
1.17462e-12
1.42211e-11
1.02681e-10
1.39402e-11
1.63278e-05
1.92879e-05
1.1923e-09
2.54905e-09
1.26887e-12
6.54099e-12
7.25338e-12
1.9046e-12
1.15941e-13
1.05977e-14
9.14996e-16
6.02001e-17
3.6917e-18
6.0877e-19
7.35325e-19
2.46318e-17
1.57199e-15
3.41955e-14
1.44e-12
2.99018e-11
6.56621e-10
2.14596e-08
4.30185e-07
0.000120397
0.000304989
0.000296053
5.12635e-05
4.16077e-05
0.000185591
1.02609e-05
1.00945e-07
9.79783e-08
9.80743e-08
9.98991e-08
1.05634e-07
1.2571e-07
1.97534e-07
4.06045e-07
6.63071e-07
7.7325e-07
4.20743e-05
9.28692e-06
1.70841e-08
1.14986e-05
9.85993e-05
0.000169581
0.000210436
0.000294825
0.000379246
0.000498392
0.000371342
5.28694e-05
9.6935e-07
9.35136e-07
3.60324e-06
8.26194e-06
1.24936e-05
6.45769e-05
0.000346327
0.000196981
4.82558e-06
2.13112e-07
1.57171e-08
9.71899e-10
6.00868e-11
3.47043e-12
1.98777e-13
9.46326e-15
2.13432e-16
4.02873e-18
2.0705e-18
1.10669e-17
1.56719e-16
2.14921e-15
2.50742e-14
3.55813e-13
1.50419e-12
1.51514e-11
9.44932e-11
1.35761e-11
1.92019e-05
1.92369e-05
4.33151e-10
2.14881e-08
1.65945e-12
6.17773e-12
7.28181e-12
2.75925e-12
1.89969e-13
1.59621e-14
1.45829e-15
9.13521e-17
5.20959e-18
5.71387e-19
5.25474e-19
3.50146e-18
1.86191e-16
9.58699e-15
4.05592e-13
1.21908e-11
2.33183e-10
5.68609e-09
1.22148e-07
2.58271e-05
0.000305091
0.000334761
0.000185668
7.41609e-06
6.03818e-06
5.42608e-06
9.79822e-08
9.79839e-08
9.79779e-08
9.80743e-08
9.98991e-08
1.11198e-07
1.76841e-07
7.85651e-06
2.45311e-05
3.62575e-05
4.20743e-05
1.75913e-06
9.66842e-10
1.70817e-08
1.04402e-05
5.19429e-05
0.000109037
0.000143148
0.000328233
0.000547437
0.000550851
0.000558254
0.000567561
0.000245335
7.05943e-06
1.24936e-05
1.67132e-05
0.000303705
0.000346327
0.000142623
1.07751e-06
8.82572e-08
6.07944e-09
3.56298e-10
2.32903e-11
1.12406e-12
5.05366e-14
1.42825e-15
3.17568e-17
1.97746e-18
1.51856e-18
1.44579e-17
2.41722e-16
3.4589e-15
3.91884e-14
4.39907e-13
1.81233e-12
1.55139e-11
6.87521e-11
1.28873e-11
1.91598e-05
7.04923e-06
8.57008e-12
7.93647e-12
1.58919e-12
5.83002e-12
7.28181e-12
2.88913e-12
2.8075e-13
2.36536e-14
2.43409e-15
1.64902e-16
9.58529e-18
5.57445e-19
9.00848e-20
5.55039e-19
2.70284e-17
1.30948e-15
5.30316e-14
1.65221e-12
2.2372e-11
5.53702e-10
1.39055e-08
3.28525e-07
9.00614e-05
0.000346005
0.000368059
0.000159069
5.78618e-06
6.56549e-07
9.87385e-08
9.798e-08