/*--------------------------------*- C++ -*----------------------------------*\
| =========                 |                                                 |
| \\      /  F ield         | OpenFOAM: The Open Source CFD Toolbox           |
|  \\    /   O peration     | Version:  2412                                  |
|   \\  /    A nd           | Website:  www.openfoam.com                      |
|    \\/     M anipulation  |                                                 |
\*---------------------------------------------------------------------------*/
FoamFile
{
    version     2.0;
    format      ascii;
    arch        "LSB;label=32;scalar=64";
    class       surfaceScalarField;
    location    "2.35";
    object      alphaPhi0.water;
}
// * * * * * * * * * * * * * * * * * * * * * * * * * * * * * * * * * * * * * //

dimensions      [0 3 -1 0 0 0 0];

oriented        oriented;

internalField   nonuniform List<scalar> 
12640
(
-1.42233e-05
1.42232e-05
-2.46796e-05
1.0456e-05
-3.60015e-05
1.13222e-05
-4.69195e-05
1.09191e-05
-5.68844e-05
9.96589e-06
-6.56616e-05
8.77704e-06
-7.30741e-05
7.4117e-06
-7.88799e-05
5.80506e-06
-8.29196e-05
4.03914e-06
-8.50799e-05
2.16058e-06
-8.52859e-05
2.05635e-07
-8.3551e-05
-1.73578e-06
-8.00049e-05
-3.54428e-06
-7.48425e-05
-5.16474e-06
-6.82332e-05
-6.60655e-06
-6.05397e-05
-7.69439e-06
-5.17801e-05
-8.76022e-06
-4.22878e-05
-9.49215e-06
-3.22868e-05
-1.00025e-05
-2.1982e-05
-1.03051e-05
-1.18149e-05
-1.01655e-05
-1.96094e-06
-9.85476e-06
7.42867e-06
-9.39232e-06
1.59843e-05
-8.55603e-06
2.35247e-05
-7.53941e-06
2.98458e-05
-6.32173e-06
3.48539e-05
-5.00947e-06
3.84356e-05
-3.58189e-06
4.05975e-05
-2.16179e-06
4.13469e-05
-7.50166e-07
4.0688e-05
6.57637e-07
3.85225e-05
2.16487e-06
3.48266e-05
3.69547e-06
2.98193e-05
5.00657e-06
2.41176e-05
5.70088e-06
1.81445e-05
5.97242e-06
1.22821e-05
5.86185e-06
6.78513e-06
5.49613e-06
1.74499e-06
5.03918e-06
-2.90663e-06
4.65094e-06
-7.37252e-06
4.46569e-06
-1.19359e-05
4.56351e-06
-1.67358e-05
4.80026e-06
-2.18384e-05
5.10298e-06
-2.71415e-05
5.3035e-06
-3.22849e-05
5.14362e-06
-3.70216e-05
4.73663e-06
-4.08781e-05
3.85639e-06
-4.33404e-05
2.46199e-06
-4.42065e-05
8.658e-07
-4.36685e-05
-5.38218e-07
-4.18755e-05
-1.793e-06
-3.88166e-05
-3.05897e-06
-3.4526e-05
-4.2909e-06
-2.90487e-05
-5.47789e-06
-2.24763e-05
-6.57261e-06
-1.49883e-05
-7.48825e-06
-6.77384e-06
-8.21453e-06
1.97978e-06
-8.75355e-06
1.0984e-05
-9.00423e-06
2.00227e-05
-9.03915e-06
2.88913e-05
-8.86944e-06
3.73121e-05
-8.42134e-06
4.51176e-05
-7.80548e-06
5.21914e-05
-7.07324e-06
5.81584e-05
-5.96655e-06
6.3058e-05
-4.89947e-06
6.65707e-05
-3.51293e-06
6.85204e-05
-1.94963e-06
6.88031e-05
-2.8256e-07
6.73627e-05
1.44074e-06
6.43116e-05
3.05155e-06
5.97431e-05
4.56909e-06
5.37913e-05
5.95218e-06
4.6652e-05
7.13896e-06
3.85184e-05
8.13314e-06
2.9574e-05
8.94457e-06
2.02625e-05
9.3117e-06
1.18089e-05
8.45315e-06
1.18093e-05
-1.46913e-05
2.89144e-05
-2.56025e-05
2.13676e-05
-3.74205e-05
2.31414e-05
-4.87416e-05
2.22411e-05
-5.90852e-05
2.03089e-05
-6.82089e-05
1.7899e-05
-7.58922e-05
1.50938e-05
-8.18869e-05
1.18001e-05
-8.60397e-05
8.19141e-06
-8.82507e-05
4.37141e-06
-8.84468e-05
4.02519e-07
-8.66382e-05
-3.54737e-06
-8.28573e-05
-7.32166e-06
-7.71442e-05
-1.08808e-05
-6.97185e-05
-1.40321e-05
-6.08091e-05
-1.66042e-05
-5.066e-05
-1.89089e-05
-3.97368e-05
-2.04154e-05
-2.82093e-05
-2.15304e-05
-1.65896e-05
-2.19252e-05
-4.90247e-06
-2.18536e-05
6.43968e-06
-2.11972e-05
1.71059e-05
-2.00586e-05
2.70239e-05
-1.84752e-05
3.59895e-05
-1.65069e-05
4.38409e-05
-1.41742e-05
5.03963e-05
-1.15652e-05
5.55569e-05
-8.74324e-06
5.9176e-05
-5.78242e-06
6.11529e-05
-2.72794e-06
6.14149e-05
3.95501e-07
6.02148e-05
3.36483e-06
5.77012e-05
6.20861e-06
5.38496e-05
8.85727e-06
4.83331e-05
1.12166e-05
4.105e-05
1.32544e-05
3.20929e-05
1.48175e-05
2.18267e-05
1.57608e-05
1.04923e-05
1.63725e-05
-1.43905e-06
1.65818e-05
-1.34521e-05
1.64786e-05
-2.49627e-05
1.60744e-05
-3.54745e-05
1.53124e-05
-4.46661e-05
1.42949e-05
-5.22104e-05
1.28479e-05
-5.79435e-05
1.08766e-05
-6.17726e-05
8.56525e-06
-6.39341e-05
6.01721e-06
-6.47545e-05
3.2819e-06
-6.44206e-05
5.31669e-07
-6.25375e-05
-2.42138e-06
-5.91247e-05
-5.20607e-06
-5.42859e-05
-7.89814e-06
-4.81555e-05
-1.04218e-05
-4.09012e-05
-1.27327e-05
-3.2686e-05
-1.4788e-05
-2.36717e-05
-1.65024e-05
-1.40092e-05
-1.78767e-05
-3.9114e-06
-1.88513e-05
6.51601e-06
-1.94323e-05
1.6942e-05
-1.94661e-05
2.70619e-05
-1.899e-05
3.69419e-05
-1.83012e-05
4.60008e-05
-1.6864e-05
5.40539e-05
-1.51261e-05
6.07896e-05
-1.27025e-05
6.59713e-05
-1.00814e-05
6.95649e-05
-7.10636e-06
7.14852e-05
-3.86919e-06
7.16831e-05
-4.79544e-07
7.01801e-05
2.94475e-06
6.70076e-05
6.22494e-06
6.22501e-05
9.32697e-06
5.60558e-05
1.2146e-05
4.8606e-05
1.45881e-05
4.01218e-05
1.66177e-05
3.07845e-05
1.82821e-05
2.11081e-05
1.89874e-05
1.22819e-05
1.72802e-05
2.40905e-05
-1.51156e-05
4.40303e-05
-2.628e-05
3.25316e-05
-3.84046e-05
3.52658e-05
-5.01303e-05
3.39661e-05
-6.08746e-05
3.1052e-05
-7.03881e-05
2.74118e-05
-7.84479e-05
2.31536e-05
-8.47202e-05
1.80736e-05
-8.90868e-05
1.25578e-05
-9.14111e-05
6.69344e-06
-9.1567e-05
5.58286e-07
-8.95836e-05
-5.53408e-06
-8.55706e-05
-1.13347e-05
-7.96694e-05
-1.67814e-05
-7.20799e-05
-2.16198e-05
-6.29896e-05
-2.56981e-05
-5.29693e-05
-2.89266e-05
-4.20446e-05
-3.13363e-05
-3.0565e-05
-3.30124e-05
-1.87772e-05
-3.37143e-05
-7.19408e-06
-3.34347e-05
4.11283e-06
-3.2505e-05
1.48016e-05
-3.07505e-05
2.46575e-05
-2.83323e-05
3.34818e-05
-2.53306e-05
4.11037e-05
-2.17965e-05
4.73974e-05
-1.78595e-05
5.22235e-05
-1.35691e-05
5.54936e-05
-9.05176e-06
5.7177e-05
-4.41075e-06
5.72273e-05
3.45357e-07
5.57027e-05
4.88949e-06
5.27527e-05
9.15862e-06
4.84785e-05
1.31312e-05
4.27534e-05
1.69412e-05
3.58158e-05
2.01913e-05
2.77158e-05
2.29166e-05
1.84908e-05
2.49846e-05
8.52387e-06
2.63384e-05
-1.83039e-06
2.69354e-05
-1.22043e-05
2.68522e-05
-2.22105e-05
2.60805e-05
-3.14936e-05
2.45955e-05
-3.96489e-05
2.24501e-05
-4.64731e-05
1.96719e-05
-5.19574e-05
1.63604e-05
-5.60771e-05
1.26843e-05
-5.87888e-05
8.72853e-06
-6.01153e-05
4.60817e-06
-5.99672e-05
3.83328e-07
-5.84066e-05
-3.98199e-06
-5.53471e-05
-8.26534e-06
-5.09099e-05
-1.23354e-05
-4.51743e-05
-1.61578e-05
-3.82733e-05
-1.96337e-05
-3.03465e-05
-2.2714e-05
-2.15392e-05
-2.53089e-05
-1.20432e-05
-2.73725e-05
-2.0287e-06
-2.88661e-05
8.25211e-06
-2.97136e-05
1.86738e-05
-2.98883e-05
2.89198e-05
-2.92364e-05
3.86385e-05
-2.802e-05
4.76845e-05
-2.591e-05
5.56802e-05
-2.31218e-05
6.26119e-05
-1.96343e-05
6.80498e-05
-1.55191e-05
7.1882e-05
-1.0938e-05
7.40009e-05
-5.98752e-06
7.4278e-05
-7.56365e-07
7.27222e-05
4.50083e-06
6.93324e-05
9.61492e-06
6.43328e-05
1.43263e-05
5.7867e-05
1.86112e-05
5.0064e-05
2.23913e-05
4.1242e-05
2.544e-05
3.16079e-05
2.79153e-05
2.16605e-05
2.8935e-05
1.26674e-05
2.62723e-05
3.67582e-05
-1.60516e-05
6.00815e-05
-2.77068e-05
4.41854e-05
-4.04393e-05
4.79975e-05
-5.29044e-05
4.64305e-05
-6.4409e-05
4.25562e-05
-7.46572e-05
3.76605e-05
-8.33236e-05
3.18202e-05
-9.01416e-05
2.48913e-05
-9.49203e-05
1.73358e-05
-9.73565e-05
9.12667e-06
-9.74945e-05
6.9464e-07
-9.523e-05
-7.7976e-06
-9.07917e-05
-1.5774e-05
-8.43188e-05
-2.32565e-05
-7.59962e-05
-2.99369e-05
-6.61883e-05
-3.5506e-05
-5.51717e-05
-3.99477e-05
-4.32015e-05
-4.33066e-05
-3.09333e-05
-4.52784e-05
-1.85134e-05
-4.61345e-05
-6.1485e-06
-4.5802e-05
5.84179e-06
-4.44976e-05
1.7133e-05
-4.20419e-05
2.74867e-05
-3.86853e-05
3.67191e-05
-3.45633e-05
4.46332e-05
-2.97116e-05
5.10518e-05
-2.42787e-05
5.59256e-05
-1.8443e-05
5.91275e-05
-1.22541e-05
6.06182e-05
-5.90224e-06
6.04274e-05
5.35755e-07
5.85392e-05
6.7781e-06
5.50439e-05
1.26546e-05
4.98618e-05
1.83136e-05
4.32897e-05
2.35129e-05
3.56016e-05
2.78787e-05
2.68811e-05
3.16366e-05
1.75651e-05
3.43002e-05
7.81329e-06
3.609e-05
-2.19115e-06
3.69396e-05
-1.21386e-05
3.67994e-05
-2.18188e-05
3.57606e-05
-3.09749e-05
3.37512e-05
-3.94179e-05
3.08927e-05
-4.6863e-05
2.71164e-05
-5.31017e-05
2.25984e-05
-5.78781e-05
1.74599e-05
-6.11708e-05
1.20207e-05
-6.28846e-05
6.32159e-06
-6.30237e-05
5.22472e-07
-6.15485e-05
-5.45736e-06
-5.85506e-05
-1.12636e-05
-5.40086e-05
-1.68774e-05
-4.81835e-05
-2.19825e-05
-4.10853e-05
-2.67317e-05
-3.27841e-05
-3.1015e-05
-2.3595e-05
-3.44977e-05
-1.35936e-05
-3.73736e-05
-3.01742e-06
-3.94422e-05
8.00632e-06
-4.07375e-05
1.89615e-05
-4.08438e-05
2.99603e-05
-4.02352e-05
4.04383e-05
-3.84979e-05
5.0279e-05
-3.5751e-05
5.90239e-05
-3.18676e-05
6.65394e-05
-2.71506e-05
7.24559e-05
-2.1436e-05
7.66077e-05
-1.50899e-05
7.88815e-05
-8.26174e-06
7.92504e-05
-1.12574e-06
7.76019e-05
6.14899e-06
7.39699e-05
1.32467e-05
6.85238e-05
1.9772e-05
6.14884e-05
2.56466e-05
5.30893e-05
3.07909e-05
4.36147e-05
3.49139e-05
3.33366e-05
3.8193e-05
2.28252e-05
3.9447e-05
1.34345e-05
3.56623e-05
5.01935e-05
-1.72626e-05
7.73427e-05
-2.95261e-05
5.64484e-05
-4.31448e-05
6.16164e-05
-5.66293e-05
5.99148e-05
-6.91958e-05
5.51221e-05
-8.04777e-05
4.89426e-05
-9.00582e-05
4.14009e-05
-9.76665e-05
3.24981e-05
-0.000102868
2.25366e-05
-0.000105597
1.18564e-05
-0.00010562
7.15355e-07
-0.00010293
-1.04863e-05
-9.77358e-05
-2.09656e-05
-9.03682e-05
-3.0627e-05
-8.11992e-05
-3.91118e-05
-7.03969e-05
-4.63072e-05
-5.81741e-05
-5.21667e-05
-4.52766e-05
-5.62057e-05
-3.16748e-05
-5.8885e-05
-1.78831e-05
-5.9928e-05
-4.28188e-06
-5.94014e-05
8.64636e-06
-5.74245e-05
2.08129e-05
-5.4209e-05
3.19599e-05
-4.98335e-05
4.18973e-05
-4.45012e-05
5.04185e-05
-3.82326e-05
5.73035e-05
-3.1163e-05
6.24867e-05
-2.36261e-05
6.59097e-05
-1.56774e-05
6.74909e-05
-7.48358e-06
6.72105e-05
8.16438e-07
6.51566e-05
8.8319e-06
6.1081e-05
1.67292e-05
5.53287e-05
2.40649e-05
4.80588e-05
3.07821e-05
3.94525e-05
3.64848e-05
2.99033e-05
4.11856e-05
1.94981e-05
4.47048e-05
8.68994e-06
4.68975e-05
-2.33869e-06
4.79677e-05
-1.32482e-05
4.77085e-05
-2.39187e-05
4.64306e-05
-3.40266e-05
4.38585e-05
-4.33233e-05
4.01887e-05
-5.15353e-05
3.53277e-05
-5.84367e-05
2.94991e-05
-6.38322e-05
2.28548e-05
-6.73852e-05
1.55736e-05
-6.92362e-05
8.17243e-06
-6.93283e-05
6.14696e-07
-6.7697e-05
-7.08804e-06
-6.43458e-05
-1.4614e-05
-5.95642e-05
-2.16587e-05
-5.322e-05
-2.83267e-05
-4.55228e-05
-3.44284e-05
-3.66903e-05
-3.98469e-05
-2.67532e-05
-4.44344e-05
-1.59587e-05
-4.81685e-05
-4.49081e-06
-5.09109e-05
7.29784e-06
-5.25269e-05
1.95253e-05
-5.30716e-05
3.14577e-05
-5.21678e-05
4.30349e-05
-5.00756e-05
5.36925e-05
-4.64091e-05
6.35212e-05
-4.16965e-05
7.17857e-05
-3.54147e-05
7.8508e-05
-2.81577e-05
8.33256e-05
-1.99076e-05
8.59854e-05
-1.09223e-05
8.63767e-05
-1.51788e-06
8.44272e-05
8.09799e-06
8.03796e-05
1.72938e-05
7.42746e-05
2.5877e-05
6.64255e-05
3.34964e-05
5.71741e-05
4.00424e-05
4.67837e-05
4.53035e-05
3.56435e-05
4.93344e-05
2.43601e-05
5.07297e-05
1.44613e-05
4.5562e-05
6.46542e-05
-1.87743e-05
9.61165e-05
-3.16835e-05
6.93588e-05
-4.64358e-05
7.6369e-05
-6.12474e-05
7.47254e-05
-7.5219e-05
6.90926e-05
-8.78949e-05
6.16181e-05
-9.87526e-05
5.226e-05
-0.000107457
4.12038e-05
-0.000113413
2.84903e-05
-0.000116476
1.49221e-05
-0.000116344
5.8337e-07
-0.000113275
-1.35568e-05
-0.0001074
-2.68443e-05
-9.89071e-05
-3.91149e-05
-8.81794e-05
-4.984e-05
-7.56266e-05
-5.8865e-05
-6.1959e-05
-6.5835e-05
-4.71195e-05
-7.10428e-05
-3.20373e-05
-7.39635e-05
-1.69951e-05
-7.49678e-05
-2.08073e-06
-7.43171e-05
1.22484e-05
-7.17563e-05
2.56486e-05
-6.76098e-05
3.78574e-05
-6.20408e-05
4.86084e-05
-5.52509e-05
5.77678e-05
-4.73917e-05
6.53004e-05
-3.86955e-05
7.09525e-05
-2.92779e-05
7.46543e-05
-1.93791e-05
7.63796e-05
-9.20912e-06
7.60847e-05
1.1111e-06
7.35881e-05
1.13283e-05
6.90455e-05
2.12717e-05
6.26075e-05
3.05026e-05
5.45005e-05
3.88887e-05
4.47635e-05
4.62214e-05
3.40116e-05
5.1937e-05
2.22693e-05
5.64465e-05
1.00842e-05
5.90821e-05
-2.42894e-06
6.04803e-05
-1.47981e-05
6.00771e-05
-2.6898e-05
5.85297e-05
-3.83197e-05
5.52793e-05
-4.87734e-05
5.06413e-05
-5.79723e-05
4.45257e-05
-6.56431e-05
3.71691e-05
-7.15055e-05
2.87166e-05
-7.55433e-05
1.96111e-05
-7.74571e-05
1.00862e-05
-7.74242e-05
5.81639e-07
-7.55577e-05
-8.95496e-06
-7.19453e-05
-1.82264e-05
-6.65608e-05
-2.70427e-05
-5.96516e-05
-3.52359e-05
-5.12466e-05
-4.28338e-05
-4.16444e-05
-4.94498e-05
-3.08565e-05
-5.52229e-05
-1.90845e-05
-5.99407e-05
-6.50886e-06
-6.34861e-05
6.61288e-06
-6.5648e-05
1.99894e-05
-6.64476e-05
3.31569e-05
-6.53351e-05
4.59077e-05
-6.28267e-05
5.82523e-05
-5.87542e-05
6.92201e-05
-5.26644e-05
7.88815e-05
-4.50758e-05
8.66133e-05
-3.58891e-05
9.2149e-05
-2.54436e-05
9.52388e-05
-1.40128e-05
9.57431e-05
-2.02242e-06
9.35406e-05
1.03005e-05
8.87931e-05
2.20412e-05
8.17439e-05
3.29264e-05
7.27747e-05
4.24655e-05
6.23005e-05
5.05152e-05
5.06905e-05
5.69136e-05
3.84053e-05
6.16195e-05
2.62067e-05
6.29269e-05
1.57019e-05
5.60674e-05
8.0355e-05
-2.05651e-05
0.000116682
-3.42298e-05
8.30247e-05
-5.02045e-05
9.23426e-05
-6.66996e-05
9.12191e-05
-8.24929e-05
8.48863e-05
-9.71013e-05
7.62268e-05
-0.000109746
6.4905e-05
-0.000119809
5.12696e-05
-0.000126786
3.5466e-05
-0.000130307
1.84421e-05
-0.000130106
3.81884e-07
-0.000126355
-1.73034e-05
-0.000119267
-3.39338e-05
-0.000109266
-4.91146e-05
-9.67248e-05
-6.23794e-05
-8.23887e-05
-7.31988e-05
-6.66116e-05
-8.16089e-05
-4.98725e-05
-8.77816e-05
-3.27437e-05
-9.10943e-05
-1.55412e-05
-9.21703e-05
1.17333e-06
-9.10296e-05
1.70299e-05
-8.76101e-05
3.18156e-05
-8.23928e-05
4.51904e-05
-7.54139e-05
5.70378e-05
-6.70974e-05
6.71327e-05
-5.7486e-05
7.53347e-05
-4.6897e-05
8.15483e-05
-3.54911e-05
8.56281e-05
-2.34586e-05
8.75854e-05
-1.11661e-05
8.70683e-05
1.62864e-06
8.41368e-05
1.42601e-05
7.89976e-05
2.64115e-05
7.1712e-05
3.77886e-05
6.24822e-05
4.81189e-05
5.14857e-05
5.72182e-05
3.91051e-05
6.43176e-05
2.5707e-05
6.98444e-05
1.17044e-05
7.30845e-05
-2.52601e-06
7.47104e-05
-1.66473e-05
7.41979e-05
-3.04627e-05
7.23442e-05
-4.35066e-05
6.83222e-05
-5.54504e-05
6.25843e-05
-6.5907e-05
5.49818e-05
-7.45201e-05
4.57817e-05
-8.11704e-05
3.53666e-05
-8.56177e-05
2.4058e-05
-8.7871e-05
1.23393e-05
-8.76855e-05
3.96239e-07
-8.54123e-05
-1.12279e-05
-8.12359e-05
-2.24028e-05
-7.52527e-05
-3.3026e-05
-6.76024e-05
-4.28863e-05
-5.85448e-05
-5.18912e-05
-4.78913e-05
-6.01027e-05
-3.61086e-05
-6.70048e-05
-2.3185e-05
-7.28637e-05
-9.24413e-06
-7.74265e-05
5.29833e-06
-8.01902e-05
2.0167e-05
-8.13164e-05
3.52415e-05
-8.04102e-05
4.99181e-05
-7.75038e-05
6.3838e-05
-7.2674e-05
7.65148e-05
-6.53403e-05
8.75612e-05
-5.61213e-05
9.66327e-05
-4.49606e-05
0.000103262
-3.20736e-05
0.00010696
-1.77111e-05
0.000107632
-2.69395e-06
0.000105053
1.2879e-05
9.94533e-05
2.76415e-05
9.1151e-05
4.12293e-05
8.05967e-05
5.30194e-05
6.84646e-05
6.26469e-05
5.52305e-05
7.01486e-05
4.1529e-05
7.53198e-05
2.83421e-05
7.61155e-05
1.71701e-05
6.72386e-05
9.75259e-05
-2.25985e-05
0.000139282
-3.7021e-05
9.74468e-05
-5.4273e-05
0.000109593
-7.27567e-05
0.000109702
-9.09785e-05
0.000103111
-0.000108126
9.33765e-05
-0.000123206
7.9982e-05
-0.000135256
6.33174e-05
-0.000143634
4.38458e-05
-0.000147708
2.25191e-05
-0.000147272
-5.3985e-08
-0.000142527
-2.20466e-05
-0.000133804
-4.26571e-05
-0.000121739
-6.11773e-05
-0.000106986
-7.71304e-05
-9.01548e-05
-9.00291e-05
-7.17688e-05
-9.99945e-05
-5.25843e-05
-0.000106965
-3.30193e-05
-0.000110657
-1.35003e-05
-0.000111687
5.24658e-06
-0.000109775
2.30201e-05
-0.000105383
3.94352e-05
-9.88067e-05
5.43055e-05
-9.02829e-05
6.74635e-05
-8.02542e-05
7.85678e-05
-6.8589e-05
8.7677e-05
-5.6005e-05
9.44749e-05
-4.22885e-05
9.91681e-05
-2.8152e-05
0.000101216
-1.32147e-05
0.000100545
2.29998e-06
9.72068e-05
1.75979e-05
9.13347e-05
3.22835e-05
8.29138e-05
4.62095e-05
7.2213e-05
5.88198e-05
5.96192e-05
6.98124e-05
4.52705e-05
7.86667e-05
2.99236e-05
8.51917e-05
1.37812e-05
8.92273e-05
-2.66095e-06
9.11524e-05
-1.89836e-05
9.05202e-05
-3.49264e-05
8.82865e-05
-4.99809e-05
8.33763e-05
-6.37109e-05
7.63143e-05
-7.57638e-05
6.70348e-05
-8.56368e-05
5.56548e-05
-9.30712e-05
4.28011e-05
-9.80778e-05
2.90645e-05
-0.000100463
1.4724e-05
-0.000100293
2.26127e-07
-9.74988e-05
-1.40216e-05
-9.26547e-05
-2.72463e-05
-8.58084e-05
-3.98717e-05
-7.73666e-05
-5.1328e-05
-6.71107e-05
-6.21478e-05
-5.5649e-05
-7.15657e-05
-4.26165e-05
-8.00383e-05
-2.83012e-05
-8.71793e-05
-1.29116e-05
-9.28155e-05
3.44992e-06
-9.65509e-05
2.03442e-05
-9.821e-05
3.7424e-05
-9.74894e-05
5.41484e-05
-9.42277e-05
7.00143e-05
-8.85391e-05
8.5082e-05
-8.04072e-05
9.82295e-05
-6.92683e-05
0.000108989
-5.57199e-05
0.000116841
-3.99261e-05
0.000121598
-2.24673e-05
0.000122535
-3.62957e-06
0.000119474
1.59405e-05
0.000112757
3.43591e-05
0.000102758
5.12291e-05
9.00356e-05
6.57409e-05
7.56226e-05
7.70613e-05
6.02661e-05
8.55054e-05
4.47863e-05
9.07996e-05
3.04403e-05
9.0463e-05
1.87784e-05
7.88992e-05
0.000116304
-2.4796e-05
0.000164078
-3.95709e-05
0.000112221
-5.8155e-05
0.000128178
-7.9014e-05
0.000130562
-0.000100475
0.000124572
-0.000121174
0.000114077
-0.000139553
9.83605e-05
-0.000154376
7.81381e-05
-0.000164522
5.39909e-05
-0.000169302
2.73006e-05
-0.00016849
-8.62974e-07
-0.000162457
-2.80771e-05
-0.000151665
-5.34493e-05
-0.000136939
-7.59043e-05
-0.000118954
-9.5116e-05
-9.86909e-05
-0.000110292
-7.74115e-05
-0.000121274
-5.53297e-05
-0.000129048
-3.27869e-05
-0.0001332
-1.07601e-05
-0.000133713
1.06263e-05
-0.000131161
3.06823e-05
-0.000125438
4.90729e-05
-0.000117197
6.57046e-05
-0.000106914
8.00609e-05
-9.46099e-05
9.24372e-05
-8.09653e-05
0.000102487
-6.60558e-05
0.000110263
-5.00647e-05
0.000115488
-3.33781e-05
0.00011781
-1.5538e-05
0.000117062
3.04793e-06
0.000113393
2.12664e-05
0.000106608
3.90678e-05
9.6995e-05
5.58224e-05
8.44505e-05
7.13646e-05
6.97178e-05
8.45456e-05
5.29975e-05
9.53876e-05
3.4966e-05
0.000103224
1.62658e-05
0.000107928
-2.73673e-06
0.000110155
-2.14321e-05
0.000109215
-4.01062e-05
0.00010696
-5.77846e-05
0.000101054
-7.3952e-05
9.24816e-05
-8.7912e-05
8.0995e-05
-9.94656e-05
6.72083e-05
-0.000108045
5.13802e-05
-0.000113445
3.44638e-05
-0.000115932
1.72112e-05
-0.000115504
-2.02585e-07
-0.000112155
-1.73712e-05
-0.000106299
-3.31027e-05
-9.85564e-05
-4.76158e-05
-8.8779e-05
-6.1107e-05
-7.77556e-05
-7.31724e-05
-6.50037e-05
-8.43182e-05
-5.06281e-05
-9.44136e-05
-3.48118e-05
-0.000102995
-1.75704e-05
-0.000110056
9.36536e-07
-0.000115057
2.01098e-05
-0.000117383
3.97145e-05
-0.000117094
5.90231e-05
-0.000113536
7.76041e-05
-0.000107119
9.48692e-05
-9.76717e-05
0.000110746
-8.51453e-05
0.000124123
-6.9097e-05
0.000134057
-4.98593e-05
0.000139753
-2.81627e-05
0.000141168
-5.04467e-06
0.00013754
1.95683e-05
0.000129283
4.26171e-05
0.000116754
6.37571e-05
0.000101226
8.12692e-05
8.3701e-05
9.4587e-05
6.54725e-05
0.000103732
4.77806e-05
0.000108492
3.22161e-05
0.000106025
2.04073e-05
9.07091e-05
0.000136712
-2.68042e-05
0.000190882
-4.13012e-05
0.000126718
-6.10663e-05
0.000147944
-8.50116e-05
0.000154508
-0.000110841
0.000150399
-0.000136438
0.000139671
-0.000159563
0.000121486
-0.000177912
9.64916e-05
-0.000190408
6.6489e-05
-0.000196259
3.31499e-05
-0.000194738
-2.38739e-06
-0.000186628
-3.61891e-05
-0.00017312
-6.69574e-05
-0.000154557
-9.44659e-05
-0.0001331
-0.000116572
-0.000109166
-0.000134224
-8.38055e-05
-0.000146633
-5.80273e-05
-0.000154825
-3.21014e-05
-0.000159125
-6.61254e-06
-0.000159202
1.774e-05
-0.000155513
4.04348e-05
-0.000148132
6.10678e-05
-0.000137828
7.9245e-05
-0.000125091
9.52205e-05
-0.000110585
0.000108923
-9.46676e-05
0.000120188
-7.73211e-05
0.000129254
-5.91315e-05
0.000135026
-3.91497e-05
0.000137803
-1.83149e-05
0.000137228
3.62244e-06
0.000133038
2.54566e-05
0.000125294
4.68118e-05
0.00011389
6.72267e-05
9.93769e-05
8.58788e-05
8.19777e-05
0.000101946
6.24758e-05
0.00011489
4.1355e-05
0.000124345
1.94069e-05
0.000129876
-2.8983e-06
0.00013246
-2.51252e-05
0.000131442
-4.6866e-05
0.000128701
-6.75186e-05
0.000121708
-8.65176e-05
0.000111482
-0.000103088
9.75657e-05
-0.000116346
8.04674e-05
-0.000126335
6.13686e-05
-0.000132495
4.06237e-05
-0.000134974
1.96892e-05
-0.000133793
-1.38455e-06
-0.000129618
-2.15468e-05
-0.000122494
-4.02269e-05
-0.000113269
-5.68414e-05
-0.000102372
-7.2005e-05
-8.98956e-05
-8.56492e-05
-7.6092e-05
-9.81222e-05
-6.06364e-05
-0.000109869
-4.31419e-05
-0.000120489
-2.36743e-05
-0.000129524
-2.68481e-06
-0.000136047
1.9637e-05
-0.000139705
4.18091e-05
-0.000139266
6.42688e-05
-0.000135995
8.61512e-05
-0.000129001
0.000106968
-0.000118489
0.000126089
-0.000104267
0.000142423
-8.54305e-05
0.000155056
-6.24923e-05
0.000162704
-3.581e-05
0.000164573
-6.91318e-06
0.000160116
2.40255e-05
0.000149668
5.30655e-05
0.000134086
7.9339e-05
0.00011444
0.000100917
9.24871e-05
0.00011654
7.02729e-05
0.000125946
4.96618e-05
0.000129103
3.318e-05
0.000122506
2.20379e-05
0.000101851
0.000158749
-2.84174e-05
0.0002193
-4.13302e-05
0.000139629
-6.13616e-05
0.000167975
-8.93729e-05
0.000182519
-0.000121604
0.00018263
-0.000154213
0.00017228
-0.000183568
0.00015084
-0.000207289
0.000120212
-0.000223056
8.22562e-05
-0.000229647
3.97427e-05
-0.000227337
-4.69509e-06
-0.000216671
-4.68544e-05
-0.000198691
-8.49351e-05
-0.000175874
-0.000117281
-0.000149002
-0.000143444
-0.000120235
-0.000162991
-9.0317e-05
-0.000176552
-6.00884e-05
-0.000185056
-3.03631e-05
-0.000188852
-9.55166e-07
-0.00018861
2.70554e-05
-0.000183524
5.28307e-05
-0.000173907
7.58927e-05
-0.00016089
9.60431e-05
-0.000145241
0.000113444
-0.000127986
0.000128452
-0.000109675
0.000141283
-9.01518e-05
0.000151415
-6.92636e-05
0.000158322
-4.60563e-05
0.000161732
-2.17247e-05
0.000161575
3.77943e-06
0.000157171
2.98611e-05
0.000148239
5.57439e-05
0.000135222
8.0245e-05
0.000118093
0.000103008
9.74602e-05
0.00012258
7.41678e-05
0.000138184
4.91993e-05
0.000149314
2.32281e-05
0.000155848
-2.67065e-06
0.000158359
-2.82678e-05
0.00015704
-5.45292e-05
0.000154963
-7.95859e-05
0.000146765
-0.000102299
0.000134195
-0.000121629
0.000116897
-0.000137496
9.63351e-05
-0.000149049
7.29215e-05
-0.000155626
4.72005e-05
-0.000158088
2.21505e-05
-0.000156035
-3.43874e-06
-0.000150456
-2.71261e-05
-0.000141794
-4.88892e-05
-0.000130555
-6.8081e-05
-0.000117963
-8.45972e-05
-0.000104454
-9.91593e-05
-8.96522e-05
-0.000112924
-7.3015e-05
-0.000126507
-5.39376e-05
-0.000139566
-3.21339e-05
-0.000151327
-7.82044e-06
-0.00016036
1.76974e-05
-0.000165223
4.38257e-05
-0.000165394
6.97311e-05
-0.0001619
9.52493e-05
-0.00015452
0.00012013
-0.00014337
0.000143502
-0.000127639
0.000164275
-0.000106203
0.000180433
-7.865e-05
0.000190866
-4.62432e-05
0.000193794
-9.8414e-06
0.000188557
2.92628e-05
0.000175355
6.62678e-05
0.000155196
9.9499e-05
0.000129752
0.000126361
0.000101587
0.000144703
7.37189e-05
0.000153815
4.93444e-05
0.000153477
3.26437e-05
0.000139209
2.27121e-05
0.000111783
0.000181461
-2.86924e-05
0.000247991
-3.90567e-05
0.000149989
-5.72686e-05
0.000186187
-9.04038e-05
0.000215656
-0.000131439
0.000223665
-0.000174434
0.000215275
-0.000213248
0.000189654
-0.0002439
0.000150865
-0.000263924
0.000102282
-0.000271921
4.77401e-05
-0.000267794
-8.82036e-06
-0.000253133
-6.1517e-05
-0.000229724
-0.000108343
-0.000199905
-0.000147101
-0.000166476
-0.000176874
-0.000131698
-0.000197769
-9.65537e-05
-0.000211698
-6.19486e-05
-0.000219662
-2.73429e-05
-0.000223458
6.67067e-06
-0.000222625
3.92905e-05
-0.000216144
6.89494e-05
-0.000203566
9.46284e-05
-0.000186569
0.000116352
-0.000166964
0.000135009
-0.000146643
0.000151393
-0.000126059
0.000165913
-0.000104671
0.00017774
-8.10899e-05
0.000186335
-5.46514e-05
0.000191319
-2.6708e-05
0.000191602
3.4968e-06
0.000186721
3.47421e-05
0.000177482
6.49836e-05
0.000162401
9.53273e-05
0.000141861
0.000123549
0.000116693
0.000147749
8.83826e-05
0.000166496
5.81439e-05
0.000179554
2.73447e-05
0.000186648
-1.79196e-06
0.000187497
-3.06923e-05
0.000185941
-6.24825e-05
0.000186754
-9.34694e-05
0.000177753
-0.000121397
0.000162124
-0.000145609
0.00014111
-0.000164866
0.000115593
-0.000178018
8.60732e-05
-0.000185101
5.42838e-05
-0.000186693
2.37427e-05
-0.000182893
-7.23944e-06
-0.000175015
-3.5004e-05
-0.000163769
-6.01353e-05
-0.000149811
-8.20396e-05
-0.000135125
-9.92835e-05
-0.000120766
-0.000113519
-0.000106019
-0.000127671
-8.91384e-05
-0.000143388
-6.83517e-05
-0.000160354
-4.34821e-05
-0.000176197
-1.50212e-05
-0.000188822
1.47199e-05
-0.000194964
4.47419e-05
-0.000195416
7.43835e-05
-0.000191542
0.000104289
-0.000184426
0.000134191
-0.000173272
0.000163384
-0.000156831
0.000190173
-0.000132991
0.000211966
-0.000100443
0.000225993
-6.02706e-05
0.000230616
-1.4464e-05
0.000224499
3.53809e-05
0.000207729
8.30388e-05
0.000181295
0.000125934
0.000147526
0.00016013
0.000110154
0.000182075
7.38649e-05
0.000190105
4.41115e-05
0.000183231
2.9157e-05
0.000154162
2.1599e-05
0.00011934
0.000203061
-2.76419e-05
0.000275632
-3.46529e-05
0.000157
-4.56633e-05
0.000197198
-8.57917e-05
0.000255783
-0.000140501
0.000278371
-0.000198651
0.000273427
-0.000250915
0.000241922
-0.000290758
0.000190711
-0.000315688
0.00012721
-0.000324641
5.66915e-05
-0.00031807
-1.53915e-05
-0.000297394
-8.21923e-05
-0.00026582
-0.000139919
-0.000227156
-0.000185765
-0.000185159
-0.000218871
-0.00014296
-0.000239968
-0.000102131
-0.000252527
-6.22564e-05
-0.000259537
-2.28241e-05
-0.000262892
1.67025e-05
-0.000262153
5.43905e-05
-0.000253834
8.84328e-05
-0.00023761
0.000116734
-0.000214871
0.000139345
-0.000189576
0.000158029
-0.000165327
0.000175388
-0.000143418
0.000191856
-0.000121139
0.000206119
-9.53523e-05
0.000217448
-6.59801e-05
0.000224268
-3.35273e-05
0.000226653
1.11239e-06
0.000223625
3.77715e-05
0.00021323
7.53789e-05
0.000195467
0.000113091
0.000171463
0.000147553
0.000141823
0.00017739
0.000107531
0.000200789
7.04439e-05
0.000216641
3.34812e-05
0.000223611
1.52864e-07
0.000220826
-3.31115e-05
0.000219206
-7.29716e-05
0.000226615
-0.000112662
0.000217444
-0.000147483
0.000196946
-0.000176038
0.000169665
-0.000198281
0.000137836
-0.000213955
0.000101748
-0.000221643
6.19717e-05
-0.000219081
2.11807e-05
-0.000212898
-1.34224e-05
-0.000201434
-4.64687e-05
-0.00018624
-7.53298e-05
-0.000168825
-9.94554e-05
-0.000151721
-0.000116388
-0.000136855
-0.000128385
-0.000123294
-0.000141232
-0.00010744
-0.000159242
-8.58922e-05
-0.000181902
-5.79607e-05
-0.000204129
-2.47645e-05
-0.000222018
1.0706e-05
-0.000230434
4.55678e-05
-0.000230277
7.9213e-05
-0.000225187
0.000112522
-0.000217735
0.000148335
-0.000209084
0.000185215
-0.000193711
0.00022054
-0.000168316
0.000250228
-0.000130131
0.000270281
-8.03227e-05
0.000277247
-2.14291e-05
0.000270187
4.24416e-05
0.0002486
0.000104626
0.000214033
0.0001605
0.000169086
0.000205077
0.000118167
0.000232996
6.92785e-05
0.000238993
3.09957e-05
0.000221515
2.25451e-05
0.000162613
1.93027e-05
0.000122583
0.000222364
-2.12772e-05
0.000296909
-2.3199e-05
0.000158925
-2.13422e-05
0.00019534
-7.38409e-05
0.000308279
-0.000151579
0.000356109
-0.000232886
0.000354736
-0.000302814
0.000311849
-0.000354813
0.000242708
-0.00038593
0.000158325
-0.000395121
6.58818e-05
-0.000382386
-2.81273e-05
-0.000352931
-0.000111645
-0.00031012
-0.00018273
-0.000259326
-0.00023656
-0.000206128
-0.000272069
-0.000155224
-0.000290874
-0.000108876
-0.000298876
-6.51677e-05
-0.000303247
-2.08934e-05
-0.000307167
2.48748e-05
-0.000307921
7.08835e-05
-0.000299843
0.000109708
-0.000276435
0.000140108
-0.000245272
0.000162736
-0.000212205
0.000181102
-0.000183694
0.000199575
-0.000161891
0.000219133
-0.000140697
0.000237649
-0.000113867
0.000252553
-8.08834e-05
0.000263421
-4.43954e-05
0.000269447
-4.91359e-06
0.00026838
3.88388e-05
0.000260289
8.34707e-05
0.000241882
0.000131499
0.000210822
0.000178613
0.000170489
0.000217723
0.000125624
0.000245654
7.98491e-05
0.000262416
3.75491e-05
0.000265911
2.32915e-06
0.000256046
-3.51275e-05
0.000256663
-8.17689e-05
0.000273257
-0.000130701
0.000266376
-0.000175283
0.000241528
-0.000213076
0.000207459
-0.000242243
0.000167003
-0.000259625
0.000119129
-0.000265389
6.77358e-05
-0.000264819
2.06103e-05
-0.000251976
-2.62647e-05
-0.000234746
-6.36985e-05
-0.00021397
-9.61063e-05
-0.00018935
-0.000124075
-0.000166051
-0.000139687
-0.000150035
-0.000144402
-0.000139627
-0.000151641
-0.00012785
-0.00017102
-0.000106959
-0.000202794
-7.44428e-05
-0.000236646
-3.26179e-05
-0.000263843
1.05666e-05
-0.000273619
5.01997e-05
-0.000269911
8.5795e-05
-0.000260783
0.000122087
-0.000254027
0.000163435
-0.000250431
0.000210164
-0.000240439
0.000257281
-0.000215432
0.000298149
-0.000170999
0.000326816
-0.000108988
0.000339639
-3.42514e-05
0.000332325
4.97562e-05
0.000305255
0.000131697
0.000260237
0.000205518
0.000199563
0.000265753
0.000128475
0.000304085
5.95702e-05
0.000307898
7.30566e-06
0.000273778
1.05555e-05
0.000159363
1.15782e-05
0.000121561
0.00023394
1.81374e-05
0.000278773
2.90735e-05
0.000147987
4.17114e-05
0.000182699
-3.81196e-05
0.000388113
-0.000161334
0.000479323
-0.00028112
0.000474522
-0.000377634
0.000408363
-0.0004453
0.000310377
-0.000482079
0.000195106
-0.000488939
7.27408e-05
-0.000470307
-4.67552e-05
-0.000429249
-0.000152702
-0.000370055
-0.000241924
-0.000301175
-0.000305439
-0.000231395
-0.000341849
-0.000168751
-0.000353517
-0.000116421
-0.000351205
-7.03233e-05
-0.000349344
-1.99741e-05
-0.000357515
3.96241e-05
-0.000367519
0.000100933
-0.000361151
0.000151439
-0.000326941
0.000185824
-0.000279657
0.000206475
-0.000232855
0.000222695
-0.000199915
0.000243401
-0.000182596
0.000269354
-0.000166649
0.000292296
-0.000136809
0.000308309
-9.68962e-05
0.00031823
-5.43153e-05
0.000322403
-9.0865e-06
0.00032148
3.97623e-05
0.000313643
9.13076e-05
0.000294338
0.000150803
0.000260573
0.000212379
0.000213755
0.000264541
0.000158812
0.000300598
0.000100598
0.00032063
4.78425e-05
0.000318668
2.55303e-06
0.000301337
-4.28724e-05
0.000302089
-9.74932e-05
0.000327878
-0.000159477
0.00032836
-0.000219672
0.000301725
-0.000269035
0.000256821
-0.00030354
0.000201509
-0.00032055
0.00013614
-0.000324394
7.158e-05
-0.000316506
1.2723e-05
-0.000312105
-3.06658e-05
-0.000301494
-7.4309e-05
-0.000276572
-0.000121029
-0.000239367
-0.00016128
-0.000203839
-0.000175215
-0.000185998
-0.000162243
-0.000182938
-0.000154701
-0.000181478
-0.00017248
-0.000162171
-0.000222101
-0.000118435
-0.000280383
-5.48293e-05