/*--------------------------------*- C++ -*----------------------------------*\
| =========                 |                                                 |
| \\      /  F ield         | OpenFOAM: The Open Source CFD Toolbox           |
|  \\    /   O peration     | Version:  2412                                  |
|   \\  /    A nd           | Website:  www.openfoam.com                      |
|    \\/     M anipulation  |                                                 |
\*---------------------------------------------------------------------------*/
FoamFile
{
    version     2.0;
    format      ascii;
    arch        "LSB;label=32;scalar=64";
    class       surfaceScalarField;
    location    "2.3";
    object      phi;
}
// * * * * * * * * * * * * * * * * * * * * * * * * * * * * * * * * * * * * * //

dimensions      [0 3 -1 0 0 0 0];

oriented        oriented;

internalField   nonuniform List<scalar> 
12640
(
-3.25013e-05
3.25013e-05
-6.17761e-05
2.92753e-05
-8.81851e-05
2.64096e-05
-0.000112654
2.44693e-05
-0.000134854
2.22018e-05
-0.000154321
1.9468e-05
-0.00017073
1.64096e-05
-0.000183857
1.31272e-05
-0.000193599
9.74263e-06
-0.000199959
6.36032e-06
-0.000203004
3.04457e-06
-0.000202775
-2.27659e-07
-0.000199673
-3.10194e-06
-0.000193959
-5.71327e-06
-0.000185984
-7.97379e-06
-0.000176103
-9.88284e-06
-0.000164719
-1.13806e-05
-0.000152212
-1.25064e-05
-0.000138913
-1.32998e-05
-0.000125215
-1.36963e-05
-0.000111392
-1.38218e-05
-9.77515e-05
-1.3642e-05
-8.45665e-05
-1.31855e-05
-7.20158e-05
-1.25488e-05
-6.0336e-05
-1.16788e-05
-4.96244e-05
-1.07136e-05
-4.00374e-05
-9.58974e-06
-3.15814e-05
-8.45737e-06
-2.43021e-05
-7.27943e-06
-1.81803e-05
-6.12239e-06
-1.32114e-05
-4.97035e-06
-9.30154e-06
-3.91141e-06
-6.39106e-06
-2.91125e-06
-4.35323e-06
-2.03804e-06
-3.01238e-06
-1.3411e-06
-2.2131e-06
-7.99798e-07
-1.81466e-06
-3.99004e-07
-1.65827e-06
-1.56734e-07
-1.58116e-06
-7.71947e-08
-1.52258e-06
-5.84647e-08
-1.41098e-06
-1.11245e-07
-1.20807e-06
-2.02307e-07
-7.7862e-07
-4.28625e-07
-5.19022e-08
-7.25855e-07
1.13332e-06
-1.18455e-06
2.89898e-06
-1.76531e-06
5.37536e-06
-2.47627e-06
8.71796e-06
-3.34255e-06
1.30289e-05
-4.31086e-06
1.84125e-05
-5.3836e-06
2.48525e-05
-6.4402e-06
3.23497e-05
-7.49774e-06
4.09388e-05
-8.59015e-06
5.05405e-05
-9.60323e-06
6.1179e-05
-1.06399e-05
7.26858e-05
-1.15077e-05
8.49592e-05
-1.22737e-05
9.77725e-05
-1.28129e-05
0.00011103
-1.32574e-05
0.000124397
-1.3366e-05
0.000137584
-1.31877e-05
0.000150365
-1.27814e-05
0.00016239
-1.20249e-05
0.000173296
-1.09064e-05
0.000182802
-9.50495e-06
0.000190457
-7.65316e-06
0.000195873
-5.41425e-06
0.000198782
-2.90746e-06
0.000198887
-1.05257e-07
0.000195831
3.05459e-06
0.000189556
6.27245e-06
0.000179992
9.56274e-06
0.00016712
1.28722e-05
0.000151055
1.6066e-05
0.000131996
1.90602e-05
0.000110287
2.17095e-05
8.63425e-05
2.39437e-05
6.05086e-05
2.58323e-05
3.18445e-05
2.86633e-05
3.18444e-05
-3.25922e-05
6.50941e-05
-5.91941e-05
5.58783e-05
-8.15602e-05
4.87771e-05
-0.000101898
4.48083e-05
-0.000119881
4.01861e-05
-0.000135014
3.46028e-05
-0.000146942
2.83382e-05
-0.000155497
2.16829e-05
-0.000160601
1.48467e-05
-0.000162237
7.99748e-06
-0.000160547
1.35515e-06
-0.0001559
-4.87235e-06
-0.000148461
-1.05409e-05
-0.000138605
-1.55694e-05
-0.000126679
-1.98963e-05
-0.000113046
-2.35172e-05
-9.81905e-05
-2.62359e-05
-8.23872e-05
-2.8308e-05
-6.62161e-05
-2.94696e-05
-4.99409e-05
-2.99715e-05
-3.39574e-05
-2.98052e-05
-1.85918e-05
-2.90064e-05
-4.12145e-06
-2.76546e-05
9.16376e-06
-2.58345e-05
2.109e-05
-2.3607e-05
3.1431e-05
-2.1056e-05
4.00741e-05
-1.8233e-05
4.68812e-05
-1.52645e-05
5.17767e-05
-1.21762e-05
5.47449e-05
-9.0926e-06
5.57987e-05
-6.02561e-06
5.49706e-05
-3.08367e-06
5.23762e-05
-3.16744e-07
4.81288e-05
2.20926e-06
4.23576e-05
4.42963e-06
3.52815e-05
6.2758e-06
2.7102e-05
7.7804e-06
1.80954e-05
8.85018e-06
8.5198e-06
9.4991e-06
-1.30034e-06
9.76259e-06
-1.10961e-05
9.68571e-06
-2.05384e-05
9.24145e-06
-2.93964e-05
8.43075e-06
-3.73526e-05
7.23161e-06
-4.41678e-05
5.63142e-06
-4.96369e-05
3.70416e-06
-5.35477e-05
1.43465e-06
-5.5794e-05
-1.09604e-06
-5.62788e-05
-3.82611e-06
-5.49574e-05
-6.70532e-06
-5.17552e-05
-9.64348e-06
-4.66591e-05
-1.25956e-05
-3.97662e-05
-1.54852e-05
-3.1099e-05
-1.82724e-05
-2.08346e-05
-2.09055e-05
-9.06842e-06
-2.32741e-05
3.98239e-06
-2.53241e-05
1.81589e-05
-2.69888e-05
3.31531e-05
-2.8251e-05
4.87445e-05
-2.89575e-05
6.45417e-05
-2.89854e-05
8.03011e-05
-2.85411e-05
9.55992e-05
-2.73224e-05
0.00011008
-2.53855e-05
0.000123271
-2.26937e-05
0.000134926
-1.93055e-05
0.00014453
-1.50179e-05
0.000151788
-1.01665e-05
0.000156364
-4.68334e-06
0.000158037
1.37942e-06
0.000156471
7.83749e-06
0.000151545
1.44887e-05
0.000143238
2.11804e-05
0.000131651
2.76539e-05
0.000116939
3.37729e-05
9.94185e-05
3.92285e-05
7.96187e-05
4.37411e-05
5.78263e-05
4.76239e-05
3.18855e-05
5.46045e-05
6.37296e-05
-3.24437e-05
9.75383e-05
-5.7788e-05
8.12233e-05
-7.90427e-05
7.00325e-05
-9.82077e-05
6.3974e-05
-0.000114906
5.68854e-05
-0.000128708
4.84047e-05
-0.000139181
3.88123e-05
-0.00014618
2.86832e-05
-0.000149601
1.82684e-05
-0.000149525
7.92366e-06
-0.000145968
-2.20232e-06
-0.000139325
-1.15146e-05
-0.000129812
-2.00546e-05
-0.000117768
-2.76136e-05
-0.000103639
-3.40272e-05
-8.79467e-05
-3.92102e-05
-7.09817e-05
-4.31985e-05
-5.32272e-05
-4.60637e-05
-3.52571e-05
-4.74402e-05
-1.73159e-05
-4.79086e-05
1.43788e-07
-4.72613e-05
1.68054e-05
-4.56683e-05
3.23391e-05
-4.31897e-05
4.64557e-05
-3.99502e-05
5.89151e-05
-3.60641e-05
6.94916e-05
-3.16311e-05
7.80145e-05
-2.67561e-05
8.43479e-05
-2.15989e-05
8.83832e-05
-1.62119e-05
9.00745e-05
-1.07836e-05
8.94169e-05
-5.36726e-06
8.64303e-05
-9.63026e-08
8.12212e-05
4.89304e-06
7.39284e-05
9.50263e-06
6.47041e-05
1.36544e-05
5.37467e-05
1.72339e-05
4.13573e-05
2.01705e-05
2.78311e-05
2.2377e-05
1.351e-05
2.38208e-05
-1.2025e-06
2.44758e-05
-1.58765e-05
2.43607e-05
-3.01374e-05
2.35036e-05
-4.35456e-05
2.184e-05
-5.57561e-05
1.94428e-05
-6.64749e-05
1.63507e-05
-7.54181e-05
1.26477e-05
-8.23951e-05
8.41192e-06
-8.72675e-05
3.77681e-06
-8.99149e-05
-1.17843e-06
-9.02884e-05
-6.33195e-06
-8.83219e-05
-1.16108e-05
-8.41034e-05
-1.68152e-05
-7.76491e-05
-2.19408e-05
-6.90755e-05
-2.68473e-05
-5.85513e-05
-3.14304e-05
-4.62358e-05
-3.55896e-05
-3.23442e-05
-3.92152e-05
-1.71108e-05
-4.22217e-05
-8.12942e-07
-4.45488e-05
1.61818e-05
-4.59526e-05
3.37482e-05
-4.65523e-05
5.12999e-05
-4.6093e-05
6.85476e-05
-4.45696e-05
8.5054e-05
-4.18907e-05
0.000100431
-3.80691e-05
0.00011409
-3.29637e-05
0.000125937
-2.68652e-05
0.000135285
-1.95162e-05
0.000141833
-1.12324e-05
0.000145398
-2.18553e-06
0.000145528
7.70769e-06
0.000142256
1.77614e-05
0.000135512
2.79243e-05
0.00012535
3.78156e-05
0.000111953
4.71687e-05
9.57294e-05
5.54506e-05
7.71002e-05
6.23705e-05
5.64353e-05
6.82904e-05
3.1715e-05
7.93247e-05
9.54452e-05
-3.43988e-05
0.000131937
-6.13643e-05
0.000108189
-8.40543e-05
9.27227e-05
-0.000104507
8.44271e-05
-0.000122204
7.45829e-05
-0.000136622
6.28232e-05
-0.000147459
4.96504e-05
-0.000154477
3.57033e-05
-0.000157606
2.13979e-05
-0.000156908
7.22537e-06
-0.000152546
-6.56433e-06
-0.000144811
-1.92506e-05
-0.000134051
-3.08177e-05
-0.00012067
-4.09933e-05
-0.000105085
-4.96119e-05
-8.79485e-05
-5.63502e-05
-6.94141e-05
-6.17321e-05
-5.04085e-05
-6.50671e-05
-3.10047e-05
-6.68426e-05
-1.17639e-05
-6.715e-05
6.90926e-06
-6.59378e-05
2.47005e-05
-6.34628e-05
4.12179e-05
-5.97075e-05
5.62063e-05
-5.49373e-05
6.93989e-05
-4.92568e-05
8.05552e-05
-4.27893e-05
8.94769e-05
-3.56798e-05
9.60893e-05
-2.82119e-05
0.000100204
-2.03263e-05
0.000101731
-1.23094e-05
0.000100705
-4.34145e-06
9.71241e-05
3.48518e-06
9.11122e-05
1.09055e-05
8.27839e-05
1.78316e-05
7.23229e-05
2.41159e-05
5.99884e-05
2.95684e-05
4.61087e-05
3.405e-05
3.09856e-05
3.75e-05
1.5053e-05
3.97533e-05
-1.27224e-06
4.08012e-05
-1.75697e-05
4.06584e-05
-3.33977e-05
3.93316e-05
-4.83607e-05
3.68029e-05
-6.20469e-05
3.31289e-05
-7.41248e-05
2.84285e-05
-8.42828e-05
2.28059e-05
-9.22731e-05
1.64025e-05
-9.79168e-05
9.42094e-06
-0.000101132
2.03714e-06
-0.000101784
-5.68006e-06
-9.99488e-05
-1.34463e-05
-9.56159e-05
-2.11486e-05
-8.88992e-05
-2.86581e-05
-7.98919e-05
-3.5855e-05
-6.87881e-05
-4.25343e-05
-5.5753e-05
-4.86246e-05
-4.10106e-05
-5.39576e-05
-2.48251e-05
-5.84076e-05
-7.46872e-06
-6.19057e-05
1.08011e-05
-6.42231e-05
2.95003e-05
-6.52519e-05
4.83816e-05
-6.49742e-05
6.70071e-05
-6.31947e-05
8.49448e-05
-5.98282e-05
0.00010171
-5.48341e-05
0.000116928
-4.81833e-05
0.000129999
-3.9937e-05
0.000140561
-3.00782e-05
0.000148183
-1.88536e-05
0.000152548
-6.54971e-06
0.000153319
6.93576e-06
0.00015036
2.07196e-05
0.000143558
3.47253e-05
0.000133078
4.8294e-05
0.000119076
6.11695e-05
0.000101859
7.26678e-05
8.19872e-05
8.22439e-05
5.9894e-05
9.03846e-05
3.36437e-05
0.000105575
0.000129089
-3.74989e-05
0.000169436
-6.71398e-05
0.00013783
-9.21491e-05
0.000117732
-0.000114524
0.000106802
-0.000133931
9.39905e-05
-0.000149621
7.85143e-05
-0.000161191
6.12205e-05
-0.000168518
4.30306e-05
-0.000171477
2.43571e-05
-0.000170223
5.97062e-06
-0.000164907
-1.18815e-05
-0.000155972
-2.8183e-05
-0.000143797
-4.29952e-05
-0.000128838
-5.59534e-05
-0.000111584
-6.68657e-05
-9.25098e-05
-7.54227e-05
-7.26102e-05
-8.16334e-05
-5.17997e-05
-8.58832e-05
-3.07868e-05
-8.78605e-05
-1.00963e-05
-8.78415e-05
9.92284e-06
-8.5956e-05
2.89038e-05
-8.24428e-05
4.64942e-05
-7.72973e-05
6.24058e-05
-7.0849e-05
7.6386e-05
-6.32382e-05
8.8186e-05
-5.45904e-05
9.75882e-05
-4.50818e-05
0.000104456
-3.5079e-05
0.000108712
-2.45809e-05
0.00011024
-1.3838e-05
0.000109048
-3.14845e-06
0.000105103
7.42983e-06
9.85162e-05
1.74936e-05
8.94559e-05
2.68928e-05
7.80938e-05
3.54784e-05
6.46853e-05
4.29772e-05
4.96303e-05
4.91052e-05
3.33273e-05
5.38032e-05
1.61673e-05
5.69136e-05
-1.3936e-06
5.83623e-05
-1.89126e-05
5.81772e-05
-3.59653e-05
5.63841e-05
-5.2119e-05
5.29562e-05
-6.69316e-05
4.79412e-05
-8.00169e-05
4.15135e-05
-9.10058e-05
3.37949e-05
-9.96683e-05
2.50654e-05
-0.000105812
1.55647e-05
-0.000109306
5.53194e-06
-0.000110124
-4.86204e-06
-0.000108178
-1.53923e-05
-0.000103658
-2.56687e-05
-9.65941e-05
-3.57217e-05
-8.71322e-05
-4.53168e-05
-7.54075e-05
-5.42591e-05
-6.16088e-05
-6.24235e-05
-4.59947e-05
-6.95722e-05
-2.87974e-05
-7.56056e-05
-1.03342e-05
-8.03697e-05
9.10696e-06
-8.36649e-05
2.92793e-05
-8.54245e-05
4.96593e-05
-8.53545e-05
6.98543e-05
-8.33903e-05
8.94575e-05
-7.94323e-05
0.000107937
-7.33146e-05
0.000124778
-6.50254e-05
0.000139424
-5.45835e-05
0.000151396
-4.20498e-05
0.000160219
-2.76749e-05
0.000165484
-1.18146e-05
0.000166817
5.60216e-06
0.000163993
2.3541e-05
0.000156994
4.17226e-05
0.000145764
5.95233e-05
0.000130504
7.64288e-05
0.000111641
9.15327e-05
8.98528e-05
0.000104034
6.55148e-05
0.000114722
3.6651e-05
0.000134439
0.000165739
-4.16328e-05
0.000211069
-7.48031e-05
0.000171001
-0.00010281
0.00014574
-0.000127872
0.000131864
-0.000149362
0.000115481
-0.000166699
9.58503e-05
-0.000179233
7.37541e-05
-0.00018687
5.06671e-05
-0.000189587
2.70748e-05
-0.000187476
3.86082e-06
-0.000180807
-1.8551e-05
-0.000170152
-3.88366e-05
-0.000156021
-5.7126e-05
-0.000138989
-7.29854e-05
-0.000119745
-8.61142e-05
-9.87017e-05
-9.64669e-05
-7.61926e-05
-0.000104144
-5.33115e-05
-0.000108766
-3.0387e-05
-0.000110784
-7.83621e-06
-0.00011039
1.39102e-05
-0.000107702
3.43802e-05
-0.000102914
5.33298e-05
-9.62473e-05
7.04172e-05
-8.79361e-05
8.53957e-05
-7.82161e-05
9.8008e-05
-6.72021e-05
0.000108034
-5.51069e-05
0.000115291
-4.23354e-05
0.00011973
-2.9019e-05
0.000121285
-1.53927e-05
0.000119885
-1.74689e-06
0.00011555
1.17656e-05
0.000108363
2.4682e-05
9.83913e-05
3.68662e-05
8.58715e-05
4.79991e-05
7.11606e-05
5.76887e-05
5.46116e-05
6.56547e-05
3.66506e-05
7.17647e-05
1.77669e-05
7.57974e-05
-1.55371e-06
7.76825e-05
-2.08358e-05
7.74586e-05
-3.95978e-05
7.51455e-05
-5.736e-05
7.07179e-05
-7.36213e-05
6.42024e-05
-8.79675e-05
5.58599e-05
-0.00010004
4.58676e-05
-0.000109502
3.45279e-05
-0.000116168
2.22308e-05
-0.000119988
9.35212e-06
-0.000120843
-4.00612e-06
-0.000118844
-1.73913e-05
-0.000114031
-3.04806e-05
-0.000106486
-4.32667e-05
-9.64168e-05
-5.53854e-05
-8.3917e-05
-6.67591e-05
-6.91455e-05
-7.71958e-05
-5.24264e-05
-8.62924e-05
-3.39684e-05
-9.40644e-05
-1.40541e-05
-0.000100284
7.09134e-06
-0.00010481
2.89446e-05
-0.000107278
5.12445e-05
-0.000107655
7.35074e-05
-0.000105654
9.52052e-05
-0.000101132
0.000115904
-9.40154e-05
0.000134814
-8.39361e-05
0.000151478
-7.12462e-05
0.00016533
-5.59001e-05
0.000175806
-3.81484e-05
0.000182344
-1.83535e-05
0.000184483
3.46137e-06
0.000181931
2.60918e-05
0.000174573
4.90801e-05
0.0001624
7.16971e-05
0.00014561
9.32205e-05
0.000124679
0.000112464
0.000100255
0.000128456
7.29688e-05
0.000142006
4.06958e-05
0.000166711
0.000206434
-4.69876e-05
0.000258057
-8.45187e-05
0.000208533
-0.000116477
0.000177699
-0.000144892
0.000160279
-0.000169142
0.00013973
-0.000188318
0.000115025
-0.00020203
8.74666e-05
-0.000210078
5.87158e-05
-0.000212388
2.93856e-05
-0.000209164
6.38828e-07
-0.000200992
-2.6723e-05
-0.000188337
-5.14922e-05
-0.000171773
-7.36912e-05
-0.000151985
-9.27719e-05
-0.000129619
-0.000108483
-0.000105444
-0.00012064
-8.05015e-05
-0.000129084
-5.48839e-05
-0.000134384
-2.93849e-05
-0.000136284
-4.441e-06
-0.000135336
1.93279e-05
-0.000131474
4.16908e-05
-0.000125279
6.23362e-05
-0.000116893
8.09225e-05
-0.000106521
9.7049e-05
-9.43415e-05
0.000110571
-8.07233e-05
0.0001214
-6.59358e-05
0.000129242
-5.01772e-05
0.000134016
-3.37919e-05
0.000135646
-1.7022e-05
0.000134044
-1.4348e-07
0.000129266
1.65449e-05
0.000121247
3.27022e-05
0.00011021
4.79042e-05
9.62691e-05
6.19402e-05
7.98469e-05
7.41113e-05
6.13077e-05
8.41941e-05
4.11684e-05
9.19039e-05
1.99826e-05
9.69828e-05
-1.74585e-06
9.94102e-05
-2.3409e-05
9.9121e-05
-4.44721e-05
9.62079e-05
-6.43688e-05
9.06144e-05
-8.25773e-05
8.24109e-05
-9.85683e-05
7.18511e-05
-0.000111955
5.92542e-05
-0.00012241
4.49832e-05
-0.000129787
2.96078e-05
-0.000133874
1.34405e-05
-0.000134814
-3.0662e-06
-0.000132653
-1.95512e-05
-0.000127373
-3.57587e-05
-0.000119227
-5.14121e-05
-0.000108328
-6.62838e-05
-9.48276e-05
-8.02598e-05
-7.89991e-05
-9.30251e-05
-6.08948e-05
-0.000104398
-4.08344e-05
-0.000114126
-1.91683e-05
-0.000121951
3.86799e-06
-0.000127846
2.79385e-05
-0.000131348
5.26523e-05
-0.000132369
7.74319e-05
-0.000130436
0.000101803
-0.000125505
0.000125068
-0.000117281
0.000146946
-0.000105814
0.000166335
-9.06332e-05
0.000182622
-7.21854e-05
0.000195117
-5.06426e-05
0.000203396
-2.6634e-05
0.000206731
1.26125e-07
0.000204593
2.82302e-05
0.00019686
5.68143e-05
0.000183552
8.50065e-05
0.000164882
0.000111892
0.00014127
0.000136075
0.000113575
0.000156149
8.24679e-05
0.000173114
4.58768e-05
0.000203302
0.000252312
-5.38263e-05
0.000311884
-9.71003e-05
0.000251807
-0.000133617
0.000214214
-0.000166264
0.000192924
-0.000193869
0.000167336
-0.000215439
0.000136595
-0.000230502
0.000102531
-0.000238834
6.70488e-05
-0.000240548
3.11013e-05
-0.000235713
-4.19579e-06
-0.000225395
-3.70431e-05
-0.000209965
-6.69215e-05
-0.000190225
-9.3433e-05
-0.000166971
-0.000116021
-0.000141105
-0.000134349
-0.000113564
-0.000148181
-8.49509e-05
-0.000157698
-5.60655e-05
-0.000163272
-2.75399e-05
-0.000164811
1.14934e-07
-0.000162991
2.64013e-05
-0.00015776
5.0987e-05
-0.000149864
7.36971e-05
-0.000139601
9.38974e-05
-0.00012672
0.000111554
-0.000111998
0.000126333
-9.55026e-05
0.000138005
-7.76078e-05
0.000146586
-5.87571e-05
0.000151791
-3.89959e-05
0.000153567
-1.87977e-05
0.000151752
1.6731e-06
0.000146385
2.19121e-05
0.000137477
4.1611e-05
0.000125078
6.03038e-05
0.00010948
7.75392e-05
9.09218e-05
9.26701e-05
6.98842e-05
0.000105232
4.69756e-05
0.000114812
2.27883e-05
0.000121169
-1.92149e-06
0.000124119
-2.66144e-05
0.000123813
-5.0642e-05
0.000120235
-7.33184e-05
0.00011329
-9.39887e-05
0.000103081
-0.00011203
8.98926e-05
-0.00012704
7.42637e-05
-0.000138679
5.66221e-05
-0.000146767
3.76964e-05
-0.000151316
1.7989e-05
-0.000152244
-2.13678e-06
-0.00014966
-2.21337e-05
-0.000143909
-4.15082e-05
-0.000135027
-6.02927e-05
-0.000123152
-7.81589e-05
-0.000108484
-9.49277e-05
-9.11715e-05
-0.000110339
-7.14788e-05
-0.000124092
-4.95771e-05
-0.000136028
-2.57703e-05
-0.000145757
-5.08278e-07
-0.000153108
2.61769e-05
-0.000158033
5.36573e-05
-0.00015985
8.14861e-05
-0.000158266
0.000109343
-0.000153363
0.000136274
-0.000144213
0.000161497
-0.000131036
0.000184219
-0.000113354
0.00020368
-9.16456e-05
0.00021897
-6.59332e-05
0.000229236
-3.69005e-05
0.000234205
-4.84214e-06
0.000232696
2.97414e-05
0.000224625
6.48871e-05
0.000210036
9.95958e-05
0.000189023
0.000132904
0.000162134
0.000162961
0.000130251
0.000188032
9.47203e-05
0.000208646
5.25677e-05
0.000245454
0.000304879
-6.25197e-05
0.000374404
-0.000112799
0.000302085
-0.000155241
0.000256656
-0.000192839
0.000230522
-0.000224466
0.000198965
-0.000248951
0.000161082
-0.000265565
0.000119146
-0.000274043
7.55266e-05
-0.0002748
3.18565e-05
-0.000267948
-1.1047e-05
-0.000254656
-5.03339e-05
-0.000235644
-8.59299e-05
-0.000211749
-0.000117325
-0.000184184
-0.000143586
-0.000153981
-0.00016455
-0.000122044
-0.000180118
-8.91589e-05
-0.000190585
-5.65646e-05
-0.000195867
-2.45659e-05
-0.000196808
6.09234e-06
-0.000193647
3.54165e-05
-0.000187084
6.27131e-05
-0.00017716
8.75471e-05
-0.000164435
0.000109838
-0.000149011
0.000129285
-0.000131446
0.000145436
-0.000111654
0.000158363
-9.05338e-05
0.00016759
-6.79848e-05
0.000173291
-4.46966e-05
0.000175422
-2.09292e-05
0.000173349
3.74613e-06
0.000167479
2.77814e-05
0.000157572
5.1519e-05
0.000143637
7.42392e-05
0.000125942
9.52344e-05
0.00010478
0.000113832
8.06442e-05
0.000129367
5.42487e-05
0.000141207
2.64003e-05
0.000149017
-2.11355e-06
0.000152632
-3.05983e-05
0.000152297
-5.82983e-05
0.000147934
-8.44728e-05
0.000139465
-0.000108193
0.000126801
-0.000128866
0.000110565
-0.000145822
9.12187e-05
-0.000158903
6.97031e-05
-0.000167817
4.66104e-05
-0.000172601
2.2773e-05
-0.000173437
-1.30014e-06
-0.000170523
-2.50463e-05
-0.000163923
-4.8107e-05
-0.000154045
-7.01697e-05
-0.000141119
-9.10854e-05
-0.000125028
-0.000111019
-0.000106062
-0.000129307
-8.44971e-05
-0.000145657
-6.05172e-05
-0.000160008
-3.42385e-05
-0.000172035
-6.13854e-06
-0.000181207
2.33488e-05
-0.00018752
5.4026e-05
-0.000190528
8.56055e-05
-0.000189846
0.000117111
-0.000184869
0.000148235
-0.000175337
0.000177775
-0.000160575
0.000205024
-0.000140603
0.000228579
-0.000115201
0.000247463
-8.48176e-05
0.000260645
-5.00812e-05
0.000267563
-1.17579e-05
0.000267155
3.01512e-05
0.000259026
7.30165e-05
0.00024285
0.00011577
0.00021893
0.000156822
0.000188
0.000193891
0.000151414
0.000224619
0.000110044
0.000250015
6.10699e-05
0.000294428
0.000365948
-7.33707e-05
0.000447774
-0.000132494
0.000361208
-0.000182107
0.00030627
-0.000225836
0.000274254
-0.000262444
0.000235572
-0.000290197
0.000188835
-0.000308378
0.000137328
-0.000316941
8.40916e-05
-0.000316047
3.09648e-05
-0.000306636
-2.04552e-05
-0.000289424
-6.7544e-05
-0.000265803
-0.00010955
-0.000236953
-0.000146172
-0.000204079
-0.000176464
-0.00016824
-0.000200388
-0.000130811
-0.000217543
-9.32921e-05
-0.000228103
-5.60574e-05
-0.000233101
-1.99861e-05
-0.000232878
1.45193e-05
-0.000228152
4.68427e-05
-0.000219407
7.71273e-05
-0.000207445
0.000104652
-0.000191959
0.000129356
-0.000173715
0.00015058
-0.00015267
0.00016837
-0.000129444
0.000182361
-0.000104525
0.000192716
-7.83401e-05
0.000199173
-5.1154e-05
0.000201454
-2.3211e-05
0.000199522
5.67749e-06
0.000193153
3.41499e-05
0.000182179
6.24935e-05
0.000166591
8.98267e-05
0.000146331
0.000115494
0.000121899
0.000138264
9.39431e-05
0.000157323
6.32753e-05
0.000171874
3.08752e-05
0.000181417
-2.28665e-06
0.000185794
-3.54512e-05
0.000185462
-6.78287e-05
0.000180312
-9.83348e-05
0.000169971
-0.000126041
0.000154508
-0.000149824
0.000134348
-0.000169216
0.000110609
-0.000183728
8.42145e-05
-0.000193438
5.63199e-05
-0.000198409
2.77444e-05
-0.000198877
-8.31228e-07
-0.00019522
-2.87031e-05
-0.000187764
-5.55616e-05
-0.000176792
-8.11409e-05
-0.000162389
-0.000105489
-0.000144872
-0.000128537
-0.000124207
-0.000149972
-0.000100458
-0.000169406
-7.39692e-05
-0.000186497
-4.51164e-05
-0.000200888
-1.41198e-05
-0.000212204
1.88782e-05
-0.000220519
5.34271e-05
-0.000225077
8.93383e-05
-0.000225757
0.000125842
-0.000221372
0.000162117
-0.000211611
0.00019712
-0.000195578
0.000229335
-0.000172819
0.000257918
-0.000143785
0.000281361
-0.000108259
0.000298437
-6.71552e-05
0.000308189
-2.15083e-05
0.000309248
2.90922e-05
0.000301039
8.12247e-05
0.0002833
0.000133509
0.000256118
0.000184004
0.000220288
0.000229723
0.000177578
0.00026733
0.000129261
0.000298331
7.16965e-05
0.000351991
0.000437644
-8.73604e-05
0.000535134
-0.000156948
0.000430797
-0.000215398
0.000364719
-0.000266597
0.000325454
-0.000309121
0.000278096
-0.000340783
0.000220497
-0.000360714
0.00015726
-0.000368779
9.21585e-05
-0.00036563
2.78191e-05
-0.000352375
-3.37096e-05
-0.000330288
-8.96326e-05
-0.000300794
-0.000139048
-0.000265645
-0.000181313
-0.000225874
-0.00021623
-0.000183759
-0.000242501
-0.000140128
-0.000261172
-9.64408e-05
-0.00027179
-5.38971e-05
-0.000275643
-1.31261e-05
-0.000273648
2.52554e-05
-0.000266533
6.12555e-05
-0.000255407
9.45827e-05
-0.000240771
0.000125336
-0.000222711
0.000152445
-0.000200823
0.000176028
-0.000176252
0.000195503
-0.000148918
0.000210982
-0.000120003
0.000222337
-8.96955e-05
0.000229746
-5.85628e-05
0.000232608
-2.60734e-05
0.000230951
7.33536e-06
0.0002243
4.08007e-05
0.000212377
7.44166e-05
0.000194784
0.00010742
0.000171844
0.000138433
0.000143615
0.000166493
0.000110828
0.000190109
7.46418e-05
0.000208061
3.65276e-05
0.000219531
-2.38198e-06
0.000224703
-4.1303e-05
0.000224383
-7.9589e-05
0.000218598
-0.000115758
0.00020614
-0.000148235
0.000186985
-0.000176051
0.000162164
-0.00019811
0.000132667
-0.000214358
0.000100461
-0.000224579
6.65409e-05
-0.000229461
3.26261e-05
-0.000229254
-1.03846e-06
-0.000224555
-3.34016e-05
-0.000215792
-6.43243e-05
-0.000203426
-9.35061e-05
-0.000187636
-0.00012128
-0.000168403
-0.00014777
-0.000145707
-0.000172668
-0.000119754
-0.000195359
-9.05625e-05
-0.000215688
-5.86524e-05
-0.000232798
-2.42915e-05
-0.000246565
1.23792e-05
-0.00025719
5.1278e-05
-0.000263976
9.20015e-05
-0.000266479
0.000134106
-0.000263475
0.000176604
-0.000254108
0.000217857
-0.000236833
0.000257052
-0.000212015
0.000291851
-0.000178585
0.000321273
-0.000137679
0.000343358
-8.92392e-05
0.000356827
-3.49771e-05
0.000360228
2.56908e-05
0.00035248
8.89726e-05
0.000332971
0.000153019
0.000301833
0.000215144
0.000260067
0.00027149
0.000209998
0.000317397
0.000152996
0.000355332
8.54024e-05
0.000419584
0.000523047
-0.000105065
0.0006402
-0.00018833
0.000514063
-0.000256859
0.000433246
-0.00031708
0.000385675
-0.000366782
0.000327801
-0.000402936
0.000256653
-0.000424273
0.000178599
-0.000431322
9.92042e-05
-0.000424885
2.1379e-05
-0.000406549
-5.20421e-05
-0.000378135
-0.000118041
-0.000341399
-0.000175782
-0.000298059
-0.000224656
-0.0002505
-0.000263789
-0.000199853
-0.000293145
-0.000148538
-0.000312487
-9.77118e-05
-0.000322615
-4.91689e-05
-0.000324185
-3.61973e-06
-0.000319196
3.88173e-05
-0.00030897
7.88376e-05
-0.000295427
0.000116003
-0.000277935
0.000149804
-0.000256512
0.000180237
-0.000231255
0.00020598
-0.000201996
0.000227356
-0.000170294
0.000244249
-0.000136895
0.000257009
-0.000102456
0.000265485
-6.70384e-05
0.000269547
-3.01355e-05
0.000268361
8.5208e-06
0.000261963
4.7198e-05
0.000249278
8.71014e-05
0.000230134
0.000126563
0.000203868
0.000164698
0.000170849
0.000199512
0.000132077
0.00022888
8.91073e-05
0.000251031
4.37182e-05
0.00026492
-2.36837e-06
0.00027079
-4.86051e-05
0.00027062
-9.43362e-05
0.000264329
-0.000137674
0.000249478
-0.000176468
0.000225779
-0.000209024
0.000194719
-0.000234329
0.000157971
-0.000251936
0.000118068
-0.00026259
7.71944e-05
-0.000266594
3.66304e-05
-0.000265145
-2.48806e-06
-0.000258836
-3.97098e-05
-0.000248307
-7.4853e-05
-0.000234088
-0.000107725
-0.000216819
-0.000138549
-0.000196104
-0.000168484
-0.000171591
-0.000197181
-0.000142941
-0.00022401
-0.00011074
-0.00024789
-7.53662e-05
-0.000268173
-3.72686e-05
-0.000284664
3.00937e-06
-0.000297468
4.64077e-05
-0.000307374
9.26986e-05
-0.00031277
0.000141374
-0.000312151
0.000191334
-0.000304069
0.00024118
-0.00028668
0.000288174
-0.000259008
0.000331278
-0.000221688
0.000367997
-0.000174397
0.00039654
-0.000117782
0.000415044
-5.34819e-05
0.000421872
1.88623e-05
0.000415063
9.57826e-05
0.000394048
0.000174036
0.000358276
0.000250917
0.000309181
0.000320583
0.000250046
0.00037653
0.000183539
0.00042184
0.000102638
0.000500486
0.000625685
-0.000127672
0.000767871
-0.000228013
0.000614405
-0.000308937
0.000514169
-0.000380237
0.000456976
-0.000438372
0.000385937
-0.000479434
0.000297714
-0.000502253
0.000201416
-0.000507028
0.000103979
-0.000495447
9.79741e-06
-0.000470362
-7.71247e-05
-0.000433766
-0.000154639
-0.000387866
-0.00022168
-0.000334863
-0.000277658
-0.000276908
-0.000321743
-0.000216493
-0.000353561
-0.000155668
-0.000373312
-9.68498e-05
-0.000381434
-4.1481e-05
-0.000379553
9.13579e-06
-0.000369812
5.62328e-05
-0.000356067
0.000100459
-0.000339653
0.000141914
-0.000319391
0.000179896
-0.000294493
0.000213356
-0.000264716
0.00024201
-0.00023065
0.000265196
-0.00019348
0.000283582
-0.000155281
0.000297749
-0.000116622
0.000307589
-7.6878e-05
0.00031307
-3.56159e-05
0.000313282
8.30883e-06
0.000307624
5.28557e-05
0.000295114
9.96108e-05
0.000274373
0.000147303
0.000244566
0.000194504
0.000205852
0.000238226
0.000159492
0.000275241
0.00010764
0.000302884
5.30642e-05
0.000319497
-2.16033e-06
0.000326016
-5.76067e-05
0.000326067
-0.000113115
0.000319838
-0.000165861
0.000302224
-0.000212697
0.000272615
-0.000251153
0.000233175
-0.00027998
0.000186796
-0.000298878
0.000136965
-0.000308821
8.71368e-05
-0.000311457
3.92659e-05
-0.000307934
-6.01213e-06
-0.000299296
-4.83478e-05
-0.000286483
-8.76661e-05
-0.000270471
-0.000123738
-0.000251447
-0.000157572
-0.00022922
-0.000190712
-0.000202659
-0.000223741
-0.000171288
-0.000255382
-0.00013543
-0.000283749
-9.61159e-05
-0.000307489
-5.40753e-05
-0.000326706
-9.52158e-06
-0.000342023
3.79744e-05
-0.00035487
9.01442e-05
-0.000364939
0.000146995
-0.000369003
0.000206217
-0.000363293
0.000265617
-0.000346081
0.000323406
-0.000316797
0.000376266
-0.000274547
0.00042216
-0.000220291
0.000459025
-0.000154648
0.00048455
-7.90076e-05
0.000496416
6.99674e-06
0.000491973
0.000100227
0.000469318
0.000196691
0.000428418
0.000291815
0.000370442
0.000378558
0.000300228
0.000446745
0.000221747
0.000500322
0.000124628
0.000597605
0.000750312
-0.000155293
0.000923164
-0.000274723
0.000733838
-0.000370168
0.000609617
-0.000455347
0.000542154
-0.000525131
0.000455718
-0.000572506
0.000345086
-0.000596214
0.000225128
-0.000597755
0.000105522
-0.000578423
-9.53632e-06
-0.000544287
-0.000111265
-0.000496981
-0.000201944
-0.000439563
-0.000279098
-0.000374676
-0.000342547
-0.0003045
-0.000391919
-0.000231517
-0.000426545
-0.000158666
-0.000446164
-8.95088e-05
-0.000450592
-2.61387e-05
-0.000442924
2.9886e-05
-0.000425838
8.1352e-05
-0.000407534
0.000130378
-0.000388681
0.000177373
-0.000366387
0.000220994
-0.000338116
0.000259414
-0.000303136
0.000290718
-0.000261955
0.000315394
-0.000218156
0.000334578
-0.000174465
0.000349543
-0.000131587
0.000360833
-8.8167e-05
0.000367685
-4.24682e-05
0.000369309
6.68574e-06
0.000364448
5.77158e-05
0.000352812
0.000111247
0.000331505
0.000168611
0.000298199
0.000227811
0.000252568
0.000283858
0.000196553
0.000331257
0.000133101
0.000366336
6.60726e-05
0.000386527
-2.01288e-06
0.000394102
-7.05474e-05
0.000394602
-0.000138841
0.000388131
-0.000203734
0.000367118
-0.000260799
0.00032968
-0.000306592
0.000278967
-0.000339119
0.000219323
-0.000358383
0.000156229
-0.000366718
9.5471e-05
-0.000367855
4.0403e-05
-0.000362136
-1.17315e-05
-0.000351184
-5.92997e-05
-0.000335891
-0.00010296
-0.00031763
-0.000142
-0.000297471
-0.000177732
-0.0002745
-0.000213683
-0.000246293
-0.000251948
-0.000211261
-0.000290415
-0.000170308
-0.000324702
-0.000125324
-0.000352475
-7.83966e-05
-0.000373635
-3.00027e-05
-0.000390417
2.19266e-05
-0.000406799
8.1305e-05
-0.000424318
0.000147618
-0.000435316
0.000218745
-0.00043442
0.000291173
-0.000418509
0.000361093
-0.000386716
0.000426227
-0.000339681
0.000483744
-0.000277809
0.00053157
-0.000202474
0.000566601
-0.000114038
0.000586228
-1.2629e-05
0.000585197
0.000101257
0.000561431
0.000220456
0.000513502
0.000339743
0.000442913
0.000449148
0.000358183
0.000531476
0.000265738
0.000592766
0.000150947
0.000712395
0.00090126
-0.000180648
0.00110381
-0.000318618
0.000871809
-0.000430369
0.000721366
-0.000536318
0.000648101
-0.000623431
0.000542832
-0.000679679
0.000401335
-0.000703433
0.000248881
-0.00069874
0.000100823
-0.000671087
-3.7183e-05
-0.000624131
-0.000158223
-0.000563245
-0.000262832
-0.000491296
-0.000351049
-0.000411521
-0.000422322
-0.000325756
-0.000477684
-0.000237027
-0.000515275
-0.000148596
-0.000534595
-6.59971e-05
-0.000533191
5.99001e-06
-0.000514911
6.69492e-05
-0.000486799
0.000122208
-0.000462795
0.000177753
-0.000444227
0.000233405
-0.000422041
0.000285734
-0.000390446
0.000331034
-0.000348437
0.000365545
-0.000296466
0.000389944
-0.000242554
0.000407683
-0.000192203
0.000421889
-0.000145792
0.000433577
-9.98543e-05
0.000440949
-4.98399e-05
0.000443278
4.35694e-06
0.000439941
6.10532e-05
0.000429687
0.0001215
0.000408983
0.000189315
0.000373162
0.000263633
0.000320301
0.00033672
0.000252019
0.00039954
0.000172419
0.000445937
8.63261e-05
0.000472621
-2.27514e-06
0.000482704
-9.12753e-05
0.000483603
-0.00017872
0.000475577
-0.000260409
0.000448807
-0.000330617
0.000399889
-0.000384682
0.000333032
-0.000420167
0.000254808
-0.000438445
0.000174507
-0.000444693
0.000101719
-0.00044251
3.82193e-05
-0.000435616
-1.86258e-05
-0.000422669
-7.22473e-05
-0.000404853
-0.000120778
-0.000384797
-0.000162056
-0.000365457
-0.000197072
-0.000344561
-0.000234579
-0.000315956
-0.000280553
-0.000275745