/*--------------------------------*- C++ -*----------------------------------*\
| =========                 |                                                 |
| \\      /  F ield         | OpenFOAM: The Open Source CFD Toolbox           |
|  \\    /   O peration     | Version:  2412                                  |
|   \\  /    A nd           | Website:  www.openfoam.com                      |
|    \\/     M anipulation  |                                                 |
\*---------------------------------------------------------------------------*/
FoamFile
{
    version     2.0;
    format      ascii;
    arch        "LSB;label=32;scalar=64";
    class       surfaceScalarField;
    location    "7.15";
    object      alphaPhi0.ethanol;
}
// * * * * * * * * * * * * * * * * * * * * * * * * * * * * * * * * * * * * * //

dimensions      [0 3 -1 0 0 0 0];

oriented        oriented;

internalField   nonuniform List<scalar> 
12640
(
-5.905e-06
5.90501e-06
-9.98668e-06
4.07822e-06
-1.19719e-05
1.98608e-06
-1.25544e-05
5.84133e-07
-1.24393e-05
-1.13904e-07
-1.22873e-05
-1.51378e-07
-1.25338e-05
2.4685e-07
-1.32997e-05
7.66234e-07
-1.45324e-05
1.23294e-06
-1.61303e-05
1.59801e-06
-1.79083e-05
1.77758e-06
-1.97668e-05
1.85817e-06
-2.16637e-05
1.89645e-06
-2.35394e-05
1.87549e-06
-2.54439e-05
1.90476e-06
-2.73929e-05
1.94852e-06
-2.94517e-05
2.05882e-06
-3.16739e-05
2.22257e-06
-3.40941e-05
2.42031e-06
-3.67285e-05
2.63438e-06
-3.95395e-05
2.81099e-06
-4.25379e-05
2.99851e-06
-4.56376e-05
3.10004e-06
-4.87184e-05
3.08108e-06
-5.16615e-05
2.94313e-06
-5.43099e-05
2.64859e-06
-5.65038e-05
2.19418e-06
-5.80941e-05
1.59074e-06
-5.88877e-05
7.94205e-07
-5.87668e-05
-1.20271e-07
-5.75825e-05
-1.18384e-06
-5.52296e-05
-2.35249e-06
-5.16226e-05
-3.60668e-06
-4.67938e-05
-4.82887e-06
-4.0745e-05
-6.04909e-06
-3.35833e-05
-7.16189e-06
-2.5444e-05
-8.13898e-06
-1.65266e-05
-8.91722e-06
-7.11443e-06
-9.41219e-06
2.56996e-06
-9.68447e-06
1.2253e-05
-9.68321e-06
2.16493e-05
-9.3963e-06
3.051e-05
-8.86043e-06
3.85991e-05
-8.08941e-06
4.57115e-05
-7.11258e-06
5.16801e-05
-5.96842e-06
5.64796e-05
-4.79922e-06
5.99327e-05
-3.45225e-06
6.21584e-05
-2.22503e-06
6.31354e-05
-9.7732e-07
6.30327e-05
1.02538e-07
6.19669e-05
1.06686e-06
6.0087e-05
1.88128e-06
5.758e-05
2.5079e-06
5.46074e-05
2.9731e-06
5.13167e-05
3.29141e-06
4.7859e-05
3.45847e-06
4.43961e-05
3.46321e-06
4.09966e-05
3.39901e-06
3.77848e-05
3.21095e-06
3.48116e-05
2.97236e-06
3.20295e-05
2.78149e-06
2.94499e-05
2.57958e-06
2.70336e-05
2.41703e-06
2.4731e-05
2.30407e-06
2.2516e-05
2.21634e-06
2.03777e-05
2.13912e-06
1.82568e-05
2.12119e-06
1.62284e-05
2.0284e-06
1.43242e-05
1.90476e-06
1.26899e-05
1.63505e-06
1.14619e-05
1.22808e-06
1.079e-05
6.71359e-07
1.07117e-05
7.80712e-08
1.10735e-05
-3.61849e-07
1.14599e-05
-3.87036e-07
1.11803e-05
2.78563e-07
9.49139e-06
1.68953e-06
5.68002e-06
3.81222e-06
5.67964e-06
-5.01131e-06
1.09212e-05
-6.03858e-06
5.10705e-06
-3.19117e-06
-8.60277e-07
2.05587e-06
-4.66185e-06
8.12892e-06
-6.18614e-06
1.38445e-05
-5.86641e-06
1.84129e-05
-4.32097e-06
2.1492e-05
-2.31266e-06
2.31331e-05
-4.08315e-07
2.36132e-05
1.11786e-06
2.3225e-05
2.16539e-06
2.22725e-05
2.81033e-06
2.09615e-05
3.20739e-06
1.94094e-05
3.4271e-06
1.77141e-05
3.60052e-06
1.58553e-05
3.80737e-06
1.37989e-05
4.11496e-06
1.14819e-05
4.53937e-06
8.85844e-06
5.04358e-06
5.89857e-06
5.59446e-06
2.58286e-06
6.12714e-06
-1.05022e-06
6.63176e-06
-4.94424e-06
6.99402e-06
-9.02596e-06
7.16298e-06
-1.31563e-05
7.07405e-06
-1.72077e-05
6.7009e-06
-2.10233e-05
6.01096e-06
-2.4447e-05
5.01556e-06
-2.71957e-05
3.54381e-06
-2.92275e-05
1.91246e-06
-3.03813e-05
-2.93955e-08
-3.05415e-05
-2.19212e-06
-2.96653e-05
-4.48289e-06
-2.76773e-05
-6.81674e-06
-2.46501e-05
-9.07585e-06
-2.06719e-05
-1.11399e-05
-1.5908e-05
-1.29028e-05
-1.04989e-05
-1.43265e-05
-4.55089e-06
-1.53605e-05
1.63718e-06
-1.58726e-05
7.81511e-06
-1.58611e-05
1.37274e-05
-1.53086e-05
1.91412e-05
-1.42739e-05
2.38256e-05
-1.27732e-05
2.76421e-05
-1.09282e-05
3.04912e-05
-8.81608e-06
3.22274e-05
-6.53478e-06
3.29736e-05
-4.19848e-06
3.25853e-05
-1.83606e-06
3.1194e-05
4.15434e-07
2.88402e-05
2.45792e-06
2.57312e-05
4.17662e-06
2.20137e-05
5.59893e-06
1.7853e-05
6.66891e-06
1.34469e-05
7.37975e-06
8.96594e-06
7.77278e-06
4.54262e-06
7.88168e-06
2.91178e-07
7.71437e-06
-3.66094e-06
7.35102e-06
-7.27439e-06
6.8247e-06
-1.05286e-05
6.22756e-06
-1.34098e-05
5.6644e-06
-1.59787e-05
5.15035e-06
-1.82759e-05
4.71534e-06
-2.03501e-05
4.37825e-06
-2.22212e-05
4.08608e-06
-2.3907e-05
3.82324e-06
-2.53028e-05
3.51636e-06
-2.63118e-05
3.03769e-06
-2.66838e-05
2.27694e-06
-2.61281e-05
1.07898e-06
-2.42967e-05
-6.03649e-07
-2.09436e-05
-2.68107e-06
-1.6043e-05
-4.82131e-06
-9.93445e-06
-6.47016e-06
-3.44064e-06
-6.88078e-06
2.25076e-06
-5.41126e-06
5.49398e-06
-1.55218e-06
4.76811e-06
4.53684e-06
1.04477e-05
-4.10036e-06
1.50223e-05
-2.69932e-06
3.70801e-06
3.55022e-06
-7.10874e-06
1.25097e-05
-1.3621e-05
2.24265e-05
-1.61029e-05
3.16357e-05
-1.50757e-05
3.91033e-05
-1.17881e-05
4.44304e-05
-7.63911e-06
4.77004e-05
-3.67813e-06
4.92664e-05
-4.47762e-07
4.95427e-05
1.88944e-06
4.89028e-05
3.45041e-06
4.765e-05
4.46019e-06
4.59613e-05
5.11563e-06
4.39293e-05
5.63185e-06
4.15638e-05
6.17236e-06
3.88422e-05
6.83611e-06
3.57367e-05
7.64488e-06
3.22035e-05
8.57689e-06
2.81992e-05
9.5986e-06
2.37228e-05
1.06033e-05
1.88257e-05
1.15291e-05
1.35778e-05
1.22426e-05
8.03896e-06
1.27028e-05
2.40986e-06
1.27042e-05
-3.18341e-06
1.2295e-05
-8.5386e-06
1.13669e-05
-1.33856e-05
9.86347e-06
-1.78208e-05
7.97997e-06
-2.13745e-05
5.46685e-06
-2.39171e-05
2.51372e-06
-2.54112e-05
-6.97153e-07
-2.58049e-05
-4.08814e-06
-2.4909e-05
-7.71207e-06
-2.28478e-05
-1.11372e-05
-1.97084e-05
-1.42798e-05
-1.55748e-05
-1.70369e-05
-1.06477e-05
-1.92538e-05
-5.14874e-06
-2.08595e-05
5.96462e-07
-2.16179e-05
6.35024e-06
-2.16149e-05
1.17702e-05
-2.07282e-05
1.65744e-05
-1.90772e-05
2.06198e-05
-1.68179e-05
2.37021e-05
-1.40108e-05
2.56645e-05
-1.07793e-05
2.6407e-05
-7.27741e-06
2.58165e-05
-3.60668e-06
2.41072e-05
-1.26048e-07
2.13415e-05
3.1798e-06
1.74685e-05
6.32894e-06
1.28083e-05
8.83602e-06
7.57764e-06
1.08297e-05
1.91197e-06
1.2335e-05
-3.99442e-06
1.32869e-05
-9.94401e-06
1.37242e-05
-1.57663e-05
1.37069e-05
-2.1329e-05
1.32802e-05
-2.65029e-05
1.25275e-05
-3.12194e-05
1.15427e-05
-3.54548e-05
1.04631e-05
-3.92008e-05
9.40938e-06
-4.2484e-05
8.4316e-06
-4.53452e-05
7.57414e-06
-4.78331e-05
6.86382e-06
-4.99791e-05
6.23038e-06
-5.17525e-05
5.59586e-06
-5.30428e-05
4.80643e-06
-5.36627e-05
3.65793e-06
-5.3307e-05
1.9221e-06
-5.15806e-05
-6.45892e-07
-4.80425e-05
-4.13969e-06
-4.23511e-05
-8.37008e-06
-3.44341e-05
-1.27369e-05
-2.46982e-05
-1.62059e-05
-1.42182e-05
-1.73599e-05
-4.71154e-06
-1.49165e-05
2.03164e-06
-8.29654e-06
3.78283e-06
2.78763e-06
1.42303e-05
-3.93142e-06
1.89538e-05
-1.15548e-06
9.33125e-07
7.45076e-06
-1.57147e-05
1.938e-05
-2.55504e-05
3.21662e-05
-2.88894e-05
4.37749e-05
-2.66844e-05
5.2988e-05
-2.10005e-05
5.944e-05
-1.40902e-05
6.33759e-05
-7.61332e-06
6.53265e-05
-2.39812e-06
6.58712e-05
1.34494e-06
6.54932e-05
3.82889e-06
6.44767e-05
5.47633e-06
6.30153e-05
6.57757e-06
6.11727e-05
7.47448e-06
5.89357e-05
8.40979e-06
5.62588e-05
9.51343e-06
5.30693e-05
1.08344e-05
4.93066e-05
1.23399e-05
4.49342e-05
1.39717e-05
3.99428e-05
1.55956e-05
3.4341e-05
1.71319e-05
2.81987e-05
1.83856e-05
2.16955e-05
1.92065e-05
1.49122e-05
1.9488e-05
8.06929e-06
1.91387e-05
1.38031e-06
1.80568e-05
-4.95339e-06
1.61977e-05
-1.06058e-05
1.36329e-05
-1.54565e-05
1.0318e-05
-1.93166e-05
6.37396e-06
-2.1914e-05
1.9002e-06
-2.31466e-05
-2.85593e-06
-2.32821e-05
-7.57727e-06
-2.19391e-05
-1.24809e-05
-1.93158e-05
-1.69039e-05
-1.55421e-05
-2.08116e-05
-1.08505e-05
-2.39467e-05
-5.54926e-06
-2.6162e-05
1.04259e-07
-2.72722e-05
5.71027e-06
-2.72217e-05
1.09927e-05
-2.60117e-05
1.56346e-05
-2.37207e-05
1.93121e-05
-2.04973e-05
2.18287e-05
-1.65278e-05
2.30827e-05
-1.20333e-05
2.27959e-05
-6.99143e-06
2.13502e-05
-2.16193e-06
1.85147e-05
2.70922e-06
1.42482e-05
7.44673e-06
9.23179e-06
1.13462e-05
3.29453e-06
1.47742e-05
-3.29547e-06
1.74205e-05
-1.02609e-05
1.93012e-05
-1.73962e-05
2.04232e-05
-2.44665e-05
2.07954e-05
-3.12685e-05
2.05094e-05
-3.76899e-05
1.97016e-05
-4.3513e-05
1.83503e-05
-4.8737e-05
1.67669e-05
-5.33091e-05
1.50365e-05
-5.72222e-05
1.33245e-05
-6.05275e-05
1.1739e-05
-6.3304e-05
1.03521e-05
-6.563e-05
9.19026e-06
-6.75687e-05
8.16912e-06
-6.91045e-05
7.13253e-06
-7.01446e-05
5.84791e-06
-7.05108e-05
4.0248e-06
-6.98689e-05
1.27931e-06
-6.77405e-05
-2.77556e-06
-6.35304e-05
-8.35014e-06
-5.66877e-05
-1.52126e-05
-4.69546e-05
-2.247e-05
-3.47241e-05
-2.84353e-05
-2.12793e-05
-3.08023e-05
-8.73129e-06
-2.7464e-05
4.0191e-07
-1.74299e-05
3.558e-06
-3.66667e-07
1.77879e-05
-4.26044e-06
2.32144e-05
-4.44404e-07
-2.88287e-06
1.05661e-05
-2.67256e-05
2.55645e-05
-4.05492e-05
4.11952e-05
-4.45201e-05
5.47779e-05
-4.02666e-05
6.4903e-05
-3.11252e-05
7.14113e-05
-2.05982e-05
7.49274e-05
-1.1129e-05
7.63512e-05
-3.82167e-06
7.65008e-05
1.19525e-06
7.59259e-05
4.40503e-06
7.50364e-05
6.36678e-06
7.38677e-05
7.74824e-06
7.24327e-05
8.91068e-06
7.06483e-05
1.0195e-05
6.83815e-05
1.17813e-05
6.55294e-05
1.36878e-05
6.19731e-05
1.58973e-05
5.76365e-05
1.83092e-05
5.24578e-05
2.0775e-05
4.64932e-05
2.30969e-05
3.97534e-05
2.51259e-05
3.24455e-05
2.65147e-05
2.47354e-05
2.71982e-05
1.67739e-05
2.70999e-05
8.89308e-06
2.59371e-05
1.36577e-06
2.37243e-05
-5.56016e-06
2.05584e-05
-1.16095e-05
1.63668e-05
-1.65467e-05
1.13104e-05
-2.02014e-05
5.55425e-06
-2.24254e-05
-6.32398e-07
-2.29695e-05
-7.03387e-06
-2.21048e-05
-1.33462e-05
-1.98247e-05
-1.91846e-05
-1.61296e-05
-2.45067e-05
-1.14158e-05
-2.86601e-05
-5.95207e-06
-3.16254e-05
-9.72672e-08
-3.31271e-05
5.74435e-06
-3.3064e-05
1.11587e-05
-3.14264e-05
1.58526e-05
-2.84139e-05
1.94009e-05
-2.40454e-05
2.16068e-05
-1.87339e-05
2.22966e-05
-1.27234e-05
2.16168e-05
-6.31162e-06
1.92079e-05
2.48039e-07
1.535e-05
6.56788e-06
1.01986e-05
1.25972e-05
3.81692e-06
1.7726e-05
-3.40849e-06
2.19972e-05
-1.12273e-05
2.52368e-05
-1.94155e-05
2.74872e-05
-2.7622e-05
2.86282e-05
-3.56307e-05
2.88037e-05
-4.32435e-05
2.81227e-05
-5.01702e-05
2.66288e-05
-5.6381e-05
2.45616e-05
-6.17554e-05
2.2141e-05
-6.62713e-05
1.95517e-05
-6.9963e-05
1.70155e-05
-7.2922e-05
1.46974e-05
-7.52712e-05
1.27012e-05
-7.71363e-05
1.10556e-05
-7.86665e-05
9.69964e-06
-7.99258e-05
8.39204e-06
-8.08697e-05
6.79169e-06
-8.14447e-05
4.59887e-06
-8.12395e-05
1.07366e-06
-7.96778e-05
-4.33667e-06
-7.59125e-05
-1.21138e-05
-6.90121e-05
-2.21121e-05
-5.83229e-05
-3.31594e-05
-4.40418e-05
-4.27158e-05
-2.76609e-05
-4.71833e-05
-1.19533e-05
-4.31737e-05
-3.56106e-07
-2.90259e-05
3.90009e-06
-4.62342e-06
2.16885e-05
-4.85349e-06
2.8068e-05
2.8675e-07
-8.02345e-06
1.48552e-05
-4.12945e-05
3.4167e-05
-5.98613e-05
5.32561e-05
-6.36089e-05
6.84858e-05
-5.54959e-05
7.84385e-05
-4.10778e-05
8.35613e-05
-2.57213e-05
8.52287e-05
-1.27965e-05
8.49033e-05
-3.49545e-06
8.37909e-05
2.3087e-06
8.24713e-05
5.72648e-06
8.13197e-05
7.51956e-06
8.03036e-05
8.76613e-06
7.9273e-05
9.94324e-06
7.80382e-05
1.1431e-05
7.63183e-05
1.35024e-05
7.39492e-05
1.60582e-05
7.07382e-05
1.91091e-05
6.65461e-05
2.25016e-05
6.13112e-05
2.601e-05
5.50317e-05
2.93762e-05
4.77733e-05
3.23841e-05
3.96752e-05
3.46125e-05
3.0926e-05
3.59474e-05
2.1927e-05
3.6099e-05
1.2877e-05
3.49872e-05
4.07489e-06
3.25264e-05
-4.08477e-06
2.87182e-05
-1.13143e-05
2.35963e-05
-1.72439e-05
1.72395e-05
-2.17654e-05
1.00752e-05
-2.4623e-05
2.22475e-06
-2.55511e-05
-6.10615e-06
-2.48218e-05
-1.40756e-05
-2.23153e-05
-2.16912e-05
-1.83784e-05
-2.84439e-05
-1.30068e-05
-3.40321e-05
-6.8119e-06
-3.78204e-05
-1.72686e-07
-3.97657e-05
6.42495e-06
-3.96612e-05
1.25721e-05
-3.75734e-05
1.79757e-05
-3.38172e-05
2.18551e-05
-2.79247e-05
2.42279e-05
-2.11055e-05
2.47901e-05
-1.32851e-05
2.37329e-05
-5.25527e-06
2.06532e-05
3.32686e-06
1.58058e-05
1.14143e-05
9.75242e-06
1.86495e-05
2.25192e-06
2.52261e-05
-6.22609e-06
3.04757e-05
-1.53231e-05
3.43346e-05
-2.46854e-05
3.685e-05
-3.40765e-05
3.80189e-05
-4.3061e-05
3.77866e-05
-5.13934e-05
3.64526e-05
-5.89039e-05
3.41365e-05
-6.54183e-05
3.10736e-05
-7.08423e-05
2.75638e-05
-7.51975e-05
2.39067e-05
-7.85414e-05
2.03599e-05
-8.10167e-05
1.7173e-05
-8.28261e-05
1.45105e-05
-8.41295e-05
1.23586e-05
-8.52664e-05
1.08368e-05
-8.63921e-05
9.51918e-06
-8.7661e-05
8.06179e-06
-8.90334e-05
5.97164e-06
-9.01986e-05
2.23938e-06
-9.04557e-05
-4.07851e-06
-8.86093e-05
-1.39591e-05
-8.31336e-05
-2.75872e-05
-7.26123e-05
-4.36793e-05
-5.66204e-05
-5.87056e-05
-3.66513e-05
-6.71525e-05
-1.64634e-05
-6.33615e-05
-1.18184e-06
-4.43039e-05
4.46082e-06
-1.02667e-05
2.61518e-05
-5.38636e-06
3.34543e-05
3.17754e-06
-1.65877e-05
2.44697e-05
-6.25873e-05
5.09017e-05
-8.62935e-05
7.43531e-05
-8.70601e-05
9.00848e-05
-7.12275e-05
9.75118e-05
-4.85046e-05
9.86809e-05
-2.68901e-05
9.63434e-05
-1.04588e-05
9.27611e-05
8.73565e-08
8.93126e-05
5.75828e-06
8.67165e-05
8.32373e-06
8.5063e-05
9.17432e-06
8.41127e-05
9.71696e-06
8.3525e-05
1.0532e-05
8.28996e-05
1.20573e-05
8.19211e-05
1.44813e-05
8.01599e-05
1.78194e-05
7.73775e-05
2.18916e-05
7.33871e-05
2.64923e-05
6.8082e-05
3.13155e-05
6.1442e-05
3.60169e-05
5.35401e-05
4.02865e-05
4.45638e-05
4.35891e-05
3.46653e-05
4.58461e-05
2.43453e-05
4.64195e-05
1.38573e-05
4.54756e-05
3.65408e-06
4.27301e-05
-5.89438e-06
3.82672e-05
-1.43842e-05
3.20863e-05
-2.13649e-05
2.42199e-05
-2.66517e-05
1.53612e-05
-2.97316e-05
5.30363e-06
-3.11207e-05
-4.71837e-06
-3.01845e-05
-1.50132e-05
-2.70849e-05
-2.47918e-05
-2.2122e-05
-3.34072e-05
-1.56063e-05
-4.0548e-05
-8.16793e-06
-4.5259e-05
-1.22728e-07
-4.78111e-05
7.96013e-06
-4.77441e-05
1.54265e-05
-4.50395e-05
2.17743e-05
-4.01652e-05
2.66796e-05
-3.28309e-05
2.97431e-05
-2.41699e-05
3.05709e-05
-1.41138e-05
2.89736e-05
-3.65856e-06
2.56755e-05
6.62563e-06
2.02344e-05
1.6857e-05
1.29679e-05
2.59179e-05
4.10514e-06
3.40906e-05
-5.78008e-06
4.0362e-05
-1.63178e-05
4.48725e-05
-2.71182e-05
4.76501e-05
-3.78483e-05
4.87487e-05
-4.79832e-05
4.79221e-05
-5.72735e-05
4.57447e-05
-6.5451e-05
4.23166e-05
-7.23175e-05
3.79433e-05
-7.78342e-05
3.30835e-05
-8.19817e-05
2.80563e-05
-8.48839e-05
2.32636e-05
-8.67488e-05
1.9039e-05
-8.78388e-05
1.56015e-05
-8.85784e-05
1.30989e-05
-8.92637e-05
1.15226e-05
-9.03738e-05
1.06297e-05
-9.21517e-05
9.83974e-06
-9.49198e-05
8.73975e-06
-9.85102e-05
5.83105e-06
-0.000102217
-3.69587e-07
-0.00010455
-1.16245e-05
-0.000103199
-2.8938e-05
-9.53256e-05
-5.15507e-05
-7.88179e-05
-7.52125e-05
-5.42811e-05
-9.1689e-05
-2.66448e-05
-9.09951e-05
-4.32492e-06
-6.66239e-05
4.88393e-06
-1.94755e-05
3.10351e-05
-4.44184e-06
3.7896e-05
1.23601e-05
-3.33904e-05
4.70994e-05
-9.7327e-05
8.51282e-05
-0.000124322
0.000113315
-0.000115247
0.000126369
-8.4281e-05
0.000126425
-4.856e-05
0.000118982
-1.94465e-05
0.000109206
-6.82783e-07
0.000100247
9.04727e-06
9.34963e-05
1.25092e-05
8.92127e-05
1.26069e-05
8.70033e-05
1.13846e-05
8.63418e-05
1.03787e-05
8.65288e-05
1.03448e-05
8.68865e-05
1.16997e-05
8.68011e-05
1.45672e-05
8.58634e-05
1.8758e-05
8.36508e-05
2.41054e-05
7.99256e-05
3.02185e-05
7.45426e-05
3.66992e-05
6.74672e-05
4.30927e-05
5.87111e-05
4.90427e-05
4.85928e-05
5.37075e-05
3.73239e-05
5.7115e-05
2.53867e-05
5.8357e-05
1.31757e-05
5.76867e-05
1.17996e-06
5.4726e-05
-1.00102e-05
4.94574e-05
-1.97866e-05
4.18626e-05
-2.8175e-05
3.26079e-05
-3.42059e-05
2.1392e-05
-3.82415e-05
9.33948e-06
-3.94862e-05
-3.47312e-06
-3.79211e-05
-1.65778e-05
-3.40196e-05
-2.86931e-05
-2.79024e-05
-3.95245e-05
-1.97748e-05
-4.86758e-05
-1.02701e-05
-5.47638e-05
-4.82689e-08
-5.80334e-05
1.01582e-05
-5.79521e-05
1.96409e-05
-5.45239e-05
2.7775e-05
-4.83012e-05
3.37922e-05
-3.88492e-05
3.76662e-05
-2.80442e-05
3.9126e-05
-1.55741e-05
3.77312e-05
-2.26367e-06
3.35928e-05
1.07649e-05
2.72331e-05
2.32173e-05
1.84309e-05
3.472e-05
8.35583e-06
4.41655e-05
-3.17079e-06
5.18888e-05
-1.55222e-05
5.72247e-05
-2.81333e-05
6.02629e-05
-4.04946e-05
6.11128e-05
-5.20931e-05
5.95238e-05
-6.25774e-05
5.62315e-05
-7.15766e-05
5.13172e-05
-7.89497e-05
4.53162e-05
-8.45449e-05
3.86773e-05
-8.84189e-05
3.19286e-05
-9.07255e-05
2.55684e-05
-9.176e-05
2.00728e-05
-9.19359e-05
1.57778e-05
-9.16999e-05
1.28638e-05
-9.16521e-05
1.14756e-05
-9.24979e-05
1.1476e-05
-9.49529e-05
1.22945e-05
-9.94882e-05
1.32746e-05
-0.000106594
1.29366e-05
-0.000115949
8.98494e-06
-0.000126069
-1.50635e-06
-0.00013373
-2.12775e-05
-0.000133554
-5.17276e-05
-0.000119795
-8.89727e-05
-9.02503e-05
-0.000121233
-5.0478e-05
-0.000130766
-1.41118e-05
-0.000102993
3.76907e-06
-3.73527e-05
3.48041e-05
1.64663e-07
3.77307e-05
3.37941e-05
-6.70209e-05
9.00383e-05
-0.000153571
0.000142885
-0.000177168
0.000174133
-0.000146494
0.000179578
-8.97258e-05
0.000165995
-3.49767e-05
0.000144088
2.46091e-06
0.000122886
2.05194e-05
0.000106322
2.56123e-05
9.53061e-05
2.35261e-05
8.94382e-05
1.8475e-05
8.71573e-05
1.36654e-05
8.73208e-05
1.02156e-05
8.88846e-05
8.78152e-06
9.07374e-05
9.84744e-06
9.20197e-05
1.32857e-05
9.22069e-05
1.85715e-05
9.08202e-05
2.54927e-05
8.74999e-05
3.35393e-05
8.20528e-05
4.21467e-05
7.44123e-05
5.07333e-05
6.4682e-05
5.8773e-05
5.31637e-05
6.52255e-05
4.01283e-05
7.01502e-05
2.61105e-05
7.23745e-05
1.16484e-05
7.21482e-05
-2.53711e-06
6.89112e-05
-1.59604e-05
6.28808e-05
-2.7775e-05
5.36778e-05
-3.75118e-05
4.23455e-05
-4.47871e-05
2.86681e-05
-4.91763e-05
1.37291e-05
-5.00675e-05
-2.58205e-06
-4.83439e-05
-1.83016e-05
-4.32749e-05
-3.37625e-05
-3.52797e-05
-4.75201e-05
-2.50054e-05
-5.89506e-05
-1.29046e-05
-6.68648e-05
1.01443e-07
-7.10392e-05
1.30824e-05
-7.09325e-05
2.50793e-05
-6.65192e-05
3.53538e-05
-5.85747e-05
4.33462e-05
-4.68399e-05
4.83665e-05
-3.30623e-05
4.99785e-05
-1.71854e-05
4.8939e-05
-1.22454e-06
4.43204e-05
1.53825e-05
3.68785e-05
3.0658e-05
2.67926e-05
4.48054e-05
1.45333e-05
5.64249e-05
7.7001e-07
6.56526e-05
-1.38738e-05
7.18689e-05
-2.88036e-05
7.51923e-05
-4.32084e-05
7.5516e-05
-5.66818e-05
7.29946e-05
-6.86419e-05
6.81885e-05
-7.87616e-05
6.14341e-05
-8.66795e-05
5.32322e-05
-9.23299e-05
4.43269e-05
-9.57762e-05
3.53752e-05
-9.7226e-05
2.70188e-05
-9.70849e-05
1.99334e-05
-9.58538e-05
1.45478e-05
-9.40884e-05
1.10993e-05
-9.26826e-05
1.00697e-05
-9.27096e-05
1.15023e-05
-9.5325e-05
1.49099e-05
-0.00010171
1.96602e-05
-0.000113286
2.45145e-05
-0.000130598
2.62971e-05
-0.000152639
2.05345e-05
-0.000175294
1.37839e-06
-0.000189068
-3.79535e-05
-0.000182914
-9.51262e-05
-0.000150005
-0.000154142
-9.48989e-05
-0.000185872
-3.64269e-05
-0.000161466
-1.20917e-06
-7.25716e-05
3.35937e-05
1.05835e-05
2.71465e-05
6.87585e-05
-0.000125196
0.000147729
-0.000232541
0.000210849
-0.000240287
0.000239831
-0.000175475
0.000233924
-8.3819e-05
0.000204141
-5.1933e-06
0.000166148
4.04539e-05
0.000131987
5.46819e-05
0.000107439
5.01614e-05
9.2779e-05
3.81869e-05
8.60659e-05
2.51891e-05
8.48663e-05
1.48653e-05
8.7191e-05
7.89059e-06
9.07989e-05
5.17325e-06
9.47967e-05
5.84932e-06
9.82031e-05
9.87905e-06
0.000100074
1.67006e-05
9.98576e-05
2.57082e-05
9.71636e-05
3.62328e-05
9.17099e-05
4.76e-05
8.3305e-05
5.91382e-05
7.24735e-05
6.96047e-05
5.91505e-05
7.85491e-05
4.39159e-05
8.53855e-05
2.72874e-05
8.90034e-05
1.00091e-05
8.94267e-05
-6.95829e-06
8.58791e-05
-2.27487e-05
7.86719e-05
-3.72799e-05
6.82094e-05
-4.8902e-05
5.39679e-05
-5.76545e-05
3.74211e-05
-6.2421e-05
1.84963e-05
-6.40613e-05
-9.40881e-07
-6.13658e-05
-2.09957e-05
-5.46188e-05
-4.0508e-05
-4.44389e-05
-5.76986e-05
-3.14679e-05
-7.19196e-05
-1.61608e-05
-8.21696e-05
3.26659e-07
-8.75241e-05
1.68255e-05
-8.74291e-05
3.21968e-05
-8.18882e-05
4.50608e-05
-7.14382e-05
5.50159e-05
-5.67959e-05
6.16087e-05
-3.96565e-05
6.43211e-05
-1.9899e-05
6.25775e-05
5.18678e-07
5.75969e-05
2.03636e-05
4.84929e-05
3.97623e-05
3.6676e-05
5.66222e-05
2.1937e-05
7.11632e-05
5.48373e-06
8.21042e-05
-1.20846e-05
8.94353e-05
-2.97909e-05
9.28971e-05
-4.6897e-05
9.26219e-05
-6.26805e-05
8.87795e-05
-7.65795e-05
8.20904e-05
-8.8005e-05
7.28635e-05
-9.658e-05
6.18117e-05
-0.000102221
4.99719e-05
-0.000105013
3.81688e-05
-0.000105233
2.72406e-05
-0.000103333
1.80353e-05
-9.99072e-05
1.11229e-05
-9.59152e-05
7.10866e-06
-9.2403e-05
6.559e-06
-9.03449e-05
9.44564e-06
-9.19641e-05
1.65305e-05
-9.9243e-05
2.69405e-05
-0.000114788
4.00598e-05
-0.00014041
5.19188e-05
-0.000175759
5.5883e-05
-0.000214573
4.01919e-05
-0.000244379
-8.14841e-06
-0.000249271
-9.02356e-05
-0.00021841
-0.000185005
-0.000153009
-0.000251276
-7.18186e-05
-0.000242654
-1.18377e-05
-0.000132554
2.17554e-05
2.54529e-05
1.69332e-06
0.000105792
-0.000205535
0.00019294
-0.000319687
0.000250586
-0.000297933
0.000268797
-0.000193687
0.000252144
-6.71657e-05
0.000212465
3.44859e-05
0.000165449
8.74705e-05
0.000124774
9.53582e-05
9.68948e-05
7.80412e-05
8.20572e-05
5.30243e-05
7.73341e-05
2.99118e-05
7.94482e-05
1.27508e-05
8.5101e-05
2.23736e-06
9.25244e-05
-2.25073e-06
9.99383e-05
-1.56509e-06
0.000106167
3.64996e-06
0.000110309
1.2558e-05
0.000111689
2.43279e-05
0.000109884
3.80385e-05
0.000104371
5.31141e-05
9.55005e-05
6.80095e-05
8.30524e-05
8.20539e-05
6.74384e-05
9.41639e-05
4.93861e-05
0.000103439
2.93281e-05
0.000109062
8.66919e-06
0.000110086
-1.20568e-05
0.000106606
-3.16341e-05
9.82498e-05
-4.90089e-05
8.55851e-05
-6.31712e-05
6.81312e-05
-7.34489e-05
4.77e-05
-7.95763e-05
2.46251e-05
-8.08189e-05
3.03265e-07
-7.6837e-05
-2.4976e-05
-6.88058e-05
-4.85373e-05
-5.60154e-05
-7.04878e-05
-3.95748e-05
-8.83596e-05
-2.02424e-05
-0.000101502
6.06597e-07
-0.000108374
2.14325e-05
-0.000108256
4.05577e-05
-0.000101016
5.7023e-05
-8.79052e-05
6.99295e-05
-6.97019e-05
7.7999e-05
-4.77249e-05
8.1613e-05
-2.35121e-05
8.03048e-05
1.82752e-06
7.38805e-05
2.67885e-05
6.33782e-05
5.02656e-05
4.87922e-05
7.12097e-05
3.08143e-05
8.91435e-05
1.07918e-05
0.00010213
-1.04541e-05
0.000110684
-3.18358e-05
0.000114282
-5.23216e-05
0.00011311
-7.10705e-05
0.00010753
-8.73538e-05
9.8375e-05
-0.000100254
8.57648e-05
-0.000109653
7.12102e-05
-0.000115237
5.55565e-05
-0.000117077
4.00081e-05
-0.000115586
2.57498e-05
-0.000111272
1.37234e-05
-0.000104887
4.73935e-06
-9.74021e-05
-3.75832e-07
-9.00134e-05
-8.29407e-07
-8.45926e-05
4.02522e-06
-8.29919e-05
1.49303e-05
-8.82591e-05
3.22076e-05
-0.000104043
5.58426e-05
-0.000132997
8.08714e-05
-0.00017461
9.74957e-05
-0.00022189
8.7471e-05
-0.000260968
3.09281e-05
-0.000276166
-7.50367e-05
-0.000256135
-0.000205034
-0.00019677
-0.000310641
-0.000108218
-0.000331205
-2.67006e-05
-0.000214071
-4.94372e-06
3.81448e-05
-3.6451e-05
0.000120912
-0.000288301
0.000188435
-0.00038721
0.000220719
-0.000330217
0.000220871
-0.000193839
0.000197778
-4.40731e-05
0.000160318
7.19458e-05
0.000120403
0.000127386
8.76631e-05
0.000128098
6.70671e-05
9.86373e-05
5.91853e-05
6.09063e-05
6.13214e-05
2.77756e-05
6.97585e-05
4.3135e-06
8.15771e-05
-9.58136e-06
9.44093e-05
-1.5083e-05
0.000106522
-1.36778e-05
0.000116626
-6.4527e-06
0.000123781
5.40352e-06
0.000127284
2.08258e-05
0.000126563
3.87609e-05
0.00012147
5.8208e-05
0.00011164
7.78396e-05
9.73015e-05
9.63925e-05
7.89329e-05
0.000112533
5.73003e-05
0.000125072
3.30952e-05
0.000133267
7.85495e-06
0.000135326
-1.74168e-05
0.000131877
-4.13095e-05
0.000122142
-6.21497e-05
0.000106425
-7.99149e-05
8.58963e-05
-9.24024e-05
6.01876e-05
-9.96031e-05
3.18259e-05
-0.000100445
1.14509e-06
-9.62012e-05
-2.92198e-05
-8.57985e-05
-5.89409e-05
-6.95655e-05
-8.6722e-05
-4.89471e-05
-0.000108979
-2.49456e-05
-0.000125504
9.38163e-07
-0.000134259
2.69266e-05
-0.000134244
5.09592e-05
-0.000125047
7.12362e-05
-0.000108182
8.74342e-05
-8.58995e-05
9.78402e-05
-5.81301e-05
0.000102258
-2.79283e-05
0.000101125
2.96388e-06
9.35976e-05
3.43184e-05
8.0701e-05
6.31648e-05
6.24307e-05
8.9482e-05
4.10363e-05
0.000110538
1.65371e-05
0.000126629
-9.45481e-06
0.000136675
-3.54565e-05
0.000140282
-6.02089e-05
0.000137862
-8.27198e-05
0.00013004
-0.000101834
0.000117488
-0.00011673
0.00010066
-0.000126908
8.13874e-05
-0.00013228
6.09288e-05
-0.000132917
4.0646e-05
-0.000129151
2.19848e-05
-0.000121621
6.19497e-06
-0.000111183
-5.69905e-06
-9.88566e-05
-1.27012e-05
-8.59685e-05
-1.37161e-05
-7.43309e-05
-7.61031e-06
-6.62985e-05
6.89995e-06
-6.47551e-05
3.06653e-05
-7.34088e-05
6.44967e-05
-9.46505e-05
0.000102114
-0.000127748
0.000130595
-0.000167179
0.000126901
-0.000203651
6.74003e-05
-0.000225491
-5.3197e-05
-0.000224001
-0.000206525
-0.000190628
-0.000344013
-0.000122352
-0.000399485
-3.90751e-05
-0.00029735
-4.40204e-05
3.75671e-05
-7.40174e-05
9.19201e-05
-0.000342653
0.000114058
-0.000409347
0.000109496
-0.000325655
9.10385e-05
-0.000175382
6.76456e-05
-2.06807e-05
4.55384e-05
9.40529e-05
2.74058e-05
0.000145518
1.60463e-05
0.000139457
1.43895e-05
0.000100294
2.16024e-05
5.3693e-05
3.61979e-05
1.31796e-05
5.48465e-05
-1.43351e-05
7.53954e-05
-3.01298e-05
9.56484e-05
-3.5335e-05
0.000114027
-3.20558e-05
0.000129199
-2.1623e-05
0.000140265
-5.66175e-06
0.000146533
1.45586e-05
0.000147484
3.78109e-05
0.000142692
6.30011e-05
0.000131957
8.8575e-05
0.000115419
0.000112931
9.36464e-05
0.000134306
6.75884e-05
0.000151131
3.85873e-05
0.000162269
7.673e-06
0.000166241
-2.33834e-05
0.000162934
-5.29199e-05
0.000151679
-7.91294e-05
0.000132634
-0.000100366
0.000107133
-0.000115585
7.54055e-05
-0.000123787
4.00273e-05
-0.00012507
2.42607e-06
-0.000118876
-3.54141e-05
-0.000105255
-7.25614e-05
-8.56426e-05
-0.000106335
-6.00152e-05
-0.000134607
-3.02238e-05
-0.000155297
1.47371e-06
-0.000165957
3.30579e-05
-0.000165829
6.28879e-05
-0.000154878
8.84552e-05
-0.000133749
0.000107986
-0.000105429
0.000121174
-7.13188e-05
0.000127258
-3.40131e-05
0.000125401
4.81994e-06
0.000117272
4.24443e-05
0.000101625
7.88101e-05
8.0014e-05
0.000111091
5.31751e-05
0.000137376
2.2905e-05
0.000156898
-8.83288e-06
0.000168412
-4.05521e-05
0.000172001
-7.0437e-05
0.000167746
-9.75096e-05
0.000157113
-0.000119906
0.000139884
-0.000137173
0.000117927
-0.00014849
9.27054e-05
-0.000153482
6.59208e-05
-0.000152357
3.95209e-05
-0.000145577
1.52056e-05
-0.000133879
-5.50361e-06
-0.000118155
-2.14228e-05
-9.9437e-05
-3.14186e-05
-7.9034e-05
-3.41181e-05
-5.85427e-05
-2.81004e-05
-4.01324e-05
-1.15095e-05
-2.62807e-05
1.68139e-05
-1.95152e-05
5.77318e-05
-2.17007e-05
0.000104301
-3.29871e-05
0.000141882
-5.10721e-05
0.000144985
-7.25284e-05
8.88558e-05
-9.55183e-05
-3.02062e-05
-0.000113511
-0.000188531
-0.000117449
-0.000340074
-9.41856e-05
-0.000422748
-3.87265e-05
-0.000352808
-8.27469e-05
1.65603e-05
-9.05768e-05
1.32281e-05
-0.00033932
-1.7742e-05
-0.000378377
-5.65135e-05
-0.000286884
-8.88034e-05
-0.000143092
-0.000108593
-8.9053e-07
-0.000111523
9.69832e-05
-0.000101667
0.000135662
-8.32597e-05
0.00012105
-5.96728e-05
7.67062e-05
-3.20887e-05
2.61088e-05
-2.08917e-06
-1.68196e-05
2.97201e-05
-4.61435e-05
6.13413e-05
-6.17502e-05
9.11892e-05
-6.51819e-05
0.000117479
-5.83445e-05
0.000139085
-4.32287e-05
0.00015512
-2.16951e-05
0.000164961
4.71832e-06
0.000168138
3.46343e-05
0.000164135
6.70043e-05
0.000152669
0.000100043
0.000133932
0.000131668
0.000108601
0.000159636
7.78177e-05
0.000181914
4.31446e-05
0.000196942
5.88487e-06
0.000203501
-3.20076e-05
0.000200826
-6.83118e-05
0.000187983
-0.000100183
0.000164506
-0.000125702
0.000132651
-0.000144314
9.40177e-05
-0.00015351
4.92233e-05
-0.000154471
3.38627e-06
-0.000146086
-4.37987e-05
-0.000129601
-8.9047e-05
-0.00010534
-0.000130596
-7.34535e-05
-0.000166494
-3.72931e-05
-0.000191458
1.82057e-06
-0.000205071
4.09165e-05
-0.000204925
7.70143e-05
-0.000190976
0.000108684
-0.00016542
0.000133142
-0.00012989
0.000149586
-8.77651e-05
0.000157789
-4.22186e-05
0.000156858
5.74992e-06
0.000146995
5.23058e-05
0.000128355
9.74487e-05
0.000101973
0.000137473
6.92911e-05
0.000170057
3.21546e-05
0.000194033
-6.56506e-06
0.00020713
-4.44768e-05
0.000209911
-7.9995e-05
0.000203263
-0.000111677
0.000188794
-0.000137727
0.000165934
-0.000157297
0.000137495
-0.000169424
0.000104832
-0.000173685
7.01819e-05
-0.000170225
3.60616e-05
-0.000159665
4.64618e-06
-0.000142767
-2.24009e-05
-0.000120502
-4.36875e-05
-9.38288e-05
-5.80912e-05
-6.39756e-05
-6.39703e-05
-3.24342e-05
-5.9641e-05
-1.04005e-06
-4.29034e-05
2.84742e-05
-1.27001e-05
5.54412e-05
3.07659e-05
7.84642e-05
8.12791e-05
9.63085e-05
0.000124037
0.000105701
0.000135589
0.000101858
9.2698e-05
8.08606e-05
-9.20744e-06
4.78203e-05
-0.000155489
9.30696e-06
-0.000301559
-1.97821e-05
-0.000393658
-1.95308e-05
-0.00035306
-0.000102278
-2.42774e-05
-6.62982e-05
-8.80061e-05
-0.000275591
-0.000167525
-0.000298859
-0.000234709
-0.000219699
-0.000277489
-0.00010031
-0.000290371
1.19919e-05
-0.000276441
8.30537e-05
-0.000243444
0.000102666
-0.000201052
7.86573e-05
-0.000155836
3.14897e-05
-0.000110158
-1.95695e-05
-6.47599e-05
-6.22173e-05
-1.94891e-05
-9.14144e-05
2.4757e-05
-0.000105996
6.61778e-05
-0.000106603
0.000102789
-9.49563e-05
0.0001329
-7.334e-05
0.000155135
-4.39308e-05
0.000169502
-9.64883e-06
0.0001758
2.83357e-05
0.000173502
6.93022e-05
0.000162181
0.000111363
0.000142042
0.000151808
0.000113803
0.000187875
7.87208e-05
0.000216996
3.84827e-05
0.00023718
-5.09014e-06
0.000247074
-4.95337e-05
0.00024527
-9.25578e-05
0.000231007
-0.000131731
0.000203679
-0.000162711
0.000163632
-0.000182355
0.000113663
-0.000193253
6.01206e-05
-0.000192505
2.63905e-06
-0.000181704
-5.45997e-05
-0.000160766
-0.000109985
-0.000129964
-0.000161398
-9.17096e-05
-0.000204749
-4.65864e-05
-0.000236582
2.05681e-06
-0.000253715
5.07009e-05
-0.000253571
9.61072e-05
-0.000236384
0.000134654
-0.000203969
0.000165202
-0.000160439
0.000186481
-0.000109045
0.00019645
-5.21877e-05
0.000197299
4.90046e-06
0.000186538
6.30672e-05
0.000166422
0.000117565
0.00013468
0.000169215
9.48291e-05
0.000209908
5.11818e-05
0.000237681
5.91238e-06
0.000252401
-3.81579e-05
0.000253982
-7.91707e-05
0.000244277
-0.000114484
0.000224108
-0.000143453
0.000194903
-0.000164256
0.000158299
-0.00017616
0.000116736
-0.000178646
7.26693e-05
-0.000171969
2.93854e-05
-0.000156869
-1.04527e-05
-0.000133836
-4.54345e-05
-0.000103637
-7.38864e-05