/*--------------------------------*- C++ -*----------------------------------*\
| =========                 |                                                 |
| \\      /  F ield         | OpenFOAM: The Open Source CFD Toolbox           |
|  \\    /   O peration     | Version:  2412                                  |
|   \\  /    A nd           | Website:  www.openfoam.com                      |
|    \\/     M anipulation  |                                                 |
\*---------------------------------------------------------------------------*/
FoamFile
{
    version     2.0;
    format      ascii;
    arch        "LSB;label=32;scalar=64";
    class       surfaceScalarField;
    location    "7.85";
    object      phi;
}
// * * * * * * * * * * * * * * * * * * * * * * * * * * * * * * * * * * * * * //

dimensions      [0 3 -1 0 0 0 0];

oriented        oriented;

internalField   nonuniform List<scalar> 
12640
(
9.07729e-09
-9.59956e-09
1.70846e-08
-1.27767e-08
2.45121e-08
-1.04544e-08
2.66042e-08
-3.22392e-09
2.1742e-08
4.51053e-09
8.01549e-09
1.21345e-08
-1.25757e-08
2.01538e-08
-3.97554e-08
2.76135e-08
-7.37634e-08
3.39475e-08
-1.13496e-07
3.95601e-08
-1.57826e-07
4.48766e-08
-2.06477e-07
4.99052e-08
-2.59533e-07
5.45087e-08
-3.16905e-07
5.87215e-08
-3.78343e-07
6.27457e-08
-4.43692e-07
6.67474e-08
-5.13001e-07
7.06922e-08
-5.8637e-07
7.43909e-08
-6.63614e-07
7.7595e-08
-7.44042e-07
8.00824e-08
-8.26421e-07
8.15977e-08
-9.09146e-07
8.18643e-08
-9.90319e-07
8.05197e-08
-1.06783e-06
7.72182e-08
-1.1393e-06
7.15547e-08
-1.20213e-06
6.32174e-08
-1.2534e-06
5.18712e-08
-1.29012e-06
3.74011e-08
-1.30916e-06
1.97319e-08
-1.30763e-06
-8.60009e-10
-1.28292e-06
-2.40638e-08
-1.23315e-06
-4.91602e-08
-1.15711e-06
-7.54821e-08
-1.0547e-06
-1.01945e-07
-9.26719e-07
-1.27645e-07
-7.75233e-07
-1.51303e-07
-6.03194e-07
-1.71997e-07
-4.14738e-07
-1.88528e-07
-2.14652e-07
-2.00254e-07
-8.54053e-09
-2.06368e-07
1.97853e-07
-2.06753e-07
3.98559e-07
-2.01202e-07
5.88083e-07
-1.90201e-07
7.61337e-07
-1.74121e-07
9.14268e-07
-1.53929e-07
1.0437e-06
-1.30464e-07
1.14768e-06
-1.04986e-07
1.22522e-06
-7.84645e-08
1.27654e-06
-5.20421e-08
1.30279e-06
-2.66025e-08
1.30597e-06
-3.11797e-09
1.2885e-06
1.78472e-08
1.25327e-06
3.58943e-08
1.20345e-06
5.08778e-08
1.14219e-06
6.26506e-08
1.07233e-06
7.13246e-08
9.96438e-07
7.72109e-08
9.16866e-07
8.07324e-08
8.35699e-07
8.21958e-08
7.54565e-07
8.18849e-08
6.74703e-07
8.01607e-08
5.97118e-07
7.74664e-08
5.22627e-07
7.41786e-08
4.51782e-07
7.0532e-08
3.84839e-07
6.66555e-08
3.21859e-07
6.26414e-08
2.62877e-07
5.85514e-08
2.08012e-07
5.4373e-08
1.57503e-07
5.00088e-08
1.11707e-07
4.53142e-08
7.10782e-08
4.01442e-08
3.61793e-08
3.43665e-08
7.68862e-09
2.78803e-08
-1.36076e-08
2.06759e-08
-2.69618e-08
1.2919e-08
-3.20248e-08
4.99094e-09
-2.92817e-08
-2.4337e-09
-2.02929e-08
-8.08227e-09
-8.4312e-09
-9.83542e-09
-6.27444e-09
1.35269e-08
-2.01572e-08
2.64477e-08
-2.63103e-08
3.4691e-08
-1.64425e-08
2.62264e-08
3.0018e-09
1.0056e-09
2.90207e-08
-4.36606e-08
5.70116e-08
-1.07438e-07
8.43557e-08
-1.89491e-07
1.10012e-07
-2.88662e-07
1.33725e-07
-4.03005e-07
1.55492e-07
-5.3098e-07
1.75363e-07
-6.71815e-07
1.93507e-07
-8.24901e-07
2.10251e-07
-9.89463e-07
2.25951e-07
-1.16479e-06
2.40859e-07
-1.35038e-06
2.5503e-07
-1.54588e-06
2.68334e-07
-1.75069e-06
2.80428e-07
-1.9636e-06
2.90783e-07
-2.18256e-06
2.98617e-07
-2.40458e-06
3.02959e-07
-2.62576e-06
3.02583e-07
-2.84139e-06
2.96173e-07
-3.04582e-06
2.82263e-07
-3.23268e-06
2.59518e-07
-3.3947e-06
2.26655e-07
-3.52411e-06
1.8284e-07
-3.61268e-06
1.27527e-07
-3.65238e-06
6.09455e-08
-3.63552e-06
-1.6236e-08
-3.55577e-06
-1.02369e-07
-3.40817e-06
-1.95377e-07
-3.19022e-06
-2.92185e-07
-2.90158e-06
-3.89514e-07
-2.54504e-06
-4.83307e-07
-2.12589e-06
-5.6976e-07
-1.65261e-06
-6.4473e-07
-1.1358e-06
-7.04895e-07
-5.88622e-07
-7.47102e-07
-2.5356e-08
-7.69473e-07
5.3849e-07
-7.70672e-07
1.08776e-06
-7.50831e-07
1.60766e-06
-7.1076e-07
2.08517e-06
-6.52594e-07
2.50907e-06
-5.79e-07
2.87098e-06
-4.93562e-07
3.16514e-06
-4.00085e-07
3.38884e-06
-3.02683e-07
3.54191e-06
-2.05175e-07
3.62699e-06
-1.11126e-07
3.6488e-06
-2.35748e-08
3.61372e-06
5.5035e-08
3.52908e-06
1.2307e-07
3.40295e-06
1.79722e-07
3.24364e-06
2.24826e-07
3.05912e-06
2.5878e-07
2.85657e-06
2.82405e-07
2.64243e-06
2.96906e-07
2.42234e-06
3.03642e-07
2.20104e-06
3.04068e-07
1.98222e-06
2.99555e-07
1.76868e-06
2.91383e-07
1.56248e-06
2.8062e-07
1.36509e-06
2.68144e-07
1.17748e-06
2.54571e-07
1.00024e-06
2.40276e-07
8.33839e-07
2.25365e-07
6.7878e-07
2.09748e-07
5.35788e-07
1.93184e-07
4.05809e-07
1.75361e-07
2.89979e-07
1.55931e-07
1.89606e-07
1.34576e-07
1.06177e-07
1.11113e-07
4.12333e-08
8.56786e-08
-4.02944e-09
5.88414e-08
-2.94197e-08
3.16468e-08
-3.63765e-08
6.05208e-09
-2.83151e-08
-1.38901e-08
-1.1607e-08
-2.32696e-08
-1.73566e-08
1.03454e-08
-3.30374e-08
1.716e-08
-3.64996e-08
1.09888e-08
-1.15169e-08
-1.7879e-08
3.09308e-08
-7.28005e-08
8.33646e-08
-1.56447e-07
1.39345e-07
-2.6792e-07
1.94895e-07
-4.06023e-07
2.47793e-07
-5.69373e-07
2.96959e-07
-7.55748e-07
3.42042e-07
-9.63111e-07
3.83201e-07
-1.19009e-06
4.20973e-07
-1.43554e-06
4.56056e-07
-1.69831e-06
4.89073e-07
-1.97729e-06
5.20365e-07
-2.27156e-06
5.49928e-07
-2.58015e-06
5.7736e-07
-2.90173e-06
6.01911e-07
-3.23408e-06
6.22387e-07
-3.57391e-06
6.37198e-07
-3.91657e-06
6.44217e-07
-4.25613e-06
6.40973e-07
-4.58526e-06
6.24586e-07
-4.89538e-06
5.92177e-07
-5.17649e-06
5.40831e-07
-5.41756e-06
4.68198e-07
-5.60651e-06
3.72374e-07
-5.73106e-06
2.52655e-07
-5.77882e-06
1.09228e-07
-5.73864e-06
-5.59938e-08
-5.60076e-06
-2.39984e-07
-5.35832e-06
-4.37773e-07
-5.00729e-06
-6.43451e-07
-4.5479e-06
-8.49436e-07
-3.98413e-06
-1.04789e-06
-3.32479e-06
-1.23012e-06
-2.5824e-06
-1.38824e-06
-1.77387e-06
-1.51458e-06
-9.18753e-07
-1.60336e-06
-3.93796e-08
-1.64999e-06
8.41142e-07
-1.65239e-06
1.69925e-06
-1.61022e-06
2.51282e-06
-1.52572e-06
3.26163e-06
-1.40283e-06
3.92876e-06
-1.24752e-06
4.50095e-06
-1.06696e-06
4.96937e-06
-8.69327e-07
5.32948e-06
-6.63088e-07
5.58089e-06
-4.56425e-07
5.72713e-06
-2.56849e-07
5.77507e-06
-7.06801e-08
5.7342e-06
9.7043e-08
5.61562e-06
2.42992e-07
5.4315e-06
3.65229e-07
5.19428e-06
4.63329e-07
4.91615e-06
5.37966e-07
4.60824e-06
5.91007e-07
4.28058e-06
6.24847e-07
3.94193e-06
6.42281e-07
3.59968e-06
6.46073e-07
3.25964e-06
6.39073e-07
2.92633e-06
6.23913e-07
2.60308e-06
6.02956e-07
2.29234e-06
5.7801e-07
1.99578e-06
5.5037e-07
1.71454e-06
5.20763e-07
1.44951e-06
4.89493e-07
1.20166e-06
4.56474e-07
9.72162e-07
4.21367e-07
7.62422e-07
3.83642e-07
5.74052e-07
3.42703e-07
4.08885e-07
2.9802e-07
2.68956e-07
2.49373e-07
1.5622e-07
1.97124e-07
7.19172e-08
1.4247e-07
1.61568e-08
8.75423e-08
-1.23681e-08
3.58465e-08
-1.83355e-08
-6.08193e-09
-9.30457e-09
-3.0021e-08
-2.75571e-08
4.09134e-09
-3.76058e-08
-1.38808e-09
-2.83535e-08
-2.96152e-08
1.74346e-08
-8.74885e-08
8.9029e-08
-1.78648e-07
1.74977e-07
-3.05669e-07
2.66123e-07
-4.67345e-07
3.56665e-07
-6.62257e-07
4.43102e-07
-8.88803e-07
5.2368e-07
-1.14441e-06
5.97856e-07
-1.4266e-06
6.65909e-07
-1.73357e-06
7.28643e-07
-2.06387e-06
7.87064e-07
-2.41608e-06
8.4201e-07
-2.78884e-06
8.93934e-07
-3.18081e-06
9.42737e-07
-3.59046e-06
9.87756e-07
-4.01569e-06
1.02762e-06
-4.45344e-06
1.06029e-06
-4.89921e-06
1.08288e-06
-5.34699e-06
1.09189e-06
-5.78896e-06
1.08302e-06
-6.21567e-06
1.0517e-06
-6.61575e-06
9.93005e-07
-6.97632e-06
9.02432e-07
-7.28278e-06
7.75868e-07
-7.51971e-06
6.10605e-07
-7.67086e-06
4.05133e-07
-7.72064e-06
1.60332e-07
-7.65427e-06
-1.21085e-07
-7.45971e-06
-4.33361e-07
-7.12766e-06
-7.68785e-07
-6.6536e-06
-1.11664e-06
-6.03737e-06
-1.46496e-06
-5.28491e-06
-1.79973e-06
-4.40719e-06
-2.10722e-06
-3.42134e-06
-2.37337e-06
-2.34883e-06
-2.58624e-06
-1.21586e-06
-2.73535e-06
-5.09727e-08
-2.81382e-06
1.11517e-06
-2.8175e-06
2.25231e-06
-2.74644e-06
3.33123e-06
-2.60387e-06
4.3258e-06
-2.3968e-06
5.21365e-06
-2.13493e-06
5.97746e-06
-1.8304e-06
6.60549e-06
-1.49686e-06
7.09166e-06
-1.14848e-06
7.43535e-06
-7.99101e-07
7.64089e-06
-4.61131e-07
7.71717e-06
-1.45422e-07
7.67625e-06
1.39731e-07
7.5326e-06
3.88431e-07
7.30174e-06
5.97756e-07
6.99996e-06
7.66781e-07
6.64302e-06
8.96765e-07
6.24554e-06
9.90336e-07
5.82042e-06
1.05153e-06
5.37914e-06
1.08478e-06
4.93137e-06
1.0949e-06
4.48502e-06
1.08648e-06
4.04607e-06
1.06395e-06
3.61903e-06
1.03109e-06
3.20712e-06
9.91013e-07
2.81266e-06
9.45876e-07
2.43726e-06
8.9704e-07
2.08228e-06
8.45082e-07
1.74906e-06
7.90018e-07
1.43915e-06
7.31396e-07
1.15427e-06
6.68475e-07
8.96398e-07
6.00358e-07
6.67729e-07
5.26275e-07
4.70736e-07
4.45905e-07
3.07709e-07
3.59767e-07
1.79909e-07
2.69584e-07
8.73804e-08
1.78853e-07
2.95292e-08
9.3478e-08
1.45187e-09
2.21149e-08
-4.21525e-09
-2.4286e-08
-3.35795e-08
-2.52868e-09
-3.59784e-08
-2.61059e-08
-5.10599e-09
-7.9962e-08
7.12047e-08
-1.71283e-07
1.79388e-07
-3.02512e-07
3.05446e-07
-4.75612e-07
4.37684e-07
-6.8891e-07
5.68535e-07
-9.40572e-07
6.93373e-07
-1.22867e-06
8.09932e-07
-1.5503e-06
9.17572e-07
-1.90262e-06
1.01666e-06
-2.28355e-06
1.10822e-06
-2.69144e-06
1.19358e-06
-3.12475e-06
1.27388e-06
-3.5819e-06
1.34969e-06
-4.06124e-06
1.4208e-06
-4.56075e-06
1.48607e-06
-5.07777e-06
1.54341e-06
-5.60843e-06
1.58961e-06
-6.14736e-06
1.62044e-06
-6.68722e-06
1.6305e-06
-7.21881e-06
1.61363e-06
-7.73058e-06
1.56284e-06
-8.20909e-06
1.47119e-06
-8.63854e-06
1.33177e-06
-9.00166e-06
1.13898e-06
-9.27946e-06
8.88398e-07
-9.45284e-06
5.78398e-07
-9.50248e-06
2.09694e-07
-9.41115e-06
-2.12931e-07
-9.16363e-06
-6.8168e-07
-8.74937e-06
-1.18416e-06
-8.1621e-06
-1.7053e-06
-7.40241e-06
-2.22622e-06
-6.4767e-06
-2.72707e-06
-5.39914e-06
-3.18629e-06
-4.18977e-06
-3.584e-06
-2.87551e-06
-3.90141e-06
-1.48743e-06
-4.12398e-06
-6.09015e-08
-4.24061e-06
1.36744e-06
-4.24595e-06
2.76035e-06
-4.13941e-06
4.08274e-06
-3.92633e-06
5.3026e-06
-3.6168e-06
6.39285e-06
-3.22548e-06
7.33232e-06
-2.77036e-06
8.10658e-06
-2.27166e-06
8.70842e-06
-1.75072e-06
9.13692e-06
-1.22794e-06
9.39751e-06
-7.22146e-07
9.50061e-06
-2.48944e-07
9.46122e-06
1.7895e-07
9.29665e-06
5.53112e-07
9.02588e-06
8.68621e-07
8.66815e-06
1.12447e-06
8.2427e-06
1.32213e-06
7.76697e-06
1.46577e-06
7.2567e-06
1.561e-06
6.72548e-06
1.6147e-06
6.18515e-06
1.63378e-06
5.6452e-06
1.6252e-06
5.11307e-06
1.59521e-06
4.59413e-06
1.54942e-06
4.0923e-06
1.49227e-06
3.61033e-06
1.42713e-06
3.15026e-06
1.35608e-06
2.71376e-06
1.28021e-06
2.30251e-06
1.19967e-06
1.91829e-06
1.11397e-06
1.56306e-06
1.02208e-06
1.23897e-06
9.22807e-07
9.48547e-07
8.15067e-07
6.94593e-07
6.98465e-07
4.79733e-07
5.73701e-07
3.05668e-07
4.42935e-07
1.73042e-07
3.105e-07
8.13026e-08
1.84207e-07
2.61929e-08
7.53391e-08
2.24452e-09
-2.21884e-09
-3.33278e-08
-9.64314e-09
-2.49689e-08
-5.28789e-08
3.85074e-08
-1.34972e-07
1.54629e-07
-2.62262e-07
3.0696e-07
-4.35812e-07
4.79336e-07
-6.56534e-07
6.57932e-07
-9.21973e-07
8.33654e-07
-1.22961e-06
1.00092e-06
-1.57709e-06
1.15705e-06
-1.96126e-06
1.30143e-06
-2.37898e-06
1.43459e-06
-2.82788e-06
1.55779e-06
-3.30621e-06
1.67265e-06
-3.8124e-06
1.78062e-06
-4.34483e-06
1.88246e-06
-4.90164e-06
1.97784e-06
-5.48054e-06
2.06518e-06
-6.07836e-06
2.14141e-06
-6.69073e-06
2.20212e-06
-7.31143e-06
2.24128e-06
-7.93231e-06
2.25159e-06
-8.54272e-06
2.22437e-06
-9.12974e-06
2.15038e-06
-9.67767e-06
2.01978e-06
-1.01687e-05
1.82358e-06
-1.05825e-05
1.55359e-06
-1.08978e-05
1.20436e-06
-1.10916e-05
7.72901e-07
-1.11423e-05
2.60949e-07
-1.10291e-05
-3.25886e-07
-1.07348e-05
-9.75869e-07
-1.0246e-05
-1.67303e-06
-9.5563e-06
-2.39534e-06
-8.66495e-06
-3.11792e-06
-7.58039e-06
-3.81189e-06
-6.31798e-06
-4.44872e-06
-4.90216e-06
-4.99954e-06
-3.36336e-06
-5.43962e-06
-1.7388e-06
-5.74766e-06
-6.89523e-08
-5.9094e-06
1.60273e-06
-5.91656e-06
3.23327e-06
-5.76903e-06
4.78129e-06
-5.47363e-06
6.20966e-06
-5.04461e-06
7.48674e-06
-4.50219e-06
8.58764e-06
-3.8712e-06
9.49574e-06
-3.17988e-06
1.02025e-05
-2.4574e-06
1.07075e-05
-1.73265e-06
1.10169e-05
-1.03119e-06
1.11434e-05
-3.75184e-07
1.11042e-05
2.18625e-07
1.092e-05
7.38005e-07
1.06126e-05
1.17681e-06
1.02045e-05
1.53311e-06
9.7176e-06
1.80958e-06
9.17243e-06
2.0115e-06
8.58678e-06
2.147e-06
7.97644e-06
2.2251e-06
7.35466e-06
2.25564e-06
6.7325e-06
2.24787e-06
6.11831e-06
2.2105e-06
5.51837e-06
2.15093e-06
4.93702e-06
2.07536e-06
4.37739e-06
1.98835e-06
3.84172e-06
1.89299e-06
3.33195e-06
1.79086e-06
2.8499e-06
1.68238e-06
2.39748e-06
1.56694e-06
1.97672e-06
1.44328e-06
1.58993e-06
1.30976e-06
1.23993e-06
1.16498e-06
9.29893e-07
1.00828e-06
6.62685e-07
8.40421e-07
4.40517e-07
6.64001e-07
2.65365e-07
4.84332e-07
1.37081e-07
3.10704e-07
5.27278e-08
1.56739e-07
9.40658e-09
3.92243e-08
-2.50017e-08
-1.75203e-08
-7.04047e-09
-7.99788e-08
1.01818e-07
-1.91666e-07
2.67162e-07
-3.56249e-07
4.71433e-07
-5.73204e-07
6.96325e-07
-8.42112e-07
9.26174e-07
-1.15944e-06
1.1506e-06
-1.52175e-06
1.3633e-06
-1.9261e-06
1.56133e-06
-2.36912e-06
1.74434e-06
-2.84745e-06
1.91326e-06
-3.35848e-06
2.06974e-06
-3.90029e-06
2.21573e-06
-4.47137e-06
2.35298e-06
-5.07017e-06
2.4824e-06
-5.69489e-06
2.60354e-06
-6.34306e-06
2.71422e-06
-7.01132e-06
2.81051e-06
-7.6948e-06
2.88642e-06
-8.38691e-06
2.9342e-06
-9.07859e-06
2.94408e-06
-9.75844e-06
2.90506e-06
-1.0412e-05
2.80475e-06
-1.10221e-05
2.63081e-06
-1.15687e-05
2.37096e-06
-1.20295e-05
2.01511e-06
-1.23798e-05
1.55525e-06
-1.25948e-05
9.8821e-07
-1.26488e-05
3.15042e-07
-1.2519e-05
-4.55951e-07
-1.21845e-05
-1.31087e-06
-1.16308e-05
-2.22744e-06
-1.08486e-05
-3.17831e-06
-9.83817e-06
-4.12907e-06
-8.60725e-06
-5.04331e-06
-7.17453e-06
-5.88159e-06
-5.56637e-06
-6.60744e-06
-3.81869e-06
-7.18667e-06
-1.97275e-06
-7.59267e-06
-7.56375e-08
-7.8054e-06
1.82396e-06
-7.81506e-06
3.67649e-06
-7.62066e-06
5.43508e-06
-7.23165e-06
7.05727e-06
-6.66648e-06
8.50707e-06
-5.9518e-06
9.75644e-06
-5.12074e-06
1.07861e-05
-4.21008e-06
1.15871e-05
-3.25903e-06
1.21591e-05
-2.30498e-06
1.25103e-05
-1.38261e-06
1.26547e-05
-5.20084e-07
1.2613e-05
2.59915e-07
1.24083e-05
9.42553e-07
1.2066e-05
1.51906e-06
1.16111e-05
1.98793e-06
1.10686e-05
2.3521e-06
1.0461e-05
2.61928e-06
9.80868e-06
2.7995e-06
9.12859e-06
2.90505e-06
8.43561e-06
2.94833e-06
7.74156e-06
2.9418e-06
7.05582e-06
2.89655e-06
6.38509e-06
2.82243e-06
5.73418e-06
2.72729e-06
5.1063e-06
2.61723e-06
4.50387e-06
2.49623e-06
3.92883e-06
2.36658e-06
3.38306e-06
2.22884e-06
2.86843e-06
2.08238e-06
2.38699e-06
1.92555e-06
1.94112e-06
1.75629e-06
1.53395e-06
1.5727e-06
1.16905e-06
1.37378e-06
8.49708e-07
1.16008e-06
5.78832e-07
9.34365e-07
3.59945e-07
7.02721e-07
1.93823e-07
4.75756e-07
7.97651e-08
2.69254e-07
1.69052e-08
1.02478e-07
-6.95485e-09
-2.50719e-08
1.79402e-08
-1.07056e-07
1.84563e-07
-2.48782e-07
4.09321e-07
-4.51337e-07
6.73727e-07
-7.12213e-07
9.57341e-07
-1.02939e-06
1.24288e-06
-1.39802e-06
1.51903e-06
-1.81348e-06
1.77907e-06
-2.272e-06
2.02012e-06
-2.77001e-06
2.24232e-06
-3.30405e-06
2.44739e-06
-3.8713e-06
2.63758e-06
-4.46971e-06
2.81533e-06
-5.0978e-06
2.98264e-06
-5.75427e-06
3.1405e-06
-6.43743e-06
3.28823e-06
-7.14495e-06
3.42315e-06
-7.87332e-06
3.54018e-06
-8.61764e-06
3.63197e-06
-9.3708e-06
3.68855e-06
-1.01235e-05
3.69796e-06
-1.08634e-05
3.64605e-06
-1.15752e-05
3.51771e-06
-1.22403e-05
3.29689e-06
-1.28372e-05
2.96874e-06
-1.3341e-05
2.51963e-06
-1.37255e-05
1.94016e-06
-1.3962e-05
1.2249e-06
-1.40232e-05
3.76054e-07
-1.38818e-05
-5.97785e-07
-1.35155e-05
-1.67781e-06
-1.29058e-05
-2.83795e-06
-1.2043e-05
-4.04175e-06
-1.0925e-05
-5.24757e-06
-9.56154e-06
-6.40683e-06
-7.97142e-06
-7.4713e-06
-6.18569e-06
-8.39228e-06
-4.2429e-06
-9.12816e-06
-2.19071e-06
-9.64331e-06
-8.06206e-08
-9.91381e-06
2.03192e-06
-9.92596e-06
4.09208e-06
-9.67943e-06
6.0469e-06
-9.18555e-06
7.84881e-06
-8.46787e-06
9.45783e-06
-7.56047e-06
1.08423e-05
-6.5052e-06
1.19815e-05
-5.3499e-06
1.28651e-05
-4.14359e-06
1.34945e-05
-2.93519e-06
1.38789e-05
-1.76759e-06
1.40357e-05
-6.77703e-07
1.39874e-05
3.07433e-07
1.37613e-05
1.16831e-06
1.3385e-05
1.89547e-06
1.28869e-05
2.48625e-06
1.22937e-05
2.9457e-06
1.16308e-05
3.28296e-06
1.09197e-05
3.51151e-06
1.01792e-05
3.64619e-06
9.42479e-06
3.70316e-06
8.66926e-06
3.69768e-06
7.92224e-06
3.64407e-06
7.19099e-06
3.55444e-06
6.48031e-06
3.43885e-06
5.79359e-06
3.30476e-06
5.1331e-06
3.15737e-06
4.50076e-06
2.99947e-06
3.89829e-06
2.83199e-06
3.32747e-06
2.65409e-06
2.79021e-06
2.46382e-06
2.28902e-06
2.25849e-06
1.82728e-06
2.03555e-06
1.40903e-06
1.79338e-06
1.03803e-06
1.53208e-06
7.18283e-07
1.25428e-06
4.55087e-07
9.66534e-07
2.50661e-07
6.80499e-07
1.07076e-07
4.13846e-07
2.47575e-08
1.87493e-07
2.01199e-08
-3.21322e-08
5.08293e-08
-1.3417e-07
2.87527e-07
-3.06312e-07
5.82552e-07
-5.47602e-07
9.15564e-07
-8.53002e-07
1.26394e-06
-1.21859e-06
1.609e-06
-1.63788e-06
1.93895e-06
-2.105e-06
2.24714e-06
-2.61498e-06
2.53114e-06
-3.164e-06
2.79187e-06
-3.74863e-06
3.03211e-06
-4.36601e-06
3.25511e-06
-5.014e-06
3.46394e-06
-5.69126e-06
3.66095e-06
-6.39663e-06
3.84714e-06
-7.12878e-06
4.02161e-06
-7.8855e-06
4.18095e-06
-8.66355e-06
4.31914e-06
-9.45784e-06
4.42703e-06
-1.02614e-05
4.49282e-06
-1.10644e-05
4.50164e-06
-1.18545e-05
4.43669e-06
-1.26152e-05
4.27903e-06
-1.33275e-05
4.0097e-06
-1.3968e-05
3.6096e-06
-1.45109e-05
3.06277e-06
-1.49269e-05
2.35615e-06
-1.51861e-05
1.48388e-06
-1.52568e-05
4.46397e-07
-1.51104e-05
-7.44716e-07
-1.47197e-05
-2.06911e-06
-1.40651e-05
-3.49305e-06
-1.31328e-05
-4.97436e-06
-1.19212e-05
-6.45905e-06
-1.04383e-05
-7.88938e-06
-8.7062e-06
-9.20245e-06
-6.75696e-06
-1.03402e-05
-4.63506e-06
-1.12484e-05
-2.39136e-06
-1.18852e-05
-8.42753e-08
-1.22191e-05
2.22609e-06
-1.22345e-05
4.47842e-06
-1.19301e-05
6.61442e-06
-1.13203e-05
8.5814e-06
-1.04341e-05
1.03348e-05
-9.31322e-06
1.18408e-05
-8.01063e-06
1.30759e-05
-6.58501e-06
1.40305e-05
-5.09891e-06
1.4706e-05
-3.61151e-06
1.51156e-05
-2.17765e-06
1.52782e-05
-8.40871e-07
1.52205e-05
3.6439e-07
1.49717e-05
1.41668e-06
1.45635e-05
2.30363e-06
1.40258e-05
3.02403e-06
1.33884e-05
3.58337e-06
1.26776e-05
3.99445e-06
1.19169e-05
4.2731e-06
1.11256e-05
4.43839e-06
1.03203e-05
4.50936e-06
9.51393e-06
4.50518e-06
8.71654e-06
4.44283e-06
7.93522e-06
4.33739e-06
7.17497e-06
4.20082e-06
6.43889e-06
4.04241e-06
5.72922e-06
3.86833e-06
5.0476e-06
3.68217e-06
4.39558e-06
3.48502e-06
3.77466e-06
3.276e-06
3.18659e-06
3.05268e-06
2.63388e-06
2.81173e-06
2.12026e-06
2.54973e-06
1.65018e-06
2.26417e-06
1.22809e-06
1.9543e-06
8.59351e-07
1.62231e-06
5.51363e-07
1.27481e-06
3.08274e-07
9.23964e-07
1.34738e-07
5.88878e-07
3.30248e-08
2.91749e-07
5.28466e-08
-3.92732e-08
9.1075e-08
-1.61816e-07
4.10957e-07
-3.65471e-07
7.87559e-07
-6.46994e-07
1.19771e-06
-9.98189e-07
1.61652e-06
-1.41273e-06
2.02414e-06
-1.8823e-06
2.40894e-06
-2.39965e-06
2.76493e-06
-2.95851e-06
3.09071e-06
-3.55452e-06
3.3883e-06
-4.18445e-06
3.66174e-06
-4.84557e-06
3.91549e-06
-5.53589e-06
4.15357e-06
-6.25413e-06
4.37878e-06
-6.99946e-06
4.59224e-06
-7.77073e-06
4.79267e-06
-8.56615e-06
4.97607e-06
-9.38255e-06
5.1351e-06
-1.02153e-05
5.25921e-06
-1.10571e-05
5.33411e-06
-1.18987e-05
5.34264e-06
-1.27269e-05
5.26436e-06
-1.35259e-05
5.07742e-06
-1.42751e-05
4.75832e-06
-1.49512e-05
4.28508e-06
-1.55263e-05
3.63708e-06
-1.59705e-05
2.79952e-06
-1.62504e-05
1.76289e-06
-1.63337e-05
5.28579e-07
-1.61866e-05
-8.92902e-07
-1.57809e-05
-2.47585e-06
-1.50915e-05
-4.18344e-06
-1.41041e-05
-5.96246e-06
-1.28127e-05
-7.75091e-06
-1.12273e-05
-9.475e-06
-9.36873e-06
-1.1061e-05
-7.27418e-06
-1.24344e-05
-4.98966e-06
-1.35323e-05
-2.57293e-06
-1.43012e-05
-8.60102e-08
-1.47051e-05
2.40405e-06
-1.47236e-05
4.8311e-06
-1.43561e-05
7.13108e-06
-1.36195e-05
9.24598e-06
-1.25488e-05
1.11278e-05
-1.1195e-05
1.27386e-05
-9.62136e-06
1.40553e-05
-7.90181e-06
1.50667e-05
-6.11116e-06
1.57778e-05
-4.32371e-06
1.62029e-05
-2.60358e-06
1.63662e-05
-1.00516e-06
1.62959e-05
4.33348e-07
1.60258e-05
1.68534e-06
1.55886e-05
2.7393e-06
1.5018e-05
3.59309e-06
1.43441e-05
4.25567e-06
1.35955e-05
4.74166e-06
1.27957e-05
5.07165e-06
1.19654e-05
5.26759e-06
1.11208e-05
5.35309e-06
1.02756e-05
5.35014e-06
9.4393e-06
5.27941e-06
8.61923e-06
5.15826e-06
7.81991e-06
5.00121e-06
7.04442e-06
4.81896e-06
6.2946e-06
4.61906e-06
5.57194e-06
4.40564e-06
4.8776e-06
4.18013e-06
4.21283e-06
3.94144e-06
3.57909e-06
3.68671e-06
2.97886e-06
3.41179e-06
2.41607e-06
3.11226e-06
1.89568e-06
2.78436e-06
1.42292e-06
2.42615e-06
1.00485e-06
2.03882e-06
6.51067e-07
1.62843e-06
3.68159e-07
1.20696e-06
1.63056e-07
7.94336e-07
4.08184e-08
4.14779e-07
9.07436e-08
-4.68952e-08
1.38521e-07
-1.91257e-07
5.55911e-07
-4.28861e-07
1.02608e-06
-7.5335e-07
1.52205e-06
-1.15268e-06
2.01658e-06
-1.61732e-06
2.48885e-06
-2.13709e-06
2.92843e-06
-2.70324e-06
3.33063e-06
-3.30829e-06
3.69583e-06
-3.94729e-06
4.0277e-06
-4.61709e-06
4.3316e-06
-5.31534e-06
4.61336e-06
-6.04029e-06
4.87802e-06
-6.79096e-06
5.12905e-06
-7.56667e-06
5.36766e-06
-8.36668e-06
5.59238e-06
-9.18933e-06
5.79837e-06
-1.00319e-05
5.97728e-06
-1.08899e-05
6.11665e-06
-1.17566e-05
6.20034e-06
-1.26224e-05
6.20805e-06
-1.34751e-05
6.11668e-06
-1.42981e-05
5.90005e-06
-1.50717e-05
5.53164e-06
-1.57713e-05
4.98437e-06
-1.63696e-05
4.23503e-06
-1.68344e-05
3.26386e-06
-1.71326e-05
2.06054e-06
-1.72276e-05
6.22951e-07
-1.70855e-05
-1.03567e-06
-1.6672e-05
-2.88989e-06
-1.59614e-05
-4.89461e-06
-1.49328e-05
-6.99158e-06
-1.35806e-05
-9.10351e-06
-1.191e-05
-1.11458e-05
-9.94609e-06
-1.3025e-05
-7.72526e-06
-1.46551e-05
-5.30029e-06
-1.5957e-05
-2.73074e-06
-1.68702e-05
-8.60064e-08
-1.73493e-05
2.56288e-06
-1.7372e-05
5.14339e-06
-1.6936e-05
7.58631e-06
-1.60621e-05
9.82935e-06
-1.47919e-05
1.18192e-05
-1.31851e-05
1.35168e-05
-1.13192e-05
1.48965e-05
-9.2813e-06
1.59502e-05
-7.16506e-06
1.66829e-05
-5.05694e-06
1.71154e-05
-3.03599e-06
1.72735e-05
-1.16281e-06
1.71906e-05
5.16203e-07
1.69014e-05
1.97439e-06
1.64425e-05
3.19764e-06
1.58474e-05
4.18734e-06
1.5149e-05
4.95325e-06
1.4375e-05
5.51488e-06
1.35503e-05
5.89537e-06
1.26947e-05
6.12195e-06
1.18252e-05
6.22131e-06
1.09544e-05
6.21988e-06
1.00924e-05
6.14091e-06
9.24568e-06
6.00496e-06
8.41878e-06
5.82837e-06
7.61424e-06
5.62384e-06
6.83381e-06
5.39986e-06
6.07855e-06
5.16141e-06
5.34942e-06
4.91002e-06
4.64723e-06
4.64451e-06
3.97319e-06
4.36139e-06
3.32958e-06
4.05568e-06
2.72048e-06
3.72168e-06
2.15123e-06
3.35411e-06
1.62803e-06
2.94933e-06
1.15965e-06
2.50691e-06
7.57942e-07
2.03141e-06
4.32369e-07
1.53377e-06
1.92955e-07
1.03424e-06
4.74344e-08
5.59879e-07
1.38105e-07
-5.54338e-08
1.94199e-07
-2.24722e-07
7.25373e-07
-5.00538e-07
1.30244e-06
-8.72294e-07
1.89308e-06
-1.32346e-06
2.46795e-06
-1.83993e-06
3.00568e-06
-2.41003e-06
3.4982e-06
-3.02332e-06
3.94333e-06
-3.67147e-06
4.34396e-06
-4.34912e-06
4.70601e-06
-5.05318e-06
5.03655e-06
-5.78163e-06
5.34265e-06
-6.5332e-06
5.63038e-06
-7.30715e-06
5.90379e-06
-8.10318e-06
6.16438e-06
-8.92061e-06
6.41031e-06
-9.75821e-06
6.63621e-06
-1.06133e-05
6.83242e-06
-1.1482e-05
6.98511e-06
-1.23575e-05
7.07565e-06
-1.32313e-05
7.08157e-06
-1.40909e-05
6.976e-06
-1.49211e-05
6.72997e-06
-1.57018e-05
6.31202e-06
-1.641e-05
5.69222e-06
-1.70171e-05
4.8418e-06
-1.74927e-05
3.73907e-06
-1.78011e-05
2.36847e-06
-1.79068e-05
7.28323e-07
-1.77712e-05
-1.17162e-06
-1.73602e-05
-3.30112e-06
-1.66405e-05
-5.61451e-06
-1.55905e-05
-8.04158e-06
-1.41966e-05
-1.04973e-05
-1.24657e-05
-1.28764e-05
-1.04186e-05
-1.50715e-05
-8.09806e-06
-1.69748e-05
-5.55657e-06
-1.84973e-05
-2.8611e-06
-1.95643e-05
-8.33098e-08
-2.01258e-05
2.69838e-06
-2.01526e-05
5.40691e-06
-1.96435e-05
7.96776e-06
-1.86222e-05
1.03134e-05
-1.71372e-05
1.23885e-05
-1.52601e-05
1.41488e-05
-1.30797e-05
1.55712e-05
-1.07035e-05
1.66473e-05
-8.24109e-06
1.73888e-05
-5.79916e-06
1.78179e-05
-3.46554e-06
1.79679e-05
-1.31272e-06
1.78728e-05
6.11432e-07
1.75719e-05
2.27553e-06
1.71008e-05
3.66878e-06
1.64955e-05
4.79209e-06
1.57871e-05
5.66078e-06
1.50049e-05
6.29632e-06
1.4172e-05
6.7275e-06
1.33087e-05
6.98429e-06
1.24306e-05
7.09844e-06
1.15505e-05
7.09914e-06
1.06773e-05
7.0136e-06
9.81773e-06
6.86447e-06
8.97555e-06
6.67068e-06
8.15334e-06
6.44621e-06
7.35235e-06
6.20097e-06
6.57355e-06
5.94046e-06
5.8175e-06
5.6666e-06
5.08476e-06
5.37795e-06
4.37613e-06
5.07051e-06
3.69366e-06
4.7383e-06
3.04134e-06
4.37428e-06
2.42484e-06
3.9713e-06
1.85117e-06
3.52352e-06
1.33072e-06
3.02797e-06
8.77428e-07
2.48657e-06
5.04279e-07
1.90821e-06
2.26162e-07
1.31301e-06
5.49646e-08
7.30442e-07
1.96196e-07
-6.58131e-08
2.60198e-07
-2.65486e-07
9.24809e-07
-5.86303e-07
1.624e-06
-1.01143e-06
2.31769e-06
-1.51958e-06
2.97566e-06
-2.09014e-06
3.57759e-06
-2.71044e-06
4.11866e-06
-3.3687e-06
4.60106e-06
-4.056e-06
5.03107e-06
-4.76716e-06
5.41732e-06
-5.49927e-06
5.7689e-06
-6.25067e-06
6.09429e-06
-7.02044e-06
6.40037e-06
-7.80823e-06
6.69173e-06
-8.61379e-06
6.96987e-06
-9.43672e-06
7.23284e-06
-1.02757e-05
7.47441e-06
-1.11285e-05
7.6841e-06
-1.19911e-05
7.84627e-06
-1.28577e-05
7.94071e-06
-1.37196e-05
7.94193e-06
-1.4566e-05
7.82082e-06
-1.53817e-05
7.5441e-06
-1.61489e-05
7.07768e-06
-1.68443e-05
6.38626e-06
-1.74426e-05
5.43875e-06
-1.79122e-05
4.20751e-06
-1.82206e-05
2.676e-06
-1.83299e-05
8.36883e-07
-1.82037e-05
-1.29834e-06
-1.78017e-05
-3.70329e-06
-1.70907e-05
-6.32536e-06
-1.6039e-05
-9.09282e-06
-1.46318e-05
-1.19037e-05
-1.28666e-05
-1.46404e-05
-1.07683e-05
-1.71682e-05
-8.37653e-06
-1.93647e-05
-5.75113e-06
-2.11207e-05
-2.95848e-06
-2.2355e-05
-7.8366e-08
-2.30044e-05
2.80703e-06
-2.3037e-05
5.61366e-06
-2.24493e-05
8.26146e-06
-2.12698e-05
1.06803e-05
-1.95564e-05
1.28095e-05
-1.73899e-05
1.46055e-05
-1.48771e-05
1.6042e-05
-1.21418e-05
1.71196e-05
-9.32014e-06
1.78515e-05
-6.53328e-06
1.82696e-05
-3.88576e-06
1.84079e-05
-1.45251e-06
1.83071e-05
7.11428e-07
1.80039e-05
2.57823e-06
1.75368e-05
4.13549e-06
1.69387e-05
5.38987e-06
1.62417e-05
6.35751e-06
1.54718e-05
7.06608e-06
1.46524e-05
7.54663e-06
1.38015e-05
7.83476e-06
1.29347e-05
7.96471e-06
1.20631e-05
7.97018e-06
1.11956e-05
7.88055e-06
1.0338e-05
7.72168e-06
9.49415e-06
7.51403e-06
8.66623e-06
7.27353e-06
7.85554e-06
7.0109e-06
7.06272e-06
6.73255e-06
6.28826e-06
6.44051e-06
5.53237e-06
6.13338e-06
4.79555e-06
5.80659e-06
4.07944e-06
5.45328e-06
3.38777e-06
5.06496e-06
2.72617e-06
4.63249e-06
2.10213e-06
4.14723e-06
1.52717e-06
3.60274e-06
1.0173e-06
2.99693e-06
5.89868e-07
2.3352e-06
2.65966e-07
1.6363e-06
6.64141e-08
9.31549e-07
2.63047e-07
-7.97069e-08
3.40143e-07
-3.18485e-07
1.16295e-06
-6.94805e-07
2.00118e-06
-1.18143e-06
2.80474e-06
-1.75233e-06
3.54446e-06
-2.3795e-06
4.20602e-06
-3.04893e-06
4.78866e-06
-3.74867e-06
5.30031e-06
-4.47001e-06
5.75201e-06
-5.20832e-06
6.15535e-06
-5.96127e-06
6.52149e-06
-6.72759e-06
6.86015e-06
-7.50671e-06
7.17899e-06
-8.29834e-06
7.48278e-06
-9.10234e-06
7.77308e-06
-9.91805e-06
8.04744e-06
-1.07442e-05
8.29919e-06
-1.15784e-05
8.51657e-06
-1.24169e-05
8.68296e-06
-1.32539e-05
8.77593e-06
-1.40821e-05
8.76841e-06
-1.48908e-05
8.6279e-06
-1.56671e-05
8.31908e-06
-1.63939e-05
7.80326e-06
-1.70517e-05
7.04309e-06
-1.76154e-05
6.00182e-06
-1.80587e-05
4.65043e-06
-1.83489e-05
2.96602e-06
-1.84532e-05
9.41315e-07
-1.83324e-05
-1.41881e-06
-1.79498e-05
-4.08541e-06
-1.72633e-05
-7.01113e-06
-1.62398e-05
-1.01153e-05
-1.48498e-05
-1.32926e-05
-1.30895e-05
-1.63995e-05
-1.09746e-05
-1.9282e-05
-8.55188e-06
-2.17864e-05
-5.87662e-06
-2.37953e-05
-3.02234e-06
-2.5209e-05
-7.0281e-08
-2.59566e-05
2.88691e-06
-2.59949e-05
5.75818e-06
-2.53211e-05
8.45792e-06
-2.39704e-05
1.0911e-05
-2.20108e-05
1.30583e-05
-1.95379e-05
1.48515e-05
-1.66701e-05
1.62707e-05
-1.35609e-05
1.7319e-05
-1.0368e-05
1.80243e-05
-7.23854e-06
1.84203e-05
-4.28204e-06
1.85496e-05
-1.58214e-06
1.84505e-05
8.111e-07
1.81629e-05
2.86694e-06
1.77196e-05
4.57963e-06
1.71541e-05
5.95588e-06
1.64931e-05
7.01861e-06
1.57624e-05
7.79672e-06
1.49813e-05
8.32727e-06
1.41675e-05
8.64774e-06
1.33338e-05
8.79729e-06
1.24914e-05
8.81146e-06
1.16476e-05
8.72324e-06
1.08085e-05
8.55996e-06
9.97734e-06
8.34442e-06
9.15659e-06
8.09352e-06
8.34742e-06
7.81931e-06
7.55073e-06
7.52861e-06
6.76686e-06
7.22401e-06
5.99598e-06
6.90398e-06
5.23824e-06
6.56374e-06
4.49488e-06
6.19567e-06
3.76902e-06
5.79002e-06
3.06577e-06
5.33556e-06
2.39235e-06
4.82056e-06
1.7606e-06
4.23421e-06
1.1884e-06
3.56899e-06
6.98348e-07
2.82458e-06
3.18783e-07
2.01503e-06
8.17926e-08
1.17219e-06
3.42363e-07
-1.00352e-07
4.4083e-07
-3.92099e-07
1.45341e-06
-8.39216e-07
2.44777e-06
-1.39799e-06
3.36489e-06
-2.03573e-06
4.1793e-06
-2.72057e-06
4.88992e-06
-3.43615e-06
5.50403e-06
-4.17158e-06
6.03559e-06
-4.91981e-06
6.50044e-06
-5.6774e-06
6.91333e-06
-6.44281e-06
7.28717e-06
-7.21528e-06
7.63272e-06
-7.99432e-06
7.95796e-06
-8.77963e-06
8.26782e-06
-9.57058e-06
8.56349e-06
-1.03662e-05
8.84221e-06
-1.11646e-05
9.09645e-06
-1.19633e-05
9.31386e-06
-1.2758e-05
9.47627e-06
-1.35437e-05
9.56034e-06
-1.4313e-05
9.53655e-06
-1.50573e-05
9.37116e-06
-1.57643e-05
9.02534e-06
-1.64206e-05
8.45907e-06
-1.70082e-05
7.63035e-06
-1.7508e-05
6.50149e-06
-1.78952e-05
5.03777e-06
-1.81452e-05
3.21618e-06
-1.82261e-05
1.02246e-06
-1.81069e-05
-1.53779e-06
-1.77475e-05
-4.44467e-06
-1.71094e-05
-7.64918e-06
-1.61452e-05
-1.10795e-05
-1.48196e-05
-1.46182e-05
-1.31084e-05
-1.81108e-05
-1.10288e-05
-2.1362e-05
-8.61883e-06
-2.41972e-05
-5.93816e-06
-2.64771e-05
-3.05386e-06
-2.80944e-05
-5.97333e-08
-2.89519e-05
2.94188e-06
-2.89978e-05
5.84483e-06
-2.82253e-05
8.55439e-06
-2.66806e-05
1.09975e-05
-2.44547e-05
1.3112e-05
-2.16542e-05
1.48558e-05
-1.84152e-05
1.62098e-05
-1.49152e-05
1.71959e-05
-1.13534e-05
1.78491e-05
-7.89157e-06
1.82178e-05
-4.65126e-06
1.83411e-05
-1.70747e-06
1.82613e-05
8.88712e-07
1.80103e-05
3.11608e-06
1.76204e-05
4.96779e-06
1.71167e-05
6.45798e-06
1.65245e-05
7.60933e-06
1.5863e-05
8.4569e-06
1.51506e-05
9.03837e-06
1.44006e-05
9.39625e-06
1.36255e-05
9.57079e-06
1.2834e-05
9.60135e-06
1.2034e-05
9.52196e-06
1.12303e-05
9.36259e-06
1.04269e-05
9.14686e-06
9.62633e-06
8.89332e-06
8.83032e-06
8.61456e-06
8.04002e-06
8.31834e-06
7.25623e-06
8.00749e-06
6.47916e-06