/*--------------------------------*- C++ -*----------------------------------*\
| =========                 |                                                 |
| \\      /  F ield         | OpenFOAM: The Open Source CFD Toolbox           |
|  \\    /   O peration     | Version:  2412                                  |
|   \\  /    A nd           | Website:  www.openfoam.com                      |
|    \\/     M anipulation  |                                                 |
\*---------------------------------------------------------------------------*/
FoamFile
{
    version     2.0;
    format      ascii;
    arch        "LSB;label=32;scalar=64";
    class       volVectorField;
    location    "7.45";
    object      U;
}
// * * * * * * * * * * * * * * * * * * * * * * * * * * * * * * * * * * * * * //

dimensions      [0 1 -1 0 0 0 0];

internalField   nonuniform List<vector> 
6400
(
(1.48729e-06 -1.47427e-06 0)
(-5.25413e-06 1.58298e-06 0)
(-2.52928e-05 4.56647e-06 0)
(-5.55351e-05 6.33751e-06 0)
(-9.14374e-05 7.13999e-06 0)
(-0.000129449 7.29264e-06 0)
(-0.000167158 7.03686e-06 0)
(-0.000203094 6.57095e-06 0)
(-0.000236477 6.00073e-06 0)
(-0.000266972 5.3955e-06 0)
(-0.000294525 4.81757e-06 0)
(-0.000319243 4.27469e-06 0)
(-0.000341279 3.76296e-06 0)
(-0.000360796 3.29278e-06 0)
(-0.000377921 2.84499e-06 0)
(-0.000392694 2.39629e-06 0)
(-0.00040509 1.94687e-06 0)
(-0.000415077 1.50221e-06 0)
(-0.00042263 1.05854e-06 0)
(-0.000427721 6.11905e-07 0)
(-0.00043031 1.58325e-07 0)
(-0.000430352 -3.00765e-07 0)
(-0.000427804 -7.6312e-07 0)
(-0.000422635 -1.22522e-06 0)
(-0.000414834 -1.68251e-06 0)
(-0.000404403 -2.13491e-06 0)
(-0.000391347 -2.58529e-06 0)
(-0.000375664 -3.03629e-06 0)
(-0.000357355 -3.48546e-06 0)
(-0.00033643 -3.92935e-06 0)
(-0.000312922 -4.36312e-06 0)
(-0.000286884 -4.78413e-06 0)
(-0.000258397 -5.18977e-06 0)
(-0.000227573 -5.57493e-06 0)
(-0.000194567 -5.93264e-06 0)
(-0.000159584 -6.2503e-06 0)
(-0.000122883 -6.51973e-06 0)
(-8.47714e-05 -6.73574e-06 0)
(-4.56001e-05 -6.88952e-06 0)
(-5.76851e-06 -6.96905e-06 0)
(3.42938e-05 -6.97468e-06 0)
(7.41514e-05 -6.90954e-06 0)
(0.00011337 -6.76678e-06 0)
(0.000151541 -6.56193e-06 0)
(0.000188291 -6.29789e-06 0)
(0.000223278 -5.97189e-06 0)
(0.000256204 -5.60176e-06 0)
(0.000286836 -5.19738e-06 0)
(0.000315002 -4.77273e-06 0)
(0.000340589 -4.33636e-06 0)
(0.000363514 -3.8838e-06 0)
(0.000383719 -3.42107e-06 0)
(0.000401174 -2.95595e-06 0)
(0.000415868 -2.48388e-06 0)
(0.000427795 -2.00902e-06 0)
(0.000436965 -1.53282e-06 0)
(0.000443392 -1.05582e-06 0)
(0.000447102 -5.77333e-07 0)
(0.000448124 -9.77054e-08 0)
(0.000446506 3.76239e-07 0)
(0.000442311 8.42839e-07 0)
(0.000435608 1.30278e-06 0)
(0.000426468 1.75466e-06 0)
(0.000414964 2.19683e-06 0)
(0.00040116 2.6305e-06 0)
(0.000385096 3.06186e-06 0)
(0.00036677 3.50331e-06 0)
(0.000346136 3.95891e-06 0)
(0.000323109 4.43869e-06 0)
(0.00029756 4.95134e-06 0)
(0.000269342 5.49767e-06 0)
(0.000238344 6.06529e-06 0)
(0.000204595 6.61257e-06 0)
(0.000168399 7.06289e-06 0)
(0.000130523 7.2929e-06 0)
(9.23948e-05 7.12678e-06 0)
(5.63522e-05 6.32176e-06 0)
(2.59122e-05 4.55198e-06 0)
(5.61917e-06 1.55189e-06 0)
(-1.38825e-06 -1.43511e-06 0)
(-1.46682e-06 5.40782e-06 0)
(-2.91998e-05 2.94563e-05 0)
(-8.40444e-05 5.15478e-05 0)
(-0.000159579 6.60172e-05 0)
(-0.000246736 7.31987e-05 0)
(-0.000338408 7.48542e-05 0)
(-0.000429498 7.27882e-05 0)
(-0.000516684 6.85434e-05 0)
(-0.00059806 6.31788e-05 0)
(-0.000672747 5.74025e-05 0)
(-0.000740525 5.16819e-05 0)
(-0.000801526 4.61925e-05 0)
(-0.000856037 4.09937e-05 0)
(-0.000904404 3.61067e-05 0)
(-0.000946918 3.14157e-05 0)
(-0.000983707 2.67616e-05 0)
(-0.00101474 2.20753e-05 0)
(-0.00103993 1.73431e-05 0)
(-0.00105916 1.25475e-05 0)
(-0.00107232 7.67302e-06 0)
(-0.00107929 2.70272e-06 0)
(-0.00107995 -2.364e-06 0)
(-0.00107418 -7.51624e-06 0)
(-0.00106187 -1.27303e-05 0)
(-0.00104293 -1.7974e-05 0)
(-0.00101733 -2.32278e-05 0)
(-0.00098503 -2.84866e-05 0)
(-0.000946029 -3.37473e-05 0)
(-0.000900324 -3.8992e-05 0)
(-0.00084794 -4.41919e-05 0)
(-0.000788944 -4.93051e-05 0)
(-0.000723457 -5.42845e-05 0)
(-0.00065168 -5.90708e-05 0)
(-0.000573906 -6.35891e-05 0)
(-0.000490541 -6.77485e-05 0)
(-0.000402117 -7.14394e-05 0)
(-0.000309298 -7.45622e-05 0)
(-0.000212878 -7.70285e-05 0)
(-0.000113767 -7.8749e-05 0)
(-1.29825e-05 -7.96388e-05 0)
(8.83807e-05 -7.96648e-05 0)
(0.0001892 -7.88319e-05 0)
(0.000288369 -7.71465e-05 0)
(0.000384837 -7.469e-05 0)
(0.000477643 -7.15253e-05 0)
(0.000565924 -6.7711e-05 0)
(0.000648931 -6.33674e-05 0)
(0.000726055 -5.86103e-05 0)
(0.000796841 -5.3567e-05 0)
(0.000860981 -4.8335e-05 0)
(0.000918272 -4.29606e-05 0)
(0.000968588 -3.74983e-05 0)
(0.00101186 -3.19994e-05 0)
(0.00104809 -2.64857e-05 0)
(0.00107727 -2.09793e-05 0)
(0.00109946 -1.54999e-05 0)
(0.00111472 -1.00689e-05 0)
(0.00112315 -4.69902e-06 0)
(0.00112487 5.91282e-07 0)
(0.00112004 5.76302e-06 0)
(0.00110884 1.08002e-05 0)
(0.00109147 1.56963e-05 0)
(0.00106814 2.04498e-05 0)
(0.00103902 2.5066e-05 0)
(0.0010043 2.95763e-05 0)
(0.000964085 3.40427e-05 0)
(0.000918384 3.85635e-05 0)
(0.000867105 4.32141e-05 0)
(0.000810057 4.80759e-05 0)
(0.000746975 5.32009e-05 0)
(0.000677577 5.85634e-05 0)
(0.000601698 6.39913e-05 0)
(0.000519511 6.90712e-05 0)
(0.000431824 7.3091e-05 0)
(0.000340439 7.49683e-05 0)
(0.000248551 7.32266e-05 0)
(0.000161123 6.60362e-05 0)
(8.5202e-05 5.15627e-05 0)
(2.9845e-05 2.94191e-05 0)
(1.59452e-06 5.47099e-06 0)
(-4.45697e-06 2.57742e-05 0)
(-5.18843e-05 8.46551e-05 0)
(-0.000134575 0.000133756 0)
(-0.000243157 0.00016595 0)
(-0.000365842 0.00018222 0)
(-0.000493838 0.000186038 0)
(-0.000620758 0.000181224 0)
(-0.000742323 0.000171142 0)
(-0.000856001 0.00015826 0)
(-0.00096058 0.000144281 0)
(-0.00105571 0.000130278 0)
(-0.00114151 0.000116713 0)
(-0.00121832 0.000103798 0)
(-0.00128656 9.15833e-05 0)
(-0.00134664 7.98419e-05 0)
(-0.00139876 6.82225e-05 0)
(-0.00144291 5.6516e-05 0)
(-0.00147895 4.46412e-05 0)
(-0.00150669 3.25585e-05 0)
(-0.00152594 2.0243e-05 0)
(-0.00153649 7.663e-06 0)
(-0.00153814 -5.18962e-06 0)
(-0.00153069 -1.82966e-05 0)
(-0.00151395 -3.16078e-05 0)
(-0.00148776 -4.50503e-05 0)
(-0.00145203 -5.85649e-05 0)
(-0.00140668 -7.21182e-05 0)
(-0.00135167 -8.56847e-05 0)
(-0.001287 -9.92234e-05 0)
(-0.00121269 -0.000112667 0)
(-0.0011288 -0.000125914 0)
(-0.0010355 -0.000138834 0)
(-0.000933036 -0.000151256 0)
(-0.000821833 -0.000162979 0)
(-0.000702466 -0.00017376 0)
(-0.000575703 -0.000183331 0)
(-0.000442502 -0.00019143 0)
(-0.000304025 -0.000197808 0)
(-0.000161614 -0.00020224 0)
(-1.67595e-05 -0.000204529 0)
(0.000128939 -0.000204573 0)
(0.000273835 -0.00020237 0)
(0.000416296 -0.00019797 0)
(0.000554781 -0.000191551 0)
(0.000687871 -0.000183287 0)
(0.000814309 -0.000173376 0)
(0.000933021 -0.000162095 0)
(0.00104314 -0.000149738 0)
(0.001144 -0.000136619 0)
(0.00123517 -0.000122998 0)
(0.00131636 -0.000109041 0)
(0.00138742 -9.48861e-05 0)
(0.00144829 -8.06495e-05 0)
(0.00149897 -6.64149e-05 0)
(0.00153952 -5.22369e-05 0)
(0.00157003 -3.81681e-05 0)
(0.00159063 -2.4266e-05 0)
(0.00160151 -1.05792e-05 0)
(0.00160287 2.83928e-06 0)
(0.00159499 1.59128e-05 0)
(0.00157814 2.86051e-05 0)
(0.00155265 4.08991e-05 0)
(0.00151881 5.28004e-05 0)
(0.00147694 6.4337e-05 0)
(0.00142727 7.55971e-05 0)
(0.00136998 8.67338e-05 0)
(0.0013051 9.7973e-05 0)
(0.00123253 0.000109511 0)
(0.00115203 0.000121526 0)
(0.00106326 0.000134117 0)
(0.000965883 0.000147187 0)
(0.000859721 0.000160288 0)
(0.000745046 0.000172423 0)
(0.000622947 0.000181927 0)
(0.000495776 0.000186329 0)
(0.00036762 0.000182344 0)
(0.000244699 0.000166079 0)
(0.000135732 0.000133906 0)
(5.24846e-05 8.47794e-05 0)
(4.54881e-06 2.58533e-05 0)
(-6.35596e-06 5.67505e-05 0)
(-6.80018e-05 0.000161616 0)
(-0.000170743 0.000243152 0)
(-0.000302291 0.000295747 0)
(-0.000448694 0.000322116 0)
(-0.000600206 0.000327943 0)
(-0.000749893 0.0003194 0)
(-0.000893088 0.000301933 0)
(-0.00102702 0.000279638 0)
(-0.00115036 0.000255414 0)
(-0.00126276 0.000231042 0)
(-0.00136431 0.000207312 0)
(-0.00145536 0.000184618 0)
(-0.00153637 0.000163068 0)
(-0.00160777 0.000142338 0)
(-0.00166985 0.000121876 0)
(-0.00172266 0.00010128 0)
(-0.00176605 8.03383e-05 0)
(-0.00179973 5.89641e-05 0)
(-0.00182341 3.71203e-05 0)
(-0.00183682 1.47626e-05 0)
(-0.00183967 -8.11983e-06 0)
(-0.0018317 -3.14968e-05 0)
(-0.00181264 -5.52879e-05 0)
(-0.0017823 -7.93739e-05 0)
(-0.0017405 -0.000103647 0)
(-0.00168713 -0.000128034 0)
(-0.00162213 -0.000152474 0)
(-0.00154544 -0.000176893 0)
(-0.00145708 -0.000201175 0)
(-0.0013571 -0.000225149 0)
(-0.00124564 -0.000248571 0)
(-0.00112298 -0.000271128 0)
(-0.000989571 -0.000292438 0)
(-0.000846085 -0.000312059 0)
(-0.000693429 -0.000329499 0)
(-0.000532777 -0.000344261 0)
(-0.000365566 -0.000355878 0)
(-0.000193461 -0.000363936 0)
(-1.83138e-05 -0.000368091 0)
(0.000157892 -0.000368155 0)
(0.000333108 -0.000364102 0)
(0.000505294 -0.000356038 0)
(0.000672509 -0.000344266 0)
(0.000832982 -0.000329128 0)
(0.000985166 -0.000311033 0)
(0.00112777 -0.000290475 0)
(0.00125975 -0.000267984 0)
(0.00138034 -0.000244112 0)
(0.00148902 -0.00021934 0)
(0.00158549 -0.000194008 0)
(0.00166961 -0.000168376 0)
(0.00174134 -0.000142641 0)
(0.00180075 -0.000116958 0)
(0.00184792 -9.14364e-05 0)
(0.00188302 -6.6175e-05 0)
(0.00190626 -4.12715e-05 0)
(0.00191786 -1.68252e-05 0)
(0.00191815 7.06439e-06 0)
(0.00190745 3.02846e-05 0)
(0.00188614 5.27714e-05 0)
(0.00185462 7.44974e-05 0)
(0.0018133 9.5479e-05 0)
(0.00176255 0.000115783 0)
(0.0017027 0.000135572 0)
(0.00163398 0.000155115 0)
(0.00155645 0.000174789 0)
(0.00147004 0.000194947 0)
(0.00137448 0.000215896 0)
(0.0012694 0.000237787 0)
(0.0011544 0.000260441 0)
(0.00102929 0.000283072 0)
(0.000894342 0.000304001 0)
(0.000750716 0.000320449 0)
(0.000600962 0.000328332 0)
(0.000449512 0.000322265 0)
(0.000303123 0.000295947 0)
(0.000171424 0.000243481 0)
(6.83368e-05 0.000162018 0)
(6.39443e-06 5.68824e-05 0)
(-7.44871e-06 9.43857e-05 0)
(-7.79894e-05 0.000252613 0)
(-0.000193668 0.000369832 0)
(-0.000339871 0.000443833 0)
(-0.000500977 0.000480204 0)
(-0.000666614 0.000487428 0)
(-0.000829652 0.000474282 0)
(-0.000985349 0.000448406 0)
(-0.00113091 0.000415616 0)
(-0.00126505 0.000380081 0)
(-0.00138748 0.000344306 0)
(-0.00149835 0.000309381 0)
(-0.00159795 0.000275855 0)
(-0.00168672 0.000243899 0)
(-0.00176509 0.000213132 0)
(-0.00183337 0.000182832 0)
(-0.00189168 0.000152366 0)
(-0.00193985 0.00012134 0)
(-0.00197755 8.95874e-05 0)
(-0.00200442 5.70512e-05 0)
(-0.00202009 2.36859e-05 0)
(-0.00202422 -1.05123e-05 0)
(-0.00201649 -4.54937e-05 0)
(-0.00199661 -8.11469e-05 0)
(-0.00196433 -0.00011731 0)
(-0.00191944 -0.000153826 0)
(-0.00186177 -0.000190577 0)
(-0.00179123 -0.000227461 0)
(-0.00170773 -0.000264356 0)
(-0.00161127 -0.000301099 0)
(-0.00150185 -0.000337451 0)
(-0.00137957 -0.000373054 0)
(-0.00124466 -0.000407429 0)
(-0.00109757 -0.000439981 0)
(-0.00093896 -0.000470017 0)
(-0.000769825 -0.000496764 0)
(-0.000591479 -0.000519422 0)
(-0.000405557 -0.000537255 0)
(-0.000213971 -0.000549622 0)
(-1.88506e-05 -0.000556004 0)
(0.000177516 -0.000556106 0)
(0.000372761 -0.000549864 0)
(0.000564518 -0.000537441 0)
(0.000750528 -0.000519288 0)
(0.000928733 -0.000495968 0)
(0.00109736 -0.000468169 0)
(0.00125497 -0.000436667 0)
(0.00140042 -0.000402273 0)
(0.00153291 -0.000365825 0)
(0.00165191 -0.000328058 0)
(0.00175716 -0.000289523 0)
(0.00184857 -0.000250629 0)
(0.00192618 -0.000211674 0)
(0.0019901 -0.000172872 0)
(0.0020405 -0.000134396 0)
(0.00207757 -9.63893e-05 0)
(0.00210158 -5.89934e-05 0)
(0.0021128 -2.23586e-05 0)
(0.0021116 1.33637e-05 0)
(0.00209836 4.80196e-05 0)
(0.00207352 8.15099e-05 0)
(0.00203756 0.000113795 0)
(0.00199094 0.000144904 0)
(0.00193412 0.00017495 0)
(0.0018675 0.000204175 0)
(0.00179137 0.00023298 0)
(0.00170587 0.000261905 0)
(0.00161093 0.000291491 0)
(0.00150631 0.000322195 0)
(0.00139162 0.000354243 0)
(0.00126641 0.000387384 0)
(0.00113044 0.000420491 0)
(0.000983918 0.000451182 0)
(0.000827978 0.000475511 0)
(0.000665165 0.000487706 0)
(0.000499977 0.000480153 0)
(0.000339351 0.000443905 0)
(0.000193469 0.000370232 0)
(7.79223e-05 0.000253234 0)
(7.43599e-06 9.45939e-05 0)
(-8.04592e-06 0.000135744 0)
(-8.35416e-05 0.000351876 0)
(-0.000206655 0.000506818 0)
(-0.00036123 0.000602624 0)
(-0.000530521 0.000648603 0)
(-0.000703774 0.000656565 0)
(-0.000873847 0.000638138 0)
(-0.00103607 0.000603218 0)
(-0.00118772 0.000559354 0)
(-0.00132762 0.00051203 0)
(-0.00145557 0.000464461 0)
(-0.00157176 0.000417978 0)
(-0.00167649 0.000373216 0)
(-0.00177008 0.000330376 0)
(-0.00185288 0.000289056 0)
(-0.00192519 0.000248403 0)
(-0.00198712 0.000207555 0)
(-0.00203851 0.000165916 0)
(-0.00207903 0.00012321 0)
(-0.00210827 7.93413e-05 0)
(-0.00212578 3.42773e-05 0)
(-0.00213119 -1.19669e-05 0)
(-0.00212416 -5.93133e-05 0)
(-0.00210436 -0.000107619 0)
(-0.00207152 -0.000156684 0)
(-0.0020254 -0.000206305 0)
(-0.00196583 -0.00025632 0)
(-0.00189265 -0.00030658 0)
(-0.00180579 -0.000356912 0)
(-0.00170519 -0.000407112 0)
(-0.00159082 -0.000456898 0)
(-0.0014627 -0.000505806 0)
(-0.00132098 -0.000553183 0)
(-0.001166 -0.000598195 0)
(-0.000998408 -0.000639851 0)
(-0.000819201 -0.000677031 0)
(-0.000629774 -0.00070858 0)
(-0.000431901 -0.000733434 0)
(-0.000227689 -0.000750687 0)
(-1.95037e-05 -0.000759614 0)
(0.000190107 -0.000759791 0)
(0.000398502 -0.000751112 0)
(0.000603041 -0.00073379 0)
(0.000801197 -0.000708443 0)
(0.000990677 -0.000675904 0)
(0.00116952 -0.000637195 0)
(0.00133614 -0.000593452 0)
(0.00148939 -0.000545825 0)
(0.00162846 -0.000495486 0)
(0.00175292 -0.000443458 0)
(0.00186258 -0.000390524 0)
(0.00195747 -0.000337249 0)
(0.00203771 -0.000284025 0)
(0.00210347 -0.000231124 0)
(0.00215498 -0.000178761 0)
(0.00219246 -0.000127114 0)
(0.00221618 -7.63651e-05 0)
(0.00222645 -2.67101e-05 0)
(0.00222363 2.16421e-05 0)
(0.00220815 6.84869e-05 0)
(0.00218048 0.000113681 0)
(0.00214113 0.000157164 0)
(0.00209063 0.000198974 0)
(0.0020295 0.000239262 0)
(0.00195821 0.000278351 0)
(0.00187713 0.000316776 0)
(0.00178648 0.000355258 0)
(0.00168626 0.000394541 0)
(0.00157626 0.000435262 0)
(0.00145607 0.000477746 0)
(0.00132525 0.000521699 0)
(0.00118351 0.000565668 0)
(0.00103101 0.000606577 0)
(0.000868805 0.000639322 0)
(0.000699363 0.000656423 0)
(0.000527095 0.000647971 0)
(0.00035894 0.000602182 0)
(0.000205395 0.00050696 0)
(8.31187e-05 0.000352442 0)
(8.04351e-06 0.000136105 0)
(-8.36238e-06 0.000178984 0)
(-8.62941e-05 0.000455521 0)
(-0.000213141 0.000649317 0)
(-0.000371869 0.00076705 0)
(-0.000545136 0.000822279 0)
(-0.000722028 0.00083051 0)
(-0.000895503 0.000806434 0)
(-0.00106102 0.000762211 0)
(-0.00121591 0.000707093 0)
(-0.00135909 0.000647888 0)
(-0.00149043 0.000588517 0)
(-0.00161016 0.000530526 0)
(-0.00171853 0.00047452 0)
(-0.00181576 0.000420688 0)
(-0.00190204 0.000368608 0)
(-0.00197759 0.000317332 0)
(-0.00204244 0.000265801 0)
(-0.00209644 0.000213234 0)
(-0.00213926 0.000159234 0)
(-0.00217046 0.000103657 0)
(-0.00218959 4.64812e-05 0)
(-0.00219625 -1.22483e-05 0)
(-0.00219007 -7.24191e-05 0)
(-0.00217072 -0.000133852 0)
(-0.00213794 -0.000196305 0)
(-0.00209147 -0.000259532 0)
(-0.00203114 -0.000323323 0)
(-0.00195682 -0.000387483 0)
(-0.0018684 -0.000451802 0)
(-0.00176583 -0.000516049 0)
(-0.00164902 -0.000579929 0)
(-0.0015179 -0.000642899 0)
(-0.00137249 -0.000704143 0)
(-0.00121301 -0.000762569 0)
(-0.00103999 -0.000816839 0)
(-0.000854394 -0.000865427 0)
(-0.000657646 -0.000906756 0)
(-0.00045163 -0.000939375 0)
(-0.000238624 -0.000962058 0)
(-2.12161e-05 -0.000973838 0)
(0.000197799 -0.000974149 0)
(0.000415524 -0.000962831 0)
(0.000629069 -0.000940163 0)
(0.000835673 -0.000906936 0)
(0.00103282 -0.000864287 0)
(0.00121835 -0.000813628 0)
(0.00139061 -0.000756538 0)
(0.0015484 -0.000694598 0)
(0.00169103 -0.000629362 0)
(0.00181818 -0.00056218 0)
(0.00192984 -0.000494077 0)
(0.00202616 -0.000425757 0)
(0.00210737 -0.000357681 0)
(0.0021737 -0.000290148 0)
(0.00222539 -0.00022339 0)
(0.00226267 -0.000157608 0)
(0.00228578 -9.30125e-05 0)
(0.00229503 -2.98404e-05 0)
(0.00229076 3.16378e-05 0)
(0.00227338 9.11583e-05 0)
(0.00224337 0.000148524 0)
(0.00220126 0.000203633 0)
(0.0021476 0.000256517 0)
(0.00208298 0.000307353 0)
(0.00200794 0.000356527 0)
(0.00192296 0.000404707 0)
(0.00182836 0.000452795 0)
(0.00172422 0.000501757 0)
(0.0016104 0.000552443 0)
(0.00148655 0.000605302 0)
(0.00135224 0.000660005 0)
(0.0012072 0.000714799 0)
(0.00105162 0.000765947 0)
(0.0008865 0.000807223 0)
(0.000714205 0.000829475 0)
(0.000538997 0.000820484 0)
(0.0003677 0.000765474 0)
(0.000210895 0.000648593 0)
(8.56528e-05 0.000455599 0)
(8.43278e-06 0.000179569 0)
(-8.54531e-06 0.000223101 0)
(-8.7522e-05 0.000561223 0)
(-0.000215982 0.00079436 0)
(-0.000376508 0.000934035 0)
(-0.000551593 0.000998369 0)
(-0.00073034 0.00100673 0)
(-0.000905875 0.000977031 0)
(-0.00107377 0.000923631 0)
(-0.00123137 0.00085742 0)
(-0.00137755 0.000786504 0)
(-0.00151218 0.000715513 0)
(-0.00163547 0.000646223 0)
(-0.00174762 0.000579131 0)
(-0.00184871 0.000514352 0)
(-0.00193877 0.000451424 0)
(-0.00201785 0.000389321 0)
(-0.00208588 0.000326833 0)
(-0.00214265 0.000263033 0)
(-0.00218782 0.000197416 0)
(-0.00222095 0.0001298 0)
(-0.00224162 6.01726e-05 0)
(-0.00224941 -1.13916e-05 0)
(-0.00224398 -8.47432e-05 0)
(-0.00222499 -0.00015966 0)
(-0.0021922 -0.000235852 0)
(-0.00214538 -0.000313016 0)
(-0.00208439 -0.000390892 0)
(-0.00200915 -0.000469248 0)
(-0.00191959 -0.000547846 0)
(-0.00181565 -0.000626462 0)
(-0.00169721 -0.000704825 0)
(-0.00156412 -0.000782364 0)
(-0.00141624 -0.000858129 0)
(-0.0012536 -0.000930774 0)
(-0.00107656 -0.000998569 0)
(-0.000885979 -0.0010595 0)
(-0.000683284 -0.00111149 0)
(-0.000470465 -0.00115262 0)
(-0.000249984 -0.00118127 0)
(-2.4653e-05 -0.00119622 0)
(0.000202481 -0.00119673 0)
(0.000428261 -0.00118259 0)
(0.000649545 -0.00115415 0)
(0.00086333 -0.0011124 0)
(0.00106687 -0.00105879 0)
(0.00125785 -0.000995193 0)
(0.00143447 -0.000923712 0)
(0.00159558 -0.00084648 0)
(0.00174062 -0.000765516 0)
(0.00186948 -0.000682522 0)
(0.00198236 -0.000598757 0)
(0.00207957 -0.000515034 0)
(0.00216146 -0.000431825 0)
(0.00222829 -0.000349406 0)
(0.00228029 -0.000267988 0)
(0.00231763 -0.000187773 0)
(0.00234048 -0.000109 0)
(0.0023491 -3.19496e-05 0)
(0.00234377 4.30468e-05 0)
(0.00232489 0.00011566 0)
(0.00229288 0.000185624 0)
(0.00224828 0.000252779 0)
(0.00219164 0.000317124 0)
(0.00212359 0.000378824 0)
(0.00204476 0.000438307 0)
(0.00195574 0.000496352 0)
(0.00185699 0.000554038 0)
(0.00174872 0.000612574 0)
(0.0016309 0.000673034 0)
(0.00150327 0.000736015 0)
(0.00136552 0.000801142 0)
(0.00121749 0.000866383 0)
(0.00105945 0.000927385 0)
(0.000892446 0.000976866 0)
(0.000718791 0.00100408 0)
(0.000542597 0.000994533 0)
(0.000370495 0.000930384 0)
(0.000212873 0.000791875 0)
(8.66516e-05 0.000560286 0)
(8.64438e-06 0.000223709 0)
(-8.68115e-06 0.000267641 0)
(-8.81039e-05 0.000667819 0)
(-0.000217277 0.000940487 0)
(-0.000378767 0.00110223 0)
(-0.000555231 0.00117588 0)
(-0.000735897 0.00118468 0)
(-0.000914059 0.00114983 0)
(-0.00108535 0.00108777 0)
(-0.00124697 0.00101093 0)
(-0.00139768 0.00092866 0)
(-0.00153718 0.000846284 0)
(-0.00166556 0.00076585 0)
(-0.0017829 0.000687771 0)
(-0.00188918 0.000612039 0)
(-0.00198427 0.000538098 0)
(-0.00206798 0.000464858 0)
(-0.00214012 0.000390997 0)
(-0.00220035 0.000315487 0)
(-0.00224831 0.000237758 0)
(-0.00228357 0.000157622 0)
(-0.00230574 7.50861e-05 0)
(-0.00231445 -9.74517e-06 0)
(-0.00230939 -9.66926e-05 0)
(-0.00229026 -0.000185497 0)
(-0.00225682 -0.000275803 0)
(-0.0022089 -0.000367235 0)
(-0.00214643 -0.000459462 0)
(-0.00206943 -0.000552212 0)
(-0.00197794 -0.000645247 0)
(-0.00187196 -0.000738382 0)
(-0.00175136 -0.000831432 0)
(-0.00161591 -0.000923872 0)
(-0.00146528 -0.00101469 0)
(-0.00129925 -0.0011023 0)
(-0.00111791 -0.00118455 0)
(-0.000921975 -0.00125882 0)
(-0.000712864 -0.00132241 0)
(-0.000492689 -0.00137282 0)
(-0.00026412 -0.00140802 0)
(-3.02205e-05 -0.00142646 0)
(0.0002057 -0.00142724 0)
(0.000440209 -0.00141007 0)
(0.000669892 -0.00137542 0)
(0.000891481 -0.00132445 0)
(0.00110198 -0.00125898 0)
(0.00129887 -0.0011814 0)
(0.00148024 -0.00109444 0)
(0.001645 -0.00100093 0)
(0.00179275 -0.000903464 0)
(0.0019237 -0.000804135 0)
(0.00203832 -0.000704396 0)
(0.00213713 -0.000605099 0)
(0.00222054 -0.000506653 0)
(0.00228885 -0.000409231 0)
(0.00234217 -0.000312974 0)
(0.00238055 -0.000218055 0)
(0.00240406 -0.000124752 0)
(0.00241282 -3.34153e-05 0)
(0.00240708 5.55577e-05 0)
(0.00238716 0.000141774 0)
(0.00235343 0.000224889 0)
(0.00230638 0.000304667 0)
(0.00224654 0.000381036 0)
(0.00217455 0.000454104 0)
(0.00209114 0.000524294 0)
(0.00199704 0.000592458 0)
(0.00189287 0.00065985 0)
(0.00177903 0.000727921 0)
(0.00165565 0.000797977 0)
(0.00152263 0.000870759 0)
(0.00137984 0.00094584 0)
(0.00122732 0.00102091 0)
(0.00106555 0.00109103 0)
(0.000895745 0.00114795 0)
(0.000720267 0.00117944 0)
(0.000543165 0.00116883 0)
(0.000370822 0.00109527 0)
(0.000213189 0.000935194 0)
(8.67366e-05 0.00066527 0)
(8.65772e-06 0.000267661 0)
(-8.80894e-06 0.00031246 0)
(-8.85527e-05 0.000774948 0)
(-0.000218378 0.00108738 0)
(-0.000381134 0.00127166 0)
(-0.000559895 0.00135539 0)
(-0.00074407 0.00136549 0)
(-0.000926999 0.00132643 0)
(-0.00110421 0.00125657 0)
(-0.00127264 0.00116985 0)
(-0.00143076 0.00107672 0)
(-0.001578 0.000983193 0)
(-0.00171417 0.00089162 0)
(-0.00183916 0.000802439 0)
(-0.00195281 0.000715519 0)
(-0.00205482 0.000630177 0)
(-0.00214483 0.000545234 0)
(-0.00222243 0.000459288 0)
(-0.00228714 0.000371268 0)
(-0.00233851 0.000280599 0)
(-0.00237614 0.000187147 0)
(-0.00239972 9.09708e-05 0)
(-0.00240898 -7.79057e-06 0)
(-0.00240366 -0.00010895 0)
(-0.00238351 -0.000212234 0)
(-0.0023483 -0.000317214 0)
(-0.00229789 -0.000423401 0)
(-0.00223236 -0.000530349 0)
(-0.00215188 -0.000637723 0)
(-0.00205671 -0.000745304 0)
(-0.00194697 -0.000853013 0)
(-0.00182263 -0.000960825 0)
(-0.00168338 -0.00106838 0)
(-0.00152865 -0.00117473 0)
(-0.00135787 -0.00127809 0)
(-0.00117078 -0.0013758 0)
(-0.000967878 -0.00146452 0)
(-0.000750591 -0.00154076 0)
(-0.000521186 -0.00160135 0)
(-0.00028259 -0.00164372 0)
(-3.8156e-05 -0.001666 0)
(0.000208526 -0.00166711 0)
(0.000453749 -0.00164673 0)
(0.000693816 -0.00160537 0)
(0.000925159 -0.00154443 0)
(0.00114449 -0.00146609 0)
(0.00134902 -0.00137334 0)
(0.00153673 -0.0012697 0)
(0.00170654 -0.00115884 0)
(0.00185837 -0.00104409 0)
(0.0019928 -0.000927972 0)
(0.00211067 -0.000812075 0)
(0.00221273 -0.000697165 0)
(0.00229945 -0.000583466 0)
(0.00237104 -0.000470957 0)
(0.00242746 -0.000359631 0)
(0.00246853 -0.000249612 0)
(0.00249411 -0.000141236 0)
(0.00250417 -3.49881e-05 0)
(0.00249888 6.86508e-05 0)
(0.00247849 0.00016922 0)
(0.00244332 0.000266309 0)
(0.00239375 0.000359593 0)
(0.00233025 0.000448885 0)
(0.00225346 0.000534171 0)
(0.00216418 0.000615795 0)
(0.00206332 0.000694631 0)
(0.00195175 0.000772077 0)
(0.00183008 0.000849836 0)
(0.00169864 0.000929462 0)
(0.00155754 0.00101182 0)
(0.00140687 0.00109639 0)
(0.00124697 0.00118058 0)
(0.00107865 0.00125886 0)
(0.000903461 0.00132207 0)
(0.000724022 0.00135662 0)
(0.00054446 0.00134385 0)
(0.000370938 0.00126014 0)
(0.000212913 0.00107831 0)
(8.63821e-05 0.000770058 0)
(8.5712e-06 0.000311215 0)
(-8.93703e-06 0.000357542 0)
(-8.90407e-05 0.000882696 0)
(-0.000219925 0.00123547 0)
(-0.000385057 0.00144338 0)
(-0.00056812 0.00153869 0)
(-0.00075867 0.00155169 0)
(-0.000949822 0.00150981 0)
(-0.00113668 0.00143328 0)
(-0.00131573 0.00133755 0)
(-0.00148507 0.00123413 0)
(-0.00164375 0.00112964 0)
(-0.00179119 0.00102676 0)
(-0.00192698 0.000926087 0)
(-0.00205074 0.000827406 0)
(-0.00216203 0.000729935 0)
(-0.00226031 0.000632372 0)
(-0.00234494 0.000533244 0)
(-0.00241525 0.000431477 0)
(-0.00247067 0.000326593 0)
(-0.00251084 0.000218599 0)
(-0.00253557 0.000107673 0)
(-0.00254478 -6.00884e-06 0)
(-0.00253832 -0.000122301 0)
(-0.00251596 -0.000240963 0)
(-0.00247742 -0.000361499 0)
(-0.00242264 -0.000483233 0)
(-0.0023518 -0.000605508 0)
(-0.00226539 -0.000727879 0)
(-0.00216397 -0.000850144 0)
(-0.00204797 -0.000972412 0)
(-0.00191752 -0.00109494 0)
(-0.0017723 -0.00121772 0)
(-0.00161146 -0.00134003 0)
(-0.00143393 -0.00146 0)
(-0.00123895 -0.00157437 0)
(-0.00102673 -0.00167885 0)
(-0.000798724 -0.00176896 0)
(-0.000557444 -0.0018407 0)
(-0.000306163 -0.00189092 0)
(-4.856e-05 -0.00191743 0)
(0.000211501 -0.00191898 0)
(0.000470071 -0.00189519 0)
(0.000723196 -0.00184666 0)
(0.000967005 -0.00177495 0)
(0.00119785 -0.00168264 0)
(0.00141258 -0.0015734 0)
(0.00160894 -0.00145167 0)
(0.00178591 -0.00132225 0)
(0.0019438 -0.0011894 0)
(0.00208376 -0.00105612 0)
(0.00220711 -0.000924023 0)
(0.00231483 -0.000793596 0)
(0.00240741 -0.000664701 0)
(0.00248486 -0.000536985 0)
(0.00254683 -0.000410218 0)
(0.00259282 -0.000284454 0)
(0.00262236 -0.000160141 0)
(0.00263521 -3.79794e-05 0)
(0.00263147 8.1382e-05 0)
(0.00261136 0.000197409 0)
(0.00257515 0.000309673 0)
(0.00252305 0.000417778 0)
(0.0024554 0.000521365 0)
(0.00237278 0.000620212 0)
(0.00227609 0.000714462 0)
(0.00216648 0.000804925 0)
(0.00204512 0.000893118 0)
(0.00191293 0.000981024 0)
(0.00177043 0.00107047 0)
(0.0016179 0.00116244 0)
(0.00145569 0.00125626 0)
(0.00128449 0.00134894 0)
(0.00110558 0.00143435 0)
(0.000921071 0.00150243 0)
(0.000734077 0.00153834 0)
(0.00054907 0.00152165 0)
(0.000372205 0.00142637 0)
(0.000212669 0.00122184 0)
(8.60224e-05 0.000874569 0)
(8.59077e-06 0.000354821 0)
(-9.02353e-06 0.000402832 0)
(-8.93389e-05 0.000991273 0)
(-0.000221861 0.00138568 0)
(-0.000391141 0.00161935 0)
(-0.000581515 0.00172868 0)
(-0.000782472 0.00174701 0)
(-0.000986463 0.0017041 0)
(-0.00118763 0.00162208 0)
(-0.00138178 0.00151811 0)
(-0.00156656 0.0014048 0)
(-0.00174066 0.00128937 0)
(-0.00190311 0.0011748 0)
(-0.00205307 0.00106188 0)
(-0.00218987 0.000950464 0)
(-0.00231289 0.000839721 0)
(-0.00242148 0.000728216 0)
(-0.00251475 0.000614353 0)
(-0.00259173 0.000497098 0)
(-0.00265167 0.000376196 0)
(-0.00269428 0.000251954 0)
(-0.00271963 0.000124769 0)
(-0.0027279 -5.15701e-06 0)
(-0.00271915 -0.000137818 0)
(-0.00269312 -0.000273118 0)
(-0.00264943 -0.000410496 0)
(-0.00258794 -0.000548971 0)
(-0.00250906 -0.000687515 0)
(-0.00241366 -0.000825459 0)
(-0.00230279 -0.000962601 0)
(-0.00217735 -0.00109931 0)
(-0.00203787 -0.00123629 0)
(-0.00188409 -0.00137418 0)
(-0.00171486 -0.00151279 0)
(-0.00152837 -0.0016503 0)
(-0.00132313 -0.00178274 0)
(-0.00109893 -0.00190453 0)
(-0.000857364 -0.00200986 0)
(-0.000601363 -0.00209375 0)
(-0.000334657 -0.00215246 0)
(-6.12678e-05 -0.00218354 0)
(0.000214721 -0.00218563 0)
(0.000489211 -0.00215831 0)
(0.00075809 -0.00210223 0)
(0.00101723 -0.00201902 0)
(0.00126255 -0.00191161 0)
(0.00149039 -0.00178434 0)
(0.00169804 -0.00164288 0)
(0.0018845 -0.00149349 0)
(0.00205068 -0.00134173 0)
(0.00219857 -0.00119111 0)
(0.00233013 -0.001043 0)
(0.00244656 -0.000897355 0)
(0.0025482 -0.000753411 0)
(0.00263473 -0.00061032 0)
(0.00270533 -0.00046754 0)
(0.00275897 -0.000325052 0)
(0.00279475 -0.000183514 0)
(0.00281219 -4.39882e-05 0)
(0.00281136 9.25589e-05 0)
(0.00279256 0.000225529 0)
(0.00275599 0.000354583 0)
(0.00270162 0.000479312 0)
(0.00262951 0.000599139 0)
(0.00254012 0.000713477 0)
(0.00243447 0.000822089 0)
(0.00231406 0.000925577 0)
(0.00218051 0.00102557 0)
(0.00203507 0.00112442 0)
(0.00187844 0.00122433 0)
(0.00171098 0.00132635 0)
(0.00153321 0.00142957 0)
(0.00134619 0.00153044 0)
(0.00115183 0.00162208 0)
(0.000952951 0.00169346 0)
(0.000753546 0.00172856 0)
(0.000558828 0.00170545 0)
(0.00037544 0.0015961 0)
(0.000212719 0.00136662 0)
(8.56523e-05 0.00097889 0)
(8.73531e-06 0.000398701 0)
(-8.92463e-06 0.000448006 0)
(-8.8718e-05 0.00110075 0)
(-0.000223523 0.00153933 0)
(-0.000399484 0.00180243 0)
(-0.000601352 0.00192946 0)
(-0.00081793 0.00195639 0)
(-0.00104033 0.00191445 0)
(-0.00126102 0.00182788 0)
(-0.00147487 0.00171596 0)
(-0.00167918 0.00159274 0)
(-0.00187244 0.00146601 0)
(-0.00205331 0.00133896 0)
(-0.00222047 0.00121264 0)
(-0.00237287 0.00108705 0)
(-0.00250977 0.000961466 0)
(-0.00263044 0.000834268 0)
(-0.00273373 0.000703633 0)
(-0.0028182 0.000568567 0)
(-0.00288282 0.000429248 0)
(-0.00292736 0.000286543 0)
(-0.00295234 0.000141221 0)
(-0.00295847 -6.52577e-06 0)
(-0.00294606 -0.000157037 0)
(-0.00291476 -0.000310571 0)
(-0.00286388 -0.000466537 0)
(-0.0027931 -0.000623437 0)
(-0.00270307 -0.000779587 0)
(-0.00259519 -0.000933915 0)
(-0.00247117 -0.00108618 0)
(-0.00233264 -0.00123703 0)
(-0.00218075 -0.00138785 0)
(-0.0020156 -0.00154029 0)
(-0.00183574 -0.00169524 0)
(-0.00163829 -0.00185124 0)
(-0.00142057 -0.00200339 0)
(-0.00118186 -0.00214425 0)
(-0.000924089 -0.00226619 0)
(-0.000650906 -0.00236308 0)
(-0.000366649 -0.00243069 0)
(-7.56504e-05 -0.0024665 0)
(0.000217934 -0.00246917 0)
(0.000510052 -0.00243828 0)
(0.000796636 -0.00237444 0)
(0.00107344 -0.00227922 0)
(0.00133593 -0.00215563 0)
(0.00157964 -0.00200869 0)
(0.00180112 -0.00184551 0)
(0.00199926 -0.00167453 0)
(0.00217581 -0.00150312 0)
(0.00233412 -0.00133534 0)
(0.00247698 -0.00117185 0)
(0.00260566 -0.00101156 0)
(0.0027201 -0.000852819 0)
(0.00281943 -0.000694125 0)
(0.00290218 -0.00053452 0)
(0.00296662 -0.000373931 0)
(0.00301124 -0.000213384 0)
(0.0030353 -5.45843e-05 0)
(0.00303899 0.000100963 0)
(0.00302288 0.000252651 0)
(0.00298708 0.00040046 0)
(0.0029312 0.000544107 0)
(0.0028548 0.00068274 0)
(0.00275809 0.000815163 0)
(0.00264222 0.000940451 0)
(0.00250921 0.00105879 0)
(0.00236137 0.00117193 0)
(0.00220042 0.0012828 0)
(0.00202708 0.0013942 0)
(0.00184157 0.00150728 0)
(0.00164441 0.00162065 0)
(0.00143702 0.00172995 0)
(0.00122193 0.00182731 0)
(0.00100295 0.00190053 0)
(0.000785261 0.00193231 0)
(0.000575402 0.00189939 0)
(0.000381271 0.001772 0)
(0.000212869 0.00151369 0)
(8.44547e-05 0.00108324 0)
(8.63367e-06 0.000442049 0)
(-8.31757e-06 0.00049215 0)