/*--------------------------------*- C++ -*----------------------------------*\
| =========                 |                                                 |
| \\      /  F ield         | OpenFOAM: The Open Source CFD Toolbox           |
|  \\    /   O peration     | Version:  2412                                  |
|   \\  /    A nd           | Website:  www.openfoam.com                      |
|    \\/     M anipulation  |                                                 |
\*---------------------------------------------------------------------------*/
FoamFile
{
    version     2.0;
    format      ascii;
    arch        "LSB;label=32;scalar=64";
    class       volVectorField;
    location    "9.25";
    object      U;
}
// * * * * * * * * * * * * * * * * * * * * * * * * * * * * * * * * * * * * * //

dimensions      [0 1 -1 0 0 0 0];

internalField   nonuniform List<vector> 
6400
(
(-0.0017528 0.00123977 0)
(-0.00365289 0.000752787 0)
(-0.00536999 0.00086989 0)
(-0.00754477 0.00097683 0)
(-0.00964548 0.00100831 0)
(-0.0117258 0.00100644 0)
(-0.0137075 0.000999249 0)
(-0.0156124 0.000982398 0)
(-0.0174366 0.000962274 0)
(-0.019171 0.000932302 0)
(-0.0208084 0.000872211 0)
(-0.0223195 0.000809501 0)
(-0.0236946 0.000742294 0)
(-0.0249212 0.000660185 0)
(-0.0259688 0.00055922 0)
(-0.0268154 0.000434375 0)
(-0.0274227 0.000299744 0)
(-0.0277709 0.000157585 0)
(-0.027867 1.88054e-05 0)
(-0.027713 -0.000107013 0)
(-0.0273229 -0.000214087 0)
(-0.0267228 -0.000297281 0)
(-0.0259499 -0.000351885 0)
(-0.025042 -0.000370789 0)
(-0.0240302 -0.000354817 0)
(-0.022977 -0.000337837 0)
(-0.0218722 -0.000321026 0)
(-0.0206998 -0.000360399 0)
(-0.0194717 -0.000429296 0)
(-0.0181516 -0.000522995 0)
(-0.0167549 -0.000607417 0)
(-0.0153121 -0.000663324 0)
(-0.0138406 -0.000718344 0)
(-0.0123231 -0.000819917 0)
(-0.0107355 -0.000973982 0)
(-0.00903279 -0.00113229 0)
(-0.00720296 -0.00130132 0)
(-0.00528216 -0.00144142 0)
(-0.00327176 -0.00154967 0)
(-0.00120002 -0.00161242 0)
(0.000883919 -0.00162525 0)
(0.00294696 -0.00158097 0)
(0.00494295 -0.00148427 0)
(0.00682568 -0.00133409 0)
(0.00855597 -0.00115479 0)
(0.0101255 -0.000942653 0)
(0.0115314 -0.00073224 0)
(0.01277 -0.000560897 0)
(0.0139005 -0.00045398 0)
(0.0149808 -0.000380877 0)
(0.0160169 -0.000329461 0)
(0.0170282 -0.000271841 0)
(0.0179985 -0.000242073 0)
(0.018939 -0.000247377 0)
(0.0198922 -0.000295038 0)
(0.0208871 -0.000353468 0)
(0.021901 -0.00039892 0)
(0.0228714 -0.000404046 0)
(0.0237526 -0.000366802 0)
(0.0244922 -0.00029363 0)
(0.0250428 -0.00018799 0)
(0.0253836 -5.97879e-05 0)
(0.0254861 7.69807e-05 0)
(0.0253319 0.000219423 0)
(0.0249125 0.000354419 0)
(0.024239 0.000480338 0)
(0.0233371 0.000588063 0)
(0.0222311 0.000690374 0)
(0.0209443 0.000767721 0)
(0.0195057 0.000814256 0)
(0.0179513 0.000860539 0)
(0.0163358 0.000877495 0)
(0.0146557 0.000891789 0)
(0.0128919 0.000919379 0)
(0.0110476 0.000936672 0)
(0.00912288 0.000945225 0)
(0.00715253 0.000926497 0)
(0.00511412 0.000840052 0)
(0.00354554 0.000736642 0)
(0.00170971 0.00121798 0)
(-0.00202429 0.00426188 0)
(-0.00420645 0.00282322 0)
(-0.00636069 0.00315081 0)
(-0.00886589 0.00330352 0)
(-0.0111742 0.00322321 0)
(-0.0133441 0.0030706 0)
(-0.015311 0.00290576 0)
(-0.0171099 0.00275164 0)
(-0.0187471 0.00260053 0)
(-0.0202655 0.0024486 0)
(-0.0216662 0.00227494 0)
(-0.0229433 0.0020912 0)
(-0.0240998 0.00187594 0)
(-0.0251082 0.00162294 0)
(-0.0259371 0.00133137 0)
(-0.0265842 0.00100627 0)
(-0.0270308 0.000660568 0)
(-0.0272665 0.00029101 0)
(-0.0272883 -8.01073e-05 0)
(-0.0270814 -0.000443177 0)
(-0.0266417 -0.000782725 0)
(-0.025972 -0.00108439 0)
(-0.025081 -0.00134925 0)
(-0.0239739 -0.00156843 0)
(-0.0226624 -0.00173327 0)
(-0.0211683 -0.00187446 0)
(-0.0195176 -0.00197606 0)
(-0.0177598 -0.00207211 0)
(-0.0159577 -0.00215029 0)
(-0.0141713 -0.00221711 0)
(-0.0124293 -0.00225672 0)
(-0.0107481 -0.00227324 0)
(-0.00911958 -0.00226161 0)
(-0.00755422 -0.00226858 0)
(-0.00609076 -0.0023199 0)
(-0.00474331 -0.00236873 0)
(-0.00351974 -0.00243072 0)
(-0.00240722 -0.00248414 0)
(-0.00139891 -0.00251785 0)
(-0.000452178 -0.00253571 0)
(0.0004446 -0.00251876 0)
(0.00131484 -0.002459 0)
(0.00219303 -0.00237451 0)
(0.0030939 -0.00226006 0)
(0.0040613 -0.00214543 0)
(0.00511856 -0.00200879 0)
(0.00629213 -0.00189396 0)
(0.00756317 -0.00180474 0)
(0.00891951 -0.00176304 0)
(0.010331 -0.00174091 0)
(0.0117862 -0.00173437 0)
(0.0133052 -0.0017135 0)
(0.0148495 -0.00170795 0)
(0.0163946 -0.0017037 0)
(0.0178888 -0.00169831 0)
(0.0192877 -0.00166893 0)
(0.0205681 -0.0016011 0)
(0.0217038 -0.00146917 0)
(0.022677 -0.00126975 0)
(0.0234744 -0.00101428 0)
(0.0240833 -0.000711675 0)
(0.0245012 -0.000379254 0)
(0.0247188 -2.73837e-05 0)
(0.024723 0.000347065 0)
(0.0245073 0.000719648 0)
(0.0240609 0.00108316 0)
(0.0233908 0.00142149 0)
(0.0225004 0.00172512 0)
(0.0214302 0.0019747 0)
(0.0202102 0.00216261 0)
(0.0188531 0.00231721 0)
(0.0173805 0.00243994 0)
(0.0158205 0.0025664 0)
(0.0141374 0.00271475 0)
(0.0123168 0.00285347 0)
(0.01033 0.00299962 0)
(0.0081902 0.0030856 0)
(0.00590945 0.00292426 0)
(0.00403773 0.00260441 0)
(0.00197283 0.00412469 0)
(-0.00197041 0.00736529 0)
(-0.0040459 0.00497831 0)
(-0.0060905 0.00550362 0)
(-0.00854205 0.00569348 0)
(-0.0108103 0.00546706 0)
(-0.0129518 0.00513244 0)
(-0.0149 0.00478466 0)
(-0.0167086 0.0044803 0)
(-0.0184037 0.00419831 0)
(-0.0200108 0.00392637 0)
(-0.0215313 0.00366387 0)
(-0.0229452 0.0033607 0)
(-0.0242449 0.00300031 0)
(-0.0254031 0.0025797 0)
(-0.0263748 0.00209912 0)
(-0.0271346 0.0015733 0)
(-0.027664 0.0010116 0)
(-0.0279438 0.00041546 0)
(-0.0279695 -0.000188464 0)
(-0.0277416 -0.000790628 0)
(-0.0272647 -0.00137047 0)
(-0.0265518 -0.0019036 0)
(-0.0256214 -0.00238909 0)
(-0.0244891 -0.00282392 0)
(-0.0231919 -0.00319431 0)
(-0.0217584 -0.00350644 0)
(-0.0201996 -0.00375233 0)
(-0.0185663 -0.00391868 0)
(-0.0169038 -0.00400807 0)
(-0.0152357 -0.00403449 0)
(-0.0135885 -0.00401551 0)
(-0.0119587 -0.00397143 0)
(-0.0103366 -0.00390594 0)
(-0.00875779 -0.00384247 0)
(-0.0072334 -0.00376873 0)
(-0.00577063 -0.00369545 0)
(-0.0043861 -0.00362385 0)
(-0.00305607 -0.00356263 0)
(-0.00178125 -0.00350161 0)
(-0.000555934 -0.00344628 0)
(0.000634395 -0.00338584 0)
(0.00179214 -0.00331793 0)
(0.00293094 -0.0032538 0)
(0.00404386 -0.00320479 0)
(0.00517042 -0.00316618 0)
(0.00632507 -0.00315826 0)
(0.00752957 -0.00315827 0)
(0.00878447 -0.00316114 0)
(0.0100799 -0.00318612 0)
(0.0113918 -0.0032261 0)
(0.01272 -0.00327553 0)
(0.014092 -0.00331812 0)
(0.0154907 -0.00332768 0)
(0.0169208 -0.00329666 0)
(0.0183459 -0.00321281 0)
(0.0197225 -0.00307268 0)
(0.0210223 -0.00286449 0)
(0.0222092 -0.00257823 0)
(0.0232544 -0.00220589 0)
(0.0241338 -0.00176663 0)
(0.0248223 -0.00127208 0)
(0.0252975 -0.000737093 0)
(0.0255381 -0.000163385 0)
(0.0255158 0.000442054 0)
(0.0252192 0.00105909 0)
(0.0246552 0.00166474 0)
(0.023833 0.00223944 0)
(0.0227741 0.00274835 0)
(0.0215317 0.0031828 0)
(0.0201498 0.00352091 0)
(0.0186447 0.00377245 0)
(0.0170616 0.00399879 0)
(0.0154445 0.00422359 0)
(0.0137622 0.00446166 0)
(0.0119802 0.00475276 0)
(0.0100366 0.00506121 0)
(0.00794352 0.00527086 0)
(0.00574373 0.00502864 0)
(0.00397019 0.00450431 0)
(0.00195341 0.00715833 0)
(-0.00202267 0.0103291 0)
(-0.00413666 0.00697573 0)
(-0.00618013 0.00773146 0)
(-0.00867697 0.00802741 0)
(-0.0109982 0.00768477 0)
(-0.0131731 0.0071767 0)
(-0.0151291 0.00668675 0)
(-0.0169279 0.00627203 0)
(-0.0186299 0.00591075 0)
(-0.0202483 0.00557495 0)
(-0.0218053 0.00523006 0)
(-0.0232887 0.00482966 0)
(-0.0246692 0.00433129 0)
(-0.0259122 0.00373707 0)
(-0.0269724 0.0030478 0)
(-0.0278143 0.00228734 0)
(-0.028404 0.0014603 0)
(-0.028727 0.000591492 0)
(-0.0287724 -0.000286846 0)
(-0.0285418 -0.00115387 0)
(-0.0280437 -0.00198355 0)
(-0.0272907 -0.00274702 0)
(-0.0263097 -0.00343274 0)
(-0.0251242 -0.00403202 0)
(-0.0237804 -0.00453583 0)
(-0.0223193 -0.00493425 0)
(-0.0207583 -0.00523562 0)
(-0.019135 -0.00544292 0)
(-0.0174836 -0.0055653 0)
(-0.0158286 -0.00560517 0)
(-0.0141791 -0.0055993 0)
(-0.0125491 -0.00554225 0)
(-0.0109661 -0.00546296 0)
(-0.00943701 -0.00538254 0)
(-0.00794658 -0.00527687 0)
(-0.00648594 -0.00518699 0)
(-0.00503864 -0.00510856 0)
(-0.00358583 -0.00504097 0)
(-0.00211907 -0.00497828 0)
(-0.00066256 -0.00491315 0)
(0.000783786 -0.00482034 0)
(0.00220599 -0.00470965 0)
(0.00356546 -0.00459112 0)
(0.00485745 -0.00447725 0)
(0.00608433 -0.00439671 0)
(0.00726693 -0.00436297 0)
(0.0084488 -0.00435916 0)
(0.00961254 -0.00436116 0)
(0.0108088 -0.00438638 0)
(0.0120547 -0.00443407 0)
(0.0133267 -0.00449239 0)
(0.0146456 -0.00456736 0)
(0.0159895 -0.00461778 0)
(0.0173634 -0.00461774 0)
(0.0187572 -0.00454931 0)
(0.0201416 -0.00438829 0)
(0.0214802 -0.00411609 0)
(0.0227278 -0.00372536 0)
(0.0238467 -0.00320953 0)
(0.0247999 -0.00259264 0)
(0.0255537 -0.00188661 0)
(0.0260707 -0.00110318 0)
(0.0263179 -0.000251684 0)
(0.0262775 0.000643422 0)
(0.0259449 0.00155084 0)
(0.0253248 0.0024311 0)
(0.0244279 0.00325973 0)
(0.023283 0.003998 0)
(0.0219399 0.00461517 0)
(0.0204436 0.00507357 0)
(0.0188451 0.00540985 0)
(0.0172081 0.00567313 0)
(0.0155802 0.00591365 0)
(0.0139442 0.00619708 0)
(0.0121965 0.00659972 0)
(0.0102549 0.00708333 0)
(0.00815828 0.00738418 0)
(0.00592039 0.00704064 0)
(0.0041275 0.00632405 0)
(0.00204139 0.0101418 0)
(-0.00216673 0.0135113 0)
(-0.00438498 0.0090902 0)
(-0.00648206 0.0100775 0)
(-0.00908366 0.0104837 0)
(-0.0115124 0.009979 0)
(-0.013708 0.0092455 0)
(-0.0156191 0.00856072 0)
(-0.0173489 0.0080061 0)
(-0.0189935 0.00756915 0)
(-0.0206015 0.00719449 0)
(-0.0221945 0.00679083 0)
(-0.0237583 0.00629821 0)
(-0.0252528 0.00567879 0)
(-0.0266044 0.00492988 0)
(-0.0277578 0.00403953 0)
(-0.0286836 0.00304196 0)
(-0.0293419 0.00194489 0)
(-0.0297027 0.000789205 0)
(-0.0297526 -0.000386757 0)
(-0.0294949 -0.00154548 0)
(-0.0289438 -0.00265083 0)
(-0.028116 -0.00366901 0)
(-0.027041 -0.00458021 0)
(-0.0257528 -0.00536767 0)
(-0.0242912 -0.0060261 0)
(-0.0227011 -0.00654799 0)
(-0.0210161 -0.00692982 0)
(-0.0192816 -0.00717611 0)
(-0.0175236 -0.00730407 0)
(-0.0157781 -0.00733138 0)
(-0.0140663 -0.00727297 0)
(-0.0123998 -0.0071542 0)
(-0.010819 -0.00701058 0)
(-0.00930852 -0.00685339 0)
(-0.00785291 -0.00671636 0)
(-0.006436 -0.00660556 0)
(-0.0050178 -0.00652108 0)
(-0.00357497 -0.0064665 0)
(-0.00209912 -0.00643014 0)
(-0.000611807 -0.00637362 0)
(0.000888191 -0.00626781 0)
(0.00235267 -0.00609631 0)
(0.00374188 -0.00590528 0)
(0.00502408 -0.00571711 0)
(0.00621914 -0.00557806 0)
(0.00735456 -0.00549743 0)
(0.00848118 -0.00549162 0)
(0.00960094 -0.00552145 0)
(0.0107426 -0.00559533 0)
(0.0119558 -0.00569501 0)
(0.0132268 -0.00580326 0)
(0.0145615 -0.00593758 0)
(0.0159595 -0.00604032 0)
(0.0174093 -0.00607288 0)
(0.0188895 -0.00601092 0)
(0.0203754 -0.00581521 0)
(0.021825 -0.00548061 0)
(0.0231964 -0.00498154 0)
(0.0244435 -0.00432085 0)
(0.0255193 -0.00351445 0)
(0.0263802 -0.00257805 0)
(0.026978 -0.0015272 0)
(0.0272803 -0.000379603 0)
(0.0272636 0.000825831 0)
(0.0269133 0.00204046 0)
(0.0262387 0.00321893 0)
(0.0252598 0.00431985 0)
(0.0240074 0.00529121 0)
(0.0225224 0.00608958 0)
(0.0208671 0.00668619 0)
(0.0191343 0.00709194 0)
(0.0174301 0.00734768 0)
(0.015826 0.00755491 0)
(0.0142686 0.00788053 0)
(0.0126343 0.00841805 0)
(0.0107624 0.0091142 0)
(0.00862434 0.0095814 0)
(0.00629429 0.00913752 0)
(0.00442741 0.00826612 0)
(0.00221724 0.0133586 0)
(-0.00233021 0.016892 0)
(-0.00467671 0.011309 0)
(-0.006916 0.0125054 0)
(-0.00967351 0.0130284 0)
(-0.0122357 0.0123093 0)
(-0.0144356 0.0112879 0)
(-0.0162621 0.0103493 0)
(-0.017848 0.00965915 0)
(-0.0193714 0.00920326 0)
(-0.0209497 0.00884716 0)
(-0.0226181 0.00844831 0)
(-0.0243088 0.00791908 0)
(-0.0259428 0.0072009 0)
(-0.0274574 0.00627687 0)
(-0.0287734 0.00516811 0)
(-0.0298262 0.00389514 0)
(-0.0305648 0.00248801 0)
(-0.0309658 0.00100312 0)
(-0.031013 -0.000507625 0)
(-0.0307068 -0.00198661 0)
(-0.0300714 -0.00339569 0)
(-0.0291293 -0.00469282 0)
(-0.0279134 -0.00584405 0)
(-0.026469 -0.00683039 0)
(-0.0248505 -0.0076428 0)
(-0.0230984 -0.00827178 0)
(-0.0212537 -0.00871908 0)
(-0.0193687 -0.0089998 0)
(-0.017482 -0.00910631 0)
(-0.015622 -0.00910749 0)
(-0.013817 -0.0089814 0)
(-0.0121057 -0.00879831 0)
(-0.0104933 -0.0085693 0)
(-0.00898608 -0.00832572 0)
(-0.00756169 -0.00812999 0)
(-0.00617869 -0.00800051 0)
(-0.00481794 -0.00792065 0)
(-0.00343505 -0.00789453 0)
(-0.00198691 -0.00790218 0)
(-0.0005056 -0.00786459 0)
(0.00100387 -0.00775502 0)
(0.00248263 -0.00751166 0)
(0.00384369 -0.00722249 0)
(0.00508572 -0.00694426 0)
(0.00622668 -0.00671229 0)
(0.00728606 -0.00659493 0)
(0.0083369 -0.00657039 0)
(0.00937927 -0.006638 0)
(0.0104644 -0.00675582 0)
(0.0116625 -0.00692441 0)
(0.0129273 -0.00711645 0)
(0.0142878 -0.00732648 0)
(0.0157595 -0.00749625 0)
(0.0173059 -0.0076003 0)
(0.0189188 -0.00757341 0)
(0.0205528 -0.00737056 0)
(0.0221667 -0.0069844 0)
(0.023719 -0.00638948 0)
(0.0251476 -0.00558293 0)
(0.0264036 -0.00457469 0)
(0.0274235 -0.00338564 0)
(0.0281464 -0.00203518 0)
(0.0285359 -0.000556518 0)
(0.0285631 0.000998789 0)
(0.0282052 0.00257302 0)
(0.0274629 0.00410656 0)
(0.0263558 0.0055285 0)
(0.024927 0.00678693 0)
(0.0232346 0.007786 0)
(0.0213493 0.00850199 0)
(0.019406 0.00891533 0)
(0.017581 0.00905998 0)
(0.0160102 0.00913115 0)
(0.0146393 0.00941765 0)
(0.0132231 0.0101214 0)
(0.0114821 0.0110832 0)
(0.00929805 0.0118254 0)
(0.00683131 0.0113399 0)
(0.00481692 0.0103486 0)
(0.00243579 0.0168103 0)
(-0.00248684 0.0205136 0)
(-0.00496462 0.0137037 0)
(-0.00743625 0.0151154 0)
(-0.0104625 0.0157677 0)
(-0.0132436 0.0147002 0)
(-0.0154489 0.0132639 0)
(-0.0171011 0.0119894 0)
(-0.0183974 0.0111456 0)
(-0.0197025 0.010755 0)
(-0.0212324 0.0105323 0)
(-0.0229914 0.0102259 0)
(-0.0248789 0.00971265 0)
(-0.0267671 0.00891092 0)
(-0.0285147 0.00781659 0)
(-0.0300369 0.0064545 0)
(-0.0312683 0.0048639 0)
(-0.0321234 0.00310227 0)
(-0.0325748 0.00122988 0)
(-0.0326088 -0.000666109 0)
(-0.0322319 -0.00251555 0)
(-0.0314796 -0.00426575 0)
(-0.0303824 -0.00586814 0)
(-0.0289882 -0.00728094 0)
(-0.0273527 -0.00848049 0)
(-0.0255286 -0.00944868 0)
(-0.0235708 -0.0101801 0)
(-0.0215361 -0.010688 0)
(-0.0194528 -0.0109828 0)
(-0.0173911 -0.0110731 0)
(-0.0153831 -0.0109995 0)
(-0.0134647 -0.0107866 0)
(-0.0116898 -0.0104793 0)
(-0.0100474 -0.0101203 0)
(-0.00856092 -0.00978613 0)
(-0.00720589 -0.00949208 0)
(-0.00591442 -0.00931469 0)
(-0.0046396 -0.0092589 0)
(-0.00332235 -0.00928486 0)
(-0.00189177 -0.00936545 0)
(-0.000391344 -0.00937268 0)
(0.00115511 -0.00925231 0)
(0.00268757 -0.0089101 0)
(0.00405602 -0.00849146 0)
(0.00524601 -0.00808317 0)
(0.00627733 -0.00776415 0)
(0.00721498 -0.00760175 0)
(0.00814371 -0.00756377 0)
(0.00909629 -0.00768515 0)
(0.0101088 -0.00786679 0)
(0.0112438 -0.00813699 0)
(0.0125046 -0.00845317 0)
(0.0139084 -0.00877212 0)
(0.0154514 -0.00906031 0)
(0.0171144 -0.00925268 0)
(0.0188973 -0.0092936 0)
(0.0207282 -0.0091232 0)
(0.0225598 -0.00869274 0)
(0.0243484 -0.00800862 0)
(0.0260191 -0.00705226 0)
(0.0275013 -0.0058286 0)
(0.0287248 -0.00435738 0)
(0.0296188 -0.0026678 0)
(0.0301303 -0.000813046 0)
(0.0302191 0.00114948 0)
(0.0298536 0.00314887 0)
(0.0290283 0.00510263 0)
(0.0277778 0.00690996 0)
(0.0261096 0.00848286 0)
(0.0240856 0.00974466 0)
(0.0218458 0.0105941 0)
(0.0195559 0.0109543 0)
(0.0175207 0.0108539 0)
(0.0160186 0.0105881 0)
(0.0150117 0.0106945 0)
(0.0140336 0.0115663 0)
(0.0125403 0.0129769 0)
(0.0102843 0.0142014 0)
(0.0075424 0.0137552 0)
(0.00526792 0.0126597 0)
(0.00267354 0.0206077 0)
(-0.00260076 0.0243641 0)
(-0.00537541 0.0162925 0)
(-0.00800076 0.0180128 0)
(-0.0114789 0.0188474 0)
(-0.0146683 0.0172126 0)
(-0.0168471 0.0151035 0)
(-0.0181785 0.0132973 0)
(-0.0189509 0.0123063 0)
(-0.0198557 0.0121508 0)
(-0.021311 0.0122709 0)
(-0.0232512 0.0121975 0)
(-0.0254498 0.0117519 0)
(-0.0276742 0.0108971 0)
(-0.0297575 0.00962678 0)
(-0.0315903 0.00797259 0)
(-0.0330538 0.00600757 0)
(-0.0340663 0.00381071 0)
(-0.0345888 0.00148097 0)
(-0.0346016 -0.000871917 0)
(-0.034129 -0.00315822 0)
(-0.033214 -0.00529693 0)
(-0.0319087 -0.00723935 0)
(-0.0302812 -0.00893342 0)
(-0.0283904 -0.0103561 0)
(-0.0263068 -0.0114862 0)
(-0.024096 -0.0123227 0)
(-0.0218073 -0.0128784 0)
(-0.0194855 -0.0131717 0)
(-0.017202 -0.0132199 0)
(-0.0150033 -0.0130399 0)
(-0.012941 -0.0126894 0)
(-0.0110824 -0.0122089 0)
(-0.00945609 -0.0116722 0)
(-0.00802356 -0.0111644 0)
(-0.0067545 -0.0107576 0)
(-0.0056093 -0.0105244 0)
(-0.00445998 -0.01049 0)
(-0.00321621 -0.0106108 0)
(-0.00181662 -0.0108196 0)
(-0.000277171 -0.0109221 0)
(0.00136464 -0.0108174 0)
(0.00297509 -0.0103633 0)
(0.00436083 -0.00974053 0)
(0.00549313 -0.0091374 0)
(0.00639252 -0.00868674 0)
(0.00716555 -0.00844793 0)
(0.00791138 -0.00843067 0)
(0.00870607 -0.00861493 0)
(0.00961294 -0.00891642 0)
(0.0106696 -0.00933107 0)
(0.0119143 -0.00979915 0)
(0.0133486 -0.0102801 0)
(0.0149819 -0.0107368 0)
(0.0167926 -0.0110548 0)
(0.0187687 -0.0112165 0)
(0.0208654 -0.0111031 0)
(0.0229918 -0.0106706 0)
(0.0250797 -0.0099004 0)
(0.0270592 -0.00878658 0)
(0.0288346 -0.00732753 0)
(0.0303227 -0.00554475 0)
(0.0314448 -0.00347341 0)
(0.0321273 -0.00117904 0)
(0.0323064 0.00126929 0)
(0.0319394 0.00378115 0)
(0.0310129 0.00624479 0)
(0.0295397 0.00852549 0)
(0.0275644 0.0104955 0)
(0.0251305 0.0120818 0)
(0.0223449 0.0131163 0)
(0.0194977 0.0133706 0)
(0.0171024 0.0128027 0)
(0.0156912 0.0118277 0)
(0.0153015 0.0114551 0)
(0.0150785 0.0125294 0)
(0.0140597 0.0147216 0)
(0.0116665 0.0167862 0)
(0.00854629 0.0164701 0)
(0.00607591 0.0152256 0)
(0.00291859 0.024808 0)
(-0.00251791 0.0285422 0)
(-0.00642867 0.0191498 0)
(-0.00925567 0.0211941 0)
(-0.0128745 0.0224294 0)
(-0.0166647 0.0199348 0)
(-0.0187898 0.0167092 0)
(-0.0194303 0.0140041 0)
(-0.0191815 0.0128725 0)
(-0.019492 0.0133066 0)
(-0.0209778 0.0141252 0)
(-0.023262 0.0144863 0)
(-0.0259062 0.014209 0)
(-0.0286105 0.013311 0)
(-0.0311621 0.0118294 0)
(-0.0334 0.00982471 0)
(-0.0351961 0.00739003 0)
(-0.0364295 0.00465459 0)
(-0.037042 0.00176239 0)
(-0.0370326 -0.00114451 0)
(-0.0364338 -0.00394856 0)
(-0.0353088 -0.00653943 0)
(-0.0337283 -0.0088648 0)
(-0.0317899 -0.0108679 0)
(-0.0295803 -0.0125273 0)
(-0.0271723 -0.0138142 0)
(-0.0246362 -0.0147437 0)
(-0.0220291 -0.0153397 0)
(-0.0194028 -0.0156158 0)
(-0.0168372 -0.0155848 0)
(-0.0144011 -0.0152584 0)
(-0.0121718 -0.0146963 0)
(-0.0102216 -0.0139741 0)
(-0.00857288 -0.0131934 0)
(-0.00722114 -0.0124474 0)
(-0.00611905 -0.011888 0)
(-0.00516236 -0.0115859 0)
(-0.00421763 -0.011583 0)
(-0.00319796 -0.0118564 0)
(-0.00195229 -0.0122538 0)
(-0.000299519 -0.0125478 0)
(0.0017436 -0.0124973 0)
(0.00356181 -0.0118758 0)
(0.00489405 -0.01097 0)
(0.00583604 -0.0100823 0)
(0.00651894 -0.00942805 0)
(0.00704236 -0.00912964 0)
(0.00753792 -0.00916539 0)
(0.00814046 -0.00943038 0)
(0.00890046 -0.00988682 0)
(0.00986473 -0.0104738 0)
(0.0110772 -0.0111485 0)
(0.0125295 -0.0118687 0)
(0.0142689 -0.0125373 0)
(0.0162536 -0.0130604 0)
(0.0184863 -0.0133747 0)
(0.0209218 -0.013366 0)
(0.0234175 -0.0129747 0)
(0.0258972 -0.0121407 0)
(0.0282629 -0.0108613 0)
(0.0304116 -0.00914443 0)
(0.0322484 -0.0070132 0)
(0.0336727 -0.00450925 0)
(0.0345781 -0.00169961 0)
(0.0348788 0.0013368 0)
(0.0345196 0.00447478 0)
(0.0334695 0.00755712 0)
(0.0317281 0.0104222 0)
(0.0293445 0.0129538 0)
(0.0263722 0.0149885 0)
(0.0228673 0.0162661 0)
(0.019099 0.0163797 0)
(0.0157939 0.0149348 0)
(0.0142789 0.0125316 0)
(0.0153184 0.0111761 0)
(0.0168136 0.0126183 0)
(0.0165436 0.0161906 0)
(0.0139816 0.0196591 0)
(0.010831 0.0194594 0)
(0.00796334 0.0183059 0)
(0.00316254 0.0297604 0)
(-0.00180866 0.0333788 0)
(-0.0081251 0.0231385 0)
(-0.0125339 0.0245353 0)
(-0.0155626 0.0263396 0)
(-0.0199561 0.0229716 0)
(-0.0219985 0.0178534 0)
(-0.0212439 0.01357 0)
(-0.0185446 0.0124166 0)
(-0.0174274 0.014198 0)
(-0.0194667 0.0162491 0)
(-0.0228341 0.0172416 0)
(-0.0262606 0.0171879 0)
(-0.0295962 0.0162672 0)
(-0.0327584 0.014552 0)
(-0.0355508 0.0121198 0)
(-0.037759 0.00909745 0)
(-0.0392431 0.00568698 0)
(-0.0399507 0.00208586 0)
(-0.0398887 -0.00150622 0)
(-0.039109 -0.00493469 0)
(-0.0376982 -0.00806041 0)
(-0.035771 -0.0108233 0)
(-0.0334591 -0.0131726 0)
(-0.0308537 -0.0150694 0)
(-0.0280452 -0.0165006 0)
(-0.0251249 -0.017511 0)
(-0.0221339 -0.0181419 0)
(-0.0191383 -0.0183833 0)
(-0.0162221 -0.0182417 0)
(-0.0134704 -0.0177034 0)
(-0.0110034 -0.016865 0)
(-0.00893405 -0.0157863 0)
(-0.00728758 -0.0146579 0)
(-0.00604468 -0.0136067 0)
(-0.00515016 -0.0128211 0)
(-0.0045399 -0.0123875 0)
(-0.00414683 -0.0123816 0)
(-0.00373823 -0.012845 0)
(-0.00277297 -0.0136495 0)
(-0.000676833 -0.0145533 0)
(0.00242307 -0.0146306 0)
(0.00488615 -0.0134423 0)
(0.0061261 -0.0119591 0)
(0.00653817 -0.0107143 0)
(0.00664214 -0.00989454 0)
(0.00673423 -0.00953531 0)
(0.00696055 -0.00961493 0)
(0.00734088 -0.010052 0)
(0.0079123 -0.0107244 0)
(0.0087424 -0.0115671 0)
(0.00986407 -0.0125059 0)
(0.0113333 -0.0135367 0)
(0.013195 -0.0144925 0)
(0.0154035 -0.0153266 0)
(0.0179533 -0.0158707 0)
(0.0207762 -0.0160072 0)
(0.0237265 -0.0156669 0)
(0.0266911 -0.0147995 0)
(0.0295441 -0.0133588 0)
(0.0321673 -0.011365 0)
(0.0344503 -0.00884502 0)
(0.0362601 -0.00583411 0)
(0.0374715 -0.00240845 0)
(0.0379696 0.00134085 0)
(0.0376583 0.00524636 0)
(0.0364775 0.00911129 0)
(0.034455 0.0127241 0)
(0.0316617 0.0159475 0)
(0.0280787 0.0186134 0)
(0.0234759 0.0204552 0)
(0.0174199 0.0206382 0)
(0.0112157 0.0181576 0)
(0.00927874 0.0127995 0)
(0.0139485 0.00892636 0)
(0.0202154 0.0111845 0)
(0.0220469 0.0173149 0)
(0.019104 0.0226315 0)
(0.0160191 0.0227692 0)
(0.0113674 0.0228982 0)
(0.00347662 0.0362189 0)
(-0.000582724 0.0385836 0)
(-0.00889069 0.0300316 0)
(-0.0176382 0.0286376 0)
(-0.0209524 0.0300892 0)
(-0.0263499 0.0263064 0)
(-0.0290559 0.0181058 0)
(-0.0261889 0.010531 0)
(-0.0190655 0.00931383 0)
(-0.0139712 0.0148922 0)
(-0.0156102 0.020046 0)
(-0.0213405 0.0214545 0)
(-0.0268628 0.0210633 0)
(-0.0313853 0.019903 0)
(-0.0353606 0.0179233 0)
(-0.0388035 0.0149595 0)
(-0.0414205 0.0111714 0)
(-0.0430189 0.00688237 0)
(-0.0436213 0.0024067 0)
(-0.0433286 -0.00201377 0)
(-0.0422331 -0.00618182 0)
(-0.0404383 -0.00994858 0)
(-0.0380738 -0.0132056 0)
(-0.0352706 -0.0159108 0)
(-0.0321536 -0.018036 0)
(-0.0288615 -0.0196164 0)
(-0.0254996 -0.0207074 0)
(-0.0220796 -0.0213633 0)
(-0.0186466 -0.0215486 0)
(-0.0152773 -0.0212699 0)
(-0.0121061 -0.0204654 0)
(-0.00929008 -0.0192358 0)
(-0.00700059 -0.0176958 0)
(-0.00532125 -0.0160676 0)
(-0.00423909 -0.0145666 0)
(-0.00378945 -0.0133392 0)
(-0.00401215 -0.0125404 0)
(-0.00477355 -0.0123374 0)
(-0.00521518 -0.0131767 0)
(-0.00417852 -0.0152139 0)
(-0.00114666 -0.0176868 0)
(0.00324866 -0.0180159 0)
(0.00693579 -0.0154791 0)
(0.00850388 -0.0125063 0)
(0.00815594 -0.0105355 0)
(0.00713202 -0.00964064 0)
(0.00632155 -0.00946194 0)
(0.00596341 -0.00972463 0)
(0.00603085 -0.0104172 0)
(0.00641041 -0.0113658 0)
(0.00711475 -0.0125249 0)
(0.0081583 -0.0138465 0)
(0.00962024 -0.0152351 0)
(0.011592 -0.0166573 0)
(0.0140356 -0.017913 0)
(0.0170043 -0.0188149 0)
(0.0203391 -0.0191703 0)
(0.0238334 -0.0188887 0)
(0.0274081 -0.0179343 0)
(0.0308918 -0.0163751 0)
(0.0341097 -0.0140922 0)
(0.0369691 -0.0111475 0)
(0.0393488 -0.00756082 0)
(0.041115 -0.00341288 0)
(0.0420859 0.00118215 0)
(0.0420463 0.00603455 0)
(0.0408524 0.0108682 0)
(0.0385862 0.0154 0)
(0.0353704 0.0194317 0)
(0.0308734 0.0232121 0)
(0.0236911 0.0269806 0)
(0.0133464 0.0288448 0)
(0.0040319 0.0242294 0)
(0.00316247 0.0110463 0)
(0.0113422 0.000354023 0)
(0.0237339 0.00434762 0)
(0.0311041 0.0169935 0)
(0.029116 0.0261267 0)
(0.0245164 0.0276927 0)
(0.0151443 0.0306706 0)
(0.00379578 0.0448816 0)
(0.000705119 0.0430817 0)
(-0.00542886 0.0401573 0)
(-0.0210602 0.0365999 0)
(-0.0292428 0.035659 0)
(-0.0372264 0.0313959 0)
(-0.0424359 0.0177904 0)
(-0.039199 0.00314919 0)
(-0.0299662 0.000143456 0)
(-0.0197634 0.0113643 0)
(-0.0152081 0.0240869 0)
(-0.0195303 0.0284074 0)
(-0.0272827 0.0271395 0)
(-0.0342014 0.0248659 0)
(-0.039793 0.0221774 0)
(-0.0442865 0.0183594 0)
(-0.0474387 0.0134174 0)
(-0.0490164 0.0079095 0)
(-0.0491714 0.00238131 0)
(-0.0482847 -0.00292558 0)
(-0.0466418 -0.00789098 0)
(-0.0443109 -0.012338 0)
(-0.0413141 -0.0161436 0)
(-0.0377692 -0.0192256 0)
(-0.0338986 -0.0215744 0)
(-0.0299697 -0.0232399 0)
(-0.0261267 -0.0243601 0)
(-0.0222912 -0.0250189 0)
(-0.0184125 -0.0252097 0)
(-0.0144818 -0.0247965 0)
(-0.0106333 -0.0237157 0)
(-0.00717985 -0.0219792 0)
(-0.00442039 -0.0197996 0)
(-0.00259603 -0.0174363 0)
(-0.00180337 -0.0151135 0)
(-0.00219904 -0.0130217 0)
(-0.00369517 -0.0114267 0)
(-0.00546497 -0.0112001 0)
(-0.00586563 -0.0134228 0)
(-0.00395939 -0.0177217 0)
(-0.00036527 -0.0220849 0)
(0.00398757 -0.0228062 0)
(0.00822486 -0.018761 0)
(0.0107209 -0.0131378 0)
(0.0104171 -0.0092644 0)
(0.00825986 -0.00796293 0)
(0.00602472 -0.00833611 0)
(0.00461203 -0.00929267 0)
(0.0040967 -0.0104801 0)
(0.00427362 -0.0118517 0)
(0.00487691 -0.0133867 0)
(0.00592664 -0.0151715 0)
(0.00743909 -0.0170419 0)
(0.00955708 -0.0190378 0)
(0.0123633 -0.0208881 0)
(0.0158461 -0.0222932 0)
(0.0198917 -0.023012 0)
(0.0242683 -0.0228409 0)
(0.0286951 -0.0218102 0)
(0.0330058 -0.0200379 0)
(0.0370175 -0.0174926 0)
(0.0406316 -0.0141504 0)
(0.0438883 -0.010035 0)
(0.046632 -0.00514461 0)
(0.0484695 0.000441536 0)
(0.0489068 0.00653948 0)
(0.0477336 0.0126958 0)
(0.0450369 0.0184848 0)
(0.0408879 0.0240263 0)
(0.034779 0.0304541 0)
(0.0258261 0.0373505 0)
(0.016141 0.0395521 0)
(0.012006 0.0282302 0)
(0.015963 0.00560275 0)
(0.0225455 -0.0128684 0)
(0.0305116 -0.0105417 0)
(0.0400847 0.0110099 0)
(0.0413067 0.0298022 0)
(0.0331469 0.0370711 0)
(0.0157677 0.0431863 0)
(0.00291745 0.0555866 0)
(0.00537917 0.044046 0)
(0.00714139 0.05414 0)
(-0.0167553 0.0524725 0)
(-0.036253 0.0466344 0)
(-0.0500483 0.0405304 0)
(-0.0610099 0.0198171 0)
(-0.0645835 -0.00331247 0)
(-0.0616472 -0.0100298 0)
(-0.0503305 0.00150287 0)
(-0.0351442 0.0198406 0)
(-0.0261105 0.0327892 0)
(-0.0269074 0.0354548 0)
(-0.0338242 0.0323479 0)
(-0.0420037 0.0280013 0)
(-0.0491144 0.0226255 0)
(-0.054183 0.0158777 0)
(-0.0567404 0.0085609 0)
(-0.0569639 0.00163059 0)
(-0.0555975 -0.00459918 0)
(-0.0532408 -0.0102699 0)
(-0.0500869 -0.0154248 0)
(-0.0461495 -0.0199036 0)
(-0.0415381 -0.0234449 0)
(-0.0366185 -0.0259487 0)
(-0.0318642 -0.0274594 0)
(-0.027468 -0.0284041 0)
(-0.023157 -0.0290594 0)
(-0.0185818 -0.0294097 0)
(-0.0137277 -0.0290301 0)
(-0.0089518 -0.0277012 0)
(-0.00469873 -0.0254065 0)
(-0.00138099 -0.0222778 0)
(0.000666403 -0.0186765 0)
(0.00111046 -0.0149089 0)
(-6.27197e-05 -0.0114657 0)
(-0.00211501 -0.00933209 0)
(-0.00342795 -0.0102742 0)
(-0.00247459 -0.0148525 0)
(-0.000330181 -0.0207612 0)
(0.00194389 -0.0258157 0)
(0.00464306 -0.0269659 0)
(0.00741964 -0.0226011 0)
(0.0101042 -0.014761 0)
(0.0106976 -0.00796054 0)
(0.00855235 -0.00512603 0)
(0.00536914 -0.00570965 0)
(0.00286667 -0.00779517 0)
(0.00162901 -0.0100283 0)
(0.00157774 -0.0121491 0)
(0.00229301 -0.0142283 0)
(0.0035804 -0.0164991 0)
(0.00537137 -0.01899 0)
(0.00773835 -0.0216977 0)
(0.0108971 -0.0243294 0)
(0.0149782 -0.026492 0)
(0.0199762 -0.0277537 0)
(0.0255681 -0.0278217 0)
(0.0312355 -0.0267158 0)
(0.0366257 -0.0245509 0)
(0.0415974 -0.0216961 0)
(0.0461932 -0.0180706 0)
(0.0504542 -0.0136444 0)
(0.0540361 -0.00809079 0)
(0.0562381 -0.00126652 0)
(0.0563641 0.00656321 0)
(0.0541876 0.0145993 0)
(0.0500422 0.0221071 0)
(0.0447823 0.0295244 0)
(0.0396434 0.0376301 0)
(0.0370956 0.0439463 0)
(0.0405811 0.0416901 0)
(0.0520295 0.0254031 0)
(0.0641711 0.00228964 0)
(0.0671098 -0.0149815 0)
(0.05953 -0.0164064 0)
(0.0538102 0.0055012 0)
(0.0508471 0.0344607 0)
(0.0355551 0.0530773 0)
(0.00887351 0.0611152 0)
(-0.000435401 0.0645909 0)
(0.0105986 0.0304656 0)
(0.0264069 0.0660554 0)
(0.000927447 0.0792938 0)
(-0.0337339 0.0677974 0)
(-0.0569299 0.0575717 0)
(-0.0780333 0.0315633 0)
(-0.0956733 0.00190408 0)
(-0.104243 -0.0130018 0)
(-0.0978892 -0.0113164 0)
(-0.0788374 0.00211367 0)
(-0.0554071 0.0202801 0)
(-0.0372453 0.0348909 0)
(-0.0306558 0.0409244 0)
(-0.0352175 0.0386014 0)
(-0.0452115 0.0310888 0)
(-0.0547678 0.0210746 0)
(-0.0610261 0.0105294 0)
(-0.0634608 0.00106318 0)
(-0.062743 -0.00677711 0)
(-0.0598157 -0.0135179 0)
(-0.0553976 -0.0195964 0)
(-0.0500162 -0.0248315 0)
(-0.0441767 -0.0288313 0)
(-0.0382795 -0.0313125 0)
(-0.0327508 -0.0324618 0)
(-0.0276014 -0.0331103 0)
(-0.0220915 -0.0339955 0)
(-0.0157134 -0.0347785 0)
(-0.00897572 -0.0343986 0)
(-0.00300818 -0.0325918 0)
(0.00153289 -0.0294647 0)
(0.00441314 -0.0250819 0)
(0.00579196 -0.0198006 0)
(0.0057788 -0.0143072 0)
(0.00459928 -0.00977013 0)
(0.00335884 -0.00809688 0)
(0.00349074 -0.0107994 0)
(0.00474868 -0.0164452 0)
(0.00460777 -0.0218812 0)
(0.00452066 -0.026996 0)
(0.00555678 -0.028544 0)
(0.00522675 -0.0245286 0)
(0.00551841 -0.0164388 0)
(0.00602436 -0.00751585 0)
(0.00455454 -0.0026651 0)
(0.00165907 -0.00267943 0)
(-0.000836746 -0.00558615 0)
(-0.00195991 -0.00915143 0)
(-0.00178588 -0.0124662 0)
(-0.000824326 -0.0154007 0)
(0.000609334 -0.0182645 0)
(0.00228634 -0.0213505 0)
(0.00433832 -0.0247068 0)
(0.00732355 -0.0281365 0)
(0.0118477 -0.031252 0)
(0.0179612 -0.0334418 0)
(0.024869 -0.0340357 0)
(0.0317969 -0.032837 0)
(0.0383203 -0.0302537 0)
(0.0445015 -0.0268804 0)
(0.050292 -0.0229685 0)
(0.0552606 -0.0180054 0)
(0.0585994 -0.0112292 0)
(0.0594417 -0.00221824 0)
(0.0572605 0.00846563 0)
(0.0521712 0.0194647 0)
(0.0459962 0.0291355 0)
(0.0430105 0.0361874 0)
(0.047995 0.0392268 0)
(0.0633785 0.0364807 0)
(0.0877024 0.0260262 0)
(0.114074 0.0103315 0)
(0.131251 -0.00327762 0)
(0.130573 -0.00672174 0)
(0.11019 0.000480209 0)
(0.0802622 0.0201463 0)
(0.0578321 0.0511241 0)
(0.0297936 0.0782786 0)
(-0.00314877 0.0807764 0)
(-0.00362342 0.0648045 0)
(0.0119218 0.00174064 0)
(0.040746 0.0625218 0)
(0.024669 0.10918 0)
(-0.0200057 0.0987649 0)
(-0.0503297 0.0846171 0)
(-0.0805669 0.0559234 0)
(-0.108496 0.0200718 0)
(-0.124423 -0.00805974 0)