/*--------------------------------*- C++ -*----------------------------------*\
| =========                 |                                                 |
| \\      /  F ield         | OpenFOAM: The Open Source CFD Toolbox           |
|  \\    /   O peration     | Version:  2412                                  |
|   \\  /    A nd           | Website:  www.openfoam.com                      |
|    \\/     M anipulation  |                                                 |
\*---------------------------------------------------------------------------*/
FoamFile
{
    version     2.0;
    format      ascii;
    arch        "LSB;label=32;scalar=64";
    class       surfaceScalarField;
    location    "8";
    object      alphaPhi0.oil;
}
// * * * * * * * * * * * * * * * * * * * * * * * * * * * * * * * * * * * * * //

dimensions      [0 3 -1 0 0 0 0];

oriented        oriented;

internalField   nonuniform List<scalar> 
12640
(
3.14862e-08
-3.15535e-08
7.84642e-08
-4.58531e-08
1.13417e-07
-3.37983e-08
1.25782e-07
-1.1193e-08
1.14767e-07
1.18125e-08
8.50858e-08
3.06657e-08
4.26377e-08
4.35589e-08
-7.03591e-09
5.07263e-08
-5.90286e-08
5.29433e-08
-1.09547e-07
5.14074e-08
-1.56284e-07
4.7569e-08
-1.97889e-07
4.23741e-08
-2.33727e-07
3.65554e-08
-2.63905e-07
3.08133e-08
-2.88767e-07
2.53532e-08
-3.08627e-07
2.02108e-08
-3.23891e-07
1.55672e-08
-3.35114e-07
1.15569e-08
-3.42903e-07
8.13037e-09
-3.47836e-07
5.17541e-09
-3.50352e-07
2.56396e-09
-3.50743e-07
2.29006e-10
-3.49182e-07
-1.87828e-09
-3.4577e-07
-3.80238e-09
-3.40589e-07
-5.58926e-09
-3.33654e-07
-7.34994e-09
-3.24871e-07
-9.2278e-09
-3.1402e-07
-1.13522e-08
-3.00811e-07
-1.37735e-08
-2.84916e-07
-1.65147e-08
-2.6602e-07
-1.9559e-08
-2.43833e-07
-2.28881e-08
-2.18102e-07
-2.64605e-08
-1.88662e-07
-3.01862e-08
-1.55479e-07
-3.39337e-08
-1.18737e-07
-3.74955e-08
-7.88016e-08
-4.06982e-08
-3.6192e-08
-4.33892e-08
8.38487e-09
-4.53777e-08
5.40211e-08
-4.64536e-08
9.97696e-08
-4.65719e-08
1.44703e-07
-4.57513e-08
1.87852e-07
-4.39552e-08
2.28472e-07
-4.14087e-08
2.65918e-07
-3.82194e-08
2.99605e-07
-3.44455e-08
3.29221e-07
-3.03639e-08
3.54662e-07
-2.61729e-08
3.76053e-07
-2.21008e-08
3.93673e-07
-1.82969e-08
4.0777e-07
-1.47379e-08
4.1864e-07
-1.14734e-08
4.26629e-07
-8.55166e-09
4.31974e-07
-5.8601e-09
4.349e-07
-3.38427e-09
4.35567e-07
-1.05917e-09
4.34043e-07
1.20224e-09
4.30311e-07
3.48425e-09
4.2426e-07
5.87751e-09
4.15758e-07
8.40197e-09
4.04594e-07
1.11359e-08
3.90451e-07
1.41889e-08
3.72941e-07
1.76335e-08
3.51631e-07
2.15188e-08
3.26064e-07
2.58727e-08
2.95757e-07
3.07143e-08
2.60245e-07
3.60166e-08
2.19303e-07
4.15362e-08
1.7305e-07
4.69298e-08
1.2213e-07
5.16764e-08
6.79481e-08
5.50168e-08
1.28991e-08
5.59562e-08
-3.93836e-08
5.32519e-08
-8.39976e-08
4.56349e-08
-1.15089e-07
3.21623e-08
-1.26775e-07
1.28176e-08
-1.14857e-07
-1.07145e-08
-7.97873e-08
-3.37859e-08
-3.22603e-08
-4.61295e-08
-3.07239e-08
4.70505e-08
-7.74273e-08
1.06504e-07
-1.02981e-07
1.30463e-07
-5.5754e-08
1.02346e-07
1.91697e-08
2.1762e-08
9.44321e-08
-1.01426e-07
1.55974e-07
-2.54049e-07
1.98281e-07
-4.2281e-07
2.2145e-07
-5.96032e-07
2.27982e-07
-7.64584e-07
2.21671e-07
-9.22085e-07
2.06661e-07
-1.06452e-06
1.86211e-07
-1.18988e-06
1.63121e-07
-1.29771e-06
1.39706e-07
-1.38843e-06
1.16985e-07
-1.46266e-06
9.51736e-08
-1.52122e-06
7.4637e-08
-1.56513e-06
5.57679e-08
-1.59561e-06
3.86914e-08
-1.61388e-06
2.33174e-08
-1.621e-06
9.35756e-09
-1.61776e-06
-3.50469e-09
-1.60468e-06
-1.55685e-08
-1.58211e-06
-2.70763e-08
-1.55029e-06
-3.82149e-08
-1.5093e-06
-4.92462e-08
-1.45905e-06
-6.05023e-08
-1.39924e-06
-7.231e-08
-1.3294e-06
-8.4878e-08
-1.24895e-06
-9.83159e-08
-1.15732e-06
-1.1261e-07
-1.05401e-06
-1.27667e-07
-9.38717e-07
-1.43256e-07
-8.11415e-07
-1.59024e-07
-6.72445e-07
-1.7447e-07
-5.22598e-07
-1.88938e-07
-3.6315e-07
-2.01772e-07
-1.95845e-07
-2.12346e-07
-2.28726e-08
-2.20021e-07
1.53187e-07
-2.24191e-07
3.29509e-07
-2.24567e-07
5.03276e-07
-2.21171e-07
6.71783e-07
-2.14092e-07
8.32652e-07
-2.03877e-07
9.83858e-07
-1.90991e-07
1.12374e-06
-1.75856e-07
1.25111e-06
-1.59213e-07
1.36529e-06
-1.41779e-07
1.46616e-06
-1.24326e-07
1.55397e-06
-1.07391e-07
1.62918e-06
-9.11451e-08
1.69231e-06
-7.57038e-08
1.74389e-06
-6.11195e-08
1.78445e-06
-4.7279e-08
1.81433e-06
-3.39869e-08
1.83372e-06
-2.10338e-08
1.84271e-06
-8.22882e-09
1.8412e-06
4.69621e-09
1.82893e-06
1.8006e-08
1.80553e-06
3.18066e-08
1.77045e-06
4.63734e-08
1.723e-06
6.19768e-08
1.66228e-06
7.88485e-08
1.58737e-06
9.71037e-08
1.49731e-06
1.16784e-07
1.39123e-06
1.37822e-07
1.26845e-06
1.59995e-07
1.12891e-06
1.82459e-07
9.73482e-07
2.03904e-07
8.04434e-07
2.22423e-07
6.25858e-07
2.35429e-07
4.44162e-07
2.3961e-07
2.6844e-07
2.31037e-07
1.10302e-07
2.05937e-07
-1.69551e-08
1.61703e-07
-1.00287e-07
9.85996e-08
-1.30336e-07
2.20106e-08
-1.07005e-07
-5.41549e-08
-4.73867e-08
-1.02453e-07
-7.66781e-08
3.6213e-08
-1.12663e-07
6.23032e-08
-1.26671e-07
3.05282e-08
-2.17188e-08
-7.4881e-08
1.26908e-07
-2.51469e-07
2.73044e-07
-4.85053e-07
3.91708e-07
-7.57552e-07
4.72991e-07
-1.05067e-06
5.16699e-07
-1.34804e-06
5.27364e-07
-1.63665e-06
5.1222e-07
-1.90711e-06
4.78981e-07
-2.15313e-06
4.33952e-07
-2.37131e-06
3.82839e-07
-2.56052e-06
3.30227e-07
-2.72097e-06
2.78436e-07
-2.85339e-06
2.28205e-07
-2.95874e-06
1.80259e-07
-3.03823e-06
1.35307e-07
-3.09329e-06
9.37192e-08
-3.12547e-06
5.5434e-08
-3.13621e-06
1.99608e-08
-3.12666e-06
-1.33193e-08
-3.09766e-06
-4.50024e-08
-3.04981e-06
-7.55504e-08
-2.98351e-06
-1.0531e-07
-2.89899e-06
-1.34701e-07
-2.79628e-06
-1.64272e-07
-2.6752e-06
-1.94582e-07
-2.5353e-06
-2.26077e-07
-2.37599e-06
-2.59008e-07
-2.19666e-06
-2.93389e-07
-1.99687e-06
-3.28976e-07
-1.77645e-06
-3.6525e-07
-1.53568e-06
-4.01426e-07
-1.2754e-06
-4.36422e-07
-9.97124e-07
-4.68932e-07
-7.03054e-07
-4.97579e-07
-3.96192e-07
-5.20963e-07
-8.01889e-08
-5.37797e-07
2.40751e-07
-5.46919e-07
5.62097e-07
-5.47709e-07
8.79221e-07
-5.40089e-07
1.18772e-06
-5.24376e-07
1.48367e-06
-5.01575e-07
1.76362e-06
-4.72672e-07
2.02486e-06
-4.38775e-07
2.26531e-06
-4.01306e-07
2.48366e-06
-3.61725e-07
2.67934e-06
-3.21536e-07
2.85239e-06
-2.81882e-07
3.0032e-06
-2.4331e-07
3.13232e-06
-2.06069e-07
3.24027e-06
-1.702e-07
3.32756e-06
-1.3558e-07
3.39454e-06
-1.01852e-07
3.44138e-06
-6.86254e-08
3.46805e-06
-3.55036e-08
3.47435e-06
-2.05531e-09
3.45991e-06
3.21581e-08
3.42415e-06
6.74395e-08
3.36631e-06
1.0426e-07
3.2854e-06
1.43092e-07
3.1803e-06
1.84324e-07
3.0498e-06
2.28128e-07
2.89279e-06
2.74517e-07
2.70828e-06
3.2323e-07
2.49578e-06
3.73602e-07
2.25565e-06
4.23891e-07
1.98968e-06
4.71353e-07
1.70166e-06
5.12105e-07
1.39788e-06
5.4102e-07
1.08779e-06
5.51654e-07
7.84293e-07
5.36633e-07
5.0346e-07
4.89003e-07
2.63418e-07
4.0411e-07
8.20127e-08
2.82511e-07
-2.71421e-08
1.33855e-07
-6.1096e-08
-1.72645e-08
-3.63109e-08
-1.24184e-07
-1.11535e-07
1.47229e-08
-1.26228e-07
-1.18233e-08
-9.77539e-08
-1.19104e-07
8.7982e-08
-3.17807e-07
3.28094e-07
-6.00658e-07
5.58078e-07
-9.49187e-07
7.42559e-07
-1.34122e-06
8.67424e-07
-1.7547e-06
9.32509e-07
-2.17e-06
9.44898e-07
-2.57148e-06
9.15897e-07
-2.94761e-06
8.5728e-07
-3.29052e-06
7.78876e-07
-3.59557e-06
6.89713e-07
-3.86091e-06
5.97199e-07
-4.08654e-06
5.0547e-07
-4.27337e-06
4.16106e-07
-4.42258e-06
3.30166e-07
-4.53537e-06
2.48506e-07
-4.61319e-06
1.71764e-07
-4.65767e-06
1.00036e-07
-4.67042e-06
3.27139e-08
-4.65285e-06
-3.10532e-08
-4.60609e-06
-9.21412e-08
-4.531e-06
-1.51254e-07
-4.42818e-06
-2.08932e-07
-4.29808e-06
-2.65784e-07
-4.14089e-06
-3.22593e-07
-3.95657e-06
-3.80163e-07
-3.74488e-06
-4.39178e-07
-3.50535e-06
-5.00068e-07
-3.23746e-06
-5.62917e-07
-2.94083e-06
-6.27331e-07
-2.61544e-06
-6.92439e-07
-2.26187e-06
-7.56888e-07
-1.88137e-06
-8.18877e-07
-1.47611e-06
-8.76197e-07
-1.04929e-06
-9.26443e-07
-6.05065e-07
-9.67259e-07
-1.48451e-07
-9.96502e-07
3.14847e-07
-1.01233e-06
7.78713e-07
-1.01371e-06
1.23687e-06
-1.00039e-06
1.68326e-06
-9.72901e-07
2.11238e-06
-9.32817e-07
2.51952e-06
-8.81907e-07
2.90095e-06
-8.22259e-07
3.25387e-06
-7.56224e-07
3.57637e-06
-6.86184e-07
3.86747e-06
-6.1452e-07
4.1269e-06
-5.43124e-07
4.35494e-06
-4.73058e-07
4.55209e-06
-4.04805e-07
4.71883e-06
-3.38421e-07
4.85555e-06
-2.7364e-07
4.9625e-06
-2.10009e-07
5.03975e-06
-1.46934e-07
5.08713e-06
-8.37836e-08
5.1043e-06
-1.99442e-08
5.09072e-06
4.52013e-08
5.04563e-06
1.12185e-07
4.96808e-06
1.81655e-07
4.85697e-06
2.54254e-07
4.71104e-06
3.30493e-07
4.52901e-06
4.10602e-07
4.30968e-06
4.94487e-07
4.05219e-06
5.81572e-07
3.75633e-06
6.70536e-07
3.42295e-06
7.58572e-07
3.05458e-06
8.41245e-07
2.65608e-06
9.12327e-07
2.23532e-06
9.63697e-07
1.80383e-06
9.85255e-07
1.37715e-06
9.65647e-07
9.74483e-07
8.94214e-07
6.17622e-07
7.63726e-07
3.28401e-07
5.74621e-07
1.24685e-07
3.40543e-07
1.40856e-08
9.64598e-08
-1.47324e-08
-9.25474e-08
-1.2477e-07
-8.62838e-09
-1.16032e-07
-9.23839e-08
-1.16466e-08
-2.80189e-07
2.78243e-07
-5.75307e-07
6.25672e-07
-9.64481e-07
9.49381e-07
-1.42449e-06
1.20481e-06
-1.92934e-06
1.37456e-06
-2.45385e-06
1.45921e-06
-2.97596e-06
1.46907e-06
-3.47828e-06
1.42031e-06
-3.94806e-06
1.3292e-06
-4.37631e-06
1.20931e-06
-4.75767e-06
1.07316e-06
-5.08963e-06
9.31199e-07
-5.37195e-06
7.89782e-07
-5.60579e-06
6.51684e-07
-5.79245e-06
5.18259e-07
-5.9333e-06
3.90383e-07
-6.02972e-06
2.689e-07
-6.08332e-06
1.54099e-07
-6.09579e-06
4.54401e-08
-6.06874e-06
-5.80658e-08
-6.00357e-06
-1.5751e-07
-5.90142e-06
-2.53854e-07
-5.76315e-06
-3.47881e-07
-5.58941e-06
-4.4041e-07
-5.38061e-06
-5.32465e-07
-5.13692e-06
-6.25083e-07
-4.85834e-06
-7.19162e-07
-4.54463e-06
-8.15366e-07
-4.19532e-06
-9.13953e-07
-3.81006e-06
-1.01444e-06
-3.38887e-06
-1.11559e-06
-2.93244e-06
-1.21539e-06
-2.44236e-06
-1.31113e-06
-1.92136e-06
-1.39946e-06
-1.37346e-06
-1.47666e-06
-8.0388e-07
-1.53919e-06
-2.18867e-07
-1.5839e-06
3.7452e-07
-1.60813e-06
9.68679e-07
-1.6103e-06
1.55582e-06
-1.58998e-06
2.12835e-06
-1.54787e-06
2.67929e-06
-1.4862e-06
3.20273e-06
-1.40775e-06
3.69399e-06
-1.3159e-06
4.14965e-06
-1.2142e-06
4.56738e-06
-1.10619e-06
4.94594e-06
-9.95295e-07
5.28493e-06
-8.84246e-07
5.58452e-06
-7.74697e-07
5.84519e-06
-6.67409e-07
6.06742e-06
-5.62447e-07
6.25148e-06
-4.59374e-07
6.39746e-06
-3.57517e-07
6.5052e-06
-2.56047e-07
6.57433e-06
-1.54104e-07
6.60424e-06
-5.08659e-08
6.59418e-06
5.44528e-08
6.54323e-06
1.62546e-07
6.45031e-06
2.74202e-07
6.31422e-06
3.90202e-07
6.13365e-06
5.11151e-07
5.90733e-06
6.37243e-07
5.63416e-06
7.68198e-07
5.31344e-06
9.03056e-07
4.94516e-06
1.03981e-06
4.53048e-06
1.17448e-06
4.0724e-06
1.30079e-06
3.57647e-06
1.40998e-06
3.05142e-06
1.49066e-06
2.51011e-06
1.52871e-06
1.96987e-06
1.50824e-06
1.45242e-06
1.41426e-06
9.82654e-07
1.23628e-06
5.86303e-07
9.73893e-07
2.85829e-07
6.44009e-07
9.44669e-08
2.90836e-07
8.71862e-09
-4.39591e-09
-1.14737e-07
-3.018e-08
-8.42969e-08
-1.68645e-07
1.28691e-07
-4.34348e-07
5.45905e-07
-8.22372e-07
1.01561e-06
-1.31275e-06
1.44132e-06
-1.87697e-06
1.7707e-06
-2.48516e-06
1.98445e-06
-3.10933e-06
2.08491e-06
-3.72545e-06
2.08653e-06
-4.31504e-06
2.01121e-06
-4.8647e-06
1.88035e-06
-5.36516e-06
1.7114e-06
-5.8106e-06
1.52034e-06
-6.19816e-06
1.32058e-06
-6.52743e-06
1.12095e-06
-6.79952e-06
9.25651e-07
-7.01594e-06
7.36363e-07
-7.17823e-06
5.54074e-07
-7.28791e-06
3.79672e-07
-7.34656e-06
2.13577e-07
-7.35594e-06
5.54237e-08
-7.31784e-06
-9.57778e-08
-7.2339e-06
-2.41259e-07
-7.10555e-06
-3.82223e-07
-6.93396e-06
-5.19707e-07
-6.72004e-06
-6.54754e-07
-6.46449e-06
-7.88613e-07
-6.16776e-06
-9.22555e-07
-5.83012e-06
-1.05771e-06
-5.45153e-06
-1.19505e-06
-5.03157e-06
-1.33516e-06
-4.56981e-06
-1.47759e-06
-4.06614e-06
-1.62076e-06
-3.52119e-06
-1.76196e-06
-2.93667e-06
-1.89738e-06
-2.31569e-06
-2.02226e-06
-1.66289e-06
-2.13137e-06
-9.84365e-07
-2.21968e-06
-2.8748e-07
-2.28279e-06
4.19418e-07
-2.31707e-06
1.12736e-06
-2.32032e-06
1.82714e-06
-2.29187e-06
2.50976e-06
-2.23261e-06
3.16692e-06
-2.14548e-06
3.79157e-06
-2.03452e-06
4.37813e-06
-1.90454e-06
4.92266e-06
-1.7608e-06
5.42264e-06
-1.60819e-06
5.87679e-06
-1.45143e-06
6.28481e-06
-1.29421e-06
6.64704e-06
-1.13881e-06
6.964e-06
-9.86175e-07
7.23612e-06
-8.36281e-07
7.46356e-06
-6.88416e-07
7.64614e-06
-5.41604e-07
7.78341e-06
-3.947e-07
7.87464e-06
-2.46594e-07
7.91893e-06
-9.62652e-08
7.91525e-06
5.71865e-08
7.86245e-06
2.14577e-07
7.7593e-06
3.76765e-07
7.60455e-06
5.44576e-07
7.3969e-06
7.18639e-07
7.13511e-06
8.99069e-07
6.81821e-06
1.08533e-06
6.4456e-06
1.27609e-06
6.01739e-06
1.46861e-06
5.53492e-06
1.65776e-06
5.00127e-06
1.83547e-06
4.42213e-06
1.99034e-06
3.80665e-06
2.10756e-06
3.16848e-06
2.16852e-06
2.52628e-06
2.1523e-06
1.90381e-06
2.03876e-06
1.32886e-06
1.81334e-06
8.31134e-07
1.47373e-06
4.38196e-07
1.03909e-06
1.69848e-07
5.61276e-07
3.07933e-08
1.3614e-07
-8.34686e-08
-4.89749e-08
-3.41072e-08
-2.37724e-07
3.18404e-07
-5.76446e-07
8.85639e-07
-1.05209e-06
1.49218e-06
-1.63754e-06
2.02728e-06
-2.29841e-06
2.43217e-06
-3.00068e-06
2.68731e-06
-3.71354e-06
2.79815e-06
-4.41137e-06
2.78438e-06
-5.07505e-06
2.67467e-06
-5.69111e-06
2.49626e-06
-6.25065e-06
2.271e-06
-6.7479e-06
2.01782e-06
-7.17993e-06
1.75307e-06
-7.5462e-06
1.48792e-06
-7.84774e-06
1.22804e-06
-8.08617e-06
9.75665e-07
-8.26317e-06
7.31876e-07
-8.38041e-06
4.97605e-07
-8.43961e-06
2.73369e-07
-8.44267e-06
5.89749e-08
-8.39155e-06
-1.46487e-07
-8.28815e-06
-3.44326e-07
-8.13417e-06
-5.35927e-07
-7.93114e-06
-7.22539e-07
-7.68037e-06
-9.05415e-07
-7.38293e-06
-1.08601e-06
-7.03965e-06
-1.26584e-06
-6.65109e-06
-1.44634e-06
-6.21742e-06
-1.62889e-06
-5.73826e-06
-1.81458e-06
-5.21298e-06
-2.0032e-06
-4.64116e-06
-2.19295e-06
-4.0231e-06
-2.38045e-06
-3.36033e-06
-2.56065e-06
-2.65605e-06
-2.72711e-06
-1.91532e-06
-2.87273e-06
-1.14497e-06
-2.99069e-06
-3.53407e-07
-3.07505e-06
4.49807e-07
-3.121e-06
1.25439e-06
-3.12563e-06
2.04979e-06
-3.08801e-06
2.82576e-06
-3.00932e-06
3.57279e-06
-2.89324e-06
4.28273e-06
-2.74518e-06
4.94922e-06
-2.57172e-06
5.56787e-06
-2.3801e-06
6.13623e-06
-2.17719e-06
6.65332e-06
-1.96913e-06
7.11923e-06
-1.76072e-06
7.53465e-06
-1.5548e-06
7.90032e-06
-1.3524e-06
8.21666e-06
-1.15314e-06
8.4836e-06
-9.55837e-07
8.7006e-06
-7.5904e-07
8.86673e-06
-5.61251e-07
8.98086e-06
-3.61113e-07
9.04166e-06
-1.57412e-07
9.04775e-06
5.07925e-08
8.99773e-06
2.64347e-07
8.89017e-06
4.84139e-07
8.72371e-06
7.10935e-07
8.49702e-06
9.45313e-07
8.20895e-06
1.18721e-06
7.8586e-06
1.43582e-06
7.44549e-06
1.6894e-06
6.96981e-06
1.94457e-06
6.4327e-06
2.19517e-06
5.83702e-06
2.43151e-06
5.18819e-06
2.6396e-06
4.49541e-06
2.80087e-06
3.77267e-06
2.89189e-06
3.03961e-06
2.88608e-06
2.32176e-06
2.75736e-06
1.64976e-06
2.48596e-06
1.05737e-06
2.06653e-06
5.77916e-07
1.51891e-06
2.3826e-07
9.01188e-07
5.03567e-08
3.23781e-07
-3.42813e-08
-6.56934e-08
3.22765e-08
-3.01453e-07
5.53997e-07
-7.09968e-07
1.29404e-06
-1.26985e-06
2.05186e-06
-1.94631e-06
2.70302e-06
-2.69835e-06
3.18354e-06
-3.48744e-06
3.47576e-06
-4.27983e-06
3.58971e-06
-5.04857e-06
3.5518e-06
-5.77442e-06
3.39867e-06
-6.44445e-06
3.16422e-06
-7.05062e-06
2.87515e-06
-7.58792e-06
2.55326e-06
-8.05373e-06
2.21728e-06
-8.44747e-06
1.88041e-06
-8.77007e-06
1.5497e-06
-9.02308e-06
1.22796e-06
-9.20826e-06
9.1649e-07
-9.32739e-06
6.16284e-07
-9.38238e-06
3.28046e-07
-9.37539e-06
5.17702e-08
-9.30862e-06
-2.13358e-07
-9.18424e-06
-4.6868e-07
-9.00428e-06
-7.15711e-07
-8.77067e-06
-9.55842e-07
-8.48522e-06
-1.19047e-06
-8.14953e-06
-1.42119e-06
-7.76493e-06
-1.64983e-06
-7.33239e-06
-1.87817e-06
-6.85233e-06
-2.10817e-06
-6.32442e-06
-2.34166e-06
-5.74773e-06
-2.579e-06
-5.12129e-06
-2.81845e-06
-4.44469e-06
-3.05605e-06
-3.71889e-06
-3.2854e-06
-2.94687e-06
-3.49806e-06
-2.13392e-06
-3.68459e-06
-1.28754e-06
-3.83595e-06
-4.17119e-07
-3.94431e-06
4.66626e-07
-4.00357e-06
1.35212e-06
-4.00994e-06
2.22755e-06
-3.96221e-06
3.08142e-06
-3.8619e-06
3.90312e-06
-3.71362e-06
4.68348e-06
-3.52416e-06
5.41549e-06
-3.30231e-06
6.09443e-06
-3.05763e-06
6.7182e-06
-2.79946e-06
7.28647e-06
-2.53591e-06
7.8001e-06
-2.27285e-06
8.26039e-06
-2.0136e-06
8.66841e-06
-1.75895e-06
9.02457e-06
-1.50786e-06
9.32848e-06
-1.25833e-06
9.57903e-06
-1.0082e-06
9.77463e-06
-7.55527e-07
9.91349e-06
-4.98744e-07
9.99383e-06
-2.36611e-07
1.00139e-05
3.17984e-08
9.97185e-06
3.07298e-07
9.86614e-06
5.90694e-07
9.69516e-06
8.82653e-07
9.45756e-06
1.18358e-06
9.15221e-06
1.49313e-06
8.77831e-06
1.81018e-06
8.33544e-06
2.1326e-06
7.82369e-06
2.45651e-06
7.24389e-06
2.77501e-06
6.59841e-06
3.0769e-06
5.89206e-06
3.34573e-06
5.1336e-06
3.55899e-06
4.33695e-06
3.68809e-06
3.52233e-06
3.70012e-06
2.71679e-06
3.56212e-06
1.95373e-06
3.24787e-06
1.27137e-06
2.74733e-06
7.09337e-07
2.07927e-06
3.01663e-07
1.30701e-06
6.68804e-08
5.56005e-07
3.00558e-08
-8.19132e-08
1.14236e-07
-3.64729e-07
8.35591e-07
-8.44036e-07
1.77222e-06
-1.48909e-06
2.69585e-06
-2.25634e-06
3.46865e-06
-3.09734e-06
4.02292e-06
-3.96863e-06
4.3456e-06
-4.83334e-06
4.45312e-06
-5.66368e-06
4.38056e-06
-6.44095e-06
4.17368e-06
-7.15339e-06
3.87389e-06
-7.79446e-06
3.51324e-06
-8.36059e-06
3.11641e-06
-8.84996e-06
2.70393e-06
-9.2621e-06
2.29023e-06
-9.59775e-06
1.88343e-06
-9.85824e-06
1.48686e-06
-1.00452e-05
1.10214e-06
-1.01605e-05
7.30476e-07
-1.02062e-05
3.72923e-07
-1.01848e-05
2.97618e-08
-1.00989e-05
-2.9967e-07
-9.95103e-06
-6.16752e-07
-9.74351e-06
-9.23142e-07
-9.47874e-06
-1.22027e-06
-9.15909e-06
-1.50954e-06
-8.78692e-06
-1.7926e-06
-8.36429e-06
-2.07149e-06
-7.89276e-06
-2.34853e-06
-7.37316e-06
-2.62644e-06
-6.80522e-06
-2.90815e-06
-6.18763e-06
-3.195e-06
-5.51851e-06
-3.48583e-06
-4.79631e-06
-3.7764e-06
-4.02096e-06
-4.05877e-06
-3.19491e-06
-4.32203e-06
-2.32352e-06
-4.55382e-06
-1.4149e-06
-4.74236e-06
-4.79383e-07
-4.87763e-06
4.7118e-07
-4.95183e-06
1.42399e-06
-4.96041e-06
2.36595e-06
-4.90182e-06
3.28437e-06
-4.77798e-06
4.1675e-06
-4.59438e-06
5.00525e-06
-4.35949e-06
5.78995e-06
-4.08456e-06
6.51697e-06
-3.78213e-06
7.1847e-06
-3.46465e-06
7.79396e-06
-3.14261e-06
8.34682e-06
-2.82315e-06
8.84546e-06
-2.5097e-06
9.29139e-06
-2.20236e-06
9.68494e-06
-1.89894e-06
1.00252e-05
-1.59616e-06
1.03102e-05
-1.29084e-06
1.05374e-05
-9.80442e-07
1.07042e-05
-6.63333e-07
1.08081e-05
-3.3855e-07
1.08471e-05
-5.31419e-09
1.08189e-05
3.3711e-07
1.07217e-05
6.89382e-07
1.05535e-05
1.05201e-06
1.0313e-05
1.42512e-06
9.99906e-06
1.80795e-06
9.61087e-06
2.19897e-06
9.14818e-06
2.59568e-06
8.61089e-06
2.99393e-06
7.99944e-06
3.38633e-06
7.31537e-06
3.76057e-06
6.56255e-06
4.0979e-06
5.74872e-06
4.37191e-06
4.88719e-06
4.54848e-06
3.99818e-06
4.5877e-06
3.10985e-06
4.44869e-06
2.25836e-06
4.09714e-06
1.48666e-06
3.51633e-06
8.41227e-07
2.72193e-06
3.63829e-07
1.78144e-06
8.11522e-08
8.34701e-07
1.09419e-07
-9.98255e-08
2.13493e-07
-4.34601e-07
1.16853e-06
-9.91544e-07
2.32752e-06
-1.72825e-06
3.43127e-06
-2.59051e-06
4.32925e-06
-3.52148e-06
4.95217e-06
-4.47231e-06
5.29505e-06
-5.40325e-06
5.38337e-06
-6.28632e-06
5.26339e-06
-7.10429e-06
4.99113e-06
-7.84771e-06
4.61624e-06
-8.51224e-06
4.17617e-06
-9.09626e-06
3.69867e-06
-9.59927e-06
3.20518e-06
-1.00211e-05
2.71057e-06
-1.0362e-05
2.2233e-06
-1.0623e-05
1.74709e-06
-1.08054e-05
1.28395e-06
-1.09109e-05
8.35564e-07
-1.09417e-05
4.03619e-07
-1.09009e-05
-1.10813e-08
-1.07915e-05
-4.0897e-07
-1.06165e-05
-7.91528e-07
-1.03786e-05
-1.16065e-06
-1.00806e-05
-1.51776e-06
-9.72545e-06
-1.86397e-06
-9.31653e-06
-2.20068e-06
-8.85701e-06
-2.53005e-06
-8.34942e-06
-2.85502e-06
-7.79517e-06
-3.17952e-06
-7.19412e-06
-3.50795e-06
-6.54448e-06
-3.84332e-06
-5.84311e-06
-4.18588e-06
-5.08672e-06
-4.53135e-06
-4.27378e-06
-4.87026e-06
-3.40581e-06
-5.18849e-06
-2.48809e-06
-5.47001e-06
-1.5293e-06
-5.69961e-06
-5.40775e-07
-5.8646e-06
4.64527e-07
-5.9556e-06
1.47266e-06
-5.96702e-06
2.46936e-06
-5.89701e-06
3.44077e-06
-5.74791e-06
4.37395e-06
-5.52612e-06
5.25786e-06
-5.24195e-06
6.08425e-06
-4.90948e-06
6.8486e-06
-4.54502e-06
7.55035e-06
-4.1649e-06
8.19192e-06
-3.78267e-06
8.77713e-06
-3.40685e-06
9.30942e-06
-3.0405e-06
9.7908e-06
-2.68228e-06
1.02214e-05
-2.3281e-06
1.05995e-05
-1.9728e-06
1.09218e-05
-1.61176e-06
1.11844e-05
-1.24171e-06
1.13836e-05
-8.6119e-07
1.15163e-05
-4.69976e-07
1.15798e-05
-6.77367e-08
1.15718e-05
3.46031e-07
1.14901e-05
7.71961e-07
1.13323e-05
1.21038e-06
1.10969e-05
1.66099e-06
1.07828e-05
2.12247e-06
1.03893e-05
2.59265e-06
9.91628e-06
3.0687e-06
9.36374e-06
3.54634e-06
8.73152e-06
4.01823e-06
8.02007e-06
4.47148e-06
7.23174e-06
4.8855e-06
6.3726e-06
5.23014e-06
5.45447e-06
5.46552e-06
4.49678e-06
5.54411e-06
3.52816e-06
5.41579e-06
2.58714e-06
5.03633e-06
1.72165e-06
4.37969e-06
9.8565e-07
3.45587e-06
4.30803e-07
2.33416e-06
9.66431e-08
1.16604e-06
2.07271e-07
-1.22275e-07
3.34854e-07
-5.19957e-07
1.56452e-06
-1.16819e-06
2.97432e-06
-2.00909e-06
4.27131e-06
-2.97454e-06
5.29403e-06
-3.99865e-06
5.97536e-06
-5.02681e-06
6.32245e-06
-6.01716e-06
6.37394e-06
-6.94267e-06
6.19031e-06
-7.78902e-06
5.83947e-06
-8.55056e-06
5.37957e-06
-9.22628e-06
4.85308e-06
-9.8171e-06
4.2901e-06
-1.03237e-05
3.71213e-06
-1.07464e-05
3.13356e-06
-1.1085e-05
2.56239e-06
-1.13396e-05
2.00231e-06
-1.15107e-05
1.4558e-06
-1.15999e-05
9.25497e-07
-1.16097e-05
4.14222e-07
-1.15437e-05
-7.63076e-08
-1.14058e-05
-5.46216e-07
-1.11993e-05
-9.97363e-07
-1.09273e-05
-1.43213e-06
-1.05927e-05
-1.85188e-06
-1.01992e-05
-2.25695e-06
-9.75146e-06
-2.64793e-06
-9.2542e-06
-3.02685e-06
-8.71146e-06
-3.39733e-06
-8.1257e-06
-3.76496e-06
-7.49716e-06
-4.13625e-06
-6.82336e-06
-4.51696e-06
-6.0994e-06
-4.90969e-06
-5.31966e-06
-5.31103e-06
-4.48029e-06
-5.7096e-06
-3.58157e-06
-6.0872e-06
-2.62867e-06
-6.42293e-06
-1.63102e-06
-6.69734e-06
-6.01048e-07
-6.89471e-06
4.47252e-07
-7.00406e-06
1.49904e-06
-7.019e-06
2.53916e-06
-6.93735e-06
3.55274e-06
-6.76177e-06
4.52567e-06
-6.49941e-06
5.44573e-06
-6.16242e-06
6.30391e-06
-5.76809e-06
7.09583e-06
-5.33738e-06
7.82239e-06
-4.8919e-06
8.48851e-06
-4.44921e-06
9.10036e-06
-4.01912e-06
9.66308e-06
-3.60364e-06
1.01793e-05
-3.19894e-06
1.06486e-05
-2.7979e-06
1.1068e-05
-2.39264e-06
1.14324e-05
-1.97659e-06
1.1736e-05
-1.54563e-06
1.19733e-05
-1.09887e-06
1.21406e-05
-6.37492e-07
1.22349e-05
-1.62372e-07
1.2254e-05
3.2668e-07
1.21951e-05
8.3054e-07
1.20556e-05
1.34953e-06
1.18335e-05
1.88275e-06
1.15276e-05
2.428e-06
1.11378e-05
2.98215e-06
1.06643e-05
3.54188e-06
1.01073e-05
4.10307e-06
9.46614e-06
4.65913e-06
8.73979e-06
5.19754e-06
7.92838e-06
5.69657e-06
7.03536e-06
6.12279e-06
6.06992e-06
6.43057e-06
5.04951e-06
6.56415e-06
4.00203e-06
6.4629e-06
2.96758e-06
6.07036e-06
1.99887e-06
5.34792e-06
1.15856e-06
4.29597e-06
5.12386e-07
2.98039e-06
1.18471e-07
1.56062e-06
3.2903e-07
-1.52875e-07
4.86908e-07
-6.31784e-07
2.04258e-06
-1.39267e-06
3.7347e-06
-2.35636e-06
5.23465e-06
-3.43606e-06
6.3744e-06
-4.55658e-06
7.09599e-06
-5.65796e-06
7.42321e-06
-6.69766e-06
7.41337e-06
-7.65145e-06
7.14501e-06
-8.51011e-06
6.70019e-06
-9.27366e-06
6.14564e-06
-9.94599e-06
5.52765e-06
-1.05309e-05
4.87665e-06
-1.10304e-05
4.21278e-06
-1.14448e-05
3.54885e-06
-1.17732e-05
2.89169e-06
-1.20143e-05
2.24433e-06
-1.21673e-05
1.60976e-06
-1.22333e-05
9.92338e-07
-1.22153e-05
3.96978e-07
-1.21177e-05
-1.73039e-07
-1.19457e-05
-7.17555e-07
-1.1703e-05
-1.2394e-06
-1.13927e-05
-1.74208e-06
-1.10175e-05
-2.22684e-06
-1.05819e-05
-2.69247e-06
-1.0092e-05
-3.13776e-06
-9.55475e-06
-3.56408e-06
-8.9763e-06
-3.97584e-06
-8.36085e-06
-4.3806e-06
-7.70948e-06
-4.78796e-06
-7.01909e-06
-5.20778e-06
-6.2825e-06
-5.6468e-06
-5.49055e-06
-6.10357e-06
-4.63612e-06
-6.56468e-06
-3.71786e-06
-7.00614e-06
-2.74118e-06
-7.40031e-06
-1.71668e-06
-7.72259e-06
-6.57969e-07
-7.9542e-06
4.20103e-07
-8.08294e-06
1.50228e-06
-8.10196e-06
2.57308e-06
-8.00892e-06
3.61708e-06
-7.80655e-06
4.61914e-06
-7.50226e-06
5.56545e-06
-7.10957e-06
6.44562e-06
-6.64913e-06
7.25522e-06
-6.14788e-06
7.9972e-06
-5.63478e-06
8.68003e-06
-5.13297e-06
9.3134e-06
-4.65342e-06
9.90449e-06
-4.19569e-06
1.04564e-05
-3.75183e-06
1.09679e-05
-3.31042e-06
1.14338e-05
-2.8597e-06
1.18466e-05
-2.39044e-06
1.21975e-05
-1.89764e-06
1.24793e-05
-1.38171e-06
1.26873e-05
-8.46439e-07
1.28191e-05
-2.95005e-07
1.28725e-05
2.72484e-07
1.28446e-05
8.57802e-07
1.27318e-05
1.46166e-06
1.25316e-05
2.08241e-06
1.22428e-05
2.71629e-06
1.18661e-05
3.35856e-06
1.14027e-05
4.005e-06
1.08534e-05
4.65219e-06
1.02172e-05
5.29528e-06
9.49115e-06
5.92355e-06
8.6723e-06
6.51542e-06
7.76023e-06
7.03486e-06
6.76021e-06
7.43067e-06
5.68582e-06
7.63873e-06
4.56239e-06
7.58664e-06
3.42995e-06
7.20315e-06
2.34516e-06
6.43307e-06
1.38108e-06
5.26082e-06
6.22522e-07
3.74048e-06
1.50334e-07
2.03599e-06
4.80669e-07
-1.96554e-07
6.83114e-07
-7.84717e-07
2.63085e-06
-1.68846e-06
4.63911e-06
-2.79881e-06
6.34441e-06
-4.00481e-06
7.58159e-06
-5.22204e-06
8.31392e-06
-6.38707e-06
8.58712e-06
-7.4594e-06
8.48363e-06
-8.42043e-06
8.10433e-06
-9.26894e-06
7.54803e-06
-1.00134e-05
6.89031e-06
-1.0664e-05
6.1787e-06
-1.12279e-05
5.44088e-06
-1.1708e-05
4.69285e-06
-1.21041e-05
3.94476e-06
-1.2414e-05
3.20153e-06
-1.26344e-05
2.46469e-06
-1.27622e-05
1.73763e-06
-1.27975e-05
1.02769e-06
-1.27441e-05
3.43598e-07
-1.26082e-05
-3.08707e-07
-1.23966e-05
-9.28885e-07
-1.21136e-05
-1.52197e-06
-1.17615e-05
-2.09399e-06
-1.13419e-05
-2.64621e-06
-1.08599e-05
-3.1743e-06
-1.0324e-05
-3.6736e-06
-9.74377e-06
-4.14413e-06
-9.12819e-06
-4.59119e-06
-8.48392e-06
-5.02466e-06
-7.8138e-06
-5.45794e-06
-7.11466e-06
-5.90682e-06
-6.37638e-06
-6.38497e-06
-5.58465e-06
-6.89521e-06
-4.72763e-06
-7.42161e-06
-3.80217e-06
-7.93146e-06
-2.81465e-06
-8.38761e-06
-1.77767e-06
-8.75928e-06
-7.06228e-07
-9.02533e-06
3.84525e-07
-9.17332e-06
1.47975e-06
-9.19673e-06
2.56474e-06
-9.09337e-06
3.62439e-06
-8.8656e-06
4.64287e-06
-8.52012e-06
5.60426e-06
-8.07036e-06
6.49571e-06
-7.54001e-06
7.312e-06
-6.96364e-06
8.05874e-06
-6.38103e-06
8.74975e-06
-5.82355e-06
9.39951e-06
-5.3028e-06
1.00175e-05
-4.81341e-06
1.06069e-05
-4.34099e-06
1.11649e-05
-3.86821e-06
1.16835e-05
-3.37836e-06
1.21515e-05
-2.85863e-06
1.25566e-05
-2.30305e-06
1.2889e-05
-1.71443e-06
1.31437e-05
-1.10138e-06
1.33194e-05
-4.70989e-07
1.3415e-05
1.76688e-07
1.34268e-05
8.45785e-07
1.33501e-05
1.53816e-06
1.31812e-05
2.25115e-06
1.2919e-05
2.97835e-06
1.25654e-05
3.71207e-06
1.21237e-05
4.44655e-06
1.15963e-05
5.17948e-06
1.09821e-05
5.90949e-06
1.02756e-05
6.62987e-06
9.46986e-06
7.32093e-06
8.55935e-06
7.94505e-06
7.54357e-06
8.44611e-06
6.43016e-06
8.75184e-06
5.23895e-06
8.77757e-06
4.00702e-06
8.43472e-06
2.79305e-06
7.6466e-06
1.68123e-06
6.37275e-06
7.78947e-07
4.64397e-06
1.95099e-07
2.62132e-06
6.73075e-07
-2.6125e-07
9.44565e-07
-1.0007e-06
3.37058e-06
-2.08796e-06
5.72779e-06
-3.37119e-06
7.62617e-06
-4.71217e-06
8.92324e-06
-6.01835e-06
9.62145e-06
-7.22754e-06
9.79619e-06
-8.3052e-06
9.55952e-06
-9.24233e-06
9.03916e-06
-1.00496e-05
8.3534e-06
-1.07474e-05
7.58686e-06
-1.1354e-05
6.78442e-06
-1.18794e-05
5.96535e-06
-1.2326e-05
5.13841e-06
-1.26925e-05
4.31013e-06
-1.29752e-05
3.48319e-06
-1.31675e-05
2.65615e-06
-1.32627e-05
1.83223e-06
-1.32594e-05
1.02378e-06
-1.31624e-05
2.46075e-07
-1.29812e-05
-4.90379e-07
-1.27252e-05
-1.18515e-06
-1.23993e-05
-1.84779e-06
-1.20036e-05
-2.48963e-06
-1.15374e-05
-3.11243e-06
-1.10058e-05
-3.70584e-06
-1.04203e-05
-4.25906e-06
-9.79425e-06
-4.77004e-06
-9.13974e-06
-5.24533e-06
-8.46668e-06
-5.69726e-06
-7.7812e-06
-6.14295e-06
-7.08144e-06
-6.60605e-06
-6.35396e-06
-7.11187e-06
-5.57693e-06
-7.67161e-06
-4.73155e-06
-8.26633e-06
-3.81301e-06
-8.84925e-06
-2.83034e-06
-9.36938e-06
-1.79951e-06
-9.7891e-06
-7.37111e-07
-1.00867e-05
3.42482e-07
-1.02518e-05
1.42648e-06
-1.02796e-05
2.50258e-06
-1.01683e-05
3.55767e-06
-9.91942e-06
4.57606e-06
-9.53719e-06
5.53912e-06
-9.0321e-06
6.4296e-06
-8.4292e-06
7.23977e-06
-7.77254e-06
7.97871e-06
-7.11873e-06
8.66829e-06
-6.51194e-06
9.32929e-06
-5.96264e-06
9.97331e-06
-5.45629e-06
1.06024e-05
-4.96896e-06
1.12114e-05
-4.47609e-06
1.1789e-05
-3.95494e-06
1.23193e-05
-3.38814e-06
1.2785e-05
-2.76818e-06
1.31729e-05
-2.10183e-06
1.34783e-05
-1.40635e-06
1.37033e-05
-6.9556e-07
1.38487e-05
3.16896e-08
1.39098e-05
7.85013e-07
1.38795e-05
1.5688e-06
1.37522e-05
2.37877e-06
1.35267e-05
3.20408e-06
1.3207e-05
4.03199e-06
1.28e-05
4.85375e-06
1.23108e-05
5.66868e-06
1.1739e-05
6.48137e-06
1.10763e-05
7.29249e-06
1.03104e-05
8.08659e-06
9.42949e-06
8.82559e-06
8.42579e-06
9.44936e-06
7.2985e-06
9.87869e-06
6.0581e-06
1.00174e-05
4.73416e-06
9.75793e-06
3.38296e-06
8.99692e-06
2.09648e-06
7.65905e-06
1.00517e-06
5.73595e-06
2.60746e-07
3.36327e-06
9.31264e-07
-3.61768e-07
1.30678e-06
-1.31537e-06
4.32368e-06
-2.63843e-06
7.05198e-06
-4.11661e-06
9.10271e-06
-5.58835e-06
1.03951e-05
-6.95966e-06
1.09948e-05
-8.17821e-06
1.10171e-05
-9.22047e-06
1.06032e-05
-1.00906e-05
9.91002e-06
-1.08161e-05
9.07946e-06
-1.14341e-05
8.20528e-06
-1.19718e-05
7.32261e-06
-1.24398e-05
6.43372e-06
-1.28374e-05
5.53615e-06
-1.31614e-05
4.63407e-06
-1.34072e-05
3.72886e-06
-1.35639e-05
2.81284e-06
-1.36192e-05
1.88756e-06
-1.35688e-05
9.73515e-07
-1.34197e-05
9.69526e-08
-1.31863e-05
-7.24192e-07
-1.28825e-05
-1.4893e-06
-1.25142e-05
-2.21624e-06
-1.20768e-05
-2.92703e-06
-1.15643e-05
-3.62508e-06
-1.09819e-05
-4.28857e-06
-1.03452e-05
-4.89616e-06
-9.67171e-06
-5.44376e-06
-8.97668e-06
-5.9405e-06
-8.27381e-06
-6.40016e-06
-7.57478e-06
-6.84207e-06
-6.88186e-06
-7.29906e-06
-6.17891e-06
-7.81486e-06
-5.43306e-06
-8.41752e-06
-4.61505e-06
-9.0845e-06
-3.7194e-06
-9.74513e-06
-2.761e-06
-1.0328e-05
-1.76126e-06
-1.07891e-05
-7.38192e-07
-1.11101e-05
2.966e-07
-1.1287e-05
1.33496e-06
-1.13184e-05
2.36935e-06
-1.12031e-05
3.39144e-06
-1.0942e-05
4.38765e-06
-1.05339e-05
5.33606e-06
-9.98101e-06
6.21203e-06
-9.30567e-06
7.00182e-06
-8.56284e-06
7.71865e-06
-7.83605e-06
8.39697e-06
-7.19069e-06
9.06539e-06
-6.63145e-06
9.73589e-06
-6.12709e-06
1.04075e-05
-5.64071e-06
1.10716e-05
-5.14021e-06
1.17133e-05
-4.59647e-06
1.23116e-05
-3.98639e-06
1.28427e-05
-3.29919e-06
1.32882e-05
-2.54727e-06
1.36451e-05
-1.7632e-06
1.39222e-05
-9.72603e-07
1.41242e-05