/*--------------------------------*- C++ -*----------------------------------*\
| =========                 |                                                 |
| \\      /  F ield         | OpenFOAM: The Open Source CFD Toolbox           |
|  \\    /   O peration     | Version:  2412                                  |
|   \\  /    A nd           | Website:  www.openfoam.com                      |
|    \\/     M anipulation  |                                                 |
\*---------------------------------------------------------------------------*/
FoamFile
{
    version     2.0;
    format      ascii;
    arch        "LSB;label=32;scalar=64";
    class       volScalarField;
    location    "9.65";
    object      p_rgh;
}
// * * * * * * * * * * * * * * * * * * * * * * * * * * * * * * * * * * * * * //

dimensions      [1 -1 -2 0 0 0 0];

internalField   nonuniform List<scalar> 
6400
(
7339.21
7339
7338.54
7337.81
7336.79
7335.46
7333.8
7331.82
7329.52
7326.89
7323.96
7320.72
7317.2
7313.4
7309.37
7305.13
7300.72
7296.18
7291.58
7286.96
7282.37
7277.87
7273.51
7269.34
7265.41
7261.72
7258.32
7255.22
7252.43
7249.95
7247.78
7245.89
7244.27
7242.9
7241.76
7240.82
7240.06
7239.47
7239.03
7238.73
7238.57
7238.55
7238.68
7238.99
7239.48
7240.18
7241.12
7242.32
7243.81
7245.6
7247.72
7250.18
7252.98
7256.12
7259.59
7263.35
7267.39
7271.66
7276.12
7280.71
7285.38
7290.08
7294.73
7299.3
7303.73
7307.96
7311.98
7315.73
7319.21
7322.38
7325.25
7327.8
7330.04
7331.95
7333.55
7334.83
7335.81
7336.5
7336.94
7337.13
7339.41
7339.21
7338.76
7338.05
7337.04
7335.73
7334.08
7332.12
7329.82
7327.2
7324.26
7321.02
7317.48
7313.66
7309.59
7305.31
7300.86
7296.28
7291.62
7286.94
7282.3
7277.75
7273.34
7269.14
7265.16
7261.45
7258.03
7254.92
7252.13
7249.65
7247.48
7245.61
7244.01
7242.66
7241.54
7240.62
7239.88
7239.3
7238.87
7238.57
7238.4
7238.38
7238.5
7238.78
7239.25
7239.93
7240.84
7242.02
7243.49
7245.27
7247.39
7249.85
7252.65
7255.81
7259.3
7263.1
7267.18
7271.49
7276
7280.65
7285.38
7290.13
7294.85
7299.46
7303.93
7308.21
7312.25
7316.02
7319.51
7322.69
7325.56
7328.1
7330.33
7332.23
7333.81
7335.08
7336.04
7336.71
7337.13
7337.33
7339.83
7339.64
7339.22
7338.54
7337.57
7336.28
7334.67
7332.72
7330.43
7327.81
7324.86
7321.6
7318.02
7314.16
7310.03
7305.67
7301.12
7296.44
7291.67
7286.89
7282.14
7277.48
7272.98
7268.69
7264.65
7260.89
7257.43
7254.31
7251.51
7249.05
7246.9
7245.06
7243.5
7242.2
7241.12
7240.24
7239.53
7238.98
7238.56
7238.27
7238.1
7238.05
7238.15
7238.39
7238.81
7239.44
7240.31
7241.44
7242.86
7244.61
7246.71
7249.16
7251.98
7255.17
7258.7
7262.57
7266.72
7271.13
7275.75
7280.51
7285.36
7290.23
7295.05
7299.77
7304.33
7308.68
7312.78
7316.6
7320.11
7323.3
7326.17
7328.71
7330.92
7332.8
7334.35
7335.58
7336.51
7337.15
7337.54
7337.72
7340.47
7340.3
7339.92
7339.29
7338.37
7337.13
7335.55
7333.62
7331.35
7328.73
7325.77
7322.48
7318.85
7314.91
7310.68
7306.2
7301.51
7296.67
7291.74
7286.78
7281.87
7277.06
7272.42
7268
7263.85
7260.02
7256.51
7253.36
7250.57
7248.12
7246.02
7244.24
7242.75
7241.51
7240.51
7239.69
7239.04
7238.53
7238.14
7237.85
7237.67
7237.59
7237.64
7237.82
7238.17
7238.72
7239.51
7240.56
7241.92
7243.62
7245.68
7248.12
7250.95
7254.17
7257.78
7261.73
7266.01
7270.56
7275.34
7280.28
7285.3
7290.34
7295.34
7300.22
7304.92
7309.39
7313.58
7317.46
7321.02
7324.23
7327.1
7329.62
7331.81
7333.66
7335.17
7336.36
7337.22
7337.81
7338.16
7338.31
7341.29
7341.15
7340.83
7340.28
7339.44
7338.26
7336.73
7334.84
7332.59
7329.97
7327.01
7323.67
7319.98
7315.93
7311.57
7306.92
7302.04
7296.98
7291.82
7286.63
7281.48
7276.45
7271.61
7267.02
7262.74
7258.8
7255.23
7252.05
7249.27
7246.87
7244.83
7243.13
7241.73
7240.6
7239.69
7238.97
7238.4
7237.95
7237.6
7237.32
7237.13
7237.01
7236.99
7237.08
7237.33
7237.77
7238.43
7239.38
7240.63
7242.25
7244.25
7246.67
7249.52
7252.79
7256.49
7260.57
7265.01
7269.76
7274.76
7279.94
7285.21
7290.5
7295.73
7300.84
7305.73
7310.36
7314.68
7318.65
7322.25
7325.49
7328.35
7330.85
7333
7334.8
7336.26
7337.38
7338.16
7338.68
7338.96
7339.08
7342.26
7342.18
7341.94
7341.49
7340.75
7339.66
7338.19
7336.35
7334.14
7331.56
7328.58
7325.21
7321.44
7317.27
7312.73
7307.86
7302.72
7297.37
7291.91
7286.41
7280.96
7275.64
7270.55
7265.73
7261.28
7257.21
7253.56
7250.35
7247.58
7245.23
7243.29
7241.7
7240.44
7239.45
7238.69
7238.1
7237.64
7237.27
7236.97
7236.71
7236.49
7236.32
7236.21
7236.18
7236.29
7236.57
7237.08
7237.87
7238.99
7240.49
7242.42
7244.8
7247.66
7250.99
7254.8
7259.06
7263.69
7268.7
7274
7279.49
7285.09
7290.7
7296.25
7301.64
7306.79
7311.62
7316.1
7320.18
7323.84
7327.09
7329.93
7332.39
7334.47
7336.21
7337.6
7338.63
7339.32
7339.73
7339.92
7339.98
7343.34
7343.35
7343.22
7342.89
7342.26
7341.26
7339.88
7338.12
7336
7333.48
7330.53
7327.13
7323.27
7318.94
7314.18
7309.04
7303.58
7297.88
7292.02
7286.13
7280.29
7274.61
7269.18
7264.09
7259.41
7255.18
7251.44
7248.2
7245.46
7243.2
7241.38
7239.96
7238.88
7238.08
7237.51
7237.09
7236.78
7236.52
7236.29
7236.06
7235.81
7235.57
7235.33
7235.16
7235.08
7235.15
7235.45
7236.03
7236.97
7238.31
7240.13
7242.45
7245.3
7248.71
7252.65
7257.11
7262.03
7267.35
7273.01
7278.91
7284.92
7290.96
7296.91
7302.66
7308.13
7313.23
7317.9
7322.1
7325.83
7329.08
7331.86
7334.21
7336.17
7337.81
7339.12
7340.06
7340.64
7340.92
7341.01
7340.96
7344.44
7344.61
7344.6
7344.32
7343.71
7342.76
7341.52
7340
7338.1
7335.75
7332.88
7329.47
7325.53
7321.03
7316.01
7310.53
7304.66
7298.49
7292.15
7285.76
7279.43
7273.29
7267.45
7262.03
7257.08
7252.66
7248.81
7245.55
7242.86
7240.71
7239.07
7237.86
7237.03
7236.49
7236.16
7235.98
7235.86
7235.76
7235.62
7235.41
7235.14
7234.79
7234.41
7234.02
7233.7
7233.51
7233.53
7233.84
7234.52
7235.66
7237.32
7239.55
7242.39
7245.87
7249.98
7254.69
7259.96
7265.64
7271.77
7278.17
7284.72
7291.28
7297.74
7303.95
7309.81
7315.24
7320.14
7324.48
7328.26
7331.47
7334.13
7336.26
7337.9
7339.3
7340.45
7341.36
7341.95
7342.19
7342.18
7341.95
7345.46
7345.82
7345.8
7345.34
7344.53
7343.58
7342.67
7341.72
7340.36
7338.36
7335.67
7332.31
7328.29
7323.59
7318.26
7312.37
7305.99
7299.26
7292.31
7285.29
7278.36
7271.66
7265.32
7259.47
7254.19
7249.54
7245.58
7242.3
7239.69
7237.72
7236.31
7235.4
7234.88
7234.68
7234.67
7234.79
7234.92
7235.01
7234.99
7234.83
7234.51
7234.05
7233.46
7232.82
7232.18
7231.64
7231.3
7231.26
7231.62
7232.48
7233.92
7236.03
7238.84
7242.39
7246.68
7251.68
7257.34
7263.56
7270.25
7277.27
7284.47
7291.69
7298.77
7305.55
7311.91
7317.72
7322.9
7327.4
7331.2
7334.31
7336.74
7338.47
7339.58
7340.19
7340.92
7341.87
7342.71
7343.21
7343.23
7342.82
7346.3
7346.72
7346.46
7345.58
7344.51
7343.57
7342.91
7343.07
7342.75
7341.36
7338.99
7335.75
7331.67
7326.75
7321.05
7314.64
7307.65
7300.21
7292.5
7284.71
7277.02
7269.62
7262.67
7256.3
7250.63
7245.73
7241.64
7238.38
7235.9
7234.15
7233.06
7232.52
7232.42
7232.65
7233.06
7233.56
7234.03
7234.36
7234.5
7234.4
7234.03
7233.41
7232.57
7231.59
7230.56
7229.58
7228.77
7228.27
7228.2
7228.7
7229.86
7231.79
7234.54
7238.16
7242.65
7248
7254.14
7260.97
7268.35
7276.15
7284.16
7292.19
7300.05
7307.54
7314.5
7320.79
7326.3
7330.96
7334.76
7337.68
7339.73
7340.78
7340.34
7338.49
7339.58
7341.47
7342.6
7343.59
7343.92
7343.5
7346.87
7347.15
7346.56
7345.45
7344.39
7343.28
7343.3
7344.46
7345.6
7344.97
7343.03
7339.96
7335.82
7330.65
7324.49
7317.46
7309.68
7301.37
7292.72
7283.97
7275.35
7267.09
7259.38
7252.4
7246.27
7241.08
7236.87
7233.64
7231.34
7229.91
7229.23
7229.19
7229.63
7230.41
7231.37
7232.36
7233.24
7233.9
7234.24
7234.21
7233.78
7232.97
7231.82
7230.41
7228.87
7227.32
7225.92
7224.83
7224.22
7224.24
7225.02
7226.69
7229.34
7233.02
7237.74
7243.5
7250.22
7257.78
7266.02
7274.76
7283.77
7292.81
7301.64
7310.01
7317.71
7324.58
7330.48
7335.34
7339.1
7341.79
7343.34
7343.54
7340.86
7338.86
7338.18
7340.81
7342.2
7343.41
7344.11
7343.88
7347.1
7347.17
7346.57
7345.78
7345.24
7344.43
7345.58
7347.3
7349.41
7349.62
7348.1
7345.2
7340.99
7335.48
7328.75
7320.93
7312.2
7302.79
7292.97
7283.04
7273.27
7263.95
7255.32
7247.6
7240.92
7235.41
7231.08
7227.94
7225.91
7224.89
7224.76
7225.35
7226.49
7227.98
7229.63
7231.25
7232.67
7233.74
7234.34
7234.4
7233.9
7232.85
7231.29
7229.35
7227.17
7224.9
7222.74
7220.9
7219.59
7218.99
7219.28
7220.61
7223.09
7226.8
7231.77
7238
7245.4
7253.84
7263.15
7273.03
7283.29
7293.59
7303.61
7313.07
7321.69
7329.28
7335.66
7340.74
7344.49
7346.92
7347.98
7347.3
7343.1
7341
7339.53
7341.71
7342.4
7343.2
7343.9
7343.9
7346.91
7346.96
7346.83
7346.92
7347.4
7347.71
7349.7
7352.31
7355.12
7355.68
7354.52
7351.76
7347.41
7341.49
7334.06
7325.26
7315.32
7304.55
7293.27
7281.86
7270.67
7260.05
7250.3
7241.68
7234.38
7228.5
7224.08
7221.09
7219.43
7218.97
7219.54
7220.95
7222.98
7225.38
7227.91
7230.33
7232.43
7234.02
7234.95
7235.14
7234.55
7233.19
7231.14
7228.53
7225.52
7222.34
7219.23
7216.44
7214.22
7212.83
7212.47
7213.34
7215.57
7219.27
7224.5
7231.26
7239.48
7248.99
7259.56
7270.91
7282.7
7294.55
7306.06
7316.87
7326.64
7335.1
7342.06
7347.42
7351.17
7353.35
7353.98
7353.01
7349.35
7344.92
7343.58
7343.93
7343.42
7343.29
7343.47
7343.49
7346.22
7346.53
7347.25
7348.57
7350.51
7353.03
7355.92
7359.71
7362.3
7363.28
7362.51
7359.9
7355.41
7348.97
7340.65
7330.63
7319.19
7306.7
7293.61
7280.35
7267.4
7255.18
7244.07
7234.38
7226.34
7220.08
7215.61
7212.87
7211.72
7211.99
7213.46
7215.92
7219.08
7222.63
7226.28
7229.72
7232.68
7234.93
7236.29
7236.64
7235.94
7234.2
7231.52
7228.06
7224.04
7219.71
7215.38
7211.37
7208
7205.6
7204.41
7204.66
7206.52
7210.15
7215.64
7223.01
7232.19
7242.99
7255.13
7268.26
7281.95
7295.74
7309.12
7321.62
7332.8
7342.34
7350.01
7355.69
7359.43
7361.3
7361.43
7359.91
7357.01
7353.06
7349.86
7346.93
7344.85
7343.5
7342.8
7342.54
7344.79
7345.57
7347.32
7350.04
7353.67
7358.07
7362.86
7367.33
7370.69
7372.44
7372.25
7369.92
7365.28
7358.24
7348.83
7337.29
7323.98
7309.35
7293.98
7278.43
7263.3
7249.11
7236.33
7225.36
7216.47
7209.8
7205.36
7203.02
7202.57
7203.77
7206.39
7210.16
7214.75
7219.78
7224.85
7229.58
7233.63
7236.71
7238.61
7239.17
7238.33
7236.13
7232.67
7228.15
7222.83
7217.05
7211.18
7205.62
7200.81
7197.11
7194.87
7194.32
7195.67
7199.12
7204.83
7212.88
7223.19
7235.54
7249.6
7264.92
7280.99
7297.21
7312.95
7327.56
7340.51
7351.36
7359.84
7365.87
7369.5
7370.91
7370.31
7367.94
7364.12
7359.33
7354.29
7349.73
7346.01
7343.29
7341.58
7340.83
7342.34
7343.71
7346.52
7350.75
7356.21
7362.6
7369.23
7375.29
7380.11
7383.12
7383.9
7382.08
7377.4
7369.7
7358.99
7345.58
7329.91
7312.61
7294.38
7275.97
7258.12
7241.49
7226.68
7214.15
7204.27
7197.21
7192.94
7191.22
7191.7
7194.06
7198.12
7203.56
7209.97
7216.87
7223.73
7230.1
7235.53
7239.67
7242.25
7243.07
7242.08
7239.3
7234.86
7229.01
7222.08
7214.46
7206.63
7199.12
7192.46
7187.15
7183.59
7182.01
7182.63
7185.71
7191.58
7200.37
7212.01
7226.23
7242.63
7260.67
7279.71
7299
7317.74
7335.03
7350.16
7362.6
7372.03
7378.35
7381.68
7382.32
7380.59
7376.86
7371.52
7365.12
7358.28
7351.79
7346.35
7342.2
7339.45
7338.1
7338.61
7340.59
7344.52
7350.33
7357.74
7366.61
7375.33
7383.63
7390.63
7395.57
7397.86
7396.9
7392.39
7383.98
7371.71
7355.94
7337.31
7316.61
7294.77
7272.76
7251.49
7231.84
7214.51
7200.11
7189.07
7181.66
7177.82
7177.09
7178.86
7182.62
7188.41
7195.94
7204.66
7213.93
7223.09
7231.53
7238.71
7244.18
7247.6
7248.75
7247.57
7244.06
7238.41
7230.91
7221.95
7212.01
7201.69
7191.67
7182.67
7175.36
7170.23
7167.45
7166.99
7169.36
7175.21
7184.8
7198.01
7214.49
7233.74
7255.15
7277.9
7301.09
7323.74
7344.44
7362.32
7376.7
7387.18
7393.67
7396.4
7395.89
7392.45
7386.69
7379.17
7370.54
7361.62
7352.74
7345.52
7339.91
7336.17
7334.08
7332.61
7335.06
7340.29
7347.96
7358.24
7369.41
7381.04
7392.42
7402.53
7410.19
7414.4
7414.98
7411.07
7401.96
7387.71
7368.91
7346.44
7321.34
7294.89
7268.31
7242.76
7219.34
7198.95
7182.28
7169.89
7162.22
7159.34
7160.21
7163.62
7168.86
7176.71
7186.88
7198.59
7210.94
7223.02
7234.09
7243.48
7250.63
7255.13
7256.7
7255.25
7250.85
7243.69
7234.11
7222.59
7209.72
7196.2
7182.91
7170.85
7161.05
7154.17
7150.2
7148.2
7149.19
7154.69
7165.18
7180.27
7199.43
7222.14
7247.72
7275.21
7303.23
7331.29
7356.33
7377.7
7394.46
7406.1
7412.48
7414.02
7411.72
7406.16
7397.64
7387.06
7375.42
7363.63
7352.32
7342.74
7335.38
7330.48
7327.9
7322.98
7325.52
7332.5
7342.78
7356.55
7371.28
7386.77
7402.24
7416.6
7428.13
7435.14
7437.98
7435.36
7425.48
7408.58
7385.77
7358.26
7327.41
7295.13
7262.7
7231.69
7203.51
7179.23
7159.7
7145.6
7137.69
7136.83
7140.25
7144.94
7151.31
7161.87
7175.75
7191.6
7208.06
7223.98
7238.43
7250.65
7259.98
7265.84
7267.95
7266.18
7260.65
7251.62
7239.45
7224.69
7207.99
7190.16
7172.32
7155.89
7142.49
7133.32
7127.56
7123.1
7123.96
7128.57
7140.29
7157.76
7180.19
7207.13
7238.04
7271.77
7306.55
7340.51
7371.88
7397.78
7417.5
7430.51
7436.36
7435.73
7431.12
7422.54
7410.24
7395.71
7380.2
7364.72
7349.55
7336.99
7327.25
7320.83
7318.14
6805.27
6802.03
6888.92
6999.55
7119.6
7230.33
7320.01
7386.99
7430.98
7452.28
7462.36
7467.59
7467.67
7456.47
7435.49
7363.03
7166.99
6902.78
6573.12
6194.76
5793.96
5398.35
5035.04
4728.53
4504.09
4381.34
4357.47
4440.12
4601.88
4810.7
5046.81
5316.33
5601.63
5884.69
6139.29
6347.33
6505.49
6615.71
6678.61
6698.68
6681.11
6630.71
6541.35
6403.72
6208.59
5952.77
5641.83
5307.13
4988.01
4698.71
4421.89
4220.25
4102.66
4080.61
4175.92
4376.56
4665.23
5016.83
5415.31
5847.11
6285.89
6692.69
7030.56
7282.78
7423.64
7447.36
7462.56
7467.66
7462.79
7457.18
7443.71
7416.68
7367.97
7293.59
7194.25
7077.08
6958.37
6853.81
6776.68
6785.15
1725.65
1782.42
1917.92
2138.49
2442.72
2811.45
3225.34
3704.04
4257.24
4708.23
5026.81
5162.23
5086.57
4770.08
4238.73
3574.5
2898.78
2216.16
1601.56
1090.15
695.044
412.501
224.374
107.953
42.3288
11.0726
0.768488
0.730483
0.857338
23.6611
115.61
229.799
375.705
552.817
757.189
979.009
1197.59
1383.24
1507.62
1557.14
1523.52
1406.81
1221.65
993.06
753.651
534.016
350.233
202.991
80.0697
0.958947
0.735216
0.738917
0.793162
1.5345
14.4375
54.5115
132.679
261.74
465.22
775.276
1219.78
1808.15
2518.91
3271.96
3968.15
4554.31
4921.82
5078.39
5034.45
4814.12
4488.03
4064.92
3562.49
3096.33
2677.68
2315.43
2025.2
1823.85
1720.02
1696.32
1.03625
1.01479
0.921486
0.846324
0.752149
0.714474
0.753024
0.876186
1.1681
106.221
242.922
324.25
323.769
253.317
137.737
43.0177
7.78615
6.1088
3.91972
2.36174
1.88992
1.72789
1.38673
1.01417
0.774207
0.65405
0.652144
0.649207
0.653259
0.682992
0.652463
0.633326
0.606777
0.572684
0.539452
0.497992
0.450346
0.401426
0.359349
0.324353
0.324245
0.363654
0.409247
0.435529
0.43115
0.409523
0.435787
0.505789
0.584647
0.672349
0.666626
0.694319
0.736933
0.840792
0.997717
1.20436
1.39864
1.39209
1.44738
1.94119
3.19739
5.31117
7.71811
19.8924
88.8524
202.314
316.346
370.814
338.182
223.261
77.8675
0.302153
0.09511
0.0386074
0.0383516
0.0961213
0.19019
0.31287
0.43809
0.397718
2.40545
1.25627
0.891271
0.900038
0.85798
0.916777
0.736244
0.768987
0.734166
0.517947
0.385291
0.317199
0.274387
0.382477
0.526217
0.551611
0.864161
1.35783
0.92989
0.559682
0.572911
0.620692
0.623773
0.605935
0.599837
0.599902
0.610614
0.623722
0.645451
0.642683
0.638245
0.632823
0.610487
0.764488
0.768344
0.614223
0.552533
0.518529
0.46301
0.418626
0.670738
0.961824
0.970351
0.922344
0.702382
0.687854
0.700654
0.5987
0.530581
0.621511
0.659095
0.725035
0.772366
0.788154
0.829467
0.926193
1.14422
1.2603
1.22517
1.24227
1.27495
1.35835
1.5056
1.69062
1.65549
1.33366
0.848587
0.293948
-0.0862067
-0.142566
-0.0497013
0.0972958
0.0754326
0.0480695
0.0784631
0.398617
0.591479
0.850497
1.27351
1.19546
3.44534
2.0817
0.889633
3.75488
4.87101
4.12848
0.58441
0.617477
0.58835
0.469009
0.393519
0.328122
0.288791
0.257149
0.228353
0.231148
0.56969
1.4447
1.07027
0.389454
0.417832
0.476538
0.518012
0.5462
0.569785
0.578255
0.587527
0.600321
0.610706
0.613085
0.612501
0.6081
0.596509
0.621803
0.792564
0.644205
0.586641
0.512514
0.437132
0.446917
0.89704
0.929888
0.934061
0.936595
0.909256
0.667698
0.377624
0.414037
0.497183
0.56602
0.740835
0.857335
0.700491
0.699461
0.69935
0.783408
1.16732
1.235
1.18912
1.15739
1.19411
1.29375
1.38062
1.44823
1.43545
1.2103
0.804127
0.365302
0.110716
0.204325
0.350458
0.459246
0.16923
0.02726
0.162689
1.12166
1.66169
2.22001
2.44433
2.51685
3.39843
1.79641
1.5511
4.86643
4.68844
4.59351
0.456449
0.668086
0.682255
0.360471
0.316885
0.30629
0.355194
0.300884
0.215903
0.207006
0.237114
0.276498
0.296262
0.333726
0.398049
0.459998
0.504712
0.527957
0.53908
0.549314
0.562155
0.574267
0.582366
0.58387
0.58238
0.584912
0.574316
0.571737
0.780866
0.660452
0.574025
0.493195
0.415981
0.342043
0.38175
0.571546
0.851238
0.671993
0.289457
0.309991
0.355572
0.421818
0.530668
0.920312
1.13667
0.795612
0.615311
0.589967
0.711988
0.929689
0.984975
0.837195
0.889529
0.951853
1.03429
1.17486
1.29657
1.38289
1.36767
1.16607
0.760664
0.436078
0.068698
-0.0303249
0.000598598
0.150512
0.15511
-0.0233215
0.0657967
0.45066
-0.244157
-0.309983
1.13186
2.47788
3.3378
1.02572
0.958001
4.74643
4.57916
2.48197
0.415853
1.21883
1.33764
0.303126
0.322468
0.635366
0.665034
0.635426
0.422352
0.187497
0.220848
0.257858
0.299211
0.35299
0.411851
0.463048
0.497374
0.51453
0.522337
0.529084
0.537871
0.54647
0.551987
0.560269
0.55697
0.550331
0.54565
0.543908
0.636707
0.770159
0.725188
0.54932
0.37936
0.267644
0.175664
0.142892
0.194308
0.328049
0.252927
0.300166
0.365365
0.569189
1.0356
1.15892
1.1563
0.591647
0.518577
0.480001
0.619901
0.739702
0.503152
0.568874
0.638482
0.717865
0.852183
1.55582
3.16468
3.93184
3.73057
3.42494
2.94132
1.8663
0.713198
-0.17376
-0.29147
-0.244582
-0.145118
-0.15492
-0.146805
-0.270215
-0.328707
-0.332628
-0.283743
1.84496
2.71466
0.326589
0.325739
1.39833
2.91529
0.520315
0.371867
1.20761
1.29584
0.27962
0.330676
0.671341
0.6788
0.654133
0.653721
0.249792
0.242205
0.288109
0.333865
0.382107
0.428017
0.464602
0.488465
0.501247
0.507584
0.511546
0.514782
0.516828
0.521908
0.524179
0.518947
0.512406
0.5056
0.50197
0.506667
0.718411
0.976933
0.931016
0.330399
0.207503
0.10568
0.0976749
0.72242
0.856574
0.58377
0.282945
0.559691
1.13655
1.17778
1.1988
0.911889
0.503316
0.434588
0.390203
0.522162
0.522373
0.410104
0.465808
0.520673
0.57902
0.878732
3.97442
5.10326
5.12607
4.98137
4.68621
4.31882
3.99749
3.8143
1.27709
-0.602695
-0.55657
-0.450119
-0.353114
-0.30652
-0.291591
-0.27601
-0.239732
-0.183764
-0.11683
1.68852
0.329439
0.324691
0.221711
0.119376
0.110295
0.475445
1.29207
0.505158
0.276776
0.265674
0.25635
0.490412
0.613821
0.471693
0.238969
0.277912
0.326237
0.371351
0.411781
0.445122
0.468823
0.482959
0.48983
0.49235
0.492403
0.490709
0.487625
0.485389
0.481802
0.474641
0.46775
0.461401
0.457224
0.453344
0.475858
0.923334
0.909752
0.496606
0.16384
0.0639853
0.00863587
0.427593
0.823348
0.926731
0.675868
0.685564
1.16279
1.2274
1.21747
0.551878
0.47478
0.374458
0.378493
0.44059
0.382369
0.321409
0.362396
0.398896
0.412513
0.856875
3.62431
4.7612
4.82966
4.72749
4.46557
4.10122
3.75427
3.54467
3.52061
2.61859
-0.633074
-0.685575
-0.509337
-0.369543
-0.276104
-0.206123
-0.140107
-0.0793217
1.46815
2.7032
0.392723
0.377694
0.350363
0.310764
0.300454
1.25127
1.38216
0.380528
0.293605
0.280683
0.263487
0.244402
0.233914
0.244688
0.28019
0.323057
0.367268
0.407208
0.439146
0.46106
0.473176
0.477829
0.477831
0.475249
0.470913
0.464967
0.457835
0.450317
0.443128
0.436425
0.429752
0.421931
0.414018
0.403011
0.384285
0.43646
0.874752
0.81687
0.375709
0.0512074
-0.00290173
-0.018529
0.68882
0.918484
1.02967
0.702862
1.15124
1.27783
1.08857
0.573068
0.462222
0.358319
0.394443
0.378987
0.246442
0.238131
0.264612
0.279666
0.266648
0.252026
0.215813
0.599588
1.51732
3.57079
4.22963
3.93938
3.59434
3.37669
3.31537
3.43115
0.941643
-0.89207
-0.645896
-0.421431
-0.263422
-0.155186
-0.0749979
-0.0205675
3.86772
2.81677
1.88115
0.417047
0.421314
0.415003
0.892951
1.47704
1.12599
0.334361
0.304437
0.294104
0.283051
0.273177
0.270182
0.281832
0.311275
0.353227
0.397131
0.433773
0.458511
0.470439
0.472332
0.468351
0.461971
0.454785
0.446494
0.436654
0.425825
0.415306
0.405989
0.397881
0.390469
0.382214
0.372599
0.35937
0.337542
0.300632
0.655375
0.827696
0.807431
0.512979
0.162708
0.175921
0.843515
0.93062
1.04748
0.852693
0.500605
1.30423
0.772228
0.581423
0.456593
0.329006
0.356319
0.335565
0.188883
0.160389
0.17351
0.163506
0.137879
0.107025
0.062121
-0.0193619
-0.156113
-0.337577
1.85072
3.76527
3.55129
3.35333
3.2738
3.35617
3.60849
-0.279302
-0.75007
-0.456676
-0.249214
-0.116614
-0.0309882
0.0115086
4.04007
2.84979
2.81169
1.45361
0.825293
1.29349
1.63904
1.56271
0.325444
0.316516
0.307343
0.298894
0.290948
0.284522
0.282705
0.29224
0.320159
0.365259
0.413309
0.449865
0.469148
0.471935
0.464048
0.451857
0.439951
0.429293
0.41802
0.404954
0.390814
0.377692
0.366823
0.357907
0.350167
0.342196
0.332532
0.320217
0.300338
0.268719
0.229421
0.413308
0.8655
0.843249
0.855375
0.873813
0.896893
0.962641
1.06661
1.04685
0.440277
1.17322
0.769058
0.568095
0.549025
0.320148
0.329613
0.296048
0.173029
0.0903481
0.0909257
0.0617994
0.0149447
-0.0334905
-0.0848192
-0.160484
-0.283062
-0.474801
-0.734079
-0.138028
2.54508
3.44107
3.3752
3.4324
3.66735
-0.320758
-0.797376
-0.457882
-0.222755
-0.0798769
0.00656908
0.0374222
4.16771
0.282202
1.85173
2.59688
2.60884
2.6092
1.65015
0.316521
0.315186
0.311768
0.305602
0.298788
0.291845
0.285475
0.280697
0.284209
0.30939
0.361189
0.41869
0.458912
0.473847
0.466164
0.447132
0.426292
0.409594
0.400587
0.388602
0.366848
0.349673
0.334462
0.323149
0.314857
0.308125
0.301668
0.293761
0.283843
0.268827
0.246208
0.209932
0.163714
0.253234
0.427106
0.568343
0.784569
0.947323
0.907154
0.703591
0.471242
0.388211
0.526362
0.634759
0.812085
0.772523
0.340022
0.289584
0.264039
0.0534644
0.0761148
0.0921805
-0.0314626
-0.101503
-0.172412
-0.215079
-0.174961
-0.261047
-0.49675
-0.706557
-0.98516
-1.20334
1.11322
3.58701
3.65085
3.83739
2.90452
-0.64945
-0.40871
-0.17659
-0.0400791
0.044615
0.0777301
4.45297
0.285603
0.280063
0.464261
0.388197
0.297175
0.302266
0.308599
0.310195
0.307832
0.302771
0.296232
0.288568
0.279896
0.267289
0.255565
0.273181
0.376205
0.63589
0.889583
1.215
1.12762
0.912429
0.863946
1.17624
1.56882
1.22762
0.508134
0.295562
0.280371
0.271203
0.266304
0.263026
0.259992
0.255854
0.249856
0.240632
0.227367
0.206902
0.177814
0.143141
0.109059
0.0940003
0.120787
0.158052
0.175729
0.205874
0.268668
0.346101
0.401025
0.41536
0.727054
0.744041
0.390757
0.139814
0.0699203
0.00904393
0.0120886
0.0550316
-0.113042
-0.204419
-0.300449
-0.225196
-0.134865
-0.219633
-0.434887
-0.657436
-0.825792
-0.989049
-1.07759
-0.226186
3.84576
4.10928
1.95618
-0.634662
-0.317274
-0.112416
0.00340106
0.0824175
0.137249
4.80543
0.292019
0.28896
0.291279
0.295821
0.300163
0.304546
0.307675
0.307939
0.305382
0.300405
0.293152
0.283402
0.270281
0.244947
0.206166
0.322652
1.31941
1.92787
2.2979
2.34378
2.35065
2.33794
2.31853
2.30053
2.28782
2.28526
2.28929
0.68557
0.209604
0.205642
0.209143
0.213577
0.21667
0.218203
0.217672
0.214684
0.20931
0.200944
0.188533
0.172212
0.153977
0.136937
0.125553
0.125743
0.142282
0.177939
0.22907
0.28415
0.32421
0.331535
0.328616
0.50019
0.643357
0.176605
0.0316477
-0.0163471
-0.0334982
0.0100232
-0.171415
-0.283335
-0.399813
-0.257878
-0.254183
-0.309526
-0.365286
-0.620899
-0.473451
-0.0252974
-0.664752
-0.970558
-1.06286
-0.546549
-0.497534
-0.420651
-0.179543
-0.0280877
0.0525835
0.102119
1.51882
5.01664
0.295486
0.294325
0.297094
0.300168
0.303459
0.306164
0.307877
0.307568
0.304899
0.299748
0.291781
0.279375
0.261785
0.225723
0.157626
1.1246
1.83532
1.9655
2.09746
1.99468
2.07976
2.20403
2.2007
2.19569
2.18911
2.18764
2.19493
2.21685
0.474727
0.128078
0.141578
0.158716
0.171387
0.180455
0.186692
0.190087
0.191145
0.190533
0.188407
0.184555
0.178663
0.170506
0.160748
0.15201
0.148526
0.155368
0.176287
0.207869
0.238999
0.311486
0.268524
0.2425
0.624938
0.226916
0.0219625
-0.0359479
-0.059421
-0.0356715
-0.177877
-0.329571
-0.457602
-0.398501
-0.319898
-0.362951
-0.375925
-0.650229
-0.295566
0.424982
0.476252
0.0996943
-0.663428
-0.551933
-0.370354
-0.166637
-0.0140761
0.0803494
0.11735
0.15688
5.18758
5.17052
0.298926
0.298252
0.300935
0.303509
0.306608
0.308669
0.309888
0.309276
0.306727
0.301791
0.294347
0.280344
0.260165
0.21786
0.149428
1.43825
1.7901
1.47136
0.734081
0.208207
0.238581
0.436481
1.10345
2.07076
2.09787
2.09724
2.09766
2.1179
1.59439
0.100291
0.0645149
0.0987851
0.124495
0.142875
0.156511
0.166218
0.172792
0.177258
0.180366
0.182148
0.181816
0.178017
0.169395
0.178185
0.307059
0.321843
0.188589
0.133648
0.158458
0.188739
0.473328
0.289764
0.525135
0.374634
0.0203909
-0.0531682
-0.0876849
-0.0615935
-0.187074
-0.349969
-0.460054
-0.555748
-0.413572
-0.345051
-0.353957
-0.608914
-0.573202
-0.163337
0.828769
0.910983
0.936642
-0.042426
0.0479286
0.0514132
0.143308
0.193397
0.191602
2.22782
5.34274
2.10795
0.303253
0.302766
0.305381
0.307561
0.310072
0.311859
0.312937
0.312738
0.310886
0.306853
0.301009
0.289295
0.272179
0.237294
0.173276
0.309518
0.340245
0.057896
0.0119416
-0.0303283
-0.0658408
-0.0993274
-0.132525
-0.085587
1.41802
2.01243
2.01482
2.02648
2.07468
0.755062
-0.0156827
0.0370529
0.0774543
0.106334
0.127693
0.143327
0.154643
0.162897
0.169117
0.17273
0.173512
0.17156
0.27776
0.352937
0.327766
0.300425
0.234834
0.0826812
0.0975965
0.122329
1.45468
2.44917
1.95566
0.616022
0.102322
-0.0679038
-0.118822
-0.0795337
-0.205165
-0.342665
-0.39771
-0.506275
-0.575402
-0.499245
-0.446146
-0.523627
-0.461179
-0.380389
-0.292668
0.510032
2.15044
2.44347
2.60593
2.69357
2.71283
4.00268
4.245
4.20001
2.5109
0.116112
0.307429
0.307323
0.309403
0.311466
0.313679
0.315614
0.317101
0.317721
0.317171
0.315131
0.311618
0.304674
0.294132
0.273588
0.242577
0.157244
0.0881325
0.0326757
-0.0247251
-0.0766536
-0.122499
-0.14478
-0.190814
-0.196934
-0.149169
0.130598
1.06178
1.95745
1.95764
0.780137
-0.0973659
-0.0227266
0.0325975
0.072264
0.101214
0.122243
0.137565
0.148819
0.157162
0.161483
0.161355
0.24493
0.360475
0.341375
0.315771
0.21491
0.0807936
0.0542936
0.0605332
0.486822
2.4637
2.48609
2.48191
1.74275
0.315023
-0.0768671
-0.132884
-0.180807
-0.245498
-0.284585
-0.323269
-0.386384
-0.473804
-0.490403
-0.477814
-0.436324
-0.370477
-0.28709
-0.196701
-0.11174
-0.0275732
0.0669785
0.23136
1.45724
2.29716
2.03977
1.72664
1.11034
0.0962719
0.130854
0.310848
0.311272
0.312844
0.315002
0.317282
0.319643
0.32185
0.323602
0.324728
0.325024
0.324367
0.322413
0.318033
0.304384
0.746428
0.413256
0.0866086
0.01086
-0.0625885
-0.130081
-0.0113975
0.545706
0.537105
0.243573
-0.180777
-0.219465
-0.220975
0.130818
0.689641
0.326033
-0.14248
-0.0732662
-0.00589241
0.0428531
0.0822897
0.106849
0.122577
0.136296
0.146232
0.151457
0.150917
0.179608
0.267996
0.225272
0.214453
0.133609
0.0597288
0.049702
0.0373193
1.5845
2.4976
2.50323
2.49523
2.45779
0.672869
-0.0856913
-0.143651
-0.156076
-0.256048
-0.304117
-0.306547
-0.332904
-0.391565
-0.418167
-0.400569
-0.363392
-0.270681
-0.180985
-0.12602
-0.0485577
0.114708
0.0927531
0.118296
0.145959
0.163478
0.162763
0.14842
0.128177
0.112989
0.11092
0.313258
0.314102
0.315576
0.317886
0.320485
0.323464
0.326565
0.329629
0.332532
0.335103
0.337392
0.337771
0.338517
0.762844
1.25417
0.738753
0.0913747
-0.00679429
-0.0992585
-0.170482
0.438427
0.786818
0.796906
0.86517
0.872789
0.897255
0.918923
-0.279823
-0.373972
-0.229167
-0.174897
-0.109186
-0.034815
0.0252535
0.0872589
0.119085
0.115396
0.126409
0.138204
0.145179
0.146113
0.139376
0.123501
0.102731
0.108961
0.457542
0.418024
0.0606172
0.00612944
0.573099
2.50637
2.50845
2.48562
2.46922
0.647601
-0.0959075
-0.153128
-0.102093
-0.229175
-0.310813
-0.341748
-0.335453
-0.339226
-0.3707
-0.368268
-0.322817
-0.21064
-0.0872951
-0.0115118
0.0541248
0.189598
0.246463
0.246911
0.137225
0.155003
0.156715
0.147617
0.134995
0.124923
0.121263
0.31468
0.315564
0.317314
0.31979
0.322887
0.326566
0.33066
0.335106
0.339737
0.344584
0.34948
0.350644
0.408242
1.38089
1.28146
0.433375
0.108158
0.0614918
-0.119632
-0.0283482
-0.0880225
-0.443727
-0.572389
-0.506367
0.708879
0.860252
0.908187
0.393334
-0.413126
-0.332763
-0.218759
-0.129918
-0.0529607
0.0135182
0.0781728
0.109824
0.132703
0.124984
0.133317
0.142632
0.145772
0.139519
0.12042
0.132876
0.466846
0.450268
0.418339
0.1569
-0.0464348
-0.062958
2.17201
2.50203
2.4746
2.2536
0.230969
-0.0972744
-0.151774
-0.077366
-0.130273
-0.278272
-0.359674
-0.38828
-0.350203
-0.331644
-0.312309
-0.299181
-0.23652
-0.101423
0.021905
0.0848054
0.120459
0.226828
0.135464
0.130214
0.14659
0.150297
0.145724
0.138168
0.132426
0.129852
0.314707
0.315738
0.317749
0.320502
0.324163
0.32854
0.333623
0.339354
0.345528
0.352362
0.359593
0.367004
1.19735
1.40805
1.16442
0.237723
0.133001
0.283993
-0.0328673
-0.257482
-0.377355
-0.49519
-0.58973
-0.642399
-0.232191
0.860049
0.911551
0.982851
-0.284473
-0.339905
-0.234877
-0.138125
-0.0604296
-0.000856416
0.0713123
0.104783
0.128436
0.129211
0.130716
0.142013
0.147139
0.140686
0.122471
0.398115
0.436017
0.204791
0.0669737
-0.0402606
-0.0849783
-0.0945984
0.844622
2.36879
2.007
0.425447
-0.0521814
-0.0709034
-0.122223
-0.04761
-0.0923432
-0.149575
-0.258127
-0.376655
-0.387568
-0.333663
-0.289055
-0.254576
-0.209278
-0.133393
-0.00703651
0.10883
0.107421
0.0795102
0.0968283
0.119749
0.142345
0.145603
0.143657
0.139544
0.136216
0.135123
0.313332
0.314571
0.316732
0.319851
0.323985
0.328971
0.334897
0.341637
0.34893
0.357145
0.368072
0.732702
1.4969
1.42874
0.29939
0.25445
0.390231
0.298248
-0.0139954
-0.246244
-0.362315
-0.476059
-0.569202
-0.615343
0.113257
0.891704
0.939848
1.01255
0.917562
-0.299183
-0.222327
-0.134353
-0.0577621
-0.000704036
0.0549061
0.104131
0.126693
0.122844
0.129157
0.141844
0.148804
0.143027
0.22184
0.451997
0.0847871
-0.0136725
-0.0532739
-0.0754932
-0.0819103
-0.0907277
-0.099861
0.149802
0.05936
-0.0127713
0.0101565
-0.0101616
-0.0650345
-0.125815
-0.0429646
-0.089881
-0.139225
-0.175629
-0.329239
-0.347526
-0.282909
-0.211169
-0.133243
-0.0961314
-0.0413735
0.0633974
0.176906
0.208819
0.149855
0.1176
0.136706
0.142375
0.142046
0.140122
0.137791