/*--------------------------------*- C++ -*----------------------------------*\
| =========                 |                                                 |
| \\      /  F ield         | OpenFOAM: The Open Source CFD Toolbox           |
|  \\    /   O peration     | Version:  2412                                  |
|   \\  /    A nd           | Website:  www.openfoam.com                      |
|    \\/     M anipulation  |                                                 |
\*---------------------------------------------------------------------------*/
FoamFile
{
    version     2.0;
    format      ascii;
    arch        "LSB;label=32;scalar=64";
    class       volScalarField;
    location    "4.15";
    object      p;
}
// * * * * * * * * * * * * * * * * * * * * * * * * * * * * * * * * * * * * * //

dimensions      [1 -1 -2 0 0 0 0];

internalField   nonuniform List<scalar> 
6400
(
7053.08
7053.83
7055.3
7057.44
7060.18
7063.44
7067.11
7071.08
7075.23
7079.44
7083.59
7087.56
7091.25
7094.58
7097.47
7099.87
7101.75
7103.11
7103.96
7104.31
7104.23
7103.75
7102.95
7101.89
7100.65
7099.29
7097.88
7096.47
7095.11
7093.83
7092.68
7091.65
7090.77
7090.03
7089.43
7088.96
7088.61
7088.37
7088.23
7088.17
7088.2
7088.3
7088.48
7088.75
7089.11
7089.56
7090.13
7090.82
7091.62
7092.55
7093.59
7094.73
7095.95
7097.22
7098.49
7099.72
7100.85
7101.81
7102.54
7102.98
7103.06
7102.74
7101.97
7100.71
7098.97
7096.73
7094.04
7090.94
7087.49
7083.77
7079.88
7075.93
7072.02
7068.28
7064.82
7061.74
7059.16
7057.14
7055.75
7055.05
6689.36
6690.14
6691.65
6693.87
6696.7
6700.06
6703.85
6707.95
6712.22
6716.56
6720.82
6724.89
6728.67
6732.07
6735.01
6737.44
6739.34
6740.69
6741.5
6741.81
6741.66
6741.12
6740.24
6739.11
6737.8
6736.37
6734.9
6733.44
6732.03
6730.72
6729.54
6728.49
6727.6
6726.86
6726.26
6725.79
6725.45
6725.22
6725.08
6725.03
6725.06
6725.16
6725.34
6725.61
6725.96
6726.42
6726.98
6727.67
6728.49
6729.43
6730.49
6731.67
6732.92
6734.24
6735.56
6736.85
6738.05
6739.08
6739.88
6740.38
6740.52
6740.24
6739.5
6738.26
6736.51
6734.25
6731.51
6728.35
6724.81
6720.99
6717
6712.92
6708.9
6705.04
6701.47
6698.3
6695.62
6693.53
6692.11
6691.37
6324.87
6325.7
6327.32
6329.68
6332.69
6336.27
6340.29
6344.63
6349.16
6353.73
6358.23
6362.51
6366.47
6370.01
6373.05
6375.54
6377.46
6378.78
6379.54
6379.76
6379.5
6378.83
6377.81
6376.54
6375.08
6373.52
6371.92
6370.35
6368.86
6367.48
6366.25
6365.17
6364.26
6363.52
6362.92
6362.47
6362.14
6361.93
6361.8
6361.76
6361.79
6361.9
6362.08
6362.33
6362.68
6363.13
6363.69
6364.38
6365.21
6366.18
6367.28
6368.51
6369.85
6371.25
6372.69
6374.1
6375.43
6376.59
6377.53
6378.15
6378.4
6378.21
6377.53
6376.31
6374.55
6372.24
6369.41
6366.11
6362.41
6358.39
6354.18
6349.88
6345.61
6341.52
6337.73
6334.35
6331.5
6329.28
6327.75
6326.97
5959.54
5960.46
5962.24
5964.82
5968.12
5972.02
5976.4
5981.13
5986.04
5990.99
5995.84
6000.44
6004.67
6008.43
6011.63
6014.21
6016.15
6017.44
6018.11
6018.19
6017.75
6016.87
6015.63
6014.13
6012.46
6010.7
6008.92
6007.19
6005.57
6004.1
6002.8
6001.68
6000.75
6000.01
5999.43
5999
5998.71
5998.52
5998.42
5998.39
5998.44
5998.54
5998.71
5998.95
5999.28
5999.71
6000.26
6000.95
6001.79
6002.78
6003.94
6005.25
6006.7
6008.24
6009.84
6011.44
6012.96
6014.33
6015.47
6016.3
6016.72
6016.66
6016.07
6014.9
6013.12
6010.73
6007.76
6004.26
6000.3
5995.99
5991.44
5986.78
5982.16
5977.7
5973.56
5969.87
5966.76
5964.32
5962.64
5961.77
5593.3
5594.35
5596.34
5599.24
5602.94
5607.29
5612.18
5617.43
5622.87
5628.35
5633.69
5638.73
5643.34
5647.4
5650.81
5653.51
5655.48
5656.71
5657.24
5657.12
5656.43
5655.26
5653.72
5651.9
5649.93
5647.88
5645.86
5643.92
5642.14
5640.54
5639.15
5637.99
5637.05
5636.31
5635.77
5635.38
5635.13
5634.99
5634.93
5634.93
5634.99
5635.09
5635.25
5635.46
5635.76
5636.15
5636.68
5637.35
5638.19
5639.22
5640.45
5641.86
5643.45
5645.17
5646.99
5648.84
5650.64
5652.3
5653.73
5654.83
5655.5
5655.64
5655.19
5654.08
5652.28
5649.79
5646.63
5642.85
5638.55
5633.82
5628.81
5623.66
5618.52
5613.56
5608.95
5604.83
5601.33
5598.59
5596.7
5595.72
5226.04
5227.25
5229.54
5232.86
5237.07
5242.03
5247.58
5253.52
5259.67
5265.84
5271.82
5277.44
5282.55
5286.99
5290.67
5293.53
5295.53
5296.67
5297.01
5296.61
5295.57
5294.01
5292.06
5289.83
5287.46
5285.05
5282.7
5280.5
5278.5
5276.75
5275.27
5274.06
5273.12
5272.42
5271.92
5271.61
5271.43
5271.35
5271.35
5271.39
5271.46
5271.56
5271.69
5271.86
5272.11
5272.45
5272.92
5273.56
5274.4
5275.45
5276.75
5278.29
5280.05
5282.01
5284.11
5286.28
5288.45
5290.5
5292.32
5293.78
5294.78
5295.2
5294.94
5293.93
5292.12
5289.5
5286.09
5281.96
5277.2
5271.93
5266.31
5260.5
5254.7
5249.08
5243.83
5239.14
5235.15
5232
5229.82
5228.69
4857.6
4859.01
4861.7
4865.57
4870.45
4876.17
4882.56
4889.4
4896.45
4903.49
4910.3
4916.67
4922.39
4927.33
4931.35
4934.39
4936.4
4937.42
4937.49
4936.72
4935.23
4933.15
4930.66
4927.89
4925.01
4922.14
4919.39
4916.86
4914.61
4912.69
4911.1
4909.85
4908.93
4908.28
4907.88
4907.66
4907.59
4907.61
4907.68
4907.78
4907.87
4907.96
4908.05
4908.16
4908.33
4908.59
4908.98
4909.56
4910.36
4911.43
4912.8
4914.47
4916.44
4918.68
4921.14
4923.73
4926.36
4928.91
4931.24
4933.2
4934.64
4935.43
4935.43
4934.56
4932.76
4929.99
4926.27
4921.69
4916.35
4910.38
4903.98
4897.34
4890.68
4884.21
4878.16
4872.73
4868.1
4864.43
4861.88
4860.54
4487.78
4489.45
4492.65
4497.22
4502.95
4509.63
4517.08
4525.03
4533.22
4541.37
4549.21
4556.51
4563.02
4568.56
4572.99
4576.24
4578.26
4579.09
4578.8
4577.53
4575.44
4572.7
4569.51
4566.06
4562.54
4559.09
4555.85
4552.93
4550.38
4548.26
4546.57
4545.31
4544.42
4543.88
4543.61
4543.55
4543.62
4543.78
4543.96
4544.12
4544.25
4544.32
4544.36
4544.38
4544.43
4544.55
4544.82
4545.3
4546.04
4547.1
4548.53
4550.35
4552.56
4555.13
4558.02
4561.13
4564.35
4567.53
4570.51
4573.1
4575.13
4576.41
4576.78
4576.12
4574.33
4571.39
4567.31
4562.17
4556.09
4549.26
4541.88
4534.19
4526.45
4518.91
4511.84
4505.49
4500.05
4495.71
4492.67
4491.09
4116.31
4118.29
4122.17
4127.63
4134.42
4142.3
4151.06
4160.4
4169.99
4179.52
4188.66
4197.1
4204.58
4210.87
4215.8
4219.28
4221.28
4221.84
4221.07
4219.15
4216.27
4212.67
4208.6
4204.29
4199.97
4195.81
4191.98
4188.59
4185.71
4183.38
4181.6
4180.34
4179.56
4179.17
4179.1
4179.25
4179.54
4179.88
4180.21
4180.47
4180.63
4180.68
4180.63
4180.52
4180.41
4180.35
4180.43
4180.74
4181.36
4182.38
4183.84
4185.81
4188.28
4191.25
4194.66
4198.4
4202.35
4206.33
4210.14
4213.56
4216.35
4218.27
4219.14
4218.76
4217.04
4213.9
4209.38
4203.55
4196.58
4188.66
4180.06
4171.06
4161.98
4153.12
4144.78
4137.29
4130.84
4125.64
4121.95
4120.07
3742.81
3745.18
3749.94
3756.56
3764.65
3774.02
3784.41
3795.46
3806.8
3818.03
3828.76
3838.63
3847.3
3854.52
3860.01
3863.77
3865.71
3865.89
3864.47
3861.67
3857.78
3853.08
3847.89
3842.51
3837.2
3832.18
3827.64
3823.71
3820.45
3817.91
3816.07
3814.88
3814.26
3814.11
3814.32
3814.78
3815.35
3815.95
3816.47
3816.86
3817.07
3817.08
3816.92
3816.63
3816.28
3815.96
3815.78
3815.84
3816.27
3817.17
3818.63
3820.73
3823.49
3826.91
3830.93
3835.44
3840.29
3845.27
3850.14
3854.61
3858.39
3861.17
3862.69
3862.73
3861.12
3857.78
3852.73
3846.06
3837.97
3828.72
3818.61
3808
3797.25
3786.74
3776.84
3767.92
3760.21
3753.91
3749.37
3747.13
3366.78
3369.71
3375.56
3383.65
3393.33
3404.57
3416.96
3430.16
3443.66
3457
3469.69
3481.3
3491.44
3499.76
3506
3510.04
3511.83
3511.48
3509.19
3505.26
3500.04
3493.93
3487.33
3480.61
3474.09
3468.04
3462.66
3458.11
3454.45
3451.71
3449.85
3448.8
3448.44
3448.65
3449.26
3450.13
3451.09
3452.03
3452.82
3453.37
3453.64
3453.6
3453.28
3452.74
3452.08
3451.39
3450.83
3450.53
3450.66
3451.36
3452.75
3454.95
3458.01
3461.93
3466.67
3472.11
3478.06
3484.3
3490.5
3496.32
3501.38
3505.29
3507.69
3508.29
3506.87
3503.33
3497.65
3489.95
3480.5
3469.6
3457.63
3445.02
3432.2
3419.65
3407.86
3397.07
3387.84
3380.13
3374.53
3371.76
2987.95
2991.65
2998.7
3008.22
3019.73
3033.38
3048.47
3064.42
3080.62
3096.54
3111.65
3125.41
3137.35
3147.03
3154.14
3158.48
3160.05
3158.96
3155.5
3150.06
3143.13
3135.22
3126.84
3118.45
3110.45
3103.16
3096.81
3091.55
3087.47
3084.56
3082.77
3081.97
3082.02
3082.73
3083.89
3085.32
3086.81
3088.19
3089.33
3090.1
3090.44
3090.33
3089.8
3088.93
3087.83
3086.65
3085.56
3084.75
3084.43
3084.79
3086.02
3088.27
3091.61
3096.09
3101.66
3108.2
3115.51
3123.29
3131.18
3138.73
3145.46
3150.86
3154.44
3155.81
3154.69
3150.98
3144.52
3135.57
3124.43
3111.49
3097.24
3082.16
3066.78
3051.6
3037.16
3024.04
3013.07
3003.99
2997.2
2993.69
2607.4
2610.54
2616.54
2626.52
2641.32
2659.24
2678.53
2698.16
2717.73
2736.83
2754.89
2771.31
2785.46
2796.81
2804.97
2809.62
2810.84
2808.73
2803.69
2796.27
2787.11
2776.89
2766.27
2755.82
2746.03
2737.25
2729.77
2723.75
2719.24
2716.23
2714.61
2714.23
2714.87
2716.28
2718.2
2720.37
2722.55
2724.52
2726.1
2727.15
2727.59
2727.39
2726.58
2725.28
2723.61
2721.76
2719.95
2718.42
2717.45
2717.3
2718.22
2720.41
2724.01
2729.09
2735.61
2743.46
2752.41
2762.11
2772.12
2781.89
2790.79
2798.15
2803.34
2805.76
2805
2801.3
2793.84
2783.32
2770.09
2754.66
2737.59
2719.5
2700.91
2682.22
2663.73
2646.46
2632.16
2622.61
2616.94
2613.97
2224.1
2224.42
2225.03
2235.11
2255.55
2281.31
2306.9
2331.38
2355.13
2378.09
2399.76
2419.42
2436.3
2449.72
2459.13
2464.18
2464.85
2461.33
2454.15
2444.09
2432.03
2418.85
2405.41
2392.42
2380.45
2369.94
2361.16
2354.31
2349.41
2346.4
2345.13
2345.38
2346.85
2349.23
2352.17
2355.33
2358.41
2361.14
2363.29
2364.7
2365.25
2364.93
2363.77
2361.9
2359.48
2356.75
2353.97
2351.46
2349.57
2348.66
2349.05
2351.04
2354.83
2360.52
2368.13
2377.51
2388.44
2400.52
2413.21
2425.82
2437.56
2447.53
2454.88
2458.81
2458.8
2454.64
2446.15
2433.74
2417.93
2399.4
2378.91
2357.14
2334.59
2311.27
2286.67
2261.63
2241.68
2232.12
2231.91
2231.67
1835.78
1832.9
1829.57
1841.05
1868.49
1902.38
1934.46
1964.38
1993.02
2020.55
2046.56
2070.24
2090.52
2106.5
2117.46
2122.95
2122.88
2117.41
2107.33
2093.78
2077.91
2060.94
2043.95
2027.84
2013.28
2000.72
1990.47
1982.76
1977.54
1974.7
1974.01
1975.19
1977.84
1981.53
1985.81
1990.27
1994.52
1998.22
2001.11
2002.97
2003.68
2003.19
2001.58
1998.98
1995.59
1991.69
1987.62
1983.78
1980.62
1978.61
1978.19
1979.76
1983.6
1989.9
1998.7
2009.88
2023.17
2038.17
2054.22
2070.49
2085.94
2099.39
2109.7
2115.69
2116.57
2112.1
2102.26
2087.45
2068.39
2046.04
2021.41
1995.26
1968.05
1939.6
1908.79
1875.74
1848.78
1838.02
1841.87
1844.58
1442.96
1441.02
1441.33
1456.58
1487.55
1525.39
1562.72
1598.02
1631.88
1664.58
1695.73
1724.38
1748.9
1768.09
1780.97
1786.99
1785.92
1777.98
1763.78
1745.57
1724.73
1702.9
1681.48
1661.57
1643.93
1629.03
1617.06
1608.6
1603.22
1600.78
1601
1603.49
1607.74
1613.18
1619.23
1625.37
1631.11
1636.05
1639.86
1642.29
1643.19
1642.51
1640.31
1636.77
1632.13
1626.72
1620.97
1615.38
1610.5
1606.95
1605.34
1606.17
1609.85
1616.61
1626.74
1639.93
1656.03
1674.59
1694.86
1715.81
1736.12
1754.19
1768.7
1777.34
1779.44
1774.69
1763.15
1745.29
1722.1
1694.98
1665.46
1634.27
1602.18
1568.51
1532.69
1496
1465.89
1451.39
1451.5
1452.99
1043.95
1048.56
1055.97
1075.85
1109.63
1150.36
1191.66
1232.07
1271.23
1309.4
1346.54
1381.84
1411.8
1435.22
1450.64
1457.51
1455.28
1444.23
1424.01
1399.81
1372.42
1344.34
1317.43
1292.92
1271.69
1254.25
1240.56
1231.47
1226.09
1224.29
1225.8
1230.09
1236.47
1244.21
1252.55
1260.83
1268.47
1274.97
1279.94
1283.08
1284.22
1283.29
1280.36
1275.62
1269.39
1262.06
1254.15
1246.26
1239.09
1233.43
1230.12
1229.87
1233.15
1240.17
1251.6
1266.94
1286.32
1309.22
1334.72
1361.67
1388.37
1412.4
1433.01
1445
1448.58
1443.36
1429.61
1407.62
1378.79
1345.35
1310.25
1273.45
1236.57
1198.13
1158.65
1119.58
1087.09
1068.14
1060.42
1054.47
635.104
647.999
661.242
686.941
726.544
772.226
819.037
865.982
912.295
957.742
1001.48
1045.51
1081.62
1110.42
1128.75
1136.85
1132.99
1116.6
1089.91
1056.65
1020.3
984.106
950.297
920.089
894.616
874.955
860.489
851.052
845.347
844.21
847.386
854.113
863.399
874.204
885.555
896.622
906.711
915.224
921.676
925.713
927.141
925.886
922.005
915.721
907.426
897.63
886.92
875.994
865.707
857.128
851.494
849.909
852.912
859.932
871.632
888.743
912.072
940.426
972.537
1007.29
1042.78
1075.81
1102.97
1120.54
1126.25
1120.4
1104.28
1077.07
1040.84
999.831
958.139
914.891
871.015
826.378
781.731
738.246
700.894
677.612
663.015
648.181
198.334
213.544
247.506
291.049
340.525
393.172
445.334
495.354
547.813
601.039
653.329
703.339
754.16
796.254
818.321
829.826
824.025
800.454
762.793
716.866
668.705
622.597
580.811
543.648
512.696
491.667
477.272
463.15
456.198
456.509
462.796
473.606
487.393
502.706
518.325
533.249
546.644
557.814
566.192
571.387
573.178
571.481
566.361
558.06
547.021
533.833
519.167
503.826
488.842
475.612
465.959
461.838
464.801
475.227
486.832
504.864
533.584
569.009
609.074
653.408
700.439
745.69
783.634
808.648
817.105
809.136
790.531
750.069
702.84
652.615
601.327
550.118
499.98
452.177
403.474
354.078
307.508
267.189
237.567
223.036
9.96574
16.8096
26.9011
41.5531
63.507
92.4708
125.968
162.761
206.894
258.889
315.455
377.791
440.89
485.296
519.728
543.59
535.936
498.496
440.023
372.041
307.259
254.708
211.779
176.085
148.406
130.189
118.771
114.079
114.303
119.213
127.769
139.168
152.522
166.979
181.767
196.143
209.36
220.631
229.221
234.605
236.436
234.575
229.158
220.523
209.267
196.104
181.746
166.882
152.226
138.661
127.273
119.215
115.546
117.572
125.729
141.97
167.619
201.546
242.417
291.973
353.186
419.001
477.009
516.297
528.099
509.423
481.713
437.629
374.418
311.378
256.043
207.605
165.314
129.184
97.7896
69.8618
48.1778
34.1417
24.1817
16.4758
-7.31543
-7.29908
-7.42517
-7.56726
-7.66
-7.95815
-6.01435
3.1672
16.8943
37.1092
68.4216
114.01
169.641
228.345
285.47
303.028
283.223
229.361
157.829
91.9418
50.0405
28.5941
13.969
3.72493
-2.40703
-5.70532
-7.51189
-8.29001
-8.1747
-7.24394
-5.5013
-2.91708
0.540596
4.84171
9.86797
15.3257
20.8096
25.823
29.8407
32.4531
33.3558
32.4079
29.7518
25.6738
20.6508
15.1847
9.71976
4.65705
0.304722
-3.15424
-5.62151
-7.1158
-7.7137
-7.39854
-6.12787
-3.37391
1.79635
10.897
24.5322
44.1728
80.2479
139.227
205.613
259.756
284.781
276.68
221.919
166.711
110.092
65.8583
36.3218
16.4954
3.03926
-6.23796
-8.21585
-7.82451
-7.67247
-7.5272
-7.38738
-7.36361
-8.03093
-8.03861
-8.17359
-8.39054
-8.64267
-9.04852
-9.34767
-9.07893
-8.98376
-9.14644
-9.05522
-5.62579
7.38728
35.1778
78.9705
102.018
91.1849
52.2301
11.8517
-6.14548
-9.57042
-9.66048
-9.60876
-9.56366
-9.50754
-9.6193
-9.83835
-9.97841
-9.95847
-9.87463
-9.8146
-9.80965
-9.81747
-9.83325
-9.85267
-9.87646
-9.904
-9.93094
-9.95153
-9.96085
-9.95682
-9.94075
-9.91432
-9.87871
-9.83862
-9.79624
-9.75388
-9.71448
-9.67789
-9.64488
-9.62438
-9.63797
-9.68526
-9.7157
-9.63432
-9.51324
-9.56008
-9.69847
-9.87276
-10.1397
-7.93603
4.81127
36.6525
74.2633
90.7692
76.0986
35.2747
6.26675
-7.79818
-9.98885
-9.74821
-9.5048
-9.53442
-9.72747
-9.28658
-8.80496
-8.48637
-8.25239
-8.1231
-8.08251
-8.76063
-8.81056
-8.99391
-9.23631
-9.46511
-9.66045
-9.8239
-9.82791
-9.72686
-9.74424
-9.80415
-9.78596
-9.64711
-9.59777
-9.54146
-7.51521
-7.66793
-9.57572
-10.0766
-10.0548
-10.1837
-10.2557
-10.2589
-10.2473
-10.2536
-10.3408
-10.4831
-10.5478
-10.4759
-10.3779
-10.326
-10.3171
-10.3239
-10.3334
-10.3428
-10.3552
-10.3709
-10.3862
-10.3969
-10.4003
-10.395
-10.3816
-10.3609
-10.3348
-10.3052
-10.2746
-10.2452
-10.2187
-10.1935
-10.1691
-10.1535
-10.1617
-10.2062
-10.2643
-10.2535
-10.2023
-10.2322
-10.3151
-10.4241
-10.5501
-10.5142
-10.6059
-10.566
-10.1438
-9.66295
-10.6038
-10.5555
-10.5737
-10.7217
-10.6515
-10.4215
-10.3213
-10.3543
-10.2536
-9.93154
-9.57754
-9.23603
-8.99038
-8.84184
-8.78521
-9.49176
-9.61591
-9.86308
-10.1053
-10.2872
-10.3818
-10.4462
-10.4519
-10.3753
-10.2501
-10.1282
-10.1142
-10.1392
-10.1613
-10.2491
-10.3979
-10.4393
-10.4319
-10.5539
-10.639
-10.7067
-10.7975
-10.8639
-10.9069
-10.9312
-10.9456
-10.9653
-10.9628
-10.916
-10.8598
-10.8258
-10.8178
-10.8227
-10.8301
-10.8386
-10.8493
-10.8616
-10.8724
-10.8786
-10.8781
-10.8699
-10.8551
-10.8356
-10.8139
-10.7913
-10.7685
-10.7458
-10.7242
-10.7026
-10.6811
-10.6674
-10.6696
-10.6866
-10.7084
-10.726
-10.7625
-10.842
-10.936
-11.0059
-11.0321
-11.0648
-11.1012
-11.1206
-11.1698
-11.2252
-11.1315
-11.0808
-11.084
-11.0237
-10.9433
-10.9443
-11.0063
-11.0305
-10.9208
-10.6819
-10.344
-9.96482
-9.70893
-9.56831
-9.4881
-10.1919
-10.3475
-10.5952
-10.8056
-10.9546
-11.0288
-11.0455
-11.0284
-10.9323
-10.7236
-10.5108
-10.4606
-10.4891
-10.5226
-10.6044
-10.7532
-10.7984
-10.8521
-10.9773
-11.1204
-11.2445
-11.347
-11.4259
-11.4804
-11.5032
-11.4939
-11.4692
-11.4419
-11.4002
-11.356
-11.3305
-11.3242
-11.3255
-11.3287
-11.3352
-11.3439
-11.3537
-11.3616
-11.3648
-11.3619
-11.3522
-11.337
-11.3186
-11.3011
-11.2836
-11.265
-11.2458
-11.227
-11.2084
-11.1894
-11.1755
-11.17
-11.1756
-11.1803
-11.189
-11.2369
-11.334
-11.4336
-11.4989
-11.5288
-11.5413
-11.5414
-11.5375
-11.5699
-11.5766
-11.5151
-11.477
-11.4495
-11.3804
-11.3325
-11.409
-11.5591
-11.6091
-11.5373
-11.3691
-11.0749
-10.67
-10.3736
-10.2492
-10.1756
-10.8042
-10.9412
-11.1319
-11.3032
-11.4311
-11.5072
-11.5332
-11.5163
-11.4174
-11.2438
-11.0815
-10.9965
-10.9516
-10.9368
-10.971
-11.0539
-11.1461
-11.2771
-11.4546
-11.6387
-11.8019
-11.937
-12.0379
-12.0965
-12.1076
-12.0865
-12.0406
-11.9798
-11.9215
-11.8811
-11.8611
-11.8525
-11.8478
-11.8466
-11.8476
-11.8518
-11.8571
-11.8607
-11.8609
-11.8562
-11.846
-11.8311
-11.8149
-11.801
-11.7878
-11.7727
-11.7558
-11.7384
-11.7216
-11.7064
-11.6912
-11.6799
-11.6745
-11.6745
-11.6816
-11.7145
-11.7886
-11.878
-11.9531
-11.9987
-12.0153
-12.009
-12.0002
-11.9995
-11.9842
-11.9517
-11.9331
-11.9211
-11.8876
-11.8794
-11.9465
-12.0805
-12.1623
-12.1171
-11.9691
-11.6997
-11.33
-11.0283
-10.8805
-10.8172
-11.3497
-11.4448
-11.5772
-11.7204
-11.8532
-11.9513
-12.0115
-12.02
-11.9544
-11.8231
-11.6792
-11.5549
-11.4588
-11.4012
-11.4038
-11.4701
-11.5883
-11.7573
-11.9586
-12.1632
-12.3525
-12.515
-12.6298
-12.6918
-12.7052
-12.6735
-12.6109
-12.536
-12.4726
-12.4298
-12.4024
-12.3843
-12.3729
-12.367
-12.3651
-12.3659
-12.3673
-12.3676
-12.3655
-12.3598
-12.35
-12.3363
-12.3223
-12.3102
-12.2984
-12.2843
-12.2684
-12.2515
-12.2344
-12.2177
-12.2021
-12.1888
-12.1781
-12.1719
-12.1752
-12.198
-12.2496
-12.3251
-12.4084
-12.4777
-12.5053
-12.497
-12.4848
-12.4719
-12.4516
-12.4244
-12.4049
-12.3992
-12.4007
-12.4219
-12.4899
-12.5706
-12.6203
-12.5765
-12.4248
-12.1791
-11.8795
-11.6257
-11.4786
-11.4163
-11.9029
-11.9749
-12.0747
-12.2096
-12.3485
-12.4703
-12.5507
-12.5766
-12.5462
-12.4672
-12.3567
-12.2145
-12.0605
-11.9466
-11.9187
-11.9859
-12.122
-12.2984
-12.5059
-12.7147
-12.9158
-13.0936
-13.2119
-13.267
-13.2727
-13.2369
-13.1726
-13.0995
-13.0356
-12.9872
-12.9524
-12.928
-12.911
-12.8997
-12.8926
-12.8883
-12.8852
-12.8818
-12.8771
-12.8702
-12.861
-12.8493
-12.8373
-12.8266
-12.8154
-12.802
-12.7868
-12.7704
-12.7531
-12.7349
-12.7159
-12.6973
-12.6802
-12.666
-12.6591
-12.6678
-12.7011
-12.7625
-12.8468
-12.9373
-12.9855
-12.9865
-12.9703
-12.9543
-12.9329
-12.9093
-12.8906
-12.8864
-12.9005
-12.9393
-12.9952
-13.0353
-13.0368
-12.9716
-12.8199
-12.5993
-12.3627
-12.163
-12.0413
-11.9869
-12.4808
-12.5537
-12.6807
-12.8143
-12.964
-13.1075
-13.2279
-13.2955
-13.2984
-13.2577
-13.1515
-12.9764
-12.7532
-12.5682
-12.498
-12.5739
-12.7339
-12.9103
-13.1243
-13.3173
-13.5015
-13.6693
-13.7824
-13.8297
-13.8254
-13.7878
-13.7288
-13.6613
-13.5986
-13.5476
-13.5081
-13.4777
-13.4544
-13.4371
-13.4246
-13.4155
-13.4082
-13.4015
-13.3944
-13.3864
-13.3776
-13.3676
-13.3571
-13.3475
-13.3366
-13.3234
-13.3085
-13.292
-13.2739
-13.2539
-13.2319
-13.2076
-13.1821
-13.157
-13.1354
-13.1239
-13.1335
-13.1739
-13.2484
-13.3465
-13.4164
-13.4479
-13.4472
-13.4411
-13.4297
-13.4155
-13.4061
-13.4134
-13.4406
-13.4791
-13.5099
-13.5246
-13.4981
-13.4128
-13.2518
-13.043
-12.8366
-12.6775
-12.5778
-12.5332
-13.0715
-13.1612
-13.3349
-13.5165
-13.6993
-13.8976
-14.1063
-14.2657
-14.3711
-14.3821
-14.2437
-13.9891
-13.6768
-13.3803
-13.208
-13.2266
-13.3996
-13.5905
-13.7905
-13.9624
-14.1104
-14.2293
-14.3213
-14.3683
-14.3652
-14.3314
-14.2797
-14.2184
-14.1582
-14.1057
-14.0622
-14.0264
-13.9978
-13.9756
-13.9587
-13.9455
-13.9348
-13.9254
-13.9164
-13.9075
-13.8988
-13.8898
-13.8805
-13.8714
-13.8606
-13.8476
-13.833
-13.8164
-13.7975
-13.7756
-13.7502
-13.7206
-13.6865
-13.649
-13.6102
-13.5755
-13.5572
-13.5685
-13.6193
-13.7014
-13.8049
-13.88
-13.9188
-13.9368
-13.9472
-13.9564
-13.9727
-14.0013
-14.0425
-14.0872
-14.1173
-14.1051
-14.04
-13.9154
-13.7348
-13.525
-13.3323
-13.1917
-13.1051
-13.0652
-13.6868
-13.7973
-14.0038
-14.2531
-14.5242
-14.859
-15.203
-15.5031
-15.7742
-15.9055
-15.8247
-15.5178
-15.0762
-14.5859
-14.2091
-14.0612
-14.1728
-14.3484
-14.5202
-14.6523
-14.7514
-14.8072
-14.8496
-14.8864
-14.8953
-14.873
-14.8299
-14.7735
-14.7143
-14.66
-14.6129
-14.5732
-14.5405
-14.5144
-14.4938
-14.4774
-14.4641
-14.4527
-14.4421
-14.4323
-14.4235
-14.415
-14.4065
-14.3977
-14.3869
-14.3743
-14.36
-14.3436
-14.3243
-14.3013
-14.2732
-14.2387
-14.1967
-14.1471
-14.0911
-14.0322
-13.9836
-13.9685
-14.0065
-14.0942
-14.2137
-14.3228
-14.3959
-14.4415
-14.4818
-14.5273
-14.5789
-14.637
-14.701
-14.758
-14.7866
-14.7566
-14.6582
-14.4977
-14.2907
-14.0663
-13.8676
-13.7223
-13.6348
-13.5965
-14.3466
-14.4727
-14.7004
-15.0167
-15.4255
-15.9326
-16.4327
-16.8964
-17.303
-17.6028
-17.669
-17.4149
-16.8639
-16.1453
-15.5223
-15.1468
-15.1037
-15.205
-15.3025
-15.3785
-15.4327
-15.4551
-15.435
-15.4204
-15.4342
-15.4266
-15.3886
-15.3314
-15.2697
-15.2123
-15.1618
-15.1183
-15.0821
-15.0528
-15.0293
-15.0104
-14.9951
-14.9822
-14.9704
-14.9598
-14.9509
-14.9427
-14.9347
-14.9262
-14.9158
-14.9039
-14.8903
-14.8746
-14.8557
-14.8325
-14.8032
-14.7656
-14.7176
-14.6579
-14.5869
-14.5054
-14.4346
-14.4067
-14.4492
-14.553
-14.6951
-14.8289
-14.9115
-14.967
-15.0342
-15.1129
-15.193
-15.2786
-15.3721
-15.4561
-15.5002
-15.4674
-15.3399
-15.1467
-14.923
-14.6876
-14.4645
-14.2939
-14.1942
-14.1528
-15.0841
-15.2185
-15.4532
-15.8167
-16.3528
-17.0102
-17.6527
-18.231
-18.7144
-19.0894
-19.2485
-19.1297
-18.6186
-17.7551
-16.9252
-16.3579
-16.1652
-16.1186
-16.0912
-16.1113
-16.137
-16.1585
-16.1018
-16.0201
-16.0026
-16.0074
-15.9673
-15.8981
-15.8277
-15.7647
-15.7096
-15.6621
-15.6225
-15.5904
-15.5645
-15.5438
-15.5271
-15.5131
-15.5005
-15.489
-15.4802
-15.4724
-15.465
-15.4572
-15.4475
-15.4368
-15.4246
-15.4105
-15.3935
-15.3718
-15.3435
-15.3059
-15.2559
-15.19
-15.1049
-15.0121
-14.9439
-14.9464
-15.0241
-15.1576
-15.3098
-15.4251
-15.4716
-15.5182
-15.6038
-15.7071
-15.8115
-15.9323
-16.0757
-16.217
-16.299
-16.2808
-16.1591
-15.9514
-15.6811
-15.3996
-15.1467
-14.9401
-14.8159
-14.7687
-15.8921
-16.0273
-16.2501
-16.6154
-17.2302
-17.9992
-18.7562
-19.37
-19.8319
-20.191
-20.4061
-20.3942
-20.0216
-19.1761
-18.1994
-17.4576
-17.125
-16.9726
-16.8604
-16.8412
-16.845
-16.8517
-16.806
-16.7064
-16.635
-16.6301
-16.5748
-16.4782
-16.3904
-16.3183
-16.2568
-16.2046
-16.1617
-16.127
-16.0991
-16.077
-16.0593
-16.0447
-16.0313
-16.0196
-16.0107
-16.0037
-15.9972
-15.9906
-15.9824
-15.9736
-15.9639
-15.9529
-15.9394
-15.9218
-15.8979
-15.8658
-15.8219
-15.758
-15.6694
-15.588
-15.5884
-15.6654
-15.7751
-15.9086
-16.0002
-16.0255
-16.0355
-16.0888
-16.1987
-16.3315
-16.4737
-16.6736
-16.9326
-17.1727
-17.3183
-17.3448
-17.2406
-17.0086
-16.6822
-16.3105
-15.9715
-15.7053
-15.5424
-15.4814
-16.6923
-16.8466
-17.041
-17.3705
-17.9991
-18.8361
-19.6834
-20.3098
-20.7216
-21.0196
-21.2243
-21.2333
-20.9509
-20.2402
-19.2164
-18.3732
-17.9177
-17.7247
-17.5949
-17.5662
-17.5642
-17.5456
-17.52
-17.4553
-17.366
-17.3056
-17.2118
-17.0714
-16.9575
-16.8726
-16.8029
-16.7454
-16.6989
-16.6617
-16.6322
-16.6091
-16.5909
-16.5762
-16.5621
-16.5503
-16.5415
-16.536
-16.5311
-16.5263
-16.5203
-16.5143
-16.5084
-16.5024
-16.495
-16.4848
-16.4704
-16.4529
-16.4273
-16.3717
-16.2885
-16.2734
-16.3711
-16.4851
-16.5592
-16.6117
-16.6267
-16.603
-16.6119
-16.6932
-16.8424
-17.0226
-17.2551
-17.6608
-18.1621
-18.5653
-18.7876
-18.8309
-18.6191
-18.2632
-17.8775
-17.4349
-16.9604
-16.6014
-16.3856
-16.3032
-17.3696
-17.5904
-17.7508
-18.0499
-18.6234
-19.463
-20.344
-21.0164
-21.4152
-21.6401
-21.758
-21.7246
-21.4667
-20.8777
-19.9117
-19.0836
-18.6099
-18.4158
-18.3085
-18.2992
-18.3059
-18.2868
-18.2969
-18.2603
-18.1667
-18.0382
-17.87
-17.6696
-17.5255
-17.4251
-17.346
-17.283
-17.2332
-17.1939
-17.163
-17.1393
-17.121
-17.1064
-17.0922
-17.0807
-17.0724
-17.0685
-17.0657
-17.0634
-17.0606
-17.0586
-17.0579
-17.0589
-17.0607
-17.0619
-17.0637
-17.073
-17.0774
-17.0288
-16.9819
-17.0432
-17.1809
-17.2533
-17.2596
-17.2433
-17.2118
-17.2004
-17.2427
-17.3608
-17.5429
-17.7912
-18.2331
-18.9662
-19.7531
-20.3025
-20.5066
-20.396
-20.0535
-19.5974
-19.1453
-18.6395
-18.0484
-17.5763
-17.3018
-17.1954
-17.8994
-18.1848
-18.3563
-18.6294
-19.1068
-19.8573
-20.6896
-21.3779
-21.7969
-21.9907
-22.023
-21.9403
-21.7147
-21.207
-20.3606
-19.5876
-19.1747
-19.0294
-18.9752
-19.0179
-19.0613
-19.0979
-19.1544
-19.106
-18.9838
-18.7971
-18.5205
-18.257
-18.0868
-17.971
-17.883
-17.8155
-17.7632
-17.7223
-17.6904
-17.6665
-17.6485
-17.6339
-17.62
-17.6098
-17.6026
-17.6001
-17.6001
-17.6008
-17.6018
-17.605
-17.6113
-17.6213
-17.6352
-17.6523
-17.6776
-17.7273
-17.7763
-17.7518
-17.7434
-17.8239
-17.9349
-17.9385
-17.9099
-17.8776
-17.8486
-17.8602
-17.9246
-18.0694
-18.2754
-18.6181
-19.3275
-20.3339
-21.2558
-21.7395
-21.8442
-21.6516
-21.2738
-20.8074
-20.3238
-19.7685
-19.1065
-18.5324
-18.209
-18.0784
-18.3382
-18.6223
-18.8931
-19.1337
-19.4818
-20.0609
-20.7728
-21.4171
-21.8371
-22.0212
-22.0546
-21.9638
-21.789
-21.35
-20.6388
-19.9494
-19.6111
-19.5149
-19.5422
-19.6621
-19.7749
-19.9302
-20.0011
-19.919
-19.7593
-19.5075
-19.1141
-18.8174
-18.6306
-18.5034
-18.4105
-18.3408
-18.2874
-18.246
-18.2138
-18.1898
-18.1717
-18.157
-18.1437
-18.1357
-18.1306
-18.1291
-18.1331
-18.1373
-18.143
-18.1523
-18.1666
-18.1873
-18.2158
-18.2529
-18.3073
-18.4068
-18.5207
-18.5522
-18.5507
-18.5744
-18.5974
-18.5806
-18.562
-18.5286
-18.5103
-18.5388
-18.6205
-18.7777
-19.0042
-19.4846
-20.3816
-21.4964
-22.3167
-22.6591
-22.7201
-22.5456
-22.2093
-21.7992
-21.3266
-20.7244
-20.0052
-19.3737
-19.0359
-18.8622
-18.7637
-18.9764
-19.3525
-19.5866
-19.8261
-20.2304
-20.7918
-21.3382
-21.728
-21.9188
-21.9668
-21.9154
-21.7754
-21.3963
-20.7836
-20.1968
-19.9116
-19.8653
-19.9673
-20.1665
-20.385
-20.6713
-20.7389
-20.6117
-20.4223
-20.0725
-19.6394
-19.3368
-19.1469
-19.0177
-18.9256
-18.857
-18.8048
-18.7644
-18.7328
-18.7088
-18.6903
-18.6749
-18.6625
-18.6571
-18.656
-18.6564
-18.6637
-18.6714
-18.6825
-18.6982
-18.7211
-18.7531
-18.7973
-18.8569
-18.9434
-19.0962
-19.2963
-19.4043
-19.3974
-19.3209
-19.2276
-19.216
-19.2111
-19.1781
-19.1671
-19.2048
-19.2983
-19.4586
-19.6935
-20.299
-21.241
-22.29
-22.9184
-23.1826
-23.2471
-23.1108
-22.8542
-22.5425
-22.0817
-21.4265
-20.6644
-20.0502
-19.726
-19.4973
-19.2652
-19.3901
-19.7278
-19.9712
-20.181
-20.4738
-20.8847
-21.316
-21.6457
-21.8237
-21.8841
-21.877
-21.7387
-21.3773
-20.8216
-20.3223
-20.0931
-20.0832
-20.2282
-20.4935
-20.8364
-21.1488
-21.2425
-21.1517
-20.8961
-20.4709
-20.0656
-19.8004
-19.6293
-19.5112
-19.4264
-19.3629
-19.3145
-19.2768
-19.2472
-19.2242
-19.2061
-19.191
-19.1799
-19.1761
-19.1794
-19.1825
-19.1915
-19.2026
-19.2185
-19.2405
-19.2713
-19.314
-19.3731
-19.4549
-19.5726
-19.7724
-20.0661
-20.2819
-20.2916
-20.1443
-19.9479
-19.8727
-19.8668
-19.8244
-19.8042
-19.8374
-19.9268
-20.074
-20.3525
-20.9614
-21.8321
-22.7157
-23.2247
-23.4559
-23.517
-23.4199
-23.2328
-22.9661
-22.4996
-21.8186
-21.0901
-20.5557
-20.2477
-20.0013
-19.8455
-19.9163
-20.0826
-20.2914
-20.5233
-20.7834
-21.086
-21.4077
-21.6615
-21.7996
-21.8539
-21.8446
-21.6914
-21.3187
-20.8123
-20.3919
-20.2145
-20.2203
-20.3644
-20.6356
-20.9888
-21.2933
-21.4199
-21.3484
-21.0965
-20.7245
-20.417
-20.2172
-20.0821
-19.9853
-19.9135
-19.8586
-19.8161
-19.7829
-19.7566
-19.7362
-19.7207
-19.7077
-19.6981
-19.6956
-19.701
-19.7055
-19.7153
-19.7295
-19.7494
-19.7765
-19.8137
-19.865
-19.9358
-20.0353
-20.1788
-20.4079
-20.7676
-21.1283
-21.1963
-21.0368
-20.783
-20.5707
-20.529
-20.4641
-20.409
-20.4203
-20.4895
-20.6225
-20.9051
-21.4285
-22.1667
-22.8895
-23.3413
-23.5485
-23.5866
-23.4935
-23.3141
-23.0364
-22.5733
-21.9627
-21.3655
-20.9295
-20.6362
-20.4162
-20.3933
-20.4075
-20.4516
-20.6179
-20.8693
-21.1294
-21.3763
-21.6107
-21.7841
-21.8601
-21.8634
-21.7974
-21.5994
-21.2534
-20.826
-20.4971
-20.3639
-20.3736
-20.4886
-20.7039
-20.979
-21.227
-21.3461
-21.3051
-21.1399
-20.9162
-20.7377
-20.6111
-20.5177
-20.446
-20.3899
-20.3455
-20.3104
-20.2825
-20.2602
-20.2434
-20.2318
-20.2221
-20.2141
-20.2134
-20.219
-20.2237
-20.2342
-20.2507
-20.2734
-20.3041
-20.3451
-20.4019
-20.4796
-20.5882
-20.7452
-20.9856
-21.359
-21.8089
-22.0083
-21.9004
-21.6327
-21.3208
-21.1814
-21.0778
-20.9663
-20.9403
-20.9783
-21.0856
-21.3217
-21.7289
-22.3111
-22.906
-23.3225
-23.5147
-23.5286
-23.4258
-23.2269
-22.9326
-22.5237
-22.0431
-21.5935
-21.2406
-20.9605
-20.7864
-20.8946
-20.8739
-20.8891
-21.0255
-21.2668
-21.5148
-21.7288
-21.9081
-22.0071
-22.0018
-21.9184
-21.7655
-21.5261
-21.2321
-20.9166
-20.6895
-20.6068
-20.6242
-20.7109
-20.859
-21.047
-21.2174
-21.3102
-21.3108
-21.2475
-21.1561
-21.0756
-21.0073
-20.9497
-20.901
-20.8604
-20.8267
-20.799
-20.7765
-20.7585
-20.745
-20.7364
-20.7302
-20.7248
-20.7258
-20.7308
-20.736
-20.7474
-20.7652
-20.7893
-20.8217
-20.8648
-20.923
-21.0016
-21.1096
-21.263
-21.489
-21.8278
-22.2678
-22.5859
-22.6027
-22.381
-22.0477
-21.7834
-21.63
-21.4582
-21.3912
-21.3985
-21.473
-21.6467
-21.9416
-22.3647
-22.8324
-23.2161
-23.4274
-23.4674
-23.3654
-23.1585
-22.8827
-22.5412
-22.1746
-21.8352
-21.5388
-21.277
-21.1564
-21.4108
-21.3912
-21.3998
-21.5139
-21.7195
-21.9324
-22.1255
-22.2681
-22.3134
-22.2344
-22.0664
-21.8427
-21.5952
-21.3563
-21.1503
-21.0143
-20.9677
-20.9923
-21.061