/*--------------------------------*- C++ -*----------------------------------*\
| =========                 |                                                 |
| \\      /  F ield         | OpenFOAM: The Open Source CFD Toolbox           |
|  \\    /   O peration     | Version:  2412                                  |
|   \\  /    A nd           | Website:  www.openfoam.com                      |
|    \\/     M anipulation  |                                                 |
\*---------------------------------------------------------------------------*/
FoamFile
{
    version     2.0;
    format      ascii;
    arch        "LSB;label=32;scalar=64";
    class       surfaceScalarField;
    location    "4.81";
    object      phi;
}
// * * * * * * * * * * * * * * * * * * * * * * * * * * * * * * * * * * * * * //

dimensions      [0 3 -1 0 0 0 0];

oriented        oriented;

internalField   nonuniform List<scalar> 
158920
(
-6.36454e-06
6.36454e-06
-1.23461e-05
6.04799e-06
-1.8194e-05
5.90559e-06
-2.40681e-05
5.91768e-06
-2.99606e-05
5.92421e-06
-3.58573e-05
5.91908e-06
-4.17566e-05
5.91491e-06
-4.76625e-05
5.91655e-06
-5.35801e-05
5.9248e-06
-5.95137e-05
5.93836e-06
-6.54688e-05
5.95826e-06
-7.14461e-05
5.97924e-06
-7.74464e-05
6.00154e-06
-8.34721e-05
6.02637e-06
-8.95249e-05
6.05311e-06
-9.56045e-05
6.07972e-06
-0.000101711
6.10641e-06
-0.000107844
6.13322e-06
-0.000114006
6.16119e-06
-0.000120194
6.18734e-06
-0.000126409
6.21535e-06
-0.000132653
6.2437e-06
-0.000138926
6.27242e-06
-0.000145229
6.30234e-06
-0.000151562
6.33285e-06
-0.000157926
6.36382e-06
-0.000164323
6.39658e-06
-0.000170755
6.43086e-06
-0.00017722
6.4649e-06
-0.000183721
6.50086e-06
-0.00019026
6.53824e-06
-0.000196837
6.57685e-06
-0.000203454
6.61677e-06
-0.000210113
6.65803e-06
-0.000216814
6.70064e-06
-0.000223559
6.74461e-06
-0.000230349
6.78993e-06
-0.000237186
6.8366e-06
-0.000244071
6.88461e-06
-0.000251006
6.93394e-06
-0.000257991
6.9846e-06
-0.000265028
7.03655e-06
-0.000272118
7.0898e-06
-0.000279263
7.14435e-06
-0.000286464
7.2002e-06
-0.000293721
7.25734e-06
-0.000301038
7.31577e-06
-0.000308414
7.37549e-06
-0.000315851
7.43649e-06
-0.00032335
7.49877e-06
-0.000330913
7.56235e-06
-0.000338541
7.62723e-06
-0.000346235
7.69342e-06
-0.000353996
7.76092e-06
-0.000361827
7.82973e-06
-0.000369727
7.89986e-06
-0.000377699
7.97131e-06
-0.000385743
8.04409e-06
-0.000393862
8.11821e-06
-0.000402056
8.19369e-06
-0.000410328
8.27052e-06
-0.000418677
8.3487e-06
-0.000427106
8.42825e-06
-0.000435615
8.50915e-06
-0.000444207
8.59141e-06
-0.000452883
8.67503e-06
-0.000461644
8.76001e-06
-0.00047049
8.84636e-06
-0.000479425
8.93408e-06
-0.000488449
9.02318e-06
-0.000497563
9.11365e-06
-0.000506769
9.20549e-06
-0.000516069
9.29871e-06
-0.000525462
9.3933e-06
-0.000534952
9.48926e-06
-0.000544539
9.58659e-06
-0.000554225
9.6853e-06
-0.000564011
9.78537e-06
-0.000573899
9.88682e-06
-0.000583889
9.98965e-06
-0.000593984
1.00938e-05
-0.000604184
1.01994e-05
-0.00061449
1.03063e-05
-0.000624906
1.04146e-05
-0.00063543
1.05242e-05
-0.000646066
1.06351e-05
-0.000656814
1.07474e-05
-0.000667676
1.0861e-05
-0.000678652
1.09759e-05
-0.000689745
1.10921e-05
-0.000700956
1.12097e-05
-0.000712285
1.13285e-05
-0.000723734
1.14487e-05
-0.000735305
1.15701e-05
-0.000746998
1.16928e-05
-0.000758816
1.18167e-05
-0.000770758
1.19419e-05
-0.000782827
1.20684e-05
-0.000795024
1.2196e-05
-0.00080735
1.23248e-05
-0.000819805
1.24549e-05
-0.000832392
1.25861e-05
-0.000845111
1.27184e-05
-0.000857964
1.28519e-05
-0.000870951
1.29865e-05
-0.000884074
1.31222e-05
-0.000897334
1.3259e-05
-0.000910731
1.33969e-05
-0.000924268
1.35357e-05
-0.000937944
1.36756e-05
-0.000951761
1.38165e-05
-0.00096572
1.39583e-05
-0.000979822
1.4101e-05
-0.000994067
1.42446e-05
-0.00100846
1.43892e-05
-0.00102299
1.45345e-05
-0.00103767
1.46807e-05
-0.0010525
1.48276e-05
-0.00106748
1.49753e-05
-0.0010826
1.51237e-05
-0.00109788
1.52728e-05
-0.0011133
1.54224e-05
-0.00112887
1.55727e-05
-0.0011446
1.57236e-05
-0.00116047
1.58749e-05
-0.0011765
1.60267e-05
-0.00119268
1.61789e-05
-0.00120901
1.63316e-05
-0.0012255
1.64845e-05
-0.00124214
1.66377e-05
-0.00125893
1.67912e-05
-0.00127587
1.69448e-05
-0.00129297
1.70985e-05
-0.00131022
1.72523e-05
-0.00132763
1.74061e-05
-0.00134519
1.75598e-05
-0.00136291
1.77134e-05
-0.00138077
1.78669e-05
-0.00139879
1.80201e-05
-0.00141697
1.81729e-05
-0.00143529
1.83254e-05
-0.00145377
1.84775e-05
-0.0014724
1.8629e-05
-0.00149118
1.87799e-05
-0.00151011
1.89301e-05
-0.00152919
1.90796e-05
-0.00154842
1.92282e-05
-0.0015678
1.9376e-05
-0.00158732
1.95227e-05
-0.00160699
1.96683e-05
-0.0016268
1.98127e-05
-0.00164676
1.99558e-05
-0.00166686
2.00976e-05
-0.0016871
2.02379e-05
-0.00170747
2.03766e-05
-0.00172799
2.05137e-05
-0.00174864
2.0649e-05
-0.00176942
2.07824e-05
-0.00179034
2.09138e-05
-0.00181138
2.10431e-05
-0.00183255
2.11702e-05
-0.00185385
2.1295e-05
-0.00187526
2.14173e-05
-0.0018968
2.15371e-05
-0.00191846
2.16541e-05
-0.00194023
2.17684e-05
-0.00196211
2.18797e-05
-0.00198409
2.1988e-05
-0.00200619
2.2093e-05
-0.00202838
2.21947e-05
-0.00205068
2.2293e-05
-0.00207306
2.23876e-05
-0.00209554
2.24785e-05
-0.00211811
2.25655e-05
-0.00214076
2.26485e-05
-0.00216349
2.27273e-05
-0.00218629
2.28018e-05
-0.00220916
2.28717e-05
-0.0022321
2.29371e-05
-0.0022551
2.29976e-05
-0.00227815
2.30532e-05
-0.00230125
2.31037e-05
-0.0023244
2.3149e-05
-0.00234759
2.31888e-05
-0.00237082
2.3223e-05
-0.00239407
2.32515e-05
-0.00241734
2.3274e-05
-0.00244063
2.32904e-05
-0.00246393
2.33005e-05
-0.00248724
2.33042e-05
-0.00251054
2.33012e-05
-0.00253383
2.32915e-05
-0.00255711
2.32747e-05
-0.00258036
2.32508e-05
-0.00260358
2.32195e-05
-0.00262676
2.31807e-05
-0.00264989
2.31342e-05
-0.00267297
2.30797e-05
-0.00269599
2.30172e-05
-0.00271894
2.29463e-05
-0.00274181
2.2867e-05
-0.00276458
2.2779e-05
-0.00278727
2.26821e-05
-0.00280984
2.25762e-05
-0.0028323
2.2461e-05
-0.00285464
2.23364e-05
-0.00287684
2.22021e-05
-0.0028989
2.2058e-05
-0.0029208
2.19039e-05
-0.00294254
2.17396e-05
-0.00296411
2.15648e-05
-0.00298549
2.13795e-05
-0.00300667
2.11833e-05
-0.00302765
2.09761e-05
-0.00304841
2.07578e-05
-0.00306893
2.05281e-05
-0.00308922
2.02868e-05
-0.00310925
2.00338e-05
-0.00312902
1.97688e-05
-0.00314851
1.94917e-05
-0.00316772
1.92022e-05
-0.00318662
1.89003e-05
-0.0032052
1.85857e-05
-0.00322346
1.82582e-05
-0.00324138
1.79176e-05
-0.00325894
1.75638e-05
-0.00327614
1.71966e-05
-0.00329295
1.68159e-05
-0.00330938
1.64213e-05
-0.00332539
1.60129e-05
-0.00334098
1.55904e-05
-0.00335613
1.51536e-05
-0.00337083
1.47024e-05
-0.00338507
1.42367e-05
-0.00339883
1.37562e-05
-0.00341209
1.32608e-05
-0.00342484
1.27503e-05
-0.00343706
1.22247e-05
-0.00344875
1.16837e-05
-0.00345987
1.11273e-05
-0.00347043
1.05553e-05
-0.0034804
9.96762e-06
-0.00348976
9.36405e-06
-0.0034985
8.74451e-06
-0.00350661
8.10889e-06
-0.00351407
7.45709e-06
-0.00352086
6.78899e-06
-0.00352696
6.1045e-06
-0.00353237
5.40351e-06
-0.00353705
4.68594e-06
-0.003541
3.95175e-06
-0.00354421
3.20094e-06
-0.00354664
2.43355e-06
-0.00354829
1.64978e-06
-0.00354914
8.49984e-07
-0.00354917
3.26169e-08
-0.00354835
-8.21072e-07
-0.00354668
-1.66464e-06
-0.00354414
-2.5457e-06
-0.00354072
-3.41752e-06
-0.0035364
-4.32213e-06
-0.00353114
-5.25506e-06
-0.00352496
-6.18115e-06
-0.00351782
-7.143e-06
-0.00350971
-8.11412e-06
-0.0035006
-9.10062e-06
-0.00349049
-1.01161e-05
-0.00347936
-1.11324e-05
-0.00346718
-1.21733e-05
-0.00345395
-1.32364e-05
-0.00343964
-1.4303e-05
-0.00342424
-1.53988e-05
-0.00340774
-1.65001e-05
-0.00339012
-1.76217e-05
-0.00337135
-1.87654e-05
-0.00335144
-1.99136e-05
-0.00333035
-2.10867e-05
-0.00330809
-2.22676e-05
-0.00328462
-2.34671e-05
-0.00325993
-2.46831e-05
-0.00323402
-2.59099e-05
-0.00320687
-2.71562e-05
-0.00317846
-2.84099e-05
-0.00314877
-2.96832e-05
-0.00311781
-3.0965e-05
-0.00308555
-3.22611e-05
-0.00305197
-3.35708e-05
-0.00301708
-3.48903e-05
-0.00298086
-3.62253e-05
-0.00294329
-3.75659e-05
-0.00290437
-3.89198e-05
-0.00286409
-4.02806e-05
-0.00282243
-4.16531e-05
-0.0027794
-4.30312e-05
-0.00273498
-4.44194e-05
-0.00268917
-4.58122e-05
-0.00264195
-4.72121e-05
-0.00259334
-4.86172e-05
-0.00254331
-5.00269e-05
-0.00249187
-5.144e-05
-0.00243901
-5.28561e-05
-0.00238473
-5.42735e-05
-0.00232904
-5.56919e-05
-0.00227193
-5.7109e-05
-0.0022134
-5.8525e-05
-0.00215346
-5.99369e-05
-0.00209212
-6.1345e-05
-0.00202937
-6.27455e-05
-0.00196523
-6.41401e-05
-0.0018997
-6.55229e-05
-0.0018328
-6.68962e-05
-0.00176455
-6.82548e-05
-0.00169494
-6.95997e-05
-0.00162402
-7.09265e-05
-0.00155178
-7.2234e-05
-0.00147826
-7.35206e-05
-0.00140347
-7.47818e-05
-0.00132745
-7.60198e-05
-0.00125022
-7.72257e-05
-0.00117182
-7.84035e-05
-0.00109227
-7.95439e-05
-0.00101162
-8.06483e-05
-0.000929902
-8.1714e-05
-0.000847165
-8.27346e-05
-0.000763449
-8.37131e-05
-0.000678809
-8.46379e-05
-0.000593295
-8.55119e-05
-0.000506963
-8.63303e-05
-0.000419881
-8.70794e-05
-0.00033212
-8.77594e-05
-0.000243701
-8.84168e-05
-0.000154644
-8.90554e-05
-6.50318e-05
-8.96106e-05
2.50381e-05
-9.00684e-05
0.000115495
-9.04557e-05
0.000206274
-9.07774e-05
0.000297318
-9.10438e-05
0.000388568
-9.12489e-05
0.000479894
-9.13264e-05
0.000571178
-9.12834e-05
0.000662356
-9.11785e-05
0.000753382
-9.10265e-05
0.000844167
-9.07861e-05
0.000934633
-9.04677e-05
0.00102471
-9.00806e-05
0.00111434
-8.96249e-05
0.00120343
-8.90993e-05
0.00129194
-8.85114e-05
0.0013798
-8.78631e-05
0.00146696
-8.71509e-05
0.00155334
-8.63814e-05
0.00163889
-8.55573e-05
0.00172359
-8.46942e-05
0.0018074
-8.38167e-05
0.00189025
-8.28456e-05
0.00197209
-8.1842e-05
0.0020529
-8.08077e-05
0.00213264
-7.97372e-05
0.00221128
-7.86335e-05
0.00228878
-7.75022e-05
0.00236512
-7.63449e-05
0.00244029
-7.51591e-05
0.00251423
-7.39461e-05
0.00258695
-7.27131e-05
0.00265841
-7.14583e-05
0.00272859
-7.01812e-05
0.00279747
-6.88806e-05
0.00286503
-6.75584e-05
0.00293124
-6.62153e-05
0.00299609
-6.48495e-05
0.00305955
-6.3462e-05
0.0031216
-6.20507e-05
0.00318221
-6.06088e-05
0.00324135
-5.91395e-05
0.00329899
-5.76437e-05
0.00335511
-5.61206e-05
0.00340968
-5.45663e-05
0.00346265
-5.29745e-05
0.003514
-5.13469e-05
0.00356368
-4.96852e-05
0.00361167
-4.79877e-05
0.00365792
-4.62488e-05
0.00370239
-4.44653e-05
0.00374502
-4.26382e-05
0.00378579
-4.07686e-05
0.00382464
-3.88513e-05
0.00386153
-3.6884e-05
0.00389639
-3.48662e-05
0.00392919
-3.27945e-05
0.00395986
-3.06684e-05
0.00398834
-2.84865e-05
0.00401459
-2.62446e-05
0.00403853
-2.39427e-05
0.00406011
-2.1575e-05
0.00407925
-1.9141e-05
0.00409589
-1.6644e-05
0.00410997
-1.4079e-05
0.00412141
-1.14428e-05
0.00413015
-8.73295e-06
0.0041361
-5.95682e-06
0.00413922
-3.1097e-06
0.00413941
-1.92676e-07
0.00413651
2.89788e-06
0.00413058
5.9355e-06
0.00412156
9.02219e-06
0.00410932
1.22356e-05
0.0040938
1.55191e-05
0.00407498
1.88197e-05
0.00405278
2.22055e-05
0.00402712
2.56559e-05
0.00399801
2.91136e-05
0.00396537
3.26455e-05
0.00392918
3.61908e-05
0.00388939
3.9787e-05
0.00384601
4.33839e-05
0.003799
4.70101e-05
0.00374837
5.06321e-05
0.00369411
5.42596e-05
0.00363625
5.78574e-05
0.00357481
6.1437e-05
0.00350982
6.49954e-05
0.00344132
6.84996e-05
0.00336936
7.19624e-05
0.003294
7.53628e-05
0.00321533
7.86648e-05
0.00313341
8.19186e-05
0.00304836
8.50504e-05
0.00296028
8.80897e-05
0.00286926
9.10169e-05
0.00277545
9.38075e-05
0.00267898
9.64752e-05
0.00258001
9.89716e-05
0.00247869
0.000101318
0.00237519
0.000103504
0.00226969
0.000105499
0.00216237
0.000107314
0.00205344
0.000108936
0.00194309
0.000110351
0.00183153
0.000111559
0.001719
0.000112529
0.00160572
0.00011328
0.00149193
0.000113786
0.00137786
0.000114073
0.00126373
0.000114126
0.00114983
0.000113909
0.00103637
0.000113452
0.000923621
0.000112753
0.00081185
0.000111772
0.000701301
0.000110549
0.000592235
0.000109065
0.000484876
0.000107359
0.00037951
0.000105366
0.000276366
0.000103144
0.00017561
0.000100755
7.74555e-05
9.81542e-05
-1.78091e-05
9.52637e-05
-0.000109917
9.21066e-05
-0.000198784
8.88659e-05
-0.000284106
8.53212e-05
-0.000365745
8.16377e-05
-0.000443415
7.76694e-05
-0.000517247
7.3832e-05
-0.000586763
6.95145e-05
-0.000651885
6.5121e-05
-0.000712465
6.05792e-05
-0.000768756
5.62921e-05
-0.000820321
5.1566e-05
-0.000867135
4.68148e-05
-0.00090911
4.19733e-05
-0.000946541
3.74282e-05
-0.000979044
3.24984e-05
-0.00100671
2.76619e-05
-0.00102966
2.29537e-05
-0.0010478
1.81304e-05
-0.00106118
1.33802e-05
-0.00106985
8.66388e-06
-0.00107413
4.28152e-06
-0.00107381
-3.27182e-07
-0.00106904
-4.76889e-06
-0.00106002
-9.02586e-06
-0.00104676
-1.32638e-05
-0.00102949
-1.72703e-05
-0.00100833
-2.11599e-05
-0.000983334
-2.49905e-05
-0.000954649
-2.86822e-05
-0.000922479
-3.21649e-05
-0.000887129
-3.53421e-05
-0.000848494
-3.86302e-05
-0.000806914
-4.15818e-05
-0.000762652
-4.42686e-05
-0.000715611
-4.70468e-05
-0.000666199
-4.94118e-05
-0.000614454
-5.17393e-05
-0.000560662
-5.37857e-05
-0.000504946
-5.57139e-05
-0.000447532
-5.74146e-05
-0.000388589
-5.89448e-05
-0.00032833
-6.02599e-05
-0.000266916
-6.14149e-05
-0.000204526
-6.23941e-05
-0.000141403
-6.31279e-05
-7.75815e-05
-6.38235e-05
-1.33733e-05
-6.42054e-05
5.10443e-05
-6.44116e-05
0.000115429
-6.43799e-05
0.000179793
-6.43645e-05
0.000243818
-6.40314e-05
0.000307311
-6.35009e-05
0.000370218
-6.29126e-05
0.000431979
-6.17611e-05
0.000492773
-6.07888e-05
0.000552513
-5.97346e-05
0.000610841
-5.83254e-05
0.00066755
-5.67128e-05
0.000722526
-5.49836e-05
0.000775764
-5.32438e-05
0.000827028
-5.12651e-05
0.000876403
-4.9371e-05
0.000923523
-4.71128e-05
0.000968373
-4.48421e-05
0.00101087
-4.24984e-05
0.00105095
-4.0076e-05
0.00108843
-3.74837e-05
0.00112334
-3.49173e-05
0.00115566
-3.23238e-05
0.00118528
-2.96218e-05
0.00121229
-2.70109e-05
0.00123648
-2.41778e-05
0.00125786
-2.13831e-05
0.00127652
-1.86591e-05
0.00129214
-1.56238e-05
0.00130505
-1.29092e-05
0.00131515
-1.01115e-05
0.00132233
-7.1781e-06
0.0013267
-4.38061e-06
0.0013282
-1.4951e-06
0.00132688
1.31677e-06
0.00132273
4.15824e-06
0.00131587
6.85871e-06
0.00130642
9.45719e-06
0.00129445
1.19713e-05
0.00127998
1.44691e-05
0.00126319
1.67825e-05
0.00124412
1.90693e-05
0.00122313
2.09804e-05
0.00120012
2.30117e-05
0.00117531
2.48054e-05
0.00114887
2.64377e-05
0.00112087
2.80008e-05
0.00109165
2.92266e-05
0.00106135
3.02982e-05
0.00102994
3.14148e-05
0.000997743
3.21987e-05
0.000964795
3.29502e-05
0.000931084
3.37129e-05
0.000896948
3.41373e-05
0.000862409
3.45388e-05
0.000827676
3.47321e-05
0.000792993
3.46818e-05
0.0007584
3.45909e-05
0.000724022
3.43766e-05
0.000689794
3.42263e-05
0.000655877
3.39157e-05
0.00062238
3.34964e-05
0.00058933
3.30495e-05
0.000556848
3.24814e-05
0.000524833
3.20151e-05
0.000493611
3.12227e-05
0.000462886
3.07254e-05
0.000432662
3.02247e-05
0.000402956
2.97068e-05
0.000373681
2.92762e-05
0.000344643
2.90383e-05
0.000315931
2.87131e-05
0.000287334
2.85988e-05
0.000258423
2.89117e-05
0.00022896
2.94643e-05
0.000198084
3.08764e-05
0.000166374
3.17103e-05
0.000131576
3.47987e-05
9.50365e-05
3.65403e-05
7.66761e-05
1.83604e-05
7.34188e-05
3.25701e-06
5.42518e-05
1.91667e-05
2.09936e-05
3.32577e-05
-1.51568e-05
3.61496e-05
-3.95588e-05
2.44015e-05
-4.51504e-05
5.59176e-06
-6.17713e-05
1.66212e-05
-9.88526e-05
3.70811e-05
-0.000136569
3.77161e-05
-0.000171313
3.4745e-05
-0.00020537
3.40587e-05
-0.00023828
3.29119e-05
-0.000270761
3.24806e-05
-0.000302972
3.22099e-05
-0.000335166
3.21937e-05
-0.000367614
3.24505e-05
-0.000400238
3.26248e-05
-0.000433236
3.29972e-05
-0.000466701
3.34625e-05
-0.00050056
3.38581e-05
-0.000534914
3.43547e-05
-0.000569653
3.47393e-05
-0.000604666
3.50128e-05
-0.000640159
3.54926e-05
-0.000676075
3.59152e-05
-0.000712122
3.60482e-05
-0.000748386
3.62652e-05
-0.000784704
3.6319e-05
-0.000821039
3.6334e-05
-0.000857417
3.63768e-05
-0.000893587
3.61701e-05
-0.000929482
3.58955e-05
-0.000964885
3.54049e-05
-0.000999613
3.47292e-05
-0.00103366
3.40434e-05
-0.0010669
3.32416e-05
-0.00109917
3.22757e-05
-0.00113005
3.08839e-05
-0.00115952
2.94647e-05
-0.00118746
2.7944e-05
-0.00121347
2.60106e-05
-0.00123757
2.41e-05
-0.00125953
2.19578e-05
-0.00127917
1.96392e-05
-0.00129623
1.70553e-05
-0.00131054
1.43048e-05
-0.001322
1.14617e-05
-0.00133051
8.51114e-06
-0.00133587
5.35604e-06
-0.00133794
2.06625e-06
-0.00133669
-1.24133e-06
-0.00133211
-4.58588e-06
-0.00132401
-8.09505e-06
-0.00131254
-1.14658e-05
-0.00129774
-1.48e-05
-0.00127944
-1.8296e-05
-0.00125762
-2.18284e-05
-0.00123267
-2.4947e-05
-0.00120423
-2.8438e-05
-0.00117246
-3.1775e-05
-0.00113761
-3.48475e-05
-0.00109918
-3.8437e-05
-0.00105766
-4.15159e-05
-0.00101298
-4.46831e-05
-0.000965255
-4.77281e-05
-0.000914531
-5.07238e-05
-0.000861122
-5.3411e-05
-0.000804843
-5.62795e-05
-0.000746064
-5.87773e-05
-0.000684955
-6.11072e-05
-0.000621482
-6.34711e-05
-0.000555964
-6.5519e-05
-0.000488915
-6.70517e-05
-0.000420223
-6.86953e-05
-0.00035005
-7.01752e-05
-0.000278725
-7.13282e-05
-0.000206288
-7.24382e-05
-0.000133396
-7.28935e-05
-6.01388e-05
-7.32574e-05
1.30044e-05
-7.31423e-05
8.60836e-05
-7.30776e-05
0.000158706
-7.26213e-05
0.000230673
-7.19656e-05
0.0003018
-7.11285e-05
0.000371742
-6.9944e-05
0.000440165
-6.84261e-05
0.000506763
-6.66013e-05
0.000571283
-6.45231e-05
0.000633553
-6.2272e-05
0.000693252
-5.97e-05
0.00075013
-5.68778e-05
0.000803873
-5.37416e-05
0.000854158
-5.02834e-05
0.000900824
-4.66657e-05
0.000943479
-4.26546e-05
0.000982154
-3.86762e-05
0.00101647
-3.43192e-05
0.00104605
-2.95869e-05
0.00107064
-2.45844e-05
0.00108996
-1.93248e-05
0.00110404
-1.40895e-05
0.00111243
-8.38767e-06
0.00111491
-2.47314e-06
0.00111187
3.04298e-06
0.00110249
9.38206e-06
0.00108693
1.55625e-05
0.00106493
2.19951e-05
0.00103626
2.86651e-05
0.00100142
3.4845e-05
0.000959729
4.1687e-05
0.000911374
4.83531e-05
0.000856573
5.47995e-05
0.000795215
6.13567e-05
0.000727458
6.77578e-05
0.00065332
7.41411e-05
0.000572847
8.04774e-05
0.000486405
8.64456e-05
0.000394037
9.23714e-05
0.000295973
9.80673e-05
0.000193224
0.000102753
8.52528e-05
0.000107973
-2.73083e-05
0.000112562
-0.000144217
0.000116909
-0.000265024
0.000120808
-0.000389277
0.000124253
-0.000516625
0.000127348
-0.000646689
0.000130064
-0.000779053
0.000132365
-0.000913324
0.00013427
-0.00104906
0.000135737
-0.00118582
0.000136757
-0.00132312
0.000137301
-0.0014605
0.000137376
-0.00159755
0.000137052
-0.00173392
0.000136367
-0.00186912
0.000135206
-0.00200279
0.000133668
-0.00213453
0.000131742
-0.00226393
0.000129398
-0.0023906
0.000126674
-0.00251427
0.000123674
-0.00263468
0.000120405
-0.00275151
0.000116831
-0.00286447
0.000112965
-0.00297334
0.000108867
-0.00307782
0.000104485
-0.00317775
9.99308e-05
-0.00327297
9.52241e-05
-0.00336335
9.03832e-05
-0.00344874
8.53917e-05
-0.00352905
8.03028e-05
-0.0036042
7.51544e-05
-0.00367409
6.98924e-05
-0.00373865
6.45606e-05
-0.00379786
5.92049e-05
-0.00385173
5.38775e-05
-0.00390028
4.85404e-05
-0.00394351
4.3238e-05
-0.00398149
3.7975e-05
-0.00401425
3.27636e-05
-0.00404181
2.75614e-05
-0.00406417
2.23579e-05
-0.00408144
1.72706e-05
-0.00409371
1.22728e-05
-0.00410104
7.32388e-06
-0.0041035
2.45884e-06
-0.0041011
-2.39348e-06
-0.00409403
-7.06361e-06
-0.00408232
-1.17093e-05
-0.00406606
-1.62619e-05
-0.00404535
-2.07069e-05
-0.0040203
-2.50491e-05
-0.00399097
-2.93291e-05
-0.00395746
-3.35132e-05
-0.00391987
-3.75842e-05
-0.00387831
-4.15592e-05
-0.00383287
-4.54431e-05
-0.00378369
-4.91796e-05
-0.00373088
-5.28068e-05
-0.00367456
-5.63138e-05
-0.00361486
-5.97066e-05
-0.00355186
-6.29995e-05
-0.00348569
-6.61691e-05
-0.00341645
-6.92364e-05
-0.00334428
-7.21653e-05
-0.00326934
-7.49417e-05
-0.00319171
-7.76311e-05
-0.0031115
-8.02091e-05
-0.00302885
-8.26461e-05
-0.0029439
-8.49497e-05
-0.00285676
-8.71411e-05
-0.00276752
-8.92412e-05
-0.00267632
-9.11969e-05
-0.0025833
-9.30206e-05
-0.00248849
-9.48072e-05
-0.00239203
-9.64654e-05
-0.00229399
-9.80326e-05
-0.00219446
-9.95343e-05
-0.00209348
-0.000100979
-0.00199115
-0.000102332
-0.00188758
-0.000103567
-0.00178289
-0.000104691
-0.0016771
-0.000105793
-0.00157028
-0.000106812
-0.00146253
-0.000107757
-0.00135389
-0.000108639
-0.00124442
-0.000109463
-0.00113419
-0.000110227
-0.00102339
-0.000110809
-0.000911956
-0.000111429
-0.000800022
-0.000111935
-0.000687657
-0.000112366
-0.000574943
-0.000112713
-0.000461915
-0.000113029
-0.000348733
-0.000113182
-0.000235658
-0.000113075
-0.000122732
-0.000112927
-9.94482e-06
-0.000112788
0.000102601
-0.000112546
0.00021476
-0.000112159
0.000326363
-0.000111604
0.000437278
-0.000110915
0.000547517
-0.000110241
0.000657035
-0.000109519
0.000765668
-0.000108634
0.00087327
-0.000107603
0.00097972
-0.000106452
0.00108491
-0.000105195
0.00118876
-0.000103849
0.00129115
-0.000102395
0.00139198
-0.000100824
0.00149113
-9.91559e-05
0.0015885
-9.73736e-05
0.001684
-9.55023e-05
0.00177755
-9.35481e-05
0.00186906
-9.15125e-05
0.00195845
-8.93914e-05
0.00204565
-8.72029e-05
0.00213061
-8.49647e-05
0.00221327
-8.26631e-05
0.0022936
-8.03291e-05
0.00237155
-7.79491e-05
0.00244708
-7.55329e-05
0.00252016
-7.30771e-05
0.00259075
-7.05936e-05
0.00265885
-6.80978e-05
0.00272443
-6.55826e-05
0.00278749
-6.30588e-05
0.00284801
-6.05218e-05
0.00290599
-5.79861e-05
0.00296142
-5.54326e-05
0.0030143
-5.28762e-05
0.00306463
-5.03266e-05
0.0031124
-4.77719e-05
0.00315762
-4.5219e-05
0.00320029
-4.26738e-05
0.00324043
-4.01379e-05
0.00327805
-3.76122e-05
0.00331313
-3.50778e-05
0.00334569
-3.25612e-05
0.00337576
-3.00698e-05
0.00340334
-2.75726e-05
0.00342844
-2.51042e-05
0.00345111
-2.26685e-05
0.00347135
-2.02387e-05
0.00348919
-1.78418e-05
0.00350468
-1.54899e-05
0.00351784
-1.31539e-05
0.00352869
-1.08564e-05
0.0035373
-8.60646e-06
0.00354369
-6.39409e-06
0.00354791
-4.21793e-06
0.00355003
-2.11419e-06
0.00355005
-2.46861e-08
0.00354806
1.99625e-06
0.0035441
3.95637e-06
0.00353824
5.86397e-06
0.00353052
7.71943e-06
0.003521
9.51972e-06
0.00350974
1.12584e-05
0.0034968
1.29437e-05
0.00348222
1.45727e-05
0.00346609
1.61319e-05
0.00344846
1.76332e-05
0.00342938
1.908e-05
0.00340891
2.04684e-05
0.00338711
2.17995e-05
0.00336404
2.30757e-05
0.00333975
2.42881e-05
0.00331431
2.54398e-05
0.00328777
2.6538e-05
0.00326019
2.75853e-05
0.00323162
2.85768e-05
0.0032021
2.95144e-05
0.0031717
3.03988e-05
0.00314047
3.12295e-05
0.00310845
3.20156e-05
0.0030757
3.27531e-05
0.00304227
3.34395e-05
0.00300819
3.4077e-05
0.00297352
3.46688e-05
0.00293831
3.52133e-05
0.00290259
3.57142e-05
0.00286642
3.61738e-05
0.00282983
3.65929e-05
0.00279286
3.69709e-05
0.00275555
3.73086e-05
0.00271794
3.76084e-05
0.00268007
3.78708e-05
0.00264197
3.8096e-05
0.00260369
3.82864e-05
0.00256525
3.84433e-05
0.00252668
3.85675e-05
0.00248802
3.86602e-05
0.0024493
3.87225e-05
0.00241054
3.87555e-05
0.00237178
3.87602e-05
0.00233304
3.87376e-05
0.00229435
3.86886e-05
0.00225574
3.86142e-05
0.00221723
3.85156e-05
0.00217883
3.83939e-05
0.00214058
3.82502e-05
0.0021025
3.80856e-05
0.0020646
3.79011e-05
0.0020269
3.76977e-05
0.00198942
3.74761e-05
0.00195219
3.72369e-05
0.0019152
3.6981e-05
0.00187849
3.67096e-05
0.00184207
3.64235e-05
0.00180595
3.61237e-05
0.00177014
3.58111e-05
0.00173465
3.54866e-05
0.0016995
3.51509e-05
0.0016647
3.48047e-05
0.00163025
3.44488e-05
0.00159616
3.4084e-05
0.00156245
3.37111e-05
0.00152912
3.33307e-05
0.00149618
3.29436e-05
0.00146363
3.25502e-05
0.00143148
3.21513e-05
0.00139973
3.17475e-05
0.00136839
3.13396e-05
0.00133746
3.09279e-05
0.00130695
3.05132e-05
0.00127685
3.00959e-05
0.00124718
2.96767e-05
0.00121792
2.92559e-05
0.00118909
2.88342e-05
0.00116068
2.8412e-05
0.00113269
2.79898e-05
0.00110512
2.75681e-05
0.00107797
2.71472e-05
0.00105124
2.67275e-05
0.00102494
2.63093e-05
0.000999043
2.58932e-05
0.000973564
2.54795e-05
0.000948495
2.50685e-05
0.000923835
2.46605e-05
0.00089958
2.42559e-05
0.000875725
2.38549e-05
0.000852267
2.34579e-05
0.000829203
2.30651e-05
0.000806526
2.26767e-05
0.000784233
2.22931e-05
0.000762319
2.19144e-05
0.000740779
2.15409e-05
0.000719606
2.11728e-05
0.000698796
2.08102e-05
0.000678343
2.04534e-05
0.000658241
2.01026e-05
0.000638483
1.97578e-05
0.000619064
1.94194e-05
0.000599977
1.90874e-05
0.000581215
1.87619e-05
0.000562772
1.84431e-05
0.000544641
1.81312e-05
0.000526815
1.78261e-05
0.000509287
1.75281e-05
0.00049205
1.72371e-05
0.000475097
1.69535e-05
0.00045842
1.66771e-05
0.000442012
1.64081e-05
0.000425866
1.61466e-05
0.000409973
1.58926e-05
0.000394327
1.56462e-05
0.000378919
1.54075e-05
0.000363743
1.51765e-05
0.00034879
1.49532e-05
0.000334052
1.47378e-05
0.000319522
1.45302e-05
0.000305192
1.43305e-05
0.000291053
1.41387e-05
0.000277098
1.3955e-05
0.000263319
1.37792e-05
0.000249707
1.36116e-05
0.000236255
1.3452e-05
0.000222955
1.33005e-05
0.000209798
1.31571e-05
0.000196776
1.3022e-05
0.000183881
1.2895e-05
0.000171104
1.27763e-05
0.000158438
1.26658e-05
0.000145875
1.25636e-05
0.000133405
1.24697e-05
0.000121021
1.23842e-05
0.000108714
1.2307e-05
9.64758e-05
1.22382e-05
8.4298e-05
1.21778e-05
7.21724e-05
1.21256e-05
6.00911e-05
1.20812e-05
4.80489e-05
1.2042e-05
3.60317e-05
1.20171e-05
2.40161e-05
1.20157e-05
1.20059e-05
1.20104e-05
1.20059e-05
-5.16582e-06
1.1467e-05
-1.13653e-05
1.21546e-05
-1.75878e-05
1.20555e-05
-2.3682e-05
1.19559e-05
-2.96935e-05
1.18935e-05
-3.56544e-05
1.18488e-05
-4.15966e-05
1.18344e-05
-4.75365e-05
1.18401e-05
-5.34843e-05
1.18608e-05
-5.9445e-05
1.18906e-05
-6.5422e-05
1.19291e-05
-7.14169e-05
1.19696e-05
-7.74311e-05
1.20123e-05
-8.34652e-05
1.20579e-05
-8.9521e-05
1.21069e-05
-9.55995e-05
1.21566e-05
-0.000101702
1.22076e-05
-0.000107829
1.22595e-05
-0.000113983
1.23137e-05
-0.000120163
1.23665e-05
-0.000126371
1.24224e-05
-0.000132608
1.24794e-05
-0.000138873
1.25372e-05
-0.00014517
1.2598e-05
-0.000151498
1.26598e-05
-0.000157858
1.27231e-05
-0.000164251
1.27892e-05
-0.000170679
1.2858e-05
-0.000177142
1.29276e-05
-0.000183643
1.30002e-05
-0.000190181
1.30755e-05
-0.000196758
1.31532e-05
-0.000203375
1.32334e-05
-0.000210034
1.33162e-05
-0.000216736
1.34016e-05
-0.000223482
1.34896e-05
-0.000230273
1.35802e-05
-0.000237111
1.36735e-05
-0.000243996
1.37693e-05
-0.000250931
1.38678e-05
-0.000257916
1.3969e-05
-0.000264953
1.40727e-05
-0.000272043
1.41791e-05
-0.000279188
1.4288e-05
-0.000286388
1.43995e-05
-0.000293645
1.45136e-05
-0.00030096
1.46303e-05
-0.000308335
1.47496e-05
-0.000315771
1.48715e-05
-0.000323269
1.4996e-05
-0.000330831
1.51231e-05
-0.000338457
1.52528e-05
-0.00034615
1.53851e-05
-0.00035391
1.552e-05
-0.000361739
1.56576e-05
-0.000369638
1.57978e-05
-0.000377608
1.59407e-05
-0.000385651
1.60863e-05
-0.000393768
1.62345e-05
-0.000401961
1.63855e-05
-0.00041023
1.65391e-05
-0.000418578
1.66954e-05
-0.000427005
1.68545e-05
-0.000435513
1.70163e-05
-0.000444104
1.71808e-05
-0.000452778
1.7348e-05
-0.000461537
1.7518e-05
-0.000470382
1.76907e-05
-0.000479315
1.78661e-05
-0.000488337
1.80443e-05
-0.000497449
1.82252e-05
-0.000506654
1.84089e-05
-0.000515952
1.85953e-05
-0.000525344
1.87845e-05
-0.000534832
1.89764e-05
-0.000544417
1.91711e-05
-0.000554102
1.93685e-05
-0.000563886
1.95686e-05
-0.000573772
1.97715e-05
-0.00058376
1.99772e-05
-0.000593853
2.01855e-05
-0.000604051
2.03966e-05
-0.000614356
2.06104e-05
-0.00062477
2.08269e-05
-0.000635293
2.10461e-05
-0.000645927
2.1268e-05
-0.000656673
2.14926e-05
-0.000667533
2.17198e-05
-0.000678508
2.19496e-05
-0.000689599
2.21821e-05
-0.000700808
2.24172e-05
-0.000712135
2.26549e-05
-0.000723583
2.28952e-05
-0.000735152
2.3138e-05
-0.000746844
2.33834e-05
-0.00075866
2.36313e-05
-0.0007706
2.38817e-05
-0.000782668
2.41346e-05
-0.000794863
2.43898e-05
-0.000807187
2.46475e-05
-0.000819641
2.49076e-05
-0.000832226
2.517e-05
-0.000844943
2.54347e-05
-0.000857794
2.57017e-05
-0.00087078
2.59709e-05
-0.000883901
2.62424e-05
-0.000897159
2.65159e-05
-0.000910555
2.67916e-05
-0.00092409
2.70694e-05
-0.000937765
2.73491e-05
-0.00095158
2.76308e-05
-0.000965538
2.79145e-05
-0.000979638
2.82e-05
-0.000993882
2.84873e-05
-0.00100827
2.87763e-05
-0.0010228
2.9067e-05
-0.00103748
2.93594e-05
-0.00105231
2.96533e-05
-0.00106729
2.99487e-05
-0.00108241
3.02455e-05
-0.00109768
3.05437e-05
-0.0011131
3.08431e-05
-0.00112867
3.11437e-05
-0.0011444
3.14454e-05
-0.00116027
3.17481e-05
-0.0011763
3.20517e-05
-0.00119248
3.23562e-05
-0.00120881
3.26615e-05
-0.00122529
3.29674e-05
-0.00124193
3.32739e-05
-0.00125872
3.35808e-05
-0.00127567
3.38881e-05
-0.00129276
3.41956e-05
-0.00131002
3.45033e-05
-0.00132742
3.48109e-05
-0.00134498
3.51184e-05
-0.0013627
3.54257e-05
-0.00138056
3.57327e-05
-0.00139858
3.60391e-05
-0.00141676
3.63449e-05
-0.00143508
3.665e-05
-0.00145356
3.69542e-05
-0.00147219
3.72573e-05
-0.00149097
3.75592e-05
-0.0015099
3.78597e-05
-0.00152898
3.81588e-05
-0.00154821
3.84562e-05
-0.00156759
3.87517e-05
-0.00158711
3.90452e-05
-0.00160678
3.93366e-05
-0.0016266
3.96255e-05
-0.00164655
3.9912e-05
-0.00166665
4.01956e-05
-0.00168689
4.04763e-05
-0.00170727
4.07539e-05
-0.00172779
4.10282e-05
-0.00174844
4.12989e-05
-0.00176922
4.15658e-05
-0.00179014
4.18288e-05
-0.00181119
4.20876e-05
-0.00183236
4.2342e-05
-0.00185366
4.25918e-05
-0.00187508
4.28366e-05
-0.00189662
4.30763e-05
-0.00191828
4.33107e-05
-0.00194005
4.35394e-05
-0.00196193
4.37622e-05
-0.00198392
4.3979e-05
-0.00200602
4.41893e-05
-0.00202822
4.4393e-05
-0.00205052
4.45897e-05
-0.00207291
4.47793e-05
-0.0020954
4.49614e-05
-0.00211797
4.51357e-05
-0.00214062
4.53019e-05
-0.00216336
4.54598e-05
-0.00218616
4.5609e-05
-0.00220904
4.57493e-05
-0.00223199
4.58803e-05
-0.00225499
4.60018e-05
-0.00227805
4.61133e-05
-0.00230117
4.62147e-05
-0.00232432
4.63056e-05
-0.00234752
4.63856e-05
-0.00237075
4.64544e-05
-0.00239401
4.65117e-05
-0.0024173
4.65571e-05
-0.0024406
4.65904e-05
-0.00246391
4.66111e-05
-0.00248723
4.66189e-05
-0.00251054
4.66135e-05
-0.00253385
4.65944e-05
-0.00255713
4.65615e-05
-0.0025804
4.65141e-05
-0.00260363
4.64521e-05
-0.00262683
4.6375e-05
-0.00264997
4.62825e-05
-0.00267307
4.61741e-05
-0.0026961
4.60496e-05
-0.00271907
4.59085e-05
-0.00274195
4.57504e-05
-0.00276475
4.55751e-05
-0.00278745
4.5382e-05
-0.00281004
4.51708e-05
-0.00283252
4.49411e-05