/*--------------------------------*- C++ -*----------------------------------*\
| =========                 |                                                 |
| \\      /  F ield         | OpenFOAM: The Open Source CFD Toolbox           |
|  \\    /   O peration     | Version:  2412                                  |
|   \\  /    A nd           | Website:  www.openfoam.com                      |
|    \\/     M anipulation  |                                                 |
\*---------------------------------------------------------------------------*/
FoamFile
{
    version     2.0;
    format      ascii;
    arch        "LSB;label=32;scalar=64";
    class       volScalarField;
    location    "0.7";
    object      alpha.gasoline;
}
// * * * * * * * * * * * * * * * * * * * * * * * * * * * * * * * * * * * * * //

dimensions      [0 0 0 0 0 0 0];

internalField   nonuniform List<scalar> 
6400
(
1
1.00001
1
0.999999
0.999999
1
1
1
1
1
1
1
1
1
1
1
1
1
1
1
1
1
1
1
1
1
1
1
1
1
1
1
1
1
1
1
1
1
1
1
1
1
1
1
1
1
1
1
1
1
1
1
1
1
1
1
1
1
1
1
1
1
1
1
1
1
1
1
1
1
1
1
1
1
1
1
1
1
1
1
0.999993
1
1
1
1
1
1
1
1
1
1
1
1
1
1
1
1
1
1
1
1
1
1
1
1
1
1
1
1
1
1
1
1
1
1
1
1
1
1
1
1
1
1
1
1
1
1
1
1
1
1
1
1
1
1
1
1
1
1
0.999999
1
1
1
1
1
1
1
1
1
1
1
1
1
1
1
1
1
1
1
1
1
0.999999
1
1
1
1
1
1
1
1
1
1
1
1
1
1
1
1
1
1
1
1
1
1
1
1
1
1
1
1
1
1
1
1
1
1
1
1
1
1
1
1
1
1
1
1
1
1
1
1
1
1
1
1
1
1
1
1
1
1
1
1
1
1
1
1
1
1
1
1
1
1
1
1
1
1
1
1
1
1
1
0.999999
1
1
1
1
1
1
1
1
1
1
1
1
1
1
1
1
1
1
1
1
1
1
1
1
1
1
1
1
1
1
1
1
1
1
1
1
1
1
1
1
1
1
1
1
1
1
1
1
1
1
1
1
1
1
1
1
1
1
1
1
1
1
1
1
1
1
1
1
1
1
1
1
1
1
1
1
1
1
1
1
1
1
1
1
1
1
1
1
1
1
1
1
1
1
1
1
1
1
1
1
1
1
1
1
1
1
1
1
1
1
1
1
1
1
1
1
1
1
1
1
1
1
1
1
1
1
1
1
1
1
1
1
1
1
1
1
1
1
1
1
1
1
1
1
1
1
1
1
1
1
1
1
1
1
1
1
1
1
1
1
1
1
1
1
1
1
1
1
1
1
1
1
1
1
1
1
1
1
1
1
1
1
1
1
1
1
1
1
1
1
1
1
1
1
1
1
1
1
1
1
1
1
1
1
1
1
1
1
1
1
1
1
1
1
1
1
1
1
1
1
1
1
1
1
1
1
1
1
1
1
1
1
1
1
1
1
1
1
1
1
1
1
1
1
1
1
1
1
1
1
1
1
1
1
1
1
1
1
1
1
1
1
1
1
1
1
1
1
1
1
1
1
1
1
1
1
1
1
1
1
1
1
1
1
1
1
1
1
1
1
1
1
1
1
1
1
1
1
1
1
1
1
1
1
1
1
1
1
1
1
1
1
1
1
1
1
1
1
1
1
1
1
1
1
1
1
1
1
1
1
1
1
1
1
1
1
1
1
1
1
1
1
1
1
1
1
1
1
1
1
1
1
1
1
1
1
1
1
1
1
1
1
1
1
1
1
1
1
1
1
1
1
1
1
1
1
1
1
1
1
1
1
1
1
1
1
1
1
1
1
1
1
1
1
1
1
1
1
1
1
1
1
1
1
1
1
1
1
1
1
1
1
1
1
1
1
1
1
1
1
1
1
1
1
1
1
1
1
1
1
1
1
1
1
1
1
1
1
1
1
1
1
1
1
1
1
1
1
1
1
1
1
1
1
1
1
1
1
1
1
1
1
1
1
1
1
1
1
1
1
1
1
1
1
1
1
1
1
1
1
1
1
1
1
1
1
1
1
1
1
1
1
1
1
1
1
1
1
1
1
1
1
1
1
1
1
1
1
1
1
1
1
1
1
1
1
1
1
1
1
1
1
1
1
1
1
1
1
1
1
1
1
1
1
1
1
1
1
1
1
1
1
1
1
1
1
1
1
1
1
1
1
1
1
1
1
1
1
1
1
1
1
1
1
1
1
1
1
1
1
1
1
1
1
1
1
1
1
1
1
1
1
1
1
1
1
1
1
1
1
1
1
1
1
1
1
1
1
1
1
1
1
1
1
1
1
1
1
1
1
1
1
1
1
1
1
1
1
1
1
1
1
1
1
1
1
1
1
1
1
1
1
1
1
1
1
1
1
1
1
1
1
1
1
1
1
1
1
1
1
1
1
1
1
1
1
1
1
1
1
1
1
1
1
1
1
1
1
1
1
1
1
1
1
1
1
1
1
1
1
1
1
1
1
1
1
1
1
1
1
1
1
1
1
1
1
1
1
1
1
1
1
1
1
1
1
1
1
1
1
1
1
1
1
1
1
1
1
1
1
1
1
1
1
1
1
1
1
1
1
1
1
1
1
1
1
1
1
1
1
1
1
1
1
1
1
1
1
1
1
1
1
1
1
1
1
1
1
1
1
1
1
1
1
1
1
1
1
1
1
1
1
1
1
1
1
1
1
1
1
1
1
1
1
1
1
1
1
1
1
1
1
1
1
1
1
1
1
1
1
1
1
1
1
1
1
1
1
1
1
1
1
1
1
1
1
1
1
1
1
1
1
1
1
1
1
1
1
1
1
1
1
1
1
1
1
0.999999
0.999994
0.999993
0.999998
1
1
1
1
0.999999
1
1
1
1
1
1
1
1
1
1
1
1
1
1
1
1
1
1
1
1
1
1
1
1
1
1
1
1
1
1
1
1
1
1
1
1
1
1
1
1
1
1
1
1
1
1
1
1
1
1
1
1
1
1
1
1
1
1
1
1
1
1
1
1
1
1
1
1
1
1
0.999997
0.999974
0.999892
0.999865
0.999962
0.999995
1
1
1
1
1
1
1
1
1
1
1
1
1
1
1
1
1
1
1
1
1
1
1
1
1
1
1
1
1
1
1
1
1
1
1
1
1
1
1
1
1
1
1
1
1
1
1
1
1
1
1
1
1
1
1
1
1
1
1
1
1
1
1
1
1
1
1
1
1
1
1
1
1
0.999994
0.999941
0.999572
0.998405
0.998066
0.999404
0.999914
0.99999
0.999999
1
1
1
1
1
1
1
1
1
1
1
1
1
1
1
1
1
1
1
1
1
1
1
1
1
1
1
1
1
1
1
1
1
1
1
1
1
1
1
1
1
1
1
1
1
1
1
1
1
1
1
1
1
1
1
1
1
1
1
1
1
1
1
1
1
1
1
1
1
1
0.999994
0.999913
0.998817
0.934464
0.765619
0.739778
0.894384
0.996323
0.999872
0.99999
1
1
1
1
1
1
1
1
1
1
1
1
1
1
1
1
1
1
1
1
1
1
1
1
1
1
1
1
1
1
1
1
1
1
1
1
1
1
1
1
1
1
1
1
1
1
1
1
1
1
1
1
1
1
1
1
1
1
1
1
1
1
1
1
1
1
1
1
1
0.999993
0.99991
0.998948
0.879557
0.35431
0.148439
0.127331
0.257223
0.77662
0.998418
0.999865
0.99999
0.999999
1
1
1
1
1
1
1
1
1
1
1
1
1
1
1
1
1
1
1
1
1
1
1
1
1
1
1
1
1
1
1
1
1
1
1
1
1
1
1
1
1
1
1
1
1
1
1
1
1
1
1
1
1
1
1
1
1
1
1
1
1
1
1
1
1
1
0.999996
0.999927
0.998995
0.941802
0.336343
0.0543448
0.063344
0.0662537
0.0563935
0.16943
0.809653
0.998015
0.999821
0.99999
1
1
1
1
1
1
1
1
1
1
1
1
1
1
1
1
1
1
1
1
1
1
1
1
1
1
1
1
1
1
1
1
1
1
1
1
1
1
1
1
1
1
1
1
1
1
1
1
1
1
1
1
1
1
1
1
1
1
1
1
1
1
1
1
1
1
0.999999
0.999967
0.998963
0.849182
0.130073
0.0505071
0.139975
0.164037
0.0502248
0.0145091
0.548256
0.9967
0.999876
0.999998
1
1
1
1
1
1
1
1
1
1
1
1
1
1
1
1
1
1
1
1
1
1
1
1
1
1
1
1
1
1
1
1
1
0.0315665
0.0319736
0.0324454
0.0330576
0.0338579
0.0348658
0.0360936
0.0375539
0.039262
0.0412361
0.043498
0.0460742
0.0489966
0.0523044
0.0560451
0.0602773
0.0650737
0.0705251
0.0767483
0.0839232
0.0924605
0.102799
0.114573
0.126334
0.139973
0.160158
0.191631
0.237413
0.306461
0.412908
0.555383
0.778761
0.969927
0.999967
0.998963
0.847168
0.174966
0.00533984
0.0528205
0.164859
0.165106
0.0681119
0.00376812
0.0467268
0.658468
0.9967
0.999876
0.994294
0.830724
0.577688
0.431328
0.32599
0.252812
0.203947
0.169146
0.146
0.130871
0.118898
0.106906
0.095968
0.0867948
0.0792362
0.072731
0.0670471
0.0620547
0.0576563
0.0537739
0.0503449
0.0473185
0.0446531
0.0423143
0.0402744
0.0385101
0.0370023
0.0357354
0.0346958
0.0338701
0.0332384
0.0327518
0.0323337
5.34437e-07
4.66153e-07
5.10313e-07
5.51025e-07
5.97285e-07
6.57155e-07
7.35793e-07
8.38722e-07
9.73653e-07
1.1517e-06
1.38926e-06
1.71158e-06
2.15881e-06
2.80154e-06
3.76768e-06
5.31838e-06
8.05482e-06
1.35835e-05
2.69119e-05
6.49406e-05
0.000177722
0.00119012
0.00851901
0.0163243
0.0173027
0.00811609
0.00278409
0.00216198
0.00591454
0.0163401
0.115164
0.347958
0.568394
0.662591
0.467086
0.134939
0.00367313
0.000756331
0.0359202
0.165106
0.164859
0.0188493
0.00037466
0.00322808
0.0669157
0.341048
0.677774
0.632814
0.449782
0.192143
0.0271668
0.00783897
0.00311165
0.00202213
0.00581071
0.0172768
0.0181186
0.012394
0.00291757
0.000254697
9.16627e-05
3.55611e-05
1.67532e-05
9.47231e-06
6.07074e-06
4.22129e-06
3.10066e-06
2.36989e-06
1.8681e-06
1.5097e-06
1.24746e-06
1.05203e-06
9.04481e-07
7.92399e-07
7.06658e-07
6.42189e-07
5.91584e-07
5.47722e-07
5.00346e-07
5.72875e-07
5.51331e-09
4.91844e-09
5.45637e-09
6.03951e-09
6.78329e-09
7.8085e-09
9.23507e-09
1.12294e-08
1.40518e-08
1.81197e-08
2.41266e-08
3.27588e-08
4.47452e-08
6.70296e-08
1.06872e-07
1.85292e-07
3.62172e-07
8.44937e-07
2.44614e-06
8.3222e-06
2.87797e-05
8.46955e-05
0.000174335
0.000185024
9.61181e-05
0.000107045
5.35495e-05
0.000403746
0.00774681
0.01276
0.0101144
0.0187826
0.0269629
0.0326174
0.0166488
0.00292407
0.000297205
2.54483e-05
0.0229424
0.16354
0.162759
0.0139576
1.65956e-05
0.000346045
0.00317184
0.00659936
0.0390395
0.0338686
0.025517
0.0137181
0.0164478
0.0113717
0.00109502
4.72685e-05
4.35555e-05
7.32545e-05
0.000161589
0.000201341
0.000117105
4.35875e-05
1.29592e-05
3.6952e-06
1.18849e-06
4.72968e-07
2.29586e-07
1.27973e-07
7.84658e-08
5.15698e-08
3.69754e-08
2.72679e-08
2.03384e-08
1.56873e-08
1.24819e-08
1.02308e-08
8.62451e-09
7.4807e-09
6.6442e-09
5.9953e-09
5.40148e-09
6.05197e-09
7.27566e-11
6.42031e-11
7.26232e-11
8.25397e-11
9.58256e-11
1.14877e-10
1.42685e-10
1.83832e-10
2.46101e-10
3.43134e-10
4.99908e-10
7.64761e-10
1.23769e-09
2.1452e-09
4.05708e-09
8.62223e-09
2.15419e-08
6.65063e-08
2.52627e-07
1.07112e-06
4.33936e-06
1.42632e-05
3.25011e-05
3.89626e-05
3.37264e-05
2.14913e-05
3.05484e-05
0.000105644
0.000264863
0.000476152
0.00134824
0.00200867
0.00121651
0.000384778
0.000533873
0.000220839
2.98057e-05
2.98021e-05
0.02549
0.158773
0.157332
0.0222897
1.82545e-05
1.96083e-05
0.000342619
0.00078263
0.000573226
0.00150922
0.00210713
0.00124557
0.000182598
0.000100579
8.18728e-05
3.06727e-05
2.03657e-05
2.93133e-05
3.8702e-05
3.85714e-05
2.03054e-05
6.85338e-06
1.81008e-06
4.31753e-07
1.07117e-07
3.15676e-08
1.16548e-08
5.20267e-09
2.65928e-09
1.49923e-09
9.10906e-10
5.87811e-10
3.99451e-10
2.84256e-10
2.11003e-10
1.6298e-10
1.30655e-10
1.08726e-10
9.33447e-11
8.19893e-11
7.24209e-11
8.195e-11
1.57887e-12
1.42649e-12
1.62753e-12
1.88171e-12
2.23965e-12
2.77079e-12
3.57164e-12
4.80115e-12
6.74004e-12
9.90477e-12
1.52965e-11
2.49844e-11
4.35858e-11
8.35612e-11
1.85543e-10
4.7474e-10
1.46671e-09
5.62603e-09
2.58682e-08
1.28308e-07
5.87847e-07
2.10731e-06
5.22317e-06
7.26166e-06
7.05849e-06
5.98263e-06
5.93466e-06
3.93197e-06
2.41949e-06
2.02699e-06
1.22244e-06
4.10648e-05
0.000148782
5.32341e-05
2.43201e-05
7.27937e-06
2.54109e-05
2.8576e-05
0.0465218
0.14966
0.147397
0.0423421
1.62594e-05
2.16743e-05
1.54042e-05
4.47693e-05
2.76163e-05
0.000183171
9.51952e-05
1.56304e-06
2.0436e-06
1.74254e-06
3.89094e-06
6.42242e-06
5.98772e-06
6.47908e-06
7.44399e-06
6.36492e-06
3.06945e-06
9.62116e-07
2.34195e-07
4.98529e-08
1.0432e-08
2.44669e-09
7.08893e-10
2.56178e-10
1.09908e-10
5.5405e-11
3.08689e-11
1.85136e-11
1.18063e-11
7.94261e-12
5.60824e-12
4.14413e-12
3.19704e-12
2.57541e-12
2.15533e-12
1.86001e-12
1.62888e-12
1.79893e-12
3.26823e-14
2.95812e-14
3.46041e-14
4.13925e-14
5.15079e-14
6.73966e-14
9.30045e-14
1.35535e-13
2.08964e-13
3.41684e-13
5.94503e-13
1.10565e-12
2.2102e-12
4.76991e-12
1.10771e-11
2.86047e-11
1.05002e-10
4.75447e-10
2.52738e-09
1.41932e-08
7.20102e-08
2.76962e-07
7.33355e-07
1.06807e-06
1.09396e-06
9.38921e-07
7.01638e-07
6.22751e-07
5.74702e-07
5.04145e-07
3.27108e-07
1.2254e-07
4.68444e-07
1.05626e-05
1.57908e-05
6.47225e-06
3.07771e-05
2.88112e-05
0.0472632
0.0628541
0.0528889
0.0555502
1.35573e-05
7.44629e-05
1.21449e-05
1.26084e-06
3.89955e-06
5.63136e-06
4.71308e-07
3.63101e-07
4.85965e-07
5.31554e-07
5.34735e-07
6.09022e-07
8.29569e-07
1.01405e-06
1.11284e-06
9.13731e-07
4.11268e-07
1.21632e-07
2.78344e-08
5.46904e-09
1.01853e-09
2.03002e-10
5.43348e-11
1.78793e-11
6.94535e-12
3.03552e-12
1.4615e-12
7.64073e-13
4.29752e-13
2.5842e-13
1.65371e-13
1.12281e-13
8.06535e-14
6.12775e-14
4.89514e-14
4.07695e-14
3.47826e-14
3.83575e-14
1.85928e-15
1.74306e-15
2.09419e-15
2.59022e-15
3.37675e-15
4.67502e-15
6.87234e-15
1.07129e-14
1.76874e-14
3.08753e-14
5.6801e-14
1.09338e-13
2.15309e-13
4.0348e-13
6.99981e-13
1.95702e-12
7.81716e-12
3.93013e-11
2.33827e-10
1.45171e-09
8.02031e-09
3.27009e-08
9.15135e-08
1.40912e-07
1.50366e-07
1.33615e-07
1.12226e-07
9.91011e-08
8.88115e-08
8.75081e-08
1.00087e-07
4.97093e-08
1.10181e-08
3.21929e-09
1.66307e-09
4.58799e-09
8.97595e-05
3.12732e-05
0.00969938
0.00764045
0.00607375
0.0148169
1.10939e-05
7.88095e-05
5.37253e-06
2.12786e-08
3.87169e-08
1.6112e-08
2.00205e-08
6.87303e-08
7.83789e-08
8.21914e-08
8.68408e-08
1.02204e-07
1.22436e-07
1.41686e-07
1.49123e-07
1.16501e-07
4.94641e-08
1.39427e-08
3.04347e-09
5.64599e-10
1.0849e-10
2.12974e-11
4.57828e-12
1.30159e-12
6.0025e-13
2.99875e-13
1.46863e-13
7.4169e-14
3.94052e-14
2.21575e-14
1.32165e-14
8.37304e-15
5.63649e-15
4.04029e-15
3.07831e-15
2.47605e-15
2.05591e-15
2.18734e-15
4.88846e-17
4.60669e-17
5.65234e-17
7.20603e-17
9.77556e-17
1.42277e-16
2.22256e-16
3.72453e-16
6.69548e-16
1.29169e-15
2.67617e-15
5.9577e-15
1.42387e-14
3.62676e-14
9.75373e-14
2.62826e-13
7.21437e-13
3.20798e-12
2.04317e-11
1.37806e-10
8.17675e-10
3.50159e-09
1.02946e-08
1.66528e-08
1.85195e-08
1.73912e-08
1.53589e-08
1.33051e-08
1.13628e-08
1.05986e-08
1.06212e-08
1.96312e-08
1.44659e-08
2.0424e-09
1.44195e-09
1.66307e-09
9.16074e-05
3.96631e-05
0.00176744
0.000928427
0.00145939
0.000684581
9.23178e-06
5.16461e-05
1.95317e-08
1.20816e-08
2.23576e-08
6.23224e-09
1.26958e-08
8.5025e-09
9.89857e-09
1.06506e-08
1.20133e-08
1.45493e-08
1.64008e-08
1.77766e-08
1.78995e-08
1.33813e-08
5.39887e-09
1.46531e-09
3.08201e-10
6.53909e-11
1.21491e-11
3.32267e-12
7.97647e-13
2.01796e-13
6.19877e-14
2.20246e-14
8.66388e-15
3.72337e-15
1.73717e-15
8.76669e-16
4.77318e-16
2.79991e-16
1.76734e-16
1.20189e-16
8.78148e-17
6.84268e-17
5.55717e-17
5.88446e-17
1.21308e-18
1.15032e-18
1.4316e-18
1.86619e-18
2.60656e-18
3.93389e-18
6.41986e-18
1.13254e-17
2.16039e-17
4.46043e-17
9.98531e-17
2.42977e-16
6.44431e-16
1.86895e-15
5.91009e-15
1.84409e-14
6.69807e-14
3.0872e-13
1.7372e-12
1.25373e-11
7.7024e-11
3.44469e-10
1.05985e-09
1.83519e-09
2.16427e-09
2.15339e-09
1.9976e-09
1.77648e-09
1.53376e-09
1.45177e-09
1.4666e-09
2.48417e-09
5.44402e-09
1.96289e-09
1.39407e-09
5.40885e-06
9.27319e-05
5.39233e-05
0.000260728
0.000642963
0.000749039
0.000267065
4.08822e-06
2.53795e-06
2.3847e-06
9.54063e-09
2.87122e-08
3.55365e-09
1.29715e-09
1.33545e-09
1.40396e-09
1.46828e-09
1.63932e-09
1.93726e-09
2.09017e-09
2.13581e-09
2.01523e-09
1.40704e-09
5.43436e-10
1.54879e-10
3.68434e-11
8.13717e-12
2.19429e-12
3.97782e-13
6.96715e-14
1.44549e-14
3.60898e-15
1.08718e-15
3.77372e-16
1.46384e-16
6.26179e-17
2.93284e-17
1.49738e-17
8.31291e-18
5.00882e-18
3.27824e-18
2.32271e-18
1.76835e-18
1.41491e-18
1.48875e-18
3.3492e-20
3.205e-20
4.04456e-20
5.38724e-20
7.74204e-20
1.21041e-19
2.05981e-19
3.81303e-19
7.67749e-19
1.68181e-18
4.01103e-18
1.04223e-17
2.94716e-17
9.00389e-17
2.91168e-16
9.85841e-16
4.47333e-15
2.53278e-14
1.83433e-13
1.39205e-12
7.76622e-12
3.89971e-11
1.20441e-10
2.29198e-10
2.86373e-10
2.97914e-10
2.901e-10
2.79719e-10
2.85952e-10
3.42486e-10
4.7369e-10
8.12732e-10
2.24514e-09
1.39407e-09
1.39407e-09
1.70348e-05
9.27921e-05
4.88104e-05
9.57447e-05
0.000310546
0.000322571
7.35173e-05
2.36174e-05
1.5719e-05
1.20807e-05
8.25716e-09
1.90699e-08
3.4362e-09
5.3138e-10
4.74463e-10
3.73938e-10
2.82533e-10
2.67125e-10
2.87555e-10
2.96719e-10
2.93249e-10
2.59113e-10
1.63656e-10
6.41353e-11
1.77118e-11
5.68463e-12
1.34832e-12
2.25203e-13
3.05224e-14
4.57445e-15
8.3699e-16
1.92365e-16
5.34172e-17
1.71016e-17
6.1469e-18
2.44979e-18
1.07557e-18
5.18143e-19
2.7328e-19
1.57543e-19
9.93679e-20
6.83405e-20
5.08776e-20
4.01246e-20
4.18288e-20
9.86556e-22
9.52696e-22
1.21828e-21
1.65626e-21
2.44546e-21
3.95347e-21
7.00044e-21
1.3564e-20
2.87429e-20
6.65933e-20
1.68674e-19
4.6687e-19
1.40802e-18
4.57897e-18
1.56536e-17
5.87737e-17
2.93181e-16
1.83708e-15
1.50796e-14
1.50233e-13
1.2838e-12
4.73042e-12
1.31827e-11
2.74101e-11
3.68757e-11
5.03161e-11
6.75736e-11
9.05936e-11
1.31161e-10
1.9263e-10
3.02649e-10
6.05247e-10
1.74192e-09
1.391e-09
1.1154e-09
4.10168e-06
8.68031e-05
3.29681e-05
4.59644e-05
0.000102203
9.27324e-05
5.09452e-05
3.92183e-05
3.72406e-05
1.15697e-05
7.47789e-09
6.89561e-09
5.53387e-09
3.48927e-10
3.14618e-10
2.25508e-10
1.35864e-10
9.37644e-11
7.11283e-11
5.45294e-11
4.05475e-11
3.21732e-11
1.89065e-11
7.33528e-12
3.05874e-12
7.3491e-13
1.23978e-13
1.63821e-14
2.1622e-15
3.05384e-16
5.12175e-17
1.07156e-17
2.7257e-18
8.06042e-19
2.69381e-19
1.00408e-19
4.14738e-20
1.89129e-20
9.50347e-21
5.25439e-21
3.20012e-21
2.13976e-21
1.55958e-21
1.2132e-21
1.25319e-21
3.05828e-23
2.97984e-23
3.85787e-23
5.34606e-23
8.09535e-23
1.35026e-22
2.48103e-22
5.01568e-22
1.11444e-21
2.71946e-21
7.28249e-21
2.13748e-20
6.84908e-20
2.36826e-19
8.62358e-19
3.54082e-18
1.91738e-17
1.30846e-16
1.14117e-15
1.20326e-14
1.27538e-13
6.87277e-13
2.37672e-12
5.56134e-12
9.82582e-12
1.487e-11
2.20364e-11
4.18456e-11
8.97334e-11
1.52063e-10
2.58693e-10
5.28024e-10
1.79414e-09
1.38417e-09
8.24175e-10
2.86198e-05
2.96521e-05
3.02364e-05
3.02364e-05
3.78357e-05
4.59863e-05
4.59863e-05
4.11142e-05
3.77898e-05
1.1966e-05
8.25716e-09
1.06719e-08
1.90889e-08
2.55983e-10
2.52285e-10
1.87099e-10
9.53728e-11
4.50986e-11
2.38654e-11
1.66508e-11
1.16166e-11
7.20391e-12
3.55679e-12
1.26157e-12
3.29937e-13
5.91863e-14
8.734e-15
1.16802e-15
1.48983e-16
1.98965e-17
3.09568e-18
5.96302e-19
1.40188e-19
3.85736e-20
1.20639e-20
4.22954e-21
1.65175e-21
7.16076e-22
3.44052e-22
1.82991e-22
1.07882e-22
7.02703e-23
5.0216e-23
3.85682e-23
3.94838e-23
9.89145e-25
9.72245e-25
1.27324e-24
1.79607e-24
2.7844e-24
4.78109e-24
9.0922e-24
1.91192e-23
4.43902e-23
1.13649e-22
3.20451e-22
9.93351e-22
3.37062e-21
1.23806e-20
4.82512e-20
2.12697e-19
1.24392e-18
9.14327e-18
8.32918e-17
9.05995e-16
9.16482e-15
5.9182e-14
2.53475e-13
7.19622e-13
1.5616e-12
2.9851e-12
6.88733e-12
2.17537e-11
6.51302e-11
1.41592e-10
2.34698e-10
7.42621e-10
4.30826e-09
1.71294e-09
8.14826e-10
2.70307e-05
3.02187e-05
2.65946e-05
3.01054e-05
4.35514e-05
4.78759e-05
3.26303e-05
2.82951e-05
2.54041e-05
6.71334e-06
8.9731e-09
1.17268e-08
2.34653e-08
1.06032e-09
1.77866e-10
1.78086e-10
6.57864e-11
2.17257e-11
7.22117e-12
3.39729e-12
1.93808e-12
9.95769e-13
4.0889e-13
1.1853e-13
2.40933e-14
4.15141e-15
6.10792e-16
7.96397e-17
9.81459e-18
1.25057e-18
1.82911e-19
3.28461e-20
7.20583e-21
1.85884e-21
5.47537e-22
1.8157e-22
6.73682e-23
2.78814e-23
1.28549e-23
6.59694e-24
3.77402e-24
2.39936e-24
1.68355e-24
1.27787e-24
1.29682e-24
3.3122e-26
3.28347e-26
4.34592e-26
6.23237e-26
9.87486e-26
1.74192e-25
3.41991e-25
7.45872e-25
1.80381e-24
4.82872e-24
1.4285e-23
4.66078e-23
1.67019e-22
6.51184e-22
2.72431e-21
1.26713e-20
7.94869e-20
6.223e-19
5.86163e-18
6.64037e-17
6.43944e-16
4.09062e-15
1.83698e-14
5.83e-14
1.53301e-13
5.18253e-13
2.66183e-12
1.2887e-11
4.65608e-11
1.22194e-10
2.05298e-10
1.81962e-09
6.63112e-09
1.97375e-09
8.24175e-10
2.60868e-05
1.3221e-05
1.50075e-05
2.62477e-05
6.50304e-05
6.8093e-05
2.88964e-05
8.90939e-06
5.90305e-06
1.51774e-06
9.5673e-09
1.09475e-08
2.34643e-08
1.01846e-09
2.25241e-10
1.53305e-10
4.72797e-11
1.23028e-11
2.5129e-12
5.30496e-13
1.86561e-13
8.20994e-14
3.06654e-14
8.20296e-15
1.68539e-15
2.84589e-16
4.08203e-17
5.17985e-18
6.18632e-19
7.57485e-20
1.05266e-20
1.78167e-21
3.6803e-22
8.96429e-23
2.50192e-23
7.88886e-24
2.79369e-24
1.1082e-24
4.91986e-25
2.44315e-25
1.35953e-25
8.45227e-26
5.83147e-26
4.37841e-26
4.4058e-26
1.14043e-27
1.13993e-27
1.52367e-27
2.21861e-27
3.58681e-27
6.48689e-27
1.31175e-26
2.9593e-26
7.43273e-26
2.07399e-25
6.41711e-25
2.19713e-24
8.29484e-24
3.42847e-23
1.54031e-22
7.67326e-22
4.97586e-21
4.10756e-20
4.11856e-19
4.68362e-18
4.38158e-17
2.85017e-16
1.33727e-15
4.86301e-15
2.13242e-14
1.71552e-13
1.48521e-12
8.74194e-12
3.40499e-11
9.87201e-11
2.25422e-10
1.91895e-09
6.62999e-09
1.77716e-09
7.99045e-10
2.50546e-06
2.24733e-06
7.77166e-06
0.000107223
0.000169859
0.000329532
0.000131909
1.31105e-05
5.4185e-07
3.28625e-07
9.7098e-09
9.90641e-09
1.71977e-08
4.01958e-10
2.62162e-10
1.2491e-10
3.68335e-11
8.51116e-12
1.3133e-12
1.44578e-13
2.12311e-14
6.46081e-15
2.22082e-15
5.79124e-16
1.15498e-16
1.87832e-17
2.61124e-18
3.22329e-19
3.73828e-20
4.42138e-21
5.88703e-22
9.48034e-23
1.85903e-23
4.30403e-24
1.14459e-24
3.44852e-25
1.17066e-25
4.46783e-26
1.91615e-26
9.23329e-27
5.0092e-27
3.05095e-27
2.07254e-27
1.54066e-27
1.53761e-27
4.01295e-29
4.04357e-29
5.45375e-29
8.05361e-29
1.32645e-28
2.45482e-28
5.10135e-28
1.18749e-27
3.08912e-27
8.95957e-27
2.89116e-26
1.03593e-25
4.11038e-25
1.79766e-24
8.65523e-24
4.71355e-23
3.16488e-22
2.77519e-21
2.91933e-20
3.19822e-19
2.93595e-18
2.01823e-17
1.11099e-16
6.60984e-16
6.65053e-15
8.87234e-14
9.59224e-13
6.37435e-12
2.65237e-11
8.35108e-11
2.7565e-10
1.46914e-09
2.754e-09
7.8357e-10
7.8357e-10
5.97477e-08
4.40255e-07
0.000141974
0.000823909
0.000166623
0.000366069
0.00111643
0.000441031
1.13811e-06
8.61242e-08
1.01227e-08
9.88275e-09
1.79865e-08
1.06287e-09
2.35162e-10
1.02349e-10
2.97809e-11
6.34285e-12
8.33297e-13
6.88539e-14
5.17692e-15
6.78482e-16
1.68474e-16
4.03102e-17
7.6962e-18
1.20449e-18
1.61014e-19
1.92399e-20
2.16866e-21
2.48732e-22
3.19454e-23
4.93417e-24
9.25273e-25
2.0486e-25
5.21793e-26
1.50907e-26
4.93061e-27
1.81693e-27
7.5512e-28
3.5401e-28
1.8765e-28
1.12164e-28
7.51187e-29
5.53335e-29
5.47865e-29
1.43518e-30
1.4576e-30
1.98216e-30
2.96511e-30
4.96786e-30
9.39093e-30
2.00131e-29
4.79575e-29
1.28886e-28
3.87522e-28
1.30072e-27
4.86475e-27
2.02357e-26
9.3406e-26
4.80167e-25
2.83327e-24
2.05913e-23
1.89166e-22
1.98174e-21
2.10193e-20
2.05256e-19
1.72458e-18
1.56355e-17
1.97286e-16
3.1635e-15
5.11633e-14
6.27875e-13
4.67123e-12
2.14911e-11
7.60472e-11
2.85878e-10
8.28751e-10
7.90186e-10
7.82452e-10
2.95272e-09
3.38303e-07
0.000146293
0.00146421
0.00124806
6.90987e-05
0.000118304
0.00175538
0.00201132
0.000842892
6.14593e-07
3.17223e-08
1.01838e-08
1.77934e-08
1.27352e-09
2.48379e-10
8.51664e-11
2.33551e-11
4.59099e-12
5.45171e-13
3.94315e-14
2.24971e-15
1.45871e-16
1.64807e-17
2.91809e-18
5.06777e-19
7.55077e-20
9.68223e-21
1.11003e-21
1.21167e-22
1.34829e-23
1.67976e-24
2.50608e-25
4.5235e-26
9.63101e-27
2.36078e-27
6.58156e-28
2.07758e-28
7.41691e-29
2.99579e-29
1.36983e-29
7.10916e-30
4.17711e-30
2.76143e-30
2.01737e-30
1.9819e-30
5.19104e-32
5.31292e-32
7.2794e-32
1.1019e-31
1.87537e-31
3.61476e-31
7.88391e-31
1.94046e-30
5.37489e-30
1.67114e-29
5.81947e-29
2.26611e-28
9.85586e-28
4.78709e-27
2.61628e-26
1.66182e-25
1.30356e-24
1.1983e-23
1.28179e-22
1.54274e-21
1.99942e-20
2.86191e-19
4.88974e-18
9.15132e-17
1.74359e-15
3.1734e-14
4.43059e-13
3.72922e-12
1.86905e-11
7.04492e-11
2.63553e-10
5.31099e-10
6.04693e-10
2.80174e-09
1.14359e-07
1.84801e-05
0.00167472
0.00199361
0.000631154
5.43008e-05
5.43008e-05
0.000629033
0.00204331
0.00204179
6.16847e-05
5.19917e-07
2.79805e-08
1.73874e-09
6.81456e-10
2.67883e-10
8.24749e-11
2.01853e-11
3.62978e-12
3.9527e-13
2.63323e-14
1.35182e-15
6.72354e-17
3.76186e-18
3.04703e-19
3.64323e-20
4.75352e-21
5.73094e-22
6.28624e-23
6.58402e-24
7.07175e-25
8.56085e-26
1.23939e-26
2.16605e-27
4.45762e-28
1.05622e-28
2.84971e-29
8.72158e-30
3.0259e-30
1.1911e-30
5.32448e-31
2.71082e-31
1.56816e-31
1.02452e-31
7.42846e-32
7.24332e-32
1.8905e-33
1.94933e-33
2.6892e-33
4.11488e-33
7.1045e-33
1.39402e-32
3.1057e-32
7.83431e-32
2.2314e-31
7.15691e-31
2.57915e-30
1.04296e-29
4.73149e-29
2.41208e-28
1.3924e-27
9.2351e-27
7.55547e-26
8.20247e-25
1.24534e-23
2.50686e-22
5.74481e-21
1.34564e-19
3.03967e-18
6.48125e-17
1.34129e-15
2.68563e-14
4.18316e-13
3.74871e-12
1.90424e-11
7.26861e-11
1.91434e-10
2.84564e-10
3.56289e-09
7.90044e-08
1.32734e-06
0.000300725
0.00205252
0.00205252
6.8349e-05
5.42854e-05
5.51944e-05
5.6216e-05
0.0018393
0.00204331
0.00100309
9.91827e-06
4.2899e-07
2.3747e-08
9.56461e-10
9.65613e-11
7.58207e-11
2.11477e-11
3.70057e-12
3.85209e-13
2.45053e-14
1.20957e-15
5.59803e-17
2.52217e-18
1.13002e-19
5.75268e-21
4.0193e-22
3.65274e-23
3.57661e-24
3.53365e-25
3.64236e-26
4.25622e-27
5.96828e-28
1.01393e-28
2.02545e-29
4.65734e-30
1.22057e-30
3.63379e-31
1.22891e-31
4.72646e-32
2.07019e-32
1.03587e-32
5.90839e-33
3.81897e-33
2.75012e-33
2.66238e-33
6.90349e-35
7.16977e-35
9.95303e-35
1.538e-34
2.69022e-34
5.36501e-34
1.21866e-33
3.14413e-33
9.18796e-33
3.03292e-32
1.12857e-31
4.72586e-31
2.2175e-30
1.16757e-29
7.02776e-29
5.38257e-28
6.89715e-27
1.5879e-25
4.7355e-24
1.44416e-22
4.15333e-21
1.0996e-19
2.66056e-18
5.95894e-17
1.28752e-15
2.65627e-14
4.22468e-13
3.98248e-12
2.11857e-11
6.75144e-11
8.76838e-11
1.14532e-09
2.58053e-08
6.07136e-07
4.71496e-05
0.00152756
0.00205252
0.000656395
5.34119e-05
5.51944e-05
5.6216e-05
5.95657e-05
0.000168436
0.00202482
0.00197522
0.000372419
3.0233e-06
2.14371e-07
9.3651e-09
2.65535e-10
2.69111e-11
2.26697e-11
4.00706e-12
3.93171e-13
2.43582e-14
1.16936e-15
5.26774e-17
2.27579e-18
9.16916e-20
3.44851e-21
1.26893e-22
5.19171e-24
2.80026e-25
2.05895e-26
1.88414e-27
2.08677e-28
2.82728e-29
4.65665e-30
9.03335e-31
2.01943e-31
5.15572e-32
1.49756e-32
4.95001e-33
1.86474e-33
8.01997e-34
3.95093e-34
2.22506e-34
1.42437e-34
1.0194e-34
9.80053e-35
2.51805e-36
2.6339e-36
3.67637e-36
5.73199e-36
1.01451e-35
2.0531e-35
4.74644e-35
1.24989e-34
3.73697e-34
1.26439e-33
4.82575e-33
2.07236e-32
1.00182e-31
5.59574e-31
4.39204e-30
7.71508e-29
2.57417e-27
9.71946e-26
3.4953e-24
1.15702e-22
3.49681e-21
9.61347e-20
2.40248e-18
5.53595e-17
1.22586e-15
2.57046e-14
4.13949e-13
4.09105e-12
2.44562e-11
3.10612e-11
1.64636e-10
-4.64693e-09
1.66211e-07
3.02569e-06
0.0005568
0.00186834
0.00130505
4.6061e-05
4.84959e-05
8.60996e-05
5.95657e-05
0.000107993
7.64695e-05
0.000342537
0.0019815
0.00168928
0.000105772
9.71384e-07
4.50924e-08
1.13769e-09
2.68852e-11
1.5691e-11
4.01565e-12
3.8626e-13
2.34632e-14
1.09631e-15
4.82578e-17
2.02978e-18
7.86762e-20
2.78961e-21
9.08098e-23
2.74982e-24
8.10532e-26
2.66903e-27
1.28765e-28
1.0678e-29
1.3233e-30
2.10038e-31
3.96119e-32
8.62666e-33
2.14791e-33
6.09584e-34
1.97263e-34
7.29174e-35
3.08468e-35
1.49858e-35
8.34413e-36
5.29448e-36
3.76983e-36
3.59891e-36
9.14071e-38
9.63272e-38
1.35036e-37
2.12276e-37
3.79687e-37
7.78411e-37
1.82728e-36
4.89659e-36
1.49287e-35
5.15928e-35
2.01486e-34
8.87836e-34
4.5402e-33
3.51414e-32
7.75441e-31
3.32935e-29
1.51683e-27
6.40176e-26
2.45536e-24
8.54042e-23
2.69364e-21
7.69439e-20
1.9923e-18
4.73706e-17
1.07609e-15
2.30078e-14
3.78161e-13
3.90087e-12
2.42994e-11
2.39817e-11
3.07701e-10
-3.45784e-09
5.33781e-07
0.000109062
0.00173015
0.00186834
5.17272e-05
4.16805e-05
8.91899e-05
0.000131501
0.000143501
0.000181347
7.46873e-05
4.24288e-05
0.00155604
0.00230065
0.00070399
2.71133e-06
1.08235e-07
1.9464e-09
1.94201e-11
1.27505e-11
3.75373e-12
3.50878e-13
2.04984e-14
9.24434e-16
3.95754e-17
1.61217e-18
6.00592e-20
2.03156e-21
6.2529e-23
1.75433e-24
4.50965e-26
1.08015e-27
2.60915e-29
8.75544e-31
6.63134e-32
9.34788e-33
1.70258e-33
3.61707e-34
8.80183e-35
2.44558e-35
7.7617e-36
2.81992e-36
1.17506e-36
5.63606e-37
3.10584e-37
1.95469e-37
1.38608e-37
1.31348e-37
3.29092e-39
3.4953e-39
4.91717e-39
7.78692e-39
1.40585e-38
2.91546e-38
6.93821e-38
1.88861e-37
5.85983e-37
2.06465e-36
8.23713e-36
3.76188e-35
2.4172e-34
4.99106e-33
2.56522e-31
1.42964e-29
7.26104e-28
3.30557e-26
1.35307e-24
4.99512e-23
1.66601e-21
5.01921e-20
1.36742e-18
3.40036e-17
7.99858e-16
1.77102e-14
3.04576e-13
3.32249e-12
2.23229e-11
1.70124e-11
-2.27775e-10
2.28282e-08
1.0316e-06
0.000582358
0.00202386
0.00120428
4.13439e-05
3.87585e-05
0.000118907
0.00012414
0.000180971
0.00018177
9.16858e-05
3.84791e-05
0.000745976
0.00236154
0.00127248
7.45862e-06
6.40955e-08
4.66186e-10
1.81737e-10
1.60858e-11
3.1014e-12
2.75287e-13
1.50343e-14
6.48095e-16
2.67618e-17
1.04235e-18
3.69455e-20
1.18636e-21
3.46117e-23
9.16581e-25
2.20096e-26
4.79842e-28
9.5836e-30
1.87297e-31
5.27081e-33
4.34805e-34
7.17999e-35
1.484e-35
3.53605e-36
9.63717e-37
3.0055e-37
1.07496e-37
4.41826e-38
2.09492e-38
1.14371e-38
7.14537e-39
5.04979e-39
4.74747e-39
1.17124e-40
1.25466e-40
1.76975e-40
2.82106e-40
5.13574e-40
1.07604e-39
2.59236e-39
7.15665e-39
2.25596e-38
8.08928e-38
3.2966e-37
1.633e-36
1.95566e-35
9.97815e-34
6.87406e-32
4.30949e-30
2.38707e-28
1.18072e-26
5.24865e-25
2.09971e-23
7.56803e-22
2.45882e-20
7.19869e-19
1.90872e-17
4.72149e-16
1.10471e-14
2.05947e-13
2.4124e-12
1.76885e-11
9.51546e-12
2.77537e-09
2.94738e-09
4.00991e-07
0.000948287
0.00203202
0.000736032
3.84219e-05
3.42877e-05
2.2557e-05
1.51128e-05
0.00012926
0.000180971
3.36382e-05
3.09845e-05
0.00119083
0.00239292
0.00154854
1.0002e-05
5.86086e-07
4.8823e-09
1.21384e-11
1.37916e-11
2.20503e-12
1.77467e-13
8.78905e-15
3.59256e-16
1.41456e-17
5.19011e-19
1.72767e-20
5.20621e-22
1.42421e-23
3.53898e-25
7.98009e-27
1.62927e-28
3.00605e-30
5.04012e-32
8.46041e-34
2.64568e-35
3.03244e-36
5.94737e-37
1.3885e-37
3.71894e-38
1.14166e-38
4.02626e-39
1.63474e-39
7.67161e-40
4.15348e-40
2.57799e-40
1.81747e-40
1.69369e-40
4.10781e-42
4.44284e-42
6.2776e-42
1.00643e-41
1.84578e-41
3.90286e-41
9.50539e-41
2.65718e-40
8.4955e-40
3.09613e-39
1.30751e-38
9.11848e-38
3.18796e-36
2.36733e-34
1.71237e-32
1.10638e-30
6.41442e-29
3.35806e-27
1.58956e-25
6.80366e-24
2.6352e-22
9.2389e-21
2.92132e-19
8.32696e-18
2.18524e-16
5.47015e-15
1.14526e-13
1.48411e-12
1.2437e-11
8.046e-12
-1.21009e-11
5.85394e-10
6.38715e-08
0.00106866
0.00203032
0.00141385
3.97755e-05
3.81387e-05
1.51132e-05
1.51131e-05
1.53646e-05
0.000176286
1.77156e-05
1.89525e-05
0.0023664
0.00238988
0.00127336
9.93831e-08
3.27333e-08
6.63727e-10
9.48006e-12
1.14136e-11
1.34198e-12
9.52139e-14
4.25975e-15
1.66792e-16
6.30616e-18
2.20601e-19
7.02423e-21
2.03535e-22
5.37375e-24
1.29401e-25
2.84478e-27
5.69745e-29
1.0358e-30
1.70192e-32
2.55633e-34
4.01867e-36
1.55518e-37
2.35122e-38
5.31648e-39
1.40133e-39
4.24207e-40
1.47748e-40
5.93436e-41
2.7596e-41
1.48309e-41
9.15276e-42
6.44363e-42
5.94505e-42
1.41552e-43
1.54789e-43
2.18852e-43
3.52601e-43
6.50861e-43
1.38733e-42
3.41119e-42
9.64118e-42
3.12331e-41
1.18009e-40
7.98005e-40
3.29707e-38
2.60304e-36
1.93914e-34
1.29745e-32
7.81562e-31
4.25159e-29
2.09427e-27
9.35143e-26
3.79656e-24
1.40401e-22
4.73569e-21
1.45587e-19
4.08226e-18
1.06283e-16
2.68327e-15
6.04261e-14
8.55827e-13
7.91121e-12
7.90756e-12
8.02837e-12
-1.09536e-10
1.02549e-08
0.000420533
0.00203143
0.00202036
0.000542021
4.10227e-05
1.35519e-05
1.50299e-05
1.98719e-05
0.000102642
9.08828e-06
8.63276e-05
0.00171903
0.00234987
0.000165307
1.66614e-08
1.64055e-10
-4.46397e-12
8.23601e-12
8.33204e-12
7.8837e-13
5.29395e-14
2.40151e-15
9.84819e-17
3.87316e-18
1.41672e-19
4.73853e-21
1.44251e-22
3.99257e-24
1.00372e-25
2.29201e-27
4.75007e-29
8.91217e-31
1.5116e-32
2.31932e-34
3.22751e-36
4.40337e-38
1.30457e-39
2.01708e-40
5.14471e-41
1.53752e-41
5.29705e-42
2.10763e-42
9.72333e-43
5.19207e-43
3.1886e-43
2.24425e-43
2.04697e-43
4.77898e-45
5.29274e-45
7.47885e-45
1.20995e-44
2.24589e-44
4.82019e-44
1.19492e-43
3.41196e-43
1.14749e-42
7.98335e-42
4.06972e-40
3.49893e-38
2.82312e-36
2.06175e-34
1.35785e-32
8.0726e-31
4.3384e-29
2.10886e-27
9.27206e-26
3.68792e-24
1.32666e-22
4.31329e-21
1.26512e-19
3.35211e-18
8.17491e-17
1.89778e-15
3.9364e-14
5.50276e-13
4.42262e-12
1.19463e-11
9.56603e-12
1.89258e-11
-2.61109e-09
1.77195e-07
0.000775813
0.00200849
0.00125468
3.43177e-05
6.2315e-06
1.39879e-05
5.20969e-05
4.11376e-06
5.37938e-06
0.000104476
0.000128033
0.000421864
1.94687e-07
2.32477e-09
3.69755e-11
7.7285e-12
8.34957e-12
5.35128e-12
5.29121e-13
3.81113e-14
1.94018e-15
8.60448e-17
3.56563e-18
1.35609e-19
4.65971e-21
1.44422e-22
4.04372e-24
1.02391e-25
2.34764e-27
4.87245e-29
9.14583e-31
1.55173e-32
2.37962e-34
3.29617e-36
4.13364e-38
4.94035e-40
1.16901e-41
1.87025e-42
5.42365e-43
1.85039e-43
7.30354e-44
3.34669e-44
1.77726e-44
1.08707e-44
7.6584e-45
6.89385e-45
1.5765e-46
1.77192e-46