/*--------------------------------*- C++ -*----------------------------------*\
| =========                 |                                                 |
| \\      /  F ield         | OpenFOAM: The Open Source CFD Toolbox           |
|  \\    /   O peration     | Version:  2412                                  |
|   \\  /    A nd           | Website:  www.openfoam.com                      |
|    \\/     M anipulation  |                                                 |
\*---------------------------------------------------------------------------*/
FoamFile
{
    version     2.0;
    format      ascii;
    arch        "LSB;label=32;scalar=64";
    class       volVectorField;
    location    "8.22";
    object      U;
}
// * * * * * * * * * * * * * * * * * * * * * * * * * * * * * * * * * * * * * //

dimensions      [0 1 -1 0 0 0 0];

internalField   nonuniform List<vector> 
80000
(
(0.00295339 -0.00421178 0)
(0.0092721 -0.00454159 0)
(0.0153487 -0.00455656 0)
(0.0218889 -0.00466307 0)
(0.028279 -0.00462684 0)
(0.0345895 -0.00459113 0)
(0.0409865 -0.00458243 0)
(0.0473613 -0.00457918 0)
(0.0537349 -0.00457798 0)
(0.0601086 -0.0045723 0)
(0.0664789 -0.00456603 0)
(0.0728463 -0.00456209 0)
(0.0792123 -0.00455812 0)
(0.0855753 -0.00455292 0)
(0.0919336 -0.00454647 0)
(0.098287 -0.00454052 0)
(0.104636 -0.00453503 0)
(0.110981 -0.004529 0)
(0.117321 -0.00452259 0)
(0.123656 -0.00451599 0)
(0.129985 -0.00450923 0)
(0.136308 -0.00450212 0)
(0.142625 -0.00449457 0)
(0.148935 -0.00448666 0)
(0.155238 -0.00447846 0)
(0.161533 -0.00446998 0)
(0.16782 -0.00446121 0)
(0.174099 -0.00445211 0)
(0.180368 -0.00444267 0)
(0.186628 -0.00443286 0)
(0.192878 -0.00442267 0)
(0.199117 -0.00441207 0)
(0.205344 -0.00440105 0)
(0.21156 -0.00438963 0)
(0.217764 -0.00437784 0)
(0.223954 -0.00436565 0)
(0.230131 -0.00435299 0)
(0.236294 -0.00433995 0)
(0.242442 -0.00432657 0)
(0.248574 -0.00431277 0)
(0.254691 -0.00429852 0)
(0.260791 -0.00428384 0)
(0.266875 -0.00426875 0)
(0.27294 -0.00425324 0)
(0.278987 -0.00423742 0)
(0.285016 -0.00422138 0)
(0.291025 -0.00420477 0)
(0.297014 -0.00418761 0)
(0.302982 -0.00417009 0)
(0.308929 -0.00415215 0)
(0.314853 -0.00413378 0)
(0.320756 -0.004115 0)
(0.326635 -0.00409581 0)
(0.33249 -0.00407621 0)
(0.338321 -0.00405614 0)
(0.344127 -0.00403561 0)
(0.349907 -0.00401466 0)
(0.355661 -0.00399328 0)
(0.361387 -0.00397144 0)
(0.367086 -0.00394913 0)
(0.372757 -0.00392637 0)
(0.378398 -0.00390317 0)
(0.38401 -0.00387952 0)
(0.389591 -0.0038554 0)
(0.395141 -0.00383086 0)
(0.400659 -0.00380589 0)
(0.406144 -0.00378045 0)
(0.411596 -0.00375449 0)
(0.417014 -0.00372805 0)
(0.422397 -0.00370116 0)
(0.427745 -0.00367381 0)
(0.433056 -0.00364594 0)
(0.438331 -0.00361753 0)
(0.443567 -0.00358862 0)
(0.448766 -0.00355926 0)
(0.453924 -0.0035295 0)
(0.459043 -0.0034992 0)
(0.464121 -0.00346829 0)
(0.469157 -0.00343683 0)
(0.474151 -0.00340489 0)
(0.479101 -0.00337244 0)
(0.484008 -0.00333946 0)
(0.488869 -0.00330592 0)
(0.493685 -0.0032718 0)
(0.498454 -0.00323718 0)
(0.503175 -0.00320183 0)
(0.507848 -0.00316598 0)
(0.512471 -0.00313013 0)
(0.517045 -0.00309369 0)
(0.521568 -0.00305614 0)
(0.526038 -0.00301788 0)
(0.530455 -0.00297929 0)
(0.534819 -0.00294017 0)
(0.539128 -0.00290033 0)
(0.54338 -0.00285979 0)
(0.547577 -0.00281874 0)
(0.551715 -0.00277723 0)
(0.555795 -0.00273505 0)
(0.559815 -0.00269204 0)
(0.563774 -0.00264835 0)
(0.567671 -0.0026041 0)
(0.571505 -0.00255921 0)
(0.575275 -0.00251358 0)
(0.57898 -0.00246725 0)
(0.582619 -0.00242024 0)
(0.58619 -0.00237255 0)
(0.589693 -0.00232421 0)
(0.593127 -0.00227512 0)
(0.596489 -0.00222525 0)
(0.599779 -0.00217455 0)
(0.602997 -0.00212321 0)
(0.60614 -0.00207145 0)
(0.609207 -0.00201892 0)
(0.612198 -0.00196528 0)
(0.615111 -0.0019107 0)
(0.617944 -0.00185543 0)
(0.620696 -0.00179949 0)
(0.623366 -0.00174272 0)
(0.625952 -0.0016851 0)
(0.628454 -0.0016266 0)
(0.63087 -0.00156718 0)
(0.633198 -0.00150707 0)
(0.635437 -0.00144618 0)
(0.637587 -0.00138428 0)
(0.639644 -0.00132131 0)
(0.641607 -0.00125743 0)
(0.643476 -0.00119285 0)
(0.645249 -0.00112764 0)
(0.646924 -0.00106138 0)
(0.6485 -0.000993866 0)
(0.649975 -0.000925666 0)
(0.651347 -0.000856859 0)
(0.652615 -0.000786559 0)
(0.653778 -0.0007152 0)
(0.654834 -0.000643471 0)
(0.655781 -0.000570791 0)
(0.656618 -0.00049678 0)
(0.657342 -0.000421768 0)
(0.657952 -0.000345948 0)
(0.658447 -0.00026922 0)
(0.658825 -0.000191756 0)
(0.659084 -0.00011373 0)
(0.659222 -3.62915e-05 0)
(0.659239 3.94643e-05 0)
(0.659124 0.000124037 0)
(0.658889 0.000207206 0)
(0.658526 0.000291766 0)
(0.658034 0.000375931 0)
(0.65741 0.000463056 0)
(0.656655 0.000550476 0)
(0.655765 0.000639203 0)
(0.654738 0.000728482 0)
(0.653574 0.000819066 0)
(0.652269 0.000910307 0)
(0.650823 0.00100265 0)
(0.649234 0.00109625 0)
(0.6475 0.00119059 0)
(0.64562 0.00128575 0)
(0.643591 0.00138181 0)
(0.641413 0.00147852 0)
(0.639084 0.00157601 0)
(0.636602 0.00167465 0)
(0.633966 0.00177422 0)
(0.631174 0.00187433 0)
(0.628226 0.00197504 0)
(0.625119 0.0020765 0)
(0.621852 0.00217873 0)
(0.618424 0.00228153 0)
(0.614835 0.00238476 0)
(0.611083 0.00248844 0)
(0.607167 0.0025926 0)
(0.603086 0.0026971 0)
(0.598839 0.00280193 0)
(0.594425 0.00290713 0)
(0.589844 0.00301254 0)
(0.585097 0.00311807 0)
(0.580181 0.00322357 0)
(0.575098 0.00332876 0)
(0.569847 0.00343377 0)
(0.564428 0.00353865 0)
(0.558841 0.00364325 0)
(0.553087 0.00374745 0)
(0.547165 0.00385092 0)
(0.541078 0.00395349 0)
(0.534825 0.0040554 0)
(0.528408 0.00415672 0)
(0.521828 0.00425702 0)
(0.515087 0.00435595 0)
(0.508185 0.00445345 0)
(0.501126 0.00454951 0)
(0.49391 0.00464414 0)
(0.486541 0.0047371 0)
(0.479022 0.00482803 0)
(0.471356 0.00491671 0)
(0.463545 0.00500316 0)
(0.455593 0.00508723 0)
(0.447503 0.00516877 0)
(0.439279 0.00524766 0)
(0.430927 0.00532357 0)
(0.422451 0.00539622 0)
(0.413855 0.00546546 0)
(0.405144 0.00553127 0)
(0.396325 0.00559351 0)
(0.387403 0.00565178 0)
(0.378384 0.00570582 0)
(0.369276 0.00575561 0)
(0.360083 0.00580099 0)
(0.350815 0.00584168 0)
(0.341479 0.00587736 0)
(0.332082 0.00590795 0)
(0.322633 0.0059334 0)
(0.313139 0.00595342 0)
(0.303611 0.00596781 0)
(0.294056 0.00597645 0)
(0.284485 0.00597906 0)
(0.274906 0.0059756 0)
(0.265331 0.00596579 0)
(0.255769 0.00594949 0)
(0.246231 0.00592668 0)
(0.236727 0.00589751 0)
(0.227268 0.00586151 0)
(0.217865 0.00581849 0)
(0.20853 0.00576866 0)
(0.199274 0.00571186 0)
(0.190107 0.00564821 0)
(0.181042 0.00557771 0)
(0.17209 0.00550011 0)
(0.163262 0.00541552 0)
(0.15457 0.0053244 0)
(0.146025 0.00522682 0)
(0.137637 0.00512258 0)
(0.129418 0.00501169 0)
(0.121378 0.00489449 0)
(0.113528 0.00477114 0)
(0.105879 0.00464188 0)
(0.0984393 0.0045068 0)
(0.0912193 0.0043661 0)
(0.0842278 0.00422033 0)
(0.0774734 0.00406975 0)
(0.0709644 0.00391468 0)
(0.0647085 0.00375527 0)
(0.0587125 0.00359195 0)
(0.0529825 0.0034252 0)
(0.0475245 0.00325523 0)
(0.0423442 0.00308255 0)
(0.0374466 0.00290716 0)
(0.032836 0.0027295 0)
(0.028516 0.00255007 0)
(0.024489 0.00236929 0)
(0.0207576 0.00218782 0)
(0.017324 0.00200596 0)
(0.0141878 0.00182378 0)
(0.0113556 0.00164282 0)
(0.0088196 0.00146378 0)
(0.00657233 0.00128461 0)
(0.00462286 0.00110276 0)
(0.00295826 0.000924086 0)
(0.00158125 0.000740528 0)
(0.00052112 0.000576104 0)
(-0.000264508 0.000400045 0)
(-0.000763933 0.00023265 0)
(-0.000970779 6.53743e-05 0)
(-0.000925216 -9.76062e-05 0)
(-0.00061341 -0.000258481 0)
(-3.3654e-05 -0.000414929 0)
(0.000786149 -0.000572061 0)
(0.00186503 -0.00071077 0)
(0.00320258 -0.0008551 0)
(0.00476255 -0.00099394 0)
(0.0065541 -0.00113029 0)
(0.0085465 -0.0012625 0)
(0.0107681 -0.00137722 0)
(0.0132177 -0.00150403 0)
(0.0158333 -0.00162374 0)
(0.0186533 -0.00172211 0)
(0.0216684 -0.00183985 0)
(0.024846 -0.00194163 0)
(0.028201 -0.00203934 0)
(0.0317177 -0.00213061 0)
(0.035388 -0.00221753 0)
(0.0392068 -0.00230259 0)
(0.0431679 -0.00238745 0)
(0.0472696 -0.00246372 0)
(0.051494 -0.00253859 0)
(0.0558407 -0.0026024 0)
(0.0603026 -0.00266573 0)
(0.064869 -0.00272942 0)
(0.0695411 -0.00278798 0)
(0.0743087 -0.002835 0)
(0.0791586 -0.0028785 0)
(0.0840823 -0.00292167 0)
(0.089081 -0.00297244 0)
(0.0941587 -0.00300588 0)
(0.0993034 -0.0030327 0)
(0.104495 -0.0030591 0)
(0.109726 -0.00308094 0)
(0.114998 -0.00310437 0)
(0.120299 -0.00312239 0)
(0.125631 -0.00312725 0)
(0.130987 -0.0031319 0)
(0.136343 -0.00312959 0)
(0.141691 -0.00312585 0)
(0.147038 -0.00312054 0)
(0.15238 -0.00310978 0)
(0.157699 -0.00309403 0)
(0.162981 -0.00307268 0)
(0.168228 -0.00304343 0)
(0.173436 -0.00301288 0)
(0.17859 -0.00297872 0)
(0.183691 -0.00294455 0)
(0.188732 -0.00291026 0)
(0.193708 -0.00286873 0)
(0.198615 -0.00282405 0)
(0.203448 -0.00277642 0)
(0.208199 -0.00272552 0)
(0.212863 -0.00267082 0)
(0.217432 -0.00261216 0)
(0.221896 -0.00255016 0)
(0.226258 -0.00248973 0)
(0.230524 -0.00242925 0)
(0.234687 -0.00236522 0)
(0.238739 -0.00229645 0)
(0.242669 -0.00222452 0)
(0.246469 -0.00214764 0)
(0.250137 -0.00207184 0)
(0.253683 -0.00199811 0)
(0.257105 -0.00192175 0)
(0.260392 -0.00184001 0)
(0.263536 -0.00175625 0)
(0.266535 -0.00167127 0)
(0.269387 -0.00158385 0)
(0.272087 -0.00149161 0)
(0.274625 -0.00139522 0)
(0.276995 -0.00129758 0)
(0.279195 -0.00119939 0)
(0.281221 -0.00109856 0)
(0.283071 -0.000995533 0)
(0.284741 -0.00088781 0)
(0.28622 -0.000773094 0)
(0.287498 -0.000655991 0)
(0.288571 -0.000540614 0)
(0.289444 -0.000424172 0)
(0.290112 -0.000303987 0)
(0.290564 -0.000179779 0)
(0.290793 -5.28155e-05 0)
(0.290795 7.75652e-05 0)
(0.290559 0.000214465 0)
(0.290084 0.00034888 0)
(0.289369 0.000483178 0)
(0.288414 0.000622141 0)
(0.287216 0.000765092 0)
(0.285767 0.000909454 0)
(0.284058 0.00105356 0)
(0.282085 0.00119957 0)
(0.279855 0.00134511 0)
(0.277373 0.00149036 0)
(0.274635 0.00163542 0)
(0.271638 0.0017808 0)
(0.268381 0.0019258 0)
(0.264863 0.00206945 0)
(0.261085 0.0022122 0)
(0.257051 0.00235304 0)
(0.25277 0.00249234 0)
(0.248249 0.00262911 0)
(0.243484 0.00276192 0)
(0.238477 0.00288996 0)
(0.233234 0.00301628 0)
(0.227768 0.00314086 0)
(0.222086 0.00326044 0)
(0.216191 0.00337389 0)
(0.210092 0.00348252 0)
(0.203799 0.00358517 0)
(0.197325 0.00368146 0)
(0.190679 0.00377241 0)
(0.183871 0.00385992 0)
(0.176904 0.00394067 0)
(0.169792 0.00401218 0)
(0.162553 0.0040748 0)
(0.155207 0.00412905 0)
(0.147773 0.00417472 0)
(0.140255 0.00421343 0)
(0.132657 0.00424614 0)
(0.124993 0.00427299 0)
(0.117286 0.00429172 0)
(0.109554 0.00430123 0)
(0.101807 0.00430059 0)
(0.0940622 0.00429046 0)
(0.086336 0.00427234 0)
(0.0786438 0.00424785 0)
(0.0709984 0.00421489 0)
(0.0634116 0.00417441 0)
(0.0558966 0.00412636 0)
(0.0484697 0.0040734 0)
(0.0411468 0.00401261 0)
(0.0339387 0.00394146 0)
(0.0268557 0.00386294 0)
(0.0199172 0.00377933 0)
(0.0131355 0.00368891 0)
(0.00651841 0.00358963 0)
(7.45302e-05 0.00348463 0)
(-0.00617263 0.00337337 0)
(-0.0122178 0.00325304 0)
(-0.0180451 0.00313658 0)
(-0.0236266 0.00300547 0)
(-0.0289888 0.00286918 0)
(-0.034095 0.00272929 0)
(-0.0389423 0.00258014 0)
(-0.0435229 0.00243255 0)
(-0.047812 0.00227715 0)
(-0.0518464 0.00211283 0)
(-0.0555747 0.00196227 0)
(-0.0589806 0.00179321 0)
(-0.0621213 0.00161935 0)
(-0.0649323 0.00145645 0)
(-0.0674111 0.0012794 0)
(-0.0695911 0.00110412 0)
(-0.0714676 0.000922659 0)
(-0.0730008 0.000753889 0)
(-0.074186 0.000574381 0)
(-0.0750607 0.000394366 0)
(-0.075616 0.000216994 0)
(-0.0758549 4.52614e-05 0)
(-0.0757678 -0.000128302 0)
(-0.0753575 -0.000295548 0)
(-0.0746456 -0.000462202 0)
(-0.0736516 -0.00062167 0)
(-0.0723572 -0.00076655 0)
(-0.0707625 -0.000921964 0)
(-0.0688921 -0.00107452 0)
(-0.066762 -0.00122288 0)
(-0.0643556 -0.00134959 0)
(-0.0616928 -0.00148275 0)
(-0.0588123 -0.00160479 0)
(-0.0557015 -0.00171762 0)
(-0.0523727 -0.00182602 0)
(-0.0488469 -0.00192895 0)
(-0.0451426 -0.00202316 0)
(-0.0412666 -0.00210632 0)
(-0.037244 -0.00218273 0)
(-0.033093 -0.00224911 0)
(-0.0288023 -0.00230576 0)
(-0.0243977 -0.00236106 0)
(-0.019908 -0.00240529 0)
(-0.0153321 -0.00243805 0)
(-0.0106841 -0.00246864 0)
(-0.00600178 -0.00248676 0)
(-0.00130597 -0.0024938 0)
(0.00340982 -0.00248675 0)
(0.00813184 -0.00248015 0)
(0.012828 -0.00246475 0)
(0.0174913 -0.00244353 0)
(0.0221161 -0.00241099 0)
(0.0266627 -0.00236832 0)
(0.031115 -0.00231396 0)
(0.0354752 -0.00225506 0)
(0.0397171 -0.00218734 0)
(0.0438294 -0.00211968 0)
(0.0478107 -0.00204674 0)
(0.0516521 -0.00196294 0)
(0.055336 -0.00187009 0)
(0.0588354 -0.00177673 0)
(0.0621385 -0.0016737 0)
(0.0652402 -0.00155911 0)
(0.0681206 -0.00144596 0)
(0.0707867 -0.00132999 0)
(0.0732277 -0.00120725 0)
(0.0754223 -0.00108585 0)
(0.0773795 -0.000959392 0)
(0.0791009 -0.000826058 0)
(0.0805666 -0.00069521 0)
(0.0817811 -0.000560205 0)
(0.0827288 -0.00043063 0)
(0.083424 -0.000298622 0)
(0.0838631 -0.000166628 0)
(0.0840238 -3.36312e-05 0)
(0.0839388 0.000100773 0)
(0.0836095 0.000225763 0)
(0.0830315 0.000349698 0)
(0.0822127 0.000473556 0)
(0.0811606 0.000591829 0)
(0.0798867 0.000704674 0)
(0.0784071 0.000811792 0)
(0.0767269 0.000907116 0)
(0.0748529 0.00100731 0)
(0.0728069 0.00109797 0)
(0.0705959 0.00117869 0)
(0.0682432 0.00125618 0)
(0.0657532 0.00131797 0)
(0.0631436 0.00137678 0)
(0.060439 0.00142238 0)
(0.0576505 0.00146367 0)
(0.0547987 0.0014914 0)
(0.0518934 0.00151664 0)
(0.0489573 0.00153162 0)
(0.0460066 0.00153917 0)
(0.0430545 0.00153653 0)
(0.0401107 0.0015263 0)
(0.0371972 0.00150788 0)
(0.0343273 0.00147992 0)
(0.0315093 0.00145396 0)
(0.0287561 0.00141465 0)
(0.0260867 0.00137231 0)
(0.0235047 0.00131806 0)
(0.0210146 0.00126877 0)
(0.0186369 0.00121441 0)
(0.0163718 0.00115599 0)
(0.0142149 0.0010932 0)
(0.0121735 0.00102883 0)
(0.0102625 0.000962021 0)
(0.00848429 0.00089768 0)
(0.00683067 0.00083741 0)
(0.00529507 0.000774418 0)
(0.00388304 0.00071386 0)
(0.00259358 0.000650033 0)
(0.00142064 0.000592613 0)
(0.000362144 0.00053911 0)
(-0.000601832 0.000482882 0)
(-0.00144815 0.000433822 0)
(-0.00218549 0.000373174 0)
(-0.00282317 0.000326133 0)
(-0.00335264 0.000277022 0)
(-0.00379405 0.000226737 0)
(-0.00413831 0.000175032 0)
(-0.00438738 0.000123284 0)
(-0.00454441 7.59829e-05 0)
(-0.00462107 2.28066e-05 0)
(-0.0046058 -2.13373e-05 0)
(-0.00451038 -7.10201e-05 0)
(-0.00434699 -0.000118523 0)
(-0.00409508 -0.000162059 0)
(-0.00377458 -0.000212523 0)
(-0.00340025 -0.000259764 0)
(-0.00295411 -0.000299968 0)
(-0.00244711 -0.000333938 0)
(-0.00188639 -0.000366555 0)
(-0.0012789 -0.000389763 0)
(-0.00063626 -0.000403796 0)
(3.78721e-05 -0.000417709 0)
(0.000726407 -0.000414487 0)
(0.00142804 -0.000404846 0)
(0.00214674 -0.000390487 0)
(0.00287404 -0.000378292 0)
(0.00360903 -0.000374395 0)
(0.0043475 -0.000377186 0)
(0.0050836 -0.000370583 0)
(0.00582334 -0.000362218 0)
(0.00655138 -0.000354541 0)
(0.00726864 -0.000333078 0)
(0.00797299 -0.000320144 0)
(0.00866059 -0.000303909 0)
(0.00934963 -0.000283276 0)
(0.0100259 -0.000264169 0)
(0.010673 -0.00023826 0)
(0.0113014 -0.000214667 0)
(0.0118967 -0.000193726 0)
(0.0124419 -0.000171737 0)
(0.0129275 -0.000140084 0)
(0.013353 -0.000116296 0)
(0.0137436 -9.39769e-05 0)
(0.0141037 -6.71276e-05 0)
(0.0144255 -4.18704e-05 0)
(0.0146962 -1.54008e-05 0)
(0.014909 1.26303e-05 0)
(0.0150608 3.05076e-05 0)
(0.0151431 5.07551e-05 0)
(0.0151746 8.62587e-05 0)
(0.0151466 0.000115581 0)
(0.0150534 0.000139793 0)
(0.0149148 0.000166255 0)
(0.0147158 0.000195519 0)
(0.0144516 0.000219895 0)
(0.0141304 0.000246437 0)
(0.0137363 0.000274859 0)
(0.0132656 0.000311689 0)
(0.0127328 0.000356028 0)
(0.0121171 0.000422397 0)
(0.0114058 0.000534092 0)
(0.0105212 0.000674576 0)
(0.0094152 0.000952532 0)
(0.00825868 0.00104782 0)
(0.0064509 0.000691881 0)
(0.00440432 -0.000251529 0)
(0.00555457 -0.00178787 0)
(0.00821228 -0.000958795 0)
(0.00778736 0.000371276 0)
(0.00661474 0.00106804 0)
(0.0041482 0.000150441 0)
(0.00554937 -0.00187227 0)
(0.00829267 -0.00102461 0)
(0.00760415 0.000267317 0)
(0.00543311 0.000910263 0)
(0.00394224 0.00111521 0)
(0.00262824 0.000846968 0)
(0.00148258 0.0006864 0)
(0.000512179 0.00055503 0)
(-0.000369993 0.000476656 0)
(-0.00116319 0.000434466 0)
(-0.00190147 0.000409287 0)
(-0.00259941 0.000398025 0)
(-0.00327284 0.000391122 0)
(-0.0039387 0.000386787 0)
(-0.00457176 0.000381402 0)
(-0.00517894 0.000369551 0)
(-0.00576401 0.00035627 0)
(-0.00629748 0.000338579 0)
(-0.00680261 0.000327707 0)
(-0.00728617 0.000309903 0)
(-0.00771421 0.000299531 0)
(-0.00808847 0.000283344 0)
(-0.00841081 0.000255452 0)
(-0.00868203 0.000217402 0)
(-0.00891098 0.000187228 0)
(-0.00907995 0.000160479 0)
(-0.00919134 0.000133 0)
(-0.0092418 0.000103223 0)
(-0.00922364 7.67658e-05 0)
(-0.00916219 4.19791e-05 0)
(-0.00906399 6.16244e-06 0)
(-0.00890914 -3.37207e-05 0)
(-0.0086971 -7.44486e-05 0)
(-0.00842694 -0.000117957 0)
(-0.00810256 -0.000150546 0)
(-0.00773735 -0.000175172 0)
(-0.00734724 -0.000193898 0)
(-0.00693335 -0.000217936 0)
(-0.00646942 -0.000245633 0)
(-0.00595006 -0.000265473 0)
(-0.00539444 -0.000281127 0)
(-0.00481813 -0.000304863 0)
(-0.00422684 -0.000333931 0)
(-0.00362149 -0.00035843 0)
(-0.00301173 -0.000373744 0)
(-0.00239924 -0.000364022 0)
(-0.00179963 -0.000348134 0)
(-0.00123483 -0.000327308 0)
(-0.000708449 -0.000300621 0)
(-0.00021752 -0.000265366 0)
(0.000227109 -0.000218393 0)
(0.000572869 -0.000157221 0)
(0.000803304 -0.000107273 0)
(0.000977249 -7.31325e-05 0)
(0.00109706 -3.18091e-05 0)
(0.00113081 1.66452e-05 0)
(0.00109199 6.74688e-05 0)
(0.000955642 0.000109566 0)
(0.000714596 0.000161928 0)
(0.000385869 0.000209918 0)
(-5.42793e-05 0.000258754 0)
(-0.000596425 0.00030833 0)
(-0.00123249 0.000348624 0)
(-0.0019719 0.000395804 0)
(-0.0028284 0.000450672 0)
(-0.00381191 0.000514598 0)
(-0.00492649 0.00056893 0)
(-0.0061877 0.000631069 0)
(-0.00755914 0.000688493 0)
(-0.00902542 0.000731644 0)
(-0.0106098 0.000786541 0)
(-0.0123249 0.000854233 0)
(-0.014192 0.000916726 0)
(-0.0162425 0.000994765 0)
(-0.0184541 0.00105348 0)
(-0.0207683 0.00109918 0)
(-0.023163 0.00113906 0)
(-0.0256389 0.0011942 0)
(-0.0282327 0.00123913 0)
(-0.0309472 0.00129776 0)
(-0.0337694 0.00132736 0)
(-0.0366785 0.00135709 0)
(-0.039625 0.00138014 0)
(-0.0425941 0.00138751 0)
(-0.0455879 0.00138855 0)
(-0.0486099 0.00139102 0)
(-0.0516346 0.00138065 0)
(-0.0546279 0.0013634 0)
(-0.0575631 0.00132427 0)
(-0.0604042 0.00127079 0)
(-0.0631329 0.0012158 0)
(-0.0657487 0.00115202 0)
(-0.068233 0.00107954 0)
(-0.0705675 0.0010026 0)
(-0.0727264 0.000916453 0)
(-0.0746604 0.000821367 0)
(-0.076345 0.00069195 0)
(-0.0777882 0.000571443 0)
(-0.0789682 0.000443779 0)
(-0.0798486 0.000303175 0)
(-0.0803905 0.000169609 0)
(-0.0806155 3.02938e-05 0)
(-0.0805481 -0.000117843 0)
(-0.0801376 -0.000262237 0)
(-0.0793934 -0.00042072 0)
(-0.0782893 -0.000593439 0)
(-0.076773 -0.000770016 0)
(-0.0748603 -0.000932425 0)
(-0.0725793 -0.00106936 0)
(-0.0699739 -0.00122064 0)
(-0.0670552 -0.00137243 0)
(-0.0637782 -0.00153207 0)
(-0.0601272 -0.0016914 0)
(-0.0561406 -0.00182759 0)
(-0.0518594 -0.00194993 0)
(-0.0473025 -0.0020699 0)
(-0.0424876 -0.0021732 0)
(-0.0374438 -0.00226771 0)
(-0.0322229 -0.00235755 0)
(-0.0267752 -0.00244784 0)
(-0.0210807 -0.00251757 0)
(-0.0152829 -0.00256976 0)
(-0.00942897 -0.00259558 0)
(-0.00351898 -0.00261479 0)
(0.00243825 -0.00261521 0)
(0.00840272 -0.00260655 0)
(0.0143229 -0.0025907 0)
(0.020165 -0.00254547 0)
(0.0258925 -0.00248526 0)
(0.0314678 -0.0024114 0)
(0.036858 -0.00233006 0)
(0.0420647 -0.00224003 0)
(0.0470606 -0.00213277 0)
(0.0517961 -0.00200718 0)
(0.0562329 -0.00186121 0)
(0.0603082 -0.00170777 0)
(0.0640161 -0.00153267 0)
(0.0673388 -0.00136721 0)
(0.0702602 -0.00119131 0)
(0.0727947 -0.00100208 0)
(0.0748879 -0.000805126 0)
(0.0765158 -0.000597925 0)
(0.0776466 -0.000380975 0)
(0.0782647 -0.000167702 0)
(0.0783825 5.6133e-05 0)
(0.0780136 0.00027512 0)
(0.0771706 0.000492787 0)
(0.075824 0.000710962 0)
(0.0739625 0.000935455 0)
(0.0715593 0.00115565 0)
(0.0686275 0.00137864 0)
(0.0652235 0.00160017 0)
(0.0613019 0.00181015 0)
(0.0568797 0.00202049 0)
(0.0520292 0.00221555 0)
(0.0467033 0.00240594 0)
(0.0409068 0.00260131 0)
(0.0346615 0.00278868 0)
(0.0279747 0.00296917 0)
(0.0208921 0.00314373 0)
(0.0134235 0.00330849 0)
(0.00559502 0.00346707 0)
(-0.00264784 0.00358594 0)
(-0.0112205 0.00372972 0)
(-0.0200462 0.00385868 0)
(-0.0291549 0.00397659 0)
(-0.0385502 0.00408972 0)
(-0.0482048 0.00418871 0)
(-0.0580775 0.00427225 0)
(-0.0681336 0.00434488 0)
(-0.0783465 0.00440682 0)
(-0.0886924 0.00445613 0)
(-0.0991373 0.00448827 0)
(-0.109644 0.00450626 0)
(-0.120183 0.00451115 0)
(-0.130723 0.00450204 0)
(-0.141234 0.00447788 0)
(-0.15168 0.00443964 0)
(-0.162022 0.00438584 0)
(-0.172228 0.00431941 0)
(-0.18227 0.00424363 0)
(-0.192122 0.00415457 0)
(-0.201754 0.00405053 0)
(-0.211134 0.00393291 0)
(-0.220233 0.00380276 0)
(-0.229015 0.0036607 0)
(-0.237449 0.00351144 0)
(-0.245528 0.00335644 0)
(-0.253248 0.00319489 0)
(-0.26059 0.00302713 0)
(-0.26753 0.00285285 0)
(-0.274054 0.00267405 0)
(-0.280155 0.00249241 0)
(-0.285824 0.00230644 0)
(-0.291047 0.00211617 0)
(-0.295813 0.00192149 0)
(-0.300115 0.00172356 0)
(-0.303951 0.00152679 0)
(-0.307327 0.00132942 0)
(-0.31024 0.00113322 0)
(-0.312683 0.000935955 0)
(-0.31465 0.00073896 0)
(-0.316144 0.000541805 0)
(-0.317169 0.000343473 0)
(-0.317722 0.0001454 0)
(-0.317794 -4.96999e-05 0)
(-0.317395 -0.000240327 0)
(-0.316537 -0.000429403 0)
(-0.315226 -0.000616082 0)
(-0.313469 -0.000799674 0)
(-0.311278 -0.000978433 0)
(-0.308662 -0.00115232 0)
(-0.305631 -0.00132148 0)
(-0.30219 -0.00148628 0)
(-0.298353 -0.00164569 0)
(-0.294143 -0.00179908 0)
(-0.289579 -0.00194754 0)
(-0.284664 -0.0020925 0)
(-0.279403 -0.00223307 0)
(-0.273801 -0.00236982 0)
(-0.267868 -0.00249799 0)
(-0.261627 -0.00261897 0)
(-0.255091 -0.00274006 0)
(-0.248265 -0.00285967 0)
(-0.241152 -0.00297407 0)
(-0.233765 -0.00308248 0)
(-0.226119 -0.00318265 0)
(-0.21823 -0.00327608 0)
(-0.210105 -0.00336592 0)
(-0.201755 -0.00345211 0)
(-0.193216 -0.00353518 0)
(-0.18451 -0.00359335 0)
(-0.175638 -0.00364819 0)
(-0.166633 -0.00369075 0)
(-0.157517 -0.00372315 0)
(-0.14835 -0.00375052 0)
(-0.139168 -0.00374663 0)
(-0.129965 -0.00373366 0)
(-0.120803 -0.00372039 0)
(-0.111717 -0.00367485 0)
(-0.102706 -0.00362756 0)
(-0.0938281 -0.00357893 0)
(-0.0851347 -0.0034883 0)
(-0.0766278 -0.0034038 0)
(-0.0683537 -0.00329908 0)
(-0.0603331 -0.00319018 0)
(-0.0525947 -0.00306053 0)
(-0.0451759 -0.00293546 0)
(-0.038054 -0.00278689 0)
(-0.031307 -0.00265302 0)
(-0.024963 -0.00248678 0)
(-0.0189973 -0.00231558 0)
(-0.0134628 -0.00213708 0)
(-0.00838169 -0.00194466 0)
(-0.00376237 -0.00174493 0)
(0.00037144 -0.00155062 0)
(0.0039847 -0.00135156 0)
(0.00706894 -0.00112394 0)
(0.00960531 -0.000908293 0)
(0.0115755 -0.000662314 0)
(0.0129679 -0.000430101 0)
(0.0137589 -0.000190489 0)
(0.013935 7.6559e-05 0)
(0.0134744 0.000318072 0)
(0.0123628 0.000589877 0)
(0.0105906 0.000860799 0)
(0.00815462 0.00112388 0)
(0.00505507 0.00139862 0)
(0.00123959 0.00165833 0)
(-0.00330088 0.00194608 0)
(-0.00850889 0.00222208 0)
(-0.0143909 0.00249289 0)
(-0.0209398 0.00275418 0)
(-0.0281417 0.00301194 0)
(-0.0360087 0.00326819 0)
(-0.0445306 0.00351818 0)
(-0.0536801 0.0037612 0)
(-0.0634383 0.00399627 0)
(-0.0737827 0.00422143 0)
(-0.0846889 0.00443473 0)
(-0.09613 0.00463579 0)
(-0.108075 0.00482431 0)
(-0.12049 0.0049996 0)
(-0.133337 0.00516102 0)
(-0.146578 0.00530743 0)
(-0.160178 0.00543733 0)
(-0.174098 0.00555143 0)
(-0.188302 0.00565139 0)
(-0.20275 0.00573693 0)
(-0.217402 0.00580642 0)
(-0.232217 0.00585963 0)
(-0.247154 0.0058977 0)
(-0.26218 0.00592088 0)
(-0.277259 0.00592995 0)
(-0.292354 0.00592527 0)
(-0.307428 0.00590746 0)
(-0.322445 0.00587673 0)
(-0.337374 0.00583342 0)
(-0.352185 0.00577834 0)
(-0.36685 0.00571262 0)
(-0.381344 0.00563672 0)
(-0.39564 0.0055511 0)
(-0.409714 0.00545708 0)
(-0.42354 0.00535414 0)
(-0.437098 0.00524245 0)
(-0.450368 0.00512285 0)
(-0.463331 0.00499672 0)
(-0.475968 0.00486488 0)
(-0.488263 0.00472759 0)
(-0.500202 0.00458454 0)
(-0.511775 0.00443658 0)
(-0.522971 0.00428478 0)
(-0.533778 0.00412951 0)
(-0.544187 0.00397095 0)
(-0.554187 0.00380917 0)
(-0.563773 0.003645 0)
(-0.572936 0.00347862 0)
(-0.581672 0.00331047 0)
(-0.589977 0.00314192 0)
(-0.597851 0.00297366 0)
(-0.605293 0.00280459 0)
(-0.6123 0.00263422 0)
(-0.618871 0.00246396 0)
(-0.625005 0.00229438 0)
(-0.630701 0.00212539 0)
(-0.635963 0.00195692 0)
(-0.640794 0.00178942 0)
(-0.645196 0.0016228 0)
(-0.649168 0.00145812 0)
(-0.652715 0.00129629 0)
(-0.655843 0.00113604 0)
(-0.658555 0.000975642 0)
(-0.660857 0.000816873 0)
(-0.662756 0.000662265 0)
(-0.664253 0.000510135 0)
(-0.665354 0.000359067 0)
(-0.666062 0.000211103 0)
(-0.666391 5.98944e-05 0)
(-0.666335 -7.81252e-05 0)
(-0.665908 -0.000218582 0)
(-0.66511 -0.000357426 0)
(-0.663952 -0.000492898 0)
(-0.662442 -0.000625573 0)
(-0.660584 -0.00075702 0)
(-0.658383 -0.000886251 0)
(-0.655845 -0.00101133 0)
(-0.652979 -0.00113405 0)
(-0.649791 -0.00125548 0)
(-0.646285 -0.00137453 0)
(-0.642467 -0.00149041 0)
(-0.638344 -0.00160348 0)
(-0.633924 -0.0017144 0)
(-0.629213 -0.00182294 0)
(-0.624216 -0.00192932 0)
(-0.618934 -0.00203342 0)
(-0.613376 -0.00213468 0)
(-0.60755 -0.00223348 0)
(-0.601464 -0.00233 0)
(-0.595122 -0.00242414 0)
(-0.588529 -0.00251627 0)
(-0.581687 -0.00260702 0)
(-0.574604 -0.00269521 0)
(-0.567286 -0.00277994 0)
(-0.559739 -0.00286239 0)
(-0.551968 -0.00294377 0)
(-0.54398 -0.00302363 0)
(-0.535777 -0.00310086 0)
(-0.527364 -0.003176 0)
(-0.518747 -0.00324938 0)
(-0.509932 -0.00331989 0)
(-0.500923 -0.00338975 0)
(-0.491723 -0.00345795 0)
(-0.482338 -0.00352294 0)
(-0.472775 -0.00358526 0)
(-0.463038 -0.00364755 0)
(-0.45313 -0.00370824 0)
(-0.443056 -0.00376665 0)
(-0.432819 -0.00382321 0)
(-0.422425 -0.00387807 0)
(-0.411879 -0.00393062 0)
(-0.401186 -0.00398183 0)
(-0.39035 -0.0040314 0)
(-0.379373 -0.00407926 0)
(-0.36826 -0.00412492 0)
(-0.357019 -0.00416808 0)
(-0.345655 -0.00421118 0)
(-0.334166 -0.00425296 0)
(-0.322557 -0.00429286 0)
(-0.310835 -0.00432987 0)
(-0.299006 -0.00436595 0)
(-0.287072 -0.00440038 0)
(-0.275037 -0.004433 0)
(-0.262905 -0.00446425 0)
(-0.250681 -0.00449373 0)
(-0.238369 -0.00452206 0)
(-0.225972 -0.0045489 0)
(-0.213493 -0.00457415 0)
(-0.200938 -0.00459669 0)
(-0.188313 -0.0046174 0)
(-0.17562 -0.00463738 0)
(-0.162863 -0.00465594 0)
(-0.150046 -0.00467237 0)
(-0.137175 -0.00468692 0)
(-0.124253 -0.00470018 0)
(-0.111283 -0.00471313 0)
(-0.0982689 -0.00472405 0)
(-0.0852149 -0.00472888 0)
(-0.0720997 -0.00472913 0)
(-0.0591354 -0.00476829 0)
(-0.0459426 -0.0048296 0)
(-0.0322155 -0.00463696 0)
(-0.0196804 -0.00459591 0)
(-0.00646731 -0.00472733 0)
(0.00334454 -0.0134098 0)
(0.00972457 -0.0134408 0)
(0.0158915 -0.0134779 0)
(0.0221569 -0.013771 0)
(0.0284431 -0.0137774 0)
(0.0347898 -0.0137445 0)
(0.0411546 -0.0137414 0)
(0.0475223 -0.0137314 0)
(0.0538862 -0.0137244 0)
(0.0602487 -0.0137095 0)
(0.0666138 -0.0136926 0)
(0.0729802 -0.0136792 0)
(0.079343 -0.0136638 0)
(0.0857022 -0.0136464 0)
(0.0920583 -0.0136255 0)
(0.0984108 -0.0136066 0)
(0.104759 -0.0135885 0)
(0.111101 -0.0135685 0)
(0.117439 -0.0135484 0)
(0.123772 -0.0135278 0)
(0.130099 -0.0135061 0)
(0.136419 -0.013484 0)
(0.142733 -0.0134607 0)
(0.14904 -0.0134367 0)
(0.15534 -0.013412 0)
(0.161633 -0.013386 0)
(0.167917 -0.0133595 0)
(0.174192 -0.013332 0)
(0.180459 -0.0133032 0)
(0.186716 -0.0132731 0)
(0.192962 -0.0132419 0)
(0.199197 -0.0132096 0)
(0.205421 -0.0131761 0)
(0.211633 -0.0131415 0)
(0.217833 -0.0131052 0)
(0.224019 -0.0130687 0)
(0.230193 -0.0130305 0)
(0.236351 -0.0129909 0)
(0.242495 -0.0129503 0)
(0.248624 -0.0129087 0)
(0.254737 -0.0128658 0)
(0.260833 -0.0128215 0)
(0.266912 -0.0127761 0)
(0.272975 -0.0127294 0)
(0.279017 -0.0126816 0)
(0.285039 -0.0126326 0)
(0.291046 -0.0125825 0)
(0.297031 -0.0125309 0)
(0.302995 -0.0124784 0)
(0.308937 -0.0124247 0)
(0.314858 -0.0123694 0)
(0.320756 -0.0123131 0)
(0.326632 -0.0122555 0)
(0.332483 -0.0121966 0)
(0.33831 -0.0121367 0)
(0.344112 -0.0120751 0)
(0.349888 -0.0120125 0)
(0.355637 -0.0119485 0)
(0.36136 -0.0118832 0)
(0.367055 -0.0118165 0)
(0.372722 -0.0117484 0)
(0.378359 -0.0116791 0)
(0.383967 -0.0116086 0)
(0.389545 -0.0115365 0)
(0.395091 -0.0114631 0)
(0.400605 -0.0113882 0)
(0.406087 -0.0113122 0)
(0.411536 -0.0112348 0)
(0.41695 -0.0111558 0)
(0.42233 -0.0110753 0)
(0.427674 -0.0109936 0)
(0.432983 -0.0109105 0)
(0.438255 -0.0108258 0)
(0.443488 -0.0107399 0)
(0.448683 -0.0106519 0)
(0.453839 -0.0105628 0)
(0.458955 -0.0104721 0)
(0.464031 -0.0103805 0)
(0.469064 -0.0102873 0)
(0.474056 -0.0101917 0)
(0.479004 -0.0100948 0)
(0.483909 -0.00999673 0)
(0.488767 -0.00989691 0)
(0.493582 -0.00979541 0)
(0.498348 -0.00969243 0)
(0.503068 -0.00958747 0)
(0.507741 -0.00948089 0)
(0.512359 -0.00937289 0)
(0.51693 -0.00926315 0)
(0.521455 -0.00915162 0)
(0.525925 -0.00903841 0)
(0.53034 -0.00892325 0)
(0.534703 -0.00880679 0)
(0.539011 -0.00868779 0)
(0.543264 -0.00856791 0)
(0.54746 -0.00844538 0)
(0.551597 -0.00832115 0)
(0.555677 -0.00819568 0)
(0.559697 -0.00806803 0)
(0.563657 -0.00793808 0)
(0.567554 -0.00780598 0)
(0.571389 -0.00767208 0)
(0.57516 -0.00753633 0)
(0.578866 -0.00739858 0)
(0.582505 -0.00725855 0)
(0.586078 -0.00711694 0)
(0.589582 -0.00697188 0)
(0.593017 -0.00682632 0)
(0.596381 -0.00667728 0)
(0.599673 -0.00652772 0)
(0.602893 -0.00637433 0)
(0.606037 -0.00621836 0)
(0.609106 -0.00606195 0)
(0.612101 -0.00590295 0)
(0.615017 -0.00574056 0)
(0.617852 -0.00557573 0)
(0.620607 -0.00540882 0)
(0.62328 -0.00523948 0)
(0.625871 -0.00506775 0)
(0.628376 -0.00489364 0)
(0.630796 -0.00471719 0)
(0.633127 -0.00453786 0)
(0.63537 -0.00435631 0)
(0.637524 -0.00417179 0)
(0.639585 -0.00398531 0)
(0.641555 -0.00379459 0)
(0.643427 -0.00360312 0)
(0.645204 -0.0034069 0)
(0.646884 -0.00320983 0)
(0.648467 -0.00300901 0)
(0.649948 -0.00280471 0)
(0.651322 -0.00259855 0)
(0.652598 -0.00239075 0)
(0.653769 -0.00217833 0)
(0.654827 -0.00196326 0)
(0.65578 -0.00174563 0)
(0.656625 -0.00152405 0)
(0.657355 -0.00130081 0)
(0.657971 -0.00107412 0)
(0.658473 -0.000845279 0)