/*--------------------------------*- C++ -*----------------------------------*\
| =========                 |                                                 |
| \\      /  F ield         | OpenFOAM: The Open Source CFD Toolbox           |
|  \\    /   O peration     | Version:  2412                                  |
|   \\  /    A nd           | Website:  www.openfoam.com                      |
|    \\/     M anipulation  |                                                 |
\*---------------------------------------------------------------------------*/
FoamFile
{
    version     2.0;
    format      ascii;
    arch        "LSB;label=32;scalar=64";
    class       surfaceScalarField;
    location    "2.05";
    object      phi;
}
// * * * * * * * * * * * * * * * * * * * * * * * * * * * * * * * * * * * * * //

dimensions      [0 3 -1 0 0 0 0];

oriented        oriented;

internalField   nonuniform List<scalar> 
12640
(
-2.10853e-12
2.10831e-12
-3.71811e-11
3.39058e-11
-1.06369e-10
6.79975e-11
-2.02851e-10
9.53971e-11
-3.19595e-10
1.15675e-10
-4.51216e-10
1.30414e-10
-5.93481e-10
1.41001e-10
-7.43127e-10
1.48309e-10
-8.97601e-10
1.53064e-10
-1.05484e-09
1.55821e-10
-1.21326e-09
1.56995e-10
-1.37159e-09
1.56917e-10
-1.52861e-09
1.55672e-10
-1.68331e-09
1.53415e-10
-1.83468e-09
1.50103e-10
-1.98164e-09
1.45732e-10
-2.12301e-09
1.40191e-10
-2.25751e-09
1.33319e-10
-2.38369e-09
1.24936e-10
-2.49992e-09
1.14847e-10
-2.60433e-09
1.02854e-10
-2.69487e-09
8.8762e-11
-2.76925e-09
7.23983e-11
-2.82506e-09
5.36292e-11
-2.8598e-09
3.23772e-11
-2.87095e-09
8.64979e-12
-2.85607e-09
-1.74648e-11
-2.81291e-09
-4.5736e-11
-2.73954e-09
-7.58479e-11
-2.63447e-09
-1.0736e-10
-2.4968e-09
-1.39715e-10
-2.3263e-09
-1.72247e-10
-2.12355e-09
-2.04196e-10
-1.88998e-09
-2.34737e-10
-1.62791e-09
-2.63005e-10
-1.34056e-09
-2.88133e-10
-1.03197e-09
-3.09297e-10
-7.06941e-10
-3.25769e-10
-3.70839e-10
-3.36963e-10
-2.94428e-11
-3.4247e-10
3.11299e-10
-3.42088e-10
6.45486e-10
-3.35837e-10
9.67477e-10
-3.23958e-10
1.27209e-09
-3.06892e-10
1.55476e-09
-2.85254e-10
1.81172e-09
-2.59797e-10
2.04003e-09
-2.31364e-10
2.23761e-09
-2.0082e-10
2.40328e-09
-1.69013e-10
2.53668e-09
-1.36752e-10
2.63822e-09
-1.04798e-10
2.70888e-09
-7.37934e-11
2.75012e-09
-4.42065e-11
2.7639e-09
-1.63567e-11
2.75258e-09
9.51173e-12
2.71869e-09
3.32137e-11
2.66483e-09
5.46497e-11
2.59354e-09
7.37728e-11
2.50732e-09
9.0489e-11
2.40838e-09
1.04632e-10
2.29855e-09
1.16075e-10
2.17917e-09
1.24876e-10
2.05128e-09
1.31351e-10
1.91576e-09
1.36036e-10
1.77358e-09
1.39549e-10
1.62602e-09
1.42413e-10
1.47459e-09
1.44917e-10
1.32084e-09
1.47074e-10
1.16624e-09
1.48688e-10
1.0121e-09
1.49438e-10
8.59744e-10
1.48946e-10
7.10662e-10
1.46821e-10
5.66621e-10
1.42658e-10
4.2984e-10
1.35963e-10
3.03294e-10
1.2598e-10
1.91045e-10
1.11665e-10
9.89457e-11
9.13114e-11
3.44558e-11
6.34158e-11
3.26891e-12
2.98346e-11
1.80298e-12
-3.75343e-11
3.84941e-11
-1.50734e-10
1.45073e-10
-3.36341e-10
2.51469e-10
-5.81811e-10
3.38577e-10
-8.7341e-10
4.04962e-10
-1.20015e-09
4.54663e-10
-1.55287e-09
4.9111e-10
-1.92395e-09
5.16719e-10
-2.30715e-09
5.33524e-10
-2.69735e-09
5.43288e-10
-3.09039e-09
5.47338e-10
-3.48277e-09
5.46661e-10
-3.87138e-09
5.41749e-10
-4.25336e-09
5.32982e-10
-4.62599e-09
5.2038e-10
-4.98642e-09
5.03823e-10
-5.33162e-09
4.82993e-10
-5.65827e-09
4.57439e-10
-5.9627e-09
4.2662e-10
-6.24082e-09
3.89934e-10
-6.48811e-09
3.46759e-10
-6.6996e-09
2.96496e-10
-6.86992e-09
2.3862e-10
-6.99345e-09
1.72753e-10
-7.0644e-09
9.8717e-11
-7.07706e-09
1.65912e-11
-7.02593e-09
-7.32502e-11
-6.90605e-09
-1.70068e-10
-6.71323e-09
-2.72781e-10
-6.44436e-09
-3.79917e-10
-6.09764e-09
-4.89625e-10
-5.67292e-09
-5.99695e-10
-5.17183e-09
-7.07609e-10
-4.59796e-09
-8.10622e-10
-3.95699e-09
-9.05858e-10
-3.25657e-09
-9.90439e-10
-2.50629e-09
-1.06163e-09
-1.71742e-09
-1.11701e-09
-9.02532e-10
-1.15463e-09
-7.51346e-11
-1.17313e-09
7.50848e-10
-1.17186e-09
1.56159e-09
-1.15089e-09
2.34385e-09
-1.11101e-09
3.08544e-09
-1.05372e-09
3.77561e-09
-9.8105e-10
4.40538e-09
-8.95488e-10
4.96771e-09
-7.99802e-10
5.45755e-09
-6.96871e-10
5.87183e-09
-5.89524e-10
6.2094e-09
-4.80425e-10
6.47085e-09
-3.7198e-10
6.65826e-09
-2.66234e-10
6.77481e-09
-1.64811e-10
6.82469e-09
-6.89661e-11
6.81291e-09
2.03042e-11
6.74501e-09
1.02187e-10
6.62663e-09
1.76097e-10
6.46336e-09
2.41629e-10
6.26068e-09
2.98519e-10
6.02384e-09
3.46672e-10
5.75756e-09
3.86327e-10
5.4659e-09
4.18226e-10
5.15237e-09
4.43616e-10
4.82003e-09
4.64008e-10
4.47177e-09
4.80792e-10
4.11051e-09
4.94897e-10
3.73931e-09
5.06677e-10
3.3613e-09
5.15995e-10
2.9797e-09
5.22352e-10
2.59781e-09
5.24959e-10
2.21923e-09
5.22811e-10
1.84796e-09
5.14761e-10
1.48878e-09
4.99495e-10
1.14751e-09
4.7538e-10
8.31368e-10
4.40353e-10
5.49592e-10
3.91487e-10
3.14106e-10
3.24539e-10
1.39187e-10
2.35771e-10
3.5039e-11
1.31263e-10
3.56208e-11
-7.26148e-11
1.09914e-10
-2.56873e-10
3.27303e-10
-5.37031e-10
5.297e-10
-8.96228e-10
6.95685e-10
-1.31749e-09
8.24037e-10
-1.78685e-09
9.21701e-10
-2.29245e-09
9.94264e-10
-2.82408e-09
1.0458e-09
-3.37308e-09
1.0799e-09
-3.93219e-09
1.09978e-09
-4.49539e-09
1.10794e-09
-5.05749e-09
1.10619e-09
-5.61391e-09
1.09567e-09
-6.16037e-09
1.07702e-09
-6.69282e-09
1.05041e-09
-7.20708e-09
1.01563e-09
-7.69872e-09
9.72124e-10
-8.16293e-09
9.19034e-10
-8.59442e-09
8.55344e-10
-8.98737e-09
7.799e-10
-9.33537e-09
6.91497e-10
-9.63139e-09
5.88984e-10
-9.86793e-09
4.7137e-10
-1.00371e-08
3.37948e-10
-1.01309e-08
1.88402e-10
-1.01413e-08
2.29071e-11
-1.00608e-08
-1.57766e-10
-9.8826e-09
-3.52171e-10
-9.6009e-09
-5.58146e-10
-9.21149e-09
-7.72768e-10
-8.712e-09
-9.92354e-10
-8.10231e-09
-1.21251e-09
-7.38481e-09
-1.42822e-09
-6.56461e-09
-1.63402e-09
-5.6497e-09
-1.82416e-09
-4.65091e-09
-1.9929e-09
-3.58174e-09
-2.1348e-09
-2.45803e-09
-2.24505e-09
-1.29752e-09
-2.31978e-09
-1.1924e-10
-2.35633e-09
1.05716e-09
-2.35342e-09
2.21216e-09
-2.31123e-09
3.32708e-09
-2.2314e-09
4.3847e-09
-2.11689e-09
5.36987e-09
-1.97179e-09
6.26987e-09
-1.80106e-09
7.07474e-09
-1.6102e-09
7.77733e-09
-1.4049e-09
8.37324e-09
-1.19077e-09
8.86076e-09
-9.7307e-10
9.24062e-09
-7.56644e-10
9.51566e-09
-5.45699e-10
9.69025e-09
-3.43653e-10
9.77001e-09
-1.53131e-10
9.76165e-09
2.388e-11
9.67265e-09
1.85943e-10
9.51071e-09
3.32239e-10
9.28351e-09
4.62537e-10
8.99867e-09
5.77e-10
8.6637e-09
6.75998e-10
8.28573e-09
7.60132e-10
7.87114e-09
8.30383e-10
7.42539e-09
8.88207e-10
6.95309e-09
9.35439e-10
6.45828e-09
9.73954e-10
5.94479e-09
1.00527e-09
5.41659e-09
1.03026e-09
4.87788e-09
1.04909e-09
4.33312e-09
1.06119e-09
3.78716e-09
1.06533e-09
3.24526e-09
1.05981e-09
2.71338e-09
1.04254e-09
2.19853e-09
1.01096e-09
1.70903e-09
9.62038e-10
1.25476e-09
8.92096e-10
8.47763e-10
7.96103e-10
5.03088e-10
6.66827e-10
2.37987e-10
4.98411e-10
6.69015e-11
2.99979e-10
1.01534e-10
-9.94629e-11
2.08359e-10
-3.42418e-10
5.68296e-10
-7.0011e-10
8.85525e-10
-1.14996e-09
1.14356e-09
-1.67212e-09
1.34413e-09
-2.25058e-09
1.49793e-09
-2.8717e-09
1.61305e-09
-3.52369e-09
1.69537e-09
-4.19647e-09
1.75016e-09
-4.88129e-09
1.78208e-09
-5.57091e-09
1.79504e-09
-6.259e-09
1.79174e-09
-6.93992e-09
1.77408e-09
-7.60841e-09
1.74307e-09
-8.25944e-09
1.69903e-09
-8.88791e-09
1.64166e-09
-9.48844e-09
1.57015e-09
-1.00552e-08
1.4832e-09
-1.05817e-08
1.37921e-09
-1.10609e-08
1.25636e-09
-1.14851e-08
1.11275e-09
-1.18457e-08
9.46528e-10
-1.21336e-08
7.56105e-10
-1.23393e-08
5.40336e-10
-1.24528e-08
2.98681e-10
-1.24645e-08
3.1392e-11
-1.23651e-08
-2.60333e-10
-1.21462e-08
-5.7422e-10
-1.18008e-08
-9.06821e-10
-1.13234e-08
-1.25346e-09
-1.07111e-08
-1.60821e-09
-9.96351e-09
-1.96399e-09
-9.08333e-09
-2.31269e-09
-8.07667e-09
-2.64543e-09
-6.95318e-09
-2.95287e-09
-5.72604e-09
-3.22567e-09
-4.41182e-09
-3.45498e-09
-3.03004e-09
-3.63297e-09
-1.60261e-09
-3.75338e-09
-1.53103e-10
-3.81189e-09
1.29412e-09
-3.80646e-09
2.71485e-09
-3.73745e-09
4.08595e-09
-3.60759e-09
5.38617e-09
-3.42178e-09
6.59681e-09
-3.18671e-09
7.7023e-09
-2.91046e-09
8.69051e-09
-2.60199e-09
9.55284e-09
-2.27057e-09
1.02841e-08
-1.9253e-09
1.08822e-08
-1.57468e-09
1.13483e-08
-1.22651e-09
1.16861e-08
-8.87617e-10
1.1901e-08
-5.63569e-10
1.2e-08
-2.58538e-10
1.19912e-08
2.45063e-11
1.18837e-08
2.83552e-10
1.1687e-08
5.17583e-10
1.14104e-08
7.26625e-10
1.1063e-08
9.11449e-10
1.06539e-08
1.0731e-09
1.01919e-08
1.21265e-09
9.6851e-09
1.3313e-09
9.14058e-09
1.43058e-09
8.56421e-09
1.51243e-09
7.96091e-09
1.57901e-09
7.33512e-09
1.63232e-09
6.69126e-09
1.67379e-09
6.0341e-09
1.70401e-09
5.36889e-09
1.72252e-09
4.70146e-09
1.72785e-09
4.0383e-09
1.71771e-09
3.38678e-09
1.68899e-09
2.75545e-09
1.63776e-09
2.15421e-09
1.55942e-09
1.59459e-09
1.44851e-09
1.09045e-09
1.29754e-09
6.58711e-10
1.09616e-09
3.19423e-10
8.35409e-10
9.24401e-11
5.24891e-10
1.9318e-10
-1.19213e-10
3.26617e-10
-4.08659e-10
8.55869e-10
-8.29332e-10
1.3044e-09
-1.3529e-09
1.66522e-09
-1.95626e-09
1.9455e-09
-2.6214e-09
2.16091e-09
-3.33323e-09
2.32262e-09
-4.07881e-09
2.43857e-09
-4.84708e-09
2.51592e-09
-5.62843e-09
2.5609e-09
-6.41478e-09
2.57884e-09
-7.19915e-09
2.57349e-09
-7.97522e-09
2.54753e-09
-8.73715e-09
2.50243e-09
-9.47933e-09
2.43866e-09
-1.01961e-08
2.35585e-09
-1.08814e-08
2.25288e-09
-1.15288e-08
2.12797e-09
-1.21311e-08
1.97887e-09
-1.26804e-08
1.80298e-09
-1.31678e-08
1.59752e-09
-1.35838e-08
1.35979e-09
-1.39177e-08
1.08744e-09
-1.41587e-08
7.7869e-10
-1.42952e-08
4.3265e-10
-1.43159e-08
4.95491e-11
-1.42098e-08
-3.69023e-10
-1.39669e-08
-8.19919e-10
-1.35786e-08
-1.29828e-09
-1.30383e-08
-1.79745e-09
-1.23418e-08
-2.30894e-09
-1.14882e-08
-2.82252e-09
-1.04801e-08
-3.32644e-09
-9.32402e-09
-3.80773e-09
-8.03085e-09
-4.25276e-09
-6.6157e-09
-4.64783e-09
-5.09781e-09
-4.97996e-09
-3.50006e-09
-5.23763e-09
-1.84832e-09
-5.41162e-09
-1.70473e-10
-5.49564e-09
1.50459e-09
-5.48672e-09
3.14818e-09
-5.38548e-09
4.73295e-09
-5.19602e-09
6.23389e-09
-4.92564e-09
7.62915e-09
-4.58425e-09
8.90069e-09
-4.18376e-09
1.00347e-08
-3.73731e-09
1.10216e-08
-3.25852e-09
1.18559e-08
-2.76066e-09
1.25357e-08
-2.25603e-09
1.30627e-08
-1.75571e-09
1.34418e-08
-1.26945e-09
1.368e-08
-8.0528e-10
1.37857e-08
-3.69108e-10
1.37685e-08
3.50302e-11
1.3639e-08
4.04515e-10
1.34086e-08
7.38022e-10
1.30882e-08
1.03572e-09
1.26879e-08
1.29905e-09
1.22177e-08
1.53008e-09
1.16874e-08
1.73087e-09
1.11064e-08
1.90327e-09
1.04831e-08
2.04911e-09
9.82449e-09
2.17039e-09
9.13638e-09
2.26932e-09
8.42365e-09
2.34816e-09
7.69095e-09
2.40874e-09
6.94321e-09
2.45202e-09
6.18599e-09
2.47774e-09
5.42556e-09
2.48436e-09
4.66914e-09
2.46902e-09
3.92504e-09
2.42757e-09
3.20282e-09
2.35473e-09
2.51342e-09
2.2442e-09
1.86971e-09
2.08841e-09
1.2869e-09
1.87729e-09
7.8385e-10
1.5967e-09
3.83647e-10
1.23346e-09
1.11666e-10
7.95094e-10
3.04253e-10
-1.33435e-10
4.59142e-10
-4.58592e-10
1.17923e-09
-9.29481e-10
1.77358e-09
-1.51276e-09
2.24668e-09
-2.18213e-09
2.61297e-09
-2.91738e-09
2.8941e-09
-3.70203e-09
3.10511e-09
-4.52211e-09
3.25638e-09
-5.36582e-09
3.35718e-09
-6.22302e-09
3.41562e-09
-7.08516e-09
3.43845e-09
-7.94492e-09
3.43063e-09
-8.79571e-09
3.39566e-09
-9.63144e-09
3.3355e-09
-1.04462e-08
3.25082e-09
-1.12342e-08
3.14118e-09
-1.1989e-08
3.00511e-09
-1.27039e-08
2.84028e-09
-1.33713e-08
2.6437e-09
-1.39826e-08
2.41184e-09
-1.45282e-08
2.14086e-09
-1.49976e-08
1.82699e-09
-1.5379e-08
1.46684e-09
-1.56599e-08
1.05777e-09
-1.58274e-08
5.98311e-10
-1.58684e-08
8.84973e-11
-1.57698e-08
-4.69799e-10
-1.55198e-08
-1.07259e-09
-1.51078e-08
-1.71354e-09
-1.45255e-08
-2.38386e-09
-1.37671e-08
-3.07219e-09
-1.28305e-08
-3.76476e-09
-1.17176e-08
-4.44559e-09
-1.0435e-08
-5.09699e-09
-8.99444e-09
-5.70021e-09
-7.41262e-09
-6.23636e-09
-5.71147e-09
-6.68742e-09
-3.91737e-09
-7.03743e-09
-2.06036e-09
-7.27356e-09
-1.73022e-10
-7.38705e-09
1.71084e-09
-7.37382e-09
3.55768e-09
-7.23477e-09
5.33565e-09
-6.97572e-09
7.01582e-09
-6.6069e-09
8.57317e-09
-6.1422e-09
9.98731e-09
-5.59817e-09
1.1243e-08
-4.99297e-09
1.23302e-08
-4.34536e-09
1.32437e-08
-3.67356e-09
1.39823e-08
-2.99429e-09
1.45487e-08
-2.32232e-09
1.49494e-08
-1.67054e-09
1.51936e-08
-1.0497e-09
1.52917e-08
-4.67723e-10
1.52548e-08
7.02049e-11
1.50954e-08
5.60923e-10
1.48266e-08
1.00283e-09
1.44611e-08
1.39612e-09
1.40103e-08
1.74289e-09
1.34847e-08
2.04642e-09
1.28945e-08
2.31032e-09
1.22497e-08
2.5378e-09
1.15597e-08
2.73155e-09
1.08325e-08
2.8939e-09
1.00747e-08
3.02713e-09
9.29162e-09
3.13351e-09
8.48806e-09
3.21502e-09
7.66886e-09
3.27278e-09
6.83944e-09
3.30666e-09
6.0061e-09
3.31502e-09
5.17629e-09
3.29441e-09
4.35881e-09
3.23969e-09
3.5638e-09
3.14422e-09
2.80316e-09
2.99977e-09
2.09083e-09
2.79646e-09
1.44347e-09
2.52122e-09
8.82046e-10
2.15549e-09
4.32705e-10
1.68076e-09
1.2581e-10
1.1005e-09
4.29598e-10
-1.43554e-10
6.01831e-10
-4.95943e-10
1.52991e-09
-1.00675e-09
2.28276e-09
-1.63869e-09
2.8769e-09
-2.36242e-09
3.33491e-09
-3.15556e-09
3.68526e-09
-4.00004e-09
3.94749e-09
-4.88091e-09
4.13507e-09
-5.78579e-09
4.25963e-09
-6.70417e-09
4.33149e-09
-7.62729e-09
4.35899e-09
-8.5478e-09
4.34846e-09
-9.45914e-09
4.30422e-09
-1.03553e-08
4.22881e-09
-1.12304e-08
4.12313e-09
-1.20786e-08
3.98664e-09
-1.28938e-08
3.81752e-09
-1.36689e-08
3.61281e-09
-1.43963e-08
3.36865e-09
-1.50672e-08
3.0804e-09
-1.56713e-08
2.74294e-09
-1.61973e-08
2.35109e-09
-1.66322e-08
1.90011e-09
-1.69621e-08
1.38614e-09
-1.71723e-08
8.06815e-10
-1.72474e-08
1.61713e-10
-1.71723e-08
-5.47199e-10
-1.69327e-08
-1.3152e-09
-1.65155e-08
-2.13451e-09
-1.59098e-08
-2.99407e-09
-1.51077e-08
-3.87947e-09
-1.41052e-08
-4.77299e-09
-1.29028e-08
-5.65388e-09
-1.15068e-08
-6.49894e-09
-9.92911e-09
-7.28338e-09
-8.18831e-09
-7.98205e-09
-6.30905e-09
-8.57082e-09
-4.32163e-09
-9.02821e-09
-2.26095e-09
-9.33688e-09
-1.65073e-10
-9.48494e-09
1.92638e-09
-9.46684e-09
3.97415e-09
-9.28385e-09
5.94111e-09
-8.94387e-09
7.79388e-09
-8.46081e-09
9.50402e-09
-7.85351e-09
1.10488e-08
-7.14424e-09
1.24115e-08
-6.35721e-09
1.35822e-08
-5.51731e-09
1.45567e-08
-4.64868e-09
1.53352e-08
-3.7732e-09
1.5922e-08
-2.9098e-09
1.63257e-08
-2.07467e-09
1.65582e-08
-1.28142e-09
1.66327e-08
-5.40241e-10
1.65625e-08
1.42451e-10
1.63616e-08
7.63152e-10
1.60454e-08
1.32026e-09
1.56288e-08
1.81413e-09
1.51245e-08
2.24738e-09
1.45439e-08
2.62455e-09
1.38971e-08
2.95109e-09
1.31943e-08
3.23223e-09
1.2445e-08
3.47227e-09
1.16579e-08
3.6745e-09
1.08402e-08
3.84155e-09
9.99775e-09
3.9757e-09
9.13544e-09
4.07881e-09
8.2579e-09
4.15189e-09
7.37017e-09
4.19473e-09
6.47822e-09
4.20539e-09
5.58933e-09
4.17981e-09
4.71233e-09
4.11183e-09
3.85777e-09
3.9933e-09
3.03832e-09
3.81387e-09
2.269e-09
3.56109e-09
1.56804e-09
3.21839e-09
9.5862e-10
2.76207e-09
4.69886e-10
2.16749e-09
1.36017e-10
1.43305e-09
5.65139e-10
-1.50881e-10
7.51891e-10
-5.24538e-10
1.90195e-09
-1.06792e-09
2.82461e-09
-1.74062e-09
3.54796e-09
-2.51049e-09
4.10308e-09
-3.35294e-09
4.52579e-09
-4.24825e-09
4.84076e-09
-5.18038e-09
5.06508e-09
-6.13645e-09
5.21332e-09
-7.10576e-09
5.29827e-09
-8.07957e-09
5.3302e-09
-9.05071e-09
5.31688e-09
-1.00129e-08
5.26361e-09
-1.09605e-08
5.17352e-09
-1.1888e-08
5.04777e-09
-1.27899e-08
4.88571e-09
-1.36603e-08
4.68513e-09
-1.44925e-08
4.44241e-09
-1.52789e-08
4.15268e-09
-1.60106e-08
3.80997e-09
-1.66772e-08
3.40759e-09
-1.72665e-08
2.9386e-09
-1.77644e-08
2.39639e-09
-1.81553e-08
1.77546e-09
-1.84224e-08
1.07208e-09
-1.8548e-08
2.85021e-10
-1.85141e-08
-5.83942e-10
-1.83031e-08
-1.52956e-09
-1.7899e-08
-2.54273e-09
-1.72874e-08
-3.61016e-09
-1.64575e-08
-4.71424e-09
-1.54023e-08
-5.83297e-09
-1.41204e-08
-6.94025e-09
-1.26167e-08
-8.00651e-09
-1.09035e-08
-8.99974e-09
-9.0008e-09
-9.88714e-09
-6.93639e-09
-1.0637e-08
-4.7452e-09
-1.12207e-08
-2.468e-09
-1.16152e-08
-1.49656e-10
-1.18045e-08
2.16304e-09
-1.17811e-08
4.4237e-09
-1.15467e-08
6.58875e-09
-1.11118e-08
8.61944e-09
-1.04951e-08
1.04834e-08
-9.7217e-09
1.21554e-08
-8.82116e-09
1.36176e-08
-7.82522e-09
1.48603e-08
-6.76614e-09
1.58811e-08
-5.67502e-09
1.66829e-08
-4.5799e-09
1.72725e-08
-3.50439e-09
1.76607e-08
-2.46804e-09
1.78631e-08
-1.4872e-09
1.78966e-08
-5.74404e-10
1.77772e-08
2.62601e-10
1.75211e-08
1.02018e-09
1.71457e-08
1.69722e-09
1.66682e-08
2.2947e-09
1.61036e-08
2.81598e-09
1.54642e-08
3.26682e-09
1.47603e-08
3.65452e-09
1.40016e-08
3.98662e-09
1.31972e-08
4.26964e-09
1.23558e-08
4.50857e-09
1.14847e-08
4.70693e-09
1.05902e-08
4.86728e-09
9.67726e-09
4.99126e-09
8.75024e-09
5.07962e-09
7.81372e-09
5.13175e-09
6.8731e-09
5.14519e-09
5.93519e-09
5.11514e-09
5.00851e-09
5.03434e-09
4.10385e-09
4.89279e-09
3.23444e-09
4.67789e-09
2.41642e-09
4.37417e-09
1.66978e-09
3.96095e-09
1.01989e-09
3.40893e-09
4.98742e-10
2.68661e-09
1.43484e-10
1.78701e-09
7.08102e-10
-1.56472e-10
9.07597e-10
-5.47708e-10
2.29167e-09
-1.11911e-09
3.39457e-09
-1.82772e-09
4.25501e-09
-2.63861e-09
4.91237e-09
-3.52481e-09
5.4102e-09
-4.46495e-09
5.77892e-09
-5.44186e-09
6.03996e-09
-6.44217e-09
6.21137e-09
-7.45517e-09
6.30884e-09
-8.47245e-09
6.34492e-09
-9.48719e-09
6.32898e-09
-1.04937e-08
6.26738e-09
-1.14868e-08
6.1639e-09
-1.24617e-08
6.01993e-09
-1.34134e-08
5.83475e-09
-1.43366e-08
5.60576e-09
-1.52252e-08
5.32859e-09
-1.6072e-08
4.99727e-09
-1.68684e-08
4.60433e-09
-1.76038e-08
4.14115e-09
-1.82655e-08
3.59851e-09
-1.88383e-08
2.96739e-09
-1.93048e-08
2.23995e-09
-1.96456e-08
1.41057e-09
-1.98401e-08
4.76716e-10
-1.98668e-08
-5.60456e-10
-1.97045e-08
-1.69552e-09
-1.93328e-08
-2.91831e-09
-1.87333e-08
-4.21351e-09
-1.78907e-08
-5.56029e-09
-1.67944e-08
-6.93218e-09
-1.54397e-08
-8.29711e-09
-1.38295e-08
-9.61807e-09
-1.19757e-08
-1.08543e-08
-9.89973e-09
-1.19636e-08
-7.63287e-09
-1.29043e-08
-5.21565e-09
-1.36388e-08
-2.6962e-09
-1.41362e-08
-1.27984e-10
-1.43753e-08
2.433e-09
-1.43457e-08
4.93129e-09
-1.40498e-08
7.3151e-09
-1.35017e-08
9.53895e-09
-1.27261e-08
1.15658e-08
-1.17565e-08
1.3368e-08
-1.06319e-08
1.49267e-08
-9.39373e-09
1.62329e-08
-8.0832e-09
1.72869e-08
-6.73969e-09
1.80959e-08
-5.39846e-09
1.86703e-08
-4.08854e-09
1.90241e-08
-2.8328e-09
1.91766e-08
-1.64989e-09
1.91497e-08
-5.54352e-10
1.89635e-08
4.44764e-10
1.86363e-08
1.34385e-09
1.81877e-08
2.14285e-09
1.76375e-08
2.84411e-09
1.7003e-08
3.45246e-09
1.62981e-08
3.97523e-09
1.55335e-08
4.42158e-09
1.47182e-08
4.8013e-09
1.38605e-08
5.12333e-09
1.29681e-08
5.39479e-09
1.20481e-08
5.6207e-09
1.11066e-08
5.80424e-09
1.01486e-08
5.94711e-09
9.17815e-09
6.04971e-09
8.19936e-09
6.11086e-09
7.21698e-09
6.12733e-09
6.23704e-09
6.09344e-09
5.2676e-09
6.00052e-09
4.31939e-09
5.8365e-09
3.40602e-09
5.58623e-09
2.54476e-09
5.23057e-09
1.75747e-09
4.74415e-09
1.07183e-09
4.0915e-09
5.22484e-10
3.23392e-09
1.49219e-10
2.15895e-09
8.56861e-10
-1.61147e-10
1.068e-09
-5.68313e-10
2.6974e-09
-1.16586e-09
3.99074e-09
-1.90829e-09
4.99595e-09
-2.75776e-09
5.76033e-09
-3.68469e-09
6.33544e-09
-4.66583e-09
6.75819e-09
-5.6831e-09
7.05523e-09
-6.72266e-09
7.2488e-09
-7.77406e-09
7.35796e-09
-8.82943e-09
7.39788e-09
-9.88267e-09
7.37969e-09
-1.09288e-08
7.31093e-09
-1.19635e-08
7.196e-09
-1.29826e-08
7.03654e-09
-1.3982e-08
6.83174e-09
-1.49573e-08
6.57862e-09
-1.5903e-08
6.27213e-09
-1.6813e-08
5.90512e-09
-1.76792e-08
5.46845e-09
-1.84912e-08
4.95122e-09
-1.92362e-08
4.34135e-09
-1.98977e-08
3.62661e-09
-2.04563e-08
2.79598e-09
-2.08899e-08
1.84117e-09
-2.11741e-08
7.57684e-10
-2.12836e-08
-4.54483e-10
-2.11924e-08
-1.79028e-09
-2.08749e-08
-3.239e-09
-2.03073e-08
-4.78367e-09
-1.94689e-08
-6.40051e-09
-1.83435e-08
-8.05843e-09
-1.6922e-08
-9.71882e-09
-1.52039e-08
-1.13359e-08
-1.31997e-08
-1.28584e-08
-1.09319e-08
-1.42316e-08
-8.43595e-09
-1.54014e-08
-5.75911e-09
-1.6318e-08
-2.9589e-09
-1.69403e-08
-9.99384e-11
-1.72394e-08
2.74973e-09
-1.72019e-08
5.52282e-09
-1.68304e-08
8.15694e-09
-1.61442e-08
1.0598e-08
-1.51762e-08
1.28033e-08
-1.39709e-08
1.47426e-08
-1.25799e-08
1.63971e-08
-1.10572e-08
1.7759e-08
-9.45524e-09
1.88325e-08
-7.82331e-09
1.96308e-08
-6.20504e-09
2.01701e-08
-4.63569e-09
2.04686e-08
-3.14158e-09
2.05496e-08
-1.74288e-09
2.04408e-08
-4.55315e-10
2.01675e-08
7.11254e-10
1.97514e-08
1.75351e-09
1.92143e-08
2.6729e-09
1.85783e-08
3.47403e-09
1.78632e-08
4.16431e-09
1.70844e-08
4.75366e-09
1.62535e-08
5.25363e-09
1.53789e-08
5.67625e-09
1.44676e-08
6.03266e-09
1.35259e-08
6.33207e-09
1.256e-08
6.58118e-09
1.15751e-08
6.78414e-09
1.05761e-08
6.94299e-09
9.5666e-09
7.0579e-09
8.5503e-09
7.12711e-09
7.5311e-09
7.14657e-09
6.51419e-09
7.10948e-09
5.50694e-09
7.00547e-09
4.51963e-09
6.82018e-09
3.56614e-09
6.5353e-09
2.66476e-09
6.12745e-09
1.83924e-09
5.56577e-09
1.11981e-09
4.80791e-09
5.43913e-10
3.80774e-09
1.54168e-10
2.54737e-09
1.01059e-09
-1.65655e-10
1.23296e-09
-5.89106e-10
3.11951e-09
-1.21361e-09
4.61399e-09
-1.99059e-09
5.77151e-09
-2.87864e-09
6.64696e-09
-3.84523e-09
7.30044e-09
-4.86513e-09
7.77639e-09
-5.91949e-09
8.10767e-09
-6.9944e-09
8.32169e-09
-8.07996e-09
8.44141e-09
-9.16917e-09
8.48488e-09
-1.02569e-08
8.46514e-09
-1.13392e-08
8.39088e-09
-1.24126e-08
8.26712e-09
-1.3474e-08
8.09567e-09
-1.45201e-08
7.87565e-09
-1.55474e-08
7.60379e-09
-1.65519e-08
7.27441e-09
-1.75282e-08
6.87934e-09
-1.84697e-08
6.40772e-09
-1.93669e-08
5.84603e-09
-2.02069e-08
5.17862e-09
-2.09722e-08
4.389e-09
-2.16414e-08
3.46184e-09
-2.2189e-08
2.38516e-09
-2.25867e-08
1.1517e-09
-2.28041e-08
-2.40505e-10
-2.28099e-08
-1.78755e-09
-2.25722e-08
-3.47894e-09
-2.20605e-08
-5.29676e-09
-2.12467e-08
-7.21482e-09
-2.01074e-08
-9.1976e-09
-1.86265e-08
-1.11993e-08
-1.67983e-08
-1.31641e-08
-1.46305e-08
-1.5027e-08
-1.21462e-08
-1.6718e-08
-9.38509e-09
-1.81661e-08
-6.403e-09
-1.93052e-08
-3.26952e-09
-2.00802e-08
-6.4038e-11
-2.04523e-08
3.12938e-09
-2.04031e-08
6.22777e-09
-1.99366e-08
9.15495e-09
-1.90787e-08
1.18457e-08
-1.78739e-08
1.42503e-08
-1.63813e-08
1.63361e-08
-1.46693e-08
1.80854e-08
-1.28086e-08
1.94936e-08
-1.08662e-08
2.05698e-08
-8.90281e-09
2.13353e-08
-6.97152e-09
2.18153e-08
-5.11454e-09
2.20338e-08
-3.36167e-09
2.20187e-08
-1.73388e-09
2.18037e-08
-2.46759e-10
2.14207e-08
1.09004e-09
2.08959e-08
2.27411e-09
2.02535e-08
3.30884e-09
1.95182e-08
4.20182e-09
1.87117e-08
4.96421e-09
1.78509e-08
5.61002e-09
1.69476e-08
6.15449e-09
1.60099e-08
6.61244e-09
1.50434e-08
6.99704e-09
1.40529e-08
7.31914e-09
1.30426e-08
7.58673e-09
1.2017e-08
7.80494e-09
1.09801e-08
7.97625e-09
9.93504e-09
8.10085e-09
8.88497e-09
8.17656e-09
7.83291e-09
8.19858e-09
6.78306e-09
8.15887e-09
5.74179e-09
8.04516e-09
4.71856e-09
7.84056e-09
3.72722e-09
7.52288e-09
2.78688e-09
7.06372e-09
1.92314e-09
6.42582e-09
1.16913e-09
5.55892e-09
5.65778e-10
4.40894e-09
1.59129e-10
2.95269e-09
1.16909e-09
-1.70873e-10
1.40318e-09
-6.13341e-10
3.56071e-09
-1.26865e-09
5.26818e-09
-2.08381e-09
6.58536e-09
-3.01272e-09
7.57453e-09
-4.01943e-09
8.3056e-09
-5.07671e-09
8.83213e-09
-6.16533e-09
9.19454e-09
-7.27194e-09
9.42641e-09
-8.38772e-09
9.55528e-09
-9.50695e-09
9.6022e-09
-1.06258e-08
9.58209e-09
-1.17416e-08
9.50469e-09
-1.28518e-08
9.37546e-09
-1.39543e-08
9.1963e-09
-1.50468e-08
8.96623e-09
-1.61267e-08
8.6818e-09
-1.71914e-08
8.33702e-09
-1.82372e-08
7.92298e-09
-1.92593e-08
7.42729e-09
-2.02498e-08
6.83366e-09
-2.11965e-08
6.12207e-09
-2.20815e-08
5.27041e-09
-2.28809e-08
4.25742e-09
-2.35658e-08
3.06612e-09
-2.41033e-08
1.68554e-09
-2.44577e-08
1.1081e-10
-2.45911e-08
-1.65644e-09
-2.44644e-08
-3.60703e-09
-2.40385e-08
-5.72321e-09
-2.3276e-08
-7.97739e-09
-2.21434e-08
-1.03303e-08
-2.06147e-08
-1.27287e-08
-1.8676e-08
-1.51047e-08
-1.63295e-08
-1.73768e-08
-1.35977e-08
-1.94545e-08
-1.05253e-08
-2.12444e-08
-7.17842e-09
-2.26586e-08
-3.64261e-09
-2.36227e-08
-1.70206e-11
-2.40842e-08
3.59257e-09
-2.40179e-08
7.08213e-09
-2.34298e-08
1.03574e-08
-2.23557e-08
1.33389e-08
-2.08561e-08
1.59678e-08
-1.90102e-08
1.82095e-08
-1.69086e-08
2.005e-08
-1.4644e-08
2.14902e-08
-1.23023e-08
2.25466e-08
-9.9577e-09
2.32511e-08
-7.67314e-09
2.36411e-08
-5.49765e-09
2.37495e-08
-3.46432e-09
2.36095e-08
-1.59404e-09
2.32612e-08
9.90202e-11
2.27436e-08
1.6069e-09
2.20882e-08
2.92912e-09
2.13226e-08
4.07165e-09
2.0474e-08
5.04553e-09
1.95661e-08
5.86667e-09
1.86163e-08
6.55485e-09
1.76359e-08
7.13071e-09
1.66319e-08
7.613e-09
1.56084e-08
8.01726e-09
1.45683e-08
8.35547e-09
1.35144e-08
8.63623e-09
1.24496e-08
8.86511e-09
1.13769e-08
9.04496e-09
1.02992e-08
9.17606e-09
9.21855e-09
9.25609e-09
8.13724e-09
9.27972e-09
7.05819e-09
9.23775e-09
5.98632e-09
9.11607e-09
4.9299e-09
8.8949e-09
3.90212e-09
8.54761e-09
2.92243e-09
8.03986e-09
2.01826e-09
7.32658e-09
1.226e-09
6.34826e-09
5.91316e-10
5.04146e-09
1.64873e-10
3.37773e-09
1.33313e-09
-1.78065e-10
1.58067e-09
-6.45563e-10
4.02699e-09
-1.33953e-09
5.96111e-09
-2.19971e-09
7.44432e-09
-3.17369e-09
8.54729e-09
-4.22164e-09
9.35202e-09
-5.31488e-09
9.92386e-09
-6.43445e-09
1.03126e-08
-7.56857e-09
1.05589e-08
-8.71027e-09
1.06953e-08
-9.85571e-09
1.0746e-08
-1.10027e-08
1.07276e-08
-1.21499e-08
1.06504e-08
-1.3296e-08
1.05201e-08
-1.44394e-08
1.03383e-08
-1.55787e-08
1.0104e-08
-1.67123e-08
9.8136e-09
-1.78386e-08
9.46135e-09
-1.89563e-08
9.03829e-09
-2.0063e-08
8.53113e-09
-2.11536e-08
7.92091e-09
-2.22178e-08
7.18255e-09
-2.32379e-08
6.28649e-09
-2.41878e-08
5.20321e-09
-2.50346e-08
3.9091e-09
-2.57408e-08
2.38856e-09
-2.62651e-08
6.32671e-10
-2.65623e-08
-1.36071e-09
-2.65847e-08
-3.58536e-09
-2.6283e-08
-6.02527e-09
-2.56078e-08
-8.65324e-09
-2.45118e-08
-1.14278e-08
-2.29546e-08
-1.42887e-08
-2.09091e-08
-1.71544e-08
-1.83687e-08
-1.99227e-08
-1.5353e-08
-2.24764e-08
-1.19113e-08
-2.46921e-08
-8.12339e-09
-2.64516e-08
-4.09549e-09
-2.76541e-08
4.62955e-11
-2.82275e-08
4.16628e-09
-2.81374e-08
8.13146e-09
-2.73926e-08
1.18236e-08
-2.60433e-08
1.51453e-08
-2.41731e-08
1.80268e-08
-2.18889e-08
2.04315e-08
-1.93107e-08
2.23526e-08
-1.65603e-08
2.38023e-08
-1.3748e-08
2.4808e-08
-1.09647e-08
2.54149e-08
-8.28277e-09
2.56765e-08
-5.75648e-09
2.5638e-08
-3.42088e-09
2.53396e-08
-1.29565e-09
2.48278e-08
6.07757e-10
2.4149e-08
2.28471e-09
2.33403e-08
3.7383e-09
2.2433e-08
4.97807e-09
2.14572e-08
6.01895e-09
2.04386e-08
6.88262e-09
1.93944e-08
7.59636e-09
1.8334e-08
8.18805e-09
1.72619e-08
8.68162e-09
1.618e-08
9.0953e-09
1.50894e-08
9.44186e-09
1.39913e-08
9.72973e-09
1.28876e-08
9.9642e-09
1.17805e-08
1.01481e-08
1.06721e-08
1.02818e-08
9.56394e-09
1.03631e-08
8.45702e-09
1.03866e-08
7.35284e-09
1.03422e-08
6.25433e-09
1.02143e-08
5.1679e-09
9.98005e-09
4.10511e-09
9.60811e-09
3.08492e-09
9.05706e-09
2.13608e-09
8.27233e-09
1.29882e-09
7.18272e-09
6.25005e-10
5.71313e-09
1.72568e-10
3.82841e-09
1.50478e-09
-1.89651e-10
1.7698e-09
-6.93341e-10
4.52949e-09
-1.43906e-09
6.70579e-09
-2.35464e-09
8.3587e-09
-3.37908e-09
9.57061e-09
-4.46876e-09
1.04404e-08
-5.59495e-09
1.10486e-08
-6.74054e-09
1.14567e-08
-7.89654e-09
1.17135e-08
-9.05894e-09
1.18564e-08
-1.02264e-08
1.19123e-08
-1.13989e-08
1.18989e-08
-1.25765e-08
1.18269e-08
-1.37586e-08
1.17012e-08
-1.49445e-08
1.1523e-08
-1.61326e-08
1.12908e-08
-1.73218e-08
1.10012e-08
-1.85117e-08
1.06491e-08
-1.97029e-08
1.02268e-08
-2.08964e-08
9.72143e-09
-2.20914e-08
9.11223e-09
-2.32815e-08
8.36858e-09
-2.44502e-08
7.45109e-09
-2.55695e-08
6.31862e-09
-2.66025e-08
4.93888e-09
-2.75076e-08
3.29118e-09
-2.82379e-08
1.3614e-09
-2.87409e-08
-8.58659e-10
-2.89591e-08
-3.36796e-09
-2.88313e-08
-6.1544e-09
-2.82926e-08
-9.19414e-09
-2.72773e-08
-1.24469e-08
-2.57236e-08
-1.58474e-08
-2.35846e-08
-1.92993e-08
-2.08382e-08
-2.2675e-08
-1.74971e-08
-2.58223e-08
-1.36153e-08
-2.8577e-08
-9.28865e-09
-3.07789e-08
-4.65172e-09
-3.22892e-08
1.32411e-10
-3.30079e-08
4.88611e-09
-3.28868e-08
9.43564e-09
-3.19382e-08
1.36303e-08
-3.02333e-08
1.73501e-08
-2.78892e-08
2.05131e-08
-2.50525e-08
2.30821e-08
-2.18835e-08
2.5062e-08
-1.85419e-08
2.64847e-08
-1.51703e-08
2.73956e-08
-1.18805e-08
2.78574e-08
-8.75371e-09
2.7943e-08
-5.84565e-09
2.77138e-08
-3.18964e-09
2.72185e-08
-8.0173e-10
2.65106e-08
1.3109e-09
2.56438e-08
3.1488e-09
2.46602e-08
4.72097e-09
2.35942e-08
6.04205e-09
2.24788e-08
7.13123e-09
2.13419e-08
8.01707e-09
2.01996e-08
8.73704e-09
1.90579e-08
9.32818e-09
1.7917e-08
9.82016e-09
1.67757e-08
1.02335e-08
1.56329e-08
1.05807e-08
1.44888e-08
1.08693e-08
1.3345e-08
1.11035e-08
1.22032e-08
1.12858e-08
1.10654e-08
1.14169e-08
9.9322e-09
1.1495e-08
8.80362e-09
1.15151e-08
7.67919e-09
1.14671e-08
6.55941e-09
1.13343e-08
5.44772e-09
1.10911e-08
4.3528e-09
1.07014e-08
3.29149e-09
1.01159e-08
2.2927e-09
9.26835e-09
1.40021e-09
8.07256e-09
6.74176e-10
6.43695e-09
1.84636e-10
4.31586e-09
1.6884e-09
-2.10812e-10
1.98013e-09
-7.70604e-10
5.08818e-09
-1.58827e-09
7.52248e-09
-2.57236e-09
9.34165e-09
-3.65192e-09
1.0649e-08
-4.78093e-09
1.15684e-08
-5.93344e-09
1.22e-08
-7.0968e-09
1.2619e-08
-8.26669e-09
1.28824e-08
-9.44317e-09
1.3032e-08
-1.06282e-08
1.30967e-08
-1.1824e-08
1.30942e-08
-1.30321e-08
1.30346e-08
-1.42528e-08
1.29214e-08
-1.54852e-08
1.27546e-08
-1.67271e-08
1.25317e-08
-1.79769e-08
1.22494e-08
-1.92339e-08
1.1904e-08
-2.05003e-08
1.14905e-08
-2.17812e-08
1.09989e-08
-2.30816e-08
1.04089e-08
-2.44015e-08
9.68465e-09
-2.57281e-08
8.77404e-09
-2.70316e-08
7.61905e-09
-2.82715e-08
6.17648e-09
-2.94035e-08
4.42167e-09
-3.03773e-08
2.33417e-09
-3.11332e-08
-1.03768e-10
-3.16032e-08
-2.89961e-09
-3.17126e-08
-6.04793e-09
-3.13782e-08
-9.53271e-09
-3.05088e-08
-1.33215e-08
-2.90125e-08
-1.73494e-08
-2.68108e-08
-2.1506e-08
-2.3856e-08
-2.56329e-08
-2.01468e-08
-2.95325e-08
-1.57386e-08
-3.29838e-08
-1.07477e-08
-3.57664e-08
-5.34688e-09
-3.76858e-08
2.48629e-10
-3.85991e-08
5.80115e-09
-3.8437e-08
1.10783e-08
-3.72167e-08
1.58834e-08
-3.50407e-08
2.00682e-08
-3.20759e-08
2.35386e-08
-2.85276e-08
2.62605e-08
-2.4614e-08
2.82583e-08
-2.0546e-08
2.9595e-08
-1.6507e-08
3.03464e-08
-1.26343e-08
3.05993e-08
-9.01634e-09
3.045e-08
-5.70312e-09
2.99788e-08
-2.71857e-09
2.92445e-08
-7.0537e-11
2.83077e-08
2.24068e-09
2.72289e-08
4.22297e-09
2.60533e-08
5.89402e-09
2.48164e-08
7.27512e-09
2.35537e-08
8.38876e-09
2.22948e-08
9.27164e-09
2.10537e-08
9.9758e-09
1.98305e-08
1.05501e-08
1.86199e-08
1.10296e-08
1.74163e-08
1.1435e-08
1.62173e-08
1.17769e-08
1.50228e-08
1.206e-08
1.38349e-08
1.22872e-08
1.26562e-08
1.24606e-08
1.14885e-08