/*--------------------------------*- C++ -*----------------------------------*\
| =========                 |                                                 |
| \\      /  F ield         | OpenFOAM: The Open Source CFD Toolbox           |
|  \\    /   O peration     | Version:  2412                                  |
|   \\  /    A nd           | Website:  www.openfoam.com                      |
|    \\/     M anipulation  |                                                 |
\*---------------------------------------------------------------------------*/
FoamFile
{
    version     2.0;
    format      ascii;
    arch        "LSB;label=32;scalar=64";
    class       volScalarField;
    location    "5.6";
    object      p_rgh;
}
// * * * * * * * * * * * * * * * * * * * * * * * * * * * * * * * * * * * * * //

dimensions      [1 -1 -2 0 0 0 0];

internalField   nonuniform List<scalar> 
6400
(
132826
132829
132837
132850
132869
132893
132921
132955
132992
133034
133080
133129
133181
133234
133289
133345
133400
133453
133505
133553
133597
133636
133669
133695
133716
133729
133735
133735
133728
133717
133701
133681
133660
133639
133618
133600
133585
133574
133568
133568
133573
133584
133600
133620
133643
133668
133694
133720
133743
133761
133775
133782
133783
133775
133760
133737
133705
133667
133621
133570
133514
133454
133392
133328
133264
133201
133140
133081
133026
132976
132929
132888
132851
132819
132793
132771
132755
132743
132736
132734
132822
132825
132833
132847
132865
132889
132918
132951
132989
133032
133078
133127
133179
133233
133289
133345
133401
133455
133507
133556
133600
133640
133673
133700
133721
133734
133740
133739
133732
133719
133702
133682
133660
133638
133616
133597
133581
133569
133563
133563
133568
133579
133596
133616
133642
133668
133695
133722
133746
133765
133780
133788
133789
133782
133767
133743
133711
133672
133626
133573
133516
133456
133392
133328
133263
133199
133137
133078
133023
132972
132925
132884
132847
132816
132789
132768
132752
132740
132734
132731
132814
132817
132825
132838
132857
132881
132910
132944
132983
133025
133072
133122
133176
133231
133288
133345
133403
133459
133512
133563
133609
133649
133684
133712
133732
133745
133751
133749
133741
133727
133708
133685
133661
133636
133612
133590
133572
133559
133552
133552
133558
133570
133588
133611
133638
133667
133697
133726
133752
133774
133791
133801
133802
133796
133781
133756
133724
133683
133635
133581
133522
133459
133394
133327
133261
133196
133132
133072
133016
132964
132917
132875
132839
132807
132781
132760
132744
132733
132726
132724
132799
132803
132811
132824
132844
132868
132897
132932
132971
133015
133063
133115
133170
133227
133287
133346
133406
133465
133521
133574
133622
133665
133701
133730
133751
133764
133769
133766
133755
133738
133716
133690
133662
133632
133605
133580
133559
133544
133535
133534
133541
133554
133575
133601
133632
133665
133699
133732
133763
133789
133808
133820
133824
133818
133803
133778
133744
133702
133651
133594
133532
133466
133397
133327
133258
133190
133124
133062
133005
132952
132904
132862
132825
132794
132768
132747
132731
132720
132714
132712
132780
132783
132791
132805
132825
132850
132880
132915
132956
133001
133051
133105
133162
133222
133284
133348
133411
133473
133533
133589
133641
133686
133725
133756
133778
133791
133795
133790
133776
133755
133728
133697
133663
133628
133595
133565
133540
133522
133511
133509
133517
133533
133556
133587
133623
133662
133702
133742
133778
133809
133833
133849
133855
133850
133835
133809
133773
133727
133673
133612
133545
133475
133401
133327
133253
133181
133113
133048
132988
132934
132885
132843
132806
132775
132749
132729
132714
132703
132698
132696
132755
132758
132766
132780
132800
132826
132857
132893
132935
132982
133034
133091
133151
133215
133281
133349
133417
133484
133548
133610
133666
133715
133757
133790
133813
133827
133829
133821
133804
133778
133745
133707
133665
133622
133582
133545
133514
133491
133478
133476
133484
133503
133531
133568
133611
133658
133706
133754
133798
133836
133866
133886
133895
133893
133877
133850
133811
133761
133702
133636
133563
133486
133406
133326
133247
133170
133097
133029
132967
132911
132861
132818
132781
132750
132725
132706
132691
132682
132677
132675
132724
132727
132736
132750
132770
132796
132828
132866
132910
132959
133014
133073
133137
133205
133276
133349
133423
133496
133567
133635
133696
133751
133797
133834
133859
133872
133873
133863
133840
133808
133766
133719
133668
133615
133564
133519
133480
133452
133435
133431
133440
133463
133497
133542
133594
133652
133711
133770
133824
133871
133909
133935
133948
133947
133932
133902
133859
133804
133739
133665
133584
133499
133411
133323
133237
133155
133077
133004
132939
132881
132830
132786
132749
132719
132695
132677
132664
132656
132652
132650
132687
132690
132699
132714
132734
132761
132794
132833
132878
132930
132987
133051
133119
133192
133269
133349
133430
133511
133590
133665
133734
133796
133847
133888
133916
133930
133929
133915
133886
133845
133794
133735
133671
133606
133542
133485
133437
133401
133379
133373
133384
133412
133454
133508
133573
133644
133718
133790
133857
133916
133963
133997
134014
134016
134000
133968
133920
133858
133784
133701
133610
133515
133417
133320
133225
133134
133050
132973
132904
132843
132791
132747
132711
132683
132660
132644
132633
132626
132623
132622
132644
132648
132657
132671
132692
132720
132753
132794
132841
132895
132955
133023
133096
133176
133260
133347
133437
133528
133616
133701
133779
133849
133908
133954
133986
134001
133999
133980
133944
133894
133830
133756
133676
133594
133514
133442
133381
133334
133307
133299
133311
133345
133397
133465
133545
133633
133725
133815
133899
133972
134031
134073
134097
134100
134084
134048
133993
133923
133839
133743
133640
133532
133422
133313
133208
133108
133016
132933
132860
132797
132744
132700
132666
132639
132620
132606
132597
132592
132591
132591
132596
132600
132608
132623
132644
132671
132706
132748
132796
132853
132917
132989
133068
133154
133246
133343
133444
133545
133645
133742
133832
133913
133981
134035
134071
134089
134086
134062
134017
133954
133874
133782
133682
133579
133479
133387
133309
133250
133214
133203
133218
133259
133323
133408
133508
133618
133733
133845
133949
134041
134115
134168
134198
134205
134187
134145
134082
134001
133903
133793
133675
133551
133426
133303
133184
133074
132973
132883
132806
132740
132686
132644
132612
132588
132572
132562
132557
132555
132556
132557
132542
132546
132554
132567
132588
132615
132650
132693
132744
132802
132870
132946
133032
133125
133227
133335
133448
133563
133678
133789
133894
133988
134069
134132
134176
134196
134192
134163
134108
134030
133931
133816
133691
133561
133434
133317
133218
133143
133096
133080
133098
133149
133229
133335
133461
133599
133742
133882
134013
134127
134219
134285
134323
134332
134312
134264
134190
134094
133980
133851
133714
133571
133427
133286
133153
133030
132919
132822
132739
132672
132618
132578
132549
132529
132518
132513
132513
132516
132520
132523
132484
132488
132494
132505
132523
132550
132585
132629
132681
132742
132813
132894
132986
133089
133200
133322
133450
133581
133713
133842
133964
134076
134172
134249
134301
134327
134323
134288
134221
134125
134003
133860
133702
133539
133378
133230
133103
133006
132945
132924
132945
133008
133109
133243
133401
133574
133753
133929
134091
134233
134347
134429
134477
134488
134464
134406
134318
134204
134069
133919
133757
133590
133424
133263
133111
132973
132850
132744
132657
132588
132535
132498
132474
132460
132455
132458
132468
132477
132486
132490
132423
132426
132428
132432
132446
132473
132510
132554
132607
132670
132744
132830
132930
133042
133168
133302
133447
133597
133750
133901
134045
134177
134293
134386
134452
134486
134483
134442
134362
134245
134094
133916
133719
133512
133309
133120
132957
132832
132753
132724
132750
132829
132956
133124
133323
133542
133767
133987
134189
134365
134506
134607
134664
134677
134647
134577
134471
134334
134174
133995
133804
133609
133415
133229
133055
132898
132762
132648
132556
132485
132435
132403
132385
132379
132382
132395
132415
132437
132454
132462
132362
132362
132356
132352
132361
132387
132423
132468
132522
132585
132661
132752
132858
132981
133119
133271
133436
133609
133787
133964
134134
134293
134433
134550
134633
134677
134679
134632
134538
134396
134210
133989
133743
133482
133224
132982
132773
132612
132508
132470
132501
132600
132761
132974
133226
133502
133785
134060
134312
134529
134702
134824
134893
134907
134868
134781
134652
134487
134294
134080
133854
133624
133397
133180
132980
132803
132651
132527
132431
132361
132316
132291
132282
132286
132301
132327
132362
132401
132430
132442
132303
132298
132284
132272
132276
132296
132328
132371
132422
132485
132562
132655
132768
132900
133053
133225
133413
133613
133820
134029
134233
134424
134596
134740
134847
134908
134917
134867
134757
134586
134359
134085
133776
133447
133119
132810
132541
132332
132197
132146
132183
132308
132512
132783
133102
133451
133808
134151
134464
134733
134944
135092
135172
135185
135134
135024
134864
134663
134430
134174
133905
133632
133365
133112
132881
132679
132510
132376
132276
132209
132171
132158
132163
132184
132218
132263
132318
132375
132417
132436
132244
132235
132216
132198
132192
132202
132227
132262
132308
132366
132441
132535
132651
132794
132962
133155
133369
133601
133844
134092
134336
134569
134780
134961
135100
135186
135207
135157
135030
134826
134550
134212
133825
133410
132991
132594
132247
131975
131798
131730
131775
131933
132194
132540
132947
133390
133840
134270
134659
134988
135245
135422
135513
135521
135451
135311
135112
134866
134584
134276
133954
133629
133312
133015
132747
132515
132327
132184
132083
132022
131996
132001
132029
132076
132137
132210
132290
132365
132419
132445
132181
132172
132152
132126
132109
132106
132117
132140
132176
132226
132293
132383
132501
132650
132833
133050
133294
133562
133849
134145
134440
134723
134986
135216
135400
135520
135563
135517
135375
135134
134800
134383
133899
133373
132837
132327
131876
131521
131289
131196
131251
131452
131787
132232
132754
133318
133886
134425
134910
135311
135622
135830
135931
135929
135833
135650
135401
135097
134753
134380
133993
133603
133226
132877
132564
132294
132089
131938
131840
131790
131784
131815
131877
131961
132061
132170
132279
132375
132440
132471
132108
132099
132078
132048
132020
132002
131995
132001
132021
132057
132112
132190
132301
132452
132648
132892
133167
133477
133817
134173
134531
134876
135201
135496
135743
135917
135997
135966
135813
135532
135126
134608
134008
133339
132652
131994
131408
130944
130641
130517
130584
130839
131267
131841
132513
133233
133955
134628
135214
135717
136096
136339
136445
136424
136284
136047
135729
135350
134930
134479
134010
133539
133089
132681
132320
131989
131775
131621
131530
131497
131520
131592
131702
131837
131986
132138
132281
132401
132479
132514
132020
132015
131992
131955
131917
131884
131860
131847
131850
131869
131905
131965
132057
132197
132399
132673
132969
133323
133732
134166
134596
135007
135399
135773
136110
136363
136504
136510
136363
136049
135565
134904
134184
133336
132453
131595
130812
130190
129759
129149
129449
130025
130594
131353
132230
133155
134075
134913
135613
136245
136693
136960
137056
136996
136796
136481
136075
135607
135103
134566
133997
133421
132875
132401
132018
131706
131402
131238
131153
131140
131200
131324
131497
131698
131907
132110
132295
132445
132540
132574
104110
104254
103378
102675
102138
101657
101196
100820
100583
100641
100967
101439
102409
104386
107325
111128
115026
119141
123571
127875
131259
133563
135119
136058
136579
136945
137176
137236
137100
136756
136175
135442
130670
120183
106771
91765.8
76322.9
64322.8
56611.3
53774.4
54917.1
60775.1
71388.4
85790.9
101854
116331
128164
135391
136220
136962
137474
137764
137844
137730
137447
137030
136507
135773
134259
131498
126942
120918
114179
107237
100531
94566.9
91030
89109.7
87493.6
87276.3
88583.6
91081.2
94592.8
98598.3
102476
105850
108676
111082
113068
112825
11936.3
12159.8
12099.6
11541.7
10925.4
10293.7
9658.5
9113.29
8678.71
8346.64
8156.57
8019.17
7986.63
8402.62
9663.32
12120.1
15733.6
20975.5
28316.4
37615.1
47911.2
58192.6
69494.2
82602
95047.6
103437
108627
109454
105873
97304.9
83104.2
63931.5
42984.4
25410.9
13329.2
6028.67
2117.75
531.359
93.9182
35.347
55.8444
323.494
1522.83
4756.65
11092.1
21914.3
38580.8
60012.9
82088.6
99271.4
110827
117448
119764
118140
112598
103981
92529.7
77183.2
62718.2
48807.3
35214.5
23853.6
15322.4
9401.8
5579.35
3287.35
2228.5
1950.63
2201.33
2820.85
3677.9
4916.67
6695.6
8885.53
11262.2
13725.4
16300.7
18595.3
19405.1
19430.5
14.9995
9.30406
10.8224
12.3012
13.0293
13.4172
13.5978
13.8026
14.7726
15.4456
15.9576
14.8125
13.7323
7.78347
5.13139
5.04948
4.96234
4.74411
4.34457
3.78777
3.19633
2.6802
2.76289
4.0707
1323.63
5549.13
9611.2
12366.9
12537.2
10334.1
6146.45
2558.27
725.841
34.468
4.88639
11.1935
15.2647
9.59568
5.12353
4.14473
5.39913
9.80156
13.9363
12.7839
10.7508
13.319
300.237
2489.94
6523.39
12921.6
18544.6
20840.8
20131.4
16200.5
10813.2
5517.06
465.654
2.57559
2.68041
3.03881
3.27513
3.49163
3.8959
4.37263
4.63319
4.75855
4.83406
8.94278
9.30947
11.5518
13.7344
15.046
14.4153
13.3447
12.747
13.2883
13.5484
13.4414
13.8242
21.1444
6.41762
6.04197
6.59305
6.72555
6.08366
5.41183
5.44405
5.57538
5.44594
4.77338
5.89142
7.27087
9.13524
7.16192
7.07472
7.164
7.0225
4.85988
6.23988
6.41445
4.2899
3.39053
3.44055
3.70987
3.53151
2.99963
2.51203
1.96608
1.39921
0.882728
0.631459
1.06325
1.66365
2.89138
2.98352
2.81629
3.22225
2.93295
2.79
2.84064
2.99951
3.26416
3.32968
3.66052
5.44383
5.78773
2.79578
2.35311
1.05971
0.765414
1.64225
2.26185
2.35044
2.36157
2.37736
2.67936
3.10999
3.05643
3.28938
3.4996
3.55724
3.76657
4.3914
4.70061
4.7364
4.94525
4.62161
4.8238
4.92755
7.84656
9.13657
8.26645
6.17354
5.19442
5.10702
5.55119
6.02467
7.33016
10.4172
10.9739
5.87921
5.9496
6.3571
7.09604
5.77822
4.44881
3.94194
4.04588
4.02914
3.79935
5.49887
7.41008
10.9059
10.7002
6.07997
6.06484
6.1566
11.1189
11.4965
11.1379
11.0444
10.7786
4.43695
3.55079
3.53606
3.3445
2.9002
2.32887
1.81231
1.93846
2.28267
2.19157
1.47022
2.55434
2.82491
1.91717
2.24184
2.28596
2.42945
2.52756
2.56256
2.52829
2.41024
3.13745
5.37179
5.72597
2.57415
3.98597
9.29977
9.93096
7.73875
3.13068
3.1429
3.1185
3.86219
4.92326
3.44456
3.13471
3.23219
3.31201
3.39554
4.39032
8.1408
11.1205
10.6259
5.77252
5.03816
4.76356
4.48841
7.85519
9.26375
7.65881
4.9501
4.31442
4.29702
5.03977
5.53479
7.94844
10.6782
10.878
5.81256
6.00499
7.25997
6.95329
6.45319
3.71203
2.84788
3.22095
3.43964
3.45051
4.9859
7.9409
10.9059
7.34359
4.5052
9.99938
11.7742
11.6098
11.3081
10.9732
8.7546
3.46262
3.22638
3.25668
5.54517
8.02303
6.97954
2.54188
1.51318
1.20225
1.45444
1.73657
1.50299
1.59148
1.73804
1.79935
1.97294
2.14346
2.28673
2.3799
2.41418
2.3879
2.30112
2.15409
1.96281
1.76405
1.89066
5.28056
9.91276
9.93643
8.70435
3.23299
3.0035
3.99556
4.81321
4.98825
5.20928
5.0452
3.7612
3.42067
3.47341
4.21636
4.70066
11.4688
11.897
12.1815
6.13467
4.59067
4.29819
4.84664
6.07521
5.96348
4.81146
4.10226
3.96979
7.24633
8.00601
7.88328
6.31936
7.83726
7.65669
7.609
6.96479
6.23593
3.93357
1.63282
1.8741
2.42849
2.92084
3.16543
4.65884
7.20019
10.3019
4.0346
3.8948
5.61428
11.5996
11.0986
4.0604
3.12151
3.16759
3.16809
3.04068
4.51538
14.1055
15.6326
15.3468
11.3218
1.46606
1.1974
1.18382
1.26839
1.41085
1.54686
1.67299
1.80895
1.95061
2.08984
2.20435
2.28352
2.32091
2.30805
2.22691
2.06146
1.82905
1.58162
2.29064
5.5143
8.07335
5.27386
2.79712
2.81095
3.0248
2.71836
2.92245
2.98723
3.01785
3.19074
3.32029
3.41372
4.24754
4.13954
4.12426
7.24442
11.7733
12.0077
12.102
6.20976
4.02
3.73247
3.93812
4.5195
4.2484
4.02499
3.92894
4.15014
3.45938
3.32575
3.6842
10.0433
7.50625
7.13902
6.37058
3.53999
0.962458
0.925797
1.21699
1.80403
2.46264
2.88104
4.6942
4.01723
4.09624
3.75018
3.57626
3.56302
4.70018
5.53803
3.30113
3.14228
3.1101
3.02304
2.90162
11.4281
15.2516
15.3391
15.3474
15.0935
9.3352
1.14918
1.24177
1.37413
1.5066
1.62956
1.74175
1.84998
1.95442
2.05156
2.13088
2.18643
2.21068
2.19023
2.10642
1.98984
2.26683
2.56605
2.11312
1.46374
1.55569
1.59952
2.04745
2.43938
2.67432
2.76618
2.8062
2.89248
3.23599
3.1753
3.40664
4.67888
5.42505
5.44322
4.46827
4.66704
9.52379
11.831
11.8744
11.9362
4.47862
3.44823
3.29626
3.52495
3.89254
4.00055
3.93683
3.037
3.02963
3.02612
3.02121
10.0356
7.14566
6.68036
5.96025
1.82759
1.17628
0.603724
0.863762
1.42389
2.1189
2.60337
4.48423
3.67287
3.61704
3.49767
3.35676
3.31239
3.93132
10.6356
8.61575
3.1623
3.06279
2.82995
2.69722
11.4559
14.8353
15.0341
15.1423
15.0016
14.6187
1.92693
1.28518
1.46228
1.60485
1.71618
1.80884
1.88908
1.95888
2.01821
2.06333
2.0905
2.09234
2.05729
1.99634
2.84783
3.6982
3.39816
2.06738
1.41039
1.49787
1.78659
2.16846
2.5086
2.75048
3.07011
3.53561
3.9652
4.30593
3.64916
4.09709
4.71424
4.74537
4.65781
4.79069
2.80889
2.77234
6.43287
11.7856
11.8337
10.1283
3.55152
3.07445
2.97879
3.10797
3.90342
3.95262
3.89992
3.11442
3.12435
3.15645
4.82669
6.86386
6.38849
5.4175
0.830351
1.18357
0.616278
0.735645
1.26138
1.90412
2.44933
4.20954
3.39545
3.32976
3.23528
3.15039
3.11953
6.63656
13.346
13.2294
5.38168
3.0761
2.75433
2.24948
2.40686
9.67212
14.7104
15.0386
14.8917
14.7995
3.879
1.40427
1.581
1.71717
1.80962
1.87584
1.92622
1.96506
1.99178
2.00593
2.00346
1.97575
1.91833
2.14936
3.73221
3.53992
3.2852
3.11756
2.53074
1.57041
1.88456
2.23767
2.55477
3.89164
4.33261
4.39296
4.39478
4.24605
3.25211
2.71915
2.67717
2.70147
2.72127
2.74081
2.7554
2.73894
2.6943
3.3984
8.77205
9.87956
5.21217
2.94237
2.89137
2.82597
2.88729
3.28647
3.94504
3.71407
3.19537
3.25498
6.33439
6.75296
5.39276
1.52433
0.723949
0.705885
0.597422
0.816102
1.28829
1.83102
4.52251
3.2145
3.14704
3.84251
4.9009
3.75958
3.21534
10.4935
13.2045
13.246
13.3633
9.83442
2.80894
2.39598
1.84087
1.58484
1.6812
8.58875
15.0065
10.4213
1.40401
1.59658
1.74433
1.85102
1.91291
1.94446
1.96229
1.97175
1.96919
1.95117
1.91342
1.84031
1.71777
1.54012
1.98075
3.16373
3.04504
2.89479
2.91528
3.126
3.40805
2.97225
2.68064
3.33079
3.62551
3.38941
2.91795
2.54401
2.59532
2.63782
2.66694
2.6877
2.70259
2.71441
2.72175
2.71881
2.70659
2.6868
2.66043
4.88797
4.84748
3.11757
2.84526
2.80826
2.78476
2.79109
3.40816
3.75929
3.42489
3.40767
9.08523
6.83343
2.05018
1.20911
1.04192
0.900085
0.892165
1.09283
1.45887
1.83404
6.06463
3.015
2.96265
4.84852
4.70838
4.59545
4.43833
4.6857
12.1363
13.0213
13.1363
13.265
13.0067
5.90574
2.16482
1.97339
1.98898
2.18372
3.01901
5.90341
1.7497
1.82915
1.92247
1.9902
2.01731
2.01313
1.9959
1.97307
1.94092
1.8899
1.80942
1.67786
1.47247
1.20095
0.898413
0.628392
0.474196
0.508309
0.870267
1.48626
2.10432
2.66618
2.74189
2.80974
2.73674
2.66952
2.61099
2.58089
2.60044
2.63645
2.65673
2.66751
2.67446
2.68089
2.6865
2.69105
2.69736
2.70787
2.72572
2.75398
3.05851
3.05325
2.81193
2.77512
2.759
2.76458
3.61031
3.76915
3.54155
3.55769
9.30488
6.62826
3.08826
1.55184
1.46225
1.35189
1.32115
1.44755
1.68932
5.43469
6.3645
3.13241
3.94105
4.65192
4.51853
4.04573
1.68758
1.03323
1.16991
2.21463
9.77529
13.0344
12.9523
12.8177
9.71612
2.26907
2.31267
2.4456
2.68125
3.74885
11.0113
2.53649
2.06608
2.10148
2.10849
2.07398
2.02467
1.96773
1.90129
1.81292
1.68061
1.47165
1.16301
0.792257
0.603253
2.75935
3.78949
3.67053
3.95469
6.61921
8.0677
7.25434
7.2004
7.527
6.55947
3.91642
2.84594
2.65432
2.63576
2.65166
2.64714
2.63949
2.63588
2.63734
2.64213
2.65088
2.66503
2.68603
2.71124
2.7353
2.75656
2.78437
2.74584
2.7153
2.70381
2.94801
3.69072
3.74318
3.25497
3.41878
9.46686
6.87927
7.06189
2.20039
1.92473
1.72573
1.65587
3.58726
6.42811
6.88287
6.63722
3.69173
3.87316
4.48186
4.11955
1.47245
1.26451
0.997521
0.756911
0.621904
1.15672
2.55155
10.4121
12.8072
12.5302
8.49259
2.83776
2.63747
2.80605
5.65744
15.4198
16.2189
2.18826
2.1779
2.17281
2.16148
2.04183
1.95741
1.85711
1.7252
1.53172
1.22518
0.796774
0.538925
6.11686
9.71837
9.49206
9.4803
9.78579
10.3777
11.1121
11.9025
12.6497
13.2931
13.8524
14.2381
10.7273
7.92665
5.05361
3.6409
2.68298
2.60687
2.60745
2.58027
2.58293
2.59174
2.60636
2.6271
2.65216
2.66758
2.6692
2.70578
2.74777
2.66649
2.6279
2.81812
3.25917
3.0832
2.89533
3.21401
9.56201
7.42231
7.47002
4.46834
3.34526
1.92749
3.17835
7.08121
7.07692
7.00905
6.8495
2.89633
2.07298
3.61124
1.63758
1.73415
1.42306
1.08519
0.893168
0.751191
0.673895
2.67893
1.48528
3.13796
9.48499
11.5601
11.6828
4.04101
2.9354
3.12245
13.9457
19.4713
13.6422
4.38704
4.52781
2.55427
2.04571
1.94123
1.81094
1.63632
1.37678
0.960883
0.379143
2.41726
9.25159
8.8567
8.76497
6.46741
2.25196
5.4047
8.80732
10.7149
12.1389
13.0297
13.6787
14.186
14.4776
14.5709
14.3066
12.1894
6.66024
3.25069
2.57946
2.50166
2.50799
2.51234
2.5196
2.52973
2.5528
2.55693
2.53155
2.55266
2.62798
2.6284
2.64162
2.64067
2.6638
2.72107
2.7713
3.05749
9.62005
7.56029
7.59947
7.16373
2.63111
4.59182
7.22142
7.18862
7.15349
7.0811
6.55732
1.72814
1.04719
1.01795
1.11944
6.02453
7.74623
5.982
1.64882
0.930976
0.843668
0.806685
1.29998
2.06575
0.667713
5.30689
11.9366
11.9618
6.21827
6.62043
11.8228
19.7079
20.0907
18.3385
6.42382
3.45754
2.03319
1.91891
1.76466
1.55297
1.23579
0.722382
0.0140107
4.72571
8.77771
8.25827
6.39824
-2.30558
-2.17465
-1.81327
-1.21579
-0.123185
3.25982
10.6446
13.5093
14.1609
14.4685
14.4008
13.9372
13.683
13.8675
7.16563
2.4227
2.42535
2.42678
2.41712
2.40799
2.39798
2.39443
2.3883
2.35674
2.3343
2.44469
2.49523
2.53996
2.52014
2.56853
4.13978
2.87158
2.92233
9.66965
7.64677
7.63561
7.53188
2.33467
5.57081
7.27652
7.23519
7.23954
6.93858
2.84911
1.85328
1.00579
0.813915
2.60099
7.88939
7.98075
8.02169
7.9892
7.6315
3.5118
0.648047
0.576802
0.592236
0.756314
0.990986
0.885754
1.84726
16.1754
17.7513
18.0943
18.3663
12.5415
15.8029
12.4161
6.42236
3.17971
1.88809
1.71629
1.47954
1.12587
0.565123
-0.2072
6.05458
8.47124
7.95309
4.21733
-2.80828
-2.63229
-2.17826
-1.52113
-0.659066
0.383463
1.1548
13.3835
14.1879
11.5051
6.33413
11.3804
13.6495
13.5382
8.40669
2.43154
2.3852
2.3557
2.31656
2.2785
2.23961
2.19183
2.14916
2.122
2.10037
2.17367
2.32012
2.36953
2.38438
3.0081
6.44896
3.56517
2.80943
7.7301
7.74137
7.65489
5.69391
2.36241
2.76464
6.53065
7.30776
7.34274
2.46317
1.36286
1.62762
1.10028
0.906421
4.67631
8.25118
8.23935
8.24938
8.2291
8.19793
8.17343
7.74012
2.2075
0.69735
0.704871
0.756069
0.805771
0.832155
1.13701
7.9693
9.1838
1.54361
1.48094
3.45961
8.72648
5.66369
7.52777
7.31517
2.43432
1.41896
1.05721
0.483853
-0.407223
2.07289
8.53446
7.78519
7.54494
-1.91996
-2.87035
-2.31142
-0.917067
2.31321
0.987006
2.38445
13.2124
14.2444
2.31529
1.38695
1.35017
8.95761
13.1424
4.74401
2.74024
2.43064
2.30567
2.2157
2.14417
2.0712
1.98962
1.90839
1.86498
1.84233
1.8697
2.10142
2.13211
2.21565
5.46006
6.43626
3.26353
2.69536
7.54532
7.89981
6.2007
1.12946
1.39022
1.16042
2.18267
5.75769
3.50228
1.31308
1.34232
1.34019
1.23086
1.09256
1.26673
7.41881
8.51009
8.47419
8.44286
8.43612
8.44247
8.45007
4.78641
0.877046
0.827119
0.846993
0.877703
0.910513
1.00535
2.6988
3.03433
2.13854
1.37685
1.51634
1.65326
1.75918
2.58826
5.76856
5.57102
3.3697
1.03621
0.4989
-0.299024
-1.43612
0.478688
8.07198
5.33028
-2.63313
-2.6473
-2.09932
0.936281
5.78071
7.5521
10.9279
12.7519
13.608
2.79331
1.19694
1.24532
1.27032
3.07756
9.47524
10.651
4.00592
2.31833
2.1136
2.01152
1.91343
1.80268
1.6966
1.61742
1.58645
1.62337
1.78271
1.9023
2.01585
6.33375
6.37954
3.58626
2.58511
7.66579
8.15795
3.34797
1.16485
1.06601
1.09519
1.2028
1.44213
1.268
1.28917
1.33772
1.37612
1.34969
1.27016
1.16083
3.06582
8.76504
8.70157
8.65832
8.66341
8.50708
4.22897
1.20315
0.901597
0.91432
0.929811
0.956319
0.999949
1.03066
1.06241
1.1189
1.37288
1.50532
1.44146
1.51627
1.59009
1.57469
1.53249
3.23845
3.73691
3.46025
1.78871
-0.0816958
-0.866779
-1.75041
-1.80404
-2.22904
-2.35236
-1.96629
-1.54356
2.85141
5.46531
5.50794
3.74999
5.27235
3.16355
1.3411
1.11142
1.14971
1.13893
1.25056
17.9015
18.3852
14.3476
3.35118
2.00301
1.88161
1.77759
1.65003
1.52586
1.429
1.3833
1.41167
1.51114
1.68927
1.80575
5.52412
6.32191
6.34497
2.49055
7.64606
8.55135
3.55851
1.31582
1.15557
1.14061
1.20782
1.25
1.26171
1.2853
1.32457
1.37566
1.39049
1.34877
1.2449
1.40875
3.06878
4.80372
4.61024
3.21223
1.38836
0.876924
0.972514
1.00293
0.989804
0.999732
1.02606
1.06286
1.10092
1.1319
1.1672
1.22012
1.28643
1.35279
1.40955
1.45178
1.45324
1.40013
1.30284
1.55563
3.14967
2.69893
2.07991
1.11289
-0.661318
-1.175
-1.56207
-1.5539
-1.31269
1.72177
4.71199
5.84827
0.367148
-0.0478498
0.26906
0.720523
1.02564
1.05733
1.071
1.01537
4.46144
18.0411
18.5962
18.9718
9.10525
1.90294
1.76399
1.67144
1.54263
1.40675
1.29691
1.23815
1.25549
1.37347
1.6053
1.66598
2.70672
6.27255
6.25721
2.41935
7.6361
8.99392
4.37324
1.57858
1.34777
1.25428
1.25733
1.26157
1.25321
1.25332
1.26943
1.30314
1.315
1.28731
1.21433
1.10265
0.977932
0.884111
0.84545
0.851718
0.884013
0.925907
0.976025
1.00764
1.02787
1.0478
1.07441
1.10667
1.13943
1.16868
1.19879
1.23613
1.27945
1.32107
1.35293
1.37038
1.3645
1.32188
1.23153
1.08154
0.891972
1.55169
2.11079
1.52718
1.02224
-0.55363
-1.17623
1.8961
3.22991
3.68656
4.29993
1.66554
-0.323813
-0.00937774
0.331616
0.652177
0.909635
1.02455
1.01674
0.928338
7.05866
18.3833
18.8981
19.1571
14.9447
2.22117
1.66941
1.60207
1.48791
1.34861
1.22643
1.16014
1.16561
1.37674
1.52495
1.63883
1.61181
2.56107
6.17456
2.51157
7.65075
9.55953
5.35844
1.88916
1.5742
1.38343
1.29313
1.23549
1.18653
1.15116
1.14137
1.153
1.16549
1.15963
1.12355
1.05992
0.988812
0.935537
0.91272
0.916653
0.938302
0.968175
0.998996
1.02732
1.05323
1.07826
1.11076
1.15157
1.17988
1.19784
1.22103
1.25124
1.28273
1.3113
1.33187
1.33823
1.32368
1.28191
1.2037
1.07432
0.883186
0.62613
0.371451
1.05177
1.34497
-0.0582111
-0.859791
-0.438719
-0.253162
0.035667
0.0764772
-0.122555
-0.223566
0.0768166
0.361371
0.627652
0.87737
1.00195
0.987413
0.89753
4.35791
18.6999
19.2062
19.4467
17.4829
2.46867
1.59887
1.5648
1.47704
1.34658
1.22971
1.15726
1.14688
1.29611
1.44768
1.47429
1.49671
1.5954
2.84936
4.10952
5.42312
10.4853
6.69765
2.18473
1.74652
1.46236
1.29369
1.1758
1.07056
1.0454
1.07359
0.977773
1.00459
1.02165
1.01952
1.0003
0.974664
0.955506
0.950563
0.957458
0.975049
0.998481
1.02492
1.05141
1.08316
1.129
1.18543
1.21702
1.24524
1.26579
1.26032
1.26895
1.28998
1.3092
1.32036
1.31848
1.29884
1.25718
1.18378
1.07197
0.912888
0.702993
0.446907
0.180411
-0.0862986
-0.36972
-0.610078
-0.747683
-0.741299
-0.638836
-0.473474
-0.267665
-0.0492781
0.152174
0.357938
1.66234
2.16594
1.38466
0.980247
0.919193
3.07316
18.8028
19.5806
19.8088
16.1771
2.15115
1.54523
1.53722
1.47389
1.40016
1.30004
1.22219
1.19378
1.22087
1.41182
1.34805
1.41437
2.28921
2.45732
4.06413
1.64127
11.4012
10.7032
4.60536
1.81151
1.80545
6.22881
8.63357
6.81237
1.93141
0.735839
0.774303
0.830189
0.884015
0.916974
0.933804
0.944453
0.952748
0.962741
0.979027
0.998608
1.02095
1.04525
1.07063
1.10885
1.18105
1.21194
1.24114
1.26935
1.29559
1.31934
1.29351
1.29993
1.31124
1.3131
1.30252
1.30593
1.39997
1.49149
1.38939
1.18051
0.886762
0.585451
0.314554
0.061067
-0.154133
-0.314708
-0.400121
-0.399591
-0.32569
-0.207581
-0.071159
0.0672898
0.210843
1.83362
7.77445
8.0238
3.86457
1.02925
0.96565
5.5827
19.5438
19.9809
20.1991
12.1841
1.56894
1.48889
1.47914
1.43009
3.76651
5.98795
4.96024
1.26085
1.25836
1.27743
1.31131
1.33212
6.29606
2.72144
3.29579
1.50254
12.1027
11.67
10.5843
8.49073
8.59713
8.77134
8.47432
8.31063
8.30065
6.3438
1.15472
0.678009
0.696656
0.801137
0.862523
0.905453
0.937002
0.962823
0.987078
1.01068
1.03472
1.05978
1.08595
1.11434
1.14858
1.21118
1.26358
1.293
1.31944
1.34162
1.31324
1.31341
1.31766
1.31123
1.29088
1.3124
1.76775
1.79137
1.66712
1.52627
1.37657
1.21586
0.604901
0.173404
0.00171887
-0.129384
-0.197662
-0.196384
-0.140528
-0.0569501
0.0289431
0.109979
3.14579
7.73992
7.92474
8.01375
7.72987
1.54143
1.04424
11.1365
19.9063
20.3193
20.5672
8.68919
1.41953
1.43193
1.40964
1.36131
1.95389
5.89588
6.89615
6.08483
1.50705
1.2715
1.27359
1.26259
6.68923
2.47858
1.79007
1.42363
11.397
11.444
10.3693
9.28404
8.52593
7.84943
7.40643
7.2149
7.24376
7.45669
7.75978
5.55999
0.944331
0.868534
0.758089
0.853092
0.911342
0.952141
0.985781
1.01507
1.0422
1.06922
1.09682
1.12653
1.15814
1.19103
1.24579
1.31633
1.3448
1.33577
1.32418
1.33028
1.32769
1.3127
1.28226
1.24858
1.25521
1.64391
1.58443
1.43989
1.30347
1.16797
0.800793
0.237068
0.0859098
-0.0184397
-0.0709698
-0.0673319
-0.0238992
0.031218
0.0753422
1.56282
7.41441
7.75643
7.9143
7.98678
8.04877
2.22845
1.18586
15.9851
20.0997
20.4935
20.8544
5.35553
1.35878
1.3748
1.34202
1.2982
1.23396
1.35716
4.56396
7.26717
6.75768
2.87073
1.21408
1.66741
6.85158
4.17551
1.2953
1.33778
10.7723
10.7785
9.6912
8.54747
7.51889
1.81189
0.958792
0.0682191
0.47728
4.81713
6.1769
6.43342
7.01259
5.75461
0.624792
0.771156
0.872518
0.934432
0.979183
1.01505
1.04578
1.07521
1.10346
1.13579
1.17042
1.20699
1.24404
1.29146
1.34127
1.34019
1.34745
1.34846
1.33885
1.31485
1.27956
1.55667
1.60615
1.48985
1.45574
1.32694
1.04089
0.596926
0.444519
0.292728
0.153691
0.0657858
0.0177316
0.0241901
0.0983446
0.434923
0.626274
2.43406
4.29386
6.67407
7.78261
7.89184
5.92893
1.36085
1.34866
10.3673
20.2174
20.6486
18.9075
2.77064
1.29807
1.31373
1.29047
1.25195
1.19602
2.95273
7.2686
7.17758
7.18476
7.14236
3.96524
6.48521
6.88262
6.86003
1.15227
1.23371
10.623
10.1307
8.97357
7.52874
0.242828
-1.61822
-2.14882
-2.42353
-2.48924
-2.36183
-0.371444
5.3144
6.13424
7.12504
6.61976
0.643416
0.817857
0.911827
0.97228
1.01412
1.04758
1.07776
1.10806
1.14167
1.179
1.21969
1.26211
1.30233
1.3358
1.35613
1.3705
1.36675
1.35648
1.54437
2.81854
7.00351
7.17075
3.80924
1.12816
0.919122
0.75122
0.575615
0.68845
1.1213
0.780911
0.426433
0.0837174
0.512638
4.85942
5.1163
5.09284
2.26888
1.6812
1.6109
3.45748
5.07872
1.81184
1.0719
1.30047
1.44515
14.4687
20.7277
15.2348
1.72897
1.24129
1.25497