/*--------------------------------*- C++ -*----------------------------------*\
| =========                 |                                                 |
| \\      /  F ield         | OpenFOAM: The Open Source CFD Toolbox           |
|  \\    /   O peration     | Version:  2412                                  |
|   \\  /    A nd           | Website:  www.openfoam.com                      |
|    \\/     M anipulation  |                                                 |
\*---------------------------------------------------------------------------*/
FoamFile
{
    version     2.0;
    format      ascii;
    arch        "LSB;label=32;scalar=64";
    class       volVectorField;
    location    "2.29";
    object      U;
}
// * * * * * * * * * * * * * * * * * * * * * * * * * * * * * * * * * * * * * //

dimensions      [0 1 -1 0 0 0 0];

internalField   nonuniform List<vector> 
80000
(
(-6.154e-06 2.23087e-05 0)
(-1.75573e-05 -1.77132e-06 0)
(-1.97258e-05 -5.43212e-06 0)
(-1.94617e-05 -2.22302e-06 0)
(-2.20708e-05 -6.86556e-07 0)
(-2.28963e-05 3.08368e-07 0)
(-2.41961e-05 6.06991e-07 0)
(-2.48521e-05 7.86215e-07 0)
(-2.55356e-05 8.42099e-07 0)
(-2.6198e-05 8.89719e-07 0)
(-2.70075e-05 9.60863e-07 0)
(-2.79889e-05 1.07643e-06 0)
(-2.92052e-05 1.21248e-06 0)
(-3.06846e-05 1.35784e-06 0)
(-3.24355e-05 1.50458e-06 0)
(-3.4448e-05 1.63952e-06 0)
(-3.67028e-05 1.74804e-06 0)
(-3.91763e-05 1.82831e-06 0)
(-4.1834e-05 1.88066e-06 0)
(-4.4637e-05 1.90947e-06 0)
(-4.75555e-05 1.91583e-06 0)
(-5.05496e-05 1.91831e-06 0)
(-5.36044e-05 1.9733e-06 0)
(-5.66836e-05 1.9018e-06 0)
(-5.97504e-05 1.89445e-06 0)
(-6.28108e-05 1.88723e-06 0)
(-6.58559e-05 1.87828e-06 0)
(-6.88781e-05 1.87157e-06 0)
(-7.1878e-05 1.86852e-06 0)
(-7.48542e-05 1.86959e-06 0)
(-7.78104e-05 1.87518e-06 0)
(-8.07536e-05 1.88574e-06 0)
(-8.36871e-05 1.90099e-06 0)
(-8.66197e-05 1.92138e-06 0)
(-8.95583e-05 1.94633e-06 0)
(-9.25123e-05 1.97583e-06 0)
(-9.54888e-05 2.00985e-06 0)
(-9.84969e-05 2.04687e-06 0)
(-0.000101544 2.08792e-06 0)
(-0.000104637 2.13204e-06 0)
(-0.000107781 2.17842e-06 0)
(-0.000110982 2.22686e-06 0)
(-0.000114246 2.27674e-06 0)
(-0.000117576 2.32815e-06 0)
(-0.000120975 2.3802e-06 0)
(-0.000124446 2.43307e-06 0)
(-0.000127991 2.48657e-06 0)
(-0.000131611 2.54002e-06 0)
(-0.000135307 2.59449e-06 0)
(-0.000139081 2.64857e-06 0)
(-0.000142934 2.70316e-06 0)
(-0.000146866 2.758e-06 0)
(-0.000150878 2.81314e-06 0)
(-0.000154971 2.86863e-06 0)
(-0.000159145 2.9249e-06 0)
(-0.000163403 2.98184e-06 0)
(-0.000167746 3.03973e-06 0)
(-0.000172174 3.09863e-06 0)
(-0.000176691 3.15873e-06 0)
(-0.000181298 3.22011e-06 0)
(-0.000185997 3.28282e-06 0)
(-0.000190791 3.34695e-06 0)
(-0.000195682 3.41256e-06 0)
(-0.000200672 3.47975e-06 0)
(-0.000205763 3.54853e-06 0)
(-0.000210959 3.61892e-06 0)
(-0.000216262 3.69089e-06 0)
(-0.000221674 3.76451e-06 0)
(-0.000227198 3.83983e-06 0)
(-0.000232837 3.91692e-06 0)
(-0.000238593 3.99585e-06 0)
(-0.000244469 4.07666e-06 0)
(-0.000250469 4.15941e-06 0)
(-0.000256595 4.24414e-06 0)
(-0.00026285 4.33091e-06 0)
(-0.000269238 4.41979e-06 0)
(-0.000275761 4.51091e-06 0)
(-0.000282424 4.60438e-06 0)
(-0.000289231 4.70028e-06 0)
(-0.000296184 4.79864e-06 0)
(-0.000303288 4.89954e-06 0)
(-0.000310546 5.00286e-06 0)
(-0.000317963 5.10868e-06 0)
(-0.000325542 5.21692e-06 0)
(-0.000333287 5.32761e-06 0)
(-0.000341203 5.44078e-06 0)
(-0.000349292 5.55654e-06 0)
(-0.000357559 5.67499e-06 0)
(-0.000366008 5.79626e-06 0)
(-0.000374644 5.92044e-06 0)
(-0.000383472 6.0476e-06 0)
(-0.000392495 6.1778e-06 0)
(-0.00040172 6.3111e-06 0)
(-0.00041115 6.44751e-06 0)
(-0.000420791 6.58709e-06 0)
(-0.000430648 6.72988e-06 0)
(-0.000440726 6.87595e-06 0)
(-0.000451029 7.02537e-06 0)
(-0.000461564 7.17822e-06 0)
(-0.000472336 7.33462e-06 0)
(-0.00048335 7.49465e-06 0)
(-0.000494612 7.6584e-06 0)
(-0.000506129 7.82598e-06 0)
(-0.000517906 7.9975e-06 0)
(-0.00052995 8.17307e-06 0)
(-0.000542267 8.35276e-06 0)
(-0.000554864 8.53664e-06 0)
(-0.000567747 8.7248e-06 0)
(-0.000580924 8.91726e-06 0)
(-0.0005944 9.11409e-06 0)
(-0.000608184 9.31536e-06 0)
(-0.000622281 9.52117e-06 0)
(-0.000636701 9.73165e-06 0)
(-0.000651449 9.94692e-06 0)
(-0.000666534 1.01672e-05 0)
(-0.000681964 1.03925e-05 0)
(-0.000697747 1.06231e-05 0)
(-0.000713892 1.08591e-05 0)
(-0.000730407 1.11006e-05 0)
(-0.000747302 1.13477e-05 0)
(-0.000764584 1.16004e-05 0)
(-0.000782263 1.18589e-05 0)
(-0.000800349 1.21231e-05 0)
(-0.000818851 1.23933e-05 0)
(-0.000837778 1.26696e-05 0)
(-0.000857141 1.29522e-05 0)
(-0.00087695 1.32412e-05 0)
(-0.000897214 1.35369e-05 0)
(-0.000917946 1.38395e-05 0)
(-0.000939156 1.4149e-05 0)
(-0.000960856 1.44658e-05 0)
(-0.000983057 1.47898e-05 0)
(-0.00100577 1.51212e-05 0)
(-0.00102901 1.54602e-05 0)
(-0.00105279 1.58068e-05 0)
(-0.00107711 1.61612e-05 0)
(-0.001102 1.65236e-05 0)
(-0.00112747 1.68943e-05 0)
(-0.00115352 1.72734e-05 0)
(-0.00118018 1.76611e-05 0)
(-0.00120746 1.80576e-05 0)
(-0.00123537 1.84633e-05 0)
(-0.00126392 1.88782e-05 0)
(-0.00129314 1.93025e-05 0)
(-0.00132303 1.97365e-05 0)
(-0.00135362 2.01804e-05 0)
(-0.00138491 2.06345e-05 0)
(-0.00141694 2.10989e-05 0)
(-0.0014497 2.15738e-05 0)
(-0.00148323 2.20596e-05 0)
(-0.00151754 2.25564e-05 0)
(-0.00155264 2.30645e-05 0)
(-0.00158856 2.3584e-05 0)
(-0.00162531 2.41152e-05 0)
(-0.00166292 2.46584e-05 0)
(-0.0017014 2.52137e-05 0)
(-0.00174077 2.57816e-05 0)
(-0.00178106 2.63623e-05 0)
(-0.00182229 2.69563e-05 0)
(-0.00186447 2.7564e-05 0)
(-0.00190764 2.81856e-05 0)
(-0.00195181 2.88216e-05 0)
(-0.00199701 2.94721e-05 0)
(-0.00204326 3.01375e-05 0)
(-0.00209058 3.08179e-05 0)
(-0.00213901 3.15136e-05 0)
(-0.00218857 3.22247e-05 0)
(-0.00223928 3.29518e-05 0)
(-0.00229117 3.36951e-05 0)
(-0.00234427 3.4455e-05 0)
(-0.0023986 3.52322e-05 0)
(-0.00245419 3.60271e-05 0)
(-0.00251108 3.68401e-05 0)
(-0.0025693 3.76718e-05 0)
(-0.00262887 3.85225e-05 0)
(-0.00268983 3.93925e-05 0)
(-0.00275221 4.02822e-05 0)
(-0.00281604 4.11919e-05 0)
(-0.00288136 4.2122e-05 0)
(-0.00294819 4.30729e-05 0)
(-0.00301659 4.40451e-05 0)
(-0.00308658 4.50392e-05 0)
(-0.00315819 4.60556e-05 0)
(-0.00323147 4.7095e-05 0)
(-0.00330646 4.81578e-05 0)
(-0.0033832 4.92447e-05 0)
(-0.00346172 5.03561e-05 0)
(-0.00354207 5.14926e-05 0)
(-0.00362429 5.26546e-05 0)
(-0.00370842 5.38428e-05 0)
(-0.00379451 5.50576e-05 0)
(-0.0038826 5.62996e-05 0)
(-0.00397274 5.75695e-05 0)
(-0.00406498 5.88678e-05 0)
(-0.00415937 6.01953e-05 0)
(-0.00425595 6.15526e-05 0)
(-0.00435477 6.29403e-05 0)
(-0.0044559 6.43591e-05 0)
(-0.00455937 6.58098e-05 0)
(-0.00466525 6.7293e-05 0)
(-0.0047736 6.88096e-05 0)
(-0.00488446 7.03601e-05 0)
(-0.00499789 7.19453e-05 0)
(-0.00511396 7.3566e-05 0)
(-0.00523273 7.52228e-05 0)
(-0.00535426 7.69165e-05 0)
(-0.00547861 7.86479e-05 0)
(-0.00560585 8.04179e-05 0)
(-0.00573604 8.22272e-05 0)
(-0.00586925 8.40768e-05 0)
(-0.00600555 8.59676e-05 0)
(-0.00614501 8.79005e-05 0)
(-0.0062877 8.98765e-05 0)
(-0.00643371 9.18963e-05 0)
(-0.0065831 9.3961e-05 0)
(-0.00673595 9.60716e-05 0)
(-0.00689234 9.82288e-05 0)
(-0.00705235 0.000100434 0)
(-0.00721607 0.000102688 0)
(-0.00738358 0.000104992 0)
(-0.00755496 0.000107346 0)
(-0.00773031 0.000109753 0)
(-0.00790971 0.000112213 0)
(-0.00809326 0.000114727 0)
(-0.00828105 0.000117297 0)
(-0.00847318 0.000119923 0)
(-0.00866975 0.000122607 0)
(-0.00887085 0.00012535 0)
(-0.0090766 0.000128153 0)
(-0.00928708 0.000131017 0)
(-0.00950242 0.000133945 0)
(-0.00972273 0.000136937 0)
(-0.00994811 0.000139994 0)
(-0.0101787 0.000143118 0)
(-0.0104146 0.00014631 0)
(-0.0106559 0.000149572 0)
(-0.0109027 0.000152906 0)
(-0.0111552 0.000156311 0)
(-0.0114136 0.000159791 0)
(-0.0116778 0.000163347 0)
(-0.0119481 0.000166979 0)
(-0.0122247 0.00017069 0)
(-0.0125075 0.000174482 0)
(-0.0127969 0.000178355 0)
(-0.0130929 0.000182313 0)
(-0.0133956 0.000186355 0)
(-0.0137053 0.000190486 0)
(-0.014022 0.000194705 0)
(-0.014346 0.000199015 0)
(-0.0146774 0.000203417 0)
(-0.0150163 0.000207914 0)
(-0.015363 0.000212507 0)
(-0.0157176 0.000217198 0)
(-0.0160802 0.000221989 0)
(-0.0164511 0.000226883 0)
(-0.0168305 0.000231881 0)
(-0.0172184 0.000236985 0)
(-0.0176152 0.000242198 0)
(-0.018021 0.000247522 0)
(-0.018436 0.000252958 0)
(-0.0188603 0.000258508 0)
(-0.0192943 0.000264176 0)
(-0.0197381 0.000269963 0)
(-0.0201919 0.000275872 0)
(-0.020656 0.000281905 0)
(-0.0211306 0.000288065 0)
(-0.0216158 0.000294354 0)
(-0.022112 0.000300775 0)
(-0.0226193 0.000307329 0)
(-0.0231381 0.000314019 0)
(-0.0236685 0.000320848 0)
(-0.0242108 0.000327818 0)
(-0.0247652 0.000334933 0)
(-0.0253321 0.000342195 0)
(-0.0259117 0.000349607 0)
(-0.0265042 0.000357171 0)
(-0.0271099 0.00036489 0)
(-0.0277292 0.000372767 0)
(-0.0283622 0.000380804 0)
(-0.0290094 0.000389006 0)
(-0.0296709 0.000397374 0)
(-0.0303471 0.000405913 0)
(-0.0310383 0.000414624 0)
(-0.0317448 0.000423511 0)
(-0.0324669 0.000432577 0)
(-0.033205 0.000441825 0)
(-0.0339594 0.000451257 0)
(-0.0347304 0.000460878 0)
(-0.0355183 0.000470691 0)
(-0.0363236 0.000480699 0)
(-0.0371465 0.000490906 0)
(-0.0379875 0.000501313 0)
(-0.0388469 0.000511926 0)
(-0.0397251 0.000522746 0)
(-0.0406224 0.000533778 0)
(-0.0415393 0.000545025 0)
(-0.0424761 0.00055649 0)
(-0.0434333 0.000568178 0)
(-0.0444112 0.000580091 0)
(-0.0454103 0.000592234 0)
(-0.046431 0.000604608 0)
(-0.0474737 0.000617219 0)
(-0.0485389 0.000630069 0)
(-0.0496269 0.000643161 0)
(-0.0507383 0.000656501 0)
(-0.0518736 0.000670091 0)
(-0.053033 0.000683935 0)
(-0.0542173 0.000698037 0)
(-0.0554267 0.0007124 0)
(-0.0566618 0.000727027 0)
(-0.0579231 0.000741922 0)
(-0.0592112 0.000757089 0)
(-0.0605264 0.00077253 0)
(-0.0618693 0.000788251 0)
(-0.0632404 0.000804253 0)
(-0.0646403 0.000820542 0)
(-0.0660695 0.000837119 0)
(-0.0675285 0.000853989 0)
(-0.0690178 0.000871154 0)
(-0.0705382 0.000888618 0)
(-0.0720899 0.000906384 0)
(-0.0736738 0.000924456 0)
(-0.0752903 0.000942836 0)
(-0.0769399 0.000961527 0)
(-0.0786234 0.000980531 0)
(-0.0803413 0.000999852 0)
(-0.0820941 0.00101949 0)
(-0.0838826 0.00103945 0)
(-0.0857072 0.00105974 0)
(-0.0875686 0.00108035 0)
(-0.0894675 0.00110129 0)
(-0.0914044 0.00112256 0)
(-0.09338 0.00114417 0)
(-0.0953949 0.0011661 0)
(-0.0974497 0.00118837 0)
(-0.0995451 0.00121098 0)
(-0.101682 0.00123393 0)
(-0.10386 0.00125721 0)
(-0.106081 0.00128084 0)
(-0.108345 0.0013048 0)
(-0.110653 0.0013291 0)
(-0.113006 0.00135374 0)
(-0.115403 0.00137872 0)
(-0.117847 0.00140403 0)
(-0.120337 0.00142967 0)
(-0.122874 0.00145565 0)
(-0.125458 0.00148195 0)
(-0.128091 0.00150859 0)
(-0.130773 0.00153554 0)
(-0.133505 0.00156282 0)
(-0.136286 0.00159041 0)
(-0.139119 0.00161832 0)
(-0.142003 0.00164653 0)
(-0.14494 0.00167503 0)
(-0.147928 0.00170383 0)
(-0.150971 0.00173292 0)
(-0.154066 0.00176228 0)
(-0.157217 0.00179191 0)
(-0.160422 0.0018218 0)
(-0.163683 0.00185194 0)
(-0.166999 0.00188233 0)
(-0.170372 0.00191294 0)
(-0.173802 0.00194376 0)
(-0.177289 0.00197479 0)
(-0.180834 0.002006 0)
(-0.184437 0.00203738 0)
(-0.188099 0.00206891 0)
(-0.19182 0.00210057 0)
(-0.1956 0.00213233 0)
(-0.199439 0.00216418 0)
(-0.203337 0.00219608 0)
(-0.207296 0.00222802 0)
(-0.211314 0.00225996 0)
(-0.215393 0.00229188 0)
(-0.219531 0.00232375 0)
(-0.223729 0.00235555 0)
(-0.227987 0.00238724 0)
(-0.232305 0.00241879 0)
(-0.236682 0.00245016 0)
(-0.241118 0.00248131 0)
(-0.245613 0.00251218 0)
(-0.250167 0.00254274 0)
(-0.254778 0.00257292 0)
(-0.259447 0.00260266 0)
(-0.264172 0.00263192 0)
(-0.268953 0.00266062 0)
(-0.273788 0.0026887 0)
(-0.278677 0.00271611 0)
(-0.283619 0.00274277 0)
(-0.288611 0.00276863 0)
(-0.293653 0.00279362 0)
(-0.298743 0.00281766 0)
(-0.303879 0.00284069 0)
(-0.30906 0.00286262 0)
(-0.314283 0.00288336 0)
(-0.319546 0.00290282 0)
(-0.324847 0.0029209 0)
(-0.330183 0.0029375 0)
(-0.335552 0.00295251 0)
(-0.340951 0.00296582 0)
(-0.346377 0.00297731 0)
(-0.351825 0.00298687 0)
(-0.357294 0.00299438 0)
(-0.362778 0.00299972 0)
(-0.368275 0.00300278 0)
(-0.373778 0.00300344 0)
(-0.379285 0.00300158 0)
(-0.38479 0.00299708 0)
(-0.390289 0.00298982 0)
(-0.395775 0.00297968 0)
(-0.401245 0.00296653 0)
(-0.406692 0.00295025 0)
(-0.41211 0.00293074 0)
(-0.417493 0.00290786 0)
(-0.422836 0.0028815 0)
(-0.428132 0.00285156 0)
(-0.433373 0.00281793 0)
(-0.438553 0.0027805 0)
(-0.443665 0.00273918 0)
(-0.448702 0.00269389 0)
(-0.453655 0.00264454 0)
(-0.458517 0.00259106 0)
(-0.463281 0.00253339 0)
(-0.467938 0.00247148 0)
(-0.47248 0.0024053 0)
(-0.4769 0.00233481 0)
(-0.481189 0.00226001 0)
(-0.485338 0.00218087 0)
(-0.489341 0.00209741 0)
(-0.493189 0.00200961 0)
(-0.496872 0.0019175 0)
(-0.500384 0.00182109 0)
(-0.503716 0.0017204 0)
(-0.50686 0.00161547 0)
(-0.509808 0.00150633 0)
(-0.512551 0.00139306 0)
(-0.515081 0.00127572 0)
(-0.517391 0.0011544 0)
(-0.519473 0.00102917 0)
(-0.52132 0.00090015 0)
(-0.522923 0.000767422 0)
(-0.524277 0.000631088 0)
(-0.525373 0.000491253 0)
(-0.526205 0.000348048 0)
(-0.526766 0.000201749 0)
(-0.527049 5.4585e-05 0)
(-0.52705 -9.53429e-05 0)
(-0.52675 -0.00025415 0)
(-0.52616 -0.000414692 0)
(-0.525263 -0.000577921 0)
(-0.524058 -0.000743883 0)
(-0.522535 -0.000913757 0)
(-0.520691 -0.00108567 0)
(-0.518517 -0.00126087 0)
(-0.516009 -0.0014386 0)
(-0.513159 -0.00161934 0)
(-0.509965 -0.00180289 0)
(-0.506417 -0.00198933 0)
(-0.502514 -0.00217856 0)
(-0.498246 -0.00237042 0)
(-0.49361 -0.00256491 0)
(-0.4886 -0.00276178 0)
(-0.483211 -0.00296114 0)
(-0.477436 -0.00316294 0)
(-0.47127 -0.0033673 0)
(-0.464709 -0.00357397 0)
(-0.457747 -0.00378292 0)
(-0.45038 -0.00399363 0)
(-0.442603 -0.00420634 0)
(-0.434411 -0.00442157 0)
(-0.425802 -0.00463869 0)
(-0.416772 -0.00485684 0)
(-0.407315 -0.00507578 0)
(-0.397431 -0.00529546 0)
(-0.387114 -0.005516 0)
(-0.376364 -0.00573743 0)
(-0.365178 -0.00595948 0)
(-0.353557 -0.00618148 0)
(-0.3415 -0.00640271 0)
(-0.329006 -0.00662274 0)
(-0.316078 -0.00684141 0)
(-0.302718 -0.00705848 0)
(-0.288928 -0.00727322 0)
(-0.274713 -0.00748493 0)
(-0.260079 -0.00769316 0)
(-0.245031 -0.0078976 0)
(-0.229578 -0.00809774 0)
(-0.213726 -0.00829285 0)
(-0.197487 -0.00848204 0)
(-0.180871 -0.00866452 0)
(-0.163891 -0.00883981 0)
(-0.146562 -0.00900718 0)
(-0.128899 -0.00916565 0)
(-0.11092 -0.00931414 0)
(-0.0926371 -0.00945057 0)
(-0.0740888 -0.00957648 0)
(-0.0553141 -0.00970162 0)
(-0.0362261 -0.00982051 0)
(-0.0169246 -0.00992011 0)
(0.00257908 -0.00999894 0)
(0.0222586 -0.0100898 0)
(0.0420851 -0.0101488 0)
(0.062024 -0.0102016 0)
(0.0821204 -0.0102379 0)
(0.102264 -0.0102472 0)
(0.122399 -0.0102388 0)
(0.142555 -0.0102172 0)
(0.162661 -0.0101917 0)
(0.182694 -0.0101381 0)
(0.202637 -0.0100678 0)
(0.222452 -0.00998859 0)
(0.242098 -0.0098861 0)
(0.26155 -0.00977176 0)
(0.280766 -0.00963861 0)
(0.299721 -0.00948836 0)
(0.318374 -0.00932138 0)
(0.336694 -0.00913739 0)
(0.354646 -0.00893681 0)
(0.372195 -0.00872093 0)
(0.38931 -0.00849008 0)
(0.40596 -0.00824463 0)
(0.422125 -0.00799202 0)
(0.437771 -0.00771959 0)
(0.452855 -0.00742767 0)
(0.467341 -0.00712017 0)
(0.481201 -0.00679691 0)
(0.494404 -0.00645726 0)
(0.50692 -0.00610399 0)
(0.518718 -0.00573524 0)
(0.529769 -0.0053488 0)
(0.540041 -0.00494753 0)
(0.549508 -0.00453432 0)
(0.558147 -0.00411083 0)
(0.565943 -0.00367886 0)
(0.572882 -0.00324021 0)
(0.578951 -0.0027974 0)
(0.584139 -0.00235057 0)
(0.588437 -0.001902 0)
(0.591839 -0.00145175 0)
(0.594343 -0.000998697 0)
(0.595935 -0.00054138 0)
(0.596619 -0.000106503 0)
(0.596397 0.000341889 0)
(0.595274 0.000783711 0)
(0.593278 0.00121905 0)
(0.590405 0.00166488 0)
(0.586656 0.00210443 0)
(0.582048 0.0025273 0)
(0.576609 0.00293661 0)
(0.570363 0.00333986 0)
(0.563315 0.00373271 0)
(0.555478 0.00410918 0)
(0.546879 0.00447241 0)
(0.537531 0.00482138 0)
(0.527455 0.00516096 0)
(0.516693 0.00548927 0)
(0.505268 0.00581075 0)
(0.493203 0.0061246 0)
(0.480524 0.00642415 0)
(0.467251 0.0067108 0)
(0.453413 0.00698223 0)
(0.439037 0.00723866 0)
(0.424143 0.00748647 0)
(0.408757 0.00772565 0)
(0.39291 0.0079517 0)
(0.376629 0.00816112 0)
(0.359931 0.00835001 0)
(0.342832 0.00852131 0)
(0.325354 0.00868421 0)
(0.307524 0.0088437 0)
(0.289355 0.00899552 0)
(0.270861 0.00914153 0)
(0.252052 0.00928008 0)
(0.232943 0.00941193 0)
(0.21356 0.00954805 0)
(0.193903 0.00970095 0)
(0.173941 0.00987735 0)
(0.153625 0.0100994 0)
(0.13295 0.0104072 0)
(0.111807 0.0105336 0)
(0.0892671 0.0100808 0)
(0.0691115 0.00879524 0)
(0.0520184 0.00757863 0)
(0.034916 0.00927996 0)
(0.0118824 0.0103107 0)
(-0.00875112 0.0103395 0)
(-0.0314854 0.00940532 0)
(-0.0497252 0.00769568 0)
(-0.0665237 0.00868498 0)
(-0.0865191 0.0100021 0)
(-0.109054 0.0104648 0)
(-0.130484 0.0104061 0)
(-0.15137 0.0101149 0)
(-0.171911 0.00988518 0)
(-0.192144 0.00970846 0)
(-0.212108 0.00955957 0)
(-0.231806 0.00942175 0)
(-0.251242 0.00928502 0)
(-0.270403 0.00914641 0)
(-0.289267 0.0090023 0)
(-0.307825 0.00885057 0)
(-0.326062 0.00869254 0)
(-0.343957 0.00853007 0)
(-0.361486 0.00835423 0)
(-0.378621 0.00815934 0)
(-0.39533 0.00794322 0)
(-0.411591 0.00770542 0)
(-0.427387 0.00745197 0)
(-0.442686 0.00719286 0)
(-0.457449 0.00692824 0)
(-0.471642 0.00664505 0)
(-0.485234 0.00633912 0)
(-0.498196 0.00601806 0)
(-0.510499 0.00568564 0)
(-0.52211 0.00534259 0)
(-0.532988 0.00498887 0)
(-0.543104 0.00462522 0)
(-0.552431 0.00425522 0)
(-0.560936 0.00386495 0)
(-0.568592 0.00345493 0)
(-0.575373 0.00302958 0)
(-0.581258 0.00259175 0)
(-0.586222 0.00214208 0)
(-0.590233 0.00168179 0)
(-0.59328 0.00121838 0)
(-0.595348 0.000752683 0)
(-0.596431 0.000265759 0)
(-0.596472 -0.00021181 0)
(-0.595489 -0.000684564 0)
(-0.59347 -0.00116874 0)
(-0.590415 -0.00165144 0)
(-0.58633 -0.00213374 0)
(-0.581215 -0.00261659 0)
(-0.575073 -0.0030959 0)
(-0.567911 -0.00357125 0)
(-0.55974 -0.00404058 0)
(-0.550571 -0.0045023 0)
(-0.540422 -0.00495286 0)
(-0.529314 -0.00538849 0)
(-0.517273 -0.0058076 0)
(-0.504335 -0.00620891 0)
(-0.490537 -0.00659255 0)
(-0.475914 -0.0069584 0)
(-0.4605 -0.00730527 0)
(-0.444333 -0.00763183 0)
(-0.427458 -0.00793789 0)
(-0.409919 -0.00822336 0)
(-0.391755 -0.00849208 0)
(-0.373005 -0.00874493 0)
(-0.353701 -0.00898536 0)
(-0.333875 -0.00920584 0)
(-0.313576 -0.0094061 0)
(-0.292842 -0.00958967 0)
(-0.271721 -0.0097525 0)
(-0.250257 -0.00989271 0)
(-0.228491 -0.0100118 0)
(-0.206472 -0.0101121 0)
(-0.184246 -0.0101943 0)
(-0.161846 -0.0102585 0)
(-0.139338 -0.0102844 0)
(-0.116766 -0.010314 0)
(-0.0941426 -0.0103211 0)
(-0.0714941 -0.0102791 0)
(-0.0489959 -0.0102357 0)
(-0.0266054 -0.010147 0)
(-0.00437301 -0.0100726 0)
(0.0176774 -0.00997479 0)
(0.0394899 -0.00985502 0)
(0.0610484 -0.00971034 0)
(0.0822155 -0.00955688 0)
(0.103091 -0.0094044 0)
(0.123642 -0.00923803 0)
(0.143801 -0.00905431 0)
(0.163544 -0.00885687 0)
(0.182846 -0.00864764 0)
(0.201681 -0.00842809 0)
(0.220029 -0.00819984 0)
(0.237871 -0.00796392 0)
(0.255189 -0.00772152 0)
(0.271968 -0.00747314 0)
(0.288197 -0.00721906 0)
(0.303864 -0.00696053 0)
(0.318961 -0.00669916 0)
(0.333483 -0.00643618 0)
(0.347425 -0.00617157 0)
(0.360784 -0.00590571 0)
(0.373558 -0.00563965 0)
(0.385747 -0.00537365 0)
(0.39735 -0.00510889 0)
(0.408371 -0.0048462 0)
(0.418816 -0.00458618 0)
(0.428691 -0.00432883 0)
(0.438002 -0.00407417 0)
(0.446754 -0.00382309 0)
(0.454955 -0.00357527 0)
(0.46261 -0.0033308 0)
(0.469727 -0.00309058 0)
(0.476319 -0.00285522 0)
(0.482394 -0.00262449 0)
(0.487964 -0.0023982 0)
(0.493037 -0.00217577 0)
(0.49762 -0.00195741 0)
(0.501723 -0.00174364 0)
(0.505356 -0.00153457 0)
(0.508528 -0.00133111 0)
(0.511252 -0.00113306 0)
(0.513537 -0.000939123 0)
(0.51539 -0.00074873 0)
(0.51682 -0.000563212 0)
(0.517839 -0.000382399 0)
(0.518455 -0.000206583 0)
(0.518685 -3.11734e-05 0)
(0.518525 0.000130144 0)
(0.517998 0.000292185 0)
(0.517106 0.000450725 0)
(0.515859 0.000604742 0)
(0.514269 0.000754162 0)
(0.512346 0.000898843 0)
(0.510099 0.00103879 0)
(0.50754 0.00117391 0)
(0.504677 0.00130406 0)
(0.501523 0.00142934 0)
(0.498089 0.00154953 0)
(0.494385 0.00166465 0)
(0.490424 0.00177467 0)
(0.486217 0.0018797 0)
(0.481773 0.00197941 0)
(0.477106 0.0020738 0)
(0.472226 0.00216308 0)
(0.467146 0.00224675 0)
(0.461878 0.00232528 0)
(0.456433 0.00239832 0)
(0.450823 0.00246636 0)
(0.445061 0.00252916 0)
(0.439157 0.00258681 0)
(0.433123 0.00263945 0)
(0.42697 0.00268691 0)
(0.420711 0.00272932 0)
(0.414357 0.00276693 0)
(0.407917 0.0028001 0)
(0.401403 0.0028286 0)
(0.394825 0.0028525 0)
(0.388193 0.00287197 0)
(0.381517 0.00288709 0)
(0.374807 0.00289812 0)
(0.368073 0.00290504 0)
(0.361322 0.00290811 0)
(0.354564 0.00290762 0)
(0.347807 0.00290378 0)
(0.341058 0.00289656 0)
(0.334326 0.00288594 0)
(0.327619 0.00287203 0)
(0.320942 0.00285529 0)
(0.314302 0.00283617 0)
(0.307706 0.00281482 0)
(0.301159 0.00279118 0)
(0.294665 0.00276529 0)
(0.288229 0.00273732 0)
(0.281856 0.00270746 0)
(0.275551 0.00267588 0)
(0.269317 0.00264274 0)
(0.263159 0.00260823 0)
(0.257078 0.00257257 0)
(0.251078 0.0025359 0)
(0.245161 0.00249837 0)
(0.239329 0.00246008 0)
(0.233584 0.00242106 0)
(0.227929 0.00238128 0)
(0.222363 0.00234082 0)
(0.21689 0.00229993 0)
(0.211508 0.00225888 0)
(0.20622 0.00221778 0)
(0.201026 0.00217655 0)
(0.195926 0.00213506 0)
(0.190922 0.00209336 0)
(0.186012 0.00205168 0)
(0.181196 0.00201022 0)
(0.176475 0.00196905 0)
(0.171849 0.00192813 0)
(0.167317 0.0018874 0)
(0.162878 0.00184684 0)
(0.158531 0.00180654 0)
(0.154277 0.00176665 0)
(0.150114 0.00172724 0)
(0.146041 0.00168831 0)
(0.142059 0.00164979 0)
(0.138166 0.00161166 0)
(0.134359 0.00157394 0)
(0.13064 0.00153674 0)
(0.127006 0.00150012 0)
(0.123456 0.0014641 0)
(0.11999 0.00142863 0)
(0.116605 0.00139369 0)
(0.113302 0.00135929 0)
(0.110078 0.00132546 0)
(0.106932 0.00129221 0)
(0.103863 0.00125956 0)
(0.10087 0.00122749 0)
(0.0979517 0.001196 0)
(0.0951061 0.00116509 0)
(0.0923323 0.00113476 0)
(0.089629 0.00110502 0)
(0.0869948 0.00107589 0)
(0.0844286 0.00104736 0)
(0.0819289 0.00101942 0)
(0.0794944 0.000992052 0)
(0.0771237 0.00096525 0)
(0.0748155 0.000939019 0)
(0.0725685 0.000913365 0)
(0.0703816 0.000888285 0)
(0.0682533 0.00086377 0)
(0.0661826 0.000839804 0)
(0.064168 0.000816377 0)
(0.0622084 0.000793483 0)
(0.0603025 0.000771117 0)
(0.0584491 0.000749276 0)
(0.056647 0.000727956 0)
(0.0548952 0.000707153 0)
(0.0531923 0.000686856 0)
(0.0515372 0.000667057 0)
(0.0499288 0.000647742 0)
(0.048366 0.000628902 0)
(0.0468476 0.000610529 0)
(0.0453726 0.000592618 0)
(0.04394 0.00057516 0)
(0.0425486 0.00055815 0)
(0.0411976 0.00054158 0)
(0.0398858 0.00052544 0)
(0.0386123 0.000509722 0)
(0.0373762 0.000494414 0)
(0.0361763 0.000479508 0)
(0.0350119 0.000464995 0)
(0.0338819 0.00045087 0)
(0.0327856 0.000437124 0)
(0.031722 0.000423751 0)
(0.0306903 0.000410743 0)
(0.0296896 0.000398092 0)
(0.0287191 0.000385791 0)
(0.027778 0.000373831 0)
(0.0268655 0.000362203 0)
(0.0259808 0.0003509 0)
(0.0251232 0.000339913 0)
(0.0242918 0.000329235 0)
(0.023486 0.00031886 0)
(0.0227052 0.000308781 0)
(0.0219484 0.00029899 0)
(0.0212152 0.00028948 0)
(0.0205049 0.000280243 0)
(0.0198168 0.000271275 0)
(0.0191503 0.000262569 0)
(0.0185047 0.000254118 0)
(0.0178795 0.000245915 0)
(0.0172741 0.000237955 0)
(0.016688 0.00023023 0)
(0.0161204 0.000222737 0)
(0.015571 0.000215467 0)
(0.0150392 0.000208415 0)
(0.0145245 0.000201575 0)
(0.0140263 0.000194942 0)
(0.0135442 0.00018851 0)
(0.0130777 0.000182275 0)
(0.0126263 0.00017623 0)
(0.0121896 0.00017037 0)
(0.0117672 0.000164691 0)
(0.0113586 0.000159187 0)
(0.0109633 0.000153854 0)
(0.0105811 0.000148686 0)
(0.0102114 0.00014368 0)
(0.009854 0.000138831 0)
(0.0095084 0.000134134 0)
(0.00917427 0.000129586 0)
(0.00885126 0.000125181 0)
(0.00853903 0.000120916 0)
(0.00823724 0.000116787 0)
(0.00794556 0.000112789 0)
(0.00766368 0.00010892 0)
(0.00739129 0.000105175 0)
(0.00712809 0.000101551 0)
(0.00687379 9.80437e-05 0)
(0.00662812 9.46499e-05 0)
(0.00639079 9.13667e-05 0)
(0.00616154 8.81908e-05 0)
(0.00594012 8.51188e-05 0)
(0.00572627 8.21472e-05 0)
(0.00551975 7.9273e-05 0)
(0.00532032 7.64934e-05 0)
(0.00512776 7.38061e-05 0)
(0.00494184 7.12082e-05 0)
(0.00476235 6.86966e-05 0)
(0.00458907 6.62684e-05 0)
(0.00442181 6.39208e-05 0)
(0.00426037 6.16519e-05 0)
(0.00410456 5.94596e-05 0)
(0.00395418 5.73418e-05 0)
(0.00380907 5.52955e-05 0)
(0.00366904 5.33181e-05 0)
(0.00353393 5.14073e-05 0)
(0.00340358 4.95612e-05 0)
(0.00327782 4.77783e-05 0)
(0.00315651 4.60567e-05 0)
(0.00303949 4.43941e-05 0)
(0.00292663 4.27884e-05 0)
(0.00281777 4.12377e-05 0)
(0.00271279 3.97404e-05 0)
(0.00261155 3.82952e-05 0)
(0.00251393 3.69004e-05 0)
(0.0024198 3.55542e-05 0)
(0.00232905 3.42544e-05 0)
(0.00224155 3.29998e-05 0)
(0.00215721 3.17889e-05 0)
(0.0020759 3.06209e-05 0)
(0.00199754 2.94942e-05 0)
(0.001922 2.84072e-05 0)
(0.0018492 2.73584e-05 0)
(0.00177904 2.63462e-05 0)
(0.00171144 2.53697e-05 0)
(0.00164629 2.44281e-05 0)
(0.00158352 2.35203e-05 0)
(0.00152304 2.26452e-05 0)
(0.00146478 2.18013e-05 0)
(0.00140865 2.09875e-05 0)
(0.00135457 2.02028e-05 0)
(0.00130249 1.94464e-05 0)
(0.00125232 1.87176e-05 0)
(0.001204 1.8015e-05 0)
(0.00115746 1.73378e-05 0)
(0.00111264 1.6685e-05 0)
(0.00106948 1.60559e-05 0)
(0.00102792 1.545e-05 0)
(0.000987903 1.48665e-05 0)
(0.000949368 1.43045e-05 0)
(0.000912266 1.3763e-05 0)
(0.000876545 1.32411e-05 0)
(0.000842156 1.27381e-05 0)
(0.00080905 1.22539e-05 0)
(0.000777181 1.17881e-05 0)
(0.000746502 1.134e-05 0)
(0.000716969 1.09087e-05 0)
(0.00068854 1.04934e-05 0)
(0.000661175 1.00933e-05 0)
(0.000634835 9.70825e-06 0)
(0.000609483 9.3378e-06 0)
(0.000585081 8.98156e-06 0)
(0.000561594 8.63891e-06 0)
(0.000538987 8.30916e-06 0)
(0.000517229 7.99176e-06 0)
(0.000496287 7.68638e-06 0)
(0.000476131 7.39282e-06 0)
(0.000456732 7.11083e-06 0)
(0.000438058 6.83997e-06 0)
(0.000420083 6.57971e-06 0)
(0.00040278 6.32948e-06 0)
(0.000386123 6.08887e-06 0)
(0.000370088 5.85767e-06 0)
(0.000354651 5.6358e-06 0)
(0.000339786 5.42312e-06 0)
(0.000325472 5.21927e-06 0)
(0.000311685 5.02366e-06 0)
(0.000298405 4.8357e-06 0)
(0.000285613 4.65502e-06 0)
(0.00027329 4.48156e-06 0)
(0.000261417 4.31536e-06 0)
(0.000249974 4.15634e-06 0)
(0.000238944 4.00419e-06 0)
(0.00022831 3.85852e-06 0)
(0.000218053 3.71901e-06 0)
(0.00020816 3.58551e-06 0)
(0.000198614 3.45791e-06 0)
(0.000189399 3.33622e-06 0)
(0.0001805 3.22026e-06 0)
(0.000171903 3.10962e-06 0)
(0.000163594 3.00389e-06 0)
(0.00015556 2.90273e-06 0)
(0.00014779 2.80638e-06 0)
(0.000140271 2.71461e-06 0)
(0.000132989 2.62763e-06 0)
(0.000125935 2.54493e-06 0)
(0.000119094 2.46707e-06 0)
(0.000112456 2.39344e-06 0)
(0.000106008 2.32398e-06 0)
(9.97417e-05 2.25787e-06 0)
(9.36464e-05 2.19561e-06 0)
(8.77121e-05 2.13734e-06 0)
(8.1928e-05 2.08296e-06 0)
(7.62842e-05 2.03214e-06 0)
(7.07711e-05 1.98491e-06 0)
(6.53789e-05 1.94125e-06 0)
(6.00984e-05 1.9009e-06 0)
(5.49211e-05 1.86363e-06 0)
(4.98383e-05 1.82956e-06 0)
(4.48413e-05 1.79871e-06 0)
(3.99217e-05 1.771e-06 0)
(3.50705e-05 1.74657e-06 0)
(3.02789e-05 1.72534e-06 0)
(2.55384e-05 1.70723e-06 0)
(2.08404e-05 1.69215e-06 0)
(1.61766e-05 1.68023e-06 0)
(1.15384e-05 1.6713e-06 0)
(6.91713e-06 1.6654e-06 0)
(2.30479e-06 1.66258e-06 0)
(1.33002e-05 9.76502e-06 0)
(1.34868e-05 1.74881e-05 0)
(3.20251e-07 1.09569e-05 0)
(-5.81007e-06 7.25744e-06 0)
(-1.26611e-05 5.63171e-06 0)
(-1.58622e-05 3.44261e-06 0)
(-1.92917e-05 2.18964e-06 0)
(-2.14988e-05 1.42793e-06 0)
(-2.36659e-05 1.14582e-06 0)
(-2.55566e-05 1.19303e-06 0)
(-2.73958e-05 1.48974e-06 0)
(-2.91994e-05 1.95314e-06 0)
(-3.10186e-05 2.51785e-06 0)
(-3.28727e-05 3.13247e-06 0)
(-3.47865e-05 3.76346e-06 0)
(-3.67857e-05 4.37512e-06 0)
(-3.88758e-05 4.94217e-06 0)
(-4.10586e-05 5.44052e-06 0)
(-4.33385e-05 5.85868e-06 0)
(-4.57196e-05 6.18995e-06 0)
(-4.81928e-05 6.43836e-06 0)
(-5.07618e-05 6.60581e-06 0)
(-5.33703e-05 6.70415e-06 0)
(-5.6043e-05 6.75208e-06 0)
(-5.88133e-05 6.75388e-06 0)
(-6.16183e-05 6.72674e-06 0)
(-6.44595e-05 6.67989e-06 0)
(-6.73291e-05 6.6231e-06 0)
(-7.02277e-05 6.56056e-06 0)
(-7.31499e-05 6.50378e-06 0)
(-7.60943e-05 6.45011e-06 0)
(-7.90635e-05 6.40962e-06 0)
(-8.20544e-05 6.38096e-06 0)
(-8.50699e-05 6.36769e-06 0)
(-8.81111e-05 6.37053e-06 0)
(-9.11803e-05 6.39088e-06 0)
(-9.42806e-05 6.42859e-06 0)
(-9.74146e-05 6.48335e-06 0)
(-0.000100585 6.55458e-06 0)
(-0.000103795 6.64104e-06 0)
(-0.00010705 6.74073e-06 0)
(-0.000110353 6.85231e-06 0)
(-0.000113707 6.97411e-06 0)
(-0.000117116 7.10423e-06 0)
(-0.000120583 7.24117e-06 0)
(-0.000124111 7.3833e-06 0)
(-0.000127703 7.52989e-06 0)
(-0.00013136 7.67962e-06 0)
(-0.000135086 7.83236e-06 0)
(-0.000138883 7.98706e-06 0)
(-0.000142752 8.14378e-06 0)
(-0.000146696 8.30207e-06 0)
(-0.000150717 8.46218e-06 0)
(-0.000154815 8.62428e-06 0)
(-0.000158993 8.78904e-06 0)
(-0.000163253 8.95652e-06 0)
(-0.000167596 9.12716e-06 0)
(-0.000172024 9.3013e-06 0)
(-0.00017654 9.4793e-06 0)
(-0.000181145 9.66151e-06 0)
(-0.000185842 9.84818e-06 0)
(-0.000190633 1.00395e-05 0)
(-0.000195521 1.02355e-05 0)
(-0.000200507 1.04364e-05 0)
(-0.000205595 1.06422e-05 0)
(-0.000210787 1.0853e-05 0)
(-0.000216085 1.10686e-05 0)
(-0.000221492 1.12894e-05 0)
(-0.000227012 1.15153e-05 0)
(-0.000232645 1.17465e-05 0)
(-0.000238397 1.19832e-05 0)
(-0.000244268 1.22256e-05 0)
(-0.000250262 1.24737e-05 0)
(-0.000256383 1.27279e-05 0)
(-0.000262633 1.29883e-05 0)
(-0.000269016 1.3255e-05 0)
(-0.000275536 1.35285e-05 0)
(-0.000282194 1.3809e-05 0)
(-0.000288996 1.40967e-05 0)
(-0.000295945 1.43917e-05 0)
(-0.000303044 1.4694e-05 0)
(-0.000310298 1.50037e-05 0)
(-0.000317709 1.53208e-05 0)
(-0.000325282 1.56453e-05 0)
(-0.000333021 1.59772e-05 0)
(-0.00034093 1.63166e-05 0)
(-0.000349013 1.66639e-05 0)
(-0.000357273 1.70193e-05 0)
(-0.000365716 1.73831e-05 0)
(-0.000374346 1.77556e-05 0)
(-0.000383166 1.81369e-05 0)
(-0.000392183 1.85274e-05 0)
(-0.000401401 1.89271e-05 0)
(-0.000410823 1.93362e-05 0)
(-0.000420457 1.97548e-05 0)
(-0.000430306 2.01831e-05 0)
(-0.000440375 2.06212e-05 0)
(-0.00045067 2.10694e-05 0)
(-0.000461197 2.15279e-05 0)
(-0.000471961 2.19971e-05 0)
(-0.000482966 2.24771e-05 0)