/*--------------------------------*- C++ -*----------------------------------*\
| =========                 |                                                 |
| \\      /  F ield         | OpenFOAM: The Open Source CFD Toolbox           |
|  \\    /   O peration     | Version:  2412                                  |
|   \\  /    A nd           | Website:  www.openfoam.com                      |
|    \\/     M anipulation  |                                                 |
\*---------------------------------------------------------------------------*/
FoamFile
{
    version     2.0;
    format      ascii;
    arch        "LSB;label=32;scalar=64";
    class       volVectorField;
    location    "4.55";
    object      U;
}
// * * * * * * * * * * * * * * * * * * * * * * * * * * * * * * * * * * * * * //

dimensions      [0 1 -1 0 0 0 0];

internalField   nonuniform List<vector> 
6400
(
(-5.70795e-06 5.68745e-06 0)
(-4.35217e-05 1.35954e-05 0)
(-0.000100419 1.66812e-05 0)
(-0.000161521 1.61931e-05 0)
(-0.000215065 1.41505e-05 0)
(-0.00025643 1.16372e-05 0)
(-0.000284967 9.19928e-06 0)
(-0.000302072 7.12052e-06 0)
(-0.000310041 5.48915e-06 0)
(-0.000311288 4.29579e-06 0)
(-0.000308035 3.45323e-06 0)
(-0.000302116 2.84557e-06 0)
(-0.000294854 2.38792e-06 0)
(-0.000287112 2.0188e-06 0)
(-0.000279389 1.6719e-06 0)
(-0.000271903 1.29524e-06 0)
(-0.000264653 8.70837e-07 0)
(-0.000257527 4.04185e-07 0)
(-0.000250382 -1.01612e-07 0)
(-0.000243084 -6.43216e-07 0)
(-0.000235519 -1.20881e-06 0)
(-0.000227591 -1.77894e-06 0)
(-0.000219247 -2.3363e-06 0)
(-0.000210481 -2.87251e-06 0)
(-0.000201329 -3.38632e-06 0)
(-0.000191843 -3.87911e-06 0)
(-0.00018207 -4.35307e-06 0)
(-0.000172024 -4.8121e-06 0)
(-0.000161686 -5.25874e-06 0)
(-0.000151001 -5.69624e-06 0)
(-0.000139885 -6.1261e-06 0)
(-0.000128252 -6.54274e-06 0)
(-0.000116009 -6.95153e-06 0)
(-0.000103063 -7.34604e-06 0)
(-8.93435e-05 -7.71934e-06 0)
(-7.48313e-05 -8.05208e-06 0)
(-5.95545e-05 -8.34076e-06 0)
(-4.35785e-05 -8.57693e-06 0)
(-2.70212e-05 -8.74948e-06 0)
(-1.00525e-05 -8.84502e-06 0)
(7.12441e-06 -8.86315e-06 0)
(2.42991e-05 -8.80618e-06 0)
(4.12596e-05 -8.66715e-06 0)
(5.78136e-05 -8.46163e-06 0)
(7.38018e-05 -8.19284e-06 0)
(8.90866e-05 -7.85836e-06 0)
(0.000103569 -7.47775e-06 0)
(0.000117209 -7.06211e-06 0)
(0.00013002 -6.62536e-06 0)
(0.00014206 -6.17721e-06 0)
(0.000153405 -5.71194e-06 0)
(0.000164129 -5.23434e-06 0)
(0.000174308 -4.74935e-06 0)
(0.000184001 -4.24988e-06 0)
(0.000193239 -3.73464e-06 0)
(0.000202034 -3.20672e-06 0)
(0.000210385 -2.66357e-06 0)
(0.000218279 -2.10747e-06 0)
(0.000225716 -1.54338e-06 0)
(0.00023272 -9.83705e-07 0)
(0.000239355 -4.39379e-07 0)
(0.000245726 7.9349e-08 0)
(0.000251977 5.58661e-07 0)
(0.00025828 9.89799e-07 0)
(0.000264801 1.36934e-06 0)
(0.000271652 1.70737e-06 0)
(0.000278823 2.03023e-06 0)
(0.000286101 2.37228e-06 0)
(0.000292992 2.79241e-06 0)
(0.000298628 3.36768e-06 0)
(0.000301701 4.18582e-06 0)
(0.000300423 5.33911e-06 0)
(0.00029262 6.91846e-06 0)
(0.000275915 8.9298e-06 0)
(0.000248124 1.12864e-05 0)
(0.000207946 1.37151e-05 0)
(0.000156019 1.56572e-05 0)
(9.68572e-05 1.60941e-05 0)
(4.18801e-05 1.30494e-05 0)
(5.44383e-06 5.41769e-06 0)
(-1.36803e-05 4.35442e-05 0)
(-9.689e-05 9.631e-05 0)
(-0.000208774 0.000114495 0)
(-0.000322382 0.000107923 0)
(-0.0004163 8.81936e-05 0)
(-0.000481784 6.39162e-05 0)
(-0.0005177 4.03404e-05 0)
(-0.000527231 2.02959e-05 0)
(-0.00051566 4.84771e-06 0)
(-0.000488838 -5.9966e-06 0)
(-0.00045228 -1.28251e-05 0)
(-0.000410609 -1.65617e-05 0)
(-0.000367348 -1.81037e-05 0)
(-0.000324963 -1.82187e-05 0)
(-0.000285001 -1.758e-05 0)
(-0.000248268 -1.67244e-05 0)
(-0.000215019 -1.59747e-05 0)
(-0.000185172 -1.54542e-05 0)
(-0.000158497 -1.5191e-05 0)
(-0.000134721 -1.51647e-05 0)
(-0.000113593 -1.53268e-05 0)
(-9.4909e-05 -1.56003e-05 0)
(-7.85278e-05 -1.59077e-05 0)
(-6.43736e-05 -1.61929e-05 0)
(-5.24176e-05 -1.6429e-05 0)
(-4.26438e-05 -1.66191e-05 0)
(-3.5007e-05 -1.67949e-05 0)
(-2.93977e-05 -1.70139e-05 0)
(-2.56173e-05 -1.73369e-05 0)
(-2.33722e-05 -1.78197e-05 0)
(-2.22788e-05 -1.85031e-05 0)
(-2.19293e-05 -1.94264e-05 0)
(-2.1898e-05 -2.0564e-05 0)
(-2.17511e-05 -2.18762e-05 0)
(-2.11128e-05 -2.33037e-05 0)
(-1.97216e-05 -2.4771e-05 0)
(-1.74232e-05 -2.61677e-05 0)
(-1.41561e-05 -2.74017e-05 0)
(-9.98829e-06 -2.83796e-05 0)
(-5.09709e-06 -2.90118e-05 0)
(2.58224e-07 -2.92594e-05 0)
(5.78339e-06 -2.91203e-05 0)
(1.11888e-05 -2.85927e-05 0)
(1.62277e-05 -2.77474e-05 0)
(2.07217e-05 -2.66351e-05 0)
(2.45644e-05 -2.53003e-05 0)
(2.77394e-05 -2.38511e-05 0)
(3.0342e-05 -2.23881e-05 0)
(3.2587e-05 -2.10141e-05 0)
(3.47882e-05 -1.9797e-05 0)
(3.73115e-05 -1.87421e-05 0)
(4.05264e-05 -1.78519e-05 0)
(4.47749e-05 -1.71166e-05 0)
(5.03526e-05 -1.64906e-05 0)
(5.74869e-05 -1.59252e-05 0)
(6.63329e-05 -1.53926e-05 0)
(7.69991e-05 -1.487e-05 0)
(8.95708e-05 -1.43578e-05 0)
(0.000104137 -1.38839e-05 0)
(0.000120829 -1.3517e-05 0)
(0.000139843 -1.33276e-05 0)
(0.000161439 -1.33886e-05 0)
(0.000185935 -1.37546e-05 0)
(0.000213668 -1.44425e-05 0)
(0.000244904 -1.53882e-05 0)
(0.000279724 -1.64076e-05 0)
(0.000317856 -1.71634e-05 0)
(0.000358497 -1.71826e-05 0)
(0.000400118 -1.58125e-05 0)
(0.000440283 -1.22522e-05 0)
(0.000475511 -5.61965e-06 0)
(0.000501278 4.92243e-06 0)
(0.000512198 1.99489e-05 0)
(0.000502563 3.94232e-05 0)
(0.000467295 6.22578e-05 0)
(0.000403393 8.57111e-05 0)
(0.000312029 0.000104638 0)
(0.000201805 0.000110762 0)
(9.35061e-05 9.2874e-05 0)
(1.31507e-05 4.18452e-05 0)
(-1.71191e-05 0.000101288 0)
(-0.000117391 0.000208961 0)
(-0.000243577 0.000239246 0)
(-0.000363779 0.000217662 0)
(-0.000453572 0.000168242 0)
(-0.000503464 0.00010913 0)
(-0.000512953 5.20891e-05 0)
(-0.000486872 3.72463e-06 0)
(-0.000432758 -3.3266e-05 0)
(-0.000358918 -5.87034e-05 0)
(-0.000273257 -7.38662e-05 0)
(-0.000182498 -8.08783e-05 0)
(-9.18653e-05 -8.19165e-05 0)
(-5.11825e-06 -7.89243e-05 0)
(7.52703e-05 -7.35902e-05 0)
(0.00014789 -6.72798e-05 0)
(0.000212143 -6.08921e-05 0)
(0.000267968 -5.48661e-05 0)
(0.000315579 -4.93594e-05 0)
(0.00035529 -4.43759e-05 0)
(0.000387424 -3.98481e-05 0)
(0.000412274 -3.56507e-05 0)
(0.000430078 -3.16476e-05 0)
(0.000441025 -2.77333e-05 0)
(0.000445266 -2.38567e-05 0)
(0.000442956 -2.00366e-05 0)
(0.000434304 -1.6367e-05 0)
(0.000419627 -1.30036e-05 0)
(0.000399387 -1.01273e-05 0)
(0.000374193 -7.90549e-06 0)
(0.000344776 -6.46473e-06 0)
(0.000311984 -5.88846e-06 0)
(0.000276697 -6.14927e-06 0)
(0.000239748 -7.1623e-06 0)
(0.000201894 -8.77852e-06 0)
(0.000163794 -1.08051e-05 0)
(0.000125955 -1.2995e-05 0)
(8.86846e-05 -1.51088e-05 0)
(5.21351e-05 -1.69187e-05 0)
(1.63101e-05 -1.82182e-05 0)
(-1.89008e-05 -1.88944e-05 0)
(-5.36701e-05 -1.89229e-05 0)
(-8.81706e-05 -1.83279e-05 0)
(-0.000122515 -1.7252e-05 0)
(-0.000156723 -1.58287e-05 0)
(-0.000190697 -1.42067e-05 0)
(-0.000224204 -1.26139e-05 0)
(-0.000256863 -1.12851e-05 0)
(-0.000288141 -1.04553e-05 0)
(-0.000317374 -1.02833e-05 0)
(-0.00034382 -1.08122e-05 0)
(-0.000366736 -1.2023e-05 0)
(-0.000385434 -1.38523e-05 0)
(-0.000399316 -1.61864e-05 0)
(-0.000407888 -1.88858e-05 0)
(-0.000410772 -2.18408e-05 0)
(-0.000407685 -2.49815e-05 0)
(-0.000398394 -2.82911e-05 0)
(-0.000382679 -3.1814e-05 0)
(-0.000360288 -3.56723e-05 0)
(-0.000330913 -3.99989e-05 0)
(-0.000294182 -4.49289e-05 0)
(-0.000249678 -5.05357e-05 0)
(-0.000197006 -5.67861e-05 0)
(-0.000135916 -6.34347e-05 0)
(-6.64723e-05 -6.99483e-05 0)
(1.07239e-05 -7.54243e-05 0)
(9.42813e-05 -7.86088e-05 0)
(0.000181763 -7.78492e-05 0)
(0.000269449 -7.11621e-05 0)
(0.000352176 -5.64078e-05 0)
(0.000423356 -3.16295e-05 0)
(0.000475285 4.3901e-06 0)
(0.000499858 5.14196e-05 0)
(0.000489825 0.000106724 0)
(0.000440625 0.000163862 0)
(0.000352859 0.000211357 0)
(0.000235916 0.000231709 0)
(0.000113538 0.000201813 0)
(1.65172e-05 9.75428e-05 0)
(-1.723e-05 0.000164873 0)
(-0.000114496 0.000326192 0)
(-0.000229118 0.000361032 0)
(-0.000327663 0.000314469 0)
(-0.000385992 0.000224877 0)
(-0.000395808 0.000121094 0)
(-0.000358247 2.21995e-05 0)
(-0.000280026 -6.09026e-05 0)
(-0.000170629 -0.000123655 0)
(-4.02652e-05 -0.000165668 0)
(0.000101417 -0.000189135 0)
(0.000246192 -0.000197696 0)
(0.000387627 -0.000195155 0)
(0.000521049 -0.000184964 0)
(0.000643322 -0.000170124 0)
(0.000752562 -0.000153071 0)
(0.000847863 -0.000135486 0)
(0.000929 -0.000118293 0)
(0.000996145 -0.000101893 0)
(0.00104964 -8.63781e-05 0)
(0.00108986 -7.16794e-05 0)
(0.00111717 -5.76263e-05 0)
(0.00113189 -4.4024e-05 0)
(0.0011343 -3.07287e-05 0)
(0.00112466 -1.76879e-05 0)
(0.00110327 -4.97084e-06 0)
(0.00107052 7.22433e-06 0)
(0.00102697 1.85931e-05 0)
(0.000973356 2.87758e-05 0)
(0.000910641 3.74321e-05 0)
(0.000839973 4.4298e-05 0)
(0.000762646 4.92424e-05 0)
(0.000680015 5.22528e-05 0)
(0.000593401 5.34686e-05 0)
(0.000504034 5.3154e-05 0)
(0.000413 5.16845e-05 0)
(0.000321183 4.94701e-05 0)
(0.000229234 4.69466e-05 0)
(0.000137601 4.45213e-05 0)
(4.65528e-05 4.25505e-05 0)
(-4.37829e-05 4.12454e-05 0)
(-0.000133361 4.06742e-05 0)
(-0.00022215 4.07835e-05 0)
(-0.000310057 4.13404e-05 0)
(-0.000396864 4.20922e-05 0)
(-0.000482188 4.27319e-05 0)
(-0.000565462 4.28773e-05 0)
(-0.000645945 4.21292e-05 0)
(-0.00072272 4.00956e-05 0)
(-0.000794722 3.65037e-05 0)
(-0.000860798 3.12618e-05 0)
(-0.000919786 2.44216e-05 0)
(-0.000970607 1.61383e-05 0)
(-0.00101232 6.64785e-06 0)
(-0.00104415 -3.78197e-06 0)
(-0.00106547 -1.49125e-05 0)
(-0.00107582 -2.6579e-05 0)
(-0.00107481 -3.87199e-05 0)
(-0.00106211 -5.13771e-05 0)
(-0.00103738 -6.47054e-05 0)
(-0.00100022 -7.88926e-05 0)
(-0.000950184 -9.4119e-05 0)
(-0.00088681 -0.000110454 0)
(-0.000809681 -0.00012775 0)
(-0.000718589 -0.000145483 0)
(-0.000613737 -0.000162624 0)
(-0.000495997 -0.000177517 0)
(-0.000367207 -0.000187866 0)
(-0.000230481 -0.000190713 0)
(-9.04704e-05 -0.000182551 0)
(4.64522e-05 -0.000159648 0)
(0.000172229 -0.000118643 0)
(0.000277461 -5.74707e-05 0)
(0.000352202 2.34103e-05 0)
(0.000387323 0.00011938 0)
(0.000376483 0.000219769 0)
(0.000318741 0.000305958 0)
(0.000222366 0.000350131 0)
(0.000110875 0.000315466 0)
(1.66247e-05 0.000158965 0)
(-1.59657e-05 0.000223102 0)
(-9.88904e-05 0.00042733 0)
(-0.000186843 0.000455869 0)
(-0.000247351 0.000374297 0)
(-0.000258734 0.000236156 0)
(-0.000215131 8.12959e-05 0)
(-0.000120001 -6.38401e-05 0)
(1.78187e-05 -0.000184123 0)
(0.000187027 -0.000273314 0)
(0.00037593 -0.000331003 0)
(0.000573665 -0.000360521 0)
(0.000771045 -0.00036729 0)
(0.000960911 -0.000357007 0)
(0.00113807 -0.000334837 0)
(0.00129902 -0.000305248 0)
(0.0014416 -0.000271876 0)
(0.00156475 -0.000237312 0)
(0.00166815 -0.000203086 0)
(0.00175193 -0.000169923 0)
(0.00181647 -0.000138041 0)
(0.00186216 -0.000107381 0)
(0.00188941 -7.77376e-05 0)
(0.00189855 -4.88691e-05 0)
(0.00188992 -2.06126e-05 0)
(0.00186384 7.05432e-06 0)
(0.00182071 3.39751e-05 0)
(0.00176107 5.97995e-05 0)
(0.00168568 8.40193e-05 0)
(0.00159554 0.000106043 0)
(0.00149195 0.000125298 0)
(0.00137647 0.00014132 0)
(0.00125086 0.000153853 0)
(0.00111697 0.000162866 0)
(0.000976634 0.000168562 0)
(0.000831571 0.000171338 0)
(0.000683311 0.000171763 0)
(0.000533129 0.000170496 0)
(0.00038203 0.000168205 0)
(0.000230776 0.000165506 0)
(7.99202e-05 0.000162929 0)
(-7.0144e-05 0.000160805 0)
(-0.000219127 0.00015926 0)
(-0.000366764 0.000158223 0)
(-0.000512732 0.000157358 0)
(-0.000656563 0.000156253 0)
(-0.000797576 0.000154394 0)
(-0.000934864 0.000151206 0)
(-0.0010673 0.000146098 0)
(-0.00119355 0.000138503 0)
(-0.00131213 0.000128021 0)
(-0.00142143 0.000114512 0)
(-0.00151986 9.80696e-05 0)
(-0.00160596 7.89774e-05 0)
(-0.00167842 5.76536e-05 0)
(-0.00173619 3.45548e-05 0)
(-0.00177847 1.01029e-05 0)
(-0.00180462 -1.53901e-05 0)
(-0.00181419 -4.1774e-05 0)
(-0.00180678 -6.90619e-05 0)
(-0.00178202 -9.74229e-05 0)
(-0.00173947 -0.000127089 0)
(-0.00167867 -0.000158275 0)
(-0.00159913 -0.000191022 0)
(-0.00150043 -0.000225031 0)
(-0.00138236 -0.000259441 0)
(-0.0012452 -0.000292635 0)
(-0.00108996 -0.000322076 0)
(-0.000918754 -0.000344266 0)
(-0.000735072 -0.000354748 0)
(-0.000544125 -0.000348282 0)
(-0.000353024 -0.000319313 0)
(-0.000170779 -0.000262853 0)
(-7.9687e-06 -0.00017578 0)
(0.000124021 -5.85896e-05 0)
(0.000214343 8.23512e-05 0)
(0.000254669 0.000232215 0)
(0.000241845 0.000365203 0)
(0.000181824 0.000442875 0)
(9.58324e-05 0.000413816 0)
(1.53699e-05 0.000215261 0)
(-1.42628e-05 0.000271361 0)
(-7.79185e-05 0.000502865 0)
(-0.000131805 0.000512449 0)
(-0.000146202 0.000385958 0)
(-0.000103406 0.000192284 0)
(-9.32382e-07 -1.78392e-05 0)
(0.000154919 -0.000210961 0)
(0.000353024 -0.000368194 0)
(0.000580413 -0.000482089 0)
(0.000824277 -0.000552585 0)
(0.00107304 -0.00058445 0)
(0.00131706 -0.000585117 0)
(0.00154893 -0.000562399 0)
(0.00176335 -0.000523324 0)
(0.00195675 -0.000473898 0)
(0.00212697 -0.000418996 0)
(0.00227293 -0.000362151 0)
(0.00239429 -0.000305543 0)
(0.00249122 -0.000250258 0)
(0.00256408 -0.000196663 0)
(0.00261328 -0.000144712 0)
(0.00263919 -9.41577e-05 0)
(0.00264211 -4.47128e-05 0)
(0.00262232 3.7949e-06 0)
(0.00258012 5.13294e-05 0)
(0.00251594 9.76039e-05 0)
(0.00243036 0.000142061 0)
(0.00232428 0.000183926 0)
(0.0021989 0.000222309 0)
(0.00205581 0.000256324 0)
(0.00189695 0.000285228 0)
(0.00172453 0.000308593 0)
(0.00154091 0.00032634 0)
(0.00134844 0.000338743 0)
(0.00114933 0.00034637 0)
(0.000945538 0.000350033 0)
(0.000738736 0.000350679 0)
(0.00053027 0.000349254 0)
(0.000321201 0.000346616 0)
(0.000112355 0.000343491 0)
(-9.56247e-05 0.000340351 0)
(-0.000302209 0.00033739 0)
(-0.000506902 0.000334527 0)
(-0.000709151 0.000331319 0)
(-0.000908249 0.000327161 0)
(-0.00110325 0.000321302 0)
(-0.00129294 0.000312912 0)
(-0.0014758 0.000301178 0)
(-0.0016501 0.000285325 0)
(-0.00181389 0.000264809 0)
(-0.0019651 0.000239443 0)
(-0.00210171 0.000209393 0)
(-0.00222184 0.000175122 0)
(-0.00232391 0.000137299 0)
(-0.00240664 9.6651e-05 0)
(-0.00246909 5.38608e-05 0)
(-0.00251059 9.4468e-06 0)
(-0.00253068 -3.63051e-05 0)
(-0.00252903 -8.33555e-05 0)
(-0.00250529 -0.000131876 0)
(-0.00245911 -0.000182146 0)
(-0.00239006 -0.000234421 0)
(-0.00229764 -0.000288721 0)
(-0.00218142 -0.000344589 0)
(-0.00204118 -0.000400816 0)
(-0.00187718 -0.000455155 0)
(-0.00169042 -0.000504121 0)
(-0.00148305 -0.000542937 0)
(-0.00125865 -0.000565539 0)
(-0.00102261 -0.000564827 0)
(-0.000782312 -0.000533255 0)
(-0.000547211 -0.000463993 0)
(-0.000328583 -0.000352581 0)
(-0.000138884 -0.000199195 0)
(9.47944e-06 -1.15348e-05 0)
(0.000106048 0.000191853 0)
(0.00014497 0.00037837 0)
(0.000129014 0.000499045 0)
(7.56468e-05 0.000487621 0)
(1.36977e-05 0.000262032 0)
(-1.25734e-05 0.000308402 0)
(-5.56833e-05 0.000549412 0)
(-7.29027e-05 0.000526408 0)
(-3.84022e-05 0.000345359 0)
(6.0417e-05 9.04002e-05 0)
(0.000221876 -0.000177317 0)
(0.000436425 -0.000418022 0)
(0.0006906 -0.000609832 0)
(0.000969988 -0.000744816 0)
(0.00126109 -0.000823816 0)
(0.00155214 -0.000853399 0)
(0.00183361 -0.000843209 0)
(0.00209832 -0.000803335 0)
(0.00234126 -0.000742749 0)
(0.00255913 -0.000669013 0)
(0.00274997 -0.000588202 0)
(0.00291282 -0.000504751 0)
(0.00304746 -0.000421451 0)
(0.00315407 -0.000339736 0)
(0.00323301 -0.000260104 0)
(0.00328464 -0.000182499 0)
(0.00330921 -0.000106605 0)
(0.00330691 -3.20738e-05 0)
(0.00327783 4.1277e-05 0)
(0.00322214 0.000113334 0)
(0.00314012 0.000183637 0)
(0.0030323 0.000251358 0)
(0.00289957 0.000315379 0)
(0.00274326 0.000374419 0)
(0.00256516 0.000427182 0)
(0.00236754 0.000472553 0)
(0.00215304 0.000509857 0)
(0.00192454 0.000538934 0)
(0.00168489 0.000560136 0)
(0.00143681 0.000574244 0)
(0.00118268 0.000582367 0)
(0.000924553 0.000585789 0)
(0.000664086 0.00058578 0)
(0.000402617 0.000583479 0)
(0.000141216 0.000579837 0)
(-0.000119246 0.000575475 0)
(-0.000378014 0.000570665 0)
(-0.000634365 0.000565313 0)
(-0.000887522 0.000558872 0)
(-0.00113656 0.000550536 0)
(-0.00138032 0.000539285 0)
(-0.0016173 0.000523975 0)
(-0.00184567 0.000503506 0)
(-0.00206324 0.000476852 0)
(-0.00226761 0.000443299 0)
(-0.00245625 0.000402615 0)
(-0.00262665 0.000355086 0)
(-0.0027766 0.000301439 0)
(-0.00290424 0.000242691 0)
(-0.00300819 0.000179945 0)
(-0.00308748 0.000114233 0)
(-0.00314155 4.63569e-05 0)
(-0.00317009 -2.32137e-05 0)
(-0.00317293 -9.43665e-05 0)
(-0.00314993 -0.000167278 0)
(-0.0031009 -0.000242294 0)
(-0.00302553 -0.00031975 0)
(-0.0029234 -0.000399685 0)
(-0.00279407 -0.000481523 0)
(-0.00263729 -0.000563738 0)
(-0.00245318 -0.000643471 0)
(-0.0022426 -0.000716296 0)
(-0.00200753 -0.000776137 0)
(-0.00175134 -0.000815301 0)
(-0.00147921 -0.000824777 0)
(-0.00119833 -0.000794927 0)
(-0.00091805 -0.000716866 0)
(-0.000649832 -0.00058445 0)
(-0.000406777 -0.000397022 0)
(-0.000202619 -0.000162965 0)
(-4.99926e-05 9.6189e-05 0)
(4.21901e-05 0.00034172 0)
(7.27996e-05 0.000514534 0)
(5.44309e-05 0.000533686 0)
(1.20883e-05 0.000298189 0)
(-1.10656e-05 0.000334443 0)
(-3.38269e-05 0.000566511 0)
(-1.39987e-05 0.000496925 0)
(6.94682e-05 0.000252253 0)
(0.000223068 -6.83238e-05 0)
(0.000440233 -0.000394021 0)
(0.000707865 -0.00067978 0)
(0.00101026 -0.000901825 0)
(0.00133197 -0.00105269 0)
(0.00165937 -0.00113481 0)
(0.00198114 -0.00115698 0)
(0.00228848 -0.00113124 0)
(0.00257497 -0.00106995 0)
(0.00283627 -0.00098403 0)
(0.00306964 -0.000882549 0)
(0.00327352 -0.000772681 0)
(0.0034472 -0.000659656 0)
(0.00359058 -0.00054678 0)
(0.00370391 -0.000435754 0)
(0.0037875 -0.000327136 0)
(0.00384156 -0.000220805 0)
(0.00386615 -0.000116329 0)
(0.00386116 -1.32601e-05 0)
(0.00382639 8.86092e-05 0)
(0.00376167 0.00018908 0)
(0.00366698 0.000287475 0)
(0.00354262 0.00038263 0)
(0.00338931 0.000472983 0)
(0.00320836 0.000556741 0)
(0.00300167 0.000632074 0)
(0.00277177 0.000697374 0)
(0.00252173 0.000751613 0)
(0.00225493 0.0007945 0)
(0.00197478 0.00082647 0)
(0.00168449 0.000848562 0)
(0.00138689 0.00086225 0)
(0.00108437 0.000869219 0)
(0.000778875 0.000871119 0)
(0.000472001 0.000869402 0)
(0.000165039 0.000865266 0)
(-0.000140916 0.000859487 0)
(-0.000444885 0.000852417 0)
(-0.000745916 0.000843942 0)
(-0.00104301 0.000833422 0)
(-0.00133504 0.00081986 0)
(-0.00162065 0.000801934 0)
(-0.00189811 0.000778147 0)
(-0.00216528 0.000747009 0)
(-0.00241958 0.000707177 0)
(-0.0026581 0.000657729 0)
(-0.00287779 0.000598399 0)
(-0.00307569 0.000529659 0)
(-0.00324922 0.000452618 0)
(-0.00339637 0.00036879 0)
(-0.00351575 0.000279789 0)
(-0.00360655 0.000187113 0)
(-0.00366846 9.19359e-05 0)
(-0.00370153 -5.03957e-06 0)
(-0.00370595 -0.000103609 0)
(-0.00368197 -0.000203976 0)
(-0.00362969 -0.000306597 0)
(-0.00354905 -0.000411952 0)
(-0.0034398 -0.000520182 0)
(-0.00330154 -0.000630685 0)
(-0.00313394 -0.000741694 0)
(-0.00293697 -0.000849817 0)
(-0.00271122 -0.000949749 0)
(-0.00245829 -0.00103418 0)
(-0.00218111 -0.00109385 0)
(-0.00188422 -0.00111788 0)
(-0.00157413 -0.00109453 0)
(-0.0012595 -0.00101267 0)
(-0.000951368 -0.000864097 0)
(-0.000662897 -0.000646677 0)
(-0.000408752 -0.000368598 0)
(-0.000203636 -5.33367e-05 0)
(-5.97699e-05 0.000255264 0)
(1.7133e-05 0.000488708 0)
(3.38064e-05 0.000551727 0)
(1.06913e-05 0.000323912 0)
(-9.7154e-06 0.000349993 0)
(-1.21961e-05 0.000554451 0)
(4.49344e-05 0.0004244 0)
(0.000176807 0.000108091 0)
(0.000382581 -0.000280503 0)
(0.000650093 -0.000662165 0)
(0.000962547 -0.000988024 0)
(0.00130234 -0.00123391 0)
(0.00165368 -0.00139394 0)
(0.00200362 -0.001473 0)
(0.00234214 -0.00148253 0)
(0.00266183 -0.00143705 0)
(0.0029576 -0.00135108 0)
(0.00322619 -0.0012373 0)
(0.00346564 -0.00110611 0)
(0.0036749 -0.00096564 0)
(0.0038536 -0.000821748 0)
(0.00400179 -0.000678111 0)
(0.00411971 -0.000536575 0)
(0.00420757 -0.00039764 0)
(0.00426532 -0.000261014 0)
(0.00429266 -0.000126069 0)
(0.00428902 7.79663e-06 0)
(0.00425373 0.000140852 0)
(0.00418605 0.000272813 0)
(0.00408546 0.000402748 0)
(0.00395179 0.000529082 0)
(0.00378541 0.000649685 0)
(0.00358741 0.000762104 0)
(0.00335969 0.000863802 0)
(0.00310498 0.000952506 0)
(0.00282676 0.00102669 0)
(0.00252896 0.00108585 0)
(0.00221559 0.00113051 0)
(0.00189039 0.00116203 0)
(0.00155662 0.00118235 0)
(0.001217 0.00119363 0)
(0.000873739 0.00119794 0)
(0.000528663 0.00119709 0)
(0.000183303 0.00119251 0)
(-0.000161003 0.00118514 0)
(-0.000503025 0.00117541 0)
(-0.000841556 0.00116318 0)
(-0.00117535 0.00114775 0)
(-0.00150309 0.00112793 0)
(-0.0018232 0.0011021 0)
(-0.0021338 0.00106835 0)
(-0.00243247 0.00102472 0)
(-0.00271623 0.000969426 0)
(-0.00298163 0.00090127 0)
(-0.00322504 0.000819972 0)
(-0.00344299 0.000726294 0)
(-0.00363258 0.000621901 0)
(-0.00379172 0.000508998 0)
(-0.00391916 0.000389905 0)
(-0.00401446 0.000266738 0)
(-0.0040778 0.000141141 0)
(-0.00410982 1.41024e-05 0)
(-0.00411132 -0.000114068 0)
(-0.00408312 -0.000243634 0)
(-0.00402585 -0.000375242 0)
(-0.00393986 -0.000509612 0)
(-0.00382517 -0.000647111 0)
(-0.00368153 -0.000787255 0)
(-0.00350854 -0.000928168 0)
(-0.00330598 -0.00106605 0)
(-0.00307411 -0.00119484 0)
(-0.00281404 -0.00130614 0)
(-0.00252798 -0.0013893 0)
(-0.00221952 -0.00143173 0)
(-0.00189394 -0.00141968 0)
(-0.00155855 -0.00133973 0)
(-0.00122314 -0.00118121 0)
(-0.000900141 -0.0009398 0)
(-0.00060449 -0.000622393 0)
(-0.00035258 -0.000253021 0)
(-0.000160056 0.000120782 0)
(-3.79322e-05 0.000422292 0)
(1.35567e-05 0.000542287 0)
(9.42517e-06 0.000339575 0)
(-8.33883e-06 0.000354984 0)
(1.08484e-05 0.000512617 0)
(0.000107108 0.000308605 0)
(0.000287748 -8.55595e-05 0)
(0.000542856 -0.000541693 0)
(0.000853906 -0.000974034 0)
(0.00120055 -0.00133198 0)
(0.00156402 -0.00159295 0)
(0.00192925 -0.00175397 0)
(0.00228516 -0.00182324 0)
(0.00262404 -0.0018152 0)
(0.00294077 -0.00174682 0)
(0.00323214 -0.00163443 0)
(0.0034963 -0.00149208 0)
(0.00373225 -0.00133119 0)
(0.00393952 -0.00116056 0)
(0.00411801 -0.000986483 0)
(0.00426788 -0.000812856 0)
(0.00438931 -0.0006415 0)
(0.00448227 -0.000472698 0)
(0.00454633 -0.00030584 0)
(0.00458059 -0.000139984 0)
(0.00458385 2.57032e-05 0)
(0.00455467 0.000191596 0)
(0.00449156 0.000357339 0)
(0.00439322 0.000521717 0)
(0.00425877 0.00068266 0)
(0.00408797 0.000837337 0)
(0.00388146 0.00098244 0)
(0.00364098 0.00111448 0)
(0.00336939 0.00123027 0)
(0.00307061 0.00132758 0)
(0.00274922 0.00140558 0)
(0.00240992 0.00146491 0)
(0.002057 0.00150737 0)
(0.00169414 0.00153547 0)
(0.00132435 0.0015519 0)
(0.000950101 0.00155924 0)
(0.000573447 0.00155961 0)
(0.000196189 0.0015547 0)
(-0.000180025 0.00154558 0)
(-0.000553639 0.00153275 0)
(-0.00092311 0.00151607 0)
(-0.00128689 0.00149478 0)
(-0.00164342 0.00146756 0)
(-0.00199096 0.00143252 0)
(-0.00232748 0.0013873 0)
(-0.00265035 0.00132934 0)
(-0.0029562 0.00125626 0)
(-0.00324098 0.00116647 0)
(-0.00350037 0.0010597 0)
(-0.00373029 0.000937147 0)
(-0.00392753 0.000801286 0)
(-0.00409002 0.000655296 0)
(-0.00421686 0.000502453 0)
(-0.00430821 0.000345683 0)
(-0.00436505 0.000187224 0)
(-0.00438887 2.8403e-05 0)
(-0.00438137 -0.000130363 0)
(-0.00434422 -0.000289461 0)
(-0.0042788 -0.000449816 0)
(-0.00418608 -0.000612526 0)
(-0.00406656 -0.000778354 0)
(-0.0039202 -0.00094712 0)
(-0.00374665 -0.00111703 0)
(-0.00354549 -0.00128406 0)
(-0.00331661 -0.00144155 0)
(-0.0030606 -0.00158022 0)
(-0.00277885 -0.00168832 0)
(-0.00247367 -0.00175192 0)
(-0.00214857 -0.00175554 0)
(-0.00180874 -0.00168355 0)
(-0.00146168 -0.00152259 0)
(-0.00111797 -0.0012654 0)
(-0.000791714 -0.000916248 0)
(-0.000500238 -0.000497919 0)
(-0.000262473 -5.95734e-05 0)
(-9.54549e-05 0.000315672 0)
(-7.8713e-06 0.00050512 0)
(8.10645e-06 0.000345187 0)
(-6.55457e-06 0.000348101 0)
(3.84229e-05 0.000438117 0)
(0.000178714 0.000147277 0)
(0.000410544 -0.000327986 0)
(0.000712387 -0.000846832 0)
(0.00105862 -0.00131998 0)
(0.001426 -0.00169808 0)
(0.00179598 -0.00196261 0)
(0.00215585 -0.00211504 0)
(0.00249798 -0.00216762 0)
(0.00281832 -0.00213797 0)
(0.00311495 -0.00204515 0)
(0.00338716 -0.00190672 0)
(0.0036348 -0.00173749 0)
(0.00385782 -0.00154933 0)
(0.00405622 -0.00135136 0)
(0.00423005 -0.00115006 0)
(0.00437945 -0.000949398 0)
(0.00450446 -0.000750984 0)
(0.00460468 -0.00055468 0)
(0.00467903 -0.000359359 0)
(0.00472582 -0.000163627 0)
(0.0047429 3.3672e-05 0)
(0.00472786 0.000233071 0)
(0.00467817 0.000434169 0)
(0.00459149 0.00063544 0)
(0.00446593 0.000834239 0)
(0.00430037 0.00102689 0)
(0.00409474 0.00120901 0)
(0.00385034 0.00137581 0)
(0.00357008 0.00152283 0)
(0.00325841 0.00164681 0)
(0.00292071 0.00174647 0)
(0.00256252 0.00182262 0)
(0.00218874 0.00187767 0)
(0.00180342 0.00191485 0)
(0.0014098 0.0019375 0)
(0.00101057 0.00194867 0)
(0.000608048 0.00195084 0)
(0.000204363 0.00194582 0)
(-0.000198406 0.0019348 0)
(-0.000598228 0.00191834 0)
(-0.000993076 0.00189631 0)
(-0.00138097 0.00186795 0)
(-0.00176003 0.00183193 0)
(-0.00212838 0.00178612 0)
(-0.00248391 0.00172774 0)
(-0.00282392 0.00165348 0)
(-0.00314466 0.00156014 0)
(-0.00344139 0.00144554 0)
(-0.00370888 0.00130938 0)
(-0.00394229 0.00115354 0)
(-0.00413805 0.00098168 0)
(-0.00429428 0.000798364 0)
(-0.00441071 0.000608135 0)
(-0.00448841 0.000414958 0)
(-0.00452942 0.000221809 0)
(-0.00453646 3.04202e-05 0)
(-0.00451245 -0.000158718 0)
(-0.00446016 -0.000346198 0)
(-0.00438201 -0.000533338 0)
(-0.00427986 -0.00072177 0)
(-0.00415489 -0.000912861 0)
(-0.00400751 -0.00110699 0)
(-0.00383746 -0.00130272 0)
(-0.00364415 -0.00149596 0)
(-0.00342719 -0.00167965 0)
(-0.00318672 -0.00184389 0)
(-0.00292332 -0.00197625 0)
(-0.00263788 -0.00206202 0)
(-0.00233162 -0.00208462 0)
(-0.00200669 -0.00202661 0)
(-0.00166705 -0.00187192 0)
(-0.00131985 -0.00160969 0)
(-0.000976711 -0.00124008 0)
(-0.000654518 -0.000782334 0)
(-0.000374852 -0.000284287 0)
(-0.000161319 0.000167391 0)
(-3.33279e-05 0.000437845 0)
(6.43923e-06 0.000339851 0)
(-3.69554e-06 0.000325949 0)
(7.5629e-05 0.000324322 0)
(0.000269455 -6.50092e-05 0)
(0.000557591 -0.00061975 0)
(0.000903495 -0.00118999 0)
(0.00127412 -0.00168774 0)
(0.00164484 -0.00206914 0)
(0.00199969 -0.00232267 0)
(0.00233069 -0.00245579 0)
(0.00263571 -0.00248531 0)
(0.00291591 -0.0024317 0)
(0.0031736 -0.00231535 0)
(0.00341107 -0.00215413 0)
(0.00362996 -0.00196267 0)
(0.00383106 -0.00175253 0)
(0.00401448 -0.00153268 0)
(0.00418012 -0.00130961 0)
(0.00432797 -0.00108722 0)
(0.0044578 -0.000866723 0)
(0.00456866 -0.00064729 0)
(0.00465857 -0.000427022 0)
(0.00472472 -0.000203912 0)
(0.00476377 2.35828e-05 0)
(0.00477205 0.000256215 0)
(0.00474575 0.000493576 0)
(0.0046812 0.000733811 0)
(0.00457525 0.000973627 0)
(0.00442556 0.00120837 0)
(0.00423099 0.00143235 0)
(0.00399211 0.00163907 0)
(0.0037117 0.0018222 0)
(0.00339483 0.00197696 0)
(0.00304803 0.00210144 0)
(0.00267787 0.00219679 0)
(0.00228993 0.00226633 0)
(0.00188849 0.00231423 0)
(0.00147693 0.00234455 0)
(0.00105807 0.00236078 0)
(0.000634517 0.00236562 0)
(0.000208858 0.00236095 0)
(-0.00021621 0.00234795 0)
(-0.000637957 0.00232719 0)
(-0.00105363 0.00229857 0)
(-0.00146058 0.0022615 0)
(-0.00185649 0.00221476 0)
(-0.00223937 0.00215622 0)
(-0.0026072 0.00208271 0)
(-0.00295741 0.00199003 0)
(-0.00328599 0.00187374 0)
(-0.00358733 0.00173072 0)
(-0.00385494 0.00156061 0)
(-0.00408295 0.00136628 0)
(-0.00426743 0.00115322 0)
(-0.00440693 0.000927895 0)
(-0.00450217 0.000696525 0)
(-0.00455545 0.000464348 0)
(-0.00457023 0.000235223 0)
(-0.00455076 1.13667e-05 0)
(-0.00450151 -0.000206724 0)
(-0.00442666 -0.000419962 0)
(-0.00432992 -0.000630172 0)
(-0.00421435 -0.000839665 0)
(-0.00408217 -0.00105067 0)
(-0.00393445 -0.00126447 0)
(-0.00377112 -0.00148031 0)
(-0.00359146 -0.00169429 0)
(-0.00339489 -0.00189901 0)
(-0.00318138 -0.00208415 0)
(-0.00295102 -0.0022372 0)
(-0.00270326 -0.00234359 0)
(-0.00243668 -0.00238662 0)
(-0.0021494 -0.00234791 0)
(-0.00184036 -0.00220912 0)
(-0.00151121 -0.00195541 0)
(-0.00116875 -0.00158134 0)
(-0.000827145 -0.00109975 0)
(-0.000509039 -0.000553121 0)
(-0.000244715 -2.7181e-05 0)
(-6.7607e-05 0.00033458 0)
(3.81845e-06 0.000320736 0)
(1.44665e-06 0.000281727 0)
(0.000130708 0.000159008 0)
(0.000393807 -0.000337874 0)
(0.000746028 -0.000962502 0)
(0.00113183 -0.00156335 0)
(0.0015117 -0.00206112 0)
(0.00186275 -0.00242316 0)
(0.00217518 -0.0026481 0)
(0.0024489 -0.00275076 0)
(0.00268976 -0.00275239 0)
(0.0029058 -0.00267531 0)
(0.00310443 -0.00253986 0)
(0.00329125 -0.00236279 0)
(0.00346959 -0.00215729 0)
(0.00364058 -0.00193367 0)
(0.0038039 -0.00170022 0)
(0.00395883 -0.00146336 0)
(0.00410499 -0.00122695 0)
(0.00424185 -0.000991631 0)
(0.00436774 -0.000755481 0)
(0.00447947 -0.00051549 0)
(0.00457269 -0.000268897 0)
(0.00464257 -1.37534e-05 0)
(0.00468404 0.000250938 0)
(0.00469176 0.000524835 0)
(0.00466052 0.000805734 0)
(0.00458565 0.00108965 0)
(0.00446331 0.00137092 0)
(0.00429084 0.00164227 0)
(0.0040676 0.00189502 0)
(0.00379597 0.00212014 0)
(0.00348185 0.00231053 0)
(0.00313335 0.0024634 0)
(0.00275848 0.00258058 0)
(0.0023634 0.00266684 0)
(0.0019524 0.00272761 0)
(0.00152872 0.00276766 0)
(0.00109526 0.0027908 0)
(0.000654948 0.00279978 0)
(0.00021102 0.00279628 0)
(-0.000232939 0.00278133 0)
(-0.000673201 0.00275547 0)
(-0.00110593 0.00271861 0)
(-0.00152747 0.00267048 0)
(-0.00193485 0.00261038 0)
(-0.00232592 0.0025365 0)
(-0.00269909 0.00244552 0)
(-0.00305231 0.00233214 0)
(-0.00338153 0.00219003 0)
(-0.00368007 0.0020145 0)
(-0.00393968 0.00180497 0)
(-0.00415299 0.00156589 0)
(-0.00431574 0.00130548 0)
(-0.00442733 0.0010329 0)
(-0.0044899 0.000756459 0)
(-0.00450736 0.000482847 0)
(-0.00448488 0.00021695 0)
(-0.00442853 -3.84573e-05 0)
(-0.00434464 -0.00028296 0)
(-0.00423903 -0.000517936 0)
(-0.00411692 -0.000745804 0)
(-0.00398295 -0.000969648 0)
(-0.00384077 -0.00119283 0)
(-0.00369247 -0.00141804 0)
(-0.00353827 -0.00164569 0)
(-0.00337722 -0.00187225 0)
(-0.00320869 -0.00208989 0)
(-0.00303301 -0.0022879 0)
(-0.00285047 -0.0024544 0)
(-0.00265945 -0.00257626 0)
(-0.00245562 -0.00263824 0)
(-0.00223227 -0.00262249 0)
(-0.00198168 -0.00250954 0)
(-0.00169755 -0.00228072 0)
(-0.00137872 -0.00192374 0)
(-0.00103314 -0.00144191 0)
(-0.00068136 -0.000867091 0)