/*--------------------------------*- C++ -*----------------------------------*\
| =========                 |                                                 |
| \\      /  F ield         | OpenFOAM: The Open Source CFD Toolbox           |
|  \\    /   O peration     | Version:  2412                                  |
|   \\  /    A nd           | Website:  www.openfoam.com                      |
|    \\/     M anipulation  |                                                 |
\*---------------------------------------------------------------------------*/
FoamFile
{
    version     2.0;
    format      ascii;
    arch        "LSB;label=32;scalar=64";
    class       volVectorField;
    location    "7.3";
    object      U;
}
// * * * * * * * * * * * * * * * * * * * * * * * * * * * * * * * * * * * * * //

dimensions      [0 1 -1 0 0 0 0];

internalField   nonuniform List<vector> 
6400
(
(2.40425e-07 -4.04507e-07 0)
(1.96559e-06 -1.88068e-07 0)
(7.79446e-07 1.42735e-06 0)
(-2.35538e-06 2.15933e-06 0)
(-4.82342e-06 1.20782e-06 0)
(-4.28377e-06 -1.23248e-06 0)
(-8.11313e-08 -3.76677e-06 0)
(5.5699e-06 -4.46201e-06 0)
(8.76239e-06 -2.25566e-06 0)
(6.57161e-06 2.02579e-06 0)
(-5.79921e-07 5.88581e-06 0)
(-8.66725e-06 6.64185e-06 0)
(-1.23731e-05 3.27064e-06 0)
(-8.60608e-06 -2.64832e-06 0)
(1.11907e-06 -7.65496e-06 0)
(1.11978e-05 -8.47956e-06 0)
(1.52475e-05 -4.193e-06 0)
(1.02068e-05 2.98708e-06 0)
(-1.4455e-06 8.86481e-06 0)
(-1.29196e-05 9.7783e-06 0)
(-1.71713e-05 4.9144e-06 0)
(-1.12999e-05 -3.05604e-06 0)
(1.49726e-06 -9.48389e-06 0)
(1.37221e-05 -1.05152e-05 0)
(1.80725e-05 -5.44021e-06 0)
(1.18813e-05 2.83462e-06 0)
(-1.24757e-06 9.49835e-06 0)
(-1.36071e-05 1.06916e-05 0)
(-1.80088e-05 5.77485e-06 0)
(-1.20281e-05 -2.3428e-06 0)
(6.69775e-07 -8.96826e-06 0)
(1.26382e-05 -1.03868e-05 0)
(1.71007e-05 -5.96653e-06 0)
(1.18324e-05 1.59911e-06 0)
(2.22589e-07 7.96828e-06 0)
(-1.0948e-05 9.68119e-06 0)
(-1.55316e-05 6.04422e-06 0)
(-1.14122e-05 -6.58367e-07 0)
(-1.39557e-06 -6.62092e-06 0)
(8.70979e-06 -8.70012e-06 0)
(1.35025e-05 -6.0597e-06 0)
(1.08619e-05 -4.2709e-07 0)
(2.77054e-06 5.04228e-06 0)
(-6.13261e-06 7.54196e-06 0)
(-1.12285e-05 6.02686e-06 0)
(-1.02722e-05 1.57247e-06 0)
(-4.25959e-06 -3.37146e-06 0)
(3.42098e-06 -6.32232e-06 0)
(8.89232e-06 -5.97279e-06 0)
(9.68234e-06 -2.70876e-06 0)
(5.73543e-06 1.71721e-06 0)
(-7.8492e-07 5.10914e-06 0)
(-6.65432e-06 5.87586e-06 0)
(-9.10818e-06 3.7362e-06 0)
(-7.06809e-06 -1.98673e-07 0)
(-1.59028e-06 -3.97501e-06 0)
(4.63495e-06 -5.72874e-06 0)
(8.53477e-06 -4.58593e-06 0)
(8.13115e-06 -1.1105e-06 0)
(3.56325e-06 2.94141e-06 0)
(-2.8908e-06 5.48252e-06 0)
(-7.89764e-06 5.16915e-06 0)
(-8.7849e-06 2.13582e-06 0)
(-5.00978e-06 -2.03069e-06 0)
(1.45833e-06 -5.10885e-06 0)
(7.13918e-06 -5.44196e-06 0)
(8.93753e-06 -2.85867e-06 0)
(5.88477e-06 1.217e-06 0)
(-2.97187e-07 4.55412e-06 0)
(-6.16937e-06 5.3601e-06 0)
(-8.53757e-06 3.27105e-06 0)
(-6.24609e-06 -4.82576e-07 0)
(-7.5427e-07 -3.80791e-06 0)
(4.81143e-06 -4.94076e-06 0)
(7.49388e-06 -3.40654e-06 0)
(6.15851e-06 -2.46732e-07 0)
(1.8632e-06 2.64613e-06 0)
(-2.75683e-06 3.71949e-06 0)
(-4.98363e-06 2.80199e-06 0)
(-2.28749e-06 2.19198e-06 0)
(-8.58177e-07 1.29738e-06 0)
(-1.82386e-07 -8.41077e-07 0)
(8.21681e-07 1.40225e-07 0)
(7.9678e-08 1.58297e-06 0)
(-5.35242e-07 2.1977e-06 0)
(-6.10928e-07 1.17657e-06 0)
(3.06216e-08 -1.40312e-06 0)
(9.33871e-07 -4.09821e-06 0)
(1.30449e-06 -4.85245e-06 0)
(6.41978e-07 -2.49729e-06 0)
(-7.91395e-07 2.12789e-06 0)
(-2.04289e-06 6.35939e-06 0)
(-2.09962e-06 7.27479e-06 0)
(-6.5931e-07 3.69592e-06 0)
(1.52954e-06 -2.73932e-06 0)
(3.0601e-06 -8.29835e-06 0)
(2.7837e-06 -9.37141e-06 0)
(6.42873e-07 -4.83375e-06 0)
(-2.169e-06 3.00283e-06 0)
(-3.89122e-06 9.5859e-06 0)
(-3.318e-06 1.08326e-05 0)
(-6.3313e-07 5.70183e-06 0)
(2.6186e-06 -3.01534e-06 0)
(4.44529e-06 -1.02541e-05 0)
(3.65259e-06 -1.16865e-05 0)
(6.24675e-07 -6.35252e-06 0)
(-2.86491e-06 2.71051e-06 0)
(-4.71943e-06 1.02464e-05 0)
(-3.80351e-06 1.18933e-05 0)
(-6.44838e-07 6.7476e-06 0)
(2.88587e-06 -2.1512e-06 0)
(4.7097e-06 -9.6634e-06 0)
(3.7856e-06 -1.15725e-05 0)
(7.06307e-07 -6.9769e-06 0)
(-2.69367e-06 1.31831e-06 0)
(-4.45426e-06 8.55124e-06 0)
(-3.637e-06 1.07795e-05 0)
(-8.21224e-07 7.03784e-06 0)
(2.30979e-06 -3.07388e-07 0)
(3.99407e-06 -7.07761e-06 0)
(3.39192e-06 -9.68616e-06 0)
(9.88255e-07 -7.02736e-06 0)
(-1.78126e-06 -8.67502e-07 0)
(-3.40001e-06 5.33108e-06 0)
(-3.10246e-06 8.36729e-06 0)
(-1.21158e-06 6.92755e-06 0)
(1.14689e-06 2.07613e-06 0)
(2.72139e-06 -3.50449e-06 0)
(2.79167e-06 -6.99274e-06 0)
(1.46725e-06 -6.81522e-06 0)
(-4.70125e-07 -3.29181e-06 0)
(-2.02762e-06 1.67209e-06 0)
(-2.49505e-06 5.59817e-06 0)
(-1.73795e-06 6.62931e-06 0)
(-1.94363e-07 4.36354e-06 0)
(1.37351e-06 -1.12349e-08 0)
(2.23575e-06 -4.31232e-06 0)
(2.00926e-06 -6.41094e-06 0)
(8.15451e-07 -5.26338e-06 0)
(-7.74121e-07 -1.44091e-06 0)
(-1.9885e-06 3.11986e-06 0)
(-2.21483e-06 6.06934e-06 0)
(-1.3091e-06 5.85285e-06 0)
(2.98626e-07 2.55579e-06 0)
(1.78892e-06 -2.095e-06 0)
(2.36267e-06 -5.61987e-06 0)
(1.67915e-06 -6.12365e-06 0)
(6.98736e-08 -3.34454e-06 0)
(-1.60952e-06 1.18185e-06 0)
(-2.43815e-06 4.97058e-06 0)
(-1.94014e-06 5.97432e-06 0)
(-3.54073e-07 3.72734e-06 0)
(1.49902e-06 -4.1987e-07 0)
(2.62938e-06 -4.09967e-06 0)
(2.34623e-06 -5.33645e-06 0)
(4.72146e-07 -3.67736e-06 0)
(-2.48779e-06 -3.7547e-07 0)
(-5.49224e-06 2.85878e-06 0)
(-3.71044e-06 4.07152e-06 0)
(-2.52155e-06 4.24379e-06 0)
(6.96791e-08 3.08037e-06 0)
(-7.76664e-07 8.97577e-07 0)
(6.57289e-07 1.17796e-06 0)
(-6.9648e-07 1.66811e-06 0)
(-1.57309e-06 9.83666e-07 0)
(-1.37279e-06 -7.87634e-07 0)
(4.79643e-08 -2.83317e-06 0)
(1.95357e-06 -3.8378e-06 0)
(3.03474e-06 -2.74403e-06 0)
(2.27558e-06 3.43698e-07 0)
(-2.1676e-07 3.89934e-06 0)
(-3.07163e-06 5.72225e-06 0)
(-4.41794e-06 4.31869e-06 0)
(-3.11999e-06 4.02653e-08 0)
(3.39712e-07 -4.85713e-06 0)
(3.99081e-06 -7.42222e-06 0)
(5.52619e-06 -5.82218e-06 0)
(3.78292e-06 -6.26552e-07 0)
(-4.13429e-07 5.33042e-06 0)
(-4.63512e-06 8.531e-06 0)
(-6.29325e-06 6.89799e-06 0)
(-4.25341e-06 1.14996e-06 0)
(3.95914e-07 -5.49803e-06 0)
(4.94258e-06 -9.17638e-06 0)
(6.67063e-06 -7.65946e-06 0)
(4.51289e-06 -1.7298e-06 0)
(-2.89893e-07 5.23949e-06 0)
(-4.92465e-06 9.2462e-06 0)
(-6.69041e-06 8.00024e-06 0)
(-4.59786e-06 2.24805e-06 0)
(7.60618e-08 -4.69316e-06 0)
(4.59149e-06 -8.8898e-06 0)
(6.38331e-06 -8.05524e-06 0)
(4.5369e-06 -2.80085e-06 0)
(2.40462e-07 3.81241e-06 0)
(-3.99359e-06 8.08925e-06 0)
(-5.82269e-06 7.78837e-06 0)
(-4.3788e-06 3.28882e-06 0)
(-6.5363e-07 -2.76421e-06 0)
(3.18548e-06 -7.03917e-06 0)
(5.07326e-06 -7.36306e-06 0)
(4.15494e-06 -3.80483e-06 0)
(1.13342e-06 1.52611e-06 0)
(-2.25002e-06 5.74338e-06 0)
(-4.22676e-06 6.74529e-06 0)
(-3.91244e-06 4.23193e-06 0)
(-1.66001e-06 -2.90087e-07 0)
(1.25075e-06 -4.41431e-06 0)
(3.33996e-06 -6.10374e-06 0)
(3.65861e-06 -4.66345e-06 0)
(2.18058e-06 -9.78251e-07 0)
(-2.74064e-07 3.02395e-06 0)
(-2.48479e-06 5.36144e-06 0)
(-3.41113e-06 4.94874e-06 0)
(-2.65274e-06 2.07667e-06 0)
(-6.09192e-07 -1.7728e-06 0)
(1.71557e-06 -4.66823e-06 0)
(3.18076e-06 -5.17466e-06 0)
(3.05172e-06 -3.05744e-06 0)
(1.37269e-06 5.96142e-07 0)
(-1.02425e-06 3.91363e-06 0)
(-2.91003e-06 5.18317e-06 0)
(-3.28457e-06 3.74319e-06 0)
(-1.91991e-06 3.4514e-07 0)
(4.82305e-07 -3.22049e-06 0)
(2.64152e-06 -5.0668e-06 0)
(3.3838e-06 -4.21939e-06 0)
(2.29626e-06 -1.14949e-06 0)
(-3.67809e-08 2.48284e-06 0)
(-2.34836e-06 4.72893e-06 0)
(-3.38586e-06 4.4114e-06 0)
(-2.57727e-06 1.74568e-06 0)
(-3.19554e-07 -1.79738e-06 0)
(2.23513e-06 -4.31809e-06 0)
(3.68261e-06 -4.51401e-06 0)
(3.0001e-06 -2.38998e-06 0)
(-8.5532e-09 1.02296e-06 0)
(-4.06211e-06 4.3965e-06 0)
(-2.83973e-06 5.64677e-06 0)
(-3.45653e-06 1.88812e-06 0)
(1.91415e-06 1.22244e-06 0)
(4.08728e-07 4.71348e-07 0)
(1.68401e-06 2.89154e-07 0)
(-2.58445e-07 1.42925e-06 0)
(-2.27126e-06 2.24823e-06 0)
(-3.2158e-06 2.02397e-06 0)
(-2.17073e-06 4.2734e-07 0)
(7.37563e-07 -1.98288e-06 0)
(3.95265e-06 -3.82098e-06 0)
(5.28514e-06 -3.70555e-06 0)
(3.40504e-06 -1.27023e-06 0)
(-1.03339e-06 2.36292e-06 0)
(-5.51878e-06 5.08227e-06 0)
(-7.1368e-06 5.043e-06 0)
(-4.48399e-06 1.91687e-06 0)
(1.22971e-06 -2.71e-06 0)
(6.71381e-06 -6.15038e-06 0)
(8.54074e-06 -6.21292e-06 0)
(5.32304e-06 -2.61437e-06 0)
(-1.2815e-06 2.7162e-06 0)
(-7.43946e-06 6.69328e-06 0)
(-9.42213e-06 6.903e-06 0)
(-5.90269e-06 3.09234e-06 0)
(1.16324e-06 -2.60957e-06 0)
(7.6594e-06 -6.91215e-06 0)
(9.76025e-06 -7.3016e-06 0)
(6.22383e-06 -3.53338e-06 0)
(-8.76064e-07 2.22346e-06 0)
(-7.40059e-06 6.66415e-06 0)
(-9.60893e-06 7.28109e-06 0)
(-6.33334e-06 3.79743e-06 0)
(4.12665e-07 -1.72648e-06 0)
(6.70492e-06 -6.14042e-06 0)
(9.03174e-06 -7.02904e-06 0)
(6.27252e-06 -4.04147e-06 0)
(2.04004e-07 1.01124e-06 0)
(-5.6615e-06 5.2733e-06 0)
(-8.13901e-06 6.47759e-06 0)
(-6.10336e-06 4.14828e-06 0)
(-9.50232e-07 -2.60381e-07 0)
(4.36167e-06 -4.28412e-06 0)
(7.02662e-06 -5.83618e-06 0)
(5.86157e-06 -4.2761e-06 0)
(1.76977e-06 -6.22908e-07 0)
(-2.92858e-06 3.10979e-06 0)
(-5.81646e-06 5.02387e-06 0)
(-5.59791e-06 4.28015e-06 0)
(-2.62092e-06 1.42464e-06 0)
(1.45669e-06 -1.99566e-06 0)
(4.58355e-06 -4.26305e-06 0)
(5.31254e-06 -4.32719e-06 0)
(3.42285e-06 -2.26082e-06 0)
(-6.28798e-08 8.39425e-07 0)
(-3.4138e-06 3.42069e-06 0)
(-5.01343e-06 4.22731e-06 0)
(-4.10772e-06 2.89453e-06 0)
(-1.15707e-06 1.13478e-07 0)
(2.37251e-06 -2.70881e-06 0)
(4.70601e-06 -4.14315e-06 0)
(4.63853e-06 -3.45604e-06 0)
(2.17159e-06 -9.96579e-07 0)
(-1.44191e-06 1.96349e-06 0)
(-4.31145e-06 3.87492e-06 0)
(-4.90085e-06 3.7274e-06 0)
(-2.87147e-06 1.59739e-06 0)
(6.98264e-07 -1.37445e-06 0)
(3.88032e-06 -3.59367e-06 0)
(4.94685e-06 -3.87296e-06 0)
(3.32965e-06 -2.08309e-06 0)
(-7.18502e-08 7.87811e-07 0)
(-3.38917e-06 3.18202e-06 0)
(-4.81245e-06 3.8332e-06 0)
(-3.55962e-06 2.43789e-06 0)
(-3.14681e-07 -2.11057e-07 0)
(3.09851e-06 -2.72723e-06 0)
(4.58582e-06 -3.8599e-06 0)
(3.07237e-06 -2.99328e-06 0)
(-7.15058e-07 -1.48507e-07 0)
(-1.80725e-07 2.10921e-06 0)
(-2.56082e-06 -1.98788e-06 0)
(2.89991e-06 -2.49475e-06 0)
(2.1537e-06 -2.03449e-07 0)
(2.42201e-06 -9.21218e-07 0)
(1.12519e-06 1.83431e-08 0)
(-1.17412e-06 1.9218e-06 0)
(-3.42705e-06 3.54943e-06 0)
(-4.12621e-06 3.52061e-06 0)
(-2.22549e-06 1.2679e-06 0)
(1.66184e-06 -2.33374e-06 0)
(5.29987e-06 -5.24795e-06 0)
(6.16299e-06 -5.46609e-06 0)
(3.19314e-06 -2.38292e-06 0)
(-2.24033e-06 2.56565e-06 0)
(-6.95008e-06 6.55037e-06 0)
(-7.84774e-06 7.00479e-06 0)
(-3.98512e-06 3.29374e-06 0)
(2.63847e-06 -2.69671e-06 0)
(8.1306e-06 -7.53037e-06 0)
(9.04812e-06 -8.23858e-06 0)
(4.58711e-06 -4.1751e-06 0)
(-2.79414e-06 2.47299e-06 0)
(-8.76536e-06 7.88808e-06 0)
(-9.7233e-06 8.86484e-06 0)
(-4.99971e-06 4.7412e-06 0)
(2.68794e-06 -2.16076e-06 0)
(8.84593e-06 -7.87779e-06 0)
(9.88454e-06 -9.12709e-06 0)
(5.24317e-06 -5.22118e-06 0)
(-2.32205e-06 1.56136e-06 0)
(-8.41493e-06 7.33676e-06 0)
(-9.60185e-06 8.88028e-06 0)
(-5.36609e-06 5.44663e-06 0)
(1.70475e-06 -8.90088e-07 0)
(7.53564e-06 -6.51758e-06 0)
(8.94823e-06 -8.37534e-06 0)
(5.39909e-06 -5.62687e-06 0)
(-8.83459e-07 4.47913e-09 0)
(-6.31955e-06 5.33116e-06 0)
(-8.04091e-06 7.52555e-06 0)
(-5.39204e-06 5.61511e-06 0)
(-9.6749e-08 8.65463e-07 0)
(4.87167e-06 -4.06044e-06 0)
(6.96879e-06 -6.60435e-06 0)
(5.35507e-06 -5.62473e-06 0)
(1.15084e-06 -1.8587e-06 0)
(-3.32972e-06 2.60858e-06 0)
(-5.84752e-06 5.49634e-06 0)
(-5.31941e-06 5.46707e-06 0)
(-2.22031e-06 2.70472e-06 0)
(1.78825e-06 -1.28623e-06 0)
(4.73225e-06 -4.48927e-06 0)
(5.25555e-06 -5.36712e-06 0)
(3.20227e-06 -3.5695e-06 0)
(-3.6595e-07 -5.54224e-08 0)
(-3.69159e-06 3.40088e-06 0)
(-5.14863e-06 5.07933e-06 0)
(-4.01602e-06 4.15454e-06 0)
(-8.45427e-07 1.10691e-06 0)
(2.77536e-06 -2.50523e-06 0)
(4.99049e-06 -4.82396e-06 0)
(4.62503e-06 -4.64385e-06 0)
(1.8313e-06 -2.05454e-06 0)
(-1.94232e-06 1.5847e-06 0)
(-4.68749e-06 4.34619e-06 0)
(-4.91769e-06 4.76419e-06 0)
(-2.4964e-06 2.6289e-06 0)
(1.26017e-06 -8.89471e-07 0)
(4.30184e-06 -3.88365e-06 0)
(4.97497e-06 -4.74983e-06 0)
(2.94281e-06 -3.06435e-06 0)
(-6.42061e-07 2.1282e-07 0)
(-3.78146e-06 3.28808e-06 0)
(-4.7453e-06 4.53341e-06 0)
(-3.0378e-06 3.34346e-06 0)
(2.65321e-07 4.22367e-07 0)
(3.10979e-06 -2.65077e-06 0)
(3.76508e-06 -4.09662e-06 0)
(2.14418e-06 -2.91009e-06 0)
(2.43054e-06 -8.20067e-07 0)
(-9.83656e-08 -4.79486e-06 0)
(2.01871e-06 -5.63878e-06 0)
(3.16376e-06 -7.98085e-07 0)
(2.05976e-06 -1.92672e-06 0)
(2.58791e-06 -2.13038e-06 0)
(1.24643e-06 -2.24348e-07 0)
(-1.62026e-06 2.69913e-06 0)
(-4.43746e-06 4.81596e-06 0)
(-5.06774e-06 4.48302e-06 0)
(-2.48848e-06 1.31929e-06 0)
(2.21237e-06 -3.24541e-06 0)
(6.26939e-06 -6.57339e-06 0)
(6.92365e-06 -6.38098e-06 0)
(3.30219e-06 -2.30418e-06 0)
(-2.77763e-06 3.6068e-06 0)
(-7.72887e-06 7.92015e-06 0)
(-8.36243e-06 7.86135e-06 0)
(-3.96162e-06 3.11281e-06 0)
(3.09604e-06 -3.79749e-06 0)
(8.65696e-06 -8.87182e-06 0)
(9.29228e-06 -9.008e-06 0)
(4.44543e-06 -3.92765e-06 0)
(-3.14265e-06 3.55444e-06 0)
(-9.02431e-06 9.12634e-06 0)
(-9.7095e-06 9.51811e-06 0)
(-4.76727e-06 4.45153e-06 0)
(2.91097e-06 -3.17403e-06 0)
(8.85031e-06 -8.98332e-06 0)
(9.64967e-06 -9.68265e-06 0)
(4.95576e-06 -4.95242e-06 0)
(-2.41361e-06 2.43067e-06 0)
(-8.19849e-06 8.25905e-06 0)
(-9.20137e-06 9.33117e-06 0)
(-5.0645e-06 5.22206e-06 0)
(1.66715e-06 -1.59455e-06 0)
(7.14346e-06 -7.26559e-06 0)
(8.43959e-06 -8.76409e-06 0)
(5.1136e-06 -5.50332e-06 0)
(-7.36173e-07 4.99774e-07 0)
(-5.81087e-06 5.88823e-06 0)
(-7.48676e-06 7.85695e-06 0)
(-5.14944e-06 5.59658e-06 0)
(-3.29127e-07 5.61781e-07 0)
(4.30375e-06 -4.46894e-06 0)
(6.4188e-06 -6.9293e-06 0)
(5.1633e-06 -5.74865e-06 0)
(1.42881e-06 -1.76036e-06 0)
(-2.76409e-06 2.86931e-06 0)
(-5.34679e-06 5.80897e-06 0)
(-5.18115e-06 5.70351e-06 0)
(-2.50703e-06 2.75756e-06 0)
(1.27256e-06 -1.45917e-06 0)
(4.30499e-06 -4.83077e-06 0)
(5.15509e-06 -5.72616e-06 0)
(3.454e-06 -3.76288e-06 0)
(5.84728e-08 3.42451e-08 0)
(-3.34939e-06 3.74549e-06 0)
(-5.0622e-06 5.50095e-06 0)
(-4.19186e-06 4.41409e-06 0)
(-1.14885e-06 1.04249e-06 0)
(2.51846e-06 -2.8735e-06 0)
(4.8922e-06 -5.29467e-06 0)
(4.69402e-06 -4.94819e-06 0)
(1.99988e-06 -2.01824e-06 0)
(-1.76104e-06 1.93387e-06 0)
(-4.55631e-06 4.79387e-06 0)
(-4.86667e-06 5.0416e-06 0)
(-2.53297e-06 2.57631e-06 0)
(1.14349e-06 -1.22883e-06 0)
(4.13382e-06 -4.29898e-06 0)
(4.81269e-06 -4.99901e-06 0)
(2.86616e-06 -3.02457e-06 0)
(-5.55713e-07 4.74273e-07 0)
(-3.50227e-06 3.56144e-06 0)
(-4.35665e-06 4.60633e-06 0)
(-2.78338e-06 3.16199e-06 0)
(7.77794e-08 2.09287e-07 0)
(2.52784e-06 -2.39862e-06 0)
(3.52722e-06 -3.06505e-06 0)
(3.67357e-06 -2.10787e-06 0)
(2.35224e-06 -4.84035e-06 0)
(-7.11749e-07 -5.40312e-06 0)
(2.18403e-06 -7.43266e-07 0)
(2.76065e-07 -1.93387e-06 0)
(3.01258e-06 -3.70478e-06 0)
(3.71815e-06 -3.13605e-06 0)
(1.65737e-06 -3.7904e-07 0)
(-2.27655e-06 3.27494e-06 0)
(-5.68286e-06 5.74483e-06 0)
(-6.08581e-06 5.19881e-06 0)
(-2.66128e-06 1.39884e-06 0)
(2.95223e-06 -3.81116e-06 0)
(7.4324e-06 -7.38915e-06 0)
(7.79134e-06 -6.92179e-06 0)
(3.37523e-06 -2.262e-06 0)
(-3.49136e-06 4.14114e-06 0)
(-8.75365e-06 8.54792e-06 0)
(-9.0756e-06 8.16249e-06 0)
(-3.97829e-06 2.92413e-06 0)
(3.71431e-06 -4.29597e-06 0)
(9.48324e-06 -9.30791e-06 0)
(9.8277e-06 -9.08701e-06 0)
(4.42402e-06 -3.6297e-06 0)
(-3.62683e-06 3.98095e-06 0)
(-9.62385e-06 9.3576e-06 0)
(-1.00688e-05 9.38961e-06 0)
(-4.73424e-06 4.068e-06 0)
(3.23211e-06 -3.52425e-06 0)
(9.21369e-06 -9.04179e-06 0)
(9.84718e-06 -9.40676e-06 0)
(4.93424e-06 -4.54333e-06 0)
(-2.56271e-06 2.6743e-06 0)
(-8.34272e-06 8.15441e-06 0)
(-9.27159e-06 8.94057e-06 0)
(-5.08255e-06 4.8088e-06 0)
(1.64295e-06 -1.74933e-06 0)
(7.09513e-06 -7.0565e-06 0)
(8.41639e-06 -8.33232e-06 0)
(5.18508e-06 -5.13894e-06 0)
(-5.5915e-07 5.54063e-07 0)
(-5.61494e-06 5.59737e-06 0)
(-7.4119e-06 7.41147e-06 0)
(-5.28622e-06 5.2809e-06 0)
(-6.34076e-07 5.66385e-07 0)
(4.00332e-06 -4.16565e-06 0)
(6.32156e-06 -6.53579e-06 0)
(5.35739e-06 -5.51674e-06 0)
(1.81825e-06 -1.82391e-06 0)
(-2.41206e-06 2.5687e-06 0)
(-5.25701e-06 5.46876e-06 0)
(-5.42245e-06 5.52494e-06 0)
(-2.9406e-06 2.82226e-06 0)
(9.09743e-07 -1.22374e-06 0)
(4.23439e-06 -4.58634e-06 0)
(5.41658e-06 -5.61373e-06 0)
(3.88303e-06 -3.82361e-06 0)
(3.93524e-07 -1.37064e-07 0)
(-3.30156e-06 3.57098e-06 0)
(-5.31143e-06 5.40388e-06 0)
(-4.57041e-06 4.41289e-06 0)
(-1.42696e-06 1.1065e-06 0)
(2.48811e-06 -2.78634e-06 0)
(5.0951e-06 -5.21209e-06 0)
(4.98236e-06 -4.8853e-06 0)
(2.19954e-06 -1.99413e-06 0)
(-1.74322e-06 1.8929e-06 0)
(-4.69079e-06 4.6747e-06 0)
(-5.04293e-06 4.87435e-06 0)
(-2.64327e-06 2.43962e-06 0)
(1.1359e-06 -1.24342e-06 0)
(4.18629e-06 -4.15188e-06 0)
(4.85301e-06 -4.75249e-06 0)
(2.86443e-06 -2.83794e-06 0)
(-5.50701e-07 4.18462e-07 0)
(-3.40553e-06 3.17746e-06 0)
(-4.15209e-06 4.0279e-06 0)
(-2.55899e-06 2.78102e-06 0)
(3.20011e-07 4.82001e-07 0)
(3.03154e-06 -1.46097e-06 0)
(2.8488e-06 -1.7995e-06 0)
(3.34651e-06 -2.28781e-06 0)
(-3.76951e-06 -1.02447e-06 0)
(-8.3797e-07 1.6611e-07 0)
(-2.29533e-06 -5.16478e-07 0)
(1.70409e-06 -3.22484e-06 0)
(4.62717e-06 -4.77213e-06 0)
(4.76663e-06 -3.98135e-06 0)
(1.70719e-06 -6.80623e-07 0)
(-3.11079e-06 3.69848e-06 0)
(-6.81789e-06 6.60789e-06 0)
(-6.8013e-06 5.94772e-06 0)
(-2.53398e-06 1.58981e-06 0)
(3.79939e-06 -4.24654e-06 0)
(8.42783e-06 -8.14282e-06 0)
(8.29747e-06 -7.53658e-06 0)
(3.09862e-06 -2.42206e-06 0)
(-4.33001e-06 4.44427e-06 0)
(-9.58869e-06 9.05798e-06 0)
(-9.37871e-06 8.55529e-06 0)
(-3.59465e-06 3.01218e-06 0)
(4.49021e-06 -4.48006e-06 0)
(1.01273e-05 -9.58289e-06 0)
(9.93963e-06 -9.27436e-06 0)
(3.97698e-06 -3.66884e-06 0)
(-4.29797e-06 4.02782e-06 0)
(-1.00685e-05 9.39332e-06 0)
(-1.00233e-05 9.37869e-06 0)
(-4.27753e-06 4.06123e-06 0)
(3.7608e-06 -3.45148e-06 0)
(9.46151e-06 -8.87962e-06 0)
(9.68157e-06 -9.24746e-06 0)
(4.50952e-06 -4.52542e-06 0)
(-2.93643e-06 2.47772e-06 0)
(-8.42276e-06 7.81616e-06 0)
(-9.03938e-06 8.65746e-06 0)
(-4.73306e-06 4.77929e-06 0)
(1.85633e-06 -1.46792e-06 0)
(7.04069e-06 -6.60828e-06 0)
(8.16276e-06 -7.98851e-06 0)
(4.93307e-06 -5.12927e-06 0)
(-6.3087e-07 1.95722e-07 0)
(-5.47465e-06 5.06797e-06 0)
(-7.18409e-06 7.02468e-06 0)
(-5.14801e-06 5.27281e-06 0)
(-6.81848e-07 9.45257e-07 0)
(3.81838e-06 -3.6278e-06 0)
(6.1471e-06 -6.16334e-06 0)
(5.32404e-06 -5.53154e-06 0)
(1.94351e-06 -2.2127e-06 0)
(-2.23077e-06 2.03977e-06 0)
(-5.15981e-06 5.10647e-06 0)
(-5.4805e-06 5.52416e-06 0)
(-3.10565e-06 3.15825e-06 0)
(7.64516e-07 -7.65775e-07 0)
(4.21649e-06 -4.2725e-06 0)
(5.53444e-06 -5.60555e-06 0)
(4.04354e-06 -4.09869e-06 0)
(4.75758e-07 -5.23447e-07 0)
(-3.35446e-06 3.28166e-06 0)
(-5.45193e-06 5.34052e-06 0)
(-4.68682e-06 4.57204e-06 0)
(-1.43114e-06 1.37883e-06 0)
(2.593e-06 -2.54143e-06 0)
(5.21895e-06 -5.09635e-06 0)
(5.01962e-06 -4.9293e-06 0)
(2.11386e-06 -2.16586e-06 0)
(-1.88729e-06 1.66194e-06 0)
(-4.77294e-06 4.46492e-06 0)
(-4.97964e-06 4.76212e-06 0)
(-2.4599e-06 2.47886e-06 0)
(1.30608e-06 -1.046e-06 0)
(4.18602e-06 -3.86188e-06 0)
(4.62091e-06 -4.50996e-06 0)
(2.51357e-06 -2.81573e-06 0)
(-7.63395e-07 1.08282e-07 0)
(-3.23108e-06 2.60483e-06 0)
(-3.51938e-06 3.49052e-06 0)
(-1.6423e-06 2.57181e-06 0)
(1.15636e-06 5.15123e-07 0)
(6.31943e-07 -6.35758e-07 0)
(2.45647e-06 1.19665e-06 0)
(-4.99234e-06 5.12483e-06 0)
(-4.25353e-06 1.36896e-06 0)
(-4.18554e-06 1.70543e-06 0)
(-9.70291e-07 -4.30417e-07 0)
(2.9856e-06 -3.62051e-06 0)
(5.69855e-06 -5.72671e-06 0)
(5.39824e-06 -4.897e-06 0)
(1.62594e-06 -9.60921e-07 0)
(-3.81155e-06 4.15498e-06 0)
(-7.65839e-06 7.42233e-06 0)
(-7.23236e-06 6.56956e-06 0)
(-2.30702e-06 1.65044e-06 0)
(4.48074e-06 -4.73402e-06 0)
(9.07182e-06 -8.83752e-06 0)
(8.47514e-06 -8.01499e-06 0)
(2.7305e-06 -2.44495e-06 0)
(-4.94311e-06 4.81199e-06 0)
(-9.99682e-06 9.53068e-06 0)
(-9.30413e-06 8.83607e-06 0)
(-3.11684e-06 2.97759e-06 0)
(5.00671e-06 -4.73456e-06 0)
(1.03025e-05 -9.84707e-06 0)
(9.64908e-06 -9.38477e-06 0)
(3.43471e-06 -3.60971e-06 0)
(-4.69811e-06 4.14652e-06 0)
(-1.00355e-05 9.44658e-06 0)
(-9.57512e-06 9.33144e-06 0)
(-3.72691e-06 3.98652e-06 0)
(4.02656e-06 -3.44781e-06 0)
(9.25097e-06 -8.76134e-06 0)
(9.13135e-06 -9.09149e-06 0)
(3.98963e-06 -4.46888e-06 0)
(-3.07598e-06 2.34848e-06 0)
(-8.0886e-06 7.54805e-06 0)
(-8.45449e-06 8.41603e-06 0)
(-4.2831e-06 4.7394e-06 0)
(1.88134e-06 -1.25087e-06 0)
(6.63399e-06 -6.25225e-06 0)
(7.59583e-06 -7.71895e-06 0)
(4.56928e-06 -5.13309e-06 0)
(-5.73709e-07 -1.01081e-07 0)
(-5.05562e-06 4.64797e-06 0)
(-6.68515e-06 6.73726e-06 0)
(-4.88115e-06 5.29653e-06 0)
(-7.91138e-07 1.26564e-06 0)
(3.43205e-06 -3.21014e-06 0)
(5.74143e-06 -5.90623e-06 0)
(5.13987e-06 -5.58979e-06 0)
(2.05977e-06 -2.54548e-06 0)
(-1.92373e-06 1.63638e-06 0)
(-4.86644e-06 4.86782e-06 0)
(-5.36234e-06 5.5738e-06 0)
(-3.19311e-06 3.44254e-06 0)
(5.62911e-07 -4.30844e-07 0)
(4.03205e-06 -4.08094e-06 0)
(5.45142e-06 -5.64844e-06 0)
(4.06583e-06 -4.32606e-06 0)
(5.55376e-07 -7.93749e-07 0)
(-3.26502e-06 3.10804e-06 0)
(-5.37105e-06 5.32691e-06 0)
(-4.61604e-06 4.6905e-06 0)
(-1.38521e-06 1.54878e-06 0)
(2.57626e-06 -2.39828e-06 0)
(5.10722e-06 -5.02367e-06 0)
(4.83114e-06 -4.93703e-06 0)
(1.93677e-06 -2.24839e-06 0)
(-1.93193e-06 1.51757e-06 0)
(-4.6106e-06 4.28824e-06 0)
(-4.65567e-06 4.6129e-06 0)
(-2.14816e-06 2.43769e-06 0)
(1.38287e-06 -9.19674e-07 0)
(3.89737e-06 -3.58693e-06 0)
(4.05441e-06 -4.2115e-06 0)
(1.99376e-06 -2.68124e-06 0)
(-8.22245e-07 -5.32968e-08 0)
(-2.59994e-06 2.16892e-06 0)
(-2.44874e-06 2.83678e-06 0)
(-9.01132e-07 1.68325e-06 0)
(-1.5342e-06 4.80401e-07 0)
(4.27493e-07 3.51888e-06 0)
(-3.14444e-06 8.85639e-06 0)
(-5.65033e-06 1.84862e-06 0)
(-3.97669e-06 3.29338e-06 0)
(-3.59082e-06 3.20675e-06 0)
(-6.93965e-07 3.98257e-08 0)
(3.46722e-06 -4.1818e-06 0)
(6.4674e-06 -6.69802e-06 0)
(5.94611e-06 -5.61026e-06 0)
(1.5763e-06 -1.05692e-06 0)
(-4.37404e-06 4.60671e-06 0)
(-8.29763e-06 8.04038e-06 0)
(-7.50546e-06 6.93277e-06 0)
(-2.07198e-06 1.56055e-06 0)
(4.99982e-06 -5.15708e-06 0)
(9.47869e-06 -9.27489e-06 0)
(8.49635e-06 -8.18405e-06 0)
(2.39898e-06 -2.28452e-06 0)
(-5.33676e-06 5.12776e-06 0)
(-1.01353e-05 9.74258e-06 0)
(-9.08245e-06 8.79574e-06 0)
(-2.71521e-06 2.74562e-06 0)
(5.26357e-06 -4.95107e-06 0)
(1.01935e-05 -9.86282e-06 0)
(9.22798e-06 -9.18095e-06 0)
(2.99965e-06 -3.34833e-06 0)
(-4.81788e-06 4.2472e-06 0)
(-9.72186e-06 9.28128e-06 0)
(-9.0183e-06 8.9954e-06 0)
(-3.30382e-06 3.71454e-06 0)
(4.01059e-06 -3.44851e-06 0)
(8.77855e-06 -8.46507e-06 0)
(8.49555e-06 -8.68302e-06 0)
(3.60436e-06 -4.22389e-06 0)
(-2.95093e-06 2.25093e-06 0)
(-7.52274e-06 7.15211e-06 0)
(-7.80434e-06 7.96645e-06 0)
(-3.96078e-06 4.52274e-06 0)
(1.67418e-06 -1.09478e-06 0)
(6.03227e-06 -5.82235e-06 0)
(6.97822e-06 -7.28829e-06 0)
(4.31295e-06 -4.97224e-06 0)
(-3.28217e-07 -3.06904e-07 0)
(-4.48059e-06 4.20816e-06 0)
(-6.14281e-06 6.33459e-06 0)
(-4.69069e-06 5.1667e-06 0)
(-1.03843e-06 1.46641e-06 0)
(2.92673e-06 -2.82239e-06 0)
(5.29154e-06 -5.57461e-06 0)
(4.99336e-06 -5.50303e-06 0)
(2.262e-06 -2.73188e-06 0)
(-1.52964e-06 1.30749e-06 0)
(-4.52031e-06 4.59075e-06 0)
(-5.23851e-06 5.48702e-06 0)
(-3.31609e-06 3.56009e-06 0)
(3.00467e-07 -2.04766e-07 0)
(3.78179e-06 -3.87849e-06 0)
(5.32048e-06 -5.56143e-06 0)
(4.07959e-06 -4.3714e-06 0)
(6.76619e-07 -9.28938e-07 0)
(-3.09459e-06 2.94611e-06 0)
(-5.20441e-06 5.19216e-06 0)
(-4.50008e-06 4.6205e-06 0)
(-1.36613e-06 1.56812e-06 0)
(2.46508e-06 -2.28219e-06 0)
(4.87746e-06 -4.83765e-06 0)
(4.56464e-06 -4.7536e-06 0)
(1.77061e-06 -2.16934e-06 0)
(-1.8723e-06 1.41326e-06 0)
(-4.29983e-06 4.00611e-06 0)
(-4.22257e-06 4.27121e-06 0)
(-1.84211e-06 2.22717e-06 0)
(1.32259e-06 -8.37629e-07 0)
(3.4147e-06 -3.19129e-06 0)
(3.38255e-06 -3.66802e-06 0)
(1.57874e-06 -2.28016e-06 0)
(-6.19795e-07 -7.62578e-08 0)
(-1.92836e-06 1.53029e-06 0)
(-2.07695e-06 1.64113e-06 0)
(-2.46099e-06 9.48833e-07 0)
(-1.4461e-06 3.54237e-06 0)
(9.87061e-07 7.15063e-06 0)
(-3.60077e-06 9.56253e-07 0)
(-1.36384e-06 2.9796e-06 0)
(-4.49934e-06 5.33897e-06 0)
(-4.46458e-06 4.09709e-06 0)
(-1.00746e-06 1.23325e-09 0)
(3.9754e-06 -4.7335e-06 0)
(7.26017e-06 -7.35726e-06 0)
(6.40239e-06 -6.00281e-06 0)
(1.44064e-06 -1.01335e-06 0)
(-4.90292e-06 4.96763e-06 0)
(-8.78512e-06 8.41844e-06 0)
(-7.61082e-06 7.06809e-06 0)
(-1.76909e-06 1.40586e-06 0)
(5.44155e-06 -5.43011e-06 0)
(9.71645e-06 -9.42826e-06 0)
(8.36905e-06 -8.10192e-06 0)
(2.03466e-06 -2.0573e-06 0)
(-5.63122e-06 5.28335e-06 0)
(-1.01127e-05 9.66157e-06 0)
(-8.74526e-06 8.50441e-06 0)
(-2.31639e-06 2.45365e-06 0)
(5.40749e-06 -5.00304e-06 0)
(9.94143e-06 -9.58994e-06 0)
(8.72929e-06 -8.73573e-06 0)
(2.5993e-06 -3.03085e-06 0)
(-4.82078e-06 4.19412e-06 0)
(-9.2919e-06 8.85067e-06 0)
(-8.42272e-06 8.43976e-06 0)
(-2.93977e-06 3.39021e-06 0)
(3.88437e-06 -3.31632e-06 0)
(8.22252e-06 -7.93864e-06 0)
(7.85725e-06 -8.08223e-06 0)
(3.29345e-06 -3.92618e-06 0)
(-2.73084e-06 2.05151e-06 0)
(-6.9075e-06 6.57027e-06 0)
(-7.18086e-06 7.35426e-06 0)
(-3.71734e-06 4.24849e-06 0)
(1.39413e-06 -8.74845e-07 0)
(5.41365e-06 -5.25489e-06 0)
(6.40752e-06 -6.72365e-06 0)
(4.13019e-06 -4.74445e-06 0)
(-3.57713e-08 -5.34643e-07 0)
(-3.91633e-06 3.67946e-06 0)
(-5.65742e-06 5.82341e-06 0)
(-4.55996e-06 4.95719e-06 0)
(-1.30556e-06 1.64716e-06 0)
(2.45312e-06 -2.39008e-06 0)
(4.89905e-06 -5.15394e-06 0)
(4.8872e-06 -5.32028e-06 0)
(2.45943e-06 -2.85748e-06 0)
(-1.17937e-06 9.74038e-07 0)
(-4.22275e-06 4.2408e-06 0)
(-5.13172e-06 5.28956e-06 0)
(-3.4129e-06 3.5832e-06 0)
(8.67257e-08 -4.81042e-09 0)
(3.56585e-06 -3.61319e-06 0)
(5.18384e-06 -5.34955e-06 0)
(4.05185e-06 -4.29471e-06 0)
(7.51243e-07 -1.01385e-06 0)
(-2.94117e-06 2.72968e-06 0)
(-5.01146e-06 4.92333e-06 0)
(-4.33183e-06 4.40958e-06 0)
(-1.30559e-06 1.52017e-06 0)
(2.35353e-06 -2.11824e-06 0)
(4.60221e-06 -4.51181e-06 0)
(4.23612e-06 -4.41533e-06 0)
(1.56901e-06 -2.00824e-06 0)
(-1.79314e-06 1.26993e-06 0)
(-3.92446e-06 3.58466e-06 0)
(-3.72602e-06 3.7707e-06 0)
(-1.52237e-06 1.93577e-06 0)
(1.22337e-06 -6.99883e-07 0)
(2.90017e-06 -2.62197e-06 0)
(2.75102e-06 -2.93416e-06 0)
(1.21553e-06 -1.81887e-06 0)
(-6.39471e-07 -2.53764e-07 0)
(-2.00502e-06 7.57168e-07 0)
(-1.9244e-06 7.30125e-07 0)
(-2.17982e-06 1.67484e-06 0)
(4.91323e-06 6.06538e-07 0)
(1.07537e-06 -9.37703e-07 0)
(2.42205e-06 6.90409e-07 0)
(-2.91517e-06 4.37429e-06 0)
(-6.07981e-06 5.96031e-06 0)
(-5.28233e-06 4.35838e-06 0)
(-8.72426e-07 -2.33308e-08 0)
(4.66548e-06 -5.03223e-06 0)
(7.91016e-06 -7.70803e-06 0)
(6.59198e-06 -6.14668e-06 0)
(1.13446e-06 -8.74318e-07 0)
(-5.40137e-06 5.23975e-06 0)
(-9.08037e-06 8.58705e-06 0)
(-7.49645e-06 7.00482e-06 0)
(-1.35789e-06 1.18688e-06 0)
(5.8185e-06 -5.59298e-06 0)
(9.76307e-06 -9.36481e-06 0)
(8.04444e-06 -7.82889e-06 0)
(1.58389e-06 -1.77914e-06 0)
(-5.85802e-06 5.32452e-06 0)
(-9.92007e-06 9.37708e-06 0)
(-8.24426e-06 8.0478e-06 0)
(-1.8552e-06 2.13256e-06 0)
(5.4868e-06 -4.93791e-06 0)
(9.55032e-06 -9.13271e-06 0)
(8.10722e-06 -8.15294e-06 0)
(2.1599e-06 -2.6999e-06 0)
(-4.76945e-06 4.03368e-06 0)
(-8.76159e-06 8.26657e-06 0)
(-7.74614e-06 7.7788e-06 0)
(-2.55506e-06 3.06413e-06 0)
(3.72206e-06 -3.09439e-06 0)
(7.60957e-06 -7.29489e-06 0)
(7.17913e-06 -7.40729e-06 0)
(2.97484e-06 -3.63207e-06 0)
(-2.49726e-06 1.78675e-06 0)
(-6.27794e-06 5.90941e-06 0)
(-6.55237e-06 6.69501e-06 0)
(-3.4716e-06 3.97621e-06 0)
(1.12638e-06 -6.18357e-07 0)
(4.81965e-06 -4.64516e-06 0)
(5.85868e-06 -6.13273e-06 0)
(3.94421e-06 -4.51061e-06 0)
(2.18695e-07 -7.68168e-07 0)
(-3.40861e-06 3.14155e-06 0)
(-5.21122e-06 5.30039e-06 0)
(-4.41928e-06 4.7296e-06 0)
(-1.51092e-06 1.80497e-06 0)
(2.05976e-06 -1.97406e-06 0)
(4.5545e-06 -4.72723e-06 0)
(4.76176e-06 -5.10294e-06 0)
(2.5769e-06 -2.9331e-06 0)
(-9.22581e-07 6.77015e-07 0)
(-3.97299e-06 3.88676e-06 0)
(-4.99432e-06 5.04271e-06 0)
(-3.41707e-06 3.53676e-06 0)
(-2.88783e-08 1.47904e-07 0)
(3.39226e-06 -3.33975e-06 0)
(5.00685e-06 -5.07378e-06 0)
(3.92589e-06 -4.13412e-06 0)
(7.30685e-07 -1.04622e-06 0)
(-2.82122e-06 2.49965e-06 0)
(-4.77037e-06 4.57975e-06 0)
(-4.06473e-06 4.10621e-06 0)
(-1.15732e-06 1.41815e-06 0)
(2.26463e-06 -1.9359e-06 0)
(4.27228e-06 -4.10471e-06 0)
(3.81279e-06 -3.98117e-06 0)
(1.29446e-06 -1.79387e-06 0)
(-1.71985e-06 1.10703e-06 0)
(-3.49e-06 3.08835e-06 0)
(-3.14893e-06 3.19509e-06 0)
(-1.14589e-06 1.62387e-06 0)
(1.14613e-06 -5.19654e-07 0)
(2.38245e-06 -2.00897e-06 0)
(2.04816e-06 -2.24327e-06 0)
(5.98949e-07 -1.43603e-06 0)
(-1.05876e-06 -2.35725e-07 0)
(-5.95614e-07 2.07807e-07 0)
(-1.63524e-06 -6.20831e-07 0)
(6.08185e-06 -6.66742e-06 0)
(5.6061e-06 -2.55022e-06 0)
(5.24376e-06 -2.24898e-06 0)
(4.37876e-07 7.10831e-07 0)
(-4.45603e-06 4.35581e-06 0)
(-6.89273e-06 6.2345e-06 0)
(-5.39059e-06 4.63462e-06 0)
(-4.3226e-07 -1.9837e-08 0)
(5.27657e-06 -5.22694e-06 0)
(8.26748e-06 -7.84338e-06 0)
(6.48329e-06 -6.05624e-06 0)
(6.83177e-07 -6.18785e-07 0)
(-5.83517e-06 5.43797e-06 0)
(-9.16135e-06 8.53516e-06 0)
(-7.15584e-06 6.70734e-06 0)
(-8.43467e-07 8.5862e-07 0)
(6.12037e-06 -5.68006e-06 0)
(9.60955e-06 -9.09206e-06 0)
(7.51927e-06 -7.3404e-06 0)
(1.04955e-06 -1.40256e-06 0)
(-6.01135e-06 5.30049e-06 0)
(-9.55281e-06 8.91542e-06 0)
(-7.57807e-06 7.41337e-06 0)
(-1.33253e-06 1.73351e-06 0)
(5.50051e-06 -4.8183e-06 0)
(9.01995e-06 -8.53485e-06 0)
(7.36119e-06 -7.43195e-06 0)
(1.67891e-06 -2.30747e-06 0)
(-4.66821e-06 3.83772e-06 0)
(-8.13425e-06 7.58572e-06 0)
(-6.9873e-06 7.02127e-06 0)
(-2.14262e-06 2.68971e-06 0)
(3.53326e-06 -2.86057e-06 0)
(6.94559e-06 -6.59985e-06 0)
(6.45826e-06 -6.67456e-06 0)
(2.63696e-06 -3.298e-06 0)
(-2.26399e-06 1.53631e-06 0)
(-5.64114e-06 5.24056e-06 0)
(-5.91353e-06 6.01098e-06 0)
(-3.20785e-06 3.66712e-06 0)
(8.87868e-07 -4.02693e-07 0)
(4.25755e-06 -4.065e-06 0)
(5.32391e-06 -5.54177e-06 0)
(3.73618e-06 -4.23787e-06 0)
(4.16755e-07 -9.35688e-07 0)
(-2.96369e-06 2.6641e-06 0)
(-4.7939e-06 4.79496e-06 0)
(-4.2477e-06 4.45909e-06 0)
(-1.63568e-06 1.87722e-06 0)
(1.75166e-06 -1.63865e-06 0)
(4.24596e-06 -4.32597e-06 0)