/*--------------------------------*- C++ -*----------------------------------*\
| =========                 |                                                 |
| \\      /  F ield         | OpenFOAM: The Open Source CFD Toolbox           |
|  \\    /   O peration     | Version:  2412                                  |
|   \\  /    A nd           | Website:  www.openfoam.com                      |
|    \\/     M anipulation  |                                                 |
\*---------------------------------------------------------------------------*/
FoamFile
{
    version     2.0;
    format      ascii;
    arch        "LSB;label=32;scalar=64";
    class       volVectorField;
    location    "2.15";
    object      U;
}
// * * * * * * * * * * * * * * * * * * * * * * * * * * * * * * * * * * * * * //

dimensions      [0 1 -1 0 0 0 0];

internalField   nonuniform List<vector> 
6400
(
(-0.000888262 0.000737747 0)
(-0.00190472 0.000361484 0)
(-0.00262654 0.000487613 0)
(-0.00370801 0.000506926 0)
(-0.00470014 0.000483974 0)
(-0.00563207 0.000448038 0)
(-0.00648926 0.000409029 0)
(-0.00724705 0.000342508 0)
(-0.00787253 0.000269809 0)
(-0.00833497 0.000179326 0)
(-0.00860929 7.0411e-05 0)
(-0.00865767 -4.76007e-05 0)
(-0.00845209 -0.00017142 0)
(-0.00800002 -0.000289588 0)
(-0.00732805 -0.000411993 0)
(-0.00634166 -0.000519347 0)
(-0.00505625 -0.000651245 0)
(-0.00353665 -0.000778824 0)
(-0.00174585 -0.000899337 0)
(0.000260481 -0.000998092 0)
(0.00244628 -0.00107118 0)
(0.00474505 -0.00112046 0)
(0.00710003 -0.00113302 0)
(0.00945088 -0.00110255 0)
(0.0117186 -0.0010329 0)
(0.0138178 -0.000924326 0)
(0.0156769 -0.000774768 0)
(0.0172273 -0.000600851 0)
(0.0184052 -0.000409759 0)
(0.0191712 -0.00021099 0)
(0.0194864 7.80888e-06 0)
(0.0193086 0.000267578 0)
(0.0185175 0.000560607 0)
(0.0171679 0.000838263 0)
(0.0153824 0.0010318 0)
(0.0132189 0.00113745 0)
(0.0108038 0.00113324 0)
(0.0082083 0.00106527 0)
(0.00545744 0.000996261 0)
(0.00266769 0.000956337 0)
(-0.000167703 0.000961958 0)
(-0.00302937 0.00101551 0)
(-0.00588535 0.00109104 0)
(-0.0087342 0.00118942 0)
(-0.0114525 0.0012576 0)
(-0.0140076 0.00121736 0)
(-0.0163178 0.00110062 0)
(-0.0182234 0.000890911 0)
(-0.0196239 0.000600283 0)
(-0.020416 0.000291545 0)
(-0.020605 3.24384e-05 0)
(-0.0202895 -0.000192451 0)
(-0.0195082 -0.000404468 0)
(-0.0182942 -0.000607966 0)
(-0.0166891 -0.000792808 0)
(-0.0147608 -0.000951702 0)
(-0.0125855 -0.0010709 0)
(-0.0102441 -0.00114331 0)
(-0.00781916 -0.00116882 0)
(-0.00539342 -0.00115324 0)
(-0.00304112 -0.00110096 0)
(-0.000814616 -0.00101879 0)
(0.0012388 -0.000918548 0)
(0.00309672 -0.000801802 0)
(0.00465284 -0.00068864 0)
(0.00593663 -0.000557065 0)
(0.00694765 -0.000448905 0)
(0.00765617 -0.000312682 0)
(0.00811987 -0.000171669 0)
(0.0083037 -3.51299e-05 0)
(0.0082223 9.5015e-05 0)
(0.00791164 0.000201901 0)
(0.00739891 0.000295166 0)
(0.00671526 0.000373595 0)
(0.00589511 0.000437458 0)
(0.00496373 0.000485646 0)
(0.00394046 0.00052621 0)
(0.00283795 0.00052997 0)
(0.00200482 0.000418826 0)
(0.000880707 0.000749267 0)
(-0.000903376 0.00223928 0)
(-0.00195305 0.00113156 0)
(-0.00270722 0.00150786 0)
(-0.00381835 0.00155476 0)
(-0.00484989 0.00148644 0)
(-0.00581883 0.0013868 0)
(-0.00672972 0.00125791 0)
(-0.00754009 0.00108186 0)
(-0.00821038 0.000863898 0)
(-0.00872915 0.000592262 0)
(-0.0090538 0.000268559 0)
(-0.00914584 -9.5277e-05 0)
(-0.00897599 -0.000497963 0)
(-0.00849916 -0.000921279 0)
(-0.00771121 -0.00135671 0)
(-0.00656362 -0.00175094 0)
(-0.00508398 -0.00219666 0)
(-0.0033093 -0.0025811 0)
(-0.00123609 -0.00295032 0)
(0.00107646 -0.00325588 0)
(0.00356063 -0.00348236 0)
(0.00615529 -0.00363048 0)
(0.0088151 -0.00367351 0)
(0.011474 -0.00360727 0)
(0.0140571 -0.00342769 0)
(0.0164978 -0.00313229 0)
(0.018716 -0.00272318 0)
(0.0206284 -0.00221357 0)
(0.0221637 -0.00161212 0)
(0.0232312 -0.000940437 0)
(0.0237815 -0.000197289 0)
(0.0237799 0.000603354 0)
(0.0232375 0.00143986 0)
(0.0221694 0.00226332 0)
(0.0205246 0.00299143 0)
(0.0182077 0.00360266 0)
(0.015296 0.00409577 0)
(0.0118795 0.004471 0)
(0.00798969 0.00472499 0)
(0.0037935 0.00487245 0)
(-0.000593627 0.00493387 0)
(-0.00499545 0.00492192 0)
(-0.00918777 0.00480633 0)
(-0.0130594 0.00457321 0)
(-0.0164956 0.00422425 0)
(-0.0193913 0.00371393 0)
(-0.0216611 0.00308746 0)
(-0.0232871 0.0023351 0)
(-0.0243244 0.00149096 0)
(-0.02483 0.000619644 0)
(-0.0247941 -0.000208257 0)
(-0.024178 -0.00097171 0)
(-0.0230226 -0.00167228 0)
(-0.0213949 -0.00229464 0)
(-0.0193781 -0.00282359 0)
(-0.0170554 -0.00324773 0)
(-0.0145139 -0.0035509 0)
(-0.0118317 -0.00372683 0)
(-0.00908375 -0.00378265 0)
(-0.00634493 -0.00372526 0)
(-0.00368381 -0.00356654 0)
(-0.00116209 -0.00331817 0)
(0.00116725 -0.00299382 0)
(0.00326036 -0.00261569 0)
(0.0050173 -0.00222885 0)
(0.00643657 -0.00177382 0)
(0.00752059 -0.0013562 0)
(0.00823997 -0.000902354 0)
(0.00866544 -0.00046032 0)
(0.00880464 -4.81578e-05 0)
(0.00866832 0.000326113 0)
(0.00829771 0.000658216 0)
(0.00773352 0.00093234 0)
(0.00699797 0.00116997 0)
(0.00612476 0.00135766 0)
(0.00514676 0.00150438 0)
(0.00408176 0.00161891 0)
(0.00293536 0.00162088 0)
(0.00207145 0.00129241 0)
(0.000911913 0.00229515 0)
(-0.000929535 0.00377042 0)
(-0.00197144 0.00191287 0)
(-0.00270072 0.00254948 0)
(-0.00382622 0.00263224 0)
(-0.00487931 0.00252281 0)
(-0.00588006 0.00236755 0)
(-0.00682527 0.00215272 0)
(-0.00768022 0.00187266 0)
(-0.0084077 0.00150731 0)
(-0.00898327 0.00104708 0)
(-0.00935994 0.000507216 0)
(-0.00949985 -0.000115815 0)
(-0.00937117 -0.000811525 0)
(-0.00894208 -0.0015618 0)
(-0.00819028 -0.002336 0)
(-0.00712886 -0.00308371 0)
(-0.00572416 -0.00383627 0)
(-0.0040024 -0.00451267 0)
(-0.00199932 -0.00515384 0)
(0.000289128 -0.00568838 0)
(0.00276947 -0.00608302 0)
(0.00538408 -0.00633316 0)
(0.00808314 -0.00641851 0)
(0.0107911 -0.00632811 0)
(0.0134341 -0.00604792 0)
(0.0159287 -0.00557053 0)
(0.0181935 -0.00490074 0)
(0.0201484 -0.00404584 0)
(0.0217118 -0.00301564 0)
(0.0228122 -0.00183433 0)
(0.023391 -0.000537427 0)
(0.023397 0.000827443 0)
(0.0228115 0.00221586 0)
(0.0216453 0.00359384 0)
(0.019908 0.00495376 0)
(0.0175957 0.0062215 0)
(0.014784 0.00737412 0)
(0.0114802 0.00833653 0)
(0.00773547 0.00904547 0)
(0.0037298 0.00948383 0)
(-0.000429304 0.0096366 0)
(-0.00460443 0.0095035 0)
(-0.00863021 0.00909011 0)
(-0.0123773 0.00838615 0)
(-0.0157209 0.00743623 0)
(-0.0186028 0.00630506 0)
(-0.0209553 0.00503924 0)
(-0.0227278 0.00366571 0)
(-0.0239065 0.0022457 0)
(-0.0244879 0.00081152 0)
(-0.0244527 -0.000605252 0)
(-0.0238277 -0.0019471 0)
(-0.0226682 -0.00316913 0)
(-0.0210317 -0.00422371 0)
(-0.0189956 -0.00510064 0)
(-0.0166385 -0.00578451 0)
(-0.0140491 -0.00625839 0)
(-0.0113188 -0.00653072 0)
(-0.00852847 -0.00660487 0)
(-0.00575849 -0.00649224 0)
(-0.00308288 -0.0062102 0)
(-0.000555451 -0.00577853 0)
(0.00175586 -0.00521259 0)
(0.00378751 -0.00454803 0)
(0.00551136 -0.00383738 0)
(0.00689636 -0.00305114 0)
(0.00793964 -0.00226209 0)
(0.00865874 -0.00147328 0)
(0.00906146 -0.000721436 0)
(0.00916466 -1.25878e-05 0)
(0.00899374 0.000610316 0)
(0.00857172 0.00115644 0)
(0.00795251 0.00162163 0)
(0.00717412 0.00200518 0)
(0.00625209 0.00232159 0)
(0.00523483 0.00256368 0)
(0.00413815 0.002747 0)
(0.0029734 0.00274062 0)
(0.00211846 0.00218121 0)
(0.000944319 0.00389558 0)
(-0.000991172 0.0053434 0)
(-0.0020513 0.00266423 0)
(-0.00274675 0.00359288 0)
(-0.00390019 0.0037344 0)
(-0.00500445 0.00359512 0)
(-0.00606949 0.0033957 0)
(-0.0070936 0.00310747 0)
(-0.00803963 0.00272444 0)
(-0.00887522 0.00220739 0)
(-0.00955511 0.00157173 0)
(-0.0100295 0.00080666 0)
(-0.0102616 -8.11102e-05 0)
(-0.0102018 -0.00107532 0)
(-0.00981708 -0.00214408 0)
(-0.00908011 -0.00325021 0)
(-0.00799528 -0.00434648 0)
(-0.00655043 -0.00539716 0)
(-0.00478454 -0.00641568 0)
(-0.00269344 -0.00732297 0)
(-0.00026121 -0.00810094 0)
(0.00238604 -0.00869877 0)
(0.00517553 -0.00907609 0)
(0.00806491 -0.00921907 0)
(0.0109789 -0.00910544 0)
(0.0138351 -0.00871882 0)
(0.0165419 -0.00804703 0)
(0.0190029 -0.00709121 0)
(0.021133 -0.00586756 0)
(0.0228482 -0.00440163 0)
(0.0240652 -0.00271832 0)
(0.024728 -0.000864761 0)
(0.0247796 0.0010987 0)
(0.0241629 0.00310349 0)
(0.0229169 0.00511532 0)
(0.0210411 0.00710016 0)
(0.0185188 0.0089157 0)
(0.0154718 0.0105426 0)
(0.0119604 0.0118436 0)
(0.00806947 0.0128243 0)
(0.00393421 0.0134373 0)
(-0.000356667 0.0136722 0)
(-0.00466003 0.0135094 0)
(-0.00883361 0.0129313 0)
(-0.0127871 0.0119869 0)
(-0.0163809 0.010672 0)
(-0.0195049 0.00905092 0)
(-0.0220869 0.00721283 0)
(-0.0240452 0.00523318 0)
(-0.025331 0.00316395 0)
(-0.0259359 0.00108239 0)
(-0.0258658 -0.000948757 0)
(-0.0251657 -0.00286801 0)
(-0.023879 -0.00460179 0)
(-0.0220801 -0.00612011 0)
(-0.0198612 -0.00737684 0)
(-0.0172932 -0.00834548 0)
(-0.0144804 -0.009023 0)
(-0.0115249 -0.00940203 0)
(-0.00851096 -0.00949128 0)
(-0.00553257 -0.00931105 0)
(-0.0026683 -0.00888182 0)
(2.39223e-05 -0.0082356 0)
(0.00247217 -0.00741371 0)
(0.00459708 -0.006458 0)
(0.00638014 -0.0053966 0)
(0.00780721 -0.00429517 0)
(0.00886004 -0.00315231 0)
(0.0095515 -0.00201992 0)
(0.00991397 -0.000946238 0)
(0.0099457 4.60537e-05 0)
(0.009666 0.000937436 0)
(0.00914823 0.00172909 0)
(0.00843186 0.00238707 0)
(0.00756078 0.0029137 0)
(0.00655846 0.00333524 0)
(0.00545817 0.00367025 0)
(0.00429955 0.003915 0)
(0.00307977 0.00387993 0)
(0.00221715 0.00306893 0)
(0.00100692 0.00555328 0)
(-0.00106929 0.00700397 0)
(-0.00214672 0.0033767 0)
(-0.00279787 0.00465006 0)
(-0.00398344 0.00487969 0)
(-0.00514892 0.00473895 0)
(-0.00630183 0.00451237 0)
(-0.00743165 0.00418081 0)
(-0.00851166 0.00371106 0)
(-0.0094881 0.00305492 0)
(-0.0103102 0.00223372 0)
(-0.0109386 0.00122789 0)
(-0.0113069 3.02194e-05 0)
(-0.0113601 -0.00128292 0)
(-0.0110436 -0.00269145 0)
(-0.0103184 -0.00415144 0)
(-0.0092008 -0.00562652 0)
(-0.00771833 -0.00707359 0)
(-0.00585315 -0.0084297 0)
(-0.00361121 -0.00965299 0)
(-0.00101694 -0.0107069 0)
(0.00185832 -0.0115303 0)
(0.00492006 -0.0120662 0)
(0.00809872 -0.0122854 0)
(0.0113217 -0.0121585 0)
(0.0145038 -0.0116643 0)
(0.0175441 -0.0107976 0)
(0.0203315 -0.00956149 0)
(0.0227621 -0.00795641 0)
(0.0247476 -0.0060178 0)
(0.0261996 -0.00378889 0)
(0.0270353 -0.00131367 0)
(0.02718 0.00129257 0)
(0.0266072 0.00402665 0)
(0.0253427 0.00676988 0)
(0.0233185 0.00942973 0)
(0.0205859 0.0118543 0)
(0.0172417 0.0140421 0)
(0.0133442 0.0158315 0)
(0.00903223 0.0171539 0)
(0.0044331 0.0180053 0)
(-0.000314013 0.018301 0)
(-0.00511584 0.0180938 0)
(-0.00976558 0.0173204 0)
(-0.0141451 0.0160295 0)
(-0.0181314 0.0142395 0)
(-0.0215764 0.012071 0)
(-0.0243731 0.00957456 0)
(-0.0264788 0.00687355 0)
(-0.0278351 0.00410108 0)
(-0.0284136 0.00129322 0)
(-0.0282381 -0.00143225 0)
(-0.0273475 -0.00398912 0)
(-0.025828 -0.0063028 0)
(-0.0237538 -0.00831162 0)
(-0.0212005 -0.00996563 0)
(-0.0182955 -0.0112259 0)
(-0.0151424 -0.0120945 0)
(-0.0118411 -0.0125637 0)
(-0.00850438 -0.012653 0)
(-0.00522416 -0.0123827 0)
(-0.00208249 -0.0117768 0)
(0.000842131 -0.010881 0)
(0.00346401 -0.00977688 0)
(0.00573203 -0.00846822 0)
(0.00760038 -0.00705735 0)
(0.00906855 -0.00554824 0)
(0.0101443 -0.00403492 0)
(0.0107926 -0.00252847 0)
(0.0110551 -0.00108912 0)
(0.0109792 0.000216434 0)
(0.0106084 0.00139098 0)
(0.00995181 0.00242529 0)
(0.00906973 0.00327364 0)
(0.00805795 0.00394738 0)
(0.00694141 0.00446335 0)
(0.00574514 0.00486815 0)
(0.0044925 0.00515893 0)
(0.0032066 0.0050798 0)
(0.00234846 0.00396442 0)
(0.00109027 0.00731704 0)
(-0.00117775 0.00878344 0)
(-0.00225775 0.00405733 0)
(-0.00282789 0.00572145 0)
(-0.00404296 0.00608421 0)
(-0.00528265 0.00597161 0)
(-0.00653852 0.00574977 0)
(-0.00780897 0.00539895 0)
(-0.00907391 0.00483652 0)
(-0.0102569 0.00407169 0)
(-0.0112848 0.00305073 0)
(-0.0121346 0.00178112 0)
(-0.0126728 0.000275397 0)
(-0.0128244 -0.00138874 0)
(-0.0125884 -0.00317709 0)
(-0.0119177 -0.00505436 0)
(-0.0108183 -0.00696039 0)
(-0.00925149 -0.00882871 0)
(-0.00725686 -0.0105833 0)
(-0.00485756 -0.0121722 0)
(-0.0020207 -0.013535 0)
(0.00115086 -0.0146432 0)
(0.00455121 -0.0153679 0)
(0.00810928 -0.0156995 0)
(0.0117434 -0.0155824 0)
(0.0153446 -0.0150064 0)
(0.0188 -0.0139441 0)
(0.0220082 -0.0124038 0)
(0.0248495 -0.0103943 0)
(0.0272023 -0.00793916 0)
(0.0289698 -0.00509791 0)
(0.0300208 -0.00197934 0)
(0.0303366 0.00138644 0)
(0.0298621 0.0049558 0)
(0.0285416 0.00850412 0)
(0.0263409 0.0119391 0)
(0.0233386 0.0151167 0)
(0.0196401 0.0179205 0)
(0.0152412 0.0202529 0)
(0.0103699 0.0219592 0)
(0.00514136 0.0230698 0)
(-0.000282314 0.0234547 0)
(-0.00572638 0.023207 0)
(-0.0110251 0.0222024 0)
(-0.0160219 0.0205619 0)
(-0.0205039 0.018239 0)
(-0.0243434 0.0154141 0)
(-0.0274624 0.0121709 0)
(-0.0297103 0.00864891 0)
(-0.0311073 0.0050192 0)
(-0.0316549 0.00140566 0)
(-0.0313228 -0.00210122 0)
(-0.0301973 -0.00537112 0)
(-0.0283524 -0.00831688 0)
(-0.025886 -0.010845 0)
(-0.0229109 -0.0129143 0)
(-0.0195535 -0.0145041 0)
(-0.0159492 -0.0155605 0)
(-0.0122118 -0.0161134 0)
(-0.00845539 -0.0161789 0)
(-0.00477855 -0.015777 0)
(-0.00127962 -0.01497 0)
(0.00192183 -0.0137569 0)
(0.00478635 -0.0123103 0)
(0.00721742 -0.0106331 0)
(0.00920185 -0.00879199 0)
(0.0107346 -0.00685588 0)
(0.0117855 -0.00491117 0)
(0.0123997 -0.00299507 0)
(0.0125607 -0.00114367 0)
(0.0123315 0.000536609 0)
(0.0117826 0.00201525 0)
(0.0109408 0.00326888 0)
(0.00986866 0.00430958 0)
(0.00866955 0.00512154 0)
(0.00739267 0.00572928 0)
(0.00606419 0.00617062 0)
(0.0047111 0.00648113 0)
(0.00333716 0.00633075 0)
(0.00249673 0.00485009 0)
(0.00120379 0.00921642 0)
(-0.00131844 0.010713 0)
(-0.00238982 0.00466069 0)
(-0.00282698 0.00680065 0)
(-0.00405862 0.00734253 0)
(-0.00537035 0.00729231 0)
(-0.00675747 0.0071335 0)
(-0.00823359 0.00679895 0)
(-0.00972116 0.00620568 0)
(-0.0111521 0.00532919 0)
(-0.0124739 0.00409817 0)
(-0.0135832 0.00254363 0)
(-0.0143447 0.000728028 0)
(-0.0146792 -0.00134026 0)
(-0.0145759 -0.00360529 0)
(-0.0139669 -0.00597064 0)
(-0.012839 -0.00835182 0)
(-0.0112001 -0.0106826 0)
(-0.0090488 -0.0129353 0)
(-0.00640737 -0.0149209 0)
(-0.00332599 -0.0166551 0)
(0.000193688 -0.0180914 0)
(0.00403879 -0.0190641 0)
(0.00806548 -0.0195389 0)
(0.0122037 -0.019484 0)
(0.0163382 -0.0188514 0)
(0.0203505 -0.0175977 0)
(0.0240954 -0.0157389 0)
(0.0274519 -0.013284 0)
(0.0302829 -0.0102794 0)
(0.0324174 -0.00677939 0)
(0.0337921 -0.00287781 0)
(0.034389 0.00138891 0)
(0.0339996 0.00586963 0)
(0.032603 0.0103402 0)
(0.0302141 0.0146842 0)
(0.026862 0.0187665 0)
(0.0226582 0.0223081 0)
(0.0176405 0.0252748 0)
(0.0120522 0.0274593 0)
(0.0060463 0.0288801 0)
(-0.000189958 0.029394 0)
(-0.00649246 0.0290763 0)
(-0.0126039 0.0277973 0)
(-0.018349 0.0256857 0)
(-0.0235246 0.0227417 0)
(-0.0278855 0.0191524 0)
(-0.0313785 0.0150324 0)
(-0.0338694 0.0105649 0)
(-0.0353179 0.00592244 0)
(-0.0357682 0.00134444 0)
(-0.0352374 -0.00301784 0)
(-0.0337717 -0.00709816 0)
(-0.0314978 -0.0107356 0)
(-0.0285364 -0.0138513 0)
(-0.0250369 -0.0163834 0)
(-0.0211157 -0.0182714 0)
(-0.0169245 -0.0195287 0)
(-0.0126287 -0.0201421 0)
(-0.00833319 -0.0201398 0)
(-0.00417501 -0.0195719 0)
(-0.000214573 -0.0184965 0)
(0.00335781 -0.0169303 0)
(0.00644856 -0.0150632 0)
(0.00911448 -0.0129765 0)
(0.0112448 -0.0106092 0)
(0.0128224 -0.00820417 0)
(0.0138804 -0.00574701 0)
(0.0144312 -0.00336563 0)
(0.0144553 -0.0010577 0)
(0.0140128 0.00102256 0)
(0.0132205 0.0028357 0)
(0.0121313 0.00435093 0)
(0.0108139 0.00557231 0)
(0.00937271 0.00650667 0)
(0.00787942 0.00715649 0)
(0.00638544 0.00760984 0)
(0.00492354 0.00790374 0)
(0.0034535 0.0076049 0)
(0.00267593 0.00574075 0)
(0.00136241 0.0112854 0)
(-0.00152134 0.0128301 0)
(-0.00254222 0.00513889 0)
(-0.0027636 0.00780028 0)
(-0.00399947 0.00860621 0)
(-0.00535033 0.0087113 0)
(-0.006882 0.00868596 0)
(-0.00859364 0.00845422 0)
(-0.0103942 0.0079019 0)
(-0.0122072 0.00687578 0)
(-0.0139048 0.00545358 0)
(-0.0153353 0.00360191 0)
(-0.0163823 0.00138466 0)
(-0.0169798 -0.00116658 0)
(-0.0170412 -0.0039397 0)
(-0.0164831 -0.00682894 0)
(-0.0153446 -0.00976478 0)
(-0.0136439 -0.0126645 0)
(-0.0112948 -0.015461 0)
(-0.0083659 -0.0179518 0)
(-0.00496959 -0.0201661 0)
(-0.00102649 -0.0219402 0)
(0.00334329 -0.023243 0)
(0.00793606 -0.023924 0)
(0.0126875 -0.0239585 0)
(0.0174981 -0.0232518 0)
(0.0221895 -0.0218283 0)
(0.026614 -0.0196435 0)
(0.030619 -0.0167202 0)
(0.0340346 -0.0130957 0)
(0.0367162 -0.00890238 0)
(0.0385449 -0.00403827 0)
(0.0394418 0.00121779 0)
(0.0391644 0.00674162 0)
(0.0377032 0.0123284 0)
(0.0351187 0.0177458 0)
(0.0313154 0.0228552 0)
(0.0264749 0.0273203 0)
(0.0207012 0.0310613 0)
(0.0142214 0.0337794 0)
(0.00722287 0.0355824 0)
(-8.35397e-05 0.0362191 0)
(-0.00744483 0.0358798 0)
(-0.0146009 0.0343156 0)
(-0.0213268 0.0316517 0)
(-0.0273226 0.0280067 0)
(-0.0323413 0.0234201 0)
(-0.0363337 0.0182346 0)
(-0.0391159 0.0126417 0)
(-0.0406373 0.00683588 0)
(-0.0409091 0.00112665 0)
(-0.0400692 -0.00429392 0)
(-0.0382027 -0.00923328 0)
(-0.0353783 -0.0136778 0)
(-0.0317889 -0.0174486 0)
(-0.0275737 -0.0204564 0)
(-0.0229357 -0.0226912 0)
(-0.018051 -0.0241364 0)
(-0.0130461 -0.0247804 0)
(-0.00810138 -0.0246701 0)
(-0.00334624 -0.0238673 0)
(0.00115778 -0.0224302 0)
(0.00516131 -0.0204749 0)
(0.0085549 -0.0181123 0)
(0.011492 -0.0154537 0)
(0.0137997 -0.0125669 0)
(0.0154271 -0.00954583 0)
(0.0164567 -0.00651866 0)
(0.0169192 -0.00358276 0)
(0.0167806 -0.000817127 0)
(0.0160651 0.00174342 0)
(0.0149565 0.00393127 0)
(0.0135296 0.00573945 0)
(0.0118846 0.00714254 0)
(0.0101198 0.00813513 0)
(0.00835232 0.00879189 0)
(0.00667132 0.00919715 0)
(0.00508283 0.00942076 0)
(0.00355098 0.00889682 0)
(0.00290412 0.00658746 0)
(0.00155987 0.0135588 0)
(-0.00181237 0.0151884 0)
(-0.00278501 0.00544107 0)
(-0.0026511 0.00866614 0)
(-0.00376825 0.00988029 0)
(-0.0051206 0.0102322 0)
(-0.00682129 0.0104425 0)
(-0.00883634 0.0104098 0)
(-0.0111075 0.00990625 0)
(-0.0133953 0.00887415 0)
(-0.0155331 0.00727567 0)
(-0.0174311 0.00505282 0)
(-0.0188857 0.00237494 0)
(-0.0197705 -0.000773815 0)
(-0.020001 -0.00411795 0)
(-0.0195482 -0.0076986 0)
(-0.0184217 -0.0112757 0)
(-0.0166343 -0.0147866 0)
(-0.0140608 -0.0181915 0)
(-0.0108232 -0.021313 0)
(-0.00701079 -0.0240638 0)
(-0.00256408 -0.0263145 0)
(0.00238457 -0.0280097 0)
(0.00768833 -0.0289662 0)
(0.013224 -0.0291153 0)
(0.0188278 -0.0284194 0)
(0.0243389 -0.0268339 0)
(0.0296076 -0.0243187 0)
(0.0344285 -0.0208923 0)
(0.0385605 -0.0166303 0)
(0.0419489 -0.0115276 0)
(0.0443906 -0.0056369 0)
(0.0456545 0.000767428 0)
(0.0455937 0.0075492 0)
(0.0440925 0.014446 0)
(0.041232 0.0212248 0)
(0.0369016 0.0275397 0)
(0.0313013 0.0331997 0)
(0.0245123 0.037816 0)
(0.0169119 0.041267 0)
(0.0086812 0.0435163 0)
(0.000127045 0.0443545 0)
(-0.00854119 0.0439034 0)
(-0.0170687 0.041946 0)
(-0.0249625 0.0386488 0)
(-0.0321143 0.0340711 0)
(-0.0380469 0.0283671 0)
(-0.0425602 0.0218502 0)
(-0.0456791 0.014891 0)
(-0.0472561 0.00771674 0)
(-0.0473317 0.000689794 0)
(-0.0460161 -0.00601007 0)
(-0.0435533 -0.0119954 0)
(-0.040088 -0.0173261 0)
(-0.0356695 -0.0217988 0)
(-0.0306113 -0.0253369 0)
(-0.0251063 -0.0279127 0)
(-0.0193096 -0.0295079 0)
(-0.0134484 -0.0301672 0)
(-0.00770104 -0.0299087 0)
(-0.00221222 -0.0287915 0)
(0.00290957 -0.0269042 0)
(0.00742165 -0.0244438 0)
(0.0112272 -0.021463 0)
(0.0144255 -0.0181472 0)
(0.0169269 -0.014626 0)
(0.0186521 -0.0109555 0)
(0.0196281 -0.00727488 0)
(0.0199173 -0.00365465 0)
(0.0195727 -0.000309571 0)
(0.0185599 0.00274789 0)
(0.017021 0.00538702 0)
(0.0151561 0.0075 0)
(0.0130347 0.00905852 0)
(0.0108556 0.0101011 0)
(0.008764 0.0107057 0)
(0.00684725 0.0109733 0)
(0.00514336 0.0110184 0)
(0.00360883 0.0101546 0)
(0.00319257 0.00728266 0)
(0.00182248 0.0160806 0)
(-0.00222521 0.0178809 0)
(-0.00314957 0.00535852 0)
(-0.00244244 0.00923068 0)
(-0.00329042 0.0110686 0)
(-0.00458676 0.0118473 0)
(-0.00646162 0.012464 0)
(-0.00890306 0.0127558 0)
(-0.0116888 0.0124769 0)
(-0.0145777 0.0114706 0)
(-0.017449 0.00960113 0)
(-0.0199481 0.00696873 0)
(-0.021913 0.0037322 0)
(-0.0231672 -1.8525e-05 0)
(-0.0236511 -0.00419418 0)
(-0.0233148 -0.00849149 0)
(-0.022094 -0.0128659 0)
(-0.020206 -0.0170858 0)
(-0.017449 -0.0212049 0)
(-0.0138467 -0.0250656 0)
(-0.00955893 -0.0284425 0)
(-0.00453781 -0.0313031 0)
(0.0011421 -0.0334894 0)
(0.00728925 -0.0347987 0)
(0.0137037 -0.0351481 0)
(0.0202663 -0.0345044 0)
(0.0268057 -0.0327785 0)
(0.0331072 -0.0299413 0)
(0.0388955 -0.0259932 0)
(0.0440149 -0.0209921 0)
(0.048342 -0.0148785 0)
(0.0514942 -0.00781251 0)
(0.0533066 -0.000115049 0)
(0.0535277 0.00823069 0)
(0.0520701 0.0167458 0)
(0.0489124 0.0251264 0)
(0.0439538 0.0329051 0)
(0.0373907 0.0399151 0)
(0.0293456 0.045714 0)
(0.0203638 0.0500603 0)
(0.0105635 0.0528719 0)
(0.000333304 0.0537752 0)
(-0.0100571 0.0534593 0)
(-0.0201927 0.0510879 0)
(-0.0296351 0.0469632 0)
(-0.0380918 0.0411655 0)
(-0.045105 0.0340854 0)
(-0.0503969 0.0260279 0)
(-0.0538527 0.0173304 0)
(-0.0554454 0.00847301 0)
(-0.055234 -0.00010886 0)
(-0.0533375 -0.00823918 0)
(-0.0500799 -0.0155979 0)
(-0.0457006 -0.0218592 0)
(-0.0402761 -0.0271221 0)
(-0.0341242 -0.0312139 0)
(-0.0275145 -0.0341147 0)
(-0.0206921 -0.0358443 0)
(-0.0138239 -0.0364448 0)
(-0.00710115 -0.0359589 0)
(-0.000709874 -0.0344498 0)
(0.00515454 -0.0320283 0)
(0.0102707 -0.0288771 0)
(0.0145396 -0.0252054 0)
(0.0180304 -0.0211157 0)
(0.0207043 -0.0168065 0)
(0.0225051 -0.012393 0)
(0.0234909 -0.00790826 0)
(0.023621 -0.00356812 0)
(0.0229269 0.000587035 0)
(0.0215139 0.00419581 0)
(0.0194693 0.00732108 0)
(0.0169722 0.00978857 0)
(0.0142716 0.0115178 0)
(0.0115633 0.0125619 0)
(0.00900863 0.0129663 0)
(0.00679971 0.0129493 0)
(0.00499244 0.0126649 0)
(0.00355547 0.0113301 0)
(0.00359033 0.00781364 0)
(0.0022206 0.0189785 0)
(-0.00292633 0.0211156 0)
(-0.00382726 0.00484933 0)
(-0.00208492 0.00931766 0)
(-0.0023502 0.01196 0)
(-0.00349185 0.0134441 0)
(-0.00560094 0.0148315 0)
(-0.00853376 0.0157496 0)
(-0.012086 0.015841 0)
(-0.0159402 0.0148323 0)
(-0.0196818 0.0126814 0)
(-0.0229324 0.00955572 0)
(-0.0254918 0.00555987 0)
(-0.0273003 0.000979098 0)
(-0.0280602 -0.00405985 0)
(-0.0277864 -0.00923925 0)
(-0.0265656 -0.0145136 0)
(-0.0245003 -0.0196044 0)
(-0.0215434 -0.0245532 0)
(-0.0175382 -0.0291986 0)
(-0.0126957 -0.033403 0)
(-0.00702634 -0.0370269 0)
(-0.000500079 -0.0398026 0)
(0.0066566 -0.0415729 0)
(0.0141604 -0.0422049 0)
(0.0218618 -0.041648 0)
(0.0296026 -0.0398411 0)
(0.037146 -0.0366728 0)
(0.0441818 -0.0322278 0)
(0.0505159 -0.0262948 0)
(0.0559989 -0.0190799 0)
(0.0600655 -0.0106906 0)
(0.0626581 -0.00129953 0)
(0.0634381 0.00877454 0)
(0.0620009 0.0192399 0)
(0.0584076 0.0296365 0)
(0.0526657 0.0393654 0)
(0.0450131 0.047989 0)
(0.0354551 0.0551831 0)
(0.0246641 0.0604915 0)
(0.012871 0.0639594 0)
(0.000929526 0.0653918 0)
(-0.0115562 0.0649227 0)
(-0.0240472 0.0620261 0)
(-0.0355184 0.0570238 0)
(-0.0457154 0.0498338 0)
(-0.0539866 0.0409618 0)
(-0.0601775 0.0308652 0)
(-0.0641095 0.0199226 0)
(-0.0655756 0.00903737 0)
(-0.0648987 -0.00147321 0)
(-0.0623256 -0.0112891 0)
(-0.0579642 -0.0201055 0)
(-0.0523551 -0.0275656 0)
(-0.0456995 -0.033659 0)
(-0.0382121 -0.0382523 0)
(-0.0302999 -0.0414311 0)
(-0.0221836 -0.0432731 0)
(-0.0140988 -0.0438082 0)
(-0.00623156 -0.0430312 0)
(0.00121585 -0.0409974 0)
(0.00801354 -0.0378683 0)
(0.0138073 -0.0338664 0)
(0.0185771 -0.0293627 0)
(0.0224326 -0.024372 0)
(0.0252809 -0.019153 0)
(0.0271997 -0.0138285 0)
(0.0281168 -0.00840692 0)
(0.028092 -0.00312571 0)
(0.0270304 0.00182134 0)
(0.0249954 0.00620876 0)
(0.0223229 0.00989564 0)
(0.0190753 0.0127871 0)
(0.0155516 0.0147101 0)
(0.012059 0.0156281 0)
(0.00888888 0.0156491 0)
(0.00634774 0.0151049 0)
(0.00454614 0.0142197 0)
(0.00343197 0.012169 0)
(0.00416425 0.00807277 0)
(0.00278103 0.0223719 0)
(-0.00412023 0.025016 0)
(-0.00522163 0.0038652 0)
(-0.00185266 0.00850612 0)
(-0.000870042 0.0123113 0)
(-0.00143367 0.0150905 0)
(-0.00372447 0.0177128 0)
(-0.00749913 0.0196253 0)
(-0.0121902 0.0201292 0)
(-0.0172923 0.0191976 0)
(-0.0222553 0.0166997 0)
(-0.0265813 0.0129458 0)
(-0.0299821 0.00802465 0)
(-0.0322665 0.0023214 0)
(-0.0333234 -0.00377824 0)
(-0.033184 -0.0100738 0)
(-0.031847 -0.0162679 0)
(-0.0296068 -0.0223721 0)
(-0.026365 -0.0282018 0)
(-0.0219754 -0.0337956 0)
(-0.0166221 -0.0390393 0)
(-0.0101325 -0.0435916 0)
(-0.00255407 -0.047124 0)
(0.0057865 -0.0494687 0)
(0.0145625 -0.0504195 0)
(0.0235913 -0.0500472 0)
(0.0327867 -0.0482722 0)
(0.0417802 -0.0448895 0)
(0.0503949 -0.0399194 0)
(0.0583406 -0.0330618 0)
(0.0651897 -0.0247101 0)
(0.0706005 -0.0147945 0)
(0.0741809 -0.00357536 0)
(0.0755328 0.0086354 0)
(0.0744603 0.02142 0)
(0.0705832 0.0340738 0)
(0.0638254 0.0463248 0)
(0.0545685 0.0572802 0)
(0.0430237 0.0663214 0)
(0.0299276 0.0730883 0)
(0.0157685 0.0771875 0)
(0.00194028 0.0788065 0)
(-0.013122 0.0788901 0)
(-0.028605 0.0753713 0)
(-0.0427737 0.0688363 0)
(-0.0552988 0.0596611 0)
(-0.0653659 0.0485116 0)
(-0.0727916 0.0360717 0)
(-0.0770401 0.0225971 0)
(-0.0781902 0.00927269 0)
(-0.0768441 -0.00370272 0)
(-0.0731539 -0.0154251 0)
(-0.0674451 -0.0258745 0)
(-0.060269 -0.0346775 0)
(-0.0519228 -0.0415844 0)
(-0.0428086 -0.0467569 0)
(-0.0334074 -0.0501343 0)
(-0.0239128 -0.0520242 0)
(-0.014401 -0.0524538 0)
(-0.00506939 -0.0513215 0)
(0.00372628 -0.0485855 0)
(0.0116076 -0.0445117 0)
(0.0181475 -0.0394838 0)
(0.0234514 -0.0339016 0)
(0.0276975 -0.0279574 0)
(0.0307433 -0.0217079 0)
(0.0327755 -0.0153372 0)
(0.0337455 -0.00888217 0)
(0.0334321 -0.00246176 0)
(0.0318709 0.00349816 0)
(0.0292066 0.00889843 0)
(0.0256744 0.0133519 0)
(0.0214279 0.0166922 0)
(0.0167764 0.0187198 0)
(0.0121783 0.0194298 0)
(0.00813204 0.0189327 0)
(0.00512924 0.0175004 0)
(0.00348839 0.0155394 0)
(0.00327583 0.0122525 0)
(0.00526933 0.00782723 0)
(0.00372312 0.0264305 0)
(-0.00636342 0.0311755 0)
(-0.00843437 0.00243122 0)
(-0.00246151 0.0056832 0)
(0.00140487 0.0114401 0)
(0.00201769 0.0167406 0)
(-0.000593291 0.0213922 0)
(-0.00565684 0.0246895 0)
(-0.011998 0.0259262 0)
(-0.0187915 0.024975 0)
(-0.0253095 0.0220763 0)
(-0.0309483 0.0173799 0)
(-0.0354225 0.0112524 0)
(-0.0383775 0.00419552 0)
(-0.0397 -0.00339 0)
(-0.0394762 -0.0109084 0)
(-0.0380131 -0.0181871 0)
(-0.0355442 -0.0252929 0)
(-0.0320289 -0.032136 0)
(-0.0273801 -0.0388632 0)
(-0.0214425 -0.0453679 0)
(-0.014005 -0.0510729 0)
(-0.00521911 -0.0555512 0)
(0.00456857 -0.0585629 0)
(0.014824 -0.0599398 0)
(0.0252594 -0.0597994 0)
(0.0360002 -0.0580688 0)
(0.0467555 -0.0546306 0)
(0.0573416 -0.0489364 0)
(0.0671642 -0.0410478 0)
(0.0758722 -0.0312634 0)
(0.0830575 -0.0194779 0)
(0.0881774 -0.00599782 0)
(0.0906684 0.00901831 0)
(0.0897934 0.025028 0)
(0.0856354 0.0411478 0)
(0.0780868 0.0562142 0)
(0.0669656 0.0696234 0)
(0.0528631 0.0805176 0)
(0.0366696 0.088461 0)
(0.0197511 0.0927171 0)
(0.00330597 0.0948582 0)
(-0.0150332 0.0963043 0)
(-0.0345748 0.092459 0)
(-0.0524606 0.0844372 0)
(-0.0677856 0.0732183 0)
(-0.0796835 0.059268 0)
(-0.0882798 0.0432012 0)
(-0.093025 0.026022 0)
(-0.0938542 0.00930446 0)
(-0.0912427 -0.00643169 0)
(-0.0857653 -0.0207014 0)
(-0.0782863 -0.0331551 0)
(-0.0690893 -0.0434877 0)
(-0.0588019 -0.0513711 0)
(-0.0478329 -0.0568777 0)
(-0.0366896 -0.0603594 0)
(-0.0256498 -0.0622662 0)
(-0.0145271 -0.0626276 0)
(-0.003445 -0.0611145 0)
(0.00700218 -0.0574994 0)
(0.0161466 -0.0521334 0)
(0.0235108 -0.045694 0)
(0.0292588 -0.0387934 0)
(0.0338367 -0.0316813 0)
(0.0371642 -0.0245013 0)
(0.0393301 -0.0169884 0)
(0.0403503 -0.00927012 0)
(0.0398764 -0.00146994 0)
(0.0378235 0.00592302 0)
(0.0343061 0.0125414 0)
(0.0295998 0.0178677 0)
(0.0239654 0.0217428 0)
(0.0178646 0.0240172 0)
(0.0118873 0.0246038 0)
(0.00656074 0.0232174 0)
(0.00280333 0.0202732 0)
(0.00155637 0.0162911 0)
(0.00347465 0.010853 0)
(0.00784829 0.00721001 0)
(0.00567457 0.031801 0)
(-0.00940977 0.0405927 0)
(-0.0141198 -0.00070056 0)
(-0.00384165 -0.00289699 0)
(0.00529888 0.00675555 0)
(0.00734865 0.0174481 0)
(0.00373472 0.0260802 0)
(-0.00333755 0.0315686 0)
(-0.0120556 0.0336967 0)
(-0.0210434 0.0327008 0)
(-0.0295445 0.0291592 0)
(-0.0369369 0.0232544 0)
(-0.042567 0.0155271 0)
(-0.046207 0.00656398 0)
(-0.0476549 -0.00280966 0)
(-0.0471437 -0.0116961 0)
(-0.0453356 -0.0201558 0)
(-0.0426027 -0.0282198 0)
(-0.0389353 -0.0362779 0)
(-0.0341611 -0.0444752 0)
(-0.0277416 -0.0526122 0)
(-0.0192158 -0.059944 0)
(-0.00896926 -0.0656515 0)
(0.0024405 -0.0693637 0)
(0.014323 -0.0711611 0)
(0.0263796 -0.0714533 0)
(0.0387502 -0.070231 0)
(0.051658 -0.0670441 0)
(0.0648065 -0.0609183 0)
(0.0770482 -0.0522667 0)
(0.0880974 -0.0412753 0)
(0.0976264 -0.02793 0)
(0.105019 -0.0122653 0)
(0.109577 0.00534163 0)
(0.1102 0.0245566 0)
(0.105646 0.0443398 0)
(0.0959376 0.0640676 0)
(0.0818348 0.0822048 0)
(0.0640503 0.0970131 0)
(0.0441121 0.106753 0)
(0.0246242 0.111175 0)
(0.00465298 0.114499 0)
(-0.0171409 0.117739 0)
(-0.0408463 0.113449 0)
(-0.0634192 0.102449 0)
(-0.0829827 0.0866356 0)
(-0.0985218 0.0678451 0)
(-0.109256 0.0471955 0)
(-0.113846 0.0258235 0)
(-0.112874 0.00527634 0)
(-0.108294 -0.0129114 0)
(-0.100915 -0.0290845 0)
(-0.0911698 -0.0431669 0)
(-0.0792717 -0.0549539 0)
(-0.0659694 -0.0637681 0)
(-0.0524183 -0.0692196 0)
(-0.0394362 -0.0724453 0)
(-0.0268966 -0.0742132 0)
(-0.0140518 -0.0746062 0)
(-0.000842287 -0.0727522 0)
(0.0117344 -0.0682726 0)
(0.0224327 -0.0612419 0)
(0.030554 -0.052665 0)
(0.0365886 -0.0438919 0)
(0.0411626 -0.0354091 0)
(0.044654 -0.02711 0)
(0.0472639 -0.0184544 0)
(0.0485793 -0.00935292 0)
(0.0480172 6.47049e-05 0)
(0.0453697 0.00922319 0)
(0.0407637 0.0173093 0)
(0.034642 0.0237834 0)
(0.0275396 0.0284213 0)
(0.0198352 0.031041 0)
(0.0117847 0.03136 0)
(0.00430319 0.0286552 0)
(-0.000835033 0.0229243 0)
(-0.00182768 0.0148167 0)
(0.0043539 0.00472809 0)
(0.0123986 0.00522125 0)
(0.00800006 0.0400316 0)
(-0.00703268 0.0533071 0)
(-0.0203238 -0.00289907 0)
(-0.0029799 -0.0175763 0)
(0.018167 -0.0026151 0)
(0.0201331 0.0181453 0)
(0.0118591 0.033726 0)
(-0.000170713 0.0419433 0)
(-0.0129454 0.0442305 0)
(-0.0250982 0.0425321 0)