/*--------------------------------*- C++ -*----------------------------------*\
| =========                 |                                                 |
| \\      /  F ield         | OpenFOAM: The Open Source CFD Toolbox           |
|  \\    /   O peration     | Version:  2412                                  |
|   \\  /    A nd           | Website:  www.openfoam.com                      |
|    \\/     M anipulation  |                                                 |
\*---------------------------------------------------------------------------*/
FoamFile
{
    version     2.0;
    format      ascii;
    arch        "LSB;label=32;scalar=64";
    class       volScalarField;
    location    "1.29";
    object      p;
}
// * * * * * * * * * * * * * * * * * * * * * * * * * * * * * * * * * * * * * //

dimensions      [1 -1 -2 0 0 0 0];

internalField   nonuniform List<scalar> 
80000
(
29032.7
29032.7
29032.7
29032.7
29032.7
29032.7
29032.7
29032.7
29032.7
29032.7
29032.7
29032.7
29032.7
29032.7
29032.7
29032.7
29032.7
29032.7
29032.7
29032.7
29032.7
29032.7
29032.7
29032.7
29032.7
29032.7
29032.7
29032.7
29032.7
29032.7
29032.7
29032.7
29032.7
29032.7
29032.7
29032.7
29032.7
29032.7
29032.7
29032.7
29032.7
29032.7
29032.7
29032.7
29032.7
29032.7
29032.7
29032.7
29032.7
29032.7
29032.7
29032.7
29032.7
29032.7
29032.7
29032.7
29032.7
29032.7
29032.7
29032.7
29032.8
29032.8
29032.8
29032.8
29032.8
29032.8
29032.8
29032.8
29032.8
29032.8
29032.8
29032.8
29032.8
29032.8
29032.8
29032.8
29032.8
29032.8
29032.8
29032.8
29032.8
29032.8
29032.8
29032.8
29032.8
29032.8
29032.8
29032.8
29032.8
29032.8
29032.8
29032.8
29032.8
29032.8
29032.8
29032.8
29032.8
29032.8
29032.8
29032.8
29032.8
29032.8
29032.8
29032.8
29032.9
29032.9
29032.9
29032.9
29032.9
29032.9
29032.9
29032.9
29032.9
29032.9
29032.9
29032.9
29032.9
29032.9
29032.9
29032.9
29032.9
29032.9
29032.9
29032.9
29033
29033
29033
29033
29033
29033
29033
29033
29033
29033
29033
29033
29033
29033.1
29033.1
29033.1
29033.1
29033.1
29033.1
29033.1
29033.1
29033.1
29033.1
29033.2
29033.2
29033.2
29033.2
29033.2
29033.2
29033.2
29033.2
29033.3
29033.3
29033.3
29033.3
29033.3
29033.3
29033.3
29033.4
29033.4
29033.4
29033.4
29033.4
29033.5
29033.5
29033.5
29033.5
29033.5
29033.6
29033.6
29033.6
29033.6
29033.7
29033.7
29033.7
29033.7
29033.8
29033.8
29033.8
29033.8
29033.9
29033.9
29033.9
29034
29034
29034
29034.1
29034.1
29034.1
29034.2
29034.2
29034.3
29034.3
29034.4
29034.4
29034.4
29034.5
29034.5
29034.6
29034.6
29034.7
29034.7
29034.8
29034.8
29034.9
29035
29035
29035.1
29035.1
29035.2
29035.3
29035.3
29035.4
29035.5
29035.6
29035.6
29035.7
29035.8
29035.9
29036
29036
29036.1
29036.2
29036.3
29036.4
29036.5
29036.6
29036.7
29036.8
29036.9
29037.1
29037.2
29037.3
29037.4
29037.5
29037.7
29037.8
29037.9
29038.1
29038.2
29038.4
29038.5
29038.7
29038.8
29039
29039.2
29039.4
29039.5
29039.7
29039.9
29040.1
29040.3
29040.5
29040.7
29040.9
29041.1
29041.4
29041.6
29041.8
29042.1
29042.3
29042.6
29042.9
29043.1
29043.4
29043.7
29044
29044.3
29044.6
29045
29045.3
29045.6
29046
29046.3
29046.7
29047.1
29047.5
29047.9
29048.3
29048.7
29049.1
29049.6
29050
29050.5
29051
29051.5
29052
29052.5
29053.1
29053.6
29054.2
29054.8
29055.4
29056
29056.6
29057.3
29057.9
29058.6
29059.3
29060.1
29060.8
29061.6
29062.3
29063.2
29064
29064.8
29065.7
29066.6
29067.5
29068.5
29069.4
29070.4
29071.5
29072.5
29073.6
29074.7
29075.9
29077
29078.3
29079.5
29080.8
29082.1
29083.4
29084.8
29086.2
29087.7
29089.2
29090.7
29092.3
29093.9
29095.6
29097.3
29099
29100.8
29102.7
29104.6
29106.6
29108.6
29110.6
29112.8
29114.9
29117.2
29119.5
29121.8
29124.2
29126.7
29129.3
29131.9
29134.6
29137.4
29140.2
29143.1
29146.1
29149.2
29152.3
29155.6
29158.9
29162.3
29165.8
29169.4
29173.1
29176.9
29180.8
29184.8
29188.9
29193.1
29197.5
29201.9
29206.5
29211.2
29216
29220.9
29226
29231.2
29236.5
29242
29247.6
29253.4
29259.3
29265.4
29271.6
29278
29284.6
29291.3
29298.3
29305.3
29312.6
29320.1
29327.7
29335.6
29343.6
29351.9
29360.3
29369
29377.9
29387.1
29396.4
29406
29415.9
29426
29436.3
29447
29457.8
29469
29480.4
29492.1
29504.1
29516.4
29529
29542
29555.2
29568.8
29582.6
29596.9
29611.5
29626.4
29641.7
29657.3
29673.4
29689.8
29706.6
29723.8
29741.4
29759.4
29777.8
29796.6
29815.9
29835.6
29855.7
29876.3
29897.4
29918.9
29941
29963.5
29986.4
30009.9
30033.9
30058.3
30083.3
30108.8
30134.8
30161.3
30188.3
30215.8
30243.9
30272.5
30301.7
30331.3
30361.5
30392.3
30423.5
30455.2
30487.5
30520.3
30553.5
30587.2
30621.4
30656.1
30691.1
30726.6
30762.5
30798.7
30835.3
30872.2
30909.4
30946.8
30984.4
31022.1
31060
31097.9
31135.8
31173.7
31211.5
31249.1
31286.4
31323.4
31360
31396.2
31431.7
31466.7
31500.9
31534.2
31566.7
31598.1
31628.4
31657.5
31685.3
31711.6
31736.5
31759.7
31781.1
31800.8
31818.4
31834.1
31847.5
31858.7
31867.6
31874
31877.9
31879
31877.5
31873
31865.6
31855.1
31841.5
31824.6
31804.3
31780.6
31753.3
31722.4
31687.8
31649.2
31606.7
31560.2
31509.6
31454.8
31395.7
31332.2
31264.2
31191.7
31114.5
31032.7
30946.2
30854.9
30758.7
30657.7
30551.7
30440.9
30325.1
30204.4
30078.8
29948.3
29813
29672.9
29528.1
29378.8
29224.9
29066.7
28904.3
28737.9
28567.6
28393.7
28216.5
28036.1
27852.9
27667.2
27479.3
27289.6
27098.4
26906.1
26713.1
26519.9
26326.9
26134.6
25943.4
25753.7
25566.2
25381.3
25199.5
25021.3
24847.3
24677.9
24513.6
24354.9
24202.2
24056
23916.8
23784.9
23660.8
23544.9
23437.4
23338.7
23249.1
23168.8
23098.1
23037.3
22986.1
22944.6
22914.2
22893.9
22883.4
22883.5
22894.1
22914.8
22945.7
22987.7
23039.7
23101.6
23173.6
23255.5
23347.1
23448.1
23558.3
23677.2
23804.8
23940.4
24083.9
24234.6
24392.3
24556.5
24726.6
24902.2
25082.9
25268
25457
25649.5
25844.8
26042.4
26241.8
26442.4
26643.7
26845.3
27046.6
27247.1
27446.5
27644.2
27839.8
28033
28223.5
28410.7
28594.5
28774.5
28950.5
29122.2
29289.5
29452
29609.6
29762.2
29909.7
30051.9
30188.7
30320.1
30446.1
30566.5
30681.4
30790.8
30894.7
30993.1
31086
31173.5
31255.5
31332.3
31403.9
31470.2
31531.5
31587.8
31639.2
31685.8
31727.7
31765
31797.9
31826.3
31850.5
31870.5
31886.5
31898.6
31906.8
31911.4
31912.5
31910.1
31904.4
31895.6
31883.7
31868.9
31851.3
31831.1
31808.4
31783.3
31756.1
31726.7
31695.4
31662.3
31627.5
31591.2
31553.5
31514.6
31474.6
31433.6
31391.8
31349.2
31306.1
31262.4
31218.4
31174.1
31129.6
31085
31040.4
30995.9
30951.6
30907.5
30863.7
30820.2
30777.2
30734.6
30692.4
30650.8
30609.7
30569.3
30529.4
30490.2
30451.6
30413.8
30376.6
30340.1
30304.4
30269.3
30235
30201.3
30168.4
30136.2
30104.7
30074
30043.9
30014.6
29985.9
29957.9
29930.7
29904.1
29878.1
29852.8
29828.2
29804.2
29780.8
29758
29735.9
29714.3
29693.3
29672.9
29653.1
29633.8
29615
29596.7
29579
29561.7
29545
29528.7
29512.9
29497.5
29482.6
29468.2
29454.1
29440.5
29427.3
29414.4
29402
29389.9
29378.2
29366.8
29355.8
29345.1
29334.7
29324.7
29314.9
29305.5
29296.4
29287.5
29279
29270.7
29262.6
29254.8
29247.2
29239.9
29232.9
29226
29219.4
29213
29206.8
29200.8
29195
29189.3
29183.9
29178.6
29173.6
29168.6
29163.9
29159.3
29154.8
29150.5
29146.3
29142.3
29138.4
29134.7
29131
29127.5
29124.1
29120.9
29117.7
29114.7
29111.7
29108.9
29106.1
29103.4
29100.9
29098.4
29096
29093.7
29091.5
29089.3
29087.3
29085.2
29083.3
29081.5
29079.7
29077.9
29076.2
29074.6
29073.1
29071.6
29070.1
29068.7
29067.4
29066.1
29064.8
29063.6
29062.5
29061.3
29060.3
29059.2
29058.2
29057.3
29056.3
29055.4
29054.6
29053.7
29052.9
29052.2
29051.4
29050.7
29050
29049.3
29048.7
29048.1
29047.5
29046.9
29046.4
29045.8
29045.3
29044.8
29044.4
29043.9
29043.5
29043
29042.6
29042.3
29041.9
29041.5
29041.2
29040.8
29040.5
29040.2
29039.9
29039.6
29039.3
29039.1
29038.8
29038.6
29038.4
29038.1
29037.9
29037.7
29037.5
29037.3
29037.1
29036.9
29036.8
29036.6
29036.5
29036.3
29036.2
29036
29035.9
29035.8
29035.6
29035.5
29035.4
29035.3
29035.2
29035.1
29035
29034.9
29034.8
29034.7
29034.6
29034.5
29034.5
29034.4
29034.3
29034.3
29034.2
29034.1
29034.1
29034
29034
29033.9
29033.9
29033.8
29033.8
29033.7
29033.7
29033.6
29033.6
29033.6
29033.5
29033.5
29033.5
29033.4
29033.4
29033.4
29033.3
29033.3
29033.3
29033.3
29033.2
29033.2
29033.2
29033.2
29033.1
29033.1
29033.1
29033.1
29033.1
29033.1
29033
29033
29033
29033
29033
29033
29033
29033
29032.9
29032.9
29032.9
29032.9
29032.9
29032.9
29032.9
29032.9
29032.9
29032.9
29032.9
29032.8
29032.8
29032.8
29032.8
29032.8
29032.8
29032.8
29032.8
29032.8
29032.8
29032.8
29032.8
29032.8
29032.8
29032.8
29032.8
29032.8
29032.8
29032.8
29032.8
29032.8
29032.8
29032.8
29032.8
29032.7
29032.7
29032.7
29032.7
29032.7
29032.7
29032.7
29032.7
29032.7
29032.7
29032.7
29032.7
29032.7
29032.7
29032.7
29032.7
29032.7
29032.7
29032.7
29032.7
29032.7
29032.7
29032.7
29032.7
29032.7
29032.7
29032.7
29032.7
29032.7
29032.7
29032.7
28296.9
28297
28296.9
28296.9
28296.9
28297
28297
28297
28297
28297
28297
28297
28297
28297
28297
28297
28297
28297
28297
28297
28297
28297
28297
28297
28297
28297
28297
28297
28297
28297
28297
28297
28297
28297
28297
28297
28297
28297
28297
28297
28297
28297
28297
28297
28297
28297
28297
28297
28297
28297
28297
28297
28297
28297
28297
28297
28297
28297
28297
28297
28297
28297
28297
28297
28297
28297
28297
28297
28297
28297
28297
28297
28297
28297
28297
28297
28297
28297
28297
28297
28297
28297
28297
28297
28297
28297
28297
28297
28297.1
28297.1
28297.1
28297.1
28297.1
28297.1
28297.1
28297.1
28297.1
28297.1
28297.1
28297.1
28297.1
28297.1
28297.1
28297.1
28297.1
28297.1
28297.1
28297.1
28297.1
28297.1
28297.1
28297.1
28297.1
28297.1
28297.1
28297.1
28297.2
28297.2
28297.2
28297.2
28297.2
28297.2
28297.2
28297.2
28297.2
28297.2
28297.2
28297.2
28297.2
28297.2
28297.2
28297.2
28297.3
28297.3
28297.3
28297.3
28297.3
28297.3
28297.3
28297.3
28297.3
28297.3
28297.3
28297.4
28297.4
28297.4
28297.4
28297.4
28297.4
28297.4
28297.4
28297.5
28297.5
28297.5
28297.5
28297.5
28297.5
28297.5
28297.6
28297.6
28297.6
28297.6
28297.6
28297.6
28297.7
28297.7
28297.7
28297.7
28297.7
28297.7
28297.8
28297.8
28297.8
28297.8
28297.9
28297.9
28297.9
28297.9
28298
28298
28298
28298
28298.1
28298.1
28298.1
28298.2
28298.2
28298.2
28298.3
28298.3
28298.3
28298.4
28298.4
28298.4
28298.5
28298.5
28298.6
28298.6
28298.6
28298.7
28298.7
28298.8
28298.8
28298.9
28298.9
28299
28299
28299.1
28299.1
28299.2
28299.3
28299.3
28299.4
28299.5
28299.5
28299.6
28299.7
28299.7
28299.8
28299.9
28300
28300
28300.1
28300.2
28300.3
28300.4
28300.5
28300.6
28300.7
28300.8
28300.9
28301
28301.1
28301.2
28301.3
28301.4
28301.5
28301.7
28301.8
28301.9
28302
28302.2
28302.3
28302.5
28302.6
28302.8
28302.9
28303.1
28303.3
28303.4
28303.6
28303.8
28304
28304.1
28304.3
28304.5
28304.7
28304.9
28305.2
28305.4
28305.6
28305.8
28306.1
28306.3
28306.6
28306.8
28307.1
28307.4
28307.7
28308
28308.3
28308.6
28308.9
28309.2
28309.5
28309.9
28310.2
28310.6
28310.9
28311.3
28311.7
28312.1
28312.5
28312.9
28313.4
28313.8
28314.3
28314.8
28315.2
28315.7
28316.2
28316.8
28317.3
28317.9
28318.4
28319
28319.6
28320.2
28320.8
28321.5
28322.2
28322.8
28323.6
28324.3
28325
28325.8
28326.6
28327.4
28328.2
28329
28329.9
28330.8
28331.7
28332.7
28333.7
28334.7
28335.7
28336.7
28337.8
28338.9
28340.1
28341.3
28342.5
28343.7
28345
28346.3
28347.6
28349
28350.4
28351.9
28353.4
28354.9
28356.5
28358.1
28359.8
28361.5
28363.2
28365
28366.9
28368.8
28370.7
28372.8
28374.8
28376.9
28379.1
28381.3
28383.6
28386
28388.4
28390.9
28393.4
28396.1
28398.7
28401.5
28404.3
28407.3
28410.3
28413.3
28416.5
28419.7
28423
28426.5
28430
28433.6
28437.2
28441
28444.9
28448.9
28453
28457.3
28461.6
28466
28470.6
28475.3
28480.1
28485
28490.1
28495.3
28500.6
28506.1
28511.7
28517.5
28523.4
28529.5
28535.7
28542.1
28548.7
28555.4
28562.3
28569.4
28576.6
28584.1
28591.7
28599.6
28607.6
28615.9
28624.3
28633
28641.9
28651
28660.4
28670
28679.8
28689.9
28700.3
28710.9
28721.8
28732.9
28744.3
28756
28768
28780.3
28792.9
28805.8
28819.1
28832.6
28846.5
28860.7
28875.3
28890.2
28905.5
28921.2
28937.2
28953.6
28970.4
28987.6
29005.2
29023.1
29041.5
29060.4
29079.6
29099.3
29119.5
29140.1
29161.1
29182.7
29204.7
29227.2
29250.1
29273.6
29297.5
29322
29347
29372.4
29398.4
29424.9
29451.9
29479.5
29507.6
29536.2
29565.3
29595
29625.2
29655.9
29687.1
29718.9
29751.2
29783.9
29817.2
29850.9
29885.1
29919.8
29954.9
29990.4
30026.3
30062.6
30099.2
30136.1
30173.3
30210.8
30248.4
30286.2
30324.1
30362.1
30400.1
30438
30475.9
30513.5
30551
30588
30624.7
30661
30696.6
30731.7
30765.9
30799.4
30832
30863.5
30893.9
30923.1
30951
30977.5
31002.4
31025.7
31047.3
31067
31084.8
31100.5
31114.1
31125.4
31134.4
31140.9
31144.9
31146.1
31144.7
31140.3
31133
31122.6
31109.1
31092.3
31072.1
31048.4
31021.2
30990.4
30955.8
30917.4
30875
30828.6
30778.1
30723.4
30664.3
30600.9
30532.9
30460.5
30383.4
30301.6
30215.1
30123.8
30027.7
29926.7
29820.7
29709.9
29594.1
29473.3
29347.7
29217.1
29081.7
28941.5
28796.6
28647.1
28493.1
28334.8
28172.2
28005.6
27835.1
27661
27483.4
27302.8
27119.3
26933.3
26745.1
26555
26363.4
26170.7
25977.4
25783.8
25590.3
25397.5
25205.9
25015.8
24827.8
24642.4
24460.1
24281.5
24107.1
23937.2
23772.5
23613.3
23460.2
23313.6
23173.9
23041.7
22917.3
22801
22693.2
22594.3
22504.4
22423.9
22353
22291.9
22240.7
22199.7
22168.8
22148.2
22137.8
22137.9
22148.5
22169.4
22200.7
22242.3
22294.3
22356.5
22428.8
22510.9
22602.7
22704
22814.5
22933.8
23061.6
23197.7
23341.5
23492.7
23650.8
23815.4
23986
24162.1
24343.2
24528.8
24718.3
24911.3
25107
25305.1
25505
25706
25907.8
26109.8
26311.5
26512.4
26712.2
26910.2
27106.2
27299.7
27490.4
27678
27862
28042.3
28218.5
28390.4
28557.8
28720.4
28878.2
29030.9
29178.5
29320.7
29457.6
29589.1
29715.1
29835.5
29950.4
30059.8
30163.7
30262
30354.9
30442.3
30524.3
30601.1
30672.5
30738.8
30800
30856.2
30907.5
30954
30995.8
31033.1
31065.8
31094.1
31118.2
31138.1
31154
31166
31174.1
31178.6
31179.6
31177.1
31171.3
31162.3
31150.3
31135.4
31117.7
31097.4
31074.6
31049.4
31022
30992.5
30961
30927.8
30892.9
30856.5
30818.7
30779.7
30739.6
30698.5
30656.5
30613.9
30570.6
30526.9
30482.8
30438.4
30393.8
30349.2
30304.5
30260
30215.6
30171.5
30127.6
30084.1
30041
29998.3
29956.2
29914.5
29873.4
29833
29793.1
29753.9
29715.3
29677.4
29640.3
29603.8
29568
29533
29498.6
29465
29432
29399.8
29368.4
29337.6
29307.6
29278.2
29249.6
29221.6
29194.4
29167.8
29141.8
29116.6
29091.9
29067.9
29044.5
29021.8
28999.7
28978.1
28957.1
28936.7
28916.9
28897.6
28878.8
28860.6
28842.8
28825.6
28808.8
28792.6
28776.8
28761.4
28746.6
28732.1
28718.1
28704.4
28691.2
28678.4
28665.9
28653.9
28642.1
28630.8
28619.7
28609.1
28598.7
28588.7
28579
28569.6
28560.4
28551.6
28543
28534.7
28526.7
28518.9
28511.3
28504
28496.9
28490.1
28483.5
28477.1
28470.9
28464.9
28459.1
28453.5
28448
28442.8
28437.7
28432.8
28428
28423.4
28419
28414.7
28410.5
28406.5
28402.6
28398.8
28395.2
28391.7
28388.3
28385
28381.9
28378.8
28375.9
28373
28370.3
28367.6
28365.1
28362.6
28360.2
28357.9
28355.7
28353.5
28351.4
28349.4
28347.5
28345.7
28343.9
28342.1
28340.5
28338.8
28337.3
28335.8
28334.3
28332.9
28331.6
28330.3
28329.1
28327.8
28326.7
28325.6
28324.5
28323.4
28322.4
28321.5
28320.5
28319.7
28318.8
28318
28317.2
28316.4
28315.6
28314.9
28314.2
28313.6
28312.9
28312.3
28311.7
28311.1
28310.6
28310.1
28309.6
28309.1
28308.6
28308.1
28307.7
28307.3
28306.9
28306.5
28306.1
28305.8
28305.4
28305.1
28304.8
28304.4
28304.2
28303.9
28303.6
28303.3
28303.1
28302.8
28302.6
28302.4
28302.2
28301.9
28301.7
28301.6
28301.4
28301.2
28301
28300.9
28300.7
28300.5
28300.4
28300.3
28300.1
28300
28299.9
28299.8
28299.6
28299.5
28299.4
28299.3
28299.2
28299.1
28299
28299
28298.9
28298.8
28298.7
28298.6
28298.6
28298.5
28298.4
28298.4
28298.3
28298.3
28298.2
28298.2
28298.1
28298.1
28298
28298
28297.9
28297.9
28297.8
28297.8
28297.8
28297.7
28297.7
28297.7
28297.6
28297.6
28297.6
28297.6
28297.5
28297.5
28297.5
28297.5
28297.4
28297.4
28297.4
28297.4
28297.4
28297.3
28297.3
28297.3
28297.3
28297.3
28297.3
28297.3
28297.2
28297.2
28297.2
28297.2
28297.2
28297.2
28297.2
28297.2
28297.2
28297.1
28297.1
28297.1
28297.1
28297.1
28297.1
28297.1
28297.1
28297.1
28297.1
28297.1
28297.1
28297.1
28297.1
28297.1
28297
28297
28297
28297
28297
28297
28297
28297
28297
28297
28297
28297
28297
28297
28297
28297
28297
28297
28297
28297
28297
28297
28297
28297
28297
28297
28297
28297
28297
28297
28297
28297
28297
28297
28297
28297
28297
28297
28297
28297
28297
28297
28297
28297
28297
28297
27561.3
27561.3
27561.3
27561.3
27561.3
27561.3
27561.2
27561.2
27561.2
27561.2
27561.2
27561.2
27561.2
27561.2
27561.2
27561.2
27561.2
27561.2
27561.2
27561.2
27561.2
27561.2
27561.2
27561.2
27561.2
27561.2
27561.2
27561.2
27561.2
27561.2
27561.2
27561.2
27561.2
27561.2
27561.2
27561.2
27561.2
27561.2
27561.2
27561.2
27561.2
27561.2
27561.2
27561.2
27561.2
27561.2
27561.2
27561.2
27561.2
27561.2
27561.2
27561.2
27561.2
27561.2
27561.2
27561.2
27561.2
27561.2
27561.2
27561.2
27561.3
27561.3
27561.3
27561.3
27561.3
27561.3
27561.3
27561.3
27561.3
27561.3
27561.3
27561.3
27561.3
27561.3
27561.3
27561.3
27561.3
27561.3
27561.3
27561.3
27561.3
27561.3
27561.3
27561.3
27561.3
27561.3
27561.3
27561.3
27561.3
27561.3
27561.3
27561.3
27561.3
27561.3
27561.3
27561.3
27561.3
27561.3
27561.3
27561.3
27561.3
27561.3
27561.3
27561.3
27561.4
27561.4
27561.4
27561.4
27561.4
27561.4
27561.4
27561.4
27561.4
27561.4
27561.4
27561.4
27561.4
27561.4
27561.4
27561.4
27561.4
27561.4
27561.4
27561.4
27561.5
27561.5
27561.5
27561.5
27561.5
27561.5
27561.5
27561.5
27561.5
27561.5
27561.5
27561.5
27561.5
27561.5
27561.6
27561.6
27561.6
27561.6
27561.6
27561.6
27561.6
27561.6
27561.6
27561.7
27561.7
27561.7
27561.7
27561.7
27561.7
27561.7
27561.7
27561.8
27561.8
27561.8
27561.8
27561.8
27561.8
27561.8
27561.9
27561.9
27561.9
27561.9
27561.9
27562
27562
27562
27562
27562
27562.1
27562.1
27562.1
27562.1
27562.2
27562.2
27562.2
27562.2
27562.3
27562.3
27562.3
27562.3
27562.4
27562.4
27562.4
27562.5
27562.5
27562.5
27562.6
27562.6
27562.6
27562.7
27562.7
27562.8
27562.8
27562.8
27562.9
27562.9
27563
27563
27563.1
27563.1
27563.2
27563.2
27563.3
27563.3
27563.4
27563.5
27563.5
27563.6
27563.6
27563.7
27563.8
27563.8
27563.9
27564
27564.1
27564.1
27564.2
27564.3
27564.4
27564.5
27564.5
27564.6
27564.7
27564.8
27564.9
27565
27565.1
27565.2
27565.3
27565.4
27565.5
27565.7
27565.8
27565.9
27566
27566.2
27566.3
27566.4
27566.6
27566.7
27566.9
27567
27567.2
27567.3
27567.5
27567.7
27567.8
27568
27568.2
27568.4
27568.6
27568.8
27569
27569.2
27569.4
27569.6
27569.8
27570.1
27570.3
27570.6
27570.8
27571.1
27571.3
27571.6
27571.9
27572.2
27572.5
27572.8
27573.1
27573.4
27573.8
27574.1
27574.4
27574.8
27575.2
27575.5
27575.9
27576.3
27576.7
27577.2
27577.6
27578
27578.5
27579
27579.4
27579.9
27580.5
27581
27581.5
27582.1
27582.6
27583.2
27583.8
27584.4
27585.1
27585.7
27586.4
27587
27587.8
27588.5
27589.2
27590
27590.8
27591.6
27592.4
27593.2
27594.1
27595
27595.9
27596.9
27597.8
27598.8
27599.9
27600.9
27602
27603.1
27604.2
27605.4
27606.6
27607.9
27609.1
27610.4
27611.8
27613.2
27614.6
27616
27617.5
27619
27620.6
27622.2
27623.9
27625.6
27627.4
27629.2
27631
27632.9
27634.9
27636.9
27638.9
27641
27643.2
27645.4
27647.7
27650.1
27652.5
27655
27657.5
27660.1
27662.8
27665.6
27668.4
27671.3
27674.3
27677.4
27680.5
27683.7
27687.1
27690.5
27694
27697.6
27701.3
27705
27708.9
27712.9
27717
27721.2
27725.6
27730
27734.5
27739.2
27744
27748.9
27754
27759.2
27764.5
27770
27775.6
27781.4
27787.3
27793.3
27799.6
27805.9
27812.5
27819.2
27826.1
27833.2
27840.4
27847.9
27855.5
27863.3
27871.4
27879.6
27888.1
27896.7
27905.6
27914.7
27924.1
27933.7
27943.5
27953.6
27963.9
27974.5
27985.4
27996.5
28007.9
28019.6
28031.6
28043.9
28056.5
28069.4
28082.6
28096.1
28110
28124.2
28138.7
28153.6
28168.9
28184.5
28200.6
28216.9
28233.7
28250.9
28268.5
28286.4
28304.8
28323.6
28342.9
28362.5
28382.7
28403.3
28424.3
28445.8
28467.8
28490.3
28513.2
28536.7
28560.6
28585.1
28610
28635.5
28661.5
28688
28715
28742.5
28770.6
28799.2
28828.4
28858
28888.2
28919
28950.2
28982
29014.3
29047.1
29080.3
29114.1
29148.4
29183
29218.2
29253.7
29289.7
29326
29362.7
29399.7
29437
29474.5
29512.2
29550.1
29588.2
29626.3
29664.4
29702.5
29740.4
29778.2
29815.8
29853.1
29889.9
29926.3
29962.2
29997.4
30031.9
30065.5
30098.3
30130
30160.7
30190.1
30218.2
30244.9
30270
30293.6
30315.3
30335.3
30353.3
30369.2
30383
30394.5
30403.7
30410.4
30414.6
30416.1
30414.8
30410.7
30403.5
30393.4
30380
30363.4
30343.4
30319.9
30292.9
30262.2
30227.8
30189.6
30147.4
30101.1
30050.8
29996.2
29937.2
29873.9
29806.1
29733.8
29656.8
29575.1
29488.7
29397.5
29301.4
29200.4
29094.4
28983.5
28867.7
28746.9
28621.2
28490.5
28354.9
28214.5
28069.4
27919.7
27765.4
27606.7
27443.7
27276.7
27105.8
26931.3
26753.3
26572.1
26388
26201.4
26012.4
25821.6
25629.3
25435.8
25241.6
25047.2
24852.9
24659.2
24466.6
24275.6
24086.7
23900.4
23717.2
23537.6
23362.2
23191.5
23025.8
22865.8
22711.8
22564.4
22424
22291
22165.9
22049
21940.7
21841.2
21750.8
21669.9
21598.7
21537.3
21485.7
21444.3
21413.3
21392.7
21382.3
21382.4
21393
21413.9
21445.4
21487.4
21539.7
21602.2
21674.8
21757.4
21849.7
21951.5
22062.6
22182.5
22311.1
22447.9
22592.5
22744.5
22903.5
23069
23240.5
23417.6
23599.7
23786.2
23976.7
24170.6
24367.3
24566.3
24767.1
24969.1
25171.7
25374.6
25577.1
25778.8
25979.3
26178
26374.7
26568.9
26760.2
26948.2
27132.8
27313.5
27490.1
27662.4
27830.1
27993.1
28151.1
28304
28451.8
28594.2
28731.2
28862.7
28988.8
29109.3
29224.2
29333.5
29437.4
29535.6
29628.4
29715.7
29797.6
29874.2
29945.6
30011.7
30072.8
30128.8
30180
30226.3
30267.9
30304.9
30337.5
30365.6
30389.5
30409.2
30424.8
30436.6
30444.6
30448.8
30449.5
30446.8
30440.8
30431.6
30419.3
30404.2
30386.3
30365.7
30342.6
30317.1
30289.5
30259.7
30228
30194.6
30159.5
30122.8
30084.8
30045.5
30005.2
29963.9
29921.8
29878.9
29835.5
29791.5
29747.3
29702.7
29658
29613.2
29568.5
29523.8
29479.3
29435.1
29391.1
29347.5
29304.4
29261.7
29219.4
29177.7
29136.6
29096.1
29056.2
29016.9
28978.4
28940.5
28903.3
28866.8
28831
28796
28761.6
28728
28695.1
28662.9
28631.4
28600.6
28570.6
28541.3
28512.7
28484.8
28457.5
28430.9
28405
28379.8
28355.1
28331.2
28307.8
28285.1
28263
28241.4
28220.5
28200.1
28180.3
28161
28142.2
28124
28106.3
28089.1
28072.4
28056.1
28040.3
28025
28010.1
27995.7
27981.7
27968.1
27954.9
27942.1
27929.6
27917.5
27905.8
27894.5
27883.5
27872.8
27862.5
27852.5
27842.8
27833.4
27824.3
27815.4
27806.9
27798.6
27790.5
27782.7
27775.2
27767.9
27760.9
27754
27747.4
27741
27734.8
27728.8
27723
27717.4
27712
27706.8
27701.7
27696.8
27692
27687.4
27683
27678.7
27674.5
27670.5
27666.7
27662.9
27659.3
27655.8
27652.4
27649.1
27646
27642.9
27640
27637.1
27634.4
27631.7
27629.2
27626.7
27624.3
27622
27619.8
27617.7
27615.6
27613.6
27611.7
27609.8
27608
27606.3
27604.6
27603
27601.5
27600
27598.5
27597.1
27595.8
27594.5
27593.2
27592
27590.9
27589.8
27588.7
27587.6
27586.6
27585.7
27584.8
27583.9
27583
27582.2
27581.4
27580.6
27579.9
27579.1
27578.4
27577.8
27577.1
27576.5
27575.9
27575.4
27574.8
27574.3
27573.8
27573.3
27572.8
27572.4
27571.9
27571.5
27571.1
27570.7
27570.3
27570
27569.6
27569.3
27569
27568.7
27568.4
27568.1
27567.8
27567.6
27567.3
27567.1
27566.8
27566.6
27566.4
27566.2
27566
27565.8
27565.6
27565.4
27565.3
27565.1
27564.9
27564.8
27564.6
27564.5
27564.4
27564.2
27564.1
27564
27563.9
27563.8
27563.7
27563.6
27563.5
27563.4
27563.3
27563.2
27563.1
27563
27563
27562.9
27562.8
27562.8
27562.7
27562.6
27562.6
27562.5
27562.5
27562.4
27562.4
27562.3
27562.3
27562.2
27562.2
27562.1
27562.1
27562.1
27562
27562
27562
27561.9
27561.9
27561.9
27561.8
27561.8
27561.8
27561.8
27561.7
27561.7
27561.7
27561.7
27561.6
27561.6
27561.6
27561.6
27561.6
27561.6
27561.5
27561.5
27561.5
27561.5
27561.5
27561.5
27561.5
27561.5
27561.4
27561.4
27561.4
27561.4
27561.4
27561.4
27561.4
27561.4
27561.4
27561.4
27561.4
27561.3
27561.3
27561.3
27561.3
27561.3
27561.3
27561.3
27561.3
27561.3
27561.3
27561.3
27561.3
27561.3
27561.3
27561.3
27561.3
27561.3
27561.3
27561.3
27561.3
27561.3
27561.3
27561.3
27561.3
27561.2
27561.2
27561.2
27561.2
27561.2
27561.2
27561.2
27561.2
27561.2
27561.2
27561.2
27561.2
27561.2
27561.2
27561.2
27561.2
27561.2
27561.2
27561.2
27561.2
27561.2
27561.2
27561.2
27561.2
27561.2
27561.2
27561.2
27561.2
27561.2
27561.2
27561.2
26825.4
26825.4
26825.4
26825.4
26825.4
26825.5
26825.5
26825.5
26825.5
26825.5
26825.5
26825.5
26825.5
26825.5
26825.5
26825.5
26825.5
26825.5
26825.5
26825.5
26825.5
26825.5
26825.5
26825.5
26825.5
26825.5
26825.5
26825.5
26825.5
26825.5
26825.5
26825.5
26825.5
26825.5
26825.5
26825.5
26825.5
26825.5
26825.5
26825.5
26825.5
26825.5
26825.5
26825.5
26825.5
26825.5
26825.5
26825.5
26825.5
26825.5
26825.5
26825.5
26825.5
26825.5
26825.5
26825.5
26825.5
26825.5
26825.5
26825.5
26825.5
26825.5
26825.5
26825.5
26825.5
26825.5
26825.5
26825.5
26825.5
26825.5
26825.5
26825.5
26825.5
26825.5
26825.5
26825.5
26825.5
26825.5
26825.5
26825.5
26825.5
26825.5
26825.5
26825.5
26825.5
26825.5
26825.5
26825.5
26825.6
26825.6
26825.6
26825.6
26825.6
26825.6
26825.6
26825.6
26825.6
26825.6
26825.6
26825.6
26825.6
26825.6
26825.6
26825.6
26825.6
26825.6
26825.6
26825.6
26825.6
26825.6
26825.6
26825.6
26825.6
26825.6
26825.6
26825.6
26825.7
26825.7
26825.7
26825.7
26825.7
26825.7
26825.7
26825.7
26825.7
26825.7
26825.7
26825.7
26825.7
26825.7
26825.7
26825.7
26825.8
26825.8
26825.8
26825.8
26825.8
26825.8
26825.8
26825.8
26825.8
26825.8
26825.8
26825.9
26825.9
26825.9
26825.9
26825.9
26825.9
26825.9
26825.9
26825.9
26826
26826
26826
26826
26826
26826
26826
26826.1
26826.1
26826.1
26826.1
26826.1
26826.1
26826.2
26826.2
26826.2
26826.2
26826.2
26826.3
26826.3
26826.3
26826.3
26826.4
26826.4
26826.4
26826.4
26826.5
26826.5
26826.5
26826.5
26826.6
26826.6
26826.6
26826.7
26826.7
26826.7
26826.7
26826.8
26826.8
26826.9
26826.9
26826.9
26827
26827
26827
26827.1
26827.1
26827.2
26827.2
26827.3
26827.3
26827.4
26827.4
26827.5
26827.5
26827.6
26827.6
26827.7
26827.8
26827.8
26827.9
26827.9
26828
26828.1
26828.1
26828.2
26828.3
26828.4
26828.4
26828.5
26828.6
26828.7
26828.8
26828.9
26829
26829.1
26829.1
26829.2
26829.3
26829.5
26829.6
26829.7
26829.8
26829.9
26830
26830.1
26830.3
26830.4
26830.5
26830.7
26830.8
26830.9
26831.1
26831.2
26831.4
26831.6
26831.7
26831.9
26832.1
26832.2
26832.4
26832.6
26832.8
26833
26833.2
26833.4
26833.6
26833.8
26834.1
26834.3
26834.5
26834.8
26835
26835.3
26835.6
26835.8
26836.1
26836.4
26836.7
26837
26837.3
26837.6
26838
26838.3
26838.7
26839
26839.4
26839.8
26840.1
26840.5
26840.9
26841.4
26841.8
26842.2
26842.7
26843.2
26843.6
26844.1
26844.6
26845.2
26845.7
26846.2
26846.8
26847.4
26848
26848.6
26849.2
26849.9
26850.5
26851.2
26851.9
26852.6
26853.4
26854.1
26854.9
26855.7
26856.5
26857.4
26858.3
26859.2
26860.1
26861
26862
26863
26864
26865.1
26866.1
26867.2
26868.4
26869.5
26870.7
26872
26873.2
26874.5
26875.9
26877.3
26878.7
26880.1
26881.6
26883.1
26884.7
26886.3
26888
26889.7
26891.4
26893.2
26895.1
26897
26898.9
26900.9
26903
26905.1
26907.2
26909.5
26911.7
26914.1
26916.5
26919
26921.5
26924.1
26926.8
26929.5
26932.4
26935.3
26938.3
26941.3
26944.5
26947.7
26951
26954.4
26957.9
26961.5
26965.1
26968.9
26972.8
26976.8
26980.9
26985.1
26989.4
26993.8
26998.4
27003
27007.8
27012.7
27017.8
27022.9
27028.3
27033.7
27039.3
27045.1
27051
27057
27063.2
27069.6
27076.1
27082.8
27089.7
27096.8
27104
27111.4
27119.1
27126.9
27134.9
27143.1
27151.5
27160.2
27169.1
27178.2
27187.5
27197.1
27206.9
27216.9
27227.3
27237.8
27248.7
27259.8
27271.2
27282.9
27294.8
27307.1
27319.6
27332.5
27345.7
27359.2
27373
27387.2
27401.8
27416.7
27431.9
27447.5
27463.5
27479.9
27496.6
27513.7
27531.3
27549.2
27567.6
27586.4
27605.6
27625.3
27645.4
27665.9
27687
27708.5
27730.4
27752.9
27775.8
27799.2
27823.2
27847.6
27872.5
27898
27923.9
27950.4
27977.4
28005
28033
28061.6
28090.8
28120.5
28150.7
28181.4
28212.7
28244.5
28276.8
28309.6
28342.9
28376.7
28411
28445.8
28481
28516.6
28552.6
28589.1
28625.8
28662.9
28700.3
28738
28775.9
28813.9
28852.1
28890.4
28928.7
28966.9
29005.1
29043.1
29080.9
29118.4
29155.5
29192.2
29228.3
29263.8
29298.6
29332.6
29365.6
29397.7
29428.6
29458.4
29486.8
29513.8
29539.3
29563.2
29585.3
29605.5
29623.9
29640.1
29654.2
29666.1
29675.6
29682.6
29687.1
29688.9
29687.9
29684
29677.2
29667.3
29654.2
29637.9
29618.2
29595
29568.3
29537.9
29503.7
29465.7
29423.8
29377.8
29327.6
29273.3
29214.6
29151.4
29083.8
29011.7
28934.9
28853.3
28767
28675.9
28579.9
28478.9
28373
28262
28146.1
28025.2
27899.3
27768.4
27632.6
27492
27346.6
27196.5
27041.8
26882.6
26719.1
26551.5
26379.9
26204.7
26025.9
25843.9
25658.9
25471.3
25281.4
25089.5
24896
24701.4
24505.9
24310.2
24114.6
23919.5
23725.6
23533.2
23343
23155.3
22970.6
22789.7
22612.8
22440.6
22273.6
22112.3
21957.1
21808.4
21666.9
21532.8
21406.7
21288.8
21179.6
21079.3
20988.2
20906.7
20834.9
20773
20721.1
20679.4
20648.2
20627.3
20616.9
20617
20627.7
20648.8
20680.5
20722.8
20775.5
20838.5
20911.6
20994.8
21087.9
21190.5
21302.5
21423.4
21553.1
21691
21836.8
21990.1
22150.4
22317.3
22490.2
22668.7
22852.2
23040.2
23232.1
23427.5
23625.6
23826
24028.2
24231.5
24435.5
24639.6
24843.4
25046.3
25247.9
25447.7
25645.4
25840.5
26032.7
26221.6
26406.9
26588.3
26765.5
26938.4
27106.6
27269.9
27428.3
27581.6
27729.6
27872.2
28009.4
28141.1
28267.2
28387.8
28502.7
28612
28715.8
28813.9
28906.6
28993.8
29075.5
29151.9
29223
29289
29349.8
29405.6
29456.5
29502.5
29543.9
29580.6
29612.8
29640.7
29664.2
29683.6
29699
29710.4
29718
29721.9
29722.3
29719.3
29712.9
29703.3
29690.7
29675.2
29656.9
29636
29612.5
29586.7
29558.7
29528.5
29496.5
29462.6
29427.1
29390.1
29351.8
29312.2
29271.5
29229.9
29187.4
29144.3
29100.6
29056.4
29011.9
28967.1
28922.2
28877.2
28832.3
28787.4
28742.8
28698.4
28654.3
28610.6
28567.3
28524.5
28482.2
28440.4
28399.2
28358.7
28318.7
28279.5
28240.8
28202.9
28165.7
28129.2
28093.4
28058.3
28024
27990.4
27957.5
27925.3
27893.9
27863.1
27833.1
27803.9
27775.3
27747.3
27720.1
27693.5
27667.7
27642.4
27617.9
27593.9
27570.6
27547.9
27525.8
27504.3
27483.4
27463
27443.2
27424
27405.2
27387.1
27369.4
27352.2
27335.5
27319.3
27303.5
27288.2
27273.4
27259
27245
27231.4
27218.2
27205.4
27193
27181