/*--------------------------------*- C++ -*----------------------------------*\
| =========                 |                                                 |
| \\      /  F ield         | OpenFOAM: The Open Source CFD Toolbox           |
|  \\    /   O peration     | Version:  2412                                  |
|   \\  /    A nd           | Website:  www.openfoam.com                      |
|    \\/     M anipulation  |                                                 |
\*---------------------------------------------------------------------------*/
FoamFile
{
    version     2.0;
    format      ascii;
    arch        "LSB;label=32;scalar=64";
    class       volVectorField;
    location    "7.85";
    object      U;
}
// * * * * * * * * * * * * * * * * * * * * * * * * * * * * * * * * * * * * * //

dimensions      [0 1 -1 0 0 0 0];

internalField   nonuniform List<vector> 
6400
(
(4.17146e-07 -3.21618e-07 0)
(2.44999e-06 -5.57307e-07 0)
(4.764e-06 -5.25772e-07 0)
(6.37562e-06 -3.13563e-07 0)
(6.57775e-06 -3.97424e-08 0)
(5.18095e-06 2.47392e-07 0)
(2.19126e-06 5.2382e-07 0)
(-2.3121e-06 7.75998e-07 0)
(-8.22069e-06 9.99975e-07 0)
(-1.54078e-05 1.19706e-06 0)
(-2.37504e-05 1.37187e-06 0)
(-3.31399e-05 1.53168e-06 0)
(-4.349e-05 1.68347e-06 0)
(-5.47352e-05 1.83285e-06 0)
(-6.68354e-05 1.98282e-06 0)
(-7.97602e-05 2.13459e-06 0)
(-9.34908e-05 2.28649e-06 0)
(-0.000107988 2.43531e-06 0)
(-0.000123203 2.5751e-06 0)
(-0.000139027 2.69896e-06 0)
(-0.000155321 2.79729e-06 0)
(-0.000171849 2.85929e-06 0)
(-0.000188344 2.87151e-06 0)
(-0.000204406 2.81925e-06 0)
(-0.000219623 2.688e-06 0)
(-0.000233428 2.46292e-06 0)
(-0.000245292 2.13547e-06 0)
(-0.000254517 1.69607e-06 0)
(-0.000260539 1.14968e-06 0)
(-0.000262634 4.95308e-07 0)
(-0.000260345 -2.43188e-07 0)
(-0.000253077 -1.05831e-06 0)
(-0.000240654 -1.90511e-06 0)
(-0.00022277 -2.77193e-06 0)
(-0.000199681 -3.59565e-06 0)
(-0.000171476 -4.36935e-06 0)
(-0.000138897 -5.01991e-06 0)
(-0.000102442 -5.55601e-06 0)
(-6.32761e-05 -5.90501e-06 0)
(-2.21975e-05 -6.09941e-06 0)
(1.93794e-05 -6.07594e-06 0)
(6.05444e-05 -5.89333e-06 0)
(9.98747e-05 -5.50305e-06 0)
(0.00013657 -4.98607e-06 0)
(0.00016944 -4.30916e-06 0)
(0.000197985 -3.56575e-06 0)
(0.000221428 -2.73425e-06 0)
(0.000239678 -1.90772e-06 0)
(0.000252441 -1.06862e-06 0)
(0.000260029 -2.95262e-07 0)
(0.000262585 4.32594e-07 0)
(0.000260718 1.05665e-06 0)
(0.000254868 1.59918e-06 0)
(0.00024578 2.0222e-06 0)
(0.000234008 2.35122e-06 0)
(0.000220271 2.56862e-06 0)
(0.000205093 2.704e-06 0)
(0.000189063 2.7569e-06 0)
(0.000172593 2.75693e-06 0)
(0.000156097 2.7086e-06 0)
(0.000139839 2.63078e-06 0)
(0.00012405 2.52438e-06 0)
(0.000108854 2.40081e-06 0)
(9.43534e-05 2.26348e-06 0)
(8.05993e-05 2.12299e-06 0)
(6.76443e-05 1.98326e-06 0)
(5.55196e-05 1.8482e-06 0)
(4.42643e-05 1.71412e-06 0)
(3.39148e-05 1.57532e-06 0)
(2.45262e-05 1.42266e-06 0)
(1.61722e-05 1.24869e-06 0)
(8.9546e-06 1.04742e-06 0)
(2.99435e-06 8.16222e-07 0)
(-1.57851e-06 5.54697e-07 0)
(-4.64735e-06 2.66537e-07 0)
(-6.13574e-06 -3.66477e-08 0)
(-6.0526e-06 -3.27036e-07 0)
(-4.60434e-06 -5.45142e-07 0)
(-2.41839e-06 -5.54425e-07 0)
(-4.21613e-07 -2.81099e-07 0)
(6.50633e-07 -1.78568e-06 0)
(3.92519e-06 -3.07222e-06 0)
(6.73785e-06 -2.20824e-06 0)
(7.39549e-06 3.16957e-08 0)
(4.64778e-06 2.90602e-06 0)
(-1.97796e-06 5.9797e-06 0)
(-1.25555e-05 9.00802e-06 0)
(-2.69559e-05 1.18546e-05 0)
(-4.49473e-05 1.44611e-05 0)
(-6.62472e-05 1.68209e-05 0)
(-9.05665e-05 1.89604e-05 0)
(-0.000117648 2.09228e-05 0)
(-0.000147272 2.27554e-05 0)
(-0.000179273 2.44978e-05 0)
(-0.000213515 2.61767e-05 0)
(-0.000249904 2.77989e-05 0)
(-0.000288317 2.93503e-05 0)
(-0.000328631 3.07911e-05 0)
(-0.000370608 3.20572e-05 0)
(-0.000413961 3.30574e-05 0)
(-0.000458186 3.36764e-05 0)
(-0.000502713 3.37774e-05 0)
(-0.000546653 3.32065e-05 0)
(-0.000589082 3.1806e-05 0)
(-0.000628671 2.94178e-05 0)
(-0.000664166 2.59136e-05 0)
(-0.000693845 2.11839e-05 0)
(-0.000716273 1.51929e-05 0)
(-0.00072953 7.93461e-06 0)
(-0.000732307 -4.76235e-07 0)
(-0.000722823 -9.90571e-06 0)
(-0.00070032 -2.00577e-05 0)
(-0.000663568 -3.06626e-05 0)
(-0.00061278 -4.12626e-05 0)
(-0.000547633 -5.15125e-05 0)
(-0.000469577 -6.08706e-05 0)
(-0.000379347 -6.90213e-05 0)
(-0.000279621 -7.54524e-05 0)
(-0.000172058 -7.99915e-05 0)
(-6.02399e-05 -8.22636e-05 0)
(5.36344e-05 -8.23191e-05 0)
(0.000165638 -7.99873e-05 0)
(0.000273575 -7.55628e-05 0)
(0.000373819 -6.90891e-05 0)
(0.000464717 -6.10611e-05 0)
(0.00054351 -5.16863e-05 0)
(0.000609479 -4.15624e-05 0)
(0.000661074 -3.09668e-05 0)
(0.000698641 -2.04758e-05 0)
(0.000721871 -1.03293e-05 0)
(0.000732029 -9.76029e-07 0)
(0.000729795 7.45033e-06 0)
(0.000717005 1.46768e-05 0)
(0.000694914 2.07008e-05 0)
(0.000665504 2.54299e-05 0)
(0.000630178 2.89795e-05 0)
(0.000590714 3.13971e-05 0)
(0.000548353 3.28645e-05 0)
(0.000504468 3.34976e-05 0)
(0.000459971 3.34789e-05 0)
(0.000415771 3.29279e-05 0)
(0.000372414 3.19926e-05 0)
(0.000330407 3.07726e-05 0)
(0.000290023 2.93744e-05 0)
(0.000251518 2.78613e-05 0)
(0.000215029 2.62823e-05 0)
(0.000180702 2.46456e-05 0)
(0.000148637 2.29396e-05 0)
(0.000118969 2.11271e-05 0)
(9.18468e-05 1.91649e-05 0)
(6.74771e-05 1.70059e-05 0)
(4.61062e-05 1.46142e-05 0)
(2.80185e-05 1.19696e-05 0)
(1.34961e-05 9.08182e-06 0)
(2.77902e-06 6.00714e-06 0)
(-4.00099e-06 2.87992e-06 0)
(-6.91819e-06 -4.0381e-08 0)
(-6.44717e-06 -2.28315e-06 0)
(-3.80425e-06 -3.06527e-06 0)
(-6.11618e-07 -1.70978e-06 0)
(5.86244e-07 -3.25695e-06 0)
(3.10127e-06 -4.9309e-06 0)
(3.86269e-06 -2.03996e-06 0)
(9.87886e-07 3.83969e-06 0)
(-6.9136e-06 1.11797e-05 0)
(-2.04245e-05 1.90257e-05 0)
(-3.96685e-05 2.68078e-05 0)
(-6.44966e-05 3.41959e-05 0)
(-9.46076e-05 4.10334e-05 0)
(-0.000129618 4.7287e-05 0)
(-0.000169138 5.30012e-05 0)
(-0.000212799 5.82631e-05 0)
(-0.000260298 6.31705e-05 0)
(-0.000311373 6.78087e-05 0)
(-0.000365827 7.22303e-05 0)
(-0.000423456 7.6444e-05 0)
(-0.000484076 8.04021e-05 0)
(-0.000547391 8.39955e-05 0)
(-0.000613063 8.70478e-05 0)
(-0.000680495 8.93147e-05 0)
(-0.000749009 9.04904e-05 0)
(-0.000817504 9.02116e-05 0)
(-0.000884822 8.80857e-05 0)
(-0.000949223 8.36969e-05 0)
(-0.00100903 7.66654e-05 0)
(-0.00106185 6.66394e-05 0)
(-0.00110564 5.33968e-05 0)
(-0.00113753 3.67941e-05 0)
(-0.00115545 1.69243e-05 0)
(-0.00115649 -6.0189e-06 0)
(-0.00113911 -3.15095e-05 0)
(-0.00110091 -5.89619e-05 0)
(-0.00104157 -8.74042e-05 0)
(-0.000959799 -0.000115937 0)
(-0.000857014 -0.000143279 0)
(-0.000733435 -0.000168436 0)
(-0.000592421 -0.000190082 0)
(-0.000435718 -0.000207426 0)
(-0.00026836 -0.000219399 0)
(-9.3217e-05 -0.000225678 0)
(8.3696e-05 -0.000225683 0)
(0.000259104 -0.000219701 0)
(0.000426955 -0.000207739 0)
(0.000584396 -0.000190678 0)
(0.000726295 -0.000169047 0)
(0.000850937 -0.000144142 0)
(0.000954821 -0.00011681 0)
(0.00103777 -8.84765e-05 0)
(0.00109822 -6.00232e-05 0)
(0.00113752 -3.26928e-05 0)
(0.00115585 -7.14396e-06 0)
(0.00115567 1.57716e-05 0)
(0.00113841 3.57497e-05 0)
(0.00110709 5.23984e-05 0)
(0.0010637 6.57792e-05 0)
(0.0010112 7.5903e-05 0)
(0.000951587 8.30945e-05 0)
(0.000887336 8.7616e-05 0)
(0.000820083 8.9904e-05 0)
(0.000751622 9.03103e-05 0)
(0.000683087 8.92577e-05 0)
(0.000615609 8.70767e-05 0)
(0.000549846 8.41025e-05 0)
(0.000486416 8.05735e-05 0)
(0.000425652 7.66865e-05 0)
(0.000367877 7.25417e-05 0)
(0.00031328 6.81845e-05 0)
(0.000262078 6.35886e-05 0)
(0.000214463 5.86929e-05 0)
(0.000170693 5.34061e-05 0)
(0.000131062 4.76369e-05 0)
(9.59318e-05 4.13075e-05 0)
(6.56844e-05 3.43849e-05 0)
(4.06988e-05 2.69088e-05 0)
(2.12815e-05 1.90389e-05 0)
(7.59418e-06 1.11073e-05 0)
(-4.70318e-07 3.69744e-06 0)
(-3.49992e-06 -2.20761e-06 0)
(-2.88584e-06 -5.04749e-06 0)
(-5.16599e-07 -3.27843e-06 0)
(3.53939e-07 -3.92659e-06 0)
(9.46742e-07 -4.53375e-06 0)
(-1.81472e-06 1.84342e-06 0)
(-9.77174e-06 1.28931e-05 0)
(-2.42099e-05 2.63023e-05 0)
(-4.56882e-05 4.05617e-05 0)
(-7.43046e-05 5.47281e-05 0)
(-0.000109867 6.82385e-05 0)
(-0.000152008 8.08143e-05 0)
(-0.000200277 9.23805e-05 0)
(-0.000254201 0.000102996 0)
(-0.000313353 0.000112795 0)
(-0.000377349 0.000121931 0)
(-0.000445887 0.000130539 0)
(-0.000518678 0.0001387 0)
(-0.000595485 0.000146414 0)
(-0.000675981 0.000153578 0)
(-0.000759831 0.000159979 0)
(-0.00084644 0.000165278 0)
(-0.000935148 0.000169019 0)
(-0.00102483 0.000170625 0)
(-0.0011143 0.000169437 0)
(-0.00120167 0.000164716 0)
(-0.00128509 0.00015573 0)
(-0.00136184 0.000141749 0)
(-0.00142947 0.000122194 0)
(-0.00148449 9.65872e-05 0)
(-0.00152421 6.47886e-05 0)
(-0.00154475 2.68394e-05 0)
(-0.00154378 -1.66954e-05 0)
(-0.00151767 -6.50652e-05 0)
(-0.00146526 -0.000116869 0)
(-0.00138396 -0.000170655 0)
(-0.00127462 -0.000224302 0)
(-0.00113635 -0.000275933 0)
(-0.000972502 -0.000323102 0)
(-0.000784199 -0.000364005 0)
(-0.000577243 -0.000396423 0)
(-0.000354509 -0.000419173 0)
(-0.0001236 -0.000430783 0)
(0.000111609 -0.000431083 0)
(0.000342823 -0.000419655 0)
(0.000566184 -0.000397471 0)
(0.000773993 -0.000365196 0)
(0.000963426 -0.000324769 0)
(0.00112851 -0.000277674 0)
(0.00126819 -0.000226382 0)
(0.00137893 -0.000172717 0)
(0.00146168 -0.000119115 0)
(0.0015154 -6.71975e-05 0)
(0.00154279 -1.88491e-05 0)
(0.00154481 2.49032e-05 0)
(0.00152521 6.29809e-05 0)
(0.00148619 9.5074e-05 0)
(0.00143178 0.000120905 0)
(0.00136455 0.000140779 0)
(0.00128814 0.000155011 0)
(0.00120489 0.00016428 0)
(0.00111763 0.000169214 0)
(0.00102817 0.000170608 0)
(0.000938456 0.000169146 0)
(0.000849656 0.000165534 0)
(0.000762934 0.000160331 0)
(0.000678932 0.000154025 0)
(0.000598265 0.000146941 0)
(0.000521264 0.000139303 0)
(0.000448275 0.000131192 0)
(0.000379536 0.000122602 0)
(0.000315347 0.000113443 0)
(0.00025601 0.000103583 0)
(0.000201909 9.28705e-05 0)
(0.000153468 8.1187e-05 0)
(0.00011115 6.84826e-05 0)
(7.53987e-05 5.48431e-05 0)
(4.65857e-05 4.05559e-05 0)
(2.4913e-05 2.61914e-05 0)
(1.03023e-05 1.26959e-05 0)
(2.19762e-06 1.58603e-06 0)
(-7.14921e-07 -4.79902e-06 0)
(-2.88397e-07 -4.10623e-06 0)
(7.97534e-08 -3.32943e-06 0)
(-1.8443e-06 -8.77631e-07 0)
(-8.97882e-06 1.06309e-05 0)
(-2.29596e-05 2.8321e-05 0)
(-4.48104e-05 4.91642e-05 0)
(-7.49511e-05 7.11266e-05 0)
(-0.00011338 9.29019e-05 0)
(-0.000159812 0.000113696 0)
(-0.000213804 0.000133105 0)
(-0.000274829 0.000151014 0)
(-0.000342364 0.000167499 0)
(-0.000415919 0.000182741 0)
(-0.000495085 0.000196956 0)
(-0.000579493 0.00021033 0)
(-0.000668853 0.000222966 0)
(-0.000762822 0.000234841 0)
(-0.000861082 0.000245783 0)
(-0.0009631 0.000255437 0)
(-0.0010683 0.00026327 0)
(-0.00117566 0.000268548 0)
(-0.00128408 0.000270387 0)
(-0.00139176 0.00026773 0)
(-0.00149689 0.000259469 0)
(-0.00159665 0.000244412 0)
(-0.00168849 0.000221501 0)
(-0.00176855 0.000189738 0)
(-0.00183376 0.000148522 0)
(-0.00187952 9.74627e-05 0)
(-0.00190279 3.6866e-05 0)
(-0.00189882 -3.26623e-05 0)
(-0.0018655 -0.000109573 0)
(-0.00179881 -0.000192093 0)
(-0.00169862 -0.000277401 0)
(-0.00156254 -0.000362767 0)
(-0.00139332 -0.000444509 0)
(-0.00119084 -0.000519574 0)
(-0.000961005 -0.000584209 0)
(-0.000706023 -0.000635902 0)
(-0.000434515 -0.000671721 0)
(-0.000150371 -0.000690468 0)
(0.000136202 -0.000690698 0)
(0.000420718 -0.000672947 0)
(0.000692907 -0.000637532 0)
(0.000948933 -0.000586692 0)
(0.00118 -0.000522312 0)
(0.001384 -0.000447857 0)
(0.00155477 -0.000366166 0)
(0.00169257 -0.000281117 0)
(0.00179436 -0.000195657 0)
(0.00186271 -0.000113182 0)
(0.00189746 -3.5942e-05 0)
(0.0019028 3.37861e-05 0)
(0.0018806 9.48573e-05 0)
(0.0018358 0.000146289 0)
(0.00177127 0.000188039 0)
(0.00169178 0.000220228 0)
(0.00160029 0.00024362 0)
(0.00150078 0.000259041 0)
(0.00139574 0.000267655 0)
(0.00128808 0.000270561 0)
(0.00117959 0.000268945 0)
(0.00107214 0.000263821 0)
(0.000966789 0.000256126 0)
(0.000864603 0.000246571 0)
(0.000766128 0.000235713 0)
(0.000671923 0.000223888 0)
(0.0005823 0.000211274 0)
(0.000497623 0.00019788 0)
(0.000418188 0.000183606 0)
(0.000344381 0.000168266 0)
(0.000276608 0.000151654 0)
(0.000215363 0.000133596 0)
(0.000161158 0.000114025 0)
(0.000114514 9.30669e-05 0)
(7.58783e-05 7.11399e-05 0)
(4.55378e-05 4.90492e-05 0)
(2.35017e-05 2.81032e-05 0)
(9.35331e-06 1.03299e-05 0)
(2.04854e-06 -1.2335e-06 0)
(-4.02953e-08 -3.59721e-06 0)
(-1.91347e-07 -1.25037e-06 0)
(-4.86186e-06 6.53387e-06 0)
(-1.67929e-05 2.49759e-05 0)
(-3.73126e-05 5.08002e-05 0)
(-6.70759e-05 8.03535e-05 0)
(-0.000106273 0.000111131 0)
(-0.000154725 0.000141503 0)
(-0.000212007 0.000170468 0)
(-0.000277563 0.000197517 0)
(-0.000350795 0.000222511 0)
(-0.000431112 0.000245555 0)
(-0.000518002 0.00026689 0)
(-0.000611006 0.000286797 0)
(-0.000709773 0.000305515 0)
(-0.000813942 0.000323163 0)
(-0.00092322 0.000339694 0)
(-0.00103715 0.000354834 0)
(-0.00115527 0.000368079 0)
(-0.00127673 0.000378642 0)
(-0.00140062 0.000385506 0)
(-0.00152534 0.000387372 0)
(-0.00164929 0.000382798 0)
(-0.00176979 0.000370137 0)
(-0.00188439 0.000347803 0)
(-0.00198918 0.000314163 0)
(-0.00208094 0.000267971 0)
(-0.00215466 0.000208148 0)
(-0.00220681 0.000134419 0)
(-0.00223172 4.68621e-05 0)
(-0.00222641 -5.32273e-05 0)
(-0.00218542 -0.000164168 0)
(-0.00210747 -0.000282792 0)
(-0.00198843 -0.000405801 0)
(-0.00182995 -0.000528414 0)
(-0.00163018 -0.000646323 0)
(-0.00139448 -0.000754036 0)
(-0.00112373 -0.000847371 0)
(-0.000826943 -0.000921412 0)
(-0.000507372 -0.000973338 0)
(-0.000176681 -0.000999978 0)
(0.000160548 -0.00100075 0)
(0.000491634 -0.000974905 0)
(0.000812034 -0.000924387 0)
(0.00110992 -0.00085094 0)
(0.00138217 -0.000758666 0)
(0.00161948 -0.000651213 0)
(0.00182114 -0.000533903 0)
(0.00198144 -0.000411176 0)
(0.00210244 -0.000288307 0)
(0.00218214 -0.000169264 0)
(0.00222491 -5.80982e-05 0)
(0.00223169 4.26281e-05 0)
(0.00220815 0.000130675 0)
(0.00215703 0.000205156 0)
(0.00208419 0.00026559 0)
(0.001993 0.000312512 0)
(0.00188866 0.000346732 0)
(0.00177427 0.000369656 0)
(0.00165389 0.000382755 0)
(0.00152992 0.000387726 0)
(0.00140513 0.000386137 0)
(0.0012811 0.000379507 0)
(0.00115949 0.000369099 0)
(0.00104115 0.000355975 0)
(0.000926981 0.000340902 0)
(0.000817411 0.000324406 0)
(0.000712927 0.000306748 0)
(0.000613826 0.000287984 0)
(0.000520496 0.000267993 0)
(0.000433295 0.000246543 0)
(0.000352692 0.000223357 0)
(0.000279196 0.0001982 0)
(0.000213394 0.000170972 0)
(0.000155881 0.000141824 0)
(0.000107217 0.000111276 0)
(6.78196e-05 8.0341e-05 0)
(3.78613e-05 5.06548e-05 0)
(1.71485e-05 2.472e-05 0)
(5.03376e-06 6.196e-06 0)
(2.06172e-07 -1.50952e-06 0)
(-4.40142e-07 2.36246e-06 0)
(-7.8858e-06 1.78934e-05 0)
(-2.47753e-05 4.51894e-05 0)
(-5.208e-05 8.06897e-05 0)
(-9.00125e-05 0.000120195 0)
(-0.000138452 0.000160792 0)
(-0.000196978 0.000200575 0)
(-0.000264968 0.000238382 0)
(-0.000341727 0.000273636 0)
(-0.000426554 0.000306205 0)
(-0.000518815 0.000336251 0)
(-0.000617944 0.000364092 0)
(-0.000723504 0.000390089 0)
(-0.000835097 0.000414533 0)
(-0.000952435 0.000437569 0)
(-0.00107513 0.000459099 0)
(-0.00120285 0.000478761 0)
(-0.00133492 0.000495845 0)
(-0.00147067 0.000509329 0)
(-0.0016088 0.000517802 0)
(-0.001748 0.000519601 0)
(-0.00188592 0.000512711 0)
(-0.00202037 0.000495056 0)
(-0.00214768 0.000464356 0)
(-0.00226473 0.000418633 0)
(-0.00236644 0.00035594 0)
(-0.00244904 0.000275155 0)
(-0.00250628 0.000175463 0)
(-0.00253451 5.74625e-05 0)
(-0.00252703 -7.77711e-05 0)
(-0.00248144 -0.000227247 0)
(-0.00239176 -0.000387614 0)
(-0.00225827 -0.000553399 0)
(-0.00207699 -0.000719334 0)
(-0.00185217 -0.000878254 0)
(-0.00158273 -0.0010242 0)
(-0.00127742 -0.0011499 0)
(-0.000938137 -0.00125043 0)
(-0.000577433 -0.00132017 0)
(-0.000199342 -0.00135668 0)
(0.000181374 -0.00135732 0)
(0.000559951 -0.00132291 0)
(0.000921524 -0.00125427 0)
(0.00126216 -0.00115547 0)
(0.00156903 -0.0010304 0)
(0.00184043 -0.000885535 0)
(0.00206721 -0.000726681 0)
(0.0022507 -0.000561123 0)
(0.00238619 -0.000394884 0)
(0.00247799 -0.000234322 0)
(0.0025254 -8.40592e-05 0)
(0.00253467 5.1741e-05 0)
(0.00250785 0.000170698 0)
(0.00245187 0.000271152 0)
(0.00237015 0.000352909 0)
(0.00226918 0.000416392 0)
(0.00215253 0.000462978 0)
(0.00202549 0.000494356 0)
(0.00189109 0.000512661 0)
(0.00175316 0.000520029 0)
(0.00161383 0.000518639 0)
(0.00147555 0.000510441 0)
(0.00133958 0.00049717 0)
(0.00120728 0.00048021 0)
(0.00107926 0.000460624 0)
(0.00095624 0.000439111 0)
(0.000838535 0.000416057 0)
(0.000726566 0.000391552 0)
(0.00062063 0.000365465 0)
(0.000521148 0.000337504 0)
(0.000428559 0.000307313 0)
(0.000343433 0.000274577 0)
(0.000266399 0.000239142 0)
(0.000198159 0.000201146 0)
(0.00013941 0.000161175 0)
(9.07647e-05 0.000120396 0)
(5.26302e-05 8.07277e-05 0)
(2.51233e-05 4.50916e-05 0)
(8.05798e-06 1.76998e-05 0)
(4.55089e-07 2.20032e-06 0)
(-6.60851e-07 7.48178e-06 0)
(-1.08313e-05 3.32391e-05 0)
(-3.27256e-05 7.13932e-05 0)
(-6.69416e-05 0.000118155 0)
(-0.000113188 0.000168833 0)
(-0.000170961 0.00022016 0)
(-0.000239527 0.000270018 0)
(-0.000318025 0.000317139 0)
(-0.000405572 0.000360936 0)
(-0.000501364 0.000401332 0)
(-0.00060469 0.000438582 0)
(-0.000714986 0.000473116 0)
(-0.000831777 0.000505387 0)
(-0.00095474 0.000535761 0)
(-0.00108353 0.000564388 0)
(-0.0012179 0.000591149 0)
(-0.00135738 0.000615536 0)
(-0.00150151 0.000636675 0)
(-0.00164932 0.000653201 0)
(-0.00179984 0.000663393 0)
(-0.00195116 0.00066502 0)
(-0.0021015 0.000655652 0)
(-0.00224761 0.000632451 0)
(-0.00238672 0.000592735 0)
(-0.00251398 0.000533642 0)
(-0.00262571 0.000453051 0)
(-0.00271549 0.000348985 0)
(-0.00277926 0.000220954 0)
(-0.00280952 6.89191e-05 0)
(-0.00280285 -0.000104909 0)
(-0.00275168 -0.000297802 0)
(-0.00265477 -0.00050425 0)
(-0.00250587 -0.000718632 0)
(-0.00230763 -0.000932526 0)
(-0.00205649 -0.00113843 0)
(-0.0017602 -0.00132662 0)
(-0.0014186 -0.00148977 0)
(-0.00104445 -0.00161924 0)
(-0.000640501 -0.00171007 0)
(-0.00022309 -0.00175677 0)
(0.000203432 -0.00175821 0)
(0.000621355 -0.00171322 0)
(0.0010264 -0.00162497 0)
(0.00140196 -0.00149671 0)
(0.00174549 -0.00133535 0)
(0.00204379 -0.00114759 0)
(0.00229732 -0.000942505 0)
(0.00249779 -0.000728246 0)
(0.00264912 -0.000513803 0)
(0.0027481 -0.000306421 0)
(0.00280143 -0.000112895 0)
(0.00280983 6.21255e-05 0)
(0.00278125 0.000215073 0)
(0.0027187 0.000344332 0)
(0.00263001 0.000449373 0)
(0.00251895 0.000531081 0)
(0.00239222 0.000591067 0)
(0.0022533 0.000631694 0)
(0.00210728 0.000655596 0)
(0.00195683 0.000665597 0)
(0.00180538 0.000664416 0)
(0.00165463 0.000654582 0)
(0.00150659 0.000638277 0)
(0.00136216 0.00061729 0)
(0.00122236 0.000592968 0)
(0.00108762 0.000566227 0)
(0.000958429 0.000537568 0)
(0.000835049 0.00050713 0)
(0.000717851 0.00047476 0)
(0.000607164 0.000440103 0)
(0.000503479 0.000402704 0)
(0.000407357 0.000362139 0)
(0.000319513 0.000318157 0)
(0.000240749 0.000270846 0)
(0.000171944 0.000220794 0)
(0.000113954 0.00016927 0)
(6.75035e-05 0.000118407 0)
(3.30949e-05 7.14926e-05 0)
(1.10433e-05 3.32245e-05 0)
(7.0364e-07 7.41781e-06 0)
(-8.51832e-07 1.40408e-05 0)
(-1.37035e-05 5.25374e-05 0)
(-4.06654e-05 0.000103628 0)
(-8.19362e-05 0.00016328 0)
(-0.000136658 0.00022633 0)
(-0.000203861 0.000289205 0)
(-0.000282439 0.000349644 0)
(-0.000371228 0.000406354 0)
(-0.000469144 0.000458809 0)
(-0.00057524 0.000507049 0)
(-0.000688761 0.00055148 0)
(-0.000809099 0.00059267 0)
(-0.00093584 0.000631204 0)
(-0.00106863 0.000667515 0)
(-0.00120725 0.000701798 0)
(-0.00135139 0.000733859 0)
(-0.00150077 0.000763107 0)
(-0.00165473 0.000788394 0)
(-0.00181266 0.000808122 0)
(-0.00197311 0.000820051 0)
(-0.00213477 0.000821591 0)
(-0.00229497 0.000809532 0)
(-0.00245143 0.000780636 0)
(-0.00259983 0.000731217 0)
(-0.00273683 0.000658153 0)
(-0.00285629 0.000558199 0)
(-0.0029541 0.00042953 0)
(-0.00302244 0.000270587 0)
(-0.00305726 8.22434e-05 0)
(-0.00304978 -0.000134105 0)
(-0.00299743 -0.000373718 0)
(-0.00289179 -0.00063149 0)
(-0.00273365 -0.000898522 0)
(-0.00251663 -0.00116642 0)
(-0.00224678 -0.00142334 0)
(-0.0019212 -0.00165961 0)
(-0.001552 -0.0018632 0)
(-0.0011399 -0.0020261 0)
(-0.000702139 -0.00213916 0)
(-0.000241898 -0.00219841 0)
(0.000220676 -0.00219957 0)
(0.000681575 -0.0021439 0)
(0.00112049 -0.00203281 0)
(0.00153439 -0.00187269 0)
(0.00190559 -0.00167013 0)
(0.00223367 -0.0014354 0)
(0.00250592 -0.0011784 0)
(0.00272564 -0.000910789 0)
(0.00288613 -0.000642768 0)
(0.00299423 -0.000384349 0)
(0.00304858 -0.000143256 0)
(0.00305808 7.42001e-05 0)
(0.00302477 0.00026412 0)
(0.00295787 0.000424281 0)
(0.00286101 0.000554378 0)
(0.00274239 0.000655444 0)
(0.0026058 0.000729675 0)
(0.0024577 0.000779996 0)
(0.00230123 0.000809751 0)
(0.00214095 0.000822436 0)
(0.00197905 0.000821424 0)
(0.00181836 0.000809836 0)
(0.00166012 0.000790355 0)
(0.00150585 0.000765193 0)
(0.0013561 0.000736005 0)
(0.00121158 0.000703934 0)
(0.00107252 0.000669602 0)
(0.000939297 0.000633202 0)
(0.00081212 0.000594554 0)
(0.000691369 0.000553222 0)
(0.000577461 0.000508631 0)
(0.000471016 0.000460211 0)
(0.000372786 0.000407564 0)
(0.000283719 0.000350655 0)
(0.000204888 0.00029001 0)
(0.000137455 0.000226922 0)
(8.25324e-05 0.00016367 0)
(4.10839e-05 0.000103843 0)
(1.39662e-05 5.25947e-05 0)
(9.28708e-07 1.39701e-05 0)
(-1.02154e-06 2.19948e-05 0)
(-1.65882e-05 7.58e-05 0)
(-4.88064e-05 0.000141998 0)
(-9.74193e-05 0.000216216 0)
(-0.000160907 0.000292805 0)
(-0.000237742 0.000367934 0)
(-0.000326357 0.000439291 0)
(-0.000425257 0.000505655 0)
(-0.000533114 0.000566658 0)
(-0.000648858 0.000622537 0)
(-0.000771655 0.000673899 0)
(-0.000900929 0.000721509 0)
(-0.00103624 0.000766088 0)
(-0.00117736 0.000808184 0)
(-0.00132403 0.000847995 0)
(-0.00147612 0.000885325 0)
(-0.00163321 0.000919391 0)
(-0.001795 0.000948902 0)
(-0.00196049 0.00097182 0)
(-0.00212883 0.000985628 0)
(-0.00229798 0.000987 0)
(-0.00246623 0.000972375 0)
(-0.00262999 0.000937466 0)
(-0.0027865 0.000878306 0)
(-0.00293022 0.000790461 0)
(-0.00305738 0.00067072 0)
(-0.00316038 0.000515807 0)
(-0.00323498 0.000324863 0)
(-0.00327186 9.73593e-05 0)
(-0.00326746 -0.000163532 0)
(-0.00321171 -0.000454199 0)
(-0.00310356 -0.000766329 0)
(-0.00293386 -0.00109172 0)
(-0.00270637 -0.00141725 0)
(-0.00241488 -0.00173148 0)
(-0.0020699 -0.00201904 0)
(-0.00166931 -0.00226863 0)
(-0.00123036 -0.00246673 0)
(-0.00075428 -0.00260578 0)
(-0.000263009 -0.00267732 0)
(0.000240477 -0.0026796 0)
(0.000732441 -0.00261087 0)
(0.00121001 -0.00247584 0)
(0.00165085 -0.00227967 0)
(0.00205399 -0.00203273 0)
(0.00240149 -0.00174571 0)
(0.00269594 -0.00143246 0)
(0.00292603 -0.00110612 0)
(0.00309854 -0.000780306 0)
(0.00320893 -0.000466483 0)
(0.003267 -0.000174541 0)
(0.00327315 8.83528e-05 0)
(0.003238 0.000317405 0)
(0.00316458 0.000510236 0)
(0.00306269 0.000666601 0)
(0.00293616 0.000787885 0)
(0.00279298 0.000876898 0)
(0.00263662 0.000937192 0)
(0.00247291 0.000972935 0)
(0.00230446 0.000988296 0)
(0.00213509 0.000987421 0)
(0.00196643 0.000973992 0)
(0.00180063 0.000951282 0)
(0.00163848 0.000921891 0)
(0.00148101 0.000887842 0)
(0.0013285 0.000850476 0)
(0.0011814 0.000810574 0)
(0.00103983 0.000768358 0)
(0.000904075 0.000723631 0)
(0.000774371 0.000675854 0)
(0.000651176 0.000624308 0)
(0.000535069 0.000568232 0)
(0.000426892 0.00050702 0)
(0.000327704 0.000440436 0)
(0.000238823 0.000368848 0)
(0.00016175 0.000293474 0)
(9.80639e-05 0.000216649 0)
(4.92713e-05 0.000142207 0)
(1.68654e-05 7.57695e-05 0)
(1.10415e-06 2.17976e-05 0)
(-1.18849e-06 3.13467e-05 0)
(-1.96499e-05 0.000103174 0)
(-5.75459e-05 0.000186796 0)
(-0.000114045 0.000277308 0)
(-0.00018682 0.000368547 0)
(-0.000273647 0.000456492 0)
(-0.000372427 0.000538891 0)
(-0.000481281 0.000614735 0)
(-0.000598656 0.000683932 0)
(-0.000723341 0.000747007 0)
(-0.000854488 0.000804843 0)
(-0.000991493 0.000858421 0)
(-0.00113402 0.000908655 0)
(-0.00128181 0.000956177 0)
(-0.00143479 0.00100126 0)
(-0.00159272 0.0010436 0)
(-0.0017555 0.00108237 0)
(-0.00192252 0.00111594 0)
(-0.00209332 0.00114208 0)
(-0.00226647 0.00115763 0)
(-0.00244083 0.00115899 0)
(-0.00261362 0.0011416 0)
(-0.00278275 0.00110093 0)
(-0.00294357 0.0010316 0)
(-0.00309292 0.000929192 0)
(-0.00322391 0.000788751 0)
(-0.0033326 0.000607552 0)
(-0.00340982 0.00038281 0)
(-0.00345159 0.000115519 0)
(-0.00344701 -0.000193066 0)
(-0.0033936 -0.000536361 0)
(-0.00327997 -0.000907689 0)
(-0.0031074 -0.00129404 0)
(-0.00286616 -0.00168346 0)
(-0.0025641 -0.00205797 0)
(-0.00219545 -0.00240323 0)
(-0.00177632 -0.0027009 0)
(-0.00130521 -0.00293928 0)
(-0.000804953 -0.00310469 0)
(-0.000276657 -0.00319145 0)
(0.000253074 -0.00319324 0)
(0.000782269 -0.00311184 0)
(0.00128407 -0.00294944 0)
(0.0017576 -0.0027152 0)
(0.0021793 -0.00241908 0)
(0.00255114 -0.00207598 0)
(0.00285604 -0.00170124 0)
(0.00310048 -0.00131201 0)
(0.00327559 -0.000924022 0)
(0.00339189 -0.00055149 0)
(0.00344724 -0.000205844 0)
(0.00345383 0.000104581 0)
(0.00341342 0.000374281 0)
(0.00333755 0.000600903 0)
(0.00322965 0.000784179 0)
(0.0030994 0.00092621 0)
(0.00295034 0.0010302 0)
(0.00278976 0.00110068 0)
(0.00262052 0.00114242 0)
(0.00244758 0.00116055 0)
(0.00227288 0.0011598 0)
(0.00209943 0.00114463 0)
(0.00192825 0.00111875 0)
(0.00176088 0.00108529 0)
(0.00159769 0.00104655 0)
(0.00143936 0.00100415 0)
(0.00128593 0.000958961 0)
(0.00113769 0.000911293 0)
(0.000994717 0.000860892 0)
(0.000857288 0.000807126 0)
(0.00072574 0.000749091 0)
(0.000600691 0.000685801 0)
(0.000482987 0.000616373 0)
(0.000373835 0.000540276 0)
(0.000274775 0.000457602 0)
(0.000187701 0.000369363 0)
(0.000114721 0.000277826 0)
(5.80141e-05 0.000187003 0)
(1.98879e-05 0.000103041 0)
(1.23878e-06 3.10423e-05 0)
(-1.37616e-06 4.21908e-05 0)
(-2.3141e-05 0.000135051 0)
(-6.74898e-05 0.000238639 0)
(-0.000132795 0.000347222 0)
(-0.000215674 0.000454109 0)
(-0.000313051 0.000555204 0)
(-0.000422202 0.000648486 0)
(-0.000540868 0.000733333 0)
(-0.000667272 0.000810077 0)
(-0.000800139 0.000879645 0)
(-0.000938587 0.000943244 0)
(-0.0010821 0.00100214 0)
(-0.00123032 0.00105741 0)
(-0.00138316 0.00110983 0)
(-0.00154046 0.00115967 0)
(-0.00170223 0.00120665 0)
(-0.00186815 0.0012497 0)
(-0.00203804 0.00128709 0)
(-0.00221098 0.00131609 0)
(-0.00238633 0.00133336 0)
(-0.00256206 0.0013344 0)
(-0.00273678 0.00131448 0)
(-0.00290681 0.0012677 0)
(-0.00306979 0.00118872 0)
(-0.00321988 0.00107123 0)
(-0.0033538 0.000910795 0)
(-0.00346319 0.000702367 0)
(-0.00354429 0.000444498 0)
(-0.00358632 0.000135553 0)
(-0.0035861 -0.000220539 0)
(-0.003531 -0.000619901 0)
(-0.00342029 -0.00105128 0)
(-0.00324113 -0.00150402 0)
(-0.0029981 -0.00195928 0)
(-0.002681 -0.00240082 0)
(-0.00230327 -0.00280571 0)
(-0.00185975 -0.0031577 0)
(-0.00137304 -0.00343701 0)
(-0.000841574 -0.00363324 0)
(-0.000293913 -0.00373419 0)
(0.000269728 -0.00373749 0)
(0.000818307 -0.00364065 0)
(0.00135175 -0.00345021 0)
(0.00184086 -0.00317369 0)
(0.00228765 -0.00282548 0)
(0.00266846 -0.00242136 0)
(0.00298912 -0.00198109 0)
(0.00323502 -0.0015246 0)
(0.00341728 -0.00107108 0)
(0.00353019 -0.00063724 0)
(0.00358758 -0.000235948 0)
(0.00358931 0.000123005 0)
(0.00354886 0.000434194 0)
(0.00346866 0.00069469 0)
(0.0033602 0.000905162 0)
(0.0032267 0.00106771 0)
(0.003077 0.0011868 0)
(0.00291402 0.0012673 0)
(0.00274395 0.00131519 0)
(0.00256893 0.00133607 0)
(0.00239291 0.00133569 0)
(0.00221716 0.00131892 0)
(0.00204387 0.00129023 0)
(0.00187357 0.00125301 0)
(0.00170727 0.00121002 0)
(0.00154506 0.00116302 0)
(0.00138734 0.00111309 0)
(0.00123405 0.00106053 0)
(0.00108539 0.0010051 0)
(0.000941462 0.000946024 0)
(0.00080262 0.000882222 0)
(0.000669383 0.00081243 0)
(0.000542639 0.00073543 0)
(0.000423657 0.000650291 0)
(0.000314208 0.000556684 0)
(0.000216568 0.000455238 0)
(0.000133458 0.000347978 0)
(6.79076e-05 0.000238982 0)
(2.3327e-05 0.000134971 0)
(1.39115e-06 4.19209e-05 0)
(-1.61618e-06 5.4787e-05 0)
(-2.74457e-05 0.000172218 0)
(-7.95379e-05 0.000298618 0)
(-0.000155063 0.000427053 0)
(-0.000249203 0.000550338 0)
(-0.000357847 0.000664546 0)
(-0.000477603 0.000768148 0)
(-0.000605848 0.000861135 0)
(-0.00074068 0.000944437 0)
(-0.000880797 0.00101948 0)
(-0.0010254 0.00108788 0)
(-0.00117401 0.00115117 0)
(-0.0013264 0.00121065 0)
(-0.00148243 0.00126717 0)
(-0.00164213 0.00132107 0)
(-0.00180534 0.00137194 0)
(-0.00197206 0.0014187 0)
(-0.00214172 0.00145923 0)
(-0.00231403 0.00149071 0)
(-0.0024876 0.00150905 0)
(-0.00266162 0.00150971 0)
(-0.00283336 0.00148668 0)
(-0.00300124 0.0014342 0)
(-0.00316065 0.00134508 0)
(-0.00330913 0.00121353 0)
(-0.00343967 0.00103262 0)
(-0.00354918 0.000798561 0)
(-0.00362789 0.000506776 0)
(-0.00367275 0.000158081 0)
(-0.00367125 -0.000247276 0)
(-0.00362158 -0.000701214 0)
(-0.00350915 -0.00119634 0)
(-0.00333555 -0.00171532 0)
(-0.00308623 -0.00224254 0)
(-0.00277028 -0.00275215 0)
(-0.00237752 -0.00322374 0)
(-0.00192856 -0.00363056 0)
(-0.00141848 -0.00395674 0)
(-0.000876548 -0.00418306 0)
(-0.000300257 -0.00430196 0)
(0.00027595 -0.00430449 0)
(0.00085345 -0.00419309 0)
(0.00139734 -0.00397093 0)
(0.00191046 -0.00365037 0)
(0.00236252 -0.0032456 0)
(0.00275916 -0.00277683 0)
(0.00307833 -0.00226673 0)
(0.00333118 -0.00173951 0)
(0.00350727 -0.00121815 0)
(0.00362234 -0.000721246 0)
(0.00367365 -0.000264108 0)
(0.00367692 0.000143763 0)
(0.00363303 0.000495622 0)
(0.00355542 0.000789862 0)
(0.00344639 0.00102657 0)
(0.00331642 0.00120952 0)
(0.00316802 0.00134305 0)
(0.00300873 0.00143367 0)
(0.00284061 0.00148749 0)
(0.00266866 0.00151148 0)
(0.00249424 0.00151162 0)
(0.00232031 0.00149381 0)
(0.00214758 0.00146271 0)
(0.00197755 0.00142239 0)
(0.00181042 0.00137573 0)
(0.0016468 0.00132486 0)
(0.00148666 0.00127089 0)
(0.0013302 0.00121425 0)
(0.00117738 0.00115462 0)
(0.00102837 0.00109115 0)
(0.000883366 0.00102254 0)
(0.000742871 0.000947255 0)
(0.000607678 0.000863671 0)
(0.000479095 0.000770358 0)
(0.00035902 0.000666392 0)
(0.00025009 0.000551787 0)
(0.000155678 0.000428061 0)
(7.98903e-05 0.000299145 0)
(2.76179e-05 0.000172277 0)
(1.63327e-06 5.45876e-05 0)
(-1.97561e-06 6.96692e-05 0)