/*--------------------------------*- C++ -*----------------------------------*\
| =========                 |                                                 |
| \\      /  F ield         | OpenFOAM: The Open Source CFD Toolbox           |
|  \\    /   O peration     | Version:  2412                                  |
|   \\  /    A nd           | Website:  www.openfoam.com                      |
|    \\/     M anipulation  |                                                 |
\*---------------------------------------------------------------------------*/
FoamFile
{
    version     2.0;
    format      ascii;
    arch        "LSB;label=32;scalar=64";
    class       volScalarField;
    location    "6.4";
    object      p;
}
// * * * * * * * * * * * * * * * * * * * * * * * * * * * * * * * * * * * * * //

dimensions      [1 -1 -2 0 0 0 0];

internalField   nonuniform List<scalar> 
6400
(
9639.73
9639.8
9639.92
9640.09
9640.29
9640.5
9640.69
9640.84
9640.89
9640.8
9640.53
9640.03
9639.23
9638.08
9636.49
9634.43
9631.83
9628.64
9624.81
9620.31
9615.12
9609.24
9602.67
9595.47
9587.69
9579.41
9570.75
9561.81
9552.75
9543.71
9534.88
9526.41
9518.47
9511.24
9504.86
9499.47
9495.19
9492.12
9490.32
9489.83
9490.67
9492.8
9496.18
9500.73
9506.34
9512.89
9520.23
9528.2
9536.63
9545.35
9554.2
9563
9571.61
9579.91
9587.78
9595.13
9601.9
9608.04
9613.54
9618.38
9622.59
9626.19
9629.25
9631.8
9633.91
9635.63
9637.03
9638.16
9639.08
9639.81
9640.41
9640.89
9641.28
9641.6
9641.86
9642.07
9642.24
9642.36
9642.44
9642.47
9149.16
9149.23
9149.37
9149.55
9149.78
9150.01
9150.24
9150.42
9150.52
9150.48
9150.27
9149.82
9149.07
9147.97
9146.46
9144.46
9141.91
9138.77
9134.98
9130.5
9125.31
9119.41
9112.81
9105.54
9097.68
9089.3
9080.5
9071.43
9062.21
9053.01
9044.01
9035.37
9027.27
9019.88
9013.36
9007.86
9003.48
9000.34
8998.5
8998.01
8998.86
9001.05
9004.51
9009.16
9014.91
9021.6
9029.1
9037.24
9045.84
9054.73
9063.73
9072.68
9081.42
9089.83
9097.79
9105.21
9112.02
9118.19
9123.68
9128.5
9132.68
9136.24
9139.24
9141.74
9143.79
9145.45
9146.78
9147.88
9148.75
9149.45
9150.01
9150.47
9150.84
9151.15
9151.4
9151.6
9151.76
9151.88
9151.96
9152
8658.52
8658.6
8658.75
8658.97
8659.24
8659.53
8659.83
8660.09
8660.27
8660.34
8660.24
8659.9
8659.28
8658.31
8656.92
8655.04
8652.6
8649.55
8645.83
8641.39
8636.21
8630.27
8623.6
8616.21
8608.18
8599.59
8590.55
8581.19
8571.66
8562.13
8552.78
8543.79
8535.36
8527.66
8520.86
8515.11
8510.54
8507.26
8505.34
8504.82
8505.72
8508.01
8511.64
8516.51
8522.52
8529.51
8537.34
8545.82
8554.76
8563.99
8573.32
8582.56
8591.58
8600.19
8608.33
8615.88
8622.78
8628.98
8634.47
8639.26
8643.37
8646.85
8649.74
8652.12
8654.05
8655.6
8656.85
8657.82
8658.6
8659.22
8659.72
8660.13
8660.46
8660.74
8660.97
8661.16
8661.32
8661.43
8661.51
8661.54
8167.79
8167.88
8168.07
8168.33
8168.66
8169.04
8169.44
8169.82
8170.14
8170.36
8170.43
8170.27
8169.84
8169.07
8167.87
8166.17
8163.91
8161
8157.39
8153.02
8147.85
8141.87
8135.09
8127.52
8119.24
8110.32
8100.9
8091.1
8081.09
8071.05
8061.17
8051.66
8042.72
8034.54
8027.31
8021.19
8016.32
8012.82
8010.77
8010.23
8011.19
8013.64
8017.52
8022.72
8029.13
8036.59
8044.91
8053.92
8063.4
8073.15
8082.97
8092.67
8102.08
8111.05
8119.44
8127.19
8134.21
8140.47
8145.96
8150.68
8154.69
8158.02
8160.75
8162.95
8164.7
8166.06
8167.12
8167.95
8168.59
8169.1
8169.51
8169.84
8170.13
8170.37
8170.57
8170.75
8170.89
8171
8171.08
8171.11
7676.96
7677.07
7677.29
7677.62
7678.04
7678.53
7679.06
7679.6
7680.11
7680.53
7680.83
7680.92
7680.75
7680.24
7679.31
7677.88
7675.85
7673.15
7669.71
7665.44
7660.31
7654.27
7647.34
7639.54
7630.92
7621.57
7611.62
7601.23
7590.55
7579.81
7569.2
7558.96
7549.31
7540.47
7532.64
7526
7520.72
7516.92
7514.7
7514.11
7515.17
7517.84
7522.06
7527.73
7534.69
7542.79
7551.81
7561.54
7571.76
7582.23
7592.74
7603.06
7613.02
7622.46
7631.19
7639.21
7646.39
7652.72
7658.18
7662.82
7666.66
7669.79
7672.28
7674.23
7675.71
7676.83
7677.66
7678.26
7678.72
7679.07
7679.36
7679.6
7679.82
7680.01
7680.19
7680.34
7680.48
7680.59
7680.67
7680.7
7186
7186.14
7186.41
7186.81
7187.33
7187.96
7188.66
7189.4
7190.14
7190.83
7191.41
7191.82
7191.99
7191.83
7191.25
7190.16
7188.46
7186.05
7182.83
7178.72
7173.64
7167.57
7160.47
7152.36
7143.31
7133.41
7122.79
7111.61
7100.08
7088.42
7076.86
7065.67
7055.1
7045.39
7036.77
7029.46
7023.63
7019.44
7016.99
7016.34
7017.52
7020.48
7025.15
7031.42
7039.12
7048.05
7057.99
7068.67
7079.86
7091.27
7102.67
7113.81
7124.48
7134.5
7143.71
7152.04
7159.42
7165.81
7171.23
7175.71
7179.34
7182.18
7184.35
7185.95
7187.09
7187.87
7188.39
7188.72
7188.94
7189.1
7189.23
7189.37
7189.51
7189.65
7189.8
7189.94
7190.08
7190.2
7190.28
7190.32
6694.91
6695.07
6695.39
6695.88
6696.52
6697.31
6698.21
6699.2
6700.22
6701.23
6702.16
6702.96
6703.54
6703.82
6703.69
6703.05
6701.78
6699.75
6696.84
6692.94
6687.97
6681.86
6674.58
6666.12
6656.55
6645.96
6634.5
6622.35
6609.73
6596.91
6584.16
6571.76
6560.02
6549.2
6539.59
6531.43
6524.91
6520.22
6517.47
6516.75
6518.07
6521.4
6526.65
6533.68
6542.31
6552.31
6563.4
6575.3
6587.71
6600.32
6612.84
6625
6636.56
6647.31
6657.1
6665.81
6673.4
6679.85
6685.18
6689.45
6692.76
6695.23
6696.97
6698.11
6698.8
6699.15
6699.27
6699.26
6699.19
6699.13
6699.09
6699.11
6699.17
6699.26
6699.38
6699.53
6699.68
6699.81
6699.91
6699.96
6203.66
6203.82
6204.21
6204.78
6205.56
6206.52
6207.66
6208.94
6210.29
6211.67
6213.03
6214.29
6215.38
6216.2
6216.64
6216.56
6215.83
6214.3
6211.81
6208.23
6203.43
6197.32
6189.84
6180.98
6170.79
6159.37
6146.88
6133.53
6119.58
6105.32
6091.08
6077.19
6063.99
6051.82
6040.97
6031.73
6024.35
6019.03
6015.92
6015.1
6016.6
6020.38
6026.35
6034.34
6044.13
6055.46
6067.99
6081.41
6095.34
6109.44
6123.35
6136.78
6149.42
6161.06
6171.53
6180.67
6188.5
6194.98
6200.15
6204.13
6207.02
6208.97
6210.15
6210.72
6210.83
6210.64
6210.27
6209.84
6209.43
6209.1
6208.88
6208.77
6208.76
6208.82
6208.93
6209.09
6209.27
6209.44
6209.57
6209.64
5712.22
5712.37
5712.82
5713.47
5714.39
5715.56
5716.97
5718.57
5720.31
5722.12
5723.96
5725.77
5727.46
5728.94
5730.07
5730.7
5730.67
5729.78
5727.85
5724.7
5720.17
5714.11
5706.45
5697.15
5686.24
5673.83
5660.11
5645.3
5629.72
5613.71
5597.65
5581.93
5566.95
5553.09
5540.72
5530.17
5521.73
5515.63
5512.06
5511.11
5512.83
5517.16
5524.01
5533.18
5544.41
5557.37
5571.7
5586.98
5602.79
5618.71
5634.34
5649.29
5663.25
5675.95
5687.2
5696.85
5704.9
5711.36
5716.29
5719.84
5722.16
5723.45
5723.91
5723.74
5723.13
5722.26
5721.3
5720.35
5719.54
5718.91
5718.5
5718.29
5718.24
5718.29
5718.41
5718.61
5718.85
5719.09
5719.27
5719.39
5220.59
5220.68
5221.2
5221.91
5222.97
5224.35
5226.05
5228.04
5230.21
5232.5
5234.89
5237.32
5239.72
5241.98
5243.96
5245.48
5246.32
5246.26
5245.08
5242.53
5238.39
5232.48
5224.67
5214.89
5203.16
5189.59
5174.38
5157.82
5140.27
5122.13
5103.86
5085.91
5068.76
5052.86
5038.64
5026.49
5016.75
5009.7
5005.55
5004.44
5006.41
5011.41
5019.33
5029.94
5042.93
5057.91
5074.42
5091.99
5110.1
5128.25
5145.95
5162.77
5178.3
5192.25
5204.39
5214.6
5222.85
5229.2
5233.76
5236.71
5238.28
5238.7
5238.24
5237.13
5235.63
5233.93
5232.23
5230.68
5229.4
5228.45
5227.85
5227.58
5227.54
5227.62
5227.79
5228.07
5228.41
5228.79
5229.03
5229.22
4728.78
4728.75
4729.3
4730.05
4731.21
4732.8
4734.82
4737.27
4739.9
4742.72
4745.7
4748.84
4752.06
4755.26
4758.26
4760.87
4762.81
4763.83
4763.62
4761.88
4758.33
4752.71
4744.81
4734.53
4721.87
4706.94
4689.98
4671.31
4651.38
4630.67
4609.72
4589.08
4569.31
4550.94
4534.49
4520.39
4509.06
4500.84
4495.98
4494.65
4496.91
4502.72
4511.94
4524.31
4539.44
4556.88
4576.06
4596.42
4617.33
4638.18
4658.41
4677.46
4694.87
4710.28
4723.45
4734.23
4742.63
4748.74
4752.74
4754.88
4755.45
4754.75
4753.12
4750.85
4748.23
4745.52
4742.93
4740.66
4738.83
4737.53
4736.78
4736.53
4736.6
4736.8
4737.03
4737.46
4737.94
4738.56
4738.91
4739.21
4236.86
4236.79
4237.01
4237.8
4238.98
4240.75
4243.11
4246.16
4249.27
4252.63
4256.27
4260.19
4264.36
4268.66
4272.89
4276.83
4280.15
4282.53
4283.6
4282.98
4280.27
4275.12
4267.25
4256.49
4242.8
4226.28
4207.22
4186.02
4163.23
4139.42
4115.25
4091.37
4068.44
4047.11
4027.95
4011.5
3998.24
3988.56
3982.81
3981.18
3983.77
3990.56
4001.37
4015.88
4033.63
4054.06
4076.49
4100.23
4124.54
4148.68
4171.95
4193.7
4213.35
4230.47
4244.78
4256.14
4264.58
4270.28
4273.47
4274.5
4273.75
4271.62
4268.51
4264.79
4260.8
4256.86
4253.21
4250.08
4247.63
4245.96
4245.1
4244.99
4245.37
4245.79
4246.04
4246.71
4247.48
4248.51
4248.96
4249.42
3745.3
3745.33
3745.09
3745.01
3745.99
3747.83
3750.6
3754.39
3758.18
3762.15
3766.45
3771.21
3776.46
3782.05
3787.72
3793.31
3798.35
3802.45
3805.18
3806.05
3804.54
3800.15
3792.49
3781.3
3766.45
3748.07
3726.51
3702.28
3676.04
3648.51
3620.45
3592.68
3565.97
3541.09
3518.68
3499.38
3483.76
3472.29
3465.39
3463.34
3466.3
3474.25
3487.02
3504.15
3525.11
3549.17
3575.56
3603.4
3631.82
3659.94
3686.9
3711.89
3734.22
3753.33
3768.9
3780.81
3789.15
3794.15
3796.2
3795.74
3793.27
3789.31
3784.35
3778.84
3773.18
3767.73
3762.82
3758.71
3755.53
3753.44
3752.51
3752.7
3753.5
3754.22
3754.44
3755.59
3757.09
3758.68
3759.89
3760.38
3254.32
3254.86
3252.99
3251.55
3252
3253.67
3256.71
3261.45
3266.18
3270.91
3275.96
3281.62
3288.07
3295.22
3302.67
3310.19
3317.32
3323.6
3328.5
3331.38
3331.55
3328.32
3321.1
3309.66
3293.49
3272.91
3248.34
3220.45
3190.06
3158.05
3125.34
3092.88
3061.62
3032.55
3006.23
2983.55
2965.08
2951.41
2943.03
2940.36
2943.65
2953.02
2968.23
2988.53
3013.37
3041.87
3073.04
3105.86
3139.24
3172.16
3203.59
3232.52
3258.05
3279.48
3296.45
3308.85
3316.85
3320.79
3321.23
3318.77
3314.08
3307.8
3300.54
3292.82
3285.11
3277.85
3271.37
3266.11
3262.06
3259.41
3258.14
3258.31
3259.8
3261.27
3261.69
3263.81
3266.35
3269.21
3272.23
3272.62
2758.18
2755.13
2753.13
2754.2
2756.93
2758.48
2761.05
2766.42
2772.11
2777.66
2783.79
2790.69
2798.51
2807.38
2817.13
2826.92
2836.69
2845.8
2853.55
2859.15
2861.7
2860.24
2853.9
2842.34
2824.74
2801.55
2773.35
2741.04
2705.63
2668.24
2629.95
2591.84
2555.01
2520.66
2490.14
2463.58
2441.73
2425.32
2415
2411.38
2414.9
2425.96
2444.41
2468.39
2497.98
2531.73
2568.63
2607.45
2646.87
2685.62
2722.5
2756.23
2785.62
2809.78
2828.27
2841.01
2848.29
2850.64
2848.83
2843.72
2836.15
2826.94
2816.78
2806.24
2795.78
2786.09
2777.98
2771.1
2766.26
2762.97
2760.96
2760.89
2763.7
2766.91
2768.21
2771.64
2774.51
2776.63
2780.32
2782.69
2256
2241.92
2240.12
2250.03
2259.54
2261.32
2262.4
2268.36
2275.99
2282.46
2289.4
2297.53
2306.78
2317.21
2329.13
2342.04
2355.48
2368.48
2380.15
2389.55
2395.52
2396.77
2392.06
2380.48
2361.44
2335.12
2302.5
2264.78
2223.28
2179.39
2134.42
2089.54
2046.01
2005.67
1970.31
1939.14
1913.11
1893.26
1880.48
1875.57
1879.2
1892.82
1914.33
1942.75
1978.52
2018.52
2062.39
2108.36
2154.91
2200.58
2244.32
2284.05
2318.23
2345.61
2365.66
2378.42
2384.38
2384.33
2379.35
2370.64
2359.29
2346.3
2332.44
2318.22
2304.11
2290.97
2280.07
2272.42
2267.57
2264.25
2262.18
2262.32
2266.71
2271.19
2273.8
2278.73
2279.38
2275.19
2277.86
2288.3
1760.34
1738.94
1734.84
1749.97
1762.64
1762.7
1760.64
1768.06
1778.94
1786.94
1794.45
1803.3
1813.67
1825.41
1839.28
1855.68
1873.61
1891.55
1908.29
1922.69
1933.32
1938.5
1936.44
1925.56
1905.07
1874.89
1836.78
1792.43
1743.53
1691.9
1639.09
1586.1
1536.31
1489.81
1447.16
1409.91
1378.77
1354.94
1339.4
1332.84
1336.36
1352.45
1377.75
1411.97
1453.42
1501.01
1553.56
1608.88
1664.28
1718.15
1770.07
1817.22
1857.25
1888.35
1909.93
1922.2
1925.89
1922.21
1912.79
1899.31
1883.3
1865.9
1847.85
1829.62
1811.86
1795.75
1783.01
1774.39
1769.15
1765.94
1764.5
1765.33
1768.83
1773.07
1777.29
1785.86
1785.54
1776.15
1778.43
1796.77
1276.48
1258.06
1253.74
1264.73
1273.32
1266.79
1262.5
1269.17
1281.59
1290.98
1299.34
1309.28
1321.21
1334.99
1351.16
1370.53
1392.61
1415.74
1438.39
1459.03
1475.79
1486.46
1488.55
1479.73
1457.51
1422.39
1377.17
1324.43
1266.47
1205.66
1143.36
1081.22
1021.3
967.476
918.173
874.208
837.007
807.648
787.193
777.331
780.548
798.61
829.343
871.763
921.056
977.507
1039.37
1104.81
1171.77
1239.43
1299.61
1355.97
1403.75
1439.5
1462.44
1473.29
1473.37
1464.5
1449.19
1429.89
1408.5
1386.23
1363.78
1341.83
1321.29
1303.42
1289.71
1279.6
1272.84
1268.94
1267.44
1267.58
1269.61
1273.58
1281.72
1295.71
1301.27
1294.1
1298.03
1316.49
796.077
783.175
782.553
789.092
791.059
779.227
770.419
774.004
784.371
793.233
802.353
813.939
828.279
845.329
864.717
887.485
913.682
942.354
972.141
1000.9
1025.79
1043.7
1051.28
1044.78
1020.43
977.76
922.576
858.929
789.669
717.642
643.953
568.03
496.37
435.344
384.098
341.253
305.348
275.994
253.61
241.285
242.228
259.602
291.071
334.34
389.249
451.949
521.036
596.651
672.387
746.981
826.349
897.981
957.267
999.603
1024.29
1032.93
1028.04
1012.99
991.184
965.552
938.273
910.512
882.78
856.152
832.635
813.345
798.261
784.732
774.212
767.602
765.085
766.12
770.241
778.604
794.275
814.823
827.482
826.798
829.987
844.588
330.644
322.122
317.685
319.307
320.39
312.215
304.928
305.245
309.719
314.368
320.74
330.45
343.7
360.918
381.356
405.117
434.547
469.354
508.008
547.624
583.434
610.925
625.787
622.315
594.618
542.927
479.356
406.889
332.852
264.742
201.249
145.772
103.266
74.6425
53.9613
38.4361
26.8073
18.5692
13.1436
10.6651
10.8925
15.7633
25.7186
40.5489
61.1175
87.8076
122.045
172.081
234.86
304.033
380.84
452.023
523.626
572.98
597.508
601.318
589.281
566.886
537.97
505.031
470.61
437.384
407.841
381.508
357.295
336.032
319.927
303.699
291.171
284.522
284.288
288.943
297.684
311.633
331.242
351.935
363.916
367.106
373.488
384.264
49.6241
45.5696
40.5634
38.7211
38.7951
36.9205
36.7365
37.9653
38.3943
38.3924
39.2471
42.0743
46.9329
53.2191
60.5519
71.558
87.2692
107.958
134.097
165.794
198.846
228.575
250.694
259.592
250.293
203.045
142.372
90.3613
48.6321
19.1592
-0.812767
-7.36832
-7.59004
-7.84233
-8.09567
-8.13355
-8.04284
-7.94851
-7.85585
-7.76759
-7.72811
-7.57403
-7.40587
-7.47845
-7.71597
-7.91208
-7.75331
-3.14444
15.2976
42.0539
83.4192
139.655
189.463
220.337
230.841
224.187
206.927
184.752
160.457
135.269
111.212
91.0629
76.4323
64.8878
54.9348
45.4237
37.2654
31.1135
27.4119
26.033
26.939
29.1884
32.7166
38.4306
46.8201
55.7192
61.2018
64.509
70.7357
77.0504
-9.78671
-9.77816
-9.76588
-9.75731
-9.85117
-9.97187
-10.092
-10.1768
-10.1779
-10.0731
-9.98762
-10.0355
-10.1769
-10.232
-10.2038
-10.1276
-9.99321
-9.53087
-7.75148
-3.01908
5.17573
16.0966
27.931
36.6265
34.6523
17.0196
0.186317
-7.24058
-9.0116
-8.77725
-9.02938
-9.15622
-8.77895
-8.81626
-8.88743
-8.83338
-8.70552
-8.60398
-8.53716
-8.51113
-8.51633
-8.46128
-8.34099
-8.41962
-8.60175
-8.6859
-8.74884
-9.07365
-9.65926
-10.0695
-9.93669
-4.12429
7.3973
17.8053
19.2467
13.9879
6.80604
0.519804
-3.88909
-6.25854
-7.21063
-7.55244
-7.6654
-7.69693
-7.70802
-7.72171
-7.74795
-7.77576
-7.8242
-7.9155
-8.00709
-8.09668
-8.16381
-8.21607
-8.30081
-8.39371
-8.39418
-8.37897
-8.4205
-8.43263
-10.2831
-10.286
-10.2762
-10.2804
-10.3748
-10.5401
-10.7348
-10.8649
-10.8758
-10.7745
-10.6614
-10.6539
-10.7278
-10.752
-10.7254
-10.6895
-10.6652
-10.6969
-10.7863
-10.8548
-10.8954
-10.9856
-11.2298
-11.6054
-11.6051
-11.2483
-10.8428
-10.3724
-10.1356
-9.79342
-9.80324
-9.85889
-9.79284
-9.76097
-9.73401
-9.65058
-9.50567
-9.38594
-9.32368
-9.34731
-9.40374
-9.39066
-9.2959
-9.24576
-9.32477
-9.45406
-9.68132
-10.0036
-10.3338
-10.8223
-11.8666
-13.5088
-14.4942
-14.8867
-14.7754
-13.9848
-13.1238
-12.1486
-10.998
-9.84416
-9.00506
-8.57621
-8.42367
-8.35508
-8.3125
-8.28914
-8.29152
-8.31569
-8.36574
-8.44332
-8.5364
-8.63374
-8.71112
-8.77195
-8.84554
-8.9296
-8.96004
-8.9434
-8.93757
-8.92613
-10.789
-10.7851
-10.7655
-10.8066
-10.9381
-11.1678
-11.4446
-11.6515
-11.7015
-11.6128
-11.4395
-11.3023
-11.2645
-11.2508
-11.2243
-11.2034
-11.197
-11.2186
-11.2706
-11.3299
-11.3893
-11.4678
-11.6022
-11.7754
-11.8324
-11.7118
-11.4097
-11.0461
-10.7794
-10.5492
-10.5854
-10.6685
-10.6706
-10.5856
-10.4756
-10.3718
-10.2261
-10.1062
-10.0537
-10.0832
-10.1674
-10.1593
-10.0739
-9.97978
-9.98626
-10.0984
-10.3172
-10.65
-11.074
-11.6753
-12.5229
-13.4537
-14.194
-14.5226
-14.4877
-14.0529
-13.3481
-12.4875
-11.5259
-10.6129
-9.89666
-9.43672
-9.18785
-9.07172
-9.01066
-8.97251
-8.94898
-8.93921
-8.95322
-8.9998
-9.0827
-9.18679
-9.28147
-9.35323
-9.42082
-9.48372
-9.50714
-9.50525
-9.47948
-9.43538
-11.2975
-11.2737
-11.2387
-11.3072
-11.4961
-11.7984
-12.118
-12.3254
-12.3994
-12.3384
-12.1554
-11.9131
-11.7707
-11.7311
-11.7149
-11.7086
-11.7111
-11.7281
-11.7651
-11.8102
-11.8437
-11.8648
-11.9298
-12.0752
-12.198
-12.1464
-11.9022
-11.5935
-11.3683
-11.2172
-11.304
-11.4388
-11.4699
-11.3472
-11.1473
-11.0032
-10.8429
-10.7153
-10.6614
-10.6743
-10.7111
-10.7569
-10.7584
-10.7362
-10.7683
-10.8655
-11.0207
-11.2811
-11.6624
-12.1939
-12.8878
-13.6029
-14.1426
-14.4058
-14.3744
-14.0816
-13.579
-12.9193
-12.1543
-11.3891
-10.7465
-10.3053
-10.0463
-9.90769
-9.83419
-9.79043
-9.7502
-9.70369
-9.65454
-9.63102
-9.66889
-9.76251
-9.86551
-9.93798
-10.0009
-10.0608
-10.1017
-10.1094
-10.0715
-10.0055
-11.8492
-11.8387
-11.794
-11.826
-12.0132
-12.3478
-12.6744
-12.8812
-12.966
-12.9166
-12.7415
-12.4754
-12.2645
-12.206
-12.2007
-12.2069
-12.2193
-12.2369
-12.2716
-12.3141
-12.339
-12.3464
-12.4086
-12.5647
-12.7062
-12.6954
-12.5152
-12.2526
-12.0517
-11.921
-11.9539
-12.0399
-12.049
-11.9405
-11.7502
-11.5646
-11.4033
-11.273
-11.2066
-11.2066
-11.249
-11.3442
-11.4461
-11.5161
-11.583
-11.6584
-11.8057
-12.0399
-12.3688
-12.8091
-13.3429
-13.8919
-14.3224
-14.5427
-14.5381
-14.3456
-13.9897
-13.4865
-12.8658
-12.211
-11.6154
-11.1725
-10.8977
-10.7414
-10.6627
-10.6283
-10.6039
-10.5658
-10.4803
-10.3726
-10.3326
-10.3711
-10.465
-10.5326
-10.5811
-10.6442
-10.7135
-10.7378
-10.7137
-10.6584
-12.4795
-12.4935
-12.4904
-12.5123
-12.6398
-12.8829
-13.1507
-13.3443
-13.4151
-13.3604
-13.1936
-12.9623
-12.7468
-12.6853
-12.692
-12.7091
-12.7267
-12.7431
-12.7804
-12.8361
-12.8893
-12.9375
-13.0268
-13.1917
-13.3368
-13.3478
-13.208
-12.9762
-12.7796
-12.6384
-12.5568
-12.5266
-12.4933
-12.3965
-12.2435
-12.0864
-11.9418
-11.8234
-11.7594
-11.7551
-11.8415
-11.9849
-12.1333
-12.253
-12.3319
-12.4275
-12.5843
-12.8134
-13.1307
-13.5506
-14.0318
-14.4872
-14.8267
-14.9928
-14.9893
-14.8342
-14.5561
-14.1549
-13.635
-13.0449
-12.4711
-12.0176
-11.7109
-11.5271
-11.4335
-11.3944
-11.372
-11.3607
-11.3014
-11.1504
-11.0607
-11.0365
-11.0883
-11.1412
-11.1704
-11.2294
-11.311
-11.3554
-11.3737
-11.3272
-13.1463
-13.1838
-13.2336
-13.3043
-13.4072
-13.5354
-13.6767
-13.7621
-13.7694
-13.6916
-13.5448
-13.3696
-13.2189
-13.1665
-13.1857
-13.2118
-13.232
-13.25
-13.2912
-13.3584
-13.4392
-13.5202
-13.6275
-13.7937
-13.9417
-13.9783
-13.8608
-13.6485
-13.4422
-13.2784
-13.1255
-13.0077
-12.9357
-12.8441
-12.7279
-12.6084
-12.4941
-12.3982
-12.3436
-12.3702
-12.5012
-12.6612
-12.8081
-12.9227
-13.0208
-13.1515
-13.333
-13.5792
-13.9147
-14.3538
-14.805
-15.1805
-15.4371
-15.5603
-15.5578
-15.4498
-15.235
-14.8874
-14.413
-13.8573
-13.3039
-12.849
-12.5262
-12.3195
-12.1944
-12.1308
-12.0894
-12.0629
-12.0189
-11.9077
-11.7894
-11.7336
-11.738
-11.762
-11.7716
-11.8079
-11.8674
-11.933
-11.9921
-11.955
-13.7739
-13.8207
-13.8778
-13.9775
-14.1138
-14.2398
-14.2976
-14.2426
-14.1242
-13.9966
-13.8753
-13.7631
-13.684
-13.6629
-13.687
-13.718
-13.7382
-13.7666
-13.8102
-13.8702
-13.9351
-14.0151
-14.1475
-14.3159
-14.4543
-14.5081
-14.4195
-14.2249
-14.0097
-13.8184
-13.6465
-13.5087
-13.4148
-13.3301
-13.2408
-13.155
-13.0796
-13.0074
-12.9873
-13.0468
-13.1835
-13.3267
-13.4465
-13.5569
-13.6838
-13.8442
-14.0572
-14.3387
-14.7131
-15.1683
-15.5802
-15.8901
-16.085
-16.1744
-16.1824
-16.1217
-15.9511
-15.6404
-15.1951
-14.6575
-14.1201
-13.674
-13.3524
-13.1278
-12.9727
-12.8741
-12.8052
-12.7479
-12.6842
-12.6133
-12.5027
-12.421
-12.3867
-12.3793
-12.3756
-12.3875
-12.4249
-12.4893
-12.5327
-12.5427
-14.3451
-14.3956
-14.4588
-14.571
-14.7306
-14.8801
-14.926
-14.801
-14.574
-14.3767
-14.2548
-14.1978
-14.1729
-14.1756
-14.1988
-14.2299
-14.2514
-14.2896
-14.3401
-14.3834
-14.4136
-14.4831
-14.6337
-14.7956
-14.917
-14.9734
-14.9004
-14.7231
-14.5138
-14.3154
-14.1536
-14.0353
-13.9369
-13.8549
-13.7849
-13.7345
-13.6926
-13.6722
-13.6942
-13.7494
-13.8588
-13.9657
-14.0706
-14.1894
-14.3329
-14.5143
-14.7584
-15.0828
-15.4988
-15.9595
-16.3419
-16.6087
-16.7563
-16.8153
-16.8271
-16.7823
-16.6357
-16.3509
-15.9345
-15.424
-14.9156
-14.4895
-14.1713
-13.9298
-13.7457
-13.6123
-13.5194
-13.4431
-13.3797
-13.3165
-13.2136
-13.1064
-13.0215
-12.9908
-12.9863
-12.9927
-13.022
-13.0439
-13.0909
-13.1258
-14.8929
-14.943
-15.0086
-15.1125
-15.2602
-15.4024
-15.4467
-15.3184
-15.0703
-14.8455
-14.7257
-14.6895
-14.6888
-14.6976
-14.7173
-14.7452
-14.7738
-14.8123
-14.8721
-14.9039
-14.9021
-14.9655
-15.1284
-15.2743
-15.383
-15.431
-15.3435
-15.1884
-14.9965
-14.826
-14.6973
-14.5971
-14.497
-14.41
-14.3662
-14.3457
-14.3291
-14.3918
-14.4147
-14.4486
-14.5151
-14.5926
-14.6889
-14.809
-14.9609
-15.1582
-15.4309
-15.7974
-16.2533
-16.724
-17.095
-17.3419
-17.4608
-17.4791
-17.464
-17.409
-17.2698
-17.0041
-16.6134
-16.1399
-15.6625
-15.268
-14.9547
-14.7019
-14.4988
-14.3453
-14.2378
-14.1686
-14.1228
-14.0486
-13.9367
-13.8134
-13.691
-13.6224
-13.6189
-13.6255
-13.6459
-13.6615
-13.7039
-13.7358
-15.4247
-15.4711
-15.5271
-15.6033
-15.7118
-15.8223
-15.8549
-15.7372
-15.5342
-15.3439
-15.2493
-15.222
-15.2164
-15.2219
-15.2356
-15.2577
-15.2883
-15.3273
-15.3957
-15.4201
-15.3945
-15.4712
-15.6393
-15.7708
-15.8762
-15.9075
-15.8154
-15.6661
-15.5089
-15.375
-15.2662
-15.1726
-15.0713
-14.9974
-14.9813
-14.969
-15.0072
-15.0789
-15.0947
-15.1085
-15.129
-15.1893
-15.281
-15.4015
-15.5585
-15.7679
-16.0633
-16.4664
-16.9552
-17.4447
-17.8267
-18.0793
-18.2051
-18.2105
-18.149
-18.0477
-17.8875
-17.6239
-17.2468
-16.7893
-16.3539
-15.9869
-15.6837
-15.4315
-15.2308
-15.0844
-14.9945
-14.9439
-14.899
-14.8136
-14.6783
-14.5379
-14.4121
-14.3147
-14.2918
-14.3014
-14.3089
-14.3228
-14.348
-14.3683
-15.9492
-15.9819
-16.025
-16.0786
-16.1418
-16.193
-16.1902
-16.1112
-15.9758
-15.8531
-15.79
-15.7543
-15.7385
-15.7386
-15.7476
-15.763
-15.7872
-15.8304
-15.9016
-15.9112
-15.8766
-15.9823
-16.1459
-16.2715
-16.3707
-16.4066
-16.3364
-16.199
-16.0628
-15.9418
-15.8346
-15.7363
-15.645
-15.595
-15.5837
-15.5944
-15.6598
-15.7071
-15.7072
-15.7019
-15.7046
-15.7565
-15.8429
-15.9623
-16.1216
-16.3369
-16.6442
-17.0707
-17.5838
-18.0918
-18.5006
-18.7785
-18.9324
-18.9785
-18.902
-18.7296
-18.505
-18.2168
-17.8308
-17.391
-16.9918
-16.6545
-16.3686
-16.1263
-15.9403
-15.818
-15.7554
-15.7062
-15.649
-15.569
-15.4359
-15.2716
-15.1485
-15.0618
-15.0162
-15.0208
-15.0133
-15.009
-15.0192
-15.0299
-16.4588
-16.4813
-16.5099
-16.55
-16.5931
-16.6127
-16.5918
-16.5309
-16.452
-16.3795
-16.3191
-16.2785
-16.2588
-16.2524
-16.2557
-16.265
-16.2805
-16.3223
-16.3875
-16.3798
-16.364
-16.462
-16.6101
-16.7295
-16.8322
-16.8843
-16.8475
-16.739
-16.6076
-16.4854
-16.3769
-16.2777
-16.2048
-16.1701
-16.1587
-16.1794
-16.2252
-16.2399
-16.2355
-16.236
-16.2532
-16.3001
-16.3791
-16.4952
-16.6524
-16.8653
-17.1671
-17.5921
-18.1151
-18.6338
-19.0675
-19.3657
-19.5273
-19.5773
-19.5154
-19.3329
-19.0706
-18.7471
-18.3508
-17.9417
-17.5826
-17.2853
-17.0239
-16.7983
-16.6282
-16.5178
-16.4515
-16.3948
-16.3286
-16.2567
-16.1583
-16.0084
-15.8948
-15.8298
-15.785
-15.7724
-15.7543
-15.7237
-15.7153
-15.7166
-16.9535
-16.9709
-16.9824
-17.0085
-17.0399
-17.0547
-17.0427
-17.0042
-16.9478
-16.893
-16.8353
-16.7943
-16.7722
-16.7625
-16.7618
-16.7656
-16.7747
-16.8107
-16.8588
-16.8507
-16.8462
-16.919
-17.0335
-17.1297
-17.2242
-17.2908
-17.2835
-17.1995
-17.0868
-16.9807
-16.8898
-16.8106
-16.7515
-16.7138
-16.6943
-16.7009
-16.7143
-16.7117
-16.7164
-16.7436
-16.7785
-16.8245
-16.8981
-17.009
-17.1589
-17.362
-17.6372
-18.0333
-18.5345
-19.0527
-19.4992
-19.8064
-19.961
-19.983
-19.9181
-19.7664
-19.5198
-19.1833
-18.8034
-18.4392
-18.1363
-17.8804
-17.6491
-17.4468
-17.2928
-17.1863
-17.1132
-17.053
-16.9904
-16.9191
-16.8371
-16.749
-16.6697
-16.6281
-16.5936
-16.5594
-16.5241
-16.4648
-16.4258
-16.4124
-17.4385
-17.4488
-17.449
-17.4629
-17.4771
-17.4834
-17.476
-17.4519
-17.4151
-17.3727
-17.3306
-17.2994
-17.28
-17.2695
-17.2657
-17.2662
-17.2716
-17.298
-17.3306
-17.325
-17.3262
-17.3676
-17.4342
-17.4968
-17.5694
-17.6342
-17.6441
-17.5938
-17.523
-17.4568
-17.3978
-17.3407
-17.2885
-17.2416
-17.2043
-17.19
-17.185
-17.18
-17.1991
-17.2427
-17.2895
-17.3398
-17.4106
-17.5133
-17.6496
-17.8308
-18.0765
-18.416
-18.8563
-19.344
-19.7778
-20.0832
-20.2353
-20.2472
-20.1814
-20.0514
-19.8442
-19.5339
-19.1929
-18.8901
-18.6473
-18.4369
-18.2387
-18.0678
-17.9339
-17.8382
-17.7712
-17.7195
-17.6667
-17.6059
-17.5625
-17.5371
-17.4999
-17.4744
-17.4407
-17.3815
-17.3094
-17.2225
-17.1494
-17.1123
-17.9196
-17.9179
-17.9166
-17.9234
-17.9287
-17.9292
-17.9211
-17.9029
-17.8771
-17.8485
-17.8211
-17.7993
-17.7837
-17.7733
-17.768
-17.7662
-17.7693
-17.7864
-17.8042
-17.7994
-17.8022
-17.8175
-17.8413
-17.8697
-17.92
-17.9756
-18.0043
-17.9941
-17.9658
-17.9373
-17.9065
-17.8726
-17.8265
-17.7729
-17.7329
-17.7055
-17.6836
-17.6746
-17.6953
-17.7441
-17.7994
-17.8554
-17.9229
-18.0139
-18.1327
-18.2876
-18.4921
-18.7653
-19.1196
-19.5283
-19.9091
-20.1947
-20.3476
-20.3804
-20.3393
-20.2422
-20.0758
-19.8141
-19.5324
-19.3027
-19.1172
-18.9494
-18.7905
-18.655
-18.5482
-18.4743
-18.4261
-18.3934
-18.3632
-18.3539
-18.3895
-18.4097
-18.3954
-18.3647
-18.3074
-18.2084
-18.0922
-17.9806
-17.883
-17.8259
-18.3935
-18.3844
-18.386
-18.3902
-18.3921
-18.3906
-18.3835
-18.3705
-18.3528
-18.3328
-18.3132
-18.2966
-18.2832
-18.2742
-18.2683
-18.2653
-18.2664
-18.2754
-18.2841
-18.2798
-18.2769
-18.2747
-18.2765
-18.2814
-18.3147
-18.3692
-18.4114
-18.4248
-18.4232
-18.4207
-18.4203
-18.4175
-18.389
-18.3462
-18.3124
-18.2824
-18.2499
-18.2269
-18.2311
-18.2657
-18.3186
-18.3737
-18.4337
-18.5098
-18.6078
-18.7333
-18.8943
-19.1022
-19.3644
-19.671
-19.977
-20.2258
-20.3804
-20.4487
-20.4496
-20.3862
-20.256
-20.0522
-19.8463
-19.6805
-19.5466
-19.42
-19.3015
-19.2059
-19.137
-19.0971
-19.0776
-19.0738
-19.0942
-19.1919
-19.3028
-19.3532
-19.337
-19.277
-19.1689
-19.0118
-18.8549
-18.7211
-18.61
-18.5439
-18.8591
-18.8541
-18.8577
-18.8617
-18.8626
-18.8607
-18.8549
-18.8454
-18.833
-18.8188
-18.8047
-18.7919
-18.7811
-18.7729
-18.767
-18.7634
-18.7627
-18.7669
-18.7735
-18.7688
-18.7579
-18.7523
-18.7423
-18.7364
-18.7577
-18.8093
-18.8576
-18.8838
-18.8927
-18.9056
-18.9395
-18.9714
-18.9769
-18.9509
-18.9173
-18.894
-18.8769
-18.8476
-18.8284
-18.8345
-18.8594
-18.8923
-18.9377
-18.995
-19.0707
-19.1677
-19.2894
-19.4416
-19.6277
-19.8467
-20.0764
-20.2835
-20.4387
-20.532
-20.5625
-20.5261
-20.423
-20.2808
-20.1424
-20.0311
-19.939
-19.8519
-19.7761
-19.7268
-19.7034
-19.7057
-19.7197
-19.7643
-19.8833
-20.0809
-20.2492
-20.3179
-20.2762
-20.1698
-19.9933
-19.7651
-19.5787
-19.4234
-19.3035
-19.2326
-19.3282
-19.3283
-19.3334
-19.3376
-19.3384
-19.3368
-19.3324
-19.3255
-19.3165
-19.3062
-19.2957
-19.2858
-19.277
-19.2697
-19.2639
-19.2598
-19.2579
-19.2589
-19.2624
-19.2574
-19.2433
-19.2315
-19.2223
-19.216
-19.231
-19.2772
-19.3296
-19.3628
-19.3771
-19.3984
-19.4515
-19.5109
-19.5479
-19.5418
-19.5134
-19.4983
-19.4902
-19.4718
-19.4494
-19.4332
-19.4203
-19.4198
-19.4354
-19.468
-19.5218
-19.5939
-19.6835
-19.7942
-19.9275
-20.0839
-20.2556
-20.4233
-20.5623
-20.6539
-20.6916
-20.6756
-20.6079
-20.5189
-20.4332
-20.3637
-20.3059
-20.2546
-20.2246
-20.2199
-20.2423
-20.2851
-20.3336
-20.4584
-20.6933
-20.9442
-21.1365
-21.2112
-21.1503
-20.9817
-20.7387
-20.4432
-20.2443
-20.0682
-19.948
-19.8644
-19.8066
-19.8086
-19.8136
-19.8174
-19.8183
-19.817
-19.8138
-19.8088
-19.8022
-19.7946
-19.7866
-19.7788
-19.7715
-19.7651
-19.7595
-19.7551
-19.752
-19.7504
-19.7494
-19.7464
-19.7337
-19.7178
-19.707
-19.7007
-19.7088
-19.7508
-19.81
-19.8515
-19.8718
-19.9002
-19.9539
-20.0206
-20.0737
-20.0935
-20.0793
-20.063
-20.0535
-20.0455
-20.0269
-20.0021
-19.9763
-19.9547
-19.941
-19.9489
-19.9779
-20.024
-20.087
-20.1672
-20.2641
-20.3782
-20.506
-20.6346
-20.7455
-20.8238
-20.8629
-20.8622
-20.8304
-20.7817
-20.7324
-20.6913
-20.6593
-20.6425
-20.6509
-20.6837
-20.7461
-20.8152
-20.8918
-21.0961
-21.3638
-21.6195
-21.8153
-21.8886
-21.8032
-21.6046
-21.3257
-21.0414
-20.8233
-20.6477
-20.532
-20.4397
-20.2905
-20.2929
-20.2974
-20.3004
-20.3013
-20.3004
-20.298
-20.2943
-20.2894
-20.2837
-20.2776
-20.2714
-20.2653
-20.2597
-20.2545
-20.2498
-20.246
-20.2428
-20.2393
-20.2358
-20.2267
-20.2095
-20.1939
-20.1848
-20.186
-20.2209
-20.2825
-20.3375
-20.3694
-20.402
-20.454
-20.5152
-20.567
-20.6041
-20.6065
-20.5892
-20.5817
-20.5796
-20.5608
-20.533
-20.5031
-20.4747
-20.4535
-20.4474
-20.4555
-20.4796
-20.5207
-20.5768
-20.6466
-20.7293
-20.8225
-20.9172
-21.0033
-21.069
-21.1054
-21.1144
-21.1021
-21.0757
-21.0475
-21.0254
-21.0141
-21.0245
-21.0611
-21.1215
-21.2118
-21.2916
-21.392
-21.6104
-21.8156
-22.0186
-22.1821
-22.2483
-22.1679
-21.9739
-21.7314
-21.5088
-21.3145
-21.1576
-21.0549
-20.9677
-20.7773
-20.7797
-20.7835
-20.7859
-20.7866
-20.786
-20.7843
-20.7816
-20.778
-20.7736
-20.7688
-20.7638
-20.7588
-20.7538
-20.749
-20.7445
-20.7403
-20.7364
-20.7319
-20.7268
-20.7209
-20.707
-20.6868
-20.6716
-20.6681
-20.6908
-20.7453
-20.8042
-20.8537
-20.8988
-20.9505
-21.0081
-21.0533
-21.0965
-21.117
-21.1092
-21.0975
-21.1002
-21.0835
-21.0503
-21.0131
-20.9814
-20.9592
-20.9483
-20.9488
-20.9617
-20.9875
-21.0259
-21.0764
-21.1379
-21.2073
-21.2767
-21.3381
-21.3851
-21.4118
-21.4224
-21.4187
-21.4039
-21.3868
-21.3769
-21.3821
-21.4095
-21.4634
-21.5412
-21.6436
-21.7229
-21.8407
-22.008
-22.1409
-22.2728
-22.3571
-22.3611
-22.3063
-22.1824
-22.0323
-21.8873
-21.7395
-21.6125
-21.5277
-21.4585
-21.2664
-21.2684
-21.2713
-21.2732
-21.2738
-21.2734
-21.2722
-21.2702
-21.2675
-21.2642
-21.2604
-21.2564
-21.2522
-21.2479
-21.2437
-21.2394
-21.2351
-21.2309
-21.2263
-21.2207
-21.2148
-21.207