/*--------------------------------*- C++ -*----------------------------------*\
| =========                 |                                                 |
| \\      /  F ield         | OpenFOAM: The Open Source CFD Toolbox           |
|  \\    /   O peration     | Version:  2412                                  |
|   \\  /    A nd           | Website:  www.openfoam.com                      |
|    \\/     M anipulation  |                                                 |
\*---------------------------------------------------------------------------*/
FoamFile
{
    version     2.0;
    format      ascii;
    arch        "LSB;label=32;scalar=64";
    class       volScalarField;
    location    "0.15";
    object      alpha.gasoline;
}
// * * * * * * * * * * * * * * * * * * * * * * * * * * * * * * * * * * * * * //

dimensions      [0 0 0 0 0 0 0];

internalField   nonuniform List<scalar> 
6400
(
1
1
1
1
1
1
1
1
1
1
1
1
1
1
1
1
1
1
1
1
1
1
1
1
1
1
1
1
1
1
1
1
1
1
1
1
1
1
1
1
1
1
1
1
1
1
1
1
1
1
1
1
1
1
1
1
1
1
1
1
1
1
1
1
1
1
1
1
1
1
1
1
1
1
1
1
1
1
1
1
0.999997
1
1
1
1
1
1
1
1
1
1
1
1
1
1
1
1
1
1
1
1
1
1
1
1
1
1
1
1
1
1
1
1
1
1
1
1
1
1
1
1
1
1
1
1
1
1
1
1
1
1
1
1
1
1
1
1
1
1
1
1
1
1
1
1
1
1
1
1
1
1
1
1
1
1
1
1
1
1
1
1
1
1
1
1
1
1
1
1
1
1
1
1
1
1
1
1
1
1
1
1
1
1
1
1
1
1
1
1
1
1
1
1
1
1
1
1
1
1
1
1
1
1
1
1
1
1
1
1
1
1
1
1
1
1
1
1
1
1
1
1
1
1
1
1
1
1
1
1
1
1
1
1
1
1
1
1
1
1
1
1
1
1
1
1
1
1
1
1
1
1
1
1
1
1
1
1
1
1
1
1
1
1
1
1
1
1
1
1
1
1
1
1
1
1
1
1
1
1
1
1
1
1
1
1
1
1
1
1
1
1
1
1
1
1
1
1
1
1
1
1
1
1
1
1
1
1
1
1
1
1
1
1
1
1
1
1
1
1
1
1
1
1
1
1
1
1
1
1
1
1
1
1
1
1
1
1
1
1
1
1
1
1
1
1
1
1
1
1
1
1
1
1
1
1
1
1
1
1
1
1
1
1
1
1
1
1
1
1
1
1
1
1
1
1
1
1
1
1
1
1
1
1
1
1
1
1
1
1
1
1
1
1
1
1
1
1
1
1
1
1
1
1
1
1
1
1
1
1
1
1
1
1
1
1
1
1
1
1
1
1
1
1
1
1
1
1
1
1
1
1
1
1
1
1
1
1
1
1
1
1
1
1
1
1
1
1
1
1
1
1
1
1
1
1
1
1
1
1
1
1
1
1
1
1
1
1
1
1
1
1
1
1
1
1
1
1
1
1
1
1
1
1
1
1
1
1
1
1
1
1
1
1
1
1
1
1
1
1
1
1
1
1
1
1
1
1
1
1
1
1
1
1
1
1
1
1
1
1
1
1
1
1
1
1
1
1
1
1
1
1
1
1
1
1
1
1
1
1
1
1
1
1
1
1
1
1
1
1
1
1
1
1
1
1
1
1
1
1
1
1
1
1
1
1
1
1
1
1
1
1
1
1
1
1
1
1
1
1
1
1
1
1
1
1
1
1
1
1
1
1
1
1
1
1
1
1
1
1
1
1
1
1
1
1
1
1
1
1
1
1
1
1
1
1
1
1
1
1
1
1
1
1
1
1
1
1
1
1
1
1
1
1
1
1
1
1
1
1
1
1
1
1
1
1
1
1
1
1
1
1
1
1
1
1
1
1
1
1
1
1
1
1
1
1
1
1
1
1
1
1
1
1
1
1
1
1
1
1
1
1
1
1
1
1
1
1
1
1
1
1
1
1
1
1
1
1
1
1
1
1
1
1
1
1
1
1
1
1
1
1
1
1
1
1
1
1
1
1
1
1
1
1
1
1
1
1
1
1
1
1
1
1
1
1
1
1
1
1
1
1
1
1
1
1
1
1
1
1
1
1
1
1
1
1
1
1
1
1
1
1
1
1
1
1
1
1
1
1
1
1
1
1
1
1
1
1
1
1
1
1
1
1
1
1
1
1
1
1
1
1
1
1
1
1
1
1
1
1
1
1
1
1
1
1
1
1
1
1
1
1
1
1
1
1
1
1
1
1
1
1
1
1
1
1
1
1
1
1
1
1
1
1
1
1
1
1
1
1
1
1
1
1
1
1
1
1
1
1
1
1
1
1
1
1
1
1
1
1
1
1
1
1
1
1
1
1
1
1
1
1
1
1
1
1
1
1
1
1
1
1
1
1
1
1
1
1
1
1
1
1
1
1
1
1
1
1
1
1
1
1
1
1
1
1
1
1
1
1
1
1
1
1
1
1
1
1
1
1
1
1
1
1
1
1
1
1
1
1
1
1
1
1
1
1
1
1
1
1
1
1
1
1
1
1
1
1
1
1
1
1
1
1
1
1
1
1
1
1
1
1
1
1
1
1
1
1
1
1
1
1
1
1
1
1
1
1
1
1
1
1
1
1
1
1
1
1
1
1
1
1
1
1
1
1
1
1
1
1
1
1
1
1
1
1
1
1
1
1
1
1
1
1
1
1
1
1
1
1
1
1
1
1
1
1
1
1
1
1
1
1
1
1
1
1
1
1
1
1
1
1
1
1
1
1
1
1
1
1
1
1
1
1
1
1
1
1
1
1
1
1
1
1
1
1
1
1
1
1
1
1
1
1
1
1
1
1
1
1
1
1
1
1
1
1
1
1
1
1
1
1
1
1
1
1
1
1
1
1
1
1
1
1
1
1
1
1
1
1
1
1
1
1
1
1
1
1
1
1
1
1
1
1
1
1
1
1
1
1
1
1
1
1
1
1
1
1
1
1
1
1
1
1
1
1
1
1
1
1
1
1
1
1
1
1
1
1
1
1
1
1
1
1
1
1
1
1
1
1
1
1
1
1
1
1
1
1
1
1
1
1
1
1
1
1
1
1
1
1
1
1
1
1
1
1
1
1
1
1
1
1
1
1
1
1
1
1
1
1
1
1
1
1
1
1
1
1
1
1
1
1
1
1
1
1
1
1
1
1
1
1
1
1
1
1
1
1
1
1
1
1
1
1
1
1
1
1
1
1
1
1
1
1
1
1
1
1
1
1
1
1
1
1
1
1
1
1
1
1
1
1
1
1
1
1
1
1
1
1
1
1
1
1
1
1
1
1
1
1
1
1
1
1
1
1
1
1
1
1
1
1
1
1
1
1
1
1
1
1
1
1
1
1
1
1
1
1
1
1
1
1
1
1
1
1
1
1
1
1
1
1
1
1
1
1
1
1
1
1
1
1
1
1
1
1
1
1
1
1
1
1
1
1
1
1
1
1
1
1
1
1
1
1
1
1
1
1
1
1
1
1
1
1
1
1
1
1
1
1
1
1
1
1
1
1
1
1
1
1
1
1
1
1
1
1
1
1
1
1
1
1
1
1
1
1
1
1
1
1
1
1
1
1
1
1
1
1
1
1
1
1
1
1
1
1
1
1
1
1
1
1
1
1
1
1
1
1
1
1
1
1
1
1
1
1
1
1
1
1
1
1
1
1
1
1
1
1
1
1
1
1
1
1
1
1
1
1
1
1
1
1
1
1
1
1
1
1
1
1
1
1
1
1
1
1
1
1
1
1
1
1
1
1
1
1
1
1
1
1
1
1
1
1
1
1
1
1
1
1
1
1
1
1
1
1
1
1
1
1
1
1
1
1
1
1
1
1
1
1
1
1
1
1
1
1
1
1
1
1
1
1
0.999999
0.999996
0.999992
0.999989
0.999985
0.999982
0.999978
0.999975
0.999971
0.999968
0.999965
0.999962
0.99996
0.999958
0.999956
0.999954
0.999953
0.999952
0.999952
0.999952
0.999952
0.999953
0.999954
0.999956
0.999958
0.99996
0.999963
0.999965
0.999968
0.999972
0.999975
0.999978
0.999982
0.999985
0.999989
0.999992
0.999995
0.999999
1
1
1
1
1
1
1
1
1
1
1
1
1
1
1
1
1
1
1
1
1
3.66772e-05
3.65671e-05
3.63424e-05
3.58585e-05
3.51573e-05
3.43655e-05
3.34044e-05
3.22604e-05
3.09328e-05
2.94338e-05
2.77683e-05
2.59338e-05
2.39235e-05
2.17409e-05
1.9393e-05
1.68825e-05
1.42095e-05
1.1387e-05
8.44068e-06
5.40304e-06
2.32483e-06
1.92432e-07
5.793e-95
5.793e-95
4.23244e-92
4.29668e-89
1.17312e-86
2.34722e-84
3.80996e-82
5.17213e-80
5.92748e-78
5.73443e-76
4.65441e-74
3.13314e-72
1.71876e-70
7.49414e-69
2.50781e-67
6.12881e-66
1.01705e-64
1.02569e-63
1.04262e-63
1.05741e-64
4.57874e-66
7.49688e-68
6.5221e-70
3.97555e-72
1.85079e-74
7.07084e-77
2.41555e-79
8.00524e-82
2.70991e-84
9.42605e-87
3.2621e-89
1.06991e-91
2.95516e-94
2.38702e-97
1.79765e-101
1.79765e-101
1.09125e-07
2.07139e-06
5.08597e-06
8.08062e-06
1.09917e-05
1.3795e-05
1.64814e-05
1.90256e-05
2.13822e-05
2.35697e-05
2.56448e-05
2.75822e-05
2.92615e-05
3.07307e-05
3.21939e-05
3.35463e-05
3.43766e-05
3.49529e-05
3.57888e-05
3.60472e-05
3.6804e-05
3.69918e-05
3.59381e-13
3.08715e-13
3.12384e-13
3.28655e-13
3.14558e-13
2.89247e-13
2.65742e-13
2.44248e-13
2.22544e-13
1.99929e-13
1.76661e-13
1.5294e-13
1.28726e-13
1.04403e-13
8.07245e-14
5.88565e-14
3.99596e-14
2.48408e-14
1.37534e-14
6.55028e-15
2.39023e-15
-4.13575e-22
2.12739e-95
1.9355e-88
6.28879e-86
9.61181e-84
1.31482e-81
1.60105e-79
1.71928e-77
1.61062e-75
1.29966e-73
8.89639e-72
5.06932e-70
2.34781e-68
8.56702e-67
2.36306e-65
4.64363e-64
5.82297e-63
5.25872e-62
7.15584e-62
7.03007e-62
4.6652e-62
5.73428e-63
4.57874e-66
7.49688e-68
6.5221e-70
3.97555e-72
1.85079e-74
7.07084e-77
2.41555e-79
8.00524e-82
2.70991e-84
9.42605e-87
3.26203e-89
1.06972e-91
2.95199e-94
2.34428e-97
-4.25137e-101
-2.48383e-22
2.11471e-15
6.10283e-15
1.28882e-14
2.32108e-14
3.76093e-14
5.64327e-14
7.58227e-14
9.65346e-14
1.24053e-13
1.53229e-13
1.72571e-13
1.8899e-13
2.17489e-13
2.48607e-13
2.63971e-13
2.76082e-13
2.84894e-13
2.87176e-13
3.20497e-13
3.1263e-13
3.2463e-13
2.81509e-16
2.50192e-16
2.52234e-16
2.56587e-16
2.41029e-16
2.20162e-16
2.00402e-16
1.81104e-16
1.61095e-16
1.40515e-16
1.19848e-16
9.94369e-17
7.95237e-17
6.06653e-17
4.35746e-17
2.9053e-17
1.76735e-17
9.5898e-18
4.48132e-18
1.70622e-18
4.50766e-19
-2.6265e-35
5.72869e-88
4.25194e-85
1.35137e-82
2.05114e-80
2.78885e-78
3.37037e-76
3.58822e-74
3.33056e-72
2.6623e-70
1.80573e-68
1.0204e-66
4.69493e-65
1.70724e-63
4.71429e-62
9.33039e-61
1.2035e-59
1.07567e-58
2.23596e-58
2.18055e-58
9.76117e-59
1.18027e-59
6.18085e-62
1.06784e-63
9.91557e-66
6.55979e-68
3.37562e-70
1.45229e-72
5.69022e-75
2.20029e-77
8.85329e-80
3.78087e-82
1.71043e-84
8.11675e-87
3.99464e-89
2.01524e-91
1.08116e-93
-2.70364e-35
3.90784e-19
1.60394e-18
4.21757e-18
8.91726e-18
1.67317e-17
2.78309e-17
4.0461e-17
5.57769e-17
7.5717e-17
9.72156e-17
1.1574e-16
1.3415e-16
1.57597e-16
1.81306e-16
1.98145e-16
2.15049e-16
2.25711e-16
2.28129e-16
2.51865e-16
2.5156e-16
2.59292e-16
4.05513e-19
3.58498e-19
3.596e-19
3.63599e-19
3.37878e-19
3.04079e-19
2.71886e-19
2.40601e-19
2.08887e-19
1.7703e-19
1.45881e-19
1.1615e-19
8.84238e-20
6.35783e-20
4.25299e-20
2.60264e-20
1.42665e-20
6.80541e-21
2.69606e-21
8.26701e-22
1.56099e-22
6.39889e-39
3.89101e-85
5.0201e-82
1.57988e-79
2.37843e-77
3.20123e-75
3.82367e-73
4.01849e-71
3.67875e-69
2.89866e-67
1.93765e-65
1.07949e-63
4.90169e-62
1.76264e-60
4.8299e-59
9.54098e-58
1.2413e-56
1.10048e-55
2.75058e-55
2.67583e-55
1.01496e-55
1.2233e-56
1.0167e-58
1.81406e-60
1.75365e-62
1.21519e-64
6.57888e-67
2.97431e-69
1.2145e-71
4.83009e-74
1.97311e-76
8.48026e-79
3.8446e-81
1.82543e-83
8.9872e-86
4.54063e-88
2.44602e-90
2.29356e-36
1.32776e-22
7.58028e-22
2.48709e-21
6.26863e-21
1.33913e-20
2.47492e-20
3.94388e-20
5.81314e-20
8.35895e-20
1.1311e-19
1.40697e-19
1.68779e-19
2.04042e-19
2.4e-19
2.66619e-19
2.93795e-19
3.13133e-19
3.20567e-19
3.57407e-19
3.57404e-19
3.69003e-19
1.19488e-21
1.08914e-21
1.09234e-21
1.0481e-21
9.19043e-22
7.9598e-22
6.80854e-22
5.62784e-22
4.44008e-22
3.30574e-22
2.26421e-22
1.3629e-22
9.68056e-23
6.56739e-23
4.09764e-23
2.30601e-23
1.14181e-23
4.80467e-24
1.62473e-24
4.05004e-25
5.79572e-26
-2.92844e-40
4.06424e-79
4.14011e-79
1.28669e-76
1.91461e-74
2.54245e-72
2.99166e-70
3.09363e-68
2.78406e-66
2.15515e-64
1.415e-62
7.74485e-61
3.45825e-59
1.22509e-57
3.31674e-56
6.50357e-55
8.46642e-54
7.4259e-53
2.06198e-52
2.00364e-52
6.93123e-53
8.37554e-54
8.86933e-56
1.63507e-57
1.6463e-59
1.19571e-61
6.82081e-64
3.2514e-66
1.39218e-68
5.74609e-71
2.4086e-73
1.053e-75
4.83041e-78
2.31414e-80
1.14809e-82
5.84311e-85
3.19049e-87
2.82733e-40
4.83465e-26
3.67037e-25
1.48813e-24
4.39799e-24
1.06517e-23
2.18577e-23
3.79356e-23
5.98915e-23
9.12512e-23
1.30197e-22
2.17542e-22
3.10676e-22
4.19568e-22
5.61947e-22
6.77995e-22
7.82271e-22
9.01622e-22
9.57394e-22
1.03456e-21
1.09262e-21
1.12078e-21
2.13669e-24
1.92763e-24
1.92061e-24
1.84599e-24
1.61224e-24
1.38027e-24
1.16336e-24
9.47449e-25
7.35865e-25
5.38674e-25
3.63362e-25
2.15449e-25
1.33663e-25
8.57005e-26
4.9974e-26
2.59238e-26
1.16254e-26
4.32819e-27
1.25367e-27
2.55235e-28
2.7824e-29
4.44748e-46
3.61954e-79
2.63616e-76
8.07335e-74
1.18355e-71
1.54577e-69
1.78634e-67
1.81201e-65
1.59811e-63
1.21167e-61
7.79041e-60
4.17703e-58
1.82887e-56
6.36385e-55
1.69687e-53
3.29007e-52
4.26266e-51
3.69284e-50
1.09485e-49
1.06315e-49
3.47772e-50
4.22785e-51
5.23014e-53
9.9649e-55
1.04561e-56
7.96723e-59
4.7972e-61
2.41933e-63
1.09255e-65
4.71868e-68
2.04969e-70
9.20861e-73
4.31638e-75
2.10546e-77
1.0612e-79
5.47908e-82
3.06636e-84
8.01796e-44
2.2739e-29
2.2764e-28
1.13708e-27
3.9389e-27
1.07876e-26
2.44615e-26
4.60964e-26
7.7937e-26
1.25869e-25
1.95116e-25
3.49068e-25
5.08676e-25
6.96386e-25
9.37839e-25
1.15009e-24
1.34651e-24
1.55424e-24
1.65745e-24
1.82574e-24
1.91936e-24
1.97886e-24
4.52145e-27
4.04692e-27
4.0096e-27
3.85292e-27
3.3479e-27
2.83462e-27
2.35567e-27
1.88916e-27
1.44195e-27
1.03487e-27
6.83907e-28
3.98777e-28
2.2422e-28
1.36122e-28
7.43484e-29
3.56416e-29
1.45179e-29
4.79871e-30
1.19584e-30
2.00096e-31
1.67552e-32
6.69101e-47
2.29463e-76
1.34078e-73
4.10611e-71
5.92925e-69
7.59391e-67
8.59383e-65
8.52677e-63
7.34961e-61
5.44343e-59
3.4188e-57
1.79151e-55
7.6743e-54
2.61714e-52
6.85626e-51
1.31069e-49
1.68347e-48
1.43867e-47
4.4495e-47
4.31818e-47
1.36362e-47
1.67173e-48
2.31092e-50
4.55258e-52
4.98224e-54
3.98755e-56
2.53926e-58
1.35927e-60
6.50746e-63
2.96244e-65
1.34533e-67
6.26932e-70
3.03002e-72
1.51771e-74
7.83348e-77
4.13343e-79
2.38851e-81
1.93338e-47
1.34861e-32
1.76173e-31
1.07413e-30
4.34033e-30
1.34197e-29
3.35681e-29
6.84706e-29
1.2354e-28
2.10947e-28
3.66125e-28
6.57383e-28
9.75305e-28
1.35869e-27
1.85712e-27
2.31916e-27
2.75329e-27
3.18152e-27
3.41391e-27
3.81497e-27
3.9983e-27
4.14143e-27
1.11804e-29
9.94291e-30
9.80217e-30
9.4066e-30
8.12647e-30
6.80575e-30
5.57703e-30
4.40149e-30
3.29769e-30
2.31628e-30
1.49514e-30
8.53094e-31
4.45384e-31
2.56551e-31
1.31565e-31
5.84455e-32
2.16937e-32
6.39155e-33
1.37758e-33
1.90896e-34
1.24133e-35
2.04744e-50
1.20067e-73
5.95727e-71
1.76273e-68
2.48597e-66
3.11365e-64
3.44143e-62
3.33152e-60
2.79988e-58
2.02139e-56
1.23774e-54
6.32749e-53
2.64726e-51
8.83185e-50
2.26872e-48
4.26609e-47
5.41532e-46
4.56007e-45
1.4493e-44
1.40577e-44
4.34247e-45
5.37814e-46
8.09368e-48
1.64983e-49
1.88515e-51
1.58705e-53
1.07103e-55
6.10419e-58
3.11217e-60
1.50268e-62
7.18929e-65
3.50414e-67
1.76076e-69
9.12665e-72
4.85758e-74
2.63717e-76
1.58906e-78
2.20803e-53
9.86222e-36
1.66483e-34
1.22872e-33
5.74976e-33
1.99606e-32
5.48949e-32
1.20964e-31
2.32462e-31
4.18668e-31
7.90248e-31
1.44281e-30
2.18637e-30
3.10771e-30
4.31233e-30
5.46947e-30
6.58183e-30
7.63926e-30
8.25471e-30
9.33916e-30
9.76453e-30
1.01375e-29
3.1716e-32
2.80534e-32
2.75334e-32
2.63773e-32
2.26545e-32
1.87742e-32
1.51775e-32
1.17906e-32
8.67163e-33
5.9608e-33
3.75619e-33
2.0924e-33
1.02829e-33
5.63264e-34
2.71906e-34
1.12267e-34
3.811e-35
1.00543e-35
1.88578e-36
2.18316e-37
1.11655e-38
1.94301e-54
5.26907e-71
2.22654e-68
6.46314e-66
8.90313e-64
1.08777e-61
1.1715e-59
1.10419e-57
9.03127e-56
6.34525e-54
3.78235e-52
1.88366e-50
7.68578e-49
2.50462e-47
6.29785e-46
1.16256e-44
1.45486e-43
1.20598e-42
3.8987e-42
3.77991e-42
1.15265e-42
1.44407e-43
2.32675e-45
4.9119e-47
5.86719e-49
5.20345e-51
3.72875e-53
2.26899e-55
1.23687e-57
6.36828e-60
3.23115e-62
1.65942e-64
8.73508e-67
4.72086e-69
2.60892e-71
1.46587e-73
9.44195e-76
-1.99136e-57
8.74473e-39
1.88327e-37
1.66861e-36
8.98782e-36
3.4859e-35
1.04974e-34
2.4919e-34
5.08939e-34
9.64655e-34
1.95083e-33
3.63284e-33
5.62736e-33
8.17099e-33
1.15257e-32
1.48338e-32
1.80731e-32
2.1118e-32
2.29699e-32
2.62697e-32
2.7456e-32
2.8529e-32
1.01809e-34
8.96592e-35
8.7628e-35
8.37491e-35
7.1553e-35
5.87079e-35
4.68534e-35
3.58512e-35
2.59025e-35
1.74388e-35
1.07346e-35
5.83577e-36
2.72083e-36
1.4207e-36
6.47365e-37
2.49247e-37
7.76928e-38
1.84494e-38
3.03209e-39
2.96104e-40
1.20784e-41
-6.40816e-56
6.95273e-68
7.22273e-66
2.05568e-63
2.76027e-61
3.28283e-59
3.43853e-57
3.15035e-55
2.50417e-53
1.71005e-51
9.91159e-50
4.80298e-48
1.90886e-46
6.06796e-45
1.49135e-43
2.69813e-42
3.32226e-41
2.70882e-40
8.84326e-40
8.5711e-40
2.59688e-40
3.29522e-41
5.61905e-43
1.22963e-44
1.53736e-46
1.43844e-48
1.09655e-50
7.14247e-53
4.17777e-55
2.3047e-57
1.24756e-59
6.79654e-62
3.77404e-64
2.14174e-66
1.23768e-68
7.24607e-71
3.01035e-72
7.85929e-58
9.30423e-42
2.52226e-40
2.65844e-39
1.63772e-38
7.06114e-38
2.31844e-37
5.91034e-37
1.28008e-36
2.54809e-36
5.45225e-36
1.03673e-35
1.64255e-35
2.43847e-35
3.50068e-35
4.57018e-35
5.62697e-35
6.62027e-35
7.24527e-35
8.3617e-35
8.75252e-35
9.10975e-35
3.65656e-37
3.2082e-37
3.12418e-37
2.97767e-37
2.53187e-37
2.05801e-37
1.62281e-37
1.22429e-37
8.69948e-38
5.74389e-38
3.45808e-38
1.83585e-38
8.20009e-39
4.0723e-39
1.75687e-39
6.33062e-40
1.82017e-40
3.91279e-41
5.67707e-42
4.72494e-43
1.55997e-44
9.97035e-63
6.62395e-66
2.05436e-63
5.72506e-61
7.47698e-59
8.64089e-57
8.78945e-55
7.81803e-53
6.03301e-51
4.00029e-49
2.25223e-47
1.06086e-45
4.10236e-44
1.27067e-42
3.04891e-41
5.39933e-40
6.53161e-39
5.23507e-38
1.71661e-37
1.66333e-37
5.03017e-38
6.49133e-39
1.15833e-40
2.63001e-42
3.44621e-44
3.4069e-46
2.768e-48
1.93464e-50
1.21826e-52
7.23195e-55
4.19888e-57
2.44148e-59
1.43927e-61
8.63047e-64
5.24863e-66
3.29793e-68
4.78383e-70
-5.29419e-59
9.88213e-45
3.9761e-43
4.93573e-42
3.45253e-41
1.64598e-40
5.86549e-40
1.59929e-39
3.66152e-39
7.63462e-39
1.71855e-38
3.33483e-38
5.39926e-38
8.18712e-38
1.19521e-37
1.58126e-37
1.96516e-37
2.3264e-37
2.56214e-37
2.97944e-37
3.12344e-37
3.25969e-37
1.45571e-39
1.273e-39
1.23572e-39
1.17481e-39
9.94334e-40
8.01299e-40
6.24928e-40
4.65397e-40
3.25704e-40
2.11233e-40
1.24577e-40
6.4666e-41
2.809e-41
1.3152e-41
5.38993e-42
1.82495e-42
4.86373e-43
9.52352e-44
1.2296e-44
8.8146e-46
2.02469e-47
4.9781e-61
3.28769e-63
1.01196e-60
1.40356e-58
1.78069e-56
1.99707e-54
1.97062e-52
1.70011e-50
1.27252e-48
8.18573e-47
4.4729e-45
2.04615e-43
7.69222e-42
2.31957e-40
5.42894e-39
9.40149e-38
1.116e-36
8.78754e-36
2.88197e-35
2.79166e-35
8.45649e-36
1.11051e-36
2.06145e-38
4.86133e-40
6.68551e-42
6.99463e-44
6.06845e-46
4.56225e-48
3.10248e-50
1.98946e-52
1.2446e-54
7.76449e-57
4.88593e-59
3.11207e-61
2.00171e-63
1.36283e-65
5.85602e-67
-1.28436e-60
9.38802e-48
7.3408e-46
1.06157e-44
8.36146e-44
4.3796e-43
1.68552e-42
4.89456e-42
1.17997e-41
2.56878e-41
6.07546e-41
1.20093e-40
1.98209e-40
3.06333e-40
4.54177e-40
6.08409e-40
7.63167e-40
9.08699e-40
1.0071e-39
1.17913e-39
1.23684e-39
1.29325e-39
6.37309e-42
5.55721e-42
5.37907e-42
5.10239e-42
4.30011e-42
3.43846e-42
2.65527e-42
1.95469e-42
1.34945e-42
8.61163e-43
4.98418e-43
2.53389e-43
1.07415e-43
4.75275e-44
1.85694e-44
5.93353e-45
1.4736e-45
2.64542e-46
3.0646e-47
1.91299e-48
2.42148e-50
1.15383e-58
7.86242e-61
2.28346e-58
3.04311e-56
3.74523e-54
4.07217e-52
3.89472e-50
3.25653e-48
2.36247e-46
1.47324e-44
7.80737e-43
3.46627e-41
1.26602e-39
3.71435e-38
8.47405e-37
1.43386e-35
1.66838e-34
1.28982e-33
4.21601e-33
4.08245e-33
1.2423e-33
1.66123e-34
3.19332e-36
7.83067e-38
1.13209e-39
1.25576e-41
1.16575e-43
9.44951e-46
6.9596e-48
4.83739e-50
3.27353e-52
2.20082e-54
1.48534e-56
1.00953e-58
6.898e-61
5.1367e-63
9.56727e-65
-4.84743e-62
1.0613e-50
1.57763e-48
2.62827e-47
2.31204e-46
1.32127e-45
5.46086e-45
1.68168e-44
4.25343e-44
9.63526e-44
2.38464e-43
4.79769e-43
8.06042e-43
1.26755e-42
1.90613e-42
2.58241e-42
3.26855e-42
3.91453e-42
4.36384e-42
5.14174e-42
5.39574e-42
5.64478e-42
3.04732e-44
2.65071e-44
2.55919e-44
2.42277e-44
2.03404e-44
1.61539e-44
1.23673e-44
9.01287e-45
6.14832e-45
3.86794e-45
2.20133e-45
1.09832e-45
4.56808e-46
1.91084e-46
7.14561e-47
2.16483e-47
5.03805e-48
8.34852e-49
8.75166e-50
4.81049e-51
3.3688e-53
2.40424e-56
1.63902e-58
4.65145e-56
5.88037e-54
6.97638e-52
7.3489e-50
6.80819e-48
5.51361e-46
3.87436e-44
2.34082e-42
1.20248e-40
5.17898e-39
1.83694e-37
5.24095e-36
1.16483e-34
1.92432e-33
2.1925e-32
1.663e-31
5.40173e-31
5.22876e-31
1.60248e-31
2.18426e-32
4.69011e-34
1.10596e-35
1.68395e-37
1.98435e-39
1.97532e-41
1.73058e-43
1.38433e-45
1.04639e-47
7.68743e-50
5.59182e-52
4.06521e-54
2.961e-56
2.15856e-58
8.73689e-60
3.6634e-62
4.91223e-60
1.459e-53
3.93078e-51
7.45459e-50
7.26429e-49
4.50071e-48
1.98612e-47
6.45498e-47
1.70638e-46
4.01497e-46
1.03307e-45
2.11267e-45
3.60926e-45
5.7678e-45
8.78558e-45
1.20173e-44
1.53258e-44
1.84542e-44
2.06769e-44
2.44981e-44
2.57297e-44
2.69268e-44
1.58189e-46
1.37319e-46
1.3228e-46
1.25026e-46
1.04628e-46
8.26126e-47
6.27876e-47
4.53678e-47
3.06345e-47
1.90361e-47
1.06765e-47
5.24053e-48
2.14502e-48
8.50646e-49
3.05732e-49
8.82526e-50
1.93581e-50
2.98184e-51
2.85177e-52
1.37728e-53
1.97862e-55
1.22859e-55
3.109e-56
8.62879e-54
1.0161e-51
1.1522e-49
1.1758e-47
1.05464e-45
8.26856e-44
5.62546e-42
3.29178e-40
1.63863e-38
6.84431e-37
2.3567e-35
6.53587e-34
1.41432e-32
2.27947e-31
2.54058e-30
1.88912e-29
6.08197e-29
5.88538e-29
1.82082e-29
2.53178e-30
6.02159e-32
1.37537e-33
2.2103e-35
2.77317e-37
2.96711e-39
2.81667e-41
2.45408e-43
2.0239e-45
1.61988e-47
1.27948e-49
1.00575e-51
7.8809e-54
6.20631e-56
2.70589e-57
1.04745e-59
1.51422e-57
2.43159e-56
1.13209e-53
2.41576e-52
2.58302e-51
1.72345e-50
8.07677e-50
2.75696e-49
7.58522e-49
1.89127e-48
4.93058e-48
1.02211e-47
1.77173e-47
2.87201e-47
4.4243e-47
6.10025e-47
7.82434e-47
9.46201e-47
1.06459e-46
1.26693e-46
1.3316e-46
1.39464e-46
8.86759e-49
7.68478e-49
7.38878e-49
6.97529e-49
5.82246e-49
4.57585e-49
3.4572e-49
2.48067e-49
1.66104e-49
1.0216e-49
5.65994e-50
2.74068e-50
1.10748e-50
4.17563e-51
1.44878e-51
4.00509e-52
8.3301e-53
1.19632e-53
1.15957e-54
3.02834e-55
4.02394e-55
1.97862e-55
1.25338e-53
1.42521e-51
1.55846e-49
1.68836e-47
1.66892e-45
1.44889e-43
1.09942e-41
7.24054e-40
4.10286e-38
1.97889e-36
8.01435e-35
2.67819e-33
7.21681e-32
1.51965e-30
2.38767e-29
2.60065e-28
1.89405e-27
6.02984e-27
5.83338e-27
1.82581e-27
2.59203e-28
6.74253e-30
1.51021e-31
2.56785e-33
3.43895e-35
3.96488e-37
4.08904e-39
3.89113e-41
3.5117e-43
3.07174e-45
2.64291e-47
2.25307e-49
1.90464e-51
1.68592e-53
7.63678e-55
2.90613e-57
5.6299e-57
8.24119e-57
4.0239e-56
8.87688e-55
1.03656e-53
7.39049e-53
3.65622e-52
1.3044e-51
3.71936e-51
9.81157e-51
2.58338e-50
5.41218e-50
9.49134e-50
1.55684e-49
2.42079e-49
3.35989e-49
4.32867e-49
5.25129e-49
5.92814e-49
7.07969e-49
7.44296e-49
7.79977e-49
5.34225e-51
4.62359e-51
4.43883e-51
4.18756e-51
3.48935e-51
2.73261e-51
2.05524e-51
1.46681e-51
9.75736e-52
5.95267e-52
3.26622e-52
1.56498e-52
6.26432e-53
2.25185e-53
7.57681e-54
2.01523e-54
3.95605e-55
1.07929e-55
2.05382e-55
3.02834e-55
3.02834e-55
1.71825e-53
1.97123e-51
2.10212e-49
2.1425e-47
2.20235e-45
2.10047e-43
1.76482e-41
1.29611e-39
8.26335e-38
4.53459e-36
2.1191e-34
8.32054e-33
2.69789e-31
7.06118e-30
1.44613e-28
2.21353e-27
2.35385e-26
1.67741e-25
5.26887e-25
5.09594e-25
1.61692e-25
2.34598e-26
6.61693e-28
1.46642e-29
2.64541e-31
3.79202e-33
4.72372e-35
5.3066e-37
5.52981e-39
5.47575e-41
5.24863e-43
4.93233e-45
4.57132e-47
4.18058e-49
1.83767e-50
2.05195e-52
1.8545e-54
9.78249e-57
1.52474e-56
1.50537e-56
7.85381e-57
4.57679e-56
3.53313e-55
1.83679e-54
6.81175e-54
2.00374e-53
5.57568e-53
1.47864e-52
3.12167e-52
5.5227e-52
9.14151e-52
1.43152e-51
1.99687e-51
2.58172e-51
3.13962e-51
3.55394e-51
4.25676e-51
4.47522e-51
4.68996e-51
3.44379e-53
2.97765e-53
2.85563e-53
2.69367e-53
2.24252e-53
1.75207e-53
1.31367e-53
9.34052e-54
6.18458e-54
3.75117e-54
2.0441e-54
9.72274e-55
3.86882e-55
1.32956e-55
4.33445e-56
1.2489e-56
7.46834e-57
5.76989e-56
1.07929e-55
2.05382e-55
2.23133e-53
2.58002e-51
2.77991e-49
2.82321e-47
2.72118e-45
2.57552e-43
2.3377e-41
1.90359e-39
1.35357e-37
8.35663e-36
4.4419e-34
2.01144e-32
7.65694e-31
2.40867e-29
6.12173e-28
1.2189e-26
1.81639e-25
1.88393e-24
1.31213e-23
4.05749e-23
3.92319e-23
1.26441e-23
1.87696e-24
5.70696e-26
1.25986e-27
2.41886e-29
3.72242e-31
5.02415e-33
6.16463e-35
7.05301e-37
7.68271e-39
8.08978e-41
8.32301e-43
8.40181e-45
8.34925e-47
4.09826e-48
4.69075e-50
4.44373e-52
4.1076e-54
3.55359e-56
7.85381e-57
4.70274e-57
1.55166e-57
2.58717e-57
1.01374e-56
3.91284e-56
1.18202e-55
3.4557e-55
9.20395e-55
1.95299e-54
3.47692e-54
5.79375e-54
9.11666e-54
1.27569e-53
1.65306e-53
2.0135e-53
2.28373e-53
2.74158e-53
2.88186e-53
3.01948e-53
2.36592e-55
2.04443e-55
1.9595e-55
1.8493e-55
1.53954e-55
1.20147e-55
8.99321e-56
6.38121e-56
4.21396e-56
2.54725e-56
1.38249e-56
6.54966e-57
2.59039e-57
8.39782e-58
5.60557e-58
2.08751e-57
5.5414e-57
7.46835e-57
1.87605e-55
2.49435e-53
2.9991e-51
3.332e-49
3.4465e-47
3.33954e-45
3.04795e-43
2.65816e-41
2.30096e-39
1.8147e-37
1.25006e-35
7.47672e-34
3.85086e-32
1.69016e-30
6.23863e-29
1.90406e-27
4.69883e-26
9.0934e-25
1.31849e-23
1.33244e-22
9.05763e-22
2.75096e-21
2.65893e-21
8.72218e-22
1.32654e-22
4.33293e-24
9.57464e-26
1.96356e-27
3.2555e-29
4.77547e-31
6.41762e-33
8.08209e-35
9.70722e-37
1.12541e-38
1.27021e-40
1.39861e-42
1.6005e-44
8.18492e-46
9.59631e-48
9.49892e-50
9.18076e-52
8.25676e-54
6.76136e-56
1.55166e-57
1.55166e-57
8.46546e-58
1.41432e-58
2.49711e-58
7.56332e-58
2.32926e-57
6.2097e-57
1.32047e-56
2.35995e-56
3.95041e-56
6.23443e-56
8.73555e-56
1.13278e-55
1.38037e-55
1.5671e-55
1.88378e-55
1.97898e-55
2.07263e-55
1.72582e-57
1.49093e-57
1.42886e-57
1.35005e-57
1.12492e-57
8.77956e-58
6.57016e-58
4.66031e-58
3.07575e-58
1.85755e-58
1.00713e-58
4.71025e-59
2.22572e-59
3.14633e-59
2.96889e-58
5.60555e-58
2.08751e-57
1.94864e-55
2.34341e-53
3.04219e-51
3.57664e-49
3.85572e-47
3.8419e-45
3.56144e-43
3.08762e-41
2.52283e-39
2.02138e-37
1.5229e-35
1.01816e-33
5.90352e-32
2.94779e-30
1.25457e-28
4.49191e-27
1.33047e-25
3.18831e-24
5.99614e-23
8.45444e-22
8.31553e-21
5.50817e-20
1.63909e-19
1.58359e-19
5.29918e-20
8.27137e-21
2.89836e-22
6.4316e-24
1.41487e-25
2.53755e-27
4.05926e-29
5.99121e-31
8.32376e-33
1.10429e-34
1.41175e-36
1.7501e-38
2.10638e-40
1.10947e-41
1.51499e-43
1.68096e-45
1.81124e-47
1.81814e-49
1.68777e-51
1.43567e-53
1.10554e-55
8.46546e-58
1.41431e-58
8.54312e-59
1.99434e-59
1.04563e-59
1.65355e-59
4.51853e-59
9.61413e-59
1.72034e-58
2.88641e-58
4.56039e-58
6.38872e-58
8.27896e-58
1.00804e-57
1.14423e-57
1.37594e-57
1.44375e-57
1.51087e-57
1.332e-59
1.15081e-59
1.10335e-59
1.04439e-59
8.71804e-60
6.8128e-60
5.10469e-60
3.62599e-60
2.39684e-60
1.44239e-60
7.59701e-61
6.01659e-61
7.70552e-60
2.22572e-59
3.14576e-59
1.5945e-57
2.16789e-55
2.65221e-53
2.92716e-51
3.18898e-49
3.69846e-47
3.89041e-45
3.75167e-43
3.34027e-41
2.76212e-39
2.13355e-37
1.56482e-35
1.1236e-33
7.28693e-32
4.09966e-30
1.98616e-28
8.20253e-27
2.85055e-25
8.19758e-24
1.90804e-22
3.48691e-21
4.77835e-20
4.56902e-19
2.94434e-18
8.57224e-18
8.27842e-18
2.82977e-18
4.54107e-19
1.70713e-20
3.81348e-22
9.04261e-24
1.76235e-25
3.08545e-27
5.01473e-29
7.70115e-31
1.13002e-32
1.59452e-34
2.17166e-36
2.97421e-38
1.67626e-39
2.3432e-41
2.71143e-43
3.04557e-45
3.15938e-47
3.00556e-49
2.59588e-51
2.00741e-53
1.35428e-55
1.08019e-57
1.99354e-59
1.04563e-59
5.4401e-60
4.23856e-61
3.41701e-61
7.44031e-61
1.34277e-60
2.25209e-60
3.55439e-60
4.96989e-60
6.42717e-60
7.81047e-60
8.85555e-60
1.06437e-59
1.11505e-59
1.16559e-59
1.08415e-61
9.37073e-62
8.99243e-62
8.53282e-62
7.1422e-62
5.59528e-62
4.20392e-62
2.99616e-62
1.96802e-62
1.36901e-62
3.03644e-62
3.24194e-61
6.01634e-61
7.69881e-60
1.18411e-57
1.74604e-55
2.35205e-53
2.90897e-51
3.30222e-49
3.3634e-47
3.32389e-45
3.4426e-43
3.23317e-41
2.78002e-39
2.20272e-37
1.61618e-35
1.10666e-33
7.34264e-32
4.55349e-30
2.49291e-28
1.17314e-26
4.70591e-25
1.58869e-23
4.4388e-22
1.0039e-20
1.78286e-19
2.37365e-18
2.2059e-17
1.38968e-16
4.03062e-16
3.89502e-16
1.3341e-16
2.19073e-17
8.83596e-19
1.99147e-20
5.11844e-22
1.08968e-23
2.09636e-25
3.76201e-27
6.39628e-29
1.03889e-30
1.61856e-32
2.4228e-34
1.42514e-35
2.32729e-37
3.04126e-39
3.83585e-41
4.46241e-43
4.7542e-45
4.60084e-47
3.99621e-49
3.04788e-51
2.57346e-53
2.22057e-55
1.77747e-57
1.49118e-59
4.2375e-61
3.06213e-61
9.86725e-62
8.77515e-63
1.08025e-62
1.8606e-62
2.94225e-62
4.09793e-62
5.28054e-62
6.39692e-62
7.23776e-62
8.68881e-62
9.0853e-62
9.48534e-62
9.27612e-64
8.02382e-64
7.71058e-64
7.3392e-64
6.16539e-64
4.84797e-64
3.65313e-64
2.55403e-64
2.48968e-64
6.81411e-63
1.36901e-62
3.03353e-62
3.81853e-60
6.80936e-58
1.09947e-55
1.61129e-53
2.15051e-51
2.62529e-49
2.93562e-47
3.0107e-45
2.83829e-43
2.58381e-41
2.38635e-39
1.99596e-37
1.52478e-35
1.07004e-33
6.93099e-32
4.18952e-30
2.48026e-28
1.31896e-26
6.0432e-25
2.35753e-23
7.73988e-22
2.10295e-20
4.62458e-19
7.98543e-18
1.03445e-16
9.68532e-16
5.72897e-15
1.42294e-14
1.37777e-14
5.4839e-15
9.64951e-16
4.00814e-17
9.13243e-19
2.56102e-20
5.99362e-22
1.27322e-23
2.5302e-25
4.76807e-27
8.57034e-29
1.47268e-30
5.23362e-32
1.62215e-33
2.56259e-35
3.59939e-37
4.71328e-39
5.63659e-41
6.11058e-43
5.94534e-45
5.10002e-47
4.78675e-49
4.58285e-51
4.04281e-53
3.28135e-55
2.44234e-57
1.64579e-59
9.85253e-62
8.77469e-63
4.72206e-63
4.26608e-64
1.84255e-64
2.5525e-64
3.57034e-64
4.57681e-64
5.52046e-64
6.22734e-64
7.46164e-64
7.78489e-64
8.11663e-64
8.31775e-66
7.20258e-66
6.93416e-66
6.62477e-66
5.59062e-66
4.3892e-66
3.19496e-66
8.3432e-66
1.31081e-64
2.48941e-64
6.80339e-63
1.4878e-60
2.97383e-58
5.33484e-56
8.63068e-54
1.26399e-51
1.68096e-49
2.03806e-47
2.25634e-45
2.28339e-43
2.11269e-41
1.79451e-39
1.52947e-37
1.25759e-35
9.34128e-34
6.31331e-32
3.89992e-30
2.21759e-28
1.19275e-26
6.04183e-25
2.69681e-23
1.02483e-21
3.27649e-20
8.66833e-19
1.85597e-17
3.12716e-16
4.16229e-15
3.23926e-14
1.45962e-13
2.27093e-13
2.18589e-13
1.39789e-13
3.19668e-14
1.57407e-15
3.66514e-17
1.13018e-18
2.92959e-20
6.91265e-22
1.52679e-23
3.1931e-25
6.34827e-27
1.20031e-28
8.35624e-30
1.63985e-31
2.52545e-33
3.73601e-35
5.03185e-37
6.12633e-39
6.67987e-41
6.41887e-43
6.73287e-45
7.15838e-47
6.98982e-49
6.27727e-51
5.1607e-53
3.54809e-55
2.19888e-57
1.22926e-59
6.17719e-62
4.26017e-64
1.84254e-64
9.38119e-65
3.369e-66
3.17789e-66
4.16305e-66
5.0046e-66
5.6238e-66
6.72144e-66
6.99475e-66
7.28136e-66
7.79303e-68
6.75751e-68
6.52047e-68
6.25674e-68
5.26821e-68
4.6544e-68
7.03292e-67
2.42595e-66
8.33599e-66
1.5552e-63
3.99469e-61
9.07943e-59
1.83751e-56
3.33016e-54
5.43129e-52
8.00079e-50
1.06754e-47
1.29437e-45
1.42851e-43
1.43558e-41
1.31495e-39
1.09663e-37
8.37845e-36
6.62661e-34
4.83993e-32
3.1801e-30
1.89115e-28
1.02164e-26
5.05695e-25
2.39486e-23
1.03108e-21
3.83383e-20
1.19612e-18
3.0877e-17
6.47239e-16
1.1406e-14
1.14055e-13
4.33638e-13
1.83791e-12
5.82633e-12
5.61449e-12
1.79581e-12
4.01141e-13
4.72599e-14
1.28225e-15
4.38608e-17
1.2702e-18
3.35323e-20
8.2739e-22
1.92572e-23
4.24404e-25
3.19417e-26
7.40386e-28
1.30511e-29
2.19351e-31
3.3403e-33
4.57353e-35
5.59068e-37
6.00716e-39
7.21416e-41
8.5331e-43
9.24096e-45
9.15889e-47
7.58998e-49
5.70233e-51
3.88117e-53
2.38611e-55
1.32037e-57
6.54466e-60
2.88832e-62
1.14802e-64
3.36848e-66
1.78566e-66
1.21507e-67
3.80166e-68
4.72151e-68
5.31503e-68
6.33244e-68
6.57101e-68
6.8278e-68
7.6066e-70
6.60679e-70
6.39206e-70
6.11022e-70
6.71758e-70
2.36377e-68
4.6544e-68
7.03276e-67
2.31994e-64
6.98202e-62
1.83593e-59
4.25982e-57
8.78737e-55
1.62092e-52
2.68548e-50
4.00969e-48
5.40904e-46
6.61213e-44
7.33222e-42
7.37631e-40
6.7357e-38
5.58461e-36
4.19401e-34
2.87793e-32
2.09072e-30
1.35272e-28
7.82793e-27
4.07165e-25
1.9102e-23
8.16806e-22
3.36216e-20
1.21825e-18
3.72943e-17
9.46813e-16
2.10572e-14
2.61495e-13
1.10679e-12
7.79703e-12
4.03853e-11
1.38217e-10
1.32339e-10
3.94391e-11
7.36427e-12
7.44882e-13
3.89157e-14
1.4911e-15
4.86992e-17
1.44966e-18
4.0195e-20
1.0448e-21
7.25304e-23
2.33511e-24
4.88927e-26
9.33035e-28
1.61287e-29
2.49313e-31
3.41808e-33
4.09583e-35
5.80742e-37
7.66441e-39
9.04565e-41
9.02861e-43
8.1652e-45
6.70519e-47
4.98433e-49
3.34832e-51
2.02757e-53
1.10288e-55
5.3641e-58
2.3193e-60
8.84698e-63
2.95005e-65
1.21504e-67
3.12151e-68
1.11234e-68
5.16567e-70
5.20133e-70
6.22153e-70
6.43467e-70
6.6723e-70
7.71251e-72
6.71152e-72
6.45407e-72
9.17836e-72
3.13177e-70
6.71758e-70
4.95233e-68
2.0904e-65
7.53591e-63
2.33952e-60
6.33833e-58
1.51339e-55
3.20824e-53
6.07233e-51
1.03051e-48
1.57293e-46
2.16402e-44
2.69136e-42
3.02604e-40
3.07586e-38
2.82673e-36
2.34821e-34
1.76197e-32
1.19125e-30
7.43292e-29
4.82983e-27
2.76081e-25
1.40045e-23
6.32759e-22
2.55843e-20
9.44497e-19
3.26792e-17
9.83102e-16
2.63192e-14
4.09141e-13
2.31416e-12
1.98056e-11
1.58171e-10
8.51349e-10
2.82325e-09
2.69979e-09
8.29787e-10
1.60761e-10
1.73122e-11
1.01911e-12
4.42002e-14
1.64329e-15
5.55397e-17
1.73784e-18
7.81835e-20
4.94376e-21
1.31763e-22
2.81726e-24
5.554e-26
9.71571e-28
1.49521e-29
2.14427e-31
3.45164e-33
4.87159e-35
5.88756e-37
6.42178e-39
6.33737e-41
5.6588e-43
4.57019e-45
3.33212e-47
2.19031e-49
1.29512e-51
6.86628e-54
3.24995e-56
1.36566e-58
5.05687e-61
1.63361e-63
4.54294e-66
1.11234e-68