/*--------------------------------*- C++ -*----------------------------------*\
| =========                 |                                                 |
| \\      /  F ield         | OpenFOAM: The Open Source CFD Toolbox           |
|  \\    /   O peration     | Version:  2412                                  |
|   \\  /    A nd           | Website:  www.openfoam.com                      |
|    \\/     M anipulation  |                                                 |
\*---------------------------------------------------------------------------*/
FoamFile
{
    version     2.0;
    format      ascii;
    arch        "LSB;label=32;scalar=64";
    class       volVectorField;
    location    "0.45";
    object      U;
}
// * * * * * * * * * * * * * * * * * * * * * * * * * * * * * * * * * * * * * //

dimensions      [0 1 -1 0 0 0 0];

internalField   nonuniform List<vector> 
6400
(
(-1.98525e-11 8.98619e-12 0)
(-1.2687e-10 -8.88437e-11 0)
(-3.05017e-10 -1.37765e-10 0)
(-3.84059e-10 -1.40121e-10 0)
(-4.40752e-10 -1.32707e-10 0)
(-5.13865e-10 -1.26365e-10 0)
(-6.23462e-10 -1.18557e-10 0)
(-7.53769e-10 -1.13463e-10 0)
(-9.1147e-10 -1.0758e-10 0)
(-1.07667e-09 -1.05479e-10 0)
(-1.25555e-09 -1.02181e-10 0)
(-1.42926e-09 -1.02561e-10 0)
(-1.60321e-09 -1.01646e-10 0)
(-1.76065e-09 -1.04172e-10 0)
(-1.90535e-09 -1.057e-10 0)
(-2.02363e-09 -1.10025e-10 0)
(-2.11851e-09 -1.13367e-10 0)
(-2.18062e-09 -1.18641e-10 0)
(-2.21321e-09 -1.22915e-10 0)
(-2.21146e-09 -1.28213e-10 0)
(-2.17952e-09 -1.32476e-10 0)
(-2.11682e-09 -1.36839e-10 0)
(-2.02878e-09 -1.4002e-10 0)
(-1.91793e-09 -1.42833e-10 0)
(-1.79009e-09 -1.44546e-10 0)
(-1.64931e-09 -1.45621e-10 0)
(-1.50109e-09 -1.45759e-10 0)
(-1.34958e-09 -1.453e-10 0)
(-1.19915e-09 -1.4416e-10 0)
(-1.05306e-09 -1.42576e-10 0)
(-9.14162e-10 -1.40599e-10 0)
(-7.84289e-10 -1.38426e-10 0)
(-6.64629e-10 -1.36153e-10 0)
(-5.55503e-10 -1.33927e-10 0)
(-4.56603e-10 -1.31847e-10 0)
(-3.6697e-10 -1.30017e-10 0)
(-2.85198e-10 -1.28491e-10 0)
(-2.09515e-10 -1.27301e-10 0)
(-1.37924e-10 -1.26461e-10 0)
(-6.82263e-11 -1.25989e-10 0)
(1.93336e-12 -1.25904e-10 0)
(7.50724e-11 -1.26232e-10 0)
(1.53817e-10 -1.26987e-10 0)
(2.40885e-10 -1.28183e-10 0)
(3.38975e-10 -1.29815e-10 0)
(4.50759e-10 -1.31874e-10 0)
(5.78723e-10 -1.34339e-10 0)
(7.25236e-10 -1.37188e-10 0)
(8.92268e-10 -1.40401e-10 0)
(1.08159e-09 -1.43921e-10 0)
(1.29408e-09 -1.47681e-10 0)
(1.53024e-09 -1.51505e-10 0)
(1.78881e-09 -1.55254e-10 0)
(2.06823e-09 -1.58646e-10 0)
(2.364e-09 -1.61516e-10 0)
(2.67199e-09 -1.63481e-10 0)
(2.98322e-09 -1.64292e-10 0)
(3.29084e-09 -1.63508e-10 0)
(3.58044e-09 -1.60826e-10 0)
(3.84385e-09 -1.56133e-10 0)
(4.06181e-09 -1.49048e-10 0)
(4.22834e-09 -1.40194e-10 0)
(4.321e-09 -1.28658e-10 0)
(4.34107e-09 -1.16522e-10 0)
(4.26619e-09 -1.01922e-10 0)
(4.11176e-09 -8.94602e-11 0)
(3.85938e-09 -7.51321e-11 0)
(3.54289e-09 -6.64761e-11 0)
(3.14827e-09 -5.5885e-11 0)
(2.72664e-09 -5.44693e-11 0)
(2.26631e-09 -5.0423e-11 0)
(1.8293e-09 -5.83125e-11 0)
(1.40162e-09 -6.19912e-11 0)
(1.04431e-09 -7.81861e-11 0)
(7.35852e-10 -8.77344e-11 0)
(5.21965e-10 -1.07144e-10 0)
(3.66647e-10 -1.16589e-10 0)
(2.7466e-10 -1.27402e-10 0)
(1.77063e-10 -1.19402e-10 0)
(7.75972e-11 -8.10548e-11 0)
(-1.26118e-10 -3.62715e-11 0)
(-3.85926e-10 -2.64126e-10 0)
(-7.1558e-10 -4.10903e-10 0)
(-9.38838e-10 -4.49914e-10 0)
(-1.12378e-09 -4.26655e-10 0)
(-1.37098e-09 -3.71458e-10 0)
(-1.66521e-09 -3.16107e-10 0)
(-2.0381e-09 -2.61922e-10 0)
(-2.4386e-09 -2.26021e-10 0)
(-2.89115e-09 -1.97002e-10 0)
(-3.3406e-09 -1.88609e-10 0)
(-3.80839e-09 -1.866e-10 0)
(-4.24312e-09 -2.04196e-10 0)
(-4.66238e-09 -2.27423e-10 0)
(-5.02242e-09 -2.68009e-10 0)
(-5.33633e-09 -3.12723e-10 0)
(-5.5709e-09 -3.69481e-10 0)
(-5.73752e-09 -4.27118e-10 0)
(-5.8155e-09 -4.90414e-10 0)
(-5.8167e-09 -5.50578e-10 0)
(-5.73253e-09 -6.1011e-10 0)
(-5.57657e-09 -6.62264e-10 0)
(-5.35037e-09 -7.08258e-10 0)
(-5.0692e-09 -7.44428e-10 0)
(-4.74086e-09 -7.7185e-10 0)
(-4.38039e-09 -7.88882e-10 0)
(-3.99808e-09 -7.96881e-10 0)
(-3.60699e-09 -7.95986e-10 0)
(-3.21655e-09 -7.87871e-10 0)
(-2.83627e-09 -7.73596e-10 0)
(-2.47263e-09 -7.5497e-10 0)
(-2.1309e-09 -7.33447e-10 0)
(-1.81383e-09 -7.10691e-10 0)
(-1.52257e-09 -6.88077e-10 0)
(-1.25632e-09 -6.66925e-10 0)
(-1.01289e-09 -6.48257e-10 0)
(-7.88798e-10 -6.32876e-10 0)
(-5.79677e-10 -6.21334e-10 0)
(-3.80388e-10 -6.1406e-10 0)
(-1.85246e-10 -6.11411e-10 0)
(1.19496e-11 -6.13726e-10 0)
(2.17771e-10 -6.21297e-10 0)
(4.39139e-10 -6.34365e-10 0)
(6.83101e-10 -6.53054e-10 0)
(9.56793e-10 -6.77373e-10 0)
(1.26707e-09 -7.07174e-10 0)
(1.6206e-09 -7.42183e-10 0)
(2.02321e-09 -7.81968e-10 0)
(2.48032e-09 -8.25861e-10 0)
(2.99547e-09 -8.7289e-10 0)
(3.5714e-09 -9.21542e-10 0)
(4.20713e-09 -9.69913e-10 0)
(4.90086e-09 -1.01543e-09 0)
(5.64429e-09 -1.05535e-09 0)
(6.4296e-09 -1.08622e-09 0)
(7.23821e-09 -1.10454e-09 0)
(8.05567e-09 -1.10619e-09 0)
(8.85024e-09 -1.08731e-09 0)
(9.60288e-09 -1.04478e-09 0)
(1.02683e-08 -9.7578e-10 0)
(1.08299e-08 -8.80649e-10 0)
(1.12315e-08 -7.57903e-10 0)
(1.14701e-08 -6.13951e-10 0)
(1.14847e-08 -4.48554e-10 0)
(1.1302e-08 -2.78053e-10 0)
(1.08642e-08 -1.01341e-10 0)
(1.02425e-08 5.48193e-11 0)
(9.38689e-09 1.99259e-10 0)
(8.41684e-09 2.96379e-10 0)
(7.28802e-09 3.68472e-10 0)
(6.15871e-09 3.73508e-10 0)
(4.9811e-09 3.51892e-10 0)
(3.92716e-09 2.6027e-10 0)
(2.93354e-09 1.56467e-10 0)
(2.15236e-09 1.73962e-12 0)
(1.49552e-09 -1.33225e-10 0)
(1.05061e-09 -2.68679e-10 0)
(6.76434e-10 -3.25448e-10 0)
(3.58282e-10 -3.10788e-10 0)
(1.17957e-10 -1.78511e-10 0)
(-1.77588e-10 -1.5177e-10 0)
(-5.28687e-10 -5.14188e-10 0)
(-9.77793e-10 -7.46894e-10 0)
(-1.30722e-09 -8.08939e-10 0)
(-1.651e-09 -7.42963e-10 0)
(-2.0321e-09 -6.22801e-10 0)
(-2.52746e-09 -4.83648e-10 0)
(-3.06799e-09 -3.68707e-10 0)
(-3.7037e-09 -2.72285e-10 0)
(-4.34701e-09 -2.18747e-10 0)
(-5.04261e-09 -1.88728e-10 0)
(-5.7034e-09 -2.03031e-10 0)
(-6.36736e-09 -2.39576e-10 0)
(-6.95717e-09 -3.16277e-10 0)
(-7.50322e-09 -4.12101e-10 0)
(-7.9434e-09 -5.40152e-10 0)
(-8.30124e-09 -6.79573e-10 0)
(-8.53298e-09 -8.37832e-10 0)
(-8.65931e-09 -9.96549e-10 0)
(-8.65616e-09 -1.1586e-09 0)
(-8.54452e-09 -1.30968e-09 0)
(-8.31736e-09 -1.44976e-09 0)
(-7.99685e-09 -1.56882e-09 0)
(-7.58877e-09 -1.66722e-09 0)
(-7.11592e-09 -1.74009e-09 0)
(-6.59098e-09 -1.78887e-09 0)
(-6.03486e-09 -1.81279e-09 0)
(-5.46171e-09 -1.81499e-09 0)
(-4.88822e-09 -1.79766e-09 0)
(-4.32592e-09 -1.76492e-09 0)
(-3.78574e-09 -1.72038e-09 0)
(-3.2744e-09 -1.66839e-09 0)
(-2.79666e-09 -1.61278e-09 0)
(-2.35396e-09 -1.55733e-09 0)
(-1.94561e-09 -1.50524e-09 0)
(-1.56856e-09 -1.45924e-09 0)
(-1.2181e-09 -1.42142e-09 0)
(-8.88005e-10 -1.3934e-09 0)
(-5.70947e-10 -1.37642e-09 0)
(-2.58638e-10 -1.37154e-09 0)
(5.79188e-11 -1.37968e-09 0)
(3.88377e-10 -1.40162e-09 0)
(7.42765e-10 -1.43793e-09 0)
(1.13142e-09 -1.48893e-09 0)
(1.56455e-09 -1.55456e-09 0)
(2.05224e-09 -1.63442e-09 0)
(2.60374e-09 -1.72768e-09 0)
(3.22778e-09 -1.83303e-09 0)
(3.93105e-09 -1.94849e-09 0)
(4.71923e-09 -2.07109e-09 0)
(5.5937e-09 -2.19679e-09 0)
(6.55456e-09 -2.32013e-09 0)
(7.59419e-09 -2.43472e-09 0)
(8.70492e-09 -2.5328e-09 0)
(9.86599e-09 -2.60592e-09 0)
(1.10606e-08 -2.64442e-09 0)
(1.22506e-08 -2.6384e-09 0)
(1.34116e-08 -2.57848e-09 0)
(1.44853e-08 -2.45624e-09 0)
(1.54473e-08 -2.26768e-09 0)
(1.62208e-08 -2.00879e-09 0)
(1.67951e-08 -1.6861e-09 0)
(1.70804e-08 -1.30146e-09 0)
(1.71007e-08 -8.78698e-10 0)
(1.67627e-08 -4.25323e-10 0)
(1.61478e-08 1.43234e-11 0)
(1.51672e-08 4.36616e-10 0)
(1.3974e-08 7.8132e-10 0)
(1.24846e-08 1.06235e-09 0)
(1.09198e-08 1.21042e-09 0)
(9.19306e-09 1.26982e-09 0)
(7.56617e-09 1.17299e-09 0)
(5.93455e-09 1.00117e-09 0)
(4.55693e-09 6.97587e-10 0)
(3.30006e-09 3.74792e-10 0)
(2.3665e-09 1.72347e-12 0)
(1.58025e-09 -2.81119e-10 0)
(1.01565e-09 -4.64062e-10 0)
(4.73904e-10 -4.29798e-10 0)
(1.36242e-10 -2.0575e-10 0)
(-1.80465e-10 -1.69283e-10 0)
(-6.08491e-10 -6.2028e-10 0)
(-1.12444e-09 -9.2365e-10 0)
(-1.58705e-09 -9.85974e-10 0)
(-2.02639e-09 -8.72085e-10 0)
(-2.58199e-09 -6.59092e-10 0)
(-3.18729e-09 -4.36795e-10 0)
(-3.92572e-09 -2.31672e-10 0)
(-4.68167e-09 -8.63167e-11 0)
(-5.52931e-09 1.50721e-11 0)
(-6.34602e-09 4.3787e-11 0)
(-7.19888e-09 2.65206e-11 0)
(-7.9741e-09 -6.15611e-11 0)
(-8.72702e-09 -1.90972e-10 0)
(-9.36201e-09 -3.81049e-10 0)
(-9.92286e-09 -6.02807e-10 0)
(-1.03373e-08 -8.66776e-10 0)
(-1.06395e-08 -1.14526e-09 0)
(-1.07826e-08 -1.44076e-09 0)
(-1.07963e-08 -1.72894e-09 0)
(-1.06585e-08 -2.00831e-09 0)
(-1.03976e-08 -2.2602e-09 0)
(-1.00107e-08 -2.48184e-09 0)
(-9.52623e-09 -2.66197e-09 0)
(-8.9541e-09 -2.80041e-09 0)
(-8.32148e-09 -2.89321e-09 0)
(-7.64403e-09 -2.94358e-09 0)
(-6.94487e-09 -2.95356e-09 0)
(-6.23937e-09 -2.9293e-09 0)
(-5.54452e-09 -2.87643e-09 0)
(-4.87138e-09 -2.80247e-09 0)
(-4.22963e-09 -2.71442e-09 0)
(-3.62432e-09 -2.61958e-09 0)
(-3.05808e-09 -2.52444e-09 0)
(-2.53005e-09 -2.43488e-09 0)
(-2.03712e-09 -2.35574e-09 0)
(-1.57379e-09 -2.29097e-09 0)
(-1.13289e-09 -2.24361e-09 0)
(-7.05701e-10 -2.21612e-09 0)
(-2.82379e-10 -2.21051e-09 0)
(1.47939e-10 -2.22851e-09 0)
(5.96791e-10 -2.2715e-09 0)
(1.0763e-09 -2.34048e-09 0)
(1.59866e-09 -2.4359e-09 0)
(2.17617e-09 -2.55757e-09 0)
(2.82043e-09 -2.70463e-09 0)
(3.54264e-09 -2.87542e-09 0)
(4.35214e-09 -3.06729e-09 0)
(5.25725e-09 -3.27625e-09 0)
(6.26225e-09 -3.49657e-09 0)
(7.36988e-09 -3.72042e-09 0)
(8.57531e-09 -3.93793e-09 0)
(9.873e-09 -4.13707e-09 0)
(1.12444e-08 -4.30412e-09 0)
(1.26738e-08 -4.42334e-09 0)
(1.41237e-08 -4.47779e-09 0)
(1.55689e-08 -4.45013e-09 0)
(1.69487e-08 -4.32359e-09 0)
(1.82348e-08 -4.08599e-09 0)
(1.93425e-08 -3.72677e-09 0)
(2.02542e-08 -3.2474e-09 0)
(2.08646e-08 -2.64786e-09 0)
(2.1189e-08 -1.95285e-09 0)
(2.11095e-08 -1.17597e-09 0)
(2.0702e-08 -3.73153e-10 0)
(1.98444e-08 4.35367e-10 0)
(1.86967e-08 1.16635e-09 0)
(1.71366e-08 1.81237e-09 0)
(1.54148e-08 2.27522e-09 0)
(1.34037e-08 2.58312e-09 0)
(1.14246e-08 2.64048e-09 0)
(9.33074e-09 2.52917e-09 0)
(7.46998e-09 2.17296e-09 0)
(5.66417e-09 1.70806e-09 0)
(4.22762e-09 1.08994e-09 0)
(2.94613e-09 5.02999e-10 0)
(2.02763e-09 -4.15149e-11 0)
(1.21444e-09 -3.4272e-10 0)
(5.82857e-10 -3.83894e-10 0)
(1.35604e-10 -1.53542e-10 0)
(-1.81264e-10 -1.33227e-10 0)
(-6.38143e-10 -6.31092e-10 0)
(-1.24481e-09 -9.74251e-10 0)
(-1.76507e-09 -1.02705e-09 0)
(-2.35509e-09 -8.40828e-10 0)
(-2.9766e-09 -5.4256e-10 0)
(-3.75432e-09 -2.14305e-10 0)
(-4.55332e-09 6.17111e-11 0)
(-5.48251e-09 2.78947e-10 0)
(-6.38325e-09 3.99111e-10 0)
(-7.35831e-09 4.46644e-10 0)
(-8.25481e-09 3.92349e-10 0)
(-9.16347e-09 2.68005e-10 0)
(-9.95054e-09 5.01636e-11 0)
(-1.06889e-08 -2.26362e-10 0)
(-1.12725e-08 -5.76171e-10 0)
(-1.17576e-08 -9.63935e-10 0)
(-1.2069e-08 -1.39393e-09 0)
(-1.22506e-08 -1.83183e-09 0)
(-1.22573e-08 -2.27375e-09 0)
(-1.21265e-08 -2.69114e-09 0)
(-1.18397e-08 -3.07771e-09 0)
(-1.1431e-08 -3.41299e-09 0)
(-1.09013e-08 -3.69277e-09 0)
(-1.02823e-08 -3.90683e-09 0)
(-9.58649e-09 -4.05628e-09 0)
(-8.84204e-09 -4.14043e-09 0)
(-8.06526e-09 -4.16579e-09 0)
(-7.27853e-09 -4.13864e-09 0)
(-6.49613e-09 -4.06905e-09 0)
(-5.73297e-09 -3.96689e-09 0)
(-4.99795e-09 -3.84333e-09 0)
(-4.2981e-09 -3.7087e-09 0)
(-3.6359e-09 -3.573e-09 0)
(-3.01136e-09 -3.44485e-09 0)
(-2.4212e-09 -3.33171e-09 0)
(-1.86002e-09 -3.23956e-09 0)
(-1.32024e-09 -3.1732e-09 0)
(-7.92713e-10 -3.13649e-09 0)
(-2.66858e-10 -3.13263e-09 0)
(2.68932e-10 -3.16426e-09 0)
(8.27145e-10 -3.23347e-09 0)
(1.42064e-09 -3.34161e-09 0)
(2.06258e-09 -3.48922e-09 0)
(2.76569e-09 -3.67584e-09 0)
(3.54249e-09 -3.89999e-09 0)
(4.404e-09 -4.15889e-09 0)
(5.36041e-09 -4.44817e-09 0)
(6.41844e-09 -4.76128e-09 0)
(7.58332e-09 -5.08904e-09 0)
(8.85352e-09 -5.41923e-09 0)
(1.02263e-08 -5.73655e-09 0)
(1.16872e-08 -6.02286e-09 0)
(1.32234e-08 -6.25717e-09 0)
(1.48021e-08 -6.416e-09 0)
(1.64002e-08 -6.47432e-09 0)
(1.79614e-08 -6.40626e-09 0)
(1.9457e-08 -6.18951e-09 0)
(2.08044e-08 -5.80373e-09 0)
(2.1982e-08 -5.24075e-09 0)
(2.28814e-08 -4.4937e-09 0)
(2.35089e-08 -3.58097e-09 0)
(2.37352e-08 -2.51573e-09 0)
(2.36238e-08 -1.35596e-09 0)
(2.30309e-08 -1.33763e-10 0)
(2.21063e-08 1.05184e-09 0)
(2.06966e-08 2.16869e-09 0)
(1.90555e-08 3.0909e-09 0)
(1.70174e-08 3.81736e-09 0)
(1.49323e-08 4.2203e-09 0)
(1.26115e-08 4.3605e-09 0)
(1.04642e-08 4.13381e-09 0)
(8.26752e-09 3.67768e-09 0)
(6.43007e-09 2.92905e-09 0)
(4.69214e-09 2.09445e-09 0)
(3.3879e-09 1.17408e-09 0)
(2.22684e-09 4.26342e-10 0)
(1.38692e-09 -9.27139e-11 0)
(6.06762e-10 -2.07251e-10 0)
(1.44778e-10 -6.67149e-11 0)
(-1.73783e-10 -7.91661e-11 0)
(-6.73666e-10 -5.83764e-10 0)
(-1.29733e-09 -9.44619e-10 0)
(-1.93701e-09 -9.62133e-10 0)
(-2.55602e-09 -7.0633e-10 0)
(-3.33164e-09 -3.04953e-10 0)
(-4.12304e-09 1.07071e-10 0)
(-5.07571e-09 4.71667e-10 0)
(-5.99833e-09 7.28276e-10 0)
(-7.03427e-09 8.86673e-10 0)
(-7.98752e-09 9.15539e-10 0)
(-8.99192e-09 8.44298e-10 0)
(-9.87087e-09 6.47573e-10 0)
(-1.07383e-08 3.60611e-10 0)
(-1.14482e-08 -3.37914e-11 0)
(-1.20896e-08 -4.96278e-10 0)
(-1.25525e-08 -1.03328e-09 0)
(-1.29041e-08 -1.60419e-09 0)
(-1.30711e-08 -2.20418e-09 0)
(-1.31048e-08 -2.79491e-09 0)
(-1.29647e-08 -3.36612e-09 0)
(-1.26927e-08 -3.88739e-09 0)
(-1.22746e-08 -4.34921e-09 0)
(-1.17466e-08 -4.73232e-09 0)
(-1.11124e-08 -5.03304e-09 0)
(-1.04038e-08 -5.24484e-09 0)
(-9.63392e-09 -5.37201e-09 0)
(-8.82914e-09 -5.41886e-09 0)
(-8.00447e-09 -5.39628e-09 0)
(-7.17934e-09 -5.31553e-09 0)
(-6.36552e-09 -5.19094e-09 0)
(-5.57462e-09 -5.0364e-09 0)
(-4.81263e-09 -4.86627e-09 0)
(-4.08353e-09 -4.69354e-09 0)
(-3.38717e-09 -4.53008e-09 0)
(-2.72116e-09 -4.38583e-09 0)
(-2.08025e-09 -4.26906e-09 0)
(-1.45736e-09 -4.18642e-09 0)
(-8.43477e-10 -4.14333e-09 0)
(-2.28248e-10 -4.14426e-09 0)
(3.99892e-10 -4.19285e-09 0)
(1.05318e-09 -4.29179e-09 0)
(1.7444e-09 -4.44282e-09 0)
(2.48622e-09 -4.6464e-09 0)
(3.29129e-09 -4.90176e-09 0)
(4.17119e-09 -5.20655e-09 0)
(5.13693e-09 -5.55672e-09 0)
(6.19684e-09 -5.9458e-09 0)
(7.3579e-09 -6.36435e-09 0)
(8.62155e-09 -6.79924e-09 0)
(9.98775e-09 -7.23343e-09 0)
(1.14465e-08 -7.64584e-09 0)
(1.29883e-08 -8.01167e-09 0)
(1.45867e-08 -8.30244e-09 0)
(1.62222e-08 -8.48687e-09 0)
(1.78462e-08 -8.53114e-09 0)
(1.94323e-08 -8.40305e-09 0)
(2.09062e-08 -8.07137e-09 0)
(2.22452e-08 -7.5157e-09 0)
(2.33471e-08 -6.71845e-09 0)
(2.42117e-08 -5.68622e-09 0)
(2.47105e-08 -4.42496e-09 0)
(2.48931e-08 -2.98507e-09 0)
(2.46079e-08 -1.40154e-09 0)
(2.39863e-08 2.22279e-10 0)
(2.28561e-08 1.83482e-09 0)
(2.14559e-08 3.29009e-09 0)
(1.9591e-08 4.55281e-09 0)
(1.76128e-08 5.46338e-09 0)
(1.52961e-08 6.04526e-09 0)
(1.30809e-08 6.16052e-09 0)
(1.07017e-08 5.92185e-09 0)
(8.63483e-09 5.24074e-09 0)
(6.57331e-09 4.32266e-09 0)
(4.9567e-09 3.14733e-09 0)
(3.45016e-09 1.99889e-09 0)
(2.37356e-09 9.40874e-10 0)
(1.38154e-09 2.69751e-10 0)
(6.46799e-10 -1.14003e-12 0)
(1.30836e-10 4.32313e-11 0)
(-1.74816e-10 -1.1922e-11 0)
(-6.6684e-10 -4.9518e-10 0)
(-1.36544e-09 -8.45573e-10 0)
(-2.00007e-09 -8.19913e-10 0)
(-2.75299e-09 -4.80319e-10 0)
(-3.50495e-09 8.07148e-12 0)
(-4.4401e-09 5.13592e-10 0)
(-5.33848e-09 9.34985e-10 0)
(-6.386e-09 1.24359e-09 0)
(-7.34189e-09 1.40223e-09 0)
(-8.38922e-09 1.4301e-09 0)
(-9.30178e-09 1.30455e-09 0)
(-1.02441e-08 1.05716e-09 0)
(-1.10235e-08 6.70523e-10 0)
(-1.17747e-08 1.82248e-10 0)
(-1.23465e-08 -4.14961e-10 0)
(-1.28404e-08 -1.07896e-09 0)
(-1.31484e-08 -1.80484e-09 0)
(-1.33451e-08 -2.54866e-09 0)
(-1.33623e-08 -3.29678e-09 0)
(-1.32547e-08 -4.00977e-09 0)
(-1.29873e-08 -4.67227e-09 0)
(-1.26028e-08 -5.25519e-09 0)
(-1.20906e-08 -5.74813e-09 0)
(-1.1486e-08 -6.13589e-09 0)
(-1.0794e-08 -6.41759e-09 0)
(-1.00438e-08 -6.5924e-09 0)
(-9.24736e-09 -6.66924e-09 0)
(-8.42754e-09 -6.65829e-09 0)
(-7.59676e-09 -6.57515e-09 0)
(-6.77051e-09 -6.43596e-09 0)
(-5.95745e-09 -6.25871e-09 0)
(-5.16557e-09 -6.06056e-09 0)
(-4.39798e-09 -5.85806e-09 0)
(-3.65591e-09 -5.66574e-09 0)
(-2.93715e-09 -5.49628e-09 0)
(-2.23758e-09 -5.36006e-09 0)
(-1.55071e-09 -5.26568e-09 0)
(-8.6853e-10 -5.22012e-09 0)
(-1.81438e-10 -5.22915e-09 0)
(5.21086e-10 -5.29728e-09 0)
(1.25037e-09 -5.42786e-09 0)
(2.01795e-09 -5.62279e-09 0)
(2.83554e-09 -5.88251e-09 0)
(3.71422e-09 -6.20569e-09 0)
(4.66475e-09 -6.58919e-09 0)
(5.69599e-09 -7.02734e-09 0)
(6.8158e-09 -7.5115e-09 0)
(8.02775e-09 -8.02898e-09 0)
(9.33394e-09 -8.56258e-09 0)
(1.07284e-08 -9.09014e-09 0)
(1.22048e-08 -9.58479e-09 0)
(1.3743e-08 -1.00149e-08 0)
(1.53274e-08 -1.0345e-08 0)
(1.69185e-08 -1.05354e-08 0)
(1.84935e-08 -1.0546e-08 0)
(1.99889e-08 -1.03358e-08 0)
(2.13832e-08 -9.87183e-09 0)
(2.25862e-08 -9.12411e-09 0)
(2.35937e-08 -8.08449e-09 0)
(2.4287e-08 -6.74669e-09 0)
(2.47038e-08 -5.1465e-09 0)
(2.46967e-08 -3.3123e-09 0)
(2.43768e-08 -1.34008e-09 0)
(2.35667e-08 7.10241e-10 0)
(2.24807e-08 2.68438e-09 0)
(2.09079e-08 4.51845e-09 0)
(1.91819e-08 6.02686e-09 0)
(1.70502e-08 7.18955e-09 0)
(1.49568e-08 7.83196e-09 0)
(1.25993e-08 8.02356e-09 0)
(1.04928e-08 7.64142e-09 0)
(8.2838e-09 6.86493e-09 0)
(6.49278e-09 5.64727e-09 0)
(4.73157e-09 4.26912e-09 0)
(3.44545e-09 2.7772e-09 0)
(2.24027e-09 1.52297e-09 0)
(1.39363e-09 6.10834e-10 0)
(5.87641e-10 2.37567e-10 0)
(1.35446e-10 1.45312e-10 0)
(-1.61423e-10 6.29542e-11 0)
(-6.83644e-10 -3.73769e-10 0)
(-1.34555e-09 -6.9394e-10 0)
(-2.08524e-09 -6.13159e-10 0)
(-2.78465e-09 -1.93535e-10 0)
(-3.6725e-09 3.83036e-10 0)
(-4.51618e-09 9.59999e-10 0)
(-5.54119e-09 1.43904e-09 0)
(-6.46172e-09 1.76653e-09 0)
(-7.51272e-09 1.93312e-09 0)
(-8.41255e-09 1.92529e-09 0)
(-9.3845e-09 1.76201e-09 0)
(-1.01806e-08 1.43458e-09 0)
(-1.09924e-08 9.72012e-10 0)
(-1.16193e-08 3.70285e-10 0)
(-1.22113e-08 -3.33924e-10 0)
(-1.26182e-08 -1.13465e-09 0)
(-1.29496e-08 -1.98842e-09 0)
(-1.31029e-08 -2.87878e-09 0)
(-1.31552e-08 -3.7617e-09 0)
(-1.30444e-08 -4.61619e-09 0)
(-1.28252e-08 -5.40468e-09 0)
(-1.24672e-08 -6.10909e-09 0)
(-1.2011e-08 -6.70458e-09 0)
(-1.14487e-08 -7.18254e-09 0)
(-1.08119e-08 -7.53416e-09 0)
(-1.01057e-08 -7.76316e-09 0)
(-9.35478e-09 -7.87549e-09 0)
(-8.56932e-09 -7.88526e-09 0)
(-7.76759e-09 -7.80844e-09 0)
(-6.95903e-09 -7.66493e-09 0)
(-6.15506e-09 -7.47483e-09 0)
(-5.36128e-09 -7.2588e-09 0)
(-4.5825e-09 -7.0359e-09 0)
(-3.81959e-09 -6.82358e-09 0)
(-3.07175e-09 -6.63671e-09 0)
(-2.33552e-09 -6.48788e-09 0)
(-1.60582e-09 -6.38744e-09 0)
(-8.75766e-10 -6.3439e-09 0)
(-1.37336e-10 -6.36415e-09 0)
(6.18525e-10 -6.45357e-09 0)
(1.40133e-09 -6.61593e-09 0)
(2.221e-09 -6.85335e-09 0)
(3.0872e-09 -7.16605e-09 0)
(4.0095e-09 -7.55229e-09 0)
(4.99629e-09 -8.00785e-09 0)
(6.05532e-09 -8.52561e-09 0)
(7.19128e-09 -9.09442e-09 0)
(8.40762e-09 -9.69846e-09 0)
(9.70156e-09 -1.03162e-08 0)
(1.10695e-08 -1.09207e-08 0)
(1.24969e-08 -1.1479e-08 0)
(1.39719e-08 -1.19536e-08 0)
(1.54636e-08 -1.23014e-08 0)
(1.6953e-08 -1.24771e-08 0)
(1.83885e-08 -1.24321e-08 0)
(1.97506e-08 -1.21232e-08 0)
(2.09635e-08 -1.15081e-08 0)
(2.20208e-08 -1.05636e-08 0)
(2.28191e-08 -9.26879e-09 0)
(2.33864e-08 -7.64106e-09 0)
(2.35887e-08 -5.69519e-09 0)
(2.35175e-08 -3.51059e-09 0)
(2.30032e-08 -1.14328e-09 0)
(2.2232e-08 1.25732e-09 0)
(2.0991e-08 3.61114e-09 0)
(1.95851e-08 5.71746e-09 0)
(1.77475e-08 7.51757e-09 0)
(1.59059e-08 8.80356e-09 0)
(1.37304e-08 9.59279e-09 0)
(1.17484e-08 9.72119e-09 0)
(9.56554e-09 9.32311e-09 0)
(7.75507e-09 8.31471e-09 0)
(5.87445e-09 6.95088e-09 0)
(4.46824e-09 5.24724e-09 0)
(3.08341e-09 3.5591e-09 0)
(2.14287e-09 2.01091e-09 0)
(1.22241e-09 9.59903e-10 0)
(5.75915e-10 4.26762e-10 0)
(1.10909e-10 2.40174e-10 0)
(-1.62125e-10 1.41775e-10 0)
(-6.42044e-10 -2.29542e-10 0)
(-1.36562e-09 -5.07576e-10 0)
(-2.02751e-09 -3.59621e-10 0)
(-2.85073e-09 1.33312e-10 0)
(-3.61934e-09 7.92088e-10 0)
(-4.59634e-09 1.42774e-09 0)
(-5.45806e-09 1.94532e-09 0)
(-6.4885e-09 2.28295e-09 0)
(-7.34664e-09 2.43243e-09 0)
(-8.31841e-09 2.39107e-09 0)
(-9.0917e-09 2.16722e-09 0)
(-9.92534e-09 1.77433e-09 0)
(-1.05588e-08 1.22056e-09 0)
(-1.12039e-08 5.29457e-10 0)
(-1.16589e-08 -2.87359e-10 0)
(-1.20827e-08 -1.19559e-09 0)
(-1.23307e-08 -2.17484e-09 0)
(-1.2514e-08 -3.18337e-09 0)
(-1.25375e-08 -4.19483e-09 0)
(-1.24759e-08 -5.16776e-09 0)
(-1.2274e-08 -6.0762e-09 0)
(-1.19823e-08 -6.88709e-09 0)
(-1.15751e-08 -7.58256e-09 0)
(-1.10882e-08 -8.14448e-09 0)
(-1.05151e-08 -8.56837e-09 0)
(-9.88262e-09 -8.85304e-09 0)
(-9.19478e-09 -9.00774e-09 0)
(-8.47166e-09 -9.04527e-09 0)
(-7.72092e-09 -8.98475e-09 0)
(-6.95641e-09 -8.84705e-09 0)
(-6.18471e-09 -8.65537e-09 0)
(-5.41365e-09 -8.43235e-09 0)
(-4.64647e-09 -8.19983e-09 0)
(-3.8856e-09 -7.97734e-09 0)
(-3.13044e-09 -7.78199e-09 0)
(-2.37906e-09 -7.62816e-09 0)
(-1.62752e-09 -7.52783e-09 0)
(-8.70744e-10 -7.49079e-09 0)
(-1.02415e-10 -7.52492e-09 0)
(6.84386e-10 -7.63626e-09 0)
(1.49717e-09 -7.829e-09 0)
(2.34347e-09 -8.1053e-09 0)
(3.23099e-09 -8.46529e-09 0)
(4.16673e-09 -8.90663e-09 0)
(5.15749e-09 -9.42427e-09 0)
(6.20804e-09 -1.00094e-08 0)
(7.32234e-09 -1.06486e-08 0)
(8.4998e-09 -1.13227e-08 0)
(9.73891e-09 -1.20064e-08 0)
(1.10297e-08 -1.26676e-08 0)
(1.23636e-08 -1.32685e-08 0)
(1.37173e-08 -1.37649e-08 0)
(1.50757e-08 -1.41091e-08 0)
(1.63981e-08 -1.42478e-08 0)
(1.76675e-08 -1.41305e-08 0)
(1.88225e-08 -1.37049e-08 0)
(1.98555e-08 -1.29341e-08 0)
(2.06806e-08 -1.17827e-08 0)
(2.13181e-08 -1.0249e-08 0)
(2.1652e-08 -8.33035e-09 0)
(2.17567e-08 -6.08437e-09 0)
(2.1479e-08 -3.55341e-09 0)
(2.09775e-08 -8.70697e-10 0)
(2.00501e-08 1.8825e-09 0)
(1.89674e-08 4.50384e-09 0)
(1.74635e-08 6.90865e-09 0)
(1.59358e-08 8.86443e-09 0)
(1.40411e-08 1.03405e-08 0)
(1.22966e-08 1.11296e-08 0)
(1.02772e-08 1.13098e-08 0)
(8.5824e-09 1.07522e-08 0)
(6.71968e-09 9.66615e-09 0)
(5.30664e-09 8.02686e-09 0)
(3.8236e-09 6.16318e-09 0)
(2.81975e-09 4.17285e-09 0)
(1.80087e-09 2.46787e-09 0)
(1.14226e-09 1.20446e-09 0)
(4.61667e-10 5.92352e-10 0)
(1.1352e-10 3.02411e-10 0)
(-1.42537e-10 2.2059e-10 0)
(-6.43937e-10 -7.92289e-11 0)
(-1.27242e-09 -2.92231e-10 0)
(-2.03329e-09 -8.72414e-11 0)
(-2.7187e-09 4.92598e-10 0)
(-3.62619e-09 1.2068e-09 0)
(-4.41337e-09 1.90279e-09 0)
(-5.40726e-09 2.4305e-09 0)
(-6.20935e-09 2.77195e-09 0)
(-7.16691e-09 2.88465e-09 0)
(-7.89632e-09 2.80136e-09 0)
(-8.72971e-09 2.51216e-09 0)
(-9.33577e-09 2.04892e-09 0)
(-9.99977e-09 1.41452e-09 0)
(-1.04578e-08 6.3565e-10 0)
(-1.09319e-08 -2.71932e-10 0)
(-1.12263e-08 -1.27942e-09 0)
(-1.14998e-08 -2.35705e-09 0)
(-1.16171e-08 -3.47172e-09 0)
(-1.16842e-08 -4.58572e-09 0)
(-1.16149e-08 -5.66505e-09 0)
(-1.14776e-08 -6.67306e-09 0)
(-1.12236e-08 -7.58185e-09 0)
(-1.08972e-08 -8.36515e-09 0)
(-1.04762e-08 -9.008e-09 0)
(-9.99048e-09 -9.50047e-09 0)
(-9.43465e-09 -9.84362e-09 0)
(-8.83013e-09 -1.00442e-08 0)
(-8.17987e-09 -1.0117e-08 0)
(-7.49922e-09 -1.00811e-08 0)
(-6.79365e-09 -9.95963e-09 0)
(-6.07316e-09 -9.77698e-09 0)
(-5.34208e-09 -9.55814e-09 0)
(-4.60552e-09 -9.32666e-09 0)
(-3.86509e-09 -9.10412e-09 0)
(-3.12175e-09 -8.90927e-09 0)
(-2.37427e-09 -8.7581e-09 0)
(-1.62051e-09 -8.66383e-09 0)
(-8.56983e-10 -8.63732e-09 0)
(-7.95862e-11 -8.68719e-09 0)
(7.16488e-10 -8.82004e-09 0)
(1.53624e-09 -9.04028e-09 0)
(2.38498e-09 -9.35022e-09 0)
(3.26776e-09 -9.74976e-09 0)
(4.18967e-09 -1.02362e-08 0)
(5.15468e-09 -1.08036e-08 0)
(6.16639e-09 -1.14416e-08 0)
(7.22538e-09 -1.21346e-08 0)
(8.33144e-09 -1.28606e-08 0)
(9.47824e-09 -1.359e-08 0)
(1.06599e-08 -1.42869e-08 0)
(1.18595e-08 -1.49081e-08 0)
(1.30654e-08 -1.54055e-08 0)
(1.42466e-08 -1.57243e-08 0)
(1.5389e-08 -1.58095e-08 0)
(1.64441e-08 -1.56023e-08 0)
(1.74042e-08 -1.50549e-08 0)
(1.81998e-08 -1.4119e-08 0)
(1.88453e-08 -1.27751e-08 0)
(1.92444e-08 -1.10026e-08 0)
(1.94561e-08 -8.83572e-09 0)
(1.93487e-08 -6.29718e-09 0)
(1.90546e-08 -3.49682e-09 0)
(1.83918e-08 -5.041e-10 0)
(1.75953e-08 2.49023e-09 0)
(1.64133e-08 5.3923e-09 0)
(1.52055e-08 7.95725e-09 0)
(1.36305e-08 1.01189e-08 0)
(1.21794e-08 1.16327e-08 0)
(1.04108e-08 1.25212e-08 0)
(8.92637e-09 1.26032e-08 0)
(7.19384e-09 1.20325e-08 0)
(5.87712e-09 1.07332e-08 0)
(4.3917e-09 8.98948e-09 0)
(3.38714e-09 6.85246e-09 0)
(2.28816e-09 4.71994e-09 0)
(1.62759e-09 2.77187e-09 0)
(8.98465e-10 1.40896e-09 0)
(4.36412e-10 6.75038e-10 0)
(8.25111e-11 3.42981e-10 0)
(-1.4433e-10 2.93574e-10 0)
(-5.70186e-10 8.03919e-11 0)
(-1.25748e-09 -7.96164e-11 0)
(-1.86894e-09 2.13936e-10 0)
(-2.6885e-09 8.44052e-10 0)
(-3.38963e-09 1.64022e-09 0)
(-4.33204e-09 2.34646e-09 0)
(-5.07107e-09 2.90462e-09 0)
(-6.0092e-09 3.20291e-09 0)
(-6.68864e-09 3.29472e-09 0)
(-7.51587e-09 3.13654e-09 0)
(-8.07878e-09 2.79647e-09 0)
(-8.7446e-09 2.24888e-09 0)
(-9.17476e-09 1.5497e-09 0)
(-9.66815e-09 6.86963e-10 0)
(-9.96619e-09 -2.93039e-10 0)
(-1.02902e-08 -1.38346e-09 0)
(-1.04553e-08 -2.53995e-09 0)
(-1.06119e-08 -3.73903e-09 0)
(-1.06362e-08 -4.93719e-09 0)
(-1.06243e-08 -6.10206e-09 0)
(-1.04997e-08 -7.19511e-09 0)
(-1.03214e-08 -8.18624e-09 0)
(-1.00475e-08 -9.04863e-09 0)
(-9.71448e-09 -9.76422e-09 0)
(-9.30366e-09 -1.0323e-08 0)
(-8.83886e-09 -1.07238e-08 0)
(-8.31538e-09 -1.09738e-08 0)
(-7.74967e-09 -1.1087e-08 0)
(-7.14376e-09 -1.10835e-08 0)
(-6.50898e-09 -1.09869e-08 0)
(-5.84911e-09 -1.08232e-08 0)
(-5.17112e-09 -1.06186e-08 0)
(-4.4778e-09 -1.03981e-08 0)
(-3.77241e-09 -1.01849e-08 0)
(-3.05576e-09 -9.99893e-09 0)
(-2.32829e-09 -9.85736e-09 0)
(-1.58899e-09 -9.7744e-09 0)
(-8.36453e-10 -9.76161e-09 0)
(-6.85166e-11 -9.82819e-09 0)
(7.1719e-10 -9.98101e-09 0)
(1.52341e-09 -1.02248e-08 0)
(2.35284e-09 -1.05618e-08 0)
(3.20844e-09 -1.0992e-08 0)
(4.09264e-09 -1.15123e-08 0)
(5.00792e-09 -1.21159e-08 0)
(5.95501e-09 -1.27914e-08 0)
(6.93423e-09 -1.3521e-08 0)
(7.94172e-09 -1.42798e-08 0)
(8.97369e-09 -1.50354e-08 0)
(1.00185e-08 -1.57475e-08 0)
(1.10676e-08 -1.63696e-08 0)
(1.20983e-08 -1.68479e-08 0)
(1.30994e-08 -1.71259e-08 0)
(1.40338e-08 -1.71414e-08 0)
(1.48941e-08 -1.6839e-08 0)
(1.56261e-08 -1.61605e-08 0)
(1.62388e-08 -1.50715e-08 0)
(1.66553e-08 -1.35348e-08 0)
(1.69212e-08 -1.15616e-08 0)
(1.69272e-08 -9.15347e-09 0)
(1.67819e-08 -6.39318e-09 0)
(1.63279e-08 -3.33002e-09 0)
(1.57655e-08 -1.33068e-10 0)
(1.48665e-08 3.11055e-09 0)
(1.39495e-08 6.15737e-09 0)
(1.26896e-08 8.92318e-09 0)
(1.15403e-08 1.11362e-08 0)
(1.0061e-08 1.27751e-08 0)
(8.83663e-09 1.36067e-08 0)
(7.31036e-09 1.37275e-08 0)
(6.16691e-09 1.30008e-08 0)
(4.76568e-09 1.16588e-08 0)
(3.82999e-09 9.68999e-09 0)
(2.69946e-09 7.45212e-09 0)
(2.0428e-09 5.08191e-09 0)
(1.2571e-09 3.02826e-09 0)
(8.29821e-10 1.5011e-09 0)
(3.08015e-10 7.24367e-10 0)
(8.79358e-11 3.49082e-10 0)
(-1.1835e-10 3.62636e-10 0)
(-5.64885e-10 2.23619e-10 0)
(-1.10505e-09 1.53031e-10 0)
(-1.82939e-09 4.94345e-10 0)
(-2.43598e-09 1.2248e-09 0)
(-3.3074e-09 2.03478e-09 0)
(-3.97782e-09 2.80241e-09 0)
(-4.89152e-09 3.31334e-09 0)
(-5.52254e-09 3.61724e-09 0)
(-6.34697e-09 3.61951e-09 0)
(-6.86588e-09 3.43127e-09 0)
(-7.53231e-09 2.99135e-09 0)
(-7.92126e-09 2.40005e-09 0)
(-8.4191e-09 1.61024e-09 0)
(-8.6916e-09 7.00223e-10 0)
(-9.0368e-09 -3.57564e-10 0)
(-9.20887e-09 -1.49863e-09 0)
(-9.41724e-09 -2.7259e-09 0)
(-9.49171e-09 -3.98213e-09 0)
(-9.56799e-09 -5.25019e-09 0)
(-9.53583e-09 -6.47924e-09 0)
(-9.4776e-09 -7.64307e-09 0)
(-9.32734e-09 -8.70187e-09 0)
(-9.13334e-09 -9.63316e-09 0)
(-8.86042e-09 -1.04138e-08 0)
(-8.53728e-09 -1.10347e-08 0)
(-8.14866e-09 -1.14919e-08 0)
(-7.71277e-09 -1.17927e-08 0)
(-7.22579e-09 -1.19502e-08 0)
(-6.69996e-09 -1.19848e-08 0)
(-6.13669e-09 -1.19203e-08 0)
(-5.54409e-09 -1.17836e-08 0)
(-4.92477e-09 -1.16017e-08 0)
(-4.28355e-09 -1.14009e-08 0)
(-3.62237e-09 -1.1205e-08 0)
(-2.94358e-09 -1.10351e-08 0)
(-2.24805e-09 -1.0909e-08 0)
(-1.53658e-09 -1.08415e-08 0)
(-8.09246e-10 -1.08446e-08 0)
(-6.61049e-11 -1.09278e-08 0)
(6.93147e-10 -1.10982e-08 0)
(1.4688e-09 -1.13606e-08 0)
(2.26143e-09 -1.17174e-08 0)
(3.07151e-09 -1.21687e-08 0)
(3.8998e-09 -1.27111e-08 0)
(4.74626e-09 -1.33373e-08 0)
(5.61088e-09 -1.40348e-08 0)
(6.49113e-09 -1.47841e-08 0)
(7.3846e-09 -1.55582e-08 0)
(8.28354e-09 -1.63214e-08 0)
(9.18217e-09 -1.70313e-08 0)
(1.00647e-08 -1.76367e-08 0)
(1.09228e-08 -1.80823e-08 0)
(1.17294e-08 -1.83054e-08 0)
(1.24781e-08 -1.82464e-08 0)
(1.31276e-08 -1.78407e-08 0)
(1.36837e-08 -1.70418e-08 0)
(1.40864e-08 -1.57989e-08 0)
(1.43699e-08 -1.41029e-08 0)
(1.44468e-08 -1.19342e-08 0)
(1.44034e-08 -9.34843e-09 0)
(1.41092e-08 -6.37082e-09 0)
(1.37305e-08 -3.14264e-09 0)
(1.30689e-08 2.67574e-10 0)
(1.23998e-08 3.6303e-09 0)
(1.14267e-08 6.86053e-09 0)
(1.05582e-08 9.67319e-09 0)
(9.37164e-09 1.20202e-08 0)
(8.41907e-09 1.36221e-08 0)
(7.13935e-09 1.45283e-08 0)
(6.21472e-09 1.45349e-08 0)
(4.9649e-09 1.38221e-08 0)
(4.15918e-09 1.23063e-08 0)
(3.0581e-09 1.02941e-08 0)
(2.43771e-09 7.85125e-09 0)
(1.58908e-09 5.39966e-09 0)
(1.17731e-09 3.16301e-09 0)
(6.04711e-10 1.57177e-09 0)
(3.08486e-10 7.0996e-10 0)
(5.31932e-11 3.39128e-10 0)
(-1.21965e-10 4.18486e-10 0)
(-4.64853e-10 3.74321e-10 0)
(-1.07801e-09 3.55872e-10 0)
(-1.5947e-09 8.0885e-10 0)
(-2.3717e-09 1.56101e-09 0)
(-2.96408e-09 2.46456e-09 0)
(-3.84101e-09 3.18824e-09 0)
(-4.42563e-09 3.73721e-09 0)
(-5.25096e-09 3.93805e-09 0)
(-5.73294e-09 3.93519e-09 0)
(-6.40805e-09 3.62387e-09 0)
(-6.75637e-09 3.16156e-09 0)
(-7.25846e-09 2.45963e-09 0)
(-7.49198e-09 1.64585e-09 0)
(-7.84358e-09 6.49206e-10 0)
(-7.99404e-09 -4.32051e-10 0)
(-8.22572e-09 -1.64029e-09 0)
(-8.31171e-09 -2.89615e-09 0)
(-8.44055e-09 -4.21089e-09 0)
(-8.46043e-09 -5.51746e-09 0)
(-8.48771e-09 -6.80441e-09 0)
(-8.42708e-09 -8.01715e-09 0)
(-8.34589e-09 -9.13582e-09 0)
(-8.18881e-09 -1.01225e-08 0)
(-7.99365e-09 -1.09628e-08 0)
(-7.73186e-09 -1.16393e-08 0)
(-7.42518e-09 -1.21516e-08 0)
(-7.0617e-09 -1.25026e-08 0)
(-6.65489e-09 -1.27069e-08 0)
(-6.20188e-09 -1.27833e-08 0)
(-5.71151e-09 -1.27563e-08 0)
(-5.18475e-09 -1.26527e-08 0)
(-4.62735e-09 -1.25004e-08 0)
(-4.04124e-09 -1.2326e-08 0)
(-3.43002e-09 -1.21539e-08 0)
(-2.79553e-09 -1.20057e-08 0)
(-2.14015e-09 -1.18996e-08 0)
(-1.46557e-09 -1.18506e-08 0)
(-7.73749e-10 -1.18707e-08 0)
(-6.64162e-11 -1.19695e-08 0)
(6.54527e-10 -1.21543e-08 0)
(1.3874e-09 -1.24299e-08 0)