/*--------------------------------*- C++ -*----------------------------------*\
| =========                 |                                                 |
| \\      /  F ield         | OpenFOAM: The Open Source CFD Toolbox           |
|  \\    /   O peration     | Version:  2412                                  |
|   \\  /    A nd           | Website:  www.openfoam.com                      |
|    \\/     M anipulation  |                                                 |
\*---------------------------------------------------------------------------*/
FoamFile
{
    version     2.0;
    format      ascii;
    arch        "LSB;label=32;scalar=64";
    class       volVectorField;
    location    "9.15";
    object      U;
}
// * * * * * * * * * * * * * * * * * * * * * * * * * * * * * * * * * * * * * //

dimensions      [0 1 -1 0 0 0 0];

internalField   nonuniform List<vector> 
6400
(
(4.16008e-07 -1.53147e-06 0)
(3.47512e-06 -5.34522e-06 0)
(5.40329e-06 -6.18245e-06 0)
(2.10526e-06 -1.63131e-06 0)
(-5.51458e-06 6.47906e-06 0)
(-1.21404e-05 1.29591e-05 0)
(-1.16794e-05 1.23809e-05 0)
(-2.16541e-06 3.14511e-06 0)
(1.17743e-05 -1.04667e-05 0)
(2.10772e-05 -2.01554e-05 0)
(1.81082e-05 -1.87067e-05 0)
(2.4589e-06 -5.1647e-06 0)
(-1.75554e-05 1.35665e-05 0)
(-2.93492e-05 2.62575e-05 0)
(-2.40656e-05 2.4207e-05 0)
(-2.97715e-06 7.15757e-06 0)
(2.22378e-05 -1.57296e-05 0)
(3.60905e-05 -3.08845e-05 0)
(2.89425e-05 -2.85242e-05 0)
(3.61954e-06 -8.99742e-06 0)
(-2.55214e-05 1.68549e-05 0)
(-4.09098e-05 3.38453e-05 0)
(-3.25306e-05 3.15248e-05 0)
(-4.4411e-06 1.06725e-05 0)
(2.72054e-05 -1.68751e-05 0)
(4.36451e-05 -3.50873e-05 0)
(3.48064e-05 -3.32224e-05 0)
(5.51819e-06 -1.22298e-05 0)
(-2.72243e-05 1.57802e-05 0)
(-4.43191e-05 3.46663e-05 0)
(-3.58644e-05 3.36964e-05 0)
(-6.92251e-06 1.36929e-05 0)
(2.56231e-05 -1.3659e-05 0)
(4.30947e-05 -3.27651e-05 0)
(3.5868e-05 -3.31198e-05 0)
(8.66613e-06 -1.50953e-05 0)
(-2.2597e-05 1.06682e-05 0)
(-4.02747e-05 2.96439e-05 0)
(-3.5034e-05 3.16829e-05 0)
(-1.07245e-05 1.64176e-05 0)
(1.84179e-05 -7.04732e-06 0)
(3.62138e-05 -2.56314e-05 0)
(3.35585e-05 -2.96044e-05 0)
(1.29779e-05 -1.7624e-05 0)
(-1.34749e-05 3.07389e-06 0)
(-3.13394e-05 2.10729e-05 0)
(-3.16432e-05 2.70738e-05 0)
(-1.52787e-05 1.86233e-05 0)
(8.16717e-06 9.33506e-07 0)
(2.60442e-05 -1.63215e-05 0)
(2.94172e-05 -2.4267e-05 0)
(1.74031e-05 -1.93157e-05 0)
(-2.93498e-06 -4.67286e-06 0)
(-2.07131e-05 1.16828e-05 0)
(-2.69821e-05 2.13017e-05 0)
(-1.91279e-05 1.95661e-05 0)
(-1.83536e-06 7.85247e-06 0)
(1.56433e-05 -7.42275e-06 0)
(2.43656e-05 -1.82675e-05 0)
(2.02112e-05 -1.92595e-05 0)
(5.8008e-06 -1.02509e-05 0)
(-1.10622e-05 3.71693e-06 0)
(-2.15582e-05 1.51918e-05 0)
(-2.04495e-05 1.82827e-05 0)
(-8.72469e-06 1.17128e-05 0)
(7.08024e-06 -6.56329e-07 0)
(1.84915e-05 -1.2064e-05 0)
(1.9675e-05 -1.65776e-05 0)
(1.04841e-05 -1.2229e-05 0)
(-3.67189e-06 -1.85431e-06 0)
(-1.50068e-05 8.73775e-06 0)
(-1.77317e-05 1.41065e-05 0)
(-1.11202e-05 1.20498e-05 0)
(4.467e-07 4.3937e-06 0)
(1.03845e-05 -4.55893e-06 0)
(1.39572e-05 -1.07098e-05 0)
(1.09285e-05 -1.2143e-05 0)
(5.25739e-06 -9.3495e-06 0)
(1.03124e-06 -4.29691e-06 0)
(-7.57955e-07 -2.57369e-08 0)
(-3.25042e-06 4.8465e-07 0)
(-3.98572e-07 -6.63173e-06 0)
(8.00415e-06 -1.35924e-05 0)
(1.16108e-05 -1.18973e-05 0)
(5.57934e-06 7.83318e-07 0)
(-7.63366e-06 1.83333e-05 0)
(-1.92027e-05 2.88944e-05 0)
(-1.96659e-05 2.251e-05 0)
(-5.98768e-06 -8.38436e-07 0)
(1.50074e-05 -2.90201e-05 0)
(2.99426e-05 -4.40296e-05 0)
(2.74477e-05 -3.35382e-05 0)
(6.45874e-06 -2.57591e-07 0)
(-2.16763e-05 3.77201e-05 0)
(-3.94241e-05 5.69254e-05 0)
(-3.41447e-05 4.32237e-05 0)
(-6.92209e-06 1.88677e-06 0)
(2.69528e-05 -4.40104e-05 0)
(4.67598e-05 -6.6737e-05 0)
(3.92272e-05 -5.09376e-05 0)
(7.38594e-06 -3.92796e-06 0)
(-3.04909e-05 4.76108e-05 0)
(-5.16103e-05 7.30909e-05 0)
(-4.26017e-05 5.64733e-05 0)
(-8.01668e-06 6.40312e-06 0)
(3.20376e-05 -4.83978e-05 0)
(5.38381e-05 -7.59359e-05 0)
(4.43147e-05 -5.99077e-05 0)
(8.93734e-06 -9.41686e-06 0)
(-3.15619e-05 4.6377e-05 0)
(-5.35791e-05 7.54093e-05 0)
(-4.45862e-05 6.13828e-05 0)
(-1.0282e-05 1.29398e-05 0)
(2.91398e-05 -4.18265e-05 0)
(5.10878e-05 -7.19331e-05 0)
(4.36602e-05 -6.12117e-05 0)
(1.20618e-05 -1.69418e-05 0)
(-2.50699e-05 3.51452e-05 0)
(-4.68225e-05 6.60297e-05 0)
(-4.187e-05 5.96743e-05 0)
(-1.42658e-05 2.12253e-05 0)
(1.97049e-05 -2.69407e-05 0)
(4.12429e-05 -5.8376e-05 0)
(3.94568e-05 -5.71074e-05 0)
(1.67148e-05 -2.5572e-05 0)
(-1.35764e-05 1.78521e-05 0)
(-3.49256e-05 4.96164e-05 0)
(-3.66985e-05 5.37312e-05 0)
(-1.92355e-05 2.96156e-05 0)
(7.1702e-06 -8.6236e-06 0)
(2.83342e-05 -4.04331e-05 0)
(3.37191e-05 -4.97716e-05 0)
(2.15156e-05 -3.30225e-05 0)
(-1.05253e-06 -9.70346e-08 0)
(-2.19479e-05 3.13554e-05 0)
(-3.06388e-05 4.53018e-05 0)
(-2.32846e-05 3.5374e-05 0)
(-4.33045e-06 7.66889e-06 0)
(1.60817e-05 -2.28657e-05 0)
(2.74423e-05 -4.0397e-05 0)
(2.42234e-05 -3.63632e-05 0)
(8.57312e-06 -1.36564e-05 0)
(-1.09746e-05 1.52277e-05 0)
(-2.40825e-05 3.50014e-05 0)
(-2.40812e-05 3.56955e-05 0)
(-1.14331e-05 1.77525e-05 0)
(6.67615e-06 -8.57147e-06 0)
(2.03848e-05 -2.90494e-05 0)
(2.26008e-05 -3.32656e-05 0)
(1.27871e-05 -2.00024e-05 0)
(-3.02436e-06 2.64657e-06 0)
(-1.59438e-05 2.22629e-05 0)
(-1.9414e-05 2.90931e-05 0)
(-1.27652e-05 2.09654e-05 0)
(-9.94258e-07 3.53334e-06 0)
(9.03354e-06 -1.37384e-05 0)
(1.34036e-05 -2.29605e-05 0)
(1.30195e-05 -2.14186e-05 0)
(1.09003e-05 -1.26076e-05 0)
(3.32975e-06 -2.67096e-06 0)
(-7.58082e-06 5.62445e-06 0)
(-1.02968e-05 2.22568e-06 0)
(1.04592e-06 -8.4455e-06 0)
(1.43814e-05 -1.71407e-05 0)
(1.95273e-05 -1.55535e-05 0)
(1.06131e-05 -1.27236e-06 0)
(-8.95824e-06 1.87222e-05 0)
(-2.70862e-05 3.11978e-05 0)
(-3.02682e-05 2.53306e-05 0)
(-1.32705e-05 1.18348e-06 0)
(1.57461e-05 -2.83639e-05 0)
(3.90086e-05 -4.45442e-05 0)
(4.01758e-05 -3.47212e-05 0)
(1.56643e-05 -1.733e-06 0)
(-2.15482e-05 3.61448e-05 0)
(-4.88991e-05 5.55268e-05 0)
(-4.81699e-05 4.25701e-05 0)
(-1.76149e-05 2.64304e-06 0)
(2.57904e-05 -4.1648e-05 0)
(5.59953e-05 -6.3534e-05 0)
(5.37916e-05 -4.85234e-05 0)
(1.91099e-05 -3.96299e-06 0)
(-2.8222e-05 4.45751e-05 0)
(-6.00809e-05 6.82759e-05 0)
(-5.70509e-05 5.24636e-05 0)
(-2.037e-05 5.73157e-06 0)
(2.85933e-05 -4.48799e-05 0)
(6.10675e-05 -6.98384e-05 0)
(5.80529e-05 -5.46002e-05 0)
(2.1534e-05 -8.12769e-06 0)
(-2.69371e-05 4.25617e-05 0)
(-5.92194e-05 6.83843e-05 0)
(-5.71492e-05 5.50828e-05 0)
(-2.28024e-05 1.1087e-05 0)
(2.33573e-05 -3.79669e-05 0)
(5.48895e-05 -6.44094e-05 0)
(5.46844e-05 -5.42803e-05 0)
(2.42144e-05 -1.46108e-05 0)
(-1.82343e-05 3.1473e-05 0)
(-4.86943e-05 5.8404e-05 0)
(-5.11434e-05 5.24225e-05 0)
(-2.58247e-05 1.84478e-05 0)
(1.19636e-05 -2.37241e-05 0)
(4.12034e-05 -5.10586e-05 0)
(4.68648e-05 -4.98532e-05 0)
(2.74685e-05 -2.2407e-05 0)
(-5.16632e-06 1.52951e-05 0)
(-3.31439e-05 4.29243e-05 0)
(-4.22588e-05 4.67016e-05 0)
(-2.90237e-05 2.60693e-05 0)
(-1.6318e-06 -6.93083e-06 0)
(2.50658e-05 -3.46529e-05 0)
(3.75168e-05 -4.31787e-05 0)
(3.0179e-05 -2.91408e-05 0)
(7.79578e-06 -8.20797e-07 0)
(-1.75497e-05 2.66481e-05 0)
(-3.2841e-05 3.92584e-05 0)
(-3.06933e-05 3.11687e-05 0)
(-1.28599e-05 7.34891e-06 0)
(1.09486e-05 -1.93398e-05 0)
(2.82407e-05 -3.49981e-05 0)
(3.02456e-05 -3.18984e-05 0)
(1.63991e-05 -1.23321e-05 0)
(-5.51967e-06 1.28623e-05 0)
(-2.36744e-05 3.02527e-05 0)
(-2.85872e-05 3.10188e-05 0)
(-1.81934e-05 1.55126e-05 0)
(1.25107e-06 -7.26981e-06 0)
(1.88814e-05 -2.49009e-05 0)
(2.54074e-05 -2.84168e-05 0)
(1.81733e-05 -1.69757e-05 0)
(2.20221e-06 2.22812e-06 0)
(-1.3255e-05 1.85107e-05 0)
(-2.03596e-05 2.38166e-05 0)
(-1.68595e-05 1.68105e-05 0)
(-6.23259e-06 2.82809e-06 0)
(5.88845e-06 -9.86802e-06 0)
(1.5329e-05 -1.53009e-05 0)
(1.90313e-05 -1.30399e-05 0)
(8.11498e-06 -6.14066e-06 0)
(-7.49053e-06 6.92274e-06 0)
(-1.72613e-05 1.13803e-05 0)
(-1.1494e-05 4.69982e-06 0)
(4.37859e-06 -1.02382e-05 0)
(2.14081e-05 -2.3533e-05 0)
(2.70187e-05 -2.37602e-05 0)
(1.40183e-05 -6.84335e-06 0)
(-1.23809e-05 1.9256e-05 0)
(-3.59454e-05 3.8172e-05 0)
(-3.94935e-05 3.54769e-05 0)
(-1.71316e-05 9.18407e-06 0)
(1.99871e-05 -2.70246e-05 0)
(4.91911e-05 -5.09824e-05 0)
(5.03721e-05 -4.58187e-05 0)
(1.97194e-05 -1.16482e-05 0)
(-2.62344e-05 3.28554e-05 0)
(-5.97073e-05 6.08696e-05 0)
(-5.87733e-05 5.38798e-05 0)
(-2.17628e-05 1.391e-05 0)
(3.05289e-05 -3.65515e-05 0)
(6.68016e-05 -6.74851e-05 0)
(6.43216e-05 -5.95101e-05 0)
(2.32865e-05 -1.61157e-05 0)
(-3.2657e-05 3.78169e-05 0)
(-7.03589e-05 7.05895e-05 0)
(-6.71464e-05 6.26274e-05 0)
(-2.45923e-05 1.82768e-05 0)
(3.23645e-05 -3.67041e-05 0)
(7.03559e-05 -7.04108e-05 0)
(6.74316e-05 -6.35739e-05 0)
(2.58376e-05 -2.06456e-05 0)
(-2.9761e-05 3.32189e-05 0)
(-6.71947e-05 6.71736e-05 0)
(-6.56476e-05 6.25603e-05 0)
(-2.72546e-05 2.31629e-05 0)
(2.5017e-05 -2.77813e-05 0)
(6.13409e-05 -6.15049e-05 0)
(6.22124e-05 -6.00916e-05 0)
(2.88543e-05 -2.59155e-05 0)
(-1.86391e-05 2.07614e-05 0)
(-5.35647e-05 5.3949e-05 0)
(-5.77047e-05 5.64622e-05 0)
(-3.06785e-05 2.86716e-05 0)
(1.11185e-05 -1.28571e-05 0)
(4.45394e-05 -4.53112e-05 0)
(5.24974e-05 -5.2147e-05 0)
(3.24973e-05 -3.13375e-05 0)
(-3.20626e-06 4.60981e-06 0)
(-3.51113e-05 3.61662e-05 0)
(-4.70452e-05 4.73195e-05 0)
(-3.41463e-05 3.35139e-05 0)
(-4.48776e-06 3.20365e-06 0)
(2.58901e-05 -2.72489e-05 0)
(4.15307e-05 -4.22981e-05 0)
(3.52424e-05 -3.5003e-05 0)
(1.1239e-05 -1.00929e-05 0)
(-1.7511e-05 1.89492e-05 0)
(-3.61519e-05 3.70714e-05 0)
(-3.55002e-05 3.53689e-05 0)
(-1.65419e-05 1.54428e-05 0)
(1.0327e-05 -1.17333e-05 0)
(3.08776e-05 -3.17619e-05 0)
(3.45502e-05 -3.44376e-05 0)
(1.99536e-05 -1.90105e-05 0)
(-4.56652e-06 5.67534e-06 0)
(-2.56131e-05 2.61937e-05 0)
(-3.21115e-05 3.18991e-05 0)
(-2.12825e-05 2.05681e-05 0)
(1.34493e-07 -7.79669e-07 0)
(2.00175e-05 -2.01852e-05 0)
(2.78746e-05 -2.75864e-05 0)
(2.05496e-05 -2.018e-05 0)
(3.36284e-06 -3.35095e-06 0)
(-1.37006e-05 1.30933e-05 0)
(-2.19837e-05 2.08415e-05 0)
(-1.83943e-05 1.75104e-05 0)
(-5.67894e-06 7.03258e-06 0)
(9.75678e-06 -4.05009e-06 0)
(1.96873e-05 -1.09496e-05 0)
(1.02768e-05 -9.43184e-06 0)
(-1.4895e-06 1.72822e-06 0)
(-1.35348e-05 1.32344e-05 0)
(-2.03074e-05 1.79826e-05 0)
(-1.36314e-05 7.80503e-06 0)
(6.35296e-06 -1.33354e-05 0)
(2.77333e-05 -3.15859e-05 0)
(3.4301e-05 -3.23815e-05 0)
(1.77448e-05 -1.09537e-05 0)
(-1.4662e-05 2.24651e-05 0)
(-4.3004e-05 4.73651e-05 0)
(-4.71716e-05 4.5681e-05 0)
(-2.09109e-05 1.45462e-05 0)
(2.22497e-05 -2.98008e-05 0)
(5.60345e-05 -6.05851e-05 0)
(5.77042e-05 -5.69486e-05 0)
(2.33224e-05 -1.80102e-05 0)
(-2.82334e-05 3.492e-05 0)
(-6.58707e-05 7.02461e-05 0)
(-6.53813e-05 6.53006e-05 0)
(-2.51002e-05 2.09683e-05 0)
(3.20575e-05 -3.77573e-05 0)
(7.19481e-05 -7.61815e-05 0)
(6.99562e-05 -7.07659e-05 0)
(2.63273e-05 -2.3689e-05 0)
(-3.35541e-05 3.79777e-05 0)
(-7.42768e-05 7.81767e-05 0)
(-7.16941e-05 7.32951e-05 0)
(-2.73766e-05 2.61672e-05 0)
(3.24947e-05 -3.57226e-05 0)
(7.29274e-05 -7.65961e-05 0)
(7.08666e-05 -7.3355e-05 0)
(2.84186e-05 -2.87097e-05 0)
(-2.90696e-05 3.10328e-05 0)
(-6.84308e-05 7.17504e-05 0)
(-6.8045e-05 7.12204e-05 0)
(-2.97031e-05 3.12385e-05 0)
(2.35119e-05 -2.44364e-05 0)
(6.13407e-05 -6.44163e-05 0)
(6.36929e-05 -6.75142e-05 0)
(3.12076e-05 -3.38749e-05 0)
(-1.64236e-05 1.63544e-05 0)
(-5.25285e-05 5.52222e-05 0)
(-5.84394e-05 6.25777e-05 0)
(-3.29558e-05 3.63508e-05 0)
(8.35482e-06 -7.59632e-06 0)
(4.27146e-05 -4.51085e-05 0)
(5.26551e-05 -5.6983e-05 0)
(3.46649e-05 -3.85985e-05 0)
(-1.25679e-07 -1.26363e-06 0)
(-3.27894e-05 3.46961e-05 0)
(-4.67931e-05 5.09143e-05 0)
(-3.6138e-05 4.01726e-05 0)
(-7.62576e-06 9.36033e-06 0)
(2.33579e-05 -2.48126e-05 0)
(4.09986e-05 -4.47541e-05 0)
(3.69474e-05 -4.09016e-05 0)
(1.41543e-05 -1.62069e-05 0)
(-1.50401e-05 1.58435e-05 0)
(-3.54347e-05 3.847e-05 0)
(-3.67862e-05 4.03122e-05 0)
(-1.89709e-05 2.11474e-05 0)
(8.1378e-06 -8.28785e-06 0)
(3.00163e-05 -3.22105e-05 0)
(3.52681e-05 -3.8262e-05 0)
(2.16704e-05 -2.39854e-05 0)
(-2.80749e-06 2.16217e-06 0)
(-2.45909e-05 2.57475e-05 0)
(-3.211e-05 3.44115e-05 0)
(-2.21156e-05 2.4495e-05 0)
(-1.10315e-06 2.55647e-06 0)
(1.88262e-05 -1.88595e-05 0)
(2.70795e-05 -2.85499e-05 0)
(2.0331e-05 -2.26823e-05 0)
(3.69639e-06 -6.16576e-06 0)
(-1.29176e-05 1.10774e-05 0)
(-2.05822e-05 2.02404e-05 0)
(-1.57435e-05 1.81267e-05 0)
(-1.94193e-06 7.46313e-06 0)
(1.12054e-05 -5.23339e-06 0)
(8.62967e-06 -9.74469e-06 0)
(7.73569e-06 -7.45608e-06 0)
(1.98917e-06 4.5004e-06 0)
(-1.65315e-05 2.10413e-05 0)
(-2.70186e-05 2.53243e-05 0)
(-1.7939e-05 1.07764e-05 0)
(8.06197e-06 -1.61865e-05 0)
(3.46824e-05 -3.88575e-05 0)
(4.24061e-05 -4.01498e-05 0)
(2.22427e-05 -1.48254e-05 0)
(-1.64083e-05 2.47597e-05 0)
(-4.99981e-05 5.45608e-05 0)
(-5.54168e-05 5.36847e-05 0)
(-2.57706e-05 1.88312e-05 0)
(2.33885e-05 -3.15733e-05 0)
(6.23483e-05 -6.72725e-05 0)
(6.55317e-05 -6.46811e-05 0)
(2.83368e-05 -2.24815e-05 0)
(-2.85973e-05 3.6014e-05 0)
(-7.11168e-05 7.60236e-05 0)
(-7.24268e-05 7.23669e-05 0)
(-3.01229e-05 2.54426e-05 0)
(3.15298e-05 -3.80943e-05 0)
(7.58562e-05 -8.08187e-05 0)
(7.59724e-05 -7.69613e-05 0)
(3.12611e-05 -2.81141e-05 0)
(-3.20684e-05 3.74477e-05 0)
(-7.66993e-05 8.14888e-05 0)
(-7.65552e-05 7.84692e-05 0)
(-3.21732e-05 3.04867e-05 0)
(3.00323e-05 -3.43007e-05 0)
(7.38212e-05 -7.85311e-05 0)
(7.45331e-05 -7.74725e-05 0)
(3.30354e-05 -3.29096e-05 0)
(-2.5696e-05 2.87332e-05 0)
(-6.78789e-05 7.23329e-05 0)
(-7.0572e-05 7.42927e-05 0)
(-3.41113e-05 3.52761e-05 0)
(1.93545e-05 -2.13718e-05 0)
(5.9511e-05 -6.37897e-05 0)
(6.51815e-05 -6.96347e-05 0)
(3.53537e-05 -3.77232e-05 0)
(-1.16895e-05 1.26739e-05 0)
(-4.96759e-05 5.35735e-05 0)
(-5.90381e-05 6.38437e-05 0)
(-3.67772e-05 3.99308e-05 0)
(3.29599e-06 -3.53639e-06 0)
(3.91349e-05 -4.27073e-05 0)
(5.25186e-05 -5.75402e-05 0)
(3.80693e-05 -4.1842e-05 0)
(4.96308e-06 -5.4619e-06 0)
(-2.88065e-05 3.18037e-05 0)
(-4.60783e-05 5.08724e-05 0)
(-3.90192e-05 4.2956e-05 0)
(-1.2441e-05 1.34025e-05 0)
(1.92856e-05 -2.17251e-05 0)
(3.98391e-05 -4.42412e-05 0)
(3.91824e-05 -4.31203e-05 0)
(1.8398e-05 -1.98343e-05 0)
(-1.11669e-05 1.28033e-05 0)
(-3.39393e-05 3.75581e-05 0)
(-3.8252e-05 4.18241e-05 0)
(-2.23794e-05 2.4093e-05 0)
(4.70014e-06 -5.52718e-06 0)
(2.8259e-05 -3.09692e-05 0)
(3.58534e-05 -3.89544e-05 0)
(2.40366e-05 -2.60453e-05 0)
(2.29588e-08 -1.62161e-07 0)
(-2.26205e-05 2.4187e-05 0)
(-3.17338e-05 3.41386e-05 0)
(-2.3277e-05 2.54428e-05 0)
(-3.13535e-06 4.24724e-06 0)
(1.68076e-05 -1.70513e-05 0)
(2.57768e-05 -2.719e-05 0)
(2.00337e-05 -2.21442e-05 0)
(4.3563e-06 -6.5553e-06 0)
(-1.13583e-05 9.86852e-06 0)
(-1.8091e-05 1.81974e-05 0)
(-1.31443e-05 1.47337e-05 0)
(-2.26212e-06 3.1184e-06 0)
(3.56144e-06 -5.41034e-06 0)
(1.42659e-05 -1.41143e-05 0)
(2.11815e-05 -1.0381e-05 0)
(5.84217e-07 8.93316e-06 0)
(-2.42824e-05 2.8056e-05 0)
(-3.52369e-05 3.2275e-05 0)
(-2.18884e-05 1.44598e-05 0)
(1.03508e-05 -1.80053e-05 0)
(4.1787e-05 -4.54612e-05 0)
(5.02432e-05 -4.80269e-05 0)
(2.63559e-05 -1.97003e-05 0)
(-1.82865e-05 2.54674e-05 0)
(-5.66744e-05 6.03251e-05 0)
(-6.3015e-05 6.12621e-05 0)
(-3.00407e-05 2.41368e-05 0)
(2.46471e-05 -3.12265e-05 0)
(6.81571e-05 -7.18191e-05 0)
(7.24688e-05 -7.15068e-05 0)
(3.25936e-05 -2.79585e-05 0)
(-2.91009e-05 3.4583e-05 0)
(-7.57484e-05 7.91033e-05 0)
(-7.84278e-05 7.81358e-05 0)
(-3.42794e-05 3.08844e-05 0)
(3.11625e-05 -3.56198e-05 0)
(7.91014e-05 -8.23398e-05 0)
(8.08769e-05 -8.15364e-05 0)
(3.52827e-05 -3.34163e-05 0)
(-3.07617e-05 3.39679e-05 0)
(-7.84665e-05 8.14262e-05 0)
(-8.03138e-05 8.17771e-05 0)
(-3.60592e-05 3.55408e-05 0)
(2.77768e-05 -2.99404e-05 0)
(7.41249e-05 -7.69899e-05 0)
(7.71736e-05 -7.95488e-05 0)
(3.67789e-05 -3.76462e-05 0)
(-2.25713e-05 2.36516e-05 0)
(-6.68516e-05 6.9484e-05 0)
(-7.22002e-05 7.52121e-05 0)
(-3.77037e-05 3.9602e-05 0)
(1.55066e-05 -1.58095e-05 0)
(5.7362e-05 -5.99039e-05 0)
(6.5935e-05 -6.95456e-05 0)
(3.87537e-05 -4.1571e-05 0)
(-7.33904e-06 6.88247e-06 0)
(-4.6684e-05 4.89383e-05 0)
(-5.90808e-05 6.28891e-05 0)
(-3.9921e-05 4.31958e-05 0)
(-1.29256e-06 2.17566e-06 0)
(3.56071e-05 -3.76661e-05 0)
(5.20078e-05 -5.59043e-05 0)
(4.08605e-05 -4.44495e-05 0)
(9.49361e-06 -1.08154e-05 0)
(-2.50589e-05 2.66636e-05 0)
(-4.51563e-05 4.87e-05 0)
(-4.13416e-05 4.47986e-05 0)
(-1.6615e-05 1.81004e-05 0)
(1.56116e-05 -1.68016e-05 0)
(3.86164e-05 -4.16926e-05 0)
(4.09048e-05 -4.413e-05 0)
(2.19343e-05 -2.36442e-05 0)
(-7.82079e-06 8.33951e-06 0)
(-3.24947e-05 3.47406e-05 0)
(-3.92464e-05 4.19172e-05 0)
(-2.50385e-05 2.67989e-05 0)
(1.88214e-06 -1.74503e-06 0)
(2.66455e-05 -2.79956e-05 0)
(3.60185e-05 -3.8093e-05 0)
(2.56403e-05 -2.75016e-05 0)
(2.15683e-06 -3.10369e-06 0)
(-2.09081e-05 2.11353e-05 0)
(-3.10316e-05 3.22602e-05 0)
(-2.36759e-05 2.54393e-05 0)
(-4.33321e-06 6.04217e-06 0)
(1.52822e-05 -1.41944e-05 0)
(2.43701e-05 -2.43261e-05 0)
(1.91024e-05 -2.02487e-05 0)
(4.21159e-06 -6.29564e-06 0)
(-1.06144e-05 8.06722e-06 0)
(-1.7117e-05 1.42002e-05 0)
(-1.36814e-05 9.9693e-06 0)
(-2.74326e-06 1.57539e-06 0)
(1.27966e-05 -1.21873e-05 0)
(3.09061e-05 -2.11812e-05 0)
(2.14104e-05 -1.23405e-05 0)
(-4.14951e-06 1.07771e-05 0)
(-3.16112e-05 3.4102e-05 0)
(-4.22185e-05 3.96204e-05 0)
(-2.524e-05 1.88547e-05 0)
(1.23821e-05 -1.91173e-05 0)
(4.79886e-05 -5.14668e-05 0)
(5.70561e-05 -5.56314e-05 0)
(2.99948e-05 -2.48432e-05 0)
(-1.96378e-05 2.53886e-05 0)
(-6.19462e-05 6.51356e-05 0)
(-6.9063e-05 6.82464e-05 0)
(-3.35666e-05 2.9604e-05 0)
(2.52695e-05 -2.99751e-05 0)
(7.21762e-05 -7.51799e-05 0)
(7.7438e-05 -7.75402e-05 0)
(3.58838e-05 -3.35285e-05 0)
(-2.89084e-05 3.2179e-05 0)
(-7.83295e-05 8.08614e-05 0)
(-8.21735e-05 8.29985e-05 0)
(-3.73067e-05 3.63815e-05 0)
(3.0088e-05 -3.21364e-05 0)
(8.01647e-05 -8.24696e-05 0)
(8.33705e-05 -8.51425e-05 0)
(3.80661e-05 -3.87353e-05 0)
(-2.87931e-05 2.94971e-05 0)
(-7.80505e-05 7.99766e-05 0)
(-8.16283e-05 8.41022e-05 0)
(-3.8638e-05 4.05683e-05 0)
(2.49684e-05 -2.46608e-05 0)
(7.23684e-05 -7.41329e-05 0)
(7.74441e-05 -8.06665e-05 0)
(3.91748e-05 -4.23012e-05 0)
(-1.90623e-05 1.77725e-05 0)
(-6.39912e-05 6.54462e-05 0)
(-7.16151e-05 7.52252e-05 0)
(-3.99233e-05 4.3778e-05 0)
(1.14965e-05 -9.61324e-06 0)
(5.36899e-05 -5.49979e-05 0)
(6.46938e-05 -6.86207e-05 0)
(4.07667e-05 -4.51892e-05 0)
(-3.08318e-06 6.48968e-07 0)
(-4.25294e-05 4.34773e-05 0)
(-5.73822e-05 6.11782e-05 0)
(-4.16679e-05 4.61443e-05 0)
(-5.51126e-06 8.12402e-06 0)
(3.13005e-05 -3.20032e-05 0)
(5.00244e-05 -5.35939e-05 0)
(4.22527e-05 -4.6652e-05 0)
(1.33855e-05 -1.61997e-05 0)
(-2.09079e-05 2.11033e-05 0)
(-4.30266e-05 4.59351e-05 0)
(-4.2273e-05 4.61561e-05 0)
(-1.99088e-05 2.26397e-05 0)
(1.18777e-05 -1.16438e-05 0)
(3.64361e-05 -3.86299e-05 0)
(4.12637e-05 -4.45891e-05 0)
(2.4398e-05 -2.71316e-05 0)
(-4.7069e-06 3.80826e-06 0)
(-3.03239e-05 3.14899e-05 0)
(-3.8936e-05 4.14185e-05 0)
(-2.64962e-05 2.90485e-05 0)
(-4.64036e-07 1.95083e-06 0)
(2.45358e-05 -2.46857e-05 0)
(3.49903e-05 -3.66332e-05 0)
(2.59791e-05 -2.83909e-05 0)
(3.59759e-06 -5.78879e-06 0)
(-1.89845e-05 1.78995e-05 0)
(-2.93386e-05 2.98322e-05 0)
(-2.27947e-05 2.47591e-05 0)
(-4.56229e-06 7.33056e-06 0)
(1.39847e-05 -1.14427e-05 0)
(2.2361e-05 -2.11273e-05 0)
(1.69527e-05 -1.78436e-05 0)
(2.43587e-06 -5.83074e-06 0)
(-1.17202e-05 6.18638e-06 0)
(-1.72107e-05 1.11991e-05 0)
(-7.20177e-06 7.16635e-06 0)
(2.80243e-06 -1.04096e-06 0)
(2.22485e-05 -1.89028e-05 0)
(3.16644e-05 -2.86036e-05 0)
(2.19138e-05 -1.69756e-05 0)
(-6.4103e-06 1.20203e-05 0)
(-3.71509e-05 4.00955e-05 0)
(-4.83999e-05 4.67635e-05 0)
(-2.85431e-05 2.33228e-05 0)
(1.37176e-05 -1.94836e-05 0)
(5.2963e-05 -5.62105e-05 0)
(6.27194e-05 -6.20839e-05 0)
(3.33003e-05 -2.96445e-05 0)
(-2.01483e-05 2.45227e-05 0)
(-6.55564e-05 6.83486e-05 0)
(-7.35623e-05 7.36616e-05 0)
(-3.66289e-05 3.44366e-05 0)
(2.48845e-05 -2.79879e-05 0)
(7.4216e-05 -7.6769e-05 0)
(8.05935e-05 -8.17255e-05 0)
(3.86335e-05 -3.82286e-05 0)
(-2.75963e-05 2.91339e-05 0)
(-7.87359e-05 8.07897e-05 0)
(-8.39536e-05 8.58588e-05 0)
(-3.97494e-05 4.08376e-05 0)
(2.7849e-05 -2.81342e-05 0)
(7.89824e-05 -8.08078e-05 0)
(8.38477e-05 -8.66929e-05 0)
(4.02347e-05 -4.2886e-05 0)
(-2.56957e-05 2.46684e-05 0)
(-7.54403e-05 7.68683e-05 0)
(-8.09625e-05 8.44115e-05 0)
(-4.05714e-05 4.4338e-05 0)
(2.115e-05 -1.92186e-05 0)
(6.85791e-05 -6.98307e-05 0)
(7.58395e-05 -7.98848e-05 0)
(4.08861e-05 -4.56394e-05 0)
(-1.47342e-05 1.19526e-05 0)
(-5.93438e-05 6.02381e-05 0)
(-6.93051e-05 7.35143e-05 0)
(-4.14031e-05 4.66045e-05 0)
(6.91724e-06 -3.71177e-06 0)
(4.85379e-05 -4.92357e-05 0)
(6.19062e-05 -6.61873e-05 0)
(4.19716e-05 -4.74481e-05 0)
(1.45666e-06 -5.05447e-06 0)
(-3.72318e-05 3.74905e-05 0)
(-5.43233e-05 5.81978e-05 0)
(-4.25282e-05 4.77461e-05 0)
(-9.71541e-06 1.33238e-05 0)
(2.61924e-05 -2.61376e-05 0)
(4.68648e-05 -5.02594e-05 0)
(4.26811e-05 -4.75418e-05 0)
(1.69777e-05 -2.06472e-05 0)
(-1.62762e-05 1.56389e-05 0)
(-3.98928e-05 4.23885e-05 0)
(-4.21762e-05 4.62614e-05 0)
(-2.26539e-05 2.61003e-05 0)
(7.94569e-06 -6.83838e-06 0)
(3.34118e-05 -3.50154e-05 0)
(4.05584e-05 -4.38832e-05 0)
(2.61192e-05 -2.94508e-05 0)
(-1.63096e-06 -1.61112e-07 0)
(-2.74662e-05 2.79059e-05 0)
(-3.75718e-05 3.98742e-05 0)
(-2.70832e-05 3.00939e-05 0)
(-2.57148e-06 4.91217e-06 0)
(2.19204e-05 -2.12682e-05 0)
(3.29856e-05 -3.42934e-05 0)
(2.53736e-05 -2.80895e-05 0)
(4.59222e-06 -7.57585e-06 0)
(-1.68039e-05 1.48337e-05 0)
(-2.68204e-05 2.67867e-05 0)
(-2.09151e-05 2.2998e-05 0)
(-4.10382e-06 7.592e-06 0)
(1.26704e-05 -9.25381e-06 0)
(1.94701e-05 -1.79608e-05 0)
(1.32202e-05 -1.51014e-05 0)
(-6.57266e-07 -4.4339e-06 0)
(-1.16836e-05 6.23472e-06 0)
(-7.65264e-06 8.26943e-06 0)
(-1.0301e-05 1.30338e-05 0)
(-1.98655e-06 -3.07928e-06 0)
(2.26224e-05 -2.74209e-05 0)
(3.66872e-05 -3.64506e-05 0)
(2.55308e-05 -2.06539e-05 0)
(-7.48984e-06 1.31525e-05 0)
(-4.20204e-05 4.4946e-05 0)
(-5.38681e-05 5.27992e-05 0)
(-3.15506e-05 2.76173e-05 0)
(1.44485e-05 -1.88239e-05 0)
(5.65537e-05 -5.91817e-05 0)
(6.69649e-05 -6.69644e-05 0)
(3.60458e-05 -3.40047e-05 0)
(-1.9924e-05 2.2611e-05 0)
(-6.74803e-05 6.95178e-05 0)
(-7.63854e-05 7.71504e-05 0)
(-3.90382e-05 3.85834e-05 0)
(2.36908e-05 -2.49852e-05 0)
(7.44167e-05 -7.61532e-05 0)
(8.19473e-05 -8.37442e-05 0)
(4.06887e-05 -4.20468e-05 0)
(-2.54478e-05 2.51529e-05 0)
(-7.72604e-05 7.84723e-05 0)
(-8.3911e-05 8.64309e-05 0)
(-4.14902e-05 4.42614e-05 0)
(2.48019e-05 -2.33286e-05 0)
(7.5981e-05 -7.69733e-05 0)
(8.2566e-05 -8.59364e-05 0)
(4.17052e-05 -4.58837e-05 0)
(-2.18829e-05 1.92255e-05 0)
(-7.11685e-05 7.1766e-05 0)
(-7.86661e-05 8.24853e-05 0)
(-4.18074e-05 4.68593e-05 0)
(1.6771e-05 -1.33991e-05 0)
(6.33627e-05 -6.37986e-05 0)
(7.27767e-05 -7.70104e-05 0)
(4.18915e-05 -4.7654e-05 0)
(-1.00474e-05 6.02646e-06 0)
(-5.35534e-05 5.36261e-05 0)
(-6.57302e-05 6.99061e-05 0)
(-4.21541e-05 4.80512e-05 0)
(2.21411e-06 2.00855e-06 0)
(4.25528e-05 -4.24309e-05 0)
(5.80523e-05 -6.20858e-05 0)
(4.24147e-05 -4.82904e-05 0)
(5.87592e-06 -1.02924e-05 0)
(-3.14089e-05 3.08317e-05 0)
(-5.0386e-05 5.37961e-05 0)
(-4.25876e-05 4.79181e-05 0)
(-1.35643e-05 1.77983e-05 0)
(2.08445e-05 -1.99547e-05 0)
(4.29967e-05 -4.57537e-05 0)
(4.22746e-05 -4.7015e-05 0)
(2.00118e-05 -2.41503e-05 0)
(-1.16492e-05 1.01784e-05 0)
(-3.61987e-05 3.7918e-05 0)
(-4.1227e-05 4.49991e-05 0)
(-2.46864e-05 2.84563e-05 0)
(4.21249e-06 -2.30858e-06 0)
(2.99584e-05 -3.07151e-05 0)
(3.90139e-05 -4.18983e-05 0)
(2.70337e-05 -3.05709e-05 0)
(1.10065e-06 -3.63333e-06 0)
(-2.43082e-05 2.38725e-05 0)
(-3.5428e-05 3.71879e-05 0)
(-2.68301e-05 2.99117e-05 0)
(-4.21944e-06 7.19161e-06 0)
(1.91551e-05 -1.76594e-05 0)
(3.03153e-05 -3.10191e-05 0)
(2.39418e-05 -2.66049e-05 0)
(5.02865e-06 -8.51657e-06 0)
(-1.46271e-05 1.18995e-05 0)
(-2.37612e-05 2.31538e-05 0)
(-1.82831e-05 2.02544e-05 0)
(-3.21192e-06 6.9121e-06 0)
(1.10458e-05 -7.63175e-06 0)
(1.56567e-05 -1.47279e-05 0)
(9.23673e-06 -1.12899e-05 0)
(-1.13411e-06 -1.44459e-06 0)
(-4.24848e-06 4.83475e-06 0)
(-1.83375e-05 2.05562e-05 0)
(-2.77157e-05 1.66964e-05 0)
(-1.68486e-06 -7.8588e-06 0)
(2.93187e-05 -3.31069e-05 0)
(4.33257e-05 -4.15919e-05 0)
(2.84517e-05 -2.39748e-05 0)
(-8.74187e-06 1.30131e-05 0)
(-4.58674e-05 4.7959e-05 0)
(-5.79085e-05 5.73873e-05 0)
(-3.38424e-05 3.1599e-05 0)
(1.4573e-05 -1.71101e-05 0)
(5.84716e-05 -6.02232e-05 0)
(6.94223e-05 -7.00703e-05 0)
(3.79615e-05 -3.77651e-05 0)
(-1.90276e-05 1.97228e-05 0)
(-6.75684e-05 6.86303e-05 0)
(-7.72562e-05 7.865e-05 0)
(-4.05254e-05 4.19562e-05 0)
(2.18302e-05 -2.107e-05 0)
(7.27358e-05 -7.3437e-05 0)
(8.12964e-05 -8.36663e-05 0)
(4.17781e-05 -4.49681e-05 0)
(-2.26812e-05 2.03633e-05 0)
(-7.39658e-05 7.41135e-05 0)
(-8.1915e-05 8.48967e-05 0)
(-4.22557e-05 4.66963e-05 0)
(2.12376e-05 -1.78703e-05 0)
(7.13224e-05 -7.12554e-05 0)
(7.94634e-05 -8.3147e-05 0)
(4.22055e-05 -4.78202e-05 0)
(-1.77072e-05 1.33354e-05 0)
(-6.54821e-05 6.50214e-05 0)
(-7.47368e-05 7.8666e-05 0)
(-4.20794e-05 4.82618e-05 0)
(1.22294e-05 -7.37518e-06 0)
(5.70327e-05 -5.6426e-05 0)
(6.83043e-05 -7.24298e-05 0)
(4.19368e-05 -4.8504e-05 0)
(-5.42602e-06 1.6006e-07 0)
(-4.69787e-05 4.60106e-05 0)
(-6.09802e-05 6.48074e-05 0)
(-4.19428e-05 4.83e-05 0)
(-2.18533e-06 7.40307e-06 0)
(3.61157e-05 -3.49689e-05 0)
(5.32532e-05 -5.67218e-05 0)
(4.1892e-05 -4.79162e-05 0)
(9.76521e-06 -1.49552e-05 0)
(-2.5443e-05 2.38493e-05 0)
(-4.57147e-05 4.83613e-05 0)
(-4.16814e-05 4.68769e-05 0)
(-1.66874e-05 2.14855e-05 0)
(1.56212e-05 -1.37474e-05 0)
(3.85815e-05 -4.04346e-05 0)
(4.09166e-05 -4.53044e-05 0)
(2.21736e-05 -2.67044e-05 0)
(-7.35843e-06 4.94721e-06 0)
(-3.2119e-05 3.28433e-05 0)
(-3.93654e-05 4.26181e-05 0)
(-2.57625e-05 2.97658e-05 0)
(9.66557e-07 1.79255e-06 0)
(2.62617e-05 -2.60097e-05 0)
(3.66322e-05 -3.89008e-05 0)
(2.6975e-05 -3.06131e-05 0)
(3.2472e-06 -6.52602e-06 0)
(-2.10459e-05 1.96352e-05 0)
(-3.2569e-05 3.36478e-05 0)
(-2.56512e-05 2.86887e-05 0)
(-5.22478e-06 8.77739e-06 0)
(1.6429e-05 -1.40712e-05 0)
(2.70961e-05 -2.71239e-05 0)
(2.17021e-05 -2.42021e-05 0)
(4.8507e-06 -8.69739e-06 0)
(-1.25628e-05 9.23233e-06 0)
(-2.03531e-05 1.92271e-05 0)
(-1.52233e-05 1.68553e-05 0)
(-2.22667e-06 5.59567e-06 0)
(9.3069e-06 -6.14941e-06 0)
(1.25786e-05 -1.0831e-05 0)
(8.04136e-06 -6.95221e-06 0)
(6.99192e-07 -4.23743e-07 0)
(-1.59221e-05 1.55797e-05 0)
(-3.85116e-05 2.69614e-05 0)
(-2.6253e-05 1.77559e-05 0)
(3.69489e-06 -7.96123e-06 0)
(3.47869e-05 -3.56969e-05 0)
(4.71433e-05 -4.58123e-05 0)
(2.99408e-05 -2.75819e-05 0)
(-9.48433e-06 1.16387e-05 0)
(-4.79143e-05 4.91097e-05 0)
(-6.00546e-05 6.02845e-05 0)
(-3.52741e-05 3.49711e-05 0)
(1.40004e-05 -1.45083e-05 0)
(5.84993e-05 -5.92919e-05 0)
(6.98641e-05 -7.11856e-05 0)
(3.89092e-05 -4.06438e-05 0)
(-1.74644e-05 1.60818e-05 0)
(-6.57183e-05 6.57583e-05 0)
(-7.60342e-05 7.80487e-05 0)
(-4.09802e-05 4.43013e-05 0)
(1.93481e-05 -1.65326e-05 0)
(6.91544e-05 -6.8814e-05 0)
(7.85773e-05 -8.14855e-05 0)
(4.18153e-05 -4.67692e-05 0)
(-1.93839e-05 1.51126e-05 0)
(-6.89128e-05 6.80142e-05 0)
(-7.79687e-05 8.1344e-05 0)
(-4.19726e-05 4.79491e-05 0)
(1.72885e-05 -1.21517e-05 0)
(6.51393e-05 -6.40435e-05 0)
(7.45971e-05 -7.84936e-05 0)
(4.16693e-05 -4.85343e-05 0)
(-1.33397e-05 7.41758e-06 0)
(-5.85703e-05 5.70889e-05 0)
(-6.92715e-05 7.3188e-05 0)
(-4.13244e-05 4.84197e-05 0)
(7.72436e-06 -1.57264e-06 0)
(4.98163e-05 -4.82054e-05 0)
(6.25444e-05 -6.64266e-05 0)
(4.09618e-05 -4.81025e-05 0)
(-1.08322e-06 -5.23642e-06 0)
(-3.9865e-05 3.78956e-05 0)
(-5.51895e-05 5.85351e-05 0)
(-4.0714e-05 4.7307e-05 0)
(-6.06941e-06 1.20981e-05 0)
(2.9471e-05 -2.73402e-05 0)
(4.76455e-05 -5.04309e-05 0)
(4.03582e-05 -4.63284e-05 0)
(1.29305e-05 -1.8724e-05 0)
(-1.95608e-05 1.69986e-05 0)
(-4.04411e-05 4.22352e-05 0)
(-3.97806e-05 4.46753e-05 0)
(-1.89236e-05 2.41367e-05 0)
(1.07178e-05 -7.91867e-06 0)
(3.37419e-05 -3.46407e-05 0)
(3.86015e-05 -4.25141e-05 0)
(2.3347e-05 -2.81412e-05 0)
(-3.5588e-06 2.838e-07 0)
(-2.77669e-05 2.74929e-05 0)
(-3.6616e-05 3.92746e-05 0)
(-2.58196e-05 2.99462e-05 0)
(-1.68157e-06 5.19757e-06 0)
(2.24283e-05 -2.12127e-05 0)
(3.34735e-05 -3.50973e-05 0)
(2.59383e-05 -2.95822e-05 0)
(4.74444e-06 -8.64523e-06 0)
(-1.77772e-05 1.54902e-05 0)
(-2.90898e-05 2.9511e-05 0)
(-2.36043e-05 2.65234e-05 0)
(-5.58534e-06 9.56532e-06 0)
(1.38117e-05 -1.07611e-05 0)
(2.3456e-05 -2.29057e-05 0)
(1.88081e-05 -2.10962e-05 0)
(4.16362e-06 -8.17353e-06 0)
(-1.06593e-05 6.95169e-06 0)
(-1.68422e-05 1.52833e-05 0)
(-1.19896e-05 1.3244e-05 0)
(-8.64989e-07 4.24184e-06 0)
(8.65122e-06 -4.48665e-06 0)
(1.12141e-05 -7.44761e-06 0)
(4.30727e-06 -4.17127e-06 0)
(-4.35476e-06 4.44791e-07 0)
(-2.70209e-05 2.01513e-05 0)
(-3.52099e-05 3.21626e-05 0)
(-2.37178e-05 2.22522e-05 0)
(5.52367e-06 -6.77347e-06 0)
(3.66113e-05 -3.73956e-05 0)
(4.87396e-05 -4.88716e-05 0)
(3.08292e-05 -3.06533e-05 0)
(-9.26667e-06 9.45161e-06 0)
(-4.79854e-05 4.83359e-05 0)
(-6.02209e-05 6.11638e-05 0)
(-3.57921e-05 3.73823e-05 0)
(1.27434e-05 -1.12259e-05 0)
(5.66045e-05 -5.63836e-05 0)
(6.82315e-05 -7.01242e-05 0)
(3.88238e-05 -4.23729e-05 0)
(-1.52979e-05 1.19136e-05 0)
(-6.19875e-05 6.0985e-05 0)
(-7.27523e-05 7.52506e-05 0)
(-4.03788e-05 4.53847e-05 0)
(1.63434e-05 -1.16396e-05 0)
(6.38196e-05 -6.24567e-05 0)
(7.39099e-05 -7.71888e-05 0)
(4.08084e-05 -4.72451e-05 0)
(-1.5692e-05 9.70606e-06 0)
(-6.23255e-05 6.04267e-05 0)
(-7.22585e-05 7.58335e-05 0)
(-4.06679e-05 4.78429e-05 0)
(1.3124e-05 -6.50618e-06 0)
(5.77147e-05 -5.56533e-05 0)
(6.82004e-05 -7.20987e-05 0)
(4.01349e-05 -4.78785e-05 0)
(-8.97249e-06 1.81863e-06 0)
(-5.07518e-05 4.83271e-05 0)
(-6.25303e-05 6.62221e-05 0)
(-3.9588e-05 4.72162e-05 0)
(3.45593e-06 3.66532e-06 0)
(4.20441e-05 -3.95172e-05 0)
(5.57657e-05 -5.92064e-05 0)
(3.90181e-05 -4.63667e-05 0)
(2.78886e-06 -9.84003e-06 0)
(-3.25325e-05 2.96619e-05 0)
(-4.86207e-05 5.1317e-05 0)
(-3.85272e-05 4.50263e-05 0)
(-9.2701e-06 1.58076e-05 0)
(2.2909e-05 -1.99065e-05 0)
(4.1475e-05 -4.34517e-05 0)
(3.78841e-05 -4.35204e-05 0)
(1.52425e-05 -2.13636e-05 0)
(-1.40072e-05 1.0606e-05 0)
(-3.47873e-05 3.56584e-05 0)