/*--------------------------------*- C++ -*----------------------------------*\
| =========                 |                                                 |
| \\      /  F ield         | OpenFOAM: The Open Source CFD Toolbox           |
|  \\    /   O peration     | Version:  2412                                  |
|   \\  /    A nd           | Website:  www.openfoam.com                      |
|    \\/     M anipulation  |                                                 |
\*---------------------------------------------------------------------------*/
FoamFile
{
    version     2.0;
    format      ascii;
    arch        "LSB;label=32;scalar=64";
    class       volVectorField;
    location    "4.85";
    object      U;
}
// * * * * * * * * * * * * * * * * * * * * * * * * * * * * * * * * * * * * * //

dimensions      [0 1 -1 0 0 0 0];

internalField   nonuniform List<vector> 
6400
(
(0.000786455 -0.00118973 0)
(0.00377074 -0.00160808 0)
(0.00690222 -0.0014082 0)
(0.00932833 -0.00127052 0)
(0.0117562 -0.0011656 0)
(0.0139454 -0.00104769 0)
(0.0159118 -0.000912163 0)
(0.0176095 -0.000753817 0)
(0.0190085 -0.000584846 0)
(0.0200818 -0.000412202 0)
(0.0208201 -0.000248908 0)
(0.0212477 -9.88517e-05 0)
(0.021366 4.39624e-05 0)
(0.021161 0.000206938 0)
(0.0206664 0.000340165 0)
(0.0199175 0.000464355 0)
(0.018976 0.000555305 0)
(0.0178972 0.000615515 0)
(0.0167273 0.000655546 0)
(0.0155272 0.000668214 0)
(0.0143307 0.000654141 0)
(0.0131941 0.000636801 0)
(0.0121134 0.000612861 0)
(0.0110994 0.000602161 0)
(0.0101808 0.00060511 0)
(0.00932132 0.000609401 0)
(0.00852574 0.000588935 0)
(0.00781099 0.000535865 0)
(0.00717391 0.000472061 0)
(0.00657987 0.000413232 0)
(0.00602687 0.000365569 0)
(0.00547872 0.000353591 0)
(0.00486954 0.000373665 0)
(0.00420218 0.000358832 0)
(0.00352579 0.00027751 0)
(0.00289251 0.000141602 0)
(0.0023386 -3.38137e-05 0)
(0.00187674 -0.000199662 0)
(0.00149356 -0.00033734 0)
(0.00118294 -0.000413164 0)
(0.000890422 -0.000422894 0)
(0.000558551 -0.000353059 0)
(0.000137117 -0.000213552 0)
(-0.000419457 -2.57501e-05 0)
(-0.00111579 0.000177421 0)
(-0.0019597 0.000367405 0)
(-0.00293065 0.000521183 0)
(-0.0039739 0.000605844 0)
(-0.00503098 0.000624453 0)
(-0.00605435 0.000624214 0)
(-0.00706701 0.000653615 0)
(-0.00811944 0.000713288 0)
(-0.00923598 0.000772313 0)
(-0.0103988 0.000831472 0)
(-0.011609 0.000831427 0)
(-0.012861 0.000802614 0)
(-0.014124 0.00077896 0)
(-0.0154244 0.000768385 0)
(-0.0167564 0.00076047 0)
(-0.018109 0.000753157 0)
(-0.0194667 0.000734322 0)
(-0.0207824 0.000693991 0)
(-0.0220072 0.000633774 0)
(-0.0230848 0.000541233 0)
(-0.0239854 0.000419744 0)
(-0.0246488 0.000275757 0)
(-0.0250077 0.00011344 0)
(-0.0250253 -5.73427e-05 0)
(-0.0247098 -0.000223106 0)
(-0.0240416 -0.000385957 0)
(-0.0230418 -0.000552609 0)
(-0.0216971 -0.000734114 0)
(-0.0199991 -0.000910893 0)
(-0.017997 -0.00107095 0)
(-0.0157156 -0.00120599 0)
(-0.0132217 -0.00132339 0)
(-0.0104755 -0.00142151 0)
(-0.00773289 -0.00154544 0)
(-0.0043361 -0.00173945 0)
(-0.00103033 -0.00138742 0)
(0.000662153 -0.00337996 0)
(0.00356533 -0.00463973 0)
(0.00655075 -0.00406014 0)
(0.00887101 -0.00370979 0)
(0.0112735 -0.00344784 0)
(0.0134897 -0.00315527 0)
(0.0155308 -0.00279937 0)
(0.0173428 -0.00238152 0)
(0.0188946 -0.00191414 0)
(0.0201415 -0.0014169 0)
(0.0210327 -0.000907477 0)
(0.0215585 -0.000396706 0)
(0.0217201 7.88276e-05 0)
(0.0215214 0.000540559 0)
(0.0210229 0.000933772 0)
(0.0202698 0.00128326 0)
(0.0193225 0.00153386 0)
(0.0182502 0.00170435 0)
(0.0171047 0.00179471 0)
(0.0159486 0.00179871 0)
(0.0148411 0.00172466 0)
(0.0138474 0.00162935 0)
(0.0129658 0.00146466 0)
(0.0122266 0.00131948 0)
(0.0116629 0.00115215 0)
(0.011259 0.00101572 0)
(0.0110037 0.000886912 0)
(0.0108332 0.000781776 0)
(0.0107079 0.00070718 0)
(0.0105562 0.000676953 0)
(0.0103263 0.000690684 0)
(0.0100134 0.000761002 0)
(0.00961225 0.00087418 0)
(0.00909468 0.000978947 0)
(0.00842381 0.00105101 0)
(0.00754131 0.0010803 0)
(0.00643731 0.00108653 0)
(0.00512619 0.00108159 0)
(0.00361656 0.00106872 0)
(0.0019859 0.00106579 0)
(0.000274952 0.0010916 0)
(-0.00143985 0.00115155 0)
(-0.00309337 0.00122811 0)
(-0.00463718 0.00131761 0)
(-0.00601259 0.00139793 0)
(-0.00720452 0.00145921 0)
(-0.00821847 0.00149213 0)
(-0.00907341 0.00148117 0)
(-0.00983361 0.00143168 0)
(-0.0105463 0.00137798 0)
(-0.0112089 0.00136778 0)
(-0.0118153 0.00139843 0)
(-0.0123972 0.00145712 0)
(-0.0129867 0.00154435 0)
(-0.0136357 0.00162169 0)
(-0.0144078 0.00170244 0)
(-0.0153019 0.00179417 0)
(-0.0163219 0.00188205 0)
(-0.0174445 0.00195217 0)
(-0.0186428 0.00199287 0)
(-0.0198928 0.00198078 0)
(-0.0211287 0.00190235 0)
(-0.0223042 0.00173602 0)
(-0.023364 0.00148702 0)
(-0.0242544 0.00115853 0)
(-0.0249125 0.000764542 0)
(-0.0252787 0.000302884 0)
(-0.025309 -0.00019902 0)
(-0.0249707 -0.000728569 0)
(-0.0242248 -0.00127094 0)
(-0.0230982 -0.00181309 0)
(-0.021613 -0.00232981 0)
(-0.0197931 -0.00282144 0)
(-0.0176918 -0.00325025 0)
(-0.0153412 -0.0036209 0)
(-0.0128227 -0.00392652 0)
(-0.0101012 -0.00418646 0)
(-0.00744291 -0.00451757 0)
(-0.0041383 -0.0050818 0)
(-0.000898719 -0.00398548 0)
(0.000718043 -0.00555893 0)
(0.00381795 -0.0076864 0)
(0.00700916 -0.00673483 0)
(0.00944545 -0.0061867 0)
(0.0119476 -0.0057895 0)
(0.0142466 -0.00532972 0)
(0.0163609 -0.00476899 0)
(0.0182178 -0.00409485 0)
(0.0197761 -0.00332512 0)
(0.0209881 -0.00249317 0)
(0.0218274 -0.00160507 0)
(0.0222974 -0.000697836 0)
(0.0223867 0.000144495 0)
(0.0221082 0.000939807 0)
(0.0215236 0.00161839 0)
(0.0206567 0.00218763 0)
(0.0195878 0.00261056 0)
(0.0183883 0.00288403 0)
(0.0171081 0.00300473 0)
(0.0158188 0.00297863 0)
(0.0145992 0.0028399 0)
(0.0134714 0.00260345 0)
(0.0124668 0.00230314 0)
(0.0116048 0.00196255 0)
(0.0108998 0.0016105 0)
(0.0103643 0.00128572 0)
(0.00996023 0.00102979 0)
(0.00966585 0.000863331 0)
(0.00944263 0.00078285 0)
(0.00923717 0.000784934 0)
(0.00899928 0.000879014 0)
(0.00871006 0.0010398 0)
(0.00834387 0.00124742 0)
(0.00788226 0.00148904 0)
(0.00728998 0.00176944 0)
(0.00653463 0.00205064 0)
(0.00561279 0.00232373 0)
(0.00451935 0.0025611 0)
(0.00327004 0.00274785 0)
(0.00192374 0.00287062 0)
(0.000510874 0.00294409 0)
(-0.000920376 0.00296316 0)
(-0.00230545 0.00291517 0)
(-0.00360484 0.0028166 0)
(-0.00478713 0.00267434 0)
(-0.00584223 0.00250933 0)
(-0.00677002 0.00234352 0)
(-0.00758865 0.00219965 0)
(-0.00835036 0.00207755 0)
(-0.0090703 0.00198922 0)
(-0.0097654 0.00193321 0)
(-0.0104598 0.00193371 0)
(-0.0111683 0.00199959 0)
(-0.0119142 0.00211699 0)
(-0.0127373 0.00229779 0)
(-0.013673 0.00251715 0)
(-0.014721 0.00275315 0)
(-0.015887 0.00297276 0)
(-0.0171448 0.0031597 0)
(-0.0184779 0.0032639 0)
(-0.0198572 0.00328201 0)
(-0.0212339 0.0031771 0)
(-0.0225575 0.0029203 0)
(-0.0237522 0.00252373 0)
(-0.0247637 0.00198788 0)
(-0.0255303 0.00133758 0)
(-0.0259838 0.000558286 0)
(-0.026078 -0.00031133 0)
(-0.0257958 -0.00124128 0)
(-0.0250922 -0.00218122 0)
(-0.0239853 -0.00312829 0)
(-0.0225157 -0.0040117 0)
(-0.0206839 -0.00481291 0)
(-0.0185258 -0.00550626 0)
(-0.0160987 -0.00610469 0)
(-0.0134935 -0.00659142 0)
(-0.0106596 -0.00698801 0)
(-0.0078627 -0.00754163 0)
(-0.00436616 -0.00845322 0)
(-0.000952248 -0.00656073 0)
(0.000687891 -0.00791385 0)
(0.00395991 -0.0109779 0)
(0.00734984 -0.0096083 0)
(0.00989331 -0.00879553 0)
(0.0125247 -0.00825745 0)
(0.0149317 -0.00762099 0)
(0.0171668 -0.00681529 0)
(0.0191481 -0.00583739 0)
(0.0207924 -0.00472308 0)
(0.0220725 -0.00350551 0)
(0.0229525 -0.00222154 0)
(0.0233898 -0.000929606 0)
(0.0234258 0.000311495 0)
(0.023054 0.00145048 0)
(0.0223045 0.00245416 0)
(0.0212735 0.00328265 0)
(0.0200237 0.00388739 0)
(0.018616 0.0042665 0)
(0.0171381 0.00442321 0)
(0.0156825 0.00436942 0)
(0.0143033 0.00414802 0)
(0.0130779 0.00376597 0)
(0.0120032 0.00332733 0)
(0.0110978 0.0028071 0)
(0.0103947 0.00231813 0)
(0.00987005 0.00184496 0)
(0.00950196 0.00148521 0)
(0.00923863 0.00121053 0)
(0.00904624 0.00106054 0)
(0.00888097 0.00105196 0)
(0.00869239 0.00116676 0)
(0.00843611 0.00138632 0)
(0.00806505 0.00168119 0)
(0.00755604 0.00204425 0)
(0.00690436 0.002445 0)
(0.00610298 0.00284217 0)
(0.00518329 0.00321263 0)
(0.00415705 0.0035295 0)
(0.00304339 0.00378056 0)
(0.0018716 0.00395264 0)
(0.000664699 0.0040545 0)
(-0.000563066 0.00408488 0)
(-0.0017921 0.00402937 0)
(-0.00299884 0.00390606 0)
(-0.00415367 0.00372005 0)
(-0.00523826 0.00349285 0)
(-0.00623637 0.00325985 0)
(-0.00714141 0.00304692 0)
(-0.00795744 0.00287472 0)
(-0.00869897 0.00276262 0)
(-0.00939412 0.00270456 0)
(-0.0100714 0.00272638 0)
(-0.0107778 0.00284346 0)
(-0.0115353 0.00304413 0)
(-0.0123737 0.00329703 0)
(-0.0133223 0.00360996 0)
(-0.0143898 0.00394496 0)
(-0.0155986 0.00428619 0)
(-0.0169455 0.00456778 0)
(-0.0183897 0.00474007 0)
(-0.0198972 0.00478423 0)
(-0.021441 0.004639 0)
(-0.0229486 0.00429504 0)
(-0.0243355 0.00375588 0)
(-0.0255182 0.00299998 0)
(-0.0264401 0.00203617 0)
(-0.0270355 0.000902869 0)
(-0.0272217 -0.000350851 0)
(-0.026964 -0.00169497 0)
(-0.0262595 -0.00305584 0)
(-0.025133 -0.00441976 0)
(-0.0235839 -0.00568898 0)
(-0.0216386 -0.00685136 0)
(-0.0193623 -0.00785345 0)
(-0.0168174 -0.00870624 0)
(-0.0140808 -0.00937808 0)
(-0.0111219 -0.00994576 0)
(-0.00822396 -0.0107555 0)
(-0.00452632 -0.0120485 0)
(-0.000940699 -0.00931314 0)
(0.000637336 -0.0103215 0)
(0.00413547 -0.0144735 0)
(0.00778495 -0.0126301 0)
(0.0104432 -0.0115226 0)
(0.0132114 -0.0108401 0)
(0.0158043 -0.0100507 0)
(0.0182376 -0.00899956 0)
(0.0203933 -0.00772589 0)
(0.0221863 -0.00624014 0)
(0.0235656 -0.00459373 0)
(0.0244858 -0.002866 0)
(0.0249157 -0.00113636 0)
(0.0248512 0.000542937 0)
(0.0243418 0.00208142 0)
(0.0234261 0.00343259 0)
(0.0221497 0.004569 0)
(0.0206334 0.00537279 0)
(0.0189675 0.00585861 0)
(0.0172402 0.0060259 0)
(0.0155585 0.00590859 0)
(0.0139969 0.00554793 0)
(0.0126423 0.00500843 0)
(0.0114835 0.0043187 0)
(0.0105522 0.00358931 0)
(0.00987459 0.00287226 0)
(0.00944553 0.00221519 0)
(0.00920582 0.00167093 0)
(0.00906849 0.00130433 0)
(0.0090487 0.0011147 0)
(0.00904983 0.00110922 0)
(0.00899506 0.00129475 0)
(0.00884389 0.00163545 0)
(0.00854618 0.0020936 0)
(0.0080687 0.00262602 0)
(0.00739775 0.00319704 0)
(0.00655371 0.00375066 0)
(0.00556775 0.00424928 0)
(0.00445996 0.00467053 0)
(0.00326787 0.00499471 0)
(0.00201407 0.00522276 0)
(0.000740186 0.00534864 0)
(-0.000566722 0.00539306 0)
(-0.00187351 0.00531856 0)
(-0.00314989 0.00515491 0)
(-0.00437326 0.0048947 0)
(-0.00551081 0.00457486 0)
(-0.00653598 0.00422961 0)
(-0.00743577 0.00389822 0)
(-0.00821816 0.00362091 0)
(-0.00890413 0.0034137 0)
(-0.00951848 0.0033093 0)
(-0.0100866 0.00332533 0)
(-0.010667 0.00346545 0)
(-0.0113253 0.00373501 0)
(-0.0120778 0.00409908 0)
(-0.0129732 0.00457056 0)
(-0.0140356 0.00507725 0)
(-0.0152858 0.00558071 0)
(-0.016729 0.0060136 0)
(-0.0183024 0.00631042 0)
(-0.0199923 0.0064211 0)
(-0.0217549 0.00627992 0)
(-0.0234863 0.00586715 0)
(-0.0251141 0.00516649 0)
(-0.026563 0.00417719 0)
(-0.027712 0.00287739 0)
(-0.0284617 0.00136787 0)
(-0.0287688 -0.000319171 0)
(-0.0285832 -0.00211744 0)
(-0.0278844 -0.00396854 0)
(-0.0266833 -0.00579788 0)
(-0.0250184 -0.00749342 0)
(-0.0229254 -0.00903345 0)
(-0.0204661 -0.0103521 0)
(-0.017737 -0.0114601 0)
(-0.0148271 -0.0122908 0)
(-0.0117079 -0.0130255 0)
(-0.00867504 -0.0141005 0)
(-0.00474305 -0.0158593 0)
(-0.000925267 -0.0121297 0)
(0.00059371 -0.0128111 0)
(0.0043833 -0.0182242 0)
(0.00832089 -0.0158459 0)
(0.0111192 -0.0144166 0)
(0.0140695 -0.0136127 0)
(0.0168993 -0.0127034 0)
(0.0195898 -0.0114338 0)
(0.0219982 -0.00981485 0)
(0.0240203 -0.00790799 0)
(0.0255413 -0.00577943 0)
(0.0265127 -0.00353199 0)
(0.0269105 -0.00125956 0)
(0.0267508 0.000933832 0)
(0.0260537 0.00293744 0)
(0.0248841 0.00470321 0)
(0.023308 0.00613049 0)
(0.0214264 0.00714197 0)
(0.0193892 0.00773208 0)
(0.0173189 0.00791489 0)
(0.0153386 0.00769279 0)
(0.0135421 0.00715981 0)
(0.011997 0.00637017 0)
(0.0107415 0.00539675 0)
(0.00981389 0.00438466 0)
(0.00918927 0.00339055 0)
(0.00884422 0.00250331 0)
(0.00876923 0.00177465 0)
(0.00886239 0.00127111 0)
(0.00904439 0.00103107 0)
(0.00927266 0.00102821 0)
(0.0094373 0.00128619 0)
(0.00945749 0.00177063 0)
(0.00927828 0.00241724 0)
(0.00886461 0.00317191 0)
(0.00821187 0.00395525 0)
(0.00731744 0.00469081 0)
(0.00623591 0.00535247 0)
(0.00500558 0.00590057 0)
(0.00366893 0.00630264 0)
(0.0022522 0.00658613 0)
(0.000815006 0.00673283 0)
(-0.000653106 0.00679325 0)
(-0.00211539 0.00668742 0)
(-0.00352205 0.00647166 0)
(-0.004835 0.00611645 0)
(-0.00602052 0.00567261 0)
(-0.00705784 0.00518591 0)
(-0.00792995 0.00470346 0)
(-0.00864531 0.00429023 0)
(-0.00921471 0.00398341 0)
(-0.00967229 0.00382435 0)
(-0.0100823 0.00384486 0)
(-0.0105143 0.0040234 0)
(-0.0110362 0.00438012 0)
(-0.0116724 0.00489111 0)
(-0.0124877 0.0055543 0)
(-0.013535 0.00625918 0)
(-0.0148208 0.00696784 0)
(-0.0163661 0.00760137 0)
(-0.0181146 0.00807817 0)
(-0.020043 0.00830096 0)
(-0.0221016 0.00821801 0)
(-0.0241689 0.00776439 0)
(-0.026133 0.00689389 0)
(-0.0279116 0.00561765 0)
(-0.0293507 0.00398553 0)
(-0.0303381 0.00201643 0)
(-0.0308188 -0.000178362 0)
(-0.0307157 -0.00251869 0)
(-0.0300242 -0.00492023 0)
(-0.0287363 -0.00726064 0)
(-0.0268951 -0.00946554 0)
(-0.0245737 -0.0114223 0)
(-0.0218775 -0.0130786 0)
(-0.0188827 -0.0144091 0)
(-0.0157319 -0.0154103 0)
(-0.01244 -0.0162731 0)
(-0.00926492 -0.017655 0)
(-0.00503143 -0.0199432 0)
(-0.00089857 -0.0150817 0)
(0.000569347 -0.0154518 0)
(0.00474437 -0.022288 0)
(0.008961 -0.0193186 0)
(0.0118786 -0.0174779 0)
(0.0150222 -0.0166267 0)
(0.0181659 -0.0156443 0)
(0.0212603 -0.0141617 0)
(0.0240339 -0.0121767 0)
(0.0263454 -0.00977911 0)
(0.0280762 -0.0070822 0)
(0.0291443 -0.00420867 0)
(0.0295187 -0.00130964 0)
(0.0291926 0.00150217 0)
(0.0282576 0.00406891 0)
(0.0267417 0.00630408 0)
(0.0247135 0.00808031 0)
(0.0223837 0.0093475 0)
(0.0199028 0.01003 0)
(0.0173691 0.0101731 0)
(0.0149785 0.0098025 0)
(0.0128629 0.00901307 0)
(0.0110785 0.00787807 0)
(0.00970517 0.00654194 0)
(0.0087586 0.00515012 0)
(0.00820923 0.00378507 0)
(0.00805207 0.00259493 0)
(0.00820326 0.00163734 0)
(0.00855974 0.000966933 0)
(0.0090594 0.000648235 0)
(0.00958777 0.000687301 0)
(0.0100357 0.0010618 0)
(0.0102788 0.00174827 0)
(0.0102553 0.00264379 0)
(0.00992158 0.00367688 0)
(0.00924639 0.00472741 0)
(0.00828675 0.00571651 0)
(0.0070893 0.00658796 0)
(0.00568633 0.00728962 0)
(0.004161 0.00778864 0)
(0.0025484 0.0081417 0)
(0.000913801 0.00830981 0)
(-0.000753274 0.00837745 0)
(-0.00240432 0.00822211 0)
(-0.00397716 0.00790851 0)
(-0.0054245 0.00741683 0)
(-0.00668904 0.00680365 0)
(-0.00775772 0.00612619 0)
(-0.00859673 0.00544806 0)
(-0.00921251 0.00485349 0)
(-0.00963621 0.00440543 0)
(-0.00990134 0.00414604 0)
(-0.0101053 0.00412227 0)
(-0.010327 0.00435438 0)
(-0.0106393 0.00484709 0)
(-0.0110847 0.00553766 0)
(-0.0117936 0.00642482 0)
(-0.0128153 0.00743133 0)
(-0.0141331 0.00844704 0)
(-0.015799 0.00935451 0)
(-0.0177733 0.0100985 0)
(-0.0200147 0.010496 0)
(-0.0224479 0.0105185 0)
(-0.0249584 0.0100393 0)
(-0.0274019 0.00901965 0)
(-0.0296088 0.00745392 0)
(-0.0314488 0.00539185 0)
(-0.0327633 0.00290518 0)
(-0.0334424 0.000110022 0)
(-0.0334559 -0.00287431 0)
(-0.0327441 -0.00592051 0)
(-0.0313381 -0.00889047 0)
(-0.02928 -0.0116542 0)
(-0.0266427 -0.0140848 0)
(-0.0235765 -0.0161025 0)
(-0.0202328 -0.0176406 0)
(-0.0167929 -0.01875 0)
(-0.0132898 -0.019704 0)
(-0.00998575 -0.0214799 0)
(-0.00544947 -0.0243358 0)
(-0.000909575 -0.0182098 0)
(0.000654094 -0.0183481 0)
(0.00535447 -0.0266882 0)
(0.00975872 -0.0229927 0)
(0.0126951 -0.020682 0)
(0.0160022 -0.0199309 0)
(0.0195973 -0.0190155 0)
(0.0232307 -0.0173311 0)
(0.0265289 -0.014945 0)
(0.0292751 -0.0119544 0)
(0.0312932 -0.00855559 0)
(0.032475 -0.00491728 0)
(0.0327979 -0.00125593 0)
(0.0323081 0.0022821 0)
(0.0310463 0.00551376 0)
(0.029071 0.00831608 0)
(0.0265236 0.0105814 0)
(0.0235672 0.0121506 0)
(0.0204279 0.012932 0)
(0.0173079 0.0129609 0)
(0.0144077 0.0123323 0)
(0.0118697 0.0111787 0)
(0.00979365 0.00959014 0)
(0.00828389 0.0077715 0)
(0.00733324 0.00585191 0)
(0.00691434 0.00404139 0)
(0.00698772 0.0024356 0)
(0.00744626 0.00116371 0)
(0.00819115 0.000280757 0)
(0.00910256 -0.000108879 0)
(0.0100447 -1.46428e-05 0)
(0.0108702 0.000537013 0)
(0.0114172 0.00149568 0)
(0.01158 0.00275538 0)
(0.0113196 0.0041541 0)
(0.0106318 0.00556627 0)
(0.00956133 0.00688283 0)
(0.00816649 0.00800347 0)
(0.00653587 0.008888 0)
(0.00477433 0.0094977 0)
(0.00291126 0.0099253 0)
(0.00102495 0.0101083 0)
(-0.000882259 0.0101848 0)
(-0.00277963 0.00997633 0)
(-0.00457746 0.00952982 0)
(-0.00620863 0.00885635 0)
(-0.00758803 0.00800689 0)
(-0.00869966 0.00707657 0)
(-0.00950841 0.00613689 0)
(-0.0100114 0.00529163 0)
(-0.0102473 0.00463296 0)
(-0.0102661 0.00423834 0)
(-0.0101626 0.00416114 0)
(-0.0100595 0.00444138 0)
(-0.0101071 0.00508702 0)
(-0.0103428 0.00600482 0)
(-0.0108422 0.00720949 0)
(-0.0117563 0.00857662 0)
(-0.0131301 0.010009 0)
(-0.0149418 0.0113197 0)
(-0.0171972 0.0124217 0)
(-0.0198413 0.0131037 0)
(-0.0227646 0.0132866 0)
(-0.0258555 0.0128192 0)
(-0.0288941 0.0116616 0)
(-0.0317161 0.00977058 0)
(-0.0340799 0.00721956 0)
(-0.0357975 0.00409453 0)
(-0.0367691 0.000586402 0)
(-0.0369071 -0.00317186 0)
(-0.036192 -0.00699714 0)
(-0.0346172 -0.0107274 0)
(-0.0322303 -0.0141604 0)
(-0.0291603 -0.0171451 0)
(-0.0255898 -0.0195425 0)
(-0.0217396 -0.0212598 0)
(-0.0179063 -0.022358 0)
(-0.0142401 -0.0232662 0)
(-0.0108766 -0.025522 0)
(-0.00607995 -0.0291025 0)
(-0.000993415 -0.0216185 0)
(0.00105877 -0.0217047 0)
(0.00623456 -0.0313359 0)
(0.010696 -0.0266966 0)
(0.0134439 -0.0238295 0)
(0.0167988 -0.0235568 0)
(0.021069 -0.0229139 0)
(0.0255466 -0.0211289 0)
(0.0296068 -0.0182558 0)
(0.0329544 -0.014521 0)
(0.0353453 -0.0102459 0)
(0.0366753 -0.00567673 0)
(0.0369405 -0.00107888 0)
(0.0361935 0.00333989 0)
(0.0345345 0.00742431 0)
(0.0320431 0.0109297 0)
(0.0287882 0.013712 0)
(0.024989 0.0156043 0)
(0.0209949 0.0164746 0)
(0.0170667 0.0164082 0)
(0.0135102 0.0154213 0)
(0.010454 0.0137475 0)
(0.00802397 0.0115467 0)
(0.00632976 0.0090683 0)
(0.00540099 0.00650525 0)
(0.00517246 0.0040913 0)
(0.00557307 0.00194146 0)
(0.00646449 0.000272817 0)
(0.00772729 -0.000868781 0)
(0.00923544 -0.00136133 0)
(0.0107259 -0.00117417 0)
(0.0120439 -0.00035404 0)
(0.0129956 0.000970129 0)
(0.0134082 0.00269789 0)
(0.0132261 0.00459889 0)
(0.0124758 0.00651211 0)
(0.011216 0.00823051 0)
(0.00955665 0.00967144 0)
(0.00761378 0.0107648 0)
(0.00553349 0.0115039 0)
(0.00334472 0.01201 0)
(0.00114561 0.0121934 0)
(-0.0010697 0.0122752 0)
(-0.00329522 0.0119965 0)
(-0.00538979 0.011391 0)
(-0.00727857 0.0104736 0)
(-0.00883051 0.00930242 0)
(-0.0100155 0.00800921 0)
(-0.0107906 0.00671461 0)
(-0.0111408 0.00554819 0)
(-0.0111175 0.00461846 0)
(-0.0107926 0.00404871 0)
(-0.0103031 0.00388407 0)
(-0.00977959 0.00419273 0)
(-0.00942602 0.00498244 0)
(-0.00928817 0.00622756 0)
(-0.00953032 0.00783745 0)
(-0.0103142 0.00968936 0)
(-0.0116802 0.0116493 0)
(-0.0136754 0.0135214 0)
(-0.0162791 0.015111 0)
(-0.0194317 0.0162364 0)
(-0.0229925 0.0166781 0)
(-0.0268199 0.0163167 0)
(-0.0306746 0.0150217 0)
(-0.0342744 0.0127542 0)
(-0.0373407 0.0095801 0)
(-0.0396009 0.00571037 0)
(-0.0409035 0.00130151 0)
(-0.0412272 -0.00339385 0)
(-0.0404878 -0.00817321 0)
(-0.0386856 -0.0128198 0)
(-0.0358766 -0.0170804 0)
(-0.0321926 -0.0207657 0)
(-0.02788 -0.0235516 0)
(-0.0233129 -0.0253505 0)
(-0.0189201 -0.0262847 0)
(-0.0151872 -0.0268884 0)
(-0.0120333 -0.0297108 0)
(-0.00712928 -0.0342589 0)
(-0.00135761 -0.0255523 0)
(0.00193237 -0.0261834 0)
(0.00664142 -0.0361156 0)
(0.0108349 -0.0306985 0)
(0.0136662 -0.026792 0)
(0.0170879 -0.0275859 0)
(0.0224738 -0.0278062 0)
(0.0281868 -0.0260353 0)
(0.0333835 -0.0225518 0)
(0.0375579 -0.017781 0)
(0.040429 -0.0122746 0)
(0.0419325 -0.0064894 0)
(0.042108 -0.000735954 0)
(0.0411388 0.00477109 0)
(0.039009 0.00985585 0)
(0.0357367 0.0142688 0)
(0.0315774 0.0177613 0)
(0.0267314 0.0200765 0)
(0.0216567 0.0210106 0)
(0.0166935 0.0206558 0)
(0.0122009 0.0192144 0)
(0.00846427 0.0168285 0)
(0.00560228 0.0137751 0)
(0.00373622 0.0104296 0)
(0.00285386 0.00703488 0)
(0.00286015 0.00382457 0)
(0.00370831 0.00100171 0)
(0.00520845 -0.00122301 0)
(0.00716669 -0.00270182 0)
(0.00943901 -0.00332398 0)
(0.0117123 -0.00300327 0)
(0.0136907 -0.00182492 0)
(0.0151562 6.43891e-05 0)
(0.0158998 0.00243898 0)
(0.0158255 0.0050435 0)
(0.0149604 0.00758132 0)
(0.0134101 0.00984881 0)
(0.0113733 0.0116862 0)
(0.00899065 0.013015 0)
(0.00647475 0.0138879 0)
(0.00386474 0.0144668 0)
(0.00134807 0.0146382 0)
(-0.00131149 0.0147516 0)
(-0.00402168 0.014383 0)
(-0.00653543 0.0135868 0)
(-0.00876693 0.0123437 0)
(-0.0105583 0.0107557 0)
(-0.0118314 0.00898094 0)
(-0.0125422 0.00717315 0)
(-0.0126959 0.00550679 0)
(-0.0123387 0.00417382 0)
(-0.0115806 0.00332731 0)
(-0.0105695 0.00303368 0)
(-0.00946995 0.00338734 0)
(-0.00853176 0.00439099 0)
(-0.0079046 0.00604509 0)
(-0.00777434 0.00819186 0)
(-0.00833251 0.0107223 0)
(-0.00969206 0.0133938 0)
(-0.0118838 0.0159867 0)
(-0.0148864 0.0182745 0)
(-0.0186672 0.0199841 0)
(-0.0230535 0.0208754 0)
(-0.0278621 0.0206705 0)
(-0.0327987 0.0192936 0)
(-0.0374871 0.0165875 0)
(-0.0414273 0.012699 0)
(-0.0443498 0.00786947 0)
(-0.046119 0.00234704 0)
(-0.0466117 -0.00352337 0)
(-0.0458336 -0.00949601 0)
(-0.0437357 -0.0153315 0)
(-0.0403757 -0.020725 0)
(-0.0358187 -0.025259 0)
(-0.0304097 -0.0285179 0)
(-0.0248393 -0.0301712 0)
(-0.0196284 -0.0304316 0)
(-0.0159721 -0.0299682 0)
(-0.0130685 -0.0338958 0)
(-0.00805878 -0.0396451 0)
(-0.00216242 -0.0304253 0)
(0.00451987 -0.0310067 0)
(0.00788597 -0.0400337 0)
(0.00823559 -0.0338192 0)
(0.0116142 -0.0298894 0)
(0.0155177 -0.0327803 0)
(0.0234048 -0.0341109 0)
(0.0313903 -0.0319688 0)
(0.0382236 -0.0275792 0)
(0.0435575 -0.0214959 0)
(0.0469904 -0.0145269 0)
(0.0486293 -0.00731078 0)
(0.0486925 -0.000196663 0)
(0.0473433 0.0065977 0)
(0.044606 0.0129555 0)
(0.0405121 0.0185602 0)
(0.0351811 0.0229927 0)
(0.0288912 0.0258066 0)
(0.0222804 0.0268347 0)
(0.0160005 0.0260865 0)
(0.0104203 0.0239221 0)
(0.00575691 0.0205293 0)
(0.00237399 0.0163237 0)
(0.000332431 0.0118385 0)
(-0.000474978 0.00739581 0)
(-0.000129604 0.00319953 0)
(0.00128631 -0.000478323 0)
(0.00357334 -0.00342653 0)
(0.00648497 -0.00534869 0)
(0.00982056 -0.00609928 0)
(0.0131388 -0.00559903 0)
(0.0160519 -0.00391107 0)
(0.0182197 -0.00126292 0)
(0.0193667 0.00200343 0)
(0.0193727 0.00551943 0)
(0.0183175 0.00892308 0)
(0.0163702 0.0118874 0)
(0.0137297 0.0142013 0)
(0.0106602 0.0157977 0)
(0.00750854 0.0167824 0)
(0.00447141 0.0173104 0)
(0.00188433 0.0175043 0)
(-0.00135199 0.0178149 0)
(-0.00490194 0.0173378 0)
(-0.00813254 0.0162371 0)
(-0.0108781 0.0145512 0)
(-0.0129812 0.0124143 0)
(-0.0144048 0.0100099 0)
(-0.0150895 0.00756033 0)
(-0.0149757 0.00531677 0)
(-0.0141281 0.00349957 0)
(-0.012742 0.00221317 0)
(-0.0110162 0.0016582 0)
(-0.00914499 0.00198358 0)
(-0.00743023 0.00322991 0)
(-0.0060992 0.00536612 0)
(-0.00544814 0.0082184 0)
(-0.00571422 0.0115828 0)
(-0.00703151 0.0152256 0)
(-0.0094272 0.0187978 0)
(-0.0129239 0.0220378 0)
(-0.0174734 0.0245914 0)
(-0.02293 0.0260728 0)
(-0.0289905 0.02621 0)
(-0.0352979 0.0247716 0)
(-0.0413332 0.0215567 0)
(-0.0464729 0.0167327 0)
(-0.0503746 0.0105565 0)
(-0.0527171 0.00367598 0)
(-0.0534397 -0.0035897 0)
(-0.0525857 -0.0109929 0)
(-0.0501462 -0.0182522 0)
(-0.0460161 -0.0250162 0)
(-0.0402248 -0.0306879 0)
(-0.0332102 -0.0345501 0)
(-0.0258974 -0.0360396 0)
(-0.0188381 -0.0354714 0)
(-0.0153226 -0.0338147 0)
(-0.0125109 -0.0381773 0)
(-0.00888524 -0.0445278 0)
(-0.00381702 -0.0366019 0)
(0.012867 -0.0389226 0)
(0.0225792 -0.0377003 0)
(0.00334338 -0.0356505 0)
(0.00135917 -0.0326142 0)
(0.00932898 -0.0382535 0)
(0.0230139 -0.0432198 0)
(0.0355241 -0.04077 0)
(0.0444449 -0.0350129 0)
(0.0511023 -0.0267158 0)
(0.0552055 -0.0174581 0)
(0.0569114 -0.00825232 0)
(0.0565463 0.000561829 0)
(0.0544788 0.00892343 0)
(0.0507715 0.0169724 0)
(0.0453916 0.0241454 0)
(0.0385444 0.0297726 0)
(0.0306321 0.0332552 0)
(0.0223563 0.0342789 0)
(0.0144347 0.0330299 0)
(0.00740352 0.0296611 0)
(0.00168429 0.0248735 0)
(-0.00219681 0.01929 0)
(-0.00421049 0.0133388 0)
(-0.00475112 0.0075833 0)
(-0.00396436 0.00208622 0)
(-0.00184291 -0.00270458 0)
(0.0014709 -0.00663852 0)
(0.0056837 -0.00924098 0)
(0.0104233 -0.0102288 0)
(0.015192 -0.00949599 0)
(0.0193946 -0.00708255 0)
(0.0225198 -0.00336579 0)
(0.024208 0.0011935 0)
(0.0243399 0.00600971 0)
(0.0229625 0.0106139 0)
(0.0202204 0.0145567 0)
(0.0164688 0.0175397 0)
(0.0122579 0.019442 0)
(0.00830341 0.0202882 0)
(0.00513891 0.0203296 0)
(0.0029417 0.0206663 0)
(-0.000780784 0.0217934 0)
(-0.00554648 0.0213308 0)
(-0.00999756 0.0196784 0)
(-0.0136896 0.0172589 0)
(-0.0163845 0.014291 0)
(-0.0180149 0.0109777 0)
(-0.0185578 0.00756648 0)
(-0.0180439 0.00443508 0)
(-0.0166322 0.00189885 0)
(-0.0144738 9.91434e-05 0)
(-0.0117475 -0.000763469 0)
(-0.00879957 -0.000458213 0)
(-0.00603829 0.00111952 0)
(-0.00380277 0.00392901 0)
(-0.00243687 0.00777335 0)
(-0.00216922 0.012288 0)
(-0.00322657 0.017141 0)
(-0.0056837 0.0220047 0)
(-0.00961237 0.0265561 0)
(-0.0151145 0.0303157 0)
(-0.0218496 0.0326896 0)
(-0.0293818 0.0333069 0)
(-0.0373195 0.0318966 0)
(-0.0450243 0.0281597 0)
(-0.0518074 0.0221041 0)
(-0.0570045 0.0143098 0)
(-0.0602838 0.00551579 0)
(-0.0616222 -0.00362875 0)
(-0.0609365 -0.0128268 0)
(-0.0581531 -0.0220126 0)
(-0.0531085 -0.0308671 0)
(-0.0457099 -0.0383825 0)
(-0.0364465 -0.0429921 0)
(-0.0259661 -0.0440525 0)
(-0.0149711 -0.0404864 0)
(-0.008982 -0.0343766 0)
(-0.00632869 -0.0416771 0)
(-0.0174685 -0.0476962 0)
(-0.0111928 -0.043037 0)
(0.0132862 -0.0686544 0)
(0.0572248 -0.0291154 0)
(0.0371054 -0.0118514 0)
(-0.00156038 -0.0376689 0)
(-0.00231346 -0.0552668 0)
(0.0177924 -0.0607996 0)
(0.0387061 -0.0536975 0)
(0.0527787 -0.0437858 0)
(0.061641 -0.032413 0)
(0.0656839 -0.0203931 0)
(0.0662282 -0.00859913 0)
(0.0643774 0.00227926 0)
(0.0614432 0.0124734 0)
(0.0573633 0.0221863 0)
(0.0508202 0.031205 0)
(0.0416344 0.0383219 0)
(0.0309247 0.0425036 0)
(0.0201205 0.0434579 0)
(0.00995245 0.0415156 0)
(0.00116331 0.0367525 0)
(-0.0054102 0.0300195 0)
(-0.00955341 0.0224055 0)
(-0.0112329 0.0146739 0)
(-0.0111079 0.00727899 0)
(-0.00952254 0.00037668 0)
(-0.00644394 -0.00589719 0)
(-0.00197138 -0.011092 0)
(0.00388022 -0.0146662 0)
(0.0106232 -0.0160247 0)
(0.0175317 -0.0149376 0)
(0.0237152 -0.0115368 0)
(0.0283566 -0.00627421 0)
(0.0309091 9.24591e-05 0)
(0.0311255 0.00681091 0)
(0.0290128 0.0131498 0)
(0.024764 0.0185575 0)
(0.0191599 0.0224242 0)
(0.0134677 0.0242977 0)
(0.00881671 0.0241785 0)
(0.00580151 0.0229443 0)
(0.00391546 0.0236745 0)
(9.2237e-05 0.0266524 0)
(-0.0057561 0.0268038 0)
(-0.0116755 0.0245958 0)
(-0.0168624 0.0210806 0)
(-0.0207811 0.0168272 0)
(-0.0230498 0.0122083 0)
(-0.0234441 0.00755739 0)
(-0.0221023 0.00327725 0)
(-0.0195085 -0.000245934 0)
(-0.0160762 -0.00283622 0)
(-0.0119997 -0.00419692 0)
(-0.00761636 -0.00399076 0)
(-0.00346497 -0.00201317 0)
(3.3986e-05 0.0016798 0)
(0.00241273 0.00665111 0)
(0.00342633 0.012537 0)
(0.00297035 0.0188038 0)
(0.000884836 0.0252918 0)
(-0.00321978 0.0316846 0)
(-0.00965057 0.0371275 0)
(-0.0180392 0.0407328 0)
(-0.0275284 0.041992 0)
(-0.0377495 0.0407306 0)
(-0.0482999 0.036511 0)
(-0.0576607 0.0291754 0)
(-0.0643206 0.0193251 0)
(-0.0681856 0.00827073 0)
(-0.0700866 -0.00299456 0)
(-0.0702555 -0.0144271 0)
(-0.0680694 -0.0261295 0)
(-0.0624676 -0.0375581 0)
(-0.052358 -0.0476185 0)
(-0.0381475 -0.0541268 0)
(-0.0201604 -0.05669 0)
(-0.00239102 -0.0522069 0)
(0.00448828 -0.0422317 0)
(-0.0196217 -0.029559 0)
(-0.0508249 -0.0366241 0)
(-0.0141541 -0.067433 0)
(0.0281398 -0.0998549 0)
(0.0994257 -0.0574274 0)
(0.129547 0.028447 0)
(0.0695498 0.0121043 0)
(0.0165353 -0.0601406 0)
(0.023305 -0.0886333 0)
(0.0435308 -0.0773082 0)
(0.0620724 -0.0591408 0)
(0.0729996 -0.0398901 0)
(0.0765504 -0.0218791 0)
(0.0756924 -0.0064338 0)
(0.0745223 0.00582902 0)
(0.0751245 0.0163867 0)
(0.0741997 0.0281362 0)
(0.0669809 0.0406815 0)
(0.0531401 0.0503459 0)
(0.0363773 0.0549302 0)
(0.0200593 0.0553208 0)
(0.00542698 0.0521077 0)
(-0.0065019 0.0452076 0)
(-0.0147198 0.0354478 0)
(-0.0193164 0.0247351 0)
(-0.0209346 0.0147455 0)
(-0.0202819 0.00567486 0)
(-0.0178563 -0.00248162 0)
(-0.013665 -0.0103149 0)
(-0.00757056 -0.0171101 0)
(0.000550289 -0.0221872 0)
(0.0101904 -0.0243303 0)
(0.0201305 -0.0229902 0)
(0.0290528 -0.0182356 0)
(0.0357658 -0.0107767 0)
(0.0394179 -0.00166939 0)
(0.0395554 0.00795623 0)
(0.0362158 0.0171645 0)
(0.0301169 0.0246791 0)
(0.0228909 0.0291497 0)
(0.0163265 0.0300734 0)
(0.0110039 0.0281947 0)
(0.00684616 0.0253931 0)
(0.00309647 0.026555 0)
(-0.00149547 0.0317656 0)
(-0.00804344 0.0333029 0)
(-0.0147672 0.031022 0)
(-0.0209532 0.0264926 0)
(-0.0260171 0.0205242 0)
(-0.0291816 0.0135967 0)
(-0.0297085 0.00656258 0)
(-0.0276216 0.00048843 0)
(-0.0237969 -0.00427338 0)
(-0.0189437 -0.0075799 0)
(-0.0130881 -0.00941318 0)
(-0.00643052 -0.00927456 0)
(0.00024519 -0.00675755 0)
(0.00583796 -0.00186962 0)
(0.0096204 0.00439649 0)
(0.0112693 0.0116586 0)
(0.0106873 0.0194751 0)
(0.00808313 0.027863 0)
(0.00325433 0.0367449 0)
(-0.00440516 0.0448909 0)
(-0.015147 0.0504858 0)
(-0.0284011 0.0531295 0)
(-0.0440229 0.0530086 0)
(-0.061021 0.04887 0)
(-0.0756349 0.0393357 0)
(-0.0833993 0.0256269 0)
(-0.0837928 0.0116248 0)
(-0.0814125 -0.000912719 0)
(-0.0800045 -0.0142338 0)
(-0.0781419 -0.0296584 0)
(-0.0721586 -0.0468358 0)
(-0.058446 -0.0639471 0)
(-0.0370384 -0.0764654 0)
(-0.0149042 -0.0829347 0)
(-0.00444001 -0.0687268 0)
(-0.0343522 -0.0154205 0)
(-0.10015 0.0174228 0)
(-0.0898001 -0.0535789 0)
(-0.0233255 -0.101033 0)
(0.0678479 -0.188423 0)
(0.1539 -0.142025 0)
(0.213629 0.0259945 0)
(0.172757 0.0851633 0)
(0.0705759 -0.00102616 0)
(0.0483013 -0.085389 0)
(0.0635257 -0.0940371 0)
(0.0821672 -0.0727195 0)
(0.0926326 -0.0454217 0)
(0.0952552 -0.0226482 0)