/*--------------------------------*- C++ -*----------------------------------*\
| =========                 |                                                 |
| \\      /  F ield         | OpenFOAM: The Open Source CFD Toolbox           |
|  \\    /   O peration     | Version:  2412                                  |
|   \\  /    A nd           | Website:  www.openfoam.com                      |
|    \\/     M anipulation  |                                                 |
\*---------------------------------------------------------------------------*/
FoamFile
{
    version     2.0;
    format      ascii;
    arch        "LSB;label=32;scalar=64";
    class       volScalarField;
    location    "7.55";
    object      p;
}
// * * * * * * * * * * * * * * * * * * * * * * * * * * * * * * * * * * * * * //

dimensions      [1 -1 -2 0 0 0 0];

internalField   nonuniform List<scalar> 
6400
(
7585.84
7586.01
7586.33
7586.79
7587.36
7588.04
7588.8
7589.63
7590.5
7591.39
7592.29
7593.14
7593.91
7594.58
7595.09
7595.41
7595.5
7595.33
7594.87
7594.08
7592.96
7591.5
7589.7
7587.56
7585.11
7582.38
7579.42
7576.26
7572.97
7569.62
7566.26
7562.97
7559.83
7556.9
7554.24
7551.93
7550.01
7548.53
7547.53
7547.02
7547.03
7547.54
7548.57
7550.07
7552.01
7554.36
7557.06
7560.05
7563.27
7566.64
7570.09
7573.55
7576.96
7580.24
7583.34
7586.2
7588.79
7591.05
7592.97
7594.54
7595.74
7596.58
7597.08
7597.26
7597.14
7596.76
7596.15
7595.37
7594.45
7593.43
7592.36
7591.28
7590.21
7589.2
7588.27
7587.44
7586.73
7586.16
7585.77
7585.57
7198.68
7198.84
7199.17
7199.65
7200.25
7200.95
7201.73
7202.6
7203.51
7204.45
7205.38
7206.27
7207.09
7207.8
7208.35
7208.71
7208.83
7208.69
7208.24
7207.46
7206.34
7204.87
7203.04
7200.87
7198.38
7195.6
7192.58
7189.35
7185.99
7182.56
7179.12
7175.76
7172.54
7169.53
7166.81
7164.44
7162.47
7160.95
7159.92
7159.4
7159.41
7159.94
7160.98
7162.52
7164.51
7166.92
7169.68
7172.75
7176.04
7179.49
7183.02
7186.56
7190.04
7193.4
7196.56
7199.48
7202.1
7204.41
7206.35
7207.94
7209.14
7209.98
7210.47
7210.62
7210.47
7210.05
7209.41
7208.58
7207.61
7206.54
7205.42
7204.29
7203.18
7202.13
7201.16
7200.29
7199.56
7198.97
7198.57
7198.36
6811.33
6811.52
6811.88
6812.38
6813.02
6813.77
6814.61
6815.52
6816.5
6817.5
6818.51
6819.49
6820.39
6821.18
6821.81
6822.24
6822.43
6822.34
6821.94
6821.19
6820.08
6818.59
6816.73
6814.51
6811.94
6809.07
6805.93
6802.58
6799.07
6795.49
6791.9
6788.38
6785.01
6781.86
6779.01
6776.52
6774.45
6772.86
6771.77
6771.23
6771.23
6771.78
6772.87
6774.48
6776.57
6779.09
6781.98
6785.19
6788.63
6792.23
6795.92
6799.62
6803.24
6806.73
6810.02
6813.04
6815.75
6818.12
6820.11
6821.71
6822.92
6823.74
6824.18
6824.28
6824.06
6823.57
6822.84
6821.92
6820.86
6819.7
6818.5
6817.28
6816.1
6814.98
6813.94
6813.01
6812.23
6811.61
6811.17
6810.94
6423.82
6424.03
6424.42
6424.97
6425.66
6426.47
6427.39
6428.38
6429.44
6430.54
6431.66
6432.75
6433.77
6434.69
6435.45
6436
6436.3
6436.3
6435.97
6435.27
6434.18
6432.69
6430.79
6428.49
6425.82
6422.8
6419.5
6415.95
6412.24
6408.43
6404.6
6400.85
6397.24
6393.88
6390.83
6388.16
6385.95
6384.24
6383.08
6382.49
6382.48
6383.07
6384.24
6385.96
6388.19
6390.88
6393.96
6397.38
6401.05
6404.89
6408.82
6412.74
6416.59
6420.28
6423.74
6426.91
6429.75
6432.2
6434.25
6435.88
6437.07
6437.85
6438.23
6438.24
6437.92
6437.3
6436.44
6435.39
6434.19
6432.9
6431.57
6430.23
6428.94
6427.72
6426.59
6425.59
6424.73
6424.05
6423.56
6423.31
6036.11
6036.35
6036.79
6037.41
6038.17
6039.06
6040.06
6041.15
6042.33
6043.56
6044.82
6046.06
6047.26
6048.34
6049.27
6049.99
6050.44
6050.58
6050.35
6049.73
6048.68
6047.19
6045.24
6042.84
6040.03
6036.83
6033.3
6029.49
6025.49
6021.37
6017.23
6013.15
6009.24
6005.57
6002.25
5999.34
5996.93
5995.06
5993.79
5993.14
5993.13
5993.77
5995.04
5996.9
5999.33
6002.25
6005.61
6009.32
6013.3
6017.46
6021.71
6025.95
6030.09
6034.05
6037.75
6041.13
6044.12
6046.69
6048.81
6050.46
6051.64
6052.36
6052.64
6052.52
6052.04
6051.26
6050.22
6048.98
6047.59
6046.12
6044.62
6043.13
6041.69
6040.34
6039.1
6037.99
6037.04
6036.27
6035.73
6035.43
5648.18
5648.46
5648.97
5649.67
5650.52
5651.5
5652.6
5653.82
5655.13
5656.52
5657.97
5659.41
5660.82
5662.13
5663.28
5664.22
5664.88
5665.2
5665.12
5664.61
5663.62
5662.13
5660.13
5657.62
5654.63
5651.19
5647.37
5643.23
5638.86
5634.34
5629.79
5625.29
5620.97
5616.92
5613.24
5610.03
5607.35
5605.27
5603.86
5603.14
5603.13
5603.83
5605.22
5607.28
5609.96
5613.19
5616.89
5620.98
5625.36
5629.94
5634.6
5639.24
5643.76
5648.07
5652.08
5655.72
5658.92
5661.63
5663.83
5665.5
5666.65
5667.28
5667.43
5667.14
5666.46
5665.45
5664.17
5662.69
5661.06
5659.36
5657.64
5655.95
5654.33
5652.82
5651.44
5650.2
5649.13
5648.26
5647.63
5647.29
5260
5260.34
5260.94
5261.73
5262.68
5263.76
5264.98
5266.33
5267.82
5269.41
5271.08
5272.78
5274.45
5276.04
5277.48
5278.7
5279.63
5280.19
5280.31
5279.95
5279.05
5277.57
5275.51
5272.87
5269.66
5265.93
5261.75
5257.2
5252.36
5247.35
5242.27
5237.26
5232.42
5227.89
5223.77
5220.15
5217.15
5214.82
5213.22
5212.41
5212.39
5213.17
5214.73
5217.03
5220.02
5223.63
5227.77
5232.34
5237.22
5242.32
5247.5
5252.65
5257.65
5262.39
5266.79
5270.74
5274.18
5277.07
5279.37
5281.06
5282.15
5282.66
5282.63
5282.12
5281.18
5279.88
5278.3
5276.51
5274.58
5272.59
5270.6
5268.66
5266.82
5265.12
5263.58
5262.19
5260.98
5259.99
5259.25
5258.83
4871.54
4871.96
4872.66
4873.55
4874.6
4875.78
4877.12
4878.64
4880.32
4882.16
4884.11
4886.12
4888.13
4890.07
4891.87
4893.45
4894.72
4895.58
4895.97
4895.8
4895.02
4893.58
4891.46
4888.66
4885.2
4881.12
4876.5
4871.44
4866.03
4860.4
4854.69
4849.03
4843.57
4838.43
4833.76
4829.67
4826.25
4823.61
4821.8
4820.87
4820.84
4821.72
4823.48
4826.08
4829.46
4833.54
4838.21
4843.36
4848.87
4854.6
4860.42
4866.19
4871.77
4877.05
4881.91
4886.25
4889.99
4893.08
4895.48
4897.18
4898.2
4898.55
4898.29
4897.49
4896.22
4894.56
4892.6
4890.42
4888.12
4885.77
4883.44
4881.19
4879.09
4877.16
4875.43
4873.89
4872.54
4871.41
4870.54
4870.02
4482.74
4483.29
4484.09
4485.04
4486.13
4487.39
4488.88
4490.61
4492.56
4494.71
4497
4499.39
4501.81
4504.19
4506.44
4508.46
4510.15
4511.41
4512.14
4512.23
4511.62
4510.25
4508.07
4505.09
4501.33
4496.83
4491.69
4486
4479.9
4473.53
4467.04
4460.6
4454.37
4448.51
4443.17
4438.49
4434.59
4431.56
4429.48
4428.41
4428.37
4429.37
4431.38
4434.34
4438.19
4442.84
4448.16
4454.02
4460.28
4466.79
4473.38
4479.9
4486.19
4492.11
4497.53
4502.33
4506.43
4509.75
4512.27
4513.97
4514.86
4515.01
4514.45
4513.28
4511.59
4509.48
4507.05
4504.41
4501.64
4498.85
4496.1
4493.46
4491
4488.78
4486.83
4485.15
4483.7
4482.45
4481.45
4480.8
4093.57
4094.26
4095.1
4096
4097.03
4098.35
4100.04
4102.08
4104.41
4106.96
4109.68
4112.54
4115.46
4118.36
4121.16
4123.74
4125.96
4127.72
4128.88
4129.32
4128.94
4127.66
4125.45
4122.27
4118.16
4113.17
4107.4
4100.97
4094.03
4086.76
4079.33
4071.95
4064.8
4058.06
4051.92
4046.53
4042.04
4038.55
4036.15
4034.92
4034.87
4036.01
4038.31
4041.71
4046.13
4051.46
4057.56
4064.27
4071.44
4078.88
4086.4
4093.82
4100.97
4107.66
4113.74
4119.09
4123.6
4127.19
4129.82
4131.5
4132.24
4132.1
4131.16
4129.53
4127.32
4124.65
4121.65
4118.43
4115.1
4111.75
4108.48
4105.34
4102.39
4099.75
4097.5
4095.68
4094.23
4092.99
4091.92
4091.1
3704
3704.78
3705.51
3706.15
3707.02
3708.42
3710.43
3712.94
3715.78
3718.84
3722.08
3725.49
3729.01
3732.56
3736.02
3739.27
3742.16
3744.54
3746.25
3747.14
3747.08
3745.96
3743.72
3740.34
3735.83
3730.26
3723.73
3716.41
3708.47
3700.12
3691.58
3683.06
3674.8
3667.02
3659.92
3653.68
3648.48
3644.43
3641.66
3640.23
3640.16
3641.47
3644.13
3648.05
3653.16
3659.3
3666.33
3674.07
3682.32
3690.87
3699.51
3708.01
3716.17
3723.78
3730.67
3736.66
3741.64
3745.53
3748.29
3749.9
3750.42
3749.91
3748.49
3746.28
3743.42
3740.07
3736.36
3732.44
3728.43
3724.42
3720.5
3716.71
3713.12
3709.89
3707.21
3705.22
3703.86
3702.82
3701.81
3700.88
3314.03
3314.76
3315.21
3315.51
3316.21
3317.75
3320.16
3323.23
3326.66
3330.31
3334.16
3338.21
3342.42
3346.71
3350.97
3355.04
3358.75
3361.92
3364.34
3365.81
3366.18
3365.29
3363.06
3359.45
3354.48
3348.23
3340.82
3332.44
3323.3
3313.66
3303.78
3293.91
3284.33
3275.29
3267.05
3259.8
3253.75
3249.06
3245.83
3244.16
3244.08
3245.6
3248.67
3253.23
3259.14
3266.26
3274.4
3283.36
3292.9
3302.77
3312.73
3322.52
3331.89
3340.6
3348.44
3355.19
3360.73
3364.95
3367.82
3369.33
3369.53
3368.54
3366.5
3363.55
3359.9
3355.71
3351.16
3346.41
3341.59
3336.81
3332.13
3327.6
3323.26
3319.32
3316.1
3313.87
3312.57
3311.81
3311.02
3310.11
2923.7
2924.23
2924.39
2924.47
2925.17
2926.92
2929.7
2933.24
2937.21
2941.43
2945.9
2950.65
2955.63
2960.78
2965.97
2971.04
2975.76
2979.9
2983.22
2985.46
2986.39
2985.84
2983.67
2979.83
2974.34
2967.29
2958.81
2949.16
2938.6
2927.42
2915.93
2904.46
2893.3
2882.78
2873.17
2864.73
2857.68
2852.21
2848.45
2846.5
2846.41
2848.17
2851.74
2857.03
2863.91
2872.18
2881.64
2892.04
2903.11
2914.56
2926.1
2937.42
2948.23
2958.24
2967.22
2974.86
2981.04
2985.65
2988.61
2989.94
2989.73
2988.11
2985.26
2981.41
2976.76
2971.56
2966.02
2960.3
2954.57
2948.93
2943.45
2938.15
2933.1
2928.51
2924.77
2922.19
2920.76
2920.11
2919.53
2918.78
2533.07
2533.37
2533.41
2533.55
2534.44
2536.42
2539.45
2543.26
2547.58
2552.26
2557.31
2562.75
2568.57
2574.68
2580.96
2587.21
2593.17
2598.55
2603.02
2606.25
2607.94
2607.85
2605.8
2601.73
2595.64
2587.62
2577.88
2566.72
2554.45
2541.43
2528.04
2514.64
2501.62
2489.33
2478.11
2468.25
2460.03
2453.64
2449.25
2446.97
2446.85
2448.91
2453.08
2459.25
2467.26
2476.9
2487.92
2500.03
2512.91
2526.22
2539.62
2552.76
2565.28
2576.84
2587.11
2595.87
2602.82
2607.84
2610.88
2611.96
2611.18
2608.74
2604.87
2599.87
2594.02
2587.61
2580.89
2574.08
2567.34
2560.8
2554.54
2548.56
2542.94
2537.86
2533.68
2530.67
2528.89
2528.04
2527.5
2526.92
2142.17
2142.36
2142.5
2142.9
2144.05
2146.22
2149.36
2153.27
2157.77
2162.77
2168.32
2174.44
2181.11
2188.3
2195.83
2203.5
2210.98
2217.91
2223.85
2228.36
2231.06
2231.6
2229.77
2225.47
2218.69
2209.5
2198.25
2185.25
2170.93
2155.72
2140.07
2124.4
2109.16
2094.78
2081.65
2070.13
2060.52
2053.05
2047.92
2045.25
2045.12
2047.52
2052.39
2059.6
2068.97
2080.23
2093.08
2107.2
2122.21
2137.72
2153.32
2168.6
2183.16
2196.58
2208.47
2218.49
2226.32
2231.8
2234.87
2235.57
2234.04
2230.54
2225.39
2218.96
2211.64
2203.79
2195.72
2187.68
2179.87
2172.42
2165.4
2158.84
2152.76
2147.33
2142.76
2139.31
2137.06
2135.79
2135.05
2134.53
1751.01
1751.26
1751.62
1752.34
1753.73
1756.01
1759.15
1763.04
1767.59
1772.82
1778.79
1785.56
1793.09
1801.43
1810.4
1819.73
1829.08
1837.95
1845.77
1851.96
1855.98
1857.38
1855.89
1851.38
1843.85
1833.27
1820.14
1804.92
1788.15
1770.35
1752.01
1733.65
1715.79
1698.94
1683.58
1670.12
1658.89
1650.17
1644.17
1641.05
1640.89
1643.69
1649.39
1657.83
1668.78
1681.94
1696.96
1713.44
1730.96
1749.05
1767.23
1785.03
1801.98
1817.62
1831.43
1842.95
1851.78
1857.76
1860.81
1860.99
1858.47
1853.61
1846.83
1838.63
1829.53
1819.98
1810.38
1801
1792.06
1783.67
1775.91
1768.8
1762.34
1756.58
1751.67
1747.81
1745.07
1743.29
1742.21
1741.6
1359.46
1359.8
1360.38
1361.43
1363.06
1365.46
1368.58
1372.39
1376.93
1382.3
1388.6
1396
1404.27
1413.87
1424.41
1435.68
1447.26
1458.54
1468.76
1477.13
1482.89
1485.43
1484.41
1479.76
1471.58
1459.17
1443.74
1425.83
1406.13
1385.28
1363.81
1342.29
1321.35
1301.62
1283.68
1267.99
1254.93
1244.76
1237.76
1234.12
1233.93
1237.2
1243.85
1253.71
1266.5
1281.87
1299.38
1318.59
1339.02
1360.11
1381.29
1402.01
1421.79
1440.08
1456.23
1469.56
1479.5
1485.97
1488.93
1488.38
1484.57
1477.94
1469.1
1458.73
1447.5
1436
1424.7
1413.88
1403.78
1394.44
1385.96
1378.32
1371.46
1365.36
1360.07
1355.74
1352.43
1350.11
1348.68
1347.93
967.372
967.61
968.261
969.606
971.629
974.284
977.524
981.252
985.732
991.162
997.562
1005.36
1014.58
1025.32
1037.49
1050.91
1065.13
1079.36
1092.64
1103.86
1111.93
1115.97
1115.53
1110.68
1101.07
1087.23
1069.07
1047.83
1024.62
1000.23
975.18
950.039
925.527
902.448
881.498
863.234
848.063
836.185
827.953
823.646
823.404
827.239
835.052
846.639
861.648
879.608
900.016
922.361
946.101
970.6
995.184
1019.27
1042.38
1063.92
1082.98
1098.48
1109.65
1116.61
1119.43
1117.93
1112.36
1103.43
1091.97
1078.95
1065.22
1051.54
1038.43
1026.13
1014.82
1004.6
995.494
987.356
980.071
973.557
967.668
962.652
958.614
955.688
953.987
953.289
576.089
575.624
575.809
577.089
579.342
582.224
585.637
589.293
593.794
599.357
605.626
613.738
623.769
635.636
649.49
665.341
682.665
700.506
717.645
732.538
743.645
749.631
749.84
745.143
735.021
718.412
696.486
671.12
643.912
615.658
586.575
557.008
527.816
500.26
475.324
453.698
435.937
422.191
412.646
407.608
407.29
411.666
420.66
434.234
452.201
473.596
497.774
524.19
552.193
580.878
609.367
637.117
663.909
689.28
712.062
730.428
742.676
750.019
752.774
750.034
742.149
730.26
715.523
699.278
682.63
666.517
651.528
637.762
625.196
614.133
604.498
595.75
587.841
580.776
574.188
568.449
563.658
560.322
558.864
558.987
213.809
212.456
212.077
212.942
214.637
216.631
219.189
220.561
223.582
228.11
233.583
240.398
248.959
259.036
271.489
286.814
304.707
324.273
344.353
363.704
379.55
388.332
388.325
384.315
375.702
356.291
330.163
301.891
273.941
247.043
220.744
195.056
170.799
148.831
129.656
113.634
102.655
94.7635
89.4254
86.7204
86.6703
89.1842
94.1688
101.772
112.874
128.385
146.845
167.77
190.782
215.451
241.001
266.98
293.625
320.853
347.137
368.904
381.107
387.253
390.747
386.201
374.533
358.509
340.827
322.499
304.721
288.608
274.648
262.493
251.436
241.534
232.937
225.241
218.832
214.117
208.603
204.112
200.343
197.924
197.488
198.768
19.2957
18.3714
18.1769
18.4977
18.8873
19.0687
19.0438
19.3036
20.3486
22.2112
24.529
27.3317
30.3631
33.8993
38.7269
45.2216
53.3869
63.018
73.9894
86.8168
99.2871
107.784
111.188
109.864
102.953
90.1237
73.539
56.8727
42.4412
30.3795
19.9102
10.9469
3.77661
-1.65611
-5.65877
-8.33892
-8.81982
-8.8321
-8.75078
-8.66019
-8.6204
-8.64674
-8.63704
-8.6477
-8.42861
-6.18874
-2.34206
2.84831
9.55032
17.9564
27.9069
39.1716
52.1281
67.1606
83.1439
96.9106
105.663
109.537
108.707
103.386
93.7241
82.2382
71.7988
62.0811
53.3818
46.1038
40.353
35.7616
31.6235
27.4989
23.8531
20.6205
18.0354
16.4913
15.4985
14.5428
13.6694
13.0296
12.9222
13.5041
-9.29593
-9.18711
-9.22409
-9.25645
-9.2891
-9.31761
-9.32872
-9.34036
-9.41515
-9.44795
-9.35919
-9.2963
-9.26291
-9.19155
-9.14495
-9.1723
-9.27077
-9.4017
-9.44894
-9.15068
-8.40897
-7.61349
-7.37355
-7.9213
-9.0744
-9.87684
-10.1057
-10.1199
-10.0314
-9.92312
-9.80837
-9.68535
-9.56302
-9.45946
-9.38389
-9.32774
-9.36705
-9.36766
-9.34934
-9.29377
-9.23898
-9.2264
-9.21391
-9.22454
-9.24828
-9.38174
-9.50127
-9.61778
-9.73895
-9.86078
-9.97638
-10.0823
-10.1787
-10.2266
-10.0955
-9.77984
-8.67499
-7.71998
-7.57419
-8.05357
-8.81506
-9.26907
-9.38118
-9.33685
-9.27524
-9.26619
-9.31449
-9.39186
-9.47391
-9.56291
-9.64464
-9.70501
-9.74595
-9.76447
-9.71806
-9.61204
-9.54957
-9.5755
-9.60588
-9.70758
-9.72756
-9.71825
-9.71878
-9.73274
-9.76361
-9.80546
-9.84986
-9.92614
-10.0604
-10.1446
-10.1264
-10.1112
-10.0916
-10.0449
-10.0125
-10.0455
-10.1304
-10.23
-10.3359
-10.4634
-10.599
-10.6895
-10.7309
-10.7321
-10.6163
-10.5232
-10.5457
-10.5151
-10.4464
-10.3607
-10.267
-10.1678
-10.0657
-9.9674
-9.89722
-9.87966
-9.92692
-9.98715
-9.97266
-9.88112
-9.78847
-9.76231
-9.767
-9.79018
-9.88083
-9.99508
-10.0888
-10.1679
-10.2519
-10.3434
-10.4359
-10.5179
-10.5851
-10.6229
-10.6233
-10.6415
-10.781
-10.8371
-10.853
-10.8403
-10.7447
-10.5531
-10.3543
-10.217
-10.1433
-10.1193
-10.1372
-10.1779
-10.2302
-10.2768
-10.3025
-10.3038
-10.2826
-10.2515
-10.212
-10.1556
-10.1296
-10.1619
-10.1595
-10.1169
-10.2775
-10.2633
-10.2584
-10.2664
-10.281
-10.3031
-10.3513
-10.4332
-10.5525
-10.6486
-10.6783
-10.6947
-10.6747
-10.6076
-10.5533
-10.5831
-10.6799
-10.7799
-10.8608
-10.9346
-11.0172
-11.106
-11.1684
-11.1626
-11.104
-11.0284
-10.9868
-10.9484
-10.8983
-10.837
-10.7695
-10.6987
-10.6274
-10.5625
-10.5129
-10.5014
-10.5305
-10.5447
-10.4881
-10.3967
-10.3152
-10.2887
-10.3174
-10.3484
-10.4343
-10.5209
-10.5995
-10.6791
-10.7642
-10.8533
-10.9381
-11.0115
-11.0661
-11.0984
-11.1219
-11.1761
-11.2547
-11.2721
-11.2385
-11.1765
-11.0715
-10.9322
-10.7925
-10.686
-10.6258
-10.6094
-10.6286
-10.6698
-10.7188
-10.7654
-10.8005
-10.8102
-10.8024
-10.7985
-10.7912
-10.7533
-10.7365
-10.7579
-10.7337
-10.6869
-10.8201
-10.8123
-10.8058
-10.7976
-10.7988
-10.8026
-10.8381
-10.9199
-11.029
-11.15
-11.2584
-11.3226
-11.2939
-11.2247
-11.1731
-11.1951
-11.2625
-11.3298
-11.3862
-11.4429
-11.5071
-11.5717
-11.6065
-11.5947
-11.5489
-11.494
-11.4505
-11.412
-11.3711
-11.3261
-11.2791
-11.232
-11.1864
-11.1454
-11.1161
-11.1048
-11.0982
-11.0651
-10.9967
-10.9144
-10.8365
-10.8009
-10.8192
-10.8579
-10.9312
-11.0202
-11.1039
-11.1836
-11.2634
-11.3419
-11.4115
-11.4709
-11.5209
-11.5605
-11.5938
-11.6346
-11.6764
-11.6856
-11.6524
-11.5834
-11.4813
-11.3612
-11.246
-11.1577
-11.1077
-11.098
-11.1228
-11.1698
-11.2223
-11.2726
-11.3155
-11.3377
-11.335
-11.3397
-11.3521
-11.3093
-11.2711
-11.2785
-11.2614
-11.206
-11.3876
-11.3986
-11.4106
-11.4081
-11.3977
-11.3897
-11.3958
-11.4787
-11.5878
-11.7126
-11.8839
-12.0004
-12.015
-11.9574
-11.9199
-11.9045
-11.8927
-11.8843
-11.9002
-11.9478
-12.0052
-12.05
-12.0659
-12.0528
-12.0192
-11.9786
-11.9399
-11.9028
-11.866
-11.83
-11.7973
-11.7693
-11.7451
-11.7236
-11.7079
-11.7017
-11.6962
-11.668
-11.5955
-11.4918
-11.3898
-11.3385
-11.3347
-11.3746
-11.4465
-11.5411
-11.6271
-11.7043
-11.7784
-11.848
-11.9103
-11.9582
-12.0016
-12.0434
-12.0808
-12.1117
-12.1326
-12.1285
-12.0934
-12.0304
-11.9401
-11.8343
-11.7343
-11.66
-11.6208
-11.6204
-11.6514
-11.7009
-11.7532
-11.8002
-11.8369
-11.8596
-11.8626
-11.8595
-11.8608
-11.8159
-11.7515
-11.7472
-11.7409
-11.704
-11.9731
-12.0068
-12.023
-12.0263
-12.0282
-12.034
-12.0477
-12.128
-12.2729
-12.4076
-12.6055
-12.7713
-12.8163
-12.7142
-12.6277
-12.5574
-12.4903
-12.4382
-12.4308
-12.4673
-12.5117
-12.5363
-12.539
-12.5246
-12.4982
-12.4665
-12.434
-12.4016
-12.3706
-12.3431
-12.3218
-12.3083
-12.3002
-12.2923
-12.2846
-12.2871
-12.2953
-12.2833
-12.2183
-12.1056
-11.9887
-11.9179
-11.8987
-11.9292
-11.9951
-12.0813
-12.1604
-12.2276
-12.2882
-12.3538
-12.4124
-12.4555
-12.4952
-12.5363
-12.5752
-12.6046
-12.6208
-12.6135
-12.5769
-12.5113
-12.4237
-12.3267
-12.238
-12.1753
-12.1456
-12.1524
-12.188
-12.2379
-12.2895
-12.3352
-12.3694
-12.3889
-12.3903
-12.374
-12.3483
-12.2959
-12.2275
-12.2004
-12.1999
-12.192
-12.5654
-12.5904
-12.5881
-12.5941
-12.6317
-12.6868
-12.7411
-12.8282
-13.0086
-13.2072
-13.4005
-13.5347
-13.5151
-13.374
-13.2155
-13.1179
-13.0434
-12.9887
-12.9753
-12.9948
-13.0195
-13.027
-13.0219
-13.0073
-12.9857
-12.9605
-12.9338
-12.9073
-12.8832
-12.8637
-12.852
-12.8503
-12.8552
-12.8599
-12.8651
-12.8873
-12.9103
-12.9077
-12.8514
-12.743
-12.6229
-12.5391
-12.5068
-12.5224
-12.5802
-12.6461
-12.7092
-12.7661
-12.8191
-12.877
-12.932
-12.9739
-13.0123
-13.0532
-13.094
-13.1252
-13.1356
-13.1253
-13.0882
-13.0206
-12.9329
-12.8395
-12.7592
-12.7072
-12.6878
-12.703
-12.7432
-12.7941
-12.8451
-12.8892
-12.9217
-12.9375
-12.9341
-12.9068
-12.8566
-12.789
-12.7161
-12.6813
-12.6851
-12.6919
-13.1492
-13.1662
-13.1623
-13.1938
-13.2543
-13.3434
-13.4229
-13.5063
-13.6751
-13.9152
-14.113
-14.1814
-14.1011
-13.9299
-13.7607
-13.6603
-13.5856
-13.5335
-13.5134
-13.5172
-13.5237
-13.5203
-13.5109
-13.4966
-13.4785
-13.4578
-13.436
-13.4149
-13.3968
-13.3844
-13.3808
-13.3896
-13.4068
-13.4267
-13.4515
-13.4972
-13.5399
-13.5452
-13.4935
-13.3906
-13.2723
-13.1791
-13.1367
-13.1431
-13.184
-13.2322
-13.2733
-13.3113
-13.3582
-13.4107
-13.462
-13.5049
-13.5427
-13.5867
-13.631
-13.6592
-13.6657
-13.6521
-13.6157
-13.5533
-13.4704
-13.3819
-13.3108
-13.2702
-13.2643
-13.2904
-13.3346
-13.3849
-13.4351
-13.4801
-13.511
-13.5211
-13.5101
-13.4686
-13.3891
-13.3023
-13.2243
-13.191
-13.1941
-13.2052
-13.7298
-13.7695
-13.8023
-13.8914
-13.9909
-14.0639
-14.1051
-14.1468
-14.2418
-14.4092
-14.5752
-14.6364
-14.5496
-14.393
-14.2545
-14.1643
-14.0975
-14.0535
-14.0308
-14.0274
-14.023
-14.0149
-14.004
-13.9906
-13.975
-13.9575
-13.9393
-13.923
-13.9098
-13.9025
-13.9054
-13.9227
-13.9504
-13.984
-14.0277
-14.0937
-14.1598
-14.1757
-14.1252
-14.0277
-13.9151
-13.8166
-13.7679
-13.7662
-13.7936
-13.833
-13.861
-13.872
-13.8991
-13.9485
-13.9956
-14.0355
-14.0723
-14.1212
-14.1695
-14.2006
-14.2106
-14.2016
-14.1725
-14.1183
-14.0424
-13.961
-13.9009
-13.8732
-13.8835
-13.9217
-13.9675
-14.0171
-14.0694
-14.1214
-14.1561
-14.1548
-14.1258
-14.0672
-13.9625
-13.8393
-13.7499
-13.7079
-13.7078
-13.7115
-14.3104
-14.3836
-14.4644
-14.5941
-14.7263
-14.7734
-14.7491
-14.7399
-14.7539
-14.7994
-14.8757
-14.9372
-14.9055
-14.8005
-14.6984
-14.6281
-14.5775
-14.547
-14.5325
-14.5269
-14.5193
-14.5104
-14.5
-14.4879
-14.4743
-14.4593
-14.4441
-14.4316
-14.4218
-14.4181
-14.4259
-14.4488
-14.4841
-14.5269
-14.5849
-14.6678
-14.7479
-14.7702
-14.7253
-14.6364
-14.5326
-14.4384
-14.3855
-14.3696
-14.3887
-14.4215
-14.454
-14.4521
-14.444
-14.4879
-14.5322
-14.5672
-14.6032
-14.658
-14.7172
-14.763
-14.7861
-14.786
-14.7622
-14.7175
-14.6498
-14.5766
-14.5279
-14.5154
-14.5452
-14.5982
-14.6472
-14.7089
-14.7859
-14.8707
-14.9376
-14.9724
-14.9357
-14.8337
-14.6694
-14.4705
-14.3263
-14.2467
-14.2228
-14.2118
-14.8792
-14.9465
-15.0542
-15.201
-15.3382
-15.3399
-15.2868
-15.2567
-15.2249
-15.194
-15.1935
-15.2233
-15.2234
-15.1735
-15.1134
-15.0676
-15.0413
-15.0298
-15.0267
-15.0216
-15.0151
-15.0075
-14.9985
-14.9881
-14.9763
-14.9634
-14.9508
-14.9406
-14.9331
-14.9319
-14.9427
-14.9692
-15.0092
-15.0588
-15.1267
-15.2144
-15.2938
-15.3212
-15.2862
-15.2095
-15.1189
-15.0383
-14.9801
-14.9531
-14.9574
-14.9825
-15.0167
-15.0268
-15.0017
-15.0195
-15.0689
-15.1017
-15.1384
-15.201
-15.2785
-15.3449
-15.3896
-15.4033
-15.3853
-15.344
-15.2826
-15.2175
-15.1808
-15.1868
-15.2431
-15.3177
-15.3846
-15.5085
-15.6937
-15.8858
-16.0376
-16.094
-16.0298
-15.8417
-15.5609
-15.2489
-14.9896
-14.8376
-14.7607
-14.729
-15.4118
-15.4638
-15.5786
-15.7245
-15.8134
-15.7842
-15.741
-15.7034
-15.6597
-15.6119
-15.588
-15.5964
-15.5951
-15.5643
-15.529
-15.5134
-15.5134
-15.5188
-15.5195
-15.5166
-15.5125
-15.5065
-15.4991
-15.4904
-15.4806
-15.4701
-15.4595
-15.4508
-15.4442
-15.4436
-15.4548
-15.4833
-15.5253
-15.5788
-15.6473
-15.73
-15.8012
-15.8327
-15.8087
-15.7468
-15.6732
-15.6088
-15.5548
-15.525
-15.5128
-15.5226
-15.5511
-15.5774
-15.5618
-15.5352
-15.5995
-15.6379
-15.6778
-15.7453
-15.8387
-15.9259
-15.9881
-16.0202
-16.0165
-15.9772
-15.9182
-15.8599
-15.8376
-15.8672
-15.9612
-16.0706
-16.2098
-16.4888
-16.8128
-17.0764
-17.2317
-17.259
-17.1457
-16.8818
-16.502
-16.0893
-15.7147
-15.4749
-15.3371
-15.2807
-15.9071
-15.9674
-16.0684
-16.1967
-16.2454
-16.2121
-16.1829
-16.1561
-16.124
-16.0919
-16.0708
-16.0559
-16.0314
-16.002
-15.989
-15.9975
-16.0107
-16.0162
-16.0163
-16.0152
-16.0121
-16.0074
-16.0015
-15.9947
-15.9871
-15.9789
-15.9705
-15.9632
-15.9566
-15.9537
-15.9624
-15.9903
-16.0327
-16.0871
-16.1487
-16.223
-16.2862
-16.3148
-16.3011
-16.2558
-16.2008
-16.1518
-16.1101
-16.0846
-16.0682
-16.0643
-16.0796
-16.1038
-16.1016
-16.0725
-16.1171
-16.1664
-16.2102
-16.2737
-16.372
-16.4743
-16.551
-16.5989
-16.6116
-16.5846
-16.5295
-16.4748
-16.4686
-16.5288
-16.6644
-16.8232
-17.1116
-17.5374
-17.8883
-18.1317
-18.2632
-18.2678
-18.1209
-17.8113
-17.3668
-16.8825
-16.4296
-16.1013
-15.9283
-15.8526
-16.3916
-16.4553
-16.5452
-16.6483
-16.6883
-16.6724
-16.6598
-16.6556
-16.6401
-16.6188
-16.5932
-16.5635
-16.5286
-16.5031
-16.5015
-16.5095
-16.517
-16.5192
-16.5183
-16.5163
-16.5135
-16.5097
-16.5053
-16.5005
-16.4955
-16.4902
-16.4851
-16.4805
-16.4749
-16.4698
-16.4757
-16.5022
-16.5398
-16.5886
-16.6427
-16.7034
-16.7599
-16.7832
-16.7813
-16.7532
-16.7152
-16.6806
-16.6519
-16.6314
-16.6151
-16.61
-16.6086
-16.6222
-16.63
-16.6126
-16.6348
-16.6802
-16.7242
-16.7752
-16.8587
-16.9603
-17.0479
-17.1086
-17.1326
-17.1202
-17.0801
-17.0351
-17.0447
-17.1388
-17.3103
-17.5309
-17.9602
-18.425
-18.7522
-18.9732
-19.0839
-19.0619
-18.8886
-18.55
-18.0733
-17.5564
-17.074
-16.693
-16.5057
-16.4043
-16.8775
-16.9372
-17.0341
-17.1388
-17.1771
-17.1612
-17.1419
-17.1394
-17.1382
-17.1304
-17.1128
-17.0869
-17.0563
-17.0321
-17.0273
-17.0263
-17.0247
-17.023
-17.0211
-17.0188
-17.0161
-17.0131
-17.0101
-17.0074
-17.0054
-17.004
-17.0039
-17.0058
-17.0073
-17.0052
-17.0165
-17.036
-17.0618
-17.0906
-17.1343
-17.1809
-17.2316
-17.2572
-17.2631
-17.2516
-17.2265
-17.2021
-17.1855
-17.1646
-17.1476
-17.138
-17.1297
-17.1398
-17.1523
-17.1433
-17.1536
-17.1831
-17.2241
-17.2499
-17.3034
-17.3867
-17.4777
-17.5457
-17.575
-17.5669
-17.542
-17.5169
-17.5441
-17.6644
-17.8605
-18.1675
-18.654
-19.0982
-19.4026
-19.6052
-19.6947
-19.6476
-19.4493
-19.0884
-18.6058
-18.0898
-17.628
-17.2636
-17.0432
-16.9116
-17.3896
-17.4413
-17.5378
-17.6386
-17.6782
-17.6581
-17.6156
-17.5981
-17.6089
-17.617
-17.6147
-17.5988
-17.574
-17.5547
-17.5442
-17.5371
-17.5324
-17.5288
-17.5254
-17.5223
-17.5195
-17.5169
-17.515
-17.5143
-17.5154
-17.5187
-17.5257
-17.5397
-17.5581
-17.5704
-17.5843
-17.5894
-17.5963
-17.6
-17.624
-17.6616
-17.7053
-17.7433
-17.7534
-17.7523
-17.739
-17.7196
-17.708
-17.6901
-17.6734
-17.6508
-17.6408
-17.6548
-17.6687
-17.6684
-17.6758
-17.6975
-17.7228
-17.7338
-17.7654
-17.825
-17.9
-17.9542
-17.9754
-17.96
-17.9386
-17.9288
-17.9679
-18.0988
-18.313
-18.6769
-19.1666
-19.5833
-19.8646
-20.0403
-20.1022
-20.0291
-19.809
-19.4418
-18.9779
-18.5027
-18.0964
-17.7775
-17.5152
-17.3941
-17.9585
-17.9994
-18.0643
-18.1351
-18.194
-18.1854
-18.1261
-18.076
-18.0801
-18.1042
-18.1097
-18.1011
-18.0832
-18.0678
-18.0559
-18.0469
-18.0402
-18.0348
-18.0302
-18.0262
-18.0229
-18.0204
-18.0191
-18.0199
-18.0235
-18.0313
-18.0457
-18.0743
-18.1176
-18.1502
-18.1548
-18.1444
-18.1279
-18.1128
-18.1134
-18.1427
-18.1813
-18.2254
-18.2519
-18.2598
-18.2502
-18.2341
-18.2188
-18.2077
-18.1973
-18.1788
-18.169
-18.1775
-18.1944
-18.2006
-18.2169
-18.2448
-18.2805
-18.2935
-18.309
-18.3567
-18.4077
-18.4382
-18.4159
-18.3716
-18.3347
-18.3192
-18.3452
-18.4604
-18.6675
-19.0321
-19.5055
-19.9157
-20.1893
-20.3429
-20.3717
-20.2769
-20.0444
-19.6893
-19.2619
-18.8423
-18.4921
-18.2027
-17.9822
-17.9121
-18.5637
-18.5994
-18.6469
-18.7117
-18.7882
-18.8032
-18.7206
-18.6007
-18.5664
-18.6101
-18.6107
-18.6048
-18.5917
-18.578
-18.5659
-18.5559
-18.5478
-18.5409
-18.535
-18.53
-18.5259
-18.5229
-18.5216
-18.5228
-18.5275
-18.5377
-18.5572
-18.5954
-18.6582
-18.7067
-18.7043
-18.6752
-18.6406
-18.6193
-18.6102
-18.6287
-18.6643
-18.7039
-18.7497
-18.7641
-18.7586
-18.7414
-18.7211
-18.714
-18.715
-18.7204
-18.7202
-18.7262
-18.7453
-18.7603
-18.7952
-18.8547
-18.9168
-18.9359
-18.9305
-18.9509
-18.9766
-18.9768
-18.913
-18.8286
-18.769
-18.7273
-18.7146
-18.7837
-18.9472
-19.2561
-19.688
-20.1033
-20.3977
-20.5576
-20.5841
-20.4707
-20.2321
-19.8937
-19.5025
-19.1254
-18.8144
-18.5842
-18.4886
-18.4741
-19.1455
-19.1772
-19.2353
-19.2935
-19.3434
-19.3794
-19.327
-19.1724
-19.1028
-19.1255
-19.1176
-19.1103
-19.0984
-19.0858
-19.0743
-19.0637
-19.0546
-19.0465
-19.0395
-19.0334
-19.0282
-19.0242
-19.022
-19.0222
-19.0259
-19.0349
-19.0531
-19.0895
-19.1499
-19.2073
-19.2047
-19.1687
-19.1373
-19.123
-19.1222
-19.1329
-19.1602
-19.1945
-19.2343
-19.2573
-19.2574
-19.2337
-19.2121
-19.2106
-19.2268
-19.255
-19.2696
-19.2927
-19.3119
-19.3407
-19.3946
-19.4987
-19.5777
-19.5859
-19.5481
-19.5204
-19.5131
-19.4876
-19.4058
-19.3108
-19.2344
-19.1631
-19.1063
-19.1147
-19.2111
-19.4313
-19.7773
-20.1495
-20.4588
-20.6495
-20.6955
-20.5925
-20.3644
-20.0506
-19.7049
-19.3884
-19.1458
-19.0178
-19.0032
-19.0251
-19.7209
-19.7516
-19.7937
-19.8346
-19.8649
-19.8708
-19.8547
-19.7252
-19.6567
-19.6375
-19.6279
-19.6155
-19.6041
-19.592
-19.5806
-19.5702
-19.5606
-19.5517
-19.5436
-19.5363
-19.5299
-19.5241
-19.5202
-19.5182
-19.5188
-19.523
-19.5331
-19.5551
-19.5951
-19.6417
-19.6497
-19.6363
-19.6374
-19.6466
-19.661
-19.6682
-19.6781
-19.6965
-19.7195
-19.7461
-19.7468
-19.7192
-19.6921
-19.6987
-19.7398
-19.781
-19.8092
-19.8481
-19.8683
-19.9099
-19.9776
-20.0945
-20.1835
-20.1881
-20.1159
-20.0476
-20.0063
-19.9553
-19.8751
-19.7926
-19.7143
-19.6266
-19.5382
-19.4994
-19.5374
-19.6761
-19.9357
-20.2577
-20.5634
-20.7718
-20.8416
-20.7729
-20.5836
-20.3084
-20.0051
-19.7446
-19.5773
-19.5123
-19.5177
-19.5413
-20.3221
-20.3306
-20.3407
-20.3606
-20.3623
-20.3395
-20.3103
-20.2408
-20.1818
-20.153
-20.1387
-20.1219
-20.1102
-20.0982
-20.087
-20.0763
-20.0662
-20.0566
-20.0474
-20.0388
-20.0308
-20.0235
-20.0172
-20.0122
-20.0086
-20.0064
-20.0066
-20.0115
-20.0269
-20.0539
-20.0732
-20.0889
-20.1418
-20.1977
-20.2267
-20.23
-20.2198
-20.2167
-20.224
-20.2361
-20.2394
-20.2228
-20.2016
-20.2131
-20.2637
-20.3038
-20.3416
-20.3797
-20.4016
-20.4507
-20.5223
-20.6113
-20.6946
-20.7058
-20.6396
-20.5593
-20.4949
-20.4319
-20.3543
-20.283
-20.2059
-20.1184
-20.0125
-19.9567
-19.9639
-20.0566
-20.2569
-20.5439
-20.8494
-21.0843
-21.1681
-21.1141
-20.9519
-20.7173
-20.4551
-20.231
-20.0988
-20.0488
-20.0434
-20.0541
-20.8725
-20.8765
-20.8846
-20.8775
-20.848
-20.8053
-20.7536
-20.7212
-20.6824
-20.6655
-20.6464
-20.629
-20.6165
-20.6045
-20.5932
-20.5823
-20.5717
-20.5614
-20.5513
-20.5415
-20.5319
-20.5227
-20.514
-20.506
-20.4985
-20.4905
-20.4837
-20.4784
-20.4799
-20.4943
-20.513
-20.5544
-20.6559
-20.7473
-20.7932
-20.7942
-20.7689
-20.7474
-20.7428
-20.7472
-20.7499
-20.7479
-20.7496
-20.7637
-20.7986
-20.8301
-20.865
-20.8953
-20.926
-20.9758
-21.0388
-21.0956
-21.1582
-21.1795
-21.1402
-21.0688
-20.9941
-20.929
-20.8586
-20.78
-20.7004
-20.6185
-20.5269
-20.4735
-20.4712
-20.5417
-20.715
-20.9811
-21.292
-21.5381
-21.6283
-21.5834
-21.4428
-21.2433
-21.0074
-20.7929
-20.6615
-20.609
-20.5872
-20.5863
-21.3759
-21.3921
-21.4248
-21.4175
-21.3574
-21.2849
-21.2248
-21.2032
-21.1844
-21.1695
-21.1513
-21.1353
-21.1227
-21.1107
-21.0993
-21.0882
-21.0772
-21.0664