/*--------------------------------*- C++ -*----------------------------------*\
| =========                 |                                                 |
| \\      /  F ield         | OpenFOAM: The Open Source CFD Toolbox           |
|  \\    /   O peration     | Version:  2412                                  |
|   \\  /    A nd           | Website:  www.openfoam.com                      |
|    \\/     M anipulation  |                                                 |
\*---------------------------------------------------------------------------*/
FoamFile
{
    version     2.0;
    format      ascii;
    arch        "LSB;label=32;scalar=64";
    class       volVectorField;
    location    "4";
    object      U;
}
// * * * * * * * * * * * * * * * * * * * * * * * * * * * * * * * * * * * * * //

dimensions      [0 1 -1 0 0 0 0];

internalField   nonuniform List<vector> 
6400
(
(0.000339519 -0.000688921 0)
(0.00239699 -0.00115254 0)
(0.00467258 -0.000927292 0)
(0.00611875 -0.000727419 0)
(0.00742378 -0.000568294 0)
(0.0083337 -0.000372591 0)
(0.0088386 -0.000141779 0)
(0.00887924 0.000114279 0)
(0.00837924 0.00038689 0)
(0.00732466 0.000680861 0)
(0.00568702 0.000965003 0)
(0.00354695 0.00122165 0)
(0.000957654 0.00144484 0)
(-0.00208924 0.00166156 0)
(-0.00552921 0.00183244 0)
(-0.00926115 0.00196954 0)
(-0.0131603 0.00203935 0)
(-0.0171312 0.00204643 0)
(-0.0210562 0.00200206 0)
(-0.0248448 0.00189627 0)
(-0.0283739 0.00174801 0)
(-0.0315596 0.00155724 0)
(-0.0343306 0.0013355 0)
(-0.0366161 0.00110176 0)
(-0.0383878 0.000860426 0)
(-0.039638 0.000612341 0)
(-0.0403425 0.000356918 0)
(-0.0404582 7.91279e-05 0)
(-0.0399799 -0.000230165 0)
(-0.0389373 -0.000544429 0)
(-0.0373324 -0.000842715 0)
(-0.0352056 -0.00110149 0)
(-0.0326602 -0.00130604 0)
(-0.0297346 -0.00152232 0)
(-0.0264085 -0.00179006 0)
(-0.0226759 -0.0020929 0)
(-0.018549 -0.00241679 0)
(-0.0140739 -0.00270432 0)
(-0.00933371 -0.00292649 0)
(-0.00438836 -0.00304876 0)
(0.000622899 -0.00306192 0)
(0.00555904 -0.00295413 0)
(0.010295 -0.00273879 0)
(0.0147129 -0.00243763 0)
(0.0187614 -0.00209382 0)
(0.0223722 -0.00174916 0)
(0.0255216 -0.00142693 0)
(0.0282354 -0.00116577 0)
(0.0305442 -0.00095345 0)
(0.0324739 -0.000740403 0)
(0.0339638 -0.000487866 0)
(0.0349492 -0.000200243 0)
(0.0354326 8.1612e-05 0)
(0.035383 0.000335632 0)
(0.0348409 0.000548057 0)
(0.0338435 0.000732508 0)
(0.0323933 0.000922055 0)
(0.0305112 0.00112237 0)
(0.0282393 0.00130601 0)
(0.0256034 0.00146268 0)
(0.0226699 0.00158666 0)
(0.0195394 0.001667 0)
(0.0162866 0.00170587 0)
(0.0130201 0.0016806 0)
(0.00979953 0.00161199 0)
(0.00672654 0.00149721 0)
(0.00392039 0.0013465 0)
(0.00143723 0.00117333 0)
(-0.000703509 0.000990934 0)
(-0.0024478 0.000792834 0)
(-0.0037915 0.00058657 0)
(-0.00473714 0.000354316 0)
(-0.00524298 0.000150405 0)
(-0.00535464 -3.78368e-05 0)
(-0.00513052 -0.000198089 0)
(-0.00461793 -0.000340413 0)
(-0.00382964 -0.000449935 0)
(-0.00298631 -0.000587319 0)
(-0.0014314 -0.000784977 0)
(-6.90284e-05 -0.000380463 0)
(0.000328999 -0.00203245 0)
(0.00243675 -0.0034176 0)
(0.00475406 -0.00272765 0)
(0.00623156 -0.00217341 0)
(0.00757665 -0.00167968 0)
(0.0085505 -0.00111479 0)
(0.0090986 -0.000427945 0)
(0.00917072 0.000317092 0)
(0.00873447 0.00113405 0)
(0.00775955 0.00197052 0)
(0.00620663 0.0028036 0)
(0.00413049 0.00359893 0)
(0.00155083 0.00429149 0)
(-0.00151272 0.0049164 0)
(-0.00497201 0.00539896 0)
(-0.0087349 0.00577691 0)
(-0.0126734 0.00595849 0)
(-0.0166679 0.00598033 0)
(-0.0206091 0.00583589 0)
(-0.024389 0.00551598 0)
(-0.0278814 0.00505333 0)
(-0.0309992 0.00445778 0)
(-0.0336476 0.00375625 0)
(-0.0357483 0.00297332 0)
(-0.0372621 0.00213145 0)
(-0.0381322 0.00127251 0)
(-0.0383359 0.000403076 0)
(-0.0379278 -0.00047181 0)
(-0.0369657 -0.00132998 0)
(-0.0354691 -0.00215759 0)
(-0.0335126 -0.00293275 0)
(-0.0311273 -0.00361616 0)
(-0.0283291 -0.00421083 0)
(-0.0251889 -0.00475572 0)
(-0.0217754 -0.00527057 0)
(-0.0182089 -0.00575731 0)
(-0.0145578 -0.0061823 0)
(-0.0108681 -0.0065257 0)
(-0.00721345 -0.00677331 0)
(-0.00357191 -0.00689374 0)
(2.48375e-05 -0.00687567 0)
(0.00358139 -0.00671021 0)
(0.0071063 -0.00642404 0)
(0.0105773 -0.00602449 0)
(0.0139964 -0.00554436 0)
(0.0173224 -0.00501338 0)
(0.0204984 -0.00445219 0)
(0.0234688 -0.00388832 0)
(0.0261288 -0.00332042 0)
(0.0283916 -0.00270897 0)
(0.0302485 -0.002032 0)
(0.031703 -0.00129876 0)
(0.0327068 -0.000544384 0)
(0.0332229 0.000210602 0)
(0.0332127 0.000965697 0)
(0.0326299 0.00168289 0)
(0.031495 0.00238827 0)
(0.0298396 0.00305828 0)
(0.0277117 0.00365979 0)
(0.0251764 0.00416452 0)
(0.0223115 0.00455825 0)
(0.0192277 0.00482313 0)
(0.0159863 0.00493408 0)
(0.0127108 0.00490292 0)
(0.00948296 0.00472749 0)
(0.0063905 0.00443185 0)
(0.00355335 0.00401344 0)
(0.00103688 0.00351134 0)
(-0.00109991 0.00294302 0)
(-0.00279517 0.00233219 0)
(-0.00408139 0.00169661 0)
(-0.00497204 0.00104542 0)
(-0.00542699 0.000446456 0)
(-0.00551068 -0.000107508 0)
(-0.00525846 -0.000586327 0)
(-0.00471052 -0.000990168 0)
(-0.00388898 -0.00132705 0)
(-0.00302238 -0.00173901 0)
(-0.00142608 -0.00233239 0)
(-3.16245e-05 -0.00109174 0)
(0.000360746 -0.00345482 0)
(0.00268362 -0.00582348 0)
(0.00525578 -0.00465268 0)
(0.00690904 -0.00374127 0)
(0.00840349 -0.00290943 0)
(0.00951989 -0.00194396 0)
(0.010195 -0.000811945 0)
(0.0103598 0.000463586 0)
(0.00996862 0.00183488 0)
(0.00896926 0.00323584 0)
(0.00734525 0.00464877 0)
(0.00514067 0.00601238 0)
(0.00241136 0.00721814 0)
(-0.000828184 0.00827949 0)
(-0.00447873 0.00910578 0)
(-0.0084743 0.00972655 0)
(-0.0126636 0.0100372 0)
(-0.0169031 0.0100684 0)
(-0.021102 0.00980562 0)
(-0.0251263 0.00925836 0)
(-0.028852 0.0084549 0)
(-0.0321839 0.00742256 0)
(-0.0350318 0.0062012 0)
(-0.0373252 0.00483039 0)
(-0.0390027 0.00334643 0)
(-0.0400369 0.00181941 0)
(-0.0404277 0.000283373 0)
(-0.0401679 -0.00121908 0)
(-0.0392976 -0.00264456 0)
(-0.0378692 -0.00398093 0)
(-0.0359052 -0.00520565 0)
(-0.0334514 -0.00631139 0)
(-0.0305658 -0.00730834 0)
(-0.0272976 -0.00817675 0)
(-0.0237175 -0.0088794 0)
(-0.0199109 -0.0094545 0)
(-0.0159427 -0.0098813 0)
(-0.0118929 -0.0101837 0)
(-0.00781591 -0.0103664 0)
(-0.00372335 -0.0104267 0)
(0.000332251 -0.0103563 0)
(0.00433086 -0.0101645 0)
(0.00827151 -0.00987372 0)
(0.0121262 -0.00947695 0)
(0.0158627 -0.00897908 0)
(0.0194244 -0.00837198 0)
(0.0227611 -0.00765583 0)
(0.0258173 -0.00682528 0)
(0.0285174 -0.00589236 0)
(0.0308058 -0.00487373 0)
(0.0326411 -0.00378042 0)
(0.034004 -0.00260731 0)
(0.0348747 -0.00136546 0)
(0.0352291 -6.96244e-05 0)
(0.035021 0.00125321 0)
(0.0342413 0.00257033 0)
(0.0329241 0.00383829 0)
(0.0310777 0.00500927 0)
(0.0287542 0.00606808 0)
(0.0260108 0.00695278 0)
(0.0229359 0.00763607 0)
(0.0196164 0.00809021 0)
(0.0161424 0.0082855 0)
(0.0126448 0.00825624 0)
(0.00920619 0.0079726 0)
(0.00592884 0.0074724 0)
(0.00293154 0.00676621 0)
(0.000292218 0.00591028 0)
(-0.00194248 0.00492389 0)
(-0.00370971 0.00388064 0)
(-0.00504292 0.00276936 0)
(-0.00592984 0.00169085 0)
(-0.00634008 0.000677291 0)
(-0.00633676 -0.00025049 0)
(-0.00597089 -0.00104727 0)
(-0.00531842 -0.0017226 0)
(-0.00437861 -0.0022799 0)
(-0.00337384 -0.00299397 0)
(-0.00158224 -0.00398401 0)
(-4.12576e-05 -0.00183069 0)
(0.000345401 -0.00503927 0)
(0.00294308 -0.00854245 0)
(0.00587995 -0.00685391 0)
(0.00777665 -0.005504 0)
(0.0095188 -0.00433334 0)
(0.0108304 -0.00296209 0)
(0.0116894 -0.00133293 0)
(0.0120037 0.000514401 0)
(0.0116826 0.00250136 0)
(0.0107208 0.00455286 0)
(0.00906819 0.0066119 0)
(0.00673681 0.00858432 0)
(0.00383348 0.0103627 0)
(0.000373074 0.0119072 0)
(-0.00355995 0.013124 0)
(-0.00788087 0.0140184 0)
(-0.0124347 0.01449 0)
(-0.0170483 0.0145311 0)
(-0.0216126 0.0141514 0)
(-0.025981 0.0133574 0)
(-0.030021 0.0121895 0)
(-0.0336211 0.010686 0)
(-0.0366848 0.00891388 0)
(-0.0391442 0.00692981 0)
(-0.0409395 0.00481542 0)
(-0.042043 0.00262849 0)
(-0.0424622 0.000436913 0)
(-0.0422048 -0.00170883 0)
(-0.0413081 -0.00375856 0)
(-0.0398051 -0.00567477 0)
(-0.0377454 -0.00742384 0)
(-0.0351922 -0.00900891 0)
(-0.0322136 -0.0104248 0)
(-0.0288572 -0.0116432 0)
(-0.0251878 -0.0126519 0)
(-0.0212701 -0.0134815 0)
(-0.0171211 -0.0141185 0)
(-0.0128082 -0.0145789 0)
(-0.00838556 -0.0148518 0)
(-0.00389606 -0.0149473 0)
(0.000587713 -0.0148472 0)
(0.00500018 -0.014564 0)
(0.00929527 -0.0141242 0)
(0.01342 -0.0135245 0)
(0.0173404 -0.0127812 0)
(0.0210109 -0.0119008 0)
(0.0243933 -0.0108674 0)
(0.0274694 -0.00968384 0)
(0.0301918 -0.00836055 0)
(0.0325145 -0.00690948 0)
(0.0343998 -0.00534161 0)
(0.0358031 -0.00365782 0)
(0.0366844 -0.00186378 0)
(0.036998 -1.19712e-05 0)
(0.0367363 0.00186098 0)
(0.0358922 0.00373454 0)
(0.0344596 0.00554618 0)
(0.0324726 0.00724666 0)
(0.029962 0.00876146 0)
(0.0269783 0.0100512 0)
(0.0236289 0.0110384 0)
(0.0200113 0.0116861 0)
(0.0162339 0.01198 0)
(0.0124247 0.0119249 0)
(0.00868213 0.011508 0)
(0.00513991 0.0107447 0)
(0.00193151 0.00971466 0)
(-0.000873245 0.0084525 0)
(-0.00321181 0.00700985 0)
(-0.00505265 0.00547358 0)
(-0.00640699 0.00385258 0)
(-0.00723349 0.00230101 0)
(-0.00755061 0.000815366 0)
(-0.00740991 -0.000505357 0)
(-0.00690282 -0.00166246 0)
(-0.00608899 -0.00260521 0)
(-0.00497857 -0.0034144 0)
(-0.00382466 -0.00444042 0)
(-0.00175096 -0.00585843 0)
(-7.48571e-06 -0.00268444 0)
(0.000314015 -0.00674976 0)
(0.00328907 -0.011635 0)
(0.00673653 -0.00938499 0)
(0.00895683 -0.0075453 0)
(0.0109908 -0.00599206 0)
(0.0126128 -0.0041926 0)
(0.0137455 -0.00202266 0)
(0.0142622 0.000415538 0)
(0.0140753 0.00310031 0)
(0.0131469 0.00587522 0)
(0.0114517 0.00865071 0)
(0.00897407 0.0113075 0)
(0.0058143 0.0137389 0)
(0.00202371 0.0158129 0)
(-0.00228926 0.0174845 0)
(-0.00704181 0.0186862 0)
(-0.0120837 0.0193255 0)
(-0.0171885 0.0193927 0)
(-0.0222357 0.0188809 0)
(-0.0270637 0.0178039 0)
(-0.0315149 0.0162222 0)
(-0.0354623 0.0141937 0)
(-0.038808 0.0118024 0)
(-0.0414656 0.0091419 0)
(-0.0433684 0.00630372 0)
(-0.0445081 0.00338123 0)
(-0.0448962 0.000463097 0)
(-0.0445474 -0.00237206 0)
(-0.0435097 -0.00505983 0)
(-0.0418354 -0.00756587 0)
(-0.039577 -0.00985026 0)
(-0.0368177 -0.0118968 0)
(-0.0336285 -0.0136993 0)
(-0.0300675 -0.0152452 0)
(-0.0262103 -0.0165483 0)
(-0.0220983 -0.0176134 0)
(-0.0177545 -0.0184423 0)
(-0.0132431 -0.0190393 0)
(-0.00860662 -0.0194003 0)
(-0.0039045 -0.019515 0)
(0.000808569 -0.0193915 0)
(0.00542739 -0.0190076 0)
(0.00991567 -0.0184209 0)
(0.0142233 -0.0176235 0)
(0.0182964 -0.01665 0)
(0.0221064 -0.0154992 0)
(0.0256338 -0.0141709 0)
(0.028843 -0.0126615 0)
(0.031699 -0.0109679 0)
(0.0341638 -0.00910287 0)
(0.0361872 -0.00706791 0)
(0.0377281 -0.00487662 0)
(0.0387113 -0.00254645 0)
(0.0390922 -0.000110539 0)
(0.0388607 0.00239561 0)
(0.0379744 0.00490165 0)
(0.0364425 0.00733729 0)
(0.0342716 0.00962051 0)
(0.0315215 0.0116612 0)
(0.028245 0.0133907 0)
(0.02453 0.0147301 0)
(0.0205149 0.0156131 0)
(0.0163241 0.0160124 0)
(0.0120997 0.0159179 0)
(0.00794444 0.0153337 0)
(0.00405063 0.0142996 0)
(0.000550793 0.0128873 0)
(-0.00249948 0.0111551 0)
(-0.00499739 0.00920452 0)
(-0.00693075 0.00708679 0)
(-0.00827651 0.00491109 0)
(-0.00902971 0.00281156 0)
(-0.00920946 0.000823289 0)
(-0.00888531 -0.000926162 0)
(-0.0081676 -0.002455 0)
(-0.00712479 -0.00364976 0)
(-0.0057878 -0.00472022 0)
(-0.00440564 -0.0061007 0)
(-0.0019882 -0.00802752 0)
(2.45336e-05 -0.00358469 0)
(0.000264796 -0.00861818 0)
(0.00371262 -0.0152454 0)
(0.00779888 -0.0123612 0)
(0.0104501 -0.00996234 0)
(0.0129116 -0.00801313 0)
(0.0149268 -0.00576613 0)
(0.0163951 -0.00303908 0)
(0.0172125 0.00011888 0)
(0.017233 0.00356592 0)
(0.0163585 0.00718703 0)
(0.0145938 0.0107947 0)
(0.0119313 0.014258 0)
(0.00844181 0.0174333 0)
(0.00422931 0.020132 0)
(-0.000588797 0.0223328 0)
(-0.00593928 0.0238936 0)
(-0.0116127 0.0247433 0)
(-0.0173696 0.0248361 0)
(-0.0230648 0.0241678 0)
(-0.0285003 0.022759 0)
(-0.0334895 0.0207014 0)
(-0.0378915 0.0180647 0)
(-0.0415811 0.0149578 0)
(-0.0444828 0.0115337 0)
(-0.0465363 0.00789464 0)
(-0.0477148 0.00415255 0)
(-0.0480437 0.000437672 0)
(-0.0475543 -0.00314931 0)
(-0.0463143 -0.00653665 0)
(-0.0443893 -0.00966807 0)
(-0.0418614 -0.0125084 0)
(-0.0388204 -0.0150305 0)
(-0.035339 -0.0172298 0)
(-0.0314973 -0.0191026 0)
(-0.0273657 -0.0206877 0)
(-0.0229934 -0.0219828 0)
(-0.0184032 -0.0229997 0)
(-0.01365 -0.0237304 0)
(-0.0087769 -0.0241893 0)
(-0.00385272 -0.0243287 0)
(0.00108004 -0.0241708 0)
(0.00591257 -0.0236663 0)
(0.0105951 -0.0229239 0)
(0.0150903 -0.0219055 0)
(0.0193583 -0.0206966 0)
(0.0233661 -0.0192733 0)
(0.0270828 -0.0176439 0)
(0.0304931 -0.0158072 0)
(0.0335525 -0.0137439 0)
(0.036219 -0.011457 0)
(0.0384442 -0.00894557 0)
(0.040164 -0.00621734 0)
(0.0413083 -0.00330389 0)
(0.0418069 -0.000214435 0)
(0.0416158 0.0029662 0)
(0.0406915 0.00616574 0)
(0.039026 0.00929251 0)
(0.0366426 0.0122302 0)
(0.0335852 0.0148843 0)
(0.0299138 0.0171171 0)
(0.025731 0.0188759 0)
(0.0211809 0.0200281 0)
(0.0164267 0.02055 0)
(0.0116365 0.0204 0)
(0.00695839 0.0196107 0)
(0.00259201 0.0182461 0)
(-0.00131737 0.0163738 0)
(-0.00466379 0.014093 0)
(-0.00737729 0.0115236 0)
(-0.00942964 0.00874328 0)
(-0.0107609 0.00592701 0)
(-0.0113959 0.00317344 0)
(-0.0113636 0.000636452 0)
(-0.0107807 -0.00160424 0)
(-0.00975492 -0.00348499 0)
(-0.00840892 -0.00498016 0)
(-0.00681928 -0.00627045 0)
(-0.00517669 -0.00808739 0)
(-0.00226423 -0.0105776 0)
(0.000113157 -0.0046156 0)
(0.000157311 -0.0107672 0)
(0.00422668 -0.0194766 0)
(0.00911002 -0.0159234 0)
(0.0122474 -0.0128636 0)
(0.0152171 -0.010476 0)
(0.017763 -0.00777986 0)
(0.0197632 -0.00443157 0)
(0.0209741 -0.000463427 0)
(0.0212547 0.00389169 0)
(0.0204979 0.00849472 0)
(0.018653 0.0130954 0)
(0.0157451 0.0174915 0)
(0.0118246 0.0215318 0)
(0.00707424 0.0250078 0)
(0.00160902 0.0278102 0)
(-0.00449729 0.0297955 0)
(-0.0109887 0.0308985 0)
(-0.0175962 0.0310206 0)
(-0.0241352 0.0301792 0)
(-0.0303471 0.0283751 0)
(-0.036018 0.0257532 0)
(-0.0410053 0.0223848 0)
(-0.0451321 0.0184609 0)
(-0.0483164 0.0141282 0)
(-0.0505357 0.0095616 0)
(-0.0517444 0.00489544 0)
(-0.0519678 0.000282693 0)
(-0.0512855 -0.00414021 0)
(-0.0497753 -0.00828898 0)
(-0.0475261 -0.0120872 0)
(-0.0446416 -0.015493 0)
(-0.0412361 -0.0184863 0)
(-0.0373946 -0.0210751 0)
(-0.033213 -0.0232711 0)
(-0.0287641 -0.0251185 0)
(-0.0240761 -0.0266341 0)
(-0.0191889 -0.0278244 0)
(-0.014152 -0.0286895 0)
(-0.0089922 -0.0292348 0)
(-0.00377449 -0.0293857 0)
(0.00144419 -0.0291821 0)
(0.00653767 -0.0285489 0)
(0.0114698 -0.0276409 0)
(0.0161953 -0.0264175 0)
(0.0206761 -0.024964 0)
(0.0249093 -0.0232653 0)
(0.028846 -0.0213348 0)
(0.0324799 -0.0191777 0)
(0.0357805 -0.0167575 0)
(0.0387027 -0.0140532 0)
(0.0411882 -0.0110566 0)
(0.0431555 -0.00777616 0)
(0.044521 -0.00422479 0)
(0.0451804 -0.0004274 0)
(0.04506 0.00350839 0)
(0.0441132 0.00749778 0)
(0.0423149 0.0114263 0)
(0.0396748 0.0151485 0)
(0.0362261 0.0185105 0)
(0.0320612 0.0213669 0)
(0.0272727 0.0236012 0)
(0.0220263 0.0250786 0)
(0.016543 0.0257272 0)
(0.0110149 0.025521 0)
(0.00564929 0.024475 0)
(0.000675646 0.0226924 0)
(-0.00374136 0.0202686 0)
(-0.00748656 0.0173411 0)
(-0.0104748 0.0140116 0)
(-0.0126407 0.0104526 0)
(-0.0139512 0.0068431 0)
(-0.0144158 0.00334901 0)
(-0.01409 0.000165327 0)
(-0.013133 -0.00263152 0)
(-0.0117048 -0.004874 0)
(-0.00995964 -0.00660724 0)
(-0.00802337 -0.00813511 0)
(-0.00611099 -0.0104678 0)
(-0.00264693 -0.0135475 0)
(0.000197454 -0.0058078 0)
(0.000150381 -0.0132342 0)
(0.00496638 -0.0243702 0)
(0.0106247 -0.0200867 0)
(0.0143506 -0.0162991 0)
(0.0179754 -0.0135355 0)
(0.0212006 -0.0103968 0)
(0.0238871 -0.00637077 0)
(0.0256745 -0.00147302 0)
(0.0263322 0.00401139 0)
(0.0257245 0.00978552 0)
(0.0237718 0.0155661 0)
(0.0205425 0.0211084 0)
(0.0161326 0.0261723 0)
(0.0107005 0.0305771 0)
(0.00439031 0.0340964 0)
(-0.00266058 0.0366051 0)
(-0.010185 0.0380007 0)
(-0.0178634 0.0381549 0)
(-0.0254766 0.0371017 0)
(-0.0326813 0.0348403 0)
(-0.0392179 0.0315189 0)
(-0.044909 0.0272872 0)
(-0.04956 0.022378 0)
(-0.0530999 0.016974 0)
(-0.055484 0.0113114 0)
(-0.0566977 0.00557834 0)
(-0.0567677 -5.72574e-05 0)
(-0.0558022 -0.00541573 0)
(-0.0539201 -0.0103936 0)
(-0.0512327 -0.01491 0)
(-0.0478848 -0.0189003 0)
(-0.0440213 -0.022363 0)
(-0.0397477 -0.02531 0)
(-0.0351656 -0.027802 0)
(-0.0303449 -0.0298856 0)
(-0.0253123 -0.031603 0)
(-0.020099 -0.0329687 0)
(-0.0147253 -0.0339659 0)
(-0.00921436 -0.0346001 0)
(-0.00365416 -0.0347591 0)
(0.00190389 -0.0345027 0)
(0.00732121 -0.033709 0)
(0.0125329 -0.0325972 0)
(0.0175142 -0.031153 0)
(0.0222361 -0.0294369 0)
(0.0267132 -0.0274814 0)
(0.0308815 -0.0252729 0)
(0.0347629 -0.0228042 0)
(0.0383534 -0.0200394 0)
(0.0415956 -0.0169364 0)
(0.0444119 -0.0134676 0)
(0.0467078 -0.00960903 0)
(0.0483873 -0.00537659 0)
(0.0492846 -0.000805721 0)
(0.0492898 0.0039892 0)
(0.0483566 0.00890173 0)
(0.0464279 0.0137791 0)
(0.0434852 0.0184212 0)
(0.039566 0.0226417 0)
(0.0347686 0.0262596 0)
(0.0292143 0.0290667 0)
(0.0230903 0.0309508 0)
(0.0166698 0.0317457 0)
(0.0101951 0.0314584 0)
(0.00394154 0.0300814 0)
(-0.00179971 0.0277949 0)
(-0.00684916 0.0246847 0)
(-0.0110922 0.0209507 0)
(-0.0144229 0.0167004 0)
(-0.0167422 0.0122141 0)
(-0.0180041 0.00763047 0)
(-0.0182054 0.00324204 0)
(-0.0174807 -0.000728807 0)
(-0.0159833 -0.00413482 0)
(-0.013939 -0.0067355 0)
(-0.0116941 -0.00858746 0)
(-0.00939508 -0.0102391 0)
(-0.00721249 -0.0131754 0)
(-0.00321324 -0.0170169 0)
(0.000228738 -0.00721057 0)
(0.000402103 -0.0161931 0)
(0.00576279 -0.0300123 0)
(0.0121523 -0.0249317 0)
(0.0165423 -0.0202733 0)
(0.0210086 -0.017326 0)
(0.0252313 -0.0138505 0)
(0.028916 -0.00910749 0)
(0.0315388 -0.00307088 0)
(0.0327091 0.00380696 0)
(0.0322683 0.0110409 0)
(0.0302007 0.0182822 0)
(0.0265727 0.0252126 0)
(0.0215207 0.0315055 0)
(0.0152432 0.0369953 0)
(0.00788668 0.0413727 0)
(-0.000333977 0.044541 0)
(-0.00916747 0.0463256 0)
(-0.018193 0.0465265 0)
(-0.0271279 0.0451848 0)
(-0.035589 0.0423584 0)
(-0.0432142 0.0381882 0)
(-0.0497732 0.0328977 0)
(-0.0550637 0.0267741 0)
(-0.0589965 0.0200948 0)
(-0.0615393 0.0131457 0)
(-0.062704 0.006165 0)
(-0.0625332 -0.00063099 0)
(-0.0611703 -0.00706016 0)
(-0.0587874 -0.0129649 0)
(-0.0555313 -0.0182255 0)
(-0.0515856 -0.0228037 0)
(-0.047135 -0.0267106 0)
(-0.0423276 -0.0299864 0)
(-0.0372821 -0.0327518 0)
(-0.0320517 -0.0350331 0)
(-0.026656 -0.0369285 0)
(-0.021083 -0.0384533 0)
(-0.0153444 -0.0395919 0)
(-0.00944321 -0.0403253 0)
(-0.00348297 -0.0404884 0)
(0.00248399 -0.0401727 0)
(0.00827942 -0.0391951 0)
(0.0137973 -0.0378459 0)
(0.0190595 -0.0361394 0)
(0.0240062 -0.0341538 0)
(0.0287009 -0.0319411 0)
(0.0331276 -0.0294739 0)
(0.0372984 -0.026727 0)
(0.0412181 -0.0236481 0)
(0.0448397 -0.0201797 0)
(0.0480916 -0.0162573 0)
(0.0508407 -0.011808 0)
(0.0529403 -0.00684069 0)
(0.0541868 -0.00141836 0)
(0.0544291 0.00436683 0)
(0.0535778 0.0103559 0)
(0.051517 0.0163408 0)
(0.0482265 0.0220977 0)
(0.0437526 0.0273855 0)
(0.0381739 0.0319409 0)
(0.0316629 0.0355 0)
(0.0244267 0.0378466 0)
(0.0167938 0.0388513 0)
(0.00910965 0.0384406 0)
(0.00174968 0.036647 0)
(-0.00494688 0.033688 0)
(-0.0107983 0.0297293 0)
(-0.0156719 0.0249622 0)
(-0.0194009 0.0196435 0)
(-0.0218953 0.0139813 0)
(-0.0230984 0.00825713 0)
(-0.0229455 0.00274755 0)
(-0.0216352 -0.00225741 0)
(-0.0193453 -0.00633003 0)
(-0.0164253 -0.00924938 0)
(-0.0134235 -0.0110554 0)
(-0.0107502 -0.0125297 0)
(-0.00849944 -0.0161687 0)
(-0.00412008 -0.0211304 0)
(-2.92325e-05 -0.00909383 0)
(0.00103897 -0.0199973 0)
(0.00577601 -0.036137 0)
(0.0120956 -0.0305986 0)
(0.0180263 -0.0247203 0)
(0.0240342 -0.0221875 0)
(0.029854 -0.0186276 0)
(0.0350004 -0.0130287 0)
(0.0388199 -0.00552347 0)
(0.0406801 0.00313731 0)
(0.0404695 0.0122778 0)
(0.0382244 0.0213442 0)
(0.0340441 0.0299082 0)
(0.0282021 0.0376773 0)
(0.0208917 0.0444314 0)
(0.0122716 0.049903 0)
(0.00263575 0.0538951 0)
(-0.00782943 0.0561557 0)
(-0.0185952 0.0564695 0)
(-0.029205 0.0547639 0)
(-0.0392103 0.0512083 0)
(-0.0481891 0.0459487 0)
(-0.0558128 0.0393333 0)
(-0.0618418 0.0317225 0)
(-0.0662017 0.0234874 0)
(-0.0688788 0.0149924 0)
(-0.0699106 0.00653208 0)
(-0.0693947 -0.00162911 0)
(-0.0675031 -0.00929183 0)
(-0.0644212 -0.0162177 0)
(-0.0603892 -0.0222775 0)
(-0.0556695 -0.0274443 0)
(-0.050491 -0.0317515 0)
(-0.0450705 -0.03526 0)
(-0.0394918 -0.038167 0)
(-0.0338 -0.0405848 0)
(-0.028032 -0.0426328 0)
(-0.0220949 -0.0443109 0)
(-0.0159856 -0.045616 0)
(-0.00964921 -0.0464669 0)
(-0.00322662 -0.0466364 0)
(0.00323589 -0.0462647 0)
(0.00942188 -0.0450321 0)
(0.0152576 -0.0433919 0)
(0.0207924 -0.04137 0)
(0.0259656 -0.0391068 0)
(0.0308734 -0.0366294 0)
(0.0355344 -0.0339183 0)
(0.0399992 -0.0309788 0)
(0.0442983 -0.0277103 0)
(0.048382 -0.0239529 0)
(0.0521908 -0.019602 0)
(0.0555565 -0.0145747 0)
(0.0582484 -0.00881649 0)
(0.060008 -0.00241417 0)
(0.0606158 0.00453564 0)
(0.0599045 0.0118045 0)
(0.0577492 0.0191424 0)
(0.0541072 0.0262716 0)
(0.0489835 0.032866 0)
(0.0424648 0.0386012 0)
(0.034722 0.0431234 0)
(0.0260747 0.0461022 0)
(0.0169246 0.0473285 0)
(0.00767449 0.0467387 0)
(-0.00110201 0.0444093 0)
(-0.00898068 0.0405678 0)
(-0.0158177 0.0355409 0)
(-0.0214097 0.0295555 0)
(-0.0256243 0.0229365 0)
(-0.0283398 0.0158438 0)
(-0.02944 0.00863974 0)
(-0.028907 0.00164912 0)
(-0.026748 -0.00463939 0)
(-0.0232462 -0.00962119 0)
(-0.0190343 -0.0128071 0)
(-0.0148102 -0.0143155 0)
(-0.0115333 -0.0148288 0)
(-0.0091386 -0.0194115 0)
(-0.00469185 -0.0257118 0)
(-0.000674331 -0.011936 0)
(0.00331858 -0.0245652 0)
(0.00983914 -0.0410567 0)
(0.0103096 -0.0366853 0)
(0.0154838 -0.0295753 0)
(0.0249655 -0.0285733 0)
(0.0349389 -0.0250743 0)
(0.0426745 -0.0182395 0)
(0.048088 -0.00860528 0)
(0.0508332 0.00236252 0)
(0.0508144 0.0136869 0)
(0.0481942 0.0248429 0)
(0.0432878 0.0353551 0)
(0.0364767 0.0448486 0)
(0.0279681 0.0531018 0)
(0.0178835 0.0599232 0)
(0.00646204 0.0649763 0)
(-0.00601474 0.0678658 0)
(-0.0189652 0.0683179 0)
(-0.031736 0.0662401 0)
(-0.0437196 0.0617371 0)
(-0.0543771 0.0550701 0)
(-0.0632655 0.046759 0)
(-0.0701619 0.0372907 0)
(-0.0749782 0.0271727 0)
(-0.0777387 0.0168249 0)
(-0.0785325 0.00661034 0)
(-0.0775167 -0.00315182 0)
(-0.0748713 -0.0121844 0)
(-0.0708529 -0.0202156 0)
(-0.0658146 -0.0271012 0)
(-0.060089 -0.0328181 0)
(-0.0539592 -0.0374253 0)
(-0.0477346 -0.0410961 0)
(-0.0415786 -0.0440469 0)
(-0.0354717 -0.0465094 0)
(-0.0293511 -0.0486645 0)
(-0.0230767 -0.0505287 0)
(-0.0166231 -0.0520453 0)
(-0.00986038 -0.0530477 0)
(-0.00289143 -0.0533091 0)
(0.00439876 -0.052823 0)
(0.0109957 -0.0511803 0)
(0.0169915 -0.0491986 0)
(0.0226856 -0.0468218 0)
(0.0280274 -0.0442397 0)
(0.0331206 -0.041493 0)
(0.0379675 -0.0385868 0)
(0.0426705 -0.0354726 0)
(0.0473971 -0.032037 0)
(0.0521028 -0.0281088 0)
(0.0566389 -0.023497 0)
(0.0608233 -0.017979 0)
(0.0643493 -0.0114191 0)
(0.0668494 -0.00391888 0)
(0.0680038 0.00437904 0)
(0.0675604 0.0131985 0)
(0.0653561 0.0221927 0)
(0.0613149 0.0309972 0)
(0.055445 0.0392236 0)
(0.0478061 0.0464824 0)
(0.0385607 0.0522426 0)
(0.0280676 0.0560345 0)
(0.0169051 0.0575614 0)
(0.00570154 0.0566892 0)
(-0.00487111 0.0536402 0)
(-0.014225 0.0486454 0)
(-0.0221824 0.042273 0)
(-0.0285996 0.0348676 0)
(-0.0333902 0.0266272 0)
(-0.0364377 0.0177805 0)
(-0.0375237 0.00879137 0)
(-0.0364458 2.34258e-05 0)
(-0.0331716 -0.00799948 0)
(-0.0280055 -0.0142128 0)
(-0.0216457 -0.0175743 0)
(-0.0142072 -0.0181783 0)
(-0.00866095 -0.0160835 0)
(-0.00730516 -0.022078 0)
(-0.00703841 -0.030136 0)
(-0.0025349 -0.0156587 0)
(0.0106194 -0.0358414 0)
(0.0371361 -0.0423716 0)
(0.0272712 -0.0365224 0)
(0.0136817 -0.0355404 0)
(0.0214828 -0.0426783 0)
(0.0390062 -0.0372862 0)
(0.0523149 -0.0273306 0)
(0.0600562 -0.0145269 0)
(0.0633862 2.64286e-05 0)
(0.0633996 0.01483 0)
(0.0604115 0.0288673 0)
(0.0546641 0.0416701 0)
(0.0466234 0.0531427 0)
(0.0366244 0.063183 0)
(0.024773 0.0716601 0)
(0.0112258 0.078148 0)
(-0.00373409 0.0819903 0)
(-0.0193402 0.0826631 0)
(-0.0348166 0.080123 0)
(-0.0493611 0.0744014 0)
(-0.0621211 0.0659099 0)
(-0.0725183 0.0553751 0)
(-0.0803274 0.043555 0)
(-0.0855591 0.03112 0)
(-0.0883278 0.0185308 0)
(-0.088738 0.00618047 0)
(-0.0869806 -0.00550732 0)
(-0.0832943 -0.0161643 0)
(-0.0780229 -0.0254945 0)
(-0.0716284 -0.0332924 0)
(-0.0645669 -0.0395295 0)
(-0.0572777 -0.0442862 0)
(-0.0501446 -0.0478604 0)
(-0.0433181 -0.0506029 0)
(-0.0367965 -0.0528987 0)
(-0.0304648 -0.0550441 0)
(-0.0240767 -0.0570687 0)
(-0.0174459 -0.0588239 0)
(-0.0102899 -0.060114 0)
(-0.00244536 -0.0607819 0)
(0.00623503 -0.0601162 0)
(0.0133773 -0.0575423 0)
(0.0192603 -0.0550477 0)
(0.0248311 -0.0524184 0)
(0.0301351 -0.0495478 0)
(0.0352635 -0.0466137 0)
(0.0402418 -0.0436665 0)
(0.0452036 -0.0407029 0)
(0.0503192 -0.0374259 0)
(0.0556566 -0.0334723 0)
(0.061163 -0.0285852 0)
(0.0665514 -0.0225377 0)
(0.0712699 -0.0150795 0)
(0.0747971 -0.00624321 0)
(0.0767447 0.0037241 0)
(0.0767462 0.0144324 0)
(0.0745829 0.025441 0)
(0.0701984 0.0363211 0)
(0.0635674 0.0466533 0)
(0.0546065 0.0559281 0)
(0.0434151 0.0633828 0)
(0.030584 0.0682326 0)
(0.0168645 0.0701015 0)
(0.00318181 0.0688614 0)
(-0.00958547 0.0647031 0)
(-0.0207603 0.0581486 0)
(-0.0300863 0.0500457 0)
(-0.037572 0.0409089 0)
(-0.0431448 0.0307764 0)
(-0.0465106 0.0198425 0)
(-0.0474713 0.0083543 0)
(-0.0459153 -0.00318673 0)
(-0.0413976 -0.0138639 0)
(-0.0335935 -0.0223008 0)
(-0.022306 -0.0264686 0)
(-0.00714229 -0.026294 0)
(-0.000800705 -0.0159232 0)
(-0.0134729 -0.0185531 0)
(-0.028269 -0.0315678 0)
(-0.00963997 -0.0233103 0)
(0.0157405 -0.0683408 0)
(0.0938374 -0.0528032 0)
(0.108123 -0.00897317 0)
(0.0593006 -0.0222742 0)
(0.0356112 -0.0630768 0)
(0.0464978 -0.0605122 0)
(0.064285 -0.0396962 0)
(0.0761087 -0.018971 0)
(0.0807946 -0.000533201 0)
(0.0801032 0.01708 0)
(0.0755503 0.0338507 0)
(0.0678462 0.0490878 0)
(0.0577058 0.0627788 0)
(0.0456428 0.0749474 0)
(0.0317255 0.0854993 0)
(0.0157575 0.0939197 0)
(-0.00210463 0.0989764 0)
(-0.0208741 0.10007 0)
(-0.0396253 0.0969822 0)
(-0.0573332 0.0897029 0)
(-0.0726626 0.0787474 0)
(-0.0847071 0.0652788 0)
(-0.0932962 0.0504876 0)
(-0.0987168 0.0352333 0)
(-0.101318 0.0199972 0)
(-0.101192 0.00514514 0)
(-0.0984798 -0.00880927 0)
(-0.0934378 -0.021393 0)
(-0.0864696 -0.0321566 0)
(-0.0781847 -0.0408174 0)
(-0.0692207 -0.0473583 0)
(-0.0602253 -0.0519661 0)
(-0.0517885 -0.0550983 0)
(-0.0441936 -0.0573708 0)
(-0.0375038 -0.0593253 0)
(-0.0314914 -0.0613277 0)
(-0.0255429 -0.0634725 0)
(-0.0189855 -0.0656973 0)
(-0.0112405 -0.0678912 0)
(-0.00186143 -0.0696592 0)
(0.00859591 -0.068541 0)
(0.0168059 -0.0640443 0)
(0.0226756 -0.0605257 0)
(0.0278115 -0.0575808 0)
(0.0325659 -0.0545395 0)
(0.0371893 -0.0514539 0)
(0.0419254 -0.0483819 0)
(0.0470956 -0.0454534 0)
(0.0530222 -0.0424407 0)
(0.0595946 -0.0389546 0)
(0.0664953 -0.0343931 0)
(0.0734181 -0.028182 0)
(0.079754 -0.019929 0)
(0.0846884 -0.00958628 0)
(0.0876157 0.00240963 0)
(0.0882067 0.01536 0)
(0.0863003 0.0287578 0)
(0.0818511 0.0421393 0)
(0.0746794 0.0551527 0)
(0.06439 0.0671948 0)
(0.0508684 0.0769609 0)
(0.0349497 0.0832888 0)
(0.0180253 0.0855025 0)
(0.00133746 0.0836996 0)
(-0.014081 0.0780264 0)
(-0.027337 0.0693544 0)
(-0.0383138 0.0589341 0)
(-0.0474703 0.0475822 0)
(-0.0546177 0.0353777 0)
(-0.0592182 0.0222529 0)
(-0.0608841 0.00833582 0)
(-0.0590591 -0.00569771 0)
(-0.0526244 -0.0197195 0)
(-0.0397697 -0.0342896 0)
(-0.0206403 -0.0474152 0)
(-0.00525779 -0.0475136 0)
(-0.0224794 -0.0128892 0)
(-0.072867 0.00661508 0)
(-0.0870596 -0.0288569 0)
(-0.0192856 -0.052294 0)
(0.0431802 -0.128814 0)
(0.147939 -0.142553 0)
(0.223712 0.00634548 0)
(0.198857 0.0625001 0)
(0.11865 -0.0260381 0)
(0.0822454 -0.0731613 0)
(0.0873541 -0.0578284 0)
(0.0956246 -0.0295366 0)
(0.0989706 -0.00336551 0)
(0.0976194 0.0200009 0)
(0.0909683 0.0413252 0)
(0.0805097 0.0600244 0)
(0.0686179 0.0757892 0)
(0.0559447 0.0895177 0)
(0.0408234 0.102043 0)
(0.0215734 0.112597 0)
(-0.000814862 0.119218 0)
(-0.0242188 0.120938 0)
(-0.0475887 0.117408 0)
(-0.0695123 0.108161 0)
(-0.0879589 0.0937768 0)
(-0.10165 0.076206 0)
(-0.11066 0.0576369 0)
(-0.115788 0.0391239 0)
(-0.117808 0.0209158 0)
(-0.116823 0.00320079 0)
(-0.11286 -0.0135034 0)
(-0.105976 -0.0284655 0)
(-0.0966103 -0.0410592 0)
(-0.0856201 -0.0508444 0)
(-0.073958 -0.0577385 0)
(-0.0625984 -0.061971 0)
(-0.0525306 -0.0641259 0)
(-0.0443325 -0.0650698 0)
(-0.038035 -0.0657283 0)
(-0.0328995 -0.0669523 0)
(-0.0274135 -0.0694047 0)
(-0.0204408 -0.0729796 0)
(-0.0117061 -0.0771065 0)
(-0.00103485 -0.0805515 0)
(0.0103113 -0.0788162 0)
(0.0198885 -0.0715299 0)
(0.0264976 -0.0659714 0)
(0.0316799 -0.0621124 0)
(0.0358991 -0.058873 0)
(0.0395914 -0.0560595 0)
(0.0434683 -0.0538753 0)
(0.0483535 -0.0520937 0)
(0.0547185 -0.0501116 0)
(0.0624441 -0.0471873 0)
(0.0711968 -0.042732 0)
(0.0805338 -0.0361336 0)
(0.0895864 -0.026731 0)
(0.0969901 -0.0144395 0)
(0.101593 -6.17962e-05 0)
(0.103095 0.0155039 0)
(0.101584 0.0315584 0)
(0.0971567 0.0477923 0)
(0.0896762 0.0642638 0)
(0.0781961 0.0802078 0)
(0.0620081 0.0935234 0)
(0.0420505 0.101855 0)
(0.0204141 0.104319 0)
(-0.00107981 0.101599 0)
(-0.0210663 0.0939855 0)
(-0.0370293 0.0829551 0)
(-0.0480463 0.0704699 0)
(-0.0569101 0.0573158 0)
(-0.0653507 0.0427351 0)
(-0.0719972 0.0262506 0)
(-0.0748225 0.00810341 0)
(-0.0730979 -0.0114397 0)
(-0.0666493 -0.0328184 0)
(-0.053378 -0.0563657 0)
(-0.0408889 -0.0701616 0)
(-0.0701914 -0.0262088 0)
(-0.159241 0.075109 0)
(-0.206166 0.0569735 0)
(-0.143147 -0.0922734 0)
(-0.0388771 -0.109586 0)
(0.0765132 -0.26125 0)
(0.155544 -0.300143 0)
(0.247265 -0.0728811 0)
(0.270235 0.0961544 0)
(0.19293 0.0563137 0)
(0.124069 -0.0362181 0)
(0.116779 -0.0539878 0)
(0.123782 -0.0322004 0)
(0.124601 -0.00380899 0)
(0.118931 0.0247316 0)
(0.109758 0.0505131 0)
(0.0992512 0.0708778 0)
(0.0904575 0.0866357 0)
(0.0816914 0.102477 0)
(0.0675348 0.120835 0)
(0.043817 0.136801 0)
(0.0130729 0.145515 0)
(-0.0197096 0.147333 0)
(-0.0517204 0.142683 0)
(-0.0806841 0.130439 0)
(-0.10377 0.111049 0)
(-0.11979 0.0876978 0)
(-0.129842 0.064074 0)