/*--------------------------------*- C++ -*----------------------------------*\
| =========                 |                                                 |
| \\      /  F ield         | OpenFOAM: The Open Source CFD Toolbox           |
|  \\    /   O peration     | Version:  2412                                  |
|   \\  /    A nd           | Website:  www.openfoam.com                      |
|    \\/     M anipulation  |                                                 |
\*---------------------------------------------------------------------------*/
FoamFile
{
    version     2.0;
    format      ascii;
    arch        "LSB;label=32;scalar=64";
    class       volScalarField;
    location    "3.69";
    object      p;
}
// * * * * * * * * * * * * * * * * * * * * * * * * * * * * * * * * * * * * * //

dimensions      [1 -1 -2 0 0 0 0];

internalField   nonuniform List<scalar> 
80000
(
29066.6
29066.7
29066.7
29066.7
29066.8
29066.8
29066.9
29066.9
29067
29067.1
29067.2
29067.3
29067.4
29067.5
29067.7
29067.9
29068
29068.2
29068.4
29068.6
29068.9
29069.1
29069.3
29069.6
29069.9
29070.2
29070.4
29070.8
29071.1
29071.4
29071.8
29072.1
29072.5
29072.9
29073.3
29073.7
29074.1
29074.5
29075
29075.4
29075.9
29076.4
29076.9
29077.4
29077.9
29078.5
29079
29079.6
29080.2
29080.8
29081.4
29082.1
29082.7
29083.4
29084.1
29084.8
29085.5
29086.2
29087
29087.8
29088.5
29089.3
29090.2
29091
29091.9
29092.8
29093.7
29094.6
29095.5
29096.5
29097.5
29098.5
29099.5
29100.5
29101.6
29102.7
29103.8
29104.9
29106.1
29107.2
29108.4
29109.7
29110.9
29112.2
29113.5
29114.8
29116.2
29117.6
29119
29120.4
29121.8
29123.3
29124.8
29126.4
29128
29129.6
29131.2
29132.9
29134.6
29136.3
29138
29139.8
29141.7
29143.5
29145.4
29147.3
29149.3
29151.3
29153.3
29155.4
29157.5
29159.6
29161.8
29164.1
29166.3
29168.6
29171
29173.3
29175.8
29178.2
29180.8
29183.3
29185.9
29188.6
29191.3
29194
29196.8
29199.7
29202.5
29205.5
29208.5
29211.5
29214.6
29217.8
29221
29224.2
29227.5
29230.9
29234.3
29237.8
29241.3
29244.9
29248.6
29252.3
29256.1
29260
29263.9
29267.9
29271.9
29276
29280.2
29284.4
29288.8
29293.2
29297.6
29302.2
29306.8
29311.4
29316.2
29321
29326
29331
29336
29341.2
29346.4
29351.8
29357.2
29362.7
29368.2
29373.9
29379.7
29385.5
29391.5
29397.5
29403.6
29409.9
29416.2
29422.6
29429.1
29435.7
29442.4
29449.3
29456.2
29463.2
29470.3
29477.6
29484.9
29492.4
29500
29507.6
29515.4
29523.3
29531.4
29539.5
29547.8
29556.2
29564.7
29573.3
29582
29590.9
29599.9
29609
29618.3
29627.6
29637.1
29646.8
29656.6
29666.5
29676.5
29686.7
29697
29707.4
29718
29728.7
29739.6
29750.6
29761.8
29773
29784.5
29796.1
29807.8
29819.7
29831.7
29843.8
29856.1
29868.6
29881.2
29894
29906.9
29919.9
29933.1
29946.5
29960
29973.7
29987.5
30001.4
30015.5
30029.8
30044.2
30058.8
30073.5
30088.3
30103.4
30118.5
30133.8
30149.3
30164.9
30180.6
30196.5
30212.5
30228.7
30245
30261.5
30278.1
30294.8
30311.7
30328.6
30345.8
30363
30380.4
30397.9
30415.5
30433.2
30451.1
30469
30487.1
30505.3
30523.5
30541.9
30560.4
30578.9
30597.6
30616.3
30635.1
30654
30672.9
30691.9
30711
30730.1
30749.2
30768.4
30787.7
30806.9
30826.2
30845.5
30864.8
30884.2
30903.5
30922.8
30942
30961.3
30980.5
30999.7
31018.8
31037.8
31056.8
31075.7
31094.5
31113.3
31131.9
31150.4
31168.7
31186.9
31205
31222.9
31240.6
31258.2
31275.5
31292.6
31309.5
31326.2
31342.6
31358.8
31374.7
31390.3
31405.6
31420.5
31435.2
31449.5
31463.4
31476.9
31490.1
31502.8
31515.2
31527
31538.5
31549.4
31559.9
31569.8
31579.2
31588.1
31596.4
31604.1
31611.2
31617.7
31623.6
31628.8
31633.3
31637.1
31640.2
31642.6
31644.3
31645.1
31645.2
31644.4
31642.8
31640.4
31637
31632.8
31627.7
31621.6
31614.6
31606.6
31597.6
31587.7
31576.6
31564.6
31551.4
31537.2
31521.9
31505.5
31487.9
31469.2
31449.4
31428.4
31406.2
31382.8
31358.3
31332.5
31305.5
31277.4
31248
31217.4
31185.6
31152.5
31118.3
31082.9
31046.2
31008.4
30969.4
30929.3
30887.9
30845.5
30801.9
30757.2
30711.5
30664.6
30616.7
30567.8
30517.9
30467
30415.2
30362.4
30308.7
30254.2
30198.8
30142.5
30085.5
30027.8
29969.2
29910
29850.1
29789.6
29728.5
29666.8
29604.4
29541.6
29478.3
29414.6
29350.5
29286
29221.1
29155.9
29090.6
29025
28959.1
28893
28826.9
28760.6
28694.3
28628
28561.7
28495.5
28429.4
28363.5
28297.8
28232.4
28167.2
28102.5
28038.2
27974.3
27911
27848.3
27786.2
27724.8
27664.2
27604.4
27545.6
27487.6
27430.8
27375
27320.4
27267.1
27215
27164.4
27115.2
27067.6
27021.6
26977.3
26934.8
26894.1
26855.4
26818.6
26784
26751.4
26721
26693
26667.2
26643.9
26623
26604.6
26588.7
26575.5
26564.9
26557
26551.8
26549.3
26549.7
26552.8
26558.8
26567.6
26579.2
26593.7
26611.1
26631.3
26654.3
26680.1
26708.8
26740.2
26774.3
26811.1
26850.6
26892.6
26937.2
26984.2
27033.7
27085.4
27139.3
27195.4
27253.5
27313.5
27375.2
27438.7
27503.6
27570
27637.6
27706.3
27776
27846.4
27917.4
27988.9
28060.7
28132.5
28204.3
28275.8
28346.8
28417.3
28486.9
28555.5
28623
28689.2
28753.8
28816.9
28878.2
28937.5
28994.7
29049.7
29102.3
29152.5
29200
29244.9
29287
29326.4
29362.8
29396.3
29426.8
29454.2
29478.6
29499.9
29518.2
29533.3
29545.3
29554.3
29560.2
29563.1
29563
29560
29554.1
29545.5
29534.1
29520
29503.4
29484.2
29462.7
29438.8
29412.7
29384.6
29354.4
29322.4
29288.6
29253.2
29216.3
29178.1
29138.7
29098.2
29056.9
29014.8
28972
28928.9
28885.4
28841.8
28798.2
28754.8
28711.8
28669.3
28627.5
28586.5
28546.5
28507.6
28470.1
28434
28399.4
28366.7
28335.8
28306.8
28280
28255.5
28233.3
28213.6
28196.5
28181.9
28170.1
28161.1
28154.8
28151.4
28150.7
28153
28158
28165.8
28176.6
28190.2
28206.4
28225.4
28247
28271.2
28297.7
28326.5
28357.6
28390.7
28425.7
28462.5
28500.9
28540.8
28582
28624.3
28667.7
28711.8
28756.5
28801.7
28847.1
28892.6
28937.9
28983
29027.6
29071.5
29114.6
29156.6
29197.4
29236.9
29274.8
29311
29345.3
29377.7
29407.9
29435.7
29461.1
29484
29504.1
29521.4
29535.7
29547
29555.1
29560
29561.5
29559.7
29554.3
29545.4
29533
29516.9
29497.2
29473.8
29446.7
29415.9
29381.6
29343.6
29302.1
29257
29208.6
29156.9
29102
29043.9
28982.8
28919
28852.4
28783.4
28712.2
28638.9
28563.8
28487
28408.9
28329.6
28249.4
28168.5
28087.3
28005.9
27924.6
27843.8
27763.5
27684.1
27605.9
27529
27453.7
27380.3
27308.9
27239.8
27173.1
27109.1
27047.9
26989.7
26934.6
26882.7
26834.3
26789.3
26748
26710.3
26676.3
26646.2
26619.9
26597.5
26579
26564.4
26553.7
26546.9
26544
26544.9
26549.7
26558.2
26570.4
26586.3
26605.8
26628.8
26655.2
26685
26718
26754.2
26793.5
26835.8
26880.9
26928.9
26979.4
27032.6
27088.2
27146.1
27206.2
27268.4
27332.6
27398.6
27466.4
27535.8
27606.6
27678.9
27752.4
27827.1
27902.8
27979.5
28056.9
28135.1
28213.9
28293.2
28372.8
28452.8
28533.1
28613.4
28693.8
28774.2
28854.4
28934.5
29014.1
29093.5
29172.6
29251.2
29329.3
29406.8
29483.6
29559.7
29635.2
29709.8
29783.5
29856.3
29928.2
29999.1
30068.9
30137.6
30205.2
30271.6
30336.8
30400.7
30463.3
30524.6
30584.4
30642.9
30699.9
30755.4
30809.3
30861.7
30912.5
30961.6
31009
31054.8
31098.8
31141.1
31181.7
31220.4
31257.4
31292.5
31325.8
31357.3
31386.9
31414.8
31440.7
31464.9
31487.2
31507.7
31526.5
31543.4
31558.6
31572
31583.7
31593.8
31602.1
31608.9
31614
31617.6
31619.7
31620.2
31619.4
31617.1
31613.4
31608.4
31602.1
31594.5
31585.7
31575.8
31564.7
31552.5
31539.2
31524.9
31509.6
31493.4
31476.2
31458.2
31439.3
31419.6
31399.2
31378
31356.1
31333.6
31310.4
31286.7
31262.4
31237.6
31212.3
31186.5
31160.4
31133.8
31107
31079.8
31052.3
31024.6
30996.6
30968.5
30940.3
30911.9
30883.4
30854.8
30826.2
30797.5
30768.9
30740.2
30711.7
30683.1
30654.7
30626.3
30598.1
30570.1
30542.1
30514.4
30486.8
30459.4
30432.3
30405.3
30378.6
30352.2
30326
30300
30274.3
30249
30223.9
30199
30174.5
30150.3
30126.5
30102.9
30079.6
30056.7
30034.1
30011.8
29989.9
29968.3
29947
29926.1
29905.5
29885.2
29865.3
29845.8
29826.5
29807.6
29789.1
29770.8
29752.9
29735.4
29718.1
29701.2
29684.7
29668.4
29652.5
29636.9
29621.6
29606.6
29591.9
29577.5
29563.5
29549.7
29536.2
29523
29510.2
29497.5
29485.2
29473.1
29461.4
29449.8
29438.6
29427.6
29416.9
29406.4
29396.1
29386.1
29376.4
29366.9
29357.6
29348.5
29339.7
29331
29322.6
29314.4
29306.4
29298.6
29291.1
29283.7
29276.5
29269.4
29262.6
29255.9
29249.5
29243.2
29237
29231
29225.2
29219.6
29214.1
29208.7
29203.5
29198.5
29193.5
29188.8
29184.1
29179.6
29175.2
29171
29166.8
29162.8
29158.9
29155.1
29151.5
29147.9
29144.5
29141.1
29137.9
29134.7
29131.7
29128.7
29125.9
29123.1
29120.4
29117.9
29115.3
29112.9
29110.6
29108.3
29106.1
29104
29102
29100
29098.1
29096.3
29094.5
29092.8
29091.2
29089.6
29088.1
29086.7
29085.3
29084
29082.7
29081.5
29080.3
29079.2
29078.2
29077.2
29076.2
29075.3
29074.5
29073.7
29072.9
29072.2
29071.6
29070.9
29070.4
29069.9
29069.4
29068.9
29068.6
29068.2
29067.9
29067.7
29067.4
29067.3
29067.1
29067.1
29067
28330.8
28330.8
28330.9
28330.9
28331
28331
28331.1
28331.2
28331.3
28331.4
28331.5
28331.6
28331.8
28331.9
28332.1
28332.2
28332.4
28332.6
28332.8
28333
28333.2
28333.4
28333.7
28333.9
28334.2
28334.5
28334.7
28335
28335.4
28335.7
28336
28336.4
28336.7
28337.1
28337.5
28337.9
28338.3
28338.8
28339.2
28339.7
28340.1
28340.6
28341.1
28341.6
28342.2
28342.7
28343.3
28343.8
28344.4
28345
28345.7
28346.3
28346.9
28347.6
28348.3
28349
28349.7
28350.4
28351.2
28352
28352.8
28353.6
28354.4
28355.2
28356.1
28357
28357.9
28358.8
28359.7
28360.7
28361.7
28362.7
28363.7
28364.7
28365.8
28366.9
28368
28369.1
28370.3
28371.5
28372.7
28373.9
28375.1
28376.4
28377.7
28379
28380.4
28381.8
28383.2
28384.6
28386
28387.5
28389
28390.6
28392.2
28393.8
28395.4
28397.1
28398.7
28400.5
28402.2
28404
28405.8
28407.7
28409.6
28411.5
28413.5
28415.5
28417.5
28419.6
28421.7
28423.8
28426
28428.2
28430.5
28432.8
28435.1
28437.5
28440
28442.4
28444.9
28447.5
28450.1
28452.7
28455.4
28458.2
28461
28463.8
28466.7
28469.6
28472.6
28475.7
28478.8
28481.9
28485.1
28488.4
28491.7
28495
28498.5
28501.9
28505.5
28509.1
28512.7
28516.5
28520.3
28524.1
28528
28532
28536
28540.2
28544.3
28548.6
28552.9
28557.3
28561.7
28566.3
28570.9
28575.6
28580.3
28585.2
28590.1
28595.1
28600.2
28605.3
28610.5
28615.9
28621.3
28626.8
28632.4
28638
28643.8
28649.6
28655.6
28661.6
28667.7
28673.9
28680.3
28686.7
28693.2
28699.8
28706.5
28713.3
28720.3
28727.3
28734.4
28741.7
28749
28756.5
28764
28771.7
28779.5
28787.4
28795.4
28803.6
28811.8
28820.2
28828.7
28837.3
28846.1
28854.9
28863.9
28873.1
28882.3
28891.7
28901.2
28910.8
28920.6
28930.5
28940.5
28950.7
28961
28971.5
28982
28992.8
29003.6
29014.6
29025.8
29037.1
29048.5
29060.1
29071.8
29083.7
29095.7
29107.9
29120.2
29132.6
29145.2
29158
29170.9
29183.9
29197.2
29210.5
29224
29237.7
29251.5
29265.4
29279.6
29293.8
29308.2
29322.8
29337.5
29352.4
29367.4
29382.5
29397.8
29413.3
29428.9
29444.6
29460.5
29476.6
29492.7
29509.1
29525.5
29542.1
29558.8
29575.7
29592.7
29609.8
29627.1
29644.4
29661.9
29679.6
29697.3
29715.1
29733.1
29751.2
29769.3
29787.6
29806
29824.5
29843
29861.7
29880.4
29899.2
29918.1
29937
29956
29975.1
29994.2
30013.4
30032.6
30051.9
30071.1
30090.4
30109.7
30129.1
30148.4
30167.7
30187
30206.3
30225.6
30244.8
30264
30283.1
30302.2
30321.2
30340.1
30358.9
30377.6
30396.3
30414.8
30433.1
30451.4
30469.4
30487.4
30505.1
30522.7
30540
30557.2
30574.1
30590.8
30607.2
30623.4
30639.3
30654.9
30670.2
30685.2
30699.9
30714.2
30728.1
30741.7
30754.9
30767.7
30780
30791.9
30803.3
30814.3
30824.8
30834.7
30844.2
30853.1
30861.4
30869.1
30876.3
30882.8
30888.7
30893.9
30898.5
30902.3
30905.5
30907.9
30909.5
30910.4
30910.5
30909.7
30908.2
30905.7
30902.4
30898.2
30893.1
30887.1
30880.1
30872.1
30863.2
30853.2
30842.2
30830.1
30817
30802.8
30787.5
30771.1
30753.5
30734.9
30715
30694
30671.8
30648.5
30623.9
30598.1
30571.2
30543
30513.6
30483
30451.1
30418.1
30383.8
30348.4
30311.7
30273.9
30234.9
30194.7
30153.3
30110.8
30067.2
30022.5
29976.7
29929.8
29881.9
29832.9
29783
29732.1
29680.2
29627.3
29573.6
29519
29463.6
29407.3
29350.3
29292.4
29233.9
29174.6
29114.7
29054.1
28992.9
28931.1
28868.8
28805.9
28742.6
28678.9
28614.7
28550.2
28485.3
28420
28354.6
28288.9
28223
28156.9
28090.7
28024.4
27958
27891.6
27825.3
27759
27692.9
27626.9
27561.2
27495.7
27430.6
27365.8
27301.4
27237.5
27174.1
27111.3
27049.2
26987.7
26927.1
26867.2
26808.3
26750.3
26693.4
26637.5
26582.9
26529.4
26477.3
26426.6
26377.4
26329.7
26283.7
26239.3
26196.7
26156
26117.2
26080.4
26045.6
26013
25982.6
25954.5
25928.7
25905.3
25884.4
25865.9
25850
25836.8
25826.1
25818.2
25813
25810.5
25810.9
25814
25819.9
25828.7
25840.4
25854.9
25872.2
25892.4
25915.5
25941.3
25970
26001.4
26035.5
26072.4
26111.9
26154
26198.6
26245.7
26295.2
26347
26401
26457.1
26515.3
26575.4
26637.3
26700.8
26765.9
26832.4
26900.2
26969
27038.8
27109.4
27180.6
27252.3
27324.2
27396.3
27468.2
27539.9
27611.1
27681.8
27751.6
27820.4
27888.1
27954.4
28019.3
28082.5
28144
28203.4
28260.8
28316
28368.7
28419
28466.7
28511.7
28553.9
28593.4
28629.9
28663.4
28694
28721.5
28745.9
28767.3
28785.5
28800.6
28812.6
28821.6
28827.4
28830.3
28830.2
28827.1
28821.1
28812.4
28801
28786.8
28770.1
28750.8
28729.2
28705.2
28679
28650.7
28620.4
28588.2
28554.3
28518.8
28481.8
28443.5
28403.9
28363.3
28321.8
28279.5
28236.6
28193.3
28149.7
28105.9
28062.2
28018.7
27975.5
27932.8
27890.9
27849.7
27809.6
27770.6
27732.9
27696.7
27662
27629.1
27598.1
27569.1
27542.1
27517.5
27495.2
27475.4
27458.2
27443.6
27431.8
27422.7
27416.4
27413
27412.4
27414.5
27419.6
27427.5
27438.2
27451.9
27468.1
27487.3
27509
27533.2
27559.9
27588.8
27620
27653.2
27688.3
27725.3
27763.8
27803.9
27845.2
27887.7
27931.2
27975.4
28020.3
28065.7
28111.2
28156.9
28202.4
28247.7
28292.4
28336.5
28379.7
28421.9
28462.8
28502.4
28540.5
28576.9
28611.3
28643.8
28674.1
28702.1
28727.6
28750.6
28770.8
28788.2
28802.6
28814
28822.2
28827.1
28828.7
28826.9
28821.6
28812.8
28800.3
28784.2
28764.5
28741.1
28713.9
28683.2
28648.7
28610.7
28569
28523.9
28475.4
28423.5
28368.4
28310.2
28248.9
28184.9
28118.2
28049
27977.6
27904.1
27828.8
27751.8
27673.4
27593.9
27513.5
27432.4
27351
27269.4
27187.9
27106.8
27026.4
26946.8
26868.4
26791.3
26715.9
26642.3
26570.8
26501.6
26434.8
26370.7
26309.4
26251.1
26195.9
26144
26095.5
26050.5
26009.1
25971.4
25937.4
25907.3
25881
25858.6
25840.1
25825.5
25814.8
25808
25805.2
25806.1
25810.9
25819.5
25831.8
25847.7
25867.2
25890.2
25916.7
25946.6
25979.7
26015.9
26055.3
26097.6
26142.8
26190.8
26241.5
26294.7
26350.4
26408.3
26468.5
26530.8
26595.1
26661.2
26729
26798.5
26869.5
26941.8
27015.4
27090.2
27166
27242.7
27320.2
27398.5
27477.3
27556.7
27636.4
27716.5
27796.8
27877.2
27957.7
28038.1
28118.4
28198.5
28278.3
28357.8
28436.9
28515.5
28593.6
28671.2
28748
28824.2
28899.7
28974.4
29048.1
29121
29192.9
29263.8
29333.6
29402.4
29470
29536.5
29601.7
29665.6
29728.3
29789.6
29849.5
29908
29965
30020.5
30074.5
30126.9
30177.7
30226.9
30274.4
30320.2
30364.2
30406.6
30447.1
30485.9
30522.8
30558
30591.3
30622.8
30652.5
30680.3
30706.3
30730.4
30752.7
30773.2
30791.9
30808.9
30824
30837.5
30849.2
30859.2
30867.5
30874.3
30879.4
30882.9
30885
30885.5
30884.6
30882.3
30878.6
30873.5
30867.2
30859.6
30850.8
30840.8
30829.7
30817.4
30804.1
30789.8
30774.5
30758.2
30741
30723
30704.1
30684.4
30663.9
30642.7
30620.8
30598.2
30575
30551.3
30526.9
30502.1
30476.8
30451
30424.8
30398.3
30371.4
30344.1
30316.7
30288.9
30261
30232.8
30204.5
30176.1
30147.6
30119
30090.4
30061.7
30033
30004.4
29975.8
29947.3
29918.8
29890.5
29862.2
29834.2
29806.2
29778.5
29750.9
29723.5
29696.3
29669.4
29642.7
29616.2
29590
29564.1
29538.4
29513
29487.9
29463.1
29438.6
29414.4
29390.5
29366.9
29343.6
29320.7
29298.1
29275.8
29253.9
29232.3
29211
29190.1
29169.5
29149.3
29129.3
29109.8
29090.5
29071.6
29053.1
29034.9
29017
28999.4
28982.2
28965.3
28948.7
28932.5
28916.5
28900.9
28885.6
28870.6
28856
28841.6
28827.5
28813.8
28800.3
28787.1
28774.2
28761.6
28749.3
28737.2
28725.4
28713.9
28702.7
28691.7
28681
28670.5
28660.2
28650.2
28640.5
28631
28621.7
28612.6
28603.8
28595.2
28586.7
28578.6
28570.6
28562.8
28555.2
28547.8
28540.6
28533.6
28526.7
28520.1
28513.6
28507.3
28501.2
28495.2
28489.4
28483.7
28478.2
28472.9
28467.7
28462.6
28457.7
28452.9
28448.3
28443.8
28439.4
28435.1
28431
28427
28423.1
28419.3
28415.7
28412.1
28408.7
28405.3
28402.1
28398.9
28395.9
28392.9
28390.1
28387.3
28384.6
28382.1
28379.5
28377.1
28374.8
28372.5
28370.3
28368.2
28366.2
28364.2
28362.3
28360.5
28358.7
28357
28355.4
28353.9
28352.3
28350.9
28349.5
28348.2
28346.9
28345.7
28344.6
28343.4
28342.4
28341.4
28340.4
28339.5
28338.7
28337.9
28337.1
28336.4
28335.8
28335.2
28334.6
28334.1
28333.6
28333.2
28332.8
28332.4
28332.1
28331.9
28331.7
28331.5
28331.4
28331.3
28331.2
27595.1
27595.1
27595.1
27595.1
27595.2
27595.2
27595.3
27595.3
27595.4
27595.5
27595.6
27595.8
27595.9
27596
27596.2
27596.3
27596.5
27596.7
27596.9
27597.1
27597.3
27597.6
27597.8
27598.1
27598.3
27598.6
27598.9
27599.2
27599.5
27599.9
27600.2
27600.6
27600.9
27601.3
27601.7
27602.1
27602.5
27602.9
27603.4
27603.8
27604.3
27604.8
27605.3
27605.8
27606.4
27606.9
27607.5
27608
27608.6
27609.2
27609.8
27610.5
27611.1
27611.8
27612.5
27613.2
27613.9
27614.6
27615.4
27616.2
27616.9
27617.7
27618.6
27619.4
27620.3
27621.2
27622.1
27623
27623.9
27624.9
27625.8
27626.8
27627.9
27628.9
27630
27631.1
27632.2
27633.3
27634.4
27635.6
27636.8
27638
27639.3
27640.6
27641.9
27643.2
27644.5
27645.9
27647.3
27648.7
27650.2
27651.7
27653.2
27654.7
27656.3
27657.9
27659.5
27661.2
27662.9
27664.6
27666.4
27668.2
27670
27671.8
27673.7
27675.6
27677.6
27679.6
27681.6
27683.7
27685.8
27687.9
27690.1
27692.3
27694.6
27696.9
27699.2
27701.6
27704.1
27706.5
27709
27711.6
27714.2
27716.8
27719.5
27722.3
27725.1
27727.9
27730.8
27733.7
27736.7
27739.7
27742.8
27746
27749.2
27752.4
27755.7
27759.1
27762.5
27766
27769.5
27773.1
27776.8
27780.5
27784.3
27788.1
27792.1
27796
27800.1
27804.2
27808.4
27812.6
27816.9
27821.3
27825.8
27830.3
27834.9
27839.6
27844.3
27849.2
27854.1
27859.1
27864.1
27869.3
27874.5
27879.8
27885.3
27890.7
27896.3
27902
27907.7
27913.6
27919.5
27925.5
27931.7
27937.9
27944.2
27950.6
27957.1
27963.7
27970.4
27977.3
27984.2
27991.2
27998.3
28005.6
28012.9
28020.4
28027.9
28035.6
28043.4
28051.3
28059.3
28067.5
28075.7
28084.1
28092.6
28101.2
28109.9
28118.8
28127.8
28136.9
28146.2
28155.5
28165
28174.7
28184.4
28194.3
28204.4
28214.5
28224.8
28235.3
28245.9
28256.6
28267.4
28278.4
28289.6
28300.9
28312.3
28323.9
28335.6
28347.5
28359.5
28371.6
28384
28396.4
28409
28421.8
28434.7
28447.7
28460.9
28474.3
28487.8
28501.5
28515.3
28529.2
28543.3
28557.6
28572
28586.6
28601.3
28616.2
28631.2
28646.3
28661.6
28677.1
28692.7
28708.5
28724.3
28740.4
28756.6
28772.9
28789.3
28805.9
28822.7
28839.5
28856.5
28873.7
28890.9
28908.3
28925.8
28943.4
28961.2
28979
28997
29015.1
29033.3
29051.6
29069.9
29088.4
29107
29125.7
29144.4
29163.2
29182.1
29201.1
29220.1
29239.2
29258.3
29277.5
29296.7
29316
29335.3
29354.6
29373.9
29393.3
29412.6
29431.9
29451.3
29470.6
29489.9
29509.1
29528.3
29547.5
29566.6
29585.6
29604.5
29623.4
29642.1
29660.8
29679.3
29697.7
29716
29734.1
29752
29769.8
29787.4
29804.8
29822
29838.9
29855.7
29872.1
29888.4
29904.3
29919.9
29935.3
29950.3
29965
29979.4
29993.4
30007
30020.2
30033
30045.4
30057.3
30068.8
30079.8
30090.4
30100.4
30109.8
30118.8
30127.1
30134.9
30142.1
30148.7
30154.6
30159.9
30164.5
30168.4
30171.6
30174.1
30175.8
30176.7
30176.8
30176.1
30174.6
30172.2
30169
30164.8
30159.8
30153.8
30146.8
30138.9
30130
30120
30109
30097
30083.9
30069.8
30054.5
30038.1
30020.6
30001.9
29982.1
29961.1
29938.9
29915.5
29890.9
29865.2
29838.2
29810
29780.6
29749.9
29718
29685
29650.7
29615.2
29578.5
29540.6
29501.5
29461.2
29419.8
29377.3
29333.6
29288.8
29242.9
29196
29148
29098.9
29048.9
28997.9
28945.9
28893
28839.2
28784.5
28729
28672.6
28615.5
28557.5
28498.9
28439.5
28379.5
28318.9
28257.6
28195.7
28133.3
28070.4
28007
27943.1
27878.9
27814.2
27749.2
27683.9
27618.4
27552.6
27486.6
27420.4
27354.1
27287.6
27221.2
27154.7
27088.3
27021.9
26955.7
26889.6
26823.8
26758.2
26692.9
26628
26563.5
26499.5
26436
26373.1
26310.9
26249.3
26188.5
26128.6
26069.5
26011.4
25954.3
25898.3
25843.6
25790
25737.8
25686.9
25637.6
25589.8
25543.6
25499.1
25456.4
25415.5
25376.6
25339.7
25304.8
25272.1
25241.6
25213.4
25187.5
25164
25143
25124.4
25108.5
25095.2
25084.5
25076.5
25071.2
25068.7
25069
25072.1
25078
25086.8
25098.4
25112.9
25130.3
25150.5
25173.5
25199.4
25228.1
25259.5
25293.7
25330.6
25370.2
25412.4
25457.1
25504.3
25553.9
25605.9
25660
25716.4
25774.7
25835
25897.1
25960.9
26026.2
26093
26161
26230.2
26300.3
26371.2
26442.8
26514.8
26587.1
26659.5
26731.8
26803.9
26875.5
26946.5
27016.7
27085.9
27154
27220.7
27286
27349.5
27411.3
27471.1
27528.8
27584.3
27637.3
27687.9
27735.8
27781
27823.5
27863.1
27899.8
27933.5
27964.1
27991.7
28016.2
28037.6
28055.8
28071
28083
28091.8
28097.7
28100.4
28100.2
28097
28090.9
28082.1
28070.5
28056.1
28039.2
28019.8
27997.9
27973.7
27947.2
27918.7
27888.1
27855.7
27821.5
27785.8
27748.5
27709.9
27670
27629.1
27587.3
27544.7
27501.6
27457.9
27414
27370
27325.9
27282.1
27238.6
27195.6
27153.4
27112
27071.5
27032.3
26994.3
26957.9
26923
26889.8
26858.5
26829.2
26802.1
26777.3
26754.9
26735.1
26717.7
26703
26690.9
26681.8
26675.5
26672.1
26671.4
26673.6
26678.5
26686.5
26697.5
26711.3
26727.9
26747
26768.7
26793.1
26820
26849.1
26880.5
26914
26949.4
26986.6
27025.4
27065.8
27107.4
27150.2
27194
27238.6
27283.8
27329.4
27375.3
27421.3
27467.2
27512.7
27557.8
27602.1
27645.7
27688.2
27729.4
27769.3
27807.7
27844.3
27879.1
27911.8
27942.4
27970.6
27996.4
28019.6
28040
28057.6
28072.2
28083.7
28092.1
28097.2
28098.9
28097.2
28091.9
28083.1
28070.7
28054.6
28034.9
28011.4
27984.2
27953.3
27918.8
27880.6
27838.8
27793.4
27744.7
27692.5
27637.1
27578.6
27517
27452.6
27385.5
27316
27244.2
27170.2
27094.5
27017.1
26938.3
26858.3
26777.5
26696
26614.1
26532.1
26450.2
26368.7
26287.9
26207.9
26129.1
26051.8
25976
25902.1
25830.3
25760.8
25693.8
25629.5
25568
25509.5
25454.2
25402.2
25353.6
25308.5
25267
25229.3
25195.3
25165.1
25138.8
25116.4
25098
25083.4
25072.8
25066.1
25063.3
25064.3
25069.2
25077.8
25090.2
25106.2
25125.8
25149
25175.6
25205.5
25238.7
25275.1
25314.6
25357.1
25402.4
25450.6
25501.4
25554.7
25610.5
25668.7
25729
25791.4
25855.9
25922.1
25990.1
26059.8
26130.9
26203.4
26277.2
26352.1
26428.1
26504.9
26582.6
26661
26740
26819.5
26899.4
26979.6
27060
27140.6
27221.2
27301.7
27382.1
27462.3
27542.3
27621.9
27701.1
27779.8
27858
27935.7
28012.6
28088.9
28164.5
28239.2
28313
28386
28458
28529
28598.9
28667.7
28735.4
28802
28867.3
28931.3
28994
29055.4
29115.4
29174
29231.1
29286.7
29340.7
29393.2
29444
29493.3
29540.8
29586.7
29630.8
29673.1
29713.7
29752.5
29789.5
29824.7
29858
29889.6
29919.2
29947
29973
29997.2
30019.5
30040
30058.7
30075.6
30090.7
30104.1
30115.8
30125.7
30134.1
30140.7
30145.8
30149.3
30151.3
30151.8
30150.8
30148.4
30144.6
30139.5
30133.2
30125.5
30116.6
30106.6
30095.4
30083.1
30069.7
30055.3
30040
30023.6
30006.4
29988.3
29969.3
29949.6
29929.1
29907.8
29885.8
29863.2
29840
29816.2
29791.8
29766.9
29741.5
29715.7
29689.5
29662.8
29635.9
29608.7
29581.1
29553.4
29525.4
29497.2
29468.8
29440.4
29411.8
29383.2
29354.5
29325.8
29297.2
29268.5
29239.9
29211.3
29182.8
29154.5
29126.2
29098.1
29070.2
29042.4
29014.8
28987.4
28960.2
28933.3
28906.5
28880.1
28853.8
28827.9
28802.2
28776.8
28751.7
28726.9
28702.3
28678.1
28654.2
28630.7
28607.4
28584.5
28561.9
28539.6
28517.7
28496.1
28474.8
28453.9
28433.3
28413
28393.1
28373.6
28354.3
28335.4
28316.9
28298.7
28280.8
28263.2
28246
28229.1
28212.5
28196.3
28180.4
28164.8
28149.5
28134.5
28119.8
28105.5
28091.4
28077.6
28064.2
28051
28038.1
28025.5
28013.2
28001.1
27989.4
27977.8
27966.6
27955.6
27944.9
27934.4
27924.2
27914.2
27904.4
27894.9
27885.6
27876.6
27867.8
27859.1
27850.7
27842.5
27834.6
27826.8
27819.2
27811.8
27804.6
27797.6
27790.8
27784.1
27777.6
27771.3
27765.2
27759.2
27753.4
27747.8
27742.3
27737
27731.8
27726.7
27721.8
27717
27712.4
27707.9
27703.5
27699.3
27695.1
27691.1
27687.2
27683.5
27679.8
27676.2
27672.8
27669.5
27666.2
27663.1
27660
27657.1
27654.2
27651.5
27648.8
27646.2
27643.7
27641.3
27638.9
27636.7
27634.5
27632.4
27630.4
27628.4
27626.5
27624.7
27622.9
27621.2
27619.6
27618
27616.5
27615.1
27613.7
27612.4
27611.1
27609.9
27608.7
27607.6
27606.6
27605.6
27604.6
27603.7
27602.9
27602.1
27601.3
27600.6
27600
27599.4
27598.8
27598.3
27597.8
27597.4
27597
27596.6
27596.3
27596.1
27595.9
27595.7
27595.6
27595.5
27595.4
26859.3
26859.3
26859.3
26859.3
26859.4
26859.4
26859.5
26859.6
26859.7
26859.8
26859.9
26860
26860.1
26860.2
26860.4
26860.6
26860.7
26860.9
26861.1
26861.3
26861.5
26861.8
26862
26862.3
26862.5
26862.8
26863.1
26863.4
26863.7
26864
26864.4
26864.7
26865.1
26865.5
26865.9
26866.3
26866.7
26867.1
26867.6
26868
26868.5
26869
26869.5
26870
26870.5
26871.1
26871.6
26872.2
26872.8
26873.4
26874
26874.6
26875.3
26876
26876.6
26877.3
26878.1
26878.8
26879.5
26880.3
26881.1
26881.9
26882.7
26883.6
26884.4
26885.3
26886.2
26887.1
26888
26889
26890
26891
26892
26893
26894.1
26895.2
26896.3
26897.4
26898.6
26899.7
26900.9
26902.2
26903.4
26904.7
26906
26907.3
26908.6
26910
26911.4
26912.8
26914.3
26915.8
26917.3
26918.8
26920.4
26922
26923.6
26925.3
26927
26928.7
26930.4
26932.2
26934.1
26935.9
26937.8
26939.7
26941.7
26943.7
26945.7
26947.8
26949.9
26952
26954.2
26956.4
26958.6
26960.9
26963.3
26965.7
26968.1
26970.6
26973.1
26975.6
26978.2
26980.9
26983.5
26986.3
26989.1
26991.9
26994.8
26997.7
27000.7
27003.7
27006.8
27010
27013.2
27016.4
27019.7
27023.1
27026.5
27030
27033.5
27037.1
27040.7
27044.5
27048.2
27052.1
27056
27059.9
27064
27068.1
27072.3
27076.5
27080.8
27085.2
27089.6
27094.2
27098.8
27103.5
27108.2
27113
27117.9
27122.9
27128
27133.1
27138.4
27143.7
27149.1
27154.6
27160.1
27165.8
27171.6
27177.4
27183.3
27189.3
27195.5
27201.7
27208
27214.4
27220.9
27227.5
27234.2
27241
27247.9
27254.9
27262.1
27269.3
27276.6
27284.1
27291.6
27299.3
27307.1
27315
27323
27331.2
27339.4
27347.8
27356.3
27364.9
27373.6
27382.5
27391.5
27400.6
27409.8
27419.2
27428.7
27438.3
27448.1
27458
27468
27478.2
27488.5
27498.9
27509.5
27520.2
27531
27542
27553.2
27564.5
27575.9
27587.5
27599.2
27611
27623.1
27635.2
27647.5
27660
27672.6
27685.3
27698.2
27711.3
27724.5
27737.8
27751.4
27765
27778.8
27792.8
27806.9
27821.2
27835.6
27850.1
27864.9
27879.7
27894.7
27909.9
27925.2
27940.7
27956.3
27972
27987.9
28004
28020.2
28036.5
28052.9
28069.6
28086.3
28103.2
28120.2
28137.3
28154.6
28172
28189.5
28207.1
28224.9
28242.7
28260.7
28278.8
28297
28315.3
28333.7
28352.2
28370.8
28389.5
28408.2
28427.1
28446
28465
28484
28503.1
28522.3
28541.5
28560.7
28580
28599.3
28618.7
28638
28657.4
28676.8
28696.2
28715.5
28734.9
28754.2
28773.5
28792.7
28811.9
28831
28850.1
28869.1
28888
28906.8
28925.4
28944
28962.5
28980.8
28998.9
29016.9
29034.8
29052.4
29069.8
29087.1
29104.1
29120.9
29137.4
29153.7
29169.7
29185.4
29200.8
29215.9
29230.6
29245
29259.1
29272.8
29286
29298.9
29311.4
29323.4
29334.9
29346
29356.6
29366.7
29376.2
29385.2
29393.7
29401.5
29408.8
29415.5
29421.5
29426.8
29431.5
29435.5
29438.7
29441.3
29443
29444
29444.2
29443.6
29442.2
29439.9
29436.7
29432.6
29427.6
29421.7
29414.8
29406.9
29398
29388.1
29377.2
29365.2
29352.2
29338.1
29322.8
29306.5
29289
29270.3
29250.5
29229.5
29207.3
29184
29159.4
29133.6
29106.6
29078.4
29048.9
29018.2
28986.3
28953.2
28918.8
28883.3
28846.5
28808.5
28769.3
28729
28687.5
28644.8
28601.1
28556.2
28510.2
28463.1
28415
28365.8
28315.6
28264.5
28212.4
28159.3
28105.4
28050.6
27994.9
27938.4
27881.1
27823.1
27764.3
27704.8
27644.7
27583.9
27522.4
27460.4
27397.9
27334.8
27271.3
27207.3
27142.9
27078.2
27013
26947.6
26881.9
26815.9
26749.8
26683.5
26617
26550.5
26483.9
26417.3
26350.7
26284.2
26217.8
26151.6
26085.6
26019.8
25954.4
25889.3
25824.7
25760.5
25696.8
25633.7
25571.3
25509.6
25448.6
25388.4
25329.2
25270.9
25213.6
25157.5
25102.5
25048.7
24996.3
24945.3
24895.7
24847.7
24801.3
24756.6
24713.7
24672.7
24633.6
24596.5
24561.4
24528.6
24497.9
24469.5
24443.5
24419.9
24398.7
24380.1
24364
24350.6
24339.8
24331.7
24326.4
24323.8
24324.1
24327.1
24333
24341.8
24353.4
24367.8
24385.2
24405.4
24428.5
24454.4
24483.1
24514.6
24548.9
24585.9
24625.6
24667.9
24712.7
24760.1
24809.9
24862
24916.4
24973
25031.7
25092.2
25154.7
25218.8
25284.5
25351.7
25420.2
25489.8
25560.4
25631.8
25703.8
25776.4
25849.2
25922.2
25995.1
26067.7
26139.9
26211.5
26282.3
26352.1
26420.8
26488
26553.8
26617.9
26680.2
26740.5
26798.7
26854.7
26908.1
26959.1
27007.4
27053
27095.7
27135.6
27172.5
27206.4
27237.2
27265
27289.6
27311
27329.3
27344.4
27356.4
27365.2
27370.9
27373.6
27373.2
27369.9
27363.6
27354.5
27342.6
27328
27310.8
27291
27268.8
27244.3
27217.5
27188.6
27157.7
27124.9
27090.3
27054.1
27016.4
26977.3
26937.1
26895.7
26853.5
26810.5
26766.8
26722.7
26678.3
26633.8
26589.4
26545.1
26501.2
26457.8
26415.1
26373.2
26332.4
26292.7
26254.4
26217.5
26182.2
26148.7
26117
26087.3
26059.9
26034.9
26012.3
25992.1
25974.5
25959.6
25947.6
25938.5
25932.1
25928.5
25927.9
25930.1
25935.4
25943.4
25954.1
25967.6
25984.6
26004
26026.1
26050.8
26077.9
26107.4
26139.2
26173
26208.8
26246.4
26285.7
26326.4
26368.5
26411.8
26456.1
26501.1
26546.8
26592.9
26639.3
26685.8
26732.1
26778.2
26823.7
26868.5
26912.5
26955.5
26997.2
27037.6
27076.4
27113.4
27148.6
27181.8
27212.7
27241.3
27267.4
27290.9
27311.7
27329.6
27344.5
27356.2
27364.8
27370.1
27372
27370.4
27365.3
27356.6
27344.2
27328.1
27308.3
27284.8
27257.5
27226.5
27191.7
27153.3
27111.2
27065.6
27016.5
26963.9
26908.1
26849.1
26787
26722
26654.4
26584.3
26511.9
26437.3
26360.9
26282.9
26203.4
26122.8
26041.3
25959.2
25876.6
25793.9
25711.4
25629.3
25547.9
25467.4
25388.1
25310.2
25234
25159.7
25087.5
25017.6
24950.2
24885.6
24823.8
24765.1
24709.6
24657.3
24608.6
24563.4
24521.8
24484
24450
24419.8
24393.5
24371.1
24352.7
24338.2
24327.6
24321
24318.3
24319.5
24324.5
24333.2
24345.7
24361.9
24381.7
24405
24431.7
24461.8
24495.2
24531.8
24571.5
24614.2
24659.7
24708.1
24759.1
24812.6
24868.7
24927
24987.6
25050.3
25114.9
25181.4
25249.7
25319.6
25390.9
25463.7
25537.7
25612.8
25689
25766.1
25844.1
25922.7
26001.9
26081.6
26161.7
26242.1
26322.7
26403.5
26484.3