/*--------------------------------*- C++ -*----------------------------------*\
| =========                 |                                                 |
| \\      /  F ield         | OpenFOAM: The Open Source CFD Toolbox           |
|  \\    /   O peration     | Version:  2412                                  |
|   \\  /    A nd           | Website:  www.openfoam.com                      |
|    \\/     M anipulation  |                                                 |
\*---------------------------------------------------------------------------*/
FoamFile
{
    version     2.0;
    format      ascii;
    arch        "LSB;label=32;scalar=64";
    class       volScalarField;
    location    "6.95";
    object      alpha.water;
}
// * * * * * * * * * * * * * * * * * * * * * * * * * * * * * * * * * * * * * //

dimensions      [0 0 0 0 0 0 0];

internalField   nonuniform List<scalar> 
6400
(
1
1
1
1
1
1
1
1
1
1
1
1
1
1
1
1
1
1
1
1
1
1
1
1
1
1
1
1
1
1
1
1
1
1
1
1
1
1
1
0.999999
1
1
1
1
1
1
1
1
0.999999
0.999999
0.999999
1
1
1
1
1
1
1
1
1
1
1
1
1
1
1
0.999999
0.999999
0.999999
0.999999
1
1
1
1
0.999999
0.999999
1
1
1
1
0.999998
1
1
1
1
1
1
1
1
1
1
1
1
1
1
1
1
1
1
1
1
1
1
1
1
1
1
1
1
1
1
1
1
1
1
1
0.999999
0.999999
1
1
1
1
1
1
1
1
1
1
1
1
1
1
1
1
1
1
1
1
1
1
0.999999
0.999999
0.999999
0.999999
0.999999
0.999999
0.999999
0.999999
0.999999
1
1
1
1
0.999999
0.999999
1
1
1
1
0.999999
1
1
1
1
1
1
1
1
1
1
1
1
1
1
1
1
1
1
1
1
1
1
1
1
1
1
1
1
1
1
1
1
1
1
1
1
1
1
1
1
1
1
1
1
1
1
1
1
1
1
1
1
1
1
1
1
1
1
0.999999
0.999999
0.999999
1
1
1
1
1
1
0.999999
0.999999
0.999999
0.999999
1
0.999999
0.999999
1
1
0.999999
0.999999
1
1
1
1
1
1
1
1
1
1
1
1
1
1
1
1
1
1
1
1
1
1
1
1
1
1
1
1
1
1
1
1
1
1
1
1
1
1
1
1
1
1
1
1
0.999999
0.999999
0.999999
0.999999
1
1
1
1
1
1
1
1
1
1
1
1
1
1
1
1
1
1
1
0.999999
0.999999
0.999999
0.999999
0.999999
0.999999
0.999999
0.999999
0.999999
0.999999
0.999999
0.999999
1
1
1
1
1
1
1
1
1
1
1
1
1
1
1
1
1
1
1
1
1
0.999999
1
1
1
1
1
1
1
1
1
1
1
1
1
1
1
1
1
1
1
1
1
1
1
1
1
1
1
1
1
1
1
1
1
1
1
1
1
1
1
1
1
1
1
1
1
1
1
1
1
1
1
1
1
1
1
1
0.999999
0.999999
1
1
1
1
1
1
1
1
1
1
1
1
1
1
1
1
1
1
1
1
1
1
1
1
1
1
1
1
1
1
1
1
1
1
1
1
1
1
1
1
1
1
1
1
1
1
1
1
1
1
1
1
1
1
1
1
1
1
1
1
1
0.999999
0.999999
0.999999
1
1
0.999999
0.999999
0.999999
0.999999
1
1
1
1
1
1
1
1
1
1
1
1
1
1
1
1
1
1
1
1
1
0.999999
0.999999
0.999999
1
1
1
1
1
1
0.999999
0.999999
0.999998
0.999998
0.999999
0.999999
1
1
1
1
0.999999
0.999999
0.999999
0.999999
1
1
1
1
1
1
1
1
1
1
1
1
1
1
1
1
1
1
1
0.999999
0.999999
0.999999
0.999999
0.999999
0.999999
0.999999
0.999999
0.999999
1
0.999999
0.999998
0.999998
0.999999
0.999999
0.999998
0.999998
0.999998
0.999999
0.999999
0.999999
1
1
0.999999
0.999999
1
1
0.999999
1
1
1
1
1
1
1
1
0.999999
0.999999
0.999999
1
1
1
1
1
1
1
0.999999
0.999999
0.999999
0.999999
0.999998
0.999998
0.999998
0.999999
0.999999
0.999999
0.999999
0.999999
1
1
1
1
1
1
1
1
1
1
1
1
1
1
1
1
1
1
1
1
1
1
1
1
1
1
1
1
1
1
1
1
1
1
1
1
1
0.999999
0.999999
1
1
0.999999
1
1
1
1
1
1
1
1
1
1
1
1
1
1
1
1
0.999999
0.999999
1
1
1
1
1
1
1
1
1
1
1
1
1
1
1
1
1
1
1
1
1
1
1
1
1
1
1
1
1
1
1
1
1
1
1
1
1
1
1
1
1
1
1
1
1
1
1
1
1
1
1
1
1
1
1
1
1
1
1
1
1
1
1
1
1
1
1
1
1
1
1
1
1
1
1
1
1
1
1
1
1
1
1
1
1
1
1
1
1
1
1
1
1
1
1
1
1
1
1
1
1
1
1
1
1
1
1
1
1
1
1
1
0.999999
0.999999
0.999999
0.999999
1
1
1
1
1
1
1
1
1
1
1
1
1
1
1
1
1
1
1
1
1
1
1
1
1
1
0.999999
0.999999
1
1
1
1
1
1
1
1
1
1
1
1
1
1
1
1
1
1
1
1
1
1
1
1
1
1
1
1
1
1
1
1
1
1
1
1
1
1
1
1
1
1
1
1
1
1
1
1
1
1
1
1
0.999999
0.999999
0.999999
0.999999
0.999999
0.999998
0.999998
0.999999
1
1
1
1
1
1
1
1
1
1
1
1
1
1
1
1
1
1
1
1
1
1
1
0.999999
1
1
1
1
0.999779
0.998725
0.999931
1
1
1
1
1
1
1
1
1
1
1
1
1
1
1
1
1
1
1
1
1
1
1
1
1
1
1
0.999999
0.999999
0.999999
0.999999
1
1
1
1
1
1
1
1
1
1
1
1
1
1
1
1
1
1
1
1
1
1
1
1
1
1
1
1
1
1
1
1
1
1
1
1
0.999999
0.999999
0.999999
1
1
1
1
0.999987
0.99947
0.99983
0.999278
0.997875
0.998492
1
1
1
0.999999
0.999998
1
1
1
1
1
1
1
1
1
1
1
1
1
1
1
1
1
1
1
1
1
1
1
1
1
1
1
1
1
1
1
1
1
1
1
1
1
1
1
1
1
1
1
1
1
1
1
1
1
1
1
1
1
1
1
1
1
1
1
1
1
1
1
0.999997
0.999982
0.999964
0.999995
1
1
0.999431
0.997697
0.999211
0.99928
0.998628
0.999095
0.999901
1
1
1
0.999998
1
1
1
1
1
1
1
1
1
1
1
1
1
1
1
1
1
1
1
1
1
1
1
1
1
1
1
1
1
1
1
1
1
1
1
1
1
1
1
0.999999
0.999999
0.999999
1
1
1
1
1
1
1
1
1
1
1
1
1
1
0.999999
0.999999
0.999999
0.999999
1
1
1
1
0.999981
0.999887
0.999953
1
0.999946
0.998465
0.997406
0.999174
0.99805
0.99588
0.999969
0.999971
1
0.999989
0.99997
1
1
1
1
1
1
1
1
1
1
1
1
1
1
1
1
0.999999
0.999999
1
1
1
1
1
1
1
1
1
1
1
1
1
1
1
1
1
1
1
0.999999
0.999999
0.999999
0.999999
1
1
1
1
1
1
1
1
1
1
1
1
0.999999
0.999999
0.999999
0.999999
0.999999
0.999999
0.999999
0.999999
1
1
1
1
1
0.999889
0.999924
0.999998
0.999998
0.998433
0.993938
0.997204
0.996842
0.98841
0.991409
0.999653
0.999999
0.999956
0.999887
1
1
1
1
1
1
1
1
1
1
1
1
1
1
1
1
0.999999
1
1
1
1
1
1
1
1
1
1
1
1
1
1
0.999999
0.999999
0.999999
0.999999
0.999999
0.999999
1
1
1
1
1
1
1
1
1
1
1
1
1
1
1
1
1
1
1
1
1
1
1
1
1
1
1
1
1
0.999967
0.999932
0.999997
0.99998
0.995093
0.988981
0.996373
0.99651
0.98841
0.98841
0.999322
0.999998
0.999947
0.99988
0.999998
1
1
1
1
1
1
1
1
1
1
1
1
1
1
1
0.999999
1
1
1
1
1
1
1
1
1
1
1
1
1
1
1
1
1
1
1
1
1
1
1
1
1
1
1
1
1
1
1
1
1
1
1
1
0.999999
1
1
1
1
1
1
1
1
1
1
1
1
1
0.999922
0.999996
0.999995
0.988996
0.988981
0.995987
0.996931
0.995841
0.989595
0.998849
0.999135
0.999959
0.999932
0.999995
1
1
1
0.999999
0.999999
0.999998
0.999998
0.999998
0.999998
0.999997
0.999996
0.999994
0.999994
0.999996
0.999997
0.999999
0.999999
1
1
1
1
1
1
1
1
1
1
1
1
1
1
1
1
1
1
1
1
1
1
1
1
1
1
1
1
1
0.999998
0.999994
0.99999
0.999988
0.999988
0.999988
0.999989
0.999993
0.999996
0.999998
0.999998
0.999999
0.999999
0.999999
0.999999
0.999999
1
1
1
1
0.999894
0.99931
0.999275
0.990885
0.995298
0.99704
0.997698
0.998243
0.999314
0.999975
0.999999
1
1
1
1
0.999998
0.999996
0.999985
0.999962
0.999934
0.999914
0.999899
0.999873
0.999827
0.999594
0.997658
0.993945
0.990406
0.988788
0.990289
0.994247
0.997974
0.999749
1
1
1
1
1
1
1
1
1
1
1
1
1
1
1
1
1
1
1
1
1
1
1
1
1
0.999999
0.987745
0.979535
0.9769
0.980577
0.987688
0.994597
0.998919
0.999659
0.999745
0.999827
0.999883
0.999915
0.999934
0.999954
0.999971
0.999985
0.999994
0.999998
1
1
1
1
0.999998
0.999978
0.999941
0.999837
0.999751
0.815271
0.828783
0.882327
0.932968
0.939787
0.919834
0.899735
0.921026
0.951042
0.958729
0.954654
0.941757
0.918487
0.887093
0.841782
0.784092
0.724016
0.662673
0.592127
0.524422
0.470587
0.43594
0.424758
0.445581
0.488837
0.539711
0.592943
0.672361
0.782011
0.90186
0.991247
1
1
1
1
1
1
1
1
1
1
1
1
1
1
1
1
1
0.963702
0.888818
0.78122
0.637958
0.491592
0.400067
0.360987
0.351171
0.374138
0.419942
0.484887
0.564327
0.646973
0.716021
0.780606
0.836559
0.883889
0.923709
0.953881
0.964443
0.966693
0.969837
0.967141
0.948926
0.914518
0.885101
0.873433
0.869865
0.853065
0.792272
0.735611
0.732482
0.101564
0.10013
0.0989983
0.112571
0.148856
0.198501
0.255235
0.307866
0.34353
0.352208
0.338632
0.299348
0.234892
0.163777
0.10621
0.0640918
0.031572
0.00672783
1.94136e-06
2.50358e-06
2.83072e-06
4.1344e-06
1.06036e-05
1.90347e-05
1.3542e-05
1.84153e-05
0.00736981
0.0291078
0.0634519
0.125404
0.220954
0.364152
0.516595
0.664293
0.772104
0.845087
0.905474
0.943587
0.961599
0.973031
0.977576
0.971033
0.943485
0.887391
0.79512
0.66138
0.497082
0.331752
0.208468
0.123742
0.0628325
0.0215417
0.00163801
9.13426e-08
9.32214e-08
1.34519e-07
4.17519e-07
1.28506e-06
2.45444e-06
3.29594e-06
0.00596671
0.0344442
0.066852
0.105718
0.15098
0.199423
0.252965
0.305217
0.339531
0.347419
0.334976
0.302872
0.25728
0.19865
0.140037
0.095496
0.0729536
0.0769072
0.0809005
0.0750005
4.43124e-06
1.97165e-06
7.58858e-06
8.98857e-05
0.000389248
0.000569474
0.000155807
1.50783e-05
1.02606e-05
3.46883e-05
3.84764e-05
-9.87195e-07
4.36699e-07
2.67968e-07
4.63477e-07
1.05817e-06
1.43966e-06
1.57061e-06
1.73797e-06
1.99129e-06
3.1853e-06
3.67718e-06
5.2251e-06
9.22973e-06
1.20079e-05
1.35423e-05
1.84204e-05
3.4355e-05
6.80822e-05
0.000136207
0.000814196
0.00635853
0.022955
0.0594954
0.114451
0.174911
0.245922
0.330626
0.389366
0.403074
0.378576
0.329877
0.259483
0.177472
0.0990725
0.038129
0.00607371
0.000572894
0.000192888
7.68088e-05
5.84586e-05
4.68553e-05
-3.13357e-07
8.87099e-08
8.60709e-08
1.0936e-07
5.13979e-07
1.42276e-06
1.67693e-06
2.47735e-06
3.29594e-06
4.29539e-06
5.82101e-06
7.66381e-06
9.62332e-06
1.12442e-05
1.24018e-05
1.27519e-05
1.28157e-05
1.28157e-05
6.72894e-05
0.000113616
0.000108549
0.000101305
9.57193e-05
8.84769e-05
5.83e-05
0.000460368
0.000756863
0.000552175
2.86165e-06
6.01491e-07
6.31486e-07
7.58858e-06
7.50391e-05
0.000125411
2.48485e-05
1.08097e-05
6.61644e-06
5.12166e-05
3.03192e-05
9.49171e-06
8.44516e-06
4.55237e-05
5.59661e-05
1.76583e-06
1.57061e-06
1.73797e-06
3.32318e-06
2.48943e-05
2.93168e-05
7.30133e-06
7.86736e-06
9.45997e-06
1.0405e-05
1.20682e-05
3.43866e-05
5.58481e-05
5.88018e-05
0.000165978
0.00025517
0.000144827
0.000100826
6.46478e-05
0.00010382
0.000739166
0.00126852
0.00137169
0.000587956
0.0010607
0.000493908
0.000291008
0.000234326
0.000208509
0.000201669
0.000190234
0.000123314
3.96496e-05
1.09143e-05
2.14707e-05
3.78092e-05
2.44465e-05
7.30096e-07
8.04237e-08
5.53066e-08
6.27817e-07
1.06309e-05
1.11782e-05
1.07282e-05
9.69625e-06
1.53079e-05
2.06553e-05
2.2799e-05
2.213e-05
2.21278e-05
4.04993e-05
4.54266e-05
7.21214e-05
0.000206676
0.000265395
0.000195826
0.000183614
0.000174923
0.000169872
0.000170885
8.3659e-05
3.15115e-05
5.83477e-05
0.000153845
0.000130196
2.66226e-06
5.03785e-07
5.47857e-07
4.80855e-05
4.70342e-05
2.30661e-05
9.05242e-06
6.32493e-06
6.25846e-06
3.35789e-05
6.6899e-05
1.75847e-05
9.16926e-06
6.2982e-05
0.000185551
0.000145024
1.88251e-06
2.72436e-06
1.14305e-05
3.54083e-05
3.54109e-05
2.73344e-05
9.45997e-06
9.9399e-06
4.48811e-05
0.000109157
0.000108869
4.49235e-05
3.86786e-05
0.000282491
0.000396524
0.000396228
7.68901e-05
4.47391e-05
6.34748e-05
0.000184842
0.000464275
0.000516049
0.00010675
4.52273e-05
2.21728e-05
1.78073e-05
1.55058e-05
1.57165e-05
1.60593e-05
1.64734e-05
9.57614e-06
2.54221e-06
4.99924e-07
2.12499e-05
3.94915e-05
3.08924e-05
5.86352e-06
2.40356e-07
4.01896e-08
6.53065e-07
3.81238e-06
3.04257e-06
1.23593e-09
1.2924e-09
8.27608e-07
2.23092e-06
2.79162e-05
5.01782e-05
5.02133e-05
0.000128251
0.000218794
0.000291053
0.000393708
0.000356909
0.000199962
0.000193152
0.000191215
0.00028192
0.000217082
7.28324e-05
3.03472e-05
3.15268e-05
4.99739e-05
6.28633e-05
9.53486e-08
1.00641e-07
3.21753e-05
6.25992e-05
3.50522e-05
5.34019e-06
6.32493e-06
6.24259e-06
6.2601e-06
2.36297e-05
6.78505e-05
6.76336e-05
1.26157e-05
4.71289e-06
0.000148903
0.000221436
0.000221436
8.13644e-05
8.63831e-05
2.24539e-05
1.79745e-05
1.79745e-05
9.25252e-05
0.000128296
0.000128908
0.000128619
0.00012799
7.96766e-05
3.41581e-05
3.22429e-05
0.000143707
0.000236415
0.000120302
3.43441e-05
4.80271e-05
0.000166895
0.000242986
0.000245556
0.000113923
2.21741e-05
8.95377e-06
8.45566e-06
7.94986e-06
7.55722e-06
6.99134e-06
5.82929e-06
2.50393e-06
4.79342e-07
4.41894e-08
8.672e-08
2.20094e-08
3.21637e-09
3.19188e-09
1.72018e-08
3.97753e-08
1.25328e-08
1.19253e-09
1.15889e-09
1.19253e-09
1.23593e-09
1.2924e-09
3.17847e-06
1.96929e-05
4.76613e-05
5.58841e-05
3.76683e-05
3.05419e-05
1.32138e-05
0.000126338
0.000343489
0.000343203
0.000343841
0.000292167
0.000345573
0.000231259
3.8303e-05
3.03472e-05
3.03472e-05
3.45113e-05
4.84841e-05
9.19299e-08
2.65799e-07
1.14695e-05
2.2091e-05
2.67873e-06
3.00749e-06
6.20733e-06
6.56837e-06
7.21155e-06
5.97358e-06
5.94738e-06
8.67555e-06
3.1585e-06
4.45828e-06
1.82388e-05
2.84258e-05
0.00014911
0.000227303
0.000227303
0.000226325
2.28873e-05
1.88917e-05
7.04096e-05
0.000128908
0.000128908
0.000128908
0.000128619
0.000126213
7.25097e-05
2.71473e-05
2.63189e-05
2.72893e-05
3.6424e-05
2.97883e-05
3.60004e-05
5.96243e-05
0.000185359
0.000225571
0.000214898
7.6463e-05
8.45566e-06
7.94986e-06
7.56498e-06
7.00439e-06
7.19741e-06
8.68796e-06
5.63849e-06
1.97104e-07
3.18344e-08
3.0009e-08
3.91136e-09
2.28387e-09
2.12935e-08
5.94661e-08
6.46027e-08
2.08997e-08
2.08675e-09
1.13411e-09
1.16344e-09
1.21116e-09
1.10041e-06
4.4847e-05
5.95628e-05
5.96273e-05
5.88687e-05
1.57481e-05
7.48242e-06
6.73379e-06
5.28946e-06
4.63007e-06
0.000164029
0.000345573
0.000345573
0.000345745
0.000345573
0.000265994
3.09774e-05
3.12697e-05
3.25839e-05
4.12609e-05
9.19299e-08
1.0825e-07
1.59415e-07
4.26621e-07
1.1933e-06
2.10612e-06
2.73185e-05
4.10025e-05
0.000100682
9.13995e-05
2.18994e-05
1.24674e-06
7.9469e-07
1.16139e-06
1.24885e-06
1.84288e-06
8.3296e-06
2.0002e-05
0.000127881
0.000225744
0.00021003
4.05536e-05
4.4731e-05
9.21878e-05
0.000128908
7.33828e-05
3.93499e-05
8.87168e-05
9.67507e-05
6.26696e-05
2.63556e-05
2.6312e-05
2.63785e-05
2.6956e-05
2.9336e-05
3.63838e-05
0.000107193
0.000216021
0.000203562
3.82116e-05
8.95377e-06
9.09494e-06
2.11787e-05
7.53266e-06
2.14064e-07
1.81577e-07
3.49921e-07
4.33816e-07
5.27652e-07
3.66547e-07
1.27554e-09
9.76668e-10
3.87638e-08
6.23579e-08
6.46027e-08
3.34474e-08
1.95066e-09
1.12491e-09
1.11224e-09
1.22711e-09
1.77392e-05
5.92716e-05
5.96268e-05
5.97647e-05
5.9803e-05
5.97647e-05
5.53774e-05
1.14425e-05
3.37622e-06
2.47323e-06
3.61521e-06
5.2059e-05
8.59193e-05
0.000273695
0.000344577
0.00034132
0.000121479
3.25839e-05
4.13952e-05
7.11885e-05
9.19299e-08
9.37437e-08
1.57432e-07
7.78411e-07
6.92426e-05
0.000110616
0.000114409
0.000118236
0.000120639
0.000120298
7.80439e-05
1.77624e-06
1.29925e-07
2.86578e-08
3.3738e-06
5.34618e-05
5.63993e-05
2.66396e-05
3.05877e-05
0.000101738
0.000207986
0.000199689
7.57046e-05
6.79423e-05
9.77642e-05
7.79004e-05
3.79384e-05
1.86472e-05
8.36697e-05
7.28745e-05
2.63124e-05
2.63785e-05
9.68709e-05
0.000179044
3.95171e-05
4.50927e-05
6.30908e-05
0.000203562
0.000173386
1.97995e-05
1.07064e-05
7.63354e-05
0.000133606
8.32937e-05
9.33084e-08
7.205e-08
6.71314e-08
8.58318e-08
9.01521e-08
2.83173e-08
2.69386e-09
6.68933e-11
3.83678e-09
1.81742e-08
1.07097e-08
8.31375e-11
5.49555e-10
9.9398e-10
1.01848e-09
1.43337e-09
1.66033e-05
5.8359e-05
5.92716e-05
5.96268e-05
5.97647e-05
5.98025e-05
5.92623e-05
4.67135e-05
3.96693e-06
1.57897e-06
1.4217e-06
1.50349e-06
1.601e-06
1.50994e-06
0.000135454
0.000340813
0.000260342
3.76935e-05
5.42021e-05
7.11872e-05
9.32014e-08
1.25833e-07
1.21163e-05
9.39805e-05
9.40405e-05
7.68929e-05
8.51332e-06
5.64272e-06
0.000109824
0.000120639
6.01054e-05
3.58897e-07
2.75561e-08
1.17225e-08
2.86578e-08
4.12098e-05
5.63993e-05
5.04549e-05
3.50821e-05
4.24987e-05
0.000199689
0.000195675
0.000195675
9.35669e-05
9.88478e-06
3.19243e-05
3.83312e-05
1.7952e-05
2.34186e-05
7.42159e-05
2.68531e-05
2.84265e-05
0.000183187
0.000218382
0.000119547
5.28944e-05
9.76729e-05
0.000181476
0.000158563
3.18399e-05
5.26659e-05
0.000140273
0.000137819
0.000133531
1.94796e-05
3.9267e-08
5.09512e-09
3.82571e-10
9.64991e-11
7.31354e-11
6.68919e-11
6.54653e-11
6.27904e-11
6.03492e-11
6.27904e-11
7.13413e-11
2.51085e-10
1.21114e-09
6.03503e-09
3.23716e-09
1.24119e-08
3.84629e-05
5.8359e-05
4.95338e-05
5.21698e-05
4.4223e-05
2.71379e-05
4.06542e-06
1.58735e-06
1.42739e-06
1.30761e-06
1.21083e-06
1.18768e-06
1.17751e-06
2.94782e-06
0.000257709
0.000343115
5.07307e-05
5.28195e-05
7.11695e-05
9.007e-08
1.38288e-07
4.77407e-05
9.68896e-05
8.53831e-05
1.43759e-07
1.43759e-07
1.44633e-07
1.08894e-05
0.000120129
2.74229e-05
2.75561e-08
1.1459e-08
1.06266e-08
2.2471e-07
7.20694e-08
1.48665e-05
3.93182e-05
6.63291e-05
9.18765e-05
0.000185631
0.000195675
0.000190956
5.8662e-05
2.35924e-06
9.84725e-07
2.2425e-05
1.13848e-05
9.50688e-06
6.48775e-05
2.69918e-05
3.24203e-05
0.000220835
0.000220095
0.000217635
5.82707e-05
9.86054e-05
0.00017234
0.000148001
3.83559e-05
9.26016e-05
0.000140451
0.000140273
0.000137819
8.51479e-05
5.11377e-07
3.92639e-08
5.05025e-09
3.7987e-10
6.45574e-11
6.09617e-11
6.42283e-11
6.24646e-11
5.79003e-11
6.81016e-11
1.3309e-10
2.95183e-10
1.14953e-09
1.27035e-08
4.53582e-08
1.13445e-06
3.81665e-05
3.17529e-05
2.55097e-05
2.53758e-05
2.58935e-05
1.83297e-05
8.77243e-06
2.61162e-06
1.30642e-06
1.20926e-06
1.18768e-06
1.17504e-06
1.17751e-06
1.17751e-06
0.000215979
0.000364254
0.000103762
5.31683e-05
7.11695e-05
8.51586e-08
4.72108e-07
3.4616e-05
9.67857e-05
5.71896e-05
1.43642e-07
1.44633e-07
1.46652e-07
1.59383e-07
0.000108622
1.4623e-05
1.1459e-08
1.06266e-08
1.06266e-08
1.06266e-08
1.11201e-08
5.92953e-06
1.91554e-05
2.39628e-05
2.12072e-05
1.88818e-05
4.15976e-05
2.07767e-05
8.59445e-06
1.12246e-06
3.40379e-07
5.38921e-07
3.85584e-07
2.16728e-07
6.39506e-05
2.70008e-05
5.32348e-05
0.000221046
0.000220835
0.000220095
0.000180458
9.62266e-05
0.000101917
0.000143386
5.47174e-05
0.000128301
0.000140353
0.000140587
0.0001393
0.000134311
3.94926e-05
5.76833e-07
9.47369e-08
3.73326e-09
-4.766e-12
1.14224e-10
5.32264e-11
5.55769e-11
5.75053e-11
8.15516e-11
9.16555e-11
1.27667e-10
1.94133e-10
6.08085e-09
1.40409e-07
1.52844e-05
4.77795e-05
2.52133e-05
2.52099e-05
4.81404e-05
0.000207508
0.000215715
0.000212323
0.000200203
0.000156784
7.49638e-05
1.21083e-06
1.18768e-06
1.17751e-06
2.01103e-05
0.000313391
0.000374557
0.000137176
5.45212e-05
7.11209e-05
7.74856e-08
9.04961e-08
6.39326e-06
3.01605e-05
3.43236e-06
1.48808e-07
1.90913e-07
1.59383e-07
1.69576e-07
3.56821e-05
7.51143e-06
1.22759e-08
1.1459e-08
1.06266e-08
7.66357e-07
5.42844e-07
8.6742e-07
9.32369e-07
1.34139e-06
2.19687e-06
3.12701e-06
3.10008e-06
1.33341e-06
3.59542e-07
2.62026e-07
2.35813e-07
2.19292e-07
1.97713e-07
1.90719e-07
2.32084e-05
5.20343e-05
8.30061e-05
0.000221046
0.000221064
0.000220644
0.000168935
9.46132e-05
0.000129896
0.000134361
7.61365e-05
0.000140353
0.000140582
0.000140352
0.000135577
0.00012832
0.000104308
4.22943e-05
3.58363e-06
4.70747e-08
5.26979e-09
4.39473e-10
7.28425e-11
3.11023e-11
3.25818e-11
3.97658e-11
4.82279e-11
7.14099e-11
1.71464e-10
1.3919e-09
1.60628e-08
1.73265e-05
4.77664e-05
2.52163e-05
2.56393e-05
0.000151318
0.000324239
0.000324239
0.000324239
0.000322884
0.000316644
0.000297861
0.000284448
0.000232859
0.000232371
0.000349101
0.000376144
0.000378027
0.000287142
5.67708e-05
5.56645e-05
7.78988e-08
7.78988e-08
8.70254e-08
1.69775e-07
3.07564e-07
1.39738e-07
1.25304e-06
1.0271e-06
6.20046e-07
2.3244e-05
1.55217e-08
1.3483e-08
1.22759e-08
4.27636e-06
1.33402e-05
1.9288e-06
9.2446e-07
9.66834e-07
1.17715e-06
1.82111e-05
3.94437e-05
3.88551e-05
9.9691e-06
2.62027e-07
2.35813e-07
2.19292e-07
1.97713e-07
1.90719e-07
1.90723e-07
1.90723e-07
6.38355e-05
0.000103528
0.000221058
0.000221046
0.000212987
0.000101152
9.86968e-05
0.000128058
9.99044e-05
0.000113612
0.000137591
0.000135435
6.47537e-05
6.52998e-05
6.76052e-05
0.000124375
0.000156642
9.31201e-05
4.07875e-07
4.0412e-08
4.75929e-09
3.04526e-10
2.31398e-11
2.80954e-11
2.78618e-11
3.5049e-11
5.7945e-11
2.15809e-10
1.19316e-09
1.28802e-08
3.62017e-06
4.05884e-05
3.3039e-05
2.78554e-05
9.4972e-05
0.000296187
0.000324239
0.000315188
0.000219309
0.000132326
0.00011736
0.000122225
0.000364777
0.000372664
0.000377134
0.000378425
0.000378474
0.000377855
6.87522e-05
3.02402e-05
1.60948e-06
8.70254e-08
1.12818e-07
1.20943e-07
1.18782e-07
1.20943e-07
1.28894e-06
3.15127e-06
3.81991e-06
5.80765e-06
3.81275e-08
1.55217e-08
3.13418e-06
1.46741e-05
1.4517e-05
5.47005e-06
9.66834e-07
2.46526e-05
0.000160573
0.00016125
0.00016125
0.00016125
0.00016027
0.000124388
4.17201e-05
6.08745e-05
6.30971e-05
2.36632e-05
1.90723e-07
5.46987e-07
5.94259e-05
9.46174e-05
0.000221046
0.00022101
0.000196862
0.000103878
0.000101164
0.000124983
7.34913e-05
0.000129427
0.000133844
9.84488e-05
6.48327e-05
6.46704e-05
6.52998e-05
9.51095e-05
0.000164959
0.000159196
4.23355e-05
2.66592e-07
2.83203e-08
1.56705e-09
-1.96285e-10
2.66809e-11
2.58697e-11
2.54115e-11
4.36658e-11
1.66871e-10
8.18297e-10
6.43586e-09
6.50548e-08
1.7001e-05
4.04283e-05
2.9786e-05
2.8028e-05
2.8028e-05
4.75701e-05
5.44086e-05
4.75977e-05
9.34334e-05
0.000110856
0.000114333
0.000247226
0.000377134
0.000378509
0.000378856
0.000378425
0.000342312
5.20233e-05
2.82552e-05
2.05423e-06
1.47626e-06
5.48061e-07
1.23427e-07
1.18799e-07
1.38319e-06
1.3898e-06
1.17128e-06
5.10101e-06
6.81885e-06
7.63912e-08
3.90513e-07
1.10332e-05
1.46741e-05
1.46741e-05
7.03119e-06
9.89744e-06
0.000135282
0.000160611
0.000161055
4.45265e-05
2.08593e-05
2.9606e-05
3.4286e-05
3.67355e-05
4.33299e-05
8.39099e-05
8.39402e-05
4.73414e-05
9.03255e-07
2.2108e-05
9.77177e-05
0.00022101
0.000220387
0.000219138
0.000106303
0.000103114
6.39202e-05
5.98904e-05
0.000127097
0.000129956
0.000127097
7.09056e-05
5.90737e-05
6.52774e-05
0.00010047
0.000166312
0.000164656
0.00014363
1.40421e-06
1.48929e-07
3.4711e-09
-7.47826e-11
2.45621e-11
2.35557e-11
2.06624e-11
2.69228e-11
1.01524e-10
5.40519e-10
5.1722e-09
5.51212e-08
1.71346e-05
4.04283e-05
4.01399e-05
2.80222e-05
2.80368e-05
3.83182e-05
6.36538e-05
4.27622e-05
0.000164108
0.000163493
0.000111748
0.000107502
0.000378509
0.000378759
0.000378689
0.000378689
8.26779e-05
2.82552e-05
2.75554e-05
1.5268e-06
1.85959e-06
1.86129e-06
1.82928e-06
1.36391e-06
2.26763e-06
1.03299e-06
3.8128e-07
4.36575e-06
4.60139e-06
6.26738e-08
1.99699e-06
1.4625e-05
1.46741e-05
1.10831e-05
9.20692e-06
3.89477e-05
0.00015941
0.000160363
5.51087e-05
1.79156e-05
1.78817e-05
1.79602e-05
5.52451e-05
7.13407e-05
1.44509e-05
1.8044e-05
6.62476e-05
6.57754e-05
2.17068e-05
2.32284e-05
8.92377e-05
0.000114441
0.000219313
0.000218719
0.000151714
0.000202447
5.63198e-05
5.15719e-05
8.61579e-05
0.000127131
0.000127109
0.000124464
4.68446e-05
7.59692e-05
0.000159703
0.000166608
0.000166312
0.000164417
8.76754e-05
6.79597e-07
3.91257e-08
-3.99363e-09
1.95723e-11
2.00061e-11
1.63232e-11
1.33843e-11
2.66801e-11
1.32493e-10
1.48996e-09
1.67931e-08
3.69614e-06
3.82654e-05
3.98968e-05
2.80481e-05
7.69685e-05
8.94889e-05
8.18465e-05
2.77955e-05
0.00014073
0.000164141
0.00014549
5.95499e-05
0.000232443
0.000366673
0.000288665
0.000140497
2.91062e-05
2.75554e-05
2.73775e-05
1.42022e-07
1.72142e-06
1.57057e-06
8.08984e-07
2.39903e-06
2.27012e-06
7.71155e-08
3.67507e-07
1.94059e-06
1.40331e-06
3.69582e-08
7.7409e-07
1.15109e-05
1.46238e-05
3.28006e-06
1.3174e-05
0.000132307
0.000158458
0.000157899
2.32681e-05
2.12453e-05
4.23434e-05
3.11184e-05
7.9626e-05
7.9626e-05
2.57544e-05
1.4005e-05
1.4005e-05
6.02012e-05
6.01469e-05
4.89582e-05
2.97987e-05
2.63033e-05
0.000190289
0.000178203
0.000221865
0.000226415
8.55925e-05
4.65897e-05
4.12005e-05
6.98757e-05
7.6716e-05
4.90075e-05
3.05495e-05
0.000100796
0.000166608
0.000166608
0.000166608
0.000166124
0.000164086
2.15928e-05
1.41025e-07
-8.98635e-09
3.52067e-11
1.44601e-11
1.33182e-11
9.05122e-12
5.76025e-12
9.91495e-12
-7.01796e-12
3.02609e-10
7.70117e-09
2.76813e-06
3.1911e-05
4.08326e-05
4.51962e-05
8.85462e-05
2.94491e-05
2.21682e-05
3.98119e-05
0.000163191
0.000159919
5.92712e-05
4.03238e-05
6.37786e-05
6.40179e-05
3.9283e-05
2.7915e-05
2.74529e-05
2.74736e-05
1.02583e-07
1.29274e-07
4.49964e-08
5.34714e-07
2.42392e-06
9.19199e-07
1.03192e-08
1.60315e-07
4.45357e-07
1.7487e-07
1.7575e-08
4.01242e-07
9.3803e-06
1.4209e-05
2.75758e-06
1.74983e-05
0.000158069
0.000158458
0.000124813
4.62207e-05
8.68711e-05
8.732e-05
6.1007e-05
5.95713e-05
7.6849e-05
7.63753e-05
3.36964e-05
1.43854e-05
2.21553e-05
5.90142e-05
6.00354e-05
2.74345e-05
2.48628e-05
3.28148e-05
3.76771e-05
0.000225942
0.000228347
0.000217515
4.12005e-05
3.92945e-05
3.40885e-05
2.9053e-05
2.73424e-05
2.59086e-05
2.93602e-05
0.000161921
0.000166608
0.000166124
0.00016562
0.00016492
0.000150782
6.79159e-07
-4.64521e-09
4.9582e-11
3.11544e-11
1.87609e-11
7.86258e-12
5.09299e-12
5.05926e-12
3.01532e-12
4.43309e-11
2.6327e-10
2.92511e-09
3.15679e-07
8.01759e-06
1.28245e-05
4.29404e-06
1.04506e-05
1.95894e-05
6.30787e-05
0.000160086
0.000157763
9.5728e-05
3.67032e-05
3.90088e-05
4.48386e-05
5.78358e-05
3.69066e-05
3.33827e-05
4.50643e-05
3.47767e-08
3.59466e-08
3.73132e-08
2.17145e-06
2.42264e-06
1.62571e-07
8.36919e-12
6.6275e-10
1.43543e-10
2.49034e-10
3.56864e-09
4.33211e-07
9.98578e-06
1.37294e-05
2.75758e-06
6.99291e-06
0.000102967
0.000153807
2.91636e-05
8.64911e-05
8.732e-05
6.69073e-05
1.48287e-05
1.22894e-08
2.52634e-06
7.62779e-05
7.63942e-05
3.12018e-05
1.82884e-05
5.74266e-05
6.00354e-05
3.09997e-05
2.41444e-05
2.20741e-05
2.51203e-05
0.000228171
0.000229021
0.000229958
0.000146448
4.21532e-05
3.94308e-05
4.40552e-05
5.46375e-05
2.44475e-05
2.04827e-05
6.39699e-05
0.000166019
0.000165631
0.000164924
0.000163712
0.000161112
8.80382e-05
-6.40909e-08
3.44229e-10
6.81632e-11
3.20063e-11
1.61887e-11
5.05926e-12
5.05926e-12
5.0573e-12
6.22703e-12
4.20156e-11
3.3407e-10
2.96433e-09
2.92514e-08
6.75957e-07
3.1141e-06
2.50312e-05
4.57733e-05
0.000116196
0.000157466
0.000154376
4.04157e-05
3.53442e-05
3.67134e-05
4.74532e-05
5.81224e-05
5.70584e-05
5.43142e-05
4.62715e-05
1.33358e-10
2.80543e-07
2.53916e-07
2.19983e-06
8.86408e-07
6.96823e-11
8.36919e-12
8.36919e-12
3.10539e-11
8.22174e-11
2.39838e-10
9.37431e-08
6.26941e-06
1.22043e-05
3.05209e-06
3.26023e-06
5.78189e-06
1.60467e-05
7.73032e-06
5.48254e-05
5.33413e-05
1.39289e-07
6.35373e-09
2.32321e-09
1.10316e-08
3.71305e-05
7.6749e-05
4.97195e-05
1.77955e-05
3.20364e-05
6.00354e-05
5.85833e-05
2.21234e-05
2.06758e-05
1.98384e-05
0.000209514
0.000229963
0.000230717
0.000233497
0.000213416
0.000196496
0.000231281
0.000239116
3.41009e-05
1.92746e-05
1.93102e-05
4.70205e-05
0.00013815
0.000164068
0.000161485
0.00015646
0.000153368
1.36149e-05
1.05481e-09
2.18031e-10
5.62137e-11
3.41462e-11
5.09554e-12
5.05926e-12
5.73688e-12
3.75702e-11
6.55093e-11
3.21964e-10
2.0009e-09
1.15012e-08
5.73033e-08
8.50663e-07
2.55366e-05
5.26441e-05
5.44807e-05
7.91405e-05
3.93934e-05
3.39009e-05
3.46498e-05
3.53442e-05
5.36043e-05
5.74349e-05
5.62367e-05
5.54796e-05
6.97613e-06
1.21457e-10
8.59668e-07
8.69811e-07
1.34177e-07
1.15681e-10
8.25894e-11
4.71797e-11
1.72165e-11
5.58503e-11
7.38288e-11
5.92136e-11
7.68543e-09
4.16481e-07
2.60394e-06
4.60984e-06
4.47481e-06
9.51448e-07
6.42504e-07
7.64205e-06
5.62261e-06
4.26901e-08
5.53546e-09
1.91124e-09
1.91673e-09
2.32321e-09
5.2648e-05
7.63258e-05
3.00701e-05
1.75902e-05
1.74444e-05
4.95903e-05
6.48949e-05
2.13234e-05
1.98774e-05
1.92826e-05
4.06065e-05
0.000231261
0.000232376
0.0002355
0.000238231
0.000237342
0.000238757
0.000239616
0.000109792
1.94429e-05
1.92757e-05
1.94429e-05
1.95024e-05
7.27556e-05
9.69111e-05
0.000153584
0.000148658
6.7151e-05
4.00662e-09
7.7086e-10
1.31272e-10
6.1378e-11
7.9148e-12
5.09554e-12
5.4818e-12
4.46679e-11
8.85103e-11
4.47964e-10
3.55158e-09
2.23869e-08
2.27102e-07
1.95428e-06
2.44052e-06
5.24929e-06
8.20078e-06
9.40179e-06
1.27534e-05
3.57398e-05
8.55656e-05
4.00894e-05
2.79779e-05
5.62367e-05
5.58537e-05
3.4998e-05
5.57447e-06
1.21457e-10
6.59135e-07
8.69811e-07
8.02145e-10
2.27247e-10
2.53229e-10
1.67816e-10
1.29446e-11
4.09052e-11
5.2196e-11
4.48482e-11
5.17837e-11
6.90943e-10
7.53272e-09
3.33644e-06
3.22267e-06
7.68006e-07
4.17724e-07
3.17949e-06
1.64185e-06
9.91994e-10
1.07851e-09
1.09086e-09
1.53771e-09
4.9005e-06
7.70199e-05
7.63802e-05
1.8573e-05
1.87316e-05
1.77375e-05
2.53006e-05
7.08535e-05
3.37857e-05
1.92651e-05
1.92864e-05
1.91574e-05
0.000171421
0.000235043
0.000236653
0.000237446
0.000238935
0.00023962
0.000239826
0.000239616
0.00010013
1.94429e-05
1.93939e-05
1.95869e-05
1.98597e-05
1.98089e-05
0.000106392
0.000144056
5.62691e-05
1.29456e-08
2.47169e-09
3.96228e-10
1.34125e-10
2.41708e-11
5.15965e-12
4.82685e-12
1.72541e-11
7.19464e-11
5.09062e-10
4.10631e-09
3.43021e-08
2.16683e-07
5.12026e-06
3.83537e-05
5.36512e-05
3.06696e-05
1.34316e-05
4.14204e-05
0.000125919
0.000123491
5.89279e-05
1.71958e-05
3.13307e-05
4.30343e-05
2.8143e-05
5.1377e-05
1.21367e-10
2.73115e-08
4.24407e-07
2.27663e-10
2.27362e-10
2.64354e-10
2.76296e-10
2.62731e-12
1.33003e-11
1.81943e-11
1.93298e-11
6.02369e-12
3.3271e-11
3.88738e-10
8.74963e-08
1.6323e-07
1.41035e-07
1.39684e-07
3.06957e-08
8.35775e-10
-7.46206e-12
9.5093e-10
1.08346e-09
1.09086e-09
5.40926e-05
7.70199e-05
6.38154e-05
2.6342e-06
9.08591e-06
4.19412e-05
6.65348e-05
7.30183e-05
6.97372e-05
1.9333e-05
1.92291e-05
1.8581e-05
2.05929e-05
0.000210381
0.000238071
0.000239039
0.00023962
0.000239826
0.000239826
0.000239826
0.000239675
0.000132263
2.11661e-05
1.98642e-05
1.97801e-05
1.98597e-05
2.83886e-05
0.000143249
1.41176e-05
1.23553e-07
1.1501e-08
1.33404e-09
7.57722e-10
6.98492e-11
4.82685e-12
3.95687e-12
5.40852e-12
4.82804e-11
1.18388e-10
3.52002e-09
3.09161e-08
2.17406e-07
2.90062e-06
8.00935e-05
0.000126174
0.000126979
0.000124507
0.000127214
0.000127285
0.000125859
0.000108979
1.02134e-05
5.27753e-06
1.36718e-05
2.9769e-05
5.15244e-05
1.21028e-10
7.88351e-11
1.23616e-09
3.79753e-08
2.57826e-09
2.18183e-11
2.96032e-10
1.17168e-12
1.84247e-12
3.48898e-12
4.76975e-12
4.39348e-12
2.8307e-12
1.6793e-11
3.66585e-10
5.81092e-10
3.50891e-10
1.7507e-10
3.70443e-11
7.64822e-12
5.14672e-12
1.00914e-09
8.79057e-10
1.13795e-09
7.57456e-05
7.70199e-05
2.86788e-05
2.31326e-08
9.7772e-10
4.71596e-05
7.30183e-05
7.33906e-05
7.31215e-05
2.46585e-05
1.85901e-05
1.81429e-05
1.66721e-05
3.79516e-05
0.000174977
0.000237603
0.000239124
0.000239741
0.000239826
0.000239795
0.000239763
0.000239644
7.31106e-05
2.11706e-05
2.01048e-05
2.05684e-05
7.08973e-05
0.000138848
1.66892e-05
1.23402e-07
3.70489e-08
5.78232e-09
3.35679e-09
2.586e-10
9.82053e-12
3.62951e-12
3.95475e-12
2.35419e-11
1.89947e-10
2.10271e-09
1.61988e-08
1.232e-07
7.25288e-07
3.28998e-05
0.000126992
0.000127447
0.000127604
0.000127785
0.000127669
0.000127241
0.000125633
5.40962e-05
1.68648e-06
8.97523e-06
3.57702e-05
4.21509e-05
1.07131e-10
7.05435e-11
7.19063e-09
4.39434e-08
1.02735e-08
6.24033e-12
2.48788e-10
2.90464e-12
1.33394e-13
4.64439e-13
8.55291e-13
1.25401e-12
1.1546e-12
9.43852e-13
1.22144e-11
2.02961e-11
9.91513e-12
4.65891e-12
1.69466e-12
4.33404e-12
5.11762e-12
5.14672e-12
2.28801e-11
1.3809e-05
7.34422e-05
4.75558e-05
3.47285e-07
1.53929e-10
2.03268e-11
3.48835e-05
7.33906e-05
7.33906e-05
7.33906e-05
7.12288e-05
1.81445e-05
1.67323e-05
1.44915e-05
1.17165e-05
2.05016e-05
7.86014e-05
0.000170574
0.000239124