/*--------------------------------*- C++ -*----------------------------------*\
| =========                 |                                                 |
| \\      /  F ield         | OpenFOAM: The Open Source CFD Toolbox           |
|  \\    /   O peration     | Version:  2412                                  |
|   \\  /    A nd           | Website:  www.openfoam.com                      |
|    \\/     M anipulation  |                                                 |
\*---------------------------------------------------------------------------*/
FoamFile
{
    version     2.0;
    format      ascii;
    arch        "LSB;label=32;scalar=64";
    class       surfaceScalarField;
    location    "6.95";
    object      phi;
}
// * * * * * * * * * * * * * * * * * * * * * * * * * * * * * * * * * * * * * //

dimensions      [0 3 -1 0 0 0 0];

oriented        oriented;

internalField   nonuniform List<scalar> 
12640
(
-4.26877e-06
4.26877e-06
-3.85656e-06
-4.12282e-07
-4.34964e-06
4.92889e-07
-5.10661e-06
7.56627e-07
-5.31167e-06
2.04697e-07
-4.63175e-06
-6.80191e-07
-3.00435e-06
-1.62754e-06
-4.35188e-07
-2.56927e-06
3.02707e-06
-3.4624e-06
7.3957e-06
-4.36875e-06
1.25646e-05
-5.16906e-06
1.83884e-05
-5.8241e-06
2.46756e-05
-6.28731e-06
3.1194e-05
-6.5186e-06
3.78937e-05
-6.69981e-06
4.46042e-05
-6.71039e-06
5.12251e-05
-6.62081e-06
5.76013e-05
-6.37629e-06
6.36367e-05
-6.0353e-06
6.92038e-05
-5.56713e-06
7.41547e-05
-4.95108e-06
7.83173e-05
-4.16267e-06
8.1578e-05
-3.26064e-06
8.376e-05
-2.18175e-06
8.4735e-05
-9.74665e-07
8.44276e-05
3.07733e-07
8.29077e-05
1.52046e-06
8.02493e-05
2.65871e-06
7.66089e-05
3.6405e-06
7.22031e-05
4.40592e-06
6.71246e-05
5.07831e-06
6.13575e-05
5.76674e-06
5.49732e-05
6.38384e-06
4.8149e-05
6.82343e-06
4.12725e-05
6.87577e-06
3.45169e-05
6.75553e-06
2.8041e-05
6.47624e-06
2.17832e-05
6.2577e-06
1.56533e-05
6.12924e-06
9.49319e-06
6.15953e-06
3.09155e-06
6.40132e-06
-3.7993e-06
6.89055e-06
-1.13582e-05
7.5587e-06
-1.97045e-05
8.34628e-06
-2.87791e-05
9.07453e-06
-3.85693e-05
9.79008e-06
-4.87411e-05
1.0172e-05
-5.88744e-05
1.01335e-05
-6.85319e-05
9.65724e-06
-7.73673e-05
8.83485e-06
-8.51421e-05
7.77468e-06
-9.17307e-05
6.5885e-06
-9.69036e-05
5.17281e-06
-0.000100438
3.53403e-06
-0.000102187
1.74958e-06
-0.000102098
-8.90309e-08
-0.000100267
-1.83046e-06
-9.69595e-05
-3.30831e-06
-9.23595e-05
-4.60105e-06
-8.671e-05
-5.65071e-06
-8.02361e-05
-6.47536e-06
-7.31697e-05
-7.06804e-06
-6.56203e-05
-7.55077e-06
-5.7787e-05
-7.83515e-06
-4.98056e-05
-7.98392e-06
-4.18046e-05
-8.00314e-06
-3.39161e-05
-7.88956e-06
-2.62959e-05
-7.6202e-06
-1.91903e-05
-7.10565e-06
-1.27863e-05
-6.40507e-06
-7.18337e-06
-5.60469e-06
-2.5065e-06
-4.67853e-06
1.06757e-06
-3.57502e-06
3.55157e-06
-2.48409e-06
4.87525e-06
-1.32387e-06
5.13526e-06
-2.60436e-07
4.55301e-06
5.82695e-07
3.98328e-06
5.70179e-07
4.22702e-06
-2.44338e-07
4.22792e-06
-6.0333e-06
1.0302e-05
-7.13607e-06
6.9e-07
-9.20677e-06
2.56295e-06
-1.10857e-05
2.63489e-06
-1.19284e-05
1.04699e-06
-1.14757e-05
-1.13322e-06
-9.60047e-06
-3.50302e-06
-6.35516e-06
-5.81486e-06
-1.87036e-06
-7.94765e-06
3.60268e-06
-9.84223e-06
9.88627e-06
-1.1453e-05
1.67375e-05
-1.26758e-05
2.40148e-05
-1.35649e-05
3.16132e-05
-1.41169e-05
3.93187e-05
-1.44053e-05
4.69418e-05
-1.43334e-05
5.42982e-05
-1.3977e-05
6.1378e-05
-1.34562e-05
6.79745e-05
-1.2632e-05
7.40052e-05
-1.15978e-05
7.94118e-05
-1.03575e-05
8.41397e-05
-8.89022e-06
8.81535e-05
-7.274e-06
9.14628e-05
-5.49049e-06
9.40725e-05
-3.58376e-06
9.59617e-05
-1.58092e-06
9.70486e-05
4.33985e-07
9.71637e-05
2.54385e-06
9.62495e-05
4.5545e-06
9.41012e-05
6.55394e-06
9.06894e-05
8.4893e-06
8.61289e-05
1.03263e-05
8.04399e-05
1.2072e-05
7.36741e-05
1.35889e-05
6.57119e-05
1.48377e-05
5.655e-05
1.59165e-05
4.62204e-05
1.68048e-05
3.48745e-05
1.7603e-05
2.26916e-05
1.83117e-05
9.88413e-06
1.89666e-05
-3.34226e-06
1.96274e-05
-1.67274e-05
2.02755e-05
-2.99629e-05
2.07941e-05
-4.27706e-05
2.1154e-05
-5.49456e-05
2.125e-05
-6.61488e-05
2.09934e-05
-7.63392e-05
2.0362e-05
-8.54671e-05
1.92609e-05
-9.3479e-05
1.76688e-05
-0.000100288
1.56432e-05
-0.000105748
1.32351e-05
-0.000109734
1.05737e-05
-0.000112196
7.63534e-06
-0.000113237
4.57609e-06
-0.000112924
1.43655e-06
-0.000111325
-1.68769e-06
-0.000108448
-4.7072e-06
-0.000104359
-7.39811e-06
-9.91325e-05
-9.82836e-06
-9.28424e-05
-1.19415e-05
-8.56431e-05
-1.36752e-05
-7.76202e-05
-1.5092e-05
-6.8997e-05
-1.6175e-05
-5.99696e-05
-1.68632e-05
-5.08228e-05
-1.7131e-05
-4.17524e-05
-1.70738e-05
-3.29186e-05
-1.67236e-05
-2.45008e-05
-1.60385e-05
-1.65842e-05
-1.50232e-05
-9.31736e-06
-1.36734e-05
-2.87477e-06
-1.20489e-05
2.45603e-06
-1.00101e-05
6.57181e-06
-7.69119e-06
9.19521e-06
-5.10807e-06
1.03857e-05
-2.51464e-06
1.00819e-05
4.37945e-08
8.58448e-06
2.07983e-06
6.87043e-06
2.2831e-06
5.90452e-06
7.2403e-07
1.01301e-05
-5.81403e-06
1.61159e-05
-6.72145e-06
1.59668e-06
-8.63334e-06
4.47414e-06
-1.05413e-05
4.54229e-06
-1.14662e-05
1.97138e-06
-1.10408e-05
-1.55899e-06
-9.22226e-06
-5.32215e-06
-6.04511e-06
-8.99267e-06
-1.67402e-06
-1.23194e-05
3.61997e-06
-1.51369e-05
9.793e-06
-1.76263e-05
1.66309e-05
-1.95139e-05
2.38454e-05
-2.07794e-05
3.13785e-05
-2.165e-05
3.90186e-05
-2.20452e-05
4.66235e-05
-2.19385e-05
5.40731e-05
-2.14266e-05
6.12351e-05
-2.06181e-05
6.79703e-05
-1.93669e-05
7.41851e-05
-1.78123e-05
7.97545e-05
-1.59265e-05
8.46081e-05
-1.37434e-05
8.86198e-05
-1.12853e-05
9.17999e-05
-8.6702e-06
9.40523e-05
-5.83588e-06
9.5351e-05
-2.87957e-06
9.56016e-05
1.8337e-07
9.48539e-05
3.29152e-06
9.29486e-05
6.45962e-06
8.99553e-05
9.54706e-06
8.59342e-05
1.25104e-05
8.09605e-05
1.53003e-05
7.52125e-05
1.78198e-05
6.85939e-05
2.02063e-05
6.10145e-05
2.24161e-05
5.25766e-05
2.43541e-05
4.32217e-05
2.616e-05
3.3078e-05
2.77471e-05
2.22106e-05
2.91795e-05
1.0789e-05
3.03886e-05
-1.05858e-06
3.14753e-05
-1.31657e-05
3.23829e-05
-2.52942e-05
3.29232e-05
-3.72777e-05
3.31379e-05
-4.88978e-05
3.28698e-05
-5.99519e-05
3.20472e-05
-7.03111e-05
3.07217e-05
-7.99194e-05
2.88699e-05
-8.86668e-05
2.64166e-05
-9.64973e-05
2.34742e-05
-0.000103076
1.98153e-05
-0.000108155
1.56538e-05
-0.000111573
1.10551e-05
-0.0001134
6.40423e-06
-0.000113574
1.61221e-06
-0.000112176
-3.08337e-06
-0.000109314
-7.56662e-06
-0.000105025
-1.16839e-05
-9.95168e-05
-1.53324e-05
-9.29358e-05
-1.8519e-05
-8.54351e-05
-2.11722e-05
-7.72253e-05
-2.32971e-05
-6.85402e-05
-2.48553e-05
-5.95928e-05
-2.58078e-05
-5.05212e-05
-2.6202e-05
-4.15032e-05
-2.60921e-05
-3.27198e-05
-2.55066e-05
-2.42904e-05
-2.44667e-05
-1.6367e-05
-2.29462e-05
-9.07794e-06
-2.09631e-05
-2.62423e-06
-1.85033e-05
2.70288e-06
-1.5337e-05
6.81451e-06
-1.18026e-05
9.52592e-06
-7.81973e-06
1.06744e-05
-3.66337e-06
1.02345e-05
4.84106e-07
8.70449e-06
3.60955e-06
7.04738e-06
3.94141e-06
5.99056e-06
1.77915e-06
1.61201e-05
-6.69042e-06
2.28059e-05
-7.90733e-06
2.81273e-06
-1.02306e-05
6.79673e-06
-1.28058e-05
7.11688e-06
-1.42482e-05
3.41317e-06
-1.41373e-05
-1.67053e-06
-1.23533e-05
-7.10708e-06
-9.02422e-06
-1.23226e-05
-4.37948e-06
-1.69649e-05
1.50693e-06
-2.10238e-05
8.09909e-06
-2.42187e-05
1.53585e-05
-2.67732e-05
2.31343e-05
-2.8555e-05
3.10515e-05
-2.95673e-05
3.90474e-05
-3.00411e-05
4.69582e-05
-2.98492e-05
5.47521e-05
-2.92204e-05
6.21367e-05
-2.80024e-05
6.91789e-05
-2.64085e-05
7.56492e-05
-2.42819e-05
8.14297e-05
-2.17062e-05
8.64433e-05
-1.87565e-05
9.06207e-05
-1.54626e-05
9.38059e-05
-1.18553e-05
9.59482e-05
-7.97804e-06
9.70735e-05
-4.00457e-06
9.7026e-05
2.31392e-07
9.58201e-05
4.49798e-06
9.35111e-05
8.76945e-06
9.01142e-05
1.29446e-05
8.56989e-05
1.69257e-05
8.03057e-05
2.06934e-05
7.39488e-05
2.41772e-05
6.67955e-05
2.73605e-05
5.89044e-05
3.03083e-05
5.03728e-05
3.2887e-05
4.13234e-05
3.52107e-05
3.18332e-05
3.72381e-05
2.20019e-05
3.90115e-05
1.17145e-05
4.06768e-05
1.02141e-06
4.21693e-05
-1.00802e-05
4.34852e-05
-2.15804e-05
4.44242e-05
-3.33217e-05
4.48804e-05
-4.51501e-05
4.46999e-05
-5.68252e-05
4.37238e-05
-6.81037e-05
4.20016e-05
-7.87643e-05
3.95318e-05
-8.85575e-05
3.62111e-05
-9.71784e-05
3.20964e-05
-0.000104508
2.7146e-05
-0.00011033
2.14755e-05
-0.000114442
1.51672e-05
-0.000116774
8.7362e-06
-0.000117184
2.02332e-06
-0.000115844
-4.42247e-06
-0.000112818
-1.05916e-05
-0.000108268
-1.62325e-05
-0.000102356
-2.12422e-05
-9.52866e-05
-2.55862e-05
-8.72926e-05
-2.91644e-05
-7.86171e-05
-3.19721e-05
-6.94768e-05
-3.39963e-05
-6.00848e-05
-3.52013e-05
-5.05694e-05
-3.57182e-05
-4.10993e-05
-3.5562e-05
-3.18185e-05
-3.47865e-05
-2.2912e-05
-3.33725e-05
-1.45014e-05
-3.13567e-05
-6.73047e-06
-2.87335e-05
1.02244e-07
-2.53346e-05
5.95801e-06
-2.11915e-05
1.04125e-05
-1.62573e-05
1.32003e-05
-1.06079e-05
1.41187e-05
-4.58169e-06
1.32171e-05
1.38507e-06
1.0963e-05
5.86226e-06
8.68543e-06
6.22074e-06
7.13874e-06
3.32365e-06
2.32601e-05
-8.05428e-06
3.08596e-05
-9.99133e-06
4.749e-06
-1.31731e-05
9.97785e-06
-1.66656e-05
1.06089e-05
-1.88905e-05
5.63748e-06
-1.91692e-05
-1.39252e-06
-1.73591e-05
-8.91793e-06
-1.36173e-05
-1.60651e-05
-8.26619e-06
-2.23164e-05
-1.71567e-06
-2.75744e-05
5.71772e-06
-3.1652e-05
1.37514e-05
-3.4807e-05
2.20715e-05
-3.68751e-05
3.0736e-05
-3.82317e-05
3.93374e-05
-3.86426e-05
4.7856e-05
-3.83675e-05
5.61239e-05
-3.74878e-05
6.40516e-05
-3.59295e-05
7.15104e-05
-3.38668e-05
7.83697e-05
-3.11408e-05
8.4551e-05
-2.78873e-05
8.99096e-05
-2.4115e-05
9.4379e-05
-1.99317e-05
9.78141e-05
-1.52898e-05
0.000100188
-1.03511e-05
0.000101376
-5.19221e-06
0.000101448
1.5986e-07
0.000100275
5.67094e-06
9.78945e-05
1.11501e-05
9.4328e-05
1.65108e-05
8.96923e-05
2.15617e-05
8.39808e-05
2.64059e-05
7.72519e-05
3.09077e-05
6.96042e-05
3.50094e-05
6.1268e-05
3.86451e-05
5.23488e-05
4.18064e-05
4.30513e-05
4.45085e-05
3.33942e-05
4.68958e-05
2.3453e-05
4.89536e-05
1.31069e-05
5.10242e-05
2.34927e-06
5.2928e-05
-8.98526e-06
5.48212e-05
-2.08579e-05
5.62983e-05
-3.32087e-05
5.72324e-05
-4.57873e-05
5.72791e-05
-5.83622e-05
5.62992e-05
-7.05966e-05
5.42363e-05
-8.21749e-05
5.11104e-05
-9.28598e-05
4.68958e-05
-0.000102348
4.15839e-05
-0.000110348
3.51453e-05
-0.000116652
2.77782e-05
-0.000121037
1.9551e-05
-0.000123388
1.10857e-05
-0.000123815
2.4483e-06
-0.000122172
-6.06741e-06
-0.000118734
-1.4031e-05
-0.000113595
-2.13734e-05
-0.000106966
-2.78739e-05
-9.91184e-05
-3.34383e-05
-9.03006e-05
-3.79865e-05
-8.0799e-05
-4.14762e-05
-7.08855e-05
-4.39097e-05
-6.07345e-05
-4.53506e-05
-5.05626e-05
-4.58883e-05
-4.0432e-05
-4.56914e-05
-3.05486e-05
-4.46696e-05
-2.09845e-05
-4.29367e-05
-1.18715e-05
-4.04699e-05
-3.37402e-06
-3.72304e-05
4.21578e-06
-3.29234e-05
1.08003e-05
-2.77757e-05
1.58317e-05
-2.12893e-05
1.8836e-05
-1.36123e-05
1.95138e-05
-5.2595e-06
1.79181e-05
2.97944e-06
1.46747e-05
9.1065e-06
1.1304e-05
9.59069e-06
8.72535e-06
5.90136e-06
3.19865e-05
-9.70652e-06
4.05656e-05
-1.27187e-05
7.76065e-06
-1.69744e-05
1.42332e-05
-2.19445e-05
1.55789e-05
-2.52764e-05
8.96909e-06
-2.60564e-05
-6.1295e-07
-2.41144e-05
-1.08601e-05
-1.96625e-05
-2.05171e-05
-1.33065e-05
-2.86725e-05
-5.70332e-06
-3.51774e-05
2.82306e-06
-4.01781e-05
1.16952e-05
-4.36789e-05
2.10017e-05
-4.61815e-05
3.02952e-05
-4.75249e-05
3.96882e-05
-4.80353e-05
4.89068e-05
-4.75858e-05
5.7744e-05
-4.63246e-05
6.63731e-05
-4.45582e-05
7.44847e-05
-4.19788e-05
8.19429e-05
-3.85997e-05
8.86545e-05
-3.45996e-05
9.44985e-05
-2.99596e-05
9.94049e-05
-2.48383e-05
0.00010318
-1.9065e-05
0.000105815
-1.29859e-05
0.000107197
-6.57473e-06
0.000107291
6.63953e-08
0.000106137
6.8245e-06
0.000103694
1.35928e-05
9.99819e-05
2.02224e-05
9.50882e-05
2.64552e-05
8.90512e-05
3.24427e-05
8.19698e-05
3.7989e-05
7.3947e-05
4.30323e-05
6.51798e-05
4.74131e-05
5.58157e-05
5.11717e-05
4.60529e-05
5.42726e-05
3.5998e-05
5.69516e-05
2.56839e-05
5.92683e-05
1.50241e-05
6.16849e-05
3.85098e-06
6.41017e-05
-8.04289e-06
6.67156e-05
-2.0651e-05
6.89071e-05
-3.38086e-05
7.03906e-05
-4.73374e-05
7.08081e-05
-6.0977e-05
6.9939e-05
-7.43275e-05
6.75871e-05
-8.70466e-05
6.38299e-05
-9.88224e-05
5.86719e-05
-0.000109299
5.20605e-05
-0.000118186
4.40324e-05
-0.000125079
3.46718e-05
-0.000129926
2.43985e-05
-0.000132485
1.3645e-05
-0.000132681
2.64401e-06
-0.000130672
-8.07719e-06
-0.000126553
-1.8151e-05
-0.000120557
-2.73714e-05
-0.000112926
-3.55058e-05
-0.000104007
-4.23565e-05
-9.41025e-05
-4.78881e-05
-8.35585e-05
-5.20177e-05
-7.26185e-05
-5.48485e-05
-6.15164e-05
-5.64527e-05
-5.0443e-05
-5.69621e-05
-3.95903e-05
-5.65448e-05
-2.89369e-05
-5.5323e-05
-1.85903e-05
-5.32826e-05
-8.67656e-06
-5.03821e-05
6.22187e-07
-4.65272e-05
9.44997e-06
-4.17501e-05
1.71208e-05
-3.54471e-05
2.30718e-05
-2.72407e-05
2.65507e-05
-1.70907e-05
2.69575e-05
-5.66548e-06
2.43454e-05
5.59135e-06
1.95003e-05
1.39531e-05
1.47714e-05
1.43161e-05
1.08673e-05
9.80582e-06
4.28508e-05
-1.13394e-05
5.19046e-05
-1.58292e-05
1.22505e-05
-2.16505e-05
2.00546e-05
-2.89726e-05
2.29013e-05
-3.38895e-05
1.38863e-05
-3.53501e-05
8.47869e-07
-3.30894e-05
-1.31205e-05
-2.75609e-05
-2.60451e-05
-1.96824e-05
-3.65505e-05
-1.04507e-05
-4.44088e-05
-5.75382e-07
-5.00533e-05
9.51514e-06
-5.3769e-05
1.97673e-05
-5.64332e-05
3.00661e-05
-5.78229e-05
4.0194e-05
-5.81627e-05
5.01464e-05
-5.75383e-05
5.9941e-05
-5.612e-05
6.92836e-05
-5.39019e-05
7.81189e-05
-5.0815e-05
8.63288e-05
-4.68101e-05
9.37563e-05
-4.20274e-05
0.000100211
-3.64148e-05
0.000105545
-3.01725e-05
0.000109707
-2.32286e-05
0.000112659
-1.59389e-05
0.000114285
-8.20131e-06
0.000114464
-1.13347e-07
0.000113248
8.04017e-06
0.000110718
1.61235e-05
0.000106889
2.40506e-05
0.000101642
3.17016e-05
9.52135e-05
3.8871e-05
8.76367e-05
4.55663e-05
7.90411e-05
5.16282e-05
6.96575e-05
5.67972e-05
5.9743e-05
6.10869e-05
4.95121e-05
6.45044e-05
3.90362e-05
6.74283e-05
2.847e-05
6.98352e-05
1.75248e-05
7.2631e-05
6.03024e-06
7.55968e-05
-6.42034e-06
7.91667e-05
-1.98327e-05
8.23202e-05
-3.4078e-05
8.46371e-05
-4.88743e-05
8.56054e-05
-6.38708e-05
8.49363e-05
-7.87047e-05
8.2422e-05
-9.29416e-05
7.80678e-05
-0.000106146
7.18775e-05
-0.000117971
6.38882e-05
-0.000127939
5.4002e-05
-0.000135759
4.24937e-05
-0.000141136
2.97773e-05
-0.000143841
1.63508e-05
-0.000143815
2.62009e-06
-0.000141294
-1.05961e-05
-0.000136285
-2.31561e-05
-0.000129142
-3.45111e-05
-0.00012023
-4.44144e-05
-0.000109904
-5.26807e-05
-9.86623e-05
-5.91297e-05
-8.679e-05
-6.38901e-05
-7.46013e-05
-6.70373e-05
-6.23723e-05
-6.86812e-05
-5.03178e-05
-6.90158e-05
-3.85116e-05
-6.83504e-05
-2.70174e-05
-6.68171e-05
-1.58278e-05
-6.4472e-05
-4.96661e-06
-6.12427e-05
5.54765e-06
-5.70409e-05
1.56957e-05
-5.18981e-05
2.50622e-05
-4.48136e-05
3.26756e-05
-3.48523e-05
3.70667e-05
-2.14798e-05
3.70695e-05
-5.66842e-06
3.29543e-05
9.70507e-06
2.58242e-05
2.10823e-05
1.90514e-05
2.10878e-05
1.31338e-05
1.57263e-05
5.5986e-05
-1.26701e-05
6.45747e-05
-1.90368e-05
1.86179e-05
-2.69117e-05
2.79302e-05
-3.80666e-05
3.40569e-05
-4.54272e-05
2.12476e-05
-4.81285e-05
3.5501e-06
-4.52796e-05
-1.59688e-05
-3.75897e-05
-3.37343e-05
-2.73387e-05
-4.68007e-05
-1.59571e-05
-5.57895e-05
-4.33834e-06
-6.16714e-05
7.27603e-06
-6.53828e-05
1.85876e-05
-6.77449e-05
2.99068e-05
-6.91425e-05
4.09891e-05
-6.92455e-05
5.19085e-05
-6.84577e-05
6.24911e-05
-6.67022e-05
7.26781e-05
-6.40885e-05
8.24258e-05
-6.05626e-05
9.15778e-05
-5.59628e-05
9.98205e-05
-5.02712e-05
0.000107074
-4.36696e-05
0.000113071
-3.6171e-05
0.000117817
-2.79768e-05
0.00012103
-1.91519e-05
0.000122756
-9.9286e-06
0.000123163
-5.20367e-07
0.000121916
9.28605e-06
0.000119368
1.86711e-05
0.000115233
2.8185e-05
0.000109679
3.72544e-05
0.000102666
4.5883e-05
9.43572e-05
5.38749e-05
8.49937e-05
6.09915e-05
7.4807e-05
6.69839e-05
6.41271e-05
7.1767e-05
5.32492e-05
7.53824e-05
4.24932e-05
7.8184e-05
3.16866e-05
8.06418e-05
2.06369e-05
8.36807e-05
8.94562e-06
8.72883e-05
-3.9562e-06
9.20688e-05
-1.82769e-05
9.66408e-05
-3.38265e-05
0.000100186
-5.02364e-05
0.000102015
-6.70412e-05
0.000101741
-8.37694e-05
9.91502e-05
-9.9922e-05
9.42204e-05
-0.000115
8.69549e-05
-0.000128537
7.74244e-05
-0.000140004
6.54675e-05
-0.000148949
5.14385e-05
-0.000155046
3.58736e-05
-0.00015811
1.94146e-05
-0.000157932
2.4436e-06
-0.000154491
-1.40367e-05
-0.000148282
-2.93661e-05
-0.000139691
-4.31038e-05
-0.000129086
-5.50203e-05
-0.000117066
-6.47013e-05
-0.000104012
-7.21838e-05
-9.04068e-05
-7.74967e-05
-7.66753e-05
-8.077e-05
-6.31126e-05
-8.2245e-05
-4.99386e-05
-8.21906e-05
-3.71515e-05
-8.11381e-05
-2.47736e-05
-7.91953e-05
-1.27709e-05
-7.64747e-05
-1.08672e-06
-7.29265e-05
1.07562e-05
-6.8884e-05
2.28114e-05
-6.39541e-05
3.47802e-05
-5.67831e-05
4.52811e-05
-4.53534e-05
5.13793e-05
-2.75782e-05
5.09156e-05
-5.20548e-06
4.44559e-05
1.61668e-05
3.319e-05
3.23499e-05
2.39488e-05
3.03337e-05
1.53998e-05
2.4275e-05
7.1388e-05
-1.46361e-05
7.92112e-05
-2.42369e-05
2.82198e-05
-3.36858e-05
3.73801e-05
-4.94776e-05
4.98497e-05
-6.09451e-05
3.27161e-05
-6.53598e-05
7.96595e-06
-6.13926e-05
-1.99348e-05
-5.02905e-05
-4.48354e-05
-3.63019e-05
-6.07888e-05
-2.18116e-05
-7.02794e-05
-8.01816e-06
-7.54646e-05
5.0738e-06
-7.84746e-05
1.77649e-05
-8.04357e-05
3.0097e-05
-8.14741e-05
4.22827e-05
-8.14311e-05
5.41215e-05
-8.02969e-05
6.56327e-05
-7.82143e-05
7.68157e-05
-7.52726e-05
8.764e-05
-7.13881e-05
9.78894e-05
-6.62133e-05
0.00010724
-5.96229e-05
0.000115364
-5.17945e-05
0.000122088
-4.28953e-05
0.000127427
-3.33159e-05
0.000131058
-2.27845e-05
0.000133112
-1.19842e-05
0.000133503
-9.11989e-07
0.000132479
1.03091e-05
0.000129755
2.13946e-05
0.000125421
3.25187e-05
0.000119329
4.33456e-05
0.000111639
5.35727e-05
0.000102443
6.30712e-05
9.20057e-05
7.14285e-05
8.07386e-05
7.82505e-05
6.90735e-05
8.34315e-05
5.7536e-05
8.69192e-05
4.63855e-05
8.93334e-05
3.54893e-05
9.15372e-05
2.45638e-05
9.46057e-05
1.29034e-05
9.8948e-05
-5.5401e-07
0.000105525
-1.58866e-05
0.000111972
-3.2982e-05
0.00011728
-5.14047e-05
0.000120436
-7.05282e-05
0.000120862
-8.96794e-05
0.000118299
-0.000108275
0.000112813
-0.000125732
0.00010441
-0.000141443
9.31322e-05
-0.000154879
7.89005e-05
-0.000165246
6.18026e-05
-0.000172415
4.30404e-05
-0.000175741
2.27386e-05
-0.00017502
1.72008e-06
-0.000170535
-1.85254e-05
-0.000162781
-3.71236e-05
-0.00015224
-5.36495e-05
-0.000139579
-6.76851e-05
-0.000125307
-7.89755e-05
-0.000110009
-8.74826e-05
-9.43226e-05
-9.31834e-05
-7.87592e-05
-9.63331e-05
-6.37234e-05
-9.72803e-05
-4.92949e-05
-9.66192e-05
-3.55175e-05
-9.49159e-05
-2.23491e-05
-9.23643e-05
-9.62424e-06
-8.91998e-05
2.80279e-06
-8.5354e-05
1.59383e-05
-8.20199e-05
3.0365e-05
-7.83814e-05
4.61924e-05
-7.26098e-05
6.16473e-05
-6.08069e-05
7.09961e-05
-3.69259e-05
6.95874e-05
-3.79742e-06
5.9318e-05
2.64374e-05
4.29735e-05
4.86931e-05
3.10963e-05
4.22124e-05
1.87421e-05
3.66286e-05
9.0129e-05
-1.56298e-05
9.48416e-05
-3.65744e-05
4.91655e-05
-4.7835e-05
4.86418e-05
-6.62156e-05
6.82313e-05
-8.24495e-05
4.8951e-05
-8.88636e-05
1.4381e-05
-8.29675e-05
-2.583e-05
-6.58089e-05
-6.19932e-05
-4.60103e-05
-8.05867e-05
-2.73251e-05
-8.8964e-05
-1.07518e-05
-9.20375e-05
4.05102e-06
-9.32777e-05
1.79089e-05
-9.42943e-05
3.12478e-05
-9.48142e-05
4.43944e-05
-9.45787e-05
5.72186e-05
-9.31214e-05
6.97366e-05
-9.07323e-05
8.21704e-05
-8.77063e-05
9.42279e-05
-8.34455e-05
0.000105747
-7.77324e-05
0.000116347
-7.02233e-05
0.000125586
-6.10336e-05
0.000133208
-5.05171e-05
0.00013895
-3.90589e-05
0.000143091
-2.6926e-05
0.000145353
-1.42462e-05
0.00014597
-1.52936e-06
0.000144912
1.13669e-05
0.000142092
2.42145e-05
0.000137535
3.70757e-05
0.000131018
4.98619e-05
0.000122498
6.20923e-05
0.000112184
7.33845e-05
0.000100386
8.32264e-05
8.76872e-05
9.09493e-05
7.47548e-05
9.63636e-05
6.20538e-05
9.96197e-05
5.00993e-05
0.000101287
3.93242e-05
0.000102312
2.98292e-05
0.0001041
1.92603e-05
0.000109516
5.25072e-06
0.000119534
-1.21441e-05
0.000129366
-3.15583e-05
0.000136694
-5.25222e-05
0.000141399
-7.43912e-05
0.000142731
-9.64716e-05
0.000140379
-0.000118045
0.000134385
-0.000138551
0.000124916
-0.00015716
0.00011174
-0.00017309
9.483e-05
-0.000185678
7.43896e-05
-0.000193804
5.11646e-05
-0.00019743
2.63621e-05
-0.000196097
3.85212e-07
-0.000190333
-2.42915e-05
-0.000180596
-4.68611e-05
-0.000167635
-6.66104e-05
-0.000152191
-8.3128e-05
-0.000135049
-9.61165e-05
-0.000116967
-0.000105564
-9.87203e-05
-0.00011143
-8.10041e-05
-0.00011405
-6.41921e-05
-0.000114093
-4.84375e-05
-0.000112374
-3.37301e-05
-0.000109623
-1.99067e-05
-0.000106186
-7.0608e-06
-0.000102044
6.07573e-06
-9.84897e-05
2.03285e-05
-9.62718e-05
3.77439e-05
-9.57949e-05
5.96224e-05
-9.44871e-05
8.358e-05
-8.47645e-05
9.85454e-05
-5.18917e-05
9.62242e-05
-1.47624e-06
8.07898e-05
4.18741e-05
6.02344e-05
6.92505e-05
4.59176e-05
5.65286e-05
2.26752e-05
5.98741e-05
0.000112806
-5.08501e-06
9.99273e-05
-4.9345e-05
9.34266e-05
-7.55053e-05
7.48029e-05
-9.64313e-05
8.91583e-05
-0.000117742
7.02622e-05
-0.000126431
2.30718e-05
-0.000115393
-3.68678e-05
-8.55877e-05
-9.17979e-05
-5.5763e-05
-0.000110411
-3.1968e-05
-0.000112759
-1.31168e-05
-0.000110889
2.50011e-06
-0.000108895
1.68683e-05
-0.000108662
3.12748e-05
-0.000109221
4.5417e-05
-0.000108721
5.97836e-05
-0.000107488
7.4064e-05
-0.000105013
8.82735e-05
-0.000101916
0.000102179
-9.73509e-05
0.00011546
-9.10132e-05
0.000127649
-8.24111e-05
0.000138215
-7.15998e-05
0.000146808
-5.91107e-05
0.000153267
-4.55179e-05
0.000157612
-3.12711e-05
0.000160083
-1.67177e-05
0.000160984
-2.43037e-06
0.000159912
1.24385e-05
0.000157073
2.70536e-05
0.000152365
4.17833e-05
0.000145357
5.68704e-05
0.000135937
7.15122e-05
0.000124288
8.50335e-05
0.00011082
9.66948e-05
9.6023e-05
0.000105746
8.03349e-05
0.000112052
6.4766e-05
0.000115188
5.10985e-05
0.000114954
4.14234e-05
0.000111986
3.66372e-05
0.000108885
3.00969e-05
0.000116056
1.57989e-05
0.000133832
-4.73949e-06
0.000149905
-2.84899e-05
0.000160445
-5.35251e-05
0.000166435
-7.89934e-05
0.0001682
-0.000104641
0.000166028
-0.000129796
0.000159542
-0.000153943
0.000149066
-0.000176186
0.000133985
-0.000195457
0.000114102
-0.000210661
8.95932e-05
-0.000220803
6.13083e-05
-0.000224761
3.0322e-05
-0.000222668
-1.70521e-06
-0.000214904
-3.20523e-05
-0.0002024
-5.9365e-05
-0.000186224
-8.27862e-05
-0.000167287
-0.000102066
-0.000146559
-0.000116845
-0.000124891
-0.000127233
-0.000103208
-0.000133113
-8.23874e-05
-0.000134871
-6.30766e-05
-0.000133403
-4.55751e-05
-0.000129874
-2.98579e-05
-0.000125338
-1.56852e-05
-0.000120358
-2.47974e-06
-0.000115249
1.00184e-05
-0.000110986
2.37938e-05
-0.000110045
4.25642e-05
-0.000114564
7.30029e-05
-0.000124925
0.000117358
-0.000129118
0.000146072
-8.06037e-05
0.00014115
3.44808e-06
0.000118327
6.46968e-05
9.4084e-05
9.3496e-05
6.56416e-05
8.49711e-05
1.90805e-05
0.000106435
0.000131886
1.60355e-05
8.38923e-05
-2.46766e-05
0.00013414
-9.99295e-05
0.000150057
-0.000145268
0.000134498
-0.000176779
0.000101773
-0.000192522
3.88157e-05
-0.000169345
-6.00439e-05
-0.000110696
-0.000150446
-6.07537e-05
-0.000160353
-3.38334e-05
-0.000139679
-1.7727e-05
-0.000126995
-4.49028e-06
-0.000122131
8.83032e-06
-0.000121983
2.35862e-05
-0.000123977
3.96916e-05
-0.000124826
5.58203e-05
-0.000123617
7.27713e-05
-0.000121964
9.03376e-05
-0.000119482
0.000107583
-0.000114596
0.000123562
-0.000106993
0.00013806
-9.69102e-05
0.000150691
-8.42313e-05
0.000161129
-6.95476e-05
0.000168936
-5.33247e-05
0.000173936
-3.62705e-05
0.000176461
-1.92428e-05
0.000177057
-3.02646e-06
0.000175967
1.35275e-05
0.000173766
2.92545e-05
0.000169757
4.57931e-05
0.000162862
6.37657e-05
0.000152815
8.15598e-05
0.000139665
9.81831e-05
0.000123488
0.000112872
0.000104435
0.000124799
8.32393e-05
0.000133247
6.25872e-05
0.00013584
4.7461e-05
0.00013008
4.20512e-05
0.000117396
4.44476e-05
0.00010649
4.4685e-05
0.00011582
3.28254e-05
0.000145693
9.27235e-06
0.000173459
-2.0875e-05
0.000190593
-5.27859e-05
0.000198347
-8.42582e-05
0.000199674
-0.000114555
0.000196326
-0.000144046
0.000189034
-0.000172386
0.000177406
-0.000198747
0.000160346
-0.000221777
0.000137133
-0.000240301
0.000108117
-0.000252798
7.38062e-05
-0.000257461
3.49857e-05
-0.000254167
-5.0001e-06
-0.000243371
-4.28489e-05
-0.000226416
-7.63211e-05
-0.000205276
-0.000103928
-0.000181546
-0.000125796
-0.000156297
-0.000142095
-0.000129861
-0.000153669
-0.000103063
-0.000159912
-7.72423e-05
-0.000160691
-5.41548e-05
-0.00015649
-3.47703e-05
-0.000149258
-1.77368e-05
-0.000142372
-2.9019e-06
-0.000135193
8.93263e-06
-0.000127084
1.61703e-05
-0.000118223
2.03118e-05
-0.000114185
3.0201e-05
-0.000124451
7.24627e-05
-0.000167186
0.000159223
-0.000215877
0.000225513
-0.000146892
0.000220172
8.79208e-06
0.000180597
0.000104272
0.000134976
0.000139117
5.93099e-05
0.00016064
-1.62062e-06
0.000167367
0.000130266
6.97575e-05
1.41352e-05
8.05501e-05
0.000123348
-5.62893e-05
0.000286897
-0.000191752
0.000269961
-0.000256586
0.000166608
-0.000291907
7.41371e-05
-0.000254997
-9.69528e-05
-0.000152969
-0.000252474
-5.93223e-05
-0.000253999
-1.84673e-05
-0.000180533
-9.58676e-06
-0.000135875
-3.95188e-06
-0.000127766
7.97842e-06
-0.000133913
2.37408e-05
-0.000139739
3.82694e-05
-0.000139355
5.18057e-05
-0.000137154
6.69023e-05
-0.000137061
8.52023e-05
-0.000137783
0.000105352
-0.000134747
0.000124855
-0.000126497
0.000142685
-0.000114741
0.000158558
-0.000100105
0.000171698
-8.26885e-05
0.000181479
-6.31075e-05
0.000187335
-4.21274e-05
0.000189589
-2.14974e-05
0.000189926
-3.3634e-06
0.000189518
1.39361e-05
0.000188682
3.00907e-05
0.00018666
4.78157e-05
0.000181533
6.88929e-05
0.000171918
9.11757e-05
0.000157236
0.000112865
0.000136872
0.000133237
0.000111444
0.000150227
8.40648e-05
0.000160626
6.15269e-05
0.000158378
4.9996e-05
0.000141612
4.97911e-05
0.000117602
5.57251e-05
0.000100556
5.8605e-05
0.00011294
4.98401e-05
0.000154457
2.61027e-05
0.000197195
-9.02463e-06
0.000225719
-4.91062e-05
0.000238427
-8.88088e-05
0.000239375
-0.000125974
0.000233489
-0.000160334
0.000223392
-0.000192418
0.000209489
-0.000222245
0.000190173
-0.000249012
0.000163898
-0.000270927
0.00013003
-0.000286715
8.95915e-05
-0.000292742
4.10105e-05
-0.000287584
-1.01592e-05
-0.000271974
-5.84592e-05
-0.000248075
-0.000100221
-0.000219738
-0.000132263
-0.000189572
-0.000155963
-0.000158278
-0.000173389
-0.000125911
-0.000186037
-9.35797e-05
-0.000192245
-6.42954e-05
-0.000189977
-4.09148e-05
-0.000179872
-2.35661e-05
-0.000166608
-9.5288e-06
-0.00015641
3.90966e-06
-0.000148633
1.19735e-05
-0.000135148
7.95103e-06
-0.0001142
-5.14885e-06
-0.000101085
1.37693e-06
-0.000130978
7.0167e-05
-0.000235976
0.000198633
-0.000344341
0.000311573
-0.000259831
0.000316666
3.70014e-06
0.000249843
0.000171097
0.000126127
0.000262834
-3.00708e-05
0.000316838
-6.04384e-05
0.000197735
6.98279e-05
0.000206318
-0.000192182
0.000307036
2.26307e-05
0.000137109
0.000456824
-0.000133756
0.000540826
-0.000307886
0.000340739
-0.00039642
0.000162672
-0.000376538
-0.000116834
-0.000258919
-0.000370093
-0.000110783
-0.000402135
-8.28332e-06
-0.000283032
3.24539e-05
-0.000176612
4.84622e-05
-0.000143773
6.59615e-05
-0.000151412
8.31252e-05
-0.000156903
9.02873e-05
-0.000146518
8.75349e-05
-0.000134402
8.61105e-05
-0.000135638
9.43634e-05
-0.000146038
0.000112069
-0.000152454
0.000135308
-0.000149737
0.000158835
-0.000138268
0.000178556
-0.000119827
0.000192547
-9.66806e-05
0.000200981
-7.15412e-05
0.000205022
-4.61681e-05
0.000206545
-2.30198e-05
0.000208043
-4.86078e-06
0.00021061
1.13695e-05
0.000211535
2.91659e-05
0.000209859
4.94916e-05
0.000204023
7.47297e-05
0.000192721
0.000102478
0.000175183
0.000130402
0.000151141
0.000157279
0.000122562
0.000178806
9.68987e-05
0.00018629
8.17083e-05
0.000173569
7.76857e-05
0.000145635
7.71249e-05
0.000118162
7.41097e-05
0.00010357
6.62612e-05
0.000120787
5.2847e-05
0.00016787
2.93791e-05
0.000220662
-5.76462e-06
0.000260861
-4.93255e-05
0.000281986
-9.44956e-05
0.000284544
-0.000136991
0.000275983
-0.000176563
0.000262963
-0.000213941
0.000246866
-0.000250121
0.000226352
-0.000285101
0.000198877
-0.000316646
0.000161574
-0.000339033
0.000111979
-0.000346706
4.86837e-05
-0.000337618
-1.92465e-05
-0.000315464
-8.06128e-05
-0.000284767
-0.000130917
-0.00024907
-0.00016796
-0.000210552
-0.000194482
-0.000170218
-0.000213723
-0.000130589
-0.000225667
-9.65097e-05
-0.000226325
-7.3317e-05
-0.00021317
-6.48874e-05
-0.000188302
-6.37108e-05
-0.000167786
-5.87586e-05
-0.000161363
-4.62914e-05
-0.000161102
-3.29112e-05
-0.000148529
-2.28666e-05
-0.000124245
-2.80575e-06
-0.000121147
6.40396e-05
-0.000197824
0.000180032
-0.000351967
0.00029907
-0.000463378
0.000388986
-0.000349746
0.000373219
1.94658e-05
0.000231938
0.000312379
-2.13848e-05
0.000516158
-0.000224741
0.000520194
-0.000169216
0.000142209
-9.93878e-05
0.000287332
-0.000479514
0.000419525
-0.000109562
0.000256063
0.000620287
-3.91488e-05
0.000836038
-0.000305911
0.0006075
-0.000464072
0.000320833
-0.000492295
-8.86112e-05
-0.000409389
-0.000452998
-0.000258851
-0.000552673
-0.000102283
-0.000439601
2.16496e-05
-0.000300545
0.000104359
-0.000226483
0.000159718
-0.000206771
0.000188942
-0.000186127
0.000192607
-0.000150184
0.000177277
-0.000119074
0.000157929
-0.00011629
0.00015193
-0.000140039
0.000167069
-0.000167594
0.000196736
-0.000179404
0.00022827
-0.000169803
0.000250783
-0.000142339
0.000260711
-0.000106607
0.000261532
-7.23611e-05
0.000259418
-4.40536e-05
0.000259565
-2.31661e-05
0.000263934
-9.22881e-06
0.000272444
2.85998e-06
0.000279519
2.20913e-05
0.000275774
5.32372e-05
0.000260215
9.02888e-05
0.000236794
0.000125899
0.000210105
0.000157091
0.000182505
0.000184879
0.000157414
0.000203897
0.000140456
0.000203247
0.000132834
0.000181191
0.000126446
0.000152022
0.000112734
0.000131874
9.23323e-05
0.000123971
6.3624e-05
0.000149496
3.22912e-05
0.000199203
8.48363e-07
0.000252105
-3.49596e-05
0.000296669
-7.54707e-05
0.000322498
-0.000117236
0.000326309
-0.000158805
0.000317553
-0.000202775
0.000306933
-0.000253211
0.000297301
-0.000310706
0.000283847
-0.000370299
0.000258472
-0.000422003
0.00021328
-0.000454575
0.000144552
-0.000462005
5.61136e-05
-0.000448684
-3.25668e-05
-0.000420411
-0.000108886
-0.00038449
-0.000166839
-0.000343171
-0.000209279
-0.000294943
-0.000242711
-0.000241217
-0.000267449
-0.000190235