/*--------------------------------*- C++ -*----------------------------------*\
| =========                 |                                                 |
| \\      /  F ield         | OpenFOAM: The Open Source CFD Toolbox           |
|  \\    /   O peration     | Version:  2412                                  |
|   \\  /    A nd           | Website:  www.openfoam.com                      |
|    \\/     M anipulation  |                                                 |
\*---------------------------------------------------------------------------*/
FoamFile
{
    version     2.0;
    format      ascii;
    arch        "LSB;label=32;scalar=64";
    class       volScalarField;
    location    "6.4";
    object      alpha.mercury;
}
// * * * * * * * * * * * * * * * * * * * * * * * * * * * * * * * * * * * * * //

dimensions      [0 0 0 0 0 0 0];

internalField   nonuniform List<scalar> 
6400
(
1
0.999995
0.999996
0.999997
0.999998
0.999998
0.999998
0.999999
0.999999
0.999999
1
1
1
1
1
1
1
1
1
1
1
1
1
1
1
1
1.00001
1
1
1
1
1
1
1
0.999998
0.999997
0.999998
1
1
1
1
0.999999
1
1
1
1
1
1
1
1
1
1
1
1
1
1
1
1
1
0.999999
0.999999
0.999999
1
1
1
1
1
1
0.999999
0.999998
0.999997
0.999996
0.999995
0.999992
0.999996
0.999998
0.999998
0.999996
0.999995
0.999996
0.999997
0.999994
0.999994
0.999996
0.999996
0.999997
0.999997
0.999998
0.999999
0.999999
0.999999
1
1
1
1
1
1
1
1
1
1
1
1.00001
1.00001
1.00001
1.00001
1
1
1
1
1
0.999999
0.999998
0.999998
0.999999
1
1
1
1
1
1
1
1
1
1
1
1
1
0.999999
0.999998
0.999999
1
1
1
1
1
1
1
1
1
1
1
1
1
1
1
1
0.999999
0.999998
0.999996
0.999992
0.999992
0.999992
0.999992
0.999994
0.999994
0.999992
0.999992
0.999994
0.999999
0.999996
0.999995
0.999996
0.999997
0.999997
0.999997
0.999998
0.999998
0.999999
0.999999
0.999999
0.999999
0.999999
0.999999
1
1
1
1
1
1
1
1.00001
1.00001
1.00001
1
1
1
1
1
1
1
1
1
1
1
1
1
1
1.00001
1.00001
1.00001
1.00001
1.00001
1
1
1
0.999996
0.999995
0.999995
0.999998
0.999999
0.999999
0.999999
1
1
1
1
1.00001
1.00001
1.00001
1.00001
1.00001
1
1
1
1
1
1
1
0.999999
0.999996
0.999995
0.999995
0.999994
0.999994
0.999994
0.999994
0.999996
0.999997
1
0.999997
0.999997
0.999997
0.999998
0.999998
0.999998
0.999998
0.999998
0.999998
0.999997
0.999997
0.999999
1
1
1
1
1
1
1.00001
1.00001
1.00001
1.00001
1
1
1
1
1
1
1
1
1
1
1
1
1
1.00001
1.00001
1.00001
1.00001
1.00001
1.00001
1.00001
1.00001
1
1
1
0.999997
0.999993
0.999993
0.999993
0.999993
0.999995
0.999998
1
1
1.00001
1.00001
1.00001
1.00001
1.00001
1.00001
1.00001
1.00001
1.00001
1.00001
1.00001
1
1
0.999999
0.999998
0.999998
0.999999
0.999999
0.999998
0.999997
0.999996
0.999997
0.999999
0.999997
1
0.999998
0.999998
0.999998
0.999998
0.999998
0.999998
0.999998
0.999997
0.999997
0.999998
0.999999
1
1
1
1
1
1.00001
1.00001
1.00001
1.00001
1
1
1
1
1
1
1.00001
1.00001
1
1
1
1
1
1
1
1
1
1
1
1
1
1
1
0.999999
0.999999
0.999998
0.999998
0.999997
0.999995
0.999995
0.999996
0.999999
1
1
1
1
1
1
1
1
1.00001
1.00001
1.00001
1
1
1
0.999998
0.999998
0.999997
0.999997
0.999997
0.999998
0.999999
0.999999
0.999999
0.999999
0.999999
0.999996
0.999997
0.999998
0.999999
0.999997
0.999998
0.999998
0.999997
0.999997
0.999996
0.999997
0.999998
0.999999
1
1
1
1
1
1
1
1
1
1
1
1
1
1
1
1
1.00001
1
1
1
1
1
0.999999
0.999997
0.999997
0.999997
0.999999
0.999999
0.999999
0.999998
0.999997
0.999997
0.999996
0.999995
0.999995
0.999996
0.999997
0.999999
1
1
1
1
1
1
0.999999
1
1
1
0.999999
0.999999
0.999999
0.999998
0.999998
0.999996
0.999995
0.999995
0.999995
0.999995
0.999996
0.999997
0.999997
0.999998
0.999998
0.999998
0.999997
0.999996
0.999995
0.999993
0.999994
0.999994
0.999999
0.999996
0.999996
0.999996
0.999996
0.999996
0.999996
0.999997
0.999998
1
1
0.999999
1
1
1
1
0.999999
0.999998
0.999998
0.999999
1
1
1
1
1
1
1
1
1
0.999999
0.999999
1
1
1
1
1
1
1
1
1
1
1
1
1
0.999999
0.999999
1
1
1
1
1
1
1
1
1
1
1
1
1
0.999999
0.999997
0.999996
0.999994
0.999993
0.999993
0.999993
0.999998
0.999999
0.999999
0.999999
0.999999
0.999998
0.999996
0.999993
0.999993
0.999992
0.999992
0.999996
0.999998
0.999996
0.999998
0.999996
0.999996
0.999996
0.999997
0.999997
0.999997
0.999996
0.999996
0.999998
0.999999
0.999998
0.999997
0.999997
0.999997
0.999997
0.999997
0.999998
1
1
1
1
1
1
1
1
1
1
1
1
1
1
1
1
1
1.00001
1.00001
1.00001
1.00001
1.00001
1.00001
1.00001
1.00001
1.00001
1.00001
1.00001
1
1
1
1
1
1
1
1
1
1
1
1
1
1
1
1
0.999999
0.999995
0.999995
0.999999
1
1
1
1
1
1
0.999996
0.999993
0.999993
0.999995
0.999996
1
0.999999
0.999999
0.999998
0.999997
0.999997
0.999997
0.999996
0.999997
0.999997
0.999997
0.999996
0.999998
1
1
0.999999
0.999999
0.999999
1
1
1
1
1
1
1
1
0.999999
0.999998
0.999999
1
1
1
1
1
1
1
1
1
1
1
1
1
1
1
1
1.00001
1.00001
1.00001
1.00001
1
1
1
0.999999
0.999999
0.999999
1
1
1
1
1
1.00001
1.00001
1
1
1
1
1
0.999999
0.999999
1
1
0.999999
0.999997
0.999997
0.999997
0.999995
0.999995
0.999996
0.999997
1
1
0.999998
1
0.999998
0.999997
0.999994
0.999995
0.999994
0.999994
0.999999
1
1
1
1
1
1
1
1
1
1
1
1
0.999999
0.999999
0.999999
1
1
1
1
1
1
1
1
1
1
1
1
1
1
1
1
1
1
1
1
1
1
1
1
1
1
1
1
1
1
1
1.00001
1.00001
1
1
1
1
1
1
1
0.999999
0.999998
0.999997
0.999996
0.999992
0.999989
0.999989
0.999989
0.99999
0.999996
0.999998
0.999998
0.999998
0.999999
1
0.999999
0.999998
1
0.999998
0.999993
0.999993
0.999993
0.999995
0.999999
1
1
1
1
1
1
1
1
1
1
1
1
1
0.999999
0.999999
1
1
1
1
1
1
1
1
1
1
1
1
1
1
1
1
1
1
1
1
0.999999
0.999999
0.999999
1
1
1
1.00001
1.00001
1.00001
1
1
1
1
1
1
1
1
1
0.999999
0.999999
0.999999
0.999999
0.999999
0.999999
0.999998
0.999999
0.999999
0.999998
0.999998
0.999999
1
1
1
1
1
1
0.999999
1
1
0.999998
0.999995
0.999994
0.999996
1
1
1
1
1
1
1
1
1
1
1
1
1
1
1
1
1
1
1
1
1
1
1
1
1
1
1
1
1
1
1
1
1
1
0.999999
0.999999
0.999998
0.999998
1
1
1
1
1
0.999999
0.999999
0.999999
0.999999
0.999998
0.999998
1
1
1
1
1
1
1
1
1
1
1
1
1
1
1
1
1
1
1
1
1
1
1
0.999999
0.999999
1
1
0.999997
1
1
1
1
0.999999
1
1
1
1
1
1
1
1
1
1
1
1
1
1
1
1
1
1
1
1
1
1
1
1
1
1
1
1
1
1
1
0.999999
0.999997
0.999996
0.999996
0.999997
0.999999
1
1
1
0.999999
1
1
1
1
1
1
0.999999
1
1
1
1
1
1
1
1
1
1
1
1
1
1
1
1
1
1
1
1
1
0.999999
0.999997
0.999998
0.999997
0.999997
0.999998
0.999999
0.999999
0.999999
1
0.999999
1
1
1
1
1
1
1
1
1
1
1
1
1
1
1
1
1
1
1
1
1
1
1
1
1
1.00001
1.00001
1.00001
1
1
1
1
1
0.999998
0.999998
1
1
1
1
1
1
1.00001
1.00001
1
1
1
1
1
1
1
1
1
1
1
1
1
1
1
1
1
1
1
1
1
1
1
0.999999
0.999997
0.999998
0.999997
0.999997
0.999995
0.999996
0.999997
0.999999
0.999997
0.999997
0.999998
0.999999
1
1
1
1
1
1
1
1
1
1
1
1
1
1
1
1
1
1
1
1
1
1
1
1
1
1
1
1
1
1
1
1
1
1
1
0.999999
0.999999
1
1
1
1
1
1
1
1
1
1
1
1
1
1
1
1
1
1
1
1
1
1
1
1
1
1
1
1
1
1
0.999996
0.999992
0.999996
0.999996
0.999997
0.999993
0.999994
0.999996
0.999999
0.999997
0.999997
0.999998
0.999998
0.999999
0.999998
0.999998
0.999999
0.999999
1
0.999999
0.999998
0.999998
0.999999
1
1
1
1
1
1
1
1
1
1
1
1
1
1
1
1
1
1
1
1
0.999999
1
1
1
1
0.999999
1
1
0.999999
1
1
1.00001
1
1
1
1
0.999999
0.999999
1
1
1
1
1
1
1
1
1
1
1
1
1
1
1
1
1
1
0.999999
0.999994
0.999992
0.999992
0.999995
0.999997
0.999994
0.999994
0.999994
0.999999
0.999997
0.999997
0.999997
0.999998
0.999999
0.999999
1
1
1
1
1
1
1
1
1
1
1
1
1
1
1
1
1
1
1
1
1
1
1
1
1
1
1
1
0.999999
1
0.999999
0.999999
0.999999
0.999999
0.999999
0.999999
0.999999
1
1
0.999999
0.999999
0.999999
0.999999
1
1
1
1
1
1
1
1
1
1
1
1
1
1
1
1
1
1
1
1
0.999999
0.999999
0.999998
0.999994
0.999994
0.999995
0.999996
0.999996
0.999995
0.999994
0.999998
0.999995
0.999995
0.999996
0.999997
0.999999
0.999999
0.999999
1
1
1
1
1
1
1
1
1
1
1
1
1
1
1
1
1
1
1
1
1
0.999999
1
1
1
1
1
0.999997
0.99999
0.999979
0.999966
0.999958
0.99996
0.999972
0.999985
0.999993
0.999999
1
1
0.999999
0.999999
0.999999
1
1
1
1
1
1
1
1
1
1
1
1
1
1
1
1
1
1
1
1
0.999999
0.999999
0.999997
0.999994
0.999994
0.999995
0.999996
0.999995
0.999994
0.999994
0.99997
0.999951
0.999951
0.999957
0.999963
0.99997
0.999977
0.999984
0.99999
0.999995
0.999998
1
1
1
1
1
1
1
1
1
1
1
1
1
1
1
1
1
1
1
1
1
0.999999
0.999978
0.994461
0.972894
0.938409
0.900103
0.868732
0.852831
0.855624
0.875813
0.909454
0.947068
0.978595
0.996333
0.999998
0.999999
1
1
1
1
1
1
1
1
1
1
1
1
1
1
1
1
1
1
1
0.999998
0.999997
0.999994
0.999991
0.999989
0.999986
0.99998
0.999977
0.999976
0.999977
0.999976
0.999976
0.999983
0.950481
0.941561
0.937542
0.932334
0.925164
0.916526
0.908037
0.901152
0.897093
0.896926
0.900451
0.906743
0.914916
0.925331
0.937232
0.948666
0.960699
0.973537
0.985592
0.996882
1
1
1
1
1
1
1
1
1
0.9764
0.940468
0.880925
0.773076
0.62922
0.464764
0.33266
0.238368
0.176206
0.139255
0.123257
0.125849
0.146794
0.188891
0.256442
0.355218
0.488594
0.646145
0.774725
0.864767
0.922066
0.964391
0.995732
1
1
1
1
1
1
1
1
0.992736
0.981395
0.96925
0.956012
0.942018
0.925443
0.908202
0.894247
0.886157
0.884897
0.889739
0.898973
0.910862
0.923606
0.9364
0.948906
0.959903
0.968054
0.973508
0.978375
0.273493
0.262743
0.253047
0.242765
0.229791
0.21475
0.199674
0.185816
0.173923
0.164652
0.158996
0.158075
0.162119
0.175621
0.199355
0.230526
0.269388
0.317495
0.374399
0.436031
0.507515
0.57524
0.631538
0.672359
0.691218
0.688631
0.657184
0.590364
0.480549
0.349823
0.216164
0.105821
0.0347635
2.01266e-07
2.01266e-07
2.01266e-07
2.01312e-07
2.0151e-07
2.02992e-07
2.10757e-07
2.30112e-07
2.5315e-07
2.64993e-07
2.76654e-07
3.31861e-07
5.01601e-07
0.0027539
0.0429238
0.115301
0.216244
0.330829
0.441373
0.54148
0.610387
0.648068
0.657158
0.6409
0.601382
0.544317
0.475744
0.409046
0.347512
0.290264
0.239252
0.19732
0.169448
0.152607
0.145175
0.144824
0.150053
0.160401
0.175916
0.196985
0.223048
0.252727
0.284419
0.31431
0.338575
0.356546
0.371347
4.58077e-06
4.34605e-06
3.97567e-06
3.66485e-06
3.5241e-06
3.52668e-06
3.52427e-06
3.52668e-06
3.57644e-06
3.91579e-06
4.21731e-06
4.22574e-06
4.2262e-06
1.8431e-05
3.37039e-05
5.55845e-05
8.47701e-05
0.000128976
0.000208583
0.00157245
0.00658142
0.0156004
0.0277468
0.0400259
0.0468778
0.0449729
0.0332089
0.0172542
0.00446145
8.25629e-05
8.53964e-07
7.12384e-07
6.0004e-07
2.01579e-07
2.01254e-07
2.01314e-07
2.0151e-07
2.03556e-07
2.26692e-07
2.30037e-07
2.53027e-07
2.64948e-07
3.32297e-07
2.61682e-06
1.06606e-05
1.76022e-05
1.16149e-05
8.09365e-06
7.75172e-06
8.10554e-06
0.000150688
0.00216547
0.0110089
0.023761
0.0338607
0.036078
0.0303706
0.0200909
0.0102385
0.00340394
0.000405861
9.11346e-05
4.31639e-05
1.69365e-05
2.25037e-06
2.17575e-06
2.07394e-06
1.89364e-06
1.67758e-06
1.557e-06
1.53727e-06
1.5358e-06
1.536e-06
1.52815e-06
1.52288e-06
1.52267e-06
1.52288e-06
1.5226e-06
1.52499e-06
1.55946e-06
8.90356e-06
1.88141e-05
2.0032e-05
1.75087e-05
1.22555e-05
3.52413e-06
3.52668e-06
7.40732e-06
3.83777e-05
3.97279e-05
7.13343e-06
4.22621e-06
8.6761e-06
9.91e-06
5.83033e-06
5.40658e-06
6.31932e-06
8.49131e-06
1.22468e-05
1.86598e-05
2.21909e-05
2.61196e-05
3.44088e-05
4.41804e-05
5.01778e-05
3.81849e-05
1.92914e-05
6.25013e-06
4.93724e-06
1.17114e-06
7.67182e-07
6.08117e-07
3.57417e-05
4.03815e-05
9.11964e-06
2.03928e-07
2.06015e-07
2.38927e-07
7.90875e-06
1.90469e-05
1.40271e-05
9.22392e-07
4.69525e-07
1.30194e-05
8.2161e-05
8.51804e-05
8.64171e-05
5.57706e-05
5.98935e-06
8.39939e-06
2.40558e-05
4.57654e-05
3.89593e-05
5.23474e-05
7.04213e-05
7.36843e-05
6.08366e-05
4.2961e-05
3.09016e-05
2.27357e-05
1.3372e-05
6.52522e-06
9.65976e-06
1.42632e-05
2.36873e-05
1.3663e-05
1.20839e-05
1.92344e-05
2.06546e-05
1.39026e-05
3.11823e-06
1.53727e-06
1.53575e-06
3.50397e-06
1.99038e-06
1.52288e-06
1.52265e-06
1.52813e-06
4.62336e-06
5.9788e-06
4.18395e-05
5.36034e-05
5.4711e-05
5.551e-05
5.52169e-05
3.01796e-05
3.80614e-06
2.3792e-05
4.27266e-05
4.27266e-05
1.73008e-05
4.54305e-06
4.80638e-06
1.44492e-05
5.43876e-06
4.66207e-06
4.47447e-06
4.52159e-06
4.68163e-06
5.00465e-06
5.27681e-06
5.7019e-06
6.07702e-06
5.00665e-06
3.347e-06
1.64625e-06
5.41341e-07
1.26018e-07
3.89927e-08
1.50077e-08
1.74973e-06
5.90348e-07
2.14693e-08
2.52606e-08
3.69537e-06
2.26978e-06
2.48191e-07
3.58403e-07
1.86006e-05
3.89176e-05
3.9372e-05
8.3082e-06
9.60837e-07
1.35994e-06
1.47251e-06
2.81768e-06
2.96769e-06
3.24398e-06
4.15e-06
1.64253e-05
3.55689e-05
2.99977e-05
9.01511e-06
4.04911e-06
6.09046e-06
5.36388e-06
4.28511e-06
3.5517e-06
3.0676e-06
2.66375e-06
2.07222e-06
2.00078e-06
9.31801e-06
1.19044e-05
6.05591e-06
8.73428e-06
2.16461e-05
2.20656e-05
2.20656e-05
2.11147e-05
8.60089e-06
1.62333e-06
5.48228e-06
1.24343e-05
4.1213e-06
1.53442e-06
1.52495e-06
1.01216e-05
1.63604e-05
1.62964e-05
4.41625e-05
3.96425e-05
1.44195e-05
9.03773e-07
1.18278e-05
3.01519e-05
4.61163e-06
1.62996e-05
4.27266e-05
4.19606e-05
7.69171e-06
4.80638e-06
9.36582e-06
3.00316e-05
1.31968e-05
4.47479e-06
4.4748e-06
4.4748e-06
4.53073e-06
4.69143e-06
5.01526e-06
5.42694e-06
5.53722e-06
4.62738e-06
2.91036e-06
1.27152e-06
3.21494e-07
5.71174e-08
1.48687e-08
1.18721e-08
1.16746e-08
1.2004e-08
2.03295e-08
2.14693e-08
8.82977e-07
2.27721e-06
2.47832e-07
3.55155e-07
1.42111e-05
3.93803e-05
4.12257e-05
3.72643e-05
1.52369e-06
1.40609e-06
1.65502e-06
2.01225e-06
2.73109e-06
1.14326e-05
2.4877e-05
3.55175e-05
3.60737e-05
3.37627e-05
5.99369e-06
1.11901e-06
1.07836e-06
1.02383e-06
9.91717e-07
9.45791e-07
1.0406e-06
1.19983e-06
1.31724e-06
1.69609e-06
2.01233e-06
2.24262e-06
5.57144e-06
6.80741e-06
7.02242e-06
7.49712e-06
1.74348e-05
2.44304e-05
1.54185e-05
1.85695e-06
8.66996e-06
1.24343e-05
2.05237e-06
1.54015e-06
1.53095e-06
3.5037e-06
1.09709e-05
1.63803e-05
2.97441e-05
5.37887e-07
4.48727e-07
4.3269e-07
4.48712e-07
2.76929e-05
1.13583e-05
1.34681e-05
3.40238e-05
4.27148e-05
9.32188e-06
7.13664e-06
3.73592e-05
3.7551e-05
3.7596e-05
3.06803e-05
5.2215e-06
4.53073e-06
1.24904e-05
2.21195e-05
2.13443e-05
1.34756e-05
1.33059e-05
9.60128e-06
3.58096e-06
1.09957e-06
9.977e-08
4.40098e-08
1.26093e-08
1.16648e-08
1.16651e-08
2.39451e-08
2.4274e-07
2.42011e-07
6.79746e-08
7.2359e-07
1.4318e-07
3.73454e-07
4.16722e-06
1.24937e-05
4.30483e-05
4.32914e-05
3.34581e-05
1.65502e-06
1.87731e-06
2.74486e-06
2.29735e-05
3.52279e-05
3.52795e-05
3.50819e-05
3.55175e-05
3.45169e-05
1.06488e-05
8.68084e-07
8.46744e-07
8.38594e-07
8.39087e-07
8.50497e-07
9.14522e-07
1.07015e-06
1.21475e-06
1.32122e-06
4.49724e-06
2.89807e-05
4.43159e-05
4.16823e-05
2.02268e-05
1.60627e-05
1.87409e-05
3.32204e-05
3.33858e-05
1.59474e-05
8.65599e-06
1.15029e-05
4.07719e-06
1.53127e-06
1.52245e-06
1.51698e-06
1.51703e-06
1.2207e-05
5.56034e-07
4.55015e-07
4.32682e-07
4.20739e-07
4.32538e-07
1.225e-05
1.99036e-05
1.47516e-05
4.33369e-05
4.54415e-05
1.36659e-05
1.00221e-05
3.76416e-05
3.76236e-05
3.77101e-05
3.77101e-05
3.77199e-05
3.76378e-05
3.76096e-05
3.75305e-05
3.73637e-05
3.71979e-05
3.71386e-05
3.70855e-05
3.52327e-05
2.23708e-05
1.56723e-05
1.45499e-06
1.31073e-08
1.17613e-08
1.16651e-08
1.92748e-08
6.4762e-08
6.09484e-08
1.74448e-08
2.62889e-08
4.64836e-08
1.10221e-07
3.17757e-07
1.70371e-05
4.36157e-05
4.36004e-05
4.34362e-05
2.91344e-05
2.97866e-06
8.36761e-06
3.34604e-05
3.52672e-05
3.28575e-05
2.37552e-05
2.00429e-05
1.19816e-05
3.88886e-06
8.46744e-07
8.38597e-07
8.38597e-07
8.38597e-07
8.39091e-07
8.50679e-07
1.04934e-06
1.48021e-06
1.98845e-05
4.46162e-05
4.43838e-05
4.44111e-05
4.43159e-05
4.36692e-05
4.20572e-05
2.18821e-05
3.33858e-05
3.35048e-05
3.33858e-05
1.29472e-05
1.04073e-05
9.31023e-06
2.00561e-06
1.51953e-06
1.51703e-06
1.51697e-06
1.51703e-06
1.91163e-06
1.45209e-06
4.12572e-07
4.10861e-07
4.20534e-07
1.87157e-06
1.99106e-05
1.86193e-05
4.62932e-05
4.62493e-05
3.97791e-05
7.30357e-06
8.4594e-06
1.12966e-05
3.07233e-05
3.77142e-05
3.77101e-05
3.76467e-05
3.46348e-05
3.31364e-05
3.55537e-05
3.71418e-05
3.70855e-05
3.67636e-05
3.62025e-05
3.55302e-05
3.47034e-05
1.40003e-05
1.17721e-08
1.16832e-08
1.16725e-08
1.16832e-08
1.19187e-08
1.33033e-08
1.55013e-08
1.74448e-08
2.62889e-08
4.64836e-08
1.95631e-07
1.96558e-05
4.3615e-05
4.36297e-05
4.36004e-05
4.34362e-05
4.26516e-05
4.1593e-05
3.57614e-05
7.06574e-06
1.26633e-06
1.08772e-06
1.01553e-06
9.4674e-07
8.91898e-07
8.52413e-07
8.45505e-07
8.38581e-07
8.39053e-07
1.07715e-06
2.73191e-05
4.45956e-05
4.46596e-05
4.46153e-05
4.46827e-05
4.46153e-05
4.42119e-05
2.89745e-05
1.24278e-05
4.08847e-06
1.43544e-05
2.52181e-05
3.3321e-05
3.35048e-05
3.30635e-05
1.89122e-05
9.99172e-06
5.44822e-06
2.82709e-06
1.51953e-06
1.51703e-06
1.52281e-06
3.94222e-06
1.65107e-06
3.94598e-07
4.0297e-07
4.10102e-07
1.40465e-06
1.89067e-05
3.15313e-05
4.62932e-05
4.62932e-05
2.94079e-05
7.13631e-06
7.30496e-06
7.74431e-06
2.7721e-05
3.76572e-05
3.42977e-05
1.09807e-05
7.29623e-06
7.9566e-06
1.0332e-05
3.00606e-05
3.44685e-05
3.22115e-05
2.85991e-05
2.605e-05
2.7698e-05
1.70006e-05
1.19889e-08
1.17099e-08
1.16832e-08
1.17835e-08
2.56351e-08
1.25538e-06
2.05929e-06
2.23633e-08
2.56871e-08
3.5122e-08
1.3017e-07
1.44406e-05
4.36154e-05
4.36004e-05
4.34362e-05
2.3017e-05
3.74108e-05
3.43946e-05
6.24207e-06
2.99565e-06
2.80324e-06
3.76445e-06
1.37242e-06
9.71751e-07
8.96817e-07
8.60706e-07
8.52205e-07
9.05346e-07
5.95638e-06
4.07718e-05
4.4457e-05
4.44823e-05
4.45956e-05
4.46832e-05
4.46153e-05
3.32898e-05
8.28874e-06
6.06238e-08
4.4098e-08
4.16695e-08
4.14503e-08
4.14316e-08
4.49595e-06
2.67001e-05
3.25339e-05
3.20412e-05
1.79281e-05
8.51964e-06
5.57168e-06
1.80711e-06
1.52281e-06
3.84354e-06
3.95033e-06
5.04572e-07
3.92773e-07
3.94737e-07
4.17424e-07
5.43999e-07
1.48036e-05
4.80422e-05
4.6994e-05
4.19496e-05
7.13631e-06
7.09919e-06
7.13631e-06
1.37996e-05
2.7859e-05
2.34763e-05
1.44826e-06
1.21874e-06
7.29668e-06
1.31756e-05
1.45263e-05
1.50416e-05
1.16906e-05
9.52294e-06
3.99567e-06
1.24995e-06
1.00653e-06
2.65476e-06
4.32263e-06
1.18382e-08
1.17294e-08
1.30349e-08
1.28994e-06
8.88878e-06
8.87878e-06
3.4694e-06
3.30863e-08
4.03302e-08
8.76904e-08
6.38529e-06
4.01475e-05
4.31807e-05
2.41334e-05
1.07059e-05
9.38173e-06
9.48106e-06
4.53919e-06
4.30089e-06
1.68498e-05
1.75222e-05
1.64787e-05
4.30924e-06
2.4787e-06
8.96683e-07
9.523e-07
1.1401e-06
4.81613e-06
4.04567e-05
4.40636e-05
4.42022e-05
4.44536e-05
4.26191e-05
1.64808e-05
8.42631e-08
4.92655e-08
4.28994e-08
4.17062e-08
4.14756e-08
4.14305e-08
4.14219e-08
4.14316e-08
4.14401e-08
2.7731e-05
3.20332e-05
3.2038e-05
1.85259e-05
9.30162e-06
6.47046e-06
1.62609e-06
5.33722e-06
3.93514e-06
3.91688e-07
3.91151e-07
3.92773e-07
4.15367e-07
6.15589e-07
1.64688e-05
4.87351e-05
4.81114e-05
1.31636e-05
7.09919e-06
7.09196e-06
7.34483e-06
1.48229e-05
1.5136e-05
1.44826e-06
1.2633e-06
1.16477e-06
2.9634e-06
2.5518e-06
3.33418e-06
1.07897e-05
2.75537e-05
2.74631e-05
2.5827e-05
1.43596e-05
9.24123e-07
7.97415e-07
4.32374e-06
1.17768e-08
1.18783e-08
1.50027e-08
4.42284e-06
8.93265e-06
8.92618e-06
8.88452e-06
5.49913e-07
8.76904e-08
1.32959e-07
2.48049e-06
3.01376e-05
4.11773e-05
9.67001e-06
1.11246e-05
1.14454e-05
2.10552e-05
1.94804e-05
6.60725e-06
5.97123e-06
1.84626e-05
2.00634e-05
2.06672e-05
2.15212e-05
1.10355e-05
9.30649e-06
8.62711e-06
8.60199e-06
1.3496e-05
8.68926e-06
4.32124e-06
5.9982e-06
6.32032e-08
4.72034e-08
4.30582e-08
4.18743e-08
4.15425e-08
4.14516e-08
4.14279e-08
4.14219e-08
4.14207e-08
4.14219e-08
4.14585e-08
9.72052e-07
3.11685e-05
3.22886e-05
3.25502e-05
1.63821e-05
1.02241e-05
4.86775e-06
5.16599e-06
3.84361e-06
3.91386e-07
3.91865e-07
4.00182e-07
4.68489e-07
2.3349e-06
4.07542e-05
4.93564e-05
4.90642e-05
2.41845e-05
7.09431e-06
7.09457e-06
7.56761e-06
9.02224e-06
5.76332e-06
4.0513e-06
1.4457e-06
3.14929e-09
3.14929e-09
3.17268e-09
3.65261e-09
3.79444e-07
2.07048e-05
2.76517e-05
2.76517e-05
2.76517e-05
5.83079e-06
4.35279e-07
3.66118e-06
5.22459e-06
3.81872e-07
1.45053e-07
6.06369e-06
8.93283e-06
8.93265e-06
8.92618e-06
6.9194e-06
5.61985e-07
4.53808e-07
3.08184e-06
3.17646e-05
3.72834e-05
7.43071e-06
1.11252e-05
2.13894e-05
2.13667e-05
2.12682e-05
1.19981e-05
4.78864e-06
4.78864e-06
7.58619e-06
1.69035e-05
2.18718e-05
2.18963e-05
2.18963e-05
2.19007e-05
1.74757e-05
2.99034e-06
2.95925e-07
1.17886e-07
6.32978e-08
4.75399e-08
4.31395e-08
4.18802e-08
4.15411e-08
4.14516e-08
4.1428e-08
4.1422e-08
4.14207e-08
4.14213e-08
4.14213e-08
4.20213e-08
5.42155e-08
2.79081e-05
3.25502e-05
3.25563e-05
2.55372e-05
5.08405e-06
2.29664e-06
5.29648e-06
2.61886e-06
3.91865e-07
3.95149e-07
4.23989e-07
6.24552e-07
1.7225e-05
4.93665e-05
4.96362e-05
4.97012e-05
4.93642e-05
3.67853e-05
1.7079e-05
8.52558e-06
2.41948e-06
4.83646e-06
5.76803e-06
2.14694e-06
3.14929e-09
3.17268e-09
3.28374e-09
3.91699e-09
1.05767e-08
4.70896e-07
2.39122e-05
2.76517e-05
2.73179e-05
1.10407e-05
2.15378e-07
3.79413e-06
5.3249e-06
3.32377e-06
5.30215e-07
8.32509e-06
8.93265e-06
8.93285e-06
8.92804e-06
8.82898e-06
7.82788e-07
8.75419e-07
5.53745e-06
4.13923e-05
1.30642e-05
7.08947e-06
8.65388e-06
2.13667e-05
2.13966e-05
1.66842e-05
4.91396e-06
4.77654e-06
4.90057e-06
5.06466e-06
5.35274e-06
1.82525e-05
2.18718e-05
2.19032e-05
2.18963e-05
2.17194e-05
1.7431e-05
1.52543e-06
2.04208e-07
8.71237e-08
5.39454e-08
4.49466e-08
4.23941e-08
4.16897e-08
4.14954e-08
4.14401e-08
4.14251e-08
4.14213e-08
4.14207e-08
4.14213e-08
5.36156e-08
6.12427e-06
3.21276e-05
3.25612e-05
3.25502e-05
2.749e-05
2.72574e-06
1.98634e-06
5.21884e-06
7.85747e-07
3.98807e-07
4.0026e-07
4.39536e-07
6.93823e-07
1.98462e-05
4.96112e-05
4.96993e-05
4.98628e-05
4.9752e-05
4.93548e-05
4.68224e-05
1.0422e-05
2.10788e-06
4.74719e-06
3.96968e-06
3.56643e-09
3.19823e-09
3.28374e-09
3.70416e-09
4.49072e-09
7.75588e-09
2.09685e-08
7.2541e-07
1.35756e-05
1.02497e-05
4.90362e-08
1.02013e-07
1.43308e-06
4.30092e-06
2.76952e-06
2.75933e-06
8.92895e-06
8.93275e-06
8.92895e-06
8.88871e-06
3.14351e-06
9.89889e-07
2.39905e-06
4.07439e-05
4.29708e-05
1.49041e-05
7.13197e-06
7.08947e-06
8.71629e-06
9.28115e-06
6.1061e-06
5.07416e-06
4.91396e-06
5.06466e-06
7.78916e-06
8.13554e-06
2.0734e-05
2.15383e-05
2.17933e-05
2.17194e-05
2.09714e-05
8.19526e-06
4.02137e-07
1.69107e-07
7.8518e-08
5.26158e-08
4.48738e-08
4.25352e-08
4.18297e-08
4.15896e-08
4.14794e-08
4.14367e-08
4.14243e-08
4.14213e-08
2.15842e-07
4.39758e-07
1.06873e-05
3.02962e-05
3.2483e-05
3.25529e-05
2.81866e-05
2.65491e-06
1.75073e-06
5.17217e-06
1.30357e-06
3.93608e-07
3.96856e-07
4.26968e-07
1.14232e-06
7.71763e-06
1.59508e-05
3.83395e-05
4.99004e-05
4.9862e-05
4.97505e-05
4.93381e-05
7.59759e-06
1.89833e-06
2.07804e-06
1.79893e-09
3.25285e-09
7.47745e-09
6.87259e-09
4.49072e-09
6.40349e-09
1.0215e-08
1.68037e-08
2.38392e-08
2.67672e-08
2.65771e-08
3.22369e-08
7.34538e-08
2.02934e-07
2.32737e-06
4.20715e-06
4.21012e-06
3.92527e-06
7.78527e-06
6.24334e-06
3.30748e-06
2.42244e-06
1.48584e-06
2.36922e-05
4.33086e-05
4.3355e-05
4.19685e-05
1.61198e-05
1.99378e-05
1.16574e-05
1.08592e-05
1.72891e-05
2.39079e-05
1.9939e-05
1.39503e-05
1.76291e-05
1.73729e-05
1.69601e-05
2.00113e-05
1.81773e-05
8.83558e-06
9.54415e-07
4.15885e-07
2.05605e-07
1.00244e-07
6.33275e-08
4.95021e-08
4.46016e-08
4.29674e-08
4.23345e-08
4.18247e-08
4.1589e-08
4.14794e-08
4.14367e-08
4.14243e-08
3.43402e-06
1.74309e-05
1.93525e-05
1.43207e-05
2.58516e-05
3.2483e-05
3.18121e-05
4.02841e-06
1.44644e-06
5.12428e-06
3.31135e-06
3.92754e-07
3.93608e-07
4.0819e-07
6.56347e-07
8.94502e-07
2.16e-06
3.88568e-05
4.99078e-05
4.99004e-05
4.98601e-05
4.58136e-05
9.70453e-07
1.82067e-06
8.1715e-07
8.14641e-10
7.53359e-09
2.13464e-08
2.06347e-08
1.5342e-08
1.02157e-08
1.67398e-08
2.62696e-08
2.98125e-08
2.67641e-08
2.82387e-08
3.59745e-08
2.12631e-07
3.44255e-06
4.28751e-06
4.28751e-06
2.34987e-06
1.55058e-06
1.58124e-06
1.7191e-06
2.06441e-06
2.38878e-06
4.05736e-06
4.33086e-05
4.3398e-05
4.34075e-05
4.33953e-05
4.33266e-05
4.29985e-05
4.11898e-05
4.12737e-05
4.11228e-05
4.02572e-05
3.80899e-05
3.44317e-05
1.69797e-05
7.35858e-06
4.13438e-06
2.7642e-06
2.27361e-06
1.93735e-06
1.44445e-06
8.63554e-07
4.51461e-07
2.04605e-07
1.21715e-07
6.35779e-08
4.9648e-08
4.46637e-08
4.30197e-08
4.79307e-08
1.27534e-07
6.53385e-08
4.15415e-08
4.14511e-08
8.18954e-06
1.93525e-05
1.93524e-05
1.42239e-05
1.68935e-05
3.18119e-05
3.05559e-05
5.05806e-06
1.20316e-06
3.7687e-06
4.33999e-06
3.92754e-07
3.92607e-07
3.98226e-07
4.39228e-07
6.38203e-07
1.52837e-05
4.99098e-05
4.99098e-05
4.99089e-05
4.98682e-05
2.56913e-05
8.24039e-07
7.68601e-07
6.953e-07
5.76088e-10
2.92684e-09
1.52649e-08
2.59431e-08
9.63506e-08
1.67566e-07
8.52863e-08
9.21063e-08
9.32098e-08
4.77108e-08
3.59284e-08
3.34101e-08
2.13509e-08
5.74834e-07
3.92474e-06
4.27858e-06
3.85526e-06
1.55691e-06
1.55058e-06
1.58124e-06
1.7191e-06
7.38069e-06
4.08908e-05
4.3398e-05
4.34092e-05
4.34107e-05
4.34075e-05
4.33953e-05
4.33266e-05
4.29985e-05
4.0509e-05
2.80967e-05
1.0651e-05
3.88706e-06
1.78952e-06
1.87131e-06
2.10587e-06
2.17846e-06
2.35796e-06
2.76438e-06
2.27348e-06
3.63426e-06
4.38369e-06
3.29917e-06
1.75618e-06
8.24287e-07
1.12661e-07
6.75803e-08
5.07734e-08
4.49647e-08
1.34953e-07
1.58504e-07
1.01874e-07
4.46158e-08
4.22072e-08
1.05052e-05
1.93436e-05
1.93525e-05
1.37107e-05
2.80654e-06
3.03153e-05
2.60903e-05
3.50591e-06
1.12808e-06
1.17549e-06
4.43882e-06
3.92654e-07
3.92754e-07
4.02837e-07
4.98249e-07
1.25424e-05
4.98211e-05
4.98929e-05
4.99082e-05
4.9891e-05
3.96423e-05
1.15339e-06
9.70453e-07
3.00316e-06
2.27045e-06
5.0825e-10
8.72455e-10
3.72026e-09
8.43076e-09
3.42481e-08
5.99108e-07
2.34238e-06
7.29918e-06
9.00785e-06
2.06017e-06
3.80515e-08
2.1299e-08
1.72968e-08
1.54423e-08
2.66879e-07
3.18743e-06
4.18701e-06
4.16432e-06
1.78305e-06
1.68399e-06
1.74254e-06
1.22511e-05
4.33486e-05
4.34092e-05
4.34107e-05
4.34094e-05
4.34102e-05
4.32875e-05
3.76467e-05
1.34847e-05
1.02139e-06
1.56254e-06
1.79997e-06
1.78953e-06
1.78999e-06
1.78999e-06
1.87132e-06
2.17534e-06
2.76048e-06
6.89531e-06
1.2908e-05
3.66036e-05
4.28253e-05
3.25428e-05
1.0322e-05
9.02725e-07
3.24308e-07
2.43963e-07
2.06504e-07
1.61894e-07
1.59197e-07
1.45843e-07
5.62098e-08
5.17449e-08
4.97319e-08
1.63498e-05
1.8878e-05
1.93436e-05
5.29645e-06
6.26508e-07
2.86747e-05
1.5826e-05
1.59166e-06
1.12808e-06
1.12808e-06
4.37984e-06
3.92754e-07
3.95178e-07
4.36208e-07
3.51407e-06
4.93904e-05
4.96918e-05
4.97748e-05
4.98921e-05
2.87195e-05
3.66914e-06
2.0199e-06
5.81146e-06
9.10702e-06
1.20932e-06
4.02647e-10
5.0825e-10
2.17784e-09
1.00517e-08
5.80701e-08
3.35908e-07
1.0802e-05
2.49588e-05
2.49373e-05
2.31217e-05
3.69965e-06
1.72176e-08
1.54451e-08
1.4616e-08
1.4502e-08
5.62308e-08
1.68401e-06
3.72325e-06
3.7024e-06
3.56084e-06
4.43108e-06
6.99092e-06
2.28552e-05
3.32577e-05
4.34092e-05
4.00211e-05
1.65247e-05
3.42476e-07
4.07081e-07
6.598e-07
8.21338e-07
1.02138e-06
1.56238e-06
1.8001e-06
1.78999e-06
1.87132e-06
2.19305e-06
8.81855e-06
2.01398e-05
4.22038e-05
4.24357e-05
4.28253e-05
4.29413e-05
4.28592e-05
3.54724e-05
7.97185e-06
1.91053e-06
1.13713e-06
2.14612e-07
9.6332e-08
6.8819e-08
5.83699e-08
5.61213e-08
5.62098e-08
5.55767e-06
1.79697e-05
1.83422e-05
8.86922e-06
3.25348e-07
2.62713e-07
2.72736e-05
1.48649e-05
1.15354e-06
1.12803e-06
6.16958e-06
6.5667e-06
3.95178e-07
4.05212e-07
2.28432e-06
4.38646e-05
4.91242e-05
4.93951e-05
4.96687e-05
2.42593e-05
2.9009e-06
2.91546e-06
7.57374e-06
9.6762e-06
9.46512e-06
1.4547e-06
2.31643e-10
4.02642e-10
1.89142e-09
1.40425e-08
9.39873e-08
2.43271e-06
2.18877e-05
2.49573e-05
2.49737e-05
2.49373e-05
2.47207e-05
3.58791e-06
1.4616e-08
1.45023e-08
1.45023e-08
1.45023e-08
1.8042e-08
4.64448e-07
1.9999e-06
2.41487e-06
2.28278e-06
1.92003e-06
6.91269e-07
1.91851e-06
3.9497e-06
1.69369e-06
1.81396e-07
2.63779e-07
3.42476e-07
4.07081e-07
2.04509e-06
8.25382e-06
7.56668e-06
2.49374e-06
2.46717e-06
7.32023e-06
2.14352e-05
3.9089e-05
4.05508e-05
4.13969e-05
4.2112e-05
4.25891e-05
4.28592e-05
4.29505e-05
4.28844e-05
3.31514e-05
4.67467e-06
5.19307e-07
1.8577e-07
9.55875e-08
7.01645e-08
6.01429e-08
5.65203e-08
5.63232e-08
1.1886e-05
1.69191e-05
1.29273e-05
1.04155e-06
8.58025e-08
1.61202e-07
1.80058e-05
1.6529e-05
1.2499e-06
1.23193e-06
9.33692e-06
8.27393e-06
4.07912e-07
4.20728e-07
7.63658e-06
4.89813e-05
4.91163e-05
4.91161e-05
3.35696e-05
2.8402e-06
2.61609e-06
2.61529e-06
7.32153e-06
9.6762e-06
9.41138e-06
2.02178e-07
9.17896e-11
2.31629e-10
1.53393e-09
1.27971e-08
9.38536e-08
4.27361e-06
2.48471e-05
2.49726e-05
2.49373e-05
2.47201e-05
2.43405e-05
2.20967e-05
2.23335e-07
1.4616e-08
1.45023e-08
1.8042e-08
3.93468e-08
5.40578e-08
6.02081e-08
1.41453e-07
1.36644e-07
1.43166e-07
1.52568e-07
1.51037e-07
1.73516e-07
1.53491e-07
1.69402e-07
1.81396e-07
4.69963e-07
3.19603e-06
2.02851e-05
2.0748e-05
2.0748e-05
1.64999e-05
1.8144e-05
2.90919e-05
3.20124e-05
3.31151e-05
3.80433e-05
4.10296e-05
4.13969e-05
4.2112e-05
4.25891e-05
4.28592e-05
4.29505e-05
4.25914e-05
1.65599e-05
7.85567e-07
3.0599e-07
1.76547e-07
1.10548e-07
6.78171e-08
6.01429e-08
2.58893e-06
1.45716e-05
1.61975e-05
2.86291e-06
8.57994e-08
4.03452e-08
1.7564e-07
3.9381e-06
1.64325e-05
1.92595e-06
1.45166e-06
9.316e-06
8.25452e-06
5.96053e-07
6.89474e-07
3.99766e-05
4.91163e-05
4.91607e-05
4.91163e-05
3.06701e-05
2.6071e-06
2.57152e-06
2.56431e-06
2.61598e-06
6.02282e-06
8.99867e-06
1.15271e-07
3.54328e-11
9.17896e-11
7.14269e-10
6.61102e-09
5.32828e-08
2.17372e-06
1.98546e-05
2.48499e-05
2.47197e-05
2.43452e-05
2.38536e-05
2.27656e-05
1.49148e-05
5.20373e-07
1.56597e-07
5.01238e-07
4.59119e-07
1.81252e-07
1.17753e-07
1.35335e-07
1.34341e-07
1.36671e-07
1.43657e-07
1.48866e-07
1.49453e-07
1.49453e-07
1.53491e-07
1.21314e-06
1.17659e-05
2.03172e-05
2.06384e-05
2.08185e-05
2.06384e-05
2.04465e-05
2.0221e-05
1.43593e-05
8.15714e-06
2.92169e-06
4.06916e-06
1.0948e-05
1.96116e-05
2.81843e-05
3.43692e-05
3.91479e-05
4.25914e-05
2.79478e-05
4.43116e-06
7.88419e-07
5.61927e-07
8.07302e-07
8.49687e-07
1.34088e-07
6.78171e-08
3.26892e-06
1.34378e-05
6.47262e-06
1.723e-07
4.03453e-08
3.11588e-08
1.06311e-07
2.81131e-06
1.63212e-05
3.49691e-06
1.50273e-06
2.92922e-06
3.71122e-06
6.04758e-07
6.42622e-07
3.21382e-05
4.91614e-05
4.9155e-05
4.91636e-05
4.23036e-05
2.57152e-06
2.56431e-06
2.55936e-06
2.5588e-06
3.02657e-06
6.72184e-06
2.17274e-07
2.34652e-11
3.54328e-11
2.15856e-10
2.4323e-09
1.89026e-08
7.7673e-08
5.04829e-06
1.83632e-05
2.11814e-05
7.40852e-06
4.09284e-06
1.39009e-05
1.64545e-05
1.64545e-05
9.83235e-06
1.14297e-05
1.20236e-05
1.05596e-05
8.60847e-06
5.4751e-06
3.73166e-06
2.98236e-06
2.3521e-06
1.6724e-06
5.60782e-07
1.53491e-07
2.49738e-06