/*--------------------------------*- C++ -*----------------------------------*\
| =========                 |                                                 |
| \\      /  F ield         | OpenFOAM: The Open Source CFD Toolbox           |
|  \\    /   O peration     | Version:  2412                                  |
|   \\  /    A nd           | Website:  www.openfoam.com                      |
|    \\/     M anipulation  |                                                 |
\*---------------------------------------------------------------------------*/
FoamFile
{
    version     2.0;
    format      ascii;
    arch        "LSB;label=32;scalar=64";
    class       volScalarField;
    location    "3.25";
    object      alpha.gasoline;
}
// * * * * * * * * * * * * * * * * * * * * * * * * * * * * * * * * * * * * * //

dimensions      [0 0 0 0 0 0 0];

internalField   nonuniform List<scalar> 
6400
(
1
1
1
0.999999
0.999999
0.999999
1
1
1
1
0.999999
0.999999
1
0.999999
0.999999
1
1
0.999999
1
1
1
1
1
1
1
1
1
1
1
1
1
1
1
1
1
1
1
1
1
1
1
1
1
1
1
1
1
1
1
1
1
1
1
1
1
1
1
1
1
1
1
1
0.999999
0.999999
1
1
1
1
0.999999
0.999999
0.999999
1
1
1
1
0.999999
0.999999
0.999999
1
0.999999
0.999994
0.999999
1
1
0.999999
0.999999
0.999999
0.999999
0.999999
1
0.999999
0.999999
0.999999
1
0.999999
0.999999
1
1
1
1
1
1
1
1
1
1
1
1
1
1
1
1
1
1
1
1
1
1
1
1
1
1
1
1
1
1
1
1
1
1
1
1
1
1
1
1
1
1
1
1
0.999999
0.999999
0.999999
1
1
0.999999
0.999999
0.999998
0.999998
0.999999
1
1
0.999999
0.999999
0.999999
0.999999
0.999999
1
1
0.999999
1
0.999999
0.999999
0.999999
0.999999
0.999999
0.999999
1
0.999999
0.999999
0.999999
1
1
1
1
1
0.999999
0.999999
1
0.999998
0.999998
1
1
1
1
1
1
1
1
1
1
1
1
1
1
1
1
1
1
1
1
1
1
1
1
1
1
1
1
1
1
1
1
1
1
1
1
1
1
1
0.999999
1
1
0.999999
0.999999
0.999998
0.999998
0.999998
0.999999
1
1
0.999999
0.999999
0.999999
0.999999
0.999999
0.999999
1
0.999999
1
1
1
0.999999
0.999999
0.999999
1
1
1
0.999999
0.999999
0.999999
1
1
0.999999
0.999998
0.999999
1
1
1
1
1
1
1
1
1
1
1
0.999999
1
1
1
1
1
1
1
1
1
1
1
1
1
1
1
1
1
1
1
1
1
1
1
1
1
1
1
1
1
1
1
1
1
1
0.999999
0.999999
0.999998
0.999998
0.999999
1
1
0.999999
0.999999
0.999999
0.999999
0.999999
0.999999
1
1
0.999999
1
1
1
1
1
0.999999
1
1
1
0.999999
0.999999
1
1
0.999999
0.999999
0.999999
1
1
1
1
1
1
1
1
1
1
1
1
1
1
1
1
1
1
1
1
1
1
1
1
1
1
1
1
1
1
1
1
1
1
1
1
1
1
1
1
1
1
1
1
1
1
1
1
0.999999
0.999999
0.999999
1
1
1
1
0.999999
0.999999
0.999999
1
1
1
1
1
1
1
1
1
1
1
1
1
1
1
1
0.999999
1
0.999999
0.999999
1
0.999999
1
1
0.999999
0.999999
1
1
1
1
1
1
1
1
1
1
1
1
1
1
1
1
1
1
1
1
1
1
1
1
1
1
1
1
1
1
1
0.999999
0.999999
1
1
1
1
1
1
1
1
1
1
1
0.999999
1
1
1
1
1
0.999999
0.999999
0.999999
1
1
0.999999
1
1
1
1
1
1
1
1
1
1
1
1
1
1
0.999999
1
1
0.999999
0.999999
0.999998
0.999999
0.999999
0.999999
0.999999
1
0.999999
1
1
1
1
1
1
1
1
1
1
1
1
1
1
1
1
1
1
1
1
1
1
1
1
1
1
1
1
1
1
1
1
1
1
1
1
1
1
1
1
1
1
1
1
1
1
1
0.999999
0.999999
0.999999
1
1
1
1
1
1
1
1
1
0.999999
1
0.999999
1
1
1
1
0.999999
1
1
1
1
1
0.999999
0.999999
0.999999
1
1
0.999999
1
1
1
1
1
1
1
1
1
1
1
1
1
1
1
1
0.999999
0.999999
0.999999
1
1
1
1
1
1
1
1
1
1
1
1
1
1
1
1
1
1
1
1
1
1
1
1
1
1
1
1
1
1
1
1
1
1
1
1
1
1
1
1
1
1
1
1
1
1
1
1
1
1
1
1
1
0.999999
0.999999
0.999999
1
1
1
1
1
0.999999
0.999999
1
1
1
1
1
1
1
1
1
1
1
1
1
1
1
1
1
1
1
1
1
1
1
1
1
1
1
1
1
1
1
1
1
1
1
1
1
1
1
1
1
1
1
1
1
1
1
1
1
1
1
0.999999
1
1
1
1
1
1
1
1
1
1
1
1
1
1
1
1
0.999999
1
1
1
0.999999
0.999999
1
0.999999
0.999999
0.999999
1
1
1
1
1
1
1
1
1
1
1
1
1
1
1
1
1
1
1
1
1
1
1
1
1
1
1
1
1
1
1
1
1
1
1
1
1
1
1
1
1
1
1
1
1
1
1
1
1
1
1
1
1
1
1
1
1
1
1
1
1
1
1
1
1
1
1
1
1
1
1
0.999999
0.999999
1
1
0.999999
0.999999
0.999999
1
1
0.999999
1
1
1
1
1
1
1
1
1
1
1
1
1
1
1
1
1
1
1
1
1
1
1
1
1
1
1
1
1
1
1
1
1
1
1
1
1
1
1
1
1
1
1
1
1
1
1
1
1
1
1
1
1
1
1
1
1
1
1
1
0.999999
1
1
1
1
1
1
1
1
1
1
1
1
1
1
1
1
0.999999
1
1
1
1
1
1
1
1
1
1
1
1
1
1
1
1
1
1
1
1
1
1
1
1
1
1
1
1
1
1
1
1
1
1
1
1
1
1
1
1
1
1
1
1
1
1
1
1
1
1
1
1
1
1
1
1
1
1
1
1
1
0.999999
1
1
1
1
1
1
1
1
1
1
1
1
1
1
1
0.999999
1
1
1
1
1
1
1
1
1
1
1
1
1
1
1
1
1
1
1
1
1
1
1
1
1
1
1
1
1
1
1
1
1
1
1
1
1
1
1
1
1
1
1
1
1
1
1
1
1
1
1
1
1
1
1
1
0.999999
0.999999
1
0.999999
1
1
1
1
1
1
1
1
1
0.999982
0.999993
1
1
1
1
1
1
1
1
1
1
1
1
1
1
1
1
1
1
1
1
1
1
1
1
1
1
1
1
1
1
1
1
1
1
1
1
1
1
1
1
1
1
1
1
1
1
1
1
1
1
1
1
1
1
1
1
1
1
1
1
1
1
1
1
1
0.999999
1
1
0.999991
0.999949
0.999898
0.999915
1
0.999999
1
1
0.999817
0.999522
0.999737
0.999997
1
1
1
1
1
1
1
1
1
1
1
1
1
1
1
1
1
1
1
1
1
1
1
1
1
1
1
1
1
1
1
1
1
1
1
1
1
1
1
1
1
1
1
1
1
1
1
1
1
1
1
1
1
1
1
1
1
1
1
1
1
1
1
1
1
1
1
1
1
0.999595
0.998594
0.998695
1
0.999999
1
0.999993
0.999337
0.999102
0.999812
1
1
1
0.999999
1
1
1
1
1
1
1
1
1
1
1
1
1
1
1
1
1
1
1
1
1
1
1
1
1
1
1
1
1
1
1
1
1
1
1
1
1
1
1
1
1
1
1
1
1
1
1
1
1
1
1
1
1
1
1
1
1
1
1
1
1
1
1
1
1
1
0.999986
0.998619
0.998563
0.999903
1
1
1
0.999998
0.999957
0.999987
1
1
1
0.999999
1
1
1
1
1
1
1
1
1
1
1
1
1
1
1
1
1
1
1
1
1
1
1
1
1
1
1
1
1
1
1
1
1
1
1
1
1
1
1
1
1
1
1
1
1
1
1
1
1
1
1
1
1
1
1
1
1
1
1
1
1
1
1
1
1
1
0.99999
0.999965
0.999983
0.999999
1
0.99956
1
0.999996
0.999966
0.999987
0.999996
0.999993
0.999993
0.999996
0.999998
0.999999
0.999999
1
1
1
1
1
1
1
1
1
1
1
1
1
1
1
1
1
1
1
1
1
1
1
1
1
1
1
1
1
1
1
1
1
1
1
1
1
1
1
1
1
0.999999
0.999972
0.999978
1
1
1
1
1
1
1
1
1
1
1
1
1
0.999999
0.999998
0.999996
0.999994
0.999992
0.999995
0.999988
0.999971
0.999989
0.999999
0.998465
0.999322
0.788315
0.587771
0.720607
0.877458
0.961028
0.998535
0.999679
0.999868
0.999941
0.999964
0.999989
0.999997
0.999999
0.999999
1
1
1
1
1
1
1
1
1
1
1
1
1
1
1
1
1
1
1
1
1
1
1
1
1
1
1
1
1
1
1
1
1
1
1
1
1
1
0.999999
0.999986
1
1
1
1
1
1
1
1
1
0.999999
0.999999
0.999998
0.999996
0.999988
0.999961
0.999936
0.99987
0.999697
0.998823
0.964987
0.883641
0.771944
0.683533
0.849923
0.998199
0.740955
0.26785
0.035506
0.00252235
0.0577408
0.288824
0.581587
0.7966
0.931093
0.987476
0.99921
0.999751
0.999926
0.999965
0.999978
0.999985
0.999988
0.999985
0.999985
0.999993
1
1
0.980506
0.916144
0.855482
0.800879
0.753059
0.709426
0.661631
0.632985
0.624054
0.632712
0.658359
0.693922
0.733315
0.772273
0.80854
0.839413
0.862631
0.877477
0.883714
0.881314
0.870115
0.850822
0.825075
0.795977
0.763585
0.732103
0.707264
0.689478
0.681515
0.69217
0.725454
0.759768
0.800175
0.847307
0.900995
0.960473
1
1
0.999999
0.999991
0.999986
0.999984
0.999981
0.999969
0.999948
0.999899
0.999728
0.999173
0.987065
0.930625
0.798463
0.590456
0.306806
0.080222
0.00846147
0.0735665
0.328726
0.782663
0.0899311
0.0104799
0.00144255
0.000538042
0.000250194
0.00014172
0.000274636
0.0351695
0.21648
0.441455
0.71215
0.932936
0.975281
0.981246
0.98272
0.982898
0.97471
0.925106
0.832312
0.682568
0.504154
0.335501
0.200702
0.122739
0.0745363
0.0406915
0.0155909
4.64993e-06
8.30303e-07
3.67933e-06
0.0015759
0.00720418
0.0180796
0.0316903
0.0501354
0.0738076
0.101596
0.130585
0.155529
0.172971
0.180307
0.176328
0.161394
0.137366
0.109301
0.0817799
0.055566
0.0343722
0.0170459
0.00495534
0.000469542
3.2566e-06
0.000283608
0.018077
0.0416038
0.0732241
0.116064
0.17872
0.287624
0.444625
0.616252
0.775054
0.888333
0.952177
0.976291
0.97465
0.968399
0.956565
0.918502
0.723418
0.441244
0.214007
0.0342252
8.4325e-05
5.96057e-05
9.91654e-05
0.000446757
0.00107799
0.0140741
0.117176
0.000697237
0.00201064
0.00130057
0.000205023
0.000108058
0.000103854
0.000112015
9.28541e-05
8.00647e-05
4.11091e-05
0.0465646
0.29908
0.395645
0.3771
0.360711
0.33255
0.261733
0.173043
0.0928355
0.0391267
0.0123299
0.00111785
1.48985e-09
1.71539e-09
1.71539e-09
1.9344e-09
1.90845e-08
3.33125e-07
7.33306e-07
1.40426e-06
2.73299e-06
4.62582e-06
2.2121e-06
1.37238e-06
9.90928e-06
3.74027e-05
9.04627e-05
0.00016269
0.000227635
0.000268303
0.000272175
0.000247397
0.000191405
0.000118321
5.47901e-05
1.53981e-05
4.72545e-07
1.71383e-08
3.54885e-06
4.36166e-06
1.21633e-06
1.13303e-07
6.57725e-09
4.14556e-10
3.7749e-10
2.95028e-10
2.81651e-10
2.81652e-10
0.00023816
0.00831399
0.0278005
0.070181
0.137965
0.221131
0.290177
0.314557
0.313697
0.316911
0.262967
0.0540364
1.95476e-06
1.38414e-05
2.89094e-05
4.09389e-05
3.60527e-05
0.000109126
0.00017931
0.000272887
0.000521252
0.000798329
0.000615692
0.00059924
0.000234643
0.000107047
0.000103854
0.000100471
9.28541e-05
8.89523e-05
8.21704e-05
1.08448e-05
6.15025e-06
2.85618e-07
-1.81195e-25
-1.55437e-12
-4.88484e-11
-6.36004e-10
-3.46231e-09
-6.34414e-09
0
2.07886e-09
7.89575e-08
7.65837e-07
3.22236e-08
5.88812e-08
3.07296e-09
6.22915e-10
1.87994e-07
1.2819e-06
1.88631e-06
2.03264e-06
1.90012e-06
1.35373e-06
3.76864e-08
3.39118e-08
1.61532e-07
8.95542e-07
2.90367e-06
6.60859e-06
1.08128e-05
1.39236e-05
1.42905e-05
1.18455e-05
8.03683e-06
4.18115e-06
1.46232e-06
2.57612e-07
1.06882e-08
7.37947e-09
1.7375e-08
1.0073e-07
7.75195e-07
2.94576e-08
2.47748e-11
2.02198e-11
4.11501e-10
3.87468e-09
3.51033e-09
2.81581e-10
-7.2011e-10
2.95404e-07
2.05901e-08
1.2218e-09
-5.92619e-48
4.27412e-44
-2.25182e-36
1.29939e-11
2.51176e-11
2.51197e-11
2.51177e-11
2.24691e-09
1.57722e-07
1.89499e-05
2.16498e-05
2.47682e-05
3.22216e-05
3.60527e-05
4.42935e-05
0.000263712
0.000569823
0.000672658
0.000824862
0.000600391
0.000112016
0.000112016
0.000116866
0.000168791
8.92844e-05
9.03611e-05
0.000117753
0.000117299
1.37993e-05
2.27035e-10
1.59468e-10
1.02303e-10
-1.10441e-27
0
0
-3.6914e-09
-1.12471e-08
-3.30872e-25
3.85111e-12
7.0804e-12
4.72838e-07
2.11578e-07
8.80044e-10
5.78339e-10
5.79086e-10
1.93337e-06
2.13806e-06
2.14024e-06
2.14024e-06
1.38364e-06
1.01624e-08
1.95598e-08
2.54777e-09
1.78489e-08
7.50283e-08
2.22108e-07
4.57156e-07
6.95683e-07
7.91992e-07
6.70826e-07
4.42126e-07
1.91787e-07
4.48614e-08
5.47697e-09
4.01494e-09
7.24265e-09
7.37947e-09
6.75107e-09
1.81864e-09
1.08674e-09
2.02198e-11
2.02198e-11
2.67605e-09
1.2397e-08
3.85602e-08
6.03499e-08
3.0298e-08
4.38113e-09
1.2218e-09
1.65436e-25
-1.16039e-08
-4.55064e-09
-6.70465e-10
0
2.07037e-11
2.51176e-11
2.03026e-08
7.72272e-07
1.33615e-05
1.59449e-05
1.62507e-05
1.97213e-05
2.65319e-05
3.74273e-05
6.74216e-05
0.0011658
0.00249914
0.00216656
0.00085066
0.00085066
0.000140354
0.000119465
0.000244545
0.000244617
0.000231457
0.000144265
6.81714e-05
0.000111864
9.80322e-06
5.71975e-07
2.27035e-10
1.1825e-09
3.87839e-10
4.50711e-10
9.42521e-11
-3.99777e-13
-2.93602e-14
3.84969e-12
6.89773e-12
6.95544e-12
6.89535e-12
6.95544e-12
5.62036e-10
7.23258e-10
5.78229e-10
3.79023e-08
1.07605e-06
1.23387e-06
5.88072e-07
4.98726e-09
2.02434e-11
3.47894e-11
1.2111e-10
2.97674e-10
1.96859e-09
7.13348e-09
1.87304e-08
3.44886e-08
4.48753e-08
3.68891e-08
2.57181e-08
9.90295e-09
1.77379e-09
3.0987e-10
3.87184e-09
1.29949e-08
1.72466e-08
2.04686e-08
1.47055e-08
1.18755e-09
3.22681e-11
4.18206e-11
4.78451e-11
2.23846e-10
4.04481e-08
6.0745e-08
6.0745e-08
4.04252e-09
3.63906e-09
2.49375e-09
-5.04871e-27
0
0
3.41841e-10
8.24239e-10
2.85166e-11
5.94769e-07
5.01454e-06
3.91963e-06
6.68794e-05
0.000138788
0.000237995
7.10937e-05
4.54812e-05
3.04146e-05
0.00128112
0.00307102
0.00307102
0.000163168
0.000773333
1.10535e-06
1.17994e-05
0.000220595
0.000244503
0.000244371
0.000197409
1.34591e-06
5.45862e-06
6.62123e-07
1.22871e-07
3.12202e-08
3.77311e-09
7.93267e-09
1.08496e-08
5.46223e-09
2.23589e-09
3.49299e-10
2.12109e-11
1.10767e-11
1.35194e-11
3.29544e-11
4.32367e-10
1.55204e-09
2.15144e-09
1.06339e-09
7.04944e-12
6.67033e-12
1.30904e-10
6.83488e-12
1.80527e-12
1.83076e-12
1.11144e-11
9.20746e-11
1.41073e-11
4.08896e-10
8.67413e-10
1.66279e-09
2.38688e-09
5.85903e-09
4.22939e-09
2.04943e-09
6.6059e-10
2.45781e-10
1.9493e-10
8.55715e-10
8.49109e-09
1.69749e-08
2.07408e-08
1.38184e-08
2.87767e-09
1.18771e-10
1.77404e-10
1.51608e-10
2.30078e-10
1.55888e-11
1.53558e-08
1.3817e-08
1.59121e-08
8.94407e-09
3.21773e-09
2.775e-09
6.53317e-09
5.18696e-09
2.51835e-09
2.26565e-09
3.22709e-09
4.7484e-08
5.66536e-07
1.02584e-07
3.48426e-05
0.000259712
0.000261384
0.000263057
6.48884e-05
2.00322e-05
7.11711e-06
0.000762903
0.00307102
9.95749e-05
7.51997e-05
3.0934e-07
2.06528e-06
0.000134497
0.000244371
0.00017956
1.73129e-05
3.9617e-07
2.40131e-07
2.15419e-07
1.67515e-07
2.01592e-07
6.57123e-08
1.59244e-07
1.96167e-07
9.54916e-08
3.90683e-08
7.3563e-09
4.18062e-10
3.93124e-10
1.38283e-11
1.27861e-10
5.7384e-10
1.52574e-09
2.09628e-09
2.02364e-09
1.43524e-09
7.4401e-10
5.66983e-11
1.37554e-12
1.45672e-12
1.80165e-12
2.43598e-12
5.14e-12
8.84559e-12
7.21192e-10
7.59841e-10
9.42978e-10
8.53323e-10
3.68085e-09
1.94793e-09
6.59655e-10
2.42945e-10
1.95022e-10
1.91793e-10
1.03023e-10
1.3805e-10
2.20016e-10
1.49447e-10
4.25472e-11
1.21173e-09
4.35836e-10
2.63398e-10
2.90034e-10
1.6971e-10
1.48594e-11
2.63507e-12
2.80808e-12
4.75953e-11
1.27958e-10
1.2963e-08
4.87097e-08
1.17511e-07
9.62534e-08
3.73312e-08
9.89823e-09
2.04098e-08
3.55821e-08
3.86163e-08
5.16467e-08
1.01237e-07
0.00014724
0.000263057
0.000263057
0.00018055
1.04502e-05
1.26937e-06
6.33739e-07
0.00108202
0.000202458
5.15125e-05
8.78155e-08
2.26143e-06
1.82265e-05
3.5446e-05
1.10505e-05
4.70403e-07
3.92914e-07
3.19085e-07
2.40313e-07
1.95225e-07
5.9346e-06
3.75498e-05
7.41317e-05
7.14019e-05
2.22309e-05
2.50858e-06
1.29501e-07
4.2844e-09
1.52983e-09
1.48315e-11
7.8772e-12
9.44699e-12
2.71927e-11
4.10784e-10
2.11023e-10
2.05051e-10
1.44178e-10
1.27174e-11
1.35539e-12
1.38726e-12
1.86783e-12
3.02224e-12
4.46203e-12
6.72175e-12
2.50009e-09
5.53036e-09
1.6196e-08
7.83299e-10
1.16073e-08
1.23552e-07
3.30906e-10
3.09694e-10
1.28448e-09
2.95929e-10
1.92317e-10
7.82949e-11
7.488e-12
5.91851e-13
5.00215e-13
8.7e-13
9.48935e-13
8.98227e-11
1.75769e-10
1.27695e-10
4.00284e-11
2.44038e-12
2.1781e-12
-3.09252e-12
2.27968e-09
1.83084e-07
8.08148e-06
3.95247e-05
3.83945e-05
1.36404e-05
1.86663e-06
1.85442e-07
3.85883e-08
5.10442e-08
6.34703e-08
6.22842e-08
4.20372e-07
8.49189e-05
0.000258141
0.000152217
5.52146e-06
6.33735e-07
1.81933e-07
1.43427e-07
0.00205683
0.00012072
4.60674e-08
2.798e-07
2.82548e-07
5.62552e-07
6.49349e-07
4.849e-07
4.39816e-07
3.92991e-07
3.26187e-07
8.36043e-07
3.10732e-05
0.000170939
0.000170767
0.000170901
0.000170767
0.000105006
3.21541e-05
2.51746e-06
4.75682e-10
8.16434e-12
6.14253e-13
4.59097e-13
3.71636e-13
3.69725e-13
3.69727e-13
3.78428e-13
4.06049e-13
5.89409e-13
5.94271e-13
6.57437e-13
1.50809e-12
2.88398e-12
4.64929e-12
4.64993e-12
3.98199e-09
2.03857e-08
2.81509e-08
7.91752e-10
2.26583e-09
4.11533e-07
1.73378e-07
9.33265e-08
2.15438e-09
2.23606e-10
2.23337e-10
1.08945e-10
1.68444e-11
1.20825e-12
4.93782e-13
3.78379e-13
6.81959e-13
8.01076e-14
6.18702e-14
6.18702e-14
9.10107e-13
9.88659e-13
1.2786e-12
1.1237e-10
4.78932e-08
3.88583e-05
0.000111917
0.000124789
0.000124789
0.000114932
2.81127e-05
4.8168e-07
9.47882e-08
6.29881e-08
6.41071e-08
7.62387e-08
1.14383e-07
8.70743e-07
1.7085e-05
2.30243e-05
1.51108e-05
7.96766e-07
1.43421e-07
1.23459e-07
0.00239192
0.000297117
3.98095e-08
4.57749e-08
1.01536e-07
2.80953e-07
5.64668e-07
6.51682e-07
1.47392e-06
6.84521e-06
1.49253e-05
1.54166e-05
4.72237e-05
0.000168529
0.000170944
0.000170767
0.000169747
0.000168991
0.000164621
1.88196e-05
8.39161e-11
3.54102e-12
1.99078e-12
1.92231e-12
1.23763e-12
9.63541e-13
9.63188e-13
8.40715e-13
3.67956e-13
1.99615e-13
1.09729e-13
2.46499e-13
8.73206e-13
2.57472e-12
6.2523e-12
4.9501e-12
3.87318e-09
2.10291e-08
2.06048e-08
3.50296e-07
1.7056e-09
4.11526e-07
4.11739e-07
2.56726e-07
3.70255e-09
3.27806e-10
2.82288e-10
9.62063e-11
1.15361e-11
5.60847e-13
8.15285e-14
6.47058e-14
4.30086e-14
5.44244e-14
1.12301e-13
1.14437e-12
1.47577e-11
1.37628e-12
1.23704e-11
4.81181e-09
4.99016e-05
0.000124285
0.000124566
0.000124704
0.000124823
0.000124704
8.62576e-05
4.3617e-06
4.45015e-07
1.35495e-07
7.6289e-08
1.05681e-07
1.23143e-07
2.25348e-07
5.62929e-07
5.55444e-07
2.60325e-06
1.04284e-06
1.23459e-07
1.18178e-07
0.00239192
0.000368199
4.03623e-08
3.99417e-08
5.44826e-08
1.66211e-07
5.4114e-07
1.01993e-06
1.48031e-05
0.000428399
0.000748785
0.000605531
0.000185332
4.43286e-05
7.23819e-05
0.000147468
0.000168182
0.000167421
0.000125162
2.548e-05
1.66785e-09
4.18797e-11
3.23583e-11
1.85088e-11
8.18896e-12
7.00937e-13
3.36323e-13
1.32301e-13
2.345e-14
1.97953e-14
3.08065e-14
1.67527e-13
7.51414e-13
2.75727e-12
8.45608e-12
7.34816e-12
1.11953e-09
2.05403e-08
3.92085e-09
1.02368e-06
6.57435e-06
3.52896e-07
3.09522e-07
9.79981e-08
3.76492e-09
8.90229e-10
3.02802e-10
6.45937e-11
4.52977e-12
8.97575e-14
9.5822e-15
5.73595e-15
5.3838e-15
1.63488e-14
2.44371e-13
1.74519e-11
7.0197e-11
1.7107e-11
5.7702e-10
8.33578e-06
0.000120705
0.000122719
0.00012426
0.000124566
0.000124704
0.00011316
2.86723e-05
8.78254e-06
6.25209e-06
5.5409e-06
1.46124e-07
1.22821e-07
2.27115e-07
3.66434e-07
4.17533e-07
2.80117e-07
1.82987e-07
2.08998e-07
1.17376e-07
1.18178e-07
0.00121047
0.000318544
3.98232e-08
4.3081e-08
1.14693e-07
6.08467e-07
2.91483e-06
9.26986e-05
0.000912753
0.0010196
0.00102031
0.00100691
0.000461243
3.64963e-05
3.63955e-05
3.66588e-05
3.46086e-05
5.7916e-05
7.766e-06
3.38827e-06
3.20112e-08
4.13824e-10
7.59205e-10
5.66055e-10
1.19618e-10
2.63928e-12
2.87612e-14
3.85104e-15
1.5536e-15
2.61832e-15
1.65305e-14
1.39845e-13
7.01459e-13
2.54418e-12
1.10197e-11
3.14758e-11
9.54678e-11
3.18887e-09
2.33971e-09
8.6636e-07
9.09576e-06
4.21193e-07
1.89847e-08
3.82607e-10
8.08839e-10
3.65294e-10
1.6889e-10
3.16699e-11
1.30248e-12
2.18887e-14
2.34315e-15
1.31749e-15
2.08329e-15
3.32925e-14
4.57022e-12
8.32672e-11
8.34307e-11
2.15025e-10
1.5345e-08
3.03306e-05
0.000115443
0.000120725
0.000116182
8.33154e-05
4.5405e-05
3.80302e-05
3.08095e-05
0.000116656
0.000462337
0.000467083
0.000159722
5.20012e-07
3.37229e-07
4.09997e-07
2.75031e-07
1.81257e-07
1.35057e-07
1.18426e-07
1.16661e-07
1.21937e-07
0.000258521
0.000341701
1.3181e-07
8.61994e-08
5.19631e-07
4.25762e-06
0.000118527
0.000934391
0.00101634
0.00102113
0.00101463
0.000960485
0.00028165
3.63998e-05
3.66586e-05
2.95413e-05
1.46093e-05
8.87084e-06
7.1763e-06
4.16149e-06
4.52701e-06
6.03915e-09
6.0301e-12
3.17961e-09
5.74162e-10
4.49125e-12
1.27411e-13
2.61501e-15
6.19786e-16
8.45362e-16
1.12298e-14
1.16965e-13
6.61139e-13
2.45038e-12
1.1865e-11
3.85858e-11
4.8712e-11
4.92681e-11
3.36684e-09
3.35648e-07
9.09605e-06
6.32935e-07
2.99949e-10
1.97825e-10
1.96156e-10
1.44833e-10
5.0717e-11
5.61742e-12
1.82003e-13
1.05688e-14
1.08935e-15
1.07008e-15
8.89895e-15
5.09023e-13
1.99717e-11
9.93597e-11
2.61582e-13
5.29025e-10
1.60551e-05
3.60913e-05
6.65738e-05
4.7575e-05
2.46123e-05
3.39161e-05
3.8408e-05
4.13029e-05
3.80293e-05
0.000654986
0.000810289
0.000818011
0.000820688
0.00076073
9.08228e-05
1.39323e-06
4.62856e-07
2.40821e-07
1.29841e-07
1.16866e-07
1.16866e-07
3.1567e-07
0.000258521
0.000324419
1.32277e-07
1.94956e-07
1.24045e-06
9.69918e-06
0.000436946
0.00101748
0.0010175
0.00101463
0.000780684
0.000175049
0.000139968
0.000134059
0.000295363
0.000345106
0.000192446
1.50579e-05
8.87286e-06
3.38785e-05
6.88951e-05
5.1513e-06
3.90475e-12
4.53321e-09
6.15218e-10
5.30509e-12
9.24788e-13
2.52837e-14
6.02404e-16
5.33355e-16
7.93787e-15
9.34081e-14
5.89734e-13
2.10162e-12
1.08408e-11
7.19735e-11
1.24208e-10
1.15556e-10
1.36624e-09
2.9027e-08
9.09605e-06
1.57879e-06
3.28979e-10
1.79386e-10
1.80472e-10
1.00513e-10
1.8825e-11
8.68319e-13
4.42076e-14
6.32739e-15
1.13522e-15
1.60876e-15
1.08393e-13
2.72021e-12
2.93531e-11
1.0413e-10
2.11929e-13
6.05295e-06
5.09506e-05
5.09506e-05
6.87049e-06
9.48448e-06
1.29325e-05
4.15569e-05
8.12313e-05
4.55005e-05
8.80456e-05
0.000613013
0.000808164
0.000820688
0.000820688
0.000820688
0.000547198
3.14565e-05
2.36703e-06
4.11237e-07
1.43085e-07
1.16866e-07
1.16702e-07
1.2106e-06
0.000275098
0.000279831
1.97416e-07
3.06559e-07
1.61647e-06
5.14387e-05
0.000811834
0.00102285
0.00101749
0.00067125
0.000118161
0.00012009
0.000127243
0.000349112
0.000481336
0.000490743
0.000500149
0.000331334
1.41303e-05
7.81941e-05
7.91502e-05
2.27844e-05
3.17479e-15
1.38372e-09
1.33709e-10
8.0722e-12
2.18511e-12
1.02598e-13
1.35386e-15
4.72657e-16
5.43786e-15
6.84017e-14
4.73779e-13
1.78816e-12
1.27738e-11
2.23404e-10
5.57873e-10
1.22008e-10
1.21908e-10
3.68721e-10
9.09605e-06
4.83059e-06
6.0185e-09
8.44574e-11
7.11833e-11
4.48341e-11
6.71112e-12
2.67663e-13
2.84527e-14
3.74093e-15
1.11314e-15
1.00287e-14
5.09335e-13
6.49816e-12
2.52775e-11
1.24357e-11
9.69143e-14
1.95186e-05
5.07594e-05
5.09506e-05
4.34426e-06
5.90636e-06
8.89293e-05
0.000331368
0.000386427
0.000348644
0.000130832
0.000115692
0.00030165
0.000808199
0.000820688
0.000819138
0.000823351
0.000194737
3.87618e-06
5.60972e-07
1.55575e-07
1.18244e-07
1.17284e-07
1.47798e-06
0.000290519
0.000311399
1.73733e-07
2.49834e-07
1.35729e-06
8.75584e-05
0.00102285
0.00103216
0.00102285
0.000364786
0.000117885
0.000118111
0.00012009
0.000126465
0.000383815
0.000500149
0.000512774
0.000533493
0.000130039
5.37095e-05
5.47357e-05
2.16746e-05
2.77774e-15
3.17479e-15
4.03989e-12
8.30369e-12
2.68086e-12
2.11618e-13
4.17515e-15
4.33538e-16
3.57677e-15
4.7169e-14
3.8433e-13
1.47125e-12
2.65886e-12
3.10332e-11
2.45825e-09
1.22008e-10
1.12169e-08
2.68477e-06
9.09569e-06
5.06152e-06
7.0908e-09
6.69197e-11
5.30301e-11
2.69445e-11
2.57037e-12
1.2617e-13
1.74269e-14
1.99418e-15
1.11314e-15
2.95371e-14
1.13616e-12
7.94498e-12
9.72628e-12
2.10987e-12
5.73831e-14
1.19297e-05
3.6576e-05
2.04159e-05
6.50892e-07
1.41367e-05
0.000391937
0.000390999
0.000390221
0.000386427
0.000150214
0.000105577
0.000103842
0.000180599
0.000804565
0.000823351
0.000831472
0.000336796
4.14851e-06
9.88448e-07
5.60984e-07
3.27871e-07
3.85905e-07
1.47625e-06
0.000262294
0.000391591
1.48704e-07
1.73733e-07
1.34473e-06
0.000173078
0.00103216
0.001037
0.00103216
0.000301414
0.000117885
0.000117721
0.000118111
0.000120299
0.000126324
0.000260869
0.000533493
0.00054228
0.000354688
1.1592e-07
2.34824e-08
2.41887e-06
2.77774e-15
1.3771e-14
8.01615e-13
4.55529e-12
1.90977e-12
2.77687e-13
6.60936e-15
3.52835e-16
2.27445e-15
3.10998e-14
2.76352e-13
1.00147e-12
1.20248e-12
9.15672e-12
5.39674e-10
2.88585e-06
1.29654e-05
1.38952e-05
8.94779e-06
1.84777e-06
2.48683e-10
8.00604e-11
7.67127e-11
1.96977e-11
1.01616e-12
7.20545e-14
1.02685e-14
1.18543e-15
1.27471e-15
4.57436e-14
1.02895e-12
6.57592e-12
3.13836e-12
2.53819e-13
5.49457e-14
5.29949e-08
5.66742e-10
1.9506e-08
4.52479e-08
0.000272941
0.000394431
0.000392715
0.000390999
0.000143992
0.000105577
0.000103842
0.000103633
0.000103842
0.00071493
0.000831472
0.000832847
0.000474656
5.85956e-06
1.96209e-06
1.2799e-06
4.9832e-06
4.18614e-07
6.54671e-07
0.000277792
0.000392857
1.49129e-07
3.0276e-07
2.6177e-06
0.000122651
0.001037
0.001037
0.001037
0.000278898
0.000117799
0.00011791
0.000120067
0.000126642
0.000139295
0.000145
0.0002751
0.000542974
0.000540766
2.34824e-08
2.11887e-11
3.28114e-15
2.77774e-15
3.05856e-14
6.47777e-13
1.97813e-12
1.49385e-12
2.45985e-13
6.41883e-15
2.45687e-16
1.41423e-15
1.93333e-14
1.87028e-13
7.63518e-13
9.60907e-13
1.05582e-11
7.15682e-10
6.84423e-06
1.38963e-05
1.38997e-05
4.09117e-06
1.74442e-08
3.13273e-10
3.27326e-10
9.6436e-11
6.23875e-12
3.11969e-13
4.42728e-14
6.13719e-15
7.29158e-16
1.4205e-15
4.99166e-14
5.30609e-13
1.94999e-12
1.14648e-12
1.6833e-13
5.49457e-14
5.49399e-14
1.62052e-12
5.68196e-10
5.70642e-08
0.000385214
0.000394431
0.000394431
0.000153059
0.000108911
0.000104707
0.000103633
0.000103842
0.000164975
0.000819052
0.00083383
0.000831588
0.000370982
1.32118e-05
1.21613e-05
8.61795e-06
8.30684e-06
4.79501e-07
6.48285e-07
0.000421624
0.000383501
6.17595e-07
9.20448e-07
2.10574e-06
8.28882e-06
0.000601611
0.001037
0.00103104
0.000899961
0.00011791
0.00011899
0.000126954
0.000159234
0.000145879
0.000145159
0.000147822
0.000545416
0.000546196
3.30076e-05
1.35578e-10
4.7333e-15
3.27047e-15
2.49698e-14
3.52299e-13
8.25232e-13
8.37267e-13
1.09308e-13
3.13336e-15
1.44925e-16
9.08715e-16
1.17295e-14
1.24958e-13
7.61847e-13
7.82112e-13
2.42618e-12
1.34574e-10
2.23413e-06
1.22622e-05
1.39055e-05
8.39132e-06
4.55305e-09
2.85402e-10
2.30576e-10
3.18548e-11
1.87209e-12
2.1807e-13
3.1025e-14
3.78137e-15
4.70701e-16
1.29894e-15
4.43738e-14
3.79934e-13
3.37593e-13
2.65219e-13
1.47489e-13
4.84788e-14
-1.29627e-13
1.30082e-11
3.09782e-09
2.41175e-07
0.00038561
0.000394431
0.000260685
0.000139132
0.000118818
0.000108425
0.000104221
0.000103678
0.000714957
0.000832292
0.000831462
0.000832017
9.173e-05
7.65437e-06
5.74323e-06
8.31102e-06
5.9467e-06
1.91972e-05
0.000377244
0.000422358
8.09382e-05
6.53485e-07
1.09771e-06
1.18225e-06
1.47564e-06
9.35904e-06
0.000999698
0.00102364
0.00101815
0.000998434
0.00051612
0.000581001
0.000744272
0.000248413
0.000145159
0.000147871
0.000541997
0.000546196
0.000131967
1.61484e-07
-1.68948e-12
2.11205e-15
4.51564e-16
1.2223e-13
2.85016e-13
3.1208e-13
3.62444e-14
9.56196e-16
8.28868e-17
6.36249e-16
8.26088e-15
9.10901e-14
8.67029e-13
3.63067e-12
3.69066e-12
8.09843e-12
3.32995e-10
2.15634e-06
1.39055e-05
1.33036e-05
5.79726e-12
1.77265e-10
8.59655e-11
7.74796e-12
1.36508e-12
1.91499e-13
2.28792e-14
2.56813e-15
3.22539e-16
5.6395e-16
1.68473e-14
1.66781e-13
1.46855e-13
1.51469e-13
1.44245e-13
-5.88818e-14
-2.2462e-11
-4.18245e-11
1.69972e-08
6.04353e-06
0.00036041
0.00038882
0.000161771
0.000156349
0.000228276
0.00030126
0.000361222
0.000776928
0.00082514
0.000825778
0.000830877
0.000302212
4.57702e-06
3.02238e-06
2.64401e-06
6.37974e-06
4.31531e-06
6.13107e-05
0.000457221
0.000420321
6.27892e-05
1.20959e-06
1.19503e-06
1.20975e-06
1.33467e-06
3.55633e-06
0.000162854
0.000544954
0.00101411
0.000992665
0.000969519
0.000941653
0.000890928
0.00024833
0.000147871
0.000151329
0.000514646
0.000546196
0.000167621
5.68475e-09
-4.03201e-11
-3.17936e-16
-4.8629e-14
5.26232e-14
7.53832e-14
7.164e-14
7.03218e-15
1.66644e-16
5.71811e-17
5.02378e-16
6.61227e-15
7.12905e-14
6.96809e-13
4.13015e-12
8.74722e-12
8.16e-12
4.66509e-11
1.71636e-06
1.39055e-05
4.41916e-06
2.55091e-12
4.45439e-11
3.1023e-11
5.59637e-12
1.30522e-12
1.62141e-13
1.7668e-14
1.96075e-15
2.24752e-16
1.63258e-16
3.61713e-15
3.50925e-14
4.08695e-14
9.98263e-14
1.05787e-13
7.06351e-14
-3.7767e-11
9.69741e-09
7.28807e-07
0.000151952
0.000328767
0.000210285
0.000162591
0.000335996
0.000691692
0.000790748
0.000812083
0.000815574
0.000822485
0.000800526
0.000247096
9.06768e-06
2.96537e-06
2.5276e-06
2.47231e-06
2.62045e-06
3.17919e-06
4.48817e-05
0.000457221
0.000256243
0.000306017
2.1179e-06
1.20975e-06
1.35623e-06
1.46693e-06
2.09502e-06
9.72908e-06
2.71081e-05
0.000150335
0.000112377
0.000453385
0.000890928
0.000617285
0.000149594
0.000138645
0.000151723
0.000570916
0.000553195
0.000103994
5.05413e-08
-7.15273e-12
-2.7061e-14
-9.21496e-14
4.27132e-14
1.98136e-14
7.92291e-15
6.04259e-16
2.74535e-17
4.62457e-17
4.30367e-16
5.65973e-15
6.23097e-14
6.60736e-13
3.48674e-12
3.5193e-12
4.95299e-12
1.33872e-08
6.74407e-06
1.28398e-05
2.55091e-12
2.4458e-12
1.2608e-11
1.36596e-11
5.13593e-12
1.30031e-12
1.39711e-13
1.46156e-14
1.60962e-15
1.63599e-16
3.02533e-17
2.30154e-16
2.33156e-15
7.60922e-15
5.60977e-14
1.31157e-13
2.33673e-13
6.30505e-11
1.61113e-07
3.07398e-05
0.000352656
0.000366287
0.000120523
0.000133319
0.000556118
0.000661303
0.000343422
0.000100102
0.0002479
0.000276174
9.15231e-05
1.23759e-05
4.16766e-06
2.51244e-06
2.44651e-06
2.45389e-06
2.47231e-06
2.62045e-06
2.90549e-05
0.0004298
9.50756e-06
0.000297079
0.000265405
2.43516e-05
1.47101e-06
2.17364e-06
3.10348e-06
4.96655e-06
9.94292e-06
1.43943e-05
1.61362e-05
0.000282066
0.000797372
0.000353395
0.000117078
0.000131139
0.000138587
0.000636266
0.00055125
5.77014e-05
1.17575e-07
-5.3625e-10
5.41781e-11
-2.06677e-16
5.80417e-14
1.64463e-14
2.02106e-15
6.37939e-17
9.77005e-18
3.40492e-17
3.84966e-16
5.00756e-15
5.50891e-14
5.40577e-13
2.6183e-12
2.86543e-12
3.28317e-11
1.26576e-06
1.07145e-05
3.44061e-06
1.90453e-12
2.41673e-12
6.44562e-12
7.80001e-12
4.84207e-12
1.22838e-12
1.23319e-13
1.28158e-14
1.36797e-15
1.24633e-16
1.45559e-17
9.85673e-18
1.48144e-16
3.09031e-15
6.20953e-14
1.54647e-12
1.73119e-10
9.23101e-10
7.13906e-08
7.67567e-05
0.000386733
0.000386651
0.000101577
7.59773e-05
0.000447126
0.000536192
9.67117e-05
8.0073e-06
8.83175e-06
9.93304e-06
8.24884e-06
5.10626e-06
2.70361e-06
2.44392e-06
2.46463e-06
2.44285e-06
2.5723e-06
3.41326e-05
8.21743e-05
7.7585e-05
3.1144e-09
2.80742e-05
0.000263046
0.000252285
8.60985e-05
3.10516e-06
4.98999e-06
7.34579e-06
9.15689e-06
1.17295e-05
1.44014e-05
0.000125067
0.000629035
0.000277712
8.47807e-05
0.000110682
0.000166716
0.00071505
0.00051449
2.82692e-05
1.30051e-07
9.02314e-10
-2.39843e-12
2.05641e-15
6.55292e-14
1.78981e-14
1.11356e-15
1.50821e-17
4.11087e-18
2.58084e-17
3.48085e-16
4.43737e-15
4.70703e-14
4.37546e-13
2.10158e-12
2.16407e-12
2.2616e-11
1.24577e-06
1.07207e-05
1.88788e-06
1.23728e-12
2.36373e-12
4.39306e-12
5.55937e-12
4.62118e-12
1.10239e-12
1.14034e-13
1.16988e-14
1.18476e-15
1.05411e-16
1.01131e-17
3.14106e-18
5.61506e-17
6.45765e-15
2.50421e-13
1.84596e-12
1.51853e-10
7.47101e-09
2.24274e-07
7.58578e-05
0.000400829
0.000436275
0.000103674
3.06201e-05
0.000216559
0.000471103
8.36947e-05
7.43752e-06
7.53458e-06
7.56668e-06
5.88558e-06
4.57122e-06
3.84467e-06
2.7767e-06
2.46463e-06
5.61896e-05
0.000118535
0.000127639
8.3025e-05
1.15549e-07
2.00385e-11
1.99894e-11
5.7648e-05
0.000237561
0.000248041
0.000192052
1.04988e-05
9.15689e-06
1.17295e-05
1.30556e-05
1.30556e-05
6.60948e-05
8.61693e-05
6.41741e-05
7.38456e-05
8.48029e-05
0.000650594
0.000740077
0.000400188
5.38527e-06
8.50888e-08
6.59152e-10
1.26852e-11
4.49352e-13
2.68582e-13
1.13245e-14
4.84709e-16
5.20809e-18
2.86471e-18
2.18987e-17
3.10017e-16
3.8168e-15
3.8387e-14
3.46475e-13
1.69767e-12
1.73881e-12
8.64745e-12
6.68919e-07
1.07084e-05
7.64172e-06
1.13743e-12
1.98074e-12
3.56749e-12
4.07536e-12
3.42367e-12
1.03073e-12
1.17476e-13
1.10759e-14
1.04386e-15
9.20911e-17
7.32416e-18
3.55644e-18
2.44043e-16
2.06504e-14
1.9857e-13
7.25276e-12
4.48399e-10
1.39468e-08
2.89166e-07
3.23621e-05
0.000379753
0.000478407
9.03391e-05
1.30001e-05
0.00011629
0.000250492
2.31447e-05
7.43752e-06
7.43183e-06
7.53458e-06
7.56953e-06
5.88538e-06
4.57102e-06
5.34816e-05
0.000190341
0.00020926
0.000192164
6.73116e-05
8.06125e-06
4.59615e-09
1.99893e-11
1.99908e-11
1.99908e-11
0.000113854
0.000256046
0.000263459
0.000267073