/*--------------------------------*- C++ -*----------------------------------*\
| =========                 |                                                 |
| \\      /  F ield         | OpenFOAM: The Open Source CFD Toolbox           |
|  \\    /   O peration     | Version:  2412                                  |
|   \\  /    A nd           | Website:  www.openfoam.com                      |
|    \\/     M anipulation  |                                                 |
\*---------------------------------------------------------------------------*/
FoamFile
{
    version     2.0;
    format      ascii;
    arch        "LSB;label=32;scalar=64";
    class       volVectorField;
    location    "9.95";
    object      U;
}
// * * * * * * * * * * * * * * * * * * * * * * * * * * * * * * * * * * * * * //

dimensions      [0 1 -1 0 0 0 0];

internalField   nonuniform List<vector> 
6400
(
(0.000118171 -0.000131616 0)
(0.000990088 -0.000310607 0)
(0.00219426 -0.000386448 0)
(0.00363862 -0.000453546 0)
(0.00525999 -0.000506914 0)
(0.00697688 -0.000543066 0)
(0.00871017 -0.000566695 0)
(0.0103999 -0.000582994 0)
(0.0120152 -0.00059549 0)
(0.0135448 -0.000604898 0)
(0.0149865 -0.000613551 0)
(0.0163484 -0.00062237 0)
(0.0176397 -0.000627232 0)
(0.0188581 -0.000623488 0)
(0.0199878 -0.000607404 0)
(0.0210133 -0.000580179 0)
(0.0219205 -0.000541945 0)
(0.0226901 -0.000489959 0)
(0.0232961 -0.000422802 0)
(0.0237159 -0.000340082 0)
(0.0239288 -0.000249425 0)
(0.0239295 -0.000144249 0)
(0.0237178 -3.62361e-05 0)
(0.023285 7.40558e-05 0)
(0.0226351 0.000183771 0)
(0.0217767 0.000292144 0)
(0.0207232 0.000396227 0)
(0.0194935 0.000492173 0)
(0.0181112 0.000577537 0)
(0.0166019 0.0006534 0)
(0.0149922 0.000719738 0)
(0.0133039 0.000775346 0)
(0.0115612 0.000816793 0)
(0.0097885 0.000848465 0)
(0.00800459 0.000869848 0)
(0.00622297 0.00088339 0)
(0.00446085 0.000892815 0)
(0.00272554 0.000893165 0)
(0.00101752 0.000888083 0)
(-0.000658558 0.000877369 0)
(-0.00230233 0.000866054 0)
(-0.00391601 0.00085046 0)
(-0.00550624 0.000831855 0)
(-0.00707188 0.00081059 0)
(-0.00861658 0.000782669 0)
(-0.0101399 0.000755776 0)
(-0.0116345 0.000723544 0)
(-0.0130987 0.000683964 0)
(-0.0145177 0.000637562 0)
(-0.0158713 0.000583995 0)
(-0.01714 0.000520127 0)
(-0.0183094 0.000445106 0)
(-0.0193641 0.000367185 0)
(-0.0202842 0.000284206 0)
(-0.021055 0.000195266 0)
(-0.0216638 0.000103258 0)
(-0.0221008 9.82963e-06 0)
(-0.02236 -8.35129e-05 0)
(-0.0224394 -0.000174758 0)
(-0.0223417 -0.00026167 0)
(-0.0220694 -0.000340073 0)
(-0.0216308 -0.000410293 0)
(-0.0210375 -0.00046741 0)
(-0.0203063 -0.000514818 0)
(-0.0194581 -0.000548599 0)
(-0.0185098 -0.000569474 0)
(-0.0174761 -0.00057958 0)
(-0.0163686 -0.00058274 0)
(-0.0151953 -0.00057936 0)
(-0.0139558 -0.000570821 0)
(-0.0126456 -0.000560073 0)
(-0.0112566 -0.000549824 0)
(-0.00978057 -0.000540574 0)
(-0.00822818 -0.000525683 0)
(-0.00663169 -0.000507624 0)
(-0.00504251 -0.000473647 0)
(-0.00352841 -0.000429553 0)
(-0.00215554 -0.000378586 0)
(-0.000985551 -0.000313865 0)
(-0.000121771 -0.000133485 0)
(0.000231911 -0.000939564 0)
(0.00183417 -0.00199934 0)
(0.0038838 -0.0024126 0)
(0.00635577 -0.00275781 0)
(0.00910907 -0.00298048 0)
(0.0119702 -0.00304947 0)
(0.014772 -0.00298819 0)
(0.017389 -0.00284286 0)
(0.0197579 -0.00265735 0)
(0.0218625 -0.00245895 0)
(0.0237038 -0.00226777 0)
(0.0253016 -0.00209861 0)
(0.0266882 -0.00194145 0)
(0.0278846 -0.00177485 0)
(0.028888 -0.00158616 0)
(0.0296896 -0.0013767 0)
(0.0302866 -0.00114907 0)
(0.0306748 -0.000895063 0)
(0.0308452 -0.000605927 0)
(0.0307787 -0.000283554 0)
(0.0304626 5.60406e-05 0)
(0.0298899 0.000406863 0)
(0.0290626 0.000756185 0)
(0.0279957 0.00109789 0)
(0.0267059 0.00142481 0)
(0.025215 0.00172944 0)
(0.0235453 0.00200501 0)
(0.0217269 0.00224079 0)
(0.0197962 0.00243272 0)
(0.017789 0.00258199 0)
(0.0157375 0.00269193 0)
(0.0136673 0.0027647 0)
(0.0116121 0.00280097 0)
(0.00959655 0.00280185 0)
(0.00763321 0.00277533 0)
(0.00573884 0.0027321 0)
(0.00392067 0.00267962 0)
(0.00217763 0.00261957 0)
(0.000503722 0.00255673 0)
(-0.00110596 0.00249584 0)
(-0.00266648 0.00244495 0)
(-0.00419671 0.00240661 0)
(-0.00571473 0.00238003 0)
(-0.00723658 0.00236186 0)
(-0.00877202 0.00234216 0)
(-0.0103332 0.00232549 0)
(-0.0119246 0.00230805 0)
(-0.0135378 0.00227546 0)
(-0.0151622 0.00221709 0)
(-0.0167782 0.00213274 0)
(-0.0183631 0.00201604 0)
(-0.0198984 0.00186476 0)
(-0.0213633 0.00169283 0)
(-0.0227347 0.00149522 0)
(-0.0239891 0.00126906 0)
(-0.0251035 0.00102047 0)
(-0.0260587 0.000754746 0)
(-0.02684 0.000477172 0)
(-0.0274352 0.000193633 0)
(-0.0278347 -8.98311e-05 0)
(-0.0280369 -0.000365974 0)
(-0.0280431 -0.000629373 0)
(-0.0278609 -0.000871197 0)
(-0.0274983 -0.00109004 0)
(-0.0269626 -0.00128299 0)
(-0.0262628 -0.00145252 0)
(-0.0254022 -0.00160616 0)
(-0.0243772 -0.0017518 0)
(-0.023179 -0.00189656 0)
(-0.0217888 -0.00205108 0)
(-0.0201753 -0.00222 0)
(-0.018309 -0.00241036 0)
(-0.0161726 -0.00259851 0)
(-0.0137884 -0.00274187 0)
(-0.0112292 -0.00281305 0)
(-0.00860255 -0.00276374 0)
(-0.00604939 -0.00258802 0)
(-0.00373267 -0.00230733 0)
(-0.00179574 -0.00194921 0)
(-0.00023907 -0.000933006 0)
(0.000241844 -0.0019135 0)
(0.00205917 -0.00395432 0)
(0.00448602 -0.00483682 0)
(0.00746768 -0.00556719 0)
(0.0107902 -0.00601028 0)
(0.0142172 -0.00610119 0)
(0.0175311 -0.00589123 0)
(0.0205719 -0.00548782 0)
(0.0232629 -0.00499573 0)
(0.0255985 -0.00448901 0)
(0.0275949 -0.00400587 0)
(0.0292784 -0.00357694 0)
(0.0306925 -0.00319464 0)
(0.0318743 -0.00281955 0)
(0.0328371 -0.00242365 0)
(0.0335752 -0.0019996 0)
(0.0340809 -0.00155455 0)
(0.0343492 -0.00107976 0)
(0.0343767 -0.000559727 0)
(0.0341515 7.20079e-06 0)
(0.0336601 0.000604332 0)
(0.0328963 0.00120394 0)
(0.0318649 0.00179565 0)
(0.0305814 0.00236548 0)
(0.0290661 0.00290278 0)
(0.0273455 0.00339194 0)
(0.0254481 0.00382352 0)
(0.023408 0.00418055 0)
(0.0212621 0.00446279 0)
(0.0190458 0.00466318 0)
(0.0167975 0.00479232 0)
(0.0145508 0.00485544 0)
(0.0123353 0.00486075 0)
(0.0101727 0.00480805 0)
(0.00808441 0.00470739 0)
(0.00608546 0.0045826 0)
(0.00418569 0.004445 0)
(0.00238561 0.00430249 0)
(0.000671057 0.00416376 0)
(-0.000972166 0.00404394 0)
(-0.00256294 0.00395066 0)
(-0.00412256 0.00389447 0)
(-0.00567556 0.00387112 0)
(-0.00724244 0.00387055 0)
(-0.00883688 0.00388014 0)
(-0.0104664 0.00389221 0)
(-0.0121378 0.00390823 0)
(-0.0138447 0.00390151 0)
(-0.0155748 0.0038513 0)
(-0.0173154 0.00375675 0)
(-0.0190451 0.00360952 0)
(-0.0207385 0.00340517 0)
(-0.0223702 0.0031578 0)
(-0.0239174 0.0028607 0)
(-0.0253533 0.00251166 0)
(-0.0266513 0.00211857 0)
(-0.0277902 0.00169043 0)
(-0.0287532 0.00123757 0)
(-0.0295263 0.000769777 0)
(-0.0301001 0.000297364 0)
(-0.0304717 -0.000170897 0)
(-0.0306427 -0.000621819 0)
(-0.0306193 -0.00104705 0)
(-0.0304085 -0.0014384 0)
(-0.0300138 -0.00180027 0)
(-0.0294388 -0.00214035 0)
(-0.0286815 -0.00246756 0)
(-0.0277319 -0.00279425 0)
(-0.026574 -0.00314172 0)
(-0.0251707 -0.00353675 0)
(-0.0234673 -0.00398272 0)
(-0.0214224 -0.00448465 0)
(-0.0190171 -0.00497641 0)
(-0.0162687 -0.00537397 0)
(-0.0132516 -0.00559722 0)
(-0.0101007 -0.0055547 0)
(-0.00701975 -0.00519549 0)
(-0.00425141 -0.00456271 0)
(-0.0019965 -0.00378968 0)
(-0.000251865 -0.00188873 0)
(0.000220671 -0.00300536 0)
(0.00224374 -0.00626938 0)
(0.00508121 -0.00778163 0)
(0.0085867 -0.00897694 0)
(0.0124602 -0.00964975 0)
(0.0163922 -0.00971595 0)
(0.0201251 -0.00927956 0)
(0.0234859 -0.00852622 0)
(0.0264047 -0.00763844 0)
(0.0288993 -0.00675369 0)
(0.0310176 -0.00592486 0)
(0.0328027 -0.00518536 0)
(0.0342991 -0.00453643 0)
(0.0355496 -0.00392898 0)
(0.0365791 -0.00330693 0)
(0.0373833 -0.00264683 0)
(0.037939 -0.00195183 0)
(0.0382275 -0.00122115 0)
(0.0382415 -0.000441515 0)
(0.0379758 0.000395652 0)
(0.0374209 0.00127364 0)
(0.0365685 0.00215867 0)
(0.0354198 0.00302496 0)
(0.0339896 0.00384988 0)
(0.0323002 0.00461779 0)
(0.0303841 0.00530722 0)
(0.0282727 0.00590503 0)
(0.0260076 0.0063941 0)
(0.0236265 0.00677055 0)
(0.0211653 0.00702389 0)
(0.0186699 0.00716788 0)
(0.0161787 0.00721448 0)
(0.013731 0.00716627 0)
(0.0113438 0.00704547 0)
(0.00904783 0.00685816 0)
(0.00686609 0.0066269 0)
(0.00479748 0.00638339 0)
(0.00284464 0.00613948 0)
(0.000994931 0.0059139 0)
(-0.000776698 0.00572532 0)
(-0.00249457 0.00558934 0)
(-0.00418015 0.00551473 0)
(-0.0058603 0.00549723 0)
(-0.00755791 0.00552068 0)
(-0.00929043 0.00556575 0)
(-0.0110651 0.00562055 0)
(-0.0128886 0.00567907 0)
(-0.0147542 0.00570633 0)
(-0.0166481 0.00568183 0)
(-0.0185651 0.00558857 0)
(-0.0204871 0.00541756 0)
(-0.0223766 0.00516795 0)
(-0.0242038 0.00485057 0)
(-0.0259451 0.00444993 0)
(-0.0275661 0.00397185 0)
(-0.0290377 0.0034245 0)
(-0.0303359 0.00282051 0)
(-0.0314405 0.00217623 0)
(-0.0323356 0.00150419 0)
(-0.0330126 0.000821179 0)
(-0.0334696 0.000143163 0)
(-0.0337094 -0.000511909 0)
(-0.033738 -0.00113336 0)
(-0.0335634 -0.00171879 0)
(-0.033193 -0.00227111 0)
(-0.0326284 -0.00280029 0)
(-0.0318694 -0.00332249 0)
(-0.0309102 -0.00386021 0)
(-0.0297282 -0.00444976 0)
(-0.0282759 -0.00513609 0)
(-0.026493 -0.00593019 0)
(-0.0243274 -0.00681701 0)
(-0.0217389 -0.0076987 0)
(-0.0187128 -0.00844802 0)
(-0.015303 -0.00891194 0)
(-0.011669 -0.00892305 0)
(-0.0080726 -0.00835918 0)
(-0.00481869 -0.007295 0)
(-0.00217142 -0.00596783 0)
(-0.000228922 -0.00295689 0)
(0.000175182 -0.00415433 0)
(0.00241181 -0.00890332 0)
(0.00573398 -0.0112145 0)
(0.00984726 -0.01294 0)
(0.0143202 -0.0138119 0)
(0.0187351 -0.0137573 0)
(0.0227874 -0.0129792 0)
(0.0263207 -0.0117706 0)
(0.0293082 -0.0104093 0)
(0.0318127 -0.00910358 0)
(0.033929 -0.00792175 0)
(0.035736 -0.00687499 0)
(0.0372839 -0.00596008 0)
(0.0386062 -0.00512455 0)
(0.0397224 -0.00428621 0)
(0.0406284 -0.00339152 0)
(0.0412937 -0.00243052 0)
(0.0416801 -0.0014153 0)
(0.0417626 -0.000343552 0)
(0.0415299 0.000793859 0)
(0.0409759 0.0019827 0)
(0.0400918 0.00318502 0)
(0.0388744 0.0043608 0)
(0.0373354 0.00547502 0)
(0.0354968 0.00650409 0)
(0.033399 0.00742331 0)
(0.0310803 0.0082063 0)
(0.0285847 0.00884684 0)
(0.0259566 0.00932859 0)
(0.0232387 0.00964341 0)
(0.0204839 0.00980407 0)
(0.0177292 0.00982437 0)
(0.0150344 0.00971666 0)
(0.0124271 0.0095101 0)
(0.0099218 0.00921537 0)
(0.00755315 0.00886459 0)
(0.00532005 0.00849125 0)
(0.00321471 0.00813024 0)
(0.00122488 0.00781056 0)
(-0.00067471 0.00754836 0)
(-0.00251149 0.00736608 0)
(-0.00431315 0.00727169 0)
(-0.00611058 0.00726217 0)
(-0.00793263 0.00731459 0)
(-0.00979821 0.00740425 0)
(-0.0117125 0.00751004 0)
(-0.0136888 0.00761061 0)
(-0.015719 0.00768003 0)
(-0.0177857 0.00769393 0)
(-0.019887 0.00761299 0)
(-0.0220008 0.00742734 0)
(-0.0240856 0.00713647 0)
(-0.0261163 0.00674275 0)
(-0.0280572 0.00623157 0)
(-0.0298585 0.00561055 0)
(-0.0314933 0.0048913 0)
(-0.0329306 0.00408956 0)
(-0.0341483 0.00323125 0)
(-0.0351295 0.00233014 0)
(-0.0358657 0.00141177 0)
(-0.0363577 0.000502285 0)
(-0.0366105 -0.000376734 0)
(-0.0366352 -0.00121385 0)
(-0.0364385 -0.00200888 0)
(-0.0360269 -0.00276178 0)
(-0.0354166 -0.00348946 0)
(-0.0346201 -0.00420877 0)
(-0.0336354 -0.00495932 0)
(-0.0324416 -0.00579482 0)
(-0.0309971 -0.00677708 0)
(-0.0292397 -0.00793541 0)
(-0.0270922 -0.00924225 0)
(-0.0244665 -0.0105908 0)
(-0.0212881 -0.0118073 0)
(-0.0175706 -0.0126366 0)
(-0.0134769 -0.0127853 0)
(-0.00931249 -0.0120423 0)
(-0.00546705 -0.0105026 0)
(-0.00233336 -0.00846635 0)
(-0.000180916 -0.00407881 0)
(0.000110125 -0.00535278 0)
(0.0026384 -0.0119315 0)
(0.00662395 -0.0152494 0)
(0.0115267 -0.0175534 0)
(0.0167113 -0.018529 0)
(0.0216108 -0.0181667 0)
(0.0258688 -0.0168477 0)
(0.0293777 -0.0150351 0)
(0.0322094 -0.0131186 0)
(0.0345182 -0.0113688 0)
(0.0364647 -0.0098609 0)
(0.0381716 -0.00856019 0)
(0.0397011 -0.007426 0)
(0.0410686 -0.00639522 0)
(0.0422716 -0.00536738 0)
(0.0432937 -0.00425613 0)
(0.0440951 -0.00303542 0)
(0.0446214 -0.0017226 0)
(0.0448272 -0.000329285 0)
(0.0446835 0.00114466 0)
(0.0441761 0.00268138 0)
(0.0432951 0.00424012 0)
(0.0420354 0.00576781 0)
(0.0404067 0.00721587 0)
(0.0384337 0.00854923 0)
(0.0361528 0.00973451 0)
(0.0336149 0.0107334 0)
(0.0308761 0.0115409 0)
(0.027983 0.0121403 0)
(0.0249973 0.0125279 0)
(0.0219756 0.0127051 0)
(0.0189607 0.0126865 0)
(0.0160234 0.0125002 0)
(0.0131941 0.0121834 0)
(0.0105018 0.0117578 0)
(0.00797272 0.011266 0)
(0.00559559 0.0107462 0)
(0.00336994 0.0102501 0)
(0.00127479 0.00981902 0)
(-0.000713822 0.00947793 0)
(-0.00262525 0.00925073 0)
(-0.00449738 0.00913467 0)
(-0.00636911 0.00913155 0)
(-0.0082727 0.00921887 0)
(-0.0102305 0.00936534 0)
(-0.0122594 0.00953664 0)
(-0.0143661 0.00969447 0)
(-0.0165418 0.00981791 0)
(-0.0187778 0.00987744 0)
(-0.0210622 0.00982577 0)
(-0.0233704 0.00963677 0)
(-0.0256575 0.00930986 0)
(-0.0278905 0.00882906 0)
(-0.0300249 0.00819791 0)
(-0.0320013 0.007416 0)
(-0.0337898 0.00649867 0)
(-0.0353509 0.00547168 0)
(-0.0366606 0.00436661 0)
(-0.0377037 0.00320734 0)
(-0.0384681 0.00202651 0)
(-0.0389577 0.000859911 0)
(-0.0391814 -0.00026585 0)
(-0.0391536 -0.00133896 0)
(-0.0388842 -0.00235579 0)
(-0.0383967 -0.00331577 0)
(-0.0377155 -0.00423192 0)
(-0.0368676 -0.00513177 0)
(-0.0358777 -0.00606246 0)
(-0.034737 -0.00710424 0)
(-0.0334159 -0.00834348 0)
(-0.0318467 -0.00983774 0)
(-0.029912 -0.0115835 0)
(-0.0274497 -0.0134867 0)
(-0.0242903 -0.0153255 0)
(-0.0203656 -0.0167141 0)
(-0.0158 -0.0171743 0)
(-0.0109399 -0.016355 0)
(-0.0063219 -0.014307 0)
(-0.0025493 -0.0113558 0)
(-0.000120308 -0.00524056 0)
(3.85162e-05 -0.00664517 0)
(0.00302455 -0.0155427 0)
(0.00794901 -0.0201249 0)
(0.0138829 -0.0230058 0)
(0.0199038 -0.0238751 0)
(0.0252705 -0.022883 0)
(0.0295936 -0.0207119 0)
(0.0328547 -0.0180863 0)
(0.0352794 -0.0155306 0)
(0.0371687 -0.0133503 0)
(0.0387776 -0.0115878 0)
(0.0402723 -0.0101371 0)
(0.0417216 -0.00888146 0)
(0.043119 -0.00772661 0)
(0.0444229 -0.00655176 0)
(0.0455858 -0.00525623 0)
(0.0465517 -0.00379669 0)
(0.04725 -0.00218444 0)
(0.0476155 -0.000442911 0)
(0.0475969 0.00140995 0)
(0.0471634 0.00334141 0)
(0.046301 0.00530412 0)
(0.0450036 0.00723369 0)
(0.0432827 0.00907062 0)
(0.0411643 0.0107607 0)
(0.0386826 0.0122542 0)
(0.0358998 0.0135049 0)
(0.0328874 0.0145003 0)
(0.0297074 0.0152279 0)
(0.0264307 0.0156891 0)
(0.0231211 0.0158755 0)
(0.0198331 0.0158032 0)
(0.0166492 0.0155157 0)
(0.0136076 0.0150554 0)
(0.0107338 0.014468 0)
(0.00806049 0.013807 0)
(0.00557544 0.0131159 0)
(0.00326904 0.0124595 0)
(0.00112006 0.0118956 0)
(-0.00089459 0.0114644 0)
(-0.00282495 0.0111727 0)
(-0.00471787 0.0110342 0)
(-0.00660576 0.0110449 0)
(-0.00853333 0.0111843 0)
(-0.010535 0.0114047 0)
(-0.0126354 0.0116642 0)
(-0.0148454 0.0119126 0)
(-0.0171569 0.0121166 0)
(-0.0195574 0.0122376 0)
(-0.0220341 0.0122294 0)
(-0.0245466 0.0120491 0)
(-0.0270485 0.0116865 0)
(-0.0294966 0.011119 0)
(-0.0318299 0.0103532 0)
(-0.0339934 0.00938689 0)
(-0.0359444 0.00824345 0)
(-0.0376352 0.0069592 0)
(-0.0390366 0.00556916 0)
(-0.0401313 0.00411693 0)
(-0.0409082 0.00264022 0)
(-0.0413691 0.00118241 0)
(-0.0415252 -0.000219446 0)
(-0.0414002 -0.00154648 0)
(-0.0410144 -0.00279474 0)
(-0.040407 -0.00396788 0)
(-0.0396311 -0.0050504 0)
(-0.0387301 -0.00607968 0)
(-0.0377542 -0.00711796 0)
(-0.0367357 -0.00827445 0)
(-0.0356619 -0.00967647 0)
(-0.0344552 -0.0114374 0)
(-0.0329473 -0.0136228 0)
(-0.0308767 -0.0161822 0)
(-0.0279403 -0.0188559 0)
(-0.0239292 -0.021101 0)
(-0.0188794 -0.0221856 0)
(-0.0131832 -0.0214914 0)
(-0.0075691 -0.0189208 0)
(-0.00291492 -0.0147954 0)
(-5.54085e-05 -0.00648807 0)
(-3.07044e-05 -0.0081215 0)
(0.00360394 -0.0199959 0)
(0.0097115 -0.0261238 0)
(0.0168257 -0.0294833 0)
(0.0236888 -0.0298904 0)
(0.0294145 -0.0278138 0)
(0.0336346 -0.024387 0)
(0.0364613 -0.0206908 0)
(0.0382978 -0.0174146 0)
(0.0396184 -0.0148637 0)
(0.0407929 -0.0129788 0)
(0.0420299 -0.0115326 0)
(0.0433942 -0.0103015 0)
(0.0448535 -0.0091281 0)
(0.0463148 -0.00787375 0)
(0.0476794 -0.00643219 0)
(0.0488651 -0.00475155 0)
(0.0497817 -0.00283488 0)
(0.0503431 -0.00071827 0)
(0.0504754 0.00156028 0)
(0.0501327 0.0039482 0)
(0.0492942 0.00637682 0)
(0.0479523 0.00876755 0)
(0.0461187 0.0110531 0)
(0.0438237 0.0131571 0)
(0.041107 0.0150099 0)
(0.0380427 0.0165564 0)
(0.0347157 0.0177647 0)
(0.0312028 0.0186276 0)
(0.0275948 0.019153 0)
(0.0239652 0.0193366 0)
(0.0203875 0.0191862 0)
(0.0169412 0.0187693 0)
(0.0136681 0.0181228 0)
(0.0106233 0.0173368 0)
(0.00782372 0.0164599 0)
(0.00525073 0.0155596 0)
(0.00290912 0.0147098 0)
(0.000768953 0.0139864 0)
(-0.00122074 0.0134342 0)
(-0.00310858 0.013068 0)
(-0.00494386 0.0129092 0)
(-0.00678374 0.0129504 0)
(-0.00868488 0.0131575 0)
(-0.0106905 0.0134811 0)
(-0.012829 0.0138644 0)
(-0.0151182 0.0142404 0)
(-0.0175524 0.0145709 0)
(-0.0201174 0.0147803 0)
(-0.0227941 0.0148279 0)
(-0.0255327 0.0146808 0)
(-0.0282738 0.0142848 0)
(-0.0309612 0.0136304 0)
(-0.0335265 0.0127157 0)
(-0.0359052 0.0115422 0)
(-0.0380433 0.0101439 0)
(-0.0398887 0.00856327 0)
(-0.0413975 0.00684771 0)
(-0.0425471 0.005057 0)
(-0.0433291 0.0032357 0)
(-0.0437415 0.00144084 0)
(-0.0437966 -0.00027836 0)
(-0.0435267 -0.00188644 0)
(-0.042977 -0.003375 0)
(-0.0422048 -0.00474603 0)
(-0.0412834 -0.00595972 0)
(-0.0402921 -0.00704048 0)
(-0.0393199 -0.00808511 0)
(-0.0384439 -0.00922033 0)
(-0.037681 -0.0106373 0)
(-0.0369487 -0.0125492 0)
(-0.0360251 -0.0151439 0)
(-0.0345343 -0.0184604 0)
(-0.0320107 -0.02223 0)
(-0.0280649 -0.0257322 0)
(-0.0226088 -0.0278864 0)
(-0.0160448 -0.027638 0)
(-0.00926956 -0.024598 0)
(-0.00348395 -0.0190203 0)
(3.25283e-06 -0.007919 0)
(-8.87583e-05 -0.0098714 0)
(0.00429425 -0.025481 0)
(0.0115644 -0.0333704 0)
(0.0196582 -0.0369739 0)
(0.0270644 -0.0364554 0)
(0.0328776 -0.0328021 0)
(0.0368317 -0.0277318 0)
(0.0391807 -0.0227353 0)
(0.0404664 -0.0186841 0)
(0.0412924 -0.0158539 0)
(0.0421243 -0.0140223 0)
(0.0432097 -0.0127725 0)
(0.0446082 -0.0117416 0)
(0.046244 -0.0106803 0)
(0.0479727 -0.00942252 0)
(0.0496512 -0.00786503 0)
(0.0511528 -0.00596269 0)
(0.0523624 -0.00372273 0)
(0.0531783 -0.00118622 0)
(0.0535044 0.00157259 0)
(0.0532759 0.0044882 0)
(0.0524644 0.00746196 0)
(0.0510618 0.0103917 0)
(0.049084 0.0131928 0)
(0.0465711 0.0157772 0)
(0.0435751 0.0180462 0)
(0.0401731 0.0199308 0)
(0.0364684 0.0213811 0)
(0.032564 0.022389 0)
(0.0285665 0.02297 0)
(0.0245618 0.0231233 0)
(0.0206526 0.0228729 0)
(0.0169151 0.0222705 0)
(0.013405 0.0214017 0)
(0.0101823 0.0203606 0)
(0.00725993 0.0192041 0)
(0.00463677 0.0180429 0)
(0.00230212 0.0169559 0)
(0.000217573 0.0160357 0)
(-0.0016776 0.0153355 0)
(-0.00344802 0.0148909 0)
(-0.00516449 0.0147139 0)
(-0.0069017 0.0147955 0)
(-0.00872581 0.0150947 0)
(-0.0106892 0.0155608 0)
(-0.01284 0.0161172 0)
(-0.0151856 0.0166739 0)
(-0.0177398 0.0171632 0)
(-0.0204878 0.0175104 0)
(-0.0233675 0.0176565 0)
(-0.026353 0.0175488 0)
(-0.0293776 0.0171438 0)
(-0.0323469 0.0164004 0)
(-0.0351913 0.0153225 0)
(-0.0378322 0.0139203 0)
(-0.0401996 0.0122308 0)
(-0.0422317 0.010308 0)
(-0.0438682 0.00821615 0)
(-0.0450834 0.00602702 0)
(-0.0458648 0.00380124 0)
(-0.046208 0.0016122 0)
(-0.0461329 -0.000477615 0)
(-0.0456735 -0.0024134 0)
(-0.044898 -0.00416791 0)
(-0.0438846 -0.00571455 0)
(-0.0427321 -0.00701017 0)
(-0.0415662 -0.00807415 0)
(-0.0405052 -0.00900029 0)
(-0.039674 -0.00994654 0)
(-0.0391379 -0.0111955 0)
(-0.0388169 -0.0131047 0)
(-0.0384491 -0.016035 0)
(-0.0375643 -0.0201765 0)
(-0.0355493 -0.0252907 0)
(-0.0318475 -0.0304681 0)
(-0.0262351 -0.0341881 0)
(-0.019043 -0.0348183 0)
(-0.0112117 -0.0315016 0)
(-0.00421789 -0.0242552 0)
(4.6813e-05 -0.00963726 0)
(-0.000138154 -0.0119148 0)
(0.00485736 -0.0319222 0)
(0.0127929 -0.0415621 0)
(0.0211359 -0.0450273 0)
(0.0283835 -0.0431465 0)
(0.033828 -0.0375888 0)
(0.0373861 -0.0306944 0)
(0.0394159 -0.0243406 0)
(0.0404956 -0.0195501 0)
(0.0412373 -0.0165468 0)
(0.0421147 -0.0149298 0)
(0.0433794 -0.0140537 0)
(0.0450821 -0.0133762 0)
(0.047118 -0.0125353 0)
(0.0493054 -0.0113342 0)
(0.0514582 -0.00967281 0)
(0.0534112 -0.00752091 0)
(0.0550356 -0.00490572 0)
(0.0561961 -0.00190585 0)
(0.0567758 0.00140659 0)
(0.0567069 0.00493807 0)
(0.0559443 0.00855601 0)
(0.0544764 0.0121271 0)
(0.0523214 0.0155329 0)
(0.0495358 0.0186758 0)
(0.0461915 0.0214281 0)
(0.0423798 0.0236944 0)
(0.0382219 0.0254195 0)
(0.0338452 0.0265863 0)
(0.0293764 0.0272062 0)
(0.0249333 0.0272964 0)
(0.02063 0.026891 0)
(0.0165635 0.026063 0)
(0.0127983 0.0249099 0)
(0.00938337 0.0235299 0)
(0.0063593 0.0220361 0)
(0.00371736 0.0205338 0)
(0.00143604 0.019151 0)
(-0.000530838 0.0179809 0)
(-0.00226929 0.0171009 0)
(-0.00385652 0.0165614 0)
(-0.00538556 0.0163713 0)
(-0.00695331 0.0165185 0)
(-0.00863699 0.0169589 0)
(-0.0105087 0.0176148 0)
(-0.0126399 0.0183834 0)
(-0.0150468 0.0191902 0)
(-0.017719 0.0198975 0)
(-0.02064 0.0204433 0)
(-0.0237686 0.0207491 0)
(-0.0270387 0.0207129 0)
(-0.0303838 0.0203069 0)
(-0.0337055 0.0194817 0)
(-0.0368912 0.0182299 0)
(-0.0398532 0.0165701 0)
(-0.0425021 0.0145453 0)
(-0.0447575 0.0122244 0)
(-0.0465466 0.00968858 0)
(-0.0478368 0.00702689 0)
(-0.0486086 0.00432257 0)
(-0.0488569 0.00166754 0)
(-0.0486111 -0.000859094 0)
(-0.0479111 -0.0031756 0)
(-0.0468351 -0.00523322 0)
(-0.0454774 -0.00695793 0)
(-0.0439603 -0.00832866 0)
(-0.042438 -0.00932292 0)
(-0.0410665 -0.0100152 0)
(-0.0400211 -0.010623 0)
(-0.0394095 -0.0115276 0)
(-0.0391744 -0.0132662 0)
(-0.0390475 -0.0164144 0)
(-0.0385231 -0.0213676 0)
(-0.0369308 -0.0279418 0)
(-0.0336388 -0.0350469 0)
(-0.0283124 -0.0407161 0)
(-0.0211057 -0.0426898 0)
(-0.0127916 -0.0394793 0)
(-0.00491606 -0.030542 0)
(8.03267e-05 -0.0116922 0)
(-0.000195803 -0.0141334 0)
(0.004943 -0.0387858 0)
(0.0125466 -0.0497938 0)
(0.0199622 -0.0526551 0)
(0.0260727 -0.0491959 0)
(0.0305944 -0.0418039 0)
(0.0336726 -0.0333101 0)
(0.0356857 -0.0258583 0)
(0.0371141 -0.0205375 0)
(0.0384282 -0.0174995 0)
(0.0399822 -0.0161934 0)
(0.0419626 -0.0157781 0)
(0.0443965 -0.015526 0)
(0.0471607 -0.0149554 0)
(0.0500649 -0.0138225 0)
(0.052912 -0.0120381 0)
(0.0555087 -0.00959921 0)
(0.0576786 -0.00655489 0)
(0.0592913 -0.00299923 0)
(0.0602336 0.00098415 0)
(0.0603918 0.00525336 0)
(0.059715 0.00964448 0)
(0.0581899 0.0139857 0)
(0.0558338 0.0181199 0)
(0.0527217 0.0219163 0)
(0.0489538 0.0252301 0)
(0.0446479 0.0279395 0)
(0.0399479 0.029972 0)
(0.0350051 0.0313024 0)
(0.0299822 0.0319394 0)
(0.0250154 0.0319236 0)
(0.0202596 0.0313075 0)
(0.0158233 0.0301804 0)
(0.0117645 0.0286384 0)
(0.00816814 0.0268411 0)
(0.00505778 0.0249116 0)
(0.00243745 0.0229901 0)
(0.00027624 0.0212303 0)
(-0.00150982 0.0197497 0)
(-0.00300345 0.0186488 0)
(-0.00431731 0.0180006 0)
(-0.00557619 0.0178105 0)
(-0.00689082 0.0180699 0)
(-0.00837069 0.0186971 0)
(-0.0101203 0.0195978 0)
(-0.0121858 0.0206578 0)
(-0.0146133 0.0217704 0)
(-0.0174138 0.0227975 0)
(-0.020524 0.0236176 0)
(-0.0239277 0.0241224 0)
(-0.0275487 0.0242233 0)
(-0.0312752 0.0238421 0)
(-0.0350034 0.0229439 0)
(-0.0386059 0.0215066 0)
(-0.0419605 0.0195526 0)
(-0.0449497 0.0171385 0)
(-0.0474724 0.014347 0)
(-0.0494401 0.0112804 0)
(-0.0508136 0.00805096 0)
(-0.0515652 0.00477426 0)
(-0.0516863 0.00156187 0)
(-0.0512078 -0.00148754 0)
(-0.0501874 -0.00425201 0)
(-0.0487067 -0.00667567 0)
(-0.0468766 -0.00863499 0)
(-0.044808 -0.0100895 0)
(-0.0426588 -0.0110055 0)
(-0.0406551 -0.0114371 0)
(-0.0389872 -0.0116337 0)
(-0.0377871 -0.012078 0)
(-0.0370497 -0.0135008 0)
(-0.03656 -0.0167127 0)
(-0.0358802 -0.0223143 0)
(-0.0344321 -0.0301782 0)
(-0.0316596 -0.0390944 0)
(-0.0271739 -0.0467698 0)
(-0.0208697 -0.0504141 0)
(-0.0131271 -0.0478221 0)
(-0.00522527 -0.0374964 0)
(0.000123593 -0.014002 0)
(-0.00029227 -0.0161877 0)
(0.00420116 -0.0450905 0)
(0.0102074 -0.0567383 0)
(0.0154359 -0.0586089 0)
(0.0194754 -0.053732 0)
(0.0225835 -0.045079 0)
(0.0251236 -0.0356806 0)
(0.0274067 -0.0277312 0)
(0.0296946 -0.0222854 0)
(0.0322015 -0.0194151 0)
(0.0350665 -0.018474 0)
(0.038338 -0.0184966 0)
(0.0419804 -0.0186264 0)
(0.0458642 -0.018285 0)
(0.049801 -0.0171715 0)
(0.0535899 -0.0152017 0)
(0.0570345 -0.0123944 0)
(0.0599528 -0.00881743 0)
(0.0621939 -0.00455853 0)
(0.0636074 0.000224437 0)
(0.0640671 0.0053805 0)
(0.0635211 0.0107016 0)
(0.0619523 0.0159709 0)
(0.059383 0.0209833 0)
(0.0559088 0.025562 0)
(0.0516589 0.0295316 0)
(0.0467784 0.0327509 0)
(0.0414466 0.0351272 0)
(0.0358514 0.0366263 0)
(0.0301938 0.0372615 0)
(0.0246474 0.0370817 0)
(0.0193763 0.0361797 0)
(0.0145071 0.0346375 0)
(0.0101559 0.0326117 0)
(0.00639427 0.0302737 0)
(0.00324195 0.0277883 0)
(0.000713224 0.0253483 0)
(-0.00124761 0.0231124 0)
(-0.0027404 0.0212591 0)
(-0.00387572 0.0199154 0)
(-0.00479864 0.0191267 0)
(-0.00566503 0.0189429 0)
(-0.00663582 0.0193391 0)
(-0.00784628 0.0202207 0)
(-0.00938945 0.0214547 0)
(-0.0113483 0.0229181 0)
(-0.0137652 0.0244277 0)
(-0.0166571 0.0258708 0)
(-0.01999 0.0270466 0)
(-0.0236999 0.0278326 0)
(-0.0276968 0.0281266 0)
(-0.0318681 0.0278246 0)
(-0.0360765 0.0268674 0)
(-0.0401673 0.0252297 0)
(-0.0439819 0.0229383 0)
(-0.0473718 0.0200657 0)
(-0.0502098 0.016708 0)
(-0.0523885 0.0130028 0)
(-0.0538526 0.00909254 0)
(-0.0545679 0.00512704 0)
(-0.0545303 0.00124653 0)
(-0.0537517 -0.00241064 0)
(-0.0523107 -0.00575052 0)
(-0.0502847 -0.0086266 0)
(-0.0477682 -0.0109577 0)
(-0.0449193 -0.0126032 0)
(-0.0418866 -0.0135121 0)
(-0.0388754 -0.013731 0)
(-0.0360909 -0.0135311 0)
(-0.0337001 -0.0134992 0)
(-0.0317677 -0.0145174 0)
(-0.0302064 -0.0175943 0)
(-0.0287698 -0.0234724 0)
(-0.0271172 -0.0320916 0)
(-0.0248977 -0.0422291 0)
(-0.0217428 -0.051492 0)
(-0.0172904 -0.0567999 0)
(-0.0114114 -0.0552883 0)
(-0.00476457 -0.0442244 0)
(0.000195641 -0.0162848 0)
(-0.000498134 -0.0175656 0)
(0.00242316 -0.0496797 0)
(0.00567585 -0.0611065 0)
(0.00775697 -0.0618637 0)
(0.00911506 -0.0561351 0)
(0.0105033 -0.0471823 0)
(0.0124259 -0.0378992 0)
(0.0150833 -0.0302959 0)
(0.0184569 -0.0252601 0)
(0.0224473 -0.0228313 0)
(0.0269709 -0.0223213 0)
(0.0319142 -0.0227111 0)
(0.0371384 -0.0230973 0)
(0.042485 -0.0228467 0)
(0.0477673 -0.0216444 0)
(0.0527898 -0.0193917 0)
(0.0573479 -0.0160981 0)
(0.0612388 -0.0118448 0)
(0.0642675 -0.00674872 0)
(0.066285 -0.000990452 0)
(0.0671642 0.00524229 0)
(0.0668194 0.0116851 0)
(0.0652426 0.0180708 0)
(0.0624757 0.0241383 0)
(0.0586279 0.0296556 0)
(0.0538499 0.0344008 0)
(0.048335 0.038209 0)
(0.0423063 0.040971 0)
(0.0359951 0.0426447 0)
(0.0296378 0.0432458 0)
(0.0234501 0.0428408 0)
(0.0176241 0.0415406 0)
(0.0123264 0.0394733 0)
(0.00769144 0.0368295 0)
(0.00380058 0.0337971 0)
(0.000694343 0.0306172 0)
(-0.00163714 0.0275119 0)
(-0.00325318 0.0247031 0)
(-0.00427303 0.0223787 0)
(-0.00489357 0.0207271 0)
(-0.00527651 0.0198054 0)
(-0.00558914 0.0196636 0)
(-0.00605471 0.0202299 0)
(-0.00685406 0.0214387 0)
(-0.00809515 0.0231202 0)
(-0.00986937 0.0250969 0)
(-0.0122152 0.0271557 0)
(-0.0151764 0.0290969 0)
(-0.0187162 0.0307322 0)
(-0.0227348 0.0319225 0)
(-0.0271473 0.0324865 0)
(-0.0318098 0.0323129 0)
(-0.0365585 0.0313202 0)
(-0.0412029 0.0294707 0)
(-0.0455385 0.026798 0)
(-0.0493867 0.0233768 0)
(-0.052585 0.0193473 0)
(-0.0549969 0.0148798 0)
(-0.0565579 0.0101529 0)
(-0.0572195 0.00535392 0)
(-0.0569585 0.000654536 0)
(-0.0558285 -0.00377808 0)
(-0.0538584 -0.00782347 0)
(-0.0511323 -0.0113064 0)
(-0.0477628 -0.0141137 0)
(-0.0438532 -0.0160921 0)
(-0.0395998 -0.0171484 0)
(-0.0352096 -0.0173087 0)
(-0.030889 -0.0168447 0)
(-0.0268305 -0.0164138 0)
(-0.0231865 -0.0169866 0)
(-0.0200489 -0.019672 0)
(-0.0174396 -0.0252823 0)
(-0.0153384 -0.0338387 0)
(-0.0136554 -0.0442246 0)
(-0.012119 -0.0541989 0)
(-0.0102116 -0.060708 0)
(-0.00732854 -0.0604694 0)
(-0.00326637 -0.0495248 0)
(0.000344481 -0.0180638 0)
(-0.00085608 -0.0177309 0)
(-0.000338688 -0.051529 0)
(-0.00067744 -0.0620403 0)
(-0.00225348 -0.0619047 0)
(-0.00379588 -0.056193 0)
(-0.00425751 -0.0480829 0)
(-0.00313585 -0.0399708 0)
(-0.000288766 -0.0335567 0)
(0.00399479 -0.0295318 0)
(0.00930024 -0.0278846 0)
(0.0154167 -0.027957 0)
(0.0220866 -0.0286732 0)
(0.0290622 -0.0292483 0)
(0.036113 -0.0289948 0)
(0.0430084 -0.0275877 0)
(0.0495491 -0.024923 0)
(0.0555021 -0.0209949 0)
(0.0606185 -0.015899 0)
(0.0646752 -0.00976548 0)
(0.0674929 -0.00278842 0)
(0.0689172 0.00473711 0)
(0.0688641 0.0125298 0)
(0.0673432 0.0202485 0)
(0.0644136 0.0275762 0)
(0.0601967 0.0342112 0)
(0.0548708 0.0398797 0)
(0.0486803 0.0443774 0)
(0.0419025 0.0475737 0)
(0.0348206 0.0494219 0)
(0.0277209 0.0499391 0)
(0.0208638 0.0492331 0)
(0.0144785 0.0474248 0)
(0.00876988 0.0446869 0)
(0.00390169 0.0412403 0)
(-1.52805e-05 0.037337 0)
(-0.00293512 0.0332676 0)
(-0.00487742 0.0293185 0)
(-0.00594708 0.0257864 0)
(-0.0062798 0.0229047 0)
(-0.00609948 0.020865 0)
(-0.00565955 0.019813 0)
(-0.00520848 0.01974 0)
(-0.00497755 0.0205793 0)
(-0.00515069 0.0222206 0)
(-0.00589897 0.0244736 0)
(-0.00733935 0.0270947 0)
(-0.00954135 0.0298527 0)
(-0.0125145 0.0324455 0)
(-0.0161858 0.0346993 0)
(-0.0205033 0.0363851 0)
(-0.0253616 0.0373234 0)
(-0.0305593 0.037354 0)
(-0.0359058 0.0363658 0)
(-0.0411607 0.0342984 0)
(-0.0460832 0.0311828 0)
(-0.0504412 0.0271203 0)
(-0.0540268 0.0223031 0)
(-0.056696 0.0169359 0)
(-0.058359 0.011237 0)
(-0.0589517 0.00543514 0)
(-0.0584416 -0.000269251 0)
(-0.0568452 -0.00568852 0)
(-0.0541948 -0.0106091 0)
(-0.0505602 -0.0149029 0)
(-0.0460703 -0.0183715 0)
(-0.0408855 -0.0208558 0)
(-0.0351742 -0.0222295 0)
(-0.0291244 -0.0225015 0)
(-0.0229953 -0.0219529 0)
(-0.0170623 -0.0212199 0)
(-0.0115709 -0.0212886 0)
(-0.0067781 -0.0232564 0)
(-0.00296889 -0.0279961 0)
(-0.000415516 -0.0355813 0)
(0.000720637 -0.0450967 0)
(0.00055793 -0.0546181 0)
(-0.000382896 -0.0614457 0)
(-0.00116307 -0.0622637 0)
(-0.000688027 -0.0522346 0)
(0.000634208 -0.018793 0)
(-0.00129487 -0.0162275 0)
(-0.00381896 -0.0499915 0)
(-0.00826707 -0.0591527 0)
(-0.0136074 -0.0586217 0)
(-0.0180789 -0.0538936 0)
(-0.0204597 -0.047661 0)
(-0.0203901 -0.0416683 0)
(-0.0178742 -0.0371636 0)
(-0.0132918 -0.0347302 0)
(-0.00724493 -0.0342618 0)
(7.6593e-05 -0.0351181 0)
(0.00825984 -0.0363688 0)