/*--------------------------------*- C++ -*----------------------------------*\
| =========                 |                                                 |
| \\      /  F ield         | OpenFOAM: The Open Source CFD Toolbox           |
|  \\    /   O peration     | Version:  2412                                  |
|   \\  /    A nd           | Website:  www.openfoam.com                      |
|    \\/     M anipulation  |                                                 |
\*---------------------------------------------------------------------------*/
FoamFile
{
    version     2.0;
    format      ascii;
    arch        "LSB;label=32;scalar=64";
    class       volScalarField;
    location    "5.5";
    object      p;
}
// * * * * * * * * * * * * * * * * * * * * * * * * * * * * * * * * * * * * * //

dimensions      [1 -1 -2 0 0 0 0];

internalField   nonuniform List<scalar> 
6400
(
128953
128960
128975
128998
129030
129069
129116
129170
129231
129298
129370
129447
129526
129609
129692
129775
129857
129935
130010
130078
130140
130194
130240
130276
130302
130319
130327
130325
130316
130300
130278
130253
130225
130196
130168
130143
130122
130106
130097
130094
130099
130110
130127
130150
130178
130209
130241
130273
130303
130329
130350
130364
130370
130366
130353
130329
130295
130251
130197
130135
130065
129989
129907
129822
129735
129648
129561
129476
129394
129317
129246
129180
129120
129068
129023
128986
128957
128935
128921
128915
122308
122315
122330
122353
122385
122424
122472
122526
122588
122655
122728
122805
122886
122969
123054
123138
123221
123301
123376
123446
123509
123564
123610
123646
123673
123689
123696
123694
123684
123666
123643
123616
123586
123556
123527
123500
123478
123461
123451
123449
123453
123465
123483
123507
123536
123568
123602
123636
123668
123696
123718
123733
123740
123737
123724
123700
123666
123621
123567
123504
123432
123355
123272
123186
123097
123008
122920
122835
122752
122674
122602
122536
122476
122423
122378
122341
122311
122290
122276
122270
115654
115661
115676
115700
115732
115772
115820
115876
115938
116007
116082
116161
116244
116329
116416
116502
116588
116670
116748
116821
116885
116942
116989
117026
117052
117069
117075
117071
117058
117038
117012
116982
116949
116915
116883
116853
116829
116810
116799
116796
116800
116813
116833
116859
116891
116927
116964
117001
117036
117067
117093
117110
117119
117117
117105
117081
117047
117001
116945
116880
116806
116726
116640
116551
116460
116368
116278
116190
116106
116026
115952
115885
115825
115772
115726
115689
115659
115637
115624
115618
108992
108999
109014
109038
109071
109112
109161
109218
109283
109354
109430
109512
109598
109687
109778
109868
109958
110044
110126
110203
110270
110329
110378
110416
110443
110458
110462
110456
110440
110416
110385
110350
110312
110273
110235
110202
110173
110152
110139
110135
110140
110154
110176
110206
110243
110283
110326
110369
110409
110445
110475
110497
110508
110509
110497
110474
110438
110391
110332
110264
110186
110102
110012
109918
109823
109727
109633
109542
109454
109372
109297
109228
109166
109112
109066
109028
108998
108977
108963
108957
102321
102328
102343
102368
102401
102444
102494
102553
102620
102694
102775
102860
102950
103044
103139
103235
103330
103423
103510
103591
103663
103726
103777
103817
103844
103859
103861
103851
103830
103801
103763
103721
103675
103629
103585
103545
103511
103486
103470
103464
103470
103486
103512
103547
103590
103637
103688
103739
103787
103830
103866
103893
103908
103912
103902
103879
103842
103792
103730
103657
103574
103483
103387
103287
103186
103085
102985
102889
102798
102713
102634
102563
102499
102444
102398
102360
102330
102308
102295
102289
95640.5
95648
95663.9
95689.1
95723.3
95766.9
95819.5
95881
95951.1
96028.6
96113.1
96203.7
96299.3
96398.9
96500.9
96603.7
96706.3
96806.8
96901
96988.1
97066.1
97133.5
97188.7
97230.6
97258.4
97271.8
97271
97256.6
97229.8
97192.4
97146.5
97094.4
97039.1
96983.1
96929.7
96881.5
96840.8
96809.8
96790.4
96783.6
96789.9
96808.9
96840.6
96882.8
96932.5
96988.7
97049.9
97110.6
97168.5
97220.9
97265.3
97299.2
97320.5
97327.7
97319.9
97296.6
97258
97204.7
97137.8
97058.7
96969.2
96870.1
96766.1
96658.5
96549.3
96440.6
96334.3
96232.2
96135.6
96045.8
95963.6
95889.7
95824.5
95768.3
95721
95682.6
95653
95631.8
95618.8
95612.9
88951.4
88959
88975.3
89001.2
89036.6
89081.2
89136.2
89200
89274.4
89356.1
89445.5
89542
89644.4
89751.6
89861.8
89973.3
90084.1
90195.7
90298.5
90393.9
90479.4
90553.1
90613.2
90658
90686.8
90698.9
90694.5
90674.4
90639.8
90592.7
90535.6
90471.6
90403.8
90335.9
90270.8
90211.7
90161.5
90122.9
90098.8
90090.1
90097.6
90121.7
90158.9
90208.5
90268.5
90336.2
90411.8
90485.1
90555.7
90620.2
90675.3
90718.3
90746.8
90758.8
90753.3
90730
90689
90631.2
90558
90471
90372.4
90263.3
90149
90031.2
89912
89793.9
89679.1
89569.4
89466.4
89371.4
89285.1
89208.2
89141
89083.5
89035.6
88996.9
88967.8
88947.1
88934.6
88929
82252.8
82260.6
82277.3
82304.2
82340.7
82386.9
82444
82511
82588.3
82675.4
82770.8
82874.3
82984.8
83101.2
83221.6
83344.1
83466.6
83587.5
83702.9
83809.1
83904.4
83986.2
84052.5
84101.4
84131.6
84142.4
84133.8
84106.6
84062.2
84003.1
83931.9
83852.5
83768.7
83684.8
83604.7
83532.4
83471.5
83425.2
83395
83383.7
83392.2
83419
83463.7
83523.9
83597
83679.7
83772.1
83861.9
83948.9
84028.7
84097.5
84151.9
84189.1
84207.1
84204.4
84180.8
84136.7
84073
83991.7
83894.8
83784.8
83662.5
83535.6
83405.1
83273.6
83144.1
83018.8
82900.1
82789.4
82688.2
82597.3
82517.1
82447.8
82389.2
82340.9
82302.1
82274.1
82254.5
82242.7
82237.5
75544.6
75552.8
75570.3
75597.4
75635
75683.4
75742.1
75811.9
75893
75986
76087.9
76199.4
76319.6
76446.8
76579.4
76715
76851.2
76985
77115.4
77235.1
77342.4
77434.7
77509.1
77563.3
77595.7
77605.2
77591.6
77555.7
77499.3
77424.8
77336.3
77237.7
77133.9
77029.9
76930.7
76841.3
76766
76708.3
76671.1
76656.5
76665.8
76698.4
76752.8
76826.5
76916.1
77017.4
77131
77241.6
77349
77448
77533.9
77602.5
77650.6
77675.8
77676.3
77652.1
77603.6
77532.4
77440.7
77331.4
77207.7
77068
76925.9
76779.8
76633.4
76489.8
76352.1
76222.5
76102.9
75994.8
75898.8
75815.2
75743.7
75684.6
75637.2
75601
75573.3
75554.2
75543.3
75538.7
68826.5
68835
68852.6
68880.1
68918.3
68968.3
69028.8
69101.7
69186.9
69286.2
69395.4
69516.1
69647.2
69787.1
69934.1
70085.4
70238.2
70389.2
70535.4
70672.8
70795.4
70900.7
70985.5
71046.8
71082.4
71090.7
71071.4
71025.2
70954.1
70861
70750.7
70628.2
70499.2
70370.2
70247.2
70136.3
70042.7
69970.7
69923.9
69905.2
69916.2
69956.1
70022.8
70113.3
70223.6
70348.4
70487.6
70624.3
70757.4
70880.3
70987.4
71073.6
71135
71168.9
71172.9
71147.3
71093.1
71012.2
70907.3
70782.1
70640.3
70481.8
70320
70154.7
69990.1
69829.7
69677.1
69534.8
69405
69289.1
69187.7
69101
69026.9
68968.1
68922.1
68887.5
68862.8
68846.5
68837.1
68833.2
62098.9
62107.8
62125
62151.7
62189.3
62239.5
62302.6
62378.9
62468.9
62573.7
62691.3
62822.4
62965.9
63120.5
63284.4
63454.4
63627
63798.4
63964.3
64124.2
64265.1
64386.9
64485
64555.7
64595.9
64603.4
64577.7
64519.3
64430
64314.4
64177.3
64025
63864.8
63704.5
63551.8
63414
63297.6
63208
63149.4
63125.7
63138.4
63187.3
63269.2
63380.6
63516.6
63671.3
63840.7
64010.7
64175.7
64328.4
64461.6
64569.3
64646.9
64691.2
64698.6
64670.8
64608.9
64515.5
64394.1
64248.8
64084.4
63903.7
63717.8
63529.1
63342.3
63161.9
62991.6
62834.7
62693.2
62568.7
62461.5
62371.5
62296.6
62238.5
62194.8
62163.8
62143.6
62131.4
62124.9
62122.1
55362.7
55371.9
55386.7
55409.9
55445.7
55496
55561.6
55641.5
55736.5
55847.1
55973.5
56115.8
56273.4
56444.6
56628.4
56820.4
57016.9
57213.2
57404.5
57588.5
57753.3
57896.1
58011.5
58094.7
58141.5
58149.1
58116.3
58043.8
57932.8
57789.1
57618.8
57429.6
57230.5
57031.3
56841.5
56670.3
56525.9
56414.8
56342.6
56315.7
56328.1
56386.1
56486.4
56623.5
56791.4
56982.8
57190.7
57401.5
57606.3
57795.7
57960.9
58094.7
58191.6
58248.3
58259.1
58227.9
58155.9
58046.5
57904.1
57734.1
57542.3
57333.1
57118.2
56901.3
56688.1
56483.8
56292.8
56118.8
55964.4
55830.6
55717.6
55624.9
55549.8
55493.4
55453.1
55427.9
55414.5
55409.7
55408.7
55407.4
48620.1
48627.8
48636.5
48652.9
48685.2
48735.6
48804.2
48887.5
48987
49103.7
49239
49393.6
49567
49757.6
49964
50181.8
50406.5
50632.9
50855.2
51068.3
51262.8
51432
51569.7
51669.4
51725.7
51734.6
51694.2
51605.8
51467.9
51290
51078.8
50843.9
50596.4
50348.5
50112.6
49900
49720.9
49583.7
49498
49461.6
49478.5
49544.5
49667.4
49836
50043.2
50279.8
50536.4
50798.1
51052.1
51286.7
51491.1
51656.4
51775.7
51844.3
51860.8
51824.9
51739.6
51609.7
51441
51240.2
51015
50770.3
50520.4
50269.6
50024.8
49792.3
49577.1
49383.2
49214.7
49071.1
48952.4
48857.5
48784.2
48730.4
48694.9
48677.3
48674.7
48682
48690.1
48692.1
41873.4
41877.1
41876.6
41883.4
41909.9
41958.8
42030.7
42115.4
42218
42340.4
42484.5
42651.8
42842.6
43055.7
43287.7
43535.5
43793.9
44056.4
44316
44565.1
44796
44998.6
45165.2
45286.7
45356.2
45368.2
45319.4
45208.6
45042.3
44823.5
44562.2
44270.5
43962.5
43653.9
43360.5
43096.3
42874.2
42703.5
42597.8
42552.3
42572.5
42657.9
42804
43010.3
43266
43558.9
43876.3
44201.5
44516.7
44807.2
45059.6
45263.1
45409.7
45493.9
45513.7
45470
45367.1
45211
45009.1
44770.1
44502.8
44216.3
43923.4
43631.4
43348.8
43083
42839.8
42621.9
42439.2
42285.5
42161.6
42066.2
41996.3
41948.7
41921.7
41914.9
41928
41951.8
41972.6
41980.2
35124.4
35122.1
35112.9
35110.2
35129.2
35172.8
35238.9
35323
35426.8
35553
35705
35885.1
36094.5
36332.1
36594.2
36877.3
37175.4
37481.2
37786
38080.5
38355.3
38599.6
38804.6
38955
39043.3
39061.7
39005.2
38872.9
38668.4
38398.9
38075.6
37713.2
37329.2
36944.3
36579.1
36251
35976.9
35771.2
35634.2
35576.2
35599.4
35703.4
35881.3
36136
36451.9
36814.9
37208.2
37613.9
38005.5
38364.9
38675.9
38925.4
39104.5
39207.4
39228.4
39173.2
39046.8
38857
38613.3
38326.5
38007.4
37669.8
37324.5
36982.6
36654.8
36350.2
36076
35837.9
35632.6
35467.3
35339.2
35246.1
35183.9
35148.5
35137.5
35150.2
35183.1
35225.4
35259.7
35275.6
28372
28364.4
28348.8
28336
28344.5
28376.4
28431.8
28508.9
28609.1
28736
28893.6
29085.7
29314.5
29579.5
29876.2
30200.3
30545.6
30903.4
31263.1
31613.6
31942.9
32237.5
32496.8
32684.1
32799.6
32829.3
32765.9
32608.7
32358.9
32027.6
31627.9
31177.2
30696.6
30214.8
29759.7
29352.9
29012
28758
28590.5
28518.3
28544.9
28668.9
28883
29200
29590.5
30041.2
30530.9
31036.2
31525.4
31970.2
32352.2
32656.7
32874.2
33001.7
33018.8
32946.4
32788.6
32554.9
32258.8
31911.3
31530.8
31128.9
30719.5
30316.9
29934.5
29583.7
29272.7
29005.6
28781.5
28606.2
28476.1
28389.8
28342.8
28329.3
28344.8
28385.9
28444.9
28507.8
28556
28579.6
21612.5
21601.9
21581.9
21562.3
21553.7
21567.8
21605.9
21668.9
21759.5
21882.1
22041.6
22243.5
22492.5
22787.9
23123.1
23494
23895.1
24315.8
24743.1
25163.2
25562.3
25926.5
26241.2
26483.3
26641.1
26689.8
26621.1
26438.7
26131.5
25725.2
25231.1
24671
24062.9
23460.3
22891.5
22387.2
21969.1
21663.3
21458.6
21369.2
21400.3
21551.3
21817
22188.1
22666.7
23227.9
23842
24472
25086.4
25636.9
26105.6
26474.4
26733.2
26873.6
26898.1
26804.2
26604.4
26313.8
25950.1
25530.8
25072.7
24591
24102.4
23624.9
23175.9
22770.5
22418.5
22121.9
21872.9
21689
21558.8
21485.9
21464.6
21486.2
21541.5
21621.2
21713
21799.2
21861.9
21892.4
14841.8
14828.6
14802.9
14772
14747.7
14740
14754.6
14795.9
14869.4
14981
15136.1
15341.9
15611
15945.3
16321.9
16742.4
17208.3
17706
18217.6
18724.8
19211
19662.3
20059
20375.6
20587.5
20670.7
20593.5
20366.8
20002.9
19510.9
18896.9
18199.4
17435.3
16668.7
15953.8
15332.2
14884.9
14488.7
14224.6
14109.1
14147.9
14339.2
14667.4
15066.8
15654.7
16356.4
17133.6
17932.1
18696.6
19382
19958.8
20401.5
20709.6
20875.2
20898.7
20771.5
20513.4
20147.6
19697.5
19185.6
18631.3
18050.4
17462.9
16891.3
16359.9
15891.1
15497.5
15178.9
14916.7
14703
14569.1
14518.5
14537.3
14610.6
14721.2
14851.1
14982.4
15097.4
15177.6
15214.9
8056.89
8038.21
8002.58
7959.29
7917.09
7885.07
7872.12
7885.82
7936.83
8034.59
8182.26
8385.12
8691.2
9064.7
9454.22
9919.89
10467.5
11066.7
11685.9
12297.9
12884.7
13438.9
13941.3
14358.5
14653.3
14791
14742.5
14511.5
14007.6
13409.7
12670.3
11807.6
10835.5
9856.61
8957.85
8288.52
7659.6
7129.83
6783.06
6633.22
6681.23
6931.94
7380.32
7948.44
8560.1
9437.11
10427.3
11440.4
12396.8
13238.2
13944.4
14467.7
14835.9
15056.1
15052.7
14866.2
14522.8
14056.2
13498
12876.9
12210.9
11510.1
10796.8
10099.9
9456.14
8906.75
8473.83
8160.03
7904.66
7638.58
7487.34
7470.07
7544.26
7688.72
7873.6
8066.15
8243.62
8395
8500.56
8544.16
2394.76
2389.64
2357.43
2319.68
2276.76
2233.76
2200.07
2179.7
2179.89
2208.74
2272.04
2364.74
2525.84
2775.44
3109.76
3524.9
4027.72
4618.19
5269.94
5943.61
6615.07
7293.7
7931.29
8478.57
8885.08
9094.92
9041.4
8633.97
8111.17
7474.57
6581.12
5509.31
4424.14
3422.16
2587.53
2009.44
1654.72
1424.16
1289.91
1232.89
1245.88
1331.78
1507.56
1799.82
2283.02
3034.16
3989.14
5068.5
6202.14
7253.81
8114.11
8677.34
9019.37
9329.52
9368.16
9115.24
8664.93
8072.7
7385.38
6636.88
5875.75
5110.93
4378.21
3712.4
3135.62
2664.67
2291.59
2084.12
1952.42
1863.96
1830.09
1854.44
1932.5
2069.44
2239.71
2406.32
2551.2
2678.97
2765.4
2780.28
94.0774
98.1526
92.8561
83.4722
72.1179
60.1445
49.7418
41.0362
33.5759
28.6952
30.5638
45.2296
72.6967
122.017
199.565
317.155
491.765
741.831
1072.33
1460.92
1846.16
2313.96
2827.94
3308.38
3708.3
3982.49
4038.64
3805.55
3345.22
2686.92
1923.04
1173.15
637.458
283.62
77.9109
-5.26478
-7.04683
-6.90081
-6.81897
-6.77246
-6.75255
-6.75473
-6.71235
-5.91062
30.241
179.906
469.691
920.865
1615.78
2427.19
3209.3
3788.96
4122.39
4279.76
4209.06
3894.39
3448.97
2930.58
2388.08
1871.23
1434.4
1004.51
653.546
390.269
208.027
91.9332
16.9829
-5.20015
-5.95203
-4.59026
-1.48197
4.27064
15.9583
37.6225
68.3228
102.051
134.807
167.065
185.913
183.816
-6.31318
-6.4148
-6.1986
-6.32468
-6.60781
-6.80812
-6.8539
-6.84483
-6.83357
-6.62597
-6.22407
-6.1989
-6.26032
-6.40036
-6.66738
-6.90977
-7.01336
-7.22019
-7.60108
-7.6824
-6.74797
43.2095
190.311
384
601.189
789.841
859.077
775.398
536.596
263.065
76.6031
-0.297956
-8.48715
-8.24631
-7.77986
-7.32622
-7.52547
-7.49035
-7.43784
-7.39644
-7.36514
-7.33427
-7.27523
-7.09886
-7.08956
-7.59158
-7.41705
-5.44478
30.4762
181.373
454.602
762.92
976.474
1031.7
915.596
680.138
436.162
225.458
64.9432
-6.57192
-7.58617
-7.27586
-6.93726
-6.60084
-6.39668
-6.29341
-6.12572
-6.23408
-6.33365
-6.3749
-6.41452
-6.43544
-6.42951
-6.43961
-6.49944
-6.49732
-6.39853
-6.13138
-5.99216
-5.12623
-7.00298
-6.98775
-6.9251
-7.04067
-7.26226
-7.40497
-7.40074
-7.36658
-7.43465
-7.42786
-7.30572
-7.21222
-7.07535
-7.15346
-7.38039
-7.48203
-7.42315
-7.42017
-7.5738
-7.73093
-7.66329
-7.97119
-8.91518
-9.55004
-9.80354
-9.94433
-9.83352
-9.68365
-9.79384
-9.92649
-9.5983
-8.63526
-8.4909
-8.456
-8.32947
-8.14282
-8.1467
-8.11576
-8.05661
-8.0103
-7.98182
-7.97334
-7.93336
-7.85354
-7.90131
-7.97734
-7.9034
-8.15891
-9.19949
-10.1944
-10.4173
-9.99538
-9.42693
-9.23334
-9.24022
-9.19552
-9.27662
-9.13752
-8.24893
-7.58703
-7.57277
-7.43243
-7.26108
-6.96986
-6.71011
-6.66238
-6.75705
-6.84498
-6.93083
-7.01399
-7.0519
-7.06973
-7.07041
-7.09231
-7.17896
-7.27731
-7.2617
-7.02866
-6.68358
-6.38436
-7.52725
-7.52895
-7.60834
-7.87299
-8.1275
-8.24771
-8.17008
-8.05238
-8.05707
-8.0269
-7.79687
-7.70425
-7.69922
-7.88729
-8.13922
-8.25853
-8.25643
-8.20659
-8.23211
-8.37848
-8.6068
-9.05724
-9.24467
-9.39471
-9.57937
-9.7213
-9.71265
-9.61972
-9.60784
-9.67047
-9.64142
-9.32839
-9.0575
-9.08031
-9.01347
-8.8538
-8.78891
-8.74349
-8.68982
-8.64548
-8.61771
-8.60624
-8.59578
-8.60651
-8.71777
-8.85319
-8.98111
-9.26447
-9.85668
-10.1568
-9.99328
-9.62659
-9.28092
-9.1105
-9.05786
-9.07044
-9.1095
-9.02457
-8.75464
-8.33841
-8.24256
-8.17068
-7.9884
-7.65754
-7.3415
-7.18813
-7.21113
-7.38094
-7.58132
-7.68659
-7.69928
-7.70463
-7.73877
-7.80949
-7.89849
-7.92328
-7.85958
-7.69029
-7.41988
-7.19882
-8.10711
-8.22459
-8.6945
-9.24794
-9.55198
-9.54291
-9.31997
-8.99807
-8.74575
-8.57713
-8.40882
-8.3573
-8.39943
-8.58109
-8.79747
-8.9234
-9.00776
-9.0113
-9.08698
-9.35544
-9.7545
-10.035
-10.1199
-10.1678
-10.2578
-10.2974
-10.2043
-10.0599
-9.9724
-9.95863
-9.92305
-9.80912
-9.74908
-9.69259
-9.60772
-9.50552
-9.42987
-9.36083
-9.30198
-9.25818
-9.22933
-9.21587
-9.23512
-9.32186
-9.49909
-9.71452
-9.96753
-10.3409
-10.8118
-10.9175
-10.6061
-10.2604
-10.0304
-9.9136
-9.91565
-9.96582
-9.8892
-9.59332
-9.16685
-8.83276
-8.73562
-8.7307
-8.65345
-8.38698
-8.02792
-7.81226
-7.82903
-8.00311
-8.20784
-8.35451
-8.39449
-8.39427
-8.42462
-8.48257
-8.56979
-8.60363
-8.5774
-8.49915
-8.34341
-8.13279
-8.93745
-9.28338
-10.0393
-10.6114
-10.8439
-10.8087
-10.5359
-10.0475
-9.52309
-9.16648
-9.06347
-9.06224
-9.16638
-9.33129
-9.52026
-9.74299
-9.90852
-9.99147
-10.0495
-10.285
-10.6123
-10.7075
-10.6539
-10.6485
-10.7197
-10.743
-10.6156
-10.4236
-10.2996
-10.2991
-10.3401
-10.3291
-10.283
-10.2343
-10.1623
-10.0894
-10.0257
-9.96733
-9.91859
-9.88062
-9.85344
-9.84667
-9.87162
-9.9726
-10.1663
-10.4433
-10.8244
-11.3877
-11.8503
-11.7243
-11.222
-10.8098
-10.543
-10.3881
-10.3374
-10.352
-10.3258
-10.1223
-9.80308
-9.50958
-9.36713
-9.33624
-9.29415
-9.16813
-8.92748
-8.72521
-8.6497
-8.73343
-8.86656
-8.97153
-9.01753
-9.0287
-9.05931
-9.09907
-9.16262
-9.21042
-9.20771
-9.19455
-9.18016
-9.0068
-9.99378
-10.4822
-11.168
-11.6123
-11.7787
-11.7654
-11.5164
-10.9902
-10.3526
-9.88395
-9.87371
-9.82528
-9.93729
-10.0947
-10.2977
-10.5261
-10.673
-10.7602
-10.8328
-10.9994
-11.1845
-11.2338
-11.2313
-11.2929
-11.4319
-11.5092
-11.3923
-11.1686
-10.9073
-10.7753
-10.8232
-10.8594
-10.8192
-10.7679
-10.7116
-10.6583
-10.609
-10.5637
-10.526
-10.4967
-10.4766
-10.475
-10.5132
-10.6226
-10.8173
-11.1056
-11.537
-12.0989
-12.3944
-12.1833
-11.6923
-11.2569
-10.9534
-10.7718
-10.694
-10.6749
-10.6441
-10.4987
-10.2907
-10.099
-9.9891
-9.94977
-9.92691
-9.93501
-9.85604
-9.74957
-9.63575
-9.55982
-9.57381
-9.61327
-9.64285
-9.65962
-9.67494
-9.69238
-9.71445
-9.72885
-9.72558
-9.72593
-9.75854
-9.68572
-11.039
-11.4993
-12.0087
-12.3741
-12.5164
-12.5001
-12.2647
-11.7655
-11.1397
-10.7308
-10.7517
-10.632
-10.721
-10.8557
-11.0456
-11.2293
-11.3455
-11.4111
-11.4774
-11.5925
-11.6197
-11.6614
-11.7324
-11.9142
-12.2065
-12.4558
-12.4945
-12.2468
-11.8217
-11.5114
-11.4035
-11.4465
-11.3896
-11.3199
-11.264
-11.2197
-11.1835
-11.1537
-11.1311
-11.1157
-11.1089
-11.1194
-11.1674
-11.2771
-11.4609
-11.7364
-12.1267
-12.5311
-12.6427
-12.3871
-11.9655
-11.567
-11.2654
-11.0808
-10.9823
-10.9459
-10.9164
-10.8534
-10.7553
-10.6731
-10.6478
-10.6355
-10.6238
-10.6635
-10.6906
-10.6828
-10.6222
-10.4543
-10.3132
-10.2603
-10.2542
-10.2651
-10.2725
-10.275
-10.2683
-10.2456
-10.2183
-10.1955
-10.1877
-10.2041
-11.9264
-12.2741
-12.6637
-12.9681
-13.0992
-13.0703
-12.8322
-12.3679
-11.8363
-11.6132
-11.5484
-11.4402
-11.5219
-11.6485
-11.8028
-11.9378
-12.0458
-12.1368
-12.2084
-12.3237
-12.2389
-12.1419
-12.2004
-12.4828
-12.9358
-13.3921
-13.607
-13.3396
-12.8271
-12.4073
-12.136
-12.0622
-11.9681
-11.8705
-11.8089
-11.771
-11.7471
-11.7331
-11.7277
-11.7297
-11.7415
-11.7729
-11.8407
-11.9596
-12.1414
-12.3989
-12.7217
-12.9748
-12.9525
-12.6508
-12.2412
-11.868
-11.5828
-11.4018
-11.3144
-11.2838
-11.3051
-11.2923
-11.2583
-11.2316
-11.2339
-11.2303
-11.2231
-11.232
-11.2677
-11.295
-11.2716
-11.1671
-10.9873
-10.865
-10.8307
-10.8298
-10.8308
-10.8273
-10.8095
-10.7707
-10.7172
-10.6648
-10.6162
-10.6229
-12.6225
-12.8507
-13.1378
-13.3496
-13.4658
-13.4418
-13.2186
-12.8201
-12.4357
-12.3739
-12.2979
-12.2715
-12.3651
-12.4839
-12.6089
-12.7279
-12.854
-13.0075
-13.2052
-13.2691
-13.1051
-12.8537
-12.7913
-13.0275
-13.5261
-14.0776
-14.3865
-14.2268
-13.7133
-13.222
-12.8868
-12.6644
-12.5118
-12.3942
-12.3297
-12.3028
-12.295
-12.3004
-12.3168
-12.3434
-12.3832
-12.4468
-12.5488
-12.6997
-12.8996
-13.1418
-13.3939
-13.5379
-13.4525
-13.1396
-12.7213
-12.3373
-12.0524
-11.8813
-11.8006
-11.7767
-11.781
-11.7709
-11.759
-11.7461
-11.7291
-11.7149
-11.7063
-11.703
-11.7016
-11.6943
-11.669
-11.61
-11.5084
-11.4176
-11.3875
-11.3844
-11.3808
-11.3699
-11.349
-11.3086
-11.2423
-11.1667
-11.0926
-11.0635
-13.1614
-13.2884
-13.4531
-13.554
-13.6342
-13.6329
-13.4773
-13.2074
-13.0157
-13.0428
-13.0302
-13.1132
-13.2407
-13.3434
-13.4443
-13.5475
-13.6683
-13.8486
-14.1146
-14.2227
-14.0617
-13.7919
-13.5892
-13.6417
-14.0124
-14.4957
-14.815
-14.7893
-14.4174
-13.8509
-13.3903
-13.1412
-12.9781
-12.8718
-12.8194
-12.8118
-12.8268
-12.8561
-12.8995
-12.9582
-13.0383
-13.1521
-13.3129
-13.5211
-13.7559
-13.987
-14.1619
-14.2043
-14.0494
-13.7238
-13.3227
-12.9431
-12.6462
-12.4504
-12.3409
-12.2888
-12.2641
-12.2439
-12.2304
-12.2235
-12.2133
-12.2028
-12.1947
-12.1845
-12.1666
-12.1361
-12.0913
-12.0358
-11.9824
-11.9489
-11.9416
-11.9471
-11.9485
-11.9373
-11.9151
-11.8768
-11.8116
-11.7278
-11.6476
-11.6091
-13.6101
-13.666
-13.7167
-13.7233
-13.7723
-13.8161
-13.7707
-13.6625
-13.6228
-13.6787
-13.7348
-13.8814
-14.0318
-14.1183
-14.1768
-14.2501
-14.3538
-14.5347
-14.7888
-14.9473
-14.9065
-14.7033
-14.4672
-14.3522
-14.4731
-14.7923
-15.0673
-15.1157
-14.9247
-14.4181
-13.7665
-13.5012
-13.3927
-13.3103
-13.2782
-13.2976
-13.3417
-13.4006
-13.4763
-13.5747
-13.7078
-13.8966
-14.1552
-14.463
-14.7594
-14.9807
-15.0871
-15.0286
-14.7898
-14.4101
-13.9748
-13.5609
-13.2299
-13.0027
-12.8687
-12.7951
-12.7518
-12.7254
-12.7127
-12.709
-12.7066
-12.7022
-12.6954
-12.6833
-12.6623
-12.6305
-12.5905
-12.5514
-12.5225
-12.5114
-12.5175
-12.5283
-12.5314
-12.5223
-12.5025
-12.47
-12.4171
-12.3451
-12.2741
-12.2313
-14.032
-14.0526
-14.0342
-13.992
-14.0254
-14.14
-14.2227
-14.2222
-14.2307
-14.2997
-14.3658
-14.5299
-14.6861
-14.7503
-14.7594
-14.803
-14.9084
-15.0811
-15.3118
-15.4915
-15.5145
-15.4154
-15.2529
-15.0665
-15.0151
-15.1067
-15.2844
-15.3499
-15.2391
-14.8938
-14.2352
-13.8521
-13.7991
-13.7464
-13.7235
-13.7701
-13.8429
-13.9333
-14.0449
-14.1908
-14.3938
-14.6907
-15.0985
-15.5566
-15.9414
-16.1942
-16.286
-16.157
-15.8148
-15.3364
-14.8232
-14.3212
-13.8903
-13.5922
-13.4175
-13.325
-13.2662
-13.2303
-13.2131
-13.2091
-13.2118
-13.2149
-13.2125
-13.2035
-13.1864
-13.1612
-13.1328
-13.1104
-13.1024
-13.1096
-13.1234
-13.1311
-13.1245
-13.106
-13.082
-13.051
-13.0169
-12.9789
-12.9297
-12.8926
-14.4561
-14.4886
-14.4806
-14.4693
-14.4868
-14.6396
-14.7962
-14.8145
-14.8136
-14.8471
-14.9032
-15.0735
-15.2304
-15.2937
-15.3046
-15.3099
-15.3887
-15.554
-15.7622
-15.9515
-16.0325
-15.9759
-15.8576
-15.7175
-15.6095
-15.5365
-15.5707
-15.5976
-15.5193
-15.3384
-14.8827
-14.3289
-14.2306
-14.2217
-14.2086
-14.2484
-14.3393
-14.4562
-14.6043
-14.8019
-15.0887
-15.527
-16.1375
-16.7996
-17.3717
-17.7328
-17.7934
-17.6094
-17.1783
-16.5814
-15.9671
-15.3708
-14.8019
-14.3555
-14.0642
-13.9015
-13.8106
-13.7565
-13.7311
-13.7273
-13.736
-13.746
-13.7502
-13.7473
-13.739
-13.7269
-13.7167
-13.7156
-13.7267
-13.7449
-13.7587
-13.7535
-13.7273
-13.6888
-13.6529
-13.618
-13.6094
-13.6062
-13.5797
-13.5564
-14.8806
-14.9802
-15.0559
-15.1203
-15.1496
-15.265
-15.3952
-15.3904
-15.3462
-15.3129
-15.3695
-15.5572
-15.6916
-15.7857
-15.8232
-15.8274
-15.876
-15.9991
-16.1683
-16.354
-16.4703
-16.4541
-16.3618
-16.2587
-16.1489
-16.1132
-16.0577
-15.9856
-15.9162
-15.8489
-15.6138
-15.0779
-14.7411
-14.7383
-14.7504
-14.7592
-14.8384
-14.9715
-15.1517
-15.4002
-15.772
-16.3576
-17.1861
-18.1279
-18.9892
-19.3475
-19.3012
-19.0591
-18.5739
-17.9046
-17.2177
-16.585
-15.9161
-15.3054
-14.8919
-14.6529
-14.4908
-14.3593
-14.2823
-14.2656
-14.284
-14.3008
-14.3097
-14.3147
-14.3186
-14.3258
-14.3421
-14.3699
-14.4035
-14.4292
-14.4374
-14.4117
-14.3585
-14.2976
-14.2542
-14.2243
-14.2329
-14.2383
-14.2184
-14.2072
-15.2829
-15.4568
-15.681
-15.8154
-15.8881
-15.92
-15.9828
-15.9429
-15.8567
-15.7928
-15.8346
-15.9903
-16.1224
-16.233
-16.3023
-16.3435
-16.3943
-16.4705
-16.5805
-16.7086
-16.8201
-16.8425
-16.7878
-16.7107
-16.6959
-16.7135
-16.6507
-16.533
-16.4899
-16.4856
-16.3831
-16.0162
-15.4526
-15.3023
-15.3436
-15.3318
-15.3632
-15.4908
-15.6923
-15.9816
-16.4196
-17.1236
-18.1576
-19.4346
-20.4781
-20.7898
-20.6097
-20.1785
-19.617
-18.8961
-18.1871
-17.6233
-16.9688
-16.2565
-15.7801
-15.532
-15.3344
-15.1224
-14.9467
-14.8552
-14.8615
-14.8801
-14.8892
-14.9001
-14.9178
-14.9493
-15.0003
-15.0648
-15.1264
-15.1654
-15.1655
-15.1186
-15.0376
-14.9541
-14.9035
-14.883
-14.8858
-14.8773
-14.8479
-14.8302
-15.5999
-15.8532
-16.2494
-16.5099
-16.5956
-16.553
-16.5216
-16.4517
-16.3566
-16.2933
-16.2978
-16.4023
-16.5379
-16.6617
-16.7882
-16.8804
-16.9302
-16.9708
-17.0219
-17.079
-17.1393
-17.1645
-17.1544
-17.1284
-17.116
-17.1306
-17.157
-17.1327
-17.0774
-17.043
-16.9625
-16.721
-16.3095
-16.0108
-15.9571
-15.9643
-16.0001
-16.0662
-16.2389
-16.5509
-17.0123
-17.7798
-18.9052
-20.3278
-21.4935
-21.8447
-21.4925
-20.9114
-20.2761
-19.5137
-18.8193
-18.3186
-17.8101
-17.1076
-16.5963
-16.3996
-16.2387
-15.9894
-15.7344
-15.5437
-15.4764
-15.47
-15.4748
-15.492
-15.5233
-15.5797
-15.6666
-15.7683
-15.8597
-15.9161
-15.9181
-15.8586
-15.7564
-15.6512
-15.5857
-15.5609
-15.5406
-15.5023
-15.4751
-15.4435
-15.7678
-16.1162
-16.6811
-17.0722
-17.1917
-17.1367
-17.0278
-16.9221
-16.8314
-16.7733
-16.7581
-16.817
-16.9435
-17.114
-17.3023
-17.4291
-17.4691
-17.4704
-17.4738
-17.4777
-17.4746
-17.4927
-17.5136
-17.5225
-17.5249
-17.5294
-17.5454
-17.5389
-17.5079
-17.4521
-17.3536
-17.1801
-16.9508
-16.7207
-16.6022
-16.6355
-16.6691
-16.7088
-16.8505
-17.1242
-17.572
-18.2951
-19.3417
-20.6405
-21.7204
-22.0917
-21.8183
-21.2775
-20.6424
-19.9287
-19.2584
-18.7845
-18.3714
-17.8018
-17.3154
-17.122
-17.0105
-16.8278
-16.5271
-16.2609
-16.1016
-16.0448
-16.0417
-16.0684
-16.1157
-16.1939
-16.309
-16.4383
-16.5545
-16.6313
-16.6462
-16.5879
-16.4762
-16.3559
-16.2697
-16.2357
-16.1928
-16.1326
-16.1149
-16.0784
-15.7676
-16.2174
-16.9314
-17.4402
-17.66
-17.6524
-17.5303
-17.4052
-17.3074
-17.2534
-17.243
-17.2944
-17.4216
-17.6221
-17.8194
-17.9432
-17.9731
-17.9498
-17.9129
-17.8767
-17.8543
-17.8695
-17.8992
-17.9206
-17.9272
-17.9239
-17.9262
-17.9352
-17.9086
-17.8448
-17.7609
-17.6498
-17.514
-17.3664
-17.2545
-17.2495
-17.2924
-17.3748
-17.5123
-17.7413
-18.1338
-18.7252
-19.5403
-20.5233
-21.3513
-21.7044
-21.6421
-21.2683
-20.775
-20.2016
-19.6311
-19.183
-18.8011
-18.346
-17.9158
-17.6951
-17.6025
-17.5146
-17.2701
-16.9179
-16.6632
-16.5745
-16.5764
-16.61
-16.6725
-16.7696
-16.9024
-17.0475
-17.1819
-17.277
-17.3091
-17.2622
-17.1538
-17.0296
-16.9226
-16.8696
-16.829
-16.7688
-16.7503
-16.7199
-15.6328
-16.1687
-17.0236
-17.6829
-18.031
-18.1107
-18.0384
-17.9325
-17.8457
-17.8018
-17.8061
-17.8665
-17.985
-18.1483
-18.3032
-18.3953
-18.4117
-18.3797
-18.3369
-18.3004
-18.2843
-18.2937
-18.3155
-18.3325
-18.3352
-18.3268
-18.3202
-18.3215
-18.3099
-18.2715
-18.2134
-18.1426
-18.0629
-17.98
-17.9122
-17.8906
-17.9198
-18.0051
-18.1524
-18.3749
-18.7078
-19.1709
-19.7758
-20.4582
-21.0397
-21.372
-21.4215
-21.2253
-20.8853
-20.4521
-20.0219
-19.636
-19.2723
-18.8438
-18.4667
-18.2612
-18.1618
-18.0827
-17.9233
-17.5286
-17.1711
-17.0527
-17.081
-17.1224
-17.1866
-17.2948
-17.436
-17.589
-17.7389
-17.8488
-17.8938
-17.8604
-17.7633
-17.6469
-17.5294
-17.4501
-17.4126
-17.3793
-17.3578
-17.3489
-15.4392
-16.0684
-17.0731
-17.9092
-18.3984
-18.5852
-18.5948
-18.5372
-18.4742
-18.4403
-18.4509
-18.5039
-18.5889
-18.6904
-18.7776
-18.826
-18.8321
-18.8116
-18.7838
-18.7601
-18.7489
-18.7519
-18.7616
-18.7713
-18.7708
-18.7624
-18.7538
-18.7486
-18.7382
-18.7138
-18.6771
-18.634
-18.59
-18.5485
-18.5134
-18.4973
-18.5173
-18.5877
-18.7255
-18.9481
-19.2514
-19.6415
-20.1013
-20.5735
-21.0091
-21.3265
-21.4294
-21.3267
-21.0654
-20.724
-20.369
-20.0577
-19.7487
-19.3669
-19.0228
-18.8233
-18.7357
-18.6672
-18.5116
-18.1737
-17.7737
-17.5623
-17.57
-17.6229
-17.6765
-17.7789
-17.9157
-18.0653
-18.2289
-18.3478
-18.3998
-18.3811
-18.2973
-18.2045
-18.0956
-18.0087
-17.9508
-17.9552
-17.9278
-17.9237
-15.5034
-16.1366
-17.2056
-18.2386
-18.8722
-19.1518
-19.239
-19.2181
-19.1517
-19.1065
-19.1145
-19.1589
-19.21
-19.2587
-19.2932
-19.3059
-19.2987
-19.2803
-19.2591
-19.2419
-19.2326
-19.2321
-19.236
-19.2355
-19.2314
-19.2235
-19.2145
-19.2057
-19.1936
-19.1746
-19.1492
-19.1207
-19.0927
-19.0674
-19.0479
-19.0419
-19.0592
-19.1167
-19.2351
-19.4305
-19.7066
-20.047
-20.4199
-20.8012
-21.1699
-21.4122
-21.4798
-21.4083
-21.2239
-20.9468
-20.6382
-20.3686
-20.1214
-19.8293
-19.5403
-19.3752
-19.3189
-19.2737
-19.1006
-18.8471
-18.458
-18.1794
-18.091
-18.1325
-18.1699
-18.2527
-18.3725
-18.5109
-18.6569
-18.7665
-18.8222
-18.8181
-18.7724
-18.7121
-18.6336
-18.5721
-18.516
-18.5149
-18.4652
-18.4412
-16.121
-16.749
-17.7867
-18.8628
-19.6325
-20.0345
-20.1449
-20.0798
-19.9541
-19.865
-19.8303
-19.8342
-19.8409
-19.8468
-19.8386
-19.8191
-19.7941
-19.7708
-19.7493
-19.7329
-19.7225
-19.7174
-19.7136
-19.7084
-19.7011
-19.6918
-19.6816
-19.6708
-19.6582
-19.6428
-19.6249
-19.6063
-19.589
-19.5744
-19.5637
-19.5614
-19.5774
-19.6266
-19.7242
-19.8848
-20.1127
-20.3944
-20.7015
-21.0083
-21.2842
-21.4609
-21.5111
-21.4668
-21.3383
-21.1306
-20.9101
-20.6981
-20.4805
-20.2497
-20.0419
-19.9219
-19.9023
-19.883
-19.7353
-19.4941
-19.1239
-18.8508
-18.6972
-18.6783
-18.6884
-18.749
-18.8488
-18.9647
-19.0816
-19.1611
-19.2003
-19.2029
-19.1948
-19.1778
-19.1568
-19.1372
-19.1173
-19.0828
-18.9986
-18.9689
-17.4166
-18.0828
-19.1175
-20.1742
-21.0146
-21.5062
-21.6507
-21.5487
-21.3353
-21.0752
-20.8236
-20.6309
-20.5235
-20.4569
-20.4036
-20.356
-20.3144
-20.2776
-20.2497
-20.2296
-20.2153
-20.2053
-20.1966
-20.1874
-20.1769
-20.165
-20.1526
-20.1399
-20.127
-20.1139
-20.1015
-20.0908
-20.0834
-20.08
-20.0802
-20.0871
-20.1083
-20.1532
-20.2351
-20.3681
-20.5546
-20.7811
-21.0221
-21.2505
-21.4379
-21.5524
-21.5829
-21.5468
-21.4654
-21.3477
-21.2128
-21.0668
-20.9028
-20.7308
-20.5801
-20.489
-20.4813
-20.4602
-20.3772
-20.1056
-19.7571
-19.5035
-19.3439
-19.2624
-19.2401
-19.2837
-19.3714
-19.4698
-19.5711
-19.6423
-19.6625
-19.6546