/*--------------------------------*- C++ -*----------------------------------*\
| =========                 |                                                 |
| \\      /  F ield         | OpenFOAM: The Open Source CFD Toolbox           |
|  \\    /   O peration     | Version:  2412                                  |
|   \\  /    A nd           | Website:  www.openfoam.com                      |
|    \\/     M anipulation  |                                                 |
\*---------------------------------------------------------------------------*/
FoamFile
{
    version     2.0;
    format      ascii;
    arch        "LSB;label=32;scalar=64";
    class       surfaceScalarField;
    location    "9.75";
    object      alphaPhi0.water;
}
// * * * * * * * * * * * * * * * * * * * * * * * * * * * * * * * * * * * * * //

dimensions      [0 3 -1 0 0 0 0];

oriented        oriented;

internalField   nonuniform List<scalar> 
12640
(
1.04586e-05
-1.04586e-05
2.55863e-05
-1.51284e-05
3.91787e-05
-1.35932e-05
5.13844e-05
-1.22063e-05
6.27256e-05
-1.13418e-05
7.32778e-05
-1.05527e-05
8.28642e-05
-9.58682e-06
9.12332e-05
-8.36924e-06
9.81736e-05
-6.94054e-06
0.000103503
-5.32892e-06
0.000107188
-3.68534e-06
0.000109089
-1.90116e-06
0.000109118
-2.87164e-08
0.000107371
1.74727e-06
0.000103912
3.46023e-06
9.887e-05
5.04198e-06
9.24041e-05
6.46637e-06
8.4708e-05
7.69687e-06
7.59696e-05
8.7392e-06
6.63714e-05
9.59881e-06
5.60881e-05
1.02839e-05
4.52974e-05
1.07912e-05
3.41973e-05
1.11005e-05
2.29662e-05
1.12315e-05
1.18118e-05
1.11547e-05
1.08042e-06
1.07316e-05
-8.94653e-06
1.0027e-05
-1.78155e-05
8.86895e-06
-2.5212e-05
7.39651e-06
-3.08713e-05
5.65931e-06
-3.47453e-05
3.87383e-06
-3.68381e-05
2.09282e-06
-3.71561e-05
3.18059e-07
-3.55581e-05
-1.59782e-06
-3.19249e-05
-3.63299e-06
-2.64051e-05
-5.51983e-06
-1.91557e-05
-7.24986e-06
-1.04696e-05
-8.6865e-06
-7.269e-07
-9.74312e-06
9.66912e-06
-1.03964e-05
2.02207e-05
-1.0552e-05
3.0392e-05
-1.01717e-05
3.97311e-05
-9.33947e-06
4.77348e-05
-8.00434e-06
5.40443e-05
-6.31024e-06
5.8284e-05
-4.2403e-06
6.02533e-05
-1.96945e-06
5.98967e-05
3.5661e-07
5.73435e-05
2.5531e-06
5.26859e-05
4.6577e-06
4.60397e-05
6.64631e-06
3.74547e-05
8.58528e-06
2.71712e-05
1.02837e-05
1.54954e-05
1.16758e-05
2.84953e-06
1.26456e-05
-1.04261e-05
1.32754e-05
-2.404e-05
1.36137e-05
-3.78632e-05
1.3823e-05
-5.17194e-05
1.38559e-05
-6.54289e-05
1.37092e-05
-7.87169e-05
1.32877e-05
-9.13659e-05
1.26488e-05
-0.000103079
1.17133e-05
-0.000113605
1.0526e-05
-0.000122645
9.03961e-06
-0.0001299
7.25508e-06
-0.000135187
5.28621e-06
-0.000138234
3.04694e-06
-0.000138838
6.04814e-07
-0.000136811
-2.02761e-06
-0.00013206
-4.75124e-06
-0.00012458
-7.47977e-06
-0.000114626
-9.95259e-06
-0.000102505
-1.21202e-05
-8.84384e-05
-1.40663e-05
-7.2839e-05
-1.55979e-05
-5.57461e-05
-1.70899e-05
-3.67395e-05
-1.90039e-05
-1.59419e-05
-2.07971e-05
-1.59405e-05
8.78551e-06
-1.92451e-05
2.2196e-05
-2.85401e-05
3.41894e-05
-2.55875e-05
4.52482e-05
-2.3266e-05
5.60177e-05
-2.21121e-05
6.65236e-05
-2.10591e-05
7.66084e-05
-1.96721e-05
8.58657e-05
-1.76268e-05
9.39604e-05
-1.50353e-05
0.000100657
-1.20252e-05
0.000105615
-8.64311e-06
0.000108777
-5.06212e-06
0.000110055
-1.30681e-06
0.000109483
2.32056e-06
0.000107045
5.89904e-06
0.000102825
9.26311e-06
9.68797e-05
1.24128e-05
8.94333e-05
1.51442e-05
8.0708e-05
1.74655e-05
7.1011e-05
1.9297e-05
6.06663e-05
2.06297e-05
4.99753e-05
2.14834e-05
3.93073e-05
2.17695e-05
2.90578e-05
2.14817e-05
1.95215e-05
2.06914e-05
1.0934e-05
1.93194e-05
3.50728e-06
1.74538e-05
-2.75351e-06
1.51297e-05
-7.83675e-06
1.24797e-05
-1.17565e-05
9.57893e-06
-1.44152e-05
6.53231e-06
-1.5706e-05
3.3833e-06
-1.5641e-05
2.52339e-07
-1.43336e-05
-2.90636e-06
-1.19706e-05
-5.9972e-06
-8.69965e-06
-8.79202e-06
-4.64812e-06
-1.13026e-05
-1.95007e-08
-1.33163e-05
5.03167e-06
-1.47954e-05
1.0296e-05
-1.56619e-05
1.5574e-05
-1.58312e-05
2.06526e-05
-1.52517e-05
2.52977e-05
-1.39858e-05
2.93582e-05
-1.20656e-05
3.2664e-05
-9.61655e-06
3.51046e-05
-6.68137e-06
3.65077e-05
-3.37307e-06
3.66526e-05
2.11061e-07
3.53356e-05
3.86975e-06
3.2433e-05
7.56012e-06
2.79514e-05
1.11279e-05
2.19487e-05
1.45878e-05
1.44285e-05
1.78038e-05
5.42152e-06
2.06827e-05
-5.05408e-06
2.31212e-05
-1.68329e-05
2.50543e-05
-2.97063e-05
2.64871e-05
-4.32741e-05
2.7391e-05
-5.72363e-05
2.78184e-05
-7.11707e-05
2.76438e-05
-8.47172e-05
2.68345e-05
-9.7425e-05
2.53569e-05
-0.000108954
2.32424e-05
-0.000118999
2.05707e-05
-0.000127312
1.7353e-05
-0.000133695
1.36382e-05
-0.0001379
9.4913e-06
-0.000139762
4.90867e-06
-0.000139124
-3.31221e-08
-0.000135976
-5.17562e-06
-0.000130093
-1.06325e-05
-0.000121785
-1.57874e-05
-0.000111134
-2.06022e-05
-9.85064e-05
-2.47475e-05
-8.43386e-05
-2.82332e-05
-6.8989e-05
-3.09458e-05
-5.25626e-05
-3.35155e-05
-3.44521e-05
-3.7116e-05
-1.4519e-05
-4.07311e-05
-3.04602e-05
9.74001e-06
-2.89858e-05
2.40974e-05
-4.28982e-05
3.69731e-05
-3.84638e-05
4.86848e-05
-3.49783e-05
6.01792e-05
-3.36071e-05
7.13648e-05
-3.22451e-05
8.18782e-05
-3.01857e-05
9.13761e-05
-2.71247e-05
9.95564e-05
-2.32155e-05
0.000106106
-1.85744e-05
0.000110806
-1.3343e-05
0.000113527
-7.78201e-06
0.000114376
-2.15579e-06
0.00011322
3.47741e-06
0.000110201
8.9192e-06
0.000105355
1.41096e-05
9.89309e-05
1.88383e-05
9.10305e-05
2.30459e-05
8.18844e-05
2.6613e-05
7.17466e-05
2.94361e-05
6.09112e-05
3.14663e-05
4.96823e-05
3.27135e-05
3.83618e-05
3.3091e-05
2.72648e-05
3.25795e-05
1.67347e-05
3.12224e-05
7.00544e-06
2.90491e-05
-1.70741e-06
2.61669e-05
-9.26536e-06
2.26876e-05
-1.54913e-05
1.87051e-05
-2.03139e-05
1.44005e-05
-2.35468e-05
9.76352e-06
-2.51375e-05
4.97196e-06
-2.50329e-05
1.45504e-07
-2.3346e-05
-4.59535e-06
-2.0287e-05
-9.05809e-06
-1.59423e-05
-1.31385e-05
-1.05494e-05
-1.66974e-05
-4.23004e-06
-1.96376e-05
2.76313e-06
-2.17904e-05
1.01211e-05
-2.30216e-05
1.75187e-05
-2.323e-05
2.4612e-05
-2.23458e-05
3.10708e-05
-2.04453e-05
3.6648e-05
-1.76439e-05
4.10908e-05
-1.40609e-05
4.43069e-05
-9.89891e-06
4.61078e-05
-5.17496e-06
4.62852e-05
3.30394e-08
4.46384e-05
5.51611e-06
4.11093e-05
1.10889e-05
3.56834e-05
1.65539e-05
2.85614e-05
2.17101e-05
1.98543e-05
2.65115e-05
9.69797e-06
3.08398e-05
-1.7753e-06
3.45954e-05
-1.43932e-05
3.76731e-05
-2.79524e-05
4.00472e-05
-4.21312e-05
4.15706e-05
-5.65886e-05
4.2277e-05
-7.09735e-05
4.203e-05
-8.49276e-05
4.07897e-05
-9.81019e-05
3.85318e-05
-0.000110219
3.53598e-05
-0.000120984
3.13356e-05
-0.000130122
2.6491e-05
-0.000137398
2.09137e-05
-0.000142541
1.46341e-05
-0.000145308
7.67573e-06
-0.000145467
1.2618e-07
-0.000142789
-7.85394e-06
-0.000137428
-1.59949e-05
-0.000129134
-2.40836e-05
-0.000118189
-3.15512e-05
-0.000104832
-3.81104e-05
-8.97157e-05
-4.33543e-05
-7.33424e-05
-4.73231e-05
-5.58705e-05
-5.09928e-05
-3.64863e-05
-5.65063e-05
-1.54462e-05
-6.17709e-05
-4.59098e-05
1.00622e-05
-3.90485e-05
2.50753e-05
-5.79117e-05
3.85517e-05
-5.19405e-05
5.07603e-05
-4.71872e-05
6.26518e-05
-4.5499e-05
7.4353e-05
-4.39464e-05
8.55556e-05
-4.13883e-05
9.5841e-05
-3.74099e-05
0.000104621
-3.19947e-05
0.000111578
-2.55313e-05
0.000116541
-1.83052e-05
0.000119437
-1.06785e-05
0.000120165
-2.88243e-06
0.000118781
4.86154e-06
0.000115348
1.23539e-05
0.000109987
1.9471e-05
0.000102875
2.59508e-05
9.42248e-05
3.16971e-05
8.42628e-05
3.65756e-05
7.32581e-05
4.04416e-05
6.15079e-05
4.32174e-05
4.93374e-05
4.4885e-05
3.70486e-05
4.53808e-05
2.49503e-05
4.46789e-05
1.33647e-05
4.2809e-05
2.57436e-06
3.98403e-05
-7.15796e-06
3.58997e-05
-1.561e-05
3.11398e-05
-2.25838e-05
2.56788e-05
-2.78722e-05
1.96887e-05
-3.14152e-05
1.3306e-05
-3.32248e-05
6.78089e-06
-3.32537e-05
1.73263e-07
-3.15327e-05
-6.31757e-06
-2.81078e-05
-1.24841e-05
-2.30525e-05
-1.81948e-05
-1.64831e-05
-2.32679e-05
-8.65555e-06
-2.7466e-05
1.94798e-07
-3.06415e-05
9.65088e-06
-3.24785e-05
1.92522e-05
-3.28326e-05
2.84403e-05
-3.15354e-05
3.67835e-05
-2.87898e-05
4.39008e-05
-2.47621e-05
4.95276e-05
-1.96881e-05
5.34224e-05
-1.37936e-05
5.55054e-05
-7.25757e-06
5.56612e-05
-1.22376e-07
5.38268e-05
7.35055e-06
4.99578e-05
1.49578e-05
4.40336e-05
2.24779e-05
3.61746e-05
2.9569e-05
2.65526e-05
3.61334e-05
1.53304e-05
4.20618e-05
2.7376e-06
4.71878e-05
-1.1023e-05
5.14334e-05
-2.55865e-05
5.46106e-05
-4.077e-05
5.67541e-05
-5.62151e-05
5.77221e-05
-7.15861e-05
5.7401e-05
-8.65287e-05
5.57318e-05
-0.000100743
5.27448e-05
-0.000113913
4.85295e-05
-0.000125715
4.31368e-05
-0.000135835
3.66107e-05
-0.000143946
2.90253e-05
-0.000149787
2.04739e-05
-0.000153112
1.1e-05
-0.000153703
7.16878e-07
-0.000151338
-1.0221e-05
-0.000145777
-2.15576e-05
-0.000137126
-3.27366e-05
-0.0001252
-4.34799e-05
-0.000110739
-5.25722e-05
-9.4557e-05
-5.95358e-05
-7.71505e-05
-6.47305e-05
-5.85609e-05
-6.95851e-05
-3.80956e-05
-7.69708e-05
-1.60128e-05
-8.38523e-05
-6.19246e-05
9.96334e-06
-4.90121e-05
2.54963e-05
-7.34446e-05
3.95081e-05
-6.59525e-05
5.21444e-05
-5.98234e-05
6.46873e-05
-5.80419e-05
7.73741e-05
-5.66331e-05
8.97861e-05
-5.38001e-05
0.000101197
-4.88202e-05
0.000111027
-4.18249e-05
0.000118755
-3.32587e-05
0.000124217
-2.3767e-05
0.000127312
-1.37728e-05
0.000128024
-3.59422e-06
0.000126428
6.45779e-06
0.0001226
1.61827e-05
0.000116631
2.54403e-05
0.000108754
3.3828e-05
9.92175e-05
4.12344e-05
8.82479e-05
4.75457e-05
7.6137e-05
5.2553e-05
6.32162e-05
5.61386e-05
4.98364e-05
5.82651e-05
3.63578e-05
5.88597e-05
2.31274e-05
5.79096e-05
1.04828e-05
5.54541e-05
-1.24735e-06
5.15709e-05
-1.17921e-05
4.64448e-05
-2.08827e-05
4.02307e-05
-2.83254e-05
3.31217e-05
-3.39464e-05
2.53098e-05
-3.77285e-05
1.70883e-05
-3.95691e-05
8.62185e-06
-3.95355e-05
1.40022e-07
-3.7643e-05
-8.20976e-06
-3.38416e-05
-1.6285e-05
-2.81946e-05
-2.38412e-05
-2.08259e-05
-3.06361e-05
-1.18874e-05
-3.64044e-05
-1.72692e-06
-4.08021e-05
9.23168e-06
-4.34376e-05
2.04263e-05
-4.40278e-05
3.1136e-05
-4.22456e-05
4.08303e-05
-3.84843e-05
4.90723e-05
-3.30043e-05
5.55745e-05
-2.61906e-05
6.01692e-05
-1.83885e-05
6.26889e-05
-9.77779e-06
6.31176e-05
-5.51533e-07
6.13431e-05
9.12447e-06
5.73429e-05
1.89574e-05
5.11504e-05
2.86698e-05
4.28501e-05
3.78688e-05
3.25759e-05
4.64072e-05
2.05704e-05
5.40668e-05
7.03257e-06
6.07249e-05
-7.77294e-06
6.62381e-05
-2.35813e-05
7.04178e-05
-4.00185e-05
7.319e-05
-5.67338e-05
7.44362e-05
-7.33976e-05
7.40641e-05
-8.96515e-05
7.19853e-05
-0.000105155
6.82476e-05
-0.000119565
6.294e-05
-0.000132532
5.61031e-05
-0.000143717
4.77956e-05
-0.00015281
3.81176e-05
-0.000159518
2.71808e-05
-0.000163567
1.50482e-05
-0.000164672
1.82207e-06
-0.000162598
-1.2295e-05
-0.000157027
-2.7126e-05
-0.000147489
-4.22722e-05
-0.000134422
-5.65438e-05
-0.00011832
-6.86704e-05
-0.000100267
-7.75856e-05
-8.12185e-05
-8.37774e-05
-6.13787e-05
-8.94234e-05
-3.96739e-05
-9.86714e-05
-1.64798e-05
-0.000107047
-7.84027e-05
1.00029e-05
-5.9015e-05
2.59172e-05
-8.93585e-05
4.03849e-05
-8.04198e-05
5.33211e-05
-7.27593e-05
6.66757e-05
-7.13962e-05
8.07448e-05
-7.07017e-05
9.497e-05
-6.80249e-05
0.000108308
-6.21579e-05
0.000119582
-5.30987e-05
0.000128233
-4.19097e-05
0.000134275
-2.98089e-05
0.000137628
-1.71257e-05
0.00013826
-4.22579e-06
0.000136325
8.39266e-06
0.000131887
2.06218e-05
0.000125228
3.20992e-05
0.000116426
4.26296e-05
0.000105778
5.18833e-05
9.35532e-05
5.97699e-05
8.00708e-05
6.60352e-05
6.56909e-05
7.05183e-05
5.08116e-05
7.31442e-05
3.58302e-05
7.38411e-05
2.1136e-05
7.26037e-05
7.11295e-06
6.94772e-05
-5.88019e-06
6.4564e-05
-1.7484e-05
5.80487e-05
-2.74089e-05
5.01557e-05
-3.55071e-05
4.12201e-05
-4.15778e-05
3.13809e-05
-4.55813e-05
2.10924e-05
-4.74599e-05
1.05012e-05
-4.72378e-05
-8.13818e-08
-4.49347e-05
-1.05122e-05
-4.06085e-05
-2.06108e-05
-3.42473e-05
-3.02024e-05
-2.59014e-05
-3.89823e-05
-1.575e-05
-4.65564e-05
-4.01185e-06
-5.25409e-05
8.73253e-06
-5.61829e-05
2.17848e-05
-5.70811e-05
3.42755e-05
-5.47374e-05
4.55273e-05
-4.97373e-05
5.51153e-05
-4.25937e-05
6.27036e-05
-3.37806e-05
6.81346e-05
-2.38213e-05
7.12468e-05
-1.28916e-05
7.20292e-05
-1.33525e-06
7.03665e-05
1.07862e-05
6.62506e-05
2.30728e-05
5.97358e-05
3.51845e-05
5.08619e-05
4.67428e-05
3.97912e-05
5.7478e-05
2.67485e-05
6.71096e-05
1.20204e-05
7.5453e-05
-4.10899e-06
8.23676e-05
-2.13557e-05
8.76646e-05
-3.93234e-05
9.11577e-05
-5.76385e-05
9.27518e-05
-7.59021e-05
9.23287e-05
-9.37627e-05
8.98468e-05
-0.000110859
8.5345e-05
-0.000126789
7.887e-05
-0.000141186
7.05008e-05
-0.000153734
6.03438e-05
-0.000164101
4.84851e-05
-0.000172005
3.50853e-05
-0.000177035
2.00785e-05
-0.000178997
3.78391e-06
-0.000177512
-1.37788e-05
-0.000171991
-3.26459e-05
-0.000161714
-5.25484e-05
-0.000146566
-7.16909e-05
-0.000127726
-8.75102e-05
-0.00010695
-9.83623e-05
-8.58692e-05
-0.000104861
-6.4572e-05
-0.000110721
-4.15765e-05
-0.000121666
-1.70966e-05
-0.000131531
-9.5498e-05
1.03127e-05
-6.93274e-05
2.67583e-05
-0.000105803
4.14496e-05
-9.51106e-05
5.44666e-05
-8.57758e-05
6.86282e-05
-8.55572e-05
8.45134e-05
-8.65863e-05
0.000101336
-8.48467e-05
0.00011728
-7.81022e-05
0.000130482
-6.62997e-05
0.000140423
-5.18509e-05
0.000147035
-3.6421e-05
0.000150494
-2.0584e-05
0.000151099
-4.83074e-06
0.000148754
1.07371e-05
0.000143656
2.57201e-05
0.000135981
3.97744e-05
0.000126001
5.26096e-05
0.000113963
6.39207e-05
0.000100195
7.3538e-05
8.5029e-05
8.12023e-05
6.88293e-05
8.67183e-05
5.20411e-05
8.99329e-05
3.51222e-05
9.07605e-05
1.85457e-05
8.91807e-05
2.7352e-06
8.52886e-05
-1.18431e-05
7.91434e-05
-2.48112e-05
7.10179e-05
-3.58282e-05
6.11738e-05
-4.46442e-05
5.0037e-05
-5.12186e-05
3.79562e-05
-5.53989e-05
2.52733e-05
-5.72859e-05
1.23888e-05
-5.69183e-05
-4.4901e-07
-5.43018e-05
-1.31291e-05
-4.94139e-05
-2.54995e-05
-4.22342e-05
-3.73832e-05
-3.27255e-05
-4.84924e-05
-2.09302e-05
-5.83531e-05
-7.13097e-06
-6.63415e-05
7.96991e-06
-7.12851e-05
2.35533e-05
-7.26657e-05
3.84851e-05
-6.96703e-05
5.18516e-05
-6.31051e-05
6.30855e-05
-5.38289e-05
7.19395e-05
-4.26361e-05
7.82994e-05
-3.01825e-05
8.21048e-05
-1.66981e-05
8.32936e-05
-2.52494e-06
8.1771e-05
1.23083e-05
7.75169e-05
2.73265e-05
7.05494e-05
4.21518e-05
6.0961e-05
5.6331e-05
4.88954e-05
6.95433e-05
3.45832e-05
8.14216e-05
1.83533e-05
9.16829e-05
5.62089e-07
0.000100159
-1.84864e-05
0.000106714
-3.83761e-05
0.000111048
-5.86677e-05
0.000113044
-7.89466e-05
0.000112608
-9.8811e-05
0.000109712
-0.000117857
0.000104391
-0.00013565
9.66637e-05
-0.000151809
8.66608e-05
-0.000165991
7.45259e-05
-0.000177933
6.04284e-05
-0.000187194
4.43458e-05
-0.000193689
2.6573e-05
-0.000196953
7.0462e-06
-0.000196535
-1.41982e-05
-0.000191386
-3.77977e-05
-0.000180327
-6.361e-05
-0.000162707
-8.93143e-05
-0.000139894
-0.000110327
-0.000115029
-0.000123232
-9.09455e-05
-0.000128947
-6.82356e-05
-0.000133433
-4.39328e-05
-0.000145971
-1.79546e-05
-0.000157511
-0.000113455
1.06178e-05
-7.99448e-05
2.75759e-05
-0.000122761
4.24623e-05
-0.000109996
5.47695e-05
-9.80824e-05
6.95669e-05
-0.000100354
8.79016e-05
-0.00010492
0.000108417
-0.000105361
0.000128449
-9.81337e-05
0.000144494
-8.23442e-05
0.000155863
-6.32192e-05
0.000163071
-4.36295e-05
0.000166707
-2.42202e-05
0.000166963
-5.08575e-06
0.00016398
1.37194e-05
0.000157952
3.17488e-05
0.000149079
4.86472e-05
0.000137656
6.40332e-05
0.000123939
7.76379e-05
0.000108282
8.91952e-05
9.10521e-05
9.84325e-05
7.26274e-05
0.000105143
5.35122e-05
0.000109048
3.42203e-05
0.000110053
1.52917e-05
0.000108109
-2.70546e-06
0.000103286
-1.92705e-05
9.57088e-05
-3.39026e-05
8.56505e-05
-4.61914e-05
7.3463e-05
-5.58921e-05
5.97378e-05
-6.29753e-05
4.50392e-05
-6.74471e-05
2.97448e-05
-6.93894e-05
1.43309e-05
-6.88408e-05
-9.97642e-07
-6.5847e-05
-1.6123e-05
-6.03527e-05
-3.09938e-05
-5.22503e-05
-4.54856e-05
-4.13861e-05
-5.93565e-05
-2.76539e-05
-7.20851e-05
-1.13867e-05
-8.26084e-05
6.8811e-06
-8.95528e-05
2.59512e-05
-9.17358e-05
4.39699e-05
-8.7689e-05
5.98903e-05
-7.90255e-05
7.30907e-05
-6.70294e-05
8.34256e-05
-5.29712e-05
9.08583e-05
-3.76155e-05
9.54664e-05
-2.13064e-05
9.71049e-05
-4.16391e-06
9.57935e-05
1.3619e-05
9.14241e-05
3.16951e-05
8.39347e-05
4.964e-05
7.34048e-05
6.68596e-05
6.00898e-05
8.2857e-05
4.42335e-05
9.72767e-05
2.62002e-05
0.000109715
6.34538e-06
0.000120013
-1.48671e-05
0.000127926
-3.70569e-05
0.000133237
-5.97717e-05
0.000135757
-8.25291e-05
0.000135364
-0.000104833
0.000132014
-0.000126214
0.00012577
-0.000146235
0.000116683
-0.00016452
0.000104945
-0.000180735
9.07409e-05
-0.000194509
7.42012e-05
-0.000205618
5.54537e-05
-0.000213756
3.47103e-05
-0.000218779
1.20681e-05
-0.000220194
-1.27845e-05
-0.000216239
-4.17547e-05
-0.000204522
-7.53293e-05
-0.000183226
-0.000110612
-0.000154122
-0.000139432
-0.000123543
-0.000153812
-9.58346e-05
-0.000156655
-7.12453e-05
-0.000158021
-4.52949e-05
-0.000171924
-1.82318e-05
-0.000184571
-0.000131688
1.00242e-05
-8.99686e-05
2.50684e-05
-0.000137804
4.10274e-05
-0.000125955
5.3484e-05
-0.000110538
6.87487e-05
-0.000115618
9.07999e-05
-0.000126971
0.000118336
-0.000132897
0.000144182
-0.000123978
0.000163126
-0.000101288
0.000175383
-7.54758e-05
0.000182845
-5.10914e-05
0.000186499
-2.78747e-05
0.000186433
-5.01949e-06
0.000182723
1.74306e-05
0.000175518
3.89541e-05
0.000165097
5.90681e-05
0.000151853
7.72773e-05
0.000136049
9.34414e-05
0.000118077
0.000107167
9.83253e-05
0.000118184
7.72307e-05
0.000126237
5.5311e-05
0.000130967
3.3156e-05
0.000132207
1.13648e-05
0.0001299
-9.36178e-06
0.000124011
-2.83416e-05
0.000114687
-4.49289e-05
0.000102236
-5.87027e-05
8.72356e-05
-6.94289e-05
7.04632e-05
-7.70572e-05
5.26669e-05
-8.17413e-05
3.44287e-05
-8.36445e-05
1.62345e-05
-8.28504e-05
-1.79086e-06
-7.94553e-05
-1.95167e-05
-7.33366e-05
-3.7111e-05
-6.44255e-05
-5.43953e-05
-5.26038e-05
-7.11772e-05
-3.74649e-05
-8.72232e-05
-1.82384e-05
-0.000101835
5.29901e-06
-0.00011309
3.01063e-05
-0.000116544
5.22612e-05
-0.000109845
7.05914e-05
-9.73564e-05
8.54892e-05
-8.19278e-05
9.72097e-05
-6.46921e-05
0.000105858
-4.62643e-05
0.000111391
-2.68393e-05
0.000113717
-6.48988e-06
0.000112656
1.46798e-05
0.000108073
3.62771e-05
9.99156e-05
5.77975e-05
8.83697e-05
7.84051e-05
7.35612e-05
9.76652e-05
5.59543e-05
0.000114883
3.5742e-05
0.000129927
1.34739e-05
0.000142282
-1.0352e-05
0.000151752
-3.53493e-05
0.000158234
-6.09906e-05
0.000161398
-8.66889e-05
0.000161062
-0.000111898
0.000157223
-0.000136062
0.000149934
-0.000158738
0.000139359
-0.000179533
0.00012574
-0.000198083
0.00010929
-0.000214051
9.01687e-05
-0.000227226
6.86276e-05
-0.000237472
4.49545e-05
-0.000244809
1.94047e-05
-0.000249023
-8.57127e-06
-0.000248713
-4.20651e-05
-0.000238854
-8.5189e-05
-0.000212282
-0.000137182
-0.000171398
-0.000180314
-0.000129366
-0.000195842
-9.59666e-05
-0.000190052
-6.8524e-05
-0.000185462
-4.0615e-05
-0.000199832
-1.59421e-05
-0.000209242
-0.000147628
9.78146e-06
-9.97495e-05
1.66079e-05
-0.000144631
3.18103e-05
-0.000141156
4.57699e-05
-0.000124497
6.17282e-05
-0.000131575
8.98042e-05
-0.000155046
0.000130205
-0.000173298
0.000168511
-0.000162284
0.000191405
-0.000124182
0.000201482
-8.55523e-05
0.000206966
-5.65745e-05
0.000210298
-3.12059e-05
0.000210119
-4.83998e-06
0.000205608
2.19409e-05
0.000196968
4.75938e-05
0.000184744
7.1292e-05
0.0001693
9.27213e-05
0.000151038
0.000111702
0.000130322
0.000127883
0.00010758
0.000140926
8.32734e-05
0.000150543
5.79246e-05
0.000156316
3.21891e-05
0.000157943
6.89048e-06
0.000155198
-1.71843e-05
0.000148086
-3.91238e-05
0.000136627
-5.81173e-05
0.00012123
-7.3611e-05
0.00010273
-8.53719e-05
8.22246e-05
-9.34951e-05
6.07904e-05
-9.82267e-05
3.91604e-05
-9.98594e-05
1.78673e-05
-9.86391e-05
-3.01154e-06
-9.47569e-05
-2.33997e-05
-8.85236e-05
-4.33452e-05
-8.01647e-05
-6.27553e-05
-6.91131e-05
-8.22298e-05
-5.30473e-05
-0.00010329
-2.91586e-05
-0.000125724
2.8403e-06
-0.00014509
3.70184e-05
-0.000150722
6.57569e-05
-0.000138583
8.67288e-05
-0.000118328
0.000101861
-9.70599e-05
0.000113706
-7.65364e-05
0.000123196
-5.57541e-05
0.000129853
-3.3495e-05
0.000133111
-9.74804e-06
0.000132463
1.53287e-05
0.00012764
4.11009e-05
0.000118742
6.66962e-05
0.000105809
9.13379e-05
8.92348e-05
0.00011424
6.9379e-05
0.000134739
4.68652e-05
0.000152441
2.18555e-05
0.000167292
-5.17442e-06
0.000178782
-3.35579e-05
0.000186619
-6.27022e-05
0.000190543
-9.19211e-05
0.000190282
-0.00012055
0.000185853
-0.000148012
0.000177396
-0.000173802
0.000165149
-0.000197471
0.000149409
-0.000218654
0.000130472
-0.000237028
0.000108542
-0.000252214
8.38125e-05
-0.000264302
5.70412e-05
-0.000274624
2.97265e-05
-0.000286677
3.48303e-06
-0.000298227
-3.05141e-05
-0.00029537
-8.80456e-05
-0.000260133
-0.000172415
-0.000195457
-0.000244981
-0.000128416
-0.000262883
-8.1708e-05
-0.000236762
-5.11437e-05
-0.000216028
-2.56063e-05
-0.000225369
-1.00354e-05
-0.000224817
-0.000157664
1.41479e-05
-0.000113897
8.28865e-06
-0.000138755
1.31107e-05
-0.000145977
2.42458e-05
-0.000135631
3.62115e-05
-0.000143541
7.06699e-05
-0.000189504
0.000129169
-0.000231796
0.000188755
-0.00022187
0.000225981
-0.000161406
0.000237026
-9.65979e-05
0.000236868
-5.64161e-05
0.000236633
-3.09712e-05
0.000235593
-3.79968e-06
0.000230459
2.70748e-05
0.000220643
5.741e-05
0.000206918
8.5017e-05
0.000189734
0.000109906
0.000169186
0.00013225
0.000145561
0.000151509
0.000119341
0.000167146
9.11998e-05
0.000178685
6.16788e-05
0.000185838
3.16682e-05
0.000187954
1.95704e-06
0.00018491
-2.63845e-05
0.000176429
-5.21379e-05
0.000162381
-7.41932e-05
0.000143286
-9.17813e-05
0.000120318
-0.000104586
9.50295e-05
-0.000112739
6.89435e-05
-0.000116877
4.32977e-05
-0.000117651
1.86402e-05
-0.000115842
-4.82164e-06
-0.000112127
-2.71156e-05
-0.000107417
-4.80565e-05
-0.000101484
-6.86879e-05
-9.13376e-05
-9.23758e-05
-7.18545e-05
-0.000122772
-4.06142e-05
-0.000156963
3.8672e-07
-0.000186089
4.45439e-05
-0.000194878
8.28269e-05
-0.000176865
0.000109133
-0.000144633
0.000124726
-0.000112653
0.000135072
-8.68817e-05
0.000143537
-6.42197e-05
0.000150626
-4.05844e-05
0.000154891
-1.40126e-05
0.000155111
1.51087e-05
0.000150444
4.57681e-05
0.000140747
7.63938e-05
0.000126143
0.000105942
0.000107326
0.000133057
8.48971e-05
0.000157168
5.93407e-05
0.000177998
3.11768e-05
0.000195455
6.37011e-07
0.000209321
-3.18564e-05
0.000219111
-6.51977e-05
0.000223884
-9.86194e-05
0.000223703
-0.000131211
0.000218444
-0.000162204
0.000208389
-0.000191077
0.000194022
-0.000217339
0.000175671
-0.00024085
0.000153983
-0.00026127
0.000128962
-0.000277939
0.000100483
-0.000292279
7.13821e-05
-0.000309901
4.73495e-05
-0.000335603
2.91856e-05
-0.000356989
-9.12833e-06
-0.00035221
-9.28213e-05
-0.000305884
-0.00021873
-0.000224837
-0.000326032
-0.0001293
-0.000358414
-5.58496e-05
-0.00031021
-1.92189e-05
-0.000252659
-5.29228e-06
-0.000239294
-5.18561e-06
-0.000224923
-0.000162849
3.24452e-05
-0.000146344
1.94544e-05
-0.000125786
-4.42605e-06
-0.000122094
-1.16448e-05
-0.000128411
-1.35284e-05
-0.000141657
1.30557e-05
-0.000216088
7.08308e-05
-0.000289571
0.000142384
-0.000293424
0.000210831
-0.000229853
0.000254982
-0.000140749
0.000268003
-6.94372e-05
0.000265827
-2.87949e-05
0.000260328
1.69873e-06
0.000252923
3.44798e-05
0.00024177
6.85627e-05
0.000227207
9.95795e-05
0.000209411
0.000127701
0.000187617
0.000154044
0.000161368
0.000177756
0.000131319
0.000197193
9.85287e-05
0.000211474
6.43518e-05
0.000220013
2.94508e-05
0.000222853
-5.45528e-06
0.000219815
-3.93001e-05
0.000210272
-7.03914e-05
0.000193471
-9.67595e-05
0.000169653
-0.000116781
0.000140339
-0.000130127
0.000108376
-0.000137333
7.61504e-05
-0.000139554
4.55201e-05
-0.000138476
1.75642e-05
-0.000135783
-7.51354e-06
-0.000132864
-3.00323e-05
-0.000129916
-5.1003e-05
-0.000124246
-7.43566e-05
-0.000109544
-0.000107077
-8.19336e-05
-0.000150383
-4.42386e-05
-0.000194658
1.63665e-08
-0.000230345
4.78909e-05
-0.000242754
9.38973e-05
-0.000222873
0.000129467
-0.000180204
0.000150462
-0.000133648
0.000161198
-9.7618e-05
0.000168406
-7.14269e-05
0.000174939
-4.71175e-05
0.000179941
-1.90143e-05
0.000181327
1.37224e-05
0.000177375
4.97196e-05
0.000167328
8.64405e-05
0.000151318
0.000121953
0.000130002
0.000154374
0.000104446
0.000182724
7.54826e-05
0.000206962
4.3634e-05
0.000227304
9.23365e-06
0.000243723
-2.73528e-05
0.000255698
-6.56621e-05
0.000262194
-0.000104161
0.000262203
-0.000141292
0.000255575
-0.000175686
0.000242783
-0.000206674
0.00022501
-0.000234596
0.000203594
-0.000259912
0.000179299
-0.000282331
0.000151382
-0.000301644
0.000119796
-0.000319679
8.94174e-05
-0.000338858
6.65271e-05
-0.000352093
4.2419e-05
-0.00034165
-1.95723e-05
-0.000301107
-0.000133359
-0.000243758
-0.000276085
-0.000181649
-0.000388149
-0.000106639
-0.000433429
-3.10828e-05
-0.000385762
6.70578e-06
-0.000290443
5.20698e-08
-0.000232641
-1.47554e-05
-0.000210114
-0.000177604
7.83262e-05
-0.000224672
7.33386e-05
-0.000120793
6.0935e-06
-5.48462e-05
-4.32481e-05
-7.90691e-05
-7.72921e-05
-0.000107612
-9.04421e-05
-0.000202937
-8.01615e-05
-0.000299852
-2.86e-05
-0.000344984
7.18414e-05
-0.000330294
0.000188477
-0.000257384
0.000271719
-0.000152679
0.000303396
-6.04726e-05
0.000300468
4.62639e-06
0.000284369
5.05784e-05
0.000265816
8.71157e-05
0.000246926
0.000118469
0.000226843
0.000147783
0.000203159
0.000177727
0.00017402
0.000206895
0.000139699
0.000231513
0.000102083
0.00024909
6.28147e-05
0.000259281
2.26189e-05
0.000263049
-1.81795e-05
0.000260613
-5.86504e-05
0.000250742
-9.58304e-05
0.000230651
-0.000125873
0.000199696
-0.000146884
0.000161351
-0.000159462
0.000120955
-0.000165137
8.18262e-05
-0.000165623
4.60064e-05
-0.000163019
1.4962e-05
-0.000159104
-1.14271e-05
-0.000155007
-3.41282e-05
-0.000149242
-5.67674e-05
-0.000136196
-8.74029e-05
-0.000111223
-0.00013205
-7.72748e-05
-0.000184331
-4.05627e-05
-0.00023137
8.92416e-07
-0.000271799
4.61171e-05
-0.000287978
9.1786e-05
-0.000268541
0.000134367
-0.000222785
0.000165067
-0.000164348
0.000182933
-0.000115484
0.000193649
-8.21427e-05
0.000202227
-5.56954e-05
0.000209572
-2.63606e-05
0.000213764
9.52982e-06
0.000212124
5.1359e-05
0.000202635
9.59296e-05
0.000185534
0.000139054
0.000161275
0.000178633
0.000131742
0.000212257
9.86605e-05
0.000240042
6.30283e-05
0.000262936
2.48926e-05
0.000281858
-1.60963e-05
0.000296686
-5.9693e-05
0.00030579
-0.000104066
0.000306575
-0.000146682
0.000298191
-0.000185184
0.000281284
-0.000219249
0.000259076
-0.000250306
0.000234651
-0.000279862
0.000208856
-0.000308234
0.000179755
-0.000333912
0.000145474
-0.000350703
0.000106207
-0.000342462
5.82869e-05
-0.000290279
-9.7631e-06
-0.000194868
-0.000114982
-8.59129e-05
-0.000242315
-7.71249e-06
-0.000354286
1.68306e-05
-0.000412695
6.76622e-06
-0.000423374
8.36129e-06
-0.000387354
8.02772e-06
-0.000290108
-2.99386e-05
-0.000194677
-4.68829e-05
-0.000193171
-0.000224486
0.000132211
-0.00035594
0.000170217
-0.000158348
7.17892e-05
4.36738e-05
-3.33389e-05
2.60569e-05
-0.000114425
-2.65259e-05
-0.000190581
-0.00012678
-0.000242781
-0.000247651
-0.000232986
-0.000354779
-0.000137835
-0.000425445
2.51459e-05
-0.000420365
0.000201481
-0.000329014
0.000327193
-0.000186184
0.0003741
-4.22788e-05
0.000361459
6.32204e-05
0.000325018
0.000123557
0.00028816
0.000155328
0.000256048
0.000179895
0.000224878
0.000208898
0.000190454
0.000241318
0.000151904
0.000270063
0.000110083
0.00029091
6.57987e-05
0.000303564
1.94683e-05
0.000309378
-2.85016e-05
0.000308581
-7.56273e-05
0.000297868
-0.000116724
0.000271747
-0.000146562
0.000229532
-0.000164558
0.000179345
-0.000174193
0.000130589
-0.000178493
8.61261e-05
-0.00017941
4.69222e-05
-0.000179104
1.46557e-05
-0.000175994
-1.45371e-05
-0.000168406
-4.17171e-05
-0.000153949
-7.12234e-05
-0.000129824
-0.000111526
-9.80567e-05
-0.000163816
-6.65624e-05
-0.000215824
-3.52784e-05
-0.000262653
4.71404e-06
-0.000311791
4.59438e-05
-0.000329206
8.21055e-05
-0.000304701
0.000119889
-0.000260567
0.000155167
-0.000199624
0.000182348
-0.000142663
0.000203428
-0.000103221
0.000222162
-7.44286e-05
0.000238294
-4.24911e-05
0.000248688
-8.621e-07
0.000250389
4.96587e-05
0.000241118
0.0001052
0.000220375
0.000159797
0.00019055
0.000208458
0.000155236
0.00024757
0.000117277
0.000278
7.80186e-05
0.000302193
3.65307e-05
0.000323344
-8.75491e-06
0.00034197
-5.74687e-05
0.000354502
-0.000107844
0.000356949
-0.000156559
0.000346904
-0.00020212
0.000326844
-0.000244886
0.00030184
-0.000287252
0.000277016
-0.000331676
0.000253278
-0.000376758
0.000224835
-0.000408635
0.000177351
-0.000399497
9.7068e-05
-0.000320151
-2.10605e-05
-0.000164478
-0.000165438
2.49557e-05
-0.000304417
0.000187849
-0.000405208
0.000264148
-0.000430585
0.000247096
-0.000395642
0.00016192
-0.000338197
6.43319e-05
-0.000289779
-1.55119e-05
-0.000210267
-8.5554e-05
-0.000124632
-8.29032e-05
-0.000195697
-0.000307092
0.000168574
-0.000524413
0.000259554
-0.000249159
0.000171901
0.000131723
3.65376e-05
0.00016142
-7.50293e-05
8.50413e-05
-0.000178491
-2.33178e-05
-0.00025619
-0.000169952
-0.000273909
-0.00033706
-0.000208223
-0.000491131
-7.3047e-05
-0.00055554
0.000101691
-0.000503752
0.000283335
-0.000367828
0.000416202
-0.000175146
0.000459183
2.024e-05
0.000431966
0.000150773
0.000377324
0.000209969
0.000323162
0.000234056
0.00027576
0.000256298
0.000232221
0.000284856
0.000189133
0.00031315
0.000143437
0.000336604
9.2925e-05
0.000354076
3.74215e-05
0.000364881
-2.12132e-05
0.000367215
-7.81848e-05
0.000354838
-0.000126296
0.000319856
-0.000160454
0.00026369
-0.000181382
0.000200272
-0.000190717
0.000139923
-0.000188216
8.36243e-05
-0.0001794
3.81056e-05
-0.000174394
9.6487e-06
-0.000171861
-1.7071e-05
-0.00016219
-5.13876e-05
-0.000140758
-9.2654e-05
-0.000110616
-0.000141667
-7.94904e-05
-0.000194941
-5.14119e-05
-0.000243901
-1.72908e-05
-0.000296772
2.52948e-05
-0.000354374
5.98159e-05
-0.000363725
7.90356e-05
-0.000323918
9.75168e-05
-0.000279046
0.00012411
-0.000226215
0.000154195
-0.000172745
0.000187073
-0.000136097
0.000222237
-0.00010959
0.00025235
-7.26018e-05
0.000269565
-1.80761e-05
0.000270609
4.86163e-05
0.000256013
0.000119796
0.000227398
0.000188411
0.000189372
0.000246484
0.00014763
0.000289312
0.000105893
0.000319736
6.34129e-05
0.000344673
1.73468e-05
0.00036941
-3.35479e-05
0.000392864
-8.81803e-05
0.000409133
-0.000143895
0.000412662
-0.000198832
0.000401839
-0.000253378