/*--------------------------------*- C++ -*----------------------------------*\
| =========                 |                                                 |
| \\      /  F ield         | OpenFOAM: The Open Source CFD Toolbox           |
|  \\    /   O peration     | Version:  2412                                  |
|   \\  /    A nd           | Website:  www.openfoam.com                      |
|    \\/     M anipulation  |                                                 |
\*---------------------------------------------------------------------------*/
FoamFile
{
    version     2.0;
    format      ascii;
    arch        "LSB;label=32;scalar=64";
    class       volVectorField;
    location    "9.75";
    object      U;
}
// * * * * * * * * * * * * * * * * * * * * * * * * * * * * * * * * * * * * * //

dimensions      [0 1 -1 0 0 0 0];

internalField   nonuniform List<vector> 
6400
(
(0.000631045 -0.00114687 0)
(0.00348981 -0.00162447 0)
(0.00647478 -0.001475 0)
(0.00890286 -0.00129765 0)
(0.0112462 -0.00117449 0)
(0.0134432 -0.0010682 0)
(0.0154791 -0.000947804 0)
(0.0172939 -0.000808422 0)
(0.0188858 -0.000656258 0)
(0.0201969 -0.00048901 0)
(0.0211936 -0.00032935 0)
(0.0218647 -0.000158945 0)
(0.0221956 1.82965e-05 0)
(0.0221691 0.000186834 0)
(0.0217977 0.000348886 0)
(0.0210971 0.000492227 0)
(0.0201039 0.000620047 0)
(0.0188518 0.000730756 0)
(0.0173627 0.000828748 0)
(0.0156727 0.000917977 0)
(0.0138158 0.000999048 0)
(0.0118243 0.00107387 0)
(0.00972924 0.00114313 0)
(0.00756776 0.00121057 0)
(0.00538159 0.00126794 0)
(0.00319842 0.00128614 0)
(0.00110551 0.00125934 0)
(-0.000817778 0.00114432 0)
(-0.0025089 0.000970417 0)
(-0.0038846 0.000753748 0)
(-0.00492331 0.000533294 0)
(-0.00562742 0.0003275 0)
(-0.0059945 0.000110696 0)
(-0.00600189 -0.00015167 0)
(-0.00563295 -0.000451218 0)
(-0.00487182 -0.000740309 0)
(-0.0037431 -0.00101794 0)
(-0.00231883 -0.00124411 0)
(-0.000644538 -0.00142172 0)
(0.00120328 -0.00152369 0)
(0.00312217 -0.00154952 0)
(0.00501871 -0.00149322 0)
(0.00679138 -0.00135939 0)
(0.00834267 -0.00114616 0)
(0.00958138 -0.000877076 0)
(0.0104469 -0.000552073 0)
(0.01089 -0.000202328 0)
(0.0108684 0.000133376 0)
(0.0104 0.000421407 0)
(0.00952697 0.00067515 0)
(0.00826051 0.00090202 0)
(0.00662974 0.00112265 0)
(0.00465183 0.00130501 0)
(0.00237242 0.00142824 0)
(-0.00011492 0.00147892 0)
(-0.00271211 0.00147612 0)
(-0.00536172 0.00144236 0)
(-0.00804146 0.00140804 0)
(-0.0107159 0.00137209 0)
(-0.0133442 0.0013334 0)
(-0.0159063 0.00128106 0)
(-0.0183477 0.00122158 0)
(-0.0206071 0.00113806 0)
(-0.0226465 0.00102893 0)
(-0.0244206 0.000888023 0)
(-0.0258843 0.000716022 0)
(-0.0269647 0.000522325 0)
(-0.027623 0.000307823 0)
(-0.0278623 7.07629e-05 0)
(-0.0275952 -0.000181861 0)
(-0.026795 -0.000454612 0)
(-0.0254846 -0.000736318 0)
(-0.0236715 -0.00098662 0)
(-0.0214204 -0.00120892 0)
(-0.0188036 -0.00141117 0)
(-0.0158573 -0.0015803 0)
(-0.012616 -0.00175336 0)
(-0.00917965 -0.00196041 0)
(-0.00508867 -0.00213216 0)
(-0.00116881 -0.00165481 0)
(0.000390966 -0.00288859 0)
(0.00301967 -0.00430122 0)
(0.00561168 -0.00386249 0)
(0.00775578 -0.00350644 0)
(0.00992841 -0.0033142 0)
(0.0120643 -0.00314373 0)
(0.0141482 -0.0029406 0)
(0.0160956 -0.00263916 0)
(0.017899 -0.00227214 0)
(0.0194626 -0.00184242 0)
(0.0207289 -0.00137722 0)
(0.0216669 -0.0008658 0)
(0.0222461 -0.000336601 0)
(0.0224663 0.000188091 0)
(0.0223357 0.000698567 0)
(0.0218321 0.00118267 0)
(0.0209757 0.00163947 0)
(0.0197998 0.0020384 0)
(0.018335 0.0023853 0)
(0.0166349 0.00267267 0)
(0.0147585 0.00290007 0)
(0.0127645 0.00306796 0)
(0.0107161 0.00316407 0)
(0.00868466 0.00318941 0)
(0.00673959 0.00314636 0)
(0.00494823 0.00301141 0)
(0.00335164 0.0027985 0)
(0.00196272 0.0024901 0)
(0.00078422 0.00211166 0)
(-0.00018685 0.0016772 0)
(-0.000936077 0.00121719 0)
(-0.00144485 0.000746212 0)
(-0.00168918 0.0002824 0)
(-0.00167688 -0.000199565 0)
(-0.00144806 -0.000699203 0)
(-0.00103213 -0.00115757 0)
(-0.00046258 -0.0015739 0)
(0.000224462 -0.00191667 0)
(0.00100173 -0.00216608 0)
(0.00185886 -0.00231867 0)
(0.00272905 -0.00234641 0)
(0.00356875 -0.00224211 0)
(0.00434595 -0.00202445 0)
(0.00501216 -0.0016912 0)
(0.00554909 -0.00127555 0)
(0.00592696 -0.000768475 0)
(0.00612853 -0.000217191 0)
(0.00610778 0.000358154 0)
(0.00583128 0.00092276 0)
(0.00525861 0.0014754 0)
(0.00437735 0.00200421 0)
(0.00321862 0.00251442 0)
(0.00177733 0.00296438 0)
(6.85145e-05 0.00333987 0)
(-0.00190713 0.00362645 0)
(-0.00413653 0.00382713 0)
(-0.00657088 0.00394741 0)
(-0.00915853 0.00400508 0)
(-0.011831 0.00400296 0)
(-0.0145091 0.00393049 0)
(-0.0171229 0.00377434 0)
(-0.0195902 0.00353882 0)
(-0.021838 0.00321735 0)
(-0.023809 0.00282381 0)
(-0.0254544 0.00235305 0)
(-0.026734 0.00181329 0)
(-0.0276044 0.00121845 0)
(-0.0280407 0.000559643 0)
(-0.0280141 -0.000154492 0)
(-0.0274938 -0.000892361 0)
(-0.0264757 -0.00167161 0)
(-0.0249744 -0.00241368 0)
(-0.0230087 -0.00309327 0)
(-0.0206468 -0.00367909 0)
(-0.0179487 -0.00418765 0)
(-0.0150103 -0.00458394 0)
(-0.0118821 -0.00496576 0)
(-0.00860909 -0.00549099 0)
(-0.004731 -0.00602338 0)
(-0.000949797 -0.0045164 0)
(0.000479649 -0.00462055 0)
(0.0032975 -0.0069625 0)
(0.00608305 -0.00625359 0)
(0.00837243 -0.00571406 0)
(0.0106774 -0.00550246 0)
(0.0129071 -0.00530364 0)
(0.0150968 -0.00502357 0)
(0.0171435 -0.00457421 0)
(0.0189794 -0.00399356 0)
(0.0205324 -0.00329615 0)
(0.0217579 -0.00249838 0)
(0.0226369 -0.00163477 0)
(0.0231364 -0.000746256 0)
(0.0232481 0.000153971 0)
(0.0229948 0.00103192 0)
(0.0223888 0.00187845 0)
(0.0214351 0.00267393 0)
(0.0201666 0.00338464 0)
(0.0186266 0.00400076 0)
(0.0168508 0.00450173 0)
(0.0148907 0.00488086 0)
(0.0128011 0.00513902 0)
(0.0106402 0.00525572 0)
(0.00847406 0.00522465 0)
(0.00635441 0.00505598 0)
(0.0043412 0.0047483 0)
(0.00249602 0.00431656 0)
(0.000841621 0.00379375 0)
(-0.000593506 0.00319896 0)
(-0.00177767 0.00254283 0)
(-0.00268858 0.00183882 0)
(-0.00328783 0.00109898 0)
(-0.00355344 0.000349983 0)
(-0.00351297 -0.000396244 0)
(-0.00318516 -0.00109836 0)
(-0.00259628 -0.0017384 0)
(-0.00178879 -0.00229296 0)
(-0.00078469 -0.00274773 0)
(0.000367132 -0.00306486 0)
(0.00161854 -0.00325238 0)
(0.00291328 -0.00327447 0)
(0.00417257 -0.00312588 0)
(0.00533806 -0.00282049 0)
(0.00633713 -0.00237654 0)
(0.00714004 -0.00180455 0)
(0.00770633 -0.00113932 0)
(0.00801133 -0.000383341 0)
(0.0080243 0.000447945 0)
(0.00771004 0.00130918 0)
(0.00703221 0.00217502 0)
(0.00598633 0.00301473 0)
(0.00460873 0.00380521 0)
(0.00292015 0.00453967 0)
(0.000965905 0.00519642 0)
(-0.00122837 0.00575529 0)
(-0.00364027 0.00619472 0)
(-0.00622629 0.00651089 0)
(-0.00893691 0.0066844 0)
(-0.0117085 0.00673024 0)
(-0.014471 0.00662359 0)
(-0.0171567 0.00635844 0)
(-0.0196984 0.00593106 0)
(-0.0220351 0.00536014 0)
(-0.0241221 0.00466374 0)
(-0.0259135 0.00385006 0)
(-0.0273557 0.00292997 0)
(-0.0284058 0.00191349 0)
(-0.0290264 0.0007971 0)
(-0.0291588 -0.000399256 0)
(-0.028784 -0.0016514 0)
(-0.027871 -0.00292873 0)
(-0.0264118 -0.00416293 0)
(-0.0244141 -0.00529327 0)
(-0.0219293 -0.0062823 0)
(-0.0190711 -0.00708381 0)
(-0.0159655 -0.00769578 0)
(-0.0126432 -0.00826479 0)
(-0.00913529 -0.00913399 0)
(-0.00501023 -0.0100042 0)
(-0.00103343 -0.00736834 0)
(0.000493371 -0.00661215 0)
(0.00338911 -0.00989515 0)
(0.00630651 -0.00888816 0)
(0.00868057 -0.00809657 0)
(0.0110574 -0.00783026 0)
(0.0133958 -0.00759467 0)
(0.0157153 -0.00719247 0)
(0.0179024 -0.00655677 0)
(0.0198626 -0.00570291 0)
(0.0215289 -0.00467806 0)
(0.022837 -0.00351766 0)
(0.023753 -0.00227312 0)
(0.0242582 -0.00100222 0)
(0.0243523 0.00027952 0)
(0.024043 0.00152952 0)
(0.0233465 0.00273615 0)
(0.0222887 0.00385112 0)
(0.0208976 0.0048603 0)
(0.0192148 0.00573693 0)
(0.0172831 0.00645555 0)
(0.0151544 0.007001 0)
(0.0128891 0.00737 0)
(0.0105458 0.00754441 0)
(0.00818937 0.00751747 0)
(0.00586906 0.00729425 0)
(0.00364236 0.00688535 0)
(0.00157814 0.00630134 0)
(-0.000276776 0.00556573 0)
(-0.0018819 0.00470083 0)
(-0.00319824 0.0037365 0)
(-0.00418845 0.00268732 0)
(-0.00483623 0.00160111 0)
(-0.00514867 0.000496987 0)
(-0.00512675 -0.000595786 0)
(-0.00476701 -0.00161934 0)
(-0.00408258 -0.00256854 0)
(-0.00309078 -0.00340328 0)
(-0.00182056 -0.00408945 0)
(-0.000324009 -0.00459036 0)
(0.00132181 -0.00487491 0)
(0.00304912 -0.00490906 0)
(0.00474953 -0.00468135 0)
(0.00631128 -0.0042119 0)
(0.00765696 -0.00352419 0)
(0.00872106 -0.00266604 0)
(0.00946038 -0.00167559 0)
(0.0098638 -0.000572373 0)
(0.00987871 0.000634336 0)
(0.00951535 0.00189135 0)
(0.00877909 0.003158 0)
(0.00764532 0.00439041 0)
(0.00614106 0.00553367 0)
(0.00428233 0.00657208 0)
(0.00211361 0.00748711 0)
(-0.000312701 0.0082553 0)
(-0.00294289 0.00886232 0)
(-0.00574135 0.00929714 0)
(-0.00865772 0.00954584 0)
(-0.0116188 0.00960389 0)
(-0.0145665 0.00944755 0)
(-0.0174341 0.00907012 0)
(-0.0201628 0.00847684 0)
(-0.0226966 0.00769011 0)
(-0.0249782 0.00672279 0)
(-0.0269489 0.0055853 0)
(-0.0285534 0.00428713 0)
(-0.029746 0.00284693 0)
(-0.0304794 0.00127035 0)
(-0.0307001 -0.000427488 0)
(-0.0303768 -0.00223777 0)
(-0.0294906 -0.00407436 0)
(-0.0279812 -0.00588542 0)
(-0.0258389 -0.00758694 0)
(-0.023159 -0.00904806 0)
(-0.0200774 -0.0101848 0)
(-0.0167433 -0.0110177 0)
(-0.0132133 -0.0118221 0)
(-0.00951772 -0.0130623 0)
(-0.00517907 -0.0142547 0)
(-0.00105486 -0.0104546 0)
(0.000435331 -0.00851564 0)
(0.00338991 -0.0128621 0)
(0.00641765 -0.0115529 0)
(0.00886514 -0.0105152 0)
(0.0113099 -0.0102203 0)
(0.0137943 -0.00999668 0)
(0.0163282 -0.00954 0)
(0.0187738 -0.00874551 0)
(0.0209696 -0.00762154 0)
(0.022811 -0.00624101 0)
(0.0242464 -0.00469076 0)
(0.0252391 -0.00304065 0)
(0.0257723 -0.00133875 0)
(0.0258577 0.000375569 0)
(0.0255095 0.00204527 0)
(0.0247312 0.00365698 0)
(0.0235523 0.00514143 0)
(0.0220131 0.00647968 0)
(0.0201565 0.00764002 0)
(0.0180302 0.00859195 0)
(0.0156881 0.009314 0)
(0.0131967 0.00979506 0)
(0.010622 0.0100184 0)
(0.00803274 0.0099761 0)
(0.00549343 0.00966866 0)
(0.00307041 0.00910946 0)
(0.000830727 0.0083247 0)
(-0.00117737 0.00734335 0)
(-0.0028994 0.00619167 0)
(-0.00430235 0.00490696 0)
(-0.00535517 0.00353187 0)
(-0.00603966 0.00210224 0)
(-0.00636985 0.000650082 0)
(-0.00633087 -0.000781138 0)
(-0.0059216 -0.00216479 0)
(-0.00514957 -0.00345474 0)
(-0.00401887 -0.0046019 0)
(-0.00255861 -0.00556508 0)
(-0.00082061 -0.00629311 0)
(0.00110096 -0.0067077 0)
(0.00314019 -0.00678081 0)
(0.00515355 -0.00645546 0)
(0.00700173 -0.00579467 0)
(0.00858371 -0.00483888 0)
(0.00984008 -0.0036561 0)
(0.0107254 -0.00229565 0)
(0.0112279 -0.000810177 0)
(0.0113072 0.000785036 0)
(0.0109542 0.00243908 0)
(0.0101914 0.00410614 0)
(0.00900479 0.00573859 0)
(0.00740989 0.00725661 0)
(0.00543639 0.00863762 0)
(0.00312227 0.00985823 0)
(0.00051458 0.0108849 0)
(-0.00232912 0.0117039 0)
(-0.00535647 0.012279 0)
(-0.00850642 0.0126145 0)
(-0.0117092 0.0126886 0)
(-0.0148987 0.012485 0)
(-0.0180084 0.0119944 0)
(-0.0209773 0.0112292 0)
(-0.0237415 0.010212 0)
(-0.0262395 0.0089538 0)
(-0.0284134 0.00746387 0)
(-0.0302027 0.00575972 0)
(-0.0315542 0.00386393 0)
(-0.0324178 0.00178325 0)
(-0.0327522 -0.000459747 0)
(-0.032515 -0.0028412 0)
(-0.0316371 -0.00530539 0)
(-0.0300615 -0.00777011 0)
(-0.0277209 -0.0100935 0)
(-0.0247195 -0.0120657 0)
(-0.0212779 -0.0135411 0)
(-0.0176029 -0.0145737 0)
(-0.0138194 -0.0155606 0)
(-0.0099025 -0.0171703 0)
(-0.0053338 -0.0186552 0)
(-0.00103279 -0.0135591 0)
(0.000371667 -0.0104032 0)
(0.0034131 -0.0159058 0)
(0.00650571 -0.0143267 0)
(0.00901264 -0.0130165 0)
(0.0115433 -0.0127649 0)
(0.0142342 -0.012631 0)
(0.0170744 -0.0121803 0)
(0.0198854 -0.0112188 0)
(0.0224262 -0.00977125 0)
(0.0245238 -0.00796286 0)
(0.0261065 -0.00596183 0)
(0.0271836 -0.00383831 0)
(0.0277566 -0.00164806 0)
(0.0278187 0.000524226 0)
(0.0274027 0.00265377 0)
(0.0265159 0.00469081 0)
(0.0251883 0.00657745 0)
(0.0234696 0.00827444 0)
(0.0213996 0.00974704 0)
(0.0190334 0.0109605 0)
(0.0164271 0.011878 0)
(0.0136546 0.0124831 0)
(0.0107925 0.0127608 0)
(0.00791436 0.0127004 0)
(0.00509096 0.0123035 0)
(0.00240368 0.0115898 0)
(-7.30336e-05 0.0105833 0)
(-0.00228256 0.00932058 0)
(-0.00416954 0.00785453 0)
(-0.00568825 0.00620345 0)
(-0.00681268 0.00445201 0)
(-0.00754052 0.00262148 0)
(-0.00786006 0.000778989 0)
(-0.00777859 -0.00103852 0)
(-0.00729128 -0.00281019 0)
(-0.00639161 -0.0044888 0)
(-0.00510188 -0.00600167 0)
(-0.00343412 -0.00729432 0)
(-0.00141331 -0.00829516 0)
(0.00083516 -0.0088802 0)
(0.00323783 -0.00900243 0)
(0.00563468 -0.00856593 0)
(0.00780867 -0.00767484 0)
(0.00967532 -0.00640932 0)
(0.0111658 -0.00484105 0)
(0.0122252 -0.00307659 0)
(0.012852 -0.00114914 0)
(0.0130016 0.000884491 0)
(0.012671 0.00299764 0)
(0.0118964 0.00511822 0)
(0.0106402 0.0071874 0)
(0.00892764 0.00912615 0)
(0.00680604 0.0108973 0)
(0.00429907 0.0124457 0)
(0.00146759 0.0137499 0)
(-0.00163309 0.0147924 0)
(-0.0049413 0.0155328 0)
(-0.00838187 0.015956 0)
(-0.0118849 0.0160484 0)
(-0.0153726 0.015795 0)
(-0.0187775 0.0151886 0)
(-0.0220386 0.0142446 0)
(-0.0250837 0.012982 0)
(-0.0278435 0.0114145 0)
(-0.0302624 0.00955989 0)
(-0.0322834 0.00743853 0)
(-0.0338542 0.00507531 0)
(-0.0349123 0.00247298 0)
(-0.0354082 -0.000343977 0)
(-0.0353044 -0.00335942 0)
(-0.0345032 -0.00654547 0)
(-0.0328439 -0.00981605 0)
(-0.0302362 -0.0129061 0)
(-0.0267909 -0.0155029 0)
(-0.0227897 -0.0173224 0)
(-0.0186124 -0.018491 0)
(-0.0145007 -0.0195578 0)
(-0.0103462 -0.0215202 0)
(-0.00554393 -0.0232724 0)
(-0.00101069 -0.0167629 0)
(0.000342903 -0.0122847 0)
(0.00350967 -0.0190045 0)
(0.00664267 -0.0171232 0)
(0.00911286 -0.0155232 0)
(0.0116571 -0.015455 0)
(0.0145997 -0.0155648 0)
(0.0178906 -0.0152295 0)
(0.0212715 -0.0141197 0)
(0.0243129 -0.0122385 0)
(0.0267286 -0.00991195 0)
(0.0284867 -0.00736357 0)
(0.0296643 -0.00469323 0)
(0.0302478 -0.0019795 0)
(0.0302651 0.000717004 0)
(0.0297601 0.00335335 0)
(0.0287325 0.00585949 0)
(0.0272274 0.00819139 0)
(0.0252851 0.0102837 0)
(0.0229557 0.0121033 0)
(0.0202952 0.0136058 0)
(0.0173619 0.0147449 0)
(0.0142375 0.0154938 0)
(0.011005 0.0158321 0)
(0.00775083 0.0157495 0)
(0.00456573 0.0152522 0)
(0.00153662 0.0143565 0)
(-0.00125017 0.0130889 0)
(-0.00370599 0.0115003 0)
(-0.00578819 0.00965348 0)
(-0.0074454 0.00760225 0)
(-0.0086561 0.00541864 0)
(-0.00942705 0.00316435 0)
(-0.00974149 0.000892225 0)
(-0.00962125 -0.00136984 0)
(-0.00906156 -0.00355883 0)
(-0.00804174 -0.00566266 0)
(-0.0065594 -0.00761361 0)
(-0.00461404 -0.00931088 0)
(-0.00222066 -0.0106562 0)
(0.00047234 -0.0114664 0)
(0.00336274 -0.0116454 0)
(0.00627171 -0.0110728 0)
(0.00890325 -0.00989588 0)
(0.0111387 -0.00824486 0)
(0.0128949 -0.00624697 0)
(0.0141508 -0.00401862 0)
(0.0149117 -0.00159715 0)
(0.0151543 0.00092709 0)
(0.0148586 0.00355215 0)
(0.0140413 0.00617801 0)
(0.0126989 0.00873389 0)
(0.0108536 0.0111495 0)
(0.00853462 0.0133424 0)
(0.00577841 0.0152696 0)
(0.00266662 0.0168915 0)
(-0.000751805 0.018176 0)
(-0.00440809 0.0191036 0)
(-0.00821044 0.0196322 0)
(-0.0120837 0.0197469 0)
(-0.0159483 0.0194401 0)
(-0.0197245 0.0187128 0)
(-0.0233441 0.0175799 0)
(-0.0267307 0.0160521 0)
(-0.0298109 0.0141544 0)
(-0.0325317 0.011916 0)
(-0.03483 0.00936147 0)
(-0.0366614 0.00650258 0)
(-0.0379728 0.00336153 0)
(-0.0387174 -4.63321e-05 0)
(-0.0388451 -0.00373958 0)
(-0.0382056 -0.00775307 0)
(-0.0365287 -0.0120022 0)
(-0.0335698 -0.0161486 0)
(-0.0293989 -0.0195565 0)
(-0.0245399 -0.0217498 0)
(-0.019676 -0.0228702 0)
(-0.0152153 -0.0238285 0)
(-0.0108849 -0.0260652 0)
(-0.00581502 -0.0281237 0)
(-0.00101163 -0.0200645 0)
(0.0003906 -0.0142164 0)
(0.00351438 -0.0222276 0)
(0.0068223 -0.0199272 0)
(0.00913766 -0.0179546 0)
(0.011534 -0.0182675 0)
(0.0147874 -0.0188999 0)
(0.0187478 -0.0188566 0)
(0.023006 -0.0176551 0)
(0.0267377 -0.0151766 0)
(0.0295416 -0.0121386 0)
(0.0314907 -0.00890533 0)
(0.0327191 -0.00561529 0)
(0.0333076 -0.00231251 0)
(0.0332811 0.00097502 0)
(0.0326492 0.00417251 0)
(0.0314461 0.00721181 0)
(0.0297147 0.010028 0)
(0.0274965 0.0125622 0)
(0.0248502 0.0147691 0)
(0.0218306 0.0165944 0)
(0.0185025 0.0179907 0)
(0.0149487 0.018909 0)
(0.0112614 0.0193243 0)
(0.00754759 0.0192203 0)
(0.00390867 0.0186014 0)
(0.000451684 0.0174862 0)
(-0.00270763 0.0159096 0)
(-0.00547227 0.0139334 0)
(-0.00778673 0.0116408 0)
(-0.0096031 0.00912442 0)
(-0.0109096 0.00645756 0)
(-0.0117281 0.00372648 0)
(-0.0120677 0.000981362 0)
(-0.0119103 -0.00174181 0)
(-0.0112593 -0.00441545 0)
(-0.0101097 -0.00701294 0)
(-0.00840254 -0.00947357 0)
(-0.00612776 -0.0116788 0)
(-0.00330968 -0.0134673 0)
(-4.54746e-05 -0.0145834 0)
(0.00355022 -0.0148725 0)
(0.00712099 -0.0141488 0)
(0.0103092 -0.0125944 0)
(0.0129891 -0.0104471 0)
(0.0150775 -0.00791331 0)
(0.0165688 -0.00512867 0)
(0.0174751 -0.00216723 0)
(0.0178022 0.000918424 0)
(0.0175437 0.00410154 0)
(0.0166884 0.00729079 0)
(0.015245 0.0104089 0)
(0.0132166 0.0133597 0)
(0.0106504 0.016034 0)
(0.0075985 0.018398 0)
(0.00413187 0.020373 0)
(0.000331554 0.0219378 0)
(-0.00373365 0.0230655 0)
(-0.00797803 0.0237165 0)
(-0.0123043 0.0238643 0)
(-0.016627 0.0235053 0)
(-0.0208579 0.0226439 0)
(-0.0249091 0.0212995 0)
(-0.0286997 0.0194845 0)
(-0.032161 0.0172351 0)
(-0.0352367 0.0145903 0)
(-0.037872 0.0115808 0)
(-0.0400176 0.00821145 0)
(-0.0416282 0.00452016 0)
(-0.042696 0.000513657 0)
(-0.0431914 -0.00387331 0)
(-0.042892 -0.00880426 0)
(-0.0413155 -0.0143234 0)
(-0.0379423 -0.0199561 0)
(-0.032718 -0.0245646 0)
(-0.0265371 -0.0271194 0)
(-0.020684 -0.0278978 0)
(-0.0158174 -0.0283957 0)
(-0.011239 -0.0308705 0)
(-0.00577907 -0.0332873 0)
(-0.00107592 -0.023498 0)
(0.000695178 -0.0161397 0)
(0.0028966 -0.0254767 0)
(0.00625484 -0.0228412 0)
(0.00886696 -0.0202225 0)
(0.0110081 -0.0211456 0)
(0.0146655 -0.0227414 0)
(0.0197091 -0.0234176 0)
(0.0254285 -0.0220689 0)
(0.0301233 -0.018735 0)
(0.0331943 -0.0146359 0)
(0.0352255 -0.0105513 0)
(0.0364942 -0.00656427 0)
(0.0370772 -0.00259737 0)
(0.0369786 0.00133953 0)
(0.0361974 0.00516404 0)
(0.0347639 0.00878859 0)
(0.0327406 0.0121435 0)
(0.0301839 0.0151698 0)
(0.0271467 0.0178106 0)
(0.0236889 0.0200028 0)
(0.0198823 0.021695 0)
(0.0158166 0.0228151 0)
(0.011586 0.0233264 0)
(0.00730541 0.0232041 0)
(0.00310762 0.0224486 0)
(-0.000867181 0.0210729 0)
(-0.00447796 0.0191189 0)
(-0.00760925 0.0166737 0)
(-0.0101946 0.0138562 0)
(-0.0121936 0.0107941 0)
(-0.0136102 0.00758619 0)
(-0.0144713 0.00432166 0)
(-0.0147932 0.00105197 0)
(-0.0145917 -0.00218274 0)
(-0.0138616 -0.00540216 0)
(-0.0125737 -0.00856472 0)
(-0.0107027 -0.0116127 0)
(-0.00823513 -0.0144307 0)
(-0.00503615 -0.016796 0)
(-0.000943972 -0.018423 0)
(0.00392248 -0.0189009 0)
(0.00851773 -0.0178978 0)
(0.0123159 -0.0158296 0)
(0.0153529 -0.013066 0)
(0.017723 -0.00988362 0)
(0.0194453 -0.00647331 0)
(0.0205261 -0.00290859 0)
(0.0209738 0.000811925 0)
(0.0207625 0.00463284 0)
(0.0198752 0.00848068 0)
(0.0183098 0.0122439 0)
(0.0160597 0.0157925 0)
(0.0131953 0.019036 0)
(0.00977529 0.0218955 0)
(0.00589144 0.0242769 0)
(0.00164341 0.0261602 0)
(-0.00291278 0.0275061 0)
(-0.00768151 0.0282934 0)
(-0.0125544 0.028488 0)
(-0.0174291 0.028075 0)
(-0.0221968 0.0270625 0)
(-0.0267558 0.0254739 0)
(-0.0310261 0.0233405 0)
(-0.0349384 0.0207142 0)
(-0.0384297 0.0176373 0)
(-0.0414506 0.0141379 0)
(-0.0439653 0.0102477 0)
(-0.0459396 0.00602105 0)
(-0.0473904 0.00145573 0)
(-0.0483646 -0.00359625 0)
(-0.0487671 -0.00953891 0)
(-0.0479737 -0.0167498 0)
(-0.0444685 -0.0245345 0)
(-0.0371827 -0.0308911 0)
(-0.0282225 -0.0337814 0)
(-0.0207837 -0.0336967 0)
(-0.0154449 -0.0333506 0)
(-0.0102025 -0.0361032 0)
(-0.0046579 -0.0384514 0)
(-0.00118389 -0.0267481 0)
(0.00162439 -0.0178276 0)
(0.00183415 -0.0277213 0)
(0.00374856 -0.0259449 0)
(0.00729616 -0.0226222 0)
(0.00921725 -0.0240771 0)
(0.0132072 -0.027445 0)
(0.0201901 -0.0296139 0)
(0.0289886 -0.0277926 0)
(0.0356227 -0.0227243 0)
(0.0385814 -0.017212 0)
(0.0399179 -0.0122643 0)
(0.0409885 -0.00758489 0)
(0.0416229 -0.00288162 0)
(0.0414854 0.00181366 0)
(0.0405237 0.00636402 0)
(0.0388197 0.0106506 0)
(0.0364567 0.0146099 0)
(0.0334971 0.0181791 0)
(0.0299976 0.0213033 0)
(0.0260236 0.0239132 0)
(0.021652 0.0259464 0)
(0.0169629 0.0273098 0)
(0.0120581 0.0279414 0)
(0.007082 0.0278122 0)
(0.00219474 0.0269073 0)
(-0.00242533 0.0252158 0)
(-0.00659206 0.0227918 0)
(-0.0101663 0.0197721 0)
(-0.01306 0.0163215 0)
(-0.0152381 0.0126189 0)
(-0.0167348 0.00878163 0)
(-0.0176129 0.00493443 0)
(-0.0179051 0.00109113 0)
(-0.0176353 -0.00271656 0)
(-0.0168412 -0.00650133 0)
(-0.015593 -0.0102148 0)
(-0.013923 -0.0138326 0)
(-0.0115519 -0.0173839 0)
(-0.00784646 -0.0207753 0)
(-0.00236711 -0.0235731 0)
(0.00451124 -0.0243823 0)
(0.0108364 -0.0225572 0)
(0.0155221 -0.0194629 0)
(0.0187224 -0.0158942 0)
(0.0210307 -0.012079 0)
(0.0227973 -0.00803998 0)
(0.0240618 -0.00379616 0)
(0.0246924 0.000607145 0)
(0.0245711 0.0051515 0)
(0.0236561 0.00974517 0)
(0.0219249 0.0142595 0)
(0.0194101 0.0185156 0)
(0.0161935 0.0224159 0)
(0.0123317 0.0258191 0)
(0.00794422 0.0286637 0)
(0.00314898 0.0309161 0)
(-0.00199437 0.0325309 0)
(-0.00738824 0.0334761 0)
(-0.0129174 0.0337193 0)
(-0.0184484 0.0332426 0)
(-0.0238486 0.0320531 0)
(-0.0290096 0.0301906 0)
(-0.0338417 0.0277066 0)
(-0.0382682 0.0246642 0)
(-0.0422285 0.0211163 0)
(-0.0456773 0.0171006 0)
(-0.0485606 0.0126686 0)
(-0.0508246 0.00789876 0)
(-0.0525868 0.00283523 0)
(-0.0544693 -0.00254836 0)
(-0.0571642 -0.0091096 0)
(-0.0589709 -0.018078 0)
(-0.0554388 -0.0298085 0)
(-0.0444648 -0.0400475 0)
(-0.0298426 -0.04305 0)
(-0.0182478 -0.0405803 0)
(-0.0119816 -0.0387746 0)
(-0.00625434 -0.0414821 0)
(-0.00221058 -0.0424576 0)
(-0.00117307 -0.0291232 0)
(0.00301651 -0.019662 0)
(0.00214223 -0.0275033 0)
(-2.16775e-05 -0.0283576 0)
(0.00319568 -0.0254 0)
(0.00421324 -0.0269528 0)
(0.00772459 -0.0335402 0)
(0.017194 -0.039316 0)
(0.0303335 -0.0372443 0)
(0.0413623 -0.0278482 0)
(0.0460336 -0.018801 0)
(0.0462321 -0.0131 0)
(0.0460638 -0.0084664 0)
(0.0464255 -0.00325816 0)
(0.0463098 0.0023302 0)
(0.0452383 0.00776427 0)
(0.0433301 0.0128156 0)
(0.0407269 0.0174488 0)
(0.0374469 0.0216394 0)
(0.0335051 0.0253237 0)
(0.0289671 0.0284233 0)
(0.0239257 0.0308527 0)
(0.018476 0.0325274 0)
(0.0127534 0.0333334 0)
(0.00693102 0.0332186 0)
(0.00118314 0.0321277 0)
(-0.00427024 0.0300418 0)
(-0.0091638 0.0270361 0)
(-0.0132951 0.0233047 0)
(-0.0165393 0.0190679 0)
(-0.0188698 0.014583 0)
(-0.0203515 0.0100186 0)
(-0.0211206 0.00550188 0)
(-0.0212999 0.00105684 0)
(-0.0209861 -0.00329527 0)
(-0.0203629 -0.00748997 0)
(-0.0195865 -0.0115386 0)
(-0.0184282 -0.015699 0)
(-0.0158755 -0.0205388 0)
(-0.0109266 -0.0260371 0)
(-0.00367018 -0.0308913 0)
(0.00504033 -0.0322118 0)
(0.013486 -0.02894 0)
(0.0198328 -0.0237027 0)
(0.0235283 -0.0185873 0)
(0.0255326 -0.0140373 0)
(0.0269378 -0.00960096 0)
(0.028097 -0.00484033 0)
(0.0288518 0.000255709 0)
(0.0288916 0.00562846 0)
(0.0280161 0.0111161 0)
(0.0261529 0.0165072 0)
(0.0233318 0.0216234 0)
(0.0196628 0.0262447 0)
(0.0152482 0.0302547 0)
(0.0102717 0.03361 0)
(0.00483338 0.0362847 0)
(-0.00101464 0.0382369 0)
(-0.00715606 0.0394073 0)
(-0.013459 0.0396951 0)
(-0.0197745 0.0391288 0)
(-0.0259228 0.0377221 0)
(-0.0317496 0.0355335 0)
(-0.0371432 0.0326317 0)
(-0.0420218 0.0291095 0)
(-0.0463646 0.025027 0)
(-0.0501667 0.0204163 0)
(-0.0533076 0.015316 0)
(-0.0557314 0.0099175 0)
(-0.0580522 0.00491248 0)
(-0.0621988 0.00086159 0)
(-0.0682021 -0.00498673 0)
(-0.0710135 -0.018072 0)
(-0.0652536 -0.0389972 0)
(-0.0514126 -0.0569141 0)
(-0.0328361 -0.0605381 0)
(-0.0147955 -0.0519175 0)
(-0.00497988 -0.0448749 0)
(3.05981e-05 -0.0455142 0)
(-0.000134481 -0.0437963 0)
(-0.00127989 -0.0301485 0)
(0.0050539 -0.0226834 0)
(0.00739772 -0.024881 0)
(-0.00107645 -0.026941 0)
(-0.00297365 -0.0263268 0)
(-0.00477457 -0.0281671 0)
(-0.00386267 -0.0404364 0)
(0.00472706 -0.0528524 0)
(0.0177954 -0.0525831 0)
(0.0337183 -0.0390764 0)
(0.046771 -0.0227553 0)
(0.0518941 -0.0128625 0)
(0.0519678 -0.00808321 0)
(0.051314 -0.00321 0)
(0.0506714 0.00300892 0)
(0.0493767 0.00934204 0)
(0.0473346 0.0151335 0)
(0.0447047 0.0204496 0)
(0.0413893 0.0253899 0)
(0.0371859 0.0298258 0)
(0.03207 0.0335811 0)
(0.0262407 0.0365466 0)
(0.0199141 0.0386078 0)
(0.0132813 0.0396513 0)
(0.00649379 0.0395894 0)
(-0.000331595 0.0383255 0)
(-0.00691806 0.0357959 0)
(-0.0128382 0.0320633 0)
(-0.0177243 0.0273658 0)
(-0.0213407 0.0220746 0)
(-0.0236701 0.016546 0)
(-0.0249012 0.0110889 0)
(-0.0253159 0.00585566 0)
(-0.0252296 0.000902675 0)
(-0.0249233 -0.0037261 0)
(-0.0246606 -0.0080051 0)
(-0.0242933 -0.0122943 0)
(-0.0227925 -0.0177046 0)
(-0.0186895 -0.0250787 0)
(-0.0119724 -0.0332569 0)
(-0.00383985 -0.0399157 0)
(0.00529939 -0.0418878 0)
(0.0147622 -0.0376394 0)
(0.023128 -0.0296272 0)
(0.0285466 -0.0216229 0)
(0.0310101 -0.0155046 0)
(0.0321002 -0.0106742 0)
(0.032939 -0.00579057 0)
(0.0336469 -0.000221776 0)
(0.0338766 0.00597107 0)
(0.0331592 0.0125166 0)
(0.0312761 0.0189926 0)
(0.0281781 0.0251354 0)
(0.0240035 0.0306387 0)
(0.0189633 0.0353469 0)
(0.0132705 0.0392586 0)
(0.00708733 0.0423802 0)
(0.000497643 0.0447176 0)
(-0.00645275 0.0461632 0)
(-0.0136394 0.0465566 0)
(-0.0208873 0.0458655 0)
(-0.0279407 0.0441422 0)
(-0.0344698 0.0414738 0)
(-0.0402638 0.0379994 0)
(-0.0453427 0.0338869 0)
(-0.0498889 0.0292487 0)
(-0.0539502 0.0240405 0)
(-0.0573909 0.0182822 0)
(-0.0602941 0.0127111 0)
(-0.0632896 0.00890948 0)
(-0.0670205 0.00623157 0)
(-0.0687724 -0.00178364 0)
(-0.0634407 -0.0224792 0)
(-0.051102 -0.051752 0)
(-0.0380682 -0.0753522 0)
(-0.0259115 -0.0826961 0)
(-0.0110774 -0.0703359 0)
(0.00149616 -0.0531997 0)
(0.00437415 -0.0462112 0)
(-0.00235236 -0.0415397 0)
(-0.00300888 -0.0305294 0)
(0.00963494 -0.030641 0)
(0.02092 -0.0204309 0)
(0.00664709 -0.0174357 0)
(-0.00644312 -0.0211123 0)
(-0.0142137 -0.0251505 0)
(-0.0201132 -0.043231 0)
(-0.0216295 -0.060878 0)
(-0.0173064 -0.0649183 0)
(-0.00111197 -0.0555714 0)
(0.0241152 -0.0374918 0)
(0.0462575 -0.0196434 0)
(0.0575539 -0.00865836 0)
(0.0596147 -0.00216147 0)
(0.0575376 0.0042375 0)
(0.0545319 0.0111288 0)
(0.0514454 0.0174992 0)
(0.0483202 0.0233794 0)
(0.0448005 0.0291608 0)
(0.0402901 0.0346766 0)
(0.0345553 0.0394346 0)
(0.0278632 0.0431164 0)
(0.0206125 0.0455996 0)
(0.0130579 0.0469164 0)
(0.00521307 0.0470306 0)
(-0.00289869 0.0457806 0)
(-0.0108641 0.042829 0)
(-0.0178942 0.0381016 0)
(-0.0233138 0.0319759 0)
(-0.0269649 0.0251643 0)
(-0.0291151 0.018242 0)
(-0.0301054 0.0116614 0)
(-0.0302687 0.00575887 0)
(-0.0299425 0.000581405 0)
(-0.0294922 -0.00396809 0)
(-0.0289931 -0.00829328 0)
(-0.0277048 -0.0136392 0)
(-0.024164 -0.0215698 0)
(-0.0178576 -0.0316847 0)
(-0.0107916 -0.0411404 0)
(-0.003366 -0.048581 0)
(0.00546208 -0.0513898 0)
(0.0141822 -0.0473715 0)
(0.0231415 -0.0378141 0)
(0.0306778 -0.0265628 0)
(0.0350127 -0.0176821 0)
(0.0369955 -0.0116127 0)
(0.0381943 -0.00651452 0)
(0.0392282 -0.000732365 0)
(0.0399099 0.00611264 0)
(0.0396423 0.0137648 0)
(0.0379819 0.0215899 0)
(0.0347714 0.0290462 0)
(0.0300726 0.0356287 0)
(0.0242106 0.0411553 0)
(0.0176047 0.0456498 0)
(0.0105764 0.0492156 0)
(0.0032473 0.0519397 0)
(-0.00446293 0.0537324 0)
(-0.0125792 0.0543826 0)
(-0.0209106 0.0536087 0)
(-0.0290308 0.0514037 0)
(-0.0363794 0.0479122 0)
(-0.0426842 0.0435435 0)
(-0.0481583 0.0387056 0)
(-0.0532543 0.0335708 0)
(-0.0581821 0.0278644 0)
(-0.062869 0.0215363 0)
(-0.0667494 0.0156284 0)
(-0.0675956 0.0108419 0)
(-0.0619922 0.00432651 0)
(-0.0473107 -0.01011 0)
(-0.0242928 -0.0345031 0)
(-0.0018982 -0.0614066 0)
(0.00883626 -0.0802494 0)
(0.00733195 -0.0882789 0)
(0.00285282 -0.0804586 0)
(0.00518884 -0.058851 0)
(0.00170844 -0.0413721 0)
(-0.0114508 -0.0363094 0)
(-0.0067744 -0.034277 0)
(0.0132248 -0.0512964 0)
(0.0385607 -0.0199449 0)
(0.0271806 0.00195478 0)
(-0.000110106 -0.00505687 0)
(-0.0169142 -0.0135386 0)
(-0.033622 -0.03405 0)
(-0.0497406 -0.0553854 0)
(-0.0557335 -0.0697877 0)
(-0.044696 -0.0755875 0)
(-0.0171803 -0.0680989 0)
(0.0199776 -0.0467423 0)
(0.0530267 -0.0219266 0)
(0.0713414 -0.00295386 0)
(0.0740782 0.00866941 0)
(0.0682842 0.0158613 0)
(0.0610573 0.0214534 0)
(0.0550225 0.0270764 0)
(0.0497788 0.0334117 0)
(0.0442334 0.0401061 0)
(0.0377615 0.0460458 0)
(0.0303984 0.0505192 0)
(0.0223699 0.0534854 0)
(0.0137805 0.0551879 0)
(0.00462428 0.0557172 0)
(-0.00496884 0.0546243 0)
(-0.0141755 0.051031 0)
(-0.0216473 0.0447044 0)
(-0.0266826 0.0366027 0)
(-0.0297204 0.0281063 0)
(-0.0315337 0.0198979 0)
(-0.0325229 0.0123569 0)
(-0.0331436 0.00578987 0)
(-0.0333912 0.000177823 0)
(-0.032813 -0.0047581 0)
(-0.0311132 -0.00997875 0)
(-0.0276213 -0.0173798 0)
(-0.0217706 -0.0276753 0)
(-0.0149499 -0.0385615 0)
(-0.00938124 -0.0477401 0)
(-0.0024432 -0.0563828 0)
(0.00648582 -0.0599061 0)
(0.013593 -0.0558512 0)
(0.0203693 -0.0465448 0)
(0.0280168 -0.0336352 0)
(0.0340463 -0.02211 0)
(0.0380129 -0.0141032 0)
(0.0411569 -0.00816629 0)
(0.0440633 -0.00197925 0)
(0.046226 0.00557735 0)
(0.0468542 0.0144187 0)
(0.0454516 0.023914 0)
(0.0417745 0.0330951 0)
(0.0359754 0.0412074 0)
(0.0287478 0.0478569 0)
(0.0209207 0.0529929 0)
(0.0130445 0.0568687 0)
(0.00506967 0.0598674 0)
(-0.00334728 0.0620719 0)
(-0.0123881 0.0631272 0)
(-0.0217683 0.0624394 0)
(-0.0309417 0.0596855 0)
(-0.0393819 0.0551649 0)
(-0.0470062 0.0497643 0)
(-0.0542385 0.0443811 0)
(-0.0617423 0.0392499 0)
(-0.0699721 0.0339117 0)
(-0.0778169 0.0273724 0)
(-0.0806285 0.0184167 0)
(-0.0713991 0.00524418 0)
(-0.0465574 -0.0139304 0)
(-0.00898457 -0.03878 0)
(0.0297966 -0.0625536 0)
(0.0552813 -0.0761708 0)
(0.0615445 -0.0783145 0)
(0.0493348 -0.074083 0)
(0.0245041 -0.0674484 0)
(0.00636455 -0.0496752 0)
(-0.00843723 -0.0288039 0)
(-0.0233423 -0.0324347 0)
(-0.00866873 -0.0468728 0)
(0.0149709 -0.0854395 0)
(0.0493884 -0.0363486 0)
(0.0507298 0.0221278 0)
(0.0175559 0.0211154 0)
(-0.00692158 0.00738644 0)
(-0.0291798 -0.0139437 0)
(-0.0503141 -0.0416675 0)
(-0.0602717 -0.0710175 0)
(-0.0539792 -0.0955232 0)
(-0.0335016 -0.104181 0)
(-0.00297858 -0.0914112 0)
(0.0345372 -0.060778 0)