/*--------------------------------*- C++ -*----------------------------------*\
| =========                 |                                                 |
| \\      /  F ield         | OpenFOAM: The Open Source CFD Toolbox           |
|  \\    /   O peration     | Version:  2412                                  |
|   \\  /    A nd           | Website:  www.openfoam.com                      |
|    \\/     M anipulation  |                                                 |
\*---------------------------------------------------------------------------*/
FoamFile
{
    version     2.0;
    format      ascii;
    arch        "LSB;label=32;scalar=64";
    class       volVectorField;
    location    "5.55";
    object      U;
}
// * * * * * * * * * * * * * * * * * * * * * * * * * * * * * * * * * * * * * //

dimensions      [0 1 -1 0 0 0 0];

internalField   nonuniform List<vector> 
6400
(
(-1.40707e-07 1.45889e-07 0)
(1.02159e-06 -2.50137e-07 0)
(4.05637e-06 -6.31731e-07 0)
(8.45584e-06 -8.61381e-07 0)
(1.36643e-05 -9.79699e-07 0)
(1.93261e-05 -1.03381e-06 0)
(2.5266e-05 -1.06114e-06 0)
(3.14483e-05 -1.08828e-06 0)
(3.79376e-05 -1.13215e-06 0)
(4.48639e-05 -1.20223e-06 0)
(5.23925e-05 -1.30275e-06 0)
(6.0703e-05 -1.4343e-06 0)
(6.99712e-05 -1.59504e-06 0)
(8.03577e-05 -1.78135e-06 0)
(9.19963e-05 -1.98839e-06 0)
(0.000104987 -2.21019e-06 0)
(0.000119388 -2.43983e-06 0)
(0.000135205 -2.66909e-06 0)
(0.000152388 -2.88856e-06 0)
(0.000170819 -3.08713e-06 0)
(0.000190306 -3.2522e-06 0)
(0.000210572 -3.36918e-06 0)
(0.000231245 -3.42206e-06 0)
(0.000251857 -3.39299e-06 0)
(0.000271834 -3.26351e-06 0)
(0.000290498 -3.01451e-06 0)
(0.000307074 -2.6284e-06 0)
(0.000320702 -2.08962e-06 0)
(0.000330463 -1.38813e-06 0)
(0.000335416 -5.20386e-07 0)
(0.000334649 5.06317e-07 0)
(0.00032734 1.67322e-06 0)
(0.000312832 2.9463e-06 0)
(0.000290711 4.27808e-06 0)
(0.000260875 5.60663e-06 0)
(0.000223599 6.86172e-06 0)
(0.000179559 7.96773e-06 0)
(0.00012984 8.85369e-06 0)
(7.58838e-05 9.45777e-06 0)
(1.94218e-05 9.73753e-06 0)
(-3.76469e-05 9.67164e-06 0)
(-9.33789e-05 9.26597e-06 0)
(-0.000145927 8.54933e-06 0)
(-0.000193661 7.57361e-06 0)
(-0.00023527 6.40405e-06 0)
(-0.000269824 5.11556e-06 0)
(-0.000296801 3.78098e-06 0)
(-0.000316074 2.46865e-06 0)
(-0.00032787 1.23366e-06 0)
(-0.000332701 1.18961e-07 0)
(-0.000331295 -8.48921e-07 0)
(-0.000324513 -1.65488e-06 0)
(-0.000313283 -2.29611e-06 0)
(-0.000298542 -2.77727e-06 0)
(-0.000281188 -3.11179e-06 0)
(-0.000262047 -3.31468e-06 0)
(-0.000241859 -3.40467e-06 0)
(-0.000221262 -3.39998e-06 0)
(-0.000200791 -3.31997e-06 0)
(-0.00018088 -3.18172e-06 0)
(-0.000161866 -3.00127e-06 0)
(-0.000143999 -2.79155e-06 0)
(-0.000127448 -2.56482e-06 0)
(-0.000112309 -2.33124e-06 0)
(-9.86159e-05 -2.1002e-06 0)
(-8.63453e-05 -1.87905e-06 0)
(-7.54265e-05 -1.67455e-06 0)
(-6.57484e-05 -1.49206e-06 0)
(-5.71667e-05 -1.33651e-06 0)
(-4.95118e-05 -1.21135e-06 0)
(-4.25982e-05 -1.11867e-06 0)
(-3.62372e-05 -1.05784e-06 0)
(-3.02534e-05 -1.02487e-06 0)
(-2.45071e-05 -1.01038e-06 0)
(-1.8924e-05 -9.97746e-07 0)
(-1.35299e-05 -9.6051e-07 0)
(-8.49328e-06 -8.6125e-07 0)
(-4.17652e-06 -6.49833e-07 0)
(-1.15871e-06 -2.7239e-07 0)
(8.08911e-08 1.4436e-07 0)
(3.4834e-07 -9.69407e-07 0)
(4.6368e-06 -4.30946e-06 0)
(1.26867e-05 -7.28775e-06 0)
(2.35687e-05 -9.31076e-06 0)
(3.62507e-05 -1.05427e-05 0)
(5.00964e-05 -1.12947e-05 0)
(6.48055e-05 -1.18556e-05 0)
(8.03518e-05 -1.24518e-05 0)
(9.69213e-05 -1.32414e-05 0)
(0.000114843 -1.43219e-05 0)
(0.000134531 -1.57416e-05 0)
(0.000156429 -1.75109e-05 0)
(0.000180974 -1.96106e-05 0)
(0.000208561 -2.19989e-05 0)
(0.000239517 -2.46151e-05 0)
(0.000274077 -2.73823e-05 0)
(0.000312363 -3.02079e-05 0)
(0.000354361 -3.29836e-05 0)
(0.000399904 -3.55844e-05 0)
(0.000448644 -3.78684e-05 0)
(0.000500036 -3.96757e-05 0)
(0.000553313 -4.08302e-05 0)
(0.000607467 -4.11402e-05 0)
(0.000661237 -4.04046e-05 0)
(0.000713101 -3.84172e-05 0)
(0.000761276 -3.49802e-05 0)
(0.000803747 -2.99147e-05 0)
(0.000838294 -2.30834e-05 0)
(0.000862576 -1.44084e-05 0)
(0.000874209 -3.90133e-06 0)
(0.00087091 8.31655e-06 0)
(0.000850642 2.19866e-05 0)
(0.00081181 3.67059e-05 0)
(0.000753431 5.19203e-05 0)
(0.000675331 6.69516e-05 0)
(0.000578268 8.10282e-05 0)
(0.000464021 9.33542e-05 0)
(0.000335367 0.000103171 0)
(0.000195991 0.000109844 0)
(5.02742e-05 0.000112923 0)
(-9.69694e-05 0.000112198 0)
(-0.000240831 0.000107719 0)
(-0.000376626 9.97971e-05 0)
(-0.00050022 8.89583e-05 0)
(-0.000608259 7.5897e-05 0)
(-0.000698346 6.139e-05 0)
(-0.000769096 4.6233e-05 0)
(-0.00082012 3.11606e-05 0)
(-0.000851915 1.68084e-05 0)
(-0.000865715 3.66777e-06 0)
(-0.000863297 -7.91184e-06 0)
(-0.000846809 -1.77296e-05 0)
(-0.000818581 -2.57024e-05 0)
(-0.000780992 -3.18557e-05 0)
(-0.000736343 -3.62901e-05 0)
(-0.000686777 -3.91618e-05 0)
(-0.000634223 -4.06536e-05 0)
(-0.000580367 -4.09684e-05 0)
(-0.000526637 -4.03087e-05 0)
(-0.000474204 -3.88748e-05 0)
(-0.00042399 -3.685e-05 0)
(-0.000376689 -3.44033e-05 0)
(-0.00033278 -3.16848e-05 0)
(-0.000292556 -2.88314e-05 0)
(-0.000256135 -2.5962e-05 0)
(-0.000223488 -2.31811e-05 0)
(-0.000194455 -2.05764e-05 0)
(-0.00016877 -1.8222e-05 0)
(-0.000146077 -1.61757e-05 0)
(-0.000125952 -1.44791e-05 0)
(-0.000107936 -1.31504e-05 0)
(-9.15566e-05 -1.218e-05 0)
(-7.6378e-05 -1.15192e-05 0)
(-6.20456e-05 -1.10708e-05 0)
(-4.83509e-05 -1.06757e-05 0)
(-3.52994e-05 -1.01051e-05 0)
(-2.3178e-05 -9.06146e-06 0)
(-1.26285e-05 -7.21472e-06 0)
(-4.71486e-06 -4.36256e-06 0)
(-3.88589e-07 -1.02726e-06 0)
(8.0331e-07 -3.99938e-06 0)
(7.86777e-06 -1.22064e-05 0)
(1.97316e-05 -1.88764e-05 0)
(3.51397e-05 -2.34999e-05 0)
(5.28397e-05 -2.65026e-05 0)
(7.21642e-05 -2.85403e-05 0)
(9.28579e-05 -3.02372e-05 0)
(0.000114995 -3.20977e-05 0)
(0.000138906 -3.44844e-05 0)
(0.000165103 -3.76264e-05 0)
(0.000194195 -4.16388e-05 0)
(0.000226831 -4.65442e-05 0)
(0.000263639 -5.22909e-05 0)
(0.000305182 -5.87675e-05 0)
(0.000351919 -6.58123e-05 0)
(0.000404169 -7.32186e-05 0)
(0.000462081 -8.07375e-05 0)
(0.000525601 -8.80772e-05 0)
(0.000594439 -9.49031e-05 0)
(0.000668042 -0.000100835 0)
(0.000745554 -0.000105451 0)
(0.000825797 -0.000108285 0)
(0.000907231 -0.00010884 0)
(0.000987952 -0.000106591 0)
(0.00106567 -0.000101016 0)
(0.00113771 -9.16084e-05 0)
(0.00120108 -7.79285e-05 0)
(0.00125249 -5.96382e-05 0)
(0.00128847 -3.65675e-05 0)
(0.00130551 -8.76856e-06 0)
(0.00130024 2.34117e-05 0)
(0.00126966 5.92882e-05 0)
(0.00121142 9.7794e-05 0)
(0.00112409 0.000137496 0)
(0.00100742 0.000176629 0)
(0.000862537 0.000213218 0)
(0.000692089 0.000245205 0)
(0.000500216 0.000270659 0)
(0.000292389 0.000287945 0)
(7.51379e-05 0.000295919 0)
(-0.000144385 0.000294037 0)
(-0.000358863 0.000282437 0)
(-0.000561337 0.000261901 0)
(-0.000745646 0.000233788 0)
(-0.000906812 0.000199862 0)
(-0.00104126 0.000162129 0)
(-0.00114695 0.000122625 0)
(-0.00122327 8.32574e-05 0)
(-0.00127097 4.56614e-05 0)
(-0.00129185 1.11344e-05 0)
(-0.00128853 -1.94132e-05 0)
(-0.00126417 -4.54253e-05 0)
(-0.0012222 -6.66743e-05 0)
(-0.00116615 -8.31894e-05 0)
(-0.0010994 -9.52141e-05 0)
(-0.00102517 -0.000103123 0)
(-0.000946311 -0.000107385 0)
(-0.000865363 -0.000108506 0)
(-0.000784477 -0.000107012 0)
(-0.000705427 -0.000103413 0)
(-0.000629627 -9.81979e-05 0)
(-0.000558146 -9.18069e-05 0)
(-0.00049174 -8.46462e-05 0)
(-0.000430879 -7.70765e-05 0)
(-0.000375778 -6.94213e-05 0)
(-0.000326426 -6.19588e-05 0)
(-0.000282617 -5.49292e-05 0)
(-0.000243979 -4.85289e-05 0)
(-0.000210009 -4.29146e-05 0)
(-0.000180102 -3.81933e-05 0)
(-0.000153591 -3.44156e-05 0)
(-0.000129792 -3.15577e-05 0)
(-0.000108055 -2.95045e-05 0)
(-8.7837e-05 -2.80249e-05 0)
(-6.87735e-05 -2.67526e-05 0)
(-5.07641e-05 -2.51738e-05 0)
(-3.40465e-05 -2.26447e-05 0)
(-1.92918e-05 -1.84717e-05 0)
(-7.78242e-06 -1.21639e-05 0)
(-8.12906e-07 -4.10407e-06 0)
(1.0799e-06 -8.54606e-06 0)
(9.95519e-06 -2.30521e-05 0)
(2.4196e-05 -3.40682e-05 0)
(4.22654e-05 -4.16968e-05 0)
(6.27997e-05 -4.68381e-05 0)
(8.5218e-05 -5.05881e-05 0)
(0.000109417 -5.39615e-05 0)
(0.000135642 -5.77774e-05 0)
(0.000164405 -6.26274e-05 0)
(0.000196396 -6.88852e-05 0)
(0.0002324 -7.67343e-05 0)
(0.000273223 -8.62004e-05 0)
(0.000319635 -9.71795e-05 0)
(0.000372312 -0.000109461 0)
(0.000431798 -0.000122742 0)
(0.000498459 -0.000136637 0)
(0.000572443 -0.000150683 0)
(0.000653644 -0.000164335 0)
(0.000741662 -0.000176973 0)
(0.00083576 -0.000187894 0)
(0.000934834 -0.000196316 0)
(0.00103737 -0.000201387 0)
(0.0011414 -0.000202191 0)
(0.00124452 -0.00019778 0)
(0.00134383 -0.000187197 0)
(0.00143598 -0.000169535 0)
(0.00151717 -0.000143995 0)
(0.00158327 -0.000109978 0)
(0.0016299 -6.71803e-05 0)
(0.00165259 -1.57139e-05 0)
(0.00164707 4.3787e-05 0)
(0.00160947 0.000110055 0)
(0.00153675 0.000181142 0)
(0.00142696 0.000254405 0)
(0.00127971 0.000326616 0)
(0.00109634 0.000394121 0)
(0.000880175 0.000453146 0)
(0.000636454 0.00050011 0)
(0.000372204 0.00053201 0)
(9.58048e-05 0.000546719 0)
(-0.000183509 0.000543246 0)
(-0.000456317 0.000521829 0)
(-0.000713643 0.00048393 0)
(-0.000947589 0.00043204 0)
(-0.00115179 0.000369435 0)
(-0.00132173 0.0002998 0)
(-0.00145488 0.000226899 0)
(-0.00155058 0.000154231 0)
(-0.00160986 8.4816e-05 0)
(-0.0016351 2.10175e-05 0)
(-0.00162969 -3.54783e-05 0)
(-0.00159768 -8.36652e-05 0)
(-0.00154344 -0.000123108 0)
(-0.00147142 -0.000153863 0)
(-0.00138591 -0.000176348 0)
(-0.00129094 -0.000191247 0)
(-0.00119013 -0.000199393 0)
(-0.00108666 -0.000201712 0)
(-0.000983269 -0.000199149 0)
(-0.000882203 -0.000192643 0)
(-0.000785265 -0.00018308 0)
(-0.000693835 -0.000171281 0)
(-0.000608895 -0.000157991 0)
(-0.000531073 -0.000143886 0)
(-0.000460675 -0.000129561 0)
(-0.000397726 -0.000115538 0)
(-0.000342002 -0.000102263 0)
(-0.000293074 -9.01045e-05 0)
(-0.00025034 -7.93536e-05 0)
(-0.000213068 -7.02146e-05 0)
(-0.000180438 -6.27863e-05 0)
(-0.000151596 -5.70417e-05 0)
(-0.000125711 -5.27941e-05 0)
(-0.000102051 -4.96663e-05 0)
(-8.00656e-05 -4.70574e-05 0)
(-5.94749e-05 -4.4131e-05 0)
(-4.0361e-05 -3.98393e-05 0)
(-2.33031e-05 -3.30287e-05 0)
(-9.68265e-06 -2.27063e-05 0)
(-1.06766e-06 -8.59988e-06 0)
(1.21498e-06 -1.39007e-05 0)
(1.08583e-05 -3.54051e-05 0)
(2.59658e-05 -5.09565e-05 0)
(4.48496e-05 -6.16415e-05 0)
(6.61631e-05 -6.90414e-05 0)
(8.9499e-05 -7.47858e-05 0)
(0.000114977 -8.03123e-05 0)
(0.000143067 -8.67581e-05 0)
(0.000174489 -9.49334e-05 0)
(0.000210111 -0.00010534 0)
(0.000250871 -0.00011821 0)
(0.0002977 -0.000133551 0)
(0.000351463 -0.000151182 0)
(0.000412911 -0.000170766 0)
(0.000482628 -0.000191826 0)
(0.000560996 -0.000213762 0)
(0.00064814 -0.000235854 0)
(0.000743902 -0.000257257 0)
(0.000847776 -0.000277011 0)
(0.000958887 -0.000294029 0)
(0.00107593 -0.000307107 0)
(0.00119713 -0.000314931 0)
(0.00132021 -0.000316099 0)
(0.00144239 -0.000309151 0)
(0.0015603 -0.000292623 0)
(0.00167006 -0.000265117 0)
(0.00176729 -0.000225406 0)
(0.00184714 -0.000172554 0)
(0.00190448 -0.000106077 0)
(0.00193404 -2.61142e-05 0)
(0.00193065 6.63827e-05 0)
(0.00188963 0.000169501 0)
(0.00180714 0.00028024 0)
(0.00168066 0.000394526 0)
(0.00150943 0.000507312 0)
(0.00129485 0.000612887 0)
(0.00104071 0.000705293 0)
(0.000753225 0.000778888 0)
(0.000440814 0.000828897 0)
(0.000113643 0.000851965 0)
(-0.000217077 0.000846502 0)
(-0.000539862 0.000812904 0)
(-0.000843827 0.000753469 0)
(-0.00111942 0.000672171 0)
(-0.00135905 0.000574172 0)
(-0.00155743 0.000465309 0)
(-0.00171173 0.000351483 0)
(-0.0018214 0.000238186 0)
(-0.00188794 0.000130092 0)
(-0.0019144 3.08677e-05 0)
(-0.00190497 -5.69316e-05 0)
(-0.00186455 -0.000131771 0)
(-0.00179837 -0.000193035 0)
(-0.00171164 -0.000240821 0)
(-0.00160943 -0.0002758 0)
(-0.00149639 -0.000299016 0)
(-0.00137675 -0.000311767 0)
(-0.00125418 -0.00031546 0)
(-0.00113184 -0.000311554 0)
(-0.00101234 -0.000301479 0)
(-0.000897787 -0.000286602 0)
(-0.000789792 -0.000268186 0)
(-0.000689519 -0.00024739 0)
(-0.000597724 -0.000225249 0)
(-0.000514801 -0.000202693 0)
(-0.000440817 -0.000180527 0)
(-0.000375559 -0.000159447 0)
(-0.000318571 -0.000140027 0)
(-0.000269198 -0.000122728 0)
(-0.000226627 -0.000107872 0)
(-0.000189933 -9.56356e-05 0)
(-0.000158128 -8.60052e-05 0)
(-0.000130221 -7.87448e-05 0)
(-0.000105293 -7.33441e-05 0)
(-8.25791e-05 -6.89793e-05 0)
(-6.15688e-05 -6.44863e-05 0)
(-4.21131e-05 -5.83819e-05 0)
(-2.46085e-05 -4.89612e-05 0)
(-1.03988e-05 -3.45278e-05 0)
(-1.18412e-06 -1.38005e-05 0)
(1.23936e-06 -1.94455e-05 0)
(1.06963e-05 -4.79506e-05 0)
(2.52152e-05 -6.78384e-05 0)
(4.31398e-05 -8.13968e-05 0)
(6.33074e-05 -9.10408e-05 0)
(8.55789e-05 -9.9004e-05 0)
(0.000110363 -0.00010716 0)
(0.000138395 -0.000116942 0)
(0.000170616 -0.000129347 0)
(0.000208067 -0.000144964 0)
(0.000251815 -0.000164041 0)
(0.000302876 -0.000186533 0)
(0.000362176 -0.000212156 0)
(0.00043049 -0.000240418 0)
(0.000508413 -0.000270645 0)
(0.000596306 -0.000301996 0)
(0.000694265 -0.000333463 0)
(0.000802063 -0.000363873 0)
(0.00091912 -0.000391888 0)
(0.00104444 -0.000416 0)
(0.00117658 -0.000434539 0)
(0.00131358 -0.000445684 0)
(0.00145297 -0.000447488 0)
(0.00159166 -0.000437927 0)
(0.00172601 -0.000414961 0)
(0.00185173 -0.000376635 0)
(0.00196399 -0.000321206 0)
(0.00205741 -0.000247325 0)
(0.00212621 -0.000154238 0)
(0.00216436 -4.20488e-05 0)
(0.00216587 8.80314e-05 0)
(0.00212513 0.000233416 0)
(0.00203741 0.000389987 0)
(0.00189938 0.00055202 0)
(0.00170973 0.000712368 0)
(0.00146964 0.000862827 0)
(0.00118323 0.0009948 0)
(0.000857528 0.00110007 0)
(0.000502362 0.00117169 0)
(0.000129686 0.00120472 0)
(-0.000247184 0.00119688 0)
(-0.000614636 0.0011487 0)
(-0.000959767 0.00106359 0)
(-0.00127139 0.00094733 0)
(-0.00154071 0.000807461 0)
(-0.00176185 0.000652428 0)
(-0.00193186 0.000490763 0)
(-0.00205057 0.00033029 0)
(-0.00212013 0.000177633 0)
(-0.00214446 3.78753e-05 0)
(-0.00212865 -8.5466e-05 0)
(-0.00207848 -0.000190378 0)
(-0.00199998 -0.000276086 0)
(-0.00189909 -0.000342843 0)
(-0.00178143 -0.000391627 0)
(-0.0016522 -0.00042395 0)
(-0.00151603 -0.000441624 0)
(-0.00137697 -0.000446631 0)
(-0.00123848 -0.000440984 0)
(-0.0011034 -0.000426676 0)
(-0.000974053 -0.00040559 0)
(-0.000852218 -0.00037949 0)
(-0.000739191 -0.000349976 0)
(-0.000635835 -0.000318498 0)
(-0.000542617 -0.000286339 0)
(-0.000459658 -0.000254629 0)
(-0.000386771 -0.000224334 0)
(-0.00032351 -0.000196266 0)
(-0.000269206 -0.000171073 0)
(-0.000223011 -0.00014923 0)
(-0.000183934 -0.000131011 0)
(-0.000150894 -0.000116453 0)
(-0.000122767 -0.000105304 0)
(-9.84497e-05 -9.69596e-05 0)
(-7.69496e-05 -9.04065e-05 0)
(-5.74813e-05 -8.41755e-05 0)
(-3.95974e-05 -7.63356e-05 0)
(-2.34122e-05 -6.45651e-05 0)
(-1.00622e-05 -4.6317e-05 0)
(-1.19271e-06 -1.90984e-05 0)
(1.17417e-06 -2.46658e-05 0)
(9.5982e-06 -5.95076e-05 0)
(2.21782e-05 -8.31451e-05 0)
(3.74907e-05 -9.91922e-05 0)
(5.47475e-05 -0.000110988 0)
(7.41931e-05 -0.000121399 0)
(9.65898e-05 -0.000132717 0)
(0.000122972 -0.000146624 0)
(0.000154505 -0.000164241 0)
(0.000192387 -0.000186192 0)
(0.000237774 -0.000212688 0)
(0.000291732 -0.000243596 0)
(0.000355192 -0.000278494 0)
(0.00042892 -0.000316716 0)
(0.000513473 -0.000357373 0)
(0.000609177 -0.000399364 0)
(0.000716067 -0.00044138 0)
(0.000833862 -0.000481902 0)
(0.000961903 -0.000519198 0)
(0.00109912 -0.000551318 0)
(0.00124398 -0.000576104 0)
(0.00139441 -0.000591198 0)
(0.00154781 -0.000594082 0)
(0.00170095 -0.000582122 0)
(0.00184999 -0.000552655 0)
(0.00199042 -0.000503097 0)
(0.00211709 -0.000431118 0)
(0.00222422 -0.00033484 0)
(0.00230549 -0.00021313 0)
(0.00235421 -6.59155e-05 0)
(0.00236352 0.000105433 0)
(0.00232682 0.000297749 0)
(0.00223827 0.000505756 0)
(0.00209348 0.000721965 0)
(0.00189024 0.000936801 0)
(0.0016293 0.00113914 0)
(0.00131481 0.00131716 0)
(0.000954622 0.00145951 0)
(0.000559941 0.00155649 0)
(0.000144722 0.00160126 0)
(-0.000275434 0.00159057 0)
(-0.000684493 0.00152524 0)
(-0.00106737 0.00140997 0)
(-0.00141109 0.00125286 0)
(-0.00170571 0.00106436 0)
(-0.00194484 0.000856151 0)
(-0.00212571 0.000639865 0)
(-0.00224878 0.000426097 0)
(-0.0023172 0.000223619 0)
(-0.00233596 3.90625e-05 0)
(-0.00231124 -0.000123162 0)
(-0.00224975 -0.000260611 0)
(-0.00215828 -0.000372521 0)
(-0.0020434 -0.000459384 0)
(-0.00191121 -0.000522638 0)
(-0.00176725 -0.000564328 0)
(-0.00161646 -0.000586883 0)
(-0.00146307 -0.00059289 0)
(-0.00131074 -0.000584987 0)
(-0.00116246 -0.000565743 0)
(-0.00102066 -0.000537609 0)
(-0.000887231 -0.000502854 0)
(-0.000763562 -0.000463559 0)
(-0.00065059 -0.000421593 0)
(-0.000548852 -0.000378625 0)
(-0.000458525 -0.000336112 0)
(-0.000379475 -0.000295318 0)
(-0.000311292 -0.000257299 0)
(-0.000253335 -0.000222917 0)
(-0.000204765 -0.000192816 0)
(-0.000164577 -0.000167405 0)
(-0.000131638 -0.000146805 0)
(-0.000104723 -0.0001308 0)
(-8.25678e-05 -0.000118751 0)
(-6.39442e-05 -0.000109513 0)
(-4.77575e-05 -0.00010136 0)
(-3.3192e-05 -9.1938e-05 0)
(-1.99633e-05 -7.82789e-05 0)
(-8.8076e-06 -5.69018e-05 0)
(-1.11568e-06 -2.39856e-05 0)
(1.03377e-06 -2.91167e-05 0)
(7.66296e-06 -6.90036e-05 0)
(1.70596e-05 -9.5425e-05 0)
(2.82428e-05 -0.000113399 0)
(4.10113e-05 -0.000127224 0)
(5.61196e-05 -0.00014038 0)
(7.4756e-05 -0.000155507 0)
(9.82736e-05 -0.000174457 0)
(0.000128053 -0.000198385 0)
(0.000165407 -0.000227876 0)
(0.00021154 -0.000263042 0)
(0.000267504 -0.000303618 0)
(0.000334191 -0.000349019 0)
(0.0004123 -0.000398384 0)
(0.000502323 -0.000450598 0)
(0.000604505 -0.000504298 0)
(0.00071882 -0.000557871 0)
(0.000844911 -0.00060945 0)
(0.00098207 -0.000656907 0)
(0.00112916 -0.00069785 0)
(0.00128461 -0.000729624 0)
(0.00144631 -0.000749336 0)
(0.00161161 -0.000753875 0)
(0.00177724 -0.000739986 0)
(0.0019393 -0.000704339 0)
(0.00209318 -0.000643678 0)
(0.0022336 -0.000554989 0)
(0.00235451 -0.000435761 0)
(0.00244922 -0.000284309 0)
(0.00251041 -0.000100205 0)
(0.0025304 0.000115242 0)
(0.00250147 0.00035844 0)
(0.00241646 0.000623065 0)
(0.00226954 0.000899757 0)
(0.00205727 0.00117625 0)
(0.0017795 0.00143795 0)
(0.00144028 0.00166917 0)
(0.00104809 0.00185462 0)
(0.000615704 0.00198125 0)
(0.00015926 0.00203973 0)
(-0.000302943 0.0020257 0)
(-0.000752136 0.00194024 0)
(-0.00117068 0.00178978 0)
(-0.00154366 0.00158526 0)
(-0.00185993 0.0013408 0)
(-0.00211277 0.00107199 0)
(-0.00229985 0.000794233 0)
(-0.00242272 0.00052128 0)
(-0.00248585 0.000264297 0)
(-0.00249565 3.14234e-05 0)
(-0.00245952 -0.00017211 0)
(-0.0023852 -0.00034367 0)
(-0.0022802 -0.000482654 0)
(-0.00215159 -0.000590023 0)
(-0.0020058 -0.000667778 0)
(-0.00184859 -0.000718637 0)
(-0.00168498 -0.000745684 0)
(-0.00151932 -0.000752188 0)
(-0.00135529 -0.00074141 0)
(-0.00119596 -0.000716538 0)
(-0.00104379 -0.000680575 0)
(-0.00090072 -0.000636323 0)
(-0.000768194 -0.000586329 0)
(-0.000647208 -0.0005329 0)
(-0.000538358 -0.000478079 0)
(-0.000441891 -0.000423667 0)
(-0.000357739 -0.000371214 0)
(-0.000285567 -0.000322039 0)
(-0.000224803 -0.000277219 0)
(-0.000174667 -0.000237593 0)
(-0.000134193 -0.000203728 0)
(-0.000102252 -0.000175881 0)
(-7.75695e-05 -0.000153929 0)
(-5.87541e-05 -0.000137274 0)
(-4.43519e-05 -0.00012473 0)
(-3.29346e-05 -0.000114403 0)
(-2.32459e-05 -0.000103576 0)
(-1.44714e-05 -8.86646e-05 0)
(-6.73535e-06 -6.52204e-05 0)
(-9.66932e-07 -2.80225e-05 0)
(8.24696e-07 -3.23954e-05 0)
(4.9431e-06 -7.54479e-05 0)
(9.98713e-06 -0.000103339 0)
(1.56515e-05 -0.00012255 0)
(2.2554e-05 -0.000138319 0)
(3.21026e-05 -0.000154651 0)
(4.5971e-05 -0.00017442 0)
(6.58405e-05 -0.000199508 0)
(9.32655e-05 -0.000230995 0)
(0.000129622 -0.000269326 0)
(0.000176081 -0.000314451 0)
(0.000233623 -0.000365925 0)
(0.000303028 -0.000422978 0)
(0.000384883 -0.000484545 0)
(0.000479561 -0.000549284 0)
(0.000587208 -0.000615576 0)
(0.000707698 -0.000681515 0)
(0.000840614 -0.000744897 0)
(0.00098518 -0.000803215 0)
(0.00114025 -0.000853645 0)
(0.0013042 -0.000893056 0)
(0.00147498 -0.000918024 0)
(0.00164994 -0.000924865 0)
(0.0018259 -0.000909694 0)
(0.00199899 -0.000868515 0)
(0.00216471 -0.00079735 0)
(0.00231775 -0.000692441 0)
(0.00245205 -0.000550504 0)
(0.00256068 -0.000369127 0)
(0.00263588 -0.000147252 0)
(0.00266917 0.000114164 0)
(0.00265165 0.000411435 0)
(0.00257458 0.000737386 0)
(0.00243033 0.00108085 0)
(0.00221362 0.00142655 0)
(0.00192305 0.00175587 0)
(0.0015621 0.00204835 0)
(0.00113988 0.00228388 0)
(0.000670793 0.00244511 0)
(0.000173578 0.00251965 0)
(-0.000330386 0.00250166 0)
(-0.000819043 0.00239262 0)
(-0.00127186 0.00220111 0)
(-0.00167167 0.00194171 0)
(-0.00200612 0.00163307 0)
(-0.00226835 0.00129566 0)
(-0.00245692 0.000949368 0)
(-0.00257489 0.000611595 0)
(-0.0026286 0.000296 0)
(-0.00262619 1.21734e-05 0)
(-0.0025765 -0.000234153 0)
(-0.00248825 -0.000440411 0)
(-0.00236963 -0.0006065 0)
(-0.00222803 -0.000734028 0)
(-0.00207002 -0.000825774 0)
(-0.00190136 -0.000885187 0)
(-0.00172704 -0.000916107 0)
(-0.00155133 -0.000922468 0)
(-0.00137785 -0.000908194 0)
(-0.00120963 -0.000877053 0)
(-0.00104911 -0.000832618 0)
(-0.000898233 -0.000778185 0)
(-0.000758464 -0.000716778 0)
(-0.000630839 -0.000651108 0)
(-0.000516019 -0.000583599 0)
(-0.000414325 -0.000516369 0)
(-0.000325784 -0.000451261 0)
(-0.000250166 -0.000389838 0)
(-0.000187015 -0.000333405 0)
(-0.000135665 -0.000282998 0)
(-9.52557e-05 -0.000239375 0)
(-6.47311e-05 -0.000202966 0)
(-4.28352e-05 -0.000173817 0)
(-2.8109e-05 -0.000151465 0)
(-1.89082e-05 -0.000134804 0)
(-1.34625e-05 -0.000121901 0)
(-1.00091e-05 -0.000109807 0)
(-7.06018e-06 -9.44035e-05 0)
(-3.89403e-06 -7.02985e-05 0)
(-7.50833e-07 -3.08141e-05 0)
(5.44839e-07 -3.41126e-05 0)
(1.42888e-06 -7.78883e-05 0)
(9.76148e-07 -0.000105632 0)
(-1.66916e-07 -0.000125337 0)
(-2.93784e-07 -0.000143094 0)
(2.79978e-06 -0.000163268 0)
(1.13225e-05 -0.000188767 0)
(2.72516e-05 -0.000221323 0)
(5.22503e-05 -0.000261784 0)
(8.76571e-05 -0.00031035 0)
(0.000134529 -0.000366737 0)
(0.000193674 -0.000430284 0)
(0.000265699 -0.000500019 0)
(0.000351008 -0.000574675 0)
(0.000449822 -0.000652697 0)
(0.00056214 -0.000732226 0)
(0.000687733 -0.000811087 0)
(0.000826088 -0.000886764 0)
(0.000976389 -0.000956394 0)
(0.00113745 -0.00101675 0)
(0.00130769 -0.00106427 0)
(0.00148509 -0.00109501 0)
(0.00166712 -0.00110476 0)
(0.00185073 -0.00108903 0)
(0.00203226 -0.00104318 0)
(0.0022074 -0.000962503 0)
(0.00237111 -0.00084244 0)
(0.00251746 -0.00067884 0)
(0.0026396 -0.000468339 0)
(0.00272954 -0.000208954 0)
(0.0027782 9.9159e-05 0)
(0.00277547 0.000452675 0)
(0.00271085 0.000844024 0)
(0.00257437 0.00126038 0)
(0.00235837 0.00168329 0)
(0.00205942 0.00208938 0)
(0.00168013 0.00245237 0)
(0.00122999 0.00274608 0)
(0.000725262 0.00294775 0)
(0.00018762 0.00304109 0)
(-0.000357865 0.00301842 0)
(-0.000885362 0.00288171 0)
(-0.00137089 0.00264231 0)
(-0.00179482 0.00231938 0)
(-0.00214354 0.00193733 0)
(-0.00241036 0.00152262 0)
(-0.0025952 0.00110059 0)
(-0.00270336 0.000692719 0)
(-0.00274357 0.000315273 0)
(-0.0027261 -2.10825e-05 0)
(-0.00266134 -0.000310505 0)
(-0.00255894 -0.000551005 0)
(-0.00242753 -0.000743306 0)
(-0.00227458 -0.000889986 0)
(-0.00210656 -0.000994708 0)
(-0.001929 -0.0010618 0)
(-0.00174664 -0.00109582 0)
(-0.00156357 -0.00110141 0)
(-0.00138321 -0.00108309 0)
(-0.00120849 -0.00104522 0)
(-0.00104176 -0.000991871 0)
(-0.000884945 -0.000926831 0)
(-0.000739501 -0.000853546 0)
(-0.000606507 -0.000775132 0)
(-0.000486682 -0.000694348 0)
(-0.000380442 -0.000613627 0)
(-0.00028793 -0.000535069 0)
(-0.000209059 -0.000460479 0)
(-0.000143532 -0.000391366 0)
(-9.08627e-05 -0.000328974 0)
(-5.03674e-05 -0.000274257 0)
(-2.11517e-05 -0.00022787 0)
(-2.07178e-06 -0.000190088 0)
(8.30859e-06 -0.000160705 0)
(1.17542e-05 -0.000138844 0)
(1.03523e-05 -0.000122723 0)
(6.42073e-06 -0.000109359 0)
(2.26943e-06 -9.42711e-05 0)
(-2.65857e-07 -7.12076e-05 0)
(-4.61741e-07 -3.19839e-05 0)
(1.80278e-07 -3.38548e-05 0)
(-2.97268e-06 -7.53497e-05 0)
(-1.01124e-05 -0.000101091 0)
(-1.92795e-05 -0.000120609 0)
(-2.73671e-05 -0.000140662 0)
(-3.12305e-05 -0.000165695 0)
(-2.81255e-05 -0.000198355 0)
(-1.58534e-05 -0.00023998 0)
(7.23005e-06 -0.000291006 0)
(4.23037e-05 -0.000351269 0)
(9.01786e-05 -0.000420188 0)
(0.000151403 -0.000496865 0)
(0.000226313 -0.000580125 0)
(0.000315087 -0.000668518 0)
(0.000417729 -0.000760299 0)
(0.000534076 -0.000853403 0)
(0.000663753 -0.000945412 0)
(0.00080616 -0.00103354 0)
(0.000960406 -0.0011146 0)
(0.0011253 -0.00118501 0)
(0.00129928 -0.0012408 0)
(0.00148042 -0.00127759 0)
(0.00166632 -0.00129068 0)
(0.00185417 -0.00127504 0)
(0.00204059 -0.00122544 0)
(0.00222165 -0.00113648 0)
(0.00239273 -0.00100282 0)
(0.00254841 -0.000819355 0)
(0.00268218 -0.000581609 0)
(0.00278628 -0.000286297 0)
(0.00285129 6.77364e-05 0)
(0.00286616 0.000478256 0)
(0.00281844 0.000937977 0)
(0.00269537 0.00143292 0)
(0.00248602 0.00194131 0)
(0.0021842 0.00243421 0)
(0.00179095 0.0028782 0)
(0.00131604 0.00323945 0)
(0.000777679 0.00348835 0)
(0.000200977 0.00360369 0)
(-0.000384828 0.00357545 0)
(-0.000949457 0.00340627 0)
(-0.00146508 0.00311099 0)
(-0.00190927 0.00271464 0)
(-0.00226723 0.00224882 0)
(-0.00253279 0.00174753 0)
(-0.00270799 0.00124259 0)
(-0.00280113 0.000760182 0)
(-0.00282407 0.000318901 0)
(-0.00278951 -7.00207e-05 0)
(-0.00270938 -0.000401421 0)
(-0.00259401 -0.000674448 0)
(-0.00245209 -0.000891161 0)
(-0.00229082 -0.00105532 0)
(-0.00211623 -0.00117167 0)
(-0.00193335 -0.00124538 0)
(-0.00174652 -0.00128178 0)
(-0.00155945 -0.00128611 0)
(-0.00137533 -0.00126346 0)
(-0.00119687 -0.00121866 0)
(-0.00102636 -0.00115628 0)
(-0.000865633 -0.00108053 0)
(-0.000716167 -0.000995267 0)
(-0.000579066 -0.000903939 0)
(-0.000455125 -0.000809635 0)
(-0.000344866 -0.000715052 0)
(-0.000248575 -0.000622534 0)
(-0.00016634 -0.000534086 0)
(-9.8075e-05 -0.000451413 0)
(-4.35293e-05 -0.000375934 0)
(-2.28159e-06 -0.000308814 0)
(2.63004e-05 -0.000250946 0)
(4.31263e-05 -0.000202911 0)
(4.94797e-05 -0.00016487 0)
(4.71244e-05 -0.000136367 0)
(3.83866e-05 -0.000116021 0)
(2.6147e-05 -0.000101113 0)
(1.36807e-05 -8.70822e-05 0)
(4.25481e-06 -6.69998e-05 0)
(-8.25537e-08 -3.1136e-05 0)
(-3.01071e-07 -3.11329e-05 0)
(-8.4795e-06 -6.67524e-05 0)
(-2.36292e-05 -8.84896e-05 0)
(-4.19907e-05 -0.000107375 0)
(-5.8682e-05 -0.000130488 0)
(-6.9514e-05 -0.000161897 0)
(-7.1273e-05 -0.000203584 0)
(-6.17069e-05 -0.000256179 0)
(-3.93703e-05 -0.000319506 0)
(-3.42779e-06 -0.000392931 0)
(4.65518e-05 -0.000475537 0)
(0.000110732 -0.000566188 0)
(0.000189118 -0.000663536 0)
(0.000281581 -0.00076598 0)
(0.000387889 -0.000871627 0)
(0.000507669 -0.000978242 0)
(0.000640398 -0.00108321 0)
(0.000785343 -0.0011835 0)
(0.000941555 -0.00127567 0)
(0.0011078 -0.00135582 0)
(0.00128255 -0.00141962 0)
(0.00146395 -0.00146234 0)
(0.0016498 -0.00147884 0)
(0.0018375 -0.00146367 0)
(0.00202408 -0.00141108 0)
(0.00220609 -0.0013151 0)
(0.00237957 -0.0011697 0)
(0.00253985 -0.000968835 0)
(0.0026813 -0.000706802 0)
(0.00279683 -0.000378711 0)
(0.00287742 1.85552e-05 0)
(0.00291144 0.000484756 0)
(0.00288467 0.00101405 0)
(0.00278102 0.00159218 0)
(0.00258538 0.00219417 0)
(0.00228767 0.00278458 0)
(0.00188674 0.00332116 0)
(0.00139224 0.00376044 0)
(0.000824592 0.00406422 0)
(0.000212626 0.00420512 0)
(-0.000409703 0.00417026 0)
(-0.00100728 0.00396306 0)
(-0.00154797 0.00360286 0)
(-0.00200642 0.00312196 0)
(-0.00236672 0.00256113 0)
(-0.00262377 0.00196364 0)
(-0.00278254 0.00136928 0)
(-0.00285541 0.000809293 0)
(-0.00285808 0.000304239 0)
(-0.00280596 -0.000135233 0)
(-0.00271214 -0.00050563 0)
(-0.00258712 -0.000808109 0)
(-0.00243905 -0.00104647 0)
(-0.00227437 -0.00122595 0)
(-0.00209825 -0.00135236 0)
(-0.00191502 -0.00143172 0)
(-0.00172835 -0.00146997 0)
(-0.00154153 -0.00147287 0)
(-0.00135741 -0.00144595 0)
(-0.00117852 -0.00139447 0)
(-0.00100702 -0.00132338 0)
(-0.000844703 -0.00123728 0)
(-0.000693043 -0.00114035 0)
(-0.000553194 -0.00103638 0)
(-0.000426036 -0.000928716 0)
(-0.000312218 -0.000820305 0)
(-0.00021219 -0.000713678 0)
(-0.000126248 -0.000611017 0)
(-5.45536e-05 -0.000514167 0)
(2.8443e-06 -0.000424706 0)
(4.60272e-05 -0.000343971 0)
(7.5252e-05 -0.000273103 0)
(9.1049e-05 -0.000213027 0)
(9.43713e-05 -0.000164387 0)
(8.67939e-05 -0.000127352 0)
(7.072e-05 -0.000101264 0)
(4.95242e-05 -8.40809e-05 0)
(2.75582e-05 -7.16178e-05 0)
(9.8988e-06 -5.66086e-05 0)
(4.19162e-07 -2.7797e-05 0)
(-9.64652e-07 -2.52972e-05 0)
(-1.55088e-05 -5.07952e-05 0)
(-4.0232e-05 -6.65371e-05 0)
(-6.88969e-05 -8.48474e-05 0)
(-9.4431e-05 -0.000112494 0)
(-0.000111578 -0.000152484 0)
(-0.000116866 -0.000205576 0)
(-0.000108262 -0.000271331 0)
(-8.47941e-05 -0.000348769 0)
(-4.61785e-05 -0.000436717 0)
(7.46836e-06 -0.000533925 0)
(7.58338e-05 -0.000639064 0)
(0.000158504 -0.000750664 0)
(0.000255022 -0.000867033 0)
(0.000364869 -0.00098618 0)
(0.00048746 -0.00110575 0)
(0.000622079 -0.00122297 0)
(0.000767872 -0.00133462 0)
(0.000923771 -0.00143702 0)
(0.00108851 -0.00152602 0)
(0.00126054 -0.00159701 0)
(0.0014381 -0.00164495 0)
(0.00161911 -0.00166439 0)
(0.00180126 -0.00164954 0)
(0.00198191 -0.00159429 0)
(0.00215822 -0.00149228 0)
(0.00232698 -0.00133695 0)
(0.00248464 -0.00112154 0)
(0.00262687 -0.00083915 0)
(0.00274809 -0.000483084 0)
(0.00284045 -4.76765e-05 0)
(0.00289283 0.000470026 0)
(0.0028897 0.00106726 0)
(0.00281144 0.00173109 0)
(0.0026375 0.00243384 0)
(0.00235282 0.00313244 0)
(0.00195311 0.00377374 0)
(0.00144772 0.00430221 0)
(0.000859323 0.00466892 0)
(0.000220707 0.00483916 0)
(-0.000429469 0.00479643 0)
(-0.00105103 0.00454519 0)
(-0.00160757 0.00411025 0)
(-0.00207082 0.00353301 0)
(-0.00242401 0.00286548 0)
(-0.0026636 0.00216261 0)
(-0.00279855 0.00147373 0)
(-0.00284646 0.000835681 0)
(-0.00282773 0.000269857 0)
(-0.00276026 -0.000215325 0)
(-0.00265758 -0.000619611 0)
(-0.00252929 -0.000946995 0)
(-0.00238222 -0.0012035 0)
(-0.0022214 -0.00139583 0)
(-0.00205079 -0.00153084 0)
(-0.00187369 -0.00161517 0)
(-0.00169308 -0.00165521 0)
(-0.00151169 -0.00165704 0)
(-0.00133211 -0.00162648 0)
(-0.00115667 -0.0015691 0)
(-0.00098744 -0.00149017 0)
(-0.000826198 -0.00139459 0)