/*--------------------------------*- C++ -*----------------------------------*\
| =========                 |                                                 |
| \\      /  F ield         | OpenFOAM: The Open Source CFD Toolbox           |
|  \\    /   O peration     | Version:  2412                                  |
|   \\  /    A nd           | Website:  www.openfoam.com                      |
|    \\/     M anipulation  |                                                 |
\*---------------------------------------------------------------------------*/
FoamFile
{
    version     2.0;
    format      ascii;
    arch        "LSB;label=32;scalar=64";
    class       volScalarField;
    location    "2.15";
    object      alpha.gasoline;
}
// * * * * * * * * * * * * * * * * * * * * * * * * * * * * * * * * * * * * * //

dimensions      [0 0 0 0 0 0 0];

internalField   nonuniform List<scalar> 
6400
(
1
1
1
0.999999
0.999999
0.999999
1
1
1
1
1
1
1
1
1
1
1
1
1
1
1
1
1
1
1
1
1
1
1
1
1
1
1
1
1
1
1
1
1
1
1
1
1
1
1
1
1
1
1
1
1
1
1
1
1
1
1
1
1
1
1
1
0.999999
0.999999
1
1
1
1
1
0.999999
0.999999
1
1
1
1
1
1
0.999999
0.999999
0.999999
0.999996
0.999999
1
1
0.999999
0.999999
0.999999
0.999999
1
1
0.999999
0.999999
1
1
1
1
1
0.999999
1
1
1
1
1
1
1
1
1
1
1
1
1
1
1
1
1
1
1
1
1
1
1
1
1
1
1
1
1
1
1
1
1
1
1
1
1
1
1
1
1
1
1
0.999999
1
1
1
1
0.999999
0.999999
0.999999
0.999999
1
1
1
0.999999
1
1
0.999999
1
1
0.999999
1
0.999999
0.999999
1
1
1
1
1
1
1
1
1
1
1
1
0.999999
0.999999
0.999999
0.999999
1
1
1
1
1
1
1
1
1
1
1
1
1
1
1
1
1
1
1
1
1
1
1
1
1
1
1
1
1
1
1
1
1
1
1
1
1
1
1
1
1
1
1
1
1
1
0.999999
0.999999
0.999999
0.999999
1
1
1
0.999999
1
1
0.999998
0.999999
1
0.999999
1
1
0.999999
0.999999
0.999999
1
1
1
1
1
1
1
1
1
0.999999
0.999999
0.999999
0.999999
1
1
1
1
1
1
1
1
1
1
1
1
1
1
1
1
1
1
1
1
1
1
1
1
1
1
1
1
1
1
1
1
1
1
1
1
1
1
1
1
1
1
1
1
1
0.999999
0.999999
0.999999
0.999999
0.999999
0.999999
0.999999
0.999999
0.999999
1
0.999999
0.999999
0.999999
0.999999
1
1
1
1
1
1
1
1
1
1
1
1
1
1
1
1
0.999999
0.999999
0.999999
1
1
1
1
1
1
1
1
1
1
1
1
1
1
1
1
1
1
1
1
1
1
1
1
1
1
1
1
1
1
1
1
1
1
1
1
1
1
1
1
1
1
1
1
1
1
1
1
0.999999
0.999999
1
1
1
0.999999
0.999999
0.999999
0.999999
1
1
1
1
1
1
1
1
1
1
1
1
1
1
1
1
1
1
1
0.999999
0.999999
0.999999
1
1
1
0.999999
1
1
1
1
1
1
1
1
1
1
1
1
1
1
1
1
1
1
1
1
1
1
1
1
1
1
1
1
1
1
1
1
1
1
1
1
1
1
1
1
1
1
1
1
1
1
1
1
1
1
1
1
1
1
1
1
1
1
1
1
1
1
1
1
1
1
1
1
1
1
1
1
1
1
0.999999
0.999999
0.999999
0.999999
1
1
1
1
1
1
1
1
1
1
1
1
1
1
1
1
1
1
1
1
1
1
1
1
1
1
1
1
1
1
1
1
1
1
1
1
1
1
1
1
1
1
1
1
1
1
1
1
1
1
1
1
1
1
1
1
1
1
1
1
1
1
1
0.999999
1
1
1
1
1
1
1
1
1
1
1
0.999999
0.999999
0.999999
1
1
1
1
1
1
1
1
1
1
1
1
1
1
1
1
1
1
1
1
1
1
1
1
1
1
1
1
1
1
1
1
1
1
1
1
1
1
1
1
1
1
1
1
1
1
1
1
1
1
1
1
1
1
1
1
1
1
1
1
1
1
1
1
1
1
1
1
1
1
1
1
1
1
1
1
1
0.999999
1
1
1
1
0.999999
0.999999
1
1
1
1
1
1
1
1
1
1
1
1
1
1
1
1
1
1
1
1
1
1
1
1
1
1
1
1
1
1
1
1
1
1
1
1
1
1
1
1
1
1
1
1
1
1
1
1
1
1
1
1
1
1
1
1
1
1
1
1
1
1
1
1
1
1
1
1
1
1
1
1
1
1
1
1
0.999999
0.999999
1
1
1
1
1
1
1
1
1
1
1
1
1
1
1
1
1
1
1
1
1
1
1
1
1
1
1
1
1
1
1
1
1
1
1
1
1
1
1
1
1
1
1
1
1
1
1
1
1
1
1
1
1
1
1
1
1
1
1
1
1
1
1
1
1
1
1
1
1
1
1
1
1
1
1
1
1
1
1
1
1
0.999999
1
1
1
1
1
1
1
1
1
1
1
1
1
1
1
1
1
1
1
1
1
1
1
1
1
1
1
1
1
1
1
1
1
1
1
1
1
1
1
1
1
1
1
1
1
1
1
1
1
1
1
1
1
1
1
1
1
1
1
1
1
0.999999
1
1
1
1
1
1
1
1
1
1
1
1
1
1
1
1
1
1
1
1
1
1
1
1
1
1
1
1
1
1
1
1
1
1
1
1
1
1
1
1
1
1
1
1
1
1
1
1
1
1
1
1
1
1
1
1
1
1
1
1
1
1
1
1
1
1
1
1
1
1
1
1
1
1
1
0.999999
1
1
0.999999
1
1
1
1
1
1
1
1
1
1
1
1
1
1
1
1
1
1
1
1
1
1
1
1
1
1
1
1
1
1
1
1
1
1
1
1
1
1
1
1
1
1
1
1
1
1
1
1
1
1
1
1
1
1
1
1
1
1
1
1
1
1
1
1
1
1
1
1
1
1
1
1
0.999999
1
1
1
1
1
1
1
1
1
1
1
1
1
1
1
1
1
1
1
1
1
1
1
1
1
1
1
1
1
1
1
1
1
1
1
1
1
1
1
1
1
1
1
1
1
1
1
1
1
1
1
1
1
1
1
1
1
1
1
1
1
1
1
1
1
1
1
1
1
1
1
1
1
1
1
1
1
1
0.999999
0.999999
1
1
0.999999
1
1
0.999999
0.999999
1
1
1
1
1
1
1
1
1
1
1
1
1
1
1
1
1
1
1
1
1
1
1
1
1
1
1
1
1
1
1
1
1
1
1
1
1
1
1
1
1
1
1
1
1
0.999999
0.999999
0.999999
1
1
1
1
1
1
1
1
1
1
1
1
1
1
1
1
1
1
1
1
1
1
1
1
1
1
1
1
1
0.999999
1
0.999999
0.999998
1
1
1
1
1
1
1
1
1
1
1
1
1
1
1
1
1
1
1
1
1
1
1
1
1
1
1
1
1
1
1
1
1
1
1
1
1
1
1
1
1
1
1
1
0.999999
0.999999
0.999999
1
1
1
1
1
1
1
1
1
1
1
1
1
1
1
1
1
1
1
1
1
1
1
1
1
1
1
1
1
0.999999
0.999999
0.999999
0.999999
1
1
1
1
1
1
1
1
1
1
1
1
1
1
1
1
1
1
1
1
1
1
1
1
1
0.999999
0.999999
0.999992
1
1
1
1
1
1
1
1
1
1
1
1
1
1
1
1
1
1
1
1
1
1
1
1
0.999988
0.999999
0.999999
0.999999
1
1
1
1
1
1
1
1
1
1
1
1
1
1
1
1
1
1
1
1
1
1
0.999999
0.999999
0.931192
0.927401
0.953241
0.982784
0.998455
1
1
1
1
1
1
1
1
1
1
1
1
1
1
0.999999
0.999999
0.999999
0.999998
0.999998
0.999954
0.999123
0.998644
0.999537
0.999998
0.999999
1
0.999997
0.999991
0.999996
1
1
1
1
1
1
1
1
1
1
1
1
1
1
1
1
0.999999
0.999998
0.999793
0.997767
0.996911
0.997998
0.999997
0.999998
0.999999
0.999999
1
1
1
1
1
1
1
1
1
1
1
1
1
1
1
0.999595
0.989019
0.964585
0.942284
0.945203
0.238021
0.26577
0.33679
0.445057
0.587865
0.711213
0.821817
0.913751
0.974306
1
1
1
0.99965
0.999338
0.999696
0.999997
0.999998
0.999995
0.999109
0.998168
0.999561
0.999971
0.999953
0.999931
0.999293
0.989549
0.989602
0.999635
0.999941
0.999964
0.999981
0.999871
0.999785
0.999999
1
1
1
1
1
1
1
1
1
1
1
1
1
1
0.999997
0.999987
0.999973
0.999954
0.999766
0.991064
0.98196
0.981676
0.99964
0.999938
0.999964
0.999976
0.999519
0.999464
0.999994
0.999998
0.999998
0.999996
0.999471
0.999484
0.999933
1
1
0.978934
0.924432
0.839079
0.736054
0.622415
0.485009
0.373283
0.310391
0.292009
0.00737533
0.0123258
0.0200708
0.0454165
0.109975
0.179454
0.25146
0.342882
0.492887
0.656262
0.771421
0.830948
0.866316
0.904977
0.950009
0.981844
0.991992
0.980327
0.879408
0.822484
0.909011
0.968234
0.966664
0.953421
0.945629
0.944063
0.949707
0.960626
0.962862
0.958372
0.96304
0.979437
0.985775
0.962395
0.919553
0.911012
0.894217
0.8697
0.846604
0.834171
0.836787
0.853835
0.880726
0.911202
0.937197
0.949815
0.963215
0.993772
0.989672
0.979976
0.975229
0.977505
0.974633
0.962917
0.950601
0.944079
0.944381
0.952177
0.964168
0.94451
0.828984
0.838315
0.948373
0.994484
0.989913
0.968602
0.921296
0.864048
0.815743
0.759427
0.65948
0.512253
0.368834
0.276532
0.20097
0.127609
0.0594184
0.0255784
0.0162007
0.0104539
0.00532993
0.00871766
0.0279354
0.0179078
0.00134241
0.00451824
0.235946
0.617246
0.771306
0.815624
0.850153
0.874112
0.88859
0.898984
0.902349
0.900779
0.882509
0.850138
0.808293
0.711602
0.53382
0.376822
0.303247
0.282379
0.281634
0.290852
0.298202
0.303449
0.301969
0.284603
0.291539
0.324884
0.294659
0.243018
0.233845
0.234343
0.218364
0.186411
0.156691
0.142964
0.144885
0.163783
0.202487
0.252792
0.293333
0.313076
0.312714
0.348766
0.375965
0.357061
0.344561
0.359111
0.351049
0.338036
0.32612
0.310822
0.287906
0.273209
0.299973
0.404303
0.603484
0.765749
0.832469
0.864102
0.883981
0.88637
0.885003
0.876846
0.863206
0.841501
0.808332
0.766918
0.629059
0.262977
0.00152256
0.000458346
0.00310266
0.0262136
0.0181024
0.00707017
0.00435717
0.0148956
0.00979663
0.000203846
0.000435388
0.00138106
0.00410026
9.53204e-06
8.50726e-06
0.013188
0.106249
0.168046
0.195925
0.19835
0.160195
0.119717
0.0880541
0.0548045
0.0222389
0.00369964
1.42561e-06
1.72108e-06
2.53546e-06
3.2226e-06
3.96146e-06
3.16918e-06
2.36464e-06
1.82713e-06
1.4757e-06
1.3268e-06
9.52385e-07
8.34905e-07
1.60201e-06
1.12419e-05
8.82458e-05
0.000293686
0.000608952
0.000961985
0.00114803
0.00122569
0.00122208
0.00123711
0.00118982
0.000897125
0.000626716
0.000483344
0.00344007
1.03383e-06
3.40256e-07
1.42582e-07
7.24951e-08
5.82185e-08
5.75374e-08
5.82185e-08
1.27212e-07
3.54883e-07
5.95924e-07
7.33135e-07
9.55556e-07
1.57668e-06
0.00107714
0.0116999
0.0339668
0.0605773
0.0856834
0.113429
0.147553
0.154994
0.13951
0.0945825
0.00926841
-4.16205e-05
-0.000131948
-3.66734e-05
1.43323e-06
1.89996e-06
7.89123e-05
0.00515707
0.0176139
0.0060856
0.00344209
0.0103931
0.000543753
5.34261e-05
4.30244e-05
2.21337e-05
9.61354e-06
8.4999e-06
8.50726e-06
8.49518e-06
8.41504e-06
8.20252e-06
7.91061e-06
7.59094e-06
7.16186e-06
6.33372e-06
4.9486e-06
3.38033e-06
2.21809e-06
1.42561e-06
9.70086e-07
8.84755e-07
6.30091e-06
1.22328e-05
1.39781e-05
8.9283e-06
9.75822e-06
5.68832e-06
2.18577e-06
1.38531e-06
4.50044e-07
3.44501e-07
2.06923e-05
3.62138e-05
2.93023e-07
2.85642e-06
2.12746e-05
5.38588e-05
7.85898e-05
9.49943e-05
8.9523e-05
8.46075e-05
7.67181e-05
5.161e-05
3.08765e-05
2.2329e-05
0.000215192
0.000108178
1.06948e-06
1.05189e-06
6.7622e-07
3.62929e-08
3.08044e-08
8.60183e-07
3.71473e-06
3.17009e-06
1.07129e-06
1.33239e-06
5.88302e-06
8.85149e-06
1.95217e-05
1.92988e-05
1.47303e-05
1.10815e-05
8.6423e-06
7.07155e-06
5.7698e-06
4.56414e-06
3.63491e-06
3.04029e-06
2.68034e-06
2.56205e-06
2.71883e-06
2.75769e-06
2.8866e-06
3.1054e-06
3.24107e-06
7.89134e-05
0.0100435
0.00500745
0.00139656
0.00240163
0.000107594
7.90572e-05
7.16698e-05
0.000292668
0.000300096
8.67571e-06
8.50004e-06
8.50726e-06
8.5124e-06
8.90271e-06
1.35985e-05
2.17753e-05
1.81192e-05
1.21539e-05
1.74945e-05
7.98414e-06
2.58785e-06
8.6084e-07
3.37247e-07
2.05705e-07
8.49778e-07
2.11698e-06
1.51383e-05
2.09592e-05
2.09592e-05
2.09592e-05
1.78027e-05
3.38578e-06
3.44501e-07
2.96855e-07
2.79199e-07
2.76024e-07
3.53882e-10
7.75461e-07
-8.55888e-10
1.29054e-06
3.46024e-06
4.66477e-06
3.3076e-06
2.58326e-06
2.44544e-06
1.35178e-06
5.59071e-07
2.80431e-07
3.3022e-06
8.4609e-06
1.22909e-05
1.16012e-05
2.10476e-06
9.55995e-09
3.58145e-09
4.50398e-06
5.99708e-06
5.20379e-06
1.409e-06
2.5983e-06
2.18741e-05
0.000162826
0.000164779
0.000115547
5.63305e-05
2.70177e-05
2.80205e-05
2.77324e-05
4.099e-05
3.53963e-05
1.1016e-05
2.37613e-06
1.57827e-06
1.80744e-06
2.29363e-06
5.21133e-06
8.65519e-06
3.94343e-06
4.65513e-06
1.46524e-05
0.00130577
0.00159709
0.000553268
0.000499352
0.000255519
7.32535e-05
4.18848e-05
0.000305678
0.000456219
0.000310826
8.67769e-06
8.93919e-06
9.56619e-06
2.76687e-05
3.99258e-05
3.89233e-05
0.00018929
0.000442764
0.000542551
0.000330208
0.000115812
1.75111e-05
2.31443e-09
1.98205e-09
1.43677e-09
4.9456e-11
6.11901e-10
4.2639e-06
1.79116e-05
2.07422e-05
2.03289e-05
2.01325e-05
1.33839e-06
6.83887e-07
1.09828e-06
6.7624e-07
5.22299e-12
1.46604e-11
-2.23595e-09
1.50429e-08
9.91371e-08
1.41358e-07
6.18309e-08
4.6607e-08
5.00655e-08
1.8659e-08
2.37349e-08
9.45924e-10
1.24768e-08
1.1123e-08
3.26794e-08
2.56811e-08
2.23573e-08
8.17985e-09
3.07434e-09
3.58145e-09
7.43959e-07
7.42346e-07
1.28922e-06
1.10677e-05
2.74041e-05
0.000197599
0.000346413
0.000362479
0.000312477
0.000168128
0.000124103
7.02692e-05
4.18976e-05
3.08146e-05
7.5479e-06
6.19305e-07
5.73343e-07
1.27886e-06
7.65925e-06
2.42391e-05
2.35163e-05
1.3722e-05
2.03268e-05
0.000149489
0.000369367
0.000776139
0.000268114
0.00030885
0.000484297
0.000107529
3.20195e-05
0.000101423
0.000474904
0.000525282
0.000174285
1.13974e-05
1.16727e-05
1.48797e-05
2.31206e-05
7.8171e-05
0.000472793
0.000611844
0.000614472
0.000611523
0.000603984
0.000361693
1.27948e-06
1.40837e-09
5.07342e-10
8.00475e-12
1.4579e-11
5.94334e-11
5.3799e-10
3.45731e-06
1.04951e-05
8.59118e-06
6.39787e-06
2.42786e-06
3.09802e-06
1.62495e-06
5.24867e-12
5.55535e-12
-1.27881e-11
2.99995e-10
1.97648e-09
4.51511e-09
3.03934e-09
2.14992e-09
1.5162e-09
2.687e-10
4.44664e-08
6.75532e-10
3.8033e-11
1.01987e-08
3.12951e-08
5.0677e-08
3.33393e-08
2.67444e-09
3.05086e-09
3.07434e-09
5.29137e-07
1.97953e-06
4.383e-06
1.64126e-06
5.7086e-10
2.63305e-05
0.000362479
0.000365293
0.000365087
0.000365185
0.000116447
7.49022e-06
2.69479e-06
1.1297e-06
6.90832e-07
4.54405e-07
5.13205e-07
9.14718e-07
1.58409e-05
2.31683e-05
2.10768e-05
1.57693e-05
9.66052e-05
0.00054711
0.000369823
0.000343289
0.000134694
0.000136965
0.000224454
0.000122015
1.99577e-05
2.54434e-05
0.000323151
0.00053365
0.000540912
0.000247786
1.48797e-05
1.85345e-05
2.45661e-05
0.000133822
0.00059917
0.000614472
0.000611523
0.000603984
0.000578962
0.000443318
3.55378e-05
1.98225e-09
2.06052e-08
8.00662e-12
8.00629e-12
1.47244e-11
5.913e-11
5.37795e-10
3.51202e-09
5.39389e-10
6.3181e-10
2.68348e-06
3.13419e-06
2.63935e-07
4.83657e-12
1.43375e-11
2.11551e-10
5.44326e-10
4.81939e-10
1.75475e-09
2.51415e-09
1.29783e-09
3.12068e-10
3.3668e-11
3.14918e-11
4.13377e-11
3.7292e-11
4.24937e-08
9.68686e-08
9.69142e-08
6.27073e-08
1.40825e-09
2.61965e-09
5.23517e-09
1.93938e-06
2.20824e-06
2.4448e-07
6.34623e-12
1.79536e-11
4.92974e-06
0.000361852
0.000365087
0.000365252
0.00026481
2.94467e-05
1.25551e-05
3.96208e-06
1.00969e-06
5.37424e-07
2.78787e-07
4.54405e-07
2.86229e-06
1.39957e-05
4.98686e-06
5.28506e-06
3.11785e-05
0.000164994
0.000346493
0.000191132
0.000130925
8.66959e-05
5.20974e-05
3.25573e-05
6.59627e-05
1.72422e-05
4.09886e-06
5.08586e-05
0.000494005
0.000540912
0.000541994
0.000519405
0.000401725
0.000277618
0.000529821
0.000560219
0.00055421
0.000340613
0.000343677
0.000203013
5.83168e-11
5.61795e-06
2.80481e-09
2.54652e-08
1.07777e-11
6.57815e-11
4.88083e-11
1.60881e-09
6.42904e-08
7.92242e-08
4.77189e-10
4.1461e-12
3.96875e-12
5.39419e-07
4.40953e-12
4.47034e-12
1.65553e-11
3.15292e-10
1.07355e-09
4.81939e-10
2.192e-09
1.26478e-08
5.28139e-08
3.4408e-11
3.14918e-11
3.14918e-11
6.56226e-10
3.88192e-11
1.48852e-08
7.73557e-08
2.91381e-08
4.27941e-12
4.50725e-12
6.60808e-09
3.69227e-07
1.94621e-10
1.10343e-08
6.39578e-13
6.2541e-13
6.64591e-13
1.1494e-05
0.000249404
0.000362544
0.000365087
0.000357719
0.000233221
0.000170292
0.000149084
2.35468e-05
3.10968e-07
1.75517e-07
6.28328e-07
1.07477e-06
1.44901e-06
1.56437e-06
5.89026e-06
4.86637e-05
8.75492e-05
4.85008e-05
5.53934e-05
4.65282e-05
4.03336e-05
1.99207e-05
1.19873e-05
7.46569e-06
5.32963e-06
1.61124e-06
3.42939e-06
9.46454e-05
0.000457777
0.00053502
0.000533525
0.000353187
0.000263793
0.000307945
0.000231533
1.40933e-05
1.05696e-08
8.19556e-10
5.36361e-11
3.99314e-11
1.30669e-12
7.01494e-09
9.70995e-13
9.862e-13
1.49092e-11
9.77413e-11
1.16509e-10
7.44386e-09
7.10393e-08
4.14609e-12
3.96879e-12
3.86534e-12
3.96878e-12
4.32118e-12
5.85194e-12
7.85643e-12
1.06303e-10
1.53322e-09
5.68486e-09
2.22746e-09
4.18818e-08
6.09538e-07
1.07774e-07
1.81597e-10
3.14918e-11
9.32887e-10
2.12067e-09
5.77379e-12
3.93711e-12
3.85958e-12
4.12457e-12
4.27942e-12
4.8131e-09
1.95858e-09
2.5872e-12
6.39578e-13
5.91718e-13
6.20133e-13
6.15587e-13
7.63429e-06
1.83348e-05
0.000231427
0.000371387
0.000379443
0.000381111
0.000380294
0.000380781
0.000192911
7.23508e-08
6.17757e-08
1.28455e-07
1.06212e-07
2.0975e-07
9.24466e-07
5.84195e-06
1.35677e-05
7.0619e-06
1.16888e-05
1.93995e-05
1.63532e-05
8.05488e-06
6.7027e-06
4.19198e-06
2.59771e-06
1.23478e-06
5.99828e-07
1.02182e-06
3.44567e-06
4.69788e-05
0.000140069
0.000113583
3.7374e-05
1.86404e-07
4.27118e-08
2.1618e-08
1.4969e-08
5.8141e-09
7.60657e-10
1.42465e-10
4.15259e-12
9.01157e-13
9.28681e-13
8.31778e-13
1.14553e-12
7.70847e-12
1.01433e-10
2.04579e-10
1.08563e-11
9.80332e-12
9.81779e-12
6.4381e-12
3.82951e-12
3.86534e-12
5.8007e-12
6.95013e-12
8.6366e-12
3.45743e-11
7.36511e-10
4.261e-08
1.16419e-07
4.89357e-08
6.12381e-07
5.76522e-07
1.22204e-07
9.58651e-11
1.33397e-10
5.29359e-11
3.95453e-12
3.82042e-12
3.78557e-12
5.08808e-12
7.32561e-12
4.81963e-12
3.77206e-12
3.10361e-12
2.83395e-12
5.81037e-13
7.39728e-13
6.03264e-13
5.48465e-13
2.5456e-10
1.07365e-08
9.16835e-05
0.000295327
0.000379443
0.000381112
0.000380294
0.00037896
8.26891e-06
5.8233e-08
5.79475e-08
6.80523e-08
1.06209e-07
4.2978e-07
1.60566e-06
1.23317e-06
2.19689e-06
3.72404e-06
6.4738e-06
6.19186e-06
2.38759e-06
2.35541e-06
1.49022e-06
8.93626e-07
4.34809e-07
2.09124e-07
3.02374e-07
1.00145e-06
2.22537e-06
1.93853e-06
8.30231e-07
6.77906e-07
4.50563e-08
2.50446e-08
2.2888e-08
4.10821e-08
7.40836e-08
4.65624e-08
1.10415e-09
2.1149e-12
8.76383e-13
8.31778e-13
8.26378e-13
1.24424e-12
3.22612e-12
1.88275e-11
1.07249e-10
1.48655e-10
2.99676e-11
1.23009e-11
6.67826e-12
3.82245e-12
4.13418e-12
5.64182e-12
6.92008e-12
8.14329e-12
1.04703e-09
1.62609e-08
4.39444e-08
5.42089e-07
4.62162e-06
3.30667e-07
5.24842e-07
3.04439e-07
6.61613e-09
1.85762e-11
1.28765e-11
6.71039e-12
3.79944e-12
3.8254e-12
4.48272e-12
6.6896e-12
9.18764e-12
1.4485e-11
1.44864e-11
4.7027e-12
4.72991e-13
4.22608e-13
4.30589e-13
4.5234e-13
2.57434e-12
2.5576e-11
6.45931e-10
1.41779e-08
0.000108087
0.000291158
0.00037896
0.00037061
0.000266352
5.73811e-08
5.55239e-08
5.76699e-08
7.09204e-08
1.23901e-07
2.07168e-07
3.68669e-07
6.89241e-07
1.18714e-06
2.14801e-06
2.92473e-06
8.07816e-07
9.00406e-07
6.4622e-07
3.48169e-07
1.66245e-07
7.25225e-08
8.73657e-08
2.59627e-07
4.88957e-07
3.8163e-07
1.8005e-07
1.1482e-07
2.47553e-08
2.28927e-08
2.28927e-08
9.4448e-08
9.60615e-08
6.50197e-08
1.40068e-09
2.50605e-12
1.10833e-12
1.17115e-12
7.79553e-13
1.13805e-12
2.40018e-12
2.08894e-12
8.47575e-12
4.93286e-11
7.88166e-12
7.3065e-12
3.58588e-12
1.55172e-12
1.94155e-12
3.66213e-12
5.22063e-12
5.91582e-12
3.61945e-09
4.97888e-08
4.98738e-08
5.88509e-07
9.32737e-06
3.16982e-10
4.35331e-08
1.57436e-07
1.74635e-08
4.77619e-11
6.12252e-11
7.06459e-12
1.53821e-12
1.25516e-12
1.62107e-12
2.53927e-12
7.38729e-12
1.24773e-11
7.42958e-12
2.19175e-12
3.69703e-13
4.21797e-13
6.78759e-13
8.76158e-13
1.29054e-12
3.16834e-12
2.55639e-11
9.47373e-11
9.58987e-10
1.75888e-08
8.02666e-05
0.000325007
0.000324104
0.000161265
5.59668e-08
5.49686e-08
5.70956e-08
6.31968e-08
8.53341e-08
1.27822e-07
2.45958e-07
4.37004e-07
7.89137e-07
1.79876e-06
2.88879e-07
4.24335e-07
3.74734e-07
1.66749e-07
7.29483e-08
2.88803e-08
2.77357e-08
6.80832e-08
1.11608e-07
8.64398e-08
3.4283e-08
2.35993e-08
2.51915e-08
2.47553e-08
2.19692e-08
5.12765e-08
5.11945e-08
8.52375e-11
1.20243e-11
5.97376e-12
5.11153e-12
2.59469e-12
7.5005e-13
4.80223e-13
9.88531e-13
7.56586e-13
7.09463e-13
1.00786e-12
1.14791e-12
1.211e-12
8.41454e-13
4.3552e-13
8.03271e-13
2.09994e-12
3.71231e-12
4.26254e-12
3.37457e-09
4.81725e-08
5.03303e-08
1.77544e-07
9.34397e-06
2.96652e-10
2.9364e-10
2.94643e-10
1.11963e-09
8.94442e-10
1.45619e-10
3.6431e-12
3.58989e-13
3.01633e-13
4.33179e-13
6.34776e-13
1.23928e-12
3.0055e-12
1.53836e-12
6.00667e-13
2.02727e-13
4.26705e-13
1.88038e-12
6.97101e-12
1.50904e-11
1.94439e-11
2.62397e-11
4.03143e-11
9.65934e-11
9.78111e-10
1.182e-08
5.42596e-08
9.86502e-05
0.000166362
1.38637e-05
5.5533e-08
5.32258e-08
4.86896e-08
5.11388e-08
6.28385e-08
1.23024e-07
2.13069e-07
3.75713e-07
1.46742e-06
1.33331e-07
2.65251e-07
3.67061e-07
2.85106e-07
1.01175e-07
1.43691e-08
1.21899e-08
2.14568e-08
3.08308e-08
2.89171e-08
2.35993e-08
2.35993e-08
2.35956e-08
2.65547e-08
1.18057e-08
1.43348e-09
1.87377e-10
6.26867e-11
5.48983e-11
3.46949e-11
1.69931e-11
4.7947e-12
7.67275e-13
1.46256e-13
1.7131e-13
1.6388e-13
2.68577e-13
6.0334e-13
2.63453e-13
1.84887e-13
1.11916e-13
1.36089e-13
4.85173e-13
1.67566e-12
3.53736e-12
5.41809e-12
5.06511e-10
2.86749e-09
4.5838e-09
1.11277e-10
9.3521e-06
5.19702e-08
2.95382e-10
2.9364e-10
6.90094e-10
7.76496e-10
1.45083e-10
1.93669e-12
1.38261e-13
6.08689e-14
7.41202e-14
9.24477e-14
1.57417e-13
2.4373e-13
1.43243e-13
6.81718e-14
6.55446e-14
4.03836e-13
3.03519e-12
1.69298e-11
5.93663e-11
1.25496e-10
1.57285e-10
1.24946e-10
2.57263e-10
1.00029e-09
6.39154e-09
1.65072e-08
6.92078e-07
2.41944e-05
4.03127e-05
4.37014e-06
4.86896e-08
4.49786e-08
4.23799e-08
4.51592e-08
6.48059e-08
1.35962e-07
2.62008e-07
5.85662e-07
8.51741e-08
1.86607e-07
3.94909e-07
4.37736e-07
1.35407e-07
9.75634e-09
9.31983e-09
1.08357e-08
1.46595e-08
2.04519e-08
2.38677e-08
2.35993e-08
3.12025e-08
9.3686e-08
5.21733e-08
5.66589e-09
6.28442e-10
1.81708e-10
1.53905e-10
8.04039e-11
3.00257e-11
7.26661e-12
9.31821e-13
9.25141e-14
1.48867e-14
9.8629e-15
8.76092e-15
1.70738e-14
1.30295e-14
1.43087e-14
1.90991e-14
7.75448e-14
4.10508e-13
1.54941e-12
3.66124e-12
1.70502e-11
6.93734e-11
5.99728e-11
5.99722e-11
7.03134e-11
9.36045e-06
2.99537e-07
3.16874e-10
2.95382e-10
7.08265e-10
4.57641e-10
3.77326e-11
3.0359e-13
7.24305e-14
1.48106e-14
8.30466e-15
8.99817e-15
8.30855e-15
6.82929e-15
4.1034e-15
3.73263e-15
3.36461e-14
4.09535e-13
4.04029e-12
2.49997e-11
9.67025e-11
2.41845e-10
3.98852e-10
3.10264e-10
1.1287e-09
5.65724e-09
1.57745e-08
5.83828e-08
2.74502e-07
2.89841e-07
1.7847e-05
4.35501e-06
3.71928e-07
4.23799e-08
4.06988e-08
4.08133e-08
4.40281e-08
2.34353e-07
2.76776e-07
1.09929e-07
7.22559e-08
9.73218e-08
4.37292e-07
4.37292e-07
9.3041e-08
9.252e-09
9.4313e-09
9.43129e-09
1.08379e-08
1.46596e-08
2.04519e-08
3.12187e-08
7.25053e-06
9.45926e-07
3.78738e-07
7.11523e-08
2.23145e-08
4.60733e-10
1.90155e-10
1.09979e-10
4.56379e-11
1.11334e-11
1.43941e-12
1.04251e-13
7.70596e-15
1.28672e-15
9.44937e-16
1.1111e-15
1.50923e-15
2.2763e-15
9.20209e-15
6.45066e-14
3.98906e-13
1.56124e-12
3.69175e-12
2.15771e-11
9.20039e-11
5.99728e-11
6.74737e-11
4.28167e-08
9.36165e-06
5.4826e-07
3.99891e-10
3.68143e-10
4.36176e-10
1.31414e-10
4.25204e-12
1.72875e-13
4.91541e-14
7.68613e-15
1.20925e-15
7.95999e-16
7.95939e-16
5.93812e-16
4.37148e-16
2.42506e-15
4.07125e-14
6.07926e-13
6.16176e-12
3.80468e-11
1.42803e-10
3.33747e-10
5.87784e-10
1.32571e-09
5.4332e-09
3.68086e-08
9.7056e-08
2.07899e-07
2.89841e-07
4.74403e-07
4.26144e-07
1.18871e-07
7.93711e-08
4.06988e-08
4.03585e-08
4.00181e-08
4.05984e-08
2.19541e-07
2.69207e-07
6.74877e-08
6.18276e-08
5.27724e-08
2.69276e-07
3.64306e-07
2.74498e-08
9.75634e-09
9.4313e-09
1.0709e-08
1.84423e-06
0.00010595
0.000123666
0.000260992
0.000325841
9.7145e-05
2.39235e-06
2.26464e-06
9.70005e-08
1.02977e-09
2.16943e-10
1.17189e-10
6.56824e-11
1.80141e-11
2.45731e-12
1.91881e-13
9.92756e-15
5.001e-16
8.70487e-17
9.97723e-17
1.68797e-16
7.53918e-16
7.32814e-15
6.15794e-14
4.09318e-13
1.62649e-12
3.65259e-12
2.02531e-11
8.72895e-11
6.74737e-11
1.65282e-10
4.58149e-07
9.36165e-06
5.29509e-07
4.48336e-10
4.01758e-10
1.06081e-10
2.15358e-11
8.83906e-13
1.39101e-13
3.85191e-14
5.83888e-15
6.50296e-16
8.36684e-17
4.31399e-17
4.28456e-17
1.86967e-16
3.59627e-15
7.14009e-14
1.04197e-12
1.03055e-11
6.17214e-11
2.17118e-10
4.40898e-10
9.61125e-10
1.29731e-08
3.01783e-08
2.2041e-07
1.2341e-06
0.000106251
0.000109257
7.4099e-05
0.00010671
1.55674e-05
1.17839e-07
4.26596e-08
4.00097e-08
4.00079e-08
3.99318e-08
5.70248e-08
1.86786e-07
5.59579e-08
3.90262e-08
1.95923e-08
3.05293e-08
4.04047e-08
2.47734e-08
1.12878e-08
6.80394e-08
1.29017e-05
0.000358681
0.000418398
0.000433234
0.000433234
0.000433234
0.000404728
0.000126539
1.03374e-05
1.69417e-07
5.19453e-09
6.22276e-10
1.14651e-10
7.3995e-11
2.76967e-11
4.36567e-12
3.63614e-13
2.10342e-14
9.15371e-16
3.40739e-17
2.00534e-17
4.57541e-17
5.91215e-16
6.99534e-15
6.06547e-14
4.09264e-13
1.62056e-12
3.55583e-12
1.52068e-11
4.08524e-11
1.51931e-10
1.1104e-09
9.45849e-07
9.36148e-06
2.22777e-07
5.45764e-10
5.68197e-10
7.03171e-11
8.35485e-12
5.71006e-13
1.2316e-13
3.25672e-14
4.96933e-15
5.38476e-16
4.19391e-17
7.08432e-18
1.31855e-17
2.83263e-16
7.03505e-15
1.29618e-13
1.8655e-12
1.77609e-11
9.90792e-11
2.97509e-10
5.80921e-10
3.60052e-09
9.33743e-08
1.44394e-07
1.0125e-05
8.86962e-05
0.000351279
0.000351279
0.000351279
0.00034124
0.00032626
2.55719e-05
1.31475e-07
4.1972e-08
3.99318e-08
3.98662e-08
3.99318e-08
4.57095e-08
4.88162e-08
2.63586e-09
9.42399e-09
1.65801e-08
2.75118e-08
3.09569e-08
2.40507e-08
2.18201e-07
6.50787e-05
0.000373366
0.000389086
0.000200078
0.000203242
0.00032949
0.000407615
0.000298008
2.72936e-05
2.18943e-07
1.80633e-08
2.20388e-09
2.44254e-10
6.20663e-11
3.79716e-11
7.90968e-12
6.92818e-13
3.91242e-14
1.8379e-15
5.5859e-17
2.00534e-17
3.90017e-17
5.5694e-16
6.79426e-15
5.87469e-14
3.85628e-13
1.4896e-12
3.2817e-12
9.58343e-12
1.16263e-11
1.5347e-10
9.83014e-07
5.41127e-06
8.87532e-06
1.35109e-08
9.65185e-10
6.39757e-10
4.35615e-11
6.63298e-12
5.01582e-13
1.13907e-13
2.79494e-14
4.35573e-15
4.70838e-16
3.51406e-17
7.08432e-18
2.05278e-17
6.07438e-16
1.3539e-14
2.51558e-13
3.5449e-12
3.07373e-11
1.32647e-10
3.73723e-10
1.39911e-09
1.2488e-08
2.71329e-07
3.73661e-06
5.64379e-05
0.000160974
0.000320931
0.000234584
0.000203974
0.00033248
0.000332013
7.12182e-05
3.06803e-07
4.60813e-08
3.99011e-08
3.99011e-08
3.98795e-08
4.13543e-08
4.5832e-08
5.57382e-10
1.83522e-05
3.07214e-05
4.58656e-08
3.34356e-08
4.63902e-08
2.89009e-05
0.000495448
0.000200842
0.000142974
9.06837e-05
9.06837e-05
9.06837e-05
0.000405199
0.000247585
2.95824e-05
4.84982e-07
6.36413e-08
8.60034e-09
8.40709e-10
1.06562e-10
4.66764e-11
1.26438e-11
1.22521e-12
6.89252e-14
3.18734e-15
1.09176e-16
2.11968e-17
3.76187e-17
5.22197e-16
6.26591e-15
5.328e-14
3.31659e-13
1.19824e-12
2.82873e-12
3.91366e-12
6.9788e-12
3.01918e-10
3.37631e-06
1.4116e-05
4.20147e-06
1.15944e-11
1.01233e-09
4.92556e-10
1.48962e-11
5.24216e-12
4.07732e-13
1.01372e-13
2.22745e-14
3.58795e-15
3.8159e-16
2.86422e-17
7.35161e-18
3.97061e-17
1.12108e-15
2.51084e-14
4.82174e-13
6.88118e-12
4.55911e-11
1.43356e-10
5.94763e-10
5.10025e-09
4.37244e-08
4.59848e-07
1.89895e-05
0.000102101
0.000142422
6.57817e-05
6.57817e-05
6.57817e-05
0.000165409
0.000322658
0.000468058
8.8661e-05
5.7808e-08
4.41465e-08
3.99011e-08
6.90846e-07
4.69772e-08
4.88162e-08
1.02397e-10
3.22637e-05
0.00014666
3.1445e-06
4.63902e-08
7.60872e-06
0.000394371
0.000546694
0.000420801
0.000104873
9.91308e-05
9.06837e-05
0.000397465
0.000536114
0.00033306
1.98407e-05
1.21295e-06
1.73263e-07
2.47676e-08
2.53527e-09
2.83622e-10
4.15286e-11
1.52812e-11
1.98474e-12
1.05643e-13
4.55888e-15
1.50843e-16
2.55541e-17
3.49768e-17
4.37023e-16
5.12284e-15
4.22761e-14
2.42544e-13
8.98986e-13
2.69176e-12
5.99157e-12
7.19898e-12
1.95018e-10
3.7763e-06
1.41326e-05
8.85261e-06
1.09803e-11
5.18251e-10
3.26349e-10
3.57454e-12
2.39508e-12
3.42563e-13
8.07513e-14
1.55281e-14
2.45726e-15
2.5561e-16
2.02552e-17
8.69305e-18
5.63697e-17
1.64126e-15
3.80652e-14
7.81147e-13
9.9214e-12
4.88234e-11
1.78116e-10
1.56193e-09
1.26452e-08
1.14644e-07
1.32834e-06
2.3932e-05
0.000225267
0.000468514
0.000297544
6.57817e-05
6.80546e-05
7.03276e-05
0.000154779
0.000499828
0.000439033
3.67585e-05
5.7808e-08
1.3199e-05
5.30843e-05
5.18397e-08
4.88447e-08
2.27873e-11
1.23587e-07
0.000187162
0.000206759
0.00010725
0.000372745
0.00054669
0.000552699
0.000553211
0.000461451
0.000333406
0.000546519
0.000545991
0.000539198
0.000530381
6.56618e-05
2.4516e-06
3.57984e-07
4.39043e-08
4.60786e-09
4.87025e-10
5.68733e-11
1.45156e-11
2.16e-12
1.20302e-13
4.76518e-15
1.48849e-16
2.65793e-17
2.73001e-17
3.13213e-16
3.55032e-15
2.8837e-14
1.67145e-13
7.3091e-13
2.69882e-12
8.44229e-12
8.64572e-12
6.10104e-11
2.30723e-06
1.41326e-05
1.41282e-05
1.02541e-11
2.1853e-10
2.02467e-10
2.67085e-12
1.71243e-12
3.03365e-13
6.07969e-14
1.04494e-14
1.44815e-15
1.44818e-16
1.29283e-17
1.10883e-17
5.19847e-17
1.68971e-15
4.1627e-14
8.90282e-13
8.39684e-12
3.46496e-11
3.00003e-10
2.91459e-09
2.91128e-08
2.49234e-07
1.7945e-06
5.77537e-05
0.000481379
0.000484275
0.000488285
0.000463553
0.000125965
0.00018584
0.000499828
0.000504198
0.000499828
0.000425025
0.00026274
0.000287286
2.61571e-05
3.4172e-08
6.9764e-07
1.48068e-11
-3.73637e-09
4.99171e-05
0.000198032
0.000508362
0.000542398
0.000552699
0.000553208
0.000553208
0.000554705
0.000556184
0.00055386
0.000552151
0.000542908
0.000354131
5.70879e-05
3.02396e-06
4.58922e-07
5.7899e-08
6.16834e-09
5.72801e-10
6.82905e-11
7.10459e-12
1.39029e-12
1.00798e-13
3.70428e-15
1.10545e-16
1.79347e-17
1.94489e-17
2.14679e-16
2.39033e-15
2.02843e-14
1.31784e-13
6.7236e-13
3.40795e-12
9.52752e-12
8.68127e-12
1.86683e-11
1.05222e-06
1.41326e-05
1.40827e-05
9.89425e-12
8.09625e-11
8.95563e-11
4.35861e-12
1.68767e-12
2.87648e-13
5.12187e-14
8.12624e-15
9.75977e-16
9.2536e-17
8.46019e-18
6.79887e-18
3.35113e-17
1.13313e-15
3.12752e-14
5.37684e-13
3.74437e-12
3.61042e-11
3.3144e-10
3.81519e-09
3.78428e-08
3.17027e-07
2.19888e-06
4.71519e-05
0.000353371
0.000488285
0.000490297
0.000488285
0.000490982
0.000499415
0.000504198
0.000504198
0.000504198
0.000497823
0.000474727
0.000177167
3.98647e-08
2.93697e-08
8.5356e-07
1.48356e-11
-6.6553e-10
1.90189e-07
3.68573e-05
0.000137334
0.000257876
0.000466004
0.000552699
0.000554705
0.000555582
0.000554689
0.000554689
0.000346714
3.23262e-05
8.11677e-05
0.000114087
1.48468e-05
4.32609e-07
5.32802e-08
5.57524e-09
5.04812e-10
5.71884e-11
4.39204e-12
5.26648e-13
3.22037e-14
1.06921e-15
2.60111e-17
8.16577e-18
1.49498e-17
1.70948e-16
1.89141e-15
1.70343e-14
1.21316e-13
6.66466e-13
4.37609e-12
9.9196e-12
7.04192e-12
8.66222e-12
5.49845e-07
1.41309e-05
5.96632e-06
7.83004e-12
2.21321e-11
2.92315e-11
6.7465e-12
2.43676e-12
2.86272e-13
4.84655e-14
7.3643e-15
8.31424e-16
7.68841e-17
6.56731e-18
2.69546e-18
7.54672e-18
2.43105e-16
7.49447e-15
1.51224e-13
1.59654e-12
1.93491e-11
1.8e-10
1.80886e-09
1.69939e-08
1.35183e-07
8.86009e-07
5.03655e-06
3.16589e-05
0.00035092
0.000490322
0.000490136
0.000492979
0.000497862
0.000499642
0.000504198
0.000497823
0.000290183
0.000120505
6.46161e-06
7.48329e-09
2.09362e-09
2.2722e-07
1.48356e-11
-1.50831e-11
2.49916e-08
9.53601e-07
2.90361e-06
5.47713e-06
2.95565e-05
9.22276e-05
0.000142583
0.000144527
0.000114443
4.09635e-05
1.47465e-06
7.39745e-06
8.45585e-05
6.99275e-05
7.2991e-06
1.92011e-07
2.26956e-08
2.31486e-09
2.11381e-10
2.30434e-11
1.61728e-12
9.27914e-14
4.5355e-15
1.9428e-16
8.68255e-18
2.31164e-18
1.32328e-17
1.6026e-16
1.76681e-15
1.63162e-14
1.20194e-13
7.39733e-13
4.721e-12
9.9101e-12
6.60606e-12
6.81042e-12
1.0747e-06
1.40975e-05
2.72834e-11
5.02112e-12
5.60804e-12
1.17586e-11
7.80343e-12
3.12638e-12
3.34607e-13
4.81969e-14
7.19572e-15
8.03127e-16
7.44761e-17
5.99318e-18
8.85202e-19
2.83856e-18
5.80134e-17
1.3169e-15
2.61443e-14
4.5481e-13
6.71607e-12
7.53042e-11
5.9663e-10
5.4933e-09
4.15658e-08
5.28222e-07
1.05131e-05
1.8851e-05
1.12305e-05
3.49618e-05
7.75679e-05
0.000130065
0.000229833
0.000268672
0.000132974
5.55897e-05
9.64207e-06
3.08885e-06
1.71903e-07
-3.14569e-09
1.64444e-10
3.39291e-10
2.43011e-11
2.11326e-12
5.65457e-10
8.52519e-08
2.31254e-07
3.56567e-07
4.93059e-07
5.69977e-07
5.00114e-07
3.51943e-07
1.325e-06
5.412e-07
1.01033e-06
1.89614e-05
5.67132e-05
2.74278e-05
6.6466e-07
2.28475e-08
2.55803e-09
2.59313e-10
3.38633e-11
2.98351e-12
2.16046e-13
1.34624e-14
6.96153e-16
3.00658e-17
1.59645e-18
1.34394e-18
1.35316e-17
1.64497e-16