/*--------------------------------*- C++ -*----------------------------------*\
| =========                 |                                                 |
| \\      /  F ield         | OpenFOAM: The Open Source CFD Toolbox           |
|  \\    /   O peration     | Version:  2412                                  |
|   \\  /    A nd           | Website:  www.openfoam.com                      |
|    \\/     M anipulation  |                                                 |
\*---------------------------------------------------------------------------*/
FoamFile
{
    version     2.0;
    format      ascii;
    arch        "LSB;label=32;scalar=64";
    class       volScalarField;
    location    "5.35";
    object      p;
}
// * * * * * * * * * * * * * * * * * * * * * * * * * * * * * * * * * * * * * //

dimensions      [1 -1 -2 0 0 0 0];

internalField   nonuniform List<scalar> 
6400
(
7493.92
7494.75
7496.3
7498.62
7501.68
7505.43
7509.83
7514.83
7520.38
7526.41
7532.84
7539.61
7546.61
7553.76
7560.97
7568.15
7575.2
7582.05
7588.61
7594.82
7600.61
7605.95
7610.78
7615.1
7618.88
7622.15
7624.91
7627.18
7629.02
7630.46
7631.55
7632.34
7632.91
7633.28
7633.51
7633.63
7633.7
7633.73
7633.75
7633.77
7633.81
7633.87
7633.92
7633.97
7633.98
7633.93
7633.77
7633.46
7632.97
7632.22
7631.18
7629.79
7628
7625.76
7623.05
7619.83
7616.08
7611.82
7607.03
7601.76
7596.03
7589.89
7583.41
7576.66
7569.71
7562.65
7555.57
7548.56
7541.71
7535.1
7528.82
7522.94
7517.54
7512.68
7508.41
7504.78
7501.81
7499.55
7498.02
7497.2
7106.1
7106.89
7108.49
7110.85
7113.94
7117.74
7122.19
7127.25
7132.87
7138.98
7145.5
7152.35
7159.45
7166.7
7174
7181.27
7188.42
7195.35
7201.99
7208.26
7214.11
7219.48
7224.34
7228.66
7232.45
7235.69
7238.42
7240.66
7242.45
7243.83
7244.86
7245.6
7246.09
7246.4
7246.57
7246.65
7246.67
7246.67
7246.67
7246.69
7246.73
7246.79
7246.87
7246.94
7246.99
7246.99
7246.89
7246.64
7246.21
7245.53
7244.55
7243.22
7241.48
7239.28
7236.6
7233.39
7229.65
7225.37
7220.56
7215.24
7209.46
7203.26
7196.7
7189.86
7182.82
7175.67
7168.5
7161.39
7154.44
7147.75
7141.39
7135.44
7129.98
7125.06
7120.74
7117.06
7114.06
7111.78
7110.22
7109.39
6717.49
6718.33
6719.95
6722.36
6725.52
6729.4
6733.95
6739.14
6744.89
6751.15
6757.84
6764.86
6772.14
6779.57
6787.07
6794.52
6801.84
6808.93
6815.71
6822.11
6828.06
6833.51
6838.42
6842.76
6846.54
6849.75
6852.42
6854.59
6856.28
6857.55
6858.47
6859.08
6859.45
6859.65
6859.71
6859.7
6859.65
6859.59
6859.55
6859.55
6859.59
6859.67
6859.79
6859.92
6860.05
6860.14
6860.14
6860.01
6859.69
6859.13
6858.27
6857.05
6855.4
6853.28
6850.66
6847.48
6843.75
6839.44
6834.58
6829.18
6823.29
6816.96
6810.26
6803.26
6796.05
6788.72
6781.36
6774.07
6766.94
6760.08
6753.56
6747.46
6741.87
6736.84
6732.43
6728.67
6725.62
6723.3
6721.74
6720.76
6328.06
6328.96
6330.62
6333.1
6336.36
6340.37
6345.08
6350.44
6356.4
6362.89
6369.83
6377.12
6384.67
6392.39
6400.16
6407.89
6415.47
6422.81
6429.81
6436.4
6442.5
6448.06
6453.04
6457.42
6461.19
6464.35
6466.93
6468.97
6470.52
6471.63
6472.37
6472.8
6473
6473.03
6472.94
6472.8
6472.63
6472.49
6472.39
6472.36
6472.4
6472.51
6472.69
6472.91
6473.15
6473.36
6473.52
6473.56
6473.42
6473.04
6472.35
6471.29
6469.79
6467.79
6465.25
6462.13
6458.4
6454.06
6449.12
6443.61
6437.56
6431.04
6424.11
6416.86
6409.39
6401.78
6394.14
6386.57
6379.17
6372.05
6365.29
6358.98
6353.2
6348
6343.44
6339.58
6336.43
6334.04
6332.45
6331.39
5937.81
5938.73
5940.47
5943.05
5946.45
5950.62
5955.54
5961.14
5967.38
5974.18
5981.45
5989.11
5997.04
6005.14
6013.3
6021.4
6029.34
6037.01
6044.31
6051.16
6057.47
6063.19
6068.27
6072.68
6076.42
6079.51
6081.97
6083.84
6085.18
6086.07
6086.57
6086.76
6086.72
6086.52
6086.23
6085.91
6085.59
6085.34
6085.16
6085.09
6085.13
6085.28
6085.53
6085.87
6086.26
6086.66
6087.02
6087.28
6087.39
6087.25
6086.81
6085.97
6084.67
6082.84
6080.42
6077.37
6073.66
6069.28
6064.23
6058.56
6052.29
6045.51
6038.28
6030.69
6022.85
6014.87
6006.84
5998.9
5991.13
5983.66
5976.58
5969.97
5963.92
5958.5
5953.76
5949.73
5946.46
5943.98
5942.32
5941.24
5546.67
5547.62
5549.45
5552.16
5555.73
5560.11
5565.29
5571.2
5577.79
5584.99
5592.7
5600.81
5609.23
5617.82
5626.48
5635.07
5643.47
5651.57
5659.26
5666.44
5673.02
5678.94
5684.14
5688.6
5692.31
5695.29
5697.58
5699.22
5700.3
5700.89
5701.07
5700.95
5700.6
5700.11
5699.55
5699
5698.5
5698.09
5697.82
5697.7
5697.74
5697.94
5698.29
5698.78
5699.35
5699.99
5700.61
5701.17
5701.59
5701.77
5701.64
5701.11
5700.07
5698.46
5696.21
5693.26
5689.57
5685.14
5679.97
5674.08
5667.54
5660.41
5652.79
5644.76
5636.46
5627.99
5619.48
5611.04
5602.8
5594.88
5587.38
5580.39
5574.01
5568.31
5563.32
5559.11
5555.68
5553.07
5551.32
5550.28
5154.59
5155.59
5157.52
5160.39
5164.15
5168.79
5174.28
5180.57
5187.6
5195.28
5203.53
5212.22
5221.23
5230.44
5239.72
5248.92
5257.9
5266.54
5274.71
5282.31
5289.22
5295.38
5300.74
5305.25
5308.91
5311.75
5313.81
5315.17
5315.9
5316.1
5315.88
5315.35
5314.61
5313.75
5312.87
5312.03
5311.29
5310.71
5310.32
5310.14
5310.18
5310.44
5310.91
5311.57
5312.39
5313.31
5314.27
5315.19
5316
5316.6
5316.87
5316.72
5316.03
5314.72
5312.68
5309.87
5306.22
5301.73
5296.4
5290.26
5283.37
5275.81
5267.69
5259.12
5250.22
5241.14
5232.01
5222.97
5214.15
5205.67
5197.65
5190.21
5183.42
5177.36
5172.1
5167.65
5164.04
5161.29
5159.43
5158.42
4761.51
4762.57
4764.63
4767.67
4771.66
4776.59
4782.44
4789.18
4796.74
4805.02
4813.91
4823.29
4833.04
4843
4853.03
4862.97
4872.66
4881.96
4890.73
4898.83
4906.16
4912.62
4918.15
4922.72
4926.31
4928.97
4930.74
4931.71
4932
4931.71
4930.99
4929.95
4928.72
4927.41
4926.12
4924.94
4923.92
4923.13
4922.59
4922.33
4922.37
4922.71
4923.33
4924.21
4925.31
4926.57
4927.94
4929.32
4930.62
4931.73
4932.51
4932.85
4932.61
4931.67
4929.92
4927.29
4923.71
4919.15
4913.62
4907.17
4899.85
4891.76
4883.03
4873.78
4864.17
4854.35
4844.46
4834.68
4825.14
4815.99
4807.35
4799.35
4792.07
4785.61
4780.01
4775.3
4771.5
4768.59
4766.62
4765.57
4367.35
4368.5
4370.7
4373.93
4378.15
4383.41
4389.69
4396.97
4405.15
4414.13
4423.8
4434.01
4444.62
4455.48
4466.41
4477.25
4487.81
4497.91
4507.4
4516.12
4523.94
4530.77
4536.51
4541.13
4544.62
4547.03
4548.43
4548.91
4548.64
4547.74
4546.38
4544.72
4542.89
4541.03
4539.26
4537.66
4536.31
4535.26
4534.56
4534.22
4534.26
4534.68
4535.47
4536.6
4538.04
4539.72
4541.58
4543.52
4545.42
4547.15
4548.57
4549.52
4549.84
4549.39
4548.02
4545.62
4542.13
4537.51
4531.75
4524.92
4517.08
4508.35
4498.87
4488.81
4478.33
4467.61
4456.81
4446.14
4435.75
4425.8
4416.42
4407.75
4399.9
4392.95
4386.97
4381.98
4377.97
4374.91
4372.8
4371.67
3972.01
3973.31
3975.67
3979.06
3983.5
3989.11
3995.9
4003.81
4012.74
4022.55
4033.13
4044.32
4055.96
4067.88
4079.9
4091.82
4103.39
4114.45
4124.81
4134.28
4142.7
4149.96
4155.94
4160.62
4163.97
4166.06
4166.99
4166.82
4165.85
4164.19
4162.05
4159.61
4157.06
4154.54
4152.19
4150.1
4148.37
4147.03
4146.13
4145.7
4145.74
4146.26
4147.24
4148.66
4150.49
4152.67
4155.11
4157.71
4160.35
4162.86
4165.06
4166.78
4167.81
4167.98
4167.08
4165.01
4161.65
4156.96
4150.94
4143.64
4135.17
4125.67
4115.3
4104.25
4092.72
4080.94
4069.05
4057.31
4045.92
4035.02
4024.78
4015.33
4006.78
3999.26
3992.83
3987.55
3983.37
3980.17
3977.92
3976.65
3575.41
3576.99
3579.41
3582.79
3587.38
3593.41
3600.87
3609.58
3619.41
3630.21
3641.85
3654.18
3667.02
3680.19
3693.48
3706.7
3719.47
3731.68
3743.08
3753.45
3762.6
3770.36
3776.64
3781.36
3784.52
3786.19
3786.48
3785.55
3783.67
3781.05
3777.94
3774.56
3771.12
3767.82
3764.79
3762.15
3759.97
3758.31
3757.2
3756.66
3756.7
3757.33
3758.53
3760.29
3762.57
3765.31
3768.44
3771.84
3775.35
3778.81
3781.99
3784.67
3786.59
3787.54
3787.27
3785.6
3782.42
3777.67
3771.33
3763.49
3754.27
3743.83
3732.38
3720.14
3707.36
3694.23
3681.11
3668.16
3655.59
3643.59
3632.34
3621.97
3612.59
3604.34
3597.32
3591.69
3587.42
3584.27
3581.97
3580.45
3177.75
3179.36
3181.54
3184.55
3189.18
3195.84
3204.32
3214.08
3225.04
3237.02
3249.89
3263.52
3277.75
3292.37
3307.14
3321.76
3336.1
3349.7
3362.35
3373.8
3383.81
3392.2
3398.81
3403.57
3406.47
3407.58
3407.06
3405.15
3402.13
3398.31
3393.99
3389.46
3384.97
3380.74
3376.93
3373.65
3370.97
3368.95
3367.61
3366.96
3367
3367.75
3369.2
3371.33
3374.11
3377.51
3381.44
3385.78
3390.36
3394.96
3399.35
3403.22
3406.27
3408.21
3408.73
3407.61
3404.67
3399.85
3393.15
3384.65
3374.51
3362.95
3350.2
3336.55
3322.32
3307.66
3293.03
3278.62
3264.69
3251.43
3239.02
3227.55
3217.14
3207.89
3199.96
3193.78
3189.54
3186.82
3184.79
3183.24
2779.14
2780.46
2781.83
2784.09
2788.76
2796.25
2805.92
2817.21
2829.56
2842.88
2857.14
2872.26
2888.09
2904.4
2920.91
2937.34
2953.44
2968.63
2982.76
2995.5
3006.56
3015.7
3022.73
3027.52
3030.07
3030.46
3028.9
3025.7
3021.25
3015.93
3010.12
3004.19
2998.43
2993.09
2988.39
2984.4
2981.19
2978.78
2977.19
2976.41
2976.47
2977.34
2979.05
2981.59
2984.94
2989.08
2993.93
2999.37
3005.22
3011.23
3017.1
3022.48
3026.96
3030.15
3031.7
3031.27
3028.66
3023.77
3016.62
3007.32
2996.08
2983.16
2968.86
2953.51
2937.41
2921.07
2904.69
2888.62
2873.12
2858.42
2844.69
2831.98
2820.32
2809.72
2800.65
2793.71
2789.51
2787.58
2786.4
2785.16
2379.73
2380.5
2380.79
2382.33
2387.05
2395.32
2406.42
2419.15
2432.92
2447.69
2463.48
2480.27
2497.91
2516.16
2534.72
2553.21
2571.21
2588.51
2604.46
2618.76
2631.1
2641.16
2648.69
2653.52
2655.62
2655.08
2652.17
2647.33
2641.05
2633.83
2626.18
2618.54
2611.27
2604.61
2598.94
2594.18
2590.39
2587.57
2585.71
2584.81
2584.86
2585.87
2587.85
2590.82
2594.78
2599.74
2605.64
2612.38
2619.75
2627.48
2635.19
2642.45
2648.74
2653.57
2656.44
2656.92
2654.74
2649.77
2642.05
2631.76
2619.18
2604.63
2588.48
2571.13
2552.96
2534.47
2516.03
2498.01
2480.73
2464.41
2449.23
2435.22
2422.28
2410.4
2400.11
2392.51
2388.31
2387.13
2387.03
2386.35
1979.5
1979.75
1979.36
1980.53
1985.25
1993.99
2005.95
2019.87
2034.94
2051.32
2068.71
2087.33
2107.03
2127.54
2148.49
2169.43
2189.91
2209.56
2227.6
2243.77
2257.66
2268.88
2277.07
2281.97
2283.5
2281.77
2277.09
2270.13
2261.5
2251.9
2241.97
2232.27
2223.24
2215.19
2208.31
2202.69
2198.28
2195.04
2192.91
2191.87
2191.91
2193.05
2195.29
2198.69
2203.29
2209.13
2216.21
2224.45
2233.64
2243.46
2253.47
2263.11
2271.75
2278.69
2283.3
2284.97
2283.33
2278.25
2269.81
2258.28
2244.05
2227.53
2209.14
2189.33
2168.71
2147.73
2126.87
2106.6
2087.29
2069.14
2052.47
2037.11
2023.06
2010.21
1999.32
1991.41
1987.28
1986.46
1987.01
1986.81
1578.16
1577.97
1577.65
1578.64
1583.15
1591.98
1604.39
1619.16
1635.51
1653.19
1672.34
1693.05
1715.15
1738.32
1762.12
1785.98
1809.33
1831.57
1852.41
1870.82
1886.61
1899.29
1908.35
1913.39
1914.23
1910.98
1903.92
1894.2
1882.55
1869.91
1857.15
1844.94
1833.8
1824.08
1815.99
1809.52
1804.55
1800.93
1798.57
1797.41
1797.43
1798.65
1801.1
1804.88
1810.09
1816.81
1825.14
1835.1
1846.45
1858.82
1871.68
1884.37
1896.06
1905.8
1912.73
1915.99
1915.06
1909.81
1900.41
1887.3
1871.03
1852.14
1831.08
1808.36
1784.72
1760.73
1736.98
1714.07
1692.51
1672.07
1653.96
1637.53
1622.49
1609.18
1598.04
1590.22
1586.35
1585.73
1586.28
1586.2
1174.71
1174.49
1174.97
1175.76
1179.75
1188.35
1200.91
1216.15
1233.39
1252.48
1273.57
1296.72
1321.73
1348.18
1375.5
1402.92
1429.79
1455.41
1479.25
1500.28
1518.42
1533
1543.27
1548.55
1548.54
1543.44
1532.83
1519.61
1503.98
1487.4
1471.06
1455.76
1442.14
1430.6
1421.29
1414.09
1408.72
1404.89
1402.4
1401.16
1401.14
1402.38
1404.94
1408.95
1414.61
1422.12
1431.71
1443.53
1457.43
1472.92
1489.38
1505.99
1521.72
1535.23
1545.29
1550.72
1550.73
1545.22
1534.53
1519.35
1500.53
1478.69
1454.35
1428.27
1401
1373.36
1346.04
1319.8
1295.25
1272.77
1252.82
1235.21
1219.68
1206.27
1195.43
1188.04
1184.61
1184.19
1184.54
1183.54
768.488
768.408
770.501
770.247
773.28
781.866
794.497
809.752
827.52
847.862
871.018
897.134
925.833
956.511
988.326
1020.32
1051.62
1081.35
1108.6
1133.15
1154.18
1171.28
1183.2
1188.8
1187.49
1179.24
1164.94
1146.3
1125.02
1103.23
1082.45
1063.43
1046.89
1033.55
1022.78
1015
1009.42
1005.46
1002.84
1001.48
1001.4
1002.65
1005.3
1009.49
1015.48
1023.68
1034.66
1048.43
1065.35
1084.67
1105.54
1127.24
1148.52
1167.38
1181.73
1190.48
1191.77
1185.91
1173.46
1155.55
1133.58
1108.34
1080.07
1049.56
1017.67
985.382
953.506
922.999
894.743
869.467
847.687
829.185
813.65
800.824
790.609
783.503
780.436
780.302
781.389
781.631
357.692
358.274
358.067
359.833
363.568
373.102
385.313
398.983
416.33
437.557
463.319
493.362
526.907
563.232
601.021
638.818
675.548
710.424
742.341
770.314
794.693
815.492
829.998
836.201
833.182
820.697
800.654
774.718
745.563
716.668
690.089
665.923
645.221
629.746
617.617
609.977
604.885
601.241
598.821
597.522
597.303
598.271
600.608
604.546
610.387
618.739
631.013
646.935
668.093
692.737
719.413
747.946
777.036
803.442
824.108
836.878
840.182
833.811
818.674
796.734
770.79
741.742
708.742
672.761
635.344
597.124
559.161
522.849
489.616
460.502
436.536
417.712
403.334
392.666
384.117
376.846
374.287
374.193
372.761
372.761
69.1223
71.555
72.3376
71.6095
70.8581
72.5668
77.7395
85.487
95.1018
106.306
120.936
142.839
168.532
198.795
232.663
268.782
306.269
344.407
381.243
411.86
439.384
466.326
484.964
491.961
486.337
467.307
438.346
401.223
361.866
325.96
295.069
268.487
247.931
235.645
227.349
224.091
222.446
220.928
219.871
219.34
218.992
219.116
219.839
221.484
224.21
228.591
237.419
249.995
270.573
297.387
328.109
363.498
403.302
441.588
471.842
491.16
497.441
490.385
471.068
442.586
411.931
380.354
342.542
302.598
264.63
228.164
194.275
164.232
139.06
118.841
105.665
95.7157
87.9287
82.1911
78.4989
77.4851
78.7327
80.2331
79.9244
77.4622
-7.89054
-7.91288
-8.1389
-8.48571
-8.73865
-8.88992
-8.98093
-9.03227
-9.10529
-9.128
-8.42383
-3.96897
2.44724
11.7636
24.4851
40.3169
58.9392
79.7077
101.867
124.743
145.902
165.939
180.442
185.902
180.007
162.068
135.56
104.895
77.2336
57.0938
42.0825
30.2958
22.4306
19.2682
18.1464
18.3786
18.8732
18.9373
18.91
18.9344
18.8199
18.6662
18.5065
18.5513
18.713
19.0498
20.594
23.5522
31.1971
43.0326
57.7167
77.3727
105.587
137.982
166.098
185.214
191.599
185.698
170.059
148.281
124.962
100.57
77.6179
56.5092
38.0801
22.6734
10.4929
1.66531
-4.23064
-7.21162
-7.51668
-7.45415
-7.38116
-7.31558
-7.28866
-7.1959
-6.96615
-6.81821
-6.86684
-6.89557
-8.78393
-8.82806
-9.01112
-9.21421
-9.333
-9.4032
-9.45455
-9.47726
-9.48875
-9.49756
-9.41968
-9.51979
-9.5912
-9.65058
-9.71305
-9.78743
-9.85165
-9.83647
-9.38403
-6.19599
-1.19333
5.13953
11.3281
14.1965
12.4491
6.66509
-0.406597
-5.90589
-8.52543
-9.49733
-9.92425
-10.1192
-10.1949
-10.1892
-10.0867
-9.9638
-9.84326
-9.75025
-9.6489
-9.53976
-9.56774
-9.59592
-9.63936
-9.68986
-9.73467
-9.77351
-9.84409
-9.90399
-9.88743
-9.75664
-9.3788
-8.40817
-5.79023
0.169828
8.05284
14.6661
16.6986
13.4768
6.50786
-0.730596
-6.2751
-9.60795
-10.0777
-9.95933
-9.71102
-9.37301
-9.01606
-8.68531
-8.38735
-8.11886
-8.02235
-7.92422
-7.86019
-7.82977
-7.84315
-7.87035
-7.83171
-7.76946
-7.80045
-7.75179
-9.45998
-9.51871
-9.64085
-9.73629
-9.81352
-9.90593
-9.9771
-10.0197
-10.051
-10.0475
-10.027
-10.0396
-10.0866
-10.1272
-10.157
-10.1967
-10.244
-10.2776
-10.247
-10.4058
-10.5123
-10.6049
-10.6632
-10.6213
-10.5435
-10.4902
-10.4969
-10.5159
-10.5401
-10.6367
-10.7328
-10.7491
-10.6882
-10.6013
-10.4875
-10.3498
-10.2266
-10.1802
-10.1454
-10.0566
-10.0403
-10.0631
-10.1024
-10.1493
-10.1872
-10.226
-10.2878
-10.367
-10.4585
-10.496
-10.4762
-10.4427
-10.4666
-10.4742
-10.4986
-10.5669
-10.6449
-10.6915
-10.6326
-10.5045
-10.4231
-10.3344
-10.4224
-10.3959
-10.2738
-10.0418
-9.74031
-9.42208
-9.10518
-8.8264
-8.64042
-8.50648
-8.40685
-8.33983
-8.33673
-8.43007
-8.47251
-8.38407
-8.34391
-8.31022
-10.1759
-10.2177
-10.2676
-10.3036
-10.3757
-10.4766
-10.5368
-10.5547
-10.5633
-10.5627
-10.5609
-10.5889
-10.6398
-10.6855
-10.727
-10.7573
-10.7607
-10.7618
-10.791
-10.8763
-10.9581
-11.0268
-11.0626
-11.0803
-11.0789
-11.0634
-11.0423
-11.025
-11.0179
-11.0327
-11.054
-11.0606
-11.0648
-11.0358
-10.9743
-10.8966
-10.8144
-10.7647
-10.7314
-10.6333
-10.551
-10.5837
-10.6302
-10.6712
-10.6891
-10.6984
-10.7275
-10.7717
-10.8234
-10.872
-10.9059
-10.9383
-10.9747
-11.0225
-11.0903
-11.1304
-11.1391
-11.1244
-11.0984
-11.074
-11.0251
-10.9821
-11.0164
-11.0319
-10.9493
-10.7653
-10.5124
-10.2372
-9.94252
-9.65531
-9.4346
-9.26841
-9.13784
-9.03896
-8.99915
-9.06525
-9.10355
-9.00104
-8.89675
-8.86453
-10.8642
-10.899
-10.9152
-10.931
-11.0098
-11.1049
-11.1389
-11.1325
-11.129
-11.1498
-11.1932
-11.2505
-11.2923
-11.3049
-11.309
-11.2906
-11.2558
-11.26
-11.2869
-11.3421
-11.4046
-11.4529
-11.4788
-11.4863
-11.4838
-11.4733
-11.4613
-11.4546
-11.4569
-11.4736
-11.499
-11.5221
-11.5297
-11.5166
-11.4735
-11.4073
-11.3358
-11.2791
-11.2475
-11.1925
-11.0955
-11.075
-11.1364
-11.179
-11.1866
-11.1856
-11.2003
-11.2361
-11.2836
-11.3342
-11.3856
-11.4263
-11.4278
-11.4387
-11.5032
-11.5662
-11.629
-11.6687
-11.6698
-11.6367
-11.6058
-11.6107
-11.6452
-11.6709
-11.6326
-11.4997
-11.2928
-11.0598
-10.8219
-10.561
-10.3172
-10.1248
-9.98096
-9.88117
-9.79715
-9.73766
-9.67334
-9.56081
-9.4658
-9.43095
-11.5158
-11.5417
-11.5808
-11.6242
-11.7239
-11.7859
-11.7533
-11.7219
-11.7069
-11.7469
-11.8122
-11.8535
-11.8791
-11.8903
-11.8769
-11.8153
-11.7722
-11.7669
-11.7855
-11.8191
-11.8537
-11.88
-11.8954
-11.9056
-11.9095
-11.9122
-11.9156
-11.9214
-11.931
-11.9468
-11.9649
-11.9795
-11.9864
-11.9824
-11.9606
-11.9209
-11.871
-11.8246
-11.8022
-11.772
-11.6838
-11.6245
-11.6714
-11.7144
-11.7182
-11.7018
-11.7067
-11.7291
-11.7765
-11.8291
-11.887
-11.9469
-11.9373
-11.9055
-11.9545
-12.0515
-12.1822
-12.2894
-12.3109
-12.2752
-12.2562
-12.2314
-12.225
-12.2224
-12.2079
-12.1161
-11.9609
-11.775
-11.5928
-11.3952
-11.1837
-10.997
-10.8501
-10.7351
-10.6385
-10.5027
-10.3314
-10.1831
-10.0934
-10.05
-12.15
-12.1363
-12.1894
-12.2818
-12.3835
-12.4051
-12.3369
-12.2898
-12.2968
-12.3199
-12.3597
-12.3951
-12.4043
-12.4067
-12.3825
-12.3344
-12.2998
-12.286
-12.2876
-12.2984
-12.3119
-12.325
-12.3376
-12.351
-12.3644
-12.3773
-12.3905
-12.4041
-12.4187
-12.4341
-12.45
-12.4643
-12.4745
-12.4766
-12.4662
-12.443
-12.4121
-12.3809
-12.3611
-12.3401
-12.2891
-12.2313
-12.2266
-12.2739
-12.2959
-12.2663
-12.2337
-12.2444
-12.2852
-12.3312
-12.3838
-12.4548
-12.4662
-12.4298
-12.4619
-12.5894
-12.7755
-12.9465
-12.9684
-12.9124
-12.8532
-12.7828
-12.7408
-12.7358
-12.7304
-12.6778
-12.5746
-12.4387
-12.29
-12.134
-11.9604
-11.7933
-11.6711
-11.5794
-11.4913
-11.3498
-11.1266
-10.9139
-10.7995
-10.7524
-12.7884
-12.746
-12.7774
-12.8885
-12.9597
-12.9495
-12.8984
-12.8481
-12.8612
-12.8782
-12.9017
-12.9354
-12.9498
-12.9442
-12.9153
-12.8736
-12.8355
-12.8093
-12.7937
-12.7838
-12.7795
-12.7837
-12.796
-12.8142
-12.8352
-12.857
-12.8782
-12.8981
-12.9166
-12.9343
-12.9514
-12.9675
-12.9809
-12.9881
-12.9864
-12.9756
-12.9601
-12.9455
-12.9343
-12.9193
-12.8841
-12.8428
-12.8309
-12.8805
-12.9077
-12.8721
-12.7904
-12.7703
-12.7909
-12.8292
-12.8789
-12.9355
-12.9829
-12.9986
-13.0377
-13.1632
-13.3733
-13.6198
-13.6889
-13.5768
-13.4354
-13.337
-13.2761
-13.2606
-13.257
-13.2314
-13.1746
-13.0913
-12.988
-12.8671
-12.7162
-12.5674
-12.4851
-12.4463
-12.3696
-12.2239
-11.9933
-11.7328
-11.5928
-11.5444
-13.3953
-13.3883
-13.3789
-13.4529
-13.4903
-13.4771
-13.4485
-13.4331
-13.4342
-13.4449
-13.4844
-13.5251
-13.541
-13.5244
-13.4849
-13.434
-13.3852
-13.3438
-13.3089
-13.2768
-13.254
-13.2508
-13.2643
-13.2885
-13.3178
-13.3477
-13.376
-13.4015
-13.4244
-13.4452
-13.4649
-13.484
-13.5019
-13.5165
-13.5257
-13.5292
-13.5293
-13.5291
-13.5313
-13.5266
-13.5029
-13.467
-13.4535
-13.4905
-13.5051
-13.4577
-13.3587
-13.2823
-13.2822
-13.3157
-13.3624
-13.4095
-13.4932
-13.5717
-13.6322
-13.7236
-13.9166
-14.195
-14.3064
-14.1977
-14.0056
-13.8904
-13.8251
-13.8039
-13.802
-13.7977
-13.7818
-13.7507
-13.7014
-13.6258
-13.5226
-13.4505
-13.4245
-13.3996
-13.2991
-13.1257
-12.8806
-12.5993
-12.4394
-12.3959
-13.9575
-13.9908
-13.9906
-14.0193
-14.0283
-14.0159
-14.01
-14.0228
-14.0242
-14.0517
-14.108
-14.1564
-14.1727
-14.1433
-14.0918
-14.0338
-13.9687
-13.9047
-13.8441
-13.7838
-13.739
-13.7275
-13.7431
-13.7744
-13.8131
-13.8516
-13.8866
-13.9173
-13.9439
-13.9673
-13.9891
-14.0112
-14.0345
-14.0578
-14.0799
-14.1
-14.1185
-14.1358
-14.1483
-14.1523
-14.1366
-14.1
-14.0627
-14.0531
-14.0427
-13.9912
-13.8855
-13.7826
-13.7565
-13.7847
-13.8314
-13.8914
-13.9906
-14.0816
-14.1365
-14.1927
-14.3356
-14.5696
-14.6922
-14.6349
-14.4812
-14.3755
-14.3317
-14.3284
-14.3458
-14.3731
-14.4041
-14.4297
-14.4375
-14.4157
-14.3986
-14.429
-14.4477
-14.4016
-14.2651
-14.0491
-13.7749
-13.4657
-13.2925
-13.2506
-14.5027
-14.561
-14.6084
-14.6086
-14.5785
-14.5618
-14.5803
-14.6121
-14.6323
-14.6893
-14.7724
-14.8469
-14.9052
-14.9196
-14.8737
-14.7757
-14.6548
-14.532
-14.4203
-14.316
-14.2418
-14.2164
-14.2342
-14.2746
-14.3234
-14.3705
-14.4113
-14.446
-14.4754
-14.5006
-14.5243
-14.5501
-14.5791
-14.6111
-14.6461
-14.6813
-14.7155
-14.7476
-14.7718
-14.7817
-14.767
-14.721
-14.6573
-14.5993
-14.5403
-14.469
-14.367
-14.2602
-14.2125
-14.2415
-14.2883
-14.3619
-14.448
-14.5213
-14.552
-14.5776
-14.6538
-14.7992
-14.9026
-14.8998
-14.8322
-14.7871
-14.7915
-14.8278
-14.8835
-14.9554
-15.0424
-15.1298
-15.1931
-15.2349
-15.3391
-15.4445
-15.4852
-15.4104
-15.2349
-14.9742
-14.6635
-14.3077
-14.1316
-14.0523
-15.0748
-15.1758
-15.2367
-15.195
-15.1178
-15.0972
-15.1373
-15.19
-15.2482
-15.3593
-15.5048
-15.6834
-15.8442
-15.9248
-15.8806
-15.7287
-15.5288
-15.3086
-15.0969
-14.9199
-14.7957
-14.7327
-14.7431
-14.7943
-14.8528
-14.9055
-14.9496
-14.9862
-15.0171
-15.0437
-15.0702
-15.1004
-15.1353
-15.1748
-15.2185
-15.2603
-15.2991
-15.3398
-15.3771
-15.393
-15.3785
-15.3204
-15.239
-15.1585
-15.0647
-14.948
-14.8307
-14.719
-14.6717
-14.7006
-14.7518
-14.8263
-14.8919
-14.9447
-14.9646
-14.9626
-14.9889
-15.064
-15.1342
-15.1611
-15.1573
-15.1782
-15.2375
-15.3203
-15.423
-15.5482
-15.6991
-15.8507
-15.9734
-16.1072
-16.315
-16.4678
-16.5064
-16.4114
-16.1828
-15.8652
-15.5309
-15.1241
-14.9456
-14.8066
-15.6311
-15.7803
-15.8197
-15.7306
-15.6221
-15.6005
-15.6598
-15.7411
-15.8605
-16.0581
-16.3313
-16.6525
-16.8983
-16.9971
-16.9387
-16.7494
-16.5043
-16.2188
-15.9263
-15.6576
-15.4548
-15.3279
-15.2937
-15.3396
-15.4054
-15.4581
-15.5
-15.5355
-15.5663
-15.5942
-15.6242
-15.6593
-15.6998
-15.7454
-15.7922
-15.8294
-15.8576
-15.8922
-15.9291
-15.9542
-15.9457
-15.8785
-15.7892
-15.7135
-15.6239
-15.479
-15.3138
-15.1882
-15.1412
-15.1708
-15.2298
-15.2988
-15.3538
-15.3955
-15.4076
-15.3924
-15.3989
-15.4424
-15.4875
-15.5064
-15.528
-15.5939
-15.6961
-15.8217
-15.9724
-16.1544
-16.3728
-16.5868
-16.7835
-17.0387
-17.2996
-17.4814
-17.5119
-17.3832
-17.0968
-16.7178
-16.3635
-15.9291
-15.7051
-15.5578
-16.1045
-16.2602
-16.2803
-16.1891
-16.0921
-16.0842
-16.1358
-16.246
-16.4381
-16.7419
-17.1628
-17.5745
-17.8716
-17.9946
-17.9468
-17.7217
-17.4113
-17.0829
-16.7731
-16.4621
-16.1865
-16.0035
-15.9159
-15.9227
-15.9823
-16.0279
-16.0603
-16.0907
-16.1197
-16.1487
-16.1821
-16.2227
-16.2695
-16.3206
-16.3689
-16.3959
-16.4086
-16.4429
-16.4844
-16.5151
-16.5185
-16.4414
-16.3254
-16.2558
-16.1999
-16.0616
-15.8582
-15.6976
-15.6361
-15.6561
-15.7217
-15.7936
-15.843
-15.8773
-15.8834
-15.887
-15.9066
-15.9282
-15.9195
-15.9231
-15.9716
-16.0577
-16.1831
-16.3431
-16.536
-16.7728
-17.0558
-17.3268
-17.6126
-17.9829
-18.269
-18.4654
-18.4898
-18.3085
-17.9602
-17.5352
-17.1443
-16.6802
-16.4087
-16.28
-16.5111
-16.6105
-16.6344
-16.5842
-16.5448
-16.5507
-16.5755
-16.6887
-16.9467
-17.3594
-17.87
-18.336
-18.6826
-18.8574
-18.8349
-18.6064
-18.2217
-17.8297
-17.5028
-17.2094
-16.902
-16.6845
-16.5792
-16.5543
-16.5821
-16.6087
-16.6261
-16.648
-16.6736
-16.7034
-16.7405
-16.788
-16.8427
-16.9021
-16.9558
-16.9796
-16.9976
-17.0632
-17.1259
-17.1636
-17.1758
-17.1245
-16.9988
-16.8747
-16.808
-16.6892
-16.4617
-16.2553
-16.1704
-16.1743
-16.2402
-16.3154
-16.3606
-16.3886
-16.4178
-16.4436
-16.4623
-16.4539
-16.4189
-16.4151
-16.4654
-16.562
-16.7044
-16.8864
-17.1107
-17.3959
-17.7324
-18.0588
-18.4527
-18.8877
-19.1967
-19.3822
-19.3739
-19.1397
-18.7266
-18.2825
-17.8271
-17.3426
-17.0208
-16.8995
-16.8609
-16.937
-16.9637
-16.9509
-16.9791
-17.0054
-17.0208
-17.1191
-17.4027
-17.8619
-18.3987
-18.8927
-19.2691
-19.4828
-19.5046
-19.3184
-18.9339
-18.4804
-18.1114
-17.8334
-17.5474
-17.3259
-17.2234
-17.2019
-17.1974
-17.1902
-17.1901
-17.2031
-17.2247
-17.2548
-17.2969
-17.3524
-17.4162
-17.4887
-17.5534
-17.5882
-17.6449
-17.7627
-17.8626
-17.9277
-17.9739
-17.9792
-17.8861
-17.7307
-17.5798
-17.4085
-17.1296
-16.8691
-16.7544
-16.7443
-16.8006
-16.8657
-16.9059
-16.9378
-16.9941
-17.0224
-17.0203
-16.9883
-16.9588
-16.9621
-17.0078
-17.106
-17.2521
-17.4426
-17.6872
-18.0087
-18.3809
-18.7769
-19.2738
-19.7253
-20.0456
-20.2054
-20.1396
-19.8329
-19.3864
-18.9393
-18.4099
-17.8807
-17.517
-17.3909
-17.2355
-17.2932
-17.3303
-17.3406
-17.3885
-17.4451
-17.4775
-17.5643
-17.817
-18.2425
-18.7592
-19.2571
-19.6439
-19.8731
-19.9396
-19.7977
-19.4526
-18.9914
-18.5973
-18.3296
-18.096
-17.9021
-17.8221
-17.8158
-17.7906
-17.757
-17.745
-17.752
-17.7705
-17.8011
-17.8488
-17.912
-17.9856
-18.0739
-18.1543
-18.2126
-18.3091
-18.4594
-18.6041
-18.7337
-18.8442
-18.899
-18.8667
-18.7563
-18.5222
-18.2299
-17.865
-17.542
-17.3888
-17.3537
-17.3992
-17.4441
-17.4753
-17.5216
-17.5744
-17.5866
-17.5741
-17.5518
-17.5357
-17.5394
-17.5806
-17.672
-17.811
-17.9974
-18.2504
-18.5894
-18.9859
-19.4579
-20.0078
-20.4659
-20.8043
-20.9223
-20.7751
-20.3909
-19.9255
-19.4883
-18.9006
-18.3037
-17.919
-17.8031
-17.6762
-17.7158
-17.7633
-17.7838
-17.8112
-17.8593
-17.897
-17.9737
-18.1661
-18.516
-18.9841
-19.4698
-19.8646
-20.1131
-20.1808
-20.0502
-19.7329
-19.3222
-18.9593
-18.7275
-18.5579
-18.4122
-18.3656
-18.3678
-18.3339
-18.2997
-18.2873
-18.2926
-18.31
-18.3423
-18.3949
-18.4644
-18.5476
-18.6511
-18.7507
-18.8448
-18.9688
-19.1335
-19.3137
-19.5149
-19.682
-19.8128
-19.9018
-19.8388
-19.5494
-19.1165
-18.6445
-18.2577
-18.0612
-17.9887
-18.016
-18.0393
-18.0682
-18.1185
-18.1496
-18.1517
-18.1454
-18.1327
-18.1245
-18.1297
-18.1634
-18.2417
-18.3641
-18.535
-18.7811
-19.1179
-19.5321
-20.0433
-20.6012
-21.1114
-21.4529
-21.4995
-21.2749
-20.8457
-20.3938
-19.9343
-19.2947
-18.644
-18.289
-18.214
-18.1796
-18.2097
-18.2521
-18.2748
-18.2916
-18.3079
-18.3274
-18.3719
-18.5004
-18.762
-19.1524
-19.5836
-19.9558
-20.1893
-20.2433
-20.1069
-19.8298
-19.5131
-19.2359
-19.0653
-18.962
-18.8831
-18.873
-18.8689
-18.8455
-18.8245
-18.8179
-18.8246
-18.8427
-18.8772
-18.9335
-19.008
-19.0998
-19.2173
-19.3377
-19.4652
-19.6158
-19.7971
-20.0265
-20.3014
-20.569
-20.7963
-20.9632
-20.9283
-20.5902
-20.0199
-19.4316
-18.9999
-18.7541
-18.6351
-18.6368
-18.6467
-18.6822
-18.7232
-18.734
-18.7337
-18.7246
-18.7133
-18.7091
-18.7155
-18.7396
-18.8
-18.8989
-19.0434
-19.2646
-19.5804
-19.9912
-20.4863
-21.0427
-21.6079
-21.9429
-21.9548
-21.7001
-21.265
-20.809
-20.2816
-19.574
-18.9539
-18.6983
-18.6722
-18.7145
-18.7514
-18.7816
-18.7942
-18.8085
-18.8189
-18.8285
-18.8592
-18.9547
-19.1701
-19.4968
-19.8617
-20.1728
-20.346
-20.3554
-20.201
-19.9615
-19.7183
-19.5291
-19.4188
-19.3663
-19.3563
-19.3647
-19.3588
-19.3492
-19.3407
-19.3401
-19.3491
-19.3684
-19.4047
-19.4631
-19.5399
-19.6378
-19.7689
-19.9128
-20.0574
-20.2308
-20.4204
-20.6893
-21.0267
-21.3893
-21.7068
-21.9251
-21.9114
-21.5276
-20.8177
-20.1887
-19.7487
-19.4629
-19.3023
-19.2659
-19.2708
-19.3091
-19.3333
-19.3332
-19.3231
-19.3022
-19.2844
-19.282
-19.2903
-19.3036
-19.3406
-19.4091
-19.5163
-19.6946
-19.9675
-20.3322
-20.7646
-21.2919
-21.8657
-22.2283
-22.2668
-22.0264
-21.6082
-21.1093
-20.4847
-19.774
-19.29
-19.1664
-19.1901
-19.2813
-19.3212
-19.3566
-19.3695
-19.3823
-19.4089
-19.4514
-19.4951
-19.5888
-19.7671
-20.0323
-20.3407
-20.6004
-20.7223
-20.6795
-20.5088
-20.2798
-20.0649
-19.9229
-19.8419
-19.8259
-19.8462
-19.8536
-19.8549
-19.8541
-19.853
-19.8569
-19.8678
-19.8881
-19.9249
-19.9828
-20.0577
-20.157
-20.2986
-20.4648
-20.6253
-20.7992
-20.9932
-21.2668
-21.6332
-22.0376
-22.3725
-22.6275
-22.5946
-22.1418
-21.4463
-20.876
-20.4774
-20.1903
-20.0217
-19.9447
-19.927
-19.9472
-19.9528
-19.9413
-19.9207
-19.8897
-19.864
-19.8573
-19.8649
-19.8611
-19.8651
-19.895
-19.9565
-20.0792
-20.286
-20.5632
-20.9013
-21.3396
-21.8422
-22.2091
-22.3193
-22.1401
-21.7441
-21.2204
-20.5889
-20.0006
-19.6927
-19.6593
-19.7195
-19.8757
-19.8915
-19.9278
-19.9459
-19.9571
-19.9792
-20.019
-20.0817
-20.2065
-20.3975
-20.6325
-20.8991
-21.1146
-21.1865
-21.105
-20.9182
-20.696
-20.5122
-20.3905
-20.339
-20.3459
-20.3591
-20.3594
-20.3606
-20.3622
-20.3642
-20.3703
-20.3822
-20.4028
-20.4391
-20.4937
-20.5622
-20.6569
-20.8002
-20.9784
-21.1556
-21.3266
-21.5368
-21.7955
-22.1237
-22.4576
-22.7555
-22.9462
-22.8456
-22.4178
-21.8726
-21.4513
-21.1527
-20.9258
-20.7868
-20.6876
-20.6339
-20.6137
-20.5935
-20.5796
-20.5767
-20.5588
-20.52
-20.472
-20.4514
-20.4161
-20.3758
-20.3604
-20.3736
-20.4362
-20.5639
-20.7426
-20.9748
-21.2871
-21.6557
-21.9566
-22.0955
-22.0062
-21.7154
-21.2834
-20.7797
-20.3656
-20.1884
-20.193
-20.2466
-20.423
-20.4201
-20.442
-20.4605
-20.4704
-20.4831
-20.5089
-20.589
-20.7592
-20.9745
-21.2062
-21.4435
-21.6196
-21.662
-21.5582
-21.3641
-21.1599
-21.0006
-20.9098
-20.89
-20.8975
-20.8893
-20.8774
-20.8736
-20.8729
-20.875
-20.8815
-20.8934
-20.9135
-20.9482
-20.9972
-21.0567
-21.1433
-21.2759
-21.4495
-21.6341
-21.8151
-22.0267
-22.2609
-22.5024
-22.7167
-22.9028
-22.9774
-22.8429
-22.518
-22.1741
-21.9172
-21.7523
-21.6433
-21.5553
-21.4527
-21.3762
-21.3279
-21.2899
-21.2814
-21.3057
-21.3065
-21.2453
-21.1336
-21.0403
-20.958
-20.8702
-20.8104
-20.7802
-20.7901
-20.8463
-20.9409
-21.0801
-21.2776
-21.5236
-21.7543
-21.8921
-21.901
-21.7752
-21.5193
-21.187
-20.9092
-20.7859
-20.7849
-20.8054
-20.9561
-20.9458
-20.9647
-20.9844
-20.9986
-21.0112
-21.0291
-21.1193
-21.2942
-21.4991
-21.7232
-21.935
-22.0731
-22.0829
-21.9657
-21.7919
-21.6281
-21.52
-21.4718