/*--------------------------------*- C++ -*----------------------------------*\
| =========                 |                                                 |
| \\      /  F ield         | OpenFOAM: The Open Source CFD Toolbox           |
|  \\    /   O peration     | Version:  2412                                  |
|   \\  /    A nd           | Website:  www.openfoam.com                      |
|    \\/     M anipulation  |                                                 |
\*---------------------------------------------------------------------------*/
FoamFile
{
    version     2.0;
    format      ascii;
    arch        "LSB;label=32;scalar=64";
    class       surfaceScalarField;
    location    "4.1";
    object      alphaPhi0.gasoline;
}
// * * * * * * * * * * * * * * * * * * * * * * * * * * * * * * * * * * * * * //

dimensions      [0 3 -1 0 0 0 0];

oriented        oriented;

internalField   nonuniform List<scalar> 
12640
(
-1.6488e-06
1.64879e-06
1.8253e-06
-3.47477e-06
5.97573e-06
-4.15095e-06
8.83522e-06
-2.8599e-06
9.65251e-06
-8.17505e-07
8.20467e-06
1.44775e-06
4.26795e-06
3.93672e-06
-2.15846e-06
6.42642e-06
-1.09629e-05
8.80446e-06
-2.19091e-05
1.09462e-05
-3.47077e-05
1.27986e-05
-4.90649e-05
1.43572e-05
-6.46285e-05
1.5564e-05
-8.1027e-05
1.63987e-05
-9.8042e-05
1.70155e-05
-0.000115265
1.72234e-05
-0.000132352
1.70871e-05
-0.000148866
1.65137e-05
-0.000164458
1.55921e-05
-0.000178814
1.4357e-05
-0.00019159
1.27756e-05
-0.000202469
1.08799e-05
-0.000211197
8.72865e-06
-0.000217579
6.3831e-06
-0.000221464
3.88594e-06
-0.000222607
1.14329e-06
-0.000220944
-1.66327e-06
-0.000216478
-4.46527e-06
-0.000209309
-7.17028e-06
-0.000199519
-9.78988e-06
-0.000187285
-1.2234e-05
-0.000172741
-1.45453e-05
-0.000156127
-1.66134e-05
-0.000137591
-1.85362e-05
-0.000117376
-2.02151e-05
-9.57135e-05
-2.16614e-05
-7.28225e-05
-2.28903e-05
-4.90268e-05
-2.37957e-05
-2.46006e-05
-2.44261e-05
1.45405e-07
-2.47455e-05
2.48555e-05
-2.47093e-05
4.92018e-05
-2.43456e-05
7.28487e-05
-2.36466e-05
9.55227e-05
-2.2674e-05
0.000116962
-2.14398e-05
0.000136888
-1.99262e-05
0.000155116
-1.8228e-05
0.000171464
-1.63483e-05
0.00018573
-1.42664e-05
0.000197777
-1.20476e-05
0.000207429
-9.65244e-06
0.000214556
-7.12729e-06
0.00021907
-4.51416e-06
0.000220867
-1.79756e-06
0.000219961
9.06315e-07
0.00021644
3.52141e-06
0.000210486
5.95388e-06
0.000202266
8.21976e-06
0.000191974
1.02925e-05
0.000179853
1.21209e-05
0.000166212
1.36416e-05
0.000151277
1.49355e-05
0.000135472
1.58043e-05
0.000119106
1.63662e-05
0.000102553
1.65523e-05
8.6142e-05
1.64112e-05
7.02544e-05
1.58875e-05
5.51224e-05
1.51315e-05
4.10207e-05
1.41013e-05
2.83752e-05
1.26454e-05
1.7453e-05
1.09227e-05
8.51347e-06
8.93981e-06
1.73312e-06
6.78003e-06
-2.70487e-06
4.43765e-06
-4.80521e-06
2.1009e-06
-4.7452e-06
-5.96078e-08
-2.78996e-06
-1.95621e-06
3.79288e-07
-3.16945e-06
2.74399e-06
-2.36377e-06
2.74343e-06
1.4526e-06
1.95507e-07
1.11598e-05
-1.31829e-05
2.20916e-05
-1.50833e-05
3.12828e-05
-1.20515e-05
3.77886e-05
-7.32362e-06
4.12234e-05
-1.98701e-06
4.14984e-05
3.66167e-06
3.85444e-05
9.38032e-06
3.24662e-05
1.48825e-05
2.34679e-05
1.99446e-05
1.18479e-05
2.44189e-05
-2.05616e-06
2.82615e-05
-1.78641e-05
3.13725e-05
-3.51884e-05
3.37234e-05
-5.34688e-05
3.52962e-05
-7.22711e-05
3.6026e-05
-9.11159e-05
3.59324e-05
-0.000109604
3.50015e-05
-0.000127241
3.32293e-05
-0.000143543
3.06601e-05
-0.000158196
2.743e-05
-0.000170806
2.34905e-05
-0.000181133
1.90564e-05
-0.000188902
1.41534e-05
-0.000193957
8.94157e-06
-0.000196402
3.58866e-06
-0.00019614
-1.92527e-06
-0.000193178
-7.42693e-06
-0.000187557
-1.27919e-05
-0.000179395
-1.79522e-05
-0.000168823
-2.28053e-05
-0.000156078
-2.72905e-05
-0.000141272
-3.14188e-05
-0.000124648
-3.51604e-05
-0.000106454
-3.84085e-05
-8.69649e-05
-4.11507e-05
-6.64729e-05
-4.33823e-05
-4.51959e-05
-4.50726e-05
-2.34101e-05
-4.6212e-05
-1.40006e-06
-4.67559e-05
2.05673e-05
-4.66775e-05
4.2229e-05
-4.60084e-05
6.3335e-05
-4.47537e-05
8.3626e-05
-4.29658e-05
0.000102844
-4.06587e-05
0.000120771
-3.78535e-05
0.000137135
-3.45931e-05
0.000151701
-3.09145e-05
0.000164279
-2.68456e-05
0.000174668
-2.24372e-05
0.000182745
-1.77294e-05
0.000188359
-1.27412e-05
0.000191405
-7.56e-06
0.000191935
-2.32711e-06
0.000189871
2.96982e-06
0.000185247
8.14554e-06
0.000178013
1.31887e-05
0.000168353
1.78804e-05
0.000156502
2.21446e-05
0.000142675
2.59482e-05
0.000127206
2.91117e-05
0.000110521
3.16204e-05
9.29708e-05
3.33545e-05
7.49433e-05
3.43937e-05
5.6944e-05
3.45518e-05
3.94264e-05
3.39289e-05
2.27314e-05
3.25823e-05
7.4169e-06
3.04459e-05
-6.09515e-06
2.76138e-05
-1.75004e-05
2.40514e-05
-2.64614e-05
1.98838e-05
-3.26684e-05
1.51463e-05
-3.59079e-05
1.00194e-05
-3.60722e-05
4.60221e-06
-3.32079e-05
-7.63579e-07
-2.74278e-05
-5.8405e-06
-1.90575e-05
-1.03259e-05
-9.06301e-06
-1.31632e-05
-3.72762e-07
-1.10566e-05
2.37214e-06
2.98093e-06
-2.78593e-06
1.53017e-05
-2.55044e-05
2.89817e-05
-2.87638e-05
4.07071e-05
-2.37773e-05
4.9398e-05
-1.60149e-05
5.46559e-05
-7.24528e-06
5.63659e-05
1.95134e-06
5.45518e-05
1.11942e-05
4.93806e-05
2.00536e-05
4.11373e-05
2.81878e-05
3.01654e-05
3.53911e-05
1.68112e-05
4.1616e-05
1.47907e-06
4.67047e-05
-1.54306e-05
5.06331e-05
-3.34659e-05
5.33316e-05
-5.2174e-05
5.47342e-05
-7.10727e-05
5.48315e-05
-8.96566e-05
5.35859e-05
-0.000107511
5.10844e-05
-0.000124214
4.7364e-05
-0.000139338
4.25541e-05
-0.000152564
3.67161e-05
-0.00016357
3.00624e-05
-0.000172129
2.27128e-05
-0.000178088
1.49019e-05
-0.000181313
6.8146e-06
-0.000181784
-1.45355e-06
-0.000179577
-9.63245e-06
-0.000174754
-1.76141e-05
-0.000167437
-2.52685e-05
-0.000157771
-3.24711e-05
-0.00014592
-3.91422e-05
-0.000132089
-4.52514e-05
-0.000116578
-5.06725e-05
-9.95849e-05
-5.54032e-05
-8.13735e-05
-5.93636e-05
-6.22179e-05
-6.25396e-05
-4.23658e-05
-6.49271e-05
-2.2059e-05
-6.65214e-05
-1.55599e-06
-6.72614e-05
1.88943e-05
-6.71295e-05
3.90627e-05
-6.61776e-05
5.87213e-05
-6.44127e-05
7.76206e-05
-6.18654e-05
9.55379e-05
-5.85764e-05
0.000112234
-5.45503e-05
0.000127471
-4.983e-05
0.000141003
-4.44473e-05
0.000152612
-3.84547e-05
0.000162112
-3.19368e-05
0.000169359
-2.49767e-05
0.000174216
-1.75975e-05
0.000176577
-9.92002e-06
0.000176357
-2.10665e-06
0.000173486
5.8409e-06
0.00016803
1.36023e-05
0.000160066
2.11538e-05
0.000149756
2.81916e-05
0.000137291
3.46106e-05
0.000123
4.02403e-05
0.000107176
4.49362e-05
9.02586e-05
4.8538e-05
7.25496e-05
5.1064e-05
5.46409e-05
5.23032e-05
3.68168e-05
5.23771e-05
1.95668e-05
5.11797e-05
3.36591e-06
4.87837e-05
-1.14068e-05
4.52188e-05
-2.43139e-05
4.05213e-05
-3.50518e-05
3.47895e-05
-4.32019e-05
2.80333e-05
-4.84652e-05
2.04086e-05
-5.05343e-05
1.20885e-05
-4.92641e-05
3.33255e-06
-4.46121e-05
-5.4163e-06
-3.66603e-05
-1.37934e-05
-2.57609e-05
-2.12256e-05
-1.3053e-05
-2.58744e-05
-1.77949e-06
-2.2328e-05
5.90839e-07
3.97184e-06
-6.75818e-06
1.86198e-05
-4.01531e-05
3.481e-05
-4.49545e-05
4.8719e-05
-3.7687e-05
5.89505e-05
-2.6247e-05
6.51166e-05
-1.34121e-05
6.71705e-05
-1.03071e-07
6.52564e-05
1.31082e-05
5.97065e-05
2.56035e-05
5.08894e-05
3.7005e-05
3.91901e-05
4.70903e-05
2.49762e-05
5.58297e-05
8.74318e-06
6.29374e-05
-9.11926e-06
6.84951e-05
-2.81461e-05
7.23586e-05
-4.78739e-05
7.44622e-05
-6.77914e-05
7.47497e-05
-8.7459e-05
7.32541e-05
-0.000106353
6.99793e-05
-0.000124007
6.50181e-05
-0.000139995
5.85415e-05
-0.000153997
5.07183e-05
-0.000165611
4.16758e-05
-0.000174727
3.18292e-05
-0.000181091
2.12673e-05
-0.00018459
1.03139e-05
-0.000185222
-8.20072e-07
-0.000183044
-1.18094e-05
-0.000178175
-2.24839e-05
-0.000170733
-3.27108e-05
-0.000160892
-4.23124e-05
-0.000148852
-5.11841e-05
-0.000134836
-5.92678e-05
-0.000119078
-6.64315e-05
-0.000101832
-7.26505e-05
-8.33082e-05
-7.78875e-05
-6.37473e-05
-8.21001e-05
-4.34135e-05
-8.52605e-05
-2.25596e-05
-8.73748e-05
-1.46416e-06
-8.8356e-05
1.95937e-05
-8.81867e-05
4.03071e-05
-8.68906e-05
6.04221e-05
-8.45277e-05
7.96843e-05
-8.11278e-05
9.78786e-05
-7.67709e-05
0.000114779
-7.14506e-05
0.000130172
-6.52232e-05
0.00014384
-5.81155e-05
0.000155584
-5.01995e-05
0.00016521
-4.15632e-05
0.000172522
-3.22894e-05
0.000177389
-2.24646e-05
0.000179696
-1.22264e-05
0.0001793
-1.71168e-06
0.000176162
8.97937e-06
0.000170257
1.95066e-05
0.000161891
2.95205e-05
0.00015095
3.9132e-05
0.000137767
4.77938e-05
0.000122652
5.53555e-05
0.000105922
6.1666e-05
8.80587e-05
6.64009e-05
6.94117e-05
6.9711e-05
5.04297e-05
7.12856e-05
3.16663e-05
7.11407e-05
1.35249e-05
6.93207e-05
-3.55374e-06
6.58617e-05
-1.91486e-05
6.08132e-05
-3.28587e-05
5.42311e-05
-4.42841e-05
4.62144e-05
-5.30307e-05
3.67792e-05
-5.86496e-05
2.6027e-05
-6.08249e-05
1.42641e-05
-5.92447e-05
1.75153e-06
-5.37407e-05
-1.09214e-05
-4.43029e-05
-2.32304e-05
-3.13285e-05
-3.42007e-05
-1.61826e-05
-4.10206e-05
-2.69686e-06
-3.58142e-05
-2.10707e-06
4.9856e-06
-1.17441e-05
2.26973e-05
-5.78655e-05
4.23697e-05
-6.46276e-05
5.9228e-05
-5.45461e-05
7.13999e-05
-3.84196e-05
7.84289e-05
-2.04417e-05
8.05133e-05
-2.18781e-06
7.80044e-05
1.56169e-05
7.14725e-05
3.21355e-05
6.14188e-05
4.70589e-05
4.83427e-05
6.01659e-05
3.26751e-05
7.14968e-05
1.48652e-05
8.07469e-05
-4.64529e-06
8.80056e-05
-2.53743e-05
9.30879e-05
-4.68663e-05
9.59549e-05
-6.85674e-05
9.64514e-05
-8.99606e-05
9.46474e-05
-0.00011046
9.04782e-05
-0.000129645
8.42038e-05
-0.000147015
7.59111e-05
-0.000162107
6.58104e-05
-0.000174715
5.42831e-05
-0.000184463
4.15779e-05
-0.00019122
2.80244e-05
-0.000194894
1.39881e-05
-0.000195509
-2.05848e-07
-0.000193091
-1.42277e-05
-0.00018778
-2.77953e-05
-0.000179765
-4.07266e-05
-0.000169246
-5.28309e-05
-0.000156472
-6.39571e-05
-0.000141666
-7.40712e-05
-0.0001251
-8.29961e-05
-0.000106978
-9.07701e-05
-8.75356e-05
-9.7328e-05
-6.69837e-05
-0.00010265
-4.55631e-05
-0.00010668
-2.35701e-05
-0.000109367
-1.29779e-06
-0.000110628
2.09193e-05
-0.000110404
4.27528e-05
-0.000108725
6.39142e-05
-0.00010569
8.41214e-05
-0.000101335
0.000103153
-9.58025e-05
0.000120825
-8.91234e-05
0.00013693
-8.13286e-05
0.000151298
-7.24837e-05
0.000163711
-6.26134e-05
0.000173936
-5.1789e-05
0.000181766
-4.01197e-05
0.000187002
-2.77008e-05
0.000189533
-1.4758e-05
0.000189176
-1.35504e-06
0.000185869
1.22861e-05
0.00017964
2.57358e-05
0.000170436
3.87241e-05
0.000158762
5.08056e-05
0.000144515
6.20401e-05
0.000128173
7.16969e-05
0.000110021
7.98172e-05
9.04993e-05
8.59222e-05
7.02435e-05
8.99665e-05
4.96396e-05
9.18895e-05
2.91962e-05
9.15837e-05
9.43978e-06
8.90763e-05
-9.204e-06
8.45046e-05
-2.62975e-05
7.79063e-05
-4.1416e-05
6.93493e-05
-5.41717e-05
5.89694e-05
-6.40813e-05
4.6688e-05
-7.06751e-05
3.26209e-05
-7.34564e-05
1.70457e-05
-7.19032e-05
1.97111e-07
-6.55942e-05
-1.72302e-05
-5.43383e-05
-3.44844e-05
-3.85762e-05
-4.99653e-05
-2.00601e-05
-5.95357e-05
-3.66466e-06
-5.22119e-05
-5.76995e-06
6.12567e-06
-1.78702e-05
2.80045e-05
-7.9745e-05
5.26653e-05
-8.9289e-05
7.36953e-05
-7.55769e-05
8.84435e-05
-5.31685e-05
9.64578e-05
-2.84563e-05
9.82223e-05
-3.95227e-06
9.46197e-05
1.92194e-05
8.65815e-05
4.01737e-05
7.48232e-05
5.88172e-05
5.98446e-05
7.51443e-05
4.22823e-05
8.9059e-05
2.24333e-05
0.000100596
7.94925e-07
0.000109644
-2.22022e-05
0.000116085
-4.59582e-05
0.000119711
-6.99745e-05
0.000120468
-9.35462e-05
0.000118219
-0.000116363
0.000113295
-0.000137543
0.000105384
-0.000156655
9.50235e-05
-0.000173278
8.24345e-05
-0.000187005
6.80101e-05
-0.000197585
5.21572e-05
-0.00020482
3.52587e-05
-0.00020863
1.77971e-05
-0.000209111
2.73627e-07
-0.000206248
-1.70914e-05
-0.000200276
-3.37662e-05
-0.000191409
-4.95921e-05
-0.000179923
-6.4315e-05
-0.000166034
-7.78449e-05
-0.000150151
-8.99532e-05
-0.00013243
-0.000100718
-0.000113126
-0.000110076
-9.24512e-05
-0.000118004
-7.06601e-05
-0.000124443
-4.79629e-05
-0.000129378
-2.46505e-05
-0.000132681
-1.05882e-06
-0.000134221
2.24631e-05
-0.000133927
4.55721e-05
-0.000131834
6.79557e-05
-0.000128074
8.9357e-05
-0.000122737
0.000109548
-0.000115994
0.000128307
-0.000107882
0.000145462
-9.84839e-05
0.000160799
-8.78211e-05
0.000174104
-7.59193e-05
0.000185155
-6.28402e-05
0.00019375
-4.87139e-05
0.000199626
-3.35769e-05
0.000202531
-1.76629e-05
0.000202343
-1.16699e-06
0.000198907
1.57231e-05
0.000192205
3.24375e-05
0.000182317
4.86129e-05
0.000169315
6.38078e-05
0.000153776
7.75792e-05
0.000135614
8.98599e-05
0.000115662
9.97686e-05
9.41827e-05
0.000107402
7.17534e-05
0.000112396
4.89391e-05
0.000114704
2.63508e-05
0.000114172
4.49281e-06
0.000110934
-1.61781e-05
0.000105176
-3.52153e-05
9.6944e-05
-5.22067e-05
8.63409e-05
-6.66909e-05
7.34531e-05
-7.82391e-05
5.82357e-05
-8.63368e-05
4.07187e-05
-9.02545e-05
2.09626e-05
-8.90646e-05
-9.94452e-07
-8.19168e-05
-2.4378e-05
-6.82409e-05
-4.81621e-05
-4.84124e-05
-6.97947e-05
-2.50932e-05
-8.28544e-05
-4.65059e-06
-7.26547e-05
-1.04204e-05
7.06807e-06
-2.49387e-05
3.44914e-05
-0.000107169
6.63678e-05
-0.000121166
9.34385e-05
-0.000102648
0.000111587
-7.13176e-05
0.000120393
-3.72621e-05
0.000121258
-4.81681e-06
0.000115827
2.46503e-05
0.000105563
5.04378e-05
9.14292e-05
7.29513e-05
7.41728e-05
9.2401e-05
5.41832e-05
0.000109049
3.18577e-05
0.000122922
7.61162e-06
0.000133891
-1.81243e-05
0.000141821
-4.46975e-05
0.000146284
-7.15751e-05
0.000147345
-9.8117e-05
0.000144761
-0.000123461
0.00013864
-0.000147244
0.000129167
-0.000168589
0.000116368
-0.000187075
0.00010092
-0.000202227
8.31617e-05
-0.000213779
6.37087e-05
-0.000221567
4.30457e-05
-0.000225553
2.17836e-05
-0.000225718
4.39248e-07
-0.000222225
-2.05836e-05
-0.000215354
-4.06377e-05
-0.000205356
-5.95911e-05
-0.000192622
-7.70512e-05
-0.000177406
-9.30635e-05
-0.000160094
-0.000107267
-0.000140953
-0.00011986
-0.000120205
-0.000130824
-9.80985e-05
-0.000140112
-7.4836e-05
-0.000147705
-5.06577e-05
-0.000153557
-2.58289e-05
-0.00015751
-7.27896e-07
-0.000159322
2.4285e-05
-0.00015894
4.88466e-05
-0.000156396
7.26279e-05
-0.000151855
9.53797e-05
-0.000145489
0.000116892
-0.000137507
0.000136957
-0.000127947
0.000155383
-0.00011691
0.000171957
-0.000104395
0.000186471
-9.04336e-05
0.000198686
-7.5055e-05
0.000208231
-5.82593e-05
0.000214882
-4.02274e-05
0.000218382
-2.1163e-05
0.000218465
-1.25009e-06
0.000214956
1.92321e-05
0.00020774
3.96539e-05
0.000196924
5.94287e-05
0.000182691
7.80416e-05
0.000165169
9.51009e-05
0.000145167
0.000109863
0.000122706
0.00012223
9.86317e-05
0.000131476
7.35193e-05
0.000137509
4.79892e-05
0.000140235
2.26909e-05
0.00013947
-1.76453e-06
0.000135389
-2.48796e-05
0.000128291
-4.6239e-05
0.000118304
-6.54768e-05
0.000105578
-8.22001e-05
9.01757e-05
-9.60605e-05
7.20956e-05
-0.000106331
5.0988e-05
-0.000112129
2.67587e-05
-0.000112003
-1.12102e-06
-0.000104173
-3.22068e-05
-8.72712e-05
-6.50667e-05
-6.16151e-05
-9.54489e-05
-3.13006e-05
-0.000113171
-5.44585e-06
-9.85082e-05
-1.58679e-05
7.25149e-06
-3.21905e-05
4.14872e-05
-0.000141405
8.39066e-05
-0.000163585
0.000120187
-0.000138928
0.000142923
-9.40533e-05
0.000151938
-4.62772e-05
0.000150474
-3.35257e-06
0.000141996
3.31286e-05
0.000128598
6.38366e-05
0.000111472
9.00781e-05
9.13182e-05
0.000112555
6.85225e-05
0.000131845
4.33272e-05
0.000148118
1.60375e-05
0.000161181
-1.29354e-05
0.000170794
-4.29788e-05
0.000176328
-7.33496e-05
0.000177717
-0.00010349
0.000174902
-0.000132369
0.000167519
-0.000159116
0.000155915
-0.000183184
0.000140436
-0.000203905
0.000121641
-0.000220732
9.99886e-05
-0.000233501
7.64785e-05
-0.000241954
5.14999e-05
-0.000245988
2.58175e-05
-0.000245627
7.76425e-08
-0.000241287
-2.49248e-05
-0.000233207
-4.872e-05
-0.000221748
-7.10511e-05
-0.000207359
-9.14412e-05
-0.000190539
-0.000109883
-0.00017154
-0.000126265
-0.000150721
-0.000140678
-0.000128328
-0.000153216
-0.000104556
-0.000163882
-7.95964e-05
-0.000172665
-5.37162e-05
-0.000179437
-2.71506e-05
-0.000184075
-2.73142e-07
-0.000186199
2.64873e-05
-0.0001857
5.27268e-05
-0.000182635
7.81041e-05
-0.000177232
0.000102382
-0.000169767
0.000125381
-0.000160506
0.000146916
-0.000149482
0.000166804
-0.000136799
0.000184869
-0.00012246
0.000200858
-0.000106423
0.000214503
-8.87005e-05
0.000225385
-6.91413e-05
0.000233159
-4.8002e-05
0.0002374
-2.54045e-05
0.000237853
-1.70439e-06
0.000234288
2.27962e-05
0.000226601
4.73404e-05
0.000214727
7.13029e-05
0.000198884
9.38846e-05
0.000179339
0.000114645
0.000156505
0.000132695
0.000131221
0.000147514
0.000103904
0.000158793
7.53905e-05
0.000166023
4.66126e-05
0.000169012
1.80167e-05
0.000168066
-9.44505e-06
0.000162851
-3.53991e-05
0.000154246
-5.94473e-05
0.000142352
-8.13519e-05
0.000127482
-0.000100866
0.000109689
-0.000117592
8.88231e-05
-0.000131047
6.44429e-05
-0.000139935
3.56464e-05
-0.000142192
1.13734e-06
-0.000134345
-4.00525e-05
-0.000113125
-8.62873e-05
-7.85503e-05
-0.000130022
-3.79356e-05
-0.000153788
-5.42008e-06
-0.000131023
-2.12869e-05
4.08493e-06
-3.62754e-05
4.51504e-05
-0.00018247
0.000103952
-0.000222387
0.000155664
-0.00019064
0.000185263
-0.000123651
0.000193262
-5.42763e-05
0.000186989
2.92158e-06
0.00017342
4.66975e-05
0.000155513
8.17447e-05
0.000134729
0.000110863
0.000111307
0.000135978
8.54069e-05
0.000157746
5.70392e-05
0.000176486
2.6268e-05
0.000191953
-6.60122e-06
0.000203664
-4.06956e-05
0.000210423
-7.54587e-05
0.00021248
-0.000109856
0.000209299
-0.000142777
0.000200439
-0.000173477
0.000186615
-0.000200779
0.000167738
-0.000224113
0.000144974
-0.000243153
0.000119029
-0.000257292
9.06179e-05
-0.000266356
6.05637e-05
-0.000270301
2.97624e-05
-0.000269307
-9.17051e-07
-0.00026376
-3.04718e-05
-0.000254032
-5.84475e-05
-0.000240704
-8.43762e-05
-0.000224329
-0.000107815
-0.000205435
-0.000128775
-0.000184415
-0.000147283
-0.000161682
-0.000163411
-0.000137427
-0.000177471
-0.000111816
-0.000189493
-8.50156e-05
-0.000199466
-5.71946e-05
-0.000207258
-2.86053e-05
-0.000212665
3.47976e-07
-0.000215153
2.91453e-05
-0.000214498
5.72792e-05
-0.00021077
8.4413e-05
-0.000204366
0.000110357
-0.000195711
0.00013498
-0.000185129
0.000158133
-0.000172636
0.000179693
-0.000158359
0.00019948
-0.000142247
0.000217256
-0.0001242
0.000232651
-0.000104095
0.000245257
-8.17477e-05
0.000254556
-5.73013e-05
0.000260037
-3.08853e-05
0.000261208
-2.87637e-06
0.000257774
2.62302e-05
0.000249414
5.57004e-05
0.000236183
8.45342e-05
0.000218286
0.000111782
0.000196255
0.000136677
0.000170437
0.000158513
0.00014138
0.000176572
0.000110203
0.00018997
7.76463e-05
0.000198579
4.4752e-05
0.000201906
1.24199e-05
0.000200398
-1.8723e-05
0.000193994
-4.79421e-05
0.000183465
-7.50599e-05
0.00016947
-9.97389e-05
0.000152161
-0.00012227
0.000132222
-0.000142694
0.000109249
-0.000160526
8.22757e-05
-0.000174503
4.96251e-05
-0.00018169
8.32562e-06
-0.000175156
-4.65889e-05
-0.000147469
-0.000113972
-9.79208e-05
-0.000179571
-4.12281e-05
-0.000210479
-2.13402e-06
-0.000170119
-2.34221e-05
-4.89688e-06
-3.13783e-05
4.58384e-05
-0.000233205
0.000132675
-0.000309223
0.000207247
-0.000265212
0.000244079
-0.000160483
0.000247058
-5.72554e-05
0.000231592
1.83886e-05
0.000209737
6.85526e-05
0.000185841
0.000105641
0.000160684
0.00013602
0.000134031
0.000162631
0.000105028
0.000186751
7.32924e-05
0.000208222
3.87308e-05
0.000226515
1.67501e-06
0.000240721
-3.7411e-05
0.000249509
-7.75014e-05
0.00025257
-0.000117107
0.000248904
-0.000155329
0.000238661
-0.000190483
0.000221768
-0.000221956
0.00019921
-0.000248694
0.000171712
-0.00027005
0.000140385
-0.000285708
0.000106274
-0.000295402
7.02572e-05
-0.000299102
3.34627e-05
-0.000297095
-2.92247e-06
-0.000289838
-3.77279e-05
-0.000277953
-7.03317e-05
-0.000262181
-0.000100148
-0.000243242
-0.000126755
-0.000221823
-0.000150196
-0.000198436
-0.000170672
-0.000173502
-0.000188346
-0.00014725
-0.000203723
-0.000119677
-0.000217067
-9.08999e-05
-0.000228243
-6.09722e-05
-0.000237186
-3.01546e-05
-0.000243483
1.21294e-06
-0.000246521
3.23586e-05
-0.000245644
6.255e-05
-0.000240961
9.15369e-05
-0.000233353
0.000119196
-0.00022337
0.000145481
-0.000211413
0.000170381
-0.000197536
0.000193788
-0.000181766
0.000215585
-0.000164043
0.000235513
-0.000144129
0.000253133
-0.000121714
0.000267961
-9.65759e-05
0.000279285
-6.86253e-05
0.000286444
-3.80453e-05
0.000288699
-5.13107e-06
0.000285638
2.92903e-05
0.000276741
6.45966e-05
0.000262117
9.91579e-05
0.000241971
0.000131927
0.000216685
0.000161962
0.00018691
0.000188287
0.000153575
0.000209907
0.000117533
0.000226012
7.99161e-05
0.000236196
4.20617e-05
0.00023976
5.16052e-06
0.000237299
-3.00168e-05
0.000229172
-6.2775e-05
0.000216224
-9.27572e-05
0.000199453
-0.000120378
0.000179783
-0.000146179
0.000158024
-0.000170651
0.000133722
-0.00019447
0.000106093
-0.000216649
7.18043e-05
-0.000232987
2.46645e-05
-0.000231877
-4.77002e-05
-0.000197819
-0.00014803
-0.000126495
-0.000250897
-4.21515e-05
-0.000294822
7.30035e-06
-0.00021957
-1.61214e-05
-7.98969e-06
-2.33883e-05
8.79587e-05
-0.000329152
0.000223449
-0.000444713
0.000313469
-0.000355231
0.000337743
-0.000184756
0.000318497
-3.80088e-05
0.000284127
5.27585e-05
0.000249554
0.000103126
0.000217918
0.000137278
0.000188442
0.000165497
0.000158839
0.000192233
0.000127293
0.000218297
9.23512e-05
0.000243164
5.3781e-05
0.000265086
1.17069e-05
0.000282795
-3.31151e-05
0.000294331
-7.95194e-05
0.000298974
-0.000125862
0.000295247
-0.000170275
0.000283074
-0.000211268
0.000262762
-0.000247435
0.000235376
-0.000277961
0.000202237
-0.000302132
0.000164554
-0.000319503
0.000123645
-0.000329816
8.05704e-05
-0.000332987
3.66335e-05
-0.000329533
-6.37764e-06
-0.000319984
-4.7279e-05
-0.000305152
-8.51651e-05
-0.00028611
-0.000119193
-0.000263844
-0.000149022
-0.000239292
-0.000174749
-0.000213177
-0.000196787
-0.000185823
-0.000215699
-0.000157419
-0.000232128
-0.000127948
-0.000246538
-9.72121e-05
-0.00025898
-6.51531e-05
-0.000269246
-3.17964e-05
-0.00027684
2.47225e-06
-0.00028079
3.63807e-05
-0.000279552
6.87484e-05
-0.000273329
9.94522e-05
-0.000264057
0.000128701
-0.000252618
0.000156618
-0.00023933
0.000183254
-0.000224172
0.000208665
-0.000207177
0.000232762
-0.000188142
0.000255335
-0.000166702
0.000275821
-0.0001422
0.000293597
-0.000114352
0.000307739
-8.27675e-05
0.000317173
-4.74799e-05
0.000320989
-8.94784e-06
0.00031855
3.17282e-05
0.000309232
7.39139e-05
0.000292989
0.0001154
0.000270121
0.000154795
0.000241171
0.000190912
0.000206879
0.000222579
0.000168079
0.000248706
0.000125951
0.00026814
8.22312e-05
0.000279916
3.83533e-05
0.000283638
-3.93565e-06
0.000279588
-4.36703e-05
0.000268908
-8.00625e-05
0.000252617
-0.000112911
0.000232301
-0.00014304
0.000209911
-0.000171185
0.000186168
-0.000199777
0.000162313
-0.000230954
0.00013727
-0.000265654
0.000106504
-0.000300729
5.97377e-05
-0.00032263
-2.5798e-05
-0.00030328
-0.000167379
-0.000218984
-0.000335192
-8.64739e-05
-0.000427332
9.06197e-06
-0.000315107
-7.05943e-06
5.07922e-05
-7.41802e-05
0.000275664
-0.000554023
0.000468057
-0.000637106
0.000534288
-0.000421462
0.000495273
-0.000145741
0.0004137
4.35657e-05
0.000341488
0.00012497
0.000287669
0.000156946
0.000248184
0.000176762
0.000215927
0.000197755
0.00018528
0.00022288
0.000152198
0.00025138
0.000114387
0.000280976
7.16106e-05
0.000307863
2.38096e-05
0.000330596
-2.78869e-05
0.000346027
-8.21857e-05
0.000353273
-0.000136524
0.000349585
-0.000188567
0.000335117
-0.000236346
0.000310539
-0.000278167
0.000277197
-0.00031312
0.00023719
-0.000340499
0.000191933
-0.000359785
0.00014293
-0.000370661
9.14456e-05
-0.00037293
3.89005e-05
-0.000367405
-1.19045e-05
-0.000354651
-6.00348e-05
-0.000335796
-0.000104019
-0.000312443
-0.000142545
-0.000285881
-0.000175584
-0.00025736
-0.000203269
-0.000227854
-0.000226293
-0.00019785
-0.000245703
-0.000167418
-0.000262561
-0.000136274
-0.000277683
-0.000103901
-0.000291353
-6.97914e-05
-0.000303356
-3.35642e-05
-0.000313067
4.29967e-06
-0.000318654
4.15513e-05
-0.000316804
7.61867e-05
-0.000307964
0.000108307
-0.000296177
0.000138686
-0.000282998
0.000167857
-0.000268501
0.000196133
-0.000252448
0.000223708
-0.000234751
0.000250539
-0.000214973
0.000276295
-0.000192458
0.000300474
-0.000166378
0.000322159
-0.000136037
0.000340135
-0.000100744
0.000352919
-6.02645e-05
0.000359121
-1.515e-05
0.000357614
3.32342e-05
0.000348006
8.35223e-05
0.000329944
0.000133462
0.000303918
0.00018082
0.000270553
0.000224277
0.000230587
0.000262545
0.000185343
0.000293951
0.000136208
0.000317275
8.50381e-05
0.000331086
3.37544e-05
0.000334922
-1.48964e-05
0.00032824
-5.9898e-05
0.00031391
-0.000100001
0.00029272
-0.000135203
0.000267502
-0.000166237
0.000240947
-0.000195479
0.000215411
-0.000226597
0.000193431
-0.000265334
0.000176008
-0.000318692
0.000159864
-0.000391446
0.00013249
-0.000476486
5.92432e-05
-0.000522993
-0.000120875
-0.000464749
-0.00039344
-0.000275523
-0.000616551
-5.08291e-05
-0.000539801
-5.78888e-05
0.000217856
-0.000292036
0.000589351
-0.000925519
0.000792891
-0.000840646
0.000796292
-0.000424863
0.000674528
-2.39764e-05
0.00051662
0.000201473
0.000391413
0.000250178
0.000315497
0.000232863
0.000271224
0.000221036
0.000240648
0.000228331
0.000212153
0.000251375
0.000179602
0.000283932
0.000140105
0.000320473
9.30128e-05
0.000354955
3.85953e-05
0.000385013
-2.1505e-05
0.000406128
-8.56382e-05
0.000417407
-0.000150006
0.000413952
-0.000211432
0.000396544
-0.00026714
0.000366247
-0.000315604
0.000325662
-0.00035562
0.000277206
-0.000386607
0.000222921
-0.000407992
0.000164314
-0.00041926
0.000102714
-0.000420429
4.0071e-05
-0.000411758
-2.05735e-05
-0.000394442
-7.73482e-05
-0.000370259
-0.000128201
-0.000340989
-0.000171816
-0.000308673
-0.0002079
-0.000275092
-0.00023685
-0.000241563
-0.000259822
-0.000208766
-0.000278501
-0.000176542
-0.000294785
-0.000144078
-0.000310147
-0.000110397
-0.000325034
-7.42696e-05
-0.000339484
-3.49875e-05
-0.00035235
6.66433e-06
-0.000360306
4.73983e-05
-0.000357539
8.42731e-05
-0.000344839
0.000117524
-0.000329428
0.000148576
-0.00031405
0.000178546
-0.000298471
0.000208194
-0.000282096
0.000237947
-0.000264504
0.000267883
-0.00024491
0.000297702
-0.000222276
0.000326642
-0.000195319
0.000353568
-0.000162963
0.000376893
-0.000124069
0.000394526
-7.78977e-05
0.000404212
-2.48369e-05
0.000404372
3.30739e-05
0.000394648
9.32462e-05
0.000374475
0.000153635
0.000344752
0.000210542
0.000306352
0.000262678
0.00026029
0.000308607
0.000207421
0.00034682
0.000149387
0.000375309
8.86523e-05
0.000391821
2.82241e-05
0.000395351
-2.84387e-05
0.000384903
-7.94477e-05
0.00036492
-0.000123275
0.000336548
-0.000159876
0.000304104
-0.0001899
0.000270971
-0.000216312
0.000241824
-0.000245587
0.000222706
-0.000288443
0.000218864
-0.00036319
0.000234612
-0.00048872
0.000258021
-0.000651155
0.000221678
-0.000779814
7.83079e-06
-0.000782906
-0.000390313
-0.000583073
-0.000816413
-0.000216831
-0.000906043
-0.00027472
0.000384006
-0.000676042
0.000724214
-0.00126573
0.000846165
-0.000962599
0.000803837
-0.000382523
0.000682791
9.71144e-05
0.000522639
0.000361639
0.000394355
0.000378461
0.000318763
0.000308455
0.000282956
0.000256843
0.000264404
0.000246883
0.000245953
0.000269827
0.000218361
0.000311524
0.000178532
0.000360301
0.000126679
0.000406808
6.3965e-05
0.000447727
-7.98301e-06
0.000478076
-8.47264e-05
0.000494149
-0.000162876
0.000492101
-0.000236817
0.000470485
-0.000302705
0.000432136
-0.000358648
0.000381606
-0.000404445
0.000323003
-0.00043976
0.000258236
-0.000463738
0.000188294
-0.000475437
0.000114415
-0.000474485
3.91201e-05
-0.000461303
-3.37571e-05
-0.000437436
-0.000101215
-0.000405559
-0.000160079
-0.000368596
-0.000208779
-0.000329336
-0.00024716
-0.000290062
-0.000276124
-0.000252276
-0.000297608
-0.000216469
-0.000314309
-0.000182132
-0.000329123
-0.000147928
-0.000344351
-0.00011247
-0.000360493
-7.46879e-05
-0.000377266
-3.39031e-05
-0.000393135
8.94953e-06
-0.000403159
5.06453e-05
-0.000399235
8.83616e-05
-0.000382556
0.000122393
-0.00036346
0.000154452
-0.00034611
0.000185732
-0.000329751
0.000217177
-0.000313541
0.00024925
-0.000296577
0.000282196
-0.000277856
0.000315916
-0.000255996
0.000350106
-0.000229509
0.000383816
-0.000196673
0.000414793
-0.000155046
0.000439707
-0.000102812
0.00045513
-4.02598e-05
0.000458417
2.9787e-05
0.000448602
0.000103062
0.000425811
0.000176426
0.000391556
0.000244797
0.000347232
0.000307001
0.000293644
0.000362195
0.000231301
0.000409164
0.000161896
0.000444714
8.85759e-05
0.000465141
1.58218e-05
0.000468106
-5.1639e-05
0.000452365
-0.000110457
0.000423738
-0.000158477
0.000384568
-0.000194984
0.000340612
-0.000219947
0.000295935
-0.000236312
0.000258189
-0.000252928
0.000239322
-0.000287212
0.00025315
-0.000362005
0.000309405
-0.000491225
0.000387242
-0.000653906
0.000384481
-0.000780957
0.000135082
-0.000823393
-0.000348238
-0.000704359
-0.000935447
-0.000376246
-0.00123416
-0.000650966
0.000311229
-0.000987271
0.000405745
-0.00136024
0.000412291
-0.000969181
0.000393478
-0.000363729
0.000346174
0.000144393
0.000316092
0.000391823
0.000290131
0.000404423
0.000281238
0.000317348
0.00028982
0.000248262
0.000303821
0.000232882
0.000307979
0.000265669
0.0002919
0.000327604
0.000253963
0.000398238
0.00019714
0.00046363
0.000123959
0.000520908
3.65358e-05
0.000565498
-5.96897e-05
0.000590375
-0.000158641
0.000591053
-0.000251131
0.000562975
-0.000330955
0.000511959
-0.000396744
0.000447395
-0.000449973
0.000376232
-0.000491019
0.000299283
-0.000518783
0.000216056
-0.000530986
0.000126617
-0.000526814
3.49467e-05
-0.000506882
-5.36893e-05
-0.000473758
-0.00013434
-0.000431594
-0.000202243
-0.000385144
-0.000255229
-0.000338373
-0.000293932
-0.000293695
-0.000320802
-0.000251783
-0.00033952
-0.000212289
-0.000353803
-0.000174103
-0.000367308
-0.000136152
-0.000382302
-9.84709e-05
-0.000398174
-6.17347e-05
-0.000414003
-2.55616e-05
-0.000429308
1.06037e-05
-0.000439325
4.57824e-05
-0.000434414
7.90159e-05
-0.00041579
0.00011145
-0.000395895
0.000144586
-0.000379246
0.000179108
-0.000364273
0.000214454
-0.000348887
0.000249831
-0.000331955
0.000285109
-0.000313134
0.000321304
-0.00029219
0.000359704
-0.000267909
0.000400857
-0.000237826
0.000442201
-0.000196389
0.000478274
-0.000138884
0.000502727
-6.47126e-05
0.000510989
2.15253e-05
0.000501437
0.000112614
0.000475284
0.000202579
0.000434767
0.000285314
0.000382509
0.000359258
0.000319285