/*--------------------------------*- C++ -*----------------------------------*\
| =========                 |                                                 |
| \\      /  F ield         | OpenFOAM: The Open Source CFD Toolbox           |
|  \\    /   O peration     | Version:  2412                                  |
|   \\  /    A nd           | Website:  www.openfoam.com                      |
|    \\/     M anipulation  |                                                 |
\*---------------------------------------------------------------------------*/
FoamFile
{
    version     2.0;
    format      ascii;
    arch        "LSB;label=32;scalar=64";
    class       volScalarField;
    location    "4.4";
    object      alpha.oil;
}
// * * * * * * * * * * * * * * * * * * * * * * * * * * * * * * * * * * * * * //

dimensions      [0 0 0 0 0 0 0];

internalField   nonuniform List<scalar> 
6400
(
1
0.999998
0.999999
0.999999
0.999999
0.999999
0.999999
0.999999
0.999999
0.999999
0.999999
1
1
1
1
1
1
1
1
0.999999
0.999999
0.999999
0.999999
0.999999
1
0.999999
0.999999
0.999999
0.999999
0.999999
0.999999
0.999999
0.999999
0.999999
0.999999
1
1
1
1
1
1
1
1
1
1
1
1
1
1
1
1
1
1
1
1
1
1
1
1
1
1
1
1
1
1
1
1
1
1
1
1
1
1
0.999999
0.999999
0.999999
0.999999
0.999999
0.999999
1
0.999999
0.999998
0.999998
0.999998
0.999999
0.999999
0.999999
0.999999
0.999999
0.999999
1
1
1
1
1
1
1
0.999999
0.999999
0.999999
0.999999
1
1
1
0.999999
0.999999
0.999999
0.999998
0.999999
0.999999
0.999999
0.999999
0.999999
0.999999
1
1
1
1
1
1
1
1
1
1
1
1
1
1
1
1
1
1
1
1
0.999999
0.999999
1
1
1
1
1
1
1
1
1
1
1
1
1
1
1
0.999999
0.999999
0.999999
0.999999
0.999999
0.999998
0.999998
0.999998
1
0.999999
0.999998
0.999999
0.999999
0.999999
0.999999
0.999999
0.999999
0.999999
1
1
1
1
0.999999
0.999998
0.999999
1
1
1
1
1
1
1
1
1
1
1
1
1
1
1
1
1
1
1
1
1
0.999999
0.999999
0.999999
0.999999
0.999999
0.999999
0.999999
1
0.999999
0.999999
0.999998
0.999998
0.999998
0.999998
0.999998
0.999998
0.999999
1
1
1
0.999999
0.999999
0.999999
0.999999
0.999999
0.999998
0.999998
0.999999
1
1
1
1
0.999999
0.999999
0.999999
0.999998
0.999998
0.999999
0.999999
0.999999
0.999999
1
0.999999
1
1
1
1
1
0.999999
1
1
1
1
0.999999
0.999999
1
0.999999
0.999999
0.999999
1
1
1
1
1
1
1
1
1
1
1
1
1
1
1
1
1
1
1
0.999999
0.999999
0.999999
0.999999
0.999999
0.999999
0.999999
0.999999
0.999999
1
1
1
0.999999
0.999998
0.999998
0.999999
0.999999
0.999999
0.999999
0.999999
0.999999
0.999999
0.999999
0.999999
0.999999
0.999999
0.999999
0.999999
1
1
1
1
1
0.999999
1
1
1
1
1
1
0.999999
1
1
1
0.999998
1
1
1
1
1
1
1
0.999999
1
1
0.999999
1
1
1
0.999999
0.999998
0.999998
0.999999
0.999999
0.999999
0.999998
0.999998
0.999998
0.999999
0.999999
0.999999
1
1
1
1
1
1
1
1
1
1
1
1
1
1
1
1
1
1
1
1
1
1
1
1
1
1
1
1
1
1
1
1
1
1
1
1
1
1
1
1
1
1
1
1
1
1
1
1
1
1
0.999999
1
0.999997
0.999999
1
1
1
1
1
0.999999
1
0.999999
1
1
0.999999
1
1
1
1
0.999999
0.999999
0.999999
0.999999
0.999998
0.999998
0.999998
0.999998
0.999998
0.999999
0.999999
0.999999
1
1
1
1
1
1
1
1
1
1
1
1
1
1
1
0.999999
0.999999
0.999999
1
1
1
1
1
1
1
1
1
1
1
1
1
1
1
1
1
1
1
1
1
0.999999
0.999999
0.999999
0.999999
0.999999
1
1
1
1
1
0.999999
0.999999
0.999997
1
1
1
0.999999
0.999999
0.999999
0.999999
1
0.999999
1
1
1
1
1
1
1
1
1
1
1
1
1
1
1
1
1
1
1
1
1
1
1
1
1
1
1
1
1
1
0.999999
0.999999
0.999999
0.999999
0.999998
0.999998
0.999998
0.999998
0.999999
0.999999
0.999999
1
1
1
1
1
1
1
1
1
1
1
1
1
1
0.999999
0.999999
0.999998
0.999998
0.999998
0.999998
0.999998
0.999999
0.999999
0.999999
1
1
1
1
0.999999
1
1
1
0.999999
0.999999
0.999999
0.999999
1
1
0.999999
1
1
0.999999
0.999998
0.999999
1
1
1
1
1
1
1
1
1
1
1
1
1
1
1
1
0.999999
1
1
1
1
1
1
1
1
1
1
1
1
0.999999
0.999998
0.999998
0.999998
0.999998
0.999999
0.999999
0.999999
0.999999
0.999999
0.999999
0.999999
0.999999
1
1
1
1
1
1
1
0.999999
0.999999
0.999999
0.999999
0.999999
0.999999
0.999999
0.999999
0.999999
0.999999
0.999999
0.999999
0.999999
0.999999
0.999999
0.999999
1
1
1
0.999999
0.999999
1
1
1
1
0.999999
1
1
0.999999
0.999997
0.999997
0.999998
0.999999
0.999998
0.999998
0.999998
0.999999
0.999999
0.999999
0.999999
0.999999
0.999999
0.999999
1
1
1
1
0.999999
0.999999
0.999999
1
1
1
1
1
1
1
1
1
1
1
1
1
1
1
1
1
1
1
1
1
1
1
1
1
1
1
1
1
1
1
1
1
1
1
1
1
1
1
1
1
0.999999
0.999999
0.999999
0.999999
1
1
0.999996
0.999999
0.999999
1
1
1
1
1
0.999999
1
1
1
0.999999
0.999999
0.999999
1
1
0.999999
1
1
1
1
1
1
1
0.999999
0.999999
0.999999
0.999999
0.999999
0.999998
0.999998
0.999998
0.999998
0.999998
0.999998
0.999999
0.999999
0.999999
0.999999
0.999999
0.999999
1
1
1
1
1
1
1
1
1
1
1
1
1
1
1
1
1
1
1
1
1
0.999999
0.999999
0.999999
0.999999
1
1
1
1
1
1
1
1
1
1
1
1
0.999999
0.999999
1
1
1
1
0.999999
1
1
1
1
1
1
1
1
1
1
1
1
1
1
1
1
1
1
1
1
1
0.999999
0.999999
0.999999
0.999998
0.999998
0.999998
0.999998
0.999998
0.999998
0.999998
0.999998
0.999998
0.999998
0.999998
0.999998
0.999998
0.999998
0.999998
0.999998
0.999998
0.999998
0.999998
0.999998
0.999998
0.999998
0.999998
0.999997
0.999997
0.999997
0.999997
0.999997
0.999998
0.999999
0.999999
0.999999
0.999999
0.999999
0.999999
0.999999
0.999999
0.999999
1
1
1
1
1
1
1
1
1
1
1
0.999998
1
1
1
1
1
0.999998
1
1
0.999999
1
1
1
1
1
1
1
1
1
1
1
1
1
1
1
1
1
0.999999
0.999999
0.999999
0.999999
0.999999
0.999999
0.999999
0.999999
0.999999
1
0.999999
0.999999
0.999999
0.999999
0.999999
0.999999
0.999999
0.999999
0.999999
0.999999
0.999999
0.999998
0.999998
0.999998
0.999998
0.999997
0.999997
0.999997
0.999997
0.999997
0.999998
0.999999
0.999999
1
1
1
1
1
1
1
1
1
1
1
1
1
1
1
1
1
1
1
0.999998
1
1
1
1
0.999999
1
0.999997
1
0.999999
0.999998
1
0.999999
0.999998
0.999998
0.999998
0.999999
0.999999
0.999999
0.999999
0.999999
0.999999
0.999999
0.999999
0.999999
1
0.999999
0.999999
0.999999
0.999999
0.999999
1
1
1
1
1
1
1
1
1
1
1
1
1
1
1
1
1
1
1
1
1
1
1
1
1
1
1
1
1
1
1
1
1
1
1
1
1
1
1
1
1
1
1
0.999999
0.999999
1
1
1
0.999998
0.999996
1
0.999996
1
1
0.999998
1
0.999998
1
0.999997
0.999997
0.999999
0.999999
0.999998
0.999998
0.999998
0.999999
0.999999
0.999999
0.999999
1
1
1
1
1
1
1
1
1
1
1
1
1
1
1
1
1
1
1
1
1
1
1
1
1
1
1
1
1
1
1
1
1
1
1
1
1
1
1
1
1
0.999999
0.999999
0.999999
1
1
1
1
1
1
1
1
1
1
1
1
1
1
0.999998
0.999996
1
0.999999
0.999997
0.999999
1
0.999998
1
1
1
0.999999
0.999999
1
1
1
1
1
1
1
1
1
1
1
1
1
1
1
1
1
1
1
1
0.999999
0.999998
0.999998
0.999998
1
1
1
1
1
1
1
1
1
1
1
1
1
1
1
1
1
1
1
1
0.999999
0.999999
0.999999
0.999998
0.999998
0.999998
0.999999
0.999999
0.999999
0.999999
0.999999
1
1
1
1
1
1
1
1
1
1
1
1
0.999998
0.999999
1
0.999994
1
0.999999
1
1
1
1
1
1
1
1
1
1
1
1
1
1
1
1
1
1
1
0.999999
0.999999
0.999999
0.999999
0.999999
0.999999
0.999998
0.999998
0.999998
0.999998
0.999999
0.999999
0.999999
0.999999
0.999999
0.999999
0.999999
0.999999
0.999999
0.999999
0.999999
0.999999
0.999999
0.999999
0.999999
0.999999
0.999999
0.999999
0.999999
0.999999
0.999999
0.999998
0.999998
0.999998
0.999998
0.999999
0.999999
0.999999
0.999999
0.999998
0.999998
0.999998
0.999999
0.999999
1
0.999999
1
1
1
1
1
1
1
1
1
0.999999
1
1
0.999999
1
1
1
1
1
1
1
1
1
1
1
1
0.999999
0.999999
0.999999
0.999999
0.999999
0.999999
0.999999
0.999999
0.999999
0.999999
1
1
1
1
0.999999
1
1
1
1
1
1
0.999999
0.999999
0.999999
0.999999
0.999998
0.999998
0.999998
0.999998
0.999998
0.999998
0.999998
0.999998
0.999998
0.999998
0.999998
0.999999
0.999999
0.999999
0.999999
0.999999
0.999999
1
1
1
1
1
1
1
1
1
1
1
1
1
1
1
1
1
1
1
1
1
1
1
1
0.999997
1.00001
1
1
1
1
1
1
1
1
1
1
1
1
0.999999
0.999999
0.999999
0.999999
0.999999
0.999999
1
1
1
1
1
1
1
1
1
1
1
1
1
1
1
1
1
1
1
0.999999
0.999999
0.999999
0.999999
0.999999
0.999998
0.999998
0.999998
0.999999
0.999999
0.999999
0.999999
0.999999
0.999999
0.999999
0.999999
0.999999
0.999999
1
1
1
1
1
1
1
1
1
1
1
1
1
1
1
1
1
1
1
1
1
1
1
0.999999
1
1
0.999999
1
0.999999
0.999999
0.999999
0.999999
0.999999
1
1
1
0.999999
0.999999
0.999999
0.999999
0.999999
0.999999
0.999999
1
1
1
1
1
1
1
1
1
1
1
1
1
1
1
1
1
1
1
1
1
1
1
1
1
1
1
1
1
1
1
1
1
1
1
1
1
1
1
1
1
1
1
1
1
1
1
1
1
1
1
1
1
1
1
1
1
0.999999
0.999999
0.999999
0.999999
1
1
0.919382
0.898919
0.887665
0.881055
0.877239
0.875501
0.875266
0.876176
0.878141
0.881048
0.88418
0.887411
0.89078
0.893911
0.896118
0.897669
0.900079
0.903912
0.907558
0.910546
0.912631
0.913659
0.913626
0.914739
0.918166
0.921494
0.922786
0.923067
0.922872
0.921355
0.918556
0.915831
0.915191
0.918554
0.922675
0.925624
0.928603
0.930948
0.931644
0.93264
0.93319
0.931735
0.930632
0.929864
0.927119
0.925124
0.921103
0.914704
0.913608
0.915303
0.918403
0.920551
0.921341
0.921275
0.920676
0.918009
0.914432
0.912192
0.911932
0.911561
0.909925
0.907302
0.903982
0.900254
0.896536
0.894171
0.892523
0.890437
0.887635
0.884599
0.881635
0.878906
0.876842
0.875913
0.8761
0.877797
0.881476
0.887816
0.898622
0.918445
0.175784
0.161757
0.15272
0.146354
0.142902
0.141705
0.142155
0.143438
0.145376
0.147942
0.151048
0.154705
0.158795
0.163317
0.168654
0.17447
0.178696
0.182335
0.185769
0.189632
0.194107
0.199245
0.204255
0.209197
0.208989
0.209859
0.211817
0.214525
0.217553
0.22171
0.22684
0.2333
0.237248
0.236637
0.23464
0.232409
0.230196
0.228564
0.227724
0.22701
0.226754
0.2275
0.22826
0.228987
0.230471
0.232221
0.234803
0.237349
0.235912
0.229756
0.223747
0.219053
0.215472
0.212333
0.209796
0.208343
0.20874
0.205685
0.200138
0.194837
0.189989
0.185857
0.182263
0.179019
0.175511
0.171516
0.166424
0.161271
0.156819
0.152976
0.149707
0.1471
0.145012
0.143825
0.143321
0.144395
0.147713
0.153882
0.162689
0.176325
1.61399e-08
1.59041e-08
1.56457e-08
1.56033e-08
1.56067e-08
1.56033e-08
1.59601e-08
4.5285e-08
1.30618e-06
4.00989e-06
6.4677e-06
8.76272e-06
1.12772e-05
1.37394e-05
1.62691e-05
1.82884e-05
1.96191e-05
2.5396e-05
3.2295e-05
3.63274e-05
4.00378e-05
4.29929e-05
4.83695e-05
9.67258e-05
0.00035413
0.000642031
0.000990378
0.00140586
0.00189515
0.00193784
0.00138159
0.000792503
0.000106425
7.9494e-06
4.87276e-06
4.91164e-06
2.46536e-06
2.70605e-06
2.57703e-06
2.60724e-06
2.60024e-06
2.54496e-06
2.43697e-06
2.3174e-06
2.15956e-06
1.95671e-06
2.46768e-06
2.80968e-05
0.000700765
0.0012872
0.00173016
0.00185243
0.00146214
0.00108636
0.000754837
0.000521573
0.000238581
8.6276e-05
5.60115e-05
5.07324e-05
4.58184e-05
4.00774e-05
3.39271e-05
2.40397e-05
1.5312e-05
1.34268e-05
1.27522e-05
1.10598e-05
8.68846e-06
6.42335e-06
4.62873e-06
2.2029e-06
2.13422e-07
5.07936e-08
4.71949e-08
4.72079e-08
4.71949e-08
4.78171e-08
4.82512e-08
4.83324e-08
1.61217e-08
1.16087e-07
1.88976e-07
4.23391e-08
1.56067e-08
1.59601e-08
2.13785e-05
0.000994098
0.00155479
0.00155766
0.00155935
0.00156007
0.00156
0.00156006
0.0014006
0.00146207
0.00399879
0.00400155
0.00400283
0.00400355
0.00400403
0.00400361
0.00400371
0.00135547
0.00529575
0.00591656
0.00591609
0.00557894
0.00532053
0.00533437
0.00533353
0.00347927
8.05947e-05
2.87433e-06
2.87839e-06
2.72061e-06
1.04077e-07
2.01165e-07
1.10569e-08
9.31546e-09
8.15363e-09
8.26025e-09
8.28054e-09
1.83704e-08
4.58399e-08
6.30575e-08
7.9693e-08
2.46768e-06
0.000999167
0.00535412
0.00595054
0.00595206
0.00598517
0.00649366
0.00649361
0.00647835
0.00207703
0.00262507
0.00509845
0.00509895
0.00509845
0.00509882
0.00509835
0.00509647
0.00490527
0.00207749
0.000380611
0.000845905
0.00140935
0.00140958
0.00140986
0.00140958
0.00132651
0.000257576
5.07936e-08
4.72079e-08
1.23218e-06
1.73444e-06
1.59972e-07
4.82512e-08
3.54899e-07
9.37796e-07
2.75616e-06
2.2408e-06
5.96855e-08
3.25193e-08
9.02213e-06
1.2783e-07
8.57427e-09
0.00012809
0.00031686
0.000473022
0.000569513
0.000755549
0.000819674
0.000806205
0.00014867
0.000434265
0.00060944
0.000704815
0.000795699
0.000681626
0.000644319
0.00074998
0.00022919
3.66942e-05
3.33656e-05
3.30909e-05
2.26248e-10
2.44205e-10
2.44061e-10
2.43354e-10
2.75782e-05
2.67213e-06
2.89286e-06
2.65782e-06
8.15816e-08
2.11995e-07
9.31546e-09
8.15363e-09
8.15363e-09
8.15363e-09
8.30971e-09
7.00448e-09
7.27401e-09
8.9201e-09
1.06153e-08
5.43898e-06
2.13161e-05
9.96889e-10
9.96355e-10
1.02919e-09
2.0391e-09
1.48944e-05
8.36049e-05
0.000362033
0.00137048
0.00127387
0.000583586
0.000786797
0.000726339
0.000632855
0.000501666
0.000244897
8.16379e-06
0.000691167
0.000961208
0.000925366
0.000583514
0.000445904
0.000289783
3.72678e-05
4.10732e-07
4.82239e-05
1.47732e-06
7.07881e-06
1.44347e-05
1.05828e-05
1.0398e-07
1.03459e-07
7.45878e-07
4.93193e-07
2.67784e-06
3.34361e-06
3.35824e-06
4.0258e-07
2.19573e-07
2.28727e-07
4.19202e-09
3.4624e-09
3.4423e-09
3.42623e-09
3.40445e-09
3.38808e-09
2.35777e-09
1.33621e-09
1.62034e-09
4.67105e-10
3.53179e-10
2.30553e-10
1.40148e-10
1.23116e-10
1.23616e-10
4.66548e-05
4.28315e-05
1.06855e-05
3.34983e-09
2.26248e-10
1.54965e-10
2.36527e-10
2.43115e-10
2.44061e-10
1.87558e-05
9.78116e-07
1.32492e-06
4.8449e-07
8.15816e-08
8.15292e-08
1.43343e-07
9.16791e-08
8.14833e-09
2.46598e-08
1.27642e-08
6.95465e-09
6.54811e-09
6.71809e-09
7.05678e-09
4.92838e-06
1.58931e-06
9.96355e-10
4.23938e-09
2.99158e-09
2.27603e-09
7.16257e-07
1.21827e-05
1.96042e-05
1.3155e-05
2.5036e-11
2.50081e-11
2.5036e-11
2.78694e-11
3.40112e-11
4.97506e-11
3.68266e-10
8.14086e-06
5.9427e-06
2.65622e-05
2.97525e-10
4.41428e-10
5.24762e-10
5.28485e-10
6.14957e-10
3.08932e-07
4.10732e-07
8.47928e-06
1.40481e-05
1.34326e-05
1.45181e-06
7.58794e-07
2.02487e-06
5.71654e-08
5.42698e-08
5.37254e-08
2.56319e-06
3.68337e-06
1.9415e-06
6.17721e-08
4.69407e-08
3.53662e-08
5.2686e-08
7.26449e-09
4.1568e-09
5.17242e-09
5.29708e-09
3.36393e-09
1.32847e-09
1.28132e-09
1.54113e-08
2.41307e-08
2.48831e-08
2.48714e-08
1.78053e-08
9.64454e-10
2.08328e-11
2.0851e-11
1.73113e-07
1.37573e-08
1.54966e-10
1.53017e-10
7.59324e-10
2.59762e-10
9.28777e-07
4.77103e-06
1.12923e-07
1.13912e-07
1.88232e-07
6.57092e-07
1.8794e-07
5.56323e-07
4.80341e-07
8.15363e-09
2.74291e-08
2.5867e-08
6.95544e-09
6.51306e-09
6.54811e-09
6.71809e-09
2.40513e-06
1.407e-08
5.08546e-08
1.13671e-08
4.23706e-09
2.25391e-09
2.47334e-11
2.4745e-11
2.47334e-11
2.4745e-11
2.52679e-11
1.45649e-10
9.40878e-10
1.1599e-09
2.96854e-09
3.21282e-09
7.66793e-08
4.97499e-07
2.36392e-10
2.35827e-10
2.36392e-10
6.39753e-09
1.41671e-08
6.54635e-09
7.09963e-09
1.90442e-08
4.46888e-06
1.70168e-05
1.27966e-05
1.21377e-07
8.98944e-08
4.23956e-07
2.02074e-06
5.45885e-08
5.369e-08
1.82979e-07
3.59341e-06
3.69175e-06
2.93296e-06
1.09015e-07
5.14516e-08
9.55592e-08
9.51128e-08
1.04564e-08
5.15624e-09
7.12491e-09
5.69382e-09
3.94836e-09
2.71927e-09
1.27957e-09
2.138e-11
2.1048e-11
2.08609e-11
2.07567e-11
2.07432e-11
2.07971e-11
2.08094e-11
2.08328e-11
2.0851e-11
1.55706e-10
1.70634e-10
1.51738e-10
5.45047e-09
2.51667e-07
6.45273e-07
1.10802e-07
1.08564e-07
1.08645e-07
6.69068e-07
1.04025e-06
3.01845e-07
5.56585e-07
5.38579e-07
8.20597e-09
2.32499e-08
3.16494e-08
6.40736e-09
6.39552e-09
7.53035e-09
7.74164e-09
2.78396e-08
1.22913e-08
1.68121e-08
1.01916e-08
5.26563e-09
3.21766e-09
1.30191e-09
3.85439e-11
3.75223e-11
3.48887e-11
4.6797e-11
2.31441e-11
3.281e-11
5.06613e-11
5.08382e-11
9.50532e-11
2.39643e-10
2.41399e-10
4.30472e-10
3.83065e-10
3.05362e-10
2.45209e-08
6.80575e-08
4.07332e-08
2.40542e-08
4.88794e-08
9.8561e-06
1.70844e-05
1.64001e-05
1.18098e-06
7.45212e-08
5.55016e-08
1.54416e-07
5.80462e-08
5.52272e-08
8.69883e-07
3.62507e-06
3.68955e-06
1.56192e-06
6.16197e-08
5.77667e-08
1.03337e-07
9.54809e-08
2.30337e-08
3.35339e-08
2.34675e-08
2.46375e-09
1.03989e-09
1.76184e-09
1.16392e-09
1.3621e-10
7.04458e-11
7.49333e-11
3.54641e-11
2.07297e-11
2.07278e-11
2.15817e-11
2.53976e-11
6.63277e-11
1.11921e-10
1.49689e-10
1.50063e-10
1.61216e-08
3.64554e-07
5.37591e-07
1.08563e-07
1.08645e-07
1.08575e-07
1.02711e-06
1.04025e-06
1.43108e-07
4.94943e-07
6.1617e-07
8.37481e-09
1.40579e-08
3.88697e-08
1.09995e-08
5.70006e-09
1.07211e-08
1.07639e-08
1.52883e-09
3.64762e-09
4.25747e-09
3.33132e-09
1.03235e-09
5.93681e-11
5.76379e-11
5.48525e-11
4.2891e-11
2.87632e-11
1.99259e-11
1.9831e-11
3.35985e-11
7.79561e-11
2.01832e-10
5.77279e-10
8.95168e-10
1.01938e-09
1.08341e-09
8.78125e-10
2.83211e-10
1.42829e-09
6.47148e-08
1.12916e-07
3.32574e-08
4.20879e-08
6.13018e-06
1.7068e-05
1.70844e-05
1.49513e-05
6.28373e-07
5.5519e-08
5.5519e-08
7.92253e-08
6.89163e-08
1.6742e-07
6.74133e-07
6.99431e-07
1.3666e-07
4.91809e-08
1.00531e-07
1.0319e-07
6.35476e-08
5.2451e-08
5.21768e-08
3.86691e-08
6.04363e-10
2.50962e-10
2.6298e-10
2.63908e-10
1.63679e-10
1.31258e-10
1.17376e-10
7.00103e-11
2.61326e-11
1.44195e-11
1.30558e-11
1.31798e-11
2.27437e-11
7.38695e-11
1.64045e-10
1.64509e-10
1.42731e-10
9.28498e-08
5.26072e-07
5.23603e-07
3.79789e-07
8.66617e-07
1.02007e-06
3.85382e-07
2.13254e-09
2.76012e-07
9.88749e-07
2.15773e-07
1.41649e-08
3.90103e-08
2.65637e-08
5.2083e-09
6.93274e-09
1.02736e-08
1.17651e-09
2.47832e-09
2.09868e-09
6.57236e-10
1.31982e-10
9.92292e-11
7.89338e-11
5.1922e-11
2.48192e-11
8.32758e-12
5.21056e-12
7.543e-12
2.79537e-11
7.29368e-11
1.60146e-10
5.13646e-10
9.91871e-10
1.0334e-09
9.46877e-10
4.9871e-10
1.92426e-10
1.98766e-10
4.77837e-08
1.1332e-07
1.04741e-07
5.11448e-08
5.23627e-07
7.3927e-06
1.23244e-05
4.48993e-06
6.22106e-07
4.37525e-08
5.64065e-08
1.98141e-07
1.27358e-07
2.82589e-08
1.90403e-08
6.77329e-10
9.28779e-10
3.296e-08
4.76179e-08
5.16362e-08
2.80435e-08
3.9181e-08
2.68665e-08
3.45742e-09
4.00769e-10
6.45226e-10
8.32187e-10
4.86455e-10
1.72539e-10
1.28946e-10
1.25051e-10
9.34552e-11
3.87965e-11
1.37348e-11
9.34745e-12
8.20449e-12
7.83995e-12
1.14142e-11
6.25581e-11
1.84585e-10
1.12143e-10
1.42731e-10
2.0757e-07
5.81758e-07
6.01218e-07
8.64434e-07
5.90953e-07
3.22466e-08
1.47305e-09
2.34382e-07
9.88892e-07
9.37684e-07
1.42022e-08
3.89297e-08
3.7331e-08
4.29137e-09
8.10257e-10
4.37643e-09
1.15947e-09
1.54321e-09
5.95311e-10
1.87435e-10
1.2512e-10
7.06245e-11
2.63397e-11
7.04596e-12
2.29245e-12
2.23077e-12
2.68707e-12
5.26883e-12
2.06887e-11
5.46995e-11
1.18982e-10
2.94437e-10
6.00928e-10
6.61622e-10
4.9454e-10
2.36038e-10
1.9159e-10
1.92426e-10
3.76431e-08
1.13301e-07
1.1332e-07
8.46365e-08
7.65577e-08
4.14108e-08
2.08361e-07
2.19223e-08
2.69827e-08
3.20431e-08
9.2401e-08
3.94631e-06
1.60441e-06
8.95751e-06
8.49652e-07
1.93314e-10
2.33588e-10
1.17478e-08
5.12122e-10
4.29287e-10
2.57169e-09
4.51614e-09
1.11939e-09
4.59596e-10
8.64865e-10
1.00987e-09
9.13029e-10
3.94258e-10
1.33537e-10
1.05871e-10
1.08048e-10
9.49844e-11
4.11628e-11
1.37582e-11
7.81117e-12
5.75727e-12
4.62677e-12
4.24138e-12
4.61233e-12
1.8031e-11
8.22674e-11
1.29142e-10
1.63018e-09
7.47683e-08
8.70919e-08
8.76544e-08
1.80549e-08
1.8515e-09
1.46383e-09
1.45881e-09
9.89017e-07
9.95163e-07
1.63017e-08
3.90021e-08
2.08972e-08
3.1896e-10
3.21378e-10
5.25619e-10
5.3529e-10
3.57914e-10
1.71235e-10
1.00605e-10
4.43574e-11
1.21722e-11
2.31025e-12
1.07282e-12
1.15925e-12
1.50626e-12
2.2191e-12
4.20185e-12
1.38728e-11
4.19697e-11
1.08859e-10
2.45131e-10
2.88505e-10
2.63876e-10
2.04488e-10
1.54579e-10
1.82194e-10
6.41299e-10
7.61358e-09
4.33965e-08
8.74873e-08
1.01957e-07
9.43689e-08
2.2261e-08
2.14209e-08
2.16102e-08
2.19219e-08
4.79443e-08
1.60647e-07
5.04915e-05
0.000113153
3.70066e-05
2.69044e-06
1.68986e-10
1.40813e-10
1.98529e-10
1.42016e-10
1.51358e-10
1.69041e-10
1.97688e-10
2.85085e-10
4.59909e-10
5.21459e-10
4.71039e-10
2.85877e-10
1.22311e-10
6.96919e-11
6.2681e-11
6.72736e-11
6.45889e-11
3.04644e-11
1.21928e-11
5.65661e-12
3.60565e-12
2.61628e-12
2.24147e-12
2.26882e-12
4.93648e-12
2.12783e-11
5.79395e-11
5.85202e-11
8.79324e-11
2.37834e-10
7.31507e-10
1.86457e-09
1.94206e-09
1.45881e-09
1.45189e-09
8.26487e-07
9.95441e-07
1.119e-08
2.90301e-08
4.13795e-09
3.19079e-10
3.20503e-10
2.17605e-10
1.88087e-10
1.27702e-10
7.59272e-11
3.31816e-11
9.22046e-12
1.55451e-12
5.13808e-13
5.30638e-13
7.29908e-13
1.15572e-12
1.67246e-12
3.63436e-12
1.39062e-11
4.77088e-11
1.24088e-10
1.52859e-10
1.43529e-10
1.02306e-10
7.68925e-11
9.51613e-11
1.3763e-10
2.38544e-10
1.94781e-10
1.91303e-10
4.16489e-09
6.76832e-08
5.57374e-08
2.12984e-08
2.14209e-08
3.37318e-08
1.25489e-07
2.62397e-07
3.84522e-07
7.63788e-05
0.000201967
1.24714e-05
1.69385e-09
7.71069e-08
1.44668e-10
9.83608e-11
1.38428e-10
1.537e-10
1.77618e-10
2.12684e-10
2.31255e-10
1.96323e-10
7.71094e-11
3.86787e-11
3.30702e-11
3.05026e-11
2.1179e-11
1.9267e-11
2.20283e-11
2.38465e-11
1.95906e-11
8.31695e-12
3.14547e-12
1.61551e-12
1.11236e-12
9.14824e-13
9.21247e-13
2.5203e-12
1.07141e-11
3.00945e-11
6.48787e-11
1.16776e-10
3.18714e-10
1.07184e-09
2.03877e-09
1.98399e-09
4.55117e-09
1.44369e-09
8.97251e-07
9.96121e-07
1.15762e-09
8.23476e-09
1.58046e-09
1.46868e-09
7.29743e-10
2.25551e-10
1.10269e-10
6.23683e-11
3.08905e-11
1.11904e-11
2.41815e-12
3.46879e-13
2.10586e-13
2.38173e-13
3.87564e-13
5.91464e-13
9.38032e-13
3.1861e-12
1.36634e-11
4.40386e-11
6.31397e-11
6.18274e-11
5.27235e-11
3.22521e-11
3.07534e-11
5.99954e-11
1.50647e-10
2.0416e-10
1.93725e-10
1.79224e-10
1.68312e-10
1.79966e-09
9.25978e-11
7.57782e-07
2.54403e-06
3.39552e-06
3.74737e-05
4.56532e-05
2.15484e-05
7.65549e-05
0.000202659
1.72214e-09
1.79799e-09
1.88625e-09
9.80599e-11
9.61054e-11
1.09904e-10
1.19478e-10
1.27233e-10
1.31684e-10
1.2039e-10
7.86509e-11
2.90447e-11
9.57835e-12
8.09628e-12
7.94295e-12
6.16182e-12
5.44916e-12
5.64848e-12
6.66147e-12
6.87133e-12
4.64918e-12
1.56432e-12
5.89168e-13
3.73985e-13
3.11962e-13
3.18839e-13
1.16194e-12
6.42911e-12
2.04916e-11
4.74613e-11
1.12473e-10
4.55122e-10
1.9425e-09
3.46045e-09
2.11476e-09
9.58902e-09
1.43779e-09
1.00087e-06
9.97116e-07
9.45311e-10
9.48563e-10
2.60074e-09
2.96919e-09
9.79451e-10
1.78818e-10
7.77471e-11
4.28584e-11
1.95643e-11
5.85426e-12
9.4134e-13
1.10586e-13
7.59021e-14
8.87342e-14
1.32848e-13
2.00452e-13
4.23755e-13
2.30588e-12
9.38168e-12
1.45135e-11
1.44109e-11
1.29892e-11
1.01272e-11
8.03779e-12
1.11714e-11
3.95187e-11
1.19902e-10
1.94027e-10
1.95829e-10
1.83091e-10
1.65403e-10
7.38376e-11
2.86462e-11
5.65774e-07
5.40054e-07
7.80186e-10
6.49597e-05
0.000228886
4.80027e-05
7.6707e-05
0.000206517
3.53278e-09
3.05653e-09
2.9455e-08
2.89606e-11
2.77704e-11
2.59842e-11
2.40538e-11
2.36199e-11
2.21666e-11
1.9089e-11
1.35994e-11
8.73076e-12
3.46142e-12
2.90961e-12
2.82988e-12
2.10395e-12
1.60093e-12
1.50987e-12
1.68203e-12
1.83166e-12
1.6407e-12
6.98641e-13
2.08893e-13
1.11915e-13
9.40854e-14
1.06388e-13
6.00888e-13
4.009e-12
1.45705e-11
3.65238e-11
9.37729e-11
5.52464e-10
2.76549e-09
4.43791e-09
2.90764e-09
9.81504e-09
1.43843e-09
1.00093e-06
7.80598e-07
9.44836e-10
1.29337e-09
3.50056e-09
3.1285e-09
1.05171e-09
1.72019e-10
6.71063e-11
3.42129e-11
1.34086e-11
3.14944e-12
4.00906e-13
3.88592e-14
2.42657e-14
2.7374e-14
4.01587e-14
7.03638e-14
1.94183e-13
8.69211e-13
2.33765e-12
2.90592e-12
2.81396e-12
2.44485e-12
2.41444e-12
2.54522e-12
3.87488e-12
1.44203e-11
4.1842e-11
7.80802e-11
1.07294e-10
1.17051e-10
1.14681e-10
9.50554e-11
2.521e-11
5.01145e-09
2.96352e-10
2.96622e-10
1.93572e-05
0.000229923
6.05035e-05
9.89979e-05
0.000254089
1.00721e-05
2.53762e-07
2.00784e-05
2.97953e-05
3.36085e-06
1.75808e-11
6.28552e-12
5.81895e-12
4.76488e-12
1.40397e-12
1.32041e-12
1.25387e-12
9.40224e-13
8.11214e-13
8.02847e-13
7.14334e-13
4.93148e-13
4.17878e-13
4.23479e-13
4.66996e-13
4.63952e-13
2.46216e-13
7.61565e-14
3.20777e-14
2.57851e-14
3.72828e-14
3.31202e-13
2.47352e-12
1.03163e-11
2.89266e-11
7.83949e-11
4.80201e-10
2.66998e-09
4.43781e-09
2.73395e-09
5.93902e-09
2.91896e-07
1.00093e-06
1.31283e-07
9.41142e-10
2.04841e-09
3.50038e-09
2.53584e-09
1.07428e-09
1.77487e-10
5.96309e-11
2.68764e-11
8.80762e-12
1.67508e-12
1.93944e-13
1.7406e-14
7.25417e-15
7.91731e-15
1.16364e-14
2.53609e-14
8.18521e-14
2.76344e-13
5.52341e-13
6.10376e-13
6.2447e-13
6.78692e-13
8.22315e-13
1.04317e-12
2.14445e-12
5.30274e-12
8.7523e-12
9.13537e-12
1.11987e-11
1.23937e-11
1.46238e-11
1.79549e-11
1.97812e-11
2.1125e-11
1.58711e-10
2.96352e-10
2.96622e-10
0.000231236
6.04256e-05
0.000121499
0.000265319
0.000206492
7.10224e-06
4.0665e-05
0.000118217
5.24678e-05
2.00369e-08
2.05516e-09
6.28552e-12
5.50526e-12
1.09407e-13
-6.23661e-13
4.27506e-13
4.26057e-13
2.53584e-13
2.11708e-13
2.12546e-13
1.55643e-13
1.11652e-13
1.06508e-13
1.20226e-13
1.2908e-13
8.93446e-14
2.64798e-14
9.01607e-15
6.69998e-15
1.59222e-14
1.86983e-13
1.4785e-12
6.97399e-12
2.2708e-11
6.98189e-11
3.38079e-10
1.78268e-09
3.57648e-09
1.58889e-09
1.85134e-08
1.13121e-06
4.72129e-07
9.41142e-10
9.3907e-10
1.84674e-09
1.85994e-09
2.23362e-09
1.0164e-09
1.51123e-10
4.96576e-11
1.98133e-11
5.43165e-12
8.99365e-13
1.04924e-13
1.00862e-14
2.1405e-15
2.18822e-15
3.17524e-15
8.79369e-15
3.3441e-14
1.04969e-13
1.60297e-13
1.70679e-13
1.87029e-13
2.33075e-13
3.35087e-13
6.45513e-13
1.61606e-12
1.61578e-12
8.70572e-13
6.75783e-12
1.21168e-11
1.40097e-11
1.67475e-11
1.989e-11
4.95165e-06
3.81961e-05
3.10698e-05
1.68669e-06
2.99121e-10
0.00023942
6.29217e-05
0.000120727
0.000265213
0.000266769
0.000244401
0.00011421
0.000108125
0.000168083
0.000118598
9.00586e-06
4.34694e-06
1.9045e-08
6.6016e-11
-1.6472e-12
2.69054e-13
2.88592e-13
1.75573e-13
6.78883e-14
5.98468e-14
4.81286e-14
2.80861e-14
2.38045e-14
2.56039e-14
2.91665e-14
2.51324e-14
8.17302e-15
2.44539e-15
1.74604e-15
8.52737e-15
1.0252e-13
8.4307e-13
4.43485e-12
1.76298e-11
7.3509e-11
3.04324e-10
7.67924e-10
1.10078e-09
6.00169e-10
1.57085e-08
1.13121e-06
1.62695e-09
9.3907e-10
9.4009e-10
1.06167e-09
1.06742e-09
1.71186e-09
5.62626e-10
1.01482e-10
3.9121e-11
1.35077e-11
3.1269e-12
4.93242e-13
6.04445e-14
6.24338e-15
6.91974e-16
5.60041e-16
7.96665e-16
2.7962e-15
1.21907e-14
3.362e-14
4.24514e-14
4.51581e-14
5.49258e-14
8.26e-14
1.91438e-13
1.01202e-12
1.02532e-12
2.44146e-13
-3.82394e-11
3.1501e-10
5.13863e-10
1.92452e-09
3.39072e-09
6.17042e-09
6.19933e-05
0.000171899
8.69703e-05
3.31839e-06
4.7467e-05
0.00028194
9.06253e-05
0.000121368
0.000268037
0.000268425
0.000266768
0.000169973
0.000154386
0.000168098
0.000168391
0.000172131
0.000117246
2.12325e-06
9.25336e-09
-3.24924e-14
2.24622e-13
2.24496e-13
2.18521e-13
3.52343e-14
1.63772e-14
1.3338e-14
7.00857e-15
4.60471e-15
4.40995e-15
5.09622e-15
4.98047e-15
1.927e-15
6.21121e-16
5.02181e-16
5.00493e-15
5.43638e-14
4.56432e-13
2.67982e-12
1.29283e-11
6.9046e-11
2.56655e-10
4.10522e-10
3.9987e-10
3.3495e-10
1.01409e-08
1.13121e-06
3.4536e-08
2.56491e-08
2.47745e-08
2.31423e-10
8.23728e-10
7.29931e-10
2.42365e-10
8.28378e-11
3.08669e-11
8.37741e-12
1.69658e-12
2.72985e-13
3.47678e-14
3.56307e-15
2.8589e-16
1.26913e-16
1.83862e-16
7.80106e-16
3.41892e-15
7.58441e-15
8.6215e-15
1.001e-14
1.5179e-14
3.96805e-14
1.95401e-13
1.36309e-12
1.05632e-12
-2.78809e-12
3.01989e-10
2.61763e-08
5.94245e-08
7.13773e-06
2.14475e-05
0.00015715
0.00017414
0.000172116
9.01706e-05
4.32827e-05
0.000255529
0.000284001
0.000100964
0.000228329
0.000268798
0.000268798
7.34877e-05
3.5759e-05
7.06876e-05
0.000100077
0.000172131
0.000175579
0.000182209
0.000153741
1.77252e-07
8.0379e-11
1.7581e-13
2.09715e-13
2.1654e-13
3.96792e-14
5.85885e-15
2.7845e-15
1.71487e-15
8.30096e-16
6.44725e-16
6.85156e-16
6.89702e-16
3.20709e-16
1.44802e-16
1.90785e-16
2.79941e-15
2.87128e-14
2.4017e-13
1.54214e-12
8.07158e-12
4.15578e-11
1.62198e-10
2.8721e-10
2.90781e-10
2.99065e-10
5.61865e-09
4.7317e-07
6.71384e-08
1.5217e-07
1.06324e-07
2.29944e-10
5.79373e-10
2.07398e-10
1.25376e-10
7.27351e-11
2.36206e-11
4.92126e-12
9.09405e-13
1.47147e-13
1.86737e-14
1.83308e-15
1.37738e-16
2.51806e-17
3.90185e-17
1.81075e-16
6.92472e-16
1.18743e-15
1.41062e-15
2.06703e-15
5.66831e-15
3.41694e-14
6.56904e-13
9.81961e-13
7.43519e-13
9.05951e-12
9.17367e-09
1.00711e-05
2.24343e-05
0.000152369
0.00017331
0.00017414
0.00017414
0.000161695
0.000176813
0.000279884
0.000285018
0.000283961
0.000102047
0.000268727
0.000268798
0.000260429
1.04474e-05
8.89163e-06
9.17617e-06
1.24876e-05
6.62866e-06
7.79602e-05
0.000194053
0.000202781
9.18013e-05
1.53827e-09
2.11649e-13
1.42388e-13
1.47551e-13
6.10441e-14
4.36117e-15
5.8549e-16
3.47176e-16
1.45529e-16
8.60829e-17
8.10698e-17
7.34419e-17
3.97886e-17
2.47521e-17
9.54804e-17
1.40968e-15
1.46747e-14
1.22522e-13
8.54797e-13
5.0184e-12
2.43442e-11
8.39123e-11
1.62819e-10
2.11423e-10
3.47095e-10
8.64572e-10
4.64846e-10
6.17589e-08
1.54303e-07
1.49353e-07
2.29042e-10
3.81014e-10
7.12768e-11
8.84337e-11
5.77889e-11
1.5805e-11
2.81925e-12
4.88057e-13
7.51451e-14
9.15372e-15
8.63957e-16
6.28552e-17
5.02412e-18
7.76225e-18
3.50428e-17
1.06626e-16
1.68508e-16
2.28072e-16
5.20813e-16
4.49596e-15
1.15752e-13
2.50389e-12
1.23145e-12
8.00738e-13
1.92066e-10
2.22994e-07
0.000135553
0.000152041
0.000151692
0.000149789
0.000152183
0.000141403
0.000112338
5.21986e-05
0.000113416
0.000286186
0.000286591
0.000142618
0.000227651
0.000268727
8.4693e-05
8.73215e-06
8.1069e-06
8.65615e-06
1.35926e-05
4.59583e-06
2.32449e-06
3.72198e-05
0.0002148
0.000224996
3.16399e-06
6.92766e-13
1.12454e-13
1.19003e-13
1.18044e-13
4.33477e-15
1.47122e-16
5.6594e-17
2.22113e-17
1.09551e-17
9.83801e-18
8.39816e-18
4.83466e-18
3.65732e-18
4.41149e-17
6.46292e-16
7.08396e-15
6.19649e-14
4.71233e-13
3.16595e-12
1.58833e-11
4.73011e-11
8.13814e-11
1.15555e-10
2.81624e-10
3.45658e-10
3.50272e-10
3.80768e-08
1.54303e-07
9.25694e-08
2.28407e-10
2.28085e-10
4.06923e-11
6.392e-11
3.75999e-11
9.24465e-12
1.62632e-12
2.62649e-13
3.67021e-14
4.17519e-15
3.74967e-16
2.5652e-17
1.34987e-18
1.41312e-18
5.80953e-18
1.63599e-17
2.61175e-17
4.16179e-17
3.03278e-16
1.46324e-14
4.8982e-13
4.38661e-12
1.68732e-12
1.07022e-11
5.15905e-09
0.000122737
0.000158732
0.000155288
8.37507e-05
8.15002e-06
9.14411e-06
1.16012e-05
1.15818e-05
1.26792e-05
1.71102e-05
0.000254372
0.000286861
0.000191309
6.01187e-05
0.000267089
2.19435e-05
8.1069e-06
7.46541e-06
8.57589e-06
1.36967e-05
1.03264e-05
2.01519e-06
2.31984e-06
0.00012567
0.000226967
0.000173199
1.10673e-12
2.90815e-13
1.26313e-13
2.53126e-13
3.50779e-15
5.26066e-17
9.92581e-18
2.74591e-18
1.17314e-18
1.07655e-18
9.96015e-19
6.96525e-19
8.72449e-19
1.75373e-17
2.77735e-16
3.30053e-15
3.17569e-14
2.64806e-13
1.95879e-12
1.08027e-11
3.17128e-11
4.62905e-11
4.98576e-11
1.92204e-10
3.84437e-10
3.78669e-10
6.2461e-09
3.7186e-08
8.99107e-09
3.41217e-09
6.46547e-11
3.26017e-11
4.29557e-11
2.28351e-11
5.34239e-12
9.52346e-13
1.42174e-13
1.77203e-14
1.84442e-15
1.53899e-16
9.89317e-18
4.93723e-19