/*--------------------------------*- C++ -*----------------------------------*\
| =========                 |                                                 |
| \\      /  F ield         | OpenFOAM: The Open Source CFD Toolbox           |
|  \\    /   O peration     | Version:  2412                                  |
|   \\  /    A nd           | Website:  www.openfoam.com                      |
|    \\/     M anipulation  |                                                 |
\*---------------------------------------------------------------------------*/
FoamFile
{
    version     2.0;
    format      ascii;
    arch        "LSB;label=32;scalar=64";
    class       volVectorField;
    location    "6.55";
    object      U;
}
// * * * * * * * * * * * * * * * * * * * * * * * * * * * * * * * * * * * * * //

dimensions      [0 1 -1 0 0 0 0];

internalField   nonuniform List<vector> 
6400
(
(0.000462652 -0.00046895 0)
(0.0022194 -0.000694507 0)
(0.00431719 -0.000743109 0)
(0.00656452 -0.000759091 0)
(0.00883738 -0.000747434 0)
(0.0110313 -0.000712707 0)
(0.0130671 -0.000664021 0)
(0.0149005 -0.000610303 0)
(0.0165182 -0.00055777 0)
(0.0179252 -0.000512791 0)
(0.0191405 -0.000476336 0)
(0.0201912 -0.000448213 0)
(0.0211043 -0.000428268 0)
(0.0218971 -0.000421627 0)
(0.0225956 -0.000421482 0)
(0.0232278 -0.000429892 0)
(0.0238114 -0.00044362 0)
(0.0243554 -0.000458687 0)
(0.0248668 -0.000468128 0)
(0.0253468 -0.000473825 0)
(0.0257924 -0.00046775 0)
(0.0261946 -0.000450968 0)
(0.026531 -0.000419821 0)
(0.0267842 -0.000366806 0)
(0.0269282 -0.000295173 0)
(0.0269359 -0.000198466 0)
(0.0267794 -8.41165e-05 0)
(0.0264239 4.72307e-05 0)
(0.0258442 0.000194392 0)
(0.0250187 0.000354074 0)
(0.0239289 0.000521529 0)
(0.0225617 0.000693649 0)
(0.0209153 0.000867817 0)
(0.0189947 0.00103613 0)
(0.0168113 0.00119434 0)
(0.0143848 0.00133781 0)
(0.0117453 0.00146251 0)
(0.00892685 0.00155818 0)
(0.0059705 0.00162626 0)
(0.00292631 0.00166525 0)
(-0.000158933 0.00167243 0)
(-0.00323676 0.00164953 0)
(-0.00625662 0.00159677 0)
(-0.00917432 0.00151517 0)
(-0.0119489 0.00140773 0)
(-0.0145434 0.00127851 0)
(-0.016926 0.00113355 0)
(-0.0190781 0.000975992 0)
(-0.0209824 0.000814651 0)
(-0.0226233 0.000650866 0)
(-0.024001 0.000488952 0)
(-0.025117 0.00033267 0)
(-0.0259891 0.000186524 0)
(-0.026639 5.82153e-05 0)
(-0.0270852 -5.40945e-05 0)
(-0.0273544 -0.000149392 0)
(-0.0274722 -0.00022781 0)
(-0.0274649 -0.000290682 0)
(-0.027362 -0.000338601 0)
(-0.027173 -0.000363233 0)
(-0.0269091 -0.000383679 0)
(-0.0265872 -0.000393037 0)
(-0.0262091 -0.000395648 0)
(-0.0257682 -0.000394339 0)
(-0.0252603 -0.000396905 0)
(-0.0246769 -0.000405615 0)
(-0.0239985 -0.000421796 0)
(-0.0232015 -0.0004468 0)
(-0.0222649 -0.000480765 0)
(-0.0211674 -0.000523197 0)
(-0.0198823 -0.000574315 0)
(-0.0183834 -0.000635958 0)
(-0.0166503 -0.000703068 0)
(-0.0146771 -0.000770433 0)
(-0.0124755 -0.000834417 0)
(-0.0100892 -0.000883132 0)
(-0.00759981 -0.000906627 0)
(-0.00510916 -0.000903762 0)
(-0.00273849 -0.000871056 0)
(-0.000652179 -0.000656899 0)
(0.000642761 -0.00217448 0)
(0.00342093 -0.0035174 0)
(0.00661305 -0.00382437 0)
(0.0100912 -0.00395057 0)
(0.0136297 -0.00389659 0)
(0.0170357 -0.0036747 0)
(0.0201616 -0.0033396 0)
(0.0229221 -0.00295022 0)
(0.0252832 -0.00255242 0)
(0.0272475 -0.00217495 0)
(0.0288455 -0.00183464 0)
(0.0301193 -0.00153786 0)
(0.0311054 -0.00128573 0)
(0.0318448 -0.00107882 0)
(0.0323757 -0.000908965 0)
(0.0327281 -0.000776484 0)
(0.0329308 -0.000673159 0)
(0.0330082 -0.000587597 0)
(0.0329751 -0.000511001 0)
(0.0328464 -0.000440189 0)
(0.032635 -0.00036343 0)
(0.0323401 -0.000275332 0)
(0.0319637 -0.000163632 0)
(0.0315008 -1.92587e-05 0)
(0.0309391 0.000160674 0)
(0.0302658 0.000382283 0)
(0.0294645 0.000640913 0)
(0.0285228 0.000935754 0)
(0.0274264 0.00126274 0)
(0.0261593 0.00161672 0)
(0.024707 0.00199099 0)
(0.0230603 0.00237663 0)
(0.0212141 0.00276516 0)
(0.0191714 0.00314159 0)
(0.0169416 0.00349587 0)
(0.0145372 0.00381816 0)
(0.0119737 0.00409938 0)
(0.00927841 0.00432265 0)
(0.00648311 0.00448126 0)
(0.00362023 0.00457533 0)
(0.000724461 0.00460169 0)
(-0.00217281 0.00456276 0)
(-0.00503789 0.00445835 0)
(-0.00784149 0.00429321 0)
(-0.0105537 0.00407218 0)
(-0.0131452 0.00380198 0)
(-0.0155964 0.00349647 0)
(-0.017892 0.00316114 0)
(-0.0200177 0.00280886 0)
(-0.0219589 0.00244572 0)
(-0.0237158 0.00208272 0)
(-0.0252943 0.00172885 0)
(-0.0267002 0.00139631 0)
(-0.0279459 0.00109755 0)
(-0.0290412 0.000828065 0)
(-0.0299979 0.000590407 0)
(-0.030828 0.000383978 0)
(-0.0315418 0.000206562 0)
(-0.0321447 5.41907e-05 0)
(-0.0326473 -7.12375e-05 0)
(-0.0330445 -0.000191884 0)
(-0.033332 -0.000303412 0)
(-0.0335105 -0.000417969 0)
(-0.03356 -0.000540476 0)
(-0.0334641 -0.0006846 0)
(-0.0332038 -0.000855166 0)
(-0.0327518 -0.00105888 0)
(-0.0320759 -0.00129876 0)
(-0.031141 -0.00158136 0)
(-0.0299082 -0.00190615 0)
(-0.028333 -0.00227491 0)
(-0.0263755 -0.00268631 0)
(-0.0240021 -0.00311833 0)
(-0.0212062 -0.00354145 0)
(-0.018022 -0.00391466 0)
(-0.0145325 -0.00417455 0)
(-0.0108823 -0.00426677 0)
(-0.00725906 -0.00418964 0)
(-0.00388148 -0.00395744 0)
(-0.00083036 -0.0027012 0)
(0.000686886 -0.00415987 0)
(0.00377441 -0.00670144 0)
(0.00740758 -0.00737001 0)
(0.0114247 -0.0076737 0)
(0.0155233 -0.00759023 0)
(0.0194571 -0.0071432 0)
(0.0230444 -0.00644934 0)
(0.0261817 -0.00563469 0)
(0.0288346 -0.00479934 0)
(0.0310107 -0.004005 0)
(0.0327485 -0.00328577 0)
(0.0341003 -0.00265689 0)
(0.0351146 -0.00212253 0)
(0.0358401 -0.00167142 0)
(0.0363238 -0.00129388 0)
(0.0366036 -0.000986069 0)
(0.0367144 -0.000735559 0)
(0.0366859 -0.000524307 0)
(0.036539 -0.000343806 0)
(0.036292 -0.000181314 0)
(0.0359581 -2.40633e-05 0)
(0.0355399 0.000142658 0)
(0.035036 0.000337626 0)
(0.0344428 0.000568124 0)
(0.0337503 0.000845633 0)
(0.0329468 0.00117282 0)
(0.0320197 0.00155274 0)
(0.0309505 0.00198962 0)
(0.0297217 0.00247638 0)
(0.0283177 0.0030039 0)
(0.0267226 0.00356665 0)
(0.024928 0.00415029 0)
(0.0229302 0.00473756 0)
(0.020729 0.00530893 0)
(0.0183323 0.00584498 0)
(0.0157574 0.00633097 0)
(0.0130249 0.00675372 0)
(0.010161 0.00709459 0)
(0.00719673 0.00733613 0)
(0.00416537 0.0074782 0)
(0.00110154 0.00751936 0)
(-0.00196296 0.00746183 0)
(-0.00498864 0.00730278 0)
(-0.00794362 0.0070564 0)
(-0.0108022 0.00672649 0)
(-0.0135333 0.00632504 0)
(-0.016115 0.00586652 0)
(-0.0185321 0.00536716 0)
(-0.0207733 0.00483606 0)
(-0.0228292 0.0042902 0)
(-0.0247006 0.00374823 0)
(-0.0263945 0.00322425 0)
(-0.0279165 0.00273398 0)
(-0.0292813 0.00228693 0)
(-0.0305009 0.00188392 0)
(-0.031586 0.00152647 0)
(-0.0325504 0.00121286 0)
(-0.0334048 0.000939675 0)
(-0.0341587 0.000698912 0)
(-0.0348216 0.00047682 0)
(-0.0353834 0.000264109 0)
(-0.0358406 4.76226e-05 0)
(-0.0361902 -0.000187468 0)
(-0.0364084 -0.000446453 0)
(-0.036475 -0.000749285 0)
(-0.036362 -0.00110617 0)
(-0.0360335 -0.00152594 0)
(-0.0354492 -0.00201826 0)
(-0.0345641 -0.00259749 0)
(-0.0333267 -0.00326977 0)
(-0.0316823 -0.00403693 0)
(-0.0295799 -0.00488706 0)
(-0.0269769 -0.00578004 0)
(-0.0238602 -0.00665472 0)
(-0.0202673 -0.00741325 0)
(-0.0162969 -0.00792847 0)
(-0.0121253 -0.00808578 0)
(-0.00799534 -0.00787191 0)
(-0.00420611 -0.0073424 0)
(-0.000874398 -0.00499562 0)
(0.000712796 -0.00635495 0)
(0.00409855 -0.0103329 0)
(0.00818017 -0.0114838 0)
(0.0127087 -0.0119998 0)
(0.0173092 -0.011863 0)
(0.0216869 -0.0111292 0)
(0.025635 -0.00999603 0)
(0.0290461 -0.00867085 0)
(0.0318945 -0.00731703 0)
(0.0342056 -0.00603686 0)
(0.0360339 -0.0048807 0)
(0.0374408 -0.00386972 0)
(0.0384853 -0.00300644 0)
(0.0392255 -0.00227828 0)
(0.0397116 -0.00167077 0)
(0.0399858 -0.00117366 0)
(0.0400903 -0.000768843 0)
(0.0400573 -0.000433088 0)
(0.0399096 -0.000147313 0)
(0.0396661 0.000106161 0)
(0.0393375 0.00034788 0)
(0.0389257 0.000599017 0)
(0.0384274 0.000880407 0)
(0.0378372 0.00120627 0)
(0.0371431 0.00158956 0)
(0.0363272 0.00204103 0)
(0.0353767 0.00256246 0)
(0.0342671 0.00316226 0)
(0.0329682 0.00383412 0)
(0.031465 0.00456031 0)
(0.0297417 0.00533669 0)
(0.0277845 0.00614144 0)
(0.0255921 0.00695293 0)
(0.0231625 0.0077441 0)
(0.0205014 0.00848578 0)
(0.0176327 0.00915479 0)
(0.0145841 0.00973458 0)
(0.0113862 0.0102014 0)
(0.00807198 0.0105356 0)
(0.00467883 0.0107321 0)
(0.00125012 0.0107875 0)
(-0.00217878 0.0107027 0)
(-0.00555325 0.0104855 0)
(-0.00883443 0.0101416 0)
(-0.0119981 0.00968254 0)
(-0.0150102 0.00912586 0)
(-0.0178397 0.00849161 0)
(-0.0204677 0.0078021 0)
(-0.0228915 0.0070711 0)
(-0.0251032 0.00632469 0)
(-0.0271038 0.00558701 0)
(-0.0289014 0.00487572 0)
(-0.0305067 0.00420936 0)
(-0.0319355 0.00359911 0)
(-0.0332034 0.00304943 0)
(-0.0343277 0.00256163 0)
(-0.035325 0.00213255 0)
(-0.0362085 0.00175548 0)
(-0.0369917 0.00141843 0)
(-0.0376849 0.00110361 0)
(-0.0382815 0.000799028 0)
(-0.0387816 0.000479815 0)
(-0.0391748 0.000130107 0)
(-0.039442 -0.000265389 0)
(-0.0395653 -0.000732005 0)
(-0.0395057 -0.0012889 0)
(-0.0392213 -0.00195233 0)
(-0.0386665 -0.00273738 0)
(-0.0377889 -0.00366 0)
(-0.0365305 -0.00473517 0)
(-0.0348269 -0.00596432 0)
(-0.0326152 -0.00732669 0)
(-0.0298395 -0.00876581 0)
(-0.0264689 -0.0101816 0)
(-0.0225274 -0.0114121 0)
(-0.0181171 -0.0122507 0)
(-0.0134404 -0.0125028 0)
(-0.008793 -0.0121191 0)
(-0.00454752 -0.0111738 0)
(-0.00090951 -0.00750686 0)
(0.000732688 -0.00871025 0)
(0.00442471 -0.0143476 0)
(0.00899222 -0.0160828 0)
(0.0140651 -0.0168267 0)
(0.0191714 -0.0165861 0)
(0.0239521 -0.015477 0)
(0.0281769 -0.0138058 0)
(0.0317475 -0.0118817 0)
(0.0346657 -0.00994141 0)
(0.0369887 -0.00812662 0)
(0.0387959 -0.00650152 0)
(0.0401641 -0.00509061 0)
(0.0411622 -0.00389005 0)
(0.041857 -0.00288259 0)
(0.0423047 -0.0020459 0)
(0.0425499 -0.00136088 0)
(0.0426351 -0.000805782 0)
(0.0425954 -0.000352118 0)
(0.042454 3.08481e-05 0)
(0.0422297 0.000368253 0)
(0.0419343 0.000687397 0)
(0.041569 0.00101702 0)
(0.0411268 0.00138224 0)
(0.0405973 0.00180396 0)
(0.0399636 0.00229975 0)
(0.0391983 0.00288505 0)
(0.0382853 0.00356892 0)
(0.0371988 0.00435346 0)
(0.0358938 0.00524028 0)
(0.0343541 0.00620706 0)
(0.0325593 0.00723365 0)
(0.0304864 0.0082973 0)
(0.0281368 0.00937238 0)
(0.0255087 0.0104255 0)
(0.0226071 0.011414 0)
(0.0194548 0.0123019 0)
(0.0160872 0.013066 0)
(0.0125426 0.0136813 0)
(0.00886167 0.0141249 0)
(0.00508917 0.0143854 0)
(0.00127378 0.0144557 0)
(-0.0025317 0.0143318 0)
(-0.0062689 0.0140399 0)
(-0.00989441 0.0135736 0)
(-0.013371 0.0129553 0)
(-0.0166615 0.0122057 0)
(-0.0197304 0.0113557 0)
(-0.0225579 0.0104354 0)
(-0.0251392 0.00946852 0)
(-0.0274703 0.00848897 0)
(-0.0295565 0.00752336 0)
(-0.0314098 0.0065969 0)
(-0.0330468 0.00573087 0)
(-0.0344876 0.00494125 0)
(-0.0357514 0.00423104 0)
(-0.0368599 0.00360056 0)
(-0.0378353 0.003049 0)
(-0.0386941 0.00256565 0)
(-0.0394548 0.00213464 0)
(-0.0401287 0.00173259 0)
(-0.0407175 0.00133971 0)
(-0.0412236 0.000927076 0)
(-0.0416345 0.000473167 0)
(-0.0419346 -5.30084e-05 0)
(-0.0421016 -0.000681265 0)
(-0.0420942 -0.00143858 0)
(-0.0418674 -0.00234855 0)
(-0.0413721 -0.00343376 0)
(-0.0405554 -0.0047147 0)
(-0.0393527 -0.00621226 0)
(-0.0376873 -0.00793214 0)
(-0.0354798 -0.00985699 0)
(-0.0326481 -0.0119151 0)
(-0.0291266 -0.013965 0)
(-0.0249083 -0.0157745 0)
(-0.0200863 -0.017033 0)
(-0.014888 -0.0174355 0)
(-0.00967426 -0.0168709 0)
(-0.00491606 -0.0154099 0)
(-0.000944891 -0.0102016 0)
(0.000749561 -0.0112258 0)
(0.00480281 -0.0187901 0)
(0.00997692 -0.02123 0)
(0.0157199 -0.022202 0)
(0.0214067 -0.0217639 0)
(0.0265868 -0.0201355 0)
(0.0310121 -0.0177796 0)
(0.034618 -0.0151393 0)
(0.0374601 -0.0125332 0)
(0.0396464 -0.0101393 0)
(0.0412916 -0.00802655 0)
(0.0424956 -0.00621083 0)
(0.0433402 -0.00467868 0)
(0.043898 -0.00340294 0)
(0.044228 -0.00235523 0)
(0.0443763 -0.00150036 0)
(0.0443882 -0.00081139 0)
(0.044303 -0.000257145 0)
(0.0441443 0.000201806 0)
(0.0439292 0.000600436 0)
(0.0436696 0.000974619 0)
(0.0433646 0.00136478 0)
(0.0430036 0.00180059 0)
(0.0425707 0.00231213 0)
(0.0420398 0.00292155 0)
(0.041376 0.00364684 0)
(0.0405541 0.00450695 0)
(0.0395494 0.00549819 0)
(0.0383111 0.00662744 0)
(0.0367997 0.00786996 0)
(0.0349921 0.00918837 0)
(0.0328651 0.0105562 0)
(0.0304132 0.011941 0)
(0.0276346 0.0133037 0)
(0.0245335 0.014586 0)
(0.0211313 0.0157385 0)
(0.0174682 0.0167257 0)
(0.0135928 0.0175168 0)
(0.00955724 0.0180884 0)
(0.00541735 0.0184216 0)
(0.00122709 0.0185053 0)
(-0.00294105 0.0183397 0)
(-0.00702167 0.0179417 0)
(-0.0109702 0.0173259 0)
(-0.0147356 0.0165117 0)
(-0.0182761 0.0155266 0)
(-0.0215468 0.0144202 0)
(-0.024531 0.0132232 0)
(-0.0272251 0.0119748 0)
(-0.0296261 0.0107191 0)
(-0.0317427 0.00949206 0)
(-0.0335927 0.00832254 0)
(-0.035201 0.00723412 0)
(-0.0365937 0.00624921 0)
(-0.0377972 0.0053663 0)
(-0.0388368 0.00458711 0)
(-0.039742 0.00391096 0)
(-0.0405362 0.00332608 0)
(-0.0412424 0.00281047 0)
(-0.0418786 0.00233568 0)
(-0.0424513 0.0018718 0)
(-0.0429631 0.00138497 0)
(-0.0434047 0.000843707 0)
(-0.0437616 0.000208111 0)
(-0.0440061 -0.000563368 0)
(-0.0440949 -0.00150627 0)
(-0.0439871 -0.00265168 0)
(-0.0436346 -0.00402621 0)
(-0.0429804 -0.00565582 0)
(-0.0419531 -0.0075745 0)
(-0.0404658 -0.00980621 0)
(-0.0384141 -0.0123409 0)
(-0.0356726 -0.0150999 0)
(-0.0321238 -0.017908 0)
(-0.0277023 -0.0204537 0)
(-0.0224661 -0.0222873 0)
(-0.0166654 -0.0229422 0)
(-0.0107529 -0.0222055 0)
(-0.00535402 -0.0201082 0)
(-0.000984182 -0.0130945 0)
(0.000765877 -0.0139398 0)
(0.00533 -0.023804 0)
(0.0113885 -0.0271103 0)
(0.0180672 -0.0282766 0)
(0.0244846 -0.027461 0)
(0.0300655 -0.0250723 0)
(0.0345767 -0.021812 0)
(0.0380448 -0.0182985 0)
(0.0406255 -0.0149358 0)
(0.0425029 -0.0119246 0)
(0.0438374 -0.0093207 0)
(0.0447511 -0.00711149 0)
(0.0453336 -0.00526599 0)
(0.0456553 -0.00374482 0)
(0.0457842 -0.00250854 0)
(0.0457712 -0.0015159 0)
(0.0456533 -0.000729225 0)
(0.0454754 -0.000108608 0)
(0.0452666 0.000391808 0)
(0.045041 0.000817393 0)
(0.0448107 0.00121379 0)
(0.0445696 0.00163379 0)
(0.0443019 0.00211578 0)
(0.0439889 0.00270197 0)
(0.0435947 0.00341714 0)
(0.0430775 0.00428182 0)
(0.0423983 0.00532008 0)
(0.0415288 0.00654051 0)
(0.0404119 0.00793478 0)
(0.0389896 0.00948073 0)
(0.0372315 0.0111374 0)
(0.0351048 0.0128615 0)
(0.0325967 0.0146109 0)
(0.029701 0.0163377 0)
(0.0264233 0.0179688 0)
(0.0227868 0.0194405 0)
(0.0188333 0.0206975 0)
(0.0146236 0.0216987 0)
(0.0102242 0.0224181 0)
(0.00570472 0.0228332 0)
(0.00113664 0.0229277 0)
(-0.00340389 0.022708 0)
(-0.00783544 0.0221775 0)
(-0.0121011 0.0213769 0)
(-0.0161498 0.0203186 0)
(-0.0199154 0.0190624 0)
(-0.0233584 0.017648 0)
(-0.0264714 0.0161243 0)
(-0.0292392 0.0145477 0)
(-0.0316628 0.0129708 0)
(-0.0337591 0.0114424 0)
(-0.0355555 0.00999442 0)
(-0.0370788 0.00866132 0)
(-0.0383683 0.00746345 0)
(-0.0394593 0.00640174 0)
(-0.0403819 0.00547687 0)
(-0.0411783 0.00468391 0)
(-0.0418799 0.00401154 0)
(-0.0425148 0.0034307 0)
(-0.0431048 0.00290743 0)
(-0.0436641 0.00240255 0)
(-0.0441982 0.00187167 0)
(-0.0446939 0.00127164 0)
(-0.0451389 0.000558188 0)
(-0.0455063 -0.000326554 0)
(-0.0457538 -0.00142732 0)
(-0.0458454 -0.00277811 0)
(-0.0457275 -0.00440815 0)
(-0.0453426 -0.00635909 0)
(-0.0446251 -0.00868388 0)
(-0.0434742 -0.0114332 0)
(-0.0417536 -0.0146183 0)
(-0.039288 -0.0181745 0)
(-0.0358779 -0.0219097 0)
(-0.0313541 -0.0254236 0)
(-0.0256875 -0.0280841 0)
(-0.0191238 -0.0291778 0)
(-0.0122506 -0.0283055 0)
(-0.00595021 -0.0254103 0)
(-0.00103329 -0.0162341 0)
(0.000790662 -0.0169506 0)
(0.00618755 -0.0296903 0)
(0.0136684 -0.0340886 0)
(0.0217473 -0.0353169 0)
(0.0290977 -0.0337591 0)
(0.0350013 -0.0302002 0)
(0.039345 -0.0257184 0)
(0.0423734 -0.0211461 0)
(0.0444216 -0.0169497 0)
(0.0457751 -0.0133113 0)
(0.0466367 -0.0102393 0)
(0.0471368 -0.00767385 0)
(0.047358 -0.0055533 0)
(0.047366 -0.00382474 0)
(0.0472218 -0.00243634 0)
(0.0469768 -0.00134634 0)
(0.0466773 -0.000508067 0)
(0.0463683 0.000130172 0)
(0.0460786 0.000626084 0)
(0.0458231 0.00103443 0)
(0.0456133 0.00141127 0)
(0.0454385 0.00182015 0)
(0.0452797 0.00231339 0)
(0.0451138 0.00294541 0)
(0.0448936 0.0037473 0)
(0.0445692 0.00474333 0)
(0.0440937 0.00595778 0)
(0.0434181 0.0074151 0)
(0.042473 0.00909662 0)
(0.0411995 0.0109865 0)
(0.0395481 0.0130304 0)
(0.0374674 0.01517 0)
(0.0349361 0.0173518 0)
(0.0319406 0.0195081 0)
(0.0284871 0.0215571 0)
(0.0246015 0.0234158 0)
(0.0203298 0.0249966 0)
(0.0157492 0.0262513 0)
(0.0109435 0.0271441 0)
(0.00599824 0.0276508 0)
(0.00100332 0.0277532 0)
(-0.00395761 0.0274484 0)
(-0.00878032 0.0267702 0)
(-0.0134003 0.0257303 0)
(-0.0177428 0.0243909 0)
(-0.0217403 0.0228022 0)
(-0.0253609 0.0210144 0)
(-0.0285758 0.0191052 0)
(-0.0313845 0.0171434 0)
(-0.0337926 0.0151976 0)
(-0.0358236 0.0133249 0)
(-0.0375103 0.0115667 0)
(-0.0388925 0.00996434 0)
(-0.0400244 0.0085354 0)
(-0.0409495 0.00729163 0)
(-0.0417113 0.00622891 0)
(-0.0423623 0.00533664 0)
(-0.0429439 0.00460101 0)
(-0.0434896 0.00398514 0)
(-0.0440256 0.00344895 0)
(-0.0445747 0.00294113 0)
(-0.0451477 0.00240758 0)
(-0.0457238 0.00179145 0)
(-0.0462911 0.00103815 0)
(-0.0468292 7.9e-05 0)
(-0.0472914 -0.00114116 0)
(-0.0476498 -0.00265004 0)
(-0.0478548 -0.00448371 0)
(-0.0478463 -0.00670894 0)
(-0.0475671 -0.00939933 0)
(-0.0469198 -0.0126368 0)
(-0.0457514 -0.0164859 0)
(-0.043832 -0.020931 0)
(-0.0408454 -0.0258009 0)
(-0.036439 -0.0306198 0)
(-0.0303826 -0.034523 0)
(-0.0228346 -0.0364082 0)
(-0.014556 -0.035512 0)
(-0.00686235 -0.0316005 0)
(-0.00110001 -0.0197259 0)
(0.000850973 -0.020478 0)
(0.0076888 -0.0370287 0)
(0.0174714 -0.042791 0)
(0.0276093 -0.0436994 0)
(0.0360814 -0.040673 0)
(0.042063 -0.0352537 0)
(0.0457623 -0.0291187 0)
(0.0478559 -0.0233209 0)
(0.0489811 -0.0182927 0)
(0.0495467 -0.0140992 0)
(0.0497659 -0.0106422 0)
(0.0497392 -0.00779494 0)
(0.0495157 -0.00546016 0)
(0.049139 -0.00357154 0)
(0.0486618 -0.00208436 0)
(0.0481335 -0.000944704 0)
(0.0476027 -0.000104556 0)
(0.0471226 0.000496144 0)
(0.046725 0.000929818 0)
(0.0464236 0.0012621 0)
(0.0462331 0.00156307 0)
(0.0461375 0.00190909 0)
(0.0461116 0.00236687 0)
(0.0461294 0.00300254 0)
(0.0461347 0.0038597 0)
(0.0460622 0.0049701 0)
(0.0458528 0.00636373 0)
(0.0454384 0.00806248 0)
(0.0447361 0.0100583 0)
(0.0436732 0.0123311 0)
(0.0421785 0.0148185 0)
(0.0401895 0.0174456 0)
(0.0376624 0.020144 0)
(0.0345734 0.0228202 0)
(0.030933 0.025374 0)
(0.0267563 0.0276952 0)
(0.0221047 0.0296742 0)
(0.0170819 0.0312383 0)
(0.0117854 0.0323355 0)
(0.00632495 0.032938 0)
(0.000805015 0.0330416 0)
(-0.00465405 0.0326425 0)
(-0.00995097 0.0317705 0)
(-0.0149876 0.0304559 0)
(-0.0196683 0.0287665 0)
(-0.023942 0.0267558 0)
(-0.0277444 0.0245159 0)
(-0.0310533 0.0221453 0)
(-0.0338715 0.0197299 0)
(-0.036216 0.0173496 0)
(-0.0381267 0.0150837 0)
(-0.0396478 0.0129824 0)
(-0.0408335 0.0110831 0)
(-0.0417499 0.00941024 0)
(-0.0424524 0.00798471 0)
(-0.0430034 0.00679842 0)
(-0.0434649 0.00583165 0)
(-0.0438902 0.00506803 0)
(-0.04432 0.00445857 0)
(-0.0447869 0.00395607 0)
(-0.0453234 0.00349482 0)
(-0.0459435 0.00301111 0)
(-0.0466244 0.00243387 0)
(-0.0473527 0.00169026 0)
(-0.0481102 0.000708435 0)
(-0.0488427 -0.000574866 0)
(-0.0495191 -0.00218462 0)
(-0.0501079 -0.00416757 0)
(-0.050562 -0.00659756 0)
(-0.0508374 -0.00956544 0)
(-0.0508715 -0.0132023 0)
(-0.0505335 -0.0176553 0)
(-0.0495543 -0.0230202 0)
(-0.0474633 -0.0292359 0)
(-0.043594 -0.0358274 0)
(-0.0373185 -0.041661 0)
(-0.028554 -0.0450154 0)
(-0.0182392 -0.0444113 0)
(-0.00835798 -0.0392107 0)
(-0.00120758 -0.0237819 0)
(0.00100382 -0.0249393 0)
(0.0101802 -0.0467527 0)
(0.0232297 -0.0540947 0)
(0.0359659 -0.0538496 0)
(0.0455824 -0.0480996 0)
(0.0512703 -0.039761 0)
(0.0537623 -0.0314204 0)
(0.0543747 -0.0243066 0)
(0.0541733 -0.0185995 0)
(0.0537091 -0.0140599 0)
(0.0531594 -0.0103937 0)
(0.0525374 -0.00738689 0)
(0.051821 -0.00492037 0)
(0.051008 -0.00293942 0)
(0.050143 -0.00139297 0)
(0.0492806 -0.000254123 0)
(0.0484713 0.000526815 0)
(0.0477832 0.00102371 0)
(0.0472534 0.00132234 0)
(0.046898 0.00150427 0)
(0.0467354 0.00165819 0)
(0.0467427 0.00187382 0)
(0.0468856 0.00223564 0)
(0.047135 0.00282168 0)
(0.047425 0.00369226 0)
(0.0476771 0.00488971 0)
(0.0478131 0.00645581 0)
(0.047742 0.00841034 0)
(0.047365 0.0107506 0)
(0.0465879 0.0134493 0)
(0.0453164 0.0164424 0)
(0.0434716 0.0196474 0)
(0.0409851 0.0229619 0)
(0.0378088 0.0262829 0)
(0.0339488 0.0294611 0)
(0.0294259 0.0323504 0)
(0.0243134 0.0348222 0)
(0.0187316 0.0367553 0)
(0.0128092 0.0381019 0)
(0.00669967 0.0388215 0)
(0.000535628 0.0389138 0)
(-0.00556315 0.0383918 0)
(-0.0114456 0.0372739 0)
(-0.0169937 0.0356255 0)
(-0.0221053 0.0334759 0)
(-0.026695 0.030959 0)
(-0.0306915 0.0281524 0)
(-0.0340757 0.0252233 0)
(-0.0368756 0.0222647 0)
(-0.0391128 0.0193808 0)
(-0.0408388 0.016661 0)
(-0.0421266 0.0141688 0)
(-0.0430459 0.0119455 0)
(-0.0436739 0.0100193 0)
(-0.044086 0.008418 0)
(-0.044368 0.00712802 0)
(-0.0445844 0.00612055 0)
(-0.0448038 0.00537056 0)
(-0.0450802 0.0048238 0)
(-0.0454542 0.00441351 0)
(-0.0459681 0.00406509 0)
(-0.0466371 0.00370067 0)
(-0.0474435 0.00322974 0)
(-0.0483712 0.00255949 0)
(-0.0493959 0.00161378 0)
(-0.0504458 0.000326581 0)
(-0.051485 -0.00133175 0)
(-0.0524965 -0.00339283 0)
(-0.0534506 -0.00592867 0)
(-0.0543536 -0.00903146 0)
(-0.0552182 -0.0128857 0)
(-0.0559835 -0.0177501 0)
(-0.0563741 -0.0239336 0)
(-0.0557194 -0.0316649 0)
(-0.0528929 -0.0406501 0)
(-0.046674 -0.0494739 0)
(-0.0365831 -0.0554504 0)
(-0.0236761 -0.0558233 0)
(-0.0107285 -0.0490723 0)
(-0.00140766 -0.0287807 0)
(0.00134885 -0.0309409 0)
(0.0136531 -0.0598847 0)
(0.0301238 -0.0687049 0)
(0.0451283 -0.0659886 0)
(0.0555027 -0.0558946 0)
(0.0606499 -0.0433565 0)
(0.0617989 -0.0321826 0)
(0.0608591 -0.0237191 0)
(0.0593147 -0.0176124 0)
(0.0578457 -0.0130549 0)
(0.0565693 -0.00942796 0)
(0.0553855 -0.0064113 0)
(0.0541768 -0.00389634 0)
(0.0529207 -0.00186287 0)
(0.0516432 -0.000302676 0)
(0.0503903 0.00077661 0)
(0.0492527 0.0014296 0)
(0.0483194 0.00174143 0)
(0.0476362 0.00181255 0)
(0.0472242 0.00175208 0)
(0.0471023 0.00167308 0)
(0.0472407 0.00167733 0)
(0.0475967 0.00187023 0)
(0.0481349 0.0023422 0)
(0.0487793 0.00317114 0)
(0.0494399 0.00441641 0)
(0.0500223 0.00613927 0)
(0.0504061 0.0083591 0)
(0.0504633 0.0110729 0)
(0.0500708 0.0142544 0)
(0.0491165 0.0178355 0)
(0.0474909 0.0217266 0)
(0.0451014 0.0257943 0)
(0.0418636 0.0298946 0)
(0.0377536 0.0338569 0)
(0.0328116 0.0374655 0)
(0.0271154 0.0405589 0)
(0.0208299 0.0429568 0)
(0.0141226 0.0446131 0)
(0.00716508 0.0454828 0)
(0.00014875 0.0455568 0)
(-0.00676258 0.0448448 0)
(-0.0133873 0.0434143 0)
(-0.0195971 0.0413073 0)
(-0.0252265 0.0385612 0)
(-0.0301894 0.0354132 0)
(-0.0344015 0.0319483 0)
(-0.0378334 0.0283084 0)
(-0.0405629 0.024707 0)
(-0.0426232 0.0212234 0)
(-0.0440942 0.0179827 0)
(-0.0450635 0.0150484 0)
(-0.0456244 0.0124732 0)
(-0.0458743 0.0102867 0)
(-0.0459115 0.00851727 0)
(-0.0458465 0.00714924 0)
(-0.04575 0.00614484 0)
(-0.0457001 0.0054586 0)
(-0.045775 0.00504172 0)
(-0.0460262 0.00479869 0)
(-0.046498 0.00464821 0)
(-0.0472171 0.00448988 0)
(-0.0481735 0.00420649 0)
(-0.0493391 0.00368542 0)
(-0.0506701 0.0028395 0)
(-0.0520755 0.00159988 0)
(-0.0534915 -5.9298e-05 0)
(-0.0549163 -0.0021411 0)
(-0.0563554 -0.00467336 0)
(-0.0578665 -0.00773411 0)
(-0.0595619 -0.0115279 0)
(-0.0614726 -0.0164749 0)
(-0.0633328 -0.0232586 0)
(-0.0642545 -0.0326563 0)
(-0.0626227 -0.0447828 0)
(-0.0566509 -0.0579062 0)
(-0.0455003 -0.0679978 0)
(-0.0301963 -0.0704244 0)
(-0.0139737 -0.0620788 0)
(-0.00178499 -0.035261 0)
(0.00200776 -0.0390267 0)
(0.0172373 -0.0765682 0)
(0.0354399 -0.0860297 0)
(0.0509167 -0.0794162 0)
(0.0611146 -0.0637701 0)
(0.0658534 -0.0462025 0)
(0.0664781 -0.0317741 0)
(0.0649853 -0.0219204 0)
(0.0629544 -0.0156162 0)
(0.06109 -0.0112961 0)
(0.0594696 -0.00788986 0)
(0.0579358 -0.00494667 0)
(0.0563467 -0.00240618 0)
(0.054672 -0.000315858 0)
(0.0529441 0.00122497 0)
(0.0512587 0.00219474 0)
(0.0497517 0.00264444 0)
(0.0485347 0.00267846 0)
(0.0476756 0.00241496 0)
(0.0472078 0.00200354 0)
(0.0471407 0.00158726 0)
(0.0474384 0.0012861 0)
(0.0480566 0.00121829 0)
(0.0489522 0.00149249 0)
(0.0500431 0.00220619 0)
(0.0512345 0.00344083 0)
(0.0524026 0.00528996 0)
(0.0533857 0.0077778 0)
(0.0540286 0.0109011 0)
(0.054172 0.0146265 0)
(0.0536731 0.0188967 0)
(0.0523897 0.0235979 0)
(0.0501732 0.0285825 0)
(0.0469192 0.0336508 0)
(0.0425631 0.0386038 0)
(0.037135 0.0431468 0)
(0.0307279 0.0469924 0)
(0.0235509 0.0500241 0)
(0.0158417 0.0520914 0)
(0.00779338 0.0531351 0)
(-0.000352111 0.0531764 0)
(-0.008334 0.0522347 0)
(-0.0159199 0.0503316 0)
(-0.0229979 0.0476625 0)
(-0.0292606 0.0441833 0)
(-0.0345992 0.0401853 0)
(-0.0390619 0.0358625 0)
(-0.0425208 0.0313836 0)
(-0.0450817 0.0269793 0)
(-0.0468733 0.0227976 0)
(-0.0479681 0.0189541 0)
(-0.0485029 0.0155222 0)
(-0.0485836 0.0125629 0)
(-0.0483366 0.0101122 0)
(-0.0478849 0.00819086 0)
(-0.0473662 0.00677839 0)
(-0.0468707 0.00582619 0)
(-0.0464771 0.00527584 0)
(-0.0462926 0.00506467 0)
(-0.0463855 0.00508348 0)
(-0.0467973 0.00523458 0)
(-0.0475722 0.00538795 0)
(-0.0487015 0.00539052 0)
(-0.0501369 0.00510506 0)
(-0.0518071 0.00441912 0)
(-0.0535856 0.00326136 0)
(-0.0553807 0.00162239 0)
(-0.0571709 -0.000461742 0)
(-0.0589708 -0.00291742 0)
(-0.0608702 -0.00578402 0)
(-0.0630419 -0.00926652 0)
(-0.0655804 -0.0140116 0)
(-0.0682062 -0.02124 0)
(-0.0698959 -0.0324825 0)
(-0.0688165 -0.0483572 0)
(-0.063056 -0.0667376 0)
(-0.0517263 -0.0821193 0)
(-0.0355719 -0.0877918 0)
(-0.0174156 -0.0784139 0)
(-0.00243947 -0.043715 0)
(0.00296309 -0.0491066 0)
(0.0191803 -0.0948763 0)
(0.0357092 -0.103287 0)
(0.0489322 -0.0920093 0)
(0.0578007 -0.0710304 0)
(0.0625948 -0.048961 0)
(0.0642488 -0.0315908 0)
(0.0641034 -0.020372 0)
(0.0632441 -0.0137592 0)
(0.0621608 -0.00953827 0)
(0.0609156 -0.00621845 0)
(0.0594125 -0.00321793 0)
(0.0576154 -0.000531997 0)
(0.0555729 0.00166631 0)
(0.0533869 0.00320667 0)
(0.0512375 0.00404096 0)
(0.04932 0.00421578 0)
(0.047781 0.00386201 0)
(0.0467151 0.00314124 0)
(0.0461776 0.00225773 0)
(0.0461723 0.00138403 0)
(0.04666 0.00066045 0)
(0.047604 0.000214144 0)
(0.0489672 0.000172732 0)
(0.0506562 0.000670173 0)
(0.0525702 0.00181127 0)
(0.0545447 0.00373409 0)
(0.0563588 0.00649162 0)
(0.0578092 0.0100629 0)
(0.0587107 0.014405 0)
(0.0588842 0.0194558 0)
(0.0581344 0.0251308 0)
(0.0562615 0.0312382 0)
(0.0531083 0.0375491 0)
(0.0485509 0.0437641 0)
(0.0425367 0.0494989 0)
(0.0352928 0.0543514 0)
(0.0270824 0.0582062 0)
(0.0180901 0.0607302 0)
(0.00864598 0.0619718 0)
(-0.000911087 0.0619819 0)
(-0.0103115 0.0608057 0)
(-0.0191178 0.0583402 0)
(-0.0272264 0.0548738 0)
(-0.0343456 0.0504695 0)
(-0.040183 0.0453009 0)
(-0.0448138 0.0398287 0)
(-0.0482059 0.034328 0)
(-0.0504824 0.0289839 0)
(-0.0518175 0.0239742 0)
(-0.0523808 0.0194339 0)
(-0.0523078 0.0154435 0)
(-0.0517269 0.0120706 0)
(-0.0508009 0.00935426 0)
(-0.0496908 0.00730877 0)
(-0.0485674 0.00590112 0)
(-0.0475416 0.00506675 0)
(-0.0467072 0.00473989 0)
(-0.0461992 0.00482959 0)
(-0.0460896 0.00523406 0)
(-0.0464243 0.00581488 0)
(-0.0472655 0.0064027 0)
(-0.0485934 0.00680512 0)
(-0.05033 0.00684806 0)
(-0.0523657 0.00637419 0)
(-0.0545241 0.00530845 0)
(-0.0566648 0.00365713 0)
(-0.0587027 0.00153536 0)
(-0.0606249 -0.00089824 0)
(-0.0624817 -0.00359927 0)
(-0.0643838 -0.0067952 0)
(-0.0663957 -0.0113833 0)
(-0.0682422 -0.019148 0)
(-0.0690299 -0.0323046 0)
(-0.0672639 -0.0518277 0)
(-0.0615607 -0.0752198 0)
(-0.0513611 -0.0959027 0)
(-0.0369032 -0.105603 0)
(-0.0196804 -0.0965936 0)
(-0.00336899 -0.0541545 0)
(0.0038441 -0.0600223 0)
(0.0178596 -0.111076 0)
(0.0292979 -0.116715 0)
(0.0381176 -0.101459 0)
(0.0449368 -0.0771411 0)
(0.0502667 -0.0526018 0)
(0.0542392 -0.0334694 0)
(0.0570393 -0.0210632 0)
(0.0588005 -0.0136763 0)
(0.0595504 -0.00889034 0)
(0.0593229 -0.0050568 0)
(0.0582005 -0.00155994 0)
(0.0563452 0.00156719 0)
(0.0539834 0.0040398 0)
(0.0513586 0.00565003 0)
(0.0487354 0.0063374 0)
(0.0463653 0.00617159 0)
(0.0444439 0.00532245 0)
(0.0431162 0.00401569 0)
(0.0424678 0.00251358 0)
(0.0425105 0.00103328 0)
(0.0432295 -0.000264081 0)
(0.044615 -0.00124821 0)
(0.0466538 -0.00177635 0)
(0.0492271 -0.00163736 0)
(0.0522045 -0.000713305 0)
(0.0553697 0.00120308 0)
(0.0583969 0.00423142 0)
(0.0610169 0.00828664 0)
(0.0630193 0.0133283 0)
(0.0642315 0.0192828 0)
(0.0643746 0.0260825 0)
(0.063137 0.033579 0)
(0.0602866 0.0414668 0)
(0.0556015 0.0492941 0)
(0.0490048 0.0565564 0)
(0.0408281 0.0628327 0)
(0.0312986 0.067644 0)
(0.0207681 0.0709079 0)
(0.00978791 0.0725137 0)
(-0.00134567 0.0724809 0)
(-0.0124187 0.0708192 0)
(-0.0228412 0.0677286 0)
(-0.0322557 0.0630887 0)
(-0.0404188 0.057414 0)
(-0.0468461 0.0508365 0)
(-0.0515246 0.0438411 0)
(-0.0546403 0.0369603 0)
(-0.0564238 0.0305064 0)
(-0.0570887 0.0245624 0)
(-0.0568374 0.0192245 0)
(-0.0558703 0.0146007 0)
(-0.0543329 0.0107741 0)
(-0.0524329 0.00779269 0)
(-0.0503779 0.00567003 0)
(-0.0483962 0.00434719 0)
(-0.0466324 0.00373907 0)
(-0.0452098 0.00375232 0)
(-0.0442749 0.00427899 0)
(-0.0439089 0.00521462 0)
(-0.044169 0.00637853 0)
(-0.0451017 0.00755123 0)
(-0.0466529 0.00848707 0)
(-0.0487112 0.00894057 0)
(-0.0511151 0.00871173 0)
(-0.0536291 0.00770247 0)
(-0.0560477 0.00594901 0)
(-0.058209 0.00362854 0)
(-0.0600087 0.000959164 0)
(-0.0613507 -0.00191469 0)
(-0.0621694 -0.00527329 0)
(-0.062419 -0.0101989 0)
(-0.0619101 -0.018815 0)
(-0.0602102 -0.0336477 0)
(-0.0566894 -0.0557546 0)
(-0.0509441 -0.0824734 0)
(-0.0429814 -0.106982 0)
(-0.0325265 -0.120495 0)
(-0.0193803 -0.113574 0)
(-0.00431265 -0.0657569 0)
(0.00414249 -0.069829 0)
(0.0132918 -0.121705 0)
(0.0181296 -0.124006 0)
(0.0220053 -0.106946 0)
(0.0266462 -0.0822827 0)
(0.0324907 -0.0578601 0)
(0.038784 -0.0384254 0)
(0.0445349 -0.0250593 0)
(0.048931 -0.016285 0)
(0.0515404 -0.0100138 0)
(0.0523569 -0.00481206 0)
(0.051649 -0.00017388 0)
(0.0497719 0.00378909 0)
(0.0471247 0.00676113 0)
(0.0440896 0.00853874 0)
(0.0409926 0.00910317 0)
(0.0381162 0.0085666 0)
(0.0356976 0.00713947 0)