/*--------------------------------*- C++ -*----------------------------------*\
| =========                 |                                                 |
| \\      /  F ield         | OpenFOAM: The Open Source CFD Toolbox           |
|  \\    /   O peration     | Version:  2412                                  |
|   \\  /    A nd           | Website:  www.openfoam.com                      |
|    \\/     M anipulation  |                                                 |
\*---------------------------------------------------------------------------*/
FoamFile
{
    version     2.0;
    format      ascii;
    arch        "LSB;label=32;scalar=64";
    class       volScalarField;
    location    "6.2";
    object      p_rgh;
}
// * * * * * * * * * * * * * * * * * * * * * * * * * * * * * * * * * * * * * //

dimensions      [1 -1 -2 0 0 0 0];

internalField   nonuniform List<scalar> 
6400
(
134439
134433
134420
134400
134373
134339
134299
134254
134204
134150
134093
134034
133973
133912
133851
133790
133731
133674
133620
133568
133519
133475
133434
133396
133363
133334
133308
133286
133267
133251
133238
133227
133217
133209
133202
133195
133188
133181
133174
133166
133158
133149
133141
133133
133126
133120
133117
133117
133120
133127
133139
133156
133178
133206
133239
133277
133321
133370
133424
133483
133545
133611
133679
133749
133820
133892
133963
134033
134101
134167
134229
134287
134340
134388
134430
134465
134493
134514
134527
134533
134444
134438
134426
134405
134378
134344
134303
134257
134207
134153
134095
134035
133974
133912
133851
133790
133730
133673
133618
133566
133518
133473
133431
133394
133361
133332
133306
133284
133265
133249
133236
133225
133216
133208
133200
133194
133187
133180
133172
133164
133156
133147
133138
133130
133123
133117
133114
133113
133116
133123
133135
133152
133174
133201
133235
133273
133318
133367
133422
133481
133543
133609
133678
133748
133820
133892
133964
134035
134104
134170
134232
134291
134345
134393
134435
134470
134499
134520
134533
134539
134457
134451
134438
134417
134388
134353
134312
134265
134213
134158
134099
134038
133976
133913
133850
133788
133728
133669
133614
133561
133512
133467
133426
133388
133355
133326
133300
133279
133260
133245
133232
133222
133213
133205
133198
133192
133185
133178
133170
133162
133153
133144
133135
133126
133118
133112
133107
133106
133109
133115
133126
133143
133164
133192
133225
133265
133309
133360
133415
133475
133538
133606
133675
133747
133820
133894
133967
134039
134109
134176
134240
134299
134354
134403
134446
134482
134511
134533
134546
134553
134477
134471
134457
134435
134406
134369
134326
134277
134223
134166
134105
134042
133977
133913
133848
133784
133722
133663
133606
133553
133503
133457
133416
133378
133345
133316
133291
133270
133253
133238
133227
133217
133209
133202
133196
133190
133183
133176
133169
133160
133151
133141
133131
133121
133111
133104
133098
133095
133096
133102
133112
133128
133149
133177
133210
133250
133295
133347
133403
133464
133530
133599
133671
133745
133820
133895
133970
134044
134116
134185
134251
134312
134369
134419
134464
134501
134531
134553
134567
134573
134505
134499
134484
134461
134430
134391
134345
134294
134237
134177
134113
134047
133980
133912
133845
133779
133715
133653
133595
133540
133489
133443
133401
133363
133331
133302
133278
133258
133242
133229
133219
133210
133204
133198
133193
133188
133182
133176
133168
133159
133149
133137
133126
133114
133103
133093
133086
133081
133080
133084
133093
133107
133128
133155
133189
133229
133275
133328
133386
133450
133518
133589
133664
133740
133818
133897
133975
134052
134126
134198
134267
134330
134389
134442
134488
134527
134558
134581
134595
134602
134541
134534
134519
134494
134461
134419
134370
134315
134255
134190
134123
134053
133982
133911
133840
133771
133704
133640
133580
133523
133471
133424
133381
133344
133311
133284
133261
133242
133228
133217
133208
133202
133198
133194
133190
133187
133182
133176
133168
133158
133147
133134
133121
133107
133093
133080
133070
133063
133059
133061
133067
133080
133100
133127
133160
133201
133249
133304
133364
133430
133501
133576
133654
133735
133816
133899
133980
134061
134139
134215
134286
134353
134415
134470
134519
134560
134592
134617
134632
134639
134586
134579
134562
134535
134499
134454
134401
134341
134276
134207
134135
134060
133984
133909
133834
133761
133690
133623
133560
133501
133448
133399
133356
133319
133287
133260
133239
133222
133210
133201
133195
133192
133190
133189
133188
133186
133182
133177
133169
133159
133146
133132
133116
133099
133082
133065
133051
133040
133034
133032
133036
133047
133065
133091
133125
133167
133216
133273
133336
133406
133481
133560
133642
133727
133814
133900
133987
134072
134155
134234
134310
134381
134446
134505
134556
134600
134635
134661
134677
134684
134641
134633
134615
134585
134545
134495
134437
134372
134301
134226
134148
134068
133986
133905
133825
133748
133673
133602
133536
133475
133419
133369
133325
133288
133256
133231
133211
133197
133188
133182
133180
133180
133182
133184
133185
133186
133184
133179
133172
133161
133147
133130
133111
133090
133069
133048
133029
133014
133002
132996
132997
133005
133021
133047
133081
133123
133175
133235
133302
133376
133455
133540
133628
133718
133810
133903
133995
134086
134174
134258
134338
134414
134483
134546
134601
134649
134686
134714
134732
134739
134706
134698
134677
134644
134599
134544
134479
134408
134330
134248
134163
134076
133988
133900
133814
133731
133651
133576
133506
133442
133383
133332
133287
133249
133219
133195
133178
133167
133161
133159
133161
133166
133172
133178
133183
133187
133187
133184
133177
133165
133149
133130
133107
133081
133055
133028
133003
132981
132964
132953
132950
132954
132969
132993
133027
133071
133125
133188
133260
133339
133425
133515
133610
133707
133806
133906
134004
134101
134195
134285
134371
134452
134527
134594
134654
134705
134747
134777
134796
134804
134782
134774
134750
134713
134662
134600
134528
134449
134364
134273
134180
134084
133989
133893
133800
133710
133625
133544
133469
133401
133340
133287
133241
133203
133174
133152
133137
133130
133128
133132
133139
133149
133161
133172
133182
133190
133193
133192
133185
133172
133154
133131
133103
133072
133039
133005
132973
132944
132920
132902
132893
132894
132905
132927
132962
133008
133065
133133
133210
133295
133388
133486
133589
133694
133801
133908
134014
134118
134219
134316
134409
134496
134576
134649
134715
134771
134816
134850
134870
134879
134872
134862
134835
134791
134733
134663
134583
134495
134401
134301
134198
134093
133988
133884
133782
133685
133592
133505
133425
133353
133289
133233
133186
133148
133119
133099
133088
133085
133089
133099
133113
133130
133148
133166
133182
133194
133201
133203
133197
133183
133162
133135
133101
133063
133022
132979
132938
132900
132867
132841
132825
132820
132828
132849
132883
132931
132993
133066
133150
133243
133344
133452
133564
133679
133795
133911
134027
134139
134248
134353
134452
134546
134632
134711
134782
134844
134895
134933
134956
134965
134975
134964
134932
134880
134813
134734
134645
134547
134442
134331
134217
134101
133985
133870
133759
133653
133552
133458
133372
133295
133227
133168
133120
133081
133054
133036
133029
133031
133041
133059
133081
133107
133133
133159
133183
133201
133213
133217
133213
133198
133175
133142
133102
133055
133004
132950
132898
132848
132804
132769
132744
132733
132736
132754
132789
132840
132906
132986
133079
133182
133293
133412
133535
133661
133788
133915
134040
134163
134281
134393
134501
134601
134695
134780
134857
134925
134983
135027
135055
135064
135096
135081
135042
134979
134901
134812
134714
134605
134488
134365
134237
134108
133980
133853
133731
133614
133504
133402
133309
133226
133153
133091
133040
133001
132974
132960
132957
132965
132983
133010
133042
133078
133116
133152
133184
133210
133228
133237
133234
133219
133192
133153
133104
133047
132984
132918
132851
132787
132731
132683
132648
132628
132625
132641
132677
132731
132804
132892
132995
133109
133233
133364
133500
133639
133779
133918
134055
134189
134317
134439
134555
134664
134764
134856
134938
135013
135079
135132
135166
135178
135237
135217
135167
135092
135003
134903
134793
134671
134540
134402
134259
134114
133971
133831
133695
133566
133446
133335
133234
133144
133066
133000
132946
132906
132879
132867
132870
132885
132913
132950
132995
133044
133095
133143
133186
133221
133247
133261
133260
133244
133213
133167
133108
133039
132961
132880
132797
132719
132644
132581
132532
132502
132492
132505
132541
132601
132681
132781
132896
133025
133164
133310
133461
133615
133770
133923
134073
134217
134358
134491
134617
134735
134843
134941
135030
135112
135187
135251
135293
135310
135404
135376
135316
135228
135125
135012
134886
134748
134600
134443
134282
134120
133959
133802
133652
133510
133378
133256
133146
133048
132964
132893
132835
132791
132764
132755
132763
132787
132825
132876
132936
133001
133066
133129
133186
133233
133268
133288
133290
133273
133237
133183
133112
133028
132934
132834
132732
132632
132538
132456
132391
132348
132330
132340
132378
132444
132536
132650
132781
132928
133084
133249
133418
133589
133761
133930
134095
134253
134405
134550
134687
134815
134932
135039
135137
135228
135314
135389
135440
135464
135602
135566
135496
135392
135274
135142
134996
134837
134667
134489
134307
134124
133943
133769
133602
133444
133298
133165
133045
132939
132847
132769
132707
132654
132627
132619
132631
132663
132714
132780
132858
132942
133027
133107
133180
133241
133288
133317
133324
133306
133265
133200
133115
133012
132898
132776
132650
132526
132407
132302
132217
132158
132131
132138
132180
132256
132363
132496
132649
132817
132995
133181
133371
133563
133753
133940
134120
134294
134459
134616
134765
134905
135034
135153
135261
135366
135465
135551
135614
135643
135832
135790
135708
135590
135451
135295
135124
134939
134743
134540
134334
134129
133927
133731
133545
133371
133210
133064
132933
132817
132716
132629
132554
132496
132460
132449
132465
132505
132568
132652
132751
132859
132968
133070
133161
133239
133301
133342
133356
133340
133292
133214
133109
132984
132845
132698
132545
132391
132241
132107
131997
131921
131883
131887
131935
132026
132156
132316
132499
132694
132898
133109
133324
133539
133752
133959
134157
134345
134522
134691
134852
135004
135146
135280
135406
135528
135643
135742
135815
135851
136098
136050
135954
135819
135655
135470
135268
135052
134826
134595
134363
134133
133907
133689
133482
133289
133113
132953
132810
132684
132575
132473
132385
132313
132265
132248
132262
132305
132376
132474
132596
132735
132874
132998
133107
133204
133281
133332
133350
133331
133276
133188
133067
132921
132757
132583
132402
132213
132024
131854
131717
131625
131580
131585
131642
131754
131915
132112
132334
132561
132794
133034
133277
133519
133759
133989
134205
134406
134594
134771
134943
135108
135267
135418
135566
135708
135842
135959
136044
136087
136405
136348
136235
136076
135883
135664
135426
135175
134916
134654
134394
134137
133881
133635
133406
133195
133002
132829
132673
132536
132421
132303
132192
132092
132020
131988
131999
132046
132125
132237
132383
132554
132727
132882
133013
133119
133196
133239
133251
133227
133167
133074
132950
132800
132623
132428
132217
131985
131749
131532
131358
131240
131182
131186
131256
131403
131616
131873
132147
132416
132683
132955
133231
133504
133769
134030
134268
134480
134672
134856
135036
135214
135388
135561
135733
135901
136060
136199
136302
136356
136770
136706
136567
136350
135993
135466
134744
133840
132799
131725
130667
129291
127198
124948
122563
119852
116895
114000
110858
108062
106575
104952
102855
100768
99199.3
98370.8
98329.5
98719.6
99374.7
100631
104068
109640
113957
116319
117196
118416
119778
120825
121561
121685
121019
119673
117669
115331
112787
110741
108096
103211
97160.3
91360.1
87911.6
86061.6
85160.7
85309.4
86349.7
88989.5
92930.9
97528.2
102169
106297
110228
114922
119441
123228
126681
129272
131195
131841
132141
132658
133297
133932
134507
135019
135470
135853
136182
136434
136598
136667
89011.7
88841.6
85709.9
81573.2
76755.9
71111.1
64748.2
58304.1
51977.8
45882.6
40210.4
35060.1
30600.2
26521.6
23141.9
20711.9
19142.4
17877.9
16882.2
16034.3
15024.2
13633.6
12097.3
10745.2
9825.57
9398.92
9468.81
9846.71
10542
11425.5
12112.2
12443.3
13683.7
16290.3
19168
21741.7
23803.2
25621.1
27086.7
27432.7
26405.5
24223.5
21367.2
18558.5
15489.3
12335.3
9527.22
7557.16
6622.01
5931.7
5132.96
4491.02
4150.87
4156.94
4502.6
5472.62
7158.04
9592.85
12514.1
15492.9
18193.6
20789.8
23669.9
27024.1
31141.8
35435.7
39737.6
43724.6
47557.4
51094.6
54715.3
58366.2
62086.3
66063.3
70343.4
74397
77925
81357.7
84296.6
85026.2
5208.98
4083.52
3080.19
1866.82
599.454
4.37997
3.48957
3.72702
3.81667
4.03125
4.15305
3.93572
3.81786
3.79823
3.81829
3.93075
3.9461
6.26499
9.68502
17.7113
25.238
31.8088
37.4455
40.5944
41.6761
41.7693
41.6959
42.1997
42.9745
40.3023
26.4345
1.07926
1.02387
1.41391
1.66672
1.68257
1.72219
1.97328
2.10556
1.93133
1.5765
1.40671
1.40303
1.50309
1.49575
1.20027
0.689702
0.68535
12.836
23.1474
24.9904
24.7435
24.8067
25.1303
27.0574
30.6407
34.0747
33.9347
29.3459
21.7845
13.2179
6.51586
4.18812
4.15696
4.25556
4.32848
4.42722
4.42275
4.22849
4.08739
4.0583
4.07957
4.08074
3.94037
3.95178
433.36
1646.52
2701.53
3543.45
4207.47
3.1748
3.57478
3.69879
3.8522
4.06862
3.92801
3.81986
3.88079
3.92807
6.51797
9.04567
5.11895
3.93718
3.89313
3.89456
7.89189
8.87728
4.07195
3.13696
3.24157
3.60242
4.18916
4.65285
5.02848
5.16738
5.09785
4.76696
4.08934
4.10986
3.61664
2.62403
1.97813
8.48258
2.31672
1.94192
2.08557
2.08697
2.1638
2.24044
2.15071
2.03015
2.0704
2.34073
2.38762
1.77126
1.47866
13.0841
24.7279
1.93204
2.97255
3.86172
4.17013
4.39944
4.5413
4.74386
4.95784
5.07127
5.60857
5.42067
4.34166
3.64223
3.80396
5.17608
5.29638
7.63465
7.81426
7.57054
6.97963
5.03096
4.3752
4.35686
4.26478
4.07435
4.00365
3.89796
3.89161
3.62541
3.5099
3.63217
4.66237
7.19582
12.8316
13.1569
13.3107
13.3581
5.63554
3.8741
4.13803
4.21012
10.0732
11.3333
6.25959
3.79267
5.01875
6.13148
5.6497
3.36863
3.28606
3.17562
2.88678
2.81886
2.91263
2.99654
3.04083
3.02366
2.92352
2.73612
2.4649
2.10278
1.84598
1.71884
1.66883
2.52432
2.56967
1.83957
1.87122
2.02084
2.15372
2.22478
2.15027
2.3008
4.23655
5.38149
5.30253
4.99117
2.05096
1.87746
2.52991
1.79069
2.04751
2.42938
2.78953
3.07448
3.22899
3.21893
3.13172
3.06819
3.93952
4.22544
3.45519
3.22021
3.45477
3.54808
5.54954
6.87398
6.89411
7.95286
8.07376
8.12891
5.25678
4.37381
4.63277
4.75137
5.30318
4.03254
3.82623
3.6668
3.5919
4.74222
6.16634
8.42722
12.9771
9.02891
4.64325
9.0364
9.74891
5.73887
4.68401
4.35547
9.2583
11.5432
11.3611
4.82276
3.83824
3.76214
3.67953
4.2832
5.00212
3.71929
2.78867
2.80656
2.89471
2.95348
2.97776
2.93817
2.82829
2.65198
2.40653
2.13043
1.91592
1.79113
1.74937
1.74598
1.76342
1.84989
1.95202
2.10795
2.19185
2.2744
2.22591
2.84876
5.72045
5.62096
5.49574
5.19065
2.03821
1.84404
1.85001
1.99462
2.21923
2.5443
2.87811
3.08545
3.16273
3.07476
2.87047
2.80104
3.95945
4.23124
3.31677
3.05998
3.20583
3.3982
3.30849
3.35272
3.4428
4.20207
6.74629
8.17091
6.90003
4.59929
4.622
5.57137
6.25251
3.86566
3.71351
3.53459
3.41711
4.81042
6.14936
8.54689
5.37115
1.90784
1.925
2.06943
5.57396
5.76917
5.32253
4.44674
8.63647
11.6969
11.644
9.15035
3.54674
3.3883
3.72004
8.72364
8.81453
8.93462
6.71818
3.08531
3.54572
3.10373
2.92375
2.86061
2.7246
2.54958
2.34263
2.12425
1.94296
1.8248
1.77033
1.76018
1.72687
1.73019
1.8537
1.97028
2.08583
2.15886
2.3288
2.76823
2.61891
2.37845
4.03644
8.90545
7.68498
2.1561
2.38423
2.24977
2.26824
2.52955
3.40372
7.28107
8.22339
4.88472
2.6392
2.55495
3.09591
3.1024
2.80934
2.89706
2.9843
3.12506
3.23989
3.33798
3.4383
3.70105
3.99723
5.70071
7.58641
6.5149
4.6732
4.92452
6.3035
5.70457
3.61915
3.42329
3.33294
3.82794
6.11797
7.17998
1.83498
1.34164
1.26198
1.42099
1.76494
4.39124
5.02861
4.388
8.51855
11.8132
11.7257
11.2526
3.09546
2.89563
2.75972
7.16465
8.67503
8.8296
8.96018
9.07731
9.16118
8.52713
5.90904
5.73936
3.61539
2.47191
2.28555
2.09145
1.93417
1.82809
1.76023
1.7163
1.69165
1.70321
1.76173
1.82561
1.9027
1.96105
2.01513
2.00196
1.92784
2.46945
8.23596
9.08107
8.91084
8.81115
8.71574
5.4611
2.20995
4.24746
9.18888
9.29673
9.29338
9.1598
3.57188
2.27051
2.48114
2.59471
2.68416
2.7806
2.92273
3.13678
3.85459
5.7888
7.23931
6.48796
4.58047
4.78008
6.8328
7.39994
5.33332
4.81892
5.9305
6.19206
4.2877
3.43896
3.3806
3.33259
6.15898
1.45574
1.1782
0.809926
0.691401
0.828704
1.19825
2.25785
4.57713
4.29194
8.9434
11.9132
11.7768
8.84861
2.7904
2.64663
2.49868
2.47218
4.75568
8.82888
8.84397
8.83298
8.91099
9.04727
9.16889
9.24303
9.23593
5.37577
3.25771
2.01136
1.86899
1.78127
1.71803
1.67415
1.64967
1.76829
1.95752
1.68273
1.71969
1.78121
1.80731
1.79775
1.795
5.24849
9.43922
9.17924
8.93825
8.77304
8.44734
8.02369
8.78893
8.99632
9.16705
9.27975
9.22201
7.96692
2.01074
2.12432
2.315
2.41311
3.00919
6.36265
7.89282
8.57691
10.2905
10.6061
10.6379
10.6976
10.5544
7.55668
6.73401
7.48427
7.26668
4.77803
4.73025
6.17909
6.01601
4.106
3.36513
3.34344
5.27542
1.32568
0.761117
0.450146
0.361056
0.515163
0.856312
1.43474
2.46701
4.35262
11.9555
11.9833
11.7963
5.41739
2.64542
2.55899
2.52325
6.97278
8.40027
8.44904
4.3509
3.78694
7.79078
8.76349
9.01368
9.04902
8.96005
8.85632
8.71738
2.86381
1.77255
1.71014
1.66294
1.61746
1.9338
3.08232
3.1371
2.97508
2.18407
1.8731
1.82821
1.74416
1.95496
7.87299
9.52735
9.21947
3.73694
1.83769
1.81911
3.75921
8.46494
8.67252
7.68357
9.06461
9.05079
3.89188
2.01915
2.15108
2.18963
3.34274
10.5393
10.7483
10.8012
10.8192
10.7506
10.5758
10.2109
10.0122
9.98958
10.0145
8.85287
8.59604
7.35442
5.14215
4.47132
4.67287
5.66919
4.69976
3.5501
3.33482
4.07099
1.43326
0.590618
0.293253
0.235366
0.359118
0.639986
1.19236
1.69845
5.85345
11.906
11.9591
11.8138
7.63893
2.49908
2.47755
5.97253
8.16242
8.198
5.05336
3.512
3.53026
3.57487
3.68916
5.41456
6.86302
7.61075
8.53966
8.38079
7.68462
1.66759
1.62418
1.6033
1.62765
2.83842
3.08297
2.93842
2.87562
2.91173
2.8344
1.62565
1.65299
3.06224
9.14987
9.36135
5.09421
1.73549
1.50587
1.447
1.67749
1.44002
1.69279
1.9374
1.96918
4.49874
4.84712
2.29611
2.33447
2.3051
8.25974
10.5315
10.5605
10.6117
10.6067
8.53667
5.236
3.05723
3.37376
6.76576
9.74323
10.3581
10.7578
9.37044
5.78374
4.11549
3.81943
3.72767
4.60325
3.9112
3.33284
4.64549
1.36018
0.551725
0.320042
0.255041
0.338246
0.618847
1.09196
1.76831
5.49246
8.72548
11.8918
11.7182
11.5793
10.3917
10.1228
7.12216
2.50298
3.57286
3.5137
3.55752
4.21366
5.07922
5.59641
3.81931
2.76498
2.46763
2.02129
4.37444
7.27814
3.27969
1.56242
1.55083
1.67414
3.17481
2.99856
2.79951
2.68218
2.55473
1.66328
1.42661
1.71324
7.86195
8.93181
8.57026
1.2655
1.18843
2.0242
4.43118
4.44851
2.85014
1.73317
1.80302
1.56075
1.90381
2.15799
4.45163
5.41098
5.3461
5.72339
10.5529
10.5045
8.28444
3.75903
1.41128
1.44709
1.48499
1.53582
1.61099
4.59805
10.0765
10.6802
10.885
8.76127
4.08257
3.50623
3.35292
3.52876
3.41791
3.38503
4.70985
1.07083
0.780416
0.510648
0.436073
0.495749
0.748488
1.53501
2.29446
2.35729
2.919
8.47383
11.6152
11.5533
11.409
6.35952
2.06441
2.2008
2.44393
3.84026
6.18805
7.15941
7.29304
7.34
7.37908
6.73088
3.79327
1.61857
1.61785
1.73429
4.18948
2.80836
1.51855
1.5866
3.00732
3.02002
2.6904
1.60827
1.46596
1.44424
1.35171
3.79911
9.74864
9.19857
5.49559
0.652618
1.42016
3.92022
3.70257
3.85959
4.16637
4.54009
5.1914
5.42893
2.03085
1.92893
2.15318
2.15744
3.7075
5.64578
4.36303
2.00378
1.1889
1.27424
1.34675
1.3915
1.43043
1.47583
1.52941
1.61645
5.56211
10.416
10.7321
10.6932
6.39124
3.78055
2.99102
2.92187
2.98898
3.0457
4.6752
1.24793
1.14918
0.830722
0.751566
0.777345
0.942395
1.28142
1.79513
1.93083
4.8801
11.8866
11.7185
11.6134
9.0057
1.53947
1.74376
3.01298
3.78557
2.57037
1.70376
2.69468
7.03082
7.26557
7.31859
7.38872
7.47408
4.71753
1.48436
1.49778
2.95161
3.12713
2.17905
1.63109
2.832
3.15092
2.57486
1.36645
1.43007
1.51408
2.6072
9.94819
9.8623
9.61719
3.60634
0.436644
-0.27204
0.581909
1.08025
1.48494
1.42484
3.3174
5.00433
5.72541
6.47632
3.53113
1.97929
1.95603
1.81968
1.56673
1.33333
1.22463
1.22064
1.25972
1.30472
1.34402
1.38182
1.42287
1.47045
1.54035
1.74168
9.81939
10.4231
10.3078
9.35904
5.00881
3.70739
2.74889
2.82849
2.93336
4.47346
1.86928
1.36531
1.19197
1.09769
1.06507
1.13622
1.30366
2.17773
9.42123
12.2416
12.0615
11.9065
11.7535
2.15473
1.29741
2.45221
3.70091
2.93141
0.703012
0.75048
0.771941
2.05782
6.66773
7.22941
7.31117
7.38877
7.44314
1.58698
1.37836
1.61397
2.9959
1.76861
1.73453
2.48226
3.31086
3.00998
1.50708
1.46162
1.68933
7.48017
10.0954
9.96347
9.89249
7.59291
0.513183
-0.17758
-0.838285
-1.12315
-1.07233
-0.746556
-0.31495
3.60774
5.60265
6.24438
6.04691
1.87049
1.69684
1.63069
1.48485
1.32817
1.22993
1.20429
1.22258
1.25559
1.29065
1.32602
1.35852
1.3984
1.48319
1.8551
7.30104
9.99766
10.0796
6.80009
6.38528
5.32093
2.673
2.61364
2.75446
4.17545
3.22948
1.65486
1.52671
1.40207
1.30677
1.31866
2.8287
12.0017
12.4899
12.3869
12.2212
12.0832
9.98023
1.02863
1.09537
3.40843
3.66524
0.521255
0.616761
0.675228
0.705793
0.68887
1.06305
3.40152
5.2487
5.64441
2.8994
1.13533
1.29487
1.38421
1.6484
2.67494
1.79069
1.77803
2.30298
2.19179
1.61996
1.49155
2.82426
10.445
10.1886
10.0643
10.0417
10.0149
0.87273
0.188997
-0.304668
-0.613424
-0.659731
-0.462126
-0.138241
1.31565
5.53674
6.07539
3.61189
1.3984
1.4247
1.41228
1.34096
1.24934
1.18391
1.16322
1.17549
1.20213
1.23265
1.26203
1.2839
1.31948
4.37208
6.67843
5.12673
7.84281
7.27116
2.83089
4.35226
5.10633
4.42184
2.41096
2.51281
3.7939
3.5423
1.91338
1.78412
1.62983
1.49209
1.92922
12.5387
12.7407
12.6185
12.4936
12.335
12.1423
1.32588
0.966045
0.955181
2.79431
1.30452
0.493236
0.593205
0.652796
0.686391
0.68725
0.669805
0.657832
0.674269
0.753885
0.929367
1.12975
1.26757
1.3659
2.08686
2.81785
2.69285
1.82005
1.81945
1.76234
1.63409
2.30856
10.2552
10.5984
10.3223
10.1948
10.1762
10.1791
9.51932
2.92283
0.440862
1.02067
2.05797
1.28951
1.3043
4.76642
5.29023
4.22665
1.06997
1.05512
1.16501
1.19748
1.17972
1.13921
1.10646
1.09803
1.11173
1.13835
1.16645
1.18768
1.20171
2.66011
7.879
7.84849
5.03467
2.37693
2.53903
1.3939
3.15043
4.79853
4.97409
2.3613
2.23465
4.10927
3.74936
2.07608
1.94684
1.77749
2.23327
11.1939
12.9907
12.7998
12.6614
12.532
12.4175
2.38419
0.98984
0.998741
0.967937
1.29495
0.37555
0.51291
0.609105
0.659392
0.693396
0.708901
0.717291
0.732587
0.777338
0.87862
1.02942
1.17447
1.28166
1.3687
1.4978
2.49467
2.97097
2.86556
1.84656
1.81573
1.66152
1.96299
10.3832
10.785
10.5178
10.379
10.3257
10.2898
10.2475
10.0871
9.8033
9.44886
9.07779
8.72687
8.24328
4.71008
2.12877
0.356799
0.616569
0.821596
0.946821
1.00559
1.02106
1.01432
1.00653
1.01128
1.03078
1.12214
1.15506
1.1071
1.11878
5.15124
7.95729
7.87387
7.74648
2.11328
1.1524
0.980478
1.44885
4.59724
4.64278
2.11345
1.95448
4.7211
3.90606
2.13279
2.00865
1.86506
6.16588
13.4085
13.0588
12.787
12.655
12.5143
2.21824
0.810605
0.962273
1.04032
1.64847
0.657133
0.42622
0.545262
0.622026
0.663157
0.698308
0.728865
0.75293
0.78799
0.855849
0.965081
1.09793
1.21775
1.31069
1.38669
1.45303
1.59776
2.37035
2.98754
3.02758
2.34526
1.72511
1.44703
2.49922
6.11035
9.47986
10.6797
9.83458
6.7531
7.04183
7.9199
7.03471
4.96831
3.18996
2.75087
2.49797
0.600353
-0.0125593
0.233245
0.473401
0.653966
0.77614
0.843903
0.877108
0.893743
0.902055
0.916655
0.956593
1.05767
1.0867
1.03671
1.05646
6.94232
8.02072
7.9399
6.31014
1.12002
0.732067
0.872174
1.00244
2.61178
2.85439
1.79242
1.70322
4.5554
4.14601
2.08786
1.96694
2.0761
12.8426
13.5636
13.0964
12.7984
12.6562
5.27793
0.587567
0.679791
1.1013
2.7634
1.78185
0.358337
0.45819
0.556192
0.617613
0.652168
0.688134
0.736926
0.811172
0.834627
0.898315
1.022
1.15637
1.26473
1.34376
1.40737
1.46496
1.51877
1.576
1.9434
2.6819
2.69991
2.59143
2.33816
1.39347
0.964807
1.16039
1.81722
1.58927
0.572984
0.125651
0.0295574
-0.0829406
-0.18722
-0.258483
-0.275967
-0.238753
-0.144727
-0.000326834
0.181876
0.369858
0.523416
0.633233
0.707363
0.812836
0.821578
0.799046
0.820904
0.850574
0.945409
0.950268
0.954351
2.07724
7.98635
8.00533
8.00634
2.4862
0.654755
0.659653
0.794004
0.913731
1.04997
1.25254
1.44402
1.49518
4.40457
4.27375
1.96484
1.84602
1.66583
7.39814
13.7404
13.2287
12.9194
9.55097
0.412313
0.489384
0.582733
1.80119
3.31066
2.12413
0.374906
0.470432
0.543852
0.589001
0.62712
0.663831
0.703878
0.806889
0.925168
0.938279
1.06799
1.21468
1.31137
1.37119
1.41816
1.46719
1.51654
1.56221
1.60125
1.68416
1.99333
2.18703
2.28814
1.59438
1.05518
1.08952
2.15766
1.63525
0.483705
0.386098
0.30633
0.205336
0.0937082
-0.00152918
-0.0662062
-0.0894942
-0.0624095
0.00858305
0.122963
0.261008
0.397329
0.63855
1.00993
1.01884
0.704775
0.699916
0.728374
0.76215
0.80059
0.838396
0.87166
3.96456
8.08254
8.012
5.24877
0.733329
0.618203
0.644524
0.737881
0.843241
0.941781
1.07011
1.20159
1.33695
3.21357
4.233
1.81455
1.70398
1.6333
1.87498
5.02602
9.65944
8.38314
1.31316
0.409681
0.505902
0.604599
1.77386
3.3808
1.58193
0.384703
0.467434
0.51846
0.553849
0.58673
0.621163
0.659759
0.706943
0.909489
1.15469
1.47334
2.04798
1.46908
1.37653
1.40414
1.44759
1.49518
1.54084
1.57479
1.59041
1.58287
1.55288
1.49542
1.37088
1.25284
1.17083
0.991919
0.856318
0.71501
0.601294
0.515545
0.439431
0.340528
0.231787
0.140877
0.085101
0.470569
0.269702
0.0843735
0.147051
0.577734
2.80589
2.49556
0.675035
0.564363
0.600107
0.638501
0.752019
0.839917
0.76405
0.78881
5.33724
7.99252
8.10113
2.21723
0.606062
0.599918
0.634653
0.70643
0.786964
0.864246
0.962403
1.06975
1.22227
3.09176
3.88257
1.60282
4.22556
6.14723
2.28341
2.45009
2.06453
1.1667
0.591933
0.565791
0.637758
0.728327
2.43171
3.09369
0.675872
0.394869
0.452093
0.481959
0.505343
0.528817
0.556943
0.589504
0.62519
0.700392
1.78824
6.54395
8.46098
5.78113
1.75617
1.35886
1.40557
1.45619
1.50152
1.53311
1.54788
1.54333
1.5121
1.45395
1.37957
1.29859
1.21578
1.1135
1.01606
0.904758
0.785378
0.705205
0.649905
0.583913
0.695126
2.08151
5.31349
10.4829
9.39769
5.10423
3.05564
3.49363
3.50359
1.80017
0.413879
0.450421
0.50643
0.549318
1.05322
1.07137
0.695783
0.712246
6.21623
7.76029
4.98693
0.69435
0.574488
0.579232
0.611603
0.663325
0.723723
0.788998
0.880849
0.967644
1.14484
5.98805
1.47067
1.45771
4.8624
6.976
6.02691
3.5106
3.25763
3.63196
2.99263
0.806295
0.817536
0.883812
3.81357
2.02705
0.362961
0.399515
0.423978
0.43196
0.440648
0.451903
0.470628
0.492619
0.51035
0.616408
4.50443
8.29436
8.47939
8.57303
7.16772
1.64597
1.41118
1.47266
1.54642
1.57202
1.61821
1.73269
1.70051
1.53036
1.37438
1.34742
1.32546
1.78692
3.42941
2.77354
1.26848
1.00834
1.79663
4.14024
9.57269
13.1025
12.9716
12.6965
12.5167
12.5263
10.3657
1.99108
0.130533
0.160086
0.272517
0.366899
0.424219
0.58309
1.30064
0.838976
0.647264
0.662284
4.88515
7.29059
2.44922
1.35926
0.540389
0.534767
0.560772
0.598604
0.648075
0.707386
0.812541
0.855527
1.12121
6.09758
1.49271
1.30099
2.29823
7.02225
7.04025
6.96731
6.33295
6.63924
6.53039
5.76197
2.96981
4.39258
4.55463
1.00311
0.368519
0.380174
0.375842
0.36661
0.357914
0.35708
0.367498
0.380017
0.379585
0.718216
6.67179
8.29831
8.44268
8.47125
8.40703
6.71211
5.2376
5.34253
5.57524
5.5569
5.60021
5.9763
5.87799
5.16214
3.97084
2.62073
4.3528
9.08035
9.3001
9.24559
6.84299
6.56949
11.799
13.3017
13.384
13.2743
13.0142
12.7238
12.5118
12.0444
2.29515
-0.225119
-0.096273
0.0601739
0.341919
1.44735
2.74634
2.75822
1.44898
0.596196
0.610709
1.22889
2.07158
0.733555
3.79849
4.08502
2.90439
0.48308
0.466461
0.505872
0.557605
0.614212
0.720278
0.745101
1.12143
6.09336
7.34978
1.25587
1.00597
6.9908
7.00564
6.97885
6.86269
6.73291
6.69291
6.70383
6.69349
6.50783
4.19867
0.394869
0.335437
0.324646
0.29905
0.273821
0.253893
0.24595
0.254599
0.267135
0.258419
0.712945
7.46114
8.31661
8.40393
6.31699
6.30602
7.01225
7.11435
7.17542
7.18381
7.11278
7.00318
6.90485
6.93265
7.02221
7.58636
8.75108
9.46186
9.42426
9.39354
9.50342
9.89401
10.4529
10.6959
11.923
13.1221
13.1729
13.069
12.8614
12.6974
2.51778
-0.205613
-0.27975
-0.15986
-0.00159549
0.380171
13.1134
17.2703
7.51027
0.764504
0.633116
0.921226
0.872501
0.510397
0.529476
3.47375
4.04667
3.23166
0.387225
0.332426
0.388902
0.460478
0.531225
0.627545
0.646158
1.07739
6.1022
8.67411
2.21179
0.675655
2.58718
6.97955
6.93415
6.87733
6.52783
6.80634
6.79642
6.80173
6.80307
1.46423
0.264832
0.254769
0.228604
0.189178
0.151382
0.12395
0.116232
0.136219
0.167768
0.17291
0.365815
5.72764
8.3464
7.17856
0.920627
1.03056
2.99289
4.07792
4.2218
3.85439
3.60016
3.41358
3.0504
2.71471
2.69999
2.67313
7.70266
9.30606
7.31167
3.95369
1.4628
1.71995
1.47377
0.971948
0.956454
2.31148
6.84649
11.9087
12.8551
12.6496
4.87969
4.94992
4.67313
2.30693
7.60342
17.0517
17.1745
17.3406
10.9118
1.22415
0.912758
0.536104
0.340808
0.36361
0.394572
3.10364
3.51987
0.925139
0.16622
0.194794
0.269192
0.386148
0.515748
0.54845
0.565237
0.983704
6.12815
8.555
2.01354
0.403437
0.394996
4.03797
6.58816
2.36444
0.940168
6.90076
6.87076
6.86458
2.38292
0.146379
0.155627
0.137995
0.0963984
0.04111
-0.0119972
-0.0443553
-0.0424168
0.0125407
0.0869002
0.139312
0.160137
2.57969
8.32014
2.76648
0.953257
1.04117
1.13828
1.18428
1.20163
1.22154
1.24031
1.26594
1.3201
1.36737
1.37504
1.39143
1.27142
1.55022
0.873506
0.752249
0.639578
0.522503
0.385007
0.209111
0.00771668
-0.228013
-0.512197
0.267965
3.37493
1.76021
11.3702
15.002
16.0161
16.6003
16.8486
16.9289
17.0629
17.2805
13.2493
1.27194
0.456622
0.179938
0.181316
0.202641
0.458212
1.652
4.62681
1.35245
0.00344246
0.0822179
0.169874
0.309298
0.455749
0.49989
0.509806
0.850381
6.17204
8.51123
1.0049
0.225909
0.231225
0.392067
0.89234
0.221079
0.162334
3.43511
6.94033
2.88097
0.0443566
0.0466577
0.0340713
-0.00563204
-0.0754255
-0.163738
-0.246648
-0.286633
-0.240189
-0.161811
-0.0294454
0.0987052
0.244908
0.877356
4.75692
1.70178
0.991158
1.06191
1.17597
1.18767
1.17513
1.24158
1.43894
1.59385
1.66797
1.40452
1.57362
1.99087
1.08255
0.971154
0.875813