/*--------------------------------*- C++ -*----------------------------------*\
| =========                 |                                                 |
| \\      /  F ield         | OpenFOAM: The Open Source CFD Toolbox           |
|  \\    /   O peration     | Version:  2412                                  |
|   \\  /    A nd           | Website:  www.openfoam.com                      |
|    \\/     M anipulation  |                                                 |
\*---------------------------------------------------------------------------*/
FoamFile
{
    version     2.0;
    format      ascii;
    arch        "LSB;label=32;scalar=64";
    class       volVectorField;
    location    "2.05";
    object      U;
}
// * * * * * * * * * * * * * * * * * * * * * * * * * * * * * * * * * * * * * //

dimensions      [0 1 -1 0 0 0 0];

internalField   nonuniform List<vector> 
6400
(
(-2.45969e-05 2.45719e-05 0)
(-2.5511e-05 8.81286e-06 0)
(7.15813e-05 -1.48366e-05 0)
(0.000262209 -3.30164e-05 0)
(0.0005213 -4.42467e-05 0)
(0.000821475 -4.96705e-05 0)
(0.00113963 -5.07667e-05 0)
(0.00145826 -4.88707e-05 0)
(0.00176508 -4.50667e-05 0)
(0.0020521 -4.01548e-05 0)
(0.00231449 -3.46826e-05 0)
(0.00254972 -2.90174e-05 0)
(0.00275682 -2.34059e-05 0)
(0.00293586 -1.80178e-05 0)
(0.0030875 -1.29505e-05 0)
(0.00321277 -8.24626e-06 0)
(0.00331298 -3.9383e-06 0)
(0.0033896 -6.91734e-08 0)
(0.00344407 3.32305e-06 0)
(0.00347777 6.22652e-06 0)
(0.00349193 8.66258e-06 0)
(0.00348765 1.06749e-05 0)
(0.00346578 1.23209e-05 0)
(0.00342689 1.36658e-05 0)
(0.00337119 1.47796e-05 0)
(0.00329849 1.57374e-05 0)
(0.00320824 1.66185e-05 0)
(0.00309957 1.74998e-05 0)
(0.0029714 1.84481e-05 0)
(0.00282258 1.9515e-05 0)
(0.00265202 2.07313e-05 0)
(0.0024588 2.21014e-05 0)
(0.00224242 2.36021e-05 0)
(0.00200287 2.51829e-05 0)
(0.00174079 2.67753e-05 0)
(0.00145756 2.83028e-05 0)
(0.00115534 2.96785e-05 0)
(0.000837101 3.081e-05 0)
(0.00050655 3.16152e-05 0)
(0.000167953 3.20396e-05 0)
(-0.00017403 3.20494e-05 0)
(-0.000514556 3.1641e-05 0)
(-0.000848835 3.08517e-05 0)
(-0.00117237 2.97215e-05 0)
(-0.00148116 2.83222e-05 0)
(-0.00177189 2.6746e-05 0)
(-0.00204203 2.50758e-05 0)
(-0.00228984 2.34095e-05 0)
(-0.00251435 2.18251e-05 0)
(-0.00271523 2.03697e-05 0)
(-0.00289275 1.90752e-05 0)
(-0.0030476 1.79363e-05 0)
(-0.00318078 1.69227e-05 0)
(-0.00329336 1.59971e-05 0)
(-0.00338639 1.50951e-05 0)
(-0.00346077 1.41347e-05 0)
(-0.0035171 1.30376e-05 0)
(-0.00355568 1.1718e-05 0)
(-0.00357644 1.0098e-05 0)
(-0.00357893 8.10817e-06 0)
(-0.00356239 5.69585e-06 0)
(-0.00352579 2.82959e-06 0)
(-0.00346787 -5.08968e-07 0)
(-0.00338723 -4.3284e-06 0)
(-0.00328242 -8.62287e-06 0)
(-0.003152 -1.33636e-05 0)
(-0.00299466 -1.84991e-05 0)
(-0.0028093 -2.39652e-05 0)
(-0.00259521 -2.9654e-05 0)
(-0.00235239 -3.53973e-05 0)
(-0.0020819 -4.09376e-05 0)
(-0.00178647 -4.58812e-05 0)
(-0.00147124 -4.96453e-05 0)
(-0.00114468 -5.14036e-05 0)
(-0.000819677 -5.00502e-05 0)
(-0.000514429 -4.42226e-05 0)
(-0.000252759 -3.24558e-05 0)
(-6.24564e-05 -1.36599e-05 0)
(3.1653e-05 1.03769e-05 0)
(2.61824e-05 2.61884e-05 0)
(-9.14749e-06 2.57702e-05 0)
(0.000118163 -0.000117492 0)
(0.000463962 -0.000303134 0)
(0.00101125 -0.000457339 0)
(0.00170761 -0.000561879 0)
(0.0024976 -0.00061893 0)
(0.00333234 -0.000637259 0)
(0.00417289 -0.000626801 0)
(0.00499059 -0.000596498 0)
(0.00576586 -0.000553503 0)
(0.00648629 -0.000503123 0)
(0.00714468 -0.000449112 0)
(0.00773758 -0.000393997 0)
(0.00826407 -0.000339424 0)
(0.00872475 -0.000286413 0)
(0.00912113 -0.000235547 0)
(0.00945522 -0.000187149 0)
(0.00972924 -0.000141374 0)
(0.00994538 -9.82302e-05 0)
(0.0101056 -5.75635e-05 0)
(0.0102113 -1.90483e-05 0)
(0.0102636 1.77884e-05 0)
(0.0102628 5.35368e-05 0)
(0.0102084 8.88646e-05 0)
(0.010099 0.000124463 0)
(0.00993262 0.00016101 0)
(0.0097063 0.000199119 0)
(0.00941668 0.000239259 0)
(0.00906013 0.000281697 0)
(0.00863314 0.000326442 0)
(0.00813268 0.0003732 0)
(0.00755663 0.000421349 0)
(0.0069042 0.000469949 0)
(0.00617629 0.000517763 0)
(0.00537581 0.000563339 0)
(0.00450791 0.000605097 0)
(0.00358004 0.000641425 0)
(0.00260193 0.00067079 0)
(0.00158532 0.000691873 0)
(0.000543577 0.000703706 0)
(-0.000508849 0.00070571 0)
(-0.00155703 0.000697764 0)
(-0.00258617 0.000680246 0)
(-0.00358228 0.00065392 0)
(-0.00453276 0.000619961 0)
(-0.00542683 0.000579835 0)
(-0.00625592 0.000535114 0)
(-0.00701374 0.000487421 0)
(-0.00769624 0.000438274 0)
(-0.00830148 0.000388983 0)
(-0.00882934 0.000340616 0)
(-0.00928121 0.000293904 0)
(-0.00965957 0.000249249 0)
(-0.00996755 0.000206788 0)
(-0.0102085 0.00016637 0)
(-0.0103859 0.000127601 0)
(-0.0105025 8.99349e-05 0)
(-0.0105608 5.27092e-05 0)
(-0.0105621 1.52332e-05 0)
(-0.0105074 -2.31743e-05 0)
(-0.0103966 -6.31142e-05 0)
(-0.0102288 -0.000105058 0)
(-0.0100028 -0.000149347 0)
(-0.00971666 -0.000196198 0)
(-0.00936843 -0.000245689 0)
(-0.00895593 -0.000297717 0)
(-0.00847719 -0.000351943 0)
(-0.0079307 -0.000407755 0)
(-0.00731596 -0.00046408 0)
(-0.00663407 -0.000519184 0)
(-0.00588879 -0.000570385 0)
(-0.00508781 -0.000613717 0)
(-0.00424439 -0.000643595 0)
(-0.00337929 -0.000652583 0)
(-0.0025226 -0.000631505 0)
(-0.00171492 -0.00057031 0)
(-0.00100673 -0.000460447 0)
(-0.000454527 -0.000300496 0)
(-0.000110187 -0.000110524 0)
(1.1194e-05 3.2738e-05 0)
(1.47268e-05 -7.18848e-05 0)
(0.000310575 -0.000464512 0)
(0.00091341 -0.000897369 0)
(0.00178425 -0.00125411 0)
(0.00284898 -0.00150084 0)
(0.00403718 -0.00164039 0)
(0.00528668 -0.00169008 0)
(0.00654678 -0.00167107 0)
(0.00777926 -0.00160329 0)
(0.00895725 -0.00150327 0)
(0.0100631 -0.00138365 0)
(0.0110862 -0.00125355 0)
(0.0120207 -0.00111921 0)
(0.0128644 -0.000984729 0)
(0.013617 -0.00085261 0)
(0.0142795 -0.000724283 0)
(0.0148533 -0.00060044 0)
(0.01534 -0.000481256 0)
(0.0157411 -0.000366501 0)
(0.0160575 -0.000255572 0)
(0.0162895 -0.000147522 0)
(0.0164362 -4.10974e-05 0)
(0.0164961 6.52028e-05 0)
(0.0164662 0.00017304 0)
(0.0163426 0.000284071 0)
(0.0161204 0.000399845 0)
(0.0157937 0.000521632 0)
(0.0153565 0.000650247 0)
(0.0148025 0.000785894 0)
(0.0141262 0.00092805 0)
(0.0133233 0.00107539 0)
(0.012391 0.00122572 0)
(0.0113292 0.00137607 0)
(0.0101403 0.00152272 0)
(0.0088302 0.00166143 0)
(0.00740833 0.00178766 0)
(0.00588763 0.00189687 0)
(0.00428452 0.0019848 0)
(0.00261846 0.00204781 0)
(0.000911381 0.00208322 0)
(-0.000813153 0.00208945 0)
(-0.0025309 0.00206617 0)
(-0.00421782 0.00201437 0)
(-0.00585104 0.00193618 0)
(-0.00740978 0.00183484 0)
(-0.00887604 0.00171438 0)
(-0.0102351 0.00157924 0)
(-0.0114757 0.00143396 0)
(-0.0125904 0.00128292 0)
(-0.0135748 0.00113002 0)
(-0.0144276 0.000978537 0)
(-0.0151502 0.000830984 0)
(-0.0157458 0.000689015 0)
(-0.0162193 0.000553513 0)
(-0.0165762 0.000424603 0)
(-0.0168225 0.000301748 0)
(-0.0169637 0.000183895 0)
(-0.017005 6.96195e-05 0)
(-0.0169506 -4.26714e-05 0)
(-0.0168036 -0.000154637 0)
(-0.0165663 -0.0002678 0)
(-0.0162396 -0.000383452 0)
(-0.0158236 -0.000502595 0)
(-0.0153179 -0.000625924 0)
(-0.0147212 -0.000753782 0)
(-0.0140322 -0.000886066 0)
(-0.0132496 -0.00102208 0)
(-0.0123726 -0.00116035 0)
(-0.0114018 -0.00129825 0)
(-0.0103397 -0.00143147 0)
(-0.00919269 -0.0015534 0)
(-0.00797216 -0.0016544 0)
(-0.00669699 -0.00172121 0)
(-0.00539571 -0.00173663 0)
(-0.00410856 -0.0016802 0)
(-0.00288851 -0.00153056 0)
(-0.00179985 -0.00127094 0)
(-0.000914545 -0.000900291 0)
(-0.000306661 -0.000456191 0)
(-1.3151e-05 -6.1258e-05 0)
(3.44726e-05 -0.000269001 0)
(0.000483984 -0.00102814 0)
(0.00131754 -0.0017778 0)
(0.00246878 -0.00238287 0)
(0.00384095 -0.00280225 0)
(0.00535238 -0.00304267 0)
(0.00693335 -0.00313197 0)
(0.00852711 -0.0031043 0)
(0.0100906 -0.00299233 0)
(0.011593 -0.0028236 0)
(0.013014 -0.00261947 0)
(0.0143407 -0.0023955 0)
(0.0155656 -0.00216244 0)
(0.0166852 -0.00192734 0)
(0.0176982 -0.0016945 0)
(0.0186042 -0.00146624 0)
(0.0194036 -0.0012435 0)
(0.0200963 -0.00102627 0)
(0.0206823 -0.000813845 0)
(0.0211603 -0.000604892 0)
(0.0215283 -0.00039754 0)
(0.021783 -0.000189431 0)
(0.0219197 2.21538e-05 0)
(0.0219328 0.000240114 0)
(0.021815 0.000467265 0)
(0.0215583 0.00070606 0)
(0.0211541 0.00095829 0)
(0.0205936 0.0012248 0)
(0.0198689 0.00150522 0)
(0.0189731 0.00179783 0)
(0.0179012 0.00209941 0)
(0.0166513 0.00240528 0)
(0.0152243 0.00270929 0)
(0.0136252 0.00300411 0)
(0.0118632 0.00328151 0)
(0.00995213 0.00353279 0)
(0.00790995 0.00374938 0)
(0.005759 0.00392328 0)
(0.0035253 0.00404772 0)
(0.0012378 0.00411767 0)
(-0.00107258 0.00413021 0)
(-0.0033741 0.00408476 0)
(-0.00563529 0.00398309 0)
(-0.0078261 0.00382923 0)
(-0.00991898 0.00362919 0)
(-0.0118897 0.00339045 0)
(-0.013718 0.00312135 0)
(-0.015388 0.00283053 0)
(-0.0168883 0.00252636 0)
(-0.0182117 0.00221653 0)
(-0.019355 0.00190765 0)
(-0.0203185 0.00160503 0)
(-0.0211054 0.0013125 0)
(-0.0217212 0.00103243 0)
(-0.022173 0.000765815 0)
(-0.0224688 0.000512383 0)
(-0.0226169 0.000270813 0)
(-0.0226253 3.89807e-05 0)
(-0.0225012 -0.000185711 0)
(-0.0222509 -0.000406082 0)
(-0.0218792 -0.000624841 0)
(-0.0213901 -0.000844393 0)
(-0.020786 -0.0010667 0)
(-0.0200687 -0.00129322 0)
(-0.0192389 -0.00152479 0)
(-0.018297 -0.00176151 0)
(-0.0172431 -0.0020024 0)
(-0.0160779 -0.00224508 0)
(-0.0148032 -0.00248509 0)
(-0.0134232 -0.00271505 0)
(-0.0119459 -0.00292358 0)
(-0.0103851 -0.00309423 0)
(-0.008763 -0.00320458 0)
(-0.00711213 -0.00322601 0)
(-0.00547801 -0.00312496 0)
(-0.00392008 -0.00286694 0)
(-0.00251069 -0.00242503 0)
(-0.00133361 -0.00179535 0)
(-0.000486392 -0.0010247 0)
(-3.36694e-05 -0.000257442 0)
(4.89817e-05 -0.000547879 0)
(0.000622622 -0.00177296 0)
(0.00164742 -0.00289466 0)
(0.00303051 -0.00377826 0)
(0.00465318 -0.00438659 0)
(0.00642353 -0.00473606 0)
(0.00826663 -0.00486797 0)
(0.0101226 -0.00483103 0)
(0.0119463 -0.00467152 0)
(0.0137056 -0.00442858 0)
(0.0153789 -0.00413273 0)
(0.0169521 -0.00380628 0)
(0.0184168 -0.00346463 0)
(0.0197683 -0.00311781 0)
(0.0210041 -0.00277182 0)
(0.0221223 -0.00242976 0)
(0.0231215 -0.00209262 0)
(0.0239997 -0.00175994 0)
(0.0247543 -0.00143021 0)
(0.0253816 -0.0011011 0)
(0.0258765 -0.000769526 0)
(0.0262327 -0.000431808 0)
(0.0264424 -8.38526e-05 0)
(0.0264966 0.000278539 0)
(0.0263852 0.00065926 0)
(0.0260972 0.00106143 0)
(0.0256218 0.00148693 0)
(0.0249487 0.00193604 0)
(0.024069 0.00240712 0)
(0.0229758 0.00289637 0)
(0.0216654 0.00339783 0)
(0.0201374 0.00390337 0)
(0.0183956 0.00440286 0)
(0.0164483 0.00488451 0)
(0.0143084 0.00533536 0)
(0.0119938 0.00574195 0)
(0.00952685 0.00609109 0)
(0.00693433 0.00637062 0)
(0.00424676 0.00657026 0)
(0.00149762 0.00668242 0)
(-0.00127757 0.00670269 0)
(-0.00404256 0.0066302 0)
(-0.00676135 0.00646765 0)
(-0.0093994 0.0062211 0)
(-0.0119247 0.00589966 0)
(-0.0143086 0.00551468 0)
(-0.0165266 0.00507889 0)
(-0.0185585 0.00460559 0)
(-0.0203892 0.00410783 0)
(-0.0220078 0.00359781 0)
(-0.0234082 0.00308629 0)
(-0.0245882 0.00258222 0)
(-0.0255496 0.00209247 0)
(-0.0262972 0.0016218 0)
(-0.0268381 0.00117283 0)
(-0.0271816 0.000746241 0)
(-0.0273378 0.000340962 0)
(-0.0273171 -4.54715e-05 0)
(-0.0271296 -0.000416486 0)
(-0.0267845 -0.00077602 0)
(-0.02629 -0.00112805 0)
(-0.025653 -0.00147627 0)
(-0.024879 -0.00182379 0)
(-0.0239726 -0.00217308 0)
(-0.0229371 -0.00252576 0)
(-0.0217752 -0.00288236 0)
(-0.0204891 -0.00324191 0)
(-0.0190812 -0.00360128 0)
(-0.0175548 -0.00395427 0)
(-0.0159154 -0.00429038 0)
(-0.0141722 -0.0045933 0)
(-0.0123405 -0.00483947 0)
(-0.0104434 -0.00499687 0)
(-0.00851547 -0.00502476 0)
(-0.00660442 -0.00487555 0)
(-0.00477321 -0.00450003 0)
(-0.0030999 -0.00385808 0)
(-0.00167913 -0.00293711 0)
(-0.000631472 -0.00178167 0)
(-4.8787e-05 -0.00053857 0)
(5.94222e-05 -0.000888986 0)
(0.000728654 -0.00266125 0)
(0.00190539 -0.00420174 0)
(0.00347416 -0.00538781 0)
(0.00529674 -0.00619582 0)
(0.00727197 -0.00665813 0)
(0.00932075 -0.00683307 0)
(0.0113816 -0.0067857 0)
(0.0134086 -0.00657672 0)
(0.0153696 -0.00625709 0)
(0.0172428 -0.00586645 0)
(0.0190138 -0.00543371 0)
(0.0206734 -0.00497875 0)
(0.0222158 -0.00451429 0)
(0.0236371 -0.00404776 0)
(0.0249337 -0.00358271 0)
(0.0261021 -0.00311985 0)
(0.0271377 -0.00265797 0)
(0.0280351 -0.00219446 0)
(0.0287872 -0.00172572 0)
(0.0293859 -0.00124729 0)
(0.0298216 -0.000754101 0)
(0.0300832 -0.000240698 0)
(0.0301589 0.000298259 0)
(0.0300358 0.000867402 0)
(0.029701 0.00146998 0)
(0.0291426 0.00210724 0)
(0.0283499 0.00277802 0)
(0.0273151 0.00347839 0)
(0.0260335 0.00420153 0)
(0.0245044 0.0049378 0)
(0.0227315 0.00567488 0)
(0.0207228 0.00639813 0)
(0.0184913 0.007091 0)
(0.0160541 0.00773569 0)
(0.013433 0.00831407 0)
(0.0106536 0.00880856 0)
(0.00774502 0.00920309 0)
(0.00473957 0.00948416 0)
(0.0016718 0.0096418 0)
(-0.00142212 0.00967029 0)
(-0.00450548 0.00956848 0)
(-0.00754175 0.00933992 0)
(-0.0104956 0.00899261 0)
(-0.0133339 0.0085385 0)
(-0.0160259 0.00799256 0)
(-0.0185447 0.00737167 0)
(-0.0208666 0.00669363 0)
(-0.0229724 0.00597613 0)
(-0.0248469 0.00523599 0)
(-0.0264795 0.00448851 0)
(-0.0278637 0.00374685 0)
(-0.0289975 0.00302173 0)
(-0.0298828 0.00232117 0)
(-0.0305252 0.00165046 0)
(-0.0309332 0.00101216 0)
(-0.0311174 0.000406312 0)
(-0.0310898 -0.000169244 0)
(-0.0308626 -0.000718294 0)
(-0.0304478 -0.00124563 0)
(-0.0298565 -0.00175636 0)
(-0.0290987 -0.00225544 0)
(-0.0281834 -0.00274723 0)
(-0.0271183 -0.00323536 0)
(-0.0259099 -0.00372248 0)
(-0.0245638 -0.00420988 0)
(-0.0230846 -0.00469691 0)
(-0.0214769 -0.00518008 0)
(-0.0197456 -0.00565178 0)
(-0.0178974 -0.00609866 0)
(-0.0159424 -0.00649973 0)
(-0.0138964 -0.00682445 0)
(-0.0117828 -0.00703118 0)
(-0.00963642 -0.00706683 0)
(-0.00750582 -0.00686889 0)
(-0.00545604 -0.00637153 0)
(-0.00356984 -0.0055177 0)
(-0.00195182 -0.00427953 0)
(-0.000743164 -0.00268947 0)
(-5.9555e-05 -0.000884921 0)
(6.71346e-05 -0.00127671 0)
(0.000809659 -0.00366079 0)
(0.00210581 -0.0056591 0)
(0.00382186 -0.00716756 0)
(0.00580326 -0.00818346 0)
(0.00794077 -0.00876068 0)
(0.0101519 -0.00897817 0)
(0.0123741 -0.00891926 0)
(0.0145618 -0.00865981 0)
(0.016683 -0.00826272 0)
(0.0187162 -0.00777649 0)
(0.0206469 -0.00723628 0)
(0.0224653 -0.00666597 0)
(0.0241643 -0.00608059 0)
(0.0257383 -0.00548854 0)
(0.0271817 -0.00489334 0)
(0.0284883 -0.00429502 0)
(0.0296504 -0.00369122 0)
(0.0306592 -0.00307799 0)
(0.0315041 -0.00245031 0)
(0.0321733 -0.00180235 0)
(0.0326539 -0.00112777 0)
(0.0329319 -0.000420036 0)
(0.0329928 0.000326903 0)
(0.0328221 0.00111778 0)
(0.0324061 0.0019551 0)
(0.031733 0.00283837 0)
(0.0307942 0.00376365 0)
(0.0295854 0.00472346 0)
(0.0281068 0.00570678 0)
(0.0263639 0.00669938 0)
(0.0243669 0.00768427 0)
(0.0221309 0.00864219 0)
(0.0196749 0.00955217 0)
(0.0170215 0.0103924 0)
(0.0141961 0.0111411 0)
(0.011226 0.0117775 0)
(0.00814039 0.012283 0)
(0.00496949 0.0126418 0)
(0.00174453 0.0128425 0)
(-0.00150264 0.0128784 0)
(-0.00474012 0.0127483 0)
(-0.00793605 0.0124564 0)
(-0.0110591 0.0120118 0)
(-0.014079 0.0114287 0)
(-0.0169665 0.0107244 0)
(-0.019694 0.00991865 0)
(-0.0222355 0.00903261 0)
(-0.0245673 0.00808761 0)
(-0.0266686 0.00710444 0)
(-0.0285221 0.00610268 0)
(-0.0301144 0.00509995 0)
(-0.0314368 0.00411143 0)
(-0.0324855 0.00314945 0)
(-0.0332615 0.00222319 0)
(-0.0337702 0.00133841 0)
(-0.034021 0.000497481 0)
(-0.0340258 -0.000300389 0)
(-0.0337981 -0.00105858 0)
(-0.0333518 -0.00178218 0)
(-0.0327008 -0.00247705 0)
(-0.0318582 -0.00314916 0)
(-0.0308362 -0.00380398 0)
(-0.0296464 -0.00444629 0)
(-0.0282988 -0.00507994 0)
(-0.0268025 -0.00570731 0)
(-0.0251654 -0.00632851 0)
(-0.0233943 -0.00694015 0)
(-0.0214961 -0.00753375 0)
(-0.0194791 -0.00809362 0)
(-0.017354 -0.00859453 0)
(-0.0151367 -0.00899938 0)
(-0.0128507 -0.00925713 0)
(-0.0105305 -0.00930215 0)
(-0.0082246 -0.00905616 0)
(-0.00599957 -0.00843462 0)
(-0.00394214 -0.00735979 0)
(-0.00216573 -0.00578256 0)
(-0.00082904 -0.00371584 0)
(-6.74463e-05 -0.00128072 0)
(7.32934e-05 -0.00170029 0)
(0.000874201 -0.0047476 0)
(0.00226665 -0.00723574 0)
(0.00410214 -0.00908322 0)
(0.00621273 -0.0103137 0)
(0.00848246 -0.0110074 0)
(0.010826 -0.0112671 0)
(0.0131803 -0.0111961 0)
(0.0155002 -0.010886 0)
(0.017754 -0.0104118 0)
(0.0199206 -0.00983042 0)
(0.021985 -0.00918268 0)
(0.0239364 -0.00849598 0)
(0.0257664 -0.00778709 0)
(0.0274672 -0.00706482 0)
(0.0290305 -0.00633214 0)
(0.0304467 -0.00558784 0)
(0.0317046 -0.00482801 0)
(0.0327909 -0.00404715 0)
(0.0336911 -0.00323882 0)
(0.0343895 -0.0023961 0)
(0.0348697 -0.00151179 0)
(0.0351153 -0.000578864 0)
(0.0351098 0.000408692 0)
(0.034838 0.00145471 0)
(0.0342868 0.00255962 0)
(0.0334469 0.00371953 0)
(0.0323142 0.00492594 0)
(0.0308912 0.00616604 0)
(0.0291868 0.0074232 0)
(0.0272164 0.00867774 0)
(0.0250008 0.00990775 0)
(0.0225651 0.0110898 0)
(0.019937 0.0121999 0)
(0.0171458 0.0132139 0)
(0.0142202 0.0141088 0)
(0.0111881 0.0148634 0)
(0.00807512 0.0154587 0)
(0.00490525 0.015879 0)
(0.00170081 0.0161129 0)
(-0.0015169 0.0161539 0)
(-0.00472728 0.0160009 0)
(-0.00790956 0.015658 0)
(-0.0110424 0.0151346 0)
(-0.0141035 0.0144449 0)
(-0.0170689 0.0136066 0)
(-0.0199129 0.0126397 0)
(-0.0226083 0.0115662 0)
(-0.0251264 0.0104087 0)
(-0.027439 0.00919037 0)
(-0.0295191 0.00793401 0)
(-0.0313429 0.00666146 0)
(-0.032891 0.00539286 0)
(-0.03415 0.00414599 0)
(-0.0351125 0.0029355 0)
(-0.0357783 0.00177219 0)
(-0.0361527 0.000662539 0)
(-0.0362459 -0.000391394 0)
(-0.0360713 -0.00139139 0)
(-0.035644 -0.00234195 0)
(-0.0349798 -0.00324902 0)
(-0.0340945 -0.00411897 0)
(-0.0330042 -0.00495796 0)
(-0.0317242 -0.00577169 0)
(-0.0302693 -0.00656521 0)
(-0.0286528 -0.00734231 0)
(-0.0268861 -0.00810436 0)
(-0.0249795 -0.00884872 0)
(-0.0229423 -0.00956664 0)
(-0.0207843 -0.0102408 0)
(-0.0185174 -0.0108423 0)
(-0.016158 -0.011328 0)
(-0.0137292 -0.0116379 0)
(-0.0112652 -0.0116936 0)
(-0.00881463 -0.0114005 0)
(-0.00644488 -0.0106531 0)
(-0.00424614 -0.00934968 0)
(-0.00233947 -0.00741495 0)
(-0.000898303 -0.00483663 0)
(-7.39402e-05 -0.00171508 0)
(7.88542e-05 -0.00215347 0)
(0.0009303 -0.00590659 0)
(0.00240596 -0.00891137 0)
(0.00434471 -0.011112 0)
(0.00656737 -0.012563 0)
(0.0089524 -0.013375 0)
(0.0114123 -0.0136772 0)
(0.0138835 -0.0135942 0)
(0.0163212 -0.0132344 0)
(0.018694 -0.0126839 0)
(0.0209803 -0.012008 0)
(0.0231645 -0.0112526 0)
(0.0252343 -0.0104478 0)
(0.0271789 -0.00961176 0)
(0.028988 -0.00875294 0)
(0.0306499 -0.00787311 0)
(0.0321508 -0.00696924 0)
(0.0334746 -0.00603541 0)
(0.0346032 -0.00506437 0)
(0.0355168 -0.00404855 0)
(0.0361955 -0.0029805 0)
(0.0366198 -0.00185303 0)
(0.0367709 -0.000659596 0)
(0.0366318 0.000604683 0)
(0.0361877 0.00194133 0)
(0.0354277 0.00334681 0)
(0.0343476 0.00481152 0)
(0.032951 0.00631988 0)
(0.0312513 0.0078514 0)
(0.0292708 0.00938204 0)
(0.0270397 0.0108858 0)
(0.024594 0.0123359 0)
(0.0219731 0.0137062 0)
(0.0192166 0.0149715 0)
(0.0163621 0.0161091 0)
(0.0134422 0.0170985 0)
(0.0104829 0.0179223 0)
(0.007503 0.0185655 0)
(0.00451467 0.0190157 0)
(0.00152479 0.0192642 0)
(-0.00146335 0.0193061 0)
(-0.00444831 0.0191405 0)
(-0.00742811 0.0187711 0)
(-0.0103985 0.0182053 0)
(-0.0133513 0.0174547 0)
(-0.0162725 0.0165334 0)
(-0.0191417 0.0154578 0)
(-0.0219311 0.014246 0)
(-0.0246066 0.0129183 0)
(-0.0271296 0.0114972 0)
(-0.0294601 0.0100068 0)
(-0.0315592 0.00847227 0)
(-0.0333922 0.00691907 0)
(-0.0349306 0.00537175 0)
(-0.0361547 0.00385253 0)
(-0.0370543 0.00237978 0)
(-0.037628 0.000966558 0)
(-0.0378823 -0.000380072 0)
(-0.0378289 -0.00165866 0)
(-0.0374826 -0.00287188 0)
(-0.0368604 -0.00402469 0)
(-0.0359806 -0.0051229 0)
(-0.0348629 -0.00617247 0)
(-0.0335274 -0.00717942 0)
(-0.0319943 -0.00814984 0)
(-0.030282 -0.00908918 0)
(-0.0284072 -0.0100007 0)
(-0.0263838 -0.0108832 0)
(-0.0242245 -0.0117285 0)
(-0.0219414 -0.0125184 0)
(-0.019548 -0.0132211 0)
(-0.0170613 -0.0137881 0)
(-0.014505 -0.0141506 0)
(-0.011913 -0.0142179 0)
(-0.00933395 -0.0138778 0)
(-0.00683629 -0.0130029 0)
(-0.00451308 -0.011464 0)
(-0.00249216 -0.00915585 0)
(-0.000959618 -0.00603613 0)
(-8.01397e-05 -0.00218134 0)
(8.45937e-05 -0.00263392 0)
(0.000985152 -0.00713125 0)
(0.0025408 -0.0106767 0)
(0.00457869 -0.0132433 0)
(0.00690933 -0.0149209 0)
(0.00940629 -0.0158536 0)
(0.0119801 -0.0161995 0)
(0.014567 -0.0161058 0)
(0.0171219 -0.0156973 0)
(0.0196131 -0.0150716 0)
(0.0220181 -0.0143013 0)
(0.0243195 -0.0134367 0)
(0.0265027 -0.0125103 0)
(0.0285542 -0.0115407 0)
(0.03046 -0.0105356 0)
(0.0322041 -0.0094946 0)
(0.0337675 -0.00841222 0)
(0.0351281 -0.00727993 0)
(0.0362612 -0.00608868 0)
(0.0371411 -0.00483035 0)
(0.037743 -0.00349811 0)
(0.0380444 -0.00208618 0)
(0.0380254 -0.000589896 0)
(0.0376694 0.000992976 0)
(0.0369637 0.00265984 0)
(0.0359017 0.00440074 0)
(0.0344869 0.0061972 0)
(0.0327346 0.00802309 0)
(0.0306737 0.00984708 0)
(0.0283458 0.0116355 0)
(0.0258018 0.0133549 0)
(0.0230987 0.0149745 0)
(0.0202951 0.0164672 0)
(0.0174462 0.0178106 0)
(0.0146003 0.0189878 0)
(0.0117942 0.0199873 0)
(0.00904997 0.0208016 0)
(0.00637512 0.0214258 0)
(0.00376377 0.021856 0)
(0.00119956 0.0220898 0)
(-0.00134088 0.0221259 0)
(-0.00388434 0.0219645 0)
(-0.00645657 0.0216072 0)
(-0.0090787 0.021057 0)
(-0.0117637 0.0203183 0)
(-0.0145134 0.0193966 0)
(-0.0173158 0.0182982 0)
(-0.0201441 0.0170312 0)
(-0.0229573 0.0156076 0)
(-0.0257038 0.0140445 0)
(-0.0283258 0.0123644 0)
(-0.0307642 0.0105944 0)
(-0.0329623 0.00876518 0)
(-0.0348713 0.00690962 0)
(-0.0364533 0.00506039 0)
(-0.0376838 0.00324683 0)
(-0.0385514 0.00149208 0)
(-0.0390563 -0.000188941 0)
(-0.0392067 -0.00178943 0)
(-0.0390161 -0.00330867 0)
(-0.0385011 -0.00474923 0)
(-0.0376819 -0.00611483 0)
(-0.0365814 -0.00740969 0)
(-0.0352255 -0.00863903 0)
(-0.033641 -0.00980953 0)
(-0.0318533 -0.0109285 0)
(-0.0298851 -0.0120018 0)
(-0.0277556 -0.0130308 0)
(-0.0254815 -0.0140088 0)
(-0.0230779 -0.0149174 0)
(-0.0205606 -0.0157228 0)
(-0.0179483 -0.0163715 0)
(-0.0152657 -0.0167869 0)
(-0.0125472 -0.0168658 0)
(-0.00984166 -0.0164784 0)
(-0.00721865 -0.0154735 0)
(-0.00477404 -0.0136924 0)
(-0.00264196 -0.0109959 0)
(-0.00102026 -0.0073073 0)
(-8.6498e-05 -0.00267692 0)
(9.11934e-05 -0.00314278 0)
(0.00104547 -0.00842315 0)
(0.00268783 -0.0125333 0)
(0.00483308 -0.0154793 0)
(0.00728103 -0.0173901 0)
(0.00990023 -0.0184469 0)
(0.0125993 -0.0188389 0)
(0.0153136 -0.0187364 0)
(0.0179976 -0.0182807 0)
(0.0206186 -0.0175802 0)
(0.0231519 -0.0167141 0)
(0.0255773 -0.0157364 0)
(0.0278771 -0.0146815 0)
(0.0300339 -0.0135678 0)
(0.0320292 -0.0124014 0)
(0.0338418 -0.0111791 0)
(0.0354463 -0.00989172 0)
(0.0368127 -0.00852748 0)
(0.0379083 -0.00707556 0)
(0.0386999 -0.00552836 0)
(0.0391573 -0.00388169 0)
(0.0392558 -0.00213342 0)
(0.038976 -0.000282753 0)
(0.0383035 0.0016682 0)
(0.0372296 0.00371067 0)
(0.035754 0.00582519 0)
(0.0338908 0.0079802 0)
(0.0316713 0.0101344 0)
(0.0291459 0.0122413 0)
(0.0263816 0.0142548 0)
(0.0234573 0.0161332 0)
(0.0204572 0.0178427 0)
(0.0174644 0.0193585 0)
(0.0145542 0.0206656 0)
(0.0117884 0.0217599 0)
(0.00920831 0.0226472 0)
(0.00682983 0.0233394 0)
(0.0046439 0.0238494 0)
(0.00261949 0.0241887 0)
(0.000708382 0.0243662 0)
(-0.00114918 0.0243874 0)
(-0.00301822 0.0242538 0)
(-0.00496219 0.0239633 0)
(-0.00703671 0.0235107 0)
(-0.00928392 0.0228879 0)
(-0.0117276 0.0220844 0)
(-0.0143688 0.021088 0)
(-0.0171832 0.0198876 0)
(-0.0201212 0.0184784 0)
(-0.0231145 0.0168663 0)
(-0.0260828 0.015068 0)
(-0.0289404 0.0131097 0)
(-0.0316024 0.0110272 0)
(-0.0339921 0.00886367 0)
(-0.0360474 0.00666585 0)
(-0.0377243 0.00447863 0)
(-0.0389977 0.00233991 0)
(-0.0398594 0.000276272 0)
(-0.0403121 -0.0016977 0)
(-0.0403659 -0.00357624 0)
(-0.0400354 -0.00535775 0)
(-0.0393406 -0.00704167 0)
(-0.0383078 -0.00862804 0)
(-0.0369694 -0.0101193 0)
(-0.0353605 -0.0115217 0)
(-0.0335153 -0.0128449 0)
(-0.0314645 -0.0140982 0)
(-0.0292338 -0.0152867 0)
(-0.0268446 -0.0164063 0)
(-0.0243161 -0.0174395 0)
(-0.0216672 -0.018351 0)
(-0.0189194 -0.0190833 0)
(-0.0160991 -0.0195523 0)
(-0.0132419 -0.0196428 0)
(-0.0103978 -0.0192072 0)
(-0.00763762 -0.0180694 0)
(-0.00506037 -0.0160388 0)
(-0.00280659 -0.0129385 0)
(-0.00108688 -0.00865295 0)
(-9.32724e-05 -0.00320362 0)
(9.93237e-05 -0.00368451 0)
(0.00111818 -0.00979218 0)
(0.00286463 -0.0144945 0)
(0.00513867 -0.0178352 0)
(0.00772711 -0.0199873 0)
(0.0104922 -0.0211728 0)
(0.0133403 -0.0216136 0)
(0.0162054 -0.0215044 0)
(0.0190408 -0.0210023 0)
(0.021812 -0.0202258 0)
(0.024491 -0.0192597 0)
(0.0270535 -0.0181613 0)
(0.0294773 -0.016966 0)
(0.0317403 -0.0156917 0)
(0.0338188 -0.0143422 0)
(0.0356851 -0.0129103 0)
(0.0373062 -0.0113818 0)
(0.0386428 -0.00974057 0)
(0.0396513 -0.00797409 0)
(0.0402893 -0.00607724 0)
(0.0405213 -0.00405176 0)
(0.0403217 -0.00190273 0)
(0.0396745 0.000364247 0)
(0.0385703 0.00274108 0)
(0.0370064 0.00521091 0)
(0.034991 0.00774115 0)
(0.0325512 0.0102816 0)
(0.0297394 0.0127696 0)
(0.0266336 0.0151383 0)
(0.0233336 0.0173254 0)
(0.0199536 0.0192801 0)
(0.0166118 0.0209678 0)
(0.0134207 0.0223705 0)
(0.01048 0.0234865 0)
(0.00786821 0.0243328 0)
(0.00563178 0.0249443 0)
(0.00377757 0.025364 0)
(0.00227409 0.0256337 0)
(0.00105737 0.0257887 0)
(3.82146e-05 0.0258554 0)
(-0.000889564 0.0258494 0)
(-0.00183978 0.0257746 0)
(-0.00292377 0.025623 0)
(-0.00424106 0.0253763 0)
(-0.00587131 0.0250071 0)
(-0.00786729 0.0244798 0)
(-0.0102483 0.0237528 0)
(-0.0129942 0.0227834 0)
(-0.0160453 0.0215389 0)
(-0.0193122 0.0200063 0)
(-0.0226876 0.018191 0)
(-0.0260534 0.0161149 0)
(-0.0292889 0.0138179 0)
(-0.0322822 0.0113556 0)
(-0.0349397 0.00879346 0)
(-0.0371924 0.00619795 0)
(-0.038998 0.00362798 0)
(-0.0403372 0.00112662 0)
(-0.0412062 -0.0012813 0)
(-0.0416088 -0.00358365 0)
(-0.0415543 -0.00577284 0)
(-0.0410601 -0.00784087 0)
(-0.0401547 -0.00977968 0)
(-0.0388777 -0.0115856 0)
(-0.037275 -0.013263 0)
(-0.0353922 -0.0148239 0)
(-0.0332697 -0.016283 0)
(-0.0309407 -0.0176505 0)
(-0.0284327 -0.0189264 0)
(-0.0257695 -0.0200948 0)
(-0.0229743 -0.0211197 0)
(-0.020072 -0.0219401 0)
(-0.0170923 -0.0224651 0)
(-0.0140728 -0.0225682 0)
(-0.011065 -0.0220839 0)
(-0.00814176 -0.0208103 0)
(-0.00540581 -0.0185222 0)
(-0.00300546 -0.0150005 0)
(-0.00116741 -0.0100863 0)
(-0.000101496 -0.00376706 0)
(0.000109745 -0.00426723 0)
(0.00121159 -0.0112576 0)
(0.00309215 -0.0165864 0)
(0.00553103 -0.0203406 0)
(0.00829719 -0.0227431 0)
(0.0112443 -0.0240613 0)
(0.014275 -0.0245528 0)
(0.0173225 -0.0244375 0)
(0.0203383 -0.0238878 0)
(0.023285 -0.0230309 0)
(0.0261303 -0.021956 0)
(0.0288441 -0.0207231 0)
(0.0313985 -0.0193685 0)
(0.0337657 -0.0179093 0)
(0.035916 -0.0163462 0)
(0.037815 -0.0146666 0)
(0.0394207 -0.0128494 0)
(0.0406823 -0.0108724 0)
(0.041543 -0.00872149 0)
(0.0419485 -0.006397 0)
(0.0418579 -0.00391218 0)
(0.0412482 -0.00128478 0)
(0.0401115 0.00147 0)
(0.038448 0.00433724 0)
(0.0362629 0.00729105 0)
(0.0335739 0.0102818 0)
(0.0304243 0.0132334 0)
(0.026892 0.0160537 0)
(0.0230893 0.018649 0)
(0.0191563 0.0209367 0)
(0.01525 0.0228563 0)
(0.0115286 0.0243763 0)
(0.00813729 0.0254913 0)
(0.00520271 0.0262189 0)
(0.0028241 0.0266077 0)
(0.00105423 0.0267365 0)
(-0.000112961 0.0266953 0)
(-0.000737955 0.0265674 0)
(-0.000925446 0.0264221 0)
(-0.000814255 0.0263105 0)
(-0.000566432 0.0262625 0)
(-0.000354472 0.0262851 0)
(-0.000347137 0.0263619 0)
(-0.000696435 0.0264557 0)
(-0.00152725 0.0265118 0)
(-0.00292858 0.0264593 0)
(-0.0049443 0.0262139 0)
(-0.0075615 0.0256847 0)
(-0.0107074 0.0247964 0)
(-0.0142675 0.0235088 0)
(-0.0181043 0.0218099 0)
(-0.0220629 0.0197123 0)
(-0.0259801 0.0172575 0)
(-0.0297008 0.0145163 0)
(-0.0330928 0.0115779 0)
(-0.036056 0.0085384 0)
(-0.0385269 0.00548614 0)
(-0.0404746 0.00248659 0)
(-0.0418872 -0.00042325 0)
(-0.0427591 -0.00322489 0)
(-0.0430892 -0.00590326 0)
(-0.0428872 -0.00843856 0)
(-0.0421815 -0.0108084 0)
(-0.04102 -0.0129975 0)
(-0.0394624 -0.0150059 0)
(-0.0375688 -0.016849 0)
(-0.0353911 -0.0185486 0)
(-0.0329712 -0.0201228 0)
(-0.0303429 -0.0215768 0)
(-0.0275354 -0.0228975 0)
(-0.0245768 -0.0240486 0)
(-0.0214971 -0.024966 0)
(-0.0183302 -0.0255526 0)
(-0.0151167 -0.0256717 0)
(-0.0119102 -0.0251403 0)
(-0.00878543 -0.0237293 0)
(-0.00584988 -0.0211753 0)
(-0.00326257 -0.0172118 0)
(-0.00127223 -0.0116299 0)
(-0.000112922 -0.00437633 0)
(0.000123633 -0.00490403 0)
(0.00133754 -0.0128509 0)
(0.00339876 -0.0188506 0)
(0.00605522 -0.0230397 0)
(0.00904947 -0.0257002 0)
(0.0122234 -0.0271522 0)
(0.0154757 -0.0276926 0)
(0.0187389 -0.0275679 0)
(0.0219639 -0.0269651 0)
(0.0251097 -0.0260179 0)
(0.0281381 -0.0248189 0)
(0.0310118 -0.0234294 0)
(0.0336955 -0.0218873 0)
(0.036155 -0.0202088 0)
(0.038354 -0.0183909 0)
(0.0402514 -0.0164145 0)
(0.0417961 -0.0142489 0)
(0.0429241 -0.0118625 0)
(0.0435613 -0.00923914 0)
(0.0436389 -0.00638983 0)
(0.0431109 -0.00334824 0)
(0.0419624 -0.000153291 0)
(0.0402021 0.00316658 0)
(0.0378458 0.00659086 0)
(0.0349091 0.0100859 0)
(0.0314189 0.0135811 0)
(0.0274359 0.0169654 0)
(0.0230686 0.0201063 0)
(0.0184706 0.0228756 0)
(0.0138291 0.0251662 0)
(0.00935037 0.0269084 0)
(0.00523632 0.0280802 0)
(0.00166374 0.0286968 0)
(-0.00121423 0.0288002 0)
(-0.00327298 0.0284797 0)
(-0.00445131 0.0278785 0)
(-0.00477331 0.0271532 0)
(-0.00433586 0.026443 0)
(-0.00329105 0.0258616 0)
(-0.00183381 0.0254927 0)
(-0.000189199 0.0253858 0)
(0.00140386 0.0255516 0)
(0.00271203 0.0259615 0)
(0.00352486 0.0265533 0)
(0.00366675 0.0272362 0)
(0.00300602 0.027894 0)
(0.00146605 0.0283848 0)
(-0.00095197 0.0285476 0)
(-0.00415774 0.028245 0)
(-0.00800707 0.0274031 0)
(-0.0123339 0.0259876 0)
(-0.0169462 0.0239926 0)
(-0.0216324 0.0214577 0)
(-0.026187 0.0184705 0)
(-0.0304324 0.0151508 0)
(-0.0342312 0.0116334 0)
(-0.0374956 0.00804756 0)
(-0.0401833 0.0044887 0)
(-0.0422746 0.00100621 0)
(-0.0437503 -0.00237814 0)
(-0.0445907 -0.00564137 0)
(-0.0447899 -0.008746 0)
(-0.0443721 -0.0116452 0)
(-0.0433944 -0.0143036 0)
(-0.0419344 -0.0167131 0)
(-0.0400701 -0.0188939 0)
(-0.0378669 -0.0208792 0)
(-0.0353751 -0.0226973 0)
(-0.0326347 -0.0243608 0)
(-0.0296808 -0.0258597 0)
(-0.0265473 -0.0271572 0)
(-0.0232704 -0.0281866 0)