/*--------------------------------*- C++ -*----------------------------------*\
| =========                 |                                                 |
| \\      /  F ield         | OpenFOAM: The Open Source CFD Toolbox           |
|  \\    /   O peration     | Version:  2412                                  |
|   \\  /    A nd           | Website:  www.openfoam.com                      |
|    \\/     M anipulation  |                                                 |
\*---------------------------------------------------------------------------*/
FoamFile
{
    version     2.0;
    format      ascii;
    arch        "LSB;label=32;scalar=64";
    class       volScalarField;
    location    "4.05";
    object      alpha.gasoline;
}
// * * * * * * * * * * * * * * * * * * * * * * * * * * * * * * * * * * * * * //

dimensions      [0 0 0 0 0 0 0];

internalField   nonuniform List<scalar> 
6400
(
1
1.00001
1
0.999999
0.999998
0.999998
0.999999
1
1
1
0.999999
0.999999
1
0.999999
0.999999
1
0.999999
0.999999
1
1
1
1
1
1
1
1
1
1
1
1
1
1
1
1
1
1
1
1
1
1
1
0.999999
0.999999
1
1
1
1
1
1
1
1
1
1
1
1
1
1
1
1
1
1
1
0.999999
0.999999
1
1
1
0.999999
0.999999
0.999999
0.999999
1
1
0.999999
0.999999
0.999999
1
1
1
1
0.999991
0.999998
1
1
0.999999
0.999998
0.999998
0.999999
0.999999
1
0.999999
0.999999
0.999999
0.999999
0.999999
0.999999
0.999999
0.999999
1
1
1
1
1
1
1
1
1
1
1
1
1
1
1
1
1
1
1
1
1
0.999999
0.999999
0.999999
0.999999
1
1
1
1
1
1
1
1
1
1
1
1
1
1
1
1
1
0.999999
0.999999
0.999999
1
0.999999
0.999999
0.999998
0.999998
0.999998
1
1
1
0.999999
0.999998
0.999999
0.999999
0.999999
1
0.999998
1
0.999999
0.999998
0.999999
0.999999
0.999999
0.999999
0.999999
1
0.999999
0.999999
0.999999
0.999999
1
1
0.999999
0.999999
0.999999
0.999999
1
0.999999
0.999998
0.999999
1
1
1
1
1
1
1
1
1
1
1
1
1
1
1
1
1
1
1
1
1
1
1
1
1
1
1
1
1
1
1
1
1
1
1
1
1
1
1
1
1
0.999999
0.999999
0.999998
0.999998
0.999998
1
1
1
0.999999
0.999999
1
1
0.999999
1
0.999999
0.999999
0.999999
1
1
0.999999
0.999999
0.999999
0.999999
1
1
0.999999
0.999999
1
1
1
1
0.999999
0.999999
1
1
1
1
1
1
1
1
1
1
1
1
1
1
1
1
1
1
1
1
1
1
1
1
1
1
1
1
1
1
1
1
1
1
1
1
1
1
1
1
1
1
1
1
1
1
0.999999
0.999999
0.999999
0.999999
1
1
1
1
0.999999
0.999999
1
1
0.999999
1
1
0.999999
1
1
1
1
0.999999
0.999999
0.999999
1
1
1
0.999999
1
1
1
0.999999
0.999999
1
1
1
1
1
1
1
1
1
1
1
1
1
1
1
1
1
1
1
1
1
1
1
1
1
1
1
1
1
1
1
1
1
1
1
1
1
1
1
1
1
1
1
1
1
1
1
1
0.999999
0.999999
1
1
1
1
1
0.999999
0.999999
1
1
1
1
1
0.999999
1
1
1
1
1
1
1
1
1
1
1
0.999999
1
1
1
1
1
1
1
1
0.999999
1
1
1
1
1
1
1
1
1
1
1
1
1
1
1
1
1
1
1
1
1
1
1
1
1
1
1
1
1
1
1
0.999999
0.999999
0.999999
0.999999
1
1
1
1
1
1
1
1
1
1
1
1
1
1
1
0.999999
0.999999
0.999999
1
1
0.999999
1
1
1
1
1
1
1
1
1
1
1
1
1
1
0.999999
1
1
1
0.999999
0.999998
0.999999
1
1
1
1
1
1
1
1
1
1
1
1
1
1
1
1
1
1
1
1
1
1
1
1
1
1
1
1
1
1
1
1
1
1
1
0.999999
1
1
1
1
1
1
1
1
1
1
1
1
1
1
1
1
1
0.999999
0.999999
1
1
0.999999
0.999999
1
1
1
0.999999
1
0.999999
1
1
1
1
1
1
1
1
1
1
1
1
1
0.999999
1
1
1
1
0.999999
1
1
1
1
1
1
1
1
0.999999
1
1
1
1
1
1
1
1
1
1
1
1
1
1
1
1
1
1
1
1
1
1
1
1
1
1
1
1
1
1
1
1
1
1
1
1
1
1
1
1
0.999999
1
1
1
0.999999
1
1
0.999999
1
0.999999
1
0.999999
1
1
1
1
1
1
1
1
1
1
1
1
1
1
1
1
1
1
0.999999
1
1
1
1
1
1
0.999999
0.999999
0.999999
1
1
1
1
1
1
1
1
1
1
1
1
1
1
1
1
1
1
1
1
1
1
1
1
1
1
1
1
1
1
1
1
1
1
1
1
1
1
1
1
1
1
1
1
1
1
1
1
1
1
0.999999
1
1
1
1
1
1
1
1
1
1
1
1
1
1
1
1
1
1
1
1
1
1
1
1
0.999999
0.999999
0.999999
1
1
1
1
1
1
1
1
1
1
1
1
1
1
1
1
1
1
1
1
1
1
1
1
1
1
1
1
1
1
1
1
1
1
1
1
1
1
1
1
1
1
1
1
1
1
1
1
0.999999
1
0.999999
1
0.999998
0.999999
1
1
1
1
1
1
0.999999
1
1
1
0.999999
1
1
1
1
1
1
1
1
1
0.999999
0.999999
1
1
1
1
0.999999
0.999999
0.999999
0.999999
1
1
1
1
1
1
1
1
1
1
1
1
1
1
1
1
1
1
1
1
1
1
1
1
1
1
1
1
1
1
1
1
1
1
1
1
1
1
1
1
1
1
1
0.999999
0.999999
1
0.999999
0.999999
1
0.999999
1
1
1
1
1
1
1
1
1
1
1
1
1
1
1
1
1
1
1
1
1
1
1
1
1
1
1
1
1
1
1
1
1
1
1
1
1
1
1
1
1
1
1
1
1
1
1
1
1
1
1
1
1
1
1
1
1
1
1
1
1
1
1
1
1
1
1
1
1
1
0.999999
1
1
0.999999
1
0.999999
0.999999
1
1
1
1
1
1
1
1
1
1
1
1
1
1
1
1
1
1
0.999999
1
1
1
1
1
1
1
1
1
1
1
1
1
1
1
1
1
1
1
1
1
1
1
1
1
1
1
1
1
1
1
1
1
1
1
1
1
1
1
1
1
1
1
1
1
1
1
1
1
1
1
1
1
1
1
1
1
1
1
0.999976
0.99994
0.999982
1
1
1
1
0.999997
0.999875
0.999902
0.999983
1
1
1
1
1
1
1
1
1
0.999999
1
1
1
1
1
1
1
1
1
1
1
1
1
1
1
1
1
1
1
1
1
1
1
0.999999
0.999999
0.999999
1
1
1
1
1
1
1
1
1
1
1
1
1
1
1
1
1
1
1
1
1
1
1
1
1
1
1
1
1
1
1
1
0.999917
0.999378
0.999268
0.999974
1
1
1
1
0.999962
0.999585
0.999585
0.999826
1
1
1
0.999999
0.999999
0.999999
1
1
0.999999
0.999999
1
1
1
1
1
1
1
1
1
1
1
1
1
1
1
1
1
1
1
1
1
1
1
0.999999
1
1
1
1
1
1
1
1
1
1
1
1
1
1
1
1
1
1
1
1
1
1
1
1
1
1
1
1
1
1
1
1
1
0.999983
0.999316
0.999058
0.999058
0.999917
1
1
1
0.999999
0.999894
0.999624
0.999585
0.999874
1
1
0.999999
0.999999
0.999999
1
1
1
1
1
1
1
1
1
0.999999
0.999999
0.999999
1
1
1
1
1
1
1
1
1
1
1
1
1
1
1
1
1
1
1
1
1
1
1
1
1
1
1
1
1
1
1
1
1
1
1
1
1
1
1
1
1
1
1
1
1
1
1
1
1
1
1
0.999721
0.999089
0.999298
0.999958
0.999999
1
0.999991
0.999982
0.999881
0.999937
0.999947
0.999998
0.999999
0.999999
0.999999
1
1
1
1
1
1
1
1
1
1
1
1
1
1
1
1
1
1
1
1
1
1
1
1
1
1
1
1
1
1
1
1
1
1
1
1
1
1
1
1
1
1
1
1
1
1
1
1
1
1
1
1
1
1
1
1
1
1
1
1
1
1
1
1
1
0.999999
0.999935
0.99993
0.999945
0.999986
0.999993
0.99989
0.999812
0.999784
0.999891
0.999965
0.999998
1
1
1
1
1
1
1
1
1
1
1
1
1
1
1
1
1
1
1
1
1
0.999999
0.999999
0.999998
0.999998
0.999999
0.999999
0.999999
1
1
1
1
0.999999
1
1
1
1
1
1
1
1
1
0.999999
0.999999
0.999999
0.999999
0.999999
0.999999
1
1
1
1
1
1
1
1
1
1
1
1
1
1
1
1
1
1
1
1
0.999998
0.999961
0.999899
0.999862
0.999844
0.999912
0.907703
0.891945
0.924842
0.961293
0.990139
0.999867
0.999984
1
1
1
1
1
1
1
1
1
1
1
1
1
1
1
1
1
0.999999
0.999987
0.999962
0.999935
0.999919
0.999917
0.999927
0.999944
0.999959
0.999972
0.99998
0.999986
0.99999
0.999993
0.999994
0.999995
0.999995
0.999996
0.999995
0.999994
0.999991
0.999987
0.999982
0.999975
0.999964
0.999949
0.999933
0.999924
0.99993
0.999953
0.999981
0.999999
1
1
1
1
1
1
1
1
1
1
1
1
1
1
1
1
0.999997
0.999986
0.999948
0.993077
0.965187
0.927127
0.891547
0.902982
0.18065
0.183629
0.2293
0.314724
0.446034
0.599597
0.705069
0.79073
0.866412
0.954576
1
1
1
1
1
1
0.999811
0.972834
0.932604
0.898182
0.878652
0.862767
0.837668
0.807338
0.789116
0.78244
0.788389
0.802845
0.823601
0.849348
0.876908
0.902883
0.92522
0.943219
0.95687
0.966907
0.974088
0.979023
0.982195
0.98396
0.984604
0.984189
0.982479
0.979229
0.974036
0.966318
0.955174
0.939529
0.918369
0.891477
0.859628
0.826042
0.795489
0.772433
0.759771
0.762003
0.776563
0.807489
0.840579
0.86553
0.890738
0.928467
0.973358
1
1
1
1
1
1
1
0.96116
0.88047
0.800664
0.714027
0.612801
0.469763
0.331527
0.238536
0.186472
0.174268
1.71677e-06
1.71549e-06
1.73878e-06
1.808e-06
1.8559e-06
6.64962e-05
0.0353639
0.0969083
0.176949
0.29662
0.493965
0.731415
0.892813
0.92623
0.88597
0.762034
0.597631
0.416874
0.286579
0.200738
0.139211
0.0945818
0.0668201
0.0556386
0.0539598
0.0558997
0.062535
0.0744919
0.0920626
0.115717
0.144964
0.178257
0.213664
0.249651
0.284451
0.316551
0.3445
0.36749
0.385006
0.39595
0.399516
0.395601
0.384228
0.366035
0.341966
0.312348
0.277687
0.239332
0.199391
0.160281
0.124383
0.0940902
0.0708784
0.0547358
0.0454323
0.0418383
0.0427515
0.0518355
0.0766094
0.118966
0.181754
0.271372
0.402232
0.576521
0.748965
0.865883
0.91528
0.893283
0.749256
0.508394
0.306687
0.180688
0.0997182
0.0389193
0.00262085
2.69966e-07
2.69497e-07
2.6896e-07
2.68889e-07
2.6889e-07
1.71437e-06
1.7151e-06
1.78686e-06
1.8559e-06
2.17293e-06
2.7848e-06
3.98266e-06
4.07625e-06
4.07315e-06
4.07315e-06
0.00533775
0.0409288
0.131909
0.249539
0.26201
0.17325
0.0570514
0.00597266
0.00155966
0.000700599
0.000348593
0.000267085
0.000271143
2.26462e-05
5.35065e-07
7.74039e-08
3.18132e-08
1.72147e-08
1.1117e-08
4.67139e-09
9.75293e-10
3.21069e-10
1.87344e-10
1.11068e-10
8.8573e-11
8.77405e-11
8.8573e-11
8.77405e-11
1.05402e-10
1.375e-10
1.61883e-10
1.30842e-10
1.22255e-10
1.06968e-10
9.23997e-11
9.15978e-11
9.1643e-11
9.16198e-11
9.1643e-11
9.40659e-11
1.44768e-10
6.25676e-10
1.72912e-09
3.54455e-09
1.29429e-08
4.09551e-08
2.7261e-06
0.000156994
0.000254439
0.000259373
0.000490853
0.00121501
0.00389161
0.0437682
0.146752
0.238797
0.244634
0.141004
0.045338
0.00748233
3.07957e-07
2.96448e-07
2.88978e-07
2.85529e-07
2.81191e-07
2.69965e-07
2.69966e-07
2.69517e-07
2.68893e-07
2.68877e-07
1.71768e-06
1.76025e-06
1.12264e-05
7.08898e-05
9.92716e-05
6.20689e-05
0.000101949
0.000207706
0.000118486
2.47998e-05
2.99829e-05
2.29995e-05
2.73779e-05
0.000122871
0.000981684
0.00133352
0.000915561
0.00039455
0.000179823
0.000154652
0.000109945
8.32042e-05
0.000102033
0.00019366
3.67682e-05
5.35065e-07
7.74039e-08
3.18132e-08
6.2281e-08
1.63753e-07
1.22825e-07
1.69612e-08
2.43014e-09
2.56456e-09
1.04831e-09
1.34226e-10
1.14247e-10
1.40155e-09
2.27338e-09
2.7793e-09
2.46511e-09
2.94959e-09
8.43993e-10
7.02251e-10
8.73478e-10
1.19296e-10
9.15978e-11
9.1643e-11
9.34762e-11
1.1387e-09
1.69019e-08
2.84834e-08
3.54455e-09
1.29429e-08
4.09569e-08
4.58387e-06
8.38648e-05
0.000108204
3.32441e-05
2.48087e-05
3.86635e-05
9.7255e-05
0.000256626
0.000593256
0.00096621
0.000863976
7.90798e-05
7.80552e-05
6.73498e-05
4.81149e-05
4.28926e-05
1.28384e-05
9.0222e-06
2.6311e-06
1.57254e-06
4.03005e-07
3.01261e-07
2.80436e-07
2.69147e-07
2.68893e-07
1.7604e-06
1.23807e-05
0.000168098
0.000206533
0.000207187
0.000207841
0.000207841
0.000207841
0.00014888
2.79415e-05
2.15179e-05
2.15315e-05
2.37884e-05
3.02643e-05
9.29885e-05
0.000160483
0.000155301
0.000113868
0.000105941
0.000181364
0.000115404
6.59637e-05
3.35926e-05
7.44174e-05
6.60237e-05
1.03521e-05
6.39157e-07
2.97821e-07
5.7979e-07
5.94935e-07
3.8002e-07
2.25415e-08
2.60726e-09
4.01618e-09
2.76045e-09
4.0997e-10
5.72652e-11
6.48429e-09
1.06969e-08
8.45698e-09
2.88225e-09
3.49892e-09
3.74451e-09
2.34636e-09
2.16994e-09
2.03134e-10
1.23695e-10
9.21644e-11
9.65746e-11
2.69714e-10
4.09295e-08
1.08185e-07
9.25472e-08
1.12738e-07
3.53244e-07
2.03844e-05
4.70605e-05
9.91347e-06
5.37509e-06
9.13621e-06
1.44097e-05
2.2292e-05
4.23635e-05
8.51525e-05
0.000145927
0.000132288
7.10511e-05
7.19221e-05
0.000174084
0.000183172
4.81795e-05
7.21799e-05
0.000130015
0.000128247
4.577e-06
8.85295e-07
7.81621e-07
8.30037e-07
3.09674e-07
2.69153e-07
3.53651e-06
0.000148652
0.000201567
0.000204488
0.000196916
0.000149987
4.88389e-05
7.9754e-05
7.14863e-05
2.11479e-05
2.11264e-05
2.13289e-05
2.15315e-05
2.2691e-05
2.67741e-05
6.18961e-05
0.000102526
0.000105199
0.000101299
0.000163005
0.000163914
0.000158439
2.99117e-05
1.06194e-05
1.33336e-05
7.26393e-06
5.61403e-07
7.35126e-08
8.73754e-08
1.32259e-07
1.08965e-07
2.80793e-08
1.14781e-10
3.12796e-11
1.58005e-10
1.64984e-10
5.69285e-11
2.83368e-11
7.7428e-11
1.82791e-10
1.76875e-09
4.78358e-09
4.2916e-09
6.36501e-10
3.68139e-10
1.92911e-10
1.28959e-10
6.93865e-11
7.65752e-11
1.97267e-09
6.38134e-09
6.56373e-09
2.11364e-09
1.53031e-08
1.39987e-06
3.98203e-06
2.36263e-06
6.55009e-07
1.7225e-06
6.33194e-06
9.36818e-06
1.68021e-05
2.97734e-05
5.34269e-05
8.6265e-05
7.71502e-05
5.47307e-05
5.38506e-05
0.000189987
0.000481203
0.000424568
6.09695e-05
6.18812e-05
0.000164515
0.00012745
0.000123903
4.62103e-05
9.0756e-06
4.53835e-07
2.71093e-07
1.3114e-05
0.000196446
0.0002007
0.000134713
2.08989e-05
2.08858e-05
2.09984e-05
2.15396e-05
2.11479e-05
2.11479e-05
2.11882e-05
2.17731e-05
2.34725e-05
2.35129e-05
2.47006e-05
6.02604e-05
0.000122009
0.000123355
9.91469e-05
0.000113836
0.000163387
0.000161729
0.00011046
6.89642e-06
1.23702e-06
7.2065e-07
1.20958e-07
1.88409e-08
4.10361e-09
7.6273e-10
4.99395e-10
4.45618e-10
1.64533e-10
2.52407e-11
3.82388e-12
3.5895e-12
7.12831e-12
3.65482e-11
1.15818e-10
2.44517e-10
9.78522e-10
3.48924e-09
2.17115e-09
3.24938e-10
2.54917e-10
2.05205e-10
1.48776e-10
6.42832e-11
1.51262e-11
6.53216e-12
8.94264e-12
3.03657e-11
1.63516e-10
1.74e-08
6.80431e-08
1.30815e-08
4.61415e-08
2.3047e-07
7.13168e-07
2.7512e-06
6.0267e-05
0.000110526
0.000109907
0.000104763
7.68811e-05
6.95135e-05
5.38506e-05
5.39329e-05
5.69073e-05
9.48058e-05
0.000381156
0.000451383
0.000457787
0.000316519
0.00045939
0.000497436
0.000335085
1.49722e-05
3.41998e-07
2.82019e-07
1.37694e-05
9.06419e-05
0.000154534
2.08989e-05
2.08819e-05
2.08989e-05
2.10728e-05
2.58026e-05
5.08841e-05
9.55986e-05
0.000103327
0.000103567
0.000103327
7.44825e-05
2.83648e-05
3.14803e-05
3.22358e-05
3.45894e-05
1.55588e-05
4.35157e-06
3.86955e-06
9.42514e-06
2.56095e-05
1.78917e-05
1.12943e-06
9.94895e-08
2.05808e-08
4.36743e-09
8.82523e-10
2.2201e-10
8.30001e-11
6.15646e-11
3.25537e-11
8.15482e-12
3.34788e-12
3.39106e-12
7.34037e-12
5.5194e-11
1.20635e-10
2.54581e-10
1.08071e-09
1.46359e-09
6.30723e-10
3.16367e-10
2.60742e-10
2.23881e-10
1.90554e-10
9.29879e-11
1.39069e-11
6.00266e-12
1.4878e-11
2.99673e-11
7.77287e-11
3.24319e-10
3.59893e-10
1.25887e-09
6.32267e-09
5.53461e-08
2.15256e-07
3.06627e-05
0.000110526
0.000110526
0.000110526
0.000107833
8.03031e-05
8.04432e-05
8.58566e-05
8.5896e-05
6.62026e-05
4.29844e-05
3.82733e-05
8.29351e-05
0.000507621
0.000508054
0.000508054
0.000504045
0.000443187
2.75092e-05
4.87206e-07
3.42043e-07
1.40487e-05
2.31496e-05
6.49911e-05
2.0897e-05
2.08989e-05
4.68352e-05
0.000173162
0.000181194
0.000180807
0.000107873
2.68973e-05
2.29178e-05
2.04093e-05
2.03645e-05
2.03645e-05
2.09933e-05
1.90887e-05
8.36683e-06
4.90212e-06
3.55784e-06
2.90027e-06
2.51506e-06
2.19526e-06
3.0852e-06
1.55867e-06
6.3052e-08
6.3948e-09
1.59082e-09
5.37836e-10
3.40552e-10
1.74879e-10
5.77411e-11
1.26508e-11
3.45733e-12
3.06594e-12
2.72622e-12
1.10138e-10
2.90759e-10
1.20937e-10
2.38131e-10
1.66997e-09
8.31574e-10
3.42157e-10
3.1798e-10
2.65696e-10
1.87419e-10
9.07019e-11
3.16596e-11
5.97208e-12
2.23224e-12
8.73867e-12
3.69942e-11
8.84668e-11
1.24598e-10
1.31584e-10
1.82418e-10
8.31159e-10
4.7709e-09
4.46847e-08
1.29144e-05
7.96531e-05
0.000105054
4.60169e-05
1.35104e-05
5.89126e-06
6.50286e-06
7.19684e-06
2.1029e-05
5.33583e-05
5.23358e-05
3.39839e-05
2.06371e-05
6.07022e-05
5.2976e-05
5.34175e-05
0.000241332
0.000179867
1.57883e-05
6.36744e-07
5.46019e-07
1.40487e-05
1.90025e-05
0.000142951
0.000189438
0.000213306
0.000212705
0.000138615
7.38888e-05
7.36812e-05
7.44223e-05
0.000109736
0.000186101
9.06576e-05
2.03645e-05
2.09933e-05
0.000107628
0.00016713
0.000108371
3.70272e-05
5.87896e-06
1.39718e-05
1.33792e-05
1.66134e-06
9.13499e-08
1.68093e-07
3.53856e-08
2.51089e-09
8.47552e-10
6.21953e-10
3.99308e-10
1.752e-10
4.52856e-11
7.49614e-12
2.54234e-12
2.7437e-12
2.72043e-12
6.2594e-11
1.64407e-10
2.69819e-09
2.67202e-09
2.98903e-09
5.0605e-10
3.22349e-10
3.17621e-10
4.08769e-10
1.72509e-10
8.93972e-11
2.46382e-11
4.00741e-12
1.6925e-12
5.20879e-12
2.89529e-11
7.59346e-11
1.11529e-10
1.17045e-10
8.48416e-11
7.82207e-11
3.44715e-10
4.0368e-08
1.53542e-06
6.10359e-06
1.4388e-05
5.73641e-06
4.97538e-06
5.0443e-06
5.54884e-06
6.28806e-06
8.11137e-06
8.00971e-06
9.42066e-06
1.02395e-05
9.01535e-06
9.08521e-06
9.1318e-06
9.07618e-06
9.21733e-06
9.29654e-05
6.04611e-05
4.71674e-06
6.37119e-07
1.42641e-05
8.03728e-05
0.000339884
0.0003383
0.000326241
8.846e-05
7.42357e-05
7.36039e-05
7.42357e-05
9.47201e-05
0.0004343
0.000504799
0.000216958
2.81628e-05
4.94139e-05
0.000202238
0.000207459
0.000212573
0.000221771
0.00011177
1.65059e-05
5.36892e-06
1.21509e-07
2.82529e-08
8.48797e-09
3.79169e-09
1.0304e-09
7.09659e-10
5.42629e-10
3.32518e-10
1.35752e-10
2.95687e-11
4.22005e-12
1.74047e-12
2.22766e-12
2.66998e-12
2.67569e-12
1.30925e-09
1.46214e-08
5.48356e-09
3.03733e-09
3.27176e-10
3.23331e-10
3.19657e-10
1.52033e-09
2.12415e-10
1.07825e-10
2.78288e-11
3.56657e-12
9.50497e-13
1.77263e-12
1.16337e-11
3.63085e-11
5.59048e-11
5.9262e-11
4.43515e-11
2.95983e-11
6.49263e-11
1.39773e-09
3.94823e-09
5.31951e-08
1.48333e-06
1.46851e-06
1.32221e-06
4.05287e-06
1.79734e-05
1.75652e-05
8.71507e-06
8.11492e-06
8.42197e-06
8.72323e-06
8.81516e-06
9.10866e-06
9.0466e-06
8.9961e-06
9.07472e-06
9.25669e-05
9.91554e-05
3.72384e-05
8.25493e-07
1.65546e-05
0.000152275
0.000340545
0.000339884
0.000334293
8.00875e-05
7.46946e-05
7.42357e-05
9.14408e-05
0.000431542
0.000513479
0.000518661
0.000522023
0.000112282
7.9911e-05
0.000124055
0.000160474
0.000225113
0.000235418
0.000252371
0.000150147
1.27848e-06
1.26652e-07
1.61736e-08
2.75562e-09
8.01634e-10
4.43564e-10
3.93377e-10
3.08565e-10
1.85115e-10
6.9836e-11
1.38065e-11
1.8822e-12
9.97593e-13
2.11323e-12
2.83967e-12
2.76623e-12
7.23454e-09
1.57461e-08
4.06733e-09
1.95124e-09
3.31918e-10
3.25159e-10
1.36424e-08
2.43145e-10
1.86367e-10
1.5594e-10
3.25644e-11
2.80717e-12
2.83838e-13
2.15943e-13
1.39338e-12
5.05997e-12
9.90836e-12
1.28947e-11
1.42788e-11
1.51527e-11
2.58402e-11
3.23095e-10
1.16282e-08
1.18902e-07
2.42766e-07
3.68469e-07
5.75689e-07
2.99685e-05
4.35596e-05
4.22582e-05
1.71931e-05
8.48457e-06
8.72323e-06
8.93525e-06
1.01945e-05
9.0883e-06
9.12329e-06
9.06415e-06
9.65884e-06
8.80238e-05
9.66022e-05
1.23494e-05
1.47074e-06
2.32929e-05
0.000251202
0.000340758
0.000340545
0.000336112
0.000128754
7.49373e-05
0.000119796
0.000511324
0.000513479
0.000518661
0.000523269
0.000544761
0.000576848
0.000390631
8.23195e-05
7.68005e-05
5.93982e-05
0.000162623
0.00025544
0.000281772
7.90897e-05
3.91031e-06
1.41911e-07
1.36689e-08
1.5104e-09
2.05882e-10
1.06929e-10
8.69527e-11
5.4118e-11
2.09105e-11
4.17923e-12
6.10308e-13
5.96815e-13
2.46625e-12
3.54635e-12
2.86187e-12
9.96826e-09
1.57317e-08
1.31198e-09
1.1331e-09
3.38988e-10
2.86432e-08
8.24719e-08
1.27271e-10
1.7242e-10
1.53049e-10
2.59536e-11
1.80967e-12
8.68929e-14
8.68929e-14
8.76842e-14
5.59658e-13
2.05979e-12
7.6923e-12
1.27759e-11
2.24222e-11
2.50734e-10
1.13214e-08
5.27985e-08
1.96756e-07
3.68469e-07
5.75689e-07
3.05614e-05
4.35596e-05
4.35596e-05
4.35596e-05
1.96847e-05
9.93594e-06
9.35993e-06
4.16591e-05
8.58733e-05
6.17687e-05
9.19274e-06
9.17228e-06
1.10286e-05
7.50007e-05
9.1602e-05
1.63417e-05
1.94328e-06
1.94658e-05
0.00023734
0.000340545
0.000340856
0.000338415
0.000237617
8.61921e-05
0.000331492
0.000505582
0.000511324
0.000504521
0.000459205
0.000576848
0.000607078
0.000634834
0.000406157
5.56059e-05
3.78725e-05
3.18147e-05
4.87767e-05
0.000244381
0.000393042
0.000248737
8.897e-06
1.26435e-07
1.25481e-08
1.10282e-09
1.48647e-10
2.42857e-11
8.74122e-12
2.79299e-12
6.13012e-13
2.55642e-13
5.03257e-13
2.7962e-12
6.54447e-12
2.90139e-12
7.89184e-09
7.89264e-09
1.29086e-09
1.16223e-09
1.56696e-07
2.60285e-07
7.98345e-08
1.15493e-10
1.7283e-10
1.06769e-10
1.4372e-11
8.3199e-13
8.68929e-14
8.70632e-14
1.7948e-13
9.6952e-13
1.0459e-11
1.35192e-10
1.98341e-09
2.56113e-08
2.13324e-07
8.71909e-07
1.24945e-06
1.31068e-06
6.14046e-06
2.78796e-05
4.29874e-05
4.32442e-05
4.31836e-05
2.54908e-05
1.71306e-05
1.27688e-05
7.72875e-05
0.000436069
0.000467584
0.000470045
0.000332726
1.70051e-05
1.25441e-05
7.9324e-05
8.66758e-05
2.71604e-05
2.03324e-06
1.72052e-05
8.0607e-05
0.000289849
0.00033857
0.000336465
0.00015666
0.000194217
0.000495567
0.000500856
0.000505582
0.000208372
0.000162212
0.000290598
0.000634375
0.000646719
0.000634651
0.000172054
0.000167437
2.6636e-05
1.40358e-05
1.85963e-05
0.000448295
0.000456795
0.000197997
1.73587e-06
1.31609e-07
1.11791e-08
5.60272e-10
6.43607e-11
6.72893e-12
5.91311e-13
2.55972e-13
2.55642e-13
5.67854e-13
3.31094e-12
1.21497e-11
2.98538e-12
2.71465e-09
4.50625e-09
2.49342e-07
2.07411e-09
4.38955e-07
2.92557e-07
1.72063e-08
1.1102e-10
1.59061e-10
4.97572e-11
5.32216e-12
3.48745e-13
1.07576e-13
4.84745e-13
5.25588e-12
6.11112e-11
7.36452e-10
8.32384e-09
9.15728e-08
8.36357e-07
5.72519e-05
0.000187147
0.000199565
0.000153029
8.40499e-05
6.30707e-05
4.24822e-05
2.90439e-05
2.87494e-05
2.35821e-05
2.00397e-05
0.000184047
0.000457336
0.000467584
0.000470045
0.000470255
0.000470267
0.000184333
2.56876e-05
5.05343e-05
8.42242e-05
2.37503e-05
1.3767e-06
1.72286e-05
1.72286e-05
0.000164527
0.000303293
0.000328577
0.000137383
0.000137422
0.000372537
0.000495567
0.000389769
0.000156183
0.000157863
0.000162212
0.000269668
0.000651343
0.000646719
0.000633021
0.000388199
2.50194e-05
6.50663e-06
1.05186e-05
0.000229477
0.000475071
0.000487565
7.19584e-05
5.69415e-07
4.51555e-08
2.79064e-09
1.40084e-10
1.40489e-11
8.58269e-13
2.56996e-13
2.55642e-13
7.18926e-13
4.77562e-12
5.0734e-11
6.45545e-11
2.40186e-10
2.8788e-10
1.47266e-06
6.08625e-06
1.75457e-07
8.08779e-08
7.90018e-11
1.09314e-10
1.16613e-10
2.09377e-11
1.72071e-12
4.32741e-13
1.25962e-12
1.42809e-11
1.73862e-10
1.83249e-09
1.97395e-08
1.83885e-07
1.63476e-06
0.000168021
0.00061546
0.000679534
0.000676474
0.00043316
6.27129e-05
1.09393e-05
1.21112e-05
1.52962e-05
1.81099e-05
2.59646e-05
2.78565e-05
0.000378291
0.000451015
0.000464829
0.000470255
0.000470295
0.000470256
0.000435953
5.87094e-05
1.74725e-05
2.75312e-05
1.42734e-05
1.06182e-06
1.71789e-05
3.02449e-05
0.000389284
0.000351925
0.000329174
0.000133575
0.000130353
0.000132473
0.000262414
0.000397663
0.000156571
0.000154507
0.000158597
0.000498984
0.000652062
0.000651327
0.000639607
0.000131044
3.08347e-06
2.62103e-06
2.47602e-05
0.0002987
0.000488596
0.000490281
0.000263843
2.92638e-06
9.44409e-08
5.67856e-09
2.37858e-10
1.70265e-11
9.25691e-13
2.8216e-13
2.56996e-13
9.31821e-13
1.63245e-11
1.09839e-10
9.6681e-11
9.25964e-11
1.40113e-10
2.21864e-06
9.2898e-06
3.89113e-09
1.13462e-09
4.0774e-11
1.09089e-10
6.15528e-11
1.02708e-11
1.90766e-12
1.43523e-12
1.30149e-11
1.71047e-10
2.35119e-09
2.59771e-08
2.57664e-07
2.11454e-06
0.000148249
0.00071437
0.00072251
0.000708516
0.000539046
0.000118969
1.26841e-06
1.48604e-06
1.43027e-05
2.68785e-05
4.39648e-05
0.000216417
0.000351672
0.000368943
0.000190568
0.000128941
0.000409812
0.000470255
0.000470294
0.000469073
0.000120154
6.94462e-06
2.63024e-06
2.14274e-06
6.94787e-07
1.73317e-05
0.000102019
0.00042384
0.000436344
0.000170441
0.000130353
0.000129662
0.000129139
0.000132508
0.000143835
0.000146797
0.000150301
0.00015857
0.000652972
0.000652256
0.000652062
0.000199088
2.07072e-06
7.39177e-07
9.5131e-07
0.000188189
0.000487346
0.000490269
0.00049066
0.000399832
1.99545e-05
9.79572e-08
4.16722e-09
1.62467e-10
6.42396e-12
2.58139e-12
3.35732e-13
2.70709e-13
1.26228e-12
3.10409e-11
8.19995e-11
5.69434e-11
4.24352e-11
1.56216e-10
1.60029e-06
9.33598e-06
3.78812e-09
3.23495e-09
3.45388e-11
6.44708e-11
3.29505e-11
5.93466e-12
2.17269e-12
3.95514e-12
4.6578e-11
7.29523e-10
9.33161e-09
1.16516e-07
1.10901e-06
5.99691e-05
0.000628194
0.000760535
0.000736504
0.000351929
1.64442e-08
2.92079e-08
1.15134e-06
1.26841e-06
4.11857e-05
7.58469e-05
0.000423083
0.000558174
0.000542051
0.000159981
0.000128941
0.000126759
0.000239818
0.000467155
0.000469073
0.000465399
9.21224e-05
2.63037e-06
9.46884e-07
3.8687e-07
2.97118e-07
1.76455e-05
0.000173029
0.000436345
0.000439745
0.000161264
0.000129662
0.000129139
0.000128889
0.00016105
0.00015635
0.000159472
0.000156968
0.000333127
0.000653864
0.000653167
0.000652302
6.61434e-06
7.39177e-07
6.82849e-07
7.39177e-07
0.000156583
0.00048854
0.00049066
0.000490823
0.000486515
4.32309e-05
4.28393e-08
3.96636e-09
3.05435e-10
2.38472e-11
2.73016e-12
1.92123e-13
2.97194e-13
1.58319e-12
1.75765e-11
1.75043e-11
1.98513e-11
2.28601e-11
6.92895e-11
2.80785e-08
9.33882e-06
4.77159e-06
3.45388e-11
3.404e-11
3.79603e-11
2.0705e-11
3.72827e-12
3.26578e-12
8.15444e-12
9.96987e-11
1.57862e-09
2.4721e-08
3.08285e-07
3.02319e-06
0.000320045
0.000785984
0.000783858
0.000302765
1.64442e-08
1.5251e-08
1.54998e-08
2.19436e-07
1.96149e-06
1.76365e-05
6.2695e-05
0.000558173
0.000567858
0.000524955
0.000130356
0.000126759
0.000121281
0.000123177
0.000232774
0.000364475
0.000155936
2.77826e-05
2.07507e-06
4.70537e-07
2.97268e-07
2.69969e-07
0.000108131
0.000155068
0.000366447
0.000450414
0.000249469
0.000129946
0.000128778
0.000129139
0.000186912
0.000600631
0.000583962
0.000476199
0.000660168
0.000653864
0.000653864
0.000371414
8.97398e-06
4.93332e-07
6.8192e-07
1.08269e-06
1.85717e-05
0.000480999
0.000490822
0.000490822
0.000490823
3.7403e-05
8.28315e-08
5.84832e-09
2.679e-10
1.95611e-11
1.51933e-12
1.12562e-13
3.12401e-13
4.29843e-13
1.99465e-12
1.27835e-11
5.28609e-07
5.4689e-06
7.50704e-06
4.25444e-06
9.33882e-06
8.9783e-06
3.404e-11
3.39888e-11
4.0674e-11
1.45103e-11
2.04449e-12
2.28765e-12
8.77006e-12
1.12147e-10
2.04288e-09
3.52824e-08
4.5831e-07
1.74797e-05
0.000549418
0.000798023
0.000629874
1.16607e-07
1.53684e-08
1.53684e-08
1.52522e-08
1.54998e-08
2.06378e-08
5.56655e-08
5.52488e-06
0.000270796
0.000574098
0.000522036
0.000127497
0.00012199
0.000117983
9.42437e-05
6.60015e-05
3.8459e-05
7.84142e-06
2.12708e-06
2.03476e-06
3.19606e-07
2.69969e-07
2.61978e-07
0.000156411
5.11618e-05
0.000128392
0.00047324
0.000485415
0.000151357
0.00012943
0.000129019
0.000353774
0.000662855
0.000666311
0.000665194
0.000666314
0.000660168
0.000653489
0.000205452
5.18321e-07
1.85762e-07
5.85655e-07
2.8624e-06
0.000139089
0.000489046
0.000489819
0.000490823
0.00041572
7.09717e-08
2.72435e-09
1.30919e-09
7.04055e-11
8.81411e-12
4.58078e-13
1.12562e-13
1.56354e-13
5.06191e-13
2.0828e-11
1.13149e-09
4.43432e-06
1.26574e-05
1.28328e-05
1.28052e-05
6.27089e-06
2.7071e-06
3.39888e-11
3.39792e-11
4.20863e-11
1.11375e-11
9.15496e-13
2.01169e-12
5.44993e-12
6.08368e-11
1.49508e-09
2.71821e-08
4.00462e-07
3.51205e-05
0.000648644
0.000809254
0.000615397
6.2503e-07
1.54836e-08
1.52442e-08
1.54836e-08
1.62614e-08
2.34731e-08
1.5737e-07
8.86947e-06
0.000151036
0.000575997
0.000512477
0.000136153
0.000127523
0.000120233
0.00012188
0.000423958
2.95914e-05
2.89143e-06
1.37536e-06
4.50453e-07
3.7852e-07
4.19436e-07
2.60099e-07
0.000104244
9.11506e-06
0.00035848
0.000485415
0.000488459
0.000275509
0.000132211
0.00012943
0.000567647
0.000661258
0.000663864
0.000665594
0.000600618
0.000653592
0.000650809
0.000216954
1.85762e-07
3.45325e-08
1.52146e-07
4.55606e-07
0.000201479
0.000486743
0.000489046
0.000438473
1.35884e-05
3.89938e-09
4.30152e-10
1.46063e-11
2.13045e-12
2.84197e-12
1.06215e-13
9.92769e-14
2.28505e-13
9.07693e-13
2.84578e-11
1.18693e-09
4.01562e-06
1.28328e-05
1.28328e-05
1.28328e-05
8.80445e-06
4.13107e-11
3.45624e-11
3.39792e-11
4.16252e-11
6.45741e-12
3.44546e-13
1.35782e-12
7.47777e-12
2.82157e-11
5.447e-10
1.14197e-08
1.999e-07
3.24218e-05
0.00063915
0.000811265
0.000809254
0.000254444
1.70141e-08
1.54836e-08
1.62589e-08
1.75629e-08
3.62673e-08
4.43481e-07
2.79751e-05
0.000428662
0.000577446
0.000577452
0.000293149
0.000418914
0.000423993
0.000468153
0.00056487
0.000379125
5.46554e-05
8.26982e-05
3.98587e-07
4.05087e-07
5.05758e-07
2.59929e-07
7.72276e-06
7.92697e-06
0.000305246
0.000488459
0.000488459
0.000488459
0.000166371
0.0001322
0.000323742
0.000655471
0.000661258
0.00060377
0.00040043
0.000634676
0.000638618
8.50541e-05
3.41235e-08
5.06031e-10
8.08893e-10
6.02862e-09
5.22103e-05
0.000291663
0.000291275
8.83369e-06
1.02132e-07
-1.24893e-09
-1.74797e-10
2.64441e-12
1.0863e-12
5.07706e-13
2.00167e-14
7.76069e-14
4.87016e-13
1.02769e-12
1.7799e-11
1.41878e-08
1.04486e-06
3.30627e-06
1.03934e-05
1.28052e-05
7.65563e-06
1.3147e-10
4.80535e-11
3.94595e-11
3.37669e-11
2.56968e-12
1.68742e-13
6.79e-13
6.59913e-12
2.00891e-11
3.18463e-10
9.81484e-09
1.39661e-07
1.87832e-05
0.000556506
0.000810078
0.000811281
0.00080036
2.33842e-08
1.68854e-08
1.75627e-08
1.88988e-08
3.71866e-08
3.13674e-07
4.34851e-05
0.000577442
0.000577452
0.000577466
0.000577452
0.000577452
0.000577268
0.000575674
0.000571245
0.000566084
0.000405723
3.57361e-05
5.15514e-07
1.91268e-06
3.0088e-07
2.5911e-07
7.64512e-06
9.28851e-06
9.84652e-07
0.000408819
0.000488459
0.000486033
0.000467565
0.000178742
0.000201806
0.000264322
0.00055967
0.000339749
0.000369715
0.000592462
0.000403878
2.13714e-05
4.85709e-10
3.74866e-10
2.43504e-10
3.13582e-10
8.50098e-10
3.96911e-09
1.62516e-08
5.70981e-08
1.06995e-08
-2.91728e-10
-2.86461e-11
-1.24958e-12
5.77856e-13
5.5026e-14
1.84278e-14
5.88465e-14
6.57176e-13
3.91892e-12
1.05152e-10
6.53868e-09
5.62166e-09
6.22639e-08
6.59889e-06
1.27746e-05
2.14672e-06
5.01417e-11
5.33241e-11
4.839e-11
1.77872e-11
9.31185e-13
1.27465e-13
3.11275e-13
3.35778e-12
1.24174e-11
2.06421e-10
8.5102e-09
1.5267e-07
4.09972e-06
0.000331465
0.000810595
0.000809707
0.000808133
0.000157107
1.90636e-08
1.89707e-08
1.6997e-08
2.32809e-08
3.09824e-07
2.70413e-05
0.00049916
0.000577442
0.000577452
0.000577466
0.000577353
0.00057731
0.000577189
0.000575661
0.000571181
0.000559071
2.63224e-05
1.18707e-05
8.24701e-06
2.59111e-07
2.59192e-07
3.46657e-11
5.68746e-10
5.66749e-10
7.98941e-06
0.000171549
0.000483608
0.000469058
0.000454507
0.000327858
0.000295934
0.0003158
0.000320002
0.000541388
0.00056535
0.000394865
9.64432e-06
-1.28792e-09
1.97879e-10
2.43517e-10
2.43052e-10
2.10474e-10
8.86308e-10
3.56816e-09
1.34863e-09
9.8403e-10
-1.33425e-10
-5.57738e-12
8.51374e-14
1.11973e-13
8.52836e-15
1.60986e-14
8.13042e-14
7.94159e-13
3.64756e-12
1.29203e-11
4.38118e-11
6.89705e-10
5.10571e-07
8.2863e-06
7.17774e-06
1.62652e-10
1.40266e-11
2.27226e-11
4.26189e-11
6.27482e-12
6.32656e-13
1.10573e-13
1.8479e-13
1.9534e-12
1.02947e-11
3.81733e-11
4.74569e-10
2.65911e-09
5.00483e-08
5.67481e-05
0.000764053
0.000808133
0.00080777
6.72861e-05
2.15491e-08
1.99905e-08
1.01285e-08
1.20318e-08
1.77851e-07
4.9278e-06
0.000318442
0.00057729
0.000577107
0.000557448
0.000554834
0.000576259
0.000576437
0.000575806
0.000573486
0.000493795
2.04224e-05
3.76404e-05
1.67045e-06
4.57216e-07
1.27219e-05
3.46657e-11
3.46657e-11
4.04752e-10
7.26385e-10
3.30461e-09
4.73955e-05
0.00017161
0.000235879
0.000471397
0.000539796
0.000559254
0.000565058
0.000564978
0.000565015
0.000347925
5.56674e-06
-2.05623e-08
2.97523e-10
3.3403e-10
2.30511e-10
6.26326e-11
2.9603e-09
5.08726e-09
1.48685e-11
4.27969e-11
1.05322e-12
6.23226e-14
8.8943e-15
7.46742e-15
3.15329e-15
1.31254e-14
1.24146e-13
6.64751e-13
1.81492e-12
2.56067e-12
2.41549e-11
7.27113e-10
2.80202e-06
8.29716e-06
1.30257e-07
1.57737e-11
1.48547e-12
1.54369e-11
2.38905e-11
3.31892e-12
6.04185e-13
9.24586e-14
1.22411e-13
1.38039e-12
8.42534e-12
1.06054e-11
2.42033e-11
4.19562e-10
6.94627e-09
1.34852e-07
0.000591188
0.00080777
0.000747319
1.05965e-05