/*--------------------------------*- C++ -*----------------------------------*\
| =========                 |                                                 |
| \\      /  F ield         | OpenFOAM: The Open Source CFD Toolbox           |
|  \\    /   O peration     | Version:  2412                                  |
|   \\  /    A nd           | Website:  www.openfoam.com                      |
|    \\/     M anipulation  |                                                 |
\*---------------------------------------------------------------------------*/
FoamFile
{
    version     2.0;
    format      ascii;
    arch        "LSB;label=32;scalar=64";
    class       volScalarField;
    location    "5.2";
    object      alpha.oil;
}
// * * * * * * * * * * * * * * * * * * * * * * * * * * * * * * * * * * * * * //

dimensions      [0 0 0 0 0 0 0];

internalField   nonuniform List<scalar> 
6400
(
1
0.999998
0.999999
0.999999
0.999999
0.999999
0.999999
0.999999
0.999999
1
1
1
1
1
1
1
1
1
1
1
1
1
1
1
0.999999
0.999999
0.999998
0.999998
0.999998
0.999998
0.999998
0.999998
0.999998
0.999999
0.999999
0.999999
1
1
1
1
1
1
1
1
1
1
1
1
1
1
1
1
1
1
1
1
0.999999
0.999999
0.999999
0.999999
0.999999
0.999999
0.999999
1
1
1
1
1
1
1
1
1
1
1
1
1
1
1
1
1
0.999999
0.999997
0.999998
0.999998
0.999999
0.999999
0.999999
1
1
1
1
1
1
1
1
1
1
1
1
1
1
1
1
1
0.999999
0.999998
0.999997
0.999997
0.999997
0.999997
0.999997
0.999997
0.999998
0.999998
0.999999
1
1
1
1
1
1
1
1
1
1
1
1
1
1
1
1
0.999999
0.999999
0.999998
0.999998
0.999998
0.999998
0.999998
0.999999
0.999999
0.999999
0.999999
0.999999
1
1
1
1
1
1
1
1
1
1
1
1
1
1
1
1
1
0.999999
0.999998
0.999999
0.999999
0.999999
0.999999
0.999999
1
1
1
1
1
1
1
0.999999
0.999999
1
1
1
1
1
1
1
1
1
1
1
1
1
1
1
1
1
1
1
1
1
1
1
1
1
1
1
1
1
1
0.999999
0.999999
0.999999
0.999998
0.999998
0.999998
0.999998
0.999999
0.999999
0.999999
0.999999
0.999999
0.999999
0.999998
0.999999
0.999999
0.999998
0.999998
0.999999
1
1
1
1
0.999999
0.999999
0.999999
0.999999
0.999999
1
1
1
1
1
0.999999
0.999999
1
1
1
1
1
1
1
1
1
0.999999
1
1
0.999999
0.999998
0.999997
0.999998
0.999999
1
1
1
1
1
1
1
1
1
1
1
1
1
1
1
1
1
1
1
1
1
1
1
1
1
1
1
1
1
1
0.999999
0.999999
1
1
1
1
1
1
1
1
1
1
1
1
1
1
1
1
1
1
1
0.999999
1
1
1
1
1
0.999999
0.999999
1
0.999999
0.999997
1
1
1
1
1
0.999999
0.999999
0.999999
1
1
0.999999
1
1
1
0.999999
0.999997
0.999997
0.999997
0.999997
0.999997
0.999997
0.999998
0.999998
0.999999
0.999999
1
1
1
1
1
1
1
1
1
1
1
1
1
1
1
1
1
1
1
1
1
1
1
1
1
1
1
1
1
1
1
1
1
1
1
1
1
1
1
1
1
1
1
0.999999
0.999999
0.999999
1
1
1
1
0.999999
0.999999
0.999998
0.999996
0.999998
1
1
1
0.999999
0.999999
0.999999
0.999999
0.999999
1
1
0.999999
1
1
1
1
1
0.999999
0.999998
0.999998
0.999998
0.999998
0.999998
0.999998
0.999999
0.999999
1
1
1
1
1
1
1
1
1
1
1
1
1
1
1
1
1
1
1
1
1
1
1
1
1
1
1
1
1
1
1
1
1
1
1
1
1
1
1
1
1
0.999999
0.999998
0.999998
0.999999
0.999999
0.999999
1
1
1
0.999999
0.999999
0.999998
0.999997
1
1
0.999999
0.999999
0.999999
0.999999
0.999999
0.999999
0.999999
1
1
1
1
1
1
1
1
1
1
1
1
1
1
1
1
1
1
1
1
1
1
1
1
1
1
1
1
1
0.999999
0.999999
0.999999
0.999999
0.999999
0.999998
0.999997
0.999997
0.999997
0.999998
0.999999
0.999999
0.999999
1
1
1
1
1
1
1
1
1
1
1
1
0.999999
0.999999
0.999998
0.999998
0.999997
0.999997
0.999997
0.999998
0.999999
0.999999
1
1
1
1
1
0.999999
1
1.00001
1
0.999999
0.999999
0.999999
0.999999
1
1
0.999999
1
1
0.999999
0.999998
1
1
1
1
1
1
1
1
1
1
1
1
1
1
1
1
1
0.999999
0.999999
1
1
1
1
1
1
0.999999
0.999999
0.999999
0.999999
0.999999
0.999999
0.999998
0.999998
0.999998
0.999998
0.999999
0.999999
0.999999
0.999999
0.999999
0.999999
0.999999
0.999999
0.999999
0.999999
0.999999
0.999999
0.999999
0.999999
0.999998
0.999998
0.999997
0.999997
0.999998
0.999998
0.999998
0.999999
0.999999
1
1
1
1
1
0.999999
0.999999
1
1.00001
1
1
0.999999
1
1
1
1
1
0.999999
1
1
0.999998
0.999996
0.999996
0.999997
0.999998
0.999998
0.999998
0.999998
0.999999
0.999999
0.999999
0.999999
1
1
1
1
1
1
1
0.999999
0.999999
0.999999
1
1
1
1
1
1
1
1
1
1
1
1
1
1
1
1
1
1
1
1
1
1
1
1
1
1
1
1
1
0.999999
0.999999
0.999999
0.999999
0.999999
1
1
1
1
1
1
0.999999
0.999999
0.999999
0.999998
0.999999
1
1
0.999994
1
1
1
1
1
1
1
1
1
1
0.999999
0.999997
0.999997
0.999998
0.999998
0.999998
0.999998
0.999998
0.999999
0.999999
0.999999
0.999999
1
1
1
1
1
1
0.999999
0.999999
0.999998
0.999998
0.999998
0.999998
0.999999
0.999999
0.999999
0.999999
0.999999
0.999999
1
1
1
1
1
1
1
1
1
1
1
1
1
1
1
1
1
1
1
1
1
0.999999
0.999999
0.999998
0.999998
0.999999
1
1
1
1
1
1
0.999999
0.999999
0.999999
0.999999
1
1
0.999996
0.999996
1
1
1
1
1
1
1
1
1
1
1
1
1
1
1
1
1
1
1
1
1
1
1
1
1
1
1
1
0.999999
0.999999
0.999998
0.999998
0.999998
0.999998
0.999999
0.999998
0.999998
0.999998
0.999998
0.999998
0.999998
0.999998
0.999998
0.999998
0.999998
0.999998
0.999998
0.999998
0.999998
0.999998
0.999998
0.999998
0.999998
0.999997
0.999997
0.999998
0.999998
0.999999
1
1
1
0.999999
0.999999
0.999999
0.999999
0.999999
0.999999
1
1
1
1
0.999999
0.999999
0.999999
1
1
1
1
0.999995
1
1
1
1
1
0.999999
1
0.999999
0.999999
1
1
1
1
1
1
1
1
1
1
1
1
1
1
1
1
1
1
1
1
1
1
1
1
1
1
1
1
1
0.999999
0.999999
0.999999
0.999999
0.999999
0.999999
0.999999
0.999998
0.999999
0.999998
0.999998
0.999998
0.999998
0.999997
0.999997
0.999997
0.999997
0.999998
0.999998
0.999999
1
1
1
1
1
1
1
1
1
1
1
1
1
0.999999
0.999999
0.999999
0.999999
1
1
1
0.999997
1
1
1
1
1
0.999999
0.999997
0.999999
0.999996
0.999997
1
0.999999
0.999997
0.999997
0.999997
0.999998
0.999999
0.999999
0.999999
0.999999
0.999999
0.999999
1
1
1
1
0.999999
0.999999
0.999999
1
1
1
1
1
1
1
1
1
1
1
1
1
1
1
1
1
1
1
1
1
1
1
1
1
1
1
1
1
1
1
1
1
1
1
1
1
1
1
1
1
1
0.999999
0.999999
0.999998
0.999998
0.999999
1
1
0.999998
0.999995
1
0.999995
1
0.999997
0.999999
0.999997
1
0.999998
0.999995
0.999997
1
1
0.999998
0.999998
0.999998
0.999999
0.999999
0.999999
1
1
1
1
1
1
1
1
1
1
1
1
1
1
1
1
1
1
1
1
1
1
1
1
1
1
1
1
1
1
1
1
1
1
1
1
1
1
1
1
1
0.999999
0.999999
0.999998
0.999999
0.999999
0.999999
1
1
1
1
1
1
0.999999
0.999999
0.999999
1
1
1
1
0.999996
1
1
0.999996
0.999999
0.999998
1
0.999996
1
1
0.999998
1
1
1
1
1
1
1
1
1
1
1
1
1
1
1
1
1
1
1
0.999999
0.999999
0.999998
0.999998
0.999998
0.999998
0.999999
0.999999
1
1
1
1
1
1
1
1
1
1
1
1
1
1
1
1
1
0.999999
0.999999
0.999999
0.999998
0.999998
0.999997
0.999997
0.999998
0.999998
0.999998
0.999998
0.999998
0.999998
0.999999
0.999999
1
1
1
1
1
1
1
1
1
0.999999
0.999998
1
0.999994
1
0.999999
1
1
0.999999
1
1
1
1
1
1
1
1
1
0.999999
0.999999
0.999999
0.999999
1
0.999999
0.999999
0.999999
0.999999
0.999999
0.999999
0.999999
0.999999
0.999998
0.999998
0.999998
0.999999
0.999999
1
1
1
1
1
1
1
1
1
1
1
0.999999
0.999999
0.999999
0.999999
1
1
1
1
0.999999
0.999998
0.999998
0.999998
0.999999
1
1
0.999999
0.999999
0.999998
0.999997
0.999997
0.999998
0.999999
0.999999
0.999999
0.999999
0.999999
0.999999
1
1
1
1
1
1
0.999998
1
1
0.999998
1
1
1
1
1
1
1
1
1
1
0.999999
0.999998
0.999998
0.999998
0.999998
0.999998
0.999998
0.999998
0.999999
0.999999
0.999999
0.999999
1
1
1
1
1
1
1
1
1
1
1
1
1
1
0.999999
0.999999
0.999999
0.999999
0.999999
0.999998
0.999998
0.999998
0.999998
0.999998
0.999998
0.999998
0.999999
0.999999
0.999999
0.999999
1
1
1
1
1
1
1
1
1
1
1
1
1
1
1
1
1
1
1
1
1
1
1
0.999998
0.999998
1
0.999997
1.00001
0.999999
1
0.999999
0.999998
1
1
0.999999
0.999999
0.999999
0.999999
0.999999
0.999999
0.999999
0.999999
0.999999
0.999999
0.999999
0.999999
0.999999
1
1
1
1
1
1
1
1
1
1
1
1
1
1
1
1
1
0.999999
0.999999
0.999999
0.999999
0.999999
0.999998
0.999998
0.999998
0.999998
0.999998
0.999998
0.999998
0.999999
0.999999
0.999999
0.999999
1
1
1
1
1
1
1
1
1
1
1
1
1
1
1
1
1
0.999999
0.999999
1
1
1
0.999999
0.999999
1
1
0.999999
1
0.999998
1
1
1
1
1
1
1
1
1
1
1
1
1
1
1
1
1
1
1
1
1
1
1
1
1
1
1
1
1
1
0.999999
0.999999
0.999999
0.999999
0.999999
0.999998
0.999998
0.999998
0.999998
0.999997
0.999997
0.999997
0.999997
0.999997
0.999997
0.999997
0.999998
0.999998
0.999999
0.999998
0.999999
0.999999
1
1
1
1
1
1
1
1
1
1
1
1
1
1
1
1
1
1
1
1
1
1
1
1
1
1
1
1
0.909194
0.901179
0.90147
0.903437
0.904996
0.905893
0.90651
0.907163
0.907639
0.907926
0.908053
0.908052
0.907957
0.907483
0.906274
0.904948
0.904774
0.905594
0.906247
0.906578
0.906395
0.905479
0.903769
0.903463
0.906151
0.908553
0.909064
0.908933
0.90862
0.907589
0.905754
0.90362
0.90303
0.905925
0.909676
0.912519
0.915191
0.917239
0.917988
0.918851
0.91928
0.918129
0.91712
0.916249
0.913844
0.911762
0.908015
0.902648
0.901592
0.903229
0.905558
0.906991
0.90769
0.908027
0.908103
0.906351
0.903553
0.902582
0.904098
0.905665
0.906203
0.906078
0.905607
0.905048
0.904523
0.904682
0.90557
0.906831
0.907773
0.908119
0.908103
0.907947
0.907619
0.906999
0.906307
0.905524
0.904124
0.902214
0.901845
0.909412
0.161505
0.167092
0.172062
0.176152
0.1793
0.181646
0.183073
0.182535
0.182381
0.182314
0.182187
0.182003
0.182093
0.182581
0.183541
0.18424
0.184158
0.183936
0.183804
0.184196
0.185299
0.187252
0.189567
0.191563
0.189945
0.189514
0.190417
0.192315
0.194829
0.197992
0.201728
0.205622
0.208671
0.208755
0.207227
0.205673
0.204134
0.202977
0.202445
0.201969
0.201794
0.202353
0.202888
0.203394
0.204539
0.205781
0.207745
0.209791
0.208063
0.204274
0.200228
0.196666
0.193797
0.191582
0.190214
0.190224
0.191996
0.191257
0.188665
0.186293
0.184779
0.184121
0.184044
0.184336
0.18463
0.184856
0.185948
0.185325
0.184387
0.18386
0.183768
0.183721
0.183452
0.183704
0.183196
0.180873
0.177875
0.173952
0.169169
0.163667
3.24939e-06
2.9555e-06
2.90002e-06
2.59357e-06
2.63688e-06
3.15707e-06
0.000175819
0.000846775
0.00135699
0.0014504
0.00143553
0.00146152
0.00131837
0.00112525
0.00099585
0.000771104
0.000538571
0.000343196
0.000189983
7.99402e-05
3.40368e-05
3.41527e-05
3.15757e-05
3.24788e-05
3.16005e-05
3.75733e-05
4.72373e-05
5.5572e-05
4.52512e-05
3.16831e-05
1.62047e-05
3.96726e-06
2.18804e-07
2.19098e-08
7.00971e-09
6.43089e-09
6.21243e-09
6.14579e-09
6.14462e-09
6.1404e-09
6.1275e-09
6.11736e-09
6.10417e-09
6.10417e-09
6.05505e-09
6.16696e-09
9.57196e-09
6.34789e-08
6.50532e-07
8.95259e-06
2.48556e-05
3.98873e-05
5.10941e-05
4.17609e-05
2.99684e-05
2.18335e-05
2.17991e-05
2.18335e-05
3.78883e-05
4.50895e-05
9.74629e-05
0.000209082
0.000367563
0.000570886
0.000809326
0.00103977
0.000580359
0.000543291
0.000893139
0.00123024
0.00134944
0.00137345
0.00120493
0.000650413
1.63205e-05
2.30539e-06
2.11221e-06
1.83961e-06
1.68455e-06
3.09055e-06
5.84406e-07
1.63014e-06
1.22731e-06
6.81776e-07
6.11565e-07
6.4931e-07
0.000329648
0.00145186
0.0015664
0.00145628
0.00143131
0.00148178
0.00147697
0.00113738
0.00106195
0.00265081
0.00367134
0.00367151
0.0036657
0.00366774
0.0036678
0.00366774
0.00366739
0.00177013
0.00477803
0.00494904
0.00495395
0.0049527
0.00494176
0.00462112
0.00416651
0.00328778
0.00135675
2.18804e-07
2.19098e-08
7.0361e-09
6.62931e-08
2.63497e-08
6.14579e-09
6.14456e-09
7.61765e-09
7.30666e-09
6.71191e-09
6.06968e-09
5.98742e-09
9.45999e-09
6.34778e-08
0.000211996
0.00262447
0.00421278
0.00493344
0.00552345
0.00554752
0.00555323
0.00555273
0.00549424
0.00195131
0.00274471
0.00459508
0.00459532
0.00459539
0.00459532
0.00457737
0.00458924
0.00458924
0.00385969
0.000544131
0.000545521
0.00104206
0.00140608
0.0013474
0.00139294
0.00141412
0.000871965
5.28489e-06
3.04575e-07
2.82648e-07
2.89145e-07
4.28832e-07
5.35319e-07
5.84406e-07
5.83817e-07
6.68453e-07
6.19295e-07
5.81691e-07
5.26684e-07
5.57879e-05
1.42091e-05
9.92452e-05
0.000215675
0.00034336
0.000462132
0.000576001
0.000692487
0.000763492
0.000615089
0.000175659
0.000368467
0.00045781
0.000523707
0.000564485
0.000519652
0.000457817
0.000775472
6.2513e-05
1.79057e-05
1.70932e-05
1.40081e-09
3.55251e-10
3.20847e-10
3.18737e-10
3.18737e-10
3.18736e-10
1.93958e-05
4.21678e-06
1.27988e-08
3.36975e-08
3.52377e-08
2.58051e-08
6.17743e-09
8.29758e-09
1.10444e-08
9.4037e-09
6.59082e-09
5.943e-09
1.27339e-08
4.59485e-06
9.67984e-06
1.29138e-09
1.29135e-09
1.31763e-09
1.6091e-09
4.73769e-09
6.06337e-08
2.24774e-06
0.000176086
0.00125018
0.00106389
0.000422458
0.00052445
0.000516822
0.000449161
0.00035229
0.000226866
1.94192e-05
0.000236609
0.000780225
0.000782625
0.000720513
0.000496023
0.000348656
0.00021079
5.97559e-05
0.000114493
3.04547e-07
2.80735e-07
2.82648e-07
2.82547e-07
3.574e-07
4.26657e-07
5.84406e-07
1.10688e-05
1.50816e-05
3.2488e-06
5.26684e-07
5.08601e-07
5.26684e-07
2.68597e-06
2.16502e-07
5.38572e-08
1.57568e-08
4.3309e-09
2.64971e-09
9.20514e-07
3.13695e-06
2.21235e-09
1.86704e-09
1.5305e-09
1.5308e-09
1.5308e-09
1.53186e-09
1.53057e-09
1.54639e-09
8.60609e-06
2.81078e-05
2.81085e-05
1.13024e-05
3.45373e-10
9.83979e-10
3.60683e-10
3.20847e-10
3.18737e-10
7.82539e-06
1.11943e-05
1.39456e-06
1.74236e-08
6.29697e-08
3.31122e-07
4.63192e-07
8.83789e-08
8.30484e-09
2.55543e-08
2.74932e-08
9.52656e-09
5.841e-09
5.89439e-09
2.20655e-06
4.88401e-06
1.29135e-09
1.31763e-09
1.6091e-09
5.58397e-08
4.27377e-06
6.27454e-06
5.39887e-06
8.72587e-07
4.63674e-11
4.59484e-11
4.63674e-11
4.61889e-11
4.7753e-11
7.16151e-11
1.38256e-10
6.65197e-10
3.57679e-06
4.25241e-10
3.98045e-05
4.91232e-05
5.85715e-06
6.20332e-09
3.77943e-08
9.33618e-08
2.23136e-07
3.43413e-07
2.9704e-07
2.88482e-07
2.82648e-07
2.88941e-07
3.59584e-07
6.30011e-07
1.03253e-06
0.000113216
4.191e-05
5.35823e-07
5.07707e-07
5.08601e-07
4.27834e-07
2.59608e-07
1.06359e-07
1.79934e-08
4.59782e-09
2.64971e-09
2.3737e-09
2.23021e-09
2.21235e-09
2.20022e-09
2.06634e-09
1.90793e-09
3.8696e-09
1.55719e-08
1.74795e-08
1.74349e-08
1.29231e-08
2.0475e-11
2.0477e-11
2.25358e-11
2.15896e-11
1.98307e-10
1.56526e-09
4.02065e-10
3.62454e-10
3.22334e-10
7.26283e-06
4.13661e-07
2.16979e-07
1.211e-07
6.69484e-07
6.69018e-07
6.59851e-07
5.46478e-07
8.35911e-09
2.64009e-08
3.23184e-08
1.11241e-08
5.74338e-09
5.79239e-09
3.11818e-07
2.80474e-06
1.33775e-09
6.24123e-09
1.89208e-09
3.04249e-10
5.74444e-11
5.88293e-11
2.93101e-11
2.9313e-11
1.75861e-10
5.26909e-10
5.87186e-10
6.012e-11
7.16151e-11
1.06456e-07
2.41185e-07
2.3978e-07
9.89202e-08
4.25241e-10
4.25241e-10
4.7967e-10
6.46108e-10
9.9802e-10
7.37598e-09
2.41538e-08
7.72758e-08
2.23158e-07
3.45028e-07
8.21854e-07
1.86699e-06
2.56323e-06
6.16969e-07
6.50698e-07
8.16335e-05
0.000119608
2.06763e-05
1.15046e-07
6.85785e-07
2.13587e-06
1.79124e-06
2.24223e-07
1.95431e-08
9.06437e-09
7.44009e-09
7.34063e-09
5.38883e-09
5.82097e-09
5.76686e-09
4.53539e-09
2.65379e-09
1.15102e-09
1.68626e-10
2.1071e-11
2.05771e-11
2.05292e-11
2.04742e-11
2.0475e-11
2.04742e-11
2.0477e-11
2.4598e-11
2.56782e-11
2.56872e-11
2.65473e-11
8.6022e-08
6.90601e-07
6.44977e-07
1.37468e-07
1.49325e-07
6.00341e-07
9.10193e-07
1.27149e-07
5.89593e-07
8.52622e-07
1.03594e-08
1.84553e-08
3.23184e-08
6.27088e-09
5.72591e-09
5.74338e-09
5.79239e-09
8.23574e-08
3.07986e-08
7.24301e-09
3.54044e-09
1.59143e-09
7.18363e-10
1.67007e-10
2.91864e-11
2.90623e-11
3.22793e-11
2.97678e-11
3.03769e-11
6.20372e-11
4.07023e-10
2.85359e-09
6.40163e-09
4.13585e-09
4.63393e-10
4.73718e-10
9.51489e-09
2.06644e-08
1.92338e-08
9.34727e-09
9.89131e-09
1.27068e-08
2.63324e-08
7.72808e-08
2.53151e-06
6.44504e-06
4.81289e-06
1.07416e-05
4.4738e-05
7.31252e-07
0.000123319
0.00011884
3.02116e-06
1.11026e-08
3.16937e-06
3.49054e-06
3.48241e-06
2.08709e-06
1.2183e-07
1.17993e-08
9.06437e-09
1.6715e-08
2.29551e-08
2.10129e-08
8.41498e-09
1.07363e-09
1.01848e-09
9.15689e-10
4.44921e-10
1.33337e-10
6.63244e-11
3.38282e-11
2.12659e-11
2.08361e-11
2.21807e-11
4.00369e-11
8.29262e-11
1.31887e-10
6.23111e-11
2.68641e-11
3.49781e-07
7.42495e-07
1.35891e-07
1.34327e-07
1.52123e-07
9.10078e-07
9.10043e-07
1.13e-07
1.57685e-07
8.54421e-07
2.29866e-07
1.42267e-08
2.31515e-08
5.87649e-09
4.81312e-09
6.79273e-09
6.09892e-09
1.27358e-09
2.11675e-08
3.14329e-09
1.00905e-09
2.1487e-10
5.72849e-11
5.67338e-11
4.41786e-11
2.82253e-11
1.96283e-11
1.84433e-11
3.17224e-11
1.01872e-10
3.00418e-10
5.35181e-10
6.4079e-10
7.25301e-10
7.96888e-10
6.16857e-10
1.38714e-09
1.19916e-08
1.87714e-08
9.89131e-09
1.11548e-08
2.42205e-08
3.99774e-07
1.06484e-05
1.56731e-05
1.4791e-05
3.57895e-07
1.01253e-05
0.000134872
9.59635e-06
0.000123372
1.69065e-05
8.41791e-09
4.75166e-09
1.53574e-06
3.49031e-06
3.49078e-06
3.48241e-06
6.20308e-07
3.06424e-08
6.7396e-08
7.88542e-08
5.29538e-08
1.73187e-08
8.45476e-10
2.78855e-10
2.74432e-10
2.4105e-10
1.75566e-10
1.34373e-10
9.8403e-11
4.90703e-11
1.91292e-11
1.32742e-11
1.29073e-11
1.85572e-11
6.25644e-11
1.38598e-10
1.38457e-10
2.81274e-11
1.81337e-07
7.41756e-07
1.34361e-07
1.34327e-07
1.34327e-07
8.68269e-07
9.10171e-07
1.5509e-07
1.25889e-07
8.54421e-07
7.83438e-07
1.79581e-09
1.91203e-08
5.05187e-09
4.30491e-09
7.97825e-09
6.74867e-09
7.21973e-10
2.67589e-09
2.10748e-09
5.09544e-10
1.12562e-10
8.73646e-11
6.10843e-11
3.24444e-11
1.25921e-11
6.03623e-12
5.81876e-12
1.72139e-11
5.70476e-11
1.77819e-10
5.13575e-10
8.53045e-10
9.02187e-10
7.95028e-10
3.89859e-10
2.10483e-10
4.27591e-09
1.78063e-08
1.16267e-08
2.42205e-08
4.78807e-06
1.4337e-05
1.56731e-05
1.5674e-05
1.56659e-05
3.06211e-07
4.37381e-06
0.000136609
0.000110731
0.000123294
1.83295e-07
2.81139e-09
1.51486e-09
2.46554e-07
3.17118e-06
3.48241e-06
2.2337e-06
4.57988e-07
1.26784e-07
8.38311e-08
6.01884e-08
3.34818e-08
6.84521e-09
7.24281e-10
7.04034e-10
6.43241e-10
3.63559e-10
1.57791e-10
1.2831e-10
1.03134e-10
5.33808e-11
1.79843e-11
9.86063e-12
8.29103e-12
7.697e-12
1.12611e-11
6.57672e-11
1.5778e-10
3.06068e-11
4.76618e-08
3.73242e-07
2.83484e-07
1.34327e-07
2.00972e-07
8.63299e-07
6.13373e-07
1.91077e-08
9.66369e-08
8.54421e-07
8.47832e-07
1.4955e-09
1.80402e-08
2.43437e-09
3.72064e-09
7.97503e-09
7.109e-09
6.74007e-10
1.51293e-09
1.01122e-09
2.06151e-10
1.09235e-10
4.92119e-11
1.46347e-11
3.96341e-12
2.12589e-12
2.22309e-12
3.37041e-12
9.89132e-12
3.32487e-11
8.77842e-11
2.35298e-10
4.80634e-10
5.95642e-10
4.799e-10
2.55259e-10
1.66634e-10
1.89927e-10
6.18192e-09
5.28364e-08
1.0078e-07
4.80899e-06
1.50713e-05
1.56736e-05
1.56731e-05
9.56644e-06
1.4441e-07
5.00629e-06
0.000138505
0.000138505
0.000103385
5.79705e-06
1.51613e-09
1.45062e-09
1.51601e-09
2.4333e-07
6.45549e-07
8.10983e-08
2.03353e-07
1.06714e-07
3.03634e-08
1.53721e-08
7.2697e-09
1.46766e-09
8.78865e-10
8.9875e-10
6.29655e-10
2.315e-10
1.15303e-10
1.11409e-10
9.52409e-11
4.73303e-11
1.54653e-11
7.94521e-12
5.74674e-12
4.58361e-12
4.17579e-12
5.30656e-12
2.72734e-11
4.82629e-11
5.65018e-11
1.06907e-07
3.18257e-07
2.63373e-07
6.41057e-07
6.71581e-07
1.94909e-07
1.66122e-09
1.56218e-09
7.56334e-07
8.21226e-07
1.25508e-09
1.60494e-08
3.11306e-10
1.71829e-09
5.18715e-09
4.90809e-09
6.65895e-10
9.50661e-10
2.65691e-10
1.00495e-10
3.8532e-11
8.88774e-12
1.72592e-12
1.01024e-12
1.18004e-12
1.61302e-12
2.54722e-12
5.91111e-12
1.98637e-11
6.19819e-11
1.61061e-10
2.61944e-10
2.80033e-10
2.35631e-10
1.81975e-10
1.55835e-10
1.54396e-10
2.51896e-10
5.95408e-08
1.92674e-07
1.06432e-06
2.4208e-06
7.08393e-06
5.87533e-06
5.34935e-07
2.80514e-08
2.83417e-06
6.86267e-05
0.000138524
8.48088e-05
2.76163e-05
1.45054e-09
1.45064e-09
1.72039e-09
2.43045e-10
7.70688e-10
7.30312e-10
1.86322e-09
7.48765e-09
9.66575e-10
2.10558e-10
3.02431e-10
6.0645e-10
6.9866e-10
5.69194e-10
2.58499e-10
9.31478e-11
7.26331e-11
7.49518e-11
6.666e-11
3.26088e-11
1.20061e-11
5.60842e-12
3.53488e-12
2.57388e-12
2.24321e-12
2.41467e-12
7.68715e-12
3.19452e-11
3.19307e-11
3.02056e-09
1.71171e-07
1.28288e-07
1.77668e-07
7.08062e-08
5.31503e-09
1.56218e-09
1.56005e-09
6.66194e-07
8.13478e-07
1.08458e-09
1.44039e-08
3.12305e-10
3.35271e-10
8.24548e-10
1.14657e-09
4.64178e-10
2.62138e-10
8.7079e-11
3.60635e-11
8.48054e-12
1.29796e-12
4.9565e-13
5.27302e-13
7.6967e-13
1.187e-12
1.85213e-12
4.74842e-12
1.86864e-11
6.25932e-11
1.28171e-10
1.52922e-10
1.38871e-10
1.05097e-10
9.23262e-11
1.11377e-10
1.30124e-10
5.41813e-10
1.40792e-08
4.62986e-08
1.95217e-09
5.04038e-09
5.27769e-09
1.44899e-08
2.55114e-08
2.6166e-08
6.61854e-07
7.3123e-07
0.000138502
0.000141335
4.07859e-05
1.86905e-09
1.24061e-09
1.33571e-08
6.84216e-11
8.1501e-11
1.52447e-10
1.67883e-10
1.82548e-10
1.84965e-10
1.97763e-10
2.69358e-10
2.97252e-10
2.48942e-10
1.25426e-10
5.01399e-11
2.96675e-11
2.77623e-11
2.97017e-11
2.87703e-11
1.90401e-11
7.80757e-12
3.00274e-12
1.57564e-12
1.09659e-12
9.46813e-13
1.05615e-12
3.68041e-12
1.61122e-11
3.47674e-11
3.50473e-11
5.21804e-10
2.80822e-10
5.71115e-10
1.28292e-09
1.57781e-09
1.55988e-09
1.56095e-09
8.73652e-07
7.98366e-07
1.01753e-09
8.30421e-09
6.77446e-10
5.69458e-10
3.07204e-10
1.83839e-10
1.59985e-10
6.84499e-11
3.29889e-11
1.11972e-11
2.18921e-12
3.28212e-13
2.04819e-13
2.42807e-13
3.86213e-13
5.89654e-13
1.0751e-12
4.12433e-12
1.7466e-11
4.56544e-11
6.29513e-11
6.26938e-11
5.31872e-11
3.87055e-11
3.67555e-11
6.55615e-11
1.37645e-10
2.20428e-10
1.81162e-10
1.58494e-10
1.87909e-10
2.69446e-10
1.46493e-10
2.19614e-09
5.15275e-07
1.50373e-07
8.76396e-08
7.30203e-07
0.000138107
0.000141343
3.31531e-05
6.23137e-09
2.97189e-10
7.28413e-11
6.40659e-11
9.69035e-11
1.38339e-10
1.45926e-10
1.70917e-10
1.82811e-10
1.78242e-10
1.4789e-10
7.4729e-11
3.12146e-11
1.48214e-11
1.06397e-11
8.19414e-12
7.41616e-12
7.79479e-12
8.25895e-12
7.56492e-12
4.13282e-12
1.37232e-12
5.55013e-13
3.71252e-13
3.28107e-13
3.91468e-13
1.86661e-12
9.09683e-12
2.63463e-11
4.95317e-11
5.05764e-11
1.512e-10
5.67007e-10
2.01806e-09
2.01975e-09
4.46317e-09
2.09905e-09
9.07551e-07
8.11595e-07
1.01231e-09
1.73359e-09
2.18956e-09
1.73059e-09
3.71128e-10
1.15893e-10
7.00161e-11
3.9385e-11
1.79847e-11
5.25028e-12
8.31944e-13
1.07935e-13
7.48517e-14
8.826e-14
1.29295e-13
2.01261e-13
5.40248e-13
2.96435e-12
9.40246e-12
1.40375e-11
1.42496e-11
1.29057e-11
1.0567e-11
8.76935e-12
1.09247e-11
2.77647e-11
8.47106e-11
1.63335e-10
1.88536e-10
1.4698e-10
1.49176e-10
1.3002e-10
2.08534e-11
1.74756e-07
6.89752e-07
2.7831e-07
8.68826e-08
3.5304e-06
6.85246e-05
0.000141333
1.21077e-05
4.26527e-08
6.23139e-09
2.94468e-10
6.37126e-11
7.00124e-11
7.09571e-11
1.12167e-10
1.18512e-10
1.16515e-10
8.60228e-11
3.89195e-11
1.19655e-11
4.9625e-12
3.827e-12
3.27804e-12
2.37661e-12
1.94445e-12
1.87662e-12
2.02246e-12
2.07667e-12
1.52749e-12
5.60544e-13
1.82164e-13
1.1033e-13
9.94305e-14
1.43309e-13
1.01193e-12
5.72408e-12
1.83056e-11
4.27919e-11
9.45405e-11
4.05799e-10
1.86969e-09
3.94291e-09
2.97115e-09
6.3176e-09
1.66028e-09
9.07537e-07
6.65873e-07
1.01373e-09
1.35281e-09
3.17231e-09
2.40783e-09
4.84093e-10
1.09017e-10
5.63309e-11
3.00031e-11
1.17267e-11
2.75448e-12
3.50792e-13
3.76755e-14
2.39404e-14
2.6825e-14
3.87106e-14
7.09024e-14
2.30511e-13
9.65732e-13
2.15328e-12
2.57406e-12
2.45343e-12
2.2131e-12
2.13118e-12
2.20578e-12
2.88913e-12
7.11353e-12
2.32403e-11
6.07285e-11
1.09777e-10
1.46979e-10
1.48381e-10
6.6156e-11
1.72917e-11
9.86206e-08
4.47672e-07
8.74083e-08
8.82248e-08
1.54633e-05
3.38878e-05
0.000140708
6.4878e-06
2.47992e-07
6.86153e-08
6.69923e-09
5.15172e-10
2.75354e-11
1.66303e-11
2.44643e-11
2.38082e-11
2.38854e-11
1.35775e-11
4.7739e-12
2.07541e-12
1.32236e-12
1.16045e-12
1.00568e-12
7.26762e-13
5.30669e-13
4.74445e-13
4.86081e-13
5.02556e-13
4.38474e-13
1.92121e-13
6.01296e-14
3.06477e-14
2.72454e-14
5.74669e-14
5.6864e-13
3.62036e-12
1.30308e-11
3.35839e-11
8.88634e-11
4.98492e-10
2.67817e-09
4.226e-09
3.01288e-09
7.72726e-09
1.66214e-09
9.07356e-07
1.78984e-07
1.01232e-09
1.73092e-09
3.17231e-09
2.35526e-09
6.16721e-10
1.15566e-10
4.95836e-11
2.32172e-11
7.56055e-12
1.44178e-12
1.65953e-13
1.593e-14
7.13656e-15
7.6335e-15
1.12392e-14
2.58376e-14
8.8727e-14
2.68828e-13
4.6158e-13
5.07288e-13
5.09547e-13
5.33215e-13
6.05417e-13
7.83079e-13
1.37461e-12
2.47621e-12
1.74891e-11
5.04404e-11
1.03145e-10
5.86903e-11
3.98464e-11
4.37991e-11
1.66307e-11
5.15555e-09
1.80156e-09
2.94725e-07
8.71143e-08
2.72314e-05
8.72571e-05
0.000115877
1.12756e-05
1.87312e-05
3.49802e-06
1.4834e-07
3.40461e-08
9.02961e-09
3.8581e-09
1.25806e-11
2.00495e-12
-2.90092e-18
7.24319e-13
7.07531e-13
5.67895e-13
4.09145e-13
3.07021e-13
2.64408e-13
2.13171e-13
1.4299e-13
1.18033e-13
1.15398e-13
1.24253e-13
1.20932e-13
6.56821e-14
1.91402e-14
8.21529e-15
7.12087e-15
2.73874e-14
3.18831e-13
2.1968e-12
9.05124e-12
2.67281e-11
7.93072e-11
4.2786e-10
2.20707e-09
4.08156e-09
2.1977e-09
2.3671e-08
6.30369e-07
5.18584e-07
6.46578e-10
1.00601e-09
2.12899e-09
2.76972e-09
2.04834e-09
6.72514e-10
1.09099e-10
4.18392e-11
1.69832e-11
4.609e-12
7.63038e-13
8.84163e-14
8.6585e-15
2.10949e-15
2.07642e-15
3.08068e-15
9.12474e-15
3.51146e-14
9.07469e-14
1.2652e-13
1.32325e-13
1.38164e-13
1.58417e-13
2.40766e-13
7.47245e-13
1.98307e-12
1.50753e-11
5.61192e-11
2.02736e-10
3.04848e-10
1.30192e-10
1.97098e-11
1.66289e-11
1.66307e-11
1.66295e-11
1.81681e-09
5.45764e-07
8.04135e-08
2.23446e-05
8.73364e-05
0.000108127
1.20543e-05
8.29086e-05
0.000152161
4.96206e-05
1.23729e-05
4.87072e-06
3.15328e-06
7.48175e-08
-5.96226e-12
-2.48946e-12
-9.99848e-15
1.16075e-13
2.05817e-13
2.1933e-13
1.00535e-13
6.69933e-14
5.53888e-14
3.68665e-14
2.58681e-14
2.40207e-14
2.64112e-14
2.74563e-14
1.86878e-14
5.50137e-15
2.17137e-15
1.94685e-15
1.49281e-14
1.71535e-13
1.24625e-12
5.89047e-12
2.2105e-11
8.70107e-11
3.5923e-10
1.11944e-09
2.06412e-09
4.84311e-10
4.8266e-08
1.04724e-06
2.55244e-08
5.68e-10
1.00947e-09
1.79215e-09
1.59372e-09
1.67048e-09
4.77337e-10
8.37447e-11
3.33874e-11
1.15011e-11
2.63994e-12
4.14017e-13
5.04748e-14
5.18407e-15
6.63181e-16
5.23915e-16
7.85829e-16
3.00045e-15
1.22203e-14
2.66862e-14
3.17597e-14
3.22143e-14
3.5929e-14
6.8637e-14
4.29586e-13
3.71247e-12
4.95188e-11
6.87432e-10
1.91774e-09
6.90276e-09
9.96187e-09
6.74076e-09
4.45948e-09
8.0472e-08
1.66307e-11
9.01787e-11
9.80525e-10
5.2537e-08
5.56879e-08
3.98052e-06
8.72156e-05
0.000112282
1.67563e-05
6.83645e-05
0.00026298
0.000258711
0.000162407
5.63306e-05
0.000113158
3.2743e-05
8.8666e-08
-2.71138e-12
-4.37819e-16
7.32393e-14
1.22417e-13
1.40675e-13
9.67004e-14
2.2864e-14
1.26196e-14
8.61031e-15
5.01887e-15
4.14983e-15
4.2661e-15
4.61878e-15
3.76639e-15
1.26579e-15
5.75691e-16
6.45531e-16
8.41057e-15
8.80005e-14
6.65749e-13
3.62585e-12
1.78617e-11
9.0293e-11
2.98996e-10
4.83688e-10
5.55412e-10
3.14975e-10
4.48325e-08
1.04724e-06
1.59071e-08
5.68911e-10
5.99817e-10
8.74452e-10
9.39253e-10
8.68791e-10
2.29843e-10
6.92322e-11
2.60182e-11
7.09772e-12
1.42978e-12
2.27336e-13
2.87872e-14
2.92748e-15
2.53562e-16
1.17951e-16
1.87163e-16
8.58658e-16
3.19082e-15
5.66124e-15
6.12663e-15
6.97356e-15
2.43075e-14
2.27764e-13
4.60464e-12
1.13356e-10
1.86332e-09
2.55872e-08
5.56679e-08
1.66209e-07
2.46847e-07
2.20024e-07
1.26713e-05
3.02058e-05
4.96491e-05
4.5271e-05
1.87176e-05
3.00054e-07
8.02981e-08
1.93721e-07
7.96899e-05
0.000106688
2.0409e-05
7.11964e-05
0.00026386
0.00026298
0.000231677
6.29e-05
0.000160358
0.000159577
2.78342e-05
8.47755e-08
-1.24244e-11
7.70316e-14
9.36338e-14
1.0812e-13
9.06652e-14
1.12336e-14
2.89436e-15
1.59819e-15
9.35285e-16
5.94824e-16
5.47302e-16
5.77416e-16
5.1205e-16
2.18763e-16
1.33162e-16
3.01473e-16
4.51678e-15
4.46023e-14
3.48893e-13
2.11434e-12
1.1589e-11
6.36387e-11
2.07423e-10
3.12542e-10
3.05918e-10
2.88615e-10
3.16559e-08
1.04724e-06
3.66812e-08
1.30471e-08
2.66589e-10
2.59274e-10
5.85134e-10
2.62527e-10
1.22195e-10
6.24007e-11
1.96312e-11
4.13384e-12
7.61675e-13
1.21887e-13
1.53465e-14
1.49243e-15
1.12748e-16
2.37205e-17
4.15445e-17
1.97461e-16
5.87991e-16
8.9095e-16
1.26817e-15
9.40822e-15
1.63606e-13
4.31311e-12
1.00953e-10
2.19113e-09
3.91196e-08
5.50021e-07
8.20627e-07
9.65639e-06
4.66723e-05
8.53566e-05
0.000128198
0.000125642
0.000124922
0.000124922
7.95084e-05
2.05153e-06
4.0523e-07
2.40486e-06
5.43003e-05
0.000124394
0.00017678
0.00026111
0.000265125
0.000263901
0.000239662
8.66443e-05
0.000159744
0.000160626
0.000140479
2.21657e-06
1.65811e-08
-1.67805e-11
8.2174e-14
8.71363e-14
8.37035e-14
1.78553e-14
1.13374e-15
2.62744e-16
1.54655e-16
7.90437e-17
6.24408e-17
6.11203e-17
5.10216e-17
2.89603e-17
2.36254e-17
1.57111e-16
2.20365e-15
2.18446e-14
1.76737e-13
1.20197e-12
7.0351e-12
3.45006e-11
1.11165e-10
1.9575e-10
2.36871e-10
2.75267e-10
1.34938e-08
3.20753e-07
8.3109e-08
1.37156e-07
5.69105e-08
3.75767e-11
3.37241e-10
8.82519e-11
8.93201e-11
5.09532e-11
1.32155e-11
2.35546e-12
4.06344e-13
6.19823e-14
7.46702e-15
6.93728e-16
4.93537e-17
4.86428e-18
8.44549e-18
3.56387e-17
9.02303e-17
1.65278e-16
1.59227e-15
4.30678e-14
7.54714e-13
2.19996e-11
5.51858e-10
1.43584e-08
1.6494e-07
4.71663e-05
6.71599e-05
0.000180684
0.000222573
0.000217133
0.000165627
0.000107393
0.000124922
0.000124922
6.97271e-05
4.43936e-05
7.06749e-06
3.2204e-06
3.03255e-05
0.000255001
0.000266414
0.000266743
0.000266688
0.000187352
0.00011181
0.000159309
0.000160123
0.000158273
0.000152008
0.000119748
3.28254e-06
-1.92686e-12
8.27497e-14
8.77813e-14
1.10669e-13
6.92078e-14
8.07314e-16
4.58685e-17
2.07198e-17
9.82083e-18
6.92386e-18
6.59773e-18
5.34736e-18
3.73073e-18
4.11676e-18
7.00871e-17
9.73288e-16
1.01859e-14
8.7721e-14
6.76892e-13
4.50048e-12
2.09003e-11
5.77366e-11
1.02434e-10
1.62277e-10
3.23201e-10
1.85534e-09
8.32908e-10
1.07075e-07
1.41418e-07
1.28166e-07
3.67511e-11
2.03802e-10
4.79864e-11
6.49582e-11
3.39297e-11
7.82909e-12
1.35443e-12
2.17642e-13
3.01419e-14
3.38155e-15
2.97647e-16
1.98111e-17
1.29915e-18
1.47463e-18
5.66323e-18
1.30777e-17
2.93703e-17
6.88835e-16
2.3621e-14
4.54338e-13
1.36951e-11
3.41268e-10
6.57218e-09
6.96374e-05
0.000221086
0.000222677
0.000222745
0.000222677
0.000222573
5.72959e-05
3.45968e-05
9.48284e-05
8.94051e-05
0.000202986
0.000276312
5.01776e-05
3.10657e-05
0.000247516
0.000266865
0.00026684
0.00026686
0.000266851
5.72718e-05
1.08897e-05
2.79741e-05
3.95585e-06
5.73586e-05
0.000145836
0.000145136
0.000132063
5.19306e-10
6.78955e-14
9.06443e-14
1.46173e-13
1.52361e-13
9.10439e-16
1.68503e-17
2.78753e-18
1.00958e-18
6.75582e-19
6.73797e-19
6.21431e-19
5.13722e-19
1.16786e-18
2.65262e-17
4.01118e-16
4.62141e-15
4.40086e-14
3.78663e-13
2.87019e-12
1.43143e-11
3.63495e-11
5.39402e-11
8.46788e-11
2.6523e-10
2.89714e-10
3.51436e-10
6.96455e-08
1.41418e-07
5.47736e-08
3.68563e-11
4.03374e-11
3.54994e-11
4.39033e-11
2.04187e-11
4.52253e-12
7.92578e-13
1.17442e-13
1.4496e-14
1.48603e-15
1.21439e-16
7.57759e-18
4.00191e-19
1.8941e-19
7.84854e-19