/*--------------------------------*- C++ -*----------------------------------*\
| =========                 |                                                 |
| \\      /  F ield         | OpenFOAM: The Open Source CFD Toolbox           |
|  \\    /   O peration     | Version:  2412                                  |
|   \\  /    A nd           | Website:  www.openfoam.com                      |
|    \\/     M anipulation  |                                                 |
\*---------------------------------------------------------------------------*/
FoamFile
{
    version     2.0;
    format      ascii;
    arch        "LSB;label=32;scalar=64";
    class       surfaceScalarField;
    location    "8.88";
    object      phi;
}
// * * * * * * * * * * * * * * * * * * * * * * * * * * * * * * * * * * * * * //

dimensions      [0 3 -1 0 0 0 0];

oriented        oriented;

internalField   nonuniform List<scalar> 
158920
(
7.14118e-05
-7.14118e-05
0.000142887
-7.15715e-05
0.000214743
-7.19396e-05
0.000287789
-7.31098e-05
0.000359677
-7.19334e-05
0.000430847
-7.12024e-05
0.000502166
-7.13404e-05
0.000573609
-7.14583e-05
0.000645086
-7.14869e-05
0.000716541
-7.14617e-05
0.000787922
-7.13855e-05
0.000859214
-7.12949e-05
0.000930425
-7.1212e-05
0.00100154
-7.11143e-05
0.00107253
-7.09941e-05
0.00114339
-7.08554e-05
0.0012141
-7.07094e-05
0.00128465
-7.05538e-05
0.00135504
-7.03905e-05
0.00142526
-7.02184e-05
0.0014953
-7.00325e-05
0.00156513
-6.98355e-05
0.00163476
-6.96284e-05
0.00170417
-6.94084e-05
0.00177335
-6.91776e-05
0.00184229
-6.89351e-05
0.00191097
-6.86808e-05
0.00197939
-6.84146e-05
0.00204753
-6.81378e-05
0.00211538
-6.78497e-05
0.00218293
-6.75489e-05
0.00225016
-6.72367e-05
0.00231708
-6.69111e-05
0.00238365
-6.65749e-05
0.00244988
-6.62253e-05
0.00251574
-6.58633e-05
0.00258123
-6.54901e-05
0.00264633
-6.51035e-05
0.00271104
-6.47042e-05
0.00277533
-6.42923e-05
0.0028392
-6.38691e-05
0.00290263
-6.34323e-05
0.00296562
-6.2984e-05
0.00302814
-6.25226e-05
0.00309019
-6.20484e-05
0.00315175
-6.15643e-05
0.00321282
-6.10675e-05
0.00327337
-6.05565e-05
0.0033334
-6.00315e-05
0.0033929
-5.94957e-05
0.00345184
-5.89488e-05
0.00351023
-5.83882e-05
0.00356804
-5.78157e-05
0.00362527
-5.72307e-05
0.00368191
-5.66331e-05
0.00373793
-5.60231e-05
0.00379333
-5.54002e-05
0.00384809
-5.47655e-05
0.00390221
-5.41189e-05
0.00395567
-5.34599e-05
0.00400845
-5.2788e-05
0.00406055
-5.21035e-05
0.00411196
-5.14069e-05
0.00416266
-5.06977e-05
0.00421263
-4.99762e-05
0.00426187
-4.92421e-05
0.00431037
-4.84961e-05
0.0043581
-4.77376e-05
0.00440507
-4.69661e-05
0.00445125
-4.61835e-05
0.00449663
-4.53871e-05
0.00454121
-4.45802e-05
0.00458497
-4.37601e-05
0.0046279
-4.29269e-05
0.00466998
-4.20827e-05
0.0047112
-4.12251e-05
0.00475156
-4.0358e-05
0.00479104
-3.94779e-05
0.00482962
-3.85825e-05
0.00486729
-3.76751e-05
0.00490405
-3.67594e-05
0.00493988
-3.58297e-05
0.00497476
-3.48861e-05
0.00500869
-3.39327e-05
0.00504166
-3.29664e-05
0.00507364
-3.19874e-05
0.00510464
-3.10001e-05
0.00513464
-2.99983e-05
0.00516362
-2.89857e-05
0.00519158
-2.79632e-05
0.00521851
-2.69281e-05
0.00524439
-2.58767e-05
0.0052692
-2.48133e-05
0.00529294
-2.37434e-05
0.0053156
-2.26618e-05
0.00533716
-2.15668e-05
0.00535762
-2.0461e-05
0.00537697
-1.93457e-05
0.00539518
-1.8219e-05
0.00541227
-1.70826e-05
0.00542819
-1.59315e-05
0.00544297
-1.47726e-05
0.00545656
-1.3601e-05
0.00546898
-1.24219e-05
0.00548022
-1.12317e-05
0.00549024
-1.00307e-05
0.00549906
-8.82091e-06
0.00550666
-7.60005e-06
0.00551303
-6.37217e-06
0.00551817
-5.13476e-06
0.00552205
-3.88617e-06
0.00552468
-2.62871e-06
0.00552604
-1.35932e-06
0.00552614
-1.01438e-07
0.00552491
1.22788e-06
0.00552242
2.4957e-06
0.00551864
3.78122e-06
0.00551355
5.08431e-06
0.00550717
6.38744e-06
0.00549946
7.70152e-06
0.00549044
9.01831e-06
0.0054801
1.0345e-05
0.00546842
1.16746e-05
0.00545541
1.3008e-05
0.00544107
1.43478e-05
0.00542538
1.56881e-05
0.00540834
1.70306e-05
0.00538997
1.83772e-05
0.00537025
1.97205e-05
0.00534918
2.10676e-05
0.00532676
2.24148e-05
0.005303
2.37618e-05
0.00527789
2.51094e-05
0.00525145
2.6444e-05
0.00522367
2.77781e-05
0.00519455
2.91151e-05
0.00516411
3.04464e-05
0.00513234
3.17702e-05
0.00509925
3.30865e-05
0.00506486
3.4395e-05
0.00502917
3.56921e-05
0.00499219
3.69825e-05
0.00495393
3.82591e-05
0.0049144
3.95249e-05
0.00487363
4.07779e-05
0.00483161
4.20116e-05
0.00478838
4.32316e-05
0.00474394
4.44361e-05
0.00469833
4.56175e-05
0.00465155
4.67814e-05
0.00460362
4.79242e-05
0.00455458
4.90426e-05
0.00450444
5.01371e-05
0.00445324
5.12034e-05
0.004401
5.22439e-05
0.00434775
5.32543e-05
0.00429352
5.42316e-05
0.00423834
5.51774e-05
0.00418226
5.60886e-05
0.0041253
5.69617e-05
0.0040675
5.77953e-05
0.00400891
5.85899e-05
0.00394957
5.93436e-05
0.00388951
6.00547e-05
0.0038288
6.0718e-05
0.00376746
6.13354e-05
0.00370556
6.19007e-05
0.00364314
6.24181e-05
0.00358026
6.28812e-05
0.00351698
6.32883e-05
0.00345334
6.36388e-05
0.00338941
6.3931e-05
0.00332525
6.41649e-05
0.00326092
6.43347e-05
0.00319648
6.44381e-05
0.00313201
6.44784e-05
0.00306756
6.44512e-05
0.00300321
6.43554e-05
0.00293902
6.41897e-05
0.00287506
6.39548e-05
0.00281141
6.36498e-05
0.00274814
6.32721e-05
0.00268532
6.28225e-05
0.00262302
6.22999e-05
0.00256132
6.17002e-05
0.00250029
6.10284e-05
0.00244
6.0286e-05
0.00238053
5.94697e-05
0.00232196
5.85765e-05
0.00226435
5.7609e-05
0.00220779
5.65699e-05
0.00215233
5.54634e-05
0.00209805
5.42846e-05
0.00204502
5.3035e-05
0.0019933
5.17211e-05
0.00194296
5.03427e-05
0.00189406
4.89016e-05
0.00184667
4.74008e-05
0.00180083
4.58427e-05
0.0017566
4.42294e-05
0.00171403
4.25665e-05
0.00167317
4.08552e-05
0.00163407
3.91018e-05
0.00159676
3.73064e-05
0.00156128
3.54741e-05
0.00152767
3.36093e-05
0.00149594
3.17171e-05
0.00146614
2.97982e-05
0.00143828
2.7859e-05
0.00141237
2.5902e-05
0.00138843
2.39341e-05
0.00136647
2.19567e-05
0.00134649
1.99763e-05
0.00132849
1.79942e-05
0.00131247
1.60174e-05
0.00129843
1.40448e-05
0.00128634
1.20884e-05
0.00127619
1.01408e-05
0.00126797
8.21807e-06
0.00126166
6.31566e-06
0.00125722
4.43898e-06
0.00125462
2.59294e-06
0.00125385
7.71419e-07
0.00125487
-1.01509e-06
0.00125764
-2.77025e-06
0.00126212
-4.48143e-06
0.00126827
-6.15454e-06
0.00127606
-7.78705e-06
0.00128543
-9.37682e-06
0.00129635
-1.09205e-05
0.00130876
-1.24171e-05
0.00132263
-1.38674e-05
0.0013379
-1.52776e-05
0.00135453
-1.66378e-05
0.00137248
-1.79512e-05
0.00139169
-1.92209e-05
0.00141211
-2.04239e-05
0.00143371
-2.16077e-05
0.00145643
-2.27123e-05
0.00148023
-2.38011e-05
0.00150505
-2.48128e-05
0.00153085
-2.58012e-05
0.00155756
-2.67207e-05
0.00158516
-2.75997e-05
0.00161358
-2.84249e-05
0.00164278
-2.92031e-05
0.00167272
-2.99357e-05
0.00170335
-3.06213e-05
0.00173461
-3.12596e-05
0.00176645
-3.18458e-05
0.00179884
-3.23947e-05
0.0018317
-3.28728e-05
0.00186502
-3.33271e-05
0.00189871
-3.36901e-05
0.00193273
-3.40148e-05
0.001967
-3.42633e-05
0.00200151
-3.44924e-05
0.00203623
-3.47087e-05
0.00207102
-3.47908e-05
0.00210588
-3.48762e-05
0.00214073
-3.48596e-05
0.00217554
-3.48257e-05
0.00221026
-3.47338e-05
0.00224486
-3.46007e-05
0.00227924
-3.43659e-05
0.00231337
-3.41201e-05
0.00234717
-3.37854e-05
0.0023806
-3.34149e-05
0.0024136
-3.29994e-05
0.0024461
-3.25087e-05
0.00247805
-3.19595e-05
0.00250939
-3.13609e-05
0.00254008
-3.07011e-05
0.00257011
-3.00296e-05
0.00259939
-2.92843e-05
0.00262785
-2.84526e-05
0.00265547
-2.76154e-05
0.0026822
-2.67233e-05
0.00270801
-2.58052e-05
0.00273283
-2.48163e-05
0.0027566
-2.37679e-05
0.00277931
-2.27066e-05
0.00280089
-2.15923e-05
0.00282136
-2.04711e-05
0.00284062
-1.92735e-05
0.00285864
-1.80253e-05
0.00287535
-1.67156e-05
0.00289076
-1.54136e-05
0.00290481
-1.40583e-05
0.00291747
-1.26544e-05
0.00292863
-1.11567e-05
0.00293825
-9.61865e-06
0.00294634
-8.08679e-06
0.00295291
-6.56627e-06
0.00295792
-5.00857e-06
0.00296128
-3.35464e-06
0.00296292
-1.63778e-06
0.00296286
6.10441e-08
0.00296105
1.80546e-06
0.00295753
3.51971e-06
0.00295225
5.27469e-06
0.00294516
7.08867e-06
0.00293621
8.94918e-06
0.00292546
1.07584e-05
0.00291291
1.2543e-05
0.00289859
1.43186e-05
0.00288248
1.61089e-05
0.00286455
1.79389e-05
0.00284479
1.97546e-05
0.00282325
2.15393e-05
0.00279999
2.32647e-05
0.00277501
2.49764e-05
0.00274834
2.66705e-05
0.00272003
2.83185e-05
0.00269009
2.99322e-05
0.00265857
3.15275e-05
0.00262551
3.30612e-05
0.00259094
3.45648e-05
0.00255485
3.60993e-05
0.00251725
3.75953e-05
0.00247822
3.90377e-05
0.00243782
4.03961e-05
0.00239612
4.16979e-05
0.00235318
4.29473e-05
0.00230891
4.42695e-05
0.00226331
4.56013e-05
0.00221646
4.6852e-05
0.00216847
4.79908e-05
0.00211938
4.90853e-05
0.00206922
5.0158e-05
0.00201803
5.11902e-05
0.00196585
5.21841e-05
0.00191272
5.31346e-05
0.00185865
5.40676e-05
0.00180372
5.49251e-05
0.00174797
5.57564e-05
0.00169141
5.65588e-05
0.00163412
5.72826e-05
0.00157625
5.78764e-05
0.00151782
5.843e-05
0.00145883
5.89869e-05
0.00139936
5.94696e-05
0.00133952
5.98367e-05
0.00127943
6.00911e-05
0.00121915
6.02809e-05
0.00115875
6.03969e-05
0.00109829
6.04549e-05
0.00103785
6.04399e-05
0.000977512
6.0343e-05
0.000917377
6.01366e-05
0.000857545
5.98328e-05
0.000798163
5.93817e-05
0.0007393
5.8861e-05
0.000680971
5.83267e-05
0.00062327
5.76999e-05
0.000566363
5.69059e-05
0.000510366
5.59964e-05
0.000455368
5.4998e-05
0.00040146
5.39072e-05
0.000348684
5.27749e-05
0.00029715
5.15328e-05
0.000246905
5.02434e-05
0.000198115
4.87895e-05
0.000150891
4.72233e-05
0.000105272
4.56185e-05
6.12894e-05
4.39818e-05
1.90085e-05
4.228e-05
-2.14657e-05
4.04732e-05
-6.00483e-05
3.85817e-05
-9.66694e-05
3.66203e-05
-0.000131472
3.48019e-05
-0.000164062
3.25883e-05
-0.000194688
3.06245e-05
-0.000223076
2.83867e-05
-0.00024929
2.62131e-05
-0.000273396
2.41059e-05
-0.00029524
2.18446e-05
-0.000314715
1.94746e-05
-0.000331936
1.722e-05
-0.000346759
1.48201e-05
-0.000359249
1.24886e-05
-0.000369452
1.02021e-05
-0.000377348
7.89735e-06
-0.000382922
5.57392e-06
-0.000386149
3.2269e-06
-0.00038706
9.10928e-07
-0.000385693
-1.36805e-06
-0.000382071
-3.62034e-06
-0.000376202
-5.86617e-06
-0.000368173
-8.0265e-06
-0.000358034
-1.01366e-05
-0.000345834
-1.21978e-05
-0.000331577
-1.42558e-05
-0.000315385
-1.61893e-05
-0.000297341
-1.80417e-05
-0.000277462
-1.98763e-05
-0.00025594
-2.15211e-05
-0.00023268
-2.32589e-05
-0.000207841
-2.48377e-05
-0.000181546
-2.62928e-05
-0.000153877
-2.76672e-05
-0.000124897
-2.89782e-05
-9.47416e-05
-3.0155e-05
-6.34744e-05
-3.1268e-05
-3.12029e-05
-3.22732e-05
1.90373e-06
-3.31084e-05
3.58434e-05
-3.39412e-05
7.04091e-05
-3.45667e-05
0.000105575
-3.51664e-05
0.00014116
-3.55856e-05
0.000177053
-3.58931e-05
0.000213213
-3.61605e-05
0.000249482
-3.62702e-05
0.00028565
-3.61691e-05
0.000321692
-3.60426e-05
0.000357542
-3.58514e-05
0.000393095
-3.5554e-05
0.000428182
-3.50887e-05
0.000462772
-3.45906e-05
0.000496689
-3.39181e-05
0.000529864
-3.31766e-05
0.000562142
-3.22807e-05
0.000593452
-3.13125e-05
0.000623742
-3.02914e-05
0.000652833
-2.90927e-05
0.000680681
-2.78485e-05
0.000707005
-2.63249e-05
0.000732017
-2.50133e-05
0.000755637
-2.36217e-05
0.00077772
-2.20864e-05
0.000798156
-2.04376e-05
0.000816859
-1.8705e-05
0.000833862
-1.70037e-05
0.000849072
-1.52102e-05
0.000862477
-1.34043e-05
0.000874053
-1.15748e-05
0.000883676
-9.62193e-06
0.000891352
-7.67566e-06
0.000896974
-5.62271e-06
0.000900731
-3.75808e-06
0.000902507
-1.777e-06
0.000902384
1.21677e-07
0.000900352
2.03201e-06
0.0008965
3.85327e-06
0.000890726
5.77508e-06
0.000883129
7.59857e-06
0.000873615
9.51589e-06
0.000862323
1.12927e-05
0.000849333
1.299e-05
0.000834767
1.45656e-05
0.000818694
1.60725e-05
0.000801075
1.7618e-05
0.000782053
1.90223e-05
0.000761652
2.04008e-05
0.000740046
2.16063e-05
0.000717233
2.28117e-05
0.000693391
2.38418e-05
0.000668715
2.46757e-05
0.00064328
2.54355e-05
0.000617086
2.61938e-05
0.000590411
2.66742e-05
0.000563251
2.71595e-05
0.000535643
2.76078e-05
0.000507727
2.79146e-05
0.00047973
2.79958e-05
0.000451665
2.80646e-05
0.000423687
2.79772e-05
0.000395907
2.77804e-05
0.000368451
2.7456e-05
0.0003414
2.70506e-05
0.000314776
2.66235e-05
0.00028875
2.60265e-05
0.000263362
2.53867e-05
0.000238688
2.46743e-05
0.000214725
2.39624e-05
0.00019157
2.31543e-05
0.000169311
2.22584e-05
0.000147942
2.13691e-05
0.000127495
2.04458e-05
0.000107985
1.95099e-05
8.94323e-05
1.85522e-05
7.18434e-05
1.75882e-05
5.52409e-05
1.66018e-05
3.95937e-05
1.56465e-05
2.4874e-05
1.47191e-05
1.11006e-05
1.37729e-05
-1.80115e-06
1.29012e-05
-1.38685e-05
1.20667e-05
-2.5036e-05
1.11667e-05
-3.54365e-05
1.03996e-05
-4.50646e-05
9.62715e-06
-5.39879e-05
8.92226e-06
-6.21965e-05
8.20738e-06
-6.97352e-05
7.53722e-06
-7.66166e-05
6.87972e-06
-8.29388e-05
6.32041e-06
-8.87101e-05
5.76966e-06
-9.38746e-05
5.16341e-06
-9.86082e-05
4.73281e-06
-0.000102819
4.21042e-06
-0.000106559
3.73943e-06
-0.000109878
3.31773e-06
-0.000112792
2.91346e-06
-0.000115202
2.41031e-06
-0.000117248
2.04668e-06
-0.000118964
1.71677e-06
-0.00012024
1.27589e-06
-0.000121105
8.65293e-07
-0.000121548
4.44249e-07
-0.000121602
5.58612e-08
-0.000121318
-2.80987e-07
-0.000120632
-6.82951e-07
-0.0001196
-1.03041e-06
-0.000118178
-1.42098e-06
-0.000116409
-1.77042e-06
-0.000114271
-2.13832e-06
-0.000111754
-2.51702e-06
-0.000108865
-2.88827e-06
-0.0001055
-3.36442e-06
-0.000101745
-3.75541e-06
-9.7523e-05
-4.22196e-06
-9.28139e-05
-4.70973e-06
-8.76036e-05
-5.21082e-06
-8.18702e-05
-5.73347e-06
-7.56042e-05
-6.26568e-06
-6.87863e-05
-6.81758e-06
-6.15218e-05
-7.26427e-06
-5.3652e-05
-7.86987e-06
-4.53378e-05
-8.31455e-06
-3.64627e-05
-8.8755e-06
-2.71087e-05
-9.35435e-06
-1.72683e-05
-9.84059e-06
-6.93791e-06
-1.03305e-05
3.81135e-06
-1.07495e-05
1.49483e-05
-1.11374e-05
2.63883e-05
-1.14405e-05
3.805e-05
-1.16622e-05
4.98858e-05
-1.18363e-05
6.17725e-05
-1.1887e-05
7.37051e-05
-1.19328e-05
8.56673e-05
-1.19623e-05
9.75566e-05
-1.18894e-05
0.000109434
-1.18781e-05
0.000121168
-1.17335e-05
0.000132773
-1.16053e-05
0.000144127
-1.13547e-05
0.000155203
-1.10758e-05
0.000165882
-1.0678e-05
0.000176226
-1.03447e-05
0.000186242
-1.00153e-05
0.000195856
-9.61349e-06
0.000205
-9.14413e-06
0.000213613
-8.61285e-06
0.000221645
-8.03156e-06
0.00022895
-7.30558e-06
0.000235431
-6.48057e-06
0.000240982
-5.551e-06
0.000245717
-4.73437e-06
0.000249747
-4.03007e-06
0.000253028
-3.28069e-06
0.000255511
-2.48317e-06
0.000257138
-1.62647e-06
0.000257771
-6.33017e-07
0.000257457
3.14368e-07
0.00025622
1.23701e-06
0.000254073
2.14699e-06
0.000250972
3.10176e-06
0.000247041
3.93134e-06
0.000242272
4.76839e-06
0.000236615
5.65677e-06
0.000230078
6.53756e-06
0.000222686
7.39173e-06
0.000214332
8.35454e-06
0.00020507
9.26158e-06
0.000194976
1.00939e-05
0.000183851
1.11254e-05
0.000171635
1.2216e-05
0.000157385
1.42507e-05
0.000142017
1.53679e-05
0.00012387
1.81474e-05
0.000102526
2.13432e-05
8.95217e-05
1.30048e-05
9.49925e-05
-5.47077e-06
9.5948e-05
-9.55414e-07
8.23095e-05
1.36386e-05
6.09933e-05
2.13162e-05
4.74179e-05
1.35756e-05
5.3681e-05
-6.26286e-06
5.30468e-05
6.34368e-07
3.35398e-05
1.95071e-05
1.14958e-05
2.20441e-05
-8.19271e-06
1.96885e-05
-2.63759e-05
1.81833e-05
-4.31859e-05
1.68101e-05
-5.88653e-05
1.56794e-05
-7.36642e-05
1.47988e-05
-8.77355e-05
1.40713e-05
-0.000101215
1.348e-05
-0.000114204
1.29885e-05
-0.000126738
1.25342e-05
-0.000138805
1.20664e-05
-0.000150263
1.14576e-05
-0.00016108
1.08167e-05
-0.000171225
1.01452e-05
-0.000180554
9.32827e-06
-0.000189247
8.693e-06
-0.000197065
7.8176e-06
-0.000203949
6.8835e-06
-0.00020991
5.96034e-06
-0.000214862
4.9515e-06
-0.000218898
4.0355e-06
-0.000221973
3.07413e-06
-0.000224021
2.04804e-06
-0.000225054
1.03257e-06
-0.000224962
-9.20198e-08
-0.00022387
-1.09277e-06
-0.00022196
-1.91038e-06
-0.000219112
-2.84814e-06
-0.000215301
-3.81126e-06
-0.000210527
-4.77495e-06
-0.000204725
-5.8019e-06
-0.000198096
-6.62928e-06
-0.000190819
-7.27799e-06
-0.000182999
-7.8198e-06
-0.000174414
-8.58584e-06
-0.000164955
-9.45913e-06
-0.000154789
-1.01659e-05
-0.000144127
-1.06623e-05
-0.000133014
-1.11134e-05
-0.000121483
-1.15305e-05
-0.000109643
-1.18412e-05
-9.75271e-05
-1.21157e-05
-8.52851e-05
-1.22421e-05
-7.3017e-05
-1.22682e-05
-6.07546e-05
-1.22625e-05
-4.86327e-05
-1.21219e-05
-3.67144e-05
-1.19183e-05
-2.51128e-05
-1.16016e-05
-1.42861e-05
-1.08266e-05
-4.02774e-06
-1.02581e-05
6.13426e-06
-1.01617e-05
1.58857e-05
-9.75107e-06
2.52086e-05
-9.32252e-06
3.40952e-05
-8.88619e-06
4.24354e-05
-8.33977e-06
5.02638e-05
-7.82788e-06
5.75973e-05
-7.33297e-06
6.44448e-05
-6.84694e-06
7.07889e-05
-6.34357e-06
7.67686e-05
-5.97916e-06
8.23414e-05
-5.57221e-06
8.73654e-05
-5.02342e-06
9.17391e-05
-4.373e-06
9.5578e-05
-3.83819e-06
9.88998e-05
-3.32109e-06
0.000101902
-3.00135e-06
0.000104714
-2.8117e-06
0.000107039
-2.32401e-06
0.000108793
-1.7539e-06
0.00010979
-9.9648e-07
0.000109833
-4.16387e-08
0.000109131
7.01924e-07
0.000108304
8.28006e-07
0.000107367
9.36987e-07
0.000105802
1.56529e-06
0.000103563
2.23941e-06
0.00010042
3.14331e-06
9.65484e-05
3.87232e-06
9.21397e-05
4.4091e-06
8.72686e-05
4.87153e-06
8.1736e-05
5.53293e-06
7.53646e-05
6.37174e-06
6.81873e-05
7.17767e-06
6.01736e-05
8.01397e-06
5.13532e-05
8.82064e-06
4.17018e-05
9.65147e-06
3.15e-05
1.02019e-05
2.02913e-05
1.12086e-05
7.9318e-06
1.23595e-05
-5.56578e-06
1.34975e-05
-2.02295e-05
1.46636e-05
-3.60286e-05
1.57991e-05
-5.30356e-05
1.70069e-05
-7.10613e-05
1.80256e-05
-9.04419e-05
1.93804e-05
-0.000110981
2.05386e-05
-0.00013264
2.16593e-05
-0.000155669
2.30285e-05
-0.000180273
2.46041e-05
-0.000206124
2.58509e-05
-0.000233344
2.72188e-05
-0.000261707
2.83635e-05
-0.000290669
2.89616e-05
-0.000320375
2.97056e-05
-0.000350976
3.06016e-05
-0.000382734
3.17574e-05
-0.000415214
3.24801e-05
-0.000448165
3.29519e-05
-0.000480999
3.28335e-05
-0.000513848
3.28493e-05
-0.00054659
3.27427e-05
-0.000579234
3.26437e-05
-0.000611515
3.22817e-05
-0.000643013
3.14977e-05
-0.000673687
3.06731e-05
-0.000703144
2.94572e-05
-0.000730644
2.74985e-05
-0.000756543
2.58985e-05
-0.000780864
2.43205e-05
-0.000803352
2.2487e-05
-0.000823519
2.01665e-05
-0.000841224
1.77034e-05
-0.000856328
1.51037e-05
-0.000868535
1.22063e-05
-0.000878075
9.53981e-06
-0.000884754
6.67798e-06
-0.000888478
3.72404e-06
-0.000888888
4.10031e-07
-0.000885789
-3.09913e-06
-0.000879305
-6.48418e-06
-0.000869497
-9.80756e-06
-0.000856695
-1.28014e-05
-0.000840861
-1.58327e-05
-0.000822087
-1.87741e-05
-0.000799931
-2.21548e-05
-0.000774657
-2.52737e-05
-0.00074648
-2.81757e-05
-0.000715812
-3.06673e-05
-0.000682677
-3.31343e-05
-0.000647443
-3.52334e-05
-0.000610015
-3.74274e-05
-0.000570653
-3.9361e-05
-0.000529426
-4.12271e-05
-0.000486473
-4.29515e-05
-0.000442296
-4.41764e-05
-0.000397395
-4.48991e-05
-0.000351889
-4.55046e-05
-0.000305951
-4.59372e-05
-0.000259802
-4.61477e-05
-0.00021374
-4.60617e-05
-0.000167926
-4.58135e-05
-0.000122512
-4.54137e-05
-7.79236e-05
-4.45876e-05
-3.46274e-05
-4.32957e-05
7.32502e-06
-4.19519e-05
4.77083e-05
-4.03829e-05
8.63623e-05
-3.86537e-05
0.000122976
-3.66129e-05
0.000157239
-3.4263e-05
0.000189226
-3.1987e-05
0.000218717
-2.94909e-05
0.000245534
-2.68173e-05
0.000269337
-2.38036e-05
0.000289797
-2.04601e-05
0.000307068
-1.72721e-05
0.00032079
-1.37217e-05
0.000331102
-1.03126e-05
0.000337704
-6.60164e-06
0.00034066
-2.95517e-06
0.000339725
9.34974e-07
0.000335136
4.59081e-06
0.000326394
8.74281e-06
0.000313882
1.25134e-05
0.000297167
1.67165e-05
0.000276568
2.06007e-05
0.000251983
2.45866e-05
0.000223325
2.86595e-05
0.00019064
3.2686e-05
0.000154178
3.64646e-05
0.000113814
4.03664e-05
6.94505e-05
4.43655e-05
2.17505e-05
4.77019e-05
-2.92331e-05
5.09857e-05
-8.38031e-05
5.45724e-05
-0.000141852
5.80518e-05
-0.000203215
6.13653e-05
-0.000267634
6.44203e-05
-0.000334998
6.73652e-05
-0.000405202
7.02045e-05
-0.00047801
7.28097e-05
-0.0005532
7.51917e-05
-0.000630504
7.73044e-05
-0.000709792
7.92883e-05
-0.000790877
8.10861e-05
-0.000873545
8.26682e-05
-0.000957572
8.40263e-05
-0.00104263
8.50533e-05
-0.00112845
8.58203e-05
-0.00121479
8.63459e-05
-0.00130135
8.65549e-05
-0.00138784
8.64961e-05
-0.00147399
8.61435e-05
-0.00155957
8.55779e-05
-0.00164436
8.47933e-05
-0.00172807
8.37115e-05
-0.00181048
8.2404e-05
-0.00189136
8.08826e-05
-0.00197051
7.9151e-05
-0.00204774
7.7233e-05
-0.00212292
7.51774e-05
-0.00219598
7.30628e-05
-0.00226679
7.08049e-05
-0.00233517
6.83815e-05
-0.00240099
6.58178e-05
-0.00246417
6.31853e-05
-0.00252469
6.05157e-05
-0.00258247
5.77876e-05
-0.00263755
5.50801e-05
-0.00268982
5.22702e-05
-0.00273911
4.92917e-05
-0.00278541
4.63023e-05
-0.00282866
4.32488e-05
-0.00286878
4.01225e-05
-0.00290569
3.69073e-05
-0.00293925
3.35579e-05
-0.00296937
3.01303e-05
-0.00299594
2.65802e-05
-0.00301886
2.29166e-05
-0.00303815
1.92889e-05
-0.00305375
1.56014e-05
-0.00306571
1.19679e-05
-0.00307392
8.2111e-06
-0.00307843
4.51442e-06
-0.00307933
8.96636e-07
-0.00307645
-2.87319e-06
-0.0030699
-6.55812e-06
-0.00305993
-9.96837e-06
-0.0030466
-1.33264e-05
-0.00302995
-1.66469e-05
-0.00301022
-1.97349e-05
-0.00298739
-2.28353e-05
-0.00296162
-2.57674e-05
-0.00293309
-2.85248e-05
-0.00290188
-3.12192e-05
-0.00286815
-3.37256e-05
-0.00283207
-3.60753e-05
-0.00279377
-3.83019e-05
-0.00275346
-4.03107e-05
-0.00271115
-4.23109e-05
-0.00266704
-4.41039e-05
-0.00262133
-4.57106e-05
-0.00257415
-4.71856e-05
-0.00252556
-4.85909e-05
-0.0024758
-4.97632e-05
-0.00242504
-5.07552e-05
-0.00237334
-5.17002e-05
-0.00232083
-5.2517e-05
-0.00226774
-5.30911e-05
-0.00221421
-5.35271e-05
-0.0021605
-5.37124e-05
-0.00210665
-5.38485e-05
-0.00205289
-5.37568e-05
-0.00199935
-5.35456e-05
-0.0019462
-5.315e-05
-0.00189364
-5.25654e-05
-0.00184169
-5.195e-05
-0.00179079
-5.08982e-05
-0.00174104
-4.97504e-05
-0.00169255
-4.84915e-05
-0.00164545
-4.71058e-05
-0.00159996
-4.54928e-05
-0.00155632
-4.36391e-05
-0.00151474
-4.15763e-05
-0.00147538
-3.93641e-05
-0.00143843
-3.6953e-05
-0.00140409
-3.43344e-05
-0.00137258
-3.15153e-05
-0.00134407
-2.85134e-05
-0.00131873
-2.53385e-05
-0.00129673
-2.2e-05
-0.00127828
-1.84574e-05
-0.00126355
-1.4729e-05
-0.00125271
-1.08313e-05
-0.00124594
-6.77005e-06
-0.00124339
-2.5487e-06
-0.00124519
1.79831e-06
-0.00125146
6.26823e-06
-0.00126232
1.08614e-05
-0.00127788
1.5563e-05
-0.00129823
2.03487e-05
-0.0013234
2.51691e-05
-0.00135341
3.00107e-05
-0.00138827
3.48581e-05
-0.00142799
3.97261e-05
-0.00147257
4.45737e-05
-0.00152194
4.93767e-05
-0.00157605
5.41106e-05
-0.00163479
5.87395e-05
-0.00169804
6.32539e-05
-0.00176564
6.76054e-05
-0.00183745
7.18019e-05
-0.00191325
7.58058e-05
-0.00199286
7.96081e-05
-0.00207606
8.31931e-05
-0.00216262
8.65579e-05
-0.00225229
8.96721e-05
-0.00234482
9.25262e-05
-0.00243991
9.50909e-05
-0.00253729
9.73725e-05
-0.00263664
9.93553e-05
-0.00273769
0.000101046
-0.00284014
0.000102447
-0.00294368
0.000103545
-0.00304803
0.000104349
-0.00315288
0.000104854
-0.00325796
0.000105079
-0.00336297
0.000105018
-0.00346764
0.000104672
-0.00357169
0.000104052
-0.00367486
0.000103175
-0.00377688
0.000102026
-0.00387754
0.000100654
-0.00397658
9.90449e-05
-0.00407376
9.71846e-05
-0.00416889
9.51333e-05
-0.0042618
9.29119e-05
-0.00435231
9.0508e-05
-0.00444019
8.78826e-05
-0.00452531
8.51189e-05
-0.0046075
8.22002e-05
-0.00468662
7.91182e-05
-0.00476254
7.59187e-05
-0.00483513
7.25882e-05
-0.00490429
6.91583e-05
-0.0049699
6.56169e-05
-0.00503188
6.19789e-05
-0.00509015
5.82631e-05
-0.00514464
5.44958e-05
-0.00519529
5.06445e-05
-0.005242
4.67119e-05
-0.00528473
4.2733e-05
-0.00532347
3.87437e-05
-0.00535817
3.47025e-05
-0.00538882
3.06481e-05
-0.00541537
2.65502e-05
-0.0054378
2.24322e-05
-0.00545609
1.82929e-05
-0.00547025
1.41573e-05
-0.00548028
1.00307e-05
-0.00548619
5.91061e-06
-0.00548797
1.78666e-06
-0.00548564
-2.32879e-06
-0.00547925
-6.38973e-06
-0.00546878
-1.04732e-05
-0.00545426
-1.45204e-05
-0.00543573
-1.85321e-05
-0.0054132
-2.25256e-05
-0.00538673
-2.64721e-05
-0.00535635
-3.03773e-05
-0.00532208
-3.4271e-05
-0.00528399
-3.80935e-05
-0.00524213
-4.18547e-05
-0.00519652
-4.56154e-05
-0.00514721
-4.93056e-05
-0.00509425
-5.29645e-05
-0.0050377
-5.65454e-05
-0.00497762
-6.00837e-05
-0.00491404
-6.35843e-05
-0.00484702
-6.70197e-05
-0.00477663
-7.0387e-05
-0.00470295
-7.36875e-05
-0.00462601
-7.69364e-05
-0.00454587
-8.01492e-05
-0.00446261
-8.3258e-05
-0.00437629
-8.63274e-05
-0.00428697
-8.93156e-05
-0.00419472
-9.22517e-05
-0.00409961
-9.51134e-05
-0.00400172
-9.79007e-05
-0.00390108
-0.000100642
-0.00379778
-0.000103296
-0.00369193
-0.000105854
-0.00358357
-0.000108367
-0.00347276
-0.000110811
-0.00335962
-0.000113147
-0.00324421
-0.000115416
-0.00312658
-0.000117631
-0.00300683
-0.000119753
-0.00288504
-0.000121794
-0.00276129
-0.000123755
-0.00263565
-0.000125644
-0.0025082
-0.000127454
-0.00237904
-0.000129174
-0.00224825
-0.000130786
-0.00211595
-0.000132312
-0.00198216
-0.000133794
-0.00184699
-0.000135177
-0.00171054
-0.000136452
-0.00157291
-0.000137632
-0.00143419
-0.000138723
-0.00129447
-0.00013973
-0.00115384
-0.000140638
-0.00101257
-0.000141276
-0.000871351
-0.000141222
-0.000730903
-0.000140452
-0.000587932
-0.000142974
-0.000438265
-0.00014967
-0.000290665
-0.000147604
-0.00014698
-0.000143692
-0.000146988
7.50954e-05
-0.000146414
0.000145485
-0.000141825
0.000215069
-0.000141417
0.000284975
-0.000142934
0.00035639
-0.000143287
0.000428327
-0.000143094
0.000500076
-0.000143057
0.000571678
-0.000143037
0.000643176
-0.000142968
0.000714601
-0.000142875
0.000785996
-0.000142772
0.000857332
-0.000142624
0.000928569
-0.000142445
0.000999701
-0.000142242
0.00107072
-0.000142008
0.00114161
-0.000141743
0.00121236
-0.000141457
0.00128296
-0.00014115
0.00135339
-0.000140823
0.00142365
-0.000140476
0.00149373
-0.000140105
0.0015636
-0.000139711
0.00163327
-0.000139296
0.00170272
-0.000138856
0.00177194
-0.000138396
0.00184092
-0.000137913
0.00190965
-0.000137406
0.00197811
-0.000136874
0.0020463
-0.000136324
0.0021142
-0.000135748
0.0021818
-0.000135146
0.00224909
-0.000134522
0.00231605
-0.000133872
0.00238267
-0.000133197
0.00244894
-0.000132496
0.00251486
-0.000131778
0.0025804
-0.000131029
0.00264555
-0.000130255
0.00271031
-0.000129458
0.00277465
-0.000128635
0.00283857
-0.000127789
0.00290205
-0.000126917
0.00296509
-0.000126022
0.00302767
-0.0001251
0.00308978
-0.000124156
0.00315139
-0.000123177
0.00321251
-0.000122182
0.00327312
-0.000121165
0.0033332
-0.00012012
0.00339276
-0.000119049
0.00345176
-0.000117952
0.00351021
-0.000116832
0.00356808
-0.000115689
0.00362537
-0.000114517
0.00368206
-0.000113323
0.00373814
-0.000112106
0.0037936
-0.000110861
0.00384843
-0.000109593
0.00390261
-0.000108299
0.00395613
-0.000106981
0.00400898
-0.000105636
0.00406115
-0.000104269
0.00411262
-0.000102877
0.00416338
-0.000101459
0.00421342
-0.000100017
0.00426273
-9.8549e-05
0.00431129
-9.70577e-05
0.00435909
-9.55417e-05
0.00440613
-9.39999e-05
0.00445238
-9.24332e-05
0.00449783
-9.08402e-05
0.00454248
-8.92286e-05
0.00458631
-8.75875e-05
0.0046293
-8.59229e-05
0.00467146
-8.42406e-05
0.00471275
-8.25152e-05
0.00475317
-8.0783e-05
0.00479272
-7.90218e-05
0.00483138
-7.72417e-05
0.00486913
-7.54248e-05
0.00490596
-7.35912e-05
0.00494186
-7.17284e-05
0.00497682
-6.9845e-05
0.00501082
-6.79405e-05
0.00504387
-6.60105e-05
0.00507594
-6.40629e-05
0.00510703
-6.20873e-05
0.00513709
-6.00571e-05
0.00516614
-5.80363e-05
0.00519417
-5.59929e-05
0.00522116
-5.39225e-05
0.00524711
-5.18274e-05
0.005272
-4.9707e-05
0.00529582
-4.75627e-05
0.00531856
-4.53952e-05
0.00534019
-4.32046e-05
0.00536073
-4.10048e-05
0.00538015
-3.87673e-05
0.00539844
-3.65104e-05
0.0054156
-3.42352e-05
0.0054316
-3.19415e-05
0.00544645
-2.96174e-05
0.00546012
-2.72763e-05
0.00547262
-2.49171e-05
0.00548392
-2.25333e-05
0.00549402
-2.01366e-05
0.00550291
-1.77125e-05
0.00551059
-1.52755e-05
0.00551703
-1.28133e-05
0.00552222
-1.03274e-05
0.00552617
-7.82617e-06
0.00552887
-5.32991e-06
0.00553031
-2.79806e-06
0.00553045
-2.46327e-07
0.00552935
2.3367e-06
0.00552692
4.92027e-06
0.00552322
7.48867e-06
0.0055182
1.01058e-05
0.00551187
1.27177e-05
0.00550422
1.5354e-05
0.00549525
1.79795e-05
0.00548495
2.0645e-05
0.00547333
2.32965e-05
0.00546037
2.59679e-05
0.00544608
2.8643e-05
0.00543043
3.13351e-05
0.00541344
3.40181e-05
0.00539509
3.67293e-05
0.00537539
3.94125e-05
0.00535435
4.21084e-05
0.00533197
4.47933e-05
0.00530826
4.74814e-05
0.00528317
5.0192e-05
0.00525674
5.28763e-05
0.00522895
5.55705e-05
0.00519984
5.82318e-05
0.00516939
6.08924e-05
0.00513762
6.35474e-05
0.00510454
6.61735e-05
0.00507014
6.87972e-05
0.00503443
7.13989e-05
0.00499743
7.39853e-05
0.00495914
7.65429e-05
0.00491958
7.90872e-05
0.00487877
8.15851e-05
0.00483672
8.40621e-05
0.00479344
8.65183e-05
0.00474895
8.89234e-05
0.00470327
9.12945e-05
0.00465642
9.36298e-05
0.00460843
9.59185e-05
0.00455931
9.81651e-05
0.00450909
0.00010036
0.0044578
0.000102498
0.00440545
0.000104601
0.0043521
0.000106607
0.00429776
0.00010857
0.00424245
0.000110487
0.00418624
0.000112302
0.00412915
0.000114058
0.00407121
0.000115736
0.00401245
0.000117347
0.00395295
0.000118843
0.00389273
0.000120272
0.00383184
0.000121608
0.00377033
0.00012285
0.00370823
0.000124
0.00364561
0.000125034
0.00358254
0.000125961
0.00351904
0.000126788
0.00345519
0.000127494
0.00339104
0.000128087
0.00332665
0.000128554
0.00326209
0.000128899
0.00319741
0.000129122
0.0031327
0.000129193
0.00306801
0.000129137
0.00300342
0.000128953
0.00293897
0.000128632
0.00287476
0.000128168
0.00281085
0.000127558
0.0027473
0.000126814
0.0026842
0.000125927
0.00262163
0.000124869
0.00255966
0.000123668
0.00249836
0.000122326
0.00243781
0.000120837
0.00237809
0.000119199
0.00231926
0.000117408
0.0022614
0.000115474
0.00220457
0.000113405
0.00214887
0.00011117
0.00209435
0.000108807
0.00204108
0.000106306
0.00198914
0.00010367
0.00193858
0.000100902
0.00188946
9.80245e-05
0.00184186
9.49967e-05
0.00179584
9.18678e-05
0.00175143
8.86357e-05
0.00170869
8.52997e-05
0.00166766
8.18801e-05
0.00162841
7.83445e-05
0.00159097
7.47446e-05
0.00155536
7.10715e-05
0.00152162
6.73461e-05
0.0014898
6.35288e-05
0.00145991
5.96812e-05
0.00143197
5.57954e-05
0.00140599