/*--------------------------------*- C++ -*----------------------------------*\
| =========                 |                                                 |
| \\      /  F ield         | OpenFOAM: The Open Source CFD Toolbox           |
|  \\    /   O peration     | Version:  2412                                  |
|   \\  /    A nd           | Website:  www.openfoam.com                      |
|    \\/     M anipulation  |                                                 |
\*---------------------------------------------------------------------------*/
FoamFile
{
    version     2.0;
    format      ascii;
    arch        "LSB;label=32;scalar=64";
    class       volScalarField;
    location    "1.5";
    object      alpha.glycerin;
}
// * * * * * * * * * * * * * * * * * * * * * * * * * * * * * * * * * * * * * //

dimensions      [0 0 0 0 0 0 0];

internalField   nonuniform List<scalar> 
6400
(
1
1
1
1
1
1
1
1
1
1
1
1
1
1
1
1
1
1
1
1
1
1
1
1
1
1
1
1
1
1
1
1
1
1
1
1
1
1
1
1
1
1
1
1
1
1
1
1
1
1
1
1
1
1
1
1
1
1
1
1
1
1
1
1
1
1
1
1
1
1
1
1
1
1
1
1
1
1
1
1
1
1
1
1
1
1
1
1
1
1
1
1
1
1
1
1
1
1
1
1
1
1
1
1
1
1
1
1
1
1
1
1
1
1
1
1
1
1
1
1
1
1
1
1
1
1
1
1
1
1
1
1
1
1
1
1
1
1
1
1
1
1
1
1
1
1
1
1
1
1
1
1
1
1
1
1
1
1
1
1
1
1
1
1
1
1
1
1
1
1
1
1
1
1
1
1
1
1
1
1
1
1
1
1
1
1
1
1
1
1
1
1
1
1
1
1
1
1
1
1
1
1
1
1
1
1
1
1
1
1
1
1
1
1
1
1
1
1
1
1
1
1
1
1
1
1
1
1
1
1
1
1
1
1
1
1
1
1
1
1
1
1
1
1
1
1
1
1
1
1
1
1
1
1
1
1
1
1
1
1
1
1
1
1
1
1
1
1
1
1
1
1
1
1
1
1
1
1
1
1
1
1
1
1
1
1
1
1
1
1
1
1
1
1
1
1
1
1
1
1
1
1
1
1
1
1
1
1
1
1
1
1
1
1
1
1
1
1
1
1
1
1
1
1
1
1
1
1
1
1
1
1
1
1
1
1
1
1
1
1
1
1
1
1
1
1
1
1
1
1
1
1
1
1
1
1
1
1
1
1
1
1
1
1
1
1
1
1
1
1
1
1
1
1
1
1
1
1
1
1
1
1
1
1
1
1
1
1
1
1
1
1
1
1
1
1
1
1
1
1
1
1
1
1
1
1
1
1
1
1
1
1
1
1
1
1
1
1
1
1
1
1
1
1
1
1
1
1
1
1
1
1
1
1
1
1
1
1
1
1
1
1
1
1
1
1
1
1
1
1
1
1
1
1
1
1
1
1
1
1
1
1
1
1
1
1
1
1
1
1
1
1
1
1
1
1
1
1
1
1
1
1
1
1
1
1
1
1
1
1
1
1
1
1
1
1
1
1
1
1
1
1
1
1
1
1
1
1
1
1
1
1
1
1
1
1
1
1
1
1
1
1
1
1
1
1
1
1
1
1
1
1
1
1
1
1
1
1
1
1
1
1
1
1
1
1
1
1
1
1
1
1
1
1
1
1
1
1
1
1
1
1
1
1
1
1
1
1
1
1
1
1
1
1
1
1
1
1
1
1
1
1
1
1
1
1
1
1
1
1
1
1
1
1
1
1
1
1
1
1
1
1
1
1
1
1
1
1
1
1
1
1
1
1
1
1
1
1
1
1
1
1
1
1
1
1
1
1
1
1
1
1
1
1
1
1
1
1
1
1
1
1
1
1
1
1
1
1
1
1
1
1
1
1
1
1
1
1
1
1
1
1
1
1
1
1
1
1
1
1
1
1
1
1
1
1
1
1
1
1
1
1
1
1
1
1
1
1
1
1
1
1
1
1
1
1
1
1
1
1
1
1
1
1
1
1
1
1
1
1
1
1
1
1
1
1
1
1
1
1
1
1
1
1
1
1
1
1
1
1
1
1
1
1
1
1
1
1
1
1
1
1
1
1
1
1
1
1
1
1
1
1
1
1
1
1
1
1
1
1
1
1
1
1
1
1
1
1
1
1
1
1
1
1
1
1
1
1
1
1
1
1
1
1
1
1
1
1
1
1
1
1
1
1
1
1
1
1
1
1
1
1
1
1
1
1
1
1
1
1
1
1
1
1
1
1
1
1
1
1
1
1
1
1
1
1
1
1
1
1
1
1
1
1
1
1
1
1
1
1
1
1
1
1
1
1
1
1
1
1
1
1
1
1
1
1
1
1
1
1
1
1
1
1
1
1
1
1
1
1
1
1
1
1
1
1
1
1
1
1
1
1
1
1
1
1
1
1
1
1
1
1
1
1
1
1
1
1
1
1
1
1
1
1
1
1
1
1
1
1
1
1
1
1
1
1
1
1
1
1
1
1
1
1
1
1
1
1
1
1
1
1
1
1
1
1
1
1
1
1
1
1
1
1
1
1
1
1
1
1
1
1
1
1
1
1
1
1
1
1
1
1
1
1
1
1
1
1
1
1
1
1
1
1
1
1
1
1
1
1
1
1
1
1
1
1
1
1
1
1
1
1
1
1
1
1
1
1
1
1
1
1
1
1
1
1
1
1
1
1
1
1
1
1
1
1
1
1
1
1
1
1
1
1
1
1
1
1
1
1
1
1
1
1
1
1
1
1
1
1
1
1
1
1
1
1
1
1
1
1
1
1
1
1
1
1
1
1
1
1
1
1
1
1
1
1
1
1
1
1
1
1
1
1
1
1
1
1
1
1
1
1
1
1
1
1
1
1
1
1
1
1
1
1
1
1
1
1
1
1
1
1
1
1
1
1
1
1
1
1
1
1
1
1
1
1
1
1
1
1
1
1
1
1
1
1
1
1
1
1
1
1
1
1
1
1
1
1
1
1
1
1
1
1
1
1
1
1
1
1
1
1
1
1
1
1
1
1
1
1
1
1
1
1
1
1
1
1
1
1
1
1
1
1
1
1
1
1
1
1
1
1
1
1
1
1
1
1
1
1
1
1
1
1
1
1
1
1
1
1
1
1
1
1
1
1
1
1
1
1
1
1
1
1
1
1
1
1
1
1
1
1
1
1
1
1
1
1
1
1
1
1
1
1
1
1
1
1
1
1
1
1
1
1
1
1
1
1
1
1
1
1
1
1
1
1
1
1
1
1
1
1
1
1
1
1
1
1
1
1
1
1
1
1
1
1
1
1
1
1
1
1
1
1
1
1
1
1
1
1
1
1
1
1
1
1
1
1
1
1
1
1
1
1
1
1
1
1
1
1
1
1
1
1
1
1
1
1
1
1
1
1
1
1
1
1
1
1
1
1
1
1
1
1
1
1
1
1
1
1
1
1
1
1
1
1
1
1
1
1
1
1
1
1
1
1
1
1
1
1
1
1
1
1
1
1
1
1
1
1
1
1
1
1
1
1
1
1
1
1
1
1
1
1
1
1
1
1
1
1
1
1
1
1
1
1
1
1
1
1
1
1
1
1
1
1
1
1
1
1
1
1
1
1
1
1
1
1
1
1
1
1
1
1
1
1
1
1
1
1
1
1
1
1
1
1
1
1
1
1
1
1
1
1
1
1
1
1
1
1
1
1
1
1
1
1
1
1
1
1
1
1
1
1
1
1
1
1
1
1
1
1
1
1
1
1
1
1
1
1
1
1
1
1
1
1
1
1
1
1
1
1
1
1
1
1
1
1
1
1
1
1
1
1
1
1
1
1
1
1
1
1
1
1
1
1
1
1
1
1
1
1
1
1
1
1
1
1
1
1
1
1
1
1
1
1
1
1
1
1
1
1
0.999999
0.999998
0.999997
0.999995
0.999994
0.999992
0.999991
0.999989
0.999987
0.999986
0.999985
0.999983
0.999982
0.999981
0.99998
0.99998
0.999979
0.999979
0.999979
0.999979
0.99998
0.99998
0.999981
0.999982
0.999983
0.999985
0.999986
0.999987
0.999989
0.99999
0.999992
0.999994
0.999995
0.999997
0.999998
0.999999
1
1
1
1
1
1
1
1
1
1
1
1
1
1
1
1
1
1
1
1
1
1
6.67856e-06
9.73209e-06
1.16686e-05
1.29887e-05
1.37979e-05
1.42206e-05
1.43517e-05
1.42572e-05
1.39828e-05
1.35599e-05
1.30105e-05
1.23496e-05
1.15883e-05
1.07347e-05
9.79547e-06
8.77585e-06
7.68161e-06
6.51918e-06
5.29534e-06
4.0156e-06
2.68798e-06
1.2923e-06
3.48733e-07
2.90384e-08
1.34552e-49
1.34552e-49
7.08094e-48
3.74252e-46
1.59302e-44
6.12587e-43
2.07952e-41
6.12899e-40
1.56447e-38
3.42623e-37
6.33813e-36
9.68759e-35
1.18723e-33
1.11914e-32
7.62704e-32
3.36046e-31
2.56929e-31
4.18128e-32
2.10122e-33
5.6882e-35
1.21662e-36
2.3598e-38
4.57544e-40
9.39199e-42
2.05704e-43
4.57851e-45
0
-4.33096e-42
-7.60179e-47
-7.78267e-141
9.04749e-52
1.77071e-51
4.48133e-08
3.91205e-07
1.07655e-06
2.5041e-06
3.88411e-06
5.22101e-06
6.51677e-06
7.76036e-06
8.94357e-06
1.00586e-05
1.1094e-05
1.20401e-05
1.28834e-05
1.36143e-05
1.42156e-05
1.4674e-05
1.49627e-05
1.5054e-05
1.49208e-05
1.45112e-05
1.3662e-05
1.22946e-05
1.04043e-05
7.13802e-06
1.0794e-15
8.47478e-16
1.18185e-15
1.44482e-15
1.68978e-15
1.94647e-15
2.21857e-15
2.50084e-15
2.78998e-15
3.08579e-15
3.3861e-15
3.66756e-15
3.89066e-15
4.03796e-15
4.07684e-15
3.9691e-15
3.67726e-15
3.17689e-15
2.47628e-15
1.63747e-15
8.10698e-16
2.43642e-16
3.57685e-17
-5.5055e-22
-1.12817e-44
2.06677e-42
1.47853e-40
4.53288e-39
1.32962e-37
3.54552e-36
8.42336e-35
1.75877e-33
3.1684e-32
4.80912e-31
5.96281e-30
5.79803e-29
4.27919e-28
2.22339e-27
4.20504e-27
4.26962e-27
4.02932e-27
3.46504e-27
8.45577e-28
2.09964e-33
5.68264e-35
1.21498e-36
2.3558e-38
4.57035e-40
9.39048e-42
2.05693e-43
4.57837e-45
-1.98275e-51
-1.51929e-60
1.00205e-44
3.6163e-46
5.07851e-32
-1.25526e-21
4.5333e-17
2.1896e-16
7.29925e-16
1.55234e-15
2.44376e-15
3.20822e-15
3.76299e-15
4.09658e-15
4.23029e-15
4.19716e-15
4.03587e-15
3.77434e-15
3.43828e-15
3.08934e-15
2.75618e-15
2.44039e-15
2.1461e-15
1.87584e-15
1.62107e-15
1.37993e-15
1.13444e-15
8.1603e-16
1.05056e-15
2.89256e-18
1.60925e-18
2.23142e-18
2.73823e-18
3.25291e-18
3.57314e-18
3.99665e-18
4.63027e-18
5.25248e-18
5.96762e-18
6.88643e-18
7.99407e-18
9.17321e-18
1.1918e-17
1.70053e-17
1.70592e-17
1.61653e-17
1.40884e-17
1.08756e-17
7.03941e-18
3.38452e-18
9.21577e-19
1.15614e-19
-1.45054e-30
1.21388e-41
6.64888e-40
3.87451e-38
1.16794e-36
3.42109e-35
9.12974e-34
2.16954e-32
4.52764e-31
8.14882e-30
1.23617e-28
1.53486e-27
1.50172e-26
1.1194e-25
5.96746e-25
1.36412e-24
1.7064e-24
1.62764e-24
1.09838e-24
2.53927e-25
1.82312e-27
5.31264e-29
1.24e-30
2.6679e-32
5.83942e-34
1.38046e-35
3.57536e-37
1.00036e-38
2.95526e-40
9.382e-42
3.305e-42
4.93286e-44
2.2089e-26
1.13026e-26
1.43457e-19
8.05093e-19
2.96559e-18
6.5788e-18
1.06968e-17
1.44226e-17
1.69081e-17
1.79799e-17
1.54094e-17
1.02031e-17
9.06733e-18
7.86256e-18
6.74523e-18
5.80518e-18
4.99881e-18
4.35897e-18
3.77933e-18
3.34407e-18
3.04942e-18
2.55576e-18
2.09317e-18
1.5123e-18
2.733e-18
4.93286e-20
4.95883e-20
7.24034e-20
8.85576e-20
1.06544e-19
1.27861e-19
1.52478e-19
1.81455e-19
2.16132e-19
2.55598e-19
2.96582e-19
3.35176e-19
3.6827e-19
3.87674e-19
3.77275e-19
3.2855e-19
2.52507e-19
1.3515e-19
8.54038e-20
5.67973e-20
2.57248e-20
6.22786e-21
6.28734e-22
-9.95809e-33
3.29682e-39
8.64185e-38
5.11595e-36
1.52852e-34
4.46734e-33
1.19171e-31
2.82598e-30
5.87545e-29
1.05208e-27
1.58681e-26
1.9597e-25
1.91158e-24
1.42442e-23
7.64684e-23
1.90989e-22
2.5573e-22
2.43282e-22
1.57011e-22
3.46614e-23
3.97647e-25
1.23897e-26
3.11255e-28
7.16923e-30
1.65264e-31
4.03569e-33
1.06436e-34
3.01203e-36
8.99039e-38
2.9144e-39
1.19288e-39
3.56794e-41
7.95207e-29
9.45008e-29
7.47251e-22
5.16497e-21
2.17925e-20
5.32677e-20
8.75753e-20
1.38859e-19
2.89291e-19
3.85902e-19
4.46166e-19
4.54017e-19
4.17821e-19
3.7102e-19
3.19917e-19
2.6786e-19
2.20436e-19
1.81276e-19
1.50106e-19
1.24624e-19
1.03691e-19
8.52048e-20
6.89025e-20
4.72709e-20
4.68268e-20
2.44e-22
2.26568e-22
3.27599e-22
4.05259e-22
4.93577e-22
6.02777e-22
7.36508e-22
8.99428e-22
1.09805e-21
1.33564e-21
1.60293e-21
1.88275e-21
2.1576e-21
2.3811e-21
2.47468e-21
2.25801e-21
1.89501e-21
1.1589e-21
5.57665e-22
3.72535e-22
1.6426e-22
3.75819e-23
3.47851e-24
-8.63769e-34
2.39045e-37
1.61135e-35
4.6955e-34
1.37543e-32
3.98611e-31
1.05853e-29
2.49277e-28
5.13693e-27
9.10238e-26
1.35694e-24
1.6557e-23
1.59713e-22
1.17915e-21
6.29821e-21
1.63995e-20
2.25172e-20
2.14141e-20
1.36463e-20
2.96639e-21
4.29949e-23
1.43581e-24
3.90017e-26
9.69748e-28
2.3841e-29
6.10379e-31
1.66259e-32
4.81164e-34
1.4604e-35
4.85197e-37
1.53666e-37
4.12593e-39
4.80299e-34
1.63968e-31
4.10402e-24
3.0785e-23
1.3774e-22
3.49264e-22
5.82768e-22
1.28085e-21
2.32304e-21
2.7813e-21
3.07978e-21
2.88603e-21
2.5319e-21
2.13964e-21
1.76221e-21
1.42018e-21
1.1328e-21
9.04793e-22
7.25364e-22
5.85465e-22
4.75024e-22
3.83677e-22
3.06342e-22
2.10805e-22
2.25817e-22
1.37948e-24
1.23183e-24
1.77552e-24
2.21967e-24
2.73124e-24
3.37929e-24
4.20064e-24
5.23705e-24
6.54465e-24
8.17619e-24
1.01208e-23
1.23001e-23
1.46072e-23
1.67623e-23
1.81874e-23
1.75364e-23
1.52995e-23
1.042e-23
4.58796e-24
3.01725e-24
1.29312e-24
2.81439e-25
2.42785e-26
5.59745e-34
1.73704e-35
1.15777e-33
3.31675e-32
9.43414e-31
2.69492e-29
7.09768e-28
1.65331e-26
3.36324e-25
5.87205e-24
8.61212e-23
1.03281e-21
9.79265e-21
7.11719e-20
3.7536e-19
9.92936e-19
1.37155e-18
1.30521e-18
8.33821e-19
1.81097e-19
3.05633e-21
1.09716e-22
3.2376e-24
8.76255e-26
2.328e-27
6.35543e-29
1.8196e-30
5.47242e-32
1.7123e-33
1.8671e-34
1.70154e-35
2.99184e-37
8.23803e-36
5.42036e-34
2.83125e-26
2.27801e-25
1.07116e-24
2.80532e-24
4.75657e-24
1.18901e-23
1.92454e-23
2.21824e-23
2.30771e-23
2.06744e-23
1.73891e-23
1.4103e-23
1.11722e-23
8.70003e-24
6.74365e-24
5.25304e-24
4.12025e-24
3.26251e-24
2.60143e-24
2.07495e-24
1.6392e-24
1.12809e-24
1.25722e-24
9.5378e-27
8.41711e-27
1.21556e-26
1.53428e-26
1.90903e-26
2.395e-26
3.02827e-26
3.85114e-26
4.92097e-26
6.30051e-26
8.01348e-26
1.00243e-25
1.22601e-25
1.44995e-25
1.62261e-25
1.63383e-25
1.4578e-25
1.07008e-25
4.91335e-26
2.94303e-26
1.22961e-26
2.56335e-27
2.05398e-28
3.32411e-32
9.72045e-34
6.73934e-32
1.89004e-30
5.1795e-29
1.45312e-27
3.78334e-26
8.68936e-25
1.73925e-23
2.98196e-22
4.28702e-21
5.03268e-20
4.6687e-19
3.32465e-18
1.72263e-17
4.55766e-17
6.27172e-17
5.97611e-17
3.86058e-17
8.41745e-18
1.59633e-19
6.18102e-21
1.9899e-22
5.89966e-24
1.71009e-25
5.0424e-27
1.53944e-28
4.87817e-30
1.59324e-31
3.58496e-32
1.7655e-33
2.17977e-35
4.04196e-35
6.45179e-35
2.39903e-28
2.04911e-27
1.00429e-26
2.70037e-26
5.04565e-26
1.23558e-25
1.85473e-25
2.08286e-25
2.0785e-25
1.80724e-25
1.47106e-25
1.1551e-25
8.86372e-26
6.70129e-26
5.05859e-26
3.8472e-26
2.95435e-26
2.29606e-26
1.8012e-26
1.41873e-26
1.10968e-26
7.61056e-27
8.57841e-27
7.76542e-29
6.82811e-29
9.89457e-29
1.26096e-28
1.58763e-28
2.02112e-28
2.60071e-28
3.37433e-28
4.40821e-28
5.78165e-28
7.54871e-28
9.70751e-28
1.22112e-27
1.48596e-27
1.71238e-27
1.78927e-27
1.63472e-27
1.27364e-27
6.3134e-28
3.39697e-28
1.3897e-28
2.76224e-29
3.92146e-30
1.68613e-30
4.15066e-32
3.32819e-30
9.13645e-29
2.42351e-27
6.48668e-26
1.64798e-24
3.72501e-23
7.31837e-22
1.22904e-20
1.72736e-19
1.97909e-18
1.79022e-17
1.24532e-16
6.33013e-16
1.67919e-15
2.30828e-15
2.20067e-15
1.43195e-15
3.10324e-16
6.49085e-18
2.72123e-19
9.59694e-21
3.13346e-22
9.98349e-24
3.21167e-25
1.05829e-26
3.57754e-28
1.23899e-29
2.87922e-30
1.40065e-31
4.2943e-33
8.67165e-35
2.2442e-33
2.36335e-30
2.20475e-29
1.11766e-28
3.06758e-28
6.21112e-28
1.46304e-27
2.07949e-27
2.27925e-27
2.19946e-27
1.85974e-27
1.47018e-27
1.12048e-27
8.34621e-28
6.13549e-28
4.51372e-28
3.35261e-28
2.52046e-28
1.9224e-28
1.48374e-28
1.15381e-28
8.93582e-29
6.10175e-29
6.89953e-29
7.28005e-31
6.40646e-31
9.32394e-31
1.19988e-30
1.52943e-30
1.97672e-30
2.58959e-30
3.42899e-30
4.58108e-30
6.15594e-30
8.25068e-30
1.09072e-29
1.41128e-29
1.76731e-29
2.09812e-29
2.27176e-29
2.12613e-29
1.74691e-29
9.35818e-30
4.53822e-30
1.81595e-30
1.04117e-30
2.7886e-30
3.92146e-30
2.30918e-30
1.37656e-28
3.72646e-27
9.55792e-26
2.41316e-24
5.95422e-23
1.32368e-21
2.54854e-20
4.18529e-19
5.74039e-18
6.40619e-17
5.63945e-16
3.84401e-15
2.00876e-14
4.80396e-14
6.20971e-14
5.96761e-14
4.21384e-14
1.00026e-14
2.1254e-16
9.69177e-18
3.76024e-19
1.35845e-20
4.78462e-22
1.69169e-23
6.07278e-25
2.21296e-26
1.46959e-27
1.96125e-28
8.74109e-30
2.95579e-31
3.67327e-33
6.70499e-32
9.50511e-32
2.75406e-31
1.44521e-30
4.05732e-30
9.02441e-30
1.97901e-29
2.68474e-29
2.87535e-29
2.68908e-29
2.21209e-29
1.69969e-29
1.25822e-29
9.10357e-30
6.50972e-30
4.66753e-30
3.38557e-30
2.49133e-30
1.86454e-30
1.4158e-30
1.08679e-30
8.33361e-31
5.66241e-31
6.39534e-31
7.71551e-33
6.81383e-33
9.96642e-33
1.29534e-32
1.6722e-32
2.19514e-32
2.92896e-32
3.9598e-32
5.41262e-32
7.4557e-32
1.02629e-31
1.39551e-31
1.85879e-31
2.39783e-31
2.93669e-31
3.29757e-31
3.16193e-31
2.72529e-31
1.51471e-31
1.39873e-31
2.47033e-31
6.9768e-31
1.04117e-30
5.52641e-30
1.75246e-28
4.89056e-27
1.28352e-25
3.18151e-24
7.5626e-23
1.8047e-21
3.93114e-20
7.41253e-19
1.18936e-17
1.59062e-16
1.72823e-15
1.48945e-14
1.03715e-13
4.18367e-13
7.66486e-13
8.68001e-13
8.50129e-13
7.05363e-13
2.20051e-13
5.72258e-15
2.85471e-16
1.22441e-17
4.91659e-19
1.92252e-20
7.50229e-22
2.94837e-23
1.16585e-24
2.35835e-25
1.31682e-26
4.70835e-28
1.75245e-29
5.23762e-31
9.50511e-32
8.12465e-32
5.49389e-32
4.24359e-32
6.07947e-32
1.48154e-31
3.04101e-31
3.94469e-31
4.13566e-31
3.74123e-31
2.99326e-31
2.23467e-31
1.60631e-31
1.12874e-31
7.84966e-32
5.48377e-32
3.8831e-32
2.79607e-32
2.05288e-32
1.5334e-32
1.16169e-32
8.8191e-33
5.96019e-33
6.70609e-33
9.10183e-35
8.08131e-35
1.18852e-34
1.56042e-34
2.04082e-34
2.7222e-34
3.70112e-34
5.11144e-34
7.15284e-34
1.01071e-33
1.43003e-33
2.00201e-33
2.74848e-33
3.65764e-33
4.62936e-33
5.40472e-33
5.22793e-33
4.05579e-33
7.38489e-33
7.82907e-32
1.39873e-31
2.47033e-31
5.69388e-30
1.84644e-28
5.43368e-27
1.49318e-25
3.83914e-24
9.24341e-23
2.10158e-21
4.65337e-20
9.77314e-19
1.80686e-17
2.83313e-16
3.69834e-15
3.95432e-14
3.43693e-13
1.59907e-12
3.56501e-12
7.94643e-12
1.07212e-11
1.03083e-11
6.56609e-12
1.91111e-12
1.28375e-13
7.06472e-15
3.37262e-16
1.5145e-17
6.60981e-19
2.85776e-20
1.23263e-21
5.39238e-23
1.23643e-23
6.9228e-25
2.43001e-26
9.25573e-28
3.31616e-29
1.05717e-30
5.49389e-32
4.24359e-32
2.36726e-32
4.01138e-33
3.00906e-33
5.17987e-33
6.52958e-33
6.69897e-33
5.85031e-33
4.54414e-33
3.29311e-33
2.29663e-33
1.56635e-33
1.05877e-33
7.20264e-34
4.97662e-34
3.50506e-34
2.52377e-34
1.85403e-34
1.38597e-34
1.04155e-34
6.99912e-35
7.83165e-35
1.17968e-36
1.05435e-36
1.55974e-36
2.06903e-36
2.74245e-36
3.71853e-36
5.15413e-36
7.27562e-36
1.04308e-35
1.51325e-35
2.2029e-35
3.17901e-35
4.50504e-35
6.21067e-35
8.06094e-35
8.19565e-35
1.3294e-34
1.91352e-33
3.90933e-33
7.38489e-33
1.2504e-31
4.28892e-30
1.48286e-28
4.71932e-27
1.38993e-25
3.79242e-24
9.59548e-23
2.2539e-21
4.91278e-20
1.00929e-18
2.03891e-17
3.68262e-16
5.6639e-15
7.33534e-14
7.83146e-13
4.21178e-12
1.04533e-11
4.00398e-11
1.08067e-10
1.44388e-10
1.39045e-10
9.3125e-11
2.53456e-11
2.41967e-12
1.48522e-13
7.96652e-15
4.03669e-16
1.98373e-17
9.57925e-19
4.56915e-20
1.00008e-20
6.60386e-22
2.67478e-23
1.10512e-24
4.28448e-26
1.54374e-27
5.15345e-29
1.58971e-30
4.40831e-32
4.01138e-33
3.00906e-33
1.55573e-33
1.29526e-34
9.38204e-35
1.20236e-34
1.01693e-34
7.64963e-35
5.3727e-35
3.63092e-35
2.40129e-35
1.57641e-35
1.04355e-35
7.03143e-36
4.84159e-36
3.41759e-36
2.4686e-36
1.82051e-36
1.35409e-36
9.04521e-37
1.00535e-36
1.66129e-38
1.496e-38
2.22676e-38
2.98514e-38
4.01129e-38
5.53114e-38
7.81969e-38
1.12896e-37
1.65952e-37
2.47416e-37
3.70979e-37
5.528e-37
8.11516e-37
1.09482e-36
1.32568e-36
1.58398e-35
4.70081e-35
1.39524e-34
1.9951e-33
7.48577e-32
2.78239e-30
9.53823e-29
3.08969e-27
1.0041e-25
2.9856e-24
8.1502e-23
2.04333e-21
4.70593e-20
9.95052e-19
1.94235e-17
3.59781e-16
6.26107e-15
9.61587e-14
1.21974e-12
7.95967e-12
2.51209e-11
1.16977e-10
4.81848e-10
1.47958e-09
1.90668e-09
1.8436e-09
1.28789e-09
3.59625e-10
3.85433e-11
2.66653e-12
1.62293e-13
9.36298e-15
5.22506e-16
2.8418e-17
3.60395e-18
4.20255e-19
2.33105e-20
1.01943e-21
4.30439e-23
1.68198e-24
6.04123e-26
1.99227e-27
6.02373e-29
1.66188e-30
4.61547e-32
1.62067e-33
1.241e-34
6.36177e-35
2.86158e-35
2.21827e-36
1.70171e-36
1.41173e-36
9.61348e-37
6.27856e-37
4.0219e-37
2.56191e-37
1.64899e-37
1.08282e-37
7.28553e-38
5.03963e-38
3.57821e-38
2.60261e-38
1.91567e-38
1.27174e-38
1.40289e-38
2.51768e-40
2.28584e-40
3.42436e-40
4.64026e-40
6.32338e-40
8.87068e-40
1.27981e-39
1.891e-39
2.8523e-39
4.37454e-39
6.77739e-39
1.0341e-38
1.23562e-38
6.3827e-38
4.49001e-37
1.15632e-36
1.61883e-35
7.14572e-34
3.21958e-32
1.33949e-30
5.10723e-29
1.78596e-27
5.70456e-26
1.69344e-24
5.13553e-23
1.41679e-21
3.55257e-20
8.09534e-19
1.67465e-17
3.14098e-16
5.418e-15
8.98714e-14
1.29556e-12
1.02889e-11
4.406e-11
2.5465e-10
1.30091e-09
5.67056e-09
1.68826e-08
2.08989e-08
2.02998e-08
1.48773e-08
4.37227e-09
5.18937e-10
4.08951e-11
2.85198e-12
1.88787e-13
1.20327e-14
7.91542e-16
1.99658e-16
1.54046e-17
6.96184e-19
3.24642e-20
1.38929e-21
5.40764e-23
1.91311e-24
6.13523e-26
1.86136e-27
6.22126e-29
1.95287e-30
5.12153e-32
1.22228e-33
2.92949e-35
1.80199e-36
7.08953e-37
2.46901e-37
2.44121e-38
1.78585e-38
1.17792e-38
7.2903e-39
4.50025e-39
2.81413e-39
1.79972e-39
1.1826e-39
8.01321e-40
5.5909e-40
4.00979e-40
2.9202e-40
1.92624e-40
2.10759e-40
4.07166e-42
3.72913e-42
5.62383e-42
7.70471e-42
1.06508e-41
1.52069e-41
2.24008e-41
3.38956e-41
5.25128e-41
8.29874e-41
1.27918e-40
1.92249e-40
3.41617e-39
8.40875e-39
6.46307e-38
3.13315e-36
1.74308e-34
8.99619e-33
4.23687e-31
1.82334e-29
7.17137e-28
2.57659e-26
8.44747e-25
2.51266e-23
6.90906e-22
1.93858e-20
4.9243e-19
1.12321e-17
2.3001e-16
4.23302e-15
7.08746e-14
9.67852e-13
8.39032e-12
5.49348e-11
4.0056e-10
2.48528e-09
1.32655e-08
5.54845e-08
1.59991e-07
1.89379e-07
1.84891e-07
1.42859e-07
4.42684e-08
5.86197e-09
5.33681e-10
4.3159e-11
3.30436e-12
2.42024e-13
6.59631e-14
6.38933e-15
3.41613e-16
1.77425e-17
8.37485e-19
3.56148e-20
1.36007e-21
4.61874e-23
1.7991e-24
6.35631e-26
1.92588e-27
5.29804e-29
1.33442e-30
3.07545e-32
6.48159e-34
1.25694e-35
2.483e-37
1.56933e-38
5.84745e-39
9.41247e-40
1.97157e-40
1.40973e-40
8.48149e-41
5.14204e-41
3.20057e-41
2.05291e-41
1.36206e-41
9.33585e-42
6.60073e-42
4.75545e-42
3.11625e-42
3.38027e-42
6.97435e-44
6.44632e-44
9.78843e-44
1.35608e-43
1.9022e-43
2.7652e-43
4.16096e-43
6.45303e-43
1.02465e-42
1.58035e-42
4.43661e-42
4.85456e-41
2.05313e-40
5.67321e-39
3.84346e-37
2.51906e-35
1.50121e-33
8.13908e-32
4.01994e-30
1.80917e-28
7.41628e-27
2.76646e-25
9.37663e-24
2.88137e-22
7.96602e-21
2.02838e-19
5.28306e-18
1.22498e-16
2.52934e-15
4.7573e-14
6.3978e-13
5.23195e-12
4.75795e-11
4.1829e-10
3.45437e-09
2.41694e-08
1.21313e-07
4.46932e-07
1.25248e-06
1.41191e-06
1.38586e-06
1.13461e-06
3.70055e-07
5.3953e-08
5.89036e-09
5.61765e-10
5.03183e-11
4.95793e-12
1.17753e-12
1.23909e-13
6.92847e-15
3.59416e-16
1.6812e-17
6.91855e-19
2.97851e-20
1.18594e-21
4.21709e-23
1.35593e-24
3.95903e-26
1.0517e-27
2.54517e-29
5.61709e-31
1.13107e-32
2.0773e-34
3.47324e-36
5.35441e-38
9.22363e-40
1.02512e-40
4.06424e-41
2.68968e-42
1.66853e-42
9.98825e-43
6.04341e-43
3.78182e-43
2.45602e-43
1.65332e-43
1.15214e-43
8.2101e-44
5.34399e-44
5.74472e-44
1.25679e-45
1.17272e-45
1.79325e-45
2.51268e-45
3.57735e-45
5.2966e-45
8.14574e-45
1.28937e-44
2.03859e-44
7.12882e-44
6.36505e-43
4.5464e-42
2.94428e-40
2.46581e-38
1.91249e-36
1.33909e-34
8.50457e-33
4.90595e-31
2.57206e-29
1.22541e-27
5.30124e-26
2.07946e-24
7.38106e-23
2.36469e-21
6.80012e-20
1.75514e-18
4.31848e-17
1.03517e-15
2.1863e-14
3.4175e-13
3.58707e-12
3.81106e-11
3.40887e-10
3.04389e-09
2.33059e-08
1.73548e-07
1.12624e-06
4.13438e-06
8.04545e-06
8.61914e-06
8.50585e-06
7.3996e-06
3.12009e-06
3.84365e-07
5.39654e-08
6.22656e-09
6.75733e-10
7.5609e-11
9.37822e-12
1.08277e-12
9.36244e-14
5.10107e-15
2.27525e-16
1.03171e-17
4.41564e-19
1.68701e-20
5.77979e-22
1.78552e-23
4.98776e-25
1.26276e-26
2.90274e-28
6.06746e-30
1.15425e-31
1.99855e-33
3.14704e-35
4.49784e-37
5.82024e-39
7.24775e-41
2.23529e-42
5.38549e-43
3.50944e-44
1.99216e-44
1.20227e-44
7.3422e-45
4.66549e-45
3.08384e-45
2.11776e-45
1.4925e-45
9.64841e-46
1.02758e-45
2.36798e-47
2.23125e-47
3.43639e-47
4.87064e-47
7.03977e-47
1.06194e-46
1.66473e-46
2.63189e-46
4.90558e-46
7.93236e-45
7.71261e-44
8.15828e-42
9.16825e-40
8.46792e-38
7.02005e-36
4.89743e-34
3.10985e-32
1.81809e-30
9.77674e-29
4.83296e-27
2.19367e-25
9.12471e-24
3.46764e-22
1.1987e-20
3.74604e-19
1.05881e-17
2.77265e-16
6.68852e-15
1.22733e-13
1.46849e-12
1.89217e-11
1.79716e-10
1.82072e-09
1.55673e-08
1.10446e-07
6.44586e-07
8.60169e-06
2.96566e-05
4.22236e-05
4.30931e-05
4.27443e-05
3.93582e-05
2.02384e-05
1.76521e-06
3.24131e-07
5.15932e-08
6.87175e-09
7.7781e-10
7.91487e-11
7.49188e-12
5.8546e-13
4.07746e-14
1.98367e-15
8.19332e-17
3.12467e-18
1.13242e-19
3.70457e-21
1.08517e-22
2.86257e-24
6.82064e-26
1.47144e-27
2.87963e-29
5.11907e-31
8.26848e-33
1.21287e-34
1.61356e-36
2.08742e-38
2.4795e-40
2.13991e-42
4.218e-44
6.70367e-45
4.16847e-46
2.4417e-46
1.491e-46
9.27801e-47
6.02038e-47
4.07373e-47
2.83912e-47
1.82269e-47
1.92278e-47
4.63856e-49
4.41467e-49
6.84854e-49
9.82014e-49
1.4412e-48
2.21314e-48
3.47745e-48
5.91966e-48
8.70262e-47
8.70698e-46
1.23738e-43
1.36839e-41
1.41898e-39
1.36146e-37
1.14631e-35
9.4313e-34
7.02713e-32
4.66319e-30
2.80395e-28
1.52952e-26
7.56323e-25
3.36138e-23
1.3347e-21
4.79542e-20
1.55111e-18
4.50092e-17
1.18105e-15
2.88385e-14
4.52785e-13
3.54047e-12
4.64378e-11
3.95639e-10
3.98318e-09
3.3396e-08
2.27341e-07
1.26687e-06
3.86113e-05
9.91857e-05
0.000183352
0.000179994
0.000179313
0.000172446
9.3724e-05
9.04719e-06
7.77403e-07
1.32709e-07
1.84557e-08
2.10147e-09
2.14585e-10
2.27996e-11
1.94376e-12
1.87713e-13
1.03179e-14
4.23755e-16
1.61443e-17
5.57353e-19
1.75119e-20
4.8887e-22
1.22402e-23
2.7819e-25
5.75705e-27
1.0871e-28
1.83645e-30
2.82305e-32
3.96098e-34
5.05181e-36
5.82035e-38
5.99045e-40
5.65625e-42
5.02718e-44
5.79472e-46
5.67097e-47
5.38551e-48
3.09915e-48
1.9189e-48
1.22303e-48
8.15355e-49
5.61923e-49
3.58237e-49
3.74251e-49
9.39709e-51
9.03512e-51
1.41191e-50
2.04832e-50
3.05213e-50
4.7446e-50
7.66458e-50
1.52887e-49
2.04319e-48
3.93258e-46
7.15292e-44
9.22487e-42
1.06392e-39
1.12066e-37
1.11573e-35
9.55003e-34
7.18265e-32
5.00837e-30
3.15712e-28
1.79492e-26
9.23327e-25
4.33404e-23
1.86935e-21
7.1972e-20
2.46284e-18
7.5139e-17
2.07683e-15
5.30327e-14
8.04838e-13
5.28874e-12
5.00725e-11
4.4184e-10
3.83649e-09
3.42783e-08
2.28709e-07
1.13562e-06
8.29011e-05
0.000305965
0.000569415
0.000659759
0.000659301
0.000633468
0.00063875
4.46334e-05
8.00303e-07
1.39996e-07
2.03581e-08
2.30988e-09
2.83432e-10
3.01294e-11
4.16604e-12
4.37822e-13
2.37056e-14
9.62362e-16
3.53366e-17
1.15567e-18
3.35984e-20
8.93856e-22
2.16323e-23
4.7336e-25
9.31983e-27
1.66355e-28
2.76698e-30
4.20936e-32
5.81494e-34
7.29672e-36
8.36162e-38
8.77841e-40
8.23935e-42
6.73295e-44
4.02122e-46
2.89276e-48
1.49438e-49
6.7479e-50
4.08848e-50
2.57105e-50
1.68895e-50
1.15102e-50
7.28678e-51
7.53773e-51
1.95914e-52
1.90326e-52
2.99609e-52
4.39763e-52
6.65109e-52
1.04584e-51
1.69251e-51
4.21156e-51
8.51065e-50
8.24814e-48
3.49069e-45
7.75592e-43
1.2682e-40
1.72132e-38
2.02225e-36
2.29025e-34
2.50168e-32
2.12922e-30
1.58469e-28
1.06022e-26
6.30245e-25
3.31549e-23
1.53515e-21
6.35403e-20
2.35192e-18
7.68421e-17
2.25854e-15
5.87281e-14
1.06588e-12
8.21995e-12
2.91322e-11
2.30215e-10
2.54903e-09
2.60474e-08
1.56661e-07
6.07925e-07
0.000112276
0.00196739
0.00158083
0.0022312
0.00223658
0.00134877
0.00215695
6.26484e-05
4.23289e-07
1.00609e-07
1.73762e-08
1.96273e-09
2.32422e-10
3.17863e-11
6.94939e-12
6.78189e-13
3.25899e-14
1.29214e-15
4.64256e-17
1.49528e-18
4.29561e-20
1.09321e-21
2.48462e-23
5.08992e-25
9.53424e-27
1.61908e-28
2.46236e-30
3.39542e-32
4.28016e-34
4.92305e-36
5.12534e-38
4.80539e-40
4.07582e-42
3.11918e-44
2.06239e-46
9.17197e-49
1.42245e-50
1.55215e-51
8.92192e-52
5.5625e-52
3.6026e-52
2.42799e-52
1.5264e-52
1.56328e-52
4.18386e-54
4.10731e-54
6.51313e-54
9.67169e-54
1.48465e-53
2.37197e-53
2.79769e-53
1.53237e-52
4.21156e-51
6.48122e-49
1.18666e-46
1.94441e-44
2.8685e-42
3.83508e-40
1.49642e-37
2.53267e-35
3.37497e-33
5.01402e-31
5.01733e-29
4.06053e-27
2.82094e-25
1.70944e-23
9.0218e-22
4.164e-20
1.66824e-18
5.83496e-17
1.81467e-15
5.05693e-14
9.88047e-13
7.9227e-12
2.00694e-11
6.58268e-11
9.81324e-10
1.51007e-08
3.93609e-08
1.85983e-07
8.7801e-05
0.00614994
0.00380277
0.00720763
0.0067936
0.00222434
0.00264317
3.93308e-05
1.21655e-07
2.69792e-08
1.23665e-08
1.62928e-09
1.92474e-10
4.28884e-11
7.99559e-12
7.08753e-13
3.34708e-14
1.26126e-15
4.32301e-17
1.31743e-18
3.54515e-20
8.48939e-22
1.82238e-23
3.5031e-25
6.01763e-27
9.33656e-29
1.31488e-30
1.68047e-32
1.94077e-34
2.0314e-36
1.93193e-38
1.66678e-40
1.30162e-42
9.13687e-45
5.78367e-47
2.9955e-49
1.11688e-51
4.09962e-53
2.01548e-53
1.231e-53
7.87526e-54
5.24968e-54
3.27756e-54
3.32313e-54
9.11207e-56
9.04031e-56
1.44399e-55
2.16912e-55
3.38075e-55
5.44772e-55
4.12493e-55
3.7613e-54
1.53237e-52
2.91133e-50
5.99924e-48
1.11051e-45
1.8581e-43
2.82565e-41
3.92011e-39
4.97699e-37
2.21236e-34
5.1167e-32
1.1819e-29
1.2834e-27
1.09213e-25
7.68987e-24
4.60452e-22
2.36401e-20
1.04508e-18
3.97955e-17
1.33555e-15
4.07072e-14
8.53778e-13
6.85323e-12
1.66852e-11
2.78456e-11
1.31626e-09
1.13978e-08
4.60318e-09
1.87529e-08
6.86522e-06
0.00722946
0.118011
0.0818524
0.0828899
0.109443
0.00190455
3.06415e-06
7.86896e-09
6.06572e-09
9.58591e-09
2.18611e-09
2.06243e-10
4.40156e-11
7.43347e-12
6.27874e-13
2.85709e-14
1.02115e-15
3.30929e-17
9.47553e-19
2.38046e-20
5.27682e-22
1.03802e-23
1.82985e-25
2.89318e-27
4.11929e-29
5.28554e-31
6.14724e-33
6.48914e-35
6.21508e-37
5.40019e-39
4.2489e-41
3.02905e-43
1.94705e-45
1.12331e-47
5.82956e-50
2.2048e-52
1.59281e-54
4.6794e-55
2.7753e-55
1.7563e-55
1.15828e-55
7.18249e-56
7.20898e-56
2.0154e-57
2.02089e-57
3.25108e-57
4.93971e-57
7.81271e-57
1.25367e-56
7.07514e-57
7.53604e-56
3.7613e-54
7.86011e-52
1.81169e-49
3.79366e-47
7.25244e-45
1.27028e-42
2.04593e-40
3.04396e-38
4.20861e-36
1.799e-33
1.78103e-30
3.34537e-28
3.58563e-26
2.9629e-24
2.03403e-22
1.18451e-20
5.85857e-19
2.45733e-17
8.9329e-16
2.95557e-14
6.73085e-13
5.63862e-12
1.48391e-11
2.32077e-11
1.49037e-09
8.43078e-09
6.56082e-10
9.96421e-10
1.09365e-07
0.00701605
0.383994
0.364165
0.364906
0.376562
0.00102395
8.11161e-09
8.45753e-10
2.30016e-09
7.38015e-09
2.29287e-09
2.1498e-10
3.93395e-11
6.1749e-12
4.96758e-13
2.14134e-14
7.14446e-16
2.1553e-17
5.72449e-19
1.32804e-20
2.70657e-22
4.88086e-24
7.83918e-26
1.12889e-27
1.46479e-29
1.71161e-31
1.80831e-33
1.73102e-35
1.50646e-37
1.19067e-39
8.52958e-42
5.53179e-44
3.23638e-46
1.7014e-48
8.01959e-51
3.28551e-53
1.04017e-55
1.11763e-56
6.36738e-57
3.97863e-57
2.59688e-57
1.59966e-57
1.58932e-57
4.50883e-59
4.56975e-59
7.40295e-59
1.13744e-58
1.82543e-58
2.95995e-58
1.97618e-58
1.54088e-57
7.53604e-56
1.55268e-53
3.80628e-51
8.63014e-49
1.82112e-46
3.58847e-44
6.62739e-42
1.15096e-39
1.88502e-37
2.93054e-35
4.58947e-32
6.75914e-29
9.74929e-27
9.74983e-25
7.77252e-23
5.12316e-21
2.82436e-19
1.30862e-17
5.20079e-16
1.85893e-14
4.67273e-13
4.41412e-12
1.319e-11
2.20015e-11
1.17913e-09
6.04983e-09
4.86654e-10
-9.72843e-10
3.8058e-08
0.00677665
0.400519
0.400427
0.400519
0.400427
0.000967843
7.63435e-10
5.71651e-10
2.05662e-09
6.22044e-09
2.02235e-09
1.93195e-10
3.26739e-11
4.7341e-12
3.52537e-13
1.41735e-14
4.4103e-16
1.22772e-17
2.99202e-19
6.34271e-21
1.18061e-22
1.94373e-24
2.84138e-26
3.71011e-28
4.35492e-30
4.61311e-32
4.41847e-34
3.83003e-36
3.01066e-38
2.15156e-40
1.39717e-42
8.22105e-45
4.36577e-47
2.08327e-49
8.88386e-52
3.38751e-54
1.00772e-56
2.79259e-58
1.48123e-58
9.11824e-59
5.89253e-59
3.60649e-59
3.54676e-59
1.01638e-60
1.04125e-60
1.69825e-60
2.63769e-60
4.29377e-60
7.16473e-60
6.45643e-60
3.33305e-59
1.54088e-57
2.97813e-55
7.42139e-53
1.7223e-50
3.75747e-48
7.75143e-46
1.52693e-43
2.90459e-41
5.37534e-39
9.6904e-37
5.26122e-34
8.24894e-30
2.23547e-27
2.78437e-25
2.56369e-23
1.90398e-21
1.17247e-19
6.03375e-18
2.63418e-16
1.01482e-14
2.87384e-13
3.26494e-12
1.11186e-11
1.28791e-11
7.34575e-10
4.06311e-09
4.79205e-10
-6.17e-10
1.12902e-08
0.00597349
0.400276
0.400473
0.400427
0.399134
0.00102836
5.71651e-10
5.43087e-10
2.11474e-09
5.13612e-09
1.54148e-09
1.4937e-10
2.52132e-11
3.32639e-12
2.21766e-13
8.20773e-15
2.38323e-16
6.12057e-18
1.36651e-19
2.64155e-21
4.46775e-23
6.67264e-25
8.85066e-27
1.04664e-28
1.10848e-30
1.05822e-32
9.13341e-35
7.14869e-37
5.06917e-39
3.2626e-41
1.9091e-43
1.01335e-45
4.86682e-48
2.10221e-50
8.11835e-53
2.78793e-55
8.34881e-58
7.75941e-60
3.47576e-60
2.10617e-60
1.348e-60
8.1996e-61
7.98157e-61
2.30021e-62
2.38179e-62
3.91015e-62
6.1368e-62
1.01309e-61
1.74314e-61
1.90167e-61
7.83015e-61
3.33305e-59
6.05439e-57
1.53356e-54
3.6247e-52
8.08059e-50
1.70523e-47
3.53678e-45
7.20835e-43
1.4543e-40
2.94507e-38
5.95896e-35
2.37084e-31
4.15124e-28
6.7086e-26
7.27118e-24
6.17438e-22
4.28906e-20
2.4669e-18
1.18329e-16
4.93374e-15
1.59138e-13
2.21919e-12
8.95431e-12
6.05982e-12
3.86174e-10
2.55725e-09
4.81505e-10
2.01263e-11
5.07573e-09
0.00490061
0.396156
0.396842
0.396444
0.394059
0.00117606
5.41394e-10
5.06204e-10
2.25251e-09
3.91688e-09
1.0408e-09
1.03911e-10
1.79236e-11
2.1298e-12
1.25192e-13
4.22281e-15
1.13804e-16
2.69268e-18
5.49609e-20
9.68116e-22
1.48511e-23
2.00527e-25
2.39953e-27
2.55906e-29
2.43889e-31
2.08928e-33
1.61706e-35
1.13506e-37
7.23734e-40
4.1849e-42
2.19868e-44
1.04868e-46
4.52945e-49
1.76477e-51
6.15985e-54
1.91179e-56
5.27535e-59
2.5477e-61
8.19071e-62
4.88578e-62
3.09753e-62
1.87302e-62
1.8048e-62
5.20787e-64
5.45016e-64
9.00346e-64
1.42723e-63