/*--------------------------------*- C++ -*----------------------------------*\
| =========                 |                                                 |
| \\      /  F ield         | OpenFOAM: The Open Source CFD Toolbox           |
|  \\    /   O peration     | Version:  2412                                  |
|   \\  /    A nd           | Website:  www.openfoam.com                      |
|    \\/     M anipulation  |                                                 |
\*---------------------------------------------------------------------------*/
FoamFile
{
    version     2.0;
    format      ascii;
    arch        "LSB;label=32;scalar=64";
    class       volVectorField;
    location    "1.5";
    object      U;
}
// * * * * * * * * * * * * * * * * * * * * * * * * * * * * * * * * * * * * * //

dimensions      [0 1 -1 0 0 0 0];

internalField   nonuniform List<vector> 
6400
(
(2.64872e-10 -2.35468e-10 0)
(-7.11701e-10 3.29878e-10 0)
(-3.94072e-09 9.04318e-10 0)
(-9.22448e-09 1.31445e-09 0)
(-1.60425e-08 1.58523e-09 0)
(-2.39358e-08 1.75284e-09 0)
(-3.25515e-08 1.84667e-09 0)
(-4.16049e-08 1.88647e-09 0)
(-5.08655e-08 1.88641e-09 0)
(-6.01461e-08 1.85315e-09 0)
(-6.92965e-08 1.79272e-09 0)
(-7.8195e-08 1.71481e-09 0)
(-8.67375e-08 1.61466e-09 0)
(-9.48345e-08 1.50238e-09 0)
(-1.02408e-07 1.37457e-09 0)
(-1.09386e-07 1.23564e-09 0)
(-1.15705e-07 1.08556e-09 0)
(-1.21303e-07 9.24665e-10 0)
(-1.26124e-07 7.5422e-10 0)
(-1.30109e-07 5.75613e-10 0)
(-1.33208e-07 3.89586e-10 0)
(-1.3537e-07 1.96626e-10 0)
(-1.36553e-07 -2.66651e-12 0)
(-1.3672e-07 -2.07038e-10 0)
(-1.35838e-07 -4.15175e-10 0)
(-1.33884e-07 -6.25412e-10 0)
(-1.30844e-07 -8.35551e-10 0)
(-1.26714e-07 -1.04335e-09 0)
(-1.215e-07 -1.24708e-09 0)
(-1.15222e-07 -1.44501e-09 0)
(-1.0791e-07 -1.63503e-09 0)
(-9.96101e-08 -1.81468e-09 0)
(-9.03789e-08 -1.98151e-09 0)
(-8.02873e-08 -2.1331e-09 0)
(-6.94186e-08 -2.26715e-09 0)
(-5.78683e-08 -2.38133e-09 0)
(-4.57434e-08 -2.47332e-09 0)
(-3.31617e-08 -2.54105e-09 0)
(-2.02495e-08 -2.58311e-09 0)
(-7.13897e-09 -2.59892e-09 0)
(6.03479e-09 -2.58851e-09 0)
(1.91364e-08 -2.55216e-09 0)
(3.2032e-08 -2.49037e-09 0)
(4.45913e-08 -2.40399e-09 0)
(5.66897e-08 -2.29447e-09 0)
(6.82105e-08 -2.16394e-09 0)
(7.90477e-08 -2.01505e-09 0)
(8.91074e-08 -1.85076e-09 0)
(9.83086e-08 -1.67402e-09 0)
(1.06584e-07 -1.48759e-09 0)
(1.13878e-07 -1.29407e-09 0)
(1.20149e-07 -1.09608e-09 0)
(1.25367e-07 -8.96404e-10 0)
(1.29515e-07 -6.97781e-10 0)
(1.32587e-07 -5.02511e-10 0)
(1.34587e-07 -3.12129e-10 0)
(1.35529e-07 -1.27525e-10 0)
(1.35431e-07 5.06469e-11 0)
(1.3432e-07 2.21934e-10 0)
(1.3223e-07 3.86137e-10 0)
(1.29201e-07 5.43688e-10 0)
(1.25276e-07 6.95513e-10 0)
(1.20504e-07 8.42526e-10 0)
(1.14937e-07 9.85345e-10 0)
(1.08632e-07 1.12394e-09 0)
(1.0165e-07 1.25724e-09 0)
(9.40593e-08 1.38296e-09 0)
(8.59376e-08 1.49893e-09 0)
(7.73679e-08 1.60352e-09 0)
(6.84425e-08 1.69382e-09 0)
(5.92706e-08 1.76359e-09 0)
(4.9985e-08 1.80599e-09 0)
(4.07443e-08 1.81644e-09 0)
(3.17371e-08 1.78754e-09 0)
(2.31955e-08 1.70212e-09 0)
(1.54104e-08 1.53925e-09 0)
(8.73149e-09 1.2779e-09 0)
(3.5954e-09 8.89894e-10 0)
(4.92465e-10 3.37516e-10 0)
(-3.75925e-10 -2.66474e-10 0)
(-7.83502e-11 5.1784e-10 0)
(-4.17739e-09 4.39014e-09 0)
(-1.29292e-08 8.46412e-09 0)
(-2.60618e-08 1.17787e-08 0)
(-4.25979e-08 1.42807e-08 0)
(-6.16493e-08 1.60432e-08 0)
(-8.24711e-08 1.71832e-08 0)
(-1.04422e-07 1.78158e-08 0)
(-1.26954e-07 1.80377e-08 0)
(-1.49614e-07 1.79231e-08 0)
(-1.72021e-07 1.75281e-08 0)
(-1.93856e-07 1.69076e-08 0)
(-2.14847e-07 1.6081e-08 0)
(-2.34761e-07 1.50908e-08 0)
(-2.53392e-07 1.3946e-08 0)
(-2.70555e-07 1.26664e-08 0)
(-2.86082e-07 1.12637e-08 0)
(-2.99818e-07 9.74688e-09 0)
(-3.11616e-07 8.12472e-09 0)
(-3.21339e-07 6.40508e-09 0)
(-3.28861e-07 4.59632e-09 0)
(-3.34065e-07 2.70798e-09 0)
(-3.36847e-07 7.50721e-10 0)
(-3.37119e-07 -1.26233e-09 0)
(-3.3481e-07 -3.31697e-09 0)
(-3.29867e-07 -5.39765e-09 0)
(-3.22261e-07 -7.48602e-09 0)
(-3.11986e-07 -9.56204e-09 0)
(-2.99063e-07 -1.16054e-08 0)
(-2.83542e-07 -1.35947e-08 0)
(-2.65502e-07 -1.55063e-08 0)
(-2.45054e-07 -1.73154e-08 0)
(-2.22342e-07 -1.89977e-08 0)
(-1.97541e-07 -2.05292e-08 0)
(-1.70854e-07 -2.18873e-08 0)
(-1.42516e-07 -2.30501e-08 0)
(-1.12787e-07 -2.39971e-08 0)
(-8.19537e-08 -2.47106e-08 0)
(-5.03188e-08 -2.51778e-08 0)
(-1.82008e-08 -2.5391e-08 0)
(1.40748e-08 -2.53479e-08 0)
(4.61803e-08 -2.50499e-08 0)
(7.77915e-08 -2.45021e-08 0)
(1.08593e-07 -2.37136e-08 0)
(1.38284e-07 -2.26979e-08 0)
(1.66582e-07 -2.14734e-08 0)
(1.93229e-07 -2.0062e-08 0)
(2.17997e-07 -1.84882e-08 0)
(2.40684e-07 -1.67772e-08 0)
(2.61124e-07 -1.49541e-08 0)
(2.79176e-07 -1.30434e-08 0)
(2.94736e-07 -1.10697e-08 0)
(3.07724e-07 -9.05758e-09 0)
(3.18095e-07 -7.03088e-09 0)
(3.25828e-07 -5.01043e-09 0)
(3.30928e-07 -3.01334e-09 0)
(3.3342e-07 -1.05352e-09 0)
(3.3335e-07 8.56936e-10 0)
(3.30781e-07 2.70746e-09 0)
(3.25796e-07 4.48958e-09 0)
(3.18488e-07 6.1978e-09 0)
(3.08966e-07 7.82883e-09 0)
(2.9735e-07 9.38007e-09 0)
(2.83769e-07 1.08477e-08 0)
(2.68363e-07 1.22244e-08 0)
(2.51288e-07 1.34968e-08 0)
(2.32717e-07 1.46476e-08 0)
(2.12841e-07 1.56583e-08 0)
(1.91874e-07 1.65088e-08 0)
(1.7006e-07 1.71676e-08 0)
(1.47684e-07 1.75897e-08 0)
(1.25081e-07 1.77251e-08 0)
(1.02643e-07 1.75201e-08 0)
(8.08351e-08 1.69024e-08 0)
(6.02067e-08 1.57722e-08 0)
(4.13986e-08 1.4019e-08 0)
(2.51508e-08 1.154e-08 0)
(1.23116e-08 8.26174e-09 0)
(3.83051e-09 4.18522e-09 0)
(-5.13212e-11 2.61256e-10 0)
(-5.23514e-10 3.39721e-09 0)
(-8.04257e-09 1.32219e-08 0)
(-2.19786e-08 2.26149e-08 0)
(-4.17422e-08 3.03276e-08 0)
(-6.60137e-08 3.63008e-08 0)
(-9.36837e-08 4.06325e-08 0)
(-1.23804e-07 4.35168e-08 0)
(-1.55519e-07 4.51771e-08 0)
(-1.88078e-07 4.58112e-08 0)
(-2.20839e-07 4.55922e-08 0)
(-2.5326e-07 4.46566e-08 0)
(-2.84872e-07 4.31177e-08 0)
(-3.15272e-07 4.10544e-08 0)
(-3.44115e-07 3.85474e-08 0)
(-3.71093e-07 3.5642e-08 0)
(-3.95931e-07 3.23825e-08 0)
(-4.1838e-07 2.88008e-08 0)
(-4.3821e-07 2.49213e-08 0)
(-4.55207e-07 2.07688e-08 0)
(-4.69173e-07 1.63659e-08 0)
(-4.79924e-07 1.17349e-08 0)
(-4.87294e-07 6.90074e-09 0)
(-4.91133e-07 1.89161e-09 0)
(-4.91317e-07 -3.25925e-09 0)
(-4.87748e-07 -8.51502e-09 0)
(-4.80353e-07 -1.38356e-08 0)
(-4.69095e-07 -1.91759e-08 0)
(-4.53968e-07 -2.44862e-08 0)
(-4.35006e-07 -2.97142e-08 0)
(-4.12283e-07 -3.48036e-08 0)
(-3.85918e-07 -3.96941e-08 0)
(-3.56074e-07 -4.43233e-08 0)
(-3.2296e-07 -4.86292e-08 0)
(-2.8683e-07 -5.25515e-08 0)
(-2.47982e-07 -5.60321e-08 0)
(-2.06755e-07 -5.9016e-08 0)
(-1.63525e-07 -6.14526e-08 0)
(-1.18704e-07 -6.3299e-08 0)
(-7.27281e-08 -6.45225e-08 0)
(-2.60551e-08 -6.51029e-08 0)
(2.0846e-08 -6.50318e-08 0)
(6.75027e-08 -6.43117e-08 0)
(1.13448e-07 -6.29552e-08 0)
(1.58226e-07 -6.09855e-08 0)
(2.01404e-07 -5.84365e-08 0)
(2.42575e-07 -5.53528e-08 0)
(2.81369e-07 -5.17875e-08 0)
(3.17451e-07 -4.77996e-08 0)
(3.50531e-07 -4.3451e-08 0)
(3.80362e-07 -3.8804e-08 0)
(4.06743e-07 -3.39206e-08 0)
(4.29516e-07 -2.88629e-08 0)
(4.48566e-07 -2.36921e-08 0)
(4.63821e-07 -1.84664e-08 0)
(4.75247e-07 -1.32383e-08 0)
(4.82846e-07 -8.05311e-09 0)
(4.86652e-07 -2.95045e-09 0)
(4.8673e-07 2.03484e-09 0)
(4.83172e-07 6.87221e-09 0)
(4.76094e-07 1.15364e-08 0)
(4.65631e-07 1.60074e-08 0)
(4.5194e-07 2.02701e-08 0)
(4.35194e-07 2.43112e-08 0)
(4.1558e-07 2.81162e-08 0)
(3.93304e-07 3.16625e-08 0)
(3.68593e-07 3.49166e-08 0)
(3.41701e-07 3.78374e-08 0)
(3.12909e-07 4.03804e-08 0)
(2.82533e-07 4.24883e-08 0)
(2.5094e-07 4.40802e-08 0)
(2.18551e-07 4.50554e-08 0)
(1.85848e-07 4.53013e-08 0)
(1.53392e-07 4.468e-08 0)
(1.21844e-07 4.30205e-08 0)
(9.19573e-08 4.01277e-08 0)
(6.45833e-08 3.57879e-08 0)
(4.06615e-08 2.98291e-08 0)
(2.12626e-08 2.21702e-08 0)
(7.65834e-09 1.27957e-08 0)
(4.35715e-10 2.94251e-09 0)
(-8.82189e-10 8.2169e-09 0)
(-1.13933e-08 2.63005e-08 0)
(-2.99046e-08 4.24886e-08 0)
(-5.53632e-08 5.56852e-08 0)
(-8.60711e-08 6.59823e-08 0)
(-1.20744e-07 7.35406e-08 0)
(-1.58285e-07 7.8644e-08 0)
(-1.97696e-07 8.16332e-08 0)
(-2.38098e-07 8.28203e-08 0)
(-2.78722e-07 8.24789e-08 0)
(-3.18906e-07 8.08515e-08 0)
(-3.58079e-07 7.81172e-08 0)
(-3.95744e-07 7.44352e-08 0)
(-4.31472e-07 6.99321e-08 0)
(-4.64881e-07 6.47004e-08 0)
(-4.95626e-07 5.88179e-08 0)
(-5.23397e-07 5.23448e-08 0)
(-5.47907e-07 4.53247e-08 0)
(-5.68889e-07 3.78035e-08 0)
(-5.86098e-07 2.98246e-08 0)
(-5.99304e-07 2.14289e-08 0)
(-6.08301e-07 1.26614e-08 0)
(-6.12904e-07 3.57416e-09 0)
(-6.12959e-07 -5.77238e-09 0)
(-6.08344e-07 -1.53115e-08 0)
(-5.98972e-07 -2.49702e-08 0)
(-5.84797e-07 -3.4667e-08 0)
(-5.65812e-07 -4.43132e-08 0)
(-5.4206e-07 -5.3813e-08 0)
(-5.13635e-07 -6.30631e-08 0)
(-4.80682e-07 -7.19539e-08 0)
(-4.43405e-07 -8.03729e-08 0)
(-4.02064e-07 -8.82077e-08 0)
(-3.56975e-07 -9.53484e-08 0)
(-3.08506e-07 -1.0169e-07 0)
(-2.57079e-07 -1.07132e-07 0)
(-2.03163e-07 -1.11585e-07 0)
(-1.47268e-07 -1.14972e-07 0)
(-8.99368e-08 -1.17233e-07 0)
(-3.17388e-08 -1.18329e-07 0)
(2.67421e-08 -1.18244e-07 0)
(8.49178e-08 -1.16981e-07 0)
(1.42206e-07 -1.14563e-07 0)
(1.98042e-07 -1.11031e-07 0)
(2.51886e-07 -1.06446e-07 0)
(3.03233e-07 -1.00888e-07 0)
(3.51621e-07 -9.44494e-08 0)
(3.96635e-07 -8.72349e-08 0)
(4.37913e-07 -7.93544e-08 0)
(4.7515e-07 -7.09198e-08 0)
(5.08092e-07 -6.20433e-08 0)
(5.36545e-07 -5.28363e-08 0)
(5.60365e-07 -4.3408e-08 0)
(5.79461e-07 -3.38621e-08 0)
(5.9379e-07 -2.42939e-08 0)
(6.03356e-07 -1.47891e-08 0)
(6.08201e-07 -5.42416e-09 0)
(6.08408e-07 3.7326e-09 0)
(6.04092e-07 1.2621e-08 0)
(5.95397e-07 2.11891e-08 0)
(5.82497e-07 2.93934e-08 0)
(5.65586e-07 3.71992e-08 0)
(5.4488e-07 4.45783e-08 0)
(5.20609e-07 5.15004e-08 0)
(4.93031e-07 5.79234e-08 0)
(4.62426e-07 6.37897e-08 0)
(4.29107e-07 6.90323e-08 0)
(3.93419e-07 7.35717e-08 0)
(3.5576e-07 7.73008e-08 0)
(3.16584e-07 8.00775e-08 0)
(2.76408e-07 8.17379e-08 0)
(2.3582e-07 8.2091e-08 0)
(1.95505e-07 8.08962e-08 0)
(1.56246e-07 7.78771e-08 0)
(1.18934e-07 7.27332e-08 0)
(8.45661e-08 6.51302e-08 0)
(5.42271e-08 5.48176e-08 0)
(2.91538e-08 4.16929e-08 0)
(1.09986e-08 2.5587e-08 0)
(8.04081e-10 7.54509e-09 0)
(-1.14435e-09 1.45896e-08 0)
(-1.40398e-08 4.28812e-08 0)
(-3.63776e-08 6.70635e-08 0)
(-6.66428e-08 8.65384e-08 0)
(-1.02756e-07 1.0171e-07 0)
(-1.43234e-07 1.12888e-07 0)
(-1.86849e-07 1.20474e-07 0)
(-2.32488e-07 1.24939e-07 0)
(-2.7917e-07 1.26726e-07 0)
(-3.26041e-07 1.26211e-07 0)
(-3.72362e-07 1.23749e-07 0)
(-4.17486e-07 1.19601e-07 0)
(-4.60855e-07 1.14008e-07 0)
(-5.01981e-07 1.07153e-07 0)
(-5.40432e-07 9.91809e-08 0)
(-5.75817e-07 9.02074e-08 0)
(-6.07777e-07 8.03246e-08 0)
(-6.35983e-07 6.96009e-08 0)
(-6.60129e-07 5.81034e-08 0)
(-6.79929e-07 4.58976e-08 0)
(-6.95117e-07 3.30458e-08 0)
(-7.0545e-07 1.96164e-08 0)
(-7.10713e-07 5.68994e-09 0)
(-7.10722e-07 -8.64136e-09 0)
(-7.05334e-07 -2.32754e-08 0)
(-6.94444e-07 -3.80997e-08 0)
(-6.77995e-07 -5.29899e-08 0)
(-6.55977e-07 -6.78103e-08 0)
(-6.28436e-07 -8.24131e-08 0)
(-5.95476e-07 -9.66391e-08 0)
(-5.57262e-07 -1.1032e-07 0)
(-5.14025e-07 -1.23283e-07 0)
(-4.66064e-07 -1.35354e-07 0)
(-4.13741e-07 -1.46364e-07 0)
(-3.57482e-07 -1.56149e-07 0)
(-2.97777e-07 -1.64557e-07 0)
(-2.35169e-07 -1.71448e-07 0)
(-1.70251e-07 -1.76703e-07 0)
(-1.03659e-07 -1.8023e-07 0)
(-3.60568e-08 -1.81966e-07 0)
(3.18743e-08 -1.81886e-07 0)
(9.94469e-08 -1.7999e-07 0)
(1.65982e-07 -1.76316e-07 0)
(2.30818e-07 -1.70926e-07 0)
(2.93328e-07 -1.63915e-07 0)
(3.52924e-07 -1.55402e-07 0)
(4.09068e-07 -1.4553e-07 0)
(4.61279e-07 -1.34457e-07 0)
(5.09139e-07 -1.22351e-07 0)
(5.52294e-07 -1.09383e-07 0)
(5.90454e-07 -9.57245e-08 0)
(6.23396e-07 -8.15465e-08 0)
(6.50958e-07 -6.70147e-08 0)
(6.73039e-07 -5.22871e-08 0)
(6.89592e-07 -3.75107e-08 0)
(7.00627e-07 -2.28201e-08 0)
(7.06199e-07 -8.33739e-09 0)
(7.06409e-07 5.82779e-09 0)
(7.01396e-07 1.95772e-08 0)
(6.91334e-07 3.28235e-08 0)
(6.76431e-07 4.54919e-08 0)
(6.56918e-07 5.75228e-08 0)
(6.33045e-07 6.88685e-08 0)
(6.05082e-07 7.94801e-08 0)
(5.73324e-07 8.92931e-08 0)
(5.38092e-07 9.8227e-08 0)
(4.99737e-07 1.06187e-07 0)
(4.58653e-07 1.13055e-07 0)
(4.15288e-07 1.18671e-07 0)
(3.70151e-07 1.22831e-07 0)
(3.23824e-07 1.25298e-07 0)
(2.76976e-07 1.25786e-07 0)
(2.30369e-07 1.23952e-07 0)
(1.8487e-07 1.19414e-07 0)
(1.41468e-07 1.11747e-07 0)
(1.01282e-07 1.00489e-07 0)
(6.55318e-08 8.5278e-08 0)
(3.56506e-08 6.5896e-08 0)
(1.36625e-08 4.18584e-08 0)
(1.07772e-09 1.36763e-08 0)
(-1.33814e-09 2.21634e-08 0)
(-1.61265e-08 6.23413e-08 0)
(-4.1663e-08 9.56116e-08 0)
(-7.60413e-08 1.22062e-07 0)
(-1.16809e-07 1.42557e-07 0)
(-1.6227e-07 1.5763e-07 0)
(-2.11051e-07 1.67856e-07 0)
(-2.61934e-07 1.73855e-07 0)
(-3.13851e-07 1.76217e-07 0)
(-3.65876e-07 1.75442e-07 0)
(-4.17217e-07 1.71996e-07 0)
(-4.67184e-07 1.66237e-07 0)
(-5.15178e-07 1.58488e-07 0)
(-5.60674e-07 1.48997e-07 0)
(-6.03211e-07 1.37963e-07 0)
(-6.42366e-07 1.2554e-07 0)
(-6.77752e-07 1.11853e-07 0)
(-7.09007e-07 9.69963e-08 0)
(-7.35792e-07 8.10592e-08 0)
(-7.57789e-07 6.41263e-08 0)
(-7.74698e-07 4.62809e-08 0)
(-7.86241e-07 2.7617e-08 0)
(-7.9217e-07 8.24618e-09 0)
(-7.92273e-07 -1.17041e-08 0)
(-7.86382e-07 -3.20918e-08 0)
(-7.74371e-07 -5.27599e-08 0)
(-7.56168e-07 -7.35354e-08 0)
(-7.31755e-07 -9.42291e-08 0)
(-7.01171e-07 -1.14634e-07 0)
(-6.64524e-07 -1.34528e-07 0)
(-6.2199e-07 -1.53675e-07 0)
(-5.73817e-07 -1.71832e-07 0)
(-5.2033e-07 -1.88756e-07 0)
(-4.6193e-07 -2.04205e-07 0)
(-3.99089e-07 -2.1795e-07 0)
(-3.32355e-07 -2.29772e-07 0)
(-2.62338e-07 -2.39475e-07 0)
(-1.89708e-07 -2.46888e-07 0)
(-1.15183e-07 -2.51882e-07 0)
(-3.95153e-08 -2.54367e-07 0)
(3.65222e-08 -2.54302e-07 0)
(1.12151e-07 -2.51692e-07 0)
(1.866e-07 -2.46584e-07 0)
(2.59123e-07 -2.39071e-07 0)
(3.29009e-07 -2.29285e-07 0)
(3.95596e-07 -2.17393e-07 0)
(4.5828e-07 -2.03596e-07 0)
(5.16522e-07 -1.88114e-07 0)
(5.69858e-07 -1.71184e-07 0)
(6.17895e-07 -1.53044e-07 0)
(6.60317e-07 -1.33937e-07 0)
(6.96881e-07 -1.141e-07 0)
(7.27417e-07 -9.37621e-08 0)
(7.5182e-07 -7.31439e-08 0)
(7.7005e-07 -5.24501e-08 0)
(7.82127e-07 -3.18702e-08 0)
(7.88123e-07 -1.15767e-08 0)
(7.8816e-07 8.27339e-09 0)
(7.82403e-07 2.75373e-08 0)
(7.7106e-07 4.6085e-08 0)
(7.54375e-07 6.38043e-08 0)
(7.32614e-07 8.06058e-08 0)
(7.06066e-07 9.64178e-08 0)
(6.75035e-07 1.11168e-07 0)
(6.39847e-07 1.24772e-07 0)
(6.00853e-07 1.37127e-07 0)
(5.5843e-07 1.48112e-07 0)
(5.12999e-07 1.57569e-07 0)
(4.65035e-07 1.65289e-07 0)
(4.15076e-07 1.71012e-07 0)
(3.6374e-07 1.74415e-07 0)
(3.11748e-07 1.75105e-07 0)
(2.59916e-07 1.72639e-07 0)
(2.09176e-07 1.66508e-07 0)
(1.60605e-07 1.56143e-07 0)
(1.15423e-07 1.40948e-07 0)
(7.49994e-08 1.20397e-07 0)
(4.09888e-08 9.40656e-08 0)
(1.57854e-08 6.09866e-08 0)
(1.28277e-09 2.09965e-08 0)
(-1.48489e-09 3.06757e-08 0)
(-1.78261e-08 8.41857e-08 0)
(-4.61125e-08 1.27563e-07 0)
(-8.4108e-08 1.61662e-07 0)
(-1.2902e-07 1.87895e-07 0)
(-1.78927e-07 2.07094e-07 0)
(-2.32292e-07 2.20056e-07 0)
(-2.87782e-07 2.27595e-07 0)
(-3.44246e-07 2.30461e-07 0)
(-4.00702e-07 2.29308e-07 0)
(-4.56316e-07 2.24717e-07 0)
(-5.10372e-07 2.17163e-07 0)
(-5.62254e-07 2.07046e-07 0)
(-6.11421e-07 1.94687e-07 0)
(-6.57395e-07 1.80337e-07 0)
(-6.99741e-07 1.6419e-07 0)
(-7.38054e-07 1.464e-07 0)
(-7.71951e-07 1.27085e-07 0)
(-8.01068e-07 1.06352e-07 0)
(-8.25056e-07 8.43019e-08 0)
(-8.43578e-07 6.10358e-08 0)
(-8.56323e-07 3.6673e-08 0)
(-8.63006e-07 1.13573e-08 0)
(-8.63384e-07 -1.47456e-08 0)
(-8.57257e-07 -4.14496e-08 0)
(-8.44474e-07 -6.85488e-08 0)
(-8.24943e-07 -9.58166e-08 0)
(-7.98628e-07 -1.23005e-07 0)
(-7.65558e-07 -1.49841e-07 0)
(-7.25833e-07 -1.76033e-07 0)
(-6.7963e-07 -2.01268e-07 0)
(-6.27206e-07 -2.25226e-07 0)
(-5.68905e-07 -2.4758e-07 0)
(-5.05154e-07 -2.68008e-07 0)
(-4.36469e-07 -2.86201e-07 0)
(-3.63449e-07 -3.01864e-07 0)
(-2.8677e-07 -3.14732e-07 0)
(-2.07176e-07 -3.24577e-07 0)
(-1.25466e-07 -3.31223e-07 0)
(-4.24812e-08 -3.34551e-07 0)
(4.09141e-08 -3.34503e-07 0)
(1.23848e-07 -3.31086e-07 0)
(2.0546e-07 -3.24364e-07 0)
(2.84915e-07 -3.14462e-07 0)
(3.61422e-07 -3.01556e-07 0)
(4.34246e-07 -2.85873e-07 0)
(5.0272e-07 -2.67679e-07 0)
(5.66253e-07 -2.47269e-07 0)
(6.24339e-07 -2.24957e-07 0)
(6.76557e-07 -2.01063e-07 0)
(7.22572e-07 -1.75907e-07 0)
(7.62134e-07 -1.49801e-07 0)
(7.9507e-07 -1.23048e-07 0)
(8.21283e-07 -9.59335e-08 0)
(8.40747e-07 -6.87257e-08 0)
(8.53497e-07 -4.1671e-08 0)
(8.59626e-07 -1.49951e-08 0)
(8.59283e-07 1.10949e-08 0)
(8.52665e-07 3.64069e-08 0)
(8.40013e-07 6.07643e-08 0)
(8.21611e-07 8.40141e-08 0)
(7.97768e-07 1.06032e-07 0)
(7.68813e-07 1.26718e-07 0)
(7.35088e-07 1.45972e-07 0)
(6.96947e-07 1.6369e-07 0)
(6.54763e-07 1.79753e-07 0)
(6.08927e-07 1.94015e-07 0)
(5.5987e-07 2.0628e-07 0)
(5.08071e-07 2.16298e-07 0)
(4.54076e-07 2.2375e-07 0)
(3.9852e-07 2.2822e-07 0)
(3.42143e-07 2.29214e-07 0)
(2.85797e-07 2.26172e-07 0)
(2.30479e-07 2.18428e-07 0)
(1.77345e-07 2.05252e-07 0)
(1.27722e-07 1.85881e-07 0)
(8.31407e-08 1.59574e-07 0)
(4.54945e-08 1.2562e-07 0)
(1.752e-08 8.24722e-08 0)
(1.43868e-09 2.92449e-08 0)
(-1.60225e-09 3.99609e-08 0)
(-1.92856e-08 1.08076e-07 0)
(-5.00423e-08 1.6253e-07 0)
(-9.13551e-08 2.04937e-07 0)
(-1.40107e-07 2.37314e-07 0)
(-1.94141e-07 2.60846e-07 0)
(-2.51741e-07 2.76604e-07 0)
(-3.11444e-07 2.85641e-07 0)
(-3.72013e-07 2.88904e-07 0)
(-4.32418e-07 2.87225e-07 0)
(-4.91798e-07 2.81316e-07 0)
(-5.49427e-07 2.71782e-07 0)
(-6.04688e-07 2.5911e-07 0)
(-6.57044e-07 2.43691e-07 0)
(-7.06019e-07 2.25827e-07 0)
(-7.51178e-07 2.05751e-07 0)
(-7.92108e-07 1.83636e-07 0)
(-8.28413e-07 1.59619e-07 0)
(-8.59709e-07 1.3382e-07 0)
(-8.85615e-07 1.06346e-07 0)
(-9.0576e-07 7.73139e-08 0)
(-9.1979e-07 4.68654e-08 0)
(-9.27382e-07 1.51765e-08 0)
(-9.2825e-07 -1.75464e-08 0)
(-9.22159e-07 -5.10694e-08 0)
(-9.08928e-07 -8.51332e-08 0)
(-8.88433e-07 -1.19453e-07 0)
(-8.60616e-07 -1.53715e-07 0)
(-8.25484e-07 -1.87579e-07 0)
(-7.83122e-07 -2.20673e-07 0)
(-7.33698e-07 -2.52601e-07 0)
(-6.77466e-07 -2.82954e-07 0)
(-6.14781e-07 -3.1131e-07 0)
(-5.46093e-07 -3.37255e-07 0)
(-4.71956e-07 -3.60383e-07 0)
(-3.93021e-07 -3.80311e-07 0)
(-3.10028e-07 -3.96695e-07 0)
(-2.23798e-07 -4.09239e-07 0)
(-1.35218e-07 -4.17715e-07 0)
(-4.52214e-08 -4.21966e-07 0)
(4.52283e-08 -4.2192e-07 0)
(1.3516e-07 -4.17583e-07 0)
(2.23614e-07 -4.09043e-07 0)
(3.09663e-07 -3.96461e-07 0)
(3.9243e-07 -3.80068e-07 0)
(4.71104e-07 -3.6016e-07 0)
(5.44955e-07 -3.37082e-07 0)
(6.13343e-07 -3.11216e-07 0)
(6.75726e-07 -2.82967e-07 0)
(7.3166e-07 -2.52748e-07 0)
(7.80801e-07 -2.20968e-07 0)
(8.229e-07 -1.88025e-07 0)
(8.57795e-07 -1.54301e-07 0)
(8.85407e-07 -1.20154e-07 0)
(9.05728e-07 -8.59171e-08 0)
(9.1882e-07 -5.18949e-08 0)
(9.24802e-07 -1.83656e-08 0)
(9.23853e-07 1.44123e-08 0)
(9.16205e-07 4.61968e-08 0)
(9.02141e-07 7.67655e-08 0)
(8.81986e-07 1.05925e-07 0)
(8.56095e-07 1.33515e-07 0)
(8.24848e-07 1.59399e-07 0)
(7.88627e-07 1.83451e-07 0)
(7.47818e-07 2.0555e-07 0)
(7.02805e-07 2.2556e-07 0)
(6.53991e-07 2.43314e-07 0)
(6.01798e-07 2.58587e-07 0)
(5.46693e-07 2.71088e-07 0)
(4.89212e-07 2.80431e-07 0)
(4.29983e-07 2.86116e-07 0)
(3.69739e-07 2.87546e-07 0)
(3.09358e-07 2.84014e-07 0)
(2.49888e-07 2.74682e-07 0)
(1.92566e-07 2.58631e-07 0)
(1.38846e-07 2.34873e-07 0)
(9.04353e-08 2.02401e-07 0)
(4.94681e-08 1.60157e-07 0)
(1.90056e-08 1.05981e-07 0)
(1.56366e-09 3.82557e-08 0)
(-1.70395e-09 4.99274e-08 0)
(-2.06316e-08 1.33829e-07 0)
(-5.37466e-08 2.00301e-07 0)
(-9.82684e-08 2.51684e-07 0)
(-1.50757e-07 2.90602e-07 0)
(-2.08791e-07 3.18653e-07 0)
(-2.70455e-07 3.37229e-07 0)
(-3.34148e-07 3.47676e-07 0)
(-3.98547e-07 3.51185e-07 0)
(-4.62577e-07 3.48796e-07 0)
(-5.25372e-07 3.41383e-07 0)
(-5.86212e-07 3.29684e-07 0)
(-6.44495e-07 3.14283e-07 0)
(-6.99706e-07 2.95643e-07 0)
(-7.51386e-07 2.74115e-07 0)
(-7.99112e-07 2.49959e-07 0)
(-8.42476e-07 2.23364e-07 0)
(-8.81077e-07 1.94475e-07 0)
(-9.14511e-07 1.63409e-07 0)
(-9.42367e-07 1.30273e-07 0)
(-9.64233e-07 9.51923e-08 0)
(-9.79708e-07 5.83272e-08 0)
(-9.88416e-07 1.98849e-08 0)
(-9.90024e-07 -1.98846e-08 0)
(-9.84252e-07 -6.06949e-08 0)
(-9.70879e-07 -1.02229e-07 0)
(-9.49748e-07 -1.44137e-07 0)
(-9.20764e-07 -1.8604e-07 0)
(-8.83906e-07 -2.2752e-07 0)
(-8.3923e-07 -2.6812e-07 0)
(-7.86881e-07 -3.07355e-07 0)
(-7.27107e-07 -3.44709e-07 0)
(-6.6026e-07 -3.79657e-07 0)
(-5.86813e-07 -4.11673e-07 0)
(-5.07353e-07 -4.4024e-07 0)
(-4.22584e-07 -4.64875e-07 0)
(-3.33315e-07 -4.85137e-07 0)
(-2.4045e-07 -5.00653e-07 0)
(-1.44972e-07 -5.11132e-07 0)
(-4.79205e-08 -5.16378e-07 0)
(4.96311e-08 -5.16298e-07 0)
(1.46598e-07 -5.10903e-07 0)
(2.41911e-07 -5.00304e-07 0)
(3.34537e-07 -4.84711e-07 0)
(4.23505e-07 -4.6442e-07 0)
(5.07921e-07 -4.39806e-07 0)
(5.8699e-07 -4.1131e-07 0)
(6.60022e-07 -3.79419e-07 0)
(7.26444e-07 -3.44643e-07 0)
(7.85796e-07 -3.07503e-07 0)
(8.37735e-07 -2.68512e-07 0)
(8.82022e-07 -2.28164e-07 0)
(9.18519e-07 -1.86929e-07 0)
(9.47175e-07 -1.45245e-07 0)
(9.68016e-07 -1.03513e-07 0)
(9.81137e-07 -6.20945e-08 0)
(9.86691e-07 -2.13207e-08 0)
(9.84892e-07 1.84999e-08 0)
(9.76016e-07 5.70777e-08 0)
(9.60388e-07 9.41495e-08 0)
(9.38379e-07 1.29488e-07 0)
(9.10397e-07 1.629e-07 0)
(8.76874e-07 1.94217e-07 0)
(8.38241e-07 2.23289e-07 0)
(7.94913e-07 2.49977e-07 0)
(7.4729e-07 2.74133e-07 0)
(6.95775e-07 2.95568e-07 0)
(6.40776e-07 3.14037e-07 0)
(5.82734e-07 3.29202e-07 0)
(5.22156e-07 3.40611e-07 0)
(4.59635e-07 3.47686e-07 0)
(3.95883e-07 3.49716e-07 0)
(3.31787e-07 3.45817e-07 0)
(2.68424e-07 3.34975e-07 0)
(2.07112e-07 3.16025e-07 0)
(1.49452e-07 2.87692e-07 0)
(9.73489e-08 2.48657e-07 0)
(5.31923e-08 1.97458e-07 0)
(2.03668e-08 1.3133e-07 0)
(1.6736e-09 4.79346e-08 0)
(-1.79926e-09 6.05419e-08 0)
(-2.1983e-08 1.61401e-07 0)
(-5.75201e-08 2.40851e-07 0)
(-1.05345e-07 3.01886e-07 0)
(-1.61655e-07 3.47737e-07 0)
(-2.23733e-07 3.80447e-07 0)
(-2.89436e-07 4.0181e-07 0)
(-3.5702e-07 4.13522e-07 0)
(-4.25082e-07 4.17075e-07 0)
(-4.92514e-07 4.13749e-07 0)
(-5.58462e-07 4.04622e-07 0)
(-6.22237e-07 3.90568e-07 0)
(-6.83274e-07 3.72278e-07 0)
(-7.41094e-07 3.50284e-07 0)
(-7.95271e-07 3.24981e-07 0)
(-8.45407e-07 2.96648e-07 0)
(-8.91108e-07 2.65479e-07 0)
(-9.31975e-07 2.31609e-07 0)
(-9.67588e-07 1.9514e-07 0)
(-9.97503e-07 1.56166e-07 0)
(-1.02126e-06 1.14808e-07 0)
(-1.0384e-06 7.12371e-08 0)
(-1.04848e-06 2.56931e-08 0)
(-1.05111e-06 -2.15261e-08 0)
(-1.04595e-06 -7.00747e-08 0)
(-1.03274e-06 -1.19571e-07 0)
(-1.01128e-06 -1.69601e-07 0)
(-9.81426e-07 -2.1971e-07 0)
(-9.43117e-07 -2.69404e-07 0)
(-8.96367e-07 -3.18135e-07 0)
(-8.41289e-07 -3.65313e-07 0)
(-7.78105e-07 -4.1031e-07 0)
(-7.07167e-07 -4.52475e-07 0)
(-6.28956e-07 -4.91153e-07 0)
(-5.44096e-07 -5.25703e-07 0)
(-4.53344e-07 -5.55519e-07 0)
(-3.57586e-07 -5.80051e-07 0)
(-2.57821e-07 -5.98833e-07 0)
(-1.5514e-07 -6.11502e-07 0)
(-5.07044e-08 -6.17814e-07 0)
(5.4283e-08 -6.17653e-07 0)
(1.58606e-07 -6.11035e-07 0)
(2.61066e-07 -5.98102e-07 0)
(3.6051e-07 -5.79118e-07 0)
(4.55858e-07 -5.54458e-07 0)
(5.46127e-07 -5.24595e-07 0)
(6.30449e-07 -4.90084e-07 0)
(7.08085e-07 -4.5153e-07 0)
(7.7843e-07 -4.09574e-07 0)
(8.41019e-07 -3.6486e-07 0)
(8.95516e-07 -3.18021e-07 0)
(9.41709e-07 -2.69663e-07 0)
(9.79494e-07 -2.20354e-07 0)
(1.00887e-06 -1.70619e-07 0)
(1.0299e-06 -1.2093e-07 0)
(1.04273e-06 -7.17112e-08 0)
(1.04756e-06 -2.33455e-08 0)
(1.04465e-06 2.38079e-08 0)
(1.03432e-06 6.94137e-08 0)
(1.01694e-06 1.13175e-07 0)
(9.92941e-07 1.54842e-07 0)
(9.62782e-07 1.94204e-07 0)
(9.26949e-07 2.31075e-07 0)
(8.85921e-07 2.65292e-07 0)
(8.40147e-07 2.96705e-07 0)
(7.90044e-07 3.25152e-07 0)
(7.36009e-07 3.50426e-07 0)
(6.78432e-07 3.72261e-07 0)
(6.1772e-07 3.90275e-07 0)
(5.54328e-07 4.03948e-07 0)
(4.88794e-07 4.12627e-07 0)
(4.21793e-07 4.15461e-07 0)
(3.54185e-07 4.11384e-07 0)
(2.87063e-07 3.99169e-07 0)
(2.21821e-07 3.77346e-07 0)
(1.60208e-07 3.4429e-07 0)
(1.04357e-07 2.98304e-07 0)
(5.6946e-08 2.37492e-07 0)
(2.17223e-08 1.58471e-07 0)
(1.77812e-09 5.82463e-08 0)
(-1.89952e-09 7.18284e-08 0)
(-2.3465e-08 1.90901e-07 0)
(-6.16806e-08 2.84356e-07 0)
(-1.13121e-07 3.55735e-07 0)
(-1.73539e-07 4.08871e-07 0)
(-2.3986e-07 4.46316e-07 0)
(-3.09693e-07 4.70344e-07 0)
(-3.81143e-07 4.83092e-07 0)
(-4.5275e-07 4.86414e-07 0)
(-5.23406e-07 4.81882e-07 0)
(-5.92289e-07 4.70801e-07 0)
(-6.58765e-07 4.54197e-07 0)
(-7.22327e-07 4.32869e-07 0)
(-7.82553e-07 4.07419e-07 0)
(-8.39066e-07 3.78272e-07 0)
(-8.91505e-07 3.45717e-07 0)
(-9.39499e-07 3.09937e-07 0)
(-9.82656e-07 2.71043e-07 0)
(-1.02054e-06 2.291e-07 0)
(-1.05268e-06 1.84169e-07 0)
(-1.07856e-06 1.36351e-07 0)
(-1.09763e-06 8.582e-08 0)
(-1.10938e-06 3.28462e-08 0)
(-1.11334e-06 -2.22145e-08 0)
(-1.10911e-06 -7.89457e-08 0)
(-1.09637e-06 -1.36895e-07 0)
(-1.07488e-06 -1.95579e-07 0)
(-1.04443e-06 -2.54473e-07 0)
(-1.00492e-06 -3.13001e-07 0)
(-9.56287e-07 -3.70519e-07 0)
(-8.98603e-07 -4.26322e-07 0)
(-8.32057e-07 -4.79653e-07 0)
(-7.5698e-07 -5.2972e-07 0)
(-6.73864e-07 -5.75719e-07 0)
(-5.83365e-07 -6.1686e-07 0)
(-4.86298e-07 -6.52395e-07 0)
(-3.83635e-07 -6.81646e-07 0)
(-2.76481e-07 -7.04038e-07 0)
(-1.66057e-07 -7.19119e-07 0)
(-5.36671e-08 -7.26588e-07 0)
(5.93326e-08 -7.26303e-07 0)
(1.7157e-07 -7.18281e-07 0)
(2.81695e-07 -7.02702e-07 0)
(3.88412e-07 -6.79897e-07 0)
(4.90518e-07 -6.50335e-07 0)
(5.86926e-07 -6.14607e-07 0)
(6.7669e-07 -5.73399e-07 0)
(7.59018e-07 -5.27464e-07 0)
(8.33277e-07 -4.77589e-07 0)
(8.99001e-07 -4.24566e-07 0)
(9.55873e-07 -3.69165e-07 0)
(1.00372e-06 -3.1212e-07 0)
(1.0425e-06 -2.54113e-07 0)
(1.07226e-06 -1.95762e-07 0)
(1.09314e-06 -1.37619e-07 0)
(1.10535e-06 -8.01714e-08 0)
(1.10913e-06 -2.38592e-08 0)
(1.1048e-06 3.09026e-08 0)
(1.09274e-06 8.37282e-08 0)
(1.07339e-06 1.34287e-07 0)
(1.04724e-06 1.82321e-07 0)
(1.0148e-06 2.27626e-07 0)
(9.76608e-07 2.70033e-07 0)
(9.33188e-07 3.09392e-07 0)
(8.85018e-07 3.45558e-07 0)
(8.3253e-07 3.78361e-07 0)
(7.76113e-07 4.07583e-07 0)
(7.16135e-07 4.32929e-07 0)
(6.52961e-07 4.53973e-07 0)
(5.86982e-07 4.7014e-07 0)
(5.18662e-07 4.80678e-07 0)
(4.48612e-07 4.84585e-07 0)
(3.77633e-07 4.80611e-07 0)
(3.06803e-07 4.67243e-07 0)
(2.37578e-07 4.4266e-07 0)
(1.71847e-07 4.04806e-07 0)
(1.11989e-07 3.5152e-07 0)
(6.10406e-08 2.80417e-07 0)
(2.31896e-08 1.87496e-07 0)
(1.88115e-09 6.92141e-08 0)
(-2.0178e-09 8.38764e-08 0)
(-2.52409e-08 2.22607e-07 0)
(-6.66259e-08 3.31212e-07 0)
(-1.2225e-07 4.13639e-07 0)
(-1.87269e-07 4.74335e-07 0)
(-2.58176e-07 5.16463e-07 0)
(-3.32302e-07 5.42908e-07 0)
(-4.07623e-07 5.56338e-07 0)
(-4.82656e-07 5.59064e-07 0)
(-5.56346e-07 5.53004e-07 0)
(-6.27938e-07 5.39703e-07 0)
(-6.96882e-07 5.20353e-07 0)
(-7.62752e-07 4.95859e-07 0)
(-8.252e-07 4.6688e-07 0)
(-8.83907e-07 4.33866e-07 0)
(-9.3856e-07 3.97098e-07 0)
(-9.88823e-07 3.56734e-07 0)
(-1.03432e-06 3.12838e-07 0)
(-1.07461e-06 2.65417e-07 0)
(-1.10918e-06 2.14474e-07 0)
(-1.13744e-06 1.60062e-07 0)
(-1.15877e-06 1.02345e-07 0)
(-1.17252e-06 4.16251e-08 0)
(-1.17813e-06 -2.1665e-08 0)
(-1.17515e-06 -8.70212e-08 0)
(-1.1632e-06 -1.53913e-07 0)
(-1.14198e-06 -2.2179e-07 0)
(-1.11122e-06 -2.90063e-07 0)
(-1.07074e-06 -3.58074e-07 0)
(-1.0204e-06 -4.25081e-07 0)
(-9.60204e-07 -4.90255e-07 0)
(-8.90286e-07 -5.52691e-07 0)
(-8.10951e-07 -6.11436e-07 0)
(-7.22688e-07 -6.65514e-07 0)
(-6.26183e-07 -7.13959e-07 0)
(-5.22319e-07 -7.55856e-07 0)
(-4.1216e-07 -7.90373e-07 0)
(-2.9694e-07 -8.168e-07 0)
(-1.78029e-07 -8.34582e-07 0)
(-5.69019e-08 -8.43345e-07 0)
(6.49016e-08 -8.42909e-07 0)
(1.85823e-07 -8.33298e-07 0)
(3.04332e-07 -8.14733e-07 0)
(4.18968e-07 -7.87626e-07 0)
(5.28381e-07 -7.52559e-07 0)
(6.31365e-07 -7.10263e-07 0)
(7.26887e-07 -6.61584e-07 0)
(8.14094e-07 -6.07447e-07 0)
(8.92334e-07 -5.48813e-07 0)
(9.61141e-07 -4.86646e-07 0)
(1.02024e-06 -4.21876e-07 0)
(1.0695e-06 -3.55384e-07 0)
(1.10897e-06 -2.87975e-07 0)
(1.13878e-06 -2.20373e-07 0)
(1.15914e-06 -1.53211e-07 0)
(1.17035e-06 -8.70418e-08 0)
(1.17272e-06 -2.23683e-08 0)
(1.16662e-06 4.03266e-08 0)
(1.15251e-06 1.00587e-07 0)
(1.13091e-06 1.58033e-07 0)
(1.10239e-06 2.12397e-07 0)
(1.06756e-06 2.63519e-07 0)
(1.02698e-06 3.11298e-07 0)
(9.81188e-07 3.55646e-07 0)
(9.30696e-07 3.96457e-07 0)
(8.75933e-07 4.33571e-07 0)
(8.17276e-07 4.66769e-07 0)
(7.55067e-07 4.95724e-07 0)
(6.89624e-07 5.19971e-07 0)
(6.21269e-07 5.38875e-07 0)
(5.50384e-07 5.51573e-07 0)
(4.77476e-07 5.56908e-07 0)
(4.03251e-07 5.53421e-07 0)
(3.28735e-07 5.39253e-07 0)
(2.55394e-07 5.1216e-07 0)
(1.85237e-07 4.69562e-07 0)
(1.20908e-07 4.08708e-07 0)
(6.58784e-08 3.26621e-07 0)
(2.49238e-08 2.18673e-07 0)
(1.9918e-09 8.09274e-08 0)
(-2.17151e-09 9.68676e-08 0)
(-2.75472e-08 2.57033e-07 0)
(-7.29325e-08 3.82098e-07 0)
(-1.33625e-07 4.76261e-07 0)
(-2.03956e-07 5.44636e-07 0)
(-2.79881e-07 5.91189e-07 0)
(-3.58474e-07 6.19596e-07 0)
(-4.3763e-07 6.33207e-07 0)
(-5.15917e-07 6.3487e-07 0)
(-5.92391e-07 6.26899e-07 0)
(-6.66423e-07 6.11093e-07 0)
(-7.37574e-07 5.88809e-07 0)
(-8.05524e-07 5.61045e-07 0)
(-8.70005e-07 5.28505e-07 0)
(-9.30767e-07 4.91646e-07 0)
(-9.87549e-07 4.5073e-07 0)
(-1.04006e-06 4.05871e-07 0)
(-1.08794e-06 3.57068e-07 0)
(-1.13076e-06 3.04242e-07 0)
(-1.16798e-06 2.47301e-07 0)
(-1.19892e-06 1.86217e-07 0)
(-1.22283e-06 1.21116e-07 0)
(-1.23893e-06 5.23424e-08 0)
(-1.24654e-06 -1.95659e-08 0)
(-1.24514e-06 -9.3987e-08 0)
(-1.2343e-06 -1.70305e-07 0)
(-1.21367e-06 -2.47915e-07 0)
(-1.18291e-06 -3.26175e-07 0)
(-1.14172e-06 -4.04358e-07 0)
(-1.08987e-06 -4.81621e-07 0)
(-1.02725e-06 -5.56999e-07 0)
(-9.53939e-07 -6.29426e-07 0)
(-8.70184e-07 -6.97757e-07 0)
(-7.76466e-07 -7.60816e-07 0)
(-6.73498e-07 -8.17431e-07 0)
(-5.62231e-07 -8.66482e-07 0)
(-4.43841e-07 -9.0695e-07 0)
(-3.19705e-07 -9.37961e-07 0)
(-1.91375e-07 -9.58828e-07 0)
(-6.05298e-08 -9.69084e-07 0)
(7.10717e-08 -9.68503e-07 0)
(2.01648e-07 -9.57112e-07 0)
(3.29453e-07 -9.35183e-07 0)
(4.52828e-07 -9.03227e-07 0)
(5.70253e-07 -8.61963e-07 0)
(6.80383e-07 -8.12291e-07 0)
(7.8208e-07 -7.55248e-07 0)
(8.74433e-07 -6.91966e-07 0)
(9.56767e-07 -6.23615e-07 0)
(1.02864e-06 -5.51361e-07 0)
(1.08981e-06 -4.76323e-07 0)
(1.14026e-06 -3.99541e-07 0)