/*--------------------------------*- C++ -*----------------------------------*\
| =========                 |                                                 |
| \\      /  F ield         | OpenFOAM: The Open Source CFD Toolbox           |
|  \\    /   O peration     | Version:  2412                                  |
|   \\  /    A nd           | Website:  www.openfoam.com                      |
|    \\/     M anipulation  |                                                 |
\*---------------------------------------------------------------------------*/
FoamFile
{
    version     2.0;
    format      ascii;
    arch        "LSB;label=32;scalar=64";
    class       surfaceScalarField;
    location    "4.6";
    object      alphaPhi0.soap;
}
// * * * * * * * * * * * * * * * * * * * * * * * * * * * * * * * * * * * * * //

dimensions      [0 3 -1 0 0 0 0];

oriented        oriented;

internalField   nonuniform List<scalar> 
12640
(
-1.81956e-05
1.81955e-05
-3.14406e-05
1.32459e-05
-4.51295e-05
1.36884e-05
-5.78888e-05
1.27587e-05
-6.88112e-05
1.0922e-05
-7.75226e-05
8.71096e-06
-8.3776e-05
6.2532e-06
-8.75058e-05
3.72968e-06
-8.86525e-05
1.14654e-06
-8.71336e-05
-1.51906e-06
-8.30752e-05
-4.05852e-06
-7.66149e-05
-6.46021e-06
-6.793e-05
-8.68462e-06
-5.74191e-05
-1.05106e-05
-4.53979e-05
-1.20208e-05
-3.22045e-05
-1.31932e-05
-1.81895e-05
-1.40147e-05
-3.73041e-06
-1.44589e-05
1.08042e-05
-1.45343e-05
2.50439e-05
-1.42396e-05
3.85297e-05
-1.34859e-05
5.09778e-05
-1.24482e-05
6.19723e-05
-1.09946e-05
7.12508e-05
-9.2785e-06
7.85457e-05
-7.29474e-06
8.37e-05
-5.1538e-06
8.6648e-05
-2.94744e-06
8.75425e-05
-8.9381e-07
8.64464e-05
1.09675e-06
8.34643e-05
2.98246e-06
7.87166e-05
4.74861e-06
7.22361e-05
6.48152e-06
6.42264e-05
8.0103e-06
5.50176e-05
9.20927e-06
4.51859e-05
9.83229e-06
3.51733e-05
1.00129e-05
2.53355e-05
9.83805e-06
1.58969e-05
9.43883e-06
6.90911e-06
8.9877e-06
-1.6513e-06
8.56013e-06
-9.92822e-06
8.27667e-06
-1.80777e-05
8.1495e-06
-2.62164e-05
8.13864e-06
-3.43555e-05
8.13914e-06
-4.24747e-05
8.1198e-06
-5.03264e-05
7.85218e-06
-5.75957e-05
7.26896e-06
-6.39185e-05
6.32232e-06
-6.88461e-05
4.92705e-06
-7.21585e-05
3.31163e-06
-7.38574e-05
1.69803e-06
-7.39328e-05
7.42297e-08
-7.24942e-05
-1.44005e-06
-6.94875e-05
-3.00803e-06
-6.46896e-05
-4.79887e-06
-5.82745e-05
-6.41558e-06
-5.03506e-05
-7.92378e-06
-4.12272e-05
-9.12305e-06
-3.11093e-05
-1.01177e-05
-2.02851e-05
-1.08233e-05
-9.01888e-06
-1.12652e-05
2.40413e-06
-1.14226e-05
1.37024e-05
-1.1298e-05
2.46397e-05
-1.09372e-05
3.49782e-05
-1.03387e-05
4.44579e-05
-9.47983e-06
5.28649e-05
-8.40733e-06
5.98998e-05
-7.03536e-06
6.52647e-05
-5.36546e-06
6.86928e-05
-3.42831e-06
7.00826e-05
-1.38873e-06
6.93928e-05
6.90446e-07
6.66541e-05
2.73938e-06
6.18396e-05
4.81516e-06
5.49992e-05
6.84087e-06
4.63208e-05
8.6795e-06
3.61216e-05
1.02004e-05
2.51186e-05
1.10033e-05
1.46179e-05
1.05002e-05
1.46178e-05
-1.97591e-05
3.79522e-05
-3.43258e-05
2.78116e-05
-4.92218e-05
2.85841e-05
-6.28681e-05
2.64045e-05
-7.43305e-05
2.23837e-05
-8.32201e-05
1.76e-05
-8.93248e-05
1.23576e-05
-9.25463e-05
6.95092e-06
-9.29247e-05
1.5247e-06
-9.06347e-05
-3.80907e-06
-8.57716e-05
-8.92155e-06
-7.85903e-05
-1.3641e-05
-6.93765e-05
-1.78978e-05
-5.84398e-05
-2.14469e-05
-4.58725e-05
-2.45877e-05
-3.21128e-05
-2.69527e-05
-1.7481e-05
-2.86462e-05
-2.31671e-06
-2.96231e-05
1.3016e-05
-2.9867e-05
2.81019e-05
-2.93256e-05
4.27358e-05
-2.812e-05
5.64251e-05
-2.61376e-05
6.9074e-05
-2.36434e-05
8.02332e-05
-2.04373e-05
8.9753e-05
-1.68138e-05
9.74367e-05
-1.28366e-05
0.00010314
-8.64961e-06
0.000106505
-4.25748e-06
0.000107414
1.88641e-07
0.000105963
4.43455e-06
0.000102254
8.45927e-06
9.65081e-05
1.22278e-05
8.89917e-05
1.55274e-05
7.98611e-05
1.83404e-05
6.91163e-05
2.05777e-05
5.69058e-05
2.22238e-05
4.34533e-05
2.32904e-05
2.89526e-05
2.39395e-05
1.38225e-05
2.41177e-05
-1.56412e-06
2.39471e-05
-1.67963e-05
2.35089e-05
-3.14619e-05
2.28153e-05
-4.51413e-05
2.18182e-05
-5.75302e-05
2.05279e-05
-6.83119e-05
1.89008e-05
-7.73021e-05
1.68417e-05
-8.44769e-05
1.44432e-05
-8.98232e-05
1.16677e-05
-9.34501e-05
8.55267e-06
-9.53067e-05
5.16671e-06
-9.52513e-05
1.64139e-06
-9.31193e-05
-2.05842e-06
-8.89685e-05
-5.59109e-06
-8.29359e-05
-9.04044e-06
-7.5561e-05
-1.21733e-05
-6.68181e-05
-1.51585e-05
-5.70099e-05
-1.7732e-05
-4.62343e-05
-1.98982e-05
-3.47606e-05
-2.15909e-05
-2.28158e-05
-2.27677e-05
-1.06174e-05
-2.34636e-05
1.57786e-06
-2.36184e-05
1.35918e-05
-2.33125e-05
2.51051e-05
-2.24505e-05
3.594e-05
-2.11738e-05
4.58348e-05
-1.93749e-05
5.46167e-05
-1.719e-05
6.1929e-05
-1.43482e-05
6.77266e-05
-1.11627e-05
7.18017e-05
-7.50352e-06
7.3915e-05
-3.50139e-06
7.39017e-05
7.0416e-07
7.15843e-05
5.05776e-06
6.69293e-05
9.47133e-06
5.99542e-05
1.38164e-05
5.08308e-05
1.78025e-05
3.98189e-05
2.12117e-05
2.77729e-05
2.30484e-05
1.61505e-05
2.21222e-05
3.07676e-05
-2.05663e-05
5.85182e-05
-3.56111e-05
4.28557e-05
-5.10584e-05
4.40309e-05
-6.53545e-05
4.06999e-05
-7.73533e-05
3.43818e-05
-8.66375e-05
2.68838e-05
-9.31102e-05
1.883e-05
-9.66052e-05
1.04457e-05
-9.72368e-05
2.1561e-06
-9.4964e-05
-6.08176e-06
-9.00413e-05
-1.38441e-05
-8.26837e-05
-2.09983e-05
-7.3094e-05
-2.74872e-05
-6.15032e-05
-3.30377e-05
-4.83315e-05
-3.77597e-05
-3.38875e-05
-4.13968e-05
-1.85741e-05
-4.39599e-05
-2.71599e-06
-4.54815e-05
1.32584e-05
-4.58412e-05
2.89367e-05
-4.50039e-05
4.39967e-05
-4.31801e-05
5.80105e-05
-4.01513e-05
7.06214e-05
-3.62539e-05
8.16185e-05
-3.14338e-05
9.06889e-05
-2.58835e-05
9.76906e-05
-1.98377e-05
0.000102441
-1.33997e-05
0.000104964
-6.77939e-06
0.000105205
-5.30856e-08
0.000103078
6.56153e-06
9.87857e-05
1.27519e-05
9.25306e-05
1.84836e-05
8.46197e-05
2.34384e-05
7.52036e-05
2.77565e-05
6.44482e-05
3.13332e-05
5.25626e-05
3.41099e-05
3.9675e-05
3.61788e-05
2.61605e-05
3.74549e-05
1.22175e-05
3.80611e-05
-1.8608e-06
3.80254e-05
-1.5724e-05
3.73721e-05
-2.90955e-05
3.61863e-05
-4.16451e-05
3.43667e-05
-5.31416e-05
3.20237e-05
-6.33366e-05
2.90961e-05
-7.21147e-05
2.56202e-05
-7.9349e-05
2.1678e-05
-8.50049e-05
1.73249e-05
-8.90308e-05
1.25805e-05
-9.13335e-05
7.4715e-06
-9.17624e-05
2.0727e-06
-9.03827e-05
-3.43612e-06
-8.70788e-05
-8.89406e-06
-8.19556e-05
-1.4164e-05
-7.51173e-05
-1.90126e-05
-6.68363e-05
-2.34401e-05
-5.72109e-05
-2.73579e-05
-4.66734e-05
-3.04361e-05
-3.5165e-05
-3.31002e-05
-2.30261e-05
-3.49075e-05
-1.05721e-05
-3.59181e-05
1.97974e-06
-3.61706e-05
1.4348e-05
-3.56808e-05
2.62921e-05
-3.43947e-05
3.75353e-05
-3.24173e-05
4.79109e-05
-2.97511e-05
5.69794e-05
-2.62593e-05
6.47122e-05
-2.20822e-05
7.07622e-05
-1.7214e-05
7.49436e-05
-1.16856e-05
7.70619e-05
-5.62014e-06
7.68964e-05
8.69076e-07
7.43967e-05
7.55702e-06
6.94891e-05
1.43771e-05
6.22235e-05
2.10795e-05
5.26852e-05
2.73398e-05
4.12512e-05
3.26455e-05
2.88093e-05
3.54896e-05
1.6836e-05
3.40953e-05
4.7604e-05
-2.26774e-05
8.11958e-05
-3.90618e-05
5.92397e-05
-5.5823e-05
6.07913e-05
-7.13864e-05
5.62624e-05
-8.4424e-05
4.74187e-05
-9.44011e-05
3.68605e-05
-0.000101184
2.56124e-05
-0.000104735
1.39971e-05
-0.000105137
2.55734e-06
-0.000102515
-8.70384e-06
-9.70088e-05
-1.93501e-05
-8.89185e-05
-2.90887e-05
-7.84774e-05
-3.79285e-05
-6.59929e-05
-4.55225e-05
-5.18574e-05
-5.18955e-05
-3.6429e-05
-5.68252e-05
-2.00413e-05
-6.03477e-05
-3.17372e-06
-6.23493e-05
1.38097e-05
-6.28248e-05
3.05053e-05
-6.16994e-05
4.6427e-05
-5.91015e-05
6.13583e-05
-5.50821e-05
7.48581e-05
-4.97534e-05
8.64115e-05
-4.29873e-05
9.59449e-05
-3.54171e-05
0.000103136
-2.70287e-05
0.000107976
-1.82404e-05
0.000110254
-9.05765e-06
0.000109919
2.83362e-07
0.000107216
9.26433e-06
0.00010216
1.78087e-05
9.50954e-05
2.55479e-05
8.6144e-05
3.23898e-05
7.5641e-05
3.82601e-05
6.38503e-05
4.31243e-05
5.11726e-05
4.6788e-05
3.79314e-05
4.94206e-05
2.43925e-05
5.09947e-05
1.08124e-05
5.16425e-05
-2.65005e-06
5.14887e-05
-1.58531e-05
5.05758e-05
-2.868e-05
4.90144e-05
-4.09438e-05
4.6632e-05
-5.24959e-05
4.35774e-05
-6.31203e-05
3.97224e-05
-7.25889e-05
3.50907e-05
-8.06641e-05
2.97549e-05
-8.71178e-05
2.378e-05
-9.18625e-05
1.73258e-05
-9.46744e-05
1.02835e-05
-9.55211e-05
2.91945e-06
-9.43405e-05
-4.61655e-06
-9.11575e-05
-1.20769e-05
-8.59369e-05
-1.9384e-05
-7.8981e-05
-2.5968e-05
-7.03024e-05
-3.21185e-05
-6.02201e-05
-3.74401e-05
-4.879e-05
-4.18661e-05
-3.66518e-05
-4.52383e-05
-2.3935e-05
-4.76242e-05
-1.07598e-05
-4.90939e-05
2.48132e-06
-4.94125e-05
1.55452e-05
-4.87453e-05
2.81876e-05
-4.70373e-05
4.0144e-05
-4.43736e-05
5.11728e-05
-4.078e-05
6.0987e-05
-3.60738e-05
6.93509e-05
-3.04461e-05
7.60491e-05
-2.39131e-05
8.07822e-05
-1.64189e-05
8.32763e-05
-8.11417e-06
8.33645e-05
7.80444e-07
8.09059e-05
1.00152e-05
7.58198e-05
1.94631e-05
6.80804e-05
2.88192e-05
5.77881e-05
3.76323e-05
4.5244e-05
4.51888e-05
3.16627e-05
4.90711e-05
1.85173e-05
4.72396e-05
6.61215e-05
-2.5691e-05
0.000106887
-4.39133e-05
7.74613e-05
-6.26648e-05
7.95419e-05
-8.01133e-05
7.37103e-05
-9.4569e-05
6.18741e-05
-0.000105401
4.76921e-05
-0.000112502
3.27134e-05
-0.000116018
1.75127e-05
-0.000116066
2.60463e-06
-0.000112836
-1.19343e-05
-0.000106539
-2.56466e-05
-9.74272e-05
-3.82009e-05
-8.5925e-05
-4.94306e-05
-7.21698e-05
-5.92777e-05
-5.66211e-05
-6.74442e-05
-3.9687e-05
-7.37592e-05
-2.18463e-05
-7.81885e-05
-3.4346e-06
-8.07609e-05
1.50723e-05
-8.13317e-05
3.33338e-05
-7.99608e-05
5.07953e-05
-7.65631e-05
6.70278e-05
-7.13148e-05
8.15544e-05
-6.42801e-05
9.42196e-05
-5.56525e-05
0.000104604
-4.58009e-05
0.000112385
-3.48089e-05
0.000117452
-2.33056e-05
0.000119762
-1.13666e-05
0.000119302
7.43032e-07
0.000116126
1.24401e-05
0.000110504
2.34314e-05
0.000102557
3.34951e-05
9.24629e-05
4.2483e-05
8.07893e-05
4.99337e-05
6.77738e-05
5.61405e-05
5.39409e-05
6.06223e-05
3.95947e-05
6.37685e-05
2.50886e-05
6.55023e-05
1.06146e-05
6.61184e-05
-3.60643e-06
6.5712e-05
-1.74937e-05
6.44655e-05
-3.10362e-05
6.25585e-05
-4.40428e-05
5.96394e-05
-5.63767e-05
5.59115e-05
-6.78057e-05
5.11512e-05
-7.8082e-05
4.53666e-05
-8.69391e-05
3.86118e-05
-9.41094e-05
3.09502e-05
-9.93019e-05
2.2518e-05
-0.000102452
1.34339e-05
-0.000103466
3.93335e-06
-0.000102136
-5.94592e-06
-9.85221e-05
-1.56903e-05
-9.29747e-05
-2.49312e-05
-8.53185e-05
-3.36245e-05
-7.58305e-05
-4.16066e-05
-6.48452e-05
-4.8425e-05
-5.26723e-05
-5.40394e-05
-3.94561e-05
-5.84557e-05
-2.54893e-05
-6.15918e-05
-1.13154e-05
-6.32686e-05
2.96555e-06
-6.36939e-05
1.70219e-05
-6.28017e-05
3.06718e-05
-6.06874e-05
4.36561e-05
-5.73583e-05
5.55895e-05
-5.27138e-05
6.64259e-05
-4.69103e-05
7.58172e-05
-3.98368e-05
8.32914e-05
-3.13871e-05
8.88475e-05
-2.19747e-05
9.19386e-05
-1.12055e-05
9.24493e-05
2.70745e-07
9.02074e-05
1.22585e-05
8.48634e-05
2.48074e-05
7.64657e-05
3.72165e-05
6.50257e-05
4.90712e-05
5.09615e-05
5.92518e-05
3.57109e-05
6.43216e-05
2.09601e-05
6.19902e-05
8.70811e-05
-2.95345e-05
0.000136421
-5.0408e-05
9.8334e-05
-7.18215e-05
0.000100955
-9.18104e-05
9.36989e-05
-0.000108063
7.81267e-05
-0.000119893
5.95221e-05
-0.000127335
4.01545e-05
-0.000130674
2.08512e-05
-0.000130205
2.13446e-06
-0.00012615
-1.59892e-05
-0.000118827
-3.297e-05
-0.000108379
-4.86486e-05
-9.53418e-05
-6.24673e-05
-7.99832e-05
-7.46363e-05
-6.26838e-05
-8.47433e-05
-4.39362e-05
-9.25069e-05
-2.41233e-05
-9.80017e-05
-3.71676e-06
-0.000101168
1.68142e-05
-0.000101862
3.70037e-05
-0.00010015
5.63044e-05
-9.5863e-05
7.43851e-05
-8.93944e-05
9.045e-05
-8.03438e-05
0.000104515
-6.9716e-05
0.000115947
-5.72324e-05
0.00012445
-4.33115e-05
0.000129957
-2.8813e-05
0.000132311
-1.37204e-05
0.00013156
1.49487e-06
0.000127862
1.6138e-05
0.000121334
2.99586e-05
0.00011213
4.26995e-05
0.000100888
5.3726e-05
8.76887e-05
6.31341e-05
7.32812e-05
7.05486e-05
5.79681e-05
7.59358e-05
4.21478e-05
7.959e-05
2.62807e-05
8.13702e-05
1.06419e-05
8.17577e-05
-4.76799e-06
8.1122e-05
-1.97414e-05
7.94394e-05
-3.43637e-05
7.71819e-05
-4.84589e-05
7.37359e-05
-6.18462e-05
6.93e-05
-7.43014e-05
6.36065e-05
-8.5563e-05
5.66274e-05
-9.53036e-05
4.83514e-05
-0.000103199
3.88451e-05
-0.000109045
2.83634e-05
-0.0001126
1.69891e-05
-0.000113729
5.06203e-06
-0.000112339
-7.33505e-06
-0.000108437
-1.95926e-05
-0.000102084
-3.12833e-05
-9.34128e-05
-4.22962e-05
-8.29961e-05
-5.20242e-05
-7.08716e-05
-6.05504e-05
-5.7404e-05
-6.75074e-05
-4.28092e-05
-7.3051e-05
-2.75969e-05
-7.68039e-05
-1.20204e-05
-7.88448e-05
3.56873e-06
-7.92829e-05
1.88896e-05
-7.81228e-05
3.3745e-05
-7.55433e-05
4.79809e-05
-7.15946e-05
6.12785e-05
-6.6011e-05
7.33207e-05
-5.89516e-05
8.38414e-05
-5.03572e-05
9.25683e-05
-4.01144e-05
9.90262e-05
-2.84318e-05
0.000103095
-1.52747e-05
0.000104277
-9.11512e-07
0.000102273
1.42616e-05
9.68568e-05
3.02227e-05
8.77327e-05
4.63401e-05
7.47981e-05
6.20055e-05
5.86939e-05
7.53564e-05
4.11067e-05
8.19077e-05
2.41253e-05
7.89719e-05
0.000111206
-3.4344e-05
0.000170764
-5.8859e-05
0.000122848
-8.38399e-05
0.000125935
-0.000107283
0.000117142
-0.000125773
9.66161e-05
-0.00013859
7.23383e-05
-0.000146191
4.77555e-05
-0.00014911
2.37698e-05
-0.000147824
8.47658e-07
-0.000142638
-2.11754e-05
-0.00013396
-4.16478e-05
-0.000121973
-6.06357e-05
-0.000107061
-7.73798e-05
-8.96419e-05
-9.20558e-05
-7.01586e-05
-0.000104226
-4.90969e-05
-0.000113568
-2.69095e-05
-0.000120188
-4.05136e-06
-0.000124025
1.8969e-05
-0.000124882
4.16657e-05
-0.000122846
6.33196e-05
-0.000117516
8.33801e-05
-0.000109454
0.000101682
-9.86452e-05
0.000117412
-8.54463e-05
0.00013011
-6.99301e-05
0.000139592
-5.27931e-05
0.000145534
-3.47549e-05
0.000148003
-1.61893e-05
0.000147014
2.48415e-06
0.000142537
2.06155e-05
0.00013476
3.77375e-05
0.000124275
5.31852e-05
0.000111093
6.69082e-05
9.60775e-05
7.81501e-05
7.96759e-05
8.69503e-05
6.24506e-05
9.31604e-05
4.48837e-05
9.7156e-05
2.74536e-05
9.88002e-05
1.04328e-05
9.878e-05
-6.21038e-06
9.77669e-05
-2.23788e-05
9.56091e-05
-3.82156e-05
9.30188e-05
-5.35604e-05
8.90794e-05
-6.82352e-05
8.39735e-05
-8.20084e-05
7.73794e-05
-9.45918e-05
6.92118e-05
-0.000105481
5.92422e-05
-0.000114451
4.78177e-05
-0.000121156
3.50696e-05
-0.00012525
2.10844e-05
-0.000126608
6.4197e-06
-0.000125004
-8.93911e-06
-0.000120566
-2.40303e-05
-0.000113308
-3.8542e-05
-0.000103834
-5.17706e-05
-9.19742e-05
-6.38833e-05
-7.82839e-05
-7.42401e-05
-6.30067e-05
-8.27837e-05
-4.69111e-05
-8.91453e-05
-3.0044e-05
-9.36702e-05
-1.2872e-05
-9.60162e-05
4.22408e-06
-9.63783e-05
2.11298e-05
-9.50283e-05
3.75192e-05
-9.19327e-05
5.32075e-05
-8.72829e-05
6.80416e-05
-8.08446e-05
8.1703e-05
-7.26116e-05
9.3709e-05
-6.23623e-05
0.000103966
-5.03718e-05
0.000111818
-3.62849e-05
0.000117055
-2.0513e-05
0.000119172
-3.0297e-06
0.000117758
1.56756e-05
0.000112407
3.55732e-05
0.00010251
5.62368e-05
8.77818e-05
7.67329e-05
6.87498e-05
9.43887e-05
4.80308e-05
0.000102626
2.80608e-05
9.89416e-05
0.000139267
-3.98992e-05
0.000210663
-6.91591e-05
0.000152108
-9.9182e-05
0.000155958
-0.000127402
0.000145362
-0.000148571
0.000117785
-0.000162277
8.60442e-05
-0.000169631
5.51092e-05
-0.000171678
2.58167e-05
-0.000169242
-1.58819e-06
-0.000162713
-2.77051e-05
-0.00015223
-5.21324e-05
-0.000138407
-7.44579e-05
-0.000121196
-9.45909e-05
-0.00010134
-0.000111911
-7.916e-05
-0.000126405
-5.52603e-05
-0.000137467
-3.02098e-05
-0.000145238
-4.40106e-06
-0.000149833
2.16397e-05
-0.000150922
4.72672e-05
-0.000148473
7.1964e-05
-0.000142212
9.50889e-05
-0.000132579
0.000115718
-0.000119274
0.000133371
-0.000103099
0.000147666
-8.42248e-05
0.000158172
-6.32994e-05
0.000164998
-4.15804e-05
0.000167591
-1.87816e-05
0.000165987
4.0892e-06
0.000160654
2.59483e-05
0.000151426
4.6967e-05
0.000138841
6.57708e-05
0.000123538
8.22123e-05
0.00010603
9.56583e-05
8.71158e-05
0.000105865
6.74887e-05
0.00011279
4.78075e-05
0.000116839
2.85921e-05
0.000118016
9.96596e-06
0.000117405
-8.0615e-06
0.000115792
-2.54532e-05
0.000112999
-4.25985e-05
0.000110164
-5.9425e-05
0.000105907
-7.57357e-05
0.000100286
-9.11737e-05
9.28194e-05
-0.000105303
8.33422e-05
-0.000117875
7.18145e-05
-0.000128262
5.82043e-05
-0.000136026
4.28328e-05
-0.000141022
2.60802e-05
-0.000142623
8.01965e-06
-0.000140967
-1.05952e-05
-0.000135858
-2.91394e-05
-0.000127634
-4.67659e-05
-0.000116549
-6.28554e-05
-0.000102973
-7.74579e-05
-8.72832e-05
-8.99297e-05
-7.01815e-05
-9.98856e-05
-5.17917e-05
-0.000107535
-3.28904e-05
-0.000112571
-1.38091e-05
-0.000115097
5.15413e-06
-0.000115341
2.37758e-05
-0.00011365
4.18337e-05
-0.00010999
5.92728e-05
-0.000104722
7.59028e-05
-9.74743e-05
9.14324e-05
-8.81414e-05
0.00010544
-7.63718e-05
0.000117443
-6.23751e-05
0.000127116
-4.59588e-05
0.000134018
-2.74143e-05
0.00013753
-6.54092e-06
0.000137201
1.60046e-05
0.000132214
4.05593e-05
0.000121578
6.68729e-05
0.000104772
9.35386e-05
8.1852e-05
0.000117309
5.68097e-05
0.000127669
3.27673e-05
0.000122984
0.000172034
-4.61013e-05
0.000256764
-8.229e-05
0.000188296
-0.000118957
0.000192625
-0.000153954
0.000180359
-0.000178239
0.000142069
-0.000192111
9.99161e-05
-0.000198291
6.12884e-05
-0.000198812
2.63376e-05
-0.00019471
-5.69042e-06
-0.000186257
-3.61574e-05
-0.000174038
-6.43518e-05
-0.00015786
-9.06362e-05
-0.000138064
-0.000114387
-0.000115141
-0.000134834
-8.98733e-05
-0.000151673
-6.26729e-05
-0.000164667
-3.41395e-05
-0.000173771
-4.77956e-06
-0.000179192
2.49437e-05
-0.000180645
5.42403e-05
-0.000177769
8.24739e-05
-0.000170446
0.000108699
-0.000158804
0.000132624
-0.000143198
0.000152838
-0.000123313
0.000169371
-0.000100757
0.000181502
-7.54309e-05
0.000188818
-4.88968e-05
0.000191487
-2.145e-05
0.000189674
5.90264e-06
0.000182918
3.27059e-05
0.000171923
5.79634e-05
0.000156829
8.08653e-05
0.000138489
0.000100554
0.000117769
0.000116381
9.56284e-05
0.000128006
7.30055e-05
0.000135412
5.07644e-05
0.000139079
2.93743e-05
0.000139405
9.05976e-06
0.00013772
-1.03542e-05
0.000135208
-2.8991e-05
0.000131637
-4.75925e-05
0.000128766
-6.60918e-05
0.000124406
-8.42494e-05
0.000118442
-0.000101761
0.000110328
-0.000118048
9.9627e-05
-0.000132747
8.65114e-05
-0.000145036
7.04914e-05
-0.000154371
5.21676e-05
-0.000160169
3.18789e-05
-0.000162284
1.01356e-05
-0.000160234
-1.26456e-05
-0.000154483
-3.48903e-05
-0.000144875
-5.63749e-05
-0.000131869
-7.58621e-05
-0.000116054
-9.32741e-05
-9.78361e-05
-0.000108149
-7.80776e-05
-0.000119645
-5.72159e-05
-0.000128398
-3.60779e-05
-0.00013371
-1.47743e-05
-0.0001364
6.26411e-06
-0.000136379
2.68209e-05
-0.000134206
4.67741e-05
-0.000129944
6.62364e-05
-0.000124184
8.49999e-05
-0.000116238
0.000102674
-0.000105814
0.00011903
-9.27271e-05
0.000133334
-7.66776e-05
0.000145225
-5.78481e-05
0.000154258
-3.64465e-05
0.000159844
-1.21273e-05
0.000161233
1.46138e-05
0.000157343
4.4449e-05
0.000146451
7.77639e-05
0.000127255
0.000112735
9.84854e-05
0.000146078
6.70363e-05
0.000159118
3.75986e-05
0.000152422
0.000209633
-5.52522e-05
0.000312016
-0.000103799
0.000236843
-0.000148185
0.000237012
-0.000190024
0.000222198
-0.000216771
0.000168816
-0.000229273
0.000112418
-0.000232844
6.48589e-05
-0.000230678
2.41715e-05
-0.000224455
-1.19137e-05
-0.000214032
-4.65796e-05
-0.000199429
-7.89554e-05
-0.000180631
-0.000109434
-0.000157652
-0.000137366
-0.000131005
-0.000161481
-0.000101898
-0.00018078
-7.08845e-05
-0.00019568
-3.85395e-05
-0.000206116
-5.13851e-06
-0.000212594
2.88218e-05
-0.000214606
6.23764e-05
-0.000211324
9.51577e-05
-0.000203227
0.00012592
-0.000189566
0.000153342
-0.00017062
0.000177031
-0.000147002
0.000195914
-0.000119641
0.000209803
-8.932e-05
0.000218185
-5.72783e-05
0.000221144
-2.44092e-05
0.000218313
8.73361e-06
0.000210049
4.09698e-05
0.000196555
7.1457e-05
0.000178411
9.90099e-05
0.00015643
0.000122534
0.000131698
0.000141113
0.000105592
0.000154113
7.92375e-05
0.000161767
5.37233e-05
0.000164594
2.97692e-05
0.000163361
7.60568e-06
0.000159884
-1.28804e-05
0.000155692
-3.25383e-05
0.000151293
-5.29915e-05
0.000149217
-7.36531e-05
0.000145067
-9.42039e-05
0.000138993
-0.000114237
0.000130362
-0.000133216
0.000118607
-0.000150371
0.000103667
-0.000165093
8.52155e-05
-0.000176412
6.34877e-05
-0.000183856
3.93235e-05
-0.000186467
1.27459e-05
-0.000184249
-1.48647e-05
-0.000177096
-4.20438e-05
-0.000165651
-6.78203e-05
-0.000150166
-9.13483e-05
-0.000131216
-0.000112224
-0.000110266
-0.000129098
-8.74241e-05
-0.000142486
-6.37811e-05
-0.000152039
-3.96356e-05
-0.000157854
-1.57703e-05
-0.000160265
7.49658e-06
-0.000159645
3.01076e-05
-0.000156817
5.20678e-05
-0.000151903
7.34536e-05
-0.00014557
9.44751e-05
-0.000137258
0.000115148
-0.000126487
0.000134464
-0.000112044
0.00015175
-9.3963e-05
0.000166458
-7.25569e-05
0.000178225
-4.82149e-05
0.00018642
-2.03245e-05
0.000190687
1.03459e-05
0.000189172
4.59634e-05
0.000179022
8.79136e-05
0.000157089
0.000134667
0.000121197
0.00018197
8.17525e-05
0.000198562
4.35981e-05
0.000190575
0.00025323
-5.91207e-05
0.000371136
-0.000136765
0.000314488
-0.000197687
0.000297933
-0.000245494
0.000270005
-0.000270981
0.000194302
-0.000275419
0.000116855
-0.000273148
6.25879e-05
-0.000266753
1.7776e-05
-0.000257337
-2.1329e-05
-0.000245038
-5.8879e-05
-0.000228547
-9.54464e-05
-0.000206721
-0.000131261
-0.000179783
-0.000164304
-0.000148934
-0.00019233
-0.00011527
-0.000214444
-7.99116e-05
-0.000231039
-4.31551e-05
-0.000242872
-5.06499e-06
-0.000250684
3.36575e-05
-0.000253328
7.27083e-05
-0.000250375
0.000110704
-0.000241223
0.000146664
-0.000225527
0.000178894
-0.000202852
0.000206233
-0.000174341
0.000228007
-0.000141416
0.000243872
-0.000105185
0.000253518
-6.69251e-05
0.000256709
-2.75996e-05
0.000253384
1.20591e-05
0.000243337
5.10169e-05
0.000226992
8.78021e-05
0.000204926
0.000121075
0.000178228
0.000149233
0.000148335
0.000171005
0.000116837
0.000185612
8.55935e-05
0.000193012
5.58257e-05
0.000194363
2.86324e-05
0.000190554
4.93191e-06
0.000183585
-1.5045e-05
0.000175671
-3.44548e-05
0.000170704
-5.72569e-05
0.000172021
-8.13897e-05
0.000169202
-0.000105377
0.000162983
-0.000128697
0.000153684
-0.00015108
0.000140992
-0.000171778
0.000124366
-0.000189728
0.000103167
-0.000203712
7.74724e-05
-0.000212701
4.83127e-05
-0.000216242
1.62872e-05
-0.000213665
-1.74415e-05
-0.000205083
-5.06239e-05
-0.000190953
-8.19485e-05
-0.000172228
-0.000110072
-0.000150099
-0.00013435
-0.00012524
-0.000153955
-9.84327e-05
-0.000169294
-7.09067e-05
-0.000179565
-4.3567e-05
-0.000185195
-1.70375e-05
-0.000186796
8.68701e-06
-0.000185371
3.3356e-05
-0.000181487
5.73305e-05
-0.000175879
8.08298e-05
-0.00016907
0.000104553
-0.000160982
0.000128226
-0.000150162
0.000151231
-0.000135051
0.00017216
-0.000114893
0.000190044
-9.04413e-05
0.000205006
-6.31781e-05
0.000217392
-3.27102e-05
0.000226062
1.67543e-06
0.000229386
4.26396e-05
0.000223662
9.36371e-05
0.00020181
0.00015652
0.000156493
0.000227287
0.000106301
0.000248753
5.17326e-05
0.000245143
0.000304963
-1.16825e-05
0.000382819
-0.000131923
0.000434728
-0.000278363
0.000444373
-0.000344317
0.000335957
-0.000350173
0.000200157
-0.000332373
9.90553e-05
-0.000318386
4.86006e-05
-0.000307435
6.82484e-06
-0.000295303
-3.34619e-05
-0.000280867
-7.33155e-05
-0.000262287
-0.000114026
-0.000238272
-0.000155276
-0.000208076
-0.000194499
-0.000172638
-0.000227769
-0.000134099
-0.000252983
-9.35238e-05
-0.000271615
-5.08841e-05
-0.000285513
-6.74071e-06
-0.000294828
3.83246e-05
-0.000298394
8.39251e-05
-0.000295976
0.000128593
-0.000285891
0.00017093
-0.000267864
0.000209217
-0.000241138
0.000241868
-0.000206991
0.000267166
-0.000166713
0.000285584
-0.000123603
0.000296665
-7.80052e-05
0.00030028
-3.12146e-05
0.000296251
1.60879e-05
0.00028431
6.29577e-05
0.000264548
0.000107564
0.000237553
0.000148071
0.000204787
0.000181999
0.000168249
0.000207543
0.000129558
0.000224304
9.06735e-05
0.000231896
5.44057e-05
0.000230631
2.33196e-05
0.000221642
-3.65764e-07
0.000207272
-1.65752e-05
0.000191882
-3.33461e-05
0.000187477
-5.79374e-05
0.000196614
-8.67765e-05
0.000198042
-0.00011627
0.000192477
-0.000144928
0.000182343
-0.000172242
0.000168307
-0.000197421
0.000149544
-0.000219279
0.000125025
-0.000236614
9.48083e-05
-0.000248324
6.0023e-05
-0.000252952
2.09175e-05
-0.000249968
-2.04237e-05
-0.000239222
-6.13689e-05
-0.000221712
-9.94578e-05
-0.000198768
-0.000133016
-0.000172123
-0.000160997
-0.000141926
-0.000184153
-0.000110401
-0.000200819
-7.80849e-05
-0.000211883
-4.63259e-05
-0.000216956
-1.61535e-05
-0.000216969
1.24823e-05
-0.000214007
4.0154e-05
-0.000209159
6.66702e-05
-0.000202395
9.26189e-05
-0.000195019
0.00011862
-0.000186983
0.00014513
-0.000176672
0.000171182
-0.000161103
0.000195328
-0.000139039
0.000216871
-0.000111985
0.000235811
-8.21183e-05
0.000252933
-4.98324e-05
0.000267232
-1.26248e-05
0.000278654
3.12176e-05
0.000284988
8.7303e-05
0.000272082
0.000169425
0.000227174
0.000272195
0.000142769
0.000333158
3.56082e-05
0.000352304
0.000340571
5.25985e-05
0.000328535
4.64646e-05
0.000435983
-0.000188453
0.000673703
-0.000427922
0.000575426
-0.000471398
0.000243633
-0.000413791
4.14484e-05
-0.000369173
3.98236e-06
-0.000345104
-1.72444e-05
-0.000331853
-4.67137e-05
-0.000320783
-8.43861e-05
-0.000306638
-0.000128171
-0.000283917
-0.000177998
-0.000249862
-0.000228554
-0.000207668
-0.000269964
-0.000163032
-0.000297618
-0.000117743
-0.000316904
-6.94126e-05
-0.000333843
-1.82713e-05
-0.000345969
3.50389e-05
-0.000351704
8.93366e-05
-0.000350273
0.000144231
-0.000340785
0.000197127
-0.00032076
0.000244401
-0.000288412
0.000283418
-0.000246008
0.000312985
-0.000196279
0.000333526
-0.000144144
0.000346017
-9.0495e-05
0.000350317
-3.55128e-05
0.000345874
2.05319e-05
0.0003324
7.64319e-05
0.000309208
0.000130756
0.000277235
0.000180044
0.000237313
0.000221921
0.000190866
0.00025399
0.000140768
0.000274402
9.10935e-05
0.000281571
4.75406e-05
0.000274184
1.38198e-05
0.000255363
-8.01472e-06
0.000229106
-2.03734e-05
0.00020424
-3.33323e-05
0.000200435
-5.68909e-05
0.000220171
-8.85429e-05
0.000229693
-0.000123642
0.000227575
-0.000159885
0.000218585
-0.000195481
0.000203902
-0.000227985
0.000182048
-0.000254953
0.000151992
-0.000275224
0.00011508
-0.000288687
7.34868e-05
-0.000294267
2.64972e-05
-0.000290816
-2.38753e-05
-0.000277901
-7.42862e-05
-0.000256316
-0.000121045
-0.00022806
-0.000161271
-0.000194734
-0.000194324
-0.000158138
-0.000220748
-0.000117844
-0.000241114
-7.75595e-05
-0.000252166
-3.97745e-05
-0.000254739
-5.15691e-06
-0.000251585
2.71186e-05
-0.000246282
5.762e-05
-0.000239659
8.54293e-05
-0.000230204
0.00011099
-0.000220577
0.000139022
-0.000215015
0.000171018
-0.000208668
0.000201875
-0.00019196
0.00022742
-0.000164584
0.000248177
-0.000132742
0.000267253
-0.000101196
0.000288487
-7.10661e-05
0.000316009
-4.0147e-05
0.000350541
-3.31516e-06
0.000394015
4.38289e-05
0.000406404
0.000157035
0.00030522
0.000373378
7.7314e-05
0.000561064
-4.0269e-05
0.000468119
0.000300301
0.000151546
0.00017607
0.000372458
0.000208215
0.000230219
0.000809086
-0.000241506
0.00105018
-0.000471013
0.00047314
-0.000468577
3.9013e-05
-0.000422002
-4.25933e-05
-0.00039384
-4.5406e-05
-0.00038237
-5.81841e-05
-0.000378495
-8.82603e-05
-0.000367597
-0.000139069
-0.000335012
-0.000210583
-0.000279312
-0.000284254
-0.000217313
-0.000331963
-0.00016533
-0.000349601
-0.000123071
-0.000359163
-7.94991e-05
-0.000377414
-2.91799e-05
-0.000396288
2.78519e-05
-0.000408735
8.98262e-05
-0.000412247
0.000155106
-0.000406065
0.000220289
-0.000385943
0.00027972
-0.000347842
0.000328095
-0.000294383
0.000363824
-0.000232007
0.000387116
-0.000167436
0.000400774
-0.000104153
0.000406285
-4.10232e-05
0.000402854
2.39628e-05
0.00038846
9.08258e-05
0.000361671
0.000157546
0.000322273
0.000219442
0.000271558
0.000272637
0.000212572
0.000312976
0.000150273
0.000336701
9.24749e-05
0.000339369
4.70287e-05
0.00031963
1.40267e-05
0.000288364
-1.02518e-05
0.000253384
-2.94651e-05
0.000223453
-4.80973e-05
0.000219067
-7.21769e-05
0.00024425
-0.000102506
0.000260023
-0.000137217
0.000262286
-0.000176193
0.00025756
-0.000218509
0.000246219
-0.000260375
0.000223914
-0.000296159
0.000187775
-0.000323041
0.00014196
-0.000340301
9.07447e-05
-0.000347534
3.37295e-05
-0.000342051
-2.93595e-05
-0.000323149
-9.31865e-05
-0.000293845
-0.000150348
-0.000257386
-0.000197729
-0.000215936
-0.000235774
-0.000171221
-0.000265461
-0.000124005
-0.000288328
-7.68524e-05
-0.000299317
-3.38394e-05
-0.000297751
2.57651e-06
-0.000288001
3.42655e-05
-0.00027797
5.79997e-05
-0.000263393
7.33524e-05
-0.000245558
8.69736e-05
-0.000234199
0.000115713
-0.000243754
0.000166731
-0.000259685
0.000224782
-0.000250011
0.000269094
-0.000208895
0.000295323
-0.000158972
0.000314043
-0.000119915
0.000339376
-9.63996e-05
0.000383373
-8.4145e-05
0.000448969
-6.89112e-05
0.000497007
-4.20821e-06
0.000416601
0.000237441
8.14604e-05
0.000708519
-0.000194787
0.000827453
-0.000116645
0.000382338
0.00018108
0.000403736
-0.000227528
0.000686044
-7.19468e-05
0.000582591
0.000918354
6.40094e-05
0.00153562
-0.000330291
0.000867441
-0.000428455
0.000137131
-0.000426629
-4.44195e-05
-0.000418155
-5.38803e-05
-0.000423337
-5.30012e-05
-0.000423703
-8.78942e-05
-0.000392948
-0.000169824
-0.000321329
-0.000282202
-0.000225821
-0.000379762
-0.000138031
-0.000419752
-7.97706e-05
-0.000407862
-4.6626e-05
-0.000392307
-1.63602e-05
-0.000407679
2.24719e-05
-0.00043512
7.39726e-05
-0.000460236
0.000137046
-0.000475319
0.00020685
-0.000475868
0.00027518
-0.000454273
0.000336386
-0.000409048
0.000386577
-0.000344573
0.000424999
-0.000270429
0.000453038
-0.000195476
0.000473044
-0.000124158
0.000484985
-5.29643e-05
0.000484884
2.40649e-05
0.000468186
0.000107524
0.000432844
0.000192887
0.00038027
0.000272016
0.000316604
0.000336303
0.000248479
0.000381102
0.000184155
0.000401026
0.000131392
0.000392131
9.13096e-05
0.000359713
5.544e-05
0.000324234
1.2762e-05
0.000296062
-3.6189e-05
0.000272404
-8.44432e-05
0.000267321
-0.000127842
0.00028765
-0.000165614
0.000297794
-0.000197043
0.000293714
-0.000226773
0.00028729
-0.000260146
0.000279593
-0.000302379
0.000266146
-0.000346783
0.00023218
-0.000386518
0.000181695
-0.000417912
0.000122139
-0.000435968
5.17872e-05
-0.000432323
-3.30036e-05
-0.000402936
-0.000122573
-0.000355402
-0.000197882
-0.000302477
-0.000250654
-0.0002542
-0.00028405
-0.000214278
-0.000305381
-0.000178889
-0.000323718
-0.000141351