/*--------------------------------*- C++ -*----------------------------------*\
| =========                 |                                                 |
| \\      /  F ield         | OpenFOAM: The Open Source CFD Toolbox           |
|  \\    /   O peration     | Version:  2412                                  |
|   \\  /    A nd           | Website:  www.openfoam.com                      |
|    \\/     M anipulation  |                                                 |
\*---------------------------------------------------------------------------*/
FoamFile
{
    version     2.0;
    format      ascii;
    arch        "LSB;label=32;scalar=64";
    class       volScalarField;
    location    "8.35";
    object      alpha.soap;
}
// * * * * * * * * * * * * * * * * * * * * * * * * * * * * * * * * * * * * * //

dimensions      [0 0 0 0 0 0 0];

internalField   nonuniform List<scalar> 
6400
(
1
1
1
0.999999
0.999999
0.999999
0.999999
0.999999
0.999999
0.999999
0.999999
0.999999
0.999999
0.999999
0.999999
1
1
1
1
1
1
1
1
1
1
1
1
1
1
1
1
1
1
1
1
1
1
1
1
1
1
1
1
1
1
1
1
0.999999
0.999999
0.999999
1
1
1
1
1
1
1
1
1
1
1
1
1
1
1
1
1
1
0.999999
0.999997
0.999997
0.999998
0.999998
0.999998
0.999997
0.999996
0.999997
0.999999
0.999999
0.999999
0.999994
0.999998
0.999999
0.999999
0.999998
0.999999
0.999999
0.999999
0.999999
0.999999
0.999999
0.999999
0.999999
0.999999
0.999999
1
1
1
1
1
1
1
1
1
1
1
1
1
1
1
1
1
1
1
1
1
1
0.999999
1
1
1
1
1
1
1
1
1
1
1
1
1
1
1
1
1
1
1
1
1
1
1
1
1
1
1
1
1
0.999998
0.999998
0.999998
0.999999
0.999999
0.999998
0.999997
0.999996
0.999997
0.999999
0.999999
0.999999
1
0.999998
0.999998
0.999998
0.999999
0.999999
0.999999
0.999999
0.999998
0.999998
0.999999
0.999999
0.999999
0.999999
1
1
1
1
1
1
1
1
1
1
1
1
1
1
1
1
1
1
1
0.999999
0.999999
0.999998
0.999999
1
1
1
1
1
1
1
1
1
1
1
1
0.999999
0.999998
0.999998
0.999999
1
1
1
1
1
1
1
1
1
0.999999
0.999999
0.999999
1
1
1
1
1
1
1
1
1
1
0.999999
0.999998
0.999997
0.999997
1
1
1
0.999999
0.999999
1
1
1
0.999999
0.999999
0.999999
1
1
1
1
0.999999
1
1
1
1
1
1
1
1
1
1
1
1
1
1
1
1
1
1
1
1
1
1
1
1
1
0.999999
0.999999
0.999999
1
0.999999
0.999999
0.999999
0.999999
1
1
1
1
1
1
1
1
1
1
1
1
0.999999
0.999999
0.999999
1
1
1
1
0.999999
0.999999
0.999999
0.999999
0.999999
0.999998
0.999997
0.999997
0.999998
0.999999
0.999998
0.999998
0.999999
0.999998
1
1
1
1
1
1
0.999999
0.999999
1
1
1
0.999999
1
1
1
1
1
1
1
1
1
1
1
1
1
1
1
1
1
1
1
1
1
1
1
0.999999
0.999999
0.999999
1
0.999999
0.999999
0.999998
0.999998
0.999998
0.999998
0.999999
1
1
1
1
1
0.999999
0.999999
0.999999
0.999999
1
1
1
1
1
1
1
0.999999
0.999998
0.999996
0.999995
0.999995
0.999995
0.999998
0.999996
0.999996
0.999996
0.999997
0.999999
1
1
0.999998
1
0.999999
0.999999
1
1
1
1
1
1
1
1
1
1
1
1
1
1
1
1
1
1
1
0.999999
0.999999
1
1
1
1
1
1
1
1
0.999999
0.999999
0.999999
0.999999
0.999999
1
1
1
1
1
1
1
1
1
0.999999
0.999999
0.999999
1
1
1
1
1
1
1
1
1
1
1
1
1
1
1
1
1
0.999999
0.999995
0.999995
0.999999
0.999999
0.999999
0.999999
1
1
1
1
1
1
0.999999
1
0.999999
1
1
1
1
1
1
1
1
1
1
1
1
1
1
1
1
0.999999
0.999999
0.999999
0.999999
0.999999
0.999999
1
0.999999
0.999999
0.999998
0.999998
0.999998
0.999999
0.999999
1
1
1
1
1
1
1
1
1
1
1
1
1
1
0.999999
0.999999
1
1
1
1
1
1
1
1
1
1
1
1
1
1
1
1
1
1
1
1
0.999999
1
1
1
1
0.999999
0.999999
1
1
0.999999
0.999999
1
1
1
1
1
1
1
1
0.999999
1
1
1
1
1
1
1
0.999999
0.999999
1
1
0.999999
1
1
1
1
1
1
1
1
1
1
1
1
1
1
1
1
1
1
1
1
1
1
1
1
1
1
1
1
1
1
1
1
1
1
1
1
1
1
1
1
1
1
1
1
1
1
0.999999
0.999999
0.999999
0.999999
0.999998
0.999998
0.999999
1
1
1
1
1
1
1
0.999998
1
0.999999
1
0.999999
0.999999
0.999999
0.999999
1
1
1
1
1
1
1
1
1
1
1
1
1
1
1
1
1
1
1
1
1
1
1
1
1
1
1
1
1
1
1
1
1
1
1
1
1
1
1
1
1
1
1
1
1
1
1
1
1
1
1
0.999999
0.999999
1
1
0.999999
0.999998
0.999999
0.999999
1
1
0.999999
0.999999
1
1
1
1
1
1
1
1
1
1
0.999999
0.999999
1
0.999999
0.999999
0.999999
1
1
1
1
1
1
1
1
1
1
1
1
0.999998
0.999998
0.999999
1
1
1
1
1
1
1
1
1
0.999999
1
1
1
1
1
1
1
1
1
1
1
1
1
1
1
1
1
1
1
1
1
1
1
1
1
1
1
1
1
1
1
1
1
1
1
1
1
1
1
1
1
1
1
1
1
1
1
0.999999
1
1
1
1
0.999991
0.999999
0.999999
0.999999
1
1
0.999999
1
1
1
1
1
0.999999
0.999999
0.999999
0.999999
0.999999
0.999999
1
1
1
1
1
1
1
1
1
1
1
1
1
1
1
1
1
1
1
1
1
1
1
1
1
1
1
1
1
1
1
1
1
1
1
1
1
1
1
1
1
1
1
1
1
1
1
1
1
1
1
1
0.999997
0.999995
0.999997
1
0.999999
1
1
0.999999
1
0.999945
0.999313
0.99996
0.999999
1
1
0.999999
0.999999
0.999999
1
0.999999
1
1
1
1
1
1
1
1
1
1
1
1
1
1
1
1
1
1
1
1
1
1
1
1
1
1
1
1
1
1
1
1
1
1
1
1
1
1
1
1
1
1
1
1
1
1
1
1
1
1
1
1
1
1
1
1
0.999999
0.999999
0.999999
1
0.999993
0.99993
0.99989
0.999938
0.999998
1
1
1
1
0.999625
0.999029
0.999628
0.999997
1
0.999999
0.999999
0.999999
1
1
1
1
1
1
1
1
1
1
1
1
1
1
1
1
1
1
1
1
1
1
1
1
1
1
1
1
1
1
1
1
1
1
1
1
1
1
1
1
1
1
1
1
1
1
1
1
1
1
1
1
1
1
1
1
0.999999
1
1
1
1
1
1
1
0.999926
0.999864
0.999865
0.999954
1
0.999992
0.999987
0.999965
0.999059
0.999262
0.999645
0.999955
1
1
1
1
1
1
1
1
1
1
1
1
1
1
1
1
1
1
1
1
1
1
1
1
1
1
1
1
1
1
1
1
1
1
1
1
1
1
1
1
1
1
1
1
1
1
1
1
1
1
1
1
1
1
1
1
1
1
1
1
1
1
1
1
1
1
1
1
1
0.999972
0.999864
0.999927
1
0.999564
0.997367
0.998703
0.997803
0.995462
0.999336
0.999999
1
1
0.999999
1
1
1
1
1
1
1
1
1
1
1
1
1
1
1
1
1
1
1
1
1
1
1
1
1
1
1
1
1
1
1
1
1
1
1
1
1
1
1
1
1
1
1
1
1
1
1
1
1
1
1
1
1
1
1
1
1
1
1
1
1
1
1
1
1
1
1
0.999975
0.999961
0.999998
0.998964
0.995507
0.996814
0.998635
0.992627
0.992587
0.999263
0.999999
0.999988
0.999976
0.999999
1
1
1
1
1
1
1
1
1
1
1
1
1
1
1
1
1
1
1
1
1
1
1
1
1
1
1
1
1
1
1
0.999999
0.999999
0.999999
1
1
1
1
1
1
1
1
1
1
1
1
1
1
1
1
1
1
1
1
1
1
1
1
1
1
1
1
1
1
1
1
1
0.999998
0.999928
0.99673
0.995472
0.998502
0.998778
0.992849
0.991909
0.995251
0.999922
0.999987
0.99997
0.999991
1
1
1
1
1
1
1
1
1
1
1
1
1
1
1
1
1
1
1
1
1
1
1
1
1
1
1
1
1
1
0.999999
0.999999
0.999999
0.999999
0.999999
0.999999
0.999999
0.999999
0.999999
0.999999
1
1
1
1
1
1
1
1
1
1
1
1
1
1
1
1
1
1
1
1
1
1
1
1
1
1
0.999995
0.999996
0.999581
0.99545
0.995443
0.998811
0.998778
0.997882
0.992095
0.992196
0.999001
0.999982
0.999971
0.99999
0.999998
1
1
1
1
1
1
1
1
1
1
1
1
1
1
1
1
1
1
1
1
1
1
1
1
1
1
1
1
1
0.999999
1
1
1
1
1
0.999999
0.999999
1
1
1
1
1
1
1
1
1
1
1
1
1
1
1
1
1
1
1
1
1
1
1
1
0.999999
0.999997
0.999997
0.999998
0.999995
0.999992
0.999708
0.995442
0.99615
0.999272
0.998648
0.99772
0.997628
0.998424
0.999165
0.99994
0.999952
0.999958
0.999966
0.99999
0.999999
1
1
1
1
1
1
1
1
1
1
1
1
1
1
1
1
1
1
1
1
1
1
1
1
0.999999
0.999998
0.999997
0.999998
0.999999
0.999999
1
1
1
1
1
1
1
1
1
1
1
1
1
1
1
1
1
1
1
1
1
0.996183
0.98941
0.98354
0.980447
0.980406
0.984547
0.991716
0.997292
0.999964
0.99991
0.999904
0.999945
0.999977
0.999983
0.999785
0.999156
0.999247
0.999272
0.997158
0.996327
0.996714
0.997714
0.994255
0.978672
0.957162
0.927769
0.877496
0.814047
0.7523
0.704204
0.653408
0.599829
0.565386
0.557005
0.572711
0.606698
0.653719
0.706032
0.75506
0.801155
0.840133
0.87137
0.896186
0.914588
0.923944
0.925251
0.92059
0.916576
0.91817
0.924695
0.929416
0.927997
0.922909
0.922038
0.936014
0.956151
0.973662
0.983924
0.987796
0.990351
0.99299
0.995559
0.997869
0.999511
1
1
1
1
0.99911
0.99003
0.977079
0.958309
0.932274
0.896642
0.848067
0.783013
0.701208
0.609892
0.526142
0.461149
0.417437
0.393132
0.384411
0.394429
0.418139
0.447835
0.488174
0.56215
0.667201
0.767806
0.872441
0.946843
0.991584
0.999736
0.99968
0.9993
0.999222
0.999216
0.693517
0.68948
0.664901
0.596571
0.48067
0.361314
0.262636
0.188305
0.139665
0.104872
0.0758191
0.0567831
0.0351821
0.0158819
0.00768576
0.00554348
0.00569601
0.00930821
0.0191202
0.0361593
0.0610123
0.0937961
0.129644
0.162986
0.191369
0.212473
0.226664
0.236433
0.243801
0.250652
0.25742
0.265454
0.276998
0.292045
0.303144
0.307596
0.306732
0.302887
0.300177
0.3014
0.311068
0.330381
0.356157
0.386663
0.418401
0.445943
0.460921
0.463579
0.451616
0.421452
0.381288
0.345044
0.307961
0.268327
0.224576
0.175042
0.124327
0.0771894
0.0419336
0.0197893
0.00702161
0.00192758
0.00060685
0.000358767
0.000421773
0.000769439
0.00145203
0.00193627
0.00188389
0.00252715
0.00978894
0.0431787
0.116576
0.24469
0.453437
0.69686
0.849764
0.92721
0.963507
0.980657
0.0505938
0.0335757
0.0181684
3.43202e-06
3.42147e-06
3.61559e-06
4.7931e-06
5.83354e-06
2.17629e-05
0.000107047
0.000268086
0.000363355
0.000401353
0.00029813
0.000191032
9.18664e-05
4.58432e-05
3.12943e-05
2.97187e-05
2.94658e-05
2.89765e-05
7.94023e-05
3.16458e-05
3.6353e-05
4.37314e-05
6.1311e-05
0.000117983
5.86045e-05
4.8016e-05
3.05834e-05
2.08067e-05
2.31326e-05
9.56452e-06
9.91222e-06
9.73884e-06
9.66412e-06
9.65257e-06
9.6557e-06
9.65263e-06
9.6557e-06
9.69377e-06
9.87973e-06
1.04975e-05
1.17685e-05
1.38903e-05
1.93809e-05
0.00131753
0.00170554
0.000974168
0.000218311
6.83001e-05
6.20182e-05
2.63154e-05
6.70856e-06
5.18177e-06
2.99614e-06
1.82587e-06
1.43057e-06
1.39754e-06
8.00708e-06
3.41168e-05
3.39969e-05
2.71699e-05
2.70566e-05
3.33722e-05
4.34427e-05
4.84897e-05
4.32999e-05
2.62567e-05
1.52658e-05
1.34581e-05
1.4189e-05
1.29389e-05
1.05e-05
8.21831e-06
7.78619e-06
0.0972193
0.213619
0.317875
0.407031
3.54559e-06
3.45767e-06
3.43202e-06
3.42147e-06
3.40684e-06
3.39176e-06
3.61559e-06
4.7931e-06
1.04143e-05
6.95774e-05
0.000107651
9.93325e-05
0.000108867
0.000113592
0.000103896
5.51424e-05
3.7045e-05
3.19412e-05
2.95391e-05
2.8815e-05
2.77587e-05
2.84818e-05
2.9733e-05
3.16524e-05
3.81533e-05
6.68375e-05
0.000131936
1.27212e-05
1.22858e-05
1.20629e-05
1.31344e-05
2.89841e-05
2.91354e-05
1.46337e-05
9.87988e-06
9.77217e-06
1.10274e-05
1.03756e-05
9.6557e-06
9.65976e-06
9.69644e-06
9.81233e-06
1.00933e-05
1.07478e-05
1.08138e-05
1.39211e-05
1.94117e-05
2.47034e-05
3.82861e-05
4.32874e-05
4.27215e-05
3.01094e-05
6.95621e-06
5.21732e-06
3.02175e-06
1.83933e-06
1.43443e-06
1.37615e-06
1.39947e-06
9.90638e-07
2.57426e-06
3.25802e-06
3.76606e-06
3.84647e-06
4.04236e-06
4.69743e-06
5.1977e-06
4.09252e-06
6.52604e-06
1.61237e-05
7.73704e-05
8.05726e-05
1.99095e-05
8.21831e-06
7.78619e-06
7.71597e-06
7.24804e-06
6.52434e-06
7.306e-06
1.19505e-05
3.58407e-06
3.51607e-06
3.44711e-06
3.40684e-06
3.37714e-06
3.30719e-06
3.46495e-06
4.07642e-06
6.8769e-06
1.9322e-05
4.45165e-05
5.54173e-05
5.28216e-05
8.59954e-05
0.000114595
0.000128004
0.000106052
5.85823e-05
2.88147e-05
2.77438e-05
2.64221e-05
2.37311e-05
3.51573e-05
0.000180879
0.000208324
0.000209918
0.000105986
1.13482e-05
1.13486e-05
1.14179e-05
1.26169e-05
1.99077e-05
1.27657e-05
9.90812e-06
9.92358e-06
9.80687e-06
9.89133e-06
9.77807e-06
9.65976e-06
9.67372e-06
9.7853e-06
1.00453e-05
1.07025e-05
1.08627e-05
4.81898e-05
9.60638e-05
9.63981e-05
6.68193e-05
4.25218e-05
4.27215e-05
3.90557e-05
3.74284e-05
3.12083e-05
3.6606e-05
6.24878e-05
2.69411e-05
1.16444e-05
1.22693e-05
2.08408e-06
5.59574e-07
3.48781e-07
6.3338e-07
1.56316e-06
1.78278e-06
1.1327e-06
5.87518e-07
6.42385e-07
4.72784e-07
4.58591e-06
0.000108321
0.000135132
0.000135143
0.000125614
3.73492e-05
8.21831e-06
7.78619e-06
7.88841e-06
6.44085e-06
7.0977e-06
1.34075e-05
8.43888e-05
2.54622e-05
3.51607e-06
7.30316e-06
3.46413e-06
3.26695e-06
3.30448e-06
3.51967e-06
4.311e-06
6.88153e-06
2.9343e-05
6.30013e-05
2.70626e-05
1.17473e-05
2.53319e-05
8.96255e-05
0.000109289
8.12416e-05
2.77422e-05
2.64221e-05
2.41919e-05
1.87639e-05
2.77262e-05
0.000162342
0.00020846
9.62723e-05
1.79743e-05
1.12653e-05
1.12669e-05
1.13287e-05
1.17912e-05
1.06572e-05
1.0221e-05
9.97206e-06
9.93848e-06
9.92447e-06
1.07637e-05
1.57383e-05
1.28124e-05
9.89358e-06
1.02486e-05
1.10173e-05
1.26936e-05
1.38481e-05
5.44708e-05
0.000213683
0.000217222
0.000222916
0.000216592
0.000152154
0.000131881
0.000115666
0.000135619
0.000248793
0.000253533
0.000246662
8.59899e-05
1.79201e-06
5.58774e-07
3.48524e-07
1.4848e-07
1.05441e-07
5.08015e-07
8.85695e-07
4.17844e-07
7.46962e-08
8.14286e-08
5.98059e-08
2.97925e-06
0.000127871
0.00013515
0.000135132
0.000134916
0.000133824
4.68888e-05
1.42029e-05
1.85697e-05
5.06664e-06
3.75092e-05
0.000142172
8.5123e-05
8.5123e-05
5.69621e-05
5.60388e-05
3.28828e-05
3.28086e-06
3.26153e-06
3.29879e-06
3.48404e-06
6.65729e-06
2.04862e-05
1.58454e-05
5.0574e-06
4.14637e-06
1.11767e-05
9.12809e-05
0.000109311
0.00010928
6.21274e-05
3.77798e-05
3.93548e-05
1.7267e-05
1.24765e-05
1.19232e-05
1.14814e-05
1.42849e-05
1.12654e-05
1.12654e-05
1.12638e-05
1.12669e-05
1.12755e-05
1.12989e-05
1.0173e-05
9.89826e-06
1.3426e-05
0.000139659
0.000184661
0.000184778
0.000103868
3.81751e-05
4.06919e-05
2.30467e-05
1.55333e-05
1.76652e-05
1.65351e-05
2.68226e-05
0.000171951
0.000236817
0.000248892
0.000251973
0.000252764
0.000253228
0.000253454
0.000253533
0.000253549
0.000253538
0.000242849
3.16898e-05
5.5414e-07
1.4848e-07
7.96667e-08
4.48315e-08
3.16638e-08
3.24872e-08
1.48324e-08
1.0169e-08
1.04069e-08
7.97195e-09
3.44767e-08
0.000108433
0.000135132
0.000134916
0.000130249
0.000131931
0.000125588
2.19139e-05
5.31472e-06
4.50364e-06
4.28836e-05
0.000159607
6.19464e-05
4.64922e-05
6.16713e-05
4.99085e-05
4.42358e-05
1.08016e-05
3.2731e-06
3.26153e-06
3.28862e-06
3.4075e-06
3.65054e-06
3.49862e-06
3.36728e-06
3.4005e-06
5.05619e-06
7.1656e-05
0.000109289
0.000109314
0.00010928
0.000108931
0.000106993
3.24234e-05
1.77613e-05
1.14518e-05
1.14029e-05
1.12807e-05
1.12673e-05
1.12639e-05
1.12669e-05
1.13103e-05
1.11194e-05
1.14088e-05
1.05701e-05
5.43609e-05
0.000182903
0.000184745
0.000184778
0.000184822
0.000184956
0.000184324
0.00018275
0.000157551
2.84871e-05
1.65302e-05
1.65417e-05
1.65417e-05
1.67669e-05
2.42624e-05
0.000126924
0.000248892
0.000251974
0.000252763
0.000253208
0.000253454
0.000253538
0.00025356
0.000253535
0.000145013
2.69088e-06
1.4704e-07
4.48315e-08
3.04248e-08
1.91188e-08
1.3484e-08
4.7276e-09
2.14872e-09
1.7177e-09
1.342e-09
4.47864e-09
4.15113e-05
0.000134691
9.72866e-05
1.2078e-05
7.46889e-05
0.000121816
6.86443e-05
4.50364e-06
4.38564e-06
3.32666e-05
0.000159719
2.06774e-06
9.00755e-07
2.99323e-05
3.9519e-06
1.24948e-05
5.24741e-05
2.90255e-05
3.28042e-06
3.26257e-06
3.28914e-06
3.36882e-06
3.34636e-06
3.32826e-06
3.32666e-06
3.35354e-06
2.35298e-05
0.000105736
0.00010928
0.000109097
0.000105628
3.31879e-05
4.85323e-05
5.11843e-05
4.71608e-05
1.1274e-05
1.12602e-05
1.12542e-05
1.12667e-05
1.13392e-05
1.13724e-05
1.02516e-05
1.02078e-05
3.35582e-05
0.000175842
0.000184707
0.000184703
0.000184745
0.000184778
0.000184206
0.000182648
0.000181219
0.000181433
0.000181052
3.82375e-05
1.65361e-05
1.66257e-05
1.73703e-05
2.07442e-05
2.84733e-05
9.69888e-05
0.00024829
0.000250789
0.00025189
0.000253048
0.000253437
0.000253535
0.0002537
0.000219475
1.50346e-05
1.70657e-07
2.73583e-08
1.50165e-08
9.81689e-09
9.45654e-09
3.84606e-09
1.06673e-09
7.22475e-10
5.47848e-10
8.01647e-10
2.50719e-06
4.03954e-05
2.76315e-06
1.57846e-08
8.11785e-09
8.14486e-05
0.000119168
4.79821e-05
3.31723e-06
3.35034e-06
0.000158645
4.67624e-08
8.40014e-08
1.59091e-07
1.97881e-07
2.25326e-07
5.01452e-05
7.32876e-05
4.91247e-05
3.28908e-06
3.36876e-06
3.34645e-06
3.32826e-06
3.32667e-06
3.32239e-06
3.31902e-06
3.33107e-06
3.36304e-06
7.04881e-05
0.000108374
4.58568e-05
5.40768e-06
4.05285e-06
3.5859e-05
4.91968e-05
3.87852e-05
1.12542e-05
1.12542e-05
1.12542e-05
1.12667e-05
1.1411e-05
1.09455e-05
1.01936e-05
2.34835e-05
0.000152251
0.000182903
0.000184703
0.000125967
8.15117e-05
0.000164489
0.000180802
0.000181157
0.000180948
0.000180554
7.01852e-05
1.66257e-05
1.70596e-05
2.64584e-05
8.62485e-05
8.35792e-05
8.32665e-05
0.000134239
0.000156686
0.000205297
0.000251777
0.000253262
0.000253675
0.000253774
0.00024787
2.80967e-05
1.26295e-07
1.22732e-08
3.41062e-09
1.62587e-09
2.10749e-09
1.67949e-09
9.88578e-10
6.0652e-10
4.57284e-10
3.9675e-10
6.43921e-10
2.0521e-08
1.46117e-08
7.68286e-09
7.4028e-09
8.11785e-09
0.000106755
5.94131e-05
1.67635e-06
1.44717e-06
0.000125688
5.69127e-09
1.20604e-08
1.95068e-08
1.61625e-07
1.97881e-07
9.09082e-06
7.37788e-05
7.4327e-05
7.04292e-05
3.92187e-05
5.79007e-06
3.34466e-06
3.32239e-06
3.31902e-06
3.31902e-06
3.31902e-06
3.32209e-06
3.60394e-06
5.44722e-06
2.10829e-05
2.0675e-05
3.42693e-06
3.40815e-06
3.97121e-05
4.59821e-05
2.3256e-05
1.12542e-05
1.12552e-05
1.12563e-05
1.12756e-05
1.13526e-05
1.09608e-05
1.27324e-05
4.21943e-05
0.000180324
7.47269e-05
4.18208e-05
4.17558e-05
4.19301e-05
4.44999e-05
0.000181367
0.000180812
0.000181222
1.98087e-05
1.70596e-05
1.83309e-05
0.000128966
0.000145271
0.000145254
0.000145439
2.83671e-05
1.56186e-06
3.86302e-06
0.000211112
0.000253346
0.000253826
0.000253766
0.000250266
2.73666e-05
4.54708e-08
4.06209e-09
1.22801e-09
9.16632e-10
7.33792e-10
9.4806e-10
9.19492e-10
7.64907e-10
4.49561e-10
3.61627e-10
2.98948e-10
1.74287e-09
8.00884e-09
7.37738e-09
7.40024e-09
7.4028e-09
1.13848e-05
2.3973e-05
4.12895e-06
1.36676e-06
0.000127921
2.86112e-09
3.66345e-09
5.3088e-09
5.78516e-07
3.51763e-06
3.81582e-06
7.00647e-05
7.43945e-05
7.45666e-05
7.46581e-05
7.43596e-05
3.42957e-05
3.48777e-06
3.32239e-06
3.31902e-06
3.32209e-06
3.32824e-06
3.32639e-06
3.34125e-06
3.35735e-06
3.35735e-06
3.36668e-06
3.38518e-06
3.40815e-06
4.54473e-05
5.25989e-05
1.14592e-05
1.12563e-05
1.12612e-05
1.12736e-05
1.13123e-05
1.1404e-05
1.24687e-05
0.000107894
0.000139366
4.18208e-05
4.17461e-05
4.1751e-05
4.17558e-05
4.20235e-05
0.000123833
0.000180669
0.000169296
2.74485e-05
1.83309e-05
8.06078e-05
0.000144406
0.000144979
0.000145553
0.000144948
2.96871e-05
1.3581e-07
3.60892e-08
3.53135e-05
0.000250495
0.000253382
0.000253795
0.000179578
1.04511e-05
7.89122e-08
6.48748e-09
2.31583e-09
8.50727e-10
5.6591e-10
6.823e-10
7.4645e-10
6.71338e-10
4.39762e-10
3.55991e-10
1.02734e-10
1.70701e-09
7.18575e-09
7.18262e-09
7.27243e-09
7.4028e-09
3.68576e-05
3.1724e-06
1.44166e-06
1.3579e-06
0.000127809
2.66993e-09
2.7942e-09
3.66345e-09
2.37041e-06
7.70723e-06
7.7628e-06
1.26486e-05
5.79838e-05
7.46581e-05
7.46581e-05
7.46581e-05
7.4568e-05
7.27426e-05
3.13368e-05
3.79804e-05
0.000100427
0.000100244
4.3899e-05
1.83331e-05
7.80655e-05
0.000117193
0.000113837
2.41326e-05
3.44072e-06
1.6553e-05
5.25989e-05
1.12889e-05
1.12612e-05
1.12736e-05
1.12838e-05
1.13208e-05
1.41243e-05
0.00013671
0.000196938
9.84951e-05
4.17461e-05
4.17461e-05
4.17461e-05
4.17613e-05
4.75226e-05
0.000181551
0.000180548
6.67674e-05
3.00766e-05
2.92651e-05
0.00014122
0.000143109
0.000144406
0.000144948
0.000109988
7.14619e-06
9.86927e-09
1.81383e-08
5.36757e-09
9.05048e-05
0.000207248
0.00015236
2.88948e-05
2.56784e-08
3.15989e-09
1.11786e-09
1.09059e-09
4.36813e-10
2.74632e-10
3.18201e-10
3.45199e-10
3.12318e-10
2.38077e-10
1.40409e-10
4.37288e-11
8.47053e-09
2.23612e-08
2.07798e-08
7.4028e-09
1.62138e-06
4.27667e-05
2.2701e-05
1.36239e-06
1.36239e-06
6.63373e-05
2.23153e-09
2.71755e-09
2.7975e-09
2.028e-06
7.54164e-06
3.01262e-06
9.16683e-08
3.49756e-06
2.28551e-05
4.25208e-05
5.50741e-05
6.0758e-05
3.63255e-05
6.47964e-05
0.000108932
0.000110844
0.000112674
0.000115533
0.000116951
0.000117334
0.000117334
0.000117334
0.000117237
3.37025e-05
1.6419e-05
4.72683e-05
1.13366e-05
1.12696e-05
1.12838e-05
1.1306e-05
1.36486e-05
0.000137316
0.000196983
0.000199641
5.02715e-05
4.18174e-05
4.17461e-05
4.17613e-05
4.21064e-05
0.000168595
0.000183249
0.000181552
5.17494e-05
4.58969e-05
9.80405e-05
0.00013698
0.000141085
0.000143109
0.000126476
1.08509e-08
8.6096e-09
8.38049e-09
2.1325e-08
4.06264e-10
2.90854e-09
2.03836e-08
1.07144e-05
7.4019e-08
2.9191e-09
2.61296e-10
1.43946e-10
1.77192e-10
1.30074e-10
1.03771e-10
9.74593e-11
8.60592e-11
6.90592e-11
5.56612e-11
4.24403e-11
4.13808e-11
4.37288e-11
1.76045e-08
3.01995e-08
2.49712e-08
1.39167e-09
2.83691e-05
5.75574e-05
4.28642e-06
1.35807e-06
4.94725e-05
1.76285e-09
1.69818e-09
6.6675e-09
4.24385e-07
2.0327e-06
2.3826e-08
8.81776e-09
3.36491e-08
8.90864e-08
3.88934e-07
1.6225e-06
3.66125e-06
8.81234e-07
5.64404e-06
1.698e-06
1.74041e-06
1.27296e-05
3.97421e-05
5.68607e-05
9.82266e-05
0.000117334
0.000117237
0.000116932
8.91391e-05
1.86303e-05
1.99824e-05
1.96372e-05
6.54452e-05
1.12897e-05
1.1419e-05
5.9995e-05
0.000196983
0.000199272
0.000199846
0.000107421
4.2319e-05
4.18174e-05
4.21064e-05
0.000115468
0.000193282
0.000187903
0.000143617
4.02198e-05
5.11907e-05
0.000119472
0.000130478
0.000132
8.9276e-05
1.01218e-05
8.6096e-09
7.56243e-09
8.26501e-09
1.42968e-09
7.25745e-11
7.60256e-11
9.65245e-11
1.37899e-07
1.46536e-09
3.39414e-10
1.43944e-10
1.35267e-10
1.30877e-10
1.202e-10
9.91456e-11
6.5749e-11
3.46554e-11
2.53995e-11
2.68076e-11
3.35029e-11
4.13808e-11
4.14955e-11
7.30592e-11
6.79015e-09
1.1984e-08
7.65997e-10
1.39022e-09
4.93943e-05
4.98237e-06
1.38518e-06
8.165e-05
4.83461e-07
7.67606e-10
6.44545e-09
3.21791e-09
8.00683e-09
2.00208e-09
1.41052e-09
3.3948e-09
7.85318e-09
1.1577e-08
1.175e-08
9.74897e-09
4.08633e-09
5.71252e-09
4.96507e-08
2.32376e-07
8.67222e-07
1.653e-06
2.13495e-06
2.45774e-06
2.77107e-05
0.00011617
0.000116694
0.000116221
2.81003e-05
2.2868e-05
5.55483e-05
8.38547e-05
3.11774e-05
1.15401e-05
8.8153e-05
0.000199178
0.000199846
0.000199924
0.000199846
0.000155444
7.99165e-05
0.000182918
0.000198381
0.000195756
0.000193282
4.84609e-05
2.30246e-05
2.95918e-05
4.75995e-05
4.4387e-05
1.78685e-05
4.04643e-08
1.81716e-08
1.2849e-08
6.62106e-09
5.1862e-09
7.25745e-11
7.17759e-11
7.24028e-11
7.18158e-11
7.43183e-11
7.22466e-11
1.1534e-10
1.60893e-10
1.6091e-10
1.55269e-10
1.34898e-10
9.71801e-11
4.90592e-11
2.15998e-11
1.7978e-11
1.90486e-11
2.58213e-11
3.75927e-11
5.7698e-11
6.6441e-11
6.81522e-11
5.57649e-10
6.97986e-10
7.63262e-10
5.08333e-06
1.64767e-05
1.429e-06
0.000126428
1.19689e-06
7.61412e-10
1.96481e-09
1.38103e-09
1.50962e-09
9.22376e-10
7.67631e-10
7.77148e-10
1.01584e-09
1.28341e-09
1.24819e-09
2.0287e-09
2.40041e-09
4.08638e-09
8.17544e-06
1.21299e-05
7.37226e-06
2.5341e-06
2.95627e-06
2.89139e-06
6.25524e-06
7.72622e-06
0.000108106
0.000113359
3.3895e-05
2.2868e-05
8.0851e-05
8.44201e-05
8.34604e-05
1.26281e-05
3.60592e-05
0.000199316
0.000199924
0.000199924
0.000199924
0.000199825
0.000199769
0.00019966
0.000199922
0.000198376
8.52671e-05
4.34868e-05
2.01479e-05
1.42951e-06
3.14511e-07
2.25469e-07
2.24756e-07
1.34766e-07
2.88617e-08
5.7068e-09
2.78134e-09
2.54938e-09
7.17246e-11
7.15697e-11
7.19396e-11
7.28099e-11
7.33056e-11
7.48464e-11
1.49982e-10
1.66893e-10
1.65666e-10
1.49368e-10
1.08934e-10
5.68368e-11
2.35684e-11
1.79345e-11
1.77745e-11
1.77747e-11
1.93939e-11
3.31992e-11
7.21015e-11
7.87156e-11
7.44247e-11
1.57842e-09
1.28854e-09
1.10333e-09
1.68007e-09
1.12078e-05
1.08961e-05
0.000155242
1.20261e-06
7.61467e-10
7.60678e-10
1.22071e-09
9.70018e-10
8.00151e-10
6.99666e-10
5.10412e-10
4.54966e-10
5.27087e-10
5.90297e-10
1.62058e-09
2.02872e-09
2.39983e-09
3.01156e-05
5.70711e-05
7.98214e-05
9.99421e-05
0.000110525
9.12736e-05
3.96696e-05
1.22946e-05
1.89082e-05
0.000101518
9.85067e-05
5.25927e-05
8.41758e-05
8.4171e-05
8.43774e-05
2.00489e-05
2.55954e-05
0.000155921
0.000199538
0.000199924
0.000199819
0.000199719
0.000199708
0.000200207
0.000198984
8.26491e-05
2.20857e-05
4.28734e-05
2.77156e-05
5.12894e-07
4.2219e-07
3.14511e-07
2.22999e-07
5.9572e-07
1.39935e-06
1.0137e-07
1.73449e-08
1.04867e-08
7.15679e-11
7.10603e-11
7.20189e-11
7.8116e-11
8.87626e-11
1.13765e-10
1.29504e-10
1.30865e-10
1.07153e-10
7.06877e-11
3.51249e-11
3.10657e-11
2.37289e-11
1.79837e-11
1.77195e-11
1.9047e-11
2.0638e-11
2.78353e-11
6.00792e-11
8.30088e-11
7.78025e-11
1.66374e-09
2.67244e-09
1.90344e-09
1.78473e-09
2.02739e-08
0.000100529
0.000156039
1.20433e-06
1.88471e-07
7.29674e-10
1.07569e-09
1.45284e-09
1.00238e-09
6.9039e-10
4.84478e-10
4.14516e-10
4.67185e-10
5.2681e-10
5.87403e-10
1.25195e-09
1.38704e-06
4.57554e-05
0.000141394
0.000164678
0.00016492
0.000164963
0.00016492
0.000137075
2.0995e-05
2.04082e-05
3.5707e-05
9.00782e-05
8.57104e-05
8.35442e-05
7.38595e-05
8.34886e-05
7.70874e-05
3.28339e-05
4.57313e-05
0.000125953
0.000199582
0.000199818
0.000199708
0.000199817
0.00019743
4.3403e-05
1.32205e-05
1.95109e-05
2.89821e-05
1.02287e-05
6.74516e-07
4.92337e-07
4.25564e-07
6.49637e-07
3.03041e-06
3.05284e-06
1.97597e-06
1.21095e-07
1.24331e-08
1.56669e-08
6.98276e-11
6.90544e-11
7.94702e-11
8.35526e-11
7.96371e-11
6.70663e-11
4.79285e-11
3.03434e-11
2.01687e-11
2.12256e-11
2.74038e-11
2.7751e-11
3.475e-11
4.43284e-11
2.61407e-11
6.14876e-11
3.44621e-11
5.86145e-11
1.10979e-10
8.97895e-11
5.50899e-10
2.69751e-09
2.27378e-09
1.01626e-09
3.43279e-09
0.000144606
0.000156039
1.20372e-06
1.12085e-06
6.53067e-10
6.39364e-10
1.57345e-09
1.3835e-09
8.49794e-10
5.02635e-10
4.14516e-10
4.14186e-10
4.7073e-10
1.19659e-09
6.97118e-08
3.25532e-05
0.00012633
0.000162026
0.00016366
0.000164678
0.00016492
0.000164998
0.000164881
7.78333e-05
2.18125e-05
2.11734e-05
8.52391e-05
8.36503e-05
8.21532e-05
4.14664e-05
5.29991e-05
7.55907e-05
7.14775e-05
4.16593e-05
3.06821e-05
4.25245e-05
6.60933e-05
7.81848e-05
6.04055e-05
1.56438e-05
1.32205e-05
1.21335e-05
2.20857e-05
1.39055e-05
1.41518e-06
9.77843e-07
6.01997e-07
4.92333e-07
1.21824e-06
3.0729e-06
3.07614e-06
3.05284e-06
3.3017e-07
9.19465e-10
3.81597e-08
8.11281e-11
6.78143e-11
7.18941e-11
6.18823e-11
4.12039e-11
2.38251e-11
1.54872e-11
1.57737e-11
1.65435e-11
3.61712e-11
1.14619e-10
3.50175e-10
1.24967e-09
2.12431e-09
9.59281e-10
2.38692e-09
3.94553e-10
6.1117e-11
8.89061e-11
9.1184e-11
1.6625e-09
2.67303e-09
2.28152e-09
6.29587e-10
1.01625e-09
8.99123e-05
0.000156039
1.20204e-06
1.18782e-06
5.78701e-08
5.85722e-10
1.4e-09
1.46411e-09
1.16951e-09
5.34166e-10
4.14514e-10
4.50179e-10
1.96777e-09
3.6625e-08
3.11091e-05
0.000153155
0.000162463
0.000162515
0.000162026
0.000144305
0.000157707
0.000164746
0.000164994
0.000164634
2.90625e-05
1.99592e-05
4.2622e-05
8.198e-05
4.93429e-05
4.094e-05
4.14639e-05
7.2112e-05
7.15043e-05
4.50325e-05
2.80087e-05
2.72969e-05
2.70382e-05
2.69841e-05
2.71882e-05
2.5905e-05
2.54881e-05
1.02225e-05
9.151e-06
3.54332e-06
2.26663e-06
1.41509e-06
9.51488e-07
7.34712e-07
1.53696e-06
3.07502e-06
3.05284e-06
1.42969e-06
1.67617e-07
1.4055e-10
3.46033e-08
6.78143e-11
6.67436e-11
6.72159e-11
3.92698e-11
1.77061e-11
1.11996e-11
1.15597e-11
1.41058e-11
3.77903e-11
3.64881e-10
2.31997e-09
8.75558e-09
3.39559e-08
7.08956e-08
4.28251e-08
1.34504e-07
2.52909e-08
-2.84515e-10
1.22196e-10
9.56531e-11
5.21003e-10
4.55294e-10
4.88185e-10
5.66924e-10
6.29587e-10
7.53866e-06
0.000154539
3.11057e-07
1.17122e-06
1.01257e-07
5.81604e-10
1.03795e-09
1.46411e-09
1.17844e-09
5.47098e-10
4.96625e-10
1.49806e-09
2.55339e-08
6.99643e-06
0.000135359
0.000163118
0.000163437
0.000128902
6.19418e-05
5.60486e-05
5.56775e-05
7.99669e-05
0.000155638
0.000163607
9.96482e-05
1.75422e-05
1.45902e-05
4.78048e-05
4.07462e-05
4.08392e-05
4.1613e-05
7.14375e-05
6.69916e-05
2.8006e-05
2.72963e-05
2.70366e-05
2.69735e-05
2.70025e-05
3.08833e-05
5.94285e-05
5.87304e-05
1.06348e-05
4.63916e-06
4.12547e-06
5.14482e-06
5.10544e-06
3.90855e-06
1.71256e-06
1.78365e-06
1.80872e-06
6.06773e-07
1.17875e-09
1.4055e-10
1.39161e-10
1.39074e-10
4.30491e-10
7.71619e-11
6.03906e-11
2.3433e-11
1.05598e-11
1.06306e-11
1.65345e-11
5.43581e-11
3.74816e-10
4.54703e-09
3.72055e-08
1.43321e-07
5.58082e-06
3.50458e-05
3.96127e-05
2.05368e-05
1.96921e-06
1.05997e-08
1.62742e-09
1.36818e-07
2.65746e-06
2.55132e-07
5.66924e-10
2.21469e-08
2.17334e-09
5.03314e-09
0.000131483
4.47553e-08
1.1387e-06
7.75603e-08
5.80979e-10
7.61571e-10
1.31653e-09
1.02519e-09
5.67549e-10
6.88849e-10
4.45187e-09
9.35811e-08
4.24988e-05
0.000163222
0.000163513
0.000151872
5.46782e-05
5.45155e-05
5.4713e-05
6.39398e-05
8.73606e-05
7.73455e-05
0.000103041
0.000161668
1.4733e-05
1.41207e-05
1.49444e-05
4.94155e-05
4.80673e-05
4.84099e-05
3.419e-05
2.82211e-05
3.07788e-05
4.46591e-05
6.41917e-05
3.48884e-05
2.8517e-05
5.44546e-05
6.30913e-05
6.42521e-05
3.16927e-05
5.1155e-06
2.20374e-05
8.41006e-05
9.45294e-05
8.11678e-05
3.44049e-05
1.9417e-06
1.40102e-07
1.03031e-08
5.86058e-10
1.43555e-10
1.39075e-10
1.39075e-10
5.97459e-10
1.16936e-10
5.1052e-11
1.43529e-11
1.05598e-11
1.56658e-11
5.27625e-11
4.56901e-10
3.95979e-09
4.762e-08
4.43102e-07
7.64083e-06
8.02181e-05
9.47379e-05
9.42754e-05
9.42754e-05
2.81375e-05
4.61112e-07
8.26789e-08
1.53098e-07
3.41834e-07
4.52556e-07
4.56872e-06
4.41915e-07
5.03317e-09
5.29854e-08
0.000139104
8.67069e-09
1.45611e-07
3.50917e-08
5.81604e-10
6.00567e-10
8.50035e-10
6.92443e-10
3.76874e-10
5.44789e-10
6.36429e-09
1.46347e-07
6.79237e-05
0.000163393
0.000163222
6.4458e-05
5.44513e-05
5.4713e-05
6.52082e-05
0.000163511
0.000163511
0.000163468
0.000163488
0.000162779
4.95824e-05
1.42525e-05
1.45693e-05
4.92927e-05
4.95434e-05
4.92796e-05
2.62718e-05
2.72225e-05
5.23566e-05
0.00012685
0.000127115
0.000124867
7.95517e-05
3.1438e-05
3.64557e-05
6.91121e-05
4.98265e-05
5.21781e-06
5.49261e-05
0.000137019
0.00013969
0.000142826
0.000146255
6.82384e-05
8.53173e-07
6.97391e-08
3.67515e-09
2.28171e-10
1.41567e-10
1.39072e-10
1.6045e-10
1.30124e-10
4.21969e-11
1.18592e-11
1.1842e-11
3.57857e-11
2.78622e-10
3.68318e-09
3.4985e-08
4.27694e-07
2.43736e-05
0.000100622
0.000103249
9.55623e-05
9.19267e-05
8.69969e-05
3.13928e-05
6.43915e-06
7.78644e-07
3.39118e-07
6.31558e-05
0.000274865
7.74907e-05
6.62959e-07
1.19813e-07
3.71709e-07
0.000160702
1.08075e-09
1.60426e-09
2.154e-09
7.59015e-10
5.03265e-10
3.57264e-10
3.42181e-10
1.34254e-10
2.59275e-10
4.99546e-09
4.94617e-07
9.43538e-05
0.000163162
0.000162674
9.11377e-05
5.47716e-05
5.61344e-05
0.000155587
0.000163404
0.000163515
0.000163511
0.000163429
0.00016331
0.00016266
2.22768e-05
1.34693e-05
3.10572e-05
4.25187e-05
2.35367e-05
2.5481e-05
7.47378e-05
0.00012703
0.000127453
0.000127251
0.000114148
2.96046e-05
3.06224e-05
6.82611e-05
6.89073e-05
2.4033e-05
5.32919e-06
2.41019e-05
7.44812e-05
0.000117207
0.00014746
0.000152774
0.000156309
5.41862e-05
6.664e-07
2.42441e-08
1.01182e-09
2.0236e-10
2.45189e-10
2.73357e-10
1.3141e-10
3.0963e-11
1.18592e-11
1.44127e-11
9.87031e-11
1.41856e-09
1.92134e-08
5.24412e-07
5.5692e-05
0.000159162
0.000154949
7.06549e-05
1.95087e-05
1.27419e-05
1.32656e-05
1.34162e-05
2.86407e-05
0.000121103
0.000245945
0.000298147
0.000299436
0.000227997
1.07896e-05
1.18359e-06
1.23274e-05
0.000161619
9.52048e-10
7.07036e-10
8.95376e-10
1.05899e-09
4.82763e-10
1.2677e-10
1.32716e-10
5.95916e-11
9.73048e-11