/*--------------------------------*- C++ -*----------------------------------*\
| =========                 |                                                 |
| \\      /  F ield         | OpenFOAM: The Open Source CFD Toolbox           |
|  \\    /   O peration     | Version:  2412                                  |
|   \\  /    A nd           | Website:  www.openfoam.com                      |
|    \\/     M anipulation  |                                                 |
\*---------------------------------------------------------------------------*/
FoamFile
{
    version     2.0;
    format      ascii;
    arch        "LSB;label=32;scalar=64";
    class       surfaceScalarField;
    location    "3.35";
    object      phi;
}
// * * * * * * * * * * * * * * * * * * * * * * * * * * * * * * * * * * * * * //

dimensions      [0 3 -1 0 0 0 0];

oriented        oriented;

internalField   nonuniform List<scalar> 
12640
(
4.85613e-14
-4.826e-14
3.87846e-14
4.26334e-14
-1.12263e-13
1.82953e-13
-3.98038e-13
3.15664e-13
-7.99526e-13
4.30855e-13
-1.29348e-12
5.23096e-13
-1.85865e-12
5.94105e-13
-2.47518e-12
6.45347e-13
-3.12412e-12
6.77624e-13
-3.78794e-12
6.92514e-13
-4.45335e-12
6.94095e-13
-5.10722e-12
6.82703e-13
-5.74029e-12
6.62028e-13
-6.34221e-12
6.31103e-13
-6.90547e-12
5.92634e-13
-7.4229e-12
5.47034e-13
-7.89006e-12
4.96919e-13
-8.30156e-12
4.41439e-13
-8.65447e-12
3.82898e-13
-8.94408e-12
3.19647e-13
-9.1678e-12
2.53678e-13
-9.32303e-12
1.85076e-13
-9.40892e-12
1.15484e-13
-9.42314e-12
4.35281e-14
-9.36536e-12
-2.88827e-14
-9.23467e-12
-1.02236e-13
-9.03185e-12
-1.74934e-13
-8.75709e-12
-2.47469e-13
-8.41251e-12
-3.1798e-13
-8.00013e-12
-3.86501e-13
-7.52362e-12
-4.51423e-13
-6.98653e-12
-5.12811e-13
-6.39377e-12
-5.69319e-13
-5.75021e-12
-6.20959e-13
-5.06168e-12
-6.66777e-13
-4.33402e-12
-7.06719e-13
-3.57396e-12
-7.39885e-13
-2.78865e-12
-7.65838e-13
-1.98592e-12
-7.83882e-13
-1.17385e-12
-7.93764e-13
-3.60416e-13
-7.95526e-13
4.4639e-13
-7.89201e-13
1.23915e-12
-7.75295e-13
2.0103e-12
-7.53716e-13
2.75302e-12
-7.25129e-13
3.46008e-12
-6.89211e-13
4.12534e-12
-6.46971e-13
4.74241e-12
-5.98243e-13
5.30668e-12
-5.4472e-13
5.81333e-12
-4.86326e-13
6.25953e-12
-4.24913e-13
6.64167e-12
-3.59882e-13
6.95818e-12
-2.93112e-13
7.20667e-12
-2.23973e-13
7.38734e-12
-1.54883e-13
7.49939e-12
-8.5052e-14
7.54431e-12
-1.65901e-14
7.52185e-12
5.20169e-14
7.43429e-12
1.18429e-13
7.28281e-12
1.83532e-13
7.07173e-12
2.4437e-13
6.80347e-12
3.02589e-13
6.48225e-12
3.56608e-13
6.10989e-12
4.08582e-13
5.69142e-12
4.55507e-13
5.23148e-12
4.97531e-13
4.73803e-12
5.31549e-13
4.21694e-12
5.59443e-13
3.67607e-12
5.79423e-13
3.12285e-12
5.91749e-13
2.56916e-12
5.92152e-13
2.02782e-12
5.79595e-13
1.51488e-12
5.50992e-13
1.04577e-12
5.0686e-13
6.37269e-13
4.46028e-13
3.07341e-13
3.67198e-13
7.58929e-14
2.68524e-13
-4.63052e-14
1.59135e-13
-5.85656e-14
4.91168e-14
-2.37254e-14
-1.19919e-14
-2.2841e-15
-2.27443e-13
3.21128e-13
-7.47335e-13
7.63231e-13
-1.56772e-12
1.19421e-12
-2.65388e-12
1.57471e-12
-3.96413e-12
1.89066e-12
-5.44934e-12
2.13648e-12
-7.0628e-12
2.31574e-12
-8.76025e-12
2.43206e-12
-1.05022e-11
2.49145e-12
-1.22503e-11
2.49942e-12
-1.39733e-11
2.46314e-12
-1.56419e-11
2.38846e-12
-1.72352e-11
2.28244e-12
-1.87291e-11
2.14499e-12
-2.01067e-11
1.98324e-12
-2.13513e-11
1.80048e-12
-2.24514e-11
1.60037e-12
-2.33943e-11
1.38456e-12
-2.41715e-11
1.15533e-12
-2.47724e-11
9.12741e-13
-2.51916e-11
6.61713e-13
-2.54228e-11
4.0337e-13
-2.54632e-11
1.3961e-13
-2.53083e-11
-1.29104e-13
-2.49582e-11
-3.99036e-13
-2.44123e-11
-6.68877e-13
-2.36741e-11
-9.35243e-13
-2.27469e-11
-1.19638e-12
-2.1638e-11
-1.44848e-12
-2.03546e-11
-1.68954e-12
-1.89078e-11
-1.91616e-12
-1.73089e-11
-2.12654e-12
-1.55722e-11
-2.31789e-12
-1.3712e-11
-2.48873e-12
-1.17455e-11
-2.63662e-12
-9.69057e-12
-2.75969e-12
-7.56693e-12
-2.85556e-12
-5.39527e-12
-2.92263e-12
-3.19695e-12
-2.95992e-12
-9.93614e-13
-2.9672e-12
1.19374e-12
-2.94507e-12
3.34404e-12
-2.89401e-12
5.43762e-12
-2.81526e-12
7.45441e-12
-2.70918e-12
9.37638e-12
-2.57738e-12
1.11852e-11
-2.42069e-12
1.28659e-11
-2.24218e-12
1.44034e-11
-2.04376e-12
1.57871e-11
-1.8294e-12
1.70057e-11
-1.60065e-12
1.80522e-11
-1.36112e-12
1.89189e-11
-1.11205e-12
1.96033e-11
-8.57887e-13
2.01019e-11
-6.00346e-13
2.04164e-11
-3.43638e-13
2.05461e-11
-8.78595e-14
2.04956e-11
1.638e-13
2.0267e-11
4.10777e-13
1.98687e-11
6.48082e-13
1.93068e-11
8.74735e-13
1.8592e-11
1.08796e-12
1.77312e-11
1.28972e-12
1.67365e-11
1.47722e-12
1.56184e-11
1.64854e-12
1.43945e-11
1.79753e-12
1.30796e-11
1.92299e-12
1.16937e-11
2.02242e-12
1.02553e-11
2.09477e-12
8.79078e-12
2.13314e-12
7.32787e-12
2.13145e-12
5.90086e-12
2.0827e-12
4.54391e-12
1.98336e-12
3.29612e-12
1.82968e-12
2.19727e-12
1.61924e-12
1.29033e-12
1.3481e-12
6.10087e-13
1.02195e-12
1.80935e-13
6.607e-13
5.96261e-15
2.93502e-13
1.46793e-14
-1.32083e-13
1.61958e-13
-6.3336e-13
8.81581e-13
-1.55984e-12
1.74595e-12
-2.89851e-12
2.58712e-12
-4.60195e-12
3.33176e-12
-6.61602e-12
3.95801e-12
-8.87864e-12
4.45204e-12
-1.13213e-11
4.81121e-12
-1.38843e-11
5.04773e-12
-1.65106e-11
5.17059e-12
-1.91471e-11
5.18887e-12
-2.17457e-11
5.11503e-12
-2.42636e-11
4.95997e-12
-2.66653e-11
4.73813e-12
-2.8921e-11
4.45498e-12
-3.10016e-11
4.11855e-12
-3.2884e-11
3.73768e-12
-3.45457e-11
3.31703e-12
-3.59704e-11
2.86423e-12
-3.71423e-11
2.38203e-12
-3.80496e-11
1.87441e-12
-3.8679e-11
1.34507e-12
-3.90229e-11
8.00569e-13
-3.90738e-11
2.42996e-13
-3.88287e-11
-3.22598e-13
-3.82847e-11
-8.92601e-13
-3.74437e-11
-1.46065e-12
-3.63083e-11
-2.02281e-12
-3.48859e-11
-2.5724e-12
-3.31848e-11
-3.10456e-12
-3.12186e-11
-3.61249e-12
-2.90015e-11
-4.09153e-12
-2.65522e-11
-4.53572e-12
-2.38906e-11
-4.94088e-12
-2.10405e-11
-5.30184e-12
-1.8027e-11
-5.61453e-12
-1.48783e-11
-5.87404e-12
-1.16243e-11
-6.07645e-12
-8.2963e-12
-6.21835e-12
-4.92683e-12
-6.29785e-12
-1.54833e-12
-6.31461e-12
1.8066e-12
-6.26912e-12
5.10659e-12
-6.16304e-12
8.32016e-12
-5.99752e-12
1.14179e-11
-5.77497e-12
1.43705e-11
-5.4971e-12
1.71521e-11
-5.16824e-12
1.97375e-11
-4.79218e-12
2.21065e-11
-4.37568e-12
2.42393e-11
-3.92331e-12
2.61215e-11
-3.44191e-12
2.77388e-11
-2.93538e-12
2.90833e-11
-2.41114e-12
3.01471e-11
-1.87405e-12
3.09291e-11
-1.33227e-12
3.14272e-11
-7.89199e-13
3.16449e-11
-2.50635e-13
3.15844e-11
2.81503e-13
3.12547e-11
8.00093e-13
3.06633e-11
1.30113e-12
2.98239e-11
1.77787e-12
2.87473e-11
2.23002e-12
2.74499e-11
2.65425e-12
2.59467e-11
3.04878e-12
2.42596e-11
3.40521e-12
2.24091e-11
3.71819e-12
2.04217e-11
3.98121e-12
1.83237e-11
4.19139e-12
1.61488e-11
4.34068e-12
1.39331e-11
4.41966e-12
1.17197e-11
4.41542e-12
9.55452e-12
4.31795e-12
7.48829e-12
4.11932e-12
5.57474e-12
3.81242e-12
3.87337e-12
3.38953e-12
2.4372e-12
2.85275e-12
1.3106e-12
2.21677e-12
5.36593e-13
1.50235e-12
1.16943e-13
7.78149e-13
1.6191e-13
-2.60478e-13
4.52272e-13
-1.05625e-12
1.7335e-12
-2.39336e-12
3.13668e-12
-4.23006e-12
4.47538e-12
-6.50506e-12
5.65782e-12
-9.14871e-12
6.65223e-12
-1.20879e-11
7.44158e-12
-1.52444e-11
8.01787e-12
-1.85413e-11
8.3949e-12
-2.19097e-11
8.58912e-12
-2.52848e-11
8.61446e-12
-2.86089e-11
8.48991e-12
-3.18284e-11
8.23058e-12
-3.48968e-11
7.85799e-12
-3.77754e-11
7.38552e-12
-4.04316e-11
6.8269e-12
-4.28331e-11
6.19164e-12
-4.49538e-11
5.49016e-12
-4.67688e-11
4.73166e-12
-4.82602e-11
3.92571e-12
-4.94102e-11
3.07633e-12
-5.02053e-11
2.1915e-12
-5.06316e-11
1.27758e-12
-5.0682e-11
3.4328e-13
-5.03499e-11
-6.05746e-13
-4.96344e-11
-1.56028e-12
-4.85351e-11
-2.51339e-12
-4.70577e-11
-3.45497e-12
-4.52093e-11
-4.37697e-12
-4.3003e-11
-5.26857e-12
-4.04535e-11
-6.12133e-12
-3.75809e-11
-6.92501e-12
-3.44073e-11
-7.67164e-12
-3.09602e-11
-8.352e-12
-2.72688e-11
-8.9587e-12
-2.33668e-11
-9.48339e-12
-1.92899e-11
-9.91899e-12
-1.50769e-11
-1.02585e-11
-1.07683e-11
-1.04969e-11
-6.40549e-12
-1.06313e-11
-2.03049e-12
-1.06606e-11
2.31534e-12
-1.05861e-11
6.59045e-12
-1.04092e-11
1.07552e-11
-1.01329e-11
1.47699e-11
-9.75958e-12
1.85984e-11
-9.29458e-12
2.22054e-11
-8.74305e-12
2.55611e-11
-8.11413e-12
2.86364e-11
-7.41568e-12
3.14088e-11
-6.65847e-12
3.38562e-11
-5.85009e-12
3.59638e-11
-5.00163e-12
3.77177e-11
-4.12156e-12
3.91123e-11
-3.22268e-12
4.01414e-11
-2.31328e-12
4.08067e-11
-1.40387e-12
4.1108e-11
-4.99233e-13
4.10534e-11
3.91231e-13
4.06496e-11
1.26099e-12
3.99113e-11
2.09872e-12
3.88506e-11
2.89954e-12
3.74863e-11
3.65697e-12
3.58356e-11
4.36897e-12
3.39229e-11
5.02681e-12
3.17713e-11
5.62287e-12
2.94105e-11
6.1459e-12
2.68701e-11
6.58872e-12
2.41882e-11
6.94078e-12
2.14047e-11
7.19151e-12
1.85662e-11
7.3254e-12
1.57228e-11
7.32563e-12
1.29323e-11
7.17513e-12
1.02561e-11
6.86164e-12
7.76205e-12
6.37235e-12
5.51982e-12
5.69728e-12
3.58984e-12
4.84824e-12
2.0354e-12
3.83638e-12
9.05793e-13
2.69704e-12
2.2724e-13
1.51924e-12
4.18936e-13
-3.76272e-13
8.57677e-13
-1.45086e-12
2.86329e-12
-3.17797e-12
4.91637e-12
-5.48448e-12
6.83262e-12
-8.29002e-12
8.51334e-12
-1.15087e-11
9.92054e-12
-1.50512e-11
1.10333e-11
-1.88333e-11
1.18492e-11
-2.27674e-11
1.2378e-11
-2.67712e-11
1.2642e-11
-3.07725e-11
1.2665e-11
-3.47042e-11
1.24712e-11
-3.85097e-11
1.20858e-11
-4.21326e-11
1.15311e-11
-4.55289e-11
1.08322e-11
-4.86583e-11
1.0007e-11
-5.1487e-11
9.07109e-12
-5.39823e-11
8.03638e-12
-5.61178e-11
6.91784e-12
-5.78681e-11
5.72642e-12
-5.92149e-11
4.47317e-12
-6.01396e-11
3.16566e-12
-6.06293e-11
1.81583e-12
-6.06712e-11
4.33065e-13
-6.02603e-11
-9.69893e-13
-5.9392e-11
-2.383e-12
-5.80687e-11
-3.79242e-12
-5.62941e-11
-5.18657e-12
-5.40792e-11
-6.55036e-12
-5.14366e-11
-7.87117e-12
-4.83857e-11
-9.13375e-12
-4.49484e-11
-1.03255e-11
-4.11528e-11
-1.14319e-11
-3.70298e-11
-1.24412e-11
-3.26157e-11
-1.33404e-11
-2.79496e-11
-1.41184e-11
-2.30752e-11
-1.47636e-11
-1.80382e-11
-1.52666e-11
-1.2887e-11
-1.56202e-11
-7.67082e-12
-1.582e-11
-2.43934e-12
-1.5865e-11
2.75733e-12
-1.57557e-11
7.87036e-12
-1.5495e-11
1.28507e-11
-1.50855e-11
1.76526e-11
-1.45329e-11
2.22307e-11
-1.38432e-11
2.65456e-11
-1.30272e-11
3.0559e-11
-1.20952e-11
3.42396e-11
-1.10622e-11
3.7557e-11
-9.94005e-12
4.0489e-11
-8.74414e-12
4.30144e-11
-7.48695e-12
4.51212e-11
-6.18602e-12
4.67983e-11
-4.85518e-12
4.80433e-11
-3.5113e-12
4.88529e-11
-2.16434e-12
4.92326e-11
-8.27426e-13
4.9187e-11
4.90414e-13
4.87298e-11
1.77393e-12
4.78731e-11
3.013e-12
4.66364e-11
4.19551e-12
4.50376e-11
5.3166e-12
4.3102e-11
6.36678e-12
4.08538e-11
7.33819e-12
3.83239e-11
8.21699e-12
3.55423e-11
8.99209e-12
3.25476e-11
9.64863e-12
2.93806e-11
1.01731e-11
2.60893e-11
1.05482e-11
2.27246e-11
1.07552e-11
1.9345e-11
1.07704e-11
1.60147e-11
1.05701e-11
1.28062e-11
1.01348e-11
9.79698e-12
9.44586e-12
7.06087e-12
8.49773e-12
4.67596e-12
7.29728e-12
2.71598e-12
5.86062e-12
1.24334e-12
4.23375e-12
3.24684e-13
2.49995e-12
7.73086e-13
-4.77475e-13
1.36391e-12
-1.8062e-12
4.24631e-12
-3.89507e-12
7.05717e-12
-6.64e-12
9.62744e-12
-9.94011e-12
1.18628e-11
-1.36885e-11
1.37177e-11
-1.77821e-11
1.51756e-11
-2.21238e-11
1.6239e-11
-2.66198e-11
1.69221e-11
-3.1179e-11
1.72492e-11
-3.5721e-11
1.72551e-11
-4.01724e-11
1.69708e-11
-4.44707e-11
1.64326e-11
-4.856e-11
1.5669e-11
-5.23888e-11
1.47098e-11
-5.59138e-11
1.35808e-11
-5.90949e-11
1.23012e-11
-6.19003e-11
1.08905e-11
-6.42981e-11
9.3642e-12
-6.62627e-11
7.7392e-12
-6.77695e-11
6.02758e-12
-6.88005e-11
4.24365e-12
-6.93376e-11
2.39899e-12
-6.93694e-11
5.09949e-13
-6.88856e-11
-1.40961e-12
-6.78841e-11
-3.34175e-12
-6.63638e-11
-5.27121e-12
-6.43317e-11
-7.17858e-12
-6.17966e-11
-9.04683e-12
-5.87752e-11
-1.08555e-11
-5.52869e-11
-1.25866e-11
-5.13584e-11
-1.42199e-11
-4.70198e-11
-1.57381e-11
-4.23078e-11
-1.71223e-11
-3.72623e-11
-1.83563e-11
-3.19295e-11
-1.9423e-11
-2.63582e-11
-2.03078e-11
-2.06013e-11
-2.09974e-11
-1.47136e-11
-2.14825e-11
-8.75125e-12
-2.17576e-11
-2.77153e-12
-2.18202e-11
3.1688e-12
-2.16716e-11
9.01234e-12
-2.13138e-11
1.47042e-11
-2.07521e-11
2.01898e-11
-1.99925e-11
2.542e-11
-1.90463e-11
3.0347e-11
-1.79258e-11
3.49305e-11
-1.66488e-11
3.91318e-11
-1.52318e-11
4.29203e-11
-1.3695e-11
4.62672e-11
-1.20553e-11
4.91532e-11
-1.0335e-11
5.15607e-11
-8.55331e-12
5.3482e-11
-6.73401e-12
5.49096e-11
-4.89413e-12
5.58454e-11
-3.05297e-12
5.62906e-11
-1.22339e-12
5.62568e-11
5.75665e-13
5.57547e-11
2.32948e-12
5.48036e-11
4.01941e-12
5.34208e-11
5.63516e-12
5.16318e-11
7.16403e-12
4.94605e-11
8.59769e-12
4.6938e-11
9.92139e-12
4.40942e-11
1.11223e-11
4.09663e-11
1.21822e-11
3.75932e-11
1.30843e-11
3.40209e-11
1.38082e-11
3.02985e-11
1.43334e-11
2.64833e-11
1.46335e-11
2.26381e-11
1.46784e-11
1.88338e-11
1.44375e-11
1.5151e-11
1.38804e-11
1.16717e-11
1.29881e-11
8.48199e-12
1.17505e-11
5.67356e-12
1.0169e-11
3.33229e-12
8.26513e-12
1.54495e-12
6.08463e-12
4.11818e-13
3.69438e-12
1.21428e-12
-5.64907e-13
1.95712e-12
-2.12417e-12
5.85943e-12
-4.54876e-12
9.53305e-12
-7.70645e-12
1.28346e-11
-1.14696e-11
1.56747e-11
-1.57133e-11
1.80097e-11
-2.03188e-11
1.98288e-11
-2.51734e-11
2.11412e-11
-3.01746e-11
2.19705e-11
-3.52261e-11
2.23479e-11
-4.02416e-11
2.23175e-11
-4.51437e-11
2.192e-11
-4.98649e-11
2.12009e-11
-5.43477e-11
2.01989e-11
-5.85407e-11
1.89499e-11
-6.23958e-11
1.74831e-11
-6.58729e-11
1.58251e-11
-6.89348e-11
1.39991e-11
-7.15517e-11
1.20272e-11
-7.36928e-11
9.92593e-12
-7.53339e-11
7.71358e-12
-7.64509e-11
5.40468e-12
-7.70269e-11
3.018e-12
-7.70454e-11
5.70308e-13
-7.64979e-11
-1.91642e-12
-7.53774e-11
-4.42289e-12
-7.36855e-11
-6.92525e-12
-7.14255e-11
-9.40209e-12
-6.86099e-11
-1.18276e-11
-6.52535e-11
-1.41785e-11
-6.13801e-11
-1.64283e-11
-5.70166e-11
-1.85535e-11
-5.21978e-11
-2.05284e-11
-4.69626e-11
-2.23306e-11
-4.1357e-11
-2.39365e-11
-3.54309e-11
-2.5325e-11
-2.92396e-11
-2.64761e-11
-2.28414e-11
-2.73737e-11
-1.62973e-11
-2.80055e-11
-9.67014e-12
-2.83641e-11
-3.02345e-12
-2.84467e-11
3.57812e-12
-2.82529e-11
1.00714e-11
-2.77865e-11
1.6393e-11
-2.70527e-11
2.24844e-11
-2.6062e-11
2.82883e-11
-2.48272e-11
3.3755e-11
-2.3368e-11
3.88367e-11
-2.17045e-11
4.34945e-11
-1.98617e-11
4.76913e-11
-1.78619e-11
5.14e-11
-1.57319e-11
5.45955e-11
-1.34961e-11
5.72639e-11
-1.11848e-11
5.93919e-11
-8.82284e-12
6.0977e-11
-6.43767e-12
6.20166e-11
-4.04857e-12
6.25188e-11
-1.67933e-12
6.24917e-11
6.51138e-13
6.19537e-11
2.91801e-12
6.09211e-11
5.10433e-12
5.94188e-11
7.19143e-12
5.747e-11
9.16829e-12
5.51055e-11
1.1019e-11
5.2354e-11
1.27307e-11
4.92513e-11
1.42837e-11
4.58337e-11
1.56592e-11
4.21444e-11
1.68335e-11
3.8228e-11
1.77849e-11
3.41365e-11
1.84856e-11
2.99293e-11
1.89014e-11
2.5674e-11
1.89948e-11
2.14459e-11
1.87267e-11
1.73293e-11
1.80585e-11
1.34139e-11
1.69652e-11
9.79963e-12
1.54269e-11
6.59174e-12
1.34393e-11
3.89211e-12
1.10276e-11
1.81887e-12
8.2208e-12
4.87012e-13
5.08748e-12
1.73056e-12
-6.43146e-13
2.62837e-12
-2.41175e-12
7.68135e-12
-5.15621e-12
1.23286e-11
-8.70681e-12
1.64344e-11
-1.29125e-11
1.9929e-11
-1.76271e-11
2.27722e-11
-2.27152e-11
2.49646e-11
-2.80483e-11
2.65213e-11
-3.35132e-11
2.74821e-11
-3.90078e-11
2.78889e-11
-4.44414e-11
2.77975e-11
-4.97367e-11
2.72613e-11
-5.48231e-11
2.63333e-11
-5.96422e-11
2.50637e-11
-6.41411e-11
2.34943e-11
-6.82738e-11
2.16609e-11
-7.19975e-11
1.95937e-11
-7.52765e-11
1.73223e-11
-7.80756e-11
1.487e-11
-8.0366e-11
1.22591e-11
-8.21178e-11
9.50723e-12
-8.33082e-11
6.63583e-12
-8.39145e-11
3.66379e-12
-8.39218e-11
6.15787e-13
-8.33159e-11
-2.4855e-12
-8.20918e-11
-5.61182e-12
-8.02462e-11
-8.73734e-12
-7.77854e-11
-1.1831e-11
-7.47187e-11
-1.48642e-11
-7.10646e-11
-1.78043e-11
-6.68452e-11
-2.06212e-11
-6.20919e-11
-2.32821e-11
-5.68398e-11
-2.57575e-11
-5.11331e-11
-2.8016e-11
-4.50202e-11
-3.00296e-11
-3.85569e-11
-3.17701e-11
-3.18026e-11
-3.32134e-11
-2.48216e-11
-3.43389e-11
-1.76804e-11
-3.51316e-11
-1.04483e-11
-3.5582e-11
-3.1958e-12
-3.56851e-11
4.00639e-12
-3.54412e-11
1.10871e-11
-3.48531e-11
1.79785e-11
-3.39294e-11
2.4614e-11
-3.26819e-11
3.09339e-11
-3.11304e-11
3.68812e-11
-2.92971e-11
4.24079e-11
-2.72112e-11
4.74682e-11
-2.49001e-11
5.20267e-11
-2.23962e-11
5.60501e-11
-1.97289e-11
5.95172e-11
-1.69341e-11
6.24081e-11
-1.40441e-11
6.47149e-11
-1.10954e-11
6.64302e-11
-8.11599e-12
6.75582e-11
-5.13694e-12
6.81033e-11
-2.18237e-12
6.80819e-11
7.17139e-13
6.75086e-11
3.53795e-12
6.6408e-11
6.25377e-12
6.48019e-11
8.84806e-12
6.2721e-11
1.13015e-11
6.01932e-11
1.36004e-11
5.72532e-11
1.57255e-11
5.39342e-11
1.76585e-11
5.02762e-11
1.93739e-11
4.63193e-11
2.08477e-11
4.21098e-11
2.20524e-11
3.76989e-11
2.29548e-11
3.31478e-11
2.35115e-11
2.85259e-11
2.36759e-11
2.39115e-11
2.34009e-11
1.93917e-11
2.26385e-11
1.50658e-11
2.1352e-11
1.10475e-11
1.95066e-11
7.45418e-12
1.70947e-11
4.41598e-12
1.41282e-11
2.06861e-12
1.06312e-11
5.54196e-13
6.66276e-12
2.31425e-12
-7.14417e-13
3.37063e-12
-2.68386e-12
9.70426e-12
-5.73611e-12
1.54319e-11
-9.67428e-12
2.04219e-11
-1.43128e-11
2.46161e-11
-1.94861e-11
2.79937e-11
-2.5035e-11
3.0561e-11
-3.08202e-11
3.23537e-11
-3.67143e-11
3.34227e-11
-4.26117e-11
3.38325e-11
-4.84185e-11
3.36501e-11
-5.40564e-11
3.29446e-11
-5.94575e-11
3.17795e-11
-6.45629e-11
3.02137e-11
-6.93211e-11
2.82967e-11
-7.36855e-11
2.6069e-11
-7.76168e-11
2.35678e-11
-8.10761e-11
2.08236e-11
-8.403e-11
1.78648e-11
-8.64444e-11
1.47134e-11
-8.82916e-11
1.1393e-11
-8.95429e-11
7.92438e-12
-9.01771e-11
4.33357e-12
-9.01727e-11
6.45311e-13
-8.95171e-11
-3.10892e-12
-8.81993e-11
-6.89934e-12
-8.62185e-11
-1.06898e-11
-8.35765e-11
-1.44468e-11
-8.02854e-11
-1.81311e-11
-7.63609e-11
-2.17067e-11
-7.18286e-11
-2.51334e-11
-6.67188e-11
-2.83741e-11
-6.10712e-11
-3.13892e-11
-5.49309e-11
-3.41425e-11
-4.83516e-11
-3.65969e-11
-4.13918e-11
-3.87196e-11
-3.41166e-11
-4.04798e-11
-2.6595e-11
-4.18531e-11
-1.88998e-11
-4.28205e-11
-1.11066e-11
-4.33696e-11
-3.29226e-12
-4.34944e-11
4.46481e-12
-4.31934e-11
1.20884e-11
-4.24716e-11
1.95027e-11
-4.13381e-11
2.66381e-11
-3.98109e-11
3.34276e-11
-3.79122e-11
3.98133e-11
-3.56735e-11
4.57402e-11
-3.31268e-11
5.11638e-11
-3.03103e-11
5.60423e-11
-2.72588e-11
6.03461e-11
-2.40141e-11
6.40479e-11
-2.06145e-11
6.71334e-11
-1.71052e-11
6.95896e-11
-1.35241e-11
7.1416e-11
-9.91179e-12
7.26127e-11
-6.30005e-12
7.31929e-11
-2.72596e-12
7.31691e-11
7.80316e-13
7.25647e-11
4.18437e-12
7.14006e-11
7.46224e-12
6.97071e-11
1.05882e-11
6.75117e-11
1.35454e-11
6.48492e-11
1.63131e-11
6.17512e-11
1.88751e-11
5.82553e-11
2.12074e-11
5.43971e-11
2.3286e-11
5.02171e-11
2.50827e-11
4.57583e-11
2.65668e-11
4.10727e-11
2.7697e-11
3.62191e-11
2.84222e-11
3.12661e-11
2.8687e-11
2.62946e-11
2.84311e-11
2.13938e-11
2.7599e-11
1.66774e-11
2.61286e-11
1.22633e-11
2.3982e-11
8.29356e-12
2.11264e-11
4.92126e-12
1.75633e-11
2.30713e-12
1.33083e-11
6.14984e-13
8.41637e-12
2.95889e-12
-7.86102e-13
4.18468e-12
-2.95506e-12
1.19267e-11
-6.31807e-12
1.88465e-11
-1.06464e-11
2.48e-11
-1.57242e-11
2.97432e-11
-2.13506e-11
3.36687e-11
-2.73487e-11
3.66073e-11
-3.35623e-11
3.86147e-11
-3.98568e-11
3.97643e-11
-4.61197e-11
4.01416e-11
-5.2259e-11
3.98352e-11
-5.81958e-11
3.89265e-11
-6.38651e-11
3.74934e-11
-6.92115e-11
3.5604e-11
-7.41852e-11
3.33135e-11
-7.87432e-11
3.06691e-11
-8.2845e-11
2.77107e-11
-8.6455e-11
2.44735e-11
-8.95362e-11
2.09846e-11
-9.2057e-11
1.72711e-11
-9.39841e-11
1.33554e-11
-9.52905e-11
9.26408e-12
-9.59478e-11
5.02221e-12
-9.59359e-11
6.625e-13
-9.52351e-11
-3.7828e-12
-9.38364e-11
-8.27351e-12
-9.1733e-11
-1.27711e-11
-8.89295e-11
-1.72307e-11
-8.54333e-11
-2.16102e-11
-8.12634e-11
-2.58622e-11
-7.64426e-11
-2.99424e-11
-7.10049e-11
-3.38024e-11
-6.49895e-11
-3.73977e-11
-5.84461e-11
-4.06815e-11
-5.14297e-11
-4.36112e-11
-4.4004e-11
-4.61452e-11
-3.62379e-11
-4.82478e-11
-2.82063e-11
-4.98882e-11
-1.99879e-11
-5.10438e-11
-1.16647e-11
-5.16988e-11
-3.32098e-12
-5.18447e-11
4.95912e-12
-5.14805e-11
1.30913e-11
-5.06107e-11
2.09961e-11
-4.92493e-11
2.85961e-11
-4.74165e-11
3.58228e-11
-4.51432e-11
4.26111e-11
-4.24643e-11
4.89065e-11
-3.94228e-11
5.46579e-11
-3.60597e-11
5.98265e-11
-3.24227e-11
6.43768e-11
-2.85564e-11
6.82869e-11
-2.45134e-11
7.15374e-11
-2.0341e-11
7.41226e-11
-1.60909e-11
7.60375e-11
-1.18046e-11
7.7291e-11
-7.52787e-12
7.78925e-11
-3.29811e-12
7.78637e-11
8.41955e-13
7.72243e-11
4.85979e-12
7.60045e-11
8.72109e-12
7.42318e-11
1.24027e-11
7.19417e-11
1.58797e-11
6.91658e-11
1.91355e-11
6.59409e-11
2.21484e-11
6.23003e-11
2.48979e-11
5.82807e-11
2.73571e-11
5.39173e-11
2.94988e-11
4.92523e-11
3.12858e-11
4.43339e-11
3.26704e-11
3.9216e-11
3.35962e-11
3.39662e-11
3.39939e-11
2.86612e-11
3.37945e-11
2.34004e-11
3.2919e-11
1.8299e-11
3.12904e-11
1.3495e-11
2.88474e-11
9.14534e-12
2.55386e-11
5.43382e-12
2.13379e-11
2.54461e-12
1.62614e-11
6.782e-13
1.03444e-11
3.66732e-12
-8.59342e-13
5.07207e-12
-3.24476e-12
1.43665e-11
-6.93574e-12
2.25896e-11
-1.1675e-11
2.95901e-11
-1.72042e-11
3.53226e-11
-2.32911e-11
3.98052e-11
-2.97307e-11
4.30959e-11
-3.6354e-11
4.52864e-11
-4.30189e-11
4.64767e-11
-4.96124e-11
4.67822e-11
-5.60419e-11
4.63109e-11
-6.22337e-11
4.51637e-11
-6.81265e-11
4.34306e-11
-7.36688e-11
4.11898e-11
-7.88167e-11
3.85037e-11
-8.35293e-11
3.54227e-11
-8.777e-11
3.19909e-11
-9.15011e-11
2.82424e-11
-9.46888e-11
2.42081e-11
-9.72968e-11
1.99129e-11
-9.92941e-11
1.53842e-11
-1.00647e-10
1.06459e-11
-1.01328e-10
5.72965e-12
-1.01309e-10
6.6729e-13
-1.00571e-10
-4.49917e-12
-9.90996e-11
-9.72745e-12
-9.68886e-11
-1.49672e-11
-9.39372e-11
-2.01704e-11
-9.02558e-11
-2.5283e-11
-8.58588e-11
-3.02538e-11
-8.07726e-11
-3.50264e-11
-7.50286e-11
-3.95475e-11
-6.86698e-11
-4.37605e-11
-6.17455e-11
-4.76128e-11
-5.43156e-11
-5.1051e-11
-4.64461e-11
-5.40271e-11
-3.82115e-11
-5.64971e-11
-2.96918e-11
-5.84248e-11
-2.09722e-11
-5.9782e-11
-1.21417e-11
-6.05493e-11
-3.29099e-12
-6.07163e-11
5.48773e-12
-6.02807e-11
1.41054e-11
-5.925e-11
2.24745e-11
-5.76397e-11
3.05152e-11
-5.54777e-11
3.81513e-11
-5.27985e-11
4.53174e-11
-4.96478e-11
5.19518e-11
-4.60723e-11
5.80056e-11
-4.21259e-11
6.34339e-11
-3.78602e-11
6.82064e-11
-3.33346e-11
7.22963e-11
-2.86051e-11
7.56917e-11
-2.3734e-11
7.83821e-11
-1.87746e-11
8.03718e-11
-1.37831e-11
8.16653e-11
-8.80572e-12
8.22815e-11
-3.89419e-12
8.22382e-11
9.09705e-13
8.15653e-11
5.56128e-12
8.02905e-11
1.00284e-11
7.84511e-11
1.42782e-11
7.60799e-11
1.82901e-11
7.3215e-11
2.20425e-11
6.9889e-11
2.5519e-11
6.61377e-11
2.86962e-11
6.19924e-11
3.15514e-11
5.74869e-11
3.4055e-11
5.26578e-11
3.61672e-11
4.75478e-11
3.78344e-11
4.22058e-11
3.89934e-11
3.66912e-11
3.95653e-11
3.10822e-11
3.94615e-11
2.54768e-11
3.85841e-11
1.99981e-11
3.68298e-11
1.47966e-11
3.41111e-11
1.00566e-11
3.03417e-11
5.98034e-12
2.54783e-11
2.79988e-12
1.95063e-11
7.42174e-13
1.2465e-11
4.44005e-12
-9.42468e-13
6.04309e-12
-3.5708e-12
1.70495e-11
-7.63447e-12
2.67065e-11
-1.28221e-11
3.48294e-11
-1.8831e-11
4.13829e-11
-2.5388e-11
4.6413e-11
-3.22666e-11
5.00248e-11
-3.92779e-11
5.23471e-11
-4.6281e-11
5.35284e-11
-5.31628e-11
5.37116e-11
-5.98369e-11
5.30319e-11
-6.62352e-11
5.16076e-11
-7.23038e-11
4.95438e-11
-7.79975e-11
4.69266e-11
-8.32772e-11
4.3825e-11
-8.8108e-11
4.02933e-11
-9.24537e-11
3.63743e-11
-9.628e-11
3.21043e-11
-9.95501e-11
2.75113e-11
-1.02231e-10
2.26239e-11
-1.04285e-10
1.74658e-11
-1.0568e-10
1.20656e-11
-1.06381e-10
6.45175e-12
-1.0636e-10
6.6386e-13
-1.0559e-10
-5.2553e-12
-1.04056e-10
-1.12512e-11
-1.01746e-10
-1.727e-11
-9.86631e-11
-2.32509e-11
-9.4811e-11
-2.91363e-11
-9.02072e-11
-3.48627e-11
-8.48737e-11
-4.0369e-11
-7.88448e-11
-4.55891e-11
-7.21614e-11
-5.04604e-11
-6.48768e-11
-5.49175e-11
-5.70513e-11
-5.88999e-11
-4.87564e-11
-6.23486e-11
-4.00703e-11
-6.52126e-11
-3.10794e-11
-6.74477e-11
-2.18753e-11
-6.90202e-11
-1.25539e-11
-6.99065e-11
-3.21395e-12
-7.00934e-11
6.04666e-12
-6.95793e-11
1.51305e-11
-6.83721e-11
2.39463e-11
-6.64936e-11
3.24061e-11
-6.39749e-11
4.04323e-11
-6.08608e-11
4.79516e-11
-5.72013e-11
5.49036e-11
-5.30562e-11
6.12327e-11
-4.8484e-11
6.68987e-11
-4.35518e-11
7.18663e-11
-3.83238e-11
7.61164e-11
-3.28724e-11
7.96326e-11
-2.72627e-11
8.24138e-11
-2.15631e-11
8.44597e-11
-1.58309e-11
8.57848e-11
-1.01274e-11
8.64035e-11
-4.50404e-12
8.63441e-11
9.83334e-13
8.56337e-11
6.29107e-12
8.43115e-11
1.13749e-11
8.24129e-11
1.62058e-11
7.99793e-11
2.07569e-11
7.70449e-11
2.50139e-11
7.36468e-11
2.89575e-11
6.9816e-11
3.25705e-11
6.55837e-11
3.58298e-11
6.09785e-11
3.87088e-11
5.60307e-11
4.11659e-11
5.07741e-11
4.31438e-11
4.52501e-11
4.45721e-11
3.95108e-11
4.5361e-11
3.3628e-11
4.54026e-11
2.76999e-11
4.45719e-11
2.1848e-11
4.27433e-11
1.62404e-11
3.97814e-11
1.10771e-11
3.55694e-11
6.60355e-12
3.00166e-11
3.09016e-12
2.30853e-11
8.16609e-13
1.48017e-11
5.28772e-12
-1.04205e-12
7.11412e-12
-3.96878e-12
2.00318e-11
-8.47227e-12
3.1264e-11
-1.41746e-11
4.05846e-11
-2.07028e-11
4.79634e-11
-2.77461e-11
5.35082e-11
-3.50489e-11
5.73788e-11
-4.24209e-11
5.97694e-11
-4.97185e-11
6.08754e-11
-5.68389e-11
6.08803e-11
-6.37026e-11
5.99426e-11
-7.02531e-11
5.82039e-11
-7.64453e-11
5.57801e-11
-8.2242e-11
5.27658e-11
-8.76109e-11
4.92343e-11
-9.25202e-11
4.52408e-11
-9.69382e-11
4.0828e-11
-1.0083e-10
3.60284e-11
-1.04161e-10
3.08722e-11
-1.06894e-10
2.53837e-11
-1.08995e-10
1.95897e-11
-1.10424e-10
1.35135e-11
-1.11145e-10
7.18797e-12
-1.11121e-10
6.50437e-13
-1.10325e-10
-6.04538e-12
-1.08733e-10
-1.2841e-11
-1.06338e-10
-1.96679e-11
-1.03135e-10
-2.64619e-11
-9.91301e-11
-3.3153e-11
-9.43358e-11
-3.96737e-11
-8.87759e-11
-4.59502e-11
-8.24802e-11
-5.19105e-11
-7.54927e-11
-5.7478e-11
-6.7865e-11
-6.25794e-11
-5.96621e-11
-6.71408e-11
-5.09575e-11
-7.10948e-11
-4.18357e-11
-7.43793e-11
-3.23881e-11
-7.69429e-11
-2.27138e-11
-7.87447e-11
-1.29162e-11
-7.97563e-11
-3.10071e-12
-7.99627e-11
6.62612e-12
-7.9361e-11
1.61619e-11
-7.79634e-11
2.54066e-11
-7.57939e-11
3.42697e-11
-7.28928e-11
4.26648e-11
-6.93097e-11
5.05187e-11
-6.51073e-11
5.77635e-11
-6.03508e-11
6.43475e-11
-5.51148e-11
7.02252e-11
-4.94726e-11
7.53688e-11
-4.35064e-11
7.97549e-11
-3.72929e-11
8.33768e-11
-3.09137e-11
8.62291e-11
-2.44388e-11
8.83218e-11
-1.79409e-11
8.96649e-11
-1.14815e-11
9.02832e-11
-5.1268e-12
9.02012e-11
1.06733e-12
8.94584e-11
7.04219e-12
8.80926e-11
1.27552e-11
8.61499e-11
1.81688e-11
8.36685e-11
2.3264e-11
8.06894e-11
2.80237e-11
7.7246e-11
3.2436e-11
7.33721e-11
3.64837e-11
6.90929e-11
4.01518e-11
6.44333e-11
4.34144e-11
5.9416e-11
4.6232e-11
5.40633e-11
4.8548e-11
4.84087e-11
5.02805e-11
4.24915e-11
5.13344e-11
3.6378e-11
5.15742e-11
3.01513e-11
5.08588e-11
2.39391e-11
4.90172e-11
1.79084e-11
4.58757e-11
1.22874e-11
4.12551e-11
7.3558e-12
3.50141e-11
3.45001e-12
2.70571e-11
9.06794e-13
1.7409e-11
6.22539e-12
-1.1805e-12
8.32423e-12
-4.49482e-12
2.34015e-11
-9.54987e-12
3.63736e-11
-1.58507e-11
4.69389e-11
-2.29502e-11
5.51159e-11
-3.04842e-11
6.10945e-11
-3.81873e-11
6.51337e-11
-4.58693e-11
6.75021e-11
-5.34029e-11
6.84586e-11
-6.06952e-11
6.82209e-11
-6.76844e-11
6.69787e-11
-7.43245e-11
6.48891e-11
-8.05827e-11
6.20816e-11
-8.64306e-11
5.86547e-11
-9.18415e-11
5.46839e-11
-9.67889e-11
5.0224e-11
-1.01242e-10
4.53139e-11
-1.05169e-10
3.99849e-11
-1.08534e-10
3.42622e-11
-1.11301e-10
2.81727e-11
-1.13432e-10
2.17376e-11
-1.14887e-10
1.49815e-11
-1.15622e-10
7.93023e-12
-1.15596e-10
6.27669e-13
-1.14773e-10
-6.87071e-12
-1.13132e-10
-1.44898e-11
-1.10658e-10
-2.21549e-11
-1.0735e-10
-2.97886e-11
-1.03207e-10
-3.73188e-11
-9.8244e-11
-4.4666e-11
-9.24767e-11
-5.17516e-11
-8.5937e-11
-5.84891e-11
-7.86647e-11
-6.47939e-11
-7.07151e-11
-7.05772e-11
-6.21529e-11
-7.57553e-11
-5.30571e-11
-8.02468e-11
-4.35158e-11
-8.39802e-11
-3.36279e-11
-8.68936e-11
-2.34989e-11
-8.8939e-11
-1.32398e-11
-9.0083e-11
-2.96457e-12
-9.03072e-11
7.21402e-12
-8.96102e-11
1.71844e-11
-8.80051e-11
2.68425e-11
-8.55235e-11
3.60882e-11
-8.22099e-11
4.4834e-11
-7.8126e-11
5.29982e-11
-7.33405e-11
6.05155e-11
-6.7935e-11
6.73282e-11
-6.19917e-11
7.33978e-11
-5.5603e-11
7.86922e-11
-4.88575e-11
8.31979e-11
-4.18505e-11
8.69044e-11
-3.46666e-11
8.98174e-11
-2.73922e-11
9.19431e-11
-2.01005e-11
9.33023e-11
-1.28675e-11
9.39144e-11
-5.75834e-12
9.38148e-11
1.1548e-12
9.30414e-11
7.81108e-12
9.16453e-11
1.41541e-11
8.9671e-11
2.0153e-11
8.71653e-11
2.57864e-11
8.41651e-11
3.10468e-11
8.07096e-11
3.59201e-11
7.68288e-11
4.03981e-11
7.25475e-11
4.44715e-11
6.78823e-11
4.8122e-11
6.28478e-11
5.13126e-11
5.74584e-11
5.39867e-11
5.17315e-11
5.60599e-11
4.56995e-11
5.74214e-11
3.94065e-11
5.79248e-11
3.29284e-11
5.73965e-11
2.6374e-11
5.56335e-11
1.99181e-11
5.2395e-11
1.37931e-11
4.74451e-11
8.32877e-12
4.0544e-11
3.92632e-12
3.15257e-11
1.03413e-12
2.03645e-11
7.29011e-12
-1.39219e-12
9.74629e-12
-5.2574e-12
2.73215e-11
-1.10219e-11
4.21922e-11
-1.80316e-11
5.40022e-11
-2.5737e-11
6.28742e-11
-3.37457e-11
6.91554e-11
-4.17907e-11
7.323e-11
-4.97084e-11
7.54701e-11
-5.73904e-11
7.61896e-11
-6.47718e-11
7.56499e-11
-7.18071e-11
7.40596e-11
-7.84673e-11
7.15932e-11
-8.47288e-11
6.83846e-11
-9.05719e-11
6.45367e-11
-9.59758e-11
6.01237e-11
-1.00917e-10
5.51975e-11
-1.05368e-10
4.97939e-11
-1.09295e-10
4.39369e-11
-1.12664e-10
3.76516e-11
-1.15436e-10
3.09612e-11
-1.17577e-10
2.38893e-11
-1.19041e-10
1.64507e-11
-1.19781e-10
8.67069e-12
-1.19747e-10
5.87324e-13
-1.18898e-10
-7.73072e-12
-1.17207e-10
-1.6198e-11
-1.14665e-10
-2.47205e-11
-1.11264e-10
-3.32192e-11
-1.07005e-10
-4.16124e-11
-1.01893e-10
-4.98189e-11
-9.5944e-11
-5.77462e-11
-8.91838e-11
-6.53006e-11
-8.16535e-11
-7.23804e-11
-7.34053e-11
-7.88861e-11
-6.45084e-11
-8.47171e-11
-5.50434e-11
-8.97805e-11
-4.5105e-11
-9.39907e-11
-3.47975e-11
-9.72763e-11
-2.42342e-11
-9.95801e-11
-1.35342e-11
-1.00863e-10
-2.81852e-12
-1.01105e-10
7.79058e-12
-1.00302e-10
1.81759e-11
-9.84744e-11
2.82235e-11
-9.56556e-11
3.78303e-11
-9.19013e-11
4.68997e-11
-8.72794e-11
5.53509e-11
-8.18748e-11
6.31119e-11
-7.57775e-11
7.01308e-11
-6.90899e-11
7.63644e-11
-6.19129e-11
8.17901e-11
-5.4356e-11
8.63909e-11
-4.65198e-11
9.01685e-11
-3.85075e-11
9.31265e-11
-3.04075e-11
9.52837e-11
-2.23084e-11
9.66556e-11
-1.42828e-11
9.72704e-11
-6.4086e-12
9.71574e-11
1.24048e-12
9.63683e-11
8.58134e-12
9.49548e-11
1.55572e-11
9.29739e-11
2.21317e-11
9.04685e-11
2.82977e-11