/*--------------------------------*- C++ -*----------------------------------*\
| =========                 |                                                 |
| \\      /  F ield         | OpenFOAM: The Open Source CFD Toolbox           |
|  \\    /   O peration     | Version:  2412                                  |
|   \\  /    A nd           | Website:  www.openfoam.com                      |
|    \\/     M anipulation  |                                                 |
\*---------------------------------------------------------------------------*/
FoamFile
{
    version     2.0;
    format      ascii;
    arch        "LSB;label=32;scalar=64";
    class       surfaceScalarField;
    location    "0.65";
    object      alphaPhi0.mercury;
}
// * * * * * * * * * * * * * * * * * * * * * * * * * * * * * * * * * * * * * //

dimensions      [0 3 -1 0 0 0 0];

oriented        oriented;

internalField   nonuniform List<scalar> 
12640
(
-5.59666e-06
5.59666e-06
-1.14721e-05
5.87565e-06
-1.74191e-05
5.94728e-06
-2.34574e-05
6.03854e-06
-2.96145e-05
6.15741e-06
-3.59188e-05
6.30449e-06
-4.23979e-05
6.4792e-06
-4.90783e-05
6.68036e-06
-5.59848e-05
6.90622e-06
-6.31395e-05
7.15438e-06
-7.05615e-05
7.42164e-06
-7.82656e-05
7.70376e-06
-8.62611e-05
7.99522e-06
-9.45504e-05
8.28894e-06
-0.000103127
8.57594e-06
-0.000111972
8.845e-06
-0.000121055
9.08223e-06
-0.000130326
9.27067e-06
-0.000139717
9.38991e-06
-0.000149133
9.4157e-06
-0.000158453
9.3198e-06
-0.000167523
9.06997e-06
-0.000176152
8.63024e-06
-0.000184114
7.96174e-06
-0.000191137
7.02401e-06
-0.000196913
5.77704e-06
-0.000201096
4.18425e-06
-0.000203311
2.2167e-06
-0.000203205
-1.04555e-07
-0.000200285
-2.91946e-06
-0.000194233
-6.05182e-06
-0.000184741
-9.49251e-06
-0.000171586
-1.31553e-05
-0.000154669
-1.69164e-05
-0.000134051
-2.06184e-05
-0.000109974
-2.40775e-05
-8.28777e-05
-2.7097e-05
-5.33923e-05
-2.94858e-05
-2.23133e-05
-3.10796e-05
9.449e-06
-3.17631e-05
4.09343e-05
-3.14857e-05
7.12024e-05
-3.02679e-05
9.94013e-05
-2.81986e-05
0.000124826
-2.54238e-05
0.000146952
-2.21258e-05
0.000165454
-1.85013e-05
0.000180197
-1.47422e-05
0.000191217
-1.1019e-05
0.000198683
-7.46802e-06
0.000202874
-4.19045e-06
0.000204117
-1.24118e-06
0.000202839
1.27513e-06
0.000199436
3.39883e-06
0.000194293
5.14433e-06
0.000187772
6.52862e-06
0.000180188
7.58396e-06
0.000171828
8.35345e-06
0.000162946
8.88066e-06
0.000153747
9.20296e-06
0.000144396
9.35455e-06
0.00013503
9.36919e-06
0.000125754
9.2783e-06
0.000116646
9.10836e-06
0.000107763
8.88141e-06
9.91457e-05
8.61587e-06
9.08181e-05
8.32689e-06
8.27916e-05
8.02662e-06
7.50673e-05
7.72442e-06
6.7638e-05
7.42777e-06
6.04917e-05
7.14306e-06
5.36126e-05
6.87556e-06
4.69812e-05
6.6291e-06
4.05741e-05
6.40611e-06
3.43658e-05
6.20823e-06
2.83291e-05
6.03678e-06
2.24365e-05
5.89279e-06
1.666e-05
5.77679e-06
1.09723e-05
5.68798e-06
5.35405e-06
5.61858e-06
5.3544e-06
-5.8208e-06
1.14178e-05
-1.19827e-05
1.20379e-05
-1.8205e-05
1.217e-05
-2.45194e-05
1.23532e-05
-3.09583e-05
1.25966e-05
-3.75529e-05
1.28991e-05
-4.43329e-05
1.3259e-05
-5.13268e-05
1.36739e-05
-5.85613e-05
1.41402e-05
-6.60609e-05
1.46533e-05
-7.38466e-05
1.52068e-05
-8.19354e-05
1.5792e-05
-9.03388e-05
1.63981e-05
-9.90613e-05
1.70107e-05
-0.000108098
1.76119e-05
-0.000117433
1.81791e-05
-0.000127035
1.8684e-05
-0.000136858
1.90923e-05
-0.00014683
1.93621e-05
-0.000156859
1.94439e-05
-0.000166818
1.92793e-05
-0.000176549
1.88018e-05
-0.000185854
1.79367e-05
-0.000194493
1.66025e-05
-0.000202181
1.47142e-05
-0.000208589
1.21869e-05
-0.000213346
8.94271e-06
-0.000216049
4.92142e-06
-0.000216301
1.4823e-07
-0.000213609
-5.61093e-06
-0.000207564
-1.20969e-05
-0.000197807
-1.925e-05
-0.00018407
-2.68928e-05
-0.000166219
-3.47676e-05
-0.000144292
-4.25459e-05
-0.000118532
-4.98379e-05
-8.94087e-05
-5.62216e-05
-5.76126e-05
-6.1283e-05
-2.40286e-05
-6.46645e-05
1.03218e-05
-6.61139e-05
4.4356e-05
-6.55199e-05
7.70169e-05
-6.29284e-05
0.000107354
-5.85347e-05
0.000134589
-5.26579e-05
0.000158158
-4.56939e-05
0.000177723
-3.80664e-05
0.000193164
-3.01837e-05
0.00020455
-2.24033e-05
0.000212095
-1.50143e-05
0.000216125
-8.22533e-06
0.00021702
-2.1354e-06
0.000215292
3.00903e-06
0.00021134
7.35221e-06
0.000205575
1.09037e-05
0.000198388
1.3713e-05
0.000190125
1.58515e-05
0.000181089
1.73973e-05
0.000171539
1.84354e-05
0.000161691
1.90519e-05
0.000151718
1.93254e-05
0.00014176
1.93255e-05
0.000131925
1.91137e-05
0.000122291
1.87429e-05
0.000112913
1.82579e-05
0.000103831
1.76968e-05
9.50672e-05
1.70899e-05
8.66307e-05
1.64615e-05
7.85203e-05
1.58315e-05
7.07274e-05
1.52161e-05
6.32383e-05
1.4628e-05
5.60349e-05
1.40765e-05
4.90951e-05
1.35683e-05
4.23932e-05
1.31082e-05
3.59018e-05
1.27e-05
2.95921e-05
1.23467e-05
2.34345e-05
1.20507e-05
1.73985e-05
1.18133e-05
1.14523e-05
1.16348e-05
5.56496e-06
1.15064e-05
1.09191e-05
-5.77327e-06
1.71913e-05
-1.18706e-05
1.81353e-05
-1.80354e-05
1.83347e-05
-2.42939e-05
1.86118e-05
-3.06783e-05
1.8981e-05
-3.722e-05
1.94407e-05
-4.39497e-05
1.99884e-05
-5.08967e-05
2.06206e-05
-5.80893e-05
2.13324e-05
-6.55532e-05
2.21169e-05
-7.33119e-05
2.2965e-05
-8.13847e-05
2.38645e-05
-8.97864e-05
2.47995e-05
-9.85253e-05
2.57493e-05
-0.000107601
2.66876e-05
-0.000117004
2.75813e-05
-0.000126708
2.83887e-05
-0.000136675
2.90589e-05
-0.000146842
2.95294e-05
-0.000157124
2.97258e-05
-0.000167404
2.95601e-05
-0.000177532
2.89307e-05
-0.000187316
2.77225e-05
-0.000196521
2.58093e-05
-0.000204862
2.30569e-05
-0.000212004
1.93296e-05
-0.00021756
1.45e-05
-0.000221103
8.46517e-06
-0.000222164
1.21011e-06
-0.000220263
-7.51246e-06
-0.000214885
-1.74755e-05
-0.000205606
-2.85292e-05
-0.000192083
-4.04158e-05
-0.000174111
-5.27401e-05
-0.000151672
-6.49857e-05
-0.00012498
-7.6531e-05
-9.45128e-05
-8.66891e-05
-6.10193e-05
-9.47771e-05
-2.54873e-05
-0.000100197
1.0922e-05
-0.000102524
4.69698e-05
-0.000101568
8.14492e-05
-9.74081e-05
0.000113289
-9.03748e-05
0.000141634
-8.10035e-05
0.000165891
-6.99513e-05
0.000185736
-5.79123e-05
0.000201096
-4.55439e-05
0.000212103
-3.34098e-05
0.000219052
-2.19613e-05
0.000222347
-1.15173e-05
0.0002224
-2.18733e-06
0.000219837
5.56841e-06
0.000215066
1.21222e-05
0.000208541
1.74365e-05
0.000200668
2.15948e-05
0.000191801
2.47187e-05
0.000182246
2.69454e-05
0.000172265
2.84133e-05
0.000162065
2.92525e-05
0.000151812
2.95801e-05
0.000141636
2.9502e-05
0.000131636
2.91135e-05
0.000121882
2.84955e-05
0.000112423
2.77154e-05
0.00010329
2.6828e-05
9.45002e-05
2.58785e-05
8.60573e-05
2.4903e-05
7.79568e-05
2.39311e-05
7.01867e-05
2.29857e-05
6.27297e-05
2.20844e-05
5.55652e-05
2.12405e-05
4.86691e-05
2.04639e-05
4.20148e-05
1.97621e-05
3.5574e-05
1.91407e-05
2.9317e-05
1.8604e-05
2.32136e-05
1.81549e-05
1.72326e-05
1.77949e-05
1.13428e-05
1.75246e-05
5.51823e-06
1.73306e-05
1.64368e-05
-5.68607e-06
2.28775e-05
-1.16879e-05
2.41366e-05
-1.77586e-05
2.44051e-05
-2.39248e-05
2.47778e-05
-3.02188e-05
2.52748e-05
-3.66726e-05
2.58943e-05
-4.33178e-05
2.66334e-05
-5.01854e-05
2.7488e-05
-5.73053e-05
2.8452e-05
-6.47058e-05
2.95172e-05
-7.24131e-05
3.06722e-05
-8.04507e-05
3.1902e-05
-8.88378e-05
3.31866e-05
-9.75885e-05
3.45001e-05
-0.00010671
3.5809e-05
-0.000116199
3.70708e-05
-0.000126041
3.82322e-05
-0.000136208
3.92266e-05
-0.000146651
3.99725e-05
-0.000157295
4.03716e-05
-0.000168041
4.03065e-05
-0.000178749
3.96401e-05
-0.00018924
3.82153e-05
-0.000199287
3.58571e-05
-0.000208605
3.23763e-05
-0.000216852
2.75772e-05
-0.000223622
2.12705e-05
-0.00022845
1.32931e-05
-0.000230808
3.5682e-06
-0.000230178
-8.1428e-06
-0.000225903
-2.17506e-05
-0.000217454
-3.69784e-05
-0.000204363
-5.35071e-05
-0.000186302
-7.08016e-05
-0.000163153
-8.8135e-05
-0.000135072
-0.000104613
-0.000102544
-0.000119219
-6.64001e-05
-0.000130921
-2.7798e-05
-0.0001388
1.18685e-05
-0.000142191
5.10965e-05
-0.000140797
8.84287e-05
-0.000134741
0.000122596
-0.000124543
0.000152621
-0.00011103
0.000177872
-9.52029e-05
0.000198058
-7.80976e-05
0.000213189
-6.06732e-05
0.000223515
-4.37341e-05
0.000229454
-2.7903e-05
0.000231537
-1.36007e-05
0.000230279
-9.21862e-07
0.000226426
9.42672e-06
0.000220402
1.81411e-05
0.000212715
2.51153e-05
0.000203805
3.0504e-05
0.000194039
3.44904e-05
0.000183724
3.72686e-05
0.000173111
3.90324e-05
0.000162398
3.99665e-05
0.000151739
4.02362e-05
0.000141252
3.99871e-05
0.000131022
3.93444e-05
0.000121105
3.84134e-05
0.000111538
3.72819e-05
0.000102342
3.60223e-05
9.35258e-05
3.46935e-05
8.50862e-05
3.33422e-05
7.70123e-05
3.20054e-05
6.92862e-05
3.07116e-05
6.18863e-05
2.94831e-05
5.47888e-05
2.83365e-05
4.79674e-05
2.72844e-05
4.13938e-05
2.6336e-05
3.50376e-05
2.54979e-05
2.88679e-05
2.47749e-05
2.28534e-05
2.41701e-05
1.69627e-05
2.36854e-05
1.11646e-05
2.33219e-05
5.43307e-06
2.30611e-05
2.18691e-05
-5.56625e-06
2.84435e-05
-1.14415e-05
3.00109e-05
-1.73862e-05
3.03491e-05
-2.34279e-05
3.08189e-05
-2.95993e-05
3.14457e-05
-3.59335e-05
3.22281e-05
-4.24634e-05
3.31631e-05
-4.92216e-05
3.42461e-05
-5.62405e-05
3.54708e-05
-6.35513e-05
3.6828e-05
-7.11842e-05
3.83052e-05
-7.91673e-05
3.98853e-05
-8.7526e-05
4.15457e-05
-9.62817e-05
4.32565e-05
-0.00010545
4.49787e-05
-0.000115041
4.66624e-05
-0.000125052
4.82443e-05
-0.000135468
4.96446e-05
-0.000146259
5.07646e-05
-0.00015737
5.14838e-05
-0.000168718
5.16564e-05
-0.000180186
5.11101e-05
-0.000191614
4.96439e-05
-0.000202785
4.70297e-05
-0.000213425
4.3016e-05
-0.000223184
3.73357e-05
-0.000231634
2.97203e-05
-0.000238266
1.99244e-05
-0.000242478
7.77989e-06
-0.000243697
-6.92331e-06
-0.000241075
-2.43723e-05
-0.000233923
-4.41305e-05
-0.000221588
-6.58421e-05
-0.000203552
-8.88389e-05
-0.000179531
-0.000112157
-0.000149574
-0.000134571
-0.000114152
-0.000154641
-7.42134e-05
-0.00017086
-3.11622e-05
-0.000181852
1.32466e-05
-0.000186601
5.70962e-05
-0.000184648
9.85389e-05
-0.000176186
0.000136005
-0.00016201
0.000168345
-0.000143371
0.000194887
-0.000121745
0.00021541
-9.8621e-05
0.000230066
-7.53292e-05
0.000239289
-5.29546e-05
0.000243683
-3.22974e-05
0.00024392
-1.38429e-05
0.000240925
2.06903e-06
0.000235182
1.51724e-05
0.000227403
2.59227e-05
0.000218126
3.43968e-05
0.000207809
4.08225e-05
0.000196833
4.5465e-05
0.000185502
4.85963e-05
0.000174057
5.04773e-05
0.000162677
5.13472e-05
0.000151497
5.14173e-05
0.000140615
5.08714e-05
0.000130096
4.98659e-05
0.000119977
4.85316e-05
0.000110281
4.69759e-05
0.000101015
4.52864e-05
9.21762e-05
4.35323e-05
8.37509e-05
4.17684e-05
7.57198e-05
4.00377e-05
6.80584e-05
3.83735e-05
6.074e-05
3.68011e-05
5.37367e-05
3.53395e-05
4.70192e-05
3.40026e-05
4.0556e-05
3.28006e-05
3.43147e-05
3.17406e-05
2.8263e-05
3.08275e-05
2.23686e-05
3.00645e-05
1.65996e-05
2.94536e-05
1.09245e-05
2.89959e-05
5.31623e-06
2.8668e-05
2.71845e-05
-5.41468e-06
3.38576e-05
-1.11308e-05
3.57254e-05
-1.69168e-05
3.61339e-05
-2.2801e-05
3.67021e-05
-2.88169e-05
3.7461e-05
-3.49986e-05
3.84095e-05
-4.13805e-05
3.95449e-05
-4.79972e-05
4.0863e-05
-5.48837e-05
4.23575e-05
-6.20748e-05
4.40194e-05
-6.96051e-05
4.58358e-05
-7.75083e-05
4.77892e-05
-8.58171e-05
4.98555e-05
-9.4562e-05
5.20026e-05
-0.00010377
5.41883e-05
-0.000113464
5.63576e-05
-0.000123657
5.84397e-05
-0.000134356
6.03448e-05
-0.000145549
6.196e-05
-0.000157208
6.31449e-05
-0.000169278
6.37282e-05
-0.00018167
6.35027e-05
-0.000194248
6.22232e-05
-0.000206823
5.9605e-05
-0.000219134
5.5326e-05
-0.000230833
4.90339e-05
-0.000241473
4.03598e-05
-0.000250492
2.89431e-05
-0.00025719
1.44783e-05
-0.000261039
-3.07449e-06
-0.000260758
-2.46534e-05
-0.000255553
-4.93359e-05
-0.000244488
-7.69077e-05
-0.000226752
-0.000106575
-0.000201798
-0.000137112
-0.000169483
-0.000166885
-0.000130223
-0.0001939
-8.5099e-05
-0.000215985
-3.58677e-05
-0.000231084
1.51732e-05
-0.000237643
6.54682e-05
-0.000234945
0.000112575
-0.000223293
0.000154484
-0.000203919
0.000189818
-0.000178704
0.000217884
-0.00014981
0.000238599
-0.000119337
0.000252353
-8.90872e-05
0.00025987
-6.04733e-05
0.000262037
-3.44661e-05
0.000259729
-1.15346e-05
0.000254176
7.62389e-06
0.000245982
2.33686e-05
0.000235913
3.59894e-05
0.000224581
4.5726e-05
0.000212477
5.2924e-05
0.000199985
5.79547e-05
0.0001874
6.11798e-05
0.000174941
6.29371e-05
0.00016276
6.35277e-05
0.000150962
6.32121e-05
0.000139618
6.22129e-05
0.000128768
6.07157e-05
0.000118426
5.88725e-05
0.000108595
5.6807e-05
9.92638e-05
5.4618e-05
9.04144e-05
5.23833e-05
8.20219e-05
5.01633e-05
7.40567e-05
4.80051e-05
6.64866e-05
4.5945e-05
5.92787e-05
4.40096e-05
5.24002e-05
4.22187e-05
4.58175e-05
4.05865e-05
3.94961e-05
3.91234e-05
3.34015e-05
3.78362e-05
2.74999e-05
3.67295e-05
2.17578e-05
3.58061e-05
1.61425e-05
3.50677e-05
1.06219e-05
3.45151e-05
5.16868e-06
3.41198e-05
3.23525e-05
-5.23141e-06
3.90882e-05
-1.07552e-05
4.12473e-05
-1.6349e-05
4.17263e-05
-2.20419e-05
4.2394e-05
-2.78683e-05
4.32868e-05
-3.38632e-05
4.44042e-05
-4.00625e-05
4.57443e-05
-4.65029e-05
4.73038e-05
-5.32223e-05
4.90773e-05
-6.02591e-05
5.10567e-05
-6.76528e-05
5.32302e-05
-7.54435e-05
5.55809e-05
-8.36721e-05
5.80852e-05
-9.23791e-05
6.07112e-05
-0.000101605
6.34156e-05
-0.000111386
6.61414e-05
-0.000121759
6.8814e-05
-0.000132749
7.13372e-05
-0.000144375
7.35879e-05
-0.000156639
7.54108e-05
-0.000169521
7.66119e-05
-0.00018297
7.69528e-05
-0.000196892
7.61451e-05
-0.000211133
7.38454e-05
-0.000225463
6.96549e-05
-0.000239552
6.31227e-05
-0.000252951
5.37583e-05
-0.000265065
4.10567e-05
-0.000275134
2.45476e-05
-0.000282184
3.97519e-06
-0.000285312
-2.15261e-05
-0.00028301
-5.16383e-05
-0.00027402
-8.58981e-05
-0.000257123
-0.000123472
-0.000231357
-0.000162877
-0.000196254
-0.000201989
-0.000152072
-0.000238083
-0.000100024
-0.000268034
-4.23533e-05
-0.000288757
1.78279e-05
-0.000297825
7.69706e-05
-0.000294087
0.000131726
-0.000278048
0.00017945
-0.000251643
0.000218486
-0.000217742
0.000248177
-0.000179503
0.000268703
-0.000139864
0.000280845
-0.00010123
0.000285762
-6.53875e-05
0.000284758
-3.34636e-05
0.000278968
-5.7469e-06
0.000270053
1.65386e-05
0.000258667
3.4755e-05
0.000245697
4.89605e-05
0.000231818
5.96081e-05
0.00021754
6.72041e-05
0.000203237
7.22568e-05
0.00018918
7.52368e-05
0.00017555
7.65679e-05
0.000162459
7.66171e-05
0.000149974
7.56937e-05
0.00013813
7.4056e-05
0.000126932
7.19146e-05
0.000116366
6.94388e-05
0.00010641
6.67641e-05
9.7032e-05
6.39969e-05
8.81968e-05
6.122e-05
7.98655e-05
5.84966e-05
7.19975e-05
5.58753e-05
6.45517e-05
5.33922e-05
5.74882e-05
5.1074e-05
5.07685e-05
4.89394e-05
4.43546e-05
4.70016e-05
3.82089e-05
4.52702e-05
3.22946e-05
4.37511e-05
2.65764e-05
4.24478e-05
2.10195e-05
4.13623e-05
1.55906e-05
4.04955e-05
1.02568e-05
3.98476e-05
4.99064e-06
3.93847e-05
3.73425e-05
-5.01632e-06
4.41033e-05
-1.0314e-05
4.65429e-05
-1.56817e-05
4.70924e-05
-2.1149e-05
4.78603e-05
-2.67507e-05
4.88881e-05
-3.2523e-05
5.01764e-05
-3.8503e-05
5.17247e-05
-4.47296e-05
5.3531e-05
-5.12432e-05
5.55916e-05
-5.80862e-05
5.79005e-05
-6.53031e-05
6.0448e-05
-7.29407e-05
6.32196e-05
-8.10483e-05
6.61942e-05
-8.96777e-05
6.93421e-05
-9.88828e-05
7.26224e-05
-0.000108719
7.59795e-05
-0.000119243
7.93394e-05
-0.000130508
8.26043e-05
-0.000142565
8.56465e-05
-0.000155454
8.83016e-05
-0.000169201
9.03596e-05
-0.000183804
9.15565e-05
-0.000199224
9.15645e-05
-0.000215363
8.99834e-05
-0.000232042
8.63338e-05
-0.000248974
8.00545e-05
-0.000265725
7.05091e-05
-0.000281676
5.70077e-05
-0.000295984
3.88556e-05
-0.000307494
1.54847e-05
-0.000315258
-1.37629e-05
-0.000317121
-4.97747e-05
-0.00031141
-9.16084e-05
-0.000296296
-0.000138585
-0.000270163
-0.00018901
-0.000231974
-0.000240178
-0.000181644
-0.000288415
-0.000120454
-0.000329225
-5.12942e-05
-0.000357917
2.14882e-05
-0.000370608
9.27567e-05
-0.000365356
0.000157764
-0.000343056
0.000212967
-0.000306848
0.000256393
-0.000261169
0.000287563
-0.000210673
0.000307136
-0.000159437
0.000316526
-0.000110621
0.000317518
-6.63743e-05
0.000311884
-2.78311e-05
0.000301825
4.31342e-06
0.00028841
2.99557e-05
0.000272956
5.02098e-05
0.000256406
6.55128e-05
0.000239464
7.6553e-05
0.000222633
8.40381e-05
0.000206251
8.86384e-05
0.000190539
9.095e-05
0.000175621
9.14881e-05
0.000161552
9.06845e-05
0.000148349
8.88946e-05
0.000135999
8.64065e-05
0.000124464
8.34497e-05
0.000113698
8.02051e-05
0.000103647
7.68143e-05
9.4258e-05
7.33861e-05
8.54757e-05
7.00034e-05
7.72458e-05
6.67286e-05
6.95154e-05
6.3608e-05
6.22339e-05
6.06755e-05
5.5354e-05
5.79549e-05
4.88313e-05
5.54628e-05
4.26233e-05
5.32104e-05
3.66895e-05
5.12047e-05
3.0991e-05
4.94499e-05
2.54906e-05
4.79479e-05
2.01528e-05
4.66994e-05
1.49435e-05
4.5704e-05
9.82921e-06
4.49609e-05
4.78212e-06
4.44306e-05
4.21241e-05
-4.76935e-06
4.88713e-05
-9.80716e-06
5.15787e-05
-1.49144e-05
5.21983e-05
-2.0121e-05
5.30661e-05
-2.54621e-05
5.4229e-05
-3.09745e-05
5.56892e-05
-3.66966e-05
5.74475e-05
-4.26689e-05
5.95041e-05
-4.89344e-05
6.18581e-05
-5.55391e-05
6.45062e-05
-6.25324e-05
6.74422e-05
-6.99675e-05
7.06558e-05
-7.79025e-05
7.41303e-05
-8.64003e-05
7.78412e-05
-9.55297e-05
8.1753e-05
-0.000105365
8.5816e-05
-0.000115985
8.99614e-05
-0.000127476
9.40961e-05
-0.000139923
9.80952e-05
-0.000153414
0.000101793
-0.000168027
0.000104973
-0.000183826
0.000107355
-0.000200843
0.000108581
-0.000219061
0.0001082
-0.000238382
0.000105654
-0.000258594
0.000100267
-0.00027932
9.12355e-05
-0.000299957
7.7645e-05
-0.0003196
5.84986e-05
-0.000336906
3.27907e-05
-0.000350931
2.62438e-07
-0.000358745
-4.19592e-05
-0.000358137
-9.22146e-05
-0.000346391
-0.00015033
-0.000320893
-0.00021451
-0.000279633
-0.00028144
-0.000221828
-0.000346221
-0.000148635
-0.000402418
-6.37511e-05
-0.000442802
2.65946e-05
-0.000460954
0.00011461
-0.000453374
0.000193361
-0.000421809
0.00025804
-0.000371527
0.000306403
-0.000309531
0.000338437
-0.000242705
0.000355675
-0.000176673
0.000360555
-0.000115502
0.000355833
-6.16477e-05
0.000343868
-1.58674e-05
0.000327819
2.03625e-05
0.000308806
4.89695e-05
0.000288359
7.06541e-05
0.000267524
8.63461e-05
0.000247014
9.70616e-05
0.000227284
0.000103767
0.000208604
0.000107318
0.00019111
0.000108445
0.000174843
0.000107757
0.000159782
0.000105744
0.000145876
0.000102799
0.000133053
9.92293e-05
0.000121228
9.52752e-05
0.000110313
9.11201e-05
0.000100223
8.69038e-05
9.08782e-05
8.27312e-05
8.22031e-05
7.86801e-05
7.41268e-05
7.48072e-05
6.65837e-05
7.11532e-05
5.95137e-05
6.77468e-05
5.28622e-05
6.4607e-05
4.6579e-05
6.17462e-05
4.06175e-05
5.9172e-05
3.49343e-05
5.68881e-05
2.94886e-05
5.48956e-05
2.42418e-05
5.31945e-05
1.91575e-05
5.17833e-05
1.42011e-05
5.06598e-05
9.33901e-06
4.98221e-05
4.54313e-06
4.92255e-05
4.66667e-05
-4.49065e-06
5.33607e-05
-9.2348e-06
5.63214e-05
-1.40472e-05
5.70099e-05
-1.89577e-05
5.79763e-05
-2.40016e-05
5.92731e-05
-2.92158e-05
6.0904e-05
-3.46396e-05
6.28721e-05
-4.03147e-05
6.51802e-05
-4.62863e-05
6.78306e-05
-5.26032e-05
7.0824e-05
-5.93194e-05
7.41592e-05
-6.6494e-05
7.78312e-05
-7.41933e-05
8.18304e-05
-8.24911e-05
8.61398e-05
-9.14705e-05
9.07332e-05
-0.000101225
9.55709e-05
-0.000111858
0.000100596
-0.000123487
0.000105726
-0.000136239
0.000110848
-0.000150253
0.000115807
-0.000165671
0.000120391
-0.000182635
0.000124319
-0.000201269
0.000127216
-0.000221665
0.000128596
-0.000243845
0.000127835
-0.000267721
0.000124143
-0.000293032
0.000116548
-0.000319268
0.000103881
-0.000345564
8.47958e-05
-0.000370617
5.78446e-05
-0.000392092
2.17386e-05
-0.000408705
-2.53443e-05
-0.000415918
-8.50007e-05
-0.000410106
-0.000156144
-0.000387187
-0.00023743
-0.00034352
-0.000325107
-0.000276973
-0.000412768
-0.000188091
-0.0004913
-8.14443e-05
-0.000549449
3.38798e-05
-0.00057628
0.000145355
-0.00056485
0.000242595
-0.000519049
0.000319073
-0.000448003
0.000372513
-0.000362969
0.000403945
-0.000274138
0.000416466
-0.000189194
0.000414092
-0.000113129
0.000400805
-4.83614e-05
0.000380814
4.12213e-06
0.000356765
4.44078e-05
0.000330676
7.50567e-05
0.000304181
9.71479e-05
0.000278342
0.00011219
0.000253799
0.000121609
0.000230898
0.000126671
0.00020978
0.000128436
0.000190459
0.00012777
0.000172857
0.000125361
0.000156857
0.000121744
0.000142322
0.000117333
0.00012911
0.000112442
0.00011708
0.000107306
0.000106102
0.0001021
9.6054e-05
9.69519e-05
8.68297e-05
9.19563e-05
7.83321e-05
8.71791e-05
7.04741e-05
8.26667e-05
6.31779e-05
7.84505e-05
5.63742e-05
7.45506e-05
5.00015e-05
7.09792e-05
4.40046e-05
6.77426e-05
3.83333e-05
6.4843e-05
3.29415e-05
6.22797e-05
2.7787e-05
6.00501e-05
2.28301e-05
5.81513e-05
1.8034e-05
5.65791e-05
1.33641e-05
5.53293e-05
8.78665e-06
5.43988e-05
4.27388e-06
5.37375e-05
5.09403e-05
-4.18067e-06
5.75403e-05
-8.59787e-06
6.07378e-05
-1.30814e-05
6.14932e-05
-1.76605e-05
6.25557e-05
-2.23702e-05
6.39834e-05
-2.72472e-05
6.57819e-05
-3.23309e-05
6.79568e-05
-3.76639e-05
7.05141e-05
-4.32925e-05
7.346e-05
-4.92679e-05
7.68002e-05
-5.56475e-05
8.05393e-05
-6.24954e-05
8.46796e-05
-6.9885e-05
8.92202e-05
-7.78998e-05
9.41548e-05
-8.66359e-05
9.94695e-05
-9.62046e-05
0.00010514
-0.000106734
0.000111126
-0.000118374
0.000117366
-0.000131294
0.000123768
-0.000145687
0.000130201
-0.00016177
0.000136474
-0.000179774
0.000142323
-0.000199939
0.000147381
-0.000222495
0.000151152
-0.000247628
0.000152969
-0.000275436
0.000151952
-0.000305857
0.000146969
-0.000338559
0.000136583
-0.000372801
0.000119039
-0.000407238
9.22836e-05
-0.000439557
5.40593e-05
-0.000467762
2.86057e-06
-0.00048659
-6.6174e-05
-0.000490752
-0.000151982
-0.000473919
-0.000254262
-0.000429801
-0.000369224
-0.000353697
-0.000488872
-0.000244485
-0.000600512
-0.000107286
-0.000686649
4.46397e-05
-0.000728205
0.000189583
-0.000709791
0.000311797
-0.000641261
0.000402562
-0.000538767
0.000460266
-0.000420672
0.00048814
-0.000302012
0.000492017
-0.000193076
0.00047843
-9.95384e-05
0.000452887
-2.28217e-05
0.000421971
3.50442e-05
0.000387736
7.86497e-05
0.000352992
0.000109802
0.000319392
0.000130748
0.000287892
0.00014369
0.000258959
0.000150542
0.000232736
0.000152893
0.000209169
0.000152003
0.000188089
0.000148851
0.000169269
0.00014418
0.000152466
0.000138545
0.000137445
0.000132354
0.000123984
0.000125905
0.000111881
0.00011941
0.000100959
0.000113023
9.10617e-05
0.00010685
8.20548e-05
0.000100964
7.3821e-05
9.54135e-05
6.62585e-05
9.02298e-05
5.92782e-05
8.54308e-05
5.28027e-05
8.10254e-05
4.67647e-05
7.70162e-05
4.11046e-05
7.34018e-05
3.57695e-05
7.01776e-05
3.07116e-05
6.73373e-05
2.58875e-05
6.48742e-05
2.12573e-05
6.27815e-05
1.67843e-05
6.10519e-05
1.24339e-05
5.96795e-05
8.17323e-06
5.8659e-05
3.97504e-06
5.7935e-05
5.49151e-05
-3.8403e-06
6.13801e-05
-7.89813e-06
6.47959e-05
-1.20193e-05
6.56149e-05
-1.62323e-05
6.67696e-05
-2.05711e-05
6.83231e-05
-2.50716e-05
7.02834e-05
-2.97728e-05
7.26589e-05
-3.47172e-05
7.54591e-05
-3.99516e-05
7.86948e-05
-4.55283e-05
8.23772e-05
-5.15067e-05
8.65179e-05
-5.79548e-05
9.11277e-05
-6.49508e-05
9.62162e-05
-7.2586e-05
0.00010179
-8.09676e-05
0.000107851
-9.0222e-05
0.000114394
-0.0001005
0.000121403
-0.000111979
0.000128845
-0.000124873
0.000136662
-0.000139432
0.000144759
-0.000155947
0.000152989
-0.000174753
0.000161129
-0.000196222
0.000168851
-0.000220754
0.000175685
-0.00024875
0.000180965
-0.000280567
0.00018377
-0.000316443
0.000182845
-0.000356374
0.000176514
-0.000399931
0.000162599
-0.000446011
0.000138365
-0.000492518
0.000100567
-0.000535416
4.5758e-05
-0.000571936
-2.96553e-05
-0.000592196
-0.000131722
-0.000587477
-0.00025898
-0.000547302
-0.000409398
-0.000462192
-0.000573982
-0.00032716
-0.000735545
-0.000146438
-0.000867371
6.12808e-05
-0.00093592
0.000254979
-0.000903487
0.000410981
-0.000797263
0.00051817
-0.000645957
0.000577263
-0.000479764
0.000596026
-0.000320771
0.000584926
-0.000181978
0.000553464
-6.80663e-05
0.00051246
1.8179e-05
0.000466303
8.11982e-05
0.000419318
0.000125635
0.000374238
0.000154876
0.000332552
0.000172435
0.000294906
0.000181334
0.000261426
0.00018402
0.000231929
0.000182386
0.000206076
0.000177855
0.00018346
0.000171469
0.000163662
0.000163978
0.000146295
0.000155912
0.000131009
0.00014764
0.000117498
0.000139416
0.0001055
0.00013141
9.47893e-05
0.000123734
8.51777e-05
0.000116462
7.65057e-05
0.000109636
6.86379e-05
0.000103282
6.14595e-05
9.74082e-05
5.48724e-05
9.20173e-05
4.8793e-05
8.71036e-05
4.31495e-05
8.26585e-05
3.78796e-05
7.86708e-05
3.29286e-05
7.51281e-05
2.8248e-05
7.20178e-05
2.3794e-05
6.93282e-05
1.95271e-05
6.70483e-05
1.54116e-05
6.51674e-05
1.14133e-05
6.36776e-05
7.50081e-06
6.25712e-05
3.64777e-06
6.17877e-05
5.85629e-05
-3.47092e-06
6.4851e-05
-7.13843e-06
6.84647e-05
-1.08651e-05
6.93428e-05
-1.46782e-05
7.05839e-05
-1.861e-05
7.2256e-05
-2.26952e-05
7.43695e-05
-2.69716e-05
7.69358e-05
-3.14805e-05
7.99683e-05
-3.6268e-05
8.34825e-05
-4.13865e-05
8.74957e-05
-4.68959e-05
9.20271e-05
-5.28654e-05
9.70971e-05
-5.93764e-05
0.000102727
-6.65247e-05
0.000108938
-7.44248e-05
0.000115751
-8.32144e-05
0.000123184
-9.30608e-05
0.000131249
-0.000104168
0.000139952
-0.000116785
0.000149278
-0.000131216
0.000159189
-0.000147829
0.000169601
-0.000167065
0.000180365
-0.000189441
0.000191228
-0.000215553
0.000201798
-0.000246063
0.000211475
-0.000281664
0.000219372
-0.000323021
0.000224203
-0.00037064
0.000224135
-0.000424662
0.000216623
-0.000484536
0.000198238
-0.000548522
0.000164552
-0.000612934
0.00011017
-0.000672069
2.94795e-05
-0.000718327
-8.54623e-05
-0.000735858
-0.000241448
-0.000708468
-0.00043679
-0.000618262
-0.000664189
-0.000451881
-0.000901925
-0.000208402
-0.00111085
8.83736e-05
-0.0012327
0.000354638
-0.00116975
0.000556224
-0.00099885
0.000680265
-0.000769996
0.000733714
-0.000533208
0.000733407
-0.000320463
0.000697472
-0.000146046
0.000640337
-1.09316e-05
0.000576985
8.15367e-05
0.00051153
0.000146656
0.000449107
0.000188062
0.000392184
0.000211799
0.000341725
0.000222895
0.000297782
0.000225277
0.000259921
0.00022188
0.000227485
0.000214824
0.000199749
0.000205595
0.000176007
0.000195214
0.000155621
0.000184365
0.000138039
0.000173494
0.000122795
0.000162885
0.000109498
0.000152714
9.7828e-05
0.000143081
8.75186e-05
0.000134044
7.83527e-05
0.000125627
7.01509e-05
0.000117838
6.27639e-05
0.000110668
5.60676e-05
0.000104104
4.99577e-05
9.81263e-05
4.43468e-05
9.27134e-05
3.91606e-05
8.78435e-05
3.43358e-05
8.34947e-05
2.98175e-05
7.96459e-05
2.55575e-05
7.62776e-05
2.1513e-05
7.33727e-05
1.76458e-05
7.09156e-05
1.39213e-05
6.8892e-05
1.03067e-05
6.72922e-05
6.77248e-06
6.61054e-05
3.29359e-06
6.52667e-05
6.18569e-05
-3.07457e-06
6.79262e-05
-6.32282e-06
7.1715e-05
-9.6246e-06
7.26464e-05
-1.30053e-05
7.39661e-05
-1.64955e-05
7.57472e-05
-2.01278e-05
7.80024e-05
-2.39378e-05
8.0746e-05
-2.79649e-05
8.39952e-05
-3.22533e-05
8.77705e-05
-3.68535e-05
9.20956e-05
-4.18241e-05
9.69975e-05
-4.72337e-05
0.000102506
-5.31634e-05
0.000108656
-5.97099e-05
0.000115484
-6.69902e-05
0.000123031
-7.51474e-05
0.000131341
-8.43582e-05
0.00014046
-9.48432e-05
0.000150436
-0.000106879
0.000161313
-0.000120813
0.000173123
-0.000137083
0.000185871
-0.00015623
0.000199511
-0.000178918
0.000213916
-0.000205952
0.000228831
-0.000238285
0.000243807
-0.00027702
0.000258108
-0.000323375
0.000270559
-0.000378584
0.000279345
-0.000443688
0.000281727
-0.000519153
0.000273702
-0.000604236
0.000249633
-0.000696034
0.000201968
-0.000787682
0.000121128
-0.00087282
-3.25733e-07
-0.000928571
-0.0001857
-0.000930362
-0.000435001
-0.000846735
-0.000747816
-0.000646999
-0.00110166
-0.000312464
-0.00144538
0.00013602
-0.00168118
0.00051251
-0.00154624
0.000773962
-0.0012603
0.000909968
-0.000906006
0.000942775
-0.000566013
0.000906133
-0.000283818
0.000828414
-6.83212e-05
0.000738729
7.87464e-05
0.000643738
0.000176525
0.000554027
0.000236363
0.000473573
0.000268509
0.000403769
0.000281605
0.00034443
0.000282234
0.000294595
0.000275112
0.000252998
0.000263477
0.00021834
0.000249482
0.00018942
0.000234517
0.00016519
0.000219446
0.000144769
0.000204785
0.000127441
0.000190822
0.000112628
0.000177698
9.98684e-05
0.000165474
8.87911e-05
0.000154158
7.91012e-05
0.000143732
7.05615e-05
0.000134166
6.29795e-05
0.000125419
5.61979e-05
0.000117449
5.00879e-05
0.000110214
4.45429e-05
0.00010367
3.94749e-05
9.77804e-05
3.48099e-05
9.25077e-05
3.04854e-05
8.78186e-05
2.6448e-05
8.36829e-05
2.26513e-05
8.00742e-05
1.90546e-05
7.69695e-05
1.56219e-05
7.43483e-05
1.23204e-05
7.21937e-05
9.11975e-06
7.04932e-05
5.99231e-06
6.92333e-05
2.91443e-06
6.83453e-05
6.4772e-05
-2.65428e-06
7.05817e-05
-5.45691e-06
7.45202e-05
-8.30541e-06
7.54968e-05
-1.12234e-05
7.68855e-05
-1.42393e-05
7.87638e-05
-1.7383e-05
8.11462e-05
-2.06872e-05
8.40498e-05
-2.41879e-05
8.74954e-05
-2.79262e-05
9.15083e-05
-3.19493e-05
9.61183e-05
-3.63125e-05
0.00010136
-4.10809e-05
0.000107275
-4.63321e-05
0.000113908
-5.21595e-05
0.000121312
-5.86767e-05
0.000129549
-6.60242e-05
0.000138689
-7.43783e-05
0.000148814
-8.39633e-05
0.00016002
-9.50675e-05
0.000172416
-0.000108067
0.000186121
-0.000123449
0.000201252
-0.000141842
0.000217902
-0.000164037
0.000236111
-0.000191036
0.000255829
-0.00022409
0.000276861
-0.000264751
0.000298769
-0.000314895
0.000320704
-0.000376704
0.000341153
-0.000452518
0.000357539
-0.000544484
0.000365667
-0.000653855
0.000359004
-0.000779784
0.000327898
-0.000917683
0.000259026
-0.0010532
0.000135185
-0.00117497
-6.3927e-05
-0.00123504
-0.000374936
-0.00118544
-0.000797413
-0.000959675
-0.00132742
-0.000485514
-0.00191953
0.000221776
-0.00238842
0.000771477
-0.00209593
0.00110807
-0.00159689
0.00123772
-0.00103565
0.00121988
-0.000548172
0.00111632
-0.000180258
0.000982293
6.57029e-05
0.000840061
0.000220974
0.000705869
0.000310718
0.000587644
0.00035459
0.000487603
0.000368547
0.000404978
0.000364231
0.00033766
0.000349552
0.000283168
0.000329601
0.000239124
0.000307519
0.000203443
0.000285162
0.000174388
0.000263573
0.000150548
0.000243284
0.000130814
0.000224518
0.00011432
0.000207313
0.000100403
0.000191614
8.85498e-05
0.000177326
7.83626e-05
0.000164344
6.95312e-05
0.000152563
6.18108e-05
0.000141886
5.50059e-05
0.000132224
4.89587e-05
0.000123496
4.35416e-05
0.00011563
3.86503e-05
0.000108561
3.41994e-05
0.000102231
3.01183e-05
9.65883e-05
2.63478e-05
9.15888e-05
2.28378e-05
8.71928e-05
1.9545e-05
8.33669e-05
1.64322e-05
8.00823e-05