/*--------------------------------*- C++ -*----------------------------------*\
| =========                 |                                                 |
| \\      /  F ield         | OpenFOAM: The Open Source CFD Toolbox           |
|  \\    /   O peration     | Version:  2412                                  |
|   \\  /    A nd           | Website:  www.openfoam.com                      |
|    \\/     M anipulation  |                                                 |
\*---------------------------------------------------------------------------*/
FoamFile
{
    version     2.0;
    format      ascii;
    arch        "LSB;label=32;scalar=64";
    class       surfaceScalarField;
    location    "0.65";
    object      phi;
}
// * * * * * * * * * * * * * * * * * * * * * * * * * * * * * * * * * * * * * //

dimensions      [0 3 -1 0 0 0 0];

oriented        oriented;

internalField   nonuniform List<scalar> 
12640
(
-6.01885e-06
6.01885e-06
-1.2349e-05
6.33002e-06
-1.87567e-05
6.40762e-06
-2.52625e-05
6.50553e-06
-3.18959e-05
6.63287e-06
-3.86869e-05
6.79031e-06
-4.5665e-05
6.97725e-06
-5.28583e-05
7.19241e-06
-6.0293e-05
7.43392e-06
-6.79928e-05
7.69916e-06
-7.59779e-05
7.98462e-06
-8.4264e-05
8.28571e-06
-9.28607e-05
8.59642e-06
-0.00010177
8.90908e-06
-0.000110985
9.214e-06
-0.000120484
9.49906e-06
-0.000130235
9.74933e-06
-0.000140182
9.9466e-06
-0.000150252
1.0069e-05
-0.000160344
1.00905e-05
-0.000170326
9.98107e-06
-0.000180032
9.7062e-06
-0.000189259
9.2276e-06
-0.000197763
8.50388e-06
-0.000205254
7.49205e-06
-0.000211403
6.14975e-06
-0.000215842
4.43848e-06
-0.00021817
2.32819e-06
-0.000218008
-1.62118e-07
-0.000214835
-3.17385e-06
-0.000208311
-6.52395e-06
-0.000198112
-1.02e-05
-0.000184002
-1.4111e-05
-0.000165876
-1.81254e-05
-0.000143801
-2.20759e-05
-0.000118033
-2.57675e-05
-8.90414e-05
-2.89913e-05
-5.74964e-05
-3.15443e-05
-2.42439e-05
-3.32517e-05
9.74751e-06
-3.39905e-05
4.34551e-05
-3.37066e-05
7.58769e-05
-3.24205e-05
0.000106104
-3.02256e-05
0.000133382
-2.72761e-05
0.000157149
-2.37654e-05
0.000177052
-1.99023e-05
0.000192944
-1.58905e-05
0.000204857
-1.19113e-05
0.000212971
-8.11199e-06
0.000217575
-4.60162e-06
0.000219015
-1.43819e-06
0.000217745
1.27206e-06
0.000214188
3.55801e-06
0.000208752
5.43735e-06
0.000201822
6.93259e-06
0.000193742
8.07949e-06
0.000184821
8.91889e-06
0.000175325
9.49428e-06
0.000165476
9.84823e-06
0.000155456
1.00199e-05
0.000145411
1.00448e-05
0.000135454
9.95571e-06
0.000125672
9.78085e-06
0.000116127
9.54392e-06
0.000106862
9.26464e-06
9.79036e-05
8.95902e-06
8.92646e-05
8.63994e-06
8.09469e-05
8.31791e-06
7.29444e-05
8.00157e-06
6.52449e-05
7.69784e-06
5.78311e-05
7.41204e-06
5.06817e-05
7.14813e-06
4.37724e-05
6.90903e-06
3.70761e-05
6.69685e-06
3.0564e-05
6.51313e-06
2.42062e-05
6.35894e-06
1.79723e-05
6.23461e-06
1.18332e-05
6.1391e-06
5.76893e-06
6.06347e-06
5.76751e-06
-6.27198e-06
1.22907e-05
-1.29256e-05
1.29833e-05
-1.96445e-05
1.31259e-05
-2.64623e-05
1.33224e-05
-3.34141e-05
1.35834e-05
-4.05329e-05
1.39078e-05
-4.78507e-05
1.42936e-05
-5.53978e-05
1.47381e-05
-6.32027e-05
1.52377e-05
-7.12913e-05
1.57869e-05
-7.96862e-05
1.63788e-05
-8.84054e-05
1.70043e-05
-9.74609e-05
1.76512e-05
-0.000106857
1.83043e-05
-0.000116588
1.8944e-05
-0.000126637
1.95458e-05
-0.000136969
2.00796e-05
-0.000147532
2.05081e-05
-0.000158251
2.07866e-05
-0.000169023
2.08618e-05
-0.000179714
2.06714e-05
-0.000190151
2.0144e-05
-0.000200122
1.91997e-05
-0.00020937
1.7752e-05
-0.000217587
1.57103e-05
-0.000224422
1.29848e-05
-0.000229477
9.49324e-06
-0.000232321
5.17217e-06
-0.000232543
5.8617e-08
-0.000229598
-6.12003e-06
-0.000223061
-1.30615e-05
-0.00021255
-2.07116e-05
-0.000197781
-2.88807e-05
-0.000178612
-3.7294e-05
-0.000155085
-4.56024e-05
-0.000127461
-5.33914e-05
-9.6238e-05
-6.02128e-05
-6.21542e-05
-6.56268e-05
-2.61516e-05
-6.92527e-05
1.06808e-05
-7.08211e-05
4.71885e-05
-7.02123e-05
8.22428e-05
-6.74729e-05
0.000114827
-6.28081e-05
0.000144108
-5.65553e-05
0.000169479
-4.91344e-05
0.000190575
-4.09954e-05
0.00020726
-3.25736e-05
0.000219601
-2.42504e-05
0.000227826
-1.63347e-05
0.000232279
-9.05242e-06
0.000233361
-2.51752e-06
0.000231611
3.02355e-06
0.000227464
7.70515e-06
0.000221357
1.15432e-05
0.000213705
1.45838e-05
0.000204881
1.69024e-05
0.000195212
1.85864e-05
0.000184977
1.9727e-05
0.00017441
2.04135e-05
0.000163699
2.07284e-05
0.000152995
2.0747e-05
0.000142414
2.05361e-05
0.000132042
2.01527e-05
0.000121942
1.96448e-05
0.000112155
1.90524e-05
0.000102705
1.84085e-05
9.3604e-05
1.77398e-05
8.48514e-05
1.70683e-05
7.6439e-05
1.64111e-05
6.83523e-05
1.57819e-05
6.05717e-05
1.5191e-05
5.30735e-05
1.4646e-05
4.58309e-05
1.41526e-05
3.88146e-05
1.37148e-05
3.19937e-05
1.33357e-05
2.53358e-05
1.30177e-05
1.8808e-05
1.27623e-05
1.23759e-05
1.25698e-05
6.00671e-06
1.24304e-05
1.17732e-05
-6.22193e-06
1.85125e-05
-1.28062e-05
1.95673e-05
-1.94636e-05
1.97827e-05
-2.62219e-05
2.008e-05
-3.31156e-05
2.04761e-05
-4.01783e-05
2.09692e-05
-4.74426e-05
2.15567e-05
-5.49401e-05
2.22345e-05
-6.27006e-05
2.29972e-05
-7.07519e-05
2.38374e-05
-7.91187e-05
2.47451e-05
-8.78219e-05
2.57069e-05
-9.68769e-05
2.67055e-05
-0.000106292
2.77186e-05
-0.000116067
2.87178e-05
-0.00012619
2.96671e-05
-0.000136633
3.05218e-05
-0.000147353
3.12269e-05
-0.000158283
3.17155e-05
-0.000169328
3.19073e-05
-0.000180365
3.17081e-05
-0.00019123
3.10089e-05
-0.000201717
2.96871e-05
-0.000211572
2.76077e-05
-0.00022049
2.46283e-05
-0.00022811
2.06051e-05
-0.000234021
1.54038e-05
-0.000237765
8.91657e-06
-0.000238839
1.13268e-06
-0.000236737
-8.2228e-06
-0.000230907
-1.88912e-05
-0.000220901
-3.07175e-05
-0.000206355
-4.34263e-05
-0.000187053
-5.6596e-05
-0.000162978
-6.96778e-05
-0.000134357
-8.20112e-05
-0.000101703
-9.28669e-05
-6.58103e-05
-0.000101519
-2.77313e-05
-0.000107331
1.12971e-05
-0.000109849
4.99547e-05
-0.00010887
8.69538e-05
-0.000104472
0.000121149
-9.70043e-05
0.000151625
-8.7032e-05
0.000177743
-7.52524e-05
0.000199149
-6.24034e-05
0.00021576
-4.91855e-05
0.000227709
-3.62011e-05
0.000235307
-2.39338e-05
0.000238978
-1.2725e-05
0.000239165
-2.70672e-06
0.000236526
5.66024e-06
0.000231503
1.27253e-05
0.000224578
1.84672e-05
0.000216187
2.29749e-05
0.000206714
2.63749e-05
0.000196489
2.88097e-05
0.000185789
3.04249e-05
0.00017484
3.13605e-05
0.000163825
3.17439e-05
0.000152885
3.16894e-05
0.000142124
3.12977e-05
0.000131622
3.06552e-05
0.000121431
2.98341e-05
0.000111587
2.88947e-05
0.000102107
2.78859e-05
9.29975e-05
2.68471e-05
8.4254e-05
2.58097e-05
7.58643e-05
2.47989e-05
6.78108e-05
2.3834e-05
6.0071e-05
2.293e-05
5.26193e-05
2.20979e-05
4.54274e-05
2.13455e-05
3.8465e-05
2.06787e-05
3.16999e-05
2.01021e-05
2.50994e-05
1.96188e-05
1.86301e-05
1.92311e-05
1.22585e-05
1.89401e-05
5.95714e-06
1.87299e-05
1.77294e-05
-6.12881e-06
2.46412e-05
-1.26103e-05
2.60485e-05
-1.91667e-05
2.63385e-05
-2.58259e-05
2.67385e-05
-3.26226e-05
2.72718e-05
-3.9591e-05
2.79366e-05
-4.67651e-05
2.87296e-05
-5.41777e-05
2.96461e-05
-6.18608e-05
3.06795e-05
-6.98448e-05
3.18207e-05
-7.81577e-05
3.30573e-05
-8.68242e-05
3.43728e-05
-9.5865e-05
3.57456e-05
-0.000105295
3.71474e-05
-0.00011512
3.85422e-05
-0.000125337
3.98839e-05
-0.000135931
4.1115e-05
-0.000146869
4.21638e-05
-0.000158096
4.29426e-05
-0.000169534
4.33454e-05
-0.000181072
4.32463e-05
-0.000192561
4.24983e-05
-0.000203808
4.09335e-05
-0.000214565
3.83653e-05
-0.000224529
3.45924e-05
-0.000233331
2.94074e-05
-0.000240538
2.26104e-05
-0.000245651
1.403e-05
-0.000248106
3.5887e-06
-0.000247353
-8.97529e-06
-0.000242694
-2.35495e-05
-0.000233567
-3.98445e-05
-0.000219475
-5.75173e-05
-0.000200074
-7.59973e-05
-0.00017524
-9.45117e-05
-0.00014514
-0.000112111
-0.000110291
-0.000127716
-7.15785e-05
-0.000140232
-3.02316e-05
-0.000148679
1.22665e-05
-0.000152349
5.43157e-05
-0.000150921
9.43622e-05
-0.000144521
0.00013105
-0.000133694
0.000163331
-0.000119316
0.000190526
-0.000102449
0.000212314
-8.41939e-05
0.000228698
-6.5572e-05
0.000239936
-4.74412e-05
0.00024647
-3.0471e-05
0.000248858
-1.5116e-05
0.000247648
-1.49681e-06
0.000243631
9.67705e-06
0.000237269
1.90848e-05
0.000229102
2.66321e-05
0.000219601
3.24776e-05
0.000209161
3.68169e-05
0.000198115
3.98588e-05
0.000186732
4.18093e-05
0.00017523
4.28637e-05
0.000163776
4.31983e-05
0.000152497
4.29685e-05
0.000141485
4.23096e-05
0.000130804
4.13357e-05
0.000120494
4.01422e-05
0.000110579
3.88074e-05
0.000101069
3.73944e-05
9.19611e-05
3.59538e-05
8.3244e-05
3.45257e-05
7.49003e-05
3.31418e-05
6.69073e-05
3.18265e-05
5.9239e-05
3.05981e-05
5.1867e-05
2.94701e-05
4.4761e-05
2.84524e-05
3.78886e-05
2.75522e-05
3.12167e-05
2.67749e-05
2.47115e-05
2.61242e-05
1.83394e-05
2.56027e-05
1.20668e-05
2.52114e-05
5.86592e-06
2.49291e-05
2.35947e-05
-6.00061e-06
3.06416e-05
-1.23461e-05
3.23936e-05
-1.8767e-05
3.2759e-05
-2.52925e-05
3.32633e-05
-3.19578e-05
3.39362e-05
-3.87981e-05
3.4776e-05
-4.58487e-05
3.57793e-05
-5.31446e-05
3.6941e-05
-6.07201e-05
3.82542e-05
-6.86089e-05
3.97087e-05
-7.68431e-05
4.12907e-05
-8.54528e-05
4.29818e-05
-9.44649e-05
4.4757e-05
-0.000103902
4.65841e-05
-0.000113781
4.84207e-05
-0.00012411
5.02129e-05
-0.000134888
5.18922e-05
-0.000146096
5.33726e-05
-0.000157701
5.45477e-05
-0.000169643
5.52875e-05
-0.000181832
5.54355e-05
-0.000194141
5.48066e-05
-0.000206393
5.31859e-05
-0.000218358
5.03301e-05
-0.000229737
4.59715e-05
-0.000240156
3.98264e-05
-0.000249156
3.16109e-05
-0.000256191
2.10665e-05
-0.00026062
8.01877e-06
-0.000261832
-7.76272e-06
-0.000258927
-2.6453e-05
-0.000251173
-4.7598e-05
-0.000237878
-7.08114e-05
-0.000218494
-9.53801e-05
-0.000192727
-0.000120279
-0.000160628
-0.000144209
-0.000122702
-0.000165644
-7.99523e-05
-0.000182982
-3.38713e-05
-0.000194762
1.36772e-05
-0.000199899
6.06543e-05
-0.0001979
0.000105091
-0.000188959
0.000145311
-0.000173915
0.000180083
-0.000154089
0.000208679
-0.000131046
0.000230854
-0.000106369
0.000246758
-8.14764e-05
0.000256842
-5.75254e-05
0.000261745
-3.53753e-05
0.000262185
-1.55571e-05
0.000259109
1.58056e-06
0.000253084
1.57042e-05
0.000244847
2.73231e-05
0.000234973
3.65064e-05
0.000223961
4.34923e-05
0.000212221
4.85611e-05
0.000200081
5.20017e-05
0.000187799
5.40919e-05
0.000175575
5.5088e-05
0.000163555
5.52175e-05
0.000151846
5.4678e-05
0.000140517
5.36379e-05
0.000129615
5.22377e-05
0.000119162
5.05937e-05
0.000109169
4.87999e-05
9.96303e-05
4.69318e-05
9.05346e-05
4.5049e-05
8.18615e-05
4.31986e-05
7.35858e-05
4.14175e-05
6.56792e-05
3.97332e-05
5.81111e-05
3.81663e-05
5.08495e-05
3.6732e-05
4.38611e-05
3.54415e-05
3.71114e-05
3.43026e-05
3.05659e-05
3.33209e-05
2.41898e-05
3.25003e-05
1.79488e-05
3.18431e-05
1.18085e-05
3.13507e-05
5.74063e-06
3.09958e-05
2.93349e-05
-5.83826e-06
3.64797e-05
-1.20127e-05
3.85678e-05
-1.82632e-05
3.90091e-05
-2.46196e-05
3.96192e-05
-3.1118e-05
4.04339e-05
-3.77949e-05
4.14521e-05
-4.46871e-05
4.26706e-05
-5.18318e-05
4.40849e-05
-5.92662e-05
4.56878e-05
-6.70277e-05
4.74694e-05
-7.51532e-05
4.94155e-05
-8.36791e-05
5.1507e-05
-9.264e-05
5.37174e-05
-0.000102068
5.60121e-05
-0.000111993
5.8345e-05
-0.000122436
6.06567e-05
-0.000133414
6.28705e-05
-0.00014493
6.48892e-05
-0.000156972
6.65909e-05
-0.000169508
6.78242e-05
-0.000182477
6.84046e-05
-0.00019578
6.81097e-05
-0.000209272
6.66769e-05
-0.000222744
6.3802e-05
-0.000235914
5.91418e-05
-0.000248408
5.23216e-05
-0.000259747
4.29505e-05
-0.000269328
3.06489e-05
-0.000276407
1.50989e-05
-0.000280406
-3.76207e-06
-0.000279988
-2.68697e-05
-0.000274294
-5.3291e-05
-0.000262337
-8.27681e-05
-0.000243261
-0.000114455
-0.000216492
-0.000147048
-0.000181883
-0.000178819
-0.000139875
-0.000207652
-9.1613e-05
-0.000231245
-3.89595e-05
-0.000247416
1.56483e-05
-0.000254507
6.9495e-05
-0.000251746
0.00011998
-0.000239444
0.000164959
-0.000218893
0.000202953
-0.000192083
0.000233212
-0.000161303
0.00025563
-0.000128787
0.000270611
-9.64556e-05
0.000278906
-6.58196e-05
0.000281455
-3.79242e-05
0.000279191
-1.3294e-05
0.000273406
7.36713e-06
0.000264758
2.4356e-05
0.000254069
3.80144e-05
0.000241991
4.85837e-05
0.000229057
5.64262e-05
0.000215685
6.19354e-05
0.000202191
6.54971e-05
0.000188812
6.74714e-05
0.000175718
6.81816e-05
0.000163027
6.79083e-05
0.000150815
6.68906e-05
0.000139124
6.53282e-05
0.000127976
6.33855e-05
0.000117372
6.11962e-05
0.000107303
5.88676e-05
9.775e-05
5.64844e-05
8.86863e-05
5.41126e-05
8.00815e-05
5.18039e-05
7.19021e-05
4.95976e-05
6.41127e-05
4.75233e-05
5.66772e-05
4.56023e-05
4.95593e-05
4.38503e-05
4.27223e-05
4.22787e-05
3.61297e-05
4.08955e-05
2.97451e-05
3.97056e-05
2.35327e-05
3.87125e-05
1.7457e-05
3.79183e-05
1.14832e-05
3.73238e-05
5.58232e-06
3.6896e-05
3.49172e-05
-5.64182e-06
4.21214e-05
-1.16095e-05
4.45352e-05
-1.76536e-05
4.50528e-05
-2.38047e-05
4.57698e-05
-3.00997e-05
4.67284e-05
-3.65763e-05
4.79281e-05
-4.3273e-05
4.93666e-05
-5.02291e-05
5.10403e-05
-5.74851e-05
5.2943e-05
-6.50823e-05
5.50658e-05
-7.3063e-05
5.73955e-05
-8.14703e-05
5.99136e-05
-9.03477e-05
6.25944e-05
-9.97386e-05
6.54029e-05
-0.000109685
6.82922e-05
-0.000120228
7.12002e-05
-0.000131403
7.40462e-05
-0.000143238
7.67256e-05
-0.000155751
7.91053e-05
-0.000168944
8.10173e-05
-0.000182792
8.22528e-05
-0.000197237
8.25553e-05
-0.000212175
8.16152e-05
-0.000227438
7.90651e-05
-0.000242775
7.4479e-05
-0.00025783
6.73769e-05
-0.000272117
5.72381e-05
-0.000284996
4.35292e-05
-0.000295652
2.57561e-05
-0.00030308
3.66711e-06
-0.000306269
-2.36788e-05
-0.000303643
-5.59158e-05
-0.000293871
-9.25397e-05
-0.000275668
-0.000132657
-0.000248022
-0.000174694
-0.000210443
-0.000216398
-0.000163205
-0.00025489
-0.00010759
-0.00028686
-4.59682e-05
-0.000309037
1.83615e-05
-0.000318836
8.16329e-05
-0.000315016
0.000140283
-0.000298093
0.000191492
-0.0002701
0.000233479
-0.000234068
0.000265524
-0.000193348
0.000287797
-0.000151061
0.00030111
-0.000109768
0.000306675
-7.13826e-05
0.000305871
-3.71203e-05
0.00029991
-7.33526e-06
0.000290543
1.67346e-05
0.000278488
3.64142e-05
0.000264691
5.18128e-05
0.000249877
6.33969e-05
0.000234603
7.17002e-05
0.000219277
7.72622e-05
0.000204191
8.05847e-05
0.000189543
8.21204e-05
0.000175461
8.22635e-05
0.000162022
8.13477e-05
0.000149262
7.96509e-05
0.00013719
7.74008e-05
0.000125793
7.47814e-05
0.000115048
7.19396e-05
0.000104924
6.89913e-05
9.53809e-05
6.60265e-05
8.63795e-05
6.31144e-05
7.78764e-05
6.03079e-05
6.98283e-05
5.76469e-05
6.21922e-05
5.51604e-05
5.49258e-05
5.28692e-05
4.79881e-05
5.07882e-05
4.1339e-05
4.89278e-05
3.49397e-05
4.72948e-05
2.87519e-05
4.58933e-05
2.27386e-05
4.47258e-05
1.68633e-05
4.37934e-05
1.10906e-05
4.30964e-05
5.39123e-06
4.25953e-05
4.03088e-05
-5.41114e-06
4.75324e-05
-1.1136e-05
5.02599e-05
-1.69372e-05
5.08537e-05
-2.28459e-05
5.16783e-05
-2.88999e-05
5.2782e-05
-3.51377e-05
5.41655e-05
-4.15993e-05
5.58278e-05
-4.83265e-05
5.77668e-05
-5.53626e-05
5.99784e-05
-6.27532e-05
6.24556e-05
-7.0546e-05
6.51876e-05
-7.87913e-05
6.81583e-05
-8.75417e-05
7.13447e-05
-9.68527e-05
7.47141e-05
-0.000106782
7.8222e-05
-0.000117388
8.18079e-05
-0.000128731
8.53908e-05
-0.000140869
8.88647e-05
-0.000153853
9.20909e-05
-0.000167726
9.48913e-05
-0.000182512
9.70391e-05
-0.000198206
9.82497e-05
-0.000214761
9.81705e-05
-0.000232068
9.63721e-05
-0.00024993
9.23414e-05
-0.000268032
8.54798e-05
-0.000285905
7.51112e-05
-0.00030288
6.05053e-05
-0.000318056
4.09324e-05
-0.000330196
1.58083e-05
-0.000338325
-1.55489e-05
-0.000340102
-5.41387e-05
-0.000333782
-9.88596e-05
-0.000317442
-0.000148996
-0.000289383
-0.000202753
-0.000248516
-0.000257266
-0.000194751
-0.000308655
-0.000129439
-0.000352172
-5.56241e-05
-0.00038285
2.20974e-05
-0.000396556
9.8277e-05
-0.000391195
0.00016787
-0.000367685
0.000227093
-0.000329323
0.000273824
-0.000280801
0.000307524
-0.000227048
0.000328862
-0.000172399
0.000339314
-0.000120221
0.000340754
-7.28193e-05
0.000335076
-3.14405e-05
0.000324524
3.21404e-06
0.000310378
3.08788e-05
0.000293978
5.28161e-05
0.000276343
6.94495e-05
0.000258237
8.1503e-05
0.00024021
8.97275e-05
0.000222638
9.48366e-05
0.000205758
9.74665e-05
0.00018971
9.8169e-05
0.000174565
9.74097e-05
0.00016034
9.55724e-05
0.000147024
9.2968e-05
0.000134579
8.98457e-05
0.000122958
8.64024e-05
0.000112105
8.27921e-05
0.000101962
7.91336e-05
9.24714e-05
7.55174e-05
8.35749e-05
7.20118e-05
7.52165e-05
6.86677e-05
6.73424e-05
6.55224e-05
5.99015e-05
6.26024e-05
5.28453e-05
5.99259e-05
4.61278e-05
5.75055e-05
3.97058e-05
5.53494e-05
3.35378e-05
5.34624e-05
2.75842e-05
5.18468e-05
2.18062e-05
5.05037e-05
1.61671e-05
4.94327e-05
1.06307e-05
4.86331e-05
5.16733e-06
4.80593e-05
4.54767e-05
-5.14614e-06
5.26785e-05
-1.05918e-05
5.57054e-05
-1.61132e-05
5.6375e-05
-2.1742e-05
5.7307e-05
-2.75161e-05
5.8556e-05
-3.34751e-05
6.01242e-05
-3.96601e-05
6.20126e-05
-4.61149e-05
6.42212e-05
-5.28856e-05
6.67486e-05
-6.00217e-05
6.9591e-05
-6.75762e-05
7.27414e-05
-7.56065e-05
7.61881e-05
-8.41746e-05
7.99128e-05
-9.33481e-05
8.38882e-05
-0.000103201
8.80755e-05
-0.000113811
9.24202e-05
-0.000125266
9.68471e-05
-0.000137654
0.000101255
-0.000151068
0.000105506
-0.000165599
0.000109423
-0.000181328
0.000112769
-0.00019832
0.000115242
-0.000216603
0.000116455
-0.000236153
0.000115923
-0.000256859
0.000113047
-0.000278484
0.000107105
-0.000300614
9.72415e-05
-0.000322594
8.24857e-05
-0.000343445
6.17831e-05
-0.000361701
3.40645e-05
-0.00037657
-6.79403e-07
-0.000384591
-4.61177e-05
-0.000383639
-9.98127e-05
-0.000370827
-0.000161809
-0.000343403
-0.000230178
-0.00029926
-0.00030141
-0.000237572
-0.000370343
-0.000159547
-0.000430195
-6.90674e-05
-0.00047333
2.73013e-05
-0.000492925
0.000121295
-0.00048519
0.000205552
-0.000451943
0.000274937
-0.00039871
0.000327027
-0.000332891
0.000361764
-0.000261784
0.000380726
-0.000191363
0.000386472
-0.000125966
0.000381891
-6.82352e-05
0.000369487
-1.90336e-05
0.000352613
2.00857e-05
0.000332472
5.10163e-05
0.000310723
7.45658e-05
0.000288484
9.16882e-05
0.000266534
0.000103453
0.000245377
0.000110885
0.000225314
0.000114901
0.000206497
0.000116285
0.00018898
0.000115687
0.000172749
0.00011364
0.000157753
0.000110569
0.000143914
0.000106807
0.000131145
0.000102615
0.000119354
9.81941e-05
0.000108451
9.3696e-05
9.83492e-05
8.9236e-05
8.89682e-05
8.48995e-05
8.02325e-05
8.0749e-05
7.20722e-05
7.68296e-05
6.44229e-05
7.3173e-05
5.72254e-05
6.98005e-05
5.04251e-05
6.67262e-05
4.39716e-05
6.39585e-05
3.78184e-05
6.1502e-05
3.19219e-05
5.93585e-05
2.62406e-05
5.7528e-05
2.07353e-05
5.60094e-05
1.53684e-05
5.48003e-05
1.01035e-05
5.38988e-05
4.91065e-06
5.32532e-05
5.03881e-05
-4.84699e-06
5.75254e-05
-9.97724e-06
6.08356e-05
-1.51819e-05
6.15796e-05
-2.04927e-05
6.26177e-05
-2.59475e-05
6.40108e-05
-3.15863e-05
6.5763e-05
-3.74512e-05
6.78774e-05
-4.35873e-05
7.03571e-05
-5.00431e-05
7.3204e-05
-5.68715e-05
7.64189e-05
-6.41302e-05
7.99997e-05
-7.1883e-05
8.39408e-05
-8.02011e-05
8.8231e-05
-8.91637e-05
9.28515e-05
-9.88602e-05
9.77731e-05
-0.000109391
0.000102952
-0.000120867
0.000108325
-0.000133414
0.000113803
-0.000147168
0.000119262
-0.000162274
0.000124531
-0.000178884
0.000129381
-0.000197145
0.000133504
-0.000217186
0.000136496
-0.000239095
0.000137832
-0.000262886
0.000136839
-0.000288454
0.000132672
-0.000315505
0.000124293
-0.000343479
0.000110459
-0.000371444
8.97487e-05
-0.000398024
6.06436e-05
-0.000420544
2.18398e-05
-0.000437963
-2.87001e-05
-0.000445263
-9.25154e-05
-0.000438674
-0.0001684
-0.000413921
-0.000254931
-0.000367194
-0.000348138
-0.000296253
-0.000441283
-0.000201649
-0.000524799
-8.81455e-05
-0.000586833
3.47147e-05
-0.000615786
0.00015364
-0.000604117
0.00025762
-0.000555923
0.000339675
-0.000480765
0.000397323
-0.000390538
0.000431592
-0.00029605
0.000445696
-0.000205468
0.000443853
-0.000124125
0.000430296
-5.46771e-05
0.00040927
1.99271e-06
0.000383918
4.54366e-05
0.000356227
7.8706e-05
0.00032799
0.000102802
0.000300363
0.000119315
0.000274057
0.000129758
0.000249464
0.000135479
0.000226752
0.000137615
0.000205942
0.000137095
0.000186965
0.000134664
0.000169701
0.000130903
0.000154008
0.000126262
0.000139735
0.000121081
0.000126733
0.000115618
0.000114863
0.000110066
0.000103995
0.000104564
9.40158e-05
9.92169e-05
8.48199e-05
9.4097e-05
7.63145e-05
8.92561e-05
6.84162e-05
8.47293e-05
6.10507e-05
8.05394e-05
5.41511e-05
7.67005e-05
4.76572e-05
7.32198e-05
4.15148e-05
7.01003e-05
3.56745e-05
6.73417e-05
3.00909e-05
6.4942e-05
2.47214e-05
6.28978e-05
1.95262e-05
6.12053e-05
1.44676e-05
5.986e-05
9.50937e-06
5.88584e-05
4.62143e-06
5.81426e-05
5.50104e-05
-4.51421e-06
6.20396e-05
-9.29325e-06
6.56146e-05
-1.41444e-05
6.64308e-05
-1.90991e-05
6.75726e-05
-2.41948e-05
6.91067e-05
-2.94712e-05
7.10397e-05
-3.49709e-05
7.33773e-05
-4.07398e-05
7.6126e-05
-4.68279e-05
7.9292e-05
-5.32905e-05
8.28813e-05
-6.01893e-05
8.68983e-05
-6.75935e-05
9.1345e-05
-7.55819e-05
9.62196e-05
-8.42444e-05
0.000101515
-9.36848e-05
0.000107215
-0.000104023
0.000113291
-0.000115397
0.0001197
-0.000127966
0.000126374
-0.000141914
0.000133211
-0.000157446
0.000140064
-0.000174791
0.000146727
-0.000194195
0.000152909
-0.000215907
0.00015821
-0.000240165
0.00016209
-0.000267156
0.00016383
-0.000296968
0.000162485
-0.000329514
0.000156839
-0.000364417
0.000145362
-0.000400861
0.000126192
-0.00043738
9.71616e-05
-0.00047144
5.58985e-05
-0.00050117
1.02684e-06
-0.000520631
-7.30563e-05
-0.000524488
-0.000164544
-0.000506068
-0.000273351
-0.000458799
-0.000395406
-0.000377761
-0.000522321
-0.000261733
-0.000640828
-0.000115984
-0.000732584
4.56507e-05
-0.000777421
0.000200106
-0.000758572
0.000330731
-0.000686545
0.000428167
-0.0005782
0.00049059
-0.000452959
0.000521326
-0.000326784
0.000526464
-0.000210612
0.000512847
-0.000110512
0.000486306
-2.81348e-05
0.000453823
3.44769e-05
0.000417544
8.1715e-05
0.000380574
0.000115678
0.000344692
0.000138686
0.000310953
0.000153053
0.000279889
0.00016082
0.000251683
0.000163684
0.000226295
0.000163003
0.000203557
0.000159834
0.000183237
0.000154983
0.000165084
0.000149056
0.000148844
0.0001425
0.000134284
0.000135642
0.000121189
0.000128715
0.000109367
0.000121889
9.86518e-05
0.000115281
8.88983e-05
0.000108972
7.99805e-05
0.000103016
7.17885e-05
9.74494e-05
6.42267e-05
9.22921e-05
5.72116e-05
8.75551e-05
5.06701e-05
8.32421e-05
4.45372e-05
7.93522e-05
3.87558e-05
7.58812e-05
3.32743e-05
7.28228e-05
2.80461e-05
7.01703e-05
2.30282e-05
6.79164e-05
1.81808e-05
6.60538e-05
1.34664e-05
6.45759e-05
8.84939e-06
6.34771e-05
4.30033e-06
6.26933e-05
5.93117e-05
-4.14876e-06
6.61883e-05
-8.54168e-06
7.00076e-05
-1.30034e-05
7.08927e-05
-1.75644e-05
7.21338e-05
-2.22612e-05
7.38039e-05
-2.71328e-05
7.59117e-05
-3.22214e-05
7.84663e-05
-3.75728e-05
8.14777e-05
-4.32378e-05
8.49571e-05
-4.92729e-05
8.89165e-05
-5.57422e-05
9.33677e-05
-6.27188e-05
9.83218e-05
-7.02872e-05
0.000103788
-7.85458e-05
0.000109774
-8.76103e-05
0.00011628
-9.76173e-05
0.000123299
-0.000108729
0.000130813
-0.000121138
0.000138784
-0.000135073
0.000147147
-0.000150803
0.000155795
-0.000168639
0.000164564
-0.000188936
0.000173207
-0.000212088
0.000181362
-0.000238511
0.000188514
-0.000268622
0.000193941
-0.00030278
0.000196644
-0.000341215
0.000195274
-0.000383889
0.000188035
-0.000430305
0.000172607
-0.000479243
0.000146098
-0.000528452
0.000105105
-0.000573497
4.60695e-05
-0.000611607
-3.49463e-05
-0.000632362
-0.000143789
-0.000626554
-0.000279158
-0.000583319
-0.000438641
-0.000492786
-0.000612855
-0.000349651
-0.000783964
-0.000158105
-0.000924128
6.25293e-05
-0.000998054
0.000268695
-0.000964735
0.0004354
-0.000853249
0.000550607
-0.000693409
0.000614885
-0.000517241
0.000636314
-0.00034821
0.000625857
-0.000200157
0.000593579
-7.8239e-05
0.000550527
1.49159e-05
0.00050186
8.31436e-05
0.000451981
0.000131592
0.000403915
0.000163742
0.000359306
0.000183294
0.000318903
0.000193453
0.000282885
0.000196833
0.000251097
0.000195472
0.000223193
0.000190907
0.000198753
0.000184273
0.000177343
0.000176393
0.00015855
0.00016785
0.000142001
0.000159051
0.000127368
0.000150276
0.000114369
0.000141716
0.000102763
0.000133497
9.23452e-05
0.0001257
8.29442e-05
0.000118374
7.44142e-05
0.000111547
6.66311e-05
0.000105233
5.94893e-05
9.94343e-05
5.28981e-05
9.41464e-05
4.67794e-05
8.93607e-05
4.10653e-05
8.5066e-05
3.56967e-05
8.12495e-05
3.06211e-05
7.78985e-05
2.57914e-05
7.50004e-05
2.11649e-05
7.25439e-05
1.67027e-05
7.05174e-05
1.23677e-05
6.89125e-05
8.12573e-06
6.77207e-05
3.94849e-06
6.68723e-05
6.3261e-05
-3.75214e-06
6.99405e-05
-7.72548e-06
7.3981e-05
-1.17629e-05
7.49303e-05
-1.58935e-05
7.62649e-05
-2.01525e-05
7.80634e-05
-2.45773e-05
8.03372e-05
-2.92088e-05
8.30985e-05
-3.40921e-05
8.63615e-05
-3.92772e-05
9.01426e-05
-4.48205e-05
9.44603e-05
-5.07869e-05
9.93344e-05
-5.72511e-05
0.000104786
-6.43008e-05
0.000110839
-7.20396e-05
0.000117513
-8.05913e-05
0.000124832
-9.01049e-05
0.000132813
-0.000100762
0.00014147
-0.000112782
0.000150805
-0.000126436
0.000160801
-0.000142051
0.000171411
-0.000160022
0.000182537
-0.000180821
0.000194007
-0.000204996
0.000205538
-0.000233176
0.000216694
-0.000266052
0.000226817
-0.000304345
0.000234938
-0.000348732
0.000239661
-0.000399709
0.00023901
-0.000457363
0.000230259
-0.000521028
0.00020976
-0.000588766
0.000172841
-0.000656552
0.000113855
-0.000718542
2.70447e-05
-0.000766495
-9.58359e-05
-0.00078378
-0.000261873
-0.000753737
-0.000468686
-0.000657835
-0.000708759
-0.000481985
-0.000959815
-0.000224668
-0.00118144
8.99255e-05
-0.00131265
0.000372997
-0.00124781
0.0005885
-0.00106875
0.000722155
-0.000827067
0.000781047
-0.000576136
0.00078279
-0.000349953
0.000746413
-0.000163778
0.00068709
-1.89156e-05
0.00062047
8.15334e-05
0.000551174
0.000152435
0.000484743
0.000198023
0.000423902
0.000224584
0.000369775
0.000237421
0.000322499
0.000240726
0.000281672
0.000237657
0.000246632
0.000230511
0.000216627
0.000220913
0.000190918
0.000209984
0.000168829
0.000198483
0.00014977
0.00018691
0.000133238
0.000175583
0.000118816
0.000164701
0.000106154
0.00015438
9.49672e-05
0.000144685
8.50198e-05
0.000135647
7.61176e-05
0.000127276
6.80996e-05
0.000119565
6.08313e-05
0.000112501
5.42002e-05
0.000106065
4.81111e-05
0.000100235
4.24833e-05
9.49884e-05
3.72476e-05
9.03015e-05
3.23446e-05
8.61527e-05
2.77221e-05
8.25215e-05
2.33336e-05
7.93898e-05
1.91379e-05
7.67409e-05
1.50971e-05
7.45597e-05
1.11758e-05
7.28355e-05
7.34158e-06
7.15566e-05
3.56747e-06
7.0648e-05
6.68292e-05
-3.32653e-06
7.3267e-05
-6.84889e-06
7.75034e-05
-1.04289e-05
7.85106e-05
-1.40942e-05
7.99305e-05
-1.78776e-05
8.18474e-05
-2.18148e-05
8.42751e-05
-2.59444e-05
8.7229e-05
-3.03094e-05
9.07273e-05
-3.49578e-05
9.47918e-05
-3.99445e-05
9.94476e-05
-4.53328e-05
0.000104723
-5.11967e-05
0.000110651
-5.76238e-05
0.000117266
-6.47187e-05
0.000124609
-7.2608e-05
0.000132721
-8.14467e-05
0.000141652
-9.14267e-05
0.00015145
-0.000102788
0.000162166
-0.000115831
0.000173845
-0.000130935
0.000186516
-0.000148572
0.000200174
-0.000169322
0.000214757
-0.000193894
0.000230111
-0.00022314
0.000245941
-0.000258067
0.000261745
-0.000299835
0.000276705
-0.000349708
0.000289533
-0.000408947
0.000298248
-0.000478577
0.000299887
-0.000558975
0.000290157
-0.000649198
0.000263064
-0.000746001
0.000210659
-0.000841864
0.000122908
-0.00093102
-6.68049e-06
-0.000987705
-0.00020519
-0.000987761
-0.000468631
-0.000898794
-0.000797725
-0.000688656
-0.00116995
-0.000336096
-0.001534
0.000138035
-0.00178678
0.000538069
-0.00164784
0.000817836
-0.00134852
0.000965099
-0.000974334
0.00100307
-0.0006141
0.000967114
-0.000313998
0.000887226
-8.38864e-05
0.000793239
7.50783e-05
0.000693178
0.000181599
0.000597976
0.000247634
0.000512123
0.000283874
0.000437294
0.000299414
0.00037345
0.000301265
0.000319672
0.000294502
0.000274681
0.000282647
0.000237131
0.000268062
0.000205759
0.000252285
0.000179454
0.000236289
0.000157278
0.00022066
0.000138456
0.000205733
0.000122363
0.000191677
0.000108497
0.000178567
9.64598e-05
0.000166418
8.59287e-05
0.000155216
7.66465e-05
0.000144929
6.84048e-05
0.000135517
6.10336e-05
0.000126936
5.43931e-05
0.000119141
4.83679e-05
0.00011209
4.28619e-05
0.000105741
3.77943e-05
0.000100056
3.30971e-05
9.49991e-05
2.87121e-05
9.05383e-05
2.45889e-05
8.66456e-05
2.06833e-05
8.32966e-05
1.69562e-05
8.04694e-05
1.33718e-05
7.81457e-05
9.89681e-06
7.63121e-05
6.5012e-06
7.49537e-05
3.15933e-06
7.39913e-05
6.99891e-05
-2.87517e-06
7.61422e-05
-5.91783e-06
8.05461e-05
-9.00964e-06
8.16027e-05
-1.21763e-05
8.30977e-05
-1.54486e-05
8.51205e-05
-1.88595e-05
8.76869e-05
-2.24444e-05
9.08149e-05
-2.6243e-05
9.45268e-05
-3.02998e-05
9.88496e-05
-3.46663e-05
0.000103815
-3.94022e-05
0.00010946
-4.45781e-05
0.000115827
-5.02777e-05
0.000122966
-5.66017e-05
0.000130933
-6.3673e-05
0.000139792
-7.16438e-05
0.000149622
-8.07063e-05
0.000160512
-9.11058e-05
0.000172565
-0.000103159
0.000185898
-0.000117279
0.000200635
-0.000133998
0.000216892
-0.000153989
0.000234749
-0.000178104
0.000254225
-0.000207407
0.000275244
-0.00024323
0.000297569
-0.000287217
0.000320692
-0.000341343
0.000343659
-0.000407877
0.000364781
-0.000489213
0.000381222
-0.000587472
0.000388417
-0.000703756
0.00037935
-0.000836903
0.000343807
-0.000981905
0.00026791
-0.00112263
0.000134038
-0.00124795
-7.98683e-05
-0.00130808
-0.000408498
-0.00125431
-0.000851499
-0.00101651
-0.00140775
-0.000515906
-0.00203461
0.000224371
-0.00252706
0.000807234
-0.00223071
0.00116917
-0.00171045
0.00131148
-0.00111665
0.00129743
-0.000600038
0.00119205
-0.00020863
0.00105264
5.55247e-05
0.000903579
0.000224132
0.000761729
0.000323442
0.000635859
0.000373502
0.000528722
0.000391012
0.000439809
0.000388328
0.000367094
0.00037398
0.000308059
0.000353535
0.000260237
0.000330468
0.000221436
0.000306864
0.000189808
0.000283914
0.000163849
0.000262249
0.000142361
0.000242149
0.000124403
0.00022369
0.000109252
0.000206829
9.6346e-05
0.000191472
8.5254e-05
0.00017751
7.56374e-05
0.000164832
6.723e-05
0.000153335
5.98197e-05
0.000142926
5.32355e-05
0.000133519
4.73386e-05
0.000125038
4.20158e-05
0.000117413
3.71735e-05
0.000110584
3.27345e-05
0.000104495
2.86341e-05
9.91001e-05
2.48176e-05
9.43556e-05
2.1238e-05
9.02263e-05
1.78547e-05