/*--------------------------------*- C++ -*----------------------------------*\
| =========                 |                                                 |
| \\      /  F ield         | OpenFOAM: The Open Source CFD Toolbox           |
|  \\    /   O peration     | Version:  2412                                  |
|   \\  /    A nd           | Website:  www.openfoam.com                      |
|    \\/     M anipulation  |                                                 |
\*---------------------------------------------------------------------------*/
FoamFile
{
    version     2.0;
    format      ascii;
    arch        "LSB;label=32;scalar=64";
    class       surfaceScalarField;
    location    "8.05";
    object      alphaPhi0.mercury;
}
// * * * * * * * * * * * * * * * * * * * * * * * * * * * * * * * * * * * * * //

dimensions      [0 3 -1 0 0 0 0];

oriented        oriented;

internalField   nonuniform List<scalar> 
12640
(
8.08146e-07
-8.08146e-07
8.01797e-07
-7.85327e-08
1.94792e-06
-1.14851e-06
4.54376e-06
-2.58204e-06
8.22084e-06
-3.6689e-06
1.28641e-05
-4.64327e-06
1.82801e-05
-5.42101e-06
2.44214e-05
-6.14855e-06
3.12931e-05
-6.87834e-06
3.87503e-05
-7.4576e-06
4.68495e-05
-8.09861e-06
5.55196e-05
-8.67144e-06
6.46697e-05
-9.13977e-06
7.40856e-05
-9.40954e-06
8.35891e-05
-9.49508e-06
9.29714e-05
-9.37232e-06
0.000101998
-9.01835e-06
0.000110418
-8.41116e-06
0.000118029
-7.59975e-06
0.000124624
-6.58846e-06
0.000130013
-5.38819e-06
0.000134108
-4.09577e-06
0.000136781
-2.67157e-06
0.000137967
-1.18442e-06
0.00013762
3.45625e-07
0.000135746
1.87089e-06
0.000132383
3.35947e-06
0.000127604
4.77559e-06
0.000121503
6.09647e-06
0.000114208
7.28971e-06
0.000105838
8.36694e-06
9.65069e-05
9.33162e-06
8.63532e-05
1.01562e-05
7.55191e-05
1.08374e-05
6.41669e-05
1.13552e-05
5.23742e-05
1.17951e-05
4.02468e-05
1.21289e-05
2.79121e-05
1.23352e-05
1.54682e-05
1.2443e-05
2.98715e-06
1.24787e-05
-9.45427e-06
1.2438e-05
-2.17848e-05
1.2327e-05
-3.39363e-05
1.21483e-05
-4.58396e-05
1.19007e-05
-5.73814e-05
1.1539e-05
-6.84901e-05
1.11057e-05
-7.90503e-05
1.0557e-05
-8.89635e-05
9.90965e-06
-9.81089e-05
9.14184e-06
-0.00010633
8.21851e-06
-0.000113473
7.13999e-06
-0.00011944
5.96597e-06
-0.000124169
4.72846e-06
-0.000127542
3.37416e-06
-0.000129493
1.95047e-06
-0.000129977
4.8416e-07
-0.00012901
-9.67059e-07
-0.000126614
-2.3973e-06
-0.000122837
-3.77701e-06
-0.000117775
-5.06084e-06
-0.000111555
-6.21743e-06
-0.00010434
-7.21258e-06
-9.63296e-05
-8.00883e-06
-8.77358e-05
-8.5959e-06
-7.87718e-05
-8.96936e-06
-6.9672e-05
-9.10591e-06
-6.06707e-05
-9.00529e-06
-5.1951e-05
-8.72067e-06
-4.36712e-05
-8.28073e-06
-3.59503e-05
-7.72654e-06
-2.888e-05
-7.08137e-06
-2.24582e-05
-6.43264e-06
-1.67106e-05
-5.75341e-06
-1.1573e-05
-5.14097e-06
-7.21436e-06
-4.36649e-06
-3.79668e-06
-3.4286e-06
-1.46391e-06
-2.3357e-06
-4.81656e-07
-9.79696e-07
-5.41019e-07
4.84978e-08
-5.52934e-07
-5.60377e-07
-1.63923e-07
-1.75927e-06
1.11549e-06
-4.14603e-07
-2.50987e-06
3.20628e-06
-6.21116e-06
8.59506e-06
-9.06111e-06
1.50738e-05
-1.11278e-05
2.22771e-05
-1.26316e-05
2.99055e-05
-1.37811e-05
3.78744e-05
-1.48511e-05
4.63319e-05
-1.59103e-05
5.52472e-05
-1.69986e-05
6.45909e-05
-1.80116e-05
7.43522e-05
-1.88908e-05
8.43994e-05
-1.94444e-05
9.45616e-05
-1.9644e-05
0.000104611
-1.94092e-05
0.000114328
-1.87247e-05
0.000123469
-1.75448e-05
0.000131758
-1.58819e-05
0.000138964
-1.37873e-05
0.000144941
-1.13588e-05
0.000149462
-8.61368e-06
0.000152429
-5.6388e-06
0.000153735
-2.4931e-06
0.000153407
6.68937e-07
0.000151391
3.88196e-06
0.000147694
7.0528e-06
0.000142457
1.00071e-05
0.000135751
1.27974e-05
0.000127673
1.53639e-05
0.000118369
1.76689e-05
0.000108025
1.96737e-05
9.67632e-05
2.14167e-05
8.47522e-05
2.28472e-05
7.21169e-05
2.39906e-05
5.90241e-05
2.48903e-05
4.56258e-05
2.55308e-05
3.20041e-05
2.596e-05
1.82822e-05
2.61668e-05
4.57324e-06
2.61879e-05
-9.05493e-06
2.60656e-05
-2.25342e-05
2.5805e-05
-3.58069e-05
2.54184e-05
-4.87757e-05
2.48654e-05
-6.13551e-05
2.41129e-05
-7.34243e-05
2.31685e-05
-8.48994e-05
2.20257e-05
-9.56263e-05
2.0631e-05
-0.000105418
1.89295e-05
-0.000114156
1.69529e-05
-0.000121775
1.47585e-05
-0.000128082
1.22737e-05
-0.000132964
9.61341e-06
-0.000136391
6.80339e-06
-0.000138295
3.85761e-06
-0.00013864
8.31698e-07
-0.000137456
-2.14971e-06
-0.000134744
-5.10653e-06
-0.000130607
-7.90967e-06
-0.000125156
-1.05063e-05
-0.000118557
-1.2811e-05
-0.000110995
-1.47712e-05
-0.00010269
-1.63158e-05
-9.38726e-05
-1.74197e-05
-8.47814e-05
-1.80684e-05
-7.56403e-05
-1.82518e-05
-6.66089e-05
-1.80375e-05
-5.79006e-05
-1.74303e-05
-4.96098e-05
-1.65792e-05
-4.17746e-05
-1.55764e-05
-3.42943e-05
-1.45764e-05
-2.71386e-05
-1.35954e-05
-2.02616e-05
-1.26339e-05
-1.38135e-05
-1.1599e-05
-7.91428e-06
-1.02804e-05
-2.96186e-06
-8.3855e-06
3.79268e-07
-5.6733e-06
1.62824e-06
-2.24196e-06
6.36321e-07
1.02168e-06
9.30956e-08
-5.15262e-07
3.48967e-07
-5.6675e-07
1.16896e-06
2.56537e-06
-5.64841e-06
8.4399e-06
-1.20905e-05
1.61998e-05
-1.68231e-05
2.49877e-05
-1.99172e-05
3.41555e-05
-2.17994e-05
4.34909e-05
-2.31093e-05
5.28763e-05
-2.42303e-05
6.24194e-05
-2.54527e-05
7.21444e-05
-2.67156e-05
8.21329e-05
-2.79977e-05
9.23881e-05
-2.91486e-05
0.000102794
-2.98595e-05
0.000113223
-3.00714e-05
0.000123452
-2.96303e-05
0.000133244
-2.85099e-05
0.000142333
-2.66293e-05
0.000150468
-2.401e-05
0.000157417
-2.07252e-05
0.000162972
-1.69057e-05
0.000166953
-1.25925e-05
0.000169256
-7.94109e-06
0.00016983
-3.06606e-06
0.000168568
1.9289e-06
0.000165534
6.9085e-06
0.000160868
1.17087e-05
0.000154548
1.63176e-05
0.00014673
2.06057e-05
0.000137523
2.45626e-05
0.000127146
2.80409e-05
0.000115729
3.10873e-05
0.000103457
3.36888e-05
9.04865e-05
3.58216e-05
7.69677e-05
3.75168e-05
6.30663e-05
3.88004e-05
4.89348e-05
3.96705e-05
3.46598e-05
4.02418e-05
2.03445e-05
4.0487e-05
6.06058e-06
4.04745e-05
-8.12473e-06
4.02513e-05
-2.21732e-05
3.98524e-05
-3.60014e-05
3.92448e-05
-4.95979e-05
3.846e-05
-6.28192e-05
3.73324e-05
-7.55632e-05
3.59112e-05
-8.77223e-05
3.41842e-05
-9.92008e-05
3.21094e-05
-0.000109848
2.95781e-05
-0.000119497
2.66045e-05
-0.000127973
2.32381e-05
-0.000135173
1.94789e-05
-0.000140979
1.54256e-05
-0.000145299
1.11289e-05
-0.000148049
6.61245e-06
-0.000149192
1.97831e-06
-0.0001487
-2.63822e-06
-0.000146639
-7.16267e-06
-0.000143081
-1.14627e-05
-0.00013814
-1.544e-05
-0.000131971
-1.89732e-05
-0.000124778
-2.19596e-05
-0.000116771
-2.43231e-05
-0.00010819
-2.60018e-05
-9.92565e-05
-2.70017e-05
-9.01716e-05
-2.73324e-05
-8.11642e-05
-2.70389e-05
-7.23193e-05
-2.62728e-05
-6.37491e-05
-2.51536e-05
-5.54433e-05
-2.38889e-05
-4.72891e-05
-2.27317e-05
-3.91076e-05
-2.17731e-05
-3.08663e-05
-2.08752e-05
-2.26262e-05
-1.98481e-05
-1.47097e-05
-1.82027e-05
-7.69511e-06
-1.53957e-05
-2.246e-06
-1.11294e-05
6.48759e-07
-5.15471e-06
6.60479e-07
1.0258e-06
7.55428e-07
-6.4011e-07
9.66736e-07
1.0306e-07
4.20582e-07
4.67043e-06
-1.02155e-05
1.23036e-05
-1.97209e-05
2.18586e-05
-2.63746e-05
3.21879e-05
-3.02421e-05
4.27929e-05
-3.24014e-05
5.32883e-05
-3.35978e-05
6.37785e-05
-3.4711e-05
7.42484e-05
-3.59231e-05
8.49529e-05
-3.74283e-05
9.5964e-05
-3.90138e-05
0.000107187
-4.0364e-05
0.000118604
-4.128e-05
0.000129963
-4.14366e-05
0.000141084
-4.07495e-05
0.000151696
-3.91088e-05
0.000161469
-3.63901e-05
0.000170169
-3.27076e-05
0.000177524
-2.80845e-05
0.000183286
-2.26716e-05
0.00018731
-1.66197e-05
0.000189455
-1.00897e-05
0.000189645
-3.26284e-06
0.00018787
3.6955e-06
0.000184171
1.06e-05
0.000178589
1.72868e-05
0.000171245
2.36626e-05
0.000162269
2.9585e-05
0.000151882
3.4952e-05
0.000140206
3.97185e-05
0.000127446
4.38478e-05
0.000113776
4.73595e-05
9.94215e-05
5.01748e-05
8.45179e-05
5.24169e-05
6.93067e-05
5.40063e-05
5.38722e-05
5.50996e-05
3.83428e-05
5.57666e-05
2.27888e-05
5.60378e-05
7.28117e-06
5.59804e-05
-8.12385e-06
5.56563e-05
-2.3357e-05
5.50866e-05
-3.83933e-05
5.42829e-05
-5.3116e-05
5.31846e-05
-6.74926e-05
5.17104e-05
-8.1415e-05
4.98344e-05
-9.47823e-05
4.75517e-05
-0.000107414
4.47404e-05
-0.000119183
4.13465e-05
-0.000129943
3.73628e-05
-0.000139506
3.28001e-05
-0.000147747
2.7718e-05
-0.000154502
2.21789e-05
-0.00015967
1.62945e-05
-0.000163153
1.00939e-05
-0.000164893
3.71452e-06
-0.000164852
-2.68167e-06
-0.000163081
-8.93528e-06
-0.00015965
-1.48933e-05
-0.000154679
-2.0409e-05
-0.000148331
-2.53179e-05
-0.000140815
-2.94746e-05
-0.000132366
-3.27732e-05
-0.00012324
-3.51286e-05
-0.000113701
-3.65395e-05
-0.000103969
-3.70617e-05
-9.42616e-05
-3.67457e-05
-8.47398e-05
-3.57983e-05
-7.54438e-05
-3.44572e-05
-6.63528e-05
-3.29836e-05
-5.7385e-05
-3.16984e-05
-4.83943e-05
-3.07622e-05
-3.91822e-05
-3.0095e-05
-2.97044e-05
-2.9336e-05
-2.02275e-05
-2.76793e-05
-1.13688e-05
-2.42547e-05
-4.19333e-06
-1.83176e-05
1.2585e-07
-9.46732e-06
8.20925e-07
3.4026e-07
1.56255e-06
-1.16489e-06
2.1154e-06
-6.88561e-08
-6.76835e-07
5.63797e-06
-1.59143e-05
1.47915e-05
-2.88671e-05
2.56192e-05
-3.72003e-05
3.71472e-05
-4.17679e-05
4.83252e-05
-4.35783e-05
5.92788e-05
-4.45525e-05
7.00071e-05
-4.54361e-05
8.09966e-05
-4.69021e-05
9.22942e-05
-4.87234e-05
0.000104087
-5.08157e-05
0.000116352
-5.26266e-05
0.000128948
-5.38612e-05
0.000141611
-5.4088e-05
0.000154025
-5.31642e-05
0.000165854
-5.09496e-05
0.000176795
-4.73444e-05
0.000186529
-4.24482e-05
0.000194738
-3.62964e-05
0.000201187
-2.91195e-05
0.000205677
-2.11082e-05
0.000208049
-1.24598e-05
0.00020826
-3.47245e-06
0.000206225
5.73255e-06
0.00020207
1.47565e-05
0.000195829
2.35261e-05
0.000187648
3.18399e-05
0.000177672
3.95564e-05
0.000166105
4.65146e-05
0.000153165
5.26558e-05
0.00013904
5.7973e-05
0.00012402
6.23816e-05
0.000108229
6.59685e-05
9.19549e-05
6.86954e-05
7.53151e-05
7.06507e-05
5.85025e-05
7.19163e-05
4.16155e-05
7.26562e-05
2.47418e-05
7.29121e-05
7.94569e-06
7.27753e-05
-8.74332e-06
7.23428e-05
-2.52467e-05
7.15865e-05
-4.15253e-05
7.05574e-05
-5.75196e-05
6.91746e-05
-7.31614e-05
6.7348e-05
-8.8341e-05
6.50107e-05
-0.000102885
6.20931e-05
-0.000116657
5.85089e-05
-0.00012954
5.42261e-05
-0.000141376
4.91939e-05
-0.000151945
4.33655e-05
-0.000161108
3.68782e-05
-0.000168725
2.9794e-05
-0.000174601
2.21691e-05
-0.000178616
1.41067e-05
-0.000180695
5.79122e-06
-0.000180782
-2.59721e-06
-0.000178936
-1.07851e-05
-0.000175225
-1.86067e-05
-0.000169775
-2.58603e-05
-0.000162767
-3.23283e-05
-0.000154446
-3.77988e-05
-0.000145087
-4.21351e-05
-0.000134955
-4.5262e-05
-0.000124345
-4.715e-05
-0.000113566
-4.78403e-05
-0.00010284
-4.74756e-05
-9.24252e-05
-4.62207e-05
-8.24367e-05
-4.44515e-05
-7.28596e-05
-4.25594e-05
-6.35554e-05
-4.09957e-05
-5.42747e-05
-4.00413e-05
-4.47378e-05
-3.96372e-05
-3.47228e-05
-3.93514e-05
-2.41882e-05
-3.82078e-05
-1.3879e-05
-3.45687e-05
-5.19189e-06
-2.70054e-05
3.00193e-07
-1.49457e-05
1.33976e-06
-7.13267e-07
2.90111e-06
-1.94157e-06
4.05431e-06
-4.88409e-07
-2.12114e-06
6.59804e-06
-2.29922e-05
1.73715e-05
-3.96387e-05
2.96043e-05
-4.94397e-05
4.14062e-05
-5.35749e-05
5.25184e-05
-5.46883e-05
6.285e-05
-5.48807e-05
7.31934e-05
-5.57815e-05
8.3917e-05
-5.76169e-05
9.54712e-05
-6.02604e-05
0.000107916
-6.32496e-05
0.000121191
-6.59071e-05
0.000135067
-6.7749e-05
0.00014921
-6.82395e-05
0.000163207
-6.71612e-05
0.000176641
-6.43787e-05
0.000189103
-5.98044e-05
0.000200227
-5.357e-05
0.000209637
-4.57102e-05
0.000217059
-3.65501e-05
0.000222253
-2.63095e-05
0.0002251
-1.531e-05
0.000225458
-3.82953e-06
0.000223369
7.8261e-06
0.000218795
1.93345e-05
0.000211939
3.0387e-05
0.000202933
4.08477e-05
0.000191985
5.05068e-05
0.000179243
5.9259e-05
0.000165
6.6905e-05
0.000149585
7.33984e-05
0.000133195
7.87836e-05
0.000116068
8.31057e-05
9.8402e-05
8.63703e-05
8.038e-05
8.86793e-05
6.22376e-05
9.00637e-05
4.40994e-05
9.07981e-05
2.60113e-05
9.10023e-05
8.02232e-06
9.07644e-05
-9.79254e-06
9.01563e-05
-2.74324e-05
8.92246e-05
-4.48517e-05
8.79749e-05
-6.19962e-05
8.63186e-05
-7.87783e-05
8.41307e-05
-9.51156e-05
8.13488e-05
-0.000110831
7.78089e-05
-0.000125763
7.34413e-05
-0.000139753
6.82174e-05
-0.000152608
6.20483e-05
-0.000164238
5.49956e-05
-0.000174359
4.69989e-05
-0.000182719
3.81544e-05
-0.000189181
2.86318e-05
-0.000193637
1.85613e-05
-0.000195907
8.05952e-06
-0.000195958
-2.5492e-06
-0.000193812
-1.29349e-05
-0.000189535
-2.28868e-05
-0.000183281
-3.2116e-05
-0.000175265
-4.03454e-05
-0.00016576
-4.7303e-05
-0.000155079
-5.28137e-05
-0.000143524
-5.68144e-05
-0.000131539
-5.91326e-05
-0.000119393
-5.99847e-05
-0.000107518
-5.93509e-05
-9.62243e-05
-5.75139e-05
-8.57242e-05
-5.49445e-05
-7.60471e-05
-5.22234e-05
-6.70318e-05
-5.00008e-05
-5.82915e-05
-4.87806e-05
-4.92702e-05
-4.86593e-05
-3.93453e-05
-4.92702e-05
-2.8361e-05
-4.91909e-05
-1.67303e-05
-4.62031e-05
-6.25714e-06
-3.74699e-05
6.68007e-07
-2.18663e-05
2.13148e-06
-2.19093e-06
5.05109e-06
-2.67423e-06
6.73634e-06
-1.70628e-07
-4.61231e-06
9.32362e-06
-3.24866e-05
2.25052e-05
-5.2827e-05
3.58584e-05
-6.28022e-05
4.7411e-05
-6.51326e-05
5.70642e-05
-6.43359e-05
6.56945e-05
-6.34962e-05
7.4522e-05
-6.46063e-05
8.43534e-05
-6.74533e-05
9.56567e-05
-7.15726e-05
0.000108565
-7.6156e-05
0.000122889
-8.02296e-05
0.000138254
-8.31143e-05
0.000154139
-8.41285e-05
0.00017005
-8.3074e-05
0.000185432
-7.97624e-05
0.000199774
-7.4152e-05
0.000212603
-6.64048e-05
0.000223512
-5.66244e-05
0.000232147
-4.51891e-05
0.000238259
-3.24234e-05
0.000241649
-1.87019e-05
0.000242247
-4.42982e-06
0.000240028
1.00409e-05
0.000235042
2.43166e-05
0.000227517
3.79087e-05
0.000217626
5.07361e-05
0.000205553
6.25795e-05
0.000191641
7.31695e-05
0.000176124
8.24188e-05
0.000159287
9.023e-05
0.000141436
9.66279e-05
0.000122892
0.000101641
0.000103833
0.000105422
8.45643e-05
0.000107943
6.51781e-05
0.000109447
4.58372e-05
0.000110137
2.66388e-05
0.0001102
7.62475e-06
0.00010978
-1.11951e-05
0.000108979
-2.98159e-05
0.00010785
-4.81858e-05
0.000106351
-6.63034e-05
0.000104443
-8.41445e-05
0.000101978
-0.00010155
9.87599e-05
-0.000118396
9.46595e-05
-0.000134521
8.95682e-05
-0.000149718
8.34139e-05
-0.000163762
7.60903e-05
-0.00017639
6.76193e-05
-0.000187419
5.80232e-05
-0.000196641
4.73723e-05
-0.000203754
3.574e-05
-0.000208557
2.33605e-05
-0.000211015
1.05121e-05
-0.000210936
-2.63231e-06
-0.000208344
-1.55312e-05
-0.000203333
-2.79009e-05
-0.000196043
-3.94075e-05
-0.000186719
-4.96677e-05
-0.000175663
-5.83555e-05
-0.000163249
-6.52237e-05
-0.000149918
-7.01412e-05
-0.000136119
-7.29288e-05
-0.000122357
-7.37455e-05
-0.000109142
-7.2565e-05
-9.69377e-05
-6.97143e-05
-8.61067e-05
-6.57681e-05
-7.67948e-05
-6.15286e-05
-6.88383e-05
-5.79581e-05
-6.16656e-05
-5.59587e-05
-5.43399e-05
-5.59836e-05
-4.56122e-05
-5.79926e-05
-3.46335e-05
-6.01734e-05
-2.17862e-05
-5.90448e-05
-8.78071e-06
-5.04682e-05
4.54356e-07
-3.11117e-05
2.94203e-06
-4.67095e-06
7.99139e-06
-3.05932e-06
9.80444e-06
1.87139e-06
-9.53538e-06
1.55234e-05
-4.61447e-05
3.21238e-05
-6.94322e-05
4.63322e-05
-7.70088e-05
5.63578e-05
-7.51548e-05
6.29317e-05
-7.09084e-05
6.82302e-05
-6.87909e-05
7.4306e-05
-7.0686e-05
8.24344e-05
-7.55897e-05
9.32387e-05
-8.23922e-05
0.000106646
-8.95709e-05
0.000122234
-9.58181e-05
0.000139405
-0.000100283
0.000157465
-0.000102191
0.000175705
-0.00010132
0.00019348
-9.75448e-05
0.000210118
-9.07973e-05
0.000225032
-8.13235e-05
0.00023774
-6.93355e-05
0.000247812
-5.52613e-05
0.000254963
-3.95744e-05
0.000258985
-2.27246e-05
0.000259817
-5.26461e-06
0.000257421
1.24312e-05
0.000251987
2.97469e-05
0.000243628
4.62624e-05
0.000232664
6.16917e-05
0.000219365
7.587e-05
0.00020405
8.84754e-05
0.000187034
9.94251e-05
0.000168637
0.000108616
0.000149274
0.000115982
0.000129189
0.000121719
0.000108726
0.000125879
8.80812e-05
0.000128584
6.74597e-05
0.000130065
4.69636e-05
0.000130631
2.67731e-05
0.000130389
6.8566e-06
0.000129696
-1.28314e-05
0.000128668
-3.23094e-05
0.000127331
-5.15853e-05
0.000125631
-7.06503e-05
0.000123513
-8.94811e-05
0.000120814
-0.000107993
0.000117275
-0.00012603
0.0001127
-0.000143351
0.000106888
-0.000159757
9.98177e-05
-0.00017502
9.13482e-05
-0.000188866
8.14605e-05
-0.000200994
7.0146e-05
-0.000211117
5.74912e-05
-0.000218952
4.35723e-05
-0.000224296
2.87015e-05
-0.000226913
1.31253e-05
-0.000226723
-2.82615e-06
-0.000223613
-1.86452e-05
-0.000217718
-3.37988e-05
-0.000209168
-4.7958e-05
-0.000198229
-6.06045e-05
-0.000185258
-7.13236e-05
-0.000170708
-7.97687e-05
-0.000155098
-8.57496e-05
-0.000139053
-8.89743e-05
-0.000123261
-8.95403e-05
-0.000108334
-8.74917e-05
-9.50421e-05
-8.30029e-05
-8.39109e-05
-7.68947e-05
-7.53453e-05
-7.00939e-05
-6.92663e-05
-6.40419e-05
-6.49316e-05
-6.02917e-05
-6.08512e-05
-6.00534e-05
-5.48864e-05
-6.39526e-05
-4.4994e-05
-7.0065e-05
-3.07255e-05
-7.33064e-05
-1.45167e-05
-6.66825e-05
-1.18018e-06
-4.44669e-05
3.43953e-06
-9.276e-06
1.1404e-05
-2.79571e-06
1.26038e-05
6.35993e-06
-1.86879e-05
2.55561e-05
-6.53431e-05
4.57889e-05
-8.96597e-05
6.02379e-05
-9.14448e-05
6.71591e-05
-8.20708e-05
6.88545e-05
-7.26091e-05
6.92788e-05
-6.92211e-05
7.14085e-05
-7.28213e-05
7.72996e-05
-8.14837e-05
8.75848e-05
-9.26782e-05
0.000101789
-0.000103777
0.000119203
-0.000113234
0.000138834
-0.000119919
0.00015972
-0.000123083
0.000180982
-0.000122592
0.000201769
-0.000118339
0.000221233
-0.000110264
0.000238693
-9.87806e-05
0.000253572
-8.42086e-05
0.000265343
-6.70241e-05
0.000273674
-4.78948e-05
0.000278433
-2.74733e-05
0.000279443
-6.26519e-06
0.000276826
1.50594e-05
0.00027071
3.58731e-05
0.00026133
5.56527e-05
0.000249044
7.3988e-05
0.000234238
9.0683e-05
0.000217291
0.00010543
0.000198523
0.0001182
0.000178399
0.000128749
0.000157245
0.000137142
0.000135427
0.000143541
0.00011338
0.000147929
9.1235e-05
0.000150729
6.9294e-05
0.000152005
4.77326e-05
0.00015219
2.65357e-05
0.000151583
5.72898e-06
0.0001505
-1.47304e-05
0.000149126
-3.4959e-05
0.000147558
-5.50779e-05
0.00014575
-7.51177e-05
0.000143554
-9.49811e-05
0.000140679
-0.000114665
0.00013696
-0.000133893
0.000131926
-0.000152609
0.000125602
-0.000170458
0.000117662
-0.000187121
0.000108004
-0.00020231
9.66432e-05
-0.00021571
8.35403e-05
-0.000226981
6.87577e-05
-0.000235751
5.23376e-05
-0.000241753
3.47001e-05
-0.000244691
1.60586e-05
-0.000244374
-3.14762e-06
-0.000240761
-2.22632e-05
-0.000233812
-4.07505e-05
-0.000223746
-5.80251e-05
-0.000210848
-7.35016e-05
-0.000195532
-8.66384e-05
-0.000178336
-9.6964e-05
-0.00015989
-0.000104197
-0.000140995
-0.000107871
-0.0001225
-0.000108037
-0.000105363
-0.000104626
-9.04652e-05
-9.78961e-05
-7.87278e-05
-8.8631e-05
-7.08989e-05
-7.79268e-05
-6.7231e-05
-6.77106e-05
-6.68491e-05
-6.06672e-05
-6.76052e-05
-5.929e-05
-6.62396e-05
-6.53233e-05
-5.89085e-05
-7.73926e-05
-4.39654e-05
-8.82582e-05
-2.3732e-05
-8.69224e-05
-4.96197e-06
-6.32297e-05
3.51822e-06
-1.77549e-05
1.49394e-05
-2.19524e-06
1.48011e-05
1.15178e-05
-3.23974e-05
3.59042e-05
-8.97302e-05
5.79726e-05
-0.000111722
7.04762e-05
-0.000103933
7.26512e-05
-8.42353e-05
6.87681e-05
-6.8728e-05
6.39e-05
-6.43545e-05
6.23906e-05
-7.131e-05
6.65877e-05
-8.56782e-05
7.71058e-05
-0.000103196
9.30299e-05
-0.0001197
0.000113319
-0.000133523
0.000136403
-0.000143006
0.000161123
-0.000147801
0.000186263
-0.000147725
0.000210872
-0.000142942
0.000233871
-0.00013326
0.000254462
-0.000119371
0.000271993
-0.000101742
0.000285813
-8.08446e-05
0.000295562
-5.76445e-05
0.000301066
-3.29727e-05
0.000302224
-7.41639e-06
0.000299206
1.80857e-05
0.000292214
4.28758e-05
0.000281534
6.63425e-05
0.000267632
8.78963e-05
0.000250996
0.000107323
0.000232029
0.000124396
0.000211219
0.000139006
0.00018899
0.00015097
0.000165717
0.000160407
0.000142013
0.000167235
0.000118057
0.000171875
9.43062e-05
0.00017447
7.09574e-05
0.000175345
4.81482e-05
0.000174991
2.59425e-05
0.000173782
4.28613e-06
0.000172151
-1.69917e-05
0.0001704
-3.80504e-05
0.000168615
-5.90011e-05
0.0001667
-7.99795e-05
0.000164533
-0.000100999
0.000161699
-0.000121899
0.00015786
-0.000142629
0.000152654
-0.000162794
0.000145763
-0.000182176
0.000137037
-0.000200536
0.000126356
-0.000217362
0.00011346
-0.000232358
9.85286e-05
-0.000245058
8.14518e-05
-0.000255016
6.22919e-05
-0.000261916
4.15972e-05
-0.000265351
1.94901e-05
-0.000264971
-3.53107e-06
-0.000260734
-2.65047e-05
-0.000252587
-4.89001e-05
-0.00024071
-6.99044e-05
-0.000225438
-8.87735e-05
-0.000207252
-0.000104825
-0.000186786
-0.000117432
-0.000164782
-0.000126205
-0.000142221
-0.000130435
-0.000120116
-0.00013014
-9.96773e-05
-0.000125061
-8.21059e-05
-0.000115469
-6.89277e-05
-0.000101813
-6.12338e-05
-8.56275e-05
-5.94816e-05
-6.9463e-05
-6.30555e-05
-5.70859e-05
-6.93414e-05
-5.30059e-05
-7.34793e-05
-6.11899e-05
-7.03087e-05
-8.05579e-05
-5.64931e-05
-0.000102081
-3.37009e-05
-0.000109717
-9.76418e-06
-8.71514e-05
3.11235e-06
-3.06695e-05
1.80554e-05
-2.29298e-06
1.7096e-05
1.33863e-05
-4.80722e-05
3.75154e-05
-0.000113857
5.59089e-05
-0.000130121
6.29237e-05
-0.000110939
5.97561e-05
-8.1051e-05
5.13516e-05
-6.03114e-05
4.34479e-05
-5.64462e-05
4.07091e-05
-6.8571e-05
4.58732e-05
-9.08398e-05
5.88301e-05
-0.000116161
7.8471e-05
-0.000139343
0.000103187
-0.000158231
0.000131252
-0.000171059
0.000161085
-0.000177626
0.000191299
-0.000177937
0.000220663
-0.000172306
0.000248111
-0.000160708
0.000272609
-0.000143868
0.000293268
-0.000122399
0.000309573
-9.71471e-05
0.000320982
-6.90513e-05
0.000327268
-3.92581e-05
0.000328558
-8.70504e-06
0.000324893
2.1752e-05
0.000316756
5.10144e-05
0.000304569
7.85292e-05
0.000288684
0.000103781
0.000269829
0.000126177
0.000248475
0.00014575
0.000225265
0.000162216
0.000200587
0.000175649
0.000175018
0.000185974
0.000148979
0.000193272
0.000122968
0.000197881
9.73669e-05
0.000200067
7.24099e-05
0.000200298
4.82401e-05
0.000199157
2.49768e-05
0.000197042
2.45595e-06
0.000194669
-1.95948e-05
0.000192449
-4.14611e-05
0.00019048
-6.32948e-05
0.000188533
-8.52763e-05
0.000186513
-0.000107493
0.000183915
-0.000129802
0.000180168
-0.00015204
0.00017489
-0.000174035
0.000167756
-0.000195307
0.000158305
-0.000215471
0.000146517
-0.000234281
0.000132267
-0.00025115
0.000115397
-0.000265649
9.5952e-05
-0.000277134
7.37804e-05
-0.00028524
4.97079e-05
-0.000289384
2.36384e-05
-0.000289078
-3.83428e-06
-0.000284181
-3.13997e-05
-0.000274684
-5.83956e-05
-0.000260637
-8.39484e-05
-0.0002425
-0.000106909
-0.00022079
-0.000126535
-0.000196231
-0.000141994
-0.000169757
-0.000152682
-0.000142388
-0.000157805
-0.000115342
-0.000157184
-9.00234e-05
-0.00015038
-6.82472e-05
-0.00013725
-5.15726e-05
-0.000118498
-4.19833e-05
-9.52206e-05
-4.04378e-05
-7.10032e-05
-4.59793e-05
-5.15427e-05
-5.56163e-05
-4.3381e-05
-6.44038e-05
-5.24098e-05
-6.66083e-05
-7.83687e-05
-5.73899e-05
-0.000111305
-3.69837e-05
-0.000130132
-1.23088e-05
-0.000111831
3.35441e-06
-4.63217e-05
2.13965e-05
-5.4517e-06
2.25416e-05
4.88203e-06
-5.84086e-05
1.87758e-05
-0.000127733
2.51868e-05
-0.000136528
2.25704e-05
-0.000108321
1.38724e-05
-7.23503e-05
3.77657e-06
-5.02182e-05
-2.30167e-06
-5.03725e-05
-8.88476e-07
-6.99961e-05
9.47983e-06
-0.0001012
2.8468e-05
-0.000135133
5.4713e-05
-0.000165578
8.61375e-05
-0.000189656
0.00012099
-0.000205918
0.000157492
-0.000214138
0.000194194
-0.00021465
0.000229598
-0.000207721
0.000262536
-0.000193656
0.000291758
-0.000173098
0.000316304
-0.000146949
0.000335437
-0.00011628
0.000348749
-8.23589e-05
0.000356033
-4.65366e-05
0.000357452
-1.01172e-05
0.000353164
2.60466e-05
0.00034372
6.04647e-05
0.000329709
9.25465e-05
0.000311642
0.000121854
0.000290305
0.00014752
0.000266345
0.000169715
0.000240355
0.000188209
0.000213011
0.000202993
0.000184762
0.000214221
0.000156208
0.000221825
0.000127874
0.000226213
0.000100187
0.000227752
7.35044e-05
0.000226979
4.8065e-05
0.000224595
2.37248e-05
0.000221381
3.05707e-07
0.000218088
-2.24861e-05
0.00021524
-4.50297e-05
0.000213023
-6.77971e-05
0.0002113
-9.08924e-05
0.000209608
-0.000114369
0.000207391
-0.000138235
0.000204032
-0.000162293
0.000198947
-0.000186185
0.000191645
-0.000209449
0.000181566
-0.000231817
0.000168883
-0.000252777
0.000153226
-0.00027181
0.000134431
-0.000288347
0.000112494
-0.000301747
8.71866e-05
-0.000311212
5.91819e-05
-0.000316291
2.87263e-05
-0.000316178
-3.94045e-06
-0.000310658
-3.69144e-05
-0.000299616
-6.94327e-05
-0.000283151
-0.00010041
-0.000261592
-0.000128467
-0.000235602
-0.000152527
-0.000205996
-0.000171602
-0.000173873
-0.000184807
-0.000140266
-0.000191411
-0.000106597
-0.000190851
-7.44756e-05
-0.000182505
-4.59726e-05
-0.000165761
-2.30489e-05
-0.000141429
-7.89171e-06
-0.000110379
-1.78603e-06
-7.71087e-05
-4.69747e-06
-4.86413e-05
-1.43806e-05
-3.37077e-05
-2.58208e-05
-4.09587e-05
-3.32548e-05
-7.09323e-05
-3.3016e-05
-0.000111519
-2.29214e-05
-0.000140208
-6.01659e-06
-0.00012875
5.82232e-06
-5.81299e-05
2.72369e-05
-1.4386e-05
3.69173e-05
-2.04026e-05
-5.24034e-05
-2.84271e-05
-0.000119682
-4.21399e-05
-0.000122804
-5.82985e-05
-9.21695e-05
-7.19638e-05
-5.86997e-05
-7.94741e-05
-4.27202e-05
-7.85758e-05
-5.12641e-05
-6.79445e-05
-8.06254e-05
-4.77867e-05
-0.000121366
-1.91211e-05
-0.000163807
1.6489e-05
-0.000201197
5.70734e-05
-0.00023025
0.000100798
-0.000249653
0.000145805
-0.000259155
0.000190516
-0.000259369
0.000233401
-0.000250612
0.000272989
-0.000233248
0.000307861
-0.000207972
0.000336956
-0.000176046
0.000359476
-0.000138799
0.000375062
-9.79467e-05
0.000383703
-5.51797e-05
0.000385575
-1.19932e-05
0.00038086
3.07576e-05
0.00037025
7.10691e-05
0.000354521
0.00010827
0.000334306
0.000142063
0.000310452
0.000171367
0.00028386
0.000196301
0.000255154
0.000216908
0.000224998
0.000233145
0.000194008
0.000245206
0.000162702
0.000253128
0.000131968
0.000256945
0.000102187
0.000257532
7.38993e-05
0.000255266
4.71926e-05
0.000251302
2.20213e-05
0.000246552
-1.94731e-06
0.000242055
-2.52393e-05
0.000238529
-4.84005e-05
0.000236181
-7.18925e-05
0.000234787
-9.60299e-05
0.000233741
-0.000120861
0.000232217
-0.000146314
0.00022948
-0.000172121
0.000224748
-0.000197866
0.000217387
-0.000223305
0.000207003
-0.000247817
0.000193393
-0.00027096
0.00017637
-0.00029233
0.000155803
-0.000311098
0.000131266
-0.000326501
0.000102595
-0.000337622
7.03088e-05
-0.000343588
3.46975e-05
-0.000343831
-3.69261e-06
-0.000337686
-4.30571e-05
-0.000324927
-8.21885e-05
-0.000305757
-0.000119579
-0.00028033
-0.000153894
-0.000249295
-0.000183564
-0.000213586
-0.000207315
-0.000174379
-0.000224016
-0.000132869
-0.000232922
-9.06327e-05
-0.000233091
-4.95448e-05
-0.000223599
-1.1412e-05
-0.0002039
2.10542e-05
-0.000173896
4.59315e-05
-0.000135251
6.15384e-05
-9.27154e-05
6.71573e-05
-5.42675e-05
6.37129e-05
-3.02627e-05
5.33473e-05
-3.05907e-05
3.94431e-05
-5.70302e-05
2.62141e-05
-9.83068e-05
1.74292e-05
-0.000131427
1.51575e-05
-0.000126476
1.32885e-05
-5.62866e-05
4.0518e-05
-3.09004e-05
6.78251e-05
-6.46965e-05
-1.86129e-05
-0.000103427
-8.0941e-05
-0.000142208
-8.40255e-05
-0.00017318
-6.12074e-05
-0.000191399
-4.04854e-05
-0.000195418
-3.87088e-05
-0.000185543
-6.11386e-05
-0.00016357
-0.000102589
-0.000131389
-0.000153543
-9.08176e-05
-0.000204376
-4.36313e-05
-0.00024838
8.17529e-06
-0.000282052
6.26908e-05
-0.000304163
0.000118254
-0.000314711
0.000172805
-0.000313914
0.00022457
-0.000302368
0.000271987
-0.000280658
0.000313373
-0.000249351
0.000347725
-0.000210393
0.000374242
-0.000165313
0.000392702
-0.000116404
0.000403254
-6.573e-05
0.000406285
-1.5022e-05
0.00040204
3.50054e-05
0.000391024
8.20897e-05
0.000374067
0.000125234
0.000352195
0.000163943
0.000326315
0.000197253
0.000297513
0.00022511
0.000266442
0.000247984
0.000233827
0.000265762
0.000200282
0.000278753
0.000166582
0.000286826
0.000133431
0.000290094
0.000101802
0.000289159
7.21589e-05
0.000284906
4.47287e-05
0.000278728
1.9532e-05
0.000271744
-4.13102e-06
0.000265712
-2.71047e-05
0.000261497
-5.0233e-05
0.000259303
-7.4203e-05
0.000258751
-9.90358e-05
0.000258569
-0.000125015
0.000258193
-0.000151934
0.000256399
-0.000179337
0.000252153
-0.000206886
0.000244939
-0.00023393
0.00023405
-0.000260168
0.000219635
-0.00028533
0.000201537
-0.000308704
0.000179183
-0.000329508
0.000152075
-0.000346791
0.000119883
-0.000359424
8.2944e-05
-0.000366346
4.16213e-05
-0.000366763
-3.27619e-06
-0.000360055
-4.97677e-05
-0.000345734
-9.65133e-05
-0.000323539
-0.00014178
-0.000293733
-0.000183706
-0.000256833
-0.000220472
-0.000213874
-0.00025028
-0.000165961
-0.000271934
-0.000114671
-0.000284216
-6.16415e-05
-0.000286125
-8.94289e-06
-0.000276302
4.11119e-05
-0.000253955
8.60454e-05
-0.000218824
0.000123967
-0.000173169
0.000152431
-0.000121186
0.00017004
-7.18827e-05
0.000175742
-3.59553e-05
0.000168803
-2.36546e-05
0.00014935
-3.75636e-05
0.00012009
-6.90546e-05
8.64685e-05
-9.78123e-05
5.4886e-05
-9.48692e-05
2.79031e-05
-2.92937e-05
6.84183e-05
-5.51453e-05
0.000122996
-0.000124643
5.08885e-05
-0.000197276
-8.30972e-06
-0.000262647
-1.86549e-05
-0.000310136
-1.37151e-05
-0.000335263
-1.53501e-05
-0.000338345
-3.56334e-05
-0.000322027
-7.74681e-05
-0.000290523
-0.0001341
-0.000247156
-0.000196918
-0.000194269
-0.00025727
-0.000134094
-0.000308564
-6.90134e-05
-0.00034714
-1.38404e-06
-0.000371799
6.65958e-05
-0.000382698
0.000132714
-0.000380035
0.000194917
-0.000364575
0.00025115
-0.000336894
0.000299989
-0.000298193
0.00034027
-0.000250678
0.000371235
-0.000196284
0.000393276
-0.000138452
0.000406689
-7.91496e-05
0.000411805
-2.01458e-05
0.000409071
3.77318e-05
0.00039854
9.26128e-05
0.000381314
0.000142452
0.00035864
0.00018661
0.000331669
0.000224216
0.000301601
0.000255171
0.000269407
0.000280171
0.000235275
0.000299889
0.000199994
0.000314029
0.000164325
0.000322494
0.000129325
0.000325094
9.64353e-05
0.000322051
6.62744e-05
0.000315071
3.95219e-05
0.000305485
1.5631e-05
0.000295639
-6.19833e-06
0.000287545
-2.73892e-05
0.000282691
-4.92083e-05
0.000281125
-7.23277e-05
0.000281873
-9.72521e-05
0.000283495
-0.00012369
0.000284633
-0.000151478
0.000284192
-0.000180058
0.000280737
-0.000208598
0.000273484
-0.000236593
0.00026205
-0.000263766
0.000246813
-0.000289857
0.000227632
-0.000314701
0.000204031
-0.000337332
0.000174709
-0.000356263
0.000138817
-0.000370276
9.69582e-05
-0.000378067
4.94122e-05
-0.000378743
-2.60023e-06
-0.000371398
-5.71138e-05