/*--------------------------------*- C++ -*----------------------------------*\
| =========                 |                                                 |
| \\      /  F ield         | OpenFOAM: The Open Source CFD Toolbox           |
|  \\    /   O peration     | Version:  2412                                  |
|   \\  /    A nd           | Website:  www.openfoam.com                      |
|    \\/     M anipulation  |                                                 |
\*---------------------------------------------------------------------------*/
FoamFile
{
    version     2.0;
    format      ascii;
    arch        "LSB;label=32;scalar=64";
    class       volVectorField;
    location    "7.25";
    object      U;
}
// * * * * * * * * * * * * * * * * * * * * * * * * * * * * * * * * * * * * * //

dimensions      [0 1 -1 0 0 0 0];

internalField   nonuniform List<vector> 
6400
(
(0.000171769 -0.000173597 0)
(0.000524259 -0.000176606 0)
(0.0010901 -0.000189884 0)
(0.00175978 -0.000172008 0)
(0.00243347 -0.000116671 0)
(0.00299061 -3.46304e-05 0)
(0.00334819 7.34391e-05 0)
(0.00344967 0.000188626 0)
(0.00326217 0.000313491 0)
(0.00278563 0.000440205 0)
(0.00203116 0.000565127 0)
(0.00101253 0.000680361 0)
(-0.000259353 0.000785094 0)
(-0.00176242 0.000882093 0)
(-0.00346215 0.000970412 0)
(-0.0053268 0.00104007 0)
(-0.00732981 0.00108805 0)
(-0.00943864 0.0011196 0)
(-0.0116137 0.00112622 0)
(-0.0138076 0.00111031 0)
(-0.0159723 0.00106683 0)
(-0.0180605 0.000995426 0)
(-0.0200191 0.000899264 0)
(-0.0217948 0.00077772 0)
(-0.0233374 0.000631044 0)
(-0.0245987 0.000464997 0)
(-0.0255356 0.000279072 0)
(-0.0261094 7.63323e-05 0)
(-0.0262922 -0.000137604 0)
(-0.026055 -0.000360033 0)
(-0.0253807 -0.000586001 0)
(-0.0242796 -0.000807145 0)
(-0.0227368 -0.00101694 0)
(-0.0207698 -0.00121734 0)
(-0.0184316 -0.00139944 0)
(-0.015743 -0.00155688 0)
(-0.0127543 -0.00168663 0)
(-0.00953129 -0.00178806 0)
(-0.00613091 -0.00185503 0)
(-0.00262322 -0.00188481 0)
(0.000920179 -0.00187908 0)
(0.00442639 -0.00183778 0)
(0.0078186 -0.00176643 0)
(0.0110265 -0.00165744 0)
(0.0139894 -0.00152418 0)
(0.0166549 -0.00136409 0)
(0.018982 -0.0011831 0)
(0.0209283 -0.000983707 0)
(0.0224696 -0.000777407 0)
(0.0236044 -0.000568991 0)
(0.0243366 -0.000361595 0)
(0.0246736 -0.000159268 0)
(0.0246294 3.229e-05 0)
(0.0242341 0.000212662 0)
(0.0235216 0.000374094 0)
(0.0225305 0.000516006 0)
(0.0213047 0.000637407 0)
(0.0198876 0.000734917 0)
(0.018324 0.000809748 0)
(0.0166602 0.00086285 0)
(0.0149381 0.000893121 0)
(0.0131967 0.000903748 0)
(0.0114733 0.000895933 0)
(0.00979727 0.000872079 0)
(0.00819372 0.000834608 0)
(0.00668692 0.000787023 0)
(0.00529471 0.000728534 0)
(0.00403434 0.000664393 0)
(0.00291709 0.000592533 0)
(0.00195472 0.000518705 0)
(0.00116621 0.000442738 0)
(0.000566486 0.000361525 0)
(0.000162819 0.000283505 0)
(-4.58582e-05 0.000210332 0)
(-7.23552e-05 0.0001445 0)
(3.53192e-05 9.54486e-05 0)
(0.000195113 6.93257e-05 0)
(0.000315142 7.15141e-05 0)
(0.000318303 9.58059e-05 0)
(9.30874e-05 8.7115e-05 0)
(0.0001886 -0.000539365 0)
(0.000736965 -0.000753846 0)
(0.00183801 -0.00109597 0)
(0.00322551 -0.00123771 0)
(0.00471893 -0.00117024 0)
(0.0061233 -0.000928646 0)
(0.00728313 -0.00055827 0)
(0.00810183 -0.000122475 0)
(0.00853532 0.000340743 0)
(0.00857617 0.000803462 0)
(0.00824787 0.00124544 0)
(0.00757667 0.00165183 0)
(0.00659031 0.00202098 0)
(0.00532189 0.00235662 0)
(0.00380341 0.00265682 0)
(0.00206517 0.00290861 0)
(0.000144648 0.00310612 0)
(-0.00193211 0.00324938 0)
(-0.00412891 0.00333199 0)
(-0.00639657 0.00334765 0)
(-0.00869264 0.00328693 0)
(-0.0109644 0.00314493 0)
(-0.0131578 0.00292405 0)
(-0.0152196 0.00262338 0)
(-0.0170911 0.00224738 0)
(-0.0187202 0.00180062 0)
(-0.0200596 0.00128525 0)
(-0.0210549 0.000712035 0)
(-0.0216686 9.66917e-05 0)
(-0.0218719 -0.000554299 0)
(-0.0216438 -0.00122301 0)
(-0.0209879 -0.00189177 0)
(-0.0198834 -0.00253467 0)
(-0.0183416 -0.00315839 0)
(-0.0164134 -0.00372604 0)
(-0.0141143 -0.00422491 0)
(-0.0114973 -0.0046429 0)
(-0.00862784 -0.00496461 0)
(-0.00556055 -0.00519045 0)
(-0.00237252 -0.0053025 0)
(0.000861314 -0.00529989 0)
(0.00406002 -0.00518138 0)
(0.00715106 -0.00495613 0)
(0.0100514 -0.00462634 0)
(0.0126946 -0.00420985 0)
(0.0150378 -0.00371571 0)
(0.017037 -0.00315793 0)
(0.0186421 -0.00256211 0)
(0.0198291 -0.00193714 0)
(0.020614 -0.00131849 0)
(0.0210028 -0.000712287 0)
(0.020998 -0.000122034 0)
(0.0206226 0.000422558 0)
(0.0199093 0.000934764 0)
(0.0188962 0.00137776 0)
(0.0176318 0.00175837 0)
(0.0161617 0.00207147 0)
(0.0145345 0.0023133 0)
(0.0127987 0.00248618 0)
(0.0110002 0.00259333 0)
(0.00918244 0.00263774 0)
(0.0073821 0.00262567 0)
(0.00563344 0.00256532 0)
(0.00396631 0.00246305 0)
(0.00240529 0.00232621 0)
(0.000970553 0.0021595 0)
(-0.000317084 0.0019664 0)
(-0.00143553 0.00175065 0)
(-0.00236898 0.00150891 0)
(-0.0030911 0.00124598 0)
(-0.0035696 0.000956862 0)
(-0.00377271 0.000639123 0)
(-0.00367882 0.000314386 0)
(-0.00329057 7.88016e-06 0)
(-0.00264182 -0.000243908 0)
(-0.00181647 -0.000385907 0)
(-0.000950109 -0.000376025 0)
(-0.000218013 -0.000190487 0)
(0.000232216 0.000174456 0)
(0.000106395 0.000306208 0)
(0.000256105 -0.00114854 0)
(0.00117267 -0.00186416 0)
(0.00281873 -0.00269764 0)
(0.00483197 -0.00308054 0)
(0.00698512 -0.00302101 0)
(0.00902255 -0.00258769 0)
(0.0107525 -0.00188988 0)
(0.0120624 -0.00104104 0)
(0.0129061 -0.000142531 0)
(0.0132801 0.000745547 0)
(0.0132115 0.00158514 0)
(0.0127389 0.00235648 0)
(0.0118996 0.003056 0)
(0.0107324 0.00368579 0)
(0.00927379 0.00424404 0)
(0.00755744 0.00472305 0)
(0.00561825 0.00511518 0)
(0.00349096 0.00541131 0)
(0.00121525 0.00560979 0)
(-0.00116467 0.00569396 0)
(-0.00360377 0.00565249 0)
(-0.00605038 0.00547868 0)
(-0.00844909 0.00517197 0)
(-0.0107399 0.00472346 0)
(-0.0128632 0.00414745 0)
(-0.0147658 0.0034434 0)
(-0.0163889 0.00261093 0)
(-0.0176696 0.00168793 0)
(-0.0185754 0.000680204 0)
(-0.0190747 -0.000386951 0)
(-0.019137 -0.00148896 0)
(-0.0187546 -0.00259587 0)
(-0.0179202 -0.00367412 0)
(-0.0166372 -0.00470804 0)
(-0.0149432 -0.00565898 0)
(-0.0128716 -0.00649834 0)
(-0.0104592 -0.00720158 0)
(-0.00777951 -0.00775146 0)
(-0.00489296 -0.00813493 0)
(-0.00187297 -0.0083339 0)
(0.00119442 -0.00834023 0)
(0.00422481 -0.00814952 0)
(0.00714195 -0.00777089 0)
(0.00986454 -0.00722758 0)
(0.0123221 -0.00653239 0)
(0.0144661 -0.00571068 0)
(0.0162478 -0.00477776 0)
(0.0176354 -0.00378866 0)
(0.018591 -0.00276826 0)
(0.0191167 -0.00173827 0)
(0.0192497 -0.000729437 0)
(0.0189707 0.000232376 0)
(0.0183179 0.00113301 0)
(0.0173277 0.00195395 0)
(0.0160333 0.00266767 0)
(0.0145073 0.00327128 0)
(0.0127875 0.003757 0)
(0.0109275 0.00412155 0)
(0.00897757 0.00436786 0)
(0.00698606 0.00450145 0)
(0.00499717 0.00453165 0)
(0.00305058 0.00446891 0)
(0.00118191 0.00432631 0)
(-0.000579837 0.0041143 0)
(-0.00220856 0.00384274 0)
(-0.00367951 0.00351688 0)
(-0.00496845 0.00314584 0)
(-0.00605143 0.0027265 0)
(-0.00690292 0.00225514 0)
(-0.00748872 0.00172727 0)
(-0.00776814 0.00113653 0)
(-0.00770222 0.000487748 0)
(-0.0072597 -0.000184366 0)
(-0.00643765 -0.000820551 0)
(-0.00527674 -0.00133 0)
(-0.00387367 -0.00160341 0)
(-0.0023994 -0.00154965 0)
(-0.00109215 -0.00110791 0)
(-0.000148352 -0.00024971 0)
(5.19841e-05 0.000324253 0)
(0.000325366 -0.00199003 0)
(0.00155004 -0.00337956 0)
(0.00366183 -0.00480676 0)
(0.00620747 -0.00546579 0)
(0.00889331 -0.0053969 0)
(0.0114069 -0.00472664 0)
(0.013531 -0.0036292 0)
(0.0151494 -0.00229455 0)
(0.0162232 -0.000886121 0)
(0.0167664 0.000490775 0)
(0.0168202 0.00178258 0)
(0.0164323 0.0029655 0)
(0.0156462 0.00403615 0)
(0.0145034 0.00499729 0)
(0.0130413 0.00585048 0)
(0.0112935 0.00658962 0)
(0.00929411 0.00720487 0)
(0.00708 0.00768649 0)
(0.0046919 0.00802398 0)
(0.00217315 0.0082001 0)
(-0.000427694 0.00820219 0)
(-0.0030556 0.00802064 0)
(-0.00566229 0.00764456 0)
(-0.00817659 0.00707001 0)
(-0.0105272 0.00629866 0)
(-0.012674 0.00533873 0)
(-0.0145296 0.00420483 0)
(-0.0160347 0.00292045 0)
(-0.0171686 0.00150716 0)
(-0.0178828 1.00696e-05 0)
(-0.0181449 -0.00154233 0)
(-0.0179414 -0.00312234 0)
(-0.0172568 -0.00465406 0)
(-0.0160969 -0.00613667 0)
(-0.0145031 -0.00749599 0)
(-0.0125006 -0.00871174 0)
(-0.0101385 -0.00973245 0)
(-0.00748206 -0.0105338 0)
(-0.00459683 -0.0110916 0)
(-0.00157687 -0.0113849 0)
(0.00149487 -0.0113983 0)
(0.0045281 -0.0111302 0)
(0.00743715 -0.0105919 0)
(0.0101388 -0.00980797 0)
(0.0125591 -0.00881373 0)
(0.0146468 -0.00763769 0)
(0.0163463 -0.00630224 0)
(0.0176116 -0.00489093 0)
(0.0184316 -0.0034419 0)
(0.0188002 -0.00197078 0)
(0.0187281 -0.000534882 0)
(0.018233 0.000818484 0)
(0.0173487 0.00209212 0)
(0.0161133 0.00322482 0)
(0.0145784 0.00421241 0)
(0.012807 0.00503245 0)
(0.0108457 0.00568765 0)
(0.00875467 0.00616173 0)
(0.00659148 0.00646605 0)
(0.00440723 0.00660803 0)
(0.00224972 0.00660285 0)
(0.000158858 0.00646898 0)
(-0.00183018 0.00622118 0)
(-0.00368831 0.0058751 0)
(-0.0053896 0.00544207 0)
(-0.00690687 0.00493056 0)
(-0.00821669 0.00434579 0)
(-0.00929506 0.00368736 0)
(-0.0101138 0.00294557 0)
(-0.0106383 0.00210616 0)
(-0.0108243 0.0011616 0)
(-0.0106228 0.000120528 0)
(-0.00998932 -0.000964477 0)
(-0.00890292 -0.00199996 0)
(-0.00739127 -0.00283528 0)
(-0.00555438 -0.00329141 0)
(-0.00358928 -0.00321166 0)
(-0.00179928 -0.00247306 0)
(-0.000444732 -0.00100877 0)
(7.62277e-06 0.000175806 0)
(0.000402248 -0.0030455 0)
(0.00191946 -0.00526934 0)
(0.00451364 -0.00739525 0)
(0.00761667 -0.00836379 0)
(0.010825 -0.00824473 0)
(0.0137586 -0.00725013 0)
(0.0161782 -0.00565488 0)
(0.0179773 -0.00374805 0)
(0.019147 -0.00176587 0)
(0.019733 0.000147609 0)
(0.0197997 0.00192435 0)
(0.0194075 0.0035425 0)
(0.0186054 0.00500424 0)
(0.0174351 0.00631664 0)
(0.0159313 0.00748591 0)
(0.0141244 0.00850862 0)
(0.0120446 0.00937285 0)
(0.00972583 0.0100641 0)
(0.00720698 0.0105677 0)
(0.00453514 0.0108634 0)
(0.00176166 0.0109322 0)
(-0.00106471 0.0107586 0)
(-0.00388469 0.010325 0)
(-0.00662531 0.00963435 0)
(-0.00921473 0.00867544 0)
(-0.0115898 0.00746218 0)
(-0.0136791 0.00601912 0)
(-0.0154142 0.00436271 0)
(-0.0167438 0.00253838 0)
(-0.0176308 0.000588162 0)
(-0.0180605 -0.00144275 0)
(-0.0179737 -0.00351127 0)
(-0.0173821 -0.00552961 0)
(-0.0162842 -0.00748471 0)
(-0.0146991 -0.00928121 0)
(-0.0126892 -0.0109036 0)
(-0.0102791 -0.0122703 0)
(-0.00755469 -0.0133437 0)
(-0.00458533 -0.0140895 0)
(-0.00146191 -0.0144791 0)
(0.00171579 -0.0145025 0)
(0.0048479 -0.0141489 0)
(0.00784889 -0.0134321 0)
(0.0106206 -0.0123962 0)
(0.0130839 -0.0110773 0)
(0.0151939 -0.00952216 0)
(0.0168665 -0.00776911 0)
(0.0180691 -0.00590703 0)
(0.018809 -0.00398075 0)
(0.0190533 -0.0020423 0)
(0.0188172 -0.00015728 0)
(0.0181325 0.00162305 0)
(0.0170254 0.00327792 0)
(0.0155471 0.00474691 0)
(0.0137639 0.00601027 0)
(0.0117473 0.00704323 0)
(0.00954307 0.00784413 0)
(0.00721733 0.00841484 0)
(0.0048457 0.0087603 0)
(0.0024765 0.00888714 0)
(0.000161133 0.00882157 0)
(-0.00206148 0.00858945 0)
(-0.00415733 0.00821097 0)
(-0.00609688 0.0077055 0)
(-0.00785492 0.00708686 0)
(-0.00940871 0.00636588 0)
(-0.0107379 0.00554877 0)
(-0.0118246 0.00463305 0)
(-0.0126493 0.00360523 0)
(-0.0131771 0.0024415 0)
(-0.0133609 0.00111909 0)
(-0.0131404 -0.000352503 0)
(-0.0124444 -0.00191111 0)
(-0.0112162 -0.00342893 0)
(-0.00944929 -0.00468858 0)
(-0.00723342 -0.00541256 0)
(-0.00478944 -0.00534127 0)
(-0.00248977 -0.00427012 0)
(-0.000713278 -0.00208315 0)
(-3.76924e-05 -0.000120861 0)
(0.000494876 -0.00433563 0)
(0.00236813 -0.00757452 0)
(0.00557146 -0.0105345 0)
(0.00936629 -0.0118288 0)
(0.013181 -0.0115719 0)
(0.0165272 -0.0101069 0)
(0.0191542 -0.00786738 0)
(0.0209986 -0.00527513 0)
(0.022114 -0.00264795 0)
(0.0226008 -0.000161621 0)
(0.0225577 0.00211491 0)
(0.0220613 0.00417328 0)
(0.021164 0.00602905 0)
(0.0199018 0.00769936 0)
(0.0183018 0.00919623 0)
(0.0163871 0.0105185 0)
(0.0141818 0.0116523 0)
(0.0117163 0.0125788 0)
(0.00902691 0.0132752 0)
(0.00615698 0.0137162 0)
(0.00315966 0.0138713 0)
(8.9161e-05 0.0137187 0)
(-0.00298845 0.0132484 0)
(-0.00599815 0.012443 0)
(-0.00886311 0.0113025 0)
(-0.011515 0.00983327 0)
(-0.0138684 0.00805563 0)
(-0.0158396 0.00601446 0)
(-0.0173787 0.00375456 0)
(-0.0184393 0.00131655 0)
(-0.0189918 -0.00122961 0)
(-0.0189844 -0.00381719 0)
(-0.0184309 -0.00638743 0)
(-0.0173121 -0.00883062 0)
(-0.0156618 -0.0111243 0)
(-0.0135371 -0.0131709 0)
(-0.0109691 -0.0149151 0)
(-0.00805757 -0.0162971 0)
(-0.00486818 -0.0172395 0)
(-0.0015151 -0.0177335 0)
(0.00190333 -0.0177576 0)
(0.00528089 -0.0173161 0)
(0.00849618 -0.0164133 0)
(0.0114542 -0.0150967 0)
(0.0140752 -0.0134176 0)
(0.0163 -0.0114371 0)
(0.0180389 -0.00924528 0)
(0.0192474 -0.00687292 0)
(0.0199448 -0.00443806 0)
(0.0200959 -0.0019808 0)
(0.0197104 0.000393332 0)
(0.0188377 0.00263608 0)
(0.0175044 0.00469928 0)
(0.0157667 0.0065218 0)
(0.0137086 0.00807055 0)
(0.0114035 0.0093183 0)
(0.00892541 0.0102567 0)
(0.00634687 0.0109052 0)
(0.00373163 0.0112606 0)
(0.00114553 0.0113476 0)
(-0.00135154 0.011193 0)
(-0.00372481 0.0108318 0)
(-0.00594098 0.0102953 0)
(-0.00797149 0.00960469 0)
(-0.00979549 0.00877861 0)
(-0.0113968 0.00783035 0)
(-0.0127684 0.00677527 0)
(-0.0139042 0.00560909 0)
(-0.0147949 0.00430268 0)
(-0.0154192 0.00282304 0)
(-0.0157226 0.00112376 0)
(-0.015623 -0.000801443 0)
(-0.0150156 -0.0028944 0)
(-0.0137833 -0.00500346 0)
(-0.0118509 -0.00683231 0)
(-0.00926706 -0.00796655 0)
(-0.00627134 -0.00798592 0)
(-0.00334061 -0.00656101 0)
(-0.00102189 -0.0035106 0)
(-8.03164e-05 -0.00058169 0)
(0.00061508 -0.0059359 0)
(0.00301445 -0.0104521 0)
(0.00713202 -0.0144357 0)
(0.0119132 -0.0160262 0)
(0.0164898 -0.0154384 0)
(0.0202331 -0.0132482 0)
(0.0229208 -0.010141 0)
(0.0246044 -0.00671592 0)
(0.0254589 -0.00337188 0)
(0.0256709 -0.000295893 0)
(0.0253836 0.00246906 0)
(0.024684 0.00494935 0)
(0.0236163 0.00718523 0)
(0.022202 0.00920898 0)
(0.0204537 0.0110393 0)
(0.0183825 0.0126746 0)
(0.0160038 0.0140975 0)
(0.0133409 0.0152829 0)
(0.0104258 0.0161977 0)
(0.00729898 0.016809 0)
(0.00401268 0.0170768 0)
(0.000631951 0.0169718 0)
(-0.00277799 0.0164759 0)
(-0.00613487 0.0155663 0)
(-0.00934746 0.0142425 0)
(-0.0123415 0.012503 0)
(-0.0150137 0.0103688 0)
(-0.0172672 0.00790797 0)
(-0.0190465 0.00516432 0)
(-0.0202866 0.00218502 0)
(-0.0209498 -0.000923484 0)
(-0.0210008 -0.00409506 0)
(-0.0204199 -0.00725534 0)
(-0.0192203 -0.0102819 0)
(-0.0174197 -0.0131078 0)
(-0.0150675 -0.0156405 0)
(-0.0122388 -0.0177978 0)
(-0.00899648 -0.0195104 0)
(-0.00544181 -0.0206887 0)
(-0.00170543 -0.0213099 0)
(0.00210222 -0.021342 0)
(0.00585719 -0.0207932 0)
(0.0094485 -0.0196799 0)
(0.0127423 -0.0180438 0)
(0.0156442 -0.0159606 0)
(0.0180697 -0.0134905 0)
(0.0199593 -0.010776 0)
(0.0212499 -0.00785166 0)
(0.0219439 -0.00483097 0)
(0.0220199 -0.00181794 0)
(0.0214807 0.00111033 0)
(0.020408 0.00387397 0)
(0.018817 0.0063772 0)
(0.0167815 0.00857771 0)
(0.0143989 0.010426 0)
(0.0117544 0.0118908 0)
(0.00893867 0.0129733 0)
(0.00603114 0.0136735 0)
(0.00311755 0.0140137 0)
(0.000270418 0.0140286 0)
(-0.00245645 0.0137516 0)
(-0.00501538 0.0132262 0)
(-0.0073746 0.0124956 0)
(-0.00951405 0.0115915 0)
(-0.0114209 0.0105377 0)
(-0.0130893 0.00935624 0)
(-0.0145308 0.00806664 0)
(-0.015765 0.00667288 0)
(-0.0167934 0.00512569 0)
(-0.0176067 0.00336528 0)
(-0.0181636 0.00131996 0)
(-0.0183651 -0.00106293 0)
(-0.0180542 -0.00375201 0)
(-0.0170194 -0.00659655 0)
(-0.0150602 -0.00921634 0)
(-0.0121169 -0.011009 0)
(-0.00842182 -0.0112974 0)
(-0.00460087 -0.00952548 0)
(-0.00148433 -0.00541092 0)
(-0.000142242 -0.00126161 0)
(0.000785303 -0.0079995 0)
(0.00405712 -0.0142334 0)
(0.00963959 -0.0194869 0)
(0.0158804 -0.0212436 0)
(0.0214167 -0.019916 0)
(0.0254641 -0.0165493 0)
(0.0279276 -0.0122435 0)
(0.0291116 -0.00781755 0)
(0.0294093 -0.00371836 0)
(0.0291302 -8.76514e-05 0)
(0.0284568 0.00310601 0)
(0.027467 0.00595348 0)
(0.0261761 0.00853369 0)
(0.024574 0.0108941 0)
(0.0226467 0.0130586 0)
(0.0203871 0.0150208 0)
(0.017797 0.0167558 0)
(0.0148916 0.0182277 0)
(0.0116972 0.019394 0)
(0.00825002 0.0202119 0)
(0.00460323 0.0206257 0)
(0.000826385 0.0205954 0)
(-0.00300635 0.0200868 0)
(-0.00679955 0.0190805 0)
(-0.0104512 0.0175642 0)
(-0.0138793 0.015523 0)
(-0.0169419 0.0130156 0)
(-0.0195333 0.0100824 0)
(-0.0216137 0.00679009 0)
(-0.0230632 0.00322213 0)
(-0.0238316 -0.000531653 0)
(-0.0239171 -0.00437454 0)
(-0.0232991 -0.00820614 0)
(-0.021954 -0.0118888 0)
(-0.0199259 -0.0153267 0)
(-0.0172638 -0.0184051 0)
(-0.0140397 -0.0210411 0)
(-0.0103535 -0.02312 0)
(-0.00630092 -0.0245834 0)
(-0.00203131 -0.0253555 0)
(0.00233252 -0.0254067 0)
(0.00663466 -0.0247297 0)
(0.0107323 -0.023359 0)
(0.0144827 -0.0213526 0)
(0.0177903 -0.0187985 0)
(0.0205285 -0.0157947 0)
(0.0226242 -0.0124516 0)
(0.0240549 -0.00888446 0)
(0.0247704 -0.00520123 0)
(0.0247744 -0.00154972 0)
(0.0241006 0.00202496 0)
(0.0227765 0.00535109 0)
(0.0208653 0.00835527 0)
(0.0184739 0.0109733 0)
(0.015693 0.0131453 0)
(0.0126322 0.0148386 0)
(0.00939133 0.0160485 0)
(0.00607434 0.0167869 0)
(0.00279047 0.0170888 0)
(-0.000386273 0.0169893 0)
(-0.00339367 0.016543 0)
(-0.006181 0.0158068 0)
(-0.00871275 0.0148369 0)
(-0.0109748 0.0136831 0)
(-0.0129694 0.0123785 0)
(-0.0147156 0.0109608 0)
(-0.0162429 0.00946168 0)
(-0.0175912 0.00787397 0)
(-0.0187985 0.00615295 0)
(-0.0198846 0.00419849 0)
(-0.0208378 0.00188192 0)
(-0.0215631 -0.000914612 0)
(-0.0218438 -0.00423648 0)
(-0.021331 -0.00798884 0)
(-0.019605 -0.0117305 0)
(-0.0163759 -0.014613 0)
(-0.0117884 -0.0155373 0)
(-0.00665081 -0.0135034 0)
(-0.00226209 -0.00806079 0)
(-0.000236848 -0.00226295 0)
(0.00103569 -0.0107966 0)
(0.00574501 -0.0194912 0)
(0.0135321 -0.026298 0)
(0.0217543 -0.0278518 0)
(0.0283842 -0.0250168 0)
(0.0325156 -0.0197356 0)
(0.0343354 -0.0137741 0)
(0.0345771 -0.00819695 0)
(0.0339703 -0.00339743 0)
(0.0329801 0.000651734 0)
(0.0318061 0.00413367 0)
(0.0304799 0.00724211 0)
(0.0289543 0.0101023 0)
(0.0271643 0.0127733 0)
(0.0250577 0.0152729 0)
(0.0226004 0.0175821 0)
(0.0197778 0.0196606 0)
(0.0165954 0.0214587 0)
(0.0130741 0.0229207 0)
(0.00924307 0.0239864 0)
(0.00515853 0.0245964 0)
(0.000898588 0.0246763 0)
(-0.00345586 0.0241831 0)
(-0.00779304 0.0230857 0)
(-0.0120031 0.0213615 0)
(-0.0159459 0.0190112 0)
(-0.0194834 0.016086 0)
(-0.0225184 0.0126085 0)
(-0.0249422 0.00868741 0)
(-0.0266484 0.00443751 0)
(-0.0275793 -6.13403e-05 0)
(-0.0277061 -0.0046733 0)
(-0.0269953 -0.00927363 0)
(-0.0254665 -0.0137038 0)
(-0.0231431 -0.017861 0)
(-0.0200796 -0.0215648 0)
(-0.0163669 -0.0247698 0)
(-0.0121048 -0.0272874 0)
(-0.0074261 -0.0290709 0)
(-0.00246618 -0.0300091 0)
(0.00260732 -0.0300591 0)
(0.00760556 -0.0292435 0)
(0.0123616 -0.0275885 0)
(0.0167009 -0.0251488 0)
(0.0204952 -0.0220428 0)
(0.0236354 -0.018402 0)
(0.0260383 -0.0143392 0)
(0.0276374 -0.0100145 0)
(0.0283947 -0.0055675 0)
(0.0283507 -0.00113881 0)
(0.027487 0.00313954 0)
(0.0258523 0.0071199 0)
(0.0235668 0.0107063 0)
(0.0207211 0.0137976 0)
(0.0174401 0.0163286 0)
(0.0138518 0.0182645 0)
(0.0100864 0.0195917 0)
(0.00627178 0.0203432 0)
(0.00252873 0.020559 0)
(-0.00104921 0.0202927 0)
(-0.00439075 0.0196159 0)
(-0.00744271 0.0186063 0)
(-0.0101704 0.0173405 0)
(-0.0125658 0.0158874 0)
(-0.0146453 0.0143027 0)
(-0.0164464 0.0126421 0)
(-0.0180317 0.0109541 0)
(-0.0194696 0.00922809 0)
(-0.0208418 0.00742695 0)
(-0.0222435 0.00541179 0)
(-0.0237174 0.00299286 0)
(-0.0251951 -6.41027e-05 0)
(-0.0264232 -0.00397346 0)
(-0.0268693 -0.00880309 0)
(-0.0257693 -0.0141301 0)
(-0.0224394 -0.0188042 0)
(-0.0168119 -0.021051 0)
(-0.00987382 -0.0190409 0)
(-0.00356011 -0.0119478 0)
(-0.000383551 -0.00380806 0)
(0.0013859 -0.0147578 0)
(0.00818736 -0.0269545 0)
(0.0187207 -0.0355177 0)
(0.0290518 -0.0361352 0)
(0.0366064 -0.0306455 0)
(0.040517 -0.0224563 0)
(0.0413599 -0.0142921 0)
(0.0403769 -0.00746488 0)
(0.0386873 -0.00214319 0)
(0.0369178 0.00206617 0)
(0.035256 0.00561184 0)
(0.0336481 0.00882246 0)
(0.0319507 0.0118725 0)
(0.0300275 0.0148268 0)
(0.0277785 0.0176742 0)
(0.0251398 0.0203661 0)
(0.0220815 0.0228381 0)
(0.0186001 0.0250208 0)
(0.0147095 0.026841 0)
(0.0104478 0.0282162 0)
(0.00585717 0.0290656 0)
(0.00101547 0.0293114 0)
(-0.00397196 0.0288718 0)
(-0.00898088 0.0277003 0)
(-0.0138559 0.0257615 0)
(-0.0184415 0.023084 0)
(-0.0225958 0.0196684 0)
(-0.0261689 0.0155649 0)
(-0.0290215 0.0109283 0)
(-0.0310461 0.00586524 0)
(-0.0321587 0.000505557 0)
(-0.0323227 -0.00499024 0)
(-0.0315218 -0.0104813 0)
(-0.0297682 -0.0158017 0)
(-0.0270745 -0.0207614 0)
(-0.0235364 -0.0252418 0)
(-0.0192238 -0.0290857 0)
(-0.0142526 -0.0321454 0)
(-0.00879571 -0.0343049 0)
(-0.00298453 -0.0354354 0)
(0.00294199 -0.0355131 0)
(0.00876488 -0.0345251 0)
(0.0143221 -0.0325181 0)
(0.0193935 -0.0295603 0)
(0.0238114 -0.025797 0)
(0.0274516 -0.0213935 0)
(0.0302078 -0.0164973 0)
(0.0320223 -0.0112765 0)
(0.0328548 -0.00592448 0)
(0.0327108 -0.000600865 0)
(0.0316185 0.00450475 0)
(0.0296348 0.00927694 0)
(0.0268644 0.0135387 0)
(0.0234449 0.0171681 0)
(0.019533 0.0200949 0)
(0.015286 0.0222807 0)
(0.0108697 0.0237181 0)
(0.00644593 0.02444 0)
(0.00215217 0.0245096 0)
(-0.00190194 0.0240027 0)
(-0.00563208 0.0230141 0)
(-0.00898076 0.0216518 0)
(-0.0119161 0.0200167 0)
(-0.0144378 0.0181999 0)
(-0.016575 0.0162878 0)
(-0.0183809 0.0143615 0)
(-0.0199423 0.0124901 0)
(-0.0213692 0.0106934 0)
(-0.0228234 0.00892685 0)
(-0.0244784 0.00705146 0)
(-0.026464 0.00481086 0)
(-0.028803 0.00178107 0)
(-0.0312105 -0.00255877 0)
(-0.0329362 -0.00860441 0)
(-0.0327996 -0.0160915 0)
(-0.0296378 -0.0235222 0)
(-0.0230869 -0.028127 0)
(-0.0142014 -0.0267265 0)
(-0.00548455 -0.0176877 0)
(-0.000610744 -0.00623031 0)
(0.00190081 -0.0203122 0)
(0.0111134 -0.037133 0)
(0.0239438 -0.0472685 0)
(0.0355161 -0.0458868 0)
(0.0432935 -0.0365382 0)
(0.0467253 -0.0245321 0)
(0.046715 -0.0137134 0)
(0.0448265 -0.00560625 0)
(0.0424263 3.23839e-06 0)
(0.0402285 0.00405969 0)
(0.0383657 0.00741308 0)
(0.0366987 0.0105728 0)
(0.0350071 0.0137479 0)
(0.0330842 0.0169844 0)
(0.0307804 0.0202181 0)
(0.0280123 0.0233536 0)
(0.0247409 0.0262915 0)
(0.0209575 0.0289382 0)
(0.0166706 0.031201 0)
(0.0119114 0.0329742 0)
(0.0067417 0.0341429 0)
(0.00123186 0.0346156 0)
(-0.0045151 0.0342719 0)
(-0.0103363 0.0330627 0)
(-0.0160263 0.0309071 0)
(-0.0214029 0.0278471 0)
(-0.0263208 0.0238519 0)
(-0.0305414 0.0190686 0)
(-0.033902 0.0135853 0)
(-0.0363114 0.00757048 0)
(-0.037644 0.00119515 0)
(-0.0378625 -0.00535236 0)
(-0.0369495 -0.0118831 0)
(-0.0348959 -0.0182078 0)
(-0.0317742 -0.0241328 0)
(-0.0276647 -0.0295206 0)
(-0.0226292 -0.0341097 0)
(-0.0168295 -0.0378028 0)
(-0.0104248 -0.0404032 0)
(-0.00362309 -0.041809 0)
(0.0033198 -0.0419303 0)
(0.0101652 -0.0407333 0)
(0.0166884 -0.0382692 0)
(0.0226348 -0.0347054 0)
(0.0277818 -0.0301733 0)
(0.0320087 -0.0248673 0)
(0.035221 -0.0189659 0)
(0.0372972 -0.0127052 0)
(0.0381945 -0.00627842 0)
(0.0379493 0.000109476 0)
(0.0365875 0.0062327 0)
(0.034165 0.0119048 0)
(0.0307845 0.0169351 0)
(0.0266396 0.0212103 0)
(0.0219403 0.0245826 0)
(0.0168826 0.027034 0)
(0.0116707 0.0285561 0)
(0.00650272 0.0291924 0)
(0.0015455 0.0290312 0)
(-0.003072 0.0281814 0)
(-0.00724461 0.0267813 0)
(-0.0109106 0.0249638 0)
(-0.0140498 0.0228588 0)
(-0.0166658 0.0205878 0)
(-0.0187929 0.0182714 0)
(-0.0204977 0.0160237 0)
(-0.0218898 0.0139488 0)
(-0.023141 0.0121199 0)
(-0.0244721 0.0105334 0)
(-0.0261268 0.00904033 0)
(-0.0283591 0.00729817 0)
(-0.0312931 0.00464417 0)
(-0.0346156 0.000101781 0)
(-0.0374057 -0.00725299 0)
(-0.0381952 -0.0174227 0)
(-0.0354881 -0.0285413 0)
(-0.0286652 -0.0366124 0)
(-0.0185839 -0.0366897 0)
(-0.00781169 -0.0257233 0)
(-0.000959738 -0.00989168 0)
(0.00256969 -0.0276101 0)
(0.0135859 -0.049557 0)
(0.0268329 -0.060319 0)
(0.0376724 -0.0558455 0)
(0.044511 -0.0420484 0)
(0.0473761 -0.0260501 0)
(0.0472507 -0.0126157 0)
(0.0455635 -0.00336271 0)
(0.0435351 0.00236646 0)
(0.0417861 0.00610135 0)
(0.0403685 0.00913958 0)
(0.0390856 0.0122041 0)
(0.0376939 0.0155379 0)
(0.0359701 0.0191157 0)
(0.0337454 0.0228166 0)
(0.0309334 0.0264904 0)
(0.0274969 0.0299953 0)
(0.0234293 0.0332091 0)
(0.0187322 0.0360167 0)
(0.0134338 0.038303 0)
(0.00759607 0.0399202 0)
(0.00129111 0.0407164 0)
(-0.00533196 0.0405383 0)
(-0.0121032 0.039315 0)
(-0.0187623 0.0369581 0)
(-0.0251003 0.033445 0)
(-0.0308806 0.0288116 0)
(-0.0358456 0.0232263 0)
(-0.0398443 0.0167335 0)
(-0.0426845 0.00958612 0)
(-0.0442519 0.00201344 0)
(-0.0444893 -0.00576188 0)
(-0.043394 -0.0135045 0)
(-0.0409969 -0.0210126 0)
(-0.0373744 -0.0280934 0)
(-0.032549 -0.0344725 0)
(-0.0266381 -0.0399677 0)
(-0.0198439 -0.0444169 0)
(-0.0123488 -0.0475762 0)
(-0.00437964 -0.0492854 0)
(0.00379895 -0.0494222 0)
(0.0118717 -0.0479851 0)
(0.0195152 -0.0450364 0)
(0.026456 -0.0407249 0)
(0.0325019 -0.0352541 0)
(0.0374672 -0.0288852 0)
(0.0411923 -0.0218241 0)
(0.0435856 -0.0143187 0)
(0.04462 -0.0066171 0)
(0.0442598 0.00102686 0)
(0.0425481 0.00835816 0)
(0.0395735 0.0151145 0)
(0.0354995 0.0210778 0)
(0.030499 0.0260737 0)
(0.024823 0.0299616 0)
(0.0187766 0.032691 0)
(0.0125916 0.0342557 0)
(0.0065204 0.0347256 0)
(0.000765781 0.0342247 0)
(-0.00450572 0.0329061 0)
(-0.00917628 0.0309595 0)
(-0.0131868 0.0285472 0)
(-0.0165114 0.0258371 0)
(-0.0191553 0.0229847 0)
(-0.0211604 0.0201466 0)
(-0.0226092 0.0174805 0)
(-0.0236279 0.0151526 0)
(-0.0244103 0.0132743 0)
(-0.02525 0.011921 0)
(-0.0264495 0.0109663 0)
(-0.0282934 0.00993865 0)
(-0.0309742 0.00791659 0)
(-0.0342334 0.00339456 0)
(-0.0371601 -0.00515133 0)
(-0.0383417 -0.0180988 0)
(-0.0363457 -0.0332069 0)
(-0.0304566 -0.0453614 0)
(-0.0210181 -0.0478736 0)
(-0.00980628 -0.0356898 0)
(-0.00143591 -0.0149313 0)
(0.00328404 -0.0361744 0)
(0.0142635 -0.0622037 0)
(0.0250844 -0.0719673 0)
(0.0329322 -0.0638771 0)
(0.0377601 -0.0462915 0)
(0.0401748 -0.0273282 0)
(0.0409359 -0.0120787 0)
(0.0408721 -0.00208669 0)
(0.0405938 0.00369288 0)
(0.0403685 0.00723947 0)
(0.0401482 0.0101476 0)
(0.0397615 0.0132989 0)
(0.0389998 0.0169508 0)
(0.0376925 0.0210254 0)
(0.0357135 0.0253454 0)
(0.032977 0.0297022 0)
(0.0294469 0.0339117 0)
(0.0251181 0.0378328 0)
(0.020004 0.0413321 0)
(0.0141252 0.0442696 0)
(0.00753504 0.0464667 0)
(0.000325003 0.0477056 0)
(-0.00730224 0.0478149 0)
(-0.0151109 0.0466186 0)
(-0.0228502 0.0440278 0)
(-0.0302281 0.0400327 0)
(-0.0369293 0.0346652 0)
(-0.0427301 0.0280902 0)
(-0.0473953 0.0204484 0)
(-0.0506537 0.0119367 0)
(-0.0523994 0.00294929 0)
(-0.0525847 -0.00625972 0)
(-0.0512248 -0.0154368 0)
(-0.0483756 -0.0243514 0)
(-0.0440477 -0.032687 0)
(-0.0383381 -0.0402268 0)
(-0.0314334 -0.0468328 0)
(-0.0234559 -0.052158 0)
(-0.0145956 -0.0559915 0)
(-0.00517274 -0.0580388 0)
(0.00445431 -0.0582175 0)
(0.0139304 -0.0564928 0)
(0.0229392 -0.0529521 0)
(0.0311311 -0.0477612 0)
(0.0381936 -0.0412139 0)
(0.043981 -0.0335991 0)
(0.0483889 -0.0251416 0)
(0.0512351 -0.0162104 0)
(0.0524372 -0.00697986 0)
(0.0520108 0.00216262 0)
(0.049965 0.0109362 0)
(0.0463915 0.0190138 0)
(0.041474 0.026112 0)
(0.0354708 0.031944 0)
(0.0287017 0.0364102 0)
(0.0214944 0.0394284 0)
(0.0141664 0.0409914 0)
(0.00703018 0.0411951 0)
(0.000336088 0.0402154 0)
(-0.00570266 0.0382641 0)
(-0.0109451 0.0355823 0)
(-0.0153217 0.0323887 0)
(-0.0187954 0.0288937 0)
(-0.0213725 0.0252815 0)
(-0.023099 0.0217555 0)
(-0.024063 0.0185196 0)
(-0.0244407 0.0158067 0)
(-0.0244479 0.013791 0)
(-0.0243371 0.0125797 0)
(-0.0244422 0.0121034 0)
(-0.0250175 0.011783 0)
(-0.0262434 0.010417 0)
(-0.0280046 0.00608516 0)
(-0.0297832 -0.00323548 0)
(-0.0306473 -0.0182435 0)
(-0.0295271 -0.0364743 0)
(-0.0258691 -0.0522958 0)
(-0.0193656 -0.057853 0)
(-0.0103133 -0.0459127 0)
(-0.00195437 -0.0209552 0)
(0.00379608 -0.0447741 0)
(0.0121664 -0.0721373 0)
(0.0180649 -0.0794062 0)
(0.0215318 -0.0683392 0)
(0.0239317 -0.0488611 0)
(0.026162 -0.028958 0)
(0.0284438 -0.0132708 0)
(0.0307556 -0.00309629 0)
(0.0329514 0.00281888 0)
(0.0348164 0.00657595 0)
(0.036177 0.00982534 0)
(0.0369555 0.0134442 0)
(0.0370472 0.0176919 0)
(0.0363712 0.0224949 0)
(0.034814 0.0276345 0)
(0.0322764 0.032867 0)
(0.0287209 0.0379666 0)
(0.0241482 0.0427796 0)
(0.0185676 0.0471643 0)
(0.0120242 0.0509323 0)
(0.0045891 0.0538773 0)
(-0.00357852 0.0557005 0)
(-0.0122445 0.0561652 0)
(-0.0211559 0.0550219 0)
(-0.0299248 0.0521737 0)
(-0.0382813 0.0476235 0)
(-0.0458743 0.0414085 0)
(-0.0523853 0.0336747 0)
(-0.0576483 0.0246615 0)
(-0.0612307 0.0145736 0)
(-0.0629529 0.00389797 0)
(-0.0628897 -0.00700519 0)
(-0.0610699 -0.0178398 0)
(-0.0574799 -0.0283116 0)
(-0.0522202 -0.038117 0)
(-0.0454986 -0.0470917 0)
(-0.0373161 -0.0549707 0)
(-0.0278242 -0.061324 0)
(-0.0172914 -0.0658955 0)
(-0.00606405 -0.0683957 0)
(0.00538633 -0.0686218 0)
(0.0166475 -0.066547 0)
(0.0272873 -0.0622401 0)
(0.0369093 -0.0560425 0)
(0.0452397 -0.0482324 0)
(0.0521399 -0.039092 0)
(0.0573498 -0.0290555 0)
(0.0608015 -0.0184663 0)
(0.0624114 -0.00750644 0)
(0.062015 0.00347833 0)
(0.0597018 0.013997 0)
(0.0555595 0.0236592 0)
(0.0497884 0.0320992 0)
(0.0427213 0.0389368 0)
(0.0347763 0.0440648 0)
(0.0263131 0.0473908 0)
(0.0177061 0.0489234 0)
(0.00935322 0.0487508 0)
(0.00157216 0.0471137 0)
(-0.00536466 0.0443337 0)
(-0.0112673 0.040685 0)
(-0.0160354 0.036465 0)
(-0.0196148 0.0319358 0)
(-0.0219946 0.0273122 0)
(-0.0232299 0.0228636 0)
(-0.0234477 0.0188556 0)
(-0.0228641 0.0155707 0)
(-0.0217458 0.0132321 0)
(-0.020314 0.0119656 0)
(-0.0188213 0.0116788 0)
(-0.0174678 0.0117595 0)
(-0.0163924 0.0108748 0)
(-0.0156815 0.00688251 0)
(-0.0153637 -0.00251164 0)
(-0.0152538 -0.0180973 0)
(-0.015028 -0.0375764 0)
(-0.0144175 -0.0554537 0)
(-0.0125888 -0.0637723 0)
(-0.008308 -0.0537194 0)
(-0.00230254 -0.0268989 0)
(0.00388322 -0.0518407 0)
(0.0075396 -0.0770971 0)
(0.00754407 -0.0814149 0)
(0.00656268 -0.0692412 0)
(0.00662295 -0.0502448 0)
(0.00861659 -0.0314089 0)
(0.0121335 -0.0165654 0)
(0.0163237 -0.00664316 0)
(0.0204384 -0.000427273 0)
(0.023927 0.00398769 0)
(0.0265739 0.00803841 0)