/*--------------------------------*- C++ -*----------------------------------*\
| =========                 |                                                 |
| \\      /  F ield         | OpenFOAM: The Open Source CFD Toolbox           |
|  \\    /   O peration     | Version:  2412                                  |
|   \\  /    A nd           | Website:  www.openfoam.com                      |
|    \\/     M anipulation  |                                                 |
\*---------------------------------------------------------------------------*/
FoamFile
{
    version     2.0;
    format      ascii;
    arch        "LSB;label=32;scalar=64";
    class       volScalarField;
    location    "6.85";
    object      alpha.water;
}
// * * * * * * * * * * * * * * * * * * * * * * * * * * * * * * * * * * * * * //

dimensions      [0 0 0 0 0 0 0];

internalField   nonuniform List<scalar> 
6400
(
1
1
1
1
1
1
1
1
1
1
1
1
1
1
1
1
1
1
1
1
1
1
1
1
1
1
1
1
1
1
1
1
1
1
1
1
1
1
1
0.999999
1
1
1
1
1
1
1
1
1
0.999999
0.999999
1
1
1
1
1
1
1
1
1
1
1
1
1
1
1
0.999999
0.999999
0.999999
0.999999
1
1
1
1
0.999999
0.999999
1
1
1
1
0.999997
1
1
1
1
1
1
1
1
1
1
1
1
1
1
1
1
1
1
1
1
1
1
1
1
1
1
1
1
1
1
1
1
1
1
1
0.999999
0.999999
1
1
1
1
1
1
1
1
1
1
1
1
1
1
1
1
1
1
1
1
1
1
0.999999
0.999999
0.999999
0.999999
0.999999
0.999999
0.999999
0.999999
0.999999
1
1
1
1
0.999999
0.999999
1
1
1
1
0.999999
0.999999
1
1
1
1
1
1
1
1
1
1
1
1
1
1
1
1
1
1
1
1
1
1
1
1
1
1
1
1
1
1
1
1
1
1
1
1
1
1
1
1
1
1
1
1
1
1
1
1
0.999999
0.999999
1
1
1
1
1
1
1
0.999999
0.999999
0.999999
1
1
1
1
1
1
0.999999
0.999999
0.999998
0.999999
1
0.999999
0.999999
1
1
0.999999
0.999999
1
1
1
1
1
1
1
1
1
1
1
1
1
1
1
1
1
1
1
1
1
1
1
1
1
1
1
1
1
1
1
1
1
1
1
1
1
1
1
1
1
1
1
1
0.999999
0.999999
0.999999
0.999999
1
1
1
1
0.999999
1
1
1
1
1
1
1
1
1
1
1
1
1
1
0.999999
0.999999
0.999999
0.999999
0.999999
1
0.999999
0.999999
0.999999
0.999999
0.999999
0.999999
1
1
1
1
1
1
1
1
1
1
1
1
1
1
1
1
1
1
1
1
1
1
1
1
1
1
1
1
1
1
1
1
1
1
1
1
1
1
1
1
1
1
1
1
1
1
1
1
1
1
1
1
1
1
1
1
1
1
1
1
1
1
1
1
1
1
1
1
1
1
1
1
1
1
1
1
1
1
1
1
1
1
1
1
1
1
1
1
1
1
1
1
1
1
1
1
1
1
1
1
1
1
1
1
1
1
1
1
1
1
1
1
1
1
1
1
1
1
1
1
1
1
1
1
1
1
1
1
1
1
1
1
1
1
1
1
1
1
1
1
1
0.999999
0.999999
0.999999
0.999999
1
0.999999
0.999999
0.999999
0.999999
1
1
1
1
1
1
1
1
1
1
1
1
1
1
1
1
1
1
1
1
1
1
0.999999
1
1
1
1
1
1
1
0.999999
0.999999
0.999998
0.999998
0.999999
0.999999
1
1
1
0.999999
0.999999
0.999999
0.999999
0.999999
1
1
1
1
1
1
1
1
1
1
1
1
1
1
1
1
1
1
1
1
0.999999
0.999999
0.999999
0.999999
0.999999
0.999999
0.999999
0.999999
1
0.999999
0.999998
0.999998
0.999998
0.999999
0.999998
0.999998
0.999999
0.999999
0.999999
0.999999
1
1
0.999999
0.999999
1
1
0.999999
1
1
1
1
1
1
1
1
0.999999
0.999999
0.999999
1
1
1
1
1
1
1
0.999999
0.999999
0.999999
0.999999
0.999998
0.999998
0.999998
0.999998
0.999999
0.999999
0.999999
0.999999
1
1
1
1
1
1
1
1
1
1
1
1
1
1
1
1
1
1
1
1
1
1
1
1
1
1
1
1
1
1
1
1
1
1
1
1
1
0.999999
0.999999
1
1
0.999999
1
1
1
1
1
1
1
1
1
1
1
1
1
1
1
1
0.999999
0.999999
1
1
1
1
1
1
1
1
1
1
1
1
1
0.999999
0.999999
1
1
1
1
1
1
1
1
1
1
1
1
1
1
1
1
1
1
1
1
1
1
1
1
1
1
1
1
1
1
1
1
1
1
1
1
1
1
1
1
1
1
1
1
1
1
1
1
1
1
1
1
1
1
1
1
1
1
1
1
1
1
1
1
1
1
1
1
1
1
1
1
1
1
1
1
1
1
1
1
1
1
1
1
1
1
1
1
1
1
1
1
1
1
1
1
1
0.999999
0.999999
1
1
1
1
1
1
1
1
1
1
1
1
1
1
1
1
1
1
1
1
1
1
1
1
1
1
1
1
1
0.999999
1
1
1
1
1
1
1
1
1
1
1
1
1
1
1
1
1
1
1
1
1
1
1
1
1
1
1
1
1
1
1
1
1
1
1
1
1
1
1
1
1
1
1
1
1
1
1
1
1
1
1
1
0.999999
0.999999
0.999999
0.999999
0.999999
0.999998
0.999998
0.999999
1
1
1
1
1
1
1
1
1
1
0.999999
1
1
1
1
1
1
1
1
1
1
1
1
0.999999
1
1
1
1
0.999759
0.998668
0.999893
1
1
1
1
1
1
1
1
1
1
1
1
1
1
1
1
1
1
1
1
1
1
1
1
1
1
1
0.999999
0.999999
0.999999
0.999999
1
1
1
1
1
1
1
1
1
1
1
1
1
1
1
1
1
1
1
1
1
1
1
0.999999
0.999999
0.999999
1
1
1
1
1
1
1
1
1
1
1
0.999999
1
1
1
1
1
0.999972
0.999334
0.999805
0.999272
0.997722
0.998472
0.999998
1
1
1
0.999998
1
1
1
1
1
1
1
1
1
1
1
1
1
1
1
1
1
1
1
1
1
1
1
1
1
1
1
1
1
1
1
1
1
1
1
1
1
1
1
1
1
1
1
1
1
1
1
1
1
1
1
1
1
1
1
1
1
1
1
1
1
1
1
0.999997
0.999982
0.999974
0.999998
1
1
0.999304
0.997539
0.999175
0.999272
0.998813
0.99908
0.99989
1
1
1
0.999998
1
1
1
1
1
1
1
1
1
1
1
1
1
1
1
1
1
1
1
1
1
1
1
1
1
1
1
1
1
1
1
1
1
1
1
1
1
1
1
0.999999
0.999999
0.999999
1
1
1
1
1
1
1
1
1
1
1
1
1
1
0.999999
0.999999
0.999999
0.999999
1
1
1
1
0.999977
0.999875
0.999967
1
0.999941
0.998365
0.997426
0.999137
0.998173
0.996239
0.999979
0.999981
1
0.999989
0.999966
1
1
1
1
1
1
1
1
1
1
1
1
1
1
1
1
1
0.999999
1
1
1
1
1
1
1
1
1
1
1
1
1
1
0.999999
1
1
1
1
0.999999
0.999999
0.999999
0.999999
1
1
1
1
1
1
1
1
1
1
1
1
0.999999
0.999999
0.999999
0.999999
0.999999
0.999999
0.999999
1
1
1
1
1
1
0.999875
0.999931
0.999999
0.999999
0.9985
0.994051
0.997186
0.997004
0.987764
0.990575
0.999604
1
0.999958
0.999873
1
1
1
1
1
1
1
1
1
1
1
1
1
1
1
1
1
0.999999
1
1
1
1
1
1
1
1
1
1
1
1
1
0.999999
0.999999
0.999999
0.999999
0.999999
1
1
1
1
1
1
1
1
1
1
1
1
1
1
1
1
1
1
1
1
1
1
1
1
1
1
1
1
1
1
0.999939
0.99993
0.999998
0.999976
0.994033
0.988822
0.996417
0.996768
0.987747
0.987748
0.999087
0.999999
0.999956
0.999866
0.999999
1
1
1
1
1
1
1
1
1
1
1
1
1
1
0.999999
0.999999
0.999999
1
1
1
1
1
1
1
1
1
1
1
1
1
1
1
1
1
1
1
1
1
1
1
1
1
1
1
1
1
1
0.999999
0.999999
0.999999
1
1
1
1
1
1
1
1
1
1
1
1
1
1
1
1
0.999912
0.999998
0.999804
0.988754
0.988772
0.996415
0.996764
0.996632
0.988057
0.997603
0.998398
0.99995
0.999932
0.999994
1
1
1
1
1
1
1
1
0.999999
0.999998
0.999995
0.999992
0.999988
0.999987
0.999987
0.999989
0.999992
0.999994
0.999997
0.999999
1
1
1
1
1
1
1
1
1
1
1
1
1
1
1
1
1
1
1
1
1
1
1
1
0.999998
0.999993
0.999985
0.999979
0.999979
0.999983
0.999987
0.999991
0.999995
0.999997
0.999999
1
1
1
1
1
1
1
1
1
1
1
0.999833
0.99871
0.997978
0.988838
0.996397
0.996412
0.996755
0.996318
0.992858
0.999955
0.999997
1
1
1
1
1
1
0.999999
0.999994
0.999985
0.999977
0.999965
0.999943
0.999899
0.99983
0.999743
0.999661
0.999619
0.999612
0.999641
0.999703
0.999785
0.999874
0.99995
0.999989
0.999987
1
1
1
1
1
1
1
1
1
1
1
1
1
1
1
1
1
1
1
1
0.999999
0.999898
0.99921
0.998444
0.998962
0.999446
0.999475
0.999565
0.999669
0.999766
0.999849
0.999913
0.999954
0.999975
0.999986
0.999993
0.999997
0.999997
0.999994
1
1
1
1
1
1
0.999997
0.999963
0.997205
0.996082
0.996413
0.762286
0.768961
0.83051
0.885317
0.89851
0.881978
0.853997
0.872474
0.907037
0.927485
0.938481
0.944618
0.947682
0.951785
0.945554
0.924697
0.899008
0.869548
0.834299
0.793398
0.750432
0.706295
0.665135
0.637455
0.63382
0.653707
0.690839
0.744891
0.819827
0.907323
0.969663
0.986965
0.995311
1
1
1
1
1
1
1
1
1
1
1
1
0.998847
0.967576
0.931564
0.882212
0.808191
0.71496
0.63072
0.569875
0.548243
0.578523
0.637223
0.695324
0.752535
0.8039
0.84974
0.888913
0.919507
0.941992
0.958955
0.973831
0.987755
0.992667
0.981537
0.969417
0.961294
0.947026
0.916343
0.867378
0.824309
0.804918
0.801014
0.775728
0.696204
0.615202
0.598725
0.0686578
0.0678487
0.0626247
0.0657801
0.0845862
0.128151
0.182055
0.220189
0.254683
0.269559
0.278027
0.281801
0.279512
0.262434
0.235648
0.209856
0.179396
0.14296
0.107397
0.0754688
0.0471005
0.0236409
0.00811301
0.00218175
0.00758373
0.0214083
0.0363293
0.0526716
0.0749972
0.107776
0.174579
0.285162
0.417219
0.531582
0.61774
0.707574
0.778191
0.795861
0.79272
0.79781
0.802718
0.788554
0.740685
0.649383
0.517691
0.374144
0.265913
0.180676
0.112705
0.0590411
0.0219138
0.00371976
1.68819e-06
7.40357e-07
3.71211e-07
7.47461e-07
0.0229497
0.0513048
0.0856562
0.125636
0.169699
0.214583
0.257502
0.293448
0.321075
0.341198
0.352699
0.348286
0.335079
0.317536
0.290779
0.248655
0.190719
0.124106
0.071702
0.0404145
0.0210471
0.0139995
0.0224328
0.018358
3.26663e-06
2.97291e-06
2.43348e-06
2.97291e-06
0.000131182
0.000536442
0.000597393
0.000462684
0.00030733
0.00014092
0.000103223
9.16282e-05
-1.44262e-05
3.61636e-08
2.44415e-11
8.15965e-07
1.63193e-06
1.84688e-06
2.24869e-06
2.84929e-06
3.93559e-06
5.61258e-06
7.20882e-06
7.57346e-06
7.98561e-06
1.01522e-05
1.78611e-05
4.00736e-05
9.56628e-05
0.000137781
0.000723331
0.000513657
0.00250269
0.0156144
0.042205
0.0777253
0.108987
0.121207
0.121167
0.122538
0.119722
0.101763
0.0686606
0.0324619
0.00892039
0.00147539
0.000640999
0.000244519
9.04299e-05
3.16301e-05
1.78884e-05
1.92903e-06
1.12236e-06
3.71211e-07
2.0786e-07
5.64597e-07
7.47461e-07
1.70001e-06
3.34536e-06
4.95202e-06
6.18037e-06
7.70956e-06
9.9061e-06
1.20408e-05
1.39353e-05
1.31572e-05
1.38025e-05
1.30235e-05
0.00033657
0.000468246
0.000294692
0.000209094
0.000162706
0.000131505
0.000127228
0.000126035
8.37938e-05
0.000183496
9.69747e-05
4.76408e-05
1.43595e-05
3.17247e-06
1.96069e-06
3.9684e-05
5.16606e-05
9.25398e-05
0.000115296
6.84835e-05
5.23408e-05
5.23473e-05
6.95819e-05
3.81964e-05
1.80671e-05
2.10014e-05
3.8035e-05
4.34406e-06
3.26699e-06
3.19759e-06
3.47151e-06
5.95267e-06
1.96853e-05
2.45427e-05
7.80871e-06
7.98561e-06
8.73286e-06
1.05515e-05
3.7274e-05
0.000156816
0.000152961
9.58812e-05
0.000137779
0.000265372
0.00126367
0.00118113
0.000332891
0.00027217
0.000493614
0.00072002
0.000977108
0.00103593
0.0010299
0.000897913
0.000699497
0.000516888
0.000302365
0.00010874
2.93452e-05
6.2948e-06
1.02273e-06
7.47294e-06
3.43031e-05
4.08804e-05
3.0133e-05
2.537e-06
7.8123e-08
3.51811e-07
8.64227e-06
1.93551e-05
1.9473e-05
1.79102e-05
2.56215e-05
3.71892e-05
3.41005e-05
3.95081e-05
2.7471e-05
3.17431e-05
5.93813e-05
0.000130188
0.000352389
0.00030257
0.000199719
0.000194841
0.000192055
0.000213873
0.000209512
0.000122164
3.41618e-05
4.62e-05
3.11229e-05
2.98651e-05
5.30488e-06
4.40485e-07
7.22697e-07
7.61404e-05
7.73943e-05
1.66677e-05
1.94182e-05
1.12171e-05
9.7605e-06
3.51618e-05
7.24594e-05
2.94759e-05
6.77748e-06
5.2233e-05
0.00020974
0.000150798
1.46937e-05
4.71654e-06
4.88252e-06
7.81122e-06
4.18141e-05
4.47453e-05
3.8172e-05
9.78122e-06
3.36901e-05
5.74246e-05
6.39947e-05
6.32071e-05
5.05319e-05
7.57148e-05
0.00025612
0.000377724
0.000409299
0.000384597
0.000203855
0.000157638
0.000214381
0.000179933
0.000208383
0.000260467
0.000281999
0.000180298
9.91013e-05
0.000100126
5.71942e-05
1.19071e-05
3.15327e-06
1.04073e-06
2.21601e-08
8.04912e-06
3.42224e-05
3.68494e-05
3.1418e-05
1.0737e-05
3.04494e-08
1.81096e-07
1.05336e-05
1.42304e-05
1.07881e-05
8.20593e-06
1.499e-05
2.67943e-05
5.76797e-05
5.72798e-05
4.94667e-05
0.000144435
0.000205252
0.000274091
0.000403606
0.000327114
0.00019563
0.000194687
0.00019454
0.000234911
0.000212775
0.000114167
2.69484e-05
2.80681e-05
2.751e-05
2.86876e-05
7.15604e-08
7.34192e-08
2.14374e-05
7.61401e-05
4.46363e-05
4.06644e-06
6.31012e-06
5.71495e-06
5.27646e-06
3.54292e-05
8.32571e-05
5.99782e-05
1.76496e-06
4.94971e-06
0.000197629
0.000239106
0.00023898
7.51196e-05
9.52061e-05
3.37471e-05
1.06959e-05
1.07426e-05
5.13533e-05
0.000129832
0.000131724
0.000131724
0.000131736
0.000131511
4.56644e-05
3.03501e-05
2.81274e-05
0.000123075
0.000206549
0.000134711
8.13018e-05
9.75776e-05
0.000126
0.000122957
0.000142587
0.000231634
0.000307655
8.29171e-05
3.57837e-05
7.21817e-05
5.65435e-05
7.44261e-06
2.2871e-06
1.50857e-06
6.2595e-09
4.42238e-09
3.36924e-09
2.35676e-09
3.36924e-09
4.64448e-09
2.7321e-08
5.20923e-08
2.16969e-09
1.98346e-09
2.00126e-09
1.58273e-09
2.62397e-09
1.58411e-07
3.41997e-06
5.02461e-05
4.62081e-05
2.69548e-05
2.26108e-05
2.39631e-05
0.000276513
0.000328807
0.000328018
0.00032854
0.000258158
0.000252511
0.000108756
2.69484e-05
2.6541e-05
2.61152e-05
2.69704e-05
3.98466e-05
7.00509e-08
7.15604e-08
2.75822e-06
8.87209e-06
1.30899e-06
2.28506e-06
4.06644e-06
5.40473e-06
4.77022e-06
4.57658e-06
4.47028e-06
3.89057e-06
1.10818e-06
1.38357e-05
2.81652e-05
4.26648e-05
0.000211393
0.000232844
0.000233074
0.000232875
4.46078e-05
1.13454e-05
2.08895e-05
0.000128105
0.000130258
0.00012335
0.000130658
0.000129916
0.000127496
6.52951e-05
2.47509e-05
2.57948e-05
2.9784e-05
3.54508e-05
4.30464e-05
5.06491e-05
6.03302e-05
7.49788e-05
0.000106907
0.000281288
0.000344241
6.02785e-05
1.13123e-05
1.00873e-05
1.0276e-05
9.27746e-06
1.0587e-05
9.59159e-06
2.21601e-08
5.33356e-08
1.57569e-08
1.55408e-09
8.71304e-09
3.89619e-08
6.62474e-08
1.54472e-08
4.99173e-09
1.85185e-09
1.82619e-09
1.40835e-09
1.58269e-09
1.67454e-05
4.82066e-05
2.8695e-05
1.32106e-05
4.5459e-06
3.84833e-06
2.98646e-06
3.50362e-06
2.83697e-05
0.000235623
0.00034223
0.000348881
0.000350995
0.000351613
0.000101949
2.61152e-05
2.61152e-05
5.80346e-05
7.57001e-05
7.00509e-08
1.27882e-07
1.48171e-07
1.99531e-07
4.63317e-07
8.41852e-07
2.42841e-05
4.18633e-05
5.31966e-05
2.32534e-05
1.30286e-06
7.69225e-07
1.0999e-06
1.79117e-06
2.01259e-06
5.36092e-06
2.1007e-05
2.66882e-05
0.000152705
0.000233074
0.000223126
6.36584e-05
2.30627e-05
5.72393e-05
0.000123993
6.76859e-05
3.97936e-05
7.74493e-05
0.000123623
0.00010513
2.47914e-05
2.47519e-05
2.85621e-05
9.69242e-05
8.60545e-05
5.91517e-05
6.5943e-05
7.24471e-05
0.000114796
0.000238194
0.000162302
1.47235e-05
1.00873e-05
6.99442e-06
3.89886e-06
5.1043e-07
4.17209e-07
2.0536e-07
6.92203e-07
7.19692e-07
1.14189e-07
2.83331e-10
1.7641e-08
8.5064e-08
8.5064e-08
7.54356e-08
1.01539e-08
1.81692e-09
1.98568e-09
1.27125e-09
8.00321e-06
6.03426e-05
6.04885e-05
6.04984e-05
6.04885e-05
3.80929e-05
3.82325e-06
2.52673e-06
2.01186e-06
1.34954e-06
1.18798e-05
6.58063e-06
0.000113617
0.000349143
0.000357161
0.000352226
4.32114e-05
2.61152e-05
7.53714e-05
7.58737e-05
7.00509e-08
1.15463e-07
1.68539e-07
4.41758e-07
3.49978e-05
0.000116795
0.000123787
0.000126642
0.000125979
9.60184e-05
5.62405e-06
2.04214e-07
6.76556e-08
1.60855e-08
4.90157e-05
6.64517e-05
6.60094e-05
3.74338e-05
4.15525e-05
0.000125296
0.000219178
0.000213879
7.39202e-05
9.67946e-06
2.58135e-05
6.68249e-05
4.0429e-05
1.45239e-05
6.52272e-05
0.000106278
2.51281e-05
2.47914e-05
8.65979e-05
0.000222928
0.00020791
6.59434e-05
7.0255e-05
8.39133e-05
0.000170103
0.000211872
8.51676e-05
1.66758e-05
1.07509e-05
7.40393e-05
9.78253e-05
2.01598e-05
1.7603e-07
1.36057e-07
1.22262e-07
1.76384e-07
4.98035e-08
8.14978e-11
1.33582e-09
3.91392e-08
6.34567e-08
2.11785e-08
3.3433e-09
9.42287e-10
9.56946e-10
1.04964e-09
4.75098e-05
6.01166e-05
6.03426e-05
6.04885e-05
6.05031e-05
6.02507e-05
3.69993e-05
2.37376e-06
1.34899e-06
1.11278e-06
9.96063e-07
9.49125e-07
9.51259e-07
6.54876e-05
0.000362676
0.000364193
0.00012707
2.70854e-05
6.59231e-05
7.58737e-05
7.21202e-08
8.74604e-08
2.65926e-06
7.09119e-05
0.000106471
0.000107387
4.6611e-05
6.12683e-05
0.000126642
0.000116399
9.96586e-06
7.03043e-08
1.60855e-08
1.06578e-08
1.43889e-05
6.36928e-05
6.34603e-05
4.15525e-05
4.44835e-05
0.000139495
0.000213879
0.000208153
0.000104959
3.4033e-06
1.09169e-06
2.17649e-05
4.01276e-05
1.43422e-05
1.73555e-05
8.95532e-05
2.4769e-05
2.4778e-05
0.00013287
0.000223835
0.000222928
0.000162397
7.90221e-05
0.000130874
0.000163741
0.000174685
5.23721e-05
2.16903e-05
8.73391e-05
0.000146815
0.000145797
0.000106731
4.9956e-07
6.70275e-08
4.78081e-09
1.7124e-10
8.10011e-11
7.65898e-11
7.56459e-11
7.43112e-11
7.5646e-11
7.77333e-11
1.013e-10
8.28957e-10
8.83588e-10
1.32494e-09
4.9402e-05
5.94292e-05
6.01166e-05
6.02922e-05
6.02507e-05
5.90354e-05
1.89206e-05
1.46286e-06
1.11278e-06
9.96063e-07
8.98383e-07
8.71502e-07
8.63848e-07
1.50788e-05
0.000339331
0.000371186
0.000190939
3.16341e-05
3.58626e-05
7.58737e-05
7.20905e-08
8.40621e-08
1.79375e-05
0.000101901
0.00010404
2.65718e-05
1.32409e-07
1.32409e-07
0.000124469
0.000107952
7.1545e-06
1.96195e-08
1.06578e-08
1.03026e-08
6.8209e-07
5.94586e-06
3.01444e-05
6.0992e-05
9.22584e-05
0.000112324
0.000125565
9.83941e-05
3.47336e-05
1.16783e-06
3.18372e-07
4.4928e-07
8.96805e-06
4.91428e-06
4.8029e-06
7.89645e-05
2.4769e-05
2.4769e-05
0.00017142
0.000223835
0.000223852
0.000221591
0.000109785
0.00012061
0.000159489
0.000137044
5.31268e-05
4.94473e-05
0.000148093
0.00014771
0.000146815
0.000144003
5.34353e-05
4.91472e-07
5.52067e-08
7.32289e-10
4.38688e-11
7.56928e-11
7.49086e-11
7.29725e-11
7.43112e-11
1.02225e-10
3.86835e-10
8.12915e-10
4.44569e-09
3.30895e-09
7.41396e-06
5.76092e-05
5.94295e-05
4.64314e-05
3.33587e-05
7.41919e-06
3.71135e-06
1.65457e-06
1.13314e-06
8.98383e-07
8.71502e-07
8.64735e-07
8.65911e-07
9.50471e-05
0.000372403
0.00037844
0.000261556
3.5088e-05
3.35428e-05
7.5124e-05
7.09303e-08
1.39434e-07
8.71064e-06
7.52558e-05
6.57339e-05
1.37963e-07
1.33149e-07
1.32409e-07
3.6917e-05
0.000105512
9.82978e-06
1.08166e-08
1.03026e-08
1.03026e-08
1.03026e-08
2.26686e-08
4.66073e-06
1.27902e-05
1.33569e-05
3.1291e-06
1.21272e-06
7.27594e-07
4.03928e-07
2.23404e-07
2.04801e-07
2.14544e-07
2.27924e-07
1.81475e-07
1.62712e-07
7.51134e-05
4.30669e-05
3.46032e-05
0.000189914
0.000223852
0.000223835
0.000184539
0.000110104
0.000120439
0.000156064
0.00010526
5.58405e-05
0.000100401
0.000148019
0.000148377
0.00014771
0.000144979
0.000138246
2.82966e-05
5.0358e-07
2.84095e-09
2.28534e-10
4.55163e-11
6.96616e-11
7.24016e-11
1.03347e-10
1.44456e-10
2.90113e-10
8.57408e-10
9.07485e-09
2.55251e-08
2.07659e-06
5.70786e-05
3.01897e-05
2.06206e-05
2.04895e-05
3.50454e-05
4.88509e-05
6.47491e-05
8.06e-05
6.979e-05
3.00464e-05
1.57123e-05
0.000170359
0.00037844
0.000379887
0.000380582
0.000378587
7.23083e-05
3.03553e-05
3.57705e-05
7.18495e-08
7.72327e-08
1.16817e-06
6.89681e-06
1.83741e-07
1.37888e-07
1.43834e-07
1.36294e-07
1.62231e-07
9.6167e-05
7.91944e-06
1.15879e-08
1.08254e-08
1.35969e-07
1.57136e-06
8.08172e-07
8.09685e-07
8.32309e-07
1.0168e-06
9.75047e-07
7.27594e-07
4.03936e-07
2.23458e-07
2.0074e-07
2.04806e-07
1.82496e-07
1.5776e-07
1.4902e-07
1.46853e-07
1.38653e-05
6.39796e-05
4.34314e-05
0.000215756
0.000223835
0.000222123
0.000122854
0.000116188
0.000187542
0.000139345
6.93271e-05
6.15638e-05
0.000142439
0.000148376
0.00014771
0.000139295
0.000116391
0.000125636
0.000120121
4.92384e-05
6.1486e-08
-3.08124e-10
7.00124e-11
4.26904e-11
5.0964e-11
7.74122e-11
6.89621e-11
1.05869e-10
1.9888e-10
3.58535e-09
1.26325e-07
1.15859e-05
5.59401e-05
2.0657e-05
2.04895e-05
2.96593e-05
0.00025107
0.000302115
0.000337803
0.000357732
0.000366682
0.00037186
0.000372655
0.00037829
0.000380276
0.000380869
0.000380906
0.000380582
8.61369e-05
2.79096e-05
2.67446e-05
4.81578e-07
9.29841e-08
1.01811e-07
9.63292e-08
1.10619e-07
1.46907e-07
1.14479e-06
2.31265e-07
2.17582e-07
6.38798e-05
1.26138e-08
1.22296e-08
1.15879e-08
4.5464e-06
1.47825e-05
8.75647e-06
8.22746e-07
8.22747e-07
8.92346e-07
3.73957e-06
3.33557e-05
5.36241e-05
4.18191e-05
7.45144e-06
1.10639e-06
1.66587e-07
1.4902e-07
1.46853e-07
1.46853e-07
2.24548e-07
6.50713e-05
5.08352e-05
0.000217465
0.00022317
0.000216725
0.00012772
0.000121856
0.000198454
9.94764e-05
6.63163e-05
9.08329e-05
0.000142071
0.000147685
0.000106461
5.96222e-05
6.18528e-05
0.000118192
0.000120121
0.000121973
1.1109e-05
8.87329e-09
8.14264e-11
3.27104e-11
3.25942e-11
4.24353e-11
4.48057e-11
6.67779e-11
1.7244e-10
1.36832e-09
1.70653e-08
1.50988e-05
5.52892e-05
2.13043e-05
2.06499e-05
7.06324e-05
0.000300372
0.000314876
0.000337909
0.00035254
0.000141973
0.000143551
0.000363189
0.000380276
0.000380869
0.000380998
0.000380869
0.000343659
5.57457e-05
2.67446e-05
2.60966e-05
2.1539e-06
1.01811e-07
9.19908e-08
7.71629e-08
7.76679e-08
2.72051e-07
1.7849e-06
1.60088e-06
2.37135e-06
1.42516e-05
3.32946e-08
1.26138e-08
3.1951e-06
1.48721e-05
1.48337e-05
1.43601e-05
8.22747e-07
8.92332e-07
7.83862e-05
0.000177824
0.000177824
0.000177826
0.000177722
0.000176521
0.000103888
0.000106922
0.000105566
4.82074e-05
1.46853e-07
6.01507e-07
6.55988e-05
6.69883e-05
0.000143299
0.000221706
0.000211855
0.000130058
0.000131068
0.000204003
7.02188e-05
6.17244e-05
0.000107337
0.000140882
0.000142071
6.54383e-05
5.91372e-05
5.96222e-05
7.77402e-05
0.000124677
0.000137031
7.08568e-05
5.00377e-08
1.09651e-09
-3.24261e-11
2.99477e-11
2.80569e-11
3.26851e-11
5.40827e-11
1.97343e-10
1.28389e-09
1.48162e-08
4.30754e-06
2.88179e-05
4.1433e-05
2.28128e-05
2.52248e-05
8.46805e-05
0.000160663
0.000117688
0.000119887
0.000111301
0.000108854
0.000106407
0.000373477
0.000380993
0.000380897
0.000363423
7.88653e-05
3.13102e-05
2.60966e-05
2.59531e-05
2.15916e-06
1.68906e-06
7.60883e-07
8.68975e-08
7.70055e-08
1.80708e-06
1.82094e-06
1.87454e-06
4.05994e-06
8.84317e-06
4.81056e-08
1.22328e-07
9.55819e-06
1.48661e-05
1.48745e-05
1.05063e-05
1.77481e-06
4.44987e-05
0.000174379
0.000176322
0.000146185
1.55389e-05
1.59336e-05
2.08965e-05
3.85962e-05
2.55664e-05
9.21934e-05
9.20466e-05
6.53169e-05
1.0562e-06
3.03404e-05
7.07567e-05
2.95578e-05
0.000179692
0.000139281
0.000131342
0.000230205
0.000203609
6.17244e-05
5.89239e-05
6.23117e-05
0.000138335
0.000132519
8.42236e-05
5.95521e-05
5.91372e-05
6.03239e-05
9.75622e-05
0.000154247
0.000121659
2.58149e-07
3.71434e-09
1.44708e-11
2.64394e-11
2.59171e-11
2.66225e-11
3.89978e-11
1.44171e-10
7.0332e-10
6.44163e-09
6.48952e-08
1.31902e-05
4.55784e-05
2.92872e-05
2.64676e-05
2.80679e-05
3.62715e-05
7.36279e-05
0.000153212
0.000169838
0.000120658
0.000106407
0.000143259
0.000380609
0.000305191
8.8731e-05
4.31238e-05
4.20025e-05
4.96068e-05
2.59864e-05
1.12037e-06
2.15992e-06
2.16325e-06
2.05665e-06
1.09016e-06
2.29913e-06
1.24972e-06
2.39404e-07
4.17136e-06
5.48683e-06
3.58858e-08
5.79631e-07
1.24806e-05
1.48845e-05
1.28097e-05
6.17469e-06
1.45133e-05
0.000165081
0.000173939
0.000160883
1.54716e-05
1.54716e-05
1.54716e-05
2.72426e-05
6.04e-05
9.92104e-06
9.92104e-06
6.78743e-05
7.61747e-05
3.92983e-05
3.12492e-05
7.02142e-05
1.53639e-05
2.61205e-05
3.52717e-05
0.000177286
0.000235036
0.000233454
8.47951e-05
5.3151e-05
4.82396e-05
4.89416e-05
9.86917e-05
9.38618e-05
7.1237e-05
6.03239e-05
6.17567e-05
7.90936e-05
0.000165673
0.000157915
3.49314e-05
2.42026e-08
-7.25088e-10
2.1816e-11
2.43186e-11
1.91035e-11
2.61131e-11
9.65084e-11
5.58066e-10
5.41651e-09
5.93242e-08
1.58184e-05
4.65505e-05
4.64392e-05
2.8068e-05
8.45046e-05
0.000139956
0.00014007
9.38761e-05
0.000173075
0.000173259
0.000124604
7.06243e-05
9.14545e-05
7.60544e-05
5.28237e-05
4.99004e-05
5.30846e-05
5.55995e-05
2.62282e-05
1.02823e-07
1.51484e-06
1.26203e-06
7.82605e-07
2.43323e-06
2.3058e-06
2.05353e-08
2.25448e-07
1.83204e-06
1.78105e-06
2.18945e-08
1.06643e-07
8.67958e-06
1.48147e-05
1.97742e-06
3.06881e-06
7.14941e-05
0.000170762
0.000173939
8.03101e-05
2.32462e-05
3.37912e-05
1.85055e-05
8.46564e-05
8.46564e-05
1.42622e-05
1.00051e-05
1.00892e-05
7.45957e-05
7.35324e-05
4.71663e-05
2.80867e-05
1.42229e-05
1.42363e-05
2.82022e-05
0.000234827
0.000235687
0.000236685
0.000222409
6.27037e-05
4.86428e-05
4.82396e-05
4.06836e-05
5.51063e-05
6.52739e-05
6.21079e-05
8.66401e-05
0.00016043
0.000168514
0.000165673
0.000111577
9.35183e-08
-3.98426e-09
1.45919e-11
1.83603e-11
1.62726e-11
1.50888e-11
3.39667e-11
1.80138e-10
2.42987e-09
2.49593e-08
5.04671e-06
4.53628e-05
4.65825e-05
3.63156e-05
3.65911e-05
8.88859e-05
7.42898e-05
3.51459e-05
0.000166437
0.000173259
0.000173259
6.99225e-05
4.83336e-05
5.10307e-05
5.39667e-05
5.57334e-05
5.62242e-05
5.61231e-05
5.54778e-05
1.01499e-07
6.31187e-08
3.60054e-08
7.76499e-07
2.45423e-06
1.04768e-06
6.39211e-09
1.13421e-07
4.37331e-07
2.91298e-07
1.03779e-08
8.07023e-08
7.8212e-06
1.41056e-05
1.78471e-06
2.00599e-06
6.65768e-05
0.00016829
0.000110818
4.61113e-05
8.23322e-05
9.34165e-05
5.29019e-05
7.86544e-05
8.43432e-05
7.66244e-05
1.18415e-05
1.01739e-05
2.84254e-05
7.07662e-05
6.93863e-05
1.65946e-05
1.35461e-05
1.27243e-05
2.33176e-05
0.000212714
0.000236211
0.000237357
0.000237109
0.000221956
0.000142453
8.40401e-05
3.65036e-05
2.32438e-05
2.07093e-05
6.40961e-05
0.000170026
0.000170011
0.00017008
0.000168514
0.000144
3.67076e-07
-7.63515e-09
2.77178e-11
1.30332e-11
1.37495e-11
1.03775e-11
5.72856e-12
2.81917e-11
1.16982e-10
2.89913e-09
3.93489e-08
6.33171e-06
4.64392e-05
4.56277e-05
3.90948e-05
3.51459e-05
3.51459e-05
3.5123e-05
8.82469e-05
0.000173259
0.000171295
0.000125105
4.68051e-05
4.81464e-05
5.26995e-05
5.63243e-05
5.63083e-05
5.61522e-05
5.59938e-05
3.44675e-08
3.50273e-08
3.59455e-08
2.40024e-06
2.45172e-06
5.50022e-08
5.83858e-12
6.72069e-12
3.35161e-11
1.44271e-10
2.45031e-09
6.19141e-08
7.55566e-06
1.33447e-05
1.78471e-06
1.7783e-06
2.08443e-05
4.63666e-05
1.62734e-05
9.13236e-05
9.15338e-05
8.45342e-05
3.62947e-05
6.25688e-07
3.67165e-05
7.84026e-05
6.7984e-05
1.05378e-05
1.1959e-05
6.81567e-05
6.93354e-05
2.72134e-05
1.27151e-05
1.25949e-05
1.26877e-05
0.000107181
0.000237006
0.00023751
0.000238487
0.000240011
0.000237735
0.000237918
0.000215465
2.65449e-05
1.97821e-05
7.71094e-05
0.000169907
0.00017009
0.000169907
0.000158485
0.000155853
9.28478e-05
-2.00694e-10
-4.54245e-11
6.32965e-12
1.0939e-11
9.39373e-12
2.8801e-12
2.91057e-12
-4.9027e-12
2.31451e-10
2.0654e-09
2.80693e-08
1.36265e-05
4.32911e-05
4.19955e-05
3.95783e-05
3.52111e-05
3.51459e-05
9.99643e-05
0.000171295
8.59162e-05
7.41085e-05
4.36626e-05
4.68051e-05
4.92518e-05
5.63083e-05
5.63284e-05
5.63083e-05
3.48902e-05
1.23442e-10
3.17846e-07
2.85962e-07
2.27119e-06
7.2005e-07
5.83858e-12
5.82665e-12
5.86989e-12
6.85108e-12
4.62228e-11
1.46024e-10
1.86875e-09
3.38142e-06
9.66169e-06
5.38962e-06
1.57608e-06
1.18038e-06
1.64822e-06
4.48745e-06
8.62305e-05
7.18589e-05
7.14725e-08
8.6223e-09
3.17314e-09
1.92163e-08
7.30815e-05
8.00149e-05
2.84857e-05
1.26038e-05
4.91288e-05
6.93354e-05
6.89141e-05
1.28824e-05
1.25871e-05
1.23382e-05
2.0137e-05
0.000237172
0.000238111
0.000238911
0.00023931
0.000239714
0.000240283
0.000240552
4.26532e-05
1.88579e-05
1.87221e-05
0.000128051
0.000169909
0.000167842
0.000138404
0.000154109
0.000151958
-3.08852e-08
-8.81042e-11
3.29566e-11
1.50324e-11
1.38858e-11
2.29186e-12
1.65902e-12
2.87506e-12
7.54245e-13
8.93825e-11
7.6093e-10
6.36473e-09
3.50744e-06
2.77016e-05
2.35787e-05
5.15155e-05
7.46423e-05
9.63347e-05
9.60966e-05
2.76317e-05
3.1344e-05
4.23462e-05
9.16074e-05
4.87254e-05
5.14052e-05
5.63083e-05
5.6285e-05
4.60809e-06
1.20405e-10
8.86663e-07
8.92785e-07
8.70669e-09
1.12505e-10
1.12292e-10
5.77258e-11
1.59952e-11
5.61871e-11
7.78831e-11
4.76301e-11
1.26936e-09
3.91519e-08
1.27039e-06
5.49265e-06
4.02366e-06
8.62675e-07
1.44659e-06
1.43521e-05
1.0183e-05
2.07525e-08
3.67452e-09
1.81778e-09
2.40357e-09
3.17314e-09
8.35415e-05
7.216e-05
1.09711e-05
1.19763e-05
1.80715e-05
6.89141e-05
6.7482e-05
1.6999e-05
1.2333e-05
1.21189e-05
1.1741e-05
0.000144562
0.000238517
0.000239307
0.000239712
0.000240317
0.000240779
0.000240856
9.45479e-05
1.87221e-05
1.84872e-05
1.8328e-05
0.000149179
0.000165461
0.000159662
0.000155738
0.000154043
2.22459e-05
7.34307e-10
8.77298e-11
2.02444e-11
2.61434e-11
2.4311e-12
1.60825e-12
1.89821e-12
3.31243e-12
1.49076e-11
1.31711e-10
8.65297e-10
6.38139e-09
4.71383e-08
2.41401e-06
1.38165e-05
2.25191e-05
1.1713e-05
2.41932e-05
2.5149e-05
2.76317e-05
0.000106961
0.00012272
6.94522e-05
2.15991e-05
4.07686e-05
2.59163e-05
4.27671e-06
1.20391e-10
6.43515e-07
8.64391e-07
1.16588e-10
1.5089e-10
2.69416e-10
1.88961e-10
1.14842e-11
3.7341e-11
4.78659e-11
4.30647e-11
3.638e-11
1.89892e-10
2.61671e-09
1.02991e-06
1.99278e-06
8.01964e-07
9.39552e-07
2.36449e-06
1.68042e-07
7.75157e-10
1.5686e-09
1.38244e-09
1.81778e-09
1.98994e-05
9.00502e-05
5.62932e-05
2.41744e-06
4.31649e-05
2.17115e-05
5.67147e-05
6.64791e-05
6.27001e-05
1.21186e-05
1.1575e-05
1.05315e-05
1.22251e-05
0.000166978
0.000239455
0.000240317
0.000240779
0.00024088
0.000240856
0.000226447
2.85147e-05
1.83287e-05
1.79206e-05
2.89913e-05
0.000139031
0.000154489
0.000154044
0.000152832
0.000114189
2.47021e-09
2.0862e-10
5.75474e-11
4.18116e-11
4.93256e-12
1.56291e-12
2.68883e-12
3.08832e-11
1.40599e-10
2.11196e-10
8.59015e-10
4.28213e-09
2.0808e-08
9.07222e-08
3.56096e-07
1.24096e-06
9.98968e-06
1.21674e-05
3.30782e-05
0.000114432
0.00012676
0.000124979
0.000116796
1.44712e-05
1.19299e-05
1.46295e-05
5.23734e-05
1.20377e-10
6.87673e-09
4.03756e-07
1.16738e-10
2.5584e-10
2.63839e-10
2.84511e-10
1.73363e-12
9.88484e-12
1.36938e-11
1.57179e-11
9.29808e-12
7.88478e-12
1.05146e-10
1.45224e-09
4.7428e-09
9.65125e-08
1.46966e-07
5.9262e-08
2.89366e-09
1.1586e-12
1.46743e-09
1.18663e-09
1.37669e-09
7.11486e-05
9.00502e-05
4.42071e-05
2.39466e-07
3.761e-05
6.70045e-05
5.01065e-05
6.63507e-05
6.60163e-05
1.61134e-05
1.05407e-05
1.00371e-05
8.86012e-06
1.55316e-05
0.000127315
0.000239077
0.000240332
0.000240794
0.00024088
0.000240794
9.862e-05
1.86228e-05
1.75336e-05
1.75666e-05
2.28534e-05
8.0053e-05
0.000152878
0.000150937
0.000117365
7.97978e-09
2.52408e-09
1.11533e-09
7.77575e-11
9.13893e-12
1.56291e-12
1.2852e-12
2.11471e-11
1.7718e-10
5.62869e-10
1.34664e-09
6.81097e-09
3.37701e-08
1.66941e-07
7.65486e-07
1.02369e-05
8.4994e-05
0.000127702
0.00012795
0.000127935
0.000127552
0.00012676
0.000124977
3.91238e-05
1.15214e-05
1.74683e-05
5.30154e-05
1.20328e-10
8.03808e-11
8.11944e-10
4.16878e-08
3.17106e-09
1.2236e-12
2.99186e-10
2.26109e-13
1.29719e-12
2.59618e-12
3.57283e-12
3.84094e-12
1.59985e-12
3.66326e-12
4.92612e-11
1.28971e-10
1.15285e-10
6.99187e-11
5.19936e-10
3.82268e-11
1.08424e-11
3.52905e-09
7.20165e-10
1.80171e-07
8.93239e-05
9.00502e-05
1.7524e-05
2.75889e-09
1.14835e-05
7.01482e-05
5.26786e-05
4.68193e-05
6.42961e-05
5.95731e-05
1.02496e-05
8.74975e-06
6.79968e-06
6.79962e-06
9.28114e-06
5.29637e-05
0.000201311
0.000240112
0.000240794
0.000238347
0.000102456
1.95996e-05
1.76679e-05
1.75158e-05
1.76679e-05
2.33372e-05
0.000105974
0.000148941
2.6763e-05
2.69746e-08
2.42444e-08
1.4147e-09
1.7263e-10
1.9768e-11
1.2852e-12
8.83912e-13
1.65014e-12
2.8383e-11
6.91151e-10
5.84584e-09
1.00092e-08
3.83492e-08
1.68398e-07
8.27297e-07
3.06317e-05
0.000127698
0.000127949
0.000128268
0.000128227
0.000127935
0.000127552
0.000126573
3.41818e-05
1.11579e-05
3.13878e-05
5.30154e-05
1.05823e-10
7.30395e-11
7.52484e-09
4.43765e-08
1.0565e-08
2.43462e-13
2.41582e-10
2.29163e-14
9.329e-14
3.63243e-13
6.66714e-13
9.3896e-13
9.65115e-13
4.60992e-13
1.50213e-12
3.02583e-12
2.35271e-12
1.56146e-12
4.76458e-12
3.71791e-12
3.6395e-12
5.14032e-12
5.1086e-11
3.90586e-05
8.69852e-05
4.84638e-05
1.39623e-11
1.39623e-11
1.40646e-11
7.00334e-05
8.17281e-05
4.45795e-05
4.28099e-05
5.37452e-05
3.2596e-05
7.55003e-06
5.57607e-06
4.98752e-06
5.3889e-06
6.74634e-06
1.69716e-05
7.42679e-05
0.000222962
0.000176207
3.97768e-05
1.80949e-05