/*--------------------------------*- C++ -*----------------------------------*\
| =========                 |                                                 |
| \\      /  F ield         | OpenFOAM: The Open Source CFD Toolbox           |
|  \\    /   O peration     | Version:  2412                                  |
|   \\  /    A nd           | Website:  www.openfoam.com                      |
|    \\/     M anipulation  |                                                 |
\*---------------------------------------------------------------------------*/
FoamFile
{
    version     2.0;
    format      ascii;
    arch        "LSB;label=32;scalar=64";
    class       surfaceScalarField;
    location    "8.3";
    object      phi;
}
// * * * * * * * * * * * * * * * * * * * * * * * * * * * * * * * * * * * * * //

dimensions      [0 3 -1 0 0 0 0];

oriented        oriented;

internalField   nonuniform List<scalar> 
12640
(
-5.05606e-09
5.06378e-09
-1.21472e-08
7.33942e-09
-1.64204e-08
4.52753e-09
-1.54027e-08
-7.6467e-10
-8.21247e-09
-6.92376e-09
5.15721e-09
-1.30821e-08
2.42402e-08
-1.87728e-08
4.83398e-08
-2.37683e-08
7.66781e-08
-2.79894e-08
1.08491e-07
-3.14507e-08
1.43088e-07
-3.42256e-08
1.79886e-07
-3.64227e-08
2.18427e-07
-3.81686e-08
2.58386e-07
-3.95946e-08
2.99561e-07
-4.08253e-08
3.41859e-07
-4.19703e-08
3.85275e-07
-4.31147e-08
4.29855e-07
-4.43112e-08
4.75658e-07
-4.55709e-08
5.22704e-07
-4.68553e-08
5.70919e-07
-4.8068e-08
6.20067e-07
-4.90484e-08
6.69685e-07
-4.95671e-08
7.19011e-07
-4.93263e-08
7.66925e-07
-4.7966e-08
8.11901e-07
-4.50797e-08
8.51983e-07
-4.02395e-08
8.84806e-07
-3.30353e-08
9.07662e-07
-2.31242e-08
9.17627e-07
-1.0291e-08
9.11753e-07
5.48947e-09
8.87315e-07
2.39936e-08
8.42101e-07
4.471e-08
7.7471e-07
6.68275e-08
6.84824e-07
8.92653e-08
5.73408e-07
1.10743e-07
4.42792e-07
1.29894e-07
2.96628e-07
1.454e-07
1.39693e-07
1.56137e-07
-2.24285e-08
1.61299e-07
-1.83758e-07
1.60494e-07
-3.3838e-07
1.53789e-07
-4.809e-07
1.41701e-07
-6.06823e-07
1.25134e-07
-7.12853e-07
1.05279e-07
-7.97036e-07
8.3478e-08
-8.58772e-07
6.10844e-08
-8.98696e-07
3.93306e-08
-9.18453e-07
1.92291e-08
-9.20415e-07
1.50579e-09
-9.0738e-07
-1.34164e-08
-8.8229e-07
-2.53936e-08
-8.48016e-07
-3.45073e-08
-8.07169e-07
-4.10172e-08
-7.6199e-07
-4.52973e-08
-7.14303e-07
-4.77623e-08
-6.65513e-07
-4.88294e-08
-6.16632e-07
-4.88887e-08
-5.68323e-07
-4.8283e-08
-5.20971e-07
-4.72939e-08
-4.74746e-07
-4.613e-08
-4.29684e-07
-4.49298e-08
-3.85741e-07
-4.37723e-08
-3.42845e-07
-4.26871e-08
-3.00945e-07
-4.16558e-08
-2.60047e-07
-4.06191e-08
-2.20253e-07
-3.94857e-08
-1.81778e-07
-3.81419e-08
-1.44962e-07
-3.64617e-08
-1.10279e-07
-3.43156e-08
-7.83247e-08
-3.15789e-08
-4.98019e-08
-2.81451e-08
-2.54862e-08
-2.39413e-08
-6.16662e-09
-1.89533e-08
7.44821e-09
-1.32604e-08
1.48788e-08
-7.09087e-09
1.61122e-08
-9.10154e-10
1.19943e-08
4.42382e-09
4.96536e-09
7.31543e-09
5.21582e-09
-7.09e-09
1.24146e-08
-1.4514e-08
1.52458e-08
-1.36381e-08
4.15054e-09
1.35968e-10
-1.40201e-08
2.87527e-08
-3.49922e-08
7.24044e-08
-5.61523e-08
1.30195e-07
-7.59498e-08
2.00619e-07
-9.35498e-08
2.81892e-07
-1.08601e-07
3.7219e-07
-1.21075e-07
4.69805e-07
-1.31164e-07
5.73244e-07
-1.39193e-07
6.81289e-07
-1.45563e-07
7.93019e-07
-1.50703e-07
9.07797e-07
-1.55024e-07
1.02524e-06
-1.58888e-07
1.14517e-06
-1.62576e-07
1.26751e-06
-1.66254e-07
1.3922e-06
-1.69944e-07
1.51907e-06
-1.73496e-07
1.64771e-06
-1.76558e-07
1.77728e-06
-1.78558e-07
1.90637e-06
-1.78687e-07
2.03282e-06
-1.75908e-07
2.15361e-06
-1.68977e-07
2.26472e-06
-1.56499e-07
2.36109e-06
-1.37023e-07
2.43671e-06
-1.0917e-07
2.48478e-06
-7.18123e-08
2.49805e-06
-2.42771e-08
2.46928e-06
3.3442e-08
2.39186e-06
1.0049e-07
2.26053e-06
1.75015e-07
2.07209e-06
2.54141e-07
1.82607e-06
3.34069e-07
1.52519e-06
4.1033e-07
1.17556e-06
4.78166e-07
7.86544e-07
5.33003e-07
3.70295e-07
5.7094e-07
-5.90543e-08
5.89188e-07
-4.86405e-07
5.86388e-07
-8.96817e-07
5.62771e-07
-1.27662e-06
5.20123e-07
-1.61438e-06
4.61579e-07
-1.9016e-06
3.91267e-07
-2.13311e-06
3.13848e-07
-2.30708e-06
2.34032e-07
-2.42479e-06
1.56125e-07
-2.49005e-06
8.36857e-08
-2.50853e-06
1.93041e-08
-2.48706e-06
-3.54655e-08
-2.43289e-06
-8.00352e-08
-2.35314e-06
-1.14615e-07
-2.2544e-06
-1.40026e-07
-2.14238e-06
-1.57496e-07
-2.02181e-06
-1.68433e-07
-1.8964e-06
-1.74269e-07
-1.76891e-06
-1.76345e-07
-1.64124e-06
-1.75849e-07
-1.51459e-06
-1.73762e-07
-1.38965e-06
-1.70823e-07
-1.26673e-06
-1.67536e-07
-1.14593e-06
-1.6419e-07
-1.02727e-06
-1.60898e-07
-9.10809e-07
-1.57608e-07
-7.96734e-07
-1.54132e-07
-6.85442e-07
-1.5017e-07
-5.77597e-07
-1.45347e-07
-4.74154e-07
-1.39242e-07
-3.76367e-07
-1.31428e-07
-2.85762e-07
-1.21508e-07
-2.04077e-07
-1.0916e-07
-1.33166e-07
-9.41986e-08
-7.48376e-08
-7.66509e-08
-3.0625e-08
-5.68685e-08
-1.4563e-09
-3.56846e-08
1.2825e-08
-1.46421e-08
1.41146e-08
3.65901e-09
6.95852e-09
1.49601e-08
1.24125e-08
-4.25153e-09
1.6909e-08
-3.26059e-09
1.46974e-08
1.18542e-08
-1.0509e-08
4.60866e-08
-4.77811e-08
1.01608e-07
-9.00198e-08
1.78556e-07
-1.32584e-07
2.75701e-07
-1.72555e-07
3.90973e-07
-2.08262e-07
5.21882e-07
-2.38937e-07
6.65836e-07
-2.64449e-07
8.2036e-07
-2.85109e-07
9.83254e-07
-3.01516e-07
1.15268e-06
-3.14434e-07
1.32719e-06
-3.24691e-07
1.50576e-06
-3.33096e-07
1.68768e-06
-3.40361e-07
1.87254e-06
-3.47037e-07
2.06007e-06
-3.53448e-07
2.25002e-06
-3.59628e-07
2.44199e-06
-3.65264e-07
2.63519e-06
-3.69637e-07
2.82827e-06
-3.71584e-07
3.01902e-06
-3.69472e-07
3.2042e-06
-3.61202e-07
3.37929e-06
-3.44266e-07
3.53836e-06
-3.15854e-07
3.674e-06
-2.73043e-07
3.77743e-06
-2.13065e-07
3.83871e-06
-1.33659e-07
3.84726e-06
-3.34874e-08
3.79251e-06
8.74292e-08
3.66483e-06
2.27313e-07
3.45655e-06
3.82351e-07
3.16302e-06
5.46629e-07
2.78363e-06
7.12337e-07
2.32248e-06
8.70285e-07
1.78871e-06
1.01069e-06
1.19628e-06
1.12413e-06
5.63299e-07
1.20259e-06
-8.91896e-08
1.24032e-06
-7.387e-07
1.23454e-06
-1.36299e-06
1.18572e-06
-1.94171e-06
1.09753e-06
-2.45783e-06
9.76437e-07
-2.89867e-06
8.30918e-07
-3.25649e-06
6.70566e-07
-3.52852e-06
5.05059e-07
-3.71656e-06
3.43251e-07
-3.82613e-06
1.92451e-07
-3.86553e-06
5.79908e-08
-3.84468e-06
-5.69171e-08
-3.77419e-06
-1.51032e-07
-3.66446e-06
-2.24754e-07
-3.52507e-06
-2.79718e-07
-3.36441e-06
-3.18381e-07
-3.18939e-06
-3.43581e-07
-3.0055e-06
-3.58213e-07
-2.81685e-06
-3.64985e-07
-2.62633e-06
-3.66292e-07
-2.43585e-06
-3.64105e-07
-2.24655e-06
-3.59927e-07
-2.05905e-06
-3.54784e-07
-1.87364e-06
-3.49274e-07
-1.69054e-06
-3.43624e-07
-1.50998e-06
-3.37739e-07
-1.33239e-06
-3.31248e-07
-1.15847e-06
-3.23565e-07
-9.89324e-07
-3.13947e-07
-8.2642e-07
-3.01571e-07
-6.71654e-07
-2.85605e-07
-5.27275e-07
-2.65292e-07
-3.95798e-07
-2.40043e-07
-2.79855e-07
-2.09556e-07
-1.81971e-07
-1.73964e-07
-1.04252e-07
-1.34035e-07
-4.79706e-08
-9.14346e-08
-1.30306e-08
-4.90715e-08
2.6876e-09
-1.15672e-08
4.10059e-09
1.39982e-08
1.67218e-08
1.0852e-09
1.60462e-08
1.52839e-08
9.12821e-10
5.00331e-08
-4.48322e-08
1.09602e-07
-1.0691e-07
1.9566e-07
-1.75622e-07
3.07895e-07
-2.44347e-07
4.44582e-07
-3.08755e-07
6.03096e-07
-3.66276e-07
7.80337e-07
-4.15672e-07
9.73082e-07
-4.56688e-07
1.17824e-06
-4.8977e-07
1.39305e-06
-5.15833e-07
1.61516e-06
-5.36072e-07
1.84272e-06
-5.51795e-07
2.07433e-06
-5.64288e-07
2.30904e-06
-5.74692e-07
2.54624e-06
-5.83894e-07
2.7855e-06
-5.92421e-07
3.02644e-06
-6.00337e-07
3.2685e-06
-6.0715e-07
3.51069e-06
-6.11719e-07
3.75132e-06
-6.12186e-07
3.98775e-06
-6.0593e-07
4.21601e-06
-5.89576e-07
4.43062e-06
-5.59068e-07
4.62434e-06
-5.09845e-07
4.78807e-06
-4.37133e-07
4.91093e-06
-3.36373e-07
4.98053e-06
-2.03803e-07
4.98353e-06
-3.71291e-08
4.90649e-06
1.63731e-07
4.737e-06
3.95977e-07
4.46502e-06
6.53425e-07
4.08428e-06
9.26369e-07
3.59366e-06
1.20189e-06
2.99811e-06
1.4647e-06
2.30914e-06
1.69848e-06
1.54458e-06
1.88746e-06
7.27709e-07
2.01822e-06
-1.14342e-07
2.08111e-06
-9.52537e-07
2.07147e-06
-1.75817e-06
1.99009e-06
-2.50503e-06
1.84314e-06
-3.17126e-06
1.64146e-06
-3.74074e-06
1.39925e-06
-4.20379e-06
1.13253e-06
-4.55718e-06
8.57448e-07
-4.80353e-06
5.88685e-07
-4.95021e-06
3.3831e-07
-5.008e-06
1.15049e-07
-4.98966e-06
-7.59013e-08
-4.90863e-06
-2.32618e-07
-4.77798e-06
-3.55868e-07
-4.60963e-06
-4.48421e-07
-4.41394e-06
-5.14338e-07
-4.1994e-06
-5.58292e-07
-3.97268e-06
-5.85015e-07
-3.73876e-06
-5.98912e-07
-3.50116e-06
-6.03837e-07
-3.26218e-06
-6.02958e-07
-3.02326e-06
-5.98678e-07
-2.78517e-06
-5.92641e-07
-2.54836e-06
-5.85796e-07
-2.31316e-06
-5.7849e-07
-2.07997e-06
-5.70555e-07
-1.8494e-06
-5.61389e-07
-1.62246e-06
-5.50046e-07
-1.40059e-06
-5.3534e-07
-1.18569e-06
-5.15962e-07
-9.80171e-07
-4.906e-07
-7.86864e-07
-4.58071e-07
-6.08907e-07
-4.17474e-07
-4.49566e-07
-3.68375e-07
-3.11982e-07
-3.11037e-07
-1.98823e-07
-2.46697e-07
-1.11858e-07
-1.7792e-07
-5.14469e-08
-1.09022e-07
-1.59736e-08
-4.65954e-08
-1.26445e-09
-3.008e-10
1.56359e-08
7.45695e-09
8.80293e-09
3.72688e-08
-2.84983e-08
9.45921e-08
-1.01744e-07
1.82229e-07
-1.94123e-07
3.00788e-07
-2.93743e-07
4.49107e-07
-3.92219e-07
6.2473e-07
-4.83921e-07
8.24357e-07
-5.6544e-07
1.04426e-06
-6.3511e-07
1.28062e-06
-6.92594e-07
1.52982e-06
-7.38523e-07
1.7886e-06
-7.74191e-07
2.05423e-06
-8.01289e-07
2.3245e-06
-8.21683e-07
2.59778e-06
-8.37215e-07
2.87295e-06
-8.49529e-07
3.14926e-06
-8.59919e-07
3.42626e-06
-8.69175e-07
3.70357e-06
-8.77442e-07
3.98064e-06
-8.84077e-07
4.25652e-06
-8.87521e-07
4.52955e-06
-8.85189e-07
4.79697e-06
-8.73398e-07
5.05463e-06
-8.47359e-07
5.29663e-06
-8.01266e-07
5.51502e-06
-7.2852e-07
5.69965e-06
-6.22128e-07
5.83812e-06
-4.75309e-07
5.91607e-06
-2.82318e-07
5.91774e-06
-3.94547e-08
5.8269e-06
2.53826e-07
5.6282e-06
5.93841e-07
5.30884e-06
9.71871e-07
4.86038e-06
1.37384e-06
4.2805e-06
1.78072e-06
3.57433e-06
2.16976e-06
2.75517e-06
2.5165e-06
1.84425e-06
2.79721e-06
8.69662e-07
2.99162e-06
-1.35591e-07
3.08518e-06
-1.13612e-06
3.0708e-06
-2.09695e-06
2.94972e-06
-2.98627e-06
2.73128e-06
-3.77782e-06
2.43183e-06
-4.45252e-06
2.07282e-06
-4.99939e-06
1.67832e-06
-5.4154e-06
1.27246e-06
-5.70466e-06
8.77026e-07
-5.87689e-06
5.09713e-07
-5.94569e-06
1.83103e-07
-5.92672e-06
-9.55438e-08
-5.8361e-06
-3.23826e-07
-5.68919e-06
-5.03269e-07
-5.49978e-06
-6.38241e-07
-5.27955e-06
-7.34867e-07
-5.03796e-06
-8.00078e-07
-4.78229e-06
-8.40794e-07
-4.51784e-06
-8.63382e-07
-4.24828e-06
-8.73343e-07
-3.97596e-06
-8.75152e-07
-3.70229e-06
-8.72174e-07
-3.42801e-06
-8.66688e-07
-3.15355e-06
-8.59982e-07
-2.87923e-06
-8.5249e-07
-2.60551e-06
-8.43916e-07
-2.33315e-06
-8.3336e-07
-2.06332e-06
-8.19447e-07
-1.79774e-06
-8.00476e-07
-1.53866e-06
-7.74578e-07
-1.2889e-06
-7.39884e-07
-1.05178e-06
-6.94717e-07
-8.30971e-07
-6.37804e-07
-6.30343e-07
-5.68532e-07
-4.53669e-07
-4.87251e-07
-3.04292e-07
-3.95628e-07
-1.84715e-07
-2.97067e-07
-9.61449e-08
-1.9718e-07
-3.80276e-08
-1.04317e-07
-7.65263e-09
-3.03109e-08
8.12628e-09
1.41034e-08
-5.09677e-09
6.04326e-08
-7.44413e-08
1.41558e-07
-1.82471e-07
2.5838e-07
-3.10532e-07
4.10019e-07
-4.44956e-07
5.94114e-07
-5.75879e-07
8.07217e-07
-6.96581e-07
1.04519e-06
-8.02964e-07
1.30358e-06
-8.93059e-07
1.57796e-06
-9.66555e-07
1.86422e-06
-1.02437e-06
2.15866e-06
-1.06825e-06
2.45823e-06
-1.1005e-06
2.76049e-06
-1.12361e-06
3.06365e-06
-1.14007e-06
3.36651e-06
-1.1521e-06
3.66834e-06
-1.1615e-06
3.96878e-06
-1.16941e-06
4.26764e-06
-1.17613e-06
4.56463e-06
-1.18095e-06
4.85914e-06
-1.18196e-06
5.14985e-06
-1.1759e-06
5.43441e-06
-1.15802e-06
5.70898e-06
-1.12207e-06
5.96786e-06
-1.06036e-06
6.20304e-06
-9.64009e-07
6.40394e-06
-8.23425e-07
6.55723e-06
-6.29092e-07
6.64698e-06
-3.72652e-07
6.65515e-06
-4.83029e-08
6.5626e-06
3.45614e-07
6.35058e-06
8.05005e-07
6.00281e-06
1.31872e-06
5.50773e-06
1.86794e-06
4.86087e-06
2.42654e-06
4.06674e-06
2.96282e-06
3.13981e-06
3.44232e-06
2.10445e-06
3.83145e-06
9.93569e-07
4.10137e-06
-1.53736e-07
4.23136e-06
-1.29538e-06
4.21134e-06
-2.38982e-06
4.04305e-06
-3.39947e-06
3.73982e-06
-4.29372e-06
3.32497e-06
-5.05095e-06
2.82894e-06
-5.6595e-06
2.28582e-06
-6.11748e-06
1.72944e-06
-6.43141e-06
1.19004e-06
-6.61425e-06
6.91738e-07
-6.68307e-06
2.51191e-07
-6.65678e-06
-1.22492e-07
-6.55423e-06
-4.26952e-07
-6.39287e-06
-6.65139e-07
-6.18783e-06
-8.43695e-07
-5.9516e-06
-9.71414e-07
-5.69395e-06
-1.05795e-06
-5.42211e-06
-1.11275e-06
-5.14114e-06
-1.14438e-06
-4.85434e-06
-1.16008e-06
-4.56369e-06
-1.16567e-06
-4.27022e-06
-1.16546e-06
-3.97437e-06
-1.16231e-06
-3.67632e-06
-1.15775e-06
-3.37624e-06
-1.15225e-06
-3.07453e-06
-1.14528e-06
-2.77194e-06
-1.13556e-06
-2.46976e-06
-1.12122e-06
-2.16986e-06
-1.09995e-06
-1.87476e-06
-1.06924e-06
-1.58761e-06
-1.02658e-06
-1.31216e-06
-9.69723e-07
-1.05259e-06
-8.96921e-07
-8.13394e-07
-8.0729e-07
-5.99056e-07
-7.01162e-07
-4.13759e-07
-5.80513e-07
-2.60999e-07
-4.49435e-07
-1.43178e-07
-3.14632e-07
-6.12206e-08
-1.85926e-07
-1.43076e-08
-7.69018e-08
-6.07133e-09
2.06364e-08
-2.55416e-08
8.34893e-08
-1.36925e-07
1.88531e-07
-2.87129e-07
3.34511e-07
-4.56111e-07
5.18759e-07
-6.28782e-07
7.37412e-07
-7.94099e-07
9.85777e-07
-9.44501e-07
1.25869e-06
-1.07543e-06
1.55088e-06
-1.1848e-06
1.85728e-06
-1.27251e-06
2.17323e-06
-1.33991e-06
2.4947e-06
-1.38935e-06
2.81835e-06
-1.42381e-06
3.14159e-06
-1.44654e-06
3.46257e-06
-1.46077e-06
3.78013e-06
-1.46941e-06
4.09368e-06
-1.47484e-06
4.40312e-06
-1.47867e-06
4.70862e-06
-1.48148e-06
5.0104e-06
-1.48263e-06
5.30848e-06
-1.48e-06
5.60233e-06
-1.46975e-06
5.89043e-06
-1.4462e-06
6.16987e-06
-1.40167e-06
6.43579e-06
-1.32652e-06
6.68082e-06
-1.20938e-06
6.89467e-06
-1.0377e-06
7.06367e-06
-7.98615e-07
7.17075e-06
-4.80344e-07
7.19574e-06
-7.39884e-08
7.11631e-06
4.24262e-07
6.90967e-06
1.01079e-06
6.55496e-06
1.67253e-06
6.03624e-06
2.3857e-06
5.34562e-06
3.11615e-06
4.4859e-06
3.82149e-06
3.47215e-06
4.455e-06
2.33169e-06
4.97084e-06
1.10258e-06
5.32942e-06
-1.69394e-07
5.50229e-06
-1.43465e-06
5.47558e-06
-2.64429e-06
5.25169e-06
-3.75445e-06
4.84897e-06
-4.72994e-06
4.29944e-06
-5.5469e-06
3.64486e-06
-6.19381e-06
2.93169e-06
-6.67098e-06
2.20564e-06
-6.98872e-06
1.50687e-06
-7.16443e-06
8.66646e-07
-7.2196e-06
3.05656e-07
-7.17694e-06
-1.65774e-07
-7.05818e-06
-5.46266e-07
-6.88258e-06
-8.41215e-07
-6.66619e-06
-1.06048e-06
-6.42165e-06
-1.21627e-06
-6.15832e-06
-1.32151e-06
-5.8827e-06
-1.3885e-06
-5.59899e-06
-1.42813e-06
-5.30957e-06
-1.44945e-06
-5.01557e-06
-1.45955e-06
-4.71729e-06
-1.46356e-06
-4.41457e-06
-1.46478e-06
-4.10716e-06
-1.46489e-06
-3.79488e-06
-1.46421e-06
-3.47792e-06
-1.46189e-06
-3.15693e-06
-1.45617e-06
-2.83319e-06
-1.44456e-06
-2.50864e-06
-1.42408e-06
-2.18598e-06
-1.39146e-06
-1.86865e-06
-1.34348e-06
-1.56075e-06
-1.27717e-06
-1.26701e-06
-1.19022e-06
-9.92555e-07
-1.08131e-06
-7.42713e-07
-9.5058e-07
-5.22686e-07
-8.00134e-07
-3.37206e-07
-6.34528e-07
-1.9017e-07
-4.61311e-07
-8.42811e-08
-2.91483e-07
-2.08449e-08
-1.40031e-07
-2.68141e-08
2.68818e-08
-5.22427e-08
1.058e-07
-2.15491e-07
2.34224e-07
-4.1518e-07
4.08621e-07
-6.30112e-07
6.24291e-07
-8.44027e-07
8.7561e-07
-1.04497e-06
1.15641e-06
-1.22483e-06
1.46034e-06
-1.37886e-06
1.78118e-06
-1.50514e-06
2.11315e-06
-1.604e-06
2.45112e-06
-1.67741e-06
2.79071e-06
-1.7285e-06
3.12837e-06
-1.76108e-06
3.46144e-06
-1.77926e-06
3.78809e-06
-1.78711e-06
4.1073e-06
-1.78835e-06
4.41875e-06
-1.78605e-06
4.72271e-06
-1.78243e-06
5.0199e-06
-1.77852e-06
5.31128e-06
-1.77391e-06
5.59778e-06
-1.76646e-06
5.88002e-06
-1.75201e-06
6.15783e-06
-1.72411e-06
6.42979e-06
-1.67381e-06
6.69258e-06
-1.58958e-06
6.94032e-06
-1.45748e-06
7.16377e-06
-1.26161e-06
7.34972e-06
-9.85112e-07
7.4805e-06
-6.11765e-07
7.53404e-06
-1.28244e-07
7.48458e-06
4.72936e-07
7.30442e-06
1.1901e-06
6.9668e-06
2.00925e-06
6.44969e-06
2.90186e-06
5.74011e-06
3.82475e-06
4.83784e-06
4.72274e-06
3.75776e-06
5.53403e-06
2.53014e-06
6.19739e-06
1.19871e-06
6.65978e-06
-1.83037e-07
6.883e-06
-1.55685e-06
6.8484e-06
-2.8653e-06
6.55919e-06
-4.05729e-06
6.04002e-06
-5.09272e-06
5.33391e-06
-5.94569e-06
4.49684e-06
-6.60574e-06
3.59072e-06
-7.07694e-06
2.67582e-06
-7.37503e-06
1.80402e-06
-7.52352e-06
1.0143e-06
-7.54952e-06
3.30938e-07
-7.4802e-06
-2.35711e-07
-7.34024e-06
-6.86749e-07
-7.15042e-06
-1.03148e-06
-6.92707e-06
-1.28421e-06
-6.68216e-06
-1.46149e-06
-6.42385e-06
-1.58005e-06
-6.15716e-06
-1.65533e-06
-5.88472e-06
-1.70063e-06
-5.60744e-06
-1.7267e-06
-5.32517e-06
-1.74172e-06
-5.03711e-06
-1.75144e-06
-4.74228e-06
-1.75938e-06
-4.43973e-06
-1.76716e-06
-4.12883e-06
-1.77479e-06
-3.80942e-06
-1.78095e-06
-3.48194e-06
-1.78327e-06
-3.14755e-06
-1.77854e-06
-2.80822e-06
-1.76297e-06
-2.46673e-06
-1.7325e-06
-2.12671e-06
-1.68302e-06
-1.79264e-06
-1.61076e-06
-1.46975e-06
-1.51262e-06
-1.16388e-06
-1.3867e-06
-8.81292e-07
-1.2327e-06
-6.28384e-07
-1.05259e-06
-4.11358e-07
-8.51121e-07
-2.35851e-07
-6.36415e-07
-1.06576e-07
-4.20385e-07
-2.70906e-08
-2.19168e-07
-5.37626e-08
3.27987e-08
-8.48676e-08
1.2716e-07
-3.0951e-07
2.78155e-07
-5.65809e-07
4.79871e-07
-8.31435e-07
7.25371e-07
-1.0891e-06
1.00704e-06
-1.32618e-06
1.31701e-06
-1.53431e-06
1.64759e-06
-1.7089e-06
1.99153e-06
-1.84852e-06
2.34233e-06
-1.95423e-06
2.69437e-06
-2.02888e-06
3.04297e-06
-2.07656e-06
3.38449e-06
-2.10209e-06
3.71623e-06
-2.11055e-06
4.03648e-06
-2.10697e-06
4.34443e-06
-2.09595e-06
4.64009e-06
-2.08142e-06
4.92423e-06
-2.06632e-06
5.19824e-06
-2.05232e-06
5.46395e-06
-2.03949e-06
5.72349e-06
-2.02593e-06
5.97892e-06
-2.00744e-06
6.23186e-06
-1.97715e-06
6.48298e-06
-1.92511e-06
6.73126e-06
-1.83814e-06
6.97314e-06
-1.69973e-06
7.20147e-06
-1.49042e-06
7.40448e-06
-1.18868e-06
7.56475e-06
-7.7269e-07
7.65878e-06
-2.23002e-07
7.65726e-06
4.73656e-07
7.52674e-06
1.31978e-06
7.23288e-06
2.30222e-06
6.74542e-06
3.38838e-06
6.04406e-06
4.52512e-06
5.12385e-06
5.64192e-06
3.99859e-06
6.65818e-06
2.70151e-06
7.49331e-06
1.28281e-06
8.07729e-06
-1.9501e-07
8.35966e-06
-1.66346e-06
8.31577e-06
-3.05505e-06
7.9498e-06
-4.31024e-06
7.29428e-06
-5.38336e-06
6.40609e-06
-6.24675e-06
5.35922e-06
-6.89217e-06
4.23507e-06
-7.32935e-06
3.11189e-06
-7.5818e-06
2.05539e-06
-7.68114e-06
1.11267e-06
-7.66156e-06
3.10522e-07
-7.55531e-06
-3.42658e-07
-7.38994e-06
-8.52676e-07
-7.18714e-06
-1.23475e-06
-6.96259e-06
-1.50915e-06
-6.72664e-06
-1.69775e-06
-6.48527e-06
-1.82166e-06
-6.24115e-06
-1.89961e-06
-5.99465e-06
-1.94722e-06
-5.74467e-06
-1.97668e-06
-5.48937e-06
-1.99696e-06
-5.22658e-06
-2.01409e-06
-4.95426e-06
-2.03151e-06
-4.67065e-06
-2.05051e-06
-4.37454e-06
-2.0706e-06
-4.06533e-06
-2.08981e-06
-3.74319e-06
-2.10502e-06
-3.4091e-06
-2.1122e-06
-3.06494e-06
-2.10668e-06
-2.7135e-06
-2.08345e-06
-2.35857e-06
-2.03742e-06
-2.00494e-06
-1.96385e-06
-1.65831e-06
-1.85871e-06
-1.32527e-06
-1.71918e-06
-1.01312e-06
-1.5443e-06
-7.29616e-07
-1.33556e-06
-4.82619e-07
-1.0976e-06
-2.7974e-07
-8.38798e-07
-1.27897e-07
-5.71761e-07
-3.29976e-08
-3.13627e-07
-8.65338e-08
3.84284e-08
-1.23125e-07
1.47656e-07
-4.18406e-07
3.2042e-07
-7.38217e-07
5.48301e-07
-1.05894e-06
8.21906e-07
-1.36231e-06
1.13138e-06
-1.63522e-06
1.46698e-06
-1.86944e-06
1.81953e-06
-2.06092e-06
2.18071e-06
-2.20913e-06
2.54331e-06
-2.31622e-06
2.90128e-06
-2.38622e-06
3.24974e-06
-2.42441e-06
3.58499e-06
-2.43675e-06
3.90441e-06
-2.42943e-06
4.20646e-06
-2.40852e-06
4.49058e-06
-2.37963e-06
4.75716e-06
-2.34763e-06
5.00751e-06
-2.31634e-06
5.24371e-06
-2.28826e-06
5.46859e-06
-2.26418e-06
5.68557e-06
-2.24278e-06
5.89839e-06
-2.22023e-06
6.11081e-06
-2.18963e-06
6.32611e-06
-2.14056e-06
6.54631e-06
-2.05859e-06
6.77114e-06
-1.92492e-06
6.99674e-06
-1.71648e-06
7.21408e-06
-1.40657e-06
7.4073e-06
-9.66537e-07
7.55239e-06
-3.68805e-07
7.61679e-06
4.08489e-07
7.56049e-06
1.37525e-06
7.3397e-06
2.52212e-06
6.9132e-06
3.81395e-06
6.25048e-06
5.18686e-06
5.33958e-06
6.55178e-06
4.19217e-06
7.80447e-06
2.84447e-06
8.83975e-06
1.35425e-06
9.56616e-06
-2.05471e-07
9.91802e-06
-1.75417e-06
9.8632e-06
-3.21245e-06
9.40698e-06
-4.51083e-06
8.59171e-06
-5.59728e-06
7.49165e-06
-6.44259e-06
6.20358e-06
-7.04224e-06
4.83367e-06
-7.41417e-06
3.48265e-06
-7.59256e-06
2.23255e-06
-7.61977e-06
1.13871e-06
-7.53859e-06
2.28307e-07
-7.38678e-06
-4.95326e-07
-7.19428e-06
-1.04586e-06
-6.98259e-06
-1.44698e-06
-6.76545e-06
-1.7267e-06
-6.5503e-06
-1.91323e-06
-6.33981e-06
-2.0324e-06
-6.13338e-06
-2.10622e-06
-5.92844e-06
-2.15226e-06
-5.72142e-06
-2.18374e-06
-5.50844e-06
-2.20991e-06
-5.28582e-06
-2.23662e-06
-5.05031e-06
-2.26685e-06
-4.79932e-06
-2.30128e-06
-4.53101e-06
-2.33865e-06
-4.24432e-06
-2.37618e-06
-3.93908e-06
-2.40989e-06
-3.61606e-06
-2.43481e-06
-3.27697e-06
-2.44532e-06
-2.92457e-06
-2.43535e-06
-2.5627e-06
-2.39876e-06
-2.19636e-06
-2.32963e-06
-1.83173e-06
-2.22277e-06
-1.47611e-06
-2.07422e-06
-1.13788e-06
-1.88194e-06
-8.26269e-07
-1.64659e-06
-5.51016e-07
-1.37227e-06
-3.21923e-07
-1.06733e-06
-1.48324e-07
-7.44823e-07
-3.85987e-08
-4.22846e-07
-1.24838e-07
4.38603e-08
-1.66821e-07
1.67579e-07
-5.41803e-07
3.6154e-07
-9.31839e-07
6.14615e-07
-1.31169e-06
9.14677e-07
-1.66205e-06
1.24937e-06
-1.96961e-06
1.60688e-06
-2.22663e-06
1.97647e-06
-2.43015e-06
2.34877e-06
-2.58103e-06
2.71592e-06
-2.68291e-06
3.07157e-06
-2.74137e-06
3.41076e-06
-2.76307e-06
3.72983e-06
-2.7553e-06
4.02633e-06
-2.72543e-06
4.2989e-06
-2.68064e-06
4.54728e-06
-2.62759e-06
4.77222e-06
-2.57219e-06
4.97549e-06
-2.51929e-06
5.15987e-06
-2.47237e-06
5.32912e-06
-2.43322e-06
5.48793e-06
-2.40146e-06
5.64182e-06
-2.37405e-06
5.79686e-06
-2.34469e-06
5.95931e-06
-2.30312e-06
6.13488e-06
-2.23435e-06
6.32762e-06
-2.11796e-06
6.53832e-06
-1.92757e-06
6.7624e-06
-1.63112e-06
6.9874e-06
-1.19208e-06
7.19055e-06
-5.72568e-07
7.33696e-06
2.61387e-07
7.37979e-06
1.33166e-06
7.26374e-06
2.63736e-06
6.93316e-06
4.14367e-06
6.34355e-06
5.77558e-06
5.47304e-06
7.42139e-06
4.32982e-06
8.9467e-06
2.95342e-06
1.0215e-05
1.41028e-06
1.11079e-05
-2.14333e-07
1.15412e-05
-1.82599e-06
1.14735e-05
-3.33156e-06
1.09114e-05
-4.64995e-06
9.90928e-06
-5.72178e-06
8.56287e-06
-6.5165e-06
6.99772e-06
-7.03518e-06
5.35161e-06
-7.30723e-06
3.75375e-06
-7.38136e-06
2.30554e-06
-7.31373e-06
1.06987e-06
-7.15731e-06
7.0723e-08
-6.95524e-06
-6.98403e-07
-6.7386e-06
-1.26331e-06
-6.52691e-06
-1.65929e-06
-6.33017e-06
-1.92391e-06
-6.15126e-06
-2.09248e-06
-5.98829e-06
-2.19561e-06
-5.8365e-06
-2.25817e-06
-5.68978e-06
-2.29907e-06
-5.54172e-06
-2.33182e-06
-5.38631e-06
-2.36529e-06
-5.21826e-06
-2.40457e-06
-5.03324e-06
-2.45175e-06
-4.82782e-06
-2.50651e-06
-4.59958e-06
-2.56665e-06
-4.34707e-06
-2.62842e-06
-4.06979e-06
-2.68686e-06
-3.76825e-06
-2.73601e-06
-3.44396e-06
-2.76922e-06
-3.09956e-06
-2.77935e-06
-2.73884e-06
-2.75904e-06
-2.36691e-06
-2.7011e-06
-1.99028e-06
-2.59893e-06
-1.61691e-06
-2.44711e-06
-1.25626e-06
-2.24212e-06
-9.19108e-07
-1.98327e-06
-6.17239e-07
-1.67368e-06
-3.6291e-07
-1.32121e-06
-1.6814e-07
-9.39152e-07
-4.39797e-08
-5.46604e-07
-1.6859e-07
4.92113e-08
-2.15888e-07
1.87373e-07
-6.79658e-07
4.02377e-07
-1.14651e-06
6.80051e-07
-1.58907e-06
1.00514e-06
-1.9869e-06
1.36249e-06
-2.3268e-06
1.73804e-06
-2.6021e-06
2.11948e-06
-2.81155e-06
2.49651e-06
-2.958e-06
2.86079e-06
-3.04711e-06
3.20585e-06
-3.08629e-06
3.52681e-06
-3.08386e-06
3.82021e-06
-3.0485e-06
4.08381e-06
-2.98882e-06
4.31651e-06
-2.91313e-06
4.51828e-06
-2.82916e-06
4.69015e-06
-2.74389e-06
4.83426e-06
-2.66325e-06
4.95391e-06
-2.5919e-06
5.05361e-06
-2.53282e-06
5.13914e-06
-2.48693e-06
5.21761e-06
-2.45251e-06
5.29738e-06
-2.42449e-06
5.38778e-06
-2.39362e-06
5.49868e-06
-2.3454e-06
5.63931e-06
-2.2588e-06
5.81659e-06
-2.10513e-06
6.03245e-06
-1.84731e-06
6.28044e-06
-1.44047e-06
6.54178e-06
-8.34361e-07
6.78152e-06
2.11201e-08
6.94656e-06
1.16603e-06
6.96819e-06
2.61508e-06
6.77212e-06
4.33907e-06
6.29492e-06
6.25215e-06
5.50098e-06
8.21481e-06
4.39354e-06
1.00537e-05
3.01593e-06
1.15921e-05
1.44478e-06
1.26782e-05
-2.21032e-07
1.32058e-05
-1.87174e-06
1.31229e-05
-3.39894e-06
1.24376e-05
-4.7084e-06
1.12182e-05
-5.7322e-06
9.58661e-06
-6.43864e-06
7.70435e-06
-6.83658e-06
5.74969e-06
-6.97116e-06
3.8882e-06
-6.91048e-06
2.24437e-06
-6.7281e-06
8.86694e-07
-6.48828e-06
-1.70037e-07
-6.23842e-06
-9.49197e-07
-6.00822e-06
-1.49431e-06
-5.8125e-06
-1.85562e-06
-5.65505e-06
-2.08179e-06
-5.53237e-06
-2.21544e-06
-5.43669e-06
-2.29144e-06
-5.35833e-06
-2.33659e-06
-5.28724e-06
-2.37014e-06
-5.21412e-06
-2.40489e-06
-5.13088e-06
-2.44843e-06
-5.03087e-06
-2.50444e-06
-4.90882e-06
-2.57363e-06
-4.76072e-06
-2.65443e-06
-4.58371e-06
-2.74345e-06
-4.37603e-06
-2.83588e-06
-4.13693e-06
-2.92572e-06
-3.86668e-06
-3.00602e-06
-3.56657e-06
-3.06909e-06
-3.23899e-06
-3.10667e-06
-2.88759e-06
-3.11019e-06
-2.5174e-06
-3.07105e-06
-2.13506e-06
-2.98104e-06
-1.74905e-06
-2.83292e-06
-1.36978e-06
-2.62121e-06
-1.00961e-06
-2.34329e-06
-6.82524e-07
-2.00063e-06
-4.03552e-07
-1.60006e-06
-1.87784e-07
-1.15483e-06
-4.92623e-08
-6.85096e-07
-2.17918e-07
5.46263e-08
-2.70409e-07
2.07649e-07
-8.32379e-07
4.44154e-07
-1.38263e-06
7.46347e-07
-1.89086e-06
1.09531e-06
-2.33552e-06
1.47273e-06
-2.704e-06
1.86221e-06
-2.99152e-06
2.24998e-06
-3.1994e-06
2.625e-06
-3.33319e-06
2.97879e-06
-3.40111e-06
3.30502e-06
-3.41273e-06
3.59914e-06
-3.37816e-06
3.85802e-06
-3.30753e-06
4.07974e-06
-3.21068e-06
4.26343e-06
-3.09694e-06
4.40923e-06
-2.97508e-06
4.51834e-06
-2.85311e-06
4.59304e-06
-2.73807e-06
4.63686e-06
-2.63584e-06
4.65472e-06
-2.5508e-06
4.65312e-06
-2.48547e-06
4.64034e-06
-2.43988e-06
4.62656e-06
-2.41088e-06
4.62397e-06
-2.39121e-06
4.64656e-06
-2.36818e-06
4.70934e-06
-2.32179e-06
4.82662e-06
-2.22263e-06
5.0091e-06
-2.03005e-06
5.25967e-06
-1.69133e-06
5.56773e-06
-1.14274e-06
5.90248e-06
-3.14e-07
6.20705e-06
8.61045e-07
6.39809e-06
2.42358e-06
6.37774e-06
4.35893e-06
6.05727e-06
6.57223e-06
5.38252e-06
8.8895e-06
4.3502e-06
1.10865e-05
3.00851e-06
1.29345e-05
1.44598e-06
1.42411e-05
-2.24373e-07
1.48757e-05
-1.8774e-06
1.47748e-05
-3.38896e-06
1.3948e-05
-4.65076e-06
1.24794e-05
-5.58526e-06
1.05213e-05
-6.15948e-06
8.27943e-06
-6.39254e-06
5.98395e-06
-6.35067e-06
3.84747e-06
-6.12736e-06
2.02182e-06
-5.81753e-06
5.77099e-07
-5.49666e-06
-4.91115e-07
-5.21323e-06
-1.23309e-06
-4.99133e-06
-1.71674e-06
-4.8371e-06
-2.01031e-06
-4.74517e-06
-2.17403e-06
-4.70372e-06
-2.25704e-06
-4.69813e-06
-2.29706e-06
-4.71333e-06
-2.32132e-06
-4.73538e-06
-2.34795e-06
-4.75231e-06
-2.38775e-06
-4.75443e-06
-2.44606e-06
-4.73417e-06
-2.52442e-06
-4.68576e-06
-2.62176e-06
-4.6049e-06
-2.73499e-06
-4.48859e-06
-2.85947e-06
-4.33494e-06
-2.98925e-06
-4.14307e-06
-3.11732e-06
-3.91304e-06
-3.23579e-06
-3.6459e-06
-3.33599e-06
-3.34374e-06
-3.40862e-06
-3.00984e-06
-3.44391e-06
-2.64894e-06
-3.43181e-06
-2.26758e-06
-3.36233e-06
-1.87439e-06
-3.22607e-06
-1.48055e-06
-3.01508e-06
-1.09985e-06
-2.72407e-06
-7.48636e-07
-2.35199e-06
-4.45059e-07
-1.90384e-06
-2.07853e-07
-1.39232e-06
-5.45936e-08
-8.38747e-07
-2.72952e-07
6.03e-08
-3.30624e-07
2.29295e-07
-1.00104e-06
4.88617e-07
-1.64135e-06
8.15882e-07
-2.21732e-06
1.18776e-06
-2.70646e-06
1.58245e-06
-3.09774e-06
1.98124e-06
-3.38949e-06
2.36918e-06
-3.58671e-06
2.73496e-06
-3.69854e-06
3.07037e-06
-3.73622e-06
3.36963e-06
-3.71177e-06
3.62878e-06
-3.63715e-06
3.84523e-06
-3.52387e-06
4.01743e-06
-3.3828e-06
4.14472e-06
-3.2242e-06
4.22731e-06
-3.05768e-06
4.26633e-06
-2.89219e-06
4.26396e-06
-2.73581e-06
4.22358e-06
-2.59562e-06
4.15004e-06
-2.47747e-06
4.04993e-06
-2.38562e-06
3.93197e-06
-2.32222e-06
3.80735e-06
-2.28661e-06
3.69023e-06
-2.27447e-06
3.59809e-06
-2.27643e-06
3.55154e-06
-2.27565e-06
3.57298e-06
-2.24449e-06
3.68384e-06
-2.14134e-06
3.90003e-06
-1.90797e-06
4.22488e-06
-1.46806e-06
4.63888e-06
-7.28477e-07
5.08724e-06
4.12189e-07
5.47274e-06
2.03754e-06
5.66877e-06
4.16225e-06
5.55351e-06
6.68675e-06
5.04821e-06
9.39432e-06
4.14178e-06
1.19934e-05
2.88916e-06
1.41885e-05
1.39259e-06
1.57391e-05
-2.22347e-07
1.64907e-05
-1.81782e-06
1.63687e-05
-3.256e-06
1.53837e-05
-4.41538e-06
1.36363e-05
-5.208e-06
1.13123e-05
-5.59913e-06
8.67032e-06
-5.62042e-06
6.00614e-06
-5.36573e-06
3.59433e-06
-4.96098e-06
1.61869e-06
-4.52583e-06
1.43218e-07
-4.14446e-06
-8.71819e-07
-3.85986e-06
-1.51756e-06
-3.68369e-06
-1.89313e-06
-3.60837e-06
-2.08599e-06
-3.61628e-06
-2.16644e-06
-3.68587e-06
-2.18766e-06
-3.79527e-06
-2.18776e-06
-3.92431e-06
-2.19225e-06
-4.05574e-06
-2.2164e-06
-4.17572e-06
-2.26755e-06
-4.27379e-06
-2.34768e-06
-4.34224e-06
-2.4556e-06
-4.37542e-06
-2.58816e-06
-4.36922e-06
-2.74073e-06
-4.32081e-06
-2.90736e-06
-4.22842e-06
-3.08107e-06
-4.09119e-06
-3.25395e-06
-3.90908e-06
-3.41726e-06
-3.68289e-06
-3.56153e-06
-3.4143e-06
-3.67654e-06
-3.10608e-06
-3.75147e-06
-2.76238e-06
-3.77486e-06
-2.3892e-06
-3.73489e-06
-1.99494e-06
-3.61975e-06
-1.59105e-06
-3.41845e-06
-1.1925e-06
-3.12217e-06
-8.17953e-07
-2.72619e-06
-4.89119e-07
-2.23245e-06
-2.29173e-07
-1.65221e-06
-6.01495e-08
-1.00792e-06
-3.33455e-07
6.65195e-08
-3.9696e-07
2.53713e-07
-1.1878e-06
5.3841e-07
-1.92515e-06
8.91988e-07
-2.56942e-06
1.28577e-06
-3.09816e-06
1.6942e-06
-3.50366e-06
2.09661e-06
-3.78921e-06
2.47752e-06
-3.96497e-06
2.82603e-06
-4.04455e-06
3.13481e-06
-4.0427e-06
3.39912e-06
-3.97396e-06
3.61591e-06
-3.85202e-06
3.78328e-06
-3.6895e-06
3.90011e-06
-3.49808e-06
3.96587e-06
-3.28861e-06
3.98069e-06
-3.07137e-06
3.94544e-06
-2.85603e-06
3.86184e-06
-2.65153e-06
3.73269e-06
-2.46601e-06
3.56215e-06
-2.3067e-06
3.35618e-06
-2.17963e-06
3.12292e-06
-2.08915e-06
2.87327e-06
-2.03735e-06
2.62178e-06
-2.02354e-06
2.38781e-06
-2.04318e-06
2.19626e-06
-2.08495e-06
2.07699e-06
-2.12617e-06
2.0628e-06
-2.12817e-06
2.1857e-06
-2.03197e-06
2.46976e-06
-1.75326e-06
2.91752e-06
-1.1774e-06
3.48787e-06
-1.5933e-07
4.07481e-06
1.44942e-06
4.5194e-06
3.71615e-06
4.65861e-06
6.54523e-06
4.38203e-06
9.66773e-06
3.66966e-06
1.2703e-05
2.58574e-06
1.52716e-05
1.24805e-06
1.70772e-05
-2.11437e-07
1.79495e-05
-1.6499e-06
1.78038e-05
-2.92218e-06
1.665e-05
-3.89805e-06
1.46051e-05
-4.47972e-06
1.18875e-05
-4.62993e-06
8.8156e-06
-4.39449e-06
5.7678e-06
-3.90226e-06
3.10104e-06
-3.31824e-06
1.03479e-06
-2.78794e-06