/*--------------------------------*- C++ -*----------------------------------*\
| =========                 |                                                 |
| \\      /  F ield         | OpenFOAM: The Open Source CFD Toolbox           |
|  \\    /   O peration     | Version:  2412                                  |
|   \\  /    A nd           | Website:  www.openfoam.com                      |
|    \\/     M anipulation  |                                                 |
\*---------------------------------------------------------------------------*/
FoamFile
{
    version     2.0;
    format      ascii;
    arch        "LSB;label=32;scalar=64";
    class       volScalarField;
    location    "0.95";
    object      p;
}
// * * * * * * * * * * * * * * * * * * * * * * * * * * * * * * * * * * * * * //

dimensions      [1 -1 -2 0 0 0 0];

internalField   nonuniform List<scalar> 
6400
(
8164.58
8164.17
8163.77
8163.61
8163.75
8164.19
8164.95
8166.03
8167.41
8169.11
8171.12
8173.45
8176.08
8179.02
8182.24
8185.75
8189.51
8193.51
8197.72
8202.11
8206.64
8211.28
8215.99
8220.72
8225.44
8230.08
8234.6
8238.96
8243.1
8246.98
8250.56
8253.8
8256.68
8259.19
8261.32
8263.09
8264.51
8265.6
8266.36
8266.83
8267
8266.88
8266.46
8265.73
8264.67
8263.26
8261.47
8259.3
8256.72
8253.76
8250.41
8246.72
8242.71
8238.44
8233.95
8229.31
8224.57
8219.8
8215.05
8210.35
8205.78
8201.36
8197.13
8193.13
8189.36
8185.83
8182.56
8179.54
8176.79
8174.31
8172.13
8170.26
8168.69
8167.46
8166.56
8166.01
8165.81
8165.94
8166.33
8166.76
7748.09
7747.67
7747.32
7747.23
7747.41
7747.89
7748.68
7749.78
7751.19
7752.91
7754.94
7757.29
7759.95
7762.91
7766.16
7769.69
7773.47
7777.48
7781.69
7786.07
7790.59
7795.19
7799.85
7804.51
7809.13
7813.66
7818.03
7822.21
7826.14
7829.78
7833.09
7836.05
7838.64
7840.85
7842.69
7844.19
7845.37
7846.25
7846.87
7847.25
7847.4
7847.32
7847
7846.43
7845.58
7844.42
7842.92
7841.04
7838.76
7836.09
7833.03
7829.59
7825.81
7821.74
7817.43
7812.93
7808.3
7803.62
7798.95
7794.31
7789.77
7785.37
7781.15
7777.12
7773.33
7769.77
7766.46
7763.41
7760.63
7758.13
7755.93
7754.04
7752.46
7751.21
7750.29
7749.71
7749.45
7749.52
7749.86
7750.28
7331.58
7331.12
7330.78
7330.72
7330.95
7331.46
7332.28
7333.4
7334.83
7336.58
7338.65
7341.03
7343.71
7346.7
7349.98
7353.54
7357.35
7361.38
7365.62
7370.02
7374.54
7379.15
7383.8
7388.43
7393
7397.45
7401.71
7405.74
7409.47
7412.87
7415.9
7418.54
7420.78
7422.63
7424.11
7425.26
7426.13
7426.75
7427.18
7427.45
7427.57
7427.54
7427.37
7427.01
7426.43
7425.59
7424.42
7422.9
7420.99
7418.65
7415.89
7412.73
7409.18
7405.3
7401.13
7396.74
7392.2
7387.58
7382.94
7378.34
7373.81
7369.39
7365.13
7361.06
7357.21
7353.6
7350.24
7347.15
7344.33
7341.81
7339.59
7337.68
7336.08
7334.82
7333.88
7333.27
7332.98
7333
7333.34
7333.81
6914.86
6914.34
6913.98
6913.94
6914.19
6914.72
6915.56
6916.71
6918.17
6919.94
6922.03
6924.44
6927.15
6930.17
6933.49
6937.08
6940.93
6945.01
6949.29
6953.74
6958.33
6962.99
6967.69
6972.37
6976.97
6981.41
6985.64
6989.59
6993.2
6996.41
6999.19
7001.52
7003.41
7004.88
7005.97
7006.74
7007.25
7007.58
7007.79
7007.93
7008.02
7008.07
7008.06
7007.94
7007.67
7007.18
7006.39
7005.25
7003.69
7001.68
6999.2
6996.26
6992.9
6989.16
6985.08
6980.74
6976.21
6971.57
6966.9
6962.25
6957.67
6953.19
6948.86
6944.71
6940.78
6937.1
6933.68
6930.54
6927.69
6925.15
6922.91
6920.99
6919.38
6918.11
6917.15
6916.53
6916.22
6916.23
6916.59
6917.12
6497.85
6497.3
6496.93
6496.89
6497.15
6497.71
6498.57
6499.74
6501.22
6503.01
6505.13
6507.56
6510.31
6513.36
6516.71
6520.35
6524.25
6528.4
6532.76
6537.31
6541.99
6546.77
6551.59
6556.38
6561.08
6565.6
6569.87
6573.8
6577.32
6580.38
6582.93
6584.96
6586.48
6587.52
6588.16
6588.48
6588.58
6588.57
6588.52
6588.51
6588.56
6588.7
6588.89
6589.07
6589.17
6589.09
6588.74
6588.01
6586.84
6585.17
6582.97
6580.25
6577.03
6573.37
6569.33
6564.98
6560.39
6555.65
6550.86
6546.08
6541.37
6536.79
6532.35
6528.1
6524.08
6520.32
6516.84
6513.65
6510.76
6508.19
6505.93
6504
6502.39
6501.11
6500.14
6499.5
6499.18
6499.19
6499.57
6500.13
6080.54
6079.98
6079.6
6079.57
6079.85
6080.42
6081.3
6082.49
6084
6085.82
6087.95
6090.41
6093.19
6096.28
6099.68
6103.37
6107.34
6111.58
6116.05
6120.72
6125.56
6130.5
6135.5
6140.48
6145.35
6150.03
6154.4
6158.38
6161.88
6164.82
6167.15
6168.85
6169.95
6170.51
6170.63
6170.42
6170.02
6169.58
6169.22
6169.02
6169.03
6169.28
6169.72
6170.27
6170.83
6171.26
6171.43
6171.21
6170.48
6169.18
6167.26
6164.73
6161.61
6157.97
6153.9
6149.46
6144.73
6139.82
6134.82
6129.84
6124.94
6120.18
6115.6
6111.23
6107.11
6103.26
6099.71
6096.47
6093.55
6090.96
6088.69
6086.74
6085.12
6083.83
6082.86
6082.21
6081.88
6081.88
6082.26
6082.83
5662.92
5662.37
5662
5661.98
5662.28
5662.87
5663.77
5664.98
5666.5
5668.34
5670.5
5672.98
5675.79
5678.92
5682.37
5686.12
5690.18
5694.53
5699.14
5703.98
5709.02
5714.2
5719.45
5724.68
5729.81
5734.72
5739.28
5743.39
5746.91
5749.77
5751.89
5753.26
5753.9
5753.89
5753.37
5752.51
5751.5
5750.53
5749.76
5749.32
5749.29
5749.67
5750.43
5751.45
5752.59
5753.67
5754.49
5754.88
5754.69
5753.8
5752.17
5749.78
5746.69
5742.98
5738.76
5734.14
5729.19
5724.03
5718.76
5713.5
5708.35
5703.37
5698.6
5694.09
5689.85
5685.91
5682.29
5679.01
5676.05
5673.43
5671.15
5669.2
5667.57
5666.27
5665.29
5664.62
5664.28
5664.28
5664.65
5665.22
5245.01
5244.47
5244.12
5244.12
5244.43
5245.04
5245.95
5247.18
5248.71
5250.57
5252.75
5255.26
5258.09
5261.26
5264.77
5268.6
5272.76
5277.24
5282.02
5287.08
5292.37
5297.83
5303.41
5308.99
5314.47
5319.7
5324.56
5328.88
5332.52
5335.35
5337.28
5338.29
5338.39
5337.71
5336.42
5334.74
5332.94
5331.28
5329.99
5329.25
5329.14
5329.71
5330.87
5332.51
5334.41
5336.32
5337.97
5339.13
5339.57
5339.15
5337.8
5335.52
5332.37
5328.48
5323.98
5319.03
5313.74
5308.24
5302.63
5297.04
5291.58
5286.34
5281.36
5276.67
5272.3
5268.27
5264.58
5261.24
5258.25
5255.61
5253.32
5251.35
5249.72
5248.41
5247.42
5246.75
5246.39
5246.37
5246.73
5247.28
4826.8
4826.29
4825.95
4825.97
4826.29
4826.92
4827.85
4829.09
4830.64
4832.51
4834.7
4837.23
4840.09
4843.3
4846.86
4850.78
4855.06
4859.7
4864.68
4869.98
4875.58
4881.4
4887.37
4893.4
4899.33
4905.03
4910.3
4914.97
4918.83
4921.71
4923.49
4924.11
4923.59
4922.08
4919.8
4917.06
4914.24
4911.68
4909.7
4908.54
4908.35
4909.15
4910.86
4913.31
4916.21
4919.21
4921.94
4924.06
4925.27
4925.39
4924.33
4922.09
4918.78
4914.56
4909.62
4904.18
4898.41
4892.44
4886.4
4880.42
4874.62
4869.07
4863.85
4858.98
4854.47
4850.33
4846.57
4843.18
4840.16
4837.5
4835.19
4833.22
4831.58
4830.26
4829.26
4828.58
4828.21
4828.17
4828.5
4829.03
4408.3
4407.81
4407.5
4407.54
4407.88
4408.52
4409.46
4410.71
4412.26
4414.14
4416.34
4418.88
4421.77
4425.01
4428.63
4432.64
4437.04
4441.85
4447.06
4452.65
4458.6
4464.85
4471.32
4477.89
4484.43
4490.73
4496.6
4501.78
4506.02
4509.07
4510.76
4510.96
4509.69
4507.11
4503.55
4499.42
4495.22
4491.45
4488.56
4486.86
4486.55
4487.67
4490.12
4493.66
4497.89
4502.32
4506.45
4509.8
4511.98
4512.72
4511.93
4509.65
4506.04
4501.32
4495.77
4489.66
4483.23
4476.66
4470.08
4463.63
4457.42
4451.54
4446.05
4440.97
4436.31
4432.07
4428.24
4424.8
4421.75
4419.07
4416.75
4414.78
4413.13
4411.81
4410.8
4410.11
4409.72
4409.66
4409.97
4410.48
3989.5
3989.05
3988.77
3988.83
3989.18
3989.84
3990.78
3992.03
3993.59
3995.46
3997.66
4000.2
4003.1
4006.37
4010.04
4014.13
4018.66
4023.65
4029.1
4035.02
4041.37
4048.12
4055.18
4062.45
4069.74
4076.87
4083.55
4089.48
4094.31
4097.71
4099.38
4099.13
4096.94
4092.99
4087.73
4081.72
4075.67
4070.28
4066.14
4063.73
4063.27
4064.82
4068.26
4073.26
4079.28
4085.63
4091.6
4096.54
4099.91
4101.37
4100.83
4098.38
4094.28
4088.85
4082.46
4075.47
4068.19
4060.85
4053.61
4046.6
4039.93
4033.68
4027.9
4022.61
4017.79
4013.45
4009.55
4006.07
4003
4000.32
3998
3996.02
3994.38
3993.05
3992.04
3991.33
3990.93
3990.86
3991.13
3991.61
3570.43
3570
3569.76
3569.83
3570.21
3570.87
3571.82
3573.06
3574.61
3576.46
3578.65
3581.18
3584.07
3587.35
3591.06
3595.22
3599.87
3605.04
3610.74
3617
3623.81
3631.13
3638.89
3647
3655.26
3663.45
3671.24
3678.24
3683.98
3687.98
3689.78
3689.07
3685.74
3680.02
3672.47
3663.93
3655.36
3647.74
3641.94
3638.55
3637.89
3640.03
3644.8
3651.77
3660.2
3669.13
3677.56
3684.58
3689.46
3691.77
3691.41
3688.58
3683.7
3677.25
3669.72
3661.59
3653.23
3644.94
3636.91
3629.25
3622.07
3615.42
3609.33
3603.82
3598.86
3594.42
3590.47
3586.97
3583.9
3581.22
3578.9
3576.94
3575.3
3573.98
3572.97
3572.26
3571.85
3571.75
3571.99
3572.44
3151.07
3150.68
3150.47
3150.57
3150.95
3151.62
3152.56
3153.79
3155.32
3157.15
3159.3
3161.8
3164.66
3167.94
3171.66
3175.87
3180.61
3185.94
3191.89
3198.5
3205.79
3213.75
3222.33
3231.45
3240.92
3250.48
3259.76
3268.26
3275.35
3280.34
3282.55
3281.41
3276.69
3268.63
3258.01
3246
3233.94
3223.27
3215.2
3210.52
3209.59
3212.5
3219.05
3228.73
3240.48
3252.94
3264.7
3274.51
3281.34
3284.61
3284.28
3280.74
3274.64
3266.71
3257.63
3248
3238.3
3228.85
3219.87
3211.48
3203.73
3196.66
3190.28
3184.56
3179.47
3174.97
3170.98
3167.49
3164.43
3161.77
3159.48
3157.54
3155.92
3154.61
3153.6
3152.89
3152.46
3152.35
3152.56
3152.97
2731.46
2731.1
2730.91
2731.03
2731.43
2732.09
2733.03
2734.24
2735.73
2737.51
2739.61
2742.05
2744.86
2748.09
2751.79
2756.01
2760.81
2766.26
2772.42
2779.37
2787.15
2795.8
2805.31
2815.61
2826.56
2837.88
2849.13
2859.71
2868.79
2875.39
2878.46
2877.04
2870.64
2859.48
2844.66
2827.84
2810.95
2796.08
2785
2778.65
2777.37
2781.24
2790.12
2803.47
2819.85
2837.2
2853.56
2867.16
2876.5
2880.82
2880.21
2875.41
2867.43
2857.37
2846.18
2834.62
2823.24
2812.41
2802.33
2793.11
2784.76
2777.28
2770.62
2764.74
2759.56
2755.02
2751.05
2747.58
2744.56
2741.96
2739.72
2737.82
2736.24
2734.95
2733.95
2733.23
2732.8
2732.66
2732.85
2733.23
2311.59
2311.25
2311.09
2311.22
2311.63
2312.3
2313.22
2314.4
2315.84
2317.56
2319.57
2321.92
2324.65
2327.79
2331.41
2335.58
2340.37
2345.88
2352.2
2359.44
2367.69
2377.04
2387.54
2399.2
2411.91
2425.41
2439.24
2452.68
2464.67
2473.81
2478.49
2477.17
2468.76
2453.41
2432.81
2409.43
2385.91
2365.39
2350.42
2342.02
2340.27
2345.25
2357.01
2375.27
2397.99
2422.02
2444.68
2463.49
2476.15
2481.53
2480.06
2473.08
2462.27
2449.21
2435.2
2421.16
2407.74
2395.3
2384.01
2373.91
2364.97
2357.11
2350.23
2344.24
2339.04
2334.52
2330.61
2327.22
2324.3
2321.77
2319.61
2317.78
2316.24
2314.99
2314
2313.28
2312.84
2312.69
2312.86
2313.21
1891.5
1891.17
1891.01
1891.16
1891.59
1892.26
1893.17
1894.3
1895.67
1897.3
1899.21
1901.43
1904.01
1907.01
1910.5
1914.54
1919.24
1924.72
1931.1
1938.52
1947.16
1957.17
1968.69
1981.81
1996.53
2012.67
2029.79
2047.08
2063.23
2076.3
2083.86
2083.34
2072.56
2051.56
2023.09
1990.84
1957.97
1929.22
1908.61
1897.2
1894.73
1901.27
1917.15
1942.62
1974.44
2007.58
2038.71
2064.71
2081.78
2088.07
2084.75
2074.25
2059.22
2042
2024.29
2007.2
1991.37
1977.13
1964.57
1953.62
1944.14
1935.98
1928.98
1922.98
1917.84
1913.44
1909.66
1906.41
1903.63
1901.23
1899.18
1897.44
1895.97
1894.76
1893.79
1893.07
1892.61
1892.45
1892.61
1892.96
1471.25
1470.87
1470.7
1470.87
1471.33
1472.02
1472.91
1474
1475.29
1476.8
1478.57
1480.62
1483.02
1485.82
1489.08
1492.92
1497.43
1502.75
1509.05
1516.53
1525.42
1535.97
1548.46
1563.11
1580.09
1599.37
1620.65
1643.11
1665.18
1684.27
1696.62
1697.96
1684.78
1656.1
1616.51
1570.66
1521.64
1477.8
1446.98
1430.45
1426.77
1435.99
1459.1
1497.93
1546.07
1593.82
1637.22
1673.08
1696.25
1702.99
1696.21
1680.05
1658.79
1635.81
1613.26
1592.4
1573.79
1557.6
1543.76
1532.03
1522.15
1513.84
1506.85
1500.97
1496.01
1491.81
1488.24
1485.21
1482.61
1480.39
1478.49
1476.86
1475.48
1474.31
1473.36
1472.63
1472.14
1471.95
1472.14
1472.53
1051.06
1050.35
1050.04
1050.26
1050.81
1051.56
1052.47
1053.51
1054.71
1056.09
1057.68
1059.53
1061.69
1064.22
1067.19
1070.72
1074.92
1079.95
1086.01
1093.38
1102.35
1113.32
1126.7
1142.97
1162.55
1185.74
1212.53
1242.32
1273.46
1302.48
1323.52
1329.44
1313.14
1272.05
1213.98
1143.51
1064.47
997.788
960.38
946.294
943.098
949.064
971.99
1027.41
1104.02
1178.34
1242.88
1294.55
1327.35
1334.06
1320.55
1294.56
1263.29
1231.76
1202.56
1176.84
1154.88
1136.53
1121.39
1109
1098.88
1090.59
1083.79
1078.18
1073.53
1069.64
1066.38
1063.62
1061.28
1059.28
1057.56
1056.07
1054.79
1053.67
1052.71
1051.91
1051.33
1051.1
1051.42
1052.16
630.947
629.095
628.565
628.95
629.691
630.555
631.473
632.448
633.508
634.692
636.039
637.594
639.409
641.543
644.072
647.095
650.741
655.185
660.658
667.468
676.018
686.828
700.542
717.941
739.895
767.267
800.774
840.685
886.061
932.885
971.62
989.332
969.98
902.193
813.311
719.089
617.498
565.487
580.726
613.52
619.106
591.925
557.042
582.27
668.214
762.307
853.425
941.886
990.435
992.175
963.1
917.906
869.483
825.217
787.343
756.018
730.709
710.593
694.748
682.299
672.495
664.73
658.531
653.534
649.465
646.118
643.337
641.004
639.029
637.342
635.885
634.611
633.476
632.437
631.463
630.552
629.771
629.365
629.915
631.851
207.996
206.34
206.463
207.159
207.922
208.644
209.324
209.999
210.708
211.487
212.368
213.381
214.558
215.937
217.569
219.516
221.87
224.756
228.348
232.898
238.757
246.42
256.572
270.158
288.408
312.82
345.21
387.76
442.678
509.273
577.176
626.91
616.324
503.134
390.202
393.112
411.858
445.98
515.633
574.925
583.638
538.58
461.537
424.373
411.364
373.911
423.389
565.395
640.775
618.953
556.276
484.268
420.03
369.521
331.032
301.937
280.158
263.985
251.981
243.002
236.203
230.978
226.895
223.651
221.03
218.881
217.095
215.594
214.32
213.226
212.278
211.442
210.685
209.968
209.248
208.487
207.684
206.953
206.822
208.563
-7.7983
-7.11556
-6.57254
-6.21105
-5.95354
-5.73726
-5.52666
-5.30197
-5.05114
-4.76562
-4.43822
-4.06181
-3.62842
-3.1285
-2.55007
-1.87747
-1.08962
-0.157267
0.96084
2.32386
4.01814
6.17186
8.97586
12.7294
17.9072
25.2428
35.8355
51.2732
74.3005
109.744
164.114
238.028
286.735
238.945
189.686
237.707
312.694
382.032
453.166
505.902
514.961
473.735
403.574
347.586
286.605
204.736
193.466
271.783
282.288
212.394
141.966
94.5566
64.1597
44.3179
31.0245
21.9286
15.6096
11.1096
7.81309
5.32352
3.39393
1.86181
0.618536
-0.408656
-1.26979
-2.0001
-2.6249
-3.1628
-3.62792
-4.03121
-4.38153
-4.68663
-4.95421
-5.19337
-5.41696
-5.64589
-5.91745
-6.297
-6.86434
-7.56567
-10.7321
-10.7826
-10.7847
-10.7813
-10.7778
-10.7752
-10.7735
-10.7725
-10.7721
-10.7722
-10.7727
-10.7738
-10.7757
-10.7789
-10.7841
-10.7924
-10.8055
-10.8258
-10.8569
-10.9045
-10.9772
-11.0874
-11.255
-11.4957
-11.7879
-12.0289
-12.0716
-11.9453
-11.3829
-7.98578
7.5636
54.7059
109.958
134.769
120.882
114.497
148.557
221.184
286.658
334.892
344.864
305.375
248.485
182.246
136.042
120.355
126.482
130.305
95.1788
34.6615
-0.14251
-9.23341
-11.1539
-11.6804
-11.8202
-11.6927
-11.4248
-11.1718
-10.9824
-10.8572
-10.7754
-10.7226
-10.6897
-10.6696
-10.6577
-10.6509
-10.6474
-10.6461
-10.6461
-10.647
-10.6485
-10.6503
-10.6524
-10.6548
-10.6577
-10.6614
-10.6657
-10.6699
-10.6682
-10.6149
-11.2625
-11.2653
-11.2665
-11.2672
-11.2675
-11.2675
-11.2675
-11.2677
-11.2683
-11.2692
-11.2706
-11.2729
-11.2763
-11.2816
-11.2898
-11.3023
-11.3212
-11.3499
-11.3932
-11.4589
-11.5589
-11.7109
-11.9433
-12.2709
-12.6428
-12.9258
-12.9834
-12.8701
-12.7148
-11.7879
-8.16126
-3.79216
-12.3397
-27.4235
-33.8296
-37.0152
-21.7591
27.375
89.7602
120.489
127.647
107.729
57.16
-6.48972
-29.3108
-31.5823
-33.2143
-22.9888
-2.75139
-3.96293
-9.44801
-11.6986
-12.2893
-12.5873
-12.7042
-12.5586
-12.2363
-11.9012
-11.6368
-11.4602
-11.3448
-11.2696
-11.2212
-11.1905
-11.1712
-11.1592
-11.1521
-11.1481
-11.1463
-11.1458
-11.1461
-11.1469
-11.1479
-11.149
-11.1501
-11.1509
-11.1514
-11.1512
-11.1503
-11.1475
-11.7582
-11.7611
-11.7623
-11.7627
-11.7629
-11.7631
-11.7635
-11.7642
-11.7652
-11.7665
-11.7683
-11.7708
-11.7743
-11.7794
-11.7869
-11.798
-11.8143
-11.8384
-11.8739
-11.927
-12.0067
-12.1269
-12.3147
-12.6323
-13.1006
-13.5597
-13.8249
-13.9434
-14.3502
-15.3922
-17.3968
-25.7225
-35.6265
-30.1787
-17.1424
-7.89582
-6.55442
-6.3212
8.46124
6.86411
6.70633
9.08944
-0.13884
-6.06491
-6.88518
-11.9972
-23.7284
-33.4947
-31.0237
-20.5682
-15.3533
-13.8737
-13.5888
-13.5977
-13.4728
-13.1157
-12.6485
-12.2667
-12.0368
-11.8965
-11.8053
-11.7457
-11.7071
-11.6822
-11.6663
-11.6562
-11.65
-11.6465
-11.6448
-11.6441
-11.6442
-11.6446
-11.6451
-11.6457
-11.6464
-11.6471
-11.6476
-11.6477
-11.6468
-11.644
-12.2545
-12.2556
-12.2565
-12.2572
-12.2578
-12.2584
-12.2593
-12.2605
-12.262
-12.2638
-12.266
-12.2689
-12.2726
-12.2776
-12.2844
-12.2937
-12.3065
-12.3243
-12.3495
-12.3863
-12.4421
-12.5293
-12.6722
-12.9474
-13.4603
-14.1059
-14.8555
-15.8278
-17.3402
-19.9327
-22.8824
-22.7203
-17.7389
-10.9985
-7.92103
-6.77965
-6.96781
-6.99649
-3.95921
-3.6059
-3.49113
-3.59776
-6.15902
-6.55746
-6.35917
-7.05358
-9.02144
-13.9088
-21.9746
-24.0196
-20.6175
-17.4847
-15.9668
-14.9941
-14.1998
-13.5594
-12.9803
-12.6133
-12.4266
-12.3211
-12.2565
-12.2161
-12.19
-12.1729
-12.1614
-12.1538
-12.1488
-12.1457
-12.1439
-12.143
-12.1426
-12.1424
-12.1424
-12.1425
-12.1426
-12.1428
-12.1429
-12.1428
-12.1422
-12.1411
-12.7503
-12.7509
-12.7516
-12.7524
-12.7533
-12.7545
-12.756
-12.7577
-12.7599
-12.7625
-12.7655
-12.7692
-12.7737
-12.7793
-12.7864
-12.7954
-12.8066
-12.8208
-12.839
-12.8629
-12.8966
-12.9474
-13.024
-13.2167
-13.8507
-14.8199
-16.1255
-17.6155
-18.9871
-19.9862
-19.9381
-17.7956
-14.0156
-11.8307
-10.3715
-9.32465
-8.50166
-7.39554
-6.4654
-5.96567
-5.82958
-6.1182
-7.02417
-7.99962
-8.77206
-9.63985
-10.969
-12.6883
-16.0095
-19.2026
-19.8162
-19.1376
-17.9084
-16.4121
-15.1587
-14.1228
-13.2798
-12.9356
-12.8248
-12.7643
-12.7264
-12.7023
-12.6855
-12.6731
-12.6638
-12.657
-12.652
-12.6485
-12.646
-12.6442
-12.6428
-12.6418
-12.641
-12.6404
-12.64
-12.6396
-12.6394
-12.639
-12.6386
-12.6382
-13.2462
-13.2466
-13.2474
-13.2483
-13.2496
-13.2512
-13.2533
-13.2558
-13.2588
-13.2624
-13.2666
-13.2715
-13.2774
-13.2845
-13.2933
-13.3039
-13.3165
-13.3318
-13.3502
-13.373
-13.4032
-13.4485
-13.515
-13.6764
-14.3342
-15.6466
-17.2515
-18.332
-19.1427
-19.553
-19.2984
-18.1202
-16.6153
-15.1992
-13.5983
-12.1727
-10.8821
-9.57908
-8.5689
-7.96727
-7.81403
-8.23007
-9.14157
-10.296
-11.4885
-12.7664
-14.2694
-15.7666
-17.1708
-18.572
-19.1958
-18.9957
-18.3425
-17.4202
-16.2319
-14.7248
-13.7446
-13.4149
-13.3227
-13.27
-13.2372
-13.2154
-13.1987
-13.1854
-13.1748
-13.1664
-13.1598
-13.1546
-13.1506
-13.1474
-13.1448
-13.1426
-13.1408
-13.1394
-13.1383
-13.1374
-13.1368
-13.1362
-13.1358
-13.1355
-13.7421
-13.7425
-13.7433
-13.7445
-13.7462
-13.7483
-13.751
-13.7543
-13.7583
-13.763
-13.7685
-13.7751
-13.7828
-13.7923
-13.8038
-13.8177
-13.8346
-13.8554
-13.8815
-13.9154
-13.9623
-14.0347
-14.1537
-14.3774
-15.0016
-16.5287
-18.4408
-19.6302
-20.3076
-20.6565
-20.3911
-19.4799
-18.467
-17.4267
-16.1809
-14.809
-13.341
-11.9334
-10.8725
-10.2066
-10.0149
-10.5096
-11.4991
-12.6917
-13.9538
-15.211
-16.4317
-17.5551
-18.6445
-19.7061
-20.2712
-20.0991
-19.5631
-18.756
-17.2382
-15.4068
-14.4274
-14.0751
-13.9268
-13.8409
-13.7888
-13.7538
-13.728
-13.7083
-13.6929
-13.6807
-13.671
-13.6633
-13.6571
-13.652
-13.6478
-13.6443
-13.6414
-13.6391
-13.6373
-13.6358
-13.6347
-13.6339
-13.6333
-13.633
-14.2379
-14.2384
-14.2394
-14.2408
-14.2429
-14.2455
-14.2489
-14.2531
-14.2581
-14.2641
-14.2711
-14.2795
-14.2896
-14.3018
-14.3168
-14.3354
-14.3584
-14.3876
-14.4257
-14.4775
-14.5515
-14.6647
-14.8505
-15.1729
-15.8442
-17.2462
-18.894
-19.9768
-20.624
-21.1388
-21.2449
-20.8177
-20.1089
-19.2468
-18.2175
-17.0103
-15.6116
-14.2146
-13.1434
-12.4999
-12.3253
-12.8312
-13.7934
-14.9416
-16.1079
-17.2464
-18.3344
-19.332
-20.1899
-20.8129
-20.9327
-20.5164
-19.9456
-19.1969
-17.8504
-16.2318
-15.241
-14.8128
-14.5849
-14.4496
-14.3652
-14.3086
-14.2684
-14.2387
-14.2161
-14.1986
-14.1848
-14.1739
-14.165
-14.1577
-14.1517
-14.1467
-14.1426
-14.1393
-14.1367
-14.1346
-14.133
-14.1319
-14.1311
-14.1307
-14.7336
-14.7342
-14.7353
-14.737
-14.7395
-14.7427
-14.7467
-14.7518
-14.7579
-14.7652
-14.7738
-14.7842
-14.7967
-14.8121
-14.831
-14.8546
-14.8845
-14.923
-14.974
-15.0438
-15.1432
-15.2909
-15.5204
-15.8927
-16.5322
-17.5844
-18.843
-19.8293
-20.5309
-21.1479
-21.5087
-21.4303
-21.0518
-20.4323
-19.6046
-18.6077
-17.4373
-16.1961
-15.2022
-14.58
-14.4443
-14.9465
-15.8128
-16.7873
-17.7711
-18.7643
-19.6957
-20.4617
-21.0034
-21.2448
-21.0606
-20.4857
-19.8701
-19.1023
-18.0044
-16.8062
-15.9754
-15.5129
-15.2355
-15.0609
-14.9466
-14.8684
-14.813
-14.7723
-14.7418
-14.7183
-14.6999
-14.6853
-14.6734
-14.6638
-14.6558
-14.6493
-14.644
-14.6396
-14.6362
-14.6335
-14.6314
-14.63
-14.629
-14.6285
-15.229
-15.2296
-15.2309
-15.2329
-15.2358
-15.2395
-15.2442
-15.2501
-15.2573
-15.2659
-15.2761
-15.2884
-15.3034
-15.3218
-15.3445
-15.3731
-15.4093
-15.4561
-15.518
-15.6018
-15.7183
-15.8845
-16.1271
-16.4863
-17.0168
-17.7776
-18.6905
-19.5553
-20.301
-20.9526
-21.3997
-21.5289
-21.3973
-21.0403
-20.4246
-19.6452
-18.7375
-17.7379
-16.874
-16.2893
-16.2061
-16.6603
-17.3724
-18.1548
-18.9725
-19.7817
-20.4865
-20.9738
-21.2211
-21.2357
-20.9168
-20.3428
-19.6678
-18.8983
-18.028
-17.1846
-16.5529
-16.1293
-15.8443
-15.651
-15.5176
-15.4234
-15.3554
-15.305
-15.267
-15.2377
-15.2147
-15.1964
-15.1817
-15.1696
-15.1598
-15.1517
-15.1452
-15.1398
-15.1356
-15.1323
-15.1297
-15.1279
-15.1267
-15.1261
-15.7238
-15.7246
-15.726
-15.7283
-15.7315
-15.7358
-15.7411
-15.7478
-15.7559
-15.7657
-15.7774
-15.7915
-15.8087
-15.8298
-15.8559
-15.8885
-15.9299
-15.983
-16.0523
-16.1442
-16.2684
-16.4383
-16.6718
-16.9933
-17.4276
-17.9959
-18.6696
-19.3617
-20.0126
-20.595
-21.049
-21.2968
-21.3496
-21.204
-20.7954
-20.2146
-19.5455
-18.776
-18.0508
-17.5224
-17.4869
-17.8728
-18.4247
-19.0695
-19.7357
-20.3555
-20.8593
-21.1094
-21.1459
-20.9955
-20.6183
-20.0874
-19.4786
-18.8217
-18.1479
-17.5296
-17.038
-16.6707
-16.4054
-16.2108
-16.07
-15.967
-15.8906
-15.8331
-15.7891
-15.7549
-15.7279
-15.7063
-15.6889
-15.6747
-15.6631
-15.6536
-15.6459
-15.6396
-15.6346
-15.6307
-15.6277
-15.6255
-15.624
-15.6233
-16.2181
-16.2189
-16.2206
-16.2231
-16.2266
-16.2313
-16.2372
-16.2446
-16.2535
-16.2643
-16.2773
-16.2929
-16.3119
-16.3351
-16.3637
-16.3993
-16.4441
-16.501
-16.574
-16.6685
-16.7927
-16.9554
-17.1703
-17.4502
-17.8076
-18.2486
-18.7564
-19.2862
-19.7977
-20.2656
-20.6607
-20.9435
-21.1009
-21.1044
-20.8835
-20.46
-19.9398
-19.3423
-18.752
-18.3034
-18.298
-18.6048
-19.031
-19.577
-20.1231
-20.6099
-20.9375
-21.0027
-20.8992
-20.6658
-20.306
-19.865
-19.3758
-18.8595
-18.3435
-17.871
-17.4769
-17.1645
-16.9239
-16.7403
-16.6015
-16.4962
-16.4159
-16.3541
-16.3061
-16.2683
-16.2382
-16.214
-16.1943
-16.1783
-16.1652
-16.1545
-16.1458
-16.1387
-16.133
-16.1285
-16.125
-16.1225
-16.1209
-16.1201
-16.7117
-16.7126
-16.7143
-16.7171
-16.7209
-16.7259
-16.7323
-16.7402
-16.7498
-16.7614
-16.7753
-16.7921
-16.8123
-16.837
-16.8672
-16.9045
-16.951
-17.0091
-17.0829
-17.1743
-17.2931
-17.4439
-17.6348
-17.8735
-18.1657
-18.5113
-18.8977
-19.2997
-19.6919
-20.0555
-20.3733
-20.6252
-20.7996
-20.8714
-20.7806
-20.4893
-20.0695
-19.5458
-19.0685
-18.7338
-18.742
-18.9734
-19.3085
-19.7819
-20.2643
-20.6449
-20.82
-20.7857
-20.6311
-20.3969
-20.0942
-19.7437
-19.3617
-18.9634
-18.5684
-18.2023
-17.8853
-17.6229
-17.4116
-17.2441
-17.1127
-17.0103
-16.93
-16.8668
-16.8168
-16.7769
-16.7448
-16.7187
-16.6975
-16.6801
-16.6658
-16.6541
-16.6445
-16.6368
-16.6305
-16.6255
-16.6217
-16.6189
-16.6171
-16.6162
-17.2044
-17.2053
-17.2072
-17.2101
-17.2141
-17.2194
-17.2261
-17.2344
-17.2445
-17.2566
-17.2712
-17.2886
-17.3096
-17.335
-17.3659
-17.4036
-17.45
-17.5068
-17.5778
-17.6654
-17.7745
-17.9093
-18.0746
-18.2744
-18.5105
-18.7806
-19.0756
-19.3795
-19.6753
-19.9485
-20.1869
-20.3776
-20.5131
-20.5791
-20.5378
-20.3399
-20.0101
-19.5655
-19.1668
-18.9176
-18.9277
-19.1208
-19.399
-19.8046
-20.2153
-20.4912
-20.5803
-20.5309
-20.3987
-20.2123
-19.9795
-19.7116
-19.4194
-19.1146
-18.8118
-18.5273
-18.2737
-18.0564
-17.8752
-17.7268
-17.6068
-17.5103
-17.4329
-17.3708
-17.3207
-17.2802
-17.2471
-17.2201
-17.1979
-17.1796
-17.1646
-17.1522
-17.142
-17.1336
-17.1269
-17.1216
-17.1175
-17.1145
-17.1125
-17.1116
-17.6962
-17.6971
-17.6991
-17.7021
-17.7063
-17.7117
-17.7186
-17.7271
-17.7374
-17.7499
-17.7647
-17.7824
-17.8036
-17.829
-17.8595
-17.8965
-17.9413
-17.9957
-18.062
-18.1425
-18.2401
-18.3577
-18.4978
-18.6621
-18.8506
-19.0602
-19.2837
-19.5102
-19.7269
-19.9222
-20.0866
-20.2098
-20.2856
-20.3064
-20.2499
-20.0821
-19.8174
-19.4784
-19.1486
-18.9325
-18.9427
-19.1338
-19.3849
-19.7105
-20.0232
-20.2335
-20.3171
-20.3038
-20.2269
-20.1044
-19.9419
-19.7484
-19.5322
-19.3032
-19.0728
-18.8526
-18.6513
-18.4738
-18.3214
-18.193
-18.0861
-17.9981
-17.9257
-17.8665
-17.8179
-17.778
-17.7452
-17.7179
-17.6954
-17.6767
-17.6613
-17.6485
-17.6379
-17.6292
-17.6222
-17.6165
-17.6122
-17.6091
-17.607
-17.606
-18.187
-18.188
-18.19
-18.193
-18.1973
-18.2028
-18.2098
-18.2183
-18.2286
-18.241
-18.2558
-18.2733
-18.2941
-18.3189
-18.3485
-18.3837
-18.4259
-18.4764
-18.5368
-18.6088
-18.694
-18.7942
-18.9106
-19.0435
-19.1917
-19.352
-19.5185
-19.6828
-19.8353
-19.9662
-20.0672
-20.1297
-20.147
-20.115
-20.0217
-19.8464
-19.6006
-19.3244
-19.0584
-18.8649
-18.8722
-19.0677
-19.3057
-19.5636
-19.8171
-20.0139
-20.1202
-20.1544
-20.136
-20.0739
-19.9737
-19.8433
-19.6902
-19.5228
-19.3507
-19.1824
-19.0246
-18.8818
-18.7558
-18.6469
-18.554
-18.4755
-18.4097
-18.3548
-18.3089
-18.2707
-18.2388
-18.2122
-18.1899
-18.1713
-18.1558
-18.1429
-18.1322
-18.1234
-18.1161
-18.1104
-18.1059
-18.1027
-18.1005
-18.0995
-18.6767
-18.6778
-18.6798
-18.6828
-18.6871
-18.6926
-18.6995
-18.708
-18.7179
-18.7301
-18.7446
-18.7616
-18.7816
-18.8052
-18.8331
-18.8659
-18.9047
-18.9504
-19.0041
-19.0669
-19.1397
-19.2233
-19.318
-19.4233
-19.5376
-19.6575
-19.7782
-19.8929
-19.9939
-20.0731
-20.1232
-20.1364
-20.1057
-20.0271
-19.8949
-19.6999
-19.4542
-19.2007
-18.9722
-18.7978
-18.8009
-18.9902
-19.2203
-19.4561
-19.6946
-19.8936
-20.0273
-20.1034
-20.1325
-20.1194
-20.0697
-19.9905
-19.8884
-19.7709
-19.6457
-19.5197
-19.3982
-19.2852
-19.183
-19.0923
-19.0132
-18.9448
-18.8863
-18.8365
-18.7943
-18.7587
-18.7285
-18.703
-18.6816
-18.6635
-18.6482
-18.6354
-18.6249
-18.616
-18.6088
-18.6029
-18.5985
-18.5952
-18.593
-18.5919
-19.1655
-19.1665
-19.1685
-19.1715
-19.1757
-19.1811
-19.1878
-19.196
-19.2057
-19.2174
-19.2311
-19.2473
-19.2662
-19.2882
-19.3139
-19.3438
-19.3787
-19.4191
-19.4658
-19.5193
-19.5801
-19.6483
-19.7236
-19.8051
-19.8908
-19.9778
-20.0618
-20.1371
-20.1975
-20.2363
-20.247
-20.223
-20.1571
-20.0447
-19.8823
-19.6683
-19.4192
-19.1726
-18.9561
-18.7931
-18.7891
-18.9679
-19.1952
-19.4345
-19.6734
-19.8806
-20.0381
-20.1464
-20.2107
-20.2348
-20.2241
-20.185
-20.1234
-20.0457
-19.9583
-19.8666
-19.7752
-19.6878
-19.6064
-19.5324
-19.4663
-19.408
-19.3572
-19.3131
-19.2751
-19.2425
-19.2146
-19.1908
-19.1705
-19.1532
-19.1386
-19.1262
-19.1159
-19.1072
-19.1
-19.0943
-19.0899
-19.0866
-19.0845
-19.0834
-19.6532
-19.6542
-19.6562
-19.6591
-19.6632
-19.6683
-19.6748
-19.6825
-19.6918
-19.7028
-19.7157
-19.7307
-19.7481
-19.7682
-19.7914
-19.8181
-19.8487
-19.8837
-19.9234
-19.968
-20.0176
-20.0719
-20.1302
-20.1914
-20.2534
-20.3136
-20.3682
-20.4126
-20.4415
-20.4494
-20.4309
-20.3802
-20.2912
-20.1584
-19.9789
-19.7549
-19.5053
-19.2612
-19.0454
-18.8892
-18.8781
-19.0447
-19.2738
-19.5149
-19.7524
-19.9694
-20.1436
-20.2731
-20.3613
-20.412
-20.4305
-20.4221
-20.3921
-20.3457
-20.2883
-20.2244
-20.158
-20.092
-20.0288
-19.9697
-19.9157
-19.867
-19.8237
-19.7855
-19.752
-19.7229
-19.6976
-19.6758
-19.657
-19.6408
-19.627
-19.6152
-19.6053
-19.5969
-19.59
-19.5845
-19.5802
-19.577
-19.5749
-19.5738
-20.14
-20.141
-20.1429
-20.1457
-20.1495
-20.1544
-20.1605
-20.1678
-20.1764
-20.1866
-20.1984
-20.2121
-20.2279
-20.2459
-20.2664
-20.2897
-20.316
-20.3456
-20.3785
-20.4147
-20.4541
-20.4961
-20.5398
-20.5838
-20.6264
-20.665
-20.6965
-20.7168
-20.7218
-20.7069
-20.6675
-20.5991
-20.4965
-20.3544
-20.1697
-19.9456
-19.7
-19.4591
-19.2476
-19.0991
-19.0879
-19.2345
-19.4548
-19.6917
-19.9279
-20.1492
-20.3313
-20.4722
-20.5749
-20.6436
-20.6829
-20.6974
-20.6914
-20.6693
-20.6356
-20.594
-20.5478
-20.4998
-20.4521
-20.4062
-20.3631
-20.3234
-20.2873
-20.2548
-20.2259
-20.2004
-20.178
-20.1584
-20.1413
-20.1264
-20.1136
-20.1026
-20.0933
-20.0854
-20.0788
-20.0735
-20.0694
-20.0663
-20.0643
-20.0632
-20.6259
-20.6269
-20.6286
-20.6313
-20.6349
-20.6394
-20.645
-20.6518
-20.6597
-20.6689
-20.6796
-20.6919
-20.7058
-20.7216
-20.7394
-20.7592
-20.7814
-20.8058
-20.8324
-20.861
-20.8913
-20.9225
-20.9538
-20.9837
-21.0105
-21.0319
-21.0453
-21.0474
-21.0347
-21.0035
-20.9501
-20.871
-20.7617
-20.6184
-20.4374
-20.222
-19.9863
-19.7513
-19.5486
-19.4109
-19.4044
-19.5299
-19.7284
-19.9562
-20.1907
-20.4079
-20.5892
-20.733
-20.843
-20.9225
-20.9758
-21.0066
-21.0183
-21.0148
-20.9994
-20.9754
-20.9456
-20.9125
-20.878
-20.8435
-20.8101
-20.7785
-20.7491
-20.7222
-20.6978
-20.6759
-20.6563
-20.639
-20.6237
-20.6103
-20.5987
-20.5886
-20.5799
-20.5726
-20.5665
-20.5615
-20.5576
-20.5547
-20.5528
-20.5518
-21.1109
-21.1118
-21.1135
-21.116
-21.1193
-21.1235
-21.1286
-21.1347
-21.1418
-21.15
-21.1595
-21.1702
-21.1823
-21.1959
-21.2109
-21.2275
-21.2456
-21.2651
-21.286
-21.3078
-21.3301
-21.3521
-21.373
-21.3913
-21.4054
-21.4135
-21.4131
-21.4017
-21.3764
-21.3341
-21.272
-21.1873
-21.0769
-20.9376
-20.766
-20.5641
-20.3441
-20.1233
-19.9342
-19.809
-19.8039
-19.9149
-20.0919
-20.3051
-20.5277
-20.7328
-20.9058
-21.0461
-21.1572
-21.2422
-21.304
-21.3457
-21.3701
-21.3802
-21.3788
-21.3686
-21.3519
-21.331
-21.3075
-21.2827
-21.2577
-21.2334
-21.2101
-21.1883
-21.1682
-21.1497
-21.1331
-21.1181
-21.1047
-21.0928
-21.0824
-21.0733
-21.0654
-21.0587
-21.0531
-21.0484
-21.0448
-21.0421
-21.0404
-21.0394
-21.5952
-21.5961
-21.5976
-21.5998
-21.6028
-21.6066
-21.6112
-21.6166
-21.6229
-21.6301
-21.6384
-21.6476
-21.6579
-21.6692
-21.6816
-21.695
-21.7093
-21.7244
-21.7401
-21.7559
-21.7713
-21.7856