/*--------------------------------*- C++ -*----------------------------------*\
| =========                 |                                                 |
| \\      /  F ield         | OpenFOAM: The Open Source CFD Toolbox           |
|  \\    /   O peration     | Version:  2412                                  |
|   \\  /    A nd           | Website:  www.openfoam.com                      |
|    \\/     M anipulation  |                                                 |
\*---------------------------------------------------------------------------*/
FoamFile
{
    version     2.0;
    format      ascii;
    arch        "LSB;label=32;scalar=64";
    class       volVectorField;
    location    "3.3";
    object      U;
}
// * * * * * * * * * * * * * * * * * * * * * * * * * * * * * * * * * * * * * //

dimensions      [0 1 -1 0 0 0 0];

internalField   nonuniform List<vector> 
6400
(
(-0.00113977 0.000816418 0)
(-0.00206232 0.000268581 0)
(-0.00244704 0.000334122 0)
(-0.00321613 0.000261176 0)
(-0.00363357 0.000107342 0)
(-0.00370209 -5.73532e-05 0)
(-0.00337122 -0.000275175 0)
(-0.00266528 -0.000486096 0)
(-0.00148698 -0.000686593 0)
(0.000153846 -0.00089652 0)
(0.00217263 -0.00109396 0)
(0.00456063 -0.00127991 0)
(0.00729273 -0.00143215 0)
(0.0102889 -0.00153354 0)
(0.0134466 -0.00158377 0)
(0.0167228 -0.00160307 0)
(0.0200184 -0.00158018 0)
(0.023235 -0.00152397 0)
(0.0263214 -0.00142651 0)
(0.0291509 -0.00130613 0)
(0.0317022 -0.00113659 0)
(0.0339048 -0.000943433 0)
(0.0356833 -0.000726547 0)
(0.0370172 -0.000471267 0)
(0.0378552 -0.000202396 0)
(0.0381623 8.13305e-05 0)
(0.0379201 0.00036665 0)
(0.0371377 0.000636497 0)
(0.0358291 0.000886846 0)
(0.0340301 0.00110636 0)
(0.0317817 0.00131005 0)
(0.0291285 0.00150687 0)
(0.0260377 0.00172087 0)
(0.0225508 0.00187062 0)
(0.0188088 0.0019298 0)
(0.0149135 0.00188741 0)
(0.010955 0.0017693 0)
(0.00701997 0.00162093 0)
(0.00311293 0.00148894 0)
(-0.000720366 0.0013954 0)
(-0.00451862 0.00136994 0)
(-0.00831464 0.00141178 0)
(-0.0121268 0.00151904 0)
(-0.0159799 0.00165471 0)
(-0.0198299 0.00178415 0)
(-0.0236546 0.00185746 0)
(-0.0273776 0.00186326 0)
(-0.0308786 0.00176738 0)
(-0.0340421 0.00157814 0)
(-0.0367665 0.00134367 0)
(-0.0390269 0.00112336 0)
(-0.0408316 0.000900066 0)
(-0.0421442 0.000650097 0)
(-0.0429299 0.000390559 0)
(-0.0431635 9.26751e-05 0)
(-0.0428099 -0.000211375 0)
(-0.0418971 -0.000505959 0)
(-0.0404671 -0.000774273 0)
(-0.0385151 -0.00101426 0)
(-0.0361275 -0.00123108 0)
(-0.0333815 -0.00141705 0)
(-0.0302912 -0.00156229 0)
(-0.0269505 -0.00166999 0)
(-0.0234077 -0.00174707 0)
(-0.0197797 -0.00178276 0)
(-0.0161562 -0.00177664 0)
(-0.0126135 -0.00173523 0)
(-0.00925465 -0.00162898 0)
(-0.00615357 -0.0014713 0)
(-0.00340584 -0.00127592 0)
(-0.00104996 -0.00106907 0)
(0.000884897 -0.000827244 0)
(0.00231332 -0.000597344 0)
(0.00324071 -0.000355549 0)
(0.00370657 -0.000130442 0)
(0.00372779 8.32958e-05 0)
(0.00336975 0.000255543 0)
(0.00258164 0.000362692 0)
(0.00207624 0.00032184 0)
(0.00108681 0.000800549 0)
(-0.00123054 0.00254087 0)
(-0.00227179 0.000898646 0)
(-0.00277895 0.00109741 0)
(-0.00365764 0.000889805 0)
(-0.00413473 0.00041043 0)
(-0.00429003 -0.000130682 0)
(-0.0040298 -0.000768208 0)
(-0.00331659 -0.00142015 0)
(-0.00214004 -0.00208723 0)
(-0.000456169 -0.00275071 0)
(0.00169754 -0.00337982 0)
(0.00424191 -0.00393759 0)
(0.00712637 -0.00440514 0)
(0.0102972 -0.00475409 0)
(0.0136545 -0.00497644 0)
(0.0171516 -0.00505853 0)
(0.0206798 -0.00502323 0)
(0.0241348 -0.00485023 0)
(0.0274402 -0.00456478 0)
(0.0304928 -0.00417098 0)
(0.0332613 -0.00366433 0)
(0.0356497 -0.00308521 0)
(0.0376341 -0.00243489 0)
(0.0391853 -0.00171765 0)
(0.040254 -0.000961099 0)
(0.0408342 -0.000173972 0)
(0.0409234 0.000629205 0)
(0.0405105 0.00141514 0)
(0.0395877 0.00218518 0)
(0.0381429 0.00291445 0)
(0.0361593 0.00360768 0)
(0.0336783 0.00426004 0)
(0.0307862 0.00488105 0)
(0.027493 0.0054037 0)
(0.0238137 0.00580611 0)
(0.0197192 0.00607999 0)
(0.0152546 0.0062528 0)
(0.0104853 0.00634417 0)
(0.00543144 0.00637312 0)
(0.000221492 0.00636055 0)
(-0.00506793 0.00633989 0)
(-0.0103232 0.00631412 0)
(-0.0154235 0.0062623 0)
(-0.0202975 0.00617013 0)
(-0.0248411 0.006017 0)
(-0.0290026 0.00576483 0)
(-0.0327373 0.00541106 0)
(-0.0360191 0.00492851 0)
(-0.0388788 0.0043211 0)
(-0.0413405 0.00363643 0)
(-0.0433399 0.00292949 0)
(-0.0447862 0.002187 0)
(-0.0456627 0.00139953 0)
(-0.0460149 0.000587501 0)
(-0.0458584 -0.000246229 0)
(-0.0451733 -0.00107132 0)
(-0.0439748 -0.00188222 0)
(-0.0422894 -0.00263811 0)
(-0.0401126 -0.00334046 0)
(-0.037508 -0.00397463 0)
(-0.0345267 -0.0045201 0)
(-0.031193 -0.00496471 0)
(-0.0276197 -0.00529727 0)
(-0.0238469 -0.00549324 0)
(-0.0199903 -0.00557452 0)
(-0.0161695 -0.00549852 0)
(-0.0124564 -0.00530125 0)
(-0.00896229 -0.00494796 0)
(-0.00574042 -0.00446926 0)
(-0.00287978 -0.00388863 0)
(-0.000402427 -0.00323066 0)
(0.00158248 -0.00248878 0)
(0.00300206 -0.00178077 0)
(0.00390835 -0.00103154 0)
(0.00432688 -0.00031983 0)
(0.00427372 0.000318189 0)
(0.00382553 0.000870561 0)
(0.00293035 0.0011708 0)
(0.00231547 0.00106278 0)
(0.00120006 0.0025233 0)
(-0.00138587 0.00443692 0)
(-0.00255725 0.00161901 0)
(-0.00311083 0.00195257 0)
(-0.00412729 0.00161027 0)
(-0.00471562 0.000821726 0)
(-0.00494392 -0.000142314 0)
(-0.0047395 -0.00121848 0)
(-0.00406531 -0.00235994 0)
(-0.00289421 -0.00351912 0)
(-0.00119395 -0.00466769 0)
(0.000986929 -0.00576525 0)
(0.00359334 -0.00672385 0)
(0.00656736 -0.00752157 0)
(0.0098442 -0.00812851 0)
(0.013333 -0.00853119 0)
(0.0169445 -0.00869223 0)
(0.0205827 -0.00863845 0)
(0.0241533 -0.00834772 0)
(0.0275483 -0.00786949 0)
(0.0306929 -0.00717884 0)
(0.0335277 -0.00633883 0)
(0.0359668 -0.00535396 0)
(0.0379816 -0.004256 0)
(0.0395334 -0.00307257 0)
(0.040576 -0.00182465 0)
(0.0410969 -0.000534867 0)
(0.0410752 0.000780764 0)
(0.0405191 0.00209016 0)
(0.0394287 0.00338409 0)
(0.0378043 0.00464646 0)
(0.0356709 0.00584852 0)
(0.0330766 0.00697314 0)
(0.0300628 0.0079864 0)
(0.0266497 0.00888927 0)
(0.0228968 0.00969992 0)
(0.0188177 0.0103885 0)
(0.0144522 0.0109592 0)
(0.00983666 0.0113894 0)
(0.00500276 0.0116699 0)
(5.62295e-05 0.0118108 0)
(-0.00494568 0.0118151 0)
(-0.00993103 0.0116884 0)
(-0.0147929 0.011404 0)
(-0.0194604 0.0109796 0)
(-0.0238727 0.0104148 0)
(-0.0279902 0.00972141 0)
(-0.0317682 0.00891375 0)
(-0.0351744 0.00799831 0)
(-0.0381862 0.00697964 0)
(-0.0407738 0.00585984 0)
(-0.0429101 0.00464164 0)
(-0.0445453 0.00336713 0)
(-0.0456276 0.00203061 0)
(-0.046154 0.000664813 0)
(-0.046126 -0.000704225 0)
(-0.0455418 -0.00204649 0)
(-0.0444036 -0.00336393 0)
(-0.0427383 -0.00462088 0)
(-0.0405542 -0.00578592 0)
(-0.0379079 -0.00685127 0)
(-0.0348708 -0.00777847 0)
(-0.0314679 -0.00852759 0)
(-0.0277835 -0.00909496 0)
(-0.0239004 -0.0094195 0)
(-0.0199173 -0.00953497 0)
(-0.0159496 -0.00939176 0)
(-0.012097 -0.00901611 0)
(-0.00845524 -0.0084046 0)
(-0.0051118 -0.00758797 0)
(-0.00214692 -0.00659634 0)
(0.000410011 -0.00544344 0)
(0.00240463 -0.00421213 0)
(0.00383665 -0.00296039 0)
(0.0047629 -0.00168151 0)
(0.00510512 -0.00046279 0)
(0.00496331 0.000628934 0)
(0.0044044 0.00158544 0)
(0.00336799 0.00209067 0)
(0.00266087 0.00190231 0)
(0.00136064 0.00443974 0)
(-0.00167247 0.00668442 0)
(-0.0030943 0.00245976 0)
(-0.00375535 0.00292311 0)
(-0.00496241 0.00245887 0)
(-0.00574067 0.00134969 0)
(-0.00615399 -6.59946e-05 0)
(-0.00606911 -0.00160684 0)
(-0.00542988 -0.00329327 0)
(-0.00425183 -0.00496784 0)
(-0.00252443 -0.00663654 0)
(-0.000233785 -0.00821464 0)
(0.00256084 -0.00962471 0)
(0.00575797 -0.0107822 0)
(0.00928324 -0.0116556 0)
(0.0130408 -0.0122229 0)
(0.0169167 -0.0124568 0)
(0.020814 -0.012352 0)
(0.0246295 -0.0119461 0)
(0.0282538 -0.0112347 0)
(0.0315928 -0.0102455 0)
(0.0345909 -0.00903608 0)
(0.0371735 -0.00762636 0)
(0.0392884 -0.00604804 0)
(0.0409118 -0.00436367 0)
(0.0419954 -0.00257877 0)
(0.0425245 -0.00072745 0)
(0.0424766 0.00114489 0)
(0.0418638 0.00301301 0)
(0.0406967 0.00484858 0)
(0.0389745 0.00663153 0)
(0.0367243 0.00832206 0)
(0.0339912 0.00990485 0)
(0.0307968 0.0113375 0)
(0.0271783 0.0126122 0)
(0.0231988 0.013746 0)
(0.0189033 0.0146797 0)
(0.0143756 0.015436 0)
(0.0096745 0.0159855 0)
(0.00485133 0.0163461 0)
(-3.57588e-05 0.0165258 0)
(-0.00494561 0.0165255 0)
(-0.00983876 0.0163625 0)
(-0.0146614 0.0159933 0)
(-0.0193702 0.0154487 0)
(-0.0239015 0.0147042 0)
(-0.0281964 0.0137623 0)
(-0.0321993 0.0126501 0)
(-0.0358392 0.0113778 0)
(-0.0390629 0.00994626 0)
(-0.0418333 0.00836626 0)
(-0.044097 0.0066506 0)
(-0.0458399 0.00484329 0)
(-0.0470215 0.00295887 0)
(-0.0476231 0.00102689 0)
(-0.0476389 -0.000925815 0)
(-0.0470557 -0.00285925 0)
(-0.0458967 -0.00474278 0)
(-0.0441603 -0.00654282 0)
(-0.0418776 -0.00822311 0)
(-0.039112 -0.00975246 0)
(-0.0358897 -0.0110903 0)
(-0.0322732 -0.0121736 0)
(-0.0283512 -0.012988 0)
(-0.0241999 -0.0134857 0)
(-0.0199412 -0.0136445 0)
(-0.0156874 -0.0134651 0)
(-0.0115464 -0.0129272 0)
(-0.00762878 -0.0120492 0)
(-0.00404295 -0.010871 0)
(-0.00086911 -0.0094234 0)
(0.00181744 -0.00774641 0)
(0.0038836 -0.00598431 0)
(0.00535456 -0.00412301 0)
(0.00623719 -0.00228052 0)
(0.00647007 -0.000531288 0)
(0.006181 0.00108579 0)
(0.00543039 0.00244985 0)
(0.00413301 0.00316901 0)
(0.00323958 0.00292251 0)
(0.00164436 0.00671019 0)
(-0.00212528 0.00944074 0)
(-0.0039123 0.00351447 0)
(-0.00466118 0.00413666 0)
(-0.00611978 0.00355096 0)
(-0.00719037 0.00204948 0)
(-0.00782155 0.000184833 0)
(-0.00790327 -0.00188539 0)
(-0.00736434 -0.00416044 0)
(-0.00617075 -0.00645509 0)
(-0.00437124 -0.00872498 0)
(-0.00193184 -0.010843 0)
(0.00110503 -0.0127672 0)
(0.00461492 -0.0143429 0)
(0.00847865 -0.0155125 0)
(0.0126173 -0.01627 0)
(0.0168924 -0.0165699 0)
(0.02116 -0.0164346 0)
(0.025334 -0.0158664 0)
(0.0292985 -0.0148987 0)
(0.032928 -0.0135772 0)
(0.03617 -0.0119599 0)
(0.0389627 -0.0100861 0)
(0.0412344 -0.00800503 0)
(0.0429705 -0.00575949 0)
(0.0441563 -0.00341898 0)
(0.0447367 -0.000991887 0)
(0.0447001 0.00146253 0)
(0.0440703 0.00391566 0)
(0.0428531 0.00632741 0)
(0.041052 0.00866184 0)
(0.0386996 0.010885 0)
(0.0358286 0.0129576 0)
(0.0324613 0.0148595 0)
(0.0286494 0.0165468 0)
(0.0244453 0.0180208 0)
(0.0199215 0.0192361 0)
(0.0151615 0.0202094 0)
(0.0102164 0.0209247 0)
(0.00516994 0.0213723 0)
(6.14354e-05 0.0216054 0)
(-0.00504642 0.0215911 0)
(-0.0101538 0.0213834 0)
(-0.0151936 0.0209152 0)
(-0.0201135 0.0202173 0)
(-0.0248772 0.0192562 0)
(-0.0294039 0.0180496 0)
(-0.0336187 0.0165945 0)
(-0.0374683 0.0149127 0)
(-0.0408853 0.013032 0)
(-0.043811 0.0109504 0)
(-0.0462003 0.00871007 0)
(-0.0480315 0.0063318 0)
(-0.0492808 0.00386479 0)
(-0.0499199 0.00132558 0)
(-0.0499313 -0.00122565 0)
(-0.0493142 -0.00376459 0)
(-0.0480787 -0.00624537 0)
(-0.0462372 -0.00862324 0)
(-0.0438001 -0.0108549 0)
(-0.040823 -0.012888 0)
(-0.0373451 -0.0146656 0)
(-0.033424 -0.0161256 0)
(-0.02916 -0.0172303 0)
(-0.0246263 -0.0179128 0)
(-0.0199708 -0.0181452 0)
(-0.0153095 -0.0178943 0)
(-0.0107595 -0.0171817 0)
(-0.00647224 -0.0160063 0)
(-0.0025535 -0.0144125 0)
(0.000910483 -0.0124529 0)
(0.00378378 -0.0102053 0)
(0.00596849 -0.00778995 0)
(0.0074836 -0.00529462 0)
(0.0082932 -0.00280425 0)
(0.00839397 -0.000428723 0)
(0.00788723 0.00177593 0)
(0.0068391 0.0035946 0)
(0.00522935 0.00454942 0)
(0.00411418 0.00426469 0)
(0.00207031 0.00955111 0)
(-0.00271959 0.0129647 0)
(-0.0049767 0.00483965 0)
(-0.00588113 0.00560074 0)
(-0.00769499 0.00498555 0)
(-0.00905824 0.00309795 0)
(-0.00998218 0.000696946 0)
(-0.0103296 -0.00205915 0)
(-0.0099165 -0.00497346 0)
(-0.00873163 -0.00799695 0)
(-0.00682294 -0.0109694 0)
(-0.00418391 -0.0137334 0)
(-0.000839573 -0.0162277 0)
(0.00310968 -0.0182889 0)
(0.00745392 -0.0197915 0)
(0.0120855 -0.0207577 0)
(0.0168522 -0.0211345 0)
(0.0216289 -0.020932 0)
(0.0262847 -0.0201782 0)
(0.0306664 -0.0189218 0)
(0.0346646 -0.0172241 0)
(0.0382209 -0.0151448 0)
(0.0412728 -0.0127534 0)
(0.043765 -0.0101245 0)
(0.0456486 -0.00727183 0)
(0.046913 -0.00430934 0)
(0.0475597 -0.00126729 0)
(0.0475487 0.00180776 0)
(0.0469029 0.0048757 0)
(0.0456228 0.0078915 0)
(0.0437287 0.0108172 0)
(0.0412344 0.0135917 0)
(0.038184 0.0161896 0)
(0.0346123 0.0185784 0)
(0.0305626 0.0207024 0)
(0.0260979 0.0225432 0)
(0.0212894 0.0240511 0)
(0.0162389 0.0252256 0)
(0.0109826 0.0260898 0)
(0.00563438 0.0266146 0)
(0.000230354 0.0268896 0)
(-0.00518543 0.0268609 0)
(-0.0105841 0.0266244 0)
(-0.0159276 0.0260594 0)
(-0.0211563 0.0252318 0)
(-0.0262047 0.0240593 0)
(-0.0310064 0.0225738 0)
(-0.0354988 0.0207742 0)
(-0.0395854 0.0186735 0)
(-0.0432174 0.0163124 0)
(-0.0463392 0.0137085 0)
(-0.0488862 0.0109053 0)
(-0.0508394 0.00793383 0)
(-0.0521714 0.00484633 0)
(-0.0528498 0.0016734 0)
(-0.052859 -0.00152714 0)
(-0.0522082 -0.00471879 0)
(-0.0508971 -0.00784018 0)
(-0.0489133 -0.0108552 0)
(-0.0462777 -0.0136806 0)
(-0.0430474 -0.0162747 0)
(-0.039243 -0.0185583 0)
(-0.034948 -0.0204481 0)
(-0.0302446 -0.0218825 0)
(-0.025218 -0.0227842 0)
(-0.0200231 -0.0231065 0)
(-0.0148197 -0.0228096 0)
(-0.0097507 -0.0219011 0)
(-0.00495027 -0.0203883 0)
(-0.000578876 -0.0183057 0)
(0.0032492 -0.0157528 0)
(0.00639783 -0.0128505 0)
(0.00872246 -0.0097158 0)
(0.0102708 -0.00646988 0)
(0.0110255 -0.00322356 0)
(0.0109489 -0.000132942 0)
(0.010138 0.00274265 0)
(0.00872558 0.00513254 0)
(0.00672295 0.00629782 0)
(0.00529892 0.00592645 0)
(0.00265514 0.0131424 0)
(-0.00362274 0.0175306 0)
(-0.00653073 0.00643561 0)
(-0.0074287 0.00733201 0)
(-0.00958985 0.00673353 0)
(-0.0114392 0.00450084 0)
(-0.012828 0.00146287 0)
(-0.0134563 -0.00200585 0)
(-0.0131921 -0.00570749 0)
(-0.0120555 -0.00958986 0)
(-0.00999225 -0.0133968 0)
(-0.00706506 -0.01696 0)
(-0.00331607 -0.0200923 0)
(0.00117836 -0.0226973 0)
(0.00614782 -0.0246206 0)
(0.0114198 -0.025837 0)
(0.016853 -0.0262838 0)
(0.0222656 -0.0259747 0)
(0.0275056 -0.0250073 0)
(0.0324202 -0.0233901 0)
(0.0368837 -0.0212535 0)
(0.0408244 -0.0186352 0)
(0.0441712 -0.0156822 0)
(0.0469079 -0.012407 0)
(0.0489818 -0.00893104 0)
(0.0503592 -0.00529242 0)
(0.0510566 -0.00159029 0)
(0.0510614 0.0021477 0)
(0.0503902 0.00587363 0)
(0.0490393 0.009533 0)
(0.0470136 0.0130844 0)
(0.0443527 0.0164728 0)
(0.0411001 0.0196541 0)
(0.0372624 0.0225639 0)
(0.0329068 0.0251524 0)
(0.0280986 0.0273764 0)
(0.0229185 0.029191 0)
(0.0174954 0.030577 0)
(0.0118766 0.0315872 0)
(0.0061757 0.0321942 0)
(0.0004246 0.032505 0)
(-0.00533064 0.0324642 0)
(-0.0110803 0.0321905 0)
(-0.0167755 0.0315315 0)
(-0.0223552 0.0305509 0)
(-0.0277786 0.0291626 0)
(-0.0329313 0.027393 0)
(-0.0377604 0.0252317 0)
(-0.0421737 0.0226953 0)
(-0.0460954 0.0198193 0)
(-0.0494564 0.0166589 0)
(-0.0521981 0.0132546 0)
(-0.0542958 0.00963844 0)
(-0.0557312 0.00589121 0)
(-0.0564708 0.00204833 0)
(-0.0564951 -0.0018365 0)
(-0.0558061 -0.00571694 0)
(-0.0544019 -0.00953664 0)
(-0.052259 -0.0132377 0)
(-0.0493889 -0.0167495 0)
(-0.04586 -0.0199889 0)
(-0.041675 -0.0228351 0)
(-0.0369062 -0.0252331 0)
(-0.0316488 -0.0270602 0)
(-0.0259968 -0.0282418 0)
(-0.0201339 -0.0286817 0)
(-0.014231 -0.0283509 0)
(-0.00846173 -0.0272155 0)
(-0.00300177 -0.0253144 0)
(0.00195693 -0.0226518 0)
(0.00625061 -0.0194286 0)
(0.00971911 -0.0157663 0)
(0.0122548 -0.0117824 0)
(0.0138788 -0.00763196 0)
(0.0145257 -0.00350012 0)
(0.0142244 0.000450065 0)
(0.0130867 0.00408335 0)
(0.0111635 0.0070363 0)
(0.00858299 0.00843204 0)
(0.00691594 0.0080537 0)
(0.00352846 0.01778 0)
(-0.00489232 0.0235499 0)
(-0.00858961 0.00835215 0)
(-0.00942999 0.00935553 0)
(-0.0119675 0.00894618 0)
(-0.0143248 0.00636374 0)
(-0.0162796 0.00262396 0)
(-0.0173382 -0.00165252 0)
(-0.0173623 -0.00634556 0)
(-0.0162754 -0.0112799 0)
(-0.0140374 -0.0160811 0)
(-0.0107133 -0.0205998 0)
(-0.00639649 -0.0245341 0)
(-0.00124368 -0.0277829 0)
(0.00449771 -0.0301952 0)
(0.0106148 -0.0316573 0)
(0.0169048 -0.0321603 0)
(0.0231081 -0.0317281 0)
(0.0290846 -0.0304541 0)
(0.0346537 -0.0284052 0)
(0.0396645 -0.0257363 0)
(0.0440424 -0.0225172 0)
(0.0477556 -0.0188901 0)
(0.0507752 -0.0149065 0)
(0.0530312 -0.0107288 0)
(0.0545309 -0.00636569 0)
(0.0552875 -0.00195167 0)
(0.0553142 0.0025039 0)
(0.0546082 0.0069368 0)
(0.0531701 0.0112946 0)
(0.0510199 0.0155076 0)
(0.0481678 0.0195658 0)
(0.0446412 0.0233702 0)
(0.0404702 0.0268616 0)
(0.0357277 0.0299796 0)
(0.0304973 0.032603 0)
(0.0248579 0.034729 0)
(0.0189766 0.0363363 0)
(0.0129245 0.0374777 0)
(0.00680739 0.038151 0)
(0.000649576 0.0384806 0)
(-0.00549763 0.0384154 0)
(-0.0116341 0.0381331 0)
(-0.0177465 0.0374076 0)
(-0.0237635 0.0362797 0)
(-0.0296287 0.0346874 0)
(-0.0352123 0.0326077 0)
(-0.0404705 0.0300652 0)
(-0.0452881 0.0270637 0)
(-0.049562 0.0236357 0)
(-0.0532193 0.019863 0)
(-0.0562103 0.0157865 0)
(-0.0584837 0.0114886 0)
(-0.0600242 0.00703026 0)
(-0.0608245 0.00246799 0)
(-0.060866 -0.00214905 0)
(-0.0601548 -0.00678705 0)
(-0.0586623 -0.0113508 0)
(-0.0563593 -0.0158207 0)
(-0.0532506 -0.0200961 0)
(-0.0493513 -0.0240674 0)
(-0.0447074 -0.0275835 0)
(-0.0393874 -0.0305785 0)
(-0.0334547 -0.032898 0)
(-0.0270319 -0.0344265 0)
(-0.0203167 -0.0350455 0)
(-0.0135261 -0.0346642 0)
(-0.00688092 -0.0332836 0)
(-0.00055409 -0.0309265 0)
(0.00514563 -0.0276292 0)
(0.00998989 -0.0235932 0)
(0.0139102 -0.0190044 0)
(0.0167285 -0.0139961 0)
(0.0184243 -0.00876242 0)
(0.0189662 -0.00361459 0)
(0.0183483 0.0013441 0)
(0.0166767 0.00590889 0)
(0.0142174 0.00955868 0)
(0.0111017 0.0110885 0)
(0.0091236 0.010848 0)
(0.00471962 0.0239465 0)
(-0.00676765 0.0315559 0)
(-0.0116001 0.0105108 0)
(-0.0118861 0.011424 0)
(-0.0147561 0.0117301 0)
(-0.0178542 0.00892183 0)
(-0.0205581 0.00444301 0)
(-0.022202 -0.000910924 0)
(-0.0226395 -0.0068642 0)
(-0.0216002 -0.0130435 0)
(-0.019106 -0.0190836 0)
(-0.0152976 -0.0247431 0)
(-0.010265 -0.0296848 0)
(-0.00424888 -0.0337519 0)
(0.00251568 -0.0366939 0)
(0.00970283 -0.0384376 0)
(0.0170425 -0.0389766 0)
(0.0242502 -0.0383446 0)
(0.0311242 -0.0366621 0)
(0.0374602 -0.034072 0)
(0.0431087 -0.0307636 0)
(0.0480152 -0.0268167 0)
(0.0521387 -0.0224104 0)
(0.0554351 -0.0176445 0)
(0.0578947 -0.0126676 0)
(0.0595155 -0.00752939 0)
(0.0603272 -0.00232157 0)
(0.0603752 0.00289959 0)
(0.0596286 0.00807349 0)
(0.0580831 0.0131627 0)
(0.0557762 0.0181479 0)
(0.0527128 0.022951 0)
(0.0488937 0.0274661 0)
(0.044362 0.031599 0)
(0.0391348 0.0352469 0)
(0.0333433 0.0383225 0)
(0.0271391 0.0407754 0)
(0.0207004 0.0426102 0)
(0.0141213 0.0438558 0)
(0.00752082 0.0445612 0)
(0.000889129 0.0448985 0)
(-0.00566822 0.0447955 0)
(-0.012235 0.0445042 0)
(-0.0188488 0.0437276 0)
(-0.0253657 0.0424839 0)
(-0.0317848 0.0406895 0)
(-0.0379166 0.0383013 0)
(-0.0436874 0.0353535 0)
(-0.0490051 0.0318526 0)
(-0.0537177 0.0278286 0)
(-0.0577376 0.0233737 0)
(-0.06099 0.0185539 0)
(-0.0634455 0.0135071 0)
(-0.0651214 0.00827824 0)
(-0.0660013 0.00294938 0)
(-0.066084 -0.00245647 0)
(-0.0653287 -0.00789626 0)
(-0.0637468 -0.0133091 0)
(-0.0613066 -0.0186371 0)
(-0.0579342 -0.023745 0)
(-0.0536455 -0.0285587 0)
(-0.0484817 -0.0328921 0)
(-0.0425029 -0.0366037 0)
(-0.0357609 -0.0395415 0)
(-0.0283961 -0.0415211 0)
(-0.02061 -0.042379 0)
(-0.0126941 -0.0420099 0)
(-0.00494086 -0.0403513 0)
(0.00243969 -0.0374164 0)
(0.00908934 -0.0333848 0)
(0.0146905 -0.0283757 0)
(0.019141 -0.022641 0)
(0.0223284 -0.0164058 0)
(0.0240972 -0.00990414 0)
(0.0244439 -0.00348309 0)
(0.0235049 0.00267216 0)
(0.0213162 0.0082998 0)
(0.0180555 0.0127084 0)
(0.0142639 0.0142894 0)
(0.0121732 0.0142265 0)
(0.00638058 0.0321414 0)
(-0.00977676 0.0423127 0)
(-0.0170159 0.0131466 0)
(-0.0156001 0.0133797 0)
(-0.0179937 0.0149389 0)
(-0.0219323 0.0123122 0)
(-0.025728 0.00710054 0)
(-0.0283357 0.000296054 0)
(-0.0292541 -0.00709852 0)
(-0.0282421 -0.0148548 0)
(-0.0254626 -0.0225015 0)
(-0.0210248 -0.0295792 0)
(-0.0151041 -0.0357689 0)
(-0.00794528 -0.0407747 0)
(0.000134763 -0.0443657 0)
(0.0086646 -0.0464174 0)
(0.0173448 -0.0469522 0)
(0.0257988 -0.0460144 0)
(0.0337594 -0.0438028 0)
(0.0409872 -0.0405186 0)
(0.0473797 -0.0364059 0)
(0.0528716 -0.031599 0)
(0.0574199 -0.0262814 0)
(0.0610224 -0.0206263 0)
(0.0636598 -0.0147658 0)
(0.0654004 -0.00878082 0)
(0.0662683 -0.00273576 0)
(0.0663019 0.00328263 0)
(0.0654989 0.00924441 0)
(0.0638934 0.0151316 0)
(0.0614728 0.0209366 0)
(0.0581734 0.0265338 0)
(0.053996 0.0318171 0)
(0.048962 0.0367623 0)
(0.0431623 0.0410519 0)
(0.0367376 0.0446495 0)
(0.029835 0.0474179 0)
(0.022714 0.0494796 0)
(0.0154737 0.0507645 0)
(0.00830519 0.0514483 0)
(0.00116887 0.0517816 0)
(-0.00583812 0.051589 0)
(-0.0129157 0.0513615 0)
(-0.0200857 0.0505816 0)
(-0.0272034 0.0492653 0)
(-0.0342667 0.0472789 0)
(-0.0410546 0.0445952 0)
(-0.047471 0.0412273 0)
(-0.0533996 0.0371455 0)
(-0.0586428 0.0323884 0)
(-0.0630945 0.0271481 0)
(-0.0666578 0.0215432 0)
(-0.0693147 0.015658 0)
(-0.0711011 0.00960687 0)
(-0.0720415 0.00344584 0)
(-0.0721605 -0.00275427 0)
(-0.0714342 -0.00903317 0)
(-0.0698155 -0.0153578 0)
(-0.0672032 -0.0216029 0)
(-0.0635822 -0.0277353 0)
(-0.0589034 -0.0335301 0)
(-0.0531431 -0.038824 0)
(-0.0464057 -0.043413 0)
(-0.0387139 -0.0471428 0)
(-0.0301914 -0.0497265 0)
(-0.0211034 -0.0509496 0)
(-0.0117746 -0.0506302 0)
(-0.002558 -0.0486527 0)
(0.00614878 -0.0450657 0)
(0.0139406 -0.0400736 0)
(0.020507 -0.0338957 0)
(0.0256627 -0.0267865 0)
(0.0292553 -0.0190258 0)
(0.0311427 -0.0110095 0)
(0.0312901 -0.00304172 0)
(0.0298171 0.00452746 0)
(0.0268794 0.0113564 0)
(0.0228676 0.0164211 0)
(0.0187032 0.017863 0)
(0.0170849 0.0183216 0)
(0.00898897 0.0427604 0)
(-0.0140944 0.0586203 0)
(-0.0238115 0.0166593 0)
(-0.0214673 0.0141004 0)
(-0.0225809 0.0180569 0)
(-0.0267468 0.0165976 0)
(-0.0320425 0.0107699 0)
(-0.0359363 0.00264177 0)
(-0.0374677 -0.00686773 0)
(-0.0366712 -0.0167952 0)
(-0.0334712 -0.0264426 0)
(-0.0281886 -0.03532 0)
(-0.0210724 -0.0430435 0)
(-0.0124412 -0.049196 0)
(-0.002704 -0.0535565 0)
(0.00756274 -0.0559471 0)
(0.0179174 -0.0563763 0)
(0.0279079 -0.0549876 0)
(0.0371696 -0.052049 0)
(0.0454483 -0.0478441 0)
(0.0526561 -0.042732 0)
(0.0588001 -0.0369091 0)
(0.0637971 -0.0305186 0)
(0.067661 -0.0238519 0)
(0.0704657 -0.0169886 0)
(0.072291 -0.0100708 0)
(0.0731726 -0.00315145 0)
(0.0731887 0.00372489 0)
(0.0723545 0.010564 0)
(0.07068 0.0173934 0)
(0.0681097 0.0241098 0)
(0.0645603 0.0306366 0)
(0.0601112 0.0368826 0)
(0.0545996 0.0426318 0)
(0.0480518 0.0476529 0)
(0.0407533 0.0518473 0)
(0.0329859 0.054944 0)
(0.0250086 0.0570793 0)
(0.0169469 0.058323 0)
(0.00913855 0.0589199 0)
(0.00143206 0.0591094 0)
(-0.00578638 0.0589116 0)
(-0.0134025 0.0588198 0)
(-0.0213821 0.0580734 0)
(-0.0292875 0.0567385 0)
(-0.0371437 0.0546112 0)
(-0.0447229 0.0516566 0)
(-0.0519449 0.0478846 0)
(-0.0586733 0.0432506 0)
(-0.0645521 0.0378205 0)
(-0.0694154 0.0316639 0)
(-0.0733002 0.024975 0)
(-0.0761843 0.0180673 0)
(-0.0780899 0.0110788 0)
(-0.0790639 0.00405357 0)
(-0.0792136 -0.00299028 0)
(-0.078555 -0.0101515 0)
(-0.0769286 -0.0174211 0)
(-0.0742892 -0.0247381 0)
(-0.0704589 -0.032053 0)
(-0.0653098 -0.0390055 0)
(-0.0589064 -0.0454497 0)
(-0.0513241 -0.0511504 0)
(-0.0425346 -0.0559287 0)
(-0.0326268 -0.0593518 0)
(-0.0219024 -0.0610908 0)
(-0.0107585 -0.0608664 0)
(0.000282937 -0.0585242 0)
(0.0107039 -0.0541435 0)
(0.0199695 -0.0479741 0)
(0.0277058 -0.040322 0)
(0.0337433 -0.031519 0)
(0.0378496 -0.0219848 0)
(0.0398317 -0.0120723 0)
(0.0396359 -0.0022057 0)
(0.0374628 0.00702063 0)
(0.033754 0.015102 0)
(0.0294272 0.0207645 0)
(0.0261167 0.0217741 0)
(0.0250899 0.0245626 0)
(0.0130413 0.0584432 0)
(-0.0167291 0.076797 0)
(-0.0147582 0.020118 0)
(-0.0166529 0.0122713 0)
(-0.0261342 0.0199272 0)
(-0.0328062 0.0208788 0)
(-0.0392467 0.0155399 0)
(-0.0451136 0.00524311 0)
(-0.0481374 -0.00682396 0)
(-0.0473584 -0.0191353 0)
(-0.0435051 -0.0311021 0)
(-0.0371174 -0.0421496 0)
(-0.0284443 -0.0517653 0)
(-0.0178881 -0.0594383 0)
(-0.0060062 -0.0647421 0)
(0.00650339 -0.0674665 0)
(0.0189985 -0.0676384 0)
(0.0308623 -0.0655411 0)
(0.0416902 -0.0615871 0)
(0.0511565 -0.056189 0)
(0.0592271 -0.0498024 0)
(0.066044 -0.0426965 0)
(0.0714782 -0.0350954 0)
(0.0756004 -0.0272744 0)
(0.078517 -0.0192898 0)
(0.080336 -0.0113705 0)
(0.0811969 -0.00359128 0)
(0.0811984 0.00411581 0)
(0.0804065 0.0118001 0)
(0.0787243 0.019488 0)
(0.0760583 0.0270844 0)
(0.0723703 0.0345738 0)
(0.0675 0.0419032 0)
(0.0613194 0.0487176 0)
(0.0539993 0.0548267 0)
(0.045665 0.0597887 0)
(0.036662 0.063339 0)
(0.0275222 0.0655092 0)
(0.0184638 0.066667 0)
(0.00980472 0.067016 0)
(0.00168882 0.0667473 0)
(-0.00531703 0.0664465 0)
(-0.0134473 0.0670406 0)
(-0.022551 0.0664919 0)
(-0.0315787 0.0649719 0)
(-0.0404842 0.0626959 0)
(-0.0490496 0.0594041 0)
(-0.0572305 0.0550323 0)
(-0.0648632 0.0493942 0)
(-0.071627 0.0428395 0)
(-0.0772483 0.0357033 0)
(-0.0814373 0.0282112 0)
(-0.0843093 0.0203752 0)
(-0.0861548 0.0124795 0)
(-0.0871167 0.00466082 0)
(-0.0873498 -0.00319039 0)
(-0.0868367 -0.0111778 0)
(-0.0853585 -0.0194719 0)
(-0.0827693 -0.0280127 0)
(-0.0787542 -0.0366293 0)
(-0.0731681 -0.0449648 0)
(-0.066114 -0.0528166 0)
(-0.0576429 -0.0599628 0)
(-0.0476042 -0.0660701 0)
(-0.0359935 -0.0706663 0)
(-0.0232129 -0.0732126 0)
(-0.00976242 -0.0732235 0)
(0.00365954 -0.0704711 0)
(0.0162617 -0.0650434 0)
(0.027379 -0.057334 0)
(0.0365997 -0.0477928 0)
(0.0436467 -0.0369389 0)
(0.0483658 -0.0252598 0)
(0.050527 -0.0132394 0)
(0.0497428 -0.00156807 0)
(0.0465516 0.00958891 0)
(0.0427711 0.0184162 0)
(0.0391438 0.0242196 0)
(0.0326952 0.0240353 0)
(0.0261295 0.0322858 0)
(0.0163129 0.0790326 0)
(-0.0146614 0.0836796 0)
(0.0276374 0.022491 0)
(0.0349537 0.0314074 0)
(-0.00627729 0.0356495 0)
(-0.0370924 0.028982 0)
(-0.04929 0.0249528 0)
(-0.0574077 0.0133335 0)
(-0.0608393 -0.00298559 0)
(-0.0602647 -0.0203597 0)
(-0.0558634 -0.0363409 0)
(-0.0481685 -0.0504822 0)
(-0.0375951 -0.0625794 0)
(-0.0245902 -0.0721016 0)
(-0.00987818 -0.078481 0)
(0.00555547 -0.0814438 0)
(0.0207712 -0.0811213 0)
(0.0349395 -0.077959 0)
(0.0475638 -0.0725464 0)
(0.0583487 -0.0655963 0)
(0.0673228 -0.0576124 0)
(0.0746976 -0.0489747 0)
(0.080436 -0.0399981 0)
(0.084738 -0.0308041 0)
(0.0876836 -0.021591 0)
(0.0893095 -0.0126096 0)
(0.0899563 -0.00391866 0)
(0.0898885 0.00462701 0)
(0.0891275 0.0131756 0)
(0.0875149 0.0218538 0)
(0.0849427 0.0306287 0)
(0.0813343 0.0394898 0)
(0.0763645 0.0482743 0)
(0.0697705 0.056614 0)
(0.0615107 0.0639015 0)
(0.0516876 0.0695624 0)
(0.0408782 0.0733107 0)
(0.0299322 0.0753945 0)
(0.0194399 0.0761215 0)
(0.00994523 0.0756475 0)
(0.00196541 0.0742058 0)
(-0.00456701 0.0740063 0)
(-0.012799 0.0761625 0)
(-0.0231301 0.0761594 0)
(-0.0336758 0.0746164 0)
(-0.0440948 0.0721941 0)
(-0.0542193 0.0688153 0)
(-0.0638566 0.0643507 0)
(-0.0726224 0.0583759 0)
(-0.0798755 0.0509279 0)
(-0.0855379 0.042126 0)
(-0.0898789 0.0326881 0)
(-0.0929437 0.023252 0)
(-0.0947458 0.0140784 0)
(-0.0956799 0.00534286 0)
(-0.0960582 -0.00321071 0)
(-0.0958893 -0.0119601 0)
(-0.0948095 -0.0212841 0)
(-0.0924234 -0.0312489 0)
(-0.0883322 -0.0414434 0)
(-0.0824286 -0.0514455 0)
(-0.0748677 -0.0609263 0)
(-0.0655285 -0.0697808 0)
(-0.054131 -0.0776283 0)
(-0.0405911 -0.0839047 0)
(-0.0252168 -0.0877445 0)
(-0.00873867 -0.0882537 0)
(0.0077753 -0.0850755 0)
(0.0231894 -0.0783528 0)
(0.0366268 -0.0686849 0)
(0.0475727 -0.056723 0)
(0.0558047 -0.0431115 0)
(0.0610808 -0.0280539 0)
(0.0629427 -0.0119266 0)
(0.0618461 0.00382683 0)
(0.0583402 0.01546 0)
(0.0544641 0.0200528 0)
(0.0403781 0.0295678 0)
(0.00549541 0.0380507 0)
(-0.00897452 0.0446342 0)
(0.0135818 0.092087 0)
(0.0112848 0.0719937 0)
(0.0711708 -0.0304267 0)
(0.10782 0.0539704 0)
(0.054346 0.0970609 0)
(-0.0287884 0.0616195 0)
(-0.0588233 0.0375476 0)
(-0.0758067 0.0155554 0)
(-0.0825681 -0.00601485 0)
(-0.080363 -0.0257442 0)
(-0.0731008 -0.0441695 0)
(-0.0628309 -0.060926 0)
(-0.0496964 -0.075709 0)
(-0.0337128 -0.087551 0)
(-0.015542 -0.0954192 0)
(0.00358708 -0.0986689 0)
(0.0223075 -0.0975674 0)
(0.0394926 -0.0928533 0)
(0.0543401 -0.0853633 0)
(0.0664789 -0.0762524 0)
(0.0762116 -0.0661409 0)
(0.0839506 -0.0557254 0)
(0.0899464 -0.0450318 0)
(0.0943863 -0.0342497 0)
(0.0972142 -0.0237015 0)
(0.0985936 -0.0135689 0)
(0.099012 -0.00410176 0)
(0.098883 0.00497636 0)
(0.0983448 0.0141959 0)
(0.0971657 0.0236562 0)
(0.0951091 0.033342 0)
(0.0919887 0.0432991 0)
(0.0873167 0.0534162 0)
(0.0803625 0.0634672 0)
(0.0707054 0.0727392 0)
(0.058472 0.0802028 0)
(0.0449216 0.0850674 0)
(0.0318595 0.0871595 0)
(0.0201398 0.0868705 0)
(0.0101058 0.0845657 0)
(0.00224994 0.0812276 0)
(-0.00446753 0.0813159 0)
(-0.0125501 0.0858432 0)
(-0.0232892 0.0873365 0)
(-0.0349671 0.0861261 0)
(-0.0471153 0.083136 0)
(-0.0592219 0.078814 0)
(-0.0709214 0.0727163 0)
(-0.0815465 0.0648742 0)
(-0.0903731 0.0556268 0)
(-0.0969794 0.0456874 0)
(-0.101257 0.0355204 0)
(-0.103691 0.0252223 0)
(-0.104656 0.0152032 0)
(-0.104757 0.00595904 0)
(-0.104784 -0.00282567 0)
(-0.104909 -0.0121581 0)
(-0.104585 -0.0226296 0)
(-0.102843 -0.0342676 0)
(-0.0988371 -0.0464395 0)
(-0.0924374 -0.0584134 0)
(-0.0841991 -0.0697548 0)
(-0.0741861 -0.0808348 0)
(-0.0615694 -0.0912813 0)
(-0.0457234 -0.100078 0)
(-0.026879 -0.10573 0)
(-0.00631887 -0.106878 0)
(0.0141568 -0.102904 0)
(0.0328652 -0.0942192 0)
(0.0488614 -0.081987 0)
(0.0618546 -0.0674444 0)
(0.0720213 -0.0513691 0)
(0.0794426 -0.0340832 0)
(0.0829278 -0.0161524 0)
(0.0792386 0.00171395 0)
(0.0673462 0.0179614 0)
(0.053862 0.0331416 0)
(-0.0137741 0.081401 0)
(-0.0830068 0.0824399 0)
(-0.06284 0.0291536 0)
(-0.00111812 0.0896673 0)
(0.0550931 -0.00375244 0)
(0.0719759 -0.109196 0)
(0.0940829 0.0431131 0)
(0.0530009 0.169902 0)
(-0.044921 0.128509 0)
(-0.0814879 0.0829374 0)
(-0.0982295 0.0425512 0)
(-0.102941 0.00460273 0)
(-0.100869 -0.0270623 0)
(-0.093097 -0.0515934 0)
(-0.0817551 -0.0724505 0)
(-0.0669482 -0.0909939 0)
(-0.0477028 -0.106463 0)
(-0.0246226 -0.116734 0)
(-0.000117475 -0.120494 0)
(0.0233516 -0.118039 0)
(0.0443843 -0.110688 0)
(0.0619327 -0.099867 0)
(0.075716 -0.0874125 0)
(0.0865037 -0.0746743 0)
(0.0952117 -0.0624694 0)
(0.101877 -0.0502212 0)
(0.106094 -0.0378119 0)