/*--------------------------------*- C++ -*----------------------------------*\
| =========                 |                                                 |
| \\      /  F ield         | OpenFOAM: The Open Source CFD Toolbox           |
|  \\    /   O peration     | Version:  2412                                  |
|   \\  /    A nd           | Website:  www.openfoam.com                      |
|    \\/     M anipulation  |                                                 |
\*---------------------------------------------------------------------------*/
FoamFile
{
    version     2.0;
    format      ascii;
    arch        "LSB;label=32;scalar=64";
    class       surfaceScalarField;
    location    "9.35";
    object      alphaPhi0.lava;
}
// * * * * * * * * * * * * * * * * * * * * * * * * * * * * * * * * * * * * * //

dimensions      [0 3 -1 0 0 0 0];

oriented        oriented;

internalField   nonuniform List<scalar> 
12640
(
9.85556e-09
-6.02649e-09
2.365e-08
-3.23495e-08
1.81065e-08
-4.30155e-08
-1.03563e-08
-2.04046e-08
-4.58875e-08
3.02146e-08
-5.96736e-08
7.95314e-08
-3.27226e-08
8.96437e-08
2.68128e-08
4.13107e-08
8.38825e-08
-4.70435e-08
9.72104e-08
-1.24427e-07
4.82585e-08
-1.36979e-07
-4.1488e-08
-6.48497e-08
-1.19095e-07
5.88294e-08
-1.31907e-07
1.6249e-07
-6.30752e-08
1.78337e-07
5.30549e-08
8.68141e-08
1.48056e-07
-6.59163e-08
1.60509e-07
-1.91345e-07
7.59313e-08
-2.10927e-07
-6.05616e-08
-1.05782e-07
-1.68753e-07
6.79411e-08
-1.81382e-07
2.09582e-07
-8.6387e-08
2.33428e-07
6.33999e-08
1.21234e-07
1.80319e-07
-6.46601e-08
1.94098e-07
-2.16752e-07
9.46077e-08
-2.45649e-07
-6.11677e-08
-1.33262e-07
-1.82544e-07
5.60589e-08
-1.988e-07
2.13196e-07
-1.00847e-07
2.48195e-07
5.39657e-08
1.42272e-07
1.76131e-07
-4.23846e-08
1.96495e-07
-1.99872e-07
1.05689e-07
-2.42178e-07
-4.21097e-08
-1.48666e-07
-1.62129e-07
2.44403e-08
-1.88225e-07
1.78445e-07
-1.09405e-07
2.29111e-07
2.64746e-08
1.52805e-07
1.4219e-07
-3.36859e-09
1.75428e-07
-1.50957e-07
1.12204e-07
-2.10679e-07
-8.30127e-09
-1.54847e-07
-1.18238e-07
-1.92546e-08
-1.59483e-07
1.19801e-07
-1.14047e-07
1.88608e-07
-1.09584e-08
1.54805e-07
9.22702e-08
4.1724e-08
1.41686e-07
-8.73326e-08
1.14708e-07
-1.64447e-07
2.96835e-08
-1.5246e-07
-6.62407e-08
-6.22084e-08
-1.23091e-07
5.58249e-08
-1.13714e-07
1.39517e-07
-4.62556e-08
1.47454e-07
4.18922e-08
7.90303e-08
1.04538e-07
-2.71644e-08
1.10603e-07
-1.1477e-07
5.93271e-08
-1.39334e-07
-2.04998e-08
-9.0741e-08
-8.64043e-08
2.81319e-09
-1.04685e-07
9.08318e-08
-6.76785e-08
1.27689e-07
3.02194e-09
9.64023e-08
6.88997e-08
1.64993e-08
9.55206e-08
-6.77969e-08
7.07681e-08
-1.12158e-07
1.04474e-08
-9.57657e-08
-5.15197e-08
-3.10886e-08
-8.24383e-08
4.49378e-08
-6.85775e-08
9.24504e-08
-2.13514e-08
9.01042e-08
3.10602e-08
4.43077e-08
6.12645e-08
-1.78037e-08
5.83475e-08
-6.57023e-08
3.23764e-08
-8.13815e-08
5.60588e-09
-6.53924e-08
-6.65236e-09
-3.20274e-08
1.04247e-09
-1.49119e-08
1.87406e-08
1.4373e-08
-6.88423e-09
3.63172e-08
-3.99339e-08
3.29268e-08
-4.87431e-08
-2.43245e-09
-2.16343e-08
-4.84202e-08
3.26733e-08
-7.13313e-08
8.15698e-08
-4.78414e-08
8.75671e-08
1.54625e-08
3.54925e-08
8.16069e-08
-5.16883e-08
1.04967e-07
-1.22053e-07
6.24105e-08
-1.26058e-07
-2.73798e-08
-5.0819e-08
-1.11418e-07
6.61841e-08
-1.34274e-07
1.55728e-07
-7.47319e-08
1.5858e-07
3.70926e-08
6.47065e-08
1.35076e-07
-7.60389e-08
1.56961e-07
-1.80821e-07
8.42606e-08
-1.83497e-07
-4.35799e-08
-7.67198e-08
-1.51051e-07
8.05237e-08
-1.72048e-07
1.96191e-07
-9.09957e-08
2.00057e-07
4.61863e-08
8.68245e-08
1.58768e-07
-7.92037e-08
1.79573e-07
-2.01477e-07
9.55332e-08
-2.08273e-07
-4.42941e-08
-9.52188e-08
-1.58058e-07
7.21666e-08
-1.79828e-07
1.97248e-07
-9.81712e-08
2.0891e-07
3.81235e-08
1.02297e-07
1.49847e-07
-5.97582e-08
1.74043e-07
-1.84523e-07
9.96977e-08
-2.0302e-07
-2.79033e-08
-1.0834e-07
-1.35248e-07
4.29079e-08
-1.63438e-07
1.64949e-07
-1.00513e-07
1.91957e-07
1.44297e-08
1.13464e-07
1.15839e-07
-2.28426e-08
1.49364e-07
-1.40418e-07
1.00802e-07
-1.77055e-07
1.06916e-09
-1.17539e-07
-9.35575e-08
1.20871e-09
-1.33278e-07
1.13094e-07
-1.00645e-07
1.59668e-07
-1.73025e-08
1.20273e-07
7.01986e-08
2.02986e-08
1.16304e-07
-8.49948e-08
9.97607e-08
-1.4087e-07
3.27504e-08
-1.21149e-07
-4.75568e-08
-3.99029e-08
-9.93835e-08
5.80373e-08
-9.77003e-08
1.2155e-07
-4.5932e-08
1.19585e-07
2.71764e-08
5.60504e-08
8.32169e-08
-3.36943e-08
9.40235e-08
-1.02223e-07
5.5726e-08
-1.14916e-07
-9.99662e-09
-6.74288e-08
-6.78811e-08
1.30686e-08
-8.78891e-08
8.31701e-08
-6.09322e-08
1.0663e-07
-3.15111e-09
7.32911e-08
5.34504e-08
3.47846e-09
7.88166e-08
-6.41562e-08
6.11337e-08
-9.4231e-08
1.2541e-08
-7.34705e-08
-3.8792e-08
-1.64631e-08
-6.53562e-08
4.42413e-08
-5.58556e-08
7.71665e-08
-2.03144e-08
6.86894e-08
1.80545e-08
2.82451e-08
3.91698e-08
-1.95211e-08
3.95223e-08
-4.96067e-08
2.97231e-08
-5.07909e-08
2.61101e-08
-3.25215e-08
-1.2722e-08
-4.61755e-08
3.21417e-08
-2.00818e-08
2.56682e-08
2.35508e-08
-1.02421e-08
6.08443e-08
-5.00519e-08
5.96624e-08
-6.79174e-08
1.24315e-08
-4.18393e-08
-5.66942e-08
2.22577e-08
-1.02028e-07
8.78799e-08
-8.6251e-08
1.09139e-07
-8.92885e-09
6.23729e-08
8.73778e-08
-3.32999e-08
1.40837e-07
-1.22595e-07
1.10395e-07
-1.46601e-07
5.90143e-09
-8.1711e-08
-1.13219e-07
4.08623e-08
-1.72491e-07
1.49891e-07
-1.29571e-07
1.76379e-07
-3.80735e-09
9.76622e-08
1.32119e-07
-4.50843e-08
1.95111e-07
-1.68709e-07
1.43202e-07
-1.97478e-07
3.33632e-09
-1.10055e-07
-1.42914e-07
4.53821e-08
-2.07928e-07
1.78305e-07
-1.51289e-07
2.09561e-07
-4.95898e-09
1.19112e-07
1.45348e-07
-4.12981e-08
2.11352e-07
-1.78487e-07
1.54733e-07
-2.12879e-07
9.40915e-09
-1.25183e-07
-1.39385e-07
3.29463e-08
-2.05982e-07
1.70019e-07
-1.54123e-07
2.08467e-07
-1.65653e-08
1.28876e-07
1.26124e-07
-2.06175e-08
1.93412e-07
-1.54042e-07
1.50606e-07
-1.97606e-07
2.62715e-08
-1.30682e-07
-1.06984e-07
5.16623e-09
-1.75427e-07
1.32328e-07
-1.45094e-07
1.81912e-07
-3.79677e-08
1.30993e-07
8.36869e-08
1.23351e-08
1.53778e-07
-1.06787e-07
1.38168e-07
-1.62904e-07
5.05184e-08
-1.29927e-07
-5.84819e-08
-3.04111e-08
-1.30482e-07
7.96013e-08
-1.30414e-07
1.42126e-07
-6.28377e-08
1.27455e-07
3.33209e-08
4.75655e-08
1.07049e-07
-5.27396e-08
1.21914e-07
-1.20782e-07
7.35214e-08
-1.23294e-07
-1.01995e-08
-6.22397e-08
-8.48065e-08
2.80435e-08
-1.1256e-07
9.9865e-08
-8.12071e-08
1.17082e-07
-9.20804e-09
7.31013e-08
6.4728e-08
-6.86235e-09
1.02176e-07
-7.99054e-08
8.49219e-08
-1.08303e-07
2.39819e-08
-7.90355e-08
-4.69358e-08
-9.85102e-09
-8.99518e-08
6.11545e-08
-8.34565e-08
9.65253e-08
-3.32945e-08
7.9458e-08
3.14294e-08
2.19356e-08
7.52968e-08
-4.31679e-08
7.64377e-08
-8.10642e-08
3.78224e-08
-7.40587e-08
-1.6311e-08
-2.98938e-08
-5.60919e-08
2.46917e-08
-6.36078e-08
6.04644e-08
-4.09578e-08
6.20881e-08
-4.88663e-09
3.49659e-08
2.88116e-08
-3.65724e-10
4.90797e-08
-2.44156e-08
5.55723e-08
-3.53102e-08
-3.24803e-08
-5.28009e-08
2.01748e-08
-5.11429e-08
4.62358e-08
-1.64369e-08
3.74683e-08
4.23353e-08
-8.47811e-09
8.68718e-08
-6.85184e-08
7.93703e-08
-9.91716e-08
1.19306e-08
-6.82405e-08
-7.98118e-08
1.75653e-08
-1.35367e-07
1.10551e-07
-1.09425e-07
1.48879e-07
-6.45625e-09
9.75607e-08
1.15666e-07
-2.35409e-08
1.78826e-07
-1.45757e-07
1.35129e-07
-1.91341e-07
1.72876e-09
-1.23395e-07
-1.44661e-07
2.63336e-08
-2.12854e-07
1.71901e-07
-1.54748e-07
2.23546e-07
1.42119e-09
1.43804e-07
1.64802e-07
-2.61588e-08
2.35907e-07
-1.88103e-07
1.68067e-07
-2.44643e-07
-2.08072e-09
-1.58649e-07
-1.74928e-07
2.25563e-08
-2.47407e-07
1.93887e-07
-1.753e-07
2.54614e-07
-2.80645e-10
1.68375e-07
1.74975e-07
-1.50424e-08
2.48111e-07
-1.89248e-07
1.77617e-07
-2.54001e-07
6.3334e-09
-1.73544e-07
-1.65286e-07
3.78576e-09
-2.39094e-07
1.75277e-07
-1.75884e-07
2.44266e-07
-1.59257e-08
1.75029e-07
1.47254e-07
1.08882e-08
2.22251e-07
-1.53433e-07
1.71285e-07
-2.27089e-07
2.85403e-08
-1.73555e-07
-1.22882e-07
-2.80013e-08
-1.99861e-07
1.25922e-07
-1.64882e-07
2.04597e-07
-4.34104e-08
1.69801e-07
9.42619e-08
4.64129e-08
1.73911e-07
-9.50086e-08
1.57154e-07
-1.78722e-07
5.89756e-08
-1.64105e-07
-6.41496e-08
-6.45314e-08
-1.46721e-07
6.32576e-08
-1.48645e-07
1.51415e-07
-7.38607e-08
1.56642e-07
3.47954e-08
8.07741e-08
1.19889e-07
-3.29256e-08
1.39252e-07
-1.24188e-07
8.63183e-08
-1.47278e-07
-8.48208e-09
-9.35099e-08
-9.48051e-08
6.08363e-09
-1.28705e-07
9.82725e-08
-9.47511e-08
1.35776e-07
-1.29918e-08
1.01383e-07
7.23799e-08
1.58113e-08
1.16651e-07
-7.43004e-08
9.80479e-08
-1.21667e-07
2.87348e-08
-1.03284e-07
-5.25436e-08
-3.1811e-08
-1.02046e-07
5.24971e-08
-9.49141e-08
1.04484e-07
-3.80612e-08
9.86294e-08
3.50346e-08
4.18397e-08
8.41936e-08
-3.22291e-08
8.5219e-08
-8.32795e-08
4.20865e-08
-8.685e-08
-1.79523e-08
-4.62424e-08
-6.20571e-08
1.22103e-08
-7.02321e-08
5.64088e-08
-4.30905e-08
6.71679e-08
4.38722e-09
4.65499e-08
4.71262e-08
1.09395e-08
6.60684e-08
-2.75807e-08
-4.55559e-08
-2.11724e-08
-1.71499e-08
-5.515e-08
3.32168e-08
-6.06937e-08
7.0673e-08
-1.76686e-08
5.6589e-08
5.65228e-08
-8.19623e-09
1.10569e-07
-8.78226e-08
9.77437e-08
-1.27146e-07
1.28196e-08
-8.86534e-08
-9.75917e-08
1.73287e-08
-1.6114e-07
1.31643e-07
-1.27477e-07
1.79717e-07
-5.94643e-09
1.20361e-07
1.34064e-07
-2.22316e-08
2.0361e-07
-1.66944e-07
1.51317e-07
-2.22859e-07
8.63807e-11
-1.47046e-07
-1.6228e-07
2.40808e-08
-2.35178e-07
1.92055e-07
-1.68393e-07
2.54221e-07
3.80968e-09
1.67387e-07
1.80599e-07
-2.27328e-08
2.54844e-07
-2.06054e-07
1.78963e-07
-2.73132e-07
-4.65259e-09
-1.81442e-07
-1.88045e-07
1.77271e-08
-2.62432e-07
2.08719e-07
-1.83586e-07
2.79948e-07
1.82543e-09
1.89928e-07
1.84758e-07
-8.54844e-09
2.59e-07
-2.0026e-07
1.83583e-07
-2.75502e-07
5.16248e-09
-1.93572e-07
-1.71517e-07
-4.51049e-09
-2.4611e-07
1.82112e-07
-1.80084e-07
2.61648e-07
-1.61282e-08
1.93425e-07
1.49939e-07
2.1024e-08
2.25811e-07
-1.56026e-07
1.74192e-07
-2.40301e-07
3.02173e-08
-1.9024e-07
-1.22455e-07
-3.97769e-08
-2.00691e-07
1.24592e-07
-1.67025e-07
2.13914e-07
-4.65082e-08
1.84786e-07
9.13344e-08
5.94722e-08
1.72761e-07
-9.03151e-08
1.5887e-07
-1.84565e-07
6.31446e-08
-1.77347e-07
-5.95811e-08
-7.83192e-08
-1.44406e-07
5.60039e-08
-1.50172e-07
1.54352e-07
-7.85988e-08
1.68087e-07
2.9486e-08
9.45945e-08
1.171e-07
-2.4043e-08
1.40606e-07
-1.24805e-07
9.09524e-08
-1.56789e-07
-3.34969e-09
-1.06555e-07
-9.21067e-08
-3.43054e-09
-1.29742e-07
9.71555e-08
-9.85525e-08
1.43163e-07
-1.71425e-08
1.12821e-07
7.01146e-08
2.5009e-08
1.17049e-07
-7.19198e-08
1.00291e-07
-1.26652e-07
3.12926e-08
-1.12288e-07
-5.08002e-08
-3.98575e-08
-1.01356e-07
4.91651e-08
-9.49619e-08
1.06659e-07
-3.8628e-08
1.04316e-07
3.38125e-08
4.78979e-08
8.21763e-08
-2.82402e-08
8.2757e-08
-8.21751e-08
4.00442e-08
-8.80878e-08
-1.85993e-08
-4.87904e-08
-6.01577e-08
9.22761e-09
-6.39221e-08
5.35066e-08
-2.93469e-08
6.39647e-08
1.92323e-08
4.02113e-08
5.0386e-08
-5.56794e-09
-3.83095e-08
3.80265e-08
-5.58147e-08
-1.91112e-08
-1.0545e-08
-7.41779e-08
5.95796e-08
-8.29922e-08
9.7129e-08
-2.33577e-08
7.51448e-08
7.11183e-08
-6.31668e-09
1.36333e-07
-1.03952e-07
1.19113e-07
-1.52975e-07
1.71284e-08
-1.10055e-07
-1.12777e-07
1.22077e-08
-1.86848e-07
1.45452e-07
-1.48893e-07
2.04469e-07
-1.11753e-08
1.42198e-07
1.47294e-07
-1.50714e-08
2.27104e-07
-1.77683e-07
1.71609e-07
-2.4482e-07
6.30766e-09
-1.67873e-07
-1.72537e-07
1.53636e-08
-2.55189e-07
1.9924e-07
-1.86765e-07
2.7246e-07
-3.43834e-09
1.86469e-07
1.87192e-07
-1.25927e-08
2.70557e-07
-2.09251e-07
1.94962e-07
-2.86995e-07
3.68456e-09
-1.98293e-07
-1.90604e-07
6.30771e-09
-2.73506e-07
2.0779e-07
-1.97118e-07
2.89191e-07
-7.73414e-09
2.04334e-07
1.83102e-07
4.01224e-09
2.65353e-07
-1.95293e-07
1.94641e-07
-2.80163e-07
1.58523e-08
-2.0546e-07
-1.65932e-07
-1.79471e-08
-2.48134e-07
1.73528e-07
-1.88917e-07
2.62104e-07
-2.78331e-08
2.02886e-07
1.4089e-07
3.50106e-08
2.24037e-07
-1.44435e-07
1.80996e-07
-2.3711e-07
4.25633e-08
-1.97375e-07
-1.10759e-07
-5.38256e-08
-1.95918e-07
1.10856e-07
-1.72072e-07
2.07815e-07
-5.90318e-08
1.89755e-07
7.79292e-08
7.30304e-08
1.65814e-07
-7.53907e-08
1.62331e-07
-1.76343e-07
7.5217e-08
-1.80283e-07
-4.55394e-08
-9.07559e-08
-1.36155e-07
4.09163e-08
-1.52182e-07
1.44817e-07
-8.95458e-08
1.69099e-07
1.58596e-08
1.05272e-07
1.08311e-07
-9.77774e-09
1.41182e-07
-1.14686e-07
1.00054e-07
-1.55926e-07
8.87522e-09
-1.14845e-07
-8.34325e-08
-1.5974e-08
-1.28833e-07
8.70865e-08
-1.0515e-07
1.40453e-07
-2.71527e-08
1.18187e-07
6.20085e-08
3.50995e-08
1.14518e-07
-6.23771e-08
1.0381e-07
-1.22064e-07
3.84739e-08
-1.14268e-07
-4.35719e-08
-4.69211e-08
-9.71049e-08
4.04818e-08
-9.5015e-08
1.00081e-07
-4.24638e-08
1.02368e-07
2.79976e-08
5.11601e-08
7.6589e-08
-2.11083e-08
7.9169e-08
-7.38291e-08
3.93874e-08
-8.15255e-08
-1.58306e-08
-4.63237e-08
-5.32052e-08
6.53123e-09
-5.22004e-08
4.52503e-08
-2.00586e-08
4.99561e-08
1.35497e-08
2.17313e-08
-1.1552e-08
8.91987e-08
-6.48969e-08
4.16211e-08
-5.78659e-08
-3.79315e-08
2.19479e-09
-1.05457e-07
7.50988e-08
-1.05123e-07
1.20075e-07
-2.68495e-08
9.4857e-08
8.71551e-08
-1.53338e-09
1.62254e-07
-1.17623e-07
1.39986e-07
-1.78036e-07
2.11652e-08
-1.33033e-07
-1.27452e-07
3.50265e-09
-2.11398e-07
1.55241e-07
-1.69243e-07
2.26984e-07
-1.62624e-08
1.65183e-07
1.59435e-07
-3.55981e-09
2.48799e-07
-1.83029e-07
1.90478e-07
-2.63438e-07
1.2453e-08
-1.89614e-07
-1.81342e-07
1.61725e-09
-2.73025e-07
1.99927e-07
-2.03566e-07
2.86477e-07
-1.07467e-08
2.06255e-07
1.92059e-07
3.03936e-09
2.83886e-07
-2.05175e-07
2.09374e-07
-2.95996e-07
1.22137e-08
-2.15629e-07
-1.91302e-07
-1.08118e-08
-2.82186e-07
1.99153e-07
-2.09172e-07
2.9315e-07
-1.75945e-08
2.18971e-07
1.79601e-07
2.21956e-08
2.69469e-07
-1.82544e-07
2.04408e-07
-2.79346e-07
2.68977e-08
-2.17262e-07
-1.58657e-07
-3.66461e-08
-2.48197e-07
1.57421e-07
-1.9667e-07
2.57069e-07
-3.98603e-08
2.11881e-07
1.30445e-07
5.36417e-08
2.20693e-07
-1.25864e-07
1.86939e-07
-2.28554e-07
5.51243e-08
-2.03612e-07
-9.8052e-08
-7.16986e-08
-1.89997e-07
9.09043e-08
-1.76436e-07
1.9659e-07
-7.15801e-08
1.93355e-07
6.39644e-08
8.94474e-08
1.58153e-07
-5.51691e-08
1.65249e-07
-1.63323e-07
8.70724e-08
-1.81362e-07
-3.14025e-08
-1.05017e-07
-1.27579e-07
2.1527e-08
-1.53725e-07
1.3086e-07
-9.99974e-08
1.67796e-07
2.58282e-09
1.16741e-07
9.95295e-08
7.77624e-09
1.41317e-07
-1.00567e-07
1.08387e-07
-1.52359e-07
2.03683e-08
-1.22967e-07
-7.50155e-08
-3.08286e-08
-1.2747e-07
7.34766e-08
-1.10743e-07
1.34752e-07
-3.61389e-08
1.22544e-07
5.43415e-08
4.65753e-08
1.11528e-07
-4.98193e-08
1.06163e-07
-1.14357e-07
4.43861e-08
-1.14537e-07
-3.7031e-08
-5.44387e-08
-9.25617e-08
2.94998e-08
-9.38701e-08
9.05274e-08
-4.47023e-08
9.8139e-08
2.3448e-08
5.37391e-08
7.12953e-08
-1.29643e-08
7.47578e-08
-6.3369e-08
3.74045e-08
-7.27122e-08
-1.39718e-08
-4.26781e-08
-4.78523e-08
2.45115e-09
-4.81229e-08
3.35546e-08
-2.70143e-08
3.77505e-08
1.98409e-08
9.36536e-08
-2.95164e-08
8.84739e-08
-7.3117e-08
3.21442e-08
-6.73971e-08
-6.04279e-08
-4.68305e-09
-1.30364e-07
8.61088e-08
-1.23516e-07
1.43016e-07
-2.93114e-08
1.15525e-07
1.01696e-07
5.1057e-09
1.85304e-07
-1.28425e-07
1.58393e-07
-2.00123e-07
2.49776e-08
-1.54489e-07
-1.39424e-07
-6.27199e-09
-2.31496e-07
1.61571e-07
-1.85954e-07
2.45314e-07
-2.09508e-08
1.85561e-07
1.68068e-07
8.54311e-09
2.64818e-07
-1.8469e-07
2.04783e-07
-2.77194e-07
1.80202e-08
-2.08042e-07
-1.86114e-07
-1.2331e-08
-2.84379e-07
1.96886e-07
-2.15209e-07
2.95272e-07
-1.73533e-08
2.22268e-07
1.9261e-07
1.85109e-08
2.90312e-07
-1.97523e-07
2.18307e-07
-2.99705e-07
1.99053e-08
-2.28939e-07
-1.87699e-07
-2.74133e-08
-2.83924e-07
1.87292e-07
-2.15674e-07
2.92021e-07
-2.64333e-08
2.29501e-07
1.72113e-07
3.94885e-08
2.66983e-07
-1.67096e-07
2.0875e-07
-2.73849e-07
3.66789e-08
-2.25012e-07
-1.47962e-07
-5.40643e-08
-2.42269e-07
1.39282e-07
-1.99259e-07
2.47944e-07
-5.02966e-08
2.16992e-07
1.17368e-07
7.05867e-08
2.12172e-07
-1.06036e-07
1.88057e-07
-2.16619e-07
6.57124e-08
-2.06196e-07
-8.36438e-08
-8.75022e-08
-1.79836e-07
7.04973e-08
-1.76359e-07
1.82754e-07
-8.17295e-08
1.93593e-07
4.92979e-08
1.03441e-07
1.47237e-07
-3.52852e-08
1.64119e-07
-1.48466e-07
9.6107e-08
-1.79405e-07
-1.75408e-08
-1.16559e-07
-1.16703e-07
3.20283e-09
-1.51601e-07
1.15811e-07
-1.07248e-07
1.63807e-07
-9.53153e-09
1.25284e-07
8.93167e-08
2.36483e-08
1.38158e-07
-8.6027e-08
1.13237e-07
-1.46475e-07
2.99685e-08
-1.28066e-07
-6.59196e-08
-4.35218e-08
-1.23202e-07
6.00357e-08
-1.12721e-07
1.27133e-07
-4.26932e-08
1.23896e-07
4.66552e-08
5.55341e-08
1.06101e-07
-3.79772e-08
1.04957e-07
-1.05193e-07
4.74567e-08
-1.11928e-07
-3.12048e-08
-5.91193e-08
-8.63075e-08
1.98961e-08
-8.9471e-08
8.02177e-08
-4.37022e-08
9.1383e-08
2.066e-08
5.32031e-08
6.55762e-08
-7.13842e-09
6.79145e-08
-5.36029e-08
3.16687e-08
-6.32621e-08
-1.80555e-08
-3.81833e-08
-4.9577e-08
3.94549e-10
-5.09639e-08
3.24019e-08
3.77911e-08
3.86398e-08
3.41673e-08
8.54641e-08
-3.90555e-08
9.2189e-08
-1.00356e-07
3.10873e-08
-9.22311e-08
-7.30597e-08
-1.21183e-08
-1.50998e-07
9.703e-08
-1.40134e-07
1.63999e-07
-3.2358e-08
1.35047e-07
1.13351e-07
1.34332e-08
2.04276e-07
-1.3473e-07
1.7385e-07
-2.16942e-07
2.90979e-08
-1.72816e-07
-1.47497e-07
-1.71207e-08
-2.46088e-07
1.62791e-07
-1.98815e-07
2.57058e-07
-2.59994e-08
2.01542e-07
1.71999e-07
2.11179e-08
2.74358e-07
-1.8099e-07
2.14667e-07
-2.8353e-07
2.40056e-08
-2.21158e-07
-1.85678e-07
-2.61966e-08
-2.88701e-07
1.885e-07
-2.2215e-07
2.96218e-07
-2.44146e-08
2.32355e-07
1.87755e-07
3.33486e-08
2.89538e-07
-1.84819e-07
2.22461e-07
-2.95533e-07
2.79972e-08
-2.35962e-07
-1.78824e-07
-4.28124e-08
-2.78659e-07
1.70962e-07
-2.17479e-07
2.83336e-07
-3.54822e-08
2.33621e-07
1.59812e-07
5.49955e-08
2.57982e-07
-1.47987e-07
2.08589e-07
-2.61423e-07
4.63548e-08
-2.2642e-07
-1.33171e-07
-6.90972e-08
-2.30538e-07
1.18475e-07
-1.97579e-07
2.32742e-07
-6.01813e-08
2.15968e-07
1.01125e-07
8.45609e-08
1.98717e-07
-8.46432e-08
1.85178e-07
-1.99624e-07
7.52219e-08
-2.02997e-07
-6.70896e-08
-9.97935e-08
-1.6565e-07
4.96534e-08
-1.72532e-07
1.64938e-07
-9.02255e-08
1.88477e-07
3.35421e-08
1.13462e-07
1.33206e-07
-1.60476e-08
1.59474e-07
-1.30721e-07
1.02933e-07
-1.72593e-07
-3.5819e-09
-1.23782e-07
-1.03552e-07
-1.35045e-08
-1.46182e-07
9.89166e-08
-1.11807e-07
1.55519e-07
-2.08809e-08
1.29313e-07
7.75684e-08
3.71033e-08
1.31934e-07
-7.05981e-08
1.15051e-07
-1.36905e-07
3.81223e-08
-1.28634e-07
-5.59279e-08
-5.31979e-08
-1.16164e-07
4.656e-08
-1.1151e-07
1.16505e-07
-4.73043e-08
1.20888e-07
3.86814e-08
6.10601e-08
9.83505e-08
-2.69072e-08
1.00625e-07
-9.38246e-08
4.81817e-08
-1.05337e-07
-2.58164e-08
-6.00741e-08
-7.84181e-08
1.19707e-08
-8.21768e-08
6.88563e-08
-3.9935e-08
8.15144e-08
1.91074e-08
4.90348e-08
5.85459e-08
-3.9553e-09
5.70098e-08
-4.47705e-08
1.90389e-08
-5.28564e-08
-2.54855e-08
-2.94545e-08
-4.72717e-08
1.01196e-08
3.3571e-08
-4.87111e-08
8.60437e-08
2.69332e-08
2.69105e-08
9.97001e-08
-6.89398e-08
1.12219e-07
-1.25819e-07
3.67078e-08
-1.10374e-07
-8.36785e-08
-1.80596e-08
-1.69232e-07
1.04329e-07
-1.54552e-07
1.80302e-07
-3.55061e-08
1.52166e-07
1.21676e-07
2.33986e-08
2.1816e-07
-1.35831e-07
1.85478e-07
-2.27594e-07
3.32093e-08
-1.8745e-07
-1.51407e-07
-2.90506e-08
-2.54584e-07
1.58466e-07
-2.07236e-07
2.61742e-07
-3.1029e-08
2.12953e-07
1.71331e-07
3.43562e-08
2.77283e-07
-1.71597e-07
2.1981e-07
-2.82283e-07
2.99681e-08
-2.2912e-07
-1.80492e-07
-4.03266e-08
-2.86283e-07
1.74535e-07
-2.24309e-07
2.89432e-07
-3.14191e-08
2.36939e-07
1.78285e-07
4.80099e-08
2.82254e-07
-1.66953e-07
2.2199e-07
-2.83833e-07
3.59161e-08
-2.37343e-07
-1.65755e-07
-5.75275e-08
-2.67398e-07
1.5014e-07
-2.14929e-07
2.67632e-07
-4.41191e-08
2.32128e-07
1.43992e-07
6.92497e-08
2.43725e-07
-1.25289e-07
2.04395e-07
-2.42727e-07
5.52813e-08
-2.22352e-07
-1.15719e-07
-8.22949e-08
-2.14419e-07
9.51079e-08
-1.92205e-07
2.12173e-07
-6.88875e-08
2.09708e-07
8.31838e-08
9.61052e-08
1.81796e-07
-6.18017e-08
1.78935e-07
-1.78257e-07
8.30864e-08
-1.94874e-07
-4.98174e-08
-1.09104e-07
-1.48906e-07
2.84579e-08
-1.65637e-07
1.43772e-07
-9.66118e-08
1.78808e-07
1.79939e-08
1.20039e-07
1.17445e-07
2.52875e-09
1.52028e-07
-1.10608e-07
1.07243e-07
-1.61646e-07
9.37534e-09
-1.27222e-07
-8.93812e-08
-2.86847e-08
-1.38211e-07
8.05564e-08
-1.13562e-07
1.43565e-07
-3.06147e-08
1.29387e-07
6.5385e-08
4.83522e-08
1.23428e-07
-5.45134e-08
1.13929e-07
-1.24207e-07
4.4246e-08
-1.25269e-07
-4.59844e-08
-6.01917e-08
-1.07187e-07
3.31604e-08
-1.07429e-07
1.03384e-07
-4.96403e-08
1.1418e-07
3.12209e-08
6.36059e-08
8.91454e-08
-1.66293e-08
9.36775e-08
-8.07753e-08
4.65036e-08
-9.55506e-08
-2.13836e-08
-5.79391e-08
-6.95683e-08
5.60703e-09
-7.25964e-08
5.69773e-08
-3.40451e-08
6.95173e-08
1.77359e-08
4.22497e-08
4.88835e-08
-2.62205e-09
4.16063e-08
-3.56696e-08
8.2311e-09
-3.8827e-08
-2.08947e-08
-1.39782e-08
1.28423e-08
-1.15617e-07
8.88355e-08
-5.4373e-08
8.17211e-08
4.50101e-08
1.01992e-08
1.28307e-07
-7.78894e-08
1.29453e-07
-1.39549e-07
3.92099e-08
-1.24934e-07
-9.30004e-08
-2.61494e-08
-1.82911e-07
1.06388e-07
-1.64952e-07
1.90839e-07
-3.8355e-08
1.65868e-07
1.25937e-07
3.42973e-08
2.25808e-07
-1.31856e-07
1.92369e-07
-2.31622e-07
3.702e-08
-1.97579e-07
-1.50795e-07
-4.12368e-08
-2.56241e-07
1.49123e-07
-2.1048e-07
2.59398e-07
-3.56401e-08
2.19304e-07
1.66002e-07
4.74117e-08
2.73153e-07
-1.57377e-07
2.19615e-07
-2.73939e-07
3.53987e-08
-2.31742e-07
-1.70783e-07
-5.38631e-08
-2.76981e-07
1.5616e-07
-2.21214e-07
2.75804e-07
-3.77334e-08
2.36116e-07
1.64725e-07
6.16391e-08
2.68594e-07
-1.45329e-07
2.16525e-07
-2.65833e-07
4.29142e-08
-2.33414e-07
-1.49265e-07
-7.07402e-08
-2.50509e-07
1.26402e-07
-2.07724e-07
2.46389e-07
-5.1505e-08
2.25538e-07
1.25633e-07
8.15102e-08
2.24775e-07
-1.00651e-07
1.9596e-07
-2.19412e-07
6.25627e-08
-2.13514e-07
-9.67057e-08
-9.30091e-08
-1.94592e-07
7.08283e-08
-1.82992e-07
1.87961e-07
-7.55089e-08
1.99049e-07
6.47081e-08
1.04715e-07
1.6217e-07
-3.90609e-08
1.69247e-07
-1.5424e-07
8.84394e-08
-1.8277e-07
-3.2977e-08
-1.15106e-07
-1.30383e-07
8.28773e-09
-1.55655e-07
1.20897e-07
-1.00111e-07
1.65602e-07
3.72231e-09
1.23044e-07
1.00718e-07
1.93022e-08
1.41837e-07
-8.96359e-08
1.08404e-07
-1.47637e-07
2.03962e-08
-1.2698e-07
-7.49077e-08
-4.14717e-08
-1.2783e-07
6.20689e-08
-1.12057e-07
1.29054e-07
-3.7973e-08
1.25838e-07
5.34212e-08
5.68231e-08
1.12882e-07
-3.89263e-08
1.09631e-07
-1.09518e-07
4.77752e-08
-1.18534e-07
-3.6684e-08
-6.42306e-08
-9.66232e-08
2.07913e-08
-1.00452e-07
8.89265e-08
-4.93425e-08
1.04561e-07
2.47753e-08
6.32068e-08
7.89011e-08
-7.88159e-09
8.43128e-08
-6.72062e-08
4.24182e-08
-8.36107e-08
-1.80503e-08
-5.31694e-08
-6.0102e-08
1.12382e-09
-6.15098e-08
4.55292e-08
-2.73231e-08
5.66573e-08
1.56297e-08
3.42756e-08
3.86013e-08
-1.29248e-09
3.18043e-08
-2.4993e-08
1.10964e-08
-2.54245e-08
-9.77675e-09
-1.1842e-07
3.60046e-08
-1.073e-07
8.66787e-08
-3.91938e-08
8.5073e-08
6.64167e-08
2.18042e-08
1.43981e-07
-7.74543e-08
1.3832e-07
-1.49434e-07
4.00632e-08
-1.37726e-07
-9.81472e-08
-3.55958e-08
-1.90128e-07
1.03557e-07
-1.70627e-07
1.9491e-07
-4.10472e-08
1.74915e-07
1.2557e-07
4.50667e-08
2.26606e-07
-1.23203e-07
1.94137e-07
-2.28637e-07
4.04851e-08
-2.02256e-07
-1.45447e-07
-5.26313e-08
-2.5078e-07
1.35425e-07
-2.08369e-07
2.49991e-07
-3.97847e-08
2.19864e-07
1.56002e-07
5.91848e-08
2.61971e-07
-1.39274e-07
2.1409e-07
-2.58802e-07
4.02299e-08
-2.28491e-07
-1.56744e-07
-6.56572e-08
-2.61046e-07
1.34577e-07
-2.13007e-07
2.55948e-07
-4.32363e-08
2.29541e-07
1.47459e-07
7.30669e-08
2.49016e-07
-1.21351e-07
2.063e-07
-2.42406e-07
4.88077e-08
-2.24011e-07
-1.29899e-07
-8.12991e-08
-2.28598e-07
1.01283e-07
-1.96162e-07
2.20679e-07
-5.74013e-08
2.13861e-07
1.05383e-07
9.06837e-08
2.01804e-07
-7.56639e-08
1.83591e-07
-1.92673e-07
6.79248e-08
-2.0006e-07
-7.68341e-08
-1.00259e-07
-1.71773e-07
4.72028e-08
-1.70246e-07
1.61388e-07
-7.97652e-08
1.84282e-07
4.63858e-08
1.09559e-07
1.40525e-07
-1.78921e-08
1.56404e-07
-1.28869e-07
9.10287e-08
-1.67106e-07
-1.7188e-08
-1.17158e-07
-1.10696e-07
-9.54266e-09
-1.42861e-07
9.75694e-08
-1.00537e-07
1.49394e-07
-8.77064e-09
1.22058e-07
8.35411e-08
3.31654e-08
1.29163e-07
-6.89774e-08
1.06326e-07
-1.31196e-07
2.91284e-08
-1.22868e-07
-6.05441e-08
-5.10016e-08
-1.15316e-07
4.45152e-08
-1.07332e-07
1.12705e-07
-4.27707e-08
1.18715e-07
4.199e-08
6.19134e-08
1.00604e-07
-2.47604e-08
1.02335e-07
-9.36298e-08
4.86954e-08
-1.08716e-07
-2.8238e-08
-6.49858e-08
-8.48034e-08
1.02262e-08
-9.08996e-08
7.39794e-08
-4.65899e-08
9.25641e-08
1.93999e-08
5.98519e-08
6.7931e-08
-1.20531e-09
7.30432e-08
-5.39567e-08
3.64453e-08
-7.03241e-08
-1.56286e-08
-4.62421e-08
-5.05048e-08
-1.43705e-09
-4.9922e-08
3.51713e-08
-2.0124e-08
4.42522e-08
1.57576e-08
2.68118e-08
3.42335e-08
-1.16069e-10
3.09639e-08
-2.0048e-08
-2.13766e-08
-5.34175e-08
-4.09074e-08
-9.75035e-08
3.65961e-08
-9.92451e-08
1.0513e-07
-3.38599e-08
1.05597e-07
7.1411e-08
3.27386e-08
1.49949e-07
-7.61664e-08
1.42632e-07
-1.54247e-07
4.16358e-08
-1.45874e-07
-9.83919e-08
-4.46882e-08
-1.90765e-07
9.60293e-08
-1.71527e-07
1.91635e-07
-4.34704e-08
1.78021e-07
1.20707e-07
5.46592e-08
2.20646e-07
-1.10244e-07
1.90769e-07
-2.18243e-07
4.34256e-08
-2.00568e-07
-1.35719e-07
-6.22612e-08
-2.38619e-07
1.17947e-07
-2.01148e-07
2.33446e-07
-4.33155e-08
2.13952e-07
1.41897e-07
6.87111e-08
2.44472e-07
-1.18075e-07
2.03701e-07
-2.37094e-07
4.43181e-08
-2.18894e-07
-1.39134e-07
-7.4752e-08
-2.39464e-07
1.10756e-07
-2.00313e-07
2.30345e-07
-4.77688e-08
2.16929e-07
1.27396e-07
8.13582e-08
2.24683e-07
-9.6132e-08
1.92037e-07
-2.14255e-07
5.34258e-08
-2.09024e-07
-1.08651e-07
-8.83192e-08
-2.02915e-07
7.59773e-08
-1.81012e-07
1.91357e-07
-6.16447e-08
1.9714e-07
8.42465e-08
9.59645e-08
1.7608e-07
-5.1541e-08
1.68071e-07
-1.63474e-07
7.12365e-08
-1.82165e-07
-5.70503e-08
-1.03349e-07
-1.4716e-07
2.54021e-08
-1.54732e-07
1.33451e-07
-8.15896e-08
1.65707e-07
2.90395e-08
1.10089e-07
1.17941e-07
6.38044e-10
1.41142e-07
-1.03125e-07
9.0878e-08
-1.48267e-07
-3.09925e-09
-1.14873e-07
-9.07737e-08
-2.41246e-08
-1.27959e-07
7.47146e-08
-9.80356e-08
1.30649e-07
-1.90482e-08
1.1688e-07
6.6664e-08
4.34068e-08
1.14678e-07
-4.94678e-08
1.0129e-07
-1.12864e-07
3.53606e-08
-1.14889e-07
-4.68615e-08
-5.67882e-08
-1.01316e-07
2.8607e-08
-9.98099e-08
9.51127e-08
-4.50185e-08
1.08233e-07
3.14919e-08
6.33831e-08
8.72193e-08
-1.25852e-08
9.2602e-08
-7.71753e-08
4.72308e-08
-9.6238e-08
-2.08712e-08
-6.24806e-08
-7.23091e-08
1.85494e-09
-7.94508e-08
5.91901e-08
-4.18455e-08
7.88287e-08
1.50786e-08
5.38943e-08
5.67163e-08
3.29277e-09
6.06527e-08
-4.15992e-08
2.92662e-08
-5.65388e-08
-1.39357e-08
-3.79213e-08
-4.09881e-08
-2.32494e-09
-3.7633e-08
2.64221e-08
-1.02258e-08
3.30911e-08
1.8757e-08
1.87896e-08
3.09637e-08
-5.04188e-09
-1.85205e-08
3.9509e-08
-9.2916e-08
-3.21007e-08
-3.47943e-08
-9.82109e-08
5.85013e-08
-1.07862e-07
1.17207e-07
-3.81874e-08
1.13564e-07
7.14123e-08
3.95987e-08
1.51021e-07
-6.99693e-08
1.43282e-07
-1.50826e-07
4.29865e-08
-1.47807e-07
-9.46625e-08
-5.30165e-08
-1.8509e-07
8.34545e-08
-1.67276e-07
1.80301e-07
-4.48944e-08
1.74518e-07
1.12084e-07
6.27488e-08
2.08341e-07
-9.28953e-08
1.82149e-07
-2.00088e-07
4.51903e-08
-1.9212e-07
-1.22541e-07
-6.98582e-08
-2.20515e-07
9.67771e-08
-1.88958e-07
2.09689e-07
-4.55918e-08
2.01378e-07
1.24846e-07
7.57279e-08
2.21729e-07
-9.40589e-08
1.88797e-07
-2.09009e-07
4.70197e-08
-2.02936e-07
-1.19292e-07
-8.08748e-08
-2.13532e-07
8.51456e-08
-1.83627e-07
1.99401e-07
-5.06954e-08
1.984e-07
1.05981e-07
8.62286e-08
1.97026e-07
-7.02498e-08
1.74339e-07
-1.81937e-07
5.61686e-08
-1.88674e-07
-8.69931e-08
-9.15172e-08
-1.74962e-07
5.11414e-08
-1.62953e-07
1.59091e-07
-6.37074e-08
1.75665e-07
6.36381e-08
9.70904e-08
1.49088e-07
-2.8957e-08
1.50122e-07
-1.32521e-07
7.20787e-08
-1.60168e-07
-3.86376e-08
-1.02064e-07
-1.22156e-07
6.06315e-09
-1.37204e-07
1.04843e-07
-8.07033e-08
1.43687e-07
1.37572e-08
1.06158e-07
9.5684e-08
1.59855e-08
1.24225e-07
-7.76502e-08
8.78814e-08
-1.26646e-07
8.44065e-09
-1.08218e-07
-7.17107e-08
-3.50481e-08
-1.11716e-07
5.2884e-08
-9.26905e-08
1.09784e-07
-2.65302e-08
1.07604e-07
5.09909e-08
4.97809e-08
9.91535e-08
-3.15518e-08
9.35743e-08
-9.30801e-08
3.87878e-08
-1.03288e-07
-3.45669e-08
-5.87741e-08
-8.65891e-08
1.4682e-08
-8.99499e-08
7.67555e-08
-4.46756e-08
9.48023e-08
2.2436e-08
6.13793e-08
7.3459e-08
-2.61552e-09
8.10448e-08
-6.06709e-08
4.35982e-08
-8.16906e-08
-1.48613e-08
-5.70945e-08
-5.97901e-08
-4.27021e-09
-6.68444e-08
4.50707e-08
-3.56112e-08
6.41198e-08
1.178e-08
4.59931e-08
4.57282e-08
5.81135e-09
4.79136e-08
-3.05436e-08
2.1646e-08
-4.30955e-08
-1.23236e-08
-2.90322e-08
-3.09519e-08
-1.97211e-09
-2.40127e-08
1.89474e-08
-1.69347e-09
2.1932e-08
1.61271e-08
8.02516e-09
-7.24617e-09
1.04315e-07
-8.80585e-08
4.52193e-08
-7.88524e-08
-4.17899e-08
-1.89831e-08
-1.11892e-07
5.35459e-08
-1.12424e-07
1.11564e-07
-3.86901e-08
1.14352e-07
6.96648e-08
4.76613e-08
1.46178e-07
-5.75029e-08
1.38188e-07
-1.39569e-07
4.26152e-08
-1.44206e-07
-8.74507e-08
-6.09009e-08
-1.72719e-07
6.60994e-08
-1.56989e-07
1.61684e-07
-4.43851e-08
1.65308e-07
1.00278e-07
6.98248e-08
1.89691e-07
-7.14525e-08
1.67709e-07
-1.75172e-07
4.48895e-08
-1.78069e-07
-1.06723e-07
-7.60234e-08
-1.96798e-07
7.22956e-08
-1.71442e-07
1.79921e-07
-4.56935e-08
1.8347e-07
1.05895e-07
8.08765e-08
1.94345e-07
-6.76926e-08
1.6919e-07
-1.75871e-07
4.73883e-08
-1.82037e-07
-9.84451e-08
-8.46821e-08
-1.84084e-07
5.8251e-08
-1.62897e-07
1.64491e-07
-5.1069e-08
1.75387e-07
8.45516e-08
8.83403e-08
1.67031e-07
-4.41915e-08
1.53264e-07
-1.4679e-07
5.61242e-08
-1.64357e-07
-6.63001e-08
-9.15611e-08
-1.45801e-07
2.71855e-08
-1.42135e-07
1.25095e-07
-6.2756e-08
1.50744e-07
4.48943e-08
9.47474e-08
1.21908e-07
-8.19396e-09
1.29974e-07
-1.00851e-07
6.97366e-08
-1.35263e-07
-2.28224e-08
-9.71127e-08
-9.78011e-08
-1.06955e-08
-1.1796e-07
7.63956e-08
-7.65523e-08
1.19289e-07
1.59406e-09
9.85147e-08
7.47133e-08
2.82198e-08
1.0601e-07
-5.30452e-08
8.16722e-08
-1.03181e-07
1.65915e-08
-9.79873e-08
-5.43494e-08
-4.25761e-08
-9.45566e-08
3.24604e-08
-8.43477e-08
8.76186e-08
-3.06238e-08
9.50764e-08
3.7225e-08
5.27329e-08
8.30659e-08
-1.54142e-08
8.32457e-08
-7.25662e-08