/*--------------------------------*- C++ -*----------------------------------*\
| =========                 |                                                 |
| \\      /  F ield         | OpenFOAM: The Open Source CFD Toolbox           |
|  \\    /   O peration     | Version:  2412                                  |
|   \\  /    A nd           | Website:  www.openfoam.com                      |
|    \\/     M anipulation  |                                                 |
\*---------------------------------------------------------------------------*/
FoamFile
{
    version     2.0;
    format      ascii;
    arch        "LSB;label=32;scalar=64";
    class       surfaceScalarField;
    location    "0.45";
    object      phi;
}
// * * * * * * * * * * * * * * * * * * * * * * * * * * * * * * * * * * * * * //

dimensions      [0 3 -1 0 0 0 0];

oriented        oriented;

internalField   nonuniform List<scalar> 
12640
(
1.01782e-10
-8.47765e-11
2.09635e-10
-5.7456e-11
3.00401e-10
-6.33955e-11
4.06346e-10
-8.87308e-11
4.4353e-10
-9.35238e-11
5.29912e-10
-5.59872e-11
5.91352e-10
-2.21243e-11
6.00721e-10
-2.31356e-12
5.76982e-10
1.40625e-11
5.34647e-10
3.52737e-11
4.76233e-10
6.19883e-11
3.98337e-10
8.99732e-11
2.97121e-10
1.14244e-10
1.71696e-10
1.31477e-10
2.54475e-11
1.40418e-10
-1.34303e-10
1.41298e-10
-2.97664e-10
1.35011e-10
-4.539e-10
1.22592e-10
-5.92863e-10
1.05013e-10
-7.05814e-10
8.31704e-11
-7.85688e-10
5.78999e-11
-8.27102e-10
3.00243e-11
-8.26344e-10
4.40696e-13
-7.81497e-10
-2.97817e-11
-6.92671e-10
-5.9382e-11
-5.62254e-10
-8.69805e-11
-3.95014e-10
-1.11204e-10
-1.97979e-10
-1.308e-10
1.99469e-11
-1.44718e-10
2.48588e-10
-1.52193e-10
4.77182e-10
-1.52785e-10
6.95134e-10
-1.46478e-10
8.92686e-10
-1.33647e-10
1.06148e-09
-1.15008e-10
1.19494e-09
-9.14834e-11
1.28845e-09
-6.41182e-11
1.33931e-09
-3.39178e-11
1.34648e-09
-1.82026e-12
1.31024e-09
3.13036e-11
1.23187e-09
6.46116e-11
1.11338e-09
9.72377e-11
9.57377e-10
1.28255e-10
7.67112e-10
1.56657e-10
5.46578e-10
1.81374e-10
3.00686e-10
2.01303e-10
3.54223e-11
2.15368e-10
-2.42043e-10
2.22586e-10
-5.23377e-10
2.22164e-10
-7.99232e-10
2.13589e-10
-1.05954e-09
1.9669e-10
-1.29398e-09
1.71748e-10
-1.4926e-09
1.39484e-10
-1.64637e-09
1.01047e-10
-1.74786e-09
5.79541e-11
-1.79173e-09
1.19974e-11
-1.77509e-09
-3.48658e-11
-1.69779e-09
-8.06394e-11
-1.56241e-09
-1.23401e-10
-1.37419e-09
-1.61424e-10
-1.14083e-09
-1.93259e-10
-8.72106e-10
-2.17821e-10
-5.79453e-10
-2.34398e-10
-2.75334e-10
-2.42702e-10
2.73588e-11
-2.42756e-10
3.16055e-10
-2.34933e-10
5.79233e-10
-2.19859e-10
8.07217e-10
-1.98449e-10
9.92791e-10
-1.71743e-10
1.13174e-09
-1.40867e-10
1.22281e-09
-1.06589e-10
1.26705e-09
-6.91838e-11
1.26607e-09
-2.84311e-11
1.22015e-09
1.49163e-11
1.12707e-09
5.71928e-11
9.83894e-10
9.13776e-11
7.92397e-10
1.13513e-10
5.74965e-10
1.26793e-10
3.92109e-10
1.23461e-10
2.53104e-10
1.06171e-10
1.7098e-10
-1.90593e-11
-1.1727e-10
3.11859e-11
-4.29981e-11
1.12604e-12
-6.78208e-11
6.41508e-11
-4.75888e-11
9.82356e-11
-2.96722e-11
1.71728e-10
-1.63151e-11
2.35416e-10
-7.81982e-12
2.80771e-10
7.62627e-14
3.27637e-10
1.3629e-11
3.84647e-10
3.51829e-11
4.47176e-10
6.22453e-11
5.04437e-10
9.00747e-11
5.45196e-10
1.14449e-10
5.61695e-10
1.32969e-10
5.51366e-10
1.45185e-10
5.16648e-10
1.5206e-10
4.63503e-10
1.55111e-10
3.99351e-10
1.55604e-10
3.31202e-10
1.54207e-10
2.64652e-10
1.51092e-10
2.03768e-10
1.46248e-10
1.51427e-10
1.39737e-10
1.09574e-10
1.31806e-10
7.92025e-11
1.22884e-10
6.0172e-11
1.13516e-10
5.1082e-11
1.04301e-10
4.93626e-11
9.58319e-11
5.16028e-11
8.86353e-11
5.39763e-11
8.31634e-11
5.27246e-11
7.96771e-11
4.46017e-11
7.81833e-11
2.72156e-11
7.83726e-11
-6.845e-13
7.96492e-11
-3.90356e-11
8.12311e-11
-8.64175e-11
8.23065e-11
-1.40243e-10
8.2181e-11
-1.97094e-10
8.04008e-11
-2.53224e-10
7.67898e-11
-3.05106e-10
7.1425e-11
-3.49908e-10
6.45641e-11
-3.85815e-10
5.65525e-11
-4.12147e-10
4.77289e-11
-4.29287e-10
3.83431e-11
-4.38444e-10
2.84935e-11
-4.41314e-10
1.80923e-11
-4.39708e-10
6.86899e-12
-4.35156e-10
-5.62428e-12
-4.28614e-10
-1.98814e-11
-4.20248e-10
-3.63773e-11
-4.09387e-10
-5.54553e-11
-3.94563e-10
-7.72283e-11
-3.7377e-10
-1.01472e-10
-3.44736e-10
-1.27678e-10
-3.05274e-10
-1.55028e-10
-2.53617e-10
-1.82462e-10
-1.88712e-10
-2.08786e-10
-1.1047e-10
-2.32778e-10
-1.99419e-11
-2.5333e-10
8.05472e-11
-2.69549e-10
1.87405e-10
-2.80873e-10
2.95855e-10
-2.87079e-10
4.00247e-10
-2.88298e-10
4.94423e-10
-2.84892e-10
5.72356e-10
-2.77395e-10
6.2874e-10
-2.66328e-10
6.59779e-10
-2.52238e-10
6.63808e-10
-2.35604e-10
6.42094e-10
-2.17032e-10
5.99055e-10
-1.97099e-10
5.41998e-10
-1.76279e-10
4.79016e-10
-1.54295e-10
4.15516e-10
-1.30117e-10
3.50229e-10
-1.02982e-10
2.76292e-10
-7.62315e-11
1.90341e-10
-6.08737e-11
1.00591e-10
-6.9393e-11
1.67611e-11
-9.36405e-11
-3.13422e-11
-1.16921e-10
2.03199e-11
-1.46861e-10
2.08697e-11
-5.38796e-11
-8.33486e-11
-6.19035e-11
6.19388e-11
-1.04797e-10
2.00209e-11
-9.86518e-11
1.33659e-11
-1.06526e-10
1.6013e-11
-7.68082e-11
1.04595e-11
-4.96684e-11
3.6247e-12
-2.72539e-11
2.27591e-12
6.54332e-12
9.73835e-12
5.51462e-11
2.58054e-11
1.11448e-10
4.7186e-11
1.6472e-10
6.94237e-11
2.04911e-10
8.91576e-11
2.25525e-10
1.0506e-10
2.24868e-10
1.17498e-10
2.05586e-10
1.27723e-10
1.73163e-10
1.37067e-10
1.34111e-10
1.46359e-10
9.43818e-11
1.5582e-10
5.84957e-11
1.65298e-10
2.94331e-11
1.74616e-10
8.94779e-12
1.83712e-10
-2.16774e-12
1.92604e-10
-4.02585e-12
2.01241e-10
2.28565e-12
2.09426e-10
1.47161e-11
2.16825e-10
3.0422e-11
2.23058e-10
4.61968e-11
2.27639e-10
5.87687e-11
2.30207e-10
6.52334e-11
2.30281e-10
6.33337e-11
2.27332e-10
5.16805e-11
2.20763e-10
2.99165e-11
2.09976e-10
-1.20539e-12
1.94497e-10
-3.98648e-11
1.741e-10
-8.3377e-11
1.48906e-10
-1.28531e-10
1.19411e-10
-1.72016e-10
8.64437e-11
-2.10856e-10
5.10751e-11
-2.42753e-10
1.4494e-11
-2.66295e-10
-2.21101e-11
-2.81002e-10
-5.76513e-11
-2.87237e-10
-9.12271e-11
-2.86017e-10
-1.22173e-10
-2.78761e-10
-1.5009e-10
-2.67008e-10
-1.74839e-10
-2.52174e-10
-1.96511e-10
-2.35297e-10
-2.15346e-10
-2.16885e-10
-2.31673e-10
-1.96856e-10
-2.45813e-10
-1.74568e-10
-2.58026e-10
-1.48924e-10
-2.68435e-10
-1.18571e-10
-2.77054e-10
-8.21101e-11
-2.83766e-10
-3.83044e-11
-2.88367e-10
1.36832e-11
-2.90613e-10
7.40815e-11
-2.90307e-10
1.42279e-10
-2.87363e-10
2.16671e-10
-2.81909e-10
2.94533e-10
-2.74296e-10
3.72099e-10
-2.65121e-10
4.44716e-10
-2.55087e-10
5.07271e-10
-2.44933e-10
5.54629e-10
-2.35193e-10
5.82322e-10
-2.26192e-10
5.87104e-10
-2.17923e-10
5.67816e-10
-2.10307e-10
5.2605e-10
-2.03246e-10
4.66956e-10
-1.96947e-10
3.9887e-10
-1.91688e-10
3.3129e-10
-1.87693e-10
2.69628e-10
-1.84562e-10
2.09228e-10
-1.81263e-10
1.35621e-10
-1.76074e-10
4.43652e-11
-1.68128e-10
-3.16528e-11
-1.61676e-10
-6.32722e-11
-1.70462e-10
-9.54196e-11
-2.18767e-10
2.50136e-11
-3.071e-10
-1.20585e-10
2.36653e-12
-5.2975e-11
-7.38047e-11
1.02003e-10
-1.09287e-10
6.43377e-11
-1.09908e-10
5.49314e-11
-1.24986e-10
5.44315e-11
-1.06637e-10
4.13248e-11
-9.01009e-11
2.91555e-11
-7.49782e-11
2.62622e-11
-4.76912e-11
3.29673e-11
-8.62057e-12
4.64291e-11
3.34787e-11
6.27164e-11
6.90899e-11
7.78887e-11
9.07631e-11
8.92932e-11
9.44396e-11
9.62007e-11
7.99956e-11
9.94074e-11
5.0662e-11
1.0052e-10
1.18123e-11
1.01211e-10
-3.04375e-11
1.02775e-10
-7.03732e-11
1.05915e-10
-1.0345e-10
1.10881e-10
-1.26497e-10
1.17675e-10
-1.37615e-10
1.26213e-10
-1.35998e-10
1.36289e-10
-1.21901e-10
1.47523e-10
-9.66448e-11
1.59299e-10
-6.25889e-11
1.70865e-10
-2.29092e-11
1.81421e-10
1.86503e-11
1.90187e-10
5.82608e-11
1.96477e-10
9.23113e-11
1.99652e-10
1.17763e-10
1.99111e-10
1.32434e-10
1.94303e-10
1.35218e-10
1.84779e-10
1.26193e-10
1.70272e-10
1.06578e-10
1.50766e-10
7.85219e-11
1.26536e-10
4.4743e-11
9.8136e-11
8.10627e-12
6.63447e-11
-2.87838e-11
3.20918e-11
-6.3889e-11
-3.62269e-12
-9.58997e-11
-3.97958e-11
-1.24248e-10
-7.54763e-11
-1.48998e-10
-1.09807e-10
-1.70655e-10
-1.42058e-10
-1.89924e-10
-1.71654e-10
-2.07465e-10
-1.98186e-10
-2.23654e-10
-2.21417e-10
-2.38444e-10
-2.41211e-10
-2.51203e-10
-2.57607e-10
-2.6076e-10
-2.70674e-10
-2.6548e-10
-2.80543e-10
-2.63451e-10
-2.87324e-10
-2.52659e-10
-2.91184e-10
-2.31244e-10
-2.92232e-10
-1.9772e-10
-2.90572e-10
-1.51189e-10
-2.86307e-10
-9.15685e-11
-2.79567e-10
-1.97687e-11
-2.7058e-10
6.21465e-11
-2.59708e-10
1.50963e-10
-2.47514e-10
2.42367e-10
-2.3469e-10
3.31276e-10
-2.2202e-10
4.12132e-10
-2.10151e-10
4.79469e-10
-1.99534e-10
5.28293e-10
-1.90216e-10
5.54763e-10
-1.82041e-10
5.56715e-10
-1.74707e-10
5.34725e-10
-1.6821e-10
4.92827e-10
-1.62769e-10
4.38846e-10
-1.58882e-10
3.8217e-10
-1.56976e-10
3.28874e-10
-1.58258e-10
2.75156e-10
-1.66147e-10
2.06448e-10
-1.86122e-10
1.13583e-10
-2.17607e-10
2.6334e-11
-2.44926e-10
-1.59608e-11
-2.60761e-10
-9.24727e-11
-3.11976e-10
6.13454e-11
-3.86735e-10
-1.90047e-10
2.76247e-11
1.03739e-11
-6.15361e-11
1.83093e-10
-9.55688e-11
1.37986e-10
-9.65193e-11
1.24465e-10
-1.09663e-10
1.19961e-10
-9.11421e-11
9.89909e-11
-7.30749e-11
8.01112e-11
-5.46499e-11
7.4098e-11
-2.40768e-11
7.90459e-11
1.6159e-11
8.95608e-11
5.61966e-11
1.01015e-10
8.71944e-11
1.10067e-10
1.03342e-10
1.14904e-10
1.02109e-10
1.1527e-10
8.41623e-11
1.12152e-10
5.28363e-11
1.07068e-10
1.30217e-11
1.01622e-10
-2.98541e-11
9.71345e-11
-7.06874e-11
9.45518e-11
-1.05198e-10
9.43832e-11
-1.30221e-10
9.68396e-11
-1.43711e-10
1.01888e-10
-1.44706e-10
1.09258e-10
-1.33318e-10
1.18416e-10
-1.10758e-10
1.2852e-10
-7.92724e-11
1.38505e-10
-4.19818e-11
1.47201e-10
-2.60206e-12
1.53446e-10
3.49364e-11
1.56181e-10
6.6866e-11
1.54502e-10
8.99592e-11
1.47709e-10
1.01874e-10
1.35362e-10
1.01419e-10
1.17342e-10
8.86845e-11
9.39013e-11
6.4996e-11
6.56605e-11
3.26686e-11
3.35564e-11
-5.38234e-12
-1.26335e-12
-4.61028e-11
-3.75701e-11
-8.67309e-11
-7.41782e-11
-1.25121e-10
-1.10038e-10
-1.59914e-10
-1.44289e-10
-1.90556e-10
-1.76267e-10
-2.17181e-10
-2.0549e-10
-2.40399e-10
-2.3163e-10
-2.61037e-10
-2.54472e-10
-2.7985e-10
-2.73887e-10
-2.97282e-10
-2.89798e-10
-3.13223e-10
-3.02167e-10
-3.26973e-10
-3.10992e-10
-3.37212e-10
-3.16299e-10
-3.42134e-10
-3.1817e-10
-3.39619e-10
-3.16744e-10
-3.27513e-10
-3.12261e-10
-3.03858e-10
-3.05024e-10
-2.67136e-10
-2.95427e-10
-2.16533e-10
-2.83925e-10
-1.52137e-10
-2.71065e-10
-7.51491e-11
-2.57482e-10
1.20627e-11
-2.43943e-10
1.05953e-10
-2.31281e-10
2.0206e-10
-2.20373e-10
2.95247e-10
-2.11921e-10
3.80202e-10
-2.06373e-10
4.517e-10
-2.03642e-10
5.05081e-10
-2.03212e-10
5.3645e-10
-2.04137e-10
5.43471e-10
-2.05613e-10
5.26177e-10
-2.07201e-10
4.88362e-10
-2.09169e-10
4.37523e-10
-2.1173e-10
3.82357e-10
-2.14303e-10
3.26701e-10
-2.1535e-10
2.6549e-10
-2.15578e-10
1.90846e-10
-2.22123e-10
1.0923e-10
-2.43426e-10
4.81469e-11
-2.6949e-10
1.41798e-11
-2.85964e-10
-7.50246e-11
-3.50494e-10
8.04971e-11
-4.18634e-10
-2.21387e-10
1.72832e-11
9.32312e-12
-5.67919e-11
2.20618e-10
-8.56208e-11
1.81466e-10
-8.62295e-11
1.6917e-10
-1.00868e-10
1.63969e-10
-8.37952e-11
1.38893e-10
-6.50036e-11
1.17132e-10
-4.50405e-11
1.10657e-10
-1.38085e-11
1.15494e-10
2.5584e-11
1.23398e-10
6.31061e-11
1.28382e-10
9.0376e-11
1.27471e-10
1.02615e-10
1.19844e-10
9.81628e-11
1.06258e-10
7.8174e-11
8.83403e-11
4.59635e-11
6.80791e-11
6.14782e-12
4.73156e-11
-3.63637e-11
2.76623e-11
-7.69326e-11
1.03372e-11
-1.11634e-10
-3.80772e-12
-1.37437e-10
-1.43522e-11
-1.52362e-10
-2.11975e-11
-1.55504e-10
-2.45719e-11
-1.47048e-10
-2.49633e-11
-1.28245e-10
-2.31342e-11
-1.01349e-10
-2.00318e-11
-6.94164e-11
-1.67093e-11
-3.60527e-11
-1.42064e-11
-5.0512e-12
-1.34693e-11
1.99831e-11
-1.52755e-11
3.60264e-11
-2.0185e-11
4.09841e-11
-2.84866e-11
3.39504e-11
-4.01645e-11
1.53121e-11
-5.48899e-11
-1.33392e-11
-7.20613e-11
-4.94858e-11
-9.08878e-11
-9.00981e-11
-1.10503e-10
-1.32098e-10
-1.30083e-10
-1.72776e-10
-1.48934e-10
-2.10094e-10
-1.66549e-10
-2.42837e-10
-1.82602e-10
-2.70609e-10
-1.96926e-10
-2.9371e-10
-2.0946e-10
-3.12913e-10
-2.20199e-10
-3.29189e-10
-2.29158e-10
-3.43428e-10
-2.36325e-10
-3.56159e-10
-2.41673e-10
-3.6737e-10
-2.45135e-10
-3.76418e-10
-2.46633e-10
-3.82041e-10
-2.46103e-10
-3.82495e-10
-2.43526e-10
-3.75736e-10
-2.38957e-10
-3.59686e-10
-2.3254e-10
-3.32461e-10
-2.24508e-10
-2.92648e-10
-2.15157e-10
-2.39537e-10
-2.04853e-10
-1.73366e-10
-1.94019e-10
-9.54521e-11
-1.83188e-10
-8.29148e-12
-1.72969e-10
8.46056e-11
-1.64083e-10
1.789e-10
-1.57205e-10
2.69887e-10
-1.52912e-10
3.52747e-10
-1.51382e-10
4.22945e-10
-1.52384e-10
4.76176e-10
-1.5507e-10
5.08696e-10
-1.58357e-10
5.17641e-10
-1.61175e-10
5.02565e-10
-1.63309e-10
4.67032e-10
-1.65524e-10
4.19462e-10
-1.6936e-10
3.693e-10
-1.7539e-10
3.18605e-10
-1.82064e-10
2.56677e-10
-1.87241e-10
1.75675e-10
-1.94484e-10
1.01305e-10
-2.1446e-10
7.04066e-11
-2.46693e-10
3.60654e-11
-2.7769e-10
-4.93096e-11
-3.59413e-10
8.78207e-11
-4.33083e-10
-2.42915e-10
1.10933e-11
1.71904e-11
-4.6967e-11
2.58735e-10
-7.11248e-11
2.26308e-10
-7.12589e-11
2.13715e-10
-8.92936e-11
2.02854e-10
-7.59004e-11
1.70119e-10
-5.81035e-11
1.42347e-10
-3.93945e-11
1.3223e-10
-1.19497e-11
1.34087e-10
2.16452e-11
1.37287e-10
5.24419e-11
1.34414e-10
7.30659e-11
1.22456e-10
7.95449e-11
1.01551e-10
7.08634e-11
7.34438e-11
4.83277e-11
4.06208e-11
1.51944e-11
5.50987e-12
-2.4242e-11
-2.97211e-11
-6.54074e-11
-6.33616e-11
-1.04123e-10
-9.40285e-11
-1.36824e-10
-1.20758e-10
-1.60794e-10
-1.42958e-10
-1.74242e-10
-1.60471e-10
-1.76437e-10
-1.7347e-10
-1.67707e-10
-1.82442e-10
-1.49425e-10
-1.88088e-10
-1.23882e-10
-1.91272e-10
-9.41078e-11
-1.92912e-10
-6.3589e-11
-1.93899e-10
-3.59502e-11
-1.95003e-10
-1.45737e-11
-1.96813e-10
-2.22883e-12
-1.99688e-10
-7.3322e-13
-2.03738e-10
-1.07257e-11
-2.08823e-10
-3.15976e-11
-2.14593e-10
-6.16176e-11
-2.20557e-10
-9.82294e-11
-2.26174e-10
-1.38463e-10
-2.30953e-10
-1.79371e-10
-2.34529e-10
-2.18414e-10
-2.367e-10
-2.53722e-10
-2.37429e-10
-2.84221e-10
-2.36802e-10
-3.09618e-10
-2.34974e-10
-3.30274e-10
-2.32114e-10
-3.4699e-10
-2.28359e-10
-3.6075e-10
-2.23793e-10
-3.72431e-10
-2.18438e-10
-3.82568e-10
-2.12261e-10
-3.91166e-10
-2.05197e-10
-3.97621e-10
-1.97173e-10
-4.00744e-10
-1.88146e-10
-3.98883e-10
-1.78133e-10
-3.9011e-10
-1.67232e-10
-3.72444e-10
-1.55632e-10
-3.44102e-10
-1.43579e-10
-3.0374e-10
-1.31365e-10
-2.50732e-10
-1.19299e-10
-1.85375e-10
-1.07725e-10
-1.09068e-10
-9.7035e-11
-2.42858e-11
-8.77135e-11
6.55166e-11
-8.02767e-11
1.56314e-10
-7.52832e-11
2.43796e-10
-7.31003e-11
3.23838e-10
-7.38688e-11
3.92459e-10
-7.71977e-11
4.45891e-10
-8.22957e-11
4.80216e-10
-8.78926e-11
4.91966e-10
-9.28728e-11
4.79418e-10
-9.66584e-11
4.45505e-10
-1.00093e-10
3.99244e-10
-1.05153e-10
3.52352e-10
-1.13919e-10
3.07668e-10
-1.2624e-10
2.5008e-10
-1.39682e-10
1.66527e-10
-1.54577e-10
9.53034e-11
-1.80272e-10
9.00689e-11
-2.24718e-10
4.92779e-11
-2.79225e-10
-3.27296e-11
-3.7421e-10
8.30102e-11
-4.48625e-10
-2.67824e-10
1.16223e-11
2.63285e-11
-3.30434e-11
2.73145e-10
-5.41652e-11
2.38252e-10
-5.36924e-11
2.18552e-10
-7.50736e-11
1.93354e-10
-6.56147e-11
1.4541e-10
-4.92406e-11
1.05672e-10
-3.28953e-11
8.75139e-11
-1.15963e-11
8.38134e-11
1.29742e-11
8.24112e-11
3.41559e-11
7.47135e-11
4.61854e-11
5.74857e-11
4.61082e-11
3.11339e-11
3.31873e-11
-1.97348e-12
8.70191e-12
-3.90171e-11
-2.44971e-11
-7.73141e-11
-6.24443e-11
-1.14812e-10
-1.00997e-10
-1.49918e-10
-1.36321e-10
-1.8154e-10
-1.65295e-10
-2.08872e-10
-1.85544e-10
-2.31509e-10
-1.95603e-10
-2.49378e-10
-1.94948e-10
-2.62812e-10
-1.84085e-10
-2.72427e-10
-1.64475e-10
-2.79095e-10
-1.38438e-10
-2.83796e-10
-1.08932e-10
-2.87549e-10
-7.93039e-11
-2.91279e-10
-5.29646e-11
-2.95735e-10
-3.30521e-11
-3.01407e-10
-2.20737e-11
-3.08484e-10
-2.1607e-11
-3.16838e-10
-3.21e-11
-3.26055e-10
-5.28363e-11
-3.35498e-10
-8.20738e-11
-3.44411e-10
-1.1734e-10
-3.52023e-10
-1.55816e-10
-3.57653e-10
-1.9474e-10
-3.60779e-10
-2.31743e-10
-3.61069e-10
-2.65085e-10
-3.58373e-10
-2.93766e-10
-3.52678e-10
-3.17511e-10
-3.44068e-10
-3.36658e-10
-3.32673e-10
-3.51967e-10
-3.18641e-10
-3.64371e-10
-3.02125e-10
-3.74717e-10
-2.8328e-10
-3.83531e-10
-2.62266e-10
-3.90843e-10
-2.39266e-10
-3.96112e-10
-2.14502e-10
-3.98248e-10
-1.8826e-10
-3.95718e-10
-1.60907e-10
-3.86711e-10
-1.32907e-10
-3.69345e-10
-1.04801e-10
-3.41897e-10
-7.71939e-11
-3.03066e-10
-5.0698e-11
-2.52235e-10
-2.59338e-11
-1.8972e-10
-3.49251e-12
-1.16899e-10
1.60034e-11
-3.62361e-11
3.1948e-11
4.89991e-11
4.36902e-11
1.35011e-10
5.06888e-11
2.18026e-10
5.25108e-11
2.94437e-10
4.9126e-11
3.61006e-10
4.08693e-11
4.14325e-10
2.87171e-11
4.50623e-10
1.39825e-11
4.65611e-10
-1.6788e-12
4.56332e-10
-1.70758e-11
4.24165e-10
-3.1873e-11
3.78085e-10
-4.73249e-11
3.31746e-10
-6.53901e-11
2.90819e-10
-8.7006e-11
2.38802e-10
-1.10324e-10
1.56197e-10
-1.33916e-10
8.49493e-11
-1.65008e-10
9.6896e-11
-2.18035e-10
5.34358e-11
-2.93391e-10
-2.83512e-11
-3.95843e-10
6.99037e-11
-4.64336e-10
-2.98331e-10
1.17022e-11
2.19899e-11
-2.52343e-11
2.42994e-10
-4.46125e-11
1.96315e-10
-4.36212e-11
1.66104e-10
-6.64163e-11
1.22216e-10
-5.93119e-11
5.4149e-11
-4.27707e-11
-2.78583e-12
-2.75881e-11
-3.28688e-11
-1.18868e-11
-4.4064e-11
3.70366e-12
-4.98579e-11
1.51722e-11
-5.94972e-11
1.90089e-11
-7.67011e-11
1.32596e-11
-1.01155e-10
-2.49777e-12
-1.30697e-10
-2.74283e-11
-1.62462e-10
-5.91649e-11
-1.93958e-10
-9.43671e-11
-2.23215e-10
-1.29251e-10
-2.4901e-10
-1.60403e-10
-2.70544e-10
-1.85004e-10
-2.87461e-10
-2.01085e-10
-2.99658e-10
-2.07482e-10
-3.07412e-10
-2.03961e-10
-3.11301e-10
-1.9118e-10
-3.12249e-10
-1.70693e-10
-3.11385e-10
-1.44785e-10
-3.09978e-10
-1.16296e-10
-3.09273e-10
-8.83437e-11
-3.10398e-10
-6.40513e-11
-3.1423e-10
-4.62188e-11
-3.21318e-10
-3.70205e-11
-3.31819e-10
-3.77386e-11
-3.45486e-10
-4.86097e-11
-3.61695e-10
-6.88115e-11
-3.79524e-10
-9.66127e-11
-3.97851e-10
-1.29652e-10
-4.15483e-10
-1.65289e-10
-4.31261e-10
-2.00966e-10
-4.44148e-10
-2.34504e-10
-4.5328e-10
-2.64316e-10
-4.57982e-10
-2.89503e-10
-4.57763e-10
-3.09853e-10
-4.52298e-10
-3.25739e-10
-4.41417e-10
-3.37946e-10
-4.25091e-10
-3.47432e-10
-4.03421e-10
-3.55086e-10
-3.76633e-10
-3.61491e-10
-3.45064e-10
-3.66764e-10
-3.09156e-10
-3.70475e-10
-2.69449e-10
-3.71666e-10
-2.26589e-10
-3.6894e-10
-1.81331e-10
-3.60613e-10
-1.34539e-10
-3.44888e-10
-8.7178e-11
-3.20089e-10
-4.02728e-11
-2.84904e-10
5.11177e-12
-2.38691e-10
4.79238e-11
-1.81695e-10
8.71074e-11
-1.15239e-10
1.21649e-10
-4.1622e-11
1.50524e-10
3.60544e-11
1.72803e-10
1.14416e-10
1.87607e-10
1.90121e-10
1.94347e-10
2.60304e-10
1.92697e-10
3.22303e-10
1.82929e-10
3.73421e-10
1.65767e-10
4.09999e-10
1.42666e-10
4.27553e-10
1.15384e-10
4.21841e-10
8.59784e-11
3.92759e-10
5.58751e-11
3.48072e-10
2.55306e-11
3.02594e-10
-6.01684e-12
2.65091e-10
-3.96216e-11
2.20491e-10
-7.42669e-11
1.43864e-10
-1.08017e-10
7.25322e-11
-1.46038e-10
9.20101e-11
-2.06272e-10
5.02077e-11
-2.97845e-10
-3.20185e-11
-4.05631e-10
5.32843e-11
-4.68459e-10
-3.31126e-10
5.22868e-12
4.04749e-12
-3.10662e-11
1.7053e-10
-4.91824e-11
1.06776e-10
-4.76433e-11
6.8422e-11
-6.99661e-11
9.49378e-12
-6.36621e-11
-7.65009e-11
-4.38699e-11
-1.5254e-10
-2.67319e-11
-1.97806e-10
-1.38264e-11
-2.18743e-10
-4.75014e-12
-2.29778e-10
-6.32039e-13
-2.40999e-10
-2.87935e-12
-2.56335e-10
-1.21586e-11
-2.76013e-10
-2.87617e-11
-2.98273e-10
-5.21287e-11
-3.20859e-10
-8.06873e-11
-3.41459e-10
-1.11666e-10
-3.58389e-10
-1.41889e-10
-3.70478e-10
-1.68243e-10
-3.77234e-10
-1.88297e-10
-3.78515e-10
-2.00349e-10
-3.74612e-10
-2.0359e-10
-3.6608e-10
-1.98021e-10
-3.53852e-10
-1.84505e-10
-3.39122e-10
-1.64641e-10
-3.23345e-10
-1.40668e-10
-3.08064e-10
-1.15234e-10
-2.94823e-10
-9.11757e-11
-2.85006e-10
-7.12328e-11
-2.79736e-10
-5.77831e-11
-2.79769e-10
-5.25666e-11
-2.85437e-10
-5.64784e-11
-2.96614e-10
-6.94501e-11
-3.12743e-10
-9.04715e-11
-3.32893e-10
-1.17746e-10
-3.5585e-10
-1.48961e-10
-3.8023e-10
-1.81607e-10
-4.04582e-10
-2.13306e-10
-4.27481e-10
-2.42077e-10
-4.47594e-10
-2.66526e-10
-4.63725e-10
-2.85939e-10
-4.74846e-10
-3.00274e-10
-4.80117e-10
-3.10072e-10
-4.78907e-10
-3.16279e-10
-4.70801e-10
-3.20015e-10
-4.556e-10
-3.22325e-10
-4.33315e-10
-3.23948e-10
-4.04143e-10
-3.25158e-10
-3.68447e-10
-3.25687e-10
-3.26741e-10
-3.24742e-10
-2.79688e-10
-3.21087e-10
-2.281e-10
-3.13171e-10
-1.72946e-10
-2.99303e-10
-1.15332e-10
-2.77844e-10
-5.64962e-11
-2.47491e-10
2.24707e-12
-2.0753e-10
5.95087e-11
-1.58141e-10
1.13884e-10
-1.00482e-10
1.63923e-10
-3.67032e-11
2.08213e-10
3.04413e-11
2.45338e-10
9.7918e-11
2.74047e-10
1.63034e-10
2.93205e-10
2.23502e-10
3.02101e-10
2.77539e-10
3.0036e-10
3.23007e-10
2.88344e-10
3.56914e-10
2.66927e-10
3.74688e-10
2.37848e-10
3.7166e-10
2.03158e-10
3.46183e-10
1.65188e-10
3.04653e-10
1.25448e-10
2.61641e-10
8.44072e-11
2.28556e-10
4.15763e-11
1.93241e-10
-2.61439e-12
1.27423e-10
-4.68296e-11
5.895e-11
-9.51467e-11
7.86177e-11
-1.65627e-10
4.00402e-11
-2.725e-10
-4.19222e-11
-3.87022e-10
3.63062e-11
-4.50956e-10
-3.59619e-10
-1.03886e-11
-2.35757e-11
-5.16852e-11
7.06513e-11
-6.77788e-11
-9.6624e-12
-6.45227e-11
-4.99331e-11
-8.50146e-11
-1.14865e-10
-8.16323e-11
-2.07064e-10
-5.67895e-11
-2.9574e-10
-3.34711e-11
-3.5602e-10
-1.93996e-11
-3.8817e-10
-1.30685e-11
-4.0567e-10
-1.28225e-11
-4.19252e-10
-1.79178e-11
-4.33445e-10
-2.81683e-11
-4.48691e-10
-4.33878e-11
-4.64028e-10
-6.33798e-11
-4.77741e-10
-8.70072e-11
-4.88206e-10
-1.12296e-10
-4.93859e-10
-1.36551e-10
-4.9374e-10
-1.57208e-10
-4.87291e-10
-1.72111e-10
-4.74547e-10
-1.79937e-10
-4.55877e-10
-1.80129e-10
-4.32088e-10
-1.7299e-10
-4.04269e-10
-1.59528e-10
-3.73851e-10
-1.41425e-10
-3.42448e-10
-1.20832e-10
-3.11808e-10
-1.00206e-10
-2.83642e-10
-8.20549e-11
-2.59527e-10
-6.87146e-11
-2.40777e-10
-6.20898e-11
-2.28363e-10
-6.34398e-11
-2.22841e-10
-7.32031e-11
-2.24331e-10
-9.0929e-11
-2.32515e-10
-1.15323e-10
-2.4669e-10
-1.44418e-10
-2.65834e-10
-1.75839e-10
-2.88696e-10
-2.07105e-10
-3.1388e-10
-2.35934e-10
-3.39927e-10
-2.60489e-10
-3.65381e-10
-2.79555e-10
-3.88839e-10
-2.92625e-10
-4.09003e-10
-2.99892e-10
-4.24714e-10
-3.02143e-10
-4.34991e-10
-3.00581e-10
-4.3905e-10
-2.9658e-10
-4.36313e-10
-2.91425e-10
-4.26404e-10
-2.86081e-10
-4.09124e-10
-2.81038e-10
-3.84446e-10
-2.7624e-10
-3.52499e-10
-2.71102e-10
-3.13588e-10
-2.64589e-10
-2.68209e-10
-2.55338e-10
-2.17066e-10
-2.418e-10
-1.61084e-10
-2.22447e-10
-1.01383e-10
-1.96002e-10
-3.92725e-11
-1.61763e-10
2.38072e-11
-1.1982e-10
8.62763e-11
-7.12447e-11
1.46496e-10
-1.79442e-11
2.02727e-10
3.7552e-11
2.53267e-10
9.2698e-11
2.96388e-10
1.45235e-10
3.30577e-10
1.93666e-10
3.54432e-10
2.36824e-10
3.67056e-10
2.73533e-10
3.67913e-10
3.01325e-10
3.57367e-10
3.16267e-10
3.36408e-10
3.13399e-10
3.07043e-10
2.90381e-10
2.71521e-10
2.51935e-10
2.32128e-10
2.11908e-10
1.89935e-10
1.83111e-10
1.45002e-10
1.56789e-10
9.7001e-11
1.03564e-10
4.59406e-11
4.06145e-11
-1.24092e-11
5.69948e-11
-9.47357e-11
2.11022e-11
-2.15384e-10
-5.82754e-11
-3.3771e-10
2.05741e-11
-4.0937e-10
-3.77652e-10
-3.2604e-11
-5.13567e-11
-8.0796e-11
-3.04211e-11
-9.55047e-11
-1.18337e-10
-8.70755e-11
-1.51295e-10
-1.01299e-10
-2.1411e-10
-1.07557e-10
-2.96596e-10
-8.18447e-11
-3.79233e-10
-4.99242e-11
-4.43704e-10
-3.03474e-11
-4.8341e-10
-2.29196e-11
-5.06265e-10
-2.28399e-11
-5.22393e-10
-2.7585e-11
-5.36622e-10
-3.6082e-11
-5.49957e-10
-4.80823e-11
-5.61702e-10
-6.32202e-11
-5.70977e-10
-8.08261e-11
-5.76578e-10
-9.92901e-11
-5.77504e-10
-1.16605e-10
-5.72818e-10
-1.30601e-10
-5.62106e-10
-1.39631e-10
-5.45261e-10
-1.42652e-10
-5.22701e-10
-1.39477e-10
-4.95137e-10
-1.30622e-10
-4.6367e-10
-1.17305e-10
-4.29611e-10
-1.01238e-10
-3.94493e-10
-8.45191e-11
-3.59894e-10
-6.93917e-11
-3.27378e-10
-5.80638e-11
-2.98346e-10
-5.24665e-11
-2.73979e-10
-5.40554e-11
-2.55143e-10
-6.36116e-11
-2.42355e-10
-8.11189e-11
-2.35757e-10
-1.0572e-10
-2.35137e-10
-1.35797e-10
-2.39958e-10
-1.69145e-10
-2.49432e-10
-2.03245e-10
-2.62582e-10
-2.35553e-10
-2.78318e-10
-2.63788e-10
-2.95495e-10
-2.86179e-10
-3.12967e-10
-3.01625e-10
-3.2962e-10
-3.09783e-10
-3.44414e-10
-3.11049e-10
-3.56403e-10
-3.06446e-10
-3.64758e-10
-2.97426e-10
-3.68772e-10
-2.85612e-10
-3.67859e-10
-2.72529e-10
-3.61535e-10
-2.59376e-10
-3.49405e-10
-2.46868e-10
-3.31157e-10
-2.35188e-10
-3.06574e-10
-2.23997e-10
-2.75578e-10
-2.12522e-10
-2.38264e-10
-1.99648e-10
-1.94955e-10
-1.84058e-10
-1.46217e-10
-1.64395e-10
-9.28712e-11
-1.39522e-10
-3.59575e-11
-1.0878e-10
2.32711e-11
-7.22863e-11
8.34221e-11
-3.10116e-11
1.42937e-10
1.32269e-11
2.00202e-10
5.82027e-11
2.53472e-10
1.01615e-10
3.01063e-10
1.41754e-10
3.41247e-10
1.77561e-10
3.72508e-10
2.08728e-10
3.93458e-10
2.34707e-10
4.03259e-10
2.54088e-10
4.01519e-10
2.63416e-10
3.88966e-10
2.5824e-10
3.67039e-10
2.35513e-10
3.38166e-10
1.98904e-10
3.04559e-10
1.6084e-10
2.67822e-10
1.34844e-10
2.27889e-10
1.14976e-10
1.83748e-10
7.23799e-11
1.33492e-10
1.5597e-11
7.14388e-11
2.76247e-11
-1.74531e-11
-6.08948e-12
-1.45174e-10
-7.99555e-11
-2.7071e-10
9.14801e-12
-3.5272e-10
-3.86711e-10
-5.33418e-11
-6.27689e-11
-1.04823e-10
-1.00665e-10
-1.22499e-10
-1.84787e-10
-1.08825e-10
-1.95979e-10
-1.04193e-10
-2.5369e-10
-1.23663e-10
-3.24544e-10
-1.08805e-10
-3.84493e-10
-7.27511e-11
-4.33642e-10
-4.61959e-11
-4.69065e-10
-3.49026e-11
-4.92158e-10
-3.27414e-11
-5.08834e-10
-3.50123e-11
-5.23585e-10
-4.03e-11
-5.37472e-10
-4.80838e-11
-5.50302e-10
-5.81643e-11
-5.61334e-10
-6.97555e-11
-5.69999e-10
-8.16889e-11
-5.75481e-10
-9.22295e-11
-5.77231e-10
-9.97878e-11
-5.74753e-10
-1.03036e-10
-5.67997e-10
-1.01379e-10
-5.57133e-10
-9.48606e-11
-5.42722e-10
-8.42787e-11
-5.25498e-10
-7.09525e-11
-5.06424e-10
-5.66554e-11
-4.86503e-10
-4.33751e-11
-4.66773e-10
-3.31742e-11
-4.48157e-10
-2.79605e-11
-4.31434e-10
-2.93162e-11
-4.1715e-10
-3.82936e-11
-4.05604e-10
-5.52696e-11
-3.96817e-10
-7.98397e-11
-3.90559e-10
-1.10812e-10
-3.86373e-10
-1.46298e-10
-3.83643e-10
-1.83904e-10
-3.81661e-10
-2.2099e-10
-3.797e-10
-2.54956e-10
-3.77077e-10
-2.83523e-10
-3.73196e-10
-3.04962e-10
-3.67581e-10
-3.18258e-10
-3.5988e-10
-3.23185e-10
-3.49862e-10
-3.20286e-10
-3.37404e-10
-3.10744e-10
-3.22464e-10
-2.96175e-10
-3.05045e-10
-2.78358e-10
-2.85151e-10
-2.58968e-10
-2.62751e-10
-2.39348e-10
-2.37749e-10
-2.20381e-10
-2.09982e-10
-2.02443e-10
-1.79256e-10
-1.85433e-10
-1.45394e-10
-1.68843e-10
-1.08311e-10
-1.51842e-10
-6.80751e-11
-1.33375e-10
-2.49521e-11
-1.12321e-10
2.05933e-11
-8.76954e-11
6.78885e-11
-5.89619e-11
1.16113e-10
-2.6246e-11
1.64288e-10
9.46438e-12
2.11368e-10
4.65048e-11
2.56178e-10
8.27405e-11
2.97541e-10
1.1622e-10
3.34159e-10
1.45442e-10
3.64857e-10
1.6993e-10
3.88302e-10
1.8976e-10
4.03536e-10
2.05335e-10
4.09587e-10
2.1589e-10
4.06234e-10
2.1908e-10
3.93781e-10
2.10686e-10
3.73814e-10
1.87692e-10
3.48445e-10
1.52381e-10
3.20253e-10
1.15964e-10
2.90681e-10
9.15799e-11
2.59702e-10
7.54476e-11
2.25218e-10
4.00086e-11
1.83388e-10
-1.18461e-11
1.26434e-10
-3.5067e-12
3.99988e-11
-3.52589e-11
-8.46538e-11
-1.00632e-10
-2.0592e-10
5.57376e-12
-2.98654e-10
-4.02459e-10
-6.4809e-11
-4.07814e-11
-1.08167e-10
-1.17742e-10
-1.3346e-10
-2.01475e-10
-1.27321e-10
-1.8448e-10
-9.34638e-11
-2.29114e-10
-1.14438e-10
-3.08345e-10
-1.18851e-10
-3.5951e-10
-9.08223e-11
-3.88849e-10
-6.22139e-11
-4.10976e-10
-4.78361e-11
-4.28787e-10
-4.34991e-11
-4.43855e-10
-4.36703e-11
-4.58297e-10
-4.61509e-11
-4.73354e-10
-5.07041e-11
-4.88784e-10
-5.69391e-11
-5.04201e-10
-6.42751e-11
-5.18916e-10
-7.14594e-11
-5.32476e-10
-7.71735e-11
-5.44272e-10
-8.00228e-11
-5.54022e-10
-7.9136e-11
-5.61503e-10
-7.41182e-11
-5.66854e-10
-6.53138e-11
-5.70313e-10
-5.36063e-11
-5.72336e-10
-4.04141e-11
-5.73375e-10
-2.74352e-11
-5.7391e-10
-1.65464e-11
-5.74288e-10
-9.57824e-12
-5.74735e-10
-8.17753e-12
-5.75262e-10
-1.36105e-11
-5.75684e-10
-2.66207e-11
-5.75597e-10
-4.72868e-11
-5.74418e-10
-7.49595e-11
-5.71423e-10
-1.08266e-10
-5.65827e-10
-1.45216e-10
-5.56861e-10
-1.83392e-10
-5.43865e-10
-2.20193e-10
-5.26361e-10
-2.5311e-10
-5.04111e-10
-2.79982e-10
-4.77144e-10
-2.99214e-10
-4.45755e-10
-3.09927e-10
-4.10471e-10
-3.12026e-10
-3.72001e-10
-3.0616e-10
-3.3117e-10
-2.93594e-10
-2.88836e-10
-2.75991e-10
-2.45811e-10
-2.55144e-10
-2.02778e-10
-2.32724e-10
-1.60239e-10
-2.10073e-10
-1.18482e-10
-1.881e-10
-7.75905e-11
-1.67265e-10
-3.74861e-11
-1.47609e-10
1.99059e-12
-1.28823e-10
4.10016e-11
-1.10299e-10
7.96308e-11
-9.12107e-11
1.17849e-10
-7.06105e-11
1.5548e-10
-4.76595e-11
1.92227e-10
-2.18604e-11
2.27665e-10
6.62354e-12
2.61319e-10
3.69027e-11
2.92626e-10
6.7346e-11
3.21045e-10
9.60477e-11
3.45941e-10
1.2114e-10
3.66754e-10
1.41522e-10
3.82785e-10
1.56823e-10
3.9345e-10
1.67746e-10
3.98024e-10
1.75028e-10
3.96103e-10
1.78944e-10
3.87344e-10
1.77711e-10
3.72315e-10
1.68012e-10
3.52147e-10
1.46394e-10
3.29163e-10
1.14328e-10
3.05587e-10
8.10914e-11
2.83175e-10
5.91247e-11
2.61482e-10
4.56222e-11
2.37823e-10
1.45994e-11
2.06585e-10
-3.37531e-11
1.58204e-10
-2.76951e-11
7.84727e-11
-5.68586e-11
-3.8953e-11
-1.12616e-10
-1.55015e-10
9.29227e-12
-2.65539e-10
-4.46936e-10
-6.41979e-11
1.4069e-11
-9.49537e-11
-8.00112e-11
-1.17846e-10
-1.88018e-10
-1.36043e-10
-1.74235e-10
-9.02717e-11
-1.93865e-10
-9.52949e-11
-2.84296e-10
-1.08484e-10
-3.55175e-10
-9.56077e-11
-3.85383e-10
-7.36764e-11
-3.99257e-10
-5.99684e-11
-4.11336e-10
-5.52229e-11
-4.23818e-10
-5.47064e-11
-4.36953e-10
-5.6232e-11
-4.50996e-10
-5.92301e-11
-4.66123e-10
-6.36266e-11
-4.81763e-10
-6.8633e-11
-4.97455e-10
-7.32766e-11
-5.1248e-10
-7.62246e-11
-5.26463e-10
-7.64721e-11
-5.39011e-10
-7.32679e-11
-5.50112e-10
-6.6523e-11
-5.59821e-10
-5.66315e-11
-5.68448e-10
-4.45803e-11
-5.76291e-10
-3.16914e-11
-5.83695e-10
-1.95693e-11
-5.90855e-10
-9.86833e-12
-5.97843e-10
-4.19457e-12
-6.04502e-10
-3.91689e-12
-6.1048e-10
-1.00506e-11
-6.15197e-10
-2.31052e-11
-6.17897e-10
-4.29942e-11
-6.17692e-10
-6.89766e-11
-6.13639e-10
-9.96858e-11
-6.04835e-10
-1.33231e-10
-5.90518e-10
-1.67373e-10
-5.70162e-10
-1.99751e-10
-5.43555e-10
-2.28123e-10
-5.10837e-10
-2.50595e-10
-4.72504e-10
-2.65814e-10
-4.29376e-10
-2.73095e-10
-3.82525e-10
-2.72474e-10
-3.33181e-10
-2.64664e-10
-2.82627e-10
-2.50915e-10
-2.32082e-10
-2.32807e-10
-1.82603e-10
-2.11999e-10
-1.34994e-10