/*--------------------------------*- C++ -*----------------------------------*\
| =========                 |                                                 |
| \\      /  F ield         | OpenFOAM: The Open Source CFD Toolbox           |
|  \\    /   O peration     | Version:  2412                                  |
|   \\  /    A nd           | Website:  www.openfoam.com                      |
|    \\/     M anipulation  |                                                 |
\*---------------------------------------------------------------------------*/
FoamFile
{
    version     2.0;
    format      ascii;
    arch        "LSB;label=32;scalar=64";
    class       surfaceScalarField;
    location    "9.7";
    object      alphaPhi0.ethanol;
}
// * * * * * * * * * * * * * * * * * * * * * * * * * * * * * * * * * * * * * //

dimensions      [0 3 -1 0 0 0 0];

oriented        oriented;

internalField   nonuniform List<scalar> 
12640
(
1.3372e-05
-1.33719e-05
2.75084e-05
-1.41368e-05
4.24864e-05
-1.49786e-05
5.81656e-05
-1.56794e-05
7.37268e-05
-1.55613e-05
8.81672e-05
-1.44405e-05
0.000100747
-1.25798e-05
0.00011097
-1.02236e-05
0.000118612
-7.64135e-06
0.000123742
-5.12971e-06
0.000126502
-2.76077e-06
0.000127096
-5.93312e-07
0.00012587
1.22572e-06
0.00012298
2.89022e-06
0.000118626
4.35511e-06
0.000113007
5.61893e-06
0.000106289
6.71823e-06
9.86551e-05
7.63449e-06
9.02902e-05
8.36565e-06
8.13992e-05
8.89124e-06
7.21697e-05
9.22937e-06
6.28274e-05
9.34263e-06
5.35415e-05
9.2864e-06
4.45031e-05
9.03896e-06
3.58864e-05
8.61718e-06
2.78507e-05
8.03615e-06
2.05527e-05
7.29866e-06
1.40737e-05
6.47936e-06
8.48819e-06
5.5855e-06
3.83685e-06
4.65156e-06
1.64229e-07
3.67294e-06
-2.54722e-06
2.71145e-06
-4.30168e-06
1.75432e-06
-5.15233e-06
8.50683e-07
-5.22047e-06
6.83939e-08
-4.58049e-06
-6.39577e-07
-3.33926e-06
-1.24062e-06
-1.6349e-06
-1.70366e-06
3.7812e-07
-2.01268e-06
2.54025e-06
-2.16222e-06
4.68959e-06
-2.1495e-06
6.65626e-06
-1.96677e-06
8.27145e-06
-1.61522e-06
9.38836e-06
-1.11693e-06
9.87717e-06
-4.88766e-07
9.6515e-06
2.25859e-07
8.60483e-06
1.04699e-06
6.62847e-06
1.9767e-06
3.65878e-06
2.96992e-06
-2.96315e-07
3.9552e-06
-5.28204e-06
4.98573e-06
-1.12061e-05
5.92404e-06
-1.80301e-05
6.82407e-06
-2.56989e-05
7.66904e-06
-3.4089e-05
8.39041e-06
-4.30583e-05
8.96968e-06
-5.24192e-05
9.36134e-06
-6.20472e-05
9.6286e-06
-7.17388e-05
9.69195e-06
-8.12681e-05
9.52963e-06
-9.04462e-05
9.1783e-06
-9.90562e-05
8.60996e-06
-0.00010692
7.86402e-06
-0.000113849
6.9291e-06
-0.000119664
5.81467e-06
-0.000124176
4.51297e-06
-0.000127187
3.01121e-06
-0.000128473
1.28521e-06
-0.0001279
-5.74334e-07
-0.000125123
-2.77704e-06
-0.000119939
-5.1838e-06
-0.000112166
-7.77292e-06
-0.000101781
-1.0385e-05
-8.898e-05
-1.28019e-05
-7.42698e-05
-1.47104e-05
-5.84984e-05
-1.57706e-05
-4.26172e-05
-1.58803e-05
-2.74919e-05
-1.51245e-05
-1.32772e-05
-1.42138e-05
-1.32782e-05
1.37895e-05
-2.71629e-05
2.93703e-05
-2.97186e-05
4.72319e-05
-3.28405e-05
6.70272e-05
-3.54748e-05
8.7168e-05
-3.57023e-05
0.000105892
-3.31653e-05
0.000121752
-2.84399e-05
0.000133838
-2.23097e-05
0.000141912
-1.57149e-05
0.000146139
-9.3564e-06
0.000146962
-3.58382e-06
0.000144928
1.44239e-06
0.000140446
5.70856e-06
0.000134007
9.329e-06
0.000125995
1.23675e-05
0.000116737
1.48782e-05
0.000106516
1.69407e-05
9.55803e-05
1.85695e-05
8.41894e-05
1.97569e-05
7.25693e-05
2.05125e-05
6.09645e-05
2.08351e-05
4.95782e-05
2.07299e-05
3.86312e-05
2.02345e-05
2.83037e-05
1.93675e-05
1.87592e-05
1.81625e-05
1.01279e-05
1.6668e-05
2.5411e-06
1.48857e-05
-3.92853e-06
1.2949e-05
-9.22175e-06
1.08782e-05
-1.32913e-05
8.72008e-06
-1.61456e-05
6.5261e-06
-1.77918e-05
4.35645e-06
-1.83031e-05
2.26432e-06
-1.77638e-05
3.10378e-07
-1.62281e-05
-1.4678e-06
-1.38194e-05
-3.04857e-06
-1.06816e-05
-4.37876e-06
-6.97533e-06
-5.41025e-06
-2.88301e-06
-6.10516e-06
1.40053e-06
-6.44568e-06
5.66635e-06
-6.41517e-06
9.71591e-06
-6.01635e-06
1.33547e-05
-5.2543e-06
1.6405e-05
-4.1677e-06
1.87108e-05
-2.79499e-06
2.01142e-05
-1.1781e-06
2.05062e-05
6.54483e-07
1.98067e-05
2.67564e-06
1.79395e-05
4.83653e-06
1.48249e-05
7.06926e-06
1.04819e-05
9.32843e-06
4.87684e-06
1.15291e-05
-1.92306e-06
1.36242e-05
-9.88969e-06
1.56363e-05
-1.88877e-05
1.73893e-05
-2.88175e-05
1.89004e-05
-3.95605e-05
2.01053e-05
-5.09108e-05
2.09798e-05
-6.26788e-05
2.14608e-05
-7.46579e-05
2.15094e-05
-8.66065e-05
2.11274e-05
-9.83125e-05
2.03164e-05
-0.000109547
1.90984e-05
-0.000120063
1.74459e-05
-0.000129583
1.53353e-05
-0.000137803
1.27319e-05
-0.000144387
9.59413e-06
-0.00014893
5.82683e-06
-0.000150951
1.44664e-06
-0.00015004
-3.6876e-06
-0.000145585
-9.63751e-06
-0.000137192
-1.61662e-05
-0.000124635
-2.29434e-05
-0.00010825
-2.91867e-05
-8.8952e-05
-3.40067e-05
-6.8228e-05
-3.64938e-05
-4.79148e-05
-3.61933e-05
-2.96645e-05
-3.33744e-05
-1.38253e-05
-3.00564e-05
-2.70993e-05
1.47561e-05
-4.19196e-05
3.25334e-05
-4.74964e-05
5.38329e-05
-5.41403e-05
7.7823e-05
-5.94652e-05
0.000102354
-6.02339e-05
0.000125122
-5.59329e-05
0.000144216
-4.75336e-05
0.000158585
-3.66782e-05
0.000167904
-2.50342e-05
0.000172501
-1.39525e-05
0.000172954
-4.0363e-06
0.000169952
4.44535e-06
0.000164177
1.14839e-05
0.0001562
1.73067e-05
0.000146515
2.2052e-05
0.000135526
2.58678e-05
0.000123548
2.89194e-05
0.000110879
3.12396e-05
9.77804e-05
3.28568e-05
8.45121e-05
3.37821e-05
7.13235e-05
3.40248e-05
5.84415e-05
3.36125e-05
4.6083e-05
3.25931e-05
3.44396e-05
3.10107e-05
2.36797e-05
2.8922e-05
1.39512e-05
2.63956e-05
5.33528e-06
2.35003e-05
-2.04613e-06
2.03287e-05
-8.12554e-06
1.69559e-05
-1.28756e-05
1.34686e-05
-1.62954e-05
9.94435e-06
-1.8392e-05
6.45153e-06
-1.9232e-05
3.10307e-06
-1.89184e-05
-4.48959e-09
-1.75185e-05
-2.86898e-06
-1.51529e-05
-5.41535e-06
-1.19653e-05
-7.56723e-06
-8.13325e-06
-9.24271e-06
-3.86644e-06
-1.03725e-05
6.12427e-07
-1.09255e-05
5.07619e-06
-1.08802e-05
9.29102e-06
-1.02327e-05
1.3049e-05
-9.0139e-06
1.61494e-05
-7.26969e-06
1.84183e-05
-5.06535e-06
1.96918e-05
-2.45293e-06
1.98586e-05
4.86798e-07
1.88199e-05
3.7136e-06
1.64872e-05
7.16875e-06
1.28097e-05
1.07465e-05
7.77008e-06
1.4368e-05
1.37475e-06
1.79246e-05
-6.34419e-06
2.13437e-05
-1.52839e-05
2.45767e-05
-2.53939e-05
2.75002e-05
-3.65398e-05
3.00472e-05
-4.85712e-05
3.21376e-05
-6.1349e-05
3.37585e-05
-7.46215e-05
3.47342e-05
-8.81488e-05
3.50375e-05
-0.000101717
3.46961e-05
-0.000115091
3.36908e-05
-0.000128027
3.20344e-05
-0.000140253
2.96714e-05
-0.000151463
2.65455e-05
-0.000161312
2.25811e-05
-0.000169374
1.76556e-05
-0.000175222
1.16747e-05
-0.000178178
4.404e-06
-0.000177576
-4.2884e-06
-0.000172728
-1.44856e-05
-0.000162942
-2.59526e-05
-0.000147977
-3.79096e-05
-0.000128158
-4.90059e-05
-0.00010461
-5.75556e-05
-7.93068e-05
-6.17981e-05
-5.46608e-05
-6.08399e-05
-3.28471e-05
-5.5191e-05
-1.47791e-05
-4.8121e-05
-4.18809e-05
1.59255e-05
-5.78453e-05
3.64709e-05
-6.80421e-05
6.1734e-05
-7.94035e-05
9.04335e-05
-8.81648e-05
0.000119607
-8.94074e-05
0.000146253
-8.25785e-05
0.000168146
-6.9426e-05
0.000184156
-5.26879e-05
0.000194224
-3.51017e-05
0.00019883
-1.85578e-05
0.000198828
-4.03388e-06
0.000195099
8.17461e-06
0.000188375
1.82079e-05
0.000179331
2.63512e-05
0.000168486
3.28987e-05
0.000156239
3.81156e-05
0.000142935
4.22245e-05
0.000128882
4.52938e-05
0.000114363
4.73762e-05
9.96457e-05
4.84994e-05
8.5004e-05
4.86664e-05
7.06681e-05
4.79489e-05
5.68867e-05
4.6375e-05
4.38684e-05
4.40297e-05
3.17996e-05
4.09917e-05
2.08453e-05
3.73516e-05
1.10938e-05
3.32543e-05
2.66256e-06
2.87626e-05
-4.35142e-06
2.39724e-05
-9.93949e-06
1.90592e-05
-1.40938e-05
1.4101e-05
-1.68416e-05
9.20072e-06
-1.82344e-05
4.49651e-06
-1.83521e-05
1.13032e-07
-1.72957e-05
-3.92605e-06
-1.51786e-05
-7.53363e-06
-1.21697e-05
-1.05775e-05
-8.46274e-06
-1.29507e-05
-4.27467e-06
-1.45613e-05
1.51326e-07
-1.53517e-05
4.56185e-06
-1.52904e-05
8.70305e-06
-1.43731e-05
1.23419e-05
-1.26519e-05
1.52593e-05
-1.01862e-05
1.72622e-05
-7.06748e-06
1.81943e-05
-3.38421e-06
1.79158e-05
7.65896e-07
1.63222e-05
5.30773e-06
1.3332e-05
1.01591e-05
8.90295e-06
1.51756e-05
2.9958e-06
2.0275e-05
-4.3701e-06
2.52904e-05
-1.31716e-05
3.0145e-05
-2.32047e-05
3.46096e-05
-3.45581e-05
3.88533e-05
-4.70117e-05
4.25005e-05
-6.04475e-05
4.55733e-05
-7.45733e-05
4.78845e-05
-8.92598e-05
4.94212e-05
-0.000104247
5.00248e-05
-0.000119247
4.96975e-05
-0.00013401
4.84544e-05
-0.000148286
4.63103e-05
-0.000161792
4.31783e-05
-0.000174224
3.89784e-05
-0.000185239
3.35959e-05
-0.000194395
2.68118e-05
-0.000201125
1.84044e-05
-0.000204838
8.11762e-06
-0.000204696
-4.43055e-06
-0.000199784
-1.93988e-05
-0.000189265
-3.64718e-05
-0.000172579
-5.45954e-05
-0.000149837
-7.17476e-05
-0.000122248
-8.51451e-05
-9.21349e-05
-9.19112e-05
-6.26731e-05
-9.03009e-05
-3.68322e-05
-8.10332e-05
-1.59447e-05
-6.90069e-05
-5.78279e-05
1.72313e-05
-7.50769e-05
4.13361e-05
-9.21468e-05
7.19789e-05
-0.000110046
0.000106755
-0.000122941
0.000141376
-0.000124028
0.000171775
-0.000112977
0.000195389
-9.30392e-05
0.000211468
-6.87668e-05
0.000220534
-4.41674e-05
0.000223694
-2.17173e-05
0.000222168
-2.5081e-06
0.00021698
1.3364e-05
0.000208971
2.62176e-05
0.000198732
3.65905e-05
0.000186721
4.49109e-05
0.00017331
5.15278e-05
0.000158812
5.67229e-05
0.000143532
6.05736e-05
0.000127743
6.31662e-05
0.000111737
6.45072e-05
9.5766e-05
6.46385e-05
8.01377e-05
6.35784e-05
6.50881e-05
6.14255e-05
5.08488e-05
5.82701e-05
3.76203e-05
5.42207e-05
2.55751e-05
4.93971e-05
1.48617e-05
4.39677e-05
5.59877e-06
3.80251e-05
-2.21414e-06
3.17843e-05
-8.47861e-06
2.53225e-05
-1.32204e-05
1.88416e-05
-1.645e-05
1.24294e-05
-1.8219e-05
6.26496e-06
-1.85943e-05
4.88663e-07
-1.76975e-05
-4.82186e-06
-1.56713e-05
-9.55848e-06
-1.26859e-05
-1.35614e-05
-8.94291e-06
-1.66922e-05
-4.66865e-06
-1.88343e-05
-1.26499e-07
-1.9893e-05
4.4051e-06
-1.98216e-05
8.65028e-06
-1.86183e-05
1.23304e-05
-1.63322e-05
1.52373e-05
-1.30932e-05
1.71541e-05
-8.98451e-06
1.79042e-05
-4.13457e-06
1.73518e-05
1.3179e-06
1.53759e-05
7.28317e-06
1.1903e-05
1.36315e-05
6.86385e-06
2.02143e-05
2.73774e-07
2.68647e-05
-7.87693e-06
3.34409e-05
-1.75138e-05
3.97817e-05
-2.86805e-05
4.57764e-05
-4.10474e-05
5.12203e-05
-5.46331e-05
5.60865e-05
-6.92361e-05
6.01769e-05
-8.46822e-05
6.33312e-05
-0.000100661
6.54005e-05
-0.000116934
6.6298e-05
-0.000133215
6.59779e-05
-0.00014925
6.44894e-05
-0.000164734
6.17947e-05
-0.0001794
5.78439e-05
-0.000192972
5.25512e-05
-0.000205138
4.57617e-05
-0.000215522
3.71948e-05
-0.000223644
2.65279e-05
-0.000228814
1.32877e-05
-0.000230256
-2.98858e-06
-0.000226863
-2.27919e-05
-0.000217426
-4.59075e-05
-0.000200698
-7.13215e-05
-0.000176161
-9.62837e-05
-0.000144675
-0.000116631
-0.000108909
-0.000127675
-7.31148e-05
-0.000126098
-4.1793e-05
-0.000112354
-1.72756e-05
-9.35275e-05
-7.51023e-05
1.93762e-05
-9.44529e-05
4.94062e-05
-0.000122176
8.85236e-05
-0.000149163
0.000132375
-0.000166793
0.000174027
-0.000165679
0.000207867
-0.000146818
0.000231364
-0.000116536
0.000244865
-8.22685e-05
0.000250279
-4.95808e-05
0.000249729
-2.11667e-05
0.000244972
2.24882e-06
0.000237199
2.11368e-05
0.000227145
3.62729e-05
0.000215272
4.84641e-05
0.000201852
5.83317e-05
0.000187125
6.62558e-05
0.000171354
7.24955e-05
0.000154791
7.71383e-05
0.000137697
8.02599e-05
0.00012036
8.18439e-05
0.000103091
8.19072e-05
8.61452e-05
8.05239e-05
6.98373e-05
7.77322e-05
5.44093e-05
7.36969e-05
4.01166e-05
6.85119e-05
2.70965e-05
6.24156e-05
1.55192e-05
5.55432e-05
5.5524e-06
4.79902e-05
-2.85919e-06
4.01945e-05
-9.61235e-06
3.20751e-05
-1.4702e-05
2.39315e-05
-1.81707e-05
1.58992e-05
-2.0062e-05
8.15773e-06
-2.04536e-05
8.81693e-07
-1.94663e-05
-5.80809e-06
-1.72575e-05
-1.17668e-05
-1.40018e-05
-1.68173e-05
-9.91267e-06
-2.07822e-05
-5.2358e-06
-2.35127e-05
-2.57161e-07
-2.48733e-05
4.71855e-06
-2.47991e-05
9.37448e-06
-2.32757e-05
1.34387e-05
-2.03977e-05
1.66164e-05
-1.62721e-05
1.87204e-05
-1.10895e-05
1.95529e-05
-4.96797e-06
1.89794e-05
1.89075e-06
1.68678e-05
9.39441e-06
1.31325e-05
1.73668e-05
7.72035e-06
2.56266e-05
6.4836e-07
3.3937e-05
-8.12691e-06
4.22165e-05
-1.85211e-05
5.01763e-05
-3.04576e-05
5.77131e-05
-4.38778e-05
6.46403e-05
-5.85872e-05
7.07957e-05
-7.4385e-05
7.59748e-05
-9.10182e-05
7.99645e-05
-0.000108316
8.26986e-05
-0.000125918
8.38995e-05
-0.000143541
8.36009e-05
-0.000160887
8.18352e-05
-0.000177657
7.85657e-05
-0.000193592
7.37802e-05
-0.000208451
6.74126e-05
-0.000222032
5.93429e-05
-0.00023411
4.92734e-05
-0.000244338
3.67564e-05
-0.000252263
2.12132e-05
-0.000257087
1.83476e-06
-0.000257662
-2.2216e-05
-0.000252097
-5.14718e-05
-0.000238079
-8.53397e-05
-0.000213609
-0.000120756
-0.000178459
-0.000151783
-0.000135327
-0.000170809
-9.01034e-05
-0.000171323
-4.99519e-05
-0.000152505
-1.94076e-05
-0.000124075
-9.45096e-05
2.3178e-05
-0.000117631
6.31982e-05
-0.000162196
0.000115773
-0.000201739
0.000172397
-0.000223418
0.000222525
-0.000215808
0.000258945
-0.000183237
0.000279744
-0.000137335
0.00028725
-8.97743e-05
0.000285606
-4.79371e-05
0.000278611
-1.41719e-05
0.00026868
1.21795e-05
0.00025704
3.27773e-05
0.000244168
4.91449e-05
0.000230173
6.24607e-05
0.000215048
7.3457e-05
0.000198801
8.2503e-05
0.000181561
8.97362e-05
0.000163502
9.51975e-05
0.000144909
9.88537e-05
0.000126068
0.000100685
0.000107269
0.000100708
8.88629e-05
9.89311e-05
7.12254e-05
9.53714e-05
5.45787e-05
9.03454e-05
3.91037e-05
8.39891e-05
2.51815e-05
7.63403e-05
1.28114e-05
6.79155e-05
2.18344e-06
5.86204e-05
-6.64737e-06
4.90272e-05
-1.36757e-05
3.91048e-05
-1.89006e-05
2.91566e-05
-2.236e-05
1.93576e-05
-2.41156e-05
9.91176e-06
-2.42507e-05
1.0151e-06
-2.28849e-05
-7.17549e-06
-2.01795e-05
-1.44735e-05
-1.63165e-05
-2.0681e-05
-1.15204e-05
-2.55783e-05
-6.06282e-06
-2.89697e-05
-2.61804e-07
-3.06736e-05
5.54051e-06
-3.06006e-05
1.09956e-05
-2.87301e-05
1.57629e-05
-2.51642e-05
1.95787e-05
-2.00871e-05
2.21916e-05
-1.37019e-05
2.3404e-05
-6.17987e-06
2.30631e-05
2.23198e-06
2.10636e-05
1.13939e-05
1.73191e-05
2.11112e-05
1.17603e-05
3.11852e-05
4.35284e-06
4.13442e-05
-4.90911e-06
5.14781e-05
-1.59274e-05
6.11941e-05
-2.86659e-05
7.04511e-05
-4.30738e-05
7.90477e-05
-5.88856e-05
8.66073e-05
-7.59475e-05
9.30369e-05
-9.40617e-05
9.80794e-05
-0.000112746
0.000101384
-0.000131839
0.000102993
-0.000150989
0.000102752
-0.000169854
0.0001007
-0.000188117
9.68293e-05
-0.00020554
9.12038e-05
-0.00022196
8.38334e-05
-0.000237268
7.46518e-05
-0.000251495
6.35009e-05
-0.000264646
4.99064e-05
-0.000276623
3.31892e-05
-0.000286958
1.21694e-05
-0.000294315
-1.48595e-05
-0.000296076
-4.9711e-05
-0.000288166
-9.32525e-05
-0.000266379
-0.000142545
-0.000228359
-0.000189802
-0.000176377
-0.000222791
-0.000117954
-0.000229745
-6.39891e-05
-0.000206472
-2.31446e-05
-0.000164918
-0.000117655
2.92678e-05
-0.000146898
8.42168e-05
-0.000217146
0.000154411
-0.000271934
0.000225487
-0.000294494
0.00028353
-0.00027385
0.000320828
-0.000220535
0.000336815
-0.000153323
0.000335969
-8.89287e-05
0.000324915
-3.68834e-05
0.000309429
1.31346e-06
0.000292976
2.86326e-05
0.000276712
4.90411e-05
0.000260623
6.52338e-05
0.000244295
7.87879e-05
0.000227293
9.04611e-05
0.00020935
0.000100447
0.000190416
0.000108672
0.000170638
0.000114976
0.000150248
0.000119246
0.000129591
0.000121342
0.000109066
0.000121234
8.90602e-05
0.000118937
6.9772e-05
0.00011466
5.17059e-05
0.000108411
3.51197e-05
0.000100574
2.01451e-05
9.13143e-05
7.10626e-06
8.09541e-05
-4.19244e-06
6.99186e-05
-1.33874e-05
5.82215e-05
-2.0536e-05
4.62527e-05
-2.57003e-05
3.43204e-05
-2.89343e-05
2.25913e-05
-3.03106e-05
1.12882e-05
-2.99248e-05
6.30148e-07
-2.79099e-05
-9.18914e-06
-2.44059e-05
-1.79762e-05
-1.96113e-05
-2.54745e-05
-1.3767e-05
-3.14218e-05
-7.16961e-06
-3.55665e-05
-1.78171e-07
-3.76646e-05
6.81406e-06
-3.75925e-05
1.34051e-05
-3.53208e-05
1.92357e-05
-3.09946e-05
2.39929e-05
-2.48441e-05
2.73962e-05
-1.71054e-05
2.92843e-05
-8.06821e-06
2.94659e-05
2.04994e-06
2.78458e-05
1.30137e-05
2.43175e-05
2.46391e-05
1.87893e-05
3.6713e-05
1.12009e-05
4.89325e-05
1.6176e-06
6.10614e-05
-1.00184e-05
7.28304e-05
-2.35887e-05
8.40217e-05
-3.89802e-05
9.44393e-05
-5.60861e-05
0.000103714
-7.46038e-05
0.000111555
-9.42148e-05
0.000117691
-0.000114694
0.000121863
-0.000135613
0.000123912
-0.00015658
0.000123718
-0.000177198
0.000121318
-0.000197199
0.00011683
-0.000216325
0.000110331
-0.000234444
0.000101953
-0.000251631
9.18388e-05
-0.000268215
8.0085e-05
-0.000284667
6.63587e-05
-0.000301505
5.00269e-05
-0.000318675
2.934e-05
-0.000334806
1.27336e-06
-0.000346134
-3.83835e-05
-0.000346613
-9.27748e-05
-0.000329437
-0.000159719
-0.000290356
-0.000228882
-0.000230186
-0.000282963
-0.000157077
-0.000302854
-8.52347e-05
-0.000278317
-2.9259e-05
-0.000220894
-0.000146915
3.76036e-05
-0.000184502
0.000110388
-0.000289932
0.000197416
-0.000358963
0.00027905
-0.000376127
0.000340768
-0.000335569
0.000376608
-0.000256376
0.000387537
-0.000164252
0.00037943
-8.0824e-05
0.000360374
-1.78273e-05
0.00033754
2.41472e-05
0.000315311
5.08613e-05
0.000295056
6.92971e-05
0.000276286
8.40044e-05
0.000257961
9.71137e-05
0.000239259
0.000109163
0.000219599
0.000120106
0.000198841
0.000129429
0.000177093
0.000136722
0.000154636
0.0001417
0.000131833
0.000144143
0.000109187
0.000143878
8.70943e-05
0.000141027
6.60436e-05
0.000135709
4.63524e-05
0.000128102
2.84124e-05
0.000118515
1.23048e-05
0.000107423
-1.69158e-06
9.49511e-05
-1.33586e-05
8.15864e-05
-2.27595e-05
6.76237e-05
-2.99016e-05
5.33962e-05
-3.48241e-05
3.92445e-05
-3.76378e-05
2.54065e-05
-3.8416e-05
1.20679e-05
-3.72774e-05
-5.07561e-07
-3.43466e-05
-1.21197e-05
-2.97711e-05
-2.25518e-05
-2.3762e-05
-3.1484e-05
-1.65741e-05
-3.86103e-05
-8.53173e-06
-4.36095e-05
-3.23858e-08
-4.61644e-05
8.46598e-06
-4.60911e-05
1.65066e-05
-4.33615e-05
2.36895e-05
-3.81776e-05
2.96632e-05
-3.08177e-05
3.41425e-05
-2.15845e-05
3.69225e-05
-1.08479e-05
3.78641e-05
1.10869e-06
3.68277e-05
1.40505e-05
3.37168e-05
2.77503e-05
2.84277e-05
4.20025e-05
2.08524e-05
5.6508e-05
1.10041e-05
7.09098e-05
-1.17936e-06
8.50136e-05
-1.56488e-05
9.84906e-05
-3.21963e-05
0.000110986
-5.07375e-05
0.000122254
-7.09163e-05
0.000131733
-9.24859e-05
0.00013926
-0.000115012
0.000144389
-0.000138072
0.000146971
-0.000161181
0.000146826
-0.000183914
0.00014405
-0.000205857
0.000138773
-0.000226752
0.000131225
-0.000246532
0.000121733
-0.000265412
0.000110719
-0.000283978
9.86504e-05
-0.000303165
8.55455e-05
-0.000324071
7.09336e-05
-0.000347067
5.23379e-05
-0.000370599
2.4805e-05
-0.000389731
-1.92516e-05
-0.000397157
-8.53488e-05
-0.000384916
-0.00017196
-0.000347326
-0.000266474
-0.000283742
-0.000346548
-0.000200261
-0.000386335
-0.000111541
-0.000367036
-3.76733e-05
-0.000294763
-0.000184585
4.7276e-05
-0.000231778
0.000134917
-0.000377574
0.000230348
-0.000454394
0.000312211
-0.000457991
0.000370214
-0.000393573
0.000402177
-0.000288339
0.000410618
-0.000172694
0.00040089
-7.10959e-05
0.00037998
3.08356e-06
0.000355354
4.8773e-05
0.000331615
7.46004e-05
0.000310215
9.06963e-05
0.000290534
0.000103684
0.000271327
0.00011632
0.00025145
0.00012904
0.000230266
0.000141289
0.0002076
0.000152095
0.000183603
0.00016072
0.000158704
0.000166601
0.000133403
0.000169445
0.000108234
0.000169048
8.37548e-05
0.000165508
6.04932e-05
0.000158972
3.88685e-05
0.000149727
1.92922e-05
0.000138091
2.01898e-06
0.000124696
-1.27621e-05
0.000109733
-2.4936e-05
9.37604e-05
-3.45036e-05
7.71918e-05
-4.15388e-05
6.04318e-05
-4.60047e-05
4.37109e-05
-4.81917e-05
2.75938e-05
-4.81085e-05
1.19849e-05
-4.59867e-05
-2.62896e-06
-4.1902e-05
-1.6204e-05
-3.6044e-05
-2.84094e-05
-2.85891e-05
-3.89383e-05
-1.97949e-05
-4.74036e-05
-1.00734e-05
-5.33299e-05
1.63838e-07
-5.64007e-05
1.0399e-05
-5.63253e-05
2.01241e-05
-5.30857e-05
2.88837e-05
-4.69362e-05
3.62959e-05
-3.82291e-05
4.20921e-05
-2.73799e-05
4.60469e-05
-1.4802e-05
4.79835e-05
-8.27438e-07
4.77728e-05
1.42614e-05
4.52771e-05
3.02461e-05
4.03702e-05
4.69093e-05
3.29497e-05
6.39285e-05
2.28493e-05
8.10101e-05
1.01815e-05
9.7681e-05
-5.19543e-06
0.000113867
-2.30682e-05
0.000128858
-4.32682e-05
0.000142453
-6.54399e-05
0.000153904
-8.92862e-05
0.000163106
-0.000114278
0.00016938
-0.000139878
0.00017257
-0.000165548
0.000172495
-0.000190696
0.000169197
-0.000214821
0.000162896
-0.000237523
0.000153927
-0.000258714
0.000142923
-0.000278617
0.000130622
-0.000297941
0.000117973
-0.000317959
0.000105564
-0.000339865
9.28399e-05
-0.000364161
7.66352e-05
-0.000389057
4.97003e-05
-0.000409676
1.3672e-06
-0.000418332
-7.66906e-05
-0.000408814
-0.000181476
-0.000375631
-0.000299658
-0.000316389
-0.000405788
-0.000233096
-0.000469627
-0.000136136
-0.000463993
-4.73381e-05
-0.00038356
-0.000231924
5.55233e-05
-0.000287302
0.000148162
-0.000470213
0.000237863
-0.000544096
0.000308022
-0.000528151
0.000355569
-0.00044112
0.00038267
-0.000315441
0.000392183
-0.000182207
0.000388232
-6.71458e-05
0.000374671
1.66454e-05
0.000356921
6.65214e-05
0.000338413
9.31087e-05
0.000320563
0.000108548
0.000302971
0.000121278
0.000284583
0.00013471
0.000264391
0.000149234
0.000241949
0.000163733
0.000217252
0.000176793
0.000190718
0.000187255
0.000162936
0.000194382
0.000134612
0.000197769
0.000106383
0.000197275
7.90242e-05
0.000192864
5.31648e-05
0.00018483
2.93338e-05
0.000173557
7.92424e-06
0.0001595
-1.06842e-05
0.000143303
-2.63316e-05
0.000125379
-3.895e-05
0.000106378
-4.8516e-05
8.67573e-05
-5.51261e-05
6.70415e-05
-5.90248e-05
4.76091e-05
-6.02273e-05
2.87958e-05
-5.90844e-05
1.08415e-05
-5.56976e-05
-6.01612e-06
-5.02162e-05
-2.16856e-05
-4.28349e-05
-3.57907e-05
-3.37775e-05
-4.79956e-05
-2.32866e-05
-5.78943e-05
-1.17209e-05
-6.48952e-05
3.98942e-07
-6.852e-05
1.25256e-05
-6.84513e-05
2.41129e-05
-6.46723e-05
3.46426e-05
-5.74651e-05
4.37225e-05
-4.73081e-05
5.10427e-05
-3.46991e-05
5.63924e-05
-2.01505e-05
5.95917e-05
-4.02567e-06
6.04766e-05
1.33776e-05
5.8815e-05
3.19087e-05
5.45089e-05
5.12164e-05
4.73689e-05
7.10693e-05
3.72594e-05
9.11202e-05
2.39973e-05
0.000110943
7.69565e-06
0.000130169
-1.17052e-05
0.000148258
-3.36829e-05
0.00016443
-5.82782e-05
0.000178499
-8.47231e-05
0.00018955
-0.000112648
0.000197304
-0.000141342
0.000201263
-0.000170059
0.000201212
-0.00019807
0.000197206
-0.00022463
0.000189455
-0.000249226
0.000178522
-0.000271482
0.000165179
-0.000291515
0.000150652
-0.000309815
0.000136273
-0.000327412
0.00012316
-0.000345372
0.000110799
-0.000363881
9.51433e-05
-0.000381307
6.71256e-05
-0.000394048
1.41085e-05
-0.000397447
-7.32897e-05
-0.000387057
-0.000191863
-0.000359661
-0.000327046
-0.000311763
-0.000453684
-0.000240762
-0.000540628
-0.000149663
-0.000555095
-5.55763e-05
-0.000477643
-0.000287501
5.88577e-05
-0.000346161
0.000143019
-0.000554374
0.000213938
-0.000615016
0.000264498
-0.000578711
0.000298849
-0.000475471
0.000322026
-0.000338618
0.000336919
-0.0001971
0.000344517
-7.47439e-05
0.000346139
1.50236e-05
0.000342895
6.97669e-05
0.000336113
9.989e-05
0.00032653
0.000118131
0.000314152
0.000133656
0.000298312
0.000150549
0.000278565
0.00016898
0.000254992
0.000187305
0.000228024
0.00020376
0.0001984
0.000216879
0.000167079
0.000225702
0.000134986
0.000229861
0.000103105
0.000229157
7.23016e-05
0.000223668
4.33736e-05
0.000213758
1.69813e-05
0.000199949
-6.44322e-06
0.000182924
-2.64659e-05
0.000163326
-4.29293e-05
0.000141842
-5.57575e-05
0.000119206
-6.50816e-05
9.60808e-05
-7.10503e-05
7.30099e-05
-7.38864e-05
5.04449e-05
-7.39007e-05
2.88099e-05
-7.12858e-05
8.22676e-06
-6.63269e-05
-1.09747e-05
-5.92304e-05
-2.87816e-05
-5.01279e-05
-4.48927e-05
-3.92429e-05
-5.88802e-05
-2.6901e-05
-7.02359e-05
-1.3433e-05
-7.83629e-05
6.43373e-07
-8.25958e-05
1.47505e-05
-8.25578e-05
2.82958e-05
-7.8217e-05
4.0761e-05
-6.99293e-05
5.17103e-05
-5.82563e-05
6.08307e-05
-4.38185e-05
6.79062e-05
-2.72251e-05
7.26607e-05
-8.77939e-06
7.48929e-05
1.11459e-05
7.44981e-05
3.23038e-05
7.11286e-05
5.45861e-05
6.45401e-05
7.76581e-05
5.45456e-05
0.000101115
4.10398e-05
0.000124449
2.38582e-05
0.00014735
3.16451e-06
0.000168952
-2.10335e-05
0.000188628
-4.82406e-05
0.000205706
-7.79697e-05
0.000219279
-0.000109517
0.000228851
-0.000141999
0.000233743
-0.000174502
0.000233714
-0.000206005
0.000228708
-0.000235545
0.000218994
-0.000262231
0.000205208
-0.000285393
0.00018834
-0.000304661
0.00016992
-0.000320095
0.000151706
-0.000332119
0.000135184
-0.000341229
0.000119908
-0.000347464
0.000101375
-0.000350001
6.96615e-05
-0.000347535
1.16435e-05
-0.000339317
-8.15046e-05
-0.000324488
-0.000206677
-0.000301754
-0.000349779
-0.000267933
-0.000487499
-0.00021721
-0.000591351
-0.000145124
-0.000627183
-5.92371e-05
-0.00056353
-0.000346738
5.53878e-05
-0.000401549
0.000119773
-0.000618759
0.000165627
-0.000660871
0.000195916
-0.000609001
0.000219086
-0.000498641
0.000241005
-0.000360538
0.000263637
-0.000219732
0.000285888
-9.69941e-05
0.000305815
-4.90417e-06
0.000320725
5.48568e-05
0.000329187
9.1427e-05
0.00033083
0.000116488
0.000325417
0.000139068
0.000312974
0.000162991
0.000293831
0.000188123
0.000268783
0.000212351
0.000238917
0.000233626
0.000205466
0.000250331
0.000169662
0.000261507
0.000132943
0.000266581
9.65276e-05
0.000265573
6.15695e-05
0.000258627
2.90242e-05
0.000246304
-2.78358e-07
0.000229253
-2.57656e-05
0.000208413
-4.70916e-05
0.000184653
-6.41477e-05
0.000158899
-7.69179e-05
0.000131977
-8.5558e-05
0.000104721
-9.03172e-05
7.77696e-05
-9.16186e-05
5.17468e-05
-8.97525e-05
2.69444e-05
-8.52005e-05
3.67523e-06
-7.82211e-05
-1.79536e-05
-6.90551e-05
-3.79471e-05
-5.79765e-05
-5.5971e-05
-4.51044e-05
-7.17521e-05
-3.07836e-05
-8.45566e-05
-1.52957e-05
-9.38507e-05
8.84449e-07
-9.87758e-05
1.713e-05
-9.88031e-05
3.28434e-05
-9.39303e-05
4.74654e-05
-8.45511e-05
6.05576e-05
-7.13485e-05
7.1807e-05
-5.50678e-05
8.08987e-05
-3.63169e-05
8.7673e-05
-1.5554e-05
9.18677e-05
6.95087e-06
9.31774e-05
3.09938e-05
9.12396e-05
5.65237e-05
8.57861e-05
8.31113e-05
7.64752e-05
0.000110425
6.29302e-05
0.000137994
4.51417e-05
0.000165138
2.309e-05
0.000191002
-3.23938e-06
0.000214956
-3.33818e-05
0.000235847
-6.68501e-05
0.000252746
-0.000102736
0.000264737
-0.000139925
0.000270932
-0.00017718
0.00027097
-0.00021319
0.000264718
-0.000246538
0.000252343
-0.000275976
0.000234645
-0.000300345
0.00021271
-0.000318726
0.000188302
-0.000330383
0.000163364
-0.000334966
0.000139767
-0.000332454
0.000117397
-0.000322953
9.1877e-05
-0.000307219
5.3928e-05
-0.000286715
-8.85917e-06
-0.000264153
-0.000104058
-0.000242012
-0.000228817
-0.00022109
-0.0003707
-0.000198788
-0.000509813
-0.000169091
-0.000621048
-0.000122523
-0.000673748
-5.62073e-05
-0.000629845
-0.000402947
4.55614e-05
-0.000447111
8.52498e-05
-0.000658447
0.000107147
-0.000682769
0.00012157
-0.000623425
0.00013861
-0.000515681
0.000162306
-0.000384233
0.000193743
-0.000251169
0.000230299
-0.000133551
0.000267408
-4.20131e-05
0.000299777
2.24869e-05
0.000323113
6.80907e-05
0.000335695
0.000103904
0.000336985
0.000137777
0.000327434
0.00017254
0.000308222
0.000207334
0.0002807
0.000239873
0.000246778
0.000267548
0.000208161
0.000288949
0.000166778
0.000302889
0.00012428
0.000309079
8.23255e-05
0.000307528
4.24146e-05
0.000298539
5.81482e-06
0.000282906
-2.64952e-05
0.000261565
-5.39784e-05
0.000235898
-7.63971e-05
0.000207073
-9.3537e-05
0.00017604
-0.000105597
0.000144037
-0.000112697
0.000111822
-0.000115404
8.04771e-05
-0.000114213
5.0555e-05
-0.00010965
2.23813e-05
-0.000102373
-3.60165e-06
-9.26054e-05
-2.77215e-05
-8.08289e-05
-4.97238e-05
-6.7277e-05
-6.95232e-05
-5.21067e-05
-8.69226e-05
-3.54424e-05
-0.000101221
-1.75458e-05
-0.000111748
1.19018e-06
-0.000117512
2.00581e-05
-0.000117671
3.83904e-05
-0.000112263
5.5509e-05
-0.00010167
7.11535e-05
-8.6993e-05
8.49572e-05
-6.88715e-05
9.67069e-05
-4.80666e-05
0.000106184
-2.50315e-05
0.000113045
8.99099e-08
0.000117031
2.70072e-05
0.000117485
5.60699e-05
0.000114127
8.6468e-05
0.000106259
0.000118293
9.35081e-05
0.000150744
7.57008e-05
0.000182944
5.25476e-05
0.000214155
2.42579e-05
0.000243245
-9.00221e-06
0.000269107
-4.66588e-05
0.000290403
-8.76654e-05
0.000305744
-0.00013068
0.000313948
-0.000173972
0.000314263
-0.000215778
0.000306524
-0.000254307
0.000290872
-0.000287763
0.000268101
-0.00031445
0.000239397
-0.000332694
0.000206548
-0.000341192
0.000171863
-0.000338773
0.000137349
-0.000324864
0.000103489
-0.000300353
6.73657e-05
-0.000267127
2.07014e-05
-0.000229691
-4.62954e-05
-0.000193269
-0.00014048
-0.000162394
-0.000259691
-0.000139405
-0.00039369
-0.000123559
-0.000525671
-0.000110036
-0.000634571
-8.80981e-05
-0.000695686
-4.67691e-05
-0.000671173
-0.000449717
3.21768e-05
-0.000479288
4.76801e-05
-0.00067395
5.00965e-05
-0.000685186
5.46951e-05
-0.000628023
7.01164e-05
-0.000531102
9.89798e-05
-0.000413097
0.000139526
-0.000291714
0.000188085
-0.000182109
0.000238517
-9.24441e-05
0.000284475
-2.3471e-05
0.00031912
3.34468e-05
0.000339838
8.31865e-05
0.000345686
0.00013193
0.000337381
0.000180846
0.000316377
0.000228338
0.000285164
0.000271086
0.000245709
0.000307003
0.000200669
0.000333989
0.00015212
0.000351439
0.000102451
0.00035875
5.38702e-05
0.00035611
8.23948e-06
0.000344171
-3.27188e-05
0.000323865
-6.7988e-05
0.000296834
-9.71167e-05
0.000265027
-0.000119901
0.000229857
-0.000136339
0.000192479
-0.000146567
0.000154266
-0.000151002
0.000116258
-0.000150203
7.96777e-05
-0.000145171
4.55233e-05
-0.000136568
1.37787e-05
-0.000125253
-1.49169e-05
-0.000111707
-4.12677e-05
-9.62968e-05
-6.51334e-05
-7.93574e-05
-8.64625e-05
-6.10022e-05
-0.000105278
-4.12319e-05
-0.000120991
-2.02571e-05
-0.000132722
1.6029e-06
-0.000139372
2.38542e-05
-0.000139922
4.54433e-05
-0.000133852
6.6089e-05
-0.000122315
8.50664e-05
-0.00010597
0.000102397
-8.62015e-05
0.000117869
-6.35382e-05
0.000131084
-3.82462e-05
0.000141867
-1.06932e-05
0.000149666
1.92073e-05
0.00015406
5.16761e-05
0.000154091
8.6436e-05
0.000149119
0.000123265
0.000138335
0.000161527
0.000121345
0.000199934
9.79328e-05
0.000237568
6.80456e-05
0.000273133
3.18585e-05
0.000305295
-1.0232e-05
0.000332494
-5.71626e-05
0.000352675
-0.000107108
0.000363893
-0.000157939
0.000365095
-0.000207339
0.000355924
-0.000252689
0.000336223
-0.0002918
0.000307212