/*--------------------------------*- C++ -*----------------------------------*\
| =========                 |                                                 |
| \\      /  F ield         | OpenFOAM: The Open Source CFD Toolbox           |
|  \\    /   O peration     | Version:  2412                                  |
|   \\  /    A nd           | Website:  www.openfoam.com                      |
|    \\/     M anipulation  |                                                 |
\*---------------------------------------------------------------------------*/
FoamFile
{
    version     2.0;
    format      ascii;
    arch        "LSB;label=32;scalar=64";
    class       surfaceScalarField;
    location    "3.7";
    object      phi;
}
// * * * * * * * * * * * * * * * * * * * * * * * * * * * * * * * * * * * * * //

dimensions      [0 3 -1 0 0 0 0];

oriented        oriented;

internalField   nonuniform List<scalar> 
12640
(
8.20311e-08
-8.20366e-08
4.94263e-07
-4.11241e-07
1.16108e-06
-6.65918e-07
1.95926e-06
-7.97415e-07
2.79455e-06
-8.34538e-07
3.60528e-06
-8.10337e-07
4.35736e-06
-7.51708e-07
5.03511e-06
-6.77478e-07
5.63482e-06
-5.99693e-07
6.15965e-06
-5.24882e-07
6.61506e-06
-4.55539e-07
7.007e-06
-3.92186e-07
7.34059e-06
-3.3393e-07
7.61933e-06
-2.79171e-07
7.84525e-06
-2.2646e-07
8.01932e-06
-1.7476e-07
8.14168e-06
-1.23284e-07
8.21193e-06
-7.14339e-08
8.22961e-06
-1.89953e-08
8.19462e-06
3.38375e-08
8.10734e-06
8.65522e-08
7.96862e-06
1.38536e-07
7.77981e-06
1.89124e-07
7.54279e-06
2.37684e-07
7.26004e-06
2.83614e-07
6.93461e-06
3.26359e-07
6.57013e-06
3.6541e-07
6.17067e-06
4.00341e-07
5.74064e-06
4.30847e-07
5.28461e-06
4.56773e-07
4.80713e-06
4.78134e-07
4.31263e-06
4.95084e-07
3.80523e-06
5.07915e-07
3.28859e-06
5.17081e-07
2.76584e-06
5.23119e-07
2.23947e-06
5.26684e-07
1.71132e-06
5.28402e-07
1.18265e-06
5.28849e-07
6.54178e-07
5.28571e-07
1.26155e-07
5.28042e-07
-4.01371e-07
5.2746e-07
-9.2837e-07
5.26852e-07
-1.45476e-06
5.26184e-07
-1.98007e-06
5.25053e-07
-2.50341e-06
5.23066e-07
-3.02349e-06
5.19801e-07
-3.53831e-06
5.14547e-07
-4.0452e-06
5.0665e-07
-4.54085e-06
4.95449e-07
-5.02137e-06
4.80372e-07
-5.48258e-06
4.61135e-07
-5.92003e-06
4.37456e-07
-6.32912e-06
4.09185e-07
-6.70537e-06
3.76459e-07
-7.04452e-06
3.39479e-07
-7.34261e-06
2.98535e-07
-7.59617e-06
2.54125e-07
-7.80225e-06
2.06755e-07
-7.95849e-06
1.57012e-07
-8.06311e-06
1.05472e-07
-8.11493e-06
5.27097e-08
-8.1133e-06
-7.16293e-10
-8.05801e-06
-5.43948e-08
-7.94908e-06
-1.08083e-07
-7.7865e-06
-1.6182e-07
-7.56995e-06
-2.15921e-07
-7.2984e-06
-2.71054e-07
-6.9697e-06
-3.28338e-07
-6.58035e-06
-3.89083e-07
-6.12555e-06
-4.54566e-07
-5.59979e-06
-5.25555e-07
-4.99808e-06
-6.01504e-07
-4.31837e-06
-6.7952e-07
-3.56532e-06
-7.52957e-07
-2.75558e-06
-8.09827e-07
-1.92461e-06
-8.313e-07
-1.13415e-06
-7.91082e-07
-4.78071e-07
-6.56945e-07
-7.68352e-08
-4.02256e-07
-7.77543e-08
4.13721e-07
-4.94593e-07
1.51365e-06
-1.50949e-06
3.09195e-06
-2.24286e-06
4.92454e-06
-2.62906e-06
6.82832e-06
-2.73736e-06
8.6763e-06
-2.65773e-06
1.03934e-05
-2.46841e-06
1.19432e-05
-2.2271e-06
1.33156e-05
-1.97214e-06
1.4516e-05
-1.72543e-06
1.55565e-05
-1.49632e-06
1.64507e-05
-1.28695e-06
1.72108e-05
-1.09476e-06
1.78455e-05
-9.14848e-07
1.83603e-05
-7.42326e-07
1.87575e-05
-5.73319e-07
1.90377e-05
-4.04887e-07
1.92001e-05
-2.35033e-07
1.92431e-05
-6.30448e-08
1.9166e-05
1.10507e-07
1.89684e-05
2.84107e-07
1.86517e-05
4.55801e-07
1.82183e-05
6.23454e-07
1.76723e-05
7.84927e-07
1.70191e-05
9.38145e-07
1.62657e-05
1.08115e-06
1.54203e-05
1.21214e-06
1.44922e-05
1.3296e-06
1.34917e-05
1.43238e-06
1.24295e-05
1.51987e-06
1.13163e-05
1.59199e-06
1.01627e-05
1.6492e-06
8.97855e-06
1.69253e-06
7.77249e-06
1.72346e-06
6.55193e-06
1.74388e-06
5.32279e-06
1.75594e-06
4.08938e-06
1.76181e-06
2.85459e-06
1.76354e-06
1.61997e-06
1.76298e-06
3.86064e-07
1.76163e-06
-8.47211e-07
1.76034e-06
-2.08004e-06
1.75921e-06
-3.31228e-06
1.75791e-06
-4.54303e-06
1.75527e-06
-5.77034e-06
1.74985e-06
-6.99099e-06
1.73996e-06
-8.20028e-06
1.7234e-06
-9.39188e-06
1.69791e-06
-1.05579e-05
1.66124e-06
-1.16891e-05
1.61148e-06
-1.27753e-05
1.54741e-06
-1.38059e-05
1.46822e-06
-1.47699e-05
1.37356e-06
-1.56566e-05
1.26377e-06
-1.64561e-05
1.13969e-06
-1.71592e-05
1.00252e-06
-1.77578e-05
8.5387e-07
-1.82455e-05
6.95591e-07
-1.86169e-05
5.29719e-07
-1.88683e-05
3.58266e-07
-1.89975e-05
1.83226e-07
-1.90034e-05
6.38524e-09
-1.88857e-05
-1.70893e-07
-1.86448e-05
-3.47962e-07
-1.82808e-05
-5.25046e-07
-1.77926e-05
-7.03466e-07
-1.71775e-05
-8.85693e-07
-1.64299e-05
-1.07551e-06
-1.55414e-05
-1.27732e-06
-1.45005e-05
-1.49518e-06
-1.32946e-05
-1.73112e-06
-1.19132e-05
-1.9826e-06
-1.03533e-05
-2.23929e-06
-8.62742e-06
-2.47891e-06
-6.77464e-06
-2.66311e-06
-4.87256e-06
-2.73427e-06
-3.04893e-06
-2.61587e-06
-1.48613e-06
-2.22099e-06
-4.03927e-07
-1.48558e-06
-4.81408e-07
6.79918e-07
-1.1736e-06
2.28234e-06
-3.11082e-06
4.4609e-06
-4.42053e-06
6.93048e-06
-5.09805e-06
9.46862e-06
-5.27496e-06
1.19204e-05
-5.10921e-06
1.41927e-05
-4.74047e-06
1.62402e-05
-4.27432e-06
1.80505e-05
-3.78233e-06
1.96313e-05
-3.30619e-06
2.09994e-05
-2.86446e-06
2.21739e-05
-2.46158e-06
2.31718e-05
-2.09274e-06
2.40055e-05
-1.74856e-06
2.46828e-05
-1.41933e-06
2.52071e-05
-1.09717e-06
2.5579e-05
-7.76105e-07
2.57968e-05
-4.52177e-07
2.58581e-05
-1.23784e-07
2.57606e-05
2.08339e-07
2.55033e-05
5.41614e-07
2.5087e-05
8.72417e-07
2.45142e-05
1.19659e-06
2.37898e-05
1.50981e-06
2.29206e-05
1.80783e-06
2.19156e-05
2.08663e-06
2.07856e-05
2.34251e-06
1.95431e-05
2.57228e-06
1.8202e-05
2.77353e-06
1.67769e-05
2.94482e-06
1.52829e-05
3.08583e-06
1.37343e-05
3.19742e-06
1.21448e-05
3.28158e-06
1.05265e-05
3.34129e-06
8.88954e-06
3.38033e-06
7.24197e-06
3.40299e-06
5.5896e-06
3.41366e-06
3.93604e-06
3.41658e-06
2.28307e-06
3.41546e-06
6.30988e-07
3.41325e-06
-1.02078e-06
3.41165e-06
-2.67303e-06
3.41103e-06
-4.32609e-06
3.41055e-06
-5.97913e-06
3.40792e-06
-7.62983e-06
3.40018e-06
-9.27391e-06
3.38372e-06
-1.0905e-05
3.35419e-06
-1.25143e-05
3.30703e-06
-1.4091e-05
3.23777e-06
-1.56222e-05
3.14262e-06
-1.70937e-05
3.01894e-06
-1.84906e-05
2.86519e-06
-1.97978e-05
2.6809e-06
-2.10006e-05
2.46678e-06
-2.20853e-05
2.2246e-06
-2.30395e-05
1.95698e-06
-2.38527e-05
1.66725e-06
-2.4516e-05
1.3592e-06
-2.5023e-05
1.03694e-06
-2.53691e-05
7.04562e-07
-2.55518e-05
3.66042e-07
-2.55702e-05
2.48492e-08
-2.54247e-05
-3.16465e-07
-2.5116e-05
-6.56798e-07
-2.46444e-05
-9.96828e-07
-2.40086e-05
-1.33943e-06
-2.32047e-05
-1.6898e-06
-2.22249e-05
-2.05548e-06
-2.10571e-05
-2.44518e-06
-1.96855e-05
-2.86669e-06
-1.80928e-05
-3.32357e-06
-1.62645e-05
-3.81048e-06
-1.41962e-05
-4.30711e-06
-1.19038e-05
-4.77088e-06
-9.43643e-06
-5.13018e-06
-6.89074e-06
-5.27984e-06
-4.42322e-06
-5.08333e-06
-2.25589e-06
-4.38813e-06
-6.69517e-07
-3.07132e-06
-1.14965e-06
8.37104e-07
-2.01007e-06
2.7479e-06
-5.021e-06
5.28265e-06
-6.95482e-06
8.10697e-06
-7.92204e-06
1.09767e-05
-8.1443e-06
1.37273e-05
-7.85952e-06
1.62623e-05
-7.27504e-06
1.85366e-05
-6.54807e-06
2.05404e-05
-5.78583e-06
2.22856e-05
-5.05099e-06
2.37935e-05
-4.3717e-06
2.50869e-05
-3.75434e-06
2.61859e-05
-3.19118e-06
2.71056e-05
-2.66733e-06
2.78547e-05
-2.16721e-06
2.8437e-05
-1.67787e-06
2.88523e-05
-1.18963e-06
2.90981e-05
-6.96176e-07
2.91707e-05
-1.94855e-07
2.90668e-05
3.13465e-07
2.8784e-05
8.25091e-07
2.83224e-05
1.33454e-06
2.76839e-05
1.83532e-06
2.68733e-05
2.32053e-06
2.58977e-05
2.78328e-06
2.47671e-05
3.21695e-06
2.34938e-05
3.61544e-06
2.2092e-05
3.97345e-06
2.05779e-05
4.28685e-06
1.89686e-05
4.55309e-06
1.72819e-05
4.77143e-06
1.55351e-05
4.94314e-06
1.37441e-05
5.07135e-06
1.19233e-05
5.16089e-06
1.00846e-05
5.2179e-06
8.2371e-06
5.24937e-06
6.38709e-06
5.26263e-06
4.53809e-06
5.26463e-06
2.69132e-06
5.26139e-06
8.46133e-07
5.25771e-06
-9.99175e-07
5.25635e-06
-2.84665e-06
5.25799e-06
-4.69779e-06
5.26124e-06
-6.55266e-06
5.26241e-06
-8.40932e-06
5.25652e-06
-1.02633e-05
5.23739e-06
-1.21072e-05
5.19793e-06
-1.39312e-05
5.13077e-06
-1.57223e-05
5.02868e-06
-1.74654e-05
4.8855e-06
-1.91435e-05
4.69688e-06
-2.07388e-05
4.46032e-06
-2.22334e-05
4.17524e-06
-2.36098e-05
3.84299e-06
-2.48521e-05
3.46656e-06
-2.59459e-05
3.05037e-06
-2.6879e-05
2.59996e-06
-2.76419e-05
2.12156e-06
-2.82274e-05
1.62181e-06
-2.8631e-05
1.10735e-06
-2.88502e-05
5.84488e-07
-2.8885e-05
5.8634e-08
-2.87361e-05
-4.66335e-07
-2.84051e-05
-9.88796e-07
-2.78929e-05
-1.51006e-06
-2.71982e-05
-2.03492e-06
-2.63167e-05
-2.57193e-06
-2.52396e-05
-3.13315e-06
-2.39525e-05
-3.73243e-06
-2.24371e-05
-4.38213e-06
-2.06723e-05
-5.08801e-06
-1.86401e-05
-5.84212e-06
-1.63329e-05
-6.61363e-06
-1.37646e-05
-7.33836e-06
-1.0985e-05
-7.90895e-06
-8.09478e-06
-8.16895e-06
-5.26123e-06
-7.91565e-06
-2.72893e-06
-6.91893e-06
-8.2853e-07
-4.9698e-06
-1.97674e-06
9.13043e-07
-2.92289e-06
2.97545e-06
-7.08347e-06
5.67727e-06
-9.65655e-06
8.6503e-06
-1.08951e-05
1.16387e-05
-1.11324e-05
1.44773e-05
-1.0698e-05
1.70744e-05
-9.8717e-06
1.93909e-05
-8.86393e-06
2.14229e-05
-7.81739e-06
2.31875e-05
-6.81491e-06
2.47099e-05
-5.8931e-06
2.60155e-05
-5.05913e-06
2.71264e-05
-4.30126e-06
2.8058e-05
-3.59817e-06
2.88194e-05
-2.92751e-06
2.94135e-05
-2.27062e-06
2.98393e-05
-1.6137e-06
3.0093e-05
-9.47976e-07
3.01696e-05
-2.69782e-07
3.00647e-05
4.19772e-07
2.9775e-05
1.11578e-06
2.92994e-05
1.81074e-06
2.86395e-05
2.4956e-06
2.77994e-05
3.16065e-06
2.67865e-05
3.79599e-06
2.5611e-05
4.39203e-06
2.42861e-05
4.93982e-06
2.28273e-05
5.43153e-06
2.12523e-05
5.86105e-06
1.958e-05
6.2244e-06
1.78302e-05
6.52022e-06
1.60221e-05
6.75015e-06
1.41736e-05
6.91871e-06
1.23005e-05
7.03295e-06
1.04155e-05
7.10186e-06
8.52805e-06
7.13585e-06
6.644e-06
7.14578e-06
4.76591e-06
7.14191e-06
2.89351e-06
7.13309e-06
1.0244e-06
7.12625e-06
-8.45179e-07
7.12548e-06
-2.71935e-06
7.13183e-06
-4.60164e-06
7.14328e-06
-6.49391e-06
7.1545e-06
-8.3955e-06
7.15797e-06
-1.03026e-05
7.14434e-06
-1.22079e-05
7.10315e-06
-1.41009e-05
7.02357e-06
-1.59675e-05
6.89505e-06
-1.77909e-05
6.70865e-06
-1.95521e-05
6.45791e-06
-2.12313e-05
6.13919e-06
-2.28082e-05
5.75179e-06
-2.42635e-05
5.29786e-06
-2.55794e-05
4.78195e-06
-2.67403e-05
4.21068e-06
-2.77331e-05
3.59216e-06
-2.85478e-05
2.93546e-06
-2.9177e-05
2.25011e-06
-2.96162e-05
1.54552e-06
-2.98634e-05
8.30592e-07
-2.99189e-05
1.12846e-07
-2.97842e-05
-6.02326e-07
-2.94615e-05
-1.31273e-06
-2.89524e-05
-2.02029e-06
-2.82565e-05
-2.7318e-06
-2.73698e-05
-3.45936e-06
-2.62835e-05
-4.21995e-06
-2.49829e-05
-5.03321e-06
-2.3448e-05
-5.91689e-06
-2.16558e-05
-6.87989e-06
-1.95846e-05
-7.91271e-06
-1.72224e-05
-8.9751e-06
-1.45779e-05
-9.98203e-06
-1.16953e-05
-1.07905e-05
-8.67202e-06
-1.1191e-05
-5.67653e-06
-1.09096e-05
-2.96649e-06
-9.62715e-06
-9.06897e-07
-7.0274e-06
-2.88323e-06
9.37545e-07
-3.86033e-06
3.04326e-06
-9.18953e-06
5.77797e-06
-1.23913e-05
8.75613e-06
-1.38733e-05
1.17191e-05
-1.40951e-05
1.45076e-05
-1.34864e-05
1.70394e-05
-1.24029e-05
1.92841e-05
-1.11078e-05
2.12448e-05
-9.77773e-06
2.29439e-05
-8.5134e-06
2.44097e-05
-7.35781e-06
2.56685e-05
-6.31717e-06
2.67422e-05
-5.37453e-06
2.76456e-05
-4.50136e-06
2.83862e-05
-3.66801e-06
2.89657e-05
-2.84982e-06
2.93813e-05
-2.02884e-06
2.9628e-05
-1.194e-06
2.96997e-05
-3.40904e-07
2.95911e-05
5.28825e-07
2.92983e-05
1.40881e-06
2.88198e-05
2.28934e-06
2.81566e-05
3.15867e-06
2.7313e-05
4.00403e-06
2.62965e-05
4.81225e-06
2.51177e-05
5.57046e-06
2.37907e-05
6.26653e-06
2.2332e-05
6.8898e-06
2.07609e-05
7.43183e-06
1.90979e-05
7.88697e-06
1.73646e-05
8.25309e-06
1.55821e-05
8.53229e-06
1.37698e-05
8.73068e-06
1.19444e-05
8.85807e-06
1.01189e-05
8.92703e-06
8.30249e-06
8.95207e-06
6.49974e-06
8.94837e-06
4.71132e-06
8.93019e-06
2.93451e-06
8.90982e-06
1.16401e-06
8.89674e-06
-6.07032e-07
8.89658e-06
-2.38591e-06
8.91083e-06
-4.1792e-06
8.93675e-06
-5.99154e-06
8.96704e-06
-7.82456e-06
8.99119e-06
-9.67612e-06
8.99607e-06
-1.15398e-05
8.96694e-06
-1.3405e-05
8.88879e-06
-1.52569e-05
8.74702e-06
-1.70776e-05
8.52922e-06
-1.88462e-05
8.22641e-06
-2.05408e-05
7.83359e-06
-2.21391e-05
7.34993e-06
-2.362e-05
6.77851e-06
-2.4964e-05
6.12576e-06
-2.61544e-05
5.40082e-06
-2.71773e-05
4.61473e-06
-2.80219e-05
3.77968e-06
-2.86804e-05
2.9083e-06
-2.91483e-05
2.01299e-06
-2.94235e-05
1.10533e-06
-2.95063e-05
1.95112e-07
-2.93986e-05
-7.10587e-07
-2.91031e-05
-1.6087e-06
-2.86223e-05
-2.50148e-06
-2.79569e-05
-3.39746e-06
-2.71042e-05
-4.31206e-06
-2.60567e-05
-5.26717e-06
-2.48011e-05
-6.2885e-06
-2.33176e-05
-7.39991e-06
-2.15823e-05
-8.61457e-06
-1.95714e-05
-9.92309e-06
-1.72681e-05
-1.12778e-05
-1.46745e-05
-1.2575e-05
-1.18266e-05
-1.36375e-05
-8.8134e-06
-1.42031e-05
-5.79882e-06
-1.3923e-05
-3.04446e-06
-1.23804e-05
-9.3363e-07
-9.13747e-06
-3.81789e-06
9.33095e-07
-4.79359e-06
3.01519e-06
-1.12721e-05
5.69646e-06
-1.50728e-05
8.58785e-06
-1.6765e-05
1.14368e-05
-1.69438e-05
1.40948e-05
-1.61445e-05
1.6492e-05
-1.47998e-05
1.86083e-05
-1.32233e-05
2.04532e-05
-1.16226e-05
2.20528e-05
-1.01127e-05
2.34366e-05
-8.74068e-06
2.46299e-05
-7.50971e-06
2.5652e-05
-6.39642e-06
2.65151e-05
-5.36462e-06
2.7224e-05
-4.37741e-06
2.77779e-05
-3.40433e-06
2.81722e-05
-2.42369e-06
2.84002e-05
-1.42272e-06
2.84555e-05
-3.96849e-07
2.83323e-05
6.51273e-07
2.80269e-05
1.7134e-06
2.75381e-05
2.77738e-06
2.68675e-05
3.82858e-06
2.60199e-05
4.85102e-06
2.50036e-05
5.82813e-06
2.38303e-05
6.74349e-06
2.25152e-05
7.58155e-06
2.10765e-05
8.3285e-06
1.95352e-05
8.97331e-06
1.7914e-05
9.50845e-06
1.62365e-05
9.93101e-06
1.45257e-05
1.02436e-05
1.28025e-05
1.04544e-05
1.10846e-05
1.05766e-05
9.38492e-06
1.06273e-05
7.71162e-06
1.06261e-05
6.06734e-06
1.05934e-05
4.44985e-06
1.05484e-05
2.85277e-06
1.05076e-05
1.26665e-06
1.04835e-05
-3.19751e-07
1.04836e-05
-1.91817e-06
1.05099e-05
-3.53939e-06
1.05586e-05
-5.19199e-06
1.06203e-05
-6.881e-06
1.06808e-05
-8.60694e-06
1.07226e-05
-1.03651e-05
1.07256e-05
-1.21453e-05
1.06694e-05
-1.39325e-05
1.05345e-05
-1.57072e-05
1.03041e-05
-1.74467e-05
9.9661e-06
-1.91267e-05
9.51371e-06
-2.07225e-05
8.94594e-06
-2.22109e-05
8.26702e-06
-2.35704e-05
7.48548e-06
-2.47827e-05
6.61327e-06
-2.58324e-05
5.66469e-06
-2.67078e-05
4.65528e-06
-2.74001e-05
3.60086e-06
-2.79037e-05
2.5169e-06
-2.82158e-05
1.41776e-06
-2.8336e-05
3.15621e-07
-2.82658e-05
-7.80465e-07
-2.8008e-05
-1.86607e-06
-2.75659e-05
-2.94315e-06
-2.69416e-05
-4.02121e-06
-2.61347e-05
-5.11826e-06
-2.51405e-05
-6.26057e-06
-2.39485e-05
-7.47971e-06
-2.25417e-05
-8.80606e-06
-2.08973e-05
-1.02583e-05
-1.8991e-05
-1.18289e-05
-1.68029e-05
-1.34654e-05
-1.43288e-05
-1.50486e-05
-1.15954e-05
-1.63704e-05
-8.68074e-06
-1.71172e-05
-5.73859e-06
-1.68647e-05
-3.0259e-06
-1.5093e-05
-9.31332e-07
-1.12328e-05
-4.75045e-06
9.14683e-07
-5.70859e-06
2.93598e-06
-1.32941e-05
5.51384e-06
-1.76511e-05
8.2668e-06
-1.95185e-05
1.09565e-05
-1.96335e-05
1.34502e-05
-1.86388e-05
1.5692e-05
-1.70416e-05
1.76713e-05
-1.52021e-05
1.94022e-05
-1.33538e-05
2.09117e-05
-1.16223e-05
2.2227e-05
-1.00554e-05
2.337e-05
-8.65176e-06
2.43548e-05
-7.38064e-06
2.51886e-05
-6.19823e-06
2.58722e-05
-5.06099e-06
2.64013e-05
-3.93358e-06
2.67691e-05
-2.79167e-06
2.6968e-05
-1.62188e-06
2.69912e-05
-4.20522e-07
2.68339e-05
8.07958e-07
2.64936e-05
2.05292e-06
2.59708e-05
3.29946e-06
2.52688e-05
4.52994e-06
2.43942e-05
5.72517e-06
2.3357e-05
6.86508e-06
2.21708e-05
7.92961e-06
2.08529e-05
8.89954e-06
1.9424e-05
9.7577e-06
1.79076e-05
1.04902e-05
1.6329e-05
1.10876e-05
1.47145e-05
1.15461e-05
1.30897e-05
1.18691e-05
1.14773e-05
1.20675e-05
9.89579e-06
1.21588e-05
8.35816e-06
1.21657e-05
6.87083e-06
1.21142e-05
5.43361e-06
1.20314e-05
4.04021e-06
1.19426e-05
2.67928e-06
1.18693e-05
1.33583e-06
1.18277e-05
-7.24367e-09
1.18274e-05
-1.36753e-06
1.18708e-05
-2.76149e-06
1.19532e-05
-4.20289e-06
1.20622e-05
-5.70142e-06
1.21799e-05
-7.26127e-06
1.2283e-05
-8.88029e-06
1.23451e-05
-1.05494e-05
1.23391e-05
-1.22531e-05
1.22387e-05
-1.39702e-05
1.20217e-05
-1.56756e-05
1.1672e-05
-1.7342e-05
1.11805e-05
-1.89417e-05
1.05461e-05
-2.04483e-05
9.77408e-06
-2.18379e-05
8.87549e-06
-2.30896e-05
7.86539e-06
-2.4186e-05
6.76153e-06
-2.51132e-05
5.58293e-06
-2.58606e-05
4.34865e-06
-2.64205e-05
3.07719e-06
-2.67879e-05
1.78566e-06
-2.69606e-05
4.8883e-07
-2.69386e-05
-8.01891e-07
-2.6724e-05
-2.08006e-06
-2.63204e-05
-3.3462e-06
-2.57315e-05
-4.60949e-06
-2.49601e-05
-5.88914e-06
-2.40056e-05
-7.21454e-06
-2.28626e-05
-8.62242e-06
-2.15189e-05
-1.01495e-05
-1.99562e-05
-1.18208e-05
-1.81527e-05
-1.36325e-05
-1.6088e-05
-1.55302e-05
-1.37537e-05
-1.73829e-05
-1.11679e-05
-1.8956e-05
-8.39611e-06
-1.9889e-05
-5.57733e-06
-1.96836e-05
-2.95599e-06
-1.77148e-05
-9.15286e-07
-1.32749e-05
-5.66544e-06
8.9065e-07
-6.5995e-06
2.83208e-06
-1.52362e-05
5.28088e-06
-2.01004e-05
7.87328e-06
-2.21117e-05
1.03933e-05
-2.21536e-05
1.27274e-05
-2.0974e-05
1.48341e-05
-1.91488e-05
1.67098e-05
-1.70776e-05
1.83693e-05
-1.5014e-05
1.98355e-05
-1.30892e-05
2.11298e-05
-1.13495e-05
2.22663e-05
-9.78747e-06
2.32515e-05
-8.36499e-06
2.40853e-05
-7.03132e-06
2.47626e-05
-5.73759e-06
2.52752e-05
-4.44531e-06
2.5614e-05
-3.12938e-06
2.57709e-05
-1.77767e-06
2.57403e-05
-3.88959e-07
2.55196e-05
1.02937e-06
2.51095e-05
2.46362e-06
2.45135e-05
3.89581e-06
2.37385e-05
5.30532e-06
2.27943e-05
6.66981e-06
2.16939e-05
7.96586e-06
2.04543e-05
9.16973e-06
1.90959e-05
1.02585e-05
1.76428e-05
1.12114e-05
1.61219e-05
1.20117e-05
1.45624e-05
1.26476e-05
1.2994e-05
1.31149e-05
1.14456e-05
1.34179e-05
9.94235e-06
1.35711e-05
8.50397e-06
1.35975e-05
7.14293e-06
1.3527e-05
5.86345e-06
1.3394e-05
4.6615e-06
1.32337e-05
3.52543e-06
1.3079e-05
2.43747e-06
1.29575e-05
1.37552e-06
1.28899e-05
3.15041e-07
1.28881e-05
-7.69063e-07
1.29551e-05
-1.9004e-06
1.30847e-05
-3.09943e-06
1.32615e-05
-4.38182e-06
1.34625e-05
-5.75667e-06
1.36581e-05
-7.22526e-06
1.38141e-05
-8.7801e-06
1.38944e-05
-1.04052e-05
1.38643e-05
-1.20773e-05
1.36944e-05
-1.37681e-05
1.33634e-05
-1.54464e-05
1.28594e-05
-1.70803e-05
1.21806e-05
-1.86394e-05
1.13338e-05
-2.00961e-05
1.03328e-05
-2.14261e-05
9.19594e-06
-2.26087e-05
7.94469e-06
-2.3627e-05
6.60153e-06
-2.44667e-05
5.18868e-06
-2.51167e-05
3.72745e-06
-2.55684e-05
2.23754e-06
-2.58157e-05
7.36442e-07
-2.58557e-05
-7.61571e-07
-2.56884e-05
-2.24709e-06
-2.53166e-05
-3.7177e-06
-2.47457e-05
-5.18023e-06
-2.3982e-05
-6.65283e-06
-2.30308e-05
-8.16603e-06
-2.18937e-05
-9.76008e-06
-2.05666e-05
-1.14774e-05
-1.90392e-05
-1.33492e-05
-1.7296e-05
-1.53767e-05
-1.5321e-05
-1.75061e-05
-1.31055e-05
-1.95991e-05
-1.06616e-05
-2.14005e-05
-8.04197e-06
-2.25091e-05
-5.36745e-06
-2.23587e-05
-2.86253e-06
-2.02207e-05
-8.9382e-07
-1.52441e-05
-6.55789e-06
8.63639e-07
-7.46345e-06
2.7137e-06
-1.70872e-05
5.0214e-06
-2.24089e-05
7.45198e-06
-2.45436e-05
9.81998e-06
-2.45218e-05
1.20335e-05
-2.31892e-05
1.40633e-05
-2.11794e-05
1.59074e-05
-1.89219e-05
1.75749e-05
-1.66825e-05
1.90786e-05
-1.45942e-05
2.04284e-05
-1.26996e-05
2.16263e-05
-1.09852e-05
2.2668e-05
-9.40648e-06
2.35441e-05
-7.90729e-06
2.42423e-05
-6.43563e-06
2.47498e-05
-4.95234e-06
2.50555e-05
-3.4343e-06
2.51522e-05
-1.87334e-06
2.50374e-05
-2.7293e-07
2.47128e-05
1.3551e-06
2.41842e-05
2.99319e-06
2.34608e-05
4.62005e-06
2.25548e-05
6.21211e-06
2.14811e-05
7.74427e-06
2.02578e-05
9.19005e-06
1.89061e-05
1.05223e-05
1.74512e-05
1.17143e-05
1.59215e-05
1.27419e-05
1.43488e-05
1.35852e-05
1.27668e-05
1.42304e-05
1.12102e-05
1.46722e-05
9.71169e-06
1.4917e-05
8.29979e-06
1.49835e-05
6.99562e-06
1.4902e-05
5.81092e-06
1.4712e-05
4.74697e-06
1.44582e-05
3.79469e-06
1.41863e-05
2.93568e-06
1.39384e-05
2.14407e-06
1.37495e-05
1.38899e-06
1.36454e-05
6.36825e-07
1.36407e-05
-1.46627e-07
1.3739e-05
-9.93681e-07
1.39322e-05
-1.93306e-06
1.42012e-05
-2.98784e-06
1.45177e-05
-4.17342e-06
1.48442e-05
-5.49563e-06
1.51369e-05
-6.94921e-06
1.53486e-05
-8.51772e-06
1.54335e-05
-1.01752e-05
1.53527e-05
-1.18892e-05
1.50782e-05
-1.36231e-05
1.45943e-05
-1.53399e-05
1.38984e-05
-1.7004e-05
1.29989e-05
-1.85829e-05
1.19126e-05
-2.00477e-05
1.06616e-05
-2.13732e-05
9.27102e-06
-2.25378e-05
7.76675e-06
-2.35224e-05
6.17376e-06
-2.43102e-05
4.51565e-06
-2.48867e-05
2.81444e-06
-2.52401e-05
1.09026e-06
-2.5362e-05
-6.39179e-07
-2.52483e-05
-2.36029e-06
-2.48997e-05
-4.06578e-06
-2.43222e-05
-5.75731e-06
-2.35261e-05
-7.44875e-06
-2.25237e-05
-9.16858e-06
-2.13262e-05
-1.09582e-05
-1.99406e-05
-1.28637e-05
-1.83688e-05
-1.4922e-05
-1.66074e-05
-1.71392e-05
-1.46503e-05
-1.94643e-05
-1.2495e-05
-2.17553e-05
-1.01527e-05
-2.37436e-05
-7.66593e-06
-2.4997e-05
-5.13512e-06
-2.48908e-05
-2.75713e-06
-2.25999e-05
-8.6965e-07
-1.71311e-05
-7.42794e-06
8.31013e-07
-8.29496e-06
2.57613e-06
-1.88335e-05
4.73538e-06
-2.45689e-05
7.01787e-06
-2.68277e-05
9.27692e-06
-2.67808e-05
1.1442e-05
-2.53562e-05
1.34904e-05
-2.32281e-05
1.54123e-05
-2.08437e-05
1.72016e-05
-1.84727e-05
1.88535e-05
-1.62471e-05
2.03595e-05
-1.4206e-05
2.17054e-05
-1.23313e-05
2.2873e-05
-1.05743e-05
2.38415e-05
-8.87651e-06
2.45906e-05
-7.18572e-06
2.51027e-05
-5.46541e-06
2.53658e-05
-3.69815e-06
2.53754e-05
-1.88338e-06
2.51345e-05
-3.21946e-08
2.46523e-05
1.83735e-06
2.39424e-05
3.70301e-06
2.30225e-05
5.53997e-06
2.19126e-05
7.32207e-06
2.0635e-05
9.02208e-06
1.92143e-05
1.06111e-05
1.7678e-05
1.20589e-05
1.60573e-05
1.33356e-05
1.43863e-05
1.44135e-05
1.27022e-05
1.52701e-05
1.10444e-05
1.58889e-05
9.45346e-06
1.62639e-05
7.96748e-06
1.64037e-05
6.61866e-06
1.6333e-05
5.42983e-06
1.60915e-05
4.41174e-06
1.57306e-05
3.56177e-06
1.53087e-05
2.86437e-06
1.48842e-05
2.29272e-06
1.45106e-05
1.81111e-06
1.42317e-05
1.37826e-06
1.40788e-05
9.49913e-07
1.40697e-05
4.81418e-07
1.42081e-05
-6.96494e-08
1.44838e-05
-7.41616e-07
1.48737e-05
-1.56659e-06
1.53432e-05
-2.56793e-06
1.5846e-05
-3.75758e-06
1.6327e-05
-5.13338e-06
1.6725e-05
-6.67837e-06
1.69791e-05
-8.36325e-06
1.70383e-05
-1.015e-05
1.68657e-05
-1.19958e-05
1.64408e-05
-1.38568e-05
1.57602e-05
-1.56913e-05
1.48342e-05
-1.74607e-05
1.36829e-05
-1.91305e-05
1.23321e-05
-2.06696e-05
1.08108e-05
-2.20501e-05
9.148e-06
-2.32463e-05
7.37049e-06
-2.42333e-05
5.50323e-06
-2.49883e-05
3.56988e-06
-2.54906e-05
1.59312e-06
-2.57236e-05
-4.05471e-07
-2.56762e-05
-2.40694e-06
-2.53445e-05
-4.39658e-06
-2.47338e-05
-6.36718e-06
-2.38581e-05
-8.32379e-06
-2.27377e-05
-1.02885e-05
-2.13955e-05
-1.23003e-05
-1.98529e-05
-1.44064e-05
-1.81283e-05
-1.66469e-05
-1.62362e-05
-1.90316e-05
-1.41889e-05
-2.1512e-05
-1.19987e-05
-2.39459e-05
-9.68508e-06
-2.6058e-05
-7.28624e-06
-2.7397e-05
-4.88283e-06
-2.72956e-05
-2.63602e-06
-2.4848e-05
-8.41214e-07
-1.89257e-05
-8.27189e-06
7.84127e-07
-9.0797e-06
2.39909e-06
-2.04495e-05
4.40003e-06
-2.657e-05
6.56062e-06
-2.89895e-05
8.78015e-06
-2.89993e-05
1.10042e-05
-2.75818e-05
1.32049e-05
-2.54279e-05
1.53506e-05
-2.29884e-05
1.74073e-05
-2.05298e-05
1.93428e-05
-1.81829e-05
2.11238e-05
-1.59866e-05
2.2716e-05
-1.39226e-05
2.40847e-05
-1.19422e-05
2.51971e-05
-9.98856e-06
2.60244e-05
-8.01299e-06
2.65445e-05
-5.9857e-06
2.67459e-05
-3.89973e-06
2.66294e-05
-1.76707e-06
2.62074e-05
3.89909e-07
2.54998e-05
2.54503e-06
2.45321e-05
4.67078e-06
2.33332e-05
6.73886e-06
2.19341e-05
8.72112e-06
2.03668e-05
1.05894e-05
1.86643e-05
1.23136e-05
1.68623e-05
1.38609e-05
1.49992e-05
1.51987e-05
1.31157e-05
1.6297e-05
1.12549e-05
1.71309e-05
9.4626e-06
1.76812e-05
7.78611e-06
1.79404e-05
6.26991e-06
1.79199e-05
4.95061e-06
1.76524e-05
3.8529e-06
1.71892e-05
2.98606e-06
1.65974e-05
2.34235e-06
1.59522e-05
1.89808e-06
1.53283e-05
1.61609e-06
1.47924e-05
1.44925e-06
1.43984e-05
1.34443e-06
1.41834e-05
1.24561e-06
1.41683e-05
1.09665e-06
1.43569e-05
8.44291e-07
1.4736e-05
4.39656e-07
1.52782e-05
-1.59952e-07
1.59426e-05
-9.87821e-07
1.66737e-05
-2.06411e-06
1.74032e-05
-3.39114e-06
1.80519e-05
-4.95124e-06
1.85392e-05
-6.71095e-06
1.8798e-05
-8.62574e-06
1.87805e-05
-1.0645e-05
1.84601e-05
-1.27173e-05
1.78325e-05
-1.47941e-05
1.69109e-05
-1.683e-05
1.57188e-05
-1.87835e-05
1.42856e-05
-2.06165e-05
1.26439e-05
-2.22936e-05
1.0825e-05
-2.37799e-05
8.85669e-06
-2.50403e-05
6.76349e-06
-2.604e-05
4.56951e-06
-2.67467e-05
2.29963e-06
-2.71319e-05
-2.02479e-08
-2.71735e-05
-2.3652e-06
-2.68599e-05
-4.71008e-06
-2.61928e-05
-7.03414e-06
-2.51893e-05
-9.32721e-06
-2.38785e-05
-1.15992e-05
-2.22964e-05
-1.38824e-05
-2.04815e-05
-1.62215e-05
-1.84723e-05
-1.8656e-05
-1.63078e-05
-2.1196e-05
-1.40272e-05
-2.37925e-05
-1.16703e-05
-2.63029e-05
-9.27775e-06
-2.84509e-05
-6.89569e-06
-2.97797e-05
-4.59002e-06
-2.9602e-05
-2.47948e-06
-2.69585e-05
-8.01002e-07
-2.06053e-05
-9.07368e-06
7.05809e-07
-9.78592e-06
2.14308e-06
-2.18873e-05
3.96845e-06
-2.83945e-05
6.04738e-06
-3.1069e-05
8.32791e-06
-3.12777e-05
1.0758e-05
-3.00134e-05
1.32843e-05
-2.79528e-05
1.58335e-05
-2.55361e-05
1.83288e-05
-2.30249e-05
2.06996e-05
-2.05539e-05
2.2883e-05
-1.81693e-05
2.48216e-05
-1.58597e-05
2.6464e-05
-1.35828e-05
2.77653e-05
-1.12882e-05
2.86888e-05
-8.93484e-06
2.92088e-05
-6.50415e-06
2.93159e-05
-4.00558e-06
2.90205e-05
-1.47041e-06
2.83485e-05
1.06313e-06
2.73354e-05
3.55922e-06
2.60219e-05
5.98512e-06
2.44521e-05
8.30934e-06
2.26711e-05
1.05027e-05
2.07228e-05
1.2538e-05
1.86507e-05
1.43858e-05
1.65002e-05
1.60115e-05
1.43186e-05
1.73802e-05
1.21534e-05
1.8462e-05
1.00533e-05
1.92309e-05
8.06999e-06
1.96643e-05
6.25855e-06
1.97516e-05
4.67062e-06
1.95076e-05
3.34729e-06
1.89754e-05
2.3151e-06
1.82211e-05
1.58111e-06
1.7331e-05
1.13078e-06
1.64021e-05
9.30483e-07
1.55281e-05
9.30962e-07
1.47913e-05
1.07215e-06
1.42566e-05
1.28849e-06
1.39665e-05
1.51175e-06
1.39445e-05
1.67411e-06
1.41941e-05
1.71174e-06
1.4698e-05
1.56525e-06
1.54244e-05
1.18021e-06
1.63274e-05
5.11375e-07
1.73424e-05
-4.72682e-07
1.83871e-05
-1.78086e-06
1.936e-05
-3.39445e-06
2.01527e-05
-5.27503e-06
2.06784e-05
-7.37079e-06
2.08761e-05
-9.6225e-06
2.07117e-05
-1.19706e-05
2.01805e-05
-1.43596e-05
1.92998e-05
-1.67375e-05
1.80965e-05
-1.90549e-05
1.66029e-05
-2.12653e-05
1.48542e-05
-2.33244e-05
1.2884e-05
-2.51866e-05
1.07188e-05
-2.68033e-05
8.38012e-06
-2.81247e-05
5.89087e-06
-2.91029e-05
3.27771e-06
-2.96937e-05
5.70416e-07
-2.98602e-05
-2.19883e-06
-2.95773e-05
-4.9933e-06
-2.88397e-05
-7.77202e-06
-2.76665e-05
-1.05009e-05
-2.60959e-05
-1.31703e-05
-2.41779e-05
-1.58007e-05
-2.19688e-05
-1.84309e-05
-1.95296e-05
-2.10953e-05
-1.69283e-05
-2.37972e-05
-1.42405e-05
-2.64803e-05
-1.15475e-05
-2.8996e-05
-8.93086e-06
-3.10679e-05
-6.46394e-06
-3.22469e-05
-4.21155e-06
-3.18541e-05
-2.24927e-06
-2.89199e-05
-7.30546e-07
-2.21257e-05
-9.80146e-06
5.65161e-07
-1.03509e-05
1.7425e-06
-2.30646e-05
3.36706e-06
-3.00178e-05
5.42634e-06
-3.31291e-05
7.9076e-06
-3.3757e-05
1.0735e-05
-3.28421e-05
1.37971e-05
-3.10146e-05
1.69548e-05
-2.8693e-05
2.00717e-05
-2.61422e-05
2.30313e-05
-2.35144e-05
2.5738e-05
-2.08765e-05
2.81115e-05
-1.82334e-05
3.00855e-05
-1.55568e-05
3.16054e-05
-1.2808e-05
3.26277e-05
-9.95709e-06
3.3124e-05
-7.00037e-06
3.30896e-05
-3.97115e-06
3.25487e-05
-9.29487e-07
3.15473e-05
2.06464e-06
3.0141e-05
4.96578e-06
2.83895e-05
7.73693e-06
2.63551e-05
1.0344e-05
2.41006e-05
1.27574e-05
2.16844e-05
1.49545e-05
1.91613e-05
1.69093e-05
1.65882e-05
1.85851e-05
1.4023e-05
1.99459e-05
1.152e-05
2.09655e-05
9.13123e-06
2.16202e-05
6.91268e-06
2.18834e-05
4.92756e-06
2.17372e-05
3.23513e-06
2.12005e-05
1.87989e-06
2.03311e-05
8.89694e-07
1.92118e-05
2.68385e-07
1.79527e-05
-7.73127e-09
1.66785e-05
1.60388e-08
1.55046e-05
2.77073e-07
1.45305e-05
7.0147e-07
1.38322e-05
1.21204e-06
1.3456e-05
1.72932e-06
1.34273e-05
2.17467e-06
1.37489e-05
2.47583e-06
1.4397e-05
2.56469e-06
1.53357e-05
2.37487e-06
1.65175e-05
1.84748e-06
1.78701e-05
9.35427e-07
1.92995e-05
-3.80373e-07
2.06761e-05
-2.07881e-06
2.18515e-05
-4.11622e-06
2.27162e-05
-6.434e-06
2.31943e-05
-8.9636e-06
2.32418e-05
-1.16377e-05
2.28552e-05
-1.43957e-05
2.20585e-05
-1.71797e-05
2.08811e-05
-1.99315e-05
1.93555e-05
-2.25953e-05
1.75189e-05
-2.51173e-05
1.54067e-05
-2.74395e-05
1.30418e-05
-2.94968e-05
1.04383e-05
-3.12207e-05
7.61569e-06
-3.25445e-05
4.60245e-06
-3.34053e-05
1.4321e-06
-3.37457e-05
-1.85762e-06
-3.35209e-05
-5.21755e-06
-3.27135e-05
-8.57912e-06
-3.13427e-05
-1.18716e-05
-2.94571e-05
-1.50558e-05
-2.71202e-05
-1.81375e-05
-2.44042e-05
-2.11469e-05
-2.13916e-05
-2.41077e-05
-1.8181e-05
-2.70077e-05
-1.48909e-05
-2.97707e-05
-1.16596e-05
-3.2228e-05
-8.6329e-06
-3.40956e-05
-5.94158e-06
-3.49388e-05
-3.67703e-06
-3.41188e-05
-1.88351e-06
-3.07142e-05
-5.97611e-07
-2.3412e-05
-1.03989e-05
3.09365e-07
-1.06596e-05
1.09807e-06
-2.38535e-05
2.49708e-06
-3.1416e-05
4.63748e-06
-3.52707e-05
7.50853e-06
-3.66286e-05
1.09663e-05
-3.63007e-05
1.47993e-05
-3.48473e-05
1.87748e-05
-3.26684e-05
2.2684e-05
-3.00519e-05
2.63623e-05
-2.71938e-05
2.96843e-05
-2.41995e-05
3.25514e-05
-2.11014e-05
3.48864e-05
-1.78929e-05
3.66295e-05
-1.45521e-05
3.77333e-05
-1.10617e-05
3.81664e-05
-7.43421e-06
3.79302e-05
-3.73566e-06
3.70693e-05
-6.91993e-08
3.56572e-05
3.47637e-06
3.37738e-05
6.84903e-06
3.14999e-05
1.00109e-05
2.89189e-05
1.29251e-05
2.61148e-05
1.55618e-05
2.31622e-05
1.79075e-05
2.01268e-05
1.99453e-05
1.7079e-05
2.16338e-05
1.40904e-05
2.29353e-05
1.12215e-05
2.38352e-05
8.52257e-06
2.432e-05
6.04943e-06
2.43572e-05
3.87401e-06
2.39132e-05
2.06308e-06
2.30117e-05
6.60392e-07
2.1734e-05
-3.05828e-07
2.01782e-05
-8.36192e-07
1.84832e-05
-9.67104e-07
1.68095e-05
-7.56626e-07
1.52941e-05
-2.80757e-07
1.40546e-05
3.729e-07
1.31785e-05
1.11897e-06
1.27097e-05
1.86991e-06
1.26761e-05
2.53795e-06
1.30805e-05
3.04764e-06
1.3887e-05
3.32719e-06
1.50558e-05
3.29921e-06
1.65451e-05
2.89142e-06
1.82775e-05
2.03445e-06
2.01561e-05
6.9234e-07
2.20179e-05
-1.1069e-06
2.36506e-05
-3.31551e-06
2.49249e-05
-5.87101e-06
2.575e-05
-8.69574e-06
2.60669e-05
-1.17163e-05
2.58763e-05
-1.48715e-05
2.52144e-05
-1.80995e-05
2.41098e-05
-2.13328e-05
2.25894e-05
-2.45041e-05
2.06911e-05
-2.75507e-05
1.84541e-05
-3.04018e-05
1.58936e-05
-3.29722e-05
1.30094e-05
-3.51707e-05
9.81511e-06
-3.69106e-05
6.34327e-06
-3.81084e-05
2.63105e-06
-3.86822e-05
-1.28284e-06