/*--------------------------------*- C++ -*----------------------------------*\
| =========                 |                                                 |
| \\      /  F ield         | OpenFOAM: The Open Source CFD Toolbox           |
|  \\    /   O peration     | Version:  2412                                  |
|   \\  /    A nd           | Website:  www.openfoam.com                      |
|    \\/     M anipulation  |                                                 |
\*---------------------------------------------------------------------------*/
FoamFile
{
    version     2.0;
    format      ascii;
    arch        "LSB;label=32;scalar=64";
    class       volScalarField;
    location    "4.35";
    object      p;
}
// * * * * * * * * * * * * * * * * * * * * * * * * * * * * * * * * * * * * * //

dimensions      [1 -1 -2 0 0 0 0];

internalField   nonuniform List<scalar> 
6400
(
9637.48
9637.92
9638.78
9640.03
9641.61
9643.45
9645.47
9647.56
9649.64
9651.58
9653.28
9654.62
9655.52
9655.86
9655.57
9654.57
9652.82
9650.27
9646.92
9642.78
9637.88
9632.28
9626.04
9619.27
9612.07
9604.56
9596.87
9589.13
9581.48
9574.04
9566.93
9560.27
9554.16
9548.69
9543.92
9539.94
9536.77
9534.46
9533.04
9532.51
9532.87
9534.13
9536.25
9539.21
9542.96
9547.47
9552.66
9558.46
9564.8
9571.57
9578.69
9586.03
9593.5
9600.97
9608.34
9615.48
9622.31
9628.72
9634.63
9639.99
9644.74
9648.85
9652.3
9655.11
9657.29
9658.87
9659.91
9660.45
9660.57
9660.34
9659.82
9659.09
9658.23
9657.31
9656.38
9655.52
9654.76
9654.16
9653.74
9653.53
9146.51
9146.96
9147.86
9149.17
9150.82
9152.75
9154.87
9157.07
9159.25
9161.31
9163.12
9164.57
9165.56
9165.99
9165.77
9164.82
9163.1
9160.57
9157.21
9153.03
9148.08
9142.4
9136.07
9129.19
9121.87
9114.23
9106.41
9098.54
9090.76
9083.2
9075.99
9069.23
9063.03
9057.48
9052.65
9048.61
9045.41
9043.08
9041.64
9041.1
9041.48
9042.75
9044.9
9047.9
9051.71
9056.28
9061.54
9067.43
9073.86
9080.74
9087.96
9095.41
9102.99
9110.58
9118.05
9125.3
9132.22
9138.71
9144.69
9150.09
9154.87
9158.99
9162.45
9165.23
9167.38
9168.92
9169.89
9170.37
9170.42
9170.11
9169.51
9168.71
9167.78
9166.79
9165.8
9164.88
9164.08
9163.44
9163.01
9162.79
8655.01
8655.51
8656.49
8657.93
8659.74
8661.85
8664.17
8666.59
8669.01
8671.29
8673.32
8674.98
8676.17
8676.76
8676.68
8675.84
8674.19
8671.68
8668.3
8664.06
8659
8653.17
8646.66
8639.56
8632
8624.1
8616.01
8607.88
8599.84
8592.03
8584.59
8577.62
8571.24
8565.54
8560.59
8556.45
8553.17
8550.79
8549.32
8548.79
8549.18
8550.49
8552.7
8555.79
8559.7
8564.39
8569.8
8575.86
8582.47
8589.55
8596.99
8604.68
8612.49
8620.3
8628
8635.45
8642.56
8649.21
8655.32
8660.82
8665.66
8669.8
8673.25
8675.99
8678.07
8679.51
8680.37
8680.72
8680.63
8680.17
8679.42
8678.47
8677.39
8676.25
8675.14
8674.1
8673.2
8672.49
8671.99
8671.75
8162.96
8163.52
8164.63
8166.26
8168.32
8170.72
8173.36
8176.12
8178.88
8181.51
8183.89
8185.87
8187.35
8188.21
8188.34
8187.67
8186.12
8183.65
8180.24
8175.91
8170.68
8164.62
8157.82
8150.38
8142.45
8134.16
8125.66
8117.11
8108.67
8100.49
8092.7
8085.43
8078.78
8072.85
8067.71
8063.43
8060.04
8057.58
8056.08
8055.54
8055.96
8057.33
8059.63
8062.83
8066.9
8071.78
8077.42
8083.72
8090.62
8098.01
8105.78
8113.81
8121.97
8130.14
8138.18
8145.95
8153.34
8160.24
8166.55
8172.19
8177.12
8181.31
8184.73
8187.41
8189.38
8190.67
8191.36
8191.51
8191.2
8190.52
8189.53
8188.34
8187.03
8185.68
8184.37
8183.15
8182.1
8181.26
8180.69
8180.4
7670.28
7670.92
7672.22
7674.12
7676.52
7679.32
7682.4
7685.62
7688.86
7691.98
7694.83
7697.26
7699.14
7700.37
7700.8
7700.36
7698.96
7696.55
7693.11
7688.64
7683.18
7676.81
7669.61
7661.71
7653.26
7644.42
7635.35
7626.24
7617.26
7608.56
7600.31
7592.62
7585.61
7579.37
7573.98
7569.5
7565.97
7563.42
7561.86
7561.32
7561.77
7563.22
7565.65
7569.01
7573.29
7578.42
7584.35
7591
7598.27
7606.08
7614.3
7622.8
7631.46
7640.11
7648.62
7656.83
7664.62
7671.86
7678.44
7684.28
7689.33
7693.56
7696.95
7699.53
7701.34
7702.43
7702.87
7702.74
7702.13
7701.16
7699.83
7698.32
7696.7
7695.05
7693.46
7692
7690.74
7689.73
7689.04
7688.7
7176.85
7177.62
7179.16
7181.43
7184.28
7187.6
7191.25
7195.09
7198.95
7202.69
7206.16
7209.16
7211.59
7213.29
7214.13
7213.99
7212.79
7210.47
7206.98
7202.35
7196.6
7189.81
7182.09
7173.59
7164.46
7154.9
7145.1
7135.25
7125.55
7116.2
7107.34
7099.13
7091.66
7085.04
7079.34
7074.62
7070.91
7068.25
7066.64
7066.08
7066.59
7068.14
7070.71
7074.28
7078.81
7084.26
7090.56
7097.64
7105.4
7113.74
7122.54
7131.66
7140.94
7150.23
7159.35
7168.14
7176.45
7184.13
7191.06
7197.16
7202.35
7206.63
7209.97
7212.42
7214.01
7214.82
7214.93
7214.43
7213.42
7211.97
7210.29
7208.38
7206.36
7204.33
7202.39
7200.6
7199.06
7197.82
7196.98
7196.56
6682.53
6683.46
6685.33
6688.06
6691.51
6695.5
6699.88
6704.48
6709.12
6713.65
6717.85
6721.63
6724.74
6727.05
6728.4
6728.66
6727.73
6725.52
6722
6717.16
6711.04
6703.73
6695.36
6686.08
6676.1
6665.63
6654.89
6644.11
6633.52
6623.35
6613.75
6604.89
6596.87
6589.79
6583.72
6578.72
6574.81
6572.01
6570.34
6569.79
6570.35
6572.01
6574.76
6578.58
6583.42
6589.24
6595.99
6603.59
6611.94
6620.95
6630.46
6640.35
6650.43
6660.51
6670.41
6679.94
6688.9
6697.14
6704.51
6710.91
6716.29
6720.61
6723.87
6726.13
6727.45
6727.9
6727.59
6726.62
6725.11
6723.17
6720.94
6718.51
6715.99
6713.49
6711.09
6708.9
6706.99
6705.46
6704.41
6703.89
6187.13
6188.26
6190.54
6193.89
6198.09
6202.93
6208.22
6213.76
6219.38
6224.87
6230.04
6234.71
6238.67
6241.74
6243.73
6244.5
6243.91
6241.86
6238.3
6233.22
6226.66
6218.71
6209.52
6199.28
6188.22
6176.62
6164.72
6152.8
6141.08
6129.94
6119.45
6109.81
6101.13
6093.52
6087.03
6081.72
6077.58
6074.65
6072.91
6072.36
6072.99
6074.79
6077.74
6081.83
6087.03
6093.29
6100.56
6108.78
6117.84
6127.64
6138.03
6148.85
6159.91
6170.98
6181.85
6192.29
6202.07
6211
6218.91
6225.69
6231.26
6235.62
6238.76
6240.77
6241.71
6241.7
6240.86
6239.31
6237.19
6234.63
6231.76
6228.68
6225.54
6222.45
6219.51
6216.81
6214.45
6212.52
6211.2
6210.54
5690.39
5691.78
5694.6
5698.74
5703.9
5709.79
5716.18
5722.88
5729.68
5736.35
5742.68
5748.46
5753.45
5757.45
5760.25
5761.65
5761.5
5759.68
5756.1
5750.74
5743.64
5734.91
5724.71
5713.28
5700.9
5687.89
5674.6
5661.36
5648.45
5635.99
5624.32
5613.76
5604.33
5596.12
5589.17
5583.52
5579.15
5576.08
5574.28
5573.74
5574.45
5576.39
5579.57
5583.97
5589.56
5596.32
5604.19
5613.12
5623.01
5633.74
5645.17
5657.14
5669.38
5681.66
5693.73
5705.3
5716.09
5725.87
5734.43
5741.65
5747.44
5751.8
5754.76
5756.42
5756.89
5756.3
5754.8
5752.54
5749.66
5746.33
5742.71
5738.84
5734.96
5731.16
5727.56
5724.24
5721.3
5718.88
5717.18
5716.33
5191.96
5193.67
5197.2
5202.35
5208.74
5215.93
5223.68
5231.78
5239.98
5248.07
5255.79
5262.91
5269.16
5274.3
5278.08
5280.29
5280.71
5279.2
5275.63
5269.96
5262.22
5252.55
5241.12
5228.22
5214.21
5199.43
5184.43
5169.49
5154.98
5141.16
5128.34
5116.61
5106.32
5097.45
5090.02
5084.01
5079.42
5076.21
5074.36
5073.84
5074.64
5076.74
5080.16
5084.89
5090.91
5098.21
5106.76
5116.49
5127.33
5139.15
5151.79
5165.15
5178.83
5192.55
5206.1
5219.08
5231.12
5241.93
5251.27
5258.99
5265
5269.32
5272.02
5273.22
5273.07
5271.75
5269.43
5266.3
5262.51
5258.24
5253.61
5248.9
5244.15
5239.51
5235.12
5231.07
5227.42
5224.32
5222.12
5221.01
4691.52
4693.44
4697.98
4704.42
4712.35
4721.2
4730.6
4740.38
4750.28
4760.04
4769.41
4778.11
4785.87
4792.4
4797.41
4800.62
4801.79
4800.7
4797.19
4791.18
4782.67
4771.89
4758.97
4744.25
4728.29
4711.35
4694.18
4677.19
4660.77
4645.29
4631.03
4618.19
4606.89
4597.34
4589.41
4583.07
4578.27
4574.95
4573.07
4572.59
4573.48
4575.75
4579.41
4584.48
4590.96
4598.85
4608.13
4618.76
4630.67
4643.77
4657.94
4672.82
4688.22
4703.79
4719.04
4733.8
4747.36
4759.44
4769.69
4777.96
4784.2
4788.41
4790.72
4791.29
4790.34
4788.11
4784.81
4780.63
4775.76
4770.38
4764.67
4758.84
4753.02
4747.38
4742.04
4737.08
4732.52
4728.59
4725.66
4724.22
4188.72
4190.33
4196.03
4204.29
4214.49
4225.36
4236.76
4248.59
4260.49
4272.21
4283.51
4294.1
4303.67
4311.88
4318.38
4322.86
4325
4324.5
4321.14
4314.77
4305.24
4293.12
4278.47
4261.71
4243.47
4223.45
4203.74
4184.32
4165.64
4148.16
4132.24
4118.1
4105.73
4095.58
4087.2
4080.57
4075.6
4072.21
4070.33
4069.9
4070.89
4073.31
4077.2
4082.62
4089.57
4098.07
4108.12
4119.71
4132.8
4147.35
4163.12
4179.92
4197.43
4215.19
4232.61
4249.79
4265.17
4278.66
4289.92
4298.84
4305.3
4309.3
4311.04
4310.77
4308.79
4305.42
4300.92
4295.5
4289.36
4282.68
4275.67
4268.53
4261.42
4254.54
4248.06
4242.09
4236.5
4231.27
4227.17
4225.73
3684.01
3688.07
3693.7
3700.8
3713.86
3727.8
3742.01
3756.36
3770.62
3784.61
3798.12
3810.91
3822.61
3832.83
3841.16
3847.23
3850.64
3850.98
3847.92
3841
3830.67
3816.88
3799.97
3780.48
3759.15
3736.53
3713.05
3690.68
3669.28
3649.46
3631.66
3616.15
3603.08
3592.04
3583.21
3576.35
3571.28
3567.88
3566.03
3565.67
3566.74
3569.3
3573.42
3579.16
3586.57
3595.68
3606.53
3619.14
3633.5
3649.59
3667.26
3686.31
3706.4
3726.97
3747.63
3767.28
3784.69
3800
3812.55
3822.11
3828.63
3832.27
3833.19
3831.79
3828.46
3823.67
3817.76
3810.91
3803.29
3795.1
3786.57
3777.89
3769.23
3760.76
3752.76
3745.21
3737.85
3731.95
3727.29
3725.27
3178.67
3185.57
3185.16
3189.86
3210.26
3228.49
3246.41
3263.84
3280.73
3297.23
3313.21
3328.47
3342.66
3355.28
3365.86
3373.96
3379.04
3380.53
3377.92
3370.86
3359.36
3343.57
3323.92
3301.09
3275.94
3249.38
3222.3
3196.07
3171.32
3148.72
3128.75
3111.73
3097.65
3086.21
3077.16
3070.23
3065.18
3061.83
3060.05
3059.76
3060.91
3063.56
3067.87
3073.91
3081.76
3091.47
3103.11
3116.76
3132.47
3150.2
3169.97
3191.64
3214.86
3239.03
3263.2
3285.97
3306.2
3323.95
3338.03
3348.28
3354.74
3357.69
3357.43
3354.48
3349.39
3342.85
3335.25
3326.74
3317.44
3307.55
3297.28
3286.81
3276.26
3265.56
3254.84
3244.99
3234.11
3231.82
3230.2
3225.08
2661.42
2656.92
2650.98
2672.09
2705.93
2731.44
2752.03
2771.85
2791.14
2810.04
2828.59
2846.59
2863.68
2879.28
2892.7
2903.45
2910.78
2913.91
2912.12
2904.91
2892.1
2873.87
2850.8
2823.81
2793.94
2762.5
2730.76
2699.94
2671.19
2645.29
2622.87
2604.29
2589.44
2577.81
2568.85
2562.09
2557.24
2554.08
2552.42
2552.19
2553.35
2556.04
2560.46
2566.73
2574.93
2585.18
2597.55
2612.18
2629.2
2648.65
2670.69
2695.33
2722.33
2751.27
2779.86
2807.03
2831.42
2851.37
2867.1
2878.02
2884.24
2886.14
2884.22
2879.17
2871.63
2862.85
2853.24
2842.83
2831.65
2819.9
2807.74
2795.27
2782.54
2769.53
2756.16
2742.67
2719.78
2712.72
2719.06
2718.21
2141.41
2125.49
2103.1
2155.52
2207.45
2236.31
2257.9
2279.64
2301.3
2322.83
2344.1
2365.12
2385.52
2404.44
2421.16
2435.54
2446.05
2451.54
2451.05
2443.82
2429.54
2408.39
2381.07
2348.86
2313.14
2275.62
2238.01
2201.77
2168.14
2138.33
2113.13
2093.11
2078
2066.84
2058.44
2052.3
2047.92
2045.06
2043.5
2043.21
2044.25
2046.86
2051.28
2057.69
2066.16
2076.75
2089.61
2105.01
2123.4
2144.44
2168.76
2196.63
2228.54
2262.9
2297.54
2330.25
2358.98
2382.18
2400.16
2411.63
2417.2
2417.64
2413.64
2405.79
2394.13
2382.23
2370.58
2358.75
2345.87
2332.2
2318.22
2303.89
2288.97
2273.36
2257.72
2241.52
2201.51
2159.02
2170.2
2188.72
1633.23
1614.24
1604.87
1652.29
1708.96
1738.38
1762.65
1787.85
1812.39
1836.6
1860.89
1885.49
1909.51
1931.44
1950.98
1970.49
1985.08
1993.91
1995.15
1987.74
1971.48
1946.69
1914.38
1875.91
1833.27
1788.55
1743.88
1700.95
1661.34
1626.6
1598.19
1577.07
1562.78
1553.57
1546.76
1541.66
1537.79
1535.12
1533.59
1533.15
1533.9
1536.23
1540.46
1546.86
1555.6
1566.64
1579.82
1594.45
1614.67
1636.55
1662.33
1694.02
1731.68
1773.76
1816.74
1856.87
1891.05
1918.34
1936.41
1948.02
1952.84
1951.78
1945.71
1935.34
1916.54
1901.44
1887.87
1875.52
1861.61
1845.94
1829.96
1813.86
1797.15
1778.98
1763.72
1746.71
1697.95
1634.5
1647.96
1685.8
1142.25
1127.75
1131.08
1167.88
1209.37
1237.94
1267.46
1297.25
1324.98
1351.43
1378.2
1406
1432.96
1457.89
1482.12
1506.69
1527.83
1541.65
1545.29
1537.6
1518.48
1488.57
1449.61
1403.8
1352.82
1299.59
1247.02
1196.69
1149.98
1109.07
1076.72
1054.54
1042.65
1038.82
1033.42
1028.9
1025.6
1023.34
1021.98
1021.34
1021.53
1023.14
1026.55
1032.41
1041.43
1053.59
1069.85
1089.42
1105.25
1124.39
1150.65
1186.19
1231.54
1284.43
1338.08
1387.41
1426.72
1454.66
1475.72
1488.59
1492.97
1489.59
1479.28
1463.11
1441.54
1420.32
1403.07
1389.8
1376.08
1360.24
1343.39
1325
1305.78
1288.63
1273.69
1256.19
1215.98
1167.75
1176.3
1212.12
623.145
607.896
620.363
660.711
701.383
736.124
772.227
803.269
830.605
858.462
886.473
914.166
941.557
971.648
1005.24
1040.35
1072.07
1094.52
1103.85
1097.86
1076.25
1040.07
992.252
937.418
876.758
812.501
748.293
686.314
628.245
577.899
539.766
517.804
511.044
509.39
507.753
506.841
507.106
507.376
506.922
505.728
504.368
504.007
505.53
510.431
518.608
527.155
541.142
562.155
585.193
599.494
625.055
663.544
719.913
790.862
865.052
930.978
978.073
1008.49
1033.08
1045.9
1044.79
1033
1012.42
986.584
957.8
929.357
906.407
890.621
877.75
864.249
848.477
829.34
807.732
787.301
770.078
753.855
724.78
692.671
696.786
723.012
194.013
161.204
161.796
194.435
232.117
264.792
293.943
318.55
342.363
367.548
392.66
416.036
443.162
481.475
530.906
578.644
620.65
655.958
678.156
680.409
659.47
617.627
560.079
483.029
406.205
333.36
270.783
218.154
173.269
139.363
118.77
110.25
107.908
108.569
111.223
114.669
117.556
119.095
119.554
119.321
118.808
118.39
117.662
120.483
125.056
124.119
128.678
133.61
143.039
156.72
174.143
198.016
240.475
309.8
399.711
489.006
550.877
592.136
622.233
620.895
607.717
584.194
553.052
519.448
480.717
440.978
412.567
395.276
382.939
373.608
363.262
349.099
331.911
310.914
286.558
266.489
244.125
224.945
226.412
240.282
11.6067
2.65004
0.880632
5.9354
14.589
23.8274
31.179
35.9875
41.8243
55.1704
72.0579
86.8242
99.6052
120.507
156.85
195.644
223.023
258.081
288.704
302.483
296.723
267.306
211.765
143.945
85.3162
46.7537
23.6716
9.45713
0.0397129
-5.34887
-7.66543
-8.65545
-9.09224
-9.02939
-8.75888
-8.57868
-8.47502
-8.38334
-8.24345
-8.0108
-7.66906
-7.2722
-6.71231
-4.32908
-3.03221
-4.93035
-6.31829
-7.61082
-6.64544
-3.82663
-0.30039
5.40194
17.8753
46.3179
94.4172
157.915
216.69
242.244
240.293
231.308
217.173
194.228
173.214
157.097
128.841
100.329
83.768
74.466
67.6434
61.8191
55.8907
49.942
45.1981
39.9996
32.0238
22.9419
14.4777
10.4739
12.8353
17.5528
-7.24378
-7.83464
-8.18557
-8.4418
-8.60874
-8.93763
-9.46077
-9.99223
-10.2006
-10.149
-10.1088
-10.2405
-10.512
-10.9651
-10.1226
2.80776
14.7164
33.4509
54.5827
61.0816
57.5988
45.2084
23.9908
4.78133
-5.16951
-8.15862
-8.82282
-9.0957
-9.21213
-9.25014
-9.22037
-9.21961
-9.2578
-9.24199
-9.17692
-9.105
-9.04886
-8.95984
-8.80947
-8.62574
-8.34392
-8.00285
-7.64275
-7.63822
-7.6106
-7.41664
-7.80416
-8.47052
-9.04138
-9.59121
-10.0867
-10.1626
-9.29204
-7.03605
-1.26211
10.264
20.7287
23.6169
19.7167
15.0848
8.90676
-1.00419
-7.25637
-10.1833
-10.4742
-10.1948
-10.1018
-10.0228
-9.81055
-9.66731
-9.60867
-9.72182
-10.0689
-10.4886
-10.7578
-10.7095
-10.1042
-8.4633
-6.71009
-6.00665
-8.60665
-9.06083
-9.14163
-9.2003
-9.35711
-9.59497
-9.90898
-10.2555
-10.5293
-10.6754
-10.7739
-10.846
-10.9794
-11.0967
-10.8927
-10.8387
-10.8061
-10.8498
-10.8749
-10.8973
-10.8842
-10.7988
-10.6711
-10.5182
-10.3285
-10.1406
-10.0294
-9.99033
-10.0254
-10.051
-10.0387
-10.0044
-9.97576
-9.93702
-9.84503
-9.79254
-9.81736
-9.81643
-9.66955
-9.41417
-9.10993
-8.78969
-8.49526
-8.35494
-8.35834
-8.55456
-9.06372
-9.66916
-10.1432
-10.4393
-10.6697
-10.8521
-11.0687
-11.2371
-11.3341
-11.3649
-11.3452
-11.3195
-11.3274
-11.4041
-11.42
-11.2177
-10.9662
-10.9178
-10.816
-10.6566
-10.5651
-10.4792
-10.4208
-10.372
-10.3191
-10.2402
-10.3095
-10.5041
-10.7832
-10.8868
-10.4703
-9.4277
-8.16335
-7.6296
-9.75605
-9.95413
-9.99897
-10.0626
-10.1664
-10.299
-10.5068
-10.7944
-11.0403
-11.1428
-11.1555
-11.2032
-11.3401
-11.4387
-11.421
-11.4436
-11.4095
-11.3572
-11.3634
-11.3837
-11.3555
-11.2881
-11.1865
-11.0558
-10.8988
-10.7443
-10.6425
-10.6096
-10.6162
-10.6022
-10.5441
-10.5081
-10.5201
-10.5687
-10.5499
-10.5455
-10.5803
-10.5792
-10.4995
-10.2849
-9.97947
-9.6507
-9.38068
-9.27441
-9.29942
-9.43326
-9.82839
-10.2932
-10.6412
-10.9434
-11.2463
-11.5064
-11.6916
-11.8216
-11.9101
-11.9685
-11.993
-12.0109
-12.0616
-12.1083
-12.0496
-11.8666
-11.7064
-11.595
-11.4422
-11.2716
-11.1126
-10.9642
-10.9179
-11.025
-11.0614
-10.8955
-10.8092
-11.0436
-11.4393
-11.7719
-11.7208
-11.0827
-9.95264
-9.22414
-10.8197
-11.0007
-11.0613
-11.0772
-11.1034
-11.1186
-11.2131
-11.4332
-11.6367
-11.7063
-11.701
-11.7597
-11.9243
-12.0707
-12.1306
-12.086
-11.9604
-11.8512
-11.8807
-11.894
-11.8446
-11.7776
-11.6994
-11.6097
-11.4955
-11.3744
-11.2932
-11.2682
-11.2607
-11.2475
-11.2251
-11.2032
-11.2035
-11.1807
-11.1589
-11.1672
-11.1613
-11.1116
-11.0349
-10.9082
-10.7101
-10.4618
-10.2382
-10.1585
-10.1951
-10.2929
-10.5956
-11.0096
-11.3837
-11.7339
-12.0409
-12.2491
-12.3694
-12.4422
-12.4738
-12.4895
-12.5368
-12.6115
-12.6997
-12.7517
-12.7189
-12.605
-12.4712
-12.334
-12.1732
-11.9943
-11.8199
-11.6752
-11.6033
-11.7398
-11.8583
-11.7161
-11.4859
-11.6092
-12.0534
-12.4572
-12.5422
-12.2518
-11.5499
-10.8456
-11.8295
-12.0832
-12.1665
-12.1597
-12.1476
-12.0897
-12.0658
-12.1741
-12.2761
-12.2795
-12.2387
-12.3053
-12.4553
-12.5637
-12.6175
-12.5948
-12.4773
-12.3944
-12.4192
-12.4252
-12.369
-12.2937
-12.222
-12.1532
-12.072
-11.978
-11.9099
-11.8845
-11.8689
-11.8414
-11.8164
-11.8008
-11.7853
-11.7383
-11.6978
-11.6733
-11.6423
-11.5921
-11.5267
-11.4383
-11.3195
-11.1684
-11.0178
-10.9627
-10.9988
-11.0943
-11.4192
-11.8532
-12.2247
-12.5847
-12.897
-13.1009
-13.1925
-13.2199
-13.2176
-13.231
-13.2786
-13.3259
-13.3626
-13.3744
-13.3346
-13.25
-13.1434
-13.0155
-12.8563
-12.6795
-12.5127
-12.3827
-12.3358
-12.3966
-12.5614
-12.5293
-12.3299
-12.2646
-12.5114
-12.7986
-12.8605
-12.7527
-12.4625
-11.9575
-12.6525
-13.0666
-13.2007
-13.221
-13.1773
-13.0769
-12.9491
-12.9109
-12.9007
-12.8387
-12.7956
-12.8435
-12.9334
-12.9757
-12.9766
-12.9442
-12.8876
-12.8691
-12.9021
-12.9076
-12.8569
-12.7851
-12.7144
-12.6455
-12.5758
-12.5038
-12.4499
-12.429
-12.4194
-12.3938
-12.3595
-12.3287
-12.3026
-12.2634
-12.2279
-12.1949
-12.1556
-12.1055
-12.0449
-11.9749
-11.8964
-11.8117
-11.7335
-11.7239
-11.763
-11.9005
-12.2721
-12.7011
-13.0445
-13.3961
-13.7017
-13.8911
-13.9682
-13.9828
-13.9656
-13.9229
-13.9042
-13.9214
-13.9543
-13.9733
-13.9473
-13.8846
-13.7975
-13.6811
-13.5355
-13.3712
-13.2048
-13.0701
-13.0265
-13.0691
-13.1792
-13.2311
-13.1379
-12.9934
-12.9561
-13.0414
-13.0539
-13.0337
-12.9558
-12.7492
-13.3039
-13.7692
-14.0375
-14.0962
-14.0641
-13.9623
-13.7643
-13.5878
-13.4792
-13.3768
-13.3348
-13.3474
-13.3694
-13.3637
-13.3416
-13.3097
-13.2841
-13.3044
-13.3531
-13.3723
-13.3453
-13.2903
-13.2233
-13.1496
-13.071
-13.0006
-12.9531
-12.9371
-12.9273
-12.906
-12.8798
-12.857
-12.8322
-12.7977
-12.7615
-12.7216
-12.676
-12.6235
-12.5678
-12.5157
-12.4665
-12.4254
-12.4067
-12.4569
-12.5285
-12.7326
-13.1173
-13.4699
-13.7697
-14.0755
-14.3402
-14.5182
-14.6106
-14.644
-14.6487
-14.626
-14.598
-14.5866
-14.5909
-14.5848
-14.5544
-14.4943
-14.4113
-14.3035
-14.167
-14.0202
-13.8725
-13.7452
-13.7012
-13.7405
-13.8003
-13.8381
-13.808
-13.6903
-13.5197
-13.4395
-13.4161
-13.3635
-13.3504
-13.4082
-13.7861
-14.1885
-14.6098
-14.7704
-14.7878
-14.7275
-14.4771
-14.1913
-14.0186
-13.9022
-13.8511
-13.838
-13.8294
-13.8028
-13.7786
-13.7606
-13.7628
-13.7973
-13.846
-13.8728
-13.8619
-13.8181
-13.752
-13.6731
-13.5884
-13.515
-13.467
-13.4501
-13.4399
-13.4244
-13.4086
-13.3931
-13.37
-13.3373
-13.299
-13.2548
-13.2043
-13.1504
-13.096
-13.0584
-13.0318
-13.0232
-13.0529
-13.1534
-13.2718
-13.5087
-13.8803
-14.1477
-14.4159
-14.6684
-14.8821
-15.0383
-15.1383
-15.1946
-15.2164
-15.2159
-15.1968
-15.176
-15.1614
-15.145
-15.1185
-15.0636
-14.982
-14.8817
-14.749
-14.6102
-14.4838
-14.371
-14.3164
-14.3307
-14.3707
-14.3746
-14.3372
-14.2597
-14.1573
-13.9509
-13.9428
-13.7595
-13.8308
-13.9919
-14.1702
-14.4567
-14.9439
-15.2501
-15.3569
-15.3899
-15.1422
-14.7499
-14.5385
-14.4201
-14.35
-14.3249
-14.3086
-14.2908
-14.2766
-14.2741
-14.2913
-14.3309
-14.3785
-14.409
-14.4106
-14.3791
-14.3154
-14.2291
-14.1344
-14.0549
-13.9978
-13.9825
-13.9743
-13.9601
-13.9491
-13.9354
-13.9121
-13.8797
-13.8408
-13.7925
-13.7374
-13.6779
-13.6234
-13.6084
-13.5968
-13.6098
-13.6716
-13.8137
-13.9464
-14.2137
-14.5539
-14.7878
-15.0457
-15.2671
-15.4574
-15.611
-15.7285
-15.8022
-15.8199
-15.8023
-15.7573
-15.7098
-15.6737
-15.6472
-15.6207
-15.5796
-15.5115
-15.4217
-15.2993
-15.1529
-15.0328
-14.9328
-14.8586
-14.8368
-14.8437
-14.8444
-14.7987
-14.7221
-14.6523
-14.5256
-14.4855
-14.3952
-14.4584
-14.5458
-14.5186
-14.7029
-15.1579
-15.5599
-15.7893
-15.8853
-15.7401
-15.2842
-15.0306
-14.93
-14.8452
-14.8112
-14.7965
-14.7914
-14.7919
-14.8033
-14.8314
-14.8775
-14.9278
-14.9623
-14.977
-14.9627
-14.9072
-14.8156
-14.7091
-14.6172
-14.5644
-14.5496
-14.5351
-14.5139
-14.4989
-14.4822
-14.4578
-14.4266
-14.3891
-14.3398
-14.2827
-14.207
-14.1546
-14.1602
-14.1653
-14.1901
-14.2687
-14.445
-14.5931
-14.8815
-15.1862
-15.4435
-15.7088
-15.9292
-16.1263
-16.2984
-16.4411
-16.5277
-16.5343
-16.473
-16.3698
-16.2656
-16.1845
-16.1285
-16.091
-16.0576
-16.0042
-15.9268
-15.8195
-15.6713
-15.5404
-15.4388
-15.35
-15.2839
-15.2379
-15.2139
-15.2005
-15.1873
-15.14
-15.1903
-15.2764
-15.275
-15.2304
-15.1558
-14.8794
-14.9866
-15.3734
-15.7994
-16.0864
-16.2252
-16.1811
-15.7801
-15.4875
-15.4243
-15.3411
-15.2946
-15.2861
-15.2916
-15.3036
-15.3252
-15.3614
-15.4132
-15.4639
-15.4965
-15.5235
-15.5356
-15.5027
-15.4159
-15.3033
-15.1961
-15.1594
-15.1453
-15.1147
-15.0796
-15.0542
-15.0324
-15.008
-14.9806
-14.9492
-14.9104
-14.8659
-14.8041
-14.7514
-14.7097
-14.7491
-14.7713
-14.8571
-15.0704
-15.2726
-15.5356
-15.8013
-16.1298
-16.4166
-16.6595
-16.8829
-17.0893
-17.2647
-17.3601
-17.3378
-17.2099
-17.0299
-16.8537
-16.7129
-16.6126
-16.5504
-16.5135
-16.4693
-16.4044
-16.3126
-16.1736
-16.0224
-15.9098
-15.813
-15.7265
-15.6441
-15.5892
-15.5896
-15.6331
-15.6779
-15.8666
-16.098
-16.1405
-16.0005
-15.7913
-15.3818
-15.4296
-15.7404
-16.0952
-16.3203
-16.4559
-16.4735
-16.2036
-15.9412
-15.8791
-15.8233
-15.7702
-15.7682
-15.7831
-15.8039
-15.8336
-15.8778
-15.9349
-15.9842
-16.0167
-16.0673
-16.1047
-16.0944
-16.0139
-15.9002
-15.7863
-15.7534
-15.7382
-15.6932
-15.6446
-15.6094
-15.5841
-15.562
-15.5413
-15.5225
-15.5006
-15.4905
-15.4835
-15.427
-15.3469
-15.3652
-15.3556
-15.4479
-15.6958
-15.9691
-16.1785
-16.4204
-16.8247
-17.1495
-17.4242
-17.6809
-17.9294
-18.1444
-18.2523
-18.1867
-17.9781
-17.7005
-17.4406
-17.2398
-17.0986
-17.0077
-16.9586
-16.9193
-16.863
-16.7844
-16.6574
-16.4969
-16.3672
-16.2601
-16.1769
-16.111
-16.0548
-16.0571
-16.0819
-16.1632
-16.3978
-16.6935
-16.8164
-16.603
-16.3601
-16.08
-16.1045
-16.2895
-16.4708
-16.5472
-16.6307
-16.6762
-16.5433
-16.3699
-16.3104
-16.2804
-16.2363
-16.2409
-16.2648
-16.2931
-16.3314
-16.3865
-16.4543
-16.5145
-16.5829
-16.6834
-16.7399
-16.711
-16.6119
-16.4879
-16.3832
-16.3415
-16.3128
-16.2581
-16.2001
-16.1603
-16.1351
-16.1169
-16.1035
-16.0958
-16.0941
-16.1079
-16.1466
-16.1417
-16.0426
-15.8717
-15.9078
-16.0375
-16.31
-16.6526
-16.8329
-17.0681
-17.4991
-17.8697
-18.1711
-18.4596
-18.7496
-19.0137
-19.176
-19.099
-18.8412
-18.4174
-18.0162
-17.745
-17.5786
-17.4684
-17.4017
-17.3549
-17.3031
-17.2378
-17.1237
-16.9687
-16.8216
-16.7044
-16.6193
-16.5743
-16.5483
-16.5245
-16.5258
-16.5628
-16.8133
-17.1619
-17.3079
-17.026
-16.7986
-16.8167
-16.8282
-16.8931
-16.8697
-16.7876
-16.8033
-16.8549
-16.8412
-16.7613
-16.7301
-16.7255
-16.7056
-16.7142
-16.743
-16.7765
-16.8215
-16.8862
-16.9672
-17.0516
-17.1868
-17.3284
-17.4013
-17.3349
-17.1901
-17.0462
-16.9747
-16.9272
-16.8774
-16.8069
-16.7451
-16.7062
-16.6831
-16.6689
-16.6617
-16.6618
-16.6708
-16.6954
-16.733
-16.7879
-16.6857
-16.4179
-16.5235
-16.6411
-16.9096
-17.3197
-17.4966
-17.7208
-18.1219
-18.5246
-18.8514
-19.1649
-19.4927
-19.8225
-20.099
-20.1325
-19.8174
-19.2439
-18.6593
-18.244
-18.0417
-17.9304
-17.8471
-17.7851
-17.7286
-17.6696
-17.5709
-17.4276
-17.2767
-17.1532
-17.0617
-17.0159
-16.9919
-16.9352
-16.8969
-16.9067
-17.1428
-17.5188
-17.6099
-17.3001
-17.0747
-17.4201
-17.4511
-17.4075
-17.2298
-17.054
-17.0171
-17.0915
-17.1573
-17.1383
-17.1509
-17.1779
-17.1876
-17.1978
-17.2256
-17.2607
-17.3064
-17.3709
-17.4541
-17.5627
-17.7232
-17.8968
-17.9826
-17.9061
-17.7211
-17.5923
-17.5574
-17.511
-17.4285
-17.3444
-17.2826
-17.2465
-17.2263
-17.2156
-17.2125
-17.2167
-17.2303
-17.2572
-17.2963
-17.3413
-17.3358
-17.1823
-17.1164
-17.2291
-17.5024
-17.9363
-18.1411
-18.3434
-18.6869
-19.0797
-19.424
-19.7587
-20.1241
-20.4954
-20.8499
-21.008
-20.6471
-20.0173
-19.3508
-18.7977
-18.504
-18.3878
-18.2961
-18.2178
-18.1504
-18.0851
-18.0007
-17.8713
-17.7323
-17.6128
-17.5225
-17.472
-17.4364
-17.3808
-17.3054
-17.2791
-17.4098
-17.667
-17.7422
-17.5122
-17.346
-17.8862
-17.9513
-17.8388
-17.5864
-17.3643
-17.3157
-17.4167
-17.5367
-17.5763
-17.6008
-17.6499
-17.6823
-17.6958
-17.7188
-17.752
-17.7919
-17.8479
-17.9222
-18.0248
-18.1671
-18.3494
-18.4765
-18.4427
-18.2935
-18.1734
-18.1304
-18.0611
-17.9522
-17.866
-17.8115
-17.7808
-17.7641
-17.7567
-17.7564
-17.7622
-17.7781
-17.8071
-17.8484
-17.8988
-17.95
-17.9153
-17.6842
-17.8552
-18.119
-18.4995
-18.7516
-18.9398
-19.1987
-19.5444
-19.884
-20.2213
-20.5908
-20.9692
-21.2957
-21.4312
-21.1857
-20.6026
-19.9246
-19.3464
-18.9862
-18.8393
-18.7417
-18.6525
-18.5746
-18.5006
-18.4193
-18.3081
-18.1883
-18.0823
-18.0033
-17.9536
-17.9197
-17.8755
-17.8161
-17.7748
-17.8101
-17.9395
-17.9881
-17.8593
-17.7566
-18.346
-18.391
-18.2835
-18.0392
-17.7922
-17.7368
-17.8567
-18.0289
-18.1064
-18.1165
-18.1578
-18.194
-18.208
-18.2237
-18.2513
-18.2846
-18.3287
-18.3865
-18.4643
-18.5703
-18.7025
-18.8234
-18.8523
-18.7926
-18.7091
-18.6262
-18.5305
-18.4359
-18.3715
-18.3315
-18.3085
-18.2968
-18.293
-18.2948
-18.302
-18.3183
-18.3507
-18.3965
-18.4539
-18.5103
-18.5514
-18.4425
-18.592
-18.7875
-19.0662
-19.3425
-19.5104
-19.7114
-19.9862
-20.2779
-20.5835
-20.9069
-21.2302
-21.493
-21.5948
-21.4528
-21.0183
-20.3699
-19.7987
-19.4534
-19.2801
-19.1758
-19.0832
-19.0002
-18.9224
-18.8411
-18.7474
-18.6474
-18.5591
-18.494
-18.452
-18.4249
-18.3989
-18.3662
-18.3317
-18.3546
-18.4181
-18.4284
-18.352
-18.2805
-18.787
-18.8241
-18.7561
-18.5661
-18.3721
-18.3384
-18.4808
-18.6385
-18.6896
-18.6791
-18.7001
-18.7238
-18.7284
-18.7366
-18.7572
-18.783
-18.8168
-18.8597
-18.9137
-18.9817
-19.0594
-19.124
-19.1488
-19.1271
-19.0866
-19.0278
-18.9639
-18.9077
-18.8692
-18.8442
-18.8302
-18.8246
-18.8252
-18.8301
-18.8389
-18.8571
-18.8918
-18.9441
-19.0072
-19.0754
-19.1537
-19.2258
-19.3083
-19.4508
-19.6421
-19.8974
-20.083
-20.2594
-20.4767
-20.7047
-20.9314
-21.1618
-21.3962
-21.6043
-21.6926
-21.5794
-21.2264
-20.6826
-20.1627
-19.8668
-19.6984
-19.5945
-19.5051
-19.4243
-19.3492
-19.2732
-19.1928
-19.1112
-19.0401
-18.9873
-18.9532
-18.9301
-18.9135
-18.8987
-18.8912
-18.9104
-18.9381
-18.9318
-18.8803
-18.8253
-19.2316
-19.3011
-19.3107
-19.2586
-19.1326
-19.0693
-19.1861
-19.2812
-19.2621
-19.2398
-19.2481
-19.2568
-19.2473
-19.252
-19.2652
-19.2843
-19.3097
-19.3418
-19.3804
-19.4247
-19.4703
-19.5048
-19.5156
-19.5031
-19.4796
-19.4491
-19.4163
-19.3874
-19.3661
-19.3527
-19.3468
-19.3475
-19.354
-19.3651
-19.3795
-19.4032
-19.4406
-19.4946
-19.5586
-19.634
-19.7187
-19.9051
-20.0222
-20.1556
-20.2388
-20.3999
-20.6157
-20.797
-21.0044
-21.1982
-21.3537
-21.5006
-21.6404
-21.7549
-21.7967
-21.6672
-21.332
-20.8788
-20.4626
-20.2298
-20.0912
-19.9985
-19.9184
-19.8457
-19.7783
-19.7117
-19.6443
-19.5791
-19.523
-19.4806
-19.452
-19.4324
-19.4183
-19.4089
-19.4101
-19.424
-19.4392
-19.425
-19.396
-19.3543
-19.7672
-19.8781
-19.952
-19.9403
-19.855
-19.7875
-19.8371
-19.8521
-19.7948
-19.7759
-19.7803
-19.7759
-19.7628
-19.7647
-19.7728
-19.7863
-19.805
-19.8286
-19.8563
-19.8864
-19.9152
-19.9364
-19.9451
-19.9414
-19.9282
-19.91
-19.8913
-19.8752
-19.8638
-19.8581
-19.8584
-19.865
-19.8787
-19.8996
-19.9252
-19.9556
-19.9924
-20.0413
-20.1051
-20.1837
-20.2731
-20.489
-20.6917
-20.7843
-20.7877
-20.8447
-21.0276
-21.2377
-21.4469
-21.6401
-21.7876
-21.8926
-21.9515
-21.945
-21.8736
-21.6944
-21.3934
-21.0222
-20.7304
-20.567
-20.4665
-20.3929
-20.3267
-20.2657
-20.209
-20.1538
-20.0995
-20.0487
-20.0054
-19.9721
-19.9487
-19.9331
-19.9218
-19.9141
-19.9149
-19.9197
-19.9269
-19.909
-19.8944
-19.8548
-20.2964
-20.4072
-20.4537
-20.4272
-20.3704
-20.3529
-20.3783
-20.3356
-20.305
-20.2947
-20.2925
-20.2814
-20.2725
-20.2723
-20.2778
-20.2874
-20.301
-20.3182
-20.338
-20.3588
-20.3779
-20.3919
-20.3988
-20.3989
-20.3936
-20.3846
-20.3747
-20.3663
-20.3612
-20.3607
-20.3654
-20.3764
-20.396
-20.4254
-20.462
-20.4996
-20.537
-20.5807
-20.6403
-20.7169
-20.8059
-20.9887
-21.2183
-21.314
-21.2852
-21.2528
-21.3195
-21.4839
-21.6907
-21.8858
-22.0161
-22.0773
-22.0752
-21.9998
-21.856
-21.6533
-21.4214
-21.1769
-21.0132
-20.9061
-20.8391
-20.7863
-20.7355
-20.6875
-20.6424
-20.5989
-20.557
-20.5185
-20.4859
-20.4605
-20.4422
-20.4312
-20.4225
-20.4175
-20.4185
-20.4212
-20.4194
-20.4025
-20.3909
-20.3606
-20.7527
-20.7934
-20.8385
-20.8589
-20.8426
-20.8404
-20.8383
-20.8163
-20.7983
-20.795
-20.7894
-20.7807
-20.7762
-20.7757
-20.7796
-20.7867
-20.7968
-20.8094
-20.8237
-20.8384
-20.8519
-20.8623
-20.8684
-20.8703
-20.8689
-20.8654
-20.8614
-20.8585
-20.858
-20.861
-20.8685
-20.8819
-20.9035
-20.9349
-20.9741
-21.019
-21.0588
-21.1033
-21.1607
-21.2342
-21.3194
-21.4553
-21.6659
-21.8024
-21.7562
-21.6539
-21.6047
-21.6353
-21.7429
-21.8721
-21.9652
-21.9987
-21.9727
-21.8908
-21.7598
-21.6286
-21.5025
-21.3949
-21.3269
-21.2626
-21.2211
-21.1858
-21.1493
-21.1139
-21.0801
-21.0475
-21.0164
-20.9881
-20.9641
-20.9451
-20.9312
-20.9229
-20.9177
-20.9163
-20.9215
-20.9339
-20.9428
-20.9411
-20.9273
-20.89
-21.2185
-21.2267
-21.2833
-21.3225
-21.3223
-21.316
-21.3057
-21.2934
-21.2898
-21.2864
-21.2824
-21.278
-21.2757
-21.2758
-21.2788
-21.2843
-21.2919
-21.3013
-21.3118
-21.3227