/*--------------------------------*- C++ -*----------------------------------*\
| =========                 |                                                 |
| \\      /  F ield         | OpenFOAM: The Open Source CFD Toolbox           |
|  \\    /   O peration     | Version:  2412                                  |
|   \\  /    A nd           | Website:  www.openfoam.com                      |
|    \\/     M anipulation  |                                                 |
\*---------------------------------------------------------------------------*/
FoamFile
{
    version     2.0;
    format      ascii;
    arch        "LSB;label=32;scalar=64";
    class       volVectorField;
    location    "2";
    object      U;
}
// * * * * * * * * * * * * * * * * * * * * * * * * * * * * * * * * * * * * * //

dimensions      [0 1 -1 0 0 0 0];

internalField   nonuniform List<vector> 
6400
(
(2.16997e-08 -1.68631e-08 0)
(6.01532e-08 -5.63055e-08 0)
(7.12982e-08 -8.60824e-08 0)
(1.12645e-08 -6.58218e-08 0)
(-8.8755e-08 2.04404e-08 0)
(-1.63031e-07 1.32323e-07 0)
(-1.56799e-07 1.95961e-07 0)
(-6.63404e-08 1.53112e-07 0)
(4.94443e-08 9.1493e-09 0)
(1.03287e-07 -1.60502e-07 0)
(3.79928e-08 -2.5023e-07 0)
(-1.2751e-07 -1.94421e-07 0)
(-3.03212e-07 -1.43288e-08 0)
(-3.82091e-07 1.87194e-07 0)
(-3.11871e-07 2.89712e-07 0)
(-1.31497e-07 2.307e-07 0)
(5.14577e-08 4.71934e-08 0)
(1.30729e-07 -1.49909e-07 0)
(6.8158e-08 -2.45961e-07 0)
(-8.51003e-08 -1.93767e-07 0)
(-2.26918e-07 -3.59686e-08 0)
(-2.70953e-07 1.28526e-07 0)
(-1.97659e-07 2.09991e-07 0)
(-5.72555e-08 1.78152e-07 0)
(6.9804e-08 7.03765e-08 0)
(1.24816e-07 -4.20815e-08 0)
(1.00242e-07 -1.00529e-07 0)
(3.34468e-08 -8.87841e-08 0)
(-2.46988e-08 -3.16367e-08 0)
(-4.15208e-08 2.92093e-08 0)
(-1.5992e-08 6.25332e-08 0)
(2.9606e-08 6.11945e-08 0)
(6.87892e-08 3.83566e-08 0)
(8.66922e-08 1.35256e-08 0)
(8.429e-08 -1.98364e-10 0)
(7.2334e-08 -8.70853e-10 0)
(6.18163e-08 5.62476e-09 0)
(5.77262e-08 1.21233e-08 0)
(5.85575e-08 1.49742e-08 0)
(5.98471e-08 1.48243e-08 0)
(5.81859e-08 1.43835e-08 0)
(5.31324e-08 1.56106e-08 0)
(4.65551e-08 1.83276e-08 0)
(4.06353e-08 2.07407e-08 0)
(3.61538e-08 2.10597e-08 0)
(3.20747e-08 1.89155e-08 0)
(2.64448e-08 1.5663e-08 0)
(1.78833e-08 1.3434e-08 0)
(6.68781e-09 1.35983e-08 0)
(-5.1706e-09 1.56374e-08 0)
(-1.52491e-08 1.73e-08 0)
(-2.24032e-08 1.61109e-08 0)
(-2.79278e-08 1.14406e-08 0)
(-3.5087e-08 5.5852e-09 0)
(-4.68599e-08 2.78872e-09 0)
(-6.32372e-08 6.20104e-09 0)
(-8.00275e-08 1.47906e-08 0)
(-9.0887e-08 2.25683e-08 0)
(-9.18313e-08 2.19748e-08 0)
(-8.55784e-08 9.68765e-09 0)
(-8.15867e-08 -8.67922e-09 0)
(-9.05431e-08 -2.00999e-08 0)
(-1.15424e-07 -1.21307e-08 0)
(-1.46107e-07 1.59989e-08 0)
(-1.62707e-07 4.85947e-08 0)
(-1.48773e-07 5.99009e-08 0)
(-1.05796e-07 3.19472e-08 0)
(-5.84967e-08 -2.86847e-08 0)
(-4.25165e-08 -8.69508e-08 0)
(-8.04227e-08 -9.75661e-08 0)
(-1.60591e-07 -3.50808e-08 0)
(-2.37516e-07 8.13535e-08 0)
(-2.56648e-07 1.9102e-07 0)
(-1.90421e-07 2.23348e-07 0)
(-5.83601e-08 1.43836e-07 0)
(8.43048e-08 -1.91432e-08 0)
(1.82028e-07 -1.86736e-07 0)
(2.06025e-07 -2.76243e-07 0)
(1.7e-07 -2.49495e-07 0)
(7.67694e-08 -8.57978e-08 0)
(1.62529e-08 -7.29161e-09 0)
(6.69786e-08 -9.63167e-08 0)
(1.7096e-07 -1.58272e-07 0)
(1.89792e-07 -1.18687e-07 0)
(8.0971e-08 5.161e-08 0)
(-1.13612e-07 2.81925e-07 0)
(-2.83475e-07 4.29826e-07 0)
(-3.21931e-07 3.76708e-07 0)
(-2.00835e-07 1.15548e-07 0)
(-3.06004e-09 -2.18664e-07 0)
(1.26651e-07 -4.25477e-07 0)
(7.59097e-08 -3.61988e-07 0)
(-1.49879e-07 -4.88969e-08 0)
(-4.24563e-07 3.36121e-07 0)
(-5.78306e-07 5.61691e-07 0)
(-5.1333e-07 4.93706e-07 0)
(-2.67843e-07 1.76136e-07 0)
(8.11036e-09 -1.96753e-07 0)
(1.55056e-07 -4.09487e-07 0)
(1.04514e-07 -3.54721e-07 0)
(-8.35628e-08 -9.05362e-08 0)
(-2.72285e-07 2.13625e-07 0)
(-3.4047e-07 3.88284e-07 0)
(-2.55699e-07 3.62935e-07 0)
(-7.95962e-08 1.88315e-07 0)
(8.43377e-08 -1.39893e-08 0)
(1.60165e-07 -1.34597e-07 0)
(1.37423e-07 -1.33077e-07 0)
(6.24181e-08 -4.33571e-08 0)
(-2.70556e-09 6.48321e-08 0)
(-1.93743e-08 1.33357e-07 0)
(1.19913e-08 1.43392e-07 0)
(6.3937e-08 1.12508e-07 0)
(1.05818e-07 7.28707e-08 0)
(1.22237e-07 4.85836e-08 0)
(1.16555e-07 4.57425e-08 0)
(1.02457e-07 5.62298e-08 0)
(9.23325e-08 6.83e-08 0)
(9.05595e-08 7.51218e-08 0)
(9.38668e-08 7.69947e-08 0)
(9.61982e-08 7.80996e-08 0)
(9.35917e-08 8.17755e-08 0)
(8.61951e-08 8.78285e-08 0)
(7.70792e-08 9.31246e-08 0)
(6.94714e-08 9.43127e-08 0)
(6.44031e-08 9.05004e-08 0)
(6.00674e-08 8.40486e-08 0)
(5.30611e-08 7.90288e-08 0)
(4.06905e-08 7.82967e-08 0)
(2.30106e-08 8.11573e-08 0)
(3.21447e-09 8.33286e-08 0)
(-1.41321e-08 7.97898e-08 0)
(-2.63817e-08 6.88699e-08 0)
(-3.54141e-08 5.48725e-08 0)
(-4.75127e-08 4.6343e-08 0)
(-6.93487e-08 5.0348e-08 0)
(-1.02414e-07 6.56434e-08 0)
(-1.39455e-07 8.08563e-08 0)
(-1.67404e-07 8.01772e-08 0)
(-1.7586e-07 5.57299e-08 0)
(-1.67077e-07 1.7016e-08 0)
(-1.58109e-07 -9.84266e-09 0)
(-1.72039e-07 1.39942e-09 0)
(-2.19849e-07 5.58717e-08 0)
(-2.87255e-07 1.24315e-07 0)
(-3.36627e-07 1.55638e-07 0)
(-3.30337e-07 1.09168e-07 0)
(-2.59777e-07 -7.7872e-09 0)
(-1.61761e-07 -1.31309e-07 0)
(-1.0198e-07 -1.69871e-07 0)
(-1.34423e-07 -6.59446e-08 0)
(-2.58734e-07 1.5565e-07 0)
(-4.11059e-07 3.83376e-07 0)
(-4.95433e-07 4.78641e-07 0)
(-4.39489e-07 3.59623e-07 0)
(-2.34462e-07 6.20953e-08 0)
(5.55861e-08 -2.75144e-07 0)
(3.18618e-07 -4.8959e-07 0)
(4.40994e-07 -4.75697e-07 0)
(2.34669e-07 -1.94939e-07 0)
(-3.55019e-08 5.65993e-08 0)
(-2.85704e-08 1.42387e-09 0)
(1.43016e-07 -9.17829e-08 0)
(2.92271e-07 -1.35019e-07 0)
(3.01844e-07 -4.39913e-08 0)
(1.27132e-07 1.79525e-07 0)
(-1.58162e-07 4.30235e-07 0)
(-3.9288e-07 5.48226e-07 0)
(-4.32361e-07 4.33977e-07 0)
(-2.47303e-07 1.23216e-07 0)
(3.90799e-08 -2.08948e-07 0)
(2.27998e-07 -3.59448e-07 0)
(1.73686e-07 -2.2289e-07 0)
(-1.08306e-07 1.24497e-07 0)
(-4.49857e-07 4.75261e-07 0)
(-6.36981e-07 6.15376e-07 0)
(-5.5614e-07 4.67022e-07 0)
(-2.62658e-07 1.27621e-07 0)
(5.98136e-08 -1.94157e-07 0)
(2.27956e-07 -3.18666e-07 0)
(1.7128e-07 -1.97173e-07 0)
(-3.49766e-08 7.04114e-08 0)
(-2.37884e-07 3.17021e-07 0)
(-3.10613e-07 4.13542e-07 0)
(-2.26141e-07 3.38523e-07 0)
(-5.35593e-08 1.68144e-07 0)
(1.01665e-07 1.40601e-08 0)
(1.68374e-07 -4.79753e-08 0)
(1.42073e-07 -1.02083e-08 0)
(7.06038e-08 8.04218e-08 0)
(1.17667e-08 1.63926e-07 0)
(-2.35145e-09 2.03375e-07 0)
(2.40723e-08 1.97678e-07 0)
(6.49824e-08 1.69745e-07 0)
(9.47522e-08 1.45512e-07 0)
(1.03078e-07 1.38362e-07 0)
(9.55939e-08 1.46528e-07 0)
(8.4922e-08 1.60105e-07 0)
(8.05381e-08 1.70332e-07 0)
(8.40751e-08 1.74612e-07 0)
(9.09113e-08 1.75825e-07 0)
(9.51103e-08 1.78204e-07 0)
(9.36695e-08 1.83514e-07 0)
(8.78425e-08 1.89893e-07 0)
(8.14968e-08 1.9356e-07 0)
(7.80835e-08 1.9177e-07 0)
(7.81146e-08 1.84999e-07 0)
(7.85356e-08 1.76854e-07 0)
(7.44139e-08 1.71733e-07 0)
(6.20971e-08 1.71538e-07 0)
(4.21232e-08 1.7375e-07 0)
(1.96603e-08 1.72461e-07 0)
(1.6452e-09 1.62557e-07 0)
(-8.49842e-09 1.44334e-07 0)
(-1.47549e-08 1.25381e-07 0)
(-2.7861e-08 1.16562e-07 0)
(-5.82302e-08 1.24279e-07 0)
(-1.06988e-07 1.43007e-07 0)
(-1.60816e-07 1.56151e-07 0)
(-1.98017e-07 1.45566e-07 0)
(-2.02888e-07 1.0744e-07 0)
(-1.81595e-07 6.01213e-08 0)
(-1.63714e-07 3.828e-08 0)
(-1.8646e-07 6.85646e-08 0)
(-2.64945e-07 1.46344e-07 0)
(-3.73133e-07 2.2638e-07 0)
(-4.49528e-07 2.47438e-07 0)
(-4.36035e-07 1.72719e-07 0)
(-3.22092e-07 2.85607e-08 0)
(-1.67122e-07 -1.00265e-07 0)
(-7.20343e-08 -1.14359e-07 0)
(-1.17641e-07 2.88811e-08 0)
(-3.02459e-07 2.76726e-07 0)
(-5.30116e-07 4.96066e-07 0)
(-6.53584e-07 5.53178e-07 0)
(-5.58458e-07 3.95511e-07 0)
(-2.37767e-07 9.05779e-08 0)
(1.69074e-07 -2.12338e-07 0)
(4.44796e-07 -3.61159e-07 0)
(2.52342e-07 -2.36759e-07 0)
(-1.04353e-07 6.92112e-08 0)
(-1.60923e-07 1.11657e-07 0)
(6.34642e-09 5.26608e-08 0)
(2.4158e-07 -6.12749e-08 0)
(4.16405e-07 -1.21741e-07 0)
(3.95538e-07 -2.43473e-08 0)
(1.46221e-07 2.30011e-07 0)
(-2.18407e-07 5.2075e-07 0)
(-4.8747e-07 6.6527e-07 0)
(-4.91998e-07 5.53409e-07 0)
(-2.21701e-07 2.24435e-07 0)
(1.47198e-07 -1.31777e-07 0)
(3.67726e-07 -3.02122e-07 0)
(2.8219e-07 -1.78817e-07 0)
(-6.23964e-08 1.57442e-07 0)
(-4.50668e-07 4.99489e-07 0)
(-6.39012e-07 6.39514e-07 0)
(-5.20925e-07 5.07957e-07 0)
(-1.83347e-07 2.00443e-07 0)
(1.59732e-07 -8.88143e-08 0)
(3.17647e-07 -2.0086e-07 0)
(2.34917e-07 -9.8189e-08 0)
(8.34113e-09 1.26806e-07 0)
(-1.99007e-07 3.30794e-07 0)
(-2.66052e-07 4.09367e-07 0)
(-1.79197e-07 3.51272e-07 0)
(-1.58123e-08 2.22342e-07 0)
(1.21206e-07 1.11168e-07 0)
(1.7042e-07 7.24406e-08 0)
(1.35441e-07 1.06649e-07 0)
(6.4893e-08 1.75029e-07 0)
(1.07243e-08 2.33663e-07 0)
(-2.05373e-09 2.59089e-07 0)
(1.91583e-08 2.54564e-07 0)
(5.03076e-08 2.38429e-07 0)
(7.05868e-08 2.28161e-07 0)
(7.37611e-08 2.30367e-07 0)
(6.66367e-08 2.41015e-07 0)
(6.03084e-08 2.5191e-07 0)
(6.16614e-08 2.57551e-07 0)
(7.02901e-08 2.57912e-07 0)
(8.07825e-08 2.56814e-07 0)
(8.74827e-08 2.58105e-07 0)
(8.82238e-08 2.62643e-07 0)
(8.52049e-08 2.67794e-07 0)
(8.30108e-08 2.6945e-07 0)
(8.52109e-08 2.65064e-07 0)
(9.15191e-08 2.55788e-07 0)
(9.7211e-08 2.46118e-07 0)
(9.55821e-08 2.41072e-07 0)
(8.2326e-08 2.42263e-07 0)
(5.94061e-08 2.45821e-07 0)
(3.50477e-08 2.43954e-07 0)
(1.8983e-08 2.3054e-07 0)
(1.45572e-08 2.06837e-07 0)
(1.38987e-08 1.83524e-07 0)
(3.02683e-10 1.7475e-07 0)
(-4.00938e-08 1.87991e-07 0)
(-1.05604e-07 2.14574e-07 0)
(-1.73489e-07 2.32049e-07 0)
(-2.11859e-07 2.17149e-07 0)
(-2.01781e-07 1.66712e-07 0)
(-1.58595e-07 1.06234e-07 0)
(-1.29322e-07 8.1252e-08 0)
(-1.65932e-07 1.24837e-07 0)
(-2.82352e-07 2.29427e-07 0)
(-4.32773e-07 3.3634e-07 0)
(-5.27087e-07 3.68938e-07 0)
(-4.90092e-07 2.81695e-07 0)
(-3.19707e-07 1.06276e-07 0)
(-1.08633e-07 -5.7624e-08 0)
(4.81817e-09 -9.42091e-08 0)
(-7.60707e-08 4.61201e-08 0)
(-3.27966e-07 3.07771e-07 0)
(-6.02893e-07 5.48678e-07 0)
(-7.04539e-07 6.26868e-07 0)
(-5.19046e-07 4.82152e-07 0)
(-1.22733e-07 1.78616e-07 0)
(2.3174e-07 -1.19267e-07 0)
(1.61936e-07 -2.16751e-07 0)
(-1.25597e-07 8.09012e-09 0)
(-2.15577e-07 1.63258e-07 0)
(-1.43436e-07 2.29984e-07 0)
(5.31683e-08 1.45291e-07 0)
(3.22768e-07 -2.73385e-08 0)
(5.11259e-07 -1.32046e-07 0)
(4.61326e-07 -3.06338e-08 0)
(1.50561e-07 2.73399e-07 0)
(-2.69768e-07 6.28783e-07 0)
(-5.48232e-07 8.12134e-07 0)
(-5.07599e-07 6.92804e-07 0)
(-1.67184e-07 3.17285e-07 0)
(2.50246e-07 -9.4632e-08 0)
(4.71705e-07 -3.01667e-07 0)
(3.50245e-07 -1.83295e-07 0)
(-3.016e-08 1.72134e-07 0)
(-4.23785e-07 5.42105e-07 0)
(-5.8526e-07 7.06009e-07 0)
(-4.33968e-07 5.90374e-07 0)
(-8.56717e-08 2.9102e-07 0)
(2.36781e-07 2.18521e-09 0)
(3.5953e-07 -1.18955e-07 0)
(2.53258e-07 -3.40887e-08 0)
(2.92747e-08 1.70765e-07 0)
(-1.56646e-07 3.62798e-07 0)
(-2.04355e-07 4.45646e-07 0)
(-1.17919e-07 4.07683e-07 0)
(2.32475e-08 3.05319e-07 0)
(1.28943e-07 2.1433e-07 0)
(1.54343e-07 1.80926e-07 0)
(1.12113e-07 2.05879e-07 0)
(4.83143e-08 2.58098e-07 0)
(5.05922e-09 3.03185e-07 0)
(-1.89016e-09 3.2355e-07 0)
(1.67866e-08 3.22439e-07 0)
(3.99192e-08 3.13907e-07 0)
(5.21731e-08 3.10315e-07 0)
(5.14155e-08 3.15153e-07 0)
(4.53642e-08 3.24099e-07 0)
(4.3462e-08 3.30585e-07 0)
(5.01602e-08 3.31179e-07 0)
(6.32805e-08 3.2733e-07 0)
(7.67783e-08 3.23445e-07 0)
(8.52733e-08 3.23223e-07 0)
(8.73843e-08 3.26897e-07 0)
(8.62768e-08 3.30977e-07 0)
(8.73251e-08 3.30645e-07 0)
(9.41827e-08 3.23273e-07 0)
(1.05529e-07 3.1091e-07 0)
(1.14642e-07 2.99631e-07 0)
(1.1298e-07 2.95758e-07 0)
(9.6055e-08 3.00649e-07 0)
(6.82312e-08 3.0824e-07 0)
(4.1673e-08 3.07559e-07 0)
(2.89988e-08 2.90749e-07 0)
(3.23892e-08 2.60633e-07 0)
(3.84507e-08 2.3288e-07 0)
(2.35122e-08 2.26782e-07 0)
(-2.88962e-08 2.51146e-07 0)
(-1.11826e-07 2.91833e-07 0)
(-1.9057e-07 3.16789e-07 0)
(-2.22727e-07 2.94803e-07 0)
(-1.88806e-07 2.242e-07 0)
(-1.17667e-07 1.42302e-07 0)
(-7.63658e-08 1.1177e-07 0)
(-1.30115e-07 1.75426e-07 0)
(-2.86552e-07 3.2039e-07 0)
(-4.75593e-07 4.66796e-07 0)
(-5.79003e-07 5.14261e-07 0)
(-5.11032e-07 4.05044e-07 0)
(-2.86245e-07 1.80582e-07 0)
(-3.28903e-08 -3.43779e-08 0)
(8.22155e-08 -9.80251e-08 0)
(-3.54959e-08 4.8595e-08 0)
(-3.25564e-07 3.38253e-07 0)
(-5.94959e-07 6.01802e-07 0)
(-6.40978e-07 6.72171e-07 0)
(-4.16563e-07 4.86981e-07 0)
(-9.45547e-08 1.49762e-07 0)
(7.03509e-10 -1.25603e-07 0)
(-6.17021e-08 -1.10226e-07 0)
(-1.11433e-07 9.60718e-08 0)
(-1.77101e-07 3.27213e-07 0)
(-1.50304e-07 4.019e-07 0)
(5.77503e-08 2.58056e-07 0)
(3.69928e-07 1.21336e-08 0)
(5.82629e-07 -1.33931e-07 0)
(5.11772e-07 -2.07843e-08 0)
(1.49399e-07 3.31328e-07 0)
(-3.13984e-07 7.34821e-07 0)
(-5.93777e-07 9.32586e-07 0)
(-5.14047e-07 7.88728e-07 0)
(-1.24331e-07 3.69874e-07 0)
(3.18316e-07 -7.38403e-08 0)
(5.31919e-07 -2.85842e-07 0)
(3.88461e-07 -1.51271e-07 0)
(3.24797e-10 2.22466e-07 0)
(-3.76058e-07 5.99549e-07 0)
(-5.09949e-07 7.60395e-07 0)
(-3.47324e-07 6.43385e-07 0)
(-1.78844e-08 3.53361e-07 0)
(2.6595e-07 8.21978e-08 0)
(3.56892e-07 -2.47673e-08 0)
(2.46672e-07 6.01695e-08 0)
(4.65196e-08 2.50702e-07 0)
(-1.07782e-07 4.24412e-07 0)
(-1.39976e-07 4.9802e-07 0)
(-6.51063e-08 4.66194e-07 0)
(4.50432e-08 3.81255e-07 0)
(1.18724e-07 3.0833e-07 0)
(1.26909e-07 2.8413e-07 0)
(8.63603e-08 3.06537e-07 0)
(3.58283e-08 3.48519e-07 0)
(5.94869e-09 3.82653e-07 0)
(4.61925e-09 3.96591e-07 0)
(2.02989e-08 3.94679e-07 0)
(3.61597e-08 3.88661e-07 0)
(4.22195e-08 3.87536e-07 0)
(3.93951e-08 3.92526e-07 0)
(3.53845e-08 3.98889e-07 0)
(3.77433e-08 4.01038e-07 0)
(4.88348e-08 3.96983e-07 0)
(6.51534e-08 3.89361e-07 0)
(8.02189e-08 3.83161e-07 0)
(8.8879e-08 3.81957e-07 0)
(9.04981e-08 3.85208e-07 0)
(8.93532e-08 3.88283e-07 0)
(9.18685e-08 3.85505e-07 0)
(1.01877e-07 3.74404e-07 0)
(1.16778e-07 3.58553e-07 0)
(1.27392e-07 3.46244e-07 0)
(1.23128e-07 3.45228e-07 0)
(9.9751e-08 3.55926e-07 0)
(6.50817e-08 3.68931e-07 0)
(3.61969e-08 3.69254e-07 0)
(2.8676e-08 3.47665e-07 0)
(4.22565e-08 3.10088e-07 0)
(5.615e-08 2.79029e-07 0)
(3.85827e-08 2.79443e-07 0)
(-2.86004e-08 3.199e-07 0)
(-1.30566e-07 3.77626e-07 0)
(-2.17957e-07 4.08552e-07 0)
(-2.3754e-07 3.73804e-07 0)
(-1.71923e-07 2.76772e-07 0)
(-6.76151e-08 1.70998e-07 0)
(-1.39392e-08 1.38263e-07 0)
(-8.77516e-08 2.28489e-07 0)
(-2.85908e-07 4.17982e-07 0)
(-5.10727e-07 6.01627e-07 0)
(-6.17283e-07 6.56908e-07 0)
(-5.15321e-07 5.20933e-07 0)
(-2.41637e-07 2.524e-07 0)
(4.16017e-08 2.0335e-09 0)
(1.50099e-07 -7.18583e-08 0)
(4.38918e-09 8.19642e-08 0)
(-2.99054e-07 3.68774e-07 0)
(-5.47632e-07 5.92701e-07 0)
(-5.6921e-07 5.90267e-07 0)
(-3.82608e-07 3.48368e-07 0)
(-1.55177e-07 1.00161e-08 0)
(6.77366e-08 -2.26196e-07 0)
(1.29775e-07 -8.59895e-08 0)
(-3.07968e-08 2.52604e-07 0)
(-2.14603e-07 5.39351e-07 0)
(-2.19491e-07 5.90827e-07 0)
(3.18841e-08 3.78314e-07 0)
(4.01559e-07 6.25649e-08 0)
(6.37551e-07 -1.21185e-07 0)
(5.4099e-07 -2.28487e-09 0)
(1.29996e-07 3.7981e-07 0)
(-3.64827e-07 8.0894e-07 0)
(-6.3529e-07 1.00863e-06 0)
(-5.17218e-07 8.48609e-07 0)
(-9.1768e-08 4.1417e-07 0)
(3.59236e-07 -2.92979e-08 0)
(5.57234e-07 -2.28667e-07 0)
(3.98208e-07 -8.49469e-08 0)
(1.65316e-08 2.81179e-07 0)
(-3.32558e-07 6.37516e-07 0)
(-4.40589e-07 7.82449e-07 0)
(-2.77535e-07 6.7205e-07 0)
(2.24915e-08 4.13136e-07 0)
(2.65796e-07 1.81263e-07 0)
(3.32172e-07 9.89126e-08 0)
(2.27928e-07 1.80598e-07 0)
(5.67203e-08 3.45124e-07 0)
(-6.80361e-08 4.88427e-07 0)
(-9.02505e-08 5.45825e-07 0)
(-2.98359e-08 5.19153e-07 0)
(5.24662e-08 4.54299e-07 0)
(1.01999e-07 4.02722e-07 0)
(1.011e-07 3.89832e-07 0)
(6.67667e-08 4.10267e-07 0)
(2.95813e-08 4.41479e-07 0)
(1.07372e-08 4.63453e-07 0)
(1.31435e-08 4.69305e-07 0)
(2.60702e-08 4.64646e-07 0)
(3.67828e-08 4.59201e-07 0)
(3.92136e-08 4.58969e-07 0)
(3.5959e-08 4.63158e-07 0)
(3.4205e-08 4.66619e-07 0)
(3.99707e-08 4.64558e-07 0)
(5.41505e-08 4.56221e-07 0)
(7.2256e-08 4.45323e-07 0)
(8.73287e-08 4.37419e-07 0)
(9.4295e-08 4.35905e-07 0)
(9.336e-08 4.39293e-07 0)
(9.03082e-08 4.41591e-07 0)
(9.30214e-08 4.36204e-07 0)
(1.05495e-07 4.21082e-07 0)
(1.23295e-07 4.01854e-07 0)
(1.3403e-07 3.89431e-07 0)
(1.2485e-07 3.92894e-07 0)
(9.24943e-08 4.10947e-07 0)
(4.9692e-08 4.29862e-07 0)
(1.94961e-08 4.30167e-07 0)
(2.01261e-08 4.01964e-07 0)
(4.68807e-08 3.55822e-07 0)
(6.92265e-08 3.22544e-07 0)
(4.6359e-08 3.32716e-07 0)
(-3.97409e-08 3.92985e-07 0)
(-1.62819e-07 4.69438e-07 0)
(-2.56072e-07 5.04776e-07 0)
(-2.56111e-07 4.53506e-07 0)
(-1.51723e-07 3.26958e-07 0)
(-1.18058e-08 1.96985e-07 0)
(5.08554e-08 1.63903e-07 0)
(-4.83556e-08 2.81435e-07 0)
(-2.89154e-07 5.1223e-07 0)
(-5.43122e-07 7.26891e-07 0)
(-6.4257e-07 7.86379e-07 0)
(-5.01814e-07 6.29141e-07 0)
(-1.86647e-07 3.32135e-07 0)
(1.09618e-07 6.35197e-08 0)
(1.96378e-07 -1.79627e-08 0)
(1.84033e-08 1.18019e-07 0)
(-2.93449e-07 3.53252e-07 0)
(-5.13496e-07 4.94308e-07 0)
(-5.00571e-07 4.18807e-07 0)
(-2.33111e-07 1.39489e-07 0)
(1.90565e-07 -2.70043e-07 0)
(3.77071e-07 -2.92543e-07 0)
(2.37519e-07 1.45711e-08 0)
(-6.84433e-08 4.4564e-07 0)
(-3.1892e-07 7.5705e-07 0)
(-3.06192e-07 7.76311e-07 0)
(3.50918e-09 4.96818e-07 0)
(4.2173e-07 1.1631e-07 0)
(6.64823e-07 -1.02881e-07 0)
(5.36205e-07 1.59919e-08 0)
(8.78361e-08 4.14507e-07 0)
(-4.16458e-07 8.55586e-07 0)
(-6.60985e-07 1.05416e-06 0)
(-5.05886e-07 8.90254e-07 0)
(-6.33595e-08 4.62155e-07 0)
(3.7305e-07 3.73185e-08 0)
(5.43074e-07 -1.45285e-07 0)
(3.72644e-07 -3.67114e-09 0)
(1.18793e-08 3.37571e-07 0)
(-2.96893e-07 6.61844e-07 0)
(-3.75404e-07 7.91969e-07 0)
(-2.16787e-07 6.9861e-07 0)
(4.69803e-08 4.81959e-07 0)
(2.46815e-07 2.93814e-07 0)
(2.90323e-07 2.3264e-07 0)
(1.9509e-07 3.04082e-07 0)
(5.38701e-08 4.37689e-07 0)
(-4.24048e-08 5.50303e-07 0)
(-5.51902e-08 5.94354e-07 0)
(-6.706e-09 5.75384e-07 0)
(5.33526e-08 5.3044e-07 0)
(8.49257e-08 4.97412e-07 0)
(7.87652e-08 4.92352e-07 0)
(5.08997e-08 5.08618e-07 0)
(2.48624e-08 5.28798e-07 0)
(1.47209e-08 5.39537e-07 0)
(2.01811e-08 5.38169e-07 0)
(3.1597e-08 5.30772e-07 0)
(3.93141e-08 5.25073e-07 0)
(3.98643e-08 5.24625e-07 0)
(3.67947e-08 5.27169e-07 0)
(3.68744e-08 5.2736e-07 0)
(4.51226e-08 5.21108e-07 0)
(6.13885e-08 5.08744e-07 0)
(8.02319e-08 4.9503e-07 0)
(9.40116e-08 4.86143e-07 0)
(9.76654e-08 4.85269e-07 0)
(9.25561e-08 4.89742e-07 0)
(8.65122e-08 4.91874e-07 0)
(8.91859e-08 4.8402e-07 0)
(1.04405e-07 4.648e-07 0)
(1.25045e-07 4.42465e-07 0)
(1.34707e-07 4.30954e-07 0)
(1.1839e-07 4.40489e-07 0)
(7.50203e-08 4.67147e-07 0)
(2.39248e-08 4.91861e-07 0)
(-5.14866e-09 4.90331e-07 0)
(7.55508e-09 4.52962e-07 0)
(5.02226e-08 3.96721e-07 0)
(8.03496e-08 3.62177e-07 0)
(4.81951e-08 3.85314e-07 0)
(-6.10542e-08 4.69022e-07 0)
(-2.0589e-07 5.65865e-07 0)
(-3.00535e-07 6.04517e-07 0)
(-2.74299e-07 5.34182e-07 0)
(-1.27535e-07 3.76698e-07 0)
(4.48856e-08 2.23323e-07 0)
(1.08986e-07 1.91261e-07 0)
(-2.02157e-08 3.34523e-07 0)
(-2.98407e-07 6.0022e-07 0)
(-5.66909e-07 8.37188e-07 0)
(-6.45008e-07 8.96045e-07 0)
(-4.64412e-07 7.21663e-07 0)
(-1.25601e-07 4.07309e-07 0)
(1.54529e-07 1.28657e-07 0)
(1.96136e-07 3.37183e-08 0)
(-1.27599e-08 1.32387e-07 0)
(-2.91032e-07 2.99329e-07 0)
(-4.10305e-07 3.6058e-07 0)
(-2.04339e-07 2.10765e-07 0)
(2.23616e-07 -2.07994e-07 0)
(4.69013e-07 -4.01839e-07 0)
(4.66678e-07 -2.54191e-07 0)
(2.21479e-07 1.51786e-07 0)
(-1.57718e-07 6.42698e-07 0)
(-4.24243e-07 9.62439e-07 0)
(-3.81388e-07 9.42574e-07 0)
(-2.38477e-08 5.99454e-07 0)
(4.22271e-07 1.65767e-07 0)
(6.56944e-07 -7.81253e-08 0)
(4.98539e-07 4.11326e-08 0)
(3.3325e-08 4.45011e-07 0)
(-4.55159e-07 8.83569e-07 0)
(-6.61586e-07 1.07454e-06 0)
(-4.78905e-07 9.13458e-07 0)
(-4.34512e-08 5.0769e-07 0)
(3.56199e-07 1.16439e-07 0)
(4.91449e-07 -4.34788e-08 0)
(3.19407e-07 9.19141e-08 0)
(-4.22637e-09 3.99982e-07 0)
(-2.62104e-07 6.86285e-07 0)
(-3.11439e-07 8.00757e-07 0)
(-1.64692e-07 7.26241e-07 0)
(5.59192e-08 5.52529e-07 0)
(2.10818e-07 4.06079e-07 0)
(2.34595e-07 3.63221e-07 0)
(1.52033e-07 4.23707e-07 0)
(4.18767e-08 5.29041e-07 0)
(-2.70986e-08 6.15187e-07 0)
(-3.12858e-08 6.48477e-07 0)
(6.94486e-09 6.35995e-07 0)
(4.87534e-08 6.06389e-07 0)
(6.65782e-08 5.8645e-07 0)
(5.7427e-08 5.85533e-07 0)
(3.57429e-08 5.96907e-07 0)
(1.90789e-08 6.07628e-07 0)
(1.6073e-08 6.09343e-07 0)
(2.42975e-08 6.0216e-07 0)
(3.51159e-08 5.92147e-07 0)
(4.11109e-08 5.85437e-07 0)
(4.05824e-08 5.83851e-07 0)
(3.77441e-08 5.84145e-07 0)
(3.92073e-08 5.80863e-07 0)
(4.93938e-08 5.7049e-07 0)
(6.72602e-08 5.54373e-07 0)
(8.62399e-08 5.38413e-07 0)
(9.77854e-08 5.29503e-07 0)
(9.69174e-08 5.30495e-07 0)
(8.66307e-08 5.37173e-07 0)
(7.73416e-08 5.39749e-07 0)
(8.05903e-08 5.29465e-07 0)
(9.941e-08 5.06042e-07 0)
(1.22971e-07 4.81039e-07 0)
(1.30238e-07 4.71745e-07 0)
(1.04631e-07 4.89074e-07 0)
(4.88607e-08 5.25287e-07 0)
(-9.50194e-09 5.54962e-07 0)
(-3.39177e-08 5.4896e-07 0)
(-4.97564e-09 4.99465e-07 0)
(5.54647e-08 4.31808e-07 0)
(9.1422e-08 3.97474e-07 0)
(4.56138e-08 4.36923e-07 0)
(-8.96884e-08 5.47009e-07 0)
(-2.54611e-07 6.64756e-07 0)
(-3.44999e-07 7.05141e-07 0)
(-2.87726e-07 6.14498e-07 0)
(-1.0001e-07 4.27728e-07 0)
(9.66139e-08 2.5513e-07 0)
(1.53208e-07 2.26871e-07 0)
(-6.29137e-09 3.92252e-07 0)
(-3.09171e-07 6.81269e-07 0)
(-5.72788e-07 9.25403e-07 0)
(-6.18177e-07 9.72891e-07 0)
(-4.0697e-07 7.80597e-07 0)
(-7.3235e-08 4.56074e-07 0)
(1.61484e-07 1.75441e-07 0)
(1.58081e-07 7.08967e-08 0)
(-2.58684e-08 1.33474e-07 0)
(-1.80249e-07 2.30127e-07 0)
(-9.70225e-08 2.00851e-07 0)
(1.31138e-07 -7.50117e-08 0)
(3.20362e-07 -3.37712e-07 0)
(5.00032e-07 -3.86397e-07 0)
(4.75754e-07 -1.57257e-07 0)
(1.81802e-07 3.1094e-07 0)
(-2.39965e-07 8.30971e-07 0)
(-5.13269e-07 1.1356e-06 0)
(-4.43068e-07 1.07015e-06 0)
(-5.21557e-08 6.76497e-07 0)
(4.0201e-07 2.1224e-07 0)
(6.17149e-07 -3.96497e-08 0)
(4.36529e-07 8.03126e-08 0)
(-2.33933e-08 4.75369e-07 0)
(-4.74918e-07 8.93994e-07 0)
(-6.38091e-07 1.06958e-06 0)
(-4.41353e-07 9.17794e-07 0)
(-3.4531e-08 5.50103e-07 0)
(3.13894e-07 2.07037e-07 0)
(4.1464e-07 7.60249e-08 0)
(2.51975e-07 2.02491e-07 0)
(-2.37005e-08 4.7084e-07 0)
(-2.28039e-07 7.13861e-07 0)
(-2.53615e-07 8.10376e-07 0)
(-1.25663e-07 7.53694e-07 0)
(4.9624e-08 6.2121e-07 0)
(1.63323e-07 5.13971e-07 0)
(1.73051e-07 4.88047e-07 0)
(1.06012e-07 5.38904e-07 0)
(2.52715e-08 6.19562e-07 0)
(-2.03059e-08 6.82699e-07 0)
(-1.83635e-08 7.05985e-07 0)
(1.06794e-08 6.97219e-07 0)
(3.80835e-08 6.78019e-07 0)
(4.62777e-08 6.66561e-07 0)
(3.63365e-08 6.67418e-07 0)
(2.06112e-08 6.74125e-07 0)
(1.17279e-08 6.77168e-07 0)
(1.43896e-08 6.71721e-07 0)
(2.48927e-08 6.59712e-07 0)
(3.55035e-08 6.47105e-07 0)
(4.03918e-08 6.38915e-07 0)
(3.90804e-08 6.35769e-07 0)
(3.63682e-08 6.33672e-07 0)
(3.89773e-08 6.27004e-07 0)
(5.09708e-08 6.12727e-07 0)
(7.03561e-08 5.93251e-07 0)
(8.91494e-08 5.75761e-07 0)
(9.7727e-08 5.6792e-07 0)
(9.14289e-08 5.72001e-07 0)
(7.54915e-08 5.81793e-07 0)
(6.34059e-08 5.85079e-07 0)
(6.84664e-08 5.72146e-07 0)
(9.19875e-08 5.44442e-07 0)
(1.18369e-07 5.17545e-07 0)
(1.2161e-07 5.12156e-07 0)
(8.46423e-08 5.39072e-07 0)
(1.5845e-08 5.85376e-07 0)
(-4.76067e-08 6.18519e-07 0)
(-6.30953e-08 6.05055e-07 0)
(-1.4121e-08 5.40816e-07 0)
(6.46125e-08 4.61246e-07 0)
(1.03295e-07 4.29076e-07 0)
(3.987e-08 4.87458e-07 0)
(-1.22116e-07 6.24929e-07 0)
(-3.0276e-07 7.62146e-07 0)
(-3.82589e-07 8.02499e-07 0)
(-2.92327e-07 6.92869e-07 0)
(-7.01532e-08 4.82866e-07 0)
(1.386e-07 2.98896e-07 0)
(1.79419e-07 2.77513e-07 0)
(-5.7908e-09 4.57582e-07 0)
(-3.15963e-07 7.52048e-07 0)
(-5.56179e-07 9.82307e-07 0)
(-5.65175e-07 1.00403e-06 0)
(-3.4034e-07 7.92157e-07 0)
(-3.53199e-08 4.66919e-07 0)
(1.53464e-07 1.97654e-07 0)
(1.5216e-07 9.09844e-08 0)
(6.12672e-08 1.09737e-07 0)
(2.60296e-08 1.30008e-07 0)
(-4.52629e-08 4.32369e-08 0)
(-4.82816e-09 -1.38085e-07 0)
(2.89666e-07 -2.8455e-07 0)
(5.27232e-07 -2.77841e-07 0)
(4.86961e-07 -8.78856e-09 0)
(1.39685e-07 4.76124e-07 0)
(-3.18483e-07 9.85496e-07 0)
(-5.8639e-07 1.2546e-06 0)
(-4.86877e-07 1.14823e-06 0)
(-7.70503e-08 7.27634e-07 0)
(3.65004e-07 2.6015e-07 0)
(5.51255e-07 1.62827e-08 0)
(3.57494e-07 1.34636e-07 0)
(-7.69525e-08 5.05867e-07 0)
(-4.7554e-07 8.89273e-07 0)
(-5.94771e-07 1.0448e-06 0)
(-3.97046e-07 9.09747e-07 0)
(-3.46011e-08 5.9316e-07 0)
(2.55272e-07 3.07931e-07 0)
(3.24914e-07 2.08003e-07 0)
(1.79437e-07 3.22093e-07 0)
(-4.4491e-08 5.46647e-07 0)
(-1.98496e-07 7.44676e-07 0)
(-2.06713e-07 8.23291e-07 0)
(-1.0074e-07 7.83569e-07 0)
(3.22564e-08 6.89081e-07 0)
(1.11602e-07 6.16671e-07 0)
(1.12614e-07 6.04897e-07 0)
(6.12977e-08 6.46671e-07 0)
(5.58892e-09 7.05822e-07 0)
(-2.18158e-08 7.49182e-07 0)
(-1.6084e-08 7.63334e-07 0)
(5.49869e-09 7.56124e-07 0)
(2.2666e-08 7.43407e-07 0)
(2.50952e-08 7.36823e-07 0)
(1.60638e-08 7.37634e-07 0)
(5.73841e-09 7.39814e-07 0)
(3.00575e-09 7.36425e-07 0)
(9.95458e-09 7.25115e-07 0)
(2.22108e-08 7.09026e-07 0)
(3.2737e-08 6.94037e-07 0)
(3.67534e-08 6.84396e-07 0)
(3.46767e-08 6.79823e-07 0)
(3.19546e-08 6.75617e-07 0)
(3.56644e-08 6.65907e-07 0)
(4.95851e-08 6.48098e-07 0)
(7.05505e-08 6.25791e-07 0)
(8.88332e-08 6.07607e-07 0)
(9.37079e-08 6.01931e-07 0)
(8.12842e-08 6.10111e-07 0)
(5.97495e-08 6.23504e-07 0)
(4.59915e-08 6.27304e-07 0)
(5.45715e-08 6.11269e-07 0)
(8.38686e-08 5.79356e-07 0)
(1.12532e-07 5.51749e-07 0)
(1.09752e-07 5.5227e-07 0)
(5.96289e-08 5.90461e-07 0)
(-2.18139e-08 6.46887e-07 0)
(-8.70563e-08 6.81569e-07 0)
(-8.91237e-08 6.5785e-07 0)
(-1.74895e-08 5.77229e-07 0)
(7.81732e-08 4.86367e-07 0)
(1.15504e-07 4.58476e-07 0)
(3.17739e-08 5.3694e-07 0)
(-1.54339e-07 7.00218e-07 0)
(-3.43434e-07 8.53463e-07 0)
(-4.06353e-07 8.92285e-07 0)
(-2.8461e-07 7.67868e-07 0)
(-3.91873e-08 5.44474e-07 0)
(1.67358e-07 3.59058e-07 0)
(1.86088e-07 3.46263e-07 0)
(-1.6362e-08 5.29494e-07 0)
(-3.15588e-07 8.07261e-07 0)
(-5.18482e-07 1.00078e-06 0)
(-4.92446e-07 9.83828e-07 0)
(-2.65285e-07 7.53974e-07 0)
(9.82042e-09 4.37911e-07 0)
(1.76682e-07 1.84844e-07 0)
(2.02341e-07 6.54642e-08 0)
(1.05146e-07 4.57851e-08 0)
(-2.05192e-07 6.16132e-08 0)
(-3.27004e-07 6.95654e-08 0)
(-5.37639e-08 -1.01023e-08 0)
(3.26815e-07 -1.12558e-07 0)
(5.66506e-07 -9.79682e-08 0)
(4.71372e-07 1.59383e-07 0)
(7.47262e-08 6.16386e-07 0)
(-3.92866e-07 1.08637e-06 0)
(-6.33549e-07 1.3123e-06 0)
(-5.04811e-07 1.17812e-06 0)
(-9.47975e-08 7.57028e-07 0)
(3.14492e-07 3.12105e-07 0)
(4.64907e-07 8.94073e-08 0)
(2.68187e-07 2.03034e-07 0)
(-1.23494e-07 5.38276e-07 0)
(-4.58494e-07 8.75936e-07 0)
(-5.36555e-07 1.00967e-06 0)
(-3.49385e-07 8.97062e-07 0)
(-4.14962e-08 6.38689e-07 0)
(1.8789e-07 4.14286e-07 0)
(2.31128e-07 3.44055e-07 0)
(1.07331e-07 4.43449e-07 0)
(-6.60148e-08 6.24416e-07 0)
(-1.75737e-07 7.80073e-07 0)
(-1.72123e-07 8.42753e-07 0)
(-8.81298e-08 8.18218e-07 0)
(8.37401e-09 7.56064e-07 0)
(6.07481e-08 7.1183e-07 0)
(5.6938e-08 7.10202e-07 0)
(1.97135e-08 7.43231e-07 0)
(-1.61491e-08 7.84318e-07 0)
(-3.01542e-08 8.11535e-07 0)
(-2.20612e-08 8.1789e-07 0)
(-5.79223e-09 8.10698e-07 0)
(4.88424e-09 8.01265e-07 0)
(4.50383e-09 7.96554e-07 0)
(-2.69256e-09 7.95747e-07 0)
(-8.43864e-09 7.93391e-07 0)
(-6.4619e-09 7.84458e-07 0)
(3.69141e-09 7.68291e-07 0)
(1.72729e-08 7.48847e-07 0)
(2.76617e-08 7.31954e-07 0)
(3.07455e-08 7.21298e-07 0)
(2.77223e-08 7.15807e-07 0)
(2.48547e-08 7.10032e-07 0)
(2.97431e-08 6.97787e-07 0)
(4.57777e-08 6.76973e-07 0)
(6.82781e-08 6.52552e-07 0)
(8.55136e-08 6.34659e-07 0)
(8.58734e-08 6.32208e-07 0)
(6.69127e-08 6.45179e-07 0)
(4.04792e-08 6.62145e-07 0)
(2.68572e-08 6.65809e-07 0)
(4.09515e-08 6.46096e-07 0)
(7.67845e-08 6.10304e-07 0)
(1.06593e-07 5.83554e-07 0)
(9.558e-08 5.92056e-07 0)
(3.11797e-08 6.42758e-07 0)
(-6.1222e-08 7.08646e-07 0)
(-1.2403e-07 7.42718e-07 0)
(-1.08699e-07 7.06761e-07 0)
(-1.38077e-08 6.09784e-07 0)
(9.52106e-08 5.09724e-07 0)
(1.26662e-07 4.88239e-07 0)
(2.21803e-08 5.86016e-07 0)
(-1.81803e-07 7.70608e-07 0)
(-3.6968e-07 9.34414e-07 0)
(-4.10406e-07 9.70443e-07 0)
(-2.62624e-07 8.37642e-07 0)
(-8.83568e-09 6.12837e-07 0)
(1.80832e-07 4.35901e-07 0)
(1.73968e-07 4.30844e-07 0)
(-3.49106e-08 6.02601e-07 0)
(-3.06312e-07 8.40771e-07 0)
(-4.60783e-07 9.7769e-07 0)
(-3.98411e-07 9.13212e-07 0)
(-1.70801e-07 6.65466e-07 0)
(7.27294e-08 3.56616e-07 0)
(2.01471e-07 1.10615e-07 0)
(1.14563e-07 -6.15955e-09 0)
(-2.53876e-07 -4.25705e-08 0)
(-4.57738e-07 1.41754e-07 0)
(-3.35502e-07 2.67411e-07 0)
(-8.44616e-09 2.36223e-07 0)
(3.65667e-07 1.22448e-07 0)
(5.5424e-07 9.88859e-08 0)
(4.07178e-07 3.11514e-07 0)
(-5.57283e-09 7.16802e-07 0)
(-4.47767e-07 1.13235e-06 0)
(-6.45074e-07 1.31408e-06 0)
(-4.94557e-07 1.16698e-06 0)
(-1.05323e-07 7.69994e-07 0)
(2.53721e-07 3.69448e-07 0)
(3.65528e-07 1.77928e-07 0)
(1.76475e-07 2.84009e-07 0)
(-1.59677e-07 5.74968e-07 0)
(-4.2671e-07 8.60987e-07 0)
(-4.6965e-07 9.72893e-07 0)
(-3.02541e-07 8.85549e-07 0)
(-5.39015e-08 6.86597e-07 0)
(1.17806e-07 5.20711e-07 0)
(1.40317e-07 4.76898e-07 0)
(4.01533e-08 5.61093e-07 0)
(-8.70992e-08 7.02097e-07 0)
(-1.60088e-07 8.20512e-07 0)
(-1.49293e-07 8.69578e-07 0)
(-8.54459e-08 8.572e-07 0)
(-1.86101e-08 8.20211e-07 0)
(1.37783e-08 7.96745e-07 0)
(7.97679e-09 8.01313e-07 0)
(-1.73686e-08 8.26255e-07 0)
(-3.81682e-08 8.52826e-07 0)
(-4.26098e-08 8.67393e-07 0)
(-3.29683e-08 8.67226e-07 0)
(-2.00983e-08 8.58813e-07 0)
(-1.30925e-08 8.50103e-07 0)
(-1.43535e-08 8.44952e-07 0)
(-1.93742e-08 8.41403e-07 0)
(-2.136e-08 8.34603e-07 0)
(-1.57747e-08 8.20885e-07 0)
(-3.19794e-09 8.00738e-07 0)
(1.13149e-08 7.78682e-07 0)
(2.13113e-08 7.60528e-07 0)
(2.3166e-08 7.49502e-07 0)
(1.89322e-08 7.43761e-07 0)
(1.58723e-08 7.3706e-07 0)
(2.21284e-08 7.22903e-07 0)
(4.04072e-08 6.99817e-07 0)
(6.41343e-08 6.74258e-07 0)
(7.95035e-08 6.57805e-07 0)
(7.45534e-08 6.59545e-07 0)
(4.91378e-08 6.77607e-07 0)
(1.93084e-08 6.97608e-07 0)
(8.25012e-09 7.00164e-07 0)
(2.98378e-08 6.76263e-07 0)
(7.23164e-08 6.37241e-07 0)
(1.0147e-07 6.13057e-07 0)
(8.01412e-08 6.31177e-07 0)
(1.55655e-09 6.9468e-07 0)
(-9.8541e-08 7.68565e-07 0)
(-1.54108e-07 8.00099e-07 0)
(-1.18741e-07 7.51546e-07 0)
(-2.72428e-09 6.40611e-07 0)
(1.13878e-07 5.35111e-07 0)
(1.35159e-07 5.21819e-07 0)
(1.2348e-08 6.35769e-07 0)
(-1.99846e-07 8.34172e-07 0)