/*--------------------------------*- C++ -*----------------------------------*\
| =========                 |                                                 |
| \\      /  F ield         | OpenFOAM: The Open Source CFD Toolbox           |
|  \\    /   O peration     | Version:  2412                                  |
|   \\  /    A nd           | Website:  www.openfoam.com                      |
|    \\/     M anipulation  |                                                 |
\*---------------------------------------------------------------------------*/
FoamFile
{
    version     2.0;
    format      ascii;
    arch        "LSB;label=32;scalar=64";
    class       surfaceScalarField;
    location    "6.6";
    object      alphaPhi0.ethanol;
}
// * * * * * * * * * * * * * * * * * * * * * * * * * * * * * * * * * * * * * //

dimensions      [0 3 -1 0 0 0 0];

oriented        oriented;

internalField   nonuniform List<scalar> 
12640
(
8.98126e-06
-8.98131e-06
2.21118e-05
-1.31349e-05
3.66445e-05
-1.45326e-05
5.17534e-05
-1.5108e-05
6.65481e-05
-1.47942e-05
8.02517e-05
-1.37034e-05
9.23959e-05
-1.21436e-05
0.000102806
-1.04096e-05
0.00011154
-8.7325e-06
0.000118774
-7.23406e-06
0.000124725
-5.95038e-06
0.000129619
-4.89468e-06
0.000133656
-4.03684e-06
0.000137025
-3.36765e-06
0.000139917
-2.89272e-06
0.000142463
-2.54515e-06
0.000144748
-2.28408e-06
0.000146816
-2.06823e-06
0.000148688
-1.87265e-06
0.000150354
-1.66609e-06
0.000151788
-1.43262e-06
0.000152813
-1.02347e-06
0.000153435
-6.21434e-07
0.000153493
-5.75367e-08
0.000152826
6.67352e-07
0.000151284
1.54274e-06
0.000148721
2.56332e-06
0.000144977
3.74498e-06
0.000139938
5.03842e-06
0.000133509
6.42936e-06
0.000125621
7.88873e-06
0.000116207
9.41343e-06
0.000105331
1.08769e-05
9.30269e-05
1.2304e-05
7.94058e-05
1.36216e-05
6.46416e-05
1.47645e-05
4.88911e-05
1.57507e-05
3.23455e-05
1.65454e-05
1.52796e-05
1.70659e-05
-2.02709e-06
1.73068e-05
-1.93114e-05
1.72845e-05
-3.63335e-05
1.70222e-05
-5.28329e-05
1.64996e-05
-6.849e-05
1.56577e-05
-8.31594e-05
1.46701e-05
-9.66097e-05
1.34503e-05
-0.000108716
1.21059e-05
-0.00011939
1.06748e-05
-0.000128528
9.13742e-06
-0.00013616
7.63228e-06
-0.000142313
6.15236e-06
-0.00014706
4.74584e-06
-0.000150467
3.40721e-06
-0.000152709
2.24182e-06
-0.00015392
1.21028e-06
-0.000154265
3.44933e-07
-0.000153909
-3.56193e-07
-0.000153072
-8.36637e-07
-0.000151777
-1.29469e-06
-0.000150146
-1.63114e-06
-0.000148337
-1.8082e-06
-0.000146343
-1.99424e-06
-0.000144185
-2.15769e-06
-0.000141893
-2.29051e-06
-0.000139402
-2.48987e-06
-0.000136598
-2.80455e-06
-0.000133306
-3.29296e-06
-0.000129354
-3.95336e-06
-0.000124551
-4.80437e-06
-0.000118684
-5.8686e-06
-0.000111522
-7.16342e-06
-0.000102821
-8.70081e-06
-9.24043e-05
-1.04147e-05
-8.02273e-05
-1.21757e-05
-6.64645e-05
-1.3763e-05
-5.15959e-05
-1.48689e-05
-3.64049e-05
-1.5191e-05
-2.18271e-05
-1.45776e-05
-8.7177e-06
-1.31086e-05
-8.71743e-06
1.2338e-05
-2.13163e-05
3.12266e-05
-3.20234e-05
5.2562e-05
-3.58679e-05
7.50661e-05
-3.76117e-05
9.7128e-05
-3.68555e-05
0.000117359
-3.39334e-05
0.000134891
-2.96746e-05
0.000149394
-2.49112e-05
0.000160929
-2.02667e-05
0.000169759
-1.6064e-05
0.000176263
-1.24535e-05
0.000180821
-9.45144e-06
0.000183803
-7.02025e-06
0.000185539
-5.10093e-06
0.000186263
-3.6158e-06
0.000186201
-2.48321e-06
0.000185504
-1.58788e-06
0.000184258
-8.21499e-07
0.000182562
-1.75354e-07
0.000180461
4.34631e-07
0.00017795
1.07807e-06
0.000175103
1.8237e-06
0.000171797
2.6844e-06
0.000168006
3.73328e-06
0.000163672
5.00188e-06
0.000158698
6.51569e-06
0.000152992
8.26902e-06
0.000146478
1.02591e-05
0.000139055
1.24613e-05
0.000130649
1.48355e-05
0.000121201
1.7337e-05
0.000110708
1.99068e-05
9.91259e-05
2.24599e-05
8.65169e-05
2.49135e-05
7.29469e-05
2.71923e-05
5.85129e-05
2.9199e-05
4.33616e-05
3.09026e-05
2.76861e-05
3.22218e-05
1.1644e-05
3.31089e-05
-4.59519e-06
3.35471e-05
-2.08269e-05
3.35173e-05
-3.68243e-05
3.30203e-05
-5.23904e-05
3.20659e-05
-6.74031e-05
3.06695e-05
-8.16201e-05
2.88864e-05
-9.49414e-05
2.67711e-05
-0.000107249
2.44129e-05
-0.000118472
2.18966e-05
-0.000128613
1.92772e-05
-0.00013765
1.66694e-05
-0.000145627
1.41289e-05
-0.000152582
1.17011e-05
-0.000158627
9.45168e-06
-0.000163861
7.47584e-06
-0.000168374
5.72436e-06
-0.000172267
4.23931e-06
-0.000175655
3.03309e-06
-0.000178556
2.06666e-06
-0.000181115
1.26532e-06
-0.00018335
6.04201e-07
-0.000185214
5.6126e-08
-0.000186745
-4.63133e-07
-0.000187896
-1.00763e-06
-0.000188555
-1.63244e-06
-0.00018862
-2.42641e-06
-0.000187881
-3.54446e-06
-0.000186169
-5.00539e-06
-0.000183205
-6.91929e-06
-0.000178648
-9.36231e-06
-0.000172115
-1.23996e-05
-0.000163194
-1.6081e-05
-0.0001515
-2.03926e-05
-0.000136746
-2.51679e-05
-0.00011891
-3.00117e-05
-9.83457e-05
-3.43281e-05
-7.59037e-05
-3.73104e-05
-5.30165e-05
-3.80766e-05
-3.13264e-05
-3.62653e-05
-1.22431e-05
-3.21905e-05
-2.09605e-05
1.35281e-05
-3.48444e-05
3.49001e-05
-5.33937e-05
5.96819e-05
-6.06489e-05
8.5995e-05
-6.39248e-05
0.000111751
-6.2611e-05
0.00013521
-5.73929e-05
0.000155317
-4.97803e-05
0.000171685
-4.12791e-05
0.000184405
-3.29851e-05
0.000193842
-2.54996e-05
0.00020048
-1.90906e-05
0.000204783
-1.37527e-05
0.000207211
-9.44757e-06
0.00020815
-6.03984e-06
0.000207932
-3.39758e-06
0.000206786
-1.33517e-06
0.000204889
3.07768e-07
0.000202461
1.60409e-06
0.000199564
2.719e-06
0.000196271
3.72519e-06
0.000192616
4.73096e-06
0.000188635
5.803e-06
0.000184282
7.03549e-06
0.000179505
8.50985e-06
0.000174247
1.02586e-05
0.00016841
1.23523e-05
0.00016188
1.47992e-05
0.00015457
1.75692e-05
0.000146377
2.06544e-05
0.00013723
2.39829e-05
0.00012705
2.75176e-05
0.000115806
3.11508e-05
0.000103506
3.47614e-05
9.01592e-05
3.82609e-05
7.58445e-05
4.15082e-05
6.06525e-05
4.43927e-05
4.47515e-05
4.68056e-05
2.83043e-05
4.86709e-05
1.14841e-05
4.99306e-05
-5.51737e-06
5.05493e-05
-2.25055e-05
5.05048e-05
-3.92802e-05
4.97931e-05
-5.56464e-05
4.84306e-05
-7.14198e-05
4.6442e-05
-8.64165e-05
4.38826e-05
-0.000100504
4.08574e-05
-0.000113564
3.74725e-05
-0.00012553
3.38631e-05
-0.000136402
3.015e-05
-0.000146158
2.64262e-05
-0.000154858
2.28297e-05
-0.000162579
1.94239e-05
-0.000169412
1.62869e-05
-0.000175417
1.34832e-05
-0.000180728
1.10369e-05
-0.000185486
8.99894e-06
-0.000189792
7.34004e-06
-0.000193709
5.98296e-06
-0.000197319
4.87412e-06
-0.000200637
3.92223e-06
-0.000203654
3.07192e-06
-0.000206342
2.2212e-06
-0.00020863
1.27991e-06
-0.000210378
1.17617e-07
-0.000211428
-1.37309e-06
-0.000211617
-3.35328e-06
-0.000210657
-5.96338e-06
-0.000208204
-9.37024e-06
-0.000203851
-1.37133e-05
-0.000197133
-1.91171e-05
-0.000187532
-2.56821e-05
-0.000174563
-3.3363e-05
-0.000157861
-4.18706e-05
-0.000137343
-5.05285e-05
-0.0001134
-5.82692e-05
-8.71397e-05
-6.35679e-05
-6.03421e-05
-6.48723e-05
-3.51348e-05
-6.14711e-05
-1.34918e-05
-5.38345e-05
-3.44512e-05
1.44523e-05
-4.92965e-05
3.81228e-05
-7.70627e-05
6.60888e-05
-8.86148e-05
9.5887e-05
-9.37235e-05
0.000124907
-9.16313e-05
0.000151018
-8.35036e-05
0.000173021
-7.17819e-05
0.000190563
-5.88196e-05
0.000203892
-4.63128e-05
0.00021355
-3.51568e-05
0.000220167
-2.5706e-05
0.000224325
-1.79105e-05
0.000226521
-1.16412e-05
0.000227179
-6.69656e-06
0.000226636
-2.85607e-06
0.00022516
1.39819e-07
0.000222992
2.47666e-06
0.000220227
4.36937e-06
0.000217026
5.92037e-06
0.000213448
7.30446e-06
0.000209538
8.64255e-06
0.000205284
1.00585e-05
0.000200651
1.16694e-05
0.000195602
1.35591e-05
0.000190032
1.58288e-05
0.000183843
1.85421e-05
0.00017691
2.1733e-05
0.000169117
2.53617e-05
0.000160341
2.94312e-05
0.000150482
3.38417e-05
0.000139485
3.85149e-05
0.000127299
4.33365e-05
0.000113883
4.81765e-05
9.92898e-05
5.28548e-05
8.35953e-05
5.72031e-05
6.69188e-05
6.107e-05
4.94329e-05
6.42927e-05
3.13225e-05
6.67823e-05
1.27877e-05
6.8466e-05
-5.9583e-06
6.92962e-05
-2.46944e-05
6.92423e-05
-4.31942e-05
6.82942e-05
-6.12388e-05
6.64755e-05
-7.86073e-05
6.38101e-05
-9.51207e-05
6.03963e-05
-0.000110592
5.63302e-05
-0.000124909
5.17903e-05
-0.00013799
4.69442e-05
-0.000149804
4.19653e-05
-0.000160392
3.70147e-05
-0.000169768
3.22066e-05
-0.000178021
2.76761e-05
-0.000185265
2.35287e-05
-0.000191616
1.98323e-05
-0.000197249
1.66677e-05
-0.000202267
1.40155e-05
-0.000206788
1.18611e-05
-0.00021093
1.01259e-05
-0.000214753
8.69716e-06
-0.000218292
7.46291e-06
-0.000221559
6.34191e-06
-0.000224506
5.17124e-06
-0.000227048
3.8241e-06
-0.000229079
2.14933e-06
-0.000230442
-1.06207e-08
-0.000230934
-2.86336e-06
-0.000230265
-6.63576e-06
-0.000228061
-1.15766e-05
-0.000223872
-1.79042e-05
-0.000217166
-2.58227e-05
-0.000207351
-3.54962e-05
-0.000193777
-4.6936e-05
-0.000175882
-5.97656e-05
-0.000153407
-7.30034e-05
-0.000126733
-8.49437e-05
-9.7125e-05
-9.31764e-05
-6.67734e-05
-9.52239e-05
-3.83595e-05
-8.98862e-05
-1.4389e-05
-7.78058e-05
-4.884e-05
1.51997e-05
-6.44956e-05
4.12178e-05
-0.00010308
7.26583e-05
-0.000120056
0.000106326
-0.000127391
0.000138757
-0.000124062
0.000167248
-0.000111994
0.000190436
-9.49683e-05
0.000208174
-7.65566e-05
0.000221044
-5.91822e-05
0.000229934
-4.40474e-05
0.000235697
-3.14658e-05
0.000239076
-2.12908e-05
0.000240633
-1.31963e-05
0.000240754
-6.81558e-06
0.000239819
-1.91904e-06
0.000238067
1.89427e-06
0.000235667
4.88061e-06
0.000232825
7.21581e-06
0.000229603
9.14506e-06
0.000226057
1.08519e-05
0.000222216
1.24834e-05
0.000218068
1.42069e-05
0.000213559
1.61777e-05
0.000208636
1.84827e-05
0.000203184
2.12814e-05
0.000197068
2.46577e-05
0.000190161
2.86401e-05
0.000182289
3.32325e-05
0.000173314
3.84068e-05
0.00016314
4.40151e-05
0.000151639
5.00156e-05
0.000138715
5.62598e-05
0.000124399
6.24922e-05
0.000108707
6.85468e-05
9.1723e-05
7.41874e-05
7.3595e-05
7.91988e-05
5.45091e-05
8.33795e-05
3.46805e-05
8.6612e-05
1.43567e-05
8.8791e-05
-6.21338e-06
8.98674e-05
-2.67746e-05
8.98041e-05
-4.70669e-05
8.85875e-05
-6.68332e-05
8.62434e-05
-8.58175e-05
8.27965e-05
-0.000103791
7.83715e-05
-0.000120568
7.31085e-05
-0.000135986
6.72088e-05
-0.000149975
6.09321e-05
-0.000162486
5.4476e-05
-0.000173562
4.8089e-05
-0.000183248
4.18918e-05
-0.000191658
3.60854e-05
-0.000198918
3.07885e-05
-0.000205205
2.61191e-05
-0.000210704
2.21665e-05
-0.000215539
1.88512e-05
-0.000219866
1.61877e-05
-0.000223823
1.40841e-05
-0.000227478
1.23541e-05
-0.000230914
1.08994e-05
-0.000234114
9.5403e-06
-0.000237063
8.11777e-06
-0.000239706
6.46468e-06
-0.000241939
4.38089e-06
-0.000243613
1.66383e-06
-0.000244536
-1.93831e-06
-0.000244426
-6.74177e-06
-0.000242938
-1.30603e-05
-0.000239578
-2.126e-05
-0.000233769
-3.16306e-05
-0.000224774
-4.44923e-05
-0.000211684
-6.0027e-05
-0.000193595
-7.78543e-05
-0.00016989
-9.67068e-05
-0.000140757
-0.000114075
-0.00010765
-0.000126282
-7.33634e-05
-0.000129511
-4.1438e-05
-0.000121812
-1.50964e-05
-0.000104146
-6.39377e-05
1.59241e-05
-8.04194e-05
4.48833e-05
-0.00013204
8.09979e-05
-0.000156171
0.000119804
-0.000166196
0.000156422
-0.000160679
0.000187259
-0.000142831
0.000210873
-0.000118583
0.00022762
-9.33036e-05
0.000238732
-7.02937e-05
0.000245613
-5.09292e-05
0.000249484
-3.53355e-05
0.00025123
-2.30344e-05
0.000251449
-1.34132e-05
0.000250517
-5.88198e-06
0.000248803
-2.03149e-07
0.000246481
4.21676e-06
0.000243727
7.63439e-06
0.000240651
1.02926e-05
0.000237365
1.24322e-05
0.000233879
1.43383e-05
0.000230225
1.61384e-05
0.000226372
1.80605e-05
0.000222231
2.03188e-05
0.000217725
2.29881e-05
0.000212721
2.62852e-05
0.000207048
3.03299e-05
0.000200561
3.5127e-05
0.000193044
4.075e-05
0.000184342
4.71089e-05
0.000174188
5.41686e-05
0.000162486
6.17183e-05
0.000149198
6.95476e-05
0.000134255
7.74355e-05
0.000117705
8.50964e-05
9.96193e-05
9.22733e-05
8.01605e-05
9.86575e-05
5.95618e-05
0.000103978
3.80738e-05
0.0001081
1.59933e-05
0.000110872
-6.3746e-06
0.000112238
-2.87281e-05
0.000112161
-5.07713e-05
0.000110634
-7.2196e-05
0.00010767
-9.27088e-05
0.00010331
-0.00011203
9.76927e-05
-0.000129928
9.10065e-05
-0.000146233
8.35135e-05
-0.000160829
7.55285e-05
-0.000173722
6.73698e-05
-0.000184903
5.92711e-05
-0.000194493
5.14826e-05
-0.000202662
4.42552e-05
-0.00020955
3.76771e-05
-0.000215363
3.19309e-05
-0.000220312
2.71149e-05
-0.000224621
2.31583e-05
-0.000228462
2.00263e-05
-0.000231994
1.76131e-05
-0.000235327
1.56831e-05
-0.000238531
1.41008e-05
-0.000241643
1.26527e-05
-0.000244658
1.11347e-05
-0.000247528
9.33766e-06
-0.000250178
7.03436e-06
-0.000252472
3.96223e-06
-0.000254224
-1.83982e-07
-0.000255228
-5.73689e-06
-0.000255149
-1.31387e-05
-0.000253531
-2.28777e-05
-0.000249737
-3.54248e-05
-0.000242823
-5.14046e-05
-0.000231562
-7.12848e-05
-0.000214479
-9.49344e-05
-0.000190302
-0.000120884
-0.000158736
-0.000145642
-0.000121308
-0.000163712
-8.17362e-05
-0.000169084
-4.50485e-05
-0.000158499
-1.57735e-05
-0.000133421
-7.97121e-05
1.68614e-05
-9.72807e-05
5.05225e-05
-0.000165702
9.41294e-05
-0.000199778
0.000140658
-0.000212724
0.0001826
-0.000202621
0.000215292
-0.000175522
0.00023781
-0.000141102
0.000251692
-0.000107186
0.000259275
-7.78759e-05
0.000262692
-5.43461e-05
0.00026352
-3.61621e-05
0.00026276
-2.22751e-05
0.000260969
-1.16221e-05
0.000258559
-3.47395e-06
0.000255653
2.70135e-06
0.000252447
7.42276e-06
0.000249079
1.10028e-05
0.00024562
1.3752e-05
0.000242141
1.59114e-05
0.000238691
1.77895e-05
0.000235239
1.95909e-05
0.000231752
2.1548e-05
0.000228141
2.393e-05
0.000224278
2.68512e-05
0.000219992
3.0572e-05
0.000215077
3.52447e-05
0.000209326
4.08791e-05
0.000202481
4.75955e-05
0.000194284
5.53064e-05
0.000184544
6.39085e-05
0.000173051
7.32118e-05
0.000159663
8.29355e-05
0.000144325
9.2774e-05
0.000127041
0.000102382
0.000107918
0.000111397
8.71528e-05
0.000119424
6.49895e-05
0.000126143
4.17648e-05
0.000131327
1.78194e-05
0.00013482
-6.47829e-06
0.000136537
-3.07654e-05
0.000136449
-5.46793e-05
0.000134549
-7.78592e-05
0.00013085
-9.99541e-05
0.000125406
-0.000120617
0.000118357
-0.000139573
0.000109964
-0.000156612
0.000100554
-0.000171624
9.0541e-05
-0.000184606
8.03527e-05
-0.000195594
7.02593e-05
-0.000204765
6.06541e-05
-0.000212266
5.17549e-05
-0.00021841
4.38192e-05
-0.000223378
3.68971e-05
-0.000227506
3.12412e-05
-0.000231031
2.66822e-05
-0.000234172
2.31681e-05
-0.000237121
2.0565e-05
-0.000240033
1.85982e-05
-0.000242997
1.70689e-05
-0.000246068
1.57266e-05
-0.000249262
1.43283e-05
-0.000252552
1.26259e-05
-0.000255866
1.03459e-05
-0.000259102
7.19652e-06
-0.000262118
2.83158e-06
-0.000264763
-3.09042e-06
-0.000266789
-1.11121e-05
-0.000267796
-2.18713e-05
-0.00026719
-3.60326e-05
-0.000263902
-5.46936e-05
-0.000256289
-7.88977e-05
-0.000242158
-0.000109066
-0.000219108
-0.000143935
-0.000185609
-0.000179143
-0.000142652
-0.000206669
-9.511e-05
-0.000216626
-5.06949e-05
-0.000202914
-1.66537e-05
-0.000167464
-9.63647e-05
1.88763e-05
-0.000116157
6.18195e-05
-0.000208645
0.000119028
-0.000256987
0.000177634
-0.00027133
0.000225656
-0.000250642
0.000257783
-0.000207649
0.000275385
-0.000158704
0.000282728
-0.000114529
0.00028397
-7.91185e-05
0.000282007
-5.23849e-05
0.000278569
-3.2724e-05
0.000274548
-1.82556e-05
0.000270233
-7.30626e-06
0.000265918
8.43163e-07
0.000261578
7.04071e-06
0.000257291
1.17077e-05
0.000253133
1.51599e-05
0.000249158
1.77264e-05
0.000245418
1.96509e-05
0.000241952
2.12554e-05
0.000238723
2.28198e-05
0.000235692
2.45796e-05
0.000232749
2.68728e-05
0.000229713
2.98874e-05
0.000226392
3.38933e-05
0.000222538
3.90997e-05
0.000217877
4.55403e-05
0.000212087
5.3385e-05
0.00020479
6.26041e-05
0.000195737
7.2962e-05
0.000184685
8.42652e-05
0.000171403
9.62182e-05
0.000155771
0.000108407
0.000137796
0.000120357
0.000117578
0.000131615
9.53271e-05
0.000141676
7.13931e-05
0.000150077
4.61616e-05
0.000156558
2.00204e-05
0.00016096
-6.54319e-06
0.0001631
-3.3111e-05
0.000163017
-5.92348e-05
0.000160674
-8.44817e-05
0.000156099
-0.000108401
0.000149327
-0.000130597
0.000140556
-0.000150668
0.000130037
-0.000168421
0.000118309
-0.000183732
0.000105853
-0.000196579
9.32e-05
-0.000207114
8.07949e-05
-0.000215503
6.90439e-05
-0.000222034
5.82869e-05
-0.000227032
4.88193e-05
-0.00023086
4.07275e-05
-0.000233801
3.4185e-05
-0.000236252
2.91354e-05
-0.000238474
2.53913e-05
-0.000240691
2.27825e-05
-0.000243093
2.09978e-05
-0.00024579
1.97632e-05
-0.000248856
1.87905e-05
-0.000252315
1.77866e-05
-0.000256152
1.64634e-05
-0.000260322
1.45183e-05
-0.000264745
1.1621e-05
-0.000269328
7.4171e-06
-0.000273965
1.54705e-06
-0.000278649
-6.42845e-06
-0.000283126
-1.73947e-05
-0.000287002
-3.21567e-05
-0.000289337
-5.23564e-05
-0.000288349
-7.98846e-05
-0.000281043
-0.000116373
-0.000263155
-0.000161824
-0.000230253
-0.000212045
-0.000180983
-0.000255939
-0.000120881
-0.000276727
-6.23273e-05
-0.000261469
-1.86578e-05
-0.000211135
-0.000115022
2.41815e-05
-0.000140339
8.58014e-05
-0.000270266
0.000166217
-0.000337402
0.000241916
-0.000347029
0.000295228
-0.000303956
0.000321634
-0.000234056
0.000327484
-0.000164555
0.000322279
-0.000109324
0.000313027
-6.98658e-05
0.000303292
-4.26502e-05
0.000294377
-2.38088e-05
0.000286407
-1.02862e-05
0.000279339
-2.39995e-07
0.000272945
7.23757e-06
0.000267018
1.29682e-05
0.000261519
1.72096e-05
0.000256468
2.02137e-05
0.000251907
2.22896e-05
0.000247875
2.36845e-05
0.000244395
2.4736e-05
0.000241448
2.57672e-05
0.000238973
2.70549e-05
0.000236858
2.89881e-05
0.000234876
3.18697e-05
0.00023282
3.595e-05
0.000230373
4.15462e-05
0.000227157
4.87568e-05
0.00022275
5.7792e-05
0.000216774
6.85794e-05
0.000208799
8.09376e-05
0.000198457
9.46068e-05
0.000185459
0.000109217
0.00016964
0.000124226
0.000150952
0.000139045
0.000129422
0.000153146
0.000105449
0.000165649
7.93547e-05
0.000176173
5.15871e-05
0.000184326
2.27942e-05
0.000189754
-6.54818e-06
0.000192443
-3.59565e-05
0.000192426
-6.47985e-05
0.000189517
-9.2582e-05
0.000183883
-0.000118745
0.00017549
-0.000142711
0.000164521
-0.000164173
0.000151499
-0.000182716
0.000136852
-0.000198218
0.000121356
-0.000210765
0.000105749
-0.000220547
9.05784e-05
-0.000227805
7.63023e-05
-0.000232948
6.34296e-05
-0.000236401
5.22715e-05
-0.000238619
4.29439e-05
-0.000240072
3.56346e-05
-0.000241145
3.02067e-05
-0.000242192
2.64363e-05
-0.000243492
2.40807e-05
-0.000245255
2.27626e-05
-0.000247619
2.21316e-05
-0.00025067
2.1843e-05
-0.000254441
2.15582e-05
-0.000258899
2.09215e-05
-0.000264028
1.96487e-05
-0.000269742
1.73369e-05
-0.000276025
1.37029e-05
-0.00028292
8.44396e-06
-0.000290532
1.18418e-06
-0.000299147
-8.78137e-06
-0.000308819
-2.2485e-05
-0.000319338
-4.18376e-05
-0.00032935
-6.98734e-05
-0.000335174
-0.00011055
-0.000329491
-0.000167507
-0.000302457
-0.000239079
-0.00024761
-0.000310788
-0.000169748
-0.000354592
-8.71541e-05
-0.000344065
-2.40953e-05
-0.000274193
-0.000139119
3.61286e-05
-0.000176469
0.000128461
-0.000362599
0.000238848
-0.000447789
0.000331706
-0.000439887
0.000386845
-0.000359096
0.00040245
-0.000249662
0.000390669
-0.000152776
0.000367569
-8.62249e-05
0.000344122
-4.64196e-05
0.000324674
-2.32014e-05
0.000309549
-8.68611e-06
0.000297523
1.74163e-06
0.000287857
9.42844e-06
0.000279448
1.5648e-05
0.00027194
2.0477e-05
0.000265197
2.39519e-05
0.000259205
2.62059e-05
0.000254015
2.74786e-05
0.000249674
2.80255e-05
0.000246214
2.81965e-05
0.000243636
2.83452e-05
0.000241849
2.88416e-05
0.000240759
3.00791e-05
0.000240134
3.24948e-05
0.000239685
3.63987e-05
0.00023904
4.21913e-05
0.000237722
5.00751e-05
0.000235217
6.02972e-05
0.000230991
7.28062e-05
0.0002245
8.74293e-05
0.000215223
0.000103886
0.000202803
0.000121638
0.000186949
0.000140082
0.000167347
0.000158648
0.000144464
0.000176029
0.000118361
0.000191753
8.95974e-05
0.000204937
5.86897e-05
0.000215235
2.63458e-05
0.000222099
-6.52097e-06
0.00022531
-3.93936e-05
0.000225298
-7.17945e-05
0.000221916
-0.000102883
0.00021497
-0.000131882
0.000204486
-0.000158191
0.00019083
-0.00018114
0.000174448
-0.000200462
0.000156174
-0.000216096
0.000136988
-0.000228085
0.000117735
-0.000236708
9.92004e-05
-0.00024243
8.20231e-05
-0.000245725
6.6723e-05
-0.000247129
5.36759e-05
-0.000247273
4.30879e-05
-0.000246741
3.51028e-05
-0.000246027
2.94947e-05
-0.000245595
2.6009e-05
-0.000245741
2.42288e-05
-0.000246713
2.37353e-05
-0.000248662
2.40799e-05
-0.000251652
2.48323e-05
-0.000255726
2.5632e-05
-0.00026085
2.60462e-05
-0.000266956
2.57545e-05
-0.000273988
2.43676e-05
-0.00028197
2.1682e-05
-0.000291034
1.75062e-05
-0.000301571
1.17208e-05
-0.000314436
4.08447e-06
-0.000330652
-6.26888e-06
-0.000351376
-2.11138e-05
-0.000376181
-4.50714e-05
-0.000400418
-8.63146e-05
-0.000412526
-0.0001554
-0.000396139
-0.000255467
-0.000339084
-0.000367844
-0.000243697
-0.000449979
-0.000130651
-0.000457111
-3.62562e-05
-0.000368588
-0.000175375
5.65294e-05
-0.000232999
0.000183683
-0.000489752
0.000316219
-0.000580325
0.000414816
-0.000538486
0.000465244
-0.000409525
0.000469964
-0.000254383
0.000443733
-0.000126546
0.000405614
-4.81056e-05
0.000369836
-1.06426e-05
0.000341983
4.65326e-06
0.00032168
1.16155e-05
0.000306934
1.64832e-05
0.00029514
2.1219e-05
0.000285121
2.56631e-05
0.000276243
2.93522e-05
0.000268296
3.18963e-05
0.000261328
3.31722e-05
0.00025546
3.33447e-05
0.000250784
3.27007e-05
0.000247394
3.15866e-05
0.000245272
3.04661e-05
0.000244352
2.97626e-05
0.000244522
2.99089e-05
0.000245548
3.147e-05
0.000247128
3.48198e-05
0.000248789
4.0532e-05
0.000249957
4.89087e-05
0.000249963
6.02929e-05
0.000248093
7.46787e-05
0.000243662
9.18611e-05
0.000235955
0.000111594
0.000224494
0.000133098
0.000208578
0.000155997
0.000188547
0.000178678
0.000163895
0.000200682
0.000135108
0.000220541
0.000102754
0.000237291
6.78068e-05
0.000250182
3.12567e-05
0.000258648
-6.31926e-06
0.000262884
-4.39827e-05
0.00026296
-8.08645e-05
0.000258798
-0.000116168
0.000250275
-0.000148757
0.000237075
-0.000177885
0.000219958
-0.000202723
0.000199285
-0.000222923
0.000176372
-0.000238423
0.000152489
-0.000249471
0.000128783
-0.000256495
0.000106224
-0.000260078
8.56059e-05
-0.000260862
6.75072e-05
-0.0002596
5.24143e-05
-0.000257045
4.05323e-05
-0.00025396
3.20192e-05
-0.000250984
2.65167e-05
-0.000248684
2.37062e-05
-0.000247408
2.29508e-05
-0.000247416
2.37447e-05
-0.000248839
2.55044e-05
-0.000251735
2.77284e-05
-0.000256101
2.99969e-05
-0.000261909
3.18518e-05
-0.000269047
3.28902e-05
-0.000277395
3.27164e-05
-0.000286903
3.11905e-05
-0.000297721
2.8325e-05
-0.000310476
2.44769e-05
-0.00032654
2.01484e-05
-0.000348164
1.5355e-05
-0.000377557
8.2786e-06
-0.000414849
-7.78099e-06
-0.000453786
-4.73763e-05
-0.00047967
-0.000129516
-0.000473318
-0.000261819
-0.00042067
-0.000420492
-0.000319884
-0.000550764
-0.000185389
-0.000591605
-5.66071e-05
-0.000497371
-0.000231981
8.07196e-05
-0.000313718
0.000226547
-0.000635579
0.000355193
-0.000708971
0.000439454
-0.000622749
0.000478094
-0.000448165
0.000478191
-0.000254479
0.000451797
-0.000100153
0.000414007
-1.03154e-05
0.000377536
2.58265e-05
0.000348793
3.33918e-05
0.000328158
3.2249e-05
0.000312981
3.16601e-05
0.000300732
3.34677e-05
0.000289908
3.64866e-05
0.000279961
3.92997e-05
0.000270868
4.09901e-05
0.000262865
4.11751e-05
0.000256247
3.99641e-05
0.000251195
3.77529e-05
0.00024788
3.49021e-05
0.000246279
3.20671e-05
0.000246353
2.96891e-05
0.000248015
2.82489e-05
0.000251103
2.83824e-05
0.000255204
3.07198e-05
0.000259838
3.58995e-05
0.000264214
4.4534e-05
0.000267516
5.69918e-05
0.000268816
7.33805e-05
0.000267171
9.35064e-05
0.000261809
0.000116957
0.000251723
0.000143185
0.000236734
0.000170986
0.000215958
0.000199454
0.000189407
0.000227231
0.000157429
0.000252517
0.000120824
0.000273893
8.0618e-05
0.000290387
3.79282e-05
0.000301338
-5.99981e-06
0.000306814
-5.00951e-05
0.000307057
-9.31132e-05
0.000301818
-0.000133762
0.000290924
-0.000170993
0.000274306
-0.000203371
0.000252336
-0.000230408
0.000226322
-0.000251558
0.000197522
-0.00026659
0.000167521
-0.000276158
0.000138351
-0.000280873
0.000110941
-0.000281558
8.62924e-05
-0.000279012
6.49627e-05
-0.000274209
4.76127e-05
-0.000268109
3.44327e-05
-0.000261756
2.56669e-05
-0.000255908
2.06706e-05
-0.000251317
1.91173e-05
-0.000248344
1.99792e-05
-0.00024724
2.26413e-05
-0.000248072
2.63353e-05
-0.000250855
3.05108e-05
-0.000255558
3.47001e-05
-0.000262107
3.84018e-05
-0.000270316
4.10992e-05
-0.000279911
4.23086e-05
-0.000290632
4.19075e-05
-0.000302444
4.01349e-05
-0.0003159
3.79321e-05
-0.000332475
3.67239e-05
-0.000354622
3.75017e-05
-0.000384759
3.84152e-05
-0.000422009
2.94687e-05
-0.000459442
-9.94243e-06
-0.000484239
-0.00010472
-0.000481676
-0.000264382
-0.000440683
-0.000461485
-0.00035492
-0.000636527
-0.000225752
-0.000720774
-8.00058e-05
-0.000643117
-0.000311988
9.61663e-05
-0.000409884
0.000226058
-0.000765471
0.000320132
-0.000803045
0.000374616
-0.000677233
0.000399694
-0.000473242
0.000404222
-0.000259006
0.000394514
-9.04454e-05
0.000376948
7.24877e-06
0.000357089
4.56868e-05
0.000339931
5.05503e-05
0.000326099
4.60811e-05
0.000314629
4.31305e-05
0.000303959
4.41371e-05
0.000293286
4.71606e-05
0.000282624
4.99621e-05
0.00027244
5.1175e-05
0.000263351
5.02642e-05
0.000255906
4.74101e-05
0.000250467
4.31921e-05
0.000247162
3.82067e-05
0.000246113
3.31158e-05
0.000247307
2.84957e-05
0.000250733
2.48222e-05
0.000256295
2.28213e-05
0.000263585
2.34311e-05
0.000272012
2.74728e-05
0.00028063
3.59181e-05
0.0002883
4.93229e-05
0.000293799
6.78838e-05
0.000296028
9.12778e-05
0.000293881
0.000119106
0.000286502
0.000150563
0.00027266
0.000184828
0.000251661
0.000220453
0.000223123
0.000255769
0.000187358
0.000288282
0.000145151
0.0003161
9.79657e-05
0.000337575
4.72222e-05
0.000352083
-5.51152e-06
0.000359548
-5.84339e-05
0.00035998
-0.000109743
0.000353128
-0.000157752
0.000338935
-0.000200858
0.000317413
-0.000237539
0.000289019
-0.000266675
0.00025546
-0.000287903
0.000218752
-0.000302199
0.00018182
-0.000309398
0.000145551
-0.000310875
0.00011242
-0.000307621
8.30403e-05
-0.000300639
5.79828e-05
-0.000291148
3.81221e-05
-0.000280416
2.37033e-05
-0.000269742
1.4995e-05
-0.000260272
1.12e-05
-0.000252817
1.16615e-05
-0.000247872
1.50338e-05
-0.000245531
2.03002e-05
-0.000245743
2.65491e-05
-0.000248416
3.31853e-05
-0.000253503
3.97868e-05
-0.000260876
4.57746e-05
-0.000270254
5.04762e-05
-0.000281072
5.31269e-05
-0.000292706
5.35418e-05
-0.000304624
5.20545e-05
-0.000316736
5.00447e-05
-0.000329675
4.96624e-05
-0.000344789
5.26139e-05
-0.000362894
5.65193e-05
-0.000382692
4.92672e-05
-0.000399072
6.43714e-06
-0.000406553
-9.72359e-05
-0.000399376
-0.00027155
-0.000372235
-0.000488621
-0.000316689
-0.000692074
-0.000222822
-0.000814641
-9.42518e-05
-0.000771686
-0.00040624
9.01055e-05
-0.000499989
0.00017111
-0.000846476
0.000214864
-0.000846799
0.00023865
-0.000701018
0.000255779
-0.000490372
0.00027293
-0.000276155
0.000289996
-0.000107511
0.000303558
-6.31186e-06
0.000312
3.72441e-05
0.00031534
4.72101e-05
0.00031417
4.72506e-05
0.000309322
4.79779e-05
0.000301633
5.18263e-05
0.000291669
5.71251e-05
0.000280533
6.10983e-05
0.000269378
6.23306e-05
0.000259251
6.03902e-05
0.000251059
5.56025e-05
0.000245252
4.8999e-05
0.000242101
4.13576e-05
0.000241735
3.34812e-05
0.000244292
2.59394e-05
0.000249921
1.91935e-05
0.000258644
1.40988e-05
0.000270151
1.19248e-05
0.000283702
1.39226e-05
0.000298011
2.161e-05
0.000311575
3.57593e-05
0.000322776
5.6684e-05
0.000330241
8.38143e-05
0.000332786
0.000116561
0.000329158
0.000154193
0.000317802
0.000196186
0.000297342
0.000240916
0.000266804
0.000286309
0.000226194
0.000328893
0.000176823
0.000365471
0.00012045
0.000393947
5.90982e-05
0.000413433
-4.97328e-06
0.000423618
-6.92692e-05
0.000424276
-0.0001313
0.000415159
-0.000188801
0.000396436
-0.000239303
0.000367915
-0.000281267
0.000330984
-0.00031307
0.000287263
-0.000334467
0.000240148
-0.000346036
0.000193389
-0.000349627
0.000149143
-0.000346503
0.000109296
-0.000337792
7.43289e-05
-0.000324944
4.51359e-05
-0.000309106
2.22849e-05
-0.000292106
6.7016e-06
-0.000275606
-1.50517e-06
-0.000261237
-3.16878e-06
-0.000250078
5.0302e-07
-0.000242634
7.59017e-06
-0.000238831
1.64986e-05
-0.000238328
2.60467e-05
-0.000240869
3.57271e-05
-0.000246325
4.5245e-05
-0.000254554
5.40064e-05
-0.000265086
6.10092e-05
-0.00027723
6.52715e-05
-0.000289707
6.60183e-05
-0.000301273
6.36202e-05
-0.000310735
5.95055e-05
-0.000317103
5.60283e-05
-0.000319527
5.50368e-05
-0.000316984
5.39763e-05
-0.000308275
4.05571e-05
-0.000293597
-8.23549e-06
-0.000274978
-0.000115852
-0.000256233
-0.000290294
-0.000237859
-0.000506994
-0.000213313
-0.00071662
-0.000169177
-0.000858776
-8.83171e-05
-0.000852545
-0.000494556
6.09023e-05
-0.00056089
8.14207e-05
-0.000866995
7.97196e-05
-0.000845098
8.25528e-05
-0.00070385
9.95429e-05
-0.000507361
0.000132246
-0.000308857
0.000174907
-0.000150174
0.000217764
-4.91702e-05
0.000252637
2.37083e-06
0.000275063
2.47844e-05
0.000285749
3.65643e-05
0.000286987
4.67404e-05
0.000281617
5.71958e-05
0.000272429
6.6313e-05
0.00026125
7.2277e-05
0.000249731
7.38497e-05
0.00023923
7.08918e-05
0.000230861
6.39719e-05
0.000225153
5.47083e-05
0.000222564
4.39468e-05
0.000223362
3.2684e-05
0.000227919
2.13837e-05
0.00023679
1.03232e-05
0.000250067
8.21784e-07
0.000267596
-5.60437e-06
0.000288469
-6.9499e-06
0.000310754
-6.75467e-07
0.000332501
1.40125e-05
0.000351553
3.7633e-05
0.000366432
6.89371e-05
0.000375696
0.000107298
0.000377935
0.000151956
0.00037081
0.000203313
0.000351787
0.000259939
0.000319075
0.000319022
0.00027226
0.000375706
0.000213945
0.000423785
0.000146326
0.000461564
7.19063e-05
0.000487852
-4.44275e-06
0.000499965
-8.08432e-05
0.000500675
-0.00015586
0.000490174
-0.000224961
0.000465537
-0.000284705
0.000427659
-0.000333246
0.000379524
-0.000367873
0.00032189
-0.000388506
0.000260781
-0.000396361
0.000201244
-0.000393998
0.00014678
-0.00038379
9.9089e-05
-0.00036771
5.82488e-05
-0.00034664
2.40639e-05
-0.000321995
-2.35916e-06
-0.000296233
-1.90594e-05
-0.000271546
-2.61918e-05
-0.000249913
-2.48018e-05
-0.000233342
-1.60666e-05
-0.00022222
-3.53348e-06
-0.000216106
1.03845e-05
-0.000214516
2.44575e-05
-0.000216732
3.79447e-05
-0.000222399
5.09119e-05
-0.000231346
6.29523e-05
-0.000243019
7.26807e-05
-0.000256254
7.85056e-05
-0.000269524
7.92869e-05
-0.000280962
7.50579e-05
-0.000288275