/*--------------------------------*- C++ -*----------------------------------*\
| =========                 |                                                 |
| \\      /  F ield         | OpenFOAM: The Open Source CFD Toolbox           |
|  \\    /   O peration     | Version:  2412                                  |
|   \\  /    A nd           | Website:  www.openfoam.com                      |
|    \\/     M anipulation  |                                                 |
\*---------------------------------------------------------------------------*/
FoamFile
{
    version     2.0;
    format      ascii;
    arch        "LSB;label=32;scalar=64";
    class       surfaceScalarField;
    location    "6.6";
    object      phi;
}
// * * * * * * * * * * * * * * * * * * * * * * * * * * * * * * * * * * * * * //

dimensions      [0 3 -1 0 0 0 0];

oriented        oriented;

internalField   nonuniform List<scalar> 
12640
(
8.15277e-06
-8.15277e-06
2.05687e-05
-1.23997e-05
3.44281e-05
-1.38591e-05
4.89058e-05
-1.448e-05
6.31211e-05
-1.42163e-05
7.63029e-05
-1.31817e-05
8.79881e-05
-1.16846e-05
9.80104e-05
-1.00217e-05
0.000106436
-8.4255e-06
0.000113455
-7.01858e-06
0.000119293
-5.83803e-06
0.000124188
-4.89489e-06
0.000128347
-4.15832e-06
0.000131963
-3.61558e-06
0.000135231
-3.26728e-06
0.000138277
-3.04535e-06
0.000141181
-2.90436e-06
0.000143981
-2.79949e-06
0.000146685
-2.70394e-06
0.000149265
-2.58062e-06
0.000151671
-2.4061e-06
0.000153722
-2.05084e-06
0.000155382
-1.66078e-06
0.000156377
-9.95372e-07
0.000156674
-2.96175e-07
0.000156018
6.55727e-07
0.000154232
1.78684e-06
0.00015113
3.10216e-06
0.000146577
4.55339e-06
0.000140455
6.12149e-06
0.000132683
7.77237e-06
0.000123187
9.49523e-06
0.000112025
1.11618e-05
9.92393e-05
1.27856e-05
8.49499e-05
1.42891e-05
6.93484e-05
1.56014e-05
5.26171e-05
1.67311e-05
3.49792e-05
1.76379e-05
1.67412e-05
1.82384e-05
-1.78202e-06
1.85237e-05
-2.02881e-05
1.85069e-05
-3.84968e-05
1.82097e-05
-5.6111e-05
1.76151e-05
-7.27808e-05
1.66702e-05
-8.83257e-05
1.55445e-05
-0.000102491
1.41645e-05
-0.000115129
1.26395e-05
-0.000126142
1.10133e-05
-0.00013542
9.2769e-06
-0.000142992
7.57155e-06
-0.00014889
5.89897e-06
-0.0001532
4.31082e-06
-0.00015601
2.8102e-06
-0.000157512
1.50172e-06
-0.000157865
3.53573e-07
-0.0001573
-5.6517e-07
-0.000155967
-1.33241e-06
-0.000154089
-1.87774e-06
-0.000151767
-2.32147e-06
-0.000149142
-2.6249e-06
-0.000146387
-2.7559e-06
-0.000143523
-2.86409e-06
-0.000140589
-2.9335e-06
-0.000137629
-2.96192e-06
-0.000134587
-3.04294e-06
-0.000131355
-3.23077e-06
-0.000127767
-3.58787e-06
-0.00012365
-4.11664e-06
-0.000118811
-4.83875e-06
-0.000113031
-5.78014e-06
-0.000106068
-6.96143e-06
-9.76708e-05
-8.39605e-06
-8.76522e-05
-1.00185e-05
-7.59561e-05
-1.16969e-05
-6.27481e-05
-1.32088e-05
-4.85018e-05
-1.42469e-05
-3.39933e-05
-1.45087e-05
-2.01483e-05
-1.38441e-05
-7.83364e-06
-1.23138e-05
-7.83354e-06
1.15636e-05
-1.97329e-05
2.98407e-05
-3.06761e-05
5.0623e-05
-3.4638e-05
7.26119e-05
-3.6467e-05
9.42092e-05
-3.58133e-05
0.000114032
-3.30045e-05
0.000131216
-2.88685e-05
0.000145437
-2.42417e-05
0.000156765
-1.97522e-05
0.000165474
-1.57275e-05
0.000171955
-1.2318e-05
0.000176599
-9.53874e-06
0.000179789
-7.34736e-06
0.000181855
-5.68092e-06
0.000183042
-4.45366e-06
0.000183572
-3.57554e-06
0.000183593
-2.92656e-06
0.000183185
-2.39026e-06
0.000182428
-1.947e-06
0.000181352
-1.50486e-06
0.000179931
-9.85442e-07
0.000178198
-3.16688e-07
0.000176007
5.31532e-07
0.000173369
1.64312e-06
0.00017007
3.00374e-06
0.000166041
4.68498e-06
0.000161155
6.67343e-06
0.000155299
8.958e-06
0.000148345
1.15072e-05
0.000140195
1.42718e-05
0.000130772
1.71956e-05
0.00012006
2.02065e-05
0.000108015
2.32061e-05
9.47045e-05
2.60963e-05
8.02069e-05
2.87866e-05
6.46427e-05
3.11656e-05
4.81874e-05
3.31865e-05
3.10686e-05
3.47569e-05
1.34868e-05
3.58207e-05
-4.34251e-06
3.63537e-05
-2.21688e-05
3.63336e-05
-3.97195e-05
3.57607e-05
-5.67528e-05
3.4648e-05
-7.31005e-05
3.3018e-05
-8.84885e-05
3.09331e-05
-0.000102783
2.84593e-05
-0.000115844
2.56997e-05
-0.000127584
2.27536e-05
-0.000137998
1.96917e-05
-0.000147067
1.66415e-05
-0.000154842
1.36739e-05
-0.000161378
1.08477e-05
-0.000166808
8.24036e-06
-0.000171259
5.95375e-06
-0.000174855
3.95094e-06
-0.000177703
2.28276e-06
-0.000179979
9.44867e-07
-0.000181759
-9.81012e-08
-0.000183179
-9.02075e-07
-0.000184297
-1.50614e-06
-0.000185099
-1.95541e-06
-0.000185649
-2.31628e-06
-0.000185914
-2.66922e-06
-0.000185802
-3.07262e-06
-0.000185221
-3.62317e-06
-0.000183967
-4.48307e-06
-0.000181874
-5.68024e-06
-0.00017866
-7.33029e-06
-0.00017398
-9.51752e-06
-0.000167445
-1.23143e-05
-0.000158631
-1.57742e-05
-0.000147142
-1.98841e-05
-0.000132682
-2.44778e-05
-0.000115219
-2.91592e-05
-9.50991e-05
-3.33284e-05
-7.3171e-05
-3.61745e-05
-5.08588e-05
-3.68193e-05
-2.97937e-05
-3.49082e-05
-1.14041e-05
-3.07038e-05
-1.92372e-05
1.27473e-05
-3.24799e-05
3.3496e-05
-5.14265e-05
5.77191e-05
-5.88607e-05
8.35171e-05
-6.22646e-05
0.00010881
-6.11063e-05
0.000131863
-5.60573e-05
0.00015162
-4.86251e-05
0.000167702
-4.03229e-05
0.000180207
-3.22563e-05
0.000189513
-2.50336e-05
0.000196119
-1.89232e-05
0.0002005
-1.39201e-05
0.000203129
-9.97644e-06
0.000204398
-6.95052e-06
0.000204645
-4.69999e-06
0.000204098
-3.02808e-06
0.000202935
-1.76426e-06
0.000201362
-8.1645e-07
0.000199431
-1.32693e-08
0.000197194
7.34412e-07
0.000194663
1.54675e-06
0.000191844
2.50388e-06
0.000188665
3.71174e-06
0.00018505
5.25842e-06
0.000180882
7.17262e-06
0.000176035
9.53313e-06
0.000170361
1.23471e-05
0.000163741
1.55787e-05
0.00015604
1.92083e-05
0.000147161
2.315e-05
0.000137009
2.73477e-05
0.000125541
3.16743e-05
0.00011276
3.59874e-05
9.86822e-05
4.01734e-05
8.34009e-05
4.40674e-05
6.70305e-05
4.75352e-05
4.97691e-05
5.04469e-05
3.18175e-05
5.27075e-05
1.33926e-05
5.42445e-05
-5.26743e-06
5.50124e-05
-2.39188e-05
5.49839e-05
-4.23124e-05
5.41544e-05
-6.02063e-05
5.25428e-05
-7.73723e-05
5.01844e-05
-9.35896e-05
4.71497e-05
-0.000108691
4.35612e-05
-0.000122535
3.9545e-05
-0.000135039
3.52581e-05
-0.000146194
3.08464e-05
-0.000155981
2.64281e-05
-0.000164468
2.21606e-05
-0.000171748
1.81285e-05
-0.000177935
1.44278e-05
-0.000183121
1.11386e-05
-0.000187469
8.29788e-06
-0.000191149
5.96189e-06
-0.000194307
4.10131e-06
-0.000197045
2.64097e-06
-0.000199472
1.52545e-06
-0.000201636
6.5788e-07
-0.000203563
-2.82034e-08
-0.000205236
-6.41284e-07
-0.000206615
-1.28942e-06
-0.000207574
-2.11395e-06
-0.000207967
-3.22904e-06
-0.000207633
-4.81683e-06
-0.000206289
-7.02502e-06
-0.000203587
-1.00322e-05
-0.000199117
-1.39885e-05
-0.000192402
-1.90276e-05
-0.000182915
-2.52577e-05
-0.000170157
-3.26389e-05
-0.000153753
-4.08808e-05
-0.000133609
-4.93014e-05
-0.000110112
-5.6824e-05
-8.43669e-05
-6.19182e-05
-5.81483e-05
-6.3036e-05
-3.35746e-05
-5.94812e-05
-1.26339e-05
-5.16419e-05
-3.18694e-05
1.36295e-05
-4.61062e-05
3.66357e-05
-7.44336e-05
6.40113e-05
-8.62369e-05
9.32699e-05
-9.15237e-05
0.000121805
-8.96417e-05
0.000147486
-8.17374e-05
0.000169111
-7.02491e-05
0.000186333
-5.75444e-05
0.000199411
-4.53344e-05
0.000208903
-3.45257e-05
0.000215454
-2.54742e-05
0.000219663
-1.81291e-05
0.000222039
-1.23517e-05
0.000223016
-7.92787e-06
0.000222938
-4.62189e-06
0.000222073
-2.16384e-06
0.000220659
-3.48885e-07
0.000218786
1.05636e-06
0.0002166
2.17298e-06
0.000214139
3.19407e-06
0.000211426
4.25949e-06
0.000208421
5.50998e-06
0.000205056
7.07712e-06
0.000201258
9.05643e-06
0.000196878
1.15526e-05
0.000191777
1.46338e-05
0.000185792
1.83315e-05
0.000178771
2.25994e-05
0.000170555
2.74241e-05
0.000161018
3.26869e-05
0.00015008
3.82848e-05
0.00013768
4.40748e-05
0.000123772
4.98951e-05
0.000108413
5.55329e-05
9.16942e-05
6.07856e-05
7.37613e-05
6.5468e-05
5.48188e-05
6.93887e-05
3.50938e-05
7.2432e-05
1.4834e-05
7.4504e-05
-5.6961e-06
7.55426e-05
-2.62217e-05
7.55096e-05
-4.64632e-05
7.43952e-05
-6.61484e-05
7.22279e-05
-8.50084e-05
6.90454e-05
-0.000102823
6.49643e-05
-0.000119371
6.01076e-05
-0.000134512
5.46835e-05
-0.000148148
4.88913e-05
-0.000160241
4.29379e-05
-0.000170832
3.7017e-05
-0.00017995
3.12748e-05
-0.000187699
2.58747e-05
-0.00019422
2.09468e-05
-0.000199663
1.65807e-05
-0.000204237
1.28709e-05
-0.000208082
9.80866e-06
-0.000211361
7.38072e-06
-0.000214231
5.5098e-06
-0.000216784
4.07968e-06
-0.000219094
2.96782e-06
-0.000221201
2.07771e-06
-0.00022308
1.23612e-06
-0.00022467
2.98305e-07
-0.00022588
-9.04995e-07
-0.00022657
-2.53883e-06
-0.000226533
-4.85557e-06
-0.000225483
-8.07702e-06
-0.000223044
-1.24712e-05
-0.000218758
-1.82735e-05
-0.000212085
-2.5701e-05
-0.000202417
-3.49278e-05
-0.000189089
-4.5969e-05
-0.000171524
-5.84467e-05
-0.000149453
-7.13721e-05
-0.000123251
-8.30258e-05
-9.41834e-05
-9.09853e-05
-6.44418e-05
-9.27785e-05
-3.66975e-05
-8.72246e-05
-1.3479e-05
-7.48609e-05
-4.53483e-05
1.43184e-05
-6.0423e-05
3.9625e-05
-9.97403e-05
7.0441e-05
-0.000117053
0.000103543
-0.000124626
0.000135465
-0.000121565
0.000163498
-0.00010977
0.000186271
-9.3021e-05
0.000203643
-7.49162e-05
0.000216211
-5.7903e-05
0.000224885
-4.31993e-05
0.000230535
-3.11231e-05
0.000233927
-2.15221e-05
0.000235636
-1.40595e-05
0.000236062
-8.35457e-06
0.000235588
-4.14747e-06
0.000234466
-1.04306e-06
0.000232856
1.25794e-06
0.000230957
2.95344e-06
0.00022882
4.30839e-06
0.000226481
5.53131e-06
0.000223944
6.79464e-06
0.000221165
8.28735e-06
0.000218056
1.01848e-05
0.000214519
1.25922e-05
0.000210397
1.56749e-05
0.000205509
1.95223e-05
0.00019968
2.41607e-05
0.000192697
2.95833e-05
0.000184379
3.57428e-05
0.000174598
4.24691e-05
0.000163199
4.96842e-05
0.000150074
5.72013e-05
0.000135243
6.47263e-05
0.00011873
7.20465e-05
0.000100636
7.8881e-05
8.1133e-05
8.49707e-05
6.04468e-05
9.0075e-05
3.8839e-05
9.40397e-05
1.66102e-05
9.6732e-05
-5.93236e-06
9.80838e-05
-2.84717e-05
9.80485e-05
-5.06873e-05
9.66106e-05
-7.22624e-05
9.3802e-05
-9.28873e-05
8.96681e-05
-0.000112286
8.43603e-05
-0.000130232
7.80533e-05
-0.000146536
7.09867e-05
-0.000161107
6.34617e-05
-0.000173893
5.57226e-05
-0.000184936
4.806e-05
-0.000194298
4.06378e-05
-0.000202115
3.36926e-05
-0.000208544
2.73771e-05
-0.000213798
2.18355e-05
-0.000218103
1.71749e-05
-0.00022163
1.33341e-05
-0.000224577
1.03276e-05
-0.000227129
8.06098e-06
-0.000229393
6.34444e-06
-0.000231489
5.06301e-06
-0.000233433
4.0218e-06
-0.000235236
3.04172e-06
-0.000236866
1.93071e-06
-0.000238237
4.66075e-07
-0.000239202
-1.57458e-06
-0.000239591
-4.46657e-06
-0.000239106
-8.56288e-06
-0.0002374
-1.41777e-05
-0.000233976
-2.17006e-05
-0.000228239
-3.14409e-05
-0.000219437
-4.37327e-05
-0.000206641
-5.87653e-05
-0.000188928
-7.61591e-05
-0.000165666
-9.46333e-05
-0.000137037
-0.000111654
-0.000104501
-0.000123522
-7.08566e-05
-0.000126423
-3.96449e-05
-0.000118435
-1.41168e-05
-0.000100389
-5.94654e-05
1.4967e-05
-7.539e-05
4.31641e-05
-0.000127937
7.86258e-05
-0.000152515
0.000116847
-0.000162847
0.000152934
-0.000157651
0.000183274
-0.00014011
0.000206419
-0.000116166
0.000222733
-9.12294e-05
0.000233469
-6.86394e-05
0.000240062
-4.97918e-05
0.000243756
-3.48158e-05
0.00024546
-2.32257e-05
0.000245792
-1.43927e-05
0.000245149
-7.71376e-06
0.000243881
-2.88029e-06
0.000242214
6.24657e-07
0.000240294
3.17748e-06
0.00023823
5.01785e-06
0.00023612
6.41853e-06
0.000233957
7.6939e-06
0.000231745
9.00729e-06
0.000229418
1.06142e-05
0.000226849
1.27543e-05
0.000223912
1.55289e-05
0.000220424
1.91633e-05
0.000216162
2.37839e-05
0.000210926
2.93971e-05
0.000204449
3.60601e-05
0.00019653
4.36623e-05
0.000186867
5.2133e-05
0.000175328
6.12235e-05
0.000161855
7.06748e-05
0.00014637
8.02109e-05
0.000128927
8.94899e-05
0.000109614
9.81942e-05
8.86241e-05
0.00010596
6.62335e-05
0.000112465
4.27466e-05
0.000117527
1.85225e-05
0.000120957
-6.06753e-06
0.000122674
-3.06507e-05
0.00012263
-5.48601e-05
0.000120818
-7.83172e-05
0.000117259
-0.000100666
0.000112019
-0.000121574
0.000105269
-0.000140766
9.72455e-05
-0.000158036
8.82595e-05
-0.000173253
7.86807e-05
-0.000186412
6.88843e-05
-0.000197514
5.91629e-05
-0.000206695
4.9819e-05
-0.000214151
4.11491e-05
-0.000220062
3.32882e-05
-0.000224676
2.64508e-05
-0.000228256
2.07567e-05
-0.000231074
1.61537e-05
-0.000233356
1.26101e-05
-0.000235309
1.00151e-05
-0.000237089
8.12671e-06
-0.00023881
6.78533e-06
-0.000240543
5.75554e-06
-0.000242312
4.80875e-06
-0.000244091
3.70703e-06
-0.00024582
2.19335e-06
-0.000247369
-2.61056e-08
-0.000248586
-3.24967e-06
-0.000249216
-7.93258e-06
-0.000248946
-1.44469e-05
-0.000247306
-2.3339e-05
-0.000243641
-3.51045e-05
-0.000236987
-5.03842e-05
-0.000226091
-6.96589e-05
-0.000209453
-9.27968e-05
-0.000185776
-0.00011831
-0.000154757
-0.000142672
-0.00011793
-0.000160349
-7.903e-05
-0.000165322
-4.30982e-05
-0.000154366
-1.47024e-05
-0.000128783
-7.41671e-05
1.58171e-05
-9.12072e-05
4.86816e-05
-0.000160801
9.16442e-05
-0.000195478
0.000137594
-0.000208798
0.000178982
-0.000199038
0.000211114
-0.000172242
0.000233068
-0.000138122
0.000246406
-0.000104567
0.000253503
-7.57353e-05
0.000256528
-5.28171e-05
0.000257088
-3.53765e-05
0.000256213
-2.2351e-05
0.000254478
-1.26573e-05
0.000252308
-5.54173e-06
0.000249875
-4.45904e-07
0.000247334
3.16779e-06
0.000244847
5.66626e-06
0.000242479
7.38737e-06
0.000240289
8.61018e-06
0.000238303
9.68122e-06
0.000236465
1.08471e-05
0.000234702
1.23785e-05
0.000232881
1.45769e-05
0.000230819
1.75913e-05
0.000228287
2.16957e-05
0.000225019
2.70519e-05
0.000220742
3.36748e-05
0.000215139
4.16634e-05
0.000207896
5.09054e-05
0.000198772
6.12568e-05
0.000187518
7.24768e-05
0.000173969
8.4224e-05
0.000158056
9.61238e-05
0.000139787
0.000107759
0.000119291
0.000118691
9.67965e-05
0.000128456
7.25983e-05
0.000136665
4.70944e-05
0.000143031
2.06991e-05
0.000147352
-6.13946e-06
0.000149513
-3.29751e-05
0.000149468
-5.93631e-05
0.000147207
-8.48602e-05
0.000142758
-0.000109042
0.000136202
-0.000131498
0.000127727
-0.000151903
0.00011765
-0.00017001
0.000106365
-0.000185686
9.43553e-05
-0.000198923
8.21206e-05
-0.000209766
7.00063e-05
-0.000218414
5.84678e-05
-0.000225049
4.77855e-05
-0.000230026
3.82661e-05
-0.000233584
3.00093e-05
-0.000236114
2.32867e-05
-0.000237914
1.79541e-05
-0.000239265
1.39608e-05
-0.000240416
1.11663e-05
-0.000241575
9.28336e-06
-0.000242878
8.08584e-06
-0.000244418
7.29474e-06
-0.00024624
6.6321e-06
-0.000248344
5.81144e-06
-0.000250673
4.52276e-06
-0.000253138
2.43949e-06
-0.000255575
-8.1149e-07
-0.000257875
-5.62966e-06
-0.000259751
-1.25702e-05
-0.000260797
-2.22937e-05
-0.000260401
-3.55035e-05
-0.00025747
-5.33174e-05
-0.000250332
-7.67981e-05
-0.000236758
-0.000106372
-0.000214309
-0.000140759
-0.000181429
-0.000175553
-0.000139106
-0.00020267
-9.224e-05
-0.000212187
-4.85863e-05
-0.000198021
-1.54751e-05
-0.000161895
-8.96437e-05
1.77504e-05
-0.000108958
5.99214e-05
-0.000202972
0.000116568
-0.000252125
0.000174644
-0.000266873
0.000222086
-0.00024648
0.000253548
-0.000203703
0.000270418
-0.000154992
0.000277031
-0.000111183
0.000277614
-7.63182e-05
0.000275111
-5.03145e-05
0.000271284
-3.15489e-05
0.000267054
-1.8119e-05
0.00026272
-8.32511e-06
0.000258596
-1.41746e-06
0.000254709
3.44181e-06
0.000251111
6.76688e-06
0.000247888
8.88818e-06
0.000245097
1.0178e-05
0.000242778
1.09288e-05
0.000240948
1.15108e-05
0.000239542
1.22532e-05
0.000238478
1.34435e-05
0.000237594
1.54605e-05
0.00023665
1.85356e-05
0.000235384
2.29628e-05
0.000233473
2.89633e-05
0.000230568
3.658e-05
0.000226274
4.59577e-05
0.000220147
5.70333e-05
0.000211874
6.95296e-05
0.000201165
8.31875e-05
0.000187757
9.76331e-05
0.000171514
0.000112368
0.000152446
0.000126828
0.000130674
0.000140464
0.000106447
0.000152682
8.01739e-05
0.000162938
5.23127e-05
0.000170893
2.33407e-05
0.000176327
-6.16294e-06
0.00017902
-3.568e-05
0.000178987
-6.4664e-05
0.000176193
-9.2584e-05
0.000170678
-0.000118902
0.000162518
-0.000143148
0.000151971
-0.000164861
0.000139363
-0.000183803
0.000125309
-0.000199829
0.000110382
-0.000212911
9.52036e-05
-0.000223213
8.03086e-05
-0.000230931
6.61862e-05
-0.000236397
5.32512e-05
-0.00023999
4.18602e-05
-0.000242136
3.21566e-05
-0.000243193
2.43443e-05
-0.000243626
1.83873e-05
-0.000243772
1.41044e-05
-0.000243921
1.1315e-05
-0.000244321
9.68617e-06
-0.000245138
8.90575e-06
-0.000246489
8.6459e-06
-0.000248429
8.57216e-06
-0.000250969
8.35047e-06
-0.000254079
7.63257e-06
-0.000257684
6.04471e-06
-0.000261688
3.19132e-06
-0.000266003
-1.31637e-06
-0.000270589
-7.98756e-06
-0.000275184
-1.76997e-05
-0.000279378
-3.13077e-05
-0.000282212
-5.04807e-05
-0.000281872
-7.71372e-05
-0.000275314
-0.00011293
-0.000258204
-0.000157869
-0.000226039
-0.000207718
-0.00017744
-0.000251269
-0.000117979
-0.000271649
-6.01176e-05
-0.000255882
-1.73755e-05
-0.000204637
-0.000107019
2.29967e-05
-0.000131954
8.39306e-05
-0.000263907
0.000163885
-0.00033208
0.000239081
-0.000342069
0.000291782
-0.000299182
0.000317414
-0.000229337
0.000322334
-0.000159913
0.000316151
-0.000104999
0.000306
-6.61673e-05
0.000295525
-3.98405e-05
0.000286062
-2.20892e-05
0.000277778
-9.83453e-06
0.000270552
-1.09961e-06
0.000264333
4.79938e-06
0.000258822
8.95013e-06
0.000254022
1.15663e-05
0.000249962
1.29473e-05
0.000246687
1.34527e-05
0.000244228
1.33889e-05
0.000242587
1.31523e-05
0.000241713
1.31278e-05
0.000241499
1.36578e-05
0.000241775
1.5186e-05
0.000242244
1.80678e-05
0.000242613
2.25942e-05
0.000242481
2.90966e-05
0.000241376
3.76855e-05
0.000238789
4.8545e-05
0.000234255
6.15675e-05
0.00022727
7.65154e-05
0.000217408
9.30502e-05
0.000204335
0.000110706
0.000187866
0.000128836
0.000167953
0.00014674
0.000144652
0.000163766
0.000118399
0.000178936
8.959e-05
0.000191749
5.87625e-05
0.000201723
2.66618e-05
0.000208428
-6.11832e-06
0.0002118
-3.89734e-05
0.000211841
-7.11563e-05
0.000208374
-0.000102055
0.000201577
-0.000131001
0.000191467
-0.000157333
0.000178306
-0.000180666
0.000162697
-0.000200543
0.000145187
-0.000216816
0.000126655
-0.000229566
0.000107954
-0.000239
8.97427e-05
-0.000245397
7.25854e-05
-0.000249222
5.7077e-05
-0.000250968
4.36063e-05
-0.000251168
3.2357e-05
-0.000250375
2.35514e-05
-0.000249067
1.70804e-05
-0.000247683
1.27216e-05
-0.000246581
1.02133e-05
-0.000246046
9.14839e-06
-0.000246272
9.13044e-06
-0.000247389
9.7632e-06
-0.000249469
1.06519e-05
-0.000252503
1.13845e-05
-0.000256489
1.16183e-05
-0.000261345
1.09013e-05
-0.000267053
8.9006e-06
-0.000273636
5.2689e-06
-0.000281235
-3.86359e-07
-0.000290064
-8.86791e-06
-0.000300198
-2.11722e-05
-0.000311406
-3.92722e-05
-0.000322304
-6.62404e-05
-0.000329128
-0.000106107
-0.000324425
-0.000162571
-0.00029824
-0.000233903
-0.000244106
-0.000305403
-0.000166881
-0.000348875
-8.49066e-05
-0.000337856
-2.27255e-05
-0.00026682
-0.000129745
3.48943e-05
-0.000166849
0.000126534
-0.000355547
0.000236361
-0.000441906
0.00032856
-0.000434267
0.000383011
-0.000353634
0.000397831
-0.000244157
0.000385061
-0.000147144
0.000360819
-8.07571e-05
0.00033625
-4.15992e-05
0.000315845
-1.94341e-05
0.000299986
-6.23091e-06
0.000287468
2.68148e-06
0.000277627
8.7423e-06
0.000269271
1.31566e-05
0.000262133
1.60901e-05
0.000256091
1.76102e-05
0.000251144
1.78959e-05
0.000247352
1.72461e-05
0.000244756
1.59867e-05
0.000243369
1.454e-05
0.00024316
1.33383e-05
0.000243989
1.28305e-05
0.00024569
1.34857e-05
0.000247954
1.5805e-05
0.000250391
2.01582e-05
0.00025252
2.69667e-05
0.000253757
3.64477e-05
0.000253477
4.88247e-05
0.000251039
6.40051e-05
0.000245808
8.17465e-05
0.000237187
0.000101672
0.000224764
0.00012313
0.000208217
0.000145385
0.000187245
0.000167714
0.000162316
0.000188696
0.000133562
0.000207691
0.00010162
0.00022369
6.71189e-05
0.000236222
3.08906e-05
0.000244654
-6.02911e-06
0.000248719
-4.29702e-05
0.000248783
-7.92972e-05
0.000244703
-0.000114039
0.000236319
-0.000146293
0.000223721
-0.000175347
0.00020736
-0.000200454
0.000187805
-0.000221287
0.000166019
-0.000237751
0.00014312
-0.000249892
0.000120096
-0.000258018
9.78679e-05
-0.000262636
7.72032e-05
-0.000264292
5.87334e-05
-0.000263611
4.29261e-05
-0.000261315
3.00622e-05
-0.000258091
2.0329e-05
-0.000254548
1.3536e-05
-0.000251251
9.42399e-06
-0.000248595
7.55868e-06
-0.00024691
7.46518e-06
-0.000246412
8.63343e-06
-0.000247216
1.05686e-05
-0.000249403
1.2839e-05
-0.000252962
1.49443e-05
-0.000257836
1.64947e-05
-0.000263972
1.70394e-05
-0.000271384
1.63134e-05
-0.000280195
1.40788e-05
-0.000290764
1.01803e-05
-0.000303971
4.33815e-06
-0.000320813
-4.33136e-06
-0.000342425
-1.76603e-05
-0.000368322
-4.0344e-05
-0.000393704
-8.07237e-05
-0.000406835
-0.00014944
-0.000391298
-0.00024944
-0.000335054
-0.000361649
-0.000240502
-0.000443426
-0.000128238
-0.00045012
-3.47923e-05
-0.000360267
-0.000164537
5.51675e-05
-0.000222016
0.00018126
-0.000481639
0.000312742
-0.000573387
0.000410282
-0.000531808
0.000459859
-0.000403211
0.00046389
-0.000248186
0.00043686
-0.000120114
0.000397711
-4.1607e-05
0.000360762
-4.65055e-06
0.000331814
9.5131e-06
0.000310631
1.49539e-05
0.000295244
1.80707e-05
0.000283117
2.08705e-05
0.000273065
2.32111e-05
0.000264495
2.46604e-05
0.000257237
2.48686e-05
0.000251363
2.37697e-05
0.000247011
2.15985e-05
0.000244271
1.87259e-05
0.000243222
1.55889e-05
0.000243815
1.2745e-05
0.000245929
1.07172e-05
0.000249377
1.00373e-05
0.000253827
1.13542e-05
0.000258855
1.51294e-05
0.00026386
2.19603e-05
0.000268136
3.21716e-05
0.000270873
4.6087e-05
0.000271228
6.36501e-05
0.0002684
8.4575e-05
0.000261579
0.000108493
0.000250212
0.000134497
0.000233576
0.000162022
0.00021197
0.00018932
0.000184954
0.000215712
0.000153068
0.000239576
0.000116984
0.000259775
7.77904e-05
0.000275416
3.66229e-05
0.000285823
-5.75424e-06
0.000291097
-4.8235e-05
0.000291263
-8.97747e-05
0.000286241
-0.000129395
0.000275939
-0.000165816
0.000260143
-0.000198153
0.000239697
-0.000225486
0.000215139
-0.000247398
0.000187931
-0.000263796
0.000159518
-0.000274927
0.000131226
-0.000281254
0.000104194
-0.000283423
7.93712e-05
-0.000282168
5.74773e-05
-0.000278346
3.91033e-05
-0.000272829
2.45418e-05
-0.0002665
1.39976e-05
-0.000260142
7.17797e-06
-0.000254445
3.72721e-06
-0.000249887
2.99901e-06
-0.000246814
4.39215e-06
-0.000245431
7.25002e-06
-0.00024585
1.0988e-05
-0.000248107
1.50977e-05
-0.000252196
1.90342e-05
-0.000258011
2.23107e-05
-0.000265431
2.44587e-05
-0.000274386
2.52683e-05
-0.000285006
2.46997e-05
-0.000297893
2.30698e-05
-0.000314405
2.0852e-05
-0.000336773
1.80368e-05
-0.000367166
1.27321e-05
-0.000405561
-1.94853e-06
-0.000445498
-4.07864e-05
-0.000472189
-0.00012275
-0.000466604
-0.000255026
-0.000414962
-0.000413291
-0.000315464
-0.000542923
-0.00018232
-0.000583266
-5.49461e-05
-0.000487641
-0.000219484
7.90217e-05
-0.000301038
0.000222998
-0.000625616
0.000349833
-0.000700221
0.000432586
-0.00061456
0.000470198
-0.000440824
0.000469671
-0.000247658
0.000442734
-9.31759e-05
0.000404235
-3.10777e-06
0.000366748
3.28372e-05
0.000336929
3.93327e-05
0.000315309
3.65751e-05
0.000299352
3.40272e-05
0.000286606
3.36176e-05
0.000275616
3.4202e-05
0.000265886
3.43901e-05
0.000257447
3.33077e-05
0.000250576
3.06414e-05
0.000245589
2.65851e-05
0.000242682
2.16329e-05
0.00024201
1.62596e-05
0.000243525
1.123e-05
0.00024713
7.11172e-06
0.000252653
4.51354e-06
0.000259815
4.19071e-06
0.000268055
6.88921e-06
0.000276733
1.32817e-05
0.000284906
2.39984e-05
0.000291574
3.94194e-05
0.000295649
5.95743e-05
0.000296047
8.41769e-05
0.000291863
0.000112677
0.000282013
0.000144346
0.000266238
0.000177796
0.000243677
0.00021188
0.000214372
0.000245017
0.00017875
0.0002752
0.000137723
0.000300802
9.24713e-05
0.000320667
4.42982e-05
0.000333994
-5.34785e-06
0.000340741
-5.51779e-05
0.000341092
-0.000103738
0.000334801
-0.000149527
0.000321727
-0.000191289
0.000301905
-0.000227453
0.000275862
-0.000257386
0.000245072
-0.000280476
0.00021102
-0.000296474
0.000175515
-0.000306021
0.000140772
-0.00030978
0.000107951
-0.000308654
7.82443e-05
-0.000303564
5.23852e-05
-0.000295614
3.11511e-05
-0.00028591
1.48375e-05
-0.000275618
3.70417e-06
-0.000265717
-2.7257e-06
-0.000257079
-4.91083e-06
-0.000250253
-3.82682e-06
-0.000245569
-2.91354e-07
-0.000243176
4.85735e-06
-0.00024315
1.09634e-05
-0.000245501
1.74472e-05
-0.00025017
2.37025e-05
-0.000256973
2.91136e-05
-0.00026562
3.31066e-05
-0.000275823
3.54728e-05
-0.000287514
3.63904e-05
-0.000301201
3.67573e-05
-0.000318321
3.79704e-05
-0.000341263
4.09779e-05
-0.000372333
4.38008e-05
-0.000410507
3.62265e-05
-0.000448597
-2.69687e-06
-0.000473962
-9.73851e-05
-0.000472144
-0.000256843
-0.000432391
-0.000453045
-0.000348422
-0.000626892
-0.000221415
-0.000710274
-7.79289e-05
-0.000631127
-0.000297412
9.39141e-05
-0.000394951
0.000221138
-0.000752839
0.000312793
-0.000791876
0.000365499
-0.000667266
0.000389421
-0.000464746
0.000393252
-0.000251487
0.000383063
-8.29861e-05
0.000364834
1.51226e-05
0.000344184
5.3485e-05
0.000326024
5.74928e-05
0.000311147
5.14516e-05
0.000298738
4.6436e-05
0.000287369
4.49856e-05
0.000276342
4.52285e-05
0.00026576
4.49727e-05
0.000256159
4.29082e-05
0.000248214
3.85859e-05
0.000242511
3.22882e-05
0.000239434
2.47105e-05
0.000239113
1.65807e-05
0.00024164
8.70285e-06
0.000246948
1.80327e-06
0.000254939
-3.47784e-06
0.000265375
-6.24535e-06
0.000277642
-5.3774e-06
0.000290972
-4.80006e-08
0.00030425
1.07206e-05
0.000316074
2.75952e-05
0.000325046
5.06024e-05
0.000329877
7.93459e-05
0.000329295
0.000113257
0.000322311
0.000151329
0.000307647
0.000192459
0.000284603
0.000234924
0.000252843
0.000276775
0.000212767
0.000315275
0.000165307
0.00034826
0.000112099
0.000373873
5.48017e-05
0.000391292
-4.75663e-06
0.0004003
-6.45284e-05
0.000400865
-0.000122458
0.000392731
-0.000176594
0.000375863
-0.000225085
0.000350397
-0.000266229
0.000317005
-0.000298766
0.00027761
-0.000322243
0.000234498
-0.000337546
0.000190819
-0.00034458
0.000147807
-0.000344756
0.000108127
-0.00033918
7.26686e-05
-0.000329014
4.22207e-05
-0.000315647
1.7783e-05
-0.000300537
-2.73961e-07
-0.000285039
-1.17949e-05
-0.000270708
-1.70557e-05
-0.000258397
-1.7221e-05
-0.000248936
-1.32883e-05
-0.000242427
-6.8003e-06
-0.000238932
1.36094e-06
-0.000238426
1.0456e-05
-0.000240894
1.99159e-05
-0.000246223
2.90312e-05
-0.000254119
3.7009e-05
-0.000263996
4.29818e-05
-0.000275183
4.66594e-05
-0.000287094
4.83011e-05
-0.000299567
4.92298e-05
-0.000313148
5.15513e-05
-0.000329066
5.6895e-05
-0.000347984
6.27197e-05
-0.000368452
5.66953e-05
-0.000385471
1.43211e-05
-0.000393523
-8.93328e-05
-0.000387245
-0.00026312
-0.000361543
-0.000478746
-0.000308129
-0.000680307
-0.000217074
-0.000801327
-9.15765e-05
-0.000756624
-0.000388988
8.73092e-05
-0.000482259
0.000165301
-0.000830829
0.000206477
-0.000833052
0.000228415
-0.000689204
0.000244233
-0.000480562
0.000260386
-0.000267639
0.000276673
-9.92749e-05
0.000289427
2.36761e-06
0.000296988
4.59242e-05
0.00029925
5.52313e-05
0.000296879
5.3822e-05
0.000290858
5.24563e-05
0.00028218
5.36633e-05
0.000271591
5.5817e-05
0.000260323
5.62407e-05
0.000249627
5.36043e-05
0.000240625
4.75882e-05
0.000234268
3.86462e-05
0.000231045
2.79337e-05
0.000231243
1.63826e-05
0.000234973
4.97252e-06
0.000242323
-5.54665e-06
0.00025336
-1.45139e-05
0.000267975
-2.08603e-05
0.000285455
-2.28577e-05
0.000304921
-1.95131e-05
0.000325022
-9.37997e-06
0.000343703
8.91521e-06
0.000359264
3.50407e-05
0.000370058
6.85521e-05
0.000374679
0.000108637
0.000371684
0.000154324
0.000359456
0.000204685
0.000336633
0.000257745
0.000302315
0.000311092
0.000256614
0.000360976
0.000200982
0.000403894
0.000137401
0.000437456
6.81868e-05
0.000460508
-4.08639e-06
0.000472575
-7.66178e-05
0.000473397
-0.0001466
0.000462714
-0.000211436
0.0004407
-0.000268372
0.000407334
-0.000315605
0.000364239
-0.000351375
0.000313381
-0.000375333
0.000258456
-0.000388012
0.000203498
-0.000391227
0.000151022
-0.000386336
0.000103238
-0.000374641
6.09746e-05
-0.000357777
2.53554e-05
-0.000337138
-2.8533e-06
-0.000314887
-2.25224e-05
-0.000292314
-3.4367e-05
-0.000272294
-3.70758e-05
-0.000255157
-3.43586e-05
-0.000242489
-2.59569e-05
-0.000233805
-1.5485e-05
-0.000229037
-3.40589e-06
-0.000227987
9.40724e-06
-0.00023055
2.24783e-05
-0.000236578
3.50576e-05
-0.000245581
4.60115e-05
-0.000256826
5.42277e-05
-0.000268984
5.88182e-05
-0.000280726
6.0044e-05
-0.000290749
5.92522e-05
-0.000297921
5.87239e-05
-0.000301239
6.02134e-05
-0.000299543
6.10244e-05
-0.000291582
4.87329e-05
-0.000277722
4.6124e-07
-0.000260041
-0.000107012
-0.000242568
-0.000280593
-0.000225883
-0.000495431
-0.000203634
-0.000702555
-0.000162563
-0.000842398
-8.50952e-05
-0.00083409
-0.000474082
5.7938e-05
-0.000540196
7.56115e-05
-0.000848502
7.14901e-05
-0.00082893
7.24012e-05
-0.000690114
8.77755e-05
-0.000495936
0.000119022
-0.000298886
0.000160422
-0.000140673
0.000202242
-3.9453e-05
0.000235783
1.2384e-05
0.000256896
3.41181e-05
0.00026604
4.46785e-05
0.000265696
5.2801e-05
0.000258919
6.04403e-05
0.0002487
6.60359e-05
0.000237071
6.78702e-05
0.000225813
6.48623e-05
0.000216364
5.70374e-05
0.000209887
4.51233e-05
0.000206969
3.08523e-05
0.000208112
1.52401e-05
0.000213578
-4.93696e-07
0.000223706
-1.56751e-05
0.000238993
-2.98007e-05
0.000259617
-4.14845e-05
0.000284149
-4.73897e-05
0.000311924
-4.72872e-05
0.00034169
-3.91457e-05
0.000369651
-1.90449e-05
0.000394258
1.0434e-05
0.000413415
4.9396e-05
0.000425468
9.65845e-05
0.000428662
0.000151131
0.000420614
0.000212734
0.000398873
0.000279487
0.000361743
0.000348223
0.000308944
0.000413777
0.000243143
0.000469695
0.000166843
0.000513756
8.29627e-05
0.000544387
-3.3933e-06
0.00055893
-8.98536e-05
0.000559857
-0.00017445
0.000547309
-0.000252375
0.000518625
-0.000319829
0.000474787
-0.000374586
0.000418996
-0.00041384
0.000352636
-0.000437388
0.000282005
-0.000446389
0.000212501
-0.00044336
0.000147994
-0.000430773
9.06511e-05
-0.000410796
4.10002e-05
-0.000384556
-8.82338e-07
-0.000353492
-3.39166e-05
-0.000321128
-5.48859e-05
-0.000289982
-6.55131e-05
-0.000261378
-6.56795e-05
-0.000238483
-5.72537e-05
-0.000220603
-4.3836e-05
-0.000208522
-2.7566e-05
-0.000202036
-9.89131e-06
-0.00020023
7.60182e-06
-0.000202738
2.49872e-05
-0.00020935
4.16713e-05
-0.000219476
5.6138e-05
-0.000231921
6.6673e-05
-0.000245087
7.19838e-05
-0.000256995