/*--------------------------------*- C++ -*----------------------------------*\
| =========                 |                                                 |
| \\      /  F ield         | OpenFOAM: The Open Source CFD Toolbox           |
|  \\    /   O peration     | Version:  2412                                  |
|   \\  /    A nd           | Website:  www.openfoam.com                      |
|    \\/     M anipulation  |                                                 |
\*---------------------------------------------------------------------------*/
FoamFile
{
    version     2.0;
    format      ascii;
    arch        "LSB;label=32;scalar=64";
    class       volScalarField;
    location    "9.45";
    object      p;
}
// * * * * * * * * * * * * * * * * * * * * * * * * * * * * * * * * * * * * * //

dimensions      [1 -1 -2 0 0 0 0];

internalField   nonuniform List<scalar> 
6400
(
12102.9
12102.9
12102.9
12103
12103.1
12103.3
12103.4
12103.7
12103.9
12104.2
12104.5
12104.8
12105.1
12105.4
12105.7
12106.1
12106.4
12106.8
12107.1
12107.3
12107.6
12107.7
12107.7
12107.7
12107.5
12107.1
12106.5
12105.8
12104.9
12103.7
12102.4
12101
12099.4
12097.9
12096.4
12094.9
12093.7
12092.7
12092
12091.7
12091.8
12092.2
12093
12094
12095.3
12096.8
12098.4
12099.9
12101.5
12102.9
12104.2
12105.3
12106.2
12106.9
12107.4
12107.8
12107.9
12108
12107.9
12107.8
12107.6
12107.3
12107
12106.7
12106.3
12106
12105.7
12105.4
12105
12104.7
12104.5
12104.2
12104
12103.7
12103.5
12103.4
12103.3
12103.2
12103.1
12103.2
11484.9
11484.9
11484.9
11485
11485.1
11485.2
11485.4
11485.6
11485.8
11486.1
11486.3
11486.6
11486.9
11487.2
11487.6
11487.9
11488.2
11488.5
11488.8
11489
11489.2
11489.3
11489.3
11489.2
11489
11488.6
11488.1
11487.4
11486.5
11485.5
11484.3
11483
11481.6
11480.2
11478.9
11477.6
11476.5
11475.7
11475.1
11474.8
11474.9
11475.2
11475.9
11476.8
11478
11479.3
11480.7
11482.1
11483.4
11484.7
11485.9
11486.9
11487.7
11488.4
11488.9
11489.3
11489.5
11489.6
11489.5
11489.4
11489.2
11489
11488.7
11488.5
11488.1
11487.8
11487.5
11487.2
11486.9
11486.6
11486.4
11486.1
11485.9
11485.7
11485.5
11485.3
11485.2
11485.2
11485.1
11485.1
10866.8
10866.8
10866.8
10866.9
10867
10867.2
10867.3
10867.5
10867.7
10868
10868.2
10868.5
10868.8
10869.1
10869.4
10869.7
10870
10870.2
10870.5
10870.7
10870.8
10870.9
10870.9
10870.8
10870.6
10870.2
10869.7
10869
10868.2
10867.3
10866.2
10865
10863.8
10862.6
10861.4
10860.3
10859.3
10858.6
10858.1
10857.8
10857.9
10858.2
10858.8
10859.6
10860.6
10861.8
10863
10864.2
10865.5
10866.6
10867.7
10868.6
10869.4
10870
10870.5
10870.9
10871.1
10871.2
10871.2
10871.1
10870.9
10870.7
10870.5
10870.2
10869.9
10869.6
10869.3
10869.1
10868.8
10868.5
10868.2
10868
10867.8
10867.6
10867.4
10867.3
10867.2
10867.1
10867.1
10867.1
10248.7
10248.7
10248.8
10248.8
10248.9
10249.1
10249.2
10249.4
10249.6
10249.8
10250.1
10250.3
10250.6
10250.9
10251.2
10251.5
10251.7
10252
10252.2
10252.4
10252.6
10252.6
10252.6
10252.5
10252.3
10252
10251.5
10250.9
10250.1
10249.2
10248.2
10247.2
10246
10244.9
10243.8
10242.7
10241.8
10241.1
10240.7
10240.4
10240.5
10240.8
10241.3
10242.1
10243
10244.1
10245.3
10246.4
10247.6
10248.6
10249.6
10250.5
10251.2
10251.8
10252.3
10252.6
10252.8
10252.9
10252.9
10252.8
10252.7
10252.5
10252.3
10252
10251.7
10251.4
10251.2
10250.9
10250.6
10250.4
10250.1
10249.9
10249.7
10249.5
10249.3
10249.2
10249.1
10249
10249
10249
9630.58
9630.59
9630.63
9630.7
9630.81
9630.94
9631.09
9631.27
9631.47
9631.69
9631.93
9632.18
9632.45
9632.72
9633
9633.29
9633.56
9633.82
9634.05
9634.24
9634.38
9634.46
9634.47
9634.38
9634.18
9633.87
9633.43
9632.85
9632.14
9631.31
9630.36
9629.32
9628.23
9627.11
9626.03
9625.03
9624.17
9623.48
9623.01
9622.79
9622.84
9623.14
9623.68
9624.43
9625.35
9626.39
9627.49
9628.62
9629.72
9630.75
9631.68
9632.5
9633.19
9633.75
9634.17
9634.47
9634.65
9634.73
9634.72
9634.64
9634.49
9634.29
9634.06
9633.81
9633.54
9633.26
9632.99
9632.71
9632.45
9632.2
9631.96
9631.75
9631.55
9631.37
9631.21
9631.08
9630.97
9630.89
9630.85
9630.83
9012.39
9012.42
9012.48
9012.56
9012.66
9012.79
9012.95
9013.12
9013.31
9013.52
9013.76
9014
9014.27
9014.54
9014.82
9015.11
9015.39
9015.65
9015.89
9016.1
9016.26
9016.36
9016.39
9016.33
9016.17
9015.89
9015.49
9014.96
9014.29
9013.49
9012.56
9011.54
9010.45
9009.33
9008.23
9007.21
9006.32
9005.61
9005.12
9004.9
9004.94
9005.25
9005.81
9006.59
9007.53
9008.6
9009.72
9010.85
9011.94
9012.95
9013.86
9014.64
9015.29
9015.81
9016.19
9016.45
9016.6
9016.65
9016.61
9016.51
9016.35
9016.14
9015.9
9015.64
9015.36
9015.08
9014.8
9014.53
9014.27
9014.03
9013.8
9013.58
9013.39
9013.22
9013.06
9012.93
9012.82
9012.73
9012.67
9012.64
8394.17
8394.22
8394.29
8394.39
8394.5
8394.63
8394.78
8394.94
8395.13
8395.34
8395.57
8395.82
8396.08
8396.36
8396.64
8396.94
8397.23
8397.51
8397.77
8398
8398.2
8398.33
8398.4
8398.39
8398.27
8398.05
8397.69
8397.2
8396.56
8395.78
8394.86
8393.82
8392.7
8391.52
8390.35
8389.26
8388.29
8387.52
8386.99
8386.74
8386.79
8387.13
8387.74
8388.58
8389.6
8390.74
8391.93
8393.11
8394.23
8395.25
8396.15
8396.91
8397.52
8397.99
8398.33
8398.54
8398.65
8398.65
8398.58
8398.44
8398.25
8398.01
8397.75
8397.48
8397.19
8396.9
8396.62
8396.34
8396.08
8395.84
8395.61
8395.41
8395.22
8395.05
8394.9
8394.76
8394.65
8394.55
8394.47
8394.41
7775.93
7776
7776.09
7776.2
7776.31
7776.44
7776.59
7776.75
7776.93
7777.14
7777.36
7777.61
7777.88
7778.16
7778.46
7778.77
7779.08
7779.39
7779.68
7779.95
7780.19
7780.38
7780.5
7780.54
7780.49
7780.33
7780.03
7779.58
7778.98
7778.21
7777.28
7776.19
7774.99
7773.71
7772.41
7771.18
7770.08
7769.19
7768.58
7768.29
7768.34
7768.74
7769.44
7770.4
7771.56
7772.83
7774.14
7775.42
7776.61
7777.67
7778.58
7779.32
7779.89
7780.31
7780.59
7780.74
7780.79
7780.73
7780.61
7780.42
7780.19
7779.92
7779.63
7779.33
7779.02
7778.72
7778.43
7778.14
7777.88
7777.64
7777.41
7777.21
7777.02
7776.86
7776.71
7776.58
7776.46
7776.35
7776.24
7776.16
7157.67
7157.77
7157.88
7158
7158.11
7158.24
7158.38
7158.54
7158.71
7158.91
7159.14
7159.38
7159.66
7159.95
7160.27
7160.6
7160.94
7161.28
7161.62
7161.94
7162.23
7162.48
7162.68
7162.8
7162.82
7162.74
7162.51
7162.13
7161.56
7160.8
7159.83
7158.68
7157.35
7155.9
7154.41
7152.96
7151.66
7150.6
7149.87
7149.52
7149.58
7150.04
7150.88
7152.03
7153.39
7154.88
7156.38
7157.82
7159.12
7160.24
7161.16
7161.89
7162.42
7162.78
7162.98
7163.05
7163.02
7162.89
7162.7
7162.45
7162.16
7161.85
7161.52
7161.18
7160.85
7160.53
7160.22
7159.93
7159.66
7159.41
7159.19
7158.99
7158.81
7158.66
7158.51
7158.38
7158.25
7158.13
7158.01
7157.9
6539.41
6539.53
6539.67
6539.79
6539.9
6540.03
6540.16
6540.3
6540.47
6540.66
6540.88
6541.13
6541.41
6541.72
6542.05
6542.41
6542.79
6543.17
6543.56
6543.94
6544.31
6544.64
6544.92
6545.14
6545.27
6545.28
6545.15
6544.84
6544.33
6543.58
6542.58
6541.32
6539.83
6538.15
6536.37
6534.61
6533.01
6531.7
6530.79
6530.35
6530.42
6530.99
6532.03
6533.44
6535.11
6536.9
6538.68
6540.34
6541.79
6543
6543.95
6544.65
6545.12
6545.39
6545.5
6545.47
6545.33
6545.12
6544.83
6544.51
6544.15
6543.78
6543.4
6543.03
6542.66
6542.32
6541.99
6541.69
6541.41
6541.16
6540.95
6540.75
6540.58
6540.43
6540.3
6540.17
6540.05
6539.92
6539.77
6539.64
5921.16
5921.3
5921.46
5921.58
5921.69
5921.8
5921.92
5922.05
5922.2
5922.39
5922.6
5922.85
5923.13
5923.46
5923.81
5924.2
5924.62
5925.06
5925.51
5925.96
5926.41
5926.84
5927.23
5927.57
5927.82
5927.96
5927.96
5927.76
5927.33
5926.61
5925.58
5924.2
5922.48
5920.47
5918.3
5916.11
5914.09
5912.42
5911.25
5910.69
5910.77
5911.51
5912.83
5914.61
5916.71
5918.93
5921.1
5923.05
5924.71
5926.02
5926.99
5927.64
5928.02
5928.18
5928.16
5928
5927.74
5927.4
5927.02
5926.6
5926.16
5925.72
5925.28
5924.86
5924.46
5924.08
5923.73
5923.41
5923.13
5922.88
5922.67
5922.49
5922.33
5922.2
5922.08
5921.96
5921.84
5921.71
5921.55
5921.39
5302.92
5303.1
5303.27
5303.39
5303.49
5303.58
5303.67
5303.78
5303.91
5304.08
5304.28
5304.53
5304.82
5305.16
5305.54
5305.97
5306.43
5306.92
5307.44
5307.98
5308.53
5309.07
5309.59
5310.07
5310.48
5310.79
5310.95
5310.91
5310.6
5309.96
5308.9
5307.38
5305.38
5302.94
5300.22
5297.42
5294.82
5292.65
5291.13
5290.4
5290.51
5291.46
5293.18
5295.49
5298.19
5301.01
5303.69
5306.05
5307.95
5309.37
5310.33
5310.91
5311.16
5311.16
5310.97
5310.64
5310.22
5309.75
5309.23
5308.7
5308.17
5307.65
5307.15
5306.67
5306.22
5305.81
5305.43
5305.1
5304.81
5304.57
5304.36
5304.19
5304.06
5303.95
5303.85
5303.75
5303.65
5303.52
5303.34
5303.15
4684.73
4684.94
4685.11
4685.22
4685.29
4685.35
4685.41
4685.49
4685.59
4685.74
4685.93
4686.18
4686.47
4686.83
4687.24
4687.7
4688.21
4688.77
4689.37
4690
4690.66
4691.33
4692
4692.65
4693.26
4693.78
4694.16
4694.34
4694.22
4693.7
4692.66
4691
4688.65
4685.65
4682.17
4678.52
4675.09
4672.24
4670.24
4669.27
4669.43
4670.69
4672.95
4675.99
4679.53
4683.18
4686.58
4689.44
4691.63
4693.14
4694.06
4694.49
4694.55
4694.33
4693.92
4693.39
4692.78
4692.13
4691.48
4690.82
4690.18
4689.57
4688.99
4688.45
4687.95
4687.5
4687.1
4686.75
4686.46
4686.21
4686.02
4685.87
4685.77
4685.69
4685.62
4685.56
4685.48
4685.36
4685.18
4684.97
4066.62
4066.84
4067.01
4067.09
4067.12
4067.13
4067.14
4067.17
4067.24
4067.36
4067.54
4067.78
4068.09
4068.46
4068.9
4069.41
4069.97
4070.6
4071.28
4072.02
4072.8
4073.61
4074.45
4075.3
4076.14
4076.92
4077.59
4078.07
4078.23
4077.94
4077.02
4075.26
4072.5
4068.74
4064.21
4059.37
4054.78
4050.98
4048.33
4047.05
4047.26
4048.94
4051.95
4056.02
4060.73
4065.55
4069.91
4073.43
4075.92
4077.47
4078.24
4078.43
4078.2
4077.69
4077.01
4076.22
4075.39
4074.55
4073.73
4072.94
4072.19
4071.48
4070.82
4070.21
4069.66
4069.16
4068.73
4068.37
4068.06
4067.83
4067.65
4067.53
4067.46
4067.42
4067.4
4067.39
4067.35
4067.26
4067.08
4066.85
3448.6
3448.83
3448.98
3449
3448.96
3448.9
3448.85
3448.82
3448.85
3448.94
3449.1
3449.34
3449.65
3450.05
3450.52
3451.07
3451.7
3452.4
3453.17
3454.02
3454.92
3455.89
3456.92
3458
3459.1
3460.21
3461.25
3462.13
3462.72
3462.81
3462.15
3460.41
3457.22
3452.49
3446.51
3439.97
3433.75
3428.63
3425.11
3423.42
3423.7
3425.95
3429.98
3435.46
3441.82
3448.28
3453.96
3458.28
3461.06
3462.51
3462.97
3462.77
3462.13
3461.23
3460.2
3459.11
3458.02
3456.97
3455.98
3455.05
3454.17
3453.36
3452.62
3451.94
3451.33
3450.79
3450.33
3449.94
3449.63
3449.4
3449.25
3449.16
3449.13
3449.15
3449.2
3449.25
3449.28
3449.24
3449.08
3448.84
2830.74
2830.96
2831.05
2830.98
2830.83
2830.67
2830.52
2830.42
2830.39
2830.45
2830.59
2830.82
2831.14
2831.56
2832.07
2832.67
2833.36
2834.14
2835
2835.96
2837
2838.13
2839.35
2840.67
2842.08
2843.56
2845.07
2846.49
2847.68
2848.39
2848.28
2846.79
2843.22
2837.26
2829.28
2820.3
2811.77
2804.83
2800.16
2797.93
2798.31
2801.31
2806.72
2814.15
2822.85
2831.67
2839.11
2844.39
2847.36
2848.44
2848.33
2847.52
2846.3
2844.89
2843.42
2841.98
2840.61
2839.34
2838.17
2837.09
2836.1
2835.19
2834.36
2833.61
2832.94
2832.36
2831.86
2831.45
2831.14
2830.91
2830.78
2830.73
2830.76
2830.86
2831
2831.15
2831.27
2831.32
2831.21
2830.97
2213.11
2213.28
2213.23
2213.01
2212.71
2212.41
2212.14
2211.94
2211.84
2211.85
2211.96
2212.19
2212.53
2212.97
2213.52
2214.18
2214.93
2215.79
2216.75
2217.81
2218.99
2220.28
2221.71
2223.27
2225.02
2226.95
2229.02
2231.16
2233.2
2234.91
2235.84
2235.15
2231.34
2223.65
2212.64
2199.88
2187.88
2178.36
2172.18
2169.23
2169.7
2173.69
2180.96
2191.19
2203.43
2215.95
2226.1
2232.67
2235.51
2235.68
2234.53
2232.78
2230.76
2228.68
2226.67
2224.81
2223.12
2221.61
2220.27
2219.06
2217.95
2216.94
2216.02
2215.19
2214.46
2213.83
2213.29
2212.86
2212.54
2212.32
2212.21
2212.21
2212.32
2212.51
2212.76
2213.04
2213.31
2213.49
2213.51
2213.31
1595.87
1595.89
1595.55
1595.08
1594.58
1594.1
1593.68
1593.37
1593.19
1593.15
1593.25
1593.48
1593.84
1594.32
1594.92
1595.63
1596.47
1597.41
1598.48
1599.66
1600.99
1602.46
1604.08
1605.91
1608.03
1610.5
1613.32
1616.44
1619.76
1623.13
1626.29
1627.87
1624.27
1613.44
1596.98
1577.72
1560.38
1547.34
1539.44
1535.56
1536.06
1541.22
1550.81
1564.9
1582.74
1601.93
1617.07
1625.83
1627.66
1625.45
1622.24
1618.97
1615.79
1612.8
1610.09
1607.71
1605.65
1603.89
1602.38
1601.04
1599.81
1598.68
1597.66
1596.75
1595.95
1595.25
1594.66
1594.19
1593.85
1593.63
1593.55
1593.59
1593.77
1594.08
1594.47
1594.92
1595.37
1595.79
1596.08
1596.01
979.052
978.849
978.109
977.277
976.477
975.736
975.106
974.633
974.34
974.229
974.295
974.528
974.911
975.427
976.071
976.845
977.75
978.782
979.938
981.234
982.698
984.327
986.101
988.104
990.546
993.581
997.241
1001.54
1006.46
1012.27
1019.51
1026.53
1025.3
1011.57
987.535
959.226
935.978
919.847
911.741
906.762
906.912
913.048
924.182
941.759
965.87
995.167
1016.57
1026.54
1024.88
1017.38
1010.59
1005.23
1000.64
996.589
993.096
990.159
987.738
985.784
984.19
982.779
981.443
980.195
979.072
978.074
977.191
976.427
975.788
975.284
974.923
974.711
974.657
974.77
975.06
975.522
976.129
976.832
977.579
978.345
979.008
979.112
362.415
367.105
369.562
370.527
370.8
370.725
370.52
370.32
370.186
370.147
370.214
370.388
370.663
371.029
371.487
372.049
372.729
373.523
374.43
375.468
376.678
378.052
379.518
381.13
383.085
385.631
388.816
392.741
397.432
403.602
413.05
426.003
434.564
445.247
459.475
464.842
465.111
465.12
465.699
463.949
463.552
465.191
466.041
466.379
464.763
456.327
440.404
431.699
422.683
410.342
401.958
396.46
392.112
388.398
385.307
382.811
380.807
379.233
377.957
376.77
375.617
374.56
373.65
372.874
372.207
371.645
371.188
370.834
370.584
370.434
370.382
370.429
370.566
370.766
370.963
371.021
370.717
369.706
367.182
362.374
21.1383
26.5745
29.6078
31.1645
31.9549
32.329
32.4932
32.5611
32.5877
32.6032
32.6232
32.6565
32.7101
32.7936
32.9089
33.0454
33.2135
33.4222
33.6842
34.0068
34.3937
34.8616
35.464
36.1885
36.7707
37.4161
38.2212
39.4179
41.0881
43.684
47.3356
53.0944
65.6047
114.052
185.828
228.789
254.694
271.779
280.511
282.741
282.139
278.7
268.711
250.396
221.117
169.511
96.8828
60.0795
51.6848
46.5908
43.3316
40.9243
39.3202
38.1593
37.3492
36.7782
36.2328
35.7196
35.1088
34.4861
34.0234
33.6752
33.3921
33.1732
33.0085
32.882
32.7885
32.7202
32.6699
32.639
32.625
32.6157
32.5948
32.5307
32.3684
31.9945
31.2005
29.6356
26.5901
21.1237
-10.5439
-10.5441
-10.5442
-10.5444
-10.5446
-10.5449
-10.5454
-10.546
-10.5466
-10.5473
-10.548
-10.5492
-10.5489
-10.5371
-10.5167
-10.5131
-10.5246
-10.5444
-10.5546
-10.5525
-10.5518
-10.5312
-10.3657
-10.0397
-9.99997
-10.0833
-10.2146
-10.1387
-9.79391
-8.92639
-8.47974
-8.14371
-5.81375
17.0735
69.5386
111.882
134.462
149.991
158.012
156.155
155.506
155.854
147.637
131.843
105.037
55.92
8.23996
-7.25383
-8.19756
-8.35358
-8.88028
-9.81665
-10.1805
-10.2532
-10.1086
-9.89145
-9.83838
-9.88251
-10.1682
-10.4521
-10.5372
-10.5392
-10.5465
-10.5443
-10.5304
-10.5213
-10.517
-10.5188
-10.5311
-10.5417
-10.5432
-10.5424
-10.5422
-10.542
-10.5416
-10.5413
-10.541
-10.5407
-10.5406
-10.5404
-11.0347
-11.0347
-11.0349
-11.035
-11.0353
-11.0356
-11.036
-11.0365
-11.037
-11.0375
-11.0379
-11.0389
-11.0402
-11.0392
-11.0323
-11.0274
-11.0311
-11.039
-11.0418
-11.0411
-11.0418
-11.0394
-11.0136
-10.8779
-10.7449
-10.7018
-10.706
-10.6726
-10.5087
-10.1069
-9.72965
-9.50773
-9.24733
-8.75347
0.968853
15.6135
23.0724
29.2527
32.1454
27.8027
27.5692
31.0136
28.6243
23.0759
13.9378
-2.65511
-9.42919
-9.39745
-9.50692
-9.67441
-10.106
-10.5761
-10.7067
-10.7065
-10.6716
-10.6207
-10.6354
-10.743
-10.9398
-11.0257
-11.0289
-11.028
-11.0302
-11.0307
-11.0269
-11.0228
-11.0217
-11.0251
-11.0288
-11.0306
-11.0311
-11.0316
-11.032
-11.0321
-11.032
-11.0318
-11.0316
-11.0314
-11.0313
-11.0312
-11.5251
-11.5252
-11.5253
-11.5255
-11.5257
-11.526
-11.5265
-11.527
-11.5277
-11.5284
-11.5291
-11.5303
-11.531
-11.5302
-11.5268
-11.5241
-11.5274
-11.5331
-11.5344
-11.5331
-11.533
-11.5338
-11.5308
-11.493
-11.4254
-11.3494
-11.311
-11.3085
-11.3078
-11.1618
-11.0275
-10.9715
-11.0937
-11.4322
-11.5198
-11.4486
-11.4766
-11.5097
-11.5192
-11.5184
-11.5196
-11.5203
-11.5205
-11.5205
-11.5203
-11.578
-11.3693
-10.9986
-10.9006
-10.9605
-11.1408
-11.3555
-11.3261
-11.3015
-11.3019
-11.3174
-11.3695
-11.4456
-11.5084
-11.5198
-11.5188
-11.5207
-11.5238
-11.5234
-11.5184
-11.5144
-11.5133
-11.5148
-11.5191
-11.5232
-11.5245
-11.524
-11.5235
-11.5232
-11.5228
-11.5224
-11.5221
-11.5218
-11.5217
-11.5216
-12.0155
-12.0156
-12.0157
-12.0159
-12.0161
-12.0164
-12.0168
-12.0174
-12.018
-12.0186
-12.0193
-12.0203
-12.0215
-12.0217
-12.0213
-12.021
-12.0236
-12.0267
-12.0259
-12.0242
-12.0236
-12.0242
-12.0246
-12.0252
-12.0174
-11.9789
-11.9626
-11.9679
-11.9882
-12.0108
-11.9908
-11.9957
-12.0278
-12.0075
-11.9937
-11.9723
-11.9754
-12.0016
-12.0083
-12.0085
-12.0093
-12.0095
-12.0097
-12.0098
-12.0098
-12.0097
-11.9982
-11.9927
-11.9648
-11.991
-12.0131
-11.9812
-11.952
-11.9493
-11.9434
-11.9529
-11.99
-12.012
-12.0114
-12.01
-12.0084
-12.0098
-12.0153
-12.0152
-12.0108
-12.0104
-12.0104
-12.0106
-12.0125
-12.0147
-12.0153
-12.0154
-12.0146
-12.0138
-12.0133
-12.0128
-12.0125
-12.0123
-12.0121
-12.012
-12.506
-12.506
-12.5061
-12.5063
-12.5065
-12.5068
-12.5071
-12.5076
-12.5082
-12.5089
-12.5096
-12.5108
-12.5119
-12.5125
-12.5142
-12.5173
-12.5187
-12.5177
-12.5165
-12.515
-12.5139
-12.5142
-12.516
-12.519
-12.5195
-12.5134
-12.5066
-12.5064
-12.501
-12.4994
-12.5
-12.4991
-12.5013
-12.5009
-12.4978
-12.4936
-12.4921
-12.4982
-12.5001
-12.4995
-12.5008
-12.5013
-12.5015
-12.5016
-12.5015
-12.5007
-12.5006
-12.5005
-12.4995
-12.4997
-12.4994
-12.4987
-12.502
-12.5022
-12.5004
-12.5009
-12.5058
-12.5046
-12.5025
-12.5002
-12.4969
-12.4959
-12.5047
-12.5107
-12.5103
-12.5113
-12.5102
-12.5082
-12.5061
-12.5061
-12.507
-12.5065
-12.5054
-12.5044
-12.5038
-12.5033
-12.503
-12.5027
-12.5026
-12.5025
-12.9964
-12.9964
-12.9965
-12.9966
-12.9968
-12.997
-12.9974
-12.9978
-12.9983
-12.9989
-12.9997
-13.0007
-13.0021
-13.0035
-13.0047
-13.0067
-13.0091
-13.0097
-13.0091
-13.0084
-13.0079
-13.0075
-13.0077
-13.0078
-13.0065
-13.0029
-12.9989
-12.9958
-12.9935
-12.9923
-12.9915
-12.9909
-12.9912
-12.9919
-12.9927
-12.9939
-12.9929
-12.9896
-12.9891
-12.9905
-12.9913
-12.9915
-12.9914
-12.9915
-12.9915
-12.9909
-12.9904
-12.9901
-12.9897
-12.9898
-12.9887
-12.9893
-12.9934
-12.9955
-12.9953
-12.9946
-12.9944
-12.9943
-12.9935
-12.9923
-12.99
-12.9872
-12.9932
-13.0052
-13.0113
-13.0121
-13.0126
-13.0092
-13.0031
-12.9995
-12.9987
-12.9974
-12.9962
-12.995
-12.9942
-12.9938
-12.9934
-12.9932
-12.9931
-12.993
-13.4868
-13.4868
-13.4869
-13.487
-13.4871
-13.4873
-13.4875
-13.4879
-13.4883
-13.4888
-13.4894
-13.4904
-13.492
-13.4937
-13.4956
-13.4979
-13.5004
-13.5027
-13.5043
-13.5052
-13.5054
-13.505
-13.5037
-13.5014
-13.4979
-13.4937
-13.4899
-13.4866
-13.484
-13.4826
-13.482
-13.4818
-13.4818
-13.4819
-13.482
-13.4824
-13.483
-13.4827
-13.4815
-13.4817
-13.4819
-13.4821
-13.4823
-13.4822
-13.4819
-13.4814
-13.4811
-13.481
-13.4805
-13.4803
-13.4803
-13.4808
-13.4817
-13.4827
-13.4834
-13.4838
-13.4848
-13.4862
-13.4872
-13.4882
-13.4891
-13.4905
-13.4953
-13.5038
-13.5067
-13.5049
-13.5043
-13.5036
-13.5001
-13.4948
-13.4907
-13.4878
-13.4863
-13.4853
-13.4846
-13.4842
-13.4839
-13.4837
-13.4836
-13.4835
-13.9772
-13.9772
-13.9772
-13.9773
-13.9774
-13.9775
-13.9777
-13.9779
-13.9783
-13.9787
-13.9791
-13.9801
-13.9817
-13.9835
-13.9859
-13.9893
-13.9932
-13.9969
-14.0001
-14.0021
-14.0025
-14.0013
-13.999
-13.9953
-13.9906
-13.9856
-13.9813
-13.9779
-13.9755
-13.9739
-13.973
-13.9726
-13.9725
-13.9726
-13.9727
-13.9729
-13.9732
-13.9733
-13.973
-13.9726
-13.9725
-13.9727
-13.9729
-13.9729
-13.9726
-13.9722
-13.9718
-13.9716
-13.9714
-13.9713
-13.9712
-13.9714
-13.9722
-13.9735
-13.9748
-13.976
-13.9776
-13.9798
-13.9829
-13.987
-13.9917
-13.9963
-14.0008
-14.0041
-14.0026
-13.9984
-13.9963
-13.9951
-13.991
-13.9861
-13.9821
-13.9779
-13.9755
-13.9752
-13.9749
-13.9746
-13.9744
-13.9742
-13.9741
-13.9741
-14.4676
-14.4676
-14.4676
-14.4676
-14.4677
-14.4678
-14.4679
-14.468
-14.4682
-14.4685
-14.4688
-14.4696
-14.4711
-14.4733
-14.4768
-14.4816
-14.4873
-14.4932
-14.4989
-14.503
-14.5046
-14.5031
-14.4988
-14.4924
-14.4852
-14.4786
-14.4733
-14.4694
-14.4667
-14.465
-14.464
-14.4635
-14.4632
-14.463
-14.4631
-14.4634
-14.4638
-14.4641
-14.464
-14.4635
-14.4632
-14.4633
-14.4636
-14.4636
-14.4634
-14.4631
-14.4629
-14.4627
-14.4626
-14.4625
-14.4626
-14.4629
-14.4637
-14.4648
-14.4662
-14.468
-14.4705
-14.4748
-14.4817
-14.4914
-14.5019
-14.5101
-14.5142
-14.5129
-14.5062
-14.4968
-14.489
-14.4836
-14.4788
-14.4741
-14.4712
-14.4681
-14.4657
-14.4652
-14.4652
-14.465
-14.4648
-14.4647
-14.4647
-14.4646
-14.958
-14.958
-14.958
-14.958
-14.958
-14.958
-14.9581
-14.9581
-14.9582
-14.9583
-14.9585
-14.9591
-14.9605
-14.9635
-14.9683
-14.975
-14.9833
-14.9928
-15.0026
-15.0104
-15.0141
-15.0124
-15.0055
-14.9949
-14.9834
-14.9734
-14.966
-14.9612
-14.9582
-14.9562
-14.9551
-14.9544
-14.954
-14.9538
-14.9537
-14.9539
-14.9541
-14.9545
-14.9547
-14.9544
-14.9539
-14.9541
-14.9543
-14.9544
-14.9542
-14.954
-14.9539
-14.9538
-14.9538
-14.9538
-14.954
-14.9545
-14.9553
-14.9566
-14.9584
-14.961
-14.965
-14.9723
-14.9848
-15.0023
-15.0205
-15.0335
-15.0375
-15.0317
-15.0177
-14.9998
-14.9832
-14.9713
-14.9639
-14.9598
-14.9596
-14.9584
-14.9563
-14.9554
-14.9555
-14.9555
-14.9554
-14.9553
-14.9553
-14.9553
-15.4484
-15.4484
-15.4484
-15.4484
-15.4484
-15.4483
-15.4483
-15.4483
-15.4482
-15.4482
-15.4483
-15.4486
-15.4501
-15.4539
-15.4602
-15.4694
-15.4814
-15.4963
-15.5121
-15.5254
-15.532
-15.5301
-15.5197
-15.5034
-15.4858
-15.4706
-15.4597
-15.4532
-15.4496
-15.4475
-15.4461
-15.4454
-15.4449
-15.4446
-15.4445
-15.4446
-15.4448
-15.4451
-15.4454
-15.4452
-15.4448
-15.4449
-15.4451
-15.4451
-15.4451
-15.445
-15.445
-15.445
-15.445
-15.4452
-15.4455
-15.4461
-15.4471
-15.4486
-15.4509
-15.4542
-15.46
-15.4709
-15.4898
-15.5159
-15.5421
-15.5598
-15.564
-15.5537
-15.5317
-15.5045
-15.4788
-15.4596
-15.4484
-15.4447
-15.4477
-15.4488
-15.4467
-15.4457
-15.446
-15.446
-15.446
-15.446
-15.446
-15.446
-15.9389
-15.9389
-15.9389
-15.9388
-15.9388
-15.9387
-15.9386
-15.9385
-15.9384
-15.9384
-15.9383
-15.9385
-15.94
-15.9444
-15.9524
-15.9642
-15.9807
-16.0015
-16.0238
-16.0426
-16.052
-16.0498
-16.0359
-16.0139
-15.9901
-15.9696
-15.9543
-15.9453
-15.9411
-15.9387
-15.9372
-15.9364
-15.9359
-15.9356
-15.9354
-15.9354
-15.9355
-15.9358
-15.936
-15.936
-15.9357
-15.9357
-15.9359
-15.936
-15.936
-15.936
-15.936
-15.9361
-15.9363
-15.9366
-15.937
-15.9377
-15.9389
-15.9407
-15.9433
-15.9474
-15.9546
-15.9685
-15.9926
-16.0253
-16.0574
-16.0784
-16.0828
-16.0695
-16.0416
-16.007
-15.974
-15.9487
-15.9332
-15.9313
-15.9384
-15.9399
-15.9375
-15.9362
-15.9366
-15.9367
-15.9367
-15.9367
-15.9367
-15.9367
-16.4294
-16.4294
-16.4294
-16.4293
-16.4293
-16.4292
-16.4291
-16.4289
-16.4288
-16.4287
-16.4286
-16.4288
-16.4302
-16.435
-16.4442
-16.4582
-16.4782
-16.5036
-16.5309
-16.5534
-16.5643
-16.5613
-16.5449
-16.5191
-16.4909
-16.4668
-16.4486
-16.4374
-16.4323
-16.4298
-16.4283
-16.4274
-16.4269
-16.4266
-16.4264
-16.4263
-16.4264
-16.4265
-16.4267
-16.4268
-16.4266
-16.4266
-16.4267
-16.4268
-16.4269
-16.427
-16.4271
-16.4272
-16.4275
-16.4279
-16.4284
-16.4293
-16.4306
-16.4325
-16.4354
-16.4398
-16.4475
-16.4625
-16.4887
-16.5242
-16.5586
-16.5806
-16.5852
-16.571
-16.5408
-16.5032
-16.4672
-16.4386
-16.4214
-16.4247
-16.4331
-16.4314
-16.4284
-16.4273
-16.4275
-16.4276
-16.4276
-16.4276
-16.4275
-16.4275
-16.9199
-16.9199
-16.9199
-16.9198
-16.9198
-16.9197
-16.9196
-16.9194
-16.9193
-16.9193
-16.9193
-16.9194
-16.9207
-16.9253
-16.9351
-16.9501
-16.9712
-16.998
-17.0268
-17.0502
-17.0614
-17.0577
-17.0405
-17.0137
-16.9838
-16.9588
-16.9405
-16.9287
-16.9231
-16.9208
-16.9194
-16.9185
-16.9179
-16.9176
-16.9174
-16.9173
-16.9173
-16.9174
-16.9175
-16.9176
-16.9175
-16.9175
-16.9176
-16.9177
-16.9178
-16.9179
-16.9181
-16.9183
-16.9186
-16.9191
-16.9197
-16.9207
-16.922
-16.924
-16.9269
-16.9312
-16.9384
-16.9522
-16.9768
-17.0106
-17.0437
-17.0647
-17.0692
-17.0556
-17.0269
-16.9909
-16.9569
-16.9276
-16.9186
-16.9252
-16.927
-16.9226
-16.9197
-16.9187
-16.9186
-16.9185
-16.9185
-16.9184
-16.9184
-16.9184
-17.4105
-17.4105
-17.4105
-17.4104
-17.4103
-17.4102
-17.4101
-17.41
-17.41
-17.4099
-17.41
-17.4103
-17.4115
-17.415
-17.4241
-17.4389
-17.4589
-17.4839
-17.5104
-17.5319
-17.5419
-17.5383
-17.5222
-17.4973
-17.4696
-17.4461
-17.4296
-17.419
-17.4137
-17.4117
-17.4104
-17.4095
-17.409
-17.4086
-17.4084
-17.4083
-17.4082
-17.4082
-17.4083
-17.4084
-17.4084
-17.4084
-17.4085
-17.4086
-17.4087
-17.4089
-17.4091
-17.4094
-17.4097
-17.4102
-17.4109
-17.4119
-17.4132
-17.4151
-17.4179
-17.4219
-17.4277
-17.4389
-17.4585
-17.4862
-17.5144
-17.5329
-17.5368
-17.5251
-17.5005
-17.4706
-17.4438
-17.4226
-17.4215
-17.4218
-17.4173
-17.4134
-17.4112
-17.4103
-17.4098
-17.4096
-17.4094
-17.4094
-17.4093
-17.4093
-17.9011
-17.9011
-17.901
-17.901
-17.9009
-17.9009
-17.9008
-17.9007
-17.9007
-17.9007
-17.9009
-17.9012
-17.9022
-17.9047
-17.9116
-17.9241
-17.9414
-17.9623
-17.9837
-18.0009
-18.0091
-18.0064
-17.9929
-17.972
-17.9492
-17.9303
-17.9171
-17.9086
-17.9042
-17.9024
-17.9013
-17.9005
-17.9
-17.8997
-17.8994
-17.8993
-17.8992
-17.8991
-17.8992
-17.8992
-17.8993
-17.8993
-17.8994
-17.8995
-17.8996
-17.8998
-17.9
-17.9003
-17.9007
-17.9013
-17.902
-17.9029
-17.9042
-17.906
-17.9085
-17.9119
-17.9166
-17.9244
-17.9375
-17.9562
-17.9763
-17.9903
-17.9931
-17.984
-17.9657
-17.9448
-17.9285
-17.9193
-17.9152
-17.9103
-17.9065
-17.9042
-17.9026
-17.9016
-17.901
-17.9006
-17.9004
-17.9003
-17.9002
-17.9001
-18.3917
-18.3917
-18.3916
-18.3916
-18.3916
-18.3915
-18.3915
-18.3914
-18.3914
-18.3915
-18.3917
-18.3921
-18.393
-18.3947
-18.399
-18.4076
-18.4206
-18.4363
-18.4522
-18.465
-18.4713
-18.4688
-18.4585
-18.443
-18.4269
-18.4137
-18.4042
-18.398
-18.3947
-18.3932
-18.3923
-18.3916
-18.391
-18.3907
-18.3904
-18.3902
-18.3901
-18.39
-18.3901
-18.3901
-18.3901
-18.3902
-18.3902
-18.3903
-18.3905
-18.3907
-18.3909
-18.3912
-18.3917
-18.3922
-18.3929
-18.3938
-18.395
-18.3966
-18.3988
-18.4016
-18.4054
-18.4107
-18.4185
-18.4288
-18.4398
-18.4472
-18.448
-18.442
-18.4309
-18.4196
-18.4114
-18.408
-18.4031
-18.3987
-18.3962
-18.395
-18.3936
-18.3926
-18.392
-18.3916
-18.3913
-18.3911
-18.3911
-18.391
-18.8823
-18.8823
-18.8823
-18.8822
-18.8822
-18.8822
-18.8822
-18.8822
-18.8822
-18.8823
-18.8826
-18.883
-18.8838
-18.8851
-18.8876
-18.8926
-18.9007
-18.9109
-18.9213
-18.9296
-18.9334
-18.932
-18.9258
-18.9164
-18.9066
-18.8982
-18.8919
-18.8877
-18.8853
-18.8841
-18.8832
-18.8825
-18.882
-18.8817
-18.8814
-18.8812
-18.881
-18.881
-18.8809
-18.8809
-18.881
-18.881
-18.881
-18.8812
-18.8813
-18.8815
-18.8818
-18.8821
-18.8825
-18.883
-18.8837
-18.8845
-18.8856
-18.887
-18.8889
-18.8912
-18.8943
-18.8982
-18.903
-18.9085
-18.9135
-18.9162
-18.9154
-18.9118
-18.9062
-18.9011
-18.8975
-18.895
-18.8912
-18.8885
-18.887
-18.8856
-18.8843
-18.8834
-18.8828
-18.8824
-18.8821
-18.882
-18.8819
-18.8817
-19.3729
-19.3729
-19.3729
-19.3729
-19.3729
-19.3729
-19.3729
-19.3729
-19.373
-19.3732
-19.3734
-19.3739
-19.3746
-19.3756
-19.3773
-19.3801
-19.3845
-19.3903
-19.3961
-19.4006
-19.403
-19.4036
-19.4008
-19.3957
-19.39
-19.3848
-19.3807
-19.3778
-19.3761
-19.375
-19.3742
-19.3735
-19.373
-19.3726
-19.3723
-19.3721
-19.372
-19.3718
-19.3718
-19.3718
-19.3718
-19.3718
-19.3719
-19.372
-19.3721
-19.3723
-19.3726
-19.3729
-19.3733
-19.3738
-19.3744
-19.3752
-19.3761
-19.3773
-19.3789
-19.3808
-19.3831
-19.3861
-19.3895
-19.393
-19.3959
-19.3973
-19.3967
-19.3945
-19.3914
-19.3885
-19.3862
-19.3838
-19.3813
-19.3793
-19.3775
-19.376
-19.3749
-19.3741
-19.3736
-19.3732
-19.3729
-19.3727
-19.3726
-19.3725
-19.8635
-19.8635
-19.8635
-19.8635
-19.8635
-19.8635
-19.8636
-19.8637
-19.8638
-19.864
-19.8643
-19.8647
-19.8654
-19.8663
-19.8676
-19.8694
-19.872
-19.8752
-19.8786
-19.8813
-19.8833
-19.8839
-19.8825
-19.8797
-19.8764
-19.873
-19.8702
-19.8682
-19.8669
-19.8659
-19.8651
-19.8644
-19.8639
-19.8635
-19.8632
-19.863
-19.8628
-19.8627
-19.8626
-19.8626
-19.8626
-19.8626
-19.8627
-19.8628
-19.8629
-19.8631
-19.8634
-19.8637
-19.864
-19.8645
-19.865
-19.8657
-19.8666
-19.8676
-19.8688
-19.8703
-19.8721
-19.8742
-19.8766
-19.879
-19.881
-19.8821
-19.8821
-19.8809
-19.879
-19.877
-19.8752
-19.8731
-19.871
-19.8691
-19.8675
-19.8663
-19.8654
-19.8647
-19.8642
-19.8639
-19.8636
-19.8634
-19.8633
-19.8632
-20.3541
-20.3541
-20.3541
-20.3542
-20.3542
-20.3542
-20.3543
-20.3544
-20.3545
-20.3547
-20.3551
-20.3555
-20.3561
-20.357
-20.358
-20.3594
-20.3612
-20.3634
-20.3657
-20.3678
-20.3688
-20.3689
-20.3681
-20.3665
-20.3643
-20.3621
-20.3603
-20.3588
-20.3576
-20.3567
-20.3559
-20.3553
-20.3548
-20.3544
-20.3541
-20.3539
-20.3537
-20.3535
-20.3535
-20.3534
-20.3534
-20.3534
-20.3534
-20.3535
-20.3537
-20.3539
-20.3541
-20.3544
-20.3547
-20.3551
-20.3556
-20.3562
-20.357
-20.3578
-20.3588
-20.36
-20.3614
-20.3629
-20.3645
-20.366
-20.3672
-20.3679
-20.3679
-20.3673
-20.3662
-20.3648
-20.3633
-20.3617
-20.3601
-20.3587
-20.3575
-20.3566
-20.3558
-20.3553
-20.3548
-20.3545
-20.3543
-20.3541
-20.354
-20.3539
-20.8447
-20.8448
-20.8448
-20.8448
-20.8448
-20.8449
-20.845
-20.8451
-20.8452
-20.8455
-20.8458
-20.8462
-20.8468
-20.8475
-20.8485
-20.8496
-20.851
-20.8525
-20.8541
-20.8556
-20.8565
-20.8566
-20.856
-20.8548
-20.8533
-20.8519
-20.8505
-20.8493
-20.8482
-20.8473
-20.8466
-20.8461
-20.8456
-20.8452
-20.8449
-20.8447
-20.8445
-20.8443
-20.8443
-20.8442
-20.8442
-20.8442
-20.8442
-20.8443
-20.8444
-20.8446
-20.8448
-20.8451
-20.8454
-20.8457
-20.8462
-20.8467
-20.8473
-20.848
-20.8488
-20.8498
-20.8508
-20.8519
-20.853
-20.854
-20.8548
-20.8552
-20.8551
-20.8547
-20.8539
-20.853
-20.8518
-20.8507
-20.8495
-20.8485
-20.8476
-20.8469
-20.8463
-20.8458
-20.8454
-20.8451
-20.8449
-20.8447
-20.8446
-20.8446
-21.3354
-21.3354
-21.3354
-21.3354
-21.3355
-21.3355
-21.3356
-21.3358
-21.3359
-21.3362
-21.3365
-21.3369
-21.3374
-21.3381
-21.3389
-21.3398
-21.3409
-21.3421
-21.3433
-21.3442
-21.3448
-21.345
-21.3446
-21.3439
-21.3429
-21.3417
-21.3406
-21.3396
-21.3387
-21.3379