/*--------------------------------*- C++ -*----------------------------------*\
| =========                 |                                                 |
| \\      /  F ield         | OpenFOAM: The Open Source CFD Toolbox           |
|  \\    /   O peration     | Version:  2412                                  |
|   \\  /    A nd           | Website:  www.openfoam.com                      |
|    \\/     M anipulation  |                                                 |
\*---------------------------------------------------------------------------*/
FoamFile
{
    version     2.0;
    format      ascii;
    arch        "LSB;label=32;scalar=64";
    class       surfaceScalarField;
    location    "7.45";
    object      alphaPhi0.molasses;
}
// * * * * * * * * * * * * * * * * * * * * * * * * * * * * * * * * * * * * * //

dimensions      [0 3 -1 0 0 0 0];

oriented        oriented;

internalField   nonuniform List<scalar> 
12640
(
7.93162e-09
-8.0708e-09
1.83799e-08
-7.74245e-09
2.03198e-08
-1.50343e-10
1.23126e-08
9.98058e-09
-5.93708e-09
2.0288e-08
-3.3657e-08
2.97496e-08
-6.95553e-08
3.79206e-08
-1.12264e-07
4.47127e-08
-1.60536e-07
5.02456e-08
-2.13338e-07
5.47374e-08
-2.69877e-07
5.84389e-08
-3.29605e-07
6.15932e-08
-3.92187e-07
6.4413e-08
-4.57457e-07
6.70671e-08
-5.25373e-07
6.96731e-08
-5.95955e-07
7.22916e-08
-6.69223e-07
7.4924e-08
-7.45133e-07
7.75068e-08
-8.23512e-07
7.99113e-08
-9.03984e-07
8.1935e-08
-9.85899e-07
8.33084e-08
-1.06826e-06
8.36843e-08
-1.14967e-06
8.26621e-08
-1.22827e-06
7.97785e-08
-1.30171e-06
7.45637e-08
-1.36718e-06
6.65339e-08
-1.42144e-06
5.52902e-08
-1.46097e-06
4.05046e-08
-1.48206e-06
2.20583e-08
-1.48112e-06
-3.07574e-12
-1.45487e-06
-2.53135e-08
-1.40065e-06
-5.32957e-08
-1.31669e-06
-8.3019e-08
-1.20234e-06
-1.13395e-07
-1.0583e-06
-1.43071e-07
-8.86613e-07
-1.70698e-07
-6.90769e-07
-1.94848e-07
-4.75418e-07
-2.14306e-07
-2.46405e-07
-2.27984e-07
-1.0133e-08
-2.35174e-07
2.26371e-07
-2.35441e-07
4.56317e-07
-2.28798e-07
6.72999e-07
-2.15585e-07
8.70728e-07
-1.9654e-07
1.04453e-06
-1.72676e-07
1.19099e-06
-1.45242e-07
1.30776e-06
-1.15622e-07
1.39421e-06
-8.52056e-08
1.45074e-06
-5.53386e-08
1.47918e-06
-2.71531e-08
1.48203e-06
-1.59477e-09
1.46261e-06
2.07234e-08
1.42444e-06
3.94202e-08
1.37126e-06
5.44351e-08
1.30656e-06
6.58826e-08
1.23364e-06
7.40918e-08
1.15531e-06
7.94624e-08
1.07399e-06
8.24825e-08
9.91554e-07
8.36219e-08
9.09464e-07
8.33458e-08
8.28742e-07
8.20532e-08
7.5007e-07
8.0093e-08
6.7384e-07
7.77346e-08
6.00241e-07
7.51837e-08
5.29321e-07
7.25718e-08
4.61068e-07
6.99663e-08
3.95465e-07
6.73685e-08
3.32558e-07
6.4719e-08
2.72511e-07
6.19002e-08
2.15656e-07
5.87422e-08
1.6254e-07
5.50307e-08
1.13953e-07
5.05216e-08
7.0934e-08
4.49638e-08
3.47399e-08
3.81389e-08
6.74325e-09
2.99283e-08
-1.1775e-08
2.0422e-08
-1.99903e-08
1.00786e-08
-1.81556e-08
-4.11156e-12
-8.96229e-09
-7.36461e-09
-7.15312e-09
8.65895e-09
-1.47906e-08
1.3845e-08
-7.71511e-09
-8.21867e-10
1.85332e-08
-3.90214e-08
5.21432e-08
-1.01624e-07
8.68257e-08
-1.87275e-07
1.19257e-07
-2.93415e-07
1.47851e-07
-4.17123e-07
1.72148e-07
-5.55593e-07
1.92375e-07
-7.06392e-07
2.09128e-07
-8.67581e-07
2.23155e-07
-1.03774e-06
2.35214e-07
-1.21592e-06
2.45986e-07
-1.40154e-06
2.56017e-07
-1.5943e-06
2.65682e-07
-1.79402e-06
2.75165e-07
-2.00046e-06
2.84433e-07
-2.21321e-06
2.93232e-07
-2.4315e-06
3.01065e-07
-2.654e-06
3.07189e-07
-2.87866e-06
3.106e-07
-3.10251e-06
3.10065e-07
-3.32154e-06
3.04111e-07
-3.53057e-06
2.91134e-07
-3.7232e-06
2.69419e-07
-3.89186e-06
2.37352e-07
-4.02795e-06
1.93468e-07
-4.12215e-06
1.36785e-07
-4.16487e-06
6.68191e-08
-4.14679e-06
-1.6015e-08
-4.05951e-06
-1.10511e-07
-3.89635e-06
-2.14311e-07
-3.65295e-06
-3.24243e-07
-3.32798e-06
-4.36106e-07
-2.92348e-06
-5.45252e-07
-2.44524e-06
-6.46555e-07
-1.90252e-06
-7.35105e-07
-1.30806e-06
-8.06284e-07
-6.7707e-07
-8.56377e-07
-2.7061e-08
-8.82641e-07
6.23829e-07
-8.83659e-07
1.25695e-06
-8.59369e-07
1.85511e-06
-8.11066e-07
2.40245e-06
-7.41391e-07
2.88637e-06
-6.53971e-07
3.29695e-06
-5.53389e-07
3.62842e-06
-4.44532e-07
3.87816e-06
-3.32569e-07
4.04751e-06
-2.22193e-07
4.14041e-06
-1.17704e-07
4.16359e-06
-2.2343e-08
4.12521e-06
6.14231e-08
4.03465e-06
1.32344e-07
3.90142e-06
1.89936e-07
3.73494e-06
2.34673e-07
3.5438e-06
2.67507e-07
3.33571e-06
2.89911e-07
3.11712e-06
3.03478e-07
2.89335e-06
3.09939e-07
2.66847e-06
3.1089e-07
2.44553e-06
3.07813e-07
2.22663e-06
3.01943e-07
2.01316e-06
2.94297e-07
1.80592e-06
2.85626e-07
1.60536e-06
2.76441e-07
1.41172e-06
2.67006e-07
1.22519e-06
2.57362e-07
1.04611e-06
2.47334e-07
8.7504e-07
2.36548e-07
7.12946e-07
2.24459e-07
5.61248e-07
2.10384e-07
4.21891e-07
1.93564e-07
2.97316e-07
1.73251e-07
1.90354e-07
1.48847e-07
1.03948e-07
1.20124e-07
4.06695e-08
8.75364e-08
1.94771e-09
5.26699e-08
-1.30092e-08
1.88648e-08
-8.95891e-09
-7.55613e-09
-1.46147e-08
1.377e-09
-1.46495e-08
-1.23917e-08
1.07009e-08
-5.61368e-08
6.58846e-08
-1.33554e-07
1.33162e-07
-2.45437e-07
2.02317e-07
-3.90066e-07
2.67449e-07
-5.64224e-07
3.25532e-07
-7.64138e-07
3.75542e-07
-9.86085e-07
4.17751e-07
-1.22676e-06
4.53177e-07
-1.48346e-06
4.83177e-07
-1.75415e-06
5.09165e-07
-2.0374e-06
5.32432e-07
-2.33226e-06
5.54015e-07
-2.63813e-06
5.7462e-07
-2.95454e-06
5.94562e-07
-3.28095e-06
6.13733e-07
-3.61647e-06
6.31554e-07
-3.95968e-06
6.46962e-07
-4.30828e-06
6.58369e-07
-4.65888e-06
6.63681e-07
-5.00672e-06
6.60276e-07
-5.34546e-06
6.45125e-07
-5.66697e-06
6.1482e-07
-5.96131e-06
5.65879e-07
-6.21677e-06
4.94851e-07
-6.42013e-06
3.98853e-07
-6.55709e-06
2.75705e-07
-6.61293e-06
1.24653e-07
-6.57338e-06
-5.36107e-08
-6.42565e-06
-2.56222e-07
-6.15949e-06
-4.78472e-07
-5.76834e-06
-7.13308e-07
-5.2502e-06
-9.5217e-07
-4.60843e-06
-1.18488e-06
-3.85193e-06
-1.40089e-06
-2.99536e-06
-1.58949e-06
-2.05822e-06
-1.74117e-06
-1.06457e-06
-1.8478e-06
-4.1119e-08
-1.90374e-06
9.83357e-07
-1.90587e-06
1.98053e-06
-1.8541e-06
2.92299e-06
-1.75121e-06
3.78683e-06
-1.60271e-06
4.5517e-06
-1.41649e-06
5.20287e-06
-1.20203e-06
5.73066e-06
-9.6999e-07
6.13153e-06
-7.30969e-07
6.4069e-06
-4.95273e-07
6.56322e-06
-2.71601e-07
6.61034e-06
-6.72085e-08
6.56108e-06
1.13051e-07
6.42956e-06
2.66136e-07
6.23057e-06
3.91273e-07
5.97841e-06
4.89114e-07
5.68646e-06
5.61816e-07
5.36646e-06
6.12222e-07
5.02856e-06
6.43794e-07
4.68093e-06
6.60001e-07
4.33009e-06
6.64274e-07
3.9809e-06
6.59647e-07
3.63684e-06
6.4877e-07
3.30027e-06
6.33752e-07
2.97268e-06
6.16207e-07
2.65498e-06
5.97219e-07
2.34777e-06
5.77387e-07
2.05152e-06
5.56837e-07
1.76687e-06
5.35265e-07
1.49477e-06
5.11971e-07
1.23666e-06
4.8592e-07
9.94594e-07
4.55821e-07
7.71287e-07
4.20256e-07
5.70063e-07
3.77865e-07
3.94671e-07
3.27628e-07
2.48917e-07
2.69268e-07
1.36042e-07
2.03803e-07
5.78267e-08
1.34264e-07
1.35815e-08
6.65728e-08
-1.24645e-09
1.09662e-08
-1.45775e-08
-8.84802e-09
-4.24602e-09
-4.67591e-08
5.31643e-08
-1.24849e-07
1.47525e-07
-2.45237e-07
2.57086e-07
-4.07833e-07
3.68458e-07
-6.10328e-07
4.73447e-07
-8.48974e-07
5.67641e-07
-1.11946e-06
6.49443e-07
-1.41752e-06
7.1917e-07
-1.73934e-06
7.78292e-07
-2.08177e-06
8.28833e-07
-2.44239e-06
8.72943e-07
-2.81946e-06
9.12597e-07
-3.21182e-06
9.49384e-07
-3.61864e-06
9.84374e-07
-4.03925e-06
1.01801e-06
-4.47282e-06
1.05006e-06
-4.91812e-06
1.0795e-06
-5.37315e-06
1.10453e-06
-5.83482e-06
1.12248e-06
-6.29863e-06
1.1298e-06
-6.75827e-06
1.12215e-06
-7.20539e-06
1.09437e-06
-7.62933e-06
1.04082e-06
-8.01699e-06
9.55511e-07
-8.35297e-06
8.32782e-07
-8.61978e-06
6.67539e-07
-8.79848e-06
4.56314e-07
-8.86947e-06
1.97485e-07
-8.81369e-06
-1.07483e-07
-8.61389e-06
-4.54179e-07
-8.25622e-06
-8.34205e-07
-7.73159e-06
-1.23605e-06
-7.03716e-06
-1.64465e-06
-6.17705e-06
-2.04308e-06
-5.16318e-06
-2.41281e-06
-4.01477e-06
-2.73593e-06
-2.75835e-06
-2.99566e-06
-1.42573e-06
-3.17842e-06
-5.33511e-08
-3.27418e-06
1.3207e-06
-3.27783e-06
2.65764e-06
-3.18905e-06
3.92134e-06
-3.01269e-06
5.079e-06
-2.7583e-06
6.10407e-06
-2.43925e-06
6.97628e-06
-2.07212e-06
7.68345e-06
-1.67482e-06
8.22057e-06
-1.26598e-06
8.59026e-06
-8.62667e-07
8.80098e-06
-4.80256e-07
8.86654e-06
-1.30508e-07
8.80387e-06
1.77845e-07
8.63211e-06
4.40183e-07
8.37081e-06
6.548e-07
8.03904e-06
8.23213e-07
7.65436e-06
9.48776e-07
7.23236e-06
1.03657e-06
6.78626e-06
1.09222e-06
6.32688e-06
1.12177e-06
5.86275e-06
1.13084e-06
5.4003e-06
1.12464e-06
4.94414e-06
1.10755e-06
4.49748e-06
1.08317e-06
4.06236e-06
1.05419e-06
3.64009e-06
1.02246e-06
3.23153e-06
9.89005e-07
2.83738e-06
9.54113e-07
2.45849e-06
9.17347e-07
2.09604e-06
8.77652e-07
1.75181e-06
8.33439e-07
1.4282e-06
7.82737e-07
1.12841e-06
7.2339e-07
8.56271e-07
6.5337e-07
6.16075e-07
5.712e-07
4.12177e-07
4.7655e-07
2.48356e-07
3.71005e-07
1.26972e-07
2.58975e-07
4.81776e-08
1.48691e-07
9.17226e-09
5.36154e-08
-4.20785e-09
-1.93122e-08
1.66048e-08
-8.20985e-08
1.20411e-07
-1.9521e-07
2.6413e-07
-3.5843e-07
4.23773e-07
-5.70239e-07
5.83748e-07
-8.27443e-07
7.34095e-07
-1.1257e-06
8.69308e-07
-1.46025e-06
9.87366e-07
-1.82649e-06
1.08872e-06
-2.22032e-06
1.17537e-06
-2.63836e-06
1.25006e-06
-3.07804e-06
1.31574e-06
-3.53753e-06
1.37511e-06
-4.01556e-06
1.43037e-06
-4.51129e-06
1.48297e-06
-5.02397e-06
1.53347e-06
-5.55269e-06
1.58146e-06
-6.09602e-06
1.62541e-06
-6.65164e-06
1.66262e-06
-7.21593e-06
1.68913e-06
-7.78357e-06
1.69972e-06
-8.34707e-06
1.68782e-06
-8.89643e-06
1.64585e-06
-9.41879e-06
1.56519e-06
-9.89827e-06
1.437e-06
-1.0316e-05
1.2524e-06
-1.06504e-05
1.00388e-06
-1.08778e-05
6.85606e-07
-1.09736e-05
2.95308e-07
-1.09137e-05
-1.65588e-07
-1.06758e-05
-6.90104e-07
-1.02418e-05
-1.26635e-06
-9.59957e-06
-1.87631e-06
-8.74456e-06
-2.49779e-06
-7.6815e-06
-3.10425e-06
-6.42449e-06
-3.66797e-06
-4.99785e-06
-4.16075e-06
-3.4343e-06
-4.55736e-06
-1.77461e-06
-4.83634e-06
-6.4214e-08
-4.98271e-06
1.64788e-06
-4.9882e-06
3.31332e-06
-4.85254e-06
4.88555e-06
-4.58315e-06
6.32401e-06
-4.19463e-06
7.59456e-06
-3.70791e-06
8.67277e-06
-3.14807e-06
9.54316e-06
-2.54323e-06
1.02008e-05
-1.92128e-06
1.06492e-05
-1.30905e-06
1.09003e-05
-7.29102e-07
1.09718e-05
-1.9995e-07
1.08858e-05
2.6614e-07
1.06664e-05
6.61743e-07
1.03384e-05
9.85182e-07
9.9254e-06
1.23847e-06
9.44927e-06
1.42732e-06
8.929e-06
1.55919e-06
8.3807e-06
1.64295e-06
7.81738e-06
1.68747e-06
7.24923e-06
1.70142e-06
6.6839e-06
1.69245e-06
6.12686e-06
1.66717e-06
5.58183e-06
1.63087e-06
5.05123e-06
1.58758e-06
4.53653e-06
1.54002e-06
4.03871e-06
1.48979e-06
3.55853e-06
1.43733e-06
3.09688e-06
1.3821e-06
2.65504e-06
1.32265e-06
2.23485e-06
1.25682e-06
1.83893e-06
1.1819e-06
1.47066e-06
1.09493e-06
1.13418e-06
9.93154e-07
8.34116e-07
8.74574e-07
5.75281e-07
7.38715e-07
3.62052e-07
5.87577e-07
1.9767e-07
4.26658e-07
8.36787e-08
2.65956e-07
1.97459e-08
1.21187e-07
1.66899e-08
-2.88053e-08
4.68944e-08
-1.1482e-07
2.10726e-07
-2.60888e-07
4.13591e-07
-4.64293e-07
6.30539e-07
-7.21803e-07
8.44636e-07
-1.02911e-06
1.04476e-06
-1.38116e-06
1.22469e-06
-1.77276e-06
1.38226e-06
-2.199e-06
1.51823e-06
-2.65567e-06
1.63523e-06
-3.13933e-06
1.73686e-06
-3.64743e-06
1.82691e-06
-4.17822e-06
1.90889e-06
-4.73057e-06
1.98563e-06
-5.30376e-06
2.05898e-06
-5.89722e-06
2.12966e-06
-6.51015e-06
2.19702e-06
-7.1412e-06
2.259e-06
-7.78802e-06
2.31188e-06
-8.4468e-06
2.35026e-06
-9.11174e-06
2.36691e-06
-9.77459e-06
2.35287e-06
-1.04241e-05
2.29741e-06
-1.10455e-05
2.18869e-06
-1.16204e-05
2.0139e-06
-1.21266e-05
1.76069e-06
-1.25385e-05
1.41766e-06
-1.28274e-05
9.76636e-07
-1.29634e-05
4.33171e-07
-1.29163e-05
-2.10666e-07
-1.26581e-05
-9.46444e-07
-1.21655e-05
-1.75695e-06
-1.14221e-05
-2.61791e-06
-1.04211e-05
-3.49686e-06
-9.16663e-06
-4.35696e-06
-7.67543e-06
-5.1574e-06
-5.97597e-06
-5.85851e-06
-4.10867e-06
-6.42303e-06
-2.12268e-06
-6.82074e-06
-7.47044e-08
-7.02926e-06
1.97584e-06
-7.03713e-06
3.96838e-06
-6.84373e-06
5.84669e-06
-6.45975e-06
7.56004e-06
-5.90653e-06
9.06796e-06
-5.21387e-06
1.03402e-05
-4.41867e-06
1.13598e-05
-3.56062e-06
1.21212e-05
-2.68076e-06
1.26308e-05
-1.81636e-06
1.29041e-05
-1.0005e-06
1.29645e-05
-2.58015e-07
1.28395e-05
3.93182e-07
1.25595e-05
9.44197e-07
1.21544e-05
1.39245e-06
1.16532e-05
1.74215e-06
1.10817e-05
2.00123e-06
1.04624e-05
2.18108e-06
9.81375e-06
2.294e-06
9.15084e-06
2.35288e-06
8.48509e-06
2.36963e-06
7.82495e-06
2.3551e-06
7.17636e-06
2.3183e-06
6.54326e-06
2.2666e-06
5.92809e-06
2.20545e-06
5.33227e-06
2.13863e-06
4.75665e-06
2.06829e-06
4.20184e-06
1.99509e-06
3.66858e-06
1.91836e-06
3.15802e-06
1.83628e-06
2.67195e-06
1.74601e-06
2.21292e-06
1.64407e-06
1.7844e-06
1.52664e-06
1.39065e-06
1.39013e-06
1.03658e-06
1.23187e-06
7.27448e-07
1.05109e-06
4.68344e-07
8.49938e-07
2.63626e-07
6.34599e-07
1.16524e-07
4.16249e-07
2.93219e-08
2.11981e-07
4.71393e-08
-3.68688e-08
8.52235e-08
-1.43348e-07
3.21331e-07
-3.18909e-07
5.92449e-07
-5.58512e-07
8.73398e-07
-8.57135e-07
1.14654e-06
-1.20922e-06
1.4001e-06
-1.60888e-06
1.6276e-06
-2.05041e-06
1.82702e-06
-2.52869e-06
1.9997e-06
-3.0394e-06
2.1491e-06
-3.57921e-06
2.27977e-06
-4.14576e-06
2.39648e-06
-4.73753e-06
2.50361e-06
-5.35371e-06
2.60468e-06
-5.99395e-06
2.70201e-06
-6.65804e-06
2.79643e-06
-7.34557e-06
2.88716e-06
-8.05555e-06
2.97149e-06
-8.78593e-06
3.04469e-06
-9.53304e-06
3.09971e-06
-1.02911e-05
3.12722e-06
-1.10513e-05
3.11531e-06
-1.18017e-05
3.04997e-06
-1.2526e-05
2.91505e-06
-1.32035e-05
2.69354e-06
-1.38087e-05
2.36799e-06
-1.43119e-05
1.92296e-06
-1.46791e-05
1.34584e-06
-1.48742e-05
6.30357e-07
-1.48601e-05
-2.22867e-07
-1.4602e-05
-1.20246e-06
-1.40699e-05
-2.28732e-06
-1.32421e-05
-3.44378e-06
-1.21079e-05
-4.62938e-06
-1.06708e-05
-5.7923e-06
-8.94881e-06
-6.87782e-06
-6.97603e-06
-7.82984e-06
-4.79976e-06
-8.59793e-06
-2.48018e-06
-9.13916e-06
-8.48093e-08
-9.42341e-06
2.31306e-06
-9.43411e-06
4.64119e-06
-9.17066e-06
6.83021e-06
-8.64795e-06
8.8202e-06
-7.89517e-06
1.05617e-05
-6.95433e-06
1.20202e-05
-5.87553e-06
1.31759e-05
-4.71491e-06
1.40248e-05
-3.5276e-06
1.45763e-05
-2.3661e-06
1.48516e-05
-1.27363e-06
1.48803e-05
-2.84806e-07
1.46973e-05
5.7852e-07
1.43394e-05
1.30414e-06
1.38433e-05
1.89098e-06
1.3243e-05
2.3448e-06
1.25687e-05
2.6781e-06
1.18461e-05
2.90615e-06
1.10962e-05
3.04648e-06
1.03354e-05
3.11613e-06
9.5762e-06
3.13144e-06
8.82729e-06
3.10651e-06
8.09473e-06
3.05342e-06
7.3823e-06
2.98161e-06
6.69216e-06
2.89825e-06
6.02537e-06
2.80815e-06
5.38238e-06
2.71408e-06
4.76344e-06
2.61691e-06
4.16892e-06
2.51583e-06
3.59966e-06
2.40854e-06
3.05718e-06
2.29155e-06
2.54388e-06
2.16047e-06
2.06312e-06
2.01054e-06
1.61923e-06
1.83718e-06
1.21738e-06
1.63691e-06
8.63307e-07
1.40836e-06
5.62936e-07
1.15351e-06
3.21882e-07
8.78813e-07
1.45147e-07
5.96099e-07
3.74583e-08
3.23198e-07
8.57122e-08
-4.34354e-08
1.30106e-07
-1.67343e-07
4.49155e-07
-3.68555e-07
7.96842e-07
-6.40027e-07
1.148e-06
-9.74975e-07
1.48464e-06
-1.3665e-06
1.79477e-06
-1.8078e-06
2.07203e-06
-2.2926e-06
2.31495e-06
-2.81553e-06
2.52574e-06
-3.37228e-06
2.70893e-06
-3.95969e-06
2.87021e-06
-4.57572e-06
3.01548e-06
-5.21928e-06
3.15007e-06
-5.89004e-06
3.27827e-06
-6.58819e-06
3.40291e-06
-7.31412e-06
3.52504e-06
-8.06805e-06
3.64368e-06
-8.84962e-06
3.75559e-06
-9.65739e-06
3.85489e-06
-1.04882e-05
3.93294e-06
-1.13366e-05
3.97792e-06
-1.21939e-05
3.97494e-06
-1.30476e-05
3.90582e-06
-1.38802e-05
3.74998e-06
-1.46691e-05
3.48459e-06
-1.53858e-05
3.08693e-06
-1.59958e-05
2.53513e-06
-1.646e-05
1.81224e-06
-1.67349e-05
9.07204e-07
-1.67759e-05
-1.79732e-07
-1.65394e-05
-1.43709e-06
-1.59877e-05
-2.837e-06
-1.50917e-05
-4.33815e-06
-1.38364e-05
-5.88299e-06
-1.22223e-05
-7.40488e-06
-1.027e-05
-8.82871e-06
-8.01759e-06
-1.00811e-05
-5.52212e-06
-1.10924e-05
-2.85392e-06
-1.18064e-05
-9.5405e-08
-1.21813e-05
2.66694e-06
-1.21956e-05
5.34476e-06
-1.18482e-05
7.85637e-06
-1.11588e-05
1.01288e-05
-1.01674e-05
1.21049e-05
-8.92938e-06
1.37437e-05
-7.51375e-06
1.50245e-05
-5.99417e-06
1.59444e-05
-4.44634e-06
1.65181e-05
-2.93785e-06
1.67735e-05
-1.52749e-06
1.67485e-05
-2.5764e-07
1.64863e-05
8.42593e-07
1.60318e-05
1.76094e-06
1.54286e-05
2.49632e-06
1.47165e-05
3.05941e-06
1.39302e-05
3.4668e-06
1.30986e-05
3.74038e-06
1.22448e-05
3.90284e-06
1.13864e-05
3.97722e-06
1.05362e-05
3.98422e-06
9.70307e-06
3.94229e-06
8.89263e-06
3.86644e-06
8.10817e-06
3.7687e-06
7.35123e-06
3.65783e-06
6.62224e-06
3.53985e-06
5.92102e-06
3.41807e-06
5.24721e-06
3.29356e-06
4.60064e-06
3.16529e-06
3.98166e-06
3.03047e-06
3.39136e-06
2.88484e-06
2.83182e-06
2.72305e-06
2.30623e-06
2.53921e-06
1.81891e-06
2.32761e-06
1.37527e-06
2.08367e-06
9.81603e-07
1.80515e-06
6.44769e-07
1.49347e-06
3.71721e-07
1.15495e-06
1.69212e-07
8.01637e-07
4.40937e-08
4.51751e-07
1.30893e-07
-4.86733e-08
1.8021e-07
-1.87303e-07
5.9144e-07
-4.10753e-07
1.02331e-06
-7.10273e-07
1.45048e-06
-1.07735e-06
1.85469e-06
-1.50367e-06
2.22404e-06
-1.9814e-06
2.55271e-06
-2.50368e-06
2.84018e-06
-3.06488e-06
3.08989e-06
-3.66076e-06
3.30774e-06
-4.28843e-06
3.5008e-06
-4.94629e-06
3.6762e-06
-5.63381e-06
3.8404e-06
-6.3513e-06
3.99852e-06
-7.09966e-06
4.15396e-06
-7.88005e-06
4.30805e-06
-8.69352e-06
4.45972e-06
-9.54057e-06
4.60515e-06
-1.04206e-05
4.73744e-06
-1.13314e-05
4.84612e-06
-1.22681e-05
4.91701e-06
-1.32224e-05
4.9316e-06
-1.41817e-05
4.86759e-06
-1.51279e-05
4.69854e-06
-1.60368e-05
4.39583e-06
-1.68766e-05
3.92899e-06
-1.76088e-05
3.26982e-06
-1.8188e-05
2.39348e-06
-1.85634e-05
1.28492e-06
-1.8681e-05
-6.01675e-08
-1.84882e-05
-1.62779e-06
-1.79365e-05
-3.387e-06
-1.6989e-05
-5.28382e-06
-1.5623e-05
-7.24755e-06
-1.38374e-05
-9.18907e-06
-1.1652e-05
-1.10129e-05
-9.11215e-06
-1.26199e-05
-6.2827e-06
-1.39209e-05
-3.2486e-06
-1.48397e-05
-1.05849e-07
-1.53232e-05
3.04059e-06
-1.53417e-05
6.08736e-06
-1.48942e-05
8.93549e-06
-1.40069e-05
1.15002e-05
-1.27314e-05
1.37131e-05
-1.11423e-05
1.55284e-05
-9.32816e-06
1.69232e-05
-7.38854e-06
1.78983e-05
-5.41984e-06
1.84742e-05
-3.5127e-06
1.8688e-05
-1.73927e-06
1.85872e-05
-1.55286e-07
1.82249e-05
1.20708e-06
1.76552e-05
2.33247e-06
1.69293e-05
3.22456e-06
1.60932e-05
3.89765e-06
1.51862e-05
4.37646e-06
1.42401e-05
4.68901e-06
1.32797e-05
4.86598e-06
1.23235e-05
4.93612e-06
1.13843e-05
4.92618e-06
1.04706e-05
4.85868e-06
9.58726e-06
4.75242e-06
8.73683e-06
4.62177e-06
7.91993e-06
4.47741e-06
7.13611e-06
4.32636e-06
6.38436e-06
4.17256e-06
5.66354e-06
4.01715e-06
4.97277e-06
3.85888e-06
4.31173e-06
3.69437e-06
3.68098e-06
3.51849e-06
3.08215e-06
3.32483e-06
2.51812e-06
3.10621e-06
1.99318e-06
2.85554e-06
1.51296e-06
2.56688e-06
1.08437e-06
2.23673e-06
7.15285e-07
1.86555e-06
4.14074e-07
1.45911e-06
1.89218e-07
1.02938e-06
4.93987e-08
5.94842e-07
1.81301e-07
-5.29197e-08
2.34527e-07
-2.04373e-07
7.46219e-07
-4.47744e-07
1.2695e-06
-7.72733e-07
1.7782e-06
-1.16902e-06
2.25371e-06
-1.62674e-06
2.68446e-06
-2.13696e-06
3.06562e-06
-2.69218e-06
3.39808e-06
-3.28655e-06
3.68696e-06
-3.91598e-06
3.93986e-06
-4.57798e-06
4.16547e-06
-5.27148e-06
4.37236e-06
-5.99663e-06
4.56818e-06
-6.75451e-06
4.75899e-06
-7.54683e-06
4.94883e-06
-8.37563e-06
5.13937e-06
-9.24289e-06
5.32947e-06
-1.01501e-05
5.51487e-06
-1.10978e-05
5.68758e-06
-1.20848e-05
5.83551e-06
-1.3107e-05
5.94169e-06
-1.41572e-05
5.98426e-06
-1.52228e-05
5.93568e-06
-1.62857e-05
5.76398e-06
-1.73199e-05
5.43248e-06
-1.82917e-05
4.90331e-06
-1.91578e-05
4.13825e-06
-1.98672e-05
3.10532e-06
-2.03605e-05
1.78038e-06
-2.0575e-05
1.56528e-07
-2.04456e-05
-1.7554e-06
-1.99138e-05
-3.91688e-06
-1.89303e-05
-6.26584e-06
-1.74659e-05
-8.71035e-06
-1.55129e-05
-1.11408e-05
-1.30939e-05
-1.34306e-05
-1.02575e-05
-1.54551e-05
-7.08148e-06
-1.70958e-05
-3.66279e-06
-1.82572e-05
-1.1693e-07
-1.88681e-05
3.43468e-06
-1.8892e-05
6.86766e-06
-1.83266e-05
1.00674e-05
-1.72055e-05
1.29326e-05
-1.55965e-05
1.53851e-05
-1.35937e-05
1.7372e-05
-1.13149e-05
1.88701e-05
-8.88533e-06
1.9884e-05
-6.43309e-06
2.04429e-05
-4.0697e-06
2.05944e-05
-1.88946e-06
2.03976e-05
4.37095e-08
1.99171e-05
1.68925e-06
1.92167e-05
3.03522e-06
1.83559e-05
4.08728e-06
1.73868e-05
4.86921e-06
1.6353e-05
5.41253e-06
1.52891e-05
5.75564e-06
1.42213e-05
5.93644e-06
1.31682e-05
5.992e-06
1.21426e-05
5.95458e-06
1.1152e-05
5.85209e-06
1.02004e-05
5.70668e-06
9.28927e-06
5.53563e-06
8.41813e-06
5.35122e-06
7.58553e-06
5.16163e-06
6.78949e-06
4.97126e-06
6.02801e-06
4.78132e-06
5.29937e-06
4.59022e-06
4.60249e-06
4.39396e-06
3.93725e-06
4.18647e-06
3.3047e-06
3.96012e-06
2.70736e-06
3.70631e-06
2.14935e-06
3.41633e-06
1.63652e-06
3.08248e-06
1.1764e-06
2.69961e-06
7.77982e-07
2.26671e-06
4.51194e-07
1.7886e-06
2.06315e-07
1.27689e-06
5.37092e-08
7.50447e-07
2.35874e-07
-5.66636e-08
2.92532e-07
-2.2028e-07
9.12772e-07
-4.82967e-07
1.53474e-06
-8.3273e-07
2.13041e-06
-1.25715e-06
2.68057e-06
-1.7446e-06
3.1743e-06
-2.28493e-06
3.6083e-06
-2.87001e-06
3.98551e-06
-3.4939e-06
4.31319e-06
-4.15276e-06
4.60106e-06
-4.8446e-06
4.85967e-06
-5.56907e-06
5.09918e-06
-6.32707e-06
5.32853e-06
-7.12048e-06
5.55473e-06
-7.95187e-06
5.78255e-06
-8.82416e-06
6.01397e-06
-9.7403e-06
6.24794e-06
-1.07028e-05
6.4797e-06
-1.17132e-05
6.7004e-06
-1.27715e-05
6.89612e-06
-1.38749e-05
7.0475e-06
-1.50168e-05
7.12858e-06
-1.61857e-05
7.10716e-06
-1.73632e-05
6.94395e-06
-1.8523e-05
6.59492e-06
-1.96289e-05
6.01151e-06
-2.06345e-05
5.14645e-06
-2.14823e-05
3.95532e-06
-2.21063e-05
2.4067e-06
-2.24319e-05
4.84e-07
-2.2384e-05
-1.80123e-06
-2.18889e-05
-4.41048e-06
-2.0887e-05
-7.26598e-06
-1.93361e-05
-1.026e-05
-1.7225e-05
-1.32503e-05
-1.45732e-05
-1.60812e-05
-1.14381e-05
-1.85887e-05
-7.90557e-06
-2.06267e-05
-4.09147e-06
-2.20695e-05
-1.27061e-07
-2.28302e-05
3.84288e-06
-2.286e-05
7.67582e-06
-2.21568e-05
1.12356e-05
-2.07638e-05
1.44064e-05
-1.87649e-05
1.70966e-05
-1.6283e-05
1.92479e-05
-1.34642e-05
2.08363e-05
-1.0473e-05
2.18725e-05
-7.46725e-06
2.23962e-05
-4.59222e-06
2.24676e-05
-1.95835e-06
2.21593e-05
3.53623e-07
2.15478e-05
2.30333e-06
2.07076e-05
3.87729e-06
1.9706e-05
5.09136e-06
1.86012e-05
5.97609e-06
1.74404e-05
6.57596e-06
1.62603e-05
6.93812e-06
1.5088e-05
7.11158e-06
1.3942e-05
7.14063e-06
1.28343e-05
7.06512e-06
1.17715e-05
6.91756e-06
1.07566e-05
6.72438e-06
9.78961e-06
6.50522e-06
8.86915e-06
6.2743e-06
7.99267e-06
6.04065e-06
7.15726e-06
5.80919e-06
6.35999e-06
5.58109e-06
5.59829e-06
5.35441e-06
4.87026e-06
5.12445e-06
4.175e-06
4.88418e-06
3.51289e-06
4.62468e-06
2.88591e-06
4.33575e-06
2.2979e-06
4.00677e-06
1.75484e-06
3.62797e-06
1.26487e-06
3.19198e-06
8.38198e-07
2.69578e-06
4.86535e-07
2.14261e-06
2.22239e-07
1.54347e-06
5.75086e-08
9.17784e-07
2.94052e-07
-6.05785e-08
3.54374e-07
-2.37437e-07
1.09214e-06
-5.21181e-07
1.82077e-06
-8.97491e-07
2.50888e-06
-1.35124e-06
3.13646e-06
-1.86869e-06
3.69383e-06
-2.43842e-06
4.18006e-06
-3.05178e-06
4.60087e-06
-3.70291e-06
4.96631e-06
-4.38844e-06
5.28858e-06
-5.1071e-06
5.58032e-06
-5.8593e-06
5.8534e-06
-6.64678e-06
6.11802e-06
-7.47222e-06
6.38221e-06
-8.33896e-06
6.65133e-06
-9.25071e-06
6.92779e-06
-1.02112e-05
7.2105e-06
-1.12238e-05
7.49445e-06
-1.22911e-05
7.76978e-06
-1.34138e-05
8.02116e-06
-1.45905e-05
8.22639e-06
-1.58157e-05
8.35616e-06
-1.70786e-05
8.37239e-06
-1.83617e-05
8.22954e-06
-1.96381e-05
7.87365e-06
-2.08711e-05
7.24693e-06
-2.20108e-05
6.28829e-06
-2.29962e-05
4.94303e-06
-2.37526e-05
3.16496e-06
-2.41979e-05
9.31402e-07
-2.42424e-05
-1.75532e-06
-2.38009e-05
-4.85005e-06
-2.27964e-05
-8.26929e-06
-2.11771e-05
-1.18776e-05
-1.89201e-05
-1.5506e-05
-1.6047e-05
-1.89523e-05
-1.26171e-05
-2.20167e-05
-8.73218e-06
-2.45092e-05
-4.52038e-06
-2.62784e-05
-1.36795e-07
-2.72107e-05
4.25531e-06
-2.7248e-05
8.48814e-06
-2.63862e-05
1.24074e-05
-2.46785e-05
1.58782e-05
-2.22328e-05
1.87973e-05
-1.91985e-05
2.10993e-05
-1.57644e-05
2.27614e-05
-1.21323e-05
2.38025e-05
-8.50698e-06
2.42745e-05
-5.06143e-06
2.42531e-05
-1.93529e-06
2.38248e-05
7.84928e-07
2.30791e-05
3.05104e-06
2.20998e-05
4.85937e-06
2.09621e-05
6.23113e-06
1.97284e-05
7.21239e-06
1.8449e-05
7.85747e-06
1.71618e-05
8.22794e-06
1.5894e-05
8.38183e-06
1.46635e-05
8.37376e-06
1.34815e-05
8.2497e-06
1.23534e-05
8.04832e-06
1.1281e-05
7.79932e-06
1.02633e-05
7.52533e-06
9.29809e-06
7.24194e-06
8.3818e-06
6.95929e-06
7.51074e-06
6.68252e-06
6.6812e-06
6.41286e-06
5.88981e-06
6.14798e-06
5.13388e-06
5.88253e-06
4.41167e-06
5.60851e-06
3.72275e-06
5.31569e-06
3.0684e-06
4.99217e-06
2.45199e-06
4.62523e-06
1.8794e-06
4.20259e-06
1.35929e-06
3.71409e-06
9.03175e-07
3.15389e-06
5.24865e-07
2.52288e-06
2.39407e-07
1.83081e-06
6.14591e-08
1.09789e-06
3.56021e-07
-6.56447e-08
4.21196e-07
-2.59274e-07
1.28785e-06
-5.68917e-07
2.13245e-06
-9.76523e-07
2.91837e-06
-1.46325e-06
3.62508e-06
-2.01288e-06
4.2453e-06
-2.61275e-06
4.78172e-06
-3.25401e-06
5.24388e-06
-3.93123e-06
5.64525e-06
-4.64182e-06
6.0009e-06
-5.38543e-06
6.32567e-06
-6.16339e-06
6.63311e-06
-6.97824e-06
6.93464e-06
-7.83335e-06
7.23911e-06
-8.73267e-06
7.55246e-06
-9.68038e-06
7.87733e-06
-1.06807e-05
8.2127e-06
-1.17375e-05
8.55313e-06
-1.28538e-05
8.88809e-06
-1.40312e-05
9.20055e-06
-1.52689e-05
9.46627e-06
-1.65624e-05
9.65177e-06
-1.79023e-05
9.71447e-06
-1.92715e-05
9.60077e-06
-2.06444e-05
9.24881e-06
-2.19833e-05
8.58776e-06
-2.32385e-05
7.5457e-06
-2.43446e-05
6.05082e-06
-2.52239e-05
4.04629e-06
-2.57838e-05
1.49267e-06
-2.59264e-05
-1.61078e-06
-2.55492e-05
-5.22617e-06
-2.45626e-05
-9.25399e-06
-2.28952e-05
-1.35437e-05
-2.05178e-05
-1.78813e-05
-1.74435e-05
-2.20247e-05
-1.37422e-05
-2.57153e-05
-9.5217e-06
-2.87267e-05
-4.93181e-06
-3.08648e-05
-1.43225e-07
-3.19948e-05
4.65342e-06
-3.20399e-05
9.27051e-06
-3.09974e-05
1.35299e-05
-2.89331e-05
1.72807e-05
-2.5978e-05
2.04067e-05
-2.23212e-05
2.28359e-05
-1.81897e-05
2.45492e-05
-1.38438e-05
2.5575e-05
-9.52978e-06
2.59825e-05
-5.46742e-06
2.58623e-05
-1.8121e-06
2.53171e-05
1.33205e-06
2.44465e-05
3.92468e-06
2.33439e-05
5.96414e-06
2.20884e-05
7.48934e-06
2.07465e-05
8.5564e-06
1.93688e-05
9.23763e-06
1.79938e-05
9.60509e-06
1.66476e-05
9.73046e-06
1.53476e-05
9.67604e-06
1.41035e-05
9.49624e-06
1.292e-05
9.23412e-06
1.17978e-05
8.92377e-06
1.07356e-05
8.58979e-06
9.73006e-06
8.2496e-06
8.77748e-06
7.91393e-06
7.87359e-06
7.58844e-06
7.01416e-06
7.27426e-06
6.19522e-06
6.96882e-06
5.41338e-06
6.66623e-06
4.66608e-06
6.35764e-06
3.95197e-06
6.03158e-06
3.27141e-06
5.67448e-06
2.62697e-06
5.27139e-06
2.02409e-06
4.80716e-06
1.47168e-06
4.26819e-06
9.82444e-07
3.6448e-06
5.72732e-07
2.93424e-06
2.61247e-07
2.14386e-06
6.65317e-08
1.29439e-06
4.23038e-07
-7.34608e-08
4.9577e-07
-2.91014e-07
1.5071e-06
-6.35427e-07
2.47873e-06
-1.08241e-06
3.36704e-06
-1.60803e-06
4.15244e-06
-2.19336e-06
4.83234e-06
-2.82492e-06
5.41495e-06
-3.49426e-06
5.91486e-06
-4.19696e-06
6.34959e-06
-4.93168e-06
6.73724e-06
-5.69922e-06
7.09485e-06
-6.50189e-06
7.43743e-06
-7.34295e-06
7.77738e-06
-8.22627e-06
8.12412e-06
-9.156e-06
8.4839e-06
-1.01364e-05
8.85948e-06
-1.11716e-05
9.24965e-06
-1.22653e-05
9.64868e-06
-1.34205e-05
1.00451e-05
-1.46389e-05
1.04208e-05
-1.59198e-05
1.0749e-05
-1.72595e-05
1.09934e-05
-1.8649e-05
1.11058e-05
-2.0073e-05
1.10269e-05
-2.15068e-05
1.06843e-05
-2.29149e-05
9.99787e-06
-2.42472e-05
8.87959e-06
-2.54403e-05
7.24584e-06
-2.64123e-05
5.01955e-06
-2.70691e-05
2.15147e-06
-2.73013e-05
-1.37748e-06
-2.69979e-05
-5.5276e-06
-2.60477e-05
-1.0203e-05
-2.43663e-05
-1.5223e-05
-2.19029e-05
-2.0343e-05
-1.86713e-05
-2.52534e-05
-1.4738e-05
-2.96458e-05
-1.02278e-05
-3.3233e-05
-5.29824e-06
-3.57898e-05
-1.46833e-07
-3.71417e-05
5.01661e-06
-3.71982e-05
9.97592e-06
-3.59515e-05
1.45339e-05
-3.34849e-05
1.85226e-05
-2.99627e-05
2.18142e-05
-2.56079e-05
2.43336e-05
-2.0707e-05
2.60646e-05
-1.55718e-05
2.70538e-05
-1.05181e-05
2.73863e-05
-5.79752e-06
2.71734e-05
-1.59815e-06
2.65281e-05
1.97998e-06
2.55613e-05
4.89321e-06
2.43687e-05
7.15948e-06
2.30333e-05
8.82666e-06
2.16198e-05
9.97232e-06
2.01793e-05
1.068e-05
1.87478e-05
1.10389e-05
1.73506e-05
1.11295e-05
1.60035e-05
1.10254e-05
1.47154e-05
1.07863e-05
1.34902e-05
1.04614e-05
1.23287e-05
1.00873e-05
1.1229e-05
9.69145e-06
1.01883e-05
9.29222e-06
9.20278e-06
8.90138e-06
8.26824e-06
8.52482e-06
7.38042e-06
8.1639e-06
6.53511e-06
7.8159e-06
5.72843e-06
7.47465e-06
4.95707e-06
7.13068e-06
4.21873e-06
6.77159e-06
3.51255e-06
6.38229e-06
2.8399e-06
5.94565e-06
2.20519e-06
5.44346e-06
1.61692e-06
4.85804e-06
1.08864e-06
4.17466e-06
6.39416e-07
3.38502e-06
2.92984e-07
2.49177e-06
7.43315e-08
1.51465e-06
4.98022e-07
-8.70283e-08
5.83903e-07
-3.41279e-07
1.76273e-06
-7.34468e-07
2.87375e-06
-1.2321e-06
3.86623e-06
-1.80385e-06
4.72582e-06
-2.42847e-06
5.45863e-06
-3.09279e-06
6.08096e-06
-3.78988e-06
6.61362e-06
-4.51719e-06
7.07858e-06
-5.27512e-06
7.49684e-06
-6.06588e-06
7.88729e-06
-6.89274e-06
8.26598e-06
-7.75949e-06
8.64582e-06
-8.67009e-06
9.03641e-06
-9.62841e-06
9.44393e-06
-1.06381e-05
9.87088e-06
-1.17025e-05
1.03158e-05
-1.28244e-05
1.07722e-05
-1.40056e-05
1.1228e-05
-1.52469e-05
1.16637e-05
-1.65471e-05
1.2051e-05
-1.79021e-05
1.235e-05
-1.93037e-05
1.25091e-05
-2.07372e-05
1.24619e-05
-2.21806e-05
1.21295e-05
-2.36004e-05
1.1419e-05
-2.49515e-05
1.02326e-05
-2.61722e-05
8.46776e-06
-2.71865e-05
6.0359e-06
-2.78985e-05
2.86467e-06
-2.82006e-05
-1.07315e-06
-2.79686e-05
-5.75838e-06
-2.70817e-05
-1.10874e-05
-2.54264e-05
-1.68769e-05
-2.29389e-05
-2.28279e-05
-1.96123e-05
-2.85779e-05
-1.5523e-05
-3.3732e-05
-1.07916e-05
-3.79612e-05
-5.59503e-06
-4.09825e-05
-1.43577e-07
-4.25888e-05
5.31914e-06
-4.26571e-05
1.05535e-05
-4.11813e-05
1.53382e-05
-3.8266e-05
1.94925e-05
-3.41121e-05
2.28838e-05
-2.89975e-05
2.54321e-05
-2.32527e-05
2.71369e-05
-1.72769e-05
2.80612e-05
-1.14408e-05
2.83178e-05
-6.05448e-06
2.80302e-05
-1.309e-06
2.73247e-05
2.68591e-06
2.63111e-05
5.90884e-06
2.50871e-05
8.38463e-06
2.37299e-05
1.0186e-05
2.23025e-05
1.14012e-05
2.08506e-05
1.21339e-05
1.94083e-05
1.24827e-05
1.79981e-05
1.25416e-05
1.66348e-05
1.23902e-05
1.53268e-05
1.20962e-05
1.40783e-05
1.17116e-05
1.28903e-05
1.12771e-05
1.17623e-05
1.08213e-05
1.06922e-05
1.03642e-05
9.67715e-06
9.91823e-06
8.71385e-06
9.48994e-06
7.79861e-06
9.08094e-06
6.92749e-06
8.68882e-06
6.0965e-06
8.30742e-06
5.30181e-06