/*--------------------------------*- C++ -*----------------------------------*\
| =========                 |                                                 |
| \\      /  F ield         | OpenFOAM: The Open Source CFD Toolbox           |
|  \\    /   O peration     | Version:  2412                                  |
|   \\  /    A nd           | Website:  www.openfoam.com                      |
|    \\/     M anipulation  |                                                 |
\*---------------------------------------------------------------------------*/
FoamFile
{
    version     2.0;
    format      ascii;
    arch        "LSB;label=32;scalar=64";
    class       surfaceScalarField;
    location    "7.35";
    object      phi;
}
// * * * * * * * * * * * * * * * * * * * * * * * * * * * * * * * * * * * * * //

dimensions      [0 3 -1 0 0 0 0];

oriented        oriented;

internalField   nonuniform List<scalar> 
12640
(
-1.54692e-06
1.54692e-06
2.64743e-07
-1.81187e-06
4.09426e-06
-3.82968e-06
8.3815e-06
-4.28738e-06
1.17945e-05
-3.41313e-06
1.34543e-05
-1.65992e-06
1.29499e-05
5.04285e-07
1.00513e-05
2.89849e-06
4.85496e-06
5.1961e-06
-2.44768e-06
7.30243e-06
-1.14513e-05
9.00349e-06
-2.20108e-05
1.05593e-05
-3.38449e-05
1.1834e-05
-4.66514e-05
1.28063e-05
-6.02189e-05
1.35674e-05
-7.42482e-05
1.40291e-05
-8.84924e-05
1.42441e-05
-0.00010267
1.41775e-05
-0.000116545
1.38755e-05
-0.000129865
1.33196e-05
-0.000142355
1.24903e-05
-0.00015375
1.1395e-05
-0.000163777
1.00267e-05
-0.000172164
8.38744e-06
-0.000178672
6.50759e-06
-0.000183089
4.4171e-06
-0.000185206
2.1163e-06
-0.000184881
-3.25376e-07
-0.000182011
-2.87063e-06
-0.000176509
-5.50175e-06
-0.000168328
-8.1811e-06
-0.000157519
-1.08098e-05
-0.000144154
-1.33652e-05
-0.000128419
-1.57352e-05
-0.000110475
-1.79444e-05
-9.06431e-05
-1.98319e-05
-6.92292e-05
-2.14142e-05
-4.65321e-05
-2.26977e-05
-2.29501e-05
-2.35831e-05
1.07165e-06
-2.40226e-05
2.51118e-05
-2.4041e-05
4.87584e-05
-2.36474e-05
7.15645e-05
-2.28063e-05
9.31659e-05
-2.16013e-05
0.000113242
-2.00763e-05
0.000131397
-1.81553e-05
0.000147427
-1.60292e-05
0.00016112
-1.36924e-05
0.000172306
-1.11864e-05
0.000180826
-8.52043e-06
0.000186673
-5.84659e-06
0.00018986
-3.18621e-06
0.000190451
-5.91769e-07
0.000188526
1.9255e-06
0.000184233
4.29286e-06
0.00017775
6.48262e-06
0.000169273
8.47717e-06
0.000159039
1.02329e-05
0.000147286
1.17537e-05
0.000134252
1.30338e-05
0.000120265
1.39869e-05
0.000105571
1.46944e-05
9.04559e-05
1.51145e-05
7.52081e-05
1.52474e-05
6.01082e-05
1.50995e-05
4.54178e-05
1.46901e-05
3.15117e-05
1.39058e-05
1.86796e-05
1.28319e-05
7.26833e-06
1.14112e-05
-2.52333e-06
9.79159e-06
-1.02767e-05
7.75307e-06
-1.56897e-05
5.41271e-06
-1.85251e-05
2.83532e-06
-1.868e-05
1.54676e-07
-1.63788e-05
-2.30153e-06
-1.21129e-05
-4.2664e-06
-6.86497e-06
-5.24843e-06
-2.07688e-06
-4.78877e-06
6.09498e-07
-2.68746e-06
6.08709e-07
2.11982e-08
1.52556e-06
5.69242e-06
-7.48346e-06
1.52175e-05
-1.3355e-05
2.57868e-05
-1.48569e-05
3.52776e-05
-1.29042e-05
4.22224e-05
-8.60495e-06
4.57971e-05
-3.07081e-06
4.58147e-05
2.88047e-06
4.23869e-05
8.62358e-06
3.58921e-05
1.37969e-05
2.6673e-05
1.82223e-05
1.53526e-05
2.18795e-05
2.34933e-06
2.4837e-05
-1.19879e-05
2.71434e-05
-2.72245e-05
2.88037e-05
-4.31963e-05
3.00007e-05
-5.95871e-05
3.06349e-05
-7.60903e-05
3.06807e-05
-9.24123e-05
3.01977e-05
-0.000108257
2.9164e-05
-0.000123306
2.75394e-05
-0.00013723
2.53196e-05
-0.0001497
2.24962e-05
-0.000160413
1.91006e-05
-0.000169077
1.51708e-05
-0.000175456
1.07961e-05
-0.000179293
5.95282e-06
-0.000180461
8.42131e-07
-0.000178832
-4.49967e-06
-0.000174364
-9.97053e-06
-0.000167075
-1.54703e-05
-0.000157013
-2.08722e-05
-0.00014424
-2.61385e-05
-0.000128936
-3.10397e-05
-0.000111397
-3.5484e-05
-9.18646e-05
-3.93659e-05
-7.06552e-05
-4.26248e-05
-4.8171e-05
-4.51826e-05
-2.4783e-05
-4.69717e-05
-9.28029e-07
-4.78777e-05
2.29465e-05
-4.79153e-05
4.63925e-05
-4.70932e-05
6.90345e-05
-4.54486e-05
9.04275e-05
-4.29944e-05
0.000110183
-3.9832e-05
0.00012803
-3.60019e-05
0.000143615
-3.16142e-05
0.000156714
-2.67919e-05
0.000167167
-2.164e-05
0.000174921
-1.62747e-05
0.000179813
-1.07381e-05
0.000181848
-5.2217e-06
0.000181051
2.04098e-07
0.000177502
5.4745e-06
0.00017137
1.04245e-05
0.000162865
1.49873e-05
0.000152216
1.91262e-05
0.000139661
2.2787e-05
0.000125501
2.59133e-05
0.000110077
2.84576e-05
9.36522e-05
3.04116e-05
7.65775e-05
3.17685e-05
5.92123e-05
3.24789e-05
4.18484e-05
3.26108e-05
2.48152e-05
3.21323e-05
8.46387e-06
3.10411e-05
-6.98353e-06
2.93532e-05
-2.09954e-05
2.68439e-05
-3.3178e-05
2.35936e-05
-4.29481e-05
1.95614e-05
-4.98606e-05
1.46653e-05
-5.34003e-05
8.9522e-06
-5.31462e-05
2.58085e-06
-4.89518e-05
-4.04011e-06
-4.10683e-05
-1.01855e-05
-3.0424e-05
-1.49112e-05
-1.85971e-05
-1.70763e-05
-7.81051e-06
-1.55768e-05
-9.92491e-07
-9.5052e-06
-3.84039e-07
1.01753e-06
5.07869e-07
8.8641e-06
-1.53305e-05
2.13811e-05
-2.58725e-05
3.56111e-05
-2.90872e-05
4.88135e-05
-2.61069e-05
5.90492e-05
-1.8841e-05
6.52332e-05
-9.25529e-06
6.70925e-05
1.02082e-06
6.48482e-05
1.08675e-05
5.89774e-05
1.96674e-05
5.00699e-05
2.71297e-05
3.87002e-05
3.3249e-05
2.53715e-05
3.81656e-05
1.05115e-05
4.20033e-05
-5.5644e-06
4.48797e-05
-2.24421e-05
4.68786e-05
-3.98818e-05
4.8075e-05
-5.74992e-05
4.82984e-05
-7.50165e-05
4.77153e-05
-9.2118e-05
4.62657e-05
-0.000108463
4.38845e-05
-0.000123724
4.05805e-05
-0.000137543
3.6316e-05
-0.000149632
3.11891e-05
-0.000159663
2.52025e-05
-0.000167356
1.8489e-05
-0.000172568
1.11652e-05
-0.000175019
3.29226e-06
-0.000174651
-4.8675e-06
-0.000171304
-1.33181e-05
-0.000165
-2.17756e-05
-0.000155739
-3.01332e-05
-0.00014379
-3.80881e-05
-0.000129101
-4.57291e-05
-0.000112005
-5.25799e-05
-9.27755e-05
-5.85951e-05
-7.17414e-05
-6.36574e-05
-4.92989e-05
-6.76237e-05
-2.5889e-05
-7.03802e-05
-1.95937e-06
-7.18068e-05
2.19997e-05
-7.18749e-05
4.55097e-05
-7.06041e-05
6.80938e-05
-6.80331e-05
8.93144e-05
-6.42157e-05
0.000108797
-5.9316e-05
0.000126209
-5.34158e-05
0.000141228
-4.6635e-05
0.000153678
-3.92419e-05
0.00016334
-3.13028e-05
0.000170068
-2.30036e-05
0.000173865
-1.45363e-05
0.000174734
-6.0917e-06
0.00017267
2.26674e-06
0.00016795
1.01942e-05
0.000160587
1.77854e-05
0.000150821
2.47531e-05
0.000138886
3.106e-05
0.000125059
3.66128e-05
0.000109649
4.1323e-05
9.29654e-05
4.51402e-05
7.53411e-05
4.80353e-05
5.71084e-05
5.00008e-05
3.85868e-05
5.10003e-05
2.02068e-05
5.09906e-05
2.22429e-06
5.0115e-05
-1.49636e-05
4.82291e-05
-3.09202e-05
4.53096e-05
-4.52944e-05
4.12176e-05
-5.75713e-05
3.58701e-05
-6.71478e-05
2.91373e-05
-7.3407e-05
2.09239e-05
-7.57027e-05
1.12479e-05
-7.35117e-05
3.90327e-07
-6.65929e-05
-1.09584e-05
-5.5265e-05
-2.15128e-05
-4.06997e-05
-2.94756e-05
-2.49834e-05
-3.27919e-05
-1.10438e-05
-2.95142e-05
-1.97687e-06
-1.85744e-05
-2.35974e-06
1.11882e-06
-6.11191e-07
9.96655e-06
-2.41788e-05
2.4647e-05
-4.05534e-05
4.20698e-05
-4.65105e-05
5.87029e-05
-4.27405e-05
7.17205e-05
-3.18591e-05
7.9603e-05
-1.71383e-05
8.21523e-05
-1.52888e-06
7.99232e-05
1.30964e-05
7.37073e-05
2.58832e-05
6.42911e-05
3.65458e-05
5.23488e-05
4.51913e-05
3.84086e-05
5.2106e-05
2.28967e-05
5.75155e-05
6.18955e-06
6.15872e-05
-1.13958e-05
6.44645e-05
-2.9532e-05
6.62118e-05
-4.79856e-05
6.67525e-05
-6.64082e-05
6.61383e-05
-8.44779e-05
6.43357e-05
-0.000101861
6.12681e-05
-0.000118217
5.69366e-05
-0.000133178
5.1277e-05
-0.000146381
4.43923e-05
-0.000157528
3.63504e-05
-0.000166312
2.72732e-05
-0.000172466
1.73189e-05
-0.000175824
6.65021e-06
-0.000176214
-4.47706e-06
-0.000173542
-1.59908e-05
-0.000167771
-2.75465e-05
-0.000158944
-3.89609e-05
-0.000147029
-5.00027e-05
-0.000132451
-6.03073e-05
-0.000115247
-6.97833e-05
-9.57275e-05
-7.81146e-05
-7.4247e-05
-8.51387e-05
-5.11697e-05
-9.07029e-05
-2.70431e-05
-9.45087e-05
-2.3468e-06
-9.65044e-05
2.23886e-05
-9.66111e-05
4.66547e-05
-9.48716e-05
6.98592e-05
-9.12396e-05
9.15633e-05
-8.59214e-05
0.000111376
-7.91296e-05
0.00012892
-7.09607e-05
0.000143995
-6.17114e-05
0.000156246
-5.14953e-05
0.000165544
-4.06037e-05
0.000171812
-2.92735e-05
0.000174976
-1.77021e-05
0.000175062
-6.17956e-06
0.000172316
5.01161e-06
0.00016665
1.5859e-05
0.000158342
2.60923e-05
0.000147556
3.55384e-05
0.000134574
4.40418e-05
0.00011969
5.14966e-05
0.00010322
5.77928e-05
8.55176e-05
6.28421e-05
6.6913e-05
6.66397e-05
4.77439e-05
6.91698e-05
2.83585e-05
7.03853e-05
9.11381e-06
7.02349e-05
-9.6606e-06
6.88886e-05
-2.76063e-05
6.61738e-05
-4.4344e-05
6.20461e-05
-5.94831e-05
5.63554e-05
-7.25029e-05
4.88889e-05
-8.27573e-05
3.93914e-05
-8.94576e-05
2.76243e-05
-9.17778e-05
1.35685e-05
-8.88647e-05
-2.52224e-06
-8.01312e-05
-1.96912e-05
-6.58118e-05
-3.5831e-05
-4.75725e-05
-4.77145e-05
-2.84832e-05
-5.18818e-05
-1.22955e-05
-4.57024e-05
-2.14578e-06
-2.87239e-05
-4.50686e-06
4.89355e-07
-1.10089e-06
9.35956e-06
-3.30498e-05
2.59497e-05
-5.71442e-05
4.74157e-05
-6.79771e-05
6.89305e-05
-6.42559e-05
8.5751e-05
-4.86802e-05
9.5354e-05
-2.67416e-05
9.77945e-05
-3.96961e-06
9.44092e-05
1.64816e-05
8.66516e-05
3.36407e-05
7.56499e-05
4.75475e-05
6.22448e-05
5.85966e-05
4.70324e-05
6.73186e-05
3.03944e-05
7.41538e-05
1.26702e-05
7.9312e-05
-5.92554e-06
8.30607e-05
-2.50552e-05
8.53419e-05
-4.4576e-05
8.62735e-05
-6.41559e-05
8.57184e-05
-8.34333e-05
8.36133e-05
-0.000102069
7.99039e-05
-0.000119717
7.45847e-05
-0.000135951
6.75121e-05
-0.000150412
5.88538e-05
-0.000162732
4.86703e-05
-0.000172586
3.71273e-05
-0.000179677
2.44096e-05
-0.000183745
1.07179e-05
-0.000184636
-3.5858e-06
-0.000182275
-1.83517e-05
-0.000176591
-3.32302e-05
-0.000167649
-4.79023e-05
-0.000155443
-6.22095e-05
-0.000140233
-7.55184e-05
-0.000122222
-8.77977e-05
-0.000101688
-9.86516e-05
-7.89352e-05
-0.000107894
-5.45102e-05
-0.00011513
-2.8846e-05
-0.000120175
-2.5375e-06
-0.000122815
2.38071e-05
-0.000122958
4.96391e-05
-0.000120706
7.42558e-05
-0.000115857
9.71918e-05
-0.000108858
0.000118087
-0.000100025
0.000136452
-8.93274e-05
0.000152078
-7.73394e-05
0.000164711
-6.41296e-05
0.000174168
-5.00615e-05
0.000180402
-3.55087e-05
0.000183291
-2.05911e-05
0.000183006
-5.89511e-06
0.000179575
8.441e-06
0.000173142
2.22912e-05
0.000163867
3.53673e-05
0.000152003
4.74015e-05
0.000137867
5.81775e-05
0.000121772
6.75911e-05
0.000104071
7.54935e-05
8.51261e-05
8.17869e-05
6.52812e-05
8.6485e-05
4.49109e-05
8.95405e-05
2.43715e-05
9.09252e-05
3.94381e-06
9.06632e-05
-1.6007e-05
8.884e-05
-3.52072e-05
8.53743e-05
-5.3329e-05
8.01683e-05
-6.99955e-05
7.30223e-05
-8.47104e-05
6.36039e-05
-9.6775e-05
5.1456e-05
-0.000105247
3.6096e-05
-0.000108867
1.71875e-05
-0.000106069
-5.32185e-06
-9.53994e-05
-3.03629e-05
-7.68858e-05
-5.43466e-05
-5.3374e-05
-7.12289e-05
-3.00153e-05
-7.52392e-05
-1.17898e-05
-6.393e-05
-1.64526e-06
-3.88666e-05
-6.15219e-06
-1.25631e-06
1.5494e-07
6.22679e-06
-4.05338e-05
2.53118e-05
-7.623e-05
5.30668e-05
-9.57328e-05
8.19646e-05
-9.31542e-05
0.000104297
-7.10129e-05
0.000116062
-3.85066e-05
0.000117714
-5.62215e-06
0.000111977
2.2219e-05
0.000101411
4.42058e-05
8.77465e-05
6.12124e-05
7.20724e-05
7.42708e-05
5.49937e-05
8.43976e-05
3.68071e-05
9.23407e-05
1.76229e-05
9.84963e-05
-2.3425e-06
0.000103026
-2.29136e-05
0.000105913
-4.38598e-05
0.00010722
-6.4931e-05
0.00010679
-8.58153e-05
0.000104498
-0.000106099
0.000100187
-0.000125396
9.38818e-05
-0.000143246
8.53618e-05
-0.000159245
7.48523e-05
-0.000172962
6.23876e-05
-0.000184019
4.81842e-05
-0.000192099
3.249e-05
-0.000196873
1.54922e-05
-0.00019821
-2.24839e-06
-0.000196021
-2.05409e-05
-0.000190185
-3.90661e-05
-0.000180659
-5.74302e-05
-0.00016786
-7.50094e-05
-0.000151642
-9.17381e-05
-0.000132312
-0.000107128
-0.000110135
-0.000120828
-8.5658e-05
-0.000132371
-5.91878e-05
-0.000141601
-3.13108e-05
-0.000148053
-2.70599e-06
-0.00015142
2.59259e-05
-0.00015159
5.39182e-05
-0.000148698
8.05603e-05
-0.0001425
0.00010543
-0.000133729
0.000127901
-0.000122497
0.000147613
-0.000109041
0.000164227
-9.3955e-05
0.000177663
-7.75662e-05
0.000187556
-5.99555e-05
0.000193872
-4.18265e-05
0.000196832
-2.35523e-05
0.000196198
-5.26329e-06
0.000192163
1.24748e-05
0.000184869
2.95847e-05
0.000174552
4.56828e-05
0.000161432
6.0521e-05
0.000145895
7.37146e-05
0.000128291
8.51948e-05
0.000109004
9.47812e-05
8.84337e-05
0.000102357
6.69722e-05
0.000107947
4.50096e-05
0.000111503
2.28994e-05
0.000113035
8.84026e-07
0.000112678
-2.07011e-05
0.000110425
-4.16389e-05
0.000106312
-6.17097e-05
0.000100239
-8.06034e-05
9.19156e-05
-9.79045e-05
8.09046e-05
-0.000112988
6.65388e-05
-0.000124614
4.77216e-05
-0.000130837
2.34088e-05
-0.00012888
-7.27955e-06
-0.000115876
-4.33674e-05
-9.14938e-05
-7.87296e-05
-6.0079e-05
-0.000102644
-2.98429e-05
-0.000105474
-8.88488e-06
-8.48881e-05
-7.61065e-08
-4.76766e-05
-6.22751e-06
-3.71344e-06
3.86783e-06
5.56578e-06
-4.98139e-05
3.5657e-05
-0.000106322
7.70702e-05
-0.000137146
0.000113923
-0.000130007
0.000137452
-9.45426e-05
0.000146733
-4.77881e-05
0.000144376
-3.26523e-06
0.000134182
3.24135e-05
0.000119167
5.92211e-05
0.000101677
7.87025e-05
8.30107e-05
9.29367e-05
6.36189e-05
0.000103789
4.35605e-05
0.000112399
2.26861e-05
0.000119371
1.14718e-06
0.000124565
-2.10582e-05
0.000128118
-4.37635e-05
0.000129925
-6.67008e-05
0.000129727
-8.96006e-05
0.000127397
-0.000111969
0.000122555
-0.000133329
0.000115241
-0.000153203
0.000105235
-0.000171109
9.27584e-05
-0.000186541
7.78193e-05
-0.000199061
6.07039e-05
-0.00020825
4.1679e-05
-0.000213958
2.11998e-05
-0.000215779
-4.2858e-07
-0.000213705
-2.26159e-05
-0.000207615
-4.51559e-05
-0.000197644
-6.74005e-05
-0.000183731
-8.8921e-05
-0.000166141
-0.000109326
-0.000145143
-0.000128124
-0.000121065
-0.000144904
-9.41975e-05
-0.000159238
-6.50828e-05
-0.000170715
-3.44025e-05
-0.000178732
-2.86176e-06
-0.000182961
2.87299e-05
-0.000183183
5.94875e-05
-0.000179457
8.87876e-05
-0.000171801
0.000115885
-0.000160827
0.000140278
-0.000146891
0.000161798
-0.000130561
0.000179803
-0.000111961
0.000194089
-9.18521e-05
0.000204768
-7.06359e-05
0.000211558
-4.86168e-05
0.000214396
-2.63909e-05
0.000213403
-4.27084e-06
0.000208645
1.7232e-05
0.000200326
3.79037e-05
0.000188686
5.73226e-05
0.000174022
7.51837e-05
0.000156758
9.09781e-05
0.000137306
0.000104646
0.00011602
0.000116065
9.34486e-05
0.000124927
6.9964e-05
0.00013143
4.60359e-05
0.00013543
2.19552e-05
0.000137115
-1.95096e-06
0.000136583
-2.54725e-05
0.000133946
-4.84401e-05
0.000129279
-7.08292e-05
0.000122628
-9.24582e-05
0.000113545
-0.000113255
0.000101702
-0.00013261
8.58936e-05
-0.000149138
6.42497e-05
-0.000160395
3.46655e-05
-0.000163161
-4.51282e-06
-0.000153515
-5.30126e-05
-0.000128521
-0.000103724
-8.87091e-05
-0.000142456
-4.32192e-05
-0.000150967
-9.44581e-06
-0.000118661
1.99399e-06
-5.91177e-05
-4.23432e-06
-1.40159e-06
5.26889e-06
2.94579e-05
-8.06739e-05
9.80342e-05
-0.000174899
0.000168675
-0.000207788
0.00020962
-0.000170953
0.000215966
-0.000100889
0.000202287
-3.41089e-05
0.000182507
1.65142e-05
0.000161788
5.31331e-05
0.00013977
8.12391e-05
0.000117243
0.000101229
9.49323e-05
0.000115247
7.29484e-05
0.000125773
5.09186e-05
0.000134429
2.84125e-05
0.000141876
5.21175e-06
0.000147765
-1.88282e-05
0.000152158
-4.35662e-05
0.000154662
-6.87913e-05
0.000154951
-9.40067e-05
0.000152612
-0.000118897
0.000147445
-0.000142821
0.000139165
-0.000165249
0.000127663
-0.000185499
0.000113008
-0.000203079
9.5399e-05
-0.00021742
7.50447e-05
-0.00022813
5.23877e-05
-0.000234797
2.78658e-05
-0.000237167
1.94144e-06
-0.00023523
-2.45524e-05
-0.000228809
-5.15768e-05
-0.000218048
-7.81619e-05
-0.000202951
-0.000104019
-0.000183796
-0.000128482
-0.000160826
-0.000151096
-0.000134301
-0.000171429
-0.000104567
-0.000188974
-7.22495e-05
-0.000203035
-3.81345e-05
-0.000212849
-3.02226e-06
-0.000218074
3.2147e-05
-0.000218351
6.632e-05
-0.000213629
9.88236e-05
-0.000204304
0.000128788
-0.00019079
0.000155671
-0.000173774
0.000178951
-0.00015384
0.000198726
-0.000131734
0.000214305
-0.00010743
0.000225672
-8.20026e-05
0.000232805
-5.57486e-05
0.000235565
-2.91504e-05
0.000234184
-2.88974e-06
0.000228624
2.27924e-05
0.000219062
4.7466e-05
0.000205846
7.05379e-05
0.000189343
9.16868e-05
0.00016995
0.000110371
0.000148141
0.000126454
0.000124486
0.000139721
9.94569e-05
0.000149957
7.36358e-05
0.000157251
4.72942e-05
0.000161772
2.09994e-05
0.000163409
-5.05668e-06
0.000162639
-3.06973e-05
0.000159585
-5.58e-05
0.000154381
-8.0616e-05
0.000147443
-0.000105408
0.000138335
-0.000130329
0.000126623
-0.000155442
0.000111007
-0.000179821
8.86283e-05
-0.000202951
5.77953e-05
-0.000225496
1.80327e-05
-0.000241392
-3.71173e-05
-0.000235036
-0.000110082
-0.000190769
-0.000186722
-0.000113744
-0.000227994
-3.74679e-05
-0.000194937
-1.09992e-06
-9.54852e-05
-5.33462e-06
1.78159e-05
-1.25474e-05
0.000108382
-0.00017124
0.000240822
-0.00030734
0.000347236
-0.000314201
0.000388586
-0.000212304
0.000362753
-7.50553e-05
0.000300421
2.82229e-05
0.000240293
7.66415e-05
0.000195521
9.79049e-05
0.000161711
0.00011505
0.000132855
0.000130084
0.000106832
0.000141269
8.26423e-05
0.000149962
5.88272e-05
0.000158243
3.48715e-05
0.000165831
1.00153e-05
0.000172621
-1.59052e-05
0.000178078
-4.28911e-05
0.000181648
-7.05812e-05
0.000182641
-9.87233e-05
0.000180754
-0.000126622
0.000175343
-0.000153664
0.000166207
-0.000179173
0.000153171
-0.000202415
0.00013625
-0.000222627
0.000115611
-0.000239224
9.16418e-05
-0.000251669
6.48321e-05
-0.000259581
3.57763e-05
-0.000262629
4.98867e-06
-0.000260688
-2.64945e-05
-0.000253936
-5.83309e-05
-0.000242305
-8.97946e-05
-0.000225809
-0.000120518
-0.000204857
-0.000149437
-0.00017953
-0.000176426
-0.000150072
-0.000200888
-0.000117148
-0.000221898
-8.11491e-05
-0.000239032
-4.27746e-05
-0.000251222
-3.13899e-06
-0.000257708
3.65077e-05
-0.000257998
7.49407e-05
-0.000252062
0.000111094
-0.000240457
0.000144203
-0.000223899
0.000174028
-0.000203598
0.000199749
-0.00017956
0.000221051
-0.000153036
0.000238212
-0.00012459
0.00025053
-9.43193e-05
0.000258144
-6.33626e-05
0.000260843
-3.18483e-05
0.000258904
-9.50458e-07
0.000252326
2.93711e-05
0.000241261
5.85317e-05
0.000226139
8.56605e-05
0.000207373
0.000110454
0.000185393
0.000132351
0.000160809
0.000151039
0.000134264
0.000166265
0.000106292
0.000177928
7.75902e-05
0.000185953
4.87276e-05
0.000190633
1.98637e-05
0.000192272
-8.51283e-06
0.000191015
-3.62876e-05
0.000187359
-6.36343e-05
0.000181727
-9.06398e-05
0.000174448
-0.000118343
0.000166038
-0.000147739
0.000156018
-0.000179885
0.000143153
-0.000217414
0.000126155
-0.000267038
0.000107418
-0.000332529
8.35235e-05
-0.000398353
2.87055e-05
-0.000424338
-8.40985e-05
-0.000380078
-0.000230983
-0.000266896
-0.000341175
-0.00012388
-0.000337955
-2.27648e-05
-0.000196601
-2.81001e-05
6.32054e-05
-7.5753e-05
0.00023147
-0.000339505
0.000406718
-0.000482588
0.000523122
-0.000430605
0.00055852
-0.000247703
0.000516103
-3.26379e-05
0.00041715
0.000127175
0.000311192
0.000182599
0.00023237
0.000176726
0.00018141
0.000166009
0.000145805
0.00016569
0.000117117
0.000169957
9.15864e-05
0.000175492
6.69783e-05
0.000182851
4.20373e-05
0.000190772
1.58204e-05
0.000198838
-1.21181e-05
0.000206016
-4.15117e-05
0.000211041
-7.22591e-05
0.000213388
-0.000103639
0.000212134
-0.000135208
0.000206912
-0.000166024
0.000197024
-0.000195323
0.000182469
-0.00022213
0.000163056
-0.000245575
0.000139056
-0.000264839
0.000110906
-0.000279383
7.93763e-05
-0.000288605
4.49981e-05
-0.000292482
8.86525e-06
-0.000290687
-2.82892e-05
-0.000283452
-6.55666e-05
-0.000270507
-0.00010274
-0.000252653
-0.000138371
-0.000229622
-0.000172466
-0.000201601
-0.000204446
-0.000169233
-0.000233255
-0.00013247
-0.000258661
-9.19484e-05
-0.000279554
-4.84038e-05
-0.000294767
-3.12423e-06
-0.000302988
4.21098e-05
-0.000303232
8.55289e-05
-0.000295482
0.000126113
-0.000281041
0.000163119
-0.000260905
0.000195815
-0.000236295
0.000224189
-0.000207934
0.000247793
-0.00017664
0.000266201
-0.000142998
0.000279684
-0.000107803
0.000287686
-7.13644e-05
0.000290523
-3.4685e-05
0.000287929
1.6428e-06
0.000279999
3.73012e-05
0.000267274
7.12565e-05
0.000249909
0.000103025
0.000228437
0.000131926
0.000203382
0.000157406
0.000175446
0.000178975
0.000145386
0.000196325
0.000113975
0.00020934
8.18822e-05
0.000218046
4.98425e-05
0.000222673
1.8293e-05
0.000223822
-1.24582e-05
0.000221766
-4.22285e-05
0.00021713
-7.11266e-05
0.000210625
-0.000100037
0.000203357
-0.000129614
0.000195613
-0.000162363
0.000188766
-0.000202116
0.000182904
-0.000257963
0.000182
-0.000342408
0.000191862
-0.000452629
0.000193743
-0.000552698
0.000128774
-0.000594656
-4.21408e-05
-0.000558783
-0.000266857
-0.000439116
-0.000460842
-0.000254614
-0.000522458
-7.22629e-05
-0.000378953
-0.000100363
0.000124721
-0.000200474
0.000325576
-0.000540361
0.000477414
-0.000634426
0.000560768
-0.000513959
0.000581538
-0.000268474
0.000543095
5.80463e-06
0.000450904
0.000219366
0.000342204
0.000291298
0.000251426
0.000267504
0.00019095
0.000226484
0.000152268
0.000204372
0.000123921
0.000198303
9.92979e-05
0.000200116
7.52604e-05
0.000206888
5.00429e-05
0.000215989
2.26503e-05
0.000226231
-7.05017e-06
0.000235717
-3.91289e-05
0.00024312
-7.31747e-05
0.000247434
-0.000108661
0.000247621
-0.000144554
0.000242805
-0.000180122
0.000232592
-0.00021398
0.000216328
-0.000245172
0.000194248
-0.000272491
0.000166375
-0.000294977
0.000133394
-0.000312022
9.64223e-05
-0.000323004
5.59803e-05
-0.000327674
1.35369e-05
-0.000325888
-3.00744e-05
-0.000317833
-7.36189e-05
-0.000303794
-0.000116776
-0.00028384
-0.000158322
-0.000258159
-0.000198147
-0.000227638
-0.000234967
-0.000191748
-0.000269145
-0.00015062
-0.000299789
-0.000104938
-0.000325236
-5.50967e-05
-0.00034461
-2.96821e-06
-0.000355117
4.91056e-05
-0.000355307
9.86826e-05
-0.000345059
0.000144286
-0.000326645
0.000185405
-0.000302026
0.0002216
-0.00027249
0.000252656
-0.000238991
0.000278615
-0.0002026
0.000298925
-0.000163309
0.000313608
-0.000122487
0.000322274
-8.00309e-05
0.000325024
-3.74354e-05
0.000321756
4.91061e-06
0.000312603
4.64541e-05
0.000297864
8.59955e-05
0.000277753
0.000123136
0.000253053
0.000156625
0.000224262
0.000186197
0.000192313
0.000210924
0.000158078
0.00023056
0.000122469
0.000244948
8.66316e-05
0.000253884
5.0968e-05
0.000258337
1.6349e-05
0.000258441
-1.68349e-05
0.000254949
-4.84659e-05
0.000248761
-7.85915e-05
0.000240751
-0.000107749
0.000232515
-0.000137454
0.000225318
-0.00017047
0.000221782
-0.000213546
0.000225981
-0.000278074
0.000246528
-0.000371529
0.000285317
-0.000480263
0.000302477
-0.000570924
0.000219434
-0.000607888
-5.17703e-06
-0.000589797
-0.000284948
-0.000508082
-0.000542558
-0.000351774
-0.000678767
-0.000137678
-0.000593049
-0.000238042
0.000159044
-0.000359518
0.000310774
-0.00069209
0.000387412
-0.000711065
0.000418305
-0.000544852
0.000422205
-0.000272375
0.00039399
3.40194e-05
0.000345731
0.000267624
0.000282415
0.000354613
0.000222112
0.000327807
0.000177668
0.000270927
0.000147953
0.000234087
0.000125768
0.000220488
0.000105394
0.000220489
8.37873e-05
0.000228496
5.95286e-05
0.000240248
3.14818e-05
0.000254278
-1.69031e-07
0.000267368
-3.53908e-05
0.000278342
-7.33391e-05
0.000285383
-0.000113447
0.000287729
-0.000154769
0.000284126
-0.000195794
0.000273617
-0.000235515
0.000256049
-0.000272
0.000230734
-0.000304071
0.000198446
-0.000330521
0.000159844
-0.000350301
0.000116203
-0.000363158
6.8838e-05
-0.000368639
1.9019e-05
-0.000366574
-3.21382e-05
-0.000357305
-8.2887e-05
-0.000341599
-0.000132482
-0.000319279
-0.000180644
-0.000291359
-0.000226069
-0.000257475
-0.000268852
-0.000217526
-0.000309096
-0.000171785
-0.000345532
-0.000119777
-0.000377246
-6.27577e-05
-0.00040163
-2.81548e-06
-0.00041506
5.68576e-05
-0.000414981
0.000113514
-0.000401716
0.000165112
-0.000378245
0.000211169
-0.000348084
0.000251065
-0.000312386
0.000285365
-0.000273292
0.000313511
-0.000230747
0.000336194
-0.000185992
0.00035227
-0.000138563
0.000362052
-8.98133e-05
0.000364951
-4.03349e-05
0.000360998
8.86275e-06
0.000350297
5.71549e-05
0.000333272
0.000103019
0.000310129
0.000146277
0.000281611
0.000185142
0.000248461
0.000219346
0.000211547
0.000247837
0.000172245
0.000269862
0.00013192
0.000285273
9.11654e-05
0.000294638
5.15115e-05
0.00029799
1.34671e-05
0.000296485
-2.23214e-05
0.000290738
-5.5535e-05
0.000281975
-8.5927e-05
0.000271143
-0.000113849
0.000260437
-0.000140343
0.000251813
-0.000167885
0.000249326
-0.00020161
0.000259707
-0.000248011
0.000292929
-0.000307607
0.000344914
-0.00036777
0.00036264
-0.000411884
0.000263548
-0.000439825
2.27635e-05
-0.000437347
-0.000287426
-0.000410311
-0.000569594
-0.000333762
-0.000755317
-0.000173207
-0.000753604
-0.00041125
0.000128176
-0.000487694
0.000187968
-0.000751884
0.000188118
-0.000711215
0.000173594
-0.000530329
0.000164908
-0.000263689
0.000161372
3.75544e-05
0.000162604
0.000266393
0.000160033
0.000357184
0.000153075
0.000334765
0.000144065
0.000279937
0.000134483
0.00024367
0.000124429
0.000230542
0.000111827
0.000233093
9.50491e-05
0.000245273
7.26996e-05
0.000262598
4.48798e-05
0.000282098
1.12409e-05
0.000301007
-2.73212e-05
0.000316904
-7.00733e-05
0.000328135
-0.000115951
0.000333607
-0.000163806
0.00033198
-0.000212227
0.000322038
-0.000258838
0.000302659
-0.000302151
0.000274046
-0.000340149
0.000236443
-0.000371285
0.000190979
-0.000394553
0.000139471
-0.00040927
8.3553e-05
-0.000415325
2.50715e-05
-0.000412972
-3.4494e-05
-0.000402517
-9.33449e-05
-0.000384328
-0.000150673
-0.000359226
-0.000205748
-0.000327678
-0.000257617
-0.000289492
-0.000307038
-0.000244888
-0.0003537
-0.000193173
-0.000397245
-0.00013435
-0.000436069
-7.03546e-05
-0.000465625
-3.02316e-06
-0.000482392
6.41319e-05
-0.000482136
0.000127799
-0.000465383
0.000186223
-0.000436668
0.000237921
-0.000399782
0.000282927
-0.000357392
0.00032126
-0.000311624
0.000352859
-0.000262346
0.000377937
-0.000211069
0.000396046
-0.000156671
0.000406726
-0.000100493
0.000409817
-4.34254e-05
0.000405002
1.36784e-05
0.00039289
6.92681e-05
0.00037313
0.00012278
0.000346431
0.000172977
0.000313192
0.000218382
0.00027445
0.000258088
0.000231558
0.000290729
0.000185991
0.000315428
0.000139469
0.000331794
9.3461e-05
0.000340645
4.90887e-05
0.000342362
7.21804e-06
0.000338355
-3.143e-05
0.000329385
-6.58041e-05
0.000316348
-9.55993e-05
0.000300937
-0.000120515
0.000285352
-0.00014088
0.000272178
-0.000157344
0.000265789
-0.000171343
0.000273705
-0.000181718
0.000303303
-0.000186374
0.000349569
-0.000184381
0.000360646
-0.000179375
0.000258541
-0.000179819
2.32074e-05
-0.000187517
-0.000279729
-0.000204726
-0.000552385
-0.000204802
-0.000755241
-0.000140454
-0.000817953
-0.000551704
5.73079e-05
-0.000545002
3.77953e-05
-0.000732372
-6.31718e-06
-0.000667104
-5.0368e-05
-0.000486279
-7.43048e-05
-0.000239753
-6.20274e-05
2.52764e-05
-1.70158e-05
0.000221381
3.77793e-05
0.000302388
8.16561e-05
0.000290889
0.000108274
0.000253319
0.000122415
0.000229529
0.000127837
0.000225121
0.000126035
0.000234895
0.00011632
0.000254989
9.75993e-05
0.000281319
7.01519e-05
0.000309545
3.45656e-05
0.000336593
-8.21854e-06
0.000359689
-5.67736e-05
0.000376691
-0.0001098
0.000386633
-0.000166101
0.000388281
-0.000223621
0.000379559
-0.000279966
0.000359004
-0.000332169
0.000326248
-0.000377739
0.000282013
-0.000414795
0.000228034
-0.000442124
0.000166798
-0.000459228
0.000100656
-0.000465904
3.17462e-05
-0.000462963
-3.74353e-05
-0.000450505
-0.000105803
-0.00042949
-0.000171687
-0.000400655
-0.000234582
-0.000364393
-0.000293878
-0.000320875
-0.000350555
-0.000269805
-0.00040477
-0.000211436
-0.000455614
-0.000146777
-0.000500727
-7.7005e-05
-0.000535397
-3.98159e-06
-0.000555415
6.90914e-05
-0.000555208
0.000138899
-0.00053519
0.000203972
-0.00050174
0.000262394
-0.000458204
0.000313712
-0.000408709
0.000357195
-0.000355107
0.000393264
-0.000298415
0.00042164
-0.000239445
0.000441986
-0.000177017
0.000453987
-0.000112495
0.000456981
-4.64185e-05
0.000451157
1.95025e-05
0.000436663
8.37626e-05
0.000413956
0.000145487
0.000382983
0.00020395
0.000344045
0.00025732
0.000298341
0.000303792
0.000247601
0.000341468
0.000194163
0.000368866
0.000139953
0.000386003
8.7337e-05
0.00039326
3.70914e-05
0.000392607
-9.34377e-06
0.000384789
-5.08793e-05
0.00037092
-8.63651e-05
0.000351833
-0.000114783
0.000329354
-0.000135409
0.000305976
-0.000147435
0.000284202
-0.000150507
0.000268861
-0.000142377
0.000265574
-0.000117623
0.000278549
-7.29582e-05
0.000304905
-1.59439e-05
0.000303632
3.41104e-05
0.000208487
5.12009e-05
6.11641e-06
3.30061e-05
-0.000261534
-6.5254e-06
-0.000512854
-4.96585e-05
-0.000712108
-6.66611e-05
-0.000800951
-0.000618365
-5.93654e-06
-0.000539067
-6.38251e-05
-0.000674485
-0.000131174
-0.000599755
-0.00018981
-0.000427643
-0.000217902
-0.000211662
-0.000192144
-4.82039e-07
-0.000121946
0.000151182
-3.52683e-05
0.000215711
3.82252e-05
0.000217395
8.97119e-05
0.000201832
0.000123779
0.000195463
0.000145017
0.000203883
0.000154487
0.000225425
0.000152636
0.00025684
0.000138741
0.000295214
0.000112287
0.000336
7.41174e-05
0.000374764
2.64046e-05
0.000407402
-2.93249e-05
0.000432421
-9.14996e-05
0.000448809
-0.000158524
0.000455307
-0.000228243
0.000449279
-0.000296923
0.000427685
-0.00036048
0.000389805
-0.000415433
0.000336966
-0.000459313
0.000271914
-0.000490786
0.000198272
-0.000510038
0.000119909
-0.000517472
3.91817e-05
-0.000513344
-4.15623e-05
-0.000498324
-0.000120822
-0.000473582
-0.000196428
-0.000439801
-0.000268363
-0.000397707
-0.000335973
-0.000347936
-0.000400327
-0.000290798
-0.000461908
-0.000227201
-0.000519211
-0.000157954
-0.000569976
-8.32571e-05
-0.000610094
-5.30561e-06
-0.000633366
7.31146e-05
-0.000633629
0.000148893
-0.000610969
0.000219269
-0.000572116
0.000283803
-0.000522737
0.0003414
-0.000466306
0.000390866
-0.000404572
0.000431937
-0.000339486
0.000464143
-0.000271652
0.000487571
-0.000200444
0.000500876
-0.0001258
0.000503691
-4.92339e-05
0.000496906
2.62881e-05
0.000480834
9.98351e-05
0.000455268
0.000171053
0.000419851
0.000239368
0.000374404
0.000302766
0.000320075
0.000358121
0.000259276
0.000402267
0.000195155
0.000432987
0.000131088
0.00045007
6.94371e-05
0.00045491
1.19185e-05
0.000450125