/*--------------------------------*- C++ -*----------------------------------*\
| =========                 |                                                 |
| \\      /  F ield         | OpenFOAM: The Open Source CFD Toolbox           |
|  \\    /   O peration     | Version:  2412                                  |
|   \\  /    A nd           | Website:  www.openfoam.com                      |
|    \\/     M anipulation  |                                                 |
\*---------------------------------------------------------------------------*/
FoamFile
{
    version     2.0;
    format      ascii;
    arch        "LSB;label=32;scalar=64";
    class       volVectorField;
    location    "1.7";
    object      U;
}
// * * * * * * * * * * * * * * * * * * * * * * * * * * * * * * * * * * * * * //

dimensions      [0 1 -1 0 0 0 0];

internalField   nonuniform List<vector> 
6400
(
(2.91431e-11 -1.03854e-10 0)
(-2.34553e-10 -4.1706e-10 0)
(-8.85764e-10 -5.29891e-10 0)
(-1.45133e-09 -4.99628e-10 0)
(-1.97342e-09 -4.69677e-10 0)
(-2.50989e-09 -4.32349e-10 0)
(-3.06044e-09 -3.86256e-10 0)
(-3.58932e-09 -3.43839e-10 0)
(-4.07112e-09 -2.92171e-10 0)
(-4.47834e-09 -2.41056e-10 0)
(-4.80223e-09 -1.80621e-10 0)
(-5.02307e-09 -1.23545e-10 0)
(-5.13868e-09 -5.93665e-11 0)
(-5.13705e-09 1.72164e-12 0)
(-5.02599e-09 6.90935e-11 0)
(-4.8021e-09 1.33163e-10 0)
(-4.47758e-09 2.00161e-10 0)
(-4.05104e-09 2.61462e-10 0)
(-3.53388e-09 3.21498e-10 0)
(-2.92621e-09 3.74042e-10 0)
(-2.2408e-09 4.22565e-10 0)
(-1.48297e-09 4.63274e-10 0)
(-6.6996e-10 4.98637e-10 0)
(1.86443e-10 5.26122e-10 0)
(1.06535e-09 5.47194e-10 0)
(1.95061e-09 5.60247e-10 0)
(2.82011e-09 5.65994e-10 0)
(3.65634e-09 5.63429e-10 0)
(4.43878e-09 5.52904e-10 0)
(5.15163e-09 5.33842e-10 0)
(5.77852e-09 5.06365e-10 0)
(6.30811e-09 4.70164e-10 0)
(6.73031e-09 4.25378e-10 0)
(7.03978e-09 3.72064e-10 0)
(7.23302e-09 3.1064e-10 0)
(7.3104e-09 2.41633e-10 0)
(7.27376e-09 1.65877e-10 0)
(7.12752e-09 8.43543e-11 0)
(6.87682e-09 -1.74482e-12 0)
(6.5283e-09 -9.11312e-11 0)
(6.08872e-09 -1.82401e-10 0)
(5.56576e-09 -2.74157e-10 0)
(4.96678e-09 -3.64938e-10 0)
(4.29991e-09 -4.53388e-10 0)
(3.57274e-09 -5.38118e-10 0)
(2.79395e-09 -6.17998e-10 0)
(1.97162e-09 -6.91843e-10 0)
(1.11567e-09 -7.58907e-10 0)
(2.35349e-10 -8.18248e-10 0)
(-6.57375e-10 -8.69569e-10 0)
(-1.55179e-09 -9.12054e-10 0)
(-2.43379e-09 -9.45795e-10 0)
(-3.29192e-09 -9.6993e-10 0)
(-4.11086e-09 -9.84942e-10 0)
(-4.87992e-09 -9.89808e-10 0)
(-5.58404e-09 -9.85405e-10 0)
(-6.21547e-09 -9.70379e-10 0)
(-6.76141e-09 -9.45996e-10 0)
(-7.2192e-09 -9.10625e-10 0)
(-7.57964e-09 -8.66101e-10 0)
(-7.84605e-09 -8.10709e-10 0)
(-8.01294e-09 -7.4682e-10 0)
(-8.08956e-09 -6.72791e-10 0)
(-8.07327e-09 -5.91548e-10 0)
(-7.97715e-09 -5.02165e-10 0)
(-7.79834e-09 -4.08178e-10 0)
(-7.55027e-09 -3.09504e-10 0)
(-7.228e-09 -2.09382e-10 0)
(-6.8445e-09 -1.08307e-10 0)
(-6.39373e-09 -8.9209e-12 0)
(-5.88813e-09 8.72926e-11 0)
(-5.32077e-09 1.7804e-10 0)
(-4.70168e-09 2.60884e-10 0)
(-4.02323e-09 3.34959e-10 0)
(-3.2985e-09 4.01e-10 0)
(-2.54288e-09 4.64433e-10 0)
(-1.8148e-09 5.30586e-10 0)
(-1.17556e-09 6.00203e-10 0)
(-6.57718e-10 6.52114e-10 0)
(-2.61513e-10 5.01209e-10 0)
(-3.33444e-10 -2.94607e-10 0)
(-1.33272e-09 -6.87832e-10 0)
(-2.93863e-09 -7.58252e-10 0)
(-4.49329e-09 -6.30573e-10 0)
(-6.01864e-09 -5.06042e-10 0)
(-7.59305e-09 -3.43382e-10 0)
(-9.17816e-09 -2.01346e-10 0)
(-1.0721e-08 -8.27157e-11 0)
(-1.21346e-08 -2.43247e-12 0)
(-1.33759e-08 7.08765e-11 0)
(-1.43768e-08 1.18896e-10 0)
(-1.5123e-08 1.66719e-10 0)
(-1.55691e-08 1.97738e-10 0)
(-1.57252e-08 2.37956e-10 0)
(-1.55661e-08 2.71629e-10 0)
(-1.51174e-08 3.16088e-10 0)
(-1.43658e-08 3.53206e-10 0)
(-1.33425e-08 3.92317e-10 0)
(-1.20421e-08 4.19116e-10 0)
(-1.04991e-08 4.4174e-10 0)
(-8.71948e-09 4.528e-10 0)
(-6.74501e-09 4.60864e-10 0)
(-4.59638e-09 4.63195e-10 0)
(-2.32422e-09 4.6572e-10 0)
(3.77604e-11 4.66839e-10 0)
(2.4339e-09 4.69569e-10 0)
(4.82285e-09 4.72058e-10 0)
(7.14942e-09 4.74501e-10 0)
(9.37172e-09 4.74312e-10 0)
(1.14413e-08 4.6957e-10 0)
(1.33228e-08 4.56805e-10 0)
(1.49798e-08 4.32827e-10 0)
(1.63884e-08 3.94171e-10 0)
(1.75269e-08 3.38061e-10 0)
(1.83846e-08 2.62443e-10 0)
(1.89539e-08 1.66397e-10 0)
(1.92355e-08 5.01765e-11 0)
(1.92326e-08 -8.48133e-11 0)
(1.89543e-08 -2.36202e-10 0)
(1.84109e-08 -4.00827e-10 0)
(1.76169e-08 -5.75067e-10 0)
(1.65869e-08 -7.54894e-10 0)
(1.53388e-08 -9.36346e-10 0)
(1.38899e-08 -1.11534e-09 0)
(1.22608e-08 -1.28846e-09 0)
(1.04711e-08 -1.45237e-09 0)
(8.54499e-09 -1.60499e-09 0)
(6.5047e-09 -1.74422e-09 0)
(4.37911e-09 -1.86967e-09 0)
(2.19381e-09 -1.98013e-09 0)
(-1.71904e-11 -2.07634e-09 0)
(-2.22618e-09 -2.15703e-09 0)
(-4.39524e-09 -2.22339e-09 0)
(-6.49743e-09 -2.2733e-09 0)
(-8.49358e-09 -2.30805e-09 0)
(-1.03618e-08 -2.324e-09 0)
(-1.20654e-08 -2.32221e-09 0)
(-1.35924e-08 -2.2975e-09 0)
(-1.49119e-08 -2.25147e-09 0)
(-1.60249e-08 -2.17863e-09 0)
(-1.69074e-08 -2.08214e-09 0)
(-1.7574e-08 -1.95704e-09 0)
(-1.80065e-08 -1.80855e-09 0)
(-1.82309e-08 -1.63421e-09 0)
(-1.82307e-08 -1.44264e-09 0)
(-1.8037e-08 -1.2352e-09 0)
(-1.76302e-08 -1.02156e-09 0)
(-1.7043e-08 -8.04176e-10 0)
(-1.62532e-08 -5.90241e-10 0)
(-1.5295e-08 -3.82648e-10 0)
(-1.41467e-08 -1.86086e-10 0)
(-1.28438e-08 -5.01965e-12 0)
(-1.13682e-08 1.57961e-10 0)
(-9.7564e-09 3.02439e-10 0)
(-8.00719e-09 4.45924e-10 0)
(-6.19409e-09 6.23627e-10 0)
(-4.39681e-09 8.86879e-10 0)
(-2.71932e-09 1.23814e-09 0)
(-1.21179e-09 1.51621e-09 0)
(-3.68005e-10 1.15422e-09 0)
(-5.40539e-10 -5.85155e-10 0)
(-1.95552e-09 -1.0299e-09 0)
(-3.99807e-09 -9.81382e-10 0)
(-5.98463e-09 -6.82752e-10 0)
(-7.98444e-09 -3.40898e-10 0)
(-1.00669e-08 2.42231e-11 0)
(-1.22116e-08 3.6527e-10 0)
(-1.43074e-08 6.02277e-10 0)
(-1.62845e-08 7.71446e-10 0)
(-1.80251e-08 8.55218e-10 0)
(-1.94936e-08 9.05286e-10 0)
(-2.06043e-08 9.00184e-10 0)
(-2.13602e-08 8.88116e-10 0)
(-2.17046e-08 8.49937e-10 0)
(-2.16663e-08 8.22156e-10 0)
(-2.12092e-08 7.79839e-10 0)
(-2.03747e-08 7.43724e-10 0)
(-1.91412e-08 6.8871e-10 0)
(-1.75568e-08 6.29465e-10 0)
(-1.56153e-08 5.51068e-10 0)
(-1.33724e-08 4.68242e-10 0)
(-1.084e-08 3.76843e-10 0)
(-8.08278e-09 2.90734e-10 0)
(-5.13187e-09 2.09619e-10 0)
(-2.0597e-09 1.42249e-10 0)
(1.08782e-09 8.81182e-11 0)
(4.23589e-09 5.01683e-11 0)
(7.3321e-09 2.52972e-11 0)
(1.03066e-08 1.10048e-11 0)
(1.31098e-08 1.2342e-12 0)
(1.56841e-08 -1.05318e-11 0)
(1.79905e-08 -3.22169e-11 0)
(1.99886e-08 -7.14961e-11 0)
(2.16543e-08 -1.35279e-10 0)
(2.29659e-08 -2.28962e-10 0)
(2.39145e-08 -3.55758e-10 0)
(2.44947e-08 -5.16644e-10 0)
(2.47106e-08 -7.10219e-10 0)
(2.45688e-08 -9.33112e-10 0)
(2.40829e-08 -1.18037e-09 0)
(2.32676e-08 -1.44581e-09 0)
(2.21431e-08 -1.72274e-09 0)
(2.07293e-08 -2.0039e-09 0)
(1.90515e-08 -2.28269e-09 0)
(1.71331e-08 -2.55252e-09 0)
(1.50041e-08 -2.80865e-09 0)
(1.26914e-08 -3.04656e-09 0)
(1.02306e-08 -3.26454e-09 0)
(7.65217e-09 -3.46029e-09 0)
(4.99822e-09 -3.63467e-09 0)
(2.30177e-09 -3.78604e-09 0)
(-3.89585e-10 -3.91632e-09 0)
(-3.04332e-09 -4.0227e-09 0)
(-5.60868e-09 -4.10709e-09 0)
(-8.0584e-09 -4.16408e-09 0)
(-1.03425e-08 -4.19468e-09 0)
(-1.24449e-08 -4.19007e-09 0)
(-1.43204e-08 -4.15095e-09 0)
(-1.5969e-08 -4.06685e-09 0)
(-1.73521e-08 -3.94057e-09 0)
(-1.84877e-08 -3.7624e-09 0)
(-1.93432e-08 -3.53864e-09 0)
(-1.99532e-08 -3.26311e-09 0)
(-2.02875e-08 -2.94821e-09 0)
(-2.0391e-08 -2.59523e-09 0)
(-2.02299e-08 -2.22193e-09 0)
(-1.98535e-08 -1.8343e-09 0)
(-1.92224e-08 -1.44805e-09 0)
(-1.83881e-08 -1.06943e-09 0)
(-1.73092e-08 -7.08082e-10 0)
(-1.60402e-08 -3.70217e-10 0)
(-1.45447e-08 -6.01477e-11 0)
(-1.28803e-08 2.16245e-10 0)
(-1.10234e-08 4.69437e-10 0)
(-9.04469e-09 7.28171e-10 0)
(-6.9759e-09 1.06991e-09 0)
(-4.95773e-09 1.57223e-09 0)
(-3.04618e-09 2.20542e-09 0)
(-1.31802e-09 2.57472e-09 0)
(-3.86588e-10 1.68054e-09 0)
(-5.70353e-10 -5.16691e-10 0)
(-2.07273e-09 -9.42522e-10 0)
(-4.13657e-09 -8.05312e-10 0)
(-6.12961e-09 -3.20724e-10 0)
(-8.14013e-09 2.41595e-10 0)
(-1.02984e-08 8.69705e-10 0)
(-1.25395e-08 1.39778e-09 0)
(-1.48027e-08 1.78858e-09 0)
(-1.69403e-08 1.98935e-09 0)
(-1.8897e-08 2.079e-09 0)
(-2.05452e-08 2.0384e-09 0)
(-2.18767e-08 1.94687e-09 0)
(-2.27989e-08 1.78234e-09 0)
(-2.33388e-08 1.61189e-09 0)
(-2.34304e-08 1.4074e-09 0)
(-2.31209e-08 1.21112e-09 0)
(-2.23645e-08 9.89586e-10 0)
(-2.12178e-08 7.6825e-10 0)
(-1.96533e-08 5.22732e-10 0)
(-1.77348e-08 2.75642e-10 0)
(-1.54557e-08 1.72624e-11 0)
(-1.28872e-08 -2.2987e-10 0)
(-1.00442e-08 -4.64659e-10 0)
(-7.00508e-09 -6.69257e-10 0)
(-3.80489e-09 -8.41073e-10 0)
(-5.2624e-10 -9.70746e-10 0)
(2.78273e-09 -1.05925e-09 0)
(6.04172e-09 -1.10671e-09 0)
(9.19901e-09 -1.11986e-09 0)
(1.21841e-08 -1.10695e-09 0)
(1.49513e-08 -1.07971e-09 0)
(1.7446e-08 -1.05111e-09 0)
(1.96351e-08 -1.03433e-09 0)
(2.14833e-08 -1.04172e-09 0)
(2.29728e-08 -1.08316e-09 0)
(2.40871e-08 -1.1659e-09 0)
(2.48234e-08 -1.29342e-09 0)
(2.51807e-08 -1.46604e-09 0)
(2.51681e-08 -1.68084e-09 0)
(2.47963e-08 -1.93242e-09 0)
(2.40836e-08 -2.21361e-09 0)
(2.30481e-08 -2.51578e-09 0)
(2.17149e-08 -2.8302e-09 0)
(2.01072e-08 -3.14764e-09 0)
(1.82555e-08 -3.46061e-09 0)
(1.61868e-08 -3.76177e-09 0)
(1.39373e-08 -4.04724e-09 0)
(1.1537e-08 -4.31285e-09 0)
(9.02874e-09 -4.55875e-09 0)
(6.44453e-09 -4.78256e-09 0)
(3.83313e-09 -4.9866e-09 0)
(1.22576e-09 -5.1675e-09 0)
(-1.32456e-09 -5.32776e-09 0)
(-3.7919e-09 -5.46068e-09 0)
(-6.12209e-09 -5.56732e-09 0)
(-8.30046e-09 -5.63577e-09 0)
(-1.02756e-08 -5.66532e-09 0)
(-1.20496e-08 -5.63991e-09 0)
(-1.35761e-08 -5.56021e-09 0)
(-1.48773e-08 -5.40996e-09 0)
(-1.59111e-08 -5.19429e-09 0)
(-1.67198e-08 -4.90049e-09 0)
(-1.7263e-08 -4.54145e-09 0)
(-1.75979e-08 -4.1142e-09 0)
(-1.76794e-08 -3.64176e-09 0)
(-1.75731e-08 -3.13166e-09 0)
(-1.72251e-08 -2.60945e-09 0)
(-1.67036e-08 -2.08588e-09 0)
(-1.59481e-08 -1.57885e-09 0)
(-1.5029e-08 -1.09731e-09 0)
(-1.38875e-08 -6.48187e-10 0)
(-1.25975e-08 -2.39993e-10 0)
(-1.11106e-08 1.31878e-10 0)
(-9.50519e-09 4.75242e-10 0)
(-7.7615e-09 8.50047e-10 0)
(-5.99184e-09 1.35379e-09 0)
(-4.25277e-09 2.10418e-09 0)
(-2.63269e-09 3.01474e-09 0)
(-1.1231e-09 3.48324e-09 0)
(-3.70862e-10 2.1401e-09 0)
(-5.65449e-10 -3.41668e-10 0)
(-1.97999e-09 -7.7938e-10 0)
(-3.90293e-09 -6.0117e-10 0)
(-5.69639e-09 1.94762e-11 0)
(-7.53202e-09 8.53039e-10 0)
(-9.51399e-09 1.73465e-09 0)
(-1.16546e-08 2.52728e-09 0)
(-1.3816e-08 3.05073e-09 0)
(-1.59412e-08 3.35402e-09 0)
(-1.7869e-08 3.40997e-09 0)
(-1.95782e-08 3.33388e-09 0)
(-2.09404e-08 3.10594e-09 0)
(-2.19794e-08 2.82715e-09 0)
(-2.25973e-08 2.47025e-09 0)
(-2.28438e-08 2.10903e-09 0)
(-2.26446e-08 1.70565e-09 0)
(-2.20636e-08 1.30436e-09 0)
(-2.10479e-08 8.69555e-10 0)
(-1.96682e-08 4.34221e-10 0)
(-1.78939e-08 -1.99015e-11 0)
(-1.58013e-08 -4.61998e-10 0)
(-1.33838e-08 -8.93838e-10 0)
(-1.07226e-08 -1.2874e-09 0)
(-7.83341e-09 -1.63689e-09 0)
(-4.80128e-09 -1.92344e-09 0)
(-1.66054e-09 -2.1436e-09 0)
(1.50435e-09 -2.29117e-09 0)
(4.64889e-09 -2.3703e-09 0)
(7.69565e-09 -2.38739e-09 0)
(1.05996e-08 -2.3551e-09 0)
(1.32967e-08 -2.28921e-09 0)
(1.57497e-08 -2.20766e-09 0)
(1.79122e-08 -2.12943e-09 0)
(1.97595e-08 -2.07169e-09 0)
(2.12643e-08 -2.04973e-09 0)
(2.24163e-08 -2.07443e-09 0)
(2.32053e-08 -2.1529e-09 0)
(2.36346e-08 -2.28736e-09 0)
(2.37078e-08 -2.47629e-09 0)
(2.34391e-08 -2.71466e-09 0)
(2.28423e-08 -2.9947e-09 0)
(2.19398e-08 -3.30723e-09 0)
(2.07524e-08 -3.64154e-09 0)
(1.9309e-08 -3.98788e-09 0)
(1.76346e-08 -4.33602e-09 0)
(1.57641e-08 -4.67919e-09 0)
(1.37253e-08 -5.01037e-09 0)
(1.15593e-08 -5.3277e-09 0)
(9.29556e-09 -5.62711e-09 0)
(6.98089e-09 -5.9103e-09 0)
(4.64339e-09 -6.17307e-09 0)
(2.33453e-09 -6.41806e-09 0)
(7.69454e-11 -6.63764e-09 0)
(-2.07546e-09 -6.83317e-09 0)
(-4.11104e-09 -6.99072e-09 0)
(-5.97649e-09 -7.1088e-09 0)
(-7.67705e-09 -7.16669e-09 0)
(-9.16216e-09 -7.16256e-09 0)
(-1.04578e-08 -7.07328e-09 0)
(-1.15158e-08 -6.90148e-09 0)
(-1.23842e-08 -6.62678e-09 0)
(-1.30148e-08 -6.26026e-09 0)
(-1.34745e-08 -5.79146e-09 0)
(-1.37096e-08 -5.24491e-09 0)
(-1.37993e-08 -4.62563e-09 0)
(-1.36789e-08 -3.96764e-09 0)
(-1.34333e-08 -3.28591e-09 0)
(-1.29857e-08 -2.61011e-09 0)
(-1.24231e-08 -1.95473e-09 0)
(-1.16641e-08 -1.33349e-09 0)
(-1.07988e-08 -7.57817e-10 0)
(-9.75192e-09 -2.26728e-10 0)
(-8.61523e-09 2.53442e-10 0)
(-7.33156e-09 7.16904e-10 0)
(-6.00257e-09 1.22026e-09 0)
(-4.62157e-09 1.90615e-09 0)
(-3.31981e-09 2.88521e-09 0)
(-2.07338e-09 4.04042e-09 0)
(-8.87999e-10 4.53862e-09 0)
(-3.40273e-10 2.68552e-09 0)
(-5.59893e-10 -2.04011e-10 0)
(-1.86112e-09 -6.92591e-10 0)
(-3.5934e-09 -5.68261e-10 0)
(-5.16887e-09 1.97451e-10 0)
(-6.74465e-09 1.26248e-09 0)
(-8.51671e-09 2.47374e-09 0)
(-1.0423e-08 3.50172e-09 0)
(-1.24378e-08 4.25722e-09 0)
(-1.439e-08 4.63139e-09 0)
(-1.62507e-08 4.75467e-09 0)
(-1.78582e-08 4.60903e-09 0)
(-1.9232e-08 4.33701e-09 0)
(-2.02432e-08 3.91189e-09 0)
(-2.09456e-08 3.44524e-09 0)
(-2.12345e-08 2.89829e-09 0)
(-2.11804e-08 2.34492e-09 0)
(-2.07015e-08 1.74022e-09 0)
(-1.98772e-08 1.13226e-09 0)
(-1.865e-08 4.90465e-10 0)
(-1.71031e-08 -1.44382e-10 0)
(-1.52043e-08 -7.81455e-10 0)
(-1.30392e-08 -1.38338e-09 0)
(-1.06004e-08 -1.94446e-09 0)
(-7.97498e-09 -2.43485e-09 0)
(-5.17758e-09 -2.8462e-09 0)
(-2.29439e-09 -3.16259e-09 0)
(6.43843e-10 -3.38278e-09 0)
(3.55616e-09 -3.50721e-09 0)
(6.40467e-09 -3.5457e-09 0)
(9.11914e-09 -3.51299e-09 0)
(1.16632e-08 -3.42843e-09 0)
(1.39817e-08 -3.31501e-09 0)
(1.60465e-08 -3.19551e-09 0)
(1.78199e-08 -3.09284e-09 0)
(1.92856e-08 -3.02578e-09 0)
(2.04233e-08 -3.0099e-09 0)
(2.12294e-08 -3.05476e-09 0)
(2.1699e-08 -3.16541e-09 0)
(2.18403e-08 -3.34155e-09 0)
(2.16606e-08 -3.57889e-09 0)
(2.11778e-08 -3.86992e-09 0)
(2.04082e-08 -4.20435e-09 0)
(1.93773e-08 -4.57134e-09 0)
(1.81072e-08 -4.95863e-09 0)
(1.66299e-08 -5.35653e-09 0)
(1.4971e-08 -5.75473e-09 0)
(1.31687e-08 -6.14829e-09 0)
(1.125e-08 -6.53035e-09 0)
(9.25915e-09 -6.90079e-09 0)
(7.22157e-09 -7.25379e-09 0)
(5.18622e-09 -7.59134e-09 0)
(3.17305e-09 -7.90477e-09 0)
(1.23421e-09 -8.19549e-09 0)
(-6.20912e-10 -8.4484e-09 0)
(-2.33908e-09 -8.66191e-09 0)
(-3.92726e-09 -8.8122e-09 0)
(-5.33286e-09 -8.89553e-09 0)
(-6.58362e-09 -8.88264e-09 0)
(-7.62722e-09 -8.77316e-09 0)
(-8.51425e-09 -8.53884e-09 0)
(-9.19049e-09 -8.18783e-09 0)
(-9.72845e-09 -7.70043e-09 0)
(-1.00672e-08 -7.09951e-09 0)
(-1.02959e-08 -6.38323e-09 0)
(-1.03411e-08 -5.59031e-09 0)
(-1.03017e-08 -4.73663e-09 0)
(-1.00887e-08 -3.86431e-09 0)
(-9.80496e-09 -2.99522e-09 0)
(-9.35023e-09 -2.15556e-09 0)
(-8.8303e-09 -1.36242e-09 0)
(-8.14479e-09 -6.20063e-10 0)
(-7.40133e-09 5.65131e-11 0)
(-6.51067e-09 6.85844e-10 0)
(-5.58051e-09 1.28211e-09 0)
(-4.55344e-09 1.94783e-09 0)
(-3.55269e-09 2.80747e-09 0)
(-2.57197e-09 4.00576e-09 0)
(-1.65822e-09 5.3433e-09 0)
(-7.0599e-10 5.78793e-09 0)
(-3.18472e-10 3.31745e-09 0)
(-5.64962e-10 -8.76523e-11 0)
(-1.75965e-09 -6.97634e-10 0)
(-3.33471e-09 -6.58887e-10 0)
(-4.68457e-09 1.75907e-10 0)
(-6.05555e-09 1.52138e-09 0)
(-7.56914e-09 2.99821e-09 0)
(-9.28398e-09 4.35359e-09 0)
(-1.10575e-08 5.28313e-09 0)
(-1.28727e-08 5.83997e-09 0)
(-1.4544e-08 5.97515e-09 0)
(-1.60848e-08 5.87272e-09 0)
(-1.73363e-08 5.50892e-09 0)
(-1.83572e-08 5.04081e-09 0)
(-1.90147e-08 4.42704e-09 0)
(-1.93885e-08 3.77989e-09 0)
(-1.9367e-08 3.0483e-09 0)
(-1.90384e-08 2.30474e-09 0)
(-1.83162e-08 1.50527e-09 0)
(-1.7293e-08 7.03501e-10 0)
(-1.5909e-08 -1.21685e-10 0)
(-1.42566e-08 -9.23131e-10 0)
(-1.23027e-08 -1.70006e-09 0)
(-1.01384e-08 -2.41205e-09 0)
(-7.75532e-09 -3.04803e-09 0)
(-5.24178e-09 -3.58053e-09 0)
(-2.61001e-09 -4.0017e-09 0)
(5.69673e-11 -4.30243e-09 0)
(2.73368e-09 -4.48651e-09 0)
(5.34602e-09 -4.56339e-09 0)
(7.86357e-09 -4.54984e-09 0)
(1.02249e-08 -4.46903e-09 0)
(1.2402e-08 -4.34605e-09 0)
(1.43487e-08 -4.20921e-09 0)
(1.60446e-08 -4.08372e-09 0)
(1.746e-08 -3.99366e-09 0)
(1.85846e-08 -3.95669e-09 0)
(1.94043e-08 -3.98631e-09 0)
(1.992e-08 -4.08909e-09 0)
(2.01309e-08 -4.26683e-09 0)
(2.00486e-08 -4.51611e-09 0)
(1.96828e-08 -4.82949e-09 0)
(1.9054e-08 -5.19711e-09 0)
(1.81794e-08 -5.60638e-09 0)
(1.70871e-08 -6.04579e-09 0)
(1.5799e-08 -6.50233e-09 0)
(1.43499e-08 -6.96771e-09 0)
(1.2764e-08 -7.4318e-09 0)
(1.10825e-08 -7.89163e-09 0)
(9.3288e-09 -8.33905e-09 0)
(7.54896e-09 -8.77448e-09 0)
(5.76135e-09 -9.18782e-09 0)
(4.0159e-09 -9.57993e-09 0)
(2.32105e-09 -9.9348e-09 0)
(7.29107e-10 -1.0251e-08 0)
(-7.66859e-10 -1.05031e-08 0)
(-2.11336e-09 -1.06863e-08 0)
(-3.33757e-09 -1.07666e-08 0)
(-4.38421e-09 -1.07409e-08 0)
(-5.30352e-09 -1.05735e-08 0)
(-6.03626e-09 -1.0269e-08 0)
(-6.65638e-09 -9.79806e-09 0)
(-7.09661e-09 -9.17983e-09 0)
(-7.45147e-09 -8.40214e-09 0)
(-7.64e-09 -7.50398e-09 0)
(-7.77132e-09 -6.49677e-09 0)
(-7.74644e-09 -5.43209e-09 0)
(-7.68217e-09 -4.33711e-09 0)
(-7.46278e-09 -3.25407e-09 0)
(-7.20953e-09 -2.20898e-09 0)
(-6.79936e-09 -1.21684e-09 0)
(-6.35637e-09 -2.98882e-10 0)
(-5.76339e-09 5.55188e-10 0)
(-5.14336e-09 1.33077e-09 0)
(-4.39794e-09 2.08996e-09 0)
(-3.65042e-09 2.9015e-09 0)
(-2.85086e-09 3.94795e-09 0)
(-2.12701e-09 5.32408e-09 0)
(-1.38944e-09 6.81203e-09 0)
(-6.07294e-10 7.13038e-09 0)
(-2.95845e-10 3.98856e-09 0)
(-5.67624e-10 2.93946e-11 0)
(-1.69106e-09 -7.35344e-10 0)
(-3.11054e-09 -8.67211e-10 0)
(-4.30921e-09 6.18167e-11 0)
(-5.46338e-09 1.59842e-09 0)
(-6.80626e-09 3.41387e-09 0)
(-8.27276e-09 5.00355e-09 0)
(-9.8879e-09 6.21854e-09 0)
(-1.14711e-08 6.87236e-09 0)
(-1.30353e-08 7.14303e-09 0)
(-1.43912e-08 7.00614e-09 0)
(-1.55989e-08 6.67134e-09 0)
(-1.64997e-08 6.09894e-09 0)
(-1.71853e-08 5.44556e-09 0)
(-1.75169e-08 4.654e-09 0)
(-1.75956e-08 3.83059e-09 0)
(-1.7304e-08 2.91882e-09 0)
(-1.67461e-08 1.99197e-09 0)
(-1.58324e-08 1.01384e-09 0)
(-1.46656e-08 4.29474e-11 0)
(-1.31845e-08 -9.30052e-10 0)
(-1.14873e-08 -1.85444e-09 0)
(-9.5403e-09 -2.72075e-09 0)
(-7.43584e-09 -3.48981e-09 0)
(-5.16431e-09 -4.1483e-09 0)
(-2.81114e-09 -4.67532e-09 0)
(-3.84988e-10 -5.06665e-09 0)
(2.03739e-09 -5.32277e-09 0)
(4.43628e-09 -5.45417e-09 0)
(6.74599e-09 -5.47996e-09 0)
(8.94306e-09 -5.42346e-09 0)
(1.0975e-08 -5.31475e-09 0)
(1.28206e-08 -5.18249e-09 0)
(1.44418e-08 -5.05745e-09 0)
(1.5824e-08 -4.96447e-09 0)
(1.69436e-08 -4.92594e-09 0)
(1.77949e-08 -4.95639e-09 0)
(1.83679e-08 -5.06561e-09 0)
(1.86668e-08 -5.25642e-09 0)
(1.86933e-08 -5.52673e-09 0)
(1.8461e-08 -5.86999e-09 0)
(1.79806e-08 -6.27566e-09 0)
(1.72745e-08 -6.73231e-09 0)
(1.63594e-08 -7.22579e-09 0)
(1.52654e-08 -7.74532e-09 0)
(1.4013e-08 -8.27781e-09 0)
(1.26391e-08 -8.81711e-09 0)
(1.11649e-08 -9.35237e-09 0)
(9.63312e-09 -9.88174e-09 0)
(8.06089e-09 -1.03934e-08 0)
(6.49547e-09 -1.08869e-08 0)
(4.94527e-09 -1.13455e-08 0)
(3.46098e-09 -1.17675e-08 0)
(2.03702e-09 -1.21268e-08 0)
(7.26877e-10 -1.24185e-08 0)
(-4.9415e-10 -1.26059e-08 0)
(-1.56903e-09 -1.26835e-08 0)
(-2.54502e-09 -1.26093e-08 0)
(-3.35914e-09 -1.23845e-08 0)
(-4.08314e-09 -1.19703e-08 0)
(-4.64448e-09 -1.13815e-08 0)
(-5.13834e-09 -1.05937e-08 0)
(-5.47725e-09 -9.64274e-09 0)
(-5.77561e-09 -8.52992e-09 0)
(-5.92641e-09 -7.31116e-09 0)
(-6.05699e-09 -6.01339e-09 0)
(-6.03937e-09 -4.69432e-09 0)
(-6.00839e-09 -3.38918e-09 0)
(-5.82156e-09 -2.1298e-09 0)
(-5.61833e-09 -9.46065e-10 0)
(-5.25523e-09 1.64889e-10 0)
(-4.87395e-09 1.1755e-09 0)
(-4.34471e-09 2.121e-09 0)
(-3.80359e-09 3.01024e-09 0)
(-3.15066e-09 3.98472e-09 0)
(-2.52657e-09 5.17509e-09 0)
(-1.88643e-09 6.72937e-09 0)
(-1.27454e-09 8.31489e-09 0)
(-5.4984e-10 8.4882e-09 0)
(-2.82796e-10 4.65514e-09 0)
(-5.71503e-10 1.73025e-10 0)
(-1.61893e-09 -8.09126e-10 0)
(-2.93632e-09 -1.09856e-09 0)
(-3.97209e-09 -1.69981e-10 0)
(-5.00165e-09 1.62236e-09 0)
(-6.1331e-09 3.65576e-09 0)
(-7.45825e-09 5.57962e-09 0)
(-8.83095e-09 6.96093e-09 0)
(-1.02905e-08 7.84497e-09 0)
(-1.16341e-08 8.14207e-09 0)
(-1.29173e-08 8.1063e-09 0)
(-1.39515e-08 7.70668e-09 0)
(-1.48389e-08 7.15641e-09 0)
(-1.54164e-08 6.39347e-09 0)
(-1.58024e-08 5.56544e-09 0)
(-1.58512e-08 4.60302e-09 0)
(-1.56819e-08 3.607e-09 0)
(-1.51739e-08 2.52455e-09 0)
(-1.44428e-08 1.43015e-09 0)
(-1.33977e-08 2.99673e-10 0)
(-1.21474e-08 -8.05402e-10 0)
(-1.06306e-08 -1.88251e-09 0)
(-8.94698e-09 -2.88137e-09 0)
(-7.06232e-09 -3.78658e-09 0)
(-5.06635e-09 -4.56479e-09 0)
(-2.94739e-09 -5.20387e-09 0)
(-7.84989e-10 -5.69272e-09 0)
(1.41616e-09 -6.03294e-09 0)
(3.58736e-09 -6.23575e-09 0)
(5.7143e-09 -6.31861e-09 0)
(7.74005e-09 -6.30922e-09 0)
(9.6469e-09 -6.23567e-09 0)
(1.13904e-08 -6.13221e-09 0)
(1.29545e-08 -6.02829e-09 0)
(1.43075e-08 -5.95398e-09 0)
(1.54389e-08 -5.93131e-09 0)
(1.63296e-08 -5.97888e-09 0)
(1.6977e-08 -6.10689e-09 0)
(1.73738e-08 -6.32059e-09 0)
(1.75259e-08 -6.61877e-09 0)
(1.74363e-08 -6.99537e-09 0)
(1.71196e-08 -7.44128e-09 0)
(1.65865e-08 -7.94345e-09 0)
(1.58601e-08 -8.4902e-09 0)
(1.49562e-08 -9.06679e-09 0)
(1.3906e-08 -9.66429e-09 0)
(1.27272e-08 -1.02694e-08 0)
(1.14579e-08 -1.08777e-08 0)
(1.0114e-08 -1.14755e-08 0)
(8.73894e-09 -1.2061e-08 0)
(7.34132e-09 -1.26161e-08 0)
(5.96926e-09 -1.31389e-08 0)
(4.61912e-09 -1.36029e-08 0)
(3.34327e-09 -1.40037e-08 0)
(2.12071e-09 -1.43034e-08 0)
(1.00889e-09 -1.44955e-08 0)
(-3.46205e-11 -1.45333e-08 0)
(-9.4465e-10 -1.44149e-08 0)
(-1.78789e-09 -1.40934e-08 0)
(-2.48799e-09 -1.35788e-08 0)
(-3.13678e-09 -1.28349e-08 0)
(-3.6417e-09 -1.1892e-08 0)
(-4.11735e-09 -1.07378e-08 0)
(-4.45014e-09 -9.42731e-09 0)
(-4.77316e-09 -7.97968e-09 0)
(-4.94926e-09 -6.46348e-09 0)
(-5.12417e-09 -4.91933e-09 0)
(-5.14007e-09 -3.39933e-09 0)
(-5.14998e-09 -1.94427e-09 0)
(-4.98633e-09 -5.65879e-10 0)
(-4.80731e-09 7.01263e-10 0)
(-4.45391e-09 1.88309e-09 0)
(-4.08412e-09 2.94984e-09 0)
(-3.56055e-09 3.98925e-09 0)
(-3.03165e-09 5.0691e-09 0)
(-2.41113e-09 6.41725e-09 0)
(-1.84702e-09 8.09595e-09 0)
(-1.22769e-09 9.78378e-09 0)
(-5.44127e-10 9.7873e-09 0)
(-2.61902e-10 5.29367e-09 0)
(-5.62504e-10 3.31821e-10 0)
(-1.55673e-09 -8.60447e-10 0)
(-2.7498e-09 -1.38586e-09 0)
(-3.69233e-09 -4.02462e-10 0)
(-4.55029e-09 1.52365e-09 0)
(-5.57695e-09 3.8726e-09 0)
(-6.68363e-09 5.97609e-09 0)
(-7.93754e-09 7.65487e-09 0)
(-9.15534e-09 8.6271e-09 0)
(-1.04069e-08 9.10449e-09 0)
(-1.14786e-08 9.04302e-09 0)
(-1.24734e-08 8.7243e-09 0)
(-1.32008e-08 8.09256e-09 0)
(-1.3797e-08 7.34887e-09 0)
(-1.40917e-08 6.41108e-09 0)
(-1.4224e-08 5.4148e-09 0)
(-1.40434e-08 4.28863e-09 0)
(-1.36829e-08 3.12904e-09 0)
(-1.302e-08 1.89366e-09 0)
(-1.21781e-08 6.57213e-10 0)
(-1.1066e-08 -5.90129e-10 0)
(-9.7946e-09 -1.78734e-09 0)
(-8.30275e-09 -2.9219e-09 0)
(-6.68744e-09 -3.94847e-09 0)
(-4.91384e-09 -4.8493e-09 0)
(-3.06578e-09 -5.60058e-09 0)
(-1.12935e-09 -6.19416e-09 0)
(8.2394e-10 -6.63051e-09 0)
(2.79316e-09 -6.91802e-09 0)
(4.71845e-09 -7.07811e-09 0)
(6.58994e-09 -7.13401e-09 0)
(8.35893e-09 -7.11954e-09 0)
(1.00119e-08 -7.06495e-09 0)
(1.15112e-08 -7.00538e-09 0)
(1.28442e-08 -6.96833e-09 0)
(1.39844e-08 -6.98057e-09 0)
(1.49237e-08 -7.0596e-09 0)
(1.56463e-08 -7.21897e-09 0)
(1.6151e-08 -7.46404e-09 0)
(1.6432e-08 -7.79518e-09 0)
(1.64962e-08 -8.20757e-09 0)
(1.63462e-08 -8.6916e-09 0)
(1.59975e-08 -9.23674e-09 0)
(1.54593e-08 -9.82845e-09 0)
(1.47556e-08 -1.04563e-08 0)
(1.38995e-08 -1.11052e-08 0)
(1.29229e-08 -1.17686e-08 0)
(1.18388e-08 -1.24312e-08 0)
(1.0686e-08 -1.30896e-08 0)
(9.47254e-09 -1.37248e-08 0)
(8.24262e-09 -1.4334e-08 0)
(6.99435e-09 -1.4891e-08 0)
(5.77761e-09 -1.53916e-08 0)
(4.57535e-09 -1.57982e-08 0)
(3.44394e-09 -1.61043e-08 0)
(2.34673e-09 -1.6261e-08 0)
(1.34923e-09 -1.6264e-08 0)
(3.91704e-10 -1.60598e-08 0)
(-4.47579e-10 -1.56546e-08 0)
(-1.25392e-09 -1.50007e-08 0)
(-1.93156e-09 -1.41229e-08 0)
(-2.59103e-09 -1.29939e-08 0)
(-3.11395e-09 -1.16641e-08 0)
(-3.63386e-09 -1.01386e-08 0)
(-4.00678e-09 -8.49003e-09 0)
(-4.3849e-09 -6.75626e-09 0)
(-4.59949e-09 -5.00803e-09 0)
(-4.81529e-09 -3.29605e-09 0)
(-4.84525e-09 -1.65459e-09 0)
(-4.86149e-09 -1.27947e-10 0)
(-4.6764e-09 1.30083e-09 0)
(-4.46734e-09 2.5896e-09 0)
(-4.06594e-09 3.7974e-09 0)
(-3.64314e-09 4.9146e-09 0)
(-3.06422e-09 6.12425e-09 0)
(-2.49548e-09 7.55917e-09 0)
(-1.86833e-09 9.38385e-09 0)
(-1.25987e-09 1.11299e-08 0)
(-5.37331e-10 1.09976e-08 0)
(-2.47136e-10 5.88126e-09 0)
(-5.53793e-10 5.16925e-10 0)
(-1.46658e-09 -9.25721e-10 0)
(-2.57407e-09 -1.63982e-09 0)
(-3.36848e-09 -7.1748e-10 0)
(-4.13896e-09 1.4417e-09 0)
(-4.97492e-09 3.94913e-09 0)
(-5.99051e-09 6.36224e-09 0)
(-7.01147e-09 8.15492e-09 0)
(-8.13046e-09 9.37672e-09 0)
(-9.13856e-09 9.87346e-09 0)
(-1.01473e-08 9.95688e-09 0)
(-1.09385e-08 9.58111e-09 0)
(-1.16581e-08 9.02023e-09 0)
(-1.21099e-08 8.18926e-09 0)
(-1.24557e-08 7.26935e-09 0)
(-1.25182e-08 6.16852e-09 0)
(-1.24523e-08 5.01151e-09 0)
(-1.21048e-08 3.73417e-09 0)
(-1.16174e-08 2.42855e-09 0)
(-1.08679e-08 1.06744e-09 0)
(-9.98202e-09 -2.76513e-10 0)
(-8.86985e-09 -1.59936e-09 0)
(-7.63931e-09 -2.84473e-09 0)
(-6.22999e-09 -3.99332e-09 0)
(-4.73265e-09 -5.00884e-09 0)
(-3.11182e-09 -5.8745e-09 0)
(-1.443e-09 -6.57852e-09 0)
(2.8987e-10 -7.11851e-09 0)
(2.02452e-09 -7.50658e-09 0)
(3.76307e-09 -7.75741e-09 0)
(5.45434e-09 -7.90053e-09 0)
(7.09161e-09 -7.96269e-09 0)
(8.63339e-09 -7.9806e-09 0)
(1.0069e-08 -7.98386e-09 0)
(1.13662e-08 -8.00548e-09 0)
(1.25146e-08 -8.06877e-09 0)
(1.34913e-08 -8.19536e-09 0)
(1.42896e-08 -8.39732e-09 0)
(1.48955e-08 -8.68248e-09 0)
(1.53086e-08 -9.05155e-09 0)
(1.5523e-08 -9.50027e-09 0)
(1.55461e-08 -1.00212e-08 0)
(1.53793e-08 -1.06021e-08 0)
(1.50385e-08 -1.12325e-08 0)
(1.45305e-08 -1.18973e-08 0)
(1.38797e-08 -1.25881e-08 0)
(1.3095e-08 -1.3289e-08 0)
(1.22084e-08 -1.39947e-08 0)
(1.12263e-08 -1.46863e-08 0)
(1.01877e-08 -1.536e-08 0)
(9.09131e-09 -1.59898e-08 0)
(7.9829e-09 -1.6572e-08 0)
(6.84888e-09 -1.707e-08 0)
(5.74271e-09 -1.74782e-08 0)
(4.63353e-09 -1.77474e-08 0)
(3.58515e-09 -1.78724e-08 0)
(2.54552e-09 -1.77956e-08 0)
(1.59264e-09 -1.75197e-08 0)
(6.49759e-10 -1.6988e-08 0)
(-1.86459e-10 -1.62199e-08 0)
(-1.01911e-09 -1.51733e-08 0)
(-1.72745e-09 -1.38926e-08 0)
(-2.44076e-09 -1.23657e-08 0)
(-3.0108e-09 -1.06633e-08 0)
(-3.59091e-09 -8.81152e-09 0)
(-4.00479e-09 -6.89336e-09 0)
(-4.42512e-09 -4.96233e-09 0)
(-4.65147e-09 -3.07839e-09 0)
(-4.86834e-09 -1.2988e-09 0)
(-4.8635e-09 3.73963e-10 0)
(-4.82967e-09 1.89103e-09 0)
(-4.56611e-09 3.30378e-09 0)
(-4.26798e-09 4.56466e-09 0)
(-3.76488e-09 5.79273e-09 0)
(-3.24038e-09 7.04456e-09 0)
(-2.57916e-09 8.60095e-09 0)
(-1.96022e-09 1.05036e-08 0)
(-1.2696e-09 1.23447e-08 0)
(-5.48096e-10 1.2071e-08 0)
(-2.176e-10 6.41671e-09 0)
(-5.28626e-10 7.02089e-10 0)
(-1.37083e-09 -9.58212e-10 0)
(-2.33053e-09 -1.94471e-09 0)
(-3.03683e-09 -9.93201e-10 0)
(-3.62957e-09 1.24129e-09 0)
(-4.38103e-09 4.05457e-09 0)
(-5.18395e-09 6.58174e-09 0)
(-6.12572e-09 8.65145e-09 0)
(-6.99677e-09 9.91624e-09 0)
(-7.92755e-09 1.06187e-08 0)
(-8.69279e-09 1.06726e-08 0)
(-9.44979e-09 1.04213e-08 0)
(-9.97629e-09 9.78999e-09 0)
(-1.04524e-08 9.02578e-09 0)
(-1.06743e-08 8.02175e-09 0)
(-1.08226e-08 6.93912e-09 0)
(-1.07148e-08 5.68851e-09 0)
(-1.0516e-08 4.3841e-09 0)
(-1.00723e-08 2.97642e-09 0)
(-9.52896e-09 1.5519e-09 0)
(-8.76519e-09 1.00216e-10 0)
(-7.90414e-09 -1.31164e-09 0)
(-6.85757e-09 -2.66817e-09 0)
(-5.7267e-09 -3.92176e-09 0)
(-4.45199e-09 -5.04986e-09 0)
(-3.11527e-09 -6.0283e-09 0)
(-1.68066e-09 -6.84392e-09 0)
(-2.1367e-10 -7.49779e-09 0)
(1.30338e-09 -7.99364e-09 0)
(2.81769e-09 -8.35358e-09 0)
(4.33338e-09 -8.5969e-09 0)
(5.80717e-09 -8.75815e-09 0)
(7.23422e-09 -8.86495e-09 0)
(8.57911e-09 -8.95359e-09 0)
(9.83273e-09 -9.05048e-09 0)
(1.09671e-08 -9.18401e-09 0)
(1.1973e-08 -9.3719e-09 0)
(1.28297e-08 -9.6295e-09 0)
(1.35311e-08 -9.96325e-09 0)
(1.40638e-08 -1.03753e-08 0)
(1.44273e-08 -1.08626e-08 0)
(1.46152e-08 -1.1417e-08 0)
(1.46348e-08 -1.20299e-08 0)
(1.44857e-08 -1.26874e-08 0)
(1.41837e-08 -1.33807e-08 0)
(1.3732e-08 -1.40938e-08 0)
(1.31549e-08 -1.48205e-08 0)
(1.24553e-08 -1.55421e-08 0)
(1.16653e-08 -1.62541e-08 0)
(1.07831e-08 -1.69317e-08 0)
(9.84831e-09 -1.7571e-08 0)
(8.84972e-09 -1.81374e-08 0)
(7.83588e-09 -1.86264e-08 0)
(6.78099e-09 -1.89904e-08 0)
(5.74487e-09 -1.92246e-08 0)
(4.68296e-09 -1.92697e-08 0)
(3.67043e-09 -1.91264e-08 0)
(2.63997e-09 -1.87316e-08 0)
(1.68654e-09 -1.80998e-08 0)
(7.16657e-10 -1.71765e-08 0)
(-1.4955e-10 -1.59996e-08 0)
(-1.03335e-09 -1.45387e-08 0)
(-1.78525e-09 -1.28598e-08 0)
(-2.55478e-09 -1.09704e-08 0)
(-3.16158e-09 -8.9584e-09 0)
(-3.78088e-09 -6.86994e-09 0)
(-4.20366e-09 -4.7864e-09 0)
(-4.62427e-09 -2.77358e-09 0)
(-4.81299e-09 -8.64838e-10 0)
(-4.97575e-09 8.80579e-10 0)
(-4.88158e-09 2.50089e-09 0)
(-4.74399e-09 3.93999e-09 0)
(-4.35706e-09 5.29094e-09 0)
(-3.93186e-09 6.52616e-09 0)
(-3.30637e-09 7.87093e-09 0)
(-2.68033e-09 9.45652e-09 0)
(-1.96674e-09 1.14868e-08 0)
(-1.28312e-09 1.33713e-08 0)
(-5.18458e-10 1.30214e-08 0)
(-1.93711e-10 6.89105e-09 0)
(-5.02997e-10 8.94819e-10 0)
(-1.22092e-09 -1.0392e-09 0)
(-2.05295e-09 -2.21434e-09 0)
(-2.58017e-09 -1.3618e-09 0)
(-3.08912e-09 1.08311e-09 0)
(-3.63132e-09 4.00682e-09 0)
(-4.35709e-09 6.83706e-09 0)
(-5.06289e-09 8.95297e-09 0)
(-5.86704e-09 1.04552e-08 0)
(-6.53837e-09 1.11409e-08 0)
(-7.25098e-09 1.13691e-08 0)
(-7.76969e-09 1.10621e-08 0)
(-8.29338e-09 1.05459e-08 0)
(-8.59351e-09 9.71204e-09 0)
(-8.87528e-09 8.77437e-09 0)
(-8.92807e-09 7.61896e-09 0)
(-8.94436e-09 6.38841e-09 0)
(-8.73895e-09 5.00632e-09 0)
(-8.48121e-09 3.57602e-09 0)
(-8.01857e-09 2.0672e-09 0)
(-7.49384e-09 5.58003e-10 0)
(-6.78891e-09 -9.4579e-10 0)
(-6.01957e-09 -2.38652e-09 0)
(-5.09979e-09 -3.74039e-09 0)
(-4.12095e-09 -4.97177e-09 0)
(-3.02495e-09 -6.05822e-09 0)
(-1.88274e-09 -6.98938e-09 0)
(-6.58374e-10 -7.75718e-09 0)
(5.93334e-10 -8.37451e-09 0)
(1.89089e-09 -8.85023e-09 0)
(3.19046e-09 -9.21358e-09 0)
(4.49698e-09 -9.48608e-09 0)
(5.77397e-09 -9.70391e-09 0)
(7.01727e-09 -9.89292e-09 0)
(8.1964e-09 -1.00861e-08 0)
(9.30284e-09 -1.03046e-08 0)
(1.03117e-08 -1.05706e-08 0)
(1.1214e-08 -1.08955e-08 0)
(1.19901e-08 -1.12879e-08 0)
(1.26337e-08 -1.17494e-08 0)
(1.31312e-08 -1.22772e-08 0)