/*--------------------------------*- C++ -*----------------------------------*\
| =========                 |                                                 |
| \\      /  F ield         | OpenFOAM: The Open Source CFD Toolbox           |
|  \\    /   O peration     | Version:  2412                                  |
|   \\  /    A nd           | Website:  www.openfoam.com                      |
|    \\/     M anipulation  |                                                 |
\*---------------------------------------------------------------------------*/
FoamFile
{
    version     2.0;
    format      ascii;
    arch        "LSB;label=32;scalar=64";
    class       surfaceScalarField;
    location    "0.4";
    object      phi;
}
// * * * * * * * * * * * * * * * * * * * * * * * * * * * * * * * * * * * * * //

dimensions      [0 3 -1 0 0 0 0];

oriented        oriented;

internalField   nonuniform List<scalar> 
12640
(
1.69542e-13
-1.52819e-13
-9.65041e-13
-1.39734e-12
-1.3455e-12
-1.96135e-12
-1.56528e-12
-1.99745e-12
-1.92491e-12
-1.85657e-12
-2.46705e-12
-1.67624e-12
-3.16213e-12
-1.51825e-12
-3.98154e-12
-1.38213e-12
-4.88038e-12
-1.28611e-12
-5.83002e-12
-1.21603e-12
-6.7907e-12
-1.18476e-12
-7.73469e-12
-1.18118e-12
-8.62327e-12
-1.21663e-12
-9.42747e-12
-1.28123e-12
-1.01115e-11
-1.38174e-12
-1.0652e-11
-1.50565e-12
-1.10255e-11
-1.65358e-12
-1.12215e-11
-1.81352e-12
-1.12337e-11
-1.98179e-12
-1.10675e-11
-2.14797e-12
-1.07339e-11
-2.30685e-12
-1.02539e-11
-2.44889e-12
-9.65234e-12
-2.57021e-12
-8.95773e-12
-2.66671e-12
-8.19951e-12
-2.73696e-12
-7.40713e-12
-2.78022e-12
-6.60744e-12
-2.79833e-12
-5.82391e-12
-2.79391e-12
-5.07576e-12
-2.77056e-12
-4.3777e-12
-2.73225e-12
-3.73959e-12
-2.68337e-12
-3.16668e-12
-2.6282e-12
-2.66007e-12
-2.57069e-12
-2.21728e-12
-2.5143e-12
-1.83287e-12
-2.46199e-12
-1.49909e-12
-2.41604e-12
-1.20675e-12
-2.37803e-12
-9.45721e-13
-2.34893e-12
-7.05238e-13
-2.32944e-12
-4.73878e-13
-2.32021e-12
-2.39375e-13
-2.32201e-12
1.15244e-14
-2.33566e-12
2.93143e-13
-2.36196e-12
6.20801e-13
-2.4016e-12
1.01068e-12
-2.45504e-12
1.47953e-12
-2.52245e-12
2.04435e-12
-2.60375e-12
2.72194e-12
-2.69843e-12
3.52828e-12
-2.80552e-12
4.47729e-12
-2.92301e-12
5.57961e-12
-3.0478e-12
6.84045e-12
-3.17492e-12
8.2584e-12
-3.29838e-12
9.82311e-12
-3.41008e-12
1.15148e-11
-3.5016e-12
1.33009e-11
-3.56146e-12
1.51373e-11
-3.57915e-12
1.69642e-11
-3.54045e-12
1.87122e-11
-3.4368e-12
2.02981e-11
-3.25572e-12
2.16379e-11
-2.99743e-12
2.26398e-11
-2.65441e-12
2.32267e-11
-2.24193e-12
2.3323e-11
-1.76136e-12
2.28933e-11
-1.25197e-12
2.19139e-11
-7.24791e-13
2.04235e-11
-2.4073e-13
1.84684e-11
1.94067e-13
1.61663e-11
5.09875e-13
1.36239e-11
7.18939e-13
1.10133e-11
7.56934e-13
8.46381e-12
6.67999e-13
6.14776e-12
4.09565e-13
4.16399e-12
5.63858e-14
2.62989e-12
-4.09286e-13
1.57405e-12
-8.97062e-13
9.96398e-13
-1.3774e-12
7.4599e-13
-1.69946e-12
5.44821e-13
-1.73821e-12
-1.28063e-12
-5.29614e-13
-2.10949e-12
-2.01532e-12
-4.70417e-12
-2.7828e-12
-5.69895e-12
-3.4888e-12
-5.66415e-12
-4.5411e-12
-5.16762e-12
-5.99882e-12
-4.56787e-12
-7.83566e-12
-4.00497e-12
-9.96239e-12
-3.54411e-12
-1.2309e-11
-3.18742e-12
-1.4779e-11
-2.95002e-12
-1.72966e-11
-2.82556e-12
-1.97647e-11
-2.82557e-12
-2.2104e-11
-2.94361e-12
-2.4224e-11
-3.18162e-12
-2.605e-11
-3.53099e-12
-2.75087e-11
-3.97888e-12
-2.85516e-11
-4.50277e-12
-2.9142e-11
-5.08046e-12
-2.92692e-11
-5.68394e-12
-2.89397e-11
-6.28653e-12
-2.81822e-11
-6.86187e-12
-2.70417e-11
-7.38366e-12
-2.55787e-11
-7.83212e-12
-2.38616e-11
-8.19407e-12
-2.1963e-11
-8.4626e-12
-1.99554e-11
-8.63539e-12
-1.79073e-11
-8.71689e-12
-1.58797e-11
-8.71586e-12
-1.39234e-11
-8.64482e-12
-1.20781e-11
-8.51799e-12
-1.03715e-11
-8.35093e-12
-8.81969e-12
-8.15896e-12
-7.42812e-12
-7.95659e-12
-6.19251e-12
-7.7567e-12
-5.10065e-12
-7.57028e-12
-4.13405e-12
-7.40595e-12
-3.26965e-12
-7.27004e-12
-2.48102e-12
-7.16695e-12
-1.73914e-12
-7.09995e-12
-1.01271e-12
-7.07185e-12
-2.68222e-13
-7.08532e-12
5.30147e-13
-7.14302e-12
1.42036e-12
-7.2473e-12
2.4423e-12
-7.40004e-12
3.63711e-12
-7.60225e-12
5.04657e-12
-7.85409e-12
6.71195e-12
-8.15447e-12
8.67293e-12
-8.50102e-12
1.09652e-11
-8.88891e-12
1.36183e-11
-9.31034e-12
1.6651e-11
-9.75259e-12
2.0069e-11
-1.01987e-11
2.38591e-11
-1.06259e-11
2.79879e-11
-1.10078e-11
3.23949e-11
-1.13113e-11
3.69933e-11
-1.15014e-11
4.1661e-11
-1.15351e-11
4.62505e-11
-1.13751e-11
5.05785e-11
-1.09797e-11
5.44507e-11
-1.03271e-11
5.76472e-11
-9.39309e-12
5.99671e-11
-8.18972e-12
6.12037e-11
-6.7258e-12
6.12194e-11
-5.06981e-12
5.98981e-11
-3.28048e-12
5.72475e-11
-1.48905e-12
5.33076e-11
2.14887e-13
4.82749e-11
1.67236e-12
4.23564e-11
2.80632e-12
3.59129e-11
3.47814e-12
2.92572e-11
3.67329e-12
2.28079e-11
3.33194e-12
1.68608e-11
2.53584e-12
1.1752e-11
1.32109e-12
7.64727e-12
-1.57461e-13
4.67899e-12
-1.77355e-12
2.7558e-12
-3.27318e-12
1.57381e-12
-4.3029e-12
4.99746e-13
-4.32134e-12
-2.45644e-12
-9.25399e-13
-3.51198e-12
-2.65787e-12
-7.42408e-12
-3.7664e-12
-8.76386e-12
-4.99579e-12
-8.49154e-12
-6.70815e-12
-7.50344e-12
-8.98828e-12
-6.32346e-12
-1.17695e-11
-5.23755e-12
-1.49603e-11
-4.33805e-12
-1.84382e-11
-3.66056e-12
-2.2095e-11
-3.20844e-12
-2.58018e-11
-2.99766e-12
-2.94396e-11
-3.03071e-12
-3.28792e-11
-3.3119e-12
-3.60038e-11
-3.83052e-12
-3.87026e-11
-4.57271e-12
-4.08795e-11
-5.51174e-12
-4.24601e-11
-6.60453e-12
-4.33934e-11
-7.80652e-12
-4.36609e-11
-9.05893e-12
-4.32704e-11
-1.03093e-11
-4.22601e-11
-1.15016e-11
-4.06884e-11
-1.25887e-11
-3.86372e-11
-1.35271e-11
-3.61998e-11
-1.42908e-11
-3.34785e-11
-1.48626e-11
-3.05748e-11
-1.52399e-11
-2.75866e-11
-1.5429e-11
-2.46013e-11
-1.54484e-11
-2.16935e-11
-1.53219e-11
-1.89221e-11
-1.50792e-11
-1.63298e-11
-1.47512e-11
-1.39423e-11
-1.43698e-11
-1.17701e-11
-1.39648e-11
-9.80958e-12
-1.3563e-11
-8.04553e-12
-1.31873e-11
-6.4531e-12
-1.28561e-11
-5.00007e-12
-1.25834e-11
-3.64847e-12
-1.23794e-11
-2.35582e-12
-1.2252e-11
-1.07586e-12
-1.22077e-11
2.41116e-13
-1.22524e-11
1.64791e-12
-1.23914e-11
3.20003e-12
-1.26291e-11
4.95494e-12
-1.29688e-11
6.97122e-12
-1.34118e-11
9.30722e-12
-1.39574e-11
1.20198e-11
-1.46024e-11
1.51617e-11
-1.53399e-11
1.87789e-11
-1.61586e-11
2.29057e-11
-1.70391e-11
2.75616e-11
-1.79545e-11
3.27435e-11
-1.88669e-11
3.84246e-11
-1.97307e-11
4.45443e-11
-2.0488e-11
5.10093e-11
-2.10752e-11
5.76813e-11
-2.14144e-11
6.43862e-11
-2.14292e-11
7.08994e-11
-2.10341e-11
7.69731e-11
-2.01661e-11
8.23162e-11
-1.87619e-11
8.66466e-11
-1.68069e-11
8.96606e-11
-1.42921e-11
9.11195e-11
-1.12906e-11
9.07999e-11
-7.88511e-12
8.8614e-11
-4.2676e-12
8.45205e-11
-6.134e-13
7.86677e-11
2.80096e-12
7.12516e-11
5.77142e-12
6.26686e-11
8.02277e-12
5.33162e-11
9.417e-12
4.37386e-11
9.79428e-12
3.43977e-11
9.17865e-12
2.58035e-11
7.605e-12
1.83107e-11
5.26711e-12
1.22227e-11
2.37298e-12
7.64031e-12
-7.45536e-13
4.47787e-12
-3.64713e-12
2.37333e-12
-5.7167e-12
6.40115e-13
-5.99824e-12
-3.35207e-12
-1.12742e-12
-4.56503e-12
-3.13891e-12
-9.61579e-12
-4.67993e-12
-1.11706e-11
-6.44155e-12
-1.05657e-11
-8.80429e-12
-8.966e-12
-1.17986e-11
-7.14212e-12
-1.53691e-11
-5.45995e-12
-1.93847e-11
-4.08958e-12
-2.37176e-11
-3.06562e-12
-2.82257e-11
-2.40776e-12
-3.27704e-11
-2.13037e-12
-3.72089e-11
-2.24069e-12
-4.13947e-11
-2.74707e-12
-4.51924e-11
-3.62794e-12
-4.84726e-11
-4.86382e-12
-5.11322e-11
-6.40199e-12
-5.3079e-11
-8.18958e-12
-5.42603e-11
-1.01436e-11
-5.4645e-11
-1.21844e-11
-5.42463e-11
-1.42162e-11
-5.30999e-11
-1.61604e-11
-5.12765e-11
-1.79347e-11
-4.88627e-11
-1.94787e-11
-4.59684e-11
-2.07423e-11
-4.27085e-11
-2.17019e-11
-3.92032e-11
-2.23482e-11
-3.55653e-11
-2.26938e-11
-3.18996e-11
-2.2764e-11
-2.82949e-11
-2.25979e-11
-2.48235e-11
-2.22408e-11
-2.15379e-11
-2.17433e-11
-1.84717e-11
-2.11557e-11
-1.564e-11
-2.05264e-11
-1.30416e-11
-1.98988e-11
-1.06609e-11
-1.93104e-11
-8.47038e-12
-1.87916e-11
-6.43329e-12
-1.83663e-11
-4.50523e-12
-1.80525e-11
-2.63585e-12
-1.78642e-11
-7.69745e-13
-1.7813e-11
1.15279e-12
-1.79087e-11
3.19509e-12
-1.81601e-11
5.42324e-12
-1.85736e-11
7.9051e-12
-1.91536e-11
1.0709e-11
-1.99011e-11
1.39024e-11
-2.08138e-11
1.75494e-11
-2.18845e-11
2.17085e-11
-2.31004e-11
2.64274e-11
-2.4439e-11
3.17397e-11
-2.58672e-11
3.76574e-11
-2.73371e-11
4.41682e-11
-2.87873e-11
5.12255e-11
-3.01397e-11
5.87491e-11
-3.13043e-11
6.66109e-11
-3.21715e-11
7.46431e-11
-3.26258e-11
8.26205e-11
-3.25358e-11
9.0286e-11
-3.17859e-11
9.73271e-11
-3.02595e-11
1.03428e-10
-2.7891e-11
1.08232e-10
-2.46277e-11
1.11436e-10
-2.05106e-11
1.1273e-10
-1.56079e-11
1.11929e-10
-1.01271e-11
1.08886e-10
-4.29345e-12
1.03651e-10
1.52199e-12
9.6327e-11
6.98929e-12
8.72539e-11
1.16727e-11
7.68014e-11
1.52669e-11
6.55367e-11
1.7438e-11
5.39867e-11
1.80677e-11
4.27746e-11
1.70847e-11
3.23984e-11
1.46509e-11
2.33246e-11
1.09935e-11
1.58451e-11
6.4977e-12
1.00834e-11
1.66569e-12
5.96746e-12
-2.86359e-12
3.08501e-12
-6.15056e-12
8.6253e-13
-6.99734e-12
-3.9472e-12
-1.26668e-12
-5.4159e-12
-3.5782e-12
-1.13342e-11
-5.53463e-12
-1.30004e-11
-7.82272e-12
-1.19542e-11
-1.07443e-11
-9.70932e-12
-1.43396e-11
-7.20096e-12
-1.85006e-11
-4.93645e-12
-2.31053e-11
-3.1014e-12
-2.80007e-11
-1.76354e-12
-3.30369e-11
-9.41607e-13
-3.8071e-11
-6.44123e-13
-4.29482e-11
-8.91129e-13
-4.75341e-11
-1.67079e-12
-5.16757e-11
-2.98006e-12
-5.52574e-11
-4.76243e-12
-5.81583e-11
-6.97066e-12
-6.03026e-11
-9.50756e-12
-6.16206e-11
-1.22847e-11
-6.20933e-11
-1.51725e-11
-6.17181e-11
-1.80592e-11
-6.05405e-11
-2.08179e-11
-5.86216e-11
-2.33505e-11
-5.60566e-11
-2.55615e-11
-5.29503e-11
-2.73903e-11
-4.94255e-11
-2.87939e-11
-4.5603e-11
-2.97637e-11
-4.16041e-11
-3.03107e-11
-3.75377e-11
-3.04717e-11
-3.35006e-11
-3.02972e-11
-2.95701e-11
-2.98512e-11
-2.58053e-11
-2.92026e-11
-2.22443e-11
-2.84222e-11
-1.89066e-11
-2.75774e-11
-1.57937e-11
-2.67299e-11
-1.28917e-11
-2.59329e-11
-1.01739e-11
-2.52304e-11
-7.60269e-12
-2.46571e-11
-5.13225e-12
-2.42401e-11
-2.70955e-12
-2.40006e-11
-2.75793e-13
-2.3956e-11
2.23262e-12
-2.41211e-11
4.883e-12
-2.45076e-11
7.74524e-12
-2.51243e-11
1.08905e-11
-2.59759e-11
1.439e-11
-2.70628e-11
1.8313e-11
-2.83796e-11
2.27243e-11
-2.99145e-11
2.76808e-11
-3.16454e-11
3.32269e-11
-3.3538e-11
3.93885e-11
-3.55402e-11
4.6169e-11
-3.75823e-11
5.35405e-11
-3.95725e-11
6.14433e-11
-4.14017e-11
6.97722e-11
-4.29365e-11
7.83829e-11
-4.40299e-11
8.70739e-11
-4.4511e-11
9.56077e-11
-4.42144e-11
1.03687e-10
-4.29662e-11
1.10999e-10
-4.06378e-11
1.17184e-10
-3.71143e-11
1.21912e-10
-3.2376e-11
1.24828e-10
-2.64396e-11
1.25685e-10
-1.94772e-11
1.24245e-10
-1.17082e-11
1.20457e-10
-3.5401e-12
1.14311e-10
4.61555e-12
1.06037e-10
1.21892e-11
9.59072e-11
1.87061e-11
8.44285e-11
2.36269e-11
7.2096e-11
2.66297e-11
5.95583e-11
2.74439e-11
4.73754e-11
2.60875e-11
3.6127e-11
2.27044e-11
2.62446e-11
1.76721e-11
1.80315e-11
1.1506e-11
1.16314e-11
4.86987e-12
6.92221e-12
-1.3309e-12
3.58051e-12
-5.96994e-12
9.76176e-13
-7.46528e-12
-4.34113e-12
-1.40207e-12
-6.04768e-12
-3.93144e-12
-1.26247e-11
-6.27548e-12
-1.42439e-11
-8.98308e-12
-1.27275e-11
-1.23633e-11
-9.79864e-12
-1.63832e-11
-6.64313e-12
-2.09403e-11
-3.83022e-12
-2.58826e-11
-1.5964e-12
-3.10569e-11
-1.20879e-14
-3.63183e-11
9.10374e-13
-4.15115e-11
1.15091e-12
-4.65108e-11
7.18726e-13
-5.11662e-11
-3.98759e-13
-5.53696e-11
-2.15683e-12
-5.89846e-11
-4.52679e-12
-6.1929e-11
-7.40758e-12
-6.41049e-11
-1.07181e-11
-6.5474e-11
-1.43108e-11
-6.5995e-11
-1.80592e-11
-6.56829e-11
-2.1796e-11
-6.45599e-11
-2.53864e-11
-6.26952e-11
-2.86852e-11
-6.01646e-11
-3.15888e-11
-5.70746e-11
-3.40056e-11
-5.35333e-11
-3.58891e-11
-4.96614e-11
-3.72175e-11
-4.55719e-11
-3.80081e-11
-4.13741e-11
-3.83007e-11
-3.71615e-11
-3.81609e-11
-3.30133e-11
-3.76666e-11
-2.89891e-11
-3.69062e-11
-2.51302e-11
-3.59688e-11
-2.14586e-11
-3.49417e-11
-1.79793e-11
-3.39038e-11
-1.46813e-11
-3.29248e-11
-1.15411e-11
-3.2062e-11
-8.52396e-12
-3.13618e-11
-5.58643e-12
-3.08606e-11
-2.67746e-12
-3.05875e-11
2.60067e-13
-3.05662e-11
3.28804e-12
-3.08161e-11
6.47183e-12
-3.13521e-11
9.87895e-12
-3.21847e-11
1.35779e-11
-3.33187e-11
1.76364e-11
-3.47529e-11
2.21196e-11
-3.64787e-11
2.70872e-11
-3.84776e-11
3.25894e-11
-4.07179e-11
3.86615e-11
-4.31496e-11
4.53201e-11
-4.57018e-11
5.25545e-11
-4.8278e-11
6.03254e-11
-5.07585e-11
6.8554e-11
-5.29957e-11
7.71253e-11
-5.48212e-11
8.58717e-11
-5.60372e-11
9.45901e-11
-5.64388e-11
1.03018e-10
-5.58036e-11
1.10876e-10
-5.39405e-11
1.17827e-10
-5.06676e-11
1.23555e-10
-4.58894e-11
1.27705e-10
-3.95481e-11
1.3e-10
-3.17413e-11
1.30159e-10
-2.26313e-11
1.28054e-10
-1.2595e-11
1.2358e-10
-2.05696e-12
1.16856e-10
8.34552e-12
1.08031e-10
1.80155e-11
9.75029e-11
2.62297e-11
8.56694e-11
3.245e-11
7.31278e-11
3.6155e-11
6.04143e-11
3.71353e-11
4.81455e-11
3.53298e-11
3.68216e-11
3.09995e-11
2.68709e-11
2.45957e-11
1.85863e-11
1.67707e-11
1.2056e-11
8.39438e-12
7.23654e-12
5.03957e-13
3.70789e-12
-5.41305e-12
1.04757e-12
-7.69623e-12
-4.56323e-12
-1.4749e-12
-6.50068e-12
-4.1963e-12
-1.3478e-11
-6.80141e-12
-1.49941e-11
-9.84266e-12
-1.29391e-11
-1.35165e-11
-9.36698e-12
-1.78016e-11
-5.5968e-12
-2.25498e-11
-2.31618e-12
-2.76009e-11
2.25795e-13
-3.28088e-11
1.971e-12
-3.80138e-11
2.89267e-12
-4.31051e-11
3.0184e-12
-4.79346e-11
2.32018e-12
-5.24162e-11
8.47444e-13
-5.64179e-11
-1.40084e-12
-5.98734e-11
-4.32988e-12
-6.26712e-11
-7.88379e-12
-6.47695e-11
-1.1912e-11
-6.60988e-11
-1.62945e-11
-6.66557e-11
-2.08395e-11
-6.64228e-11
-2.53929e-11
-6.54389e-11
-2.9764e-11
-6.37407e-11
-3.38086e-11
-6.14071e-11
-3.73804e-11
-5.85169e-11
-4.03865e-11
-5.51734e-11
-4.2755e-11
-5.1476e-11
-4.44667e-11
-4.75312e-11
-4.55311e-11
-4.34348e-11
-4.5998e-11
-3.9276e-11
-4.5939e-11
-3.51279e-11
-4.5448e-11
-3.10491e-11
-4.46276e-11
-2.70803e-11
-4.35857e-11
-2.32455e-11
-4.2426e-11
-1.95525e-11
-4.12449e-11
-1.59949e-11
-4.01263e-11
-1.25539e-11
-3.91413e-11
-9.20034e-12
-3.8347e-11
-5.89608e-12
-3.77895e-11
-2.59586e-12
-3.75056e-11
7.51432e-13
-3.7525e-11
4.20124e-12
-3.78714e-11
7.81203e-12
-3.85626e-11
1.1644e-11
-3.96102e-11
1.57579e-11
-4.10188e-11
2.02132e-11
-4.27854e-11
2.50665e-11
-4.48969e-11
3.03678e-11
-4.73281e-11
3.61566e-11
-5.00355e-11
4.24574e-11
-5.29538e-11
4.92727e-11
-5.59899e-11
5.65808e-11
-5.90231e-11
6.43263e-11
-6.19006e-11
7.24224e-11
-6.44438e-11
8.07368e-11
-6.64405e-11
8.91043e-11
-6.7661e-11
9.73068e-11
-6.78488e-11
1.05105e-10
-6.67622e-11
1.12209e-10
-6.41592e-11
1.18334e-10
-5.98683e-11
1.23157e-10
-5.37506e-11
1.2641e-10
-4.58096e-11
1.27804e-10
-3.61171e-11
1.27177e-10
-2.49656e-11
1.24364e-10
-1.27256e-11
1.194e-10
-2.20214e-14
1.12326e-10
1.25037e-11
1.03427e-10
2.40119e-11
9.29743e-11
3.37913e-11
8.14669e-11
4.10779e-11
6.93532e-11
4.54003e-11
5.72196e-11
4.64114e-11
4.55521e-11
4.41504e-11
3.48389e-11
3.88778e-11
2.54496e-11
3.11635e-11
1.76146e-11
2.18007e-11
1.14761e-11
1.17474e-11
6.87325e-12
2.34337e-12
3.56662e-12
-4.85982e-12
9.63583e-13
-7.77514e-12
-4.75868e-12
-1.53758e-12
-6.76709e-12
-4.30673e-12
-1.4011e-11
-7.11372e-12
-1.52836e-11
-1.03322e-11
-1.27194e-11
-1.41785e-11
-8.50991e-12
-1.85567e-11
-4.20853e-12
-2.33191e-11
-5.46039e-13
-2.82966e-11
2.20713e-12
-3.33185e-11
3.99029e-12
-3.82771e-11
4.83844e-12
-4.3025e-11
4.73962e-12
-4.75034e-11
3.75425e-12
-5.15847e-11
1.86321e-12
-5.52347e-11
-8.40505e-13
-5.83453e-11
-4.33551e-12
-6.08948e-11
-8.47955e-12
-6.27991e-11
-1.31838e-11
-6.40531e-11
-1.82497e-11
-6.46094e-11
-2.35272e-11
-6.44871e-11
-2.87957e-11
-6.36829e-11
-3.38866e-11
-6.22459e-11
-3.86023e-11
-6.02161e-11
-4.28048e-11
-5.76694e-11
-4.6364e-11
-5.46768e-11
-4.92124e-11
-5.13278e-11
-5.13109e-11
-4.77049e-11
-5.26754e-11
-4.38944e-11
-5.33513e-11
-3.9971e-11
-5.34216e-11
-3.6002e-11
-5.29875e-11
-3.20397e-11
-5.21667e-11
-2.81236e-11
-5.10803e-11
-2.42779e-11
-4.98482e-11
-2.05135e-11
-4.85804e-11
-1.68285e-11
-4.73749e-11
-1.32102e-11
-4.63142e-11
-9.63627e-12
-4.5466e-11
-6.07655e-12
-4.4885e-11
-2.49426e-12
-4.46151e-11
1.15233e-12
-4.46914e-11
4.90866e-12
-4.51414e-11
8.82261e-12
-4.59849e-11
1.29434e-11
-4.72346e-11
1.73205e-11
-4.88945e-11
2.20019e-11
-5.09592e-11
2.70324e-11
-5.34118e-11
3.24499e-11
-5.62187e-11
3.82817e-11
-5.93254e-11
4.45384e-11
-6.26492e-11
5.12111e-11
-6.6077e-11
5.82636e-11
-6.94605e-11
6.56328e-11
-7.26206e-11
7.3218e-11
-7.53416e-11
8.08896e-11
-7.73828e-11
8.84722e-11
-7.84701e-11
9.57705e-11
-7.83279e-11
1.02542e-10
-7.66691e-11
1.08549e-10
-7.32568e-11
1.13511e-10
-6.78775e-11
1.17191e-10
-6.0439e-11
1.19323e-10
-5.09113e-11
1.19743e-10
-3.94728e-11
1.18266e-10
-2.63926e-11
1.1488e-10
-1.22128e-11
1.09552e-10
2.46226e-12
1.02474e-10
1.67669e-11
9.38051e-11
2.98958e-11
8.39359e-11
4.09048e-11
7.31947e-11
4.90924e-11
6.20925e-11
5.38043e-11
5.10417e-11
5.47914e-11
4.0525e-11
5.20228e-11
3.09142e-11
4.58699e-11
2.25161e-11
3.69684e-11
1.55692e-11
2.61795e-11
1.00942e-11
1.46793e-11
6.08308e-12
3.83393e-12
3.12211e-12
-4.41308e-12
8.79442e-13
-7.98561e-12
-4.92124e-12
-1.51615e-12
-6.91659e-12
-4.32052e-12
-1.42151e-11
-7.17204e-12
-1.52497e-11
-1.04898e-11
-1.21273e-11
-1.43586e-11
-7.35798e-12
-1.87047e-11
-2.58414e-12
-2.33428e-11
1.36122e-12
-2.80841e-11
4.20494e-12
-3.27981e-11
5.94335e-12
-3.73282e-11
6.58571e-12
-4.16273e-11
6.22919e-12
-4.55739e-11
4.86041e-12
-4.91686e-11
2.58292e-12
-5.23121e-11
-6.09529e-13
-5.50189e-11
-4.58091e-12
-5.72054e-11
-9.2868e-12
-5.88876e-11
-1.45383e-11
-6.00015e-11
-2.02165e-11
-6.05643e-11
-2.60901e-11
-6.05402e-11
-3.19906e-11
-5.99583e-11
-3.76842e-11
-5.88185e-11
-4.30017e-11
-5.71683e-11
-4.77565e-11
-5.50414e-11
-5.18316e-11
-5.25019e-11
-5.51278e-11
-4.96061e-11
-5.76132e-11
-4.64254e-11
-5.92879e-11
-4.3023e-11
-6.02053e-11
-3.9464e-11
-6.0446e-11
-3.58026e-11
-6.01225e-11
-3.20862e-11
-5.93596e-11
-2.83496e-11
-5.82914e-11
-2.46176e-11
-5.70488e-11
-2.09028e-11
-5.57549e-11
-1.72083e-11
-5.45181e-11
-1.35274e-11
-5.34317e-11
-9.84576e-12
-5.25721e-11
-6.14239e-12
-5.20014e-11
-2.391e-12
-5.17695e-11
1.43866e-12
-5.19159e-11
5.37968e-12
-5.24709e-11
9.46705e-12
-5.34562e-11
1.37368e-11
-5.4885e-11
1.82251e-11
-5.67608e-11
2.29669e-11
-5.90762e-11
2.79937e-11
-6.18096e-11
3.33305e-11
-6.49202e-11
3.89911e-11
-6.83412e-11
4.49747e-11
-7.19747e-11
5.12592e-11
-7.56855e-11
5.78005e-11
-7.93033e-11
6.45242e-11
-8.26184e-11
7.13313e-11
-8.53907e-11
7.80846e-11
-8.73423e-11
8.46285e-11
-8.81807e-11
9.07669e-11
-8.75913e-11
9.63055e-11
-8.5289e-11
1.01011e-10
-8.09998e-11
1.04688e-10
-7.45464e-11
1.07103e-10
-6.58026e-11
1.08112e-10
-5.48258e-11
1.0754e-10
-4.17626e-11
1.05356e-10
-2.70287e-11
1.01493e-10
-1.11269e-11
9.60835e-11
5.13783e-12
8.92019e-11
2.0959e-11
8.11496e-11
3.53041e-11
7.21389e-11
4.73172e-11
6.25917e-11
5.60871e-11
5.28113e-11
6.1077e-11
4.32331e-11
6.19051e-11
3.41711e-11
5.86612e-11
2.59499e-11
5.17064e-11
1.88257e-11
4.17439e-11
1.29221e-11
2.97678e-11
8.36808e-12
1.69474e-11
4.99203e-12
4.94619e-12
2.6186e-12
-4.30106e-12
6.74266e-13
-8.25165e-12
-5.16843e-12
-1.50498e-12
-6.92826e-12
-4.1837e-12
-1.42385e-11
-7.04835e-12
-1.49116e-11
-1.03236e-11
-1.12924e-11
-1.41418e-11
-5.97237e-12
-1.83467e-11
-8.20232e-13
-2.27495e-11
3.30797e-12
-2.7182e-11
6.1604e-12
-3.14585e-11
7.71564e-12
-3.55218e-11
8.11168e-12
-3.9242e-11
7.37363e-12
-4.26441e-11
5.64366e-12
-4.56349e-11
2.90819e-12
-4.82732e-11
-6.86353e-13
-5.04824e-11
-5.13824e-12
-5.23167e-11
-1.02718e-11
-5.37092e-11
-1.60184e-11
-5.46971e-11
-2.21547e-11
-5.5225e-11
-2.85415e-11
-5.53182e-11
-3.49289e-11
-5.49435e-11
-4.11409e-11
-5.4128e-11
-4.69474e-11
-5.28671e-11
-5.21925e-11
-5.11984e-11
-5.67159e-11
-4.91447e-11
-6.04327e-11
-4.6755e-11
-6.3284e-11
-4.407e-11
-6.52777e-11
-4.11429e-11
-6.64546e-11
-3.80187e-11
-6.69034e-11
-3.47442e-11
-6.67352e-11
-3.13566e-11
-6.60846e-11
-2.78883e-11
-6.50919e-11
-2.43615e-11
-6.38984e-11
-2.07914e-11
-6.26355e-11
-1.71844e-11
-6.14216e-11
-1.35403e-11
-6.03576e-11
-9.8527e-12
-5.95271e-11
-6.11037e-12
-5.89981e-11
-2.29832e-12
-5.88249e-11
1.60118e-12
-5.905e-11
5.60784e-12
-5.97061e-11
9.7428e-12
-6.08162e-11
1.4028e-11
-6.23937e-11
1.84859e-11
-6.44419e-11
2.31378e-11
-6.69516e-11
2.80023e-11
-6.98975e-11
3.30914e-11
-7.32312e-11
3.84079e-11
-7.68754e-11
4.39388e-11
-8.0716e-11
4.9655e-11
-8.46006e-11
5.5503e-11
-8.83343e-11
6.14093e-11
-9.16872e-11
6.72697e-11
-9.43882e-11
7.29628e-11
-9.61424e-11
7.83337e-11
-9.66245e-11
8.32263e-11
-9.55189e-11
8.74524e-11
-9.25089e-11
9.08517e-11
-8.73492e-11
9.32324e-11
-7.98317e-11
9.44745e-11
-6.9902e-11
9.44245e-11
-5.75843e-11
9.30544e-11
-4.31509e-11
9.02884e-11
-2.69692e-11
8.62287e-11
-9.72009e-12
8.09001e-11
7.86933e-12
7.4542e-11
2.47777e-11
6.72764e-11
4.00898e-11
5.94468e-11
5.27274e-11
5.12469e-11
6.19279e-11
4.30475e-11
6.69766e-11
3.50656e-11
6.76441e-11
2.76075e-11
6.39303e-11
2.08772e-11
5.62976e-11
1.50491e-11
4.54781e-11
1.02881e-11
3.24747e-11
6.57559e-12
1.86386e-11
3.95326e-12
5.56849e-12
2.02695e-12
-4.37665e-12
5.61156e-13
-8.74738e-12
-5.40821e-12
-1.39921e-12
-6.88978e-12
-3.99483e-12
-1.40326e-11
-6.72656e-12
-1.44103e-11
-9.93334e-12
-1.02371e-11
-1.36014e-11
-4.44871e-12
-1.76048e-11
1.02783e-12
-2.17312e-11
5.25937e-12
-2.5768e-11
7.99443e-12
-2.96171e-11
9.32638e-12
-3.31226e-11
9.33636e-12
-3.63126e-11
8.23424e-12
-3.90875e-11
6.036e-12
-4.15422e-11
2.92335e-12
-4.36066e-11
-1.12092e-12
-4.53835e-11
-5.92139e-12
-4.68103e-11
-1.14666e-11
-4.79625e-11
-1.75494e-11
-4.87773e-11
-2.40837e-11
-4.92968e-11
-3.0825e-11
-4.94652e-11
-3.76206e-11
-4.93043e-11
-4.42162e-11
-4.8777e-11
-5.04397e-11
-4.79013e-11
-5.60791e-11
-4.66653e-11
-6.10035e-11
-4.50946e-11
-6.50898e-11
-4.32012e-11
-6.82921e-11
-4.10196e-11
-7.05954e-11
-3.85774e-11
-7.20477e-11
-3.5912e-11
-7.27276e-11
-3.30549e-11
-7.2753e-11
-3.00387e-11
-7.22578e-11
-2.68887e-11
-7.13903e-11
-2.36267e-11
-7.02965e-11
-2.02677e-11
-6.91157e-11
-1.68219e-11
-6.79723e-11
-1.32944e-11
-6.69734e-11
-9.6866e-12
-6.62075e-11
-5.99673e-12
-6.57465e-11
-2.22108e-12
-6.56475e-11
1.64562e-12
-6.59551e-11
5.60977e-12
-6.67032e-11
9.67875e-12
-6.79156e-11
1.38609e-11
-6.96066e-11
1.81653e-11
-7.17792e-11
2.26005e-11
-7.44232e-11
2.7173e-11
-7.75098e-11
3.18843e-11
-8.09851e-11
3.67263e-11
-8.47612e-11
4.16799e-11
-8.87115e-11
4.67081e-11
-9.26654e-11
5.17587e-11
-9.64119e-11
5.67551e-11
-9.96965e-11
6.16061e-11
-1.02233e-10
6.61926e-11
-1.03698e-10
7.03918e-11
-1.03764e-10
7.40541e-11
-1.02088e-10
7.7051e-11
-9.83739e-11
7.92273e-11
-9.23512e-11
8.0486e-11
-8.38699e-11
8.06993e-11
-7.2845e-11
7.98467e-11
-5.94084e-11
7.78585e-11
-4.37833e-11
7.48224e-11
-2.64943e-11
7.07395e-11
-8.13573e-12
6.58118e-11
1.03643e-11
6.0103e-11
2.81224e-11
5.39e-11
4.39998e-11
4.73053e-11
5.71011e-11
4.06349e-11
6.64497e-11
3.39994e-11
7.15341e-11
2.76695e-11
7.1964e-11
2.17563e-11
6.78972e-11
1.64398e-11
5.97263e-11
1.18462e-11
4.82359e-11
8.03731e-12
3.44921e-11
5.14864e-12
1.97702e-11
3.02751e-12
5.95208e-12
1.61025e-12
-4.70234e-12
3.67895e-13
-9.21639e-12
-5.72382e-12
-1.33157e-12
-6.76057e-12
-3.67517e-12
-1.37686e-11
-6.31214e-12
-1.37104e-11
-9.34815e-12
-9.06721e-12
-1.28564e-11
-2.80117e-12
-1.66238e-11
2.92217e-12
-2.0429e-11
7.16914e-12
-2.41045e-11
9.74227e-12
-2.74609e-11
1.07134e-11
-3.04976e-11
1.03542e-11
-3.30943e-11
8.7562e-12
-3.5363e-11
6.16909e-12
-3.72308e-11
2.59128e-12
-3.88451e-11
-1.77299e-12
-4.01487e-11
-6.95174e-12
-4.1267e-11
-1.27497e-11
-4.21379e-11
-1.91467e-11
-4.2838e-11
-2.59167e-11
-4.33001e-11
-3.29586e-11
-4.35588e-11
-4.0017e-11
-4.35534e-11
-4.69322e-11
-4.32956e-11
-5.34588e-11
-4.27431e-11
-5.94384e-11
-4.19038e-11
-6.4689e-11
-4.07596e-11
-6.91129e-11
-3.93256e-11
-7.26309e-11
-3.76059e-11
-7.52387e-11
-3.5624e-11
-7.6965e-11
-3.33981e-11
-7.7894e-11
-3.09545e-11
-7.8136e-11
-2.83149e-11
-7.78304e-11
-2.55022e-11
-7.71251e-11
-2.2534e-11
-7.61723e-11
-1.94263e-11
-7.51145e-11
-1.61911e-11
-7.40809e-11
-1.28386e-11
-7.31817e-11
-9.37687e-12
-7.25087e-11
-5.81302e-12
-7.21355e-11
-2.1537e-12
-7.21206e-11
1.59465e-12
-7.25092e-11
5.42597e-12
-7.33357e-11
9.33494e-12
-7.46248e-11
1.33173e-11
-7.63911e-11
1.737e-11
-7.86385e-11
2.14904e-11
-8.13563e-11
2.56748e-11
-8.45138e-11
2.99151e-11
-8.80517e-11
3.41975e-11
-9.18751e-11
3.84966e-11
-9.58453e-11
4.27768e-11
-9.97803e-11
4.69849e-11
-1.03451e-10
5.10559e-11
-1.0659e-10
5.49025e-11
-1.08889e-10
5.84319e-11
-1.10018e-10
6.15289e-11
-1.09627e-10
6.40924e-11
-1.07387e-10
6.59995e-11
-1.02982e-10
6.71727e-11
-9.61843e-11
6.75081e-11
-8.6819e-11
6.69908e-11
-7.48907e-11
6.55617e-11
-6.04866e-11
6.32992e-11
-4.39678e-11
6.01954e-11
-2.57729e-11
5.64274e-11
-6.68118e-12
5.20256e-11
1.25255e-11
4.72409e-11
3.07427e-11
4.21132e-11
4.70417e-11
3.69169e-11
6.0292e-11
3.16743e-11
6.97668e-11
2.66241e-11
7.47374e-11
2.17712e-11
7.5045e-11
1.72806e-11
7.06862e-11
1.31904e-11
6.21787e-11
9.58236e-12
5.0262e-11
6.58089e-12
3.5958e-11
4.17648e-12
2.06738e-11
2.50049e-12
6.14488e-12
1.24927e-12
-4.94299e-12
3.32716e-13
-9.76834e-12
-5.96396e-12
-1.15668e-12
-6.64926e-12
-3.35853e-12
-1.33448e-11
-5.77602e-12
-1.29462e-11
-8.69442e-12
-7.74101e-12
-1.19993e-11
-1.08516e-12
-1.55292e-11
4.84972e-12
-1.90431e-11
9.05735e-12
-2.23137e-11
1.13534e-11
-2.52796e-11
1.19752e-11
-2.77898e-11
1.1107e-11
-2.99444e-11
9.09328e-12
-3.16565e-11
5.99877e-12
-3.31053e-11
2.08953e-12
-3.42319e-11
-2.66701e-12
-3.52119e-11
-8.06289e-12
-3.59859e-11
-1.41367e-11
-3.66781e-11
-2.06839e-11
-3.72171e-11
-2.76732e-11
-3.76671e-11
-3.48666e-11
-3.79535e-11
-4.21475e-11
-3.80972e-11
-4.92597e-11
-3.80327e-11
-5.60434e-11
-3.77609e-11
-6.22732e-11
-3.7237e-11
-6.78125e-11
-3.64608e-11
-7.25185e-11
-3.54118e-11
-7.63319e-11
-3.40981e-11
-7.92201e-11
-3.252e-11
-8.12197e-11
-3.06934e-11
-8.23996e-11
-2.86305e-11
-8.28745e-11
-2.63499e-11
-8.27783e-11
-2.38669e-11
-8.22631e-11
-2.1198e-11
-8.14806e-11
-1.83577e-11
-8.05769e-11
-1.53602e-11
-7.96824e-11
-1.2219e-11
-7.89094e-11
-8.94821e-12
-7.83499e-11
-5.56254e-12
-7.80779e-11
-2.07792e-12
-7.81513e-11
1.48884e-12
-7.8615e-11
5.1206e-12
-7.95032e-11
8.80069e-12
-8.08409e-11
1.25138e-11
-8.26438e-11
1.62463e-11
-8.49169e-11
1.99858e-11
-8.76501e-11
2.37198e-11
-9.08116e-11
2.74343e-11
-9.43396e-11
3.11103e-11
-9.81332e-11
3.47231e-11
-1.02047e-10
3.82377e-11
-1.05889e-10
4.1611e-11
-1.09419e-10
4.47838e-11
-1.12354e-10
4.76912e-11
-1.14378e-10
5.02493e-11
-1.15145e-10
5.23829e-11
-1.14309e-10
5.39986e-11
-1.11525e-10
5.50373e-11
-1.0651e-10
5.54172e-11
-9.90157e-11
5.51277e-11
-8.89365e-11
5.41199e-11
-7.62392e-11
5.24621e-11
-6.11287e-11
5.01438e-11
-4.38878e-11
4.73207e-11
-2.51212e-11
4.40054e-11
-5.46546e-12
4.04219e-11
1.40854e-11
3.65714e-11
3.26494e-11
3.2702e-11
4.90496e-11
2.87739e-11
6.24422e-11
2.50015e-11
7.1845e-11
2.13027e-11
7.68234e-11
1.78224e-11
7.69905e-11
1.449e-11
7.25564e-11
1.13832e-11
6.38889e-11
8.53406e-12
5.17711e-11
5.98535e-12
3.72128e-11
3.92236e-12
2.14761e-11
2.28195e-12
6.53956e-12
1.18586e-12
-5.10283e-12
2.19476e-13
-1.00394e-11
-6.21602e-12
-1.05791e-12
-6.48547e-12
-2.94525e-12
-1.295e-11
-5.26759e-12
-1.20094e-11
-8.00346e-12
-6.33951e-12
-1.11645e-11
7.40822e-13
-1.44662e-11
6.80118e-12
-1.7668e-11
1.08857e-11
-2.06169e-11
1.2896e-11
-2.31296e-11
1.30379e-11
-2.52642e-11
1.17383e-11
-2.69102e-11
9.17554e-12
-2.82552e-11
5.71478e-12
-2.92319e-11
1.3691e-12
-3.00573e-11
-3.60825e-12
-3.06706e-11
-9.28595e-12
-3.1247e-11
-1.54652e-11
-3.17141e-11
-2.21881e-11
-3.21783e-11
-2.92439e-11
-3.25571e-11
-3.65826e-11
-3.28956e-11
-4.39592e-11
-3.31133e-11
-5.12427e-11
-3.32168e-11
-5.81855e-11
-3.31404e-11
-6.46342e-11
-3.28767e-11
-7.03932e-11
-3.2383e-11
-7.53552e-11
-3.16546e-11
-7.94224e-11
-3.06724e-11
-8.25769e-11
-2.94401e-11
-8.48326e-11
-2.79567e-11
-8.62641e-11
-2.62327e-11
-8.69746e-11
-2.42763e-11
-8.71014e-11
-2.21008e-11
-8.67923e-11
-1.97183e-11
-8.62014e-11
-1.71431e-11
-8.54735e-11
-1.43897e-11
-8.47398e-11
-1.1475e-11
-8.41114e-11
-8.41759e-12
-8.36797e-11
-5.23883e-12
-8.35166e-11
-1.96251e-12
-8.36782e-11
1.38558e-12
-8.42078e-11
4.77872e-12
-8.51389e-11
8.19047e-12
-8.64966e-11
1.15957e-11
-8.82979e-11
1.49716e-11
-9.05493e-11
1.82973e-11
-9.32421e-11
2.15537e-11
-9.63454e-11
2.47213e-11
-9.97965e-11
2.77806e-11
-1.03493e-10
3.07074e-11
-1.07284e-10
3.34749e-11
-1.10974e-10
3.60464e-11
-1.14312e-10
3.83816e-11
-1.17011e-10
4.04258e-11
-1.1874e-10
4.21291e-11
-1.19155e-10
4.34268e-11
-1.17898e-10
4.42788e-11
-1.14647e-10
4.46265e-11
-1.09098e-10
4.4466e-11
-1.0106e-10
4.37602e-11
-9.03933e-11
4.25682e-11
-7.71612e-11
4.08807e-11
-6.15006e-11
3.88316e-11
-4.38377e-11
3.64238e-11
-2.46465e-11
3.38563e-11
-4.7603e-12
3.11095e-11
1.5045e-11
2.84087e-11
3.36417e-11
2.56739e-11
5.0157e-11
2.31103e-11
6.34609e-11
2.05672e-11
7.29252e-11
1.81852e-11
7.78226e-11
1.57886e-11
7.80807e-11
1.34489e-11
7.36605e-11
1.10681e-11
6.50975e-11
8.68587e-12
5.30352e-11
6.41234e-12
3.84117e-11
4.28739e-12
2.25571e-11
2.60064e-12
7.19531e-12
1.21571e-12
-4.75955e-12
3.08185e-13
-1.01576e-11
-6.28918e-12
-8.52513e-13
-6.38422e-12
-2.64111e-12
-1.23908e-11
-4.77379e-12
-1.10193e-11
-7.46242e-12
-4.75373e-12
-1.0452e-11
2.62414e-12
-1.35419e-11
8.76747e-12
-1.647e-11
1.26672e-11
-1.90284e-11
1.42777e-11
-2.12034e-11
1.39964e-11
-2.28648e-11
1.21337e-11
-2.41821e-11
9.17011e-12
-2.50735e-11
5.2219e-12
-2.57806e-11
6.27655e-13
-2.62363e-11
-4.66647e-12
-2.66618e-11
-1.04393e-11
-2.69816e-11
-1.67879e-11
-2.73495e-11
-2.3524e-11
-2.76784e-11
-3.06769e-11
-2.80489e-11
-3.80284e-11
-2.83708e-11
-4.55033e-11
-2.86697e-11
-5.28546e-11
-2.8865e-11
-5.99404e-11
-2.89528e-11
-6.65303e-11
-2.8872e-11
-7.24856e-11
-2.8611e-11
-7.76493e-11
-2.81319e-11
-8.19501e-11
-2.74277e-11
-8.53392e-11
-2.64815e-11
-8.78408e-11
-2.52942e-11
-8.95124e-11
-2.38632e-11
-9.04609e-11
-2.21953e-11
-9.08151e-11
-2.02964e-11
-9.07246e-11
-1.81774e-11
-9.03392e-11
-1.58504e-11
-8.98038e-11
-1.3331e-11
-8.92467e-11
-1.06381e-11
-8.8777e-11
-7.79444e-12
-8.84827e-11
-4.82689e-12
-8.84327e-11
-1.76601e-12
-8.86797e-11
1.35481e-12
-8.92647e-11
4.50059e-12
-9.02197e-11
7.63623e-12
-9.15697e-11
1.0728e-11
-9.33327e-11
1.37445e-11
-9.5517e-11
1.66575e-11
-9.81167e-11