/*--------------------------------*- C++ -*----------------------------------*\
| =========                 |                                                 |
| \\      /  F ield         | OpenFOAM: The Open Source CFD Toolbox           |
|  \\    /   O peration     | Version:  2412                                  |
|   \\  /    A nd           | Website:  www.openfoam.com                      |
|    \\/     M anipulation  |                                                 |
\*---------------------------------------------------------------------------*/
FoamFile
{
    version     2.0;
    format      ascii;
    arch        "LSB;label=32;scalar=64";
    class       volVectorField;
    location    "0.55";
    object      U;
}
// * * * * * * * * * * * * * * * * * * * * * * * * * * * * * * * * * * * * * //

dimensions      [0 1 -1 0 0 0 0];

internalField   nonuniform List<vector> 
6400
(
(4.10534e-08 2.66745e-08 0)
(1.22424e-07 -3.68873e-07 0)
(-1.06329e-07 -3.11159e-07 0)
(-1.12644e-07 -2.64374e-07 0)
(2.55989e-07 -3.31188e-07 0)
(6.69274e-07 -4.82379e-07 0)
(9.04672e-07 -5.81728e-07 0)
(1.05759e-06 -5.73119e-07 0)
(1.16186e-06 -4.8095e-07 0)
(1.36354e-06 -3.76174e-07 0)
(1.59e-06 -3.19773e-07 0)
(1.71901e-06 -2.9489e-07 0)
(1.81538e-06 -2.25338e-07 0)
(1.97412e-06 -8.44165e-08 0)
(2.13792e-06 4.85591e-08 0)
(2.19649e-06 1.096e-07 0)
(2.16654e-06 1.19503e-07 0)
(2.15161e-06 1.27713e-07 0)
(2.20272e-06 1.41987e-07 0)
(2.2953e-06 1.37655e-07 0)
(2.37496e-06 9.65044e-08 0)
(2.38829e-06 2.46282e-08 0)
(2.31673e-06 -6.03482e-08 0)
(2.17711e-06 -1.35365e-07 0)
(1.99723e-06 -1.74137e-07 0)
(1.7962e-06 -1.5836e-07 0)
(1.57731e-06 -8.5458e-08 0)
(1.33439e-06 3.45272e-08 0)
(1.06366e-06 1.84984e-07 0)
(7.68329e-07 3.45982e-07 0)
(4.55597e-07 4.96585e-07 0)
(1.33723e-07 6.18482e-07 0)
(-1.87536e-07 6.99667e-07 0)
(-4.96091e-07 7.35568e-07 0)
(-7.79091e-07 7.26854e-07 0)
(-1.02595e-06 6.75786e-07 0)
(-1.22969e-06 5.84085e-07 0)
(-1.38469e-06 4.53861e-07 0)
(-1.4826e-06 2.90542e-07 0)
(-1.51039e-06 1.05133e-07 0)
(-1.4541e-06 -8.61243e-08 0)
(-1.30715e-06 -2.64622e-07 0)
(-1.07855e-06 -4.13169e-07 0)
(-7.95398e-07 -5.18922e-07 0)
(-4.97144e-07 -5.74578e-07 0)
(-2.2392e-07 -5.78015e-07 0)
(-4.43024e-09 -5.31233e-07 0)
(1.50982e-07 -4.39497e-07 0)
(2.4942e-07 -3.11088e-07 0)
(3.08112e-07 -1.57478e-07 0)
(3.45094e-07 6.71609e-09 0)
(3.72545e-07 1.64503e-07 0)
(3.95141e-07 2.9806e-07 0)
(4.12611e-07 3.9071e-07 0)
(4.23798e-07 4.28965e-07 0)
(4.29773e-07 4.04571e-07 0)
(4.35184e-07 3.16678e-07 0)
(4.48257e-07 1.7371e-07 0)
(4.79917e-07 -6.22512e-09 0)
(5.41986e-07 -1.97791e-07 0)
(6.44442e-07 -3.73781e-07 0)
(7.925e-07 -5.11419e-07 0)
(9.84553e-07 -5.96769e-07 0)
(1.21118e-06 -6.25845e-07 0)
(1.45422e-06 -6.03381e-07 0)
(1.68614e-06 -5.40715e-07 0)
(1.87292e-06 -4.52824e-07 0)
(1.98439e-06 -3.53607e-07 0)
(2.00929e-06 -2.51013e-07 0)
(1.96117e-06 -1.45275e-07 0)
(1.86196e-06 -3.32295e-08 0)
(1.71499e-06 8.33836e-08 0)
(1.50097e-06 1.90375e-07 0)
(1.20905e-06 2.67139e-07 0)
(8.64442e-07 3.01293e-07 0)
(5.11203e-07 2.86551e-07 0)
(1.74244e-07 1.85913e-07 0)
(-1.02386e-07 -2.82394e-08 0)
(-2.12917e-07 -2.95645e-07 0)
(-2.59275e-07 -2.44247e-07 0)
(-1.36269e-07 4.02303e-07 0)
(1.61285e-07 1.6102e-08 0)
(5.1273e-08 -2.08253e-08 0)
(-3.82476e-07 1.54532e-07 0)
(-3.13865e-07 1.67925e-07 0)
(6.82809e-08 -8.77123e-08 0)
(4.19832e-07 -3.35426e-07 0)
(7.56933e-07 -4.48492e-07 0)
(1.00799e-06 -4.6344e-07 0)
(1.32051e-06 -4.75142e-07 0)
(1.64303e-06 -5.20276e-07 0)
(1.88839e-06 -5.47262e-07 0)
(2.16039e-06 -5.26517e-07 0)
(2.53766e-06 -4.60672e-07 0)
(2.89661e-06 -3.97579e-07 0)
(3.10443e-06 -3.50534e-07 0)
(3.21118e-06 -3.01924e-07 0)
(3.34856e-06 -2.3006e-07 0)
(3.56099e-06 -1.49663e-07 0)
(3.80631e-06 -1.02632e-07 0)
(4.00991e-06 -1.20921e-07 0)
(4.08764e-06 -1.94008e-07 0)
(4.00175e-06 -2.85518e-07 0)
(3.78297e-06 -3.5859e-07 0)
(3.49026e-06 -3.85475e-07 0)
(3.16751e-06 -3.54305e-07 0)
(2.83102e-06 -2.70579e-07 0)
(2.47885e-06 -1.50023e-07 0)
(2.1036e-06 -1.13217e-08 0)
(1.69897e-06 1.26894e-07 0)
(1.26261e-06 2.48283e-07 0)
(7.99658e-07 3.42247e-07 0)
(3.25499e-07 4.06097e-07 0)
(-1.36802e-07 4.4309e-07 0)
(-5.64048e-07 4.56914e-07 0)
(-9.40088e-07 4.46495e-07 0)
(-1.25673e-06 4.05193e-07 0)
(-1.50751e-06 3.25321e-07 0)
(-1.67982e-06 2.04875e-07 0)
(-1.75292e-06 5.17533e-08 0)
(-1.70562e-06 -1.17329e-07 0)
(-1.52985e-06 -2.8228e-07 0)
(-1.24157e-06 -4.2597e-07 0)
(-8.81459e-07 -5.38113e-07 0)
(-5.03887e-07 -6.15322e-07 0)
(-1.5937e-07 -6.58373e-07 0)
(1.20833e-07 -6.68956e-07 0)
(3.30942e-07 -6.48003e-07 0)
(4.85949e-07 -5.96312e-07 0)
(6.09971e-07 -5.1657e-07 0)
(7.24488e-07 -4.15045e-07 0)
(8.41807e-07 -3.01698e-07 0)
(9.64829e-07 -1.8874e-07 0)
(1.09036e-06 -8.87433e-08 0)
(1.21233e-06 -1.32886e-08 0)
(1.32365e-06 2.79381e-08 0)
(1.41768e-06 2.85727e-08 0)
(1.4909e-06 -1.2048e-08 0)
(1.54598e-06 -8.67282e-08 0)
(1.59325e-06 -1.80558e-07 0)
(1.64899e-06 -2.74157e-07 0)
(1.73099e-06 -3.48412e-07 0)
(1.85272e-06 -3.88242e-07 0)
(2.01639e-06 -3.85024e-07 0)
(2.20629e-06 -3.39106e-07 0)
(2.38596e-06 -2.62159e-07 0)
(2.50648e-06 -1.74573e-07 0)
(2.5274e-06 -9.53425e-08 0)
(2.44041e-06 -3.05818e-08 0)
(2.27251e-06 2.5431e-08 0)
(2.05603e-06 7.70176e-08 0)
(1.79047e-06 1.13674e-07 0)
(1.45242e-06 1.12556e-07 0)
(1.05255e-06 5.45658e-08 0)
(6.48751e-07 -5.12167e-08 0)
(2.74266e-07 -1.8621e-07 0)
(-6.28447e-08 -3.57188e-07 0)
(-3.12255e-07 -5.76505e-07 0)
(-4.13474e-07 -7.78256e-07 0)
(-5.34486e-07 -5.8805e-07 0)
(-4.39303e-07 7.3892e-07 0)
(-3.51134e-07 5.56125e-07 0)
(-2.08417e-07 1.33326e-07 0)
(-5.77457e-07 2.78248e-08 0)
(-8.20448e-07 8.32751e-08 0)
(-7.85211e-07 -1.21167e-07 0)
(-5.47298e-07 -3.13318e-07 0)
(-2.36572e-07 -4.53146e-07 0)
(-4.17326e-08 -5.83821e-07 0)
(2.17723e-07 -6.96425e-07 0)
(5.75931e-07 -7.69919e-07 0)
(9.10603e-07 -7.80613e-07 0)
(1.23918e-06 -7.63917e-07 0)
(1.6493e-06 -7.38648e-07 0)
(2.08458e-06 -7.1763e-07 0)
(2.42058e-06 -6.73133e-07 0)
(2.65148e-06 -5.91405e-07 0)
(2.87605e-06 -4.99764e-07 0)
(3.13756e-06 -4.4077e-07 0)
(3.40248e-06 -4.43144e-07 0)
(3.61379e-06 -5.16273e-07 0)
(3.70411e-06 -6.32759e-07 0)
(3.63284e-06 -7.42416e-07 0)
(3.41885e-06 -8.05384e-07 0)
(3.1187e-06 -8.0402e-07 0)
(2.78553e-06 -7.38203e-07 0)
(2.4492e-06 -6.19319e-07 0)
(2.11736e-06 -4.65792e-07 0)
(1.78398e-06 -2.99231e-07 0)
(1.43845e-06 -1.40113e-07 0)
(1.07414e-06 -2.71939e-09 0)
(6.94791e-07 1.08297e-07 0)
(3.15238e-07 1.96691e-07 0)
(-4.49163e-08 2.68664e-07 0)
(-3.70409e-07 3.25803e-07 0)
(-6.55337e-07 3.61719e-07 0)
(-8.99812e-07 3.6478e-07 0)
(-1.10064e-06 3.25053e-07 0)
(-1.24361e-06 2.40773e-07 0)
(-1.30447e-06 1.20315e-07 0)
(-1.25984e-06 -2.09465e-08 0)
(-1.10187e-06 -1.6632e-07 0)
(-8.47614e-07 -3.02461e-07 0)
(-5.36883e-07 -4.20897e-07 0)
(-2.18939e-07 -5.166e-07 0)
(6.51354e-08 -5.8546e-07 0)
(2.95662e-07 -6.22797e-07 0)
(4.77246e-07 -6.24021e-07 0)
(6.31326e-07 -5.8696e-07 0)
(7.83668e-07 -5.1421e-07 0)
(9.53722e-07 -4.13846e-07 0)
(1.14997e-06 -2.97987e-07 0)
(1.37081e-06 -1.8017e-07 0)
(1.60744e-06 -7.31569e-08 0)
(1.84593e-06 1.20774e-08 0)
(2.06848e-06 6.68122e-08 0)
(2.25595e-06 8.5744e-08 0)
(2.39267e-06 6.903e-08 0)
(2.47175e-06 2.37494e-08 0)
(2.49841e-06 -3.69423e-08 0)
(2.48988e-06 -9.69617e-08 0)
(2.472e-06 -1.40677e-07 0)
(2.47148e-06 -1.54895e-07 0)
(2.50339e-06 -1.30561e-07 0)
(2.55739e-06 -6.70723e-08 0)
(2.59492e-06 2.22895e-08 0)
(2.56648e-06 1.11341e-07 0)
(2.44288e-06 1.75394e-07 0)
(2.23358e-06 2.08161e-07 0)
(1.97378e-06 2.20646e-07 0)
(1.68732e-06 2.16356e-07 0)
(1.36436e-06 1.78311e-07 0)
(9.87462e-07 8.48465e-08 0)
(5.87001e-07 -6.58681e-08 0)
(2.24486e-07 -2.66652e-07 0)
(-8.33865e-08 -5.06393e-07 0)
(-3.05289e-07 -7.57583e-07 0)
(-4.02098e-07 -1.02396e-06 0)
(-4.33855e-07 -1.28509e-06 0)
(-4.24078e-07 -9.60775e-07 0)
(-4.22972e-07 7.98411e-07 0)
(-6.2233e-07 1.08479e-06 0)
(-5.60549e-07 5.86741e-07 0)
(-7.71416e-07 2.05674e-07 0)
(-1.01707e-06 6.02738e-08 0)
(-1.05942e-06 -2.23701e-07 0)
(-8.44585e-07 -4.45123e-07 0)
(-6.26611e-07 -5.93305e-07 0)
(-4.85849e-07 -7.3785e-07 0)
(-2.12356e-07 -8.524e-07 0)
(1.51137e-07 -9.08223e-07 0)
(4.4271e-07 -9.04075e-07 0)
(7.18707e-07 -9.03222e-07 0)
(1.10243e-06 -9.14998e-07 0)
(1.5249e-06 -9.34742e-07 0)
(1.85291e-06 -9.49143e-07 0)
(2.05292e-06 -9.31431e-07 0)
(2.20517e-06 -8.99613e-07 0)
(2.37649e-06 -9.00487e-07 0)
(2.56315e-06 -9.50823e-07 0)
(2.72037e-06 -1.04036e-06 0)
(2.78632e-06 -1.14275e-06 0)
(2.71566e-06 -1.22149e-06 0)
(2.51475e-06 -1.24572e-06 0)
(2.23352e-06 -1.20064e-06 0)
(1.92677e-06 -1.08695e-06 0)
(1.62671e-06 -9.17607e-07 0)
(1.34029e-06 -7.14314e-07 0)
(1.05992e-06 -5.02063e-07 0)
(7.76002e-07 -3.02022e-07 0)
(4.85836e-07 -1.2585e-07 0)
(1.96604e-07 2.51531e-08 0)
(-7.81814e-08 1.55305e-07 0)
(-3.26458e-07 2.6724e-07 0)
(-5.44127e-07 3.56869e-07 0)
(-7.35086e-07 4.13789e-07 0)
(-9.03976e-07 4.26578e-07 0)
(-1.04643e-06 3.89325e-07 0)
(-1.14419e-06 3.05268e-07 0)
(-1.16995e-06 1.85753e-07 0)
(-1.10025e-06 4.57998e-08 0)
(-9.29655e-07 -1.00606e-07 0)
(-6.77597e-07 -2.42922e-07 0)
(-3.83706e-07 -3.73498e-07 0)
(-9.35442e-08 -4.85376e-07 0)
(1.58027e-07 -5.70538e-07 0)
(3.57748e-07 -6.20153e-07 0)
(5.14602e-07 -6.26936e-07 0)
(6.51422e-07 -5.88323e-07 0)
(7.93165e-07 -5.08545e-07 0)
(9.57999e-07 -3.98288e-07 0)
(1.15406e-06 -2.72095e-07 0)
(1.38044e-06 -1.4498e-07 0)
(1.62902e-06 -2.99087e-08 0)
(1.88546e-06 6.33587e-08 0)
(2.1302e-06 1.28749e-07 0)
(2.34165e-06 1.6456e-07 0)
(2.50141e-06 1.74114e-07 0)
(2.59967e-06 1.65355e-07 0)
(2.63875e-06 1.48958e-07 0)
(2.63443e-06 1.36066e-07 0)
(2.61411e-06 1.36956e-07 0)
(2.60889e-06 1.6042e-07 0)
(2.63655e-06 2.11633e-07 0)
(2.6826e-06 2.87549e-07 0)
(2.69756e-06 3.72396e-07 0)
(2.62531e-06 4.4031e-07 0)
(2.4452e-06 4.67721e-07 0)
(2.1865e-06 4.48898e-07 0)
(1.89283e-06 3.93954e-07 0)
(1.57851e-06 3.06721e-07 0)
(1.22824e-06 1.6891e-07 0)
(8.41825e-07 -3.25161e-08 0)
(4.57411e-07 -2.84558e-07 0)
(1.14635e-07 -5.82354e-07 0)
(-1.70005e-07 -9.30291e-07 0)
(-3.39911e-07 -1.22254e-06 0)
(-3.7319e-07 -1.51845e-06 0)
(-3.45179e-07 -1.78107e-06 0)
(-2.83586e-07 -1.28821e-06 0)
(-3.38496e-07 6.2966e-07 0)
(-6.5578e-07 1.08172e-06 0)
(-7.8998e-07 7.71979e-07 0)
(-8.27611e-07 3.54558e-07 0)
(-9.57596e-07 6.68491e-08 0)
(-1.02346e-06 -2.27001e-07 0)
(-7.59678e-07 -4.90896e-07 0)
(-5.11519e-07 -6.5707e-07 0)
(-4.16449e-07 -7.53397e-07 0)
(-1.93706e-07 -8.2811e-07 0)
(1.60087e-07 -8.86231e-07 0)
(4.21887e-07 -8.90677e-07 0)
(5.96716e-07 -8.7803e-07 0)
(8.46306e-07 -9.01249e-07 0)
(1.13959e-06 -9.57894e-07 0)
(1.36857e-06 -1.0391e-06 0)
(1.49348e-06 -1.11094e-06 0)
(1.54994e-06 -1.15869e-06 0)
(1.59678e-06 -1.20704e-06 0)
(1.66102e-06 -1.27265e-06 0)
(1.71997e-06 -1.34919e-06 0)
(1.7215e-06 -1.4193e-06 0)
(1.6259e-06 -1.45815e-06 0)
(1.4371e-06 -1.4399e-06 0)
(1.1946e-06 -1.34989e-06 0)
(9.40868e-07 -1.19138e-06 0)
(6.98729e-07 -9.83155e-07 0)
(4.70617e-07 -7.51643e-07 0)
(2.49801e-07 -5.21871e-07 0)
(3.1516e-08 -3.10562e-07 0)
(-1.81769e-07 -1.23908e-07 0)
(-3.81733e-07 3.93307e-08 0)
(-5.59953e-07 1.81546e-07 0)
(-7.13919e-07 3.00824e-07 0)
(-8.48971e-07 3.89543e-07 0)
(-9.74045e-07 4.37455e-07 0)
(-1.09301e-06 4.36939e-07 0)
(-1.1968e-06 3.87131e-07 0)
(-1.26223e-06 2.94728e-07 0)
(-1.25965e-06 1.71461e-07 0)
(-1.16665e-06 3.01417e-08 0)
(-9.80512e-07 -1.18346e-07 0)
(-7.22623e-07 -2.65692e-07 0)
(-4.32089e-07 -4.04711e-07 0)
(-1.515e-07 -5.27298e-07 0)
(8.80639e-08 -6.23549e-07 0)
(2.75753e-07 -6.83033e-07 0)
(4.20184e-07 -6.97861e-07 0)
(5.41292e-07 -6.65972e-07 0)
(6.6037e-07 -5.92733e-07 0)
(7.93397e-07 -4.89779e-07 0)
(9.49169e-07 -3.71648e-07 0)
(1.13012e-06 -2.52005e-07 0)
(1.33296e-06 -1.4112e-07 0)
(1.54843e-06 -4.50392e-08 0)
(1.76168e-06 3.4267e-08 0)
(1.95486e-06 9.84136e-08 0)
(2.11167e-06 1.5159e-07 0)
(2.22212e-06 1.98746e-07 0)
(2.28685e-06 2.43902e-07 0)
(2.31989e-06 2.90191e-07 0)
(2.34779e-06 3.41507e-07 0)
(2.3997e-06 4.02463e-07 0)
(2.48778e-06 4.73825e-07 0)
(2.5876e-06 5.45964e-07 0)
(2.64034e-06 5.98847e-07 0)
(2.58711e-06 6.1155e-07 0)
(2.41516e-06 5.74739e-07 0)
(2.16524e-06 4.93372e-07 0)
(1.88338e-06 3.78451e-07 0)
(1.57154e-06 2.2802e-07 0)
(1.21346e-06 2.12212e-08 0)
(8.32892e-07 -2.58513e-07 0)
(4.7111e-07 -5.97164e-07 0)
(1.2601e-07 -9.89109e-07 0)
(-1.45852e-07 -1.41934e-06 0)
(-2.83792e-07 -1.74318e-06 0)
(-2.91879e-07 -2.06886e-06 0)
(-2.9764e-07 -2.31712e-06 0)
(-2.30102e-07 -1.67254e-06 0)
(-2.00762e-07 4.75989e-07 0)
(-5.09558e-07 9.11171e-07 0)
(-7.90679e-07 7.64114e-07 0)
(-8.33503e-07 4.56105e-07 0)
(-8.46488e-07 7.99281e-08 0)
(-8.45131e-07 -2.19011e-07 0)
(-6.0029e-07 -4.59317e-07 0)
(-3.5989e-07 -6.36592e-07 0)
(-2.73258e-07 -7.31467e-07 0)
(-1.01012e-07 -7.76237e-07 0)
(1.88704e-07 -8.16201e-07 0)
(3.91839e-07 -8.46104e-07 0)
(4.71711e-07 -8.39425e-07 0)
(5.92828e-07 -8.51176e-07 0)
(7.49909e-07 -9.00814e-07 0)
(8.43501e-07 -9.85513e-07 0)
(8.5237e-07 -1.09474e-06 0)
(8.08935e-07 -1.2059e-06 0)
(7.58471e-07 -1.30482e-06 0)
(7.33136e-07 -1.38641e-06 0)
(7.227e-07 -1.44502e-06 0)
(6.83724e-07 -1.47184e-06 0)
(5.81545e-07 -1.45373e-06 0)
(4.17658e-07 -1.37723e-06 0)
(2.20071e-07 -1.23829e-06 0)
(1.70693e-08 -1.04769e-06 0)
(-1.77743e-07 -8.27483e-07 0)
(-3.62918e-07 -6.02188e-07 0)
(-5.39594e-07 -3.90734e-07 0)
(-7.05003e-07 -2.0274e-07 0)
(-8.52253e-07 -3.99058e-08 0)
(-9.74496e-07 9.93544e-08 0)
(-1.0699e-06 2.1515e-07 0)
(-1.14418e-06 3.03828e-07 0)
(-1.20868e-06 3.58944e-07 0)
(-1.27422e-06 3.74418e-07 0)
(-1.34296e-06 3.47833e-07 0)
(-1.40287e-06 2.8207e-07 0)
(-1.42887e-06 1.84599e-07 0)
(-1.39173e-06 6.50715e-08 0)
(-1.27125e-06 -6.72819e-08 0)
(-1.06703e-06 -2.05068e-07 0)
(-8.01266e-07 -3.42396e-07 0)
(-5.11554e-07 -4.73324e-07 0)
(-2.37306e-07 -5.90308e-07 0)
(-6.47165e-09 -6.8392e-07 0)
(1.71317e-07 -7.44451e-07 0)
(3.03087e-07 -7.64865e-07 0)
(4.05177e-07 -7.43593e-07 0)
(4.95478e-07 -6.85482e-07 0)
(5.89122e-07 -6.00188e-07 0)
(6.97647e-07 -4.98868e-07 0)
(8.29036e-07 -3.91006e-07 0)
(9.86483e-07 -2.82763e-07 0)
(1.16642e-06 -1.76948e-07 0)
(1.35793e-06 -7.38034e-08 0)
(1.54474e-06 2.79119e-08 0)
(1.70932e-06 1.29331e-07 0)
(1.83827e-06 2.29527e-07 0)
(1.92864e-06 3.24657e-07 0)
(1.99364e-06 4.10115e-07 0)
(2.06124e-06 4.84681e-07 0)
(2.15971e-06 5.5169e-07 0)
(2.2931e-06 6.12496e-07 0)
(2.42563e-06 6.57035e-07 0)
(2.4942e-06 6.63746e-07 0)
(2.44923e-06 6.14893e-07 0)
(2.2911e-06 5.10892e-07 0)
(2.06564e-06 3.67085e-07 0)
(1.80983e-06 1.95516e-07 0)
(1.51269e-06 -5.61178e-09 0)
(1.15803e-06 -2.50138e-07 0)
(7.93726e-07 -5.46221e-07 0)
(4.71407e-07 -9.05026e-07 0)
(1.67865e-07 -1.34691e-06 0)
(-4.88439e-08 -1.83103e-06 0)
(-1.72875e-07 -2.20572e-06 0)
(-2.168e-07 -2.58626e-06 0)
(-3.12258e-07 -2.86103e-06 0)
(-2.85015e-07 -2.04174e-06 0)
(-1.78338e-07 6.58171e-07 0)
(-3.82846e-07 1.07136e-06 0)
(-6.50786e-07 9.63355e-07 0)
(-7.40903e-07 6.83641e-07 0)
(-7.54901e-07 3.12004e-07 0)
(-6.95695e-07 -4.59844e-08 0)
(-4.53096e-07 -3.27767e-07 0)
(-2.45506e-07 -5.21876e-07 0)
(-1.89065e-07 -6.28494e-07 0)
(-6.08201e-08 -6.98851e-07 0)
(1.65543e-07 -7.60099e-07 0)
(3.24918e-07 -8.38369e-07 0)
(3.55883e-07 -8.61707e-07 0)
(3.73441e-07 -8.63075e-07 0)
(4.06549e-07 -9.11545e-07 0)
(3.80969e-07 -1.00904e-06 0)
(2.82521e-07 -1.13609e-06 0)
(1.57371e-07 -1.27261e-06 0)
(5.32178e-08 -1.39509e-06 0)
(-6.95236e-09 -1.48683e-06 0)
(-3.8997e-08 -1.54055e-06 0)
(-8.47982e-08 -1.55103e-06 0)
(-1.7611e-07 -1.51032e-06 0)
(-3.14099e-07 -1.412e-06 0)
(-4.79346e-07 -1.25873e-06 0)
(-6.52064e-07 -1.06428e-06 0)
(-8.21352e-07 -8.48164e-07 0)
(-9.81984e-07 -6.28109e-07 0)
(-1.12838e-06 -4.15503e-07 0)
(-1.25266e-06 -2.15514e-07 0)
(-1.34719e-06 -3.02476e-08 0)
(-1.40867e-06 1.37773e-07 0)
(-1.44103e-06 2.83775e-07 0)
(-1.45536e-06 4.01024e-07 0)
(-1.46631e-06 4.82574e-07 0)
(-1.48553e-06 5.23441e-07 0)
(-1.51427e-06 5.22248e-07 0)
(-1.53934e-06 4.81652e-07 0)
(-1.53541e-06 4.07415e-07 0)
(-1.47433e-06 3.06645e-07 0)
(-1.33765e-06 1.8617e-07 0)
(-1.12624e-06 5.19184e-08 0)
(-8.61921e-07 -9.04441e-08 0)
(-5.80055e-07 -2.34111e-07 0)
(-3.16667e-07 -3.70003e-07 0)
(-9.66872e-08 -4.86967e-07 0)
(7.14232e-08 -5.73717e-07 0)
(1.93489e-07 -6.21845e-07 0)
(2.83179e-07 -6.28343e-07 0)
(3.56111e-07 -5.96175e-07 0)
(4.27146e-07 -5.32559e-07 0)
(5.09875e-07 -4.46083e-07 0)
(6.15632e-07 -3.44315e-07 0)
(7.50882e-07 -2.32799e-07 0)
(9.14397e-07 -1.15151e-07 0)
(1.09641e-06 6.43596e-09 0)
(1.28037e-06 1.3043e-07 0)
(1.44676e-06 2.54627e-07 0)
(1.57895e-06 3.74537e-07 0)
(1.67202e-06 4.83023e-07 0)
(1.741e-06 5.72643e-07 0)
(1.81918e-06 6.39708e-07 0)
(1.93748e-06 6.85507e-07 0)
(2.09379e-06 7.11251e-07 0)
(2.23939e-06 7.09819e-07 0)
(2.30543e-06 6.65602e-07 0)
(2.25181e-06 5.66946e-07 0)
(2.09525e-06 4.20272e-07 0)
(1.88589e-06 2.44053e-07 0)
(1.65415e-06 4.83597e-08 0)
(1.38552e-06 -1.76546e-07 0)
(1.07523e-06 -4.39985e-07 0)
(7.67916e-07 -7.35759e-07 0)
(4.82663e-07 -1.0863e-06 0)
(1.91009e-07 -1.55947e-06 0)
(4.49477e-09 -2.1043e-06 0)
(-1.13633e-07 -2.56232e-06 0)
(-1.85162e-07 -3.00105e-06 0)
(-3.20368e-07 -3.3061e-06 0)
(-3.0146e-07 -2.29847e-06 0)
(-2.60427e-07 8.06514e-07 0)
(-3.62416e-07 1.28637e-06 0)
(-5.48927e-07 1.20013e-06 0)
(-6.47119e-07 8.30854e-07 0)
(-6.49287e-07 4.33707e-07 0)
(-6.0543e-07 2.00635e-08 0)
(-3.8689e-07 -3.34027e-07 0)
(-1.94435e-07 -5.95454e-07 0)
(-1.70119e-07 -7.18661e-07 0)
(-9.47988e-08 -7.99158e-07 0)
(6.87348e-08 -8.72914e-07 0)
(1.96635e-07 -9.85665e-07 0)
(2.35319e-07 -1.07627e-06 0)
(2.05761e-07 -1.11677e-06 0)
(1.34703e-07 -1.172e-06 0)
(1.41396e-08 -1.26447e-06 0)
(-1.51493e-07 -1.37315e-06 0)
(-3.21648e-07 -1.47766e-06 0)
(-4.50647e-07 -1.56171e-06 0)
(-5.19278e-07 -1.61378e-06 0)
(-5.4645e-07 -1.62919e-06 0)
(-5.72385e-07 -1.60422e-06 0)
(-6.27944e-07 -1.53255e-06 0)
(-7.19665e-07 -1.41024e-06 0)
(-8.37473e-07 -1.24182e-06 0)
(-9.68292e-07 -1.04011e-06 0)
(-1.1018e-06 -8.20486e-07 0)
(-1.229e-06 -5.95368e-07 0)
(-1.34032e-06 -3.7231e-07 0)
(-1.42675e-06 -1.556e-07 0)
(-1.48273e-06 5.0984e-08 0)
(-1.50872e-06 2.42351e-07 0)
(-1.51213e-06 4.11939e-07 0)
(-1.50602e-06 5.52752e-07 0)
(-1.50515e-06 6.5881e-07 0)
(-1.5198e-06 7.26404e-07 0)
(-1.54912e-06 7.54813e-07 0)
(-1.57796e-06 7.46236e-07 0)
(-1.57994e-06 7.04905e-07 0)
(-1.52689e-06 6.35747e-07 0)
(-1.40077e-06 5.43287e-07 0)
(-1.20239e-06 4.31402e-07 0)
(-9.52206e-07 3.04168e-07 0)
(-6.82772e-07 1.67362e-07 0)
(-4.26869e-07 2.96226e-08 0)
(-2.07337e-07 -9.77728e-08 0)
(-3.31109e-08 -2.02912e-07 0)
(9.83966e-08 -2.76281e-07 0)
(1.96189e-07 -3.13232e-07 0)
(2.71943e-07 -3.14531e-07 0)
(3.38919e-07 -2.84847e-07 0)
(4.11634e-07 -2.30359e-07 0)
(5.03884e-07 -1.56924e-07 0)
(6.24941e-07 -6.93171e-08 0)
(7.7602e-07 2.88281e-08 0)
(9.48999e-07 1.34819e-07 0)
(1.12766e-06 2.46282e-07 0)
(1.29102e-06 3.59857e-07 0)
(1.41987e-06 4.69968e-07 0)
(1.50732e-06 5.69105e-07 0)
(1.56909e-06 6.50112e-07 0)
(1.64108e-06 7.08219e-07 0)
(1.7557e-06 7.40193e-07 0)
(1.9078e-06 7.40783e-07 0)
(2.04359e-06 7.01356e-07 0)
(2.09382e-06 6.13274e-07 0)
(2.02879e-06 4.76118e-07 0)
(1.87697e-06 3.04011e-07 0)
(1.68705e-06 1.20295e-07 0)
(1.4716e-06 -6.74035e-08 0)
(1.2123e-06 -2.79462e-07 0)
(9.31521e-07 -5.38452e-07 0)
(6.86517e-07 -8.36536e-07 0)
(4.45132e-07 -1.20253e-06 0)
(1.67745e-07 -1.71978e-06 0)
(9.61068e-09 -2.32405e-06 0)
(-9.58218e-08 -2.83806e-06 0)
(-1.70006e-07 -3.31072e-06 0)
(-2.46431e-07 -3.59258e-06 0)
(-1.51843e-07 -2.45708e-06 0)
(-2.46764e-07 7.23757e-07 0)
(-2.81896e-07 1.31517e-06 0)
(-4.57163e-07 1.18661e-06 0)
(-6.01182e-07 7.80726e-07 0)
(-5.75018e-07 2.87612e-07 0)
(-5.51965e-07 -2.23246e-07 0)
(-3.92712e-07 -6.31571e-07 0)
(-2.11961e-07 -9.56189e-07 0)
(-1.72938e-07 -1.08604e-06 0)
(-1.27862e-07 -1.13111e-06 0)
(-2.58416e-08 -1.1788e-06 0)
(4.05429e-08 -1.26627e-06 0)
(7.0125e-08 -1.37064e-06 0)
(4.70762e-08 -1.4516e-06 0)
(-5.01698e-08 -1.51833e-06 0)
(-2.08472e-07 -1.58665e-06 0)
(-3.96912e-07 -1.64777e-06 0)
(-5.71866e-07 -1.6877e-06 0)
(-6.92274e-07 -1.69528e-06 0)
(-7.44845e-07 -1.66518e-06 0)
(-7.51465e-07 -1.59861e-06 0)
(-7.50761e-07 -1.49811e-06 0)
(-7.72795e-07 -1.36421e-06 0)
(-8.28265e-07 -1.1986e-06 0)
(-9.13488e-07 -1.00798e-06 0)
(-1.01896e-06 -8.03127e-07 0)
(-1.13339e-06 -5.94912e-07 0)
(-1.2444e-06 -3.91198e-07 0)
(-1.33964e-06 -1.96597e-07 0)
(-1.40942e-06 -1.39832e-08 0)
(-1.44938e-06 1.54002e-07 0)
(-1.46185e-06 3.0436e-07 0)
(-1.45571e-06 4.33987e-07 0)
(-1.44462e-06 5.40228e-07 0)
(-1.44308e-06 6.2141e-07 0)
(-1.46044e-06 6.77254e-07 0)
(-1.49477e-06 7.09054e-07 0)
(-1.53019e-06 7.19408e-07 0)
(-1.54038e-06 7.1143e-07 0)
(-1.49801e-06 6.87651e-07 0)
(-1.38614e-06 6.49178e-07 0)
(-1.20598e-06 5.95678e-07 0)
(-9.76883e-07 5.26455e-07 0)
(-7.28638e-07 4.42248e-07 0)
(-4.90391e-07 3.46811e-07 0)
(-2.82073e-07 2.47232e-07 0)
(-1.11865e-07 1.52583e-07 0)
(2.10906e-08 7.15557e-08 0)
(1.22636e-07 1.04136e-08 0)
(2.01558e-07 -2.76828e-08 0)
(2.69681e-07 -4.2036e-08 0)
(3.41566e-07 -3.3361e-08 0)
(4.31796e-07 -3.1932e-09 0)
(5.50537e-07 4.62667e-08 0)
(6.99718e-07 1.12352e-07 0)
(8.71496e-07 1.92234e-07 0)
(1.04894e-06 2.82662e-07 0)
(1.20928e-06 3.78746e-07 0)
(1.33144e-06 4.72951e-07 0)
(1.40849e-06 5.56369e-07 0)
(1.4577e-06 6.2205e-07 0)
(1.51581e-06 6.66534e-07 0)
(1.61272e-06 6.86173e-07 0)
(1.7403e-06 6.72691e-07 0)
(1.84561e-06 6.15078e-07 0)
(1.86693e-06 5.07356e-07 0)
(1.78565e-06 3.52626e-07 0)
(1.64117e-06 1.65897e-07 0)
(1.4778e-06 -2.89284e-08 0)
(1.28756e-06 -2.1969e-07 0)
(1.04079e-06 -4.24095e-07 0)
(7.87146e-07 -6.61116e-07 0)
(5.91955e-07 -9.34054e-07 0)
(3.73848e-07 -1.30005e-06 0)
(9.92025e-08 -1.86308e-06 0)
(-1.71225e-08 -2.51975e-06 0)
(-9.46151e-08 -3.07985e-06 0)
(-1.3724e-07 -3.56536e-06 0)
(-1.27975e-07 -3.76661e-06 0)
(8.98298e-08 -2.56805e-06 0)
(-1.5885e-07 7.31106e-07 0)
(-2.07527e-07 1.39715e-06 0)
(-3.87775e-07 1.14524e-06 0)
(-5.42776e-07 6.93604e-07 0)
(-5.58562e-07 9.25121e-08 0)
(-5.39994e-07 -5.24185e-07 0)
(-4.16817e-07 -9.75135e-07 0)
(-2.42086e-07 -1.31434e-06 0)
(-1.54501e-07 -1.45222e-06 0)
(-1.27632e-07 -1.44242e-06 0)
(-8.24835e-08 -1.44172e-06 0)
(-6.22505e-08 -1.47354e-06 0)
(-6.03322e-08 -1.52294e-06 0)
(-9.4162e-08 -1.57883e-06 0)
(-1.94519e-07 -1.63555e-06 0)
(-3.50612e-07 -1.68873e-06 0)
(-5.27065e-07 -1.72762e-06 0)
(-6.79655e-07 -1.73922e-06 0)
(-7.70294e-07 -1.71549e-06 0)
(-7.91096e-07 -1.65489e-06 0)
(-7.67965e-07 -1.56092e-06 0)
(-7.39654e-07 -1.43768e-06 0)
(-7.3553e-07 -1.28802e-06 0)
(-7.67786e-07 -1.11551e-06 0)
(-8.35157e-07 -9.26359e-07 0)
(-9.28744e-07 -7.28402e-07 0)
(-1.03563e-06 -5.28772e-07 0)
(-1.14123e-06 -3.32787e-07 0)
(-1.23199e-06 -1.44607e-07 0)
(-1.29822e-06 3.17256e-08 0)
(-1.33599e-06 1.92065e-07 0)
(-1.34792e-06 3.3271e-07 0)
(-1.3428e-06 4.51027e-07 0)
(-1.33402e-06 5.45661e-07 0)
(-1.33566e-06 6.16477e-07 0)
(-1.3566e-06 6.64523e-07 0)
(-1.39449e-06 6.9206e-07 0)
(-1.4335e-06 7.02357e-07 0)
(-1.44813e-06 6.99009e-07 0)
(-1.41269e-06 6.84839e-07 0)
(-1.31218e-06 6.60905e-07 0)
(-1.14907e-06 6.26258e-07 0)
(-9.42387e-07 5.78812e-07 0)
(-7.19644e-07 5.17109e-07 0)
(-5.06506e-07 4.42066e-07 0)
(-3.19534e-07 3.57737e-07 0)
(-1.64917e-07 2.70614e-07 0)
(-4.15685e-08 1.87982e-07 0)
(5.54118e-08 1.1633e-07 0)
(1.33615e-07 6.05828e-08 0)
(2.03891e-07 2.40545e-08 0)
(2.79904e-07 8.55795e-09 0)
(3.75195e-07 1.43297e-08 0)
(4.98955e-07 4.00493e-08 0)
(6.52607e-07 8.3364e-08 0)
(8.2805e-07 1.41666e-07 0)
(1.00739e-06 2.12121e-07 0)
(1.16551e-06 2.90314e-07 0)
(1.27919e-06 3.68763e-07 0)
(1.34197e-06 4.37823e-07 0)
(1.37478e-06 4.89513e-07 0)
(1.41652e-06 5.1993e-07 0)
(1.49447e-06 5.26399e-07 0)
(1.59566e-06 5.02301e-07 0)
(1.66808e-06 4.38465e-07 0)
(1.65594e-06 3.29526e-07 0)
(1.54979e-06 1.77862e-07 0)
(1.39862e-06 -5.02825e-09 0)
(1.24976e-06 -1.97394e-07 0)
(1.08105e-06 -3.9046e-07 0)
(8.60109e-07 -5.99427e-07 0)
(6.53641e-07 -8.30748e-07 0)
(5.10962e-07 -1.08748e-06 0)
(2.90979e-07 -1.45968e-06 0)
(9.71128e-09 -2.06282e-06 0)
(-5.9071e-08 -2.75774e-06 0)
(-1.06981e-07 -3.36497e-06 0)
(-9.9639e-08 -3.84258e-06 0)
(-4.64361e-08 -3.9748e-06 0)
(2.4172e-07 -2.68267e-06 0)
(-1.36515e-07 7.20337e-07 0)
(-2.37726e-07 1.37314e-06 0)
(-4.04378e-07 1.09361e-06 0)
(-5.15031e-07 5.25032e-07 0)
(-5.56249e-07 -1.68753e-07 0)
(-5.21297e-07 -8.53943e-07 0)
(-4.14922e-07 -1.31642e-06 0)
(-2.59668e-07 -1.62326e-06 0)
(-1.12229e-07 -1.76979e-06 0)
(-6.59872e-08 -1.74624e-06 0)
(-7.60385e-08 -1.69237e-06 0)
(-9.86657e-08 -1.66127e-06 0)
(-1.20463e-07 -1.64571e-06 0)
(-1.75027e-07 -1.64809e-06 0)
(-2.92397e-07 -1.66194e-06 0)
(-4.5429e-07 -1.68042e-06 0)
(-6.20263e-07 -1.69295e-06 0)
(-7.48751e-07 -1.68776e-06 0)
(-8.09524e-07 -1.6587e-06 0)
(-8.00341e-07 -1.60697e-06 0)
(-7.48312e-07 -1.53544e-06 0)
(-6.91123e-07 -1.44463e-06 0)
(-6.58058e-07 -1.33308e-06 0)
(-6.63088e-07 -1.20021e-06 0)
(-7.06878e-07 -1.04781e-06 0)
(-7.81102e-07 -8.79346e-07 0)
(-8.72389e-07 -6.98868e-07 0)
(-9.66001e-07 -5.10854e-07 0)
(-1.04909e-06 -3.20787e-07 0)
(-1.11286e-06 -1.35239e-07 0)
(-1.15362e-06 3.9011e-08 0)
(-1.17326e-06 1.96187e-07 0)
(-1.17937e-06 3.32185e-07 0)
(-1.18415e-06 4.445e-07 0)
(-1.20064e-06 5.31914e-07 0)
(-1.23664e-06 5.94456e-07 0)
(-1.28871e-06 6.33612e-07 0)
(-1.34019e-06 6.52346e-07 0)
(-1.36558e-06 6.54514e-07 0)
(-1.34028e-06 6.43679e-07 0)
(-1.25118e-06 6.21872e-07 0)
(-1.10255e-06 5.89059e-07 0)
(-9.14022e-07 5.43812e-07 0)
(-7.1204e-07 4.8496e-07 0)
(-5.19781e-07 4.1334e-07 0)
(-3.51012e-07 3.32593e-07 0)
(-2.09957e-07 2.48561e-07 0)
(-9.49039e-08 1.67723e-07 0)
(-1.41147e-09 9.56522e-08 0)
(7.71468e-08 3.61914e-08 0)
(1.5051e-07 -8.58204e-09 0)
(2.31144e-07 -3.80328e-08 0)
(3.31407e-07 -5.25302e-08 0)
(4.59669e-07 -5.29153e-08 0)
(6.17238e-07 -3.98495e-08 0)
(7.96307e-07 -1.33956e-08 0)
(9.785e-07 2.64582e-08 0)
(1.13659e-06 7.80837e-08 0)
(1.24436e-06 1.36361e-07 0)
(1.2943e-06 1.92659e-07 0)
(1.3093e-06 2.37047e-07 0)
(1.33118e-06 2.61019e-07 0)
(1.38689e-06 2.58413e-07 0)
(1.46148e-06 2.2515e-07 0)
(1.50293e-06 1.5782e-07 0)
(1.46067e-06 5.33923e-08 0)
(1.33262e-06 -8.84603e-08 0)
(1.17768e-06 -2.56597e-07 0)
(1.03969e-06 -4.29312e-07 0)
(8.81522e-07 -6.02987e-07 0)
(6.77521e-07 -8.03139e-07 0)
(5.22054e-07 -1.02958e-06 0)
(4.30572e-07 -1.2921e-06 0)
(2.01312e-07 -1.68326e-06 0)
(-8.0242e-08 -2.31047e-06 0)
(-9.99759e-08 -3.02679e-06 0)
(-1.18545e-07 -3.68041e-06 0)
(-9.62138e-08 -4.11644e-06 0)
(-5.79403e-08 -4.2178e-06 0)
(2.20979e-07 -2.78064e-06 0)
(-2.31621e-07 5.34359e-07 0)
(-3.09302e-07 1.15693e-06 0)
(-4.07212e-07 8.97745e-07 0)
(-5.08065e-07 2.48292e-07 0)
(-5.3153e-07 -5.20643e-07 0)
(-4.5158e-07 -1.23335e-06 0)
(-3.29428e-07 -1.72399e-06 0)
(-2.21903e-07 -1.98034e-06 0)
(-7.27441e-08 -2.11784e-06 0)
(5.08528e-09 -2.14029e-06 0)
(-1.46955e-08 -2.11806e-06 0)
(-6.78112e-08 -2.08264e-06 0)
(-1.2084e-07 -2.04873e-06 0)
(-2.01088e-07 -2.02286e-06 0)
(-3.33017e-07 -2.00026e-06 0)
(-5.01482e-07 -1.97293e-06 0)
(-6.65769e-07 -1.93652e-06 0)
(-7.85412e-07 -1.88526e-06 0)
(-8.34961e-07 -1.81789e-06 0)
(-8.15216e-07 -1.73866e-06 0)
(-7.51202e-07 -1.65215e-06 0)
(-6.77191e-07 -1.55886e-06 0)
(-6.21435e-07 -1.45604e-06 0)
(-5.99425e-07 -1.34068e-06 0)
(-6.14145e-07 -1.21119e-06 0)
(-6.59298e-07 -1.06778e-06 0)
(-7.23424e-07 -9.12328e-07 0)
(-7.93927e-07 -7.48457e-07 0)
(-8.59985e-07 -5.81317e-07 0)
(-9.13914e-07 -4.16657e-07 0)
(-9.51782e-07 -2.59524e-07 0)
(-9.74313e-07 -1.13425e-07 0)
(-9.87834e-07 1.96048e-08 0)
(-1.00357e-06 1.38352e-07 0)
(-1.03375e-06 2.4197e-07 0)
(-1.08508e-06 3.30133e-07 0)
(-1.15275e-06 4.03535e-07 0)
(-1.21887e-06 4.64063e-07 0)
(-1.25756e-06 5.14126e-07 0)
(-1.24511e-06 5.55254e-07 0)
(-1.17018e-06 5.86712e-07 0)
(-1.0387e-06 6.05115e-07 0)
(-8.70737e-07 6.05596e-07 0)
(-6.91384e-07 5.84151e-07 0)
(-5.21187e-07 5.39944e-07 0)
(-3.71251e-07 4.7625e-07 0)
(-2.44317e-07 3.99515e-07 0)
(-1.38804e-07 3.1718e-07 0)
(-5.15847e-08 2.3558e-07 0)
(2.23499e-08 1.58924e-07 0)
(9.15514e-08 8.95666e-08 0)
(1.68085e-07 2.89029e-08 0)
(2.64782e-07 -2.17777e-08 0)
(3.91198e-07 -6.08069e-08 0)
(5.5008e-07 -8.60461e-08 0)
(7.34412e-07 -9.52914e-08 0)
(9.2502e-07 -8.74318e-08 0)
(1.09183e-06 -6.40348e-08 0)
(1.20465e-06 -3.00872e-08 0)
(1.25216e-06 6.60318e-09 0)
(1.25528e-06 3.61391e-08 0)
(1.25649e-06 4.67549e-08 0)
(1.28721e-06 2.81057e-08 0)
(1.33699e-06 -2.30124e-08 0)
(1.35458e-06 -1.03407e-07 0)
(1.28704e-06 -2.13524e-07 0)
(1.13894e-06 -3.5478e-07 0)
(9.81783e-07 -5.13801e-07 0)
(8.58003e-07 -6.64789e-07 0)
(7.07108e-07 -8.08927e-07 0)
(5.1387e-07 -9.80432e-07 0)
(3.96343e-07 -1.18918e-06 0)
(3.46882e-07 -1.46144e-06 0)
(1.19987e-07 -1.87223e-06 0)
(-1.44329e-07 -2.49218e-06 0)
(-1.27508e-07 -3.20976e-06 0)
(-1.06514e-07 -3.89445e-06 0)
(-1.07089e-07 -4.30095e-06 0)
(-1.24701e-07 -4.33894e-06 0)
(1.06183e-07 -2.77717e-06 0)
(-3.56982e-07 3.00878e-07 0)
(-3.62129e-07 9.45558e-07 0)
(-3.76466e-07 6.21835e-07 0)
(-4.56141e-07 -1.12576e-07 0)
(-4.55358e-07 -9.16292e-07 0)
(-3.44901e-07 -1.62494e-06 0)
(-2.10436e-07 -2.15329e-06 0)
(-1.28765e-07 -2.42742e-06 0)
(-4.46862e-08 -2.53503e-06 0)
(-3.26142e-09 -2.58075e-06 0)
(-3.30873e-08 -2.59164e-06 0)
(-8.04401e-08 -2.58151e-06 0)
(-1.32171e-07 -2.55672e-06 0)
(-2.13942e-07 -2.52693e-06 0)
(-3.43739e-07 -2.48559e-06 0)
(-5.04226e-07 -2.42581e-06 0)
(-6.56417e-07 -2.34305e-06 0)
(-7.61472e-07 -2.23653e-06 0)
(-7.98689e-07 -2.10993e-06 0)
(-7.71507e-07 -1.9724e-06 0)
(-7.03055e-07 -1.83312e-06 0)
(-6.23624e-07 -1.69725e-06 0)
(-5.5899e-07 -1.56566e-06 0)
(-5.24404e-07 -1.43721e-06 0)
(-5.23992e-07 -1.31051e-06 0)
(-5.53201e-07 -1.18489e-06 0)
(-6.02496e-07 -1.06083e-06 0)
(-6.6087e-07 -9.39692e-07 0)
(-7.18118e-07 -8.22988e-07 0)
(-7.6595e-07 -7.11258e-07 0)
(-7.99091e-07 -6.03513e-07 0)
(-8.1711e-07 -4.97606e-07 0)
(-8.26031e-07 -3.91306e-07 0)
(-8.3753e-07 -2.83257e-07 0)
(-8.64369e-07 -1.73125e-07 0)
(-9.13285e-07 -6.09562e-08 0)
(-9.79002e-07 5.3576e-08 0)
(-1.04342e-06 1.71181e-07 0)
(-1.08161e-06 2.91814e-07 0)
(-1.07232e-06 4.12838e-07 0)
(-1.00752e-06 5.27595e-07 0)
(-8.95795e-07 6.25632e-07 0)
(-7.57517e-07 6.95053e-07 0)
(-6.15113e-07 7.26274e-07 0)
(-4.84311e-07 7.15381e-07 0)
(-3.71187e-07 6.65388e-07 0)
(-2.75136e-07 5.84789e-07 0)