/*--------------------------------*- C++ -*----------------------------------*\
| =========                 |                                                 |
| \\      /  F ield         | OpenFOAM: The Open Source CFD Toolbox           |
|  \\    /   O peration     | Version:  2412                                  |
|   \\  /    A nd           | Website:  www.openfoam.com                      |
|    \\/     M anipulation  |                                                 |
\*---------------------------------------------------------------------------*/
FoamFile
{
    version     2.0;
    format      ascii;
    arch        "LSB;label=32;scalar=64";
    class       volScalarField;
    location    "7.95";
    object      alpha.glycerin;
}
// * * * * * * * * * * * * * * * * * * * * * * * * * * * * * * * * * * * * * //

dimensions      [0 0 0 0 0 0 0];

internalField   nonuniform List<scalar> 
6400
(
1
0.999991
0.999993
0.999993
0.999993
0.999994
0.999994
0.999995
0.999995
0.999995
0.999996
0.999996
0.999997
0.999997
0.999997
0.999998
0.999998
0.999998
0.999998
0.999998
0.999999
0.999999
0.999999
0.999999
1
1
1
1
1
1
1
1
1
1
1
1
1
1
1
1
1
1
1
1
1
1
1
1
1
1
1
1
1
1
1
1
1
1
1
1
1
0.999999
0.999998
0.999998
0.999997
0.999998
0.999998
0.999997
0.999997
0.999996
0.999996
0.999996
0.999995
0.999995
0.999994
0.999994
0.999993
0.999993
0.999993
0.999993
0.999993
0.999985
0.999987
0.999987
0.999987
0.999988
0.999988
0.999988
0.999989
0.999989
0.99999
0.999991
0.999991
0.999992
0.999993
0.999993
0.999994
0.999995
0.999996
0.999996
0.999997
0.999998
0.999999
0.999999
1
1
1
1
1
1
1.00001
1.00001
1.00001
1.00001
1.00001
1.00001
1.00001
1.00001
1.00001
1.00001
1.00001
1.00001
1.00001
1.00001
1.00001
1.00001
1.00001
1.00001
1.00001
1.00001
1
1
1
1
1
1
1
1
0.999998
0.999997
0.999996
0.999995
0.999994
0.999994
0.999993
0.999993
0.999992
0.999991
0.999991
0.99999
0.999989
0.999989
0.999989
0.999988
0.999988
0.999988
0.999987
0.999987
0.999987
0.999994
0.999993
0.999986
0.999987
0.999987
0.999988
0.999988
0.999988
0.999989
0.999989
0.99999
0.999991
0.999991
0.999992
0.999993
0.999994
0.999994
0.999995
0.999995
0.999996
0.999997
0.999997
0.999998
0.999999
1
1
1
1
1
1
1
1.00001
1.00001
1.00001
1.00001
1.00001
1.00001
1.00001
1.00001
1.00001
1.00001
1.00001
1.00001
1.00001
1.00001
1.00001
1.00001
1.00001
1.00001
1
1
1
1
1
1
1
1
0.999999
0.999998
0.999998
0.999997
0.999998
0.999997
0.999997
0.999996
0.999995
0.999994
0.999993
0.999992
0.999992
0.999991
0.999991
0.99999
0.999989
0.999989
0.999989
0.999988
0.999988
0.999987
0.999987
0.999995
0.999994
0.999986
0.999987
0.999988
0.999988
0.999988
0.999989
0.999989
0.99999
0.99999
0.999991
0.999992
0.999993
0.999994
0.999994
0.999995
0.999996
0.999996
0.999997
0.999997
0.999998
0.999999
0.999999
1
1
1
1
1
1
1
1
1
1
1.00001
1.00001
1.00001
1.00001
1.00001
1.00001
1.00001
1.00001
1
1
1
1
1
1
1
1
1
1
1
1
0.999999
0.999999
0.999999
1
1
0.999999
0.999998
0.999997
0.999997
0.999996
0.999995
0.999994
0.999994
0.999994
0.999993
0.999993
0.999992
0.999991
0.999991
0.99999
0.99999
0.999989
0.999989
0.999988
0.999988
0.999988
0.999995
0.999993
0.999986
0.999987
0.999987
0.999988
0.999988
0.999988
0.999989
0.999989
0.99999
0.999991
0.999991
0.999992
0.999993
0.999994
0.999994
0.999995
0.999996
0.999997
0.999997
0.999998
0.999998
0.999999
1
1
1
1
1
1
1
1
1
1.00001
1.00001
1.00001
1.00001
1.00001
1.00001
1.00001
1.00001
1.00001
1.00001
1.00001
1
1
1
1
1
1
1
1
1
1
1
0.999999
0.999999
0.999998
0.999998
0.999997
0.999997
0.999996
0.999996
0.999995
0.999995
0.999994
0.999994
0.999993
0.999993
0.999992
0.999992
0.999991
0.99999
0.99999
0.999989
0.999989
0.999988
0.999988
0.999988
0.999988
0.999995
0.999992
0.999985
0.999986
0.999987
0.999987
0.999988
0.999988
0.999988
0.999989
0.999989
0.99999
0.99999
0.999991
0.999992
0.999993
0.999993
0.999994
0.999995
0.999995
0.999996
0.999997
0.999998
0.999998
0.999999
1
1
1
1
1
1
1
1.00001
1.00001
1.00001
1.00001
1.00001
1.00001
1.00001
1.00001
1.00001
1.00001
1.00001
1.00001
1.00001
1.00001
1.00001
1.00001
1.00001
1.00001
1.00001
1.00001
1
1
1
0.999998
0.999997
0.999997
0.999997
0.999997
0.999996
0.999996
0.999995
0.999994
0.999994
0.999993
0.999993
0.999992
0.999992
0.999991
0.99999
0.99999
0.999989
0.999989
0.999988
0.999988
0.999988
0.999987
0.999987
0.999988
0.999994
0.999992
0.999985
0.999986
0.999986
0.999987
0.999987
0.999988
0.999988
0.999989
0.999989
0.999989
0.999989
0.99999
0.99999
0.999991
0.999992
0.999993
0.999993
0.999994
0.999995
0.999996
0.999996
0.999997
0.999998
0.999999
1
1
1
1
1
1
1.00001
1.00001
1.00001
1.00001
1.00001
1.00001
1.00001
1.00002
1.00002
1.00002
1.00002
1.00001
1.00001
1.00001
1.00001
1.00001
1.00001
1.00001
1.00001
1.00001
1.00001
1
1
1
0.999998
0.999997
0.999996
0.999995
0.999995
0.999995
0.999994
0.999993
0.999993
0.999992
0.999991
0.999991
0.99999
0.99999
0.999989
0.999988
0.999988
0.999987
0.999987
0.999987
0.999986
0.999986
0.999986
0.999987
0.999992
0.999991
0.999985
0.999985
0.999986
0.999986
0.999987
0.999988
0.999988
0.999989
0.999989
0.99999
0.99999
0.99999
0.99999
0.999991
0.999991
0.999992
0.999993
0.999993
0.999994
0.999995
0.999996
0.999997
0.999997
0.999998
0.999999
1
1
1
1
1
1.00001
1.00001
1.00001
1.00001
1.00001
1.00001
1.00001
1.00002
1.00002
1.00002
1.00002
1.00002
1.00002
1.00001
1.00001
1.00001
1.00001
1.00001
1.00001
1.00001
1.00001
1.00001
1.00001
1
1
0.999999
0.999998
0.999997
0.999996
0.999995
0.999994
0.999993
0.999992
0.999991
0.99999
0.99999
0.999989
0.999989
0.999988
0.999988
0.999987
0.999986
0.999986
0.999985
0.999985
0.999985
0.999985
0.999985
0.999991
0.999991
0.999984
0.999985
0.999985
0.999986
0.999987
0.999988
0.999989
0.99999
0.999991
0.999992
0.999992
0.999992
0.999993
0.999993
0.999994
0.999994
0.999995
0.999996
0.999996
0.999997
0.999998
0.999999
0.999999
1
1
1
1
1
1
1
1.00001
1.00001
1.00001
1.00001
1.00001
1.00001
1.00001
1.00001
1.00001
1.00001
1.00001
1.00001
1.00001
1.00001
1.00001
1
1.00001
1.00001
1.00001
1.00001
1.00001
1.00001
1.00001
1.00001
1
1
1
1
0.999999
0.999997
0.999997
0.999996
0.999995
0.999994
0.999993
0.999992
0.999992
0.999991
0.99999
0.999989
0.999989
0.999988
0.999987
0.999987
0.999986
0.999985
0.999985
0.999985
0.999991
0.99999
0.999984
0.999984
0.999985
0.999986
0.999987
0.999989
0.999991
0.999992
0.999994
0.999995
0.999996
0.999997
0.999997
0.999998
0.999999
0.999999
1
1
1
1
1
1
1
1
1.00001
1.00001
1.00001
1.00001
1.00001
1.00001
1.00001
1.00001
1
1
1
0.999996
0.999995
0.999993
0.999994
0.999999
1
1
1
0.999999
0.999995
0.999992
0.999991
0.999995
0.999999
1
1.00001
1.00001
1.00001
1.00001
1.00001
1
1
1
1
1
1
1
0.999999
0.999998
0.999998
0.999997
0.999996
0.999996
0.999995
0.999994
0.999993
0.999992
0.999991
0.99999
0.999989
0.999988
0.999987
0.999987
0.999993
0.999989
0.999984
0.999983
0.999984
0.999985
0.999986
0.999988
0.99999
0.999992
0.999995
0.999997
0.999998
1
1
1
1
1
1
1.00001
1.00001
1.00001
1.00001
1.00001
1.00001
1.00001
1.00001
1.00001
1.00001
1.00001
1.00001
1.00001
1.00001
1.00001
1
1
0.999994
0.999987
0.999978
0.999976
0.999976
0.999976
0.999983
0.999991
0.999993
0.999991
0.999985
0.999977
0.999977
0.999977
0.999982
0.999988
0.999994
0.999998
1
1
1
1
1
1
1
1
1
1
1
1
1
1
1
1
0.999999
0.999998
0.999997
0.999996
0.999995
0.999994
0.999993
0.999991
0.999991
0.999991
0.999995
0.999988
0.999983
0.999982
0.999983
0.999983
0.999983
0.999984
0.999985
0.999987
0.999989
0.999992
0.999994
0.999995
0.999997
0.999998
0.999999
1
1
1
1
1
1.00001
1.00001
1.00001
1.00001
1.00001
1.00001
1.00001
1.00001
1.00001
1.00001
1.00001
1.00001
1.00001
1
1
0.999996
0.999989
0.999981
0.999977
0.999981
0.999989
0.999998
1
1
0.999997
0.999987
0.999978
0.999975
0.999975
0.999981
0.999987
0.999992
0.999996
0.999998
0.999998
0.999999
0.999999
0.999999
1
1
1
1
0.999999
0.999999
0.999999
0.999999
0.999998
0.999998
0.999997
0.999996
0.999996
0.999995
0.999994
0.999993
0.999991
0.999991
0.999991
0.999992
0.999994
0.999987
0.999983
0.999981
0.999981
0.99998
0.999977
0.999976
0.999975
0.999975
0.999975
0.999976
0.999978
0.999979
0.99998
0.999981
0.999982
0.999983
0.999984
0.999986
0.999987
0.999989
0.999991
0.999992
0.999994
0.999997
0.999999
1
1
1.00001
1.00001
1.00001
1.00002
1.00002
1.00002
1.00003
1.00003
1.00003
1.00003
1.00003
1.00002
1.00002
1.00003
1.00004
1.00005
1.00005
1.00004
1.00003
1.00001
1
0.999994
0.99999
0.999989
0.999989
0.99999
0.99999
0.99999
0.999989
0.999988
0.999987
0.999987
0.999986
0.999986
0.999985
0.999985
0.999984
0.999983
0.999983
0.999983
0.999982
0.999982
0.999982
0.999982
0.999981
0.999981
0.999981
0.999981
0.999982
0.999984
0.999987
0.999988
0.999986
0.999982
0.999979
0.99998
0.999977
0.999972
0.999967
0.999963
0.999959
0.999956
0.999955
0.999954
0.999954
0.999954
0.999954
0.999954
0.999954
0.999954
0.999955
0.999957
0.999958
0.999961
0.999963
0.999967
0.999971
0.999976
0.999982
0.999988
0.999995
1
1.00001
1.00002
1.00003
1.00005
1.00007
1.00009
1.00011
1.00013
1.00013
1.00012
1.0001
1.0001
1.00011
1.00012
1.00013
1.00012
1.00011
1.00008
1.00006
1.00004
1.00002
1.00001
0.999999
0.999991
0.999984
0.999978
0.999973
0.999969
0.999965
0.999962
0.999959
0.999957
0.999956
0.999955
0.999954
0.999953
0.999954
0.999954
0.999955
0.999955
0.999956
0.999957
0.999958
0.999959
0.999961
0.999963
0.999966
0.999971
0.999976
0.99998
0.999984
0.999983
0.999978
0.99998
0.999978
0.999973
0.999967
0.99996
0.999953
0.999946
0.999941
0.999937
0.999934
0.999932
0.99993
0.999928
0.999928
0.999928
0.999928
0.999928
0.99993
0.999932
0.999935
0.99994
0.999945
0.999952
0.99996
0.999969
0.99998
0.999991
1
1.00002
1.00004
1.00007
1.00011
1.00016
1.00021
1.00024
1.00025
1.00023
1.00019
1.00016
1.00016
1.00017
1.00018
1.00019
1.00018
1.00015
1.00012
1.00009
1.00006
1.00004
1.00002
1
0.999986
0.999973
0.999962
0.999953
0.999945
0.999939
0.999934
0.999931
0.999928
0.999927
0.999926
0.999926
0.999926
0.999926
0.999928
0.99993
0.999932
0.999935
0.999937
0.999941
0.999945
0.999949
0.999955
0.999961
0.999967
0.999975
0.999982
0.999986
0.999978
0.999982
0.999985
0.999986
0.999983
0.999979
0.999974
0.999969
0.999965
0.999962
0.999959
0.999957
0.999956
0.999954
0.999953
0.999952
0.999952
0.999953
0.999954
0.999955
0.999957
0.99996
0.999963
0.999967
0.999972
0.999978
0.999984
0.999993
1.00001
1.00002
1.00005
1.00009
1.00013
1.00019
1.00024
1.00028
1.0003
1.00027
1.0002
1.00014
1.00011
1.00011
1.00012
1.00014
1.00015
1.00013
1.00011
1.00009
1.00006
1.00004
1.00002
1.00001
1
0.99999
0.999981
0.999974
0.999968
0.999963
0.99996
0.999957
0.999954
0.999953
0.999951
0.999951
0.999951
0.999952
0.999952
0.999953
0.999955
0.999956
0.999958
0.99996
0.999962
0.999965
0.999968
0.99997
0.999973
0.999981
0.99998
0.999996
0.999982
0.999984
0.999995
1.00001
1.00001
1.00002
1.00002
1.00002
1.00002
1.00002
1.00002
1.00002
1.00002
1.00002
1.00002
1.00002
1.00002
1.00002
1.00002
1.00002
1.00002
1.00002
1.00002
1.00002
1.00002
1.00002
1.00002
1.00001
1.00002
1.00002
1.00004
1.00006
1.00008
1.0001
1.00012
1.00014
1.00018
1.00017
1.00011
1.00005
1.00002
1.00001
1.00001
1.00001
1
0.999989
0.999985
0.999993
0.999994
0.999996
1
1.00001
1.00001
1.00001
1.00001
1.00002
1.00002
1.00002
1.00002
1.00002
1.00002
1.00002
1.00002
1.00002
1.00002
1.00002
1.00002
1.00002
1.00002
1.00002
1.00002
1.00002
1.00002
1.00001
1.00001
1.00001
1
0.999999
0.999973
1.00001
0.999993
0.999987
0.999996
1.00001
1.00002
1.00003
1.00004
1.00004
1.00005
1.00005
1.00006
1.00006
1.00006
1.00006
1.00006
1.00007
1.00007
1.00007
1.00007
1.00006
1.00006
1.00006
1.00006
1.00005
1.00005
1.00004
1.00003
1.00002
1.00002
1.00002
1.00002
1.00001
1
0.999945
0.999944
0.99998
1.00003
1.00005
1.00003
1
0.999994
0.999972
0.999963
0.999951
0.999929
0.999915
0.999911
0.999934
0.999949
0.999962
0.999979
0.999996
1.00001
1.00002
1.00003
1.00004
1.00005
1.00005
1.00006
1.00006
1.00006
1.00006
1.00006
1.00006
1.00006
1.00006
1.00006
1.00006
1.00006
1.00005
1.00005
1.00005
1.00004
1.00003
1.00003
1.00002
1.00001
0.999993
0.999949
1
0.999998
0.999994
0.999998
1
1
1
1
1
1
1
1
1
1
1
1
1
1
1
1
1
1
1
1
1
1
1
1
1
1
1
1
1
1
1
0.999999
0.999999
1
1
1
1
0.999999
0.999999
0.999998
0.999998
0.999998
0.999999
0.999999
0.999999
1
1
1
1
1
1
1
1
1
1
1
1
1
1
1
1
1
1
1
1
1
1
1
1
1
1
1
1
1
0.999963
0.996308
0.988289
0.981753
0.976061
0.971314
0.967414
0.96422
0.961603
0.95946
0.957706
0.956263
0.955073
0.954082
0.953249
0.952535
0.951913
0.951359
0.950859
0.950411
0.95003
0.949742
0.949585
0.949596
0.949763
0.950149
0.950779
0.951641
0.952631
0.953509
0.953815
0.952471
0.94727
0.936619
0.909812
0.808426
0.677193
0.568118
0.477904
0.444343
0.419281
0.420018
0.449653
0.503366
0.594229
0.705019
0.853636
0.921289
0.937814
0.947838
0.952128
0.953077
0.952765
0.952034
0.951258
0.950624
0.950176
0.949925
0.949893
0.950047
0.950376
0.950804
0.951292
0.951823
0.952386
0.95299
0.95365
0.954386
0.955237
0.956235
0.957423
0.958854
0.96059
0.9627
0.965274
0.968412
0.972232
0.976873
0.98243
0.988792
0.996541
0.0995162
0.125041
0.13785
0.144478
0.147547
0.148654
0.148698
0.148163
0.147309
0.146275
0.14515
0.143991
0.14284
0.141732
0.1407
0.139775
0.138989
0.138372
0.137943
0.137715
0.137693
0.137872
0.138253
0.138888
0.139752
0.140884
0.142389
0.14425
0.146287
0.148313
0.149846
0.148077
0.142699
0.14117
0.113771
0.105602
0.105587
0.105567
0.105541
0.105505
0.105471
0.105446
0.105427
0.105419
0.105427
0.105419
0.13217
0.143458
0.149552
0.14974
0.148093
0.146098
0.144034
0.142165
0.140582
0.139417
0.138609
0.138145
0.137876
0.137762
0.137841
0.138122
0.138598
0.139261
0.140088
0.14105
0.14212
0.14326
0.144439
0.145621
0.146761
0.1478
0.148652
0.149171
0.149096
0.147947
0.144817
0.138108
0.125218
0.0995773
-1.08375e-21
-3.36925e-20
-1.02443e-18
-1.70393e-17
-1.72568e-16
-9.56655e-16
-3.94855e-16
-1.58733e-15
-7.58362e-16
-1.27154e-15
-7.22245e-17
1.57772e-31
1.02991e-15
4.36103e-14
1.18414e-12
2.45292e-11
4.19434e-10
2.97504e-10
7.71179e-11
6.74516e-11
6.7452e-11
6.74516e-11
2.35705e-07
8.41541e-06
2.48569e-05
4.52421e-05
7.19841e-05
8.28016e-05
8.33224e-05
0.000123833
0.000185423
0.000215411
0.000219752
0.0041639
0.176386
0.262785
0.262827
0.262839
0.262837
0.262877
0.262904
0.262897
0.262904
0.262897
0.262859
0.122343
0.000482804
0.000303755
0.000228937
0.000155512
9.50988e-05
4.61846e-05
4.24887e-05
5.11558e-05
4.52898e-05
2.51762e-05
1.12859e-05
2.91687e-06
2.5584e-11
2.5584e-11
2.55424e-11
2.5584e-11
2.60166e-11
6.13357e-11
4.61796e-11
7.98818e-12
3.06851e-13
1.19113e-14
8.87948e-15
8.81765e-15
8.80116e-15
8.79368e-15
8.78985e-15
8.78601e-15
8.78293e-15
8.78128e-15
8.78055e-15
8.78021e-15
8.78019e-15
8.78018e-15
-1.44163e-19
-4.54989e-18
-8.00191e-17
-8.02834e-16
-4.34737e-15
-1.08046e-14
-7.77337e-15
-1.46144e-14
-8.53194e-15
-4.07573e-15
5.69404e-15
1.63008e-14
4.34225e-14
1.17734e-12
3.50898e-08
2.01481e-06
5.9933e-06
6.63476e-06
3.44319e-06
3.82377e-07
6.7452e-11
2.43369e-10
7.64848e-09
1.35641e-05
0.000271798
0.000355069
0.000286827
8.29728e-05
8.27783e-05
0.000155559
0.000303131
0.000215495
0.000215607
0.000729255
0.0622535
0.133989
0.184951
0.23098
0.258172
0.235785
0.236176
0.257331
0.228491
0.182668
0.124985
0.0361595
0.000336144
0.000334853
0.000334401
0.000472518
0.000366917
4.54172e-05
4.24887e-05
5.83143e-05
0.000413334
0.000451965
0.000451906
0.000268004
2.14473e-06
2.5584e-11
2.5584e-11
2.60166e-11
3.11875e-07
6.89887e-07
4.70727e-07
6.00703e-08
7.84932e-12
3.04988e-13
1.18362e-14
8.87552e-15
4.45947e-14
2.6043e-14
1.59381e-14
1.62738e-14
1.52891e-14
1.27528e-14
1.04671e-14
9.93324e-15
8.78018e-15
8.78018e-15
2.09672e-18
6.05737e-17
3.63605e-16
3.93973e-16
2.33236e-16
-4.50611e-17
-1.15523e-16
-5.45375e-17
8.73976e-18
1.45921e-14
2.38544e-13
1.319e-12
3.00722e-11
9.51388e-10
9.48645e-07
1.44116e-05
1.77155e-05
1.77233e-05
1.62973e-05
1.91186e-10
8.38051e-11
1.0416e-10
2.94406e-10
2.10902e-05
0.000295552
0.000355065
0.000355071
0.000249176
8.33224e-05
0.000884631
0.00284562
0.00284562
0.00284562
0.00192836
0.000112656
1.09942e-05
1.06591e-05
1.02937e-05
0.0130603
1.05513e-09
1.05506e-09
0.00621563
1.05442e-09
1.05009e-09
1.04622e-09
0.000512885
0.00195499
0.00300439
0.00300481
0.00300481
0.000553387
4.75737e-05
0.000112791
0.000450959
0.000451509
0.000451847
0.000451926
0.000239627
7.36504e-07
8.4888e-09
2.6015e-07
3.4253e-06
1.09297e-05
1.17194e-05
1.10481e-05
8.23793e-06
2.27679e-06
5.11032e-10
4.77113e-12
9.12403e-14
3.57918e-13
3.92729e-13
7.0756e-14
1.5617e-14
1.28293e-14
1.21736e-14
1.14414e-14
1.06213e-14
1.11258e-14
9.169e-15
1.57047e-17
3.26189e-17
8.73603e-17
9.22115e-17
5.14334e-17
6.37267e-18
0
3.46593e-17
3.90677e-15
1.07708e-13
8.12954e-13
1.81651e-12
4.21667e-11
1.23445e-09
1.76314e-06
1.5471e-05
1.77233e-05
1.77115e-05
1.03126e-05
1.0016e-10
1.0016e-10
1.00159e-10
1.01954e-10
1.04053e-10
1.05285e-10
4.89399e-05
0.000300456
0.000343674
0.000343165
0.000153431
7.0832e-05
0.000267458
0.000369508
0.00017008
6.17088e-06
6.63806e-05
9.1583e-05
1.02348e-05
1.05513e-09
1.05502e-09
1.0549e-09
1.05442e-09
1.05009e-09
1.04622e-09
1.0462e-09
1.04622e-09
0.000325545
0.000443507
0.000209792
2.98299e-06
0.000131146
0.000160919
0.000166774
0.000179395
0.000293108
0.000234464
3.66295e-05
1.76441e-11
1.54727e-07
1.42354e-08
2.03268e-09
1.24001e-05
1.36609e-05
1.3662e-05
1.36486e-05
1.36233e-05
1.36118e-05
4.59915e-06
2.95726e-08
6.89276e-11
2.71645e-12
1.51115e-12
9.10437e-13
1.11595e-13
8.98887e-15
6.93594e-15
6.64451e-15
7.4496e-15
1.03104e-14
6.82275e-15
2.94308e-16
2.57108e-17
3.0624e-17
1.27093e-17
2.90588e-18
1.24934e-18
1.61371e-18
1.59866e-16
1.15196e-14
1.45008e-13
4.08213e-13
4.2493e-13
1.08039e-12
2.52941e-11
7.87198e-10
1.46132e-06
7.84329e-06
5.83853e-06
2.24612e-10
2.19098e-10
1.00297e-10
1.03172e-10
1.03285e-10
1.03516e-10
1.04063e-10
1.05287e-10
1.07203e-10
1.78559e-10
1.55439e-10
1.55458e-10
1.55442e-10
1.55458e-10
1.58071e-10
2.99925e-10
5.92025e-06
6.86806e-05
8.5868e-05
3.72241e-05
1.05518e-09
1.05513e-09
1.13831e-09
1.11455e-09
1.70455e-09
2.83289e-09
4.25587e-09
2.34059e-09
7.13845e-10
7.10901e-10
7.08394e-10
7.10901e-10
4.88749e-06
3.48013e-05
2.48146e-05
2.74751e-06
4.88314e-11
1.05608e-11
1.31176e-11
1.69917e-11
1.75978e-11
6.21487e-11
1.35738e-10
3.47757e-06
2.97374e-06
1.56878e-06
4.75285e-06
1.2411e-05
1.35791e-05
1.35066e-05
3.72237e-06
2.14616e-09
9.10926e-11
6.78681e-12
1.05003e-12
1.37197e-13
9.78423e-15
4.77532e-15
4.55338e-15
6.27892e-15
1.0151e-14
5.82699e-15
3.76071e-16
2.29713e-17
2.99055e-17
1.12993e-17
1.42586e-18
2.18825e-19
1.25886e-18
2.57525e-16
1.82608e-14
1.68135e-13
3.34782e-13
3.36083e-13
3.59674e-13
1.00353e-11
8.72424e-10
2.76687e-10
2.67848e-10
2.28875e-10
1.19063e-09
1.24861e-09
1.17301e-10
1.41862e-10
1.43059e-10
1.44793e-10
2.0689e-10
3.01108e-10
4.01467e-10
5.03221e-10
6.45055e-10
8.52648e-10
1.04298e-09
1.1135e-09
1.11277e-09
9.32347e-10
9.3257e-10
9.34098e-10
9.36532e-10
9.37685e-10
1.32791e-09
1.13237e-09
1.52243e-09
1.79735e-09
5.05763e-09
5.23122e-09
5.17012e-09
4.40939e-09
2.08095e-09
8.08595e-10
7.07196e-10
7.42288e-10
1.41945e-10
6.68839e-12
2.03109e-12
2.99054e-10
2.44353e-12
5.91291e-12
1.26884e-11
1.71279e-11
1.71147e-11
1.80224e-11
2.60211e-08
2.53381e-09
1.75361e-09
6.80861e-10
4.34319e-10
4.2803e-10
1.11736e-05
1.35009e-05
7.43829e-06
1.4344e-08
1.28484e-10
8.27558e-12
4.70672e-13
1.92356e-13
1.63198e-14
4.24544e-15
3.51896e-15
5.18789e-15
8.73789e-15
4.60574e-15
2.58823e-16
1.3744e-17
2.153e-17
8.28615e-18
1.06671e-18
1.76327e-19
2.9957e-19
8.24097e-17
5.71179e-15
7.87508e-14
2.79746e-13
3.39333e-13
1.08038e-12
4.70427e-09
6.7783e-08
7.7618e-08
1.45292e-08
2.26493e-10
2.57022e-10
2.24813e-10
3.50226e-11
2.73844e-11
8.70863e-12
5.97982e-12
2.49847e-12
1.81182e-12
1.64084e-12
1.65527e-12
1.68025e-12
3.21434e-12
2.19797e-11
1.18124e-10
4.13376e-10
9.68858e-10
1.36807e-09
1.47803e-09
1.41983e-09
1.20773e-09
1.24093e-09
1.13037e-09
1.56414e-09
1.96165e-09
3.41753e-09
1.15212e-09
3.8324e-10
6.0731e-10
4.92559e-10
3.38368e-10
2.54517e-10
2.28041e-10
1.94968e-10
1.5205e-12
1.65627e-12
1.87279e-12
2.07126e-12
6.58748e-12
1.48894e-11
2.16192e-11
3.6688e-11
2.08024e-11
1.69277e-09
3.29727e-10
4.64209e-10
5.47616e-10
4.2803e-10
4.24944e-10
6.97075e-07
1.34446e-05
5.4424e-06
2.58883e-09
8.63762e-11
6.05685e-12
1.50085e-12
2.42579e-13
1.41929e-14
3.61712e-15
2.42721e-15
3.31345e-15
5.0911e-15
2.61901e-15
6.81672e-17
3.45142e-18
6.88833e-18
2.95513e-18
5.60536e-19
1.36051e-19
1.96266e-20
3.6036e-18
5.26279e-16
1.57913e-14
1.22993e-13
3.18202e-13
7.93348e-12
1.8526e-08
8.32116e-08
8.29318e-08
9.13128e-09
2.26576e-10
2.26493e-10
2.29078e-10
7.78867e-10
3.15064e-11
4.79907e-10
8.16734e-12
6.21636e-12
2.97427e-11
1.61867e-12
2.54392e-12
3.34926e-12
5.14069e-12
7.50566e-12
1.05977e-11
1.22249e-11
1.23771e-11
4.17828e-11
5.05619e-10
1.39347e-09
1.52486e-09
1.1965e-09
1.07422e-09
1.43636e-09
6.94365e-10
3.72271e-10
9.14889e-11
5.44584e-11
3.45669e-11
3.1088e-11
2.49809e-11
1.64745e-11
9.28327e-12
5.09816e-12
1.44803e-12
1.60593e-12
4.01252e-12
1.94202e-11
4.20497e-11
6.39391e-11
7.52306e-11
1.3207e-10
1.88928e-10
1.99651e-10
2.27798e-10
3.67444e-10
4.82385e-10
4.33548e-10
4.23798e-10
4.23764e-10
6.55584e-06
3.14858e-06
1.6725e-09
4.86713e-11
3.89039e-12
1.78062e-12
2.67788e-13
1.27371e-14
2.55444e-15
1.31109e-15
1.29513e-15
1.51857e-15
8.62966e-16
4.47226e-18
2.46466e-19
6.30239e-19
3.33879e-19
1.45326e-19
7.97951e-20
9.27375e-21
1.9625e-20
2.6602e-18
4.7485e-16
8.43266e-15
1.34867e-13
5.57526e-12
1.35089e-08
8.32116e-08
8.08567e-08
1.19601e-08
6.35723e-08
2.90424e-07
1.37882e-07
3.14725e-08
5.79319e-08
2.12815e-08
7.78891e-11
6.6182e-11
1.0491e-10
2.5195e-13
2.98743e-13
3.15572e-13
3.49747e-13
1.91363e-12
6.69426e-12
1.41962e-11
2.17064e-11
3.13676e-11
5.32753e-11
2.60956e-10
8.11831e-10
1.04592e-09
9.81478e-10
1.43631e-09
9.02608e-10
2.15519e-10
1.28598e-10
7.51618e-11
4.6401e-11
2.92374e-11
1.48875e-11
6.24092e-12
2.31292e-12
5.20461e-13
6.92861e-13
3.05795e-12
1.95263e-11
4.6107e-11
8.24964e-11
2.02174e-10
7.53069e-10
2.88857e-09
3.1388e-09
2.24353e-09
7.14464e-10
4.84291e-10
5.18465e-10
4.59685e-10
4.23748e-10
4.23764e-10
6.3672e-06
3.13626e-06
4.92802e-09
5.77269e-11
2.25125e-12
9.20908e-13
1.5976e-13
8.27279e-15
1.28539e-15
4.88797e-16
2.45154e-16
1.81812e-16
1.39767e-16
6.57549e-20
4.49556e-21
1.34247e-20
9.9626e-21
1.48719e-20
2.30529e-20
8.3814e-21
6.4582e-21
8.34032e-20
6.44527e-18
4.58815e-16
5.79545e-13
3.6375e-11
1.21121e-09
1.8028e-08
4.27711e-08
1.07908e-07
3.83581e-07
3.77337e-07
3.70934e-07
3.66548e-07
2.98637e-07
2.60793e-08
4.82225e-08
3.75309e-08
7.06726e-12
1.69795e-13
1.64326e-13
1.65233e-13
5.62326e-14
1.33865e-13
9.76845e-13
3.21255e-12
7.07024e-12
1.30826e-11
2.74309e-11
8.84353e-11
3.85059e-10
1.25255e-09
8.57159e-10
1.43623e-09
1.27311e-09
4.72868e-10
1.47881e-10
4.64162e-11
1.94163e-11
8.46214e-12
2.90165e-12
6.56113e-13
5.7239e-14
5.04104e-14
6.43942e-13
6.95298e-12
4.43161e-11
5.66065e-11
2.37814e-10
2.81336e-09
6.01087e-09
1.04902e-08
1.05553e-08
1.05879e-08
6.80197e-09
1.40283e-09
5.52729e-10
4.26222e-10
4.23764e-10
4.23764e-10
5.76796e-06
5.77764e-06
4.91665e-07
2.87439e-10
5.88116e-12
1.95934e-13
5.84194e-14
3.69261e-15
3.88483e-16
1.01019e-16
2.14067e-17
8.28766e-18
1.06217e-17
5.78983e-22
4.32368e-23
1.31547e-22
1.31078e-22
5.91552e-22
2.07334e-21
1.73874e-21
1.56574e-21
6.67148e-20
7.05713e-18
6.59578e-16
8.47481e-13
4.02246e-10
3.16621e-09
3.31578e-09
8.02594e-09
2.17903e-07
3.85488e-07
3.83684e-07
2.1137e-07
1.28184e-08
7.30436e-08
1.2298e-07
1.23522e-07
1.19285e-07
9.9107e-11
1.64278e-13
1.07091e-13
1.31812e-13
1.52179e-14
1.82798e-14
2.53957e-13
1.35799e-12
3.7744e-12
7.21217e-12
1.36712e-11
6.4158e-11
5.03401e-10
1.27938e-09
7.33815e-10
1.12414e-09
1.36314e-09
6.19229e-10
1.4544e-10
3.2372e-11
1.13315e-11
3.99869e-12
9.23657e-13
1.03061e-13
5.3276e-15
2.04111e-14
9.51093e-13
1.08437e-11
6.13961e-11
5.83429e-11
1.42849e-09
8.88635e-09
1.04573e-08
1.05553e-08
1.05879e-08
1.05879e-08
1.05879e-08
5.96365e-09
1.08086e-09
4.27028e-10
4.22605e-10
4.23764e-10
6.24594e-06
9.05358e-06
2.33706e-06
1.21963e-09
2.58473e-11
3.57383e-13
1.29928e-14
1.23514e-15
7.34747e-17
1.02255e-17
1.04999e-18
2.42208e-19
4.48783e-19
9.35516e-24
6.54407e-25
2.11429e-24
2.14917e-24
1.02194e-23
5.26434e-23
2.63581e-23
1.75312e-22
2.11024e-20
7.8101e-17
5.52779e-14
7.23999e-13
8.46937e-11
1.15146e-08
2.11574e-08
1.84318e-08
2.92382e-07
3.87698e-07
2.78389e-07
7.7935e-09
7.30525e-09
7.33189e-09
3.66097e-08
1.22112e-07
1.32958e-07
8.59212e-08
6.22506e-13
6.40898e-14
7.3691e-14
7.715e-15
3.52204e-15
4.85007e-14
4.75515e-13
1.98621e-12
4.69735e-12
9.06016e-12
3.09875e-11
3.5297e-10
1.20768e-09
6.668e-10
9.33318e-10
1.3551e-09
6.86315e-10
1.43692e-10
2.24081e-11
6.57125e-12
1.81834e-12
2.68666e-13
1.54443e-14
1.41127e-15
1.23383e-14
1.00708e-12
1.27509e-11
6.8079e-11
2.09698e-10
2.87391e-09
1.01989e-08
1.03346e-08
8.5413e-09
8.18179e-09
9.7387e-09
9.55008e-09
5.20721e-09
1.20441e-09
4.22724e-10
4.21322e-10
1.76666e-06
9.05358e-06
9.05358e-06
3.24294e-06
1.48765e-09
2.8566e-11
4.53666e-13
2.50028e-14
1.64315e-15
2.2024e-17
6.92664e-19
4.56229e-20
9.02529e-21
1.63628e-20
1.99304e-25
1.47803e-26
5.08576e-26
5.22657e-26
1.47223e-25
4.55713e-25
1.16311e-25
1.40368e-23
3.21896e-21
5.68256e-17
3.35881e-14
3.2673e-12
1.06211e-10
5.25704e-09
1.09729e-07
1.14684e-07
3.87698e-07
3.87698e-07
3.01532e-07
7.30541e-09
7.30567e-09
7.30519e-09
7.33189e-09
7.61826e-09
1.36984e-07
1.67229e-07
1.73309e-08
2.04989e-14
1.65831e-14
1.58641e-14
2.27794e-15
1.08399e-14
1.63988e-13
9.86851e-13
2.98445e-12
6.57963e-12
2.08303e-11
2.27687e-10
9.86718e-10
6.07327e-10
8.17949e-10
1.31662e-09
6.99313e-10
1.14487e-10
1.43252e-11
3.9716e-12
8.95966e-13
9.074e-14
3.82172e-15
5.34067e-16
6.36261e-15
5.79212e-13
1.27881e-11
7.71383e-11
3.38945e-10
2.23368e-09
6.6105e-09
8.49782e-09
1.93102e-09
1.26649e-09
3.10053e-09
4.15834e-09
2.98954e-09
1.24162e-09
4.21268e-10
4.22724e-10
4.71429e-06
8.86048e-06
8.30577e-06
1.17661e-06
4.75711e-10
7.91879e-12
2.13524e-13
1.09337e-13
2.15219e-15
1.06215e-17
7.55074e-20
2.44434e-21
4.30368e-22
6.96361e-22
4.51779e-27
3.75989e-28
1.38067e-27
1.6478e-27
2.89579e-27
6.1898e-28
4.74837e-28
3.71919e-26
4.19927e-23
9.66134e-19
7.46448e-15
2.21345e-12
1.01831e-13
3.96449e-09
4.37608e-08
9.92764e-08
2.87695e-07
3.87698e-07
3.87578e-07
1.87403e-07
7.30567e-09
1.26429e-08
7.43516e-09
7.51174e-09
6.14049e-08
1.67229e-07
9.47937e-08
2.39313e-13
3.21939e-14
5.9767e-14
2.25562e-15
3.64777e-15
6.69272e-14
5.25381e-13
1.95495e-12
4.99312e-12
1.74575e-11
1.77474e-10
8.17528e-10
5.39848e-10
7.34455e-10
1.29192e-09
6.32649e-10
7.59996e-11
9.27542e-12
2.54287e-12
4.78299e-13
3.7236e-14
1.45111e-15
2.26489e-16
2.55439e-15
3.2491e-13
1.01054e-11
6.08076e-11
1.88267e-10
5.98306e-10
2.69237e-09
5.00358e-09
1.67753e-09
1.23796e-09
1.24513e-09
1.30666e-09
1.24612e-09
6.04359e-10
4.34334e-10
1.34842e-09
2.08031e-06
3.66827e-06
1.49635e-06
1.10737e-07
5.09155e-11
1.52454e-12
7.56607e-13
3.92019e-14
3.79293e-16
2.25869e-18
1.12215e-20
1.55697e-22
2.2236e-23
3.3677e-23
1.0602e-28
1.00389e-29
3.9243e-29
5.37237e-29
7.33732e-29
1.13109e-28
1.02329e-29
2.73302e-28
3.71919e-26
1.1075e-22
3.48799e-16
3.31198e-13
3.44134e-15
8.66302e-09
8.70951e-09
1.2046e-08
1.98854e-08
3.66197e-07
3.8345e-07
3.81119e-07
2.27129e-07
1.57498e-08
7.51174e-09
7.74873e-09
5.16766e-08
1.67229e-07
1.1327e-07
7.15142e-10
7.89623e-14
1.02461e-13
2.21073e-15
2.0914e-15
3.3908e-14
3.12711e-13
1.35224e-12
3.943e-12
1.56173e-11
1.56814e-10
6.87833e-10
4.7663e-10
6.70174e-10
1.27116e-09
5.11461e-10
4.607e-11
6.44381e-12
1.69375e-12
2.74937e-13
1.89958e-14
7.26179e-16
1.05063e-16
6.1361e-16
1.52792e-13
6.07548e-12
4.24394e-11
1.04128e-10
1.76409e-10
2.3985e-09
9.5957e-09
9.34886e-09
1.06066e-09
8.64691e-10
8.6186e-10
7.70481e-10
6.34989e-10
1.31859e-08
1.50906e-07
3.77139e-09
3.12731e-09
1.68439e-09
1.67402e-09
7.20481e-11
2.04723e-12
1.60449e-13
2.97012e-15
2.59247e-17
1.89583e-19
9.91235e-22
9.66451e-24
1.15803e-24
1.68824e-24
2.57557e-30
2.78289e-31
1.14284e-30
1.65153e-30
1.78929e-30
5.85622e-30
3.42994e-31
6.89024e-30
3.11261e-25
1.47123e-21
5.07202e-18
7.25355e-15
1.00963e-16
3.44134e-15
1.13899e-07
9.00916e-08
2.94652e-08
4.41596e-08
2.72526e-07
3.73471e-07
3.64011e-07
6.72953e-08
8.32362e-09
7.89937e-09
7.78139e-08
1.69692e-07
4.16277e-08
1.12898e-11
1.18883e-13
2.20415e-15
1.41753e-15
1.51613e-15
2.13203e-14
2.09938e-13
9.88395e-13
3.23739e-12
1.48967e-11
1.45317e-10
6.07227e-10
4.19933e-10
6.21821e-10
1.25041e-09
3.93383e-10
2.96022e-11
4.75569e-12
1.15749e-12
1.71911e-13
1.1775e-14
4.60288e-16
4.56458e-17
4.78215e-17
3.55013e-14
2.37529e-12
2.18104e-11
5.48476e-11
5.76025e-11
1.53646e-09
1.29532e-08
1.88198e-08
1.2252e-08
1.98167e-09
2.23061e-09
1.05874e-08
1.77105e-08
3.90888e-08
8.01151e-08
4.02781e-10
1.76716e-10
9.84539e-11
1.6513e-11
1.26234e-11
4.68658e-13
6.69999e-15
9.93168e-17
1.00422e-18
7.75154e-21
4.50784e-23
4.94915e-25
5.92469e-26
8.33549e-26
6.38925e-32
8.11722e-33
3.36571e-32
5.10337e-32
4.3743e-32
1.38779e-31
1.28004e-31
1.21119e-30
3.23894e-26
1.81159e-22
8.35349e-20
6.52079e-17
2.81583e-18
1.00853e-16
2.14481e-07
4.71455e-07
3.65838e-07
8.83287e-08
1.03676e-07
1.35273e-07
1.02649e-07
2.16541e-08
1.11424e-08
8.50636e-09
2.13379e-07
1.73539e-07
7.93353e-09
8.48165e-12
1.49126e-13
3.06461e-15
1.06661e-15
1.16659e-15
1.57785e-14
1.55878e-13
7.59141e-13
2.73584e-12
1.484e-11
1.40068e-10
5.51252e-10
3.65027e-10
5.8484e-10
1.21831e-09
2.94027e-10
2.1574e-11
3.64782e-12
8.11179e-13
1.16911e-13
8.37946e-15
3.41933e-16
2.10167e-17
1.14768e-17
3.54775e-15
4.61175e-13
5.60785e-12
2.19093e-11
4.1429e-11
5.40274e-11
4.74578e-09
1.91242e-08
2.15805e-08
2.17033e-08
2.20735e-08
2.30981e-08
2.30873e-08
1.84495e-08
2.67495e-10
1.46956e-11
1.75754e-11
1.02517e-11
1.87336e-12
7.87486e-13
2.12985e-14
2.10878e-16
3.07477e-18
3.05047e-20
2.30367e-22
1.43867e-24
2.16511e-26
2.96221e-27
3.94393e-27
1.59015e-33
2.38317e-34
9.8154e-34
1.70779e-33
1.17614e-33
2.92777e-33
5.77542e-33
5.32142e-32
4.66087e-28
2.68286e-24
1.85808e-21
1.21242e-18
3.33035e-19
2.81583e-18
4.39917e-08
4.77999e-07
4.84338e-07
4.88245e-07
4.15337e-07
1.16041e-07
1.76474e-08
1.51629e-08
1.31402e-08
1.24075e-07
3.64416e-07
9.80181e-08
1.54968e-10