/*--------------------------------*- C++ -*----------------------------------*\
| =========                 |                                                 |
| \\      /  F ield         | OpenFOAM: The Open Source CFD Toolbox           |
|  \\    /   O peration     | Version:  2412                                  |
|   \\  /    A nd           | Website:  www.openfoam.com                      |
|    \\/     M anipulation  |                                                 |
\*---------------------------------------------------------------------------*/
FoamFile
{
    version     2.0;
    format      ascii;
    arch        "LSB;label=32;scalar=64";
    class       volScalarField;
    location    "0.85";
    object      alpha.water;
}
// * * * * * * * * * * * * * * * * * * * * * * * * * * * * * * * * * * * * * //

dimensions      [0 0 0 0 0 0 0];

internalField   nonuniform List<scalar> 
6400
(
1
1
1
0.999999
0.999999
1
1
1
1
1
1
1
1
1
1
1
1
1
1
1
1
1
1
1
1
1
1
1
1
1
1
1
1
1
1
1
1
1
1
1
1
1
1
1
1
1
1
1
1
1
1
1
1
1
1
1
1
1
1
1
1
1
1
1
1
1
1
1
1
1
1
1
1
1
1
1
1
1
1
1
0.999995
1
1
1
1
1
1
1
1
1
1
1
1
1
1
1
1
1
1
1
1
1
1
1
1
1
1
1
1
1
1
1
1
1
1
1
1
1
1
1
1
1
1
1
1
1
1
1
1
1
1
1
1
1
1
1
1
1
1
1
1
1
1
1
1
1
1
1
1
1
1
1
1
1
1
1
1
1
1
1
1
0.999999
1
1
1
1
1
1
1
1
1
1
1
1
1
1
1
1
1
1
1
1
1
1
1
1
1
1
1
1
1
1
1
1
1
1
1
1
1
1
1
1
1
1
1
1
1
1
1
1
1
1
1
1
1
1
1
1
1
1
1
1
1
1
1
1
1
1
1
1
1
1
1
1
1
1
1
1
1
1
1
1
1
1
1
1
1
1
1
1
1
1
1
1
1
1
1
1
1
1
1
1
1
1
1
1
1
1
1
1
1
1
1
1
1
1
1
1
1
1
1
1
1
1
1
1
1
1
1
1
1
1
1
1
1
1
1
1
1
1
1
1
1
1
1
1
1
1
1
1
1
1
1
1
1
1
1
1
1
1
1
1
1
1
1
1
1
1
1
1
1
1
1
1
1
1
1
1
1
1
1
1
1
1
1
1
1
1
1
1
1
1
1
1
1
1
1
1
1
1
1
1
1
1
1
1
1
1
1
1
1
1
1
1
1
1
1
1
1
1
1
1
1
1
1
1
1
1
1
1
1
1
1
1
1
1
1
1
1
1
1
1
1
1
1
1
1
1
1
1
1
1
1
1
1
1
1
1
1
1
1
1
1
1
1
1
1
1
1
1
1
1
1
1
1
1
1
1
1
1
1
1
1
1
1
1
1
1
1
1
1
1
1
0.999999
1
1
1
1
1
1
1
1
1
1
1
1
1
1
1
1
1
1
1
1
1
1
1
1
1
1
1
1
1
1
1
1
1
1
1
1
1
1
1
1
1
1
1
1
1
1
1
1
1
1
1
1
1
1
1
1
1
1
1
1
1
1
1
1
1
1
1
1
1
1
1
1
1
1
1
1
1
1
1
1
1
1
1
1
1
1
1
1
1
1
1
1
1
1
1
1
1
1
1
1
1
1
1
1
1
1
1
1
1
1
1
1
1
1
1
1
1
1
1
1
1
1
1
1
1
1
1
1
1
1
1
1
1
1
1
1
1
1
1
1
1
1
1
1
1
1
1
1
1
1
1
1
1
1
1
1
1
1
1
1
1
1
1
1
1
1
1
1
1
1
1
1
1
1
1
1
1
1
1
1
1
1
1
1
1
1
1
1
1
1
1
1
1
1
1
1
1
1
1
1
1
1
1
1
1
1
1
1
1
1
1
1
1
1
1
1
1
1
1
1
1
1
1
1
1
1
1
1
1
1
1
1
1
1
1
1
1
1
1
1
1
1
1
1
1
1
1
1
1
1
1
1
1
1
1
1
1
1
1
1
1
1
1
1
1
1
1
1
1
1
1
1
1
1
1
1
1
1
1
1
1
1
1
1
1
1
1
1
1
1
1
1
1
1
1
1
1
1
1
1
1
1
1
1
1
1
1
1
1
1
1
1
1
1
1
1
1
1
1
1
1
1
1
1
1
1
1
1
1
1
1
1
1
1
1
1
1
1
1
1
1
1
1
1
1
1
1
1
1
1
1
1
1
1
1
1
1
1
1
1
1
1
1
1
1
1
1
1
1
1
1
1
1
1
1
1
1
1
1
1
1
1
1
1
1
1
1
1
1
1
1
1
1
1
1
1
1
1
1
1
1
1
1
1
1
1
1
1
1
1
1
1
1
1
1
1
1
1
1
1
1
1
1
1
1
1
1
1
1
1
1
1
1
1
1
1
1
1
1
1
1
1
1
1
1
1
1
1
1
1
1
1
1
1
1
1
1
1
1
1
1
1
1
1
1
1
0.999999
1
1
1
1
1
1
1
1
1
1
1
1
1
1
1
1
1
1
1
1
1
1
1
1
1
1
1
1
1
1
1
1
1
1
1
1
1
1
1
1
1
1
1
1
1
1
1
1
1
1
1
1
1
1
1
1
1
1
1
1
1
1
1
1
1
1
1
1
1
1
1
1
1
1
1
1
1
1
0.999997
0.999969
0.999992
0.999999
1
1
1
1
1
1
1
1
1
1
1
1
1
1
1
1
1
1
1
1
1
1
1
1
1
1
1
1
1
1
1
1
1
1
1
1
1
1
1
1
1
1
1
1
1
1
1
1
1
1
1
1
1
1
1
1
1
1
1
1
1
1
1
1
1
1
1
1
1
1
1
1
1
1
0.999999
0.999986
0.961831
0.839562
0.950004
0.999974
0.999999
0.999999
1
1
1
1
1
1
1
1
1
1
1
1
1
1
1
1
1
1
1
1
1
1
1
1
1
1
1
1
1
1
1
1
1
1
1
1
1
1
1
1
1
1
1
1
1
1
1
1
1
1
1
1
1
1
1
1
1
1
1
1
1
1
1
1
1
1
1
1
1
1
0.999999
0.999993
0.999113
0.802926
0.31489
0.11519
0.273491
0.787317
0.99899
0.999989
0.999999
1
1
1
1
1
1
1
1
1
1
1
1
1
1
1
1
1
1
1
1
1
1
1
1
1
1
1
1
1
1
1
1
1
1
1
1
1
1
1
1
1
1
1
1
1
1
1
1
1
1
1
1
1
1
1
1
1
1
1
1
1
1
1
1
1
1
1
1
0.999999
0.999979
0.998904
0.6654
0.0770407
0.00506422
0.00655479
0.00559758
0.0504923
0.672928
0.999789
0.999982
0.999999
1
1
1
1
1
1
1
1
1
1
1
1
1
1
1
1
1
1
1
1
1
1
1
1
1
1
1
1
1
1
1
1
1
1
1
1
1
1
1
1
1
1
1
1
1
1
1
1
1
1
1
1
1
1
1
1
1
1
1
1
1
1
1
1
1
1
0.999998
0.999969
0.999409
0.678718
0.0535855
0.00314463
0.00430742
0.00873279
0.00537555
0.000192432
0.0649733
0.75955
0.999654
0.999986
0.999999
1
1
1
1
1
1
1
1
1
1
1
1
1
1
1
1
1
1
1
1
1
1
1
1
1
1
1
1
1
1
1
1
1
1
1
1
1
1
1
1
1
1
1
1
1
1
1
1
1
1
1
1
1
1
1
1
1
1
1
1
1
1
1
1
0.999999
0.999979
0.999608
0.836143
0.139428
9.6536e-05
0.0028237
8.95292e-05
0.000499322
0.000133991
4.12173e-05
0.000183836
0.239806
0.923167
0.999811
0.999992
1
1
1
1
1
1
1
1
1
1
1
1
1
1
1
1
1
1
1
1
1
1
1
1
1
1
1
1
1
1
1
1
1
1
1
1
1
1
1
1
1
1
1
1
1
1
1
1
1
1
1
1
1
1
1
1
1
1
1
1
1
1
1
0.999999
0.999982
0.999678
0.912185
0.290747
3.82163e-06
4.91182e-06
5.72166e-06
7.3413e-05
0.000709506
0.000201075
2.48353e-05
3.977e-05
0.000184221
0.503386
0.986999
0.999874
0.999994
1
1
1
1
1
1
1
1
1
1
1
1
1
1
1
1
1
1
1
1
1
1
1
1
1
1
1
1
1
1
1
1
1
1
1
1
1
1
1
1
1
1
1
1
1
1
1
1
1
1
1
1
1
1
1
1
1
1
1
1
0.999745
0.999999
0.999999
0.99998
0.999474
0.787018
0.077573
1.55542e-06
1.8762e-06
3.82809e-06
2.34926e-05
0.000119313
4.78726e-05
2.10158e-05
2.2301e-05
3.98249e-05
0.218991
0.911187
0.999761
0.999992
0.999999
0.999999
0.999841
1
1
1
1
1
1
1
1
1
1
1
1
1
1
1
1
1
1
1
1
1
1
1
1
1
1
1
1
0.144417
0.145258
0.146946
0.149498
0.152939
0.157304
0.162638
0.169006
0.176522
0.185363
0.195663
0.207412
0.220683
0.235632
0.252585
0.272069
0.294497
0.320344
0.350136
0.383998
0.421115
0.461285
0.508254
0.566902
0.639468
0.726204
0.822271
0.885532
0.891324
0.880432
0.885325
0.978328
0.999474
0.998422
0.699271
0.00103241
1.05304e-06
1.53114e-06
1.87551e-06
3.82734e-06
3.55541e-05
2.2351e-05
1.99228e-05
1.91722e-05
2.23143e-05
0.157643
0.894689
0.998325
0.998738
0.917573
0.8617
0.865161
0.892713
0.881088
0.801365
0.704451
0.621713
0.551234
0.493472
0.447597
0.410155
0.376005
0.344415
0.316057
0.291178
0.269521
0.250713
0.234382
0.220164
0.207616
0.196599
0.186943
0.178696
0.171784
0.166064
0.161408
0.157742
0.155026
0.153229
0.152335
9.80564e-06
1.03172e-05
1.14347e-05
1.3461e-05
1.7053e-05
2.34247e-05
3.469e-05
5.38635e-05
8.26422e-05
0.000113076
0.000116851
6.60542e-05
-6.44827e-06
-2.38119e-05
-2.64877e-05
-1.6558e-05
8.14159e-06
9.22439e-05
0.000321708
0.000829113
0.0021756
0.0053952
0.0121592
0.0309255
0.0736506
0.138214
0.203673
0.314127
0.701429
0.974746
0.993672
0.994875
0.998422
0.959986
0.328234
-1.01221e-06
9.02259e-07
1.05302e-06
6.03385e-06
9.06518e-06
1.99077e-05
1.99228e-05
1.91722e-05
1.86753e-05
1.91719e-05
0.0248215
0.788949
0.995065
0.99689
0.994224
0.99096
0.848095
0.41966
0.240227
0.204833
0.14322
0.0731
0.028925
0.0111809
0.00572638
0.00256628
0.000909637
0.000384874
0.000131194
1.7842e-05
-1.57202e-05
-2.82648e-05
-2.98401e-05
-1.89527e-05
4.18062e-05
0.000114886
0.000136506
0.000112258
7.71568e-05
5.017e-05
3.34735e-05
2.39383e-05
1.87074e-05
1.59525e-05
1.47786e-05
3.12525e-07
3.41604e-07
4.06446e-07
5.33673e-07
7.84349e-07
1.29744e-06
2.3764e-06
4.60753e-06
8.91145e-06
1.5202e-05
2.01597e-05
1.8739e-05
1.2514e-05
2.39944e-06
2.02811e-06
1.0054e-06
1.06593e-06
1.2462e-05
8.3475e-05
0.000239284
0.00133959
0.0059424
0.00848585
0.00443816
0.0016708
0.00193011
0.0213547
0.226355
0.453381
0.619145
0.806619
0.885594
0.744234
0.230617
0.00367571
-3.43543e-06
8.90735e-07
9.02191e-07
1.78311e-05
2.58536e-05
2.65513e-05
1.9511e-05
1.86753e-05
1.86753e-05
1.86301e-05
-1.6029e-05
0.29551
0.873268
0.965756
0.875642
0.622142
0.379565
0.239239
0.0692473
0.00429519
0.00285665
0.00262622
0.00394686
0.00865698
0.00786511
0.00253961
0.000189169
7.79311e-05
2.38556e-05
9.78657e-07
1.77969e-06
2.30293e-06
3.52502e-06
5.95963e-06
1.8851e-05
2.83307e-05
2.54381e-05
1.68714e-05
8.97686e-06
4.56027e-06
2.41235e-06
1.41382e-06
9.48785e-07
7.31506e-07
6.43181e-07
9.56697e-09
1.06709e-08
1.32035e-08
1.88013e-08
3.26049e-08
6.58879e-08
1.50339e-07
3.62809e-07
8.40993e-07
1.63306e-06
2.15504e-06
2.25957e-06
2.72523e-06
2.36471e-06
2.20818e-06
1.94843e-06
3.93252e-06
7.77433e-06
1.50337e-05
3.18086e-05
9.10535e-05
0.000177262
0.000169342
4.74564e-05
0.000263652
0.000525519
7.43612e-05
1.3935e-08
7.47825e-08
3.68787e-07
0.00176392
0.0763735
0.0749536
0.00189506
6.16942e-05
8.20199e-07
8.93434e-07
8.92398e-07
3.25478e-05
0.000205395
0.000107656
2.13544e-05
1.8728e-05
1.86753e-05
1.87393e-05
5.20818e-06
0.00194534
0.247539
0.250663
0.0735487
0.000241042
5.10636e-05
1.00599e-05
1.84874e-06
0.000232592
0.000360199
0.000148479
6.25671e-05
3.22389e-07
6.65785e-07
1.16148e-06
1.37585e-06
2.51815e-06
6.35535e-06
6.36154e-06
3.77104e-06
2.62609e-06
3.50588e-06
3.42046e-06
3.42544e-06
3.97699e-06
3.14882e-06
1.87939e-06
8.91598e-07
3.79489e-07
1.63564e-07
7.88748e-08
4.6082e-08
3.23476e-08
2.71005e-08
3.65777e-10
4.15618e-10
5.57902e-10
9.02933e-10
1.74879e-09
4.03053e-09
1.05776e-08
2.93205e-08
7.74118e-08
1.69102e-07
2.47467e-07
2.78748e-07
2.8213e-07
3.95687e-07
3.71414e-07
2.23446e-07
4.18264e-07
5.82273e-07
5.94047e-07
4.71048e-08
9.96353e-08
1.69533e-07
1.51828e-07
4.26304e-08
4.97513e-09
4.26001e-09
2.47506e-09
8.1728e-10
1.59131e-09
1.36497e-08
1.14119e-07
8.53777e-07
4.30664e-06
4.30639e-06
7.70676e-06
9.25192e-07
8.91337e-07
9.58968e-07
6.0614e-05
0.000456874
0.000470615
6.81157e-05
1.9849e-05
1.88984e-05
2.00677e-05
1.88791e-05
0.000458813
0.00146329
0.00241397
0.00017506
3.39208e-05
5.34314e-06
5.80403e-07
4.35482e-08
9.04408e-08
7.43787e-08
5.15491e-08
4.71699e-08
2.55476e-07
8.58447e-07
1.34728e-06
1.39834e-06
1.35189e-06
1.04978e-06
7.92842e-07
5.38598e-07
4.96159e-07
6.83937e-07
5.46034e-07
4.47057e-07
4.90668e-07
3.84241e-07
2.13332e-07
9.04839e-08
3.40405e-08
1.2861e-08
5.4319e-09
2.77555e-09
1.76875e-09
1.4073e-09
2.25022e-11
2.60683e-11
3.42822e-11
5.11851e-11
1.0048e-10
2.55261e-10
7.42876e-10
2.28592e-09
6.64822e-09
1.58217e-08
2.5771e-08
2.8729e-08
1.9387e-08
6.95555e-09
3.0142e-09
1.8635e-09
2.13757e-09
2.37813e-09
2.47276e-09
2.73537e-09
5.38877e-09
9.05532e-09
8.13574e-09
6.45039e-09
3.60044e-09
4.80309e-09
3.60708e-09
7.43907e-10
4.74445e-10
4.59282e-10
1.47435e-10
4.35574e-07
5.05028e-06
3.64878e-08
1.4971e-07
2.11735e-06
1.33371e-06
1.67906e-06
0.000123107
0.00047125
0.000617375
0.00047374
2.47349e-05
1.54147e-05
4.38351e-05
1.81497e-05
0.000117792
0.000171902
0.000720817
0.000146457
9.2523e-07
8.27075e-08
4.74893e-09
6.30041e-10
8.27204e-08
1.0953e-07
8.56597e-08
4.67444e-08
2.30784e-08
3.50123e-08
4.6187e-08
3.71775e-08
1.82482e-08
2.81997e-09
3.34738e-09
3.62493e-09
5.0407e-09
1.02859e-08
3.39386e-08
5.32303e-08
5.67995e-08
4.31333e-08
2.22192e-08
8.69518e-09
2.99904e-09
1.03297e-09
3.98013e-10
1.97798e-10
1.27351e-10
1.01756e-10
1.328e-12
1.59805e-12
2.25732e-12
3.78322e-12
7.46844e-12
1.70055e-11
5.17854e-11
1.72412e-10
5.39303e-10
1.37242e-09
2.40392e-09
2.80748e-09
2.09894e-09
1.33389e-09
5.5853e-10
3.32879e-10
3.03323e-10
2.8903e-10
2.90037e-10
3.17534e-10
4.28305e-10
6.97565e-10
8.72042e-10
8.85755e-10
1.08951e-09
1.73717e-09
1.34817e-09
7.95058e-10
4.50656e-10
4.51777e-10
4.56834e-10
7.45998e-10
1.97383e-08
5.16069e-09
5.77441e-08
1.99325e-06
2.4965e-06
3.90881e-06
0.000188391
7.0735e-05
0.000648732
0.00065349
0.000261101
8.84805e-06
7.56046e-06
3.56187e-06
9.14305e-06
1.24344e-05
5.28373e-05
8.93777e-06
-7.85217e-09
2.06437e-09
6.25134e-10
4.93938e-10
2.51691e-09
3.09438e-09
3.62078e-09
2.21261e-09
2.42486e-10
2.65136e-10
2.81836e-10
2.68063e-10
2.7958e-10
4.35364e-10
5.23079e-10
6.46683e-10
1.01885e-09
2.22894e-09
4.07471e-09
5.95279e-09
6.09169e-09
4.42833e-09
2.16604e-09
7.98155e-10
2.62996e-10
9.78946e-11
3.96557e-11
1.9086e-11
1.15018e-11
8.83123e-12
2.12172e-13
2.56349e-13
3.60865e-13
5.85405e-13
9.9099e-13
1.48854e-12
4.16209e-12
1.48675e-11
5.00839e-11
1.36602e-10
2.55701e-10
3.10909e-10
2.61434e-10
1.87257e-10
1.19443e-10
8.93813e-11
8.97535e-11
9.80932e-11
1.13155e-10
1.302e-10
1.53441e-10
1.82006e-10
1.83749e-10
1.63689e-10
1.93348e-10
2.98583e-10
3.04535e-10
3.51994e-10
3.94249e-10
4.54078e-10
4.6434e-10
4.6652e-10
4.79839e-10
1.03379e-09
5.16069e-09
7.93143e-08
1.09158e-06
2.82067e-05
0.000212546
3.34009e-05
0.000518163
0.000670763
0.000688037
0.000148608
2.59168e-06
1.94112e-06
1.08618e-06
5.53925e-07
6.31809e-07
8.41417e-08
1.92157e-09
7.94257e-10
7.83844e-10
4.01045e-10
3.12731e-10
2.64802e-10
2.39255e-10
2.21479e-10
2.11789e-10
1.96325e-10
1.79213e-10
1.62426e-10
1.52274e-10
1.5154e-10
1.49596e-10
1.57223e-10
2.1838e-10
3.5408e-10
5.48177e-10
7.06856e-10
6.81201e-10
4.55567e-10
2.21403e-10
8.68607e-11
2.94639e-11
9.49852e-12
3.57949e-12
2.2311e-12
1.60652e-12
1.30333e-12
1.54933e-14
1.92154e-14
2.84089e-14
5.06684e-14
1.07181e-13
2.64772e-13
7.75025e-13
2.12721e-12
4.72674e-12
1.38837e-11
2.84991e-11
3.58781e-11
4.28437e-11
4.70429e-11
4.91181e-11
5.00845e-11
6.26678e-11
7.57814e-11
9.2877e-11
1.13247e-10
1.29063e-10
1.36937e-10
1.25532e-10
1.08752e-10
1.26765e-10
1.80476e-10
2.30233e-10
3.02795e-10
3.91421e-10
4.71708e-10
4.86451e-10
4.79664e-10
7.3605e-10
5.15492e-09
7.92994e-08
9.2317e-07
7.42386e-05
0.000434137
0.000217117
1.65256e-05
2.49563e-05
0.000676615
0.000700931
0.000699778
2.14329e-05
1.08618e-06
6.23724e-07
1.401e-07
1.97663e-08
3.75985e-09
1.24902e-09
1.01485e-09
6.60177e-10
4.05697e-10
3.24773e-10
2.78301e-10
2.4596e-10
2.26068e-10
2.12027e-10
1.92992e-10
1.72759e-10
1.52356e-10
1.30247e-10
1.1813e-10
9.94919e-11
8.06073e-11
8.15354e-11
8.36024e-11
9.00261e-11
9.30786e-11
8.91991e-11
5.8198e-11
2.56194e-11
8.91838e-12
3.97683e-12
1.67534e-12
6.5218e-13
3.09459e-13
1.85906e-13
1.41501e-13
8.10017e-16
1.02465e-15
1.56869e-15
2.97647e-15
7.04729e-15
2.11534e-14
7.26317e-14
2.63787e-13
8.85924e-13
2.485e-12
4.96087e-12
6.99738e-12
9.29037e-12
1.18665e-11
1.44175e-11
1.58075e-11
2.14544e-11
2.8835e-11
3.80597e-11
5.03329e-11
6.10442e-11
6.9868e-11
7.79148e-11
8.59963e-11
1.01024e-10
1.28574e-10
1.64598e-10
2.19841e-10
2.88762e-10
3.45001e-10
3.73709e-10
8.40499e-10
6.91309e-09
7.51013e-08
7.42584e-07
4.25094e-05
0.000622855
0.000717158
7.19149e-05
1.56212e-05
1.65256e-05
0.000112124
0.000674189
0.000742834
0.000418097
2.01599e-05
7.51652e-07
1.21225e-07
1.50584e-08
1.9359e-09
5.29021e-10
3.98821e-10
3.55185e-10
3.04139e-10
2.45634e-10
2.01027e-10
1.69016e-10
1.45261e-10
1.28222e-10
1.10861e-10
9.41193e-11
7.76008e-11
6.10779e-11
4.94845e-11
3.7574e-11
2.86066e-11
2.53553e-11
2.47022e-11
2.26135e-11
1.61273e-11
1.00204e-11
6.88932e-12
4.14196e-12
1.63207e-12
5.45852e-13
1.76173e-13
6.13247e-14
2.55292e-14
1.41564e-14
1.04106e-14
4.55385e-17
5.8226e-17
9.04539e-17
1.75243e-16
4.23507e-16
1.27119e-15
4.65074e-15
1.93911e-14
8.04414e-14
2.65512e-13
6.58966e-13
1.18263e-12
1.68749e-12
2.09565e-12
2.52046e-12
3.06277e-12
4.35798e-12
6.4273e-12
9.15621e-12
1.27955e-11
1.68676e-11
2.15689e-11
2.83507e-11
3.77885e-11
4.95597e-11
6.45262e-11
8.2504e-11
1.1007e-10
1.43952e-10
1.63125e-10
3.4821e-10
3.17369e-09
3.93349e-08
4.00948e-07
4.99868e-06
0.000333951
0.00075533
0.000735056
5.19232e-06
8.83546e-06
2.63042e-05
2.36645e-05
0.000100539
0.000679765
0.000844873
0.000473381
2.10415e-05
9.17472e-07
1.18283e-07
1.43972e-08
1.57281e-09
2.58861e-10
1.61378e-10
1.53399e-10
1.25562e-10
9.90093e-11
7.92199e-11
6.16596e-11
4.92723e-11
3.93003e-11
3.09419e-11
2.38642e-11
1.79015e-11
1.3237e-11
9.52575e-12
7.15065e-12
5.8467e-12
5.63562e-12
5.21189e-12
3.94525e-12
2.49591e-12
1.2998e-12
5.27489e-13
1.69084e-13
4.5795e-14
1.27499e-14
4.21286e-15
1.78051e-15
9.95643e-16
7.30323e-16
2.63348e-18
3.39885e-18
5.34258e-18
1.05372e-17
2.60634e-17
8.00553e-17
2.97369e-16
1.22492e-15
4.97633e-15
1.79537e-14
5.12939e-14
1.08757e-13
1.75359e-13
2.21996e-13
2.74405e-13
4.04082e-13
6.50625e-13
1.05613e-12
1.63439e-12
2.40273e-12
3.42933e-12
4.87958e-12
7.11984e-12
1.0579e-11
1.57541e-11
2.24342e-11
2.94791e-11
4.23456e-11
5.44005e-11
8.72758e-11
7.84375e-10
1.05999e-08
1.33973e-07
1.28625e-06
9.04241e-05
0.000740121
0.00075533
0.00017793
4.66984e-06
4.67199e-06
3.01515e-05
2.84619e-05
3.11829e-05
0.000111714
0.000883095
0.000910946
0.000394113
9.22596e-06
8.80122e-07
1.0195e-07
9.34138e-09
7.13661e-10
9.03895e-11
5.69588e-11
4.88342e-11
3.71827e-11
2.85409e-11
2.04044e-11
1.46576e-11
1.05175e-11
7.54073e-12
5.43384e-12
3.88609e-12
2.67607e-12
1.79967e-12
1.22215e-12
8.87678e-13
7.70319e-13
6.87362e-13
5.13297e-13
3.03002e-13
1.31054e-13
4.29969e-14
1.22024e-14
3.27361e-15
9.19576e-16
3.03946e-16
1.28518e-16
7.17609e-17
5.24294e-17
1.52408e-19
1.98314e-19
3.14568e-19
6.2919e-19
1.58667e-18
4.9588e-18
1.85458e-17
7.6989e-17
3.1532e-16
1.15309e-15
3.37013e-15
7.40966e-15
1.26417e-14
1.66785e-14
2.14305e-14
3.51195e-14
6.38875e-14
1.1472e-13
1.95454e-13
3.14321e-13
4.97007e-13
7.96954e-13
1.3111e-12
2.20502e-12
3.71517e-12
5.8883e-12
8.74318e-12
1.49257e-11
1.88297e-11
1.01849e-10
1.97116e-09
2.96258e-08
3.56857e-07
4.63619e-06
0.000342323
0.00072928
0.00054429
5.83135e-06
4.66967e-06
4.65253e-06
9.12863e-06
3.14441e-05
2.97282e-05
3.23097e-05
0.000298537
0.000962922
0.0010076
0.000216344
3.45485e-06
4.03203e-07
3.5829e-08
2.40658e-09
1.34279e-10
2.30183e-11
1.67582e-11
1.17268e-11
8.14554e-12
5.24199e-12
3.31107e-12
2.08479e-12
1.32507e-12
8.61633e-13
5.62505e-13
3.54605e-13
2.16616e-13
1.3023e-13
8.59728e-14
6.9711e-14
5.96464e-14
4.10587e-14
2.22532e-14
9.42199e-15
3.13531e-15
8.89315e-16
2.38116e-16
6.64785e-17
2.18727e-17
9.22085e-18
5.14023e-18
3.74132e-18
8.76928e-21
1.14896e-20
1.8339e-20
3.70041e-20
9.41331e-20
2.96921e-19
1.12139e-18
4.7198e-18
1.97051e-17
7.36686e-17
2.20815e-16
4.97235e-16
8.70347e-16
1.18629e-15
1.55855e-15
2.56639e-15
4.87618e-15
9.273e-15
1.69364e-14
2.96161e-14
5.12228e-14
9.09671e-14
1.68607e-13
3.2509e-13
6.31499e-13
1.17187e-12
2.22607e-12
4.62239e-12
9.42411e-12
2.03166e-10
3.16316e-09
6.97305e-08
8.51837e-07
8.14289e-05
0.00075525
0.00074276
4.75674e-05
5.96955e-06
4.73147e-06
4.66984e-06
4.7319e-06
1.64881e-05
1.79576e-05
2.70054e-05
3.30634e-05
0.000804781
0.00101659
0.000703891
2.92465e-05
9.84935e-07
8.14812e-08
4.86984e-09
2.07261e-10
1.25453e-11
4.53087e-12
3.01802e-12
1.7386e-12
9.6044e-13
5.22977e-13
2.88056e-13
1.62728e-13
9.54676e-14
5.68689e-14
3.32364e-14
1.89365e-14
1.07695e-14
6.96217e-15
5.60919e-15
4.72807e-15
3.13938e-15
1.66343e-15
6.96209e-16
2.2894e-16
6.41658e-17
1.7e-17
4.71687e-18
1.54696e-18
6.5131e-19
3.62974e-19
2.63158e-19
4.99365e-22
6.58171e-22
1.05383e-21
2.13563e-21
5.46453e-21
1.73616e-20
6.62002e-20
2.82197e-19
1.19843e-18
4.5802e-18
1.41381e-17
3.30358e-17
5.99719e-17
8.44983e-17
1.13645e-16
1.88639e-16
3.65444e-16
7.16602e-16
1.36219e-15
2.50449e-15
4.57538e-15
8.65521e-15
1.73784e-14
3.70845e-14
8.22779e-14
1.8953e-13
5.93644e-13
6.82908e-13
9.61872e-12
3.09406e-10
7.82491e-09
1.62899e-07
2.19967e-06
0.000361913
0.00082499
0.00055832
1.44685e-05
8.68003e-06
4.86583e-06
4.73164e-06
1.19746e-05
1.20286e-05
1.35544e-05
2.16568e-05
3.42691e-05
0.000184223
0.00100787
0.00116975
0.000152783
1.54903e-06
1.02611e-07
5.33386e-09
1.69197e-10
5.43221e-12
1.24991e-12
6.14123e-13
2.78929e-13
1.3115e-13
6.29519e-14
3.14378e-14
1.64385e-14
9.04925e-15
5.10485e-15
2.85756e-15
1.5745e-15
8.80541e-16
5.67004e-16
4.5364e-16
3.74072e-16
2.4079e-16
1.23847e-16
5.0526e-17
1.63098e-17
4.51301e-18
1.1853e-18
3.27464e-19
1.0724e-19
4.51554e-20
2.51951e-20
1.81802e-20
2.80354e-23
3.71791e-23
5.96198e-23
1.21149e-22
3.11217e-22
9.94325e-22
3.81971e-21
1.6455e-20
7.09391e-20
2.76587e-19
8.7776e-19
2.12726e-18
4.01511e-18
5.85617e-18
8.09554e-18
1.37954e-17
2.76035e-17
5.6242e-17
1.11522e-16
2.14664e-16
4.11898e-16
8.21284e-16
1.7501e-15
4.02546e-15
1.02479e-14
3.52109e-14
2.98111e-13
3.36349e-13
4.0541e-12
2.87352e-10
5.22185e-09
2.42665e-07
2.74214e-05
0.000636157
0.000829128
0.000233587
1.4968e-05
1.62268e-05
9.59669e-06
4.92194e-06
1.59824e-05
1.38211e-05
1.48373e-05
2.82088e-05
3.9408e-05
4.47869e-05
0.00070312
0.00125201
0.000422181
1.65559e-06
8.45321e-08
2.70055e-09
5.44943e-11
3.80389e-12
8.67029e-13
1.02376e-13
3.80808e-14
1.58908e-14
7.01363e-15
3.28453e-15
1.63029e-15
8.57052e-16
4.63334e-16
2.4963e-16
1.33056e-16
7.25518e-17
4.58802e-17
3.5991e-17
2.88176e-17
1.7956e-17
8.94971e-18
3.5591e-18
1.12933e-18
3.09066e-19
8.06163e-20
2.22091e-20
7.27226e-21
3.06568e-21
1.7147e-21
1.22988e-21
1.54652e-24
2.06545e-24
3.31286e-24
6.74261e-24
1.73642e-23
5.57026e-23
2.15199e-22
9.35248e-22
4.08549e-21
1.62223e-20
5.28284e-20
1.32472e-19
2.59541e-19
3.91766e-19
5.56473e-19
9.74022e-19
2.02084e-18
4.30348e-18
8.96384e-18
1.82072e-17
3.70392e-17
7.86651e-17
1.80085e-16
4.6518e-16
1.67827e-15
1.29812e-14
2.25737e-13
1.08024e-12
1.24354e-12
6.47744e-11
8.03854e-09
2.71307e-07
0.000118987
0.00110331
0.00077274
2.27904e-05
1.85735e-05
8.74983e-05
0.000136314
5.1445e-06
1.66853e-05
1.50301e-05
0.000110568
8.6338e-05
4.47813e-05
4.76919e-05
0.000446563
0.00127101
0.00059851
9.97446e-07
7.28138e-08
8.39076e-09
4.56405e-10
8.77603e-12
2.59979e-13
1.59547e-14
5.00692e-15
1.90176e-15
7.81896e-16
3.44051e-16
1.61492e-16
8.05794e-17
4.14883e-17
2.13827e-17
1.09602e-17
5.79388e-18
3.58725e-18
2.7553e-18
2.14232e-18
1.2937e-18
6.2604e-19
2.43217e-19
7.59827e-20
2.05946e-20
5.3423e-21
1.46916e-21
4.81464e-22
2.0336e-22
1.14157e-22
8.12633e-23
8.35672e-26
1.12546e-25
1.80345e-25
3.67286e-25
9.47236e-25
3.04646e-24
1.18211e-23
5.17507e-23
2.28694e-22
9.23341e-22
3.08046e-21
7.9776e-21
1.61993e-20
2.52958e-20
3.68732e-20
6.60474e-20
1.41669e-19
3.14954e-19
6.89387e-19
1.48049e-18
3.20369e-18
7.30028e-18
1.86226e-17
6.66279e-17
5.24325e-16
8.01445e-15
1.77484e-13
1.87867e-12
4.84876e-12
6.08378e-10
1.73744e-09
1.27657e-07
0.000290037
0.00110326
0.000514206
2.33526e-05
2.48535e-05
0.000641327
0.00019657
6.08641e-06
9.47245e-06
1.18113e-05
0.000250774
0.000653771
8.12541e-05
5.16103e-05
0.000754589
0.00127629
0.000659887
4.21449e-06
3.5076e-08
1.16473e-10
8.7953e-11
3.57921e-12
4.9232e-14
2.97884e-15
6.59124e-16
2.2157e-16
8.43763e-17
3.47198e-17
1.53498e-17
7.24909e-18
3.54969e-18
1.74973e-18
8.63315e-19
4.43553e-19
2.69787e-19
2.03303e-19
1.53649e-19
9.00322e-20
4.23848e-20
1.61118e-20
4.9625e-21
1.33368e-21
3.44451e-22
9.46406e-23
3.10631e-23
1.31542e-23
7.41924e-24
5.23245e-24
4.41125e-27
6.00067e-27
9.59515e-27
1.95375e-26
5.04154e-26
1.6239e-25
6.32128e-25
2.78361e-24
1.24262e-23
5.09382e-23
1.73815e-22
4.6399e-22
9.75155e-22
1.57416e-21
2.35241e-21
4.29889e-21
9.49901e-21
2.19814e-20
5.04295e-20
1.14244e-19
2.62577e-19
6.51642e-19
2.18427e-18
1.68536e-17
2.7346e-16
5.56916e-15
1.33408e-13
1.74082e-12
1.94891e-12
2.05202e-11
7.13139e-10
7.21784e-07
0.000411158
0.00110335
0.000520807
2.33573e-05
0.000160894
0.00081543
0.000198221
6.9046e-06
8.04941e-06
7.93037e-06
0.00017093
0.00104218
0.0007939
0.000436988
0.00127991
0.00127991
0.000365193
4.54525e-08
7.03699e-10
6.00638e-12
-1.49169e-12
4.73663e-13
1.72438e-14
7.96374e-16
9.2141e-17
2.43155e-17
8.48786e-18
3.27694e-18
1.37029e-18
6.15124e-19
2.87615e-19
1.3611e-19
6.48886e-20
3.25341e-20
1.95079e-20
1.44448e-20
1.06196e-20
6.04613e-21
2.77405e-21
1.03346e-21
3.14213e-22
8.38214e-23
2.15741e-23
5.9272e-24
1.9496e-24
8.28179e-25
4.69825e-25
3.27632e-25
2.26908e-28
3.12355e-28
4.97805e-28
1.0127e-27
2.6126e-27
8.41974e-27
3.28454e-26
1.4531e-25
6.544e-25
2.71954e-24
9.47515e-24
2.60226e-23
5.65044e-23
9.42026e-23
1.44135e-22
2.67915e-22
6.07559e-22
1.45831e-21
3.49443e-21
8.32102e-21
2.03742e-20
6.15847e-20
4.27396e-19
7.3769e-18
1.63922e-16
3.69037e-15
9.10935e-14
1.40631e-12
9.86888e-13
-6.28141e-13
2.57115e-11
6.03345e-09
0.000364609
0.00110304
0.00107612
3.2975e-05
0.000809196
0.00084817
9.08741e-05
4.60008e-06
7.72472e-06
4.91291e-06
6.89654e-05
0.00102943
0.00123892
0.00125949
0.00127991
0.00106992
2.18413e-07
-2.05716e-09
8.78112e-11
2.07022e-12
1.62172e-13
2.04663e-13
7.68804e-15
2.88163e-16
1.65025e-17
2.58015e-18
7.83286e-19
2.8562e-19
1.13934e-19
4.89633e-20
2.19878e-20
1.00387e-20
4.64445e-21
2.28198e-21
1.35333e-21
9.8614e-22
7.06023e-22
3.91202e-22
1.75262e-22
6.40959e-23
1.92601e-23
5.10527e-24
1.31055e-24
3.60307e-25
1.18829e-25
5.0662e-26
2.89372e-26
1.99108e-26
1.13477e-29
1.584e-29
2.51306e-29
5.10455e-29
1.31568e-28
4.23861e-28
1.65514e-27
7.34781e-27
3.33385e-26
1.40257e-25
4.98068e-25
1.40449e-24
3.14458e-24
5.40687e-24
8.45621e-24
1.59342e-23
3.69213e-23
9.15257e-23
2.28032e-22
5.68994e-22
1.57536e-21
8.9061e-21
1.56159e-19
3.88297e-18
9.43369e-17
2.18025e-15
5.42403e-14
1.11722e-12
9.38882e-13
9.84321e-13
-1.24775e-11
-4.79644e-10
1.07962e-05
0.001062
0.00109874
0.000805446
0.000906191
0.000847513
5.05218e-05
1.83634e-06
6.79094e-06
1.80568e-06
4.19986e-07
2.10195e-05
0.000911903
0.0011714
0.000523983
1.87977e-05
5.18084e-08
-7.56162e-10
-2.00496e-10
1.83261e-13
8.36313e-14
1.0375e-13
3.22516e-15
1.12833e-16
4.25517e-18
3.05561e-19
6.6514e-20
2.27749e-20
8.75848e-21
3.63386e-21
1.57799e-21
6.99006e-22
3.15411e-22
1.52577e-22
8.98093e-23
6.45199e-23
4.50506e-23
2.43393e-23
1.06692e-23
3.83672e-24
1.14098e-24
3.00833e-25
7.70922e-26
2.12239e-26
7.02141e-27
3.00598e-27
1.73051e-27
1.1722e-27
5.50536e-31
7.80937e-31
1.23199e-30
2.49695e-30
6.42569e-30
2.06765e-29
8.07367e-29
3.59235e-28
1.63977e-27
6.97282e-27
2.51906e-26
7.27709e-26
1.6764e-25
2.9674e-25
4.73439e-25
9.00967e-25
2.12232e-24
5.40458e-24
1.39244e-23
3.70699e-23
1.6011e-22
2.57413e-21
7.26051e-20
1.98491e-18
4.87886e-17
1.13789e-15
2.79686e-14
8.16724e-13
9.18937e-13
8.70651e-13
-2.35836e-11
1.10408e-10
-1.25846e-08
0.000185494
0.00100944
0.000978235
0.000920989
3.87734e-05
1.31521e-06
6.16461e-07
2.37203e-05
4.82616e-07
6.08918e-08
1.06153e-06
3.79948e-08
9.26875e-08
3.45692e-07
2.87793e-07
7.69417e-09
5.89175e-11
-1.86822e-11
-5.11734e-13
5.21757e-14
4.09274e-14
1.11534e-15
4.0127e-17
1.35681e-18
5.36176e-20
5.6912e-21
1.65355e-21
6.17482e-22
2.49774e-22
1.05714e-22
4.57339e-23
2.0243e-23
9.69094e-24
5.68303e-24
4.03407e-24
2.75231e-24
1.45303e-24
6.24557e-25
2.21259e-25
6.52095e-26
1.71208e-26
4.3838e-27
1.20932e-27
4.01516e-28
1.72704e-28
1.00314e-28
6.67325e-29
2.58565e-32
3.73576e-32
5.85366e-32
1.18303e-31
3.03766e-31
9.75512e-31
3.80505e-30
1.69484e-29
7.77174e-29
3.33439e-28
1.22301e-27
3.61058e-27
8.5368e-27
1.55224e-26
2.52034e-26
4.82412e-26
1.14872e-25
2.9874e-25
8.03578e-25
3.10272e-24
4.44922e-23
1.29517e-21
3.83787e-20
1.01115e-18
2.43195e-17
5.64375e-16
1.31123e-14
4.25697e-13
8.82604e-13
8.52835e-13
4.54463e-13
-1.38029e-10
1.62479e-09
4.70236e-07
2.12767e-07
0.000263128
0.000213587
1.54973e-05
1.39096e-09
1.34698e-07
2.44725e-05
2.13029e-06
5.80088e-08
3.79949e-08
8.52339e-09
2.01813e-10
3.52757e-07
3.3826e-09
1.18896e-09
1.50619e-11
-1.10974e-12
6.96044e-14
6.64672e-14
1.04861e-14
3.54186e-16
1.44605e-17
5.64943e-19
2.13319e-20
1.00511e-21
1.252e-22
3.98539e-23
1.57999e-23
6.57613e-24
2.79897e-24
1.22302e-24
5.82691e-25
3.41806e-25
2.40339e-25
1.6059e-25
8.30486e-26
3.50841e-26
1.22689e-26
3.5889e-27
9.39397e-28
2.40555e-28
6.65423e-29
2.21831e-29
9.59185e-30
5.6275e-30
3.66701e-30
1.17319e-33
1.73078e-33
2.69049e-33
5.41836e-33
1.38732e-32
4.44281e-32
1.72928e-31
7.70058e-31
3.54201e-30
1.53047e-29
5.68684e-29
1.71123e-28
4.14119e-28
7.71457e-28
1.27114e-27
2.43657e-27
5.8313e-27
1.56577e-26
6.24683e-26
9.78223e-25
2.97951e-23
9.15812e-22
2.53423e-20
6.236e-19
1.41637e-17
3.10845e-16
6.40218e-15
1.52012e-13
8.93695e-13
1.05861e-12
5.71537e-13
1.874e-12
-1.42867e-10
5.08903e-09
7.5902e-08
1.67811e-09
3.82606e-10
2.53667e-08
1.35266e-09
5.86359e-09
2.48821e-05
1.79337e-05
4.09546e-08
2.37876e-08
2.01814e-10
1.35156e-12
1.24006e-12
-2.24424e-11
4.58512e-13
8.75351e-13
1.42254e-13
1.2761e-13
7.60441e-14
3.08555e-15
1.57271e-16
7.69364e-18
3.57634e-19
1.52121e-20
5.98975e-22
2.61003e-23
2.82928e-24
9.20704e-25
3.78036e-25
1.59575e-25
6.93035e-26
3.30561e-26
1.94771e-26
1.36045e-26
8.92636e-27
4.53404e-27
1.88728e-27
6.52842e-28
1.89851e-28
4.96038e-29
1.27158e-29
3.5297e-30
1.18205e-30
5.14121e-31
3.05021e-31
1.9416e-31
5.13213e-35
7.75224e-35
1.19402e-34
2.39433e-34
6.10931e-34
1.94935e-33
7.56385e-33
3.363e-32
1.54915e-31
6.72852e-31
2.52679e-30
7.72796e-30
1.90844e-29
3.63135e-29
6.0529e-29
1.15718e-28
2.82075e-28
1.16548e-27
2.11781e-26
7.19056e-25
2.41614e-23
7.2989e-22
1.94644e-20
4.61205e-19
9.92798e-18
2.0171e-16
3.6678e-15
5.60159e-14
7.20383e-13
1.67755e-12
1.7137e-12
1.97057e-12
4.55858e-10
6.49916e-10
3.33398e-09
5.77779e-12
1.01069e-11
5.81712e-10
1.00236e-09
1.36012e-09
2.52407e-05
2.44436e-05
4.59687e-08
3.65684e-07
7.779e-08
1.17355e-12
1.04301e-12
9.44447e-13
5.82389e-13
2.3858e-13
1.95251e-13
1.86932e-13
5.12868e-14
1.59503e-15
1.02919e-16
5.5487e-18
2.77456e-19
1.2439e-20
4.90468e-22
1.74839e-23
6.60663e-25
6.15202e-26
2.0133e-26
8.44353e-27
3.67076e-27
1.76364e-27
1.04833e-27
7.29636e-28
4.71509e-28
2.35916e-28
9.70134e-29
3.32694e-29
9.63476e-30
2.51616e-30
6.46369e-31
1.80182e-31
6.06472e-32
2.65508e-32
1.59483e-32
9.8884e-33
2.16016e-36
3.35108e-36
5.10716e-36
1.01895e-35
2.5893e-35
8.2247e-35
3.17795e-34
1.40885e-33
6.4881e-33
2.827e-32
1.07024e-31
3.31722e-31
8.33249e-31
1.61409e-30
2.71263e-30
5.22015e-30
1.86377e-29
3.64134e-28
1.43159e-26
5.51946e-25
1.89041e-23
5.67553e-22
1.50161e-20
3.51362e-19
7.32411e-18
1.39983e-16
2.33772e-15
2.81787e-14
4.89408e-13
1.92866e-12
2.89922e-12
3.06044e-12
6.10661e-12
4.8545e-12
5.40579e-12
5.50919e-12
5.77779e-12
1.96019e-09
1.37331e-09
1.57135e-07
2.55324e-05
2.46831e-05
2.69432e-08
3.6646e-07
3.70584e-07
1.09803e-12
9.84323e-13
9.54223e-13
8.7204e-13
7.5749e-13
4.46541e-13
1.38253e-13
1.896e-14
1.07349e-15
7.41894e-17
4.17867e-18
2.15405e-19
9.84146e-21
3.91326e-22
1.35403e-23
4.19483e-25
1.36606e-26
1.20686e-27
4.15068e-28
1.81197e-28
8.82355e-29
5.31436e-29
3.69789e-29
2.36124e-29
1.16734e-29
4.7556e-30
1.62056e-30
4.68206e-31
1.22388e-31
3.15403e-32
8.83642e-33
2.99103e-33
1.31897e-33
8.03117e-34
4.83582e-34
8.73112e-38
1.39574e-37
2.10158e-37
4.16845e-37
1.05426e-36
3.33074e-36
1.2801e-35
5.65036e-35
2.59683e-34
1.13267e-33
4.31155e-33
1.35018e-32
3.43797e-32
6.75559e-32
1.14259e-31
2.61567e-31
3.82868e-30
1.82076e-28
8.5948e-27
3.49325e-25
1.22612e-23
3.76425e-22
1.01602e-20
2.39786e-19
4.93904e-18
9.07978e-17
1.44132e-15
1.59863e-14
2.39286e-13
1.27224e-12
3.1558e-12
4.73531e-12
5.11906e-12
5.3766e-12
5.56856e-12
5.6673e-12
4.32918e-11
7.18371e-09
1.98759e-09
6.44533e-07
2.56175e-05
2.47473e-05
1.18744e-08
2.25643e-07
2.20757e-07
1.17373e-12
1.07567e-12
1.96981e-12
2.00557e-12
1.20023e-12
5.11804e-13
9.92749e-14
7.08928e-15
7.1085e-16
4.86948e-17
2.80692e-18