/*--------------------------------*- C++ -*----------------------------------*\
| =========                 |                                                 |
| \\      /  F ield         | OpenFOAM: The Open Source CFD Toolbox           |
|  \\    /   O peration     | Version:  2412                                  |
|   \\  /    A nd           | Website:  www.openfoam.com                      |
|    \\/     M anipulation  |                                                 |
\*---------------------------------------------------------------------------*/
FoamFile
{
    version     2.0;
    format      ascii;
    arch        "LSB;label=32;scalar=64";
    class       surfaceScalarField;
    location    "0.47";
    object      phi;
}
// * * * * * * * * * * * * * * * * * * * * * * * * * * * * * * * * * * * * * //

dimensions      [0 3 -1 0 0 0 0];

oriented        oriented;

internalField   nonuniform List<scalar> 
158920
(
-8.68288e-08
8.68288e-08
-3.65522e-08
1.18135e-07
-7.77393e-09
1.1575e-07
4.90171e-09
9.41887e-08
8.54298e-09
7.09069e-08
8.74028e-09
4.85899e-08
7.70318e-09
3.00267e-08
6.41357e-09
1.53961e-08
5.37023e-09
4.08012e-09
4.77865e-09
-4.57651e-09
4.53158e-09
-1.09979e-08
4.4825e-09
-1.56844e-08
4.52426e-09
-1.90587e-08
4.56515e-09
-2.14061e-08
4.53227e-09
-2.2937e-08
4.36942e-09
-2.38071e-08
4.05316e-09
-2.41538e-08
3.6563e-09
-2.41552e-08
3.15766e-09
-2.37849e-08
2.54222e-09
-2.31066e-08
1.88444e-09
-2.22611e-08
1.22535e-09
-2.12611e-08
5.92652e-10
-2.01358e-08
-9.7386e-12
-1.89006e-08
-5.39505e-10
-1.76299e-08
-1.00076e-09
-1.631e-08
-1.39075e-09
-1.49772e-08
-1.70157e-09
-1.36625e-08
-1.93174e-09
-1.23815e-08
-2.0991e-09
-1.11333e-08
-2.19236e-09
-9.9616e-09
-2.23357e-09
-8.84416e-09
-2.22374e-09
-7.80968e-09
-2.17687e-09
-6.84984e-09
-2.09811e-09
-5.97534e-09
-1.99531e-09
-5.18303e-09
-1.87678e-09
-4.47003e-09
-1.7461e-09
-3.83715e-09
-1.61353e-09
-3.27262e-09
-1.48435e-09
-2.77559e-09
-1.35931e-09
-2.34427e-09
-1.24186e-09
-1.96947e-09
-1.13434e-09
-1.64592e-09
-1.03908e-09
-1.36738e-09
-9.55701e-10
-1.1307e-09
-8.84119e-10
-9.30164e-10
-8.25445e-10
-7.5961e-10
-7.76389e-10
-6.18978e-10
-7.40129e-10
-4.97836e-10
-7.11864e-10
-4.00671e-10
-6.92113e-10
-3.19117e-10
-6.78908e-10
-2.53026e-10
-6.71032e-10
-1.99381e-10
-6.6682e-10
-1.56696e-10
-6.67452e-10
-1.20488e-10
-6.71388e-10
-9.20888e-11
-6.77876e-10
-6.95506e-11
-6.86393e-10
-5.16746e-11
-6.97312e-10
-3.67625e-11
-7.10229e-10
-2.49256e-11
-7.24414e-10
-1.59443e-11
-7.40125e-10
-8.38336e-12
-7.56268e-10
-3.23503e-12
-7.74087e-10
2.13129e-12
-7.93617e-10
6.73714e-12
-8.14623e-10
1.04962e-11
-8.36818e-10
1.34975e-11
-8.59198e-10
1.5135e-11
-8.82278e-10
1.70097e-11
-9.05887e-10
1.85005e-11
-9.29789e-10
1.95896e-11
-9.53797e-10
2.03633e-11
-9.77784e-10
2.09052e-11
-1.00162e-09
2.12363e-11
-1.02525e-09
2.14367e-11
-1.0487e-09
2.16184e-11
-1.07212e-09
2.18936e-11
-1.09578e-09
2.23869e-11
-1.12006e-09
2.3238e-11
-1.14526e-09
2.43506e-11
-1.1719e-09
2.59378e-11
-1.19991e-09
2.74518e-11
-1.22949e-09
2.91269e-11
-1.26047e-09
3.06098e-11
-1.29257e-09
3.18139e-11
-1.32556e-09
3.27496e-11
-1.35925e-09
3.35074e-11
-1.3936e-09
3.41978e-11
-1.42863e-09
3.49152e-11
-1.46446e-09
3.57416e-11
-1.50127e-09
3.67308e-11
-1.53912e-09
3.78e-11
-1.57823e-09
3.90772e-11
-1.61856e-09
4.03086e-11
-1.66013e-09
4.15522e-11
-1.70283e-09
4.27042e-11
-1.7466e-09
4.37745e-11
-1.79136e-09
4.47699e-11
-1.83704e-09
4.56984e-11
-1.88364e-09
4.66205e-11
-1.93118e-09
4.7558e-11
-1.97973e-09
4.85778e-11
-2.02944e-09
4.97212e-11
-2.08041e-09
5.09973e-11
-2.13287e-09
5.24736e-11
-2.18702e-09
5.4155e-11
-2.24291e-09
5.58985e-11
-2.30075e-09
5.78449e-11
-2.36048e-09
5.97351e-11
-2.42199e-09
6.15044e-11
-2.4851e-09
6.31005e-11
-2.54968e-09
6.45693e-11
-2.61561e-09
6.59186e-11
-2.68286e-09
6.72303e-11
-2.75149e-09
6.86126e-11
-2.82167e-09
7.01617e-11
-2.89367e-09
7.19744e-11
-2.96776e-09
7.40684e-11
-3.04419e-09
7.64031e-11
-3.12309e-09
7.88841e-11
-3.2045e-09
8.13863e-11
-3.28833e-09
8.38041e-11
-3.37442e-09
8.60716e-11
-3.46262e-09
8.81895e-11
-3.55283e-09
9.01999e-11
-3.64503e-09
9.2192e-11
-3.73932e-09
9.42838e-11
-3.8359e-09
9.65835e-11
-3.93507e-09
9.91675e-11
-4.03713e-09
1.0207e-10
-4.14239e-09
1.05273e-10
-4.25108e-09
1.08709e-10
-4.36334e-09
1.12278e-10
-4.4792e-09
1.15881e-10
-4.59863e-09
1.19452e-10
-4.72156e-09
1.22952e-10
-4.84793e-09
1.26403e-10
-4.97775e-09
1.29851e-10
-5.11104e-09
1.33327e-10
-5.24792e-09
1.3691e-10
-5.38852e-09
1.40638e-10
-5.53301e-09
1.44531e-10
-5.68155e-09
1.48584e-10
-5.8343e-09
1.52799e-10
-5.99143e-09
1.57174e-10
-6.1531e-09
1.61708e-10
-6.3194e-09
1.66351e-10
-6.49062e-09
1.71271e-10
-6.66699e-09
1.76428e-10
-6.84874e-09
1.81803e-10
-7.03605e-09
1.8736e-10
-7.22903e-09
1.93032e-10
-7.42769e-09
1.98725e-10
-7.63198e-09
2.0435e-10
-7.84177e-09
2.09853e-10
-8.05695e-09
2.15243e-10
-8.2775e-09
2.20618e-10
-8.50358e-09
2.26147e-10
-8.73556e-09
2.32042e-10
-8.97399e-09
2.38505e-10
-9.2196e-09
2.45677e-10
-9.47311e-09
2.53588e-10
-9.73519e-09
2.62159e-10
-1.00063e-08
2.71197e-10
-1.02866e-08
2.80395e-10
-1.05761e-08
2.89502e-10
-1.08743e-08
2.98351e-10
-1.11811e-08
3.0689e-10
-1.14962e-08
3.15208e-10
-1.18197e-08
3.23513e-10
-1.21517e-08
3.32085e-10
-1.24928e-08
3.41204e-10
-1.28438e-08
3.51101e-10
-1.32056e-08
3.61875e-10
-1.3579e-08
3.73478e-10
-1.39646e-08
3.85753e-10
-1.4363e-08
3.98474e-10
-1.47743e-08
4.11402e-10
-1.51986e-08
4.24379e-10
-1.56359e-08
4.37352e-10
-1.60862e-08
4.50372e-10
-1.65497e-08
4.63572e-10
-1.70267e-08
4.77123e-10
-1.75178e-08
4.91189e-10
-1.80236e-08
5.05881e-10
-1.85448e-08
5.21245e-10
-1.90819e-08
5.3726e-10
-1.96357e-08
5.53865e-10
-2.02066e-08
5.70963e-10
-2.07951e-08
5.88543e-10
-2.14016e-08
6.06555e-10
-2.20266e-08
6.25014e-10
-2.26705e-08
6.43959e-10
-2.33339e-08
6.63435e-10
-2.40173e-08
6.83494e-10
-2.47215e-08
7.0419e-10
-2.5447e-08
7.25576e-10
-2.61947e-08
7.47717e-10
-2.69654e-08
7.70693e-10
-2.776e-08
7.94584e-10
-2.85795e-08
8.19439e-10
-2.94248e-08
8.45271e-10
-3.02969e-08
8.72067e-10
-3.11967e-08
8.99747e-10
-3.2125e-08
9.28223e-10
-3.30825e-08
9.57435e-10
-3.407e-08
9.87359e-10
-3.50881e-08
1.01803e-09
-3.61378e-08
1.04955e-09
-3.722e-08
1.08206e-09
-3.83359e-08
1.11567e-09
-3.94866e-08
1.1505e-09
-4.06734e-08
1.18658e-09
-4.18976e-08
1.22392e-09
-4.31604e-08
1.26249e-09
-4.44629e-08
1.30228e-09
-4.58066e-08
1.3433e-09
-4.71926e-08
1.38562e-09
-4.86223e-08
1.42937e-09
-5.00974e-08
1.47464e-09
-5.16194e-08
1.52155e-09
-5.319e-08
1.57009e-09
-5.48108e-08
1.62024e-09
-5.64833e-08
1.67197e-09
-5.82092e-08
1.72523e-09
-5.99899e-08
1.78005e-09
-6.18271e-08
1.8365e-09
-6.37225e-08
1.89471e-09
-6.56782e-08
1.95486e-09
-6.76961e-08
2.0171e-09
-6.97786e-08
2.08154e-09
-7.19278e-08
2.14826e-09
-7.41461e-08
2.21731e-09
-7.64358e-08
2.28872e-09
-7.87995e-08
2.36257e-09
-8.12396e-08
2.43893e-09
-8.37587e-08
2.51789e-09
-8.63595e-08
2.5995e-09
-8.90446e-08
2.68377e-09
-9.18167e-08
2.77067e-09
-9.46784e-08
2.8602e-09
-9.76323e-08
2.95238e-09
-1.00681e-07
3.04737e-09
-1.03828e-07
3.14544e-09
-1.07077e-07
3.24694e-09
-1.10431e-07
3.35217e-09
-1.13894e-07
3.46136e-09
-1.17471e-07
3.57455e-09
-1.21165e-07
3.69164e-09
-1.24979e-07
3.81246e-09
-1.28918e-07
3.93691e-09
-1.32986e-07
4.06507e-09
-1.37185e-07
4.19722e-09
-1.41521e-07
4.33383e-09
-1.45999e-07
4.4754e-09
-1.50624e-07
4.62229e-09
-1.55402e-07
4.77463e-09
-1.60337e-07
4.93234e-09
-1.65435e-07
5.09516e-09
-1.70701e-07
5.26295e-09
-1.7614e-07
5.43573e-09
-1.81757e-07
5.61386e-09
-1.87558e-07
5.79793e-09
-1.9355e-07
5.98858e-09
-1.99739e-07
6.18634e-09
-2.06134e-07
6.39146e-09
-2.12742e-07
6.60391e-09
-2.19569e-07
6.82351e-09
-2.26623e-07
7.05016e-09
-2.33911e-07
7.28397e-09
-2.4144e-07
7.52534e-09
-2.49219e-07
7.77489e-09
-2.57257e-07
8.03324e-09
-2.65562e-07
8.30085e-09
-2.74144e-07
8.57791e-09
-2.83013e-07
8.86445e-09
-2.92178e-07
9.16045e-09
-3.01649e-07
9.46611e-09
-3.11435e-07
9.78192e-09
-3.21549e-07
1.01086e-08
-3.32001e-07
1.04469e-08
-3.42803e-07
1.07974e-08
-3.53968e-07
1.11604e-08
-3.6551e-07
1.1536e-08
-3.77439e-07
1.1924e-08
-3.89769e-07
1.23248e-08
-4.02514e-07
1.27389e-08
-4.15687e-07
1.31671e-08
-4.29303e-07
1.36106e-08
-4.43379e-07
1.40701e-08
-4.57931e-07
1.45462e-08
-4.72976e-07
1.50391e-08
-4.88531e-07
1.55486e-08
-5.04612e-07
1.60749e-08
-5.21237e-07
1.66186e-08
-5.38425e-07
1.71808e-08
-5.56195e-07
1.77629e-08
-5.74567e-07
1.8366e-08
-5.93566e-07
1.89911e-08
-6.13211e-07
1.96385e-08
-6.33527e-07
2.03082e-08
-6.54535e-07
2.10004e-08
-6.76258e-07
2.17157e-08
-6.98721e-07
2.24555e-08
-7.2195e-07
2.32212e-08
-7.45973e-07
2.40145e-08
-7.70818e-07
2.48367e-08
-7.96515e-07
2.56886e-08
-8.23094e-07
2.65703e-08
-8.50585e-07
2.74825e-08
-8.7902e-07
2.84257e-08
-9.08431e-07
2.94014e-08
-9.38851e-07
3.04112e-08
-9.70318e-07
3.1457e-08
-1.00287e-06
3.25403e-08
-1.03654e-06
3.36621e-08
-1.07137e-06
3.48234e-08
-1.10741e-06
3.60252e-08
-1.14469e-06
3.72688e-08
-1.18326e-06
3.85561e-08
-1.22316e-06
3.98891e-08
-1.26444e-06
4.127e-08
-1.30715e-06
4.27003e-08
-1.35134e-06
4.41814e-08
-1.39707e-06
4.57147e-08
-1.44439e-06
4.7302e-08
-1.49335e-06
4.89453e-08
-1.54401e-06
5.06473e-08
-1.59643e-06
5.24106e-08
-1.65068e-06
5.42372e-08
-1.70682e-06
5.61292e-08
-1.76493e-06
5.80882e-08
-1.82506e-06
6.0116e-08
-1.88729e-06
6.22151e-08
-1.95169e-06
6.43886e-08
-2.01835e-06
6.66401e-08
-2.08734e-06
6.89732e-08
-2.15875e-06
7.13909e-08
-2.23266e-06
7.3896e-08
-2.30917e-06
7.64911e-08
-2.38836e-06
7.91788e-08
-2.47035e-06
8.19624e-08
-2.55521e-06
8.48456e-08
-2.64306e-06
8.78323e-08
-2.73401e-06
9.09263e-08
-2.82816e-06
9.41317e-08
-2.92563e-06
9.74524e-08
-3.02654e-06
1.00893e-07
-3.13102e-06
1.04458e-07
-3.2392e-06
1.08152e-07
-3.3512e-06
1.1198e-07
-3.46717e-06
1.15948e-07
-3.58725e-06
1.20058e-07
-3.71159e-06
1.24316e-07
-3.84034e-06
1.28728e-07
-3.97367e-06
1.33299e-07
-4.11173e-06
1.38037e-07
-4.2547e-06
1.42947e-07
-4.40276e-06
1.48036e-07
-4.5561e-06
1.53311e-07
-4.71491e-06
1.58777e-07
-4.87937e-06
1.64442e-07
-5.04971e-06
1.70313e-07
-5.22614e-06
1.76399e-07
-5.40888e-06
1.82707e-07
-5.59815e-06
1.89246e-07
-5.7942e-06
1.96023e-07
-5.99728e-06
2.03048e-07
-6.20764e-06
2.10328e-07
-6.42555e-06
2.17876e-07
-6.65128e-06
2.25702e-07
-6.88512e-06
2.33815e-07
-7.12738e-06
2.42226e-07
-7.37836e-06
2.50944e-07
-7.63837e-06
2.59982e-07
-7.90775e-06
2.69352e-07
-8.18685e-06
2.79067e-07
-8.47603e-06
2.89141e-07
-8.77565e-06
2.99587e-07
-9.0861e-06
3.1042e-07
-9.40779e-06
3.21651e-07
-9.74112e-06
3.33295e-07
-1.00865e-05
3.45369e-07
-1.04444e-05
3.57889e-07
-1.08154e-05
3.70874e-07
-1.11997e-05
3.84341e-07
-1.15981e-05
3.98308e-07
-1.20109e-05
4.12792e-07
-1.24388e-05
4.27811e-07
-1.28822e-05
4.43387e-07
-1.33418e-05
4.59542e-07
-1.38181e-05
4.763e-07
-1.43119e-05
4.93683e-07
-1.48237e-05
5.11714e-07
-1.53541e-05
5.30414e-07
-1.5904e-05
5.49809e-07
-1.6474e-05
5.69927e-07
-1.70649e-05
5.90797e-07
-1.76774e-05
6.12449e-07
-1.83124e-05
6.34912e-07
-1.89707e-05
6.58215e-07
-1.96532e-05
6.82389e-07
-2.03607e-05
7.07466e-07
-2.10943e-05
7.33483e-07
-2.18549e-05
7.60477e-07
-2.26435e-05
7.88487e-07
-2.34612e-05
8.17549e-07
-2.4309e-05
8.47702e-07
-2.51881e-05
8.78988e-07
-2.60997e-05
9.11449e-07
-2.7045e-05
9.45133e-07
-2.80253e-05
9.80087e-07
-2.90418e-05
1.01636e-06
-3.0096e-05
1.054e-06
-3.11892e-05
1.09307e-06
-3.2323e-05
1.13361e-06
-3.34989e-05
1.17568e-06
-3.47185e-05
1.21934e-06
-3.59834e-05
1.26465e-06
-3.72953e-05
1.31168e-06
-3.8656e-05
1.36049e-06
-4.00674e-05
1.41115e-06
-4.15314e-05
1.46373e-06
-4.305e-05
1.51831e-06
-4.46253e-05
1.57497e-06
-4.62594e-05
1.63378e-06
-4.79545e-05
1.69482e-06
-4.9713e-05
1.75819e-06
-5.15373e-05
1.82396e-06
-5.34299e-05
1.89225e-06
-5.53933e-05
1.96313e-06
-5.74304e-05
2.03672e-06
-5.95439e-05
2.11312e-06
-6.17367e-05
2.19244e-06
-6.40119e-05
2.27478e-06
-6.63725e-05
2.36028e-06
-6.8822e-05
2.44904e-06
-7.13636e-05
2.5412e-06
-7.40009e-05
2.63689e-06
-7.67376e-05
2.73623e-06
-7.95774e-05
2.83939e-06
-8.25244e-05
2.9465e-06
-8.55826e-05
3.05772e-06
-8.87563e-05
3.17321e-06
-9.20499e-05
3.29312e-06
-9.5468e-05
3.41765e-06
-9.90155e-05
3.54695e-06
-0.000102697
3.68123e-06
-0.000106519
3.82066e-06
-0.000110485
3.96546e-06
-0.000114601
4.11582e-06
-0.000118874
4.27197e-06
-0.000123308
4.43412e-06
-0.000127912
4.60253e-06
-0.00013269
4.77741e-06
-0.00013765
4.95902e-06
-0.000142798
5.14763e-06
-0.000148142
5.3435e-06
-0.00015369
5.54692e-06
-0.000159449
5.75818e-06
-0.000165428
5.97757e-06
-0.000171634
6.20541e-06
-0.000178077
6.44203e-06
-0.000184766
6.68777e-06
-0.000191711
6.94297e-06
-0.00019892
7.20801e-06
-0.000206405
7.48324e-06
-0.000214175
7.76908e-06
-0.000222243
8.0659e-06
-0.000230618
8.37415e-06
-0.000239314
8.69423e-06
-0.000248343
9.02661e-06
-0.000257717
9.37174e-06
-0.000267449
9.73008e-06
-0.000277553
1.01021e-05
-0.000288044
1.04884e-05
-0.000298936
1.08894e-05
-0.000310244
1.13057e-05
-0.000321984
1.17377e-05
-0.000334173
1.21862e-05
-0.000346827
1.26516e-05
-0.000359964
1.31347e-05
-0.000373603
1.36359e-05
-0.000387761
1.4156e-05
-0.000402459
1.46955e-05
-0.000417716
1.52553e-05
-0.000433554
1.58359e-05
-0.000449993
1.64382e-05
-0.000467057
1.70627e-05
-0.000484768
1.77103e-05
-0.00050315
1.83817e-05
-0.000522228
1.90776e-05
-0.000542027
1.97987e-05
-0.000562573
2.05459e-05
-0.000583893
2.13199e-05
-0.000606015
2.21214e-05
-0.000628966
2.29511e-05
-0.000652776
2.38098e-05
-0.000677475
2.46981e-05
-0.000703093
2.56167e-05
-0.000729661
2.65663e-05
-0.00075721
2.75473e-05
-0.000785773
2.85605e-05
-0.000815382
2.96063e-05
-0.000846069
3.06851e-05
-0.000877869
3.17974e-05
-0.000910814
3.29434e-05
-0.000944939
3.41234e-05
-0.000980277
3.53373e-05
-0.00101686
3.65852e-05
-0.00105473
3.78668e-05
-0.00109391
3.91817e-05
-0.00113444
4.05291e-05
-0.00117634
4.19082e-05
-0.00121966
4.33176e-05
-0.00126441
4.47559e-05
-0.00131063
4.62211e-05
-0.00135834
4.7711e-05
-0.00140756
4.92228e-05
-0.00145832
5.07533e-05
-0.00151062
5.2299e-05
-0.00156447
5.38557e-05
-0.0016199
5.54185e-05
-0.00167688
5.69821e-05
-0.00173542
5.854e-05
-0.00179551
6.00853e-05
-0.00185712
6.161e-05
-0.00192023
6.31049e-05
-0.00198479
6.45601e-05
-0.00205075
6.59642e-05
-0.00211806
6.7305e-05
-0.00218663
6.85686e-05
-0.00225637
6.97404e-05
-0.00232718
7.08042e-05
-0.00239893
7.17427e-05
-0.00247147
7.25373e-05
-0.00254464
7.31679e-05
-0.00261826
7.36134e-05
-0.00269212
7.38511e-05
-0.00276598
7.38573e-05
-0.0028396
7.36069e-05
-0.00291267
7.3074e-05
-0.00298491
7.22315e-05
-0.00305596
7.10519e-05
-0.00312547
6.95076e-05
-0.00319305
6.75707e-05
-0.00325826
6.52138e-05
-0.00332067
6.24105e-05
-0.00337981
5.91356e-05
-0.00343518
5.53659e-05
-0.00348626
5.10804e-05
-0.00353252
4.62606e-05
-0.00357342
4.08918e-05
-0.00360838
3.49631e-05
-0.00363685
2.84681e-05
-0.00365826
2.14049e-05
-0.00367205
1.3782e-05
-0.00367772
5.67038e-06
-0.00367476
-2.95859e-06
-0.00366239
-1.2373e-05
-0.00364035
-2.2043e-05
-0.00360814
-3.22063e-05
-0.00356537
-4.27729e-05
-0.00351168
-5.36953e-05
-0.00344678
-6.49014e-05
-0.00337045
-7.63331e-05
-0.00328253
-8.79223e-05
-0.00318294
-9.9595e-05
-0.00307168
-0.000111273
-0.00294881
-0.000122876
-0.00281449
-0.000134318
-0.00266898
-0.000145517
-0.0025126
-0.000156386
-0.00234576
-0.00016684
-0.00216896
-0.000176795
-0.00198279
-0.000186168
-0.00178791
-0.000194877
-0.00158508
-0.000202831
-0.00137518
-0.00020989
-0.00115937
-0.000215805
-0.000938242
-0.000221128
-0.000710622
-0.000227618
-0.000478713
-0.000231907
-0.000245691
-0.000233023
-1.16579e-05
-0.000234035
0.000222591
-0.000234252
0.000456249
-0.000233662
0.000689142
-0.000232895
0.000918374
-0.000229234
0.00114151
-0.00022314
0.00135944
-0.000217924
0.00157175
-0.000212312
0.00177722
-0.00020548
0.00197489
-0.000197677
0.00216394
-0.00018905
0.00234362
-0.000179686
0.00251328
-0.000169668
0.00267236
-0.000159079
0.00282038
-0.000148007
0.00295693
-0.000136543
0.00308172
-0.000124778
0.00319452
-0.000112799
0.0032952
-0.000100695
0.00338374
-8.85519e-05
0.00346019
-7.64566e-05
0.00352468
-6.44939e-05
0.00357743
-5.27422e-05
0.0036187
-4.12674e-05
0.00364886
-3.01578e-05
0.00366832
-1.94516e-05
0.00367759
-9.26565e-06
0.00367697
6.32013e-07
0.0036673
9.68203e-06
0.00364906
1.82535e-05
0.00362282
2.62498e-05
0.00358918
3.36379e-05
0.00354877
4.04093e-05
0.00350219
4.6566e-05
0.00345006
5.21152e-05
0.00339299
5.70685e-05
0.00333155
6.14406e-05
0.00326631
6.52497e-05
0.0031978
6.85176e-05
0.00312654
7.12702e-05
0.003053
7.35369e-05
0.00297764
7.53482e-05
0.00290089
7.67361e-05
0.00282314
7.77325e-05
0.00274476
7.83694e-05
0.00266607
7.86777e-05
0.00258738
7.8687e-05
0.00250896
7.8426e-05
0.00243104
7.79218e-05
0.00235384
7.72014e-05
0.00227755
7.62906e-05
0.00220233
7.52133e-05
0.00212833
7.39916e-05
0.00205567
7.26466e-05
0.00198446
7.11982e-05
0.00191479
6.96645e-05
0.00184672
6.80609e-05
0.00178031
6.64013e-05
0.00171561
6.46977e-05
0.00165265
6.29616e-05
0.00159145
6.12044e-05
0.00153201
5.94365e-05
0.00147434
5.76666e-05
0.00141844
5.59014e-05
0.0013643
5.41464e-05
0.00131189
5.24067e-05
0.0012612
5.06878e-05
0.00121221
4.89948e-05
0.00116487
4.73316e-05
0.00111917
4.5701e-05
0.00107507
4.41044e-05
0.00103253
4.25432e-05
0.000991518
4.10187e-05
0.000951988
3.95325e-05
0.000913903
3.80858e-05
0.000877223
3.66794e-05
0.000841907
3.53136e-05
0.000807916
3.39885e-05
0.000775211
3.27037e-05
0.00074375
3.14592e-05
0.000713494
3.02544e-05
0.000684404
2.90889e-05
0.00065644
2.79623e-05
0.000629564
2.68742e-05
0.000603738
2.58239e-05
0.000578926
2.48107e-05
0.000555091
2.38336e-05
0.000532199
2.28914e-05
0.000510215
2.19828e-05
0.000489106
2.11069e-05
0.000468841
2.0263e-05
0.000449387
1.94503e-05
0.000430716
1.86682e-05
0.000412798
1.7916e-05
0.000395604
1.71926e-05
0.000379106
1.6497e-05
0.000363278
1.58281e-05
0.000348093
1.51849e-05
0.000333525
1.45667e-05
0.000319551
1.39723e-05
0.000306149
1.34012e-05
0.000293294
1.28525e-05
0.000280966
1.23252e-05
0.000269145
1.18188e-05
0.00025781
1.13323e-05
0.000246941
1.08652e-05
0.000236522
1.04167e-05
0.000226532
9.98619e-06
0.000216957
9.57294e-06
0.000207778
9.1763e-06
0.00019898
8.79561e-06
0.000190547
8.43029e-06
0.000182466
8.07974e-06
0.00017472
7.74337e-06
0.000167298
7.42065e-06
0.000160185
7.11109e-06
0.00015337
6.81413e-06
0.000146839
6.52929e-06
0.000140582
6.25611e-06
0.000134587
5.99414e-06
0.000128843
5.74289e-06
0.00012334
5.50193e-06
0.000118068
5.27091e-06
0.000113018
5.0494e-06
0.00010818
4.83697e-06
0.000103546
4.63329e-06
9.91073e-05
4.43804e-06
9.48558e-05
4.25087e-06
9.07837e-05
4.07141e-06
8.68836e-05
3.89937e-06
8.31485e-05
3.7345e-06
7.95715e-05
3.57647e-06
7.61459e-05
3.42499e-06
7.28656e-05
3.2798e-06
6.97244e-05
3.14067e-06
6.67165e-05
3.00735e-06
6.38364e-05
2.87958e-06
6.10788e-05
2.75714e-06
5.84385e-05
2.63982e-06
5.59106e-05
2.52742e-06
5.34905e-05
2.41972e-06
5.11735e-05
2.31652e-06
4.89555e-05
2.21766e-06
4.68321e-05
2.12295e-06
4.47995e-05
2.03221e-06
4.28538e-05
1.94529e-06
4.09914e-05
1.86203e-06
3.92087e-05
1.78227e-06
3.75025e-05
1.70588e-06
3.58694e-05
1.63271e-06
3.43065e-05
1.56263e-06
3.28106e-05
1.49551e-06
3.13791e-05
1.43122e-06
3.00091e-05
1.36966e-06
2.86981e-05
1.3107e-06
2.74435e-05
1.25425e-06
2.62431e-05
1.20018e-06
2.50944e-05
1.14841e-06
2.39953e-05
1.09884e-06
2.29436e-05
1.05138e-06
2.19374e-05
1.00594e-06
2.09747e-05
9.62428e-07
2.00537e-05
9.20774e-07
1.91726e-05
8.80896e-07
1.83297e-05
8.42717e-07
1.75233e-05
8.06169e-07
1.67519e-05
7.71184e-07
1.60141e-05
7.37694e-07
1.53083e-05
7.05636e-07
1.46331e-05
6.74953e-07
1.39874e-05
6.45585e-07
1.33698e-05
6.17475e-07
1.27791e-05
5.90571e-07
1.22142e-05
5.64822e-07
1.16739e-05
5.40182e-07
1.11572e-05
5.16601e-07
1.0663e-05
4.94033e-07
1.01905e-05
4.72436e-07
9.73864e-06
4.51771e-07
9.30656e-06
4.31998e-07
8.89341e-06
4.13078e-07
8.49837e-06
3.94974e-07
8.12065e-06
3.77653e-07
7.75951e-06
3.6108e-07
7.41424e-06
3.45225e-07
7.08413e-06
3.30056e-07
6.76854e-06
3.15545e-07
6.46684e-06
3.01662e-07
6.17842e-06
2.88381e-07
5.90271e-06
2.75678e-07
5.63915e-06
2.63529e-07
5.38721e-06
2.51907e-07
5.1464e-06
2.40788e-07
4.91622e-06
2.30152e-07
4.69622e-06
2.19983e-07
4.48594e-06
2.10257e-07
4.28496e-06
2.00955e-07
4.09289e-06
1.92057e-07
3.90932e-06
1.83549e-07
3.73388e-06
1.75416e-07
3.56623e-06
1.67636e-07
3.40602e-06
1.60195e-07
3.25292e-06
1.53078e-07
3.10663e-06
1.46275e-07
2.96684e-06
1.39773e-07
2.83327e-06
1.33556e-07
2.70565e-06
1.27611e-07
2.58371e-06
1.21925e-07
2.4672e-06
1.1649e-07
2.35589e-06
1.11295e-07
2.24955e-06
1.0633e-07
2.14795e-06
1.01582e-07
2.0509e-06
9.70423e-08
1.95818e-06
9.27038e-08
1.86961e-06
8.85581e-08
1.78501e-06
8.45958e-08
1.70419e-06
8.08077e-08
1.62699e-06
7.71857e-08
1.55326e-06
7.37239e-08
1.48283e-06
7.04165e-08
1.41556e-06
6.72568e-08
1.35132e-06
6.42369e-08
1.28996e-06
6.13498e-08
1.23136e-06
5.85904e-08
1.1754e-06
5.59541e-08
1.12196e-06
5.34355e-08
1.07092e-06
5.10288e-08
1.02218e-06
4.87289e-08
9.75646e-07
4.65316e-08
9.31207e-07
4.44329e-08
8.88773e-07
4.24278e-08
8.48256e-07
4.05114e-08
8.09571e-07
3.86799e-08
7.72636e-07
3.69302e-08
7.37372e-07
3.52593e-08
7.03704e-07
3.36634e-08
6.71561e-07
3.21388e-08
6.40873e-07
3.06832e-08
6.11576e-07
2.92938e-08
5.83605e-07
2.79667e-08
5.56904e-07
2.66972e-08
5.31419e-07
2.54825e-08
5.07093e-07
2.43225e-08
4.83873e-07
2.32173e-08
4.61705e-07
2.21644e-08
4.40544e-07
2.11584e-08
4.20347e-07
2.01948e-08
4.01072e-07
1.92725e-08
3.82677e-07
1.83929e-08
3.6512e-07
1.75554e-08
3.48361e-07
1.67565e-08
3.32367e-07
1.5992e-08
3.17105e-07
1.52602e-08
3.02541e-07
1.45625e-08
2.88641e-07
1.38989e-08
2.75373e-07
1.32664e-08
2.62711e-07
1.26605e-08
2.50631e-07
1.2079e-08
2.39107e-07
1.15232e-08
2.28111e-07
1.0995e-08
2.17616e-07
1.04933e-08
2.07601e-07
1.00146e-08
1.98044e-07
9.55552e-09
1.88928e-07
9.11574e-09
1.8023e-07
8.69653e-09
1.71932e-07
8.29804e-09
1.64013e-07
7.91814e-09
1.56458e-07
7.55428e-09
1.49251e-07
7.20573e-09
1.42377e-07
6.87351e-09
1.35818e-07
6.55813e-09
1.2956e-07
6.2581e-09
1.23588e-07
5.97081e-09
1.17893e-07
5.69489e-09
1.12461e-07
5.43096e-09
1.0728e-07
5.1802e-09
1.02337e-07
4.94243e-09
9.76208e-08
4.7159e-09
9.31214e-08
4.4988e-09
8.88302e-08
4.29067e-09
8.47375e-08
4.09212e-09
8.08335e-08
3.90339e-09
7.71092e-08
3.72374e-09
7.35566e-08
3.55201e-09
7.01682e-08
3.38774e-09
6.69366e-08
3.23107e-09
6.3854e-08
3.082e-09
6.09136e-08
2.93979e-09
5.81096e-08
2.80347e-09
5.54361e-08
2.67283e-09
5.2887e-08
2.54852e-09
5.04554e-08
2.431e-09
4.81352e-08
2.31967e-09
4.59215e-08
2.21308e-09
4.38106e-08
2.11033e-09
4.17982e-08
2.0118e-09
3.98791e-08
1.91856e-09
3.80477e-08
1.83085e-09
3.62996e-08
1.74748e-09
3.46323e-08
1.66681e-09
3.30433e-08
1.58845e-09
3.15294e-08
1.51335e-09
3.00859e-08
1.44297e-09
2.87081e-08
1.37732e-09
2.73928e-08
1.31474e-09
2.61388e-08
1.2535e-09
2.49449e-08
1.19344e-09
2.38082e-08
1.13625e-09
2.2724e-08
1.08369e-09
2.16878e-08
1.03573e-09
2.06969e-08
9.90463e-10
1.97508e-08
9.4572e-10
1.88494e-08
9.00964e-10
1.79915e-08
8.57558e-10
1.71739e-08
8.17147e-10
1.63935e-08
7.8009e-10
1.5648e-08
7.45118e-10
1.49369e-08
7.10747e-10
1.42599e-08
6.76756e-10
1.36153e-08
6.44298e-10
1.30004e-08
6.14594e-10
1.24125e-08
5.87575e-10
1.18503e-08
5.619e-10
1.13139e-08
5.36191e-10
1.08033e-08
5.10362e-10
1.03174e-08
4.85639e-10
9.85391e-09
4.63308e-10
9.41029e-09
4.43411e-10
8.98545e-09
4.24652e-10
8.57975e-09
4.05529e-10
8.1939e-09
3.85682e-10
7.82766e-09
3.66083e-10
7.47939e-09
3.48123e-10
7.14689e-09
3.32366e-10
6.82862e-09
3.18143e-10
6.52415e-09
3.04358e-10
6.23357e-09
2.90476e-10
5.9566e-09
2.76869e-10
5.69225e-09
2.64258e-10
5.43934e-09
2.5283e-10
5.19726e-09
2.42005e-10
4.96621e-09
2.30983e-10
4.7465e-09
2.19644e-10
4.53774e-09
2.08706e-10
4.33862e-09
1.99068e-10
4.14759e-09
1.9099e-10
3.96389e-09
1.83653e-10
3.78804e-09
1.7582e-10
3.62116e-09
1.6685e-10
3.46381e-09
1.57322e-10
3.31515e-09
1.48638e-10
3.17326e-09
1.41871e-10
3.03637e-09
1.36872e-10
2.90382e-09
1.32534e-10
2.7761e-09
1.27705e-10
2.65412e-09
1.21973e-10
2.53811e-09
1.16007e-10
2.42733e-09
1.10776e-10
2.32081e-09
1.06517e-10
2.21791e-09
1.02895e-10
2.1193e-09
9.86099e-11
2.02576e-09
9.35391e-11
1.93774e-09
8.80275e-11
1.85471e-09
8.30382e-11
1.7755e-09
7.92108e-11
1.69919e-09
7.63105e-11
1.62551e-09
7.36886e-11
1.55494e-09
7.05801e-11
1.48816e-09
6.67858e-11
1.42529e-09
6.28764e-11
1.36553e-09
5.97676e-11
1.30746e-09
5.80794e-11
1.24976e-09
5.77133e-11
1.19234e-09
5.74256e-11
1.13649e-09
5.5864e-11
1.08366e-09
5.28347e-11
1.03463e-09
4.90406e-11
9.8889e-10
4.57528e-11
9.45277e-10
4.3622e-11
9.03115e-10
4.21716e-11
8.62289e-10
4.08352e-11
8.235e-10
3.87989e-11
7.86652e-10
3.68562e-11
7.51602e-10
3.50594e-11
7.1706e-10
3.45509e-11
6.82039e-10
3.50296e-11
6.46677e-10
3.53707e-11
6.11431e-10
3.52536e-11
5.78653e-10
3.27864e-11
5.47592e-10
3.10678e-11
5.19593e-10
2.80066e-11
4.92708e-10
2.68928e-11
4.68466e-10
2.42489e-11
4.43519e-10
2.49537e-11
4.18799e-10
2.47267e-11
3.93044e-10
2.57614e-11
3.6937e-10
2.36805e-11
3.47262e-10
2.21135e-11
3.26171e-10
2.10971e-11
3.05065e-10
2.11107e-11
2.84203e-10
2.08674e-11
2.63247e-10
2.09615e-11
2.41696e-10
2.15556e-11
2.19835e-10
2.18664e-11
1.98773e-10
2.10659e-11
1.78747e-10
2.00312e-11
1.59753e-10
1.89982e-11
1.41827e-10
1.79306e-11
1.24568e-10
1.72627e-11
1.07295e-10
1.72774e-11
9.02383e-11
1.706e-11
7.30943e-11
1.71478e-11
5.55649e-11
1.75331e-11
3.71075e-11
1.84613e-11
1.75049e-11
1.96066e-11
1.75087e-11
2.06509e-08
-9.21471e-08
-9.56535e-09
-7.98461e-08
-1.15921e-08
-5.65001e-08
-8.59476e-09
-3.78053e-08
-5.9711e-09
-2.21568e-08
-4.04702e-09
-1.19315e-08
-3.15459e-09
-4.02767e-09
-2.87844e-09
1.80469e-09
-2.75621e-09
5.89368e-09
-2.71194e-09
8.90906e-09
-2.56902e-09
1.11157e-08
-2.26797e-09
1.27532e-08
-1.88504e-09
1.40102e-08
-1.43198e-09
1.48949e-08
-9.49824e-10
1.54957e-08
-4.41892e-10
1.58251e-08
4.72677e-11
1.59479e-08
4.48447e-10
1.58407e-08
7.76295e-10
1.55553e-08
1.06008e-09
1.51072e-08
1.25101e-09
1.45172e-08
1.36954e-09
1.37784e-08
1.41163e-09
1.29549e-08
1.41491e-09
1.20523e-08
1.36917e-09
1.11009e-08
1.29292e-09
1.01365e-08
1.2018e-09
9.17072e-09
1.08794e-09
8.23488e-09
9.62397e-10
7.32688e-09
8.20855e-10
6.48939e-09
6.77534e-10
5.68038e-09
5.3744e-10
4.94599e-09
4.00409e-10
4.27208e-09
2.73906e-10
3.66408e-09
1.57987e-10
3.11935e-09
5.38614e-11
2.6371e-09
-3.8105e-11
2.21555e-09
-1.20023e-10
1.84876e-09
-1.87987e-10
1.53339e-09
-2.43633e-10
1.2658e-09
-2.92066e-10
1.04076e-09
-3.33594e-10
8.52122e-10
-3.69215e-10
6.95533e-10
-3.99997e-10
5.67456e-10
-4.26262e-10
4.61106e-10
-4.50487e-10
3.75902e-10
-4.7128e-10
3.06469e-10
-4.91379e-10
2.50137e-10
-5.07491e-10
2.0523e-10
-5.24448e-10
1.70061e-10
-5.40613e-10
1.41892e-10
-5.56481e-10
1.19007e-10
-5.71861e-10
1.00309e-10
-5.86173e-10
8.39736e-11
-6.01235e-10
7.44135e-11
-6.17673e-10
6.70145e-11
-6.34867e-10
6.07325e-11
-6.52926e-10
5.60414e-11
-6.71328e-10
5.27988e-11
-6.88861e-10
4.92109e-11
-7.06715e-10
4.7088e-11
-7.25067e-10
4.61916e-11
-7.4499e-10
4.58921e-11
-7.65568e-10
4.64053e-11
-7.86765e-10
4.72932e-11
-8.08508e-10
4.81649e-11
-8.30582e-10
4.87589e-11
-8.53586e-10
4.91193e-11
-8.76798e-10
4.9404e-11
-9.00188e-10
4.95913e-11
-9.23753e-10
4.96212e-11
-9.4744e-10
4.9476e-11
-9.71188e-10
4.91985e-11
-9.95015e-10
4.88566e-11
-1.01898e-09
4.85516e-11
-1.04322e-09
4.84651e-11
-1.06791e-09
4.87213e-11
-1.0932e-09
4.94205e-11
-1.11923e-09
5.06705e-11
-1.14618e-09
5.24253e-11
-1.17397e-09
5.46118e-11
-1.20293e-09
5.70977e-11
-1.23281e-09
5.95391e-11
-1.26369e-09
6.18919e-11
-1.29549e-09
6.39022e-11
-1.32813e-09
6.56097e-11
-1.36159e-09
6.71114e-11
-1.39581e-09
6.8529e-11
-1.43084e-09
7.00169e-11
-1.46673e-09
7.16772e-11
-1.50353e-09
7.3563e-11
-1.54134e-09
7.56464e-11
-1.58021e-09
7.79649e-11
-1.62016e-09
8.02921e-11
-1.66124e-09
8.26611e-11
-1.70344e-09
8.49388e-11
-1.74672e-09
8.70963e-11
-1.79104e-09
8.91357e-11
-1.8364e-09
9.10932e-11
-1.88276e-09
9.3024e-11
-1.93016e-09
9.50009e-11
-1.97866e-09
9.71203e-11
-2.02836e-09
9.94468e-11
-2.07939e-09
1.02059e-10
-2.13192e-09
1.05025e-10
-2.18608e-09
1.08323e-10
-2.24198e-09
1.11814e-10
-2.29959e-09
1.15453e-10
-2.35892e-09
1.19056e-10
-2.41989e-09
1.22462e-10
-2.48242e-09
1.25608e-10
-2.54642e-09
1.28543e-10
-2.61185e-09
1.31316e-10
-2.67874e-09
1.34086e-10
-2.7472e-09
1.37034e-10
-2.8174e-09
1.40322e-10
-2.88955e-09
1.44079e-10
-2.96383e-09
1.48308e-10
-3.04038e-09
1.52915e-10
-3.11927e-09
1.57735e-10
-3.20049e-09
1.6257e-10
-3.28398e-09
1.67261e-10
-3.36966e-09
1.71734e-10
-3.45748e-09
1.7599e-10
-3.54742e-09
1.8012e-10
-3.63953e-09
1.84302e-10
-3.73395e-09
1.88699e-10
-3.83086e-09
1.93497e-10
-3.93048e-09
1.98809e-10
-4.03307e-09
2.04674e-10
-4.13881e-09
2.11038e-10
-4.24784e-09
2.1777e-10
-4.36022e-09
2.24698e-10
-4.47598e-09
2.31683e-10
-4.59509e-09
2.38615e-10
-4.71754e-09
2.4545e-10
-4.8433e-09
2.52221e-10
-4.97236e-09
2.58974e-10
-5.10492e-09
2.65951e-10
-5.24111e-09
2.73173e-10
-5.3811e-09
2.807e-10
-5.52502e-09
2.88525e-10
-5.67303e-09
2.96668e-10
-5.82527e-09
3.05117e-10
-5.98189e-09
3.13878e-10
-6.14307e-09
3.22977e-10
-6.30909e-09
3.32461e-10
-6.48e-09
3.42275e-10
-6.65599e-09
3.52512e-10
-6.83727e-09
3.63178e-10
-7.02402e-09
3.74215e-10
-7.21639e-09
3.85507e-10
-7.41446e-09
3.96898e-10
-7.61823e-09
4.08236e-10
-7.82771e-09
4.19437e-10
-8.04288e-09
4.3053e-10
-8.26381e-09
4.41675e-10
-8.49069e-09
4.5315e-10
-8.72382e-09
4.65292e-10
-8.9636e-09
4.78416e-10
-9.21052e-09
4.92729e-10
-9.46506e-09
5.08265e-10
-9.72762e-09
5.24861e-10
-9.99847e-09
5.42188e-10
-1.02778e-08
5.59852e-10
-1.05656e-08
5.77495e-10
-1.0862e-08
5.94875e-10
-1.11669e-08
6.1195e-10
-1.14805e-08
6.28907e-10
-1.18029e-08
6.46088e-10
-1.21346e-08
6.63942e-10
-1.24761e-08
6.82883e-10
-1.2828e-08
7.03189e-10
-1.31909e-08
7.24942e-10
-1.35653e-08
7.48017e-10
-1.39515e-08
7.72131e-10
-1.43498e-08
7.96935e-10
-1.47604e-08
8.22115e-10
-1.51833e-08
8.47479e-10
-1.56188e-08
8.73005e-10
-1.60672e-08
8.98847e-10
-1.65287e-08
9.25262e-10
-1.7004e-08
9.52539e-10
-1.74936e-08
9.80917e-10
-1.79981e-08
1.01054e-09
-1.85181e-08
1.04143e-09
-1.90543e-08
1.07354e-09
-1.9607e-08
1.10674e-09
-2.01769e-08
1.14095e-09
-2.07643e-08
1.17606e-09
-2.13698e-08
1.21209e-09
-2.19937e-08
1.24906e-09