/*--------------------------------*- C++ -*----------------------------------*\
| =========                 |                                                 |
| \\      /  F ield         | OpenFOAM: The Open Source CFD Toolbox           |
|  \\    /   O peration     | Version:  2412                                  |
|   \\  /    A nd           | Website:  www.openfoam.com                      |
|    \\/     M anipulation  |                                                 |
\*---------------------------------------------------------------------------*/
FoamFile
{
    version     2.0;
    format      ascii;
    arch        "LSB;label=32;scalar=64";
    class       surfaceScalarField;
    location    "3.7";
    object      alphaPhi0.gasoline;
}
// * * * * * * * * * * * * * * * * * * * * * * * * * * * * * * * * * * * * * //

dimensions      [0 3 -1 0 0 0 0];

oriented        oriented;

internalField   nonuniform List<scalar> 
12640
(
1.65977e-06
-1.65976e-06
7.86186e-06
-6.20121e-06
1.44524e-05
-6.59044e-06
1.99603e-05
-5.50826e-06
2.40012e-05
-4.04134e-06
2.65365e-05
-2.53548e-06
2.7574e-05
-1.0372e-06
2.72698e-05
3.04645e-07
2.56193e-05
1.65094e-06
2.29608e-05
2.65885e-06
1.95492e-05
3.41174e-06
1.5661e-05
3.888e-06
1.15913e-05
4.06943e-06
7.47008e-06
4.1209e-06
3.42882e-06
4.04056e-06
-3.7608e-07
3.80478e-06
-3.88489e-06
3.50861e-06
-7.06887e-06
3.18392e-06
-9.93387e-06
2.86548e-06
-1.25014e-05
2.56746e-06
-1.48097e-05
2.30839e-06
-1.68479e-05
2.03918e-06
-1.869e-05
1.84159e-06
-2.03841e-05
1.69327e-06
-2.19757e-05
1.59069e-06
-2.34187e-05
1.4429e-06
-2.46912e-05
1.27342e-06
-2.57319e-05
1.04098e-06
-2.64653e-05
7.32588e-07
-2.6803e-05
3.36955e-07
-2.66946e-05
-1.0841e-07
-2.61321e-05
-5.62298e-07
-2.51386e-05
-9.93609e-07
-2.35451e-05
-1.59353e-06
-2.14091e-05
-2.1361e-06
-1.87165e-05
-2.69284e-06
-1.54054e-05
-3.31153e-06
-1.1675e-05
-3.73066e-06
-7.57534e-06
-4.09959e-06
-3.22294e-06
-4.35216e-06
1.1645e-06
-4.38697e-06
5.41102e-06
-4.24597e-06
9.33114e-06
-3.91962e-06
1.28418e-05
-3.51018e-06
1.59002e-05
-3.05796e-06
1.83608e-05
-2.46042e-06
2.03101e-05
-1.94911e-06
2.17991e-05
-1.48882e-06
2.27714e-05
-9.72124e-07
2.33536e-05
-5.8195e-07
2.3535e-05
-1.81277e-07
2.3317e-05
2.17796e-07
2.27634e-05
5.53036e-07
2.19258e-05
8.36809e-07
2.08593e-05
1.06576e-06
1.95791e-05
1.27965e-06
1.81171e-05
1.46169e-06
1.6421e-05
1.69624e-06
1.44349e-05
1.98635e-06
1.20885e-05
2.34652e-06
9.38258e-06
2.70594e-06
6.29158e-06
3.09094e-06
2.79813e-06
3.49356e-06
-1.06947e-06
3.86805e-06
-5.23666e-06
4.16791e-06
-9.66666e-06
4.43061e-06
-1.42154e-05
4.54882e-06
-1.86928e-05
4.47699e-06
-2.28836e-05
4.19013e-06
-2.6513e-05
3.629e-06
-2.92987e-05
2.78553e-06
-3.09352e-05
1.63631e-06
-3.11963e-05
2.60584e-07
-2.9969e-05
-1.22779e-06
-2.70621e-05
-2.90686e-06
-2.25019e-05
-4.5599e-06
-1.64075e-05
-6.09452e-06
-9.10514e-06
-7.30278e-06
-2.24429e-06
-6.86098e-06
-2.24407e-06
4.24445e-06
-5.90394e-06
1.56399e-05
-1.75965e-05
2.79439e-05
-1.88949e-05
3.88268e-05
-1.63917e-05
4.78932e-05
-1.31079e-05
5.51237e-05
-9.76561e-06
6.05835e-05
-6.49611e-06
6.4349e-05
-3.46009e-06
6.6743e-05
-7.42901e-07
6.78791e-05
1.52242e-06
6.81024e-05
3.18819e-06
6.7603e-05
4.38675e-06
6.65624e-05
5.1094e-06
6.52026e-05
5.48075e-06
6.36518e-05
5.59089e-06
6.19889e-05
5.46773e-06
6.02684e-05
5.22943e-06
5.8507e-05
4.94517e-06
5.66959e-05
4.67742e-06
5.48233e-05
4.4406e-06
5.27834e-05
4.34717e-06
5.05881e-05
4.23405e-06
4.8171e-05
4.25829e-06
4.55389e-05
4.32593e-06
4.27302e-05
4.39969e-06
3.97132e-05
4.45929e-06
3.65285e-05
4.45719e-06
3.31681e-05
4.40083e-06
2.96821e-05
4.21882e-06
2.60891e-05
3.93056e-06
2.24264e-05
3.55475e-06
1.87941e-05
3.07021e-06
1.53247e-05
2.47595e-06
1.19566e-05
1.7746e-06
8.8109e-06
1.00945e-06
5.84281e-06
2.74978e-07
2.98601e-06
-4.54833e-07
3.14523e-07
-1.05886e-06
-2.21932e-06
-1.56499e-06
-4.68995e-06
-1.88068e-06
-7.12958e-06
-1.94646e-06
-9.57811e-06
-1.79648e-06
-1.20515e-05
-1.44528e-06
-1.45915e-05
-9.69382e-07
-1.72552e-05
-3.93585e-07
-1.99724e-05
2.57232e-07
-2.28247e-05
9.03513e-07
-2.58112e-05
1.49805e-06
-2.8819e-05
2.03608e-06
-3.18789e-05
2.47806e-06
-3.48867e-05
2.82618e-06
-3.77908e-05
3.12122e-06
-4.05816e-05
3.34282e-06
-4.32313e-05
3.48548e-06
-4.5777e-05
3.61074e-06
-4.81834e-05
3.68584e-06
-5.05055e-05
3.78389e-06
-5.27187e-05
3.90988e-06
-5.48401e-05
4.10816e-06
-5.68845e-05
4.39106e-06
-5.89052e-05
4.72675e-06
-6.09426e-05
5.12856e-06
-6.2998e-05
5.5496e-06
-6.50742e-05
5.94525e-06
-6.7164e-05
6.2584e-06
-6.91553e-05
6.42197e-06
-7.09355e-05
6.32826e-06
-7.23375e-05
5.8779e-06
-7.31642e-05
5.01617e-06
-7.31734e-05
3.63785e-06
-7.21414e-05
1.75322e-06
-6.97045e-05
-8.01296e-07
-6.56832e-05
-3.76144e-06
-5.98117e-05
-7.09929e-06
-5.20314e-05
-1.06869e-05
-4.2279e-05
-1.43125e-05
-3.05638e-05
-1.78107e-05
-1.73806e-05
-2.04866e-05
-4.99358e-06
-1.92473e-05
-7.23866e-06
5.77074e-06
-1.16746e-05
1.93907e-05
-3.12168e-05
3.37859e-05
-3.32907e-05
4.64329e-05
-2.90389e-05
5.69631e-05
-2.36378e-05
6.53381e-05
-1.81401e-05
7.16498e-05
-1.28076e-05
7.60652e-05
-7.87564e-06
7.88727e-05
-3.55072e-06
8.0403e-05
-8.36932e-09
8.09052e-05
2.68583e-06
8.06929e-05
4.59939e-06
8.00605e-05
5.74218e-06
7.9169e-05
6.37281e-06
7.81741e-05
6.58597e-06
7.71407e-05
6.50125e-06
7.61248e-05
6.24531e-06
7.51024e-05
5.96707e-06
7.40358e-05
5.74321e-06
7.28288e-05
5.64743e-06
7.14418e-05
5.73508e-06
6.97508e-05
5.92671e-06
6.77303e-05
6.27915e-06
6.53104e-05
6.74512e-06
6.24891e-05
7.21916e-06
5.92313e-05
7.71653e-06
5.5525e-05
8.16525e-06
5.14481e-05
8.47983e-06
4.70371e-05
8.63069e-06
4.23614e-05
8.60664e-06
3.75274e-05
8.38937e-06
3.26077e-05
7.99047e-06
2.7693e-05
7.39077e-06
2.28328e-05
6.63477e-06
1.80258e-05
5.81645e-06
1.33136e-05
4.9875e-06
8.65268e-06
4.20654e-06
4.07798e-06
3.51643e-06
-4.29757e-07
2.94337e-06
-4.89656e-06
2.5868e-06
-9.34238e-06
2.50027e-06
-1.37564e-05
2.61846e-06
-1.81402e-05
2.93937e-06
-2.25262e-05
3.41715e-06
-2.69037e-05
3.98426e-06
-3.12666e-05
4.62032e-06
-3.56135e-05
5.25058e-06
-3.99593e-05
5.84421e-06
-4.42755e-05
6.3527e-06
-4.84792e-05
6.68199e-06
-5.25162e-05
6.86319e-06
-5.62594e-05
6.86408e-06
-5.97159e-05
6.79873e-06
-6.28486e-05
6.61773e-06
-6.55926e-05
6.35443e-06
-6.79894e-05
6.08269e-06
-7.00839e-05
5.87879e-06
-7.18995e-05
5.72589e-06
-7.34909e-05
5.6997e-06
-7.49088e-05
5.80896e-06
-7.62386e-05
6.0564e-06
-7.75523e-05
6.44243e-06
-7.89113e-05
6.90904e-06
-8.03357e-05
7.37014e-06
-8.18176e-05
7.74049e-06
-8.32869e-05
7.89078e-06
-8.46185e-05
7.65918e-06
-8.56619e-05
6.92075e-06
-8.61691e-05
5.52326e-06
-8.5968e-05
3.43683e-06
-8.45356e-05
3.20331e-07
-8.16869e-05
-3.65067e-06
-7.70317e-05
-8.41736e-06
-7.03056e-05
-1.38256e-05
-6.1356e-05
-1.9637e-05
-5.00776e-05
-2.55916e-05
-3.64921e-05
-3.13967e-05
-2.11706e-05
-3.58077e-05
-6.52315e-06
-3.38955e-05
-1.37617e-05
6.83731e-06
-1.8512e-05
2.22507e-05
-4.66307e-05
3.82707e-05
-4.93109e-05
5.21517e-05
-4.292e-05
6.32929e-05
-3.47787e-05
7.18238e-05
-2.66711e-05
7.79207e-05
-1.8905e-05
8.1871e-05
-1.18266e-05
8.40661e-05
-5.74606e-06
8.49028e-05
-8.44886e-07
8.47944e-05
2.79493e-06
8.39418e-05
5.45272e-06
8.28763e-05
6.80861e-06
8.16953e-05
7.55418e-06
8.05477e-05
7.73318e-06
7.95123e-05
7.53588e-06
7.86124e-05
7.14462e-06
7.78124e-05
6.76754e-06
7.70241e-05
6.53281e-06
7.61399e-05
6.53157e-06
7.50726e-05
6.80176e-06
7.3688e-05
7.31086e-06
7.18923e-05
8.07501e-06
6.96361e-05
9.00275e-06
6.68187e-05
1.00376e-05
6.34855e-05
1.10497e-05
5.96427e-05
1.20068e-05
5.5321e-05
1.28002e-05
5.0558e-05
1.33929e-05
4.54776e-05
1.36869e-05
4.0177e-05
1.36897e-05
3.47596e-05
1.34074e-05
2.93316e-05
1.28185e-05
2.39203e-05
1.20461e-05
1.86319e-05
1.11053e-05
1.35277e-05
1.0092e-05
8.62643e-06
9.10785e-06
3.92552e-06
8.21744e-06
-6.06056e-07
7.47511e-06
-5.01935e-06
7.00031e-06
-9.37487e-06
6.85602e-06
-1.37842e-05
7.02778e-06
-1.82802e-05
7.43506e-06
-2.29101e-05
8.04663e-06
-2.76481e-05
8.72183e-06
-3.24639e-05
9.43593e-06
-3.7334e-05
1.01206e-05
-4.21995e-05
1.07098e-05
-4.69716e-05
1.11249e-05
-5.16066e-05
1.1317e-05
-5.59849e-05
1.12414e-05
-6.00591e-05
1.0938e-05
-6.37079e-05
1.04473e-05
-6.69189e-05
9.82844e-06
-6.96961e-05
9.13157e-06
-7.20611e-05
8.44785e-06
-7.39642e-05
7.78222e-06
-7.55311e-05
7.29294e-06
-7.68198e-05
6.9883e-06
-7.79437e-05
6.93252e-06
-7.89852e-05
7.09772e-06
-8.0068e-05
7.52526e-06
-8.12684e-05
8.10965e-06
-8.26403e-05
8.74215e-06
-8.41857e-05
9.28578e-06
-8.58521e-05
9.5566e-06
-8.75536e-05
9.36018e-06
-8.91118e-05
8.47903e-06
-9.0295e-05
6.70668e-06
-9.07907e-05
3.9323e-06
-9.01288e-05
-3.42537e-07
-8.79107e-05
-5.86967e-06
-8.37266e-05
-1.26019e-05
-7.72053e-05
-2.03472e-05
-6.80617e-05
-2.87814e-05
-5.60904e-05
-3.75633e-05
-4.12676e-05
-4.62195e-05
-2.42024e-05
-5.28728e-05
-7.66713e-06
-5.0432e-05
-2.14286e-05
8.06279e-06
-2.65749e-05
2.59173e-05
-6.44858e-05
4.4201e-05
-6.75949e-05
5.96393e-05
-5.83584e-05
7.1491e-05
-4.66307e-05
7.98947e-05
-3.50751e-05
8.5359e-05
-2.43696e-05
8.83313e-05
-1.47991e-05
8.93623e-05
-6.77676e-06
8.89922e-05
-4.73972e-07
8.77119e-05
4.07625e-06
8.59628e-05
7.20189e-06
8.41069e-05
8.66438e-06
8.23499e-05
9.31075e-06
8.08264e-05
9.25685e-06
7.96053e-05
8.75768e-06
7.87093e-05
8.04081e-06
7.80418e-05
7.43452e-06
7.74528e-05
7.12272e-06
7.68377e-05
7.14704e-06
7.60429e-05
7.5976e-06
7.48789e-05
8.47527e-06
7.32672e-05
9.68676e-06
7.10809e-05
1.1187e-05
6.83061e-05
1.28086e-05
6.48639e-05
1.44892e-05
6.08315e-05
1.60382e-05
5.62453e-05
1.73862e-05
5.12235e-05
1.84148e-05
4.58384e-05
1.90721e-05
4.02268e-05
1.93014e-05
3.44869e-05
1.91476e-05
2.87215e-05
1.85845e-05
2.30556e-05
1.77126e-05
1.7597e-05
1.65642e-05
1.24096e-05
1.52794e-05
7.56389e-06
1.39536e-05
3.06901e-06
1.27127e-05
-1.1444e-06
1.1689e-05
-5.16305e-06
1.10194e-05
-9.13322e-06
1.08264e-05
-1.32017e-05
1.10963e-05
-1.7466e-05
1.16991e-05
-2.20092e-05
1.25896e-05
-2.67759e-05
1.34882e-05
-3.17595e-05
1.44192e-05
-3.68798e-05
1.52405e-05
-4.20245e-05
1.58544e-05
-4.70906e-05
1.61911e-05
-5.19813e-05
1.62079e-05
-5.66206e-05
1.5881e-05
-6.08961e-05
1.52136e-05
-6.47269e-05
1.42782e-05
-6.80581e-05
1.31598e-05
-7.08712e-05
1.19449e-05
-7.31255e-05
1.07025e-05
-7.49447e-05
9.60171e-06
-7.62981e-05
8.64638e-06
-7.73507e-05
8.0407e-06
-7.821e-05
7.79151e-06
-7.90306e-05
7.91812e-06
-7.99593e-05
8.45401e-06
-8.11154e-05
9.26574e-06
-8.25719e-05
1.01983e-05
-8.43814e-05
1.10947e-05
-8.65283e-05
1.1703e-05
-8.89332e-05
1.17649e-05
-9.14096e-05
1.09556e-05
-9.36558e-05
8.95304e-06
-9.54038e-05
5.67999e-06
-9.59898e-05
2.42707e-07
-9.49727e-05
-6.88705e-06
-9.17866e-05
-1.57879e-05
-8.58719e-05
-2.62619e-05
-7.67592e-05
-3.78943e-05
-6.40612e-05
-5.02615e-05
-4.76814e-05
-6.2599e-05
-2.81841e-05
-7.23717e-05
-9.15112e-06
-6.94651e-05
-3.05806e-05
9.87285e-06
-3.6448e-05
3.1141e-05
-8.57546e-05
5.26482e-05
-8.91026e-05
7.01246e-05
-7.58352e-05
8.27563e-05
-5.92627e-05
9.10073e-05
-4.33261e-05
9.53642e-05
-2.87261e-05
9.67632e-05
-1.61974e-05
9.60538e-05
-6.067e-06
9.39472e-05
1.63262e-06
9.09757e-05
7.04791e-06
8.80527e-05
1.01246e-05
8.51555e-05
1.15619e-05
8.26727e-05
1.17935e-05
8.05677e-05
1.13621e-05
7.92771e-05
1.00498e-05
7.85157e-05
8.80433e-06
7.80901e-05
7.86128e-06
7.78815e-05
7.33229e-06
7.75931e-05
7.43383e-06
7.7179e-05
8.00968e-06
7.63721e-05
9.27877e-06
7.50206e-05
1.10376e-05
7.29753e-05
1.32338e-05
7.02013e-05
1.55841e-05
6.66949e-05
1.79967e-05
6.24705e-05
2.02631e-05
5.76235e-05
2.22332e-05
5.22498e-05
2.37882e-05
4.6492e-05
2.483e-05
4.04833e-05
2.53104e-05
3.43804e-05
2.52511e-05
2.82851e-05
2.46803e-05
2.23551e-05
2.36431e-05
1.67016e-05
2.22184e-05
1.14622e-05
2.05195e-05
6.6675e-06
1.87492e-05
2.33185e-06
1.70493e-05
-1.62373e-06
1.56452e-05
-5.33923e-06
1.47351e-05
-9.00594e-06
1.4493e-05
-1.28132e-05
1.49031e-05
-1.69026e-05
1.5788e-05
-2.13413e-05
1.70279e-05
-2.6159e-05
1.83054e-05
-3.13019e-05
1.95617e-05
-3.66477e-05
2.05862e-05
-4.20803e-05
2.12872e-05
-4.74721e-05
2.15833e-05
-5.2685e-05
2.14215e-05
-5.76003e-05
2.07969e-05
-6.21108e-05
1.97246e-05
-6.61144e-05
1.82822e-05
-6.95483e-05
1.6594e-05
-7.2347e-05
1.4744e-05
-7.45293e-05
1.28851e-05
-7.61211e-05
1.11936e-05
-7.71909e-05
9.716e-06
-7.78871e-05
8.73657e-06
-7.83691e-05
8.27318e-06
-7.88416e-05
8.39042e-06
-7.9474e-05
9.08632e-06
-8.04857e-05
1.02771e-05
-8.2012e-05
1.17242e-05
-8.41231e-05
1.32052e-05
-8.68651e-05
1.44449e-05
-9.01761e-05
1.50765e-05
-9.38803e-05
1.46603e-05
-9.76646e-05
1.27375e-05
-0.000100942
8.95717e-06
-0.000103439
2.74e-06
-0.000104226
-6.09992e-06
-0.0001026
-1.74134e-05
-9.77266e-05
-3.11359e-05
-8.88777e-05
-4.67434e-05
-7.53323e-05
-6.38075e-05
-5.66116e-05
-8.13203e-05
-3.37455e-05
-9.52392e-05
-1.10367e-05
-9.21738e-05
-4.16174e-05
1.20607e-05
-4.8509e-05
3.81078e-05
-0.000111803
6.43885e-05
-0.000115384
8.4736e-05
-9.61826e-05
9.81897e-05
-7.27158e-05
0.000105663
-5.07985e-05
0.000108487
-3.15495e-05
0.000107729
-1.54392e-05
0.00010436
-2.69816e-06
9.96981e-05
6.29417e-06
9.48326e-05
1.19132e-05
9.00628e-05
1.48944e-05
8.58499e-05
1.57761e-05
8.24893e-05
1.51563e-05
7.99783e-05
1.38745e-05
7.8606e-05
1.14223e-05
7.80092e-05
9.40013e-06
7.80041e-05
7.86514e-06
7.83313e-05
7.00526e-06
7.8754e-05
7.01161e-06
7.89054e-05
7.86065e-06
7.86115e-05
9.57455e-06
7.76617e-05
1.19889e-05
7.58329e-05
1.50636e-05
7.31178e-05
1.82992e-05
6.95043e-05
2.16094e-05
6.50316e-05
2.47349e-05
5.98242e-05
2.74401e-05
5.40239e-05
2.95887e-05
4.77713e-05
3.10831e-05
4.12563e-05
3.18261e-05
3.46375e-05
3.18705e-05
2.80838e-05
3.12347e-05
2.17781e-05
2.99495e-05
1.58852e-05
2.81117e-05
1.05167e-05
2.58881e-05
5.74775e-06
2.35179e-05
1.56173e-06
2.1235e-05
-2.14575e-06
1.93521e-05
-5.54075e-06
1.81297e-05
-8.88796e-06
1.78399e-05
-1.24434e-05
1.84583e-05
-1.63787e-05
1.97228e-05
-2.07988e-05
2.14474e-05
-2.56945e-05
2.32005e-05
-3.10263e-05
2.4893e-05
-3.66881e-05
2.62476e-05
-4.2537e-05
2.71362e-05
-4.83785e-05
2.74253e-05
-5.40042e-05
2.70478e-05
-5.93029e-05
2.60962e-05
-6.41277e-05
2.455e-05
-6.83601e-05
2.2515e-05
-7.1901e-05
2.01354e-05
-7.46919e-05
1.75353e-05
-7.67198e-05
1.49131e-05
-7.80213e-05
1.24949e-05
-7.86433e-05
1.03377e-05
-7.88017e-05
8.8947e-06
-7.86958e-05
8.16714e-06
-7.85999e-05
8.2945e-06
-7.87305e-05
9.21697e-06
-7.94565e-05
1.1003e-05
-8.0948e-05
1.32153e-05
-8.3347e-05
1.56041e-05
-8.67623e-05
1.78607e-05
-9.11505e-05
1.94655e-05
-9.63737e-05
1.9884e-05
-0.000102095
1.84592e-05
-0.000107663
1.45243e-05
-0.000112739
7.81693e-06
-0.000116095
-2.74364e-06
-0.000116864
-1.66453e-05
-0.000113796
-3.42037e-05
-0.000105528
-5.50121e-05
-9.09091e-05
-7.8427e-05
-6.90898e-05
-0.000103141
-4.12521e-05
-0.000123076
-1.346e-05
-0.000119967
-5.50766e-05
1.48915e-05
-6.34011e-05
4.76122e-05
-0.000144524
8.08495e-05
-0.000148621
0.000105183
-0.000120516
0.000119326
-8.68573e-05
0.000125158
-5.66306e-05
0.000125099
-3.14902e-05
0.000120999
-1.13405e-05
0.000114293
4.00794e-06
0.000106471
1.41174e-05
9.86766e-05
1.97093e-05
9.16515e-05
2.19205e-05
8.58468e-05
2.15807e-05
8.15116e-05
1.94907e-05
7.85757e-05
1.68093e-05
7.72234e-05
1.27746e-05
7.7049e-05
9.57496e-06
7.77344e-05
7.18135e-06
7.89295e-05
5.8127e-06
8.02236e-05
5.71911e-06
8.12847e-05
6.79912e-06
8.17511e-05
9.10718e-06
8.13203e-05
1.24187e-05
7.98134e-05
1.65687e-05
7.71755e-05
2.09361e-05
7.34166e-05
2.53681e-05
6.86252e-05
2.95265e-05
6.29293e-05
3.31365e-05
5.65264e-05
3.59921e-05
4.96284e-05
3.79814e-05
4.2428e-05
3.90266e-05
3.51475e-05
3.9151e-05
2.79699e-05
3.8412e-05
2.11462e-05
3.67733e-05
1.4866e-05
3.43918e-05
9.30301e-06
3.1451e-05
4.53523e-06
2.82856e-05
5.42284e-07
2.5228e-05
-2.78553e-06
2.26799e-05
-5.74691e-06
2.10908e-05
-8.64524e-06
2.07379e-05
-1.18393e-05
2.16519e-05
-1.55944e-05
2.34773e-05
-2.00144e-05
2.58669e-05
-2.50894e-05
2.82749e-05
-3.07805e-05
3.05839e-05
-3.69312e-05
3.23982e-05
-4.33122e-05
3.35174e-05
-4.97122e-05
3.38256e-05
-5.596e-05
3.32962e-05
-6.17882e-05
3.1925e-05
-6.70304e-05
2.97927e-05
-7.15696e-05
2.70547e-05
-7.52597e-05
2.38259e-05
-7.80252e-05
2.0301e-05
-7.98394e-05
1.67272e-05
-8.07341e-05
1.33894e-05
-8.07506e-05
1.03539e-05
-8.01332e-05
8.27722e-06
-7.91946e-05
7.22868e-06
-7.82444e-05
7.34444e-06
-7.76542e-05
8.62687e-06
-7.76882e-05
1.10367e-05
-7.90584e-05
1.45854e-05
-8.16739e-05
1.82201e-05
-8.57745e-05
2.1962e-05
-9.14091e-05
2.51008e-05
-9.85071e-05
2.69822e-05
-0.000106756
2.67085e-05
-0.000115535
2.33041e-05
-0.000123782
1.60645e-05
-0.000131047
4.52182e-06
-0.0001352
-1.24929e-05
-0.000134809
-3.45948e-05
-0.000128033
-6.17881e-05
-0.000112531
-9.39299e-05
-8.64555e-05
-0.000129216
-5.13848e-05
-0.000158146
-1.65056e-05
-0.000154847
-7.15818e-05
1.76953e-05
-8.10971e-05
5.95122e-05
-0.000186341
0.000103526
-0.000192635
0.000133816
-0.000150804
0.000148141
-0.000101182
0.000150915
-5.94049e-05
0.0001461
-2.66757e-05
0.00013693
-2.16938e-06
0.00012542
1.5518e-05
0.000113668
2.58704e-05
0.000102184
3.11939e-05
9.22723e-05
3.1832e-05
8.46004e-05
2.92515e-05
7.9196e-05
2.48941e-05
7.59388e-05
2.00656e-05
7.48435e-05
1.38703e-05
7.54048e-05
9.01367e-06
7.7168e-05
5.41806e-06
7.96026e-05
3.37705e-06
8.22172e-05
3.10498e-06
8.44745e-05
4.53971e-06
8.59227e-05
7.65729e-06
8.62441e-05
1.20973e-05
8.51813e-05
1.76322e-05
8.26376e-05
2.34807e-05
7.86733e-05
2.93331e-05
7.34236e-05
3.47765e-05
6.70951e-05
3.94651e-05
5.99368e-05
4.31504e-05
5.2189e-05
4.57294e-05
4.40799e-05
4.71359e-05
3.5864e-05
4.73674e-05
2.78955e-05
4.63811e-05
2.03397e-05
4.43296e-05
1.35264e-05
4.12055e-05
7.66119e-06
3.73162e-05
2.88024e-06
3.30663e-05
-8.45267e-07
2.8953e-05
-3.67697e-06
2.55111e-05
-5.93577e-06
2.33493e-05
-8.17609e-06
2.2978e-05
-1.08908e-05
2.43663e-05
-1.44019e-05
2.6988e-05
-1.88522e-05
3.03168e-05
-2.42286e-05
3.36509e-05
-3.04379e-05
3.67929e-05
-3.72758e-05
3.9236e-05
-4.44741e-05
4.07158e-05
-5.17008e-05
4.10525e-05
-5.86853e-05
4.02811e-05
-6.51742e-05
3.84143e-05
-7.09739e-05
3.55928e-05
-7.58948e-05
3.19759e-05
-7.98137e-05
2.7745e-05
-8.25805e-05
2.30678e-05
-8.41018e-05
1.82482e-05
-8.44433e-05
1.37306e-05
-8.36793e-05
9.58978e-06
-8.20266e-05
6.62476e-06
-7.98545e-05
5.05711e-06
-7.76677e-05
5.15809e-06
-7.595e-05
6.90929e-06
-7.52236e-05
1.03103e-05
-7.58047e-05
1.51667e-05
-7.86097e-05
2.10257e-05
-8.33967e-05
2.67497e-05
-9.0467e-05
3.21713e-05
-0.000100155
3.66698e-05
-0.000111168
3.77221e-05
-0.000123651
3.57884e-05
-0.000136674
2.90881e-05
-0.000148616
1.64636e-05
-0.000158005
-3.10362e-06
-0.000162288
-3.03124e-05
-0.000158549
-6.55274e-05
-0.000142633
-0.000109845
-0.000110251
-0.000161599
-6.40734e-05
-0.000204324
-1.98104e-05
-0.000199109
-9.13925e-05
1.90973e-05
-0.000100195
7.19463e-05
-0.000239189
0.000133874
-0.000254561
0.000173887
-0.000190817
0.000187322
-0.000114619
0.000184348
-5.64314e-05
0.000172207
-1.45347e-05
0.000155335
1.47041e-05
0.000137831
3.3023e-05
0.000120252
4.34499e-05
0.000104699
4.67454e-05
9.14052e-05
4.51241e-05
8.13389e-05
3.9317e-05
7.47674e-05
3.14662e-05
7.1521e-05
2.33129e-05
7.10489e-05
1.43427e-05
7.28166e-05
7.24405e-06
7.61831e-05
2.0495e-06
8.04063e-05
-8.48685e-07
8.48169e-05
-1.30527e-06
8.87295e-05
6.28124e-07
9.16105e-05
4.77722e-06
9.29376e-05
1.07707e-05
9.23718e-05
1.81985e-05
8.9949e-05
2.59044e-05
8.56595e-05
3.36233e-05
7.97653e-05
4.06714e-05
7.26054e-05
4.66258e-05
6.44742e-05
5.12826e-05
5.56383e-05
5.45663e-05
4.64093e-05
5.63657e-05
3.70765e-05
5.67008e-05
2.79296e-05
5.55283e-05
1.94035e-05
5.28554e-05
1.18202e-05
4.87881e-05
5.50612e-06
4.36294e-05
6.64985e-07
3.7907e-05
-2.67608e-06
3.22937e-05
-4.77684e-06
2.76115e-05
-6.0789e-06
2.46511e-05
-7.35474e-06
2.42536e-05
-9.41411e-06
2.64255e-05
-1.26239e-05
3.01977e-05
-1.71709e-05
3.48639e-05
-2.30195e-05
3.94996e-05
-3.00052e-05
4.37786e-05
-3.78291e-05
4.706e-05
-4.60855e-05
4.89723e-05
-5.44128e-05
4.93798e-05
-6.2405e-05
4.82734e-05
-6.97648e-05
4.57743e-05
-7.62505e-05
4.20788e-05
-8.1692e-05
3.74177e-05
-8.58831e-05
3.19362e-05
-8.86912e-05
2.58759e-05
-8.99605e-05
1.95173e-05
-8.95954e-05
1.33654e-05
-8.7696e-05
7.69066e-06
-8.45945e-05
3.52396e-06
-8.07878e-05
1.25106e-06
-7.6854e-05
1.22463e-06
-7.34673e-05
3.52263e-06
-7.13171e-05
8.16012e-06
-7.09872e-05
1.48373e-05
-7.36069e-05
2.36461e-05
-7.89284e-05
3.20718e-05
-8.77044e-05
4.09474e-05
-9.94028e-05
4.83684e-05
-0.000114442
5.27624e-05
-0.000132227
5.35743e-05
-0.000150647
4.75077e-05
-0.000169229
3.50456e-05
-0.00018629
1.39587e-05
-0.00019811
-1.84921e-05
-0.000199985
-6.36527e-05
-0.000184446
-0.000125383
-0.000141807
-0.000204239
-7.75096e-05
-0.00026862
-2.14803e-05
-0.000255138
-0.000112873
1.61403e-05
-0.000116334
8.79046e-05
-0.000310953
0.00018041
-0.000347066
0.000233126
-0.000243534
0.000241691
-0.000123184
0.000227517
-4.22576e-05
0.000203479
9.50441e-06
0.000176613
4.15697e-05
0.000149943
5.96922e-05
0.000125574
6.78183e-05
0.00010418
6.81395e-05
8.74928e-05
6.18127e-05
7.47185e-05
5.20928e-05
6.72276e-05
3.89569e-05
6.43276e-05
2.62115e-05
6.50725e-05
1.35969e-05
6.87932e-05
3.52292e-06
7.45285e-05
-3.68458e-06
8.13001e-05
-7.61717e-06
8.82231e-05
-8.22689e-06
9.44351e-05
-5.5835e-06
9.91561e-05
5.68799e-08
0.000101786
8.14093e-06
0.000101922
1.80633e-05
9.95426e-05
2.82845e-05
9.47633e-05
3.84032e-05
8.7999e-05
4.74364e-05
7.97147e-05
5.49107e-05
7.03082e-05
6.06895e-05
6.01804e-05
6.46944e-05
4.95851e-05
6.6961e-05
3.88493e-05
6.74362e-05
2.82904e-05
6.60868e-05
1.84344e-05
6.27111e-05
9.7467e-06
5.74754e-05
2.71002e-06
5.06657e-05
-2.29969e-06
4.29164e-05
-5.23623e-06
3.52299e-05
-6.29435e-06
2.86694e-05
-6.0821e-06
2.44388e-05
-5.91582e-06
2.40874e-05
-7.12861e-06
2.76386e-05
-1.013e-05
3.31994e-05
-1.49202e-05
3.96545e-05
-2.14973e-05
4.60769e-05
-2.95917e-05
5.1873e-05
-3.87594e-05
5.62276e-05
-4.84558e-05
5.86684e-05
-5.81452e-05
5.90689e-05
-6.73806e-05
5.75087e-05
-7.57885e-05
5.41822e-05
-8.31714e-05
4.94618e-05
-8.92854e-05
4.35319e-05
-9.3937e-05
3.65878e-05
-9.68613e-05
2.88e-05
-9.77928e-05
2.04487e-05
-9.66022e-05
1.21751e-05
-9.32921e-05
4.38126e-06
-8.82496e-05
-1.51771e-06
-8.21364e-05
-4.86141e-06
-7.57341e-05
-5.17739e-06
-6.99586e-05
-2.25282e-06
-6.57216e-05
3.92371e-06
-6.39689e-05
1.30856e-05
-6.53509e-05
2.50292e-05
-7.10881e-05
3.78092e-05
-8.1366e-05
5.12249e-05
-9.60095e-05
6.30121e-05
-0.00011631
7.30644e-05
-0.000139043
7.63077e-05
-0.000165093
7.35569e-05
-0.000192706
6.26596e-05
-0.000219727
4.09796e-05
-0.000243555
5.33608e-06
-0.000256812
-5.03947e-05
-0.000246451
-0.000135743
-0.000190937
-0.000259754
-9.57763e-05
-0.000363779
-1.947e-05
-0.000331446
-0.000132342
2.3683e-05
-0.000140017
0.000145909
-0.000433179
0.000288921
-0.000490079
0.000339886
-0.000294499
0.000319845
-0.000103143
0.00028115
-3.562e-06
0.000238775
5.18788e-05
0.000197551
8.2793e-05
0.000159967
9.72762e-05
0.000127203
0.000100583
0.00010003
9.53134e-05
7.86504e-05
8.31929e-05
6.24344e-05
6.83086e-05
5.42906e-05
4.71002e-05
5.23172e-05
2.81865e-05
5.5239e-05
1.06787e-05
6.20032e-05
-3.23831e-06
7.12806e-05
-1.29633e-05
8.17519e-05
-1.80885e-05
9.22533e-05
-1.87277e-05
0.000101678
-1.5008e-05
0.000109033
-7.29776e-06
0.000113509
3.66542e-06
0.000114503
1.70693e-05
0.00011202
3.0768e-05
0.000106447
4.39769e-05
9.84613e-05
5.54222e-05
8.87456e-05
6.46268e-05
7.78486e-05
7.15869e-05
6.61497e-05
7.63934e-05
5.39069e-05
7.92037e-05
4.14784e-05
7.98646e-05
2.92176e-05
7.83474e-05
1.75808e-05
7.43476e-05
7.31381e-06
6.77417e-05
-8.77545e-07
5.88567e-05
-6.34016e-06
4.83786e-05
-8.87402e-06
3.77633e-05
-8.42216e-06
2.8217e-05
-5.78317e-06
2.17993e-05
-3.38779e-06
2.16917e-05
-3.48912e-06
2.77397e-05
-6.45578e-06
3.61662e-05
-1.18755e-05
4.50744e-05
-1.96242e-05
5.38257e-05
-2.92996e-05
6.15484e-05
-4.02882e-05
6.7216e-05
-5.18773e-05
7.0257e-05
-6.33373e-05
7.05284e-05
-7.40997e-05
6.82707e-05
-8.37615e-05
6.38439e-05
-9.21138e-05
5.78141e-05
-9.90417e-05
5.04599e-05
-0.000104375
4.19207e-05
-0.000107641
3.20663e-05
-0.00010832
2.11276e-05
-0.000106075
9.93056e-06
-0.000100835
-8.57733e-07
-9.31204e-05
-9.23133e-06
-8.37549e-05
-1.42266e-05
-7.38049e-05
-1.51274e-05
-6.44913e-05
-1.15664e-05
-5.69963e-05
-3.5709e-06
-5.26041e-05
8.69406e-06
-5.2334e-05
2.47592e-05
-5.78606e-05
4.33353e-05
-6.95412e-05
6.2905e-05
-8.77863e-05
8.12578e-05
-0.000112207
9.7486e-05
-0.000142928
0.000107029
-0.000177766
0.000108394
-0.00021689
0.000101785
-0.000258926
8.30161e-05
-0.000301303
4.77125e-05
-0.000339045
-1.26519e-05
-0.000357151
-0.000117638
-0.000304752
-0.000312153
-0.000159842
-0.000508688
-3.05098e-05
-0.00046078
-0.000162852
0.000103763
-0.000243779
0.000331215
-0.000660631
0.000517244
-0.000676108
0.000532554
-0.000309809
0.000441192
-1.17819e-05
0.000349809
8.78212e-05
0.000276037
0.00012565
0.000216122
0.000142708
0.00016515
0.000148249
0.000123199
0.000142534
8.84462e-05
0.000130066
6.19816e-05
0.000109656
4.39676e-05
8.63225e-05
3.53402e-05
5.57283e-05
3.49382e-05
2.8589e-05
4.10492e-05
4.56594e-06
5.20198e-05
-1.42109e-05
6.60818e-05
-2.70264e-05
8.15386e-05
-3.3546e-05
9.69067e-05
-3.40965e-05
0.000110723
-2.88246e-05
0.000121673
-1.82469e-05
0.000128587
-3.24835e-06
0.000130651
1.50071e-05
0.000127836
3.35843e-05
0.000120943
5.08712e-05
0.00011117
6.51956e-05
9.95541e-05
7.62433e-05
8.68246e-05
8.43165e-05
7.34003e-05
8.98176e-05
5.95404e-05
9.30632e-05
4.53113e-05
9.40933e-05
3.10261e-05
9.26323e-05
1.71093e-05
8.8264e-05
4.56651e-06
8.02842e-05
-5.33e-06
6.87528e-05
-1.18315e-05
5.48796e-05
-1.38719e-05
3.98029e-05
-1.12226e-05
2.55671e-05
-5.08228e-06
1.56585e-05
5.78261e-07
1.60309e-05
1.99366e-06
2.63244e-05
-1.04273e-06
3.92028e-05
-7.79205e-06
5.1824e-05
-1.74773e-05
6.3511e-05
-2.94557e-05
7.35267e-05
-4.28547e-05
8.06146e-05
-5.67381e-05
8.41398e-05
-7.01604e-05
8.39502e-05
-8.25762e-05
8.06862e-05
-9.3646e-05
7.49137e-05
-0.000103102
6.72697e-05
-0.000111012
5.83704e-05
-0.000117258
4.81669e-05
-0.000121265
3.60731e-05
-0.000121996
2.18592e-05
-0.000118561
6.49577e-06
-0.000110783
-8.6346e-06
-9.93342e-05
-2.06799e-05
-8.54701e-05
-2.80908e-05
-7.06282e-05
-2.99698e-05
-5.63574e-05
-2.58372e-05
-4.42713e-05
-1.56564e-05
-3.60589e-05
4.82449e-07
-3.33106e-05
2.20112e-05
-3.80477e-05
4.80723e-05
-5.08645e-05
7.5722e-05
-7.3252e-05
0.000103646
-0.000103333
0.000127568
-0.000140812
0.000144508
-0.000186836
0.000154418
-0.000238973
0.000153924
-0.000300197
0.00014424
-0.000373336
0.000120852
-0.000463914
7.79261e-05
-0.000554719
-2.68317e-05
-0.000540994
-0.000325879
-0.000355509
-0.000694173
-0.000116518
-0.00069977
-0.000279371
0.000306688
-0.000550468
0.000665583
-0.00101953
0.000803342
-0.000813868
0.000742698
-0.000249153
0.000568255
0.00016266
0.000414275
0.000241798
0.000306758
0.000233169
0.000227948
0.000221519
0.000167108
0.000209089
0.000120528
0.000189113
8.27008e-05
0.000167892
5.3369e-05
0.000138989
3.40281e-05
0.000105665
2.4902e-05
6.48523e-05
2.67226e-05
2.67665e-05
3.62678e-05
-4.97783e-06
5.10755e-05
-2.90189e-05
6.91374e-05
-4.50889e-05
8.88713e-05
-5.328e-05
0.000108732
-5.39566e-05
0.00012709
-4.71815e-05
0.000142
-3.31554e-05
0.000151408
-1.26553e-05
0.000153868
1.25487e-05
0.000149637
3.78166e-05
0.00014026
6.02493e-05
0.000127841
7.76148e-05
0.000113898
9.01857e-05
9.92065e-05
9.9008e-05
8.38706e-05
0.000105153
6.79971e-05
0.000108937
5.15187e-05
0.000110572
3.43769e-05
0.000109774
1.73821e-05
0.000105259
1.69444e-06
9.59715e-05
-1.07198e-05
8.11668e-05
-1.80511e-05
6.22105e-05
-1.92961e-05
4.10475e-05
-1.41228e-05
2.03933e-05
-4.41455e-06
5.94994e-06
4.39516e-06
7.22106e-06
7.67025e-06
2.30494e-05
4.81134e-06
4.20619e-05
-3.12812e-06
5.97636e-05
-1.51914e-05
7.55744e-05
-3.03082e-05
8.86432e-05
-4.72354e-05
9.75413e-05
-6.45757e-05
0.00010148
-8.12367e-05
0.000100611
-9.60359e-05
9.54853e-05
-0.000108422
8.72995e-05
-0.00011861
7.74586e-05
-0.000127266
6.70261e-05
-0.000134677
5.55786e-05
-0.000140142
4.15373e-05
-0.000141876
2.35942e-05
-0.000138064
2.68462e-06
-0.000127782
-1.89163e-05
-0.000112075
-3.63868e-05
-9.30683e-05
-4.70982e-05
-7.3016e-05
-5.00223e-05
-5.40417e-05
-4.4811e-05
-3.80104e-05
-3.16866e-05
-2.65774e-05
-1.09498e-05
-2.13929e-05
1.68266e-05
-2.51002e-05
5.17795e-05
-3.87884e-05
8.94112e-05
-6.41886e-05
0.000129048
-9.95367e-05
0.000162916
-0.000142517
0.000187488
-0.000192809
0.00020471
-0.000256185
0.0002173
-0.000335706
0.00022376
-0.000444203
0.000229349
-0.000598331
0.000232053
-0.000770433
0.000145343
-0.000831913
-0.000264013
-0.000692212
-0.000833787
-0.000322267
-0.00106971
-0.00060164
0.000550762
-0.00110123
0.000903012
-0.00137178
0.000905366
-0.000816265
0.000752274
-9.58918e-05
0.000568178
0.00034687
0.000418585
0.000391394
0.00031521
0.000336545
0.00023987
0.00029686
0.000184243
0.000264716
0.000139524
0.000233833
0.000102856
0.000204562
7.20985e-05
0.000169746
5.27799e-05
0.000124982
4.68679e-05
7.07639e-05
5.48088e-05
1.88265e-05
6.9637e-05
-1.98056e-05
8.80731e-05
-4.74549e-05
0.000108096
-6.51118e-05
0.000128891
-7.4074e-05
0.000150024
-7.5088e-05
0.000170208
-6.73645e-05
0.000186992
-4.99381e-05
0.000197152
-2.28139e-05
0.000197838
1.18638e-05
0.000189123
4.65324e-05
0.000174042
7.53301e-05
0.000156585
9.50722e-05
0.000139034
0.000107736
0.000121658
0.000116383
0.000103637
0.000123173
8.4307e-05
0.000128267
6.36191e-05
0.000131259
4.20038e-05
0.000131389
2.07892e-05
0.000126473
2.46826e-06
0.000114292
-1.05767e-05
9.42116e-05
-1.72964e-05
6.89298e-05
-1.80212e-05
4.17717e-05
-1.3276e-05
1.56474e-05
-4.92334e-06
-2.4034e-06
2.66098e-06
-3.63723e-07
5.47098e-06
2.02391e-05
2.63882e-06
4.4894e-05
-5.31008e-06
6.77125e-05
-1.79973e-05
8.82614e-05
-3.52411e-05
0.000105887
-5.62481e-05
0.000118548
-7.93593e-05
0.00012459
-0.000101912
0.000123163
-0.000121366
0.00011494
-0.000136199
0.000102133
-0.000147062
8.83222e-05
-0.000156359
7.63234e-05
-0.000166057
6.52763e-05
-0.000175508
5.0989e-05
-0.000181284
2.93704e-05
-0.000179548
9.48857e-07
-0.000168324
-3.01403e-05
-0.000149679
-5.50329e-05
-0.000127367
-6.941e-05
-0.000104771
-7.26179e-05
-8.42391e-05
-6.53419e-05
-6.70056e-05
-4.89192e-05
-5.3581e-05
-2.43742e-05
-4.51367e-05
8.38205e-06
-4.50554e-05
5.16987e-05
-5.66952e-05
0.000101052
-8.32994e-05
0.000155652
-0.000121759
0.000201375
-0.000166284
0.000232014