/*--------------------------------*- C++ -*----------------------------------*\
| =========                 |                                                 |
| \\      /  F ield         | OpenFOAM: The Open Source CFD Toolbox           |
|  \\    /   O peration     | Version:  2412                                  |
|   \\  /    A nd           | Website:  www.openfoam.com                      |
|    \\/     M anipulation  |                                                 |
\*---------------------------------------------------------------------------*/
FoamFile
{
    version     2.0;
    format      ascii;
    arch        "LSB;label=32;scalar=64";
    class       volVectorField;
    location    "9.5";
    object      U;
}
// * * * * * * * * * * * * * * * * * * * * * * * * * * * * * * * * * * * * * //

dimensions      [0 1 -1 0 0 0 0];

internalField   nonuniform List<vector> 
6400
(
(0.00101143 -0.00101682 0)
(0.00248475 -0.000916374 0)
(0.00397954 -0.000893523 0)
(0.00566094 -0.000857483 0)
(0.00736853 -0.000789241 0)
(0.00890991 -0.000671258 0)
(0.0101441 -0.000518201 0)
(0.0109438 -0.000351062 0)
(0.0112613 -0.000170355 0)
(0.0111342 6.62258e-06 0)
(0.010608 0.000166869 0)
(0.00973875 0.00030822 0)
(0.00859917 0.000426824 0)
(0.00726294 0.000520078 0)
(0.00579326 0.000590937 0)
(0.00425207 0.000638476 0)
(0.00269082 0.000666813 0)
(0.00114889 0.000674141 0)
(-0.000334241 0.000663698 0)
(-0.00171868 0.000637521 0)
(-0.00297824 0.000595042 0)
(-0.00408944 0.000542307 0)
(-0.00503353 0.000478703 0)
(-0.00580424 0.000407423 0)
(-0.00639559 0.000334022 0)
(-0.00680691 0.000259602 0)
(-0.00704106 0.000186296 0)
(-0.00711302 0.000110171 0)
(-0.00703833 4.25961e-05 0)
(-0.00682681 -1.89308e-05 0)
(-0.00649586 -7.31127e-05 0)
(-0.00605894 -0.000119345 0)
(-0.00553221 -0.000159015 0)
(-0.00493112 -0.000191555 0)
(-0.00426762 -0.000218838 0)
(-0.00355268 -0.000241002 0)
(-0.00279533 -0.0002582 0)
(-0.00200459 -0.000271266 0)
(-0.00118877 -0.000280305 0)
(-0.000355963 -0.000286312 0)
(0.000486687 -0.000289091 0)
(0.00133101 -0.000287965 0)
(0.00216722 -0.000281892 0)
(0.00298615 -0.000271677 0)
(0.00377963 -0.00025733 0)
(0.00453727 -0.000237961 0)
(0.00524673 -0.000211586 0)
(0.00589456 -0.000177375 0)
(0.0064649 -0.000135043 0)
(0.00693807 -8.53852e-05 0)
(0.00729639 -2.63284e-05 0)
(0.0075239 4.09804e-05 0)
(0.00760157 0.00011541 0)
(0.00751793 0.000196534 0)
(0.0072588 0.000276644 0)
(0.00681017 0.000359623 0)
(0.00616904 0.000440995 0)
(0.00533321 0.000515501 0)
(0.00430678 0.000583236 0)
(0.00310793 0.000641827 0)
(0.00175536 0.000685699 0)
(0.000273194 0.000713994 0)
(-0.00130705 0.000723426 0)
(-0.0029502 0.000714146 0)
(-0.00461232 0.000684349 0)
(-0.00624529 0.000632076 0)
(-0.00779666 0.000556376 0)
(-0.00919862 0.000454117 0)
(-0.0103813 0.000328452 0)
(-0.0112816 0.000180335 0)
(-0.0118204 1.52776e-05 0)
(-0.0119394 -0.000181682 0)
(-0.0115753 -0.000360172 0)
(-0.0107077 -0.000539813 0)
(-0.009398 -0.000696796 0)
(-0.00775688 -0.000820059 0)
(-0.00595554 -0.000896033 0)
(-0.00418172 -0.000923364 0)
(-0.00259035 -0.000944925 0)
(-0.00103708 -0.00104213 0)
(0.000914521 -0.00249232 0)
(0.00192667 -0.00201848 0)
(0.00340602 -0.00232074 0)
(0.00539016 -0.00255494 0)
(0.00760913 -0.00250148 0)
(0.00970457 -0.00213028 0)
(0.0113666 -0.00151186 0)
(0.0123877 -0.000765019 0)
(0.0126873 1.09484e-05 0)
(0.0122999 0.000723939 0)
(0.0113216 0.0013302 0)
(0.00988072 0.00181006 0)
(0.00810245 0.00216202 0)
(0.00610613 0.00239583 0)
(0.00399561 0.00252545 0)
(0.00185455 0.00256197 0)
(-0.000245892 0.0025252 0)
(-0.00225059 0.00242157 0)
(-0.00411417 0.00226105 0)
(-0.00579871 0.00205376 0)
(-0.00727544 0.00180806 0)
(-0.00852635 0.00153675 0)
(-0.0095417 0.00124687 0)
(-0.0103154 0.000948872 0)
(-0.0108484 0.000654218 0)
(-0.0111514 0.000367462 0)
(-0.0112433 9.50185e-05 0)
(-0.0111364 -0.000160401 0)
(-0.0108466 -0.000388441 0)
(-0.0103987 -0.000591775 0)
(-0.009813 -0.000768681 0)
(-0.00910499 -0.000918851 0)
(-0.0082934 -0.00104566 0)
(-0.00739778 -0.00114946 0)
(-0.00643045 -0.0012361 0)
(-0.00540108 -0.00130877 0)
(-0.00431941 -0.00136718 0)
(-0.00319473 -0.00141264 0)
(-0.0020361 -0.00144516 0)
(-0.000854763 -0.00146652 0)
(0.000337588 -0.00147559 0)
(0.00153042 -0.00147173 0)
(0.00271311 -0.00145242 0)
(0.00387382 -0.0014199 0)
(0.00500167 -0.00137373 0)
(0.00608535 -0.00131133 0)
(0.0071123 -0.00122851 0)
(0.00806821 -0.00112166 0)
(0.00893533 -0.000986718 0)
(0.00969209 -0.000824405 0)
(0.0103189 -0.000631556 0)
(0.0107965 -0.000409259 0)
(0.0110995 -0.000159817 0)
(0.0112049 0.000115865 0)
(0.0110989 0.000409762 0)
(0.010763 0.000720145 0)
(0.0101789 0.00104004 0)
(0.00934136 0.0013581 0)
(0.00825046 0.00166423 0)
(0.00691313 0.00194984 0)
(0.00534247 0.00220122 0)
(0.00355859 0.00241389 0)
(0.00159207 0.00257836 0)
(-0.000519668 0.00268307 0)
(-0.00272723 0.00271542 0)
(-0.00496676 0.00266313 0)
(-0.00716306 0.00251272 0)
(-0.00922149 0.00224584 0)
(-0.0110387 0.00186544 0)
(-0.0125009 0.00135454 0)
(-0.0134824 0.000713788 0)
(-0.0138194 -4.70161e-05 0)
(-0.0134172 -0.000856682 0)
(-0.0122778 -0.00164392 0)
(-0.0104739 -0.00228266 0)
(-0.00822075 -0.00267136 0)
(-0.0058358 -0.00273435 0)
(-0.00369358 -0.00248298 0)
(-0.00208096 -0.00216725 0)
(-0.000951943 -0.00259105 0)
(0.000977739 -0.00398946 0)
(0.00232023 -0.00347986 0)
(0.00444538 -0.00441809 0)
(0.00723767 -0.00512004 0)
(0.0103497 -0.00514516 0)
(0.0133051 -0.00446302 0)
(0.0156965 -0.00322522 0)
(0.0172538 -0.00168818 0)
(0.0178756 -9.5015e-05 0)
(0.0176169 0.00134834 0)
(0.016605 0.00256571 0)
(0.0150045 0.0035108 0)
(0.0129874 0.00418252 0)
(0.0106972 0.00461775 0)
(0.00826082 0.00484162 0)
(0.00578403 0.00488484 0)
(0.00334651 0.00478265 0)
(0.00101195 0.00455795 0)
(-0.00116922 0.00423005 0)
(-0.00315564 0.00381917 0)
(-0.00491569 0.00334566 0)
(-0.00642999 0.00282737 0)
(-0.00768741 0.002284 0)
(-0.00868284 0.00173357 0)
(-0.00942061 0.00119223 0)
(-0.00991247 0.00067088 0)
(-0.0101735 0.000178824 0)
(-0.010221 -0.00026878 0)
(-0.0100759 -0.000671445 0)
(-0.00975997 -0.00103091 0)
(-0.00929363 -0.00134464 0)
(-0.0086938 -0.00161429 0)
(-0.00798035 -0.00184143 0)
(-0.00717508 -0.00202844 0)
(-0.00629143 -0.00218672 0)
(-0.00533646 -0.0023219 0)
(-0.00431905 -0.00243438 0)
(-0.00325014 -0.00252346 0)
(-0.00214055 -0.00258716 0)
(-0.00100396 -0.00262746 0)
(0.000144387 -0.00264219 0)
(0.00129229 -0.00263092 0)
(0.00242707 -0.00259306 0)
(0.00353476 -0.00252975 0)
(0.00460258 -0.00244049 0)
(0.00561781 -0.00232135 0)
(0.00656753 -0.0021692 0)
(0.00743768 -0.00197644 0)
(0.00820937 -0.0017353 0)
(0.00886081 -0.00144592 0)
(0.00937277 -0.00110561 0)
(0.00972379 -0.000715519 0)
(0.00988802 -0.000277838 0)
(0.00984342 0.000206966 0)
(0.00957052 0.000735578 0)
(0.00904943 0.00129649 0)
(0.00826437 0.00187898 0)
(0.00720496 0.0024668 0)
(0.00587134 0.0030383 0)
(0.00427029 0.00357543 0)
(0.0024171 0.00406031 0)
(0.000335541 0.00447951 0)
(-0.00194474 0.0048176 0)
(-0.00438279 0.00504522 0)
(-0.00692261 0.00513731 0)
(-0.0094943 0.00506724 0)
(-0.0120172 0.0048033 0)
(-0.0143685 0.00432085 0)
(-0.016423 0.00359098 0)
(-0.0180396 0.00258576 0)
(-0.0190334 0.00129802 0)
(-0.0192269 -0.000226656 0)
(-0.0184886 -0.0018991 0)
(-0.0167787 -0.00350562 0)
(-0.0142091 -0.00479153 0)
(-0.0110585 -0.00549822 0)
(-0.00774031 -0.00547315 0)
(-0.0047663 -0.00474541 0)
(-0.00249063 -0.00376471 0)
(-0.00101546 -0.00417575 0)
(0.00106473 -0.00580341 0)
(0.00282777 -0.00551225 0)
(0.0056653 -0.00726312 0)
(0.00933542 -0.00853357 0)
(0.0133757 -0.00863448 0)
(0.0171579 -0.0075318 0)
(0.0201585 -0.00549795 0)
(0.0220898 -0.00297224 0)
(0.0228633 -0.000378263 0)
(0.0225896 0.00196667 0)
(0.0214579 0.00391815 0)
(0.0196536 0.00541582 0)
(0.0173932 0.00646901 0)
(0.0148424 0.00713498 0)
(0.0121319 0.00746419 0)
(0.00937897 0.00751656 0)
(0.00666921 0.00734293 0)
(0.00407153 0.00698534 0)
(0.00164031 0.00647627 0)
(-0.00058241 0.00584491 0)
(-0.00256325 0.00512473 0)
(-0.00428005 0.00434242 0)
(-0.0057223 0.00352784 0)
(-0.00688685 0.00270621 0)
(-0.00777894 0.00190142 0)
(-0.00841224 0.0011326 0)
(-0.00880179 0.000412107 0)
(-0.00896908 -0.00024693 0)
(-0.00893958 -0.000836772 0)
(-0.00873504 -0.0013614 0)
(-0.0083783 -0.00181873 0)
(-0.00788893 -0.00221333 0)
(-0.0072872 -0.00254495 0)
(-0.00659321 -0.00281887 0)
(-0.00581957 -0.00305408 0)
(-0.00497399 -0.00325692 0)
(-0.00406544 -0.00342799 0)
(-0.00310469 -0.00356524 0)
(-0.0021019 -0.0036641 0)
(-0.00106966 -0.00372552 0)
(-2.3647e-05 -0.00374697 0)
(0.00102175 -0.00372668 0)
(0.00205378 -0.00366822 0)
(0.00305882 -0.00357115 0)
(0.0040239 -0.00343515 0)
(0.00493672 -0.00325603 0)
(0.0057831 -0.00303001 0)
(0.00655002 -0.00274646 0)
(0.00721819 -0.00239464 0)
(0.00776543 -0.00197206 0)
(0.00817232 -0.001477 0)
(0.00841546 -0.000909955 0)
(0.00846929 -0.000270352 0)
(0.00830969 0.00044103 0)
(0.00791277 0.00121603 0)
(0.00725457 0.00204363 0)
(0.00631721 0.0029074 0)
(0.00508944 0.00378112 0)
(0.0035692 0.00463604 0)
(0.00176373 0.00544459 0)
(-0.000310808 0.00618086 0)
(-0.00262912 0.00682392 0)
(-0.00516039 0.00734624 0)
(-0.00786136 0.0077079 0)
(-0.0106722 0.00786666 0)
(-0.0135244 0.00777923 0)
(-0.0163251 0.00739073 0)
(-0.0189495 0.0066595 0)
(-0.0212574 0.00552434 0)
(-0.0230712 0.00393608 0)
(-0.0241889 0.0018742 0)
(-0.0243958 -0.000604754 0)
(-0.0234969 -0.0033249 0)
(-0.0214017 -0.00596129 0)
(-0.0181882 -0.00807486 0)
(-0.0141706 -0.00921058 0)
(-0.00988622 -0.00909584 0)
(-0.00600531 -0.0077749 0)
(-0.00300687 -0.00594082 0)
(-0.00110443 -0.00608956 0)
(0.00116783 -0.00790671 0)
(0.00342256 -0.00811269 0)
(0.00716122 -0.0109395 0)
(0.0119799 -0.0129068 0)
(0.0171673 -0.013019 0)
(0.0218128 -0.0112734 0)
(0.0252628 -0.00815857 0)
(0.0272475 -0.00437976 0)
(0.0278032 -0.000590009 0)
(0.0271721 0.00278557 0)
(0.0256298 0.00553433 0)
(0.0234202 0.00760604 0)
(0.0207837 0.00904343 0)
(0.0178916 0.00993198 0)
(0.0148744 0.0103569 0)
(0.0118417 0.0104056 0)
(0.00887691 0.010147 0)
(0.00604916 0.00963968 0)
(0.00341134 0.00893071 0)
(0.00100836 0.00806099 0)
(-0.00112742 0.00707496 0)
(-0.00297713 0.00601002 0)
(-0.00452984 0.00490614 0)
(-0.00578433 0.00379769 0)
(-0.00674851 0.00271591 0)
(-0.00743943 0.00168725 0)
(-0.00787825 0.000729946 0)
(-0.00808868 -0.000144473 0)
(-0.00809957 -0.000924062 0)
(-0.00793799 -0.00161113 0)
(-0.00762996 -0.00220848 0)
(-0.00720076 -0.00272074 0)
(-0.00667052 -0.00315186 0)
(-0.0060539 -0.00351058 0)
(-0.00536233 -0.0038185 0)
(-0.00460692 -0.00408596 0)
(-0.00379686 -0.00431187 0)
(-0.0029391 -0.00449451 0)
(-0.00204065 -0.0046292 0)
(-0.00111175 -0.00471284 0)
(-0.000166184 -0.00474267 0)
(0.000779114 -0.00471579 0)
(0.00171279 -0.00463701 0)
(0.00262541 -0.0045098 0)
(0.00350371 -0.00433037 0)
(0.00433591 -0.00409564 0)
(0.00510899 -0.00380059 0)
(0.0058102 -0.00343025 0)
(0.00642091 -0.00297328 0)
(0.00691943 -0.00242191 0)
(0.00728442 -0.00177448 0)
(0.00749032 -0.00103043 0)
(0.00750967 -0.000187136 0)
(0.00731203 0.000755339 0)
(0.00686975 0.00178693 0)
(0.00615713 0.00289257 0)
(0.00515021 0.00405277 0)
(0.00383422 0.00523213 0)
(0.00220342 0.00638934 0)
(0.0002624 0.00748928 0)
(-0.00197251 0.00849507 0)
(-0.00447875 0.00938154 0)
(-0.00722501 0.0101041 0)
(-0.0101644 0.0106168 0)
(-0.0132364 0.0108602 0)
(-0.0163769 0.0107716 0)
(-0.0194975 0.0102754 0)
(-0.022476 0.00929777 0)
(-0.0251775 0.00775148 0)
(-0.0274163 0.00555629 0)
(-0.0289635 0.00264861 0)
(-0.0295492 -0.000911074 0)
(-0.0288785 -0.00488149 0)
(-0.0267204 -0.00883183 0)
(-0.0230319 -0.0120679 0)
(-0.0181055 -0.0138543 0)
(-0.0126228 -0.0137123 0)
(-0.00754178 -0.011661 0)
(-0.00360547 -0.00872335 0)
(-0.00120489 -0.00831309 0)
(0.0013182 -0.0104104 0)
(0.00435659 -0.0115582 0)
(0.00957009 -0.0158619 0)
(0.0162036 -0.0186428 0)
(0.0230021 -0.0185203 0)
(0.0286082 -0.0156407 0)
(0.0322346 -0.0109163 0)
(0.0337699 -0.00549183 0)
(0.0335374 -0.000284218 0)
(0.0320247 0.00419121 0)
(0.029653 0.00771906 0)
(0.0267328 0.0103048 0)
(0.0235091 0.012053 0)
(0.0201357 0.0131024 0)
(0.0167201 0.0135754 0)
(0.0133494 0.013579 0)
(0.0100968 0.013199 0)
(0.00702484 0.0125084 0)
(0.00418403 0.0115655 0)
(0.00161642 0.0104282 0)
(-0.000648642 0.00914727 0)
(-0.00259295 0.00777211 0)
(-0.00420716 0.0063531 0)
(-0.00549362 0.00493503 0)
(-0.00646474 0.00355893 0)
(-0.00714302 0.00225479 0)
(-0.00755771 0.0010505 0)
(-0.00773733 -3.96086e-05 0)
(-0.00771555 -0.00100724 0)
(-0.00752835 -0.00184969 0)
(-0.00720598 -0.00257455 0)
(-0.00677617 -0.00319108 0)
(-0.00626194 -0.00370937 0)
(-0.00567677 -0.00414235 0)
(-0.00503068 -0.00451188 0)
(-0.00433506 -0.00483197 0)
(-0.0035963 -0.00510424 0)
(-0.00281573 -0.00532699 0)
(-0.00199699 -0.00549608 0)
(-0.0011478 -0.00560342 0)
(-0.000278848 -0.00564472 0)
(0.000592466 -0.00561544 0)
(0.00145307 -0.00552208 0)
(0.00230031 -0.00536763 0)
(0.00312454 -0.00515494 0)
(0.00391114 -0.0048731 0)
(0.00465344 -0.00452263 0)
(0.00533936 -0.00407677 0)
(0.00594951 -0.00352681 0)
(0.00646399 -0.00285986 0)
(0.00685592 -0.00206938 0)
(0.00709631 -0.00115399 0)
(0.00715523 -0.000108904 0)
(0.00699618 0.00106755 0)
(0.00658272 0.00236704 0)
(0.00588302 0.00376675 0)
(0.00486884 0.00524225 0)
(0.00351989 0.00674988 0)
(0.00182519 0.0082384 0)
(-0.000215225 0.00966142 0)
(-0.00258853 0.0109732 0)
(-0.00527672 0.0121334 0)
(-0.00824468 0.0130919 0)
(-0.0114413 0.0137874 0)
(-0.0148154 0.014151 0)
(-0.0183069 0.0141034 0)
(-0.0218403 0.0135556 0)
(-0.0253294 0.0123999 0)
(-0.0286508 0.0105103 0)
(-0.0316382 0.0077671 0)
(-0.0340629 0.00404125 0)
(-0.0355652 -0.000667777 0)
(-0.0357248 -0.00613642 0)
(-0.0340413 -0.0117988 0)
(-0.0301392 -0.0167086 0)
(-0.0241857 -0.0196646 0)
(-0.0170165 -0.0197464 0)
(-0.010044 -0.0168339 0)
(-0.00456908 -0.0123702 0)
(-0.0013548 -0.0109276 0)
(0.0015473 -0.0135958 0)
(0.00598871 -0.0165012 0)
(0.013692 -0.0228457 0)
(0.0231094 -0.0264513 0)
(0.032063 -0.0254594 0)
(0.0386469 -0.0205009 0)
(0.0420222 -0.0132902 0)
(0.0424024 -0.00563221 0)
(0.040618 0.00120555 0)
(0.0375533 0.00673512 0)
(0.033843 0.0108841 0)
(0.029865 0.0138057 0)
(0.0258222 0.0157054 0)
(0.0218076 0.0167884 0)
(0.0178843 0.0172149 0)
(0.0141028 0.0171071 0)
(0.0105086 0.0165481 0)
(0.00714871 0.0156217 0)
(0.00407462 0.0143962 0)
(0.00132822 0.012945 0)
(-0.00106539 0.0113246 0)
(-0.00308747 0.00959687 0)
(-0.00473236 0.00782458 0)
(-0.00600747 0.00606387 0)
(-0.00693477 0.00436634 0)
(-0.00754189 0.00276915 0)
(-0.00786414 0.00130624 0)
(-0.00794405 -4.97423e-06 0)
(-0.00782112 -0.00115673 0)
(-0.00753795 -0.00214651 0)
(-0.00713471 -0.00298347 0)
(-0.00664384 -0.00368543 0)
(-0.00609055 -0.00427015 0)
(-0.00549077 -0.00475709 0)
(-0.00485329 -0.00517072 0)
(-0.00418433 -0.00552896 0)
(-0.00348529 -0.0058377 0)
(-0.00275279 -0.00609572 0)
(-0.00198557 -0.00629743 0)
(-0.00118731 -0.00643024 0)
(-0.000366389 -0.00648648 0)
(0.000458959 -0.00646004 0)
(0.00128093 -0.00635764 0)
(0.00209362 -0.00618432 0)
(0.00289417 -0.00594907 0)
(0.00367246 -0.00563543 0)
(0.00442698 -0.00524405 0)
(0.00515024 -0.00474338 0)
(0.00581669 -0.00411998 0)
(0.00641199 -0.00335533 0)
(0.00690176 -0.00243366 0)
(0.00724983 -0.00135569 0)
(0.00742123 -0.000109798 0)
(0.00737154 0.00130928 0)
(0.00705292 0.00289286 0)
(0.00642602 0.0046115 0)
(0.00545441 0.00642691 0)
(0.00410901 0.00829588 0)
(0.00237455 0.0101575 0)
(0.000243979 0.0119505 0)
(-0.00227451 0.0136166 0)
(-0.00515786 0.0150986 0)
(-0.00837441 0.0163387 0)
(-0.0118816 0.0172653 0)
(-0.0156281 0.0178074 0)
(-0.0195576 0.017875 0)
(-0.023619 0.0173741 0)
(-0.027776 0.0161708 0)
(-0.0319588 0.014114 0)
(-0.0360631 0.0110117 0)
(-0.0398912 0.00663854 0)
(-0.0430277 0.000828856 0)
(-0.0447904 -0.00637114 0)
(-0.0442656 -0.0143828 0)
(-0.0405891 -0.0218852 0)
(-0.0335756 -0.027002 0)
(-0.0241459 -0.0279508 0)
(-0.0142914 -0.0241493 0)
(-0.00623532 -0.0175348 0)
(-0.0015735 -0.0142383 0)
(0.00188347 -0.0179012 0)
(0.00863712 -0.0239057 0)
(0.0199826 -0.0329957 0)
(0.0328998 -0.0370645 0)
(0.0441476 -0.0340249 0)
(0.0514586 -0.0255434 0)
(0.0541413 -0.0146209 0)
(0.0527817 -0.00401193 0)
(0.0487833 0.0046426 0)
(0.0435984 0.0110311 0)
(0.0381361 0.0154591 0)
(0.0328279 0.0183939 0)
(0.0277959 0.0201888 0)
(0.023032 0.0211181 0)
(0.0185217 0.0213677 0)
(0.0142619 0.0210521 0)
(0.0102629 0.0202402 0)
(0.00656396 0.0190158 0)
(0.0032218 0.0174563 0)
(0.000274953 0.015628 0)
(-0.00225656 0.0136073 0)
(-0.00434978 0.0114702 0)
(-0.00600451 0.00929119 0)
(-0.0072354 0.00714298 0)
(-0.00807149 0.00508543 0)
(-0.00854984 0.00316919 0)
(-0.00871739 0.00143228 0)
(-0.00862899 -0.000110202 0)
(-0.00833484 -0.00144145 0)
(-0.0078884 -0.00256721 0)
(-0.0073403 -0.00349807 0)
(-0.00673084 -0.00426083 0)
(-0.00608966 -0.0048837 0)
(-0.00543489 -0.00539662 0)
(-0.00477488 -0.00582988 0)
(-0.00410869 -0.00620797 0)
(-0.00342949 -0.00654048 0)
(-0.00272816 -0.00682687 0)
(-0.00199681 -0.00705907 0)
(-0.00123371 -0.00721914 0)
(-0.000445521 -0.00729346 0)
(0.000352134 -0.00727424 0)
(0.00115273 -0.00716958 0)
(0.00194917 -0.00699168 0)
(0.00275105 -0.00674572 0)
(0.00355357 -0.00642575 0)
(0.0043577 -0.00601313 0)
(0.00516143 -0.0054866 0)
(0.00593741 -0.004816 0)
(0.00667617 -0.00397183 0)
(0.00733317 -0.0029359 0)
(0.00786231 -0.00170508 0)
(0.00821905 -0.000257218 0)
(0.00834678 0.00142036 0)
(0.00818795 0.00330315 0)
(0.0076835 0.00536931 0)
(0.00679395 0.00756777 0)
(0.00548482 0.00984811 0)
(0.0037255 0.0121384 0)
(0.00150393 0.0143608 0)
(-0.00117364 0.0164401 0)
(-0.0042837 0.0183089 0)
(-0.00779272 0.019891 0)
(-0.0116557 0.021117 0)
(-0.0158293 0.0219088 0)
(-0.020268 0.0221887 0)
(-0.0249476 0.0218633 0)
(-0.0298858 0.0208076 0)
(-0.0351018 0.018863 0)
(-0.0405997 0.0157461 0)
(-0.0462469 0.0110693 0)
(-0.0515743 0.00432945 0)
(-0.0555935 -0.00481974 0)
(-0.0567795 -0.0159659 0)
(-0.0537373 -0.0273432 0)
(-0.0459313 -0.0360664 0)
(-0.0341362 -0.0390728 0)
(-0.0206995 -0.034739 0)
(-0.00893779 -0.0252621 0)
(-0.00192597 -0.0187343 0)
(0.00236547 -0.0239875 0)
(0.012333 -0.034871 0)
(0.0278284 -0.0471406 0)
(0.0438202 -0.0507325 0)
(0.0564985 -0.0440642 0)
(0.0638806 -0.0304984 0)
(0.0656002 -0.0146376 0)
(0.0624954 -0.000329795 0)
(0.0563601 0.0103498 0)
(0.0491134 0.0173793 0)
(0.0419408 0.0216779 0)
(0.0353292 0.0242101 0)
(0.0293151 0.0255885 0)
(0.0238055 0.02616 0)
(0.0186923 0.0260986 0)
(0.0139151 0.0254715 0)
(0.00946969 0.0243326 0)
(0.00539743 0.0227424 0)
(0.00174632 0.0207723 0)
(-0.00143443 0.0184924 0)
(-0.00411123 0.0159974 0)
(-0.00627022 0.0133786 0)
(-0.00791429 0.0107272 0)
(-0.00906504 0.0081323 0)
(-0.00976108 0.00566668 0)
(-0.0100484 0.00339634 0)
(-0.0099954 0.00135733 0)
(-0.00966828 -0.00042318 0)
(-0.00913023 -0.00193106 0)
(-0.00845247 -0.00317753 0)
(-0.00769618 -0.00417495 0)
(-0.00691442 -0.0049652 0)
(-0.00614221 -0.00558931 0)
(-0.00540026 -0.00609251 0)
(-0.00469575 -0.00651233 0)
(-0.0040209 -0.00688568 0)
(-0.00335896 -0.00722348 0)
(-0.00269273 -0.00752746 0)
(-0.00200454 -0.00778632 0)
(-0.00128372 -0.00797452 0)
(-0.000534747 -0.0080698 0)
(0.000228047 -0.0080631 0)
(0.00100294 -0.00796873 0)
(0.0017873 -0.0078019 0)
(0.00259618 -0.00756504 0)
(0.00344246 -0.00726549 0)
(0.00432782 -0.0068704 0)
(0.00524919 -0.00635356 0)
(0.00618841 -0.00567351 0)
(0.00713021 -0.00477915 0)
(0.00801926 -0.00365192 0)
(0.00880309 -0.00227555 0)
(0.0094223 -0.000620902 0)
(0.00979072 0.00132292 0)
(0.00985043 0.00353793 0)
(0.00953416 0.00599107 0)
(0.00877559 0.00862951 0)
(0.00753123 0.0113859 0)
(0.00576298 0.0141756 0)
(0.00345218 0.0169023 0)
(0.000601417 0.0194715 0)
(-0.00276649 0.0217998 0)
(-0.00660895 0.0238055 0)
(-0.0108769 0.0254004 0)
(-0.0155191 0.0265169 0)
(-0.0204951 0.027102 0)
(-0.0258114 0.0270905 0)
(-0.0315222 0.0263971 0)
(-0.0377472 0.0248923 0)
(-0.0445954 0.022182 0)
(-0.0519907 0.0176053 0)
(-0.0593978 0.0101103 0)
(-0.0655112 -0.00124485 0)
(-0.0683608 -0.0162895 0)
(-0.066234 -0.0327732 0)
(-0.0583622 -0.0466584 0)
(-0.0451662 -0.0532949 0)
(-0.0286504 -0.0493618 0)
(-0.0126947 -0.0365959 0)
(-0.0024241 -0.0249939 0)
(0.00309238 -0.0324057 0)
(0.0166396 -0.0498796 0)
(0.0351478 -0.0647348 0)
(0.0521911 -0.0662439 0)
(0.0644758 -0.054475 0)
(0.0709585 -0.0348512 0)
(0.0717948 -0.0134485 0)
(0.0677794 0.00486705 0)
(0.0606321 0.0177267 0)
(0.0523674 0.0253154 0)
(0.0442505 0.029234 0)
(0.0368365 0.0310659 0)
(0.0301527 0.0318002 0)
(0.0240613 0.0318644 0)
(0.0184017 0.0313979 0)
(0.0131068 0.0303984 0)
(0.00818543 0.0288724 0)
(0.00368939 0.0268417 0)
(-0.000308058 0.024374 0)
(-0.00374354 0.0215584 0)
(-0.00657777 0.0184984 0)
(-0.00879351 0.0153081 0)
(-0.0103992 0.0121028 0)
(-0.0114256 0.0089874 0)
(-0.011917 0.0060585 0)
(-0.0119455 0.00338204 0)
(-0.0115955 0.00101117 0)
(-0.0109461 -0.00101681 0)
(-0.0100874 -0.00269736 0)
(-0.00910039 -0.00404082 0)
(-0.00806589 -0.00507431 0)
(-0.00705542 -0.00584731 0)
(-0.00611035 -0.00642504 0)
(-0.00525265 -0.00686635 0)
(-0.00449039 -0.00722694 0)
(-0.00380864 -0.0075571 0)
(-0.00317793 -0.00787537 0)
(-0.0025751 -0.00818555 0)
(-0.00196626 -0.00845987 0)
(-0.00132644 -0.00867525 0)
(-0.000655359 -0.008795 0)
(3.54061e-05 -0.00881013 0)
(0.000752757 -0.00873712 0)
(0.00150843 -0.00860562 0)
(0.00231948 -0.0084159 0)
(0.0032095 -0.00817283 0)
(0.00419527 -0.00784465 0)
(0.00527068 -0.00738655 0)
(0.00642605 -0.00674574 0)
(0.00763905 -0.00584726 0)
(0.00883268 -0.00466024 0)
(0.00994731 -0.003147 0)
(0.0109024 -0.00128244 0)
(0.0116016 0.000947828 0)
(0.0119666 0.00353821 0)
(0.0119011 0.00643392 0)
(0.0113296 0.00957397 0)
(0.0101893 0.012885 0)
(0.00843171 0.0162614 0)
(0.00603572 0.019584 0)
(0.00299588 0.0227388 0)
(-0.000656434 0.0256144 0)
(-0.00487501 0.0281166 0)
(-0.00959286 0.0301512 0)
(-0.0147285 0.0316575 0)
(-0.0202347 0.0326094 0)
(-0.026122 0.0330037 0)
(-0.0324315 0.0328332 0)
(-0.0393315 0.0319854 0)
(-0.04698 0.0299635 0)
(-0.0552881 0.0257093 0)
(-0.0636453 0.0175038 0)
(-0.0706668 0.0037733 0)
(-0.0743761 -0.0154687 0)
(-0.0731739 -0.0375728 0)
(-0.0662915 -0.0575636 0)
(-0.0535688 -0.0693199 0)
(-0.0360353 -0.0674456 0)
(-0.017052 -0.0519847 0)
(-0.00315821 -0.033545 0)
(0.00406849 -0.0432374 0)
(0.0203651 -0.0678668 0)
(0.039166 -0.0833228 0)
(0.0544218 -0.0808356 0)
(0.0643976 -0.0633118 0)
(0.0692291 -0.0379521 0)
(0.0694621 -0.0115969 0)
(0.0657938 0.0103679 0)
(0.0594591 0.0253206 0)
(0.051899 0.033541 0)
(0.0441961 0.0371653 0)
(0.0369078 0.0383512 0)
(0.0301137 0.0384771 0)
(0.0237225 0.0380567 0)
(0.0176373 0.0372026 0)
(0.0118413 0.0358364 0)
(0.00640265 0.0338929 0)
(0.00142958 0.0313675 0)
(-0.00296275 0.0283203 0)
(-0.00669024 0.0248602 0)
(-0.00969501 0.0211191 0)
(-0.011954 0.0172439 0)
(-0.0134832 0.0133766 0)
(-0.01432 0.00964875 0)
(-0.0145357 0.00617771 0)
(-0.0142186 0.00304493 0)
(-0.0134659 0.000313948 0)
(-0.0123929 -0.0019786 0)
(-0.0111105 -0.00382565 0)
(-0.00972136 -0.00523729 0)
(-0.00832451 -0.00626719 0)
(-0.00701409 -0.00697027 0)
(-0.00584442 -0.0074304 0)
(-0.00483945 -0.0077356 0)
(-0.00401276 -0.00797584 0)
(-0.00334112 -0.00820342 0)
(-0.00278401 -0.00845648 0)
(-0.00229429 -0.0087482 0)
(-0.00182927 -0.00902969 0)
(-0.00135016 -0.0092668 0)
(-0.000833316 -0.00941567 0)
(-0.000281616 -0.00946736 0)
(0.000317214 -0.00944257 0)
(0.000993058 -0.00937743 0)
(0.00178366 -0.00928475 0)
(0.00271671 -0.00916023 0)
(0.00381781 -0.0089665 0)
(0.00508462 -0.00863649 0)
(0.00651614 -0.00808615 0)
(0.00807468 -0.0072433 0)
(0.00966391 -0.0060368 0)
(0.0112066 -0.00440862 0)
(0.0126031 -0.00233091 0)
(0.0137421 0.000213293 0)
(0.0145092 0.00321528 0)
(0.0147818 0.00661772 0)
(0.0144738 0.0103495 0)
(0.0134978 0.014314 0)
(0.0117807 0.0183832 0)
(0.00930308 0.0224169 0)
(0.00605739 0.0262694 0)
(0.0020776 0.0297998 0)
(-0.00256468 0.0328767 0)
(-0.00778319 0.0354041 0)
(-0.0134576 0.037325 0)
(-0.0194832 0.038641 0)
(-0.0258093 0.0394228 0)
(-0.032414 0.0397382 0)
(-0.0394047 0.0394917 0)
(-0.0468726 0.0380721 0)
(-0.0546832 0.0340152 0)
(-0.0622455 0.0250221 0)
(-0.0683896 0.00904779 0)
(-0.0717413 -0.0139011 0)
(-0.0712483 -0.0409911 0)
(-0.0661938 -0.0667554 0)
(-0.0559018 -0.084351 0)
(-0.04018 -0.0865478 0)
(-0.0208298 -0.0704574 0)
(-0.00411544 -0.0446331 0)
(0.00513466 -0.0560268 0)
(0.0220589 -0.0862406 0)
(0.0381205 -0.0995612 0)
(0.0493694 -0.0918768 0)
(0.055962 -0.0691843 0)
(0.0589925 -0.0396033 0)
(0.0592704 -0.00988775 0)
(0.0571473 0.0147141 0)
(0.0530874 0.0313916 0)
(0.0477641 0.040427 0)
(0.0417899 0.0442139 0)
(0.0355717 0.0452416 0)
(0.0292273 0.0451321 0)
(0.0227975 0.0445218 0)
(0.0163668 0.0434626 0)
(0.0100406 0.0418083 0)
(0.00400869 0.0394493 0)
(-0.00153441 0.0363712 0)
(-0.00640779 0.0326431 0)
(-0.0104788 0.0284131 0)
(-0.0136695 0.0238521 0)
(-0.015952 0.0191525 0)
(-0.017349 0.0144936 0)
(-0.0179133 0.0100394 0)
(-0.0177351 0.00593441 0)
(-0.0169395 0.00227815 0)
(-0.015657 -0.000858815 0)
(-0.014024 -0.00342916 0)
(-0.0121782 -0.00542823 0)
(-0.0102598 -0.00687709 0)
(-0.00839278 -0.00783865 0)
(-0.00668161 -0.00839144 0)
(-0.00521127 -0.00864301 0)
(-0.00402803 -0.0087171 0)
(-0.00312999 -0.008739 0)
(-0.00248532 -0.0087891 0)
(-0.00206282 -0.00891444 0)
(-0.00178016 -0.00913231 0)
(-0.0015581 -0.009401 0)
(-0.0013451 -0.00964911 0)
(-0.00109541 -0.00983469 0)
(-0.000788934 -0.00994849 0)
(-0.00039236 -0.010016 0)
(0.000141071 -0.0100755 0)
(0.000865373 -0.0101504 0)
(0.00182464 -0.0102325 0)
(0.00305956 -0.010262 0)
(0.00457962 -0.0101458 0)
(0.00636035 -0.00978624 0)
(0.00835473 -0.00906029 0)
(0.0104634 -0.00788256 0)
(0.0125721 -0.00617364 0)
(0.0145518 -0.00389065 0)
(0.0162721 -0.00101161 0)
(0.0175855 0.00245361 0)
(0.0183341 0.00644274 0)
(0.0183994 0.0108772 0)
(0.0176621 0.0156226 0)
(0.0160362 0.0205236 0)
(0.0134885 0.0254121 0)
(0.0100093 0.0300997 0)
(0.00563961 0.0344073 0)
(0.000475189 0.0381576 0)
(-0.0053436 0.0412239 0)
(-0.0116358 0.0435473 0)
(-0.0182073 0.0451424 0)
(-0.0248952 0.0461171 0)
(-0.0315259 0.0466023 0)
(-0.0380296 0.0465396 0)
(-0.0443632 0.0452124 0)
(-0.0503551 0.0408896 0)
(-0.0556101 0.0309458 0)
(-0.0594432 0.0131793 0)
(-0.0613505 -0.0123715 0)
(-0.0609864 -0.0428188 0)
(-0.0578505 -0.0728383 0)
(-0.0510505 -0.0957325 0)
(-0.0393694 -0.103288 0)
(-0.0227081 -0.0893922 0)
(-0.00523146 -0.0577316 0)
(0.00606964 -0.0695557 0)
(0.0211484 -0.102117 0)
(0.0325079 -0.111203 0)
(0.0391507 -0.0985715 0)
(0.0426212 -0.0723093 0)
(0.0444087 -0.0404526 0)
(0.0452777 -0.00914569 0)
(0.0452489 0.0167843 0)
(0.0440869 0.0346889 0)
(0.0417019 0.0447858 0)
(0.0380987 0.0494326 0)
(0.0333755 0.0510873 0)
(0.0277013 0.051436 0)
(0.0212781 0.0511423 0)
(0.014388 0.0501954 0)
(0.00736251 0.0484252 0)
(0.000564518 0.0456886 0)
(-0.00569717 0.0419873 0)
(-0.0111598 0.0374371 0)
(-0.0156414 0.0322608 0)
(-0.0190358 0.0266983 0)
(-0.0213041 0.02099 0)
(-0.0224812 0.0153778 0)
(-0.0226373 0.010046 0)
(-0.0219069 0.00518404 0)
(-0.0204554 0.000919052 0)
(-0.0184374 -0.00267655 0)
(-0.0160374 -0.00554025 0)
(-0.013437 -0.00766916 0)
(-0.010805 -0.00910495 0)
(-0.00829498 -0.00991406 0)
(-0.00604771 -0.010209 0)
(-0.0041754 -0.0101307 0)
(-0.00274488 -0.00983595 0)
(-0.00176497 -0.00950669 0)
(-0.0011857 -0.00926144 0)
(-0.000957957 -0.00918673 0)
(-0.000984349 -0.00927635 0)
(-0.00113276 -0.00949818 0)
(-0.00131402 -0.00975058 0)
(-0.0014627 -0.00997843 0)
(-0.00152072 -0.0101708 0)
(-0.00143074 -0.0103712 0)
(-0.00112169 -0.010637 0)
(-0.000513044 -0.0109857 0)
(0.000466156 -0.0113964 0)
(0.00187345 -0.0117733 0)
(0.00370072 -0.0119996 0)
(0.00594727 -0.0119486 0)
(0.0085437 -0.0114358 0)
(0.0113388 -0.0103537 0)
(0.0142043 -0.00860172 0)
(0.0169795 -0.00613107 0)
(0.0195006 -0.00289157 0)
(0.0215706 0.00109437 0)
(0.0229956 0.00576844 0)
(0.0236087 0.0110345 0)
(0.0232423 0.0167285 0)
(0.0217884 0.0226507 0)
(0.0191947 0.0285855 0)
(0.0154461 0.0342894 0)
(0.0105935 0.0395252 0)
(0.00476806 0.0440873 0)
(-0.00182421 0.0477668 0)
(-0.00892562 0.0504456 0)
(-0.016235 0.0521347 0)
(-0.023413 0.0529716 0)
(-0.0300504 0.0531057 0)
(-0.035855 0.0524958 0)
(-0.0406251 0.0504387 0)
(-0.0442105 0.0451985 0)
(-0.0465142 0.0340989 0)
(-0.0474863 0.0150917 0)
(-0.0474058 -0.0117775 0)
(-0.0464914 -0.0437545 0)
(-0.0446214 -0.0760881 0)
(-0.0410099 -0.102662 0)
(-0.0340032 -0.115413 0)
(-0.0220175 -0.105957 0)
(-0.00622551 -0.0716355 0)
(0.00658725 -0.0824045 0)
(0.0181836 -0.11373 0)
(0.0246624 -0.117906 0)
(0.0276174 -0.101684 0)
(0.0291462 -0.0738898 0)
(0.0305115 -0.0414753 0)
(0.0323243 -0.0100568 0)
(0.0343262 0.0161694 0)
(0.035802 0.0349184 0)
(0.0360404 0.0463815 0)
(0.0344595 0.052657 0)
(0.0308767 0.055832 0)
(0.0255188 0.0574736 0)
(0.0187205 0.0581012 0)
(0.0110172 0.0576571 0)
(0.00296093 0.0559402 0)
(-0.00491084 0.0528211 0)
(-0.0121429 0.0483699 0)
(-0.0183649 0.0428197 0)
(-0.0233283 0.0364625 0)
(-0.0269185 0.0296395 0)
(-0.0290857 0.022673 0)
(-0.0298881 0.0158688 0)
(-0.0294347 0.0094611 0)
(-0.0278823 0.00368679 0)
(-0.0254811 -0.00128032 0)
(-0.0224415 -0.00538596 0)
(-0.0189762 -0.00855976 0)
(-0.0153287 -0.010802 0)
(-0.0117079 -0.0121454 0)
(-0.00830632 -0.012698 0)
(-0.00530624 -0.0125892 0)
(-0.00285486 -0.0120028 0)
(-0.00107435 -0.0111713 0)
(2.4088e-05 -0.0103056 0)
(0.000502545 -0.00958636 0)
(0.00045028 -0.0091508 0)
(2.37174e-05 -0.00900987 0)
(-0.000596853 -0.00910686 0)
(-0.00126875 -0.0093596 0)
(-0.00190307 -0.00967226 0)
(-0.00242039 -0.00999608 0)
(-0.00274256 -0.0104268 0)
(-0.00274598 -0.0110078 0)
(-0.00230184 -0.0117804 0)
(-0.00129795 -0.0126819 0)
(0.000342327 -0.0135906 0)
(0.00260689 -0.0143452 0)
(0.00549958 -0.0147252 0)
(0.00892694 -0.0145648 0)
(0.0126895 -0.0136826 0)
(0.0166032 -0.0119532 0)
(0.0204816 -0.00931094 0)
(0.0241189 -0.005701 0)
(0.0272598 -0.00113345 0)
(0.0296697 0.00433968 0)
(0.0311111 0.0106121 0)
(0.0313464 0.0174736 0)
(0.0302199 0.0246745 0)
(0.0276446 0.0319201 0)
(0.0235932 0.0389066 0)
(0.0181586 0.0453314 0)
(0.0114895 0.0508769 0)
(0.0038226 0.0552654 0)
(-0.00445884 0.0582939 0)
(-0.0128857 0.059898 0)
(-0.0209513 0.0601984 0)
(-0.0280343 0.0593369 0)
(-0.0335635 0.057321 0)
(-0.0371269 0.0536504 0)
(-0.0386741 0.0467373 0)