/*--------------------------------*- C++ -*----------------------------------*\
| =========                 |                                                 |
| \\      /  F ield         | OpenFOAM: The Open Source CFD Toolbox           |
|  \\    /   O peration     | Version:  2412                                  |
|   \\  /    A nd           | Website:  www.openfoam.com                      |
|    \\/     M anipulation  |                                                 |
\*---------------------------------------------------------------------------*/
FoamFile
{
    version     2.0;
    format      ascii;
    arch        "LSB;label=32;scalar=64";
    class       volScalarField;
    location    "9.35";
    object      alpha.glycerin;
}
// * * * * * * * * * * * * * * * * * * * * * * * * * * * * * * * * * * * * * //

dimensions      [0 0 0 0 0 0 0];

internalField   nonuniform List<scalar> 
6400
(
1
0.999991
0.999992
0.999992
0.999993
0.999993
0.999993
0.999994
0.999994
0.999994
0.999995
0.999995
0.999995
0.999996
0.999996
0.999996
0.999997
0.999997
0.999997
0.999998
0.999998
0.999998
0.999999
0.999999
1
1
1
1
1
1
1
1
1
1
1.00001
1.00001
1.00001
1.00001
1.00001
1.00001
1.00001
1.00001
1.00001
1.00001
1.00001
1.00001
1.00001
1.00001
1
1
1
1
1
1
1
1
1
1
1
1
0.999999
0.999998
0.999997
0.999997
0.999996
0.999996
0.999996
0.999996
0.999996
0.999995
0.999995
0.999994
0.999994
0.999994
0.999993
0.999993
0.999992
0.999992
0.999992
0.999993
0.999993
0.999984
0.999986
0.999986
0.999986
0.999986
0.999986
0.999986
0.999987
0.999987
0.999988
0.999989
0.999989
0.99999
0.999991
0.999992
0.999993
0.999994
0.999995
0.999996
0.999997
0.999998
0.999999
1
1
1
1
1.00001
1.00001
1.00001
1.00001
1.00001
1.00001
1.00001
1.00001
1.00001
1.00001
1.00001
1.00001
1.00001
1.00001
1.00001
1.00001
1.00001
1.00001
1.00001
1.00001
1.00001
1.00001
1.00001
1.00001
1.00001
1.00001
1.00001
1
1
1
1
0.999998
0.999996
0.999995
0.999994
0.999993
0.999992
0.999992
0.999991
0.99999
0.999989
0.999989
0.999988
0.999987
0.999987
0.999987
0.999986
0.999986
0.999986
0.999986
0.999985
0.999986
0.999994
0.999993
0.999985
0.999986
0.999986
0.999987
0.999987
0.999987
0.999987
0.999988
0.999988
0.999989
0.99999
0.999991
0.999991
0.999992
0.999993
0.999994
0.999994
0.999995
0.999996
0.999997
0.999998
0.999999
1
1
1
1
1.00001
1.00001
1.00001
1.00001
1.00001
1.00001
1.00001
1.00001
1.00001
1.00001
1.00001
1.00001
1.00001
1.00001
1.00001
1.00001
1.00001
1.00001
1.00001
1.00001
1.00001
1.00001
1.00001
1.00001
1
1
1
1
1
1
0.999998
0.999998
0.999997
0.999997
0.999996
0.999995
0.999994
0.999993
0.999992
0.999991
0.999991
0.99999
0.999989
0.999989
0.999988
0.999988
0.999987
0.999987
0.999987
0.999987
0.999986
0.999986
0.999994
0.999993
0.999985
0.999986
0.999987
0.999987
0.999987
0.999988
0.999988
0.999988
0.999989
0.99999
0.99999
0.999991
0.999992
0.999993
0.999994
0.999995
0.999995
0.999996
0.999997
0.999998
0.999999
1
1
1
1
1
1
1.00001
1.00001
1.00001
1.00001
1.00001
1.00001
1.00001
1.00001
1.00001
1.00001
1.00001
1.00001
1.00001
1.00001
1.00001
1.00001
1.00001
1.00001
1.00001
1.00001
1.00001
1.00001
1
1
1
1
1
1
1
1
0.999999
0.999998
0.999997
0.999996
0.999995
0.999994
0.999993
0.999993
0.999992
0.999992
0.999991
0.99999
0.99999
0.999989
0.999989
0.999988
0.999988
0.999988
0.999987
0.999987
0.999987
0.999995
0.999993
0.999985
0.999986
0.999986
0.999987
0.999987
0.999987
0.999988
0.999988
0.999989
0.999989
0.99999
0.999991
0.999992
0.999993
0.999993
0.999994
0.999995
0.999996
0.999997
0.999998
0.999999
1
1
1
1
1
1
1.00001
1.00001
1.00001
1.00001
1.00001
1.00001
1.00001
1.00001
1.00001
1.00001
1.00001
1.00001
1.00001
1.00001
1.00001
1.00001
1.00001
1.00001
1.00001
1.00001
1.00001
1.00001
1
1
1
1
1
1
0.999999
0.999998
0.999998
0.999997
0.999996
0.999995
0.999995
0.999994
0.999993
0.999992
0.999992
0.999991
0.999991
0.99999
0.99999
0.999989
0.999989
0.999988
0.999988
0.999987
0.999987
0.999987
0.999987
0.999994
0.999992
0.999985
0.999986
0.999986
0.999986
0.999987
0.999987
0.999987
0.999988
0.999988
0.999989
0.999989
0.99999
0.999991
0.999991
0.999992
0.999993
0.999994
0.999995
0.999996
0.999997
0.999998
0.999999
1
1
1
1
1
1.00001
1.00001
1.00001
1.00001
1.00001
1.00001
1.00001
1.00001
1.00001
1.00002
1.00002
1.00002
1.00002
1.00001
1.00001
1.00001
1.00001
1.00001
1.00001
1.00001
1.00001
1.00001
1.00001
1.00001
1
1
0.999999
0.999998
0.999998
0.999998
0.999997
0.999996
0.999995
0.999994
0.999994
0.999993
0.999992
0.999991
0.999991
0.99999
0.99999
0.999989
0.999988
0.999988
0.999988
0.999987
0.999987
0.999987
0.999986
0.999987
0.999987
0.999993
0.999992
0.999985
0.999985
0.999986
0.999986
0.999986
0.999987
0.999987
0.999987
0.999987
0.999988
0.999988
0.999988
0.999989
0.99999
0.999991
0.999992
0.999993
0.999994
0.999995
0.999996
0.999997
0.999998
0.999999
1
1
1
1
1
1.00001
1.00001
1.00001
1.00001
1.00001
1.00001
1.00001
1.00002
1.00002
1.00002
1.00002
1.00002
1.00002
1.00002
1.00002
1.00001
1.00001
1.00001
1.00001
1.00001
1.00001
1.00001
1.00001
1.00001
1
1
0.999999
0.999997
0.999996
0.999995
0.999995
0.999994
0.999994
0.999993
0.999992
0.999991
0.99999
0.999989
0.999989
0.999988
0.999988
0.999987
0.999987
0.999986
0.999986
0.999985
0.999985
0.999985
0.999985
0.999986
0.999992
0.999991
0.999985
0.999985
0.999985
0.999986
0.999986
0.999987
0.999987
0.999988
0.999988
0.999988
0.999989
0.999989
0.999989
0.99999
0.99999
0.999991
0.999992
0.999993
0.999994
0.999995
0.999996
0.999997
0.999998
0.999999
1
1
1
1
1.00001
1.00001
1.00001
1.00001
1.00001
1.00001
1.00001
1.00002
1.00002
1.00002
1.00002
1.00002
1.00002
1.00002
1.00002
1.00002
1.00001
1.00001
1.00001
1.00001
1.00001
1.00001
1.00001
1.00001
1.00001
1
1
1
0.999998
0.999997
0.999996
0.999995
0.999994
0.999993
0.999991
0.99999
0.999989
0.999989
0.999988
0.999987
0.999987
0.999986
0.999986
0.999985
0.999985
0.999984
0.999984
0.999984
0.999984
0.999985
0.999991
0.999991
0.999985
0.999984
0.999985
0.999986
0.999986
0.999987
0.999989
0.999989
0.99999
0.999991
0.999991
0.999991
0.999992
0.999992
0.999993
0.999994
0.999995
0.999996
0.999996
0.999997
0.999998
0.999999
1
1
1
1
1
1
1.00001
1.00001
1.00001
1.00001
1.00001
1.00001
1.00001
1.00001
1.00001
1.00001
1.00001
1.00002
1.00002
1.00002
1.00002
1.00001
1.00001
1.00001
1.00001
1.00001
1.00001
1.00001
1.00001
1.00001
1.00001
1.00001
1.00001
1
1
1
0.999999
0.999997
0.999996
0.999995
0.999994
0.999993
0.999992
0.999991
0.999991
0.99999
0.999989
0.999988
0.999988
0.999987
0.999986
0.999986
0.999985
0.999984
0.999984
0.999985
0.999991
0.99999
0.999984
0.999984
0.999985
0.999985
0.999987
0.999988
0.99999
0.999992
0.999993
0.999994
0.999995
0.999996
0.999997
0.999997
0.999998
0.999999
1
1
1
1
1
1
1
1.00001
1.00001
1.00001
1.00001
1.00001
1.00001
1.00001
1.00001
1.00001
1.00001
1.00001
1
1
1
0.999998
0.999999
1
1.00001
1.00001
1.00001
1
0.999999
0.999996
0.999995
0.999998
1
1
1.00001
1.00001
1.00001
1.00001
1.00001
1.00001
1
1
1
1
1
0.999999
0.999999
0.999998
0.999997
0.999996
0.999996
0.999995
0.999994
0.999993
0.999992
0.999991
0.999991
0.99999
0.999989
0.999988
0.999987
0.999987
0.999994
0.999989
0.999984
0.999983
0.999984
0.999985
0.999986
0.999988
0.99999
0.999992
0.999994
0.999996
0.999998
0.999999
1
1
1
1
1
1
1.00001
1.00001
1.00001
1.00001
1.00001
1.00001
1.00001
1.00001
1.00001
1.00001
1.00001
1.00001
1.00001
1.00001
1.00001
1
0.999997
0.999989
0.99998
0.99998
0.99998
0.99998
0.999986
0.999992
0.999995
0.999993
0.999987
0.999979
0.999979
0.999979
0.999985
0.99999
0.999995
1
1
1
1
1
1
1
1
1
1
1
1
1
1
1
1
0.999999
0.999999
0.999998
0.999997
0.999996
0.999995
0.999994
0.999993
0.999992
0.999991
0.999991
0.999996
0.999989
0.999984
0.999982
0.999983
0.999983
0.999983
0.999984
0.999986
0.999987
0.999989
0.999992
0.999994
0.999995
0.999997
0.999998
0.999999
1
1
1
1
1
1.00001
1.00001
1.00001
1.00001
1.00001
1.00001
1.00001
1.00001
1.00001
1.00001
1.00001
1.00001
1.00001
1.00001
1
0.999997
0.999991
0.999984
0.999981
0.999983
0.999991
0.999999
1
1
0.999997
0.999988
0.999979
0.999977
0.999977
0.999983
0.999989
0.999993
0.999996
0.999998
0.999999
0.999999
0.999999
0.999999
1
1
1
0.999999
0.999999
0.999999
0.999998
0.999998
0.999998
0.999997
0.999997
0.999996
0.999995
0.999995
0.999994
0.999993
0.999992
0.999991
0.999992
0.999993
0.999995
0.999988
0.999983
0.999981
0.999981
0.999979
0.999977
0.999975
0.999975
0.999975
0.999975
0.999976
0.999978
0.999979
0.99998
0.999981
0.999982
0.999984
0.999985
0.999986
0.999988
0.999989
0.999991
0.999993
0.999995
0.999998
1
1
1.00001
1.00001
1.00001
1.00002
1.00002
1.00002
1.00002
1.00003
1.00003
1.00003
1.00003
1.00003
1.00002
1.00002
1.00003
1.00003
1.00004
1.00004
1.00004
1.00003
1.00001
1
0.999995
0.999992
0.999991
0.999991
0.999991
0.99999
0.99999
0.999989
0.999988
0.999987
0.999986
0.999986
0.999985
0.999984
0.999984
0.999983
0.999982
0.999982
0.999981
0.999981
0.999981
0.999981
0.999981
0.999981
0.999981
0.999981
0.999981
0.999982
0.999985
0.999988
0.999989
0.999987
0.999982
0.999978
0.999978
0.999974
0.999969
0.999964
0.999959
0.999956
0.999954
0.999952
0.999952
0.999952
0.999952
0.999952
0.999952
0.999953
0.999953
0.999955
0.999956
0.999958
0.999961
0.999964
0.999967
0.999972
0.999977
0.999983
0.99999
0.999996
1
1.00001
1.00002
1.00003
1.00005
1.00007
1.00009
1.00011
1.00012
1.00012
1.00011
1.00011
1.0001
1.00011
1.00012
1.00012
1.00012
1.0001
1.00008
1.00006
1.00004
1.00002
1.00001
1
0.999994
0.999986
0.999979
0.999973
0.999969
0.999965
0.999961
0.999958
0.999956
0.999954
0.999953
0.999952
0.999951
0.99995
0.99995
0.999951
0.999952
0.999953
0.999954
0.999955
0.999956
0.999958
0.999961
0.999965
0.99997
0.999975
0.99998
0.999984
0.999982
0.999976
0.999976
0.999972
0.999966
0.999959
0.999951
0.999944
0.999938
0.999933
0.999929
0.999927
0.999925
0.999924
0.999924
0.999924
0.999924
0.999925
0.999926
0.999928
0.999931
0.999935
0.99994
0.999946
0.999954
0.999962
0.999972
0.999983
0.999994
1.00001
1.00002
1.00005
1.00008
1.00012
1.00017
1.00021
1.00024
1.00025
1.00023
1.0002
1.00018
1.00018
1.00018
1.00019
1.00019
1.00018
1.00015
1.00012
1.00008
1.00006
1.00004
1.00002
1.00001
0.99999
0.999976
0.999964
0.999954
0.999946
0.999939
0.999934
0.999929
0.999926
0.999923
0.999922
0.999921
0.999921
0.999921
0.999921
0.999921
0.999923
0.999925
0.999928
0.999931
0.999936
0.999941
0.999947
0.999954
0.999961
0.999972
0.999981
0.999984
0.999975
0.999977
0.999979
0.999977
0.999973
0.999969
0.999964
0.999959
0.999956
0.999953
0.999952
0.999951
0.99995
0.999949
0.999949
0.99995
0.999951
0.999953
0.999954
0.999957
0.99996
0.999963
0.999967
0.999972
0.999977
0.999983
0.99999
0.999999
1.00001
1.00003
1.00005
1.00009
1.00014
1.00021
1.00027
1.00031
1.00032
1.00028
1.00022
1.00017
1.00014
1.00014
1.00016
1.00017
1.00017
1.00015
1.00012
1.00009
1.00006
1.00004
1.00003
1.00002
1.00001
0.999995
0.999986
0.999979
0.999972
0.999967
0.999963
0.999959
0.999956
0.999953
0.999951
0.999949
0.999948
0.999947
0.999947
0.999948
0.999948
0.999949
0.99995
0.999951
0.999953
0.999955
0.999958
0.99996
0.999964
0.999974
0.999978
0.999995
0.99998
0.999983
0.999993
1
1.00001
1.00001
1.00001
1.00001
1.00001
1.00002
1.00002
1.00002
1.00002
1.00002
1.00002
1.00002
1.00002
1.00002
1.00002
1.00003
1.00003
1.00003
1.00003
1.00002
1.00002
1.00002
1.00002
1.00002
1.00002
1.00003
1.00005
1.00007
1.0001
1.00013
1.00018
1.0002
1.00023
1.0002
1.00013
1.00007
1.00004
1.00004
1.00004
1.00003
1.00003
1.00001
0.999999
1
0.999997
0.999997
1
1.00001
1.00001
1.00002
1.00002
1.00002
1.00002
1.00002
1.00002
1.00002
1.00002
1.00002
1.00002
1.00002
1.00002
1.00002
1.00002
1.00002
1.00002
1.00002
1.00001
1.00001
1.00001
1.00001
1
0.999999
0.999995
0.999993
0.999971
1.00001
0.999994
0.999992
1
1.00002
1.00003
1.00004
1.00004
1.00005
1.00005
1.00006
1.00006
1.00006
1.00007
1.00007
1.00007
1.00007
1.00007
1.00007
1.00007
1.00007
1.00006
1.00006
1.00006
1.00005
1.00004
1.00004
1.00003
1.00002
1.00002
1.00002
1.00002
1.00001
1.00001
0.999964
0.999999
1.00006
1.00009
1.00008
1.00003
0.99999
0.999975
0.999956
0.99995
0.999948
0.999932
0.999922
0.999926
0.999942
0.99995
0.99996
0.999976
0.999994
1.00001
1.00002
1.00003
1.00004
1.00005
1.00005
1.00006
1.00006
1.00006
1.00006
1.00006
1.00007
1.00007
1.00007
1.00006
1.00006
1.00006
1.00006
1.00006
1.00005
1.00005
1.00004
1.00003
1.00002
1.00001
0.999998
0.999958
1
0.999999
0.999998
1
1
1
1
1
1
1
1
1
1
1
1
1
1
1
1
1
1
1
1
1
1
1
1
1
1
1
1
1
1
1
1.00001
1.00001
1.00005
1.00007
1.00005
1.00003
1.00002
1.00001
1.00001
1
0.999994
0.999959
0.999953
0.999968
0.999978
0.999987
0.999993
0.999997
0.999999
1
1
1
1
1
1
1
1
1
1
1
1
1
1
1
1
1
1
1
1
1
1
1
1
1
0.99998
0.994286
0.982323
0.973523
0.966427
0.960955
0.956833
0.953776
0.951562
0.950017
0.949005
0.948406
0.948129
0.9481
0.948257
0.948544
0.948913
0.949318
0.949726
0.950115
0.950479
0.950815
0.951137
0.951475
0.951872
0.95239
0.953028
0.953772
0.954516
0.955022
0.954929
0.953032
0.946921
0.936363
0.904898
0.797004
0.67304
0.580848
0.51274
0.489206
0.470491
0.470434
0.491618
0.531712
0.602614
0.697487
0.838724
0.919937
0.937881
0.947972
0.953183
0.954568
0.954593
0.95417
0.953586
0.953029
0.952536
0.952118
0.951787
0.951544
0.95134
0.95111
0.950823
0.950484
0.950109
0.949727
0.949375
0.949093
0.948939
0.948966
0.949238
0.94983
0.950839
0.952373
0.954573
0.957608
0.961693
0.967108
0.974114
0.982782
0.994514
0.0979912
0.119165
0.129389
0.134298
0.136502
0.137368
0.137602
0.137564
0.137416
0.137242
0.137094
0.136998
0.136969
0.13702
0.137161
0.137409
0.137788
0.138306
0.138961
0.139746
0.140655
0.141674
0.142773
0.143928
0.145167
0.146566
0.148176
0.150019
0.152078
0.154434
0.156649
0.156343
0.156838
0.149028
0.117914
0.118611
0.119178
0.118794
0.118755
0.118753
0.118755
0.118759
0.118958
0.119424
0.117754
0.113543
0.141998
0.155765
0.157994
0.156852
0.154507
0.15227
0.150189
0.148318
0.146548
0.145006
0.143708
0.142561
0.14155
0.14057
0.139672
0.138897
0.138258
0.137759
0.137395
0.137157
0.137035
0.137009
0.137065
0.13719
0.137366
0.137558
0.137724
0.137774
0.137547
0.136682
0.134468
0.129536
0.119286
0.0980419
1.31307e-11
2.58494e-27
-1.17759e-19
-4.04173e-17
-2.79727e-16
-1.16205e-15
-5.76709e-16
0
2.70056e-15
3.14655e-11
2.16485e-10
1.03491e-09
1.50954e-08
5.7976e-07
4.38152e-06
9.59422e-06
8.96997e-06
4.41746e-06
9.80295e-07
3.50898e-09
1.29985e-08
2.76414e-07
1.19669e-05
2.92487e-05
4.42253e-05
5.91184e-05
7.34031e-05
8.74805e-05
0.000100777
0.000113679
0.000124316
0.000144049
0.000184782
0.0338115
0.232746
0.260391
0.26046
0.260482
0.26047
0.260482
0.26047
0.260453
0.26045
0.260423
0.260344
0.19479
0.0123749
0.000135453
0.000102301
8.55601e-05
7.47565e-05
6.166e-05
4.86068e-05
4.73777e-05
6.07109e-05
7.19267e-05
5.54237e-05
3.84596e-05
2.02714e-05
1.56868e-06
4.46019e-08
4.82433e-09
1.80453e-08
4.61091e-07
1.15746e-06
1.12535e-06
6.42483e-07
1.7406e-07
1.58921e-08
6.31231e-10
5.51052e-12
8.9836e-15
8.79064e-15
8.79038e-15
8.78995e-15
8.78972e-15
8.78971e-15
8.78972e-15
8.78972e-15
3.25859e-11
0
-2.97879e-17
-3.0405e-16
-1.7803e-15
-5.89995e-15
-1.02317e-14
-9.34991e-15
-8.04667e-15
3.6876e-14
2.16586e-13
2.74361e-11
2.61119e-10
1.03491e-09
1.05786e-06
7.68647e-06
1.16844e-05
1.10947e-05
6.86672e-06
1.94698e-06
1.64354e-10
2.6798e-09
1.11146e-08
1.86545e-05
0.000279388
0.000335958
0.000335798
0.000130943
9.34396e-05
0.000149719
0.000436736
0.000463852
0.000211758
0.000212959
0.005263
0.0661286
0.125858
0.166756
0.202701
0.22725
0.198449
0.198576
0.220633
0.199239
0.165889
0.119045
0.048237
0.000671725
0.000307081
0.000330485
0.000635386
0.000638759
0.000226115
4.73711e-05
4.73944e-05
0.000270089
0.00044401
0.00044401
0.000444024
0.000195525
4.27196e-08
9.51066e-09
3.89173e-10
1.47972e-08
8.79384e-07
1.39686e-06
1.23906e-06
9.11334e-07
2.48067e-07
6.48434e-10
2.30943e-11
3.99826e-13
1.86185e-14
1.7914e-14
1.59615e-14
1.53473e-14
1.33671e-14
1.07158e-14
9.82319e-15
8.79852e-15
8.79939e-15
1.18043e-16
1.20024e-16
3.40418e-16
2.65487e-16
-5.00885e-17
-2.30964e-16
-9.13622e-17
4.96428e-17
1.60254e-14
2.37266e-14
6.12517e-13
2.22865e-11
1.03274e-09
4.91429e-06
1.75016e-05
1.75002e-05
1.75026e-05
1.71375e-05
2.54398e-06
9.78364e-11
9.94278e-11
1.7281e-10
1.02202e-05
0.000237489
0.00033596
0.000335604
0.000260129
9.50642e-05
0.000243358
0.00232608
0.00261933
0.00261933
0.00261627
0.000869745
3.74809e-07
1.9131e-07
2.59005e-08
1.11602e-09
1.0509e-09
1.0508e-09
1.05078e-09
1.05077e-09
1.05076e-09
1.05074e-09
1.05072e-09
1.05072e-09
0.000755251
0.00275429
0.00275551
0.00275551
0.00213924
0.000119713
4.83194e-05
0.000252493
0.000443302
0.000443677
0.000444022
0.000398142
6.90195e-05
2.89201e-09
2.26568e-10
1.82119e-11
4.12686e-06
1.24714e-05
1.30133e-05
1.26365e-05
1.20772e-05
9.13057e-06
2.41662e-06
3.10569e-08
1.70416e-11
3.99825e-13
2.42648e-13
1.00134e-13
1.85817e-14
1.27018e-14
1.17957e-14
1.08346e-14
1.09295e-14
1.00803e-14
5.98076e-17
5.98537e-17
1.39139e-16
1.18242e-16
2.59921e-17
0
3.71413e-16
1.76447e-14
1.26424e-13
2.46521e-13
2.2169e-13
7.26106e-13
2.77679e-11
6.51702e-08
7.96355e-06
1.73101e-05
1.63913e-05
3.9042e-06
9.78364e-11
9.73629e-11
9.78364e-11
9.94278e-11
1.02117e-10
1.04009e-10
2.68591e-05
0.000249415
0.000313727
0.000313732
0.000185316
1.11049e-10
0.000122052
0.000299106
0.000320639
7.88813e-05
1.58001e-05
7.29211e-05
7.29175e-05
1.13355e-05
1.05516e-09
1.0509e-09
1.0508e-09
1.05078e-09
1.05077e-09
1.05076e-09
1.05074e-09
1.05072e-09
0.000182825
0.000441222
0.000334384
5.83194e-05
1.36973e-05
6.66115e-05
0.00014607
0.00020981
0.000277068
0.000249329
9.88947e-05
6.93904e-12
6.65388e-12
4.8818e-09
3.65146e-10
7.0259e-12
1.16466e-05
1.32765e-05
1.32765e-05
1.32765e-05
1.32627e-05
1.32444e-05
1.29613e-05
2.68385e-06
5.89498e-10
1.91288e-11
1.71084e-12
7.60489e-13
1.74729e-13
1.74531e-14
8.13499e-15
8.14543e-15
9.84052e-15
8.02498e-15
2.10376e-16
2.91641e-17
3.4009e-17
1.67599e-17
8.2456e-18
2.36735e-17
2.7646e-15
4.70301e-14
1.57591e-13
2.10692e-13
2.11051e-13
2.2169e-13
7.26104e-13
2.77678e-11
1.55718e-10
2.78719e-10
4.85307e-07
8.46999e-09
9.53603e-11
9.73642e-11
1.01776e-10
1.03493e-10
1.03498e-10
1.03592e-10
1.04012e-10
1.04907e-10
1.07681e-10
1.08832e-10
1.09511e-10
1.10245e-10
1.11049e-10
1.12499e-10
1.15757e-10
2.55665e-10
9.41261e-06
5.20334e-05
5.75593e-05
1.48662e-05
1.05945e-09
1.05851e-09
1.30962e-09
1.37836e-09
1.8475e-09
2.39425e-09
3.76826e-09
3.00285e-09
6.0337e-11
5.85579e-11
5.78331e-11
5.77879e-11
5.78009e-11
2.53002e-05
4.56169e-05
2.21995e-05
2.92859e-10
1.45617e-11
6.11015e-12
6.27784e-12
6.59017e-12
6.65388e-12
6.69147e-12
6.7274e-12
4.25976e-06
1.16945e-05
5.89468e-06
3.72122e-06
9.1232e-06
1.32413e-05
1.3199e-05
5.70153e-06
4.19305e-10
1.30755e-11
1.76009e-12
1.40573e-12
3.13841e-13
2.16464e-14
5.51583e-15
6.00091e-15
9.20601e-15
6.90676e-15
3.05967e-16
2.51212e-17
2.61313e-17
6.84658e-18
1.6493e-18
3.00273e-17
2.9684e-15
4.76122e-14
1.76067e-13
2.65291e-13
2.2169e-13
1.20664e-10
5.34217e-09
1.49377e-08
1.53594e-09
2.2261e-10
4.25246e-11
1.36096e-11
9.35329e-11
1.19569e-10
1.21088e-10
1.20946e-10
1.22609e-10
1.49829e-10
2.09431e-10
2.8499e-10
3.59599e-10
4.38083e-10
5.16172e-10
5.64552e-10
6.01084e-10
6.52288e-10
7.03241e-10
7.02055e-10
7.05498e-10
7.09295e-10
7.14029e-10
7.18045e-10
1.22109e-09
1.17635e-09
1.63867e-09
2.55693e-09
4.80578e-09
4.80538e-09
4.4075e-09
4.02558e-09
1.77019e-09
5.84623e-10
5.06129e-10
5.64513e-10
1.66226e-10
2.24271e-11
1.22963e-12
6.2857e-13
6.87461e-13
1.43453e-12
5.22151e-12
6.23369e-12
6.3691e-12
6.65236e-12
6.72742e-12
6.77735e-12
6.64934e-12
6.12776e-07
2.91902e-07
9.39651e-10
5.4877e-10
4.79644e-06
1.18343e-05
4.17934e-06
1.58765e-10
4.32121e-12
1.53064e-12
1.4594e-12
4.44721e-13
3.57686e-14
4.52721e-15
4.96545e-15
8.52795e-15
6.02861e-15
2.87027e-16
2.00077e-17
2.21958e-17
5.46119e-18
9.32355e-19
1.45287e-17
1.34726e-15
2.59544e-14
1.35239e-13
2.30586e-13
8.39087e-13
2.78632e-09
2.99562e-08
3.13577e-08
8.98829e-09
7.3809e-12
6.56073e-12
7.06426e-12
4.14585e-11
2.37481e-11
8.13737e-12
2.06799e-12
1.95944e-12
1.56973e-12
1.24605e-12
1.16655e-12
1.12186e-12
1.24957e-12
7.42978e-12
2.56112e-11
7.26292e-11
1.9843e-10
4.49718e-10
7.33516e-10
9.44444e-10
1.11526e-09
1.1714e-09
1.15401e-09
1.1463e-09
1.20812e-09
1.73875e-09
2.27805e-09
1.64297e-09
2.75774e-10
2.19284e-10
3.55873e-10
2.80526e-10
1.57655e-10
1.07466e-10
1.17339e-10
1.18129e-10
3.18311e-13
2.75172e-13
5.4472e-13
6.2857e-13
1.93386e-12
5.38456e-12
5.56697e-12
6.03731e-12
6.84211e-12
7.92981e-12
6.82228e-12
5.09748e-12
8.72766e-10
1.18452e-09
6.22686e-10
4.82384e-10
4.8049e-10
4.8049e-10
1.74852e-06
2.53087e-07
3.28687e-11
1.56243e-12
9.37717e-13
3.67759e-13
3.71743e-14
3.82484e-15
4.06322e-15
7.10323e-15
4.7549e-15
1.70138e-16
1.08609e-17
1.3998e-17
3.64377e-18
6.00547e-19
2.01057e-18
2.16357e-16
7.8283e-15
7.5481e-14
1.91126e-13
1.11035e-10
1.65351e-08
3.93882e-08
2.97458e-08
7.3809e-12
6.93431e-12
5.03208e-12
4.50598e-12
3.91142e-12
3.83479e-12
3.83479e-12
2.96165e-12
2.10947e-12
1.82005e-12
1.4795e-12
1.14596e-12
9.37029e-13
9.19669e-13
1.42826e-12
2.77026e-12
4.82081e-12
6.69456e-12
8.15585e-12
2.7244e-11
2.88255e-10
1.06074e-09
1.39031e-09
1.27212e-09
1.08095e-09
1.07411e-09
1.15643e-09
4.6969e-10
2.17138e-10
7.412e-11
4.9005e-11
2.55735e-11
2.15983e-11
1.56767e-11
9.6944e-12
5.2532e-12
3.16085e-12
2.18229e-13
2.67016e-13
5.48766e-13
3.05661e-12
1.03708e-11
1.5458e-11
7.97618e-12
7.48097e-11
8.5861e-10
8.95255e-10
4.51076e-10
3.61234e-10
4.77551e-10
7.7509e-10
7.91576e-10
5.73319e-10
4.80677e-10
4.8049e-10
7.67974e-07
1.37508e-06
2.03036e-07
3.13765e-11
6.80174e-13
1.12381e-13
2.75966e-14
3.10215e-15
2.94678e-15
4.65416e-15
2.96198e-15
4.3979e-17
2.8992e-18
4.6212e-18
1.44535e-18
3.19507e-19
4.91907e-19
4.90739e-17
2.73542e-15
1.67577e-14
7.74916e-13
2.21398e-09
2.95064e-08
3.93982e-08
1.90512e-08
1.02871e-11
7.3809e-12
6.56264e-12
5.02878e-12
3.74089e-09
5.51136e-09
9.67902e-10
1.09664e-10
1.10417e-11
1.15146e-11
8.42867e-12
2.72484e-12
1.73365e-13
1.10713e-13
1.01499e-13
6.23383e-13
2.16099e-12
5.42834e-12
9.70827e-12
1.39187e-11
2.43487e-11
1.04942e-10
4.95788e-10
8.8214e-10
1.07626e-09
9.50868e-10
1.19862e-09
7.97953e-10
2.01581e-10
1.35715e-10
6.31339e-11
3.24475e-11
1.70418e-11
7.72281e-12
3.00818e-12
1.08962e-12
2.75068e-13
1.33015e-13
2.60455e-13
2.02716e-12
1.02228e-11
1.51304e-11
1.52265e-11
4.16024e-10
3.36844e-09
7.83405e-09
8.19251e-09
6.32917e-09
3.0063e-09
1.19706e-09
9.5537e-10
8.53071e-10
6.16863e-10
4.81406e-10
4.80675e-10
1.04236e-06
2.00986e-06
9.1409e-07
2.44625e-10
4.59816e-12
1.51103e-13
1.73114e-14
2.0369e-15
1.61404e-15
2.05152e-15
1.25639e-15
3.60647e-18
2.80985e-19
5.70647e-19
2.5195e-19
1.07997e-19
9.70359e-20
6.83812e-18
5.5344e-16
1.69494e-14
9.35796e-13
2.70032e-09
3.1075e-08
3.90678e-08
1.44225e-08
1.68409e-11
1.02871e-11
4.87269e-09
6.12784e-08
8.22379e-08
7.86426e-08
3.27393e-08
1.53259e-08
1.96254e-08
1.11626e-09
1.87295e-10
5.40906e-11
8.41667e-13
2.82613e-14
2.71371e-14
2.97448e-14
1.72396e-13
8.07504e-13
2.34866e-12
5.22615e-12
1.09239e-11
2.90388e-11
1.17716e-10
4.70709e-10
1.14871e-09
7.88123e-10
1.19901e-09
1.23205e-09
4.83405e-10
1.72724e-10
4.48916e-11
1.37636e-11
5.07138e-12
1.66846e-12
3.99288e-13
5.56555e-14
6.82876e-15
3.01853e-14
5.10343e-13
7.30957e-12
1.37458e-11
1.07386e-11
6.90981e-10
5.93846e-09
1.15917e-08
1.12559e-08
1.1063e-08
9.44986e-09
6.57982e-09
4.41763e-09
2.32493e-09
1.17968e-09
5.88215e-10
4.82722e-10
4.81404e-10
1.14886e-07
2.01207e-06
6.42607e-07
2.41569e-10
4.25516e-12
1.51994e-13
2.17576e-14
1.3632e-15
5.79393e-16
5.05898e-16
3.06338e-16
8.65771e-20
8.83323e-21
2.18105e-20
1.58591e-20
1.61799e-20
1.88054e-20
2.69249e-18
2.93841e-16
7.55606e-15
4.48315e-13
1.16633e-09
2.43466e-08
3.84153e-08
1.20569e-08
5.99181e-11
4.02992e-09
6.30638e-08
8.23921e-08
8.2315e-08
8.19625e-08
4.68552e-08
1.08356e-07
1.60483e-07
1.5964e-07
6.14222e-08
3.32154e-09
2.04217e-11
3.54873e-14
2.00635e-14
2.01377e-14
1.70819e-14
2.00588e-13
9.33115e-13
2.58283e-12
5.53701e-12
1.36794e-11
7.5566e-11
5.13529e-10
1.16107e-09
6.57201e-10
9.20108e-10
1.33485e-09
6.98222e-10
1.98027e-10
3.53106e-11
8.1771e-12
2.45086e-12
5.75736e-13
7.62197e-14
3.62044e-15
1.53563e-15
3.25555e-14
1.11565e-12
1.18461e-11
1.04834e-11
8.20182e-12
6.1806e-09
1.20586e-08
1.1904e-08
8.75461e-09
4.09259e-09
2.27252e-09
2.6333e-09
4.23321e-09
3.89792e-09
2.53642e-09
9.17427e-10
4.85744e-10
4.82722e-10
2.60867e-07
1.72335e-06
9.56052e-07
4.43844e-09
5.86196e-12
1.69977e-13
3.76581e-15
5.88223e-16
1.19915e-16
5.90852e-17
3.84176e-17
1.21218e-21
1.41806e-22
3.75837e-22
3.87653e-22
1.10898e-22
1.54128e-21
1.65199e-19
1.77283e-17
1.53513e-15
1.0804e-13
2.99403e-10
8.32441e-09
2.18897e-08
7.00694e-09
3.72628e-10
1.47381e-09
5.89971e-08
8.23921e-08
8.23921e-08
5.20992e-08
9.0735e-09
1.06456e-08
1.36784e-07
3.19755e-07
3.25688e-07
2.43161e-07
2.00666e-09
4.82067e-14
2.14796e-14
2.01366e-14
6.76373e-15
2.73091e-14
2.90309e-13
1.23893e-12
3.29965e-12
8.02093e-12
3.36618e-11
2.98587e-10
1.10113e-09
6.17464e-10
7.69351e-10
1.33485e-09
7.73299e-10
2.0206e-10
2.40105e-11
4.60273e-12
1.15847e-12
1.9014e-13
1.37155e-14
3.38406e-16
4.69925e-16
3.31025e-14
1.68301e-12
1.29033e-11
5.60252e-12
5.7316e-12
1.01955e-08
1.20681e-08
7.265e-09
2.40702e-09
2.27252e-09
2.23135e-09
2.23135e-09
2.85188e-09
7.13407e-09
5.25463e-09
1.81425e-09
4.90576e-10
4.85744e-10
1.00821e-07
6.76015e-06
2.19785e-06
1.002e-09
1.87096e-11
1.08507e-13
5.445e-15
2.96137e-16
1.61532e-17
3.44378e-18
2.62138e-18
2.49777e-23
2.7278e-24
7.39143e-24
6.08885e-24
3.82149e-24
1.10898e-22
1.67801e-20
2.20342e-18
2.34572e-16
8.73061e-13
9.26705e-11
5.33635e-10
1.54448e-09
5.63505e-09
3.20352e-09
2.77826e-09
1.77792e-08
6.18789e-08
6.39957e-08
9.9357e-09
8.66501e-09
9.0735e-09
1.72111e-07
3.42028e-07
3.76106e-07
4.42877e-07
2.66504e-07
5.5588e-10
4.05019e-14
2.18701e-14
6.38845e-15
4.66264e-15
8.38622e-14
5.62113e-13
1.96228e-12
5.5004e-12
2.25239e-11
1.88747e-10
8.49529e-10
5.69933e-10
6.67971e-10
1.29888e-09
7.77882e-10
1.46464e-10
1.35204e-11
2.71595e-12
5.98323e-13
7.10705e-14
3.24031e-15
9.14374e-17
1.76686e-16
2.34788e-14
1.17535e-12
1.18442e-11
4.7358e-12
4.01997e-10
8.59094e-09
1.20681e-08
5.31933e-09
2.54387e-09
5.24499e-09
5.8281e-09
3.97087e-09
5.57127e-09
8.95647e-09
8.66729e-09
2.6027e-09
4.93198e-10
4.90576e-10
3.73415e-06
7.21784e-06
3.65804e-06
1.2842e-09
2.14516e-11
2.79823e-13
9.55469e-15
6.34845e-16
5.80535e-18
1.76496e-19
1.31501e-19
6.70373e-25
7.2704e-26
2.04806e-25
6.20595e-26
2.6106e-26
3.80612e-24
8.02372e-22
1.41401e-19
2.05454e-17
2.15492e-13
1.71479e-11
1.07076e-10
1.67356e-10
4.06482e-09
1.36199e-07
2.09268e-07
7.46706e-08
1.13317e-08
8.90649e-09
8.66501e-09
8.66501e-09
1.10464e-08
2.35161e-07
2.37813e-07
1.56573e-07
4.45603e-07
4.42877e-07
6.92416e-08
3.76184e-13
8.6407e-14
1.87235e-14
3.45488e-15
2.65656e-14
2.68163e-13
1.19772e-12
3.90573e-12
1.74446e-11
1.47331e-10
6.95045e-10
5.04681e-10
6.04136e-10
1.23601e-09
6.57751e-10
9.16563e-11
7.94993e-12
1.69927e-12
3.23037e-13
2.94491e-14
1.05841e-15
3.83809e-17
5.93385e-17
1.55045e-14
7.74457e-13
5.44166e-12
4.64649e-12
6.14522e-10
5.42497e-09
1.20681e-08
6.92452e-09
2.59399e-09
7.87805e-09
9.22544e-09
9.10969e-09
9.0547e-09
8.97695e-09
7.77799e-09
1.55988e-09
5.15799e-10
1.17115e-06
7.21434e-06
7.2107e-06
2.58591e-06
5.73468e-10
8.07469e-12
1.61306e-13
7.65078e-14
1.45284e-15
4.33339e-18
1.90243e-20
6.83811e-21
1.88029e-26
2.1594e-27
6.46338e-27
2.28993e-27
1.30672e-28
1.07395e-26
4.08967e-24
2.01876e-21
4.77954e-19
1.65988e-15
1.1772e-12
3.59305e-11
2.77209e-10
2.3471e-11
1.18946e-07
2.66009e-07
2.70933e-07
1.16609e-07
8.81109e-09
8.66667e-09
8.66501e-09
8.66667e-09
5.81785e-08
1.0791e-07
1.46923e-07
4.53171e-07
4.45298e-07
1.04259e-07
5.21519e-12
5.65162e-14
3.21817e-14
3.45488e-15
1.16114e-14
1.41366e-13
7.61873e-13
2.84919e-12
1.43781e-11
1.25656e-10
5.85735e-10
4.45459e-10
5.54496e-10
1.19895e-09
5.2538e-10
5.43598e-11
5.16713e-12
1.10401e-12
1.81785e-13
1.40548e-14
4.86871e-16
1.88473e-17
1.6984e-17
7.00379e-15
4.04851e-13
2.43816e-12
4.6345e-12
1.77807e-10
4.95385e-09
1.2064e-08
8.47001e-09
2.67947e-09
5.44991e-09
9.13208e-09
9.13575e-09
9.05575e-09
6.6504e-09
3.73656e-09
1.59285e-09
4.70239e-07
7.13311e-06
7.21353e-06
5.06753e-06
3.44058e-07
7.08702e-11
1.58636e-12
6.72358e-13
3.49245e-14
3.52625e-16
1.4443e-18
3.48461e-21
4.00555e-22
5.20232e-28
6.43878e-29
2.07223e-28
1.61092e-28
1.5408e-29
1.19951e-28
1.07395e-26
4.08967e-24
2.03053e-21
1.42689e-18
2.58747e-14
4.41387e-12
1.32267e-10
1.69549e-12
5.24645e-09
2.70933e-07
2.7176e-07
2.75406e-07
2.44251e-07
2.24934e-07
1.44912e-07
3.16514e-08
3.26863e-08
3.42621e-08
3.03345e-07
4.59138e-07
4.48472e-07
4.92663e-08
1.31745e-11
1.44491e-13
4.34557e-15
3.45488e-15
7.08642e-15
8.48366e-14
5.08837e-13
2.12876e-12
1.23578e-11
1.11571e-10
5.14743e-10
3.91861e-10
5.16054e-10
1.16584e-09
4.07872e-10
3.39283e-11
3.68309e-12
7.36919e-13
1.08396e-13
7.8422e-15
2.86877e-16
1.07908e-17
4.52445e-18
2.39655e-15
1.59184e-13
1.01176e-12
1.3684e-12
5.90818e-11
2.75432e-09
9.20967e-09
9.21748e-09
6.05787e-09
3.96243e-09
3.96243e-09
4.10693e-09
4.26216e-09
4.36217e-09
4.39156e-09
3.56901e-09
2.18084e-06
6.27719e-06
4.89511e-06
3.99217e-07
3.14044e-10
2.39265e-11
3.07689e-12
2.25166e-13
3.72998e-15
2.81913e-17
1.49101e-19
3.88618e-22
2.44947e-23
1.40118e-29
1.95426e-30
6.47402e-30
6.40674e-30
1.26232e-29
4.97107e-30
1.19951e-28
2.82779e-26
6.58104e-24
3.34902e-18
1.11833e-15
2.66025e-13
1.45846e-11
9.59856e-14
1.69549e-12
4.43813e-08
2.17523e-07
2.78977e-07
2.80318e-07
2.80907e-07
2.80674e-07
2.50734e-07
6.11469e-08
9.67637e-08
4.60801e-07
4.60478e-07
3.31893e-07
1.20818e-08
9.69659e-12
1.54747e-13
5.46706e-15
3.71262e-15
5.0927e-15
5.73208e-14
3.57879e-13
1.63695e-12
1.07407e-11
1.03005e-10
4.60164e-10
3.40486e-10
4.85802e-10
1.11412e-09
3.11078e-10
2.3471e-11
2.78427e-12
5.05708e-13
6.93081e-14
5.00748e-15
1.97789e-16
7.09602e-18
9.96959e-19
6.14814e-16
4.92227e-14
3.33365e-13
5.36739e-13
1.80705e-12
2.67899e-10
2.6974e-09
8.39742e-09
1.02892e-08
1.06652e-08
6.30626e-09
4.10902e-09
4.09425e-09
4.26332e-09
4.19449e-08
1.64756e-07
1.07276e-06
5.87067e-07
1.37952e-07
7.35864e-10
2.13278e-11
7.98991e-12
8.50572e-13
1.51832e-14
1.62199e-16
1.21895e-18