/*--------------------------------*- C++ -*----------------------------------*\
| =========                 |                                                 |
| \\      /  F ield         | OpenFOAM: The Open Source CFD Toolbox           |
|  \\    /   O peration     | Version:  2412                                  |
|   \\  /    A nd           | Website:  www.openfoam.com                      |
|    \\/     M anipulation  |                                                 |
\*---------------------------------------------------------------------------*/
FoamFile
{
    version     2.0;
    format      ascii;
    arch        "LSB;label=32;scalar=64";
    class       volScalarField;
    location    "8.65";
    object      alpha.molasses;
}
// * * * * * * * * * * * * * * * * * * * * * * * * * * * * * * * * * * * * * //

dimensions      [0 0 0 0 0 0 0];

internalField   nonuniform List<scalar> 
6400
(
0.999999
1
1
1
1
1
1
1
1
1
1
1
1
1
1
1
1
1
1
1
1
1
1
1
1
1
1
1
1
1
0.999999
0.999999
0.999998
0.999998
0.999997
0.999997
0.999996
0.999996
0.999996
0.999996
0.999996
0.999996
0.999996
0.999997
0.999997
0.999997
0.999997
0.999998
0.999998
0.999999
0.999999
0.999999
1
1
1
1
1
1
1
1
1
0.999999
0.999999
0.999999
1
1
1
1
1
1
1
1
1
1
1
1
1
1
1
1
1
1
1
1
1
1
1
1
1
1
1
1
1
1
1
1
1
1
1
0.999999
0.999999
0.999999
0.999999
1
1
1
1
1
1
1
0.999999
0.999998
0.999998
0.999997
0.999997
0.999996
0.999996
0.999996
0.999996
0.999996
0.999996
0.999996
0.999996
0.999996
0.999996
0.999997
0.999997
0.999997
0.999998
0.999999
0.999999
1
1
1
1
1
1
1
1
0.999999
0.999999
0.999999
0.999999
1
1
1
1
1
1
1
1
1
1
1
1
1
1.00001
1.00001
1.00001
1
1
1
1
1
1
1
1
1
1
1
1
1
1
1
1
1
1
1
0.999999
0.999999
0.999999
0.999999
0.999999
0.999999
1
1
1
1
0.999999
0.999999
0.999998
0.999998
0.999998
0.999997
0.999997
0.999997
0.999997
0.999997
0.999997
0.999997
0.999997
0.999997
0.999997
0.999997
0.999997
0.999997
0.999997
0.999998
0.999999
0.999999
1
1
1
1
1
1
1
1
1
1
1
1
1
1
1
1
1
1
1
1
1
1
1
1
1
1
1
1
1.00001
1
1
1
1
1
1
1
1
1
1
1
1
1
1
1
1
1
0.999999
0.999999
0.999999
0.999998
0.999998
0.999998
0.999999
0.999999
0.999999
0.999999
0.999999
0.999999
0.999999
0.999999
0.999998
0.999998
0.999998
0.999998
0.999998
0.999997
0.999997
0.999997
0.999997
0.999997
0.999997
0.999996
0.999996
0.999996
0.999997
0.999997
0.999997
0.999998
0.999999
0.999999
1
1
1
1
1
1
1
1
1
1
1
1
1
1
1
1
1
1
1
1
1
1
1
1
1
1
1
1
1
1
1
1
1
1
1
1
1
1
1
1
0.999999
1
1
1
1
0.999999
0.999999
0.999999
0.999998
0.999998
0.999998
0.999998
0.999999
0.999999
0.999999
0.999999
0.999999
0.999999
0.999999
0.999999
0.999999
0.999999
0.999998
0.999998
0.999998
0.999998
0.999997
0.999997
0.999997
0.999997
0.999997
0.999997
0.999997
0.999997
0.999997
0.999997
0.999997
0.999998
0.999998
0.999999
0.999999
0.999999
0.999999
0.999999
0.999999
1
0.999999
1
1
1
1
1
1
1
1
1
1
1
1
1
1
1
1
1
1
1
1
1
1
1
1
1
1
1
1
1
1
1
1
1
1
1
1
1
1
0.999999
0.999999
0.999999
0.999999
0.999999
0.999999
0.999999
0.999999
0.999999
1
1
1
1
1
1
0.999999
0.999999
0.999999
0.999999
0.999999
0.999998
0.999998
0.999998
0.999998
0.999998
0.999998
0.999998
0.999998
0.999998
0.999998
0.999998
0.999998
0.999998
0.999998
0.999998
0.999999
0.999999
0.999999
0.999999
0.999999
0.999999
0.999999
0.999999
0.999999
0.999999
1
1
1
1
1
1
1
1
1
1
1
1
1
1
1
1
1
1
1
1
1
1
1
1
1
1
1
1
1
1
1
1
1
1
1
1
0.999999
0.999999
0.999999
0.999999
0.999999
0.999999
0.999999
0.999999
1
1
1
1
1
1
1
0.999999
0.999999
0.999999
0.999998
0.999998
0.999998
0.999999
0.999999
0.999999
1
1
0.999999
0.999999
0.999999
0.999999
0.999999
0.999999
0.999999
1
1
1
1
0.999999
0.999999
0.999999
0.999998
0.999998
0.999998
0.999999
1
1
1
1
1
1
1
1
1
1
1
1
1
1
1
1
1
1
1
1
1
1
1
1
1
1
1
1
1
1
1
1
1
0.999999
0.999999
0.999999
0.999999
0.999998
0.999998
0.999998
0.999998
0.999998
0.999998
0.999999
0.999999
0.999999
0.999999
0.999999
0.999999
0.999999
0.999999
0.999998
0.999998
0.999998
0.999998
0.999999
0.999999
1
1
1
1
1
1
1
1
1
1
1
1
1
1
1
1
1
1
0.999999
0.999998
0.999998
0.999998
0.999999
0.999999
1
1
1
1
1
1
1
1
1
1
1
1
1
1
1
1
1
1
1
1
1
1
1
1
1
1
1
0.999999
0.999999
0.999999
0.999999
0.999999
0.999999
0.999998
0.999998
0.999998
0.999998
0.999997
0.999997
0.999997
0.999997
0.999997
0.999998
0.999998
0.999998
0.999998
0.999998
0.999998
0.999998
0.999997
0.999997
0.999997
0.999997
0.999998
0.999999
1
1
1
1
1
1
1
1
1
1
1
1
1
1
1
1
1
1
1
0.999999
0.999998
0.999998
0.999998
0.999998
0.999999
0.999999
0.999999
0.999999
1
1
1
1
1
1
1
1
1
1
1
1
1
1
1
1
1
1
1
1
1
1
1
0.999999
0.999999
0.999999
0.999999
0.999999
0.999999
0.999999
0.999998
0.999998
0.999998
0.999997
0.999997
0.999997
0.999997
0.999997
0.999997
0.999997
0.999998
0.999998
0.999998
0.999998
0.999998
0.999997
0.999997
0.999997
0.999998
0.999998
0.999999
1
1
1
1
1
1
1
1
1
1
0.999999
0.999999
0.999998
0.999999
0.999999
0.999999
0.999999
1
1
1
0.999999
0.999998
0.999998
0.999998
0.999998
0.999998
0.999999
0.999999
0.999999
0.999999
0.999999
1
1
1
1
1
1
1
1
1
1
1
1
1
1
1
1
1
1
1
1
1
1
1
0.999999
1
1
0.999999
0.999999
0.999999
0.999999
0.999998
0.999998
0.999998
0.999998
0.999998
0.999998
0.999998
0.999998
0.999998
0.999999
0.999999
0.999998
0.999998
0.999998
0.999998
0.999998
0.999999
0.999999
1
1
0.999999
0.999999
0.999998
0.999998
0.999998
0.999998
0.999998
0.999997
0.999997
0.999997
0.999996
0.999996
0.999997
0.999997
0.999997
0.999998
0.999999
0.999999
0.999999
0.999999
0.999998
0.999998
0.999998
0.999998
0.999998
0.999999
0.999999
1
1
1
1
1
1
1
1
1
1
1
1
1
1
1
1
1
1
1
1
1
1
1
1
1
1
1
1
1
1
1
1
0.999999
0.999999
0.999999
0.999998
0.999998
0.999998
0.999998
0.999998
0.999999
0.999999
0.999999
0.999999
0.999998
0.999998
0.999998
0.999998
0.999998
0.999998
0.999998
0.999998
0.999997
0.999996
0.999995
0.999994
0.999994
0.999993
0.999993
0.999993
0.999994
0.999994
0.999995
0.999995
0.999995
0.999996
0.999997
0.999997
0.999998
0.999998
0.999999
0.999999
0.999999
0.999999
0.999998
0.999998
0.999998
0.999999
0.999999
1
1
1
1
1
1
1
1
1
1
1
1
1
1
1
1
1
1
1
1
1
1
1
1
1
1
1
1
1
1
1
1
1
0.999999
0.999999
0.999999
0.999998
0.999998
0.999998
0.999998
0.999998
0.999998
0.999998
0.999998
0.999998
0.999998
0.999998
0.999997
0.999997
0.999997
0.999997
0.999997
0.999995
0.999994
0.999993
0.999992
0.99999
0.999989
0.999989
0.999989
0.99999
0.999991
0.999993
0.999994
0.999994
0.999993
0.999995
0.999995
0.999996
0.999997
0.999998
0.999999
0.999999
0.999999
0.999999
0.999998
0.999998
0.999998
0.999998
0.999999
0.999999
1
1
1
1
1
1
1
1
1
1
1
1
1
1
1
1
1
1
1
1
1
1
1
1
1
1
1
1
1
1
1
1
0.999999
0.999999
0.999999
0.999998
0.999998
0.999998
0.999998
0.999998
0.999999
0.999999
0.999999
0.999998
0.999998
0.999998
0.999998
0.999998
0.999998
0.999997
0.999996
0.999994
0.999992
0.999991
0.999989
0.999988
0.999987
0.999987
0.999988
0.999988
0.999989
0.999991
0.999992
0.999993
0.999992
0.999992
0.999994
0.999996
0.999996
0.999997
0.999998
0.999999
0.999999
0.999999
0.999998
0.999998
0.999998
0.999998
0.999999
0.999999
1
1
1
1
1
1
1
1
1
1
1
1
1
1
1
1
1
1
1
1
1
1
1
1
1
1
1
1
1
1
1
0.999999
0.999999
0.999999
0.999998
0.999998
0.999998
0.999998
0.999998
0.999998
0.999999
0.999999
0.999999
0.999999
0.999999
0.999999
0.999999
0.999999
0.999998
0.999997
0.999996
0.999994
0.999993
0.999993
0.999993
0.999994
0.999992
0.99999
0.999991
0.999991
0.999991
0.999992
0.999995
0.999998
0.999997
0.999995
0.999995
0.999997
0.999998
0.999999
0.999999
0.999999
0.999999
0.999999
0.999998
0.999998
0.999998
0.999998
0.999999
0.999999
1
1
1
1
1
1
1
1
1
1
1
1
1
1
1
1
1
1
1
1
1
0.999999
0.999999
0.999999
0.999999
0.999999
0.999999
0.999999
0.999999
0.999999
0.999998
0.999998
0.999997
0.999997
0.999996
0.999996
0.999996
0.999996
0.999996
0.999996
0.999997
0.999997
0.999997
0.999997
0.999997
0.999997
0.999997
0.999997
0.999996
0.999995
0.999995
0.999994
0.999994
0.999993
0.999994
0.999994
0.999994
0.999992
0.999991
0.999991
0.999992
0.999992
0.999995
0.999998
0.999999
0.999997
0.999995
0.999995
0.999996
0.999997
0.999998
0.999998
0.999998
0.999998
0.999997
0.999997
0.999996
0.999996
0.999997
0.999997
0.999997
0.999998
0.999998
0.999998
0.999999
0.999999
0.999999
1
1
1
1
1
1
1
1
1
1
1
1
1
1
1
1
1
1
1
1
1
1
1
0.999999
0.999999
0.999998
0.999998
0.999998
0.999998
0.999997
0.999997
0.999997
0.999997
0.999997
0.999997
0.999997
0.999997
0.999997
0.999997
0.999996
0.999996
0.999995
0.999995
0.999995
0.999995
0.999995
0.999993
0.999991
0.999991
0.999992
0.999989
0.999988
0.999991
0.999994
0.999996
0.999997
1
1
1
1
1
0.999999
0.999998
0.999998
0.999998
0.999998
0.999997
0.999997
0.999997
0.999997
0.999997
0.999997
0.999998
0.999998
0.999998
0.999999
0.999999
0.999999
0.999999
1
1
1
1
1
1
1
1
1
1
0.999999
1
1
1
1
1
1
1
1
1
1
1
1
1
1
1
1
1
1
1
1
1
1
1
1
1
1
0.999999
0.999998
0.999997
0.999996
0.999996
0.999995
0.999995
0.999995
0.999995
0.999995
0.999995
0.999994
0.999993
0.999992
0.99999
0.999992
0.999994
0.999995
0.999996
0.999987
0.999985
0.999987
0.999989
0.999992
0.999995
0.999996
0.999998
0.999999
1
1
1
1
1
1
1
1
1
1
1
1
1
1
1
1
1
1
1
1
1
1
1
1
1
1
1
1
1
1
1
1
1
1
1
1
1
1
1
1
1
1
1
1
1
1
1
1
1.00001
1.00001
1.00001
1.00001
1.00001
1.00001
1
1
0.999998
0.999996
0.999995
0.999995
0.999995
0.999995
0.999994
0.999844
0.995256
0.989791
0.989562
0.994905
0.999746
0.999994
0.999995
0.999991
0.999986
0.999988
0.999993
0.999998
1
1
1
1
1
1
1
1
1
1
1
1
1
1
1
1
1
1
1
1
1
1
1
1
1
1
1
1
1
1
1
1
1
1
1
1
1
1
1
1
1
1
1
1
1
1
1
1
1
1
1
1
1
1
1
1
1
0.999275
0.996556
0.99137
0.983104
0.970847
0.953155
0.927301
0.885072
0.805847
0.698485
0.584796
0.492644
0.446755
0.445277
0.488891
0.577891
0.692268
0.800727
0.881761
0.925727
0.952153
0.970187
0.982673
0.991106
0.996408
0.999218
1
1.00001
1
1
1
1
1
1
1
1
1
1
1
1
1
1
1
1
1
1
1
1
1
1
1
1
1
0.0218445
0.0335407
0.0421034
0.0491984
0.0549953
0.0598729
0.0641188
0.0679329
0.0714622
0.0748169
0.0780782
0.0813038
0.0845309
0.0877783
0.0910469
0.0943196
0.0975608
0.100715
0.103705
0.106431
0.108763
0.110545
0.111581
0.111642
0.11045
0.107669
0.102895
0.0963708
0.0887423
0.0796853
0.0687531
0.0554065
0.0392114
0.019319
6.31323e-09
7.63243e-09
9.73512e-08
0.00480679
0.0113959
0.012514
0.0129286
0.0118017
0.00345461
1.10549e-07
9.72168e-09
9.10394e-09
0.0183509
0.0385172
0.0549029
0.0684184
0.0794931
0.08867
0.0963966
0.103003
0.107889
0.110758
0.112014
0.112001
0.110997
0.109237
0.106917
0.104198
0.101207
0.0980485
0.0947996
0.0915168
0.0882364
0.0849757
0.0817342
0.0784934
0.0752159
0.0718439
0.068296
0.0644615
0.0601924
0.0552879
0.049459
0.0423246
0.0337148
0.0219542
6.61604e-09
2.48695e-09
5.72945e-09
9.05191e-09
1.23222e-08
1.54666e-08
1.83815e-08
2.10197e-08
2.33528e-08
2.53536e-08
2.69918e-08
2.82322e-08
2.90321e-08
2.93433e-08
2.91144e-08
2.82972e-08
2.68554e-08
2.47757e-08
2.20827e-08
1.88479e-08
1.52069e-08
1.13301e-08
7.60327e-09
4.2942e-09
1.73363e-09
5.45937e-12
9.29094e-12
9.29037e-12
9.29592e-12
9.34076e-12
9.7325e-12
2.56926e-11
5.81963e-10
2.37155e-09
4.08887e-09
9.58136e-08
0.0573422
0.244333
0.358995
0.357065
0.357475
0.361367
0.254283
0.0642213
1.09798e-07
6.40743e-09
3.2268e-09
1.03481e-09
1.15459e-10
1.75304e-11
1.3365e-11
1.23312e-11
1.22633e-11
1.22639e-11
7.52925e-12
1.77041e-09
4.38845e-09
7.7769e-09
1.16115e-08
1.5571e-08
1.93088e-08
2.26325e-08
2.53991e-08
2.75357e-08
2.90149e-08
2.98509e-08
3.00817e-08
2.97572e-08
2.89304e-08
2.76512e-08
2.59643e-08
2.39068e-08
2.15105e-08
1.8804e-08
1.58153e-08
1.25973e-08
9.24971e-09
5.83759e-09
2.51169e-09
6.73283e-09
1.14296e-11
1.69478e-12
4.96674e-12
8.88317e-12
1.30459e-11
1.72214e-11
2.09845e-11
2.46725e-11
2.81287e-11
3.10799e-11
3.33185e-11
3.45772e-11
3.4614e-11
3.30547e-11
2.94341e-11
2.33421e-11
1.47544e-11
4.43043e-12
-4.73212e-12
-4.13463e-12
-2.7924e-12
-1.3052e-11
3.95752e-13
-1.53438e-13
3.8328e-13
9.87018e-13
1.49559e-11
7.52103e-11
2.47141e-10
9.7325e-12
3.41936e-08
1.52651e-06
3.56704e-06
3.38276e-06
1.58e-06
2.57353e-07
0.0277227
0.312818
0.401491
0.401491
0.401491
0.401491
0.336665
0.0351545
3.04773e-07
1.62767e-06
3.26005e-06
4.09751e-06
2.38101e-06
2.90628e-07
5.55797e-09
6.0583e-09
6.72874e-10
1.47605e-11
1.60075e-12
4.26555e-13
-6.46059e-14
1.88554e-13
-8.79068e-12
7.81102e-14
6.63821e-14
3.21904e-12
1.5173e-11
3.1449e-11
4.46655e-11
5.33421e-11
5.79091e-11
5.89632e-11
5.72892e-11
5.33784e-11
4.83361e-11
4.24292e-11
3.58385e-11
2.90248e-11
1.95316e-11
1.42733e-11
9.77419e-12
5.49635e-12
1.88888e-12
1.71757e-11
2.65585e-14
2.46228e-15
7.63345e-15
1.39168e-14
2.12588e-14
2.96291e-14
3.86035e-14
4.80255e-14
5.76893e-14
6.72292e-14
7.60281e-14
8.31044e-14
8.7102e-14
8.61437e-14
7.80047e-14
6.10842e-14
3.64712e-14
-4.1113e-15
6.37991e-15
7.50218e-15
1.57534e-14
6.0381e-14
7.75009e-14
3.81673e-13
3.83279e-13
3.84994e-13
1.50133e-12
2.96169e-12
3.55459e-11
1.15884e-07
1.69619e-06
7.81496e-06
2.0969e-05
2.09798e-05
1.24126e-05
2.32025e-07
2.82893e-07
0.0452505
0.401491
0.401491
0.401491
0.40149
0.0611196
3.32442e-07
2.62505e-07
6.41071e-06
1.99412e-05
1.99412e-05
1.76742e-05
5.5783e-06
5.07037e-07
1.80151e-10
5.91105e-12
1.61272e-12
4.27539e-13
4.06459e-13
2.20392e-13
2.05395e-13
1.27674e-13
7.58748e-14
6.61161e-14
3.69538e-14
7.8764e-14
1.33937e-13
1.72072e-13
1.91112e-13
1.94519e-13
1.8658e-13
1.71323e-13
1.52534e-13
1.32835e-13
1.134e-13
9.46697e-14
7.68513e-14
6.00364e-14
4.21452e-14
2.65552e-14
1.37123e-14
4.33115e-15
3.86976e-14
8.55136e-17
4.86099e-18
1.55881e-17
2.90433e-17
4.60643e-17
6.73434e-17
9.29993e-17
1.23383e-16
1.58879e-16
1.9939e-16
2.43754e-16
2.88867e-16
3.28606e-16
3.52612e-16
3.45098e-16
2.9018e-16
2.13356e-16
6.1586e-16
6.19864e-15
4.59457e-14
1.60342e-12
1.14041e-11
2.00287e-12
3.83293e-13
3.84994e-13
4.39655e-13
1.36156e-12
1.60731e-11
2.81419e-10
7.96175e-07
4.34176e-06
4.81192e-06
3.36216e-06
1.67575e-06
2.26573e-07
2.26052e-07
2.32025e-07
0.00551224
0.232774
0.290418
0.295023
0.251356
0.0100233
2.62505e-07
2.59975e-07
2.60323e-07
1.27477e-06
5.87879e-06
9.38525e-06
9.38534e-06
4.3129e-06
1.45408e-09
1.98262e-08
2.74935e-08
1.20091e-08
4.19586e-13
2.92943e-13
2.20431e-13
8.50048e-12
2.70548e-12
1.88554e-13
2.34814e-14
5.22842e-15
4.25191e-15
3.41961e-15
2.61559e-15
2.01759e-15
1.56574e-15
1.21e-15
9.30834e-16
7.14387e-16
5.45853e-16
4.12608e-16
3.05817e-16
2.19431e-16
1.49511e-16
9.39966e-17
5.04546e-17
1.59139e-17
1.1313e-16
8.77171e-18
1.95571e-20
7.17452e-20
1.06632e-19
1.26835e-19
1.90004e-19
2.77919e-19
3.93795e-19
5.44883e-19
7.38975e-19
9.82257e-19
1.27109e-18
1.58384e-18
1.86305e-18
2.00181e-18
2.17696e-18
2.47406e-17
5.65847e-16
2.60595e-15
6.00636e-14
7.78071e-13
4.12381e-12
7.83156e-10
7.78816e-08
1.71085e-07
1.68246e-07
6.69081e-08
7.34422e-11
4.04117e-10
4.84537e-10
8.47547e-10
1.44928e-09
1.94072e-09
2.51169e-09
2.37897e-07
1.11185e-06
1.95097e-06
0.00055701
1.53467e-11
1.68929e-11
3.06876e-11
3.67958e-11
0.000480024
4.38197e-07
3.90643e-07
2.74221e-07
1.49616e-08
6.56887e-09
6.5107e-09
7.39926e-09
2.56376e-09
2.57152e-09
1.7933e-07
1.10857e-06
1.11269e-06
1.11006e-06
1.78402e-07
1.51565e-12
6.54527e-12
1.06932e-12
1.53509e-13
9.61928e-15
4.49383e-15
3.54974e-15
2.51339e-15
1.629e-15
1.05642e-15
6.94089e-16
4.57821e-16
3.03001e-16
2.02111e-16
1.36003e-16
9.18258e-17
6.16353e-17
4.06045e-17
2.57316e-17
1.52058e-17
7.80009e-18
2.30116e-18
1.19461e-17
5.01135e-20
3.78951e-22
3.08665e-21
2.79845e-21
7.34633e-22
1.02886e-21
1.39445e-21
1.8505e-21
2.41264e-21
3.27488e-21
4.75805e-21
6.76886e-21
9.31857e-21
1.21527e-20
1.5716e-20
1.62388e-19
5.94109e-18
1.77625e-16
9.4299e-15
1.92215e-13
1.87391e-12
6.17435e-11
5.84589e-08
1.76409e-07
1.75465e-07
9.68227e-08
1.82424e-10
1.01683e-10
3.01796e-09
2.13199e-08
3.80057e-08
4.39548e-08
7.73444e-08
2.00372e-07
5.51545e-07
2.60164e-06
7.85561e-06
1.52596e-11
1.52483e-11
1.76589e-11
4.16655e-11
3.66587e-11
3.67958e-11
4.2628e-10
1.91753e-10
1.94819e-10
1.46898e-07
2.32391e-07
2.32378e-07
2.32249e-07
4.88231e-08
2.57152e-09
2.77286e-09
3.02007e-09
4.0444e-07
8.59471e-07
2.00207e-07
2.96443e-10
1.15744e-11
7.11567e-13
1.36082e-13
5.23389e-15
7.48015e-16
4.1949e-16
2.22672e-16
1.06859e-16
5.18114e-17
2.61046e-17
1.35068e-17
7.15682e-18
3.90052e-18
2.18886e-18
1.2566e-18
7.30262e-19
4.23884e-19
2.40862e-19
1.29842e-19
6.19289e-20
1.7183e-20
7.59127e-20
1.16163e-22
3.89068e-24
2.1764e-23
2.96372e-23
2.65851e-23
1.33659e-23
7.37113e-24
1.08081e-23
1.61153e-23
2.4211e-23
3.66537e-23
5.58183e-23
8.18963e-23
1.0137e-22
2.36989e-22
1.78697e-20
3.2992e-19
3.55897e-17
2.61661e-15
4.07574e-14
1.8607e-12
6.94364e-11
7.73924e-08
1.76409e-07
1.76409e-07
4.46341e-08
6.29024e-11
7.53405e-11
1.28569e-08
5.46605e-08
5.49001e-08
5.36043e-08
1.15103e-08
3.28302e-11
2.55239e-11
2.42558e-11
2.43546e-11
2.32483e-11
3.82624e-11
6.92896e-11
1.49694e-10
1.74405e-10
1.93394e-10
1.93374e-10
2.01937e-10
1.92042e-10
1.79436e-10
1.78224e-10
1.82162e-10
1.66734e-10
8.67574e-10
5.89376e-09
5.87991e-09
2.99893e-09
2.98765e-08
2.12572e-07
1.47527e-07
3.97839e-09
6.88071e-12
3.90177e-13
9.42646e-14
2.59979e-15
5.24865e-17
8.91073e-18
3.06425e-18
1.08616e-18
3.97859e-19
1.58552e-19
6.80704e-20
3.10445e-20
1.49697e-20
7.58562e-21
3.99412e-21
2.15585e-21
1.17485e-21
6.33312e-22
3.27583e-22
1.51003e-22
4.16909e-23
1.98001e-22
4.35812e-25
2.43752e-26
1.15708e-25
1.99156e-25
2.6135e-25
2.65753e-25
2.15294e-25
8.55822e-26
1.04607e-25
1.72176e-25
2.91143e-25
5.00112e-25
7.694e-25
1.19931e-24
2.70364e-24
2.06818e-22
1.29454e-20
1.74386e-18
2.86825e-16
1.49083e-14
4.31817e-13
1.9037e-11
3.07156e-08
1.75095e-07
1.69868e-07
1.89851e-08
6.15584e-11
7.27548e-11
7.51336e-11
6.31089e-11
1.58049e-10
1.54489e-10
1.67924e-10
5.32336e-10
2.46747e-10
6.82045e-11
4.47836e-11
5.09157e-11
5.50718e-11
7.70323e-11
1.87468e-10
2.55116e-10
2.76385e-10
3.42105e-10
5.02478e-10
5.41643e-10
5.12856e-10
4.38582e-10
3.12223e-10
1.64088e-10
1.34511e-10
9.28392e-10
5.9831e-09
4.31804e-09
2.66945e-10
1.47276e-08
4.99649e-08
1.00913e-08
4.33033e-12
1.80529e-13
4.53721e-14
1.09478e-15
1.0394e-17
2.03598e-19
2.83911e-20
9.10248e-21
3.25339e-21
1.21477e-21
4.86807e-22
2.07646e-22
9.36803e-23
4.44685e-23
2.20009e-23
1.12119e-23
5.80448e-24
2.99444e-24
1.49477e-24
6.69926e-25
1.81999e-25
8.32549e-25
1.86148e-27
1.35309e-28
6.23235e-28
1.19388e-27
1.86972e-27
2.62219e-27
3.19477e-27
3.50852e-27
3.36588e-27
2.38829e-27
2.42239e-27
4.62251e-27
8.1676e-27
8.35083e-27
1.61322e-26
5.1709e-25
7.66297e-23
1.08407e-20
1.36235e-18
1.56369e-16
1.75467e-14
1.14803e-12
2.55006e-09
4.01272e-08
8.01309e-08
4.63001e-09
6.16174e-11
6.30099e-11
8.34454e-11
6.10958e-11
1.66063e-10
6.99555e-10
1.70884e-09
2.5782e-09
2.3364e-09
1.24807e-09
3.96176e-10
1.29047e-10
5.09537e-11
4.4861e-11
1.68044e-10
2.47549e-10
2.39873e-10
3.64261e-10
5.09425e-10
5.0326e-10
2.02944e-10
8.60434e-11
7.63088e-11
9.85625e-11
1.34235e-10
2.08509e-10
2.53117e-09
2.36292e-09
2.02534e-10
4.18157e-11
5.03767e-09
3.42699e-09
1.04298e-10
4.34765e-13
1.286e-14
2.00149e-16
2.17082e-18
1.83154e-20
5.60408e-22
1.25235e-22
4.03486e-23
1.36625e-23
4.8895e-24
1.87297e-24
7.64759e-25
3.31251e-25
1.50877e-25
7.14529e-26
3.47157e-26
1.69792e-26
8.11902e-27
3.51917e-27
9.34591e-28
4.01878e-27
8.44455e-30
7.52761e-31
3.44003e-30
7.08756e-30
1.24189e-29
2.04827e-29
3.20511e-29
4.84529e-29
6.84738e-29
9.74732e-29
1.45368e-28
2.48606e-28
5.37879e-28
7.21886e-28
1.61686e-28
1.31738e-27
1.60653e-25
2.61094e-23
3.32579e-21
3.06592e-19
2.65659e-17
1.75467e-14
2.13543e-12
7.93027e-11
4.88616e-10
2.80662e-10
8.10874e-11
6.09379e-11
5.65426e-11
4.91335e-11
3.69463e-11
2.53206e-11
2.32811e-11
2.50509e-09
3.26242e-09
3.26242e-09
1.77374e-09
5.0775e-10
8.27801e-11
2.8256e-11
1.06409e-10
1.91365e-10
1.67996e-10
1.67524e-10
1.68621e-10
8.05967e-11
3.54667e-11
2.32708e-11
2.26192e-11
3.27856e-11
4.89632e-11
9.44401e-11
2.7981e-10
3.83682e-10
2.82335e-11
1.44498e-11
1.8791e-11
3.18987e-10
2.29015e-11
1.38621e-13
1.35098e-15
1.65787e-17
1.79287e-19
1.50374e-21
1.67173e-23
1.97555e-24
5.40222e-25
1.63316e-25
5.20251e-26
1.78595e-26
6.59936e-27
2.61148e-27
1.09705e-27
4.83815e-28
2.21048e-28
1.02684e-28
4.71028e-29
1.97677e-29
5.13609e-30
2.07257e-29
4.02406e-32
4.27888e-33
1.95245e-32
4.2627e-32
8.10883e-32
1.49455e-31
2.7238e-31
4.93523e-31
9.04152e-31
1.6974e-30
3.35755e-30
7.23269e-30
1.84617e-29
5.34203e-29
7.48308e-30
1.23458e-29
1.25825e-27
1.60653e-25
2.61094e-23
3.32579e-21
3.06592e-19
2.65659e-17
2.26068e-12
4.20609e-12
9.33689e-12
4.27722e-11
6.44183e-11
5.37868e-11
4.01719e-11
2.96436e-11
2.15332e-11
1.71533e-11
2.32936e-11
1.24827e-11
4.9038e-10
2.05948e-09
2.12899e-09
8.65353e-10
1.45401e-10
2.33336e-11
6.57999e-11
1.57751e-10
1.43186e-10
1.26451e-10
1.04631e-10
3.52181e-11
1.0231e-11
6.32553e-12
6.41421e-12
1.09456e-11
1.73926e-11
2.36803e-11
2.54249e-11
2.568e-11
1.21648e-11
1.25027e-11
9.36439e-12
1.29919e-11
7.48528e-13
5.94341e-15
5.21501e-17
5.69129e-19
5.87446e-21
5.33027e-23
4.94051e-25
3.14837e-26
7.23862e-27
1.95311e-27
5.59608e-28
1.73738e-28
5.85468e-29
2.13062e-29
8.30152e-30
3.4255e-30
1.47756e-30
6.53981e-31
2.88501e-31
1.17447e-31
2.98954e-32
1.12984e-31
1.99155e-34
2.48828e-35
1.13761e-34
2.60964e-34
5.30749e-34
1.06552e-33
2.16617e-33
4.51613e-33
9.74676e-33
2.19134e-32
5.32115e-32
1.39593e-31
4.06536e-31
1.4263e-30
5.69183e-30
9.43448e-31
1.20589e-29
1.25825e-27
2.69014e-25
4.67198e-23
4.02379e-20
2.81062e-16
1.55866e-13
6.39563e-13
1.73494e-12
6.03662e-12
1.71241e-11
1.59562e-11
1.17784e-11
8.20779e-12
5.25084e-12
4.14428e-12
5.49885e-12
1.23814e-11
2.86976e-11
5.72003e-11
2.69786e-10
2.90682e-10
1.52394e-10
2.28959e-11
3.72285e-11
1.36095e-10
1.29116e-10
8.24337e-11
5.94938e-11
1.84692e-11
4.29895e-12
1.7053e-12
1.47568e-12
2.6666e-12
4.50188e-12
5.54329e-12
5.18835e-12
4.74601e-12
4.33853e-12
3.086e-12
1.22939e-12
3.0833e-13
8.00185e-15
8.47599e-17
9.56377e-19
1.088e-20
1.14376e-22
1.07399e-24
1.04497e-26
4.85833e-28
9.55284e-29
2.31297e-29
6.01803e-30
1.70571e-30
5.28316e-31
1.77988e-31
6.4684e-32
2.50924e-32
1.0259e-32
4.34047e-33
1.84613e-33
7.3042e-34
1.8239e-34
6.44199e-34
1.0122e-36
1.47548e-37
6.77055e-37
1.62339e-36
3.49944e-36
7.54682e-36
1.67447e-35
3.88617e-35
9.53222e-35
2.48779e-34
7.0212e-34
2.15049e-33
7.23973e-33
2.76999e-32
1.70226e-31
7.9538e-31
3.40023e-31
1.27935e-29
6.84823e-26
1.24067e-23
2.33559e-21
2.90798e-17
2.21085e-15
3.62911e-14
1.84692e-13
3.84036e-13
8.66663e-13
9.645e-13
7.94755e-13
5.60441e-13
3.88758e-13
4.79848e-13
1.31242e-12
5.4557e-12
2.22331e-11
4.08634e-11
5.06642e-11
4.78785e-11
3.79132e-11
2.03838e-11
2.00453e-11
1.12827e-10
1.25599e-10
5.46024e-11
3.50288e-11
1.13061e-11
2.16069e-12
5.0327e-13
2.2297e-13
2.46001e-13
4.79725e-13
6.42934e-13
6.50869e-13
5.45678e-13
5.2327e-13
1.63467e-13
4.41814e-14
6.05262e-15
1.24061e-16
1.28825e-18
1.4097e-20
1.64754e-22
1.72608e-24
1.63199e-26
1.6469e-28
7.01075e-30
1.22225e-30
2.68026e-31
6.39024e-32
1.66893e-32
4.78928e-33
1.50396e-33
5.12802e-34
1.87953e-34
7.31446e-35
2.96848e-35
1.22065e-35
4.70344e-36
1.15375e-36
3.80129e-36
5.22881e-39
8.87258e-40
4.08917e-39
1.02122e-38
2.32067e-38
5.33357e-38
1.27609e-37
3.2341e-37
8.78782e-37
2.57552e-36
8.23594e-36
2.88326e-35
1.11194e-34
4.77694e-34
2.34221e-33
3.16889e-32
1.65245e-31
4.65863e-30
1.64782e-27
3.20502e-25
4.54722e-23
2.64931e-19
3.01501e-17
6.02273e-16
4.58628e-15
8.40438e-15
1.06365e-14
1.32403e-14
1.11162e-14
9.5716e-15
1.8173e-14
9.24895e-14
4.68657e-13
2.21539e-12
8.32849e-12
2.5492e-11
3.82807e-11
3.72982e-11
3.1743e-11
1.99131e-11
1.35176e-11
8.60807e-11
1.25501e-10
4.54429e-11
2.24416e-11
7.82709e-12
1.36079e-12
2.75116e-13
4.78078e-14
1.25911e-14
1.1179e-14
1.69932e-14
1.91476e-14
1.42222e-14
1.16202e-14
2.39803e-15
7.54765e-16
1.10203e-16
2.2201e-18
2.21465e-20
2.24356e-22
2.31185e-24
2.23645e-26
2.05228e-28
2.10815e-30
9.30263e-32
1.49474e-32
3.00279e-33
6.62447e-34
1.60917e-34
4.3135e-35
1.27159e-35
4.09283e-36
1.42479e-36
5.30124e-37
2.07125e-37
8.25815e-38
3.10573e-38
7.49462e-39
2.29943e-38
2.71966e-41
5.37587e-42
2.48854e-41
6.45646e-41
1.54103e-40
3.7554e-40
9.62123e-40
2.63634e-39
7.81594e-39
2.52156e-38
8.95163e-38
3.50145e-37
1.51459e-36
7.15119e-36
3.69219e-35
2.33261e-34
6.33047e-33
1.17485e-31
1.64732e-29
3.16346e-27
5.19786e-25
2.0094e-21
2.88712e-19
5.12578e-18
5.08759e-17
9.31899e-17
9.86659e-17
1.09958e-16
1.1464e-16
4.68334e-16
4.63982e-15
3.65106e-14
1.94364e-13
8.30294e-13
3.08793e-12
9.72947e-12
2.19781e-11
2.92352e-11
2.8096e-11
1.88963e-11
1.21397e-11
6.40826e-11
1.16819e-10
4.37927e-11
1.69348e-11
6.2685e-12
9.8348e-13
1.90652e-13
2.9947e-14
3.33237e-15
3.46462e-16
8.62733e-17
5.90706e-17
5.14402e-17
6.49456e-17
2.08491e-17
1.05e-17
1.65799e-18
3.36864e-20
3.3604e-22
3.30013e-24
3.20871e-26
2.85171e-28
2.34789e-30
2.36444e-32
1.13129e-33
1.72898e-34
3.22074e-35
6.64424e-36
1.51511e-36
3.82487e-37
1.06608e-37
3.25932e-38
1.08343e-38
3.87149e-39
1.46171e-39
5.66753e-40
2.08498e-40
4.95684e-41
1.41377e-40
1.41046e-43
3.28105e-44
1.51446e-43
4.07523e-43
1.01878e-42
2.62311e-42
7.16324e-42
2.11026e-41
6.77075e-41
2.35868e-40
8.98722e-40
3.74887e-39
1.71369e-38
8.58131e-38
4.67993e-37
2.77875e-36
2.87944e-35
8.05429e-34
1.62356e-31
3.03992e-29
4.66625e-27
1.3342e-23
1.05027e-21
3.16979e-20
5.03802e-19
9.71091e-19
9.82047e-19
1.5078e-18
1.03313e-17
1.56845e-16
1.91032e-15
1.6195e-14
8.90288e-14
3.73985e-13
1.35569e-12
4.28208e-12
1.12181e-11
1.83823e-11
1.82295e-11
1.30108e-11
1.10613e-11
5.26753e-11
9.73842e-11
4.38905e-11
1.34249e-11
5.20073e-12
7.48159e-13
1.33562e-13
1.97113e-14
1.99555e-15
1.533e-16
9.67087e-18
2.19917e-19
7.9945e-20
1.08247e-19
1.6761e-19
1.24372e-19
1.98162e-20
4.1625e-22
4.31636e-24
4.23959e-26
4.02475e-28
3.42617e-30
2.67252e-32
2.57456e-34
1.26339e-35
1.86287e-36
3.28137e-37
6.40041e-38
1.38272e-38
3.31406e-39
8.79567e-40
2.57011e-40
8.20118e-41
2.82728e-41
1.0354e-41
3.91582e-42
1.41233e-42
3.3127e-43
8.76692e-43
7.22769e-46
2.00392e-46
9.0994e-46
2.53318e-45
6.5854e-45
1.7702e-44
5.06448e-44
1.56452e-43
5.26185e-43
1.93014e-42
7.75172e-42
3.40172e-41
1.62751e-40
8.49872e-40
4.82052e-39
2.98796e-38
2.21906e-37
6.56765e-36
1.40454e-33
2.40221e-31
2.72395e-29
4.35122e-27
1.37264e-23
3.04906e-22
4.02436e-21
7.95484e-21
1.61348e-20
1.82764e-19
3.4567e-18
6.05023e-17
8.22746e-16
7.70573e-15
4.53351e-14
1.99942e-13
7.42243e-13
2.38089e-12
6.59026e-12
1.29813e-11
1.36671e-11
9.95313e-12
1.01347e-11
4.71722e-11
8.50322e-11
3.0539e-11
1.01394e-11
3.82816e-12
5.57935e-13
9.44238e-14
1.26807e-14
1.14769e-15
7.70205e-17
4.38703e-18
2.14285e-19
5.91165e-21
7.18532e-22
6.92224e-22
1.21937e-21
1.85896e-22
4.16002e-24
4.69137e-26
4.73898e-28
4.48297e-30
3.73331e-32
2.81896e-34
2.65711e-36
1.31318e-37
1.87483e-38
3.16531e-39
5.88967e-40
1.2158e-40
2.78821e-41
7.09521e-42
1.99362e-42
6.13916e-43
2.05094e-43
7.31238e-44
2.70548e-44
9.58801e-45
2.22211e-45
5.44479e-45
3.63733e-48
1.16915e-48
5.23247e-48
1.49565e-47
4.00011e-47
1.11041e-46
3.29129e-46
1.05592e-45
3.69322e-45
1.41084e-44
5.90563e-44
2.70051e-43
1.34511e-42
7.29092e-42
4.27339e-41
2.70921e-40
2.18129e-39
9.66163e-38
1.89905e-35
2.63715e-33
1.97997e-31
3.40814e-29
1.54995e-25
2.24647e-24
2.18805e-23
1.34849e-22
2.56143e-21
6.24335e-20
1.26885e-18
2.43955e-17
3.87276e-16
4.06752e-15
2.58697e-14
1.21202e-13
4.68521e-13
1.55353e-12
4.62878e-12
9.71273e-12
9.93836e-12
7.27018e-12
9.53435e-12
4.49945e-11
7.92026e-11
2.07142e-11
7.28868e-12
2.42359e-12
3.89715e-13
6.65482e-14
7.93252e-15
6.45922e-16
3.67272e-17
1.86566e-18
8.69235e-20
3.35092e-21
7.49615e-23
3.78359e-24
8.34371e-24
1.37409e-24
3.24945e-26
4.28117e-28
4.59839e-30
4.4306e-32
3.67088e-34
2.7205e-36
2.53856e-38
1.26437e-39
1.75634e-40
2.86073e-41
5.13663e-42
1.02343e-42
2.2667e-43
5.56617e-44
1.51262e-44
4.51839e-45
1.46922e-45
5.11836e-46
1.85799e-46
6.48346e-47
1.4894e-47
3.36322e-47
1.78774e-50
6.58712e-51
2.90903e-50
8.49152e-50
2.32086e-49
6.60322e-49
2.01239e-48
6.65595e-48
2.4055e-47
9.51085e-47
4.12267e-46
1.95125e-45
1.00452e-44
5.60853e-44
3.36838e-43
2.13756e-42
2.5232e-41
3.88192e-39
1.14382e-36
1.79264e-34
1.95374e-32
3.43687e-31
1.31256e-27
1.34882e-26
5.50657e-25
2.55608e-23
8.60905e-22
2.29186e-20
5.05435e-19
1.07932e-17
1.94886e-16
2.23413e-15
1.50133e-14
7.33624e-14
2.92545e-13
1.0363e-12
3.4095e-12
6.71946e-12
6.27952e-12
5.26303e-12
9.83408e-12
4.469e-11
7.4743e-11
1.67973e-11
6.20857e-12
1.89891e-12
2.71058e-13
4.45334e-14
4.87204e-15
3.48331e-16
1.70953e-17
7.57382e-19
3.18125e-20
1.1295e-21
3.16499e-23
6.53637e-25
5.10035e-26
9.42005e-27
2.30762e-28
3.25874e-30
3.88988e-32
3.90755e-34
3.27369e-36
2.41141e-38
2.2432e-40
1.12768e-41
1.53554e-42
2.43136e-43
4.23764e-44
8.1887e-45
1.75969e-45
4.2025e-46
1.11268e-46
3.2451e-47
1.0327e-47
3.53065e-48
1.26137e-48
4.33806e-49
9.95875e-50
2.05234e-49
8.53525e-53
3.60426e-53
1.57086e-52
4.6662e-52
1.29817e-51
3.76777e-51
1.17441e-50
3.98227e-50
1.47793e-49
6.00775e-49
2.67665e-48
1.30059e-47
6.8565e-47
3.90087e-46
2.37204e-45
1.47663e-44
2.89892e-43
1.2652e-40
5.46863e-38
1.17315e-35
1.95323e-33
4.6211e-32
7.90819e-30
1.44825e-27
1.3127e-25
6.47864e-24
2.52279e-22
7.654e-21
1.93276e-19
4.48587e-18
8.63388e-17
1.04171e-15
7.17862e-15
3.59478e-14
1.49988e-13
5.97124e-13
2.15114e-12
3.66208e-12
3.07477e-12
4.41712e-12
1.19014e-11
4.53405e-11
6.6565e-11
1.632e-11
6.40692e-12
1.78034e-12
1.9814e-13
2.82186e-14
2.90517e-15
1.69998e-16
7.151e-18
2.8435e-19
1.05299e-20
3.35026e-22
8.61942e-24
1.78234e-25
2.64719e-27
7.94684e-29
2.29679e-30
2.5394e-32
3.32842e-34
3.43533e-36
2.88084e-38
2.07937e-40
1.88504e-42
9.32999e-44
1.25313e-44
1.94413e-45
3.3115e-46
6.24489e-47
1.30926e-47
3.05368e-48
7.906e-49
2.25907e-49
7.06104e-50
2.37783e-50
8.39504e-51
2.85721e-51
6.53405e-52
1.23226e-51
3.93956e-55
1.91326e-55
8.22665e-55
2.47968e-54
6.99865e-54
2.06354e-53
6.54643e-53
2.26302e-52
8.56968e-52
3.55568e-51
1.61526e-50
7.98603e-50
4.26825e-49
2.44756e-48
1.48821e-47
8.9785e-47
2.24007e-45
1.51727e-42
8.35492e-40
2.68556e-37
6.58663e-35
1.32904e-32
1.285e-30
1.73012e-28
1.43157e-26
9.17549e-25
4.40869e-23
1.66935e-21
5.28678e-20
1.59884e-18
3.41186e-17
4.16433e-16
2.8896e-15
1.50341e-14
6.78105e-14
2.94816e-13
1.02594e-12
1.48676e-12
1.44316e-12
5.68259e-12
1.39921e-11
4.56679e-11
5.37476e-11
1.50581e-11
5.7063e-12
1.47759e-12
1.34397e-13
1.81898e-14
1.66405e-15
8.3315e-17
2.89397e-18
9.71886e-20
3.13544e-21
8.71473e-23