/*--------------------------------*- C++ -*----------------------------------*\
| =========                 |                                                 |
| \\      /  F ield         | OpenFOAM: The Open Source CFD Toolbox           |
|  \\    /   O peration     | Version:  2412                                  |
|   \\  /    A nd           | Website:  www.openfoam.com                      |
|    \\/     M anipulation  |                                                 |
\*---------------------------------------------------------------------------*/
FoamFile
{
    version     2.0;
    format      ascii;
    arch        "LSB;label=32;scalar=64";
    class       surfaceScalarField;
    location    "8.65";
    object      alphaPhi0.molasses;
}
// * * * * * * * * * * * * * * * * * * * * * * * * * * * * * * * * * * * * * //

dimensions      [0 3 -1 0 0 0 0];

oriented        oriented;

internalField   nonuniform List<scalar> 
12640
(
4.74835e-09
-4.60391e-09
1.41171e-08
-9.14431e-09
2.29009e-08
-8.80676e-09
2.79091e-08
-5.23873e-09
2.76057e-08
1.26398e-10
2.12423e-08
6.39036e-09
8.57195e-09
1.29511e-08
-1.03874e-08
1.94089e-08
-3.54264e-08
2.55445e-08
-6.61703e-08
3.12433e-08
-1.02171e-07
3.64637e-08
-1.42965e-07
4.11719e-08
-1.88117e-07
4.53722e-08
-2.37176e-07
4.90483e-08
-2.89679e-07
5.22183e-08
-3.45087e-07
5.48383e-08
-4.02827e-07
5.68917e-08
-4.62199e-07
5.82627e-08
-5.22436e-07
5.88894e-08
-5.82577e-07
5.85925e-08
-6.41571e-07
5.73004e-08
-6.98139e-07
5.48036e-08
-7.50962e-07
5.10629e-08
-7.9851e-07
4.58724e-08
-8.39305e-07
3.9271e-08
-8.717e-07
3.10978e-08
-8.94219e-07
2.15199e-08
-9.05295e-07
1.04641e-08
-9.03698e-07
-1.73835e-09
-8.8822e-07
-1.50514e-08
-8.58181e-07
-2.89764e-08
-8.13039e-07
-4.33741e-08
-7.52933e-07
-5.76124e-08
-6.78215e-07
-7.14861e-08
-5.89976e-07
-8.43059e-08
-4.89509e-07
-9.58712e-08
-3.78793e-07
-1.05543e-07
-2.59917e-07
-1.13204e-07
-1.355e-07
-1.18365e-07
-8.12685e-09
-1.21042e-07
1.19301e-07
-1.20949e-07
2.4408e-07
-1.18254e-07
3.63423e-07
-1.12901e-07
4.74896e-07
-1.05201e-07
5.7621e-07
-9.53275e-08
6.65545e-07
-8.37099e-08
7.41417e-07
-7.07028e-08
8.02865e-07
-5.67933e-08
8.49361e-07
-4.24233e-08
8.80863e-07
-2.80337e-08
8.97754e-07
-1.40321e-08
9.00799e-07
-7.3662e-10
8.91105e-07
1.15346e-08
8.69995e-07
2.25904e-08
8.38966e-07
3.22176e-08
7.99537e-07
4.03613e-08
7.53256e-07
4.6944e-08
7.0159e-07
5.2048e-08
6.4597e-07
5.57138e-08
5.87705e-07
5.81021e-08
5.28033e-07
5.93066e-08
4.68042e-07
5.95019e-08
4.0872e-07
5.87892e-08
3.50894e-07
5.73218e-08
2.95288e-07
5.51818e-08
2.42498e-07
5.24771e-08
1.93053e-07
4.92477e-08
1.47426e-07
4.55409e-08
1.06082e-07
4.13491e-08
6.9479e-08
3.66735e-08
3.80901e-08
3.14921e-08
1.23759e-08
2.5815e-08
-7.24112e-09
1.96755e-08
-2.04499e-08
1.31822e-08
-2.71408e-08
6.53783e-09
-2.75579e-08
1.13629e-10
-2.25237e-08
-5.48544e-09
-1.3779e-08
-9.29222e-09
-4.65336e-09
-9.67425e-09
-4.81056e-09
8.64566e-09
-1.37603e-08
2.33821e-08
-2.35672e-08
3.44187e-08
-1.93877e-08
3.57892e-08
-5.93109e-09
2.38715e-08
1.30173e-08
-3.29754e-09
3.48075e-08
-4.64382e-08
5.7632e-08
-1.05555e-07
8.02927e-08
-1.80177e-07
1.02003e-07
-2.69507e-07
1.22301e-07
-3.72511e-07
1.4092e-07
-4.88065e-07
1.57752e-07
-6.14958e-07
1.72726e-07
-7.51949e-07
1.85825e-07
-8.97632e-07
1.96963e-07
-1.05049e-06
2.06059e-07
-1.20874e-06
2.12882e-07
-1.37043e-06
2.17198e-07
-1.5332e-06
2.18579e-07
-1.69455e-06
2.16656e-07
-1.85145e-06
2.10874e-07
-2.00075e-06
2.00848e-07
-2.13873e-06
1.86029e-07
-2.26168e-06
1.66175e-07
-2.36541e-06
1.40893e-07
-2.44595e-06
1.10241e-07
-2.49906e-06
7.41323e-08
-2.52111e-06
3.30721e-08
-2.50848e-06
-1.25923e-08
-2.45861e-06
-6.18182e-08
-2.36928e-06
-1.13778e-07
-2.23977e-06
-1.6692e-07
-2.06997e-06
-2.20023e-07
-1.8615e-06
-2.71208e-07
-1.61672e-06
-3.19097e-07
-1.33971e-06
-3.61813e-07
-1.03514e-06
-3.98137e-07
-7.09171e-07
-4.26549e-07
-3.68179e-07
-4.46273e-07
-1.95586e-08
-4.56401e-07
3.2947e-07
-4.56749e-07
6.71281e-07
-4.47146e-07
9.98849e-07
-4.28047e-07
1.30536e-06
-4.00024e-07
1.58496e-06
-3.64134e-07
1.83258e-06
-3.21591e-07
2.04435e-06
-2.73882e-07
2.21756e-06
-2.22635e-07
2.35076e-06
-1.69482e-07
2.44371e-06
-1.16096e-07
2.4973e-06
-6.39032e-08
2.51343e-06
-1.42853e-08
2.49478e-06
3.17673e-08
2.4448e-06
7.33284e-08
2.36722e-06
1.09907e-07
2.26618e-06
1.41072e-07
2.14571e-06
1.66803e-07
2.00989e-06
1.87103e-07
1.86247e-06
2.02302e-07
1.70706e-06
2.12682e-07
1.54685e-06
2.18736e-07
1.38479e-06
2.20858e-07
1.22344e-06
2.19562e-07
1.0651e-06
2.15228e-07
9.11782e-07
2.08286e-07
7.65283e-07
1.99015e-07
6.27188e-07
1.87685e-07
4.98971e-07
1.74422e-07
3.81972e-07
1.59328e-07
2.7747e-07
1.42421e-07
1.86648e-07
1.23753e-07
1.10586e-07
1.0341e-07
5.01544e-08
8.16232e-08
5.91029e-09
5.88137e-08
-2.2105e-08
3.57291e-08
-3.46307e-08
1.35666e-08
-3.36482e-08
-5.81576e-09
-2.28609e-08
-1.96589e-08
-8.47686e-09
-2.38504e-08
-1.35045e-08
8.17659e-09
-2.237e-08
1.94584e-08
-3.43881e-08
2.24233e-08
-2.18222e-08
1.00312e-08
7.15858e-09
-2.22316e-08
4.62253e-08
-7.69057e-08
9.06953e-08
-1.55001e-07
1.37236e-07
-2.56523e-07
1.83534e-07
-3.80822e-07
2.28063e-07
-5.26733e-07
2.69846e-07
-6.92776e-07
3.0833e-07
-8.77225e-07
3.43181e-07
-1.07825e-06
3.74231e-07
-1.29384e-06
4.01293e-07
-1.52184e-06
4.24194e-07
-1.75975e-06
4.42583e-07
-2.00485e-06
4.56054e-07
-2.25394e-06
4.63926e-07
-2.50354e-06
4.65497e-07
-2.74955e-06
4.59786e-07
-2.98756e-06
4.45935e-07
-3.21249e-06
4.22861e-07
-3.41903e-06
3.89814e-07
-3.6012e-06
3.45901e-07
-3.7531e-06
2.908e-07
-3.86834e-06
2.24128e-07
-3.9411e-06
1.46323e-07
-3.96545e-06
5.78171e-08
-3.93661e-06
-3.99284e-08
-3.85024e-06
-1.45469e-07
-3.70377e-06
-2.56239e-07
-3.49553e-06
-3.69815e-07
-3.22617e-06
-4.82737e-07
-2.89754e-06
-5.91951e-07
-2.51401e-06
-6.9364e-07
-2.0811e-06
-7.84744e-07
-1.60666e-06
-8.61831e-07
-1.09935e-06
-9.22511e-07
-5.69511e-07
-9.64391e-07
-2.77888e-08
-9.86233e-07
5.14338e-07
-9.87057e-07
1.04574e-06
-9.66983e-07
1.55537e-06
-9.26573e-07
2.03314e-06
-8.67315e-07
2.46993e-06
-7.91232e-07
2.85812e-06
-7.0097e-07
3.1917e-06
-5.99659e-07
3.46646e-06
-4.90626e-07
3.68013e-06
-3.77475e-07
3.83218e-06
-2.63517e-07
3.92393e-06
-1.52055e-07
3.95798e-06
-4.57135e-08
3.93841e-06
5.30645e-08
3.87009e-06
1.42667e-07
3.75879e-06
2.2169e-07
3.61046e-06
2.89546e-07
3.43138e-06
3.45817e-07
3.22754e-06
3.90779e-07
3.00483e-06
4.24775e-07
2.76859e-06
4.48643e-07
2.52384e-06
4.63148e-07
2.275e-06
4.69336e-07
2.02612e-06
4.68074e-07
1.78073e-06
4.60333e-07
1.54202e-06
4.46844e-07
1.31279e-06
4.2832e-07
1.09559e-06
4.05222e-07
8.92707e-07
3.77946e-07
7.06257e-07
3.46692e-07
5.3817e-07
3.11652e-07
3.90241e-07
2.72982e-07
2.64012e-07
2.31e-07
1.60715e-07
1.86234e-07
8.10694e-08
1.39626e-07
2.51032e-08
9.26687e-08
-8.20003e-09
4.76689e-08
-2.13954e-08
8.01543e-09
-1.8992e-08
-2.1452e-08
-8.14329e-09
-3.40804e-08
-2.17177e-08
4.83644e-09
-2.7393e-08
6.91506e-09
-3.5698e-08
-5.08181e-09
-9.01314e-09
-3.82587e-08
4.12911e-08
-9.71751e-08
1.06356e-07
-1.84418e-07
1.79443e-07
-3.00945e-07
2.5557e-07
-4.46612e-07
3.31225e-07
-6.20472e-07
4.04006e-07
-8.21029e-07
4.72382e-07
-1.04635e-06
5.35383e-07
-1.29424e-06
5.92453e-07
-1.56229e-06
6.43177e-07
-1.84791e-06
6.87244e-07
-2.1482e-06
7.2419e-07
-2.45999e-06
7.53478e-07
-2.77963e-06
7.74234e-07
-3.10311e-06
7.85474e-07
-3.4257e-06
7.85817e-07
-3.74232e-06
7.73903e-07
-4.04704e-06
7.48036e-07
-4.3336e-06
7.06799e-07
-4.59486e-06
6.48584e-07
-4.82357e-06
5.72401e-07
-5.01178e-06
4.77231e-07
-5.15189e-06
3.63062e-07
-5.23598e-06
2.30005e-07
-5.25715e-06
7.95289e-08
-5.20878e-06
-8.66868e-08
-5.08607e-06
-2.65376e-07
-4.88512e-06
-4.53129e-07
-4.60466e-06
-6.44956e-07
-4.24483e-06
-8.36016e-07
-3.80888e-06
-1.02021e-06
-3.30169e-06
-1.19211e-06
-2.73121e-06
-1.34563e-06
-2.10684e-06
-1.47592e-06
-1.44046e-06
-1.57812e-06
-7.44763e-07
-1.64901e-06
-3.40094e-08
-1.68582e-06
6.77504e-07
-1.6875e-06
1.37506e-06
-1.65377e-06
2.04473e-06
-1.5859e-06
2.6733e-06
-1.48615e-06
3.24908e-06
-1.358e-06
3.76218e-06
-1.20589e-06
4.20475e-06
-1.03493e-06
4.57139e-06
-8.50937e-07
4.85894e-06
-6.59642e-07
5.06684e-06
-4.66991e-07
5.19642e-06
-2.78118e-07
5.25123e-06
-9.79096e-08
5.23608e-06
7.00106e-08
5.15737e-06
2.22446e-07
5.02206e-06
3.57533e-07
4.83797e-06
4.73804e-07
4.61281e-06
5.70979e-07
4.35449e-06
6.49045e-07
4.0703e-06
7.08913e-07
3.76734e-06
7.51564e-07
3.4519e-06
7.78568e-07
3.12987e-06
7.91351e-07
2.80638e-06
7.91603e-07
2.48613e-06
7.80712e-07
2.1732e-06
7.60087e-07
1.8713e-06
7.30762e-07
1.58369e-06
6.93665e-07
1.3134e-06
6.49381e-07
1.0631e-06
5.98407e-07
8.35334e-07
5.41064e-07
6.32355e-07
4.7776e-07
4.56172e-07
4.0904e-07
3.08344e-07
3.35865e-07
1.89869e-07
2.59751e-07
1.00931e-07
1.8308e-07
4.0598e-08
1.09346e-07
6.28527e-09
4.35719e-08
-6.52756e-09
-7.34061e-09
-4.93374e-09
-3.43154e-08
-2.62931e-08
-8.68547e-11
-2.71676e-08
-1.08101e-08
-2.36279e-08
-4.24316e-08
2.3942e-08
-1.01282e-07
1.01602e-07
-1.91377e-07
1.9819e-07
-3.14868e-07
3.04961e-07
-4.72335e-07
4.15347e-07
-6.63209e-07
5.24617e-07
-8.86148e-07
6.29529e-07
-1.13921e-06
7.27929e-07
-1.42009e-06
8.18489e-07
-1.72611e-06
9.00334e-07
-2.05444e-06
9.72892e-07
-2.40193e-06
1.03555e-06
-2.7652e-06
1.08768e-06
-3.14041e-06
1.12829e-06
-3.52336e-06
1.1562e-06
-3.90911e-06
1.16976e-06
-4.29232e-06
1.16716e-06
-4.66671e-06
1.14615e-06
-5.02559e-06
1.1046e-06
-5.36123e-06
1.04008e-06
-5.66565e-06
9.50725e-07
-5.92989e-06
8.34605e-07
-6.14513e-06
6.90867e-07
-6.30194e-06
5.1885e-07
-6.39167e-06
3.19495e-07
-6.4056e-06
9.41523e-08
-6.33669e-06
-1.53807e-07
-6.17857e-06
-4.20539e-07
-5.9275e-06
-7.00003e-07
-5.58114e-06
-9.85902e-07
-5.14058e-06
-1.26998e-06
-4.6088e-06
-1.54431e-06
-3.99254e-06
-1.79974e-06
-3.30046e-06
-2.02829e-06
-2.54458e-06
-2.22177e-06
-1.73831e-06
-2.37394e-06
-8.97488e-07
-2.47916e-06
-3.847e-08
-2.53412e-06
8.21249e-07
-2.53665e-06
1.66456e-06
-2.48679e-06
2.47458e-06
-2.3861e-06
3.23573e-06
-2.23804e-06
3.93401e-06
-2.0477e-06
4.55753e-06
-1.82156e-06
5.09704e-06
-1.56743e-06
5.54583e-06
-1.29357e-06
5.90039e-06
-1.00895e-06
6.15968e-06
-7.21847e-07
6.32567e-06
-4.40476e-07
6.40211e-06
-1.71466e-07
6.39506e-06
7.91744e-08
6.31156e-06
3.07373e-07
6.16013e-06
5.09767e-07
5.94951e-06
6.84819e-07
5.68909e-06
8.31538e-07
5.38777e-06
9.5042e-07
5.05449e-06
1.04226e-06
4.69729e-06
1.10891e-06
4.32389e-06
1.15221e-06
3.94102e-06
1.17457e-06
3.55496e-06
1.17815e-06
3.1711e-06
1.16523e-06
2.79443e-06
1.13766e-06
2.42922e-06
1.09717e-06
2.07943e-06
1.04499e-06
1.74853e-06
9.82154e-07
1.43978e-06
9.09343e-07
1.15611e-06
8.27176e-07
9.00273e-07
7.36223e-07
6.74669e-07
6.37357e-07
4.81301e-07
5.319e-07
3.21545e-07
4.2201e-07
1.96003e-07
3.10916e-07
1.0415e-07
2.0335e-07
4.38896e-08
1.05912e-07
1.1252e-08
2.74725e-08
-8.56147e-11
-2.07566e-08
-2.54286e-08
-5.81477e-09
-2.10119e-08
-3.1505e-08
3.86614e-09
-8.57886e-08
7.99624e-08
-1.7367e-07
1.91346e-07
-2.98118e-07
3.2479e-07
-4.60446e-07
4.69707e-07
-6.60479e-07
6.18036e-07
-8.97011e-07
7.63969e-07
-1.16809e-06
9.03465e-07
-1.4713e-06
1.03388e-06
-1.80385e-06
1.15351e-06
-2.16274e-06
1.26131e-06
-2.54467e-06
1.35642e-06
-2.94618e-06
1.43812e-06
-3.36338e-06
1.50536e-06
-3.79211e-06
1.55691e-06
-4.22752e-06
1.59095e-06
-4.66433e-06
1.60541e-06
-5.09635e-06
1.5976e-06
-5.51687e-06
1.56478e-06
-5.91809e-06
1.50372e-06
-6.29182e-06
1.41163e-06
-6.62871e-06
1.28548e-06
-6.91932e-06
1.12332e-06
-7.15327e-06
9.2332e-07
-7.32071e-06
6.85381e-07
-7.41128e-06
4.09918e-07
-7.41602e-06
9.96922e-08
-7.32619e-06
-2.41781e-07
-7.13551e-06
-6.08209e-07
-6.83874e-06
-9.92576e-07
-6.43418e-06
-1.38509e-06
-5.92195e-06
-1.77572e-06
-5.30644e-06
-2.15232e-06
-4.59424e-06
-2.50356e-06
-3.79622e-06
-2.81722e-06
-2.92514e-06
-3.08322e-06
-1.99717e-06
-3.29194e-06
-1.02954e-06
-3.43664e-06
-4.15305e-08
-3.512e-06
9.47524e-07
-3.5157e-06
1.91779e-06
-3.44735e-06
2.85032e-06
-3.30931e-06
3.72725e-06
-3.1062e-06
4.53257e-06
-2.84486e-06
5.25285e-06
-2.53437e-06
5.87732e-06
-2.18512e-06
6.39869e-06
-1.80898e-06
6.81257e-06
-1.41766e-06
7.11834e-06
-1.02323e-06
7.31778e-06
-6.36174e-07
7.41576e-06
-2.66348e-07
7.41859e-06
7.88584e-08
7.33474e-06
3.93106e-07
7.17318e-06
6.72643e-07
6.94412e-06
9.14668e-07
6.65753e-06
1.11859e-06
6.32375e-06
1.28444e-06
5.95232e-06
1.4139e-06
5.5526e-06
1.50888e-06
5.13286e-06
1.57234e-06
4.70091e-06
1.60706e-06
4.26351e-06
1.61631e-06
3.8269e-06
1.60284e-06
3.39642e-06
1.56943e-06
2.97701e-06
1.5182e-06
2.57294e-06
1.45104e-06
2.18817e-06
1.36925e-06
1.82627e-06
1.2739e-06
1.49063e-06
1.16575e-06
1.18434e-06
1.04566e-06
9.10295e-07
9.14669e-07
6.70975e-07
7.74495e-07
4.68358e-07
6.27769e-07
3.03676e-07
4.78539e-07
1.77175e-07
3.32626e-07
8.76406e-08
1.98142e-07
3.21534e-08
8.57352e-08
5.687e-09
8.53105e-09
-1.83723e-08
-1.18763e-08
-8.57829e-09
-5.38262e-08
4.79297e-08
-1.32742e-07
1.60892e-07
-2.51942e-07
3.12673e-07
-4.12964e-07
4.88211e-07
-6.15845e-07
6.75218e-07
-8.59354e-07
8.64348e-07
-1.14135e-06
1.04887e-06
-1.45917e-06
1.22417e-06
-1.80976e-06
1.38721e-06
-2.18989e-06
1.53611e-06
-2.59615e-06
1.66961e-06
-3.025e-06
1.78683e-06
-3.4726e-06
1.88674e-06
-3.93491e-06
1.96813e-06
-4.40734e-06
2.02923e-06
-4.8849e-06
2.06787e-06
-5.36175e-06
2.08113e-06
-5.83157e-06
2.06586e-06
-6.28687e-06
2.01819e-06
-6.71974e-06
1.93446e-06
-7.12095e-06
1.81059e-06
-7.48104e-06
1.64337e-06
-7.78932e-06
1.42959e-06
-8.03535e-06
1.16774e-06
-8.20778e-06
8.56759e-07
-8.29629e-06
4.98138e-07
-8.29023e-06
9.42531e-08
-8.18106e-06
-3.49294e-07
-7.96073e-06
-8.25785e-07
-7.62447e-06
-1.32492e-06
-7.16901e-06
-1.83553e-06
-6.5955e-06
-2.34317e-06
-5.90735e-06
-2.83348e-06
-5.11295e-06
-3.29016e-06
-4.22307e-06
-3.69865e-06
-3.25298e-06
-4.04441e-06
-2.21954e-06
-4.31616e-06
-1.14272e-06
-4.50413e-06
-4.30535e-08
-4.60234e-06
1.05753e-06
-4.60712e-06
2.13756e-06
-4.51844e-06
3.17588e-06
-4.33907e-06
4.15276e-06
-4.07497e-06
5.05055e-06
-3.73514e-06
5.85412e-06
-3.33102e-06
6.55195e-06
-2.8767e-06
7.13563e-06
-2.38709e-06
7.60106e-06
-1.87832e-06
7.94708e-06
-1.3652e-06
8.17657e-06
-8.6226e-07
8.29436e-06
-3.81212e-07
8.30823e-06
6.74682e-08
8.22674e-06
4.76657e-07
8.06034e-06
8.40646e-07
7.81936e-06
1.15683e-06
7.5151e-06
1.42366e-06
7.15808e-06
1.64203e-06
6.759e-06
1.81341e-06
6.32743e-06
1.9409e-06
5.87262e-06
2.02768e-06
5.4026e-06
2.07781e-06
4.92486e-06
2.09498e-06
4.44583e-06
2.08309e-06
3.97141e-06
2.04535e-06
3.50665e-06
1.98479e-06
3.05626e-06
1.9036e-06
2.62436e-06
1.80366e-06
2.21486e-06
1.6862e-06
1.83138e-06
1.55229e-06
1.47746e-06
1.40284e-06
1.15641e-06
1.23912e-06
8.71359e-07
1.06298e-06
6.24998e-07
8.77484e-07
4.19502e-07
6.87216e-07
2.56171e-07
4.98959e-07
1.35082e-07
3.22113e-07
5.47686e-08
1.68963e-07
1.19629e-08
5.43417e-08
-5.11473e-09
-1.80461e-08
1.02625e-08
-7.70693e-08
1.09273e-07
-1.81971e-07
2.67991e-07
-3.34153e-07
4.67136e-07
-5.33323e-07
6.8989e-07
-7.7787e-07
9.22471e-07
-1.06513e-06
1.15444e-06
-1.39186e-06
1.37845e-06
-1.75444e-06
1.58954e-06
-2.14919e-06
1.78459e-06
-2.57236e-06
1.96163e-06
-3.02024e-06
2.11948e-06
-3.489e-06
2.2571e-06
-3.97474e-06
2.37346e-06
-4.47315e-06
2.46697e-06
-4.97968e-06
2.53562e-06
-5.48899e-06
2.57653e-06
-5.99536e-06
2.58637e-06
-6.49195e-06
2.56089e-06
-6.97148e-06
2.49579e-06
-7.4253e-06
2.38609e-06
-7.84443e-06
2.22739e-06
-8.21847e-06
2.01507e-06
-8.53705e-06
1.746e-06
-8.78852e-06
1.41737e-06
-8.96192e-06
1.02887e-06
-9.04544e-06
5.81056e-07
-9.02886e-06
7.79509e-08
-8.90182e-06
-4.75093e-07
-8.65676e-06
-1.06854e-06
-8.28693e-06
-1.6914e-06
-7.78978e-06
-2.32828e-06
-7.16467e-06
-2.96293e-06
-6.41634e-06
-3.57561e-06
-5.55222e-06
-4.14738e-06
-4.58526e-06
-4.65817e-06
-3.5307e-06
-5.09114e-06
-2.40802e-06
-5.43075e-06
-1.23788e-06
-5.66609e-06
-4.33502e-08
-5.78876e-06
1.15244e-06
-5.79498e-06
2.32585e-06
-5.68418e-06
3.45417e-06
-5.46002e-06
4.51599e-06
-5.12987e-06
5.49189e-06
-4.70463e-06
6.36576e-06
-4.19909e-06
7.1247e-06
-3.63038e-06
7.76053e-06
-3.01831e-06
8.26841e-06
-2.38228e-06
8.64833e-06
-1.742e-06
8.9029e-06
-1.11435e-06
9.03858e-06
-5.1492e-07
9.06303e-06
4.46901e-08
8.9864e-06
5.54681e-07
8.81896e-06
1.0093e-06
8.57239e-06
1.40438e-06
8.2577e-06
1.73915e-06
7.88652e-06
2.01386e-06
7.4693e-06
2.23121e-06
7.01649e-06
2.3943e-06
6.53718e-06
2.50771e-06
6.04006e-06
2.57583e-06
5.53253e-06
2.60368e-06
5.02149e-06
2.59558e-06
4.51274e-06
2.55587e-06
4.01169e-06
2.48792e-06
3.52297e-06
2.39472e-06
3.05098e-06
2.27834e-06
2.59966e-06
2.14044e-06
2.17297e-06
1.98211e-06
1.77467e-06
1.80441e-06
1.40864e-06
1.60853e-06
1.07861e-06
1.39643e-06
7.88243e-07
1.1712e-06
5.40848e-07
9.37819e-07
3.39149e-07
7.03673e-07
1.8483e-07
4.79255e-07
7.83331e-08
2.7828e-07
1.84496e-08
1.1719e-07
1.41389e-08
-2.42975e-08
3.55146e-08
-1.01032e-07
1.88388e-07
-2.33082e-07
4.02287e-07
-4.19644e-07
6.55986e-07
-6.58227e-07
9.30938e-07
-9.4513e-07
1.21201e-06
-1.27596e-06
1.48802e-06
-1.64608e-06
1.75131e-06
-2.05092e-06
1.99702e-06
-2.48602e-06
2.22218e-06
-2.94723e-06
2.42509e-06
-3.43047e-06
2.60467e-06
-3.93189e-06
2.76007e-06
-4.44741e-06
2.89008e-06
-4.97288e-06
2.99305e-06
-5.50359e-06
3.06643e-06
-6.03449e-06
3.10704e-06
-6.55958e-06
3.11059e-06
-7.07242e-06
3.07245e-06
-7.56532e-06
2.98701e-06
-8.03014e-06
2.84895e-06
-8.45729e-06
2.65237e-06
-8.83703e-06
2.39259e-06
-9.15812e-06
2.06496e-06
-9.4097e-06
1.66711e-06
-9.57961e-06
1.19738e-06
-9.65685e-06
6.57541e-07
-9.62959e-06
5.06915e-08
-9.48819e-06
-6.156e-07
-9.22295e-06
-1.33196e-06
-8.82774e-06
-2.0838e-06
-8.2976e-06
-2.85475e-06
-7.63268e-06
-3.62329e-06
-6.83576e-06
-4.3673e-06
-5.91589e-06
-5.06145e-06
-4.88516e-06
-5.68267e-06
-3.76133e-06
-6.20841e-06
-2.564e-06
-6.62136e-06
-1.31639e-06
-6.90695e-06
-4.22752e-08
-7.05624e-06
1.23295e-06
-7.06381e-06
2.4844e-06
-6.92952e-06
3.68764e-06
-6.65746e-06
4.81966e-06
-6.25638e-06
5.85986e-06
-5.73982e-06
6.79044e-06
-5.12515e-06
7.59845e-06
-4.43441e-06
8.27476e-06
-3.69111e-06
8.81591e-06
-2.92055e-06
9.22158e-06
-2.14549e-06
9.49628e-06
-1.38764e-06
9.64627e-06
-6.64043e-07
9.68105e-06
1.03625e-08
9.61038e-06
6.25625e-07
9.44599e-06
1.17386e-06
9.19896e-06
1.65161e-06
8.88136e-06
2.05695e-06
8.50415e-06
2.39137e-06
8.07857e-06
2.65719e-06
7.61443e-06
2.859e-06
7.12142e-06
3.00149e-06
6.60775e-06
3.09055e-06
6.08122e-06
3.13154e-06
5.54834e-06
3.13014e-06
5.0152e-06
3.09103e-06
4.4869e-06
3.01858e-06
3.96826e-06
2.91604e-06
3.46346e-06
2.78607e-06
2.97665e-06
2.63038e-06
2.51178e-06
2.45026e-06
2.07299e-06
2.24658e-06
1.6645e-06
2.02046e-06
1.29085e-06
1.77352e-06
9.56682e-07
1.50875e-06
6.6673e-07
1.23102e-06
4.25418e-07
9.48026e-07
2.36479e-07
6.70994e-07
1.02646e-07
4.14931e-07
2.49829e-08
1.97788e-07
3.95051e-08
-3.07269e-08
6.72225e-08
-1.2598e-07
2.85901e-07
-2.86517e-07
5.64942e-07
-5.08977e-07
8.80565e-07
-7.88175e-07
1.21236e-06
-1.11792e-06
1.54414e-06
-1.49173e-06
1.86433e-06
-1.90341e-06
2.16551e-06
-2.3473e-06
2.44331e-06
-2.81834e-06
2.69541e-06
-3.31189e-06
2.92062e-06
-3.8238e-06
3.11833e-06
-4.35004e-06
3.28778e-06
-4.88676e-06
3.42794e-06
-5.4298e-06
3.53684e-06
-5.97481e-06
3.61178e-06
-6.51669e-06
3.64882e-06
-7.04999e-06
3.64337e-06
-7.56809e-06
3.58962e-06
-8.06399e-06
3.48163e-06
-8.52929e-06
3.3126e-06
-8.95527e-06
3.07651e-06
-9.33172e-06
2.76705e-06
-9.64851e-06
2.37981e-06
-9.894e-06
1.91083e-06
-1.00573e-05
1.35928e-06
-1.01261e-05
7.25502e-07
-1.00898e-05
1.42322e-08
-9.93689e-06
-7.67982e-07
-9.6584e-06
-1.60902e-06
-9.24556e-06
-2.49444e-06
-8.69384e-06
-3.40344e-06
-8.00039e-06
-4.31306e-06
-7.16879e-06
-5.1946e-06
-6.206e-06
-6.01949e-06
-5.12627e-06
-6.7573e-06
-3.94679e-06
-7.38258e-06
-2.68989e-06
-7.87283e-06
-1.37896e-06
-8.21244e-06
-4.0224e-08
-8.38966e-06
1.30005e-06
-8.39903e-06
2.61493e-06
-8.2397e-06
3.87858e-06
-7.91663e-06
5.06669e-06
-7.44024e-06
6.1569e-06
-6.82605e-06
7.13089e-06
-6.09562e-06
7.97431e-06
-5.27467e-06
8.67936e-06
-4.3934e-06
9.24238e-06
-3.48116e-06
9.66558e-06
-2.56689e-06
9.95343e-06
-1.67434e-06
1.01145e-05
-8.24679e-07
1.01579e-05
-3.30105e-08
1.00949e-05
6.8814e-07
9.93658e-06
1.33172e-06
9.695e-06
1.89269e-06
9.38116e-06
2.37044e-06
9.00672e-06
2.76564e-06
8.58187e-06
3.08217e-06
8.11686e-06
3.32438e-06
7.62047e-06
3.49858e-06
7.10124e-06
3.61082e-06
6.56623e-06
3.66797e-06
6.02214e-06
3.676e-06
5.4745e-06
3.64081e-06
4.9285e-06
3.56706e-06
4.38851e-06
3.4588e-06
3.8588e-06
3.31878e-06
3.34324e-06
3.1491e-06
2.84594e-06
2.95083e-06
2.37108e-06
2.72477e-06
1.92337e-06
2.47152e-06
1.50794e-06
2.19227e-06
1.13062e-06
1.88932e-06
7.97646e-07
1.5671e-06
5.15549e-07
1.23305e-06
2.90522e-07
8.98743e-07
1.28045e-07
5.80199e-07
3.16012e-08
2.97005e-07
7.1467e-08
-3.75667e-08
1.05692e-07
-1.52635e-07
4.02961e-07
-3.43613e-07
7.57751e-07
-6.03944e-07
1.14268e-06
-9.25169e-07
1.53537e-06
-1.29812e-06
1.91893e-06
-1.71395e-06
2.28212e-06
-2.16474e-06
2.61833e-06
-2.64385e-06
2.92432e-06
-3.14558e-06
3.19881e-06
-3.66514e-06
3.44159e-06
-4.19823e-06
3.6526e-06
-4.74105e-06
3.83158e-06
-5.2898e-06
3.97743e-06
-5.84077e-06
4.08826e-06
-6.38968e-06
4.16082e-06
-6.93208e-06
4.191e-06
-7.4625e-06
4.1732e-06
-7.97519e-06
4.10134e-06
-8.46308e-06
3.96816e-06
-8.91882e-06
3.76668e-06
-9.33355e-06
3.4893e-06
-9.69841e-06
3.12984e-06
-1.00029e-05
2.68221e-06
-1.02371e-05
2.14304e-06
-1.03893e-05
1.50979e-06
-1.0449e-05
7.84012e-07
-1.04042e-05
-3.12278e-08
-1.02447e-05
-9.2741e-07
-9.95924e-06
-1.89377e-06
-9.53952e-06
-2.91268e-06
-8.97735e-06
-3.96348e-06
-8.26992e-06
-5.0177e-06
-7.41699e-06
-6.04424e-06
-6.42662e-06
-7.00612e-06
-5.31125e-06
-7.86865e-06
-4.09093e-06
-8.59873e-06
-2.7876e-06
-9.17191e-06
-1.42743e-06
-9.56834e-06
-3.70361e-08
-9.77581e-06
1.3548e-06
-9.78685e-06
2.71977e-06
-9.60099e-06
4.03024e-06
-9.22374e-06
5.26021e-06
-8.66698e-06
6.38658e-06
-7.94935e-06
7.38908e-06
-7.09529e-06
8.25411e-06
-6.13723e-06
8.97347e-06
-5.1105e-06
9.54668e-06
-4.05237e-06
9.9765e-06
-2.995e-06
1.02708e-05
-1.9674e-06
1.04378e-05
-9.9101e-07
1.04889e-05
-8.3917e-08
1.04343e-05
7.42519e-07
1.02861e-05
1.47939e-06
1.00551e-05
2.12326e-06
9.75283e-06
2.67231e-06
9.38937e-06
3.12894e-06
8.97521e-06
3.49637e-06
8.51931e-06
3.78069e-06
8.03059e-06
3.98803e-06
7.51645e-06
4.12606e-06
6.98406e-06
4.20178e-06
6.43925e-06
4.22256e-06
5.88755e-06
4.19454e-06
5.33349e-06
4.12342e-06
4.7814e-06
4.01338e-06
4.23503e-06
3.8678e-06
3.69825e-06
3.68861e-06
3.17485e-06
3.47698e-06
2.66919e-06
3.23319e-06
2.1861e-06
2.95732e-06
1.73142e-06
2.64959e-06
1.31193e-06
2.31133e-06
9.3562e-07
1.9458e-06
6.11341e-07
1.55959e-06
3.48322e-07
1.16392e-06
1.55277e-07
7.75491e-07
3.86219e-08
4.15748e-07
1.10558e-07
-4.52105e-08
1.51664e-07
-1.82326e-07
5.41721e-07
-4.06777e-07
9.83637e-07
-7.07811e-07
1.44508e-06
-1.07282e-06
1.90159e-06
-1.48923e-06
2.33644e-06
-1.9456e-06
2.73964e-06
-2.43237e-06
3.10636e-06
-2.94192e-06
3.43511e-06
-3.46829e-06
3.72623e-06
-4.00659e-06
3.98066e-06
-4.55279e-06
4.19932e-06
-5.10321e-06
4.38231e-06
-5.65454e-06
4.52887e-06
-6.20323e-06
4.63683e-06
-6.74569e-06
4.70292e-06
-7.27757e-06
4.72222e-06
-7.79432e-06
4.68898e-06
-8.29025e-06
4.59594e-06
-8.75947e-06
4.43571e-06
-9.19467e-06
4.19988e-06
-9.58854e-06
3.88093e-06
-9.93221e-06
3.47105e-06
-1.02171e-05
2.96464e-06
-1.04331e-05
2.35657e-06
-1.05708e-05
1.64528e-06
-1.06189e-05
8.30345e-07
-1.05678e-05
-8.36712e-08
-1.04055e-05
-1.09048e-06
-1.01221e-05
-2.17728e-06
-9.70579e-06
-3.32845e-06
-9.14835e-06
-4.51981e-06
-8.44159e-06
-5.72282e-06
-7.58467e-06
-6.89898e-06
-6.58135e-06
-8.00688e-06
-5.44611e-06
-9.00105e-06
-4.19785e-06
-9.84404e-06
-2.86168e-06
-1.05051e-05
-1.46354e-06
-1.09635e-05
-3.31527e-08
-1.12031e-05
1.39933e-06
-1.12163e-05
2.8027e-06
-1.10017e-05
4.1472e-06
-1.05661e-05
5.40569e-06
-9.9237e-06
6.55302e-06
-9.09508e-06
7.56897e-06
-8.10991e-06
8.43862e-06
-7.00582e-06
9.1571e-06
-5.82823e-06
9.72524e-06
-4.61986e-06
1.01507e-05
-3.41998e-06
1.04421e-05
-2.25832e-06
1.06109e-05
-1.15969e-06
1.06673e-05
-1.40413e-07
1.06232e-05
7.86265e-07
1.04886e-05
1.61357e-06
1.02748e-05
2.33662e-06
9.99132e-06
2.9556e-06
9.64835e-06
3.47187e-06
9.25448e-06
3.89054e-06
8.81863e-06
4.21708e-06
8.34817e-06
4.45938e-06
7.85051e-06
4.62492e-06
7.33157e-06
4.72222e-06
6.79712e-06
4.75871e-06
6.25175e-06
4.74179e-06
5.6999e-06
4.67726e-06
5.14517e-06
4.57017e-06
4.59118e-06
4.42384e-06
4.04123e-06
4.24056e-06
3.49903e-06
4.0211e-06
2.96862e-06
3.76542e-06
2.45499e-06
3.47264e-06
1.96425e-06
3.14188e-06
1.50414e-06
2.77281e-06
1.08424e-06
2.36692e-06
7.16009e-07
1.92895e-06
4.12174e-07
1.46888e-06
1.85533e-07
1.00328e-06
4.65029e-08
5.55793e-07
1.57333e-07
-5.43328e-08
2.0657e-07
-2.1726e-07
7.05923e-07
-4.79923e-07
1.24732e-06
-8.25679e-07
1.79181e-06
-1.23665e-06
2.31335e-06
-1.69641e-06
2.79668e-06
-2.19104e-06
3.23464e-06
-2.70954e-06
3.62536e-06
-3.24373e-06
3.96993e-06
-3.78757e-06
4.27067e-06
-4.33653e-06
4.53008e-06
-4.88688e-06
4.74993e-06
-5.43551e-06
4.93104e-06
-5.97935e-06
5.07268e-06
-6.51554e-06
5.17282e-06
-7.04068e-06
5.22766e-06
-7.55129e-06
5.2322e-06
-8.04297e-06
5.17974e-06
-8.51122e-06
5.06296e-06
-8.95027e-06
4.87321e-06
-9.35447e-06
4.60218e-06
-9.71664e-06
4.24091e-06
-1.003e-05
3.78205e-06
-1.02863e-05
3.21834e-06
-1.04779e-05
2.5456e-06
-1.05953e-05
1.76033e-06
-1.06306e-05
8.63454e-07
-1.05731e-05
-1.42953e-07
-1.04137e-05
-1.25115e-06
-1.01402e-05
-2.45167e-06
-9.74172e-06
-3.72729e-06
-9.20446e-06
-5.057e-06
-8.51859e-06
-6.40822e-06
-7.67567e-06
-7.74111e-06
-6.67853e-06
-9.00292e-06
-5.53813e-06
-1.01401e-05
-4.27673e-06
-1.1104e-05
-2.9182e-06
-1.18623e-05
-1.49177e-06
-1.23887e-05
-2.83887e-08
-1.26652e-05
1.43713e-06
-1.26804e-05
2.87014e-06
-1.24337e-05
4.23784e-06
-1.19334e-05
5.51085e-06
-1.11969e-05
6.66404e-06
-1.02489e-05
7.67481e-06
-9.12158e-06
8.53062e-06
-7.86276e-06
9.22812e-06
-6.52711e-06
9.77505e-06
-5.16837e-06
1.01816e-05
-3.82803e-06
1.04616e-05
-2.53972e-06
1.06261e-05
-1.32552e-06
1.06874e-05
-2.03152e-07
1.0655e-05
8.17371e-07
1.05394e-05
1.72792e-06
1.0349e-05
2.52611e-06
1.00933e-05
3.21073e-06
9.77985e-06
3.78517e-06
9.41712e-06
4.25349e-06
9.01179e-06
4.623e-06
8.57114e-06
4.90097e-06
8.10087e-06
5.09648e-06
7.60683e-06
5.21782e-06
7.09351e-06
5.27379e-06
6.56541e-06
5.27175e-06
6.026e-06
5.21856e-06
5.47875e-06
5.11926e-06
4.92653e-06
4.9778e-06
4.37242e-06
4.79625e-06
3.81951e-06
4.57542e-06
3.27159e-06
4.31456e-06
2.73329e-06
4.01196e-06
2.21082e-06
3.66516e-06
1.7124e-06
3.27182e-06
1.24898e-06
2.83075e-06
8.34539e-07
2.34373e-06
4.85797e-07
1.81791e-06
2.2079e-07
1.26852e-06
5.58013e-08
7.21058e-07
2.13041e-07
-6.61328e-08
2.7306e-07
-2.61169e-07
9.01911e-07
-5.69214e-07
1.55602e-06
-9.65148e-07
2.1885e-06
-1.42443e-06
2.77333e-06
-1.92662e-06
3.29919e-06
-2.45576e-06
3.76385e-06
-3.00016e-06
4.16986e-06
-3.55163e-06
4.52169e-06
-4.10463e-06
4.8241e-06
-4.65512e-06
5.08105e-06
-5.20012e-06
5.29539e-06
-5.73692e-06
5.46827e-06
-6.26319e-06
5.59931e-06
-6.77627e-06
5.68619e-06
-7.27357e-06
5.72512e-06
-7.75177e-06
5.71038e-06
-8.20755e-06
5.63527e-06
-8.63658e-06
5.49143e-06
-9.03464e-06
5.27039e-06
-9.39628e-06
4.96258e-06
-9.71651e-06
4.55956e-06
-9.9889e-06
4.05255e-06
-1.02079e-05
3.43528e-06
-1.03664e-05
2.70187e-06
-1.04586e-05
1.8503e-06
-1.04765e-05
8.7926e-07
-1.04138e-05
-2.07644e-07
-1.02605e-05
-1.40615e-06
-1.00076e-05
-2.70603e-06
-9.64053e-06
-4.09551e-06
-9.14504e-06
-5.55337e-06
-8.50225e-06
-7.05174e-06
-7.69894e-06
-8.545e-06
-6.7284e-06
-9.97394e-06
-5.60244e-06
-1.12664e-05
-4.34111e-06
-1.23656e-05
-2.97048e-06
-1.32332e-05
-1.51878e-06
-1.38411e-05
-2.32865e-08
-1.41616e-05
1.47519e-06
-1.41797e-05
2.93431e-06
-1.38935e-05
4.316e-06
-1.33161e-05
5.5901e-06
-1.24728e-05
6.73039e-06
-1.13917e-05
7.7152e-06
-1.01092e-05
8.53186e-06
-8.68246e-06
9.18549e-06
-7.18402e-06
9.68948e-06
-5.67553e-06
1.00626e-05
-4.20443e-06
1.03201e-05
-2.80009e-06
1.04767e-05
-1.48462e-06
1.05417e-05
-2.7047e-07
1.0525e-05
8.31773e-07
1.04334e-05
1.81755e-06
1.02749e-05
2.68296e-06
1.00555e-05
3.42911e-06
9.78235e-06
4.05781e-06
9.46098e-06
4.57493e-06
9.0978e-06
4.98667e-06
8.69782e-06
5.30189e-06
8.26657e-06
5.52903e-06
7.80826e-06
5.67777e-06
7.32729e-06
5.7566e-06
6.82698e-06
5.77404e-06
6.31071e-06
5.73683e-06
5.78105e-06
5.65086e-06
5.2407e-06
5.51995e-06
4.69195e-06
5.34659e-06
4.13754e-06
5.13121e-06
3.58051e-06
4.87275e-06
3.025e-06
4.56841e-06
2.47664e-06
4.21422e-06
1.94361e-06
3.80531e-06
1.43754e-06
3.33711e-06
9.74485e-07
2.80695e-06
5.7529e-07
2.21715e-06
2.6472e-07
1.57906e-06
6.754e-08
9.1838e-07
2.8037e-07
-8.30519e-08
3.56272e-07
-3.20649e-07
1.14023e-06
-6.84493e-07
1.92023e-06
-1.13726e-06
2.64185e-06
-1.64657e-06
3.28343e-06
-2.18839e-06
3.84159e-06
-2.74601e-06
4.3217e-06
-3.30818e-06
4.73214e-06
-3.86773e-06
5.08143e-06
-4.42003e-06
5.37675e-06
-4.96208e-06
5.62358e-06
-5.49153e-06
5.8254e-06
-6.00646e-06
5.98383e-06
-6.50482e-06
6.09833e-06
-6.98466e-06
6.16667e-06
-7.4435e-06
6.18452e-06
-7.87891e-06
6.14623e-06
-8.28769e-06
6.04427e-06
-8.66684e-06
5.87053e-06
-9.01238e-06
5.61552e-06
-9.3208e-06
5.27024e-06
-9.5875e-06
4.82509e-06
-9.80881e-06
4.27236e-06
-9.97981e-06
3.60445e-06
-1.00971e-05
2.8171e-06
-1.01556e-05
1.90661e-06
-1.01521e-05
8.7364e-07
-1.00811e-05
-2.80873e-07
-9.93807e-06
-1.55134e-06
-9.71325e-06
-2.93289e-06
-9.39547e-06
-4.4151e-06
-8.96436e-06
-5.98616e-06
-8.39655e-06
-7.62107e-06
-7.66339e-06
-9.27966e-06
-6.75004e-06
-1.08887e-05
-5.66061e-06
-1.2357e-05
-4.41764e-06
-1.36094e-05
-3.0402e-06
-1.46116e-05
-1.55879e-06
-1.53237e-05
-1.78222e-08
-1.57042e-05
1.5263e-06
-1.57253e-05
3.01715e-06
-1.53853e-05
4.40753e-06
-1.47075e-05
5.66575e-06
-1.37325e-05
6.77083e-06
-1.24991e-05
7.69963e-06
-1.10409e-05
8.44599e-06
-9.43192e-06
9.02363e-06
-7.76524e-06
9.46104e-06
-6.11692e-06
9.78256e-06
-4.52988e-06
1.00093e-05
-3.03056e-06
1.01534e-05
-1.63178e-06
1.02247e-05
-3.44459e-07
1.02277e-05
8.26265e-07
1.01685e-05
1.87461e-06
1.00501e-05
2.79956e-06
9.8778e-06
3.60016e-06
9.65498e-06
4.28006e-06
9.38665e-06
4.84331e-06
9.07632e-06
5.29761e-06
8.72867e-06
5.65056e-06
8.34713e-06
5.91198e-06
7.93577e-06
6.09081e-06
7.49755e-06
6.19672e-06
7.03576e-06
6.23782e-06
6.55277e-06
6.22183e-06
6.05112e-06
6.15443e-06