/*--------------------------------*- C++ -*----------------------------------*\
| =========                 |                                                 |
| \\      /  F ield         | OpenFOAM: The Open Source CFD Toolbox           |
|  \\    /   O peration     | Version:  2412                                  |
|   \\  /    A nd           | Website:  www.openfoam.com                      |
|    \\/     M anipulation  |                                                 |
\*---------------------------------------------------------------------------*/
FoamFile
{
    version     2.0;
    format      ascii;
    arch        "LSB;label=32;scalar=64";
    class       volScalarField;
    location    "3.05";
    object      alpha.oil;
}
// * * * * * * * * * * * * * * * * * * * * * * * * * * * * * * * * * * * * * //

dimensions      [0 0 0 0 0 0 0];

internalField   nonuniform List<scalar> 
6400
(
1
1
1
1
1
1
1
1
1
1
1
1
1
1
1
1
1
1
1
1
1
1
1
1
1
1
1
1
1
1
1
0.999999
0.999999
0.999999
0.999999
0.999999
0.999999
1
1
1
1
1
1
1
1
1
1
1
1
1
1
1
1
1
1
1
1
1
1
1
1
1
1
1
1
1
1
1
1
1
1
1
1
0.999999
0.999999
1
1
1
1
1
1
1
1
1
1
1
1
1
1
1
1
1
1
1
1
1
1
1
1
1
1
1
1
1
1
1
1
1
1
1
0.999999
0.999999
0.999999
0.999999
0.999999
1
1
1
1
1
1
1
1
1
1
1
1
1
1
1
1
1
1
1
1
1
1
1
1
1
1
1
1
1
1
1
1
1
1
1
1
0.999999
0.999999
0.999999
0.999999
1
0.999999
0.999999
0.999999
1
1
1
1
1
1
1
1
1
1
1
1
1
1
1
0.999999
0.999999
0.999999
1
1
1
1
1
1
1
1
1
1
1
1
1
1
1
1
1
1
1
0.999999
0.999999
0.999999
0.999999
0.999999
0.999999
0.999999
0.999999
1
1
0.999999
0.999999
0.999999
0.999999
0.999999
0.999999
1
1
1
1
1
1
1
1
1
1
0.999999
0.999999
1
1
1
1
1
1
1
0.999999
0.999999
0.999999
1
1
1
1
1
1
1
1
1
1
1
1
1
0.999999
0.999999
1
0.999999
0.999999
1
1
0.999999
0.999999
1
1
1
1
1
1
1
1
1
1
1
1
1
1
1
1
1
1
1
0.999999
0.999999
0.999999
1
1
1
1
0.999999
1
1
1
1
1
0.999999
1
1
1
1
1
1
1
1
1
1
1
1
1
1
1
1
1
1
1
1
1
1
1
1
1
1
1
1
1
1
0.999999
1
1
1
1
1
0.999999
1
0.999999
1
1
1
1
1
1
1
1
1
1
1
1
1
1
1
1
1
1
1
1
1
1
1
1
1
1
0.999999
0.999999
0.999999
1
1
1
1
1
1
1
1
1
1
1
1
1
1
1
1
1
1
1
1
1
1
1
1
1
1
1
1
1
1
1
1
1
1
1
1
1
1
1
1
1
0.999999
1
1
1
1
1
1
1
1
1
1
1
1
1
1
1
1
1
1
1
1
1
1
1
1
1
1
1
1
1
1
1
1
1
1
1
1
1
1
0.999999
1
1
1
1
0.999999
0.999999
0.999999
1
1
1
1
1
1
1
1
1
1
1
1
1
1
1
1
1
1
1
1
1
0.999999
0.999999
0.999999
0.999999
1
1
1
1
1
0.999999
0.999999
0.999999
0.999999
1
1
0.999999
1
1
1
1
1
1
1
1
1
1
1
1
1
1
1
1
1
1
1
1
1
1
1
1
1
1
1
1
1
1
1
1
1
1
1
1
0.999999
0.999999
0.999999
0.999999
0.999999
0.999998
0.999998
0.999998
0.999999
0.999999
1
1
1
1
1
1
1
1
1
1
1
1
1
1
1
1
1
0.999999
0.999999
0.999999
0.999999
1
1
1
1
1
1
1
1
0.999999
1
1
1
0.999999
1
1
1
1
1
1
1
1
1
1
1
1
1
0.999999
0.999999
1
1
1
1
1
1
1
1
1
1
1
1
1
1
1
1
1
1
1
1
1
1
1
1
1
1
0.999999
0.999999
0.999999
0.999999
1
1
1
1
1
1
1
1
1
1
1
1
1
1
1
1
1
1
1
1
1
1
1
1
1
0.999999
0.999999
1
1
1
1
1
1
1
0.999999
0.999999
0.999999
1
0.999999
1
0.999999
1
1
1
1
1
1
1
1
1
1
1
1
1
1
1
1
1
1
1
1
1
0.999999
0.999999
0.999999
1
1
1
1
1
1
1
1
1
1
1
1
1
1
1
1
1
1
1
1
1
1
1
1
1
1
1
1
1
1
1
1
1
1
1
1
1
1
1
1
0.999999
0.999999
1
1
0.999999
1
1
0.999998
1
0.999999
0.999999
0.999999
0.999999
0.999999
1
0.999999
1
1
1
1
1
1
1
1
1
1
1
1
1
1
1
1
1
1
1
1
1
0.999999
0.999998
0.999998
0.999998
0.999998
0.999998
0.999999
0.999999
0.999999
0.999999
0.999999
0.999999
0.999999
1
1
1
1
1
1
1
1
1
1
1
1
1
1
1
1
1
1
1
1
1
1
1
1
1
1
1
1
1
1
1
1
1
1
1
1
0.999999
1
0.999999
0.999998
0.999999
0.999999
0.999999
1
1
1
1
1
1
1
1
1
1
1
1
1
1
1
1
1
1
1
1
1
1
1
1
0.999999
0.999999
0.999999
0.999998
0.999999
0.999999
0.999999
0.999999
0.999999
0.999999
0.999999
0.999999
0.999999
0.999999
0.999999
0.999999
0.999999
0.999999
0.999999
0.999999
0.999999
0.999999
0.999999
0.999999
0.999998
0.999998
0.999998
0.999999
0.999999
1
1
1
1
1
1
1
1
1
1
1
1
1
1
1
1
1
1
1
1
0.999999
1
0.999999
0.999999
0.999999
1
0.999999
1
1
1
1
1
1
1
1
1
1
1
1
1
1
1
1
1
1
1
1
1
1
1
1
1
1
1
1
1
1
1
1
1
1
1
1
1
1
1
1
1
1
1
0.999999
0.999999
0.999998
0.999998
0.999998
0.999998
0.999999
0.999999
1
1
1
1
1
1
1
1
1
1
1
1
1
1
1
1
1
1
1
1
0.999999
0.999997
1
0.999999
0.999999
0.999999
1
1
0.999999
1
0.999999
0.999999
1
1
1
1
1
1
1
1
1
1
1
1
1
1
1
1
0.999999
0.999999
0.999999
0.999999
1
1
1
1
1
1
1
1
1
1
1
1
1
1
1
1
1
1
1
1
1
1
1
1
1
1
1
1
1
1
1
1
1
1
1
1
1
1
1
1
1
1
1
1
1
0.999999
0.999999
0.999999
0.999998
0.999998
1
0.999998
1
1
0.999999
1
0.999999
1
0.999999
1
1
1
1
1
1
1
1
1
1
1
1
1
1
1
1
1
1
1
0.999999
0.999999
1
1
1
0.999999
0.999999
0.999999
0.999999
1
1
1
1
1
1
1
1
1
1
1
1
1
1
1
1
1
1
1
1
1
1
1
1
1
1
1
1
1
1
1
1
1
1
1
1
1
1
0.999999
0.999999
0.999999
0.999998
1
0.999998
1
1
1
1
1
1
1
0.999999
1
1
1
1
1
1
1
1
1
1
1
1
1
1
1
1
1
1
1
1
1
0.999999
0.999999
0.999999
0.999999
0.999999
1
0.999999
0.999999
0.999999
0.999999
0.999999
0.999999
0.999999
0.999999
0.999999
0.999999
0.999999
0.999999
0.999999
0.999999
0.999999
1
1
1
1
0.999999
0.999999
0.999999
0.999999
0.999999
1
1
1
1
1
1
1
1
1
1
1
1
1
1
1
0.999999
0.999999
0.999999
1
1
0.999997
1
1
1
1
1
1
1
1
1
1
1
1
1
1
1
1
1
1
1
1
1
1
1
1
1
1
1
0.999999
0.999999
0.999999
0.999999
0.999999
0.999999
0.999999
0.999999
0.999999
0.999999
0.999999
0.999998
0.999998
0.999999
0.999998
0.999998
0.999998
0.999998
0.999998
0.999998
0.999999
0.999999
0.999999
1
1
0.999999
0.999999
0.999999
1
1
1
1
1
0.999999
0.999999
1
1
1
1
1
1
1
1
1
1
1
1
1
1
1
1
0.999998
1
0.999999
1
1
1
1
1
1
1
1
1
1
1
1
1
1
0.999999
0.999999
0.999999
1
1
1
1
1
1
1
1
1
1
1
1
1
1
1
0.999999
0.999999
0.999999
0.999999
0.999998
0.999999
0.999998
0.999998
0.999998
0.999998
0.999997
0.999997
0.999998
0.999998
0.999998
0.999999
0.999999
0.999999
0.999999
0.999999
1
1
1
1
1
1
1
1
1
1
1
1
1
1
1
1
1
1
1
1
1
1
1
1
1
0.999997
1
0.999999
1
1
0.999999
1
1
1
1
1
1
1
1
1
1
1
1
1
1
1
1
1
1
1
1
1
1
1
1
1
1
1
1
1
0.999999
0.999999
0.999999
0.999999
0.999998
0.999999
0.999998
0.999998
0.999998
0.999998
0.999997
0.999997
0.999998
0.999998
0.999998
0.999999
0.999999
0.999999
0.999999
0.999999
1
1
1
1
1
1
1
1
1
1
1
1
1
1
1
1
1
1
1
1
1
1
0.999999
1
0.999999
1
1
1
1
1
1
1
1
1
1
1
1
1
1
1
1
1
1
1
1
1
1
0.999999
0.999999
0.999999
0.999998
0.999998
0.999998
0.999998
0.999998
0.999998
0.999998
0.999998
0.999998
0.999998
0.999998
0.999998
0.999998
0.999998
0.999998
0.999998
0.999998
0.999997
0.999997
0.999997
0.999997
0.999997
0.999997
0.999997
0.999997
0.999997
0.999997
0.999997
0.999997
0.999997
0.999997
0.999998
0.999998
0.999998
0.999998
0.999998
0.999999
0.999999
0.999999
1
1
1
1
1
1
1
1
1
1
1
1
1
1
1
1
1
1
1
0.897249
0.879357
0.880082
0.886413
0.892851
0.89854
0.903347
0.907393
0.911097
0.914842
0.918371
0.921404
0.923924
0.925721
0.926301
0.9255
0.924494
0.924526
0.924834
0.924336
0.922593
0.919465
0.915438
0.912731
0.91184
0.910822
0.908398
0.904904
0.900831
0.894342
0.88759
0.882961
0.880135
0.884494
0.891111
0.894946
0.899398
0.903529
0.904333
0.906043
0.907034
0.904045
0.902078
0.901205
0.896118
0.894343
0.888859
0.876844
0.877791
0.881366
0.886867
0.893334
0.898524
0.902064
0.905428
0.906963
0.907717
0.909572
0.913203
0.916944
0.919455
0.920724
0.921016
0.920775
0.921051
0.922229
0.92302
0.922314
0.920411
0.917917
0.914936
0.911556
0.908046
0.904276
0.899716
0.894098
0.887527
0.880808
0.879464
0.896416
0.121505
0.1342
0.145314
0.156151
0.165712
0.173949
0.18101
0.187152
0.192247
0.194932
0.198073
0.201582
0.204525
0.207473
0.210734
0.213727
0.215311
0.213957
0.211986
0.209714
0.208336
0.207905
0.207107
0.204698
0.198626
0.19365
0.190676
0.189804
0.190493
0.193996
0.200961
0.206307
0.206225
0.201474
0.199436
0.193581
0.187937
0.185531
0.184377
0.182898
0.18212
0.183668
0.184882
0.18538
0.187576
0.192349
0.197337
0.202441
0.204904
0.202207
0.194538
0.188832
0.186653
0.186532
0.188011
0.191845
0.197607
0.20145
0.202718
0.202939
0.203713
0.20576
0.208313
0.210253
0.211906
0.210665
0.207757
0.205104
0.202738
0.199871
0.196744
0.194154
0.189905
0.184021
0.177095
0.168833
0.159099
0.147966
0.136559
0.12342
1.38594e-05
6.81906e-06
9.765e-06
1.24682e-05
1.43101e-05
1.53587e-05
1.52913e-05
2.05818e-05
0.000190103
0.00132107
0.00196641
0.001773
0.00164709
0.0014697
0.00109001
0.000988127
0.000767043
0.000416947
0.000402368
0.000384232
0.000363071
0.00034174
0.000331984
0.000332826
0.000302229
0.000240288
0.000179372
0.000121339
6.07976e-05
1.72963e-05
5.07901e-06
4.37406e-06
1.6889e-06
0.000838448
2.60247e-08
2.59868e-08
2.61982e-08
2.94091e-08
3.76473e-08
2.8255e-08
2.16394e-08
1.39145e-08
8.13144e-09
7.14848e-09
7.07993e-09
7.08011e-09
7.07993e-09
7.07998e-09
3.13167e-06
6.17204e-06
1.00587e-05
3.92784e-05
9.76275e-05
0.000163603
0.000229505
0.000300618
0.000368936
0.00039358
0.000407377
0.000447285
0.000498082
0.000561047
0.000649503
0.000817993
0.00106978
0.0010585
0.0012729
0.00146463
0.00152364
0.00166766
0.00135485
0.000423863
3.38497e-05
1.58197e-05
1.57135e-05
1.47678e-05
1.29409e-05
1.01887e-05
7.13009e-06
1.4626e-05
9.51874e-08
2.48748e-09
4.901e-10
4.27419e-08
2.4252e-07
7.16312e-07
9.03708e-07
1.13828e-06
0.000271732
0.00177502
0.00215099
0.00178741
0.00172274
0.0018705
0.00183367
0.00123171
0.00234328
0.00506527
0.00506649
0.00506527
0.00506286
0.00505883
0.00352624
0.000727959
0.00733094
0.00920199
0.00922147
0.00921006
0.00917655
0.00762265
0.00322126
1.6889e-06
3.15871e-08
2.77909e-08
2.60133e-08
2.61982e-08
1.39727e-06
3.97815e-06
3.98467e-06
3.59541e-06
2.57623e-06
2.5532e-06
2.48228e-06
3.44224e-07
7.14841e-09
7.08011e-09
7.0961e-09
7.897e-09
3.9717e-07
0.000680914
0.00569465
0.00896816
0.00996543
0.00997849
0.00997301
0.00968118
0.00221605
0.00231244
0.00633917
0.00643697
0.00644159
0.00644379
0.00644159
0.00644203
0.00222256
0.00104238
0.00139213
0.00149907
0.00152737
0.00179308
0.00178499
0.000750237
2.37133e-06
1.01107e-06
7.86492e-07
3.47345e-07
7.12417e-08
1.05082e-09
3.40938e-09
1.01907e-07
2.30652e-11
1.46157e-10
3.97009e-10
3.71182e-10
3.4527e-09
2.53569e-08
5.98287e-08
1.99597e-07
2.3022e-05
0.000201733
0.000656617
0.0013392
0.00172974
0.00170339
0.00119636
0.000649429
0.000319344
0.000516938
0.00164983
0.00225763
0.00197958
0.000833025
0.000661648
0.000471874
5.2416e-07
1.25925e-08
0.00018211
1.6852e-10
1.68823e-10
2.2192e-10
2.84145e-10
1.99541e-05
2.62437e-06
2.84805e-08
2.77909e-08
1.81944e-07
3.1852e-06
3.9864e-06
3.97817e-06
3.96233e-06
1.88692e-06
2.06478e-06
1.39632e-06
9.92449e-08
7.50302e-09
7.20527e-09
7.25863e-09
7.36282e-09
9.54749e-06
2.68146e-05
3.35434e-10
3.34601e-10
3.35434e-10
3.34601e-10
2.06581e-10
6.715e-10
0.000964284
0.00132561
0.000698396
0.00173695
0.00277157
0.00251498
0.00122492
0.000177846
0.000317382
0.000688295
0.00151107
0.00151122
0.00145934
0.000872478
0.000300683
9.73955e-05
3.28108e-07
7.91795e-08
3.68146e-08
7.28384e-09
9.94198e-10
1.09309e-09
6.05812e-10
1.22882e-10
2.34069e-11
2.34029e-11
1.91822e-10
4.50161e-10
5.31567e-10
3.46565e-09
1.03061e-08
7.9986e-08
1.40465e-07
3.6059e-08
2.99561e-08
3.26485e-08
3.38888e-08
4.28086e-08
3.69204e-05
9.90952e-06
9.11851e-09
9.11851e-09
9.08485e-09
9.12086e-09
9.7164e-09
1.09009e-08
1.2059e-08
5.89776e-05
2.78435e-06
3.89648e-11
9.66072e-11
1.66232e-10
1.68073e-10
1.68823e-10
2.04241e-08
3.84342e-07
2.80322e-07
2.85757e-08
2.84799e-08
8.01622e-08
1.64768e-07
4.01755e-08
2.5777e-06
3.94651e-06
1.40055e-08
1.45794e-08
1.56659e-08
4.28499e-08
3.01439e-08
1.04305e-08
7.36121e-09
7.50711e-09
6.89463e-07
7.08402e-09
7.01516e-09
5.25715e-10
3.96653e-10
3.31409e-10
6.68357e-11
6.49937e-06
6.49528e-05
4.69967e-11
4.63394e-11
4.69839e-11
2.67435e-10
7.4671e-10
1.26974e-09
1.59123e-09
1.76535e-09
7.18103e-05
6.3731e-05
4.2043e-05
4.43073e-08
3.82339e-08
7.21638e-08
1.4212e-07
1.01486e-07
2.03874e-08
7.75874e-09
2.04257e-09
1.68614e-09
7.17876e-10
1.23701e-10
1.23717e-10
2.33711e-11
8.48891e-11
4.37822e-10
5.31567e-10
2.52324e-09
7.22688e-09
7.2559e-09
3.06521e-07
5.43158e-07
3.06617e-08
2.68893e-08
4.21646e-08
2.07607e-07
2.23445e-07
5.12597e-08
2.30015e-08
9.60044e-09
9.08485e-09
9.12086e-09
6.26399e-08
1.00946e-07
1.00885e-07
9.38679e-08
2.32923e-11
3.13028e-11
3.51272e-11
1.45781e-10
1.67184e-10
1.7501e-10
1.76672e-10
3.12387e-10
1.65778e-07
7.8579e-07
9.41892e-07
1.09951e-06
1.31896e-06
4.64531e-07
2.31428e-08
8.8114e-07
6.20745e-07
1.37626e-08
3.05381e-08
8.70884e-08
6.8893e-09
1.28371e-08
1.48267e-08
1.25255e-08
8.9425e-09
6.90822e-09
6.85184e-09
4.53203e-09
3.90309e-09
2.37198e-09
7.73632e-10
5.80119e-11
4.97142e-11
4.9006e-11
4.82315e-11
4.56692e-11
2.35378e-08
3.08619e-08
3.07021e-08
1.59733e-08
5.50043e-09
5.01792e-09
3.69226e-08
6.13193e-08
4.88519e-08
4.95729e-08
3.72363e-08
3.75135e-08
4.49426e-08
1.02551e-07
1.89808e-08
1.89612e-08
4.63779e-09
2.04257e-09
1.50718e-09
5.25696e-10
1.23637e-10
8.62332e-11
1.1016e-09
6.24252e-09
6.3775e-09
6.54108e-07
1.67613e-06
1.49104e-06
3.76329e-08
5.37178e-08
2.8378e-08
2.4885e-08
3.68379e-08
4.29293e-08
3.61445e-08
7.0676e-08
9.02082e-08
6.21599e-08
2.11105e-08
1.23322e-08
2.73852e-09
2.01416e-11
2.02489e-11
2.0197e-11
2.02865e-11
1.56541e-10
1.64527e-10
1.66119e-10
1.856e-10
1.98743e-10
1.9635e-10
3.7163e-10
3.28607e-07
1.43813e-06
1.45325e-06
1.46192e-06
1.46167e-06
4.8248e-07
1.35264e-08
1.52462e-06
1.5323e-08
8.68346e-09
5.4455e-08
8.90509e-08
6.89351e-09
6.88922e-09
1.02804e-08
1.13621e-08
9.23465e-09
6.59362e-09
8.06131e-09
8.07061e-09
6.72612e-09
3.16142e-09
6.21851e-10
1.34169e-10
1.41584e-10
1.23587e-10
6.77598e-11
4.51652e-11
4.56692e-11
4.74976e-11
5.06206e-11
1.70821e-08
4.54471e-08
7.76066e-08
8.48061e-08
5.78392e-08
3.95519e-08
3.77038e-08
3.71341e-08
3.67596e-08
3.45385e-08
3.2892e-08
1.72601e-06
5.28495e-06
4.55778e-06
4.63795e-07
1.73077e-08
6.19096e-09
7.612e-10
1.10293e-09
6.49576e-07
3.38464e-06
3.91428e-06
2.92444e-06
7.35294e-08
1.60619e-07
3.19908e-08
2.59591e-08
2.4885e-08
2.38259e-08
2.31699e-08
2.24114e-08
2.21606e-08
3.26557e-08
3.5158e-08
3.60333e-08
3.74074e-08
3.74074e-08
1.53099e-08
2.0513e-11
2.01416e-11
2.02865e-11
2.57769e-11
4.73805e-11
6.21364e-11
7.0246e-11
1.27894e-10
1.92788e-10
2.12233e-10
2.21279e-10
1.40493e-08
4.11525e-07
1.00556e-06
1.14831e-06
6.37284e-07
2.16061e-08
1.32011e-08
1.53997e-06
3.68191e-07
4.2283e-09
1.40757e-08
4.96583e-08
6.89148e-09
6.90415e-09
6.9108e-09
6.90607e-09
7.41652e-09
6.58145e-09
4.32077e-09
1.32806e-09
1.20022e-10
6.72672e-11
6.71094e-11
4.79547e-11
4.86874e-11
4.78712e-11
4.09866e-11
4.48162e-11
1.03493e-10
1.92115e-10
5.56788e-11
4.7717e-08
1.11263e-07
1.1274e-07
1.12989e-07
1.12786e-07
1.12945e-07
1.12392e-07
5.69048e-08
3.45395e-08
3.2277e-08
3.13632e-08
1.89135e-07
9.20875e-08
1.04509e-05
1.24396e-05
9.71829e-06
1.99529e-06
2.42444e-08
2.92723e-08
3.13746e-06
8.63936e-06
1.16e-05
1.40538e-06
4.90193e-08
3.70279e-08
3.65445e-08
3.19909e-08
2.88358e-08
7.7345e-08
1.2276e-07
4.92216e-08
1.87856e-08
1.57506e-08
1.33119e-08
1.25916e-08
1.26924e-08
8.97626e-09
9.17647e-10
3.53908e-10
3.31938e-11
2.948e-11
1.7803e-11
1.72448e-11
1.96041e-11
2.33588e-11
5.15066e-11
1.53511e-10
3.08525e-10
5.76957e-10
1.1666e-09
1.18976e-09
1.83928e-08
2.6487e-08
7.88599e-09
8.71626e-09
1.29537e-09
1.53991e-06
3.82449e-07
3.41662e-09
3.27468e-09
2.14717e-08
4.99163e-08
2.5801e-08
1.06716e-08
1.41128e-09
9.6955e-10
4.74216e-10
1.33096e-10
1.19338e-10
1.17499e-10
9.73876e-11
5.82127e-11
2.51231e-11
7.40328e-12
7.60761e-12
7.95957e-12
1.41378e-10
5.31702e-10
1.37057e-09
1.83343e-09
2.02483e-09
2.63106e-08
7.80921e-08
1.02293e-07
1.12897e-07
1.12392e-07
1.11468e-07
6.33305e-08
3.2277e-08
3.13168e-08
3.10994e-08
3.13631e-08
3.46638e-08
5.65019e-08
3.54341e-05
5.79503e-05
1.67804e-05
7.78337e-08
1.2303e-07
1.47383e-05
3.81872e-05
2.54806e-05
4.48043e-07
6.22589e-08
4.90193e-08
5.45681e-06
1.05406e-06
1.53192e-07
6.09651e-07
6.21364e-07
2.43336e-07
2.67939e-08
8.84367e-08
6.44075e-08
2.12355e-08
2.59671e-09
5.20383e-11
4.91322e-11
1.10823e-10
1.60272e-10
8.13389e-11
1.84817e-11
1.43629e-11
1.20034e-11
1.05146e-11
1.21947e-11
4.54902e-11
1.94525e-10
5.54224e-10
9.44118e-10
1.18945e-09
1.19698e-09
1.35647e-09
1.29556e-09
1.2948e-09
1.29537e-09
9.88355e-07
2.19407e-07
3.27468e-09
3.16909e-09
2.86157e-08
5.55328e-08
5.55328e-08
2.75805e-08
1.90335e-09
1.83028e-10
1.82865e-10
1.79763e-10
1.52649e-10
9.13096e-11
3.37376e-11
9.03169e-12
3.0158e-12
3.01258e-12
7.29704e-12
2.12298e-11
3.18217e-10
7.94918e-10
3.89364e-10
2.30385e-09
2.11423e-09
2.17745e-09
4.24005e-09
6.19764e-08
1.00049e-07
4.67351e-08
3.39953e-08
3.32919e-08
3.44248e-08
3.11184e-08
3.12525e-08
3.11032e-08
3.25108e-08
3.58158e-08
1.67311e-05
8.74922e-05
3.50309e-05
5.96381e-07
7.79892e-07
3.23854e-05
8.7256e-05
5.22749e-05
8.61545e-07
3.91053e-06
4.60599e-05
5.53593e-05
3.65286e-05
5.03778e-07
1.32411e-07
1.34347e-07
1.56297e-07
1.80087e-07
1.80175e-07
1.77677e-07
1.08059e-07
1.96193e-08
4.91322e-11
4.60748e-11
1.65683e-10
2.2353e-10
1.55455e-10
3.96143e-11
1.48997e-11
1.12694e-11
8.199e-12
7.05862e-12
7.31159e-12
1.69802e-11
7.44682e-11
3.31839e-10
1.01463e-09
1.80833e-09
2.19992e-09
2.08364e-09
1.59608e-09
1.43606e-09
1.4426e-09
8.93209e-07
3.93486e-08
3.02049e-09
3.4417e-08
5.55328e-08
2.1479e-08
1.09409e-09
5.11898e-10
2.01413e-10
1.85309e-10
1.33678e-10
6.36747e-11
1.87212e-11
4.0008e-12
1.63055e-12
1.94457e-12
2.684e-12
1.04844e-11
4.10319e-11
1.0369e-10
1.28981e-10
1.62391e-10
4.77325e-09
2.32454e-09
2.51745e-09
1.10079e-07
1.6174e-07
1.61687e-07
8.30055e-08
3.59962e-08
4.00358e-08
9.69901e-07
1.41434e-07
3.1219e-08
3.25106e-08
3.58223e-08
3.87553e-08
4.27898e-08
0.000155094
7.59336e-05
2.2181e-06
2.41911e-06
5.42433e-05
0.000200679
3.19642e-05
2.23093e-06
2.02541e-05
6.24628e-05
5.98165e-05
2.53369e-05
1.3477e-07
1.33995e-07
1.26947e-07
9.71453e-08
1.18471e-07
8.58608e-08
5.98579e-08
4.62665e-08
3.52739e-08
1.09459e-10
4.22802e-11
1.30415e-10
2.28358e-10
2.14738e-10
7.12048e-11
1.649e-11
1.13918e-11
7.36305e-12
4.88425e-12
4.34207e-12
6.13816e-12
2.13591e-11
8.16891e-11
3.45973e-10
1.12558e-09
2.16251e-09
2.5477e-09
1.71748e-09
2.91907e-09
1.45095e-09
1.13886e-06
3.50294e-07
2.65766e-09
2.60034e-08
1.91801e-08
2.25028e-10
2.20735e-10
2.1972e-10
1.92206e-10
1.28901e-10
5.96709e-11
1.74822e-11
3.09107e-12
9.75293e-13
1.1221e-12
1.81102e-12
3.25336e-12
8.17186e-12
1.55458e-11
1.54188e-10
2.99449e-10
2.79461e-10
4.2598e-09
8.03773e-11
3.77463e-08
1.54983e-07
1.59262e-07
1.61687e-07
6.69008e-08
3.25404e-08
3.55551e-08
3.55552e-08
6.63427e-06
6.27898e-05
2.60349e-05
3.87564e-08
4.27845e-08
7.48994e-07
0.000211113
0.000107381
5.78048e-06
4.96344e-06
7.40078e-05
0.000321889
2.74377e-05
5.38415e-06
4.61988e-05
6.41116e-05
5.7209e-05
1.06177e-06
1.69573e-07
1.34784e-07
8.35977e-08
9.99201e-09
1.82417e-10
1.05457e-10
8.99309e-11
7.34793e-11
1.66873e-09
9.23547e-09
4.22073e-11
6.79795e-11
2.00467e-10
2.12513e-10
8.7588e-11
1.6651e-11
1.01847e-11
6.32419e-12
3.08648e-12
2.33018e-12
3.01992e-12
1.26661e-11
4.07615e-11
1.05509e-10
3.23236e-10
1.23564e-09
2.24516e-09
1.71744e-09
1.31709e-08
1.46217e-09
1.14026e-06
1.08861e-06
9.55505e-10
3.9289e-09
9.74415e-10
1.10686e-09
7.09104e-10
2.61605e-10
1.19404e-10
5.8231e-11
2.09787e-11
4.63207e-12
6.83796e-13
5.68181e-13
8.45441e-13
1.82508e-12
3.51854e-12
3.98709e-12
1.47754e-11
2.10809e-10
4.25905e-10
4.61312e-10
8.21255e-10
4.91545e-11
1.06783e-08
9.15935e-08
9.58469e-08
1.50542e-08
1.54058e-08
2.70253e-08
3.25404e-08
3.8838e-08
5.1087e-05
0.000109048
0.000112845
1.93242e-05
8.54788e-07
1.38452e-06
0.000247508
0.000131894
1.09222e-05
7.94664e-06
0.000101267
0.000344095
5.51241e-05
9.25785e-06
5.26227e-05
6.46885e-05
6.41116e-05
1.19508e-05
1.77305e-07
1.79174e-07
2.46858e-07
6.42701e-08
1.28141e-08
8.99139e-11
7.34793e-11
6.90751e-11
2.16499e-10
4.08921e-09
3.34719e-11
3.24757e-11
9.87006e-11
1.59051e-10
7.38736e-11
1.4712e-11
6.06321e-12
3.84663e-12
1.64368e-12
1.02967e-12
1.35323e-12
7.82804e-12
3.03509e-11
7.81885e-11
2.28243e-10
1.29383e-09
2.65754e-09
1.95864e-09
1.41654e-08
1.49894e-09
1.14075e-06
1.18162e-06
9.56368e-10
9.55489e-10
2.39785e-09
2.82713e-09
9.71791e-10
1.71895e-10
7.74909e-11
3.68325e-11
1.12118e-11
1.8816e-12
2.69858e-13
2.80431e-13
5.90295e-13
1.43473e-12
2.22127e-12
3.00894e-12
2.63197e-11
2.3711e-10
4.03003e-10
4.2289e-10
8.06479e-11
4.75802e-11
4.67367e-11
4.89549e-11
5.25861e-11
1.18453e-10
3.23677e-09
2.86489e-08
3.8838e-08
1.23612e-07
8.21506e-05
0.000113542
0.000115161
4.92514e-05
4.31649e-06
2.64587e-06
0.000296174
0.000161379
1.65057e-05
8.71052e-06
0.000121729
0.000354975
0.000208599
1.37985e-05
3.06749e-05
6.431e-05
6.46885e-05
4.17688e-05
2.53112e-07
6.56735e-07
1.44737e-06
5.51678e-06
2.46561e-07
1.59013e-10
6.90736e-11
6.75506e-11
4.86765e-11
4.11973e-11
7.95313e-11
2.3918e-11
3.1784e-11
5.23742e-11
5.25564e-11
1.17075e-11
2.83828e-12
1.61557e-12
7.0359e-13
4.04591e-13
7.01622e-13
5.2649e-12
2.38531e-11
6.41408e-11
1.76445e-10
1.75146e-09
4.48419e-09
2.691e-09
7.88215e-09
1.80687e-09
1.1853e-06
1.18369e-06
9.55489e-10
1.99313e-09
3.81705e-09
3.22225e-09
8.83943e-10
1.246e-10
6.1886e-11
2.78769e-11
6.89398e-12
9.03765e-13
1.13136e-13
1.24908e-13
2.93652e-13
6.50387e-13
1.05488e-12
2.02507e-12
2.96777e-11
2.1414e-10
1.69841e-10
1.44192e-10
5.90883e-11
4.31063e-11
4.41745e-11
4.51078e-11
7.0454e-11
-7.72297e-10
1.73989e-08
1.56808e-07
1.23608e-07
3.05759e-05
0.000113542
0.000115161
0.000115446
0.000100137
9.7298e-06
4.28381e-05
0.000323301
0.000181864
2.21371e-05
6.67859e-06
0.000149461
0.000359052
0.000355043
2.19583e-05
1.37453e-05
5.55988e-05
6.31308e-05
1.64533e-05
7.89608e-07
5.4894e-05
0.000113284
4.90733e-05
9.18037e-08
4.58869e-09
7.54568e-10
8.46214e-11
7.04031e-11
4.09165e-11
3.38169e-11
1.64053e-11
1.0328e-11
1.61702e-11
1.87193e-11
6.70464e-12
1.27428e-12
5.66752e-13
2.42864e-13
1.40355e-13
4.51476e-13
3.79126e-12
1.94767e-11
5.63907e-11
1.33509e-10
1.77331e-09
4.73517e-09
3.15113e-09
3.66377e-10
4.69888e-07
1.18658e-06
1.12443e-06
9.56584e-10
2.36268e-09
3.76876e-09
2.71955e-09
8.28024e-10
1.065e-10
5.41824e-11
2.2166e-11
4.44848e-12
5.036e-13
5.69062e-14
4.89811e-14
1.05558e-13
2.50123e-13
4.89884e-13
1.441e-12
2.24288e-11
7.08759e-11
4.86663e-11
1.3315e-11
1.555e-11
2.90648e-11
6.94346e-11
2.89021e-10
1.2498e-09
9.50603e-08
3.16716e-06
1.18211e-06
1.24454e-06
1.88412e-05
0.000112927
0.0001155
0.000115256
8.6341e-05
1.47585e-05
0.000175115
0.000334742
0.000201884
2.71599e-05
3.83681e-06
0.00015566
0.000360003
0.000359052
1.64483e-05
1.30924e-05
1.36675e-05
2.52282e-05
1.41704e-05
4.70984e-05
0.00033973
0.000344242
7.65122e-05
1.74393e-07
1.75785e-08
1.19759e-09
6.34253e-11
4.47495e-11
4.58414e-11
2.99567e-11
1.04123e-11
4.57799e-12
5.12617e-12
5.58849e-12
2.63324e-12
5.58737e-13
1.73137e-13
7.16699e-14
5.11319e-14
3.30191e-13
2.86344e-12
1.52309e-11
4.97805e-11
1.1169e-10
1.2245e-09
4.73517e-09
2.57658e-09
3.66316e-10
1.18756e-06
1.1876e-06
2.29647e-07
9.59268e-10
1.47832e-09
2.31807e-09
2.38628e-09
8.71472e-10
9.45975e-11
4.86193e-11
1.75728e-11
2.97971e-12
3.28688e-13
3.71037e-14
1.62431e-14
3.36709e-14
8.93093e-14
2.18549e-13
8.62134e-13
7.04672e-12
1.50951e-11
1.07652e-11
7.91653e-12
1.4134e-11
2.61858e-11
8.92338e-11
7.39208e-10
1.05622e-08
1.90103e-07
6.31539e-06
8.00645e-05
0.000193232
0.000169615
6.93289e-05
7.24567e-05
0.000101184
3.13109e-05
1.54207e-05
0.000186375
0.000342045
0.000316686
2.64346e-05
5.92752e-07
0.000134857
0.000359268
0.000359496
9.32735e-05
1.31483e-05
1.30805e-05
1.36511e-05
1.41704e-05
0.000337531
0.000355462
0.00035533
7.4512e-05
1.16653e-07
4.01744e-09
9.91294e-11
1.541e-11
1.62492e-11
1.67236e-11
1.2568e-11
5.16659e-12
1.85601e-12
1.75176e-12
1.83911e-12
1.00582e-12
2.2666e-13
4.5828e-14
1.88115e-14
2.6791e-14
2.51372e-13
2.30056e-12
1.18093e-11
4.15685e-11
1.204e-10
8.10556e-10
3.36544e-09
1.16802e-09
3.66275e-10
1.18785e-06
4.74405e-07
7.81258e-09
7.4173e-09
1.04684e-09
1.21235e-09
2.30175e-09
7.8853e-10
7.9354e-11
4.27325e-11
1.33477e-11
2.07935e-12
2.43009e-13
2.69632e-14
5.59218e-15
9.66207e-15
2.83804e-14
8.63978e-14
4.13759e-13
2.03295e-12
3.36545e-12
3.29503e-12
4.53744e-12
1.03087e-11
1.91935e-11
6.68245e-11
4.53778e-10
4.83089e-09
2.92446e-08
7.0106e-06
0.000249991
0.000354032
0.000354825
0.000130432
2.41174e-05
2.09891e-05
1.54345e-05
1.54345e-05
0.000251881
0.000344601
0.000342045
1.76421e-05
1.83545e-07
7.49938e-05
0.000360013
0.000359496
0.000353466
1.88356e-05
1.36511e-05
1.42495e-05
0.000279483
0.00036124
0.000358031
0.000231352
5.52856e-06
7.86113e-08
4.04068e-09
1.47527e-10
8.87682e-12
5.43856e-12
5.24602e-12
3.84553e-12
1.90464e-12
6.69823e-13
5.87078e-13
6.17162e-13
3.7532e-13
7.86488e-14
1.0726e-14
4.94998e-15
1.93732e-14
1.93722e-13
1.85172e-12
9.57199e-12
3.35592e-11
1.37907e-10
5.69531e-10
9.68363e-10
6.13036e-10
3.66199e-10
1.18727e-06
2.80489e-08
4.68295e-08
1.40483e-07
9.41738e-10
1.04152e-09
1.8991e-09
4.54941e-10
7.05781e-11
3.54502e-11
9.47832e-12
1.51948e-12
1.90958e-13
2.02644e-14
2.65891e-15
2.49097e-15
7.65758e-15
2.82489e-14
1.82493e-13
7.7633e-13
1.2997e-12
1.43065e-12
2.39783e-12
5.31709e-12
7.32311e-12
1.19652e-11
1.09341e-10
2.49158e-09
5.53535e-08
6.98334e-06
0.000253397
0.000354825
0.000355078
0.000286899
2.26593e-05
2.03787e-05
1.88664e-05
1.63816e-05
0.000344601
0.000344601
0.000265523
2.90085e-06
4.75057e-08
7.17535e-06
0.000359496
0.000358734
0.000358849
0.000314601
0.000197084
0.000293644
0.000362854
0.000362047
0.00036124
4.15537e-05
4.83933e-07
3.97827e-08
2.38049e-09
1.22363e-10
9.60067e-12
2.31984e-12
2.06282e-12
1.3045e-12
5.82518e-13
2.01546e-13
1.57891e-13
1.64242e-13
1.05638e-13
2.09386e-14
2.17599e-15
2.12995e-15
1.52486e-14
1.51101e-13
1.38887e-12
7.67875e-12
2.66795e-11
1.35864e-10
4.72888e-10
4.28554e-10
4.33337e-10
3.66149e-10
5.23862e-07
2.8023e-08
1.0289e-07
1.69121e-07
9.43362e-10
8.79048e-10
8.78024e-10
2.27231e-10
6.95799e-11
2.76313e-11
6.46082e-12
1.13535e-12
1.50212e-13
1.57405e-14
1.67318e-15
5.96337e-16
1.68258e-15
7.27858e-15
6.85202e-14
3.27224e-13
5.16276e-13
5.57888e-13
1.07601e-12
2.47824e-12
2.72458e-12
1.06067e-11
1.28373e-10
2.46918e-09
4.24006e-08
5.39108e-07
6.33437e-05
0.000355078
0.00035531
0.000355541
0.000198475
2.7848e-05
5.99925e-05
0.000274216
0.000342731
0.000344601
5.82835e-05
5.20135e-07
9.61379e-09
3.45357e-08
0.000185905
0.000358734
0.000355898
0.000357481
0.000361039
0.000362854
0.000362854
0.000362854
9.67646e-05
1.27018e-06
1.42172e-07
1.27357e-08
7.94211e-10
5.39847e-11
5.25123e-12
1.02894e-12
8.33858e-13
4.49804e-13
1.63341e-13
4.86213e-14
2.92679e-14
2.61604e-14
1.63679e-14
3.53254e-15
4.40528e-16
1.32719e-15
1.2408e-14
1.1752e-13
9.60994e-13
5.5806e-12
2.08002e-11
1.00797e-10
3.57771e-10
3.16956e-10
3.68743e-10
3.66134e-10
3.63855e-10
2.13252e-08
1.69102e-07
1.69092e-07
4.91559e-10
6.27564e-10
2.69033e-10
1.40952e-10
6.98183e-11
2.07066e-11
4.35999e-12
8.23235e-13
1.138e-13
1.22555e-14
1.15411e-15
1.84069e-16
2.86538e-16
1.54729e-15
1.72288e-14
7.71173e-14
1.17915e-13
1.48629e-13
4.12951e-13
1.16213e-12
1.63508e-12
7.8367e-12
9.18433e-11
1.37488e-09
1.96974e-08
2.27473e-07
2.4133e-06
0.000183407
0.000355541
0.000355541
0.000355541
0.000332387
0.000335833
0.000342225
0.000341387
0.000342737
5.58621e-06
1.18733e-07
1.27132e-09
-1.4652e-09
1.22388e-06
0.000228293
0.000357484
0.000360462
0.000361687
0.000361039
0.000350284
5.95608e-05
1.39722e-06
2.06553e-07
2.22503e-08
1.98246e-09
1.86058e-10
1.58238e-11
1.51388e-12
4.7968e-13
2.90597e-13
1.25379e-13
3.55656e-14
8.76578e-15
4.14675e-15
2.54974e-15
1.1499e-15
2.72766e-16
1.40214e-16
9.15396e-16
9.81674e-15
8.70595e-14
6.31368e-13
3.74669e-12
1.59363e-11
6.72356e-11
1.93122e-10
2.12724e-10
3.26521e-10
3.62433e-10
3.62668e-10
8.68826e-09
1.17107e-07
1.4862e-07
4.83151e-10
4.82527e-10
8.69198e-11
1.05936e-10
6.34223e-11
1.50696e-11
2.92994e-12
5.56873e-13
8.07732e-14
9.08908e-15
8.38334e-16
8.10688e-17
4.21464e-17
3.15125e-16
2.0319e-15
6.78839e-15
1.42833e-14
3.3981e-14
1.39733e-13
4.9151e-13
1.08753e-12
3.55903e-12
4.18146e-11
4.09187e-10
6.38981e-09
6.52635e-08
5.77491e-07
9.46027e-06
0.000252959
0.000355541
0.000355194
0.000354847
0.000351426
0.000345234
0.000342199
0.000214232
1.08983e-07
1.84721e-08
9.71313e-11
-3.40097e-10
3.39032e-07
1.36343e-05
0.000112154
0.000208028
0.000259873
0.000187747
5.77973e-05
5.09802e-07
8.4527e-08
1.31779e-08
1.72028e-09
9.12698e-11
2.12437e-11
3.58057e-12
3.94386e-13
1.41136e-13
5.83654e-14
1.92081e-14
4.16771e-15
1.02187e-15
5.95891e-16
3.8231e-16
1.66143e-16
3.33298e-17
6.14355e-17
6.61497e-16
7.02964e-15
5.9131e-14
4.02261e-13
2.44524e-12
1.20135e-11
4.45935e-11
9.64406e-11
1.09136e-10
2.48931e-10
3.82024e-10
3.66923e-10
1.47717e-09
9.68567e-10
3.16921e-09
1.82431e-09
3.69747e-10
4.38147e-11
8.02038e-11
4.96714e-11
1.06218e-11
1.97859e-12
3.53114e-13
5.2263e-14
6.11372e-15
5.83122e-16
4.40141e-17
7.46288e-18
4.08372e-17
3.78048e-16
1.3957e-15
3.05632e-15
7.07124e-15
3.07914e-14
1.44646e-13
4.2044e-13
9.57e-13
8.86662e-12
8.05309e-11
7.73122e-10
7.86816e-09
6.17179e-08
3.85589e-07
2.10502e-06
0.000155469
0.000354847
0.000351426
0.000348978
0.000335835
0.000160597
7.29366e-06
1.20343e-08
1.52928e-09
4.56856e-12
-1.31434e-10
7.80483e-08
1.64553e-06
3.22308e-06
6.04678e-06
7.86625e-06
4.13315e-06
2.64706e-06
2.22499e-07
5.21098e-09
5.88695e-10
1.14892e-10
2.11979e-11
5.05797e-12
1.39346e-12
1.7302e-13
2.42333e-14
7.78965e-15
2.0629e-15
3.35386e-16
8.54208e-17
5.24875e-17
3.18358e-17
1.17628e-17
4.46807e-18
3.20548e-17
4.33805e-16
4.44462e-15
3.70564e-14
2.6122e-13
1.66104e-12
8.92667e-12
3.17149e-11
5.61102e-11
4.89954e-11
1.33257e-10
6.27635e-10
3.74675e-10
3.75009e-10
3.75335e-10
6.62366e-10
6.79282e-09
1.83307e-10
3.38132e-11
5.6711e-11
3.31024e-11
7.25351e-12
1.34584e-12
2.18798e-13
3.10266e-14
3.66875e-15
3.52285e-16
2.69843e-17
2.59432e-18
2.19242e-18
2.8852e-17
1.32679e-16
3.39576e-16
8.00017e-16
3.32364e-15
2.00482e-14
9.7114e-14
3.14092e-13
9.7182e-13
5.68342e-12
3.99039e-11
4.53921e-10
3.02721e-09
2.48705e-08
1.5064e-07
1.13159e-05
6.17809e-05
0.000115654
0.000101005
4.74113e-05
8.6309e-06
3.98304e-07
-2.57219e-09
3.99894e-11
2.59817e-13
-5.71538e-11
1.48563e-08
3.59774e-07
6.2093e-07
5.08143e-07
2.63469e-07
8.37362e-08
7.67388e-08
1.51754e-08
4.65211e-10
1.20006e-10
3.26616e-11
1.94573e-11
4.49136e-12
3.06986e-13
1.61898e-14
2.3152e-15
6.05059e-16
1.29403e-16
1.91965e-17
5.41147e-18
3.2361e-18
1.80018e-18
6.18758e-19
1.36622e-18
1.90377e-17