/*--------------------------------*- C++ -*----------------------------------*\
| =========                 |                                                 |
| \\      /  F ield         | OpenFOAM: The Open Source CFD Toolbox           |
|  \\    /   O peration     | Version:  2412                                  |
|   \\  /    A nd           | Website:  www.openfoam.com                      |
|    \\/     M anipulation  |                                                 |
\*---------------------------------------------------------------------------*/
FoamFile
{
    version     2.0;
    format      ascii;
    arch        "LSB;label=32;scalar=64";
    class       surfaceScalarField;
    location    "6.25";
    object      phi;
}
// * * * * * * * * * * * * * * * * * * * * * * * * * * * * * * * * * * * * * //

dimensions      [0 3 -1 0 0 0 0];

oriented        oriented;

internalField   nonuniform List<scalar> 
12640
(
-4.40413e-10
4.42782e-10
9.23135e-08
-9.13444e-08
2.7968e-07
-1.86257e-07
5.32661e-07
-2.51976e-07
8.21965e-07
-2.88468e-07
1.12472e-06
-3.02134e-07
1.42493e-06
-2.99787e-07
1.71225e-06
-2.87054e-07
1.98091e-06
-2.68555e-07
2.22816e-06
-2.47276e-07
2.45268e-06
-2.24765e-07
2.65434e-06
-2.02101e-07
2.83346e-06
-1.79689e-07
2.99025e-06
-1.57513e-07
3.12481e-06
-1.35566e-07
3.23726e-06
-1.138e-07
3.32761e-06
-9.19621e-08
3.39557e-06
-6.97241e-08
3.44077e-06
-4.6939e-08
3.46286e-06
-2.3637e-08
3.4616e-06
3.50997e-11
3.43687e-06
2.39171e-08
3.38863e-06
4.78176e-08
3.31696e-06
7.15048e-08
3.22221e-06
9.47245e-08
3.105e-06
1.17213e-07
2.96627e-06
1.38698e-07
2.80729e-06
1.58902e-07
2.6296e-06
1.7759e-07
2.43495e-06
1.94562e-07
2.22522e-06
2.09683e-07
2.00239e-06
2.22855e-07
1.7685e-06
2.34029e-07
1.5255e-06
2.43238e-07
1.2753e-06
2.5056e-07
1.01958e-06
2.56169e-07
7.59883e-07
2.60229e-07
4.97582e-07
2.629e-07
2.33861e-07
2.64376e-07
-3.02986e-08
2.64867e-07
-2.93954e-07
2.64413e-07
-5.56151e-07
2.63e-07
-8.15988e-07
2.60676e-07
-1.07236e-06
2.57237e-07
-1.32407e-06
2.52606e-07
-1.5699e-06
2.46752e-07
-1.80838e-06
2.39422e-07
-2.03784e-06
2.3044e-07
-2.25643e-06
2.19608e-07
-2.46219e-06
2.06821e-07
-2.65327e-06
1.92175e-07
-2.82786e-06
1.75705e-07
-2.98423e-06
1.57489e-07
-3.12094e-06
1.37783e-07
-3.23675e-06
1.1681e-07
-3.33063e-06
9.48012e-08
-3.40185e-06
7.2055e-08
-3.44993e-06
4.88291e-08
-3.47463e-06
2.53729e-08
-3.47589e-06
1.84842e-09
-3.45383e-06
-2.15906e-08
-3.40867e-06
-4.48148e-08
-3.34072e-06
-6.77742e-08
-3.25022e-06
-9.04828e-08
-3.13736e-06
-1.1302e-07
-3.00219e-06
-1.35476e-07
-2.84468e-06
-1.5794e-07
-2.66457e-06
-1.80593e-07
-2.46153e-06
-2.03509e-07
-2.23533e-06
-2.26592e-07
-1.98623e-06
-2.49428e-07
-1.71549e-06
-2.71017e-07
-1.42619e-06
-2.89561e-07
-1.12437e-06
-3.02118e-07
-8.20414e-07
-3.04359e-07
-5.30491e-07
-2.90475e-07
-2.77568e-07
-2.53679e-07
-9.07733e-08
-1.87845e-07
7.35031e-10
-9.29655e-08
-9.03503e-10
9.32542e-08
-9.16192e-08
4.00857e-07
-3.96989e-07
8.97874e-07
-6.81975e-07
1.53062e-06
-8.83534e-07
2.24193e-06
-9.98904e-07
2.98411e-06
-1.0438e-06
3.72186e-06
-1.03727e-06
4.43126e-06
-9.96415e-07
5.0977e-06
-9.35221e-07
5.71326e-06
-8.63333e-07
6.27421e-06
-7.86519e-07
6.77935e-06
-7.08413e-07
7.22869e-06
-6.30508e-07
7.62242e-06
-5.52958e-07
7.96054e-06
-4.75671e-07
8.24304e-06
-3.98529e-07
8.46969e-06
-3.20954e-07
8.63988e-06
-2.4212e-07
8.75266e-06
-1.61579e-07
8.80706e-06
-7.93846e-08
8.80225e-06
4.00753e-09
8.73777e-06
8.80081e-08
8.61353e-06
1.71966e-07
8.42993e-06
2.55154e-07
8.18795e-06
3.36782e-07
7.88922e-06
4.15984e-07
7.5361e-06
4.91818e-07
7.13167e-06
5.63311e-07
6.6797e-06
6.29564e-07
6.18451e-06
6.89817e-07
5.65083e-06
7.43515e-07
5.08368e-06
7.90286e-07
4.48813e-06
8.30001e-07
3.86917e-06
8.62761e-07
3.23153e-06
8.88881e-07
2.57961e-06
9.0889e-07
1.91734e-06
9.23383e-07
1.24824e-06
9.32966e-07
5.75385e-07
9.38272e-07
-9.85522e-08
9.39893e-07
-7.7112e-07
9.38115e-07
-1.43989e-06
9.3294e-07
-2.10235e-06
9.24342e-07
-2.75572e-06
9.11854e-07
-3.39696e-06
8.95115e-07
-4.02271e-06
8.73814e-07
-4.62925e-06
8.47311e-07
-5.21243e-06
8.15003e-07
-5.76766e-06
7.76259e-07
-6.29013e-06
7.30737e-07
-6.77507e-06
6.78543e-07
-7.21791e-06
6.19934e-07
-7.61446e-06
5.55357e-07
-7.96096e-06
4.85519e-07
-8.25434e-06
4.1132e-07
-8.49215e-06
3.33642e-07
-8.67257e-06
2.53386e-07
-8.79441e-06
1.71465e-07
-8.85712e-06
8.87204e-08
-8.86054e-06
5.75324e-09
-8.80502e-06
-7.68311e-08
-8.69114e-06
-1.58627e-07
-8.51967e-06
-2.39412e-07
-8.29131e-06
-3.1922e-07
-8.00664e-06
-3.98255e-07
-7.66592e-06
-4.76862e-07
-7.26919e-06
-5.55363e-07
-6.81618e-06
-6.34256e-07
-6.30655e-06
-7.13721e-07
-5.74037e-06
-7.93262e-07
-5.11904e-06
-8.71164e-07
-4.4466e-06
-9.43838e-07
-3.73146e-06
-1.00515e-06
-2.98872e-06
-1.04548e-06
-2.2427e-06
-1.05131e-06
-1.52907e-06
-1.00538e-06
-8.95583e-07
-8.88799e-07
-3.99089e-07
-6.86395e-07
-9.34414e-08
-4.00956e-07
-9.46424e-08
1.9038e-07
-2.80894e-07
6.92632e-07
-8.97962e-07
1.43829e-06
-1.42671e-06
2.353e-06
-1.79767e-06
3.36552e-06
-2.01099e-06
4.41596e-06
-2.09396e-06
5.45888e-06
-2.07996e-06
6.4626e-06
-2e-06
7.40708e-06
-1.8797e-06
8.28098e-06
-1.73726e-06
9.07856e-06
-1.58421e-06
9.7977e-06
-1.42777e-06
1.04379e-05
-1.27094e-06
1.09992e-05
-1.11426e-06
1.14814e-05
-9.57621e-07
1.1884e-05
-8.00868e-07
1.22065e-05
-6.43167e-07
1.2448e-05
-4.83257e-07
1.2607e-05
-3.20309e-07
1.26822e-05
-1.54285e-07
1.26724e-05
1.41254e-08
1.25768e-05
1.83869e-07
1.23955e-05
3.53678e-07
1.21289e-05
5.22083e-07
1.17785e-05
6.8747e-07
1.13466e-05
8.48062e-07
1.08366e-05
1.00194e-06
1.02529e-05
1.14713e-06
9.60061e-06
1.28173e-06
8.88611e-06
1.40414e-06
8.11622e-06
1.51314e-06
7.29818e-06
1.60799e-06
6.43935e-06
1.68844e-06
5.54696e-06
1.75474e-06
4.62787e-06
1.80754e-06
3.68842e-06
1.84789e-06
2.73434e-06
1.87699e-06
1.77064e-06
1.89616e-06
8.01708e-07
1.90666e-06
-1.68595e-07
1.90962e-06
-1.13674e-06
1.90565e-06
-2.09933e-06
1.8949e-06
-3.0528e-06
1.87718e-06
-3.99322e-06
1.85165e-06
-4.91627e-06
1.81754e-06
-5.81708e-06
1.77399e-06
-6.69023e-06
1.71981e-06
-7.52972e-06
1.65383e-06
-8.32901e-06
1.57487e-06
-9.08121e-06
1.48225e-06
-9.77938e-06
1.37604e-06
-1.04169e-05
1.25684e-06
-1.09878e-05
1.12566e-06
-1.14867e-05
9.83903e-07
-1.19092e-05
8.33327e-07
-1.22517e-05
6.75785e-07
-1.25118e-05
5.13125e-07
-1.26878e-05
3.4714e-07
-1.27789e-05
1.79488e-07
-1.27849e-05
1.15038e-08
-1.27063e-05
-1.55615e-07
-1.25441e-05
-3.21051e-07
-1.22993e-05
-4.84377e-07
-1.1973e-05
-6.45653e-07
-1.15661e-05
-8.05276e-07
-1.10791e-05
-9.63921e-07
-1.05122e-05
-1.12227e-06
-9.86528e-06
-1.28111e-06
-9.13818e-06
-1.44063e-06
-8.33149e-06
-1.5996e-06
-7.44777e-06
-1.75437e-06
-6.4932e-06
-1.89776e-06
-5.47991e-06
-2.01777e-06
-4.42863e-06
-2.09618e-06
-3.37159e-06
-2.10799e-06
-2.35467e-06
-2.02224e-06
-1.43782e-06
-1.80596e-06
-6.91973e-07
-1.43279e-06
-1.90867e-07
-9.02382e-07
-2.84237e-07
2.61367e-07
-5.41648e-07
9.11924e-07
-1.5485e-06
1.84371e-06
-2.3584e-06
2.96173e-06
-2.91571e-06
4.18399e-06
-3.23325e-06
5.44368e-06
-3.35366e-06
6.69057e-06
-3.32671e-06
7.88941e-06
-3.19863e-06
9.01761e-06
-3.00764e-06
1.00621e-05
-2.78125e-06
1.10161e-05
-2.53755e-06
1.18769e-05
-2.28783e-06
1.26437e-05
-2.03693e-06
1.33165e-05
-1.78572e-06
1.38946e-05
-1.53399e-06
1.43772e-05
-1.28148e-06
1.47632e-05
-1.02716e-06
1.50513e-05
-7.69539e-07
1.52399e-05
-5.07384e-07
1.53275e-05
-2.40491e-07
1.53125e-05
3.02487e-08
1.51941e-05
3.03286e-07
1.49721e-05
5.76613e-07
1.46472e-05
8.47853e-07
1.42211e-05
1.11438e-06
1.36966e-05
1.3733e-06
1.30776e-05
1.62151e-06
1.23693e-05
1.85581e-06
1.15781e-05
2.07306e-06
1.07115e-05
2.27057e-06
9.77812e-06
2.44625e-06
8.78673e-06
2.59885e-06
7.7465e-06
2.72797e-06
6.6663e-06
2.83405e-06
5.55461e-06
2.91821e-06
4.41915e-06
2.98219e-06
3.26676e-06
3.02809e-06
2.10343e-06
3.05808e-06
9.34338e-07
3.07422e-06
-2.35986e-07
3.07831e-06
-1.40343e-06
3.07137e-06
-2.5641e-06
3.05377e-06
-3.71395e-06
3.02518e-06
-4.84851e-06
2.98433e-06
-5.9627e-06
2.9298e-06
-7.05061e-06
2.85994e-06
-8.10565e-06
2.77283e-06
-9.12046e-06
2.66657e-06
-1.00871e-05
2.53938e-06
-1.09971e-05
2.39015e-06
-1.1842e-05
2.21887e-06
-1.26137e-05
2.0265e-06
-1.33047e-05
1.81475e-06
-1.39086e-05
1.58601e-06
-1.44201e-05
1.34309e-06
-1.48349e-05
1.08899e-06
-1.515e-05
8.26792e-07
-1.53635e-05
5.59358e-07
-1.54745e-05
2.89339e-07
-1.54829e-05
1.89734e-08
-1.53895e-05
-2.49862e-07
-1.51953e-05
-5.15889e-07
-1.49017e-05
-7.78472e-07
-1.451e-05
-1.03766e-06
-1.40213e-05
-1.29409e-06
-1.34363e-05
-1.54879e-06
-1.27555e-05
-1.80289e-06
-1.19788e-05
-2.05743e-06
-1.11064e-05
-2.31247e-06
-1.01393e-05
-2.56589e-06
-9.08095e-06
-2.81177e-06
-7.93871e-06
-3.03888e-06
-6.72657e-06
-3.22869e-06
-5.46793e-06
-3.35358e-06
-4.19863e-06
-3.37605e-06
-2.96943e-06
-3.25021e-06
-1.84716e-06
-2.92718e-06
-9.13402e-07
-2.36539e-06
-2.62071e-07
-1.55192e-06
-5.4439e-07
3.06951e-07
-8.4843e-07
1.05868e-06
-2.30067e-06
2.11851e-06
-3.41868e-06
3.37435e-06
-4.17191e-06
4.73515e-06
-4.59424e-06
6.12958e-06
-4.74817e-06
7.50526e-06
-4.70217e-06
8.82579e-06
-4.51877e-06
1.00678e-05
-4.24925e-06
1.12179e-05
-3.93053e-06
1.22689e-05
-3.58744e-06
1.32176e-05
-3.23565e-06
1.40635e-05
-2.88188e-06
1.48061e-05
-2.52723e-06
1.54446e-05
-2.1711e-06
1.59779e-05
-1.81292e-06
1.64042e-05
-1.45159e-06
1.67219e-05
-1.08549e-06
1.69293e-05
-7.13201e-07
1.70244e-05
-3.3439e-07
1.70058e-05
4.99069e-08
1.68723e-05
4.37627e-07
1.66237e-05
8.25996e-07
1.62607e-05
1.21165e-06
1.57849e-05
1.59081e-06
1.51995e-05
1.95936e-06
1.45086e-05
2.31283e-06
1.3718e-05
2.64662e-06
1.28349e-05
2.9562e-06
1.18678e-05
3.23754e-06
1.08262e-05
3.48741e-06
9.72059e-06
3.70388e-06
8.56137e-06
3.88638e-06
7.35879e-06
4.03562e-06
6.1225e-06
4.15335e-06
4.86116e-06
4.24223e-06
3.58233e-06
4.30551e-06
2.29247e-06
4.34642e-06
9.97141e-07
4.36795e-06
-2.98881e-07
4.37265e-06
-1.59135e-06
4.36212e-06
-2.87628e-06
4.33693e-06
-4.14958e-06
4.2967e-06
-5.40669e-06
4.23966e-06
-6.64223e-06
4.16357e-06
-7.84976e-06
4.06572e-06
-9.0219e-06
3.94322e-06
-1.01503e-05
3.79326e-06
-1.1226e-05
3.61325e-06
-1.22392e-05
3.4016e-06
-1.31802e-05
3.1582e-06
-1.40398e-05
2.88439e-06
-1.48094e-05
2.58272e-06
-1.54817e-05
2.25678e-06
-1.60507e-05
1.91068e-06
-1.65118e-05
1.54886e-06
-1.68619e-05
1.17572e-06
-1.7099e-05
7.95411e-07
-1.72223e-05
4.11676e-07
-1.72318e-05
2.76919e-08
-1.71284e-05
-3.53932e-07
-1.69135e-05
-7.31418e-07
-1.65884e-05
-1.10389e-06
-1.61548e-05
-1.47145e-06
-1.56139e-05
-1.83499e-06
-1.49665e-05
-2.19592e-06
-1.42132e-05
-2.55573e-06
-1.33544e-05
-2.91569e-06
-1.23904e-05
-3.27571e-06
-1.13227e-05
-3.63267e-06
-1.01551e-05
-3.97833e-06
-8.89548e-06
-4.29735e-06
-7.55834e-06
-4.56466e-06
-6.16778e-06
-4.74303e-06
-4.76075e-06
-4.78196e-06
-3.39012e-06
-4.61957e-06
-2.12714e-06
-4.18869e-06
-1.06253e-06
-3.42803e-06
-3.07492e-07
-2.30443e-06
-8.51194e-07
3.33734e-07
-1.18258e-06
1.14842e-06
-3.11636e-06
2.28931e-06
-4.56049e-06
3.63168e-06
-5.51503e-06
5.07763e-06
-6.04068e-06
6.55281e-06
-6.22376e-06
8.00415e-06
-6.15352e-06
9.39538e-06
-5.90982e-06
1.07034e-05
-5.55721e-06
1.19149e-05
-5.14173e-06
1.3023e-05
-4.69483e-06
1.40242e-05
-4.23645e-06
1.49177e-05
-3.77537e-06
1.57031e-05
-3.31275e-06
1.63794e-05
-2.84734e-06
1.69448e-05
-2.37806e-06
1.73975e-05
-1.90369e-06
1.77351e-05
-1.42262e-06
1.79558e-05
-9.33417e-07
1.80573e-05
-4.3576e-07
1.80382e-05
6.916e-08
1.7897e-05
5.78804e-07
1.76333e-05
1.08964e-06
1.72477e-05
1.59728e-06
1.67419e-05
2.09675e-06
1.61188e-05
2.58259e-06
1.53828e-05
3.04888e-06
1.45401e-05
3.48947e-06
1.35981e-05
3.89825e-06
1.2566e-05
4.26956e-06
1.14546e-05
4.59878e-06
1.02752e-05
4.88308e-06
9.03968e-06
5.12165e-06
7.75945e-06
5.31554e-06
6.44507e-06
5.46738e-06
5.1059e-06
5.58105e-06
3.74992e-06
5.66113e-06
2.38384e-06
5.71217e-06
1.01322e-06
5.73825e-06
-3.57264e-07
5.74285e-06
-1.72354e-06
5.72814e-06
-3.08182e-06
5.695e-06
-4.42829e-06
5.643e-06
-5.75857e-06
5.56984e-06
-7.06732e-06
5.47231e-06
-8.34806e-06
5.34653e-06
-9.59286e-06
5.18816e-06
-1.07927e-05
4.99327e-06
-1.19375e-05
4.75822e-06
-1.30165e-05
4.48076e-06
-1.40187e-05
4.16062e-06
-1.49338e-05
3.79966e-06
-1.57524e-05
3.4015e-06
-1.64666e-05
2.97116e-06
-1.707e-05
2.51434e-06
-1.7558e-05
2.0371e-06
-1.79274e-05
1.5454e-06
-1.81765e-05
1.04476e-06
-1.83047e-05
5.40034e-07
-1.83122e-05
3.53868e-08
-1.82002e-05
-4.65854e-07
-1.79701e-05
-9.61446e-07
-1.76237e-05
-1.4503e-06
-1.71625e-05
-1.93255e-06
-1.65879e-05
-2.40941e-06
-1.59009e-05
-2.8826e-06
-1.51023e-05
-3.35395e-06
-1.41928e-05
-3.82485e-06
-1.31733e-05
-4.29495e-06
-1.20454e-05
-4.76018e-06
-1.08133e-05
-5.2101e-06
-9.48486e-06
-5.62548e-06
-8.07431e-06
-5.97493e-06
-6.60532e-06
-6.21173e-06
-5.11463e-06
-6.27226e-06
-3.65586e-06
-6.07776e-06
-2.30314e-06
-5.54049e-06
-1.15428e-06
-4.57551e-06
-3.33798e-07
-3.1239e-06
-1.18637e-06
3.48423e-07
-1.53154e-06
1.1992e-06
-3.96838e-06
2.38726e-06
-5.74958e-06
3.77945e-06
-6.90806e-06
5.27335e-06
-7.53518e-06
6.79299e-06
-7.74408e-06
8.28546e-06
-7.64625e-06
9.71538e-06
-7.33978e-06
1.10603e-05
-6.90254e-06
1.23074e-05
-6.38914e-06
1.34501e-05
-5.83721e-06
1.44845e-05
-5.27069e-06
1.54093e-05
-4.70058e-06
1.62238e-05
-4.12807e-06
1.69266e-05
-3.55117e-06
1.75158e-05
-2.96813e-06
1.79889e-05
-2.3775e-06
1.83434e-05
-1.77774e-06
1.85769e-05
-1.16752e-06
1.8687e-05
-5.46642e-07
1.86718e-05
8.34622e-08
1.85299e-05
7.198e-07
1.82605e-05
1.35808e-06
1.78641e-05
1.99292e-06
1.73421e-05
2.61816e-06
1.66973e-05
3.22695e-06
1.59339e-05
3.81187e-06
1.50581e-05
4.36507e-06
1.40775e-05
4.87862e-06
1.3002e-05
5.34498e-06
1.18431e-05
5.75772e-06
1.06134e-05
6.11285e-06
9.32602e-06
6.40916e-06
7.9936e-06
6.64817e-06
6.62764e-06
6.83362e-06
5.23811e-06
6.97097e-06
3.8333e-06
7.06644e-06
2.41992e-06
7.12615e-06
1.00334e-06
7.15554e-06
-4.12094e-07
7.15909e-06
-1.82266e-06
7.13961e-06
-3.22501e-06
7.09833e-06
-4.61562e-06
7.03466e-06
-5.99053e-06
6.94585e-06
-7.34474e-06
6.82773e-06
-8.67184e-06
6.67493e-06
-9.96374e-06
6.48147e-06
-1.12107e-05
6.24171e-06
-1.24016e-05
5.95065e-06
-1.35244e-05
5.60514e-06
-1.4567e-05
5.20473e-06
-1.55177e-05
4.75196e-06
-1.63665e-05
4.25185e-06
-1.71051e-05
3.71123e-06
-1.7727e-05
3.13776e-06
-1.82277e-05
2.53931e-06
-1.86044e-05
1.92354e-06
-1.88557e-05
1.29741e-06
-1.89813e-05
6.66909e-07
-1.89819e-05
3.71394e-08
-1.8859e-05
-5.87887e-07
-1.86142e-05
-1.20552e-06
-1.82495e-05
-1.8145e-06
-1.77665e-05
-2.41506e-06
-1.71668e-05
-3.00869e-06
-1.64516e-05
-3.59743e-06
-1.56219e-05
-4.18333e-06
-1.46789e-05
-4.76772e-06
-1.36239e-05
-5.34989e-06
-1.24593e-05
-5.92485e-06
-1.11895e-05
-6.48027e-06
-9.82202e-06
-6.99337e-06
-8.37065e-06
-7.42686e-06
-6.85813e-06
-7.72481e-06
-5.32032e-06
-7.81047e-06
-3.81076e-06
-7.58751e-06
-2.40524e-06
-6.94591e-06
-1.20647e-06
-5.77427e-06
-3.48589e-07
-3.98324e-06
-1.53668e-06
3.56315e-07
-1.88849e-06
1.22684e-06
-4.84021e-06
2.44038e-06
-6.96424e-06
3.85888e-06
-8.32756e-06
5.3777e-06
-9.05477e-06
6.92042e-06
-9.28784e-06
8.43495e-06
-9.16136e-06
9.8872e-06
-8.79222e-06
1.12555e-05
-8.27152e-06
1.25276e-05
-7.66181e-06
1.36967e-05
-7.00613e-06
1.47586e-05
-6.33213e-06
1.57111e-05
-5.65276e-06
1.65524e-05
-4.96959e-06
1.72809e-05
-4.28004e-06
1.78939e-05
-3.58162e-06
1.83887e-05
-2.87273e-06
1.87625e-05
-2.15185e-06
1.90124e-05
-1.41782e-06
1.91359e-05
-6.70569e-07
1.91307e-05
8.81807e-08
1.89949e-05
8.54931e-07
1.87278e-05
1.62464e-06
1.83293e-05
2.39098e-06
1.78005e-05
3.14663e-06
1.71439e-05
3.88346e-06
1.63632e-05
4.5925e-06
1.54643e-05
5.26407e-06
1.4455e-05
5.88814e-06
1.33454e-05
6.45488e-06
1.21479e-05
6.9556e-06
1.08766e-05
7.38467e-06
9.54595e-06
7.74032e-06
8.17016e-06
8.02455e-06
6.76185e-06
8.2426e-06
5.33161e-06
8.40192e-06
3.88796e-06
8.51087e-06
2.4375e-06
8.57747e-06
9.85299e-07
8.60864e-06
-4.64668e-07
8.60997e-06
-1.90913e-06
8.585e-06
-3.34511e-06
8.53522e-06
-4.76954e-06
8.45996e-06
-6.17885e-06
8.35597e-06
-7.56848e-06
8.21814e-06
-8.93224e-06
8.03947e-06
-1.0262e-05
7.81204e-06
-1.15473e-05
7.52784e-06
-1.27757e-05
7.17998e-06
-1.39338e-05
6.76409e-06
-1.50077e-05
6.27955e-06
-1.59846e-05
5.72982e-06
-1.68537e-05
5.12183e-06
-1.76064e-05
4.46477e-06
-1.82364e-05
3.76869e-06
-1.87398e-05
3.04361e-06
-1.91143e-05
2.29895e-06
-1.93591e-05
1.54307e-06
-1.94745e-05
7.83096e-07
-1.94616e-05
2.49858e-08
-1.93222e-05
-7.26656e-07
-1.90585e-05
-1.46881e-06
-1.86726e-05
-2.20014e-06
-1.81665e-05
-2.92106e-06
-1.75418e-05
-3.63335e-06
-1.67999e-05
-4.33929e-06
-1.59423e-05
-5.04098e-06
-1.49707e-05
-5.73948e-06
-1.38874e-05
-6.4336e-06
-1.26954e-05
-7.11739e-06
-1.13994e-05
-7.77696e-06
-1.00073e-05
-8.38643e-06
-8.53199e-06
-8.90305e-06
-6.9954e-06
-9.26219e-06
-5.43222e-06
-9.37415e-06
-3.8954e-06
-9.12464e-06
-2.46127e-06
-8.38031e-06
-1.23551e-06
-7.00099e-06
-3.58037e-07
-4.86296e-06
-1.89439e-06
3.61317e-07
-2.25058e-06
1.24326e-06
-5.72345e-06
2.47054e-06
-8.19275e-06
3.90285e-06
-9.76104e-06
5.43536e-06
-1.05881e-05
6.99208e-06
-1.08459e-05
8.52227e-06
-1.06923e-05
9.99309e-06
-1.02632e-05
1.13836e-05
-9.66266e-06
1.26817e-05
-8.96065e-06
1.38806e-05
-8.20485e-06
1.49752e-05
-7.42587e-06
1.59615e-05
-6.63816e-06
1.68367e-05
-5.84395e-06
1.75977e-05
-5.04047e-06
1.82416e-05
-4.22495e-06
1.87652e-05
-3.39573e-06
1.91653e-05
-2.55139e-06
1.94389e-05
-1.6909e-06
1.9583e-05
-8.14274e-07
1.95948e-05
7.65386e-08
1.94724e-05
9.77518e-07
1.92144e-05
1.88283e-06
1.88204e-05
2.78521e-06
1.82911e-05
3.67632e-06
1.76282e-05
4.54688e-06
1.68348e-05
5.3865e-06
1.59159e-05
6.18352e-06
1.48793e-05
6.92545e-06
1.37353e-05
7.59959e-06
1.24973e-05
8.19433e-06
1.11809e-05
8.70177e-06
9.80285e-06
9.11913e-06
8.37902e-06
9.44907e-06
6.92346e-06
9.69882e-06
5.4475e-06
9.87851e-06
3.95983e-06
9.99913e-06
2.46694e-06
1.00709e-05
9.73621e-07
1.01025e-05
-5.16463e-07
1.01005e-05
-2.00033e-06
1.00693e-05
-3.47532e-06
1.00105e-05
-4.93869e-06
9.92354e-06
-6.38725e-06
9.8046e-06
-7.81684e-06
9.64765e-06
-9.22161e-06
9.44406e-06
-1.05933e-05
9.18349e-06
-1.19207e-05
8.85502e-06
-1.31899e-05
8.44898e-06
-1.43853e-05
7.95928e-06
-1.54911e-05
7.38511e-06
-1.64929e-05
6.73139e-06
-1.7379e-05
6.00767e-06
-1.81407e-05
5.22629e-06
-1.87726e-05
4.4003e-06
-1.92715e-05
3.54224e-06
-1.9636e-05
2.6633e-06
-1.98663e-05
1.77312e-06
-1.99632e-05
8.79819e-07
-1.99284e-05
-9.84837e-09
-1.97644e-05
-8.90749e-07
-1.94738e-05
-1.75959e-06
-1.90592e-05
-2.61502e-06
-1.85228e-05
-3.45781e-06
-1.78665e-05
-4.29005e-06
-1.70918e-05
-5.11427e-06
-1.62009e-05
-5.93234e-06
-1.5196e-05
-6.74476e-06
-1.40807e-05
-7.54952e-06
-1.28591e-05
-8.33974e-06
-1.15367e-05
-9.10015e-06
-1.01217e-05
-9.80229e-06
-8.62696e-06
-1.03986e-05
-7.07343e-06
-1.08163e-05
-5.49473e-06
-1.0953e-05
-3.9428e-06
-1.06767e-05
-2.49366e-06
-9.82991e-06
-1.25406e-06
-8.24184e-06
-3.65341e-07
-5.75223e-06
-2.25799e-06
3.6592e-07
-2.61726e-06
1.25631e-06
-6.61499e-06
2.49305e-06
-9.43059e-06
3.93538e-06
-1.12045e-05
5.47987e-06
-1.2133e-05
7.05139e-06
-1.24188e-05
8.60096e-06
-1.22425e-05
1.00965e-05
-1.17588e-05
1.15173e-05
-1.10841e-05
1.28516e-05
-1.02958e-05
1.40917e-05
-9.44534e-06
1.52314e-05
-8.56546e-06
1.6265e-05
-7.67138e-06
1.71872e-05
-6.76589e-06
1.79937e-05
-5.84664e-06
1.86803e-05
-4.91135e-06
1.92437e-05
-3.9588e-06
1.96806e-05
-2.98792e-06
1.99877e-05
-1.99768e-06
2.01616e-05
-9.87999e-07
2.01991e-05
3.91128e-08
2.00975e-05
1.07913e-06
1.9855e-05
2.12531e-06
1.94709e-05
3.16938e-06
1.89453e-05
4.20219e-06
1.82789e-05
5.21364e-06
1.74737e-05
6.19221e-06
1.65335e-05
7.12425e-06
1.54652e-05
7.99434e-06
1.42794e-05
8.78599e-06
1.29906e-05
9.48365e-06
1.16168e-05
1.00762e-05
1.01772e-05
1.05593e-05
8.69033e-06
1.09365e-05
7.1718e-06
1.12179e-05
5.63372e-06
1.14171e-05
4.08503e-06
1.15483e-05
2.5321e-06
1.16244e-05
9.79525e-07
1.16556e-05
-5.69089e-07
1.16497e-05
-2.11076e-06
1.16115e-05
-3.6428e-06
1.15432e-05
-5.16247e-06
1.14438e-05
-6.66683e-06
1.13095e-05
-8.15207e-06
1.11334e-05
-9.61273e-06
1.09051e-05
-1.10405e-05
1.06117e-05
-1.24235e-05
1.02383e-05
-1.37457e-05
9.77157e-06
-1.49888e-05
9.20267e-06
-1.6134e-05
8.53068e-06
-1.71651e-05
7.76274e-06
-1.80695e-05
6.91221e-06
-1.88387e-05
5.99568e-06
-1.94684e-05
5.03005e-06
-1.9957e-05
4.03076e-06
-2.03046e-05
3.01078e-06
-2.05123e-05
1.98061e-06
-2.05818e-05
9.49143e-07
-2.05156e-05
-7.6244e-08
-2.03166e-05
-1.0898e-06
-1.99883e-05
-2.08799e-06
-1.95337e-05
-3.06961e-06
-1.89557e-05
-4.03592e-06
-1.82563e-05
-4.98963e-06
-1.74372e-05
-5.93349e-06
-1.65009e-05
-6.86888e-06
-1.54509e-05
-7.79518e-06
-1.42919e-05
-8.70905e-06
-1.30299e-05
-9.60247e-06
-1.16717e-05
-1.04591e-05
-1.02265e-05
-1.12483e-05
-8.70723e-06
-1.19185e-05
-7.1344e-06
-1.23896e-05
-5.54075e-06
-1.25471e-05
-3.97698e-06
-1.22411e-05
-2.51797e-06
-1.12901e-05
-1.26946e-06
-9.49157e-06
-3.71074e-07
-6.64937e-06
-2.62911e-06
3.71245e-07
-2.98918e-06
1.27041e-06
-7.51497e-06
2.51761e-06
-1.06785e-05
3.97275e-06
-1.26606e-05
5.53507e-06
-1.36951e-05
7.12981e-06
-1.4015e-05
8.70997e-06
-1.3823e-05
1.02434e-05
-1.32922e-05
1.17092e-05
-1.25506e-05
1.30952e-05
-1.16827e-05
1.43931e-05
-1.0744e-05
1.55951e-05
-9.76802e-06
1.66933e-05
-8.77001e-06
1.76797e-05
-7.75287e-06
1.85476e-05
-6.71513e-06
1.92918e-05
-5.65602e-06
1.99085e-05
-4.57585e-06
2.03946e-05
-3.47431e-06
2.07468e-05
-2.35015e-06
2.09612e-05
-1.20272e-06
2.10338e-05
-3.37535e-08
2.09609e-05
1.15165e-06
2.07403e-05
2.34554e-06
2.0371e-05
3.53846e-06
1.98524e-05
4.72064e-06
1.91842e-05
5.88186e-06
1.83665e-05
7.01006e-06
1.74012e-05
8.08976e-06
1.62937e-05
9.10214e-06
1.50544e-05
1.00256e-05
1.36992e-05
1.08391e-05
1.2249e-05
1.15266e-05
1.0727e-05
1.20816e-05
9.15489e-06
1.25089e-05
7.55021e-06
1.28229e-05
5.92582e-06
1.30418e-05
4.29067e-06
1.31839e-05
2.65103e-06
1.32646e-05
1.01148e-06
1.32958e-05
-6.24026e-07
1.3286e-05
-2.25189e-06
1.32402e-05
-3.86875e-06
1.31611e-05
-5.47133e-06
1.30475e-05
-7.05651e-06
1.28959e-05
-8.6208e-06
1.26989e-05
-1.01594e-05
1.2445e-05
-1.16643e-05
1.21179e-05
-1.31229e-05
1.16982e-05
-1.45167e-05
1.11666e-05
-1.58233e-05
1.05105e-05
-1.70202e-05
9.72878e-06
-1.80884e-05
8.83196e-06
-1.90145e-05
7.83918e-06
-1.97909e-05
6.77291e-06
-2.04152e-05
5.65496e-06
-2.0888e-05
4.50401e-06
-2.12115e-05
3.33458e-06
-2.13883e-05
2.15754e-06
-2.1421e-05
9.81793e-07
-2.13124e-05
-1.84804e-07
-2.10665e-05
-1.33567e-06
-2.06875e-05
-2.46676e-06
-2.01797e-05
-3.5772e-06
-1.95462e-05
-4.66908e-06
-1.87894e-05
-5.74623e-06
-1.79109e-05
-6.81182e-06
-1.69133e-05
-7.86643e-06
-1.58013e-05
-8.90734e-06
-1.45818e-05
-9.92899e-06
-1.32629e-05
-1.09219e-05
-1.18538e-05
-1.18689e-05
-1.03647e-05
-1.27381e-05
-8.80923e-06
-1.34746e-05
-7.20796e-06
-1.39915e-05
-5.59295e-06
-1.41629e-05
-4.01367e-06
-1.38217e-05
-2.54321e-06
-1.2762e-05
-1.28443e-06
-1.07508e-05
-3.75436e-07
-7.55755e-06
-3.00666e-06
3.77421e-07
-3.36708e-06
1.28756e-06
-8.42545e-06
2.54986e-06
-1.19409e-05
4.02557e-06
-1.4137e-05
5.61727e-06
-1.52857e-05
7.2492e-06
-1.56483e-05
8.87581e-06
-1.54496e-05
1.04641e-05
-1.488e-05
1.19924e-05
-1.4079e-05
1.34482e-05
-1.31388e-05
1.48224e-05
-1.21182e-05
1.61057e-05
-1.1051e-05
1.72874e-05
-9.95136e-06
1.83564e-05
-8.8216e-06
1.93027e-05
-7.6613e-06
2.01195e-05
-6.47271e-06
2.08034e-05
-5.25943e-06
2.13518e-05
-4.02245e-06
2.17617e-05
-2.75969e-06
2.20281e-05
-1.46897e-06
2.21458e-05
-1.51233e-07
2.21098e-05
1.18769e-06
2.19175e-05
2.53793e-06
2.15677e-05
3.8883e-06
2.10596e-05
5.22873e-06
2.03916e-05
6.54994e-06
1.95612e-05
7.84058e-06
1.85673e-05
9.08388e-06
1.74124e-05
1.02571e-05
1.61062e-05
1.1332e-05
1.46661e-05
1.22792e-05
1.31173e-05
1.30753e-05
1.14882e-05
1.37105e-05
9.80497e-06
1.4192e-05
8.08726e-06
1.45405e-05
6.34815e-06
1.47809e-05
4.5961e-06
1.49359e-05
2.83711e-06
1.50235e-05
1.07617e-06
1.50568e-05
-6.81758e-07
1.50439e-05
-2.43152e-06
1.499e-05
-4.16804e-06
1.48977e-05
-5.88653e-06
1.47662e-05
-7.58298e-06
1.45926e-05
-9.25414e-06
1.43703e-05
-1.08963e-05
1.40874e-05
-1.25029e-05
1.37247e-05
-1.40608e-05
1.32563e-05
-1.55483e-05
1.26543e-05
-1.69375e-05
1.18998e-05
-1.82002e-05
1.09916e-05
-1.9314e-05
9.94581e-06
-2.02651e-05
8.79026e-06
-2.10479e-05
7.55558e-06
-2.16627e-05
6.26971e-06
-2.21137e-05
4.95482e-06
-2.24057e-05
3.62636e-06
-2.25429e-05
2.2945e-06
-2.25285e-05
9.67069e-07
-2.23659e-05
-3.47742e-07
-2.20599e-05
-1.64194e-06
-2.16163e-05
-2.9104e-06
-2.10408e-05
-4.15257e-06
-2.03374e-05
-5.37217e-06
-1.95083e-05
-6.57505e-06
-1.85544e-05
-7.76544e-06
-1.74781e-05
-8.94251e-06
-1.62855e-05
-1.01e-05
-1.49861e-05
-1.12285e-05
-1.35916e-05
-1.23166e-05
-1.21136e-05
-1.33471e-05
-1.05641e-05
-1.42877e-05
-8.95759e-06
-1.50812e-05
-7.3146e-06
-1.56347e-05
-5.66686e-06
-1.58111e-05
-4.06294e-06
-1.54263e-05
-2.57409e-06
-1.42512e-05
-1.29996e-06
-1.20239e-05
-3.79876e-07
-8.47875e-06
-3.38701e-06
3.84008e-07
-3.75127e-06
1.3085e-06
-9.34984e-06
2.59363e-06
-1.32255e-05
4.10185e-06
-1.56459e-05
5.73823e-06
-1.69204e-05
7.42478e-06
-1.73357e-05
9.11532e-06
-1.71398e-05
1.07753e-05
-1.65393e-05
1.23825e-05
-1.56861e-05
1.39245e-05
-1.46807e-05
1.53919e-05
-1.35851e-05
1.67741e-05
-1.24322e-05
1.80574e-05
-1.12335e-05
1.92261e-05
-9.98943e-06
2.02662e-05
-8.70058e-06
2.1169e-05
-7.37474e-06
2.19321e-05
-6.02167e-06
2.25548e-05
-4.64438e-06
2.30344e-05
-3.23856e-06
2.33647e-05
-1.79863e-06
2.35377e-05
-3.23826e-07
2.35468e-05
1.17889e-06
2.33887e-05
2.69625e-06
2.30632e-05
4.21403e-06
2.25699e-05
5.72212e-06
2.19057e-05
7.21418e-06
2.10647e-05
8.68169e-06
2.00409e-05
1.01078e-05
1.88329e-05
1.14651e-05
1.74479e-05
1.2717e-05
1.5905e-05
1.3822e-05
1.4235e-05
1.47452e-05
1.24742e-05
1.54713e-05
1.06545e-05
1.60117e-05
8.79731e-06
1.63977e-05
6.91468e-06
1.66634e-05
5.01372e-06
1.68367e-05
3.09995e-06
1.6937e-05
1.1793e-06
1.6977e-05
-7.41082e-07
1.69638e-05
-2.65318e-06
1.69015e-05
-4.54872e-06
1.67925e-05
-6.41986e-06
1.66365e-05
-8.26054e-06
1.64324e-05
-1.00675e-05
1.61764e-05
-1.18388e-05
1.58578e-05
-1.35709e-05
1.54559e-05
-1.52518e-05
1.49361e-05
-1.68557e-05
1.42572e-05
-1.83467e-05
1.33899e-05
-1.96885e-05
1.23325e-05
-2.08547e-05
1.11112e-05
-2.18319e-05
9.7667e-06
-2.26177e-05
8.34078e-06
-2.32172e-05
6.86875e-06
-2.36391e-05
5.37622e-06
-2.38917e-05
3.87857e-06
-2.39808e-05
2.38323e-06
-2.39094e-05
8.95312e-07
-2.36808e-05
-5.76687e-07
-2.33011e-05
-2.02193e-06
-2.27785e-05
-3.4331e-06
-2.21212e-05
-4.80991e-06
-2.13344e-05
-6.15884e-06
-2.04197e-05
-7.48962e-06
-1.93762e-05
-8.80877e-06
-1.82052e-05
-1.01135e-05
-1.69141e-05
-1.13911e-05
-1.55166e-05
-1.26261e-05
-1.40288e-05
-1.38045e-05
-1.24656e-05
-1.49102e-05
-1.08406e-05
-1.59125e-05
-9.16842e-06
-1.67531e-05
-7.46935e-06
-1.73338e-05
-5.7746e-06
-1.75062e-05
-4.13265e-06
-1.70684e-05
-2.61412e-06
-1.57691e-05
-1.31815e-06
-1.33192e-05
-3.85861e-07
-9.41305e-06
-3.77122e-06
3.90446e-07
-4.14155e-06
1.33435e-06
-1.02935e-05
2.65391e-06
-1.45443e-05
4.21148e-06
-1.72043e-05
5.90991e-06
-1.86178e-05
7.66928e-06
-1.90957e-05
9.4391e-06
-1.89095e-05
1.11829e-05
-1.82831e-05
1.28789e-05
-1.7383e-05
1.45167e-05
-1.63197e-05
1.60881e-05
-1.51573e-05
1.75813e-05
-1.39261e-05
1.89797e-05
-1.26324e-05
2.02618e-05
-1.12719e-05
2.1407e-05
-9.84615e-06
2.24044e-05
-8.37242e-06
2.32545e-05
-6.87194e-06
2.39605e-05
-5.35055e-06
2.45204e-05
-3.79863e-06
2.49255e-05
-2.20396e-06
2.51638e-05
-5.62495e-07
2.52254e-05
1.11685e-06
2.51067e-05
2.81458e-06
2.48097e-05
4.51069e-06
2.43363e-05
6.19528e-06
2.36821e-05
7.86826e-06
2.28365e-05
9.52736e-06
2.17869e-05
1.11575e-05
2.05254e-05
1.27268e-05
1.90552e-05
1.41877e-05
1.7396e-05
1.54818e-05
1.55861e-05
1.65557e-05
1.36732e-05
1.7385e-05
1.16971e-05
1.79887e-05
9.67939e-06
1.84162e-05
7.62843e-06
1.87152e-05
5.54863e-06
1.89172e-05
3.44507e-06
1.90412e-05
1.32541e-06
1.90972e-05
-7.99286e-07
1.90889e-05
-2.91621e-06
1.90189e-05
-5.01206e-06
1.88888e-05
-7.07366e-06
1.86986e-05
-9.09095e-06
1.84502e-05
-1.10598e-05
1.81457e-05
-1.29811e-05
1.77797e-05
-1.48573e-05
1.73325e-05
-1.66804e-05
1.67596e-05
-1.84202e-05
1.59975e-05
-2.00289e-05
1.49991e-05
-2.14589e-05
1.37631e-05
-2.2679e-05
1.23321e-05
-2.36782e-05
1.07666e-05
-2.44598e-05
9.12309e-06
-2.50353e-05
7.44501e-06
-2.54193e-05
5.76082e-06
-2.56246e-05
4.08434e-06
-2.56582e-05
2.41719e-06
-2.55213e-05
7.58807e-07
-2.52159e-05
-8.81822e-07
-2.47496e-05
-2.48799e-06
-2.41346e-05
-4.04793e-06
-2.33829e-05
-5.56146e-06
-2.2502e-05
-7.03965e-06
-2.14926e-05
-8.49919e-06
-2.035e-05
-9.95165e-06
-1.90725e-05
-1.13914e-05
-1.76691e-05
-1.27951e-05
-1.61596e-05
-1.41362e-05
-1.45664e-05
-1.53983e-05
-1.2908e-05
-1.65691e-05
-1.11986e-05
-1.76224e-05
-9.45165e-06
-1.85008e-05
-7.68504e-06
-1.91015e-05
-5.92872e-06
-1.92637e-05
-4.23231e-06
-1.87656e-05
-2.66905e-06
-1.73326e-05
-1.34237e-06
-1.46479e-05
-3.92877e-07
-1.03631e-05
-4.16454e-06
3.97025e-07
-4.53821e-06
1.3702e-06
-1.12669e-05
2.74213e-06
-1.59158e-05
4.37199e-06
-1.88343e-05
6.1506e-06
-2.03975e-05
7.99699e-06
-2.09428e-05
9.85355e-06
-2.07664e-05
1.16818e-05
-2.01121e-05
1.34639e-05
-1.91664e-05
1.51946e-05
-1.80519e-05
1.68687e-05
-1.68328e-05
1.84748e-05
-1.55334e-05
1.99938e-05
-1.41524e-05
2.1396e-05
-1.26752e-05
2.26505e-05
-1.11017e-05
2.37433e-05
-9.46604e-06
2.46812e-05
-7.81057e-06
2.54746e-05
-6.14459e-06
2.61225e-05
-4.44714e-06
2.66118e-05
-2.69393e-06
2.6924e-05
-8.75385e-07
2.7044e-05
9.96237e-07
2.69677e-05
2.89028e-06
2.67023e-05
4.77571e-06
2.62544e-05
6.64287e-06
2.56192e-05
8.5034e-06
2.478e-05
1.03666e-05
2.37161e-05
1.22216e-05
2.24105e-05
1.40328e-05
2.08587e-05
1.57401e-05
1.90791e-05
1.72621e-05
1.71199e-05
1.85157e-05
1.50447e-05
1.94609e-05
1.2904e-05
2.01301e-05
1.07161e-05
2.06049e-05
8.48075e-06
2.09513e-05
6.19807e-06
2.12008e-05
3.87329e-06
2.1367e-05
1.5174e-06
2.14542e-05
-8.52133e-07
2.14596e-05
-3.2154e-06
2.13834e-05
-5.55209e-06
2.12269e-05
-7.84052e-06
2.09886e-05
-1.00633e-05
2.06745e-05
-1.22136e-05
2.02976e-05
-1.42958e-05
1.98633e-05
-1.63228e-05
1.9361e-05
-1.82972e-05
1.87356e-05
-2.01839e-05
1.78858e-05
-2.1918e-05
1.67349e-05
-2.34357e-05
1.52824e-05
-2.47016e-05
1.35995e-05
-2.57106e-05
1.17768e-05
-2.64751e-05
9.88864e-06
-2.70148e-05
7.98564e-06
-2.73511e-05
6.09805e-06
-2.75024e-05
4.23625e-06
-2.74761e-05
2.39134e-06
-2.72688e-05