/*--------------------------------*- C++ -*----------------------------------*\
| =========                 |                                                 |
| \\      /  F ield         | OpenFOAM: The Open Source CFD Toolbox           |
|  \\    /   O peration     | Version:  2412                                  |
|   \\  /    A nd           | Website:  www.openfoam.com                      |
|    \\/     M anipulation  |                                                 |
\*---------------------------------------------------------------------------*/
FoamFile
{
    version     2.0;
    format      ascii;
    arch        "LSB;label=32;scalar=64";
    class       surfaceScalarField;
    location    "1.9";
    object      alphaPhi0.oil;
}
// * * * * * * * * * * * * * * * * * * * * * * * * * * * * * * * * * * * * * //

dimensions      [0 3 -1 0 0 0 0];

oriented        oriented;

internalField   nonuniform List<scalar> 
12640
(
3.78338e-08
-3.77557e-08
6.45913e-07
-6.08244e-07
1.80714e-06
-1.16135e-06
3.33625e-06
-1.5294e-06
5.06444e-06
-1.7284e-06
6.86754e-06
-1.80323e-06
8.66318e-06
-1.79582e-06
1.0402e-05
-1.73888e-06
1.20577e-05
-1.65555e-06
1.3618e-05
-1.56034e-06
1.50798e-05
-1.46156e-06
1.64437e-05
-1.36353e-06
1.77115e-05
-1.26766e-06
1.88854e-05
-1.17386e-06
1.99673e-05
-1.08159e-06
2.09577e-05
-9.90078e-07
2.1856e-05
-8.98373e-07
2.26608e-05
-8.05359e-07
2.33703e-05
-7.09933e-07
2.39812e-05
-6.11041e-07
2.44889e-05
-5.07497e-07
2.48872e-05
-3.97809e-07
2.51676e-05
-2.80104e-07
2.532e-05
-1.52181e-07
2.53317e-05
-1.16578e-08
2.51878e-05
1.43959e-07
2.48713e-05
3.16552e-07
2.43638e-05
5.0769e-07
2.36464e-05
7.17775e-07
2.27007e-05
9.46009e-07
2.15107e-05
1.19013e-06
2.00643e-05
1.44617e-06
1.83554e-05
1.70846e-06
1.63848e-05
1.96976e-06
1.41624e-05
2.22151e-06
1.17072e-05
2.45432e-06
9.04803e-06
2.65852e-06
6.22265e-06
2.8249e-06
3.27671e-06
2.94562e-06
2.61817e-07
3.01483e-06
-2.76683e-06
3.02891e-06
-5.75333e-06
2.98694e-06
-8.64397e-06
2.89098e-06
-1.13896e-05
2.74567e-06
-1.3948e-05
2.55812e-06
-1.62853e-05
2.33717e-06
-1.8377e-05
2.09209e-06
-2.02085e-05
1.83231e-06
-2.17745e-05
1.56683e-06
-2.30778e-05
1.30374e-06
-2.41277e-05
1.04981e-06
-2.49378e-05
8.09856e-07
-2.55253e-05
5.86861e-07
-2.59085e-05
3.8239e-07
-2.61061e-05
1.96607e-07
-2.61355e-05
2.83818e-08
-2.60126e-05
-1.23798e-07
-2.57511e-05
-2.62296e-07
-2.53622e-05
-3.89432e-07
-2.48549e-05
-5.0755e-07
-2.42362e-05
-6.1879e-07
-2.35115e-05
-7.24915e-07
-2.26847e-05
-8.27297e-07
-2.17586e-05
-9.27047e-07
-2.07343e-05
-1.02522e-06
-1.96124e-05
-1.12283e-06
-1.8392e-05
-1.2209e-06
-1.70716e-05
-1.32045e-06
-1.5649e-05
-1.42215e-06
-1.41225e-05
-1.52583e-06
-1.24919e-05
-1.62977e-06
-1.07619e-05
-1.72938e-06
-8.94603e-06
-1.81553e-06
-7.07358e-06
-1.87259e-06
-5.19768e-06
-1.87636e-06
-3.40548e-06
-1.79274e-06
-1.82705e-06
-1.57869e-06
-6.37395e-07
-1.18928e-06
-2.55446e-08
-6.10996e-07
-2.52903e-08
6.17698e-07
-6.56032e-07
2.54011e-06
-2.53126e-06
5.56284e-06
-4.1844e-06
9.35166e-06
-5.31833e-06
1.35854e-05
-5.96236e-06
1.80127e-05
-6.23046e-06
2.24577e-05
-6.24081e-06
2.68099e-05
-6.09099e-06
3.10072e-05
-5.85238e-06
3.50191e-05
-5.57196e-06
3.88355e-05
-5.27763e-06
4.24562e-05
-4.98366e-06
4.58843e-05
-4.69524e-06
4.91231e-05
-4.41249e-06
5.21744e-05
-4.13283e-06
5.50364e-05
-3.85217e-06
5.77039e-05
-3.56585e-06
6.01678e-05
-3.26912e-06
6.24153e-05
-2.95711e-06
6.44293e-05
-2.62455e-06
6.61877e-05
-2.26537e-06
6.76626e-05
-1.8725e-06
6.88206e-05
-1.43796e-06
6.96216e-05
-9.53084e-07
7.00191e-05
-4.09058e-07
6.99608e-05
2.02579e-07
6.93898e-05
8.87867e-07
6.82468e-05
1.65119e-06
6.64724e-05
2.4924e-06
6.40116e-05
3.40666e-06
6.08178e-05
4.38343e-06
5.68573e-05
5.40577e-06
5.21142e-05
6.45036e-06
4.65947e-05
7.48792e-06
4.03305e-05
8.48449e-06
3.33803e-05
9.40331e-06
2.58308e-05
1.02072e-05
1.77942e-05
1.0861e-05
9.40483e-06
1.13347e-05
8.13704e-07
1.16057e-05
-7.81837e-06
1.16607e-05
-1.63284e-05
1.14966e-05
-2.4559e-05
1.11214e-05
-3.23659e-05
1.05527e-05
-3.96243e-05
9.81688e-06
-4.62335e-05
8.94673e-06
-5.21194e-05
7.97838e-06
-5.72357e-05
6.94903e-06
-6.15628e-05
5.8943e-06
-6.51053e-05
4.84618e-06
-6.78875e-05
3.83154e-06
-6.99493e-05
2.87082e-06
-7.13413e-05
1.9778e-06
-7.21202e-05
1.16029e-06
-7.23454e-05
4.20834e-07
-7.20748e-05
-2.43028e-07
-7.13631e-05
-8.36153e-07
-7.02596e-05
-1.36624e-06
-6.88075e-05
-1.84183e-06
-6.70437e-05
-2.27176e-06
-6.49987e-05
-2.66428e-06
-6.26975e-05
-3.0268e-06
-6.01597e-05
-3.36584e-06
-5.74001e-05
-3.68728e-06
-5.44291e-05
-3.99666e-06
-5.12528e-05
-4.29921e-06
-4.78735e-05
-4.5998e-06
-4.42904e-05
-4.90287e-06
-4.05003e-05
-5.21123e-06
-3.65006e-05
-5.52447e-06
-3.22934e-05
-5.83632e-06
-2.78914e-05
-6.13085e-06
-2.33292e-05
-6.37773e-06
-1.86753e-05
-6.52669e-06
-1.40494e-05
-6.50267e-06
-9.63796e-06
-6.20424e-06
-5.70541e-06
-5.51058e-06
-2.58489e-06
-4.30851e-06
-6.17389e-07
-2.57785e-06
-6.43923e-07
1.19879e-06
-1.85503e-06
4.2766e-06
-5.6092e-06
8.76617e-06
-8.67403e-06
1.42199e-05
-1.0772e-05
2.02446e-05
-1.1987e-05
2.6533e-05
-1.25187e-05
3.28681e-05
-1.25757e-05
3.91109e-05
-1.23335e-05
4.51823e-05
-1.19232e-05
5.10431e-05
-1.14324e-05
5.66801e-05
-1.09142e-05
6.2093e-05
-1.03958e-05
6.72852e-05
-9.88688e-06
7.22599e-05
-9.3868e-06
7.7017e-05
-8.88918e-06
8.15505e-05
-8.38461e-06
8.58477e-05
-7.86214e-06
8.98891e-05
-7.31002e-06
9.36478e-05
-6.7158e-06
9.70891e-05
-6.06606e-06
0.000100169
-5.34589e-06
0.000102835
-4.53872e-06
0.000105024
-3.62648e-06
0.000106661
-2.5902e-06
0.000107663
-1.41122e-06
0.000107938
-7.27345e-08
0.000107388
1.43785e-06
0.000105912
3.12699e-06
0.000103412
4.99236e-06
9.9798e-05
7.02085e-06
9.49946e-05
9.18688e-06
8.89492e-05
1.14512e-05
8.16384e-05
1.37612e-05
7.30749e-05
1.60515e-05
6.33118e-05
1.82475e-05
5.24461e-05
2.02689e-05
4.06184e-05
2.20348e-05
2.80097e-05
2.34694e-05
1.48361e-05
2.45081e-05
1.33932e-06
2.51022e-05
-1.22231e-05
2.52232e-05
-2.55904e-05
2.48645e-05
-3.85108e-05
2.40426e-05
-5.07529e-05
2.27955e-05
-6.21158e-05
2.11801e-05
-7.24367e-05
1.92673e-05
-8.15946e-05
1.71358e-05
-8.95128e-05
1.48667e-05
-9.61571e-05
1.25381e-05
-0.000101532
1.02206e-05
-0.000105675
7.97401e-06
-0.000108649
5.84481e-06
-0.000110537
3.86563e-06
-0.000111433
2.05598e-06
-0.000111436
4.23756e-07
-0.000110646
-1.03336e-06
-0.000109157
-2.32457e-06
-0.000107058
-3.46479e-06
-0.000104428
-4.47169e-06
-0.000101336
-5.36413e-06
-9.7839e-05
-6.16059e-06
-9.39865e-05
-6.87841e-06
-8.98178e-05
-7.5334e-06
-8.53638e-05
-8.14019e-06
-8.0647e-05
-8.71249e-06
-7.56822e-05
-9.2632e-06
-7.04773e-05
-9.80413e-06
-6.50341e-05
-1.03456e-05
-5.93505e-05
-1.08943e-05
-5.34243e-05
-1.14503e-05
-4.72582e-05
-1.20019e-05
-4.08696e-05
-1.25188e-05
-3.4303e-05
-1.29437e-05
-2.76468e-05
-1.31826e-05
-2.10515e-05
-1.30976e-05
-1.47486e-05
-1.25064e-05
-9.06183e-06
-1.11962e-05
-4.4006e-06
-8.9689e-06
-1.22468e-06
-5.75524e-06
-1.86896e-06
1.62187e-06
-3.4769e-06
5.57737e-06
-9.56439e-06
1.11605e-05
-1.42568e-05
1.78117e-05
-1.74229e-05
2.50875e-05
-1.92625e-05
3.26566e-05
-2.00875e-05
4.02902e-05
-2.02089e-05
4.78442e-05
-1.98871e-05
5.52385e-05
-1.93167e-05
6.24347e-05
-1.86283e-05
6.94219e-05
-1.79008e-05
7.62016e-05
-1.71745e-05
8.27783e-05
-1.64627e-05
8.91546e-05
-1.57626e-05
9.53275e-05
-1.50616e-05
0.000101286
-1.43424e-05
0.000107009
-1.35846e-05
0.000112465
-1.27663e-05
0.000117613
-1.18639e-05
0.000122399
-1.08522e-05
0.000126756
-9.70359e-06
0.000130605
-8.38811e-06
0.000133852
-6.87381e-06
0.00013639
-5.12797e-06
0.000138098
-3.11919e-06
0.000138845
-8.20238e-07
0.000138494
1.78844e-06
0.000136906
4.71482e-06
0.000133947
7.95166e-06
0.000129495
1.1473e-05
0.000123451
1.52316e-05
0.000115746
1.91573e-05
0.00010635
2.31574e-05
9.52842e-05
2.71186e-05
8.26204e-05
3.09121e-05
6.849e-05
3.44001e-05
5.30811e-05
3.74443e-05
3.66355e-05
3.99158e-05
1.94402e-05
4.17041e-05
1.81634e-06
4.27267e-05
-1.58949e-05
4.29349e-05
-3.33479e-05
4.2318e-05
-5.02084e-05
4.09039e-05
-6.6169e-05
3.87569e-05
-8.09625e-05
3.5974e-05
-9.43714e-05
3.26756e-05
-0.000106233
2.89966e-05
-0.000116444
2.50761e-05
-0.000124956
2.10484e-05
-0.000131771
1.70356e-05
-0.00013694
1.31417e-05
-0.000140544
9.44892e-06
-0.000142695
6.01634e-06
-0.00014352
2.88085e-06
-0.000143154
5.91976e-08
-0.000141738
-2.44891e-06
-0.000139405
-4.65696e-06
-0.00013628
-6.5883e-06
-0.000132479
-8.27208e-06
-0.000128102
-9.7403e-06
-0.000123237
-1.10251e-05
-0.000117956
-1.21577e-05
-0.000112321
-1.31671e-05
-0.000106379
-1.40804e-05
-0.000100167
-1.49233e-05
-9.37099e-05
-1.57199e-05
-8.70216e-05
-1.6492e-05
-8.01081e-05
-1.72589e-05
-7.29687e-05
-1.80335e-05
-6.56007e-05
-1.88181e-05
-5.80057e-05
-1.95965e-05
-5.01996e-05
-2.03242e-05
-4.22268e-05
-2.09156e-05
-3.41778e-05
-2.12307e-05
-2.621e-05
-2.10647e-05
-1.85686e-05
-2.01471e-05
-1.1604e-05
-1.81601e-05
-5.78039e-06
-1.4793e-05
-1.67393e-06
-9.8625e-06
-3.54153e-06
1.90043e-06
-5.37719e-06
6.45658e-06
-1.41201e-05
1.27895e-05
-2.05894e-05
2.02453e-05
-2.48783e-05
2.8341e-05
-2.73579e-05
3.6736e-05
-2.8482e-05
4.52049e-05
-2.86776e-05
5.36127e-05
-2.82946e-05
6.18885e-05
-2.75917e-05
7.00018e-05
-2.67414e-05
7.79478e-05
-2.58465e-05
8.57318e-05
-2.49578e-05
9.33597e-05
-2.40903e-05
0.000100833
-2.32362e-05
0.000108147
-2.23749e-05
0.000115282
-2.14782e-05
0.000122211
-2.05134e-05
0.000128889
-1.94452e-05
0.00013526
-1.82356e-05
0.000141251
-1.68439e-05
0.000146773
-1.52264e-05
0.000151721
-1.33362e-05
0.000155971
-1.11242e-05
0.000159383
-8.54125e-06
0.000161804
-5.54094e-06
0.000163068
-2.08448e-06
0.000163002
1.85428e-06
0.000161434
6.28312e-06
0.000158199
1.11866e-05
0.000153151
1.65212e-05
0.000146171
2.22116e-05
0.00013718
2.81492e-05
0.000126147
3.41924e-05
0.000113097
4.01699e-05
9.81223e-05
4.5888e-05
8.13834e-05
5.11405e-05
6.31081e-05
5.57211e-05
4.35879e-05
5.94374e-05
2.31681e-05
6.21253e-05
2.23404e-06
6.36617e-05
-1.88051e-05
6.39746e-05
-3.95348e-05
6.3048e-05
-5.95543e-05
6.09235e-05
-7.84943e-05
5.76971e-05
-9.60327e-05
5.35126e-05
-0.000111907
4.85495e-05
-0.00012592
4.30088e-05
-0.000137945
3.70987e-05
-0.000147918
3.10207e-05
-0.000155842
2.49584e-05
-0.00016177
1.90696e-05
-0.000165802
1.34804e-05
-0.000168069
8.28328e-06
-0.000168726
3.53808e-06
-0.000167941
-7.25377e-07
-0.000165887
-4.50287e-06
-0.000162732
-7.81097e-06
-0.000158638
-1.06819e-05
-0.000153751
-1.31579e-05
-0.000148205
-1.52865e-05
-0.000142113
-1.71166e-05
-0.000135574
-1.8696e-05
-0.00012867
-2.00706e-05
-0.000121467
-2.12834e-05
-0.000114014
-2.23756e-05
-0.000106348
-2.33859e-05
-9.84898e-05
-2.43497e-05
-9.04506e-05
-2.5298e-05
-8.22309e-05
-2.62531e-05
-7.38271e-05
-2.72218e-05
-6.52375e-05
-2.81862e-05
-5.64721e-05
-2.90895e-05
-4.75676e-05
-2.98198e-05
-3.86057e-05
-3.01924e-05
-2.97355e-05
-2.99347e-05
-2.11999e-05
-2.86825e-05
-1.33617e-05
-2.59984e-05
-6.72757e-06
-2.14279e-05
-1.97356e-06
-1.46155e-05
-5.51405e-06
2.07095e-06
-7.44783e-06
6.99874e-06
-1.90474e-05
1.37907e-05
-2.73811e-05
2.17251e-05
-3.28125e-05
3.02935e-05
-3.59261e-05
3.91559e-05
-3.7344e-05
4.81002e-05
-3.76216e-05
5.70076e-05
-3.72019e-05
6.58232e-05
-3.64064e-05
7.45281e-05
-3.54462e-05
8.31255e-05
-3.44439e-05
9.16254e-05
-3.34574e-05
0.000100035
-3.24997e-05
0.000108354
-3.15558e-05
0.000116573
-3.05943e-05
0.000124668
-2.95735e-05
0.0001326
-2.84459e-05
0.000140314
-2.71594e-05
0.000147736
-2.56584e-05
0.000154774
-2.38835e-05
0.000161319
-2.17717e-05
0.000167238
-1.92563e-05
0.000172382
-1.62688e-05
0.00017658
-1.2741e-05
0.000179649
-8.61092e-06
0.000181392
-3.82815e-06
0.000181607
1.63835e-06
0.000180096
7.7931e-06
0.000176674
1.46081e-05
0.000171178
2.20167e-05
0.00016348
2.99097e-05
0.000153496
3.81334e-05
0.000141197
4.64906e-05
0.000126623
5.4745e-05
0.000109881
6.26307e-05
9.11555e-05
6.98661e-05
7.07068e-05
7.61701e-05
4.88633e-05
8.12811e-05
2.60128e-05
8.4976e-05
2.58694e-06
8.70874e-05
-2.09566e-05
8.75174e-05
-4.41545e-05
8.62447e-05
-6.65581e-05
8.33258e-05
-8.77533e-05
7.88915e-05
-0.000107378
7.31373e-05
-0.000125136
6.63071e-05
-0.000140801
5.86743e-05
-0.000154225
5.0523e-05
-0.000165333
4.21286e-05
-0.000174118
3.37438e-05
-0.000180634
2.55865e-05
-0.000184986
1.78333e-05
-0.000187319
1.06165e-05
-0.000187805
4.02445e-06
-0.000186635
-1.8949e-06
-0.000184008
-7.12892e-06
-0.000180125
-1.16947e-05
-0.000175174
-1.56322e-05
-0.000169335
-1.89973e-05
-0.000162768
-2.18544e-05
-0.000155614
-2.42711e-05
-0.000147996
-2.63147e-05
-0.000140018
-2.80502e-05
-0.000131762
-2.954e-05
-0.000123294
-3.08437e-05
-0.000114662
-3.20182e-05
-0.000105897
-3.31158e-05
-9.70124e-05
-3.41824e-05
-8.80131e-05
-3.52524e-05
-7.88944e-05
-3.63408e-05
-6.965e-05
-3.74309e-05
-6.02818e-05
-3.84578e-05
-5.08145e-05
-3.92873e-05
-4.13142e-05
-3.96929e-05
-3.19137e-05
-3.93353e-05
-2.2844e-05
-3.77526e-05
-1.4469e-05
-3.43743e-05
-7.32397e-06
-2.85731e-05
-2.15971e-06
-1.97785e-05
-7.67476e-06
2.16585e-06
-9.61345e-06
7.28983e-06
-2.41712e-05
1.43079e-05
-3.43991e-05
2.24581e-05
-4.09626e-05
3.12227e-05
-4.46907e-05
4.02734e-05
-4.63942e-05
4.94182e-05
-4.67661e-05
5.85602e-05
-4.63439e-05
6.76634e-05
-4.55087e-05
7.67219e-05
-4.45047e-05
8.57474e-05
-4.34694e-05
9.47534e-05
-4.24629e-05
0.000103747
-4.14929e-05
0.000112725
-4.05341e-05
0.000121673
-3.95417e-05
0.000130558
-3.84583e-05
0.000139332
-3.72185e-05
0.000147924
-3.57507e-05
0.000156244
-3.39782e-05
0.00016418
-3.18199e-05
0.000171599
-2.91906e-05
0.000178344
-2.60019e-05
0.000184238
-2.21638e-05
0.000189086
-1.7589e-05
0.000192673
-1.21998e-05
0.000194781
-5.93614e-06
0.000195184
1.23408e-06
0.000193669
9.3067e-06
0.000190042
1.82347e-05
0.000184136
2.79218e-05
0.000175826
3.82184e-05
0.000165038
4.89207e-05
0.000151757
5.97713e-05
0.000136036
7.04652e-05
0.000118004
8.0662e-05
9.78663e-05
9.00029e-05
7.59038e-05
9.81313e-05
5.24683e-05
0.000104715
2.7971e-05
0.000109472
2.86763e-06
0.000112189
-2.23595e-05
0.000112743
-4.72228e-05
0.000111106
-7.12493e-05
0.00010735
-9.40014e-05
0.000101642
-0.000115094
9.42288e-05
-0.000134208
8.54208e-05
-0.000151098
7.55648e-05
-0.000165596
6.50213e-05
-0.000177608
5.41419e-05
-0.000187114
4.32506e-05
-0.000194156
3.26295e-05
-0.000198831
2.251e-05
-0.000201283
1.30697e-05
-0.00020169
4.43198e-06
-0.000200254
-3.33029e-06
-0.000197193
-1.01899e-05
-0.000192729
-1.61596e-05
-0.000187077
-2.1284e-05
-0.000180444
-2.56313e-05
-0.000173017
-2.9283e-05
-0.000164963
-3.23263e-05
-0.00015643
-3.48496e-05
-0.000147542
-3.69391e-05
-0.000138405
-3.86787e-05
-0.000129099
-4.015e-05
-0.000119687
-4.14311e-05
-0.000110209
-4.25946e-05
-0.000100687
-4.37045e-05
-9.11286e-05
-4.48107e-05
-8.15296e-05
-4.59397e-05
-7.188e-05
-4.70802e-05
-6.21734e-05
-4.81639e-05
-5.24204e-05
-4.90398e-05
-4.26682e-05
-4.94447e-05
-3.30282e-05
-4.89751e-05
-2.37113e-05
-4.70697e-05
-1.50719e-05
-4.3014e-05
-7.65757e-06
-3.59866e-05
-2.26663e-06
-2.51697e-05
-9.94259e-06
2.20905e-06
-1.18225e-05
7.39773e-06
-2.93599e-05
1.44593e-05
-4.14609e-05
2.26169e-05
-4.912e-05
3.13613e-05
-5.34352e-05
4.03875e-05
-5.54198e-05
4.95311e-05
-5.59095e-05
5.87209e-05
-5.55337e-05
6.79406e-05
-5.47273e-05
7.71974e-05
-5.37611e-05
8.65092e-05
-5.27808e-05
9.58909e-05
-5.18437e-05
0.000105347
-5.0948e-05
0.000114869
-5.00558e-05
0.000124435
-4.91061e-05
0.000134002
-4.80235e-05
0.000143507
-4.67217e-05
0.000152864
-4.5106e-05
0.000161962
-4.30753e-05
0.000170667
-4.05236e-05
0.000178819
-3.73412e-05
0.000186235
-3.3417e-05
0.000192711
-2.86395e-05
0.000198025
-2.29028e-05
0.000201941
-1.61154e-05
0.000204217
-8.2124e-06
0.000204619
8.32559e-07
0.000202928
1.09976e-05
0.000198955
2.22068e-05
0.000192551
3.43251e-05
0.000183613
4.71557e-05
0.000172093
6.04399e-05
0.000158005
7.38586e-05
0.00014143
8.70395e-05
0.00012252
9.95712e-05
0.000101499
0.000111023
7.866e-05
0.00012097
5.43592e-05
0.000129015
2.90085e-05
0.000134822
3.05988e-06
0.000138137
-2.30104e-05
0.000138812
-4.87212e-05
0.000136815
-7.3605e-05
0.000132232
-9.72267e-05
0.000125261
-0.000119199
0.0001162
-0.000139196
0.000105417
-0.000156959
9.33266e-05
-0.000172299
8.03603e-05
-0.000185098
6.69399e-05
-0.000195306
5.34579e-05
-0.000202938
4.02603e-05
-0.000208064
2.76359e-05
-0.000210808
1.58126e-05
-0.000211333
4.95723e-06
-0.000209841
-4.82308e-06
-0.000206556
-1.34767e-05
-0.000201713
-2.10033e-05
-0.000195552
-2.74466e-05
-0.000188301
-3.28832e-05
-0.000180174
-3.74104e-05
-0.000171366
-4.11347e-05
-0.000162051
-4.41653e-05
-0.000152379
-4.66109e-05
-0.000142479
-4.85791e-05
-0.000132453
-5.0176e-05
-0.000122379
-5.15049e-05
-0.000112311
-5.26623e-05
-0.00010228
-5.37339e-05
-9.23015e-05
-5.47885e-05
-8.23726e-05
-5.58674e-05
-7.24822e-05
-5.69693e-05
-6.26168e-05
-5.80278e-05
-5.27737e-05
-5.88815e-05
-4.29801e-05
-5.92371e-05
-3.33216e-05
-5.86326e-05
-2.39822e-05
-5.64083e-05
-1.52943e-05
-5.17007e-05
-7.80088e-06
-4.3479e-05
-2.32015e-06
-3.06513e-05
-1.22616e-05
2.21557e-06
-1.40382e-05
7.36781e-06
-3.45122e-05
1.43282e-05
-4.84213e-05
2.23282e-05
-5.71196e-05
3.08861e-05
-6.19933e-05
3.97333e-05
-6.42662e-05
4.87395e-05
-6.49154e-05
5.78618e-05
-6.4656e-05
6.71031e-05
-6.39677e-05
7.64814e-05
-6.3139e-05
8.60174e-05
-6.23164e-05
9.57231e-05
-6.15485e-05
0.000105597
-6.08209e-05
0.000115621
-6.008e-05
0.000125763
-5.92471e-05
0.000135966
-5.82257e-05
0.00014615
-5.69051e-05
0.000156209
-5.51632e-05
0.000166004
-5.287e-05
0.000175373
-4.98913e-05
0.000184125
-4.6092e-05
0.000192047
-4.13381e-05
0.000198907
-3.54985e-05
0.000204457
-2.84513e-05
0.000208437
-2.00958e-05
0.000210595
-1.03697e-05
0.000210692
7.36017e-07
0.000208523
1.31671e-05
0.000203925
2.68035e-05
0.000196792
4.14584e-05
0.000187069
5.68787e-05
0.000174762
7.27473e-05
0.000159934
8.86859e-05
0.000142713
0.000104261
0.000123282
0.000119003
0.000101883
0.000132423
7.88079e-05
0.000144046
5.43982e-05
0.000153426
2.90357e-05
0.000160186
3.13336e-06
0.000164041
-2.28777e-05
0.000164825
-4.85625e-05
0.000162501
-7.34969e-05
0.000157167
-9.72812e-05
0.000149045
-0.000119553
0.000138471
-0.000139997
0.00012586
-0.000158347
0.000111676
-0.000174393
9.64045e-05
-0.000187978
8.05225e-05
-0.000199004
6.44816e-05
-0.000207432
4.8686e-05
-0.000213281
3.34818e-05
-0.000216624
1.91528e-05
-0.000217589
5.92027e-06
-0.000216354
-6.05991e-06
-0.000213136
-1.66961e-05
-0.000208179
-2.59616e-05
-0.000201738
-3.38888e-05
-0.000194065
-4.05568e-05
-0.0001854
-4.60748e-05
-0.000175968
-5.05664e-05
-0.000165972
-5.41602e-05
-0.000155595
-5.69864e-05
-0.000144994
-5.91776e-05
-0.0001343
-6.08683e-05
-0.000123612
-6.21909e-05
-0.000113001
-6.32709e-05
-0.000102514
-6.42197e-05
-9.21717e-05
-6.51283e-05
-8.19807e-05
-6.60563e-05
-7.19317e-05
-6.70164e-05
-6.20077e-05
-6.795e-05
-5.21951e-05
-6.86926e-05
-4.25014e-05
-6.89296e-05
-3.29841e-05
-6.81489e-05
-2.37929e-05
-6.55985e-05
-1.52267e-05
-6.02658e-05
-7.80374e-06
-5.09022e-05
-2.33635e-06
-3.61189e-05
-1.45963e-05
2.19254e-06
-1.62309e-05
7.22406e-06
-3.95434e-05
1.39635e-05
-5.51609e-05
2.16753e-05
-6.48308e-05
2.99248e-05
-7.02431e-05
3.84918e-05
-7.28328e-05
4.72867e-05
-7.37103e-05
5.6296e-05
-7.36655e-05
6.55385e-05
-7.32102e-05
7.50387e-05
-7.26395e-05
8.48147e-05
-7.20923e-05
9.48697e-05
-7.16032e-05
0.00010519
-7.11417e-05
0.000115747
-7.0637e-05
0.00012649
-6.99909e-05
0.000137346
-6.90828e-05
0.000148214
-6.77729e-05
0.000158956
-6.59056e-05
0.000169401
-6.33161e-05
0.000179348
-5.98383e-05
0.000188567
-5.53113e-05
0.00019681
-4.95814e-05
0.000203813
-4.25018e-05
0.000209301
-3.39396e-05
0.000212997
-2.37921e-05
0.000214638
-1.20109e-05
0.000213995
1.37768e-06
0.000210898
1.62644e-05
0.000205238
3.24622e-05
0.000196983
4.97129e-05
0.000186166
6.76954e-05
0.000172881
8.60322e-05
0.000157275
0.000104292
0.00013954
0.000121995
0.00011991
0.000138633
9.86421e-05
0.000153692
7.60151e-05
0.000166673
5.23269e-05
0.000177115
2.78926e-05
0.000184621
3.04041e-06
0.000188894
-2.18936e-05
0.000189761
-4.65716e-05
0.000187182
-7.06605e-05
0.000181258
-9.3839e-05
0.000172225
-0.000115802
0.000160436
-0.000136268
0.000146326
-0.000154972
0.000130382
-0.000171675
0.000113108
-0.000186165
9.50122e-05
-0.000198267
7.65836e-05
-0.000207856
5.82742e-05
-0.000214859
4.04831e-05
-0.000219264
2.35568e-05
-0.00022113
7.78601e-06
-0.000220589
-6.60256e-06
-0.000217832
-1.94537e-05
-0.000213101
-3.06928e-05
-0.000206664
-4.03256e-05
-0.000198797
-4.84244e-05
-0.000189766
-5.51051e-05
-0.000179828
-6.05033e-05
-0.000169225
-6.47624e-05
-0.000158179
-6.80314e-05
-0.000146888
-7.0468e-05
-0.000135516
-7.22388e-05
-0.000124194
-7.35122e-05
-0.000113015
-7.44485e-05
-0.000102044
-7.51903e-05
-9.13172e-05
-7.58543e-05
-8.08515e-05
-7.65214e-05
-7.06458e-05
-7.72218e-05
-6.06854e-05
-7.79103e-05
-5.09505e-05
-7.84277e-05
-4.14315e-05
-7.84489e-05
-3.21573e-05
-7.74234e-05
-2.32376e-05
-7.45181e-05
-1.49251e-05
-6.8579e-05
-7.69274e-06
-5.81364e-05
-2.32301e-06
-4.14879e-05
-1.69202e-05
2.14033e-06
-1.83712e-05
6.97244e-06
-4.4375e-05
1.33871e-05
-6.15756e-05
2.07086e-05
-7.21517e-05
2.857e-05
-7.81051e-05
3.68112e-05
-8.10736e-05
4.53852e-05
-8.22854e-05
5.43074e-05
-8.25876e-05
6.36066e-05
-8.25098e-05
7.33066e-05
-8.23404e-05
8.34151e-05
-8.22012e-05
9.39192e-05
-8.21071e-05
0.000104787
-8.20098e-05
0.000115971
-8.18211e-05
0.000127401
-8.14219e-05
0.000138982
-8.06643e-05
0.000150582
-7.93727e-05
0.000162025
-7.73493e-05
0.000173094
-7.43858e-05
0.000183535
-7.028e-05
0.00019307
-6.48469e-05
0.000201408
-5.79198e-05
0.000208251
-4.9345e-05
0.000213296
-3.89857e-05
0.000216249
-2.67458e-05
0.000216844
-1.26068e-05
0.000214877
3.34338e-06
0.000210233
2.0907e-05
0.000202899
3.97961e-05
0.000192958
5.9653e-05
0.00018058
8.00725e-05
0.000165994
0.000100617
0.00014947
0.000120816
0.0001313
0.000140165
0.000111782
0.00015815
9.11935e-05
0.00017428
6.97811e-05
0.000188085
4.7766e-05
0.000199129
2.53487e-05
0.000207038
2.71569e-06
0.000211527
-1.99545e-05
0.000212431
-4.24851e-05
0.000209713
-6.46946e-05
0.000203468
-8.63919e-05
0.000193924
-0.000107373
0.000181418
-0.000127414
0.00016637
-0.000146269
0.000149238
-0.000163656
0.000130499
-0.000179283
0.000110641
-0.000192865
9.0167e-05
-0.000204142
6.95543e-05
-0.000212904
4.92471e-05
-0.000219007
2.96607e-05
-0.000222397
1.11774e-05
-0.000223126
-5.87312e-06
-0.000221343
-2.12369e-05
-0.000217276
-3.47597e-05
-0.000211204
-4.63983e-05
-0.000203422
-5.62066e-05
-0.000194227
-6.43e-05
-0.000183912
-7.08189e-05
-0.000172763
-7.59126e-05
-0.000161053
-7.97413e-05
-0.000149036
-8.24864e-05
-0.000136925
-8.43519e-05
-0.000124888
-8.55512e-05
-0.00011305
-8.62886e-05
-0.000101498
-8.67444e-05
-9.02883e-05
-8.70654e-05
-7.94563e-05
-8.73552e-05
-6.90156e-05
-8.76644e-05
-5.89618e-05
-8.7966e-05
-4.92762e-05
-8.8115e-05
-3.99381e-05
-8.77883e-05
-3.09496e-05
-8.64127e-05
-2.23777e-05
-8.30906e-05
-1.44174e-05
-7.65408e-05
-7.47528e-06
-6.50791e-05
-2.28089e-06
-4.66814e-05
-1.92023e-05
2.05308e-06
-2.04243e-05
6.60415e-06
-4.89251e-05
1.2601e-05
-6.75728e-05
1.94605e-05
-7.90104e-05
2.69025e-05
-8.55475e-05
3.48342e-05
-8.90042e-05
4.32497e-05
-9.07025e-05
5.21869e-05
-9.15244e-05
6.16769e-05
-9.19997e-05
7.17323e-05
-9.23966e-05
8.23399e-05
-9.28093e-05
9.3461e-05
-9.32282e-05
0.000105038
-9.3587e-05
0.000116998
-9.37815e-05
0.000129247
-9.36718e-05
0.000141661
-9.30786e-05
0.00015407
-9.17816e-05
0.000166249
-8.95275e-05
0.000177915
-8.60519e-05
0.000188746
-8.11107e-05
0.0001984
-7.45007e-05
0.000206537
-6.60569e-05
0.000212825
-5.56329e-05
0.000216937
-4.30976e-05
0.000218562
-2.83701e-05
0.000217436
-1.14812e-05
0.000213396
7.38349e-06
0.000206415
2.78891e-05
0.000196613
4.95982e-05
0.000184253
7.20141e-05
0.000169699
9.46267e-05
0.000153374
0.000116943
0.000135714
0.000138475
0.000117153
0.000158726
9.80785e-05
0.000177224
7.87899e-05
0.000193569
5.94787e-05
0.000207396
4.02462e-05
0.000218362
2.11214e-05
0.000226163
2.08008e-06
0.00023057
-1.69327e-05
0.000231446
-3.5978e-05
0.00022876
-5.50981e-05
0.00022259
-7.42959e-05
0.000213123
-9.3518e-05
0.000200642
-0.000112639
0.000185492
-0.000131439
0.00016804
-0.000149591
0.000148652
-0.000166683
0.000127735
-0.000182276
0.000105761
-0.00019593
8.32088e-05
-0.000207232
6.05494e-05
-0.000215844
3.82727e-05
-0.000221549
1.6883e-05
-0.000224281
-3.14205e-06
-0.00022412
-2.13989e-05
-0.000221272
-3.76083e-05
-0.000216022
-5.16485e-05
-0.000208688
-6.35417e-05
-0.000199591
-7.33965e-05
-0.000189061
-8.13486e-05
-0.000177437
-8.75361e-05
-0.000165062
-9.21159e-05
-0.00015226
-9.52883e-05
-0.00013931
-9.73017e-05
-0.000126432
-9.84284e-05
-0.000113791
-9.89308e-05
-0.0001015
-9.90356e-05
-8.96424e-05
-9.8923e-05
-7.82775e-05
-9.87207e-05
-6.7444e-05
-9.84989e-05
-5.71581e-05
-9.8253e-05
-4.74129e-05
-9.78611e-05
-3.81857e-05
-9.7016e-05
-2.94589e-05
-9.51397e-05
-2.12581e-05
-9.12917e-05
-1.37129e-05
-8.40864e-05
-7.14637e-06
-7.16442e-05
-2.20449e-06
-5.1624e-05
-2.14056e-05
1.91816e-06
-2.23425e-05
6.0982e-06
-5.31036e-05
1.15985e-05
-7.3073e-05
1.79645e-05
-8.53753e-05
2.50178e-05
-9.26009e-05
3.27316e-05
-9.67158e-05
4.11332e-05
-9.91045e-05
5.02689e-05
-0.00010066
6.01624e-05
-0.000101893
7.08028e-05
-0.000103038
8.21427e-05
-0.00010415
9.41049e-05
-0.000105191
0.000106597
-0.00010608
0.000119515
-0.000106701
0.000132737
-0.000106895
0.000146104
-0.000106447
0.000159399
-0.000105078
0.000172332
-0.000102461
0.000184537
-9.82568e-05
0.000195596
-9.21704e-05
0.00020509
-8.39944e-05
0.000212626
-7.3593e-05
0.000217846
-6.08521e-05
0.000220405
-4.56564e-05
0.000219979
-2.79432e-05
0.000216311
-7.81255e-06
0.000209292
1.44033e-05
0.000199019
3.81637e-05
0.000185803
6.28153e-05
0.000170148
8.76693e-05
0.000152692
0.000112083
0.000134112
0.000135523
0.000115062
0.000157526
9.61555e-05
0.000177633
7.79082e-05
0.000195472
6.06395e-05
0.000210838
4.4455e-05
0.000223581
2.92852e-05
0.000233532
1.49217e-05
0.000240528
1.05131e-06
0.000244441
-1.2701e-05
0.000245198
-2.6722e-05
0.000242782
-4.13595e-05
0.000237228
-5.68814e-05
0.000228645
-7.34443e-05
0.000217204
-9.10642e-05
0.000203111
-0.000109575
0.00018655
-0.000128586
0.000167661
-0.000147524
0.000146672
-0.000165752
0.000123986
-0.000182592
0.000100047
-0.000197361
7.53166e-05
-0.000209452
5.03628e-05
-0.000218423
2.58527e-05
-0.00022404
2.47412e-06
-0.000226289
-1.91501e-05
-0.000225345
-3.85517e-05
-0.000221501
-5.54927e-05
-0.000215088
-6.99537e-05
-0.000206447
-8.2036e-05
-0.000195938
-9.18569e-05
-0.000183957
-9.95155e-05
-0.000170934
-0.000105136
-0.000157293
-0.000108928
-0.0001434
-0.000111194
-0.00012954
-0.000112287
-0.000115921
-0.000112548
-0.000102694
-0.000112262
-8.99689e-05
-0.000111646
-7.78396e-05
-0.000110849
-6.63804e-05
-0.000109958
-5.56419e-05
-0.000108991
-4.56427e-05
-0.00010786
-3.63711e-05
-0.000106287
-2.78016e-05
-0.000103709
-1.9928e-05
-9.91651e-05
-1.28159e-05
-9.11972e-05
-6.69319e-06
-7.77655e-05
-2.08377e-06
-5.62342e-05
-2.34886e-05
1.71407e-06
-2.40566e-05
5.42366e-06
-5.68108e-05
1.03759e-05
-7.80242e-05
1.62801e-05
-9.12775e-05
2.30609e-05
-9.93813e-05
3.074e-05
-0.000104393
3.93616e-05
-0.000107725
4.89621e-05
-0.00011026
5.95441e-05
-0.000112475
7.10608e-05
-0.000114554
8.34146e-05
-0.000116503
9.6475e-05
-0.000118251
0.000110104
-0.000119708
0.000124161
-0.000120759
0.000138494
-0.000121228
0.000152903
-0.000120857
0.00016712
-0.000119296
0.000180773
-0.000116115
0.000193382
-0.000110867
0.00020441
-0.000103198
0.000213337
-9.29219e-05
0.000219727
-7.99831e-05
0.000223216
-6.43415e-05
0.000223465
-4.59045e-05
0.000220137
-2.46147e-05
0.00021298
-6.56404e-07
0.000201957
2.54265e-05
0.000187328
5.27925e-05
0.000169656
8.04864e-05
0.000149767
0.000107558
0.000128654
0.000133196
0.000107314
0.000156862
8.66483e-05
0.000178191
6.74934e-05
0.000196787
5.05383e-05
0.000212426
3.61204e-05
0.000225255
2.42147e-05
0.000235485
1.45235e-05
0.000243222
6.53327e-06
0.000248516
-4.37738e-07
0.00025141
-7.17645e-06
0.000251935
-1.4489e-05
0.000250092
-2.31132e-05
0.00024585
-3.36526e-05
0.000239182
-4.65341e-05
0.000230084
-6.19698e-05
0.000218545
-7.98854e-05
0.000204464
-9.98107e-05
0.000187585
-0.000120954
0.000167813
-0.000142441
0.000145472
-0.00016332
0.000120925
-0.000182559
9.45547e-05
-0.000199196
6.70006e-05
-0.000212492
3.91488e-05
-0.000221994
1.19771e-05
-0.000227564
-1.35796e-05
-0.000229339
-3.67757e-05
-0.000227621
-5.72106e-05
-0.000222751
-7.48241e-05
-0.000215062
-8.97245e-05
-0.000204925
-0.000101996
-0.000192793
-0.000111648
-0.000179208
-0.000118723
-0.000164722
-0.000123415
-0.000149816
-0.000126102
-0.000134854
-0.00012725
-0.000120095
-0.000127308
-0.000105724
-0.000126634
-9.18874e-05
-0.000125483
-7.87176e-05
-0.000124019
-6.63395e-05
-0.000122336
-5.48547e-05
-0.000120476
-4.4323e-05
-0.000118391
-3.47591e-05
-0.00011585
-2.61469e-05
-0.00011232
-1.84669e-05
-0.000106844
-1.17387e-05
-9.79234e-05
-6.09407e-06
-8.341e-05
-1.90204e-06
-6.04236e-05
-2.53908e-05
1.40602e-06
-2.54623e-05
4.54457e-06
-5.99465e-05
8.95516e-06
-8.24333e-05
1.45286e-05
-9.68489e-05
2.12672e-05
-0.000106118
2.92021e-05
-0.000112328
3.83648e-05
-0.000116886
4.87641e-05
-0.000120658
6.03695e-05
-0.00012408
7.30869e-05
-0.000127271
8.67515e-05
-0.000130167
0.000101161
-0.00013266
0.000116121
-0.000134667
0.000131451
-0.000136089
0.000146963
-0.000136739
0.000162418
-0.000136311
0.000177489
-0.000134367
0.000191712
-0.000130337
0.000204466
-0.00012362
0.000215051
-0.000113783
0.000222834
-0.000100705
0.000227352
-8.45018e-05
0.000228286
-6.52756e-05
0.000225337
-4.29557e-05
0.000218163
-1.74408e-05
0.000206511
1.09956e-05
0.000190424
4.15137e-05
0.000170378
7.28387e-05
0.000147249
0.000103615
0.000122262
0.000132546
9.68602e-05
0.000158598
7.24138e-05
0.000181309
5.0051e-05
0.000200554
3.08576e-05
0.00021598
1.57688e-05
0.000227515
5.1254e-06
0.000235899
-1.29154e-06
0.000241902
-4.06246e-06
0.000245991
-4.0626e-06
0.000248514
-2.41061e-06
0.000249756
-3.89356e-07
0.000249912
6.86191e-07
0.000249015
-3.85973e-07
0.00024692
-4.60216e-06
0.000243395
-1.27075e-05
0.000238186
-2.51683e-05
0.000231004
-4.20714e-05
0.000221365
-6.28497e-05
0.000208362
-8.63994e-05
0.000191362
-0.00011162
0.000170693
-0.000137282
0.000146587
-0.000161928
0.0001192
-0.000184149
8.92219e-05
-0.000202836