/*--------------------------------*- C++ -*----------------------------------*\
| =========                 |                                                 |
| \\      /  F ield         | OpenFOAM: The Open Source CFD Toolbox           |
|  \\    /   O peration     | Version:  2412                                  |
|   \\  /    A nd           | Website:  www.openfoam.com                      |
|    \\/     M anipulation  |                                                 |
\*---------------------------------------------------------------------------*/
FoamFile
{
    version     2.0;
    format      ascii;
    arch        "LSB;label=32;scalar=64";
    class       surfaceScalarField;
    location    "9.5";
    object      phi;
}
// * * * * * * * * * * * * * * * * * * * * * * * * * * * * * * * * * * * * * //

dimensions      [0 3 -1 0 0 0 0];

oriented        oriented;

internalField   nonuniform List<scalar> 
12640
(
5.59014e-06
-5.59014e-06
1.17237e-05
-6.15554e-06
1.94606e-05
-7.73715e-06
2.80943e-05
-8.6301e-06
3.6314e-05
-8.2178e-06
4.29315e-05
-6.61728e-06
4.71805e-05
-4.24925e-06
4.86622e-05
-1.48188e-06
4.74296e-05
1.23267e-06
4.36645e-05
3.76523e-06
3.78151e-05
5.84961e-06
3.02769e-05
7.53848e-06
2.15301e-05
8.74691e-06
1.20081e-05
9.52216e-06
2.15242e-06
9.85609e-06
-7.78157e-06
9.93412e-06
-1.74915e-05
9.70965e-06
-2.67049e-05
9.2147e-06
-3.52326e-05
8.52911e-06
-4.29035e-05
7.67154e-06
-4.95768e-05
6.67398e-06
-5.51553e-05
5.57984e-06
-5.95634e-05
4.40967e-06
-6.27405e-05
3.1781e-06
-6.47469e-05
2.0062e-06
-6.55516e-05
8.03742e-07
-6.52937e-05
-2.58254e-07
-6.40049e-05
-1.28804e-06
-6.17742e-05
-2.23e-06
-5.87055e-05
-3.06878e-06
-5.49145e-05
-3.79203e-06
-5.04774e-05
-4.43807e-06
-4.54797e-05
-4.99805e-06
-4.0007e-05
-5.47285e-06
-3.41187e-05
-5.88841e-06
-2.79044e-05
-6.21414e-06
-2.14187e-05
-6.48508e-06
-1.46978e-05
-6.72041e-06
-7.78886e-06
-6.90866e-06
-7.57349e-07
-7.03183e-06
6.33687e-06
-7.09459e-06
1.34535e-05
-7.11694e-06
2.05175e-05
-7.06465e-06
2.74615e-05
-6.94459e-06
3.42125e-05
-6.75131e-06
4.07037e-05
-6.49111e-06
4.68287e-05
-6.12517e-06
5.24704e-05
-5.6421e-06
5.75508e-05
-5.08073e-06
6.19319e-05
-4.38116e-06
6.54867e-05
-3.55462e-06
6.81016e-05
-2.61448e-06
6.96523e-05
-1.55012e-06
7.00262e-05
-3.73336e-07
6.9207e-05
8.19583e-07
6.70337e-05
2.17348e-06
6.35686e-05
3.46526e-06
5.87432e-05
4.82567e-06
5.2665e-05
6.07887e-06
4.53745e-05
7.29114e-06
3.70245e-05
8.35025e-06
2.77712e-05
9.2531e-06
1.7824e-05
9.94711e-06
7.42202e-06
1.04024e-05
-3.14359e-06
1.05665e-05
-1.36016e-05
1.04588e-05
-2.36042e-05
1.00026e-05
-3.28363e-05
9.23179e-06
-4.0713e-05
7.87682e-06
-4.67802e-05
6.0679e-06
-5.06111e-05
3.83134e-06
-5.18295e-05
1.21786e-06
-5.01892e-05
-1.64108e-06
-4.55633e-05
-4.62572e-06
-3.84769e-05
-7.08602e-06
-2.97955e-05
-8.68234e-06
-2.07097e-05
-9.08666e-06
-1.25111e-05
-8.19761e-06
-6.05901e-06
-6.45205e-06
-6.05929e-06
4.6654e-06
-1.02344e-05
1.13418e-05
-1.28323e-05
2.20568e-05
-1.84553e-05
3.5055e-05
-2.16296e-05
4.81537e-05
-2.13165e-05
5.92076e-05
-1.76708e-05
6.67226e-05
-1.1764e-05
6.99731e-05
-4.73215e-06
6.89862e-05
2.21974e-06
6.42568e-05
8.49486e-06
5.64898e-05
1.36171e-05
4.65174e-05
1.75113e-05
3.50093e-05
2.02555e-05
2.25876e-05
2.19439e-05
9.66391e-06
2.27802e-05
-3.23924e-06
2.28391e-05
-1.57871e-05
2.22584e-05
-2.7609e-05
2.10372e-05
-3.8457e-05
1.93784e-05
-4.81411e-05
1.73575e-05
-5.65284e-05
1.50629e-05
-6.35013e-05
1.25532e-05
-6.89883e-05
9.89607e-06
-7.30046e-05
7.19354e-06
-7.55464e-05
4.54824e-06
-7.67355e-05
1.9939e-06
-7.65798e-05
-4.13054e-07
-7.5238e-05
-2.62983e-06
-7.28119e-05
-4.65721e-06
-6.94248e-05
-6.45691e-06
-6.5163e-05
-8.05403e-06
-6.01573e-05
-9.44364e-06
-5.44992e-05
-1.06559e-05
-4.82671e-05
-1.17047e-05
-4.15677e-05
-1.25875e-05
-3.44665e-05
-1.3315e-05
-2.70141e-05
-1.39374e-05
-1.92619e-05
-1.44733e-05
-1.12884e-05
-1.48829e-05
-3.15254e-06
-1.51687e-05
5.0709e-06
-1.5319e-05
1.33006e-05
-1.53476e-05
2.14505e-05
-1.52152e-05
2.94439e-05
-1.49386e-05
3.71972e-05
-1.45052e-05
4.46184e-05
-1.3913e-05
5.16052e-05
-1.31126e-05
5.80571e-05
-1.20943e-05
6.38563e-05
-1.08799e-05
6.88609e-05
-9.38547e-06
7.29146e-05
-7.60795e-06
7.58914e-05
-5.59062e-06
7.7661e-05
-3.31896e-06
7.80978e-05
-8.09705e-07
7.70579e-05
1.8597e-06
7.4524e-05
4.70762e-06
7.03632e-05
7.62671e-06
6.46525e-05
1.05374e-05
5.73115e-05
1.34211e-05
4.84669e-05
1.61363e-05
3.82133e-05
1.86038e-05
2.67331e-05
2.07331e-05
1.4267e-05
2.24138e-05
1.10648e-06
2.3564e-05
-1.2406e-05
2.408e-05
-2.59076e-05
2.39604e-05
-3.89179e-05
2.30121e-05
-5.08127e-05
2.11265e-05
-6.10203e-05
1.80855e-05
-6.88651e-05
1.39133e-05
-7.35819e-05
8.54712e-06
-7.44344e-05
2.06909e-06
-7.08028e-05
-5.2722e-06
-6.27786e-05
-1.26494e-05
-5.1025e-05
-1.88411e-05
-3.71825e-05
-2.25261e-05
-2.3496e-05
-2.27721e-05
-1.22282e-05
-1.94661e-05
-4.98874e-06
-1.36932e-05
-1.10474e-05
5.71671e-06
-1.59514e-05
1.4388e-05
-2.15007e-05
2.79427e-05
-3.20099e-05
4.47849e-05
-3.84723e-05
6.24017e-05
-3.89336e-05
7.79362e-05
-3.32053e-05
8.90599e-05
-2.28876e-05
9.47834e-05
-1.04554e-05
9.51139e-05
1.88946e-06
9.07645e-05
1.28445e-05
8.26431e-05
2.17388e-05
7.17052e-05
2.84496e-05
5.88978e-05
3.30635e-05
4.48695e-05
3.59729e-05
3.02942e-05
3.73553e-05
1.56828e-05
3.745e-05
1.49011e-06
3.64509e-05
-1.19685e-05
3.44965e-05
-2.43699e-05
3.17793e-05
-3.5515e-05
2.85005e-05
-4.52447e-05
2.47905e-05
-5.34549e-05
2.07629e-05
-6.0092e-05
1.6535e-05
-6.51452e-05
1.22496e-05
-6.864e-05
8.04477e-06
-7.06666e-05
4.01991e-06
-7.1321e-05
2.4005e-07
-7.07173e-05
-3.23414e-06
-6.8996e-05
-6.37758e-06
-6.6258e-05
-9.19357e-06
-6.26205e-05
-1.1691e-05
-5.81928e-05
-1.38713e-05
-5.30866e-05
-1.57622e-05
-4.7384e-05
-1.74077e-05
-4.11448e-05
-1.88277e-05
-3.44578e-05
-2.0003e-05
-2.73759e-05
-2.10202e-05
-1.99738e-05
-2.18761e-05
-1.22846e-05
-2.2573e-05
-4.41692e-06
-2.30372e-05
3.54644e-06
-2.32829e-05
1.15105e-05
-2.33121e-05
1.93833e-05
-2.3089e-05
2.70703e-05
-2.2627e-05
3.44773e-05
-2.19133e-05
4.15224e-05
-2.09586e-05
4.81053e-05
-1.96957e-05
5.41094e-05
-1.80989e-05
5.941e-05
-1.6181e-05
6.38486e-05
-1.38242e-05
6.73296e-05
-1.10888e-05
6.96837e-05
-7.94435e-06
7.07845e-05
-4.41928e-06
7.05024e-05
-5.27284e-07
6.86719e-05
3.69049e-06
6.524e-05
8.14011e-06
6.01137e-05
1.27539e-05
5.32581e-05
1.73941e-05
4.47257e-05
2.19542e-05
3.45686e-05
2.62933e-05
2.28849e-05
3.0287e-05
9.86789e-06
3.37499e-05
-4.19583e-06
3.6478e-05
-1.90031e-05
3.83721e-05
-3.41965e-05
3.92732e-05
-4.933e-05
3.90928e-05
-6.38669e-05
3.75483e-05
-7.70738e-05
3.43339e-05
-8.82576e-05
2.92699e-05
-9.64848e-05
2.21402e-05
-0.000100749
1.28101e-05
-0.000100048
1.36819e-06
-9.37847e-05
-1.15351e-05
-8.19532e-05
-2.44819e-05
-6.56376e-05
-3.51584e-05
-4.71336e-05
-4.10294e-05
-2.94667e-05
-4.04388e-05
-1.52699e-05
-3.36644e-05
-6.0685e-06
-2.28937e-05
-1.71161e-05
5.80032e-06
-2.17555e-05
1.48427e-05
-3.05416e-05
2.98757e-05
-4.70423e-05
4.99433e-05
-5.85397e-05
7.20332e-05
-6.10234e-05
9.20343e-05
-5.32062e-05
0.000106479
-3.73322e-05
0.000113827
-1.78032e-05
0.000114587
1.12935e-06
0.000109726
1.77057e-05
0.000100569
3.08966e-05
8.84072e-05
4.06114e-05
7.41484e-05
4.73222e-05
5.87197e-05
5.14014e-05
4.27584e-05
5.33176e-05
2.68817e-05
5.33261e-05
1.14928e-05
5.1838e-05
-3.04985e-06
4.90379e-05
-1.6452e-05
4.51814e-05
-2.84776e-05
4.05273e-05
-3.89774e-05
3.52924e-05
-4.78395e-05
2.96268e-05
-5.50278e-05
2.3724e-05
-6.055e-05
1.77715e-05
-6.44602e-05
1.19544e-05
-6.68281e-05
6.38746e-06
-6.78087e-05
1.22149e-06
-6.75086e-05
-3.5335e-06
-6.6059e-05
-7.8271e-06
-6.35971e-05
-1.16561e-05
-6.0287e-05
-1.5002e-05
-5.6223e-05
-1.79358e-05
-5.14956e-05
-2.04895e-05
-4.61766e-05
-2.27263e-05
-4.03417e-05
-2.46622e-05
-3.40308e-05
-2.63134e-05
-2.72862e-05
-2.77649e-05
-2.01761e-05
-2.89863e-05
-1.27773e-05
-2.99722e-05
-5.14396e-06
-3.06712e-05
2.59966e-06
-3.10276e-05
1.0337e-05
-3.10506e-05
1.79748e-05
-3.07275e-05
2.54075e-05
-3.00599e-05
3.25731e-05
-2.90787e-05
3.93575e-05
-2.77428e-05
4.56696e-05
-2.60077e-05
5.14265e-05
-2.38557e-05
5.64664e-05
-2.12207e-05
6.06793e-05
-1.80366e-05
6.39126e-05
-1.43214e-05
6.60418e-05
-1.0073e-05
6.69068e-05
-5.28402e-06
6.63455e-05
3.41213e-08
6.42253e-05
5.81068e-06
6.03913e-05
1.19744e-05
5.47917e-05
1.83539e-05
4.73652e-05
2.48212e-05
3.8135e-05
3.11845e-05
2.71579e-05
3.72703e-05
1.45502e-05
4.28945e-05
4.96774e-07
4.78036e-05
-1.4744e-05
5.17196e-05
-3.08036e-05
5.44322e-05
-4.73208e-05
5.579e-05
-6.38043e-05
5.55756e-05
-7.97174e-05
5.34615e-05
-9.43886e-05
4.9006e-05
-0.000106881
4.17628e-05
-0.000116162
3.14196e-05
-0.000120891
1.75387e-05
-0.000119753
2.30472e-07
-0.000111753
-1.95344e-05
-9.6456e-05
-3.97802e-05
-7.54549e-05
-5.61593e-05
-5.23518e-05
-6.41317e-05
-3.14096e-05
-6.13825e-05
-1.57369e-05
-4.9337e-05
-6.1793e-06
-3.24513e-05
-2.32961e-05
5.12648e-06
-2.68839e-05
1.39209e-05
-3.93356e-05
3.11992e-05
-6.43199e-05
5.65091e-05
-8.38491e-05
8.48502e-05
-8.93641e-05
0.000109753
-7.81084e-05
0.000126622
-5.42015e-05
0.000134298
-2.54797e-05
0.000133689
1.73832e-06
0.000126658
2.47373e-05
0.00011497
4.25846e-05
0.000100374
5.52076e-05
8.39284e-05
6.37677e-05
6.65388e-05
6.879e-05
4.88863e-05
7.09711e-05
3.15087e-05
7.0704e-05
1.48205e-05
6.85278e-05
-8.28332e-07
6.46889e-05
-1.51376e-05
5.94921e-05
-2.79282e-05
5.33185e-05
-3.89814e-05
4.6345e-05
-4.82369e-05
3.88811e-05
-5.56682e-05
3.11548e-05
-6.13058e-05
2.34104e-05
-6.52169e-05
1.58674e-05
-6.75143e-05
8.68569e-06
-6.83814e-05
2.0883e-06
-6.7919e-05
-3.99683e-06
-6.63155e-05
-9.43157e-06
-6.37544e-05
-1.42178e-05
-6.0341e-05
-1.84155e-05
-5.62256e-05
-2.2051e-05
-5.15129e-05
-2.5202e-05
-4.62697e-05
-2.79697e-05
-4.0537e-05
-3.03957e-05
-3.43437e-05
-3.25075e-05
-2.77134e-05
-3.43959e-05
-2.06704e-05
-3.603e-05
-1.32944e-05
-3.73492e-05
-5.67787e-06
-3.82885e-05
2.08303e-06
-3.87884e-05
9.84546e-06
-3.88123e-05
1.75076e-05
-3.83889e-05
2.49718e-05
-3.75235e-05
3.21593e-05
-3.62658e-05
3.89994e-05
-3.45827e-05
4.54122e-05
-3.24206e-05
5.12814e-05
-2.97251e-05
5.64854e-05
-2.64248e-05
6.08933e-05
-2.24447e-05
6.43555e-05
-1.77839e-05
6.67151e-05
-1.24329e-05
6.78024e-05
-6.37183e-06
6.74379e-05
3.98097e-07
6.54064e-05
7.84184e-06
6.15559e-05
1.58248e-05
5.57966e-05
2.41137e-05
4.80665e-05
3.25518e-05
3.83615e-05
4.08899e-05
2.67371e-05
4.88948e-05
1.33012e-05
5.63308e-05
-1.74933e-06
6.2855e-05
-1.8154e-05
6.81253e-05
-3.55962e-05
7.18749e-05
-5.3697e-05
7.38906e-05
-7.20131e-05
7.38917e-05
-9.00142e-05
7.14634e-05
-0.000106982
6.59749e-05
-0.000122025
5.68049e-05
-0.000133848
4.3241e-05
-0.000140761
2.44517e-05
-0.000140948
4.17474e-07
-0.000132842
-2.76415e-05
-0.000115411
-5.72123e-05
-8.96413e-05
-8.19283e-05
-6.0071e-05
-9.37036e-05
-3.3274e-05
-8.81809e-05
-1.48492e-05
-6.77625e-05
-5.51566e-06
-4.17872e-05
-2.88129e-05
5.00317e-06
-3.1887e-05
1.75887e-05
-5.19208e-05
4.57151e-05
-9.24458e-05
8.53056e-05
-0.000123439
0.000123653
-0.000127712
0.000150089
-0.000104544
0.000162455
-6.65673e-05
0.000163762
-2.67866e-05
0.000157694
7.80517e-06
0.000145818
3.66132e-05
0.000129901
5.85024e-05
0.000111271
7.38372e-05
9.1497e-05
8.35427e-05
7.13227e-05
8.89639e-05
5.13432e-05
9.09526e-05
3.19841e-05
9.00638e-05
1.36899e-05
8.68223e-05
-3.30731e-06
8.16863e-05
-1.87123e-05
7.48966e-05
-3.23007e-05
6.69063e-05
-4.38933e-05
5.79374e-05
-5.34655e-05
4.84533e-05
-6.09849e-05
3.8674e-05
-6.65044e-05
2.89301e-05
-7.0158e-05
1.95211e-05
-7.20748e-05
1.06025e-05
-7.24238e-05
2.4374e-06
-7.14624e-05
-4.95806e-06
-6.9357e-05
-1.1537e-05
-6.62681e-05
-1.73073e-05
-6.24379e-05
-2.22472e-05
-5.79775e-05
-2.65131e-05
-5.2998e-05
-3.01833e-05
-4.75707e-05
-3.33984e-05
-4.17233e-05
-3.62441e-05
-3.54362e-05
-3.87949e-05
-2.8711e-05
-4.11214e-05
-2.15538e-05
-4.31871e-05
-1.40192e-05
-4.48839e-05
-6.20221e-06
-4.61058e-05
1.76312e-06
-4.67539e-05
9.7443e-06
-4.67935e-05
1.76337e-05
-4.62784e-05
2.53407e-05
-4.52307e-05
3.27989e-05
-4.37241e-05
3.99528e-05
-4.17367e-05
4.67359e-05
-3.92037e-05
5.30503e-05
-3.60396e-05
5.87822e-05
-3.21568e-05
6.37899e-05
-2.74523e-05
6.78862e-05
-2.18801e-05
7.08797e-05
-1.54264e-05
7.25892e-05
-8.08154e-06
7.27071e-05
2.79882e-07
7.10579e-05
9.49079e-06
6.74766e-05
1.94061e-05
6.17856e-05
2.98052e-05
5.38998e-05
4.04382e-05
4.37842e-05
5.10059e-05
3.14825e-05
6.11968e-05
1.71223e-05
7.06916e-05
8.75841e-07
7.91023e-05
-1.70017e-05
8.60035e-05
-3.62329e-05
9.11061e-05
-5.64094e-05
9.40669e-05
-7.7181e-05
9.46637e-05
-9.81103e-05
9.23935e-05
-0.000118584
8.64487e-05
-0.000137722
7.59416e-05
-0.000154067
5.95853e-05
-0.000166147
3.65325e-05
-0.000172526
6.79565e-06
-0.000171929
-2.82396e-05
-0.000160441
-6.87005e-05
-0.000133783
-0.000108587
-9.37185e-05
-0.00013377
-5.1055e-05
-0.000130845
-1.97731e-05
-9.90463e-05
-5.67992e-06
-5.58807e-05
-3.4493e-05
9.45844e-06
-4.13446e-05
3.98442e-05
-8.23061e-05
9.95468e-05
-0.000152148
0.000169122
-0.000193014
0.000222361
-0.000180951
0.000244007
-0.000126191
0.000236799
-5.93596e-05
0.000215097
-5.08411e-06
0.000192277
3.06253e-05
0.000169871
5.90186e-05
0.000146537
8.18362e-05
0.00012247
9.79041e-05
9.83139e-05
0.000107699
7.46051e-05
0.000112672
5.17601e-05
0.000113797
3.00411e-05
0.000111782
9.70942e-06
0.000107153
-8.88658e-06
0.000100282
-2.55663e-05
9.15764e-05
-4.0072e-05
8.14126e-05
-5.22792e-05
7.01452e-05
-6.21203e-05
5.82946e-05
-6.96209e-05
4.61747e-05
-7.48323e-05
3.41423e-05
-7.79643e-05
2.26534e-05
-7.92218e-05
1.18604e-05
-7.8815e-05
2.0308e-06
-7.7001e-05
-6.77153e-06
-7.40354e-05
-1.45017e-05
-7.02156e-05
-2.11264e-05
-6.56935e-05
-2.67688e-05
-6.06567e-05
-3.15495e-05
-5.52229e-05
-3.56168e-05
-4.94675e-05
-3.9154e-05
-4.33958e-05
-4.23162e-05
-3.69406e-05
-4.52508e-05
-3.0043e-05
-4.80201e-05
-2.26904e-05
-5.0541e-05
-1.49134e-05
-5.26624e-05
-6.80854e-06
-5.42118e-05
1.46974e-06
-5.50329e-05
9.76288e-06
-5.50868e-05
1.79757e-05
-5.4491e-05
2.60117e-05
-5.32662e-05
3.38486e-05
-5.15604e-05
4.1474e-05
-4.93617e-05
4.88346e-05
-4.65641e-05
5.58313e-05
-4.30362e-05
6.23748e-05
-3.87002e-05
6.82745e-05
-3.33518e-05
7.33339e-05
-2.69394e-05
7.73127e-05
-1.94053e-05
7.98955e-05
-1.06648e-05
8.08652e-05
-6.90287e-07
7.98969e-05
1.04587e-05
7.6786e-05
2.25172e-05
7.13131e-05
3.52787e-05
6.33516e-05
4.84002e-05
5.2839e-05
6.15187e-05
3.97871e-05
7.42489e-05
2.43344e-05
8.61446e-05
6.62914e-06
9.68078e-05
-1.30385e-05
0.000105671
-3.44073e-05
0.000112475
-5.72088e-05
0.000116868
-8.10031e-05
0.000118459
-0.000105604
0.000116995
-0.000130601
0.000111446
-0.00015548
0.00010082
-0.000179566
8.36727e-05
-0.000203213
6.01798e-05
-0.000228329
3.19109e-05
-0.000252865
-3.7037e-06
-0.000263245
-5.83187e-05
-0.000242779
-0.000129054
-0.000186943
-0.000189607
-0.000111697
-0.00020609
-4.5645e-05
-0.000165099
-1.05465e-05
-9.09793e-05
-4.50401e-05
2.22481e-05
-6.35921e-05
9.26605e-05
-0.000152719
0.000201061
-0.000260549
0.000305875
-0.000297828
0.000373536
-0.000248613
0.000389105
-0.000141759
0.000356395
-2.66496e-05
0.000299368
5.19428e-05
0.000243116
8.68778e-05
0.000199643
0.000102492
0.000164814
0.000116665
0.000133606
0.000129112
0.00010438
0.000136922
7.67368e-05
0.000140316
5.0652e-05
0.000139882
2.62138e-05
0.00013622
3.64439e-06
0.000129723
-1.68374e-05
0.000120764
-3.50082e-05
0.000109748
-5.05685e-05
9.69742e-05
-6.34297e-05
8.30074e-05
-7.34883e-05
6.83533e-05
-8.08087e-05
5.34949e-05
-8.55782e-05
3.89123e-05
-8.79405e-05
2.50164e-05
-8.8238e-05
1.21596e-05
-8.67305e-05
5.25245e-07
-8.3783e-05
-9.71701e-06
-7.97205e-05
-1.85626e-05
-7.48321e-05
-2.60137e-05
-6.93825e-05
-3.22178e-05
-6.36028e-05
-3.73292e-05
-5.76159e-05
-4.16041e-05
-5.14849e-05
-4.52858e-05
-4.51773e-05
-4.86247e-05
-3.85913e-05
-5.18382e-05
-3.15832e-05
-5.50293e-05
-2.40595e-05
-5.80658e-05
-1.59843e-05
-6.07387e-05
-7.51755e-06
-6.26796e-05
1.15912e-06
-6.37102e-05
9.83172e-06
-6.37597e-05
1.83304e-05
-6.29898e-05
2.6702e-05
-6.1638e-05
3.4947e-05
-5.98056e-05
4.30785e-05
-5.74934e-05
5.10941e-05
-5.45801e-05
5.89742e-05
-5.09165e-05
6.65263e-05
-4.62524e-05
7.36092e-05
-4.04345e-05
7.99369e-05
-3.32671e-05
8.51955e-05
-2.46638e-05
8.90537e-05
-1.45231e-05
9.11433e-05
-2.78e-06
9.11684e-05
1.04339e-05
8.87821e-05
2.49041e-05
8.36891e-05
4.03723e-05
7.57493e-05
5.63403e-05
6.48424e-05
7.24256e-05
5.0976e-05
8.81155e-05
3.42504e-05
0.00010287
1.48862e-05
0.000116172
-6.92933e-06
0.000127486
-3.08559e-05
0.000136401
-5.65383e-05
0.000142551
-8.37511e-05
0.000145672
-0.000112439
0.000145682
-0.000142696
0.000141702
-0.000174819
0.000132943
-0.000211232
0.000120087
-0.000257385
0.000106333
-0.000317567
9.20935e-05
-0.000379531
5.82621e-05
-0.000416724
-2.11253e-05
-0.000403325
-0.000142453
-0.000333358
-0.000259571
-0.000221521
-0.000317928
-0.00010322
-0.000283398
-2.49359e-05
-0.000169264
-6.99752e-05
4.78924e-05
-0.000111485
0.000170226
-0.000275053
0.000316333
-0.000406655
0.000434648
-0.000416144
0.000502919
-0.000316884
0.000514173
-0.000153013
0.000467901
1.96227e-05
0.000385099
0.000134745
0.000299029
0.000172947
0.000231151
0.000170371
0.000181808
0.000166008
0.000142927
0.000167996
0.000108672
0.000171176
7.71309e-05
0.000171858
4.78356e-05
0.000169179
2.04803e-05
0.000163576
-4.68111e-06
0.000154885
-2.73307e-05
0.000143414
-4.71033e-05
0.00012952
-6.38255e-05
0.000113697
-7.73296e-05
9.6512e-05
-8.75568e-05
7.85811e-05
-9.45815e-05
6.05204e-05
-9.86019e-05
4.29338e-05
-9.99169e-05
2.63321e-05
-9.88953e-05
1.11378e-05
-9.59516e-05
-2.41938e-06
-9.14781e-05
-1.41914e-05
-8.59175e-05
-2.41237e-05
-7.96555e-05
-3.22761e-05
-7.3045e-05
-3.88283e-05
-6.63518e-05
-4.4022e-05
-5.97442e-05
-4.82115e-05
-5.32636e-05
-5.17663e-05
-4.68148e-05
-5.50734e-05
-4.02338e-05
-5.84195e-05
-3.3263e-05
-6.20003e-05
-2.56339e-05
-6.56952e-05
-1.72887e-05
-6.90843e-05
-8.35234e-06
-7.16164e-05
8.09467e-07
-7.28723e-05
9.86676e-06
-7.28173e-05
1.86219e-05
-7.17454e-05
2.72016e-05
-7.02182e-05
3.57693e-05
-6.8374e-05
4.44242e-05
-6.6149e-05
5.32116e-05
-6.3368e-05
6.20797e-05
-5.97848e-05
7.09134e-05
-5.5086e-05
7.9443e-05
-4.8964e-05
8.73802e-05
-4.12042e-05
9.43068e-05
-3.15903e-05
9.97898e-05
-2.0006e-05
0.000103429
-6.41898e-06
0.000104786
9.078e-06
0.000103353
2.6337e-05
9.89132e-05
4.48132e-05
9.11269e-05
6.41271e-05
7.98499e-05
8.37032e-05
6.50695e-05
0.000102897
4.68899e-05
0.000121051
2.55727e-05
0.00013749
1.37921e-06
0.00015168
-2.52879e-05
0.000163068
-5.4085e-05
0.000171349
-8.48334e-05
0.000176421
-0.000117556
0.000178404
-0.000152821
0.000176967
-0.000193154
0.000173278
-0.000244535
0.000171468
-0.000314985
0.000176783
-0.000403704
0.000180812
-0.000489515
0.000144075
-0.000540497
2.9855e-05
-0.000532758
-0.000150192
-0.000463662
-0.000328665
-0.00034054
-0.000441051
-0.000186073
-0.000437864
-5.32175e-05
-0.000302121
-0.000123192
8.26905e-05
-0.000194176
0.000238483
-0.000430846
0.000381072
-0.000549245
0.000480159
-0.00051523
0.000532942
-0.000369668
0.000538202
-0.000158273
0.000495633
6.2192e-05
0.000417654
0.000212724
0.000328338
0.000262265
0.000250987
0.000247722
0.00019278
0.000224217
0.000148081
0.000212696
0.000110078
0.000209181
7.52926e-05
0.000206645
4.27182e-05
0.000201753
1.23323e-05
0.000193963
-1.55983e-05
0.000182816
-4.05551e-05
0.00016837
-6.22451e-05
0.00015121
-8.02602e-05
0.000131712
-9.44147e-05
0.000110667
-0.000104676
8.88416e-05
-0.000111177
6.7021e-05
-0.000114144
4.58987e-05
-0.000114027
2.62138e-05
-0.000111238
8.34849e-06
-0.000106374
-7.28425e-06
-9.99049e-05
-2.06605e-05
-9.24057e-05
-3.16227e-05
-8.43913e-05
-4.02902e-05
-7.6309e-05
-4.69104e-05
-6.8494e-05
-5.1837e-05
-6.11717e-05
-5.55338e-05
-5.439e-05
-5.85481e-05
-4.80181e-05
-6.14453e-05
-4.17039e-05
-6.47336e-05
-3.49975e-05
-6.87063e-05
-2.74256e-05
-7.32668e-05
-1.87951e-05
-7.77147e-05
-9.33084e-06
-8.10806e-05
3.77663e-07
-8.2581e-05
9.76482e-06
-8.22048e-05
1.86888e-05
-8.067e-05
2.73396e-05
-7.88695e-05
3.60519e-05
-7.70869e-05
4.5149e-05
-7.52466e-05
5.47257e-05
-7.29451e-05
6.48048e-05
-6.98642e-05
7.51921e-05
-6.54734e-05
8.55745e-05
-5.93464e-05
9.55271e-05
-5.11566e-05
0.000104587
-4.06501e-05
0.000112212
-2.76301e-05
0.000117839
-1.20449e-05
0.000120885
6.03185e-06
0.000120917
2.63062e-05
0.000117382
4.83486e-05
0.000109914
7.1596e-05
9.83235e-05
9.52946e-05
8.25727e-05
0.000118648
6.27763e-05
0.000140848
3.92195e-05
0.000161047
1.23292e-05
0.00017857
-1.74189e-05
0.000192817
-4.9511e-05
0.000203441
-8.35402e-05
0.000210449
-0.000119483
0.000214346
-0.00015857
0.000216053
-0.000204281
0.00021899
-0.000263667
0.000230852
-0.000341924
0.000255039
-0.000430258
0.000269146
-0.000507908
0.000221725
-0.000552224
7.41697e-05
-0.000549361
-0.000153054
-0.000498788
-0.000379241
-0.000400043
-0.000539797
-0.000254853
-0.000583055
-9.0309e-05
-0.000466663
-0.000213501
0.000109561
-0.000303737
0.000255988
-0.000577272
0.000357726
-0.000650983
0.000417225
-0.000574729
0.000447135
-0.000399579
0.00044815
-0.000159288
0.000422232
8.81107e-05
0.000371405
0.000263552
0.000307222
0.00032645
0.000243583
0.00031136
0.000190807
0.000276995
0.00014666
0.00025684
0.000107634
0.000248206
7.06336e-05
0.000243646
3.51375e-05
0.000237249
1.49602e-06
0.000227604
-2.95337e-05
0.000213846
-5.73365e-05
0.000196172
-8.11272e-05
0.000175
-0.000100544
0.000151129
-0.000115344
0.000125466
-0.000125485
9.8981e-05
-0.000131127
7.26639e-05
-0.000132643
4.7415e-05
-0.000130533
2.41049e-05
-0.000125431
3.24693e-06
-0.000117969
-1.47467e-05
-0.000108929
-2.97008e-05
-9.89484e-05
-4.16032e-05
-8.86619e-05
-5.05769e-05
-7.86847e-05
-5.68875e-05
-6.94574e-05
-6.10643e-05
-6.12812e-05
-6.37099e-05
-5.42271e-05
-6.5602e-05
-4.80973e-05
-6.7575e-05
-4.23513e-05
-7.04799e-05
-3.62211e-05
-7.48369e-05
-2.89956e-05
-8.04928e-05
-2.03568e-05
-8.63539e-05
-1.06186e-05
-9.08194e-05
-5.88393e-07
-9.26117e-05
8.95899e-06
-9.17528e-05
1.78908e-05
-8.96024e-05
2.6482e-05
-8.74614e-05
3.51914e-05
-8.57968e-05
4.46407e-05
-8.46964e-05
5.50729e-05
-8.33777e-05
6.65442e-05
-8.13356e-05
7.88637e-05
-7.77927e-05
9.15763e-05
-7.20586e-05
0.000104132
-6.37116e-05
0.000115913
-5.24306e-05
0.000126272
-3.79883e-05
0.000134535
-2.0307e-05
0.000139956
6.11305e-07
0.000141874
2.43882e-05
0.00013963
5.05924e-05
0.000132763
7.84627e-05
0.000120974
0.000107084
0.000104175
0.000135446
8.25312e-05
0.000162491
5.63847e-05
0.000187193
2.63221e-05
0.000208633
-6.90927e-06
0.000226048
-4.246e-05
0.000238991
-7.95623e-05
0.000247551
-0.000117567
0.00025235
-0.000157591
0.000256078
-0.000202184
0.000263581
-0.000255404
0.000284071
-0.00031701
0.000316645
-0.000377463
0.000329599
-0.00042449
0.000268751
-0.000447283
9.69607e-05
-0.000445764
-0.000154572
-0.000418331
-0.000406676
-0.000363443
-0.000594683
-0.000265824
-0.000680674
-0.000117203
-0.000615284
-0.000330704
0.000112402
-0.000416139
0.000212936
-0.000677806
0.000260938
-0.000698986
0.000280911
-0.000594702
0.000289521
-0.00040819
0.000289832
-0.000159598
0.000285106
9.28363e-05
0.00027081
0.000277847
0.000246428
0.000350832
0.000213387
0.000344398
0.000176473
0.00031391
0.000139704
0.000293609
0.000101897
0.000286014
6.38243e-05
0.000281719
2.52222e-05
0.000275851
-1.20938e-05
0.000264921
-4.68923e-05
0.000248645
-7.78633e-05
0.000227143
-0.000104147
0.000201283
-0.000125159
0.000172142
-0.000140567
0.000140874
-0.000150349
0.000108764
-0.000154742
7.70581e-05
-0.000154208
4.68811e-05
-0.000149437
1.93357e-05
-0.000141258
-4.93135e-06
-0.000130506
-2.54979e-05
-0.000118098
-4.21081e-05
-0.000104901
-5.48003e-05
-9.16951e-05
-6.37823e-05
-7.9239e-05
-6.93435e-05
-6.81844e-05
-7.21191e-05
-5.88778e-05
-7.30171e-05
-5.14833e-05
-7.29972e-05
-4.55826e-05
-7.34765e-05
-4.05904e-05
-7.5473e-05
-3.53718e-05
-8.00563e-05
-2.91456e-05
-8.67196e-05
-2.14653e-05
-9.40347e-05
-1.25749e-05
-9.97103e-05
-3.27624e-06
-0.000101911
5.70205e-06
-0.000100732
1.41214e-05
-9.80222e-05
2.24852e-05
-9.58255e-05
3.14371e-05
-9.4749e-05
4.14253e-05
-9.46849e-05
5.30664e-05
-9.5019e-05
6.63517e-05
-9.46209e-05
8.1049e-05
-9.249e-05
9.66813e-05
-8.76906e-05
0.00011255
-7.95798e-05
0.000127824
-6.77047e-05
0.000141744
-5.19078e-05
0.000153344
-3.19073e-05
0.000161796
-7.84111e-06
0.00016621
1.99742e-05
0.000165833
5.0968e-05
0.000159914
8.43818e-05
0.000148092
0.000118906
0.000130248
0.00015329
0.000106457
0.000186283
7.73047e-05
0.000216345
4.3489e-05
0.000242449
6.18569e-06
0.000263352
-3.33691e-05
0.000278546
-7.35264e-05
0.000287708
-0.000113142
0.000291966
-0.000151363
0.0002943
-0.000188448
0.000300667
-0.000223669
0.000319291
-0.000254572
0.000347548
-0.000275235
0.000350262
-0.000283304
0.000276819
-0.000282029
9.56874e-05
-0.000277672
-0.000158931
-0.000269311
-0.000415035
-0.000254522
-0.000609474
-0.000213214
-0.000721983
-0.000116831
-0.000711668
-0.000447536
9.10354e-05
-0.000507174
0.000138392
-0.000725163
0.00014324
-0.000703834
0.000132935
-0.000584397
0.000124623
-0.000399878
0.000126648
-0.000161623
0.000142433
7.70503e-05
0.000164476
0.000255804
0.000179154
0.000336154
0.000178234
0.000345319
0.000161634
0.000330509
0.000133177
0.000322067
9.77376e-05
0.000321455
5.70955e-05
0.000322361
1.49467e-05
0.000318
-2.70346e-05
0.000306904
-6.64425e-05
0.000288055
-0.000101424
0.000262125
-0.000130675
0.000230536
-0.000153389
0.000194857
-0.000169307
0.000156792
-0.000178485
0.000117941
-0.000181128
7.97007e-05
-0.000177889
4.36422e-05
-0.000169646
1.10926e-05
-0.000157491
-1.70863e-05
-0.000142475
-4.05139e-05
-0.000125829
-5.87552e-05
-0.000108586
-7.20432e-05
-9.18121e-05
-8.05569e-05
-7.62423e-05
-8.49142e-05
-6.27432e-05
-8.56191e-05
-5.18774e-05
-8.38836e-05
-4.37141e-05
-8.11606e-05
-3.78817e-05
-7.9309e-05
-3.36007e-05
-7.97541e-05
-2.9992e-05
-8.36651e-05
-2.61673e-05
-9.05444e-05
-2.14615e-05
-9.87404e-05
-1.56404e-05
-0.000105531
-9.13626e-06
-0.000108415
-2.39989e-06
-0.000107468
4.7541e-06
-0.000105176
1.24967e-05
-0.000103568
2.15665e-05
-0.000103819
3.25912e-05
-0.00010571
4.58675e-05
-0.000108296
6.1665e-05
-0.000110419
7.94644e-05
-0.00011029
9.86263e-05
-0.000106853
0.000118451
-9.9404e-05
0.000138066
-8.73199e-05
0.000156402
-7.02437e-05
0.000172423
-4.79293e-05
0.000185023
-2.04407e-05
0.000192948
1.20482e-05
0.000194979
4.89371e-05
0.000190381
8.89796e-05
0.000178697
0.00013059
0.000159732
0.000172255
0.000133679
0.000212335
0.000100961
0.000249064
6.26369e-05
0.000280773
2.0203e-05
0.000305786
-2.43075e-05
0.000323057
-6.85681e-05
0.000331969
-0.000109768
0.000333166
-0.000145245
0.000329778
-0.000172797
0.000328218
-0.000188495
0.000334989
-0.000187793
0.000346847
-0.000170625
0.000333093
-0.000143848
0.00025004
-0.000121069
7.29085e-05
-0.000113501
-0.000166502
-0.000119992
-0.000408543
-0.00013231
-0.000597158
-0.00013212
-0.000722175
-9.09766e-05
-0.000752811
-0.000538513
6.08361e-05
-0.00056801
6.97764e-05
-0.000734103
4.91788e-05
-0.000683236
2.22508e-05
-0.000557469
5.83806e-06
-0.000383465
1.33142e-05
-0.000169099
4.67626e-05
4.36007e-05
9.54988e-05
0.000207072
0.000137849
0.000293801
0.000159875
0.000323295
0.00015638
0.000334003
0.000134684
0.000343764
9.90344e-05
0.000357107
5.5727e-05
0.000365669
7.83478e-06
0.000365893
-4.03694e-05
0.000355109
-8.57963e-05
0.000333483
-0.00012572
0.00030205
-0.000158594
0.00026341
-0.000183482
0.000219744
-0.000200085
0.000173395
-0.000208515
0.000126371
-0.00020918
8.0365e-05
-0.000202607
3.70695e-05
-0.000189846
-1.6686e-06
-0.000172445
-3.44874e-05
-0.000151916
-6.10427e-05
-0.00012963
-8.1042e-05
-0.000107273
-9.44003e-05
-8.55927e-05
-0.000102237
-6.59963e-05
-0.00010451
-4.94769e-05
-0.000102138
-3.63244e-05
-9.70354e-05
-2.70537e-05
-9.0431e-05
-2.13417e-05
-8.50208e-05
-1.84474e-05
-8.26485e-05
-1.79733e-05
-8.41393e-05
-1.87882e-05
-8.97297e-05
-1.96278e-05
-9.79009e-05
-1.95009e-05
-0.000105658
-1.83408e-05
-0.000109575
-1.62461e-05
-0.000109563
-1.26306e-05
-0.000108792
-6.47239e-06
-0.000109726
2.71534e-06
-0.000113007
1.51512e-05
-0.000118146
3.09176e-05
-0.000124062
4.95371e-05
-0.000129039
7.10443e-05
-0.000131797
9.48281e-05
-0.000130637
0.000119808
-0.000124384
0.000144818
-0.000112331
0.000168845
-9.42705e-05
0.000190549
-6.96335e-05
0.000208396
-3.82868e-05
0.000220757
-3.12857e-07
0.000226243
4.3452e-05
0.000223497
9.17253e-05
0.000211951
0.000142137
0.000191443
0.000192764
0.000162258
0.00024152
0.000125052
0.00028627
8.09751e-05
0.000324851
3.19319e-05
0.00035483
-1.93351e-05
0.000374324
-6.92736e-05
0.000381908
-0.000114128
0.000378021
-0.000149906
0.000365556
-0.000171372
0.000349684
-0.000172455
0.000336073
-0.00014901
0.000323403
-0.00010474
0.000288823
-5.38097e-05
0.000199111
-1.48313e-05
3.39293e-05
-1.42754e-06
-0.000179905
-1.39755e-05
-0.000395994
-3.92981e-05
-0.000571834
-6.06091e-05
-0.000700867
-5.7137e-05
-0.000756285
-0.00059565
3.68614e-05
-0.000604871
2.81522e-05
-0.000725394
1.77269e-06
-0.000656858
-2.35594e-05
-0.000532137
-3.51066e-05
-0.000371917
-1.84354e-05
-0.000185768
2.71568e-05
-1.99442e-06
8.91709e-05
0.000145058
0.000143389
0.000239583
0.000172303
0.00029438
0.000174085
0.00033222
0.000151132
0.000366718
0.000111747
0.000396491
6.10099e-05
0.000416405
4.48632e-06
0.000422417
-5.29667e-05
0.000412563
-0.000106644
0.000387159
-0.000153571
0.000348977
-0.000191739
0.00030158
-0.000219738
0.000247744
-0.000237703
0.000191361
-0.000245331
0.000133999
-0.000243162
7.81959e-05
-0.000232028
2.59351e-05
-0.000213456
-2.02406e-05
-0.000189124
-5.88195e-05
-0.000161148
-8.90188e-05
-0.00013156
-0.000110631
-0.000101829
-0.000124131
-7.38805e-05
-0.000130184
-4.87927e-05
-0.000129597
-2.76067e-05
-0.000123324
-1.1372e-05
-0.00011327
1.53389e-07
-0.000101956
6.08242e-06
-9.09499e-05
6.38702e-06
-8.29531e-05
1.7906e-06
-7.95429e-05
-6.16529e-06
-8.17737e-05
-1.47946e-05
-8.92714e-05
-2.23579e-05
-9.80947e-05
-2.86596e-05
-0.000103273
-3.37228e-05
-0.000104499
-3.60006e-05
-0.000106514
-3.36374e-05
-0.00011209
-2.57709e-05
-0.000120874
-1.24317e-05
-0.000131485
5.88616e-06
-0.00014238
2.8959e-05
-0.000152112
5.60375e-05
-0.000158876
8.61136e-05
-0.000160713
0.000118189
-0.000156459
0.00015104
-0.000145181
0.00018305
-0.00012628
0.000212671
-9.92544e-05
0.000237882
-6.34974e-05
0.000256571
-1.90009e-05
0.000266373
3.36504e-05
0.000266034
9.20646e-05
0.000254432