/*--------------------------------*- C++ -*----------------------------------*\
| =========                 |                                                 |
| \\      /  F ield         | OpenFOAM: The Open Source CFD Toolbox           |
|  \\    /   O peration     | Version:  2412                                  |
|   \\  /    A nd           | Website:  www.openfoam.com                      |
|    \\/     M anipulation  |                                                 |
\*---------------------------------------------------------------------------*/
FoamFile
{
    version     2.0;
    format      ascii;
    arch        "LSB;label=32;scalar=64";
    class       volScalarField;
    location    "1.85";
    object      p_rgh;
}
// * * * * * * * * * * * * * * * * * * * * * * * * * * * * * * * * * * * * * //

dimensions      [1 -1 -2 0 0 0 0];

internalField   nonuniform List<scalar> 
6400
(
9738.56
9739.2
9740.4
9742.23
9744.71
9747.89
9751.8
9756.48
9761.95
9768.22
9775.29
9783.13
9791.68
9800.85
9810.55
9820.62
9830.91
9841.24
9851.43
9861.29
9870.64
9879.3
9887.13
9893.99
9899.8
9904.49
9908.05
9910.49
9911.86
9912.26
9911.8
9910.63
9908.89
9906.74
9904.38
9901.95
9899.63
9897.56
9895.85
9894.59
9893.85
9893.64
9893.94
9894.72
9895.88
9897.32
9898.88
9900.41
9901.77
9902.78
9903.28
9903.11
9902.15
9900.28
9897.42
9893.54
9888.63
9882.71
9875.86
9868.16
9859.76
9850.78
9841.41
9831.82
9822.19
9812.68
9803.44
9794.64
9786.39
9778.77
9771.83
9765.64
9760.19
9755.5
9751.55
9748.32
9745.78
9743.91
9742.67
9742.01
9737.81
9738.46
9739.64
9741.45
9743.91
9747.07
9750.97
9755.64
9761.11
9767.4
9774.52
9782.41
9791.05
9800.33
9810.15
9820.37
9830.83
9841.35
9851.72
9861.77
9871.29
9880.1
9888.05
9895.01
9900.88
9905.59
9909.14
9911.53
9912.82
9913.11
9912.51
9911.18
9909.27
9906.96
9904.43
9901.86
9899.42
9897.26
9895.43
9894.13
9893.38
9893.18
9893.53
9894.37
9895.63
9897.18
9898.89
9900.59
9902.11
9903.29
9903.93
9903.89
9903.03
9901.23
9898.42
9894.55
9889.6
9883.62
9876.67
9868.85
9860.29
9851.15
9841.61
9831.84
9822.04
9812.37
9803.01
9794.1
9785.76
9778.06
9771.08
9764.85
9759.39
9754.7
9750.75
9747.53
9745.01
9743.15
9741.92
9741.27
9736.34
9736.97
9738.13
9739.89
9742.31
9745.42
9749.28
9753.93
9759.41
9765.74
9772.93
9780.96
9789.77
9799.28
9809.38
9819.91
9830.72
9841.6
9852.35
9862.76
9872.61
9881.73
9889.93
9897.07
9903.06
9907.82
9911.34
9913.63
9914.76
9914.82
9913.94
9912.29
9910.05
9907.39
9904.51
9901.62
9898.88
9896.47
9894.47
9893.06
9892.25
9892.06
9892.54
9893.56
9895.05
9896.88
9898.9
9900.93
9902.8
9904.29
9905.24
9905.47
9904.82
9903.17
9900.44
9896.58
9891.58
9885.47
9878.32
9870.24
9861.39
9851.92
9842.03
9831.92
9821.78
9811.79
9802.13
9793
9784.47
9776.63
9769.54
9763.25
9757.76
9753.07
9749.15
9745.96
9743.47
9741.64
9740.44
9739.79
9734.14
9734.75
9735.85
9737.55
9739.88
9742.92
9746.71
9751.32
9756.8
9763.19
9770.49
9778.7
9787.78
9797.64
9808.15
9819.18
9830.52
9841.97
9853.3
9864.27
9874.65
9884.22
9892.81
9900.25
9906.42
9911.25
9914.72
9916.86
9917.72
9917.43
9916.12
9913.99
9911.21
9908.01
9904.61
9901.22
9898.05
9895.27
9893.03
9891.44
9890.57
9890.45
9891.03
9892.29
9894.13
9896.38
9898.89
9901.44
9903.82
9905.83
9907.25
9907.88
9907.57
9906.16
9903.56
9899.72
9894.62
9888.31
9880.85
9872.39
9863.07
9853.09
9842.67
9832.01
9821.35
9810.89
9800.79
9791.3
9782.47
9774.41
9767.18
9760.8
9755.28
9750.6
9746.71
9743.57
9741.14
9739.37
9738.21
9737.57
9731.21
9731.79
9732.82
9734.41
9736.63
9739.54
9743.23
9747.76
9753.22
9759.66
9767.11
9775.56
9784.99
9795.31
9806.4
9818.1
9830.19
9842.43
9854.57
9866.33
9877.44
9887.67
9896.8
9904.63
9911.06
9915.99
9919.4
9921.32
9921.82
9921.03
9919.12
9916.29
9912.77
9908.82
9904.68
9900.6
9896.82
9893.53
9890.9
9889.06
9888.09
9888.02
9888.83
9890.46
9892.78
9895.63
9898.81
9902.09
9905.21
9907.93
9910.01
9911.23
9911.37
9910.3
9907.89
9904.07
9898.84
9892.24
9884.36
9875.35
9865.38
9854.69
9843.51
9832.1
9820.71
9809.6
9798.98
9788.93
9779.69
9771.34
9763.92
9757.44
9751.89
9747.24
9743.42
9740.37
9738.03
9736.34
9735.24
9734.62
9727.58
9728.13
9729.05
9730.49
9732.53
9735.25
9738.77
9743.19
9748.59
9755.06
9762.66
9771.4
9781.27
9792.19
9804.03
9816.6
9829.67
9842.97
9856.18
9868.98
9881.08
9892.17
9902.01
9910.39
9917.15
9922.21
9925.53
9927.15
9927.16
9925.71
9923
9919.26
9914.76
9909.8
9904.68
9899.69
9895.08
9891.12
9887.98
9885.82
9884.72
9884.73
9885.82
9887.92
9890.89
9894.54
9898.62
9902.86
9906.97
9910.65
9913.61
9915.6
9916.36
9915.73
9913.56
9909.79
9904.39
9897.41
9888.97
9879.22
9868.39
9856.74
9844.55
9832.13
9819.79
9807.79
9796.38
9785.72
9776
9767.29
9759.66
9753.08
9747.53
9742.94
9739.23
9736.32
9734.12
9732.55
9731.54
9730.95
9723.27
9723.77
9724.54
9725.76
9727.55
9730.02
9733.28
9737.5
9742.78
9749.25
9756.99
9766.06
9776.45
9788.1
9800.87
9814.56
9828.89
9843.53
9858.13
9872.29
9885.65
9897.86
9908.62
9917.69
9924.88
9930.09
9933.3
9934.54
9933.93
9931.63
9927.87
9922.94
9917.19
9910.93
9904.55
9898.38
9892.73
9887.88
9884.08
9881.49
9880.23
9880.34
9881.8
9884.51
9888.33
9893
9898.24
9903.73
9909.12
9914.05
9918.16
9921.14
9922.7
9922.65
9920.8
9917.08
9911.46
9903.99
9894.82
9884.13
9872.17
9859.28
9845.79
9832.06
9818.47
9805.35
9792.96
9781.53
9771.22
9762.13
9754.26
9747.61
9742.1
9737.63
9734.11
9731.41
9729.41
9728.02
9727.12
9726.58
9718.33
9718.76
9719.32
9720.25
9721.69
9723.78
9726.68
9730.58
9735.65
9742.04
9749.9
9759.31
9770.29
9782.81
9796.73
9811.8
9827.72
9844.07
9860.43
9876.33
9891.3
9904.92
9916.85
9926.78
9934.51
9939.92
9942.98
9943.73
9942.31
9938.92
9933.84
9927.43
9920.07
9912.18
9904.18
9896.51
9889.54
9883.59
9878.96
9875.84
9874.36
9874.61
9876.54
9880.03
9884.89
9890.86
9897.59
9904.68
9911.7
9918.21
9923.79
9928.03
9930.62
9931.29
9929.85
9926.2
9920.3
9912.23
9902.12
9890.23
9876.84
9862.36
9847.19
9831.81
9816.64
9802.1
9788.53
9776.16
9765.17
9755.64
9747.56
9740.87
9735.48
9731.24
9728
9725.6
9723.89
9722.75
9722.03
9721.54
9712.82
9713.15
9713.44
9713.96
9714.92
9716.48
9718.87
9722.3
9727.01
9733.22
9741.11
9750.84
9762.49
9776.02
9791.31
9808.1
9825.99
9844.51
9863.1
9881.18
9898.18
9913.59
9926.97
9937.98
9946.37
9952.02
9954.88
9955.01
9952.58
9947.82
9941.09
9932.81
9923.44
9913.49
9903.48
9893.93
9885.29
9877.97
9872.31
9868.55
9866.76
9867.18
9869.68
9874.14
9880.31
9887.95
9896.56
9905.67
9914.74
9923.25
9930.67
9936.51
9940.38
9941.96
9941.04
9937.48
9931.25
9922.41
9911.15
9897.73
9882.53
9866.03
9848.75
9831.26
9814.11
9797.82
9782.79
9769.3
9757.55
9747.57
9739.32
9732.7
9727.54
9723.65
9720.83
9718.87
9717.57
9716.77
9716.3
9715.89
9706.8
9707.02
9706.94
9706.93
9707.24
9708.08
9709.74
9712.5
9716.65
9722.49
9730.3
9740.29
9752.61
9767.32
9784.26
9803.14
9823.5
9844.73
9866.13
9886.95
9906.5
9924.13
9939.33
9951.67
9960.87
9966.79
9969.4
9968.77
9965.06
9958.61
9949.82
9939.21
9927.33
9914.81
9902.29
9890.4
9879.7
9870.67
9863.72
9859.13
9857.04
9857.64
9860.84
9866.49
9874.26
9884.01
9894.99
9906.63
9918.29
9929.31
9939.01
9946.86
9952.32
9955.05
9954.77
9951.34
9944.69
9934.92
9922.21
9906.89
9889.42
9870.36
9850.4
9830.24
9810.61
9792.14
9775.35
9760.57
9747.98
9737.59
9729.28
9722.87
9718.12
9714.77
9712.56
9711.21
9710.48
9710.15
9710
9709.69
9700.38
9700.47
9699.91
9699.2
9698.64
9698.53
9699.19
9700.99
9704.31
9709.53
9717.03
9727.14
9740.13
9756.14
9775.03
9796.49
9819.93
9844.58
9869.51
9893.79
9916.52
9936.92
9954.35
9968.31
9978.5
9984.75
9987.02
9985.45
9980.16
9971.62
9960.29
9946.77
9931.77
9916.06
9900.43
9885.63
9872.38
9861.24
9852.71
9847.11
9844.65
9845.47
9849.54
9856.7
9866.69
9878.83
9892.7
9907.51
9922.42
9936.56
9949.13
9959.44
9966.89
9971.02
9971.55
9968.28
9961.15
9950.24
9935.75
9918.06
9897.72
9875.44
9852.06
9828.52
9805.75
9784.59
9765.68
9749.43
9736
9725.29
9717.09
9711.11
9707.02
9704.46
9703.11
9702.6
9702.64
9702.93
9703.21
9703.03
9693.66
9693.62
9692.45
9690.82
9689.13
9687.75
9687.09
9687.58
9689.7
9693.93
9700.78
9710.76
9724.3
9741.71
9762.92
9787.54
9814.87
9843.84
9873.26
9901.89
9928.6
9952.42
9972.58
9988.52
9999.88
10006.5
10008.4
10005.6
9998.37
9987.25
9972.78
9955.68
9936.81
9917.11
9897.62
9879.24
9862.86
9849.15
9838.69
9831.86
9828.9
9829.97
9835.07
9844.01
9856.42
9871.82
9889.38
9908.19
9927.18
9945.24
9961.37
9974.72
9984.6
9990.46
9991.98
9988.93
9981.24
9968.96
9952.3
9931.69
9907.77
9881.4
9853.66
9825.77
9799.01
9774.49
9753.07
9735.18
9720.95
9710.13
9702.34
9697.12
9694.02
9692.58
9692.4
9693.04
9694.1
9695.22
9696.04
9695.97
9686.8
9686.64
9684.68
9681.86
9678.71
9675.68
9673.27
9672.02
9672.47
9675.2
9680.91
9690.32
9704.16
9723
9746.9
9775.47
9807.72
9842.26
9877.41
9911.53
9943.19
9971.22
9994.71
10013
10025.7
10032.8
10034.1
10029.8
10020.3
10006.1
9987.74
9966.21
9942.53
9917.93
9893.65
9870.85
9850.59
9833.74
9820.92
9812.57
9808.97
9810.33
9816.66
9827.8
9843.38
9862.67
9884.78
9908.58
9932.69
9955.67
9976.22
9993.29
10006.1
10014.1
10016.8
10014.1
10005.7
9991.85
9972.57
9948.38
9920
9888.45
9855.09
9821.57
9789.65
9760.92
9736.47
9716.85
9702.02
9691.48
9684.54
9680.53
9678.85
9678.96
9680.36
9682.53
9684.92
9687.11
9688.61
9688.63
9679.83
9679.64
9676.71
9672.34
9667.29
9662.15
9657.52
9654.02
9652.21
9652.79
9656.59
9664.7
9678.31
9698.51
9725.56
9759.06
9797.72
9839.51
9882.06
9923.15
9960.96
9994.12
10021.6
10042.7
10057
10064.4
10065
10059
10046.7
10028.6
10005.6
9978.56
9948.84
9917.99
9887.73
9859.64
9834.78
9814.13
9798.43
9788.22
9783.83
9785.48
9793.28
9807
9826.22
9850.43
9878.21
9908.37
9939.01
9968.21
9994.25
10015.9
10032.2
10042.6
10046.8
10044.5
10035.6
10019.8
9997.47
9968.95
9935.05
9896.93
9856.27
9815.32
9776.62
9742.5
9714.48
9693.09
9678.17
9668.58
9663.18
9660.97
9661.22
9663.36
9666.82
9670.98
9675.15
9678.72
9681.03
9681.07
9672.3
9672.43
9668.67
9662.52
9655.07
9647.22
9639.79
9633.45
9628.71
9626.23
9627.03
9632.56
9644.69
9666.12
9696.84
9736.63
9783.78
9835.26
9887.49
9937.41
9982.82
10022.2
10054.5
10078.7
10094.8
10102.6
10102.2
10094.1
10078.5
10055.9
10027.2
9993.45
9956.38
9918.04
9880.35
9845.36
9814.62
9789.19
9769.9
9757.38
9751.99
9753.95
9763.53
9780.52
9804.58
9834.8
9869.72
9907.92
9946.74
9983.64
10016.4
10043.4
10063.8
10077.1
10083.1
10081.6
10072
10054.2
10028.2
9994.51
9953.87
9907.45
9857.22
9806.23
9758.39
9717.28
9685.02
9661.94
9648.15
9640.72
9637.83
9638.18
9640.95
9645.65
9651.76
9658.55
9665.06
9670.28
9673.2
9672.94
9665.46
9666.55
9661.78
9653.14
9642.55
9631.33
9620.53
9610.83
9602.42
9595.74
9591.92
9592.82
9600.61
9622.93
9657.76
9705.85
9764.79
9829.64
9894.72
9955.67
10010.2
10056.9
10094.7
10122.6
10140.3
10148.3
10146.9
10136.3
10116.9
10089
10053.2
10011
9964.28
9916
9868.93
9825.95
9788.5
9757.54
9733.98
9718.59
9712.01
9714.37
9725.9
9746.47
9775.85
9813.17
9856.69
9905.06
9954.93
10002.2
10043.6
10077.3
10102.3
10118.9
10126.7
10126.1
10116.1
10096.2
10066.3
10026.8
9978.22
9921.57
9858.64
9793.61
9732.81
9682.3
9645.22
9620.83
9610.95
9607.65
9608.72
9612.54
9618.4
9626.14
9635.54
9645.8
9655.53
9662.99
9666.26
9664.91
9659.47
9660.89
9656.12
9643.22
9628.19
9613.21
9599
9585.95
9573.23
9560.89
9550.58
9545.41
9545.13
9563.71
9601.45
9660.54
9736.61
9821.07
9903.89
9978.72
10044.1
10099.8
10144.6
10176.3
10195
10202.6
10200
10186.7
10163.1
10129.1
10084.9
10031.9
9972.89
9912.07
9853.62
9801.62
9756.61
9719.34
9690.56
9671.54
9663.67
9666.82
9680.52
9704.71
9739.87
9789.11
9843.89
9905.57
9967.86
10026.6
10078
10118.9
10148.8
10168.6
10178.5
10179.6
10170.4
10148.6
10113.6
10067.1
10009.2
9940.1
9859.89
9774.03
9693.77
9630.45
9589.6
9569.42
9566.2
9568.83
9575.7
9584.04
9593.22
9603.99
9617.02
9631.47
9645.84
9657.39
9659.41
9657.11
9641.3
9638.19
9646.94
9629.01
9607.06
9585.13
9566.81
9552
9535.19
9514.35
9492.15
9480.44
9486.82
9486.13
9525.26
9600.25
9702.38
9816.11
9922.68
10012.9
10088.8
10154.1
10207.5
10243.4
10261.7
10268.8
10264.2
10247.3
10219.3
10179
10125.6
10060.2
9985.27
9907.73
9834.16
9773.22
9720.31
9674.91
9638.53
9614.13
9604.51
9609.7
9628.42
9658.31
9693.8
9745.45
9809.81
9889.52
9974.14
10054.7
10120.9
10169.3
10204.5
10228.7
10240.7
10243.5
10236.3
10212.9
10172.6
10120.7
10054.4
9972.71
9870.47
9753.07
9641.11
9557.92
9513.4
9510.87
9504.68
9516.16
9533.41
9547.51
9558.77
9571.05
9588.52
9610.14
9631.93
9650.62
9638.55
9640.03
8477.9
9440.43
9651.63
9614.92
9578.2
9510.24
9430.96
9346.78
9246.2
9114.16
8898.47
8627.35
8459.79
8476.8
8663.57
8991.86
9348.01
9640.42
9893.64
10048
10135.9
10218.6
10289.5
10221.2
10121.7
10143.9
10294.3
10306.1
10280
10239.1
10177.4
10078.7
9965.11
9901.65
9830.46
9745.6
9657.22
9530.95
9383.01
9259.2
9190.95
9193.84
9265.32
9403.57
9570.56
9701.84
9790.57
9902.79
10011.1
10103.2
10178.7
10233.1
10270.5
10258.1
9958.96
9959.6
10077.7
10301
10114
10095.8
10102.7
10005.4
9825.85
9566.29
9189.59
8849.99
8659.27
8647.21
8822.09
9052.29
9208.2
9294
9358.06
9424.95
9502.26
9575.05
9615.16
9659.81
9462.99
8551.98
3300.67
4919.37
7228.05
6742.69
6028.02
5080.89
4484.87
4086.1
3752.42
3297.38
2260.55
1180.6
793.317
837.189
1281.77
2340.9
4287.3
6329.04
7131.04
7169.22
7021.29
7086.97
8745.37
10370.8
10382.8
10391.4
10402.7
10396.1
10366.2
10319.2
10250.5
10146.4
10008.8
9501.81
7789.03
6472.51
5214.44
4245
3557.21
3140.03
2948.21
2904.65
3047.55
3421.71
4048.67
4968.88
6708.45
9239.3
10016.7
10157.5
10255.1
10312.4
10349.4
10368.6
10321.6
10342.9
10368.5
9030.96
6916.54
6853.14
6889.18
7279.42
6740.29
4745.34
2534.69
1414.24
1045.07
1120.68
1681.66
2762.71
3590.95
3895.32
4089.44
4376.7
4880.2
5776.04
6699.06
7428.27
4990.43
3316.62
1723.93
460.254
996.43
310.608
13.0258
8.68858
5.7262
31.0109
49.8285
53.4675
65.7718
99.9107
246.133
491.876
491.089
398.938
592.383
2915.63
7136.88
8784.48
9020.87
9336.68
10104.7
10451.6
10491.3
10500.5
10493.5
10491
10468
10420.1
10346
7980.27
3503.37
1106.16
306.274
4.36047
2.35264
2.36059
2.39638
2.44896
2.49093
2.53038
2.57343
2.62307
2.7905
2.82791
170.091
910.428
3323.04
8122.35
10346.7
10418.2
10454.7
10468.2
10470
10471
10460.7
10341.5
9819.82
9220.52
8958.38
8062.27
4769.82
1130.71
548.927
537.602
493.873
204.86
97.2652
86.9185
80.4613
59.1881
8.84301
5.29563
7.17627
7.8218
307.286
1269.04
424.779
1676.12
2084.17
465.238
9.94661
7.78861
6.96353
4.99031
2.74089
4.82605
11.7573
14.3085
10.0518
1.75403
0.0832222
-0.69011
35.4779
365.311
591.735
551.333
565.386
504.072
563.233
1688.31
3918.86
6301.74
8104.14
9040.67
9293.16
9310.4
7487.26
4961.19
2357.5
701.763
15.694
2.39803
2.17884
2.21536
2.15921
2.18052
2.23649
2.30146
2.35862
2.40344
2.44451
2.49514
2.5814
2.68801
2.74917
3.16853
16.8071
913.639
3086.44
6052.47
8376.79
9890.85
9735.75
9076.93
7529.33
5203.19
2656.91
876.72
424.371
553.786
616.354
675.735
570.719
228.738
39.7468
20.4349
14.5799
11.07
6.67479
1.32765
1.06994
2.81116
4.46462
5.23129
4.63202
10.2132
402.643
1746.56
2145.28
435.652
3.11748
4.04528
4.06761
2.89261
1.56582
1.00904
6.30554
10.3899
2.17785
0.150273
-0.1946
-0.666473
-1.03221
-1.58193
-2.00978
-2.02701
-1.59238
-1.15741
-0.397428
0.281375
0.466605
0.34761
0.322636
3.83707
553.086
708.075
391.332
63.3359
1.85867
1.31649
2.7914
1.90398
1.8885
1.93673
1.94638
1.97846
2.03776
2.10675
2.17857
2.23327
2.27938
2.33254
2.38723
2.44104
2.32753
2.66298
2.0642
0.706995
1.89196
187.759
695.14
1033.53
669.478
-0.238467
-1.87353
-1.16656
-0.696831
-0.708542
-0.889167
-0.915085
-0.784541
-0.615972
-0.31505
0.417843
4.29631
6.67563
4.94882
1.45755
0.0271111
0.1198
0.589702
1.60641
2.665
3.12457
2.3734
1.96605
266.751
1016.94
19.3418
322.117
2.57557
2.57635
2.64724
2.15017
1.35312
0.893541
2.0548
3.19898
2.74334
0.277472
-0.000246356
-0.576745
-1.16093
-1.72551
-2.20497
-2.45133
-2.28022
-1.38998
-0.662831
-0.401363
-0.305297
-0.067536
0.277272
0.764118
0.808998
0.694149
0.642321
1.10408
1.22596
1.41159
1.71529
2.04955
2.12255
1.97696
1.82412
1.82406
1.87927
1.9386
2.01034
2.06708
2.10878
2.14951
2.17723
2.1902
2.14227
2.23749
1.85332
1.23197
1.06931
0.887142
0.76813
0.400758
-0.156019
-0.871472
-1.65409
-1.8986
-1.77703
-1.53463
-1.32315
-1.14263
-0.977342
-0.722374
-0.427811
5.7005
7.94499
5.10597
0.445858
-0.00915272
0.0266232
0.216947
0.579049
1.25651
1.81327
1.88165
1.55891
1.51862
110.909
2.75594
11.9482
75.6232
2.22313
2.08799
2.0196
1.71873
1.22583
0.818917
0.57731
0.46807
0.80223
4.14792
4.15784
-0.355205
-1.43993
-1.99177
-2.62153
-3.02255
-2.74832
-0.804109
0.0780139
0.838464
1.0083
0.531529
1.02193
0.864061
0.729587
0.829589
0.952347
1.40315
1.34204
1.36284
1.65963
2.13598
2.20414
2.25882
1.82712
1.685
1.73794
1.79649
1.85615
1.90712
1.93524
1.9548
1.97036
1.95916
1.9212
1.90095
1.72235
1.39582
1.26217
1.15786
0.960854
0.706522
0.265436
-1.0015
-1.89975
-2.50969
-2.64268
-2.43028
-2.02018
-1.57264
-1.28684
-0.890317
-0.417364
6.09474
8.06002
1.65287
0.188571
0.188166
0.333467
0.355035
0.587688
1.03557
1.40068
1.52861
1.52684
1.70791
27.9186
2.68074
8.96506
4.36218
1.71585
1.71417
1.62061
1.36904
1.01843
0.686954
0.433938
0.238229
0.737615
5.22902
4.901
4.38701
0.060763
-2.28921
-2.83652
-3.24268
-3.29733
-2.90257
-0.97693
0.808109
1.55361
2.1665
2.74237
3.19896
1.96706
0.919111
0.883174
1.0094
1.11327
1.21897
1.31487
1.36436
1.75386
1.74458
1.58093
1.56174
1.60921
1.65871
1.70547
1.74414
1.76262
1.76364
1.75425
1.7336
1.69681
1.62962
1.51834
1.36003
1.4925
2.11885
4.78035
4.54085
2.60479
-0.931056
-2.22347
-3.09439
-3.39419
-3.30815
-2.80382
-2.24407
-1.66658
-1.08403
0.603059
6.45669
4.99311
0.677171
0.424965
0.452405
0.926063
0.400612
0.500508
0.839144
1.13814
1.35666
1.48143
1.72807
2.24226
2.70354
63.2925
1.83703
1.62243
1.44818
1.32563
1.09898
0.821662
0.534406
0.274821
0.0126276
0.171356
4.37779
4.80757
4.34488
3.7879
1.16079
-2.95164
-3.44704
-3.45787
-3.15502
-2.68181
-2.02712
0.195833
2.13842
2.65422
3.12941
3.49655
1.70044
0.779997
0.907494
1.01258
1.10674
1.18788
1.24567
1.29502
1.34403
1.39223
1.43824
1.48057
1.52214
1.55866
1.58565
1.59561
1.58777
1.56888
1.5386
1.49164
1.42316
1.32625
1.21276
2.1826
6.86695
6.42751
4.88249
0.826602
-0.819249
-1.35513
-2.734
-3.51323
-3.79269
-3.34847
-2.65185
-1.88435
-1.2234
-0.0625986
6.32387
1.77367
0.841206
1.71389
3.82178
1.59741
0.173503
0.398197
0.674841
0.939781
1.18564
1.38785
1.79871
2.46997
2.96264
115.755
1.95818
1.60882
1.25716
1.11494
0.882397
0.647806
0.391903
0.131911
-0.153542
-0.40105
1.33222
4.85491
4.25663
3.72759
3.29062
1.76674
-3.54298
-3.45759
-3.1423
-2.62057
-1.78613
-0.465546
1.03344
2.6783
3.10267
2.23526
0.528314
0.678079
0.78771
0.895919
0.987198
1.06458
1.12734
1.18151
1.2307
1.27587
1.3169
1.35491
1.3899
1.41849
1.43673
1.4402
1.42711
1.40199
1.36479
1.3116
1.23871
1.14276
1.0307
1.84606
6.63038
6.80327
3.87397
2.55556
2.92309
5.04793
1.62346
-2.02453
-3.82258
-3.36232
-2.6635
-1.92185
-1.18368
2.87148
1.49745
1.12305
1.0803
7.39774
7.66476
2.42433
0.0754558
0.278658
0.518869
0.766798
1.04972
1.25448
1.8064
2.65826
3.07107
119.76
2.04261
1.43119
1.02914
0.923677
0.689563
0.487649
0.266286
0.0318356
-0.237541
-0.565771
-1.04121
0.785272
4.49766
3.95158
3.53653
3.33664
-1.18749
-3.20563
-2.86728
-2.3315
0.569483
1.83656
2.30674
2.76121
2.35824
0.0648563
0.327494
0.526795
0.671735
0.781801
0.873706
0.951236
1.01632
1.07243
1.12161
1.16485
1.20262
1.23595
1.26499
1.28697
1.29903
1.29808
1.28336
1.25323
1.21024
1.15189
1.07443
0.975243
0.900165
0.689725
1.52662
7.57403
7.69407
7.45739
6.80243
5.86953
5.36545
1.36477
-3.39444
-3.0249
-2.42038
-1.84122
4.84366
9.07868
3.22735
1.41116
7.07498
8.25941
8.11436
1.89739
-0.0819696
0.118251
0.332038
0.549986
0.821568
1.04115
1.60378
2.72135
10.6815
123.122
5.42072
1.02484
0.77943
0.6908
0.500573
0.336878
0.156778
-0.0336067
-0.252166
-0.535087
-0.918501
-1.36898
-0.497997
2.87452
4.25555
2.84215
-2.07716
-2.71841
-2.43838
-1.82784
1.43764
2.04256
2.44923
2.13678
-0.170434
-0.0116084
0.236061
0.426214
0.570613
0.676184
0.7691
0.84694
0.913227
0.969787
1.01837
1.05979
1.0946
1.12395
1.14789
1.1648
1.17287
1.17267
1.16094
1.12002
1.07303
1.01086
0.930131
0.827813
0.697316
0.529405
0.326874
4.76046
7.75179
7.88947
7.60073
7.03661
6.7383
2.39396
-1.26808
-2.02961
1.06146
6.669
9.11176
9.34846
9.51621
9.34031
8.93316
8.52922
4.43765
0.242902
-0.244267
-0.0636077
0.122423
0.303362
0.523483
0.671189
0.998669
7.92854
79.235
67.9371
8.73316
0.542818
0.528171
0.452458
0.319065
0.193604
0.0572594
-0.0822414
-0.238716
-0.434843
-0.705112
-1.05722
-1.44969
-1.57818
-1.01025
-1.62295
-2.169
-2.19895
-2.00072
-1.51149
-0.42489
1.48277
1.09283
-0.562569
-0.310565
-0.0473155
0.170786
0.343685
0.479219
0.58621
0.676509
0.753292
0.818734
0.874479
0.921771
0.961194
0.993216
1.01906
1.03894
1.05234
1.06655
1.12814
1.04657
0.99912
0.950993
0.887009
0.805216
0.702344
0.571698
0.403615
0.191158
0.219501
3.5083
5.48869
5.69704
8.25226
8.04184
7.85449
7.91625
8.24002
8.83577
9.19151
9.42984
9.6042
9.78539
9.88972
6.8822
2.08348
-0.471312
-0.398933
-0.367486
-0.231698
-0.0851649
0.0401431
0.201733
0.231261
0.245367
22.9741
80.47
35.7846
10.3695
0.227497
0.307867
0.25026
0.152652
0.0518658
-0.047212
-0.136957
-0.233215
-0.357007
-0.534855
-0.778183
-1.06719
-1.35565
-1.59841
-1.73925
-1.80186
-1.75517
-1.62644
-1.46612
-1.26614
-1.04148
-0.788653
-0.526537
-0.28081
-0.0610665
0.125523
0.278867
0.404159
0.507483
0.594843
0.669397
0.733011
0.787065
0.832489
0.869711
0.89906
0.921963
0.938433
0.949719
1.09672
1.07321
0.928729
0.89066
0.842259
0.778557
0.6981
0.598175
0.47337
0.316176
0.116641
-0.139804
-0.453132
-0.652085
-1.14556
0.109518
8.11424
8.66479
8.16361
6.51618
9.25788
9.5603
9.76393
8.24761
5.68489
2.12777
-0.395749
-0.875724
-0.747626
-0.60346
-0.466154
-0.371988
-0.273093
-0.200026
-0.128492
-0.180617
-0.298117
42.7781
81.725
40.2233
30.2432
0.152508
0.143516
0.090964
-0.00367131
-0.104801
-0.181854
-0.226421
-0.262899
-0.325408
-0.438751
-0.608431
-0.818838
-1.03874
-1.23177
-1.36938
-1.42587
-1.40714
-1.32688
-1.20067
-1.04137
-0.856884
-0.654026
-0.445659
-0.246264
-0.0652502
0.0930855
0.228507
0.343311
0.440668
0.523803
0.595042
0.65594
0.707619
0.750782
0.785738
0.812701
0.833135
0.847104
0.857087
1.08727
0.908035
0.825511
0.792664
0.745284
0.683509
0.606186
0.511378
0.395363
0.25559
0.0799288
-0.136016
-0.394386
-0.681752
-0.97902
-1.26916
-1.31465
1.97301
-0.559846
-1.26623
-0.458446
0.417586
-0.213915
-0.858738
-1.16468
-1.08924
-0.948023
-0.818452
-0.7038
-0.615092
-0.55407
-0.502452
-0.447058
-0.415236
-0.427861
-0.529925
4.34584
75.5741
16.7444
28.1235
31.0375
0.112465
0.0498435
-0.0295284
-0.172236
-0.320149
-0.406032
-0.40774
-0.370161
-0.358357
-0.410981
-0.527444
-0.683732
-0.851117
-0.996051
-1.10509
-1.15371
-1.14467
-1.08528
-0.985834
-0.85707
-0.707822
-0.545429
-0.378429
-0.216129
-0.0653138
0.0705722
0.19039
0.294624
0.384747
0.462558
0.529627
0.587131
0.635941
0.676588
0.709262
0.734127
0.75269
0.764503
0.779417
1.00839
0.804535
0.736487
0.704291
0.658766
0.600015
0.527027
0.438486
0.333124
0.207479
0.0570555
-0.121936
-0.331178
-0.563192
-0.804462
-1.04109
-1.25574
-1.42639
-1.51529
-1.54248
-1.52373
-1.46675
-1.36465
-1.23769
-1.09888
-0.957716
-0.827246
-0.728973
-0.677827
-0.672243
-0.677496
-0.66348
-0.625716
-0.598421
-0.638449
-0.782301
5.08883
77.8761
5.28187
11.1934
12.5141
0.214619
0.0359303
-0.129223
-0.393042
-0.663229
-0.821221
-0.799979
-0.655395
-0.514098
-0.471941
-0.525106
-0.627469
-0.749192
-0.859724
-0.928975
-0.960396
-0.950539
-0.90208
-0.821458
-0.716361
-0.593917
-0.460785
-0.323658
-0.18879
-0.0610606
0.0564121
0.162121
0.255829
0.338124
0.409964
0.472312
0.525979
0.571581
0.609518
0.639856
0.662782
0.679464
0.688939
0.931601
0.935955
0.701269
0.655999
0.624881
0.581736
0.526609
0.458734
0.37727
0.28111
0.168676
0.0381762
-0.11186
-0.281271
-0.465345
-0.655603
-0.842425
-1.01191
-1.14347
-1.22607
-1.26824
-1.27326
-1.24118
-1.17456
-1.08356
-0.973783
-0.860984
-0.767416
-0.736958
-0.787109
-0.886402
-0.933995
-0.915498
-0.84305
-0.760045
-0.746305
-0.83699
2.353
71.0489
5.49697
11.6547
37.1286
0.459857
0.0785114
-0.231234
-0.731461
-1.25899
-0.427544
2.294
1.65521
0.10274
-0.70021
-0.620924
-0.640117
-0.701812
-0.764532
-0.804955
-0.818265
-0.802417
-0.758314
-0.689725
-0.601849
-0.500073
-0.389592
-0.275382
-0.162002
-0.0532112
0.048366
0.14125
0.22487
0.29928
0.364888
0.422216
0.471778
0.513961
0.549041
0.576941
0.597951
0.612509
0.620027
1.00409
0.869619
0.606069
0.583695
0.553998
0.513518
0.462284
0.399779
0.325437
0.238562
0.138335
0.0240652
-0.104324
-0.245579
-0.396141
-0.550203
-0.70022
-0.836633
-0.948278
-1.02872
-1.07783
-1.09622
-1.08544
-1.04907
-0.99171
-0.923713
-0.875075
-0.849816
0.122583
-0.384295
-0.128784
-0.00863845
-1.39339
-1.17517
-0.930787
-0.765155
-0.720566
1.14956
18.0807
4.64349
12.6403
38.6587
0.772788
0.132912
-0.397352
-0.544336
0.174765
4.79022
5.11504
5.59961
6.62124
2.57267
-0.453889
-0.687604
-0.685854
-0.701904
-0.71261
-0.708197
-0.684796
-0.642018
-0.581616
-0.506738
-0.421061
-0.328358
-0.232338
-0.13641
-0.043431
0.0444683
0.125904
0.200133
0.2669
0.326275
0.378481
0.423808
0.462453
0.4946
0.519996
0.539083
0.551426
0.557867
0.948616
0.630954
0.538666
0.519369
0.491237
0.453477
0.406177
0.348997
0.281588
0.203624
0.114792
0.0149482
-0.0954749
-0.214974
-0.340663
-0.468291
-0.592222
-0.705597
-0.801716
-0.876648
-0.929093
-0.958882
-0.967671
-0.959555
-0.940547
-0.923963
-0.678383
2.08046
5.68969
4.93813
4.51637
4.28008
3.08469
-1.339
-1.16366
-0.748865
-0.544744
-0.37998
15.2054
2.59484
0.665236
18.4919
10.236
0.196599
-0.514015
-1.13549
-0.0672753
-0.711606
-1.5046
2.69393
6.03352
7.15328
1.51244
-0.710862
-0.670498
-0.648293
-0.634031
-0.615727
-0.586481
-0.54468
-0.490735
-0.426232
-0.353494
-0.275156
-0.193922
-0.112343
-0.0326287
0.0434718
0.11471
0.180299
0.23983
0.293161
0.340314
0.38141
0.416494
0.445695
0.4686
0.485884
0.496227
0.502165
0.900993
0.533136
0.48131
0.462481
0.436172
0.401011
0.357474
0.305399
0.244577
0.1749
0.0963756
0.00922248
-0.0858922
-0.187525
-0.293306
-0.399997
-0.503595
-0.599568
-0.683648
-0.753061
-0.806709
-0.844698
-0.869151
-0.886008
-0.902132
-0.919524
1.93
6.04486
5.01448
3.82961
0.609466
2.54376
2.83626
1.42088
-1.37767
-0.702336
-0.350143
-0.0767804
10.2096
1.26306
0.0824502
-0.00894549
15.8218
5.34164
-0.474327
-1.27337
-2.16308
-3.09931
-3.22115
-2.73556
4.57992
7.21379
2.76296
-0.672398
-0.625207
-0.585594
-0.556833
-0.530939
-0.499561
-0.460059
-0.412188
-0.356604
-0.294705
-0.228308
-0.15938
-0.0898461
-0.0214362
0.0444092
0.106582
0.16431
0.217112
0.264724
0.307023
0.343995
0.375583
0.401882
0.422386
0.438077
0.44656
0.453225
0.868689
0.483514
0.4305
0.412691
0.387425
0.355085
0.315306
0.268116
0.213448
0.151358
0.0820305
0.00589919
-0.0762583
-0.163155
-0.252867
-0.342933
-0.430439
-0.512314
-0.585809
-0.649073
-0.701454
-0.743318
-0.777249
-0.810425
-0.846222
-0.795112
3.9996
5.99634
4.27707
-3.08094
-3.72151
-2.08333
1.90453
0.20284
-1.43805
-0.566506
-0.0421471
4.31723
0.891981
-0.0100308
-0.0297861
-0.0275565
15.5876
15.565
3.10212
-0.689928
-1.42052
-1.98985
-2.28678
-1.91727
7.53704
7.74844
0.377412
-0.579973
-0.541458
-0.505393
-0.475711
-0.44952
-0.42009
-0.384771
-0.34322
-0.295744
-0.243231
-0.186973
-0.12844
-0.0691192
-0.0103932
0.0465308
0.100674
0.151309
0.197934
0.240214
0.27793
0.310964
0.339196
0.362673
0.380898
0.395101
0.401898
0.417706
0.835813
0.486589
0.385071
0.368479
0.344712
0.314974
0.278764
0.236156
0.187182
0.132026
0.070962
0.0045095
-0.0665254
-0.141025
-0.217419
-0.293814
-0.368086
-0.438077
-0.501944
-0.558399
-0.606986
-0.648186
-0.684434
-0.721679
-0.75881
-0.734695
3.51776
6.31864
2.87487
-2.78819
-3.40926
-3.45859
-2.97116
-2.284
-1.15052
-0.313616
4.36623
6.85368
0.273704
0.0831888
-0.177904
-0.213895
2.95709
15.2555
16.1519
5.43206
-0.144177
-0.602411
-0.754862
1.80096
11.5515
7.24714
-0.169382
-0.438002
-0.432092
-0.413341
-0.392638
-0.371644
-0.347091
-0.317335
-0.282292
-0.242284
-0.198008
-0.150465
-0.100808
-0.0502247
0.000155258
0.0493069
0.0963627
0.14065
0.181667
0.219039
0.252486
0.28181
0.306878
0.327646
0.343727
0.35624
0.361537
0.620842
0.80633
0.701857
0.343953
0.328666
0.306905
0.27979
0.247041
0.208763
0.165045
0.116155
0.0624515
0.00447297
-0.0570109
-0.120999
-0.186211
-0.251166
-0.314297
-0.374013
-0.428964
-0.478152
-0.521089
-0.558096
-0.590611
-0.621704
-0.648283
-0.651402
2.65906
7.08256
6.56754
-1.58145
-2.20775
-2.33523
-1.8529
-1.19748
-0.65543
4.67965
7.11514
5.18111
0.0975591
0.0591441
-0.281665
-0.324632
-0.440402
14.5598
16.7313
16.6071
12.5755
2.00996
4.78675
14.4211
13.4006
4.58072
-0.191053
-0.309738
-0.326135
-0.323856
-0.313891
-0.299961
-0.281314
-0.257483
-0.228718
-0.195476
-0.158418
-0.118387
-0.0763333
-0.0332386
0.00994128
0.0523262
0.0931495
0.131788
0.167752
0.200649
0.230173
0.256069
0.2782
0.296396
0.310492
0.320974
0.325222
0.78555
0.779073
0.772253
0.307296
0.292973
0.273335
0.248795
0.219314
0.185071
0.146205
0.102994
0.0558509
0.0053325
-0.0478841
-0.102908
-0.158687
-0.214005
-0.26763
-0.318369
-0.365166
-0.407112
-0.443598
-0.474669
-0.500656
-0.522108
-0.535896
-0.523241
0.996104
8.29308
8.6945
4.75813
-0.683488
-0.687099
-0.520482
3.68917
8.7688
9.47849
7.06578
0.0647549
0.011047
-0.000587129
-0.337576
-0.383489
-0.486071
2.98322
16.9906
17.2229
17.3419
17.0838
16.3546
15.3718
10.532
0.62492
-0.17122
-0.220257
-0.240185
-0.246419
-0.244637
-0.236904
-0.223697
-0.205298
-0.182166
-0.154859
-0.124032
-0.0904307
-0.0548692
-0.0181889
0.0187794
0.0552716
0.0906189
0.124252
0.155696
0.18455
0.210501
0.233271
0.252736
0.268586
0.280961
0.289356
0.293342
0.759575
0.755328
0.536694
0.274356
0.261326
0.243657
0.221564
0.195126
0.164574
0.130124
0.0920424
0.0507197
0.00672157
-0.0393423
-0.0866757
-0.134416
-0.181583
-0.227125
-0.270068
-0.309565
-0.344774
-0.374986
-0.399947
-0.419499
-0.433073
-0.43887
-0.43007
-0.186705
5.1276
9.58829
9.83628
8.2312
5.21273
8.79365
9.98348
10.0373
9.92125
1.86166
-0.109108
-0.0810002
-0.0704649
-0.353357
-0.391412
-0.479876
-0.552688
8.61468
17.3242
17.4148
17.6346
17.6133
9.91861
0.949776
-0.0559112
-0.121824
-0.153786
-0.17331
-0.183973
-0.18698
-0.1836
-0.174674
-0.16074
-0.142338
-0.120045
-0.094479
-0.0663125
-0.0362599
-0.00505595