/*--------------------------------*- C++ -*----------------------------------*\
| =========                 |                                                 |
| \\      /  F ield         | OpenFOAM: The Open Source CFD Toolbox           |
|  \\    /   O peration     | Version:  2412                                  |
|   \\  /    A nd           | Website:  www.openfoam.com                      |
|    \\/     M anipulation  |                                                 |
\*---------------------------------------------------------------------------*/
FoamFile
{
    version     2.0;
    format      ascii;
    arch        "LSB;label=32;scalar=64";
    class       volScalarField;
    location    "9.7";
    object      p;
}
// * * * * * * * * * * * * * * * * * * * * * * * * * * * * * * * * * * * * * //

dimensions      [1 -1 -2 0 0 0 0];

internalField   nonuniform List<scalar> 
6400
(
23762.3
24014.3
24482.4
24781.8
24524.2
23619.8
22521
22000.4
22621.5
24260
26040.1
26804.4
25865
23548.1
21127.2
20111.7
21295.5
24171.6
27129.3
28373.8
27031
23749.6
20390.3
18950.9
20360
23878.6
27495.1
29096.5
27720.4
24135.9
20402
18664.8
19908.7
23397.1
27120.4
28971.8
27950.5
24700
21095
19146
19871.3
22771.6
26173.5
28204.4
27826.1
25355.4
22219.2
20125.8
20135.3
22134.2
24964.3
27094.8
27446.1
25927.1
23425.8
21293.4
20619.3
21681.4
23844.2
25932.4
26865.2
26212.8
24390.2
22403
21295.6
21600.7
23083.7
24903.9
26091.6
26069.7
24935.4
23360.2
22186.3
21963
22687.2
23881.1
24932.2
25468.3
25528.1
25420.5
22464.7
22233.6
22455.7
23030.4
23626.8
23714.8
23037.1
21875.9
20951.2
20973.9
22128.8
23851.3
25098
24987
23409
21191.8
19661.1
19835
21747.8
24353.9
26109.8
25904.5
23766.8
20897.7
18981.7
19181.3
21424.7
24427.3
26442.1
26291.5
24062
21048.2
18986.6
19041.9
21145.1
24061.5
26127.9
26211
24329.5
21598.5
19559.5
19303.6
20891.4
23372.8
25361.3
25811.7
24563.4
22373
20454
19805.3
20697.9
22579
24411.6
25243.7
24696
23124.6
21396.5
20415.2
20653.1
21928.4
23529.6
24608.5
24627.3
23626.9
22180.7
21069.3
20857.8
21605.2
22859.6
23929.8
24272.6
23773.4
22770.6
21823.4
21382.6
21567.2
22178.5
22905.7
23539.3
24190
21659.6
20887.7
20593.3
20948.4
21912.1
22895.3
23134.3
22244.7
20586.2
19143
18934.6
20311.2
22614.7
24485.8
24680.2
22894.6
20054.7
17830.5
17636.5
19725
22959.5
25444.8
25657.6
23390.7
19918.8
17266.8
17008.5
19322.3
22875.1
25607.1
25943.9
23712.5
20222.7
17483.4
17031
19062.9
22366.4
25055
25656.5
23920.1
20899.3
18304.8
17529.4
18903.4
21576.3
24046.4
25007.1
24031.3
21742.6
19419
18280.5
18856.3
20752.5
22912.5
24201.7
23997.1
22479.6
20499.9
19106.6
18995.3
20163.9
21943.7
23376.7
23730.2
22873.2
21319.5
19924.3
19411
19990.7
21280.9
22553.2
23153
22842.9
21880
20812.7
20155
20151.1
20737.2
21634.8
22753.8
21027.4
20024.7
19186.9
18883.4
19533.3
20945.9
22271.6
22515.3
21249.9
19034.6
17188.8
16995.9
18823.4
21759.2
24065.9
24227
21945.7
18435.2
15763.7
15613.8
18213.5
22124.2
25052.9
25221
22455.8
18330.2
15248.7
15023.3
17796.4
21957.8
25099.1
25427.6
22797.3
18760.4
15634.2
15155.2
17510.9
21290.5
24343.6
25014
23036.8
19614.1
16676.2
15787.3
17318.8
20321.2
23114.9
24230.9
23174.4
20622.6
17995.1
16667.2
17258.8
19359.9
21802
23302.6
23131.1
21457.8
19222
17611.6
17435.9
18719.5
20722.4
22360.4
22792.3
21855.5
20121.2
18551.2
17959.7
18584.7
20001.2
21403.7
22072.9
21747.4
20704.7
19549.1
18875.4
18988.2
19751.9
20961
20102.3
19535.5
18545.6
17501.8
17171
18083.9
19919
21574.7
21843.9
20270.7
17593.1
15408.6
15205.4
17356.5
20753.1
23381.4
23538.4
20939.6
16996.4
14034.9
13899.2
16792.2
21088.5
24268.2
24419.7
21401.5
16949.7
13657.7
13442.1
16415.8
20837.6
24151.8
24485.7
21714.1
17483.4
14216.7
13711.1
16147.5
20059.2
23227.1
23948
21946.3
18444.7
15411.2
14449.2
15958.1
18997.2
21872.3
23078.8
22079.3
19521
16823.3
15395.7
15910.5
17999.4
20501.1
22099.4
22009.5
20357.6
18075.2
16381.1
16133
17392.5
19424.5
21120.2
21604
20691.3
18951.9
17360.2
16743.6
17344.9
18738.8
20120.4
20775.4
20450.3
19439.4
18376.8
17867.1
18092.3
18902
18453.7
18921.5
18460.8
17192.5
15803.7
15400.6
16572.9
18848.7
20865
21201.6
19363.1
16243.2
13695.1
13411.7
15801.7
19609.1
22582.4
22830.9
20035.5
15735.1
12461.5
12222.9
15258.1
19843.7
23294.9
23563.1
20465.4
15799.8
12279.3
11930.8
14917.9
19476.7
22977.7
23461.7
20741.2
16446
13031
12359.5
14687.5
18600.1
21882.3
22780.6
20933.2
17482.4
14364.2
13220.3
14543.7
17493.9
20427.6
21811.1
21011.5
18566.3
15833.9
14244.9
14562.4
16526.6
19039.7
20772.6
20861.3
19335.5
17065.9
15275.1
14880.3
16019.9
18012.7
19758
20347
19542.8
17870.1
16281.1
15608
16119.6
17424.7
18747.9
19390.6
19107.5
18199.7
17288.1
16848.8
16922.5
16125.1
17647
18209.2
17557.3
15817.6
14066.4
13611.9
15060.3
17775.1
20140.6
20539.2
18446.3
14907.7
12017.7
11656.5
14262.5
18443.6
21733.7
22074.1
19114
14502
10947.6
10601.9
13740.5
18564.9
22256.3
22649.2
19515.1
14687.8
10968.2
10475.7
13431.7
18077.2
21738.7
22385.6
19758.7
15445
11904.1
11054.4
13236.1
17109.9
20487.5
21573.3
19911.1
16543.4
13356.6
12024.5
13140
15976.6
18954.6
20516.4
19930
17615.5
14861.8
13115.9
13231.7
15059.7
17570.9
19427.7
19692
18298.7
16056
14184.3
13652.1
14669.4
16608.6
18384
19063.2
18365.1
16770.7
15205.4
14498.1
14934.1
16149.7
17396.5
17999.3
17730.8
16893.9
16032.8
15391.7
13725.8
15570.1
17029.5
17575.9
16589.7
14416.6
12355.7
11869.2
13571.1
16675
19343.2
19793.5
17486.9
13604.7
10439.3
10015.1
12784.6
17244.9
20769.2
21182.3
18117.8
13301.9
9559.43
9128.55
12306.6
17255.6
21089.5
21583
18475.9
13601
9780.49
9170.79
12037.4
16661.3
20387.8
21167.3
18683.3
14448.8
10872.6
9879.15
11877.8
15628.8
19017.9
20251.5
18796.6
15580.2
12401.3
10926.3
11827.4
14498.6
17452.1
19141.2
18759.3
16611.6
13898
12051.1
11987.4
13657.5
16112.3
18034.1
18440.6
17189.5
15021
13128.4
12500
13395.7
15242.3
16989.7
17712.3
17107.6
15618.5
14130.3
13443.4
13834.8
14952.5
16075.3
16565.5
16238.3
15419.8
14439.7
12079.9
13131.9
14708.9
16298.5
16822.8
15584.6
13053.4
10721.1
10196.8
12103
15524.8
18442.5
18946.6
16490.8
12359.9
8988.78
8500.26
11355.4
15982.3
19659.9
20147.4
17065.2
12168.6
8325.19
7807.65
10934.5
15881.2
19768.2
20362.5
17371.2
12573.2
8740.41
8016.36
10711.9
15197.3
18903.3
19807.4
17536
13485.9
9955.66
8833.53
10594.4
14131.9
17456.1
18814.1
17604.1
14613.9
11514.2
9928.9
10595.7
13042.4
15904.8
17680
17505.8
15569
12957.5
11058.2
10826.5
12307.7
14649.1
16582.1
17107.8
16018.2
13975
12117.4
11424.3
12190.3
13901.5
15566.5
16293.7
15778.1
14425.6
13066.2
12446.7
12810.6
13801.7
14732.1
15040.9
14671.3
13866.4
11639.4
11118.6
11830.5
13578.5
15442.8
16015.9
14581.1
11743
9177.41
8611.79
10666.8
14323.7
17428.8
17986.5
15449.6
11169.9
7665.99
7113.1
9977.46
14661.4
18414.6
18977.6
15958.5
11094.2
7228.48
6622.51
9618
14451.6
18315.4
19011.1
16210.3
11592.7
7819.9
6983.93
9443.57
13698.1
17316.3
18337.4
16330.4
12543.5
9121.14
7884.69
9371.28
12631.2
15833.4
17293.7
16349.1
13634.8
10667
9001.23
9428.36
11614.4
14337.1
16161.4
16186.9
14485.5
12020.8
10111.5
9730.44
11008.1
13195.5
15094.3
15713.2
14791.5
12908.8
11131.2
10404.7
11042.5
12590.9
14131.8
14829.5
14393.5
13197.5
12004.2
11482.9
11818.3
12646.3
13350.3
13549.7
13281.1
12085.7
10123.1
9440.98
10274.6
12415.9
14548.5
15150.7
13548.8
10476.2
7740.18
7139.36
9281
13074.9
16290.9
16894.9
14346.6
10026.6
6473.76
5865.36
8666.35
13295.5
17038.6
17667.9
14783.4
10060.9
6256.36
5572.25
8370.27
12988.9
16750.6
17535
14981.2
10634.1
6993.98
6062.99
8243.14
12190.9
15655.4
16771.1
15057.1
11593.8
8338.48
7016.43
8215.76
11153.1
14180.5
15707.9
15026.8
12618.8
9830.02
8124.91
8327.47
10234.9
12775.9
14604
14803.7
13345.4
11064.7
9192.73
8694.58
9768.9
11770.7
13589
14265
13504.5
11807.4
10152.1
9429
9951.4
11320.3
12702
13336.1
12964.9
11934.9
10929.7
10519.9
10823.3
11493.4
12060
12357.1
12451.7
10090.5
8336.24
7713.64
8849.77
11278.9
13565.3
14167.5
12459.7
9254.68
6427.63
5799.81
7957.98
11779
15019.9
15659.2
13172.3
8926.91
5415.34
4764.15
7429.96
11890.5
15534.4
16215.9
13533
9059.27
5400.65
4654.66
7197.47
11505.6
15086.7
15939.8
13678
9682.51
6246.2
5245.26
7115.92
10692.1
13939.1
15118.4
13711.4
10620
7588.26
6217.91
7131.64
9713.71
12516.4
14067.8
13634.6
11551.8
8986.14
7288.95
7293.79
8915.06
11235.9
13018.3
13357.8
12141.4
10077.3
8291.42
7714.9
8593.8
10383.6
12076.3
12770.1
12157.8
10664.8
9170.36
8487.52
8911.05
10090.4
11284.6
11826.3
11505.1
10642.7
9835.29
9549.54
9845.72
10418.9
11015.2
11734.1
10303.2
8476.57
6768.11
6251.4
7536.1
10089.9
12439.9
13043.4
11307
8080.1
5245.95
4601.38
6705.4
10441.4
13617.9
14278.8
11922.8
7864.25
4483.17
3804.41
6269.5
10455.3
13915
14632
12207.9
8078.25
4643.87
3855.59
6097.72
10014.3
13344.4
14242.4
12303.5
8724.32
5554.22
4512.46
6058.44
9215.08
12190.1
13398
12297.5
9609.83
6849.21
5470.99
6113.83
8323.12
10859.8
12390.5
12178.7
10426.9
8119.72
6477.9
6319.77
7658.37
9729.16
11418.4
11858.2
10873.6
9050.45
7395.38
6780.64
7478.47
9038.44
10566.9
11240.8
10759.6
9481.19
8177.17
7566.07
7907.81
8894.29
9883.45
10313.4
10030.7
9335.8
8736.87
8593.17
8887.48
9423.65
9580.6
9853.97
8985.85
7224.62
5460.55
4944.24
6260.82
8833.62
11176.3
11776.4
10080.3
6940.74
4189.67
3547.97
5534.89
9076.44
12096.4
12756.5
10590.3
6822.45
3660.01
2977.06
5190.19
9008.12
12202.8
12930.2
10805
7097.8
3959.56
3157.1
5072.44
8535.88
11552.4
12463.1
10858
7739.2
4888.66
3842.87
5068.81
7778.64
10436.7
11631.9
10819.1
8547.36
6095.41
4754.38
5156.82
6993.58
9233.26
10696
10666.7
9236.1
7212.71
5673.39
5395.81
6467.92
8268.85
9820.53
10316.5
9543.93
7975.77
6490.19
5878.37
6416.58
7738.87
9072.66
9691.87
9320.77
8258.28
7163.88
6648.61
6924.91
7721.98
8500.32
8811.46
8565.84
8042.44
7650.18
7601.16
7843.05
6549.22
8279.48
8764.22
7937.65
6060.78
4261.33
3756.38
5051
7538.77
9781.59
10354.8
8761.75
5824.51
3258.02
2648.99
4460.75
7697.13
10461.6
11089.4
9163.49
5786.43
2934.06
2279.87
4201.65
7566.69
10414.8
11117.1
9315.97
6098.28
3327.02
2549.17
4128.54
7090.85
9733.78
10614.4
9335.87
6706.79
4225.78
3222.77
4150.88
6401.62
8701.82
9834.18
9274.17
7416.31
5305.85
4053.9
4260.36
5737.78
7654.66
8997.85
9101.36
7971.07
6250.87
4862.69
4516.49
5347.32
6865.14
8236.5
8740.97
8153.66
6847.47
5565.49
4997.39
5401.75
6485.81
7602.06
8136.14
7853
7000.9
6125.2
5720.92
5945.11
6561.93
7137.17
7338.59
7135.71
6770.08
6514.49
6448.3
3728.06
5883.11
7271.95
7674.8
6730.57
4882.14
3187.61
2727.99
3927.39
6206.7
8249.81
8776.12
7355.83
4738.92
2454.82
1900.72
3474.17
6296.24
8713.82
9285.65
7652.76
4761.19
2300.75
1701.4
3293.21
6128.49
8558.48
9205.79
7750.69
5079.93
2736.57
2018.31
3257.16
5680.41
7898.68
8708.92
7744.79
5625.27
3555.95
2640.76
3298.07
5085.51
6993.47
8014.49
7668.61
6216.38
4474.99
3362.09
3418.71
4554.09
6126.77
7301.74
7488.75
6635.9
5234.34
4041.6
3674.74
4289.81
5515.24
6669.51
7139.96
6712.33
5670.84
4618.67
4127.72
4421.47
5271.24
6156.7
6584.95
6371.8
5720.08
5060.83
4770.87
4951.52
5403.51
5797.06
5906.1
5739.75
5477.67
5250.05
1980.65
3494.18
4889.88
6014.24
6269.07
5388.41
3746.28
2249.13
1836.25
2872.12
4845.15
6613.4
7079.96
5886.32
3676.46
1743.2
1256.93
2546.51
4880.69
6892.91
7395.43
6089.22
3740.16
1719.29
1190.22
2432.59
4698.8
6673.34
7246.51
6141.64
4039.6
2152.39
1517.24
2426.21
4304.58
6077.63
6789.56
6116.08
4498.46
2855.16
2059.46
2480.01
3822.18
5328.45
6204.29
6031.75
4960.06
3593.26
2653.31
2603.78
3426
4652.38
5627.68
5855.61
5250.34
4166.13
3195.17
2845.62
3273.49
4211.53
5130.07
5536.24
5242.81
4456.79
3643.19
3249.2
3453
4081.85
4739.45
5055.2
4898.5
4430.08
3971.14
3786.74
3929.26
4237.58
4476.65
4507.17
4363.67
4143.88
1371
1844.19
2576.92
3595.79
4482.91
4687.86
3957.2
2601.22
1383.15
1070.72
1934.83
3531.5
4930.98
5272.42
4302.89
2557.8
1059.03
704.787
1723.91
3530.26
5067.54
5437.72
4431.76
2645.37
1118.66
721.563
1654.1
3350.92
4830.24
5268.92
4462.34
2910.97
1505.85
1012.21
1653.48
3020.86
4335.23
4893.17
4440.8
3278.8
2064.46
1440.06
1697.07
2648.58
3758.92
4443.09
4370.96
3620.99
2616.22
1888.87
1801.75
2369.75
3267.56
4012.13
4220.57
3807.39
3019.02
2290.96
2007.72
2297.3
2972.02
3644.8
3951.68
3752.57
3196.6
2619.89
2341.87
2484.12
2917.39
3360.74
3562.56
3447.06
3137.82
2854.51
2760.96
2868.66
3054.05
3165.67
3143.46
3018.41
1205.62
1036.26
1095.63
1514.63
2205.4
2800.01
2895.62
2355.08
1440.15
681.846
560.546
1195.24
2243.58
3090.82
3218.62
2526.19
1404.77
511.29
376.667
1086.89
2228.87
3136.49
3285.77
2599.46
1485.21
588.418
413.364
1038.56
2085.97
2953.59
3165.64
2632.83
1683.05
857.166
598.755
1017.58
1850.3
2626.72
2936.26
2642.54
1936.71
1214.29
854.065
1022.34
1601.09
2267.05
2670.8
2617.76
2158.96
1551.96
1118.25
1074.69
1426.13
1971.22
2415.47
2529.79
2269.35
1790.67
1359.92
1204.73
1392.11
1799.17
2190.23
2354.09
2220.76
1891.03
1566.44
1425.64
1523.53
1771.97
2007.53
2098.32
2019.7
1853.67
1720.5
1694.31
1760.85
1842.04
1869.92
1830
605.383
489.837
406.396
406.663
531.679
727.076
872.772
866.26
695.825
454.407
286.012
299.653
496.9
766.256
948.18
929.986
717.896
435.188
247.53
266.598
481.292
765.362
953.855
938.719
732.502
458.115
272.798
279.014
466.555
723.099
903.257
910.399
748.888
516.297
342.757
318.956
449.15
654.26
820.765
862.834
765.871
589.449
430.59
370.61
434.879
582.974
733.744
809.396
774.635
652.826
511.305
424.313
434.686
532.819
663.265
755.95
763.446
685.677
568.581
477.224
459.286
519.979
620.787
703.616
724.46
677.434
595.591
528.633
512.208
548.645
608.966
654.251
660.666
632.347
594.731
574.471
580.646
600.046
611.633
604.461
-9.86622
-9.78416
-9.85579
-9.95221
-9.96117
-9.71511
-9.33685
-9.41086
-9.80565
-9.75308
-9.91153
-10.021
-9.98349
-9.65828
-9.1612
-9.26887
-9.80438
-9.76987
-9.95427
-10.0512
-9.99643
-9.7135
-9.26187
-9.32415
-9.82393
-9.82039
-9.94366
-10.0273
-9.99848
-9.83384
-9.51225
-9.47599
-9.81275
-9.894
-9.92878
-9.98664
-9.98113
-9.95401
-9.75813
-9.63351
-9.75351
-9.94632
-9.94459
-9.95783
-9.95435
-9.95838
-9.9031
-9.7434
-9.69776
-9.85049
-9.96004
-9.93624
-9.92334
-9.92101
-9.94931
-9.8064
-9.68519
-9.77741
-9.95371
-9.92432
-9.89757
-9.9001
-9.95588
-9.85502
-9.74093
-9.79789
-9.95613
-9.93578
-9.90557
-9.92031
-9.98226
-9.93103
-9.89177
-9.9399
-10.0103
-9.98875
-9.98751
-10.0141
-10.0151
-10.0217
-10.5454
-10.5456
-10.5458
-10.5459
-10.5458
-10.5456
-10.5453
-10.5452
-10.5453
-10.5456
-10.5459
-10.546
-10.5458
-10.5455
-10.5452
-10.5451
-10.5453
-10.5456
-10.5459
-10.546
-10.5458
-10.5455
-10.5452
-10.5451
-10.5453
-10.5456
-10.5459
-10.546
-10.5458
-10.5455
-10.5453
-10.5452
-10.5453
-10.5455
-10.5458
-10.5459
-10.5458
-10.5456
-10.5453
-10.5452
-10.5453
-10.5455
-10.5457
-10.5458
-10.5458
-10.5456
-10.5455
-10.5453
-10.5453
-10.5454
-10.5456
-10.5457
-10.5458
-10.5457
-10.5455
-10.5454
-10.5454
-10.5454
-10.5456
-10.5457
-10.5457
-10.5457
-10.5456
-10.5455
-10.5454
-10.5455
-10.5456
-10.5456
-10.5457
-10.5456
-10.5456
-10.5455
-10.5455
-10.5456
-10.5456
-10.5456
-10.5456
-10.5456
-10.5456
-10.5456
-11.036
-11.0361
-11.0361
-11.0362
-11.0362
-11.0361
-11.036
-11.036
-11.036
-11.0361
-11.0362
-11.0362
-11.0362
-11.0361
-11.036
-11.0359
-11.036
-11.0361
-11.0362
-11.0362
-11.0362
-11.0361
-11.036
-11.0359
-11.036
-11.0361
-11.0361
-11.0362
-11.0361
-11.0361
-11.036
-11.0359
-11.0359
-11.036
-11.0361
-11.0361
-11.0361
-11.0361
-11.036
-11.0359
-11.0359
-11.036
-11.0361
-11.0361
-11.0361
-11.0361
-11.036
-11.036
-11.036
-11.036
-11.036
-11.0361
-11.0361
-11.0361
-11.0361
-11.036
-11.036
-11.036
-11.036
-11.0361
-11.0361
-11.0361
-11.0361
-11.036
-11.036
-11.036
-11.0361
-11.0361
-11.0361
-11.0361
-11.0361
-11.0361
-11.0361
-11.0361
-11.0361
-11.0361
-11.0361
-11.0361
-11.0361
-11.0361
-11.5266
-11.5266
-11.5266
-11.5266
-11.5266
-11.5266
-11.5266
-11.5266
-11.5265
-11.5265
-11.5265
-11.5266
-11.5266
-11.5266
-11.5266
-11.5266
-11.5265
-11.5265
-11.5265
-11.5266
-11.5266
-11.5266
-11.5266
-11.5266
-11.5265
-11.5265
-11.5265
-11.5266
-11.5266
-11.5266
-11.5266
-11.5265
-11.5265
-11.5265
-11.5265
-11.5265
-11.5266
-11.5266
-11.5266
-11.5265
-11.5265
-11.5265
-11.5265
-11.5265
-11.5265
-11.5266
-11.5266
-11.5266
-11.5265
-11.5265
-11.5265
-11.5265
-11.5265
-11.5266
-11.5266
-11.5266
-11.5266
-11.5265
-11.5265
-11.5265
-11.5266
-11.5266
-11.5266
-11.5266
-11.5266
-11.5266
-11.5266
-11.5266
-11.5266
-11.5266
-11.5266
-11.5266
-11.5266
-11.5266
-11.5266
-11.5266
-11.5266
-11.5266
-11.5266
-11.5266
-12.0171
-12.0171
-12.0171
-12.0171
-12.0171
-12.0171
-12.0171
-12.0171
-12.0171
-12.0171
-12.0171
-12.0171
-12.0171
-12.0171
-12.0171
-12.0171
-12.0171
-12.0171
-12.017
-12.017
-12.0171
-12.0171
-12.0171
-12.0171
-12.0171
-12.017
-12.017
-12.017
-12.017
-12.0171
-12.0171
-12.0171
-12.017
-12.017
-12.017
-12.017
-12.017
-12.017
-12.017
-12.017
-12.017
-12.017
-12.017
-12.017
-12.017
-12.017
-12.017
-12.017
-12.017
-12.017
-12.017
-12.017
-12.017
-12.017
-12.0171
-12.0171
-12.0171
-12.0171
-12.0171
-12.0171
-12.0171
-12.0171
-12.0171
-12.0171
-12.0171
-12.0171
-12.0171
-12.0171
-12.0171
-12.0171
-12.0171
-12.0171
-12.0171
-12.0171
-12.0171
-12.0171
-12.0171
-12.0171
-12.0171
-12.0171
-12.5076
-12.5076
-12.5076
-12.5076
-12.5076
-12.5076
-12.5076
-12.5076
-12.5076
-12.5076
-12.5076
-12.5076
-12.5076
-12.5076
-12.5076
-12.5076
-12.5076
-12.5076
-12.5076
-12.5076
-12.5076
-12.5076
-12.5076
-12.5076
-12.5076
-12.5076
-12.5076
-12.5075
-12.5075
-12.5075
-12.5075
-12.5075
-12.5075
-12.5075
-12.5075
-12.5075
-12.5075
-12.5075
-12.5075
-12.5075
-12.5075
-12.5075
-12.5075
-12.5075
-12.5075
-12.5075
-12.5075
-12.5075
-12.5075
-12.5075
-12.5075
-12.5075
-12.5075
-12.5075
-12.5075
-12.5076
-12.5076
-12.5076
-12.5076
-12.5076
-12.5076
-12.5076
-12.5076
-12.5076
-12.5076
-12.5076
-12.5076
-12.5076
-12.5076
-12.5076
-12.5076
-12.5076
-12.5076
-12.5076
-12.5076
-12.5076
-12.5076
-12.5076
-12.5076
-12.5076
-12.9981
-12.9981
-12.9981
-12.9981
-12.9981
-12.9981
-12.9981
-12.9981
-12.9981
-12.9981
-12.9981
-12.9981
-12.9981
-12.9981
-12.9981
-12.9981
-12.9981
-12.9981
-12.9981
-12.9981
-12.9981
-12.9981
-12.9981
-12.9981
-12.9981
-12.9981
-12.9981
-12.9981
-12.998
-12.998
-12.998
-12.998
-12.998
-12.998
-12.998
-12.998
-12.998
-12.998
-12.998
-12.998
-12.998
-12.998
-12.998
-12.998
-12.998
-12.998
-12.998
-12.998
-12.998
-12.998
-12.998
-12.998
-12.998
-12.998
-12.998
-12.9981
-12.9981
-12.9981
-12.9981
-12.9981
-12.9981
-12.9981
-12.9981
-12.9981
-12.9981
-12.9981
-12.9981
-12.9981
-12.9981
-12.9981
-12.9981
-12.9981
-12.9981
-12.9981
-12.9981
-12.9981
-12.9981
-12.9981
-12.9981
-12.9981
-13.4886
-13.4886
-13.4886
-13.4886
-13.4886
-13.4886
-13.4886
-13.4886
-13.4886
-13.4886
-13.4886
-13.4886
-13.4886
-13.4886
-13.4886
-13.4886
-13.4886
-13.4886
-13.4886
-13.4886
-13.4886
-13.4886
-13.4886
-13.4886
-13.4886
-13.4886
-13.4885
-13.4885
-13.4885
-13.4885
-13.4885
-13.4885
-13.4885
-13.4885
-13.4885
-13.4885
-13.4885
-13.4885
-13.4885
-13.4885
-13.4885
-13.4885
-13.4885
-13.4885
-13.4885
-13.4885
-13.4885
-13.4885
-13.4885
-13.4885
-13.4885
-13.4885
-13.4885
-13.4885
-13.4886
-13.4886
-13.4886
-13.4886
-13.4886
-13.4886
-13.4886
-13.4886
-13.4886
-13.4886
-13.4886
-13.4886
-13.4886
-13.4886
-13.4886
-13.4886
-13.4886
-13.4886
-13.4886
-13.4886
-13.4886
-13.4886
-13.4886
-13.4886
-13.4886
-13.4886
-13.9791
-13.9791
-13.9791
-13.9791
-13.9791
-13.9791
-13.9791
-13.9791
-13.9791
-13.9791
-13.9791
-13.9791
-13.9791
-13.9791
-13.9791
-13.9791
-13.9791
-13.9791
-13.9791
-13.9791
-13.9791
-13.9791
-13.9791
-13.9791
-13.9791
-13.9791
-13.9791
-13.979
-13.979
-13.979
-13.979
-13.979
-13.979
-13.979
-13.979
-13.979
-13.979
-13.979
-13.979
-13.979
-13.979
-13.979
-13.979
-13.979
-13.979
-13.979
-13.979
-13.979
-13.979
-13.979
-13.979
-13.979
-13.979
-13.979
-13.9791
-13.9791
-13.9791
-13.9791
-13.9791
-13.9791
-13.9791
-13.9791
-13.9791
-13.9791
-13.9791
-13.9791
-13.9791
-13.9791
-13.9791
-13.9791
-13.9791
-13.9791
-13.9791
-13.9791
-13.9791
-13.9791
-13.9791
-13.9791
-13.9791
-13.9791
-14.4696
-14.4696
-14.4696
-14.4696
-14.4696
-14.4696
-14.4696
-14.4696
-14.4696
-14.4696
-14.4696
-14.4696
-14.4696
-14.4696
-14.4696
-14.4696
-14.4696
-14.4696
-14.4696
-14.4696
-14.4696
-14.4696
-14.4696
-14.4696
-14.4696
-14.4696
-14.4696
-14.4695
-14.4695
-14.4695
-14.4695
-14.4695
-14.4695
-14.4695
-14.4695
-14.4695
-14.4695
-14.4695
-14.4695
-14.4695
-14.4695
-14.4695
-14.4695
-14.4695
-14.4695
-14.4695
-14.4695
-14.4695
-14.4695
-14.4695
-14.4695
-14.4695
-14.4695
-14.4695
-14.4696
-14.4696
-14.4696
-14.4696
-14.4696
-14.4696
-14.4696
-14.4696
-14.4696
-14.4696
-14.4696
-14.4696
-14.4696
-14.4696
-14.4696
-14.4696
-14.4696
-14.4696
-14.4696
-14.4696
-14.4696
-14.4696
-14.4696
-14.4696
-14.4696
-14.4696
-14.9601
-14.9601
-14.9601
-14.9601
-14.9601
-14.9601
-14.9601
-14.9601
-14.9601
-14.9601
-14.9601
-14.9601
-14.9601
-14.9601
-14.9601
-14.9601
-14.9601
-14.9601
-14.9601
-14.9601
-14.9601
-14.9601
-14.9601
-14.9601
-14.9601
-14.9601
-14.9601
-14.96
-14.96
-14.96
-14.96
-14.96
-14.96
-14.96
-14.96
-14.96
-14.96
-14.96
-14.96
-14.96
-14.96
-14.96
-14.96
-14.96
-14.96
-14.96
-14.96
-14.96
-14.96
-14.96
-14.96
-14.96
-14.96
-14.96
-14.9601
-14.9601
-14.9601
-14.9601
-14.9601
-14.9601
-14.9601
-14.9601
-14.9601
-14.9601
-14.9601
-14.9601
-14.9601
-14.9601
-14.9601
-14.9601
-14.9601
-14.9601
-14.9601
-14.9601
-14.9601
-14.9601
-14.9601
-14.9601
-14.9601
-14.9601
-15.4506
-15.4506
-15.4506
-15.4506
-15.4506
-15.4506
-15.4506
-15.4506
-15.4506
-15.4506
-15.4506
-15.4506
-15.4506
-15.4506
-15.4506
-15.4506
-15.4506
-15.4506
-15.4506
-15.4506
-15.4506
-15.4506
-15.4506
-15.4506
-15.4506
-15.4506
-15.4506
-15.4505
-15.4505
-15.4505
-15.4505
-15.4505
-15.4505
-15.4505
-15.4505
-15.4505
-15.4505
-15.4505
-15.4505
-15.4505
-15.4505
-15.4505
-15.4505
-15.4505
-15.4505
-15.4505
-15.4505
-15.4505
-15.4505
-15.4505
-15.4505
-15.4505
-15.4505
-15.4505
-15.4506
-15.4506
-15.4506
-15.4506
-15.4506
-15.4506
-15.4506
-15.4506
-15.4506
-15.4506
-15.4506
-15.4506
-15.4506
-15.4506
-15.4506
-15.4506
-15.4506
-15.4506
-15.4506
-15.4506
-15.4506
-15.4506
-15.4506
-15.4506
-15.4506
-15.4506
-15.9411
-15.9411
-15.9411
-15.9411
-15.9411
-15.9411
-15.9411
-15.9411
-15.9411
-15.9411
-15.9411
-15.9411
-15.9411
-15.9411
-15.9411
-15.9411
-15.9411
-15.9411
-15.9411
-15.9411
-15.9411
-15.9411
-15.9411
-15.9411
-15.9411
-15.9411
-15.9411
-15.941
-15.941
-15.941
-15.941
-15.941
-15.941
-15.941
-15.941
-15.941
-15.941
-15.941
-15.941
-15.941
-15.941
-15.941
-15.941
-15.941
-15.941
-15.941
-15.941
-15.941
-15.941
-15.941
-15.941
-15.941
-15.941
-15.9411
-15.9411
-15.9411
-15.9411
-15.9411
-15.9411
-15.9411
-15.9411
-15.9411
-15.9411
-15.9411
-15.9411
-15.9411
-15.9411
-15.9411
-15.9411
-15.9411
-15.9411
-15.9411
-15.9411
-15.9411
-15.9411
-15.9411
-15.9411
-15.9411
-15.9411
-15.9411
-16.4316
-16.4316
-16.4316
-16.4316
-16.4316
-16.4316
-16.4316
-16.4316
-16.4316
-16.4316
-16.4316
-16.4316
-16.4316
-16.4316
-16.4316
-16.4316
-16.4316
-16.4316
-16.4316
-16.4316
-16.4316
-16.4316
-16.4316
-16.4316
-16.4316
-16.4316
-16.4316
-16.4315
-16.4315
-16.4315
-16.4315
-16.4315
-16.4315
-16.4315
-16.4315
-16.4315
-16.4315
-16.4315
-16.4315
-16.4315
-16.4315
-16.4315
-16.4315
-16.4315
-16.4315
-16.4315
-16.4315
-16.4315
-16.4315
-16.4315
-16.4315
-16.4315
-16.4315
-16.4316
-16.4316
-16.4316
-16.4316
-16.4316
-16.4316
-16.4316
-16.4316
-16.4316
-16.4316
-16.4316
-16.4316
-16.4316
-16.4316
-16.4316
-16.4316
-16.4316
-16.4316
-16.4316
-16.4316
-16.4316
-16.4316
-16.4316
-16.4316
-16.4316
-16.4316
-16.4316
-16.9221
-16.9221
-16.9221
-16.9221
-16.9221
-16.9221
-16.9221
-16.9221
-16.9221
-16.9221
-16.9221
-16.9221
-16.9221
-16.9221
-16.9221
-16.9221
-16.9221
-16.9221
-16.9221
-16.9221
-16.9221
-16.9221
-16.9221
-16.9221
-16.9221
-16.9221
-16.9221
-16.9221
-16.922
-16.922
-16.922
-16.922
-16.922
-16.922
-16.922
-16.922
-16.922
-16.922
-16.922
-16.922
-16.922
-16.922
-16.922
-16.922
-16.922
-16.922
-16.922
-16.922
-16.922
-16.922
-16.922
-16.922
-16.922
-16.9221
-16.9221
-16.9221
-16.9221
-16.9221
-16.9221
-16.9221
-16.9221
-16.9221
-16.9221
-16.9221
-16.9221
-16.9221
-16.9221
-16.9221
-16.9221
-16.9221
-16.9221
-16.9221
-16.9221
-16.9221
-16.9221
-16.9221
-16.9221
-16.9221
-16.9221
-16.9221
-17.4126
-17.4126
-17.4126
-17.4126
-17.4126
-17.4126
-17.4126
-17.4126
-17.4126
-17.4126
-17.4126
-17.4126
-17.4126
-17.4126
-17.4126
-17.4126
-17.4126
-17.4126
-17.4126
-17.4126
-17.4126
-17.4126
-17.4126
-17.4126
-17.4126
-17.4126
-17.4126
-17.4126
-17.4125
-17.4125
-17.4125
-17.4125
-17.4125
-17.4125
-17.4125
-17.4125
-17.4125
-17.4125
-17.4125
-17.4125
-17.4125
-17.4125
-17.4125
-17.4125
-17.4125
-17.4125
-17.4125
-17.4125
-17.4125
-17.4125
-17.4125
-17.4125
-17.4125
-17.4126
-17.4126
-17.4126
-17.4126
-17.4126
-17.4126
-17.4126
-17.4126
-17.4126
-17.4126
-17.4126
-17.4126
-17.4126
-17.4126
-17.4126
-17.4126
-17.4126
-17.4126
-17.4126
-17.4126
-17.4126
-17.4126
-17.4126
-17.4126
-17.4126
-17.4126
-17.4126
-17.9031
-17.9031
-17.9031
-17.9031
-17.9031
-17.9031
-17.9031
-17.9031
-17.9031
-17.9031
-17.9031
-17.9031
-17.9031
-17.9031
-17.9031
-17.9031
-17.9031
-17.9031
-17.9031
-17.9031
-17.9031
-17.9031
-17.9031
-17.9031
-17.9031
-17.9031
-17.9031
-17.9031
-17.903
-17.903
-17.903
-17.903
-17.903
-17.903
-17.903
-17.903
-17.903
-17.903
-17.903
-17.903
-17.903
-17.903
-17.903
-17.903
-17.903
-17.903
-17.903
-17.903
-17.903
-17.903
-17.903
-17.903
-17.903
-17.9031
-17.9031
-17.9031
-17.9031
-17.9031
-17.9031
-17.9031
-17.9031
-17.9031
-17.9031
-17.9031
-17.9031
-17.9031
-17.9031
-17.9031
-17.9031
-17.9031
-17.9031
-17.9031
-17.9031
-17.9031
-17.9031
-17.9031
-17.9031
-17.9031
-17.9031
-17.9031
-18.3936
-18.3936
-18.3936
-18.3936
-18.3936
-18.3936
-18.3936
-18.3936
-18.3936
-18.3936
-18.3936
-18.3936
-18.3936
-18.3936
-18.3936
-18.3936
-18.3936
-18.3936
-18.3936
-18.3936
-18.3936
-18.3936
-18.3936
-18.3936
-18.3936
-18.3936
-18.3936
-18.3936
-18.3935
-18.3935
-18.3935
-18.3935
-18.3935
-18.3935
-18.3935
-18.3935
-18.3935
-18.3935
-18.3935
-18.3935
-18.3935
-18.3935
-18.3935
-18.3935
-18.3935
-18.3935
-18.3935
-18.3935
-18.3935
-18.3935
-18.3935
-18.3935
-18.3936
-18.3936
-18.3936
-18.3936
-18.3936
-18.3936
-18.3936
-18.3936
-18.3936
-18.3936
-18.3936
-18.3936
-18.3936
-18.3936
-18.3936
-18.3936
-18.3936
-18.3936
-18.3936
-18.3936
-18.3936
-18.3936
-18.3936
-18.3936
-18.3936
-18.3936
-18.3936
-18.3936
-18.8841
-18.8841
-18.8841
-18.8841
-18.8841
-18.8841
-18.8841
-18.8841
-18.8841
-18.8841
-18.8841
-18.8841
-18.8841
-18.8841
-18.8841
-18.8841
-18.8841
-18.8841
-18.8841
-18.8841
-18.8841
-18.8841
-18.8841
-18.8841
-18.8841
-18.8841
-18.8841
-18.8841
-18.884
-18.884
-18.884
-18.884
-18.884
-18.884
-18.884
-18.884
-18.884
-18.884
-18.884
-18.884
-18.884
-18.884
-18.884
-18.884
-18.884
-18.884
-18.884
-18.884
-18.884
-18.884
-18.884
-18.884
-18.8841
-18.8841
-18.8841
-18.8841
-18.8841
-18.8841
-18.8841
-18.8841
-18.8841
-18.8841
-18.8841
-18.8841
-18.8841
-18.8841
-18.8841
-18.8841
-18.8841
-18.8841
-18.8841
-18.8841
-18.8841
-18.8841
-18.8841
-18.8841
-18.8841
-18.8841
-18.8841
-18.8841
-19.3746
-19.3746
-19.3746
-19.3746
-19.3746
-19.3746
-19.3746
-19.3746
-19.3746
-19.3746
-19.3746
-19.3746
-19.3746
-19.3746
-19.3746
-19.3746
-19.3746
-19.3746
-19.3746
-19.3746
-19.3746
-19.3746
-19.3746
-19.3746
-19.3746
-19.3746
-19.3746
-19.3746
-19.3745
-19.3745
-19.3745
-19.3745
-19.3745
-19.3745
-19.3745
-19.3745
-19.3745
-19.3745
-19.3745
-19.3745
-19.3745
-19.3745
-19.3745
-19.3745
-19.3745
-19.3745
-19.3745
-19.3745
-19.3745
-19.3745
-19.3745
-19.3745
-19.3746
-19.3746
-19.3746
-19.3746
-19.3746
-19.3746
-19.3746
-19.3746
-19.3746
-19.3746
-19.3746
-19.3746
-19.3746
-19.3746
-19.3746
-19.3746
-19.3746
-19.3746
-19.3746
-19.3746
-19.3746
-19.3746
-19.3746
-19.3746
-19.3746
-19.3746
-19.3746
-19.3746
-19.8651
-19.8651
-19.8651
-19.8651
-19.8651
-19.8651
-19.8651
-19.8651
-19.8651
-19.8651
-19.8651
-19.8651
-19.8651
-19.8651
-19.8651
-19.8651
-19.8651
-19.8651
-19.8651
-19.8651
-19.8651
-19.8651
-19.8651
-19.8651
-19.8651
-19.8651
-19.8651
-19.8651
-19.865
-19.865
-19.865
-19.865
-19.865
-19.865
-19.865
-19.865
-19.865
-19.865
-19.865
-19.865
-19.865
-19.865
-19.865
-19.865
-19.865
-19.865
-19.865
-19.865
-19.865
-19.865
-19.865
-19.865
-19.8651
-19.8651
-19.8651
-19.8651
-19.8651
-19.8651
-19.8651
-19.8651
-19.8651
-19.8651
-19.8651
-19.8651
-19.8651
-19.8651
-19.8651
-19.8651
-19.8651
-19.8651
-19.8651
-19.8651
-19.8651
-19.8651
-19.8651
-19.8651
-19.8651
-19.8651
-19.8651
-19.8651
-20.3556
-20.3556
-20.3556
-20.3556
-20.3556
-20.3556
-20.3556
-20.3556
-20.3556
-20.3556
-20.3556
-20.3556
-20.3556
-20.3556
-20.3556
-20.3556
-20.3556
-20.3556
-20.3556
-20.3556
-20.3556
-20.3556
-20.3556
-20.3556
-20.3556
-20.3556
-20.3556
-20.3556
-20.3555
-20.3555
-20.3555
-20.3555
-20.3555
-20.3555
-20.3555
-20.3555
-20.3555
-20.3555
-20.3555
-20.3555
-20.3555
-20.3555
-20.3555
-20.3555
-20.3555
-20.3555
-20.3555
-20.3555
-20.3555
-20.3555
-20.3555
-20.3555
-20.3556
-20.3556
-20.3556
-20.3556
-20.3556
-20.3556
-20.3556
-20.3556
-20.3556
-20.3556
-20.3556
-20.3556
-20.3556
-20.3556
-20.3556
-20.3556
-20.3556
-20.3556
-20.3556
-20.3556
-20.3556
-20.3556
-20.3556
-20.3556
-20.3556
-20.3556
-20.3556
-20.3556
-20.8461
-20.8461
-20.8461
-20.8461
-20.8461
-20.8461
-20.8461
-20.8461
-20.8461
-20.8461
-20.8461
-20.8461
-20.8461
-20.8461
-20.8461
-20.8461
-20.8461
-20.8461
-20.8461
-20.8461
-20.8461
-20.8461
-20.8461
-20.8461
-20.8461
-20.8461
-20.8461
-20.8461
-20.846
-20.846
-20.846
-20.846
-20.846
-20.846
-20.846
-20.846
-20.846
-20.846
-20.846
-20.846
-20.846
-20.846
-20.846
-20.846
-20.846
-20.846
-20.846
-20.846
-20.846
-20.846
-20.846
-20.8461
-20.8461
-20.8461
-20.8461
-20.8461
-20.8461
-20.8461
-20.8461
-20.8461
-20.8461
-20.8461
-20.8461
-20.8461
-20.8461
-20.8461
-20.8461
-20.8461
-20.8461
-20.8461
-20.8461
-20.8461
-20.8461
-20.8461
-20.8461
-20.8461
-20.8461
-20.8461
-20.8461
-20.8461
-21.3366
-21.3366
-21.3366
-21.3366
-21.3366
-21.3366
-21.3366
-21.3366
-21.3366
-21.3366
-21.3366
-21.3366
-21.3366
-21.3366
-21.3366
-21.3366
-21.3366
-21.3366
-21.3366
-21.3366
-21.3366
-21.3366
-21.3366
-21.3366
-21.3366
-21.3366
-21.3366
-21.3366
-21.3365
-21.3365
-21.3365
-21.3365
-21.3365
-21.3365
-21.3365
-21.3365
-21.3365