/*--------------------------------*- C++ -*----------------------------------*\
| =========                 |                                                 |
| \\      /  F ield         | OpenFOAM: The Open Source CFD Toolbox           |
|  \\    /   O peration     | Version:  2412                                  |
|   \\  /    A nd           | Website:  www.openfoam.com                      |
|    \\/     M anipulation  |                                                 |
\*---------------------------------------------------------------------------*/
FoamFile
{
    version     2.0;
    format      ascii;
    arch        "LSB;label=32;scalar=64";
    class       surfaceScalarField;
    location    "6.25";
    object      alphaPhi0.soap;
}
// * * * * * * * * * * * * * * * * * * * * * * * * * * * * * * * * * * * * * //

dimensions      [0 3 -1 0 0 0 0];

oriented        oriented;

internalField   nonuniform List<scalar> 
12640
(
6.12766e-06
-6.12763e-06
1.64769e-05
-1.03494e-05
2.51697e-05
-8.69294e-06
3.28455e-05
-7.6759e-06
3.99397e-05
-7.09406e-06
4.63933e-05
-6.45359e-06
5.21295e-05
-5.73608e-06
5.68917e-05
-4.76222e-06
6.04311e-05
-3.53945e-06
6.25938e-05
-2.16264e-06
6.32688e-05
-6.75026e-07
6.216e-05
1.10883e-06
5.91257e-05
3.03453e-06
5.39372e-05
5.18851e-06
4.67638e-05
7.17365e-06
3.7528e-05
9.23597e-06
2.65325e-05
1.09959e-05
1.37422e-05
1.27906e-05
-4.34819e-07
1.41773e-05
-1.57415e-05
1.53071e-05
-3.17913e-05
1.60501e-05
-4.81371e-05
1.6346e-05
-6.43718e-05
1.62348e-05
-8.00818e-05
1.571e-05
-9.47932e-05
1.47115e-05
-0.000108051
1.32577e-05
-0.000119317
1.12654e-05
-0.000128007
8.68994e-06
-0.000133729
5.72248e-06
-0.000136182
2.45231e-06
-0.000135194
-9.87676e-07
-0.000130813
-4.38075e-06
-0.00012315
-7.66267e-06
-0.000112126
-1.10242e-05
-9.77445e-05
-1.4381e-05
-8.01548e-05
-1.75894e-05
-5.97092e-05
-2.04455e-05
-3.70545e-05
-2.26547e-05
-1.28563e-05
-2.41982e-05
1.20203e-05
-2.48766e-05
3.67025e-05
-2.4682e-05
6.02653e-05
-2.3563e-05
8.18292e-05
-2.15639e-05
0.000100676
-1.88468e-05
0.000116064
-1.53878e-05
0.000127703
-1.16386e-05
0.000135237
-7.53424e-06
0.000138729
-3.49268e-06
0.000138492
2.36198e-07
0.00013457
3.92098e-06
0.000127241
7.32838e-06
0.000116719
1.05221e-05
0.000103376
1.33423e-05
8.77346e-05
1.56411e-05
7.04556e-05
1.72791e-05
5.21082e-05
1.83476e-05
3.32272e-05
1.8881e-05
1.42589e-05
1.89682e-05
-4.33997e-06
1.85985e-05
-2.21465e-05
1.78061e-05
-3.87211e-05
1.65739e-05
-5.37141e-05
1.49927e-05
-6.68422e-05
1.31281e-05
-7.79e-05
1.10578e-05
-8.6529e-05
8.62872e-06
-9.2684e-05
6.15471e-06
-9.62325e-05
3.54801e-06
-9.73379e-05
1.10498e-06
-9.61747e-05
-1.16324e-06
-9.3026e-05
-3.14851e-06
-8.81199e-05
-4.90611e-06
-8.16076e-05
-6.51224e-06
-7.37909e-05
-7.81694e-06
-6.49221e-05
-8.86943e-06
-5.53012e-05
-9.62132e-06
-4.50723e-05
-1.02285e-05
-3.43039e-05
-1.07676e-05
-2.27046e-05
-1.15985e-05
-9.51791e-06
-1.3186e-05
-9.5179e-06
4.48567e-06
-1.06135e-05
1.33553e-05
-1.92191e-05
2.08094e-05
-1.61471e-05
2.76215e-05
-1.44878e-05
3.43305e-05
-1.3803e-05
4.09238e-05
-1.30468e-05
4.71501e-05
-1.19623e-05
5.27762e-05
-1.03883e-05
5.75093e-05
-8.27255e-06
6.10934e-05
-5.74679e-06
6.30034e-05
-2.58496e-06
6.29981e-05
1.1141e-06
6.09409e-05
5.09199e-06
5.67512e-05
9.37848e-06
5.03149e-05
1.36103e-05
4.17047e-05
1.78465e-05
3.0885e-05
2.18161e-05
1.83712e-05
2.53051e-05
4.2377e-06
2.83112e-05
-1.11009e-05
3.0646e-05
-2.7117e-05
3.20665e-05
-4.33383e-05
3.25676e-05
-5.91842e-05
3.20809e-05
-7.40955e-05
3.06214e-05
-8.75366e-05
2.81526e-05
-9.90422e-05
2.47633e-05
-0.000108165
2.0388e-05
-0.000114754
1.52791e-05
-0.000118565
9.53313e-06
-0.000119493
3.38091e-06
-0.000117383
-3.09708e-06
-0.000112109
-9.65486e-06
-0.000103609
-1.61617e-05
-9.21109e-05
-2.2522e-05
-7.81368e-05
-2.83549e-05
-6.21618e-05
-3.35643e-05
-4.46078e-05
-3.79996e-05
-2.59e-05
-4.13626e-05
-6.60441e-06
-4.34939e-05
1.28342e-05
-4.43158e-05
3.18778e-05
-4.3726e-05
5.00877e-05
-4.17733e-05
6.70118e-05
-3.84882e-05
8.22192e-05
-3.40545e-05
9.53765e-05
-2.85459e-05
0.000106046
-2.23091e-05
0.000113918
-1.54074e-05
0.000118651
-8.22668e-06
0.000119741
-8.54415e-07
0.000117451
6.21091e-06
0.000111793
1.29863e-05
0.000103099
1.92158e-05
9.17245e-05
2.47168e-05
7.7969e-05
2.93967e-05
6.22e-05
3.3048e-05
4.49183e-05
3.5629e-05
2.66566e-05
3.71425e-05
8.02585e-06
3.75989e-05
-1.03711e-05
3.69954e-05
-2.79653e-05
3.54003e-05
-4.4367e-05
3.29759e-05
-5.90137e-05
2.96394e-05
-7.1628e-05
2.57422e-05
-8.18695e-05
2.12986e-05
-8.97548e-05
1.65133e-05
-9.5018e-05
1.14179e-05
-9.78678e-05
6.39864e-06
-9.82409e-05
1.47925e-06
-9.62513e-05
-3.15204e-06
-9.20676e-05
-7.33196e-06
-8.59508e-05
-1.10234e-05
-7.84269e-05
-1.40369e-05
-6.98636e-05
-1.63812e-05
-6.05609e-05
-1.81732e-05
-5.07914e-05
-1.93915e-05
-4.08438e-05
-2.01764e-05
-3.07979e-05
-2.08134e-05
-2.01623e-05
-2.22338e-05
-8.00943e-06
-2.53389e-05
-1.7526e-05
5.27362e-06
-1.58873e-05
1.51464e-05
-2.90917e-05
2.33066e-05
-2.43071e-05
3.0717e-05
-2.1898e-05
3.7939e-05
-2.10249e-05
4.49708e-05
-2.00785e-05
5.15642e-05
-1.85558e-05
5.74616e-05
-1.62859e-05
6.23709e-05
-1.31821e-05
6.58575e-05
-9.23372e-06
6.77149e-05
-4.44257e-06
6.77113e-05
1.11743e-06
6.5455e-05
7.34824e-06
6.09993e-05
1.38341e-05
5.41699e-05
2.044e-05
4.5049e-05
2.69675e-05
3.37205e-05
3.31449e-05
2.04438e-05
3.85823e-05
5.52007e-06
4.32354e-05
-1.06903e-05
4.68569e-05
-2.77173e-05
4.9094e-05
-4.50509e-05
4.99018e-05
-6.21638e-05
4.91945e-05
-7.84788e-05
4.6937e-05
-9.34741e-05
4.31483e-05
-0.000106563
3.78531e-05
-0.000117343
3.11679e-05
-0.000125384
2.33211e-05
-0.000130475
1.46244e-05
-0.000132337
5.24351e-06
-0.000130595
-4.83854e-06
-0.000125343
-1.49071e-05
-0.000116539
-2.49655e-05
-0.000104483
-3.45774e-05
-8.94029e-05
-4.34353e-05
-7.18125e-05
-5.11548e-05
-5.21574e-05
-5.76551e-05
-3.09679e-05
-6.25528e-05
-8.89017e-06
-6.55723e-05
1.34517e-05
-6.66582e-05
3.54602e-05
-6.57352e-05
5.65224e-05
-6.28363e-05
7.60112e-05
-5.7978e-05
9.33683e-05
-5.14127e-05
0.000108126
-4.33041e-05
0.000119837
-3.40206e-05
0.000128168
-2.37375e-05
0.000132756
-1.28136e-05
0.000133545
-1.64288e-06
0.00013031
9.44779e-06
0.000123443
1.98538e-05
0.000113382
2.92774e-05
0.000100354
3.7744e-05
8.49183e-05
4.48329e-05
6.7539e-05
5.04281e-05
4.87553e-05
5.44136e-05
2.91451e-05
5.67537e-05
9.24657e-06
5.74987e-05
-1.02989e-05
5.65423e-05
-2.89584e-05
5.40608e-05
-4.61913e-05
5.02091e-05
-6.1778e-05
4.52259e-05
-7.5196e-05
3.91604e-05
-8.6203e-05
3.23065e-05
-9.45924e-05
2.49045e-05
-0.000100315
1.7142e-05
-0.000103331
9.41586e-06
-0.0001037
1.84801e-06
-0.000101563
-5.28912e-06
-9.72126e-05
-1.16838e-05
-9.09781e-05
-1.72586e-05
-8.31781e-05
-2.18377e-05
-7.41653e-05
-2.53957e-05
-6.43506e-05
-2.799e-05
-5.40522e-05
-2.96916e-05
-4.35248e-05
-3.07049e-05
-3.28665e-05
-3.14727e-05
-2.14683e-05
-3.36325e-05
-8.50333e-06
-3.8305e-05
-2.60305e-05
5.30384e-06
-2.11911e-05
1.57032e-05
-3.94909e-05
2.43226e-05
-3.29263e-05
3.19052e-05
-2.94805e-05
3.94447e-05
-2.85643e-05
4.69686e-05
-2.76025e-05
5.42134e-05
-2.58008e-05
6.0907e-05
-2.29799e-05
6.66584e-05
-1.89339e-05
7.09564e-05
-1.35323e-05
7.34975e-05
-6.98422e-06
7.39136e-05
7.01074e-07
7.21253e-05
9.13626e-06
6.76851e-05
1.82741e-05
6.06624e-05
2.74628e-05
5.10637e-05
3.65665e-05
3.90546e-05
4.51542e-05
2.47981e-05
5.28391e-05
8.66951e-06
5.93646e-05
-8.88144e-06
6.44086e-05
-2.74156e-05
6.76291e-05
-4.63531e-05
6.88402e-05
-6.51172e-05
6.79594e-05
-8.31481e-05
6.49686e-05
-9.97808e-05
5.97817e-05
-0.000114529
5.26027e-05
-0.000126787
4.34261e-05
-0.000136133
3.26687e-05
-0.00014216
2.06518e-05
-0.000144567
7.6518e-06
-0.000143228
-6.17737e-06
-0.00013808
-2.00548e-05
-0.000129157
-3.38882e-05
-0.000116624
-4.71106e-05
-0.000100695
-5.93636e-05
-8.16665e-05
-7.01832e-05
-6.00567e-05
-7.92646e-05
-3.64491e-05
-8.61599e-05
-1.14554e-05
-9.05659e-05
1.4117e-05
-9.22303e-05
3.94229e-05
-9.10406e-05
6.34586e-05
-8.68713e-05
8.56333e-05
-8.01519e-05
0.000105103
-7.08823e-05
0.000121376
-5.95764e-05
0.000133904
-4.65469e-05
0.000142519
-3.23511e-05
0.000146971
-1.72647e-05
0.000147238
-1.90924e-06
0.000143313
1.33733e-05
0.000135432
2.77349e-05
0.000123915
4.07951e-05
0.000109244
5.24155e-05
9.19492e-05
6.21278e-05
7.2642e-05
6.97359e-05
5.19318e-05
7.51244e-05
3.04376e-05
7.82485e-05
8.83229e-06
7.91039e-05
-1.23644e-05
7.77381e-05
-3.25559e-05
7.42517e-05
-5.11765e-05
6.88295e-05
-6.77559e-05
6.18058e-05
-8.20198e-05
5.34252e-05
-9.36424e-05
4.39294e-05
-0.000102373
3.36344e-05
-0.000108217
2.29861e-05
-0.000111028
1.22269e-05
-0.00011093
1.75147e-06
-0.000108185
-8.03193e-06
-0.000103017
-1.68493e-05
-9.5857e-05
-2.44159e-05
-8.70923e-05
-3.06007e-05
-7.71891e-05
-3.52978e-05
-6.65946e-05
-3.85836e-05
-5.56985e-05
-4.0587e-05
-4.47528e-05
-4.16505e-05
-3.37719e-05
-4.24533e-05
-2.19404e-05
-4.54662e-05
-8.60654e-06
-5.16398e-05
-3.46383e-05
5.12548e-06
-2.63164e-05
1.60955e-05
-5.04607e-05
2.50725e-05
-4.19031e-05
3.288e-05
-3.72879e-05
4.07136e-05
-3.6398e-05
4.88697e-05
-3.57587e-05
5.71419e-05
-3.40734e-05
6.4985e-05
-3.08236e-05
7.19191e-05
-2.58687e-05
7.75529e-05
-1.91666e-05
8.12485e-05
-1.06802e-05
8.25968e-05
-6.47499e-07
8.11832e-05
1.05498e-05
7.70998e-05
2.23576e-05
6.99541e-05
3.46085e-05
5.98416e-05
4.66792e-05
4.69467e-05
5.80495e-05
3.14599e-05
6.83264e-05
1.38555e-05
7.69695e-05
-5.47812e-06
8.3743e-05
-2.59666e-05
8.81185e-05
-4.70161e-05
8.98906e-05
-6.79811e-05
8.89253e-05
-8.81193e-05
8.51078e-05
-0.000106824
7.84872e-05
-0.000123362
6.91416e-05
-0.000137289
5.73545e-05
-0.00014793
4.331e-05
-0.000154914
2.76364e-05
-0.000157882
1.06196e-05
-0.000156793
-7.26548e-06
-0.000151498
-2.53496e-05
-0.000142025
-4.33621e-05
-0.000128612
-6.05231e-05
-0.000111371
-7.66042e-05
-9.06275e-05
-9.09266e-05
-6.69447e-05
-0.000102947
-4.091e-05
-0.000112194
-1.31352e-05
-0.00011834
1.5259e-05
-0.000120623
4.33933e-05
-0.000119174
7.02382e-05
-0.000113715
9.48055e-05
-0.000104718
0.000116356
-9.24318e-05
0.000134264
-7.74839e-05
0.000148044
-6.03269e-05
0.000157356
-4.16636e-05
0.000162023
-2.19322e-05
0.000161969
-1.85554e-06
0.000157397
1.79455e-05
0.000148403
3.67289e-05
0.000135278
5.39209e-05
0.00011877
6.89229e-05
9.94425e-05
8.14554e-05
7.79068e-05
9.12709e-05
5.48759e-05
9.81538e-05
3.10768e-05
0.000102046
7.19554e-06
0.000102984
-1.60907e-05
0.000101024
-3.80281e-05
9.61904e-05
-5.83135e-05
8.91162e-05
-7.63006e-05
7.97934e-05
-9.16369e-05
6.87612e-05
-0.000104
5.62926e-05
-0.000113224
4.286e-05
-0.000119065
2.88293e-05
-0.000121571
1.4736e-05
-0.000120833
1.01495e-06
-0.0001171
-1.1764e-05
-0.000110745
-2.32033e-05
-0.000102187
-3.29739e-05
-9.19753e-05
-4.08121e-05
-8.06393e-05
-4.66331e-05
-6.88823e-05
-5.03395e-05
-5.71215e-05
-5.23472e-05
-4.56518e-05
-5.31201e-05
-3.43599e-05
-5.37458e-05
-2.22075e-05
-5.76199e-05
-8.4595e-06
-6.53888e-05
-4.30989e-05
4.99849e-06
-3.13147e-05
1.64867e-05
-6.19489e-05
2.5802e-05
-5.12183e-05
3.37486e-05
-4.52345e-05
4.21037e-05
-4.47532e-05
5.1231e-05
-4.48863e-05
6.08443e-05
-4.36871e-05
7.03683e-05
-4.03479e-05
7.90964e-05
-3.45973e-05
8.63169e-05
-2.63874e-05
9.13335e-05
-1.56969e-05
9.38509e-05
-3.16484e-06
9.32805e-05
1.11203e-05
8.92834e-05
2.63551e-05
8.20829e-05
4.18093e-05
7.13595e-05
5.74028e-05
5.73582e-05
7.20511e-05
4.03552e-05
8.53299e-05
2.07908e-05
9.65345e-05
-8.04336e-07
0.000105339
-2.38728e-05
0.000111187
-4.76655e-05
0.000113684
-7.14589e-05
0.000112719
-9.43799e-05
0.000108029
-0.000115789
9.98969e-05
-0.000134782
8.81351e-05
-0.00015072
7.32929e-05
-0.000163059
5.56487e-05
-0.000171272
3.58495e-05
-0.000175175
1.45215e-05
-0.000174424
-8.01659e-06
-0.000168833
-3.09406e-05
-0.000158589
-5.36068e-05
-0.000143884
-7.52281e-05
-0.000124918
-9.55711e-05
-0.000101979
-0.000113866
-7.5537e-05
-0.00012939
-4.62962e-05
-0.000141435
-1.51497e-05
-0.000149487
1.68157e-05
-0.00015259
4.85364e-05
-0.000150896
7.87956e-05
-0.000143975
0.000106487
-0.00013241
0.000130722
-0.000116667
0.000150711
-9.74747e-05
0.00016609
-7.57063e-05
0.000176423
-5.19963e-05
0.000181495
-2.70036e-05
0.000181109
-1.46903e-06
0.00017543
2.36252e-05
0.00016491
4.72488e-05
0.000149849
6.89816e-05
0.00013094
8.78311e-05
0.000108864
0.000103531
8.44242e-05
0.000115711
5.83906e-05
0.000124189
3.16075e-05
0.000128831
4.88694e-06
0.000129706
-2.09546e-05
0.000126866
-4.54999e-05
0.000120735
-6.78811e-05
0.000111496
-8.76341e-05
9.95461e-05
-0.000104393
8.55201e-05
-0.000117704
6.96037e-05
-0.00012737
5.25257e-05
-0.000133271
3.47296e-05
-0.000135362
1.68253e-05
-0.000133674
-6.75106e-07
-0.000128624
-1.68165e-05
-0.000120636
-3.11922e-05
-0.000110198
-4.34123e-05
-9.79481e-05
-5.30624e-05
-8.46986e-05
-5.98826e-05
-7.1293e-05
-6.37456e-05
-5.84294e-05
-6.52119e-05
-4.63876e-05
-6.51617e-05
-3.48587e-05
-6.52757e-05
-2.24539e-05
-7.00263e-05
-8.24055e-06
-7.9603e-05
-5.13396e-05
5.08294e-06
-3.63976e-05
1.71268e-05
-7.39928e-05
2.64816e-05
-6.05732e-05
3.42196e-05
-5.29725e-05
4.28605e-05
-5.33942e-05
5.31299e-05
-5.51559e-05
6.45463e-05
-5.51038e-05
7.64265e-05
-5.22281e-05
8.75261e-05
-4.56968e-05
9.70374e-05
-3.58984e-05
0.000104102
-2.27613e-05
0.000108145
-7.20771e-06
0.000108471
1.07954e-05
0.000105157
2.96693e-05
9.76165e-05
4.93503e-05
8.60991e-05
6.89204e-05
7.06779e-05
8.74723e-05
5.18172e-05
0.00010419
2.98139e-05
0.000118538
5.31585e-06
0.000129837
-2.09967e-05
0.0001375
-4.83076e-05
0.000140995
-7.57e-05
0.000140112
-0.000102285
0.000134615
-0.000127024
0.000124636
-0.000149095
0.000110206
-0.000167659
9.18572e-05
-0.000182232
7.02213e-05
-0.000192114
4.57312e-05
-0.000196967
1.9375e-05
-0.000196409
-8.57528e-06
-0.000190636
-3.67138e-05
-0.000179648
-6.45958e-05
-0.000163443
-9.14347e-05
-0.000142361
-0.000116655
-0.000116631
-0.000139597
-8.68442e-05
-0.000159179
-5.36631e-05
-0.000174618
-1.80648e-05
-0.000185087
1.86968e-05
-0.000189352
5.52372e-05
-0.000187437
8.9904e-05
-0.000178643
0.000121506
-0.000164013
0.000149068
-0.00014423
0.000171832
-0.000120239
0.000189189
-9.30628e-05
0.000200768
-6.35752e-05
0.000206231
-3.24669e-05
0.000205446
-6.83584e-07
0.000198578
3.04919e-05
0.000185958
5.98692e-05
0.000168329
8.66113e-05
0.000146245
0.000109916
0.000120636
0.000129141
9.23976e-05
0.00014395
6.25558e-05
0.00015403
3.20115e-05
0.000159374
1.67932e-06
0.000160038
-2.76225e-05
0.000156169
-5.50873e-05
0.000148201
-8.00542e-05
0.000136464
-0.000102079
0.000121572
-0.000120537
0.000103977
-0.000135115
8.41788e-05
-0.000145419
6.28265e-05
-0.000151245
4.05521e-05
-0.000152624
1.82018e-05
-0.000149858
-3.44213e-06
-0.000143194
-2.34805e-05
-0.00013303
-4.13562e-05
-0.000119982
-5.64609e-05
-0.000105014
-6.80315e-05
-8.9048e-05
-7.58487e-05
-7.34741e-05
-7.93198e-05
-5.90907e-05
-7.95955e-05
-4.6489e-05
-7.77638e-05
-3.50657e-05
-7.66992e-05
-2.26093e-05
-8.24833e-05
-8.00857e-06
-9.42048e-05
-5.93475e-05
5.75142e-06
-4.2149e-05
1.81498e-05
-8.63913e-05
2.73653e-05
-6.9789e-05
3.38565e-05
-5.94638e-05
4.25335e-05
-6.20711e-05
5.41384e-05
-6.67606e-05
6.79911e-05
-6.89563e-05
8.28847e-05
-6.71215e-05
9.76287e-05
-6.04403e-05
0.000110255
-4.85239e-05
0.000119862
-3.23674e-05
0.000125755
-1.31003e-05
0.00012773
8.82103e-06
0.000124935
3.24648e-05
0.000117377
5.69084e-05
0.000104983
8.13138e-05
8.78789e-05
0.000104576
6.64905e-05
0.000125578
4.14274e-05
0.0001436
1.33384e-05
0.000157925
-1.70202e-05
0.000167858
-4.86922e-05
0.000172667
-8.0607e-05
0.000172027
-0.000111682
0.00016569
-0.000140728
0.000153681
-0.000166719
0.000136196
-0.000188706
0.000113844
-0.000205776
8.72915e-05
-0.000217546
5.75006e-05
-0.000223584
2.54126e-05
-0.000223643
-8.51692e-06
-0.000217656
-4.27023e-05
-0.000205655
-7.65977e-05
-0.00018778
-0.00010931
-0.000164194
-0.000140242
-0.000135161
-0.00016863
-0.000101214
-0.000193125
-6.30546e-05
-0.000212777
-2.18088e-05
-0.000226332
2.08932e-05
-0.000232054
6.34109e-05
-0.000229955
0.000103779
-0.000219011
0.000140408
-0.000200643
0.000172162
-0.000175985
0.000198268
-0.000146345
0.000218052
-0.000112847
0.000231061
-7.65852e-05
0.00023695
-3.83577e-05
0.000235493
7.71622e-07
0.000227071
3.89131e-05
0.000212064
7.4875e-05
0.000191011
0.000107663
0.000164797
0.000136129
0.000134781
0.000159156
0.000101894
0.000176837
6.72934e-05
0.000188631
3.21054e-05
0.000194562
-2.66722e-06
0.00019481
-3.60106e-05
0.000189512
-6.71511e-05
0.000179342
-9.54365e-05
0.000164749
-0.000120113
0.000146248
-0.000140691
0.000124554
-0.000156744
0.000100232
-0.000167832
7.39163e-05
-0.000173736
4.64578e-05
-0.000174508
1.8975e-05
-0.000170115
-7.83562e-06
-0.000161147
-3.24498e-05
-0.000148214
-5.42907e-05
-0.0001318
-7.28757e-05
-0.000112848
-8.69843e-05
-9.32841e-05
-9.54136e-05
-7.45696e-05
-9.80352e-05
-5.8713e-05
-9.54517e-05
-4.5725e-05
-9.07528e-05
-3.5025e-05
-8.73998e-05
-2.29564e-05
-9.45513e-05
-8.11142e-06
-0.00010905
-6.74589e-05
6.56929e-06
-4.87185e-05
1.81903e-05
-9.80126e-05
2.7992e-05
-7.95908e-05
3.25467e-05
-6.40185e-05
4.04107e-05
-6.9935e-05
5.33671e-05
-7.97166e-05
7.05006e-05
-8.60892e-05
9.02256e-05
-8.68458e-05
0.000109537
-7.97509e-05
0.000126365
-6.53508e-05
0.000139392
-4.53945e-05
0.000147897
-2.16045e-05
0.000151473
5.24573e-06
0.000149555
3.4383e-05
0.000141904
6.45587e-05
0.00012841
9.48071e-05
0.000109316
0.00012367
8.50999e-05
0.000149794
5.62816e-05
0.000172418
2.37835e-05
0.000190423
-1.15463e-05
0.000203188
-4.86391e-05
0.000209759
-8.61811e-05
0.000209568
-0.000122875
0.000202384
-0.000157294
0.0001881
-0.000188184
0.000167086
-0.000214242
0.000139902
-0.000234642
0.000107691
-0.000248654
7.15117e-05
-0.000256073
3.28314e-05
-0.000256599
-7.99154e-06
-0.000250296
-4.90041e-05
-0.000237235
-8.96561e-05
-0.000217386
-0.000129156
-0.000190958
-0.000166668
-0.0001582
-0.000201388
-0.00011928
-0.000232045
-7.51762e-05
-0.000256881
-2.69989e-05
-0.00027451
2.34996e-05
-0.000282554
7.3811e-05
-0.000280268
0.000121156
-0.000266357
0.00016381
-0.000243297
0.000200685
-0.000212862
0.000230773
-0.000176434
0.000253362
-0.000135438
0.000268069
-9.12939e-05
0.000274472
-4.4762e-05
0.000272298
2.94403e-06
0.000261921
4.929e-05
0.000243636
9.31585e-05
0.000218423
0.000132875
0.00018733
0.000167221
0.00015166
0.000194825
0.000112936
0.000215559
7.2514e-05
0.000229052
3.16731e-05
0.000235402
-8.43322e-06
0.000234916
-4.67539e-05
0.000227833
-8.23546e-05
0.000214942
-0.000114441
0.000196837
-0.000142322
0.00017413
-0.000165413
0.000147647
-0.000183259
0.00011808
-0.00019536
8.6017e-05
-0.000201374
5.24715e-05
-0.000201063
1.8662e-05
-0.000194775
-1.41249e-05
-0.000183106
-4.41204e-05
-0.000166463
-7.09341e-05
-0.000145842
-9.34968e-05
-0.00012186
-0.000110966
-9.66071e-05
-0.000120666
-7.37602e-05
-0.000120882
-5.59319e-05
-0.00011328
-4.3292e-05
-0.000103392
-3.49438e-05
-9.57478e-05
-2.31242e-05
-0.000106371
-8.59447e-06
-0.000123578
-7.60526e-05
7.40635e-06
-5.6125e-05
1.25229e-05
-0.00010313
2.32835e-05
-9.03513e-05
2.74034e-05
-6.81382e-05
3.45966e-05
-7.71278e-05
4.94181e-05
-9.45377e-05
7.11224e-05
-0.000107793
9.76281e-05
-0.000113351
0.000123766
-0.000105888
0.00014628
-8.78641e-05
0.000163551
-6.26654e-05
0.000175175
-3.32277e-05
0.000180786
-3.64767e-07
0.000180375
3.47932e-05
0.000172686
7.22479e-05
0.000157952
0.00010954
0.000136319
0.000145302
0.000108336
0.000177776
7.53058e-05
0.000205448
3.75015e-05
0.000228227
-3.88567e-06
0.000244575
-4.76976e-05
0.000253571
-9.22884e-05
0.000254159
-0.000136008
0.000246103
-0.000177128
0.00022922
-0.00021391
0.000203868
-0.000244893
0.000170885
-0.000268999
0.000131797
-0.00028591
8.84231e-05
-0.000294759
4.16818e-05
-0.000295893
-6.85698e-06
-0.000289197
-5.56985e-05
-0.000274791
-0.000104063
-0.000252917
-0.000151031
-0.000223271
-0.000196315
-0.000186177
-0.000238484
-0.000141959
-0.000276264
-9.08017e-05
-0.000308039
-3.40246e-05
-0.000331287
2.69962e-05
-0.000343575
8.76686e-05
-0.00034094
0.000143227
-0.000321916
0.00019259
-0.00029266
0.000234959
-0.000255231
0.000269698
-0.000211174
0.000295901
-0.000161642
0.00031291
-0.000108303
0.000320121
-5.1973e-05
0.000317117
5.94735e-06
0.000304294
6.21133e-05
0.000281874
0.000115579
0.000251258
0.000163491
0.000213949
0.00020453
0.000171342
0.000237432
0.000125467
0.000261435
7.7909e-05
0.000276611
3.02098e-05
0.000283102
-1.63745e-05
0.0002815
-6.0597e-05
0.000272054
-0.000101423
0.000255767
-0.000137925
0.000233338
-0.000169623
0.000205826
-0.000195808
0.00017383
-0.000216031
0.0001383
-0.000229573
9.95566e-05
-0.000235655
5.85512e-05
-0.000234122
1.7128e-05
-0.000225336
-2.2911e-05
-0.000210096
-5.93609e-05
-0.000189178
-9.18509e-05
-0.000162594
-0.00012008
-0.000131691
-0.000141869
-9.83123e-05
-0.000154045
-6.93017e-05
-0.000149892
-4.95212e-05
-0.000133061
-3.8385e-05
-0.000114529
-3.25769e-05
-0.000101555
-1.95724e-05
-0.000119376
-7.78725e-06
-0.000135363
-8.384e-05
2.06999e-05
-7.68249e-05
3.65614e-06
-8.60861e-05
7.13038e-07
-8.74081e-05
8.63123e-06
-7.60561e-05
1.81085e-05
-8.66046e-05
3.84488e-05
-0.000114877
6.79992e-05
-0.000137343
0.00010515
-0.000150501
0.000141578
-0.000142315
0.00017158
-0.000117865
0.000193676
-8.47617e-05
0.000208469
-4.80199e-05
0.000216849
-8.74524e-06
0.000217589
3.40534e-05
0.000210396
7.94405e-05
0.000194382
0.000125554
0.000170022
0.000169661
0.000138386
0.000209413
9.98079e-05
0.000244026
5.56049e-05
0.00027243
6.78161e-06
0.000293398
-4.52084e-05
0.000305561
-9.84911e-05
0.000307441
-0.000150988
0.0002986
-0.000200452
0.000278684
-0.000244651
0.000248067
-0.000281729
0.000207963
-0.000310421
0.000160489
-0.000329841
0.000107843
-0.000340495
5.23349e-05
-0.000342109
-5.24529e-06
-0.000334813
-6.29962e-05
-0.000318961
-0.000119917
-0.000294624
-0.000175369
-0.000262111
-0.000228828
-0.000221229
-0.000279366
-0.000171972
-0.00032552
-0.000113673
-0.000366337
-4.53855e-05
-0.000399573
3.13423e-05
-0.000420301
0.000107261
-0.000416857
0.000173788
-0.00038844
0.000229915
-0.000348786
0.000277278
-0.000302592
0.000316381
-0.000250274
0.000346579
-0.000191839
0.000366381
-0.000128103
0.000374712
-6.03018e-05
0.000370803
9.85694e-06
0.000354941
7.79755e-05
0.000327905
0.000142615
0.000290364
0.000201032
0.000244954
0.000249941
0.000193729
0.000288658
0.000139003
0.000316161
8.27686e-05
0.000332845
2.68357e-05
0.000339034
-2.736e-05
0.000335695
-7.85787e-05
0.000323272
-0.000125498
0.000302686
-0.00016733
0.000275168
-0.00020316
0.000241654
-0.00023264
0.000203309
-0.000255261
0.000160919
-0.000270193
0.000114487
-0.000276435
6.47926e-05
-0.000273336
1.40287e-05
-0.000261576
-3.46719e-05
-0.000242568
-7.83698e-05
-0.000216784
-0.000117635
-0.000183591
-0.000153275
-0.000142207
-0.000183253
-9.57236e-05
-0.000200529
-5.70933e-05
-0.000188522
-3.42821e-05
-0.000155872
-2.39291e-05
-0.000124882
-1.86717e-05
-0.000106812
-8.12583e-06
-0.00012992
-9.32817e-06
-0.000134161
-9.31681e-05
5.00919e-05
-0.000126827
2.80032e-05
-6.37052e-05
-3.02661e-05
-2.90614e-05
-3.69563e-05
-6.93662e-05
-1.9862e-05
-0.000103699
9.76658e-06
-0.000144505
5.20259e-05
-0.000179602
0.000110014
-0.000208489
0.00016222
-0.000194521
0.000200864
-0.000156509
0.000227395
-0.000111292
0.000244485
-6.51096e-05
0.000254109
-1.8369e-05
0.000256615
3.15477e-05
0.000249801
8.62538e-05
0.000233326
0.00014203
0.000207178
0.000195809
0.000171672
0.000244919
0.000127721
0.000287978
7.64606e-05
0.00032369
1.89121e-05
0.000350946
-4.25102e-05
0.000366983
-0.000105953
0.000370884
-0.000168972
0.000361618
-0.000228798
0.000338509
-0.000282327
0.000301595
-0.000327073
0.000252709
-0.000360964
0.00019438
-0.000383378
0.000130256
-0.00039511
6.40668e-05
-0.000396322
-4.03353e-06
-0.0003878
-7.15176e-05
-0.000370065
-0.000137651
-0.000344022
-0.00020141
-0.000310063
-0.000262785
-0.000267605
-0.000321822
-0.000213986
-0.000379136
-0.000145657
-0.000434664
-6.13775e-05
-0.000483851
3.52575e-05
-0.000516934
0.000130873
-0.000512471
0.000212939
-0.000470504
0.000278928
-0.000414773
0.000331603
-0.000355265
0.000374045
-0.000292715
0.000407034
-0.000224827
0.000429709
-0.000150777
0.000439736
-7.03289e-05
0.000435562
1.40311e-05
0.00041653
9.70091e-05
0.000383436
0.00017571
0.000337987
0.000246484
0.000282338
0.00030559
0.000219984
0.000351012
0.00015398
0.000382165
8.73417e-05
0.000399484
2.21053e-05
0.000404271
-4.03893e-05
0.000398189
-9.92136e-05
0.000382095
-0.000153162
0.000356634
-0.000200607
0.000322613
-0.000240491
0.000281539
-0.000272552
0.000235372
-0.000296813
0.000185182
-0.000312898
0.000130574
-0.000319223
7.11182e-05
-0.00031445
9.25688e-06
-0.000298893
-5.02286e-05
-0.00027574
-0.000101523
-0.000245877
-0.000147496
-0.0002058
-0.000193352
-0.000149942
-0.000239111
-7.848e-05
-0.000271992
-2.22173e-05
-0.000244786
3.42147e-06
-0.000181511
1.24086e-05
-0.000133869
1.64199e-05
-0.000110824
1.66051e-06
-0.000115161
-2.78569e-05
-0.000104603
-0.000121022
6.73081e-05
-0.000194141
0.000126865
-0.000123718
4.88398e-05
4.92548e-05
-5.84428e-05
3.79919e-05
-7.47057e-05
-8.74354e-05
-4.55057e-05
-0.000173705
1.3709e-05
-0.000238816
0.000107429
-0.000302209
0.000185451
-0.000272542
0.000233458
-0.000204517
0.000261583
-0.000139417
0.000280808
-8.43336e-05
0.000295886
-3.34474e-05
0.000303108
2.4327e-05
0.000297164
9.21975e-05
0.000276975
0.000162221
0.000245678
0.000227107
0.000204955
0.000285642
0.000154428
0.000338505
9.47771e-05
0.000383341
2.76969e-05
0.000418025
-4.46701e-05
0.000439349
-0.000119894
0.000446106
-0.000195366
0.000437089
-0.000268016
0.000411158
-0.000333633
0.000367211
-0.000387392
0.000306468
-0.00042644
0.000233428
-0.000451719
0.000155536
-0.000462873
7.52222e-05
-0.000462387
-4.51882e-06
-0.000451241
-8.2662e-05
-0.000431314
-0.000157576
-0.000404537
-0.000228187
-0.000369988
-0.000297333
-0.000323664
-0.000368146
-0.000259511
-0.00044329
-0.000174198
-0.000519978
-7.12992e-05
-0.00058675
4.08987e-05
-0.000629133
0.000151656
-0.000623228
0.000250988
-0.000569835
0.000332353
-0.000496138
0.000395961
-0.000418872
0.000444326
-0.000341079
0.000480673
-0.000261174
0.000505774
-0.000175877
0.000517908
-8.2462e-05
0.000514769
1.71705e-05
0.000494236
0.000117541
0.000455317
0.000214627
0.000399996
0.000301802
0.000331673
0.000373911
0.000255077
0.000427607
0.000175126
0.000462115
9.61515e-05
0.000478458
2.08112e-05
0.00047961
-5.0152e-05
0.000469153
-0.000116618
0.000448562
-0.000178345
0.000418362
-0.000231886
0.000376155
-0.000276188
0.000325842
-0.000311872
0.000271057
-0.000341402
0.000214712
-0.000364834
0.000154006
-0.000376796
8.30801e-05
-0.000371368
3.82917e-06
-0.000347918
-7.36778e-05
-0.00031707
-0.000132371
-0.000285322
-0.000179244
-0.000245621
-0.000233052
-0.000174209
-0.000310521
-5.65963e-05
-0.000389596
4.41814e-05
-0.000345564
7.71451e-05
-0.000214475
7.57314e-05
-0.000132455
3.29988e-05
-6.80909e-05
-5.08545e-05
-3.11576e-05
-6.17642e-05
-9.33485e-05
-0.000182683
0.000194383
-0.00038853
0.000354314
-0.000284589
0.000308071
9.48408e-05
8.8636e-05
0.000258466
-7.12764e-05
7.24773e-05
-8.92398e-05
-0.000155741
-1.74419e-05
-0.000310614
0.000128869
-0.000448517
0.000244668
-0.00038834
0.000301095
-0.000260944
0.000329669
-0.00016799
0.000357671
-0.000112335
0.000389492
-6.52679e-05
0.000408147
5.67232e-06
0.000397975
0.00010237
0.000361506
0.000198689
0.000311934
0.000276679
0.000256329
0.000341247
0.000194464
0.000400369
0.000123514
0.000454289
4.40448e-05
0.000497493
-4.35744e-05
0.000526966
-0.000136497
0.000539027
-0.000230088
0.000530679
-0.000319515
0.000500585
-0.000398323
0.00044602
-0.00045956
0.000367705
-0.000500819
0.000274687
-0.000525533
0.00018025
-0.00053782
8.75088e-05
-0.000537721
-4.61965e-06
-0.000525762
-9.46234e-05
-0.000503883
-0.000179457
-0.000473319
-0.000258753
-0.00043026
-0.000340394
-0.000367455
-0.000430953
-0.000280592
-0.000530154
-0.000174064
-0.000626506
-5.94817e-05
-0.000701332
5.47544e-05
-0.000743369
0.000165308
-0.000733782
0.000270729
-0.000675256
0.000366655
-0.000592063
0.000448201
-0.000500419
0.000513674
-0.000406552
0.000563438
-0.000310939
0.000597708
-0.000210147
0.000614855
-9.96099e-05
0.00061224
1.97846e-05
0.000587753
0.000142026
0.000540304
0.000262076
0.000470824
0.000371281
0.000385498
0.000459236
0.000292132
0.000520971
0.000197392
0.000556854
0.000104826
0.000571023
1.69559e-05
0.00056748
-6.54715e-05
0.00055158
-0.000143137
0.000526228
-0.00021277
0.000487994
-0.0002737
0.000437083
-0.000326628
0.000378767
-0.000376727
0.000321154
-0.000429455
0.000267439
-0.000480306
0.000204857
-0.000510441
0.000113215
-0.000504731
-1.88063e-06
-0.000465881
-0.000112528
-0.000418524
-0.000179728
-0.000382805
-0.000214962
-0.000344119
-0.000271739
-0.000251925
-0.00040271
-8.17732e-05
-0.000559733
8.49052e-05
-0.000512175
0.000136461
-0.000266029
8.42274e-05
-8.02212e-05
-9.13054e-05
0.000107442
-0.000225287
0.000103527
-0.000144902
-0.000174482
-0.000327342
0.000398295
-0.000786829
0.000651617
-0.000537883
0.000649534
9.77761e-05
0.000372547
0.000534421
6.12732e-05
0.000383533
-7.1552e-05
-2.29159e-05
-2.03063e-05
-0.000361858
0.000153845
-0.00062267
0.000325213
-0.000559707
0.000429355
-0.000365085
0.000480539
-0.000219175
0.000524067
-0.000155862
0.000570884
-0.000112085
0.00059886
-2.23047e-05
0.000580689
0.000120541
0.000523838
0.00025554
0.000447424
0.000353093
0.000369142
0.000419528
0.000292072
0.000477438
0.000209323
0.000537038
0.000113261
0.000593554
2.42183e-06
0.000637806
-0.000119165
0.000660614
-0.000242376
0.00065389
-0.000355698
0.000613906
-0.000448019
0.00053834
-0.000511667
0.000431352
-0.000548653
0.000311671
-0.00056957
0.000201166
-0.000583392
0.000101328
-0.000592476
4.46264e-06
-0.000586315
-0.000100785
-0.000563594
-0.00020218
-0.000523023
-0.000299325
-0.000461237
-0.00040218
-0.000375618
-0.000516571
-0.000271031
-0.000634741
-0.000158153
-0.000739384
-4.46182e-05
-0.000814867
6.72882e-05
-0.000855275
0.000170288
-0.000836783
0.000266913
-0.00077188
0.000362613
-0.000687764
0.000458572
-0.000596376
0.000550218
-0.000498198
0.000630811
-0.000391532
0.000689404
-0.00026874
0.000718988
-0.000129193
0.000715987
2.27855e-05
0.000678453
0.00017956
0.000607633
0.000332895
0.000509942
0.000468971
0.000397909
0.000571268
0.000284374
0.000634504
0.000175006
0.000666221
6.77032e-05
0.000678324
-3.76454e-05
0.000672827
-0.000140982
0.000654915