/*--------------------------------*- C++ -*----------------------------------*\
| =========                 |                                                 |
| \\      /  F ield         | OpenFOAM: The Open Source CFD Toolbox           |
|  \\    /   O peration     | Version:  2412                                  |
|   \\  /    A nd           | Website:  www.openfoam.com                      |
|    \\/     M anipulation  |                                                 |
\*---------------------------------------------------------------------------*/
FoamFile
{
    version     2.0;
    format      ascii;
    arch        "LSB;label=32;scalar=64";
    class       surfaceScalarField;
    location    "7";
    object      phi;
}
// * * * * * * * * * * * * * * * * * * * * * * * * * * * * * * * * * * * * * //

dimensions      [0 3 -1 0 0 0 0];

oriented        oriented;

internalField   nonuniform List<scalar> 
12640
(
-4.69536e-06
4.69536e-06
-4.83077e-06
1.3532e-07
-5.86306e-06
1.03229e-06
-6.98185e-06
1.11888e-06
-7.42876e-06
4.47026e-07
-6.95099e-06
-4.77643e-07
-5.38781e-06
-1.56307e-06
-2.81826e-06
-2.5695e-06
6.87605e-07
-3.50588e-06
5.08085e-06
-4.39328e-06
1.01516e-05
-5.07085e-06
1.5896e-05
-5.74452e-06
2.19365e-05
-6.04075e-06
2.79576e-05
-6.02144e-06
3.38761e-05
-5.9189e-06
3.94849e-05
-5.60959e-06
4.47413e-05
-5.2569e-06
4.94011e-05
-4.66033e-06
5.34214e-05
-4.02073e-06
5.66892e-05
-3.26802e-06
5.91377e-05
-2.44885e-06
6.07121e-05
-1.57503e-06
6.13522e-05
-6.40575e-07
6.10184e-05
3.3313e-07
5.96919e-05
1.3259e-06
5.73998e-05
2.29136e-06
5.42876e-05
3.11124e-06
5.0586e-05
3.70089e-06
4.65226e-05
4.06282e-06
4.23126e-05
4.20925e-06
3.81053e-05
4.20696e-06
3.39299e-05
4.17508e-06
2.97483e-05
4.18088e-06
2.5817e-05
3.93051e-06
2.23784e-05
3.43851e-06
1.96029e-05
2.77576e-06
1.75524e-05
2.05096e-06
1.60559e-05
1.49699e-06
1.48847e-05
1.17165e-06
1.37418e-05
1.14339e-06
1.22771e-05
1.46515e-06
1.01511e-05
2.1262e-06
7.05372e-06
3.09739e-06
2.81327e-06
4.24048e-06
-2.7643e-06
5.57749e-06
-9.56977e-06
6.8051e-06
-1.74738e-05
7.90371e-06
-2.6078e-05
8.60414e-06
-3.48658e-05
8.78753e-06
-4.35103e-05
8.64385e-06
-5.17374e-05
8.22689e-06
-5.93126e-05
7.57522e-06
-6.59563e-05
6.64374e-06
-7.13599e-05
5.40379e-06
-7.52799e-05
3.92031e-06
-7.75839e-05
2.30406e-06
-7.83036e-05
7.18966e-07
-7.75391e-05
-7.6547e-07
-7.54626e-05
-2.07758e-06
-7.21952e-05
-3.26861e-06
-6.79023e-05
-4.29325e-06
-6.27636e-05
-5.13928e-06
-5.69795e-05
-5.78423e-06
-5.07062e-05
-6.27212e-06
-4.3995e-05
-6.70933e-06
-3.70033e-05
-6.99038e-06
-2.98714e-05
-7.13181e-06
-2.28639e-05
-7.0077e-06
-1.62462e-05
-6.61697e-06
-1.02333e-05
-6.01105e-06
-4.99731e-06
-5.23418e-06
-6.73135e-07
-4.32289e-06
2.66009e-06
-3.33237e-06
4.91762e-06
-2.25713e-06
6.02119e-06
-1.1034e-06
6.01142e-06
1.04101e-08
5.21668e-06
7.94798e-07
4.37331e-06
8.42023e-07
4.29633e-06
7.73648e-08
4.29546e-06
-6.60508e-06
1.13003e-05
-8.39577e-06
1.92614e-06
-1.0997e-05
3.63375e-06
-1.32917e-05
3.41391e-06
-1.4393e-05
1.54851e-06
-1.40339e-05
-8.36587e-07
-1.21829e-05
-3.41395e-06
-8.87726e-06
-5.87515e-06
-4.27627e-06
-8.107e-06
1.35678e-06
-1.00265e-05
7.75763e-06
-1.14719e-05
1.45417e-05
-1.2529e-05
2.15917e-05
-1.30915e-05
2.8703e-05
-1.31339e-05
3.56609e-05
-1.28776e-05
4.22111e-05
-1.21608e-05
4.81398e-05
-1.11864e-05
5.3455e-05
-9.97636e-06
5.79635e-05
-8.53017e-06
6.16096e-05
-6.91499e-06
6.44224e-05
-5.26259e-06
6.64634e-05
-3.61712e-06
6.77856e-05
-1.96397e-06
6.84975e-05
-3.80238e-07
6.87126e-05
1.10927e-06
6.8539e-05
2.46384e-06
6.79948e-05
3.6543e-06
6.70536e-05
4.64099e-06
6.56923e-05
5.42349e-06
6.37653e-05
6.13545e-06
6.12424e-05
6.72873e-06
5.82369e-05
7.18006e-06
5.48832e-05
7.53463e-06
5.11146e-05
7.69964e-06
4.67674e-05
7.78646e-06
4.17122e-05
7.83184e-06
3.59455e-05
7.81832e-06
2.94691e-05
7.97409e-06
2.2335e-05
8.30638e-06
1.46252e-05
8.85358e-06
6.41526e-06
9.67536e-06
-2.15401e-06
1.06957e-05
-1.08988e-05
1.18423e-05
-1.96473e-05
1.2989e-05
-2.82284e-05
1.41587e-05
-3.65059e-05
1.50827e-05
-4.43913e-05
1.57885e-05
-5.18817e-05
1.60939e-05
-5.90429e-05
1.59485e-05
-6.56729e-05
1.52736e-05
-7.15912e-05
1.4145e-05
-7.66348e-05
1.26188e-05
-8.07163e-05
1.0725e-05
-8.37895e-05
8.47621e-06
-8.58287e-05
5.95823e-06
-8.67819e-05
3.2559e-06
-8.65828e-05
5.18122e-07
-8.51517e-05
-2.19805e-06
-8.2448e-05
-4.78213e-06
-7.8537e-05
-7.18037e-06
-7.35402e-05
-9.28972e-06
-6.75183e-05
-1.11604e-05
-6.06547e-05
-1.26473e-05
-5.31178e-05
-1.38091e-05
-4.51729e-05
-1.46548e-05
-3.70498e-05
-1.51134e-05
-2.90164e-05
-1.51641e-05
-2.11886e-05
-1.48344e-05
-1.37142e-05
-1.40912e-05
-6.78064e-06
-1.29448e-05
-6.16617e-07
-1.13978e-05
4.52636e-06
-9.46538e-06
8.39497e-06
-7.20109e-06
1.08443e-05
-4.7066e-06
1.17903e-05
-2.0495e-06
1.12744e-05
5.25087e-07
9.5214e-06
2.54672e-06
7.41638e-06
2.94874e-06
6.10266e-06
1.38992e-06
1.04015e-05
-6.45887e-06
1.77592e-05
-8.0545e-06
3.52225e-06
-1.05369e-05
6.11665e-06
-1.28694e-05
5.74673e-06
-1.40163e-05
2.6957e-06
-1.37001e-05
-1.15258e-06
-1.18864e-05
-5.2276e-06
-8.6374e-06
-9.12412e-06
-4.11051e-06
-1.2634e-05
1.46176e-06
-1.5599e-05
7.88425e-06
-1.78948e-05
1.47329e-05
-1.93783e-05
2.18446e-05
-2.02039e-05
2.90158e-05
-2.0306e-05
3.59695e-05
-1.98324e-05
4.25689e-05
-1.87613e-05
4.85819e-05
-1.72004e-05
5.39151e-05
-1.53104e-05
5.84761e-05
-1.30921e-05
6.21802e-05
-1.06203e-05
6.49983e-05
-8.08191e-06
6.69374e-05
-5.55758e-06
6.80394e-05
-3.067e-06
6.83595e-05
-7.01091e-07
6.79676e-05
1.50041e-06
6.6946e-05
3.4847e-06
6.53769e-05
5.22286e-06
6.34059e-05
6.61152e-06
6.09162e-05
7.91263e-06
5.80389e-05
9.01273e-06
5.49729e-05
9.79568e-06
5.16985e-05
1.04556e-05
4.83253e-05
1.09086e-05
4.47768e-05
1.12483e-05
4.10187e-05
1.15446e-05
3.68998e-05
1.1951e-05
3.22738e-05
1.24447e-05
2.72044e-05
1.3044e-05
2.16128e-05
1.38984e-05
1.54929e-05
1.49737e-05
8.88897e-06
1.62795e-05
1.85721e-06
1.77276e-05
-5.55669e-06
1.92562e-05
-1.32885e-05
2.07206e-05
-2.11847e-05
2.20541e-05
-2.91893e-05
2.30866e-05
-3.72135e-05
2.38121e-05
-4.52313e-05
2.41115e-05
-5.31519e-05
2.38687e-05
-6.08328e-05
2.29536e-05
-6.7984e-05
2.12949e-05
-7.4274e-05
1.89071e-05
-7.94236e-05
1.58729e-05
-8.33986e-05
1.24499e-05
-8.61159e-05
8.67472e-06
-8.74109e-05
4.55083e-06
-8.73232e-05
4.30656e-07
-8.58381e-05
-3.68287e-06
-8.30304e-05
-7.58978e-06
-7.89593e-05
-1.1252e-05
-7.37407e-05
-1.45099e-05
-6.76346e-05
-1.72702e-05
-6.0724e-05
-1.95628e-05
-5.3226e-05
-2.13106e-05
-4.53489e-05
-2.25331e-05
-3.7287e-05
-2.31762e-05
-2.92273e-05
-2.32267e-05
-2.13156e-05
-2.27507e-05
-1.37371e-05
-2.16734e-05
-6.72759e-06
-1.99559e-05
-5.78554e-07
-1.75471e-05
4.56388e-06
-1.46085e-05
8.49779e-06
-1.11365e-05
1.1008e-05
-7.21777e-06
1.19766e-05
-3.01798e-06
1.14184e-05
1.0837e-06
9.62677e-06
4.33966e-06
7.64055e-06
4.9361e-06
6.32675e-06
2.70325e-06
1.67291e-05
-7.4429e-06
2.52023e-05
-9.44485e-06
5.52499e-06
-1.24862e-05
9.15856e-06
-1.54824e-05
8.74345e-06
-1.72203e-05
4.43397e-06
-1.72024e-05
-1.1702e-06
-1.5373e-05
-7.05684e-06
-1.18114e-05
-1.26858e-05
-6.75082e-06
-1.76947e-05
-5.68305e-07
-2.1782e-05
6.47331e-06
-2.49371e-05
1.40013e-05
-2.69072e-05
2.18495e-05
-2.80533e-05
2.96052e-05
-2.80625e-05
3.70835e-05
-2.73118e-05
4.40592e-05
-2.57379e-05
5.03984e-05
-2.35407e-05
5.59243e-05
-2.08374e-05
6.05697e-05
-1.77385e-05
6.43012e-05
-1.43526e-05
6.7069e-05
-1.08506e-05
6.88666e-05
-7.35588e-06
6.97407e-05
-3.94184e-06
6.97247e-05
-6.85814e-07
6.89313e-05
2.29333e-06
6.74011e-05
5.01452e-06
6.51869e-05
7.43666e-06
6.25127e-05
9.28591e-06
5.94499e-05
1.09755e-05
5.61028e-05
1.23593e-05
5.25543e-05
1.33435e-05
4.88414e-05
1.41678e-05
4.50358e-05
1.47138e-05
4.1172e-05
1.51121e-05
3.72202e-05
1.54966e-05
3.32773e-05
1.58938e-05
2.93348e-05
1.63868e-05
2.5263e-05
1.71151e-05
2.10522e-05
1.81084e-05
1.65361e-05
1.94889e-05
1.15752e-05
2.12392e-05
5.87597e-06
2.34253e-05
-5.0251e-07
2.5633e-05
-7.6585e-06
2.78753e-05
-1.55327e-05
2.99277e-05
-2.40144e-05
3.15681e-05
-3.28589e-05
3.26566e-05
-4.18741e-05
3.31267e-05
-5.083e-05
3.28244e-05
-5.95088e-05
3.16318e-05
-6.75731e-05
2.93588e-05
-7.48358e-05
2.61692e-05
-8.09868e-05
2.20236e-05
-8.57549e-05
1.72183e-05
-8.90775e-05
1.19981e-05
-9.07742e-05
6.24833e-06
-9.08095e-05
4.66135e-07
-8.93061e-05
-5.18637e-06
-8.63191e-05
-1.05783e-05
-8.19829e-05
-1.55908e-05
-7.64348e-05
-2.00607e-05
-6.98512e-05
-2.38565e-05
-6.24661e-05
-2.695e-05
-5.44704e-05
-2.93078e-05
-4.60864e-05
-3.09182e-05
-3.75137e-05
-3.17495e-05
-2.88695e-05
-3.18715e-05
-2.03346e-05
-3.12856e-05
-1.21837e-05
-2.98232e-05
-4.70676e-06
-2.74316e-05
2.06327e-06
-2.43173e-05
7.73215e-06
-2.02786e-05
1.20173e-05
-1.54215e-05
1.46155e-05
-9.8146e-06
1.54063e-05
-3.80926e-06
1.44057e-05
2.08421e-06
1.19701e-05
6.77811e-06
9.32728e-06
7.57386e-06
7.38881e-06
4.64425e-06
2.41153e-05
-8.92025e-06
3.4123e-05
-1.18222e-05
8.42791e-06
-1.5824e-05
1.31611e-05
-1.99888e-05
1.2909e-05
-2.24768e-05
6.92258e-06
-2.27978e-05
-8.48846e-07
-2.08067e-05
-9.0479e-06
-1.66613e-05
-1.68316e-05
-1.07579e-05
-2.35986e-05
-3.45312e-06
-2.90877e-05
4.59072e-06
-3.2982e-05
1.31699e-05
-3.54873e-05
2.18712e-05
-3.6756e-05
3.0554e-05
-3.67462e-05
3.88046e-05
-3.55635e-05
4.64459e-05
-3.338e-05
5.32939e-05
-3.03893e-05
5.92009e-05
-2.67452e-05
6.41255e-05
-2.26639e-05
6.7999e-05
-1.82266e-05
7.07756e-05
-1.36276e-05
7.24866e-05
-9.0672e-06
7.31468e-05
-4.60226e-06
7.28858e-05
-4.25285e-07
7.17041e-05
3.47452e-06
6.98298e-05
6.88824e-06
6.73341e-05
9.93123e-06
6.4323e-05
1.22957e-05
6.09569e-05
1.43405e-05
5.73634e-05
1.59519e-05
5.35113e-05
1.71951e-05
4.95513e-05
1.81276e-05
4.55273e-05
1.8737e-05
4.14192e-05
1.9219e-05
3.73895e-05
1.9525e-05
3.34753e-05
1.98073e-05
2.96753e-05
2.01865e-05
2.59424e-05
2.08481e-05
2.21981e-05
2.18529e-05
1.81668e-05
2.35199e-05
1.3621e-05
2.57845e-05
8.33991e-06
2.8706e-05
2.04023e-06
3.19324e-05
-5.31279e-06
3.52283e-05
-1.35927e-05
3.82078e-05
-2.26845e-05
4.066e-05
-3.23429e-05
4.23153e-05
-4.22977e-05
4.30819e-05
-5.22501e-05
4.27766e-05
-6.18763e-05
4.12575e-05
-7.09634e-05
3.84454e-05
-7.90197e-05
3.42252e-05
-8.58574e-05
2.88611e-05
-9.12115e-05
2.2572e-05
-9.4808e-05
1.55941e-05
-9.66572e-05
8.09677e-06
-9.66928e-05
4.99955e-07
-9.49766e-05
-6.90392e-06
-9.15936e-05
-1.39623e-05
-8.66428e-05
-2.05406e-05
-8.04329e-05
-2.62681e-05
-7.31312e-05
-3.11562e-05
-6.49944e-05
-3.50857e-05
-5.6247e-05
-3.80544e-05
-4.71382e-05
-4.0025e-05
-3.77614e-05
-4.11236e-05
-2.82884e-05
-4.13423e-05
-1.89494e-05
-4.06239e-05
-9.94966e-06
-3.88231e-05
-1.61055e-06
-3.57712e-05
5.98352e-06
-3.19123e-05
1.24841e-05
-2.67803e-05
1.74257e-05
-2.03629e-05
2.0325e-05
-1.27134e-05
2.09099e-05
-4.39515e-06
1.91981e-05
3.79668e-06
1.57232e-05
1.02526e-05
1.20503e-05
1.12444e-05
8.9938e-06
7.70469e-06
3.31094e-05
-1.06988e-05
4.48224e-05
-1.49963e-05
1.27266e-05
-2.04553e-05
1.8621e-05
-2.60622e-05
1.85167e-05
-2.96329e-05
1.04938e-05
-3.03604e-05
-1.21081e-07
-2.81199e-05
-1.12887e-05
-2.31138e-05
-2.18382e-05
-1.60018e-05
-3.07115e-05
-7.41337e-06
-3.76771e-05
2.05781e-06
-4.24543e-05
1.21279e-05
-4.55583e-05
2.20694e-05
-4.66987e-05
3.18171e-05
-4.6495e-05
4.1106e-05
-4.48535e-05
4.95839e-05
-4.18589e-05
5.71023e-05
-3.79084e-05
6.35383e-05
-3.31813e-05
6.88006e-05
-2.79263e-05
7.28465e-05
-2.22726e-05
7.56839e-05
-1.64655e-05
7.72895e-05
-1.06735e-05
7.77242e-05
-5.03758e-06
7.71177e-05
1.80666e-07
7.5528e-05
5.06364e-06
7.31732e-05
9.24291e-06
7.02e-05
1.29047e-05
6.67521e-05
1.57444e-05
6.30461e-05
1.8047e-05
5.90524e-05
1.99453e-05
5.49246e-05
2.13222e-05
5.07775e-05
2.22744e-05
4.6607e-05
2.29075e-05
4.2455e-05
2.3371e-05
3.84154e-05
2.35646e-05
3.45617e-05
2.36606e-05
3.09628e-05
2.37847e-05
2.75368e-05
2.42731e-05
2.41499e-05
2.52389e-05
2.04741e-05
2.71951e-05
1.62516e-05
3.00064e-05
1.10331e-05
3.39238e-05
4.66244e-06
3.83024e-05
-2.98624e-06
4.28763e-05
-1.18282e-05
4.70492e-05
-2.16534e-05
5.04844e-05
-3.222e-05
5.28809e-05
-4.32266e-05
5.4088e-05
-5.43932e-05
5.39429e-05
-6.53161e-05
5.21801e-05
-7.55391e-05
4.86683e-05
-8.4742e-05
4.34276e-05
-9.24711e-05
3.65893e-05
-9.85648e-05
2.86642e-05
-0.000102612
1.96394e-05
-0.000104651
1.01343e-05
-0.000104546
3.93758e-07
-0.000102461
-8.98739e-06
-9.84202e-05
-1.80023e-05
-9.27737e-05
-2.61857e-05
-8.56745e-05
-3.33657e-05
-7.74237e-05
-3.94066e-05
-6.83151e-05
-4.41947e-05
-5.858e-05
-4.77909e-05
-4.84233e-05
-5.01836e-05
-3.80555e-05
-5.14937e-05
-2.75997e-05
-5.18005e-05
-1.72716e-05
-5.09537e-05
-7.3937e-06
-4.8702e-05
2.21371e-06
-4.53799e-05
1.10194e-05
-4.07197e-05
1.87458e-05
-3.45075e-05
2.46731e-05
-2.62902e-05
2.81331e-05
-1.61749e-05
2.84799e-05
-4.74333e-06
2.57927e-05
6.48621e-06
2.08535e-05
1.51908e-05
1.56934e-05
1.64097e-05
1.11361e-05
1.22603e-05
4.42468e-05
-1.25908e-05
5.74139e-05
-1.86991e-05
1.88362e-05
-2.6184e-05
2.61069e-05
-3.42656e-05
2.6599e-05
-3.94535e-05
1.5682e-05
-4.07173e-05
1.1426e-06
-3.80083e-05
-1.39981e-05
-3.16467e-05
-2.82003e-05
-2.27202e-05
-3.96387e-05
-1.21676e-05
-4.82308e-05
-6.87485e-07
-5.39356e-05
1.10001e-05
-5.72473e-05
2.25679e-05
-5.82678e-05
3.37543e-05
-5.76826e-05
4.41882e-05
-5.5288e-05
5.36789e-05
-5.13503e-05
6.19896e-05
-4.62201e-05
6.90694e-05
-4.0262e-05
7.47518e-05
-3.36095e-05
7.90276e-05
-2.65487e-05
8.18618e-05
-1.92996e-05
8.32796e-05
-1.2091e-05
8.33886e-05
-5.14618e-06
8.22906e-05
1.27936e-06
8.01089e-05
7.24604e-06
7.71417e-05
1.22107e-05
7.36e-05
1.64469e-05
6.96809e-05
1.96645e-05
6.54188e-05
2.23102e-05
6.10067e-05
2.43588e-05
5.65553e-05
2.57744e-05
5.20804e-05
2.67491e-05
4.76286e-05
2.73582e-05
4.33468e-05
2.76511e-05
3.92805e-05
2.76291e-05
3.55091e-05
2.74304e-05
3.21681e-05
2.71243e-05
2.91781e-05
2.72621e-05
2.6386e-05
2.803e-05
2.3402e-05
3.01782e-05
1.97779e-05
3.36295e-05
1.48548e-05
3.88459e-05
8.40394e-06
4.47522e-05
4.27852e-07
5.08512e-05
-9.06849e-06
5.65446e-05
-1.98491e-05
6.12646e-05
-3.16281e-05
6.46599e-05
-4.4073e-05
6.6533e-05
-5.6802e-05
6.66719e-05
-6.93655e-05
6.47436e-05
-8.12484e-05
6.05511e-05
-9.18922e-05
5.40709e-05
-0.000100935
4.56318e-05
-0.00010791
3.56382e-05
-0.000112611
2.43407e-05
-0.000114794
1.2317e-05
-0.000114594
1.92958e-07
-0.000111946
-1.16371e-05
-0.000107136
-2.28149e-05
-0.000100429
-3.28959e-05
-9.21509e-05
-4.16464e-05
-8.26876e-05
-4.88734e-05
-7.23277e-05
-5.45589e-05
-6.13783e-05
-5.87446e-05
-4.99957e-05
-6.15691e-05
-3.84312e-05
-6.30595e-05
-2.67675e-05
-6.34649e-05
-1.5253e-05
-6.24686e-05
-4.12331e-06
-5.98324e-05
6.82689e-06
-5.63314e-05
1.72628e-05
-5.11568e-05
2.66755e-05
-4.39199e-05
3.43235e-05
-3.39378e-05
3.87309e-05
-2.0584e-05
3.87924e-05
-4.80461e-06
3.48043e-05
1.04762e-05
2.75844e-05
2.2407e-05
2.02679e-05
2.37297e-05
1.36462e-05
1.88793e-05
5.78929e-05
-1.40919e-05
7.15065e-05
-2.2688e-05
2.74336e-05
-3.30893e-05
3.65091e-05
-4.50229e-05
3.8533e-05
-5.26142e-05
2.32735e-05
-5.4787e-05
3.31519e-06
-5.1426e-05
-1.73597e-05
-4.28399e-05
-3.67869e-05
-3.11093e-05
-5.13698e-05
-1.78575e-05
-6.14836e-05
-3.99745e-06
-6.77966e-05
9.87415e-06
-7.11203e-05
2.35492e-05
-7.1944e-05
3.63334e-05
-7.04681e-05
4.83048e-05
-6.72606e-05
5.90459e-05
-6.20923e-05
6.83226e-05
-5.54972e-05
7.60608e-05
-4.80004e-05
8.22168e-05
-3.97655e-05
8.67307e-05
-3.10626e-05
8.9556e-05
-2.21247e-05
9.07264e-05
-1.32608e-05
9.03838e-05
-4.8031e-06
8.87075e-05
2.95611e-06
8.57129e-05
1.02414e-05
8.19803e-05
1.59437e-05
7.76573e-05
2.07705e-05
7.29916e-05
2.43307e-05
6.81647e-05
2.71367e-05
6.32507e-05
2.9272e-05
5.82749e-05
3.07497e-05
5.33532e-05
3.16708e-05
4.85559e-05
3.21557e-05
4.4011e-05
3.21963e-05
3.98325e-05
3.18075e-05
3.61792e-05
3.10832e-05
3.32245e-05
3.00783e-05
3.08934e-05
2.95927e-05
2.90311e-05
2.98918e-05
2.70151e-05
3.2194e-05
2.42372e-05
3.64073e-05
2.00163e-05
4.30665e-05
1.37197e-05
5.10488e-05
5.34197e-06
5.92292e-05
-5.0101e-06
6.68965e-05
-1.7049e-05
7.33035e-05
-3.04216e-05
7.80331e-05
-4.4751e-05
8.08627e-05
-5.95767e-05
8.14973e-05
-7.4281e-05
7.94477e-05
-8.82564e-05
7.45267e-05
-0.000100866
6.6681e-05
-0.000111605
5.63716e-05
-0.000119815
4.38488e-05
-0.000125202
2.97273e-05
-0.000127676
1.47899e-05
-0.000127094
-3.90628e-07
-0.000123692
-1.5041e-05
-0.000117772
-2.87375e-05
-0.000109722
-4.09483e-05
-9.9986e-05
-5.13841e-05
-8.89463e-05
-5.99127e-05
-7.70284e-05
-6.6476e-05
-6.45696e-05
-7.12026e-05
-5.1844e-05
-7.42939e-05
-3.88811e-05
-7.60219e-05
-2.59737e-05
-7.6372e-05
-1.32218e-05
-7.52205e-05
-4.30555e-07
-7.26241e-05
1.20877e-05
-6.885e-05
2.45409e-05
-6.36095e-05
3.65942e-05
-5.59722e-05
4.68929e-05
-4.42362e-05
5.31207e-05
-2.68133e-05
5.28805e-05
-4.56391e-06
4.67397e-05
1.66185e-05
3.58694e-05
3.32791e-05
2.56468e-05
3.39515e-05
1.62126e-05
2.83161e-05
7.41061e-05
-1.60966e-05
8.76037e-05
-2.88025e-05
4.01403e-05
-4.20913e-05
4.97985e-05
-5.88384e-05
5.52803e-05
-7.01069e-05
3.4542e-05
-7.36796e-05
6.88776e-06
-6.91393e-05
-2.19005e-05
-5.69918e-05
-4.89351e-05
-4.12385e-05
-6.71239e-05
-2.42131e-05
-7.85099e-05
-7.21505e-06
-8.47954e-05
9.28772e-06
-8.76238e-05
2.52566e-05
-8.79134e-05
4.02373e-05
-8.54492e-05
5.38938e-05
-8.09173e-05
6.60258e-05
-7.42246e-05
7.6417e-05
-6.58888e-05
8.49687e-05
-5.65526e-05
9.16277e-05
-4.64247e-05
9.6377e-05
-3.58117e-05
9.9132e-05
-2.48795e-05
9.99289e-05
-1.40576e-05
9.8924e-05
-3.79816e-06
9.63118e-05
5.56811e-06
9.25818e-05
1.39712e-05
8.75337e-05
2.09912e-05
8.22814e-05
2.60223e-05
7.66911e-05
2.99213e-05
7.11775e-05
3.26514e-05
6.56533e-05
3.47975e-05
6.01797e-05
3.62244e-05
5.47562e-05
3.70948e-05
4.9482e-05
3.74298e-05
4.45334e-05
3.71442e-05
4.0106e-05
3.62338e-05
3.65149e-05
3.46735e-05
3.40204e-05
3.25722e-05
3.26111e-05
3.10017e-05
3.19728e-05
3.05303e-05
3.14917e-05
3.26757e-05
3.02019e-05
3.76979e-05
2.67239e-05
4.65453e-05
2.07072e-05
5.7066e-05
1.19117e-05
6.80257e-05
5.19216e-07
7.82899e-05
-1.31693e-05
8.69918e-05
-2.85872e-05
9.34503e-05
-4.53035e-05
9.75782e-05
-6.27276e-05
9.89205e-05
-8.01481e-05
9.6868e-05
-9.68443e-05
9.12236e-05
-0.000111999
8.18366e-05
-0.000124864
6.9237e-05
-0.000134652
5.36379e-05
-0.000140973
3.60489e-05
-0.000143622
1.7438e-05
-0.00014254
-1.47111e-06
-0.000138098
-1.94804e-05
-0.000130739
-3.60948e-05
-0.000120943
-5.07409e-05
-0.000109245
-6.30802e-05
-9.62064e-05
-7.29487e-05
-8.23652e-05
-8.03162e-05
-6.81738e-05
-8.53943e-05
-5.39413e-05
-8.85273e-05
-3.9587e-05
-9.03772e-05
-2.52291e-05
-9.07306e-05
-1.10152e-05
-8.9435e-05
3.20038e-06
-8.684e-05
1.75501e-05
-8.31994e-05
3.24922e-05
-7.85501e-05
4.81562e-05
-7.16351e-05
6.30969e-05
-5.91765e-05
7.24781e-05
-3.61938e-05
7.18351e-05
-3.91953e-06
6.23889e-05
2.60608e-05
4.61169e-05
4.95521e-05
3.28873e-05
4.71753e-05
1.96112e-05
4.15916e-05
9.37155e-05
-1.6943e-05
0.000104547
-4.22935e-05
6.54914e-05
-5.94283e-05
6.69338e-05
-7.89416e-05
7.47935e-05
-9.438e-05
4.99802e-05
-9.93148e-05
1.18222e-05
-9.26769e-05
-2.85387e-05
-7.47015e-05
-6.69109e-05
-5.27887e-05
-8.90372e-05
-3.05361e-05
-0.000100763
-9.68586e-06
-0.000105646
9.81044e-06
-0.00010712
2.82585e-05
-0.000106362
4.58873e-05
-0.000103078
6.15067e-05
-9.65369e-05
7.53362e-05
-8.80544e-05
8.69851e-05
-7.75379e-05
9.64037e-05
-6.59715e-05
0.000103724
-5.37456e-05
0.000108733
-4.0821e-05
0.000111341
-2.74886e-05
0.000111547
-1.42634e-05
0.000109564
-1.81531e-06
0.000105638
9.49436e-06
0.000100479
1.91314e-05
9.42561e-05
2.72145e-05
8.77142e-05
3.25654e-05
8.09404e-05
3.66958e-05
7.45487e-05
3.90434e-05
6.84343e-05
4.0912e-05
6.2353e-05
4.23058e-05
5.63698e-05
4.3078e-05
5.0508e-05
4.32919e-05
4.49664e-05
4.26861e-05
4.02198e-05
4.09806e-05
3.65452e-05
3.83484e-05
3.43444e-05
3.47734e-05
3.38219e-05
3.15245e-05
3.49433e-05
2.94093e-05
3.7417e-05
3.02023e-05
3.88117e-05
3.63036e-05
3.64306e-05
4.89269e-05
3.00158e-05
6.34811e-05
2.03818e-05
7.76594e-05
7.69662e-06
9.09748e-05
-7.8174e-06
0.000102505
-2.57543e-05
0.000111387
-4.54292e-05
0.000117253
-6.6154e-05
0.000119645
-8.71015e-05
0.000117815
-0.000107337
0.000111459
-0.000125899
0.000100398
-0.000141572
8.49098e-05
-0.000153403
6.54684e-05
-0.000160715
4.33628e-05
-0.000163587
2.03113e-05
-0.000161777
-3.27767e-06
-0.000155958
-2.52963e-05
-0.000146699
-4.53529e-05
-0.000134604
-6.28375e-05
-0.000120388
-7.72989e-05
-0.000104883
-8.84557e-05
-8.8772e-05
-9.64283e-05
-7.26367e-05
-0.000101531
-5.65991e-05
-0.000104566
-4.0659e-05
-0.000106318
-2.48307e-05
-0.00010656
-8.96973e-06
-0.000105297
6.7122e-06
-0.000102523
2.29055e-05
-9.93938e-05
4.11478e-05
-9.67938e-05
6.24245e-05
-9.29127e-05
8.47757e-05
-8.153e-05
9.92631e-05
-5.06828e-05
9.8051e-05
-2.70511e-06
8.41703e-05
3.99403e-05
6.32326e-05
7.04922e-05
4.76669e-05
6.27448e-05
2.48462e-05
6.44142e-05
0.000118564
-4.93039e-06
0.000109478
-5.98602e-05
0.000120422
-9.43703e-05
0.000101444
-0.000115095
9.55177e-05
-0.000132935
6.782e-05
-0.00013844
1.73271e-05
-0.000127389
-3.95905e-05
-9.7961e-05
-9.63395e-05
-6.58438e-05
-0.000121155
-3.72506e-05
-0.000129356
-1.24006e-05
-0.000130496
9.65885e-06
-0.00012918
3.02777e-05
-0.000126981
5.02152e-05
-0.000123016
6.89706e-05
-0.000115293
8.49803e-05
-0.000104065
9.87944e-05
-9.13526e-05
0.000110038
-7.72154e-05
0.000118449
-6.21576e-05
0.000123978
-4.63495e-05
0.000126483
-2.99935e-05
0.000126013
-1.37933e-05
0.00012281
1.38782e-06
0.000117199
1.51063e-05
0.000110041
2.62899e-05
0.000102157
3.50987e-05
9.38133e-05
4.09092e-05
8.58153e-05
4.46942e-05
7.84875e-05
4.63717e-05
7.1665e-05
4.77353e-05
6.51144e-05
4.88571e-05
5.85576e-05
4.96355e-05
5.19948e-05
4.98552e-05
4.5739e-05
4.89424e-05
4.01083e-05
4.66119e-05
3.55125e-05
4.29445e-05
3.22384e-05
3.80478e-05
3.1674e-05
3.20887e-05
3.57092e-05
2.53735e-05
4.48878e-05
2.10233e-05
5.22536e-05
2.89375e-05
5.1886e-05
4.92944e-05
4.42719e-05
7.10961e-05
3.21193e-05
8.98128e-05
1.68492e-05
0.000106245
-1.3182e-06
0.000120673
-2.22553e-05
0.000132323
-4.5485e-05
0.000140482
-7.02657e-05
0.000144425
-9.56428e-05
0.000143191
-0.000120444
0.000136259
-0.000143231
0.000123183
-0.000162812
0.000104491
-0.000177218
7.98747e-05
-0.000185866
5.20108e-05
-0.000188824
2.32675e-05
-0.000185794
-6.31015e-06
-0.000178017
-3.30762e-05
-0.000166223
-5.71496e-05
-0.000151132
-7.79313e-05
-0.000133611
-9.48207e-05
-0.000114603
-0.000107464
-9.51e-05
-0.000115932
-7.5806e-05
-0.000120826
-5.74192e-05
-0.000122954
-3.97153e-05
-0.000124024
-2.15013e-05
-0.000124776
-4.27317e-06
-0.000122527
1.23748e-05
-0.000119172
2.90689e-05
-0.000116088
4.89819e-05
-0.000116708
7.77625e-05
-0.000121693
0.000117922
-0.000121687
0.000145109
-7.78661e-05
0.000141777
6.28866e-07
0.000121282
6.04373e-05
9.82259e-05
9.35452e-05
7.34347e-05
8.75377e-05
2.67283e-05
0.000111118
0.000145291
1.20763e-05
9.7402e-05
-4.46324e-05
0.00017713
-0.000138596
0.000195408
-0.00017799
0.000134911
-0.000197973
8.78024e-05
-0.000205486
2.48402e-05
-0.000184184
-6.08927e-05
-0.000129516
-0.000151008
-7.79919e-05
-0.000172679
-4.37466e-05
-0.000163602
-1.85045e-05
-0.000155739
3.88033e-06
-0.000151565
2.6472e-05
-0.000149573
4.9469e-05
-0.000146013
7.13047e-05
-0.000137129
9.05727e-05
-0.000123333
0.000106706
-0.000107487
0.000120647
-9.11568e-05
0.000131292
-7.28031e-05
0.000138132
-5.31888e-05
0.000140996
-3.28573e-05
0.000140357
-1.3155e-05
0.000136443
5.30219e-06
0.000129266
2.22833e-05
0.000120243
3.53126e-05
0.000109816
4.55255e-05
9.91779e-05
5.15471e-05
8.97424e-05
5.41297e-05
8.16409e-05
5.44731e-05
7.48445e-05
5.45315e-05
6.84656e-05
5.5236e-05
6.17574e-05
5.63437e-05
5.45606e-05
5.70522e-05
4.68647e-05
5.66385e-05
3.86262e-05
5.48504e-05
3.03841e-05
5.11864e-05
2.40321e-05
4.43995e-05
2.40661e-05
3.20546e-05
3.39703e-05
1.54691e-05
5.29969e-05
1.99677e-06
7.00083e-05
1.19269e-05
7.47205e-05
4.45826e-05
6.65892e-05
7.92271e-05
5.0075e-05
0.000106327
2.94607e-05
0.000126859
6.94506e-06
0.000143188
-1.79344e-05
0.000157203
-4.52914e-05
0.000167838
-7.46969e-05
0.000173829
-0.000105272
0.000173766
-0.000135551
0.000166538
-0.000163971
0.000151603
-0.000188029
0.000128548
-0.000206186
9.80301e-05
-0.000216602
6.24226e-05
-0.000218478
2.51403e-05
-0.00021303
-1.17585e-05
-0.000201642
-4.44643e-05
-0.000186015
-7.27759e-05
-0.000166929
-9.70169e-05
-0.000144718
-0.000117031
-0.000120344
-0.000131838
-9.55616e-05
-0.000140714
-7.24343e-05
-0.000143953
-5.1336e-05
-0.000144053
-3.15183e-05
-0.000143842
-1.19467e-05
-0.000144347
6.25221e-06
-0.000140725
2.00465e-05
-0.000132966
2.96376e-05
-0.00012568
4.15406e-05
-0.000128611
7.808e-05
-0.000158232
0.000154952
-0.000198561
0.000219901
-0.000142817
0.000219294
1.23073e-06
0.000185159
9.45739e-05
0.000150095
0.000128608
9.03454e-05
0.000147286
1.75662e-05
0.000183899
0.000162857
2.4182e-05
7.32203e-05
3.4365e-05
0.000166947
-9.64663e-05
0.000326238
-0.000231544
0.000269989
-0.000280117
0.000136375
-0.000300209
4.49324e-05
-0.000266381
-9.47213e-05
-0.000172637
-0.000244752
-8.27999e-05
-0.000262517
-3.47896e-05
-0.000211613
-1.20686e-05
-0.00017846
8.77118e-06
-0.000172405
3.56817e-05
-0.000176484
6.48875e-05
-0.00017522
8.8718e-05
-0.00016096
0.000105012
-0.000139627
0.000118188
-0.000120663
0.000130275
-0.000103243
0.000141301
-8.38292e-05
0.000149001
-6.08887e-05
0.000152261
-3.61185e-05
0.000151139
-1.20327e-05
0.000146338
1.01027e-05
0.000137461
3.11606e-05
0.000125842
4.69318e-05
0.000112375
5.89926e-05
9.87019e-05
6.52202e-05
8.73177e-05
6.55139e-05
7.93922e-05
6.23986e-05
7.43045e-05
5.96191e-05
6.97582e-05
5.97823e-05
6.42066e-05
6.18951e-05
5.66609e-05
6.45977e-05
4.64048e-05
6.68945e-05
3.35084e-05
6.77469e-05
2.09128e-05
6.37824e-05
1.42055e-05
5.11068e-05
1.96353e-05
2.66244e-05
3.82699e-05
-3.16555e-06
6.4297e-05
-2.40305e-05
8.7471e-05
-1.12481e-05
9.84526e-05
3.36001e-05
9.3541e-05
8.41381e-05
7.50745e-05
0.000124793
4.88889e-05
0.000153045
1.92583e-05
0.000172819
-1.1878e-05
0.000188339
-4.42445e-05
0.000200205
-7.80063e-05
0.000207592
-0.000113194
0.000208955
-0.000148978
0.000202322
-0.000183976
0.0001866
-0.000214222
0.000158793
-0.000237071
0.000120881
-0.000249339
7.46918e-05
-0.000249358
2.51606e-05
-0.000239229
-2.1886e-05
-0.000222372
-6.13194e-05
-0.000201325
-9.38216e-05
-0.00017692
-0.000121422
-0.000148995
-0.000144956
-0.000119384
-0.000161449
-9.1514e-05
-0.000168584
-6.9011e-05
-0.000166456
-5.29604e-05
-0.000160104
-3.88354e-05
-0.000157966
-2.13607e-05
-0.000161821
-3.09689e-06
-0.000158988
6.5952e-06
-0.000142657
5.26655e-06
-0.000124353
1.1894e-05
-0.00013524
6.47729e-05
-0.000211112
0.000175986
-0.000309776
0.000290246
-0.000257077
0.000313337
-2.1861e-05
0.00026288
0.000145031
0.000168767
0.000222723
3.43614e-05
0.000281689
-1.07841e-05
0.000229043
0.000152073
0.000139549
-6.63286e-05
0.000239909
6.65867e-05
0.000122336
0.00044381
-0.000143467
0.000535793
-0.000315085
0.000307992
-0.000383214
0.000113061
-0.000368267
-0.000109667
-0.000261594
-0.000351426
-0.000122772
-0.000401338
-1.99904e-05
-0.000314394
3.25953e-05
-0.000231046
6.90986e-05
-0.000208908
0.000110144
-0.000217529
0.000147513
-0.000212589
0.000168665
-0.000182112
0.000172391
-0.000143354
0.000168877
-0.000117149
0.000168426
-0.000102793
0.000173481
-8.88842e-05
0.000179772
-6.71795e-05
0.000182304
-3.86504e-05
0.000178067
-7.7954e-06
0.000166984
2.11862e-05
0.000152136
4.60084e-05
0.00013308
6.59868e-05
0.000114673
7.74e-05
9.86354e-05
8.12575e-05
8.74588e-05
7.66902e-05
8.0772e-05
6.90849e-05
7.64992e-05
6.38912e-05
7.19359e-05
6.43447e-05
6.5583e-05
6.82472e-05
5.64451e-05
7.37355e-05
4.36791e-05
7.96606e-05
2.94539e-05
8.19718e-05
1.97012e-05
7.35347e-05
2.20383e-05
4.87698e-05
3.77772e-05
1.08855e-05
6.03216e-05
-2.57106e-05
8.17404e-05
-4.54499e-05
9.88522e-05
-2.83608e-05
0.000109233
2.3218e-05
0.000107832
8.5539e-05
9.23238e-05
0.000140301
6.61438e-05
0.000179224
3.38804e-05
0.000205082
-1.45002e-06
0.00022367
-3.90823e-05
0.000237838
-7.86367e-05
0.000247147
-0.000120522
0.00025084
-0.000165705
0.000247505
-0.000212022
0.000232919
-0.000254089
0.000200864
-0.000284747
0.000151541
-0.000299422
8.93667e-05
-0.000297344
2.30825e-05
-0.000283692
-3.55391e-05
-0.000261973
-8.3039e-05
-0.000234301
-0.000121494
-0.000202246
-0.000153477
-0.000168843
-0.000178359
-0.00013846
-0.000191831
-0.00011835
-0.000188693
-0.000112036
-0.000172769
-0.000113529
-0.000158611
-0.00010964
-0.000161856
-9.36779e-05
-0.000177783
-6.5807e-05
-0.00018686
-3.22605e-05
-0.000176207
3.86364e-06
-0.000160478
6.37372e-05
-0.000195113
0.000155799
-0.000303174
0.000254759
-0.000408737
0.000349489
-0.00035181
0.00036704
-3.94093e-05
0.000265443
0.000246625
3.83747e-05
0.00044979
-0.000144771
0.000464836
-9.81602e-05
0.000182433
5.39121e-05
0.000251865
-0.000318193
0.000415027
-9.65765e-05
0.000326685
0.000532152
5.312e-05
0.000809359
-0.000238422
0.000599535
-0.000413399
0.000288038
-0.000471255
-5.18118e-05
-0.000412148
-0.000410531
-0.000262101
-0.000551385
-9.64695e-05
-0.000480025
3.64803e-05
-0.000363995
0.000134883
-0.000307311
0.000211954
-0.000294601
0.000263746
-0.00026438
0.000285384
-0.00020375
0.000281943
-0.000139913
0.000267729
-0.000102935
0.000258082
-9.31471e-05
0.000260131
-9.0933e-05
0.000268065
-7.51141e-05
0.000271045
-4.16303e-05
0.000261805
1.44361e-06
0.000238985
4.40054e-05
0.000208311
7.66822e-05
0.000177222
9.70758e-05
0.000150008
0.000104613
0.000132169
9.90951e-05
0.000124252
8.46069e-05
0.000122851
7.04851e-05
0.00011783
6.89109e-05
0.000105679
7.64948e-05
8.82653e-05
8.56606e-05
7.01558e-05
9.18442e-05
5.42767e-05
9.55388e-05
4.42558e-05
9.19923e-05
4.56052e-05
7.21854e-05
5.94506e-05
3.49242e-05
7.89276e-05
-8.59178e-06
9.45547e-05
-4.13378e-05
0.000101866
-5.27619e-05
0.000100654
-2.71491e-05
9.66452e-05
2.72255e-05
8.96503e-05
9.25329e-05
7.7517e-05
0.000152433
5.84893e-05
0.000198251
3.33904e-05
0.000230181
9.42368e-07
0.000256118
-4.0004e-05
0.000278784
-9.04132e-05
0.000297555
-0.000151194
0.00031162
-0.000220686
0.000316997
-0.000292187
0.000304417
-0.000353512
0.000262186
-0.000393986
0.000192012
-0.000411392
0.000106771
-0.000411338
2.30264e-05
-0.000397466
-4.94131e-05
-0.000372294
-0.000108211
-0.000336351
-0.000157437
-0.000292599
-0.00019723
-0.000248545
-0.000222414
-0.000214116
-0.00022626
-0.000197218
-0.000205592
-0.000193833
-0.000176155
-0.000191352
-0.000161092
-0.000176425