/*--------------------------------*- C++ -*----------------------------------*\
| =========                 |                                                 |
| \\      /  F ield         | OpenFOAM: The Open Source CFD Toolbox           |
|  \\    /   O peration     | Version:  2412                                  |
|   \\  /    A nd           | Website:  www.openfoam.com                      |
|    \\/     M anipulation  |                                                 |
\*---------------------------------------------------------------------------*/
FoamFile
{
    version     2.0;
    format      ascii;
    arch        "LSB;label=32;scalar=64";
    class       volScalarField;
    location    "94";
    object      p_rgh;
}
// * * * * * * * * * * * * * * * * * * * * * * * * * * * * * * * * * * * * * //

dimensions      [1 -1 -2 0 0 0 0];

internalField   nonuniform List<scalar> 
6400
(
20740.4
20731.5
20768.9
20867
21016.4
21202.8
21416.1
21647.4
21891.2
22145.2
22403.9
22662.9
22918.4
23171.2
23422.6
23676.3
23931.3
24193.8
24459.2
24712
24954.8
25203.4
25472
25759.6
26037.7
26271.8
26486.5
26715.7
26944.5
27151
27328.2
27493.6
27649
27792.6
27913.4
27976.9
28010.6
28045.2
28035.6
28028.1
28035.6
28046.4
28019.8
27969.1
27929.7
27895.3
27849.5
27803.3
27769
27745.5
27727.9
27722.4
27727.9
27747.7
27777.3
27825
27888.8
27971
28060.6
28163.6
28274
28395.7
28520.2
28650.9
28780.1
28907.9
29022.4
29133
29234.3
29328.6
29406.6
29474.1
29526.6
29567.7
29593.4
29606.8
29606
29594.9
29577.9
29567.6
20752.5
20737.8
20765.8
20844.7
20972.8
21136
21322.8
21526.2
21742.4
21971.9
22211.1
22451.3
22689.3
22927.8
23168.6
23417.6
23673.5
23939.5
24203
24447.6
24697.1
24962
25252.9
25555.2
25825.4
26060.3
26304.1
26558.3
26818.1
27054.5
27258.7
27444.1
27608.1
27773
27924.9
28012.8
28091.1
28128.4
28143.3
28184.1
28216
28235
28213.1
28202.3
28173.5
28137.5
28089.6
28054.9
28028.5
27998.6
27975.2
27961.1
27961.3
27967.2
27977.2
28005.4
28054.7
28118.8
28187.6
28263.6
28354.2
28445.6
28549.2
28658.3
28777
28887.8
28982.5
29077.9
29172.2
29264.1
29341.1
29404.2
29460.5
29502.6
29536.1
29555.6
29563.1
29559
29549.9
29547.9
20715.4
20697.9
20722.1
20792.2
20901.1
21040.1
21203.2
21384.9
21576.9
21783.5
22006.6
22232
22454.8
22670.5
22910.8
23161.4
23417.8
23673.6
23930.8
24172.8
24432
24719.1
25036.8
25321.7
25587.6
25843.8
26121.1
26417
26697.1
26934.9
27163.8
27372.5
27561.8
27738.4
27908.6
28013.9
28118.4
28188.8
28258.8
28345
28385.8
28397.7
28392.4
28386.9
28389.4
28356.8
28313.7
28292.3
28273.1
28234.7
28202.3
28193.4
28185.1
28169.4
28162.1
28194.1
28216.8
28249
28291.5
28343
28400.6
28480.8
28573
28682.7
28771.7
28861.7
28946.9
29023.7
29117.8
29202.6
29272
29335.7
29387.5
29434.4
29471.3
29499.3
29514.3
29518.9
29511.4
29514.9
20621
20605.5
20630.2
20695.7
20799.5
20928.3
21079.5
21239.8
21409.3
21622.6
21833.2
22041.1
22225.2
22454.1
22712.8
22952.1
23195.9
23444.8
23688
23937.8
24224.7
24545.4
24833.7
25112.4
25399.2
25673.7
25952.5
26277.7
26563.4
26823.3
27052.2
27278.8
27486.7
27695.7
27868.7
27985.2
28129.3
28251.4
28360
28477.6
28497.6
28494.7
28534
28490.9
28489.2
28451.5
28432.1
28442.8
28375.8
28366.5
28383.3
28356.8
28322.1
28245.6
28303.5
28323.7
28317.9
28283.4
28312.2
28347.7
28450.3
28545.4
28629.4
28693.6
28751.5
28820.7
28932.5
29000.8
29060.7
29143.2
29216.8
29276.5
29330.1
29373.7
29411.3
29440.1
29461.5
29466.9
29471.9
29474.2
20481
20471.7
20497.7
20569.4
20669
20794.2
20941.6
21096.4
21259.2
21472.6
21675.3
21831.2
22046.8
22303.3
22531.6
22759.1
22979.4
23205.9
23477
23776.4
24064.9
24357.7
24637.5
24925.3
25219.5
25527.6
25852.8
26138.3
26431.4
26694.6
26943.7
27160.7
27407.8
27624.6
27842.8
28032.3
28213.9
28354.8
28460.6
28422.6
28437.6
28498.1
28622
28642.1
28569.2
28562.3
28542.2
28515.5
28485.7
28456.3
28444.8
28381.9
28348.6
28327.3
28310.2
28341.6
28336.2
28346.2
28359.1
28420.8
28535.8
28549.4
28591
28689.3
28775.6
28787.2
28897.4
28968.9
29028.6
29093.5
29162.3
29224.3
29275.9
29320.5
29355.9
29386.4
29404.9
29421.8
29432.8
29433.4
20305.6
20304
20334.1
20416
20518.6
20643.6
20790.6
20949.3
21120.3
21307.6
21459
21650.8
21919.9
22148.4
22365
22556.4
22756.8
23027.5
23333.2
23608.7
23890.8
24177.1
24427.5
24723.3
25050.1
25371.8
25689.2
26014.6
26330
26511.8
26812.2
27094.5
27370.1
27617.2
27820.6
28002.6
28180.1
28182.2
28252.1
28357
28455.5
28519.5
28707.3
28613.3
28614
28628.1
28622.6
28601.3
28576.5
28543.5
28505.8
28467.6
28432.8
28429.2
28451.1
28405.4
28394.3
28386.8
28390.9
28441
28574.7
28620.5
28585.9
28642.9
28773.8
28820.2
28852.7
28912.9
29005.2
29064.1
29122.3
29174.4
29224.1
29266.2
29304.3
29333.8
29355.2
29379.9
29392
29395
20106.1
20114.3
20159
20238.3
20350.3
20480.3
20632.2
20802.5
20960.8
21112.9
21308.7
21512.8
21797.8
22006.6
22197.6
22302.5
22597.8
22912.9
23177
23449.4
23688
23963.1
24263.3
24574.6
24911.1
25225.4
25536.7
25868
26184.8
26336.3
26678.1
26993.9
27279.3
27534.8
27694.8
27901.8
27886.3
28053.4
28211
28343.7
28455.5
28537.8
28573.3
28603.7
28645
28669.3
28680
28657
28631.8
28606.6
28565.2
28534.4
28493.9
28621.5
28580.7
28445.1
28426.6
28410.8
28517.5
28452
28474.1
28631.1
28681.5
28646.7
28728.7
28813.8
28842
28896.3
28969.1
29034.7
29088.2
29135.3
29175.4
29214.5
29247.1
29275.8
29308.7
29333.3
29349.8
29354.7
19887.8
19900
19964.4
20049.3
20171.2
20307.4
20468.9
20644.1
20762.5
20890.5
21251.2
21478
21672.3
21796.6
21938.3
22162.6
22522.4
22767.3
23016.9
23251.5
23516.5
23810.7
24145.6
24467.8
24743.2
25034.1
25391
25726.2
26047.2
26194.6
26462.8
26894.6
27176.8
27370.3
27434.8
27766
27771.1
27992.9
28179.8
28317.4
28424.5
28507.7
28568.4
28616.3
28661.3
28694
28698.5
28687.4
28655.6
28637.1
28597.7
28559.3
28524
28580.3
28610.8
28516.8
28437
28415.6
28543.2
28651
28499.7
28520
28693.8
28728.5
28729.7
28780.6
28841.1
28889.1
28944.8
28996.7
29046.2
29086.2
29118.5
29148.9
29182.2
29218.8
29253.1
29280
29304.2
29314.9
19662.1
19685.2
19748
19849.5
19989.3
20112
20213.2
20339.9
20503.1
20752.5
21126.1
21271.3
21391.4
21590.9
21820
22086.7
22415.8
22635.7
22867.2
23136.5
23415.5
23702.8
24009.1
24317.9
24521.6
24676
25094.8
25606.1
25826.1
26004.5
26333.1
26780.5
26903.9
27068
27321
27529.5
27807.4
28066.6
28117.4
28256.1
28354.4
28446.8
28528.2
28594.9
28647.4
28671.9
28677
28671
28652.7
28627.9
28594.5
28554
28511.1
28460.2
28621.2
28620.2
28521.4
28404.4
28368.8
28672.5
28674.9
28550
28634.7
28728.5
28754
28776.9
28822.9
28872
28913.6
28950.9
28978.9
29011.7
29044.6
29077.6
29112.8
29148.2
29184.8
29218.6
29254.2
29270.1
19419.5
19460.9
19525.3
19645.1
19749.3
19797
20003
20202.2
20395.1
20587.9
20777.8
20958.4
21140.7
21519.5
21802.8
22025.6
22233.5
22207.3
22511.9
22995.1
23290.4
23558.5
23854.5
23993.4
24169.3
24512.6
24866.6
25421.9
25530.4
25844.4
26188.9
26480
26809.5
27168.3
27182.9
27424.7
27730.8
28268
28176.3
28133.8
28238.9
28347.5
28451.2
28523
28571.1
28607.8
28615.8
28596.4
28592.8
28580
28546.3
28496.5
28461.9
28422.6
28371.6
28607.1
28602.3
28558
28331.7
28524.5
28687.8
28677.3
28625.1
28693.6
28737.1
28763.1
28798.9
28831.7
28851.5
28873.6
28902.9
28931.1
28960.2
28991.7
29024.4
29059.7
29100.7
29145.8
29187.5
29212
19171.9
19219.8
19315.9
19438.2
19426.2
19653.1
19870.6
20077
20275.7
20472.5
20666.3
20851.2
21034.5
21226.8
21663.5
21818.5
21845.7
22078.4
22330.8
22593.1
23048.6
23118.2
23389.4
23674.3
23990.3
24580.1
24958.6
25103.3
25390.7
25947.6
26283.2
26310.9
26592.2
27055.8
27344.2
27522.9
27948.5
28145.1
27962.5
27961.2
28091.2
28477.8
28341.5
28421.9
28463.3
28490.4
28498.7
28500.1
28495.1
28483.7
28452.6
28415.9
28380.8
28350
28309.6
28258.9
28556.3
28560.2
28448.8
28429.8
28526.3
28666.7
28663.1
28676.7
28712.1
28739.7
28752.9
28759.1
28774.8
28795.2
28818.1
28840.3
28862.4
28887.5
28917
28951.5
29000
29048.4
29103.3
29134.2
18914.2
18986.5
19118
19065.8
19273.1
19513.9
19741.3
19954.3
20156.5
20351.7
20542.3
20728.5
20915.8
21109.6
21299.9
21490.8
21694.8
21916.5
22159.3
22410.1
22652.3
22919.2
23193.2
23588.3
24251.6
24684.2
24999
25188.9
25305.7
25744.6
26238.5
26540.3
26776.3
26898
27183.8
27619.7
27851.7
27907.5
27810.1
27904.2
28231.1
28678.5
28717
28288.5
28335.7
28361.9
28371.7
28377.6
28385.3
28376.5
28355
28323.4
28419.1
28272.4
28237.6
28190.8
28140
28481.7
28680.9
28525.4
28527.3
28619.5
28654.1
28668.1
28686.1
28678.3
28682.4
28691.8
28703.7
28714.1
28726
28735.5
28746.4
28761.2
28784.6
28819.8
28869.9
28922.7
28989.8
29044.4
18610.4
18752.3
18887.1
18827
19111.2
19368.4
19603.6
19818.6
20017.6
20205.3
20385.7
20563.3
20743.2
20924.6
21103.3
21313.2
21657.7
22040.1
22395.4
22597.4
22830.3
23252.9
23662.8
23958.2
24222.8
24441.7
24763.4
25141.7
25478.9
25787.4
26019.4
26306.7
26610.5
26878.2
27130.8
27422
27606.1
27715.7
27965.2
28237.7
28439.6
28562.7
28623.2
28655.5
28549.9
28298.2
28318.2
28513.9
28487.6
28289.4
28320.2
28588.3
28771.6
28695.7
28502
28480.9
28483.8
28512.4
28663.8
28665.9
28641.8
28644.9
28656.3
28643.5
28628.3
28630
28634.8
28636.1
28632.1
28627.2
28621.5
28611.1
28605.4
28605
28622.6
28653.4
28703.1
28763.5
28848.9
28927.5
18259.2
18509.1
18721.9
19131.6
19276.3
19417.8
19639.2
19866
20101.5
20335.8
20569.4
20833.4
21113.2
21301.8
21500.5
21814.7
22011.6
22221.6
22436.4
22663.2
22906.9
23161.4
23427.5
23713.6
24015.5
24323.5
24634
24945.7
25263.8
25583.1
25896.3
26200.6
26488.1
26765.6
27041.1
27294.4
27534.7
27771.4
28008.6
28219.5
28386.1
28484.8
28598.9
28728.8
28819
28833.4
28875.8
28940.5
28951.7
28905.3
28915
28935.2
28906.2
28897
28909.4
28909.6
28869.7
28774.8
28742.7
28734.7
28694.3
28648.3
28617
28611.7
28613.3
28610.5
28601.3
28583.1
28558.4
28531.7
28501.1
28464.7
28436.6
28420.4
28427.1
28451.5
28497.1
28570.4
28676.7
28776
17876.5
18296.4
18827.7
19256
19599
19871
20095.5
20294.4
20477.9
20650.2
20816.1
20980
21144.1
21311.9
21486.3
21667.1
21857
22057.4
22268.9
22492.9
22733.5
22991.2
23262.2
23546.9
23843.6
24149.2
24460.2
24774.5
25089.9
25404.2
25710.6
26008.1
26293.7
26572.3
26841.1
27097.1
27342.2
27579.4
27801
28003.5
28178.7
28331.9
28468.7
28599.4
28714
28816.9
28891.9
28939.7
28971.6
28999.5
29005
28988.2
28954.9
28931
28900.7
28864.1
28816.8
28767.1
28713.1
28684.9
28657.6
28636.6
28627.4
28628.5
28622.8
28605.8
28575.7
28533.2
28480.6
28424.3
28361.8
28293.2
28240.4
28201.3
28192
28200.1
28247.9
28322.6
28458.3
28584.5
17484.1
18120.8
18778
19257.7
19605.2
19871.1
20080.6
20260.1
20421.6
20573.6
20723
20874.4
21029.6
21189.5
21356.4
21532.2
21716.4
21911.2
22118.4
22339.7
22577.8
22833
23104.5
23390.9
23692.2
24005
24326.1
24650.5
24975.7
25296.8
25610.4
25911.9
26200.9
26476.8
26740.1
26987.5
27219.9
27436.3
27639.7
27825.4
27994.1
28142.3
28277
28398.9
28511.8
28609.5
28689.6
28745.9
28790.9
28822
28837.5
28832.2
28819.6
28803.6
28787.5
28763.4
28740.1
28719.1
28705.7
28699.2
28692.3
28685.6
28683.4
28676
28656.6
28620.2
28565.8
28489.9
28397.2
28299.5
28193.6
28088
28002.1
27934.9
27898.9
27890
27933.4
28018
28169.9
28346.4
17086.5
18031.9
18835.9
19336.8
19655.7
19863.6
20013.1
20139.9
20259.4
20378.8
20503.3
20634.8
20773.9
20920.2
21074.6
21238.3
21413
21600.9
21804.5
22025.7
22266.5
22528.1
22810.9
23115.3
23437.5
23773.8
24120.1
24472.9
24827.4
25179.3
25521.3
25847.9
26154
26439.6
26703.9
26949.5
27176.2
27386.3
27577.5
27752.5
27908.2
28048.3
28171.7
28285.1
28386.4
28479.1
28556
28620.2
28669.3
28709.1
28732.8
28747
28752.3
28758.2
28759.6
28760.6
28759.4
28765.7
28776
28788
28791.9
28790.9
28782.6
28764
28724.1
28660.5
28569.6
28448.8
28306.5
28153.6
27990.1
27829.1
27697.4
27586.7
27525.1
27501.8
27537.3
27639.5
27827.5
28050
16603.4
17937.8
18880
19338.4
19544.1
19612.3
19770
19901.4
20019.8
20135.1
20251.2
20370.6
20493.6
20620.8
20752.6
20890.5
21036.3
21192.8
21362.1
21546.5
21747.7
21967.1
22205.6
22473.6
22849.5
23239.1
23633
24027.8
24428.5
24840.5
25263.3
25682.2
26067.4
26397.7
26684.5
26938.2
27168.3
27377.4
27568.7
27740.4
27894.5
28029
28149.4
28255.4
28353.2
28440.6
28520.1
28586.8
28644.1
28687.4
28722.2
28747.6
28772.6
28794.9
28817.2
28833.5
28850.2
28868.1
28889.9
28904.6
28909.4
28903.5
28891.2
28866.1
28799.2
28675.9
28525.1
28342.1
28116.8
27848.5
27550.7
27272.9
27083.1
26928.9
26854.2
26876.6
26947.1
27087.6
27361.5
27724.6
16298.1
18560.8
19671.1
19840.4
19569.9
19135.9
18534.9
18016.7
17626.9
17366.8
17219.1
17163.8
17182.4
17257
17375.9
17538.2
17745
18009.4
18340.6
18741.6
19218.3
19774.5
20406.1
21085.4
21704.5
22331
22922.3
23414.6
23760
24065.2
24378.4
24956.7
25559.8
26032.2
26409.2
26725.9
27000
27244.9
27462.3
27658.3
27831.3
27984.4
28116.7
28234.7
28338.2
28434.4
28518.6
28594.3
28656.6
28709.3
28749.7
28786.1
28817.3
28847.4
28868.5
28882.5
28890.4
28901
28905.7
28902.2
28887.5
28866.5
28830.3
28748.3
28482.8
28118.9
27860.3
27553.3
27156
26436.8
25673.2
25048.4
24650
24565.7
24772.5
25170
25639.7
25972.3
26371.5
27086.5
15562.1
13520.6
10529.5
7790.42
5666.43
4189.1
3212.06
2579.84
2178.67
1932.09
1789.38
1719.16
1703.76
1723.58
1775.74
1857.09
1970.06
2127.94
2343.53
2629.52
3006.94
3506.47
4166.4
5034.99
6177.67
7683.23
9664.72
12222.2
15321.5
18139.7
20699.4
22673.7
24453.9
25066.7
25500.6
25924
26312.4
26661.3
26966.6
27238.5
27480.4
27689.1
27870.8
28026.7
28164.9
28287.4
28397.6
28489.9
28567.3
28626.5
28673.9
28709.6
28738.8
28756
28761.9
28753.9
28741.5
28723.7
28688.1
28617.3
28495.1
28318.9
28070.1
27670.8
26563
24063.1
20633.1
16483.2
12630.4
9928.41
8102.48
6967.76
6479.06
6551.32
7231.03
8615.26
10765.8
13692.6
17135.8
20927.5
21.5935
0.0032846
0.00982813
0.00460915
0.00122906
-0.000625105
-0.00168425
-0.00171745
-0.00142897
-0.000873574
0.000702318
-1.85911e-05
-0.000379186
0.000703388
-0.000178732
-0.000563455
-0.000741315
-0.000969401
-0.00104076
-0.000903353
-0.000597961
-0.00046646
-0.00138498
-0.00258966
-0.00314625
-0.00335324
-0.00310055
-0.00166817
-0.00157554
719.405
2081.6
4005.23
6784.48
11153.6
16315.9
20634.7
23700.2
25990.4
26202.2
26528.5
26829.9
27101.5
27343.6
27549.9
27725
27880.7
28015.8
28131.1
28221.8
28293.1
28342.7
28378.4
28392.8
28391.3
28367.8
28322
28250.1
28142.7
27963.6
27461.3
25253
21645.3
16587.1
10598.1
5668.87
2643.85
875.038
281.159
53.1862
-0.00728499
-0.0101409
-0.011839
-0.012857
-0.0136754
-0.0140817
-0.0142965
5.80129
50.7673
107.363
149.583
-0.00269861
0.00294561
0.0141379
0.020926
0.0283744
0.0332981
0.0357292
0.0352226
0.0289092
0.0148967
0.00186224
0.00448241
0.0153412
0.0217107
0.0117877
-2.38263e-05
-0.000703864
-0.000846436
-0.000918265
-0.000888642
-0.000760332
-0.000571456
-0.00102288
-0.00199451
-0.002793
-0.00317617
-0.00339516
-0.00332445
-0.0030185
-0.00197296
0.00495031
-0.000546461
-0.00724842
62.1662
589.708
2067.9
4640.83
8266.5
13519.6
18351.6
22033.7
24564.9
26293.2
27018.3
27178
27346.6
27498.5
27622.8
27718.6
27789.7
27838.9
27860.7
27855.9
27819.2
27394.7
25922.3
23563.7
19994.7
15075.4
9496.34
5294.51
2279.45
505.304
0.295137
-0.00502244
-0.0116295
-0.0150988
-0.016405
-0.0170154
-0.0173701
-0.0175775
-0.0177242
-0.0178152
-0.0180535
-0.0181999
-0.0183034
-0.018381
-0.0184493
-0.0184874
-0.0180663
0.0010035
0.00348526
0.0383828
0.0472008
0.0471557
0.0470075
0.0468264
0.0467467
0.0465973
0.021034
9.6257e-05
0.00661865
0.0300031
0.0299379
0.0251114
0.00068615
-0.000652697
-0.000706148
-0.000998782
-0.00129679
-0.00139937
-0.000516762
-0.000557755
-0.00113025
-0.00216167
-0.00273029
-0.0025015
-0.00224585
-0.00424475
0.0127509
0.134677
0.137815
0.0416878
-0.00641655
-0.00615799
-0.00552803
-0.0039046
0.000881597
147.979
991.43
2724.67
5174.79
8029.02
11334.4
14554.5
17008.6
18704
19753.2
20019.2
19909.3
19272.2
17898
15734
12726.5
9289
6240.48
3497.85
1388.7
225.049
0.0237679
0.00256588
-0.0084832
-0.014075
-0.0158981
-0.0162153
-0.0165168
-0.0167395
-0.0169306
-0.017139
-0.0173896
-0.017597
-0.0177569
-0.0178573
-0.018072
-0.0182237
-0.0183371
-0.0184199
-0.0184814
-0.0184881
-0.0184491
0.0013749
-9.72552e-05
0.000801074
0.000801148
0.000731325
0.000634211
0.000524895
0.00041323
0.000281552
0.000132567
6.47045e-05
6.84263e-06
0.00677425
0.0206928
0.00577623
-0.000732278
-0.00065673
-0.000593443
-0.000746325
-0.0010469
-0.00129295
-0.00107274
-0.000768568
-0.00164727
-0.00254371
-0.00276557
-0.00304802
-0.00330995
-0.0036955
-0.0040967
-0.00397958
-0.000495443
0.000260848
-0.00502465
-0.00581932
-0.00600212
-0.00618772
-0.00642298
-0.00661787
-0.00552385
-0.000973261
0.00771596
0.0212684
1.84216
152.393
481.016
881.145
1222.74
1322.08
1268.98
1035.84
647.84
258.12
25.6949
0.0422352
0.0209792
0.00401414
-0.00763348
-0.0133919
-0.0147685
-0.0150956
-0.0154591
-0.0156649
-0.0159457
-0.0162084
-0.016454
-0.0167039
-0.0169314
-0.0171344
-0.0173735
-0.0175835
-0.0177468
-0.0178915
-0.0180482
-0.0182013
-0.0183323
-0.0184219
-0.0184874
-0.0184911
-0.0182641
0.00165187
0.000684929
0.000762374
0.000766016
0.000717961
0.000631365
0.000523639
0.000407415
0.000277081
0.000144438
3.46617e-05
-7.3988e-05
-0.000212162
-0.000387824
-0.000585609
-0.000769254
-0.00090677
-0.000913787
-0.000990876
-0.00109852
-0.00130385
-0.00150466
-0.00181431
-0.00222285
-0.00252847
-0.00270206
-0.00285962
-0.00293715
-0.00325501
-0.00373525
-0.00406908
-0.00446523
-0.00480954
-0.00528367
-0.00559868
-0.00590595
-0.00624077
-0.00660172
-0.00698503
-0.00736265
-0.0076337
-0.00825509
-0.00875275
-0.00909362
-0.00881587
-0.00723164
-0.00514668
-0.00329025
-0.00283036
-0.00342551
-0.00537867
-0.00845344
-0.0113263
-0.0130755
-0.0134757
-0.0137445
-0.0140803
-0.0144496
-0.0145825
-0.0148349
-0.0151111
-0.0153832
-0.0156239
-0.0158963
-0.0161675
-0.016408
-0.0166513
-0.0168906
-0.0171242
-0.0173488
-0.0175493
-0.0177249
-0.0178868
-0.0180412
-0.0181809
-0.0182943
-0.0183776
-0.0184402
-0.0184688
-0.0184584
0.00134417
0.000923611
0.0008184
0.000762775
0.000699957
0.000615008
0.000515975
0.000408267
0.000287708
0.000152753
1.42193e-05
-0.000125445
-0.000269419
-0.00042779
-0.000546439
-0.000672451
-0.000884846
-0.00102794
-0.00112896
-0.00120679
-0.00136513
-0.00157125
-0.0018062
-0.00207972
-0.00241156
-0.00269878
-0.00294001
-0.00302026
-0.00323577
-0.00360931
-0.00402821
-0.00445116
-0.00490593
-0.00528932
-0.00559811
-0.00591893
-0.00627954
-0.006654
-0.00703329
-0.00743559
-0.00789678
-0.00840495
-0.00892031
-0.00939065
-0.00975697
-0.00997859
-0.0104757
-0.0110699
-0.0115941
-0.012063
-0.0125358
-0.0129969
-0.013253
-0.0134293
-0.0136163
-0.0138383
-0.0141006
-0.0143823
-0.0145892
-0.0148337
-0.0150828
-0.0153166
-0.015565
-0.0158333
-0.0161035
-0.016359
-0.0166033
-0.0168417
-0.0170749
-0.0172977
-0.0175004
-0.0176807
-0.0178436
-0.0179974
-0.0181374
-0.0182522
-0.0183343
-0.0183883
-0.0184174
-0.0184153
0.0010463
0.000927108
0.000844359
0.000776642
0.000706337
0.000620116
0.000519203
0.000407398
0.000285574
0.000150463
4.6581e-06
-0.000152571
-0.000326995
-0.000516395
-0.000645071
-0.000721027
-0.000866139
-0.00102939
-0.00118426
-0.00130372
-0.00145035
-0.00164273
-0.00185995
-0.00206988
-0.0023129
-0.00257493
-0.00288999
-0.00313638
-0.00336966
-0.00366459
-0.00404028
-0.00442683
-0.00480632
-0.00522478
-0.00559032
-0.00593505
-0.0063053
-0.00669528
-0.00710834
-0.00754953
-0.0080107
-0.00849703
-0.00895344
-0.00936634
-0.0097619
-0.0101781
-0.0106574
-0.0111599
-0.0116454
-0.012091
-0.0125083
-0.0128936
-0.0132033
-0.0134423
-0.0136698
-0.013871
-0.0140899
-0.0143123
-0.0145337
-0.0147793
-0.0150334
-0.0152764
-0.0155166
-0.0157706
-0.0160342
-0.0162964
-0.0165463
-0.0167848
-0.0170151
-0.0172341
-0.0174354
-0.017616
-0.0177784
-0.0179283
-0.018067
-0.0181849
-0.0182689
-0.0183214
-0.0183497
-0.0183507
0.000919089
0.000893095
0.000844222
0.000782722
0.000712489
0.000628795
0.000529003
0.000412172
0.000282052
0.000142413
-2.88699e-07
-0.000142538
-0.000295718
-0.00048642
-0.000669749
-0.000793259
-0.000919181
-0.00106186
-0.00122275
-0.00136943
-0.0015182
-0.00169706
-0.00191757
-0.00214571
-0.00236814
-0.00258192
-0.0028457
-0.00314698
-0.00344282
-0.00374122
-0.00408592
-0.0044499
-0.00480084
-0.00517738
-0.00556409
-0.00594369
-0.00633734
-0.00674718
-0.00717863
-0.00762671
-0.00807989
-0.00853415
-0.00898321
-0.00942725
-0.00986673
-0.0103089
-0.0107591
-0.0112233
-0.0116791
-0.012102
-0.0124875
-0.012836
-0.0131368
-0.0133971
-0.0136376
-0.013864
-0.0140921
-0.0143059
-0.0145171
-0.0147399
-0.014978
-0.0152252
-0.0154719
-0.0157195
-0.0159712
-0.016227
-0.0164767
-0.016715
-0.0169415
-0.0171549
-0.0173525
-0.017533
-0.0176962
-0.017843
-0.0179755
-0.0180958
-0.0181794
-0.0182342
-0.0182632
-0.0182661
0.000891694
0.000877622
0.000844371
0.00079147
0.000723212
0.000641492
0.000542331
0.00042386
0.000286812
0.000135252
-2.26134e-05
-0.000174673
-0.000315248
-0.000474938
-0.000660985
-0.000826254
-0.000975299
-0.00112002
-0.00128058
-0.00144111
-0.00159589
-0.00175522
-0.00194527
-0.00217373
-0.00241649
-0.0026529
-0.00288009
-0.00315794
-0.00346528
-0.0037748
-0.00410831
-0.00446138
-0.00480786
-0.00516777
-0.00554585
-0.00593903
-0.00635421
-0.00678609
-0.00723126
-0.00768712
-0.00814682
-0.008604
-0.00905442
-0.00950249
-0.00994911
-0.0103913
-0.0108332
-0.0112762
-0.0117101
-0.0121078
-0.0124682
-0.0128017
-0.0131021
-0.0133692
-0.0136122
-0.0138379
-0.0140632
-0.0142852
-0.0145018
-0.0147167
-0.0149381
-0.015174
-0.0154198
-0.0156662
-0.0159107
-0.0161564
-0.0163992
-0.0166332
-0.0168548
-0.0170623
-0.0172548
-0.0174322
-0.0175957
-0.0177426
-0.0178724
-0.0179865
-0.0180723
-0.0181296
-0.0181593
-0.0181631
0.000901522
0.00088643
0.000853931
0.000807373
0.000738173
0.000655744
0.000553903
0.000435022
0.000299722
0.000149092
-1.54241e-05
-0.000185992
-0.000343399
-0.00049519
-0.000666548
-0.000843256
-0.00101489
-0.00117655
-0.00134505
-0.00152096
-0.00169627
-0.00186253
-0.00203019
-0.0022295
-0.00245785
-0.00271804
-0.00295283
-0.0032088
-0.00349582
-0.00379044
-0.00410195
-0.00443771
-0.00478359
-0.00514788
-0.00553098
-0.0059345
-0.00636558
-0.00681504
-0.00727459
-0.00773948
-0.00820574
-0.00866867
-0.00912381
-0.00957669
-0.0100306
-0.0104741
-0.0109064
-0.011334
-0.0117535
-0.0121358
-0.0124744
-0.0127895
-0.0130841
-0.0133525
-0.0135967
-0.0138218
-0.0140401
-0.0142589
-0.0144771
-0.014693
-0.0149086
-0.015132
-0.0153676
-0.0156081
-0.0158464
-0.0160826
-0.0163155
-0.016541
-0.0167556
-0.0169565
-0.0171438
-0.0173172
-0.0174791
-0.0176254
-0.0177554
-0.017866
-0.0179511
-0.0180093
-0.0180396
-0.0180443
0.000917536
0.000903707
0.000870745
0.00083036
0.000755419
0.000672496
0.000566364
0.000442593
0.000304516
0.000156365
-3.08895e-06
-0.000177488
-0.000353478
-0.000519814
-0.000689835
-0.000867478
-0.00104989
-0.00122587
-0.00140175
-0.00158478
-0.00177534
-0.00196168
-0.00213439
-0.00231635
-0.00251317
-0.00275845
-0.00299725
-0.00324336
-0.00351349
-0.00379343
-0.0040858
-0.00440209
-0.0047389
-0.00510574
-0.00549959
-0.0059161
-0.00636235
-0.00683081
-0.00730983
-0.00779054
-0.00826847
-0.00874146
-0.00920175
-0.0096535
-0.0101106
-0.0105584
-0.0109805
-0.0113899
-0.0117995
-0.012176
-0.0125038
-0.0128023
-0.0130819
-0.0133427
-0.0135841
-0.0138092
-0.0140231
-0.014235
-0.0144487
-0.0146636
-0.0148779
-0.0150937
-0.0153174
-0.0155473
-0.0157768
-0.0160031
-0.0162249
-0.0164396
-0.0166448
-0.0168383
-0.0170203
-0.0171902
-0.0173496
-0.0174953
-0.0176251
-0.0177341
-0.0178183
-0.0178758
-0.017906
-0.0179109
0.000939454
0.000926689
0.000895209
0.000847548
0.000776423
0.000690255
0.000583225
0.000456632
0.00031254
0.000158806
-2.88013e-07
-0.000171136
-0.000353495
-0.000535947
-0.000717848
-0.000902247
-0.00109204
-0.00127849
-0.00145879
-0.00163879
-0.00182714
-0.00202159
-0.00220717
-0.00238939
-0.00256885
-0.00278632
-0.00301214
-0.00324391
-0.0034956
-0.00376235
-0.00404412
-0.00435079
-0.00468319
-0.00505142
-0.00545528
-0.00588617
-0.00634727
-0.00683365
-0.00733258
-0.00783305
-0.00832821
-0.00881732
-0.00928845
-0.00973714
-0.0101902
-0.0106423
-0.0110534
-0.0114354
-0.0118251
-0.0121949
-0.0125207
-0.0128155
-0.013086
-0.0133365
-0.0135702
-0.0137929
-0.0140058
-0.014214
-0.0144219
-0.0146315
-0.0148418
-0.0150517
-0.0152651
-0.0154829
-0.0157011
-0.0159164
-0.0161265
-0.0163295
-0.0165243
-0.0167094
-0.0168858
-0.0170523
-0.017209
-0.0173536
-0.0174823
-0.0175901
-0.0176732
-0.01773
-0.0177598
-0.0177648
0.000965096
0.000950479
0.000917372
0.000866991
0.000795564
0.000707865
0.000601397
0.000475725
0.000329739
0.000168414
4.01641e-07
-0.000173897
-0.000358426
-0.000549272
-0.000742637
-0.00093707
-0.00113458
-0.0013302
-0.00151634
-0.00169264
-0.0018687
-0.00205285
-0.00223966
-0.0024232
-0.00259734
-0.00279406
-0.00300366
-0.00322099
-0.00345543
-0.00370914
-0.00398315
-0.00428306
-0.00461201
-0.00497796
-0.00538544
-0.00582923
-0.00631016
-0.00682221
-0.00734787
-0.00787319
-0.00838857
-0.00889741
-0.00938564
-0.00983114
-0.010265
-0.0107162
-0.0111257
-0.0114875
-0.011852
-0.0122072
-0.0125247
-0.0128157
-0.0130818
-0.0133259
-0.0135527
-0.0137712
-0.0139837
-0.0141905
-0.0143936
-0.014596
-0.0147991
-0.0150018
-0.0152057
-0.0154118
-0.0156179
-0.0158212
-0.0160197
-0.0162112
-0.0163956
-0.0165722
-0.016742
-0.0169047
-0.0170585
-0.017201
-0.0173279
-0.0174341
-0.0175159
-0.0175716
-0.0176011
-0.0176059
0.000991958
0.000975481
0.00094095
0.000888984
0.000818123
0.000729441
0.000621407
0.000494747
0.0003483
0.000182715
4.57639e-06
-0.000180374
-0.000371941
-0.00056862
-0.000767827
-0.000967114
-0.00116699
-0.00136564
-0.00155596
-0.00173261
-0.00189979
-0.0020682
-0.00224583
-0.0024257
-0.00259782
-0.00278178
-0.00297805
-0.0031835
-0.00340396
-0.00364467
-0.00390806
-0.00420131
-0.00452373
-0.00488269
-0.00528599
-0.0057371
-0.00624109
-0.00679021
-0.00735514
-0.00791393
-0.00845252
-0.00897817
-0.00948653
-0.00994235
-0.0103539
-0.0107891
-0.011196
-0.0115509
-0.011894
-0.0122321
-0.0125372
-0.0128162
-0.0130743
-0.0133118
-0.013533
-0.0137469
-0.0139569
-0.0141613
-0.0143592
-0.0145534
-0.0147474
-0.0149416
-0.0151361
-0.0153313
-0.0155257
-0.0157173
-0.0159044
-0.0160853
-0.01626
-0.0164284
-0.0165913
-0.0167489
-0.0168989
-0.0170384
-0.0171626
-0.0172665
-0.0173468
-0.0174014
-0.0174308
-0.0174349
0.00101789
0.000998951
0.000966159
0.000915389
0.000846536
0.000757661
0.000647011
0.000515681
0.000365239
0.000195629
9.80759e-06
-0.000186492
-0.000389224
-0.000594609
-0.000799242
-0.00100019
-0.00119723
-0.00139126
-0.00157937
-0.0017563
-0.00192103
-0.00207914
-0.00224515
-0.00241765
-0.0025868
-0.00276223
-0.00294732
-0.00314212
-0.00335032
-0.00357742
-0.00382785
-0.00410596
-0.0044133
-0.00475579
-0.00514547
-0.00559483
-0.0061318
-0.00674879
-0.00736474
-0.00796436
-0.00853654
-0.00907618
-0.00959209
-0.0100656
-0.0104746
-0.0108877
-0.0112748
-0.011621
-0.0119446
-0.0122591
-0.0125517
-0.0128205
-0.0130685
-0.0132976
-0.0135125
-0.0137205
-0.0139249
-0.0141239
-0.0143149
-0.0145001
-0.0146841
-0.0148688
-0.0150541
-0.0152395
-0.0154235
-0.0156045
-0.0157813
-0.0159527
-0.0161184
-0.0162791
-0.0164349
-0.0165865
-0.0167314
-0.0168667
-0.0169872
-0.0170883
-0.0171665
-0.01722
-0.0172491
-0.0172529
0.00104697
0.00102375
0.000994756
0.00094671
0.000879986
0.000791201
0.000677899
0.000540485
0.000382344
0.000205659
1.24836e-05
-0.00019323
-0.000406785
-0.000622368
-0.000834408
-0.00103836
-0.00123264
-0.00141925
-0.00159987
-0.00177344
-0.001938
-0.00209287
-0.00225062
-0.0024145
-0.00257785
-0.00274409
-0.00291687
-0.00309836
-0.00329197
-0.00350232
-0.00373389
-0.0039896
-0.00427133
-0.00458726
-0.00495237
-0.00540038
-0.00599766
-0.0067176
-0.00739953
-0.0080342
-0.00865016
-0.00921327
-0.00972623
-0.0101911
-0.0106008
-0.010998
-0.0113543
-0.011682
-0.0119925
-0.0122791
-0.0125526
-0.0128113
-0.0130518
-0.0132749
-0.0134845
-0.0136865
-0.0138836
-0.0140746
-0.0142573
-0.0144331
-0.0146071
-0.0147822
-0.0149586
-0.0151352
-0.0153105
-0.0154829
-0.0156511
-0.0158142
-0.0159719
-0.016125
-0.0162736
-0.0164183
-0.0165571
-0.0166868
-0.0168028
-0.0169004
-0.0169761
-0.0170283
-0.0170569
-0.0170617
0.00107892
0.0010544
0.00102843
0.000982763
0.000916804
0.000826914
0.000710667
0.000567464
0.000400658
0.00021433
1.22575e-05
-0.000201788
-0.000423732
-0.000647577
-0.00086665
-0.00107507
-0.00126962
-0.0014516
-0.00162498
-0.00179326
-0.0019566
-0.00211109
-0.00226359
-0.00241812
-0.00257209
-0.00272563
-0.00288246
-0.00304645
-0.00322171
-0.00341193
-0.00362033
-0.00384931
-0.00410217
-0.00439119
-0.00472552
-0.00511495
-0.00568114
-0.00647686
-0.00744629
-0.00812939
-0.00876995
-0.0093722
-0.00989724
-0.0103421
-0.0107252
-0.011101
-0.0114249
-0.0117219
-0.0120246
-0.0122972
-0.012553
-0.0127965
-0.0130265
-0.0132413
-0.0134441
-0.0136389
-0.0138274
-0.0140093
-0.0141831
-0.0143502
-0.014515
-0.0146809
-0.014849
-0.0150181
-0.0151865
-0.0153523
-0.0155139
-0.0156701
-0.0158209
-0.0159667
-0.0161079
-0.0162452
-0.0163768
-0.0165
-0.0166106
-0.0167041
-0.0167771
-0.0168277
-0.0168561
-0.0168614
0.00111318
0.00109063
0.0010663
0.00102177
0.000954751
0.000861853
0.000741414
0.000592779
0.000418161
0.000222098
1.03237e-05
-0.000211704
-0.000439591
-0.000667997
-0.000890774
-0.00110221
-0.00129856
-0.00147975
-0.00164947
-0.00181346
-0.00197393
-0.00212673
-0.00227391
-0.00241851
-0.00255825
-0.00269495
-0.0028325
-0.00297619
-0.00313073
-0.00329884
-0.0034821
-0.00368346
-0.00390866
-0.00416549
-0.00444277
-0.00471998
-0.00507609
-0.00571791
-0.00740029
-0.00818804
-0.00880886
-0.00948364
-0.0100607
-0.0104917
-0.0108513
-0.0111954
-0.0114992
-0.0117666
-0.0120389
-0.0122931
-0.0125336
-0.0127652
-0.0129837
-0.013189
-0.0133843
-0.0135713
-0.0137508
-0.0139235
-0.0140889
-0.0142486
-0.0144061
-0.0145645
-0.0147255
-0.0148883
-0.0150513
-0.0152122
-0.0153689
-0.0155199
-0.0156647
-0.0158039
-0.015938
-0.0160675
-0.0161915
-0.0163076
-0.0164122
-0.0165011
-0.0165709
-0.0166197
-0.0166477
-0.0166534
0.00114976
0.00112968
0.00110605
0.00106121
0.000991607
0.000894199
0.000768265
0.000613844
0.000432683
0.000228864
9.00399e-06
-0.000219538
-0.000450959
-0.000680186
-0.000902353
-0.00111327
-0.00131011
-0.00149206
-0.00166111
-0.00182242
-0.00197874
-0.00212672
-0.0022657
-0.00239704
-0.00252079
-0.00263892
-0.00275653
-0.00288016
-0.00301447
-0.00316057
-0.00331841
-0.00349219
-0.00369107
-0.00391992
-0.00417036
-0.00442823
-0.00474062
-0.00550036
-0.0062783