/*--------------------------------*- C++ -*----------------------------------*\
| =========                 |                                                 |
| \\      /  F ield         | OpenFOAM: The Open Source CFD Toolbox           |
|  \\    /   O peration     | Version:  2412                                  |
|   \\  /    A nd           | Website:  www.openfoam.com                      |
|    \\/     M anipulation  |                                                 |
\*---------------------------------------------------------------------------*/
FoamFile
{
    version     2.0;
    format      ascii;
    arch        "LSB;label=32;scalar=64";
    class       volScalarField;
    location    "6.1";
    object      alpha.ethanol;
}
// * * * * * * * * * * * * * * * * * * * * * * * * * * * * * * * * * * * * * //

dimensions      [0 0 0 0 0 0 0];

internalField   nonuniform List<scalar> 
6400
(
1
0.999996
1
1
0.999999
0.999999
1
1
1
1
1
1
1
1
1
1
1
1
1
1
1
1
1
1
1
1
1
1
1
1
1
1
1
1
1
1
1
1
0.999999
0.999999
0.999999
0.999999
0.999999
0.999999
0.999999
1
1
1
1
1
1
1
0.999999
0.999999
1
1
1
1
1
0.999999
0.999999
1
1
1
1
1
0.999999
1
1
1
1
0.999999
0.999999
0.999998
0.999999
1
1
1
1
1
1
0.999998
0.999998
0.999998
1
1
1
0.999999
0.999999
0.999999
1
1
1
1
1
1
1
1
1
1
1
1
1
1
1
1
1
1
1
1
1
1
1
1
1
0.999999
0.999999
0.999999
0.999999
0.999999
0.999999
0.999999
0.999999
0.999999
0.999999
0.999999
1
1
1
1
1
1
1
1
1
1
1
1
1
1
1
1
1
1
0.999999
0.999999
1
1
1
1
0.999999
0.999999
0.999999
1
1
0.999999
0.999999
0.999997
0.999997
0.999998
1
0.999999
0.999997
0.999999
1
1
0.999999
0.999999
0.999999
1
1
1
1
1
0.999999
1
1
1
1
1
1
1
1
1
1
1
1
1
1
1
0.999999
0.999998
0.999998
0.999998
0.999998
0.999998
0.999998
0.999999
0.999999
0.999999
0.999999
0.999999
1
1
1
1
1
1
1
1
1
1
1
1
1
1
1
1
1
1
1
1
0.999999
0.999999
0.999999
1
1
1
1
1
1
1
0.999999
0.999998
0.999997
0.999998
0.999997
0.999996
0.999997
0.999999
0.999999
0.999999
0.999999
0.999999
1
0.999999
0.999999
0.999999
1
1
1
0.999999
0.999999
1
1
1
1
1
1
1
1
1
1
1
1
1
1
1
0.999999
0.999998
0.999998
0.999999
0.999999
0.999998
0.999997
0.999997
0.999998
0.999999
1
1
1
1
1
0.999999
0.999999
0.999999
0.999998
0.999998
0.999998
0.999998
0.999999
0.999999
1
1
1
1
1
0.999999
0.999999
0.999999
0.999998
0.999998
0.999998
1
1
1
1
1
1
0.999999
0.999998
0.999999
0.999999
0.999998
0.999997
0.999997
0.999998
1
0.999998
1
0.999998
0.999999
1
1
1
0.999999
0.999999
1
1
1
0.999999
0.999999
0.999999
1
1
1
1
1
1
0.999999
0.999999
0.999999
1
1
1
1
1
1
1
1
1
1
0.999999
0.999998
0.999998
1
1
1
1
1
0.999999
0.999999
0.999999
0.999998
0.999997
0.999998
0.999998
0.999999
1
1
1
1
1
1
1
0.999999
0.999999
0.999998
0.999998
0.999998
0.999999
1
1
1
1
0.999998
0.999996
0.999996
0.999998
0.999999
0.999999
0.999999
1
1
1
1
1
1
1
1
0.999999
0.999999
1
1
1
1
1
1
1
0.999999
0.999999
0.999999
1
1
1
0.999999
0.999999
0.999999
0.999999
1
1
1
1
1
1
1
1
1
1
1
1
1
1
1
1
1
1
1
1
1
1
0.999999
0.999999
1
1
1
1
1
1
1
1
1
1
1
1
1
1
1
1
1
1
1
1
1
0.999999
0.999999
0.999999
0.999999
0.999998
1
1
1
1
1
1
0.999999
0.999999
0.999998
1
1
0.999999
1
1
1
1
1
1
1
1
1
0.999999
0.999999
0.999999
0.999998
0.999998
0.999999
1
1
1
1
1
1
1
1
1
1
1
1
1
1
1
1
1
1
1
1
1
1
1
1
1
1
1
1
0.999999
1
1
1
1
1
1
0.999999
1
1
1
1
1
1
1
1
1
1
1
1
1
1
0.999999
0.999998
0.999997
0.999998
0.999999
0.999998
0.999997
0.999998
1
0.999999
1
1
1
1
1
1
1
1
1
1
1
1
1
0.999999
0.999999
1
0.999999
1
0.999999
1
1
1
1
1
1
1
1
1
0.999999
0.999999
0.999999
0.999999
0.999999
1
1
1
1
1
1
1
1
1
1
1
1
1
1
1
1
1
1
1
0.999999
0.999997
0.999997
0.999997
0.999998
1
1
1
1
1
1
1
1
1
1
1
0.999999
0.999998
0.999998
0.999998
0.999998
0.999998
0.999998
0.999999
1
1
1
0.999999
1
1
0.999999
1
1
1
1
1
1
1
1
1
1
0.999999
1
1
1
1
0.999999
0.999999
0.999999
0.999999
0.999998
0.999999
0.999999
1
1
1
1
1
1
1
1
1
1
1
1
1
1
1
1
1
1
1
1
1
1
1
1
1
1
1
1
1
0.999999
0.999999
1
1
1
1
1
1
0.999999
0.999999
0.999999
0.999999
0.999999
0.999999
0.999998
0.999998
0.999998
0.999999
0.999999
1
1
1
1
1
0.999999
1
0.999999
0.999999
1
1
1
1
1
1
1
1
1
1
0.999999
1
1
1
1
1
1
1
1
1
1
1
1
1
1
1
1
1
1
1
1
1
1
1
1
1
1
1
1
1
1
1
1
1
1
1
1
1
1
1
1
1
1
1
1
1
1
1
1
1
0.999999
0.999999
0.999999
0.999999
0.999998
0.999998
0.999999
1
1
1
1
1
1
1
1
1
0.999999
1
1
0.999999
0.999999
1
1
1
1
1
1
1
1
1
1
1
1
1
1
1
1
1
1
1
1
1
1
1
1
1
1
1
1
1
1
1
1
1
1
1
1
1
1
1
1
1
1
1
1
1
1
1
1
1
1
1
1
1
1
1
1
1
1
1
1
1
1
1
1
1
1
1
1
1
1
1
0.999999
1
0.999999
1
1
1
1
1
1
1
1
1
1
1
1
1
1
1
1
1
1
1
1
1
1
1
1
1
1
1
1
1
1
1
1
0.999999
0.999999
1
1
1
1
1
1
1
1
1
1
1
1
1
1
1
1
1
1
1
1
1
1
1
1
0.999999
1
1
1
1
1
1
1
1
1
1
1
1
1
1
0.999999
0.999999
1
0.999999
0.999999
0.999999
0.999999
1
1
1
1
1
1
1
1
1
1
1
1
1
1
1
1
1
1
1
1
1
1
1
1
1
1
1
1
1
1
0.999999
0.999999
1
1
1
1
1
1
1
1
1
1
1
1
1
1
1
1
1
1
1
1
1
1
1
1
1
1
1
1
1
1
1
1
1
1
1
1
1
1
1
1
1
1
1
1
1
1
0.999999
0.999999
1
0.999999
0.999998
1
1
1
1
1
1
1
1
1
1
1
1
1
1
1
1
1
1
1
1
1
1
1
1
1
1
1
1
1
1
1
1
1
1
1
1
1
1
1
1
1
1
1
1
1
0.999999
0.999999
0.999998
0.999999
0.999999
1
1
1
1
1
0.999999
0.999999
0.999999
0.999999
1
1
1
1
1
1
1
1
1
1
1
1
1
1
1
1
0.999999
0.999999
0.999988
0.999965
0.999976
0.999999
1
1
1
1
1
1
1
1
1
1
1
1
1
1
1
1
1
1
1
1
1
1
1
1
1
1
1
1
1
1
1
0.999999
0.999999
0.999999
1
1
1
1
1
1
0.999999
0.999999
0.999999
0.999998
0.999998
0.999999
1
1
1
1
1
0.999999
0.999999
0.999999
0.999999
0.999999
1
1
1
1
1
1
1
1
1
1
1
1
1
1
1
1
1
1
1
1
0.999965
0.999965
0.999965
0.999988
1
1
0.999999
1
1
1
1
1
1
1
1
1
1
1
1
1
1
1
1
1
1
1
1
1
1
1
1
1
1
1
1
1
1
1
1
1
1
1
1
1
1
0.999999
0.999998
0.999999
1
1
1
1
1
1
0.999999
1
1
1
1
1
1
1
1
1
1
1
1
1
1
1
1
1
1
1
1
1
1
1
1
1
0.99999
0.999974
0.999965
0.999986
0.999999
0.999999
0.999999
1
0.999999
1
1
1
1
1
1
1
1
1
1
1
1
1
1
1
1
1
1
1
1
1
1
1
1
1
1
1
1
1
1
1
1
1
1
1
1
0.999999
0.999999
0.999999
1
1
1
1
1
1
1
1
1
1
1
1
1
1
1
1
1
1
1
1
1
1
1
1
1
1
1
1
1
1
1
1
1
0.999999
0.999996
0.999994
0.999997
0.999999
1
1
1
1
1
1
1
1
1
1
1
1
1
1
1
1
1
1
1
1
1
1
1
1
1
1
1
1
1
1
1
1
1
1
1
1
0.999999
0.999999
0.999999
0.999999
0.999998
0.999998
0.999999
1
1
1
1
1
1
1
1
1
1
1
1
1
1
1
1
1
1
1
1
1
1
1
1
1
1
1
1
1
1
1
1
1
1
1
1
0.999999
1
1
1
1
1
1
1
1
1
1
1
1
1
1
1
1
1
1
1
1
1
1
1
0.991622
0.976196
0.963201
0.955058
0.952173
0.957592
0.969028
0.982968
0.994156
0.999711
0.999991
0.99998
0.99998
0.999983
0.999984
0.999983
0.999983
0.999983
0.999983
0.999983
0.999984
0.999985
0.999985
0.999983
0.999982
0.999992
0.999994
0.996733
0.988486
0.97649
0.965525
0.959287
0.960904
0.967047
0.978197
0.992153
1
1
1
1
1
1
1
1
1
1
1
1
1
1
1
1
1
1
1
1
1
1
1
1
1
0.999983
0.999936
0.999947
0.999987
0.999988
0.999988
0.999991
0.999919
0.999872
0.999979
1
0.982635
0.951044
0.90476
0.839993
0.756394
0.660639
0.556362
0.457202
0.378669
0.326102
0.292079
0.274505
0.271991
0.285333
0.317592
0.373981
0.464806
0.595086
0.722337
0.83853
0.930526
0.975685
0.995082
0.999548
0.999596
0.999633
0.999638
0.99961
0.999568
0.997688
0.981427
0.944809
0.864136
0.751457
0.633887
0.499403
0.40115
0.339475
0.304941
0.290593
0.293048
0.307645
0.33854
0.387917
0.461449
0.554136
0.650682
0.740924
0.821637
0.886769
0.935768
0.970241
0.994786
0.999662
0.999519
0.999587
0.999821
0.999961
0.999991
0.999988
0.999977
0.999967
0.999988
1
1
1
0.602662
0.602892
0.601387
0.599792
0.598419
0.603133
0.610994
0.614836
0.612274
0.599206
0.574259
0.533563
0.472967
0.392941
0.313828
0.241043
0.173502
0.114363
0.0684588
0.0358309
0.0119632
0.00190811
0.00027286
0.000226249
0.000214765
0.000212762
0.000207464
0.000168054
0.000129454
0.00011055
0.000425164
0.00234902
0.0285243
0.0833114
0.184912
0.334035
0.506176
0.667027
0.775665
0.829318
0.835159
0.792247
0.696279
0.547444
0.37508
0.216575
0.103777
0.0396084
0.00606309
0.000652314
0.000157523
0.000209847
0.000237849
0.000265637
0.00031252
0.000399095
0.000368352
0.000363842
0.00273042
0.0129002
0.0331868
0.0610878
0.102243
0.1538
0.213672
0.279807
0.350556
0.426463
0.492724
0.540007
0.572725
0.593358
0.604743
0.608978
0.610407
0.615038
0.624886
0.635625
0.644063
0.645806
0.0233654
0.0223463
0.0220953
0.0220709
0.0209002
0.0185538
0.0166961
0.0155707
0.0134872
0.0119284
0.00986934
0.0066203
0.00193157
3.28656e-05
3.28656e-05
3.26413e-05
3.30329e-05
3.36862e-05
0.000109511
0.000117816
0.000102114
5.97042e-05
5.14928e-05
8.75036e-05
0.000148556
0.000183207
0.000131574
6.12844e-05
2.60426e-05
1.84319e-05
1.69739e-05
2.65416e-05
7.89767e-06
3.86138e-06
1.46016e-06
2.15367e-06
3.61836e-06
0.032985
0.0836535
0.115709
0.120878
0.0957403
0.0483159
1.10821e-05
1.07987e-05
1.10872e-05
1.25792e-05
1.78808e-05
5.94372e-05
4.72972e-05
6.20312e-05
0.000104289
9.74084e-05
9.39281e-05
0.000121723
0.000231889
0.000187162
6.08459e-05
5.49333e-05
7.02558e-05
3.17966e-05
5.78583e-07
3.56226e-07
2.4394e-07
1.98434e-07
1.85688e-07
1.98434e-07
2.42062e-07
1.27957e-07
0.00283331
0.00521248
0.00759614
0.0109697
0.0152325
0.0198891
0.0249036
0.0289023
0.0315888
0.0344303
0.0386239
0.000356949
0.000198552
0.000177879
0.000134561
6.85286e-05
6.57336e-05
6.57527e-05
6.57406e-05
6.65006e-05
7.00318e-05
7.61919e-05
8.41956e-05
9.29428e-05
8.6674e-05
0.000105172
0.000287519
0.000290462
0.000254603
3.35426e-05
3.9684e-05
5.2567e-05
5.16673e-05
5.16656e-05
0.000117795
0.000162174
0.000200306
0.000181316
8.04443e-05
1.85072e-05
1.69679e-05
1.24602e-05
6.51232e-06
8.69419e-06
2.58395e-06
6.62576e-07
1.72174e-06
2.48424e-06
3.61836e-06
5.39883e-06
6.50817e-06
7.54355e-06
8.39961e-06
1.0098e-05
1.06651e-05
1.02578e-05
1.0241e-05
1.05261e-05
2.66102e-05
1.95176e-05
3.6454e-05
5.76104e-05
0.000133907
9.50071e-05
9.432e-05
0.000112057
0.000321491
0.000234507
3.88779e-05
1.17282e-05
4.38217e-06
3.19143e-06
1.19944e-05
7.03147e-07
2.23656e-06
1.1714e-06
1.88093e-07
7.331e-07
1.0743e-07
1.22691e-07
1.16371e-07
1.90545e-07
1.09085e-06
4.82407e-06
9.0139e-06
1.10436e-05
4.29656e-05
8.03846e-05
0.000100329
0.000100763
0.000112585
0.000506237
0.000183633
0.000171729
0.000194576
0.000220229
9.86702e-05
6.57336e-05
0.000212277
0.000272544
0.000270517
9.4626e-05
9.29022e-05
9.56695e-05
9.61307e-05
0.000104378
0.000277635
0.000241295
2.85791e-05
3.10609e-05
3.35426e-05
3.9684e-05
0.000183082
0.000366992
0.000368109
0.000368039
0.000368026
0.000367911
0.00036782
0.000219038
1.94882e-05
6.51214e-06
3.00866e-06
1.7721e-06
6.93073e-07
4.12873e-07
2.53246e-07
5.3277e-06
5.52655e-06
1.19145e-05
1.18992e-05
1.03566e-05
5.20858e-05
1.5322e-05
1.02426e-05
1.0241e-05
1.01623e-05
1.00946e-05
1.02817e-05
1.17179e-05
4.1572e-05
0.000289449
0.000323544
0.000323118
0.000308783
0.00021117
0.000237918
0.000315656
0.000279036
9.16346e-07
5.5117e-07
3.52618e-07
3.45243e-07
1.39548e-06
2.28071e-06
1.74906e-06
1.0094e-07
1.00866e-07
1.00314e-07
1.00314e-07
1.03067e-07
6.29125e-05
0.000177876
0.000177857
0.000149575
9.10222e-05
9.76357e-05
0.000100066
9.75325e-05
9.21598e-05
9.15377e-05
0.000338406
0.00024148
0.000172084
0.000146742
0.000202928
0.000194069
6.73979e-05
2.40589e-05
0.00021099
0.000268146
0.000105849
9.58029e-05
9.58029e-05
9.77911e-05
0.000168485
0.000142986
2.85791e-05
2.85791e-05
2.85791e-05
7.10268e-05
0.000363901
0.000368472
0.000368525
0.000368399
0.000368109
0.000367911
0.000367813
0.000367612
0.000367459
0.000252266
2.22893e-05
3.02098e-06
1.01965e-06
4.31493e-07
2.5309e-07
2.01149e-07
6.78243e-07
8.31259e-07
2.14366e-06
4.77216e-06
6.11878e-06
7.15888e-05
3.00975e-05
1.02586e-05
1.01639e-05
1.0101e-05
1.01166e-05
1.00875e-05
1.41703e-05
4.02812e-05
0.000316024
0.000323565
0.000323565
0.000323565
0.000323404
0.000322923
0.000321332
0.000211757
3.72637e-07
3.52622e-07
3.38391e-07
2.57629e-07
1.65065e-07
1.31948e-07
1.02106e-07
1.00451e-07
1.00315e-07
1.00308e-07
1.00314e-07
1.04778e-07
1.05703e-07
2.47127e-07
5.5411e-05
0.000124954
0.000129497
0.000222304
0.000167837
0.000132678
9.15377e-05
9.12699e-05
0.000179516
0.000211125
0.000189831
2.91724e-05
2.33732e-05
2.36659e-05
2.3789e-05
2.38496e-05
7.6009e-05
0.000271554
0.000127276
9.588e-05
9.58029e-05
0.000124993
0.000168499
5.72619e-05
3.10202e-05
2.85791e-05
0.000246401
0.000368477
0.000368477
0.000368565
0.000368422
0.000367877
0.000367509
0.000367511
0.000367597
0.000367414
0.000367449
0.00036734
0.000170457
6.85327e-06
1.60867e-06
4.49838e-07
1.67204e-07
9.37467e-08
4.98923e-08
2.76816e-08
2.11554e-08
2.07463e-08
1.66565e-08
6.47527e-05
6.44876e-05
1.04361e-05
2.29221e-05
0.000137463
0.000120475
3.10876e-05
8.27603e-06
2.5315e-05
0.0001618
0.000279039
0.000287683
0.000313195
0.000322923
0.000321332
8.42033e-05
1.18889e-06
3.57928e-07
3.55104e-07
3.52622e-07
3.44883e-07
2.57629e-07
1.53917e-07
1.25812e-07
1.23975e-07
1.00451e-07
1.00315e-07
1.00312e-07
2.61263e-07
3.68531e-07
3.36071e-07
1.44397e-07
4.27113e-06
6.0923e-05
0.000268057
0.000317214
0.000317214
0.000135149
9.12699e-05
1.51961e-05
1.53553e-05
1.66277e-05
1.92167e-05
2.07036e-05
2.57142e-05
2.3667e-05
2.38496e-05
0.000183464
0.000279707
0.000277019
9.61888e-05
9.58877e-05
0.000140186
0.000123814
4.22425e-05
3.93911e-05
0.000348955
0.000368558
0.000368414
0.000368566
0.000368403
0.000367348
0.000365112
0.00036548
0.00036632
0.000366931
0.000366626
0.000366824
0.000364312
0.000315347
3.8214e-05
2.61582e-06
6.08533e-07
1.50002e-07
4.94035e-08
2.76376e-08
2.09324e-08
1.71234e-08
1.62253e-08
1.57611e-08
1.38509e-05
6.43179e-05
3.40879e-05
7.0145e-05
0.000253995
0.000254033
6.2829e-05
3.58522e-06
9.81879e-06
2.28054e-05
5.32623e-05
6.91346e-05
3.18374e-05
0.000110676
0.000176296
1.98953e-05
1.11059e-06
3.70836e-07
1.50597e-06
5.205e-05
8.52716e-05
3.53547e-05
7.31266e-06
9.1047e-07
1.36462e-07
1.03987e-07
1.00679e-07
1.0034e-07
1.00572e-07
1.00908e-07
2.54216e-07
1.36669e-07
1.03606e-07
1.60032e-07
4.45492e-05
0.000293615
0.000316891
0.000266478
9.12699e-05
1.51071e-05
1.51961e-05
2.81707e-05
4.77716e-05
1.77536e-05
3.10587e-05
0.000101363
0.000257872
0.000280574
0.000280926
0.000279707
0.000100101
9.64762e-05
0.000133821
6.2813e-05
5.29355e-05
0.000341478
0.000368558
0.000368558
0.000368558
0.000368328
0.000366925
0.000362151
0.000238885
0.000267242
0.000366995
0.000364586
0.000316933
0.000363793
0.000363649
0.000355198
6.59669e-05
3.01495e-06
6.41501e-07
1.40769e-07
3.9836e-08
2.09308e-08
1.71234e-08
1.61387e-08
1.57241e-08
1.56271e-08
1.57611e-08
2.51182e-05
1.07e-05
0.000195543
0.000254035
0.000253317
2.17996e-05
3.32475e-06
2.9473e-06
3.10854e-06
3.05794e-06
2.91774e-06
3.11261e-06
1.1751e-05
2.88766e-06
0.000110393
0.000227605
8.31292e-05
0.000153443
0.000276032
0.000275405
0.000257118
5.64474e-05
1.29804e-06
3.22007e-07
1.37488e-07
1.05774e-07
1.01056e-07
1.0074e-07
1.00865e-07
1.0102e-07
1.01062e-07
1.01063e-07
1.0368e-07
1.78455e-07
2.44667e-05
0.000310551
0.000319378
0.00010197
1.49439e-05
4.652e-05
5.75778e-05
5.77392e-05
4.32352e-06
5.28601e-05
0.000230351
0.000280574
0.000280926
0.000280926
0.000280926
0.000259759
0.000124781
8.39745e-05
7.38765e-05
0.000240871
0.000368486
0.000368511
0.000368558
0.000368246
0.000366488
0.000360238
0.000172032
2.69501e-05
1.92135e-05
0.000265261
0.000358991
0.000107587
8.9735e-05
0.000351119
0.000332387
8.38294e-05
2.62534e-06
5.18395e-07
1.09739e-07
3.1847e-08
1.844e-08
1.61387e-08
1.57241e-08
1.56271e-08
1.56103e-08
1.56271e-08
5.8175e-08
2.35572e-07
7.67499e-05
0.000253688
0.000249272
0.00018288
2.94711e-06
2.87564e-06
2.86958e-06
2.86999e-06
2.86504e-06
2.87022e-06
2.87392e-06
2.87221e-06
2.88766e-06
2.88452e-06
0.000114881
0.000261256
0.000273009
0.000276227
0.000273009
0.000127309
2.6596e-06
6.48176e-07
2.2408e-07
1.28953e-07
1.06467e-07
1.01751e-07
1.0102e-07
1.01062e-07
1.01015e-07
1.00927e-07
1.01063e-07
1.06376e-07
1.78792e-07
0.000105283
0.000319727
0.00012433
1.51965e-05
2.41974e-05
5.77557e-05
2.82997e-05
3.26381e-06
2.25703e-05
0.000137973
0.000280115
0.000280574
0.000280926
0.000271439
0.00021091
9.31548e-05
9.37637e-05
0.000106235
0.000367825
0.000368146
0.000368497
0.000368246
0.000366094
0.000358402
0.000150853
2.695e-05
1.92135e-05
1.65526e-05
8.07754e-05
0.000289582
7.84434e-05
1.09696e-06
0.000206266
0.000309512
0.000108175
1.98261e-06
3.56119e-07
7.63797e-08
2.5069e-08
1.71392e-08
1.58426e-08
1.56381e-08
1.56187e-08
1.56187e-08
1.56187e-08
1.99034e-08
1.8181e-07
3.15606e-07
3.50831e-05
0.000245418
0.000241459
0.000140767
2.86958e-06
2.85114e-06
2.85784e-06
2.86999e-06
2.86999e-06
4.82746e-06
4.65089e-06
2.88231e-06
2.88618e-06
2.91335e-06
2.90209e-06
7.41918e-05
0.000258323
0.000151028
7.25255e-06
1.68921e-06
6.42445e-07
2.57693e-07
1.45398e-07
1.12955e-07
1.04073e-07
1.01578e-07
1.01033e-07
1.00927e-07
1.00927e-07
1.00927e-07
1.01352e-07
1.10231e-07
1.0813e-05
0.000315119
0.000136563
1.02813e-05
9.81078e-06
5.66372e-05
1.08716e-05
3.23231e-06
3.26381e-06
1.50651e-05
7.02487e-05
0.000125361
7.81261e-05
5.00255e-05
5.77453e-05
8.06467e-05
0.000133936
0.000365193
0.00036678
0.000367833
0.000368075
0.000365898
0.000354562
0.000114952
3.17979e-05
2.19092e-05
1.65523e-05
9.88744e-06
2.00038e-05
4.56597e-07
2.62578e-06
2.36684e-08
9.63317e-05
0.00029315
9.10439e-05
1.21752e-06
2.06574e-07
5.07542e-08
2.35513e-08
1.83663e-08
1.71392e-08
1.71354e-06
7.34829e-06
5.46242e-06
1.99034e-08
1.2531e-07
2.23864e-07
2.42122e-07
6.41769e-07
9.87735e-06
0.000191366
0.000199044
0.000117831
2.85607e-06
2.85357e-06
1.05342e-05
2.92729e-05
2.90986e-05
7.58412e-06
3.01335e-06
2.91405e-06
2.90496e-06
4.34613e-06
8.53162e-06
4.31435e-06
4.06592e-06
3.78821e-06
2.87647e-06
1.80392e-06
5.68769e-07
2.60258e-07
2.31638e-07
1.15086e-07
1.04036e-07
1.01638e-07
1.01033e-07
1.00927e-07
1.01053e-07
1.01179e-07
1.02158e-07
1.1132e-07
0.000235696
0.000161525
9.34413e-06
7.24704e-06
8.2659e-06
1.35832e-05
3.32488e-06
3.21852e-06
3.34209e-06
4.14855e-06
6.27374e-06
1.0294e-05
1.89782e-05
3.21485e-05
0.000253344
0.000351541
0.00035806
0.000339558
0.000366779
0.000364641
0.000324636
6.44281e-05
4.77856e-05
4.15324e-05
3.26584e-05
2.55465e-05
3.12416e-06
4.56597e-07
8.19054e-08
2.07543e-08
1.61723e-08
6.1783e-05
0.000189009
6.41939e-05
8.25179e-07
1.09635e-07
4.06456e-08
2.85818e-08
2.35513e-08
2.1262e-06
8.66229e-06
9.05637e-06
9.05546e-06
8.80516e-06
2.02494e-06
2.42137e-07
3.90319e-07
5.15071e-07
6.6656e-07
1.63246e-06
0.00015947
0.00016753
0.000120087
7.24382e-05
0.000164944
0.000100963
5.06477e-06
4.34572e-06
3.5095e-06
3.16951e-06
3.02361e-06
6.61091e-06
6.14087e-06
5.22144e-06
4.31827e-06
4.06339e-06
3.75886e-06
2.7377e-06
1.76031e-06
1.07188e-06
2.38297e-06
1.99268e-07
1.28139e-07
1.08477e-07
1.02623e-07
1.0128e-07
1.01179e-07
1.02059e-07
1.02641e-07
1.03795e-07
0.000230709
0.000155222
2.26256e-05
4.81471e-06
3.97228e-06
6.11979e-06
3.19454e-06
3.20097e-06
3.23912e-06
3.44822e-06
4.19513e-06
6.28707e-06
1.03375e-05
0.00012998
0.000316026
0.000323984
0.000269745
0.000135251
0.000274783
0.000227815
7.22283e-05
6.73166e-05
5.77392e-05
6.93771e-05
0.000131468
0.000127247
3.55889e-05
3.22437e-07
2.66567e-08
1.03571e-08
1.32615e-08
2.26766e-05
4.88517e-05
2.66657e-05
1.0766e-06
8.97205e-08
5.17939e-08
4.06456e-08
2.94156e-06
8.87241e-06
9.06626e-06
9.08032e-06
9.07295e-06
9.05546e-06
3.25319e-06
3.98327e-07
5.17669e-07
5.27917e-07
5.55798e-07
6.94441e-07
1.63246e-06
0.000136684
0.00016818
0.000168883
0.000168689
5.39838e-05
6.72457e-06
4.82107e-06
3.04295e-05
4.90562e-05
3.85131e-05
3.08102e-05
9.51842e-06
6.11539e-06
5.67712e-06
6.82186e-06
2.80011e-05
7.969e-05
0.000156963
0.000201689
0.000181377
0.000130143
3.99502e-05
2.07092e-07
1.28164e-07
1.0228e-07
9.88169e-08
1.02383e-07
1.0378e-07
1.07874e-07
0.000167519
0.00015405
0.000172635
5.17027e-05
3.19213e-06
3.19199e-06
3.19213e-06
3.19457e-06
3.2092e-06
3.27618e-06
3.53161e-06
4.27863e-06
6.50282e-06
8.40852e-05
0.000181105
0.000142828
0.000143233
0.000125859
8.68514e-05
8.42831e-05
7.99822e-05
7.28305e-05
0.000106832
0.00014045
0.000140519
0.000140339
9.03858e-05
5.22107e-07
3.44933e-10
9.51213e-09
8.14233e-07
1.03336e-07
4.45935e-07
2.88958e-06
4.96966e-07
1.08725e-07
3.6286e-07
4.62683e-06
8.99887e-06
9.07261e-06
9.0837e-06
9.07468e-06
9.0731e-06
5.02342e-06
7.78582e-07
6.16367e-07
0.00017142
0.000190027
3.98812e-05
1.63246e-06
4.93422e-06
8.96404e-06
9.42985e-05
0.000168302
0.000168776
4.17372e-05
7.68528e-06
4.00769e-05
8.15946e-05
8.13858e-05
5.95332e-05
1.36606e-05
5.2893e-06
6.68211e-06
3.80434e-05
0.000136426
0.000341065
0.000427319
0.00043473
0.000437026
0.00043892
0.000442545
0.000444256
0.000422507
0.000151009
6.79018e-07
2.06295e-07
1.00358e-07
1.07725e-07
1.28387e-07
5.40892e-05
0.000184514
0.00022708
0.00023119
3.19204e-06
3.19204e-06
3.19199e-06
3.19278e-06
3.19789e-06
3.22024e-06
3.30505e-06
3.58039e-06
4.41035e-06
6.85664e-06
1.5218e-05
0.000258534
0.000256503
0.000256503
9.83032e-05
8.68514e-05
8.86427e-05
0.000136383
0.000140332
0.000140332
0.00014045
0.000140552
0.000108127
2.5181e-07
5.94337e-11
9.28268e-09
6.96339e-08
2.55868e-08
5.47282e-08
7.3751e-08
1.35346e-08
1.14183e-08
4.71667e-06
8.99711e-06
9.07261e-06
9.08378e-06
9.07554e-06
8.64337e-06
3.00419e-06
2.24818e-07
2.04228e-07
0.000179356
0.000293598
0.000296724
0.000297917
0.000224723
9.45004e-06
1.47199e-05
1.96575e-05
6.49041e-05
0.000154202
5.59541e-05
1.0422e-05
8.35775e-05
8.2586e-05
5.08392e-05
2.6229e-07
5.13212e-07
1.34447e-06
7.24396e-05
0.00033678
0.000414765
0.000422453
0.000419571
0.000427873
0.000435907
0.000440921
0.000441923
0.000445317
0.000451189
0.000447378
0.000100417
2.37645e-06
4.01213e-07
1.55819e-07
1.51191e-07
2.31168e-05
0.000299109
0.0001474
0.000273877
5.67101e-05
3.19205e-06
3.19278e-06
1.34783e-05
0.000127951
0.000133517
3.58053e-06
4.41059e-06
5.76145e-06
0.000192014
0.000265405
0.000266789
0.000251105
8.84018e-05
8.1918e-05
8.81981e-05
0.000139173
0.000139669
0.000139949
0.000140332
0.000140315
0.000140081
5.35928e-05
1.9103e-11
3.16394e-11
1.48482e-10
4.77454e-10
6.44308e-09
6.39488e-09
1.14952e-08
5.85374e-09
8.64211e-09
2.95906e-06
9.03983e-06
9.06979e-06
9.07261e-06
8.44884e-06
2.02318e-06
1.44587e-07
1.0922e-07
1.08143e-07
0.00015766
0.000296724
0.000297917
0.000297917
0.000297917
0.000263773
4.28613e-05
1.31444e-05
7.69474e-06
2.97131e-05
1.93034e-05
7.87065e-05
8.35775e-05
6.05381e-05
8.47163e-08
8.47163e-08
2.6229e-07
5.18275e-05
0.000391546
0.000405839
0.000420869
0.000426378
0.000421781
0.000343074
0.000290429
0.000290429
0.000304931
0.000451044
0.000454868
0.000452166
0.000350464
2.10602e-05
4.82913e-07
2.13292e-07
1.79743e-07
1.97849e-05
0.000307986
0.000146704
0.000281162
8.25374e-05
3.47805e-06
4.47878e-06
0.000141735
0.000355504
0.000354341
0.000264982
0.000214999
0.000303883
0.000304627
0.000301047
0.000112882
7.6144e-05
7.86308e-05
8.00664e-05
0.000134143
0.000137914
0.000139179
0.000139564
0.000139836
0.000138994
9.41446e-05
2.98537e-06
1.79097e-11
4.2003e-11
7.56581e-11
1.75482e-10
7.41936e-10
1.8057e-09
4.18813e-09
5.85374e-09
3.27478e-08
3.50201e-06
8.76776e-06
8.32447e-06
3.72745e-06
4.6561e-07
9.70298e-08
9.05833e-08
8.52404e-08
8.74277e-08
5.84307e-06
5.35398e-05
0.000283258
0.000297917
0.000296641
0.000293912
0.000100079
7.11029e-06
4.31041e-06
2.94867e-06
4.03677e-06
6.80143e-05
8.35544e-05
1.67399e-07
8.47163e-08
4.33129e-07
4.21237e-05
0.000351318
0.0003838
0.000408265
0.000425608
0.000436636
0.000357351
0.000297054
0.00029237
0.000292075
0.000341597
0.000454259
0.000453998
0.000454027
0.000452165
4.46701e-05
6.95063e-07
2.28685e-07
2.13329e-07
6.86378e-05
0.000310242
0.000145951
0.000288547
0.000109943
4.75533e-06
1.81514e-05
0.000339385
0.000357075
0.000356457
0.000354341
0.000350439
0.000346365
0.000182837
7.6144e-05
7.60822e-05
7.6144e-05
9.7085e-05
0.00012748
0.000132709
0.000136032
0.000137999
0.000138256
0.000110696
3.48919e-05
8.51495e-13
3.2039e-12
1.73772e-11
3.68088e-11
3.86081e-11
4.7734e-11
7.99346e-11
3.80978e-10
8.43362e-08
3.89971e-06
4.51527e-06
3.49722e-06
8.41095e-07
1.43881e-07
5.30213e-08
7.15968e-08
9.19365e-08
8.52404e-08
8.19594e-08
8.13454e-08
8.47665e-08
4.88568e-07
4.50501e-05
0.000155313
0.000133696
0.000115409
6.30248e-05
5.59465e-06
2.94683e-06
2.46399e-06
3.26587e-06
7.00783e-05
2.50098e-05
2.36071e-07
8.54986e-07
2.96829e-06
0.000192527
0.000373117
0.000376777
0.000317242
0.000197341
0.000448559
0.000451009
0.000424659
0.000370136
0.000454023
0.000454185
0.000454092
0.000453998
0.000453998
0.00045329
1.69236e-05
4.785e-07
3.57197e-07
1.08828e-06
0.000298054
0.000310546
0.000145254
0.000293891
0.000176056
5.74869e-06
9.92674e-06
0.000212282
0.000356517
0.000357091
0.00030957
0.000172086
8.676e-05
7.88044e-05
7.71824e-05
7.6144e-05
7.84276e-05
7.34986e-05
7.83918e-05
0.00011608
0.000126951
9.26502e-05
4.23321e-05
8.28669e-07
2.72149e-13
3.97786e-13
2.55278e-12
2.08938e-11
4.13885e-11
4.65249e-11
7.99346e-11
3.80978e-10
1.21682e-06
7.79173e-06
7.74072e-06
2.4859e-06
1.93665e-08
1.65702e-08
2.33106e-08
3.26254e-08
7.48584e-08
1.39714e-07
8.30399e-08
8.36795e-08
8.16287e-08
8.16287e-08
2.24921e-07
3.75005e-05
6.51576e-05
2.24068e-05
7.68946e-06
1.21523e-05
5.52585e-06
2.46104e-06
2.37322e-06
3.18005e-05
6.99954e-05
1.04162e-06
3.28745e-07
4.71314e-06
1.0254e-05
0.000272867
0.000373364
0.000351134
5.40457e-05
0.00011189
0.000439864
0.00045278
0.000454134
0.000454023
0.000454185
0.000454185
0.000454185
0.000454092
0.000454722
0.000243444
1.1963e-06
8.36423e-07
4.785e-07
3.42249e-06
0.000310451
0.000310293
0.00014349
0.000294535
0.000268093
5.74869e-06
8.52542e-06
1.05702e-05
0.000129682
0.000207885
0.000100979
0.000101157
0.000103686
8.54325e-05
0.000104696
9.61844e-05
4.03454e-05
4.50509e-06
1.65143e-08
5.39595e-06
1.01084e-05
4.80194e-15
1.83139e-14
2.75473e-14
8.42249e-14
2.09475e-12
1.3775e-11
3.65001e-11
8.90521e-11
3.99537e-10
3.46157e-09
1.32172e-06
8.78625e-06
8.78646e-06
3.90159e-06
1.63123e-08
1.34143e-08
1.51626e-08
1.6505e-08
3.59071e-08
7.12189e-08
1.11275e-07
1.24588e-05
1.7369e-05
7.51884e-06
2.24921e-07
5.97676e-07
0.000161209
0.000147904
1.88721e-05
4.91852e-06
3.07727e-06
2.49568e-06
2.3569e-06
2.39801e-06
4.40335e-05
1.94664e-05
1.36896e-06
3.75398e-05
2.98508e-06
7.4114e-06
0.000198446
0.000365783
0.000121172
2.32779e-05
6.86623e-05
0.00042683
0.000451497
0.000452761
0.000453553
0.000454023
0.000454185
0.000453879
0.000251435
6.45514e-05
4.37013e-06
2.78322e-06
1.1963e-06
3.00951e-06
0.000255405
0.000307384
0.000304727
0.000166606
0.000294355
0.000295171
0.000241351
2.30047e-05
1.51658e-05
1.99209e-05
2.78574e-05
0.00010668
0.00011443
0.000114556
0.00011443
0.00011443
7.43805e-05
3.66907e-06
4.09287e-09
5.84149e-11
2.49357e-15
2.49351e-15
2.46457e-15
5.5741e-15
5.86341e-14
7.15011e-13
4.9261e-12
1.7118e-11
3.59882e-11
1.21618e-10
1.03514e-09
1.25763e-07
4.8791e-06
8.78648e-06
8.78625e-06
2.29989e-06
1.12862e-08
1.04191e-08
1.27352e-08
3.22279e-06
7.58558e-06
3.646e-06
5.60328e-07
1.22325e-06
2.31537e-06
6.49676e-06
3.98954e-05
0.000240969
0.000314516
0.000281949
2.71542e-05
3.0701e-06
2.49343e-06
2.3471e-06
2.3474e-06
2.73942e-06
4.39872e-05
2.04231e-05
9.16307e-05
6.26896e-05
1.40444e-06
2.44231e-06
9.83776e-05
0.000216689
2.75168e-05
1.19454e-05
1.75758e-05
0.000144298
0.000436205
0.000447299
0.000449022
0.000451068
0.000446772
0.000157297
3.31183e-05
2.62258e-05
1.5298e-05
4.37013e-06
0.000122966
0.00026749
0.000299911
0.000305171
5.30937e-05
0.00013569
0.00028857
0.000295128
0.000295151
0.000153795
0.000126933
0.00011369
8.45308e-05
5.83079e-05
2.37759e-05
6.9456e-05
9.94244e-05
3.93191e-05
3.70857e-10
6.95897e-11
2.42574e-11
6.72185e-13
2.60008e-15
1.78134e-15
8.16995e-15
1.10423e-13
4.35474e-13
1.53873e-12
5.26283e-12
1.49348e-11
3.73168e-11
2.01846e-10
2.38318e-09
1.20852e-06
8.77755e-06
8.78625e-06
8.73954e-06
1.17507e-06
8.13785e-09
8.9701e-09
1.04185e-08
1.18939e-05
2.81635e-05
1.82412e-05
9.25545e-07
1.43683e-06
1.80209e-06
1.98204e-06
0.000166138
0.000314517
0.000315322
0.000314516
5.19885e-05
2.47794e-06
2.33758e-06
2.31447e-06
2.33279e-06
2.34718e-06
1.77462e-05
8.08901e-05
0.000118535
5.212e-05
7.22273e-07
6.03914e-06
3.90039e-05
2.67601e-05
1.76941e-05
8.85921e-06
1.19454e-05
1.75758e-05
2.64969e-05
9.28546e-05
8.74937e-05
0.000162045
0.000299006
0.000310811
0.000294873
6.62582e-05
2.62258e-05
0.000125669
0.000260232
0.000271032
0.000276562
7.82423e-05
3.54955e-05
5.52149e-05
6.09398e-05
0.000169654
8.95344e-05
5.67865e-05
4.5958e-05
6.3401e-05
4.67113e-05
1.01532e-05
8.35438e-06
8.15669e-08
7.62511e-09
5.7229e-10
4.73265e-11
4.66499e-11
3.57177e-11
1.89628e-11
5.36729e-12
9.25954e-16
1.85127e-14
2.25572e-13
1.03254e-12
3.20979e-12
8.62335e-12
1.90414e-11
4.36503e-11
2.45602e-10
3.28646e-09
2.6198e-06
8.75439e-06
8.78194e-06
1.85845e-06
7.5682e-09
7.62011e-09
8.1378e-09
8.96954e-09
6.37102e-06
2.75666e-05
1.6147e-05
1.30349e-05
7.28102e-06
2.82447e-06
2.41873e-06
9.06918e-05
0.000315188
0.000315188
0.000256383
2.25711e-05
2.53979e-06
2.31049e-06
2.31248e-06
2.31447e-06
2.39046e-06
2.76476e-05
0.00018231
8.22621e-05
3.02246e-07
2.3058e-07
7.16757e-06
1.78085e-05
8.74963e-06
5.50962e-06
6.91039e-06
1.24704e-05
2.4113e-05
2.7083e-05
3.07699e-05
3.17886e-05
3.03952e-05
2.61736e-05
8.15258e-05
0.000109515
6.27275e-05
3.93589e-05
0.00015737
0.000224145
0.000144761
4.63311e-05
3.54955e-05
3.54955e-05
2.59774e-06
3.49586e-07
1.41523e-06
1.39934e-07
1.09184e-07
1.00179e-07
7.27135e-07
6.50163e-07
3.51991e-06
4.28625e-06
2.93482e-07
3.06513e-10
2.2118e-11
1.41869e-12
5.21683e-11
1.9106e-10
2.62352e-10
4.44866e-11
1.98658e-16
1.1513e-14
2.41776e-13
1.47964e-12
5.64834e-12
1.55335e-11
3.08684e-11
5.74495e-11
3.02972e-10
4.03356e-09
3.41274e-06
8.73093e-06
7.76586e-06
7.56727e-09
7.56637e-09
7.5682e-09
7.62005e-09
1.03869e-06
7.4744e-07
1.41023e-06
0.000126672
0.000401231
0.000288787
1.50348e-05
2.96824e-06
0.000112625
0.000320582
0.000219633
5.11958e-05
3.08233e-06
2.31049e-06
2.31049e-06
2.31049e-06
2.38175e-06
1.34202e-05
0.0001966
0.000190596
3.41313e-05
4.42572e-08
1.15873e-07
1.39537e-06
1.65961e-06
2.91725e-06
3.82717e-06
5.54241e-06
4.31652e-05
7.57073e-05
7.53205e-05
4.14967e-05
3.22718e-05
3.02103e-05
2.25409e-05
1.39128e-05
1.24298e-05
1.06391e-05
9.08901e-06
1.64977e-05
1.01086e-05
3.18051e-06
3.01361e-06
4.50335e-05
6.03527e-05
6.98442e-10
2.79307e-08
2.95897e-08
8.4695e-09
4.13377e-09
2.5949e-09
1.88852e-09
5.10323e-07
6.07939e-07
1.19544e-10
1.37254e-11
-1.01136e-12
6.78377e-14
1.85872e-13
7.72674e-11
4.78663e-10
4.89583e-10
9.87669e-11
4.38851e-35
4.8932e-15