/*--------------------------------*- C++ -*----------------------------------*\
| =========                 |                                                 |
| \\      /  F ield         | OpenFOAM: The Open Source CFD Toolbox           |
|  \\    /   O peration     | Version:  2412                                  |
|   \\  /    A nd           | Website:  www.openfoam.com                      |
|    \\/     M anipulation  |                                                 |
\*---------------------------------------------------------------------------*/
FoamFile
{
    version     2.0;
    format      ascii;
    arch        "LSB;label=32;scalar=64";
    class       volScalarField;
    location    "2.95";
    object      p_rgh;
}
// * * * * * * * * * * * * * * * * * * * * * * * * * * * * * * * * * * * * * //

dimensions      [1 -1 -2 0 0 0 0];

internalField   nonuniform List<scalar> 
6400
(
9922.17
9922.34
9922.6
9922.97
9923.4
9923.87
9924.3
9924.66
9924.87
9924.86
9924.57
9923.93
9922.87
9921.33
9919.26
9916.61
9913.35
9909.46
9904.92
9899.72
9893.88
9887.41
9880.35
9872.75
9864.71
9856.21
9847.37
9838.31
9829.13
9819.97
9810.96
9802.23
9793.93
9786.2
9779.18
9773
9767.77
9763.6
9760.57
9758.73
9758.13
9758.77
9760.65
9763.71
9767.91
9773.14
9779.31
9786.3
9793.97
9802.18
9810.77
9819.6
9828.53
9837.36
9846.06
9854.46
9862.46
9869.97
9876.9
9883.2
9888.81
9893.71
9897.86
9901.26
9903.92
9905.86
9907.11
9907.72
9907.76
9907.29
9906.41
9905.21
9903.78
9902.24
9900.69
9899.22
9897.92
9896.88
9896.14
9895.74
9921.94
9922.13
9922.43
9922.84
9923.34
9923.86
9924.37
9924.8
9925.08
9925.14
9924.92
9924.34
9923.33
9921.84
9919.81
9917.2
9913.97
9910.09
9905.55
9900.35
9894.49
9887.99
9880.89
9873.24
9865.11
9856.53
9847.59
9838.42
9829.11
9819.82
9810.66
9801.79
9793.35
9785.49
9778.34
9772.05
9766.72
9762.47
9759.37
9757.5
9756.88
9757.54
9759.45
9762.58
9766.87
9772.22
9778.49
9785.62
9793.44
9801.8
9810.53
9819.5
9828.56
9837.54
9846.35
9854.86
9862.95
9870.53
9877.53
9883.88
9889.53
9894.44
9898.6
9901.99
9904.63
9906.53
9907.74
9908.29
9908.25
9907.7
9906.73
9905.42
9903.89
9902.24
9900.58
9899.01
9897.63
9896.51
9895.72
9895.29
9921.46
9921.7
9922.07
9922.58
9923.19
9923.84
9924.5
9925.08
9925.51
9925.72
9925.63
9925.18
9924.29
9922.89
9920.94
9918.39
9915.2
9911.35
9906.83
9901.61
9895.71
9889.15
9881.97
9874.2
9865.96
9857.19
9848.05
9838.64
9829.09
9819.53
9810.09
9800.94
9792.21
9784.06
9776.65
9770.12
9764.59
9760.17
9756.95
9755
9754.36
9755.05
9757.04
9760.3
9764.76
9770.32
9776.86
9784.26
9792.36
9801.02
9810.06
9819.33
9828.66
9837.9
9846.95
9855.66
9863.94
9871.67
9878.8
9885.24
9890.96
9895.91
9900.08
9903.46
9906.06
9907.9
9909.02
9909.45
9909.27
9908.55
9907.38
9905.87
9904.11
9902.24
9900.36
9898.58
9897.02
9895.75
9894.86
9894.36
9920.68
9920.99
9921.47
9922.14
9922.93
9923.8
9924.68
9925.49
9926.15
9926.58
9926.72
9926.46
9925.73
9924.48
9922.65
9920.2
9917.08
9913.27
9908.75
9903.52
9897.57
9890.92
9883.6
9875.73
9867.23
9858.2
9848.76
9839
9829.07
9819.1
9809.23
9799.63
9790.47
9781.9
9774.09
9767.19
9761.34
9756.67
9753.26
9751.2
9750.52
9751.25
9753.36
9756.82
9761.55
9767.44
9774.36
9782.18
9790.74
9799.85
9809.36
9819.08
9828.85
9838.45
9847.87
9856.9
9865.45
9873.42
9880.73
9887.31
9893.13
9898.15
9902.34
9905.71
9908.25
9909.99
9910.96
9911.22
9910.82
9909.84
9908.38
9906.54
9904.45
9902.22
9900
9897.9
9896.05
9894.55
9893.48
9892.88
9919.51
9919.94
9920.59
9921.47
9922.52
9923.68
9924.88
9926.03
9927.02
9927.78
9928.19
9928.18
9927.68
9926.63
9924.97
9922.64
9919.61
9915.87
9911.37
9906.12
9900.1
9893.33
9885.81
9877.86
9869.01
9859.62
9849.76
9839.54
9829.09
9818.56
9808.11
9797.9
9788.13
9778.98
9770.61
9763.21
9756.93
9751.9
9748.22
9746
9745.27
9746.05
9748.34
9752.07
9757.17
9763.52
9770.98
9779.37
9788.55
9798.3
9808.43
9818.76
9829.11
9839.29
9849.16
9858.63
9867.54
9875.81
9883.37
9890.14
9896.09
9901.19
9905.41
9908.75
9911.22
9912.83
9913.62
9913.63
9912.93
9911.6
9909.73
9907.45
9904.89
9902.17
9899.46
9896.91
9894.65
9892.82
9891.5
9890.75
9917.84
9918.44
9919.33
9920.5
9921.9
9923.46
9925.09
9926.67
9928.1
9929.26
9930.04
9930.37
9930.17
9929.36
9927.9
9925.74
9922.84
9919.17
9914.71
9909.44
9903.36
9896.47
9888.83
9880.46
9871.3
9861.48
9851.11
9840.3
9829.19
9817.94
9806.73
9795.74
9785.18
9775.26
9766.17
9758.12
9751.26
9745.76
9741.74
9739.3
9738.5
9739.36
9741.87
9745.96
9751.55
9758.5
9766.65
9775.82
9785.79
9796.36
9807.31
9818.43
9829.52
9840.41
9850.91
9860.89
9870.26
9878.91
9886.77
9893.77
9899.89
9905.08
9909.34
9912.65
9915.02
9916.47
9917.03
9916.74
9915.66
9913.88
9911.48
9908.63
9905.44
9902.08
9898.72
9895.55
9892.74
9890.44
9888.78
9887.81
9915.48
9916.34
9917.55
9919.11
9920.98
9923.07
9925.25
9927.4
9929.38
9931.06
9932.31
9933.06
9933.21
9932.71
9931.51
9929.54
9926.79
9923.22
9918.82
9913.54
9907.38
9900.32
9892.58
9883.81
9874.22
9863.88
9852.88
9841.34
9829.41
9817.27
9805.14
9793.13
9781.59
9770.7
9760.7
9751.81
9744.23
9738.14
9733.68
9730.97
9730.07
9731.02
9733.8
9738.35
9744.56
9752.28
9761.31
9771.44
9782.43
9794.03
9806
9818.11
9830.14
9841.87
9853.15
9863.79
9873.69
9882.79
9891
9898.28
9904.58
9909.89
9914.19
9917.46
9919.73
9920.99
9921.27
9920.61
9919.08
9916.74
9913.71
9910.11
9906.11
9901.91
9897.7
9893.72
9890.18
9887.26
9885.12
9883.83
9912.17
9913.42
9915.09
9917.18
9919.65
9922.41
9925.32
9928.2
9930.87
9933.19
9935.02
9936.28
9936.86
9936.72
9935.8
9934.07
9931.5
9928.06
9923.73
9918.47
9912.27
9905.13
9897.04
9887.93
9877.87
9866.92
9855.17
9842.76
9829.83
9816.58
9803.23
9790.08
9777.33
9765.25
9754.12
9744.2
9735.72
9728.88
9723.87
9720.81
9719.79
9720.85
9723.98
9729.09
9736.07
9744.74
9754.86
9766.19
9778.44
9791.33
9804.56
9817.88
9831.03
9843.79
9855.97
9867.41
9877.94
9887.55
9896.15
9903.73
9910.25
9915.68
9920.02
9923.26
9925.4
9926.44
9926.41
9925.33
9923.25
9920.25
9916.43
9911.92
9906.92
9901.64
9896.34
9891.3
9886.79
9883.05
9880.25
9878.49
9907.51
9909.37
9911.71
9914.48
9917.74
9921.39
9925.23
9929.04
9932.59
9935.7
9938.22
9940.06
9941.14
9941.41
9940.83
9939.37
9937.01
9933.73
9929.5
9924.29
9918.05
9910.85
9902.47
9892.98
9882.38
9870.72
9858.11
9844.66
9830.55
9816
9801.25
9786.62
9772.38
9758.85
9746.34
9735.15
9725.56
9717.8
9712.1
9708.61
9707.42
9708.61
9712.16
9717.97
9725.9
9735.74
9747.21
9760.01
9773.82
9788.27
9803.04
9817.81
9832.3
9846.27
9859.51
9871.86
9883.18
9893.3
9902.3
9910.21
9916.96
9922.53
9926.91
9930.11
9932.12
9932.93
9932.55
9930.99
9928.29
9924.51
9919.75
9914.13
9907.89
9901.25
9894.55
9888.13
9882.36
9877.52
9873.8
9871.34
9900.92
9903.81
9907.06
9910.74
9915.02
9919.84
9924.91
9929.91
9934.54
9938.62
9941.96
9944.48
9946.12
9946.84
9946.62
9945.47
9943.35
9940.26
9936.18
9931.06
9924.88
9917.54
9908.94
9899.06
9887.88
9875.45
9861.84
9847.19
9831.68
9815.56
9799.14
9782.75
9766.72
9751.42
9737.23
9724.49
9713.55
9704.67
9698.12
9694.08
9692.69
9694.03
9698.07
9704.73
9713.83
9725.1
9738.24
9752.85
9768.56
9784.9
9801.5
9818
9834.08
9849.46
9863.91
9877.27
9889.43
9900.34
9909.51
9917.82
9924.81
9930.51
9934.94
9938.1
9939.97
9940.55
9939.8
9937.72
9934.33
9929.66
9923.79
9916.84
9909.07
9900.73
9892.21
9884
9876.57
9870.28
9865.28
9861.73
9891.55
9896.1
9900.64
9905.5
9911.14
9917.54
9924.26
9930.82
9936.83
9942.04
9946.31
9949.59
9951.84
9953.05
9953.22
9952.38
9950.53
9947.68
9943.78
9938.81
9932.79
9925.39
9916.61
9906.36
9894.59
9881.3
9866.57
9850.53
9833.4
9815.43
9797
9778.49
9760.31
9742.88
9726.65
9712.05
9699.46
9689.22
9681.62
9676.89
9675.23
9676.73
9681.37
9689.07
9699.59
9712.62
9727.79
9744.64
9762.66
9781.27
9800.07
9818.62
9836.54
9853.54
9869.38
9883.86
9896.88
9908.38
9918.26
9926.71
9933.89
9939.7
9944.17
9947.29
9949.05
9949.39
9948.27
9945.66
9941.52
9935.87
9928.75
9920.27
9910.58
9900.07
9889.2
9878.63
9869
9860.77
9854
9848.73
9877.48
9884.86
9891.34
9897.92
9905.63
9914.28
9923.21
9931.78
9939.49
9946.06
9951.4
9955.49
9958.36
9960.06
9960.64
9960.12
9958.56
9955.96
9952.32
9947.69
9941.79
9934.49
9925.64
9915.09
9902.72
9888.52
9872.53
9854.9
9835.85
9815.71
9794.91
9773.89
9753.12
9733.13
9714.45
9697.59
9683.01
9671.11
9662.24
9656.64
9654.62
9656.28
9661.63
9670.57
9682.83
9698.01
9715.62
9735.14
9756
9777.42
9798.85
9819.82
9839.91
9858.77
9876.15
9891.86
9905.8
9917.93
9928.29
9937
9944.28
9950.16
9954.65
9957.75
9959.42
9959.56
9958.1
9954.96
9950.06
9943.34
9934.8
9924.48
9912.54
9899.33
9885.44
9871.64
9858.88
9847.83
9838.44
9830.44
9857.85
9869.9
9878.29
9886.77
9897.47
9909.65
9921.86
9933.04
9942.78
9950.89
9957.35
9962.26
9965.74
9967.91
9968.86
9968.66
9967.38
9965.06
9961.66
9957.69
9952.03
9944.99
9936.23
9925.49
9912.58
9897.42
9880.06
9860.63
9839.28
9816.63
9793.04
9769.02
9745.14
9722.05
9700.42
9680.86
9663.9
9649.98
9639.58
9632.84
9630.36
9632.15
9638.34
9648.8
9663.19
9681.03
9701.73
9724.85
9749.18
9773.62
9798.13
9821.91
9844.49
9865.45
9884.55
9901.58
9916.44
9929.16
9939.86
9948.75
9955.99
9961.88
9966.39
9969.51
9971.15
9971.16
9969.42
9965.79
9960.13
9952.34
9942.28
9929.91
9915.33
9898.71
9880.67
9862.29
9845.18
9830.58
9818.06
9805.47
9728.7
9744.13
9844.74
9869.28
9885.57
9902.98
9919.61
9934.43
9946.89
9956.75
9964.34
9970
9974.03
9976.61
9977.87
9977.94
9976.92
9974.92
9972.09
9968.38
9963.43
9956.98
9948.59
9937.86
9924.49
9908.36
9889.5
9868.11
9844.05
9818.39
9791.49
9763.91
9736.32
9709.5
9684.33
9661.56
9641.77
9625.38
9613.02
9605.02
9601.79
9603.64
9610.82
9623.19
9640.21
9661.15
9685.18
9712.11
9740.61
9769.64
9797.89
9825.03
9850.55
9873.92
9894.92
9913.35
9929.12
9942.3
9953.12
9961.94
9969.11
9974.84
9979.35
9982.57
9984.28
9984.29
9982.36
9978.32
9971.98
9963.15
9951.54
9936.84
9918.83
9897.98
9874.68
9850.23
9826.35
9791.66
9677.37
9668.21
9307.75
9303.86
9513.66
9825.15
9868.1
9896.41
9918.87
9937.97
9953.09
9964.42
9972.77
9978.89
9983.25
9986.1
9987.56
9987.79
9986.94
9985.19
9982.99
9979.95
9976.02
9970.6
9962.99
9952.57
9938.9
9921.77
9901.19
9876.84
9850.25
9821.28
9790.55
9758.75
9726.72
9695.34
9665.92
9639.31
9616.14
9596.63
9582.03
9572.32
9568.02
9569.68
9578
9592.8
9613.44
9639.24
9668.83
9700.22
9732.89
9766.28
9798.82
9829.77
9858.62
9884.57
9907.7
9927.62
9944.23
9957.63
9968.24
9976.64
9983.38
9988.95
9993.3
9996.77
9998.79
9998.99
9997.06
9992.78
9985.97
9976.37
9963.5
9946.73
9925.43
9899.62
9869.58
9834.55
9778.52
9401.32
9174.98
9171.76
9236.03
9197.69
9198.88
9558.49
9839.2
9883.99
9917.2
9942.65
9961.13
9973.76
9982.41
9988.59
9993.09
9996.16
9997.82
9998.14
9997.35
9995.8
9994.02
9992.14
9989.87
9986.16
9979.92
9970.23
9956.45
9938.36
9916.36
9888.92
9858.71
9825.77
9790.51
9753.63
9716.26
9679.04
9644.45
9613.18
9586.1
9563.59
9546.15
9534.19
9528.26
9529.14
9538.7
9556.38
9580.59
9611.39
9646.72
9686.35
9725.58
9763.83
9801.34
9836.7
9868.92
9897.99
9923.57
9945.07
9962.45
9975.73
9985.58
9992.97
9998.77
10003.8
10008.3
10012.2
10014.8
10015.3
10013.5
10009
10001.9
9991.86
9978.08
9959.13
9933.49
9900.61
9860.67
9807.7
9431.33
9079.54
9075.58
9098.63
9229.83
9314.87
9160.1
9418.55
9811.5
9882.09
9926.34
9955.91
9974.79
9986.42
9993.86
9999.54
10004.1
10007.2
10008.6
10008.5
10007.5
10006
10005
10005
10005.6
10004.5
10000.5
9992.11
9978.38
9958.62
9933
9903.83
9869.99
9832.54
9791.95
9748.46
9703.96
9660.34
9619.63
9583.08
9551.74
9525.69
9505.28
9490.68
9482.39
9480.44
9491.37
9512.74
9540.05
9578.18
9621.85
9668.44
9716.56
9762.26
9805.74
9846.26
9882.73
9914.95
9942.44
9966.66
9984.93
9997.42
10005.6
10011.4
10015.6
10019.5
10023.8
10028.4
10032.2
10033.8
10032.4
10027.7
10020.1
10010.2
9997.01
9978.24
9951.03
9912.93
9861.03
9766.59
9258.25
9008.58
9242.1
9106.97
9382.92
9458.65
9543.82
9631.62
9802.35
9897.52
9948.92
9976.85
9994.46
10003.9
10007.6
10009.9
10012.6
10015.1
10017
10017.5
10016.9
10015.6
10016
10018.8
10022.7
10025.8
10025.4
10019.7
10007.1
9986
9958.04
9923.9
9885.18
9842.55
9795.53
9743.98
9690.41
9638.83
9591.73
9550.12
9516.03
9489.6
9470.84
9456.77
9451.34
9455.92
9465.71
9483.45
9512.57
9550.89
9596.69
9648.14
9703.12
9759.66
9812.68
9859.67
9901.06
9936.75
9967.44
9994.61
10013.1
10023
10028
10031.2
10033.8
10036.5
10039.9
10044.8
10050
10052.8
10051.8
10047.3
10040.4
10032.4
10021.8
10004
9976.25
9938.09
9877.06
9759.29
9562.91
9460.96
9343.98
9261.35
9061.55
8059.6
8930.15
9692.42
9831.12
9914.92
9964.67
9991.49
10007.7
10018.1
10017.7
10016.8
10018.9
10022.4
10025.6
10026
10026.4
10024.2
10024.3
10028.9
10037.3
10046.4
10052.3
10051.3
10042.1
10021.2
9988.22
9947.81
9903.54
9856.28
9802.97
9741.79
9677.17
9612.83
9504.65
9316.86
9041.31
8711.76
8395.08
8156.02
8049.7
8110.22
8309.19
8626.5
8994.68
9327.24
9550.61
9631.67
9699.56
9764.85
9825.22
9877.8
9923.82
9964.22
9999.7
10028.6
10046.2
10050.8
10049.2
10047
10048.1
10051.9
10057
10064.1
10071.7
10076.8
10075.8
10069.1
10059.8
10051.9
10041.6
10021.3
9992.68
9954.25
9895.89
9800.24
9646.67
8633.19
7176.18
8784.85
4342.68
2168.38
2959.33
6352.5
9345.2
9944.74
10018.1
9995.37
9945.94
10056.8
10027.7
10015
9993.32
9982.85
9949.97
9874.14
9757.04
9663.1
9723.79
9890.87
10024.6
10061.8
10076.3
10079.8
10076.9
10058
10008.4
9912.19
9784.7
9634.33
9257.21
8239.92
6893.87
5496.54
4275.21
3318.73
2590.05
2032.53
1617.02
1362.82
1269.41
1301.84
1480.5
1837.65
2408.8
3209.97
4359.06
5886.35
7414.18
8819.76
9742.66
9893.31
9936.59
9984.12
10029.2
10058.9
10071.1
10072.6
10063.8
10051.3
10044.9
10044.4
9911.77
9965.39
10083.5
10095.8
10094.3
10083.3
10073.1
10075.6
10084.4
10080.5
10054.4
9972.68
9904.35
9289.32
6329.59
2543.18
1451.56
3265.55
486.043
58.8503
168.206
728.596
2784.35
5730.01
5846.56
5143.96
5425.56
5084.44
4523.55
4319.28
4606.19
4787.52
4797.5
4572.89
4217.71
3932.93
3811.18
4091.8
4684.93
5506
6194.07
6489.25
6519.17
6212.87
5410.04
4275.75
3108.65
2046.17
1150.54
494.959
63.9499
1.87087
1.79091
1.86138
1.89005
1.88448
1.87825
1.90769
1.90717
1.84479
1.8309
1.81733
1.77439
1.65062
1.45175
1.88544
273.182
785.918
1530.47
2570.14
3753.86
4884.59
5744.2
6332.6
6433.38
6267.83
5751.64
5067.87
4651.18
4369.2
4421.49
4777.74
5441.39
6091.59
6180.03
5891.75
5428.26
5362.3
5749.46
6063.68
5750.52
5645.3
5484.09
2683.04
631.156
111.831
79.17
120.957
27.604
36.7093
145.14
77.3971
139.572
764.325
2331.91
3074
2468.37
1135.6
322.211
158.207
65.5036
55.3041
57.0337
42.9461
20.2799
12.3988
39.9945
109.874
158.864
205.294
188.249
124.625
58.184
1.96886
1.91548
1.76392
1.65354
1.52991
1.45981
1.49979
1.68616
1.72451
1.74532
1.76309
1.77113
1.77253
1.77333
1.7686
1.74862
1.71651
1.67972
1.62986
1.56785
1.48593
1.42805
1.51249
1.25888
1.10494
1.09142
1.12254
1.17675
1.28467
1.26156
39.3467
75.8519
43.2841
43.4648
126.132
85.0834
64.0697
71.1075
120.181
194.845
256.128
246.81
221.472
360.946
801.929
1765.75
2704.93
2960.91
1976.43
600.911
91.0049
51.3087
86.7364
62.1923
59.4116
18.1251
73.7026
313.479
67.7237
5.03382
3.30248
3.10653
2.22905
0.978161
2.47898
10.1812
4.77612
2.77315
4.52363
5.51815
6.88752
4.66015
3.44766
5.02273
10.2227
13.0169
9.12709
3.70296
1.51142
1.70266
1.82326
1.789
1.67324
1.53648
1.43067
1.40803
1.47408
1.65885
1.87076
1.88789
1.8052
1.72718
1.69644
1.68333
1.67589
1.6482
1.61181
1.59153
1.57585
1.52213
1.50857
1.46035
1.40961
1.19421
1.07111
0.998037
0.9894
1.01941
1.00338
0.813276
0.383873
2.81556
1.97576
1.34862
-0.0106348
-0.106887
0.22716
4.13444
8.94358
7.13237
6.55421
5.05926
5.12036
5.4779
5.58391
5.75235
6.04858
6.33417
6.63125
7.10561
9.41671
47.1014
155.147
154.483
52.9985
12.4455
83.3646
320.832
30.3424
3.61485
3.66465
3.64415
3.05842
0.879598
1.35123
1.98984
1.94736
1.71082
2.33312
3.69813
4.95578
5.21201
3.85481
2.89687
2.98663
3.6822
3.69614
3.14016
2.35777
1.68235
1.65101
1.67695
1.6341
1.57581
1.50643
1.46191
1.49497
1.56283
1.64183
1.79299
1.79669
1.78249
1.69693
1.60959
1.58136
1.55211
1.51249
1.48955
1.47546
1.43908
1.38883
1.34957
1.30433
1.22489
1.12957
1.06249
1.01462
0.981853
0.937155
0.795528
0.917539
1.5737
0.490724
-0.258851
-0.80413
-0.888257
-0.776462
1.90313
5.03592
5.17772
3.11153
1.62091
2.76359
4.04226
5.11281
5.86116
5.80822
5.94053
17.1165
23.4069
14.637
14.1499
154.598
159.486
56.392
10.5499
24.2688
330.237
4.56467
3.90132
3.81044
2.10022
1.29284
1.185
1.33216
1.48888
1.48734
1.48217
1.9228
3.25752
4.26638
5.57062
5.2366
4.02459
2.8512
2.57555
2.42298
2.05387
1.79272
1.66056
1.65417
1.61963
1.57048
1.51602
1.46909
1.45421
1.47184
1.50354
1.52754
1.53626
1.53398
1.5531
1.61162
1.59598
1.49959
1.46336
1.43393
1.41297
1.3949
1.3623
1.31758
1.27122
1.21783
1.14582
1.08602
1.03754
1.00206
0.976917
0.941951
0.870984
0.865509
0.843583
0.508172
-0.0750483
-0.503937
-0.659858
-0.689948
-0.4927
1.44691
3.93725
3.17212
1.10025
1.35397
1.72216
2.42138
5.8157
5.50822
5.66035
20.7936
23.8793
18.8273
15.6041
160.232
109.924
43.5765
7.57191
7.18485
336.639
25.4851
4.18135
3.99974
1.83889
1.48029
1.27227
1.17413
1.10477
1.03326
1.00042
1.27734
4.50581
11.9753
30.9543
15.8543
4.13545
2.79806
2.09191
1.75531
1.54621
1.46563
1.48135
1.50159
1.49341
1.46888
1.44305
1.42374
1.41618
1.42119
1.43394
1.44469
1.44827
1.44523
1.43794
1.43472
1.43406
1.41532
1.38305
1.36021
1.34075
1.3215
1.29139
1.25116
1.20736
1.15955
1.10686
1.05728
1.01376
0.978707
0.950162
0.914234
0.861892
0.809156
0.734116
0.546466
0.171103
-0.14823
-0.321811
-0.405529
-0.364177
-0.176532
0.222659
0.767389
0.906677
1.18561
1.4633
3.95369
6.38362
5.86533
4.7693
8.31526
24.0942
17.6061
17.4745
148.189
7.02934
22.5688
4.17997
4.98857
154.196
107.914
3.61862
3.55634
2.18039
1.51485
1.22005
0.978209
0.796589
0.687376
0.586521
0.428562
1.51232
44.1144
59.2694
60.9707
18.7147
1.86328
1.11048
1.13701
1.19745
1.24369
1.29803
1.33879
1.35722
1.35982
1.35509
1.34919
1.34646
1.34902
1.35516
1.36052
1.36188
1.35899
1.35267
1.34346
1.3321
1.31977
1.30315
1.28506
1.26774
1.24777
1.2205
1.18618
1.14779
1.10686
1.06445
1.02315
0.985858
0.95199
0.918969
0.881806
0.836633
0.780994
0.699768
0.552385
0.324649
0.111636
-0.0295316
-0.107236
-0.0867326
0.0443637
0.267958
0.545324
0.832582
1.10075
1.36579
5.28612
6.02064
5.80102
4.16242
5.21956
13.7409
20.4778
81.9886
31.6905
2.35421
2.48334
4.10375
6.21975
5.84714
153.343
2.68221
2.26301
2.21009
1.44953
1.12813
0.83617
0.614323
0.504543
0.466487
0.508962
3.38436
59.6614
60.5565
60.5448
49.0738
3.82439
0.202202
0.584466
0.83294
0.981455
1.09203
1.16622
1.21052
1.23455
1.24658
1.25309
1.25834
1.26424
1.27058
1.27561
1.27754
1.27585
1.27098
1.26333
1.25318
1.24069
1.22617
1.21061
1.1942
1.17522
1.15195
1.12342
1.09065
1.05573
1.01956
0.9839
0.949703
0.917126
0.883355
0.846504
0.803503
0.750821
0.679766
0.575768
0.438996
0.307572
0.215108
0.168017
0.183596
0.27445
0.430352
0.631835
0.856267
1.09084
1.33545
4.32753
5.9314
3.57695
3.82827
4.58097
8.31139
76.4686
126.091
8.10604
0.28282
0.480511
3.86194
4.35734
24.2021
158.96
2.09863
1.99405
1.73649
1.43091
1.11434
0.835185
0.594981
0.486192
0.653466
1.6841
49.7457
60.2653
60.5559
60.1235
44.5617
1.72974
-0.736301
0.0370933
0.462809
0.715245
0.880489
0.986817
1.05519
1.09915
1.12769
1.14722
1.16181
1.17354
1.183
1.18982
1.19355
1.19407
1.19144
1.18581
1.1774
1.16663
1.15415
1.14039
1.12504
1.10751
1.0871
1.06299
1.03542
1.00565
0.973154
0.941676
0.90998
0.878666
0.846352
0.811438
0.772237
0.726892
0.671873
0.60295
0.522785
0.447973
0.396304
0.373772
0.386887
0.446486
0.553716
0.700974
0.881946
1.09364
1.33403
3.15591
5.39089
3.34558
3.57247
4.66682
47.6043
135.866
114.338
4.24614
0.101083
0.198145
3.45389
3.85821
51.8815
134.896
2.07702
2.10159
1.85825
1.6005
1.26872
0.96918
0.76276
0.737359
6.98163
48.9928
62.1917
60.9306
60.7627
40.4585
6.65626
-0.364201
-0.974503
-0.315764
0.175225
0.48508
0.683542
0.814447
0.903214
0.964495
1.00768
1.03905
1.0626
1.08067
1.09449
1.10463
1.11127
1.11447
1.11432
1.11095
1.10471
1.09626
1.08666
1.07517
1.06095
1.044
1.02488
1.00385
0.982519
0.955345
0.925582
0.897305
0.868394
0.838956
0.80866
0.776789
0.7426
0.705434
0.664574
0.619764
0.574131
0.535154
0.511328
0.504092
0.515866
0.554165
0.625421
0.732722
0.881584
1.075
1.31516
2.56821
2.4089
2.58267
2.65767
12.0671
118.587
140.263
0.759715
1.29255
0.0411097
0.138845
2.91516
5.50875
25.7665
3.83723
2.64784
2.54979
2.29452
1.97377
1.64237
1.37205
1.28698
5.26815
65.7997
67.3598
64.8328
62.9713
16.3764
-3.64498
-2.22424
-1.62709
-1.06745
-0.450068
0.0119597
0.316607
0.521129
0.663317
0.764552
0.838019
0.892336
0.933219
0.96446
0.988558
1.0071
1.021
1.03081
1.03685
1.03937
1.0385
1.0348
1.02898
1.02331
1.01428
1.00684
0.984377
0.972423
0.967342
0.934614
0.90263
0.877557
0.852009
0.825594
0.798437
0.770724
0.742332
0.713263
0.683727
0.65433
0.626308
0.602258
0.586338
0.582353
0.58603
0.595849
0.616196
0.656077
0.724976
0.837101
1.00931
1.25023
1.68793
2.32043
2.22133
1.9245
42.665
135.024
129.096
0.0106877
0.0525181
-0.0255829
0.0674758
2.49034
3.19901
2.83885
9.1775
9.71021
3.49669
2.79904
2.50197
2.21015
2.12401
8.25089
76.9829
73.8915
71.2894
53.7775
-0.71212
-2.51015
-2.68931
-2.34351
-1.6136
-0.909744
-0.401346
-0.0460878
0.212691
0.400679
0.53985
0.64439
0.723961
0.785214
0.832802
0.870033
0.899249
0.922056
0.939533
0.952448
0.961312
0.966491
0.968065
0.967011
0.96288
0.994067
1.14924
1.23817
1.17001
0.99177
0.909304
0.874732
0.851671
0.829537
0.806373
0.782275
0.7575
0.732656
0.707734
0.683427
0.660571
0.640382
0.624526
0.615665
0.615815
0.627459
0.638749
0.647181
0.649086
0.654365
0.676701
0.973173
1.39252
1.72893
2.11061
2.28738
2.02882
1.19066
68.5012
138.963
28.7719
-0.128755
-0.183444
-0.0537644
0.0123151
2.11816
2.1646
2.54099
40.6721
89.6128
81.8184
52.3003
29.5893
31.4331
46.2212
85.6886
82.0118
71.5266
24.2398
-1.12273
-1.44135
-1.70813
-1.67532
-1.41676
-1.00071
-0.604557
-0.289247
-0.0419883
0.157576
0.316378
0.442648
0.543246
0.623604
0.687933
0.739523
0.780936
0.814109
0.840471
0.861094
0.876812
0.888201
0.895713
0.8992
0.90037
0.895248
1.15932
1.19398
1.18145
1.16615
0.946232
0.836981
0.819484
0.80147
0.781704
0.760771
0.738888
0.716464
0.694082
0.67235
0.652135
0.634638
0.621324
0.613894
0.616555
0.627978
0.655164
0.667676
0.759875
1.27109
1.51579
1.47843
1.18522
1.82732
5.37653
5.71462
2.19065
1.96555
1.66688
71.9385
128.744
0.469138
-0.194581
-0.238654
-0.103761
0.00358365
1.76189
3.53612
3.96751
3.16752
65.2491
99.3452
100.093
100.367
100.321
99.8023
90.597
35.6945
-0.246191
-0.609548
-0.90805
-1.06584
-1.12581
-1.0316
-0.834135
-0.593709
-0.370921
-0.182275
-0.0177558
0.128899
0.256593
0.365953
0.458492
0.536063
0.600616
0.654047
0.698049
0.734035
0.763159
0.78638
0.804486
0.818054
0.827543
0.832561
0.835236
0.830255
1.07848
1.13693
1.12447
1.00316
0.817773
0.780097
0.767705
0.751963
0.734299
0.715277
0.6953
0.67489
0.654689
0.635458
0.618269
0.604597
0.596067
0.594497
0.603546
0.619143
0.656228
1.20385
2.89073
2.79903
2.67559
2.59165
1.31726
1.3711
5.41462
5.59772
2.652
1.6692
2.57881
57.3289
32.982
1.54852
0.315491
-0.270225
-0.0893914
0.0307432
1.41183
5.28382
5.0709
2.76873
0.71574
1.04111
33.6833
55.6385
71.3667
44.7283
-0.0261581
-0.12354
-0.260985
0.146099
-0.198263
-0.692132
-0.706563
-0.633709
-0.484809
-0.327027
-0.201511
-0.097722
0.00555603
0.109994
0.210374
0.303067
0.386299
0.45939
0.522496
0.576292
0.621649
0.659477
0.690635
0.715922
0.736013
0.751465
0.76268
0.769365
0.7734
0.77164
1.01387
0.883187
0.793589
0.748095
0.736939
0.729205
0.717913
0.703803
0.687736
0.670217
0.651714
0.632757
0.613997
0.596285
0.580765
0.569263
0.563548
0.564674
0.575621
0.614344
2.19919
3.21662
2.93963
2.59141
2.3081
1.22358
0.228932
0.268113
3.1449
5.17451
3.77194
1.03738
0.871108
32.0575
18.8712
20.4368
23.658
0.847794
-0.132035
0.0238357
1.09058
4.99647
4.74859
2.69051
0.55076
0.409941
0.337022
1.35573
5.21777
4.56008
2.5786
-0.138755
2.5714
3.06062
2.98965
1.96002
1.59714
0.945672
0.0914582
-0.0910084
-0.0814634
-0.0413551
0.0176678
0.090757
0.169465
0.248122
0.322889
0.39134
0.452363
0.50571
0.551605
0.590556
0.62316
0.650049
0.671755
0.688839
0.701598
0.710159
0.715656
0.717808
1.00601
0.956213
0.709999
0.696984
0.690087
0.681433
0.670465
0.657297
0.64229
0.62577
0.608143
0.589971
0.571854
0.554584
0.538974
0.527623
0.522672
0.524421
0.524869
1.23301
3.55161
3.26434
1.70564
0.248233
0.101707
-0.0327629
-0.135236
-0.14825
1.75656
4.89328
4.73109
0.900566
-0.132981
0.779227
26.0485
33.833
34.5841
4.16641
-0.295192
-0.0590958
0.81485
3.63009
4.68197
1.38411
0.675296
0.552471
7.72581
26.4509
21.6068
2.06236
1.40288
1.4654
3.13207
3.10173
2.72201
2.6926
2.75342
2.20587
1.55066
1.36874
0.505127
-0.0258965
0.00974225
0.0635373
0.127574
0.196454
0.265028
0.329774
0.388873
0.441526
0.487555
0.527184
0.560802
0.588903
0.611872
0.630303
0.644349
0.654692
0.661161
0.666285
0.962098
1.05232
0.726117
0.651627
0.644535
0.635874
0.625323
0.612716
0.598279
0.582278
0.564975
0.546817
0.528343
0.510367
0.492376
0.47891
0.470945
0.471768
0.523954
3.64483
3.49928
1.2978
0.275332
0.0482359
-0.187454
-0.319576
-0.456322
-0.494849
3.77962
4.64449
4.37511
1.00001
-0.3312
-0.617873
30.5797
34.8641
18.7411
4.0365
-0.483262
-0.190739
0.596799
0.834428
4.6383
3.49431
6.04193
13.2698
27.8755
27.5852
10.5959
1.59121
1.36105
3.0432
3.02224
0.229354
-0.237589
-0.0719745
0.525345
2.72722
2.11057
2.39264
2.32519
0.0532983
-0.0202035
0.0220495
0.0800391
0.144786
0.210318
0.272985
0.330876
0.383014
0.429061
0.469107
0.503402
0.532369
0.556272
0.575738
0.590724
0.602457
0.60913
0.671026
1.01204
1.01265
0.741701
0.605385
0.599856
0.592086
0.582174
0.570084
0.555986
0.540106
0.522639
0.503818
0.483912
0.463286
0.442342
0.423029
0.403434
0.389551
0.930465
3.59416
3.4276
0.399968
0.141941
-0.139644
0.816465
1.48975
0.344939
3.79345
4.58784
4.36601
2.99734
-0.0777113
-0.237143
0.0656576
33.8073
27.1589
0.160696
0.033721
-0.327954
-0.285625
0.469167
0.410695
2.63384
6.61698
27.3027
30.6362
25.6145
1.48379
2.26291
3.33175
2.56305
0.729891
-0.385325
-0.346542
-0.300024
1.44548
4.68965
7.33334
6.68901
2.18452
1.18694
0.395392
-0.0808806
-0.0378975
0.0243057
0.0914039
0.157442
0.219956
0.27764
0.329681
0.375805
0.416118
0.45084
0.480371
0.504913
0.525125
0.540784
0.553346
0.559975
0.842317
0.975727
0.974559
0.73618
0.560783
0.557249
0.550546
0.541289
0.529636
0.515756
0.499759
0.481761
0.461797
0.439814
0.415656
0.389069
0.361669
0.3257
0.283178
0.722087
3.20693
3.37737
0.541331
0.0445386
-0.288701
1.23317
1.4651
1.36141
4.60822
4.52401
1.20728
-0.369863
-0.220566
0.120065
0.232586
32.0686
51.1515
7.47942
-0.402156
-0.257884
-0.300427
1.06408
0.830657
1.23075
14.4226
27.0845
18.3575
0.000657491
-0.382437
0.4385
2.93601
0.691595
-0.605219
-0.468751
-0.398269
-0.0274149
3.84725
7.18967
7.34372
7.43832
6.19823
0.337233
0.0764599
-0.125955
-0.113286
-0.0394457
0.0363797
0.106343
0.170525
0.228954
0.281299
0.327569
0.368021
0.402961
0.4328
0.457764
0.4785
0.494813
0.507874
0.516005
0.584906
0.938201
0.93993
0.659794
0.519969
0.517419
0.511637
0.502863
0.491524
0.477781
0.461617
0.442989
0.421723
0.397432
0.369389
0.33636
0.297724
0.244775
0.167462
0.644564
3.23803
3.27934
2.60423
0.0199644
-0.324485
-0.50349
1.31975
0.275486
0.142129
1.11139
-0.20961
-0.0844036
0.239211
0.63943
1.02044
48.5754
52.7866
33.2591
2.11987
-0.397731
-0.270234
1.63341
3.0842
1.55508
12.5554
17.644
1.66395
-0.291805
-0.788094
-0.953079
-1.03967
-0.939282
-0.740558
-0.569342
-0.440573
-0.44704
0.500184
4.83771
7.25618
7.29887
7.38273
3.35269
-0.367189
-0.278755
-0.201005
-0.107473
-0.017697
0.0583443
0.12535
0.185084
0.237877
0.284225
0.324628
0.359565
0.389496
0.414727
0.435732
0.45289
0.466281
0.478299
0.483245
0.839753
0.814662
0.520845
0.48278
0.480462
0.475344
0.466974
0.456009
0.442431
0.426175
0.407061
0.384701
0.358377
0.326875
0.287746
0.237956
0.165621
0.0516432
1.72246
3.16948
3.14425
3.02222
1.3203
-0.199126
-0.356405
0.0490251
0.949702
0.252777
0.238518
0.329409
0.53179
0.821425
1.10689
37.2167
54.6523
54.2894
54.5531
4.88262
-0.237515
-0.121097
1.32541
3.4778
1.39334
1.18482
1.87088
2.15575
3.51603
3.05487
0.467974
-1.22916
-1.06801
-0.55523
-0.317574
-0.729168
-0.868942
-0.953235
-0.999891
7.14527
7.18453
7.23921
4.48886
-0.541191
-0.402589
-0.288662
-0.171835
-0.0654223
0.0158221
0.0857723
0.146665
0.199657
0.245827
0.285876
0.320538
0.350351
0.375751
0.396332
0.414789
0.426947
0.444089
0.743539
0.549569
0.468402
0.446892
0.44884
0.446247
0.44154
0.433636
0.423098
0.409797
0.393665
0.374441
0.351584
0.324159
0.290645
0.247942
0.191387
0.108413
-0.0292803
1.20891
3.05925
3.04316
2.92515
2.74128
0.434118
0.0750535
0.861574
1.76696
0.723472
0.777221
1.03521
1.15463
1.30366
21.0794
56.6766
56.1064
55.9757
35.0524
1.33285
-0.125165
0.0184394
0.931454
3.63922
1.41781
0.643813
0.653621
4.15714
3.66174
3.35866
0.677082
-1.30667
-1.12465
-0.431173
-0.326139
-0.997832
-0.974263
-1.00384
-1.06426
4.70744
7.20501
6.871
0.601346
-0.627702
-0.461979
-0.269567
-0.217836
-0.106054
-0.0189933
0.0531059
0.114332
0.166869
0.212317
0.251691
0.28579
0.315205
0.341006
0.359273
0.380247
0.388471
0.556837
0.742312
0.48629
0.411919
0.41577
0.416898
0.414909
0.41023
0.402772
0.392691
0.379856
0.364163
0.345311
0.322749
0.295557
0.262234
0.219939
0.164103
0.0854998
-0.040777
0.0151494
1.12272
0.856618
1.63522
2.75275
2.2905
0.485975
0.643117
1.004
7.14607
32.7204
35.0441
25.8657
33.1159
57.2776
57.5095
57.7173
27.116
-0.377555
-0.185796
-0.0401268
0.120231
0.634456
3.66561
2.81938
0.426624
2.80304
4.1612
3.71592
3.39184
-1.3564
-1.31349
-0.945344
-0.383445
-0.937623
-0.980908
-0.959331
-0.998716
-1.08061
0.216957
7.32888
4.40336
1.26271
0.531596
0.76376
-0.353823
-0.243074
-0.130252
-0.0428737
0.0285805
0.0885521
0.139671
0.183741
0.221919
0.254979
0.283443
0.308113
0.327587
0.347717
0.354136
0.71127
0.713193
0.389967
0.38174
0.386
0.387091
0.385502
0.381168
0.37424
0.364729
0.352558
0.337622
0.319643
0.298169
0.272488
0.241482
0.2033
0.155022
0.0923573
0.00356635
-0.119283
-0.224797
-0.254193
-0.216225
1.03819
2.43686
1.90718
1.01206
1.00138
15.1326
36.594
37.6628
40.7525
42.9718
50.1104
39.1021
7.36481
-0.514627
-0.368299
-0.159561
0.0326351
0.242866
0.186343
3.59073
5.24381
0.278136
3.06125
4.22148
3.8524
1.71989
-1.34877
-1.22113
0.527345
-0.534632
-0.976801
-0.897662
-0.878811
-0.924225
-1.02975
-0.741379
7.1276
7.33957
7.52791