/*--------------------------------*- C++ -*----------------------------------*\
| =========                 |                                                 |
| \\      /  F ield         | OpenFOAM: The Open Source CFD Toolbox           |
|  \\    /   O peration     | Version:  2412                                  |
|   \\  /    A nd           | Website:  www.openfoam.com                      |
|    \\/     M anipulation  |                                                 |
\*---------------------------------------------------------------------------*/
FoamFile
{
    version     2.0;
    format      ascii;
    arch        "LSB;label=32;scalar=64";
    class       volScalarField;
    location    "3.2";
    object      p;
}
// * * * * * * * * * * * * * * * * * * * * * * * * * * * * * * * * * * * * * //

dimensions      [1 -1 -2 0 0 0 0];

internalField   nonuniform List<scalar> 
6400
(
9525.64
9526.98
9529.42
9532.95
9537.45
9542.77
9548.71
9555.09
9561.69
9568.32
9574.76
9580.84
9586.39
9591.28
9595.39
9598.63
9600.97
9602.37
9602.85
9602.44
9601.22
9599.25
9596.63
9593.47
9589.9
9586.02
9581.96
9577.83
9573.73
9569.76
9566.01
9562.54
9559.43
9556.71
9554.42
9552.59
9551.23
9550.34
9549.93
9549.99
9550.51
9551.47
9552.86
9554.67
9556.87
9559.46
9562.4
9565.67
9569.24
9573.06
9577.09
9581.28
9585.56
9589.85
9594.08
9598.14
9601.96
9605.43
9608.46
9610.95
9612.82
9613.99
9614.4
9614.03
9612.85
9610.88
9608.14
9604.71
9600.67
9596.14
9591.26
9586.17
9581.04
9576.04
9571.35
9567.13
9563.54
9560.71
9558.76
9557.54
9033.89
9035.3
9037.83
9041.49
9046.14
9051.63
9057.78
9064.36
9071.17
9077.99
9084.62
9090.86
9096.55
9101.55
9105.74
9109.04
9111.39
9112.78
9113.23
9112.76
9111.46
9109.39
9106.66
9103.39
9099.7
9095.7
9091.52
9087.28
9083.09
9079.03
9075.21
9071.68
9068.52
9065.76
9063.45
9061.61
9060.24
9059.35
9058.95
9059.02
9059.54
9060.52
9061.93
9063.75
9065.98
9068.59
9071.55
9074.86
9078.46
9082.34
9086.42
9090.68
9095.03
9099.4
9103.72
9107.88
9111.8
9115.37
9118.49
9121.06
9123
9124.23
9124.68
9124.33
9123.14
9121.12
9118.33
9114.81
9110.66
9105.99
9100.95
9095.7
9090.4
9085.23
9080.37
9076
9072.28
9069.35
9067.35
9066.01
8540.82
8542.41
8545.11
8549.02
8553.99
8559.85
8566.4
8573.4
8580.63
8587.85
8594.85
8601.43
8607.4
8612.63
8616.98
8620.37
8622.77
8624.14
8624.51
8623.92
8622.45
8620.18
8617.24
8613.73
8609.8
8605.57
8601.16
8596.7
8592.31
8588.08
8584.1
8580.45
8577.19
8574.36
8571.99
8570.11
8568.73
8567.85
8567.45
8567.54
8568.09
8569.09
8570.53
8572.4
8574.67
8577.33
8580.35
8583.73
8587.42
8591.39
8595.59
8599.98
8604.48
8609.03
8613.52
8617.88
8621.99
8625.75
8629.06
8631.81
8633.89
8635.24
8635.77
8635.44
8634.23
8632.15
8629.22
8625.52
8621.14
8616.21
8610.86
8605.27
8599.62
8594.1
8588.91
8584.22
8580.23
8577.08
8574.94
8573.52
8046.34
8048.26
8051.18
8055.48
8060.95
8067.39
8074.56
8082.21
8090.09
8097.93
8105.5
8112.59
8118.99
8124.56
8129.16
8132.71
8135.16
8136.49
8136.74
8135.96
8134.23
8131.66
8128.37
8124.5
8120.2
8115.6
8110.84
8106.05
8101.36
8096.86
8092.66
8088.82
8085.41
8082.47
8080.03
8078.11
8076.7
8075.82
8075.44
8075.55
8076.14
8077.2
8078.69
8080.61
8082.95
8085.68
8088.79
8092.27
8096.08
8100.2
8104.58
8109.16
8113.89
8118.69
8123.46
8128.11
8132.52
8136.59
8140.19
8143.2
8145.52
8147.04
8147.69
8147.42
8146.18
8143.99
8140.87
8136.9
8132.17
8126.82
8121
8114.9
8108.72
8102.65
8096.93
8091.75
8087.33
8083.82
8081.45
8080.07
7550.44
7552.6
7555.9
7560.77
7566.94
7574.19
7582.24
7590.8
7599.57
7608.27
7616.64
7624.42
7631.42
7637.45
7642.39
7646.13
7648.65
7649.92
7649.99
7648.93
7646.84
7643.84
7640.08
7635.71
7630.89
7625.79
7620.55
7615.31
7610.21
7605.35
7600.84
7596.76
7593.15
7590.07
7587.53
7585.55
7584.12
7583.24
7582.89
7583.05
7583.7
7584.82
7586.38
7588.38
7590.79
7593.62
7596.85
7600.45
7604.43
7608.73
7613.34
7618.2
7623.23
7628.37
7633.52
7638.57
7643.4
7647.88
7651.89
7655.27
7657.92
7659.7
7660.54
7660.34
7659.08
7656.75
7653.37
7649.02
7643.81
7637.88
7631.42
7624.61
7617.68
7610.86
7604.39
7598.53
7593.51
7589.5
7586.9
7585.58
7052.97
7055.23
7059.1
7064.74
7071.87
7080.2
7089.42
7099.17
7109.12
7118.95
7128.34
7137.03
7144.79
7151.43
7156.79
7160.78
7163.37
7164.54
7164.37
7162.93
7160.35
7156.78
7152.39
7147.36
7141.87
7136.11
7130.24
7124.42
7118.8
7113.49
7108.59
7104.19
7100.35
7097.09
7094.44
7092.4
7090.97
7090.11
7089.81
7090.03
7090.75
7091.95
7093.6
7095.68
7098.2
7101.13
7104.49
7108.25
7112.41
7116.96
7121.85
7127.04
7132.46
7138.04
7143.67
7149.24
7154.62
7159.65
7164.19
7168.08
7171.16
7173.31
7174.39
7174.32
7173.03
7170.52
7166.82
7161.98
7156.15
7149.48
7142.16
7134.42
7126.51
7118.7
7111.25
7104.48
7098.65
7093.9
7090.97
7089.4
6553.53
6556.15
6560.6
6567.23
6575.58
6585.33
6596.05
6607.34
6618.79
6630.04
6640.73
6650.57
6659.28
6666.66
6672.54
6676.83
6679.48
6680.51
6679.99
6678.05
6674.83
6670.52
6665.33
6659.45
6653.12
6646.52
6639.87
6633.33
6627.06
6621.19
6615.83
6611.06
6606.93
6603.48
6600.71
6598.62
6597.19
6596.37
6596.14
6596.46
6597.28
6598.58
6600.33
6602.52
6605.14
6608.19
6611.68
6615.62
6620
6624.81
6630.03
6635.62
6641.52
6647.64
6653.88
6660.1
6666.17
6671.9
6677.13
6681.67
6685.34
6687.95
6689.37
6689.48
6688.19
6685.48
6681.36
6675.93
6669.31
6661.69
6653.3
6644.39
6635.23
6626.16
6617.41
6609.47
6602.62
6596.91
6593.44
6591.61
6052.54
6055.09
6060.08
6067.99
6077.93
6089.48
6102.11
6115.33
6128.66
6141.67
6153.97
6165.21
6175.09
6183.38
6189.88
6194.5
6197.19
6198.01
6197.04
6194.44
6190.4
6185.15
6178.93
6172
6164.61
6156.99
6149.37
6141.95
6134.9
6128.37
6122.45
6117.25
6112.81
6109.15
6106.27
6104.15
6102.74
6102.01
6101.89
6102.33
6103.28
6104.71
6106.57
6108.87
6111.6
6114.76
6118.39
6122.5
6127.11
6132.22
6137.82
6143.88
6150.33
6157.1
6164.07
6171.1
6178.02
6184.64
6190.75
6196.12
6200.53
6203.77
6205.65
6206.01
6204.75
6201.81
6197.2
6191.03
6183.44
6174.66
6164.94
6154.57
6143.83
6133.23
6122.66
6113.19
6105.07
6098.54
6094.24
6092.04
5547.9
5551.2
5557.05
5566.71
5578.71
5592.54
5607.57
5623.18
5638.82
5653.99
5668.24
5681.19
5692.48
5701.85
5709.08
5714.06
5716.77
5717.27
5715.69
5712.24
5707.16
5700.72
5693.24
5685
5676.31
5667.45
5658.66
5650.19
5642.21
5634.89
5628.34
5622.65
5617.86
5613.99
5611.02
5608.9
5607.57
5606.96
5607
5607.62
5608.75
5610.32
5612.32
5614.73
5617.55
5620.81
5624.56
5628.83
5633.67
5639.09
5645.11
5651.7
5658.8
5666.34
5674.19
5682.19
5690.16
5697.87
5705.07
5711.5
5716.87
5720.92
5723.42
5724.14
5722.95
5719.76
5714.58
5707.52
5698.75
5688.52
5677.17
5665.06
5652.05
5639.51
5627.26
5615.93
5606.05
5598.17
5592.89
5590.27
5039.77
5043.66
5051.4
5063.14
5077.72
5094.4
5112.41
5130.98
5149.42
5167.18
5183.79
5198.79
5211.78
5222.43
5230.5
5235.88
5238.54
5238.59
5236.21
5231.65
5225.25
5217.33
5208.27
5198.44
5188.17
5177.8
5167.62
5157.89
5148.82
5140.59
5133.32
5127.09
5121.95
5117.88
5114.85
5112.78
5111.6
5111.2
5111.48
5112.33
5113.67
5115.44
5117.58
5120.09
5122.98
5126.31
5130.13
5134.53
5139.58
5145.32
5151.78
5158.95
5166.8
5175.23
5184.12
5193.29
5202.53
5211.59
5220.15
5227.89
5234.49
5239.6
5242.91
5244.14
5243.1
5239.65
5233.81
5225.67
5215.45
5203.46
5190.06
5175.55
5160.53
5145.54
5130.95
5117.28
5105.12
5095.39
5088.89
5085.78
4527.55
4532.12
4541.93
4556.73
4574.73
4594.92
4616.63
4638.83
4660.63
4681.49
4700.91
4718.37
4733.38
4745.54
4754.59
4760.37
4762.9
4762.31
4758.86
4752.9
4744.82
4735.06
4724.07
4712.28
4700.11
4687.93
4676.1
4664.9
4654.56
4645.29
4637.21
4630.4
4624.89
4620.65
4617.62
4615.7
4614.76
4614.67
4615.28
4616.45
4618.08
4620.08
4622.37
4624.96
4627.88
4631.2
4635.05
4639.52
4644.72
4650.75
4657.66
4665.48
4674.16
4683.62
4693.72
4704.29
4715.06
4725.75
4735.99
4745.4
4753.56
4760.04
4764.43
4766.37
4765.58
4761.89
4755.27
4745.84
4733.87
4719.7
4703.79
4686.73
4669
4651.16
4633.69
4617.1
4601.89
4589.67
4581.63
4577.94
4010.45
4015.13
4027.81
4047.06
4069.78
4093.99
4120.37
4146.86
4172.49
4197.14
4219.93
4240.33
4257.77
4271.73
4281.89
4288.08
4290.33
4288.86
4284.01
4276.23
4266.04
4254
4240.63
4226.47
4212.01
4197.69
4183.91
4170.98
4159.19
4148.72
4139.74
4132.3
4126.44
4122.09
4119.16
4117.51
4116.96
4117.32
4118.4
4120.01
4122.01
4124.28
4126.74
4129.37
4132.23
4135.45
4139.18
4143.61
4148.9
4155.17
4162.54
4171.04
4180.65
4191.29
4202.81
4215.02
4227.64
4240.31
4252.63
4264.11
4274.25
4282.5
4288.33
4291.26
4290.89
4286.98
4279.45
4268.48
4254.39
4237.55
4218.75
4198.51
4177.5
4156.33
4135.54
4115.59
4095.82
4079.63
4069.53
4065.98
3489.43
3496.02
3509.96
3533.88
3563.64
3594.18
3624.95
3655.22
3685.34
3714.32
3741.2
3765.19
3785.55
3801.66
3813.1
3819.66
3821.44
3818.73
3812.03
3801.93
3789.1
3774.23
3757.96
3740.94
3723.74
3706.88
3690.8
3675.88
3662.4
3650.58
3640.6
3632.51
3626.33
3621.97
3619.27
3618.05
3618.08
3619.1
3620.85
3623.06
3625.54
3628.13
3630.74
3633.34
3636.04
3639.01
3642.48
3646.71
3651.93
3658.38
3666.18
3675.39
3686.04
3698
3711.16
3725.29
3740.1
3755.19
3770.05
3784.11
3796.75
3807.3
3815.06
3819.36
3819.65
3815.55
3806.97
3794.1
3777.37
3757.42
3735.03
3710.98
3686.12
3661.38
3637.36
3613.8
3585.65
3564.77
3553.91
3550.36
2979.89
2984.49
2993.13
3014.65
3054.8
3090.74
3126.31
3163.03
3199.11
3233.47
3265.23
3293.53
3317.5
3336.18
3349.07
3355.94
3356.95
3352.54
3343.4
3330.33
3314.19
3295.82
3276.02
3255.55
3235.09
3215.23
3196.48
3179.24
3163.82
3150.48
3139.38
3130.62
3124.16
3119.9
3117.63
3117.09
3117.99
3119.98
3122.67
3125.7
3128.8
3131.76
3134.48
3136.95
3139.28
3141.75
3144.71
3148.51
3153.51
3159.99
3168.18
3178.14
3189.96
3203.44
3218.46
3234.83
3252.24
3270.23
3288.22
3305.49
3321.3
3334.81
3345.12
3351.32
3352.6
3348.43
3338.63
3323.43
3303.46
3279.63
3252.84
3224.04
3194.11
3163.82
3135.83
3109.02
3075.29
3060.24
3051.22
3045.81
2480.88
2474.56
2465.91
2487.11
2542.86
2585.88
2628.61
2672.05
2714.64
2755.21
2792.67
2826
2854.55
2876.3
2890.9
2897.98
2897.8
2891.04
2878.67
2861.79
2841.48
2818.8
2794.71
2770.1
2745.78
2722.42
2700.58
2680.67
2663.01
2647.91
2635.57
2626.08
2619.44
2615.47
2613.9
2614.37
2616.55
2619.91
2623.91
2628.06
2631.96
2635.34
2638.12
2640.28
2642
2643.65
2645.7
2648.71
2653.19
2659.56
2668.11
2678.78
2692.02
2707.19
2724.31
2743.27
2763.75
2785.25
2807.06
2828.3
2848.1
2865.46
2879.19
2888.02
2890.79
2886.66
2875.35
2857.21
2833.21
2804.61
2772.56
2738.25
2703.01
2668.37
2634.66
2602.82
2556.35
2543.8
2554.86
2561.67
1982.18
1963.72
1934.18
1962.9
2023.67
2076.76
2128.06
2179.93
2231.03
2279.38
2323.85
2363.63
2397.48
2423.43
2440.14
2447.17
2445.1
2435.06
2418.41
2396.65
2371.13
2343.13
2313.84
2284.29
2255.39
2227.95
2202.55
2179.58
2159.34
2142.22
2128.48
2118.23
2111.54
2108.16
2107.64
2109.59
2113.57
2118.87
2124.69
2130.38
2135.36
2139.26
2142
2143.59
2144.27
2144.6
2145.24
2146.9
2150.37
2156.33
2165.26
2177.27
2191.61
2208.59
2228.11
2250.07
2274.16
2299.83
2326.25
2352.41
2377.26
2399.63
2417.99
2430.57
2435.6
2431.8
2418.57
2396.5
2367.12
2332.49
2293.78
2252.21
2209.2
2167.27
2127.81
2089.21
2038.83
2010.89
2054.36
2076.77
1475.56
1449.57
1408.85
1439.08
1501.2
1564.58
1625.49
1688.17
1749.64
1807.22
1859.71
1906.97
1947.56
1978.89
1998.26
2004.83
1999.82
1985.16
1962.97
1935.08
1903.15
1868.62
1833.02
1797.66
1763.49
1731.31
1701.71
1675.07
1651.71
1632.2
1616.86
1605.55
1598.8
1596.46
1597.68
1601.78
1608.12
1615.84
1623.98
1631.71
1638.19
1642.8
1645.37
1646.05
1645.37
1644.11
1642.93
1642.49
1643.92
1648.7
1657.83
1670.81
1687.28
1706.92
1729.45
1754.83
1782.78
1812.96
1844.91
1877.26
1908.46
1937.23
1961.68
1979.41
1987.89
1984.91
1969.22
1942.2
1905.86
1864.35
1817.7
1767.25
1714.44
1662.94
1617.37
1571.3
1523.78
1499.1
1548.24
1587.9
962.341
927.399
895.162
918.332
962.6
1041.92
1122.32
1197.68
1273.43
1342.07
1403.21
1458.65
1507.48
1545.08
1566.89
1572.05
1562.76
1542
1512.93
1477.33
1437.29
1394.74
1351.72
1309.84
1269.97
1232.67
1198.22
1167.03
1139.55
1116.63
1099.33
1086.1
1078.8
1077.77
1081.96
1089.83
1099.9
1110.99
1122.2
1132.58
1141.09
1146.73
1149.01
1148.25
1145.4
1141.62
1137.71
1134.28
1132.7
1135.01
1144.29
1158.56
1178.74
1202.51
1229.07
1258.07
1289.41
1323.95
1362.19
1402.12
1441.48
1478.46
1510.2
1534.46
1548.33
1548.3
1530.81
1497.42
1453.61
1403.56
1347.92
1287.15
1220.04
1161.68
1102.86
1047.23
1007.66
1000.59
1056.46
1115.7
416.193
308.529
217.172
226.309
323.919
468.326
592.61
698.657
792.468
874.226
946.557
1015.34
1077.05
1124.85
1150.44
1153.09
1136.93
1106.89
1069
1023.01
973.262
920.994
869.051
820.106
774.292
731.716
692.008
655.652
622.963
593.461
570.204
558.525
552.739
554.864
562.396
573.945
588.154
603.703
619.24
633.486
644.936
652.159
654.484
652.166
646.2
638.61
631.384
624.313
617.302
612.869
618.13
639.726
666.523
694.438
724.4
757.594
793.329
833.282
879.438
929.196
978.296
1025.62
1066.47
1099.57
1120.49
1124.94
1105.61
1063.48
1008.05
944.747
873.9
795.882
710.744
620.905
517.866
385.989
295.884
326.082
440.288
561.63
82.9567
25.168
6.46359
0.98759
27.8134
103.317
159.405
229.405
338.304
429.287
508.843
585.093
660.165
723.416
756.275
753.872
726.256
682.905
637.184
581.04
514.866
447.471
388.257
340.552
299.563
262.244
227.003
195.802
172.19
158.304
148.745
142.003
137.566
140.242
145.898
153.65
163.87
175.913
187.828
199.108
208.463
213.837
215.161
212.891
207.273
199.546
191.946
184.314
177.764
173.256
174.546
187.781
207.079
227.753
250.05
275.169
304.918
344.153
395.006
456.724
523.332
584.458
639.018
686.633
718.268
724.71
695.178
638.922
572.685
500.738
417.699
327.691
241.372
168.998
123.936
59.2473
27.7762
32.6836
63.2991
145.165
-2.46917
-2.26043
-2.51365
-4.23012
-5.09502
-4.90284
-4.51876
4.20768
63.0165
120.261
172.549
215.983
280.281
375.638
431.789
413.216
357.217
310.761
259.695
197.258
139.439
94.4562
67.597
51.0125
36.1232
23.0471
9.60033
-2.61627
-7.17015
-4.40816
-2.60797
-2.61254
-3.50109
-4.68518
-4.40151
-2.9942
-0.921026
1.66267
4.00536
6.30094
8.37642
9.43507
9.51175
8.6339
6.7961
4.0073
0.622317
-2.61189
-4.63088
-5.59668
-5.96524
-4.34791
0.739656
8.05527
16.0506
24.1752
33.21
45.4776
64.6647
100.15
154.191
210.278
271.807
336.389
389.128
394.534
322.491
243.081
203.859
174.909
119.976
54.2661
17.995
5.61787
6.2995
7.1881
8.5359
9.20201
8.61337
10.7697
-4.77449
-4.19841
-3.92835
-5.20457
-6.20501
-6.48465
-7.28173
-9.23844
-8.60993
-8.46649
-7.73805
2.88147
46.3544
148.285
206.924
161.625
112.759
70.1762
34.1116
10.214
-1.52454
-3.39527
-2.67238
-2.54887
-3.62932
-5.73671
-8.36071
-9.22774
-7.34181
-5.37401
-4.58548
-4.9338
-5.97653
-7.04808
-7.69399
-8.02247
-8.26813
-8.44168
-8.58817
-8.76523
-8.95388
-9.09976
-9.16188
-9.17172
-9.1575
-9.1204
-9.09801
-9.03129
-8.86604
-8.67424
-8.53863
-8.61907
-8.912
-9.3264
-9.65366
-9.81156
-9.78344
-9.76899
-9.89432
-8.29723
1.27401
20.4702
51.7148
91.6795
143.461
167.051
95.2537
19.0222
-3.62861
-6.81305
-7.3846
-7.83445
-5.11116
1.45276
4.15632
4.98483
6.05101
6.89221
5.77999
4.37303
-5.38287
-5.29255
-5.19354
-6.48308
-7.22295
-7.53789
-7.84722
-8.47096
-8.8924
-8.97764
-9.03338
-8.64225
-8.09729
-5.15798
14.2657
10.1313
-0.447945
-7.05451
-8.58163
-8.26682
-7.29136
-6.07172
-5.26456
-5.24401
-6.30704
-8.43016
-10.4515
-10.998
-9.94133
-8.35398
-7.24483
-7.10582
-7.52486
-7.97117
-8.34766
-8.65049
-8.88556
-9.06786
-9.23194
-9.38079
-9.51788
-9.63499
-9.70314
-9.72023
-9.70142
-9.65578
-9.5984
-9.54035
-9.47363
-9.41621
-9.40758
-9.48007
-9.72296
-10.1702
-10.6028
-10.7661
-10.7612
-10.6206
-10.4166
-10.2619
-10.869
-11.1242
-9.78129
-2.86838
3.85005
0.451343
-8.86385
-9.26355
-9.2086
-8.87947
-8.86962
-8.58812
-6.20512
-1.23528
1.82631
1.43782
1.10857
1.54593
0.885857
0.897301
-5.67398
-6.06667
-6.67368
-7.84911
-8.2144
-8.3355
-8.49525
-8.89845
-9.39878
-9.77742
-10.0182
-9.94991
-9.8119
-10.3326
-10.2281
-9.73615
-9.46487
-9.46396
-9.49888
-9.5479
-9.28155
-8.7148
-8.43062
-8.86674
-10.1389
-12.0059
-13.4667
-13.5169
-11.8613
-10.4097
-9.28904
-8.85089
-8.85961
-9.01398
-9.20676
-9.39318
-9.5591
-9.71435
-9.85591
-9.97065
-10.0686
-10.1576
-10.2153
-10.2289
-10.2167
-10.1897
-10.155
-10.1192
-10.0901
-10.0847
-10.114
-10.1982
-10.4203
-10.8227
-11.2253
-11.42
-11.399
-11.2593
-11.1534
-11.2257
-11.3875
-11.4769
-11.6507
-12.0054
-12.1284
-12.2267
-11.3656
-10.5092
-10.175
-10.2646
-10.8435
-10.9309
-9.30788
-5.38302
-3.84596
-5.12374
-6.72007
-6.77817
-6.05868
-4.79808
-6.18254
-6.97456
-8.23374
-9.0157
-9.17624
-9.15727
-9.28148
-9.51504
-9.91241
-10.3914
-10.7467
-10.6831
-10.337
-10.2652
-10.2892
-10.0724
-10.1002
-10.1538
-10.1649
-10.3614
-10.7768
-11.2818
-11.9999
-12.6548
-14.0036
-15.742
-16.8673
-16.474
-14.1484
-12.184
-10.9416
-10.3295
-10.1001
-10.0513
-10.0912
-10.1742
-10.2715
-10.3747
-10.4759
-10.5625
-10.637
-10.7057
-10.7522
-10.7633
-10.7553
-10.7426
-10.7313
-10.7317
-10.7402
-10.7602
-10.7979
-10.8715
-11.0303
-11.3022
-11.5796
-11.7284
-11.7658
-11.7103
-11.6354
-11.7211
-11.8748
-11.9925
-12.1104
-12.1984
-12.2139
-12.0588
-11.603
-11.2439
-11.1154
-11.518
-12.5349
-13.5729
-12.6587
-9.88438
-9.82327
-10.8222
-11.6609
-12.2678
-11.8471
-9.63242
-7.73015
-8.72434
-9.70421
-10.2294
-10.1718
-9.96648
-10.015
-10.1815
-10.4255
-10.6751
-10.8043
-10.7557
-10.6517
-10.6922
-10.6906
-10.5913
-10.5082
-10.6042
-10.9401
-11.7077
-12.8846
-13.7465
-14.4281
-15.3188
-16.9489
-18.792
-19.5436
-18.6192
-16.1514
-13.7598
-12.3444
-11.5616
-11.1687
-10.9915
-10.9337
-10.9435
-10.9858
-11.0419
-11.1037
-11.1624
-11.2159
-11.2656
-11.3007
-11.3103
-11.3074
-11.3073
-11.313
-11.3317
-11.3584
-11.3924
-11.4414
-11.5104
-11.6229
-11.7915
-11.9779
-12.1152
-12.1943
-12.1966
-12.1755
-12.2266
-12.3047
-12.3717
-12.4173
-12.4053
-12.3189
-12.154
-11.9419
-11.777
-11.8101
-12.481
-13.9635
-15.5679
-14.8608
-12.8816
-12.7096
-13.0257
-13.7291
-14.2641
-14.1327
-12.0902
-10.6836
-11.656
-11.5024
-11.6152
-11.1716
-10.8645
-10.8648
-10.9522
-11.0461
-11.0909
-11.0881
-11.0771
-11.1257
-11.2269
-11.2415
-11.1468
-11.2751
-11.6556
-12.2665
-13.2082
-14.1845
-14.9141
-15.4881
-16.4123
-18.0422
-19.6161
-20.0324
-19.0459
-16.9194
-14.77
-13.3884
-12.555
-12.0961
-11.8545
-11.735
-11.6878
-11.6833
-11.7018
-11.7322
-11.7665
-11.8001
-11.8314
-11.8547
-11.8636
-11.867
-11.8763
-11.8921
-11.9142
-11.944
-11.9824
-12.035
-12.1039
-12.1976
-12.3158
-12.4456
-12.5524
-12.6217
-12.6562
-12.6627
-12.6892
-12.7415
-12.7757
-12.7732
-12.7405
-12.6582
-12.5272
-12.4063
-12.3206
-12.3965
-13.0065
-14.2723
-15.4261
-14.6884
-13.6674
-13.5462
-13.9262
-14.7656
-15.0108
-14.5227
-12.5354
-12.9744
-13.9185
-13.0231
-12.5848
-11.842
-11.5446
-11.4755
-11.4595
-11.4553
-11.4451
-11.4789
-11.5728
-11.6936
-11.8024
-11.8278
-11.9592
-12.2924
-12.7763
-13.4059
-14.0991
-14.8083
-15.5448
-16.2097
-16.9817
-18.1842
-19.1801
-19.3377
-18.4971
-16.8656
-15.1938
-14.09
-13.3551
-12.9123
-12.6468
-12.4896
-12.4027
-12.362
-12.3499
-12.3549
-12.3689
-12.3864
-12.4043
-12.4192
-12.428
-12.4355
-12.4487
-12.468
-12.4916
-12.522
-12.5606
-12.6102
-12.6721
-12.7495
-12.8395
-12.9329
-13.0112
-13.0629
-13.096
-13.1145
-13.1316
-13.1551
-13.1721
-13.1654
-13.1241
-13.0561
-12.969
-12.8867
-12.8528
-12.9311
-13.2861
-13.9681
-14.468
-14.1442
-13.6491
-13.7493
-14.2171
-15.0319
-15.0948
-13.963
-12.3462
-13.5991
-14.0251
-13.3882
-12.8223
-12.1258
-11.9766
-11.8906
-11.7749
-11.7143
-11.7048
-11.8202
-12.0096
-12.1522
-12.2172
-12.417
-12.7888
-13.2125
-13.6429
-14.1137
-14.6032
-15.2339
-15.9395
-16.5999
-17.217
-17.8564
-18.3629
-18.3357
-17.6222
-16.5039
-15.3966
-14.5909
-14.0195
-13.6297
-13.3678
-13.1953
-13.0862
-13.0213
-12.9865
-12.9717
-12.9695
-12.9744
-12.983
-12.9922
-13
-13.0083
-13.0212
-13.0401
-13.0642
-13.0942
-13.1309
-13.1755
-13.2288
-13.2911
-13.3595
-13.4278
-13.4854
-13.5235
-13.5477
-13.5638
-13.5756
-13.5854
-13.5873
-13.573
-13.5403
-13.4921
-13.4374
-13.386
-13.3659
-13.4128
-13.5657
-13.7609
-13.8458
-13.5646
-13.4194
-13.65
-14.069
-14.5451
-14.2566
-12.8107
-11.9659
-13.4845
-13.6482
-13.3295
-12.8204
-12.3814
-12.262
-12.1831
-12.1359
-12.2073
-12.3589
-12.4883
-12.6083
-12.6783
-12.8502
-13.2566
-13.6894
-14.0113
-14.3157
-14.5905
-14.9774
-15.5076
-16.0777
-16.6134
-17.0849
-17.4602
-17.643
-17.5017
-16.9988
-16.2922
-15.5967
-15.034
-14.5962
-14.2686
-14.0282
-13.8569
-13.7386
-13.6599
-13.61
-13.5807
-13.5659
-13.5605
-13.5611
-13.5653
-13.5711
-13.5787
-13.5902
-13.6071
-13.6297
-13.6579
-13.6916
-13.7314
-13.7772
-13.8281
-13.8813
-13.9324
-13.9754
-14.0042
-14.0207
-14.0286
-14.0298
-14.025
-14.0145
-13.9964
-13.969
-13.9337
-13.9022
-13.8781
-13.8725
-13.8959
-13.9571
-13.9827
-13.8172
-13.3378
-13.3177
-13.5936
-13.8707
-13.7546
-12.9033
-12.1405
-12.1155
-13.6067
-13.6697
-13.5951
-13.4186
-13.2387
-12.9455
-13.0123
-13.1885
-13.3212
-13.5702
-13.7735
-13.7686
-13.7711
-14.052
-14.3314
-14.5413
-14.7095
-14.8662
-15.0721
-15.35
-15.7119
-16.1159
-16.5066
-16.8418
-17.0792
-17.1723
-17.0582
-16.7432
-16.3075
-15.8584
-15.4594
-15.1231
-14.8522
-14.6414
-14.4808
-14.3623
-14.2774
-14.2187
-14.1797
-14.1553
-14.141
-14.1341
-14.1334
-14.1374
-14.1446
-14.1549
-14.1696
-14.1898
-14.2155
-14.2461
-14.2815
-14.3211
-14.3635
-14.4065
-14.4467
-14.48
-14.5022
-14.5128
-14.5122
-14.5008
-14.4811
-14.4575
-14.4332
-14.4094
-14.3898
-14.3758
-14.3675
-14.3717
-14.3856
-14.4068
-14.3936
-14.1072
-13.6003
-13.4699
-13.7491
-13.9737
-13.638
-12.8915
-12.6766
-12.9081
-14.028
-14.0493
-14.1578
-14.3068
-14.3792
-14.369
-14.5914
-14.6411
-14.6548
-14.8418
-15.1193
-15.2278
-15.2205
-15.2279
-15.2626
-15.2508
-15.3071
-15.4148
-15.5567
-15.739
-15.973
-16.2469
-16.5278
-16.7727
-16.9445
-17.0122
-16.9466
-16.7536
-16.4771
-16.1738
-15.8832
-15.6229
-15.4011
-15.219
-15.074
-14.961
-14.8756
-14.8127
-14.7679
-14.7364
-14.714
-14.7002
-14.6952
-14.698
-14.7059
-14.7156
-14.7281
-14.7458
-14.769
-14.7968
-14.8283
-14.8631
-14.8995
-14.9359
-14.9693
-14.9966
-15.0142
-15.0216
-15.0159
-14.9941
-14.9569
-14.9198
-14.8902
-14.8651
-14.8493
-14.8442
-14.8565
-14.8752
-14.8953
-14.9097
-14.8908
-14.6675
-14.4263
-14.1914
-14.2002
-14.358
-13.9886
-13.3445
-13.1499
-13.3818
-14.5496
-14.5564
-14.6658
-14.8103
-15.1272
-15.4366
-15.5321
-15.5257
-15.5464
-15.7277
-16.0015
-16.0807
-16.1552
-16.0777
-15.9189
-15.8667
-15.8863
-15.9493
-16.0404
-16.1569
-16.3142
-16.5032
-16.7069
-16.8893
-17.0237
-17.0808
-17.0464
-16.9253
-16.7419
-16.529
-16.3126
-16.1091
-15.9278
-15.7724
-15.6434
-15.5392
-15.4568
-15.3936
-15.3457
-15.3095
-15.2803
-15.2614
-15.2544
-15.2564
-15.2635
-15.2726
-15.283
-15.2982
-15.319
-15.3442
-15.3728
-15.4041
-15.4368
-15.4692
-15.4991
-15.5239
-15.5405
-15.5471
-15.5432
-15.5207
-15.4654
-15.4248
-15.4012
-15.3943
-15.3979
-15.4064
-15.4105
-15.4294
-15.4506
-15.489
-15.5096
-15.4844
-15.7867
-15.7295
-15.4317
-15.2356
-14.7312
-13.9738
-13.7203
-13.8847
-15.0976
-15.1101
-15.1889
-15.2736
-15.6852
-16.3283
-16.5697
-16.4437
-16.2196
-16.319
-16.5872
-16.7022
-16.6463
-16.5845
-16.5313
-16.5055
-16.506
-16.5158
-16.5431
-16.6093
-16.7174
-16.852
-17.0043
-17.1453
-17.2503
-17.2978
-17.2796
-17.1993
-17.0715
-16.9163
-16.7514
-16.5902
-16.4412
-16.3091
-16.1956
-16.1009
-16.0236
-15.9628
-15.9139
-15.8768
-15.8445
-15.8239
-15.8158
-15.8174
-15.8218
-15.8276
-15.8345
-15.847
-15.8656
-15.8887
-15.9151
-15.9441
-15.9748
-16.0058
-16.0354
-16.0615
-16.082
-16.0966
-16.1085
-16.0994
-16.0314
-16.0025
-16.011
-16.0262
-16.0508
-16.0854
-16.1199
-16.1312
-16.1486
-16.2054
-16.3129
-16.493
-17.2735
-17.7192
-17.7028
-17.2905
-16.405
-15.1013
-14.3925
-14.4593
-15.6794
-15.7073
-15.7405
-15.9852
-16.7846
-17.5068
-17.4158
-17.0117
-16.8237
-16.8839
-17.0634
-17.1628
-17.1915
-17.1956
-17.1937
-17.1905
-17.1856
-17.151
-17.1065
-17.1121
-17.1729
-17.2754
-17.3897
-17.4976
-17.5767
-17.6132
-17.6012
-17.543
-17.4484
-17.3301
-17.2009
-17.0708
-16.9471
-16.8344
-16.735
-16.6497
-16.5778
-16.5216
-16.4729
-16.4373
-16.4061
-16.3845
-16.3775
-16.3789
-16.3802
-16.3795
-16.3822
-16.3922
-16.4087
-16.43
-16.4549
-16.4828
-16.513
-16.5447
-16.5769
-16.6085
-16.6381
-16.6704
-16.7096
-16.6994
-16.6778
-16.6495
-16.6472
-16.6442
-16.6701
-16.7228
-16.7853
-16.8511
-16.9214
-17.0223
-17.2205
-17.5242
-18.4448
-19.5955
-20.1737
-20.0467
-18.8809
-16.9561
-15.3032
-15.1096
-16.308
-16.3278
-16.3523
-16.9248
-17.8264
-18.3218
-18.1652
-17.7041
-17.4893
-17.4815
-17.5849
-17.6867
-17.7419
-17.773
-17.8012
-17.8204
-17.838
-17.8202
-17.7345
-17.6829
-17.6922
-17.77
-17.8499
-17.9224
-17.9757
-17.9974
-17.9834
-17.9354
-17.8597
-17.7649
-17.66
-17.5526
-17.4484
-17.3515
-17.2643
-17.188
-17.1223
-17.0688
-17.0224
-16.9874
-16.9578
-16.9366
-16.9321
-16.9324
-16.9295
-16.9243
-16.9247
-16.933
-16.948
-16.9679
-16.9919
-17.0194
-17.0502
-17.0842
-17.1212
-17.1618
-17.2053
-17.263
-17.3563
-17.3329
-17.3444
-17.3229
-17.2895
-17.2535
-17.2813
-17.3599
-17.4419
-17.5282
-17.6472
-17.8004
-18.0443
-18.3973
-19.1582
-20.4796
-21.5257
-21.4292
-20.2412
-18.3883
-16.2972
-15.7808
-16.9324
-16.9422
-17.18
-17.9377
-18.5618
-18.7234
-18.5463
-18.2912
-18.0632
-18.0189
-18.1018
-18.1987
-18.2446
-18.2883
-18.3365
-18.387
-18.4336
-18.455
-18.3951
-18.3253
-18.3039
-18.3386
-18.3772
-18.4048
-18.4279
-18.43
-18.4077
-18.3615
-18.2954
-18.2151
-18.1267
-18.0356
-17.9464
-17.8622
-17.7853
-17.7169
-17.657
-17.6067
-17.5633
-17.5277
-17.4991
-17.4813
-17.4757
-17.4729
-17.4668
-17.461
-17.4614
-17.469
-17.4829
-17.5019
-17.5252
-17.5529
-17.5849
-17.6217
-17.6645
-17.7158
-17.7768
-17.8614
-18.0238
-18.0633
-18.0774
-18.0647
-18.0031
-17.9545
-17.9715
-18.0752
-18.1837
-18.297
-18.4178
-18.5667
-18.7522
-19.0356
-19.5253
-20.3928
-21.0999
-20.9284
-19.9917
-18.7661
-17.0474
-16.4486
-17.5681
-17.6649
-18.05
-18.6331
-19.0761
-19.2017
-19.0466
-18.8349
-18.6616
-18.609
-18.6644
-18.7331
-18.7712
-18.8179
-18.8765
-18.9461
-19.0044
-19.0473
-19.0618
-19.0377
-19.0196
-18.9884
-18.9595
-18.9308
-18.9169
-18.8949
-18.8597
-18.8101
-18.7478
-18.6761
-18.5987
-18.5196
-18.4418
-18.3678
-18.2996
-18.2381
-18.1837
-18.1368
-18.0967
-18.062
-18.0349
-18.0202
-18.0114
-18.0052
-17.9975
-17.9926
-17.9933
-18.0005
-18.0135
-18.0316
-18.0544
-18.0821
-18.1151
-18.1545
-18.2024
-18.2639
-18.3434
-18.4613
-18.679
-18.8515
-18.8771
-18.8764
-18.792
-18.7006
-18.6839
-18.7872
-18.9204
-19.0586
-19.2065
-19.3055
-19.3637
-19.4736
-19.6802
-20.0356
-20.2764
-20.0323
-19.3873
-18.6023
-17.5399
-17.0491
-18.3585
-18.5381
-18.8818
-19.2901
-19.6327
-19.7876
-19.7517
-19.6084
-19.4228
-19.295
-19.2767
-19.3
-19.326
-19.3677
-19.4324
-19.5174
-19.5879
-19.6541
-19.7498
-19.8125
-19.7927
-19.6958
-19.5734
-19.4817
-19.4258
-19.3777
-19.3279
-19.2725
-19.2109
-19.1442
-19.0744
-19.004
-18.935
-18.8694
-18.8084
-18.753
-18.7038
-18.6605
-18.624
-18.5925
-18.5692
-18.5546
-18.5435
-18.5351
-18.5259
-18.5209
-18.5215
-18.5279
-18.5399
-18.557
-18.5789
-18.6061
-18.6392
-18.6798
-18.7304
-18.7979
-18.8895
-19.0297
-19.2859
-19.5511
-19.6202
-19.5961
-19.4737
-19.3478
-19.2948
-19.3647
-19.4871
-19.6033
-19.7386
-19.8472
-19.8325
-19.8026
-19.8223
-19.8728
-19.8046
-19.4968
-18.9785
-18.3262
-17.7785
-17.4688
-19.17
-19.3399
-19.6487
-20.0271
-20.3273
-20.4744
-20.4974
-20.4068
-20.2146
-20.0037
-19.9044
-19.8785
-19.8859
-19.9202
-19.9924
-20.0935
-20.1872
-20.3195
-20.508
-20.6069
-20.5519
-20.3728
-20.1757
-20.0286
-19.9359
-19.8654
-19.8028
-19.7418
-19.6798
-19.6164
-19.5523
-19.4886
-19.4267
-19.3679
-19.3131
-19.263
-19.2185
-19.1788
-19.1463
-19.1193
-19.1007
-19.0854
-19.0744
-19.0629
-19.0514
-19.0458
-19.0458
-19.0513
-19.0621
-19.0778
-19.0985
-19.1243
-19.1562
-19.1959
-19.2456
-19.3121
-19.4026
-19.538
-19.7785
-20.0544
-20.1594
-20.1129
-19.9927
-19.8549
-19.7767
-19.7835
-19.8802
-19.9563
-20.0706
-20.1447
-20.1616
-20.1137
-20.0813
-20.0056
-19.7679
-19.3338
-18.8512
-18.4003
-18.0315
-17.874
-19.9484
-20.0989
-20.3615
-20.6527
-20.8934
-21.0472
-21.114
-21.0743
-20.9081
-20.6528
-20.4906
-20.4338
-20.4242
-20.4523
-20.5303
-20.6488
-20.7867
-21.0082
-21.2522
-21.3239
-21.206
-20.9522
-20.7199
-20.5456
-20.4314
-20.3475
-20.2768
-20.2126
-20.151
-20.0906
-20.0311
-19.973
-19.9171
-19.8641
-19.8147
-19.7692
-19.7289
-19.6925
-19.663
-19.6388
-19.6251
-19.6112
-19.6017
-19.5857
-19.5727
-19.5666
-19.566
-19.5707
-19.5802
-19.5943
-19.6132
-19.6369
-19.6662
-19.7025
-19.7474
-19.8058
-19.8828
-19.9883
-20.1643
-20.3798
-20.4953
-20.4769
-20.3817
-20.2593
-20.1759
-20.1513
-20.2264
-20.3062
-20.4548
-20.5202
-20.5483
-20.5241
-20.4942
-20.3677
-20.0333
-19.5233
-19.0465
-18.8129
-18.6189
-18.5035
-20.6645
-20.8281
-21.0363
-21.2363
-21.3989
-21.5282
-21.6063
-21.6002
-21.4655
-21.2082
-21.0056
-20.9394
-20.9208
-20.9446
-21.0225
-21.1421
-21.3216
-21.5632
-21.7677
-21.8233
-21.6662
-21.4061
-21.1886
-21.0203
-20.904
-20.8176
-20.7455
-20.6816
-20.622
-20.5651
-20.5101
-20.4571
-20.4064
-20.3585
-20.314
-20.2726
-20.2358
-20.2022
-20.173
-20.1506
-20.1415
-20.1314
-20.1209
-20.1022
-20.0898
-20.0835
-20.0825
-20.0863
-20.0945
-20.1069
-20.1235
-20.1446
-20.1703
-20.2017
-20.2394
-20.2861
-20.3444
-20.4158
-20.5224
-20.657
-20.7457
-20.7673
-20.7151
-20.6344
-20.5752
-20.5722
-20.6229
-20.7725
-20.9335
-20.9937
-21.0089
-21.0475
-21.009
-20.8303
-20.426
-19.9046
-19.4831
-19.4295
-19.3744
-19.267
-21.2749
-21.4656
-21.6593
-21.8056
-21.9035
-21.9885
-22.0376
-22.0359
-21.9113
-21.6684
-21.4532
-21.3923
-21.3701
-21.3887
-21.4567
-21.5688
-21.7351
-21.9142
-22.0388
-22.0777
-21.9511
-21.761
-21.5952
-21.457
-21.3548
-21.2751
-21.2073
-21.1472
-21.0916
-21.039
-20.9887
-20.9406
-20.8949
-20.8516
-20.8114
-20.7741
-20.7403
-20.7088
-20.6793
-20.6619
-20.6541
-20.645
-20.6316
-20.6142
-20.6031
-20.5969
-20.5958
-20.5987
-20.6056
-20.6162
-20.6305
-20.6486
-20.6704
-20.6964
-20.7268
-20.7624
-20.8042
-20.851
-20.9113
-20.9874
-21.0508
-21.0779
-21.0632
-21.0318
-21.0149
-21.0478
-21.0918
-21.275
-21.3724
-21.3898
-21.3949
-21.4263
-21.4105
-21.2061
-20.8002
-20.4301
-20.2307
-20.2167
-20.1471
-20.0622
-21.786
-21.9518
-22.1602
-22.3079
-22.4063
-22.4537
-22.4568
-22.4035
-22.2591
-22.0384
-21.8556
-21.7897
-21.7792
-21.797
-21.8558
-21.9541
-22.0742
-22.1753
-22.2417
-22.251
-22.1816
-22.0768
-21.9718
-21.872
-21.7912