/*--------------------------------*- C++ -*----------------------------------*\
| =========                 |                                                 |
| \\      /  F ield         | OpenFOAM: The Open Source CFD Toolbox           |
|  \\    /   O peration     | Version:  2412                                  |
|   \\  /    A nd           | Website:  www.openfoam.com                      |
|    \\/     M anipulation  |                                                 |
\*---------------------------------------------------------------------------*/
FoamFile
{
    version     2.0;
    format      ascii;
    arch        "LSB;label=32;scalar=64";
    class       volScalarField;
    location    "8.6";
    object      p_rgh;
}
// * * * * * * * * * * * * * * * * * * * * * * * * * * * * * * * * * * * * * //

dimensions      [1 -1 -2 0 0 0 0];

internalField   nonuniform List<scalar> 
6400
(
15792.8
15792.6
15791.5
15789.3
15785.9
15781.7
15777.1
15772.1
15767
15761.7
15756.5
15751.5
15746.8
15742.6
15739.1
15736.4
15734.6
15734
15734.6
15736.5
15739.7
15744.3
15750.3
15757.7
15766.4
15776.6
15788
15800.6
15814.1
15828.2
15842.7
15857.2
15871.5
15885
15897.4
15908.5
15917.8
15925.1
15930.3
15933.1
15933.6
15931.6
15927.3
15920.8
15912.4
15902.3
15890.7
15878.1
15864.7
15851
15837.2
15823.7
15810.8
15798.7
15787.7
15777.9
15769.5
15762.4
15756.6
15752
15748.7
15746.6
15745.5
15745.5
15746.5
15748.5
15751.4
15755
15759.3
15764
15769
15774.1
15779.1
15783.9
15788.4
15792.3
15795.4
15797.6
15798.5
15798.5
15792.7
15792.5
15791.6
15789.7
15786.7
15783.1
15779.1
15774.7
15770.1
15765.4
15760.7
15756.2
15751.9
15748.1
15744.8
15742.4
15740.8
15740.3
15740.9
15742.7
15745.6
15749.9
15755.3
15762.1
15770.1
15779.4
15789.8
15801.2
15813.3
15826.1
15839.1
15852.1
15864.8
15876.9
15887.9
15897.7
15906
15912.5
15917
15919.5
15919.8
15918.1
15914.3
15908.6
15901.1
15892.2
15881.9
15870.7
15858.9
15846.7
15834.4
15822.3
15810.7
15799.9
15790
15781.2
15773.6
15767.1
15761.9
15757.7
15754.7
15752.7
15751.6
15751.6
15752.5
15754.3
15756.9
15760.2
15764.1
15768.4
15772.8
15777.4
15781.8
15786
15789.9
15793.3
15796.1
15798
15798.8
15799
15793.7
15793.5
15792.7
15790.9
15788.3
15785.2
15781.6
15777.8
15773.8
15769.6
15765.3
15761.2
15757.3
15753.8
15750.8
15748.6
15747.1
15746.6
15747.2
15748.8
15751.5
15755.3
15760.3
15766.4
15773.6
15782
15791.3
15801.4
15812.3
15823.6
15835.1
15846.6
15857.7
15868.3
15877.9
15886.4
15893.5
15899.1
15903
15905.1
15905.4
15903.8
15900.5
15895.6
15889.1
15881.4
15872.5
15862.8
15852.4
15841.8
15831
15820.4
15810.3
15800.7
15791.9
15784.1
15777.3
15771.5
15766.8
15763.1
15760.4
15758.6
15757.7
15757.7
15758.5
15760.2
15762.6
15765.6
15769.2
15773
15777
15781.1
15785
15788.8
15792.2
15795.3
15797.8
15799.6
15800.5
15800.9
15796.2
15795.8
15794.8
15793
15790.6
15787.7
15784.4
15780.9
15777.2
15773.3
15769.5
15765.6
15762
15758.7
15755.9
15753.8
15752.4
15751.9
15752.3
15753.7
15756.1
15759.5
15763.9
15769.4
15776
15783.5
15791.8
15801
15810.7
15820.9
15831.1
15841.3
15851.2
15860.4
15868.9
15876.3
15882.5
15887.4
15890.8
15892.6
15892.8
15891.5
15888.6
15884.2
15878.6
15871.8
15864
15855.5
15846.4
15837.1
15827.6
15818.3
15809.3
15800.8
15793
15786
15779.9
15774.7
15770.5
15767.3
15764.9
15763.3
15762.6
15762.8
15763.6
15765.3
15767.6
15770.4
15773.6
15777.2
15780.9
15784.6
15788.3
15791.8
15795.1
15798
15800.5
15802.3
15803.4
15804
15799.9
15799.1
15797.8
15795.8
15793.4
15790.5
15787.4
15784
15780.5
15776.8
15773.1
15769.5
15766
15762.9
15760.2
15758.1
15756.7
15756.1
15756.4
15757.5
15759.5
15762.5
15766.4
15771.3
15777.2
15783.9
15791.5
15799.8
15808.5
15817.6
15826.8
15835.9
15844.7
15852.9
15860.4
15867
15872.5
15876.7
15879.7
15881.3
15881.5
15880.3
15877.8
15874
15869.1
15863.1
15856.3
15848.8
15840.8
15832.6
15824.2
15816
15808.1
15800.6
15793.7
15787.4
15782
15777.3
15773.5
15770.6
15768.5
15767.3
15766.8
15767
15768
15769.6
15771.8
15774.5
15777.6
15780.9
15784.4
15787.9
15791.4
15794.8
15798
15801
15803.5
15805.6
15806.9
15807.8
15804.3
15803
15801.2
15799
15796.3
15793.4
15790.2
15786.9
15783.4
15779.8
15776.2
15772.7
15769.4
15766.3
15763.7
15761.7
15760.2
15759.5
15759.5
15760.4
15762
15764.6
15768
15772.3
15777.5
15783.6
15790.4
15797.8
15805.7
15813.9
15822.2
15830.4
15838.2
15845.6
15852.2
15858.1
15862.9
15866.7
15869.3
15870.7
15870.9
15869.9
15867.7
15864.4
15860.1
15854.9
15848.9
15842.3
15835.3
15828
15820.7
15813.5
15806.5
15799.9
15793.8
15788.3
15783.4
15779.2
15775.8
15773.2
15771.4
15770.4
15770.1
15770.5
15771.5
15773.2
15775.3
15777.9
15780.8
15784
15787.3
15790.7
15794.2
15797.5
15800.8
15803.9
15806.6
15809
15810.8
15812.1
15809.2
15807.4
15805
15802.4
15799.4
15796.2
15792.9
15789.5
15786
15782.4
15778.9
15775.4
15772.2
15769.2
15766.6
15764.5
15763
15762.2
15762
15762.5
15763.8
15765.9
15768.8
15772.6
15777.2
15782.6
15788.6
15795.3
15802.4
15809.8
15817.2
15824.5
15831.5
15838.1
15844
15849.2
15853.5
15856.8
15859.1
15860.3
15860.4
15859.5
15857.6
15854.8
15851.1
15846.5
15841.3
15835.5
15829.3
15822.8
15816.4
15810
15803.9
15798.2
15792.9
15788.1
15783.9
15780.2
15777.3
15775.1
15773.6
15772.8
15772.7
15773.2
15774.4
15776
15778.1
15780.6
15783.5
15786.5
15789.8
15793.2
15796.6
15800.1
15803.4
15806.7
15809.8
15812.5
15814.8
15816.7
15814.5
15812
15809
15805.9
15802.5
15799.1
15795.5
15792
15788.4
15784.8
15781.3
15777.9
15774.7
15771.8
15769.2
15767.1
15765.5
15764.4
15764
15764.2
15765.2
15766.8
15769.2
15772.4
15776.4
15781.1
15786.5
15792.4
15798.7
15805.3
15811.9
15818.4
15824.7
15830.5
15835.8
15840.3
15844
15846.8
15848.7
15849.7
15849.7
15848.9
15847.2
15844.8
15841.6
15837.6
15833.1
15828
15822.5
15816.8
15811
15805.5
15800.2
15795.3
15790.8
15786.8
15783.2
15780.3
15777.9
15776.1
15775
15774.5
15774.7
15775.5
15776.7
15778.5
15780.6
15783.1
15785.9
15788.9
15792.2
15795.5
15799
15802.6
15806.1
15809.6
15813
15816.2
15819.3
15821.9
15820.1
15816.9
15813.1
15809.4
15805.6
15801.8
15798
15794.2
15790.6
15787
15783.5
15780.2
15777
15774.1
15771.6
15769.4
15767.7
15766.5
15765.8
15765.8
15766.3
15767.5
15769.4
15772
15775.4
15779.4
15784.1
15789.2
15794.7
15800.5
15806.4
15812.2
15817.8
15822.9
15827.5
15831.4
15834.5
15836.8
15838.3
15839
15839
15838.2
15836.8
15834.7
15832
15828.6
15824.6
15820.2
15815.4
15810.3
15805.2
15800.2
15795.6
15791.4
15787.7
15784.4
15781.6
15779.4
15777.6
15776.4
15775.8
15775.7
15776.2
15777.2
15778.7
15780.6
15782.8
15785.3
15788.1
15791.1
15794.4
15797.8
15801.3
15805
15808.8
15812.6
15816.4
15820.2
15824
15827.4
15825.7
15821.8
15817.2
15812.8
15808.5
15804.2
15800.1
15796.2
15792.4
15788.7
15785.3
15782
15778.9
15776
15773.5
15771.3
15769.5
15768.1
15767.2
15766.8
15766.9
15767.7
15769.1
15771.1
15773.8
15777.2
15781.1
15785.6
15790.4
15795.5
15800.7
15805.8
15810.8
15815.3
15819.3
15822.7
15825.3
15827.2
15828.4
15828.9
15828.9
15828.2
15827
15825.3
15823
15820.1
15816.7
15812.8
15808.5
15804
15799.4
15795
15790.9
15787.3
15784.1
15781.6
15779.5
15777.9
15776.8
15776.1
15776
15776.4
15777.2
15778.5
15780.2
15782.2
15784.5
15787
15789.8
15792.9
15796.1
15799.6
15803.2
15807
15811.1
15815.2
15819.5
15824
15828.6
15832.7
15831.4
15826.6
15821.1
15815.9
15811
15806.2
15801.7
15797.5
15793.6
15789.8
15786.3
15783
15779.9
15777.1
15774.6
15772.3
15770.4
15768.8
15767.7
15766.9
15766.7
15767
15767.8
15769.3
15771.4
15774.2
15777.5
15781.3
15785.5
15790
15794.6
15799.3
15803.7
15807.9
15811.5
15814.5
15816.8
15818.4
15819.4
15819.9
15819.9
15819.4
15818.5
15817.1
15815.2
15812.7
15809.6
15806
15802.2
15798.1
15793.9
15789.9
15786.3
15783.1
15780.5
15778.5
15777
15776
15775.4
15775.3
15775.6
15776.4
15777.5
15779
15780.9
15783
15785.3
15787.9
15790.7
15793.7
15796.9
15800.4
15804.1
15808.1
15812.4
15817
15821.9
15827
15832.5
15837.1
15837
15831.2
15824.7
15818.6
15813
15807.7
15802.7
15798.2
15794.1
15790.3
15786.7
15783.4
15780.3
15777.5
15774.9
15772.5
15770.5
15768.7
15767.2
15766.2
15765.5
15765.3
15765.7
15766.6
15768.2
15770.3
15773
15776.3
15780
15784
15788.2
15792.6
15796.8
15800.8
15804.3
15807.1
15809.1
15810.5
15811.3
15811.7
15811.8
15811.5
15810.8
15809.7
15808
15805.7
15802.7
15799.4
15795.7
15791.9
15788.1
15784.5
15781.3
15778.6
15776.5
15775
15774.1
15773.6
15773.5
15773.9
15774.6
15775.7
15777.1
15778.8
15780.7
15782.9
15785.3
15787.8
15790.6
15793.6
15796.8
15800.3
15804.1
15808.2
15812.9
15818
15823.5
15829.4
15835.7
15841.2
15842.7
15835.7
15827.9
15820.9
15814.5
15808.6
15803.3
15798.5
15794.3
15790.4
15786.8
15783.5
15780.5
15777.6
15775
15772.5
15770.3
15768.3
15766.5
15765.1
15764
15763.4
15763.2
15763.6
15764.6
15766.2
15768.3
15771
15774.2
15777.8
15781.8
15785.9
15790.1
15794.2
15797.6
15800.3
15802
15802.9
15803.3
15803.5
15803.6
15803.5
15803.2
15802.4
15801.1
15798.8
15795.9
15792.5
15788.9
15785.2
15781.8
15778.5
15775.8
15773.6
15772
15771
15770.6
15770.6
15771.1
15771.9
15773
15774.4
15776.1
15778
15780.1
15782.4
15784.8
15787.4
15790.1
15793
15796.2
15799.7
15803.6
15808
15812.9
15818.5
15824.7
15831.5
15839
15845.8
15848.6
15840
15830.8
15822.8
15815.7
15809.4
15803.7
15798.8
15794.5
15790.6
15787.1
15783.9
15780.9
15778
15775.3
15772.7
15770.3
15768.1
15766
15764.2
15762.7
15761.6
15760.9
15760.7
15761.1
15762
15763.6
15765.7
15768.4
15771.6
15775.3
15779.3
15783.6
15787.9
15791.6
15794
15795.1
15795.2
15794.9
15794.7
15794.8
15795.1
15795.4
15795.5
15794.6
15792.6
15789.4
15785.8
15782.1
15778.5
15775.2
15772.4
15770
15768.3
15767.2
15766.7
15766.8
15767.4
15768.4
15769.7
15771.2
15773.1
15775
15777.2
15779.5
15781.9
15784.4
15787
15789.7
15792.7
15795.8
15799.3
15803.2
15807.8
15813
15819.1
15826
15833.8
15842.9
15851.6
15854.8
15844.3
15833.2
15824.1
15816.4
15809.8
15804
15799
15794.7
15791
15787.5
15784.4
15781.4
15778.6
15775.8
15773.1
15770.5
15767.9
15765.5
15763.3
15761.3
15759.7
15758.4
15757.7
15757.4
15757.8
15758.7
15760.2
15762.3
15765.1
15768.5
15772.6
15777.2
15782.1
15786.3
15788.6
15788.6
15787.6
15786.4
15785.6
15785.7
15786.6
15788
15789.1
15789.2
15787.2
15783.5
15779.2
15775.1
15771.4
15768.3
15765.8
15764
15762.8
15762.3
15762.4
15763.1
15764.3
15765.8
15767.6
15769.6
15771.8
15774.1
15776.6
15779.1
15781.6
15784.2
15786.8
15789.6
15792.4
15795.5
15798.9
15802.8
15807.4
15812.9
15819.3
15827
15836
15847.2
15858
15861.2
15848.1
15834.7
15824.2
15816
15809.2
15803.5
15798.7
15794.7
15791.1
15787.9
15784.9
15782
15779.1
15776.3
15773.4
15770.6
15767.8
15765
15762.4
15759.9
15757.7
15755.9
15754.5
15753.7
15753.3
15753.6
15754.4
15755.9
15758.2
15761.4
15765.6
15770.9
15776.9
15782.3
15784.5
15782.8
15779.8
15777
15775.3
15775.5
15777.4
15780.3
15783.4
15784.9
15782.7
15777.6
15772
15767.1
15763.3
15760.4
15758.5
15757.4
15757
15757.1
15758
15759.3
15761
15763.1
15765.5
15767.9
15770.6
15773.2
15775.9
15778.6
15781.3
15784
15786.7
15789.3
15792.1
15795
15798.3
15802
15806.5
15811.9
15818.6
15826.9
15837.5
15851.2
15864.4
15868.4
15851.7
15834.9
15822.8
15814
15807.4
15802.1
15797.9
15794.3
15791.2
15788.3
15785.5
15782.7
15779.9
15777
15774
15770.9
15767.7
15764.5
15761.4
15758.4
15755.7
15753.2
15751.2
15749.6
15748.6
15748
15748.2
15749
15750.7
15753.5
15757.9
15764.3
15773
15781.8
15784.2
15777.3
15767.9
15760.4
15756.2
15756.5
15761.1
15768.9
15778.2
15784.9
15782.5
15774
15765.5
15759.4
15755.2
15752.5
15751
15750.4
15750.6
15751.5
15752.9
15754.9
15757.2
15759.9
15762.8
15765.8
15768.9
15772.1
15775.1
15778.1
15781.1
15783.9
15786.6
15789.2
15791.8
15794.5
15797.5
15800.9
15805
15810.1
15816.8
15825.6
15837.8
15854.8
15871.6
15879.6
15855.9
15834
15820.3
15811.5
15805.4
15800.9
15797.5
15794.6
15791.9
15789.4
15786.7
15784
15781
15777.9
15774.5
15770.9
15767.1
15763.3
15759.4
15755.7
15752.1
15748.8
15745.9
15743.5
15741.6
15740.3
15739.6
15739.6
15740.7
15743.2
15748.1
15757.3
15773.2
15792.6
15796.5
15774.6
15749.2
15732.7
15724.9
15725.2
15733.4
15749.5
15774.5
15796.9
15793.4
15774.1
15758.1
15749
15744.2
15741.9
15741
15741.2
15742.2
15743.8
15746
15748.7
15751.9
15755.3
15759
15762.7
15766.6
15770.3
15774
15777.5
15780.9
15784
15786.8
15789.5
15792
15794.5
15797
15799.8
15803.2
15807.6
15813.7
15822.6
15836.4
15858.3
15882.4
15890
15850
15824.2
15811.6
15804.8
15800.7
15798.1
15796.1
15794.3
15792.5
15790.5
15788.1
15785.5
15782.4
15779
15775.1
15770.9
15766.5
15761.8
15757.1
15752.4
15747.9
15743.6
15739.8
15736.4
15733.6
15731.4
15729.8
15728.7
15728.6
15729.8
15733.8
15744.4
15769.9
15807.3
15819
15791.3
15775.9
15725.7
15662.1
15660.9
15725.1
15778.1
15793.1
15821.8
15811.2
15773.3
15746.4
15735.1
15731
15729.8
15729.9
15731
15732.6
15734.9
15737.9
15741.4
15745.4
15749.8
15754.3
15759.1
15763.8
15768.4
15772.8
15777
15780.8
15784.2
15787.3
15789.9
15792.2
15794.2
15796
15797.7
15799.7
15802.4
15806.4
15813.3
15826.1
15852
15892.2
15818.4
15781.3
15770.4
15768.6
15769.1
15770.2
15771.5
15772.6
15773.5
15774
15774.2
15773.9
15773.3
15772.4
15771
15769.2
15767.1
15764.7
15762
15759.1
15756.2
15753.1
15750.1
15747.1
15744.1
15741.3
15738.4
15726.3
15684.4
15604.9
15478.6
15292.1
15026
14646.1
14037.6
12876.8
11368.2
9815.6
8561.62
7925.81
7907.69
8517.15
9728.65
11288.8
12807.5
13991.3
14625
15012.4
15283.1
15473
15601.7
15682.9
15726.2
15739.2
15742
15744.9
15747.8
15750.8
15753.9
15757
15760
15762.8
15765.5
15767.9
15770
15771.8
15773.1
15774.1
15774.7
15774.9
15774.7
15774.2
15773.3
15772.2
15770.9
15769.7
15769.2
15771.1
15782.3
15819.4
358.375
541.678
679.755
794.421
888.154
967.09
1035.87
1097.73
1155.05
1209.64
1262.8
1315.48
1368.29
1421.53
1475.23
1529.12
1582.64
1634.91
1684.7
1730.38
1769.91
1800.75
1819.77
1823.16
1806.48
1764.21
1689.7
1584.89
1461.71
1315.1
1137.56
920.037
655.231
329.319
-0.00191149
47.1377
291.07
644.444
934.779
1036.29
1047.4
954.341
644.202
312.182
56.2196
-0.0130317
313.545
644.036
911.985
1132.27
1312.13
1460.7
1585.46
1691.66
1767.96
1811.62
1829.31
1826.65
1808.15
1777.63
1738.28
1692.67
1642.86
1590.51
1536.85
1482.79
1428.89
1375.43
1322.39
1269.46
1216.04
1161.17
1103.54
1041.35
972.2
892.829
798.573
683.276
544.48
360.174
-0.000641115
-0.000633435
-0.000616668
-0.00056856
-0.000514344
-0.000447877
-0.000367117
-0.000269495
-0.00014974
-5.24534e-06
0.000159264
0.000332815
0.000499628
0.000645366
0.000757782
0.000829943
0.000851889
0.000811083
0.000665605
0.000286392
-0.000311835
-0.00130769
-0.00322004
-0.00653091
-0.00937187
-0.00958482
-0.00738518
-0.00458422
-0.00468621
-0.00471678
0.00721128
0.0208769
0.0146527
0.0208379
0.00784684
0.031824
1026.19
4413.08
6557.17
6601.66
6612.26
6609.53
4600.34
1150.44
0.0160911
-0.000887643
0.0056179
0.0338533
0.0568053
0.0223876
-0.0061931
-0.0100633
-0.00894072
-0.00902559
-0.00940868
-0.00816205
-0.00591015
-0.00316579
-0.00132218
-0.000239259
0.000569869
0.00114323
0.00150333
0.00172497
0.00186632
0.0019346
0.00193479
0.00188697
0.00182457
0.00177118
0.00173345
0.00170431
0.00167634
0.00164768
0.00162262
0.00160599
0.00159656
0.00160581
0.00166265
0.00161722
-0.000653827
-0.000681453
-0.000686309
-0.00068136
-0.000678839
-0.000664273
-0.000632563
-0.000579278
-0.000499021
-0.000389693
-0.000255892
-0.000109103
3.4966e-05
0.00016032
0.000253381
0.000302684
0.00029527
0.000212359
3.06282e-05
-0.000293384
-0.000877738
-0.00187796
-0.00356617
-0.0055669
-0.00699819
-0.00779266
-0.00711028
-0.00475839
-0.00427594
-0.00551605
-0.00515281
0.0257484
0.0619562
0.0540267
0.0117619
-0.02715
500.687
5659.37
7375.27
7406.65
7407
7380.53
6090.66
634.65
-0.0265856
0.017289
0.0474408
0.0709083
0.0412402
-0.00394366
-0.00999076
-0.00882843
-0.00839119
-0.00948472
-0.00973187
-0.00803468
-0.0057962
-0.00359192
-0.00189896
-0.000721741
8.06025e-05
0.000607062
0.000962699
0.00119702
0.00134959
0.00143002
0.00144356
0.00141291
0.00137144
0.00134378
0.00133629
0.00134258
0.00135517
0.00137252
0.00139825
0.00143603
0.00148466
0.00153915
0.00158949
0.00159806
-0.00057782
-0.00057786
-0.000568244
-0.000567121
-0.000558675
-0.000540966
-0.000507437
-0.000450629
-0.000364237
-0.000247031
-0.000105176
4.86984e-05
0.0001993
0.000333352
0.000442333
0.000520867
0.000559713
0.000535573
0.000395691
4.43424e-05
-0.000562041
-0.00175179
-0.00402144
-0.00750748
-0.00966476
-0.00926347
-0.0076862
-0.00583557
-0.00510656
-0.00458407
0.024174
0.124876
0.370589
0.371841
0.22039
-0.0102162
-0.0318907
882.452
7578.72
7624.78
7625.41
7585.03
1184.38
-0.0522542
-0.0159986
0.113436
0.346153
0.346254
0.295818
0.0845522
-0.0016537
-0.0105216
-0.0108671
-0.0101668
-0.00954862
-0.00837735
-0.0067886
-0.00394599
-0.00164287
-0.000386972
0.000358117
0.000887132
0.00122247
0.00143547
0.00156209
0.00161182
0.00159991
0.00155663
0.00151326
0.00148655
0.00147657
0.00147581
0.00147946
0.00148906
0.00150918
0.00154103
0.00157884
0.00161887
0.00164633
0.0016466
-0.00064936
-0.000643414
-0.000630581
-0.000624804
-0.00061309
-0.000593139
-0.000557446
-0.000497013
-0.000405436
-0.000282352
-0.000134702
2.49883e-05
0.000182607
0.000326523
0.000449167
0.000544183
0.000599872
0.000595022
0.000499637
0.000303866
-0.000105102
-0.00125572
-0.00350088
-0.00619559
-0.00905115
-0.0107934
-0.0098026
-0.00802256
-0.00834687
0.00205057
0.0653673
0.0718836
0.0471376
0.0217766
-0.000146646
-0.000860231
-0.000409051
111.246
4620.59
5778.32
5868.33
4984.1
201.129
-0.00488244
-0.00415221
0.00655284
0.0288636
0.106345
0.163378
0.1623
0.0564245
-0.0170831
-0.0134751
-0.0111719
-0.0107452
-0.00879811
-0.00502886
-0.00234767
-0.000771579
7.94458e-05
0.000559445
0.00094199
0.00123766
0.00143554
0.00154694
0.00158326
0.00156544
0.00152323
0.00148286
0.0014569
0.00144491
0.00144176
0.00144531
0.00145857
0.00148635
0.00152949
0.00158014
0.00162491
0.00165287
0.00164797
-0.00060138
-0.000607854
-0.000604569
-0.000596358
-0.000582639
-0.000560772
-0.000522598
-0.000459052
-0.000364321
-0.000238673
-8.89664e-05
7.3493e-05
0.000236829
0.000392174
0.000535105
0.000664641
0.000781992
0.000887125
0.00096303
0.000998937
0.000889235
8.86667e-05
-0.00221429
-0.00355077
-0.00326516
-0.00434074
-0.00455888
-0.00718452
-0.0147507
-0.0205424
-0.0177703
-0.00896742
-0.00488387
-0.00318016
0.00184398
0.0118511
0.0151656
11.5381
0.0515045
0.0570052
0.059247
0.0415713
10.1535
-0.00780501
-0.000810188
0.00962638
0.00661588
-0.000445696
-0.0146796
-0.024585
-0.0323641
-0.0304906
-0.0124413
0.0102055
0.0111252
0.0131256
-0.00155223
-0.00158003
4.54337e-05
0.000718682
0.00103139
0.00126006
0.00144301
0.00156677
0.0016333
0.00164507
0.00161599
0.00156983
0.00152749
0.00149855
0.00148235
0.00147489
0.00147473
0.00148423
0.00150657
0.00154195
0.00158618
0.00163081
0.00165996
0.00166558
-0.000606512
-0.000605189
-0.00060347
-0.00059307
-0.000578514
-0.000555142
-0.000514485
-0.000448255
-0.000351545
-0.000224927
-7.45253e-05
9.00621e-05
0.000259035
0.000425311
0.000585904
0.000742011
0.000900598
0.00107168
0.0012506
0.00146522
0.00176373
0.00131964
-9.30997e-05
-0.000255933
-0.00201932
-0.0042057
-0.00882986
-0.0123659
-0.0191616
-0.0225958
-0.021104
-0.0184172
-0.0167656
-0.0143425
-0.00891718
0.0228832
0.136406
0.0382478
0.0537362
0.0573384
0.0542562
0.0611184
0.036888
-0.0211905
-0.00867402
0.000862341
0.00367114
-0.00413191
-0.0157015
-0.0250456
-0.0294113
-0.0182592
-0.00718747
-0.00643145
0.000940166
0.0083957
-0.00127546
-0.00117486
0.000556169
0.000997719
0.00119169
0.001379
0.00152415
0.00162028
0.00166605
0.00166318
0.00162639
0.00157782
0.00153564
0.00150749
0.0014922
0.00148606
0.00148795
0.00149984
0.00152344
0.00155655
0.00159444
0.00163346
0.00166013
0.00166651
-0.000619604
-0.000617883
-0.00061016
-0.000599343
-0.000584909
-0.000560414
-0.000518081
-0.000450913
-0.0003549
-0.000230501
-8.25525e-05
8.12601e-05
0.000252546
0.00042422
0.000592383
0.000758462
0.00093353
0.00113742
0.00137669
0.00167678
0.00214495
0.00200646
0.000656711
-0.00100017
-0.00478952
-0.0134461
-0.0260104
-0.0358501
-0.0376551
-0.0333088
-0.0269276
-0.022212
-0.0218386
-0.0253927
-0.0320298
-0.0282281
0.011685
0.0492366
0.0512154
0.0527809
0.0489991
0.0380111
0.0195114
0.00128111
-0.00287204
-0.00306445
-0.00604725
-0.0128873
-0.021954
-0.03229
-0.0388285
-0.0368626
-0.0259711
-0.0137686
-0.00657524
-0.00168153
-0.00196053
-0.00133511
0.000540532
0.000997846
0.00119732
0.00138318
0.00152338
0.00161524
0.0016545
0.00164551
0.00160642
0.00155993
0.00152247
0.00149957
0.00148882
0.00148622
0.0014907
0.00150441
0.00152899
0.00156132
0.00159557
0.00162926
0.00165268
0.00165821
-0.000629805
-0.000627789
-0.000617928
-0.000608294
-0.00059355
-0.000567635
-0.000524294
-0.000457974
-0.000365404
-0.000246626
-0.000104955
5.37803e-05
0.000222011
0.000391238
0.000554384
0.000710995
0.000872768
0.00106081
0.00128036
0.0015211
0.0018346
0.00184082
-0.000293654
-0.00296086
-0.00930792
-0.0225124
-0.0379688
-0.0494442
-0.049996
-0.0430382
-0.0334676
-0.0254792
-0.0209702
-0.0187871
-0.0180251
-0.0128154
0.0041988
0.0250655
0.0378012
0.0404933
0.034339
0.0237015
0.0141047
0.00455521
-0.00369892
-0.00914501
-0.0127339
-0.0172747
-0.0257284
-0.0383725
-0.0502265
-0.0531437
-0.0424789
-0.0233646
-0.011245
-0.00673387
-0.00367968
-0.00148959
0.000175476
0.000746647
0.00105332
0.00129051
0.00145776
0.00156144
0.00160321
0.00159547
0.00156119
0.00152348
0.00149645
0.00148298
0.0014792
0.00148075
0.00148689
0.00150049
0.00152418
0.00155543
0.00158759
0.0016173
0.00163765
0.0016424
-0.000648686
-0.000642843
-0.000635836
-0.000626714
-0.000610276
-0.000582363
-0.000538417
-0.000474192
-0.000386941
-0.000276148
-0.000143711
5.93966e-06
0.000165413
0.000324198
0.000471
0.000600776
0.000721192
0.000847286
0.000974019
0.00105827
0.00104448
0.000645275
-0.00137837
-0.00666755
-0.0144037
-0.026953
-0.0415842
-0.0537632
-0.0547963
-0.0468504
-0.03587
-0.0267891
-0.0218856
-0.0193116
-0.0163404
-0.0107778
-0.00179526
0.00799492
0.0173045
0.0228654
0.021263
0.0144277
0.00786474
0.00167035
-0.00387373
-0.00802475
-0.0117205
-0.017033
-0.0266432
-0.0407206
-0.0545956
-0.0597923
-0.0501171
-0.029344
-0.0141687
-0.00843287
-0.00500966
-0.00202624
-0.000401118
0.000341262
0.000796527
0.00111219
0.00132492
0.00145113
0.00150458
0.00150769
0.00148762
0.0014667
0.0014559
0.00145557
0.00146095
0.00146801
0.00147653
0.00148988
0.00151162
0.00154072
0.00157086
0.00159752
0.00161531
0.00161942
-0.000667898
-0.000662799
-0.000658743
-0.000648393
-0.000629658
-0.000600188
-0.000556797
-0.000496312
-0.000416385
-0.00031596
-0.000195718
-5.90604e-05
8.63558e-05
0.000227786
0.00034974
0.000441498
0.000504117
0.000544067
0.000547836
0.000448002
0.000139694
-0.000673289
-0.00274949
-0.00762011
-0.0153058
-0.0248559
-0.0362465
-0.0461269
-0.0479568
-0.041484
-0.0320098
-0.0243566
-0.0198407
-0.0174526
-0.0160522
-0.0140024
-0.00990572
-0.00340019
0.00449708
0.0112648
0.0136365
0.0110398
0.00676075
0.00226416
-0.00233994
-0.00651828
-0.0105489
-0.01588
-0.0243311
-0.0361639
-0.0478097
-0.0521801
-0.0445564
-0.0277654
-0.0149066
-0.00889226
-0.00521616
-0.00248334
-0.000940865
-6.27888e-05
0.000502786
0.000890004
0.00114683
0.00129896
0.00137179
0.0013952
0.0013979
0.00139955
0.00140767
0.00142084
0.00143465
0.00144653
0.00145746
0.00147112
0.00149122
0.00151793
0.00154611
0.00157063
0.00158679
0.00159082
-0.00068902
-0.000689329
-0.000685011
-0.000672535
-0.000652169
-0.000622427
-0.000581032
-0.000525701
-0.000454547
-0.000366252
-0.000260629
-0.000140242
-1.27901e-05
0.000107408
0.00020152
0.000253387
0.000257212
0.000211589
0.000100699
-0.000143074
-0.000644269
-0.0016118
-0.00357546
-0.00724036
-0.0126621
-0.0191806
-0.0264604
-0.0326517
-0.0341976
-0.0319398
-0.0266168
-0.0213554
-0.0176255
-0.0154674
-0.0142692
-0.0128213
-0.0104098
-0.00603661
9.65646e-05
0.0060678
0.0101771
0.0104365
0.00721815
0.00330909
-0.00092872
-0.00490394
-0.00872158
-0.0131509
-0.0192219
-0.0269604
-0.0337939
-0.03542
-0.0307451
-0.0212407
-0.0132265
-0.00818473
-0.0048807
-0.00267481
-0.00129306
-0.000389006
0.000227229
0.000658059
0.000945734
0.0011222
0.00121952
0.00127029
0.00130127
0.00132802
0.00135485
0.00137969
0.00139976
0.00141492
0.00142792
0.00144281
0.00146283
0.00148838
0.00151538
0.0015388
0.00155426
0.00155865
-0.000718128
-0.000721543
-0.000714785
-0.00070103
-0.000680661
-0.000652211
-0.000613947
-0.000564417
-0.000502433
-0.000426883
-0.000337222
-0.000235341
-0.000128372
-3.06314e-05
3.76267e-05
5.60434e-05
1.29312e-05
-0.000100132
-0.000296538
-0.000629294
-0.00120149
-0.00216806
-0.00378129
-0.00635409
-0.00992551
-0.0140906
-0.0184529
-0.0221534
-0.0237318
-0.0233624
-0.0210157
-0.0180653
-0.0154776
-0.013397
-0.0116452
-0.00997129
-0.00760833
-0.00398839
0.000655498
0.00510159
0.00883971
0.0103352
0.00765458
0.00409606
0.000187096
-0.0033646
-0.00661135
-0.00998887
-0.0139738
-0.0183619
-0.0216303
-0.0217052
-0.0190389
-0.0143114
-0.0100271
-0.00676016
-0.00437312
-0.00268361
-0.00148284
-0.000623835
-9.87416e-06
0.000435811
0.000740327
0.000937995
0.00106204
0.00114317
0.00120362
0.0012544
0.00129762
0.00133179
0.00135653
0.0013744
0.00138987
0.00140728
0.00142906
0.00145508
0.00148187
0.00150478
0.00151988
0.00152459
-0.000749912
-0.000751052
-0.00074278
-0.000729977
-0.000711706
-0.000686083
-0.00065171
-0.000608003
-0.000554786
-0.000491696
-0.000418398
-0.000336369
-0.000251703
-0.000177148
-0.000131749
-0.000138031
-0.000209642
-0.000366996
-0.000619343
-0.00100283
-0.00158205
-0.00245791
-0.00376277
-0.00562909
-0.00806429
-0.0108322
-0.0136215
-0.0160089
-0.0174061
-0.0175475
-0.0165708
-0.0149012
-0.0130193
-0.0111445
-0.00921959
-0.00710039
-0.00457498
-0.00146707
0.00213687
0.00550438
0.00803505
0.00986389
0.0076271
0.00450342
0.00109715
-0.00194181
-0.0046532
-0.00728223
-0.0100147
-0.0126025
-0.01426
-0.0141966
-0.0124962
-0.00997472
-0.0075647
-0.00553274
-0.00388031
-0.00257811
-0.00156413
-0.000784591
-0.000194755
0.000241955
0.000552179
0.000767624
0.000917334
0.00102697
0.00111322
0.00118343
0.00123892
0.00127982
0.00130836
0.0013293
0.00134817
0.00136916
0.00139382
0.0014212
0.00144805
0.00147032
0.00148471
0.0014892
-0.000772626
-0.000769536
-0.000762676
-0.000753411
-0.000739245
-0.000717723
-0.000687699
-0.000649515
-0.00060425
-0.000552737
-0.00049534
-0.000433417
-0.00037189
-0.000321545
-0.000297275
-0.000319886
-0.000410283
-0.000587309
-0.000866364
-0.00126711
-0.00182574
-0.00260132
-0.0036744
-0.00510593
-0.00687297
-0.00881331
-0.0107173
-0.012322
-0.0133049
-0.0135458
-0.0130767
-0.0120386
-0.0106486
-0.00906779
-0.00727714
-0.0052186
-0.00280063
1.26156e-05
0.00301606
0.00563132
0.00743305
0.00883013
0.00726055
0.0045783
0.00174343
-0.0007853
-0.00302367
-0.00510724
-0.0071027
-0.00883124
-0.00991372
-0.0100359
-0.00908369
-0.00761065
-0.00607593
-0.00467439
-0.00345007
-0.00241536
-0.00156257
-0.00087188
-0.000327222
9.03357e-05
0.000401045
0.000629508
0.00080005
0.000932035
0.00103685
0.00111967
0.00118238
0.00122741
0.0012592
0.00128379
0.00130684
0.00133186
0.00135947
0.001388
0.0014144
0.00143534
0.00144832
0.00145202
-0.000781954
-0.000777319
-0.000774684
-0.000770974
-0.000762343
-0.000745735
-0.000720251
-0.000687155
-0.000648758
-0.000607416
-0.000564396
-0.00052153
-0.000482891
-0.000456089
-0.000452175
-0.000487972
-0.000584813
-0.000762712
-0.00103908
-0.0014269
-0.00194361
-0.00261755
-0.0034898
-0.00459013
-0.00589247
-0.00727834
-0.00859887
-0.00969877
-0.0104545
-0.0105838
-0.0102921
-0.00957268
-0.00851051
-0.00720218
-0.00564897
-0.00382197
-0.00168589
0.000738394
0.00326006
0.00536205
0.0067306
0.00749403
0.00676916
0.00436683
0.00214697
8.37028e-05
-0.00176064
-0.00344613
-0.00497961
-0.00624203
-0.00703558
-0.00718522
-0.00675718
-0.00592905
-0.00494924
-0.00396275
-0.00303933
-0.0022134
-0.00149861
-0.000896141
-0.000403731
-1.20944e-05
0.000292729
0.000528745
0.000713014
0.000858592
0.000973474
0.00106218
0.00112792
0.00117534
0.00121033
0.00123915
0.00126686
0.00129579
0.0013257
0.00135455
0.00137964
0.00139851
0.00140955
0.00141216
-0.000784315
-0.000782109
-0.000785253
-0.000788114
-0.00078566
-0.000774317
-0.000753417
-0.000725089
-0.000692725
-0.000659614
-0.00062836
-0.000601685
-0.000583051
-0.000577651
-0.000592419
-0.00063894
-0.000735714
-0.000903318
-0.00115917
-0.00151356
-0.00197385
-0.00254821
-0.00324925
-0.00408459
-0.00503268
-0.00601828
-0.00693664
-0.00767885
-0.00814749
-0.00825607
-0.00803791
-0.00748947
-0.00664606
-0.00557013
-0.00427673
-0.00275206
-0.000973586
0.00103676
0.00312337
0.00483995
0.00592498
0.00628083
0.00591246
0.00396561
0.0023056
0.000659218
-0.000845046
-0.00222502
-0.00345343
-0.00444614
-0.00510482
-0.00537024
-0.00513512
-0.00465062
-0.00402055
-0.00333066
-0.00263945
-0.0019852
-0.00139177
-0.000872677
-0.000433324
-7.11721e-05
0.000222125
0.000457889
0.000646846
0.000797428
0.000915314
0.00100517
0.00107192
0.00112165
0.00116063
0.00119434
0.00122697
0.00125944
0.00129079
0.00131905
0.00134212
0.0013585
0.00136749
0.00136917
-0.000788877
-0.000791284
-0.000800407
-0.00080989
-0.000813652
-0.000807652
-0.000791479
-0.000767812
-0.000740697
-0.00071412
-0.000691681
-0.000677061
-0.000673791
-0.000685496
-0.000715863
-0.000771267
-0.000865389
-0.0010176
-0.00124524
-0.00155687
-0.00195444
-0.00243536
-0.00299553
-0.00362849
-0.00431443
-0.00500843
-0.00564157
-0.00613148
-0.0064205
-0.00646221
-0.00626098
-0.00580818
-0.00511691
-0.0042299
-0.00317212
-0.00194049
-0.00051107
0.00111053
0.00280696
0.0042023
0.00505328
0.00515934
0.00478083
0.00351285
0.0022469
0.000955443
-0.000255422
-0.00138282
-0.00238378
-0.00319057
-0.00374177
-0.00400214
-0.00395334
-0.00368687
-0.00327822
-0.00278976
-0.00226865
-0.00175027
-0.00126071
-0.00081746
-0.000429788
-9.95694e-05
0.000176494
0.000404185
0.000589581
0.000738006
0.000854223
0.000943383
0.00101144
0.00106477
0.00110935
0.00114824
0.00118604
0.00122148
0.00125348
0.00128045
0.00130114
0.00131502
0.00132219
0.00132346
-0.000799348
-0.00080613
-0.000820549
-0.000836039
-0.000845679
-0.000845091
-0.000833971
-0.000815232
-0.000793124
-0.000771935
-0.000755786
-0.000749118
-0.000755925
-0.000779118
-0.000820283
-0.00088169
-0.000971553
-0.00110579
-0.0013014
-0.0015671
-0.00190259
-0.00230045
-0.00274815
-0.00323083
-0.00372835
-0.0042126
-0.00464331
-0.00497554
-0.00513322
-0.00511326
-0.00490884
-0.00451337
-0.00393273