/*--------------------------------*- C++ -*----------------------------------*\
| =========                 |                                                 |
| \\      /  F ield         | OpenFOAM: The Open Source CFD Toolbox           |
|  \\    /   O peration     | Version:  2412                                  |
|   \\  /    A nd           | Website:  www.openfoam.com                      |
|    \\/     M anipulation  |                                                 |
\*---------------------------------------------------------------------------*/
FoamFile
{
    version     2.0;
    format      ascii;
    arch        "LSB;label=32;scalar=64";
    class       volScalarField;
    location    "9.2";
    object      alpha.honey;
}
// * * * * * * * * * * * * * * * * * * * * * * * * * * * * * * * * * * * * * //

dimensions      [0 0 0 0 0 0 0];

internalField   nonuniform List<scalar> 
6400
(
0.999999
0.999996
0.999996
0.999996
0.999997
0.999997
0.999997
0.999998
0.999999
0.999999
1
1
1
1
1
1
1
1
1
1
1
1
1
1
1
1
1
1
1
1
1
1
1
0.999999
0.999999
0.999998
0.999997
0.999997
0.999996
0.999996
0.999996
0.999996
0.999996
0.999996
0.999996
0.999997
0.999997
0.999998
0.999998
0.999998
0.999999
0.999999
0.999998
0.999998
0.999998
0.999998
0.999999
0.999999
0.999999
0.999999
0.999999
0.999999
1
1
1
1
1
1
1
1
1
1
1
1
1
1
1
1
1
1
0.999995
0.999991
0.999992
0.999993
0.999994
0.999995
0.999996
0.999997
0.999998
0.999998
0.999999
0.999999
0.999999
0.999999
0.999999
0.999999
0.999999
0.999999
0.999998
0.999998
0.999998
0.999998
0.999998
0.999998
0.999999
0.999999
0.999999
0.999999
1
1
0.999999
0.999999
0.999999
0.999998
0.999997
0.999997
0.999996
0.999995
0.999995
0.999995
0.999994
0.999994
0.999994
0.999995
0.999995
0.999995
0.999995
0.999996
0.999996
0.999996
0.999995
0.999995
0.999995
0.999995
0.999995
0.999995
0.999995
0.999995
0.999995
0.999996
0.999997
0.999997
0.999998
0.999999
0.999999
0.999999
1
1
1
1
1
1
1
1
1
1
1
1
1
1
0.999996
0.999992
0.999992
0.999993
0.999994
0.999995
0.999996
0.999997
0.999997
0.999998
0.999998
0.999998
0.999998
0.999999
0.999999
0.999999
0.999999
0.999998
0.999998
0.999997
0.999997
0.999997
0.999998
0.999998
0.999998
0.999999
0.999999
0.999999
1
1
1
1
1
1
0.999999
0.999999
0.999998
0.999998
0.999997
0.999996
0.999996
0.999995
0.999995
0.999995
0.999995
0.999995
0.999996
0.999996
0.999996
0.999996
0.999996
0.999996
0.999996
0.999995
0.999994
0.999993
0.999994
0.999994
0.999995
0.999996
0.999997
0.999997
0.999998
0.999998
0.999999
0.999999
1
1
1
1
1
1
1
1
1
1
1
1
1
1
0.999996
0.999993
0.999993
0.999994
0.999994
0.999995
0.999996
0.999997
0.999998
0.999998
0.999998
0.999999
0.999999
0.999999
0.999999
0.999999
0.999999
0.999999
0.999999
0.999998
0.999998
0.999998
0.999999
0.999999
0.999999
0.999999
0.999999
0.999999
1
1
1
1
1
1
1
0.999999
0.999998
0.999998
0.999997
0.999996
0.999995
0.999995
0.999994
0.999995
0.999994
0.999995
0.999995
0.999996
0.999996
0.999997
0.999996
0.999997
0.999996
0.999996
0.999995
0.999994
0.999994
0.999994
0.999995
0.999995
0.999996
0.999996
0.999997
0.999998
0.999999
1
1
1
1
1
1
1
1
1
1
1
1
1
1
1
0.999996
0.999993
0.999993
0.999994
0.999995
0.999995
0.999996
0.999997
0.999998
0.999998
0.999998
0.999998
0.999999
0.999999
0.999999
0.999999
0.999999
0.999998
0.999998
0.999998
0.999998
0.999998
0.999998
0.999998
0.999998
0.999999
0.999999
0.999999
0.999999
1
1
1
1
1
1
1
0.999999
0.999998
0.999997
0.999996
0.999996
0.999995
0.999995
0.999995
0.999995
0.999995
0.999995
0.999996
0.999996
0.999996
0.999997
0.999997
0.999997
0.999997
0.999997
0.999996
0.999995
0.999994
0.999994
0.999994
0.999995
0.999995
0.999996
0.999997
0.999999
0.999999
1
1
1
1
1
1
1
1
1
1
1
1
1
0.999999
0.999996
0.999993
0.999993
0.999993
0.999994
0.999995
0.999996
0.999996
0.999997
0.999997
0.999997
0.999998
0.999998
0.999998
0.999998
0.999998
0.999998
0.999997
0.999997
0.999997
0.999997
0.999997
0.999997
0.999997
0.999998
0.999998
0.999998
0.999998
0.999999
1
1
1
1
1
1
0.999999
0.999998
0.999997
0.999996
0.999996
0.999995
0.999995
0.999995
0.999995
0.999995
0.999995
0.999995
0.999995
0.999995
0.999996
0.999996
0.999996
0.999996
0.999997
0.999997
0.999996
0.999995
0.999994
0.999993
0.999993
0.999994
0.999995
0.999996
0.999997
0.999998
0.999999
0.999999
1
1
1
1
1
1
1
1
1
1
1
1
0.999999
0.999996
0.999993
0.999993
0.999993
0.999994
0.999995
0.999996
0.999996
0.999996
0.999997
0.999997
0.999997
0.999997
0.999997
0.999997
0.999997
0.999997
0.999997
0.999997
0.999997
0.999997
0.999997
0.999997
0.999997
0.999997
0.999997
0.999998
0.999998
0.999999
1
1
1
1
1
0.999999
0.999998
0.999997
0.999997
0.999996
0.999996
0.999996
0.999996
0.999996
0.999996
0.999996
0.999995
0.999995
0.999995
0.999995
0.999995
0.999995
0.999995
0.999996
0.999996
0.999996
0.999996
0.999995
0.999994
0.999994
0.999994
0.999994
0.999995
0.999996
0.999997
0.999998
0.999998
0.999999
0.999999
0.999999
0.999999
1
1
1
1
1
1
1
0.999999
1
1
0.999996
0.999993
0.999993
0.999993
0.999994
0.999995
0.999996
0.999996
0.999996
0.999996
0.999996
0.999997
0.999997
0.999997
0.999997
0.999997
0.999997
0.999997
0.999997
0.999997
0.999997
0.999997
0.999997
0.999997
0.999997
0.999998
0.999998
0.999999
1
1
1
1
1
0.999999
0.999998
0.999997
0.999996
0.999996
0.999996
0.999996
0.999996
0.999996
0.999996
0.999996
0.999996
0.999996
0.999996
0.999996
0.999995
0.999995
0.999995
0.999995
0.999995
0.999995
0.999995
0.999996
0.999995
0.999995
0.999994
0.999994
0.999995
0.999995
0.999996
0.999997
0.999998
0.999998
0.999998
0.999999
0.999999
0.999999
0.999999
1
1
1
1
1
1
1
1
1
0.999996
0.999993
0.999994
0.999994
0.999995
0.999995
0.999996
0.999996
0.999996
0.999996
0.999996
0.999996
0.999996
0.999996
0.999996
0.999996
0.999996
0.999997
0.999997
0.999997
0.999997
0.999997
0.999997
0.999998
0.999998
0.999998
0.999999
1
1
1
1
0.999999
0.999998
0.999998
0.999996
0.999996
0.999995
0.999995
0.999995
0.999995
0.999995
0.999995
0.999996
0.999996
0.999997
0.999996
0.999997
0.999996
0.999996
0.999995
0.999995
0.999994
0.999995
0.999995
0.999996
0.999996
0.999996
0.999995
0.999995
0.999995
0.999996
0.999996
0.999997
0.999997
0.999998
0.999998
0.999998
0.999998
0.999999
0.999999
0.999999
1
1
1
1
1
1
1
1
1
0.999996
0.999994
0.999995
0.999995
0.999996
0.999996
0.999996
0.999997
0.999997
0.999996
0.999996
0.999996
0.999996
0.999996
0.999996
0.999996
0.999996
0.999996
0.999997
0.999997
0.999997
0.999997
0.999998
0.999998
0.999998
0.999999
0.999999
0.999999
1
0.999999
0.999999
0.999998
0.999997
0.999996
0.999995
0.999995
0.999994
0.999994
0.999994
0.999995
0.999995
0.999996
0.999996
0.999997
0.999996
0.999997
0.999996
0.999997
0.999996
0.999995
0.999994
0.999993
0.999993
0.999995
0.999995
0.999996
0.999996
0.999996
0.999996
0.999996
0.999996
0.999996
0.999997
0.999997
0.999998
0.999998
0.999998
0.999998
0.999998
0.999999
0.999999
1
1
1
1
1
1
1
1
1
0.999996
0.999995
0.999996
0.999996
0.999997
0.999997
0.999997
0.999997
0.999997
0.999997
0.999996
0.999996
0.999996
0.999996
0.999996
0.999996
0.999996
0.999996
0.999996
0.999997
0.999997
0.999997
0.999997
0.999998
0.999998
0.999999
0.999999
0.999999
0.999999
0.999999
0.999997
0.999997
0.999996
0.999995
0.999995
0.999995
0.999995
0.999995
0.999995
0.999995
0.999996
0.999996
0.999996
0.999996
0.999996
0.999995
0.999996
0.999995
0.999996
0.999995
0.999995
0.999993
0.999993
0.999994
0.999995
0.999996
0.999996
0.999996
0.999996
0.999996
0.999996
0.999996
0.999996
0.999997
0.999997
0.999997
0.999998
0.999998
0.999998
0.999999
0.999999
1
1
1
1
1
1
1
1
0.999999
0.999997
0.999996
0.999997
0.999997
0.999997
0.999997
0.999997
0.999997
0.999997
0.999997
0.999996
0.999996
0.999996
0.999996
0.999996
0.999996
0.999996
0.999997
0.999997
0.999997
0.999997
0.999997
0.999998
0.999998
0.999999
0.999999
0.999999
0.999999
0.999999
0.999998
0.999998
0.999997
0.999996
0.999996
0.999996
0.999996
0.999996
0.999996
0.999995
0.999995
0.999995
0.999995
0.999994
0.999995
0.999994
0.999996
0.999995
0.999996
0.999997
0.999998
0.999997
0.999997
0.999995
0.999995
0.999995
0.999996
0.999996
0.999997
0.999996
0.999996
0.999996
0.999996
0.999996
0.999997
0.999997
0.999998
0.999998
0.999998
0.999999
0.999999
1
1
1
1
1
1
1
1
1
1
0.999998
0.999997
0.999998
0.999998
0.999997
0.999997
0.999997
0.999997
0.999997
0.999996
0.999996
0.999996
0.999996
0.999997
0.999997
0.999997
0.999997
0.999997
0.999997
0.999998
0.999998
0.999998
0.999998
0.999999
0.999999
1
1
1
0.999999
0.999999
0.999999
0.999999
0.999998
0.999998
0.999998
0.999998
0.999997
0.999996
0.999994
0.999992
0.999991
0.999991
0.999991
0.999991
0.999994
0.999995
0.999997
0.999998
0.999999
0.999998
1
0.999998
0.999998
0.999997
0.999997
0.999997
0.999997
0.999997
0.999997
0.999996
0.999996
0.999996
0.999997
0.999997
0.999998
0.999998
0.999998
0.999999
0.999999
0.999999
1
1
1
1
1
1
1
1
1
1
0.999999
0.999997
0.999998
0.999998
0.999998
0.999997
0.999997
0.999997
0.999997
0.999996
0.999996
0.999996
0.999997
0.999997
0.999997
0.999997
0.999997
0.999998
0.999998
0.999998
0.999999
0.999999
1
1
1
1
1
1
1
1
1
0.999999
1
0.999999
0.999999
0.999997
0.999996
0.999993
0.99999
0.999987
0.999986
0.999987
0.999987
0.999989
0.99999
0.999993
0.999995
0.999997
0.999997
0.999998
0.999997
0.999998
0.999997
0.999998
0.999998
0.999999
0.999998
0.999998
0.999998
0.999998
0.999997
0.999998
0.999998
0.999998
0.999998
0.999998
0.999999
0.999999
0.999999
0.999999
1
1
1
1
1
1
1
1
1
1
0.999999
0.999997
0.999998
0.999998
0.999998
0.999998
0.999998
0.999997
0.999997
0.999997
0.999997
0.999997
0.999997
0.999998
0.999998
0.999998
0.999998
0.999999
0.999999
1
1
1
1
1
1
1
1
1
1
1
1
1
0.999999
0.999999
0.999997
0.999995
0.999992
0.999991
0.999989
0.999986
0.999984
0.999985
0.999986
0.999988
0.999992
0.999991
0.999992
0.999993
0.999997
0.999997
0.999998
0.999997
0.999998
0.999998
0.999999
0.999999
1
0.999999
0.999999
0.999999
0.999999
0.999999
0.999999
0.999999
0.999999
0.999999
0.999999
0.999999
0.999999
0.999999
0.999999
1
1
1
1
1
1
1
1
0.999999
0.999999
0.999997
0.999999
0.999999
0.999999
0.999999
0.999999
0.999998
0.999998
0.999998
0.999998
0.999998
0.999999
0.999999
0.999999
0.999999
1
1
1
1
1
1
1
1
1
1
1
1
1
0.999999
1
0.999998
0.999999
0.999997
0.999996
0.999992
0.99999
0.999986
0.999987
0.999987
0.999986
0.999987
0.999988
0.999992
0.999994
0.999996
0.999995
0.999997
0.999997
0.999999
0.999998
0.999999
0.999998
0.999999
0.999999
1
1
1
1
1
1
1
1
1
1
1
1
1
1
1
1
1
1
1
1
1
1
1
0.999999
0.999999
0.999999
0.999998
1
1
1
1
1
1
1
1
1
1
1
1
1
1
1
1
1
1
1
1
1
1
1
1
1
1
0.999998
0.999998
0.999996
0.999996
0.999995
0.999995
0.999993
0.999993
0.999988
0.999984
0.999981
0.999982
0.999982
0.999981
0.999985
0.999987
0.999995
0.999996
0.999999
0.999997
1
0.999999
1
0.999999
1
0.999999
1
1
1
1
1
1
1
1
1
1
1
1
1
1
1
1
1
1
1
1
0.999999
0.999999
0.999999
0.999999
0.999998
0.999999
1
0.999997
1
1
1
1
1
1
1
1
1
1
1
1
1
1
1
1
1
1
1
1
1
1
1
1
1
0.999998
0.999997
0.999995
0.999995
0.999992
0.999993
0.999993
0.999993
0.999992
0.999992
0.999992
0.99999
0.999986
0.999985
0.999989
0.99999
0.999991
0.999991
0.999986
0.999983
0.999988
0.999988
0.999993
0.999993
0.999996
0.999996
0.999999
0.999999
1
1
1
1
1
1
1
1
1
1
1
1
1
1
1
1
1
1
1
1
1
1
0.999999
0.999999
0.999999
0.999997
0.999996
0.999998
0.999999
1
1
1
1
1
1
1
1
1
1
1
1
1
1
1
1
1
1
1
1
1
1
1
1
1
0.999999
0.999997
0.999994
0.999993
0.999993
0.999993
0.999992
0.999992
0.999015
0.991499
0.984177
0.983938
0.991153
0.998844
0.999991
0.999991
0.999988
0.999985
0.999988
0.99999
0.999994
0.999997
0.999997
0.999997
0.999998
0.999999
0.999999
1
1
1
1
1
1
1
1
1
1
1
1
1
1
1
1
1
1
1
1
1
1
1
0.999998
1
1
1
1
1.00001
1.00001
1.00001
1.00001
1.00001
1.00001
1.00001
1.00001
1.00001
1.00001
1.00001
1.00001
1.00001
1.00001
1.00001
1.00001
1.00001
1.00001
1.00001
1.00001
1.00001
1.00001
0.999675
0.997743
0.99368
0.987029
0.977155
0.963076
0.943273
0.914725
0.86421
0.780004
0.666786
0.551324
0.458112
0.413014
0.411935
0.455577
0.546572
0.662304
0.776397
0.861822
0.913565
0.942502
0.962547
0.976792
0.986793
0.993535
0.997672
0.999656
1
1.00001
1.00001
1.00001
1.00001
1.00001
1.00001
1.00001
1.00001
1.00001
1.00001
1.00001
1.00001
1.00001
1.00001
1.00001
1.00001
1.00001
1.00001
1.00001
1.00001
1.00001
1.00001
1.00001
1
1
0.0270991
0.0413516
0.0517058
0.0602422
0.0671628
0.0729245
0.0778665
0.0822201
0.0861515
0.0897828
0.0932018
0.0964688
0.0996211
0.102675
0.105626
0.108452
0.111111
0.113539
0.115654
0.117347
0.118488
0.118913
0.118438
0.116833
0.11383
0.109105
0.102609
0.0951388
0.0866173
0.0767338
0.0650561
0.0510966
0.0344339
0.0143006
4.43898e-09
4.78322e-09
5.39296e-08
0.00648503
0.0151717
0.0161197
0.0167173
0.0158394
0.00564505
5.92072e-08
5.91685e-09
4.88412e-09
0.0136113
0.0338824
0.0506526
0.0647052
0.0764609
0.0864121
0.0949879
0.10251
0.109071
0.113862
0.116918
0.118565
0.119073
0.118672
0.117549
0.115868
0.113761
0.111337
0.108679
0.105852
0.102897
0.0998387
0.0966805
0.0934064
0.0899796
0.0863397
0.082399
0.0780354
0.0730818
0.067307
0.0603701
0.051814
0.0414371
0.0271511
5.06776e-09
2.09549e-09
4.37305e-09
6.65621e-09
8.90519e-09
1.10161e-08
1.28866e-08
1.44744e-08
1.57582e-08
1.67217e-08
1.735e-08
1.76305e-08
1.75527e-08
1.71116e-08
1.63092e-08
1.51595e-08
1.36911e-08
1.1952e-08
1.00101e-08
7.95393e-09
5.88266e-09
3.97133e-09
2.32608e-09
1.05849e-09
2.64521e-10
5.58523e-12
1.06809e-11
1.06809e-11
1.11326e-11
1.1606e-11
1.27397e-11
8.08775e-11
6.79536e-10
1.97097e-09
3.32906e-09
5.35016e-08
0.0643202
0.263738
0.378834
0.376054
0.376106
0.380431
0.270004
0.0685181
5.81026e-08
3.84392e-09
3.14589e-09
1.51613e-09
3.83856e-10
3.24137e-11
1.61103e-11
1.28913e-11
1.1371e-11
1.13723e-11
8.79665e-12
2.64294e-10
1.33359e-09
2.3419e-09
3.94769e-09
5.86784e-09
7.94171e-09
1.00173e-08
1.19854e-08
1.37534e-08
1.52525e-08
1.64244e-08
1.72373e-08
1.7683e-08
1.77689e-08
1.74985e-08
1.68688e-08
1.5887e-08
1.45827e-08
1.29788e-08
1.1096e-08
8.98189e-09
6.69719e-09
4.38852e-09
2.12572e-09
5.09626e-09
7.53857e-12
1.15725e-12
3.05415e-12
5.30113e-12
7.64573e-12
9.91825e-12
1.1667e-11
1.33221e-11
1.47087e-11
1.56055e-11
1.58445e-11
1.53807e-11
1.40182e-11
1.16615e-11
8.2336e-12
3.88294e-12
-7.28128e-13
-1.78482e-12
-1.41035e-12
-2.23705e-12
-8.19134e-12
-1.92747e-12
9.04374e-13
2.03661e-13
2.22765e-13
3.65904e-13
1.53001e-11
1.2296e-10
8.66593e-11
1.27397e-11
3.70542e-07
2.65221e-06
4.11567e-06
2.82261e-06
1.45264e-06
2.21134e-07
0.0317631
0.316791
0.401809
0.401809
0.401809
0.401809
0.330003
0.0357448
2.44535e-07
5.43928e-07
2.76079e-06
4.97963e-06
4.52476e-06
1.92518e-06
6.68461e-08
1.61127e-11
8.58027e-10
5.08209e-11
6.22233e-12
6.62969e-12
2.78715e-10
4.48131e-11
2.8613e-12
4.23355e-13
1.03647e-13
7.01732e-14
6.3987e-14
5.88337e-12
1.61371e-11
2.39754e-11
2.90475e-11
3.16014e-11
3.16797e-11
2.96249e-11
2.67518e-11
2.34208e-11
1.9144e-11
1.27501e-11
1.06979e-11
9.21532e-12
6.4593e-12
3.80952e-12
1.52419e-12
1.29757e-11
1.60137e-14
1.47713e-15
4.11361e-15
7.23695e-15
1.0805e-14
1.47123e-14
1.86186e-14
2.23273e-14
2.56333e-14
2.8234e-14
2.97151e-14
2.95739e-14
2.72341e-14
2.23001e-14
1.48644e-14
6.21442e-15
-6.616e-16
6.23717e-16
6.23137e-16
5.97193e-16
6.87015e-15
-1.53122e-14
8.59439e-14
2.03711e-13
2.03711e-13
2.22765e-13
3.65904e-13
1.12649e-11
3.73596e-08
7.92003e-07
2.59421e-06
1.47293e-05
1.90803e-05
1.90803e-05
6.64784e-06
2.59108e-07
3.0562e-07
0.0405444
0.401809
0.401809
0.401809
0.401809
0.0490996
3.32087e-07
2.8474e-07
3.87347e-07
1.9095e-05
2.00728e-05
2.00702e-05
1.40826e-05
1.5931e-06
5.33258e-10
1.95609e-11
6.22233e-12
6.22233e-12
6.22233e-12
5.88835e-12
2.72772e-12
4.23355e-13
2.65121e-13
9.10048e-14
6.92279e-14
6.38602e-14
3.90758e-14
6.35986e-14
8.52936e-14
9.62845e-14
9.86527e-14
9.55355e-14
8.90494e-14
8.03691e-14
7.03989e-14
5.99105e-14
4.8881e-14
3.63381e-14
2.52027e-14
1.62452e-14
8.84483e-15
3.32223e-15
2.82057e-14
5.06626e-17
2.60844e-18
7.54857e-18
1.35086e-17
2.08867e-17
2.97284e-17
3.97522e-17
5.06615e-17
6.20673e-17
7.31597e-17
8.25091e-17
8.79419e-17
8.64894e-17
7.50981e-17
5.26665e-17
2.99687e-17
1.12695e-16
6.50255e-16
5.23083e-15
2.02848e-13
2.2e-12
3.40078e-13
1.58098e-14
2.03702e-13
2.18655e-13
3.61794e-13
1.10935e-11
3.03989e-10
8.90406e-07
3.08686e-06
3.08816e-06
2.73692e-06
1.88457e-06
6.92823e-07
2.47242e-07
2.46929e-07
2.59108e-07
0.00487986
0.193144
0.241379
0.244014
0.204584
0.00709304
2.83381e-07
2.80536e-07
3.34568e-07
2.1384e-07
2.03358e-06
6.08194e-06
9.00643e-06
6.75559e-06
6.48198e-07
5.39115e-10
7.09327e-09
5.18059e-08
1.11808e-07
7.87855e-08
6.12569e-09
2.72772e-12
2.59035e-11
2.9604e-12
1.70642e-13
6.10304e-14
1.13121e-14
4.38337e-15
3.07728e-15
2.16346e-15
1.53191e-15
1.10868e-15
8.18137e-16
6.10395e-16
4.55995e-16
3.38518e-16
2.47803e-16
1.76794e-16
1.20663e-16
7.64805e-17
4.20042e-17
1.42796e-17
9.05433e-17
9.87737e-18
9.33954e-21
3.23023e-20
4.54127e-20
5.08222e-20
7.57266e-20
1.06935e-19
1.45068e-19
1.9016e-19
2.409e-19
2.93016e-19
3.37085e-19
3.57471e-19
3.34977e-19
4.28607e-19
6.12597e-18
1.22186e-16
5.88448e-16
1.26185e-14
3.65022e-13
9.31921e-13
9.87918e-11
2.87947e-08
9.45852e-08
9.43151e-08
3.82562e-08
9.8832e-11
1.60189e-09
4.53194e-09
7.66432e-09
1.17205e-08
1.20301e-08
1.24813e-08
1.28335e-08
5.28256e-07
2.36326e-06
2.93864e-06
0.000366656
1.84873e-11
2.23488e-11
4.27092e-11
5.16458e-11
0.000275296
4.29599e-07
1.99095e-07
1.52946e-07
7.33704e-08
5.31895e-11
4.48372e-10
7.87441e-10
1.07164e-09
1.63785e-08
4.90538e-09
3.15636e-09
1.39268e-07
9.31988e-07
9.3957e-07
9.07264e-07
1.14684e-07
2.44097e-11
2.48737e-12
2.78e-13
4.98326e-14
6.81017e-15
3.97967e-15
2.65739e-15
1.7003e-15
1.07835e-15
6.94411e-16
4.55957e-16
3.04419e-16
2.05243e-16
1.3874e-16
9.32887e-17
6.16628e-17
3.92958e-17
2.34167e-17
1.21828e-17
3.70492e-18
1.8059e-17
8.3282e-20
4.73766e-22
3.39069e-21
2.99834e-21
2.80599e-22
3.62845e-22
4.54563e-22
5.65301e-22
7.03012e-22
9.64022e-22
1.27457e-21
1.59745e-21
1.85927e-21
2.97483e-21
1.48966e-19
1.86278e-18
4.47643e-17
2.9541e-15
9.82847e-14
6.3784e-13
2.36642e-11
3.3583e-08
1.36069e-07
1.24094e-07
2.24301e-08
5.25869e-09
7.26217e-09
2.99503e-08
2.98262e-08
2.26576e-08
5.83091e-09
1.19174e-08
3.50481e-08
6.08133e-08
1.02625e-06
4.55281e-06
4.54578e-06
1.84873e-11
1.83803e-11
2.58212e-11
5.89647e-11
5.15376e-11
5.16458e-11
5.15376e-11
5.19305e-11
5.27085e-11
5.31397e-11
5.31895e-11
3.43244e-08
2.42933e-07
2.47851e-07
2.47187e-07
2.02542e-07
1.45247e-08
1.49623e-09
1.41441e-09
7.23742e-07
7.11169e-07
6.57472e-08
8.70795e-11
3.12717e-12
5.92109e-13
3.77093e-14
1.8543e-15
7.06472e-16
3.57563e-16
1.74168e-16
8.41049e-17
4.1885e-17
2.17017e-17
1.16827e-17
6.48695e-18
3.68454e-18
2.122e-18
1.22413e-18
6.93575e-19
3.74053e-19
1.79759e-19
5.00142e-20
1.93464e-19
1.39665e-22
4.60772e-24
2.65699e-23
3.31951e-23
2.73076e-23
1.36949e-23
2.44905e-24
3.28002e-24
4.51661e-24
6.31692e-24
8.72363e-24
1.02488e-23
1.42934e-23
3.47797e-22
1.46325e-20
7.77108e-19
9.55919e-17
6.54982e-15
4.67294e-14
2.26104e-12
2.42402e-09
9.64629e-08
1.44419e-07
9.92757e-08
1.24226e-09
7.76262e-09
3.20908e-08
3.2129e-08
2.57073e-08
4.65914e-10
5.39386e-11
4.94529e-11
4.00113e-11
3.07278e-11
2.72629e-11
2.72629e-11
2.54304e-11
2.57075e-11
3.46019e-11
3.66648e-11
7.52674e-11
7.94818e-11
8.4301e-11
7.85134e-11
8.07495e-11
8.22378e-11
8.19555e-11
7.70716e-11
6.69215e-11
6.68165e-11
6.69239e-11
3.64564e-10
3.31051e-09
3.17477e-09
1.82876e-09
1.42826e-09
1.41558e-07
2.61277e-07
7.6351e-08
5.9614e-11
1.92006e-12
3.70828e-13
1.91338e-14
3.71614e-16
2.88446e-17
8.19564e-18
2.70042e-18
9.12751e-19
3.29376e-19
1.29928e-19
5.571e-20
2.55925e-20
1.2412e-20
6.26704e-21
3.24239e-21
1.68194e-21
8.47151e-22
3.86224e-22
1.06092e-22
4.28725e-22
4.67757e-25
2.62993e-26
1.23566e-25
2.10551e-25
2.95841e-25
2.77467e-25
2.21216e-25
9.40339e-26
3.05229e-26
4.53244e-26
6.57869e-26
8.76027e-26
1.39879e-25
1.03874e-23
2.45216e-22
1.07968e-19
1.21838e-17
1.02458e-15
2.11265e-14
1.21251e-12
1.14997e-09
8.80473e-08
1.44419e-07
1.21957e-07
1.26765e-09
1.58736e-09
6.05994e-09
1.70703e-09
4.91125e-11
4.89539e-11
6.44118e-11
1.9169e-10
2.93596e-10
3.27718e-10
2.14464e-10
1.18558e-10
6.46875e-11
4.75193e-11
3.15662e-11
2.48241e-11
6.83014e-11
8.85717e-11
9.88099e-11
1.19433e-10
1.38461e-10
1.36274e-10
1.22521e-10
9.38566e-11
6.95836e-11
6.67113e-11
6.73209e-11
6.68011e-11
1.39156e-10
1.42519e-09
2.6604e-09
1.43082e-09
1.26131e-10
2.06548e-08
2.65916e-08
2.40943e-09
9.2981e-13
2.04702e-13
7.80584e-15
9.01467e-17
1.18716e-18
7.84823e-20
1.90541e-20
5.93928e-21
1.99376e-21
7.36883e-22
2.99728e-22
1.31415e-22
6.10345e-23
2.95992e-23
1.47609e-23
7.41583e-24
3.64111e-24
1.62635e-24
4.46319e-25
1.81005e-24
1.94502e-27
1.38149e-28
6.38278e-28
1.21716e-27
1.92367e-27
2.72653e-27
3.50784e-27
3.59226e-27
3.56479e-27
2.88049e-27
1.56641e-27
9.41326e-28
8.95168e-28
5.32878e-26
9.79738e-24
1.54829e-21
1.99939e-19
2.1767e-17
1.97705e-15
1.48193e-13
8.89831e-12
2.74376e-08
1.44419e-07
1.42418e-07
8.64544e-08
1.55036e-10
6.70272e-11
5.91658e-11
5.87949e-11
5.05505e-11
4.49993e-11
6.66159e-11
2.26827e-10
4.80529e-10
5.63751e-10
5.26115e-10
3.27515e-10
1.71614e-10
5.96123e-11
2.17472e-11
5.9476e-11
9.07995e-11
1.13939e-10
1.43863e-10
1.45653e-10
1.29109e-10
8.09655e-11
5.26951e-11
4.25324e-11
4.56983e-11
6.31067e-11
6.66606e-11
4.89919e-10
2.40314e-09
2.75082e-09
1.24553e-09
2.44431e-11
3.43447e-11
3.04868e-09
7.96791e-10
9.23233e-12
6.92276e-14
1.23809e-15
1.52265e-17
1.39937e-19
2.02807e-21
2.41458e-22
6.78179e-23
2.15975e-23
7.33471e-24
2.72771e-24
1.09756e-24
4.70499e-25
2.12164e-25
9.92296e-26
4.72015e-26
2.21677e-26
9.5637e-27
2.56308e-27
9.76766e-27
8.5879e-30
7.40985e-31
3.43766e-30
7.04229e-30
1.23451e-29
2.05949e-29
3.28624e-29
5.15367e-29
7.70412e-29
1.04639e-28
1.57922e-28
2.44209e-28
1.26298e-29
5.92719e-29
1.10577e-26
2.23986e-24
4.03498e-22
6.77649e-20
1.14428e-17
2.08138e-15
2.70467e-13
2.14043e-10
3.25738e-08
1.31414e-07
1.29105e-07
1.84488e-08
7.94371e-11
7.52143e-11
8.46359e-11
6.71876e-11
4.48938e-11
2.03714e-11
1.51503e-11
4.45751e-11
3.77682e-10
5.42222e-10
5.27872e-10
2.88356e-10
9.96733e-11
2.1422e-11
4.87411e-11
9.27045e-11
1.23918e-10
1.43837e-10
1.24204e-10
4.79856e-11
1.35185e-11
7.08042e-12
6.68883e-12
1.11288e-11
2.87014e-11
1.35654e-10
8.93679e-10
2.22265e-09
1.87161e-09
3.26821e-10
1.18504e-11
1.28992e-11
1.58956e-10
1.13285e-10
3.17596e-12
1.3055e-14
1.29545e-16
1.40737e-18
1.26602e-20
9.99422e-23
4.19601e-24
9.30766e-25
2.66001e-25
8.15308e-26
2.73367e-26
1.00006e-26
3.93445e-27
1.64425e-27
7.19945e-28
3.23967e-28
1.45465e-28
6.06036e-29
1.58521e-29
5.65131e-29
3.97312e-32
4.08747e-33
1.90442e-32
4.13942e-32
7.88859e-32
1.46552e-31
2.70796e-31
5.04098e-31
9.49869e-31
1.8573e-30
4.07016e-30
9.38552e-30
5.00154e-30
3.33096e-31
3.86663e-29
8.37317e-27
1.45667e-24
2.02677e-22
2.6504e-20
7.31837e-18
2.08138e-15
4.62658e-13
3.83405e-11
1.6323e-08
3.1616e-08
1.80503e-08
4.33802e-09
4.12342e-10
1.15946e-10
5.07988e-11
2.16526e-11
9.42184e-12
7.18009e-12
8.14361e-12
1.53903e-11
9.34726e-11
2.20517e-10
2.19348e-10
1.11581e-10
2.22384e-11
3.77575e-11
8.98662e-11
1.01024e-10
1.2419e-10
6.08951e-11
1.38923e-11
3.65472e-12
2.3543e-12
2.4989e-12
5.04686e-12
1.39442e-11
7.16348e-11
3.12329e-10
6.02927e-10
3.00748e-10
2.35098e-11
1.03306e-11
1.18219e-11
1.25293e-11
4.77357e-12
1.35482e-13
7.58044e-16
6.47527e-18
6.10324e-20
5.31079e-22
4.02617e-24
7.90113e-26
1.2982e-26
3.28838e-27
9.14379e-28
2.78665e-28
9.33659e-29
3.39362e-29
1.32212e-29
5.44699e-30
2.32845e-30
1.00292e-30
4.04516e-31
1.03479e-31
3.4505e-31
1.9065e-34
2.31315e-35
1.08304e-34
2.4771e-34
5.05102e-34
1.02251e-33
2.10806e-33
4.47857e-33
9.91815e-33
2.31508e-32
5.85403e-32
1.65468e-31
6.51758e-31
7.28266e-32
2.67609e-31
3.86663e-29
8.37317e-27
1.45667e-24
2.02677e-22
2.6504e-20
7.31837e-18
1.01471e-13
1.5764e-12
1.98377e-11
2.96444e-11
1.8548e-09
1.17295e-09
3.80979e-10
7.51075e-11
1.54761e-11
4.43642e-12
1.51908e-12
1.45807e-12
2.52074e-12
8.63961e-12
2.17747e-11
5.06283e-11
5.8094e-11
4.75739e-11
2.08679e-11
2.73778e-11
9.00745e-11
6.0619e-11
7.69845e-11
3.77867e-11
8.22964e-12
1.7694e-12
6.94943e-13
6.28347e-13
1.17862e-12
2.45727e-12
6.04334e-12
1.5175e-11
2.26358e-11
9.73914e-12
4.8604e-12
5.05188e-12
3.11533e-12
5.74449e-13
6.91208e-14
1.33319e-15
1.30624e-17
1.30044e-19
1.26231e-21
1.12574e-23
9.21321e-26
1.41776e-27
1.78259e-28
4.03051e-29
1.0234e-29
2.86313e-30
8.86052e-31
2.99681e-31
1.095e-31
4.26627e-32
1.73963e-32
7.21136e-33
2.82277e-33
7.07424e-34
2.20355e-33
9.37531e-37
1.33658e-37
6.28818e-37
1.50529e-36
3.25532e-36
7.08263e-36
1.59393e-35
3.77016e-35
9.47404e-35
2.54236e-34
7.40255e-34
2.37038e-33
9.88665e-33
6.99632e-32
6.33114e-33
2.67609e-31
6.94677e-29
1.56388e-26
2.88462e-24
7.07764e-21
4.32821e-17
1.09478e-14
8.84387e-14
5.79988e-13
8.95233e-13
7.63952e-13
2.02927e-11
1.01267e-11
3.01741e-12
7.91006e-13
2.03669e-13
1.35361e-13
2.31647e-13
9.23843e-13
4.37273e-12
1.5596e-11
3.39817e-11
3.88366e-11
3.43961e-11
1.76332e-11
1.96887e-11
1.0594e-10
4.18006e-11
5.10894e-11
2.64724e-11
5.66189e-12
1.02419e-12
2.04349e-13
9.39902e-14
1.13316e-13
2.3237e-13
3.9734e-13
5.72082e-13
5.9596e-13
7.67933e-13
9.01674e-13
6.96525e-13
1.54389e-13
1.4307e-14
1.13237e-15
1.75631e-17
1.7185e-19
1.88654e-21
1.88692e-23
1.7234e-25
1.4615e-27
2.20617e-29
2.36992e-30
4.84919e-31
1.13201e-31
2.9338e-32
8.45455e-33
2.67941e-33
9.23709e-34
3.42059e-34
1.33602e-34
5.34773e-35
2.03656e-35
5.00875e-36
1.45547e-35
4.67267e-39
7.83337e-40
3.70038e-39
9.2393e-39
2.10818e-38
4.89094e-38
1.18709e-37
3.06667e-37
8.53315e-37
2.57196e-36
8.49894e-36
3.09138e-35
1.27299e-34
1.72541e-33
3.41747e-33
5.46565e-33
1.85968e-29
4.45363e-27
1.02808e-24
3.26042e-22
3.02154e-18
1.8183e-16
4.77853e-15
4.68625e-14
1.69596e-13
2.19728e-13
2.13905e-13
1.06885e-13
2.79872e-14
6.71606e-15
5.49472e-15
1.48024e-14
8.60886e-14
4.59527e-13
2.02612e-12
7.61747e-12
2.01614e-11
2.85928e-11
2.7037e-11
1.48046e-11
1.53875e-11
1.16683e-10
3.27406e-11
3.63219e-11
1.8028e-11
3.7685e-12
7.09105e-13
1.19877e-13
1.7917e-14
5.10661e-15
4.97476e-15
9.78009e-15
1.6793e-14
2.43959e-14
3.66629e-14
4.59228e-14
1.58236e-14
1.73239e-15
2.63479e-16
2.09347e-17
3.08032e-19
2.78088e-21
2.67659e-23
2.47013e-25
2.20322e-27
1.85527e-29
2.95493e-31
3.00521e-32
5.65413e-33
1.2239e-33
2.96498e-34
8.02169e-35
2.39905e-35
7.851e-36
2.77761e-36
1.04364e-36
4.04753e-37
1.50351e-37
3.63512e-38
9.84097e-38
2.33679e-41
4.62149e-42
2.18992e-41
5.68951e-41
1.36523e-40
3.36193e-40
8.74353e-40
2.44295e-39
7.41907e-39
2.46373e-38
9.0471e-38
3.68543e-37
1.67656e-36
8.94947e-36
2.2343e-34
1.57022e-33
3.49154e-31
8.72939e-29
2.00399e-26
4.08665e-24
1.50865e-20
1.53772e-18
4.19662e-17
9.74732e-16
5.17059e-15
7.12546e-15
3.4806e-15
9.12681e-16
1.51031e-16
1.5395e-16
7.99069e-16
7.29651e-15
4.8223e-14
2.44042e-13
1.03602e-12
3.75586e-12
1.1232e-11
2.00138e-11
1.96608e-11
1.05111e-11
1.26795e-11
1.22024e-10
2.96494e-11
2.64967e-11
1.27125e-11
2.67532e-12
5.24868e-13
9.2061e-14
1.24372e-14
1.21184e-15
1.18479e-16
4.73375e-17
1.01049e-16
2.4088e-16
3.80133e-16
4.06872e-16
8.30835e-17
1.63434e-17
4.08441e-18
3.30475e-19
4.80328e-21
4.20148e-23
3.80924e-25
3.2345e-27
2.58232e-29
2.05533e-31
3.51632e-33
3.59976e-34
6.32162e-35
1.2817e-35
2.92875e-36
7.49941e-37
2.13159e-37
6.66242e-38
2.26369e-38
8.21753e-39
3.09859e-39
1.12565e-39
2.68004e-40
6.74937e-40
1.15956e-43
2.75649e-44
1.29224e-43
3.4895e-43
8.78511e-43
2.28926e-42
6.35626e-42
1.9124e-41
6.27577e-41
2.23935e-40
8.81228e-40
3.82951e-39
1.84594e-38
9.87247e-38
9.48517e-37
2.4735e-35
2.56673e-33
6.41361e-31
1.38286e-28
3.58647e-26
9.1576e-23
6.69268e-21
3.66294e-19
7.3273e-18
4.26496e-17
5.63645e-17
2.90079e-17
5.29634e-18
4.5558e-18
3.32787e-17
4.37338e-16
4.23094e-15
2.80298e-14
1.4043e-13
5.85482e-13
2.16231e-12
7.07877e-12
1.37574e-11
1.33729e-11
6.85348e-12
1.11316e-11
1.24433e-10
2.96556e-11
2.04421e-11
9.53642e-12
2.07915e-12
4.02425e-13
6.99843e-14
9.28533e-15
8.83648e-16
6.26171e-17
3.75832e-18
2.35904e-19
1.23898e-19
3.76695e-19
9.2766e-19
4.81452e-19
1.77921e-19
5.18217e-20
4.28336e-21
6.33313e-23
5.53692e-25
4.90678e-27
3.99657e-29
3.0217e-31
2.24973e-33
3.87e-35
4.00367e-36
6.71098e-37
1.29068e-37
2.80711e-38
6.85722e-39
1.86533e-39
5.60178e-40
1.83726e-40
6.47131e-41
2.38058e-41
8.47945e-42
1.99145e-42
4.6573e-42
5.65929e-46
1.62679e-46
7.46329e-46
2.08735e-45
5.46531e-45
1.48724e-44
4.32487e-44
1.36412e-43
4.70107e-43
1.7721e-42
7.35212e-42
3.35276e-41
1.68328e-40
9.4297e-40
6.18198e-39
1.05711e-37
1.9671e-35
4.92337e-33
1.02384e-30
2.27519e-28
2.61154e-25
7.19109e-23
3.55699e-21
4.89869e-20
2.68276e-19
4.24133e-19
1.51478e-19
1.18155e-19
1.01064e-18
1.6774e-17
2.31436e-16
2.29936e-15
1.52666e-14
7.63279e-14
3.21777e-13
1.26955e-12
4.54749e-12
8.82315e-12
8.20325e-12
4.21394e-12
1.0502e-11
1.2529e-10
3.13777e-11
1.78074e-11
8.35891e-12
1.87458e-12
3.3552e-13
5.34663e-14
6.67489e-15
5.82915e-16
3.8396e-17
2.16719e-18
1.12623e-19
2.19203e-21
2.07997e-21
2.64477e-21
1.42858e-21
9.50266e-22
5.29202e-22
4.56209e-23
7.0899e-25
6.36273e-27
5.62211e-29
4.48434e-31
3.2836e-33
2.35725e-35
4.06953e-37
4.17176e-38
6.74005e-39
1.24265e-39
2.59491e-40
6.09396e-41
1.59732e-41
4.63622e-42
1.47513e-42
5.06239e-43
1.8229e-43
6.38242e-44
1.48114e-44
3.20965e-44
2.69962e-48
9.13768e-49
4.11335e-48
1.18266e-47
3.18823e-47
8.96137e-47
2.69994e-46
8.83939e-46
3.16654e-45
1.24365e-44
5.37031e-44
2.54438e-43
1.32237e-42
7.61333e-42
5.07818e-41
7.05021e-40
1.30763e-37
3.07127e-35
5.27624e-33
5.51132e-31
2.30551e-28
7.87431e-25
2.58996e-23
2.41327e-22
1.58394e-21
2.17515e-21
1.81917e-21
2.01851e-20
4.15928e-19
7.71155e-18
1.09851e-16
1.07728e-15
6.89109e-15
3.35459e-14
1.43868e-13
6.27524e-13
2.41808e-12
4.39145e-12
3.7668e-12
2.54898e-12
1.04414e-11
1.25691e-10
3.52924e-11
1.68116e-11
8.33694e-12
1.84567e-12
3.02454e-13
4.21511e-14
4.69602e-15
3.44059e-16
1.96841e-17
1.04467e-18
5.21805e-20
2.12454e-21
2.35366e-23
1.32218e-23
1.21072e-23
3.51751e-24
2.73218e-24
3.93561e-25
6.69762e-27
6.36598e-29
5.72877e-31
4.54907e-33
3.27013e-35
2.29581e-37
3.99743e-39
4.059e-40
6.35977e-41
1.13661e-41
2.30071e-42
5.23936e-43
1.33142e-43
3.7557e-44
1.16485e-44
3.91059e-45
1.38282e-45
4.76929e-46
1.09882e-46
2.19281e-46
1.25135e-50
4.93602e-51
2.18372e-50
6.41705e-50