/*--------------------------------*- C++ -*----------------------------------*\
| =========                 |                                                 |
| \\      /  F ield         | OpenFOAM: The Open Source CFD Toolbox           |
|  \\    /   O peration     | Version:  2412                                  |
|   \\  /    A nd           | Website:  www.openfoam.com                      |
|    \\/     M anipulation  |                                                 |
\*---------------------------------------------------------------------------*/
FoamFile
{
    version     2.0;
    format      ascii;
    arch        "LSB;label=32;scalar=64";
    class       surfaceScalarField;
    location    "1.55";
    object      alphaPhi0.oil;
}
// * * * * * * * * * * * * * * * * * * * * * * * * * * * * * * * * * * * * * //

dimensions      [0 3 -1 0 0 0 0];

oriented        oriented;

internalField   nonuniform List<scalar> 
12640
(
2.51979e-07
-2.51987e-07
8.7057e-07
-6.18752e-07
1.64689e-06
-7.76459e-07
2.43688e-06
-7.90032e-07
3.17942e-06
-7.42608e-07
3.86532e-06
-6.85826e-07
4.5128e-06
-6.47428e-07
5.15239e-06
-6.39541e-07
5.81744e-06
-6.64969e-07
6.53865e-06
-7.21241e-07
7.34192e-06
-8.03342e-07
8.24729e-06
-9.05422e-07
9.26893e-06
-1.02168e-06
1.04155e-05
-1.14671e-06
1.16908e-05
-1.2755e-06
1.30939e-05
-1.40338e-06
1.46199e-05
-1.52604e-06
1.62592e-05
-1.63924e-06
1.79976e-05
-1.73843e-06
1.98158e-05
-1.81848e-06
2.16887e-05
-1.87347e-06
2.35849e-05
-1.89679e-06
2.54657e-05
-1.88114e-06
2.72841e-05
-1.81866e-06
2.89851e-05
-1.70108e-06
3.05051e-05
-1.52022e-06
3.17735e-05
-1.26871e-06
3.27141e-05
-9.40895e-07
3.32479e-05
-5.33938e-07
3.32969e-05
-4.90395e-08
3.27887e-05
5.08243e-07
3.1663e-05
1.12591e-06
2.98763e-05
1.78689e-06
2.74087e-05
2.46813e-06
2.42675e-05
3.14196e-06
2.04908e-05
3.7777e-06
1.61479e-05
4.34393e-06
1.13381e-05
4.81083e-06
6.18642e-06
5.15271e-06
8.37164e-07
5.35017e-06
-4.55374e-06
5.39175e-06
-9.82775e-06
5.27485e-06
-1.4833e-05
5.00605e-06
-1.94326e-05
4.6004e-06
-2.35123e-05
4.08041e-06
-2.69859e-05
3.47405e-06
-2.9798e-05
2.81215e-06
-3.19247e-05
2.12633e-06
-3.33718e-05
1.44643e-06
-3.41707e-05
7.98321e-07
-3.4374e-05
2.02983e-07
-3.40484e-05
-3.25283e-07
-3.32702e-05
-7.77231e-07
-3.21194e-05
-1.1496e-06
-3.06754e-05
-1.44328e-06
-2.9013e-05
-1.66246e-06
-2.72005e-05
-1.81337e-06
-2.52982e-05
-1.90368e-06
-2.3358e-05
-1.94161e-06
-2.14234e-05
-1.93556e-06
-1.95304e-05
-1.89356e-06
-1.77079e-05
-1.82286e-06
-1.59786e-05
-1.72979e-06
-1.43592e-05
-1.61992e-06
-1.2861e-05
-1.49845e-06
-1.14907e-05
-1.37029e-06
-1.02503e-05
-1.2403e-06
-9.13674e-06
-1.11356e-06
-8.14166e-06
-9.95367e-07
-7.25063e-06
-8.91418e-07
-6.44305e-06
-8.0784e-07
-5.6924e-06
-7.50713e-07
-4.9672e-06
-7.25083e-07
-4.23372e-06
-7.33205e-07
-3.46166e-06
-7.71654e-07
-2.63431e-06
-8.26888e-07
-1.76513e-06
-8.6891e-07
-9.22583e-07
-8.42636e-07
-2.61541e-07
-6.61452e-07
-2.61882e-07
6.26142e-07
-8.78146e-07
1.90293e-06
-1.8957e-06
3.42104e-06
-2.29476e-06
4.94088e-06
-2.30992e-06
6.35765e-06
-2.15943e-06
7.6618e-06
-1.98997e-06
8.89982e-06
-1.88547e-06
1.01452e-05
-1.88512e-06
1.14795e-05
-1.9993e-06
1.29797e-05
-2.22156e-06
1.4713e-05
-2.53678e-06
1.67334e-05
-2.92615e-06
1.90815e-05
-3.37017e-06
2.17849e-05
-3.85023e-06
2.48584e-05
-4.34898e-06
2.83048e-05
-4.84999e-06
3.21156e-05
-5.33722e-06
3.62701e-05
-5.79421e-06
4.07346e-05
-6.20332e-06
4.54609e-05
-6.545e-06
5.03847e-05
-6.79724e-06
5.54232e-05
-6.93518e-06
6.04733e-05
-6.93116e-06
6.54099e-05
-6.75522e-06
7.00849e-05
-6.37617e-06
7.4328e-05
-5.76349e-06
7.79492e-05
-4.88998e-06
8.07434e-05
-3.73505e-06
8.24981e-05
-2.28842e-06
8.30036e-05
-5.54101e-07
8.20661e-05
1.4463e-06
7.95224e-05
3.67048e-06
7.52551e-05
6.05513e-06
6.92079e-05
8.51633e-06
6.13976e-05
1.09534e-05
5.19217e-05
1.32547e-05
4.09609e-05
1.53058e-05
2.87747e-05
1.69981e-05
1.56907e-05
1.82377e-05
2.08818e-06
1.89537e-05
-1.16233e-05
1.91041e-05
-2.50271e-05
1.86794e-05
-3.77241e-05
1.77038e-05
-4.93557e-05
1.62324e-05
-5.96226e-05
1.43474e-05
-6.82998e-05
1.21509e-05
-7.5244e-05
9.75578e-06
-8.03951e-05
7.27699e-06
-8.37715e-05
4.82275e-06
-8.54597e-05
2.48707e-06
-8.56013e-05
3.45492e-07
-8.43771e-05
-1.54861e-06
-8.19919e-05
-3.16199e-06
-7.86602e-05
-4.48133e-06
-7.45948e-05
-5.50926e-06
-6.99968e-05
-6.26107e-06
-6.505e-05
-6.76068e-06
-5.99165e-05
-7.0373e-06
-5.47357e-05
-7.12225e-06
-4.96244e-05
-7.04686e-06
-4.46773e-05
-6.84064e-06
-3.99697e-05
-6.53052e-06
-3.55587e-05
-6.14071e-06
-3.14856e-05
-5.693e-06
-2.77767e-05
-5.20734e-06
-2.44451e-05
-4.70218e-06
-2.14907e-05
-4.19525e-06
-1.89005e-05
-3.70456e-06
-1.66477e-05
-3.24899e-06
-1.46912e-05
-2.84848e-06
-1.29755e-05
-2.52365e-06
-1.14319e-05
-2.29417e-06
-9.98111e-06
-2.17551e-06
-8.54062e-06
-2.17343e-06
-7.03694e-06
-2.27528e-06
-5.42653e-06
-2.4376e-06
-3.7264e-06
-2.56976e-06
-2.05423e-06
-2.51581e-06
-6.68712e-07
-2.04779e-06
-9.30622e-07
7.94557e-07
-1.67282e-06
2.31607e-06
-3.41751e-06
4.05203e-06
-4.03101e-06
5.737e-06
-3.99501e-06
7.26832e-06
-3.69089e-06
8.65403e-06
-3.37585e-06
9.96902e-06
-3.20059e-06
1.13213e-05
-3.23749e-06
1.28285e-05
-3.50672e-06
1.46034e-05
-3.99672e-06
1.67453e-05
-4.67892e-06
1.93363e-05
-5.5173e-06
2.244e-05
-6.47403e-06
2.61017e-05
-7.5122e-06
3.03489e-05
-8.59664e-06
3.5192e-05
-9.69357e-06
4.06242e-05
-1.07696e-05
4.66205e-05
-1.17903e-05
5.31363e-05
-1.27185e-05
6.01046e-05
-1.35126e-05
6.74334e-05
-1.41254e-05
7.5002e-05
-1.45034e-05
8.26583e-05
-1.45873e-05
9.02158e-05
-1.43125e-05
9.74521e-05
-1.36122e-05
0.00010411
-1.24208e-05
0.0001099
-1.06798e-05
0.00011451
-8.34417e-06
0.000117613
-5.39079e-06
0.000118886
-1.82635e-06
0.000118028
2.30495e-06
0.000114783
6.91595e-06
0.000108963
1.18742e-05
0.000100476
1.70039e-05
8.93355e-05
2.20932e-05
7.56832e-05
2.69066e-05
5.97867e-05
3.12021e-05
4.20351e-05
3.47495e-05
2.2923e-05
3.73497e-05
3.02437e-06
3.88522e-05
-1.70393e-05
3.91676e-05
-3.66359e-05
3.82758e-05
-5.51606e-05
3.62281e-05
-7.20707e-05
3.31422e-05
-8.69158e-05
2.91926e-05
-9.93595e-05
2.45953e-05
-0.000109192
1.95889e-05
-0.00011633
1.44161e-05
-0.000120811
9.30483e-06
-0.000122777
4.45297e-06
-0.000122451
1.86327e-08
-0.000120115
-3.88544e-06
-0.000116086
-7.19142e-06
-0.000110694
-9.87268e-06
-0.000104264
-1.19371e-05
-9.71046e-05
-1.34189e-05
-8.94931e-05
-1.43703e-05
-8.16746e-05
-1.48541e-05
-7.38581e-05
-1.49374e-05
-6.62168e-05
-1.46872e-05
-5.889e-05
-1.41666e-05
-5.19863e-05
-1.34337e-05
-4.55868e-05
-1.25404e-05
-3.97474e-05
-1.15331e-05
-3.45018e-05
-1.04539e-05
-2.98633e-05
-9.34165e-06
-2.58257e-05
-8.23348e-06
-2.23639e-05
-7.16666e-06
-1.94335e-05
-6.1796e-06
-1.697e-05
-5.31219e-06
-1.48892e-05
-4.60473e-06
-1.30889e-05
-4.09489e-06
-1.14533e-05
-3.81168e-06
-9.86218e-06
-3.76521e-06
-8.20695e-06
-3.93131e-06
-6.41557e-06
-4.23003e-06
-4.48789e-06
-4.49871e-06
-2.54099e-06
-4.46379e-06
-8.63142e-07
-3.72594e-06
-1.79386e-06
8.05129e-07
-2.4782e-06
2.28387e-06
-4.89672e-06
3.89094e-06
-5.63852e-06
5.36556e-06
-5.46992e-06
6.62867e-06
-4.9543e-06
7.71815e-06
-4.46556e-06
8.74036e-06
-4.22305e-06
9.83476e-06
-4.33217e-06
1.11493e-05
-4.82144e-06
1.28245e-05
-5.67216e-06
1.49851e-05
-6.83976e-06
1.77354e-05
-8.26797e-06
2.11584e-05
-9.8973e-06
2.53154e-05
-1.16694e-05
3.02471e-05
-1.35283e-05
3.59733e-05
-1.54197e-05
4.24928e-05
-1.72893e-05
4.97828e-05
-1.90804e-05
5.77955e-05
-2.07312e-05
6.64549e-05
-2.2172e-05
7.56531e-05
-2.33234e-05
8.52451e-05
-2.40953e-05
9.50446e-05
-2.43865e-05
0.00010482
-2.40872e-05
0.000114291
-2.30827e-05
0.000123131
-2.12602e-05
0.000130969
-1.85172e-05
0.0001374
-1.47741e-05
0.000141997
-9.9868e-06
0.000144332
-4.16113e-06
0.000144004
2.63379e-06
0.000140664
1.02559e-05
0.000134053
1.84855e-05
0.000124028
2.70284e-05
0.000110593
3.55275e-05
9.39145e-05
4.35842e-05
7.4329e-05
5.0787e-05
5.23345e-05
5.67436e-05
2.85695e-05
6.11144e-05
3.77986e-06
6.36417e-05
-2.12254e-05
6.41727e-05
-4.56227e-05
6.26731e-05
-6.86248e-05
5.92305e-05
-8.95283e-05
5.40463e-05
-0.000107753
4.74184e-05
-0.000122872
3.97151e-05
-0.000134624
3.1343e-05
-0.000142921
2.27137e-05
-0.000147827
1.42127e-05
-0.000149546
6.17272e-06
-0.000148385
-1.14254e-06
-0.000144723
-7.54718e-06
-0.000138982
-1.2932e-05
-0.000131597
-1.72576e-05
-0.000122992
-2.05422e-05
-0.000113562
-2.28484e-05
-0.000103663
-2.4268e-05
-9.36067e-05
-2.49104e-05
-8.36532e-05
-2.48908e-05
-7.40168e-05
-2.43237e-05
-6.48672e-05
-2.33166e-05
-5.63339e-05
-2.19676e-05
-4.85106e-05
-2.03643e-05
-4.14595e-05
-1.85848e-05
-3.52146e-05
-1.66991e-05
-2.97846e-05
-1.47715e-05
-2.51545e-05
-1.28631e-05
-2.12865e-05
-1.1034e-05
-1.81199e-05
-9.34593e-06
-1.55706e-05
-7.86182e-06
-1.35309e-05
-6.64495e-06
-1.18721e-05
-5.75422e-06
-1.0449e-05
-5.23512e-06
-9.10995e-06
-5.1045e-06
-7.71353e-06
-5.32799e-06
-6.15492e-06
-5.7891e-06
-4.40328e-06
-6.25087e-06
-2.55235e-06
-6.31492e-06
-8.88785e-07
-5.38936e-06
-2.68294e-06
7.24199e-07
-3.20264e-06
1.97086e-06
-6.14374e-06
3.21292e-06
-6.88088e-06
4.21893e-06
-6.47609e-06
4.94718e-06
-5.68281e-06
5.4735e-06
-4.99207e-06
5.93888e-06
-4.68867e-06
6.51323e-06
-4.90679e-06
7.37068e-06
-5.67921e-06
8.67474e-06
-6.97647e-06
1.057e-05
-8.73514e-06
1.31782e-05
-1.08764e-05
1.65978e-05
-1.33172e-05
2.09044e-05
-1.59763e-05
2.61512e-05
-1.87752e-05
3.2369e-05
-2.16379e-05
3.95663e-05
-2.44872e-05
4.7727e-05
-2.7242e-05
5.68078e-05
-2.98128e-05
6.67329e-05
-3.20979e-05
7.73893e-05
-3.39805e-05
8.86201e-05
-3.53265e-05
0.000100218
-3.59849e-05
0.000111922
-3.57903e-05
0.000123407
-3.45682e-05
0.000134293
-3.21452e-05
0.000144138
-2.83619e-05
0.000152455
-2.30904e-05
0.000158723
-1.62545e-05
0.000162414
-7.8515e-06
0.000163021
2.02684e-06
0.0001601
1.31781e-05
0.000153304
2.52814e-05
0.000142433
3.79002e-05
0.000127461
5.04995e-05
0.000108568
6.24782e-05
8.61425e-05
7.32123e-05
6.07809e-05
8.21055e-05
3.32559e-05
8.86399e-05
4.47613e-06
9.24222e-05
-2.45691e-05
9.32187e-05
-5.2872e-05
9.09769e-05
-7.94711e-05
8.58303e-05
-0.000103511
7.80867e-05
-0.000124292
6.82004e-05
-0.000141308
5.67323e-05
-0.000154263
4.43001e-05
-0.000163075
3.15268e-05
-0.000167853
1.89922e-05
-0.000168872
7.19317e-06
-0.000166533
-3.4815e-06
-0.000161317
-1.27625e-05
-0.000153752
-2.04976e-05
-0.00014437
-2.66393e-05
-0.000133687
-3.12262e-05
-0.000122176
-3.4361e-05
-0.000110256
-3.6189e-05
-9.82888e-05
-3.68791e-05
-8.65733e-05
-3.66077e-05
-7.53502e-05
-3.5548e-05
-6.48063e-05
-3.38613e-05
-5.50802e-05
-3.1694e-05
-4.62686e-05
-2.91759e-05
-3.84317e-05
-2.64214e-05
-3.15979e-05
-2.35324e-05
-2.57671e-05
-2.06016e-05
-2.09134e-05
-1.77159e-05
-1.69859e-05
-1.49606e-05
-1.39095e-05
-1.2422e-05
-1.15835e-05
-1.01881e-05
-9.88182e-06
-8.3472e-06
-8.65444e-06
-6.98203e-06
-7.73191e-06
-6.15765e-06
-6.93459e-06
-5.90147e-06
-6.08895e-06
-6.17325e-06
-5.05355e-06
-6.82417e-06
-3.75823e-06
-7.54579e-06
-2.25895e-06
-7.81373e-06
-8.15077e-07
-6.83314e-06
-3.49823e-06
5.91615e-07
-3.79454e-06
1.48454e-06
-7.03676e-06
2.19888e-06
-7.59525e-06
2.55237e-06
-6.82962e-06
2.55308e-06
-5.68363e-06
2.32199e-06
-4.7611e-06
2.0381e-06
-4.40494e-06
1.90179e-06
-4.77058e-06
2.11092e-06
-5.88858e-06
2.84799e-06
-7.71372e-06
4.27308e-06
-1.01602e-05
6.52138e-06
-1.31247e-05
9.70371e-06
-1.64998e-05
1.39078e-05
-2.01806e-05
1.91989e-05
-2.40665e-05
2.56204e-05
-2.80596e-05
3.31931e-05
-3.20603e-05
4.19132e-05
-3.59626e-05
5.17481e-05
-3.96483e-05
6.26309e-05
-4.29814e-05
7.44534e-05
-4.58036e-05
8.7058e-05
-4.79317e-05
0.000100229
-4.91566e-05
0.000113686
-4.92474e-05
0.000127076
-4.79579e-05
0.000139971
-4.50397e-05
0.000151869
-4.02603e-05
0.000162206
-3.34274e-05
0.000170369
-2.44171e-05
0.000175723
-1.32056e-05
0.00017765
1.00103e-07
0.000175592
1.52367e-05
0.000169103
3.17711e-05
0.000157901
4.91019e-05
0.000141919
6.64825e-05
0.000121332
8.30663e-05
9.65752e-05
9.79694e-05
6.83375e-05
0.000110344
3.7527e-05
0.000119451
5.22033e-06
0.000124729
-2.74056e-05
0.000125845
-5.9151e-05
0.000122723
-8.88728e-05
0.000115553
-0.000115559
0.000104774
-0.000138393
9.10342e-05
-0.000156794
7.51335e-05
-0.000170442
5.79489e-05
-0.000179276
4.03612e-05
-0.000183467
2.31841e-05
-0.000183381
7.10805e-06
-0.000179526
-7.33576e-06
-0.000172499
-1.97884e-05
-0.000162939
-3.00577e-05
-0.000151479
-3.80984e-05
-0.000138722
-4.39836e-05
-0.00012521
-4.78724e-05
-0.00011142
-4.99798e-05
-9.77498e-05
-5.05494e-05
-8.45253e-05
-4.98325e-05
-7.20014e-05
-4.8072e-05
-6.03703e-05
-4.54922e-05
-4.97694e-05
-4.22944e-05
-4.02891e-05
-3.86554e-05
-3.19803e-05
-3.47295e-05
-2.486e-05
-3.06523e-05
-1.89157e-05
-2.65456e-05
-1.41085e-05
-2.25228e-05
-1.03747e-05
-1.86942e-05
-7.62577e-06
-1.51709e-05
-5.74778e-06
-1.20666e-05
-4.60006e-06
-9.49589e-06
-4.01578e-06
-7.56731e-06
-3.80497e-06
-6.36913e-06
-3.76227e-06
-5.94448e-06
-3.68154e-06
-6.25402e-06
-3.38116e-06
-7.12434e-06
-2.74376e-06
-8.1828e-06
-1.77452e-06
-8.78277e-06
-6.84014e-07
-7.92412e-06
-4.18229e-06
4.27238e-07
-4.22187e-06
8.81603e-07
-7.49084e-06
9.46615e-07
-7.66009e-06
5.05534e-07
-6.38837e-06
-3.71877e-07
-4.80616e-06
-1.51172e-06
-3.62126e-06
-2.69315e-06
-3.22358e-06
-3.6847e-06
-3.77895e-06
-4.26658e-06
-5.30684e-06
-4.24059e-06
-7.73982e-06
-3.43487e-06
-1.09659e-05
-1.7043e-06
-1.48552e-05
1.07149e-06
-1.92756e-05
4.99056e-06
-2.40997e-05
1.01301e-05
-2.9206e-05
1.65473e-05
-3.44766e-05
2.42784e-05
-3.97912e-05
3.33364e-05
-4.50205e-05
4.37063e-05
-5.00181e-05
5.53377e-05
-5.46128e-05
6.81367e-05
-5.86027e-05
8.1955e-05
-6.175e-05
9.65792e-05
-6.37808e-05
0.00011172
-6.43883e-05
0.000127003
-6.32411e-05
0.000141964
-6e-05
0.000156044
-5.4341e-05
0.000168604
-4.59871e-05
0.000178934
-3.47468e-05
0.000186285
-2.05566e-05
0.000189911
-3.52571e-06
0.000189122
1.60264e-05
0.000183347
3.75464e-05
0.000172204
6.02455e-05
0.00015556
8.31282e-05
0.000133573
0.000105053
0.000106721
0.000124822
7.57882e-05
0.000141277
4.18281e-05
0.000153411
6.10222e-06
0.000160455
-3.00048e-05
0.000161952
-6.50798e-05
0.000157798
-9.77788e-05
0.000148252
-0.000126919
0.000133914
-0.000151556
0.000115671
-0.000171036
9.46129e-05
-0.000185023
7.19357e-05
-0.000193493
4.88313e-05
-0.000196702
2.63924e-05
-0.000195128
5.53403e-06
-0.00018941
-1.30538e-05
-0.000180278
-2.89204e-05
-0.000168493
-4.18427e-05
-0.000154797
-5.17936e-05
-0.000139879
-5.89002e-05
-0.000124352
-6.33987e-05
-0.000108738
-6.55932e-05
-9.34666e-05
-6.58199e-05
-7.88791e-05
-6.44193e-05
-6.52345e-05
-6.1716e-05
-5.27204e-05
-5.80057e-05
-4.14632e-05
-5.35508e-05
-3.1539e-05
-4.8579e-05
-2.29822e-05
-4.32859e-05
-1.57932e-05
-3.78415e-05
-9.94339e-06
-3.2396e-05
-5.37904e-06
-2.70878e-05
-2.02301e-06
-2.20506e-05
2.24922e-07
-1.74191e-05
1.48973e-06
-1.33319e-05
1.92314e-06
-9.9302e-06
1.70509e-06
-7.35045e-06
1.04285e-06
-5.70807e-06
1.65917e-07
-5.06846e-06
-6.86183e-07
-5.4024e-06
-1.28741e-06
-6.52318e-06
-1.46492e-06
-8.00532e-06
-1.1601e-06
-9.08792e-06
-5.16691e-07
-8.5681e-06
-4.69903e-06
2.37388e-07
-4.45914e-06
1.80352e-07
-7.43328e-06
-5.11763e-07
-6.96771e-06
-1.87469e-06
-5.02518e-06
-3.76395e-06
-2.91674e-06
-5.94407e-06
-1.44104e-06
-8.14822e-06
-1.01948e-06
-1.01131e-05
-1.81383e-06
-1.15989e-05
-3.82108e-06
-1.23951e-05
-6.94378e-06
-1.23217e-05
-1.10393e-05
-1.1227e-05
-1.59498e-05
-8.9834e-06
-2.15192e-05
-5.48385e-06
-2.75993e-05
-6.39096e-07
-3.40508e-05
5.62326e-06
-4.0739e-05
1.33582e-05
-4.75263e-05
2.26005e-05
-5.42628e-05
3.33589e-05
-6.07765e-05
4.56075e-05
-6.68615e-05
5.92749e-05
-7.22701e-05
7.42311e-05
-7.67061e-05
9.02736e-05
-7.98232e-05
0.000107113
-8.12277e-05
0.000124361
-8.04892e-05
0.000141521
-7.71592e-05
0.000157981
-7.08008e-05
0.000173022
-6.10289e-05
0.000185835
-4.75588e-05
0.000195543
-3.02638e-05
0.000201252
-9.23509e-06
0.000202118
1.5162e-05
0.000197415
4.22498e-05
0.000186633
7.10289e-05
0.00016955
0.000100212
0.000146297
0.000128307
0.000117389
0.000153731
8.37131e-05
0.000174953
4.649e-05
0.000190634
7.19069e-06
0.000199754
-3.25629e-05
0.000201705
-7.11129e-05
0.000196348
-0.000106885
0.000184024
-0.000138502
0.000165531
-0.000164876
0.000142044
-0.000185275
0.000115012
-0.000199355
8.60148e-05
-0.000207147
5.66225e-05
-0.000209013
2.82582e-05
-0.000205577
2.09667e-06
-0.000197634
-2.09986e-05
-0.000186068
-4.04879e-05
-0.000171779
-5.61329e-05
-0.000155626
-6.79468e-05
-0.000138391
-7.61356e-05
-0.000120753
-8.10374e-05
-0.000103277
-8.30684e-05
-8.64199e-05
-8.26773e-05
-7.0529e-05
-8.03102e-05
-5.58592e-05
-7.63858e-05
-4.25847e-05
-7.12805e-05
-3.08129e-05
-6.53231e-05
-2.05976e-05
-5.87948e-05
-1.19501e-05
-5.1934e-05
-4.84873e-06
-4.49437e-05
7.54858e-07
-3.80006e-05
4.93149e-06
-3.12653e-05
7.77225e-06
-2.48916e-05
9.38843e-06
-1.90351e-05
9.91383e-06
-1.3857e-05
9.50817e-06
-9.52443e-06
8.36088e-06
-6.20336e-06
6.69327e-06
-4.04079e-06
4.75712e-06
-3.13244e-06
2.82607e-06
-3.47112e-06
1.17515e-06
-4.8718e-06
4.20607e-08
-6.87204e-06
-4.36524e-07
-8.60943e-06
-3.20702e-07
-8.68369e-06
-5.01976e-06
1.86777e-08
-4.47756e-06
-6.30001e-07
-6.78409e-06
-2.19609e-06
-5.40138e-06
-4.61555e-06
-2.6055e-06
-7.65348e-06
1.21356e-07
-1.1003e-05
1.90855e-06
-1.4347e-05
2.32436e-06
-1.73907e-05
1.22996e-06
-1.98768e-05
-1.33504e-06
-2.15865e-05
-5.23434e-06
-2.23359e-05
-1.02901e-05
-2.197e-05
-1.63159e-05
-2.03563e-05
-2.3133e-05
-1.73794e-05
-3.05763e-05
-1.29378e-05
-3.84928e-05
-6.94147e-06
-4.67358e-05
6.86859e-07
-5.51551e-05
1.00089e-05
-6.35855e-05
2.10639e-05
-7.1832e-05
3.38574e-05
-7.96555e-05
4.83485e-05
-8.67617e-05
6.44327e-05
-9.27907e-05
8.19251e-05
-9.73159e-05
0.000100543
-9.98455e-05
0.000119887
-9.98339e-05
0.000139431
-9.67035e-05
0.000158511
-8.9881e-05
0.000176328
-7.88459e-05
0.000191961
-6.31918e-05
0.000204396
-4.26987e-05
0.000212575
-1.74132e-05
0.000215465
1.22721e-05
0.00021216
4.55554e-05
0.000201987
8.12032e-05
0.000184611
0.000117588
0.000160123
0.000152796
0.000129074
0.000184782
9.24689e-05
0.000211558
5.17167e-05
0.000231387
8.52981e-06
0.000242942
-3.51973e-05
0.000245433
-7.75262e-05
0.000238677
-0.000116618
0.000223116
-0.000150868
0.000199782
-0.000179027
0.000170203
-0.000200276
0.000136261
-0.000214269
0.000100007
-0.00022111
6.34636e-05
-0.0002213
2.84472e-05
-0.000215634
-3.56958e-06
-0.000205097
-3.15363e-05
-0.000190751
-5.48342e-05
-0.000173652
-7.32325e-05
-0.000154786
-8.6814e-05
-0.000135028
-9.58935e-05
-0.000115127
-0.000100939
-9.56915e-05
-0.000102504
-7.71974e-05
-0.000101172
-5.99961e-05
-9.75121e-05
-4.43313e-05
-9.20517e-05
-3.03566e-05
-8.52565e-05
-1.81534e-05
-7.75276e-05
-7.74655e-06
-6.92028e-05
8.82023e-07
-6.05635e-05
7.78178e-06
-5.18443e-05
1.30251e-05
-4.32449e-05
1.67028e-05
-3.49436e-05
1.8921e-05
-2.711e-05
1.98018e-05
-1.99154e-05
1.94858e-05
-1.35403e-05
1.81378e-05
-8.17575e-06
1.59527e-05
-4.01776e-06
1.31617e-05
-1.24947e-06
1.0036e-05
-6.26853e-09
6.88318e-06
-3.1775e-07
4.0319e-06
-2.02011e-06
1.79552e-06
-4.63556e-06
4.06049e-07
-7.2198e-06
-9.28123e-08
-8.18453e-06
-5.11276e-06
-2.3945e-07
-4.23786e-06
-1.58449e-06
-5.43874e-06
-4.17005e-06
-2.8157e-06
-7.80614e-06
1.0306e-06
-1.21473e-05
4.46252e-06
-1.68039e-05
6.56516e-06
-2.14054e-05
6.9255e-06
-2.56277e-05
5.45192e-06
-2.92005e-05
2.23761e-06
-3.19024e-05
-2.53274e-06
-3.35503e-05
-8.64255e-06
-3.39896e-05
-1.5877e-05
-3.30845e-05
-2.40383e-05
-3.07119e-05
-3.2949e-05
-2.67564e-05
-4.24485e-05
-2.11081e-05
-5.23842e-05
-1.36633e-05
-6.26001e-05
-4.32755e-06
-7.29213e-05
6.97535e-06
-8.31349e-05
2.02906e-05
-9.29707e-05
3.56128e-05
-0.000102084
5.28682e-05
-0.000110046
7.18932e-05
-0.000116341
9.24131e-05
-0.000120366
0.000114021
-0.000121442
0.000136159
-0.000118842
0.000158109
-0.000111832
0.000178989
-9.97263e-05
0.000197764
-8.19674e-05
0.000213273
-5.82083e-05
0.000224276
-2.84167e-05
0.000229532
7.01553e-06
0.000227916
4.71709e-05
0.00021856
9.05581e-05
0.000200996
0.000135152
0.000175256
0.000178535
0.000141931
0.000218107
0.000102161
0.000251329
5.75668e-05
0.000275982
1.0133e-05
0.000290376
-3.79399e-05
0.000293506
-8.43985e-05
0.000285136
-0.000127104
0.000265822
-0.000164196
0.000236874
-0.000194236
0.000200243
-0.000216312
0.000158336
-0.000230077
0.000113772
-0.000235732
6.91184e-05
-0.000233939
2.66555e-05
-0.000225706
-1.18015e-05
-0.000212234
-4.50067e-05
-0.000194785
-7.2281e-05
-0.000174582
-9.3434e-05
-0.000152742
-0.000108653
-0.000130242
-0.000118393
-0.000107898
-0.000123283
-8.63636e-05
-0.000124038
-6.61352e-05
-0.000121401
-4.75648e-05
-0.000116083
-3.08817e-05
-0.000108736
-1.62153e-05
-9.99239e-05
-3.61627e-06
-9.01278e-05
6.92494e-06
-7.97451e-05
1.54619e-05
-6.91011e-05
2.20776e-05
-5.84602e-05
2.68739e-05
-4.80412e-05
2.99648e-05
-3.80345e-05
3.14738e-05
-2.86186e-05
3.15337e-05
-1.99749e-05
3.02909e-05
-1.22969e-05
2.79114e-05
-5.79592e-06
2.4591e-05
-6.97216e-07
2.05653e-05
2.77619e-06
1.61198e-05
4.43916e-06
1.15939e-05
4.20772e-06
7.37372e-06
2.19933e-06
3.86044e-06
-1.12303e-06
1.40244e-06
-4.76211e-06
1.74332e-07
-6.95742e-06
-4.93888e-06
-5.55976e-07
-3.6818e-06
-2.74252e-06
-3.25205e-06
-6.53939e-06
9.81228e-07
-1.15915e-05
6.08262e-06
-1.74167e-05
1.02875e-05
-2.35306e-05
1.2679e-05
-2.95082e-05
1.29031e-05
-3.50022e-05
1.09456e-05
-3.97375e-05
6.97281e-06
-4.34973e-05
1.22708e-06
-4.61053e-05
-6.03458e-06
-4.74104e-05
-1.45719e-05
-4.72753e-05
-2.41735e-05
-4.55678e-05
-3.46564e-05
-4.21569e-05
-4.58592e-05
-3.69096e-05
-5.7631e-05
-2.96912e-05
-6.98178e-05
-2.0369e-05
-8.22428e-05
-8.82205e-06
-9.46807e-05
5.03911e-06
-0.000106831
2.12503e-05
-0.000118294
3.9769e-05
-0.000128564
6.04508e-05
-0.000137022
8.30266e-05
-0.000142941
0.000107076
-0.000145491
0.000132006
-0.000143772
0.000157037
-0.000136863
0.000181204
-0.000123894
0.00020336
-0.000104124
0.000222199
-7.70475e-05
0.000236294
-4.25127e-05
0.000244179
-8.70357e-07
0.000244481
4.68681e-05
0.000236108
9.89301e-05
0.000218433
0.000152825
0.000191425
0.000205543
0.000155716
0.000253815
0.000112597
0.000294449
6.39227e-05
0.000324656
1.1974e-05
0.000342326
-4.07225e-05
0.000346204
-9.15773e-05
0.000335991
-0.000138127
0.000312373
-0.000178228
0.000276977
-0.000210233
0.000232249
-0.000233121
0.000181224
-0.00024655
0.000127203
-0.000250831
7.34009e-05
-0.000246818
2.26448e-05
-0.00023576
-2.2858e-05
-0.000219102
-6.16634e-05
-0.000198316
-9.30661e-05
-0.00017479
-0.000116959
-0.000149772
-0.000133671
-0.000124336
-0.00014383
-9.93716e-05
-0.000148248
-7.55809e-05
-0.00014783
-5.34856e-05
-0.000143497
-3.34423e-05
-0.000136127
-1.56677e-05
-0.000126511
-2.67254e-07
-0.000115325
1.27402e-05
-0.000103135
2.34016e-05
-9.04068e-05
3.18115e-05
-7.75109e-05
3.80926e-05
-6.47409e-05
4.23816e-05
-5.23297e-05
4.48204e-05
-4.04727e-05
4.55528e-05
-2.93501e-05
4.47238e-05
-1.9145e-05
4.24843e-05
-1.00568e-05
3.8999e-05
-2.3101e-06
3.44581e-05
3.84396e-06
2.90939e-05
8.14061e-06
2.31979e-05
1.03353e-05
1.71356e-05
1.02696e-05
1.13515e-05
7.98293e-06
6.34718e-06
3.88111e-06
2.61498e-06
-1.0301e-06
5.03561e-07
-4.84694e-06
-4.43482e-06
-9.59971e-07
-2.72189e-06
-4.19304e-06
-1.88564e-08
-9.45665e-06
6.24504e-06
-1.61725e-05
1.27986e-05
-2.36883e-05
1.78034e-05
-3.14157e-05
2.04064e-05
-3.888e-05
2.03676e-05
-4.5722e-05
1.77877e-05
-5.1675e-05
1.29259e-05
-5.65372e-05
6.08921e-06
-6.01451e-05
-2.42669e-06
-6.23543e-05
-1.23629e-05
-6.3025e-05
-2.35029e-05
-6.20143e-05
-3.56672e-05
-5.9172e-05
-4.87016e-05
-5.43385e-05
-6.24645e-05
-4.73441e-05
-7.6812e-05
-3.80119e-05
-9.15746e-05
-2.61701e-05
-0.000106522
-1.16786e-05
-0.000121321
5.53867e-06
-0.000135511
2.54652e-05
-0.00014849
4.79642e-05
-0.000159521
7.2762e-05
-0.000167739
9.9411e-05
-0.00017214
0.000127269
-0.000171629
0.000155489
-0.000165083
0.00018302
-0.000151425
0.000208617
-0.00012972
0.000230847
-9.9277e-05
0.000248118
-5.97836e-05
0.000258739
-1.14914e-05
0.000261069
4.45389e-05
0.000253767
0.000106233
0.000236037
0.000170555
0.000207782
0.000233798
0.000169687
0.000291911
0.000123205
0.000340931
7.04416e-05
0.00037742
1.39729e-05
0.000398796
-4.33551e-05
0.000403533
-9.86247e-05
0.000391262
-0.000149048
0.000362798
-0.000192184
0.000320115
-0.000226157
0.000266225
-0.000249825
0.000204895
-0.000262854
0.000140234
-0.00026567
7.62179e-05
-0.000259334
1.63096e-05
-0.000245361
-3.68299e-05
-0.000225456
-8.15695e-05
-0.000201287
-0.000117236
-0.000174389
-0.000143859
-0.000146117
-0.000161944
-0.000117638
-0.00017231
-8.99174e-05
-0.00017597
-6.37172e-05
-0.00017403
-3.95989e-05
-0.000167615
-1.79353e-05
-0.00015779
1.05994e-06
-0.000145505
1.72981e-05
-0.000131562
3.0787e-05
-0.000116623
4.16105e-05
-0.000101229
4.99076e-05
-8.58073e-05
5.58469e-05
-7.06797e-05
5.96055e-05
-5.60883e-05
6.13588e-05
-4.22259e-05
6.12748e-05
-2.9266e-05
5.95141e-05
-1.7384e-05
5.62328e-05
-6.77508e-06
5.1591e-05
2.33226e-06
4.57671e-05
9.66846e-06
3.89794e-05
1.49292e-05
3.15121e-05
1.78035e-05
2.3745e-05
1.80377e-05
1.61755e-05
1.55535e-05
9.416e-06
1.06418e-05
4.13776e-06
4.24836e-06
9.26169e-07
-1.63447e-06
-3.50726e-06
-1.4972e-06
-1.2247e-06
-6.06728e-06
4.55159e-06
-1.31331e-05
1.33114e-05
-2.18093e-05
2.14754e-05
-3.1236e-05
2.72306e-05
-4.07183e-05
2.98887e-05
-4.97485e-05
2.93979e-05
-5.79766e-05
2.60158e-05
-6.5163e-05
2.01121e-05
-7.11332e-05
1.2059e-05
-7.57434e-05
2.18296e-06
-7.88562e-05
-9.25062e-06
-8.0327e-05
-2.20327e-05
-7.99967e-05
-3.5998e-05
-7.76914e-05
-5.10073e-05
-7.32219e-05
-6.69345e-05
-6.63807e-05
-8.36534e-05
-5.69423e-05
-0.000101013
-4.46777e-05
-0.000118786
-2.93934e-05
-0.000136606
-1.098e-05
-0.000153924
1.05528e-05
-0.000170023
3.50642e-05
-0.000184032
6.22415e-05
-0.000194916
9.15875e-05
-0.000201485
0.000122387
-0.000202429
0.000153709
-0.000196404
0.000184421
-0.000182136
0.000213201
-0.0001585
0.000238544
-0.000124619
0.000258752
-7.99912e-05
0.000271944
-2.46829e-05
0.000276202
4.02825e-05
0.000269924
0.000112511
0.00025216
0.000188319
0.00022276
0.000263198
0.000182474
0.000332197
0.000132935
0.00039047
7.64886e-05
0.000433866
1.5976e-05
0.000459309
-4.54963e-05
0.000465006
-0.000104744
0.000450511
-0.000158695
0.000416749
-0.000204624
0.000366044
-0.000240419
0.000302019
-0.000264803
0.000229279
-0.000277442
0.000152873
-0.000278867
7.76423e-05
-0.000270338
7.78006e-06
-0.000253657
-5.35121e-05
-0.000230775
-0.000104452
-0.000203513
-0.000144499
-0.000173486
-0.000173886
-0.000142119
-0.000193311
-0.000110651
-0.000203778
-8.01313e-05
-0.000206489
-5.14046e-05
-0.000202756
-2.50982e-05
-0.000193921
-1.62441e-06
-0.000181263
1.87865e-05
-0.000165914
3.60449e-05
-0.000148819
5.01707e-05
-0.000130748
6.12767e-05
-0.000112335
6.95478e-05
-9.40779e-05
7.52035e-05
-7.63352e-05
7.84677e-05
-5.93526e-05
7.9554e-05
-4.33124e-05
7.86605e-05
-2.83727e-05
7.59682e-05
-1.46919e-05
7.16418e-05
-2.44851e-06
6.58357e-05
8.1384e-06
5.87101e-05
1.6794e-05
5.04558e-05
2.31834e-05
4.13309e-05
2.69285e-05
3.17069e-05
2.7662e-05
2.21174e-05
2.51437e-05
1.3288e-05
1.94717e-05
6.10941e-06
1.14267e-05
1.49157e-06
2.98505e-06
-2.0157e-06
-2.24332e-06
1.0189e-06
-8.56293e-06
1.08721e-05
-1.78596e-05
2.26088e-05
-2.88269e-05
3.24435e-05
-4.03643e-05
3.87686e-05
-5.16873e-05
4.12123e-05
-6.22919e-05
4.00022e-05
-7.18713e-05
3.5595e-05
-8.02373e-05
2.84779e-05
-8.72571e-05
1.90784e-05
-9.28103e-05
7.7357e-06
-9.67642e-05
-5.29725e-06
-9.89616e-05
-1.98358e-05
-9.92192e-05
-3.5741e-05
-9.73328e-05
-5.28942e-05
-9.30826e-05
-7.11853e-05
-8.62255e-05
-9.0511e-05
-7.64858e-05
-0.000110753
-6.35709e-05
-0.000131702
-4.72332e-05
-0.000152944
-2.73454e-05
-0.000173812
-3.94124e-06
-0.000193427
2.27788e-05
-0.000210752
5.24427e-05
-0.000224579
8.44618e-05
-0.000233504
0.000118008
-0.000235974
0.000152038
-0.000230433
0.000185337
-0.000215434
0.000216554
-0.000189716
0.000244206
-0.000152271
0.000266615
-0.0001024
0.000281799
-3.98668e-05
0.000287564
3.45177e-05
0.000282054
0.000118022
0.000264224
0.000206149
0.000233904
0.000293518
0.000191933
0.000374167
0.000140134
0.000442268
8.10638e-05
0.000492936
1.77359e-05
0.000522636
-4.66191e-05
0.00052936
-0.000108697
0.000512587
-0.000165248
0.000473299
-0.000213311
0.000414106
-0.000250543
0.00033925
-0.000275521
0.000254255
-0.000287897
0.000165248
-0.000288268
7.80122e-05
-0.000278034
-2.45462e-06
-0.000259299
-7.2248e-05
-0.000234227
-0.000129524
-0.000204674
-0.000174052
-0.00017222
-0.00020634
-0.000138278
-0.000227252
-0.000104138
-0.000237917
-7.09432e-05
-0.000239683
-3.96566e-05
-0.000234042
-1.10162e-05
-0.000222561
1.44882e-05
-0.000206768
3.658e-05
-0.000188007
5.51375e-05
-0.000167376
7.01612e-05
-0.000145771
8.17749e-05
-0.000123948
9.0207e-05
-0.000102509
9.57333e-05
-8.18612e-05
9.8628e-05
-6.22475e-05
9.91468e-05
-4.38312e-05
9.75238e-05
-2.675e-05
9.39689e-05
-1.11373e-05
8.86618e-05
2.85825e-06
8.17545e-05
1.50453e-05
7.33838e-05
2.51638e-05
6.36993e-05
3.2867e-05
5.29068e-05
3.77203e-05
4.13341e-05
3.92347e-05
2.95134e-05
3.69646e-05
1.82655e-05
3.07195e-05
8.73627e-06
2.09567e-05
2.27679e-06
9.44585e-06
2.60645e-07
-3.33244e-06
4.35196e-06
-1.19882e-05
1.95293e-05
-2.40369e-05
3.46586e-05
-3.76122e-05
4.60196e-05
-5.13707e-05
5.25274e-05
-6.44966e-05
5.43391e-05
-7.65544e-05
5.20604e-05
-8.73303e-05
4.63712e-05
-9.67161e-05
3.78635e-05
-0.000104631
2.69928e-05
-0.000110977
1.40813e-05
-0.000115618
-6.57098e-07
-0.000118371
-1.70838e-05
-0.000119014
-3.50994e-05
-0.000117305
-5.46043e-05
-0.000112999
-7.5493e-05
-0.000105828
-9.76831e-05
-9.5471e-05
-0.000121111
-8.15668e-05
-0.000145607
-6.38127e-05
-0.000170699
-4.20953e-05
-0.000195531
-1.65341e-05
-0.000218988
1.25615e-05
-0.000239848
4.47005e-05
-0.000256718
7.91555e-05
-0.000267958
0.000114931
-0.000271748
0.000150827
-0.000266328
0.000185549
-0.000250156
0.000217777
-0.000221943
0.000246197
-0.000180691
0.000269381
-0.000125582
0.000285425
-5.59102e-05
0.000291854
2.8089e-05
0.000286568
0.000123308
0.000268578
0.000224139
0.000237749
0.000324348
0.000195038
0.00041688
0.000142474
0.000494833
8.27535e-05
0.000552656
1.89015e-05
0.000586487
-4.59797e-05
0.00059424
-0.000108732
0.000575339
-0.000166133
0.000530699
-0.000215086
0.00046306
-0.000253036
0.000377199
-0.000278391
0.000279611
-0.000290792
0.000177649
-0.000290807
7.80268e-05
-0.000279825
-1.3436e-05
-0.0002603
-9.17722e-05
-0.000234545
-0.000155279