/*--------------------------------*- C++ -*----------------------------------*\
| =========                 |                                                 |
| \\      /  F ield         | OpenFOAM: The Open Source CFD Toolbox           |
|  \\    /   O peration     | Version:  2412                                  |
|   \\  /    A nd           | Website:  www.openfoam.com                      |
|    \\/     M anipulation  |                                                 |
\*---------------------------------------------------------------------------*/
FoamFile
{
    version     2.0;
    format      ascii;
    arch        "LSB;label=32;scalar=64";
    class       volScalarField;
    location    "8.45";
    object      p_rgh;
}
// * * * * * * * * * * * * * * * * * * * * * * * * * * * * * * * * * * * * * //

dimensions      [1 -1 -2 0 0 0 0];

internalField   nonuniform List<scalar> 
6400
(
9851.05
9851.03
9850.97
9850.88
9850.79
9850.7
9850.65
9850.64
9850.7
9850.84
9851.09
9851.45
9851.95
9852.6
9853.39
9854.34
9855.44
9856.68
9858.06
9859.57
9861.19
9862.9
9864.69
9866.52
9868.39
9870.26
9872.13
9873.96
9875.75
9877.49
9879.15
9880.72
9882.2
9883.58
9884.84
9885.97
9886.97
9887.82
9888.5
9889.01
9889.34
9889.46
9889.37
9889.05
9888.49
9887.68
9886.62
9885.3
9883.72
9881.88
9879.84
9877.6
9875.2
9872.69
9870.09
9867.46
9864.86
9862.34
9859.95
9857.77
9855.82
9854.17
9852.85
9851.88
9851.3
9851.1
9851.28
9851.83
9852.7
9853.88
9855.3
9856.88
9858.56
9860.26
9861.89
9863.39
9864.68
9865.71
9866.42
9866.75
9851.04
9851.02
9850.95
9850.85
9850.75
9850.65
9850.58
9850.56
9850.6
9850.73
9850.97
9851.32
9851.79
9852.44
9853.23
9854.18
9855.28
9856.54
9857.93
9859.45
9861.09
9862.82
9864.63
9866.48
9868.37
9870.27
9872.15
9874
9875.81
9877.56
9879.23
9880.82
9882.31
9883.69
9884.97
9886.11
9887.12
9887.98
9888.67
9889.2
9889.54
9889.68
9889.6
9889.29
9888.74
9887.93
9886.87
9885.56
9883.99
9882.07
9880.02
9877.76
9875.32
9872.76
9870.11
9867.42
9864.76
9862.18
9859.75
9857.51
9855.52
9853.82
9852.47
9851.49
9850.9
9850.71
9850.91
9851.48
9852.41
9853.65
9855.12
9856.78
9858.52
9860.29
9861.99
9863.55
9864.89
9865.96
9866.69
9867.04
9851.02
9850.99
9850.91
9850.8
9850.66
9850.54
9850.44
9850.39
9850.41
9850.51
9850.72
9851.06
9851.53
9852.15
9852.92
9853.87
9854.97
9856.24
9857.66
9859.21
9860.88
9862.66
9864.5
9866.4
9868.33
9870.27
9872.2
9874.09
9875.93
9877.7
9879.4
9881.01
9882.52
9883.92
9885.21
9886.38
9887.41
9888.29
9889.02
9889.57
9889.94
9890.1
9890.05
9889.77
9889.24
9888.45
9887.39
9886.05
9884.44
9882.56
9880.42
9878.08
9875.56
9872.9
9870.14
9867.34
9864.56
9861.87
9859.31
9856.97
9854.88
9853.12
9851.71
9850.69
9850.1
9849.92
9850.17
9850.82
9851.82
9853.17
9854.77
9856.56
9858.45
9860.35
9862.18
9863.86
9865.31
9866.46
9867.25
9867.63
9851.01
9850.97
9850.86
9850.71
9850.54
9850.37
9850.23
9850.14
9850.12
9850.18
9850.35
9850.65
9851.09
9851.68
9852.45
9853.38
9854.5
9855.79
9857.24
9858.84
9860.57
9862.4
9864.31
9866.28
9868.28
9870.29
9872.27
9874.22
9876.1
9877.92
9879.65
9881.3
9882.84
9884.27
9885.59
9886.79
9887.85
9888.77
9889.53
9890.13
9890.54
9890.75
9890.74
9890.5
9890
9889.22
9888.16
9886.82
9885.18
9883.24
9881.05
9878.59
9875.94
9873.13
9870.2
9867.23
9864.26
9861.38
9858.65
9856.14
9853.92
9852.03
9850.54
9849.47
9848.85
9848.71
9849.02
9849.77
9850.94
9852.43
9854.22
9856.21
9858.32
9860.44
9862.48
9864.35
9865.96
9867.24
9868.12
9868.54
9851
9850.94
9850.8
9850.6
9850.37
9850.15
9849.95
9849.8
9849.72
9849.72
9849.84
9850.08
9850.48
9851.04
9851.79
9852.72
9853.85
9855.16
9856.66
9858.32
9860.13
9862.05
9864.06
9866.12
9868.21
9870.31
9872.37
9874.39
9876.34
9878.22
9880
9881.68
9883.26
9884.73
9886.09
9887.32
9888.43
9889.39
9890.21
9890.86
9891.34
9891.61
9891.66
9891.47
9891.02
9890.28
9889.23
9887.87
9886.19
9884.19
9881.89
9879.31
9876.47
9873.44
9870.29
9867.08
9863.86
9860.73
9857.75
9855.01
9852.58
9850.53
9848.91
9847.76
9847.12
9847
9847.4
9848.3
9849.66
9851.38
9853.44
9855.72
9858.13
9860.56
9862.89
9865.02
9866.86
9868.33
9869.33
9869.81
9851
9850.93
9850.74
9850.47
9850.16
9849.86
9849.58
9849.36
9849.2
9849.13
9849.18
9849.36
9849.7
9850.21
9850.92
9851.85
9852.99
9854.34
9855.9
9857.65
9859.55
9861.59
9863.73
9865.92
9868.14
9870.34
9872.52
9874.63
9876.66
9878.59
9880.43
9882.16
9883.78
9885.29
9886.7
9887.99
9889.14
9890.17
9891.05
9891.78
9892.34
9892.7
9892.83
9892.72
9892.33
9891.63
9890.61
9889.24
9887.51
9885.43
9883
9880.25
9877.2
9873.89
9870.44
9866.9
9863.35
9859.88
9856.58
9853.54
9850.84
9848.56
9846.78
9845.53
9844.85
9844.77
9845.29
9846.36
9847.96
9849.99
9852.4
9855.07
9857.89
9860.71
9863.42
9865.9
9868.05
9869.77
9870.94
9871.51
9851.04
9850.93
9850.68
9850.31
9849.9
9849.49
9849.12
9848.81
9848.56
9848.41
9848.36
9848.45
9848.71
9849.16
9849.82
9850.73
9851.89
9853.29
9854.93
9856.79
9858.83
9861.03
9863.32
9865.68
9868.05
9870.4
9872.71
9874.93
9877.06
9879.07
9880.97
9882.77
9884.43
9885.96
9887.44
9888.79
9889.99
9891.08
9892.05
9892.87
9893.53
9894
9894.25
9894.23
9893.93
9893.31
9892.33
9890.96
9889.19
9887
9884.42
9881.46
9878.18
9874.45
9870.66
9866.72
9862.74
9858.84
9855.12
9851.68
9848.64
9846.07
9844.07
9842.69
9841.96
9841.93
9842.57
9843.86
9845.76
9848.18
9851.04
9854.21
9857.54
9860.88
9864.07
9867.01
9869.56
9871.6
9873.02
9873.69
9851.14
9850.99
9850.64
9850.13
9849.58
9849.04
9848.56
9848.14
9847.78
9847.52
9847.36
9847.34
9847.49
9847.85
9848.46
9849.34
9850.51
9851.98
9853.72
9855.72
9857.94
9860.33
9862.83
9865.39
9867.97
9870.51
9872.98
9875.33
9877.57
9879.67
9881.61
9883.53
9885.2
9886.78
9888.26
9889.65
9890.92
9892.1
9893.17
9894.12
9894.91
9895.52
9895.91
9896.04
9895.87
9895.35
9894.43
9893.08
9891.26
9888.97
9886.2
9882.98
9879.34
9875.31
9871
9866.54
9862.02
9857.58
9853.32
9849.39
9845.9
9842.97
9840.68
9839.12
9838.33
9838.33
9839.12
9840.69
9842.96
9845.85
9849.27
9853.07
9857.06
9861.05
9864.87
9868.38
9871.44
9873.92
9875.65
9876.47
9851.33
9851.12
9850.62
9849.93
9849.2
9848.49
9847.87
9847.33
9846.86
9846.46
9846.16
9845.99
9846.02
9846.26
9846.77
9847.61
9848.8
9850.33
9852.21
9854.39
9856.84
9859.48
9862.25
9865.08
9867.91
9870.67
9873.33
9875.84
9878.2
9880.41
9882.43
9884.33
9886.06
9887.67
9889.19
9890.61
9891.95
9893.22
9894.41
9895.52
9896.47
9897.26
9897.83
9898.15
9898.15
9897.79
9896.96
9895.64
9893.8
9891.39
9888.42
9884.89
9880.85
9876.37
9871.51
9866.38
9861.2
9856.08
9851.16
9846.6
9842.54
9839.14
9836.5
9834.71
9833.82
9833.86
9834.83
9836.71
9839.43
9842.89
9847
9851.56
9856.38
9861.2
9865.8
9870.04
9873.77
9876.81
9878.94
9879.98
9851.67
9851.38
9850.66
9849.7
9848.72
9847.8
9847.02
9846.35
9845.76
9845.21
9844.75
9844.39
9844.23
9844.3
9844.7
9845.47
9846.66
9848.28
9850.33
9852.75
9855.49
9858.46
9861.57
9864.74
9867.88
9870.92
9873.8
9876.5
9879
9881.28
9883.37
9885.29
9887.04
9888.67
9890.2
9891.66
9893.06
9894.42
9895.72
9897.06
9898.2
9899.2
9900.01
9900.56
9900.78
9900.59
9899.95
9898.73
9896.88
9894.37
9891.16
9887.29
9882.79
9877.73
9872.26
9866.23
9860.28
9854.32
9848.57
9843.23
9838.48
9834.48
9831.39
9829.3
9828.27
9828.35
9829.52
9831.75
9834.99
9839.14
9844.04
9849.56
9855.44
9861.31
9866.89
9872.02
9876.58
9880.39
9883.08
9884.41
9852.22
9851.68
9850.78
9849.43
9848.11
9846.92
9845.94
9845.14
9844.43
9843.74
9843.07
9842.48
9842.09
9841.92
9842.13
9842.8
9844
9845.73
9847.99
9850.73
9853.84
9857.24
9860.79
9864.38
9867.91
9871.29
9874.46
9877.36
9879.99
9882.35
9884.48
9886.4
9888.14
9889.76
9891.29
9892.77
9894.21
9895.66
9897.13
9898.61
9900.02
9901.3
9902.41
9903.28
9903.82
9903.92
9903.5
9902.43
9900.61
9898
9894.55
9890.28
9885.23
9879.48
9873.15
9866.33
9859.31
9852.3
9845.5
9839.18
9833.55
9828.82
9825.16
9822.69
9821.49
9821.58
9822.96
9825.59
9829.39
9834.26
9840.11
9846.74
9853.88
9861.1
9868.05
9874.36
9880.02
9884.82
9888.32
9890.01
9852.85
9848.75
9850.51
9849.13
9847.31
9845.75
9844.52
9843.55
9842.71
9841.9
9841.08
9840.3
9839.54
9839.06
9839
9839.52
9840.71
9842.57
9845.1
9848.23
9851.84
9855.78
9859.89
9864.03
9868.04
9871.87
9875.33
9878.44
9881.21
9883.64
9885.78
9887.67
9889.37
9890.93
9892.41
9893.89
9895.33
9896.86
9898.48
9900.2
9901.9
9903.53
9905.02
9906.3
9907.27
9907.78
9907.69
9906.84
9905.12
9902.43
9898.74
9894.02
9888.33
9881.76
9874.43
9866.55
9858.3
9849.97
9841.87
9834.33
9827.6
9821.95
9817.59
9814.65
9813.22
9813.32
9814.92
9817.96
9822.35
9827.93
9834.61
9842.16
9850.32
9859.31
9868.46
9876.88
9884.09
9890.31
9895.02
9897.15
9852.47
9849.02
9849.33
9848.66
9846.2
9844.15
9842.6
9841.48
9840.55
9839.61
9838.63
9837.54
9836.4
9835.48
9835.08
9835.41
9836.57
9838.6
9841.48
9845.13
9849.39
9854.05
9858.91
9863.76
9868.4
9872.66
9876.48
9879.83
9882.73
9885.2
9887.32
9889.14
9890.73
9892.16
9893.52
9894.85
9896.33
9897.93
9899.72
9901.73
9903.79
9905.83
9907.8
9909.62
9911.15
9912.21
9912.61
9912.1
9910.55
9907.84
9903.89
9898.68
9892.26
9884.72
9876.22
9866.99
9857.28
9847.35
9837.56
9828.51
9820.43
9813.64
9808.41
9804.91
9803.2
9803.29
9805.11
9808.58
9813.54
9819.69
9826.89
9835.52
9845.44
9856.94
9868.47
9879.25
9888.85
9897.06
9903.28
9906.38
9848.09
9850.69
9849.57
9847.52
9844.59
9841.91
9839.81
9838.6
9838.01
9837.23
9835.91
9834.23
9832.43
9830.88
9830.01
9830.11
9831.3
9833.59
9836.96
9841.3
9846.42
9852.03
9857.83
9863.65
9868.99
9873.81
9878.04
9881.64
9884.64
9887.11
9889.15
9890.82
9892.24
9893.47
9894.64
9895.84
9897.21
9898.83
9900.71
9903.19
9905.6
9908.14
9910.71
9913.21
9915.49
9917.3
9918.33
9918.35
9917.11
9914.43
9910.23
9904.48
9897.22
9888.55
9878.66
9867.79
9856.25
9844.53
9832.41
9821.57
9811.8
9803.59
9797.28
9793.07
9791.02
9791.06
9793.11
9797.09
9802.84
9809.98
9818.48
9828.93
9841.55
9855.68
9869.26
9882.64
9894.93
9901.72
9894.53
9908.25
9840.73
9816.65
9835.07
9845.41
9842.28
9838.97
9835.98
9834.58
9835.05
9835.27
9833.67
9830.78
9827.57
9824.75
9823.07
9822.95
9824.33
9827.08
9831.17
9836.51
9842.83
9849.71
9856.69
9863.86
9870.02
9875.51
9880.19
9884.04
9887.1
9889.47
9891.35
9892.8
9893.93
9894.85
9895.71
9896.65
9897.9
9899.53
9901.63
9904.29
9907.25
9910.42
9913.74
9917.12
9920.36
9923.16
9925.12
9925.85
9925.06
9922.48
9918.05
9911.71
9903.5
9893.53
9882
9869.19
9855.32
9841.08
9826.8
9813.43
9801.44
9791.37
9783.66
9778.53
9776
9775.99
9778.48
9783.46
9790.72
9799.84
9810.91
9823.89
9838.74
9855.15
9871.93
9887.78
9902.55
9903.22
9897.57
9908.35
9840.21
9787.3
9783.77
9823.93
9839.74
9835.86
9831.73
9830.11
9832
9834.04
9832.46
9827.87
9822.42
9817.45
9814.13
9813.36
9814.95
9818.46
9823.69
9830.51
9838.55
9847.23
9855.97
9864.34
9871.7
9878
9883.17
9887.22
9890.2
9892.23
9893.94
9895.05
9895.79
9896.31
9896.74
9897.32
9898.29
9899.82
9902.04
9905.01
9908.59
9912.54
9916.78
9921.29
9925.73
9929.86
9933.08
9934.82
9934.51
9932.32
9927.73
9920.79
9911.53
9900.05
9886.62
9871.63
9854.7
9837.62
9820.33
9803.82
9788.94
9776.45
9766.93
9760.68
9757.74
9758.09
9761.81
9768.81
9778.62
9790.67
9804.48
9819.39
9835.61
9853.83
9873.63
9893.46
9908.6
9895.7
9906.95
9939.5
9832.31
9801.09
9774.65
9790.13
9834.69
9834.52
9829.42
9827.29
9829.88
9833.17
9831.6
9825.43
9817.66
9809.84
9803.86
9801.45
9802.81
9807.17
9814
9822.94
9833.41
9844.52
9855.52
9865.65
9874.4
9881.61
9887.28
9891.52
9894.57
9896.29
9897.15
9897.67
9897.89
9897.85
9897.65
9897.62
9898.19
9899.55
9901.88
9905.28
9909.54
9914.34
9919.6
9925.53
9931.41
9937.31
9942.41
9945.81
9946.82
9944.75
9939.9
9932.28
9921.82
9908.56
9892.78
9874.87
9855.11
9834.39
9812.95
9792.31
9773.7
9758.08
9746.37
9739.02
9736.17
9737.94
9744.17
9754.21
9767.11
9781.53
9796.58
9812.45
9829.73
9850.53
9874.8
9900.23
9913.67
9905.54
9920.47
9955.5
9819.25
9809.69
9785.98
9781.42
9818.48
9835.76
9829.67
9827.08
9829.01
9831.18
9828.29
9820.74
9811.17
9801.07
9792.23
9787.36
9787.65
9792.6
9801.33
9813.1
9827.09
9841.48
9855.41
9867.84
9878.19
9886.29
9892.15
9895.97
9898.16
9899.98
9900.73
9900.7
9900.16
9899.34
9898.31
9897.44
9897.47
9898.67
9901.17
9904.99
9909.91
9915.65
9922.13
9929.39
9937.25
9945.44
9953.07
9958.76
9961.13
9959.49
9954.42
9946.13
9934.32
9918.91
9900.29
9878.96
9855.31
9829.95
9803.67
9777.97
9754.59
9735.19
9721.21
9713.34
9711.61
9715.97
9725.41
9738.2
9752.44
9767
9781.2
9798.85
9818.47
9844.28
9876.04
9909.47
9934.28
9923.63
9955.11
9973.16
9794.33
9789.69
9785.96
9796.94
9828.31
9834.52
9828.63
9826.38
9827.27
9826.67
9822.08
9813.09
9801.33
9788.38
9776.43
9769.26
9768.68
9774.61
9785.87
9801.27
9820.27
9839.06
9856.97
9872.34
9884.6
9893.66
9899.72
9903.15
9904.62
9905.05
9905.1
9904.54
9903.08
9901.19
9898.7
9896.46
9895.84
9896.64
9898.84
9902.64
9908.22
9915.38
9923.76
9933.17
9943.5
9954.38
9964.85
9973.29
9977.77
9976.62
9971.2
9962.71
9950.01
9932.57
9910.78
9885.36
9856.65
9825.52
9793.07
9760.94
9731.26
9706.57
9689.42
9681.04
9680.65
9688.06
9701.13
9716.65
9730.86
9743.18
9756.31
9773.08
9794.83
9829.04
9873.18
9917.64
9951.38
9958.69
9972.79
9989.49
8430.65
8471.47
8751.41
8922.18
8929.53
8865.77
8803.54
8798.08
8757.86
8616.79
8439.26
8244.9
8023.96
7877.5
7709.27
7602.58
7601.6
7719.54
7925.42
8198.26
8501.08
8785.07
9021.77
9209.19
9349.52
9439.15
9463.12
9431.86
9364.06
9319.1
9314.39
9324.58
9290.51
9196.92
9099.77
9064.52
9173.14
9326.62
9461.13
9550.27
9601.21
9640.84
9680.81
9726.6
9786.17
9856.73
9924.01
9972.19
9997.01
9999.49
9992.84
9985.85
9973.45
9882.54
9689.56
9436.11
9103.08
8685.19
8179.95
7615.48
7057.14
6592.01
6291.9
6154.63
6159.33
6279.08
6509.18
6782.33
6961.3
7084.85
7257.98
7531.48
7989.33
8544.04
9192.01
9674.88
9883.5
9953.31
9968.32
10001.6
1505.72
1492.85
1733.43
1817.05
1800.95
1714.87
1643.4
1603.71
1620.65
1700.78
1744.84
1704.18
1568.99
1293.56
994.188
840.89
803.756
867.204
1003.57
1216.75
1512.08
1844.58
2169.59
2451.89
2669.05
2823.52
2942.9
3029.42
3077.39
3082.46
3048.99
2998.89
2951.96
2914.2
2882.37
2812.8
2669.19
2535.19
2461.21
2448.59
2521.68
2652.77
2833.17
3062.14
3356.91
3720.78
4134.43
4519.97
4775.98
4819.41
4680.53
4407.09
4009.8
3549.16
3083.74
2598.01
2114.42
1663.36
1252.31
915.845
658.917
474.807
370.678
337.966
344.188
394.785
483.721
550.218
540.895
441.51
375.655
378.933
663.146
1184.21
2171
3518.09
4687.72
5452.21
5815.49
6248.01
1.10898
1.01961
0.881816
0.664686
0.506826
0.491262
0.573176
0.802635
4.89504
1.68983
1.93488
3.72168
5.44257
7.60532
7.00107
5.19763
4.02485
2.92375
2.01956
1.43607
1.24328
1.22986
1.2405
1.25968
1.31539
1.48253
1.03449
1.07582
0.937958
0.864733
0.783746
0.627606
0.436771
0.495678
0.531329
0.539316
0.537496
0.53953
0.560186
0.608609
0.693958
0.803562
0.938511
1.08411
1.21986
1.33478
1.44058
1.59537
1.66528
9.76935
8.81283
2.95763
1.51254
1.52273
1.50413
1.41103
1.31139
1.23919
1.43829
1.90498
2.86033
4.59207
6.18335
6.71775
6.17137
5.29206
4.94024
5.05464
3.75214
1.85229
0.814268
0.62444
0.547401
0.473244
0.384695
0.285128
0.226404
0.342905
0.775078
42.1393
1.12694
1.0443
0.89663
0.693136
0.524683
0.429948
0.434601
0.655022
0.776482
0.916235
1.34492
1.04736
0.534598
0.948138
1.32044
1.07707
1.04349
1.06786
1.10625
1.14707
1.17483
1.19052
1.1754
1.20673
1.34653
1.64573
0.77071
0.704202
0.629643
0.574742
0.495496
0.422159
0.393693
0.397455
0.390644
0.379111
0.376429
0.391452
0.432762
0.507686
0.6156
0.741255
1.14045
1.66377
1.85327
1.70946
1.57606
1.64268
1.59279
1.51585
1.4999
1.51095
1.50981
1.48649
1.41863
1.32204
1.24585
1.17999
1.12713
1.12582
1.16973
1.38701
1.66158
1.75728
1.63593
1.4366
1.30015
1.19339
0.885404
1.42518
1.54346
1.55064
1.32526
0.638585
0.360079
0.291604
0.288206
0.329301
0.40827
0.450367
1.12686
1.01915
0.889129
0.758205
0.637843
0.548374
0.474711
0.535842
0.777031
0.911085
0.446011
0.0680701
0.150179
0.72863
1.3506
0.87667
0.865762
0.926362
1.00276
1.0449
1.06234
1.23041
2.95947
2.92441
2.89105
1.81149
0.774741
0.710525
0.62523
0.558215
0.437104
0.351396
0.300758
0.248443
0.191073
0.145699
0.135174
0.171441
0.251245
0.376267
0.526535
0.678146
1.35393
2.66649
2.80627
3.00075
2.76784
2.3276
2.20089
1.95437
1.99958
1.82019
1.76149
2.515
3.24076
3.12015
2.31008
1.25531
1.06425
0.996866
0.952382
0.950009
0.968765
0.957406
0.903649
0.831307
0.759117
0.681043
0.573656
1.57837
1.94108
1.97656
1.95014
1.78396
0.735499
0.344974
0.343142
0.379852
0.482654
1.53378
1.54699
0.927842
0.849783
0.819382
0.721552
0.639891
0.555376
0.469293
0.600109
0.871262
0.412545
0.0319057
0.109549
0.509902
1.58037
1.71464
1.16441
0.832728
0.901047
0.953635
0.95699
0.934627
1.988
2.95064
1.92051
0.835998
0.803719
0.744378
0.658272
0.539843
0.401874
0.263077
0.13457
0.0190069
-0.065679
-0.111844
-0.106
-0.0160202
0.11907
0.316755
0.466527
0.661843
0.768195
0.864415
2.08846
3.02083
3.50294
3.71139
3.89201
4.01424
4.09549
4.15971
4.17851
4.12741
4.07351
4.02573
3.97744
2.62294
0.914081
0.857986
0.83708
0.815535
0.799213
0.772317
0.730637
0.680271
0.620862
0.551226
0.464748
1.86615
1.95824
1.94535
1.92771
1.87034
1.77561
0.591623
0.433738
0.399834
0.909112
2.29703
1.84824
1.52669
1.36193
1.10445
0.753575
0.698729
0.613585
0.495422
0.472306
0.437758
0.182858
0.0423535
0.0720248
0.681326
1.56715
1.68792
1.80666
1.61927
1.03138
1.13533
0.911332
0.884088
0.889469
0.891405
0.89495
0.889498
0.855288
0.797126
0.70143
0.554741
0.355215
0.129013
-0.0825342
-0.0917137
1.35896
1.65347
1.09496
0.394454
1.42401
1.82663
0.810635
0.655906
0.67837
0.759035
0.835776
0.920382
1.34907
2.48576
3.22451
3.94249
4.05065
4.08246
4.06856
4.03106
3.98915
3.94508
3.90127
3.83412
1.0804
0.702819
0.716289
0.716127
0.707387
0.688678
0.657225
0.614656
0.558304
0.488095
0.399058
1.37143
1.92531
1.91651
0.985061
1.23815
1.77221
1.11499
0.379201
0.39736
0.977644
2.31535
1.74719
1.67521
1.65845
1.35631
0.793292
0.689017
0.61882
0.497289
0.340463
0.191328
0.0899346
0.0488004
0.0586924
0.225029
1.33865
1.6542
1.75403
1.85018
1.93567
1.97449
0.966109
0.864412
0.925865
0.932294
0.950915
0.941475
0.90902
0.840946
0.720169
0.524632
0.258923
-0.0315199
1.1352
1.59175
1.41907
1.32627
1.34242
1.44432
1.62594
1.87998
2.17373
2.14208
0.571233
0.667566
0.752587
0.837125
0.924197
1.03908
1.18557
1.78616
3.81843
3.91544
3.92001
3.91843
3.89795
3.86296
3.82448
3.79564
1.89147
0.551057
0.597555
0.628986
0.63703
0.631199
0.611114
0.577908
0.529191
0.465091
0.3833
0.327601
1.86945
1.22657
0.214018
0.23876
1.20644
1.56641
0.555791
0.400115
0.65019
2.35341
1.46831
1.15142
1.21848
0.743578
0.865327
0.924719
0.586722
0.481759
0.341531
0.205335
0.111853
0.0716966
0.0747728
0.103716
0.233715
1.2288
1.73746
1.82345
1.90338
1.23523
0.722091
1.16999
1.2588
1.21646
1.00576
0.994203
0.946654
0.85738
0.702398
0.457905
0.147438
1.00507
1.61597
1.31575
1.08849
0.963404
0.931239
0.930257
1.29402
1.57365
1.91424
2.25935
1.73762
0.540725
0.639175
0.734242
1.44067
2.15276
2.05089
1.74663
1.20517
1.58814
1.91393
3.44251
3.80939
3.78266
3.74675
3.72207
2.45929
0.431936
0.494733
0.550951
0.576226
0.583473
0.574835
0.552466
0.515709
0.464399
0.400416
0.313723
0.612935
0.355107
0.247621
0.273971
0.299077
1.60421
1.41598
0.417344
0.36209
2.16271
0.606641
0.544052
0.545093
0.542681
0.624584
1.28755
1.09521
0.466505
0.358321
0.247312
0.165271
0.124067
0.119427
0.140177
0.176046
0.226004
0.293811
1.16474
1.71552
0.81933
0.681392
0.83239
1.28262
1.37019
1.18871
1.02533
0.955629
0.836854
0.647388
0.35251
0.348973
1.81919
1.40872
1.09015
0.857948
-0.095773
-1.17235
-1.0354
0.189056
1.34078
1.7082
2.12963
2.3361
0.389815
0.50782
0.929206
2.31464
2.32418
2.30961
2.2753
0.937245
0.288703
0.270793
0.50153
3.65133
3.7047
3.66802
3.65199
2.57661
0.332071
0.415955
0.490875
0.530508
0.548945
0.549993
0.536918
0.511174
0.473334
0.428022
0.37235
0.317987
0.299469
0.30917
0.329181
0.34687
1.02153
1.40735
0.526833
0.395412
1.54347
0.516792
0.507993
0.494027
0.498459
0.500428
0.946984
1.46333
1.34823
0.713564
0.310029
0.246417
0.205991
0.19316
0.203584
0.230689
0.270596
0.321938
0.37794
0.449124
0.639871
0.821858
0.754118
0.833277
1.37486
1.46165
1.02485
0.928837
0.780436
0.560219
0.24468
0.0943912
1.32715
1.30412
0.979042
0.361413
-1.31291
-1.28824
-1.15128
-0.93657
-0.602752
1.61417
2.03071
1.1049
0.263949
0.454839
2.03921
2.18323
2.19821
2.18146
2.14138
0.977878
0.154489
0.153997
0.125495
1.94149
3.63599
3.5954
3.59789
1.76481
0.249351
0.370091
0.453875
0.502545
0.527864
0.535205
0.528522
0.510498
0.482863
0.450586
0.415677
0.380971
0.362492
0.363819
0.374842
0.386055
0.371396
0.630965
0.497794
0.417883
1.81371
0.468017
0.469567
0.465528
0.461933
0.454911
0.478287
1.46986
1.44927
1.41867
1.30531
1.06256
0.540593
0.279424
0.281485
0.3001
0.331229
0.415485
0.477574
0.478736
0.530329
0.610531
0.704344
0.79806
0.868317
1.43459
1.38056
0.86273
0.693996
0.460629
0.14605
-0.219427
-0.404186
0.0842739
0.188398
0.404829
-1.28793
-1.27393
-1.14719
-0.938575
-0.606672
1.64356
2.0282
0.463798
0.12694
1.07987
1.96582
2.0555
2.09001
2.07438
1.28316
0.14986
0.0704342
0.0715216
0.0391579
0.372022
3.41287
3.57325
3.02609
0.257801
0.209476
0.353459
0.438251
0.487946
0.515071
0.52522
0.522133
0.508749
0.487473
0.462488
0.437082
0.413392
0.398418
0.39619
0.40157
0.410804
0.752986
0.466185
0.408744
0.426218
1.87971
0.428077
0.431326
0.430966
0.43702
0.500357
0.471933
1.10566
1.46098
1.44325
1.42519
1.40463
1.38789
1.35098
0.642242
0.426663
1.24838
1.87635
1.89794
1.20473
0.654604
1.56934
2.33829
1.92681
0.785781
0.935389
1.34905
0.768575
0.58991
0.364058
0.0743186
-0.273187
-0.635828
-0.91422
0.262156
0.615926
-1.12937
-1.13337
-1.02688
-0.837299
1.34366
1.83735
2.13564
0.734079
-0.198689
0.961383
1.78767
1.88849
1.6402
0.7493
-0.0224451
0.0128895
0.0350237
0.0342413
0.00449286
0.000726784
0.650798
1.05091
0.126077
0.0730635
0.24766
0.364458
0.437871
0.480571
0.506034
0.516435
0.514852
0.503973
0.486334
0.465405
0.444353
0.425635
0.413533
0.410374
0.414379
0.423614
0.879798
0.985575
0.449344
0.444197
1.10521
0.396951
0.397988
0.396843
0.425738
0.490984
0.455126
0.385665
0.786952
1.16282
1.42315
1.43473
1.42849
1.04556
1.25377
1.82423
1.82604
1.70809
1.85299
2.13609
2.17914
2.2102
2.24842
2.30994
1.88482
0.857667
1.20935
0.648015
0.478384
0.276612
0.0270012
-0.26001
-0.554504
-0.598598
1.80683
-0.265674
-0.867915
-0.882322
-0.801661
-0.411696
1.863
2.05578
2.27227
0.116016
-0.260939
-0.134277
0.155562
0.167059
-0.0533523
-0.0553807
-0.0157155
0.0175637
0.0380251
0.0427546
0.0284987
-0.00645097
-0.0408111
-0.0106026
0.0623627
0.189649
0.304416
0.386376
0.44199
0.47749
0.49851
0.507307
0.505837
0.49631
0.481056
0.46291
0.444857
0.429233
0.419103
0.416548
0.420694
0.429847
0.695865
1.22192
0.547978
0.464284
0.973269
0.369808
0.369248
0.367029
0.38673
0.454116
0.363276
0.334805
0.322617
0.345506
0.423258
0.579752
0.585149
0.366972
0.45773
0.382943
0.333892
0.320114
0.303137
0.388392
0.767122
2.06526
2.15577
2.18053
2.22406
1.27339
0.579938
0.485269
0.36762
0.20303
-0.000897272
-0.229354
-0.446943
1.56986
2.1881
1.30451
-0.518281
-0.573058
-0.505549
2.00319
2.17491
2.33055
1.2682
-0.205987
-0.245873
-0.172839
-0.125993
-0.0902998
-0.05734
-0.022206
0.0136258
0.0435415
0.0657635
0.0790126
0.0823724
0.080116
0.0899014
0.130175
0.197607
0.2763
0.347484
0.403789
0.445293
0.473637
0.490553
0.49727
0.495199
0.486183
0.472473
0.45646
0.440798
0.42769
0.419322
0.417426
0.421928
0.431059
0.441959
1.10301
0.575348
0.479889
1.83626
0.344472
0.343374
0.341478
0.341072
0.339081
0.327108
0.32001
0.313266
0.308279
0.305637
0.305472
0.30801
0.314608
0.32137
0.325791
0.31876
0.305715
0.296709
0.29534
0.272876
0.242307
1.05245
2.08561
2.07578
1.88033
0.429485
0.356286
0.300569
0.143598
-0.0145947
-0.195416
1.04102
2.62179
2.4783
2.39666
2.12003
0.368983
2.29289
2.40297
2.50326
2.52011
-0.165943
-0.0904417
-0.181147
-0.126138
-0.0855775
-0.0491156
-0.014176
0.0190197
0.0506422
0.0782459
0.100992
0.11898
0.133243
0.147976
0.172382
0.21247
0.264261
0.319906
0.369493
0.411704
0.444699
0.46797
0.481613
0.486241
0.483133
0.473941
0.46077
0.445891
0.431708
0.420414
0.413802
0.412999
0.418091
0.428071
0.442998
0.536309
0.659978
0.488799
2.50865
0.336346
0.318736
0.317287
0.315119
0.311149
0.307459
0.303993
0.301987
0.302232
0.304985
0.309917
0.31531
0.321192
0.322532
0.411075
0.472577
0.640664
0.867932
0.985131
0.709255
0.208918
0.172432
1.23515
1.96466
1.52628
0.289499
0.259147
1.17526
0.229923
-0.0183667
-0.149989
2.89553
2.79965
2.70982
2.64811
2.62125
2.61314
2.64413
2.72914
2.82362
0.0496825
-0.152261
0.00175612
-0.103822
-0.074876
-0.0402869
0.0028421
0.0598946
0.0754783
0.0885723
0.113565
0.135201
0.154517
0.172745
0.192892
0.219384
0.254025
0.294457
0.336282
0.377077
0.412357
0.440514
0.46061
0.471933
0.474622
0.469965
0.45976
0.446048
0.431105
0.417324
0.407056
0.401889
0.402332
0.40816
0.418719
0.435431
0.452182
0.65895
0.494789
2.89435
0.316796
0.294901
0.293745
0.292189
0.289594
0.287404
0.285969
0.28657
0.289871
0.296218
0.304638
0.312502
0.317332
0.318638
0.595404
1.99287
3.06479
3.09445
3.04372
2.9891
2.13599
0.136613
0.154528
1.82174
1.58983
0.290654
0.558792
1.34528
1.22524
0.00114451
-0.0632818
2.65481
2.96728
2.89339
2.84109
2.81666
2.84639
2.90805
2.96981
0.309387
-0.193915
-0.0830513
-0.0482172
-0.0484035
-0.0281829
0.00184944
0.0584823
0.118148
0.149287
0.13389
0.145861
0.1656
0.184319
0.202784
0.223107
0.247449
0.27663
0.309577
0.344052
0.37792
0.408602
0.433907
0.451988
0.461507
0.462218
0.455406
0.44326
0.428034
0.411962
0.397579
0.387555
0.383439
0.384998
0.391223
0.401682
0.417927
0.438075
0.458581
0.80679
3.16434
0.293926
0.271539
0.270486
0.26921
0.26747
0.26614
0.265675
0.267204
0.27153
0.279313
0.29051
0.303706
0.313832
0.337499
1.79627
3.16824
3.10833
3.05316
2.9945
2.9338
2.88211
1.39254
0.153391
0.474398
1.4764
1.04841
1.35638
1.35426
1.33412
0.143722
0.0442021
0.329062
3.13061
3.08783
3.05817
3.06248
3.10195
2.88169
0.178711
-0.167905
-0.08765
-0.0338396
-0.00394452
-0.00208877
0.0115604
0.0404825
0.0976297
0.155595
0.184863
0.19578
0.174515
0.191661
0.208327
0.224425
0.242253
0.262929
0.287096
0.314358
0.343561
0.373118
0.400947
0.424695
0.441982
0.44999
0.448142
0.438106
0.422833
0.405069
0.386994
0.371362
0.361065
0.357926
0.360905
0.367736
0.377999
0.393376
0.415053
0.429168
2.65449
3.22536
0.2711
0.2563
0.247042
0.24579
0.244322
0.243219
0.243031
0.244764
0.24933
0.257805
0.271837
0.291116
0.362308
2.26903
3.22364
3.13425
3.06049
2.75206
2.87763
2.86011
2.80994
2.65993
0.170655
0.183994
1.34475
1.35709
1.36671
1.37339
1.37897
1.34051
0.252628
0.28707
0.99255
1.79613
2.61903
1.96095
0.523082
-0.0479859
-0.0474371
-0.0260754
0.0382673
0.0252608
0.0300187
0.0309198
0.0483759
0.0779804
0.13044
0.188243
0.214114
0.20216
0.199733
0.2134
0.226624
0.239241
0.253448
0.270039
0.289656
0.312328
0.337481
0.364002
0.390116
0.413383
0.431364
0.438211
0.432426
0.417075
0.396805
0.375519
0.353824
0.335427
0.324536
0.323115
0.328761
0.337621
0.349099
0.365316
0.387992
0.406436
2.42594
3.28576
0.248186
0.247748
0.223462
0.221838
0.220141
0.218704
0.218091
0.219279
0.223113
0.230694
0.245319
0.292715
2.24964
3.33806
3.25307
2.66819
1.44679
1.0021
0.93048
2.30641
2.74043
2.68487
0.489306
0.084719
1.21425
1.30166
1.35786
1.40687
1.1806
1.3756
1.33777
0.947649
0.444463
0.354733
0.304183
0.271019
0.269486
0.255759
0.942182
0.412905
0.0688782
0.0671597
0.124383
0.37513
0.383272
0.205653
0.160704
0.182084
0.200946
0.210455
0.222287
0.231006
0.239696
0.248222
0.258367
0.270898
0.286445
0.305265
0.327191
0.35156
0.376918
0.400626
0.421927
0.426778
0.413197
0.387447
0.358673
0.442646
0.379855
0.283543
0.270925
0.272624
0.283748
0.298115
0.314384
0.335973
0.36235
0.388671
0.795902
3.34579
0.221611
0.224495
0.200735
0.197455
0.195061
0.192643
0.190664
0.189953
0.190921
0.193682
0.205322
1.26495
3.41133
3.35374
2.72431
1.09161
1.00402
0.911093
0.842081
0.851797
2.02312
2.62484
0.960944
-0.0260849
0.198597
1.28847
1.36416
0.956431
0.991264
1.39054
1.41471
0.961916
0.535551
0.491646
0.455247
0.426599
0.415814
1.0093
1.2219
0.821644
0.0703213
0.227328
1.68081
2.40073
2.55274
1.83357
0.544635
0.200686
0.22018
0.233882
0.240246
0.244055
0.247543
0.251803
0.257866
0.266587
0.278533
0.294046
0.313217
0.335946
0.36131
0.385493
0.413815
0.411991
0.380887
0.397891
0.798445
1.92757
1.83728
0.740023
0.176593
0.188971
0.214584
0.252777
0.278761
0.304505
0.340501
0.374937
0.398941
3.21009
0.182007
0.201499
0.17731
0.172917
0.16938
0.165301
0.160894
0.156677
0.152228
0.145924
0.1827
2.36817
3.41625
3.15593
1.14892
1.06801
0.989321
1.61631
2.66006
2.268
1.2668
1.31414
2.53946
-0.112151
-0.144862
1.23411
1.38873
0.765099
1.32428
1.43914
1.33338
0.657776
0.651279
0.646963
0.770826
0.54309
0.635018
1.2779
1.2736
1.07148
0.0571031
0.568561
2.44929
2.61504
2.75203
2.93528
2.72664
0.690355
0.247129
0.252606
0.253531
0.251502
0.249905
0.249874
0.252208
0.257548
0.266339
0.278911
0.295491
0.316715
0.342718
0.369482
0.421242
0.741023
1.21694
2.13448
1.98334
1.80171
1.7319
1.72767
1.41565
0.132505
0.0995921
0.157152
0.207698
0.267466
0.321407
0.363528
0.396504
1.98207
0.156698
0.172758
0.153736
0.14871
0.143715
0.137447
0.129786
0.12074
0.109043
0.0906941
0.215725
2.86356
3.40169
2.52425
1.13402
1.05226
1.28188
3.02861
2.82767
2.65024
2.58274
2.60324
2.62446
-0.290754
-0.172095
0.089202
0.777736
0.832551
0.554663
0.807205
0.645046
0.72292
0.979056
2.63778
2.66462
2.60842
0.764686
0.758291
1.29499
1.08187
0.0644617
0.288064
1.02805
1.47876
2.07451
3.05259
3.26468
2.94051
0.486419
0.264802
0.258314
0.251536
0.245487
0.241914
0.241249
0.243814
0.249869
0.259654
0.273387
0.29229
0.318614
0.360315
2.21151
3.77136
3.44164
2.61964
1.20523
0.280857
1.24791
1.49033
0.843201
-0.126253
-0.0614421
0.0359515
0.132513
0.230871
0.302525
0.352333
0.394904
2.63946
0.135247
0.134007
0.130734
0.125458
0.118896
0.11023
0.098987
0.0844532
0.0646475
0.0328271
0.309419
3.35622
3.36117
3.32337
1.64099
1.06067
1.82671
3.03673
2.82916
2.63542
2.56325
2.59351
2.67466
-0.193854
-0.167001
-0.0299371
0.655044
0.840581
0.532849
0.604005
0.675869
1.53181
2.74229
2.74215
2.71829
1.29672
0.786683
1.28158
1.31157
0.645647
0.0921231
0.0421639
0.0100664
0.033481
0.0916381
0.789612
3.31149
3.56253
2.29728
0.33565
0.251106
0.241245
0.232804
0.227152
0.224624
0.225207
0.228939
0.235897
0.245906
0.260623
0.306509
1.76729
4.05453
3.89841
1.85133
0.114939
0.00511133
-0.100928