/*--------------------------------*- C++ -*----------------------------------*\
| =========                 |                                                 |
| \\      /  F ield         | OpenFOAM: The Open Source CFD Toolbox           |
|  \\    /   O peration     | Version:  2412                                  |
|   \\  /    A nd           | Website:  www.openfoam.com                      |
|    \\/     M anipulation  |                                                 |
\*---------------------------------------------------------------------------*/
FoamFile
{
    version     2.0;
    format      ascii;
    arch        "LSB;label=32;scalar=64";
    class       surfaceScalarField;
    location    "0.9";
    object      phi;
}
// * * * * * * * * * * * * * * * * * * * * * * * * * * * * * * * * * * * * * //

dimensions      [0 3 -1 0 0 0 0];

oriented        oriented;

internalField   nonuniform List<scalar> 
12640
(
-8.35611e-11
1.66994e-10
1.82965e-10
3.44015e-10
4.37875e-10
3.56187e-10
6.86558e-10
3.42827e-10
9.04519e-10
3.45963e-10
1.07399e-09
3.58998e-10
1.19127e-09
3.71639e-10
1.25668e-09
3.78267e-10
1.27306e-09
3.76977e-10
1.24526e-09
3.67225e-10
1.17999e-09
3.48883e-10
1.08569e-09
3.22394e-10
9.7206e-10
2.88558e-10
8.49451e-10
2.48568e-10
7.28137e-10
2.03836e-10
6.17563e-10
1.5595e-10
5.25568e-10
1.06537e-10
4.57737e-10
5.71996e-11
4.16919e-10
9.42409e-12
4.03033e-10
-3.54655e-11
4.13157e-10
-7.63626e-11
4.41923e-10
-1.12395e-10
4.82126e-10
-1.42958e-10
5.25481e-10
-1.67712e-10
5.63439e-10
-1.86584e-10
5.87976e-10
-1.99755e-10
5.92311e-10
-2.07632e-10
5.71485e-10
-2.1079e-10
5.22789e-10
-2.09937e-10
4.4609e-10
-2.05915e-10
3.43813e-10
-1.99514e-10
2.20834e-10
-1.91515e-10
8.41641e-11
-1.82637e-10
-5.75622e-11
-1.73483e-10
-1.94727e-10
-1.64532e-10
-3.17462e-10
-1.56131e-10
-4.16421e-10
-1.48501e-10
-4.83525e-10
-1.41764e-10
-5.12627e-10
-1.35961e-10
-5.00052e-10
-1.31087e-10
-4.44947e-10
-1.27122e-10
-3.49436e-10
-1.24064e-10
-2.18555e-10
-1.21947e-10
-5.99667e-11
-1.20861e-10
1.16515e-10
-1.20954e-10
2.99572e-10
-1.22433e-10
4.77138e-10
-1.25541e-10
6.37219e-10
-1.30538e-10
7.68722e-10
-1.37662e-10
8.6221e-10
-1.471e-10
9.10563e-10
-1.58944e-10
9.09458e-10
-1.73159e-10
8.57665e-10
-1.89553e-10
7.57125e-10
-2.0776e-10
6.12807e-10
-2.27234e-10
4.32347e-10
-2.47254e-10
2.25527e-10
-2.66947e-10
3.58364e-12
-2.85321e-10
-2.21549e-10
-3.01314e-10
-4.38059e-10
-3.13839e-10
-6.35032e-10
-3.21863e-10
-8.0318e-10
-3.24445e-10
-9.35405e-10
-3.20842e-10
-1.02721e-09
-3.10531e-10
-1.07689e-09
-2.93313e-10
-1.0855e-09
-2.69282e-10
-1.05658e-09
-2.38924e-10
-9.95788e-10
-2.02967e-10
-9.10292e-10
-1.62463e-10
-8.08196e-10
-1.18532e-10
-6.97935e-10
-7.24952e-11
-5.8765e-10
-2.55687e-11
-4.84682e-10
2.08766e-11
-3.95018e-10
6.56619e-11
-3.23022e-10
1.07427e-10
-2.70042e-10
1.44212e-10
-2.32198e-10
1.70833e-10
-1.93297e-10
1.76755e-10
-1.22531e-10
1.5514e-10
1.14208e-10
7.79734e-12
7.48517e-10
3.60391e-10
1.09465e-09
7.78929e-10
1.00238e-09
1.22818e-09
8.94532e-10
1.64425e-09
8.62704e-10
1.98579e-09
8.75433e-10
2.23544e-09
8.96212e-10
2.38724e-09
9.07883e-10
2.44289e-09
9.04053e-10
2.40904e-09
8.82015e-10
2.29686e-09
8.41075e-10
2.12098e-09
7.8182e-10
1.89853e-09
7.05939e-10
1.64789e-09
6.15753e-10
1.38746e-09
5.14016e-10
1.13431e-09
4.0368e-10
9.03055e-10
2.878e-10
7.04795e-10
1.69422e-10
5.46424e-10
5.15388e-11
4.30283e-10
-6.29658e-11
3.54325e-10
-1.71402e-10
3.12618e-10
-2.71341e-10
2.96258e-10
-3.60702e-10
2.9445e-10
-4.37854e-10
2.95746e-10
-5.01658e-10
2.89215e-10
-5.51521e-10
2.65556e-10
-5.87387e-10
2.18015e-10
-6.0972e-10
1.43043e-10
-6.19402e-10
4.06822e-11
-6.17741e-10
-8.52984e-11
-6.06285e-10
-2.27644e-10
-5.86781e-10
-3.76146e-10
-5.61071e-10
-5.1843e-10
-5.31008e-10
-6.40967e-10
-4.98387e-10
-7.30209e-10
-4.64885e-10
-7.73781e-10
-4.32023e-10
-7.61618e-10
-4.01142e-10
-6.86959e-10
-3.73391e-10
-5.47119e-10
-3.49727e-10
-3.43967e-10
-3.30924e-10
-8.408e-11
-3.17586e-10
2.21471e-10
-3.10162e-10
5.57668e-10
-3.08954e-10
9.06407e-10
-3.14134e-10
1.24761e-09
-3.2574e-10
1.56052e-09
-3.43675e-10
1.82505e-09
-3.67695e-10
2.02316e-09
-3.97399e-10
2.14006e-09
-4.32203e-10
2.16527e-09
-4.71326e-10
2.09337e-09
-5.13778e-10
1.92438e-09
-5.5835e-10
1.66387e-09
-6.03625e-10
1.32258e-09
-6.47992e-10
9.15799e-10
-6.89685e-10
4.62375e-10
-7.26826e-10
-1.64452e-11
-7.57493e-10
-4.9839e-10
-7.79791e-10
-9.61517e-10
-7.91944e-10
-1.3856e-09
-7.92372e-10
-1.7533e-09
-7.79804e-10
-2.05119e-09
-7.53344e-10
-2.27041e-09
-7.12598e-10
-2.407e-09
-6.57685e-10
-2.46188e-09
-5.89336e-10
-2.44041e-09
-5.08793e-10
-2.35172e-09
-4.17838e-10
-2.20781e-09
-3.18561e-10
-2.0225e-09
-2.13374e-10
-1.81038e-09
-1.04717e-10
-1.58582e-09
4.76595e-12
-1.36178e-09
1.12425e-10
-1.14898e-09
2.15285e-10
-9.54295e-10
3.10112e-10
-7.79906e-10
3.91215e-10
-6.16715e-10
4.45586e-10
-4.33931e-10
4.44412e-10
-1.72128e-10
3.4877e-10
1.41999e-10
7.19394e-11
1.23779e-09
4.31188e-10
1.76863e-09
8.61558e-10
1.56493e-09
1.33473e-09
1.34578e-09
1.78554e-09
1.26762e-09
2.16446e-09
1.27606e-09
2.44735e-09
1.30858e-09
2.6238e-09
1.33449e-09
2.69269e-09
1.3409e-09
2.6596e-09
1.32206e-09
2.53542e-09
1.27555e-09
2.33521e-09
1.2016e-09
2.0769e-09
1.10216e-09
1.77983e-09
9.80303e-10
1.46349e-09
8.39635e-10
1.14622e-09
6.84079e-10
8.44084e-10
5.17667e-10
5.69932e-10
3.44514e-10
3.32629e-10
1.68741e-10
1.36814e-10
-5.5653e-12
-1.71333e-11
-1.74418e-10
-1.3258e-10
-3.34047e-10
-2.15913e-10
-4.81056e-10
-2.75493e-10
-6.12546e-10
-3.20577e-10
-7.26264e-10
-3.60177e-10
-8.20669e-10
-4.02071e-10
-8.94977e-10
-4.51909e-10
-9.49174e-10
-5.12614e-10
-9.83897e-10
-5.84012e-10
-1.00042e-09
-6.62743e-10
-1.00051e-09
-7.42478e-10
-9.86297e-10
-8.14433e-10
-9.60179e-10
-8.68118e-10
-9.24686e-10
-8.92289e-10
-8.82385e-10
-8.76013e-10
-8.35785e-10
-8.09765e-10
-7.87267e-10
-6.86473e-10
-7.39031e-10
-5.02408e-10
-6.93058e-10
-2.57854e-10
-6.51091e-10
4.25081e-11
-6.14624e-10
3.89547e-10
-5.84902e-10
7.69966e-10
-5.62923e-10
1.16691e-09
-5.49446e-10
1.5609e-09
-5.44991e-10
1.93093e-09
-5.49844e-10
2.2558e-09
-5.64045e-10
2.51548e-09
-5.87382e-10
2.69242e-09
-6.19371e-10
2.77274e-09
-6.59239e-10
2.74724e-09
-7.05908e-10
2.61207e-09
-7.57983e-10
2.36911e-09
-8.13756e-10
2.02589e-09
-8.71221e-10
1.59531e-09
-9.28103e-10
1.09479e-09
-9.81908e-10
5.45389e-10
-1.03e-09
-2.9564e-11
-1.06968e-09
-6.05743e-10
-1.09829e-09
-1.15933e-09
-1.11335e-09
-1.66833e-09
-1.11266e-09
-2.11386e-09
-1.09443e-09
-2.4811e-09
-1.05741e-09
-2.76004e-09
-1.00099e-09
-2.94573e-09
-9.25314e-10
-3.03834e-09
-8.31262e-10
-3.04266e-09
-7.20476e-10
-2.96746e-09
-5.95193e-10
-2.82459e-09
-4.58214e-10
-2.62789e-09
-3.12598e-10
-2.39226e-09
-1.61735e-10
-2.13243e-09
-9.14767e-12
-1.86202e-09
1.41127e-10
-1.59211e-09
2.84702e-10
-1.33033e-09
4.16038e-10
-1.07819e-09
5.2611e-10
-8.27718e-10
5.93135e-10
-5.47923e-10
5.7256e-10
-2.01228e-10
4.07045e-10
1.17266e-10
1.17337e-10
1.65155e-09
4.75452e-10
2.34931e-09
8.81639e-10
2.05562e-09
1.31902e-09
1.73737e-09
1.73348e-09
1.61143e-09
2.08191e-09
1.60729e-09
2.34011e-09
1.64278e-09
2.49664e-09
1.67555e-09
2.54947e-09
1.68758e-09
2.50326e-09
1.67003e-09
2.3682e-09
1.6191e-09
2.15862e-09
1.53449e-09
1.89152e-09
1.41834e-09
1.5852e-09
1.27409e-09
1.25805e-09
1.10587e-09
9.2741e-10
9.18049e-10
6.08673e-10
7.15193e-10
3.14408e-10
5.01928e-10
5.38076e-11
2.82986e-10
-1.6776e-10
6.31331e-11
-3.48658e-10
-1.52872e-10
-4.90719e-10
-3.6042e-10
-5.9852e-10
-5.552e-10
-6.78577e-10
-7.33389e-10
-7.38303e-10
-8.91798e-10
-7.85072e-10
-1.02801e-09
-8.25258e-10
-1.14043e-09
-8.63537e-10
-1.22832e-09
-9.0229e-10
-1.29176e-09
-9.41327e-10
-1.33156e-09
-9.77808e-10
-1.34921e-09
-1.00648e-09
-1.34672e-09
-1.0201e-09
-1.32656e-09
-1.01015e-09
-1.29147e-09
-9.67671e-10
-1.2444e-09
-8.84172e-10
-1.18839e-09
-7.52618e-10
-1.12649e-09
-5.68314e-10
-1.06164e-09
-3.29667e-10
-9.96684e-10
-3.8734e-11
-9.34251e-10
2.98487e-10
-8.76744e-10
6.72064e-10
-8.26296e-10
1.06844e-09
-7.84743e-10
1.47105e-09
-7.53598e-10
1.86117e-09
-7.34024e-10
2.219e-09
-7.26809e-10
2.52482e-09
-7.32346e-10
2.76032e-09
-7.506e-10
2.9097e-09
-7.81095e-10
2.96083e-09
-8.22889e-10
2.90607e-09
-8.74571e-10
2.74287e-09
-9.34262e-10
2.47408e-09
-9.99644e-10
2.10786e-09
-1.068e-09
1.65733e-09
-1.13627e-09
1.13983e-09
-1.20116e-09
5.75954e-10
-1.25921e-09
-1.15554e-11
-1.30695e-09
-5.99189e-10
-1.34105e-09
-1.1639e-09
-1.35842e-09
-1.68449e-09
-1.3564e-09
-2.14263e-09
-1.33292e-09
-2.52395e-09
-1.28658e-09
-2.81849e-09
-1.21682e-09
-3.02117e-09
-1.12396e-09
-3.13158e-09
-1.00925e-09
-3.15376e-09
-8.7475e-10
-3.09538e-09
-7.23283e-10
-2.96704e-09
-5.58156e-10
-2.78134e-09
-3.83119e-10
-2.55185e-09
-2.02096e-10
-2.29221e-09
-1.94949e-11
-2.01497e-09
1.59843e-10
-1.73076e-09
3.30125e-10
-1.44656e-09
4.84418e-10
-1.16495e-09
6.10539e-10
-8.78725e-10
6.80778e-10
-5.64878e-10
6.37574e-10
-2.01416e-10
4.18038e-10
8.15214e-11
1.63368e-10
1.97526e-09
5.35749e-10
2.81144e-09
9.22134e-10
2.45507e-09
1.31446e-09
2.06151e-09
1.67651e-09
1.89169e-09
1.97425e-09
1.86877e-09
2.18667e-09
1.8964e-09
2.30362e-09
1.92526e-09
2.3234e-09
1.93337e-09
2.25097e-09
1.91006e-09
2.09663e-09
1.85044e-09
1.87458e-09
1.75401e-09
1.6013e-09
1.62301e-09
1.29424e-09
1.4612e-09
9.70591e-10
1.27292e-09
6.46496e-10
1.06281e-09
3.36143e-10
8.35558e-10
5.12033e-11
5.96003e-10
-1.99842e-10
3.4906e-10
-4.11932e-10
9.97568e-11
-5.83571e-10
-1.46856e-10
-7.16444e-10
-3.85796e-10
-8.14905e-10
-6.12324e-10
-8.85083e-10
-8.22105e-10
-9.34019e-10
-1.01139e-09
-9.68664e-10
-1.17715e-09
-9.95048e-10
-1.31719e-09
-1.01757e-09
-1.43011e-09
-1.03848e-09
-1.51542e-09
-1.05759e-09
-1.5734e-09
-1.07229e-09
-1.60512e-09
-1.07771e-09
-1.61228e-09
-1.06718e-09
-1.59718e-09
-1.03293e-09
-1.56258e-09
-9.66804e-10
-1.51158e-09
-8.61205e-10
-1.44757e-09
-7.09958e-10
-1.37409e-09
-5.09149e-10
-1.29475e-09
-2.57818e-10
-1.21314e-09
4.15422e-11
-1.13274e-09
3.82735e-10
-1.05685e-09
7.55892e-10
-9.88489e-10
1.14778e-09
-9.30345e-10
1.54242e-09
-8.84696e-10
1.92185e-09
-8.53343e-10
2.26722e-09
-8.37559e-10
2.55988e-09
-8.38035e-10
2.78257e-09
-8.54843e-10
2.92052e-09
-8.87406e-10
2.96249e-09
-9.34489e-10
2.90157e-09
-9.94207e-10
2.7357e-09
-1.06406e-09
2.46796e-09
-1.14099e-09
2.10647e-09
-1.22146e-09
1.66402e-09
-1.30157e-09
1.15739e-09
-1.37718e-09
6.06454e-10
-1.44406e-09
3.30132e-11
-1.49807e-09
-5.40326e-10
-1.53532e-09
-1.09154e-09
-1.55235e-09
-1.60025e-09
-1.54628e-09
-2.04898e-09
-1.51501e-09
-2.42385e-09
-1.45729e-09
-2.71536e-09
-1.37288e-09
-2.91846e-09
-1.26254e-09
-3.03265e-09
-1.12805e-09
-3.06147e-09
-9.72087e-10
-3.01201e-09
-7.9804e-10
-2.894e-09
-6.09865e-10
-2.71908e-09
-4.11757e-10
-2.49988e-09
-2.08272e-10
-2.249e-09
-4.25058e-12
-1.97823e-09
1.94599e-10
-1.69732e-09
3.818e-10
-1.41332e-09
5.49102e-10
-1.12889e-09
6.82706e-10
-8.39848e-10
7.50002e-10
-5.27951e-10
6.85807e-10
-1.81124e-10
4.22506e-10
5.20683e-11
2.16365e-10
2.19002e-09
6.16691e-10
3.12671e-09
9.95182e-10
2.7381e-09
1.35017e-09
2.29433e-09
1.66313e-09
2.0893e-09
1.90956e-09
2.04327e-09
2.07275e-09
2.05463e-09
2.14443e-09
2.07e-09
2.12413e-09
2.06589e-09
2.01783e-09
2.03043e-09
1.83668e-09
1.95846e-09
1.59536e-09
1.84936e-09
1.31046e-09
1.70565e-09
9.98991e-10
1.53118e-09
6.77502e-10
1.33046e-09
3.61113e-10
1.10806e-09
6.30653e-11
8.68669e-10
-2.06012e-10
6.16983e-10
-4.3844e-10
3.57814e-10
-6.29965e-10
9.60589e-11
-7.79684e-10
-1.63323e-10
-8.89902e-10
-4.15418e-10
-9.65446e-10
-6.55481e-10
-1.01295e-09
-8.79104e-10
-1.03982e-09
-1.08237e-09
-1.0534e-09
-1.26196e-09
-1.05998e-09
-1.41536e-09
-1.0642e-09
-1.54075e-09
-1.06847e-09
-1.63719e-09
-1.07275e-09
-1.70453e-09
-1.07451e-09
-1.74342e-09
-1.06899e-09
-1.75523e-09
-1.04959e-09
-1.74202e-09
-1.00861e-09
-1.70642e-09
-9.37966e-10
-1.6516e-09
-8.30102e-10
-1.58111e-09
-6.78849e-10
-1.49885e-09
-4.80252e-10
-1.40889e-09
-2.33242e-10
-1.31541e-09
5.987e-11
-1.22258e-09
3.93161e-10
-1.13441e-09
7.5712e-10
-1.05466e-09
1.13896e-09
-9.86696e-10
1.52321e-09
-9.33395e-10
1.89248e-09
-8.9704e-10
2.22852e-09
-8.79227e-10
2.51328e-09
-8.80793e-10
2.73005e-09
-9.01766e-10
2.86456e-09
-9.41336e-10
2.90599e-09
-9.97854e-10
2.84768e-09
-1.06887e-09
2.68772e-09
-1.15119e-09
2.42916e-09
-1.24099e-09
2.07993e-09
-1.33391e-09
1.65248e-09
-1.42527e-09
1.16313e-09
-1.51018e-09
6.31115e-10
-1.58378e-09
7.76341e-11
-1.64142e-09
-4.75502e-10
-1.67889e-09
-1.00692e-09
-1.69258e-09
-1.49706e-09
-1.67964e-09
-1.929e-09
-1.6382e-09
-2.28952e-09
-1.56739e-09
-2.56949e-09
-1.46749e-09
-2.76425e-09
-1.33987e-09
-2.87336e-09
-1.18697e-09
-2.90042e-09
-1.01211e-09
-2.85222e-09
-8.19318e-10
-2.73824e-09
-6.13022e-10
-2.56963e-09
-3.97948e-10
-2.35847e-09
-1.78912e-10
-2.11688e-09
3.87305e-11
-1.85595e-09
2.48989e-10
-1.58511e-09
4.44691e-10
-1.31097e-09
6.17206e-10
-1.03695e-09
7.51426e-10
-7.60427e-10
8.12281e-10
-4.68262e-10
7.28765e-10
-1.534e-10
4.31364e-10
3.32846e-11
2.72829e-10
2.28302e-09
7.10571e-10
3.27559e-09
1.09109e-09
2.88198e-09
1.41837e-09
2.41563e-09
1.68951e-09
2.18461e-09
1.88962e-09
2.11413e-09
2.00599e-09
2.10279e-09
2.03263e-09
2.0978e-09
1.97058e-09
2.07531e-09
1.82718e-09
2.02372e-09
1.61473e-09
1.93774e-09
1.34876e-09
1.8172e-09
1.04619e-09
1.66464e-09
7.24111e-10
1.4841e-09
3.98595e-10
1.2799e-09
8.42466e-11
1.05647e-09
-2.06499e-10
8.18133e-10
-4.63667e-10
5.69235e-10
-6.80375e-10
3.14146e-10
-8.52971e-10
5.73076e-11
-9.81278e-10
-1.96794e-10
-1.06819e-09
-4.43683e-10
-1.11924e-09
-6.79008e-10
-1.14166e-09
-8.98652e-10
-1.14353e-09
-1.09888e-09
-1.13273e-09
-1.27643e-09
-1.11612e-09
-1.42868e-09
-1.09878e-09
-1.55365e-09
-1.08352e-09
-1.65009e-09
-1.07059e-09
-1.71752e-09
-1.05771e-09
-1.75623e-09
-1.04028e-09
-1.76727e-09
-1.01184e-09
-1.75241e-09
-9.64737e-10
-1.71412e-09
-8.90895e-10
-1.65546e-09
-7.82711e-10
-1.58007e-09
-6.33913e-10
-1.492e-09
-4.40377e-10
-1.39565e-09
-2.008e-10
-1.2956e-09
8.2814e-11
-1.19649e-09
4.04918e-10
-1.10285e-09
7.56447e-10
-1.01896e-09
1.12512e-09
-9.48663e-10
1.49602e-09
-8.9523e-10
1.85236e-09
-8.61222e-10
2.17648e-09
-8.48365e-10
2.45092e-09
-8.57466e-10
2.65955e-09
-8.88353e-10
2.7886e-09
-9.39847e-10
2.82764e-09
-1.00979e-09
2.77036e-09
-1.09508e-09
2.615e-09
-1.19183e-09
2.36468e-09
-1.29542e-09
2.02721e-09
-1.40078e-09
1.61482e-09
-1.5025e-09
1.14342e-09
-1.5951e-09
6.31812e-10
-1.67325e-09
1.00509e-10
-1.73203e-09
-4.29266e-10
-1.76709e-09
-9.36965e-10
-1.77491e-09
-1.40366e-09
-1.75293e-09
-1.81331e-09
-1.69969e-09
-2.15328e-09
-1.61493e-09
-2.41518e-09
-1.49959e-09
-2.59479e-09
-1.35577e-09
-2.69218e-09
-1.18661e-09
-2.71109e-09
-9.96141e-10
-2.65852e-09
-7.88911e-10
-2.54383e-09
-5.69855e-10
-2.37806e-09
-3.43925e-10
-2.17305e-09
-1.16268e-10
-1.9405e-09
1.07742e-10
-1.69123e-09
3.21782e-10
-1.43406e-09
5.18701e-10
-1.17555e-09
6.89559e-10
-9.18986e-10
8.19119e-10
-6.63507e-10
8.70729e-10
-3.9933e-10
7.7058e-10
-1.23722e-10
4.47124e-10
2.61189e-11
3.27976e-10
2.24995e-09
8.07036e-10
3.24969e-09
1.19548e-09
2.8779e-09
1.50174e-09
2.41509e-09
1.73774e-09
2.16911e-09
1.89704e-09
2.07399e-09
1.97084e-09
2.03617e-09
1.9553e-09
2.00601e-09
1.85303e-09
1.96161e-09
1.67279e-09
1.89183e-09
1.4281e-09
1.79236e-09
1.13528e-09
1.66314e-09
8.11871e-10
1.50714e-09
4.74952e-10
1.32815e-09
1.40545e-10
1.13034e-09
-1.77222e-10
9.17612e-10
-4.66265e-10
6.93764e-10
-7.17204e-10
4.62457e-10
-9.23539e-10
2.27353e-10
-1.08219e-09
-7.90053e-12
-1.19338e-09
-2.39601e-10
-1.26057e-09
-4.64061e-10
-1.28976e-09
-6.7764e-10
-1.28877e-09
-8.76836e-10
-1.26621e-09
-1.05837e-09
-1.23057e-09
-1.21931e-09
-1.18923e-09
-1.35716e-09
-1.14783e-09
-1.4699e-09
-1.10965e-09
-1.55617e-09
-1.07545e-09
-1.61522e-09
-1.04336e-09
-1.64704e-09
-1.00918e-09
-1.65236e-09
-9.66791e-10
-1.63263e-09
-9.08829e-10
-1.59009e-09
-8.27459e-10
-1.52765e-09
-7.15234e-10
-1.44885e-09
-5.65958e-10
-1.35781e-09
-3.75483e-10
-1.25906e-09
-1.42375e-10
-1.15742e-09
1.31609e-10
-1.05782e-09
4.41287e-10
-9.65106e-10
7.78076e-10
-8.83874e-10
1.13029e-09
-8.18241e-10
1.48368e-09
-7.71671e-10
1.82222e-09
-7.46806e-10
2.12905e-09
-7.45327e-10
2.38753e-09
-7.67847e-10
2.58231e-09
-8.1385e-10
2.70034e-09
-8.81681e-10
2.73186e-09
-9.68581e-10
2.67103e-09
-1.07078e-09
2.51652e-09
-1.18365e-09
2.27158e-09
-1.30187e-09
1.94409e-09
-1.41965e-09
1.54606e-09
-1.53103e-09
1.09309e-09
-1.63005e-09
6.03403e-10
-1.7111e-09
9.69186e-11
-1.76914e-09
-4.06022e-10
-1.79993e-09
-8.85639e-10
-1.80022e-09
-1.32406e-09
-1.76793e-09
-1.70604e-09
-1.70222e-09
-2.02002e-09
-1.60353e-09
-2.25831e-09
-1.47361e-09
-2.41755e-09
-1.31535e-09
-2.4983e-09
-1.13266e-09
-2.50482e-09
-9.30182e-10
-2.44428e-09
-7.13029e-10
-2.32622e-09
-4.86412e-10
-2.16161e-09
-2.55567e-10
-1.96209e-09
-2.55638e-11
-1.73917e-09
1.98128e-10
-1.50317e-09
4.09444e-10
-1.26265e-09
6.01232e-10
-1.0235e-09
7.64974e-10
-7.8911e-10
8.85579e-10
-5.59218e-10
9.26301e-10
-3.27408e-10
8.12161e-10
-9.3909e-11
4.70577e-10
3.03139e-11
3.77132e-10
2.09577e-09
8.95808e-10
3.05643e-09
1.29306e-09
2.7311e-09
1.5818e-09
2.29741e-09
1.78723e-09
2.04697e-09
1.91059e-09
1.92878e-09
1.94655e-09
1.86198e-09
1.89323e-09
1.80407e-09
1.75466e-09
1.73557e-09
1.54095e-09
1.64741e-09
1.26659e-09
1.53582e-09
9.48742e-10
1.4017e-09
6.05178e-10
1.24789e-09
2.53236e-10
1.07823e-09
-9.13399e-11
8.96274e-10
-4.1453e-10
7.05354e-10
-7.04709e-10
5.08398e-10
-9.52697e-10
3.08195e-10
-1.15244e-09
1.07378e-10
-1.30104e-09
-9.1449e-11
-1.39914e-09
-2.85659e-10
-1.45043e-09
-4.72619e-10
-1.46129e-09
-6.49673e-10
-1.43987e-09
-8.14173e-10
-1.39522e-09
-9.63544e-10
-1.33622e-09
-1.09535e-09
-1.27077e-09
-1.20741e-09
-1.20496e-09
-1.29784e-09
-1.14264e-09
-1.36522e-09
-1.08511e-09
-1.40865e-09
-1.03106e-09
-1.42785e-09
-9.76853e-10
-1.42323e-09
-9.16936e-10
-1.39593e-09
-8.44465e-10
-1.34788e-09
-7.52074e-10
-1.28176e-09
-6.32706e-10
-1.20095e-09
-4.80448e-10
-1.1095e-09
-2.91305e-10
-1.01192e-09
-6.38478e-11
-9.13128e-10
2.00332e-10
-8.18159e-10
4.9639e-10
-7.32018e-10
8.16254e-10
-6.59422e-10
1.14891e-09
-6.04577e-10
1.48094e-09
-5.70961e-10
1.79724e-09
-5.6113e-10
2.08195e-09
-5.76558e-10
2.31949e-09
-6.17527e-10
2.49551e-09
-6.8307e-10
2.59795e-09
-7.70963e-10
2.61788e-09
-8.77801e-10
2.55018e-09
-9.99111e-10
2.394e-09
-1.12955e-09
2.15292e-09
-1.26312e-09
1.83484e-09
-1.39346e-09
1.45164e-09
-1.51407e-09
1.01844e-09
-1.61872e-09
5.52921e-10
-1.70163e-09
7.41014e-11
-1.75781e-09
-3.98523e-10
-1.7833e-09
-8.46358e-10
-1.7753e-09
-1.25251e-09
-1.73231e-09
-1.60302e-09
-1.65426e-09
-1.88725e-09
-1.5424e-09
-2.09866e-09
-1.39936e-09
-2.23458e-09
-1.22884e-09
-2.29638e-09
-1.03549e-09
-2.28866e-09
-8.24609e-10
-2.219e-09
-6.01699e-10
-2.09694e-09
-3.72308e-10
-1.93346e-09
-1.41638e-10
-1.74003e-09
8.52241e-11
-1.52777e-09
3.03179e-10
-1.30668e-09
5.06364e-10
-1.08466e-09
6.88167e-10
-8.67248e-10
8.40574e-10
-6.57193e-10
9.49245e-10
-4.55017e-10
9.78189e-10
-2.56535e-10
8.53047e-10
-6.53788e-11
5.00801e-10
4.51762e-11
4.1626e-10
1.83477e-09
9.67745e-10
2.71648e-09
1.37061e-09
2.46078e-09
1.64247e-09
2.07894e-09
1.8201e-09
1.83445e-09
1.91153e-09
1.69498e-09
1.91453e-09
1.59846e-09
1.8289e-09
1.51101e-09
1.65994e-09
1.41782e-09
1.41867e-09
1.31139e-09
1.12048e-09
1.1898e-09
7.82795e-10
1.05414e-09
4.23729e-10
9.07792e-10
6.03396e-11
7.54035e-10
-2.91651e-10
5.96016e-10
-6.1869e-10
4.36095e-10
-9.0928e-10
2.76297e-10
-1.15468e-09
1.18221e-10
-1.34893e-09
-3.66753e-11
-1.4895e-09
-1.87057e-10
-1.57708e-09
-3.31614e-10
-1.61559e-09
-4.68957e-10
-1.6115e-09
-5.97603e-10
-1.57319e-09
-7.15952e-10
-1.50983e-09
-8.2229e-10
-1.43062e-09
-9.14847e-10
-1.34371e-09
-9.9189e-10
-1.25562e-09
-1.05178e-09
-1.17066e-09
-1.09316e-09
-1.09066e-09
-1.11502e-09
-1.01491e-09
-1.11686e-09
-9.40455e-10
-1.09882e-09
-8.62397e-10
-1.06172e-09
-7.74579e-10
-1.00716e-09
-6.70269e-10
-9.37526e-10
-5.42969e-10
-8.55981e-10
-3.87207e-10
-7.66371e-10
-1.99279e-10
-6.73119e-10
2.21415e-11
-5.81051e-10
2.75563e-10
-4.95189e-10
5.56464e-10
-4.20513e-10
8.57316e-10
-3.61704e-10
1.16785e-09
-3.2289e-10
1.47558e-09
-3.074e-10
1.76649e-09
-3.17553e-10
2.02589e-09
-3.54486e-10
2.2394e-09
-4.1804e-10
2.39388e-09
-5.06702e-10
2.47839e-09
-6.1763e-10
2.485e-09
-7.46737e-10
2.40936e-09
-8.88862e-10
2.2512e-09
-1.03798e-09
2.01439e-09
-1.18747e-09
1.70689e-09
-1.33046e-09
1.34026e-09
-1.4601e-09
9.29173e-10
-1.56991e-09
4.90447e-10
-1.65414e-09
4.22391e-11
-1.70797e-09
-3.97215e-10
-1.72781e-09
-8.10413e-10
-1.71143e-09
-1.18189e-09
-1.65805e-09
-1.49877e-09
-1.5684e-09
-1.75176e-09
-1.44463e-09
-1.93518e-09
-1.29023e-09
-2.0474e-09
-1.10973e-09
-2.09022e-09
-9.08519e-10
-2.06885e-09
-6.92413e-10
-1.9909e-09
-4.67371e-10
-1.86604e-09
-2.3904e-10
-1.70501e-09
-1.26926e-11
-1.51903e-09
2.06916e-10
-1.31885e-09
4.14961e-10
-1.11386e-09
6.06182e-10
-9.11499e-10
7.74566e-10
-7.16486e-10
9.12856e-10
-5.31314e-10
1.00786e-09
-3.5648e-10
1.02486e-09
-1.90333e-10
8.91894e-10
-3.91388e-11
5.36023e-10
6.92742e-11
4.42947e-10
1.48845e-09
1.01633e-09
2.26122e-09
1.41875e-09
2.0953e-09
1.67237e-09
1.78486e-09
1.82387e-09
1.55488e-09
1.88691e-09
1.39672e-09
1.86197e-09
1.27006e-09
1.75041e-09
1.1528e-09
1.55833e-09
1.0344e-09
1.29752e-09
9.10662e-10
9.83522e-10
7.80529e-10
6.34048e-10
6.46396e-10
2.66752e-10
5.11267e-10
-1.01387e-10
3.78444e-10
-4.55296e-10
2.50105e-10
-7.81602e-10
1.27857e-10
-1.06938e-09
1.24751e-11
-1.31003e-09
-9.56134e-11
-1.49801e-09
-1.96348e-10
-1.63079e-09
-2.89784e-10
-1.70929e-09
-3.76033e-10
-1.73735e-09
-4.55099e-10
-1.72152e-09
-5.26801e-10
-1.67004e-09
-5.90698e-10
-1.59214e-09
-6.46065e-10
-1.49699e-09
-6.91896e-10
-1.3929e-09
-7.27034e-10
-1.28658e-09
-7.50171e-10
-1.18271e-09
-7.60097e-10
-1.08354e-09
-7.55793e-10
-9.8898e-10
-7.36619e-10
-8.96696e-10
-7.02452e-10
-8.02545e-10
-6.53826e-10
-7.0111e-10
-5.9202e-10
-5.86396e-10
-5.19109e-10
-4.52563e-10
-4.37962e-10
-2.94682e-10
-3.52174e-10
-1.09422e-10
-2.65951e-10
1.04373e-10
-1.83936e-10
3.45282e-10
-1.10985e-10
6.09103e-10
-5.19107e-11
8.8888e-10
-1.12079e-11
1.17516e-09
7.22746e-12
1.45648e-09
3.56548e-13
1.72e-09
-3.37725e-11
1.95233e-09
-9.58481e-11
2.14043e-09
-1.85178e-10
2.27245e-09
-2.9965e-10
2.33868e-09
-4.35766e-10
2.33219e-09
-5.88763e-10
2.24949e-09
-7.52805e-10
2.09082e-09
-9.21246e-10
1.86034e-09
-1.08693e-09
1.56587e-09
-1.24256e-09
1.21867e-09
-1.381e-09
8.32642e-10
-1.49571e-09
4.23758e-10
-1.58099e-09
8.91489e-12
-1.63235e-09
-3.94815e-10
-1.64664e-09
-7.71456e-10
-1.62226e-09
-1.10676e-09
-1.55921e-09
-1.38936e-09
-1.45905e-09
-1.61097e-09
-1.32483e-09
-1.76712e-09
-1.16087e-09
-1.85674e-09
-9.72524e-10
-1.88238e-09
-7.65816e-10
-1.84932e-09
-5.47114e-10
-1.76537e-09
-3.22638e-10
-1.63993e-09
-9.82426e-11
-1.48354e-09
1.20988e-10
-1.30692e-09
3.30495e-10
-1.12027e-09
5.26007e-10
-9.32436e-10
7.02892e-10
-7.50084e-10
8.55832e-10
-5.77422e-10
9.78704e-10
-4.16251e-10
1.05916e-09
-2.67449e-10
1.06501e-09
-1.30993e-10
9.26996e-10
-1.6313e-11
5.7403e-10
1.00615e-10
4.56184e-10
1.08252e-09
1.0381e-09
1.72759e-09
1.43176e-09
1.66779e-09
1.66481e-09
1.44318e-09
1.7913e-09
1.2345e-09
1.82948e-09
1.05951e-09
1.78202e-09
9.03603e-10
1.65147e-09
7.56368e-10
1.44468e-09
6.13489e-10
1.17344e-09
4.72903e-10
8.53384e-10
3.35941e-10
5.01531e-10
2.05079e-10
1.35274e-10
8.3913e-11
-2.29377e-10
-2.51023e-11
-5.77686e-10
-1.20216e-10
-8.97137e-10
-2.01034e-10
-1.17706e-09
-2.67798e-10
-1.40945e-09
-3.21479e-10
-1.5889e-09
-3.63366e-10
-1.71319e-09
-3.95006e-10
-1.78316e-09
-4.17974e-10
-1.80268e-09
-4.33722e-10
-1.778e-09
-4.43428e-10
-1.71725e-09
-4.47873e-10
-1.62933e-09
-4.47378e-10
-1.52328e-09
-4.41799e-10
-1.40727e-09
-4.30594e-10
-1.28808e-09
-4.12911e-10
-1.17052e-09
-3.87765e-10
-1.05722e-09
-3.54208e-10
-9.48549e-10
-3.11524e-10
-8.42802e-10
-2.59414e-10
-7.36546e-10
-1.98157e-10
-6.25142e-10
-1.28737e-10
-5.03357e-10
-5.2912e-11
-3.66064e-10
2.67671e-11
-2.08922e-10
1.07012e-10
-2.90201e-11
1.8391e-10
1.74604e-10
2.53105e-10
4.00587e-10
3.10025e-10
6.45058e-10
3.50153e-10
9.01672e-10
3.69315e-10
1.16185e-09
3.6398e-10
1.4152e-09
3.31522e-10
1.65016e-09
2.70467e-10
1.85472e-09
1.80664e-10
2.01721e-09
6.3399e-11
2.12719e-09
-7.85762e-11
2.17612e-09
-2.41104e-10
2.15817e-09
-4.18763e-10
2.07059e-09
-6.05097e-10
1.91414e-09
-7.92904e-10
1.69306e-09
-9.74578e-10
1.41503e-09
-1.14248e-09
1.09069e-09
-1.28934e-09
7.33179e-10
-1.40858e-09
3.57252e-10
-1.49472e-09
-2.1392e-11
-1.54359e-09
-3.87265e-10
-1.5526e-09
-7.25724e-10
-1.5208e-09
-1.02417e-09
-1.44895e-09
-1.27239e-09
-1.33947e-09
-1.4635e-09
-1.19622e-09
-1.59373e-09
-1.02436e-09
-1.66293e-09
-8.29956e-10
-1.67378e-09
-6.19652e-10
-1.63188e-09
-4.00219e-10
-1.54472e-09
-1.78218e-10
-1.42153e-09
4.05047e-11
-1.27222e-09
2.50894e-10
-1.10704e-09
4.48793e-10
-9.35465e-10
6.30444e-10
-7.65617e-10
7.91836e-10
-6.03495e-10
9.28769e-10
-4.52596e-10
1.03562e-09
-3.14375e-10
1.10205e-09
-1.89622e-10
1.09728e-09
-8.01178e-11
9.57347e-10
2.61404e-12
6.1228e-10
1.36794e-10
4.56465e-10
6.43733e-10
1.03129e-09
1.1536e-09
1.40672e-09
1.21083e-09
1.616e-09
1.08061e-09
1.71859e-09
8.96821e-10
1.73561e-09
7.06761e-10
1.67137e-09
5.22266e-10
1.52941e-09
3.46392e-10
1.31671e-09
1.79645e-10
1.04507e-09
2.37225e-11
7.29198e-10
-1.19153e-10
3.85571e-10
-2.45109e-10
3.02239e-11
-3.51143e-10
-3.21423e-10
-4.34794e-10
-6.55886e-10
-4.95429e-10
-9.61102e-10
-5.33381e-10
-1.22734e-09
-5.50211e-10
-1.44688e-09
-5.48067e-10
-1.61486e-09
-5.2968e-10
-1.72911e-09
-4.9801e-10
-1.79061e-09
-4.56107e-10
-1.80296e-09
-4.06855e-10
-1.7722e-09
-3.52781e-10
-1.70594e-09
-2.95896e-10
-1.61275e-09
-2.37591e-10
-1.50119e-09
-1.7861e-10
-1.37916e-09
-1.191e-10
-1.25323e-09
-5.87053e-11
-1.12824e-09
3.24077e-12
-1.00698e-09
6.75415e-11
-8.90197e-10
1.34908e-10
-7.76719e-10
2.05749e-10
-6.63778e-10
2.79984e-10
-5.47467e-10
3.5689e-10
-4.23316e-10
4.3501e-10
-2.86903e-10
5.12122e-10
-1.34486e-10
5.85282e-10
3.64271e-11
6.50935e-10
2.26602e-10
7.05091e-10
4.34745e-10
7.43561e-10
6.57346e-10
7.62233e-10
8.88703e-10
7.57369e-10
1.12115e-09
7.25909e-10
1.34544e-09
6.65745e-10
1.55132e-09
5.75963e-10
1.72819e-09
4.57013e-10
1.86582e-09
3.10815e-10
1.95512e-09
1.4077e-10
1.9888e-09
-4.83206e-11
1.96199e-09
-2.50423e-10
1.87267e-09
-4.58522e-10
1.72193e-09
-6.64948e-10
1.51408e-09
-8.61732e-10
1.25636e-09
-1.04102e-09
9.58777e-10
-1.19545e-09
6.33356e-10
-1.31857e-09
2.93668e-10
-1.40512e-09
-4.61799e-11
-1.45139e-09
-3.72122e-10
-1.4553e-09
-6.71276e-10
-1.4166e-09
-9.32362e-10
-1.33679e-09
-1.14674e-09
-1.21907e-09
-1.30842e-09
-1.0681e-09
-1.41473e-09
-8.89758e-10
-1.4658e-09
-6.90771e-10
-1.46479e-09
-4.78282e-10
-1.41696e-09
-2.59489e-10
-1.32973e-09
-4.11068e-11
-1.21159e-09
1.70891e-10
-1.07201e-09
3.71653e-10
-9.20326e-10
5.5733e-10
-7.65332e-10
7.2464e-10
-6.14281e-10
8.7056e-10
-4.72498e-10
9.91296e-10
-3.42853e-10
1.08301e-09
-2.26406e-10
1.1355e-09
-1.23977e-10
1.12198e-09
-3.84405e-11
9.81549e-10
1.69255e-11
6.48892e-10
1.74952e-10
4.43957e-10
1.97539e-10
9.95178e-10
5.74887e-10
1.34141e-09
7.53573e-10
1.52362e-09
7.18826e-10
1.60322e-09
5.60145e-10
1.60309e-09
3.55424e-10
1.52827e-09
1.43885e-10
1.38268e-09
-5.93464e-11
1.17345e-09
-2.47811e-10
9.11453e-10
-4.17837e-10
6.10701e-10
-5.64895e-10
2.85927e-10
-6.85207e-10
-4.77582e-11
-7.75223e-10
-3.76679e-10
-8.33443e-10
-6.88087e-10
-8.59609e-10
-9.71299e-10
-8.55253e-10
-1.21708e-09
-8.22843e-10
-1.41866e-09
-7.65849e-10
-1.57141e-09
-6.88245e-10
-1.67361e-09
-5.94401e-10
-1.72607e-09
-4.88744e-10
-1.7323e-09
-3.75535e-10
-1.69783e-09
-2.58604e-10
-1.6298e-09
-1.41153e-10
-1.53606e-09
-2.5624e-11
-1.42463e-09
8.6352e-11
-1.30285e-09
1.93905e-10
-1.17694e-09
2.96866e-10
-1.0515e-09
3.95521e-10
-9.29371e-10
4.90466e-10
-8.11503e-10
5.82342e-10
-6.97147e-10
6.71607e-10
-5.8409e-10
7.58325e-10
-4.69098e-10
8.41999e-10
-3.48396e-10
9.21457e-10
-2.18233e-10
9.94807e-10
-7.54256e-11
1.05948e-09
8.2126e-11
1.11232e-09
2.55023e-10
1.14976e-09
4.42075e-10
1.1681e-09
6.40162e-10
1.16369e-09
8.44265e-10
1.13332e-09
1.04766e-09
1.0745e-09
1.24228e-09
9.85698e-10
1.41921e-09
8.66621e-10
1.56925e-09
7.18359e-10
1.68362e-09
5.43474e-10
1.75454e-09
3.46005e-10
1.77587e-09
1.31357e-10
1.74367e-09
-9.38835e-11
1.65649e-09
-3.22227e-10
1.51568e-09
-5.45624e-10
1.32533e-09
-7.55852e-10
1.09224e-09
-9.4493e-10
8.25435e-10
-1.10553e-09
5.35835e-10
-1.23138e-09
2.35459e-10
-1.31755e-09
-6.30549e-11
-1.36075e-09
-3.4747e-10
-1.35952e-09
-6.06373e-10
-1.31423e-09
-8.3022e-10
-1.22712e-09
-1.01147e-09
-1.10209e-09
-1.14544e-09
-9.44534e-10
-1.22993e-09
-7.60964e-10
-1.26571e-09
-5.5864e-10
-1.25574e-09
-3.45176e-10
-1.20529e-09
-1.28026e-10
-1.12102e-09
8.58522e-11
-1.01098e-09
2.9053e-10
-8.83613e-10
4.8125e-10
-7.47545e-10
6.5447e-10
-6.10498e-10
8.07625e-10
-4.79044e-10
9.3807e-10
-3.57626e-10
1.04364e-09
-2.48737e-10
1.12028e-09
-1.52938e-10
1.1607e-09
-7.11163e-11
1.13841e-09
-6.71581e-12
1.00011e-09
2.6381e-11
6.81216e-10
2.12374e-10
4.18512e-10
-2.32926e-10
9.27628e-10
2.54384e-11
1.23354e-09
3.2141e-10
1.38514e-09
3.7501e-10
1.44326e-09
2.37095e-10
1.43036e-09
1.72151e-11
1.35154e-09
-2.2012e-10
1.21066e-09
-4.48127e-10
1.01423e-09
-6.56303e-10
7.72501e-10
-8.37925e-10
4.97587e-10
-9.87931e-10
2.03003e-10
-1.10138e-09
-9.83795e-11
-1.17543e-09
-3.93994e-10
-1.20855e-09
-6.73013e-10
-1.20154e-09
-9.25548e-10
-1.15652e-09
-1.1438e-09
-1.07712e-09
-1.32151e-09
-9.67809e-10
-1.45491e-09
-8.33842e-10
-1.54239e-09
-6.80823e-10
-1.58497e-09
-5.14496e-10
-1.58576e-09
-3.40398e-10
-1.54988e-09
-1.63586e-10
-1.48368e-09
1.16118e-11
-1.3943e-09
1.81753e-10
-1.28887e-09
3.44344e-10
-1.17407e-09
4.97816e-10
-1.05545e-09
6.41417e-10
-9.37277e-10
7.75073e-10
-8.22162e-10
8.99115e-10
-7.11133e-10
1.01407e-09
-6.0368e-10
1.12041e-09
-4.98039e-10
1.21831e-09
-3.91521e-10
1.30747e-09
-2.80966e-10
1.387e-09
-1.63204e-10
1.45533e-09
-3.55512e-11
1.51027e-09
1.0376e-10
1.54913e-09
2.55217e-10
1.56881e-09
4.17775e-10
1.5661e-09
5.88746e-10
1.53793e-09
7.63823e-10
1.48167e-09
9.37256e-10
1.3954e-09
1.10216e-09
1.27826e-09
1.25094e-09
1.13057e-09
1.37581e-09
9.54083e-10
1.46934e-09
7.51978e-10
1.52501e-09
5.28898e-10
1.53777e-09
2.90797e-10
1.50442e-09
4.474e-11
1.42398e-09
-2.01397e-10
1.29782e-09
-4.39285e-10
1.12977e-09
-6.60547e-10