/*--------------------------------*- C++ -*----------------------------------*\
| =========                 |                                                 |
| \\      /  F ield         | OpenFOAM: The Open Source CFD Toolbox           |
|  \\    /   O peration     | Version:  2412                                  |
|   \\  /    A nd           | Website:  www.openfoam.com                      |
|    \\/     M anipulation  |                                                 |
\*---------------------------------------------------------------------------*/
FoamFile
{
    version     2.0;
    format      ascii;
    arch        "LSB;label=32;scalar=64";
    class       surfaceScalarField;
    location    "8.16";
    object      alphaPhi0.water;
}
// * * * * * * * * * * * * * * * * * * * * * * * * * * * * * * * * * * * * * //

dimensions      [0 3 -1 0 0 0 0];

oriented        oriented;

internalField   nonuniform List<scalar> 
158920
(
4.13948e-05
-4.13927e-05
8.39815e-05
-4.25742e-05
0.000126739
-4.27498e-05
0.000170579
-4.38358e-05
0.000214291
-4.37106e-05
0.000257829
-4.35367e-05
0.000301376
-4.35479e-05
0.000344933
-4.35576e-05
0.000388513
-4.35811e-05
0.000432075
-4.35641e-05
0.000475614
-4.35411e-05
0.000519157
-4.35432e-05
0.000562694
-4.35382e-05
0.000606212
-4.35184e-05
0.000649702
-4.34909e-05
0.000693175
-4.34733e-05
0.000736636
-4.346e-05
0.000780075
-4.34384e-05
0.000823493
-4.34176e-05
0.00086689
-4.33954e-05
0.000910264
-4.33729e-05
0.000953613
-4.33477e-05
0.000996933
-4.33191e-05
0.00104022
-4.32888e-05
0.00108348
-4.3257e-05
0.00112671
-4.32223e-05
0.00116989
-4.31866e-05
0.00121304
-4.31486e-05
0.00125615
-4.31072e-05
0.00129922
-4.30624e-05
0.00134223
-4.3015e-05
0.0013852
-4.29641e-05
0.00142811
-4.291e-05
0.00147097
-4.28531e-05
0.00151376
-4.27918e-05
0.00155649
-4.27292e-05
0.00159916
-4.2664e-05
0.00164175
-4.25922e-05
0.00168427
-4.25187e-05
0.00172672
-4.2442e-05
0.00176908
-4.23617e-05
0.00181136
-4.22784e-05
0.00185356
-4.21927e-05
0.00189566
-4.20993e-05
0.00193766
-4.20055e-05
0.00197958
-4.19117e-05
0.00202139
-4.1809e-05
0.0020631
-4.1705e-05
0.00210469
-4.15953e-05
0.00214618
-4.14839e-05
0.00218755
-4.1368e-05
0.0022288
-4.12487e-05
0.00226993
-4.11266e-05
0.00231093
-4.09991e-05
0.0023518
-4.08685e-05
0.00239254
-4.07352e-05
0.00243313
-4.05942e-05
0.00247359
-4.04514e-05
0.00251389
-4.03052e-05
0.00255405
-4.01547e-05
0.00259405
-3.99993e-05
0.00263389
-3.98384e-05
0.00267356
-3.96744e-05
0.00271307
-3.95063e-05
0.0027524
-3.9333e-05
0.00279156
-3.91535e-05
0.00283053
-3.89708e-05
0.00286931
-3.87839e-05
0.0029079
-3.85939e-05
0.0029463
-3.83952e-05
0.00298449
-3.81953e-05
0.00302248
-3.7988e-05
0.00306026
-3.7777e-05
0.00309782
-3.75601e-05
0.00313515
-3.73392e-05
0.00317227
-3.71124e-05
0.00320914
-3.68789e-05
0.00324579
-3.66419e-05
0.00328219
-3.6401e-05
0.00331834
-3.61521e-05
0.00335423
-3.58977e-05
0.00338987
-3.56387e-05
0.00342524
-3.53729e-05
0.00346034
-3.51014e-05
0.00349517
-3.48241e-05
0.0035297
-3.45377e-05
0.00356395
-3.42488e-05
0.00359791
-3.3962e-05
0.00363157
-3.36575e-05
0.00366491
-3.33442e-05
0.00369794
-3.30295e-05
0.00373065
-3.27104e-05
0.00376303
-3.23828e-05
0.00379508
-3.20462e-05
0.00382678
-3.17061e-05
0.00385814
-3.13579e-05
0.00388914
-3.10029e-05
0.00391978
-3.06413e-05
0.00395005
-3.0271e-05
0.00397995
-2.98933e-05
0.00400945
-2.95076e-05
0.00403857
-2.91138e-05
0.00406728
-2.87129e-05
0.00409558
-2.83046e-05
0.00412347
-2.78882e-05
0.00415094
-2.74644e-05
0.00417796
-2.7029e-05
0.00420455
-2.65889e-05
0.00423069
-2.61371e-05
0.00425637
-2.56819e-05
0.00428159
-2.52139e-05
0.00430632
-2.47369e-05
0.00433058
-2.4254e-05
0.00435434
-2.37591e-05
0.00437759
-2.32534e-05
0.00440033
-2.27394e-05
0.00442255
-2.22166e-05
0.00444424
-2.16833e-05
0.00446538
-2.11403e-05
0.00448596
-2.05869e-05
0.00450599
-2.00243e-05
0.00452544
-1.94532e-05
0.00454431
-1.88697e-05
0.00456259
-1.82733e-05
0.00458025
-1.7667e-05
0.0045973
-1.70478e-05
0.00461373
-1.64258e-05
0.00462951
-1.57847e-05
0.00464464
-1.5135e-05
0.00465912
-1.44703e-05
0.00467291
-1.37963e-05
0.00468602
-1.31114e-05
0.00469844
-1.24129e-05
0.00471014
-1.17064e-05
0.00472113
-1.09885e-05
0.00473138
-1.02513e-05
0.00474088
-9.49871e-06
0.00474962
-8.74037e-06
0.00475759
-7.96809e-06
0.00476478
-7.18391e-06
0.00477116
-6.38332e-06
0.00477673
-5.57146e-06
0.00478147
-4.74668e-06
0.00478538
-3.90931e-06
0.00478844
-3.05752e-06
0.00479063
-2.19182e-06
0.00479195
-1.31575e-06
0.00479237
-4.24279e-07
0.00479186
5.08404e-07
0.00479042
1.44316e-06
0.00478806
2.35426e-06
0.00478475
3.31394e-06
0.00478048
4.26697e-06
0.00477524
5.24494e-06
0.00476899
6.24408e-06
0.00476175
7.23988e-06
0.00475349
8.26469e-06
0.00474419
9.30252e-06
0.00473384
1.03414e-05
0.00472244
1.14009e-05
0.00470996
1.24822e-05
0.00469639
1.35711e-05
0.00468172
1.46678e-05
0.00466594
1.57802e-05
0.00464903
1.69069e-05
0.00463098
1.80515e-05
0.00461178
1.92033e-05
0.00459141
2.03642e-05
0.00456988
2.15334e-05
0.00454716
2.27192e-05
0.00452324
2.39146e-05
0.00449812
2.51234e-05
0.00447178
2.63386e-05
0.00444422
2.75642e-05
0.00441542
2.87963e-05
0.00438539
3.00323e-05
0.00435411
3.12773e-05
0.00432158
3.25295e-05
0.00428779
3.37851e-05
0.00425275
3.5046e-05
0.00421643
3.63135e-05
0.00417885
3.75843e-05
0.00414
3.88504e-05
0.00409988
4.01151e-05
0.0040585
4.13821e-05
0.00401585
4.26505e-05
0.00397194
4.39133e-05
0.00392677
4.51693e-05
0.00388035
4.64191e-05
0.00383268
4.76646e-05
0.00378378
4.88991e-05
0.00373366
5.01186e-05
0.00368234
5.13248e-05
0.00362982
5.252e-05
0.00357612
5.36981e-05
0.00352126
5.486e-05
0.00346526
5.60011e-05
0.00340814
5.71168e-05
0.00334993
5.82085e-05
0.00329065
5.92751e-05
0.00323034
6.03157e-05
0.00316901
6.1323e-05
0.00310672
6.22954e-05
0.00304349
6.32312e-05
0.00297935
6.41329e-05
0.00291436
6.49935e-05
0.00284855
6.58089e-05
0.00278197
6.65786e-05
0.00271467
6.73022e-05
0.00264669
6.79733e-05
0.0025781
6.85921e-05
0.00250894
6.91561e-05
0.00243927
6.96632e-05
0.00236916
7.01067e-05
0.00229867
7.04903e-05
0.00222786
7.08068e-05
0.00215681
7.10555e-05
0.00208558
7.1231e-05
0.00201424
7.13401e-05
0.00194287
7.13687e-05
0.00187154
7.13278e-05
0.00180034
7.12021e-05
0.00172934
7.09946e-05
0.00165862
7.07152e-05
0.00158828
7.03436e-05
0.00151839
6.9891e-05
0.00144903
6.93551e-05
0.0013803
6.87299e-05
0.00131228
6.80212e-05
0.00124505
6.72282e-05
0.00117869
6.63516e-05
0.00111331
6.5386e-05
0.00104898
6.43324e-05
0.000985781
6.31973e-05
0.000923809
6.1976e-05
0.000863137
6.06752e-05
0.000803846
5.9295e-05
0.000746017
5.78329e-05
0.00068972
5.62999e-05
0.000635034
5.46878e-05
0.000582022
5.30108e-05
0.000530748
5.12702e-05
0.000481276
4.94666e-05
0.000433663
4.76088e-05
0.00038797
4.56912e-05
0.000344246
4.37252e-05
0.000302541
4.17076e-05
0.000262892
3.96477e-05
0.000225335
3.7553e-05
0.000189909
3.54188e-05
0.000156642
3.32627e-05
0.00012556
3.10829e-05
9.66826e-05
2.88814e-05
7.00087e-05
2.66785e-05
4.55393e-05
2.44709e-05
2.32789e-05
2.22588e-05
3.21692e-06
2.00595e-05
-1.44905e-05
1.77059e-05
-3.0119e-05
1.5628e-05
-4.35177e-05
1.33983e-05
-5.47656e-05
1.12471e-05
-6.38455e-05
9.07902e-06
-7.08076e-05
6.96155e-06
-7.56383e-05
4.82955e-06
-7.84035e-05
2.76314e-06
-7.90638e-05
6.57667e-07
-7.78496e-05
-1.21584e-06
-7.46478e-05
-3.20126e-06
-6.9521e-05
-5.12435e-06
-6.25295e-05
-6.98895e-06
-5.37093e-05
-8.81878e-06
-4.31694e-05
-1.05392e-05
-3.0885e-05
-1.22824e-05
-1.68999e-05
-1.39801e-05
-1.401e-06
-1.54908e-05
1.56965e-05
-1.70885e-05
3.43432e-05
-1.86404e-05
5.44409e-05
-2.00974e-05
7.59585e-05
-2.15244e-05
9.88143e-05
-2.28681e-05
0.000122991
-2.4191e-05
0.000148467
-2.54866e-05
0.00017516
-2.66994e-05
0.000203031
-2.78727e-05
0.000231972
-2.89401e-05
0.000261978
-3.00035e-05
0.000293011
-3.10295e-05
0.000325044
-3.20293e-05
0.000357941
-3.28918e-05
0.000391686
-3.37385e-05
0.000426244
-3.45513e-05
0.000461665
-3.54158e-05
0.000497816
-3.61512e-05
0.000534588
-3.67782e-05
0.000571957
-3.73772e-05
0.000609867
-3.79182e-05
0.000648352
-3.84878e-05
0.00068733
-3.89756e-05
0.000726632
-3.92962e-05
0.000766269
-3.96311e-05
0.000806126
-3.98544e-05
0.000846201
-4.00753e-05
0.000886504
-4.03059e-05
0.000926933
-4.04315e-05
0.000967387
-4.04545e-05
0.0010078
-4.0408e-05
0.00104808
-4.02845e-05
0.00108825
-4.01668e-05
0.00112826
-4.00075e-05
0.00116808
-3.98176e-05
0.00120766
-3.95791e-05
0.00124689
-3.92319e-05
0.0012858
-3.8903e-05
0.00132433
-3.85348e-05
0.00136243
-3.80937e-05
0.00140006
-3.76325e-05
0.00143712
-3.70616e-05
0.00147358
-3.64624e-05
0.00150951
-3.59307e-05
0.0015449
-3.53835e-05
0.00157967
-3.47709e-05
0.00161373
-3.40642e-05
0.00164705
-3.33224e-05
0.00167955
-3.25059e-05
0.00171129
-3.17364e-05
0.00174234
-3.10481e-05
0.00177257
-3.02364e-05
0.00180193
-2.9357e-05
0.0018304
-2.8467e-05
0.00185795
-2.75478e-05
0.00188456
-2.66139e-05
0.00191015
-2.55935e-05
0.00193466
-2.45115e-05
0.00195808
-2.34144e-05
0.00198037
-2.2298e-05
0.0020015
-2.11265e-05
0.00202147
-1.99702e-05
0.00204018
-1.87168e-05
0.00205751
-1.73355e-05
0.00207344
-1.59371e-05
0.00208804
-1.4598e-05
0.00210123
-1.31797e-05
0.00211292
-1.16897e-05
0.00212307
-1.01421e-05
0.00213161
-8.5449e-06
0.0021385
-6.88462e-06
0.00214365
-5.16077e-06
0.00214709
-3.43846e-06
0.00214881
-1.72081e-06
0.00214876
4.75834e-08
0.00214682
1.9404e-06
0.00214299
3.82457e-06
0.0021372
5.79191e-06
0.00212949
7.71338e-06
0.00211988
9.61191e-06
0.00210833
1.1554e-05
0.00209479
1.35341e-05
0.00207928
1.551e-05
0.00206176
1.75271e-05
0.00204219
1.95687e-05
0.00202063
2.15615e-05
0.00199708
2.35469e-05
0.00197163
2.54543e-05
0.00194421
2.74203e-05
0.00191482
2.93924e-05
0.0018835
3.1324e-05
0.0018503
3.31921e-05
0.00181528
3.50181e-05
0.00177845
3.68288e-05
0.00173984
3.861e-05
0.00169954
4.03044e-05
0.00165758
4.19628e-05
0.00161405
4.3528e-05
0.00156901
4.50414e-05
0.00152246
4.65448e-05
0.00147447
4.79901e-05
0.00142517
4.92964e-05
0.00137468
5.05006e-05
0.00132313
5.15515e-05
0.00127057
5.25572e-05
0.00121702
5.35489e-05
0.00116254
5.44747e-05
0.0011073
5.52432e-05
0.00105141
5.58866e-05
0.000994958
5.64526e-05
0.000938054
5.69043e-05
0.000880825
5.72304e-05
0.000823367
5.74593e-05
0.000765788
5.75799e-05
0.000708168
5.76201e-05
0.000650619
5.75474e-05
0.000593222
5.7396e-05
0.000536144
5.70767e-05
0.000479442
5.67011e-05
0.000423229
5.62114e-05
0.000367595
5.56335e-05
0.000312656
5.49382e-05
0.000258572
5.40829e-05
0.000205412
5.31588e-05
0.000153288
5.21234e-05
0.000102254
5.10336e-05
5.24499e-05
4.98043e-05
4.00253e-06
4.84472e-05
-4.30362e-05
4.70383e-05
-8.85668e-05
4.55299e-05
-0.000132587
4.40195e-05
-0.000174854
4.22674e-05
-0.000215368
4.05143e-05
-0.000253959
3.85909e-05
-0.000290573
3.66129e-05
-0.00032533
3.47563e-05
-0.000357905
3.25738e-05
-0.000388243
3.03365e-05
-0.000416517
2.82734e-05
-0.000442476
2.59596e-05
-0.000466084
2.36069e-05
-0.000487292
2.1206e-05
-0.000506192
1.8899e-05
-0.000522571
1.63791e-05
-0.000536502
1.39316e-05
-0.000547941
1.14386e-05
-0.00055698
9.03922e-06
-0.000563546
6.56492e-06
-0.000567629
4.08298e-06
-0.000569317
1.68819e-06
-0.000568608
-7.08199e-07
-0.000565722
-2.88671e-06
-0.000560429
-5.29413e-06
-0.000552763
-7.6679e-06
-0.000542875
-9.88805e-06
-0.000530871
-1.20028e-05
-0.000516814
-1.40563e-05
-0.000500694
-1.61209e-05
-0.00048265
-1.8045e-05
-0.000462741
-1.99096e-05
-0.000441037
-2.17029e-05
-0.000417746
-2.32901e-05
-0.00039286
-2.48842e-05
-0.000366624
-2.62339e-05
-0.000338923
-2.76995e-05
-0.00031004
-2.88816e-05
-0.000279943
-3.00958e-05
-0.000248768
-3.11751e-05
-0.000216695
-3.20733e-05
-0.000183862
-3.28325e-05
-0.000150336
-3.35266e-05
-0.000116343
-3.3993e-05
-8.19404e-05
-3.44019e-05
-4.72015e-05
-3.47387e-05
-1.21957e-05
-3.50056e-05
2.28983e-05
-3.50941e-05
5.78827e-05
-3.49846e-05
9.27001e-05
-3.48178e-05
0.000127188
-3.44877e-05
0.000161251
-3.4063e-05
0.000194707
-3.3456e-05
0.000227557
-3.28501e-05
0.000259724
-3.21674e-05
0.000290989
-3.12656e-05
0.000321212
-3.02239e-05
0.000350498
-2.92874e-05
0.000378491
-2.79934e-05
0.00040509
-2.65989e-05
0.000430305
-2.52161e-05
0.000454115
-2.3812e-05
0.000476282
-2.2169e-05
0.000496877
-2.05974e-05
0.0005158
-1.89248e-05
0.00053295
-1.71521e-05
0.000548309
-1.53602e-05
0.000561757
-1.34506e-05
0.000573399
-1.1643e-05
0.000583161
-9.76363e-06
0.000590952
-7.79181e-06
0.000596763
-5.8109e-06
0.000600668
-3.90449e-06
0.00060268
-2.01154e-06
0.000602749
-6.92413e-08
0.000600939
1.8103e-06
0.000597301
3.63767e-06
0.000591888
5.41207e-06
0.000584764
7.1241e-06
0.000576047
8.71786e-06
0.000565744
1.03041e-05
0.000553956
1.17899e-05
0.000540836
1.31206e-05
0.000526396
1.4442e-05
0.000510729
1.56681e-05
0.000494095
1.66349e-05
0.000476475
1.76207e-05
0.000458083
1.83923e-05
0.000438972
1.91111e-05
0.000419319
1.96536e-05
0.000399202
2.01173e-05
0.000378785
2.04183e-05
0.000358133
2.06524e-05
0.000337366
2.07676e-05
0.000316656
2.07093e-05
0.000296068
2.05878e-05
0.000275725
2.03429e-05
0.000255677
2.00474e-05
0.000236065
1.96121e-05
0.000216964
1.91e-05
0.000198478
1.84853e-05
0.000180612
1.78665e-05
0.000163366
1.72459e-05
0.000146926
1.64402e-05
0.000131254
1.56718e-05
0.000116434
1.48193e-05
0.000102461
1.39725e-05
8.92514e-05
1.32086e-05
7.69237e-05
1.23273e-05
6.54007e-05
1.15226e-05
5.47226e-05
1.06776e-05
4.48258e-05
9.89594e-06
3.56945e-05
9.13028e-06
2.73277e-05
8.36575e-06
1.96933e-05
7.63332e-06
1.28579e-05
6.8345e-06
6.73303e-06
6.12405e-06
1.32341e-06
5.4088e-06
-3.3786e-06
4.70112e-06
-7.39715e-06
4.01757e-06
-1.07549e-05
3.3566e-06
-1.34329e-05
2.67678e-06
-1.54256e-05
1.99138e-06
-1.68833e-05
1.45666e-06
-1.764e-05
7.5584e-07
-1.78881e-05
2.47701e-07
-1.75111e-05
-3.77451e-07
-1.65979e-05
-9.14024e-07
-1.51711e-05
-1.42779e-06
-1.32314e-05
-1.94025e-06
-1.08352e-05
-2.39603e-06
-7.99997e-06
-2.83439e-06
-4.79625e-06
-3.20273e-06
-1.29668e-06
-3.49895e-06
2.45181e-06
-3.74821e-06
6.374e-06
-3.92192e-06
1.04695e-05
-4.09496e-06
1.47526e-05
-4.28228e-06
1.9142e-05
-4.38873e-06
2.37139e-05
-4.5715e-06
2.83628e-05
-4.64875e-06
3.31349e-05
-4.77193e-06
3.79284e-05
-4.79318e-06
4.27487e-05
-4.81974e-06
4.75027e-05
-4.75356e-06
5.22929e-05
-4.78994e-06
5.71335e-05
-4.84066e-06
6.1968e-05
-4.83473e-06
6.67539e-05
-4.78594e-06
7.14551e-05
-4.70105e-06
7.60333e-05
-4.57807e-06
8.03545e-05
-4.32115e-06
8.43388e-05
-3.98443e-06
8.79117e-05
-3.57305e-06
9.12061e-05
-3.29464e-06
9.4324e-05
-3.11781e-06
9.71999e-05
-2.87571e-06
9.97895e-05
-2.58946e-06
0.000102028
-2.2382e-06
0.000103774
-1.74579e-06
0.000105107
-1.33282e-06
0.00010601
-9.03305e-07
0.000106481
-4.71086e-07
0.000106469
1.23866e-08
0.000106082
3.86594e-07
0.000105279
8.0354e-07
0.000103991
1.28817e-06
0.000102218
1.77284e-06
9.9959e-05
2.25861e-06
9.70887e-05
2.8702e-06
9.36574e-05
3.43107e-06
8.97051e-05
3.95202e-06
8.49926e-05
4.71234e-06
7.94052e-05
5.58714e-06
7.20381e-05
7.36682e-06
6.37944e-05
8.24347e-06
5.2949e-05
1.08453e-05
3.9172e-05
1.37768e-05
3.53547e-05
3.81701e-06
5.03128e-05
-1.49583e-05
5.88213e-05
-8.5088e-06
5.24995e-05
6.32143e-06
3.94354e-05
1.30639e-05
3.54496e-05
3.98562e-06
5.14346e-05
-1.59853e-05
5.92751e-05
-7.84073e-06
4.81934e-05
1.10815e-05
3.51183e-05
1.30748e-05
2.4728e-05
1.03901e-05
1.5752e-05
8.97566e-06
8.07014e-06
7.68159e-06
1.42155e-06
6.64829e-06
-4.4784e-06
5.8997e-06
-9.8312e-06
5.35261e-06
-1.48161e-05
4.98473e-06
-1.95543e-05
4.73787e-06
-2.4121e-05
4.56647e-06
-2.85481e-05
4.42689e-06
-3.27413e-05
4.19293e-06
-3.66966e-05
3.95516e-06
-4.0431e-05
3.7342e-06
-4.38039e-05
3.37283e-06
-4.70477e-05
3.24388e-06
-4.99491e-05
2.90157e-06
-5.24661e-05
2.51723e-06
-5.46383e-05
2.1724e-06
-5.63911e-05
1.75311e-06
-5.78246e-05
1.43371e-06
-5.89223e-05
1.09815e-06
-5.96194e-05
6.9761e-07
-5.9947e-05
3.28015e-07
-5.9785e-05
-1.61591e-07
-5.92549e-05
-5.29718e-07
-5.85109e-05
-7.43479e-07
-5.74804e-05
-1.0301e-06
-5.61328e-05
-1.34689e-06
-5.44272e-05
-1.70507e-06
-5.23144e-05
-2.1124e-06
-4.9944e-05
-2.37015e-06
-4.74446e-05
-2.49892e-06
-4.49373e-05
-2.50681e-06
-4.21913e-05
-2.74554e-06
-3.91166e-05
-3.0745e-06
-3.58051e-05
-3.31128e-06
-3.24226e-05
-3.38217e-06
-2.9002e-05
-3.42026e-06
-2.5541e-05
-3.46065e-06
-2.21236e-05
-3.41707e-06
-1.87473e-05
-3.37607e-06
-1.55572e-05
-3.18993e-06
-1.26153e-05
-2.94185e-06
-9.95764e-06
-2.65769e-06
-7.68469e-06
-2.27289e-06
-5.86354e-06
-1.82103e-06
-4.52483e-06
-1.33856e-06
-4.11076e-06
-4.13927e-07
-4.42453e-06
3.13866e-07
-5.07873e-06
6.54298e-07
-6.37635e-06
1.29771e-06
-8.24466e-06
1.86838e-06
-1.07377e-05
2.49311e-06
-1.39815e-05
3.24379e-06
-1.7921e-05
3.93942e-06
-2.25864e-05
4.66542e-06
-2.79845e-05
5.39807e-06
-3.41631e-05
6.17861e-06
-4.09657e-05
6.80251e-06
-4.84674e-05
7.50172e-06
-5.68267e-05
8.35936e-06
-6.61688e-05
9.34216e-06
-7.63441e-05
1.01753e-05
-8.74239e-05
1.10802e-05
-9.92312e-05
1.18069e-05
-0.000111639
1.24079e-05
-0.000124873
1.32346e-05
-0.00013903
1.41571e-05
-0.000154213
1.51832e-05
-0.000170582
1.63696e-05
-0.000187921
1.73388e-05
-0.000205675
1.77534e-05
-0.000223757
1.80828e-05
-0.000242507
1.87495e-05
-0.000261894
1.9387e-05
-0.000282056
2.01631e-05
-0.000302648
2.05933e-05
-0.000323417
2.07688e-05
-0.000344237
2.08189e-05
-0.000365111
2.08742e-05
-0.000385871
2.07592e-05
-0.000406509
2.0638e-05
-0.000426714
2.02069e-05
-0.000446398
1.96844e-05
-0.000465301
1.89024e-05
-0.000483046
1.7743e-05
-0.000499708
1.66619e-05
-0.000515237
1.55293e-05
-0.000529464
1.42263e-05
-0.000542152
1.26879e-05
-0.000553123
1.09731e-05
-0.000562258
9.13404e-06
-0.000569207
6.94791e-06
-0.000574077
4.86852e-06
-0.000576663
2.58486e-06
-0.000576696
3.19253e-08
-0.000574123
-2.57335e-06
-0.000569278
-4.84578e-06
-0.000561842
-7.43733e-06
-0.000551857
-9.98346e-06
-0.00053932
-1.25391e-05
-0.000523851
-1.54733e-05
-0.000505377
-1.84758e-05
-0.000484086
-2.12929e-05
-0.000460554
-2.35298e-05
-0.000434665
-2.58905e-05
-0.000406516
-2.81514e-05
-0.000375792
-3.07275e-05
-0.000342673
-3.31204e-05
-0.00030747
-3.52043e-05
-0.0002705
-3.69713e-05
-0.000232019
-3.84812e-05
-0.000191997
-4.00213e-05
-0.000150753
-4.12448e-05
-0.000108656
-4.20974e-05
-6.53191e-05
-4.33377e-05
-2.12256e-05
-4.40941e-05
2.30824e-05
-4.43084e-05
6.72455e-05
-4.41636e-05
0.000111166
-4.39213e-05
0.000154658
-4.34915e-05
0.00019743
-4.27715e-05
0.000239428
-4.19987e-05
0.000280101
-4.06726e-05
0.000319119
-3.90192e-05
0.000356255
-3.7137e-05
0.000391417
-3.5162e-05
0.000424537
-3.31189e-05
0.000455393
-3.08565e-05
0.000483674
-2.82808e-05
0.000508836
-2.51625e-05
0.000530807
-2.19754e-05
0.000549374
-1.85677e-05
0.000564835
-1.54602e-05
0.000576868
-1.20278e-05
0.000585305
-8.43667e-06
0.000589884
-4.57836e-06
0.000590577
-6.92967e-07
0.000587322
3.25622e-06
0.00058018
7.13995e-06
0.000569191
1.09888e-05
0.000554416
1.47773e-05
0.000535864
1.85572e-05
0.000513356
2.25105e-05
0.000486883
2.64764e-05
0.000456567
3.03189e-05
0.000422609
3.39594e-05
0.000385028
3.75812e-05
0.000343942
4.10894e-05
0.000299574
4.43702e-05
0.000252044
4.75328e-05
0.00020148
5.05669e-05
0.000147708
5.37728e-05
9.11586e-05
5.65501e-05
3.20358e-05
5.91228e-05
-2.9516e-05
6.15528e-05
-9.35199e-05
6.40054e-05
-0.000159715
6.61957e-05
-0.000227912
6.81955e-05
-0.000297805
6.98933e-05
-0.000369286
7.14821e-05
-0.000442343
7.30577e-05
-0.000516766
7.44245e-05
-0.000592334
7.55686e-05
-0.000668784
7.64519e-05
-0.000745848
7.7066e-05
-0.000823339
7.7493e-05
-0.000901105
7.77679e-05
-0.000978856
7.77517e-05
-0.00105635
7.74973e-05
-0.00113337
7.70184e-05
-0.0012097
7.63308e-05
-0.00128514
7.5444e-05
-0.00135941
7.4267e-05
-0.00143224
7.2824e-05
-0.00150343
7.11952e-05
-0.00157279
6.93526e-05
-0.00164016
6.73764e-05
-0.00170532
6.5151e-05
-0.00176803
6.27203e-05
-0.00182814
6.01029e-05
-0.00188539
5.72364e-05
-0.00193958
5.41926e-05
-0.00199072
5.11351e-05
-0.00203879
4.80754e-05
-0.00208365
4.48547e-05
-0.00212515
4.14942e-05
-0.00216321
3.80663e-05
-0.00219781
3.46062e-05
-0.00222893
3.11208e-05
-0.00225645
2.7518e-05
-0.00228033
2.38695e-05
-0.00230055
2.02266e-05
-0.00231711
1.65557e-05
-0.00233009
1.29818e-05
-0.00233946
9.37216e-06
-0.00234521
5.7471e-06
-0.00234729
2.08166e-06
-0.00234573
-1.54782e-06
-0.00234063
-5.0942e-06
-0.00233198
-8.65058e-06
-0.00231978
-1.22065e-05
-0.0023041
-1.56748e-05
-0.00228508
-1.90224e-05
-0.00226278
-2.2297e-05
-0.00223731
-2.54775e-05
-0.00220876
-2.85534e-05
-0.00217726
-3.14902e-05
-0.00214291
-3.43542e-05
-0.00210581
-3.70984e-05
-0.0020661
-3.97043e-05
-0.00202397
-4.21306e-05
-0.00197955
-4.44111e-05
-0.00193286
-4.66865e-05
-0.00188406
-4.88033e-05
-0.00183318
-5.08883e-05
-0.00178031
-5.28666e-05
-0.0017257
-5.46171e-05
-0.00166941
-5.62905e-05
-0.00161143
-5.79829e-05
-0.00155187
-5.95576e-05
-0.00149083
-6.10421e-05
-0.00142845
-6.23795e-05
-0.00136483
-6.36159e-05
-0.00130007
-6.476e-05
-0.0012343
-6.57674e-05
-0.00116755
-6.67578e-05
-0.00110015
-6.73959e-05
-0.00103221
-6.79448e-05
-0.000963982
-6.82274e-05
-0.000895654
-6.833e-05
-0.000827361
-6.82939e-05
-0.000759609
-6.77513e-05
-0.000692559
-6.70494e-05
-0.00062626
-6.6303e-05
-0.00056113
-6.51308e-05
-0.000497384
-6.37476e-05
-0.000435135
-6.22539e-05
-0.000374868
-6.02715e-05
-0.000316709
-5.81615e-05
-0.000260814
-5.58967e-05
-0.000207429
-5.3387e-05
-0.000156803
-5.06288e-05
-0.000109023
-4.778e-05
-6.4369e-05
-4.46521e-05
-2.27855e-05
-4.15816e-05
1.52696e-05
-3.80554e-05
4.97737e-05
-3.45057e-05
8.05651e-05
-3.07938e-05
0.000107452
-2.68899e-05
0.000130311
-2.28617e-05
0.000149033
-1.87236e-05
0.000163549
-1.45161e-05
0.000173579
-1.00294e-05
0.000179077
-5.49679e-06
0.000179881
-8.02842e-07
0.000176057
3.82644e-06
0.000167441
8.61723e-06
0.000153689
1.37538e-05
0.000135172
1.85197e-05
0.000111427
2.37436e-05
8.24964e-05
2.89282e-05
4.85773e-05
3.39186e-05
9.49201e-06
3.90883e-05
-3.44829e-05
4.39767e-05
-8.35933e-05
4.91095e-05
-0.000137733
5.4139e-05
-0.000196745
5.90155e-05
-0.000260532
6.37935e-05
-0.00032904
6.85129e-05
-0.000402084
7.30451e-05
-0.000479494
7.74093e-05
-0.000561053
8.15591e-05
-0.000646549
8.54967e-05
-0.000735753
8.92025e-05
-0.000828428
9.26727e-05
-0.000924316
9.58855e-05
-0.00102313
9.88173e-05
-0.00112459
0.000101451
-0.00122836
0.000103775
-0.00133416
0.000105804
-0.0014417
0.000107539
-0.00155069
0.000108993
-0.00166084
0.00011015
-0.00177186
0.000111023
-0.00188346
0.000111606
-0.00199534
0.00011188
-0.00210724
0.000111899
-0.00221892
0.000111685
-0.00233014
0.000111218
-0.00244065
0.000110514
-0.00255021
0.000109556
-0.0026586
0.000108384
-0.00276561
0.000107007
-0.00287106
0.000105452
-0.0029748
0.000103732
-0.00307664
0.000101842
-0.00317646
9.98095e-05
-0.00327408
9.76203e-05
-0.00336937
9.52935e-05
-0.00346221
9.28395e-05
-0.0035525
9.02819e-05
-0.00364011
8.76051e-05
-0.00372495
8.48393e-05
-0.00380693
8.19768e-05
-0.00388598
7.90569e-05
-0.00396206
7.60807e-05
-0.00403512
7.30552e-05
-0.0041051
6.99796e-05
-0.00417194
6.6847e-05
-0.00423562
6.3676e-05
-0.00429611
6.04831e-05
-0.00435337
5.72604e-05
-0.0044074
5.40314e-05
-0.00445818
5.07878e-05
-0.00450576
4.75746e-05
-0.00455013
4.43738e-05
-0.00459129
4.11579e-05
-0.00462925
3.79615e-05
-0.00466402
3.47794e-05
-0.00469562
3.15947e-05
-0.00472409
2.84739e-05
-0.00474947
2.53782e-05
-0.00477178
2.23063e-05
-0.00479102
1.92478e-05
-0.00480727
1.62511e-05
-0.00482057
1.33013e-05
-0.00483093
1.03687e-05
-0.00483845
7.52532e-06
-0.00484315
4.69579e-06
-0.00484508
1.93418e-06
-0.00484423
-8.55474e-07
-0.0048407
-3.52777e-06
-0.00483453
-6.16922e-06
-0.00482579
-8.73903e-06
-0.00481449
-1.12908e-05
-0.00480069
-1.37968e-05
-0.00478445
-1.62399e-05
-0.00476585
-1.85985e-05
-0.00474492
-2.09368e-05
-0.00472168
-2.32326e-05
-0.0046962
-2.5488e-05
-0.00466855
-2.76423e-05
-0.00463877
-2.97772e-05
-0.00460688
-3.18907e-05
-0.00457296
-3.3922e-05
-0.00453703
-3.59266e-05
-0.00449917
-3.78636e-05
-0.00445942
-3.97408e-05
-0.00441783
-4.15988e-05
-0.00437439
-4.34363e-05
-0.00432918
-4.52111e-05
-0.00428226
-4.69172e-05
-0.00423369
-4.85735e-05
-0.00418348
-5.02041e-05
-0.0041317
-5.17853e-05
-0.00407834
-5.33546e-05
-0.00402347
-5.48782e-05
-0.00396715
-5.63119e-05
-0.00390938
-5.77763e-05
-0.00385026
-5.91184e-05
-0.00378977
-6.04857e-05
-0.00372799
-6.17875e-05
-0.0036649
-6.30835e-05
-0.00360056
-6.43393e-05
-0.00353505
-6.55133e-05
-0.00346836
-6.66913e-05
-0.00340051
-6.78476e-05
-0.00333156
-6.8957e-05
-0.00326156
-6.99953e-05
-0.00319053
-7.10333e-05
-0.00311848
-7.20537e-05
-0.00304545
-7.3029e-05
-0.00297148
-7.39755e-05
-0.00289657
-7.49073e-05
-0.0028208
-7.57666e-05
-0.00274418
-7.66282e-05
-0.00266673
-7.74516e-05
-0.00258847
-7.82535e-05
-0.00250942
-7.90504e-05
-0.00242968
-7.97423e-05
-0.00234923
-8.04537e-05
-0.00226807
-8.11618e-05
-0.00218621
-8.18538e-05
-0.00210376
-8.24552e-05
-0.0020207
-8.30639e-05
-0.00193704
-8.36537e-05
-0.00185284
-8.42055e-05
-0.00176809
-8.47442e-05
-0.00168285
-8.52479e-05
-0.00159712
-8.5733e-05
-0.00151092
-8.61967e-05
-0.00142426
-8.66591e-05
-0.00133721
-8.70498e-05
-0.00124978
-8.74339e-05
-0.00116197
-8.78083e-05
-0.00107381
-8.8159e-05
-0.000985341
-8.84725e-05
-0.000896578
-8.87635e-05
-0.000807544
-8.90364e-05
-0.000718233
-8.93137e-05
-0.000628678
-8.95578e-05
-0.00053897
-8.97104e-05
-0.000449266
-8.9705e-05
-0.000358908
-9.03582e-05
-0.000267284
-9.16253e-05
-0.000177749
-8.95371e-05
-8.93697e-05
-8.83834e-05
-8.93739e-05
4.48291e-05
-8.62282e-05
8.74247e-05
-8.51769e-05
0.000129892
-8.52193e-05
0.000172641
-8.65845e-05
0.000215818
-8.68896e-05
0.00025925
-8.69682e-05
0.000302753
-8.70499e-05
0.000346258
-8.70597e-05
0.000389742
-8.70615e-05
0.000433241
-8.70593e-05
0.000476774
-8.70707e-05
0.000520296
-8.70618e-05
0.000563799
-8.70386e-05
0.000607291
-8.70078e-05
0.00065077
-8.69679e-05
0.000694233
-8.69333e-05
0.000737671
-8.68962e-05
0.00078109
-8.68545e-05
0.000824489
-8.68138e-05
0.000867864
-8.67684e-05
0.000911211
-8.67177e-05
0.000954532
-8.66655e-05
0.000997825
-8.66096e-05
0.00104109
-8.65505e-05
0.00108432
-8.64879e-05
0.00112752
-8.64183e-05
0.00117068
-8.63465e-05
0.0012138
-8.62689e-05
0.00125689
-8.61868e-05
0.00129992
-8.60954e-05
0.00134291
-8.59984e-05
0.00138584
-8.58965e-05
0.00142872
-8.57875e-05
0.00147154
-8.56722e-05
0.0015143
-8.55488e-05
0.001557
-8.54275e-05
0.00159963
-8.5292e-05
0.00164219
-8.51503e-05
0.00168468
-8.50031e-05
0.00172709
-8.48504e-05
0.00176942
-8.46906e-05
0.00181167
-8.45236e-05
0.00185383
-8.435e-05
0.0018959
-8.41679e-05
0.00193788
-8.39827e-05
0.00197975
-8.3778e-05
0.00202152
-8.35791e-05
0.00206319
-8.33735e-05
0.00210476
-8.31563e-05
0.00214621
-8.29332e-05
0.00218754
-8.27022e-05
0.00222876
-8.24647e-05
0.00226986
-8.22208e-05
0.00231082
-8.1964e-05
0.00235166
-8.17035e-05
0.00239236
-8.14341e-05
0.00243293
-8.11562e-05
0.00247335
-8.08708e-05
0.00251362
-8.05779e-05
0.00255374
-8.02771e-05
0.00259371
-7.99647e-05
0.00263352
-7.96454e-05
0.00267316
-7.93168e-05
0.00271264
-7.89799e-05
0.00275194
-7.86341e-05
0.00279106
-7.8278e-05
0.00283
-7.79127e-05
0.00286876
-7.75399e-05
0.00290733
-7.71571e-05
0.00294569
-7.6762e-05
0.00298386
-7.63621e-05
0.00302182
-7.59488e-05
0.00305957
-7.55269e-05
0.0030971
-7.50935e-05
0.00313442
-7.46546e-05
0.00317151
-7.41995e-05
0.00320836
-7.37344e-05
0.00324498
-7.32594e-05
0.00328136
-7.27811e-05
0.00331749
-7.2283e-05
0.00335337
-7.17755e-05
0.00338899
-7.12569e-05
0.00342434
-7.07274e-05
0.00345942
-7.0185e-05
0.00349423
-6.96359e-05
0.00352877
-6.90728e-05
0.00356302
-6.85007e-05
0.00359694
-6.78834e-05
0.00363057
-6.72864e-05
0.0036639
-6.66777e-05
0.00369693
-6.60517e-05
0.00372963
-6.54117e-05
0.003762
-6.47552e-05
0.00379404
-6.40859e-05
0.00382574
-6.34039e-05
0.00385708
-6.27067e-05
0.00388809
-6.20081e-05
0.00391873
-6.12782e-05
0.00394899
-6.05364e-05
0.00397888
-5.97813e-05
0.00400839
-5.90197e-05
0.00403751
-5.82281e-05
0.00406622
-5.743e-05
0.00409453
-5.66142e-05
0.00412243
-5.57796e-05
0.0041499
-5.49376e-05
0.00417694
-5.40685e-05
0.00420355
-5.31943e-05
0.0042297
-5.22891e-05
0.00425538
-5.13663e-05
0.00428059
-5.04242e-05
0.00430536
-4.94989e-05
0.00432963
-4.85271e-05
0.00435341
-4.7533e-05
0.00437668
-4.65251e-05
0.00439944
-4.54989e-05
0.00442168
-4.44562e-05
0.00444339
-4.33917e-05
0.00446456
-4.23105e-05
0.00448517
-4.12046e-05
0.00450523
-4.00804e-05
0.00452471
-3.89302e-05
0.0045436
-3.7763e-05
0.0045619
-3.65794e-05
0.00457961
-3.53725e-05
0.0045967
-3.41402e-05
0.00461315
-3.28781e-05
0.00462897
-3.15981e-05
0.00464413
-3.03009e-05
0.00465863
-2.89689e-05
0.00467249
-2.76527e-05
0.00468566
-2.62882e-05
0.00469814
-2.48874e-05
0.00470987
-2.34378e-05
0.00472088
-2.19972e-05
0.00473116
-2.05368e-05
0.00474071
-1.90521e-05
0.00474951
-1.75371e-05
0.00475753
-1.59853e-05
0.00476476
-1.44137e-05
0.0047712
-1.28223e-05
0.00477682
-1.11971e-05
0.00478162
-9.54496e-06
0.00478558
-7.87328e-06
0.00478869
-6.16134e-06
0.00479093
-4.43473e-06
0.00479229
-2.67774e-06
0.00479276
-8.90865e-07
0.00479233
9.37507e-07
0.00479099
2.78464e-06
0.00478869
4.64964e-06
0.00478546
6.55017e-06
0.00478125
8.47254e-06
0.00477608
1.04191e-05
0.00476989
1.24276e-05
0.00476272
1.44122e-05
0.00475453
1.64539e-05
0.00474529
1.85428e-05
0.00473501
2.06201e-05
0.00472367
2.27432e-05
0.00471126
2.48916e-05
0.00469774
2.70872e-05
0.00468314
2.92664e-05
0.00466742
3.14983e-05
0.00465058
3.3751e-05
0.0046326
3.60295e-05
0.00461346
3.83471e-05
0.00459316
4.06625e-05
0.00457168
4.30072e-05
0.00454902
4.53803e-05
0.00452517
4.77697e-05
0.0045001
5.01866e-05
0.00447383
5.26133e-05
0.00444632
5.50678e-05
0.00441757
5.75424e-05
0.0043876
6.00072e-05
0.00435638
6.24946e-05
0.0043239
6.50048e-05
0.00429016
6.7523e-05
0.00425516
7.00502e-05
0.00421888
7.25867e-05
0.00418133
7.5134e-05
0.0041425
7.76862e-05
0.0041024
8.02142e-05
0.00406103
8.2745e-05
0.00401841
8.52789e-05
0.00397451
8.78107e-05
0.00392935
9.0328e-05
0.00388294
9.28276e-05
0.00383528
9.53209e-05
0.00378637
9.78085e-05
0.00373625
0.000100241
0.00368491
0.000102666
0.00363237
0.000105062
0.00357864
0.000107422
0.00352375
0.000109747
0.0034677
0.000112052
0.00341054
0.000114276
0.00335228
0.000116467
0.00329294
0.00011861
0.00323256
0.000120691
0.00317116
0.000122731
0.00310878
0.000124667