/*--------------------------------*- C++ -*----------------------------------*\
| =========                 |                                                 |
| \\      /  F ield         | OpenFOAM: The Open Source CFD Toolbox           |
|  \\    /   O peration     | Version:  2412                                  |
|   \\  /    A nd           | Website:  www.openfoam.com                      |
|    \\/     M anipulation  |                                                 |
\*---------------------------------------------------------------------------*/
FoamFile
{
    version     2.0;
    format      ascii;
    arch        "LSB;label=32;scalar=64";
    class       surfaceScalarField;
    location    "5.45";
    object      phi;
}
// * * * * * * * * * * * * * * * * * * * * * * * * * * * * * * * * * * * * * //

dimensions      [0 3 -1 0 0 0 0];

oriented        oriented;

internalField   nonuniform List<scalar> 
12640
(
-1.28592e-05
1.28592e-05
-1.94118e-05
6.55279e-06
-2.36518e-05
4.24024e-06
-2.72733e-05
3.6217e-06
-3.09904e-05
3.71732e-06
-3.51412e-05
4.15085e-06
-3.96534e-05
4.51212e-06
-4.44129e-05
4.75929e-06
-4.91937e-05
4.78044e-06
-5.3787e-05
4.59298e-06
-5.79302e-05
4.14292e-06
-6.14588e-05
3.52812e-06
-6.42778e-05
2.81863e-06
-6.63244e-05
2.04589e-06
-6.75757e-05
1.2505e-06
-6.81019e-05
5.25356e-07
-6.80216e-05
-8.10321e-08
-6.74981e-05
-5.24592e-07
-6.66266e-05
-8.72559e-07
-6.55682e-05
-1.05892e-06
-6.4454e-05
-1.11454e-06
-6.33799e-05
-1.07468e-06
-6.23935e-05
-9.86805e-07
-6.14895e-05
-9.04196e-07
-6.07042e-05
-7.85459e-07
-5.99837e-05
-7.20942e-07
-5.92319e-05
-7.52177e-07
-5.8412e-05
-8.20184e-07
-5.74015e-05
-1.01048e-06
-5.60137e-05
-1.38771e-06
-5.42488e-05
-1.76476e-06
-5.1857e-05
-2.39144e-06
-4.87609e-05
-3.0955e-06
-4.49285e-05
-3.83171e-06
-4.02411e-05
-4.68725e-06
-3.48305e-05
-5.41076e-06
-2.86738e-05
-6.15698e-06
-2.19209e-05
-6.75332e-06
-1.46939e-05
-7.22735e-06
-7.1688e-06
-7.52529e-06
4.38775e-07
-7.60761e-06
7.9209e-06
-7.48217e-06
1.51246e-05
-7.20367e-06
2.18578e-05
-6.73291e-06
2.80286e-05
-6.17057e-06
3.35371e-05
-5.50856e-06
3.8322e-05
-4.78492e-06
4.24626e-05
-4.1408e-06
4.59126e-05
-3.44988e-06
4.88059e-05
-2.89225e-06
5.12129e-05
-2.40602e-06
5.32321e-05
-2.0185e-06
5.5014e-05
-1.78133e-06
5.6654e-05
-1.63971e-06
5.81142e-05
-1.45996e-06
5.95139e-05
-1.39944e-06
6.08875e-05
-1.37356e-06
6.2227e-05
-1.3395e-06
6.34972e-05
-1.27006e-06
6.4643e-05
-1.14545e-06
6.55522e-05
-9.08958e-07
6.61324e-05
-5.79804e-07
6.6299e-05
-1.65909e-07
6.58994e-05
4.00288e-07
6.48412e-05
1.05872e-06
6.29629e-05
1.87885e-06
6.02999e-05
2.66355e-06
5.69262e-05
3.3741e-06
5.29043e-05
4.02204e-06
4.84039e-05
4.50017e-06
4.36166e-05
4.78696e-06
3.87957e-05
4.82052e-06
3.41395e-05
4.65588e-06
2.99328e-05
4.2063e-06
2.63761e-05
3.55629e-06
2.33526e-05
3.02329e-06
2.06663e-05
2.68659e-06
1.73551e-05
3.31136e-06
1.18571e-05
5.49759e-06
1.18572e-05
-1.00677e-05
2.29277e-05
-1.06715e-05
7.15691e-06
-7.9099e-06
1.47871e-06
-4.47382e-06
1.85718e-07
-1.75327e-06
9.96854e-07
-2.16691e-07
2.61415e-06
4.53331e-08
4.24972e-06
-8.59797e-07
5.66394e-06
-2.68508e-06
6.60516e-06
-5.0862e-06
6.99346e-06
-7.78854e-06
6.84446e-06
-1.04563e-05
6.19463e-06
-1.29143e-05
5.27544e-06
-1.51457e-05
4.27581e-06
-1.71517e-05
3.25518e-06
-1.89343e-05
2.30626e-06
-2.05118e-05
1.49527e-06
-2.19671e-05
9.29858e-07
-2.34134e-05
5.7278e-07
-2.49306e-05
4.57321e-07
-2.65847e-05
5.38857e-07
-2.84098e-05
7.50185e-07
-3.04012e-05
1.0045e-06
-3.2561e-05
1.25551e-06
-3.48323e-05
1.48582e-06
-3.7116e-05
1.56306e-06
-3.93328e-05
1.46492e-06
-4.12903e-05
1.1376e-06
-4.28627e-05
5.6237e-07
-4.39307e-05
-3.19047e-07
-4.42788e-05
-1.41566e-06
-4.38844e-05
-2.78523e-06
-4.25834e-05
-4.39656e-06
-4.02614e-05
-6.15431e-06
-3.70086e-05
-7.94088e-06
-3.2805e-05
-9.61533e-06
-2.78002e-05
-1.11626e-05
-2.20736e-05
-1.24805e-05
-1.58152e-05
-1.34862e-05
-9.22904e-06
-1.41118e-05
-2.55226e-06
-1.42844e-05
4.00312e-06
-1.40371e-05
1.01943e-05
-1.33944e-05
1.58568e-05
-1.23951e-05
2.08079e-05
-1.11213e-05
2.50374e-05
-9.73784e-06
2.83761e-05
-8.12307e-06
3.08292e-05
-6.59303e-06
3.24304e-05
-5.05058e-06
3.32702e-05
-3.73142e-06
3.34323e-05
-2.56764e-06
3.30516e-05
-1.63758e-06
3.21877e-05
-9.1721e-07
3.10025e-05
-4.54517e-07
2.96748e-05
-1.32604e-07
2.82574e-05
1.76084e-08
2.67955e-05
8.80765e-08
2.53301e-05
1.25555e-07
2.38529e-05
2.06868e-07
2.239e-05
3.17264e-07
2.09084e-05
5.72306e-07
1.93263e-05
1.00179e-06
1.75631e-05
1.59679e-06
1.55632e-05
2.39952e-06
1.32422e-05
3.37906e-06
1.07517e-05
4.36866e-06
7.93792e-06
5.47666e-06
4.87481e-06
6.43676e-06
1.68861e-06
7.20808e-06
-1.37404e-06
7.56269e-06
-4.03102e-06
7.44348e-06
-5.93023e-06
6.71887e-06
-6.65671e-06
5.38156e-06
-5.97119e-06
3.52052e-06
-3.78443e-06
1.36945e-06
-1.26078e-07
-6.35139e-07
4.34659e-06
-1.78618e-06
8.38931e-06
-7.31912e-07
8.91619e-06
4.9705e-06
2.07738e-05
-9.65721e-06
3.25852e-05
-8.57835e-06
6.07782e-06
-3.44764e-06
-3.65211e-06
2.46516e-06
-5.72694e-06
7.5221e-06
-4.05987e-06
1.10387e-05
-9.02404e-07
1.28256e-05
2.46259e-06
1.31288e-05
5.3602e-06
1.22964e-05
7.43687e-06
1.07292e-05
8.55968e-06
8.81011e-06
8.76255e-06
6.81289e-06
8.19078e-06
4.93546e-06
7.15189e-06
3.27155e-06
5.93891e-06
1.85422e-06
4.67198e-06
6.34208e-07
3.52627e-06
-4.69894e-07
2.59899e-06
-1.54922e-06
2.00831e-06
-2.72834e-06
1.75153e-06
-4.11607e-06
1.8455e-06
-5.80197e-06
2.22541e-06
-7.82433e-06
2.77304e-06
-1.02167e-05
3.39741e-06
-1.29678e-05
4.00747e-06
-1.59528e-05
4.47172e-06
-1.9148e-05
4.75892e-06
-2.24278e-05
4.74519e-06
-2.56363e-05
4.34671e-06
-2.86091e-05
3.53567e-06
-3.11087e-05
2.18018e-06
-3.29552e-05
4.2962e-07
-3.40047e-05
-1.73733e-06
-3.41989e-05
-4.20385e-06
-3.33878e-05
-6.96633e-06
-3.1567e-05
-9.76227e-06
-2.87032e-05
-1.24792e-05
-2.49654e-05
-1.49004e-05
-2.04535e-05
-1.69927e-05
-1.53367e-05
-1.86033e-05
-9.89653e-06
-1.9552e-05
-4.34751e-06
-1.98336e-05
1.02973e-06
-1.94148e-05
6.02429e-06
-1.83896e-05
1.04461e-05
-1.68173e-05
1.42119e-05
-1.48871e-05
1.69833e-05
-1.25093e-05
1.89471e-05
-1.00873e-05
1.99374e-05
-7.58436e-06
2.01521e-05
-5.26652e-06
1.96143e-05
-3.19457e-06
1.837e-05
-1.32419e-06
1.6711e-05
2.05174e-08
1.47138e-05
1.07917e-06
1.25591e-05
1.69954e-06
1.03874e-05
2.03844e-06
8.28432e-06
2.11974e-06
6.28996e-06
2.08124e-06
4.47143e-06
1.94262e-06
2.83244e-06
1.84392e-06
1.33764e-06
1.80984e-06
-4.27337e-08
1.95019e-06
-1.38478e-06
2.34149e-06
-2.81552e-06
3.0258e-06
-4.36773e-06
3.95025e-06
-6.12423e-06
5.134e-06
-8.17778e-06
6.42089e-06
-1.04585e-05
7.75671e-06
-1.29216e-05
8.89975e-06
-1.54526e-05
9.73888e-06
-1.78086e-05
9.91786e-06
-1.96333e-05
9.2673e-06
-2.0518e-05
7.60317e-06
-2.00464e-05
4.90991e-06
-1.77992e-05
1.2731e-06
-1.35926e-05
-2.83766e-06
-7.52192e-06
-6.7059e-06
-3.58128e-07
-8.95016e-06
6.09898e-06
-7.18939e-06
8.51761e-06
2.55293e-06
2.92906e-05
-1.05371e-05
4.3122e-05
-8.82783e-06
4.36815e-06
-2.19996e-06
-1.028e-05
5.50402e-06
-1.34306e-05
1.20238e-05
-1.05794e-05
1.63633e-05
-5.24206e-06
1.84007e-05
4.2462e-07
1.85035e-05
5.25671e-06
1.73099e-05
8.62972e-06
1.54169e-05
1.04518e-05
1.33102e-05
1.08685e-05
1.12726e-05
1.02278e-05
9.60559e-06
8.81867e-06
8.34704e-06
7.19744e-06
7.49279e-06
5.5253e-06
6.91124e-06
4.10744e-06
6.49098e-06
3.01946e-06
6.06435e-06
2.43505e-06
5.45435e-06
2.36129e-06
4.52601e-06
2.7733e-06
3.15607e-06
3.5946e-06
1.26308e-06
4.66538e-06
-1.16737e-06
5.82748e-06
-4.14944e-06
6.9894e-06
-7.59773e-06
7.92011e-06
-1.14283e-05
8.58963e-06
-1.54528e-05
8.76947e-06
-1.95107e-05
8.40398e-06
-2.33894e-05
7.4136e-06
-2.68549e-05
5.64496e-06
-2.96749e-05
3.2494e-06
-3.16515e-05
2.39702e-07
-3.27003e-05
-3.15394e-06
-3.26276e-05
-7.0377e-06
-3.13695e-05
-1.10196e-05
-2.8965e-05
-1.48835e-05
-2.54532e-05
-1.84126e-05
-2.1009e-05
-2.14378e-05
-1.58792e-05
-2.37348e-05
-1.02985e-05
-2.5135e-05
-4.62523e-06
-2.5509e-05
8.56707e-07
-2.48985e-05
5.87126e-06
-2.34053e-05
1.01283e-05
-2.10748e-05
1.34235e-05
-1.81825e-05
1.57778e-05
-1.48635e-05
1.7075e-05
-1.13842e-05
1.73056e-05
-7.81516e-06
1.66509e-05
-4.61192e-06
1.51256e-05
-1.6687e-06
1.31155e-05
6.86998e-07
1.05871e-05
2.55001e-06
7.86994e-06
3.79705e-06
5.06887e-06
4.50122e-06
2.3683e-06
4.73985e-06
-1.41553e-07
4.63064e-06
-2.33873e-06
4.27954e-06
-4.19512e-06
3.80023e-06
-5.68614e-06
3.33615e-06
-6.88979e-06
3.01502e-06
-7.85524e-06
2.91696e-06
-8.69561e-06
3.18267e-06
-9.53229e-06
3.86284e-06
-1.05028e-05
4.92056e-06
-1.17245e-05
6.35525e-06
-1.32958e-05
7.99154e-06
-1.52738e-05
9.7341e-06
-1.76506e-05
1.12759e-05
-2.03222e-05
1.24099e-05
-2.30066e-05
1.2602e-05
-2.52429e-05
1.15036e-05
-2.65266e-05
8.88726e-06
-2.63312e-05
4.71494e-06
-2.38346e-05
-1.22322e-06
-1.87437e-05
-7.92836e-06
-1.11273e-05
-1.43221e-05
-2.07597e-06
-1.80013e-05
6.04025e-06
-1.53047e-05
9.22393e-06
-6.30097e-07
3.85141e-05
-1.21158e-05
5.52374e-05
-1.00083e-05
2.26035e-06
-1.54624e-06
-1.87419e-05
8.4974e-06
-2.34741e-05
1.67855e-05
-1.88678e-05
2.17933e-05
-1.02504e-05
2.34601e-05
-1.24273e-06
2.24781e-05
6.23825e-06
2.00141e-05
1.10934e-05
1.69174e-05
1.35484e-05
1.38648e-05
1.39208e-05
1.13166e-05
1.27754e-05
9.43951e-06
1.0695e-05
8.2703e-06
8.36657e-06
7.73255e-06
6.06246e-06
7.68158e-06
4.15776e-06
7.85748e-06
2.84268e-06
8.039e-06
2.25221e-06
7.98506e-06
2.41398e-06
7.52443e-06
3.23317e-06
6.49158e-06
4.62716e-06
4.77827e-06
6.3787e-06
2.30962e-06
8.29622e-06
-8.79188e-07
1.01782e-05
-4.75253e-06
1.17936e-05
-9.07858e-06
1.29158e-05
-1.37768e-05
1.3468e-05
-1.85465e-05
1.31743e-05
-2.31625e-05
1.20306e-05
-2.73518e-05
9.83541e-06
-3.09317e-05
6.83055e-06
-3.36839e-05
2.99252e-06
-3.53108e-05
-1.527e-06
-3.55889e-05
-6.76011e-06
-3.44819e-05
-1.21273e-05
-3.19526e-05
-1.74135e-05
-2.80863e-05
-2.22799e-05
-2.3061e-05
-2.6464e-05
-1.71484e-05
-2.96477e-05
-1.07001e-05
-3.15831e-05
-4.13102e-06
-3.20772e-05
2.13175e-06
-3.11604e-05
7.79574e-06
-2.90687e-05
1.24896e-05
-2.57682e-05
1.60171e-05
-2.17097e-05
1.83369e-05
-1.71821e-05
1.93517e-05
-1.23967e-05
1.91532e-05
-7.61434e-06
1.79143e-05
-3.37116e-06
1.58371e-05
4.09511e-07
1.30652e-05
3.45902e-06
9.84651e-06
5.76879e-06
6.4777e-06
7.16637e-06
3.12791e-06
7.852e-06
-1.2278e-08
7.88142e-06
-2.81102e-06
7.43074e-06
-5.15848e-06
6.62806e-06
-6.99733e-06
5.63972e-06
-8.33439e-06
4.6733e-06
-9.18901e-06
3.86959e-06
-9.73079e-06
3.45824e-06
-1.00736e-05
3.52497e-06
-1.0395e-05
4.18434e-06
-1.08938e-05
5.41954e-06
-1.17362e-05
7.19772e-06
-1.31553e-05
9.41042e-06
-1.52468e-05
1.18256e-05
-1.79868e-05
1.40161e-05
-2.1399e-05
1.58225e-05
-2.51445e-05
1.63482e-05
-2.87292e-05
1.50888e-05
-3.14321e-05
1.159e-05
-3.23835e-05
5.66583e-06
-3.03241e-05
-3.28312e-06
-2.44953e-05
-1.37571e-05
-1.49789e-05
-2.38385e-05
-3.37469e-06
-2.96049e-05
6.84826e-06
-2.55269e-05
1.0608e-05
-4.39032e-06
4.91234e-05
-1.46306e-05
6.98678e-05
-1.24405e-05
7.01183e-08
-1.42942e-06
-2.97531e-05
1.24742e-05
-3.73781e-05
2.37437e-05
-3.01378e-05
2.96902e-05
-1.61973e-05
3.04078e-05
-1.96047e-06
2.75618e-05
9.08449e-06
2.28701e-05
1.57852e-05
1.783e-05
1.85885e-05
1.33159e-05
1.84347e-05
9.83348e-06
1.62575e-05
7.59112e-06
1.29368e-05
6.51656e-06
9.44041e-06
6.34269e-06
6.23556e-06
6.8879e-06
3.61205e-06
7.77191e-06
1.95859e-06
8.69845e-06
1.32612e-06
9.32667e-06
1.78658e-06
9.41766e-06
3.14299e-06
8.76381e-06
5.28144e-06
7.25166e-06
7.89112e-06
4.78315e-06
1.07651e-05
1.3526e-06
1.36093e-05
-2.90018e-06
1.60473e-05
-7.87412e-06
1.78906e-05
-1.33616e-05
1.89559e-05
-1.90361e-05
1.88491e-05
-2.45456e-05
1.75398e-05
-2.98094e-05
1.50985e-05
-3.42908e-05
1.13112e-05
-3.76802e-05
6.38117e-06
-3.97303e-05
5.22488e-07
-4.03517e-05
-6.13945e-06
-3.91722e-05
-1.33075e-05
-3.63339e-05
-2.02518e-05
-3.1845e-05
-2.6768e-05
-2.59194e-05
-3.23883e-05
-1.88851e-05
-3.66804e-05
-1.11916e-05
-3.92754e-05
-3.36322e-06
-3.99051e-05
4.09009e-06
-3.86138e-05
1.06585e-05
-3.56374e-05
1.60684e-05
-3.11784e-05
2.00437e-05
-2.5685e-05
2.2507e-05
-1.96451e-05
2.33576e-05
-1.32473e-05
2.27567e-05
-7.01454e-06
2.09088e-05
-1.52436e-06
1.81125e-05
3.20523e-06
1.45746e-05
6.99676e-06
1.06825e-05
9.661e-06
6.57171e-06
1.1277e-05
2.58806e-06
1.18349e-05
-1.09754e-06
1.15658e-05
-4.23971e-06
1.05712e-05
-6.75778e-06
9.14442e-06
-8.552e-06
7.43225e-06
-9.64006e-06
5.75978e-06
-1.01658e-05
4.39435e-06
-1.01981e-05
3.48944e-06
-9.94595e-06
3.27196e-06
-9.64199e-06
3.8798e-06
-9.6075e-06
5.38463e-06
-1.00684e-05
7.65847e-06
-1.13375e-05
1.06796e-05
-1.3585e-05
1.40731e-05
-1.69281e-05
1.73588e-05
-2.14557e-05
2.03495e-05
-2.68696e-05
2.17612e-05
-3.26359e-05
2.08546e-05
-3.77843e-05
1.6738e-05
-4.07171e-05
8.59874e-06
-3.96968e-05
-4.30296e-06
-3.2875e-05
-2.05782e-05
-2.0115e-05
-3.6598e-05
-4.34464e-06
-4.53748e-05
8.75593e-06
-3.8627e-05
1.28738e-05
-8.50863e-06
6.19987e-05
-1.89861e-05
8.88536e-05
-1.85285e-05
-3.87688e-07
-4.14635e-06
-4.41357e-05
1.61908e-05
-5.77159e-05
3.33242e-05
-4.72716e-05
4.136e-05
-2.42333e-05
4.05746e-05
-1.17494e-06
3.44199e-05
1.52395e-05
2.61834e-05
2.40217e-05
1.82721e-05
2.64997e-05
1.17482e-05
2.49585e-05
7.20036e-06
2.08049e-05
4.57939e-06
1.55585e-05
3.69319e-06
1.03269e-05
4.18089e-06
5.74868e-06
5.59717e-06
2.19718e-06
7.54312e-06
1.36445e-08
9.46727e-06
-5.97816e-07
1.10115e-05
2.41889e-07
1.185e-05
2.30386e-06
1.17659e-05
5.3649e-06
1.05187e-05
9.13792e-06
8.03762e-06
1.3246e-05
4.35881e-06
1.72877e-05
-4.9459e-07
2.09002e-05
-6.28724e-06
2.36825e-05
-1.28026e-05
2.54702e-05
-1.96249e-05
2.56706e-05
-2.64506e-05
2.43654e-05
-3.28669e-05
2.15149e-05
-3.83936e-05
1.6838e-05
-4.27162e-05
1.07035e-05
-4.54094e-05
3.21507e-06
-4.64037e-05
-5.14612e-06
-4.52821e-05
-1.443e-05
-4.20002e-05
-2.35343e-05
-3.66973e-05
-3.20713e-05
-2.9613e-05
-3.94733e-05
-2.10792e-05
-4.52154e-05
-1.18153e-05
-4.85409e-05
-2.36647e-06
-4.93553e-05
6.58369e-06
-4.75654e-05
1.44258e-05
-4.34808e-05
2.07715e-05
-3.75259e-05
2.53375e-05
-3.02537e-05
2.7966e-05
-2.22757e-05
2.86879e-05
-1.39701e-05
2.75672e-05
-5.89439e-06
2.50406e-05
1.0023e-06
2.11871e-05
7.05936e-06
1.66821e-05
1.15024e-05
1.15887e-05
1.47545e-05
6.57108e-06
1.62945e-05
1.73087e-06
1.66749e-05
-2.60527e-06
1.5902e-05
-6.21822e-06
1.41846e-05
-8.90006e-06
1.18273e-05
-1.06302e-05
9.16353e-06
-1.14408e-05
6.57172e-06
-1.1399e-05
4.354e-06
-1.0736e-05
2.82719e-06
-9.67997e-06
2.2162e-06
-8.53841e-06
2.73836e-06
-7.66943e-06
4.51551e-06
-7.53159e-06
7.51994e-06
-8.4257e-06
1.15726e-05
-1.07338e-05
1.63802e-05
-1.47556e-05
2.13802e-05
-2.06608e-05
2.62548e-05
-2.83397e-05
2.94408e-05
-3.73021e-05
2.98176e-05
-4.62141e-05
2.56502e-05
-5.27347e-05
1.51196e-05
-5.33376e-05
-3.69954e-06
-4.43329e-05
-2.9583e-05
-2.53304e-05
-5.55999e-05
-2.29124e-06
-6.84142e-05
1.46469e-05
-5.5565e-05
1.737e-05
-1.12313e-05
7.93675e-05
-2.79955e-05
0.000116849
-2.98726e-05
1.48913e-06
-7.97208e-06
-6.60365e-05
2.32304e-05
-8.89189e-05
4.83294e-05
-7.2371e-05
5.87291e-05
-3.46331e-05
5.5004e-05
2.54995e-06
4.33841e-05
2.68593e-05
2.98085e-05
3.75972e-05
1.76645e-05
3.86439e-05
8.55743e-06
3.40666e-05
2.74858e-06
2.66138e-05
-5.6678e-08
1.83652e-05
-3.61652e-07
1.06326e-05
1.14589e-06
4.24105e-06
3.89503e-06
-5.52484e-07
7.34034e-06
-3.43247e-06
1.06607e-05
-3.91893e-06
1.34999e-05
-2.59757e-06
1.53889e-05
4.14769e-07
1.6033e-05
4.72067e-06
1.51763e-05
9.99443e-06
1.2696e-05
1.57256e-05
8.57057e-06
2.14122e-05
2.9724e-06
2.64976e-05
-3.93587e-06
3.05907e-05
-1.1683e-05
3.32179e-05
-1.99711e-05
3.39594e-05
-2.83616e-05
3.27562e-05
-3.62439e-05
2.93968e-05
-4.33338e-05
2.3927e-05
-4.8964e-05
1.63326e-05
-5.26918e-05
6.94234e-06
-5.4175e-05
-3.66327e-06
-5.31176e-05
-1.54874e-05
-4.93586e-05
-2.72934e-05
-4.30158e-05
-3.84149e-05
-3.43539e-05
-4.81366e-05
-2.39911e-05
-5.55797e-05
-1.25489e-05
-5.99845e-05
-9.51864e-07
-6.09533e-05
9.96141e-06
-5.84791e-05
1.94216e-05
-5.29406e-05
2.69904e-05
-4.50946e-05
3.21594e-05
-3.54228e-05
3.49571e-05
-2.50733e-05
3.52719e-05
-1.42848e-05
3.34482e-05
-4.07058e-06
2.97905e-05
4.65978e-06
2.47874e-05
1.20621e-05
1.878e-05
1.75096e-05
1.24799e-05
2.10549e-05
6.10955e-06
2.26657e-05
1.38297e-07
2.26475e-05
-5.02042e-06
2.10624e-05
-9.15512e-06
1.83205e-05
-1.21032e-05
1.47762e-05
-1.37432e-05
1.08032e-05
-1.41171e-05
6.94464e-06
-1.33599e-05
3.59572e-06
-1.1717e-05
1.18345e-06
-9.51566e-06
1.42002e-08
-7.16581e-06
3.87885e-07
-5.12733e-06
2.47658e-06
-3.93598e-06
6.32812e-06
-4.16171e-06
1.17978e-05
-6.27656e-06
1.84946e-05
-1.08809e-05
2.59843e-05
-1.8307e-05
3.36808e-05
-2.90063e-05
4.01401e-05
-4.24833e-05
4.32942e-05
-5.71736e-05
4.034e-05
-6.95162e-05
2.7462e-05
-7.34641e-05
2.48155e-07
-6.24366e-05
-4.06111e-05
-3.54515e-05
-8.25851e-05
-1.00266e-06
-0.000102863
2.47587e-05
-8.13269e-05
2.56741e-05
-1.21452e-05
0.000105041
-3.67692e-05
0.000153618
-2.26304e-05
-1.26498e-05
2.87991e-05
-0.000117466
7.39608e-05
-0.000134081
9.44587e-05
-9.28693e-05
9.27125e-05
-3.28873e-05
7.69209e-05
1.83412e-05
5.45195e-05
4.92606e-05
3.2613e-05
5.95036e-05
1.48071e-05
5.645e-05
2.63218e-06
4.62421e-05
-4.34547e-06
3.35914e-05
-7.01647e-06
2.10359e-05
-6.29736e-06
9.91277e-06
-2.99767e-06
9.41005e-07
1.75755e-06
-5.30773e-06
7.05631e-06
-8.73101e-06
1.23072e-05
-9.16942e-06
1.69631e-05
-7.2528e-06
2.02706e-05
-2.89211e-06
2.19245e-05
3.06699e-06
2.15855e-05
1.03334e-05
1.90929e-05
1.82177e-05
1.44968e-05
2.60083e-05
7.91748e-06
3.3077e-05
-2.67916e-07
3.8776e-05
-9.73307e-06
4.26829e-05
-1.99393e-05
4.41656e-05
-3.03576e-05
4.31745e-05
-4.04248e-05
3.94646e-05
-4.93988e-05
3.29022e-05
-5.66982e-05
2.36332e-05
-6.17482e-05
1.19934e-05
-6.41227e-05
-1.28882e-06
-6.31712e-05
-1.64399e-05
-5.88806e-05
-3.15856e-05
-5.12456e-05
-4.60514e-05
-4.06359e-05
-5.87469e-05
-2.77028e-05
-6.85126e-05
-1.33788e-05
-7.43075e-05
1.12097e-06
-7.54518e-05
1.45805e-05
-7.19373e-05
2.61975e-05
-6.45564e-05
3.50566e-05
-5.39531e-05
4.10244e-05
-4.13905e-05
4.37987e-05
-2.78473e-05
4.36729e-05
-1.41591e-05
4.0864e-05
-1.26195e-06
3.56798e-05
9.84394e-06
2.89773e-05
1.87648e-05
2.11326e-05
2.53545e-05
1.30363e-05
2.9151e-05
4.94619e-06
3.07551e-05
-2.38706e-06
2.99795e-05
-8.60491e-06
2.72787e-05
-1.3469e-05
2.3183e-05
-1.66981e-05
1.80039e-05
-1.81987e-05
1.23027e-05
-1.80064e-05
6.75181e-06
-1.62733e-05
1.86205e-06
-1.33195e-05
-1.77092e-06
-9.52983e-06
-3.77566e-06
-5.51857e-06
-3.62366e-06
-1.78377e-06
-1.25858e-06
9.90548e-07
3.55346e-06
2.05475e-06
1.07336e-05
6.61587e-07
1.98881e-05
-4.16333e-06
3.08098e-05
-1.33315e-05
4.28496e-05
-2.75083e-05
5.43173e-05
-4.70727e-05
6.28585e-05
-7.07142e-05
6.39815e-05
-9.43345e-05
5.10826e-05
-0.000111724
1.76382e-05
-0.00011468
-3.76543e-05
-9.34471e-05
-0.000103818
-4.40276e-05
-0.000152281
1.4306e-05
-0.000139661
3.41494e-05
-3.19888e-05
0.000139191
-2.46689e-05
0.000178287
6.10216e-05
-9.83405e-05
0.000180624
-0.000237069
0.000240145
-0.000193602
0.000225467
-7.81915e-05
0.000169765
2.28147e-05
0.000114119
7.39869e-05
6.80186e-05
9.53603e-05
3.22315e-05
9.52901e-05
7.16145e-06
8.15202e-05
-8.12471e-06
6.15273e-05
-1.55754e-05
4.10424e-05
-1.71635e-05
2.26242e-05
-1.44926e-05
7.24142e-06
-8.72181e-06
-4.83012e-06
-1.18676e-06
-1.28431e-05
6.80876e-06
-1.67266e-05
1.4761e-05
-1.71215e-05
2.16679e-05
-1.41594e-05
2.69881e-05
-8.21212e-06
2.99065e-05
1.4867e-07
3.02401e-05
9.99994e-06
2.77855e-05
2.0672e-05
2.25653e-05
3.12282e-05
1.48325e-05
4.08099e-05
4.94539e-06
4.86636e-05
-6.60966e-06
5.42386e-05
-1.9364e-05
5.69205e-05
-3.24566e-05
5.62671e-05
-4.51443e-05
5.2152e-05
-5.66556e-05
4.44128e-05
-6.62074e-05
3.31841e-05
-7.30512e-05
1.88361e-05
-7.64925e-05
2.15167e-06
-7.5967e-05
-1.69658e-05
-7.10877e-05
-3.64645e-05
-6.19125e-05
-5.52254e-05
-4.88412e-05
-7.1817e-05
-3.25261e-05
-8.4827e-05
-1.42643e-05
-9.25694e-05
4.15212e-06
-9.38696e-05
2.1003e-05
-8.8789e-05
3.50448e-05
-7.85981e-05
4.57004e-05
-6.46083e-05
5.24769e-05
-4.81667e-05
5.52526e-05
-3.06221e-05
5.42386e-05
-1.31443e-05
4.9901e-05
3.07596e-06
4.28814e-05
1.68634e-05
3.38463e-05
2.77995e-05
2.36791e-05
3.55213e-05
1.30495e-05
3.97808e-05
2.85874e-06
4.09466e-05
-6.20231e-06
3.90418e-05
-1.3832e-05
3.49101e-05
-1.9538e-05
2.88909e-05
-2.31038e-05
2.15712e-05
-2.44149e-05
1.36146e-05
-2.34642e-05
5.80204e-06
-2.0459e-05
-1.14214e-06
-1.57604e-05
-6.46885e-06
-9.73506e-06
-9.8005e-06
-3.51155e-06
-9.8467e-06
2.62139e-06
-7.39084e-06
7.69541e-06
-1.51964e-06
1.074e-05
7.68994e-06
1.08443e-05
1.97844e-05
6.70829e-06
3.4946e-05
-3.56136e-06
5.3119e-05
-2.13165e-05
7.20723e-05
-4.85147e-05
9.00567e-05
-8.62759e-05
0.000101744
-0.000135215
0.000100023
-0.000194907
7.73295e-05
-0.000254558
2.19979e-05
-0.000269282
-8.9095e-05
-0.000204009
-0.000217554
-7.47595e-05
-0.000268911
1.99962e-05
-0.000126746
0.000159187
3.89743e-05
0.000139313
0.000233924
-0.00029329
0.000414173
-0.000417319
0.00047798
-0.000257409
0.000420411
-2.06225e-05
0.000295054
0.000148172
0.000168989
0.000200052
7.8828e-05
0.000185521
2.29972e-05
0.00015112
-9.71896e-06
0.000114238
-2.64345e-05
7.82427e-05
-3.28255e-05
4.74339e-05
-3.18247e-05
2.16236e-05
-2.55126e-05
9.29604e-07
-1.63867e-05
-1.39556e-05
-5.26749e-06
-2.39619e-05
6.52532e-06
-2.85192e-05
1.78658e-05
-2.84618e-05
2.79828e-05
-2.42764e-05
3.58375e-05
-1.60668e-05
4.04998e-05
-4.51354e-06
4.17432e-05
8.75627e-06
3.93229e-05
2.30923e-05
3.33345e-05
3.72163e-05
2.40819e-05
5.00616e-05
1.20728e-05
6.06709e-05
-2.15345e-06
6.84625e-05
-1.80141e-05
7.2779e-05
-3.43434e-05
7.2595e-05
-5.02525e-05
6.80606e-05
-6.49616e-05
5.9122e-05
-7.74495e-05
4.56727e-05
-8.67094e-05
2.80969e-05
-9.18212e-05
7.26484e-06
-9.20126e-05
-1.6773e-05
-8.68243e-05
-4.16516e-05
-7.5998e-05
-6.60515e-05
-5.96878e-05
-8.81282e-05
-3.8809e-05
-0.000105707
-1.51436e-05
-0.000116236
8.61555e-06
-0.00011763
2.98688e-05
-0.000110042
4.70637e-05
-9.57924e-05
5.96567e-05
-7.72014e-05
6.71721e-05
-5.56825e-05
6.96424e-05
-3.30929e-05
6.7365e-05
-1.0867e-05
6.10028e-05
9.43836e-06
5.1327e-05
2.65399e-05
3.92855e-05
3.98418e-05
2.59925e-05
4.88148e-05
1.24053e-05
5.33681e-05
-4.69465e-07
5.38209e-05
-1.17951e-05
5.03666e-05
-2.10875e-05
4.42014e-05
-2.78907e-05
3.56931e-05
-3.18939e-05
2.55743e-05
-3.2912e-05
1.4633e-05
-3.08949e-05
3.78525e-06
-2.61378e-05
-5.89866e-06
-1.8845e-05
-1.37608e-05
-1.03626e-05
-1.82823e-05
-8.50414e-07
-1.93588e-05
8.36728e-06
-1.6609e-05
1.67952e-05
-9.94838e-06
2.27965e-05
1.68782e-06
2.52408e-05
1.73394e-05
2.27985e-05
3.73876e-05
1.35982e-05
6.23189e-05
-5.94205e-06
9.16127e-05
-4.10045e-05
0.000125119
-9.95458e-05
0.000160285
-0.000193493
0.000193969
-0.000324393
0.000208228
-0.000453172
0.000150776
-0.000509843
-3.2423e-05
-0.000440467
-0.000286931
-0.000251692
-0.000457686
-4.62351e-05
-0.000332203
0.000112951
0.000141952
-2.63939e-06
0.000382132
-0.00053347
0.000531049
-0.000566236
0.000562059
-0.000288418
0.000497647
4.37887e-05
0.000350752
0.000295066
0.000189585
0.000361219
6.7452e-05
0.000307655
-6.01444e-06
0.000224586
-4.16551e-05
0.000149879
-5.6464e-05
9.30521e-05
-5.8745e-05
4.9716e-05
-5.29363e-05
1.58154e-05
-4.20398e-05
-9.96667e-06
-2.72029e-05
-2.87926e-05
-1.09378e-05
-4.02272e-05
6.04182e-06
-4.54989e-05
2.20809e-05
-4.45009e-05
3.59459e-05
-3.81417e-05
4.68875e-05
-2.70088e-05
5.41089e-05
-1.17345e-05
5.66399e-05
6.22539e-06
5.43525e-05
2.53794e-05
4.74063e-05
4.41619e-05
3.62114e-05
6.12558e-05
2.15267e-05
7.53553e-05
3.75042e-06
8.62387e-05
-1.57344e-05
9.2264e-05
-3.61583e-05
9.3019e-05
-5.64825e-05
8.83846e-05
-7.52289e-05
7.78676e-05
-9.1408e-05
6.18512e-05
-0.000103747
4.04353e-05
-0.000111115
1.46327e-05
-0.000112531
-1.53578e-05
-0.000107014
-4.71691e-05
-9.41758e-05
-7.88907e-05
-7.37579e-05
-0.000108546
-4.69152e-05
-0.000132549
-1.60502e-05
-0.000147099
1.47775e-05
-0.000148457
4.17879e-05
-0.000137053
6.30509e-05
-0.000117056
7.77152e-05
-9.18666e-05
8.58322e-05
-6.37998e-05
8.76624e-05
-3.4923e-05
8.34449e-05
-6.64923e-06
7.43289e-05
1.85546e-05
6.11951e-05
3.96738e-05
4.53394e-05
5.56972e-05
2.8221e-05
6.59325e-05
1.09986e-05
7.05896e-05
-5.10373e-06
6.99222e-05
-1.95552e-05
6.48172e-05
-3.09174e-05
5.55636e-05
-3.9066e-05
4.3842e-05
-4.35735e-05
3.00814e-05
-4.41657e-05
1.52248e-05
-4.07507e-05
3.7005e-07
-3.35091e-05
-1.31405e-05
-2.33371e-05
-2.39331e-05
-1.08602e-05
-3.07595e-05
2.67898e-06
-3.2898e-05
1.64333e-05
-3.03629e-05
2.8779e-05
-2.22933e-05
3.96137e-05
-9.14588e-06
4.67489e-05
1.02051e-05
4.84006e-05
3.57362e-05
4.24871e-05
6.8233e-05
2.46703e-05
0.00010943
-1.38208e-05
0.000163611
-8.89641e-05
0.000235428
-0.000214323
0.000319328
-0.000378008
0.000371913
-0.000526409
0.000299176
-0.000589228
3.03966e-05
-0.000556152
-0.000320008
-0.000402288
-0.00061155
-0.000153228
-0.000581263
-4.02766e-05
0.000196309
-0.000198948
0.000339824
-0.000676986
0.000369185
-0.000595596
0.000339718
-0.000258951
0.000275929
0.000107578
0.000186215
0.00038478
7.82479e-05
0.000469186
-1.60316e-05
0.000401934
-7.19448e-05
0.000280501
-9.64724e-05
0.000174406
-0.000100977
9.75564e-05
-9.40232e-05
4.27624e-05
-8.01881e-05
1.97993e-06
-6.16497e-05
-2.85054e-05
-4.01154e-05
-5.03271e-05
-1.70926e-05
-6.32502e-05
5.66242e-06
-6.8254e-05
2.7267e-05
-6.61054e-05
4.63172e-05
-5.71916e-05
6.16447e-05
-4.23356e-05
7.1809e-05
-2.18983e-05
7.59728e-05
2.06244e-06
7.37877e-05
2.7566e-05
6.56025e-05
5.23486e-05
5.21216e-05
7.47382e-05
3.38137e-05
9.36642e-05
1.21746e-05
0.000107878
-1.19944e-05
0.000116433
-3.75053e-05
0.000118529
-6.2827e-05
0.000113705
-8.67573e-05
0.000101797
-0.00010772
8.28134e-05
-0.000124186
5.69009e-05
-0.000134651
2.50964e-05
-0.000137625
-1.23846e-05
-0.00013167
-5.31245e-05
-0.000115703
-9.48563e-05
-9.00462e-05
-0.000134202
-5.6161e-05
-0.000166433
-1.74214e-05
-0.00018584
2.1199e-05
-0.00018708
5.50279e-05
-0.000170883
8.15284e-05
-0.000143557
9.94795e-05
-0.000109818
0.000108773
-7.30927e-05
0.000109689
-3.58395e-05
0.000102869
1.71412e-07
9.01519e-05
3.12719e-05
7.25786e-05
5.72472e-05
5.17974e-05
7.64786e-05
2.95367e-05
8.81931e-05
7.5168e-06
9.26098e-05
-1.27723e-05
9.02118e-05
-3.02204e-05
8.22654e-05
-4.40988e-05
6.94417e-05
-5.38686e-05
5.36115e-05
-5.90043e-05
3.52166e-05
-5.90586e-05
1.52788e-05
-5.3873e-05
-4.81584e-06
-4.36026e-05
-2.34104e-05
-2.92297e-05
-3.83051e-05
-1.19361e-05
-4.80523e-05
6.87727e-06
-5.17106e-05
2.59465e-05
-4.94313e-05
4.44085e-05
-4.07545e-05
6.06827e-05
-2.54195e-05
7.39749e-05
-3.08675e-06
8.29177e-05
2.67936e-05
8.5384e-05
6.57672e-05
7.70929e-05
0.000117721
4.9837e-05
0.000190867
-8.94148e-06
0.000294206
-0.000102688
0.000413074
-0.000209518
0.000478745
-0.000299597
0.000389255
-0.000365039
9.58377e-05
-0.000396039
-0.000289008
-0.000362845
-0.000644744
-0.000209574
-0.000734535
-0.000249851
0.000105922
-0.00030487
6.60381e-05
-0.000637101
-2.56709e-05
-0.000503887
-9.56492e-05
-0.000188973
-0.000142728
0.000154658
-0.000158921
0.000400973
-0.00017138
0.000481646
-0.00018055
0.000411104
-0.000181214
0.000281166
-0.000172107
0.000165298
-0.00015453
7.99797e-05
-0.000131588
1.982e-05
-0.000104705
-2.49034e-05
-7.5568e-05
-5.76424e-05
-4.597e-05
-7.99248e-05
-1.54577e-05
-9.37624e-05
1.39056e-05
-9.76169e-05
4.14919e-05
-9.36912e-05
6.58613e-05
-8.15612e-05
8.53092e-05
-6.17829e-05
9.84932e-05
-3.5081e-05
0.000103882
-3.32543e-06
0.00010109
3.03588e-05
9.05903e-05
6.28489e-05
7.35129e-05
9.18161e-05
5.10902e-05
0.000116087
2.47919e-05
0.000134177
-4.73787e-06
0.000145962
-3.61156e-05
0.000149907
-6.78631e-05
0.000145453
-9.83343e-05
0.000132269
-0.000125512
0.00010999
-0.000147162
7.85506e-05
-0.000161058
3.89913e-05
-0.000164667
-8.77544e-06
-0.000156339
-6.14529e-05
-0.00013568
-0.000115517
-0.00010408
-0.000165805
-6.41889e-05
-0.000206326
-1.97391e-05
-0.000230291
2.47152e-05
-0.000231534
6.47034e-05
-0.000210871
9.72436e-05
-0.000176098
0.000120294
-0.000132869
0.000132712
-8.55118e-05
0.000134067
-3.71956e-05
0.000124776
9.46135e-06
0.000107212
4.88348e-05
8.34412e-05
8.10178e-05
5.58458e-05
0.000104074
2.70433e-05
0.000116996
-6.65614e-07
0.000120319
-2.52645e-05
0.00011481
-4.62351e-05
0.000103236
-6.3235e-05
8.64416e-05
-7.51161e-05
6.54924e-05
-8.14962e-05
4.15966e-05
-8.15898e-05
1.53729e-05
-7.48632e-05
-1.15426e-05
-6.14792e-05
-3.67948e-05
-4.27399e-05
-5.70445e-05
-2.02043e-05
-7.05877e-05
4.24812e-06
-7.61624e-05
2.91057e-05
-7.4288e-05
5.40426e-05
-6.56904e-05
7.74283e-05
-4.8804e-05
9.93795e-05
-2.5037e-05
0.000119703
6.47117e-06
0.000136772
4.86982e-05
0.000149559
0.000104935
0.000155122
0.000185304
0.000153214
0.000296115
0.000144365
0.000421923
0.000132451
0.000490659
0.000116269
0.000405437
6.77246e-05
0.000144382
-3.20416e-06
-0.000218079
-9.35505e-05
-0.000554399
-0.000122173
-0.000705913
-0.000372024
-7.07159e-05
-0.000234153
-0.000244344
-0.000463472
-0.000406176
-0.000342054
-0.000514733
-8.04164e-05
-0.000546209
0.000186134
-0.000505786
0.00036055
-0.000428914
0.000404774
-0.000353219
0.000335409
-0.000293151
0.000221097
-0.000244457
0.000116604
-0.000200836
3.63579e-05
-0.000157897
-2.31193e-05
-0.000115669
-6.71313e-05
-7.37315e-05
-9.95801e-05
-3.2302e-05
-0.000121354
7.03757e-06
-0.000133102
4.41269e-05
-0.000134706
7.75209e-05
-0.000127085
0.000107037
-0.000111077
0.000130422
-8.51684e-05
0.000145793
-5.04523e-05
0.000150594
-8.12795e-06
0.000144702
3.62509e-05
0.000129924
7.7626e-05
0.00010786
0.00011388
8.04282e-05
0.000143519
4.83213e-05
0.000166284
1.30176e-05
0.000181266
-2.52943e-05
0.000188219
-6.49134e-05
0.000185072
-0.000104096
0.000171451
-0.000139484
0.000145378
-0.000167484
0.00010655
-0.000184158
5.56661e-05
-0.000186647
-6.28791e-06
-0.000174147
-7.39552e-05
-0.000148347
-0.000141319
-0.000112272
-0.00020188
-6.92842e-05
-0.000249313
-2.26692e-05
-0.000276906
2.42386e-05
-0.000278443
6.79933e-05
-0.000254627
0.000105471
-0.000213576
0.0001341
-0.000161498
0.000151351
-0.000102764
0.000155232
-4.1077e-05
0.000144174
2.052e-05
0.000120967
7.20417e-05
8.83311e-05
0.000113654
5.1084e-05
0.000141321
1.34613e-05
0.000154618
-2.06475e-05
0.000154428
-5.10758e-05
0.000145239
-7.59234e-05
0.000128083
-9.60619e-05
0.000106581
-0.000111004
8.04354e-05
-0.000120176
5.07691e-05
-0.000122054
1.72496e-05
-0.000115282
-1.83134e-05
-9.91806e-05
-5.28958e-05
-7.60929e-05
-8.01312e-05
-4.83908e-05
-9.82889e-05
-1.8337e-05