/*--------------------------------*- C++ -*----------------------------------*\
| =========                 |                                                 |
| \\      /  F ield         | OpenFOAM: The Open Source CFD Toolbox           |
|  \\    /   O peration     | Version:  2412                                  |
|   \\  /    A nd           | Website:  www.openfoam.com                      |
|    \\/     M anipulation  |                                                 |
\*---------------------------------------------------------------------------*/
FoamFile
{
    version     2.0;
    format      ascii;
    arch        "LSB;label=32;scalar=64";
    class       surfaceScalarField;
    location    "7.55";
    object      alphaPhi0.gasoline;
}
// * * * * * * * * * * * * * * * * * * * * * * * * * * * * * * * * * * * * * //

dimensions      [0 3 -1 0 0 0 0];

oriented        oriented;

internalField   nonuniform List<scalar> 
12640
(
-1.72454e-06
1.72453e-06
-3.98453e-07
-1.32587e-06
2.80067e-06
-3.19903e-06
6.22382e-06
-3.42321e-06
8.45897e-06
-2.23514e-06
8.55542e-06
-9.64199e-08
6.00898e-06
2.54649e-06
6.67652e-07
5.34129e-06
-7.30952e-06
7.97717e-06
-1.74974e-05
1.01881e-05
-2.95094e-05
1.2012e-05
-4.29445e-05
1.34352e-05
-5.73485e-05
1.44044e-05
-7.22309e-05
1.48819e-05
-8.71904e-05
1.49595e-05
-0.000101803
1.46118e-05
-0.000115711
1.39083e-05
-0.000128575
1.28645e-05
-0.000140141
1.15655e-05
-0.000150196
1.00546e-05
-0.000158557
8.3601e-06
-0.000165092
6.53468e-06
-0.000169708
4.61651e-06
-0.000172349
2.64087e-06
-0.000173003
6.53787e-07
-0.000171682
-1.31996e-06
-0.000168417
-3.2646e-06
-0.000163301
-5.11504e-06
-0.000156448
-6.85188e-06
-0.000147971
-8.47436e-06
-0.000137976
-9.99493e-06
-0.00012659
-1.13848e-05
-0.000113927
-1.26616e-05
-0.000100142
-1.37838e-05
-8.53462e-05
-1.47952e-05
-6.9721e-05
-1.56242e-05
-5.34104e-05
-1.63096e-05
-3.65296e-05
-1.68806e-05
-1.92469e-05
-1.7283e-05
-1.75607e-06
-1.74907e-05
1.57746e-05
-1.75304e-05
3.31894e-05
-1.7415e-05
5.02915e-05
-1.7103e-05
6.69285e-05
-1.66379e-05
8.2959e-05
-1.6031e-05
9.81719e-05
-1.52132e-05
0.000112448
-1.42766e-05
0.000125644
-1.31959e-05
0.000137607
-1.19629e-05
0.000148155
-1.05481e-05
0.000157178
-9.02236e-06
0.00016455
-7.37199e-06
0.000170147
-5.59662e-06
0.000173833
-3.68654e-06
0.00017554
-1.70747e-06
0.000175197
3.43209e-07
0.0001728
2.39717e-06
0.000168362
4.43833e-06
0.000161912
6.44985e-06
0.000153524
8.388e-06
0.000143365
1.01593e-05
0.000131594
1.17722e-05
0.000118441
1.31533e-05
0.000104189
1.42518e-05
8.91635e-05
1.50259e-05
7.3708e-05
1.54548e-05
5.82799e-05
1.54275e-05
4.33861e-05
1.48936e-05
2.94964e-05
1.38897e-05
1.70472e-05
1.2449e-05
6.48494e-06
1.05615e-05
-1.75574e-06
8.23974e-06
-7.19633e-06
5.44028e-06
-9.68092e-06
2.48469e-06
-9.36611e-06
-3.15102e-07
-6.82946e-06
-2.5368e-06
-3.11145e-06
-3.71705e-06
2.82022e-07
-3.39225e-06
1.672e-06
-1.39045e-06
1.6724e-06
-1.27223e-07
1.85221e-06
5.07016e-06
-6.52327e-06
1.39376e-05
-1.20667e-05
2.36467e-05
-1.31325e-05
3.19188e-05
-1.05072e-05
3.71302e-05
-5.30779e-06
3.84043e-05
1.27236e-06
3.55015e-05
8.24415e-06
2.86257e-05
1.4853e-05
1.81965e-05
2.06177e-05
4.87986e-06
2.53287e-05
-1.0562e-05
2.88764e-05
-2.74245e-05
3.12671e-05
-4.5154e-05
3.26109e-05
-6.31471e-05
3.29526e-05
-8.1e-05
3.24642e-05
-9.82489e-05
3.11567e-05
-0.000114484
2.90993e-05
-0.000129369
2.64501e-05
-0.00014262
2.33056e-05
-0.000153993
1.97332e-05
-0.00016329
1.58314e-05
-0.000170362
1.1689e-05
-0.000175131
7.41058e-06
-0.000177566
3.08995e-06
-0.000177716
-1.1687e-06
-0.000175621
-5.35752e-06
-0.000171394
-9.34062e-06
-0.000165109
-1.31364e-05
-0.000156905
-1.66778e-05
-0.000146938
-1.99612e-05
-0.000135358
-2.29646e-05
-0.000122282
-2.57374e-05
-0.000107879
-2.81864e-05
-9.23597e-05
-3.03143e-05
-7.58684e-05
-3.21158e-05
-5.85679e-05
-3.36104e-05
-4.0657e-05
-3.47915e-05
-2.22961e-05
-3.56441e-05
-3.68813e-06
-3.60996e-05
1.49674e-05
-3.61869e-05
3.34692e-05
-3.59173e-05
5.16572e-05
-3.52909e-05
6.93081e-05
-3.42884e-05
8.62248e-05
-3.29473e-05
0.000102261
-3.12492e-05
0.00011719
-2.92055e-05
0.00013084
-2.68451e-05
0.000143052
-2.4175e-05
0.0001537
-2.11963e-05
0.00016255
-1.78727e-05
0.000169464
-1.42863e-05
0.000174289
-1.04207e-05
0.000176913
-6.31102e-06
0.000177271
-2.06496e-06
0.000175298
2.31568e-06
0.000170936
6.75974e-06
0.000164179
1.11952e-05
0.000155104
1.55256e-05
0.000143856
1.96365e-05
0.00013058
2.34351e-05
0.000115537
2.68167e-05
9.90481e-05
2.96421e-05
8.1446e-05
3.18536e-05
6.31386e-05
3.33327e-05
4.4609e-05
3.39839e-05
2.63111e-05
3.37254e-05
8.82453e-06
3.23806e-05
-7.14871e-06
2.98627e-05
-2.08633e-05
2.61627e-05
-3.15721e-05
2.12695e-05
-3.85659e-05
1.52334e-05
-4.13813e-05
8.25609e-06
-3.97771e-05
8.8079e-07
-3.40347e-05
-6.05741e-06
-2.51437e-05
-1.14266e-05
-1.48276e-05
-1.40319e-05
-5.4475e-06
-1.27737e-05
7.48366e-08
-6.91339e-06
1.74841e-06
1.04389e-06
8.08432e-07
8.6076e-06
-1.40876e-05
2.06862e-05
-2.41457e-05
3.4266e-05
-2.67125e-05
4.64558e-05
-2.26972e-05
5.51246e-05
-1.39767e-05
5.90583e-05
-2.66153e-06
5.79357e-05
9.36657e-06
5.20586e-05
2.07297e-05
4.20391e-05
3.0637e-05
2.87004e-05
3.86676e-05
1.28588e-05
4.47176e-05
-4.75039e-06
4.8876e-05
-2.34127e-05
5.1273e-05
-4.25559e-05
5.20963e-05
-6.15956e-05
5.15041e-05
-8.00971e-05
4.96577e-05
-9.75763e-05
4.65785e-05
-0.000113697
4.25711e-05
-0.000128153
3.77624e-05
-0.000140683
3.22646e-05
-0.000151099
2.62472e-05
-0.000159242
1.98336e-05
-0.000165057
1.32253e-05
-0.000168496
6.52963e-06
-0.000169576
-9.06976e-08
-0.000168411
-6.5254e-06
-0.000165038
-1.27164e-05
-0.000159613
-1.85636e-05
-0.000152215
-2.4077e-05
-0.000143012
-2.9166e-05
-0.000132124
-3.38552e-05
-0.000119819
-3.80448e-05
-0.000106097
-4.19105e-05
-9.11897e-05
-4.52232e-05
-7.52533e-05
-4.80528e-05
-5.84494e-05
-5.04145e-05
-4.09648e-05
-5.22771e-05
-2.30007e-05
-5.36094e-05
-4.75392e-06
-5.43464e-05
1.35527e-05
-5.44924e-05
3.17012e-05
-5.40644e-05
4.94668e-05
-5.30557e-05
6.66406e-05
-5.1462e-05
8.30447e-05
-4.93512e-05
9.85002e-05
-4.67046e-05
0.000112807
-4.35125e-05
0.000125831
-3.98694e-05
0.000137369
-3.57127e-05
0.000147231
-3.10587e-05
0.000155298
-2.59394e-05
0.000161412
-2.04005e-05
0.0001654
-1.44083e-05
0.000167247
-8.15847e-06
0.000166738
-1.55585e-06
0.00016383
5.22329e-06
0.000158486
1.21031e-05
0.000150716
1.89658e-05
0.00014059
2.56512e-05
0.000128227
3.19996e-05
0.000113814
3.78491e-05
9.75916e-05
4.30394e-05
7.98618e-05
4.73723e-05
6.10683e-05
5.06475e-05
4.15844e-05
5.28174e-05
2.19432e-05
5.36259e-05
2.72987e-06
5.29397e-05
-1.54324e-05
5.05436e-05
-3.18167e-05
4.62472e-05
-4.55863e-05
3.99321e-05
-5.58589e-05
3.15424e-05
-6.17863e-05
2.11616e-05
-6.27201e-05
9.19072e-06
-5.83251e-05
-3.51491e-06
-4.89847e-05
-1.53986e-05
-3.5993e-05
-2.44185e-05
-2.1626e-05
-2.8401e-05
-8.9299e-06
-2.54723e-05
-1.02316e-06
-1.48184e-05
7.23205e-07
1.42273e-06
-6.14607e-07
1.02883e-05
-2.29541e-05
2.48253e-05
-3.86833e-05
4.19226e-05
-4.38103e-05
5.78878e-05
-3.86628e-05
6.95973e-05
-2.56867e-05
7.52963e-05
-8.36111e-06
7.47133e-05
9.94912e-06
6.85304e-05
2.69122e-05
5.77087e-05
4.14583e-05
4.3294e-05
5.3082e-05
2.62482e-05
6.17636e-05
7.39911e-06
6.77253e-05
-1.25303e-05
7.12023e-05
-3.28707e-05
7.24366e-05
-5.30567e-05
7.1691e-05
-7.25767e-05
6.91785e-05
-9.1045e-05
6.50471e-05
-0.000108056
5.95827e-05
-0.000123295
5.3001e-05
-0.000136513
4.54827e-05
-0.000147525
3.72597e-05
-0.000156193
2.85012e-05
-0.000162431
1.9463e-05
-0.000166244
1.03415e-05
-0.000167657
1.32232e-06
-0.000166737
-7.44535e-06
-0.000163615
-1.58383e-05
-0.000158413
-2.37658e-05
-0.000151262
-3.12283e-05
-0.000142312
-3.81169e-05
-0.000131714
-4.44537e-05
-0.000119529
-5.02295e-05
-0.000106088
-5.53519e-05
-9.14e-05
-5.99114e-05
-7.56307e-05
-6.38234e-05
-5.89439e-05
-6.71025e-05
-4.14813e-05
-6.97402e-05
-2.35059e-05
-7.1585e-05
-5.2199e-06
-7.26332e-05
1.31379e-05
-7.28517e-05
3.13441e-05
-7.22723e-05
4.91017e-05
-7.08145e-05
6.62203e-05
-6.85813e-05
8.25232e-05
-6.56544e-05
9.78132e-05
-6.19948e-05
0.000111991
-5.76902e-05
0.000124807
-5.26849e-05
0.00013612
-4.70252e-05
0.000145788
-4.07276e-05
0.000153635
-3.37863e-05
0.000159512
-2.62782e-05
0.000163382
-1.82789e-05
0.000164981
-9.75832e-06
0.000164231
-8.06427e-07
0.000161013
8.44174e-06
0.000155285
1.78306e-05
0.000147048
2.7202e-05
0.000136355
3.63445e-05
0.000123332
4.50222e-05
0.000108151
5.30314e-05
9.10503e-05
6.01405e-05
7.23528e-05
6.60704e-05
5.2458e-05
7.05426e-05
3.18132e-05
7.34623e-05
1.09299e-05
7.45094e-05
-9.60296e-06
7.34729e-05
-2.91094e-05
7.005e-05
-4.68099e-05
6.39473e-05
-6.17684e-05
5.48909e-05
-7.29153e-05
4.26901e-05
-7.91744e-05
2.74213e-05
-7.95347e-05
9.55098e-06
-7.32582e-05
-9.79166e-06
-6.06759e-05
-2.79801e-05
-4.37021e-05
-4.1392e-05
-2.57015e-05
-4.6403e-05
-1.05537e-05
-4.06182e-05
-1.39537e-06
-2.39763e-05
-6.7228e-07
1.22229e-06
-1.83747e-06
1.04125e-05
-3.21454e-05
2.71998e-05
-5.54712e-05
4.87984e-05
-6.54095e-05
7.01772e-05
-6.00423e-05
8.61238e-05
-4.16342e-05
9.36716e-05
-1.59096e-05
9.27377e-05
1.08826e-05
8.48815e-05
3.47682e-05
7.17858e-05
5.45542e-05
5.49171e-05
6.99503e-05
3.54749e-05
8.12058e-05
1.44165e-05
8.87842e-05
-7.51542e-06
9.31353e-05
-2.96515e-05
9.45729e-05
-5.14623e-05
9.35014e-05
-7.23994e-05
9.01155e-05
-9.21247e-05
8.47726e-05
-0.00011023
7.76886e-05
-0.00012637
6.91411e-05
-0.000140299
5.94132e-05
-0.000151853
4.88141e-05
-0.000160884
3.75341e-05
-0.000167351
2.59311e-05
-0.000171249
1.42429e-05
-0.000172639
2.71502e-06
-0.000171602
-8.4808e-06
-0.000168265
-1.91745e-05
-0.000162785
-2.92445e-05
-0.000155348
-3.86644e-05
-0.000146095
-4.73677e-05
-0.000135214
-5.53335e-05
-0.000122784
-6.26586e-05
-0.000109011
-6.91264e-05
-9.4008e-05
-7.49149e-05
-7.78961e-05
-7.99348e-05
-6.07707e-05
-8.42271e-05
-4.28805e-05
-8.76307e-05
-2.43772e-05
-9.00898e-05
-5.52442e-06
-9.14875e-05
1.34062e-05
-9.17831e-05
3.21833e-05
-9.10496e-05
5.04492e-05
-8.90806e-05
6.80206e-05
-8.6153e-05
8.47661e-05
-8.24004e-05
0.000100436
-7.76655e-05
0.000114933
-7.21881e-05
0.000128091
-6.58441e-05
0.000139746
-5.86814e-05
0.000149764
-5.0746e-05
0.000157922
-4.19457e-05
0.000164152
-3.25091e-05
0.000168259
-2.23859e-05
0.000170064
-1.15644e-05
0.000169394
-1.36676e-07
0.000166141
1.16947e-05
0.000160248
2.37225e-05
0.000151689
3.57608e-05
0.000140505
4.75292e-05
0.000126797
5.873e-05
0.000110724
6.9104e-05
9.25439e-05
7.83206e-05
7.2581e-05
8.60329e-05
5.1185e-05
9.19381e-05
2.88446e-05
9.58025e-05
6.03343e-06
9.73207e-05
-1.66586e-05
9.6165e-05
-3.85507e-05
9.1942e-05
-5.88149e-05
8.42113e-05
-7.64031e-05
7.24794e-05
-9.00213e-05
5.63093e-05
-9.80746e-05
3.54753e-05
-9.88024e-05
1.02789e-05
-9.04467e-05
-1.81465e-05
-7.32504e-05
-4.51747e-05
-5.05242e-05
-6.4118e-05
-2.78776e-05
-6.90474e-05
-1.04826e-05
-5.80118e-05
-1.14272e-06
-3.33177e-05
-1.81276e-06
3.45572e-08
-1.8727e-06
8.51093e-06
-4.06229e-05
2.86443e-05
-7.56054e-05
5.74525e-05
-9.42183e-05
8.68157e-05
-8.94063e-05
0.000108541
-6.336e-05
0.000118187
-2.55563e-05
0.000116024
1.30458e-05
0.000105034
4.57581e-05
8.80617e-05
7.15267e-05
6.72908e-05
9.07218e-05
4.42595e-05
0.000104238
2.00182e-05
0.000113025
-4.70463e-06
0.000117859
-2.9363e-05
0.000119233
-5.33923e-05
0.000117532
-7.6327e-05
0.000113051
-9.77349e-05
0.000106182
-0.000117254
9.72088e-05
-0.000134569
8.64573e-05
-0.000149396
7.42404e-05
-0.000161567
6.09865e-05
-0.000170955
4.69232e-05
-0.00017754
3.25165e-05
-0.000181338
1.8041e-05
-0.000182432
3.80935e-06
-0.000180963
-9.9501e-06
-0.00017708
-2.30575e-05
-0.000170977
-3.53469e-05
-0.000162894
-4.67479e-05
-0.000152965
-5.72986e-05
-0.000141321
-6.6979e-05
-0.000128338
-7.56421e-05
-0.000113935
-8.35287e-05
-9.82779e-05
-9.05727e-05
-8.14411e-05
-9.67724e-05
-6.36579e-05
-0.000102011
-4.497e-05
-0.000106318
-2.56018e-05
-0.000109457
-5.84422e-06
-0.000111244
1.3995e-05
-0.000111622
3.36239e-05
-0.000110678
5.27189e-05
-0.000108176
7.11588e-05
-0.000104593
8.86466e-05
-9.98888e-05
0.000105057
-9.40762e-05
0.000120236
-8.73684e-05
0.000134142
-7.975e-05
0.00014649
-7.10303e-05
0.000157159
-6.14158e-05
0.000166136
-5.09234e-05
0.000173048
-3.94216e-05
0.000177755
-2.70928e-05
0.000180048
-1.38576e-05
0.00017975
1.60708e-07
0.000176668
1.47763e-05
0.000170734
2.96563e-05
0.000161888
4.46071e-05
0.00015014
5.92763e-05
0.00013558
7.32904e-05
0.000118369
8.63152e-05
9.87619e-05
9.79278e-05
7.70793e-05
0.000107716
5.36538e-05
0.000115365
2.89612e-05
0.000120496
3.47917e-06
0.000122803
-2.22456e-05
0.00012189
-4.7564e-05
0.00011726
-7.16568e-05
0.000108304
-9.34482e-05
9.42711e-05
-0.000111267
7.41282e-05
-0.000122715
4.69225e-05
-0.000124699
1.22622e-05
-0.000114168
-2.86765e-05
-9.09661e-05
-6.83769e-05
-5.98381e-05
-9.52467e-05
-2.94365e-05
-9.94474e-05
-8.46435e-06
-7.89864e-05
1.29469e-07
-4.19108e-05
-1.6838e-06
-1.30194e-06
-5.71462e-07
1.10557e-05
-5.29812e-05
4.50884e-05
-0.000109639
8.99701e-05
-0.0001391
0.000127937
-0.000127374
0.000149822
-8.5245e-05
0.000155283
-3.10171e-05
0.00014773
2.05994e-05
0.000130903
6.25847e-05
0.000107966
9.44639e-05
8.16792e-05
0.000117009
5.38754e-05
0.000132043
2.55566e-05
0.000141345
-2.69169e-06
0.000146107
-3.04758e-05
0.000147018
-5.72354e-05
0.000144292
-8.2583e-05
0.0001384
-0.000106104
0.000129703
-0.000127396
0.000118501
-0.000146164
0.000105226
-0.000162085
9.01596e-05
-0.000174961
7.38613e-05
-0.000184709
5.66691e-05
-0.000191329
3.91339e-05
-0.00019487
2.15803e-05
-0.000195462
4.40055e-06
-0.000193274
-1.21403e-05
-0.000188596
-2.77382e-05
-0.000181608
-4.2338e-05
-0.000172583
-5.57744e-05
-0.000161722
-6.81612e-05
-0.000149296
-7.94063e-05
-0.000135354
-8.9585e-05
-0.000120092
-9.87909e-05
-0.000103615
-0.000107051
-8.60032e-05
-0.000114383
-6.72654e-05
-0.000120748
-4.75535e-05
-0.00012603
-2.71115e-05
-0.000129899
-6.20388e-06
-0.000132152
1.48173e-05
-0.000132643
3.55302e-05
-0.000131391
5.57178e-05
-0.000128363
7.50699e-05
-0.000123945
9.34384e-05
-0.000118257
0.000110857
-0.000111494
0.000126991
-0.000103502
0.000141745
-9.45036e-05
0.000155159
-8.44449e-05
0.00016694
-7.31969e-05
0.000176856
-6.08395e-05
0.00018474
-4.73065e-05
0.000190322
-3.26746e-05
0.000193359
-1.68947e-05
0.000193609
-8.91436e-08
0.000190856
1.75301e-05
0.000184978
3.55349e-05
0.000175882
5.37033e-05
0.000163491
7.16667e-05
0.000147934
8.88488e-05
0.000129324
0.000104927
0.00010795
0.000119302
8.40904e-05
0.000131578
5.81516e-05
0.000141305
3.0562e-05
0.000148087
1.79497e-06
0.000151571
-2.77189e-05
0.000151404
-5.73907e-05
0.000146932
-8.66344e-05
0.000137548
-0.000114335
0.000121972
-0.000138577
9.83704e-05
-0.000156487
6.48313e-05
-0.0001648
2.05748e-05
-0.000159661
-3.38153e-05
-0.00013717
-9.087e-05
-9.70935e-05
-0.000135323
-4.89371e-05
-0.000147605
-1.20661e-05
-0.000115858
1.4275e-06
-5.54023e-05
-2.57592e-07
3.01458e-06
-3.58663e-06
4.14345e-05
-9.1401e-05
0.000118519
-0.000186723
0.000196105
-0.000216687
0.000240035
-0.000171304
0.000243841
-8.90514e-05
0.000222377
-9.55233e-06
0.000194098
4.88792e-05
0.000163795
9.28879e-05
0.000131543
0.000126716
9.79554e-05
0.000150597
6.42088e-05
0.00016579
3.10256e-05
0.000174529
-1.32701e-06
0.000178461
-3.26379e-05
0.000178329
-6.25797e-05
0.000174235
-9.08072e-05
0.000166627
-0.000116851
0.000155747
-0.000140308
0.000141957
-0.000160717
0.000125634
-0.000177889
0.000107332
-0.000191567
8.75395e-05
-0.0002017
6.68021e-05
-0.000208251
4.56841e-05
-0.000211385
2.47131e-05
-0.000211262
4.27613e-06
-0.000208165
-1.52382e-05
-0.000202358
-3.35454e-05
-0.000194149
-5.05465e-05
-0.000183928
-6.59949e-05
-0.000171891
-8.01979e-05
-0.000158336
-9.29605e-05
-0.000143376
-0.000104544
-0.000127184
-0.000114983
-0.00010981
-0.000124424
-9.12432e-05
-0.000132951
-7.14533e-05
-0.000140538
-5.05771e-05
-0.000146906
-2.88716e-05
-0.000151604
-6.61959e-06
-0.000154403
1.57642e-05
-0.000155027
3.7771e-05
-0.000153398
5.91988e-05
-0.00014979
7.97049e-05
-0.000144451
9.91744e-05
-0.000137727
0.000117463
-0.000129783
0.000134779
-0.000120818
0.000150724
-0.000110448
0.000165262
-9.89834e-05
0.000178264
-8.61989e-05
0.000189424
-7.19992e-05
0.000198585
-5.64679e-05
0.000205359
-3.94479e-05
0.000209411
-2.09467e-05
0.000210477
-1.15473e-06
0.00020828
1.97284e-05
0.000202575
4.12403e-05
0.00019321
6.30688e-05
0.000180164
8.47132e-05
0.000163445
0.000105568
0.000143257
0.000125115
0.000119735
0.000142824
9.33448e-05
0.000157968
6.4428e-05
0.000170222
3.34577e-05
0.000179057
8.9803e-07
0.000184131
-3.29623e-05
0.000185265
-6.7849e-05
0.00018182
-0.000103396
0.000173097
-0.000139019
0.000157596
-0.000173483
0.000132834
-0.000206536
9.78836e-05
-0.000238224
5.22628e-05
-0.000262908
-9.13291e-06
-0.000259973
-9.38065e-05
-0.000213619
-0.000181675
-0.000130568
-0.000230659
-4.66645e-05
-0.000199759
-3.76531e-06
-9.83027e-05
-4.02284e-06
2.4719e-05
-2.83059e-05
0.000126997
-0.000193678
0.0002683
-0.000328025
0.000382806
-0.000331193
0.000430657
-0.000219155
0.000406347
-6.47409e-05
0.000338138
5.86566e-05
0.000264455
0.000122563
0.000205201
0.000152142
0.000157488
0.000174429
0.000114609
0.000193475
7.42449e-05
0.000206154
3.59193e-05
0.000212854
-9.1895e-07
0.000215299
-3.61462e-05
0.000213557
-6.97138e-05
0.000207802
-0.000101202
0.000198115
-0.000130158
0.000184704
-0.000156011
0.000167812
-0.000178434
0.000148059
-0.000197005
0.000125904
-0.000211544
0.00010208
-0.000221997
7.72556e-05
-0.000228413
5.21009e-05
-0.000230922
2.72226e-05
-0.000229814
3.17046e-06
-0.000225412
-1.96381e-05
-0.000218164
-4.07912e-05
-0.000208423
-6.02857e-05
-0.000196587
-7.78299e-05
-0.000183151
-9.36329e-05
-0.000168311
-0.000107799
-0.000152189
-0.000120664
-0.000135011
-0.00013216
-0.000116689
-0.000142745
-9.71034e-05
-0.000152535
-7.63475e-05
-0.000161293
-5.42994e-05
-0.000168953
-3.10513e-05
-0.000174851
-7.05543e-06
-0.000178399
1.70525e-05
-0.000179134
4.06492e-05
-0.000176994
6.33154e-05
-0.000172457
8.4882e-05
-0.000166018
0.000105531
-0.000158376
0.000124994
-0.000149247
0.000143268
-0.000139093
0.000160629
-0.000127809
0.000176601
-0.000114956
0.000191134
-0.000100732
0.000203853
-8.47185e-05
0.000214569
-6.71836e-05
0.000222841
-4.77192e-05
0.000228242
-2.63473e-05
0.000230437
-3.34849e-06
0.000229019
2.11469e-05
0.000223656
4.66046e-05
0.000214153
7.25712e-05
0.000200417
9.84484e-05
0.000182405
0.00012358
0.000160332
0.000147188
0.000134504
0.000168652
0.000105143
0.000187329
7.28466e-05
0.000202518
3.8052e-05
0.000213852
1.18372e-06
0.000221
-3.73399e-05
0.00022379
-7.77744e-05
0.000222255
-0.000120462
0.000215785
-0.000166056
0.000203189
-0.000217543
0.000184321
-0.000282272
0.000162613
-0.000361947
0.000131939
-0.000433941
6.28609e-05
-0.000459142
-6.86054e-05
-0.000409611
-0.000231206
-0.000289865
-0.000350405
-0.00013944
-0.000350182
-2.76122e-05
-0.000210132
-3.16335e-05
7.27836e-05
-0.000101089
0.000250797
-0.000371691
0.000430065
-0.000507294
0.000552105
-0.000453233
0.0005967
-0.000263722
0.000562603
-3.06202e-05
0.000464188
0.000157073
0.000347734
0.000239017
0.00025163
0.000248246
0.000182424
0.000243636
0.000128956
0.000246943
8.23268e-05
0.000252784
3.90759e-05
0.000256106
-2.06674e-06
0.000256442
-4.14281e-05
0.000252918
-7.8945e-05
0.00024532
-0.00011423
0.0002334
-0.000146521
0.000216996
-0.000175296
0.000196587
-0.000199893
0.000172656
-0.000220065
0.000146076
-0.000235495
0.00011751
-0.000246192
8.79536e-05
-0.000252214
5.81233e-05
-0.000253801
2.88114e-05
-0.000251285
6.55305e-07
-0.000245125
-2.57986e-05
-0.000235892
-5.0025e-05
-0.000224227
-7.1951e-05
-0.000210498
-9.15583e-05
-0.000195299
-0.000108831
-0.000178764
-0.000124334
-0.000161514
-0.000137914
-0.000143333
-0.000150341
-0.000124122
-0.000161957
-0.000103904
-0.000172754
-8.21632e-05
-0.000183034
-5.87536e-05
-0.000192363
-3.367e-05
-0.000199935
-7.45251e-06
-0.000204616
1.88463e-05
-0.000205433
4.41907e-05
-0.000202339
6.82604e-05
-0.000196526
9.10202e-05
-0.000188778
0.000112475
-0.00017983
0.000133028
-0.000169801
0.00015266
-0.000158724
0.00017124
-0.000146389
0.000188931
-0.000132647
0.000205216
-0.000117016
0.000219986
-9.94883e-05
0.000232665
-7.98619e-05
0.000242762
-5.78158e-05
0.000249996
-3.35813e-05
0.000253764
-7.11639e-06
0.000253477
2.14343e-05
0.000248744
5.13375e-05
0.000239253
8.2063e-05
0.000224823
0.000112879
0.000205441
0.000142962
0.000181228
0.000171402
0.000152567
0.000197313
0.000119878
0.000220018
8.37311e-05
0.000238665
4.4792e-05
0.000252791
3.6099e-06
0.000262182
-3.97751e-05
0.000267174
-8.53627e-05
0.000267842
-0.00013472
0.000265142
-0.000191646
0.000260117
-0.000265785
0.000258461
-0.000367744
0.000264575
-0.000488216
0.000252411
-0.00058757
0.000162216
-0.000622232
-3.39014e-05
-0.000578995
-0.000274336
-0.00045593
-0.000473469
-0.000269659
-0.000536453
-7.92812e-05
-0.00040051
-0.000110916
0.00013313
-0.000234219
0.000338119
-0.00057668
0.000491987
-0.000661175
0.000580148
-0.000541398
0.000609999
-0.000293573
0.000584048
-4.594e-06
0.000498187
0.000242973
0.000384787
0.000352417
0.000278541
0.000354491
0.000197625
0.000324552
0.000137219
0.00030735
8.66015e-05
0.000303401
3.97639e-05
0.000302944
-5.24793e-06
0.000301454
-4.89327e-05
0.000296603
-9.09482e-05
0.000287336
-0.000130399
0.000272851
-0.000166617
0.000253214
-0.000198648
0.000228617
-0.000225905
0.000199912
-0.000247796
0.000167967
-0.000264221
0.000133934
-0.000274965
9.86975e-05
-0.000280296
6.34518e-05
-0.000280492
2.90058e-05
-0.00027604
-3.79964e-06
-0.000267574
-3.42669e-05
-0.00025593
-6.16707e-05
-0.000241677
-8.62054e-05
-0.000225487
-0.00010775
-0.000208005
-0.000126314
-0.000189767
-0.000142573
-0.000170942
-0.000156738
-0.000151608
-0.000169674
-0.000131978
-0.000181586
-0.000111178
-0.000193553
-8.85595e-05
-0.000205653
-6.38106e-05
-0.000217111
-3.66128e-05
-0.000227132
-7.87048e-06
-0.000233359
2.09628e-05
-0.000234266
4.83938e-05
-0.00022977
7.38371e-05
-0.00022197
9.7546e-05
-0.000212487
0.000119858
-0.000202143
0.000141247
-0.000191189
0.000162119
-0.000179595
0.000182362
-0.000166633
0.00020197
-0.000152253
0.000220504
-0.000135551
0.000237649
-0.000116634
0.000252831
-9.50439e-05
0.000265477
-7.04617e-05
0.000275076
-4.31803e-05
0.000280967
-1.30069e-05
0.000282261
2.01403e-05
0.000278506
5.50934e-05
0.000269277
9.12926e-05
0.000254255
0.000127901
0.000233354
0.000163863
0.000206871
0.000197885
0.000174962
0.000229222
0.00013837
0.00025661
9.78463e-05
0.000279188
5.42489e-05
0.000296388
8.41498e-06
0.000308016
-3.91369e-05
0.000314727
-8.87378e-05
0.000317444
-0.000142265
0.000318669
-0.00020605
0.000323901
-0.000290686
0.000343097
-0.000399372
0.000373261
-0.000512185
0.000365224
-0.00059568
0.000245758
-0.000622758
-6.51675e-06
-0.000596478
-0.000300615
-0.000512599
-0.000557283
-0.000357329
-0.000691737
-0.000142575
-0.000615263
-0.000253492
0.000164107
-0.000398325
0.000319905
-0.000732478
0.000403532
-0.000744857
0.000443102
-0.000580974
0.000457743
-0.000308214
0.000439611
1.35362e-05
0.000397598
0.000285071
0.000331006
0.00041902
0.000256741
0.000428756
0.000190716
0.000390577
0.000135507
0.00036256
8.58856e-05
0.000353022
3.75865e-05
0.000351243
-1.07801e-05
0.000349821
-5.87808e-05
0.000344604
-0.000105792
0.000334347
-0.000150526
0.000317585
-0.000191357
0.000294045
-0.000227243
0.000264505
-0.000257402
0.000230071
-0.000281293
0.000191858
-0.000298478
0.000151119
-0.000309162
0.00010938
-0.00031332
6.76095e-05
-0.000311542
2.72279e-05
-0.000304389
-1.09526e-05
-0.000292931
-4.57246e-05
-0.000277947
-7.66554e-05
-0.000260383
-0.000103768
-0.00024097
-0.000127162
-0.000220562
-0.000146721
-0.000200037
-0.000163099
-0.000179491
-0.000177284
-0.000159421
-0.000189745
-0.000139104
-0.000201903
-0.000117719
-0.000214938
-9.45095e-05
-0.000228863
-6.83453e-05
-0.000243276
-3.939e-05
-0.000256088
-8.58379e-06
-0.000264165
2.22339e-05
-0.000265084
5.15292e-05
-0.000259065
7.84216e-05
-0.000248863
0.000103241
-0.000237307
0.000126325
-0.000225226
0.000148739
-0.000213603
0.000170698
-0.000201554
0.00019295
-0.000188885
0.00021485
-0.000174153
0.000236315
-0.000157015
0.000256553
-0.000136872
0.000274944
-0.000113435
0.00029087
-8.63874e-05
0.000303585
-5.58956e-05
0.000312111
-2.15324e-05
0.000315824
1.64272e-05
0.0003137
5.72169e-05
0.000305044
9.99481e-05
0.000289573
0.000143371
0.000267252
0.000186185
0.000237935
0.000227201
0.00020238
0.000264777
0.000161204
0.000297786
0.000115475
0.000324919
6.66011e-05
0.000345262
1.59233e-05
0.000358695
-3.53467e-05
0.000365997
-8.67116e-05
0.000368808
-0.000139275
0.000371233
-0.000196986
0.000381611
-0.000264421
0.000410533
-0.00033797
0.00044681
-0.000401635
0.00042889
-0.00043972
0.000284115
-0.000456301
1.00625e-05
-0.000445031
-0.000311888
-0.000412405
-0.000589909
-0.000332745
-0.000771546
-0.000173252
-0.000774756
-0.000426743
0.000136591
-0.000534916
0.000210011
-0.000805898
0.000227101
-0.000761962
0.000226393
-0.00058046
0.00022663
-0.000308451
0.000226503
1.36623e-05
0.000229794
0.00028187
0.000221986
0.00042683
0.000199679
0.000451063
0.000166414
0.000423842
0.000126571
0.000402404
8.24996e-05
0.000397094
3.45259e-05
0.000399217
-1.66159e-05
0.000400963
-6.97926e-05
0.000397782
-0.000122782
0.000387337
-0.000173459
0.000368264
-0.000219992
0.00034058
-0.000260658
0.00030517
-0.000294301
0.000263715
-0.000320332
0.000217891
-0.000338538
0.000169327
-0.000348635
0.000119479
-0.000351172
7.0149e-05
-0.00034668
2.27374e-05
-0.000335925
-2.1706e-05
-0.000320353
-6.12948e-05
-0.000300956
-9.60525e-05
-0.000278996
-0.000125728
-0.000255635
-0.000150523
-0.000231804
-0.000170552
-0.000208218
-0.000186685
-0.000185557
-0.000199946
-0.000163828
-0.000211475
-0.000142293
-0.000223439
-0.00012022
-0.000237012
-9.62967e-05
-0.000252787
-6.96964e-05
-0.000269877
-4.08326e-05
-0.000284953
-1.01227e-05
-0.000294876
2.08143e-05
-0.000296022
5.04483e-05
-0.0002887
7.83261e-05
-0.000276742
0.000104234
-0.000263216
0.00012887
-0.000249863
0.000152877
-0.000237611
0.000176864
-0.000225542
0.00020136
-0.00021338
0.000226272
-0.000199065
0.000251049
-0.000181791
0.00027506
-0.000160882
0.000297391
-0.000135766
0.000317555
-0.000106551
0.000334299
-7.26406e-05
0.000346874
-3.41083e-05
0.000353645
9.65568e-06
0.000353691
5.71698e-05
0.000346148
0.000107492
0.000330436
0.000159083
0.000306445
0.000210176
0.000274306
0.00025934
0.000234483
0.000304601
0.000187873
0.000344396
0.000135962
0.000376831
8.06641e-05
0.000400561
2.44264e-05
0.000414934
-3.04806e-05
0.000420904
-8.21667e-05
0.000420495
-0.000129393
0.000418461
-0.000171339
0.000423558
-0.000204848
0.000444043
-0.000225212
0.000467174
-0.000230043
0.000433722
-0.000223002
0.000277192
-0.000220738
7.88078e-06
-0.000220887
-0.000311739
-0.000226401
-0.000584515
-0.000214497
-0.000783665
-0.000142619
-0.000846634
-0.000569362
7.92312e-05
-0.000614148
8.86355e-05
-0.000815304
6.72571e-05
-0.000740584
3.95463e-05
-0.000552749
2.83082e-05
-0.00029729
4.19684e-05
4.82655e-09
8.11247e-05
0.000242726
0.00012292
0.000385035
0.000146984
0.000427
0.000144956
0.000425871
0.000121858
0.000425501
8.4417e-05
0.000434536
3.71556e-05
0.000446479
-1.72564e-05
0.000455375
-7.62856e-05
0.000456811
-0.000136702
0.000447753
-0.000195309
0.00042687
-0.000249044
0.000394316
-0.000295518
0.000351646
-0.000333325
0.000301524
-0.000361945
0.000246511
-0.00038107
0.000188453
-0.000390738
0.000129148
-0.000391119
7.05305e-05
-0.000382913
1.4532e-05
-0.000367517
-3.71004e-05
-0.000346352
-8.24594e-05
-0.000321394
-0.00012101
-0.000293935
-0.000153186
-0.000265581
-0.000178877
-0.000237221
-0.000198912
-0.000209943
-0.000213963
-0.000184275
-0.000225615
-0.000160112
-0.000235638
-0.000137001
-0.00024655
-0.000114092
-0.000259922
-9.06827e-05
-0.000276197
-6.63335e-05
-0.000294227
-4.04313e-05
-0.000310855
-1.27718e-05
-0.000322536
1.55199e-05
-0.000324314
4.31023e-05
-0.000316284
7.01064e-05
-0.000303746
9.64868e-05
-0.000289597
0.00012278
-0.000276156
0.000148996
-0.000263826
0.00017582
-0.000252366
0.000203449
-0.000241008
0.000231932
-0.000227548
0.000260849
-0.000210707
0.000289191
-0.000189225
0.000316301
-0.000162877
0.000341415
-0.000131665
0.000363702
-9.49277e-05
0.000381209
-5.16142e-05
0.00039243
-1.56549e-06
0.000395582
5.40183e-05
0.000389568
0.000113507
0.000373869
0.000174782
0.000348139
0.000235907
0.000312711
0.000294768
0.00026772
0.000349593
0.000214372
0.000397745
0.000154602
0.000436601
9.1409e-05
0.000463755
2.82133e-05
0.000478131
-3.12945e-05
0.000480413
-8.34423e-05
0.000472644
-0.000124943
0.000459961
-0.00015085
0.000449466
-0.000153427
0.00044662
-0.000128302
0.00044205
-8.45177e-05
0.000389939
-4.44999e-05
0.000237175
-2.60031e-05
-1.06064e-05
-3.61561e-05
-0.000301752
-6.28854e-05
-0.000558171
-8.67416e-05
-0.000759808
-8.13737e-05
-0.000852002
-0.000650736
3.10177e-05
-0.000645165
9.25099e-06
-0.000793538
-2.17888e-05
-0.000709544
-5.38274e-05
-0.000520711
-7.06449e-05
-0.000280472
-4.35827e-05
-2.70577e-05
1.60692e-05
0.000183074
8.40183e-05
0.000317086
0.000132398
0.000378621
0.000148487
0.000409782
0.000135946
0.000438042
0.000102391
0.00046809
5.34393e-05
0.000495431
-6.3869e-06
0.000515201
-7.33971e-05
0.00052382
-0.000143657
0.000518013
-0.000212568
0.000495782
-0.000275494
0.000457242
-0.000329344
0.000405495
-0.000372455
0.000344634
-0.000404292
0.000278349
-0.00042484
0.000209
-0.00043389
0.000138198
-0.000431504
6.81445e-05
-0.000418428
1.45609e-06
-0.000396185
-5.93437e-05
-0.000367723
-0.000110921
-0.000335454
-0.000153279
-0.000301354
-0.000187287
-0.00026673
-0.000213502
-0.000232817
-0.000232825
-0.000200861
-0.000245919
-0.000171317
-0.000255158
-0.0001444
-0.000262555
-0.000120304
-0.000270646
-9.87853e-05
-0.000281441
-7.92015e-05
-0.000295781
-5.99515e-05
-0.000313477
-3.87065e-05
-0.000332101
-1.50563e-05
-0.000346187
9.62069e-06
-0.000348992
3.35857e-05
-0.000340249
5.66587e-05
-0.00032682
8.05959e-05
-0.000313535
0.000106489
-0.00030205
0.000134318
-0.000291655
0.000163981
-0.00028203
0.000195275
-0.000272302
0.000228371
-0.000260643
0.00026226
-0.000244596
0.00029583
-0.000222794
0.000328697
-0.000195744
0.000360403
-0.00016337
0.000389994
-0.000124518
0.000414753
-7.63721e-05
0.000432049
-1.8862e-05
0.000439303
4.6765e-05
0.000435188
0.000117622
0.000419162