/*--------------------------------*- C++ -*----------------------------------*\
| =========                 |                                                 |
| \\      /  F ield         | OpenFOAM: The Open Source CFD Toolbox           |
|  \\    /   O peration     | Version:  2412                                  |
|   \\  /    A nd           | Website:  www.openfoam.com                      |
|    \\/     M anipulation  |                                                 |
\*---------------------------------------------------------------------------*/
FoamFile
{
    version     2.0;
    format      ascii;
    arch        "LSB;label=32;scalar=64";
    class       volVectorField;
    location    "91";
    object      U;
}
// * * * * * * * * * * * * * * * * * * * * * * * * * * * * * * * * * * * * * //

dimensions      [0 1 -1 0 0 0 0];

internalField   nonuniform List<vector> 
6400
(
(-2.14521e-07 2.58907e-07 0)
(-1.78129e-06 2.87716e-07 0)
(-4.05092e-06 2.52994e-07 0)
(-5.65108e-06 1.36654e-07 0)
(-6.4687e-06 -2.84633e-08 0)
(-6.48371e-06 -2.57138e-07 0)
(-5.64991e-06 -4.72625e-07 0)
(-3.93912e-06 -6.95203e-07 0)
(-1.3844e-06 -8.63283e-07 0)
(2.03893e-06 -1.06967e-06 0)
(6.29904e-06 -1.24184e-06 0)
(1.13617e-05 -1.44443e-06 0)
(1.7087e-05 -1.57475e-06 0)
(2.34035e-05 -1.73985e-06 0)
(3.01938e-05 -1.83133e-06 0)
(3.74174e-05 -1.95233e-06 0)
(4.49424e-05 -1.96581e-06 0)
(5.2774e-05 -2.00218e-06 0)
(6.07986e-05 -1.98644e-06 0)
(6.8905e-05 -1.9487e-06 0)
(7.68679e-05 -1.80906e-06 0)
(8.46037e-05 -1.68283e-06 0)
(9.20301e-05 -1.4749e-06 0)
(9.92965e-05 -1.3283e-06 0)
(0.000106148 -1.19305e-06 0)
(0.000112539 -1.11135e-06 0)
(0.000118258 -8.06613e-07 0)
(0.000123103 -5.67676e-07 0)
(0.000127281 -3.94318e-07 0)
(0.00013081 -2.18711e-07 0)
(0.000133431 2.90014e-08 0)
(0.00013517 7.69496e-08 0)
(0.00013597 5.3578e-08 0)
(0.00013614 9.0959e-08 0)
(0.000135526 4.29138e-07 0)
(0.000133714 6.45094e-07 0)
(0.000131388 6.37663e-07 0)
(0.000127963 4.88549e-07 0)
(0.000123655 7.79614e-07 0)
(0.000118299 9.51272e-07 0)
(0.000112256 8.82353e-07 0)
(0.000105621 8.35985e-07 0)
(9.82536e-05 8.45823e-07 0)
(9.04953e-05 8.91722e-07 0)
(8.21112e-05 9.91347e-07 0)
(7.33328e-05 9.52505e-07 0)
(6.42854e-05 1.02336e-06 0)
(5.50441e-05 1.00362e-06 0)
(4.58106e-05 1.05188e-06 0)
(3.66355e-05 9.88345e-07 0)
(2.78017e-05 1.01657e-06 0)
(1.93e-05 8.8653e-07 0)
(1.14578e-05 8.66634e-07 0)
(4.1974e-06 6.94772e-07 0)
(-2.21751e-06 6.79673e-07 0)
(-7.95332e-06 4.86942e-07 0)
(-1.2694e-05 4.76642e-07 0)
(-1.66574e-05 2.84302e-07 0)
(-1.95942e-05 3.15639e-07 0)
(-2.18521e-05 1.36627e-07 0)
(-2.31662e-05 1.97757e-07 0)
(-2.3907e-05 4.86296e-08 0)
(-2.38288e-05 1.62192e-07 0)
(-2.33359e-05 -5.75685e-09 0)
(-2.21481e-05 4.79467e-08 0)
(-2.07223e-05 -1.60891e-07 0)
(-1.88594e-05 -7.40109e-08 0)
(-1.70153e-05 -2.69649e-07 0)
(-1.48991e-05 -2.22136e-07 0)
(-1.28617e-05 -4.47356e-07 0)
(-1.06436e-05 -4.24417e-07 0)
(-8.60364e-06 -6.3372e-07 0)
(-6.54822e-06 -6.06272e-07 0)
(-4.7956e-06 -7.15857e-07 0)
(-3.177e-06 -5.92871e-07 0)
(-1.86814e-06 -6.0599e-07 0)
(-6.99872e-07 -5.27033e-07 0)
(7.75527e-08 -5.82041e-07 0)
(4.11525e-07 -5.85458e-07 0)
(3.06548e-07 -4.37976e-07 0)
(-5.70085e-07 6.93346e-07 0)
(-3.25762e-06 9.72695e-07 0)
(-6.64973e-06 6.13386e-07 0)
(-8.71483e-06 -3.74813e-07 0)
(-8.90374e-06 -1.91178e-06 0)
(-7.08572e-06 -3.70826e-06 0)
(-3.04476e-06 -5.67465e-06 0)
(3.23851e-06 -7.53695e-06 0)
(1.17809e-05 -9.34673e-06 0)
(2.2482e-05 -1.09592e-05 0)
(3.53317e-05 -1.25312e-05 0)
(5.00786e-05 -1.37877e-05 0)
(6.65779e-05 -1.49128e-05 0)
(8.45178e-05 -1.57209e-05 0)
(0.000103855 -1.64954e-05 0)
(0.000124179 -1.69161e-05 0)
(0.000145344 -1.72044e-05 0)
(0.000166958 -1.71931e-05 0)
(0.000188967 -1.72609e-05 0)
(0.000211006 -1.68489e-05 0)
(0.000232936 -1.62743e-05 0)
(0.000254255 -1.54276e-05 0)
(0.000274898 -1.46813e-05 0)
(0.000294383 -1.38711e-05 0)
(0.000312764 -1.31491e-05 0)
(0.000329759 -1.17561e-05 0)
(0.000345212 -1.02956e-05 0)
(0.000358624 -8.92718e-06 0)
(0.000370099 -7.68164e-06 0)
(0.000379294 -6.04109e-06 0)
(0.000386361 -4.36634e-06 0)
(0.000390986 -2.72365e-06 0)
(0.00039333 -1.30627e-06 0)
(0.000393376 1.85767e-07 0)
(0.000391309 1.50242e-06 0)
(0.000386361 3.62927e-06 0)
(0.000379377 5.30656e-06 0)
(0.00036991 6.45198e-06 0)
(0.00035811 8.26037e-06 0)
(0.000343738 1.01122e-05 0)
(0.000327306 1.12061e-05 0)
(0.000308888 1.21884e-05 0)
(0.000288349 1.3274e-05 0)
(0.000266327 1.44821e-05 0)
(0.000243168 1.51162e-05 0)
(0.000219009 1.58273e-05 0)
(0.000193814 1.63896e-05 0)
(0.000168367 1.69323e-05 0)
(0.000142787 1.68972e-05 0)
(0.000117745 1.69164e-05 0)
(9.31312e-05 1.64598e-05 0)
(6.98467e-05 1.60549e-05 0)
(4.7715e-05 1.51325e-05 0)
(2.7552e-05 1.43765e-05 0)
(8.90676e-06 1.31153e-05 0)
(-7.31494e-06 1.20405e-05 0)
(-2.16788e-05 1.03552e-05 0)
(-3.33144e-05 9.0402e-06 0)
(-4.31168e-05 7.24971e-06 0)
(-5.02542e-05 5.93847e-06 0)
(-5.57205e-05 4.08364e-06 0)
(-5.86765e-05 2.82562e-06 0)
(-6.02801e-05 1.02942e-06 0)
(-5.97205e-05 -1.11586e-07 0)
(-5.82307e-05 -1.74134e-06 0)
(-5.5078e-05 -2.57628e-06 0)
(-5.15223e-05 -3.87258e-06 0)
(-4.67865e-05 -4.41296e-06 0)
(-4.20765e-05 -5.43826e-06 0)
(-3.66223e-05 -5.68991e-06 0)
(-3.14659e-05 -6.30015e-06 0)
(-2.59113e-05 -6.21802e-06 0)
(-2.08708e-05 -6.50316e-06 0)
(-1.57997e-05 -6.13436e-06 0)
(-1.15058e-05 -5.95093e-06 0)
(-7.55059e-06 -5.20237e-06 0)
(-4.44366e-06 -4.67993e-06 0)
(-2.05091e-06 -3.90015e-06 0)
(-8.1943e-07 -3.1248e-06 0)
(2.54371e-08 -1.59762e-06 0)
(-6.70762e-07 8.57957e-07 0)
(-3.12473e-06 7.66315e-07 0)
(-5.74269e-06 -7.5946e-07 0)
(-6.26237e-06 -3.64664e-06 0)
(-4.03202e-06 -7.53112e-06 0)
(1.26969e-06 -1.21197e-05 0)
(9.82111e-06 -1.68593e-05 0)
(2.17964e-05 -2.16413e-05 0)
(3.70377e-05 -2.6027e-05 0)
(5.55636e-05 -3.02619e-05 0)
(7.70558e-05 -3.38625e-05 0)
(0.000101343 -3.70397e-05 0)
(0.000127963 -3.94494e-05 0)
(0.000156907 -4.15639e-05 0)
(0.000187668 -4.29897e-05 0)
(0.000219864 -4.40069e-05 0)
(0.00025291 -4.42896e-05 0)
(0.000286656 -4.43716e-05 0)
(0.000320579 -4.39458e-05 0)
(0.000354761 -4.32942e-05 0)
(0.000388514 -4.18673e-05 0)
(0.00042162 -4.02626e-05 0)
(0.000453115 -3.82356e-05 0)
(0.000483008 -3.64001e-05 0)
(0.000511008 -3.41266e-05 0)
(0.000537074 -3.13383e-05 0)
(0.000560417 -2.77303e-05 0)
(0.000581234 -2.45729e-05 0)
(0.000598737 -2.12904e-05 0)
(0.000613134 -1.74917e-05 0)
(0.000623853 -1.28964e-05 0)
(0.000631129 -8.62462e-06 0)
(0.000634765 -4.31589e-06 0)
(0.000634916 -2.23462e-07 0)
(0.000631455 3.99987e-06 0)
(0.000624324 8.74681e-06 0)
(0.000613108 1.3716e-05 0)
(0.000598347 1.79885e-05 0)
(0.000579906 2.27752e-05 0)
(0.000557788 2.70055e-05 0)
(0.000532319 3.08417e-05 0)
(0.000503555 3.40759e-05 0)
(0.000472167 3.73949e-05 0)
(0.000437412 4.00506e-05 0)
(0.000401247 4.24477e-05 0)
(0.00036339 4.4105e-05 0)
(0.000324513 4.59234e-05 0)
(0.000284741 4.68536e-05 0)
(0.000245164 4.733e-05 0)
(0.000205827 4.70122e-05 0)
(0.00016784 4.66771e-05 0)
(0.0001309 4.51811e-05 0)
(9.64489e-05 4.35813e-05 0)
(6.37076e-05 4.09586e-05 0)
(3.42509e-05 3.85709e-05 0)
(7.34507e-06 3.48395e-05 0)
(-1.56084e-05 3.12796e-05 0)
(-3.59578e-05 2.66973e-05 0)
(-5.22205e-05 2.27928e-05 0)
(-6.58579e-05 1.79264e-05 0)
(-7.53837e-05 1.3817e-05 0)
(-8.2488e-05 8.75905e-06 0)
(-8.57733e-05 4.72582e-06 0)
(-8.72417e-05 -4.97522e-08 0)
(-8.55914e-05 -3.38587e-06 0)
(-8.28736e-05 -7.2847e-06 0)
(-7.77456e-05 -9.71498e-06 0)
(-7.20957e-05 -1.26552e-05 0)
(-6.47467e-05 -1.4084e-05 0)
(-5.7583e-05 -1.59412e-05 0)
(-4.94094e-05 -1.62528e-05 0)
(-4.18347e-05 -1.69184e-05 0)
(-3.37654e-05 -1.62862e-05 0)
(-2.65468e-05 -1.60335e-05 0)
(-1.93604e-05 -1.47368e-05 0)
(-1.33852e-05 -1.36823e-05 0)
(-8.11205e-06 -1.17989e-05 0)
(-4.48427e-06 -9.92146e-06 0)
(-2.21464e-06 -7.05269e-06 0)
(-3.40318e-07 -3.09226e-06 0)
(-6.00434e-07 1.16184e-06 0)
(-2.11628e-06 1.89721e-07 0)
(-2.75422e-06 -3.31244e-06 0)
(-4.82679e-07 -8.88137e-06 0)
(5.51742e-06 -1.6193e-05 0)
(1.54436e-05 -2.44175e-05 0)
(2.95955e-05 -3.31764e-05 0)
(4.79453e-05 -4.16719e-05 0)
(7.05592e-05 -4.98756e-05 0)
(9.70707e-05 -5.7351e-05 0)
(0.000127285 -6.41815e-05 0)
(0.000160679 -6.97422e-05 0)
(0.00019724 -7.46402e-05 0)
(0.000236396 -7.83015e-05 0)
(0.000277605 -8.11518e-05 0)
(0.000320133 -8.26464e-05 0)
(0.000363854 -8.35072e-05 0)
(0.000408067 -8.34257e-05 0)
(0.000452721 -8.30731e-05 0)
(0.000497182 -8.15746e-05 0)
(0.000541143 -7.93517e-05 0)
(0.000583678 -7.61455e-05 0)
(0.000624548 -7.26666e-05 0)
(0.000663199 -6.84745e-05 0)
(0.000699453 -6.43029e-05 0)
(0.000732724 -5.90666e-05 0)
(0.000763116 -5.29921e-05 0)
(0.000789652 -4.62703e-05 0)
(0.000812596 -3.97952e-05 0)
(0.000831216 -3.2268e-05 0)
(0.000845491 -2.42835e-05 0)
(0.000854885 -1.57712e-05 0)
(0.000859961 -7.59145e-06 0)
(0.000860145 7.7312e-07 0)
(0.000855697 8.85305e-06 0)
(0.000846471 1.80635e-05 0)
(0.000832075 2.72701e-05 0)
(0.000812614 3.63386e-05 0)
(0.000788284 4.51076e-05 0)
(0.000758844 5.32178e-05 0)
(0.000725379 6.02014e-05 0)
(0.000687851 6.71909e-05 0)
(0.000647213 7.30646e-05 0)
(0.000603034 7.85657e-05 0)
(0.000555396 8.29251e-05 0)
(0.000506018 8.6725e-05 0)
(0.000454673 8.9309e-05 0)
(0.000403038 9.10218e-05 0)
(0.000350724 9.12205e-05 0)
(0.00029921 9.1122e-05 0)
(0.000248678 8.91982e-05 0)
(0.000200561 8.67543e-05 0)
(0.000154124 8.28189e-05 0)
(0.000110903 7.89253e-05 0)
(7.02791e-05 7.30041e-05 0)
(3.46674e-05 6.68144e-05 0)
(2.22833e-06 5.90879e-05 0)
(-2.52375e-05 5.19719e-05 0)
(-4.94702e-05 4.33574e-05 0)
(-6.82512e-05 3.55632e-05 0)
(-8.36869e-05 2.63243e-05 0)
(-9.37009e-05 1.83905e-05 0)
(-0.000101008 9.43892e-06 0)
(-0.000103642 2.3179e-06 0)
(-0.000104351 -5.46034e-06 0)
(-0.00010118 -1.09643e-05 0)
(-9.6942e-05 -1.70568e-05 0)
(-8.97331e-05 -2.07315e-05 0)
(-8.21918e-05 -2.48457e-05 0)
(-7.26513e-05 -2.66304e-05 0)
(-6.35767e-05 -2.86721e-05 0)
(-5.3394e-05 -2.84645e-05 0)
(-4.41785e-05 -2.84888e-05 0)
(-3.45059e-05 -2.67218e-05 0)
(-2.60342e-05 -2.53704e-05 0)
(-1.77828e-05 -2.28062e-05 0)
(-1.12406e-05 -2.04828e-05 0)
(-6.08571e-06 -1.68193e-05 0)
(-3.1338e-06 -1.20611e-05 0)
(-5.55339e-07 -4.86776e-06 0)
(-4.77349e-07 1.02785e-06 0)
(-5.75037e-07 -1.72915e-06 0)
(1.43502e-06 -7.98403e-06 0)
(7.39688e-06 -1.72332e-05 0)
(1.79303e-05 -2.86293e-05 0)
(3.33599e-05 -4.15644e-05 0)
(5.36812e-05 -5.48789e-05 0)
(7.90265e-05 -6.82166e-05 0)
(0.000109133 -8.06107e-05 0)
(0.00014378 -9.22857e-05 0)
(0.000182336 -0.000102479 0)
(0.000224878 -0.000111567 0)
(0.000270764 -0.000119022 0)
(0.000319308 -0.000125087 0)
(0.000369665 -0.000129016 0)
(0.000421718 -0.000131694 0)
(0.000474687 -0.000132797 0)
(0.000528631 -0.000133238 0)
(0.000582493 -0.000132179 0)
(0.00063592 -0.000130181 0)
(0.000688022 -0.000126323 0)
(0.000738814 -0.000121618 0)
(0.000787382 -0.00011552 0)
(0.000833742 -0.000109109 0)
(0.00087672 -0.000101581 0)
(0.000916435 -9.33468e-05 0)
(0.000952149 -8.37114e-05 0)
(0.000983951 -7.35862e-05 0)
(0.00101125 -6.2338e-05 0)
(0.00103346 -5.02882e-05 0)
(0.00105051 -3.73686e-05 0)
(0.00106216 -2.43796e-05 0)
(0.00106817 -1.07537e-05 0)
(0.00106857 2.69572e-06 0)
(0.00106274 1.67113e-05 0)
(0.00105136 3.09147e-05 0)
(0.00103386 4.56878e-05 0)
(0.00101027 5.97838e-05 0)
(0.000981206 7.33788e-05 0)
(0.000946327 8.60219e-05 0)
(0.000906066 9.84803e-05 0)
(0.000860737 0.000109325 0)
(0.000812071 0.000119029 0)
(0.000759583 0.0001271 0)
(0.000703403 0.000134785 0)
(0.000643961 0.00014048 0)
(0.000582957 0.000144766 0)
(0.000520272 0.000146644 0)
(0.000457894 0.000147625 0)
(0.00039514 0.000146038 0)
(0.000334469 0.000143291 0)
(0.000275097 0.000138361 0)
(0.000219079 0.000133077 0)
(0.000165515 0.00012552 0)
(0.000116635 0.000116925 0)
(7.11823e-05 0.000105718 0)
(3.16626e-05 9.49599e-05 0)
(-4.2027e-06 8.23555e-05 0)
(-3.37366e-05 7.03959e-05 0)
(-5.94483e-05 5.64517e-05 0)
(-7.84082e-05 4.3709e-05 0)
(-9.38119e-05 2.96731e-05 0)
(-0.000103194 1.78484e-05 0)
(-0.000109801 5.09867e-06 0)
(-0.000111044 -4.82934e-06 0)
(-0.000110415 -1.52089e-05 0)
(-0.000105496 -2.24945e-05 0)
(-9.97711e-05 -3.00474e-05 0)
(-9.084e-05 -3.43766e-05 0)
(-8.19349e-05 -3.88975e-05 0)
(-7.09536e-05 -4.02779e-05 0)
(-6.07971e-05 -4.17576e-05 0)
(-4.95977e-05 -4.0399e-05 0)
(-3.97466e-05 -3.91856e-05 0)
(-2.95997e-05 -3.5913e-05 0)
(-2.10015e-05 -3.31487e-05 0)
(-1.29777e-05 -2.90185e-05 0)
(-7.26777e-06 -2.45115e-05 0)
(-3.40218e-06 -1.72503e-05 0)
(-6.5165e-07 -7.01324e-06 0)
(-3.16362e-07 1.31679e-07 0)
(1.23788e-06 -5.53072e-06 0)
(6.38954e-06 -1.57201e-05 0)
(1.65061e-05 -2.94149e-05 0)
(3.21959e-05 -4.59904e-05 0)
(5.35071e-05 -6.40803e-05 0)
(8.0547e-05 -8.29752e-05 0)
(0.000113015 -0.000101308 0)
(0.000150828 -0.000118838 0)
(0.000193268 -0.000134648 0)
(0.00024035 -0.000149258 0)
(0.000291502 -0.000161554 0)
(0.000346018 -0.000172217 0)
(0.000402697 -0.000180009 0)
(0.000461675 -0.000185895 0)
(0.000521939 -0.000189151 0)
(0.000583794 -0.000191389 0)
(0.00064587 -0.000191456 0)
(0.000707676 -0.000190129 0)
(0.000768265 -0.000186447 0)
(0.000827808 -0.000181301 0)
(0.000885242 -0.000174215 0)
(0.000940764 -0.00016615 0)
(0.000993185 -0.000156139 0)
(0.00104225 -0.000145404 0)
(0.00108675 -0.000132809 0)
(0.00112716 -0.000119318 0)
(0.00116283 -0.00010436 0)
(0.00119381 -8.88633e-05 0)
(0.00121871 -7.08344e-05 0)
(0.00123829 -5.24013e-05 0)
(0.0012513 -3.34427e-05 0)
(0.00125822 -1.43044e-05 0)
(0.00125846 5.69924e-06 0)
(0.00125171 2.58312e-05 0)
(0.00123836 4.66639e-05 0)
(0.00121802 6.68053e-05 0)
(0.00119147 8.73584e-05 0)
(0.00115831 0.000107127 0)
(0.0011192 0.000126254 0)
(0.00107374 0.000143292 0)
(0.00102241 0.000159079 0)
(0.000966329 0.000171841 0)
(0.000906594 0.000184113 0)
(0.000842351 0.000194996 0)
(0.000775384 0.000203722 0)
(0.000705705 0.000209133 0)
(0.000635 0.000212623 0)
(0.000563049 0.000212921 0)
(0.000492132 0.000211472 0)
(0.000421522 0.000206508 0)
(0.000353961 0.000200413 0)
(0.000288154 0.000191285 0)
(0.00022737 0.000181414 0)
(0.0001698 0.000167709 0)
(0.000118028 0.000153227 0)
(6.99146e-05 0.000136264 0)
(2.88578e-05 0.000119947 0)
(-7.97139e-06 0.000101211 0)
(-3.73695e-05 8.33515e-05 0)
(-6.26003e-05 6.33648e-05 0)
(-8.03746e-05 4.59535e-05 0)
(-9.4773e-05 2.74222e-05 0)
(-0.00010256 1.19833e-05 0)
(-0.000107748 -4.12901e-06 0)
(-0.000107256 -1.62796e-05 0)
(-0.000105284 -2.86824e-05 0)
(-9.89073e-05 -3.69099e-05 0)
(-9.21429e-05 -4.51753e-05 0)
(-8.22383e-05 -4.92546e-05 0)
(-7.28465e-05 -5.32646e-05 0)
(-6.14673e-05 -5.34671e-05 0)
(-5.13034e-05 -5.36458e-05 0)
(-4.02645e-05 -5.06223e-05 0)
(-3.09005e-05 -4.7777e-05 0)
(-2.14671e-05 -4.28343e-05 0)
(-1.39024e-05 -3.82781e-05 0)
(-7.42326e-06 -3.16013e-05 0)
(-3.50899e-06 -2.26886e-05 0)
(-5.61036e-07 -9.10615e-06 0)
(-1.25871e-07 -1.53646e-06 0)
(3.23488e-06 -1.15079e-05 0)
(1.171e-05 -2.66814e-05 0)
(2.64022e-05 -4.61002e-05 0)
(4.75041e-05 -6.84474e-05 0)
(7.51406e-05 -9.27747e-05 0)
(0.000108986 -0.000117367 0)
(0.000148889 -0.000141612 0)
(0.000194192 -0.000164004 0)
(0.000244757 -0.000184904 0)
(0.000299823 -0.000203666 0)
(0.000358978 -0.000219823 0)
(0.00042084 -0.000232499 0)
(0.000485235 -0.000242781 0)
(0.000551528 -0.000249945 0)
(0.000619924 -0.000254938 0)
(0.000689148 -0.000257115 0)
(0.000758104 -0.000257181 0)
(0.000826013 -0.00025427 0)
(0.000893133 -0.0002497 0)
(0.000958511 -0.000242316 0)
(0.00102218 -0.000233355 0)
(0.00108285 -0.000222006 0)
(0.0011405 -0.000209057 0)
(0.00119369 -0.000193573 0)
(0.00124263 -0.00017697 0)
(0.00128645 -0.000158409 0)
(0.00132556 -0.000138968 0)
(0.00135876 -0.000117537 0)
(0.00138638 -9.39283e-05 0)
(0.0014072 -6.86221e-05 0)
(0.00142169 -4.37449e-05 0)
(0.00142886 -1.74534e-05 0)
(0.00142913 9.1035e-06 0)
(0.00142166 3.68971e-05 0)
(0.00140747 6.40369e-05 0)
(0.00138508 9.17433e-05 0)
(0.00135606 0.000118962 0)
(0.00131988 0.000145305 0)
(0.00127688 0.000170051 0)
(0.00122722 0.000193605 0)
(0.0011712 0.000214181 0)
(0.00110946 0.00023234 0)
(0.00104306 0.000248458 0)
(0.00097281 0.00026296 0)
(0.000898905 0.000273677 0)
(0.000823033 0.00028171 0)
(0.000744727 0.000285566 0)
(0.000666278 0.000286934 0)
(0.000587186 0.000283966 0)
(0.000510135 0.000278618 0)
(0.000434065 0.000269094 0)
(0.000362012 0.000257981 0)
(0.000293115 0.000242635 0)
(0.000230784 0.000225967 0)
(0.000171296 0.000205627 0)
(0.000118597 0.000185073 0)
(7.01203e-05 0.000161381 0)
(3.00347e-05 0.000138557 0)
(-5.59958e-06 0.000112981 0)
(-3.33848e-05 8.91179e-05 0)
(-5.70847e-05 6.37559e-05 0)
(-7.28123e-05 4.20257e-05 0)
(-8.54676e-05 1.93937e-05 0)
(-9.12859e-05 1.01528e-06 0)
(-9.50173e-05 -1.75302e-05 0)
(-9.30678e-05 -3.10672e-05 0)
(-9.0201e-05 -4.44629e-05 0)
(-8.30494e-05 -5.27012e-05 0)
(-7.61188e-05 -6.05723e-05 0)
(-6.62747e-05 -6.34558e-05 0)
(-5.74523e-05 -6.60475e-05 0)
(-4.68679e-05 -6.43744e-05 0)
(-3.78522e-05 -6.26617e-05 0)
(-2.81585e-05 -5.76812e-05 0)
(-2.03363e-05 -5.30008e-05 0)
(-1.26949e-05 -4.61398e-05 0)
(-7.17705e-06 -3.86948e-05 0)
(-3.01518e-06 -2.72639e-05 0)
(-5.11781e-07 -1.11371e-05 0)
(1.03581e-07 -4.02181e-06 0)
(5.2967e-06 -1.96286e-05 0)
(1.72674e-05 -4.12232e-05 0)
(3.66391e-05 -6.72191e-05 0)
(6.34962e-05 -9.65843e-05 0)
(9.74928e-05 -0.000127379 0)
(0.000138468 -0.000158603 0)
(0.000185643 -0.000188442 0)
(0.000238724 -0.000216695 0)
(0.000297134 -0.000242149 0)
(0.000359876 -0.000265322 0)
(0.000425535 -0.000284146 0)
(0.000494294 -0.000299799 0)
(0.00056543 -0.000311896 0)
(0.000639054 -0.000321317 0)
(0.00071397 -0.000326755 0)
(0.00078921 -0.000329383 0)
(0.000863245 -0.000327941 0)
(0.000936791 -0.000324407 0)
(0.00100873 -0.000317763 0)
(0.0010794 -0.000308963 0)
(0.00114724 -0.000296717 0)
(0.00121219 -0.000282559 0)
(0.00127293 -0.000265221 0)
(0.00132976 -0.000245814 0)
(0.00138158 -0.000223632 0)
(0.00142888 -0.000200703 0)
(0.0014703 -0.000175512 0)
(0.00150559 -0.000148567 0)
(0.00153458 -0.000118234 0)
(0.00155698 -8.64945e-05 0)
(0.00157215 -5.39275e-05 0)
(0.0015798 -2.10532e-05 0)
(0.00157975 1.3336e-05 0)
(0.00157234 4.84815e-05 0)
(0.00155672 8.37854e-05 0)
(0.00153379 0.000118548 0)
(0.00150259 0.000153327 0)
(0.00146394 0.000186086 0)
(0.00141816 0.000218271 0)
(0.0013651 0.000247843 0)
(0.00130549 0.000274967 0)
(0.00123953 0.00029798 0)
(0.00116875 0.000318823 0)
(0.00109326 0.000336032 0)
(0.00101487 0.000350264 0)
(0.000933106 0.000359562 0)
(0.00085017 0.000365565 0)
(0.000765347 0.000366338 0)
(0.000681582 0.000363822 0)
(0.000597798 0.000355962 0)
(0.000517262 0.000345334 0)
(0.000438303 0.000329418 0)
(0.000364973 0.000310911 0)
(0.000295523 0.000288273 0)
(0.000233012 0.000265028 0)
(0.000173813 0.000237289 0)
(0.00012256 0.000209474 0)
(7.58083e-05 0.000178042 0)
(3.84125e-05 0.000148602 0)
(4.94867e-06 0.000116582 0)
(-2.03007e-05 8.75654e-05 0)
(-4.17442e-05 5.74495e-05 0)
(-5.51143e-05 3.20958e-05 0)
(-6.60176e-05 6.33523e-06 0)
(-7.01482e-05 -1.38006e-05 0)
(-7.28924e-05 -3.36294e-05 0)
(-7.01887e-05 -4.73538e-05 0)
(-6.72799e-05 -6.05057e-05 0)
(-6.04096e-05 -6.75628e-05 0)
(-5.43751e-05 -7.39492e-05 0)
(-4.57724e-05 -7.47693e-05 0)
(-3.8662e-05 -7.52007e-05 0)
(-3.00657e-05 -7.12046e-05 0)
(-2.3262e-05 -6.72945e-05 0)
(-1.59564e-05 -6.03199e-05 0)
(-1.05612e-05 -5.35448e-05 0)
(-5.50756e-06 -4.38371e-05 0)
(-2.42912e-06 -3.13165e-05 0)
(-2.83641e-07 -1.26179e-05 0)
(3.31376e-07 -7.25223e-06 0)
(7.4197e-06 -3.00816e-05 0)
(2.28848e-05 -5.92401e-05 0)
(4.71717e-05 -9.32304e-05 0)
(7.97818e-05 -0.00013003 0)
(0.000120424 -0.00016837 0)
(0.000168398 -0.000206237 0)
(0.000223198 -0.000242742 0)
(0.000283745 -0.000276132 0)
(0.000349543 -0.000306506 0)
(0.000418622 -0.000332375 0)
(0.000490924 -0.000354689 0)
(0.000566089 -0.000372441 0)
(0.000643747 -0.000387485 0)
(0.000722506 -0.000397785 0)
(0.000802476 -0.000404036 0)
(0.000881722 -0.000405184 0)
(0.000960477 -0.00040314 0)
(0.00103809 -0.000397718 0)
(0.00111443 -0.000390275 0)
(0.00118809 -0.000378495 0)
(0.00125935 -0.000363768 0)
(0.00132662 -0.000345179 0)
(0.00139012 -0.000324292 0)
(0.0014489 -0.000300056 0)
(0.00150395 -0.000273749 0)
(0.00155324 -0.000244335 0)
(0.00159678 -0.000214 0)
(0.00163273 -0.00018006 0)
(0.00166314 -0.000143776 0)
(0.00168611 -0.000104607 0)
(0.00170191 -6.52371e-05 0)
(0.0017098 -2.41423e-05 0)
(0.00171017 1.78615e-05 0)
(0.00170199 6.13226e-05 0)
(0.00168563 0.000104189 0)
(0.00166148 0.000147535 0)
(0.00162978 0.000189037 0)
(0.00158964 0.00022999 0)
(0.00154168 0.000269035 0)
(0.00148644 0.000306035 0)
(0.00142408 0.000338683 0)
(0.0013557 0.000367788 0)
(0.00128167 0.000392506 0)
(0.0012036 0.000414134 0)
(0.00112122 0.000430493 0)
(0.00103658 0.000442895 0)
(0.00094902 0.000449234 0)
(0.00086139 0.000451444 0)
(0.000772665 0.00044724 0)
(0.000686222 0.000439242 0)
(0.000600362 0.000424963 0)
(0.000519019 0.000407233 0)
(0.000439595 0.000382962 0)
(0.000367209 0.000356786 0)
(0.000299024 0.000326446 0)
(0.000238637 0.000295468 0)
(0.000181841 0.000259626 0)
(0.000133404 0.000224028 0)
(8.96983e-05 0.000185348 0)
(5.56251e-05 0.000149831 0)
(2.48204e-05 0.00011227 0)
(2.59544e-06 7.90295e-05 0)
(-1.65669e-05 4.52754e-05 0)
(-2.79326e-05 1.75665e-05 0)
(-3.75696e-05 -9.86879e-06 0)
(-4.07329e-05 -3.04028e-05 0)
(-4.33498e-05 -5.00861e-05 0)
(-4.09757e-05 -6.26178e-05 0)
(-3.91403e-05 -7.41842e-05 0)
(-3.37728e-05 -7.89785e-05 0)
(-2.98204e-05 -8.29505e-05 0)
(-2.37002e-05 -8.10993e-05 0)
(-1.94071e-05 -7.89418e-05 0)
(-1.38772e-05 -7.25425e-05 0)
(-1.0186e-05 -6.647e-05 0)
(-6.05579e-06 -5.75017e-05 0)
(-3.48122e-06 -4.7805e-05 0)
(-1.10134e-06 -3.34316e-05 0)
(-1.36063e-07 -1.36522e-05 0)
(5.70962e-07 -1.12769e-05 0)
(9.53933e-06 -4.27954e-05 0)
(2.86628e-05 -8.12031e-05 0)
(5.79148e-05 -0.000124 0)
(9.66863e-05 -0.000169499 0)
(0.000144182 -0.000215656 0)
(0.000199628 -0.000261122 0)
(0.000261407 -0.000303481 0)
(0.000328845 -0.000342508 0)
(0.00040065 -0.000376469 0)
(0.000476281 -0.000406115 0)
(0.000554695 -0.000430684 0)
(0.000635956 -0.00045113 0)
(0.000718124 -0.000466416 0)
(0.000800892 -0.000478127 0)
(0.000883562 -0.000483592 0)
(0.000966168 -0.000484819 0)
(0.00104837 -0.00048126 0)
(0.00113013 -0.000474562 0)
(0.00120862 -0.000463795 0)
(0.00128467 -0.000450187 0)
(0.00135712 -0.00043123 0)
(0.0014265 -0.000409762 0)
(0.00149137 -0.000384286 0)
(0.00155267 -0.000356385 0)
(0.00160883 -0.000324842 0)
(0.00165955 -0.000290255 0)
(0.00170296 -0.000252366 0)
(0.00174019 -0.000212522 0)
(0.00177056 -0.00016898 0)
(0.00179404 -0.000123571 0)
(0.00180943 -7.55668e-05 0)
(0.00181777 -2.69474e-05 0)
(0.00181773 2.31811e-05 0)
(0.00180964 7.41043e-05 0)
(0.00179276 0.000126232 0)
(0.001768 0.000177079 0)
(0.00173552 0.000226734 0)
(0.00169515 0.000274685 0)
(0.00164632 0.000322076 0)
(0.00158986 0.000365593 0)
(0.00152706 0.000405411 0)
(0.00145716 0.000439221 0)
(0.00138221 0.000469403 0)
(0.00130202 0.000494137 0)
(0.00121855 0.000514489 0)
(0.00113121 0.000528218 0)
(0.00104255 0.000537013 0)
(0.000951682 0.000538444 0)
(0.000862079 0.00053493 0)
(0.000772086 0.00052419 0)
(0.000685465 0.0005092 0)
(0.000599996 0.000486768 0)
(0.000520099 0.000460361 0)
(0.00044241 0.000427174 0)
(0.00037288 0.000392953 0)
(0.00030766 0.000354212 0)
(0.000251121 0.000315163 0)
(0.000197691 0.00027118 0)
(0.000153301 0.000228423 0)
(0.000113259 0.000183493 0)
(8.24429e-05 0.000142999 0)
(5.44136e-05 0.000101075 0)
(3.48526e-05 6.5099e-05 0)
(1.73669e-05 2.92702e-05 0)
(7.2724e-06 8.4648e-07 0)
(-1.97463e-06 -2.66283e-05 0)
(-5.28945e-06 -4.60011e-05 0)
(-8.96314e-06 -6.40125e-05 0)
(-8.20921e-06 -7.40496e-05 0)
(-8.68658e-06 -8.28929e-05 0)
(-6.14727e-06 -8.46131e-05 0)
(-5.50023e-06 -8.55624e-05 0)
(-3.04179e-06 -8.08226e-05 0)
(-2.53632e-06 -7.60933e-05 0)
(-9.33626e-07 -6.76422e-05 0)
(-8.51505e-07 -5.95646e-05 0)
(4.77576e-08 -4.81819e-05 0)
(2.0497e-07 -3.41357e-05 0)
(2.16771e-07 -1.36796e-05 0)
(7.66289e-07 -1.60648e-05 0)
(1.17292e-05 -5.8113e-05 0)
(3.4639e-05 -0.000107095 0)
(6.93643e-05 -0.000160217 0)
(0.000114689 -0.000215095 0)
(0.000169524 -0.000270052 0)
(0.000231827 -0.000322067 0)
(0.000300512 -0.000370601 0)
(0.000374049 -0.000413835 0)
(0.000451815 -0.000452222 0)
(0.000532603 -0.00048447 0)
(0.00061612 -0.000511912 0)
(0.000701092 -0.000533077 0)
(0.000787413 -0.000549127 0)
(0.000873045 -0.000559494 0)
(0.000958303 -0.000565553 0)
(0.00104332 -0.000565683 0)
(0.00112821 -0.000562084 0)
(0.00121075 -0.000552635 0)
(0.00129127 -0.000539301 0)
(0.00136779 -0.000521456 0)
(0.00144155 -0.000500226 0)
(0.00151161 -0.000474091 0)
(0.00157792 -0.000445444 0)
(0.00163926 -0.000412304 0)
(0.00169517 -0.000375976 0)
(0.00174451 -0.000335133 0)
(0.00178817 -0.00029132 0)
(0.00182514 -0.000243573 0)
(0.00185548 -0.000194056 0)
(0.00187814 -0.000141358 0)
(0.00189401 -8.65157e-05 0)
(0.00190163 -2.8901e-05 0)
(0.00190135 2.89777e-05 0)
(0.00189301 8.85811e-05 0)
(0.00187673 0.000148111 0)
(0.0018521 0.000207295 0)
(0.00181961 0.000263886 0)
(0.0017793 0.000320855 0)
(0.0017307 0.000375365 0)
(0.00167484 0.000426697 0)
(0.00161281 0.000471873 0)
(0.00154455 0.000512368 0)
(0.0014689 0.000546667 0)
(0.00138922 0.000576256 0)
(0.00130479 0.000598822 0)
(0.00121805 0.000615955 0)
(0.00112805 0.000625066 0)
(0.00103801 0.000628091 0)
(0.00094658 0.000622704 0)
(0.000857545 0.000612085 0)
(0.000768566 0.000593354 0)
(0.000684247 0.000569784 0)
(0.000601403 0.000537729 0)
(0.000524952 0.000502281 0)
(0.000450808 0.000460148 0)
(0.00038559 0.000417507 0)
(0.000324585 0.000370142 0)
(0.000272485 0.000323497 0)
(0.000223222 0.000271878 0)
(0.000183259 0.000223674 0)
(0.000146471 0.000173909 0)
(0.000118677 0.000129851 0)
(9.28321e-05 8.53381e-05 0)
(7.50386e-05 4.83651e-05 0)
(5.82717e-05 1.22869e-05 0)
(4.83104e-05 -1.50701e-05 0)
(3.81999e-05 -4.08352e-05 0)
(3.33295e-05 -5.7516e-05 0)
(2.72569e-05 -7.25067e-05 0)
(2.49899e-05 -7.90371e-05 0)
(2.0879e-05 -8.43601e-05 0)
(1.92743e-05 -8.26088e-05 0)
(1.5529e-05 -8.04096e-05 0)
(1.33527e-05 -7.31213e-05 0)
(9.42629e-06 -6.63429e-05 0)
(6.81862e-06 -5.63957e-05 0)
(3.7311e-06 -4.62432e-05 0)
(2.22894e-06 -3.18252e-05 0)
(4.1732e-07 -1.28994e-05 0)
(9.43327e-07 -2.17307e-05 0)
(1.40252e-05 -7.60831e-05 0)
(4.11701e-05 -0.000137599 0)
(8.19681e-05 -0.000202097 0)
(0.000134542 -0.000267591 0)
(0.000196352 -0.000330396 0)
(0.000265596 -0.000389456 0)
(0.000340451 -0.000442774 0)
(0.000419887 -0.000490626 0)
(0.000502448 -0.000531542 0)
(0.000587744 -0.000566703 0)
(0.000674531 -0.000594932 0)
(0.000762661 -0.000617632 0)
(0.000850954 -0.000633221 0)
(0.000939245 -0.000643521 0)
(0.00102652 -0.000647942 0)
(0.0011133 -0.000648178 0)
(0.001198 -0.000642019 0)
(0.00128098 -0.000631231 0)
(0.00136085 -0.000614246 0)
(0.00143795 -0.000593636 0)
(0.00151119 -0.000568334 0)
(0.00158098 -0.000539313 0)
(0.00164581 -0.000504802 0)
(0.00170573 -0.00046702 0)
(0.00175911 -0.000424166 0)
(0.00180765 -0.000378421 0)
(0.00184988 -0.000328242 0)
(0.00188659 -0.000274902 0)
(0.00191578 -0.000217396 0)
(0.00193833 -0.000158075 0)
(0.00195334 -9.54014e-05 0)
(0.0019612 -3.11963e-05 0)
(0.00196068 3.53883e-05 0)
(0.00195272 0.000102521 0)
(0.00193676 0.000170435 0)
(0.00191318 0.000236535 0)
(0.00188144 0.000302234 0)
(0.00184203 0.000366553 0)
(0.0017949 0.00042899 0)
(0.00174073 0.00048597 0)
(0.00168056 0.000537547 0)
(0.00161458 0.00058331 0)
(0.001542 0.000624301 0)
(0.00146303 0.000657519 0)
(0.00138083 0.000684111 0)
(0.00129451 0.000702468 0)
(0.00120716 0.000714326 0)
(0.00111727 0.000716527 0)
(0.0010284 0.000711962 0)
(0.000938621 0.000698579 0)
(0.000852321 0.000679687 0)
(0.00076707 0.000651368 0)
(0.000687308 0.000617993 0)
(0.00060862 0.000576384 0)
(0.000537076 0.000532065 0)
(0.000467771 0.000481005 0)
(0.000407766 0.000430146 0)
(0.000351562 0.000374586 0)
(0.000304188 0.000320828 0)
(0.000258878 0.000263829 0)
(0.000222716 0.000211755 0)
(0.000188602 0.000158831 0)
(0.000162915 0.000113184 0)
(0.000138206 6.80838e-05 0)
(0.000120902 3.20349e-05 0)
(0.000103546 -2.35456e-06 0)
(9.22282e-05 -2.68704e-05 0)
(7.9768e-05 -4.93382e-05 0)
(7.18009e-05 -6.20776e-05 0)
(6.19118e-05 -7.30293e-05 0)
(5.5197e-05 -7.54535e-05 0)
(4.62389e-05 -7.69648e-05 0)
(3.93985e-05 -7.19457e-05 0)
(3.04781e-05 -6.71248e-05 0)
(2.31647e-05 -5.82028e-05 0)
(1.49054e-05 -5.02142e-05 0)
(8.92366e-06 -3.93821e-05 0)
(4.06938e-06 -2.74019e-05 0)
(7.86118e-07 -1.07447e-05 0)
(1.13898e-06 -2.84324e-05 0)
(1.68549e-05 -9.75274e-05 0)
(4.90313e-05 -0.000173315 0)
(9.65286e-05 -0.000251294 0)
(0.000156488 -0.000326832 0)
(0.000225517 -0.000397918 0)
(0.000301209 -0.00046259 0)
(0.000382024 -0.000520933 0)
(0.000466203 -0.000571523 0)
(0.000553038 -0.000615425 0)
(0.000641254 -0.000651447 0)
(0.000730702 -0.000681239 0)
(0.000820194 -0.000703362 0)
(0.000909901 -0.000719414 0)
(0.000998717 -0.000728261 0)
(0.00108698 -0.000732211 0)
(0.00117301 -0.00072925 0)
(0.00125705 -0.000721384 0)
(0.00133784 -0.000706916 0)
(0.0014164 -0.000687944 0)
(0.00149147 -0.000662987 0)
(0.00156318 -0.000634379 0)
(0.00162975 -0.000600144 0)
(0.00169226 -0.000561953 0)
(0.00174919 -0.000518032 0)
(0.00180168 -0.000470761 0)
(0.00184819 -0.000418617 0)
(0.00188943 -0.000363454 0)
(0.00192404 -0.000303414 0)
(0.0019527 -0.000240447 0)
(0.00197409 -0.000173454 0)
(0.00198903 -0.00010428 0)
(0.00199631 -3.1902e-05 0)
(0.00199666 4.14982e-05 0)
(0.00198907 0.000116749 0)
(0.00197422 0.000191431 0)
(0.00195157 0.000266175 0)
(0.00192132 0.000339219 0)
(0.00188356 0.000411411 0)
(0.00183892 0.000479558 0)
(0.00178785 0.000543308 0)
(0.00172997 0.000600259 0)
(0.00166654 0.000652761 0)
(0.00159719 0.000698557 0)
(0.00152332 0.000737225 0)
(0.00144386 0.000766716 0)
(0.0013616 0.000788827 0)
(0.00127639 0.000800699 0)
(0.00119146 0.000804887 0)
(0.00110386 0.000799058 0)
(0.001018 0.000786246 0)
(0.000932221 0.000763058 0)
(0.00085151 0.000733465 0)
(0.000771512 0.000695084 0)
(0.000697106 0.000652478 0)
(0.000624002 0.000601619 0)
(0.000558601 0.000548549 0)
(0.000495196 0.00048895 0)
(0.000440891 0.000430628 0)
(0.000388852 0.000368524 0)
(0.000345437 0.000309983 0)
(0.000303476 0.00024931 0)
(0.000270095 0.00019533 0)
(0.000237522 0.000141375 0)
(0.000212711 9.63184e-05 0)
(0.000187752 5.27589e-05 0)