/*--------------------------------*- C++ -*----------------------------------*\
| =========                 |                                                 |
| \\      /  F ield         | OpenFOAM: The Open Source CFD Toolbox           |
|  \\    /   O peration     | Version:  2412                                  |
|   \\  /    A nd           | Website:  www.openfoam.com                      |
|    \\/     M anipulation  |                                                 |
\*---------------------------------------------------------------------------*/
FoamFile
{
    version     2.0;
    format      ascii;
    arch        "LSB;label=32;scalar=64";
    class       volScalarField;
    location    "9.4";
    object      alpha.gasoline;
}
// * * * * * * * * * * * * * * * * * * * * * * * * * * * * * * * * * * * * * //

dimensions      [0 0 0 0 0 0 0];

internalField   nonuniform List<scalar> 
6400
(
1
1.00001
1
0.999999
0.999998
0.999997
0.999999
1
1
1
0.999999
0.999999
1
1
1
1
1
1
1
1
1
1
1
1
1
1
1
1
1
1
1
1
1
1
1
1
1
1
1
1
1
1
1
1
1
1
1
0.999999
1
1
1
1
1
1
1
0.999999
0.999999
0.999999
0.999999
0.999999
0.999999
0.999997
0.999997
0.999997
0.999999
1
1
0.999999
0.999998
0.999999
1
1
1
1
1
1
1
1
1
1
0.999989
0.999998
1
1
1
0.999997
0.999997
0.999998
1
1
1
0.999999
1
1
1
1
1
1
1
1
1
1
1
1
0.999999
0.999998
0.999998
0.999999
0.999999
0.999999
0.999999
1
1
1
1
1
1
0.999999
0.999999
0.999999
0.999999
0.999999
0.999999
0.999999
0.999999
0.999999
0.999999
0.999999
0.999999
1
1
0.999999
0.999999
0.999999
0.999999
0.999999
0.999999
0.999999
0.999999
0.999999
0.999999
0.999999
0.999999
0.999999
0.999999
0.999999
0.999997
0.999997
0.999999
1
1
1
0.999998
0.999998
0.999999
0.999999
1
1
0.999997
1
0.999998
0.999998
0.999999
1
0.999998
0.999998
0.999999
1
1
0.999999
0.999999
0.999999
1
1
1
0.999998
0.999998
0.999999
1
1
1
0.999998
0.999998
0.999999
0.999999
0.999999
0.999999
0.999999
0.999998
0.999998
0.999999
0.999999
0.999999
0.999999
0.999999
0.999998
0.999998
0.999998
0.999999
0.999999
0.999999
0.999999
0.999998
0.999998
0.999998
0.999998
0.999998
0.999998
1
1
1
1
1
1
1
1
1
1
1
1
1
1
1
0.999998
0.999997
0.999997
0.999997
0.999999
1
1
0.999997
0.999997
0.999997
1
0.999999
0.999999
0.999999
0.999997
1
0.999998
1
1
1
1
1
1
1
1
1
0.999999
0.999999
0.999999
0.999999
0.999999
0.999999
0.999999
0.999999
1
1
1
1
1
1
1
1
1
0.999999
0.999999
0.999999
0.999999
0.999999
1
1
1
1
1
1
1
1
1
1
1
1
1
0.999999
1
1
1
1
1
1
1
1
1
1
1
1
1
1
1
0.999999
0.999998
0.999997
0.999999
1
0.999999
0.999999
1
1
1
1
1
1
1
1
1
1
1
1
0.999999
1
1
1
1
1
1
1
1
1
0.999998
0.999998
1
0.999999
0.999999
0.999999
1
1
1
1
1
1
1
1
1
1
1
1
1
1
1
1
1
1
1
1
1
1
1
1
1
1
1
1
1
1
1
1
1
1
1
1
1
1
1
1
0.999999
0.999999
0.999999
0.999999
1
0.999998
0.999997
0.999997
1
1
1
1
1
1
1
1
1
1
1
1
1
1
1
1
1
1
1
1
1
1
1
1
1
1
0.999999
0.999998
0.999999
1
1
1
1
0.999999
0.999999
0.999999
1
1
1
1
1
1
1
1
1
1
1
1
1
1
1
1
1
1
1
1
1
1
1
0.999999
0.999999
0.999999
1
1
1
1
0.999999
0.999999
1
1
1
1
1
1
1
1
1
0.999999
0.999999
0.999999
1
1
1
1
0.999999
0.999998
0.999999
1
1
1
1
1
1
1
1
0.999999
1
1
1
1
0.999999
1
1
1
1
0.999999
1
1
1
0.999999
0.999998
0.999996
0.999996
0.999999
1
1
1
1
1
1
1
0.999999
0.999999
0.999999
1
1
1
1
1
1
1
1
0.999999
0.999998
0.999998
0.999998
0.999999
0.999999
1
1
1
1
1
1
1
1
1
1
1
1
1
1
1
1
1
1
1
1
0.999999
1
1
1
1
0.999999
0.999998
0.999998
1
1
1
0.999999
0.999999
0.999999
1
1
0.999998
1
0.999998
1
1
1
1
1
1
1
1
0.999999
0.999999
0.999998
0.999999
0.999999
0.999998
0.999997
0.999999
1
1
1
0.999999
0.999999
0.999999
1
1
1
1
1
1
1
1
1
1
1
0.999999
0.999999
0.999999
1
1
1
1
1
1
1
1
1
1
1
1
1
1
1
1
1
1
1
0.999999
1
1
1
1
1
1
1
1
1
1
0.999998
0.999998
0.999999
1
0.999999
0.999999
0.999999
0.999999
1
1
0.999999
0.999998
1
0.999999
1
0.999999
1
1
1
0.999999
1
1
0.999999
0.999999
1
1
1
0.999999
0.999999
1
1
0.999999
0.999999
1
1
1
1
1
1
1
1
1
1
1
1
1
1
1
1
1
1
1
1
1
1
1
1
1
1
1
1
1
1
1
1
1
1
1
1
1
1
1
1
1
1
1
1
1
1
0.999999
0.999998
0.999998
0.999999
0.999999
0.999999
0.999999
1
1
0.999988
1
1
1
0.999999
1
1
0.999999
1
1
1
0.999937
0.999877
0.999981
1
1
1
1
1
1
1
1
1
1
1
1
1
1
1
1
1
1
1
1
1
1
1
1
1
1
1
1
1
1
1
1
1
1
1
1
1
1
1
1
1
1
1
1
1
1
1
1
1
1
1
1
1
1
1
1
1
1
1
1
1
1
1
1
0.999953
0.999501
0.999492
0.999993
1
1
0.999999
1
1
0.999999
1
1
0.999993
0.999772
0.999748
0.999888
0.999998
1
1
1
1
1
1
1
1
1
1
1
1
1
1
1
1
1
1
1
1
1
1
1
1
1
1
1
1
1
1
1
1
1
1
1
1
1
1
1
1
1
1
1
1
1
1
1
1
1
1
1
1
1
1
1
1
1
1
1
1
1
1
0.999999
0.99968
0.999316
0.999317
0.999653
1
0.999999
0.999999
1
1
0.999999
0.999999
1
0.999949
0.999748
0.999748
0.999748
0.999996
1
1
1
1
1
1
1
1
1
1
1
1
1
1
1
1
1
1
1
1
1
1
1
1
1
1
1
1
1
1
1
1
1
1
1
1
1
1
1
1
1
1
1
1
1
1
1
1
1
1
1
1
1
1
1
1
1
1
1
1
1
1
0.999997
0.999489
0.999316
0.999316
0.999789
1
0.999999
0.999999
1
0.999999
1
1
1
0.999962
0.999748
0.999748
0.99984
1
1
1
1
1
1
1
1
1
1
1
1
1
1
1
1
1
1
1
1
1
1
1
1
1
1
1
1
1
1
1
1
1
1
1
1
1
1
1
1
1
1
1
1
1
1
1
1
1
1
1
1
1
1
1
1
1
1
1
1
1
1
1
1
0.999846
0.999364
0.999414
0.999893
1
0.999999
1
0.999999
0.999999
1
1
1
0.999991
0.999922
0.999886
0.999997
1
1
1
1
1
1
1
1
1
1
1
0.999999
0.999999
0.999999
0.999999
1
1
1
1
1
1
1
1
1
1
1
1
1
1
1
1
1
1
1
1
1
1
1
1
1
1
1
1
1
1
1
1
1
1
1
1
1
1
1
1
1
1
1
1
0.999999
1
1
1
1
1
0.999931
0.999956
0.999993
0.999999
0.999999
0.999999
0.999999
0.999999
1
1
1
1
1
1
1
1
1
1
1
1
1
1
1
0.999999
0.999998
0.999997
0.999997
0.999998
0.999998
0.999998
0.999999
0.999999
1
1
1
1
1
1
1
1
1
1
1
1
1
1
1
1
1
1
1
1
1
1
1
1
1
1
1
1
1
1
1
1
1
1
1
1
1
1
1
1
1
0.999999
0.999999
0.999999
0.999999
1
1
1
1
1
0.999998
1
1
1
0.999999
1
1
1
1
1
0.999999
1
1
1
1
1
0.999999
0.999999
0.999999
0.999999
0.999999
0.999999
0.999999
0.999999
0.999998
0.999999
0.999999
0.999999
1
1
1
1
1
1
1
1
1
1
1
1
1
1
1
1
1
1
1
1
1
1
1
1
1
1
1
1
1
1
1
1
1
1
1
1
1
1
1
1
1
1
1
0.999999
0.999999
0.999998
0.999998
0.999998
1
0.999999
1
0.999998
0.999999
1
1
1
0.999999
1
1
1
1
1
1
1
1
1
0.999999
0.999999
0.999999
1
1
1
1
1
0.999999
0.999999
0.999999
0.999999
0.999999
0.999999
1
1
1
1
1
1
1
1
0.999999
0.999999
1
1
1
1
1
1
1
1
1
1
1
1
1
1
1
1
1
1
1
1
1
1
1
1
1
1
1
1
1
1
1
1
1
1
1
0.999999
0.999999
0.999999
1
1
1
0.999999
1
1
1
0.999999
0.999999
1
1
1
1
1
1
1
1
1
1
1
1
1
1
1
1
1
1
1
1
0.999999
0.999998
0.999998
0.999998
0.999998
0.999999
0.999999
0.999999
0.999999
1
0.999999
0.999999
0.999999
1
1
1
1
1
1
1
1
1
1
1
1
1
1
1
1
1
0.999999
0.999999
0.999999
0.999998
0.999998
0.999998
0.999998
0.999999
1
1
1
1
1
1
1
1
1
1
1
1
1
1
1
1
1
1
0.999999
1
0.999999
0.999999
0.999997
0.999998
0.999999
1
1
1
1
1
1
1
1
1
1
1
1
1
1
1
0.99943
0.999741
0.999976
0.99996
0.999934
0.999915
0.999909
0.999919
0.999935
0.999951
0.999964
0.999975
0.999983
0.99999
0.999994
0.999998
1
1
1
1
1
1
1
1
1
1
1
0.999999
0.999996
0.999993
0.999986
0.999978
0.999966
0.999951
0.999933
0.999913
0.999895
0.999889
0.999903
0.999932
0.999899
0.999327
0.998365
0.998035
1
1
1
1
1
1
1
1
1
1
1
1
1
1
0.999999
0.999999
0.999997
0.999996
0.999903
0.999928
0.999954
0.99998
1
1
1
1
1
0.972245
0.922403
0.859452
0.788907
0.717782
0.653573
0.60247
0.568896
0.554092
0.560367
0.580343
0.608448
0.644723
0.6793
0.717045
0.756742
0.795399
0.828307
0.85448
0.874408
0.889503
0.900741
0.90868
0.913942
0.91685
0.916879
0.914511
0.911091
0.907736
0.905445
0.904984
0.906768
0.910887
0.917121
0.924631
0.932247
0.936573
0.936517
0.931787
0.922925
0.910944
0.895618
0.875482
0.848208
0.812871
0.770175
0.72332
0.678627
0.638205
0.596095
0.560849
0.531452
0.511403
0.508863
0.531742
0.57651
0.641769
0.720112
0.798909
0.869277
0.929992
0.977054
1
1
1
1
1
0.999971
0.999945
0.999927
0.999907
0.828352
0.837456
0.825641
0.806325
0.773209
0.72588
0.668805
0.585424
0.460875
0.332454
0.231539
0.152784
0.0940965
0.0530588
0.0273042
0.0122535
0.00414848
0.000732616
3.83561e-06
2.57512e-06
7.51252e-07
7.4585e-08
0.0128259
0.0279538
0.0460075
0.0673928
0.0912132
0.115772
0.13868
0.157933
0.171832
0.179903
0.182811
0.181722
0.178402
0.174253
0.171103
0.170607
0.172037
0.17405
0.175627
0.177257
0.180289
0.184308
0.18822
0.19234
0.19579
0.196373
0.191192
0.178496
0.158368
0.133341
0.105261
0.0772698
0.0521443
0.0316157
0.0149709
0.00038663
1.20508e-06
1.1285e-06
1.16572e-06
0.000107846
0.0010935
0.0039119
0.0108188
0.0269924
0.0593296
0.110069
0.175709
0.259317
0.362419
0.484447
0.595683
0.670794
0.728792
0.77625
0.805688
0.823782
0.835882
0.824273
0.107309
0.103255
0.0991172
0.0936618
0.0859887
0.0765485
0.0613133
0.0340044
0.00629782
0.000874652
0.000453592
0.000234904
0.000259556
0.000346877
0.000288666
0.000133079
7.65811e-05
8.00406e-05
1.46075e-05
7.50878e-07
7.45963e-08
6.12929e-09
6.61775e-10
1.86383e-10
9.27898e-11
8.89777e-11
8.89777e-11
8.89777e-11
1.38519e-10
1.9635e-10
6.32035e-10
3.46776e-09
7.92538e-09
1.97668e-08
1.97806e-07
3.81969e-07
1.36892e-05
4.26158e-05
7.76363e-05
7.80326e-05
8.96515e-05
7.87e-05
5.90475e-05
3.08822e-05
2.97e-06
1.93907e-06
1.28047e-06
1.1483e-06
1.13339e-06
1.13955e-06
1.13339e-06
1.13955e-06
1.14965e-06
7.81553e-07
4.37642e-07
4.37672e-07
4.37672e-07
4.47431e-07
5.4635e-07
8.82269e-07
1.23869e-06
5.5174e-06
9.17813e-06
9.97258e-06
2.00626e-05
6.85079e-05
0.000165875
0.000289978
0.00045534
0.000755143
0.00146885
0.0140072
0.0359407
0.0543486
0.0703852
0.0817398
0.0890021
0.0943256
0.0997609
0.106349
1.42279e-05
1.14738e-05
1.1387e-05
1.14738e-05
1.15891e-05
1.67862e-05
0.000321999
0.000507257
0.000414645
0.00029534
0.000194066
0.00010963
0.000229827
0.000402834
0.000369478
7.50587e-05
1.15185e-05
1.38321e-05
8.69647e-06
5.21369e-07
1.25317e-07
3.77434e-08
6.12929e-09
4.62882e-09
5.12903e-09
1.29474e-09
7.57133e-10
2.92875e-09
1.9635e-10
1.6392e-08
1.63821e-07
2.73137e-07
1.50915e-06
3.17355e-05
3.31706e-05
1.19978e-05
1.26111e-05
1.85618e-05
3.27635e-05
8.06671e-06
9.39391e-06
9.42681e-06
2.06465e-05
5.40152e-05
6.24122e-05
4.60488e-05
3.89505e-05
1.76733e-05
3.46468e-06
1.13339e-06
1.53219e-06
1.35737e-06
6.41667e-06
4.0657e-05
1.73007e-05
4.37672e-07
4.43068e-07
4.7128e-07
5.82926e-07
2.32757e-06
7.71321e-06
1.06895e-05
9.97258e-06
9.91106e-06
9.97258e-06
1.17418e-05
1.68682e-05
2.69226e-05
4.23364e-05
7.53132e-05
0.000123273
0.000128501
1.18229e-05
4.64924e-06
4.6254e-06
4.75234e-06
6.79062e-06
2.00641e-05
4.15447e-05
5.88094e-05
0.000198189
0.000106798
1.00908e-05
1.14241e-05
0.00017641
0.000418352
0.00069193
0.000550712
0.000481744
0.000376309
0.000188457
8.80457e-05
0.000101273
0.00017173
0.000191792
5.9045e-05
1.77396e-06
5.16843e-07
6.4225e-07
2.49501e-07
4.52834e-08
6.293e-08
8.19167e-08
8.32666e-08
7.57586e-08
1.94175e-08
9.03231e-10
1.19366e-08
6.26694e-08
8.28521e-08
2.10479e-07
1.87469e-07
1.73141e-07
1.8158e-05
3.31723e-05
1.20022e-05
1.20039e-05
1.5258e-05
3.23532e-05
1.99938e-06
2.09989e-06
2.55722e-06
1.40212e-05
7.65479e-05
7.76564e-05
7.76564e-05
7.76564e-05
2.77688e-05
2.41117e-06
1.84344e-06
3.53273e-06
1.18029e-05
4.90628e-05
4.86845e-05
1.57512e-05
4.43068e-07
5.06264e-06
2.67708e-05
3.01317e-05
3.22227e-05
4.67365e-05
4.66773e-05
4.33743e-05
3.37188e-05
2.71466e-05
1.38219e-05
1.35248e-05
1.42547e-05
1.45728e-05
1.40943e-05
1.5386e-05
1.86634e-05
2.0555e-05
1.13119e-05
4.75234e-06
8.3931e-05
0.000373787
0.000379243
0.00037355
0.000164862
0.00023409
7.10937e-05
8.84108e-06
2.36083e-05
0.000132265
0.000350634
0.000639136
0.000533325
0.000215562
6.98384e-05
4.44773e-06
2.98668e-06
2.51004e-06
2.456e-06
2.41751e-06
2.75569e-06
1.07536e-06
1.28654e-07
1.41899e-08
5.55371e-09
3.34327e-09
9.39048e-09
2.0566e-08
1.79528e-08
2.43718e-09
3.5815e-08
6.75387e-08
1.37873e-08
4.6461e-07
1.34802e-06
1.34802e-06
1.08871e-06
1.17355e-07
1.82363e-06
3.31588e-05
1.18451e-05
1.44729e-05
7.16977e-05
2.52341e-05
1.48359e-06
1.41457e-06
1.52369e-06
4.34051e-06
4.67238e-05
7.60294e-05
7.76564e-05
7.67302e-05
3.0793e-05
2.09083e-06
1.882e-06
1.86746e-05
7.09577e-05
7.10455e-05
3.25811e-05
3.56879e-06
1.35236e-06
2.02985e-05
4.40256e-05
4.5578e-05
4.64949e-05
4.66586e-05
4.6823e-05
4.64544e-05
4.58439e-05
4.58759e-05
4.56358e-05
3.55559e-05
1.45437e-05
1.29056e-05
8.32098e-06
4.57832e-06
3.66251e-06
6.63864e-06
9.45191e-06
5.4908e-06
1.89775e-05
0.000136074
0.000160254
0.00012184
0.000223692
0.000244129
2.05148e-05
8.60408e-06
1.64394e-05
2.62117e-05
0.000242285
0.000505798
0.00041102
3.49883e-05
2.73641e-06
4.89281e-06
6.52354e-06
1.31981e-05
4.77433e-06
3.43491e-07
1.75784e-07
8.42359e-08
1.57618e-08
2.48419e-09
2.07406e-09
2.47466e-09
2.20946e-09
1.39472e-09
1.12741e-09
1.06345e-09
1.04605e-09
7.2576e-07
1.21828e-06
1.23155e-06
1.24504e-06
1.28061e-06
9.30955e-07
6.50142e-08
7.01086e-08
2.65585e-05
2.57703e-05
2.41049e-05
7.6361e-05
5.00994e-05
1.41457e-06
1.35517e-06
1.41457e-06
1.52369e-06
1.77111e-06
3.33575e-06
4.73595e-05
6.51121e-05
1.59233e-05
2.17977e-06
7.8048e-06
6.74173e-05
7.1524e-05
6.18627e-05
5.70189e-06
4.53551e-06
2.01362e-05
2.25853e-05
1.68471e-05
1.1929e-05
2.89607e-05
4.64949e-05
4.58441e-05
3.77206e-05
3.5807e-05
3.42296e-05
4.29044e-05
4.3593e-05
4.35764e-05
3.44704e-05
5.75128e-06
2.58719e-06
1.62816e-06
1.12401e-06
1.83494e-06
1.55312e-06
1.30782e-06
5.18851e-07
4.82042e-07
4.38727e-05
0.000327347
0.000344977
8.61174e-06
8.56838e-06
8.60408e-06
9.34691e-06
0.000130024
8.8598e-05
5.37778e-05
1.73644e-05
1.89684e-06
7.03924e-06
4.60089e-05
5.48655e-05
5.26075e-05
1.86252e-05
6.42962e-08
9.88437e-09
2.85823e-09
1.13314e-09
1.68746e-09
3.07554e-09
4.61811e-09
4.13393e-09
1.65453e-09
1.03317e-09
1.05109e-09
4.7958e-07
9.43526e-07
4.79769e-07
5.59575e-08
5.55225e-08
8.22657e-08
5.91388e-08
6.03525e-08
4.05773e-06
2.23457e-05
2.35595e-05
7.66975e-05
7.7034e-05
8.36554e-06
1.36951e-06
1.35517e-06
4.01087e-06
3.8046e-05
5.33095e-05
9.94636e-06
8.42577e-06
2.9232e-05
3.05681e-06
3.2655e-05
7.19985e-05
7.19985e-05
1.39444e-05
7.69707e-06
1.22411e-05
2.33204e-05
2.32847e-05
8.47264e-06
9.63378e-06
1.76113e-05
2.60824e-05
6.84322e-06
3.33626e-06
3.99737e-06
6.21298e-06
1.24123e-05
2.49979e-05
3.48659e-05
2.34109e-05
3.37103e-06
1.63284e-06
1.12191e-06
8.34548e-07
6.39707e-07
5.50599e-07
5.05199e-07
4.82042e-07
4.78812e-07
9.72865e-05
0.000327798
0.000345869
8.56243e-06
8.56298e-06
8.56838e-06
8.68309e-06
9.1758e-06
2.96105e-05
8.10487e-05
2.06664e-05
8.95343e-07
1.70717e-05
5.4741e-05
5.49679e-05
5.4937e-05
5.12414e-05
4.04982e-06
5.7458e-09
8.78558e-10
2.77258e-10
8.14459e-10
2.41352e-09
5.34923e-09
5.4778e-09
5.4778e-09
2.87093e-09
2.06717e-09
1.07827e-08
1.34269e-08
1.69279e-09
1.73843e-10
8.64131e-09
5.47268e-08
5.86705e-08
5.91388e-08
6.03358e-08
2.75239e-06
9.8945e-06
7.7034e-05
7.7034e-05
7.53615e-05
1.26852e-05
1.47445e-06
1.74054e-06
8.10561e-05
8.21989e-05
2.61602e-05
7.84254e-06
2.8668e-05
1.72477e-05
4.19687e-05
7.20024e-05
5.28724e-05
9.78771e-06
8.86294e-06
2.38919e-05
2.35693e-05
1.93844e-05
5.18407e-06
1.24545e-05
1.61335e-05
1.77901e-06
1.75785e-06
2.14761e-06
4.1121e-06
1.86283e-05
3.97791e-05
9.73957e-05
0.000144872
9.54999e-05
7.44423e-06
1.66164e-06
8.78897e-07
6.39231e-07
5.50599e-07
5.07826e-07
4.84669e-07
4.78812e-07
4.78665e-07
3.61053e-05
0.00032649
0.000336008
8.56244e-06
8.56227e-06
8.56298e-06
8.57676e-06
8.69147e-06
0.000192714
0.00018863
3.10657e-05
1.38561e-07
8.0502e-06
2.77131e-05
4.2877e-05
3.88174e-05
1.45921e-05
3.10871e-07
1.78176e-08
3.32977e-10
2.02883e-10
1.96205e-10
1.7458e-10
1.33031e-10
1.33031e-10
1.56131e-10
1.62069e-10
1.71148e-10
1.16345e-10
1.02364e-10
1.10235e-10
9.03035e-11
6.77754e-11
4.6161e-08
6.27584e-08
6.16128e-08
5.63368e-08
6.54975e-08
1.79044e-07
5.55921e-05
7.7034e-05
7.67052e-05
7.65209e-05
3.1633e-05
3.88102e-05
8.21989e-05
8.22278e-05
8.20686e-05
7.85241e-06
1.27397e-05
0.000109768
2.82112e-05
7.09999e-05
2.04029e-05
1.10185e-05
1.27171e-05
2.39502e-05
2.38919e-05
1.33303e-05
4.95869e-06
1.14676e-05
1.38397e-05
1.75785e-06
1.85499e-06
6.60134e-06
9.01072e-05
0.000308747
0.000417959
0.000479559
0.000480019
0.000480153
0.000408287
2.79647e-05
1.64295e-06
8.44916e-07
5.87039e-07
4.99491e-07
4.81461e-07
4.78563e-07
4.78812e-07
1.20666e-06
0.000230156
0.000350116
0.000141314
8.56298e-06
8.56322e-06
8.56518e-06
0.000155245
0.000199439
0.000133547
2.31869e-06
3.02852e-08
9.38033e-11
9.47436e-11
9.45653e-11
9.48951e-11
1.14516e-10
9.06428e-09
1.38348e-09
4.35547e-10
3.47878e-10
2.81521e-10
1.8788e-10
1.36232e-10
1.33031e-10
1.4797e-10
1.52055e-10
1.38487e-10
1.12912e-10
9.25231e-11
1.04141e-10
9.31113e-11
5.38332e-11
6.77765e-11
6.28292e-08
7.24132e-08
5.30597e-08
1.53823e-08
3.05389e-08
1.18383e-06
4.31256e-05
7.66512e-05
7.78039e-05
8.05413e-05
8.20504e-05
8.22278e-05
8.22278e-05
8.22278e-05
1.76381e-05
2.54469e-06
0.000109768
1.48804e-05
3.01558e-05
6.29408e-05
1.12766e-05
1.14306e-05
2.39502e-05
2.39613e-05
6.403e-06
4.47994e-06
9.32146e-06
1.48075e-06
1.73617e-06
2.17205e-06
1.53759e-05
0.000346465
0.000476832
0.000479913
0.000480019
0.000480153
0.000480153
0.000480153
0.000479221
0.000321782
2.66757e-06
9.85223e-07
5.74778e-07
4.9494e-07
4.79027e-07
4.76285e-07
4.76932e-07
0.000195637
0.000350555
0.000349183
0.000192936
0.00011478
0.000183848
0.000205159
0.00017955
1.5348e-06
1.50976e-08
1.6752e-07
9.70799e-11
9.37715e-11
9.48951e-11
1.45992e-10
2.27438e-10
2.39554e-10
3.62513e-10
4.49115e-10
3.79435e-10
3.2774e-10
2.84366e-10
2.86996e-10
2.52581e-10
1.90727e-10
1.3069e-10
9.5368e-11
8.81129e-11
8.70843e-11
8.69631e-11
8.27845e-11
5.22209e-11
5.38333e-11
5.62817e-09
7.34144e-08
5.16228e-08
5.69254e-09
7.14979e-09
3.09025e-08
6.46025e-07
1.80902e-05
4.49356e-05
5.03672e-05
6.63411e-05
8.20504e-05
8.22278e-05
6.29771e-05
2.57474e-06
2.03897e-07
0.000103688
2.06055e-05
2.12582e-05
6.47003e-05
3.5094e-05
9.46723e-06
1.44316e-05
1.93015e-05
1.89605e-06
4.00886e-06
9.24545e-06
1.41498e-06
1.48075e-06
2.11485e-06
2.4169e-05
0.000323489
0.000470035
0.00047635
0.000479159
0.000480019
0.000480153
0.000480123
0.000480094
0.00047889
0.00033105
2.19377e-05
8.90919e-07
5.14807e-07
4.76601e-07
4.73192e-07
4.73245e-07
0.00037194
1.18582e-06
0.000264404
0.000296487
0.000296487
0.000254895
2.72257e-05
2.97978e-07
2.53178e-07
3.23925e-09
7.20988e-10
7.08411e-10
1.41461e-10
9.93486e-11
3.96518e-10
7.8116e-10
3.26009e-10
5.93318e-10
1.20752e-09
1.96997e-09
2.61799e-09
3.91131e-09
6.61949e-09
6.37776e-09
2.7246e-09
5.3752e-09
1.01267e-09
8.3072e-11
7.59319e-11
6.49538e-11
6.08886e-11
5.22211e-11
5.22211e-11
5.58265e-11
1.51963e-08
1.74186e-08
4.0872e-09
3.6553e-09
6.92121e-09
5.86679e-08
2.21756e-07
8.75807e-07
1.07287e-06
2.71127e-06
1.05217e-05
1.03363e-05
4.83962e-06
4.28125e-07
1.22072e-07
5.39144e-05
3.06996e-05
2.29523e-05
6.47003e-05
6.44723e-05
9.90405e-06
1.88657e-06
1.85681e-06
1.74491e-06
7.24029e-06
8.9964e-06
1.39177e-06
1.41498e-06
1.75074e-06
3.49404e-06
4.57691e-05
0.000354643
0.000471856
0.000475878
0.000479146
0.000479949
0.000480094
0.00047927
0.000478443
0.000477612
9.58287e-05
6.80776e-07
4.88482e-07
4.73192e-07
4.72251e-07
4.72193e-07
0.00041337
9.13964e-09
9.26421e-09
2.71311e-05
1.79878e-05
5.09797e-09
1.49231e-09
1.04849e-06
1.96181e-07
8.6229e-10
1.42241e-09
1.70284e-09
2.727e-10
1.02981e-10
2.52218e-10
3.53189e-10
1.37159e-09
5.78713e-09
1.83755e-08
3.7717e-08
5.29351e-08
8.59175e-08
1.59715e-07
4.94626e-07
1.89684e-07
2.43998e-07
1.23894e-07
5.45645e-10
1.32132e-10
7.04437e-11
5.88595e-11
5.2191e-11
5.69134e-11
5.87579e-11
8.10834e-11
1.26692e-09
2.77407e-09
3.11397e-09
3.52925e-09
1.3042e-08
5.32233e-08
1.02164e-07
1.28943e-07
1.44322e-07
1.48413e-07
1.33869e-07
1.2932e-07
1.18604e-07
1.17717e-07
2.33277e-05
5.79354e-05
2.3453e-05
5.51078e-05
6.42205e-05
1.91197e-05
1.21377e-06
1.21266e-06
1.63146e-06
1.0689e-05
8.55768e-06
1.39857e-06
1.38868e-06
1.43461e-06
1.79023e-06
3.52038e-06
9.86974e-06
0.000195207
0.000475046
0.000475312
0.000478353
0.00047902
0.000478451
0.000476661
0.000255713
2.19711e-05
5.19448e-07
4.75237e-07
4.72251e-07
4.72186e-07
4.72251e-07
0.000423215
9.06577e-09
9.13964e-09
9.26425e-09
1.05867e-08
3.07275e-08
1.33936e-09
1.0641e-10
1.17659e-10
9.19404e-10
2.31277e-09
1.77096e-09
2.70434e-10
1.07319e-10
1.25339e-10
9.23978e-10
1.0826e-08
8.39394e-08
2.71461e-07
7.74801e-07
3.43457e-06
1.72165e-05
5.79206e-05
9.88707e-05
7.85979e-05
2.5179e-05
3.98088e-07
2.381e-08
3.72684e-09
6.34e-10
1.26247e-10
6.20813e-11
5.87578e-11
6.71148e-11
8.07188e-10
5.16672e-09
4.71161e-09
3.66871e-09
1.98837e-08
4.0798e-08
5.11724e-08
7.09835e-08
1.03293e-07
1.29922e-07
1.339e-07
1.2326e-07
1.186e-07
1.1762e-07
1.18137e-07
5.29577e-07
0.000146715
3.82048e-05
3.70593e-05
6.40609e-05
5.90067e-05
2.54364e-06
1.21266e-06
2.26555e-06
1.43089e-05
9.48523e-06
1.39241e-06
1.39857e-06
1.41999e-06
1.53274e-06
2.02807e-06
3.88563e-06
1.01182e-05
6.03927e-05
0.000425629
0.000470257
0.000482986
9.77819e-05
9.58988e-06
1.76113e-06
6.36493e-07
5.26145e-07
5.0222e-07
4.75321e-07
4.72229e-07
0.000183457
0.000457543
8.98197e-09
1.62382e-08
1.07802e-07
5.8039e-08
1.73791e-08
3.87505e-10
9.36445e-11
2.07064e-10
1.42832e-09
2.22707e-09
6.37483e-10
1.18672e-10
1.04406e-10
2.44576e-10
5.36363e-09
9.13011e-08
4.64956e-06
3.66265e-05
8.28524e-05
0.00011903
0.000171339
0.000172197
0.000172431
0.000172427
0.000155554
2.27677e-05
5.35192e-07
9.29937e-08
1.41193e-08
2.12974e-09
1.27173e-09
2.27731e-10
7.54717e-11
1.9445e-10
1.25224e-09
8.84968e-10
2.39751e-08
8.51615e-08
8.39365e-08
7.68728e-08
7.88219e-08
5.87992e-07
5.27849e-06
5.8868e-06
1.98078e-06
1.23263e-07
1.18604e-07
1.17724e-07
1.27592e-05
0.000193341
5.30493e-05
3.74914e-05
6.31716e-05
6.22479e-05
7.25137e-06
1.21266e-06
5.57133e-06
1.52704e-05
1.14898e-05
1.43941e-06
1.41999e-06
1.46337e-06
1.63709e-06
3.02169e-06
5.98672e-06
1.0081e-05
1.60104e-05
2.73816e-05
0.00030572
0.00043706
0.000139565
3.39906e-06
8.96392e-07
5.5901e-07
5.32609e-07
5.26123e-07
5.08744e-07
5.77102e-07
0.000457131
0.000457351
8.95815e-09
5.88088e-09
2.78653e-10
9.36029e-12
6.36523e-09
2.14343e-09
8.49333e-11
4.71848e-10
1.2592e-09
8.63092e-10
5.92127e-11
5.48885e-11
6.91402e-11
7.01725e-10
2.20871e-08
1.70142e-05
0.000103708
0.000169068
0.000170435
0.00017116
0.000171842
0.000172248
0.000172427
0.000172479
0.000172455
0.000157518
2.1758e-05
7.00057e-07
1.12019e-07
1.73651e-08
3.9845e-09
3.16274e-08
1.55654e-10
2.32072e-10
4.42851e-10
6.86011e-10
6.59714e-08
8.51615e-08
7.25832e-08
7.10524e-08
4.67841e-06
1.60146e-05
1.66162e-05
1.66226e-05
1.38033e-05
9.16866e-07
1.29502e-07
1.2065e-07
0.000119345
0.000197791
0.000130426
3.74914e-05
6.07188e-05
5.8452e-05
6.531e-06
1.31378e-06
5.55212e-06
1.52828e-05
4.54944e-06
4.62141e-06
4.59999e-06
1.59154e-06
1.58868e-06
1.52082e-05
3.71247e-05
3.81243e-05
3.55931e-05
2.67859e-05
2.06641e-05
8.61443e-05
0.000246967
0.000246967
0.000175726
1.41491e-06
1.71399e-06
3.1376e-05
0.000183387
0.000372487
0.000457119
0.000398944
2.93745e-08
8.94908e-09
9.36029e-12
9.01379e-12
9.36029e-12
9.7138e-12
4.78569e-11
2.26798e-10
2.51274e-10
3.50129e-11
3.30622e-12
3.86665e-12
3.34308e-11
1.9112e-09
7.73095e-08
0.000127055
0.000160633
0.000164674
0.000169126
0.000170643
0.000171146
0.000171842
0.000172248
0.000172427
0.000172474
0.000171196
8.68307e-05
1.79758e-06
2.35425e-07
4.87324e-08
1.74153e-08
2.25611e-08
3.53552e-07
9.27283e-07
1.23781e-07
8.84968e-10
9.8443e-08
8.09899e-08
7.10525e-08
6.93386e-08
1.4646e-05
1.66162e-05
1.66237e-05
1.66205e-05
1.08338e-05
9.48985e-07
2.3831e-07
8.79424e-05
0.000197791
0.000198654
0.000198902
6.59285e-05
1.43056e-05
1.17808e-05
4.44516e-06
2.44155e-06
3.00662e-06
1.50584e-05
3.99312e-06
3.99447e-06
6.38588e-06
1.54441e-06
1.42127e-06
1.87754e-05
3.81559e-05
3.81894e-05
3.82113e-05
3.11432e-05
1.75962e-05
1.50597e-05
2.15154e-05
0.000209199
0.000350066
0.000367003
0.00038205
0.000406014
0.000413595
0.000413205
0.000306378
3.38082e-05
3.12996e-08
9.2616e-09
7.95384e-12
8.67686e-12
1.85216e-11
2.43114e-11
1.3168e-11
5.00249e-12
3.56577e-13
3.6658e-13
1.9331e-12
2.5995e-12
3.16009e-11
2.24859e-09
4.30371e-05
0.000155315
0.000158898
0.000160636
0.000139606
0.000105532
0.000111653
0.000146127
0.000170778
0.00016409
0.000115001
5.32174e-05
1.71104e-05
1.90957e-06
1.39897e-07
3.81799e-08
2.25184e-08
2.11457e-08
1.12393e-06
1.94091e-06
1.76107e-06
2.6455e-07
1.3409e-07
7.11792e-08
6.93387e-08
6.8369e-08
7.86068e-06
1.65932e-05
1.66162e-05
1.22853e-05
1.33356e-06
1.34288e-06
8.32281e-07
0.00012124
0.000198654
0.000199016
0.000198902
6.6204e-05
4.34072e-06
2.26078e-06
1.7971e-06
1.75399e-06
2.53045e-06
1.4534e-05
3.36744e-06
4.3477e-06
6.73295e-06
4.33373e-06
1.20377e-06
1.1866e-06
1.96243e-05
3.8039e-05
3.74141e-05
3.21732e-05
1.5798e-05
1.30797e-05
1.18148e-05
9.02927e-06
3.42508e-06
4.11057e-05
0.000150712
0.000178024
0.000151882
8.21293e-05
9.66932e-06
1.30865e-05
1.99077e-08
1.58951e-09
1.04544e-12
6.60776e-12
9.03115e-12
9.31919e-12
3.38709e-12
7.73659e-13
3.80255e-13
1.57633e-12
1.56699e-12
1.89598e-12
2.62205e-12
5.29062e-11
0.000134745
0.000151269
0.000155315
5.8404e-05
1.44701e-06
2.74523e-06
3.84867e-06
1.17984e-05
2.66369e-05
1.04889e-05
7.43448e-06
1.94774e-06
6.35298e-07
3.61885e-07
5.74912e-08
2.63101e-08
2.11318e-08
2.11163e-08
7.36562e-07
2.01598e-06
2.03795e-06
1.59432e-06
2.07359e-07
7.00632e-08
6.83695e-08
6.81469e-08
1.08543e-06
7.81008e-06
4.92087e-06
4.838e-06
2.07627e-05
1.89196e-05
6.23985e-06
6.19839e-05
0.000197837
0.000198654
0.000164012
3.38857e-05
2.56767e-06
1.80371e-06
1.65452e-06
1.75438e-06
9.64907e-06
1.62385e-05
3.2581e-06
4.07885e-06
6.73051e-06
6.4769e-06
1.18493e-06
1.18493e-06
3.24822e-06
3.42463e-06
1.37738e-05
7.59588e-06
1.38885e-05
2.74098e-05
2.74785e-05
1.42136e-05
2.17757e-06
8.13732e-10
2.94452e-10
1.91862e-11
5.97731e-13
3.15914e-13
3.15213e-13
3.14747e-13
2.43486e-13
3.76444e-13
1.03872e-12
8.75016e-13
2.29099e-12
1.93089e-12
8.87457e-13
8.04771e-13
5.22027e-13
2.38869e-12
2.77168e-12
3.10083e-12
1.40432e-11
4.57918e-10
7.01024e-05
0.000146901
3.09952e-05
1.34096e-06
1.38936e-06
1.44702e-06
9.39852e-06
2.68042e-05
3.1299e-05
8.39609e-05
9.92859e-05
9.98871e-05
8.15737e-05
9.1828e-07
1.0133e-07
2.91913e-08
2.10933e-08
2.11171e-08
2.11171e-08
1.96365e-06
2.04839e-06
2.04861e-06
7.44401e-07
7.00813e-08
6.81478e-08
6.80241e-08
6.81478e-08
1.49932e-07
2.26033e-07
4.63903e-06
3.50036e-05
3.47427e-05
1.13931e-05
1.01284e-05
9.11226e-05
9.42271e-05
1.95177e-05
5.45226e-06
1.84489e-06
1.65408e-06
1.60873e-06
5.37281e-06
1.63599e-05
1.64539e-05
3.6698e-06
1.10097e-06
5.19309e-06
6.78451e-06
3.906e-06
1.18493e-06
3.97159e-06
7.40585e-06
4.40295e-06
4.39159e-06
4.22056e-06
1.4661e-05
2.67163e-05
2.99955e-05
2.99955e-05
6.09422e-06
1.91862e-11
8.79e-13
8.14801e-13
3.54436e-13
3.27436e-13
3.14444e-13
2.42114e-13
5.07514e-13
2.42084e-13
2.56373e-13
5.89591e-13
3.56592e-13
1.02792e-13
1.40116e-13
7.03002e-13
2.28761e-12
4.66415e-12
1.68807e-11
1.82914e-10
6.67614e-09
5.86333e-07
3.93319e-05
1.11917e-06
1.25301e-06
1.34097e-06
1.15749e-05
8.37345e-05
9.2172e-05
9.61307e-05
9.92255e-05
9.98871e-05
9.99844e-05
0.000100161
9.8152e-05
3.23044e-05
1.01047e-07
2.93277e-08
2.1117e-08
3.77739e-08
1.37146e-06
2.0873e-06
2.04854e-06
9.09368e-07
6.97761e-08
6.80241e-08
6.79477e-08
6.80241e-08
8.27973e-08
3.41487e-06
4.15513e-05
3.52281e-05
5.89401e-06
1.73941e-06
1.58277e-06
2.52993e-06
2.95672e-06
2.49017e-06
1.82239e-06
1.64435e-06
1.60744e-06
1.59636e-06
6.26659e-06
1.64539e-05
1.64539e-05
1.19872e-05
8.42164e-07
8.42164e-07
5.97842e-06
7.45175e-06
2.07849e-06
2.04343e-06
7.43907e-06
7.35759e-06
4.6489e-06
4.12306e-06
4.1608e-06
3.70045e-06
2.17148e-05
2.91558e-05
2.41622e-05
2.22749e-10
1.27685e-12
8.803e-13
9.8601e-12
4.55167e-13
3.15903e-13
2.4257e-13
4.59529e-13
7.84952e-14
6.10011e-14
1.119e-13
4.96533e-14
2.41635e-14
1.65694e-13
1.04641e-12
2.98371e-12
1.22006e-11
1.71463e-10
2.66665e-09
3.01846e-07
2.94793e-06
1.10182e-06
1.10818e-06
1.11918e-06
1.25301e-06
4.27271e-05
8.77214e-05
9.05904e-05
5.11448e-05
3.7701e-05
7.76892e-05
0.000100161
0.000100241
0.000100209
9.97478e-05
3.20359e-05
1.44891e-07
3.9468e-08
5.32288e-08
4.61199e-07
2.15265e-06
2.02851e-06
4.5491e-07
6.8735e-08
6.79477e-08
6.79327e-08
2.56081e-07
7.15679e-07
1.11439e-05
4.15513e-05
3.50366e-06
1.34816e-06
1.34868e-06
1.3854e-06
1.55355e-06
1.80691e-06
1.79555e-06
1.64433e-06
1.60291e-06
1.59568e-06
1.59404e-06
1.59636e-06
1.22706e-05
1.64539e-05
1.6226e-05
7.18189e-06
7.31597e-07
1.04021e-06
7.45175e-06
5.66529e-06
1.56765e-06
9.18699e-07
7.45253e-06
9.92906e-06
8.84084e-06
4.45573e-06
3.41712e-06
3.48928e-06
1.18218e-05
2.5056e-06
1.43168e-07
3.13957e-10
2.49978e-12
7.33194e-12
6.54947e-13
2.55272e-13
3.83533e-14
1.48866e-13
1.09648e-14
1.19299e-14
1.64788e-14
7.96166e-15
1.64485e-14
3.17262e-13
2.62236e-12
7.02087e-12
8.48718e-11
1.64318e-09
3.06645e-08
4.62167e-05
5.96533e-05
1.09927e-06
9.51368e-07
1.03956e-06
1.32754e-06
4.6222e-05
8.50678e-05
4.45738e-05
2.03748e-06
2.16511e-06
2.20689e-06
6.48593e-05
0.000100225
0.000100241
0.000100209
8.22536e-05
2.25861e-06
6.68377e-08
6.13355e-08
4.89907e-07
2.1966e-06
2.20537e-06
4.48641e-07
6.84622e-08
6.79248e-08
6.79477e-08
2.56224e-06
1.33139e-06
2.0187e-05
3.228e-05
1.34816e-06
1.34816e-06
1.34816e-06
1.34868e-06
1.3854e-06
1.55353e-06
1.65316e-06
1.60289e-06
1.59568e-06
1.59485e-06
1.59568e-06
1.59404e-06
1.64412e-06
6.13023e-06
1.58151e-05
8.5438e-06
5.75032e-07
4.86139e-07
2.42645e-06
5.53827e-06
3.18072e-06
5.39122e-07
4.0784e-07
8.58952e-06
1.10684e-05
1.10684e-05
1.10575e-05
3.31002e-06
3.08315e-08
2.26191e-08
1.02515e-06
3.86989e-08
1.55209e-14
1.45605e-14
6.58479e-14
1.41302e-14
1.15973e-15
4.9274e-15
1.72364e-15
2.57596e-15
2.63794e-15
2.95759e-15
3.7058e-14
8.8285e-13
3.69326e-12
3.62988e-11
7.74614e-10
1.48878e-08
4.02136e-06
9.00158e-05
8.98666e-05
8.8254e-07
8.63171e-07
1.01367e-06
6.03237e-06
2.31636e-05
3.11372e-05
1.90288e-06
1.86273e-06
2.37416e-06
2.64187e-06
1.75329e-05
8.24899e-05
0.000100209
9.26959e-05
3.43561e-05
2.31445e-07
8.71844e-08
7.32503e-08
1.87465e-06
2.20627e-06
2.20672e-06
6.24414e-07
6.85844e-08
6.8181e-08
6.80654e-08
5.05315e-06
4.72767e-06
5.36286e-05
4.31534e-05
1.38657e-06
1.99115e-06
7.56605e-06
4.88607e-06
1.55355e-06
1.10092e-05
3.52605e-05
4.62463e-05
5.90911e-05
6.63047e-05
6.3327e-05
2.38078e-05
2.36097e-06
2.854e-06
2.39857e-06
1.02921e-06
4.86139e-07
4.55251e-07
4.61754e-07
3.77294e-06
5.05559e-06
1.82082e-06
2.69843e-07
1.75374e-07
7.90779e-06
1.10684e-05