/*--------------------------------*- C++ -*----------------------------------*\
| =========                 |                                                 |
| \\      /  F ield         | OpenFOAM: The Open Source CFD Toolbox           |
|  \\    /   O peration     | Version:  2412                                  |
|   \\  /    A nd           | Website:  www.openfoam.com                      |
|    \\/     M anipulation  |                                                 |
\*---------------------------------------------------------------------------*/
FoamFile
{
    version     2.0;
    format      ascii;
    arch        "LSB;label=32;scalar=64";
    class       volScalarField;
    location    "4.3";
    object      p;
}
// * * * * * * * * * * * * * * * * * * * * * * * * * * * * * * * * * * * * * //

dimensions      [1 -1 -2 0 0 0 0];

internalField   nonuniform List<scalar> 
6400
(
15293.7
15293.7
15293.7
15293.7
15293.7
15293.7
15293.7
15293.7
15293.7
15293.7
15293.7
15293.7
15293.7
15293.7
15293.7
15293.7
15293.7
15293.7
15293.7
15293.7
15293.7
15293.7
15293.7
15293.7
15293.7
15293.7
15293.7
15293.7
15293.7
15293.7
15293.7
15293.7
15293.7
15293.7
15293.7
15293.7
15293.7
15293.7
15293.7
15293.7
15293.7
15293.7
15293.7
15293.7
15293.7
15293.7
15293.7
15293.7
15293.7
15293.7
15293.7
15293.7
15293.7
15293.7
15293.7
15293.7
15293.7
15293.7
15293.7
15293.7
15293.7
15293.7
15293.7
15293.7
15293.7
15293.7
15293.7
15293.7
15293.7
15293.7
15293.7
15293.7
15293.7
15293.7
15293.7
15293.7
15293.7
15293.7
15293.7
15293.7
14508.9
14508.9
14508.9
14508.9
14508.9
14508.9
14508.9
14508.9
14508.9
14508.9
14508.9
14508.9
14508.9
14508.9
14508.9
14508.9
14508.9
14508.9
14508.9
14508.9
14508.9
14508.9
14508.9
14508.9
14508.9
14508.9
14508.9
14508.9
14508.9
14508.9
14508.9
14508.9
14508.9
14508.9
14508.9
14508.9
14508.9
14508.9
14508.9
14508.9
14508.9
14508.9
14508.9
14508.9
14508.9
14508.9
14508.9
14508.9
14508.9
14508.9
14508.9
14508.9
14508.9
14508.9
14508.9
14508.9
14508.9
14508.9
14508.9
14508.9
14508.9
14508.9
14508.9
14508.9
14508.9
14508.9
14508.9
14508.9
14508.9
14508.9
14508.9
14508.9
14508.9
14508.9
14508.9
14508.9
14508.9
14508.9
14508.9
14508.9
13724.1
13724.1
13724.1
13724.1
13724.1
13724.1
13724.1
13724.1
13724.1
13724.1
13724.1
13724.1
13724.1
13724.1
13724.1
13724.1
13724.1
13724.1
13724.1
13724.1
13724.1
13724.1
13724.1
13724.1
13724.1
13724.1
13724.1
13724.1
13724.1
13724.1
13724.1
13724.1
13724.1
13724.1
13724.1
13724.1
13724.1
13724.1
13724.1
13724.1
13724.1
13724.1
13724.1
13724.1
13724.1
13724.1
13724.1
13724.1
13724.1
13724.1
13724.1
13724.1
13724.1
13724.1
13724.1
13724.1
13724.1
13724.1
13724.1
13724.1
13724.1
13724.1
13724.1
13724.1
13724.1
13724.1
13724.1
13724.1
13724.1
13724.1
13724.1
13724.1
13724.1
13724.1
13724.1
13724.1
13724.1
13724.1
13724.1
13724.1
12939.3
12939.3
12939.3
12939.3
12939.3
12939.3
12939.3
12939.3
12939.3
12939.3
12939.3
12939.3
12939.3
12939.3
12939.3
12939.3
12939.3
12939.3
12939.3
12939.3
12939.3
12939.3
12939.3
12939.3
12939.3
12939.3
12939.3
12939.3
12939.3
12939.3
12939.3
12939.3
12939.3
12939.3
12939.3
12939.3
12939.3
12939.3
12939.3
12939.3
12939.3
12939.3
12939.3
12939.3
12939.3
12939.3
12939.3
12939.3
12939.3
12939.3
12939.3
12939.3
12939.3
12939.3
12939.3
12939.3
12939.3
12939.3
12939.3
12939.3
12939.3
12939.3
12939.3
12939.3
12939.3
12939.3
12939.3
12939.3
12939.3
12939.3
12939.3
12939.3
12939.3
12939.3
12939.3
12939.3
12939.3
12939.3
12939.3
12939.3
12154.5
12154.5
12154.5
12154.5
12154.5
12154.5
12154.5
12154.5
12154.5
12154.5
12154.5
12154.5
12154.5
12154.5
12154.5
12154.5
12154.5
12154.5
12154.5
12154.5
12154.5
12154.5
12154.5
12154.5
12154.5
12154.5
12154.5
12154.5
12154.5
12154.5
12154.5
12154.5
12154.5
12154.5
12154.5
12154.5
12154.5
12154.5
12154.5
12154.5
12154.5
12154.5
12154.5
12154.5
12154.5
12154.5
12154.5
12154.5
12154.5
12154.5
12154.5
12154.5
12154.5
12154.5
12154.5
12154.5
12154.5
12154.5
12154.5
12154.5
12154.5
12154.5
12154.5
12154.5
12154.5
12154.5
12154.5
12154.5
12154.5
12154.5
12154.5
12154.5
12154.5
12154.5
12154.5
12154.5
12154.5
12154.5
12154.5
12154.5
11369.7
11369.7
11369.7
11369.7
11369.7
11369.7
11369.7
11369.7
11369.7
11369.7
11369.7
11369.7
11369.7
11369.7
11369.7
11369.7
11369.7
11369.7
11369.7
11369.7
11369.7
11369.7
11369.7
11369.7
11369.7
11369.7
11369.7
11369.7
11369.7
11369.7
11369.7
11369.7
11369.7
11369.7
11369.7
11369.7
11369.7
11369.7
11369.7
11369.7
11369.7
11369.7
11369.7
11369.7
11369.7
11369.7
11369.7
11369.7
11369.7
11369.7
11369.7
11369.7
11369.7
11369.7
11369.7
11369.7
11369.7
11369.7
11369.7
11369.7
11369.7
11369.7
11369.7
11369.7
11369.7
11369.7
11369.7
11369.7
11369.7
11369.7
11369.7
11369.7
11369.7
11369.7
11369.7
11369.7
11369.7
11369.7
11369.7
11369.7
10584.9
10584.9
10584.9
10584.9
10584.9
10584.9
10584.9
10584.9
10584.9
10584.9
10584.9
10584.9
10584.9
10584.9
10584.9
10584.9
10584.9
10584.9
10584.9
10584.9
10584.9
10584.9
10584.9
10584.9
10584.9
10584.9
10584.9
10584.9
10584.9
10584.9
10584.9
10584.9
10584.9
10584.9
10584.9
10584.9
10584.9
10584.9
10584.9
10584.9
10584.9
10584.9
10584.9
10584.9
10584.9
10584.9
10584.9
10584.9
10584.9
10584.9
10584.9
10584.9
10584.9
10584.9
10584.9
10584.9
10584.9
10584.9
10584.9
10584.9
10584.9
10584.9
10584.9
10584.9
10584.9
10584.9
10584.9
10584.9
10584.9
10584.9
10584.9
10584.9
10584.9
10584.9
10584.9
10584.9
10584.9
10584.9
10584.9
10584.9
9800.13
9800.13
9800.13
9800.12
9800.12
9800.12
9800.12
9800.12
9800.12
9800.12
9800.12
9800.12
9800.12
9800.12
9800.12
9800.12
9800.12
9800.12
9800.12
9800.12
9800.12
9800.12
9800.12
9800.12
9800.12
9800.12
9800.12
9800.13
9800.13
9800.13
9800.13
9800.13
9800.13
9800.13
9800.13
9800.13
9800.13
9800.13
9800.13
9800.13
9800.13
9800.13
9800.13
9800.13
9800.13
9800.13
9800.13
9800.13
9800.13
9800.13
9800.13
9800.13
9800.13
9800.13
9800.13
9800.13
9800.13
9800.13
9800.14
9800.14
9800.14
9800.14
9800.14
9800.14
9800.14
9800.14
9800.14
9800.14
9800.14
9800.14
9800.14
9800.14
9800.14
9800.15
9800.15
9800.15
9800.15
9800.15
9800.15
9800.15
9015.33
9015.33
9015.33
9015.33
9015.33
9015.33
9015.33
9015.33
9015.33
9015.33
9015.33
9015.33
9015.33
9015.33
9015.33
9015.33
9015.33
9015.33
9015.33
9015.33
9015.33
9015.33
9015.33
9015.33
9015.33
9015.33
9015.33
9015.33
9015.33
9015.33
9015.33
9015.33
9015.33
9015.33
9015.33
9015.33
9015.33
9015.33
9015.33
9015.33
9015.33
9015.33
9015.33
9015.33
9015.33
9015.33
9015.33
9015.33
9015.33
9015.34
9015.34
9015.34
9015.34
9015.34
9015.34
9015.34
9015.34
9015.34
9015.34
9015.34
9015.34
9015.34
9015.34
9015.34
9015.34
9015.34
9015.34
9015.34
9015.34
9015.34
9015.35
9015.35
9015.35
9015.35
9015.35
9015.35
9015.35
9015.35
9015.35
9015.35
8230.53
8230.53
8230.53
8230.53
8230.53
8230.53
8230.53
8230.53
8230.53
8230.53
8230.53
8230.53
8230.53
8230.53
8230.53
8230.53
8230.53
8230.53
8230.53
8230.53
8230.53
8230.53
8230.53
8230.53
8230.53
8230.53
8230.53
8230.53
8230.54
8230.54
8230.54
8230.54
8230.54
8230.54
8230.54
8230.54
8230.54
8230.54
8230.54
8230.54
8230.54
8230.54
8230.54
8230.54
8230.54
8230.54
8230.54
8230.54
8230.54
8230.54
8230.54
8230.54
8230.54
8230.54
8230.54
8230.54
8230.54
8230.54
8230.54
8230.54
8230.54
8230.54
8230.54
8230.54
8230.55
8230.55
8230.55
8230.55
8230.55
8230.55
8230.55
8230.55
8230.55
8230.55
8230.55
8230.55
8230.55
8230.55
8230.55
8230.55
7445.74
7445.74
7445.74
7445.74
7445.74
7445.74
7445.74
7445.74
7445.74
7445.74
7445.74
7445.74
7445.74
7445.74
7445.74
7445.74
7445.74
7445.74
7445.74
7445.74
7445.74
7445.74
7445.74
7445.74
7445.74
7445.74
7445.74
7445.74
7445.74
7445.74
7445.74
7445.74
7445.74
7445.74
7445.74
7445.74
7445.74
7445.74
7445.74
7445.74
7445.74
7445.74
7445.74
7445.74
7445.74
7445.74
7445.75
7445.75
7445.75
7445.75
7445.75
7445.75
7445.75
7445.75
7445.75
7445.75
7445.75
7445.75
7445.75
7445.75
7445.75
7445.75
7445.75
7445.75
7445.75
7445.75
7445.75
7445.75
7445.75
7445.75
7445.75
7445.75
7445.75
7445.75
7445.75
7445.76
7445.76
7445.76
7445.76
7445.76
6660.94
6660.94
6660.94
6660.94
6660.94
6660.94
6660.94
6660.94
6660.94
6660.94
6660.94
6660.94
6660.94
6660.94
6660.94
6660.94
6660.94
6660.94
6660.94
6660.94
6660.94
6660.94
6660.94
6660.94
6660.94
6660.95
6660.95
6660.95
6660.95
6660.95
6660.95
6660.95
6660.95
6660.95
6660.95
6660.95
6660.95
6660.95
6660.95
6660.95
6660.95
6660.95
6660.95
6660.95
6660.95
6660.95
6660.95
6660.95
6660.95
6660.95
6660.95
6660.95
6660.95
6660.95
6660.95
6660.95
6660.95
6660.95
6660.95
6660.95
6660.95
6660.95
6660.95
6660.95
6660.95
6660.95
6660.95
6660.95
6660.95
6660.96
6660.96
6660.96
6660.96
6660.96
6660.96
6660.96
6660.96
6660.96
6660.96
6660.96
5876.15
5876.15
5876.15
5876.15
5876.15
5876.15
5876.15
5876.15
5876.15
5876.15
5876.15
5876.15
5876.15
5876.15
5876.15
5876.15
5876.15
5876.15
5876.15
5876.15
5876.15
5876.15
5876.15
5876.15
5876.15
5876.15
5876.15
5876.15
5876.15
5876.15
5876.15
5876.15
5876.15
5876.15
5876.16
5876.16
5876.16
5876.16
5876.16
5876.16
5876.16
5876.16
5876.16
5876.16
5876.16
5876.16
5876.16
5876.16
5876.16
5876.16
5876.16
5876.16
5876.16
5876.16
5876.16
5876.16
5876.16
5876.16
5876.16
5876.16
5876.16
5876.16
5876.16
5876.16
5876.16
5876.16
5876.16
5876.16
5876.16
5876.16
5876.16
5876.16
5876.16
5876.16
5876.16
5876.16
5876.16
5876.16
5876.16
5876.16
5091.35
5091.35
5091.35
5091.35
5091.35
5091.35
5091.35
5091.35
5091.35
5091.35
5091.35
5091.35
5091.35
5091.35
5091.35
5091.35
5091.35
5091.35
5091.35
5091.35
5091.35
5091.36
5091.36
5091.36
5091.36
5091.36
5091.36
5091.36
5091.36
5091.36
5091.36
5091.36
5091.36
5091.36
5091.36
5091.36
5091.36
5091.36
5091.36
5091.36
5091.36
5091.36
5091.36
5091.36
5091.36
5091.36
5091.36
5091.36
5091.36
5091.36
5091.36
5091.36
5091.36
5091.36
5091.36
5091.36
5091.36
5091.36
5091.36
5091.36
5091.36
5091.36
5091.36
5091.36
5091.36
5091.36
5091.36
5091.36
5091.36
5091.36
5091.36
5091.36
5091.36
5091.37
5091.37
5091.37
5091.37
5091.37
5091.37
5091.37
4306.56
4306.56
4306.56
4306.56
4306.56
4306.56
4306.56
4306.56
4306.56
4306.56
4306.56
4306.56
4306.56
4306.56
4306.56
4306.56
4306.56
4306.56
4306.56
4306.56
4306.56
4306.56
4306.56
4306.56
4306.56
4306.56
4306.56
4306.57
4306.57
4306.57
4306.57
4306.57
4306.57
4306.57
4306.57
4306.57
4306.57
4306.57
4306.57
4306.57
4306.57
4306.57
4306.57
4306.57
4306.57
4306.57
4306.57
4306.57
4306.57
4306.57
4306.57
4306.57
4306.57
4306.57
4306.57
4306.57
4306.57
4306.57
4306.57
4306.57
4306.57
4306.57
4306.57
4306.57
4306.57
4306.57
4306.57
4306.57
4306.57
4306.57
4306.57
4306.57
4306.57
4306.57
4306.57
4306.57
4306.57
4306.57
4306.57
4306.57
3521.77
3521.77
3521.76
3521.76
3521.76
3521.76
3521.76
3521.76
3521.76
3521.76
3521.76
3521.76
3521.76
3521.76
3521.76
3521.77
3521.77
3521.77
3521.77
3521.77
3521.77
3521.77
3521.77
3521.77
3521.77
3521.77
3521.77
3521.77
3521.77
3521.77
3521.77
3521.77
3521.78
3521.78
3521.78
3521.78
3521.78
3521.78
3521.78
3521.78
3521.78
3521.78
3521.78
3521.78
3521.78
3521.78
3521.78
3521.78
3521.78
3521.78
3521.78
3521.78
3521.78
3521.78
3521.78
3521.78
3521.78
3521.77
3521.77
3521.77
3521.77
3521.77
3521.77
3521.77
3521.77
3521.77
3521.77
3521.77
3521.77
3521.77
3521.77
3521.77
3521.77
3521.77
3521.77
3521.77
3521.78
3521.78
3521.78
3521.78
2736.97
2736.97
2736.97
2736.97
2736.97
2736.97
2736.97
2736.97
2736.97
2736.97
2736.97
2736.97
2736.97
2736.97
2736.97
2736.97
2736.97
2736.97
2736.97
2736.97
2736.97
2736.97
2736.98
2736.98
2736.98
2736.98
2736.98
2736.98
2736.98
2736.98
2736.98
2736.98
2736.98
2736.98
2736.98
2736.98
2736.98
2736.98
2736.99
2736.99
2736.99
2736.99
2736.99
2736.99
2736.99
2736.99
2736.98
2736.98
2736.98
2736.98
2736.98
2736.98
2736.98
2736.98
2736.98
2736.98
2736.98
2736.98
2736.98
2736.98
2736.98
2736.98
2736.98
2736.98
2736.98
2736.98
2736.98
2736.98
2736.98
2736.98
2736.98
2736.98
2736.98
2736.98
2736.98
2736.98
2736.98
2736.98
2736.98
2736.98
1952.18
1952.18
1952.18
1952.18
1952.18
1952.18
1952.18
1952.18
1952.18
1952.18
1952.18
1952.18
1952.18
1952.18
1952.18
1952.18
1952.18
1952.18
1952.18
1952.18
1952.18
1952.18
1952.18
1952.18
1952.18
1952.18
1952.19
1952.19
1952.19
1952.19
1952.19
1952.19
1952.19
1952.19
1952.19
1952.19
1952.19
1952.19
1952.19
1952.19
1952.19
1952.19
1952.19
1952.19
1952.19
1952.19
1952.19
1952.19
1952.19
1952.19
1952.19
1952.19
1952.19
1952.19
1952.19
1952.19
1952.19
1952.19
1952.19
1952.19
1952.19
1952.18
1952.18
1952.18
1952.18
1952.18
1952.18
1952.18
1952.18
1952.18
1952.18
1952.18
1952.18
1952.18
1952.18
1952.18
1952.18
1952.18
1952.18
1952.18
1167.38
1167.38
1167.38
1167.38
1167.38
1167.38
1167.38
1167.38
1167.38
1167.38
1167.38
1167.38
1167.38
1167.38
1167.38
1167.38
1167.38
1167.38
1167.39
1167.39
1167.39
1167.39
1167.39
1167.39
1167.39
1167.39
1167.39
1167.39
1167.39
1167.39
1167.4
1167.4
1167.4
1167.4
1167.4
1167.4
1167.4
1167.4
1167.4
1167.4
1167.4
1167.4
1167.4
1167.4
1167.4
1167.4
1167.4
1167.4
1167.4
1167.4
1167.4
1167.4
1167.4
1167.4
1167.39
1167.39
1167.39
1167.39
1167.39
1167.39
1167.39
1167.39
1167.39
1167.39
1167.39
1167.39
1167.39
1167.39
1167.39
1167.39
1167.39
1167.39
1167.39
1167.39
1167.39
1167.39
1167.39
1167.39
1167.39
1167.39
382.588
382.586
382.586
382.586
382.586
382.586
382.586
382.586
382.586
382.586
382.587
382.587
382.587
382.588
382.589
382.589
382.59
382.591
382.592
382.592
382.593
382.594
382.595
382.596
382.597
382.598
382.599
382.601
382.602
382.603
382.604
382.605
382.607
382.608
382.609
382.61
382.611
382.611
382.612
382.612
382.612
382.612
382.612
382.611
382.611
382.61
382.609
382.608
382.607
382.606
382.605
382.605
382.604
382.603
382.602
382.601
382.6
382.599
382.598
382.598
382.597
382.596
382.596
382.595
382.594
382.594
382.593
382.593
382.592
382.592
382.591
382.591
382.591
382.591
382.59
382.59
382.59
382.59
382.591
382.592
-10.0605
-10.0603
-10.0603
-10.0602
-10.0602
-10.0601
-10.0599
-10.0598
-10.0595
-10.0592
-10.0589
-10.0585
-10.0579
-10.0573
-10.0566
-10.0559
-10.0551
-10.0542
-10.0533
-10.0523
-10.0513
-10.0503
-10.0492
-10.048
-10.0468
-10.0454
-10.044
-10.0425
-10.0409
-10.0393
-10.0377
-10.0361
-10.0344
-10.0329
-10.0314
-10.0301
-10.029
-10.0282
-10.0275
-10.0272
-10.0271
-10.0273
-10.0278
-10.0284
-10.0293
-10.0304
-10.0315
-10.0327
-10.034
-10.0353
-10.0367
-10.038
-10.0392
-10.0404
-10.0416
-10.0427
-10.0438
-10.0448
-10.0458
-10.0467
-10.0475
-10.0484
-10.0491
-10.0499
-10.0506
-10.0512
-10.0518
-10.0523
-10.0528
-10.0533
-10.0537
-10.0541
-10.0544
-10.0546
-10.0548
-10.0548
-10.0549
-10.0549
-10.0549
-10.0551
-10.5524
-10.5524
-10.5523
-10.5523
-10.5522
-10.5521
-10.5519
-10.5517
-10.5514
-10.5511
-10.5507
-10.5502
-10.5496
-10.5489
-10.5482
-10.5474
-10.5465
-10.5456
-10.5446
-10.5436
-10.5425
-10.5414
-10.5402
-10.539
-10.5377
-10.5364
-10.5349
-10.5334
-10.5319
-10.5302
-10.5286
-10.5269
-10.5253
-10.5237
-10.5223
-10.521
-10.5199
-10.519
-10.5184
-10.518
-10.518
-10.5181
-10.5186
-10.5192
-10.5201
-10.5211
-10.5223
-10.5235
-10.5248
-10.5262
-10.5275
-10.5288
-10.5301
-10.5313
-10.5325
-10.5336
-10.5347
-10.5357
-10.5367
-10.5376
-10.5385
-10.5394
-10.5401
-10.5409
-10.5416
-10.5422
-10.5428
-10.5434
-10.544
-10.5445
-10.5449
-10.5453
-10.5456
-10.5458
-10.546
-10.5461
-10.5461
-10.546
-10.546
-10.546
-11.0428
-11.0428
-11.0428
-11.0427
-11.0427
-11.0425
-11.0424
-11.0422
-11.0419
-11.0415
-11.0411
-11.0406
-11.04
-11.0394
-11.0386
-11.0378
-11.037
-11.036
-11.0351
-11.0341
-11.033
-11.0319
-11.0307
-11.0295
-11.0282
-11.0269
-11.0255
-11.024
-11.0224
-11.0208
-11.0192
-11.0175
-11.0159
-11.0143
-11.0129
-11.0115
-11.0104
-11.0095
-11.0089
-11.0085
-11.0084
-11.0086
-11.0091
-11.0098
-11.0106
-11.0117
-11.0129
-11.0142
-11.0154
-11.0168
-11.0181
-11.0194
-11.0206
-11.0219
-11.023
-11.0241
-11.0252
-11.0263
-11.0272
-11.0282
-11.029
-11.0298
-11.0306
-11.0313
-11.032
-11.0327
-11.0333
-11.0339
-11.0345
-11.035
-11.0354
-11.0358
-11.0361
-11.0363
-11.0364
-11.0365
-11.0365
-11.0365
-11.0365
-11.0365
-11.5334
-11.5334
-11.5333
-11.5333
-11.5332
-11.5331
-11.5329
-11.5327
-11.5324
-11.5321
-11.5317
-11.5312
-11.5306
-11.5299
-11.5292
-11.5284
-11.5276
-11.5267
-11.5257
-11.5247
-11.5237
-11.5226
-11.5214
-11.5202
-11.5189
-11.5175
-11.5161
-11.5146
-11.513
-11.5114
-11.5097
-11.5081
-11.5064
-11.5048
-11.5032
-11.5019
-11.5007
-11.4997
-11.4991
-11.4987
-11.4986
-11.4988
-11.4993
-11.5001
-11.501
-11.5021
-11.5033
-11.5046
-11.506
-11.5073
-11.5087
-11.51
-11.5113
-11.5125
-11.5137
-11.5148
-11.5158
-11.5169
-11.5178
-11.5188
-11.5196
-11.5204
-11.5212
-11.5219
-11.5226
-11.5233
-11.5239
-11.5245
-11.525
-11.5255
-11.526
-11.5263
-11.5266
-11.5268
-11.5269
-11.527
-11.527
-11.527
-11.527
-11.527
-12.024
-12.0239
-12.0239
-12.0238
-12.0238
-12.0236
-12.0235
-12.0233
-12.023
-12.0226
-12.0222
-12.0217
-12.0212
-12.0205
-12.0198
-12.019
-12.0182
-12.0173
-12.0164
-12.0154
-12.0144
-12.0133
-12.0122
-12.011
-12.0097
-12.0083
-12.0069
-12.0054
-12.0038
-12.0021
-12.0004
-11.9986
-11.9969
-11.9952
-11.9935
-11.9921
-11.9908
-11.9898
-11.989
-11.9886
-11.9886
-11.9888
-11.9894
-11.9902
-11.9912
-11.9924
-11.9938
-11.9952
-11.9966
-11.9979
-11.9993
-12.0007
-12.002
-12.0032
-12.0044
-12.0055
-12.0066
-12.0076
-12.0085
-12.0094
-12.0103
-12.0111
-12.0119
-12.0126
-12.0133
-12.0139
-12.0145
-12.0151
-12.0156
-12.0161
-12.0165
-12.0169
-12.0172
-12.0173
-12.0175
-12.0175
-12.0175
-12.0175
-12.0175
-12.0175
-12.5145
-12.5145
-12.5145
-12.5144
-12.5143
-12.5142
-12.5141
-12.5138
-12.5136
-12.5132
-12.5128
-12.5123
-12.5118
-12.5111
-12.5105
-12.5097
-12.5089
-12.5081
-12.5072
-12.5063
-12.5053
-12.5042
-12.5031
-12.5019
-12.5006
-12.4992
-12.4978
-12.4962
-12.4946
-12.4929
-12.4911
-12.4892
-12.4874
-12.4855
-12.4837
-12.4821
-12.4807
-12.4795
-12.4787
-12.4783
-12.4783
-12.4786
-12.4792
-12.4802
-12.4814
-12.4827
-12.4841
-12.4856
-12.4872
-12.4886
-12.4901
-12.4915
-12.4928
-12.4941
-12.4953
-12.4964
-12.4974
-12.4984
-12.4993
-12.5002
-12.5011
-12.5019
-12.5026
-12.5033
-12.504
-12.5046
-12.5052
-12.5058
-12.5063
-12.5068
-12.5071
-12.5075
-12.5077
-12.5079
-12.508
-12.5081
-12.5081
-12.5081
-12.5081
-12.5081
-13.0052
-13.0051
-13.0051
-13.005
-13.005
-13.0048
-13.0047
-13.0044
-13.0042
-13.0038
-13.0034
-13.003
-13.0024
-13.0018
-13.0012
-13.0005
-12.9997
-12.9989
-12.9981
-12.9972
-12.9962
-12.9952
-12.9941
-12.9929
-12.9916
-12.9902
-12.9888
-12.9872
-12.9855
-12.9837
-12.9819
-12.9799
-12.9779
-12.9758
-12.9738
-12.972
-12.9704
-12.9691
-12.9681
-12.9677
-12.9677
-12.9681
-12.9689
-12.97
-12.9714
-12.9729
-12.9745
-12.9762
-12.9778
-12.9794
-12.9809
-12.9823
-12.9837
-12.985
-12.9862
-12.9873
-12.9883
-12.9893
-12.9902
-12.9911
-12.9919
-12.9927
-12.9934
-12.9941
-12.9948
-12.9954
-12.996
-12.9965
-12.997
-12.9974
-12.9978
-12.998
-12.9983
-12.9984
-12.9985
-12.9986
-12.9987
-12.9987
-12.9987
-12.9987
-13.4958
-13.4958
-13.4957
-13.4957
-13.4956
-13.4955
-13.4953
-13.4951
-13.4948
-13.4945
-13.4941
-13.4936
-13.4931
-13.4926
-13.492
-13.4913
-13.4906
-13.4899
-13.489
-13.4882
-13.4872
-13.4862
-13.4852
-13.484
-13.4827
-13.4814
-13.4799
-13.4783
-13.4766
-13.4748
-13.4728
-13.4706
-13.4684
-13.4661
-13.4639
-13.4617
-13.4598
-13.4583
-13.4572
-13.4567
-13.4567
-13.4573
-13.4583
-13.4597
-13.4613
-13.4631
-13.4649
-13.4667
-13.4685
-13.4702
-13.4718
-13.4733
-13.4747
-13.476
-13.4772
-13.4783
-13.4793
-13.4803
-13.4812
-13.482
-13.4828
-13.4836
-13.4843
-13.485
-13.4856
-13.4862
-13.4868
-13.4873
-13.4877
-13.4881
-13.4884
-13.4887
-13.4889
-13.489
-13.4891
-13.4892
-13.4893
-13.4893
-13.4893
-13.4894
-13.9865
-13.9864
-13.9864
-13.9863
-13.9862
-13.9861
-13.9859
-13.9857
-13.9854
-13.9851
-13.9847
-13.9843
-13.9838
-13.9833
-13.9828
-13.9822
-13.9815
-13.9808
-13.9801
-13.9792
-13.9784
-13.9774
-13.9764
-13.9752
-13.974
-13.9727
-13.9712
-13.9696
-13.9679
-13.9659
-13.9638
-13.9616
-13.9591
-13.9565
-13.9539
-13.9513
-13.949
-13.9471
-13.9458
-13.9452
-13.9454
-13.9461
-13.9474
-13.9492
-13.9511
-13.9532
-13.9553
-13.9574
-13.9593
-13.9611
-13.9629
-13.9644
-13.9659
-13.9672
-13.9683
-13.9694
-13.9704
-13.9714
-13.9723
-13.9731
-13.9738
-13.9746
-13.9753
-13.9759
-13.9765
-13.9771
-13.9776
-13.978
-13.9784
-13.9787
-13.979
-13.9793
-13.9795
-13.9796
-13.9797
-13.9798
-13.9799
-13.98
-13.98
-13.98
-14.4772
-14.4771
-14.4771
-14.477
-14.4769
-14.4768
-14.4766
-14.4764
-14.4761
-14.4758
-14.4754
-14.475
-14.4746
-14.4741
-14.4736
-14.4731
-14.4725
-14.4718
-14.4711
-14.4704
-14.4695
-14.4686
-14.4677
-14.4666
-14.4654
-14.4641
-14.4627
-14.4611
-14.4594
-14.4574
-14.4552
-14.4527
-14.4499
-14.447
-14.4439
-14.4408
-14.4379
-14.4355
-14.4339
-14.4332
-14.4335
-14.4346
-14.4363
-14.4385
-14.4409
-14.4434
-14.4459
-14.4482
-14.4503
-14.4522
-14.454
-14.4557
-14.4571
-14.4584
-14.4596
-14.4607
-14.4617
-14.4626
-14.4634
-14.4642
-14.4649
-14.4656
-14.4663
-14.4669
-14.4675
-14.468
-14.4684
-14.4688
-14.4691
-14.4694
-14.4697
-14.4699
-14.4701
-14.4703
-14.4704
-14.4705
-14.4706
-14.4707
-14.4707
-14.4708
-14.9679
-14.9678
-14.9678
-14.9677
-14.9676
-14.9675
-14.9673
-14.9671
-14.9668
-14.9665
-14.9662
-14.9658
-14.9654
-14.965
-14.9645
-14.964
-14.9635
-14.9629
-14.9623
-14.9616
-14.9608
-14.96
-14.9591
-14.9581
-14.957
-14.9558
-14.9544
-14.9529
-14.9511
-14.9491
-14.9468
-14.9441
-14.9411
-14.9377
-14.934
-14.9302
-14.9265
-14.9234
-14.9214
-14.9206
-14.921
-14.9226
-14.925
-14.9278
-14.9308
-14.9338
-14.9366
-14.9392
-14.9415
-14.9436
-14.9454
-14.9471
-14.9485
-14.9499
-14.951
-14.952
-14.953
-14.9539
-14.9547
-14.9554
-14.9561
-14.9567
-14.9574
-14.9579
-14.9584
-14.9588
-14.9592
-14.9596
-14.9599
-14.9601
-14.9604
-14.9606
-14.9608
-14.9609
-14.9611
-14.9612
-14.9613
-14.9614
-14.9615
-14.9615
-15.4586
-15.4586
-15.4585
-15.4584
-15.4583
-15.4582
-15.458
-15.4578
-15.4575
-15.4573
-15.4569
-15.4566
-15.4562
-15.4559
-15.4554
-15.455
-15.4545
-15.454
-15.4534
-15.4528
-15.4521
-15.4514
-15.4506
-15.4497
-15.4487
-15.4476
-15.4463
-15.4448
-15.4432
-15.4412
-15.4388
-15.436
-15.4327
-15.4288
-15.4244
-15.4196
-15.4148
-15.4107
-15.408
-15.407
-15.4078
-15.4101
-15.4134
-15.4171
-15.4208
-15.4243
-15.4276
-15.4305
-15.433
-15.4352
-15.4371
-15.4387
-15.4402
-15.4414
-15.4426
-15.4435
-15.4444
-15.4452
-15.446
-15.4467
-15.4473
-15.4479
-15.4484
-15.4489
-15.4494
-15.4497
-15.4501
-15.4504
-15.4506
-15.4508
-15.4511
-15.4513
-15.4515
-15.4516
-15.4518
-15.4519
-15.4521
-15.4522
-15.4522
-15.4523
-15.9493
-15.9493
-15.9492
-15.9492
-15.9491
-15.9489
-15.9487
-15.9485
-15.9483
-15.948
-15.9477
-15.9474
-15.9471
-15.9468
-15.9464
-15.946
-15.9456
-15.9451
-15.9446
-15.9441
-15.9435
-15.9428
-15.9421
-15.9414
-15.9405
-15.9395
-15.9384
-15.9371
-15.9356
-15.9337
-15.9314
-15.9285
-15.925
-15.9207
-15.9154
-15.9093
-15.9029
-15.8972
-15.8936
-15.8924
-15.8937
-15.8972
-15.9018
-15.9066
-15.9112
-15.9154
-15.9191
-15.9222
-15.9249
-15.9271
-15.929
-15.9306
-15.932
-15.9332
-15.9342
-15.9352
-15.936
-15.9367
-15.9374
-15.938
-15.9386
-15.9391
-15.9395
-15.94
-15.9403
-15.9406
-15.9409
-15.9412
-15.9414
-15.9416
-15.9418
-15.942
-15.9422
-15.9424
-15.9426
-15.9427
-15.9428
-15.943
-15.943
-15.9431
-16.44
-16.44
-16.44
-16.4399
-16.4398
-16.4397
-16.4395
-16.4393
-16.4391
-16.4388
-16.4386
-16.4383
-16.438
-16.4377
-16.4374
-16.437
-16.4367
-16.4363
-16.4358
-16.4354
-16.4349
-16.4344
-16.4338
-16.4332
-16.4325
-16.4317
-16.4308
-16.4297
-16.4284
-16.4267
-16.4246
-16.4219
-16.4183
-16.4137
-16.4077
-16.4
-16.3911
-16.3828
-16.3777
-16.3764
-16.3786
-16.3841
-16.3905
-16.3967
-16.4024
-16.4073
-16.4113
-16.4147
-16.4173
-16.4195
-16.4213
-16.4228
-16.4241
-16.4252
-16.4261
-16.4269
-16.4276
-16.4283
-16.4288
-16.4294
-16.4298
-16.4303
-16.4306
-16.431
-16.4313
-16.4315
-16.4318
-16.432
-16.4322
-16.4324
-16.4325
-16.4327
-16.4329
-16.4331
-16.4333
-16.4335
-16.4336
-16.4338
-16.4338
-16.4339
-16.9308
-16.9308
-16.9307
-16.9306
-16.9305
-16.9304
-16.9303
-16.9301
-16.9299
-16.9296
-16.9294
-16.9291
-16.9289
-16.9286
-16.9283
-16.9281
-16.9278
-16.9274
-16.9271
-16.9267
-16.9264
-16.926
-16.9255
-16.9251
-16.9246
-16.924
-16.9234
-16.9226
-16.9216
-16.9203
-16.9186
-16.9162
-16.913
-16.9086
-16.9021
-16.8926
-16.8798
-16.8665
-16.8594
-16.8582
-16.8618
-16.8714
-16.8806
-16.8883
-16.8949
-16.9003
-16.9046
-16.9077
-16.9103
-16.9124
-16.9141
-16.9154
-16.9164
-16.9173
-16.9181
-16.9187
-16.9193
-16.9198
-16.9203
-16.9207
-16.9211
-16.9214
-16.9217
-16.922
-16.9222
-16.9224
-16.9226
-16.9228
-16.923
-16.9231
-16.9233
-16.9235
-16.9237
-16.9239
-16.9241
-16.9243
-16.9245
-16.9246
-16.9246
-16.9247
-17.4215
-17.4215
-17.4215
-17.4214
-17.4213
-17.4212
-17.421
-17.4209
-17.4207
-17.4205
-17.4202
-17.42
-17.4198
-17.4196
-17.4193
-17.4191
-17.4189
-17.4186
-17.4183
-17.4181
-17.4178
-17.4176
-17.4173
-17.417
-17.4168
-17.4165
-17.4161
-17.4157
-17.4151
-17.4144
-17.4133
-17.4118
-17.4095
-17.4061
-17.4007
-17.3903
-17.3728
-17.3558
-17.3452
-17.3423
-17.3473
-17.361
-17.3736
-17.3826
-17.3896
-17.3952
-17.3991
-17.402
-17.4041
-17.4058
-17.4071
-17.4081
-17.409
-17.4096
-17.4102
-17.4107
-17.4111
-17.4115
-17.4118
-17.4121
-17.4124
-17.4126
-17.4128
-17.413
-17.4132
-17.4134
-17.4135
-17.4137
-17.4138
-17.414
-17.4141
-17.4143
-17.4145
-17.4148
-17.4149
-17.4151
-17.4153
-17.4154
-17.4155
-17.4155
-17.9122
-17.9122
-17.9122
-17.9121
-17.912
-17.9119
-17.9118
-17.9116
-17.9115
-17.9113
-17.9111
-17.9109
-17.9107
-17.9105
-17.9103
-17.9101
-17.91
-17.9098
-17.9096
-17.9094
-17.9093
-17.9092
-17.9091
-17.909
-17.909
-17.909
-17.909
-17.909
-17.909
-17.909
-17.9089
-17.9086
-17.908
-17.9072
-17.9063
-17.9008
-17.8832
-17.8643
-17.8467
-17.8382
-17.8445
-17.8589
-17.873
-17.8813
-17.8882
-17.8927
-17.8954
-17.8973
-17.8988
-17.8999
-17.9006
-17.9012
-17.9017
-17.9021
-17.9024
-17.9026
-17.9029
-17.9031
-17.9033
-17.9034
-17.9036
-17.9038
-17.9039
-17.904
-17.9042
-17.9043
-17.9044
-17.9045
-17.9047
-17.9048
-17.905
-17.9052
-17.9054
-17.9056
-17.9058
-17.906
-17.9061
-17.9062
-17.9063
-17.9063
-18.403
-18.4029
-18.4029
-18.4029
-18.4028
-18.4027
-18.4026
-18.4024
-18.4023
-18.4021
-18.402
-18.4018
-18.4016
-18.4015
-18.4013
-18.4012
-18.401
-18.4009
-18.4008
-18.4008
-18.4007
-18.4008
-18.4009
-18.401
-18.4012
-18.4015
-18.4019
-18.4025
-18.4031
-18.4039
-18.405
-18.4063
-18.408
-18.4114
-18.4188
-18.4232
-18.403
-18.3761
-18.365
-18.3476
-18.3472
-18.365
-18.381
-18.3877
-18.3931
-18.3949
-18.3941
-18.3939
-18.3942
-18.3944
-18.3945
-18.3945
-18.3946
-18.3946
-18.3946
-18.3946
-18.3946
-18.3947
-18.3947
-18.3948
-18.3948
-18.3949
-18.395
-18.3951
-18.3951
-18.3952
-18.3953
-18.3954
-18.3955
-18.3957
-18.3958
-18.396
-18.3962
-18.3964
-18.3966
-18.3968
-18.3969
-18.397
-18.3971
-18.3971
-18.8937
-18.8937
-18.8936
-18.8936
-18.8935
-18.8934
-18.8933
-18.8932
-18.8931
-18.893
-18.8928
-18.8927
-18.8925
-18.8924
-18.8923
-18.8922
-18.8921
-18.8921
-18.892
-18.8921
-18.8922
-18.8923
-18.8926
-18.8929
-18.8934
-18.894
-18.8949
-18.8959
-18.8972
-18.8989
-18.9012
-18.9042
-18.9084
-18.9161
-18.9283
-18.9327
-18.9204
-18.8652
-18.8832
-18.8829
-18.8428
-18.8776
-18.8912
-18.8994
-18.9061
-18.9022
-18.8948
-18.8915
-18.8903
-18.8893
-18.8885
-18.8879
-18.8875
-18.8871
-18.8868
-18.8866
-18.8864
-18.8863
-18.8862
-18.8861
-18.8861
-18.8861
-18.8861
-18.8861
-18.8861
-18.8862
-18.8862
-18.8863
-18.8864
-18.8866
-18.8867
-18.8869
-18.8871
-18.8873
-18.8874
-18.8876
-18.8877
-18.8878
-18.8879
-18.8879
-19.3843
-19.3843
-19.3843
-19.3843
-19.3842
-19.3842
-19.3841
-19.384
-19.3839
-19.3838
-19.3837
-19.3835
-19.3834
-19.3833
-19.3833
-19.3832
-19.3832
-19.3832
-19.3832
-19.3834
-19.3836
-19.3838
-19.3843
-19.3848
-19.3855
-19.3864
-19.3876
-19.3891
-19.3911
-19.3937
-19.3971
-19.4016
-19.4081
-19.4202
-19.4372
-19.4393
-19.4394
-19.3305
-19.43
-19.4783
-19.3589
-19.4036
-19.4047
-19.4084
-19.4175
-19.4098
-19.3961
-19.3896
-19.3866
-19.3844
-19.3826
-19.3813
-19.3803
-19.3796
-19.379
-19.3785
-19.3781
-19.3778
-19.3776
-19.3774
-19.3773
-19.3772
-19.3771
-19.3771
-19.3771
-19.3771
-19.3772
-19.3772
-19.3773
-19.3774
-19.3776
-19.3777
-19.3779
-19.3781
-19.3783
-19.3784
-19.3785
-19.3786
-19.3786
-19.3787
-19.875
-19.875
-19.875
-19.875
-19.8749
-19.8749
-19.8748
-19.8747
-19.8747
-19.8746
-19.8745
-19.8744
-19.8743
-19.8742
-19.8742
-19.8742
-19.8742
-19.8742
-19.8744
-19.8746
-19.8749
-19.8753
-19.8758
-19.8765
-19.8775
-19.8786
-19.8802
-19.8821
-19.8846
-19.8879
-19.8923
-19.898
-19.9062
-19.921
-19.941
-19.9484
-19.9431
-19.7677
-19.9975
-20.421
-20.2206
-19.9208
-19.908
-19.914
-19.9243
-19.9114
-19.8952
-19.8871
-19.8825
-19.8791
-19.8765
-19.8746
-19.8731
-19.8719
-19.871
-19.8703
-19.8697
-19.8693
-19.8689
-19.8686
-19.8684
-19.8683
-19.8682
-19.8681
-19.8681
-19.8681
-19.8681
-19.8681
-19.8682
-19.8683
-19.8685
-19.8686
-19.8688
-19.8689
-19.8691
-19.8692
-19.8693
-19.8694
-19.8694
-19.8694
-20.3657
-20.3657
-20.3657
-20.3657
-20.3656
-20.3656
-20.3655
-20.3655
-20.3654
-20.3653
-20.3653
-20.3652
-20.3652
-20.3651
-20.3651
-20.3651
-20.3652
-20.3653
-20.3654
-20.3657
-20.3661
-20.3666
-20.3673
-20.3681
-20.3692
-20.3706
-20.3724
-20.3746
-20.3775
-20.3813
-20.3864
-20.3928
-20.4017
-20.4169
-20.4356
-20.445
-20.4338
-20.2927
-30.1799
-32.3732
-32.5902
-30.0605
-20.3897
-20.4213
-20.4201
-20.4058
-20.3913
-20.3829
-20.3774
-20.3731
-20.3699
-20.3674
-20.3656
-20.3641
-20.3629
-20.362
-20.3613
-20.3607
-20.3602
-20.3599
-20.3596
-20.3594
-20.3592
-20.3591
-20.3591
-20.359
-20.359
-20.3591
-20.3591
-20.3592
-20.3593
-20.3594
-20.3596
-20.3597
-20.3599
-20.36
-20.3601
-20.3601
-20.3601
-20.3601
-20.8563
-20.8563
-20.8563
-20.8563
-20.8563
-20.8563
-20.8562
-20.8562
-20.8561
-20.8561
-20.856
-20.856
-20.856
-20.8559
-20.8559
-20.856
-20.8561
-20.8562
-20.8565
-20.8568
-20.8572
-20.8578
-20.8585
-20.8595
-20.8607
-20.8623
-20.8642
-20.8667
-20.8699
-20.8739
-20.8792
-20.886
-20.8944
-20.9088
-20.9236
-20.9313
-20.9235
-20.8016
-43.4674
-73.0493
-74.0034
-43.3478
-20.9049
-20.9096
-20.9063
-20.8965
-20.8845
-20.8766
-20.8709
-20.8663
-20.8627
-20.8599
-20.8577
-20.856
-20.8547
-20.8536
-20.8527
-20.852
-20.8515
-20.851
-20.8507
-20.8504
-20.8502
-20.8501
-20.85
-20.85
-20.8499
-20.8499
-20.85
-20.8501
-20.8502
-20.8503
-20.8504
-20.8505
-20.8506
-20.8507
-20.8508