/*--------------------------------*- C++ -*----------------------------------*\
| =========                 |                                                 |
| \\      /  F ield         | OpenFOAM: The Open Source CFD Toolbox           |
|  \\    /   O peration     | Version:  2412                                  |
|   \\  /    A nd           | Website:  www.openfoam.com                      |
|    \\/     M anipulation  |                                                 |
\*---------------------------------------------------------------------------*/
FoamFile
{
    version     2.0;
    format      ascii;
    arch        "LSB;label=32;scalar=64";
    class       volScalarField;
    location    "8.15";
    object      p;
}
// * * * * * * * * * * * * * * * * * * * * * * * * * * * * * * * * * * * * * //

dimensions      [1 -1 -2 0 0 0 0];

internalField   nonuniform List<scalar> 
6400
(
130641
130630
130610
130579
130538
130489
130432
130370
130304
130235
130165
130096
130029
129966
129907
129854
129807
129767
129733
129707
129688
129676
129670
129669
129674
129684
129697
129713
129731
129750
129770
129790
129809
129827
129843
129858
129870
129879
129886
129891
129892
129891
129888
129882
129875
129865
129854
129843
129830
129818
129806
129796
129787
129780
129776
129776
129780
129788
129802
129821
129845
129876
129912
129954
130001
130053
130109
130169
130231
130294
130358
130420
130479
130535
130585
130629
130665
130692
130711
130720
124012
124002
123980
123948
123907
123856
123798
123734
123667
123596
123525
123455
123387
123322
123262
123208
123161
123121
123087
123061
123043
123031
123026
123026
123032
123042
123056
123073
123092
123112
123133
123153
123173
123191
123208
123223
123235
123245
123252
123256
123258
123257
123253
123247
123239
123229
123218
123206
123193
123180
123168
123156
123147
123139
123135
123134
123137
123145
123158
123176
123201
123231
123267
123309
123357
123409
123466
123527
123590
123655
123719
123783
123844
123901
123952
123997
124034
124062
124081
124090
117395
117384
117362
117328
117284
117230
117170
117103
117031
116958
116884
116810
116740
116673
116612
116556
116508
116467
116434
116408
116390
116380
116376
116378
116385
116397
116413
116431
116452
116473
116496
116517
116538
116558
116575
116591
116603
116613
116621
116625
116626
116625
116621
116614
116606
116595
116583
116570
116556
116542
116528
116516
116505
116496
116490
116488
116490
116496
116508
116526
116550
116580
116616
116659
116707
116761
116819
116882
116948
117015
117082
117148
117212
117271
117325
117373
117411
117441
117461
117471
110790
110778
110754
110717
110670
110612
110547
110475
110399
110320
110241
110163
110089
110019
109955
109897
109848
109806
109773
109748
109731
109722
109720
109724
109734
109748
109766
109788
109810
109834
109859
109882
109905
109926
109945
109961
109974
109984
109992
109996
109997
109995
109991
109983
109974
109962
109949
109934
109919
109903
109888
109874
109861
109850
109842
109838
109838
109843
109853
109870
109893
109923
109959
110002
110052
110108
110169
110234
110303
110374
110445
110516
110584
110647
110705
110756
110798
110830
110851
110862
104198
104185
104158
104118
104065
104002
103930
103851
103768
103682
103597
103513
103433
103358
103291
103230
103179
103136
103103
103079
103063
103056
103057
103064
103077
103095
103117
103142
103168
103195
103222
103248
103273
103296
103316
103333
103347
103358
103366
103370
103371
103368
103363
103355
103344
103331
103316
103300
103282
103264
103247
103230
103214
103201
103190
103183
103181
103183
103192
103207
103229
103259
103295
103340
103391
103449
103514
103583
103657
103733
103810
103886
103959
104029
104092
104148
104193
104229
104252
104264
97620.6
97605.7
97575.3
97529.8
97470.7
97399.8
97319.3
97231.6
97139.2
97044.7
96950.6
96859
96772
96691.4
96618.7
96554.9
96501
96457.3
96424.1
96401
96387.7
96383.5
96387.6
96398.9
96416.3
96438.7
96465
96493.9
96524.3
96555.4
96586
96615.5
96643.1
96668.1
96690.1
96708.9
96724.1
96735.5
96743.2
96747.2
96747.6
96744.4
96738
96728.4
96716.1
96701.2
96684.3
96665.6
96645.7
96625
96604.3
96584.1
96565.2
96548.3
96534.3
96524.1
96518.4
96518.2
96524.3
96537.4
96558.1
96586.9
96624
96669.6
96723.4
96785
96853.6
96928.2
97007.6
97090.2
97174.3
97258
97339.4
97416.3
97486.6
97548.3
97599.6
97639.2
97665.6
97678.6
91059.1
91042
91007.1
90955.1
90887.7
90807
90715.6
90616.5
90512.6
90406.8
90301.8
90200.2
90104.5
90016.4
89937.7
89869.6
89813
89768.1
89735
89713.5
89703
89702.4
89710.9
89727.2
89750
89778
89809.9
89844.3
89880
89915.9
89951
89984.3
90015.2
90043
90067.3
90087.7
90104
90116.1
90124.1
90127.8
90127.6
90123.5
90115.7
90104.6
90090.4
90073.4
90053.9
90032.5
90009.5
89985.5
89961.2
89937.1
89914.1
89893
89874.8
89860.3
89850.6
89846.6
89849.4
89859.9
89878.9
89906.8
89944.2
89991.2
90047.7
90113.3
90187.1
90268.2
90355.1
90446.1
90539.3
90632.6
90723.6
90810
90889.2
90959.1
91017.5
91062.4
91092.6
91107.4
84516
84496.2
84455.7
84395.4
84317.4
84224.3
84119.4
84006.1
83887.7
83767.7
83649.4
83535.7
83429.1
83332
83246.2
83173
83113.1
83067
83034.5
83015.1
83008.1
83012.2
83026.4
83049
83078.5
83113.4
83152.1
83193.2
83235.2
83277
83317.3
83355.3
83390.1
83421.2
83448
83470.3
83487.9
83500.7
83508.7
83512.1
83511.1
83505.9
83496.6
83483.6
83467.2
83447.6
83425.3
83400.6
83374
83346.1
83317.5
83288.8
83260.9
83234.7
83211.2
83191.6
83176.8
83168.2
83166.7
83174
83190.5
83217.2
83254.7
83303.3
83362.9
83433.3
83513.5
83602.4
83698.5
83799.9
83904.3
84009.4
84112.3
84210.4
84300.9
84381.1
84448.3
84500.1
84534.9
84552
77994.2
77971
77923.5
77852.7
77761.3
77652.8
77531
77400.2
77264.2
77127
76992.4
76863.9
76744.4
76636.5
76542.2
76463
76399.6
76352.2
76320.7
76304.3
76302
76312.2
76333.4
76363.7
76401.4
76444.7
76491.7
76540.8
76590.4
76639
76685.6
76729
76768.4
76803.1
76832.9
76857.2
76876.1
76889.6
76897.7
76900.6
76898.6
76892
76880.9
76865.8
76846.8
76824.3
76798.7
76770.3
76739.6
76707.1
76673.5
76639.4
76605.7
76573.5
76543.7
76517.8
76496.9
76482.5
76476.1
76478.7
76491.9
76516.8
76554.1
76604.3
76667.5
76743.3
76831.1
76929.5
77036.7
77150.6
77268.7
77388.1
77505.6
77618.1
77722.5
77815.4
77893.6
77954
77994.8
78014.6
71497.6
71470.1
71413.6
71329.4
71221.2
71093.5
70951.2
70799.1
70641.7
70483.7
70329.6
70183.2
70048.2
69927.5
69823.3
69737.2
69669.9
69621.7
69591.9
69579.6
69583.2
69601
69630.9
69670.9
69718.6
69771.9
69828.9
69887.5
69945.9
70002.7
70056.5
70106.1
70150.7
70189.6
70222.5
70249.1
70269.3
70283.4
70291.4
70293.6
70290.4
70282
70268.9
70251.3
70229.4
70203.7
70174.4
70141.8
70106.5
70068.8
70029.5
69989.2
69948.8
69909.4
69872.3
69838.7
69810.3
69788.7
69775.7
69772.8
69781.7
69803.8
69840.4
69892.1
69959.3
70041.6
70138.2
70247.8
70368.4
70497.4
70631.9
70768.4
70903.5
71033.5
71154.8
71263.5
71355.4
71426.9
71475
71498.4
65030.8
64997.7
64929.6
64828.4
64699.2
64548.1
64380.9
64203.1
64020
63836.9
63659.1
63491.3
63337.9
63202.1
63086.4
62992.6
62921.4
62872.7
62845.7
62838.9
62850.3
62877.6
62918.4
62970
63029.8
63095.3
63164.1
63233.9
63302.8
63369
63430.9
63487.6
63538
63581.5
63617.7
63646.6
63668.1
63682.5
63690.2
63691.4
63686.7
63676.3
63660.8
63640.4
63615.3
63586
63552.6
63515.5
63475
63431.5
63385.8
63338.4
63290.3
63242.6
63196.6
63154.1
63116.6
63086.2
63064.9
63054.8
63058
63076.3
63111.5
63164.4
63235.8
63325.4
63432.4
63555.3
63691.8
63838.9
63993.1
64150.3
64306.5
64457.5
64599.3
64727.2
64836.4
64922
64979.6
65007.7
58599.7
58559.3
58476.4
58353.7
58198.7
58019.1
57821.6
57612.7
57398.3
57184.9
56978.6
56785.3
56610
56456.5
56327.8
56225.6
56150.5
56102.2
56079.3
56079.9
56101.4
56140.8
56194.9
56260.7
56335.1
56415
56497.7
56580.7
56661.6
56738.6
56809.9
56874.5
56931.3
56979.7
57019.5
57050.6
57073.2
57087.7
57094.6
57094.5
57087.8
57075.1
57056.8
57033.3
57004.8
56971.6
56933.8
56891.7
56845.5
56795.8
56742.8
56687.4
56630.5
56573.2
56517
56463.7
56415.2
56374
56342.5
56323.2
56318.8
56331.9
56364.5
56418.3
56494
56591.8
56710.8
56849.4
57004.7
57173.5
57351.3
57533.5
57715.2
57891.6
58058
58209.5
58340.1
58443.2
58513.3
58547.6
52211.9
52162
52060.8
51911.3
51724.9
51510.4
51275.7
51028.5
50775.9
50525.6
50285.1
50061.3
49860.1
49686.2
49542.7
49431.4
49352.8
49306
49289.4
49300
49334.4
49388.9
49459.5
49542.5
49634.3
49731.3
49830.5
49928.8
50023.7
50112.9
50194.9
50268.2
50331.9
50385.6
50428.9
50462.1
50485.4
50499.6
50505.3
50503.3
50494.2
50478.8
50457.4
50430.5
50398.2
50360.8
50318.4
50271
50218.9
50162.3
50101.5
50037.2
49970.3
49902
49833.8
49767.7
49706.1
49651.7
49607.3
49576.3
49562
49567.7
49596.2
49649.9
49729.9
49836.8
49969.6
50126.4
50304.1
50498.7
50705
50917.4
51130.2
51337.7
51534.4
51714.5
51871.3
51996.1
52082.2
52124.2
45876
45815
45692.5
45507.7
45284.1
45026.6
44745.5
44450.5
44151.1
43855.9
43574.2
43313.8
43082.4
42885
42724.9
42604.1
42522.7
42479.5
42471.8
42495.8
42547
42620.5
42711.5
42815.3
42927.9
43045.2
43163.6
43279.7
43390.6
43493.9
43587.6
43670.6
43741.8
43800.8
43847.6
43882.5
43906
43919.2
43923
43918.4
43906.4
43887.7
43862.8
43832.2
43796
43754.3
43707.1
43654.3
43595.9
43532
43462.8
43388.8
43310.7
43229.8
43147.8
43066.7
42989.3
42918.7
42858.3
42812.3
42784.8
42780.1
42802.3
42854.4
42938.5
43055
43203.4
43381.4
43585.5
43810.7
44051.4
44300.6
44551.7
44797.7
45032
45247.7
45436.1
45586.9
45693.9
45744.7
39602.3
39526.6
39375.8
39156.6
38884.4
38572.3
38232.8
37878.2
37520.3
37170.6
36840.1
36535.4
36269.3
36045.1
35866.8
35736.5
35654
35617.2
35622.4
35664.5
35737.3
35834.6
35950.3
36079.1
36216.4
36357.6
36498.5
36635.2
36764.5
36883.5
36990.4
37083.9
37163
37227.5
37277.4
37313.4
37336.3
37347.5
37348.4
37340.4
37324.7
37302.1
37273.4
37238.8
37198.6
37152.6
37100.6
37042.4
36977.7
36906.3
36828.2
36743.7
36653.4
36558.3
36460.3
36361.7
36265.4
36175.1
36094.9
36029.5
35984.4
35965.4
35977.9
36026.3
36113.4
36240.1
36405.9
36608.2
36842.9
37104.5
37386.1
37680.1
37978.4
38272.5
38554.2
38814.7
39042.7
39226
39353.4
39417
33403.2
33310.6
33126.9
32861.6
32530.5
32150.4
31738
31309.1
30879.4
30463.2
30073
29719.4
29412.4
29157.9
28960.3
28821.2
28740
28713.7
28737.3
28803.6
28904.4
29031.3
29176.8
29335.2
29501.4
29670.6
29837.7
29998.2
30148.3
30284.9
30406.2
30510.8
30598.1
30667.9
30720.4
30756.5
30777.6
30785.6
30782.3
30769.7
30749.4
30722.3
30689.2
30650.6
30606.3
30556.2
30499.8
30436.4
30365.6
30286.8
30199.8
30104.2
30000.5
29889.7
29773.6
29654.5
29535.9
29421.8
29317.1
29227
29158.5
29119.5
29117.8
29159.3
29247.8
29384.8
29569.5
29799.4
30069.4
30373.5
30703.8
31051.8
31408.1
31762.2
32103.3
32419.6
32696.8
32919.1
33073.2
33150.9
27293.1
27180.9
26956.3
26632.7
26228.5
25764
25260.8
24739.6
24221.7
23725.6
23265.8
22854.4
22501.4
22214
21996.5
21850.1
21773.8
21763.6
21812.7
21911.5
22048.4
22212.1
22393
22585.4
22785.5
22987.4
23184.8
23372.4
23545.8
23701.8
23838.5
23954.8
24050.3
24124.9
24179.1
24213.9
24231.5
24234.3
24225.2
24206.5
24180.5
24148.1
24110.2
24067.3
24019.3
23965.5
23905.2
23837.3
23761.1
23675.6
23579.7
23472.9
23355
23226.9
23090.3
22947.6
22802.6
22660.1
22525.8
22404.4
22304.7
22238.1
22215.9
22246.4
22334
22480.8
22685.9
22946.1
23256.4
23609.6
23997.1
24409.6
24836.8
25265.4
25680
26066.3
26405
26675.9
26863.1
26957.1
21288.5
21154.6
20877.2
20480.1
19985.5
19415.1
18798.4
18162.7
17537.7
16946.6
16404.7
15925.2
15519.2
15194.4
14955.5
14804
14738.2
14752.8
14839.4
14983.8
15168.9
15378.8
15600.7
15830.5
16070.2
16310.7
16543.3
16761.7
16961.1
17138.2
17291.1
17419.3
17522.7
17601.5
17656.1
17687.7
17699.3
17694.5
17677.2
17650.6
17617.8
17579.3
17536
17488.7
17437.1
17380.5
17317.3
17245.8
17165.3
17074.1
16970.2
16852
16719.1
16572.3
16412.8
16242.9
16066.5
15890.1
15722.6
15561.7
15418.6
15311.7
15258.6
15271
15354
15510.1
15736.9
16032.1
16389.3
16799.9
17254.5
17743.8
18257.3
18778.3
19283.2
19758.7
20174.8
20505.7
20733.3
20846.1
15433.2
15266.6
14933.6
14439.6
13811
13103.6
12350.6
11573.7
10811
10098.5
9452.65
8887.69
8416.28
8047.25
7784.87
7632.66
7586.41
7639.19
7783.73
8000.3
8257.26
8531.48
8810.05
9072.83
9360.88
9648.56
9922.51
10176
10404.1
10603.3
10772.2
10911.7
11022.3
11103.7
11156.7
11181.7
11183.5
11167.3
11138.6
11102.1
11060.8
11015.9
10966.8
10915
10860.5
10802.3
10738.4
10664.7
10582.5
10488.5
10378.7
10250.1
10102
9935.44
9750.97
9549.85
9335.91
9119.41
8915.35
8694.87
8484.02
8311.55
8209.41
8194.68
8269.63
8433.37
8684.86
9022.02
9437.34
9919.36
10457
11041.6
11663.9
12299.9
12905.9
13507.9
14022.3
14428.2
14704.8
14841.1
9705.17
9519.99
9112.22
8510.08
7752.42
6883.24
5958.34
5079.79
4305.68
3650.54
3109.01
2672.05
2332.23
2085.26
1944.26
1875.17
1861.44
1899.31
1991.25
2149.48
2357.78
2570.93
2780.85
3001.47
3251.72
3505.68
3749.51
3977.3
4183.09
4361.4
4512.19
4636.36
4731.79
4799.09
4837.95
4850.35
4840.95
4815.37
4780.21
4740.09
4697.04
4652.09
4604.89
4558.88
4511.49
4461.52
4408.66
4350.55
4287.73
4216.07
4128.78
4021.05
3893.68
3749.9
3590.1
3414.66
3225.24
3028.27
2849.21
2666.19
2485.12
2334.42
2246.29
2230.79
2277.65
2385.89
2560.91
2808.62
3128.68
3520.08
3984.82
4527.58
5158.07
5875.66
6644.43
7345.51
7963.35
8454.05
8788.28
8944.23
4480.97
4279.71
3880.34
3316.56
2663.52
1983.65
1360.97
901.749
589.757
369.139
214.409
108.248
37.3321
-5.77324
-6.59566
-6.64228
-6.7243
-6.77194
-6.49867
5.99469
45.8353
88.3931
133.163
185.657
260.045
345.111
433.254
520.365
602.269
674.238
736.7
789.656
829.299
856.987
871.748
874.407
867.287
853.448
836.082
817.141
797.064
775.76
755.419
735.583
715.433
693.948
672.287
649.999
628.192
604.212
573.377
533.497
486.146
434.128
377.733
317.83
256.08
196.944
151.325
108.27
67.9083
35.5032
17.2722
14.4461
23.8482
45.8753
83.1387
140.469
222.804
335.859
487.495
687.097
949.4
1306.23
1784.34
2303.12
2789.22
3200.33
3497.84
3653.78
976.593
864.334
658.7
402.934
183.963
51.3594
-1.90598
-7.69878
-7.93262
-7.78179
-7.57576
-7.36167
-7.15445
-7.01574
-7.1183
-7.16937
-7.2419
-7.29644
-7.2618
-7.31209
-7.55214
-7.79248
-7.9508
-7.99697
-8.00235
-7.95262
-8.07236
-8.27711
-8.37703
-8.4495
-8.30662
-8.17461
-8.18196
-8.28125
-8.42039
-8.50721
-8.44821
-8.39424
-8.6096
-8.79851
-8.66014
-8.31016
-8.02913
-8.07284
-8.08989
-7.981
-7.87197
-7.7225
-7.50626
-7.28042
-7.2958
-7.49343
-7.74697
-7.98449
-8.14242
-8.28876
-8.50391
-8.58429
-8.57531
-8.50243
-8.33514
-8.17454
-8.07749
-8.01251
-7.95979
-7.89889
-7.89368
-7.97634
-7.94929
-7.94265
-8.2489
-8.44578
-8.3697
-7.7772
18.5291
94.719
215.646
353.061
473.067
552.988
-8.03885
-9.61984
-9.56999
-9.67448
-9.42599
-8.92107
-8.56767
-8.49606
-8.42785
-8.29078
-8.118
-7.94875
-7.80173
-7.71726
-7.7241
-7.72198
-7.76318
-7.82811
-7.86846
-7.96026
-8.08991
-8.25429
-8.40977
-8.5083
-8.57501
-8.65237
-8.82509
-9.03607
-9.19607
-9.29701
-9.22867
-9.10551
-9.0757
-9.10437
-9.15395
-9.19377
-9.17752
-9.1517
-9.20433
-9.22334
-9.15641
-9.00334
-8.87724
-8.84395
-8.78779
-8.70069
-8.60637
-8.4742
-8.30218
-8.16193
-8.17804
-8.31869
-8.55007
-8.77902
-8.92007
-8.99364
-9.04102
-9.04184
-9.01327
-8.96349
-8.86005
-8.7427
-8.62881
-8.54258
-8.49624
-8.48924
-8.48828
-8.52685
-8.56739
-8.66955
-8.86157
-8.9455
-8.90353
-8.85973
-9.09915
-9.48394
-9.64956
-9.54193
-9.51767
-8.15188
-9.92878
-9.94497
-9.9006
-9.78492
-9.63048
-9.44916
-9.25435
-9.13054
-9.00368
-8.8423
-8.68744
-8.58022
-8.50079
-8.43732
-8.38777
-8.33471
-8.35718
-8.49953
-8.61762
-8.69851
-8.77359
-8.87955
-8.98936
-9.0476
-9.10074
-9.23824
-9.47132
-9.71129
-9.85755
-9.91408
-9.8517
-9.76042
-9.7235
-9.72994
-9.777
-9.84339
-9.91241
-9.97628
-9.9955
-9.98576
-9.94907
-9.82
-9.59875
-9.41252
-9.28651
-9.18632
-9.09882
-9.00746
-8.89429
-8.79002
-8.77099
-8.85765
-9.02731
-9.21961
-9.38312
-9.50097
-9.57962
-9.62848
-9.62344
-9.5414
-9.4405
-9.34548
-9.25161
-9.18101
-9.15344
-9.14594
-9.13046
-9.16874
-9.23755
-9.37126
-9.50845
-9.5741
-9.56785
-9.55475
-9.6759
-9.83479
-9.95864
-10.0332
-10.0719
-10.02
-10.4837
-10.4973
-10.3984
-10.2378
-10.082
-9.96257
-9.87153
-9.791
-9.67347
-9.51548
-9.33269
-9.19898
-9.15605
-9.13025
-9.09526
-9.05504
-9.06175
-9.2655
-9.45409
-9.50141
-9.5116
-9.56501
-9.60521
-9.64266
-9.70151
-9.88302
-10.137
-10.3572
-10.4765
-10.496
-10.4469
-10.3878
-10.3548
-10.3546
-10.4026
-10.483
-10.587
-10.6713
-10.6856
-10.6907
-10.6629
-10.5378
-10.3145
-10.07
-9.89875
-9.78129
-9.69299
-9.62499
-9.55489
-9.48211
-9.43323
-9.48853
-9.63417
-9.81771
-9.98562
-10.1103
-10.1833
-10.2073
-10.1959
-10.1467
-10.086
-10.0076
-9.91533
-9.82712
-9.78568
-9.75985
-9.74089
-9.75712
-9.84753
-9.99753
-10.0964
-10.1091
-10.0943
-10.0805
-10.1582
-10.2818
-10.4104
-10.5053
-10.5504
-10.5471
-11.0787
-11.115
-10.9904
-10.7852
-10.5682
-10.4858
-10.5252
-10.5666
-10.4971
-10.3466
-10.1356
-9.91644
-9.8109
-9.80564
-9.7961
-9.81313
-9.85261
-10.0159
-10.2075
-10.2411
-10.2008
-10.1891
-10.1996
-10.226
-10.3018
-10.4715
-10.6718
-10.8222
-10.9163
-10.9611
-10.9622
-10.9558
-10.9623
-10.9902
-11.0513
-11.1457
-11.2582
-11.3299
-11.3321
-11.2952
-11.2096
-11.0735
-10.8905
-10.695
-10.5272
-10.4035
-10.31
-10.2423
-10.189
-10.1462
-10.112
-10.1424
-10.2514
-10.4079
-10.557
-10.6702
-10.7406
-10.7799
-10.787
-10.7602
-10.7235
-10.6676
-10.5879
-10.504
-10.4514
-10.3926
-10.342
-10.3365
-10.3983
-10.5232
-10.5999
-10.6191
-10.6126
-10.6191
-10.6799
-10.7878
-10.9397
-11.0473
-11.0804
-11.0555
-11.8626
-11.9438
-11.8304
-11.5293
-11.2355
-11.1928
-11.3366
-11.4985
-11.4252
-11.2336
-11.0498
-10.8125
-10.5916
-10.5367
-10.5324
-10.5571
-10.6309
-10.7
-10.8153
-10.8205
-10.7796
-10.7327
-10.7638
-10.8145
-10.8948
-11.0294
-11.1771
-11.2801
-11.3541
-11.4026
-11.4416
-11.4878
-11.5472
-11.6251
-11.7241
-11.8474
-11.9702
-12.0298
-11.9864
-11.8848
-11.7567
-11.6125
-11.4679
-11.3268
-11.1902
-11.0722
-10.9758
-10.8984
-10.8445
-10.8096
-10.8029
-10.8281
-10.9023
-11.019
-11.1443
-11.2407
-11.3106
-11.3677
-11.4004
-11.4035
-11.3752
-11.3238
-11.2575
-11.1753
-11.093
-10.9983
-10.9186
-10.8861
-10.9147
-11.0201
-11.0942
-11.1428
-11.1647
-11.1803
-11.2209
-11.327
-11.5229
-11.6395
-11.6422
-11.5916
-12.8588
-13.0009
-12.9245
-12.576
-12.2213
-12.2006
-12.3424
-12.4498
-12.3845
-12.1848
-12.075
-11.9276
-11.6311
-11.432
-11.3595
-11.3355
-11.3664
-11.3764
-11.3985
-11.3532
-11.3345
-11.284
-11.3144
-11.3877
-11.4624
-11.5705
-11.6862
-11.7671
-11.8337
-11.8891
-11.9542
-12.0402
-12.1453
-12.2721
-12.4236
-12.586
-12.7161
-12.7777
-12.7447
-12.6336
-12.4668
-12.2906
-12.1472
-12.0177
-11.8858
-11.7614
-11.657
-11.5696
-11.5111
-11.4746
-11.4785
-11.5105
-11.5715
-11.6549
-11.7476
-11.8261
-11.8907
-11.9479
-11.9937
-12.0253
-12.0235
-11.9787
-11.92
-11.8408
-11.731
-11.602
-11.4992
-11.4489
-11.4598
-11.5485
-11.6374
-11.7142
-11.7601
-11.771
-11.7855
-11.8893
-12.068
-12.1852
-12.157
-12.0966
-13.7688
-14.006
-13.933
-13.6242
-13.2749
-13.2191
-13.2785
-13.2813
-13.2151
-13.0801
-13.0447
-12.9879
-12.7357
-12.4073
-12.2357
-12.1801
-12.1434
-12.1087
-12.0274
-11.946
-11.9347
-11.8817
-11.8761
-11.9682
-12.0304
-12.1148
-12.2091
-12.2734
-12.3326
-12.395
-12.4825
-12.601
-12.753
-12.9394
-13.1601
-13.38
-13.5757
-13.6871
-13.6918
-13.5685
-13.3375
-13.0755
-12.8795
-12.7122
-12.5611
-12.4242
-12.3076
-12.2099
-12.1489
-12.1221
-12.1344
-12.1783
-12.2403
-12.3082
-12.3653
-12.4266
-12.4899
-12.5512
-12.6036
-12.638
-12.6517
-12.6281
-12.5788
-12.5107
-12.3951
-12.2499
-12.1306
-12.0702
-12.0733
-12.14
-12.2507
-12.3428
-12.4057
-12.4405
-12.4541
-12.5106
-12.598
-12.6263
-12.592
-12.56
-14.4216
-14.7187
-14.6903
-14.4122
-14.1014
-14.0465
-14.0515
-14.0058
-13.9373
-13.9008
-13.9098
-13.8988
-13.681
-13.3182
-13.1052
-13.038
-12.97
-12.89
-12.7398
-12.6038
-12.5541
-12.532
-12.4883
-12.5733
-12.6214
-12.6735
-12.731
-12.7616
-12.8076
-12.8676
-12.9662
-13.1157
-13.3285
-13.61
-13.9354
-14.2797
-14.5673
-14.7172
-14.7196
-14.5651
-14.256
-13.8651
-13.5638
-13.358
-13.1973
-13.057
-12.9334
-12.8234
-12.7562
-12.7503
-12.7837
-12.8391
-12.8934
-12.9406
-12.9836
-13.0402
-13.1082
-13.1755
-13.2315
-13.2658
-13.2753
-13.2658
-13.2335
-13.1826
-13.0776
-12.9255
-12.8041
-12.7458
-12.7471
-12.777
-12.9008
-13.0043
-13.0717
-13.1327
-13.1703
-13.1636
-13.1175
-13.0302
-12.9855
-13.0053
-14.8646
-15.1047
-15.2364
-15.023
-14.7444
-14.6821
-14.6688
-14.6311
-14.5983
-14.6273
-14.676
-14.6795
-14.4481
-14.1006
-13.877
-13.7796
-13.7063
-13.6303
-13.4958
-13.3109
-13.2097
-13.2028
-13.1709
-13.2027
-13.245
-13.2698
-13.2712
-13.2388
-13.2347
-13.2746
-13.3704
-13.5552
-13.8533
-14.2558
-14.7362
-15.2021
-15.5293
-15.6843
-15.6818
-15.5038
-15.1398
-14.6379
-14.2079
-13.9772
-13.8197
-13.6848
-13.5644
-13.4472
-13.382
-13.3875
-13.431
-13.48
-13.5144
-13.5535
-13.6079
-13.6748
-13.75
-13.8218
-13.8778
-13.907
-13.9103
-13.9001
-13.883
-13.8459
-13.7433
-13.5942
-13.4841
-13.4319
-13.4388
-13.4366
-13.5392
-13.6524
-13.7367
-13.7894
-13.8179
-13.8001
-13.684
-13.4992
-13.3987
-13.4699
-15.1778
-15.3378
-15.5646
-15.4672
-15.2688
-15.2246
-15.2227
-15.2152
-15.2158
-15.2591
-15.3453
-15.3559
-15.1192
-14.7738
-14.5275
-14.3834
-14.2916
-14.2064
-14.1112
-13.9736
-13.8723
-13.8785
-13.8489
-13.8226
-13.8517
-13.8781
-13.8593
-13.7621
-13.6559
-13.6372
-13.7206
-13.94
-14.3288
-14.8633
-15.4801
-16.0023
-16.3477
-16.5022
-16.4634
-16.2584
-15.9046
-15.3718
-14.8545
-14.5725
-14.424
-14.2975
-14.1899
-14.0879
-14.0309
-14.0356
-14.069
-14.0908
-14.1179
-14.1742
-14.2509
-14.3302
-14.4072
-14.4786
-14.5308
-14.5512
-14.5473
-14.5345
-14.5262
-14.4859
-14.3701
-14.2306
-14.1334
-14.0846
-14.0925
-14.0905
-14.138
-14.2447
-14.3574
-14.3992
-14.3828
-14.3588
-14.2653
-14.0577
-13.9167
-13.9629
-15.4385
-15.5235
-15.7241
-15.755
-15.7048
-15.7146
-15.7482
-15.7848
-15.8151
-15.8552
-15.9453
-15.9386
-15.7186
-15.3665
-15.0974
-14.9129
-14.7742
-14.6657
-14.576
-14.5157
-14.4873
-14.5171
-14.4459
-14.3846
-14.4014
-14.4387
-14.4603
-14.3498
-14.156
-14.0356
-14.0794
-14.3102
-14.7528
-15.3913
-16.0808
-16.6261
-16.9751
-17.107
-17.0324
-16.8062
-16.4768
-16.0036
-15.4834
-15.1545
-14.9948
-14.8799
-14.7899
-14.7093
-14.6543
-14.6572
-14.673
-14.6846
-14.7286
-14.8101
-14.9038
-14.9866
-15.0603
-15.1268
-15.1735
-15.1894
-15.1794
-15.1654
-15.1538
-15.0896
-14.9606
-14.8277
-14.7341
-14.6839
-14.6857
-14.6924
-14.6977
-14.7794
-14.8851
-14.9339
-14.9001
-14.8423
-14.7842
-14.6361
-14.4888
-14.4539
-15.6835
-15.7378
-15.9208
-16.0295
-16.0963
-16.1657
-16.246
-16.3328
-16.402
-16.4592
-16.5456
-16.5113
-16.2709
-15.9282
-15.6432
-15.4233
-15.2406
-15.1
-15.0316
-15.0397
-15.0621
-15.0406
-14.9447
-14.8763
-14.8911
-14.9378
-14.9846
-14.92
-14.7328
-14.5654
-14.5399
-14.7143
-15.1345
-15.782
-16.4794
-17.0462
-17.3859
-17.4913
-17.4086
-17.1844
-16.8781
-16.4878
-16.029
-15.7002
-15.5291
-15.42
-15.3413
-15.2752
-15.2298
-15.2382
-15.2431
-15.2739
-15.3496
-15.4579
-15.5515
-15.6244
-15.6911
-15.7547
-15.8008
-15.8138
-15.8016
-15.7865
-15.7568
-15.6673
-15.5302
-15.3966
-15.2997
-15.2375
-15.2202
-15.2235
-15.2201
-15.2661
-15.3428
-15.4015
-15.3806
-15.3038
-15.2301
-15.1365
-14.9988
-14.9348
-15.9585
-16.0431
-16.2382
-16.3764
-16.4829
-16.5977
-16.72
-16.8505
-16.9635
-17.0567
-17.179
-17.1321
-16.8364
-16.4819
-16.1875
-15.9411
-15.7335
-15.5851
-15.5509
-15.5641
-15.5618
-15.4942
-15.3961
-15.3338
-15.3354
-15.367
-15.4021
-15.3937
-15.3012
-15.1875
-15.126
-15.2359
-15.5565
-16.0791
-16.6846
-17.2082
-17.5364
-17.646
-17.589
-17.4149
-17.1625
-16.8512
-16.4855
-16.1896
-16.0211
-15.9167
-15.8423
-15.7886
-15.7622
-15.7733
-15.7948
-15.8548
-15.9642
-16.0947
-16.1782
-16.2411
-16.3095
-16.3739
-16.4195
-16.4296
-16.4138
-16.3967
-16.3492
-16.2412
-16.0974
-15.9671
-15.8664
-15.7872
-15.742
-15.7244
-15.7149
-15.7291
-15.7725
-15.8298
-15.8279
-15.7605
-15.6654
-15.5729
-15.4708
-15.4151
-16.2709
-16.4146
-16.6375
-16.7806
-16.8936
-17.0275
-17.1704
-17.3272
-17.4785
-17.623
-17.7781
-17.7307
-17.396
-17.0259
-16.7347
-16.4821
-16.2797
-16.1535
-16.1038
-16.0786
-16.0322
-15.9513
-15.8598
-15.8024
-15.7838
-15.7736
-15.7751
-15.7777
-15.7675
-15.7527
-15.7687
-15.8624
-16.0812
-16.4421
-16.884
-17.2995
-17.5874
-17.7131
-17.7033
-17.6024
-17.4183
-17.172
-16.885
-16.6343
-16.4789
-16.3789
-16.3057
-16.2591
-16.2612
-16.2727
-16.3245
-16.4156
-16.5551
-16.6957
-16.7819
-16.8526
-16.9286
-16.9947
-17.0324
-17.034
-17.0122
-16.9946
-16.9385
-16.8174
-16.6769
-16.5521
-16.4467
-16.3551
-16.2836
-16.236
-16.2013
-16.1799
-16.1843
-16.2241
-16.2465
-16.206
-16.1152
-16.0127
-15.9356
-15.8986
-16.7112
-16.9123
-17.114
-17.2209
-17.3276
-17.4539
-17.5953
-17.7533
-17.9226
-18.0961
-18.2462
-18.1929
-17.881
-17.5539
-17.2934
-17.0672
-16.8892
-16.7606
-16.6683
-16.5979
-16.5277
-16.4422
-16.3557
-16.3051
-16.2792
-16.2373
-16.199
-16.177
-16.1741
-16.2134
-16.322
-16.4702
-16.6741
-16.9236
-17.2185
-17.5181
-17.7586
-17.8913
-17.9202
-17.8626
-17.7327
-17.5312
-17.2825
-17.065
-16.9202
-16.8221
-16.7475
-16.7056
-16.7283
-16.7533
-16.8304
-16.9526
-17.1184
-17.262
-17.3669
-17.457
-17.5331
-17.5983
-17.6276
-17.6151
-17.5847
-17.5659
-17.5088
-17.3867
-17.255
-17.1383
-17.0308
-16.9324
-16.8446
-16.7688
-16.7004
-16.6261
-16.589
-16.6072
-16.6458
-16.6412
-16.5704
-16.4827
-16.4127
-16.3863
-17.2962
-17.5314
-17.6187
-17.6793
-17.7673
-17.8737
-17.9945
-18.1319
-18.2904
-18.4533
-18.5712
-18.5272
-18.3041
-18.0725
-17.8769
-17.6982
-17.5348
-17.3851
-17.2694
-17.1833
-17.1041
-17.0391
-16.9824
-16.9303
-16.8735
-16.8079
-16.7339
-16.662
-16.6262
-16.6837
-16.8381
-17.0436
-17.2461
-17.4366
-17.648
-17.8684
-18.0672
-18.1979
-18.2356
-18.1828
-18.0807
-17.9235
-17.7078
-17.5083
-17.3674
-17.2683
-17.1896
-17.1541
-17.1801
-17.2265
-17.3219
-17.4692
-17.652
-17.8041
-17.9269
-18.0289
-18.1049
-18.1644
-18.1855
-18.161
-18.1197
-18.0964
-18.0455
-17.9273
-17.8034
-17.7062
-17.6116
-17.5158
-17.4212
-17.3333
-17.2368
-17.1038
-17.0426
-17.0427
-17.0785
-17.1051
-17.075
-16.993
-16.9197
-16.8959
-17.8886
-18.0702
-18.0852
-18.1297
-18.1994
-18.2828
-18.3769
-18.4867
-18.6197
-18.7602
-18.8575
-18.8441
-18.73
-18.6021
-18.4807
-18.3499
-18.2086
-18.0771
-17.9843
-17.9137
-17.8529
-17.8163
-17.778
-17.7041
-17.6188
-17.5461
-17.4509
-17.3255
-17.2381
-17.2995
-17.4718
-17.6567
-17.8236
-17.9935
-18.1653
-18.3255
-18.4624
-18.5648
-18.6058
-18.5647
-18.483
-18.3577
-18.1811
-17.9947
-17.8476
-17.7414
-17.654
-17.6222
-17.6475
-17.7122
-17.8203
-17.9798
-18.1624
-18.3265
-18.4607
-18.5656
-18.6436
-18.6931
-18.7018
-18.6709
-18.6164
-18.5823
-18.5301
-18.4257
-18.3234
-18.2475
-18.1724
-18.0923
-18.0074
-17.9195
-17.823
-17.7308
-17.6591
-17.6351
-17.6598
-17.6757
-17.6451
-17.5566
-17.482
-17.4536
-18.4262
-18.5061
-18.53
-18.5673
-18.6215
-18.6847
-18.7548
-18.8399
-18.9494
-19.0724
-19.1693
-19.2032
-19.1835
-19.1421
-19.0874
-19.015
-18.9249
-18.8482
-18.7848
-18.7127
-18.6322
-18.5648
-18.52
-18.4873
-18.4564
-18.4145
-18.3523
-18.2113
-18.0565
-18.0954
-18.2723
-18.4072
-18.5163
-18.63
-18.7516
-18.8648
-18.9403
-19.0098
-19.0627
-19.0705
-19.0158
-18.8992
-18.7262
-18.5375
-18.3753
-18.2573
-18.1625
-18.1263
-18.1516
-18.2301
-18.3451
-18.502
-18.6747
-18.8376
-18.9759
-19.081
-19.1543
-19.1946
-19.1942
-19.152
-19.0897
-19.0382
-18.9797
-18.8985
-18.8299
-18.7772
-18.7219
-18.6651
-18.5992
-18.5143
-18.4434
-18.4308
-18.3994
-18.3617
-18.382
-18.3778
-18.3048
-18.1929
-18.0988
-18.0599
-18.8897
-18.9327
-18.9685
-18.9988
-19.0387
-19.0861
-19.1394
-19.2072
-19.3014
-19.4158
-19.523
-19.6062
-19.6552
-19.6816
-19.6928
-19.6791
-19.6551
-19.6207
-19.5494
-19.4367
-19.3147
-19.2141
-19.1606
-19.1536
-19.1862
-19.2461
-19.2682
-19.1657
-18.9691
-18.9697
-19.1088
-19.1798
-19.2508
-19.327
-19.4053
-19.4733
-19.5105
-19.5466
-19.5974
-19.6419
-19.6162
-19.4994
-19.3214
-19.1262
-18.9492
-18.8121
-18.7223
-18.6856
-18.7077
-18.7919
-18.9064
-19.0501
-19.2044
-19.3503
-19.4813
-19.5837
-19.6471
-19.6815
-19.6731
-19.615
-19.5514
-19.4898
-19.4295
-19.3716
-19.3338
-19.3085
-19.2795
-19.2577
-19.2219
-19.1314
-19.1274
-19.1664
-19.1459
-19.1105
-19.1228
-19.1298
-19.0281
-18.8735
-18.7515
-18.7067
-19.3384
-19.364
-19.4039
-19.4288
-19.4577
-19.4936
-19.5379
-19.5985
-19.6879
-19.8035
-19.9333
-20.052
-20.1497
-20.2343
-20.2938
-20.331
-20.3483
-20.3167
-20.2143
-20.0726
-19.9402
-19.8401
-19.7824
-19.7633
-19.7959
-19.8797
-19.9583
-19.9089
-19.7648
-19.734
-19.8157
-19.8374
-19.883
-19.9409
-20.0037
-20.0509
-20.079
-20.1212
-20.1758
-20.1978
-20.1674
-20.0639
-19.9201
-19.759
-19.585
-19.4214
-19.3239
-19.2915
-19.3129
-19.3954
-19.5016
-19.6207
-19.7486
-19.8726
-19.9869
-20.0799
-20.1363
-20.1585
-20.1412
-20.0734
-20.0117
-19.9501
-19.895
-19.8547
-19.8403
-19.8454
-19.8501
-19.8828
-19.8958
-19.8485
-19.8843
-19.8735
-19.8518
-19.8493
-19.8437
-19.8562
-19.755
-19.549
-19.3996
-19.3577
-19.8077
-19.8185
-19.8469
-19.8649
-19.8837
-19.9108
-19.9532
-20.017
-20.1133
-20.2426
-20.3952
-20.5395
-20.6753
-20.8025
-20.901
-20.9736
-20.994
-20.9344
-20.8093
-20.665
-20.5386
-20.4433
-20.3853
-20.3554
-20.3559
-20.4034
-20.4882
-20.461
-20.3765
-20.3564
-20.3935
-20.4075
-20.4388
-20.481
-20.532
-20.5697
-20.599
-20.6728
-20.7597
-20.803
-20.7858
-20.708
-20.5847
-20.439
-20.2699
-20.0911
-19.9714
-19.9388
-19.9605
-20.034
-20.1185
-20.2066
-20.3061
-20.4068
-20.4996
-20.5777
-20.6243
-20.6335
-20.6089
-20.5453
-20.4745
-20.4181
-20.3743
-20.3474
-20.3507
-20.384
-20.435
-20.534
-20.6102
-20.6351
-20.6071
-20.5575
-20.5116
-20.5082
-20.5081
-20.5188
-20.418
-20.1716
-20.0146
-19.9831
-20.2957
-20.3057
-20.3038
-20.3084
-20.3175
-20.3391
-20.3852
-20.4599
-20.5724
-20.726
-20.8958
-21.0636
-21.2314
-21.3874
-21.5255
-21.6143
-21.6172
-21.5328
-21.3992
-21.2518
-21.1219
-21.027
-20.9722
-20.9419
-20.9232
-20.9296
-20.9941
-20.9901
-20.924
-20.929
-20.9379
-20.951
-20.9745
-21.0103
-21.0606
-21.0944
-21.127
-21.2518
-21.4021
-21.5191
-21.5518
-21.4929
-21.3751
-21.2152
-21.0229
-20.8161
-20.677
-20.634
-20.6468
-20.6952
-20.7464
-20.8072
-20.8775
-20.9512
-21.0209
-21.0791
-21.1127
-21.112
-21.0803
-21.0237
-20.944
-20.8905
-20.8561
-20.8434
-20.8621
-20.918
-21.0169
-21.189
-21.3707
-21.4197
-21.2702
-21.2404
-21.1582
-21.0992
-21.0921
-21.0902