/*--------------------------------*- C++ -*----------------------------------*\
| =========                 |                                                 |
| \\      /  F ield         | OpenFOAM: The Open Source CFD Toolbox           |
|  \\    /   O peration     | Version:  2412                                  |
|   \\  /    A nd           | Website:  www.openfoam.com                      |
|    \\/     M anipulation  |                                                 |
\*---------------------------------------------------------------------------*/
FoamFile
{
    version     2.0;
    format      ascii;
    arch        "LSB;label=32;scalar=64";
    class       volScalarField;
    location    "8.15";
    object      p_rgh;
}
// * * * * * * * * * * * * * * * * * * * * * * * * * * * * * * * * * * * * * //

dimensions      [1 -1 -2 0 0 0 0];

internalField   nonuniform List<scalar> 
6400
(
133960
133950
133929
133898
133857
133808
133751
133689
133623
133554
133484
133415
133349
133285
133226
133173
133126
133086
133052
133026
133007
132995
132989
132989
132994
133003
133016
133032
133050
133069
133089
133109
133128
133146
133162
133177
133189
133199
133206
133210
133211
133210
133207
133201
133194
133184
133174
133162
133150
133137
133125
133115
133106
133099
133095
133095
133099
133108
133121
133140
133165
133195
133231
133273
133320
133372
133428
133488
133550
133614
133677
133739
133799
133854
133904
133948
133984
134012
134030
134039
133970
133959
133938
133906
133864
133814
133756
133692
133624
133554
133483
133412
133344
133280
133220
133166
133119
133078
133045
133019
133000
132989
132983
132984
132990
133000
133014
133031
133049
133070
133090
133111
133130
133149
133166
133180
133193
133203
133210
133214
133215
133214
133211
133205
133197
133187
133176
133163
133151
133138
133125
133114
133104
133097
133093
133092
133095
133103
133116
133134
133158
133189
133225
133267
133314
133367
133424
133485
133548
133612
133677
133741
133801
133858
133910
133955
133992
134020
134038
134048
133991
133980
133958
133924
133880
133826
133766
133699
133627
133554
133480
133406
133336
133269
133208
133153
133104
133063
133030
133005
132987
132976
132972
132974
132981
132993
133009
133027
133048
133069
133092
133113
133134
133154
133171
133187
133199
133209
133217
133221
133222
133221
133217
133210
133202
133191
133179
133166
133152
133138
133125
133112
133101
133092
133086
133084
133086
133093
133105
133122
133146
133176
133212
133255
133303
133357
133416
133478
133544
133611
133678
133744
133808
133867
133921
133968
134007
134037
134057
134067
134025
134013
133988
133952
133904
133847
133781
133709
133633
133555
133475
133398
133323
133253
133189
133132
133082
133041
133007
132982
132965
132956
132954
132958
132968
132983
133001
133022
133045
133069
133093
133117
133139
133160
133179
133195
133209
133219
133226
133231
133232
133230
133225
133218
133209
133197
133184
133169
133154
133138
133123
133108
133095
133085
133077
133072
133073
133078
133088
133105
133128
133157
133194
133237
133287
133342
133403
133469
133537
133608
133680
133750
133818
133882
133940
133990
134032
134064
134086
134096
134071
134058
134031
133991
133938
133875
133803
133724
133641
133555
133470
133386
133306
133231
133163
133103
133052
133009
132976
132952
132936
132929
132930
132937
132950
132968
132990
133015
133041
133068
133095
133121
133146
133169
133189
133206
133221
133231
133239
133243
133244
133242
133236
133228
133217
133204
133189
133173
133155
133137
133120
133103
133087
133074
133063
133056
133054
133056
133065
133080
133102
133132
133168
133213
133264
133322
133387
133456
133530
133605
133682
133759
133832
133902
133965
134020
134066
134102
134125
134137
134132
134117
134087
134041
133982
133911
133831
133743
133650
133556
133462
133370
133283
133203
133130
133066
133012
132968
132935
132912
132899
132895
132899
132910
132928
132950
132977
133006
133036
133067
133098
133127
133154
133179
133201
133220
133235
133247
133255
133259
133259
133256
133249
133240
133227
133212
133195
133177
133157
133136
133115
133095
133076
133059
133045
133035
133030
133029
133036
133049
133070
133098
133135
133181
133235
133296
133365
133440
133519
133601
133686
133769
133851
133927
133998
134060
134111
134151
134177
134190
134209
134192
134157
134105
134037
133957
133865
133766
133662
133556
133451
133350
133254
133166
133088
133019
132963
132918
132885
132863
132853
132852
132861
132877
132900
132928
132960
132994
133030
133066
133101
133134
133165
133193
133217
133237
133254
133266
133274
133278
133277
133273
133265
133254
133240
133223
133204
133182
133159
133135
133111
133087
133064
133043
133024
133010
133000
132996
132999
133010
133029
133056
133094
133141
133197
133263
133337
133418
133505
133596
133689
133782
133873
133959
134039
134109
134167
134212
134242
134257
134304
134284
134244
134184
134105
134012
133907
133794
133676
133556
133438
133324
133217
133120
133034
132961
132902
132855
132823
132804
132797
132801
132815
132837
132867
132901
132940
132981
133023
133065
133105
133143
133178
133210
133236
133259
133276
133289
133297
133301
133300
133294
133285
133272
133256
133236
133214
133189
133162
133134
133106
133077
133049
133023
133000
132980
132965
132957
132955
132962
132979
133005
133043
133091
133151
133221
133302
133391
133487
133588
133692
133797
133900
133998
134089
134169
134236
134288
134323
134340
134421
134398
134350
134279
134188
134079
133958
133827
133691
133554
133419
133290
133171
133063
132969
132890
132826
132779
132747
132731
132728
132739
132760
132790
132827
132871
132918
132967
133016
133065
133112
133155
133195
133230
133260
133284
133303
133317
133325
133328
133326
133319
133308
133293
133274
133251
133226
133197
133166
133134
133100
133066
133032
133000
132971
132945
132924
132909
132903
132905
132919
132943
132980
133031
133094
133170
133257
133356
133463
133577
133695
133814
133931
134044
134149
134242
134320
134380
134422
134442
134563
134535
134478
134394
134286
134158
134016
133864
133706
133549
133395
133248
133113
132992
132888
132802
132734
132686
132656
132644
132648
132665
132695
132736
132783
132837
132894
132952
133011
133068
133121
133171
133216
133255
133288
133314
133335
133349
133357
133359
133356
133348
133334
133317
133295
133269
133240
133207
133172
133134
133095
133054
133014
132975
132937
132904
132875
132854
132841
132838
132847
132869
132905
132957
133024
133106
133202
133312
133432
133561
133696
133833
133968
134098
134220
134328
134420
134492
134540
134564
134734
134701
134633
134532
134402
134251
134084
133906
133723
133540
133363
133195
133042
132906
132790
132696
132625
132576
132549
132542
132553
132581
132622
132673
132733
132799
132868
132938
133007
133073
133135
133192
133242
133286
133322
133351
133372
133387
133394
133395
133390
133380
133365
133344
133319
133290
133257
133220
133179
133136
133090
133043
132994
132947
132901
132858
132820
132790
132768
132758
132761
132780
132815
132868
132939
133029
133136
133259
133395
133542
133697
133854
134010
134161
134303
134431
134540
134626
134682
134711
134942
134901
134818
134696
134541
134361
134164
133955
133741
133527
133321
133127
132952
132798
132670
132567
132492
132444
132421
132422
132443
132483
132537
132603
132677
132757
132840
132923
133004
133081
133153
133217
133274
133322
133362
133393
133415
133430
133437
133437
133430
133417
133399
133376
133347
133314
133276
133234
133188
133138
133085
133030
132973
132916
132859
132806
132757
132716
132684
132665
132661
132674
132706
132760
132836
132934
133053
133191
133347
133516
133693
133876
134057
134233
134400
134551
134682
134784
134854
134889
135193
135142
135041
134892
134706
134491
134257
134009
133756
133506
133265
133041
132840
132666
132523
132411
132333
132286
132269
132280
132314
132369
132440
132523
132614
132711
132810
132909
133004
133093
133175
133249
133312
133366
133410
133443
133466
133480
133486
133484
133475
133459
133438
133411
133379
133341
133299
133252
133199
133143
133082
133018
132951
132882
132814
132748
132687
132632
132588
132557
132543
132548
132577
132630
132710
132817
132950
133106
133284
133478
133685
133897
134110
134317
134515
134695
134851
134975
135063
135105
135495
135434
135311
135127
134903
134646
134364
134069
133770
133475
133193
132933
132702
132504
132344
132223
132141
132098
132090
132114
132166
132239
132330
132434
132547
132665
132783
132899
133010
133114
133207
133290
133361
133420
133467
133502
133525
133538
133542
133537
133525
133507
133482
133451
133415
133374
133327
133274
133216
133152
133083
133008
132930
132849
132767
132686
132609
132538
132477
132431
132404
132399
132421
132473
132557
132674
132822
133000
133204
133430
133671
133920
134171
134417
134651
134867
135054
135205
135312
135363
135859
135784
135633
135413
135141
134830
134491
134136
133778
133428
133097
132793
132526
132302
132124
131993
131911
131874
131879
131922
131995
132092
132208
132337
132474
132616
132756
132893
133023
133142
133248
133342
133421
133485
133535
133571
133594
133605
133606
133598
133582
133559
133531
133496
133456
133410
133359
133300
133236
133164
133086
133002
132911
132816
132718
132619
132523
132433
132352
132287
132242
132223
132236
132284
132371
132498
132663
132866
133100
133362
133643
133937
134235
134529
134811
135071
135299
135484
135610
135674
136298
136206
136022
135757
135426
135046
134634
134204
133775
133358
132968
132615
132308
132053
131856
131717
131635
131609
131633
131699
131800
131927
132072
132230
132397
132566
132733
132894
133044
133181
133302
133407
133494
133564
133616
133652
133673
133681
133678
133665
133645
133618
133585
133546
133502
133452
133395
133332
133261
133182
133096
133000
132897
132786
132670
132551
132432
132318
132213
132123
132054
132015
132013
132055
132143
132280
132465
132695
132965
133269
133600
133948
134304
134658
134999
135315
135593
135815
135968
136047
136826
136714
136490
136167
135763
135298
134795
134274
133756
133260
132800
132388
132035
131748
131530
131384
131308
131298
131347
131445
131582
131746
131927
132120
132320
132522
132719
132907
133080
133236
133373
133489
133584
133659
133713
133747
133765
133768
133759
133740
133714
133681
133644
133601
133553
133499
133439
133371
133295
133209
133114
133007
132889
132761
132625
132482
132337
132194
132060
131938
131839
131772
131750
131780
131868
132014
132220
132480
132790
133144
133531
133944
134371
134799
135213
135600
135939
136209
136397
136491
137461
137327
137050
136652
136157
135587
134970
134335
133710
133119
132577
132097
131691
131366
131127
130976
130910
130925
131012
131156
131341
131551
131773
132003
132243
132483
132716
132934
133134
133311
133464
133592
133695
133774
133828
133860
133871
133867
133849
133823
133790
133751
133708
133661
133609
133553
133490
133418
133338
133247
133143
133025
132892
132745
132585
132415
132239
132063
131895
131734
131591
131484
131431
131443
131526
131682
131908
132204
132561
132972
133427
133916
134430
134951
135456
135932
136347
136678
136906
137018
138244
138078
137744
137250
136622
135914
135161
134384
133620
132905
132254
131683
131207
130834
130549
130354
130293
130389
130581
130806
131066
131342
131621
131884
132172
132460
132734
132987
133215
133414
133583
133723
133833
133915
133968
133993
133994
133978
133949
133913
133872
133827
133778
133726
133671
133613
133549
133476
133394
133300
133190
133061
132913
132747
132562
132361
132147
131930
131726
131505
131291
131114
131007
130986
131057
131218
131470
131811
132232
132721
133263
133850
134474
135111
135717
136319
136834
137241
137516
137652
139155
138969
138562
137959
137202
136332
135129
129779
121844
113224
104397
96048.5
88782.7
82963.7
77924.2
75165.2
74591.6
76071.3
79691.7
84776.6
89882.6
95074.6
99917.8
104275
108621
112500
115800
118633
121043
123018
124560
125773
126850
127636
128088
128251
128178
127929
127595
127236
126881
126510
126103
125618
125106
124655
124129
123353
122402
121328
120104
118679
117047
115200
113077
110607
107695
104387
100985
96954.8
92823.9
89413.8
87417.5
86988.3
87945.4
90269.4
93955.4
98928.4
104911
111429
117997
124291
130212
134894
136094
136795
137413
137904
138238
138394
129688
130010
124221
114684
100009
79613
56993.8
38187.8
25134.1
15855.2
9336.6
4858.36
1860.14
11.2395
3.75936
3.70843
3.62648
3.57884
3.85758
533.672
2245.6
4046.71
5931.29
8119.28
11230.5
14796.4
18498
22158.5
25598.2
28616.8
31219
33432.9
35118.1
36314.6
36963.8
37096
36808.5
36235.7
35523
34739.3
33888.9
32968.6
32086.8
31239.9
30376.6
29451.3
28521.5
27565.7
26632.8
25607.1
24302.4
22629.6
20655.2
18495.4
16152.9
13660.2
11086.8
8621.39
6716.19
4898.65
3185.88
1809.82
1037.39
917.76
1314.04
2242.09
3813.34
6234.79
9707.47
14470.1
20863.2
29258.7
40237.3
55129.1
73206.7
89955.1
102859
111946
117552
117304
43310.9
38690.5
29571.5
18301.5
8642.69
2689.22
248.955
3.25227
3.01319
3.15901
3.34865
3.52747
3.71229
3.84976
3.74402
3.68647
3.61366
3.55941
3.59506
3.55036
3.33439
3.11913
2.96667
2.9205
4.52496
7.37099
9.74472
13.3548
16.8464
19.1901
23.1227
25.1277
22.0026
17.3915
13.7715
11.1769
10.3182
10.6101
8.11406
5.19091
5.71897
7.65033
9.84994
8.77752
9.06131
11.0859
13.4275
15.5651
16.7984
17.3324
19.4138
19.5
17.2233
14.014
10.2799
7.25147
3.59665
2.49389
2.48143
2.54388
2.69542
2.84431
2.93966
3.00621
3.05735
3.11121
3.10623
3.02619
2.99514
2.9366
2.61192
2.4127
2.48994
3.08241
1211.7
4617.12
9947.21
15997.8
21280.8
24575.4
71.0562
19.0493
12.9654
3.67404
2.93088
3.4375
3.7678
4.3153
3.03255
3.16415
3.42393
4.27602
4.35705
3.65491
3.68377
3.9555
3.59759
3.53372
4.49832
5.32748
4.49591
3.3053
3.04812
3.60641
3.61888
4.76143
4.77064
4.72407
5.329
4.41774
5.24691
5.78357
5.19035
4.31366
3.76584
3.71072
5.51141
8.44358
5.56473
2.68581
3.26781
5.51161
7.73905
3.87893
3.01057
3.12262
3.14659
3.16025
3.06955
3.15883
3.01734
2.26181
2.66456
2.87463
3.2371
3.4539
3.29452
6.76916
6.17715
2.89229
3.22598
3.72113
2.94099
2.98699
3.07657
4.34293
3.4386
2.98469
4.02813
5.00854
3.13572
2.42046
2.46019
2.51357
2.77149
3.0393
6.10248
14.4421
21.3859
65.8388
12.422
7.63425
4.04342
3.15994
3.28283
3.43695
3.06715
3.14727
3.02598
3.48319
4.22519
4.98723
4.81106
3.63273
5.25213
5.99642
3.96424
4.79113
8.00675
7.92403
7.84322
6.55333
3.43038
3.41369
3.51503
4.99699
4.6935
4.75967
5.50807
2.62494
2.86354
3.19229
2.61586
2.24722
2.13774
2.1325
5.51027
9.32535
4.72654
2.04294
2.32345
6.08254
9.12494
3.74357
3.022
3.11168
3.11921
3.09043
3.03708
3.05086
3.0567
2.94895
2.77052
2.86005
3.44533
3.69095
3.39375
2.82283
2.75792
2.72368
4.14158
4.23833
4.04264
2.88298
4.64866
5.22936
5.22162
4.10707
5.12025
4.98564
3.44919
2.29665
2.30092
2.31746
2.2303
2.26792
2.6596
4.12301
4.73632
11.4886
6.20639
7.57394
3.25317
3.22469
3.32861
3.43258
3.4885
4.06137
6.89315
10.541
9.59368
4.61492
3.76978
3.63991
3.83057
6.03063
4.19921
4.34104
7.87579
7.83316
7.80349
7.19451
3.25121
3.22701
5.50473
6.96638
5.38643
2.34635
2.18838
2.20742
2.35504
2.47682
1.98843
1.93129
1.88087
1.8409
2.34464
2.35368
1.91061
1.72454
1.98491
4.36012
4.63356
3.10213
2.8661
3.05107
3.16216
3.15311
3.12911
3.02102
2.88996
2.76887
2.59498
2.37449
2.41108
3.37428
3.36958
3.3725
2.76337
3.15762
4.38127
4.22813
3.14709
3.12841
5.20134
5.22717
4.51618
5.20221
5.12029
3.41819
2.27729
2.26482
2.28074
2.29452
2.23581
2.191
2.22208
2.85184
2.96144
3.63232
5.28206
8.69397
3.95975
4.42623
6.01706
3.91674
3.41822
9.70603
10.3781
10.5646
10.7678
10.0558
3.94584
3.64778
4.07187
6.15196
5.64033
3.73771
5.65526
7.07799
7.67719
4.20442
3.16658
3.32453
7.23532
7.0764
6.38924
2.35966
2.25368
2.23384
2.32536
2.03678
1.82578
1.76752
1.71119
1.6228
1.5253
1.48554
1.54065
1.6155
1.71186
1.90074
2.17794
2.42632
2.70137
3.29294
3.53325
3.44715
3.52575
3.21152
3.61815
3.60634
2.68251
2.19407
2.0309
1.91181
1.89565
3.42219
4.24514
4.29759
4.33767
4.39139
3.73427
3.09161
3.30732
5.20609
4.65462
4.0885
4.49476
2.36003
2.27884
2.26399
2.29312
3.88751
4.40605
4.31788
4.14952
3.78433
2.34604
2.03401
5.0668
10.1296
10.2146
10.4319
10.6442
8.9863
5.80861
8.68789
10.1538
10.486
10.7004
10.9239
6.73202
3.50666
5.96964
6.04575
5.97937
3.61166
3.20098
3.16463
3.34856
3.8205
3.10432
3.37157
7.34122
7.21728
6.88729
2.40635
2.3129
2.4096
2.99879
2.86771
1.89171
1.63049
1.53396
1.41564
1.29903
1.25492
1.33169
2.24369
3.20881
3.31656
2.5532
2.56963
3.74497
3.83967
3.89958
3.99319
4.10867
4.06661
4.30117
4.26126
4.06042
2.54076
1.93412
1.82452
1.75203
1.69441
1.75771
3.61567
4.27312
4.32809
4.38026
3.35516
2.43068
2.72172
2.6383
3.08589
2.48176
2.37
2.35324
2.96856
2.94624
2.77083
2.13989
2.04049
2.80858
3.68357
2.23734
1.69789
4.27811
9.90548
8.6753
8.92867
10.3154
3.02159
1.3761
1.13864
5.86861
10.2403
10.4748
10.6347
10.4627
3.67988
3.9023
5.90148
5.87064
5.723
3.11208
3.15134
3.17608
4.00326
3.06235
3.45135
7.47291
7.36805
7.24911
3.15861
2.3225
2.48473
3.03115
2.94514
2.37889
1.48409
1.3306
1.17287
1.06417
1.20001
3.77511
4.69093
4.85542
5.01968
5.10747
4.56861
3.57495
3.54533
3.44537
3.6582
4.05603
4.19927
4.21629
4.16332
4.08626
3.83803
2.01687
1.73811
1.66503
1.60593
1.56029
1.52862
2.91928
4.24919
4.28013
3.99615
2.15831
2.14721
2.22084
2.4753
2.76163
2.35349
2.914
2.92963
2.5783
2.15599
2.20025
3.17912
2.68793
2.64196
2.29306
1.66249
1.95951
5.62434
3.98326
4.19096
3.98967
1.64128
0.804003
0.767207
1.16674
9.45457
10.2851
10.3819
8.94587
2.81742
2.53883
5.68367
5.72045
5.71817
3.0059
3.08862
3.09868
5.44766
3.02684
3.37089
7.59527
7.53848
7.41655
3.18065
2.31463
2.34058
3.04775
2.88587
1.83285
1.3153
1.09916
0.930783
3.83135
4.2741
4.26946
4.39419
4.61696
4.84517
3.84088
1.568
1.60549
1.77995
1.86336
2.03552
2.44991
3.84751
4.17256
4.08267
3.98987
3.64715
2.01487
1.65904
1.5897
1.51712
1.4433
1.41145
1.39853
3.62766
4.17644
4.16444
2.43777
1.96903
2.07526
2.33592
3.42915
2.29882
2.88138
2.81942
2.0868
2.01884
4.4201
4.85708
3.79665
1.69008
1.68113
1.69378
0.966581
0.775442
5.89739
6.26636
2.93974
0.640285
0.489897
0.526709
0.593249
7.57677
10.0384
8.73264
3.13203
1.9576
2.11059
3.77217
5.52059
5.27869
4.91046
4.82392
4.03389
6.33642
4.97915
2.6974
7.4343
7.69274
7.61191
3.77081
2.34228
2.28307
2.41031
2.3284
1.54242
1.16207
1.03231
4.23167
4.01282
3.86504
3.87358
4.0193
4.29339
4.3355
1.09598
1.2959
1.45706
1.59686
1.72248
1.84475
2.00285
3.29941
4.16631
4.04005
3.11792
1.84874
1.68587
1.62883
1.72657
1.66109
1.3989
1.27515
1.26144
2.69127
4.02676
4.01411
2.49599
1.77881
1.89023
2.07451
3.32333
3.23985
2.27991
2.65548
2.1143
2.29716
4.80675
4.8134
4.85957
2.78555
1.7684
1.74777
0.994959
0.823547
6.08255
6.29857
2.19258
0.360593
0.356333
0.392047
0.424722
4.12769
9.77825
5.41491
1.38305
1.63106
1.83981
1.93955
3.31691
2.08149
3.92408
6.16456
6.29929
6.30406
5.56536
2.22439
4.73384
7.76262
7.78423
5.64466
2.42937
2.37552
2.24028
1.97334
1.61243
1.23045
4.28036
4.00758
3.68762
3.52557
3.53029
3.67024
3.97538
3.95257
1.06272
1.17421
1.33086
1.46663
1.63981
2.05286
3.581
4.21735
4.14611
2.83162
1.728
1.66534
1.59498
1.66294
1.58971
1.51723
1.45458
1.12196
1.10605
2.28827
3.81578
3.86641
1.92075
1.59827
1.70206
1.76495
3.20202
3.21172
2.08097
1.99808
3.41091
3.66892
3.76782
4.72832
4.89689
5.08171
1.85449
1.78318
1.18875
2.40926
6.07948
5.23317
1.98046
0.303922
0.293937
0.300314
0.299725
2.11672
9.23498
2.20582
1.14315
1.45928
1.69646
1.80917
1.87212
1.92533
2.06012
5.55228
6.27408
6.26956
2.9485
2.07469
2.08111
3.85777
7.3532
8.46167
4.87003
2.53649
2.44104
2.18248
1.72413
3.87999
4.35889
3.8485
3.50477
3.34478
1.26265
0.841789
3.3087
4.03303
3.77081
1.28315
1.22238
1.41882
1.80465
4.00871
4.15726
4.15333
4.11315
1.79693
1.62416
1.5317
1.43108
1.47919
1.43343
1.36358
1.1623
0.936885
0.95546
2.13493
3.59765
2.48134
1.33582
1.45345
1.54841
1.59703
2.3383
3.10231
2.16915
1.7403
2.52804
4.06479
4.08616
2.72894
4.72879
5.16468
4.84049
1.79023
1.44525
2.99817
1.42493
0.928997
1.30289
0.414812
0.260348
0.223292
0.193043
1.80573
7.70101
1.11485
1.11482
1.41217
1.90268
1.75804
1.86921
1.9716
2.06778
6.13469
6.28879
4.88198
1.95601
2.01729
2.00055
2.01433
4.47413
8.68364
9.0198
5.00215
2.60783
2.36633
1.89779
4.49385
4.40021
3.85663
3.50589
1.16566
-0.0207396
0.205669
0.552236
4.01719
4.4224
1.8354
1.14573
1.26062
1.75027
4.05539
4.11208
4.10742
2.50002
1.87746
2.15674
1.77461
1.24767
1.13748
1.13708
0.967836
0.806349
0.789107
0.800401
2.28064
2.786
1.21558
1.22712
1.35188
1.4454
1.49572
1.4939
2.83766
2.41584
1.65373
1.52684
3.44998
4.16756
2.78793
2.84714
5.19331
5.22839
1.79931
1.71928
1.68117
2.08906
1.01455
0.443333
0.338046
0.255186
0.168051
0.0986793
2.28654
8.31222
5.40954
1.14119
2.02494
2.34444
1.74536
1.90864
2.05162
5.25548
6.29079
6.29983
1.89749
1.97766
2.04588
2.32114
2.79671
2.90481
8.78995
9.15604
9.32346
6.32438
2.49206
2.07667
1.49112
2.48547
4.065
2.61694
0.0864381
0.131118
0.349544
0.661612
3.46427
4.42856
1.79075
1.11044
1.2169
1.37472
4.04044
4.11223
3.63558
2.28252
2.37433
2.32628
2.21541
1.2224
0.954279
0.84455
0.722254
0.669363
0.656375
0.687014
2.25896
1.65718
1.0922
1.20039
1.31135
1.66636
1.44286
1.50074
1.60101
2.04345
1.65085
1.56831
3.56208
4.30676
3.69826
2.97673
3.55433
5.25475
2.022
1.96383
3.28761
3.16959
1.88483
0.540222
0.406267
0.274292
0.143253
0.0299725
1.70435
8.43523
8.4986
3.31458
2.09585
2.18034
1.73199
1.93407
4.17782
5.91159
5.91347
2.86123
2.48875
2.43041
2.64207
2.63757
2.13918
2.27477
3.20625
7.63471
9.26936
9.31035
8.47474
4.71716
2.05091
1.82487
1.18449
0.623867
0.471808
0.496456
0.648357
0.918157
3.42674
4.01952
1.20215
1.11901
1.21859
1.29077
3.39631
4.12994
2.18375
2.22993
2.35756
2.24504
2.06748
1.04399
0.943739
1.53874
1.19245
0.567205
0.532188
0.549876
1.90825
2.05646
1.10859
1.43872
2.26791
2.50303
2.49656
2.19267
2.62103
2.65655
1.68747
1.63831
3.01914
4.48113
4.54849
4.23193
3.47377
4.50329
2.17525
2.23535
3.73928
3.27316
0.949774
0.661272
0.6331
0.385019
0.15965
0.0105371
1.38363
8.58116
8.44882
2.97319
1.3049
1.51183
1.70693
3.57225
4.65018
4.01107
1.99724
1.92927
1.99061
2.07382
2.28474
2.36466
2.09651
2.09505
2.09369
2.13326
2.96521
9.08458
8.9305
8.69148
7.78924
7.21773
6.4721
3.05628
1.08563
0.942438
1.00721
2.2597
3.6343
2.59999
1.04702
1.15312
1.24878
1.32406
2.5594
3.76938
2.15524
2.28264
2.32571
2.18561
0.975129
1.12628
2.00715
1.95231
1.8939
0.810913
0.421614
0.442971
1.43453
2.00061
1.15587
2.17179
2.34975
2.48011
2.57387
2.651
2.70205
2.72117
2.06277
1.71784
1.67818
3.64715
4.69164
4.77539
3.84301
2.46857
2.50123
7.04003
3.82585
0.957469
0.869685
0.792921
1.00441
0.841919
0.228935
0.0701178
0.55933
3.55348
4.49805
0.984311
1.31162
1.58773
3.36646
3.61352
3.28608
1.8454
1.86953
1.9197
1.99665
2.07549
2.10971
2.10964
2.13625
2.17453
2.19653
2.20079
2.17084
2.09966
6.24122
8.59636
8.24338
7.96212
7.69058
7.47267
7.3223
6.95992
2.49733
2.45337
3.78968
1.79663
1.08952
1.20609
1.30149
1.37678
2.72865
2.21883
2.19379
2.43886
2.3168
2.14152
0.861276
1.11986
1.95257
1.88855
1.82237
1.16345
0.335118
0.363461
0.714456
1.96382
1.98664
1.51554
2.32169
2.43137
2.53595
2.6299
2.70404
2.6671
1.78034
1.81761
1.79919
1.76075
2.5001
4.83739
3.97122
2.7088
2.53635
7.92497
2.02889
0.927918
0.888962
1.19839
1.09286
0.969464
0.418889
0.224708
0.0870348
0.083707
0.408383
0.922919
1.50222
3.06813
3.26081
3.18199
1.71376
1.80721
1.83762
1.88277
2.80915
6.76489
6.76669
2.90329
2.73589
3.24248
3.42137
3.46289
3.55931
2.90509
2.73572
2.55935
6.75703
8.20937
8.00216
7.83211
7.70655
5.03702
1.75523
1.43376
1.35478
0.978629
1.12095
1.25272
1.35189
1.43054
3.45814
2.28992
2.24002
2.47575
2.32838
1.43341
0.808219
0.680462
1.0135
1.84778
1.7894
1.12178
0.309344
0.322262
0.35758
1.90565
1.38786
0.771945
1.5424
2.32578
2.48918
2.58379
2.67373
1.82765
1.84706
2.70659
2.7615
2.10594
2.04049
2.08207
2.2028
3.63325
3.57135
8.01921
1.20384
0.951995
1.08217
1.27522
1.19209
1.02828
0.53594
0.402671
0.26544
0.193494
0.302017
1.89077
2.80075
2.97256
3.11231
1.52183
1.60851
1.67706
3.16296
6.95543
7.14762
7.2077
7.29368
7.3933
7.46697
7.55451
7.68458
7.76731
7.6953
7.49719
5.57554
2.96101
3.18489
5.98965
7.85712
2.67352
2.04283
1.91748
1.9582
1.99875
1.22939
0.982096
1.1347
1.2712
1.37527
1.75891
3.67314
2.49629
2.27869
2.50527
2.34433
1.33441
0.773852
0.639107
0.534645
1.55114
1.79171
1.09582
0.335626
0.393545
0.384243
0.5937
0.637319
0.713526
0.8099
1.04451
1.46527
1.62753
1.38003
1.80855
8.58726
10.4856
10.5157
10.4924
4.76638
2.06257
2.24455
3.78575
4.01267
7.32758
1.02575
0.993602
1.40911
1.35928
1.29573
1.09837
0.675987
0.568231
0.455073
0.401078
1.73513
2.67968
2.76892
2.87137
1.71077
1.14429
2.07073
4.17806
4.25021
4.13849
1.16971
1.06701
4.31681
7.1913
7.24719
7.31124
7.44359
7.58746
7.5221
7.29857
6.99256
6.96355
6.91842
6.81992
7.16475
6.63103
5.27609
3.37311
5.98701
5.80775
3.13185
1.02265
1.12369
1.25097
1.35807
2.82429
3.74372
2.80524
2.49308
2.50694
2.33949
2.11105
0.786314
0.620608
0.51536
0.460121
1.81545
1.69493
0.354068
0.428222
0.683413
0.578457
0.63051
0.693499
0.747121
0.807605
0.880364
0.99828
1.14323
4.19304
10.2849
10.465
10.5328
10.498
9.99914
2.46464
2.19461
3.88099
3.9639
7.35909
1.08243
1.04145
1.29632
1.44759
1.39871
1.21967
0.804526
0.720412
0.635035
1.54222
2.76986
2.74123
2.7351
2.1267
0.480469
0.692695
2.82354
2.98947
0.750158
0.629358
0.729278
0.782808
0.790323
0.969986
2.8059
5.01654
5.83925
7.2551
6.50175
3.81019
2.94884
3.32628
4.42527
6.23999
6.64559
6.71581
6.52683
6.32316
6.264
6.16853
1.75599
1.16776
1.68309
2.64454
1.8258
3.25927
3.73249
2.63851
2.55453
2.46272
2.2555
1.99545
1.19828
0.613458
0.499082
0.423872
1.16818
1.73658
0.386062
0.44861
0.870942
0.851137
0.646056
0.681157
0.704287
0.733179
0.764982
0.818376
3.706
9.00206
6.75933
6.68724
10.4846
10.5027
10.4631
4.43318
2.15233
2.94567
3.7327
8.60909
1.62227
1.10006
1.10226
1.53291
1.48832
1.29064
0.919067
0.853664
1.22797
2.93647
2.84717
2.7789
2.56982
0.317468
0.244068
0.321256
0.573641
0.331405
0.364033
0.495686
0.595784
0.653406
0.672596
0.640481
0.557668
0.480565
0.546273
5.58849
1.54023
0.56503
0.538049
0.490963
0.432829
0.370739
0.846742
3.64882
6.4061
6.33162
3.12693
1.35507
1.14525
1.25341
3.53984
6.07366
5.14968
2.72544
2.2802
2.202
2.488
2.26231
0.997096
1.06335
1.237
0.846581
0.502223
0.417292
0.378988
1.75518
0.791851
0.482226
0.787691
1.11222
0.954467
0.666997
0.661393
0.655468
0.62397
0.69574
10.7966
8.90052
1.5961
1.61781
7.29366
10.4798
10.438
5.44411
2.18447
2.38477
2.42854
8.81324
5.71789
1.15098
1.1332
1.42518
1.56258
1.37956
1.02101
0.964548
2.33525
2.98495
2.88132
2.75172
0.645626
0.156716
0.079583
0.0366266
0.0658952
0.157822
0.266412
0.390399
0.485009
0.542961
0.572865
0.572576
0.525737
0.441782
1.02324
2.13969
2.91466
0.493049
0.461187
0.426224
0.38304
0.332165
0.29442
0.266742
0.585956
1.00565
5.21813
5.44266
5.54334
5.66967
5.84056
6.00991
5.41521
2.5006
2.13897
2.05032
2.35866
1.04794
0.64238
0.547775
0.988748
0.961704
0.883645
0.441736
0.386632
0.629281
1.616
0.586537
0.657078
1.13678
1.16599
1.06423
0.616075
0.565095
0.466036
3.80393
10.7587
2.44567
1.4295
1.4753
1.47875
10.1836
10.4809
4.91262
2.13805
2.29661
2.3245
8.99872
6.98021
1.18831
1.19627
1.18278
1.5565
1.26505
1.08537
1.5384
3.20814
3.00469
2.87428
2.09582
0.165746
0.0207692
-0.0668821
-0.0685995
0.0543444
1.03172
1.18308
0.318048
0.394585
0.448524
0.479009
0.498371
0.492788
0.434307
4.71629
5.11478
5.12008
0.543172
0.458752
0.384641
0.345109
0.294282
0.261094
2.85025
5.15986
5.14138
5.19599
5.30298
5.39757
5.52281
5.68386
5.87505
6.08244
4.03237
1.90566
1.85546
1.71295
0.590559
0.53041
0.461706
0.44051
0.945377
0.86968
0.813484
0.376656
0.386591
1.25097
1.35809
0.700281
0.805054
1.17053
1.1547
1.06143
0.47681
0.33034
10.5703
10.7127
3.96746
1.26471
1.34609
1.40796
9.20499
10.2575
2.91451
2.17934
2.99551
2.25963
9.16062
3.0122
1.55795
1.7927
1.14391
1.12499
1.08291
1.06661
2.31873
3.26985
3.05311
2.8224
0.965069
0.0425958
-0.12572
-0.221591
-0.203397
1.26545
2.20616
2.40354
1.48064
0.383688
0.366306
0.504435
0.684354
0.430534
0.447088
5.09598
5.16583
3.79248
0.550982
0.483423
0.356281
0.303979
0.242672
0.362897
4.87189
4.95719
4.07261
2.3052
1.9251
5.02386
5.35151
5.515
5.02218
5.77057
3.8913
0.905335
1.39255
0.753411
0.453829
0.416407
0.372379
0.350534
0.69792
0.851463
0.81143
0.608159
0.407658
0.473403
1.39103
1.02081
0.821206
0.838481
1.14723
0.95978
0.440345
1.12713
10.739
10.6992
6.38481
1.1613
1.2615
1.3843
9.52639
5.45711
2.92544
3.50287
5.90746
2.3011
4.7424
2.31508
4.07914
4.15602
1.18134
1.16332
1.10175
1.28678
3.51439
3.29188
3.09523
2.79412
0.156301
-0.0821412
-0.291244
-0.380801
1.2932
1.91142
2.07208
2.35815
2.38468
0.929162
0.299178
0.572852
1.67801
0.762759
0.922315
5.06632
5.18787
0.534061
1.7309
2.04827
0.550494
0.295736
0.183867
0.160644
4.53767
2.56048
0.748049
0.586908
0.48685
0.94788
5.13545
3.7
1.20829
2.05664
1.5987
0.34514
0.436229
0.350308
0.336038
0.31276
0.284785
0.257353
0.236551
0.403411
0.788886
0.756972
0.433425
0.470487
0.602097
1.35763
1.35465
1.00366
0.853912
0.62859
0.449541
0.211347
10.2598
10.7484
10.4048
1.67466
1.26892
1.42946
9.54777
7.35758
3.05348
6.02014
5.99442
2.52941
2.29146
2.30282
2.9117
4.89837
3.15994
1.17165
1.09939
1.66972
3.53085
3.29721
3.08453
2.09412
0.0515118
-0.221961
-0.448955
0.773531
1.64272
1.72895
1.85391
2.4663
2.83122
0.655824
0.242771
0.310887
1.38473
3.6213
4.2601
4.95368
4.58345
0.33968
3.29305
3.44128
2.93972
2.14422
0.14302
0.266676
1.83692
0.980306
0.897296
0.721754
0.608236
0.6519
2.40711
2.07073
0.16207
0.0929535
0.177964
0.248605
0.258856
0.257876
0.243935
0.223054
0.200723
0.185119
0.183428
0.19868
0.275245
0.671426
0.631178
0.503023
0.558434
0.877885
1.5702
1.57593
1.35044
0.673428
0.478402
0.276725
1.50828
10.2355
10.3898
2.31199
1.42459
1.57312
8.23882
8.99098
3.33907
6.20214
6.14649
2.41884
2.72763
2.30556
2.72537
4.95914
4.0862
1.15351
1.06684
2.55995
3.54074
3.30321
3.05773
0.769896
-0.0238226
-0.357963
-0.384861
1.45444
1.42326
1.13086
0.186803
1.91138
4.04053
1.15742
0.200386
0.244005
0.220647
3.92181
4.28469
3.72211
0.596862
0.0942946
2.50414
3.61405
3.73003
3.72356
0.125586
0.445214
0.38519
1.08554
2.82616
3.90545
1.17979
0.874095
1.36557
2.35309
1.03102
0.0453989
0.139201
0.194146
0.201663
0.194007
0.174395
0.14831
0.123503
0.111679