/*--------------------------------*- C++ -*----------------------------------*\
| =========                 |                                                 |
| \\      /  F ield         | OpenFOAM: The Open Source CFD Toolbox           |
|  \\    /   O peration     | Version:  2412                                  |
|   \\  /    A nd           | Website:  www.openfoam.com                      |
|    \\/     M anipulation  |                                                 |
\*---------------------------------------------------------------------------*/
FoamFile
{
    version     2.0;
    format      ascii;
    arch        "LSB;label=32;scalar=64";
    class       volScalarField;
    location    "9.55";
    object      p_rgh;
}
// * * * * * * * * * * * * * * * * * * * * * * * * * * * * * * * * * * * * * //

dimensions      [1 -1 -2 0 0 0 0];

internalField   nonuniform List<scalar> 
6400
(
15792.7
15792.2
15791.3
15789.7
15787.3
15784.5
15781.5
15778.3
15775.1
15771.9
15769
15766.3
15764
15762
15760.5
15759.4
15758.7
15758.6
15758.9
15759.8
15761.2
15763.2
15765.7
15768.8
15772.3
15776.3
15780.7
15785.4
15790.4
15795.6
15800.8
15806.1
15811.2
15816
15820.5
15824.5
15827.9
15830.6
15832.6
15833.8
15834.2
15833.8
15832.5
15830.3
15827.4
15823.8
15819.5
15814.6
15809.4
15803.9
15798.1
15792.3
15786.6
15781
15775.7
15770.8
15766.3
15762.4
15759.1
15756.4
15754.4
15753.1
15752.4
15752.4
15753.1
15754.4
15756.3
15758.8
15761.8
15765.3
15769
15773
15777.1
15781.2
15785
15788.5
15791.5
15793.6
15794.7
15794.9
15792.6
15792.2
15791.4
15790
15788
15785.5
15782.8
15780
15777.1
15774.3
15771.7
15769.3
15767.1
15765.3
15763.8
15762.8
15762.1
15761.9
15762.1
15762.8
15764
15765.7
15767.8
15770.4
15773.5
15776.9
15780.7
15784.8
15789.2
15793.7
15798.3
15802.8
15807.3
15811.5
15815.4
15818.9
15821.9
15824.3
15826.1
15827.2
15827.6
15827.2
15826.1
15824.3
15821.8
15818.7
15814.9
15810.7
15806.1
15801.2
15796.2
15791
15786
15781
15776.3
15771.9
15768
15764.5
15761.6
15759.2
15757.4
15756.3
15755.8
15755.9
15756.6
15757.8
15759.7
15762
15764.8
15768
15771.5
15775.1
15778.9
15782.5
15786
15789.2
15791.8
15793.7
15794.7
15795
15793.7
15793.1
15792.4
15791
15789.2
15787
15784.5
15782
15779.4
15776.9
15774.5
15772.2
15770.2
15768.5
15767.1
15766
15765.3
15765
15765.1
15765.6
15766.5
15767.9
15769.6
15771.8
15774.4
15777.3
15780.6
15784
15787.8
15791.6
15795.5
15799.4
15803.2
15806.8
15810.1
15813.1
15815.7
15817.8
15819.3
15820.3
15820.7
15820.4
15819.5
15818
15815.9
15813.2
15810
15806.4
15802.5
15798.2
15793.9
15789.5
15785.1
15780.8
15776.7
15772.9
15769.5
15766.5
15764
15761.9
15760.4
15759.5
15759.2
15759.4
15760.1
15761.4
15763.1
15765.3
15767.9
15770.9
15774.1
15777.4
15780.9
15784.2
15787.4
15790.2
15792.6
15794.4
15795.5
15795.9
15795.6
15794.8
15793.8
15792.5
15790.7
15788.6
15786.3
15783.9
15781.4
15779.1
15776.8
15774.7
15772.8
15771.1
15769.7
15768.6
15767.9
15767.5
15767.4
15767.7
15768.4
15769.5
15770.9
15772.8
15774.9
15777.4
15780.1
15783.1
15786.3
15789.5
15792.9
15796.2
15799.5
15802.5
15805.4
15808
15810.2
15812
15813.3
15814.2
15814.5
15814.3
15813.6
15812.3
15810.5
15808.3
15805.6
15802.5
15799.1
15795.5
15791.7
15787.9
15784.1
15780.4
15776.8
15773.6
15770.6
15768
15765.9
15764.1
15762.9
15762.2
15761.9
15762.3
15763.1
15764.4
15766.1
15768.2
15770.6
15773.4
15776.4
15779.5
15782.7
15785.9
15788.8
15791.5
15793.9
15795.7
15796.9
15797.5
15798
15796.9
15795.7
15794.1
15792.3
15790.2
15788
15785.6
15783.3
15781
15778.9
15776.8
15775
15773.4
15772
15770.8
15770
15769.5
15769.3
15769.5
15769.9
15770.7
15771.9
15773.4
15775.1
15777.2
15779.5
15782
15784.7
15787.5
15790.3
15793.1
15795.9
15798.5
15801
15803.1
15805
15806.6
15807.7
15808.5
15808.8
15808.7
15808.1
15807.1
15805.6
15803.7
15801.4
15798.8
15795.9
15792.8
15789.5
15786.2
15782.9
15779.7
15776.7
15773.9
15771.4
15769.2
15767.4
15765.9
15765
15764.4
15764.3
15764.7
15765.6
15766.9
15768.6
15770.6
15773
15775.6
15778.5
15781.4
15784.5
15787.5
15790.4
15793
15795.4
15797.3
15798.8
15799.7
15800.8
15799.3
15797.8
15796
15794
15791.9
15789.6
15787.3
15785
15782.8
15780.7
15778.7
15776.9
15775.3
15773.9
15772.7
15771.8
15771.2
15770.9
15770.8
15771.1
15771.7
15772.5
15773.7
15775.1
15776.8
15778.7
15780.8
15783
15785.3
15787.7
15790.1
15792.4
15794.6
15796.7
15798.5
15800.1
15801.4
15802.4
15803.1
15803.4
15803.3
15802.9
15802.1
15800.8
15799.3
15797.4
15795.2
15792.8
15790.1
15787.4
15784.5
15781.7
15779
15776.4
15774
15771.8
15770
15768.5
15767.4
15766.7
15766.4
15766.4
15766.9
15767.8
15769.1
15770.8
15772.8
15775.1
15777.6
15780.4
15783.2
15786.2
15789.1
15792
15794.7
15797.1
15799.2
15801
15802.3
15803.8
15802
15800
15798
15795.8
15793.6
15791.2
15788.9
15786.6
15784.4
15782.3
15780.3
15778.5
15776.9
15775.5
15774.2
15773.3
15772.5
15772.1
15771.9
15772
15772.3
15772.9
15773.8
15774.9
15776.2
15777.7
15779.4
15781.2
15783.1
15785.1
15787.1
15789
15790.8
15792.5
15794
15795.3
15796.4
15797.2
15797.8
15798.1
15798.1
15797.8
15797.2
15796.3
15795
15793.5
15791.7
15789.7
15787.5
15785.2
15782.8
15780.4
15778.1
15775.9
15773.9
15772.1
15770.6
15769.5
15768.6
15768.1
15768
15768.2
15768.8
15769.7
15771.1
15772.7
15774.7
15777
15779.4
15782.1
15784.9
15787.8
15790.7
15793.6
15796.4
15798.9
15801.3
15803.4
15805.2
15807
15804.7
15802.4
15800
15797.6
15795.2
15792.7
15790.3
15788
15785.8
15783.6
15781.6
15779.8
15778.2
15776.8
15775.5
15774.5
15773.6
15773
15772.7
15772.6
15772.7
15773.1
15773.7
15774.5
15775.4
15776.6
15777.9
15779.4
15780.9
15782.5
15784.1
15785.6
15787.1
15788.5
15789.7
15790.7
15791.5
15792.2
15792.6
15792.9
15793
15792.9
15792.5
15791.9
15790.9
15789.7
15788.2
15786.6
15784.8
15782.9
15780.9
15779
15777.1
15775.3
15773.7
15772.3
15771.1
15770.2
15769.6
15769.3
15769.3
15769.7
15770.4
15771.4
15772.8
15774.4
15776.4
15778.6
15781
15783.6
15786.4
15789.2
15792.2
15795.1
15798
15800.8
15803.5
15806
15808.2
15810.2
15807.5
15804.7
15802
15799.3
15796.7
15794.1
15791.6
15789.2
15786.9
15784.8
15782.8
15780.9
15779.3
15777.8
15776.5
15775.4
15774.5
15773.8
15773.3
15773
15772.9
15773
15773.3
15773.8
15774.5
15775.4
15776.3
15777.4
15778.6
15779.9
15781.1
15782.3
15783.5
15784.5
15785.4
15786.1
15786.7
15787.2
15787.5
15787.8
15787.9
15788
15787.9
15787.5
15786.9
15786
15784.8
15783.5
15782.1
15780.6
15779
15777.4
15775.9
15774.5
15773.3
15772.2
15771.3
15770.7
15770.3
15770.2
15770.4
15771
15771.7
15772.8
15774.2
15775.8
15777.8
15779.9
15782.3
15784.9
15787.7
15790.6
15793.5
15796.6
15799.6
15802.7
15805.6
15808.6
15811.2
15813.4
15810.2
15807
15803.9
15800.9
15798
15795.2
15792.6
15790.1
15787.8
15785.6
15783.6
15781.8
15780.1
15778.6
15777.2
15776.1
15775.1
15774.3
15773.6
15773.2
15772.9
15772.8
15772.9
15773.1
15773.5
15774
15774.7
15775.4
15776.3
15777.2
15778.2
15779.1
15779.9
15780.7
15781.2
15781.6
15781.9
15782.1
15782.3
15782.6
15782.8
15783.1
15783.2
15783.2
15782.9
15782.3
15781.5
15780.5
15779.4
15778.2
15777
15775.8
15774.6
15773.6
15772.7
15771.9
15771.4
15771
15770.8
15770.9
15771.3
15772
15772.9
15774
15775.4
15777.1
15779
15781.1
15783.5
15786
15788.8
15791.6
15794.7
15797.8
15801.1
15804.4
15807.7
15811.2
15814.3
15816.6
15812.9
15809.1
15805.5
15802.2
15799
15796.1
15793.3
15790.8
15788.4
15786.3
15784.3
15782.4
15780.7
15779.2
15777.8
15776.6
15775.5
15774.6
15773.8
15773.2
15772.7
15772.4
15772.3
15772.2
15772.3
15772.6
15772.9
15773.4
15773.9
15774.6
15775.2
15775.9
15776.5
15776.9
15777
15777
15777
15776.9
15777
15777.2
15777.6
15778.1
15778.6
15778.9
15779
15778.7
15778.2
15777.5
15776.6
15775.8
15774.9
15774
15773.2
15772.5
15772
15771.5
15771.3
15771.2
15771.2
15771.5
15772
15772.8
15773.7
15775
15776.4
15778.1
15779.9
15782
15784.3
15786.9
15789.6
15792.5
15795.6
15798.9
15802.4
15806
15809.7
15813.7
15817.3
15819.7
15815.3
15810.9
15806.9
15803.2
15799.8
15796.6
15793.8
15791.2
15788.8
15786.7
15784.7
15782.8
15781.1
15779.6
15778.2
15776.9
15775.8
15774.7
15773.9
15773.1
15772.4
15771.9
15771.5
15771.2
15771.1
15771
15771
15771.2
15771.5
15771.9
15772.3
15772.7
15773.1
15773.2
15773
15772.5
15771.9
15771.4
15771.3
15771.5
15772.1
15772.9
15773.9
15774.7
15775.2
15775.2
15775
15774.5
15773.9
15773.3
15772.7
15772.2
15771.8
15771.4
15771.1
15771
15771
15771.2
15771.5
15771.9
15772.6
15773.4
15774.5
15775.7
15777.2
15778.8
15780.7
15782.7
15785
15787.4
15790.1
15793
15796.2
15799.6
15803.4
15807.3
15811.5
15816.1
15820.3
15822.7
15817.6
15812.5
15807.9
15803.8
15800.1
15796.8
15793.9
15791.3
15788.9
15786.8
15784.8
15783
15781.4
15779.8
15778.4
15777.1
15775.9
15774.8
15773.8
15772.9
15772.1
15771.3
15770.7
15770.2
15769.7
15769.3
15769.1
15769
15769
15769.1
15769.4
15769.7
15769.8
15769.7
15769
15767.9
15766.6
15765.6
15765.1
15765.3
15766.2
15767.6
15769.2
15770.6
15771.6
15771.9
15771.7
15771.4
15771
15770.7
15770.4
15770.3
15770.2
15770.2
15770.2
15770.4
15770.6
15771
15771.6
15772.2
15773
15773.9
15775
15776.3
15777.8
15779.4
15781.2
15783.2
15785.3
15787.7
15790.3
15793.2
15796.4
15800
15803.9
15808.3
15813
15818.3
15823.2
15825.6
15819.7
15813.6
15808.4
15803.9
15799.9
15796.5
15793.6
15791
15788.7
15786.6
15784.8
15783
15781.4
15779.9
15778.5
15777.2
15775.9
15774.7
15773.6
15772.6
15771.6
15770.7
15769.8
15769
15768.3
15767.6
15767.1
15766.6
15766.4
15766.3
15766.4
15766.7
15766.9
15766.6
15765.4
15763.3
15761
15759.2
15758.3
15758.5
15759.8
15761.9
15764.5
15766.9
15768.4
15768.8
15768.7
15768.3
15768.1
15768
15768
15768.2
15768.5
15768.8
15769.2
15769.7
15770.2
15770.8
15771.6
15772.4
15773.3
15774.3
15775.5
15776.8
15778.2
15779.8
15781.5
15783.4
15785.5
15787.7
15790.2
15793
15796.2
15799.8
15804
15808.7
15814.1
15820.3
15826.2
15828.5
15821.4
15814.1
15808.1
15803.2
15799.1
15795.6
15792.8
15790.3
15788.2
15786.2
15784.5
15782.9
15781.3
15779.9
15778.5
15777.2
15775.9
15774.6
15773.4
15772.3
15771.1
15770
15768.9
15767.9
15766.8
15765.8
15764.9
15764.2
15763.6
15763.3
15763.4
15763.8
15764.3
15764.1
15762.4
15759
15755.3
15752.5
15750.9
15751.1
15752.9
15756.1
15760
15763.7
15765.8
15766.1
15765.7
15765.2
15765
15765.1
15765.5
15766
15766.7
15767.4
15768.2
15768.9
15769.7
15770.6
15771.5
15772.5
15773.5
15774.7
15775.9
15777.2
15778.6
15780.1
15781.7
15783.4
15785.3
15787.4
15789.7
15792.4
15795.5
15799.1
15803.4
15808.5
15814.6
15822
15829.1
15831.3
15822.5
15813.7
15806.9
15801.6
15797.4
15794.1
15791.4
15789.2
15787.3
15785.6
15784
15782.5
15781.1
15779.7
15778.4
15777.1
15775.8
15774.5
15773.2
15771.9
15770.7
15769.4
15768.1
15766.7
15765.4
15764
15762.7
15761.5
15760.5
15760
15760.1
15760.9
15762.1
15762.6
15760.3
15754.8
15748.8
15744.1
15741.5
15741.6
15744.4
15749.4
15755.6
15761.4
15764.2
15763.8
15762.6
15761.8
15761.5
15761.9
15762.7
15763.7
15764.8
15766
15767.1
15768.2
15769.3
15770.3
15771.4
15772.6
15773.7
15774.9
15776.1
15777.4
15778.8
15780.2
15781.7
15783.2
15784.9
15786.7
15788.8
15791.2
15794
15797.5
15801.8
15807.2
15814.2
15823.1
15831.9
15834.1
15823
15812.1
15804.4
15798.9
15794.9
15791.9
15789.6
15787.8
15786.2
15784.8
15783.4
15782.2
15780.9
15779.6
15778.3
15777.1
15775.7
15774.4
15773.1
15771.7
15770.3
15768.8
15767.2
15765.6
15763.9
15762.1
15760.3
15758.5
15757.1
15756.2
15756.4
15758.1
15761.6
15764.6
15761.6
15750.1
15737.4
15727.5
15721.9
15721.9
15727.6
15737.6
15750.5
15762.5
15766.2
15763.4
15759.9
15758
15757.7
15758.4
15759.6
15761.2
15762.9
15764.5
15766
15767.4
15768.8
15770.1
15771.4
15772.6
15773.9
15775.2
15776.4
15777.7
15779
15780.3
15781.6
15783
15784.4
15785.9
15787.6
15789.6
15792
15795.1
15799.2
15804.8
15812.6
15823.7
15834.9
15839.4
15823.6
15809.5
15800.8
15795.5
15792
15789.6
15787.9
15786.6
15785.4
15784.3
15783.2
15782.1
15780.9
15779.7
15778.4
15777.1
15775.7
15774.3
15772.9
15771.3
15769.7
15768
15766.3
15764.4
15762.3
15760.1
15757.7
15755.3
15753.2
15751.9
15752.4
15756.4
15766.4
15778.4
15774.8
15747.1
15718.9
15700.9
15692.1
15692.3
15701
15718.6
15746.6
15775.3
15780.3
15768.5
15758.2
15753.7
15753.1
15754.3
15756.3
15758.5
15760.8
15762.8
15764.8
15766.5
15768.2
15769.7
15771.2
15772.7
15774.1
15775.5
15776.8
15778.1
15779.4
15780.6
15781.8
15783
15784.2
15785.3
15786.6
15788
15789.8
15792.3
15795.8
15801.3
15810
15824.4
15840.3
15843.5
15817.1
15800.5
15792.8
15789
15787
15786
15785.3
15784.8
15784.2
15783.5
15782.8
15781.8
15780.8
15779.6
15778.4
15777
15775.6
15774.1
15772.6
15770.9
15769.2
15767.4
15765.4
15763.3
15761
15758.3
15755.1
15751.6
15748.1
15745
15744
15748.9
15766.8
15793.2
15793.1
15756.9
15719.5
15602.9
15495.4
15491.5
15596.7
15716.1
15757.1
15794
15796.1
15769.9
15750.9
15745.3
15746.1
15749
15752.5
15755.9
15758.9
15761.5
15763.7
15765.7
15767.6
15769.4
15771.1
15772.7
15774.2
15775.7
15777.1
15778.4
15779.7
15780.8
15781.9
15782.8
15783.7
15784.4
15785
15785.6
15786.3
15787.4
15789.4
15793.3
15801.1
15817.9
15844.6
15792.3
15769.3
15764.3
15765.1
15767
15769.2
15771.2
15773
15774.4
15775.5
15776.3
15776.9
15777.3
15777.5
15777.6
15777.5
15777.2
15776.8
15776.2
15775.4
15774.4
15773.2
15771.6
15769.7
15767.2
15764
15748.8
15707.1
15631.9
15516
15349.4
15117.5
14798.9
14352.1
13549.3
12266.8
10593.6
8986.46
7687.88
7062.6
7043.19
7637.54
8883.84
10498
12182.7
13493.4
14324.5
14780.9
15105.2
15341.1
15510.6
15628.7
15705.6
15748.7
15764.4
15767.6
15770
15772
15773.6
15774.8
15775.8
15776.6
15777.1
15777.6
15777.8
15778
15777.9
15777.7
15777.3
15776.7
15775.9
15774.8
15773.4
15771.7
15769.6
15767.5
15765.5
15764.7
15769.8
15793
498.132
749.001
933.526
1085.34
1207.84
1309.17
1395.35
1470.44
1537.33
1598.12
1654.31
1706.93
1756.6
1803.59
1847.82
1888.93
1926.21
1958.64
1984.88
2003.2
2011.45
2007.16
1987.27
1948.19
1885.67
1794.7
1681.53
1553.72
1408.89
1242.14
1046.68
814.389
538.492
207.295
0.00704462
49.13
281.514
674.952
1015.39
1111.67
1123.86
1037.24
665.584
298.343
57.6578
-0.00550653
190.897
526.107
805.176
1040.28
1238.12
1406.93
1553.51
1682.8
1797.76
1890.54
1954.54
1994.77
2015.57
2020.56
2012.84
1994.89
1968.91
1936.63
1899.41
1858.3
1814.01
1766.91
1717.08
1664.25
1607.8
1546.71
1479.45
1403.94
1317.23
1215.25
1091.95
939.129
753.348
500.978
-0.000544869
-0.000527624
-0.000505519
-0.000482453
-0.000458372
-0.000439256
-0.00042692
-0.000424581
-0.000434068
-0.000459036
-0.000501314
-0.000565516
-0.000653627
-0.000770833
-0.000922444
-0.00113008
-0.00144544
-0.00190903
-0.00251125
-0.00350434
-0.00495815
-0.00721231
-0.0106326
-0.0134215
-0.0142264
-0.0129366
-0.0106339
-0.0093933
-0.00878182
-0.00530991
0.0110289
0.0330372
0.0178522
0.024941
0.0139727
0.0316154
1172.15
4866.73
7037.52
7061.02
7067.22
7083.2
5089.36
1324.31
0.00984484
-0.00115485
0.0103531
0.0116555
0.0492497
0.0665566
0.023995
-0.00482451
-0.0067796
-0.00769216
-0.0102618
-0.0107652
-0.00846211
-0.00548406
-0.00275096
-0.000915775
6.3757e-05
0.000575418
0.000898094
0.00108348
0.00118453
0.00123454
0.00125368
0.00125802
0.00125095
0.00123804
0.00121918
0.00119666
0.00116966
0.00113946
0.0011056
0.00106946
0.0010317
0.000998028
0.000970582
0.000968308
-0.000542404
-0.000542047
-0.000543067
-0.00054361
-0.000545459
-0.000549951
-0.000558796
-0.000574326
-0.000599343
-0.000637283
-0.000692512
-0.000770821
-0.000879738
-0.00102868
-0.00122862
-0.00148981
-0.00181238
-0.00228832
-0.00296392
-0.00393567
-0.00542192
-0.00742807
-0.00955946
-0.0112229
-0.0121033
-0.0116214
-0.0100026
-0.00841539
-0.00806264
-0.00752985
0.00340513
0.0541855
0.0789232
0.0481687
0.0167379
-0.00933745
567.65
5613.13
7344.02
7368.44
7368.4
7347.12
6058.49
721.447
0.0034863
-0.00366416
0.0343571
0.0897289
0.0976273
0.0577501
0.00339946
-0.00413541
-0.00479454
-0.00577917
-0.00839169
-0.00930603
-0.00811496
-0.00592017
-0.00363002
-0.00169023
-0.000429714
0.000235498
0.000597082
0.00078558
0.00092264
0.00100392
0.00104595
0.00106289
0.00106477
0.00105845
0.00104801
0.00103572
0.0010227
0.00100968
0.000997281
0.000986094
0.000976607
0.000969511
0.000966257
0.000963538
-0.000535393
-0.0005281
-0.000524598
-0.000525783
-0.00052541
-0.000527393
-0.000533221
-0.000545194
-0.00056574
-0.000597399
-0.000642787
-0.000704726
-0.000786543
-0.000893231
-0.00103366
-0.00122676
-0.00152805
-0.00199561
-0.00265307
-0.00367478
-0.00541111
-0.0080531
-0.0113988
-0.0137407
-0.01426
-0.013264
-0.0114768
-0.0101601
-0.00890573
-0.00482059
0.0433461
0.278788
0.353856
0.357751
0.120692
0.000660399
-0.0197722
663.915
7550.9
7594.36
7595.75
7558.57
922.549
0.0103076
0.00853463
0.0109841
0.2744
0.335878
0.33195
0.315929
0.0538996
-0.00747693
-0.00738937
-0.00908126
-0.0111595
-0.0111022
-0.008703
-0.00634402
-0.00383051
-0.00155516
-0.00017658
0.000483978
0.000844058
0.00101445
0.00108827
0.00111861
0.00112469
0.00111841
0.0011065
0.00109222
0.00107694
0.00106122
0.00104541
0.00102987
0.0010151
0.0010018
0.000990437
0.000984143
0.000976877
0.000968606
-0.000530078
-0.000523706
-0.000519221
-0.000515271
-0.000511611
-0.000510322
-0.000512732
-0.000520654
-0.000536077
-0.000561093
-0.000597968
-0.000649587
-0.000720498
-0.000818904
-0.00095752
-0.00115243
-0.00142116
-0.00172078
-0.00222959
-0.00320294
-0.00506739
-0.00756185
-0.0107094
-0.0141894
-0.0159447
-0.0150117
-0.0127643
-0.011714
-0.0113981
0.034892
0.059838
0.0556651
0.0322168
0.0165165
0.0138678
0.00711951
0.0130505
71.2719
3181.78
4198.27
4288.06
3529.75
134.545
0.0139168
0.0117197
0.0178244
0.0161933
0.0293174
0.0947217
0.174981
0.135012
0.00481918
-0.010454
-0.0112608
-0.0124813
-0.0119581
-0.00977221
-0.00627091
-0.00238421
-0.000479027
0.000346986
0.000754334
0.000902131
0.00104516
0.00112208
0.00115489
0.00116058
0.00115124
0.00113507
0.00111646
0.00109732
0.0010783
0.00105966
0.00104168
0.00102479
0.00100953
0.000996108
0.000985635
0.000977084
0.000968295
-0.000515423
-0.000514365
-0.000510238
-0.000505372
-0.000500301
-0.000496661
-0.000495936
-0.000499692
-0.000509426
-0.000526466
-0.000551933
-0.000586834
-0.000632283
-0.000689575
-0.000760113
-0.000848782
-0.000974578
-0.00116217
-0.00144221
-0.00213984
-0.00407175
-0.00575736
-0.00691747
-0.0105364
-0.0142895
-0.0146186
-0.0133535
-0.0143361
-0.0190744
-0.0185621
-0.0104697
-0.00251868
0.00317707
0.00924227
0.0227737
0.0436387
0.0220366
6.85414
0.0287273
0.0358051
0.034555
0.0229636
3.89688
0.00919253
0.00965676
0.0147685
0.0191599
0.0194444
0.00977082
-0.00883629
-0.0228401
-0.0233008
-0.0175663
-0.012928
-0.00770379
0.010477
0.0119782
0.0156
0.0029796
-0.000162986
0.000947088
0.00120331
0.00123208
0.00125016
0.00124838
0.00123051
0.0012072
0.00118177
0.00115607
0.00113138
0.00110802
0.00108589
0.00106481
0.0010448
0.00102619
0.00100953
0.000995421
0.000984582
0.000976622
0.000973237
-0.000509697
-0.000508035
-0.000503504
-0.000497741
-0.000491401
-0.000485835
-0.000482378
-0.000482271
-0.000486476
-0.000495492
-0.000509192
-0.000526687
-0.000546208
-0.000565184
-0.000580178
-0.000588175
-0.000595999
-0.000590978
-0.000548642
-0.00103337
-0.00206255
-0.00210136
-0.00348983
-0.00768355
-0.0126722
-0.0159161
-0.016594
-0.0157088
-0.0174535
-0.017446
-0.0130901
-0.00842817
-0.00652067
-0.00590831
0.0276161
0.055752
0.0412745
0.0291845
0.035081
0.0330621
0.0314719
0.034042
0.0248621
-0.00359219
0.00527448
0.0101896
0.0100234
0.00607647
-0.00121506
-0.00769412
-0.00936112
-0.00737723
-0.00856413
-0.00803035
-0.00703807
-0.00641796
0.00953398
0.0135552
0.000702665
9.46914e-05
0.00119835
0.00136078
0.00136436
0.00135289
0.00131838
0.00127669
0.00123624
0.00119907
0.00116585
0.0011363
0.00110971
0.00108534
0.00106267
0.00104149
0.00102196
0.00100456
0.000989945
0.000978812
0.000971084
0.000967976
-0.000506751
-0.000504563
-0.000499708
-0.000493233
-0.000485943
-0.000478947
-0.00047336
-0.000470107
-0.000469683
-0.000471896
-0.000475617
-0.000478537
-0.000476893
-0.000465235
-0.000435787
-0.000378014
-0.000288177
-0.000136381
0.000114911
-0.000176826
1.88577e-05
-0.000868181
-0.00295248
-0.00919141
-0.0172593
-0.0257336
-0.0316947
-0.034381
-0.0314328
-0.0248555
-0.0168622
-0.0104054
-0.0090671
-0.0144292
-0.0160655
-0.0051541
0.016433
0.0246532
0.0271746
0.0287705
0.0264945
0.0218719
0.0158318
0.010782
0.00976438
0.00850836
0.0058234
0.00208419
-0.00309705
-0.00998436
-0.0176097
-0.0224827
-0.0242847
-0.0214906
-0.0149618
-0.00733613
-0.000251172
0.00425098
0.00113376
0.000247614
0.00132784
0.00146008
0.00143552
0.0013986
0.00134511
0.00129115
0.0012422
0.00119923
0.00116217
0.00113009
0.00110182
0.0010763
0.00105285
0.0010312
0.00101142
0.000993877
0.000979147
0.000967896
0.00096036
0.000957075
-0.000506235
-0.000504071
-0.000499205
-0.0004925
-0.000484798
-0.000477059
-0.000470214
-0.000464947
-0.000461443
-0.000459093
-0.000456208
-0.000449753
-0.000435096
-0.000405782
-0.000353225
-0.000266032
-0.000139358
3.32582e-05
0.000307736
0.000194555
-2.84091e-05
-0.00176217
-0.00487143
-0.0126095
-0.0238772
-0.0371873
-0.0459144
-0.047188
-0.0413373
-0.0312161
-0.0206258
-0.0122859
-0.00720248
-0.00446107
-0.00235583
-2.35882e-05
0.00559875
0.0132331
0.0168918
0.0194859
0.0192149
0.0167297
0.0145932
0.0120232
0.00901204
0.00621507
0.00312517
-0.000622173
-0.0062389
-0.0145058
-0.0246396
-0.0340238
-0.0386362
-0.0357278
-0.0240389
-0.010474
-0.00367209
-0.000934023
0.000123347
0.000465575
0.00124353
0.00140853
0.00140689
0.00137601
0.00132487
0.00127165
0.00122282
0.00117997
0.00114312
0.00111132
0.00108337
0.00105818
0.00103506
0.00101375
0.000994384
0.000977291
0.000962967
0.000952027
0.000944893
0.000941863
-0.000508374
-0.000506359
-0.000501742
-0.000495266
-0.000487742
-0.000480043
-0.000472982
-0.000467111
-0.00046248
-0.000458374
-0.000453047
-0.000443522
-0.0004255
-0.000393467
-0.000341181
-0.000262471
-0.000156715
-4.56033e-05
6.81177e-05
7.24587e-06
-0.00123384
-0.00276154
-0.00775252
-0.0146935
-0.0283628
-0.0427429
-0.0516294
-0.0515653
-0.044004
-0.0326093
-0.0217259
-0.0135824
-0.00790124
-0.00321614
0.000457361
0.00227248
0.00362621
0.00611473
0.00920185
0.012285
0.0138024
0.013308
0.0112793
0.00925598
0.00697223
0.00441949
0.00132382
-0.00255326
-0.00847908
-0.017524
-0.0295669
-0.0416344
-0.0481722
-0.0455256
-0.0316676
-0.0142791
-0.00445748
-0.00204515
-0.000879768
0.000287029
0.00100988
0.00123061
0.00129032
0.00128992
0.00125886
0.0012187
0.00117842
0.00114152
0.00110894
0.0010803
0.00105475
0.00103146
0.00100989
0.000989863
0.000971602
0.000955513
0.000942067
0.000931818
0.000925239
0.000922547
-0.000512996
-0.0005112
-0.000507053
-0.000501198
-0.000494408
-0.000487503
-0.000481255
-0.000476201
-0.00047243
-0.000469389
-0.000465704
-0.000459104
-0.000446535
-0.000424677
-0.000391081
-0.000346527
-0.000299661
-0.000280233
-0.00036116
-0.000671222
-0.00188465
-0.00486017
-0.00827102
-0.0155594
-0.0276196
-0.0403584
-0.0479641
-0.0476608
-0.04065
-0.0301927
-0.0204011
-0.013035
-0.00791388
-0.00430512
-0.00166627
0.000208689
0.00159199
0.00328082
0.00566671
0.00823591
0.0101777
0.0111027
0.0095203
0.00769327
0.00539845
0.00296273
5.94582e-05
-0.00361299
-0.0090674
-0.0174789
-0.0290792
-0.0412392
-0.0489423
-0.0457448
-0.032195
-0.01521
-0.00526926
-0.00253954
-0.00123044
1.98667e-05
0.000714116
0.00100209
0.00112173
0.00116032
0.00115839
0.00113884
0.00111313
0.0010867
0.00106172
0.00103868
0.00101735
0.000997339
0.000978385
0.000960505
0.000944017
0.000929424
0.000917235
0.000907965
0.000902072
0.000899742
-0.000519711
-0.000518244
-0.000514771
-0.000509885
-0.000504322
-0.000498882
-0.000494357
-0.000491363
-0.000490173
-0.000490574
-0.000491814
-0.000492672
-0.000491757
-0.000488304
-0.000483743
-0.000484434
-0.000506884
-0.000587765
-0.000803436
-0.00131948
-0.00243424
-0.0049717
-0.00921423
-0.0149504
-0.0233146
-0.0318076
-0.036943
-0.0369961
-0.0322895
-0.024857
-0.0177036
-0.0121447
-0.00803756
-0.00486104
-0.00229728
-0.000379673
0.0010762
0.00271368
0.00465232
0.0064611
0.00780921
0.00914901
0.0078501
0.00620485
0.00421291
0.00214948
-0.000321012
-0.0034023
-0.00772227
-0.0141421
-0.0229974
-0.0322816
-0.0373709
-0.0350873
-0.0251022
-0.0130664
-0.00566336
-0.00298604
-0.00136307
-0.000202453
0.000441051
0.000769703
0.000933557
0.00100969
0.00103802
0.00104157
0.00103323
0.00101976
0.00100447
0.000988702
0.000972907
0.000957197
0.000941692
0.000926644
0.000912492
0.000899823
0.000889205
0.000881141
0.000876071
0.00087416
-0.000528021
-0.000526976
-0.000524348
-0.000520707
-0.00051677
-0.000513337
-0.000511251
-0.000511266
-0.000513917
-0.000519426
-0.000527739
-0.000538722
-0.000552585
-0.000570739
-0.000597697
-0.000643442
-0.000727068
-0.000888097
-0.00119394
-0.00175991
-0.00284137
-0.00473084
-0.00790516
-0.0125376
-0.0177185
-0.0225215
-0.0256027
-0.0259791
-0.0233901
-0.0190092
-0.0144908
-0.0106733
-0.00759041
-0.00504669
-0.00287905
-0.00103098
0.000598049
0.00223329
0.00389454
0.00531524
0.0062521
0.0069808
0.00661842
0.0051175
0.00347905
0.00173247
-0.000308033
-0.00276181
-0.00592577
-0.0102116
-0.0157494
-0.0211843
-0.0237084
-0.0218064
-0.0160436
-0.00956941
-0.00523106
-0.00282812
-0.00131668
-0.000351737
0.000222665
0.000560643
0.000750906
0.000856473
0.00091107
0.000936412
0.000945417
0.000945484
0.000940636
0.000932931
0.000923399
0.00091263
0.000901117
0.000889369
0.000877965
0.000867553
0.000858752
0.000852069
0.000847926
0.000846475
-0.000537326
-0.000536765
-0.000535097
-0.000532889
-0.000530852
-0.000529795
-0.000530621
-0.000534231
-0.000541437
-0.000552898
-0.000569213
-0.000591171
-0.000620277
-0.000659264
-0.000714636
-0.000798094
-0.000926635
-0.00113803
-0.00148721
-0.00205785
-0.00298831
-0.00444437
-0.0065651
-0.00939137
-0.0126376
-0.0155992
-0.0175192
-0.0180701
-0.0169046
-0.0145662
-0.0118307
-0.00922038
-0.00689144
-0.00483004
-0.00299936
-0.00136803
0.000129726
0.00159987
0.00304282
0.00424013
0.0049977
0.0053877
0.00537563
0.0042074
0.00293678
0.00151859
-0.000121217
-0.00204844
-0.00435495
-0.00714477
-0.0103136
-0.0130461
-0.0140499
-0.0127635
-0.00978659
-0.0065531
-0.00408258
-0.00238231
-0.00122379
-0.000446077
6.45907e-05
0.000389458
0.00058902
0.000713736
0.000787999
0.000831449
0.000855827
0.000868481
0.000873716
0.000874038
0.000870916
0.000865324
0.000858058
0.000849858
0.000841436
0.000833494
0.000826673
0.000821481
0.000818326
0.000817351
-0.000546954
-0.000546919
-0.000546269
-0.0005456
-0.000545608
-0.00054711
-0.000551064
-0.000558495
-0.000570462
-0.000587972
-0.000612167
-0.000644462
-0.000687397
-0.000743803
-0.000821665
-0.000931517
-0.00109132
-0.00132876
-0.00168494
-0.00221705
-0.00299671
-0.00410265
-0.00559856
-0.00746869
-0.009542
-0.0114496
-0.0127404
-0.0132126
-0.012686
-0.0113802
-0.0096566
-0.0078322
-0.00607337
-0.00443578
-0.00292847
-0.00154312
-0.000247898
0.00101359
0.00225027
0.00328883
0.00394384
0.00420701
0.00425865
0.0034255
0.00248665
0.00137404
8.39995e-05
-0.00141189
-0.00311617
-0.0049957
-0.0068671
-0.00828144
-0.00871056
-0.00798627
-0.00638316
-0.0046096
-0.00310403
-0.00195631
-0.00110274
-0.000482126
-4.40352e-05
0.000255615
0.000456059
0.000589074
0.000675763
0.000732641
0.000769298
0.000792637
0.000806784
0.000814475
0.000817422
0.000816874
0.000813846
0.000809241
0.000803874
0.000798483
0.000793712
0.000790058
0.00078791
0.000787403
-0.000556231
-0.000556769
-0.000557122
-0.000558023
-0.000560106
-0.000564188
-0.000571257
-0.000582411
-0.000598912
-0.000622019
-0.000653184
-0.000694232
-0.000748041
-0.000818493
-0.000912137
-0.0010388
-0.00121349
-0.00145715
-0.00179834
-0.00227355
-0.00292569
-0.00379089
-0.00489125
-0.00619989
-0.00760013
-0.0088895
-0.00987604
-0.0100918
-0.00979591
-0.00900585
-0.00787545
-0.0065831
-0.00525653
-0.00396464
-0.00273941
-0.00159036
-0.000502667
0.000556006
0.00159755
0.0024928
0.0030754
0.00327953
0.00327122
0.00274003
0.00208996
0.00123516
0.00024189
-0.00090176
-0.00216191
-0.00346342
-0.00464987
-0.00548142
-0.00573731
-0.00535551
-0.00446852
-0.00341401
-0.00243359
-0.00162002
-0.000973057
-0.000476501
-0.000107874
0.000159873
0.000350337
0.000484537
0.000578276
0.00064367
0.000689137
0.000720807
0.000742248
0.000756255
0.000764586
0.000768669
0.000769648
0.000768512
0.000766134
0.000763263
0.000760525
0.000758391
0.000757224
0.000757162
-0.000564588
-0.0005657
-0.000566998
-0.000569434
-0.000573522
-0.000580075
-0.000590064
-0.000604639
-0.000625123
-0.000652987
-0.000689842
-0.000737726
-0.000799508
-0.000879053
-0.00098203
-0.00111663
-0.0012943
-0.0015305
-0.00184452
-0.00225886
-0.00279743
-0.00347641
-0.00429498
-0.00522013
-0.00617114
-0.00702121
-0.00763773
-0.00785763
-0.00770081
-0.00719688
-0.00642731
-0.00549635
-0.00449326
-0.00348057
-0.0024971
-0.00156154
-0.000668735
0.000204932
0.00107641
0.00184367
0.00235988
0.00250584
0.00241815
0.00212292
0.00172083
0.00107542
0.000324508
-0.000540653
-0.0014715
-0.00239017
-0.00318377
-0.00372032
-0.00389765
-0.00369863
-0.00319932
-0.00255885
-0.00191022
-0.00132766
-0.000837475
-0.000443161
-0.000136511
9.69583e-05
0.000271446
0.0004008
0.000495999
0.000565996
0.000617313
0.000654782
0.000681804
0.000700863
0.00071369
0.00072182
0.000726418
0.000728489
0.00072892
0.00072844
0.000727642
0.000726956
0.000726704
0.000727057
-0.000571642
-0.000573186
-0.000575396
-0.000579254
-0.000585215
-0.000594019
-0.000606619
-0.000624141
-0.000647913
-0.000679455
-0.000720482
-0.000773008
-0.000839724
-0.000924071
-0.00103078
-0.00116623
-0.00133887
-0.00155941
-0.00184028
-0.0021945
-0.00263357
-0.00316219
-0.003772
-0.00443384
-0.00509217
-0.00566638
-0.00607358
-0.00623894
-0.00614358
-0.00580222
-0.0052592
-0.00457611
-0.00381309
-0.00302072
-0.0022372
-0.00148482
-0.000762528
-4.91066e-05
0.000674469
0.00132443
0.00177058
0.00184065
0.00169109
0.00156712
0.00136997
0.0008959
0.000337398
-0.000309273
-0.000993235
-0.00164852
-0.00219842
-0.00256801
-0.00270574
-0.0026077
-0.00231526
-0.00191434
-0.0014812
-0.00106765
-0.000701098
-0.00039198
-0.000140358
5.95532e-05
0.00021564
0.000336326
0.000429043
0.000500094
0.000554299
0.000595434
0.000626384
0.000649206
0.000665594
0.000677134
0.000684859
0.000689777
0.000692754
0.000694469
0.000695454
0.0006961
0.000696648
0.000697411
-0.000577102
-0.000578915
-0.000581975
-0.000587122
-0.000594753
-0.000605525
-0.000620315
-0.000640208
-0.000666468
-0.000700577
-0.000744211
-0.000799281
-0.000868167
-0.000953782
-0.00105987
-0.00119115
-0.00135354