/*--------------------------------*- C++ -*----------------------------------*\
| =========                 |                                                 |
| \\      /  F ield         | OpenFOAM: The Open Source CFD Toolbox           |
|  \\    /   O peration     | Version:  2412                                  |
|   \\  /    A nd           | Website:  www.openfoam.com                      |
|    \\/     M anipulation  |                                                 |
\*---------------------------------------------------------------------------*/
FoamFile
{
    version     2.0;
    format      ascii;
    arch        "LSB;label=32;scalar=64";
    class       surfaceScalarField;
    location    "7.35";
    object      phi;
}
// * * * * * * * * * * * * * * * * * * * * * * * * * * * * * * * * * * * * * //

dimensions      [0 3 -1 0 0 0 0];

oriented        oriented;

internalField   nonuniform List<scalar> 
12640
(
-1.47684e-08
1.14915e-08
-3.15045e-08
5.00486e-08
-2.3259e-08
6.95221e-08
1.48238e-08
3.6764e-08
6.22012e-08
-4.47706e-08
7.99629e-08
-1.28541e-07
4.25908e-08
-1.51027e-07
-3.82519e-08
-7.66762e-08
-1.14385e-07
6.81388e-08
-1.30124e-07
2.00688e-07
-6.19215e-08
2.29892e-07
5.92054e-08
1.18435e-07
1.61046e-07
-8.33676e-08
1.74163e-07
-2.59219e-07
7.91027e-08
-2.9549e-07
-7.52648e-08
-1.55332e-07
-1.97247e-07
9.04895e-08
-2.08057e-07
2.99727e-07
-9.31406e-08
3.42986e-07
8.46053e-08
1.85006e-07
2.20173e-07
-8.8873e-08
2.29875e-07
-3.19987e-07
1.03744e-07
-3.70382e-07
-8.63506e-08
-2.06577e-07
-2.28806e-07
7.85707e-08
-2.39203e-07
3.19987e-07
-1.1106e-07
3.7797e-07
8.04747e-08
2.20288e-07
2.23838e-07
-6.0161e-08
2.37257e-07
-3.01524e-07
1.15944e-07
-3.68128e-07
-6.72829e-08
-2.27606e-07
-2.06729e-07
3.42919e-08
-2.25783e-07
2.67188e-07
-1.19189e-07
3.43786e-07
4.77463e-08
2.29775e-07
1.79913e-07
-2.56995e-09
2.0724e-07
-2.20888e-07
1.21628e-07
-3.09013e-07
-2.32964e-08
-2.28533e-07
-1.4622e-07
-3.32997e-08
-1.84082e-07
1.66648e-07
-1.23789e-07
2.67507e-07
-4.28747e-09
2.24836e-07
1.08672e-07
7.08346e-08
1.58661e-07
-1.08957e-07
1.25829e-07
-2.2309e-07
3.28787e-08
-2.19577e-07
-7.02739e-08
-1.07624e-07
-1.32943e-07
5.17819e-08
-1.27505e-07
1.78605e-07
-6.02896e-08
2.12659e-07
3.37073e-08
1.40772e-07
1.08413e-07
1.07009e-09
1.28248e-07
-1.36443e-07
8.43988e-08
-2.03747e-07
-1.1561e-09
-1.67716e-07
-8.58716e-08
-4.66787e-08
-1.2703e-07
9.7909e-08
-1.03126e-07
1.91773e-07
-2.56321e-08
1.85859e-07
6.56993e-08
8.26836e-08
1.22814e-07
-6.37286e-08
1.14897e-07
-1.75679e-07
4.57039e-08
-1.93435e-07
-4.75982e-08
-1.08025e-07
-1.14376e-07
3.353e-08
-1.18592e-07
1.54163e-07
-5.89966e-08
1.89545e-07
3.04511e-08
1.23273e-07
1.00376e-07
-5.5746e-09
1.1431e-07
-1.26194e-07
6.86615e-08
-1.76295e-07
-7.56735e-09
-1.34802e-07
-7.26033e-08
-2.90448e-08
-9.80548e-08
8.51164e-08
-8.40404e-08
1.55163e-07
-5.09498e-08
1.57833e-07
-1.82607e-08
1.05725e-07
2.68719e-08
1.3505e-08
-1.96249e-08
-2.90177e-08
2.05512e-08
-6.38487e-08
7.68928e-08
-5.44954e-08
9.24412e-08
9.89345e-09
3.77402e-08
9.09807e-08
-6.89203e-08
1.27954e-07
-1.63019e-07
8.05711e-08
-1.71246e-07
-3.5984e-08
-6.52924e-08
-1.52569e-07
1.07441e-07
-1.87752e-07
2.43473e-07
-1.04195e-07
2.46407e-07
5.92716e-08
9.42314e-08
2.05132e-07
-1.35962e-07
2.36715e-07
-3.07428e-07
1.22585e-07
-3.06873e-07
-7.73261e-08
-1.19612e-07
-2.43878e-07
1.5328e-07
-2.71397e-07
3.50831e-07
-1.35522e-07
3.49315e-07
8.78128e-08
1.40708e-07
2.66068e-07
-1.57832e-07
2.90494e-07
-3.71538e-07
1.43457e-07
-3.72524e-07
-8.95384e-08
-1.57448e-07
-2.71009e-07
1.49419e-07
-2.94313e-07
3.69852e-07
-1.47203e-07
3.77223e-07
8.22593e-08
1.70173e-07
2.59781e-07
-1.28972e-07
2.84856e-07
-3.48174e-07
1.48228e-07
-3.66243e-07
-6.63576e-08
-1.80271e-07
-2.34606e-07
9.77617e-08
-2.64792e-07
3.09774e-07
-1.47845e-07
3.42657e-07
4.29285e-08
1.88434e-07
1.98555e-07
-5.82659e-08
2.37317e-07
-2.59177e-07
1.47185e-07
-3.10501e-07
-1.38467e-08
-1.95707e-07
-1.55405e-07
1.31252e-08
-2.05711e-07
2.00933e-07
-1.47007e-07
2.73155e-07
-1.87367e-08
2.0204e-07
1.08791e-07
3.41417e-08
1.72737e-07
-1.3995e-07
1.47361e-07
-2.34045e-07
5.20714e-08
-2.07444e-07
-6.25e-08
-8.03657e-08
-1.40802e-07
8.0293e-08
-1.47855e-07
1.95326e-07
-8.34119e-08
2.10731e-07
1.97431e-08
1.21825e-07
1.11544e-07
-2.58659e-08
1.47644e-07
-1.58805e-07
1.10159e-07
-2.10815e-07
1.69628e-08
-1.55603e-07
-8.57016e-08
-2.07239e-08
-1.45256e-07
1.24988e-07
-1.297e-07
2.05814e-07
-4.56083e-08
1.78748e-07
6.34948e-08
5.73698e-08
1.39255e-07
-9.40127e-08
1.40185e-07
-1.94263e-07
6.5371e-08
-1.89638e-07
-4.40811e-08
-8.36623e-08
-1.27755e-07
6.47651e-08
-1.40214e-07
1.74499e-07
-7.674e-08
1.87599e-07
2.49579e-08
1.00797e-07
1.08042e-07
-3.4901e-08
1.30235e-07
-1.45156e-07
8.66675e-08
-1.74495e-07
7.54014e-09
-1.14867e-07
-6.61644e-08
-5.63335e-09
-1.09737e-07
9.30802e-08
-1.16345e-07
1.36704e-07
-9.39663e-08
1.20387e-07
5.90066e-08
6.61162e-08
-4.35831e-08
2.49027e-08
-3.58309e-08
-5.3288e-08
2.82997e-08
-1.14189e-07
1.01443e-07
-9.95351e-08
1.26408e-07
-2.06759e-09
6.57606e-08
1.24324e-07
-6.16485e-08
1.92636e-07
-1.80741e-07
1.41513e-07
-2.04989e-07
-1.5489e-08
-9.801e-08
-1.88225e-07
9.17132e-08
-2.6289e-07
2.517e-07
-1.77591e-07
2.73728e-07
3.01442e-08
1.27028e-07
2.38912e-07
-1.13196e-07
3.16225e-07
-3.04916e-07
2.03761e-07
-3.25257e-07
-4.04413e-08
-1.50063e-07
-2.72599e-07
1.249e-07
-3.49945e-07
3.37675e-07
-2.19977e-07
3.577e-07
4.44361e-08
1.67114e-07
2.87264e-07
-1.25535e-07
3.63479e-07
-3.48847e-07
2.27109e-07
-3.7105e-07
-4.10913e-08
-1.78924e-07
-2.82948e-07
1.14764e-07
-3.58125e-07
3.3917e-07
-2.26731e-07
3.66671e-07
3.0019e-08
1.86276e-07
2.61295e-07
-9.35065e-08
3.36862e-07
-3.11438e-07
2.21116e-07
-3.4793e-07
-1.15052e-08
-1.90952e-07
-2.25241e-07
6.29376e-08
-3.03464e-07
2.69084e-07
-2.12433e-07
3.18176e-07
-1.35005e-08
1.93869e-07
1.7846e-07
-2.54517e-08
2.6209e-07
-2.16696e-07
2.02528e-07
-2.81599e-07
4.31333e-08
-1.96255e-07
-1.25433e-07
-1.64905e-08
-2.16996e-07
1.58664e-07
-1.92831e-07
2.41469e-07
-7.52692e-08
1.98036e-07
7.03356e-08
5.94323e-08
1.71654e-07
-9.98e-08
1.83812e-07
-2.01167e-07
1.07044e-07
-1.99317e-07
-1.7496e-08
-1.00464e-07
-1.2907e-07
4.38119e-08
-1.75353e-07
1.62535e-07
-1.35524e-07
1.98762e-07
-2.93953e-08
1.35908e-07
9.13237e-08
5.54137e-09
1.6677e-07
-1.27294e-07
1.57965e-07
-1.9539e-07
6.75465e-08
-1.63165e-07
-5.93273e-08
-4.60666e-08
-1.56533e-07
9.56224e-08
-1.71526e-07
1.8722e-07
-9.47447e-08
1.79421e-07
3.33164e-08
7.58986e-08
1.43062e-07
-6.75075e-08
1.74278e-07
-1.72875e-07
1.10392e-07
-1.83397e-07
-1.18961e-08
-9.51218e-08
-1.2391e-07
4.13475e-08
-1.64788e-07
1.50318e-07
-1.15805e-07
1.74207e-07
-8.6857e-09
1.04977e-07
9.60274e-08
-1.41923e-08
1.45205e-07
-1.16623e-07
1.20181e-07
-1.5141e-07
3.90446e-08
-1.10253e-07
-6.1137e-08
-2.62025e-08
-1.31841e-07
5.42405e-08
-1.39263e-07
9.93486e-08
7.93115e-08
9.51893e-08
-3.67346e-08
9.19251e-08
-8.12408e-08
1.77135e-08
-6.03164e-08
-9.47451e-08
2.96377e-08
-1.67783e-07
1.38418e-07
-1.354e-07
1.83844e-07
4.67248e-09
1.11843e-07
1.74394e-07
-5.57127e-08
2.58565e-07
-2.22596e-07
1.8311e-07
-2.74816e-07
-2.58163e-08
-1.58229e-07
-2.46989e-07
7.55543e-08
-3.36292e-07
2.90709e-07
-2.21602e-07
3.4816e-07
4.27584e-08
1.96431e-07
3.0154e-07
-8.75246e-08
3.92077e-07
-3.37938e-07
2.48044e-07
-3.99382e-07
-5.3535e-08
-2.24744e-07
-3.34673e-07
9.05569e-08
-4.24011e-07
3.62157e-07
-2.63014e-07
4.27064e-07
5.6055e-08
2.43132e-07
3.44765e-07
-8.39712e-08
4.32246e-07
-3.63271e-07
2.67933e-07
-4.32313e-07
-4.93609e-08
-2.53091e-07
-3.32611e-07
6.73736e-08
-4.19062e-07
3.4264e-07
-2.64974e-07
4.17378e-07
3.32232e-08
2.55995e-07
3.00685e-07
-4.1752e-08
3.88426e-07
-3.03765e-07
2.56891e-07
-3.86615e-07
-8.31649e-09
-2.54365e-07
-2.52951e-07
8.19736e-09
-3.45101e-07
2.50674e-07
-2.46174e-07
3.44239e-07
-2.3901e-08
2.49696e-07
1.9405e-07
3.08437e-08
2.94031e-07
-1.88586e-07
2.34767e-07
-2.95288e-07
6.09083e-08
-2.43843e-07
-1.29445e-07
-7.30184e-08
-2.40147e-07
1.22281e-07
-2.24051e-07
2.43592e-07
-9.99059e-08
2.37043e-07
6.41153e-08
1.14711e-07
1.87314e-07
-5.7101e-08
2.14263e-07
-1.93138e-07
1.37366e-07
-2.29793e-07
-3.02131e-09
-1.53075e-07
-1.38718e-07
-3.05787e-09
-2.04904e-07
1.45987e-07
-1.6969e-07
2.20788e-07
-4.9651e-08
1.84198e-07
9.64655e-08
5.40493e-08
1.94903e-07
-1.04203e-07
1.93674e-07
-2.09235e-07
9.09335e-08
-2.05529e-07
-6.12331e-08
-9.36855e-08
-1.8226e-07
6.79243e-08
-2.06114e-07
1.93047e-07
-1.18635e-07
2.1413e-07
3.28725e-08
1.20028e-07
1.64981e-07
-3.71305e-08
2.05055e-07
-1.70829e-07
1.32651e-07
-2.08817e-07
-9.29976e-09
-1.33462e-07
-1.40328e-07
9.72034e-09
-1.89462e-07
1.39934e-07
-1.34808e-07
1.88127e-07
-1.25639e-08
1.34865e-07
1.07525e-07
1.72481e-08
1.62313e-07
-9.7201e-08
1.26493e-07
-1.51345e-07
2.06547e-08
-1.2728e-07
-8.88121e-08
-4.65115e-08
-1.31517e-07
4.59775e-08
7.67157e-08
6.35861e-08
8.95417e-09
1.17669e-07
-7.1602e-08
1.08216e-07
-1.30064e-07
1.10362e-08
-9.46741e-08
-1.29278e-07
3.39428e-08
-2.1501e-07
1.80556e-07
-1.66826e-07
2.40117e-07
9.85208e-09
1.49077e-07
2.14038e-07
-6.07522e-08
3.0857e-07
-2.68815e-07
2.12949e-07
-3.36577e-07
-3.37407e-08
-2.00081e-07
-2.86728e-07
7.79256e-08
-3.82828e-07
3.36009e-07
-2.46961e-07
4.10252e-07
5.23441e-08
2.39798e-07
3.38127e-07
-8.70457e-08
4.32228e-07
-3.7952e-07
2.68046e-07
-4.58454e-07
-6.34545e-08
-2.67855e-07
-3.65771e-07
8.64562e-08
-4.5608e-07
3.97327e-07
-2.77626e-07
4.80163e-07
6.48738e-08
2.84409e-07
3.68659e-07
-7.58051e-08
4.55488e-07
-3.90186e-07
2.77782e-07
-4.77538e-07
-5.57392e-08
-2.91685e-07
-3.48364e-07
5.4691e-08
-4.33655e-07
3.60106e-07
-2.71165e-07
4.53624e-07
3.60278e-08
2.91437e-07
3.08054e-07
-2.43824e-08
3.95236e-07
-3.11373e-07
2.60732e-07
-4.1363e-07
-6.85379e-09
-2.86626e-07
-2.52469e-07
-1.3821e-08
-3.45574e-07
2.48673e-07
-2.48997e-07
3.62371e-07
-2.98664e-08
2.78856e-07
1.86804e-07
5.7022e-08
2.89849e-07
-1.77943e-07
2.37658e-07
-3.05471e-07
7.10427e-08
-2.70158e-07
-1.17034e-07
-1.02627e-07
-2.33111e-07
1.04369e-07
-2.27767e-07
2.4697e-07
-1.1337e-07
2.60567e-07
4.84329e-08
1.46499e-07
1.79097e-07
-3.38316e-08
2.19116e-07
-1.91134e-07
1.52884e-07
-2.50552e-07
1.39158e-08
-1.85605e-07
-1.30719e-07
-2.96621e-08
-2.1072e-07
1.39901e-07
-1.85614e-07
2.38449e-07
-6.58204e-08
2.15607e-07
8.97351e-08
8.1691e-08
2.01084e-07
-9.53697e-08
2.08192e-07
-2.23366e-07
1.0454e-07
-2.33927e-07
-5.63646e-08
-1.20234e-07
-1.87845e-07
5.73606e-08
-2.17417e-07
2.02907e-07
-1.28266e-07
2.37477e-07
2.99692e-08
1.43407e-07
1.6881e-07
-2.56896e-08
2.11605e-07
-1.75569e-07
1.37381e-07
-2.25128e-07
-8.31758e-09
-1.51769e-07
-1.41679e-07
-1.94473e-09
-1.90095e-07
1.38419e-07
-1.32705e-07
1.94672e-07
-8.97167e-09
1.44438e-07
1.07098e-07
2.54177e-08
1.49956e-07
-9.15784e-08
9.90914e-08
-1.44576e-07
-1.34655e-10
-1.1131e-07
-6.92669e-08
-2.08149e-08
4.42399e-08
-2.75802e-08
6.68961e-08
6.42299e-08
-2.57943e-10
1.48294e-07
-1.20385e-07
1.41869e-07
-1.83782e-07
1.46512e-08
-1.27608e-07
-1.62105e-07
3.67289e-08
-2.64866e-07
2.1724e-07
-2.0327e-07
2.904e-07
8.39307e-09
1.8477e-07
2.47642e-07
-5.9348e-08
3.5686e-07
-3.0149e-07
2.48124e-07
-3.83902e-07
-3.04192e-08
-2.35328e-07
-3.14873e-07
7.32663e-08
-4.24638e-07
3.62363e-07
-2.78709e-07
4.51066e-07
4.65836e-08
2.72097e-07
3.58609e-07
-7.95168e-08
4.65288e-07
-3.98223e-07
2.95258e-07
-4.90974e-07
-5.48895e-08
-2.96163e-07
-3.77332e-07
7.59085e-08
-4.79197e-07
4.07396e-07
-2.99837e-07
5.03316e-07
5.32367e-08
3.08138e-07
3.70808e-07
-6.2266e-08
4.68455e-07
-3.91427e-07
2.95131e-07
-4.91261e-07
-4.09132e-08
-3.10929e-07
-3.41393e-07
3.81866e-08
-4.37151e-07
3.52896e-07
-2.84247e-07
4.58523e-07
1.8074e-08
3.06582e-07
2.92855e-07
-5.18774e-09
3.90522e-07
-2.96697e-07
2.70308e-07
-4.10915e-07
1.38224e-08
-2.98334e-07
-2.30545e-07
-3.52803e-08
-3.34386e-07
2.27894e-07
-2.55911e-07
3.53516e-07
-5.2593e-08
2.8771e-07
1.59989e-07
7.99519e-08
2.74042e-07
-1.52847e-07
2.42572e-07
-2.92195e-07
9.48037e-08
-2.76749e-07
-8.74397e-08
-1.26112e-07
-2.14577e-07
7.67992e-08
-2.31145e-07
2.30847e-07
-1.36897e-07
2.65147e-07
1.82466e-08
1.6925e-07
1.59547e-07
-5.84346e-09
2.21124e-07
-1.73728e-07
1.74726e-07
-2.53258e-07
4.25751e-08
-2.06315e-07
-1.11589e-07
-5.62041e-08
-2.11226e-07
1.22413e-07
-2.04206e-07
2.39046e-07
-9.09941e-08
2.32751e-07
7.2137e-08
1.04926e-07
1.99714e-07
-7.88714e-08
2.22012e-07
-2.21557e-07
1.24587e-07
-2.46147e-07
-4.10487e-08
-1.38676e-07
-1.84101e-07
4.25225e-08
-2.25166e-07
1.98165e-07
-1.41954e-07
2.43406e-07
1.74235e-08
1.55676e-07
1.62314e-07
-1.31236e-08
2.12339e-07
-1.67415e-07
1.43534e-07
-2.2341e-07
3.01337e-10
-1.56218e-07
-1.33075e-07
-1.10669e-08
-1.83055e-07
1.26672e-07
-1.28726e-07
1.82944e-07
-1.08964e-08
1.36327e-07
9.57376e-08
2.57128e-08
1.30406e-07
-7.74625e-08
8.78734e-08
-1.13738e-07
1.91137e-08
-7.37794e-08
-7.01822e-09
-1.29014e-07
9.34589e-08
-5.28379e-08
9.15163e-08
9.18962e-08
-1.93855e-08
2.045e-07
-1.5836e-07
1.82049e-07
-2.30016e-07
1.64034e-08
-1.617e-07
-1.9764e-07
3.38565e-08
-3.15384e-07
2.47974e-07
-2.39122e-07
3.37927e-07
6.99011e-09
2.23255e-07
2.79862e-07
-4.97627e-08
4.02981e-07
-3.24121e-07
2.81954e-07
-4.24912e-07
-2.63451e-08
-2.72413e-07
-3.40285e-07
5.84971e-08
-4.63318e-07
3.75345e-07
-3.09001e-07
4.82919e-07
3.94638e-08
3.0567e-07
3.75569e-07
-6.03342e-08
4.9481e-07
-4.01032e-07
3.21205e-07
-5.12499e-07
-4.4401e-08
-3.25134e-07
-3.84901e-07
5.29071e-08
-4.98746e-07
4.00099e-07
-3.21175e-07
5.142e-07
3.92025e-08
3.31945e-07
3.688e-07
-3.61839e-08
4.7813e-07
-3.74823e-07
3.12107e-07
-4.92099e-07
-2.33713e-08
-3.29595e-07
-3.30402e-07
9.78026e-09
-4.37875e-07
3.28293e-07
-2.97474e-07
4.505e-07
-2.71356e-09
3.20402e-07
2.74034e-07
2.46021e-08
3.83683e-07
-2.65882e-07
2.80465e-07
-3.95687e-07
3.72242e-08
-3.07835e-07
-2.05603e-07
-6.54676e-08
-3.21768e-07
1.9284e-07
-2.637e-07
3.32865e-07
-7.77145e-08
2.93354e-07
1.30906e-07
1.09324e-07
2.57468e-07
-1.15761e-07
2.48478e-07
-2.68021e-07
1.20435e-07
-2.79017e-07
-5.63984e-08
-1.53488e-07
-1.9584e-07
3.97564e-08
-2.35437e-07
2.04812e-07
-1.61614e-07
2.64247e-07
-1.25476e-08
1.93255e-07
1.40237e-07
2.90414e-08
2.23799e-07
-1.47418e-07
1.96982e-07
-2.49358e-07
7.10456e-08
-2.25708e-07
-9.30045e-08
-8.71399e-08
-2.12028e-07
9.70388e-08
-2.22422e-07
2.32058e-07
-1.15285e-07
2.46248e-07
5.52532e-08
1.30236e-07
1.98208e-07
-5.55306e-08
2.34725e-07
-2.11455e-07
1.43167e-07
-2.52756e-07
-2.65752e-08
-1.57089e-07
-1.79885e-07
2.1999e-08
-2.31227e-07
1.84821e-07
-1.53599e-07
2.4217e-07
6.11808e-09
1.65886e-07
1.55416e-07
3.56817e-09
2.10929e-07
-1.50983e-07
1.46555e-07
-2.13307e-07
6.23378e-09
-1.5618e-07
-1.25196e-07
-2.16653e-08
-1.74093e-07
1.08275e-07
-1.20811e-07
1.62841e-07
-7.36554e-09
1.23105e-07
9.40367e-08
2.79091e-08
1.26817e-07
-5.73439e-08
8.96028e-08
-8.64457e-08
-5.07169e-08
-1.70222e-07
5.94025e-08
-1.63722e-07
1.37348e-07
-4.13726e-08
1.15318e-07
1.39507e-07
-1.49808e-08
2.56831e-07
-1.85084e-07
2.15336e-07
-2.74721e-07
1.51757e-08
-1.97848e-07
-2.3049e-07
2.67896e-08
-3.5975e-07
2.72831e-07
-2.69737e-07
3.79985e-07
5.80731e-09
2.59771e-07
3.06099e-07
-3.68369e-08
4.39768e-07
-3.39276e-07
3.08566e-07
-4.58207e-07
-2.25994e-08
-3.06024e-07
-3.58226e-07
4.06444e-08
-4.90626e-07
3.80121e-07
-3.30635e-07
5.06002e-07
3.29138e-08
3.34996e-07
3.84282e-07
-3.82905e-08
5.11841e-07
-3.95406e-07
3.37685e-07
-5.24836e-07
-3.47344e-08
-3.49446e-07
-3.84093e-07
2.73996e-08
-5.05588e-07
3.84673e-07
-3.32859e-07
5.16088e-07
2.62639e-08
3.51011e-07
3.58897e-07
-8.06881e-09
4.75675e-07
-3.5084e-07
3.19724e-07
-4.84591e-07
-7.28583e-09
-3.43632e-07
-3.12555e-07
-2.00338e-08
-4.27697e-07
2.97432e-07
-3.01991e-07
4.35128e-07
-2.15638e-08
3.29824e-07
2.49847e-07
5.50304e-08
3.67631e-07
-2.30195e-07
2.82751e-07
-3.74306e-07
5.80701e-08
-3.13197e-07
-1.77105e-07
-9.54063e-08
-3.01895e-07
1.54455e-07
-2.64526e-07
3.07339e-07
-9.95355e-08
2.95095e-07
1.00258e-07
1.37485e-07
2.35688e-07
-7.69329e-08
2.48289e-07
-2.4023e-07
1.41932e-07
-2.77558e-07
-2.58143e-08
-1.78661e-07
-1.73882e-07
2.51554e-09
-2.34403e-07
1.76332e-07
-1.81332e-07
2.59747e-07
-4.09597e-08
2.14108e-07
1.19514e-07
6.2708e-08
2.21788e-07
-1.19705e-07
2.13419e-07
-2.41951e-07
9.5429e-08
-2.41109e-07
-7.45592e-08
-1.15625e-07
-2.08694e-07
7.11712e-08
-2.34165e-07
2.21685e-07
-1.34119e-07
2.551e-07
3.97803e-08
1.52086e-07
1.93092e-07
-3.25076e-08
2.40569e-07
-1.98195e-07
1.55274e-07
-2.54304e-07
-1.46162e-08
-1.71226e-07
-1.72742e-07
2.61013e-09
-2.30362e-07
1.68752e-07
-1.57929e-07
2.35677e-07
-1.35217e-09
1.70995e-07
1.46724e-07
1.79616e-08
2.02762e-07
-1.32786e-07
1.41083e-07
-1.98137e-07
6.25298e-09
-1.50158e-07
-1.1725e-07
-2.80642e-08
-1.58129e-07
9.08935e-08
-1.00473e-07
1.41259e-07
1.10766e-08
1.06923e-07
9.79963e-08
2.27255e-08
1.08497e-07
-5.37621e-08
-6.37636e-08
-1.09549e-07
-2.37005e-08
-1.88196e-07
9.42279e-08
-1.7029e-07
1.90565e-07
-2.78049e-08
1.59296e-07
1.72568e-07
-5.85195e-09
2.97984e-07
-2.1027e-07
2.4318e-07
-3.16015e-07
1.50104e-08
-2.31866e-07
-2.5651e-07
1.65569e-08
-3.95073e-07
2.8901e-07
-2.94562e-07
4.11886e-07
2.93827e-09
2.90445e-07
3.23247e-07
-2.15207e-08
4.64929e-07
-3.44428e-07
3.27989e-07
-4.79073e-07
-1.68266e-08
-3.31771e-07
-3.65549e-07
2.13514e-08
-5.04697e-07
3.74599e-07
-3.44282e-07
5.15531e-07
2.41243e-08
3.55158e-07
3.81601e-07
-1.57521e-08
5.14928e-07
-3.79835e-07
3.4588e-07
-5.23382e-07
-2.28318e-08
-3.63892e-07
-3.71914e-07
2.37099e-09
-4.9867e-07
3.60265e-07
-3.36396e-07
5.04758e-07
1.13478e-08
3.60043e-07
3.38389e-07
1.85738e-08
4.60376e-07
-3.19338e-07
3.19608e-07
-4.65078e-07
1.02124e-08
-3.47868e-07
-2.85513e-07
-4.73525e-08
-4.0615e-07
2.60891e-07
-2.99335e-07
4.0942e-07
-4.09657e-08
3.29952e-07
2.18366e-07
8.19205e-08
3.42034e-07
-1.90908e-07
2.78444e-07
-3.44538e-07
7.83503e-08
-3.09936e-07
-1.43522e-07
-1.20772e-07
-2.74454e-07
1.1464e-07
-2.59272e-07
2.75481e-07
-1.19489e-07
2.88958e-07
6.68727e-08
1.60082e-07
2.08309e-07
-3.88078e-08
2.4242e-07
-2.08132e-07
1.60172e-07
-2.68979e-07
5.20189e-09
-1.97369e-07
-1.48146e-07
-3.20392e-08
-2.27963e-07
1.4544e-07
-1.96431e-07
2.48878e-07
-6.76898e-08
2.27756e-07
9.66013e-08
9.19618e-08
2.14559e-07
-9.12768e-08
2.24026e-07
-2.28927e-07
1.16329e-07
-2.48787e-07
-5.52589e-08
-1.38295e-07
-2.00333e-07
4.60682e-08
-2.39167e-07
2.06494e-07
-1.48075e-07
2.56012e-07
2.45584e-08
1.67084e-07
1.8327e-07
-1.15453e-08
2.39161e-07
-1.81044e-07
1.61477e-07
-2.48051e-07
-3.97392e-09
-1.77808e-07
-1.61534e-07
-1.34911e-08
-2.22134e-07
1.49962e-07
-1.55447e-07
2.21885e-07
-6.18168e-09
1.68011e-07
1.34973e-07
2.7591e-08
1.87273e-07
-1.13699e-07
1.27955e-07
-1.77e-07
2.99831e-09
-1.36055e-07
-1.05118e-07
-2.78684e-08
-1.31402e-07
7.60293e-08
-6.90634e-08
1.16402e-07
2.31614e-08
7.95507e-08
7.16614e-08
2.08582e-09
-4.23848e-08
2.9244e-08
-1.05258e-07
-9.52965e-08
-1.9963e-08
-2.05086e-07
1.45528e-07
-1.95278e-07
2.43693e-07
-3.08171e-08
1.92718e-07
1.96162e-07
3.03215e-10
3.32095e-07
-2.29088e-07
2.66723e-07
-3.47912e-07
1.63425e-08
-2.60791e-07
-2.74598e-07
3.04077e-09
-4.1986e-07
2.94566e-07
-3.12531e-07
4.31398e-07
-1.3605e-09
3.14023e-07
3.30959e-07
-3.58422e-09
4.77937e-07
-3.38257e-07
3.39771e-07
-4.86074e-07
-9.44211e-09
-3.49004e-07
-3.62754e-07
1.89713e-10
-5.06043e-07
3.5771e-07
-3.50123e-07
5.10593e-07
1.36287e-08
3.65975e-07
3.68791e-07
7.841e-09
5.05522e-07
-3.53521e-07
3.4653e-07
-5.07704e-07
-9.32795e-09
-3.68673e-07
-3.50274e-07
-2.27915e-08
-4.80204e-07
3.26354e-07
-3.3296e-07
4.8018e-07
-4.81495e-09
3.59501e-07
3.09678e-07
4.43178e-08
4.34994e-07
-2.80078e-07
3.13224e-07
-4.33841e-07
2.83244e-08
-3.42898e-07
-2.51981e-07
-7.26438e-08
-3.76305e-07
2.1868e-07
-2.91126e-07
3.73864e-07
-6.00944e-08
3.21408e-07
1.82407e-07
1.0559e-07
3.10058e-07
-1.48234e-07
2.69208e-07
-3.06976e-07
9.72778e-08
-2.98614e-07
-1.07594e-07
-1.41714e-07
-2.4251e-07
7.3748e-08
-2.49565e-07
2.37894e-07
-1.36898e-07
2.75384e-07
3.32402e-08
1.7711e-07
1.78142e-07
-1.80947e-09
2.32419e-07
-1.72264e-07
1.74673e-07
-2.53572e-07
3.45509e-08
-2.0949e-07
-1.21079e-07
-6.34902e-08
-2.17577e-07
1.1255e-07
-2.06705e-07
2.31787e-07
-9.11389e-08
2.3402e-07
7.35289e-08
1.16463e-07
2.03505e-07
-6.23963e-08
2.28949e-07
-2.10325e-07
1.32711e-07
-2.48588e-07
-3.67018e-08
-1.54953e-07
-1.88318e-07
2.18386e-08
-2.37977e-07
1.86478e-07
-1.56695e-07
2.48934e-07
1.08007e-08
1.75215e-07
1.70147e-07
7.36786e-09
2.3146e-07
-1.60039e-07
1.61841e-07
-2.34144e-07
4.4813e-09
-1.77039e-07
-1.47666e-07
-2.64053e-08
-2.07845e-07
1.28625e-07
-1.46821e-07
2.01273e-07
-8.19301e-09
1.57534e-07
1.21172e-07
3.28142e-08
1.66361e-07
-9.3965e-08
1.10061e-07
-1.50889e-07
-3.21736e-10
-1.15563e-07
-8.82121e-08
-2.36035e-08
-1.01824e-07
5.97507e-08
-5.16008e-08
8.39547e-08
5.60456e-09
4.65867e-08
-3.56291e-09
1.65132e-07
-1.28525e-07
6.69699e-08
-1.32488e-07
-1.13305e-07
1.64633e-09
-2.5142e-07
1.7277e-07
-2.26247e-07
2.72955e-07
-3.33295e-08
2.1699e-07
2.15726e-07
9.94472e-09
3.5745e-07
-2.36984e-07
2.8326e-07
-3.67797e-07
1.83163e-08
-2.83e-07
-2.8369e-07
-1.2941e-08
-4.32219e-07
2.89441e-07
-3.22021e-07
4.37713e-07
-6.37044e-09
3.29289e-07
3.28931e-07
1.57633e-08
4.77754e-07
-3.21604e-07
3.42615e-07
-4.79409e-07
-1.50766e-09
-3.5715e-07
-3.50296e-07
-2.15906e-08
-4.94337e-07
3.30964e-07
-3.47122e-07
4.9228e-07
2.81209e-09
3.67483e-07
3.47015e-07
3.12449e-08
4.83966e-07
-3.18521e-07
3.38855e-07
-4.79647e-07
4.11074e-09
-3.64345e-07
-3.20947e-07
-4.68841e-08
-4.51101e-07
2.85395e-07
-3.2198e-07
4.44757e-07
-2.03306e-08
3.50345e-07
2.75027e-07
6.8031e-08
4.00888e-07
-2.35748e-07
3.00177e-07
-3.93643e-07
4.5013e-08
-3.29972e-07
-2.14546e-07
-9.48865e-08
-3.39825e-07
1.73547e-07
-2.77104e-07
3.31384e-07
-7.68634e-08
3.05626e-07
1.44718e-07
1.25173e-07
2.73537e-07
-1.0482e-07
2.54905e-07
-2.64528e-07
1.12823e-07
-2.80763e-07
-7.20639e-08
-1.57573e-07
-2.07948e-07
3.41868e-08
-2.35382e-07
1.97328e-07
-1.49896e-07
2.55943e-07
1.9593e-09
1.88164e-07
1.47033e-07
3.20156e-08
2.1839e-07
-1.35113e-07
1.83833e-07
-2.32913e-07
5.99047e-08
-2.14926e-07
-9.4423e-08
-9.02417e-08
-2.03503e-07
7.98168e-08
-2.10913e-07
2.1005e-07
-1.0935e-07
2.33157e-07
5.18858e-08
1.3513e-07
1.89073e-07
-3.48509e-08
2.27385e-07
-1.87728e-07
1.43055e-07
-2.41156e-07
-2.03159e-08
-1.65056e-07
-1.7332e-07
-9.95978e-11
-2.3028e-07
1.63247e-07
-1.58917e-07
2.3492e-07
-2.24927e-10
1.76482e-07
1.54625e-07
2.31718e-08
2.17636e-07
-1.36834e-07
1.55793e-07
-2.14064e-07
9.74128e-09
-1.69508e-07
-1.32148e-07
-3.54874e-08
-1.88192e-07
1.06403e-07
-1.32326e-07
1.75841e-07
-7.14757e-09
1.4105e-07
1.06398e-07
3.39121e-08
1.42216e-07
-7.48535e-08
8.98082e-08
-1.22656e-07
-4.48814e-09
-9.28981e-08
-7.54909e-08
-1.96854e-08
-8.61229e-08
4.17281e-08
-5.06093e-08
5.64699e-08
2.8059e-08
2.11692e-07
-7.22203e-08
1.98555e-07
-1.65454e-07
5.18208e-08
-1.47148e-07
-1.55479e-07
-1.05441e-08
-2.86077e-07
1.76819e-07
-2.43128e-07
2.91063e-07
-3.2127e-08
2.37467e-07
2.27519e-07
2.32647e-08
3.70192e-07
-2.34224e-07
2.91e-07
-3.74569e-07
2.09834e-08
-2.96509e-07
-2.82794e-07
-2.96509e-08
-4.31036e-07
2.74304e-07
-3.22298e-07
4.30205e-07
-1.18946e-08
3.34662e-07
3.16948e-07
3.46913e-08
4.63989e-07
-2.95749e-07
3.36141e-07
-4.59218e-07
6.65118e-09
-3.55077e-07
-3.28456e-07
-4.20309e-08
-4.69753e-07
2.96257e-07
-3.35191e-07
4.61463e-07
-7.85353e-09
3.58979e-07
3.17024e-07
5.24149e-08
4.50924e-07
-2.77242e-07
3.22977e-07
-4.40698e-07
1.68461e-08
-3.50592e-07
-2.85088e-07
-6.78399e-08
-4.12393e-07
2.40157e-07
-3.03695e-07
4.00444e-07
-3.43961e-08
3.32584e-07
2.35889e-07
8.76998e-08
3.59322e-07
-1.89309e-07
2.80748e-07
-3.46751e-07
5.93454e-08
-3.09373e-07
-1.74843e-07
-1.12197e-07
-2.9808e-07
1.28492e-07
-2.57541e-07
2.8441e-07
-9.02633e-08
2.83112e-07
1.0699e-07
1.38997e-07
2.33836e-07
-6.35478e-08
2.35767e-07
-2.19656e-07
1.23971e-07
-2.57075e-07
-3.85644e-08
-1.66952e-07
-1.72039e-07
-1.40634e-09
-2.1691e-07
1.56171e-07
-1.57537e-07
2.31493e-07
-2.5506e-08
1.92196e-07
1.16096e-07
6.03847e-08
2.00499e-07
-9.89099e-08
1.86862e-07
-2.08017e-07
8.00537e-08
-2.13035e-07
-6.91e-08
-1.1045e-07
-1.85922e-07
4.92567e-08
-2.08501e-07
1.84829e-07
-1.21435e-07
2.24971e-07
3.23961e-08
1.46614e-07
1.71505e-07
-1.04033e-08
2.19083e-07
-1.62451e-07
1.46831e-07
-2.26775e-07
-6.63934e-09
-1.67793e-07
-1.55688e-07
-1.82618e-08
-2.16163e-07
1.38257e-07
-1.54581e-07
2.14743e-07
-8.17405e-09
1.70639e-07
1.37143e-07
3.47082e-08
1.9812e-07
-1.12991e-07
1.43625e-07
-1.8909e-07
1.18114e-08
-1.55639e-07
-1.15407e-07
-4.0082e-08
-1.64068e-07
8.48477e-08
-1.13035e-07
1.47507e-07
-3.60323e-09
1.20107e-07
9.12088e-08
3.12537e-08
1.15903e-07
-5.785e-08
6.6228e-08
-9.56244e-08
-1.49421e-08
-7.12059e-08
-6.96356e-08
-1.39041e-08
-6.96852e-08
3.34261e-08
3.68461e-08
1.37064e-07
3.09725e-08
2.1517e-07
-9.35727e-08
1.85311e-07
-2.0066e-07
3.08532e-08
-1.82328e-07
-1.73365e-07
-2.81798e-08
-2.98797e-07
1.75767e-07
-2.48452e-07
2.99498e-07
-3.17247e-08
2.49991e-07
2.28917e-07
3.72486e-08
3.69441e-07
-2.2121e-07
2.89774e-07
-3.66851e-07
2.42263e-08
-2.99411e-07
-2.72162e-07
-4.5614e-08
-4.16584e-07
2.49686e-07
-3.13419e-07
4.08409e-07
-1.7561e-08
3.28978e-07
2.9582e-07
5.18498e-08
4.37576e-07
-2.61682e-07
3.20852e-07
-4.2571e-07
1.46528e-08
-3.4208e-07
-2.98485e-07
-5.9761e-08
-4.33806e-07
2.55028e-07
-3.15197e-07
4.18937e-07
-1.79445e-08
3.40134e-07
2.80439e-07
6.9955e-08
4.08339e-07
-2.31492e-07
2.99997e-07
-3.92119e-07
2.84002e-08
-3.2738e-07
-2.4456e-07
-8.42595e-08
-3.66266e-07
1.92701e-07
-2.79314e-07
3.48832e-07
-4.64901e-08
3.06412e-07
1.94235e-07
1.0196e-07
3.12561e-07
-1.42951e-07
2.56158e-07
-2.94945e-07
7.07941e-08
-2.81455e-07
-1.34808e-07
-1.23296e-07
-2.53253e-07
8.5702e-08
-2.33596e-07
2.34791e-07
-9.98103e-08
2.54338e-07
7.09967e-08
1.45921e-07
1.92938e-07
-2.6485e-08
2.1286e-07
-1.7417e-07
1.3034e-07
-2.2811e-07
-8.5941e-09
-1.68911e-07
-1.36483e-07
-3.11868e-08
-1.9511e-07
1.16116e-07
-1.5961e-07
2.02672e-07
-4.80168e-08
1.88526e-07
8.66948e-08
8.17658e-08
1.79612e-07
-6.51676e-08
1.83775e-07
-1.79601e-07
9.42762e-08
-2.03458e-07
-4.61239e-08
-1.22966e-07
-1.65642e-07
2.21644e-08
-1.99762e-07
1.56939e-07
-1.27118e-07
2.09474e-07
1.57361e-08
1.50205e-07
1.51592e-07
9.89447e-09
2.04641e-07
-1.35413e-07
1.44203e-07
-2.05864e-07
3.96673e-09
-1.62931e-07
-1.36205e-07
-3.18683e-08
-1.96521e-07
1.12533e-07
-1.44292e-07
1.89259e-07
-1.30325e-08
1.57998e-07
1.18418e-07
4.15554e-08
1.74089e-07
-8.95707e-08
1.26479e-07
-1.6054e-07
1.12087e-08
-1.36435e-07
-9.79559e-08
-4.03281e-08
-1.36956e-07
6.49391e-08
-9.07703e-08
1.18111e-07
1.07297e-09
9.65544e-08
7.48758e-08
2.55776e-08
8.67115e-08
-4.37694e-08
3.90894e-08
-7.05707e-08
-2.2544e-08
-4.76528e-08
-5.01947e-08
-1.07655e-09
2.42031e-08
-1.2626e-08
1.15263e-07
1.07905e-07
3.49085e-08
2.04052e-07
-1.26281e-07
1.8653e-07
-2.28181e-07
3.18665e-08
-1.98351e-07
-1.74345e-07
-3.92883e-08
-2.98189e-07
1.65967e-07
-2.45977e-07
2.9296e-07
-3.21546e-08
2.51935e-07
2.21024e-07
5.12964e-08
3.55764e-07
-1.9781e-07
2.79135e-07
-3.44469e-07
2.68341e-08
-2.91572e-07
-2.53179e-07
-6.05494e-08
-3.89765e-07
2.16159e-07
-2.95305e-07
3.7305e-07
-2.22086e-08
3.12716e-07
2.67345e-07
6.70432e-08
4.00064e-07
-2.20363e-07
2.97139e-07
-3.80188e-07
2.13458e-08
-3.19037e-07
-2.626e-07
-7.45959e-08
-3.88599e-07
2.08567e-07
-2.87887e-07
3.66425e-07
-2.62997e-08
3.1208e-07
2.39781e-07
8.36611e-08
3.58697e-07
-1.82779e-07
2.70907e-07
-3.35878e-07
3.76321e-08
-2.95971e-07
-2.0203e-07
-9.5917e-08
-3.15394e-07
1.44631e-07
-2.49963e-07
2.91962e-07
-5.55398e-08
2.73104e-07
1.52713e-07
1.10583e-07
2.6329e-07
-9.82441e-08
2.27598e-07
-2.40195e-07
7.84152e-08
-2.47437e-07
-9.69183e-08
-1.27985e-07
-2.07899e-07
4.66045e-08
-2.06471e-07
1.84307e-07
-1.04752e-07
2.20417e-07
3.89136e-08
1.45826e-07
1.53158e-07
5.18538e-09
1.87368e-07
-1.29578e-07
1.31435e-07
-1.94864e-07
1.60742e-08
-1.63463e-07
-1.03276e-07
-5.4291e-08
-1.71141e-07
7.83576e-08
-1.55928e-07
1.70373e-07
-6.4281e-08
1.77357e-07
6.04609e-08
9.56688e-08
1.56872e-07
-3.47564e-08
1.74738e-07
-1.48494e-07
1.01802e-07
-1.86639e-07
-2.67472e-08
-1.27707e-07
-1.43799e-07
-9.03878e-10
-1.85235e-07
1.27184e-07
-1.26161e-07
1.87395e-07
2.77859e-09
1.46233e-07
1.3046e-07
2.57728e-08
1.84963e-07
-1.07439e-07
1.35458e-07
-1.7947e-07
1.10214e-08
-1.51226e-07
-1.15945e-07
-4.093e-08
-1.72575e-07
8.69276e-08
-1.28866e-07
1.59847e-07
-1.47971e-08
1.3978e-07
9.93648e-08
4.40774e-08
1.47059e-07
-6.73864e-08
1.05825e-07
-1.30109e-07
8.61585e-09
-1.13654e-07
-8.04015e-08
-3.70864e-08
-1.08712e-07
4.72738e-08
-6.80277e-08
8.94581e-08
4.69676e-09
7.2478e-08
5.68638e-08
1.8475e-08
5.81863e-08
-3.11628e-08
2.1903e-08
-4.54091e-08
-1.23828e-08
-2.36809e-08
3.81566e-09
-1.45317e-07
1.28181e-07
-5.08489e-08
1.32468e-07
1.05181e-07
1.69168e-08
2.17916e-07
-1.28167e-07
1.92672e-07
-2.22636e-07
3.33177e-08
-1.98982e-07
-1.68685e-07
-5.13287e-08
-2.85566e-07
1.4526e-07
-2.33555e-07
2.72899e-07
-3.12742e-08
2.44643e-07
2.04724e-07
6.47267e-08
3.28824e-07
-1.66604e-07
2.58016e-07
-3.10447e-07
2.75657e-08
-2.74687e-07
-2.26795e-07
-7.37163e-08
-3.50902e-07
1.76651e-07
-2.67489e-07
3.27697e-07
-2.46872e-08
2.88049e-07
2.32915e-07
7.97005e-08
3.52416e-07
-1.7491e-07
2.64941e-07
-3.26606e-07
2.55195e-08
-2.88472e-07
-2.22634e-07
-8.61375e-08
-3.35606e-07
1.60011e-07
-2.53477e-07
3.08027e-07
-3.16307e-08
2.77536e-07
1.97208e-07
9.33325e-08
3.03817e-07
-1.34071e-07
2.36098e-07
-2.75983e-07
4.32123e-08
-2.59136e-07
-1.59833e-07
-1.02843e-07
-2.61777e-07
9.85721e-08
-2.16136e-07
2.33553e-07
-6.02314e-08
2.35382e-07
1.13683e-07
1.13866e-07
2.13544e-07
-5.73339e-08
1.95611e-07
-1.85781e-07
8.09811e-08
-2.09914e-07
-6.34184e-08
-1.26857e-07
-1.63968e-07
1.27683e-08
-1.76729e-07
1.35708e-07
-1.04022e-07
1.83783e-07
1.27435e-08
1.39625e-07
1.16263e-07
3.0524e-08
1.59867e-07
-8.8058e-08
1.26427e-07
-1.59594e-07
3.3785e-08
-1.51849e-07
-7.39387e-08
-7.04196e-08
-1.45607e-07
4.45004e-08
-1.45977e-07
1.3668e-07
-7.30743e-08
1.60248e-07
3.86245e-08
1.02408e-07
1.32923e-07
-8.73548e-09
1.59607e-07
-1.16612e-07
1.01894e-07
-1.64426e-07
-1.1891e-08
-1.25539e-07
-1.211e-07
-1.93805e-08
-1.65183e-07
9.73159e-08
-1.18344e-07
1.60807e-07
-5.88307e-09
1.36028e-07
1.0887e-07