/*--------------------------------*- C++ -*----------------------------------*\
| =========                 |                                                 |
| \\      /  F ield         | OpenFOAM: The Open Source CFD Toolbox           |
|  \\    /   O peration     | Version:  2412                                  |
|   \\  /    A nd           | Website:  www.openfoam.com                      |
|    \\/     M anipulation  |                                                 |
\*---------------------------------------------------------------------------*/
FoamFile
{
    version     2.0;
    format      ascii;
    arch        "LSB;label=32;scalar=64";
    class       volScalarField;
    location    "0.1";
    object      alpha.honey;
}
// * * * * * * * * * * * * * * * * * * * * * * * * * * * * * * * * * * * * * //

dimensions      [0 0 0 0 0 0 0];

internalField   nonuniform List<scalar> 
6400
(
1
1
1
1
1
1
1
1
1
1
1
1
1
1
1
1
1
1
1
1
1
1
1
1
1
1
1
1
1
1
1
1
1
1
1
1
1
1
1
1
1
1
1
1
1
1
1
1
1
1
1
1
1
1
1
1
1
1
1
1
1
1
1
1
1
1
1
1
1
1
1
1
1
1
1
1
1
1
1
1
1
1
1
1
1
1
1
1
1
1
1
1
1
1
1
1
1
1
1
1
1
1
1
1
1
1
1
1
1
1
1
1
1
1
1
1
1
1
1
1
1
1
1
1
1
1
1
1
1
1
1
1
1
1
1
1
1
1
1
1
1
1
1
1
1
1
1
1
1
1
1
1
1
1
1
1
1
1
1
1
1
1
1
1
1
1
1
1
1
1
1
1
1
1
1
1
1
1
1
1
1
1
1
1
1
1
1
1
1
1
1
1
1
1
1
1
1
1
1
1
1
1
1
1
1
1
1
1
1
1
1
1
1
1
1
1
1
1
1
1
1
1
1
1
1
1
1
1
1
1
1
1
1
1
1
1
1
1
1
1
1
1
1
1
1
1
1
1
1
1
1
1
1
1
1
1
1
1
1
1
1
1
1
1
1
1
1
1
1
1
1
1
1
1
1
1
1
1
1
1
1
1
1
1
1
1
1
1
1
1
1
1
1
1
1
1
1
1
1
1
1
1
1
1
1
1
1
1
1
1
1
1
1
1
1
1
1
1
1
1
1
1
1
1
1
1
1
1
1
1
1
1
1
1
1
1
1
1
1
1
1
1
1
1
1
1
1
1
1
1
1
1
1
1
1
1
1
1
1
1
1
1
1
1
1
1
1
1
1
1
1
1
1
1
1
1
1
1
1
1
1
1
1
1
1
1
1
1
1
1
1
1
1
1
1
1
1
1
1
1
1
1
1
1
1
1
1
1
1
1
1
1
1
1
1
1
1
1
1
1
1
1
1
1
1
1
1
1
1
1
1
1
1
1
1
1
1
1
1
1
1
1
1
1
1
1
1
1
1
1
1
1
1
1
1
1
1
1
1
1
1
1
1
1
1
1
1
1
1
1
1
1
1
1
1
1
1
1
1
1
1
1
1
1
1
1
1
1
1
1
1
1
1
1
1
1
1
1
1
1
1
1
1
1
1
1
1
1
1
1
1
1
1
1
1
1
1
1
1
1
1
1
1
1
1
1
1
1
1
1
1
1
1
1
1
1
1
1
1
1
1
1
1
1
1
1
1
1
1
1
1
1
1
1
1
1
1
1
1
1
1
1
1
1
1
1
1
1
1
1
1
1
1
1
1
1
1
1
1
1
1
1
1
1
1
1
1
1
1
1
1
1
1
1
1
1
1
1
1
1
1
1
1
1
1
1
1
1
1
1
1
1
1
1
1
1
1
1
1
1
1
1
1
1
1
1
1
1
1
1
1
1
1
1
1
1
1
1
1
1
1
1
1
1
1
1
1
1
1
1
1
1
1
1
1
1
1
1
1
1
1
1
1
1
1
1
1
1
1
1
1
1
1
1
1
1
1
1
1
1
1
1
1
1
1
1
1
1
1
1
1
1
1
1
1
1
1
1
1
1
1
1
1
1
1
1
1
1
1
1
1
1
1
1
1
1
1
1
1
1
1
1
1
1
1
1
1
1
1
1
1
1
1
1
1
1
1
1
1
1
1
1
1
1
1
1
1
1
1
1
1
1
1
1
1
1
1
1
1
1
1
1
1
1
1
1
1
1
1
1
1
1
1
1
1
1
1
1
1
1
1
1
1
1
1
1
1
1
1
1
1
1
1
1
1
1
1
1
1
1
1
1
1
1
1
1
1
1
1
1
1
1
1
1
1
1
1
1
1
1
1
1
1
1
1
1
1
1
1
1
1
1
1
1
1
1
1
1
1
1
1
1
1
1
1
1
1
1
1
1
1
1
1
1
1
1
1
1
1
1
1
1
1
1
1
1
1
1
1
1
1
1
1
1
1
1
1
1
1
1
1
1
1
1
1
1
1
1
1
1
1
1
1
1
1
1
1
1
1
1
1
1
1
1
1
1
1
1
1
1
1
1
1
1
1
1
1
1
1
1
1
1
1
1
1
1
1
1
1
1
1
1
1
1
1
1
1
1
1
1
1
1
1
1
1
1
1
1
1
1
1
1
1
1
1
1
1
1
1
1
1
1
1
1
1
1
1
1
1
1
1
1
1
1
1
1
1
1
1
1
1
1
1
1
1
1
1
1
1
1
1
1
1
1
1
1
1
1
1
1
1
1
1
1
1
1
1
1
1
1
1
1
1
1
1
1
1
1
1
1
1
1
1
1
1
1
1
1
1
1
1
1
1
1
1
1
1
1
1
1
1
1
1
1
1
1
1
1
1
1
1
1
1
1
1
1
1
1
1
1
1
1
1
1
1
1
1
1
1
1
1
1
1
1
1
1
1
1
1
1
1
1
1
1
1
1
1
1
1
1
1
1
1
1
1
1
1
1
1
1
1
1
1
1
1
1
1
1
1
1
1
1
1
1
1
1
1
1
1
1
1
1
1
1
1
1
1
1
1
1
1
1
1
1
1
1
1
1
1
1
1
1
1
1
1
1
1
1
1
1
1
1
1
1
1
1
1
1
1
1
1
1
1
1
1
1
1
1
1
1
1
1
1
1
1
1
1
1
1
1
1
1
1
1
1
1
1
1
1
1
1
1
1
1
1
1
1
1
1
1
1
1
1
1
1
1
1
1
1
1
1
1
1
1
1
1
1
1
1
1
1
1
1
1
1
1
1
1
1
1
1
1
1
1
1
1
1
1
1
1
1
1
1
1
1
1
1
1
1
1
1
1
1
1
1
1
1
1
1
1
1
1
1
1
1
1
1
1
1
1
1
1
1
1
1
1
1
1
1
1
1
1
1
1
1
1
1
1
1
1
1
1
1
1
1
1
1
1
1
1
1
1
1
1
1
1
1
1
1
1
1
1
1
1
1
1
1
1
1
1
1
1
1
1
1
1
1
1
1
1
1
1
1
1
1
1
1
1
1
1
1
1
1
1
1
1
1
1
1
1
1
1
1
1
1
1
1
1
1
1
1
1
1
1
1
1
1
1
1
1
1
1
1
1
1
1
1
1
1
1
1
1
1
1
1
1
1
1
1
1
1
1
1
1
1
1
1
1
1
1
1
1
1
1
1
1
1
1
1
1
1
1
1
1
1
1
1
1
1
1
1
1
1
1
1
1
1
1
1
1
1
1
1
1
1
1
1
1
1
1
1
1
1
1
1
1
1
1
1
1
1
1
1
1
1
1
1
1
1
1
1
1
1
1
1
1
1
1
1
1
1
1
1
1
1
1
1
1
1
1
1
1
1
1
1
1
1
1
1
1
1
1
1
1
1
1
1
1
1
1
1
1
1
1
1
1
1
1
1
1
1
1
1
1
1
1
1
1
1
1
1
1
1
1
1
1
1
1
1
1
1
1
1
1
1
1
1
1
1
1
1
1
1
1
1
1
1
1
1
1
1
1
1
1
1
1
1
1
1
1
1
1
1
1
1
1
1
1
1
1
1
1
1
1
1
1
1
1
1
1
1
1
1
1
1
1
1
1
1
1
1
1
1
1
1
1
1
1
1
1
2.75399e-08
4.25578e-08
4.81036e-08
4.7784e-08
4.24838e-08
3.6012e-08
3.05497e-08
2.58728e-08
2.18404e-08
1.84946e-08
1.57279e-08
1.33542e-08
1.11719e-08
8.99903e-09
7.71442e-09
6.21266e-09
4.58511e-09
2.75387e-09
1.16517e-09
7.94004e-11
7.42299e-214
7.42299e-214
1.20569e-209
3.13269e-205
7.31113e-201
1.50505e-196
2.67431e-192
4.11846e-188
5.4925e-184
6.31915e-180
6.23176e-176
5.21806e-172
3.65389e-168
2.08892e-164
9.59699e-161
3.50642e-157
9.3035e-154
1.7561e-150
1.98608e-147
9.62451e-145
9.56856e-145
1.09359e-148
7.99377e-154
1.84556e-159
3.91973e-164
6.6073e-169
1.4757e-173
4.89656e-178
1.92924e-182
8.24686e-187
0
-7.1503e-150
0
-2.37609e-114
0
0
-1.17658e-86
0
0
0
-1.08742e-270
-2.89535e-226
-6.18364e-182
1.86747e-09
5.56917e-09
1.0055e-08
1.75018e-08
2.46694e-08
3.14372e-08
3.68873e-08
4.06471e-08
4.35017e-08
4.48547e-08
4.73419e-08
5.07154e-08
5.77735e-08
6.84337e-08
8.46337e-08
8.97319e-08
8.48215e-08
1.98703e-22
1.74822e-22
2.58216e-22
3.00007e-22
2.83168e-22
2.42474e-22
1.94601e-22
1.52243e-22
1.12678e-22
8.33568e-23
5.95361e-23
4.27716e-23
2.92426e-23
2.00612e-23
1.33393e-23
8.0145e-24
3.96314e-24
1.3561e-24
-2.59702e-30
-2.54527e-32
8.06872e-205
3.01476e-200
5.52879e-196
1.01191e-191
1.74309e-187
2.71136e-183
3.77962e-179
4.68157e-175
5.10258e-171
4.83938e-167
3.94012e-163
2.70294e-159
1.52078e-155
6.87699e-152
3.17833e-149
2.18096e-148
3.50784e-145
8.72124e-142
1.85958e-139
1.19183e-138
1.18341e-138
1.61049e-139
1.30543e-148
7.27981e-150
8.30799e-151
2.39902e-155
3.95606e-160
8.60871e-165
2.77457e-169
1.06059e-173
4.40383e-178
1.93883e-182
4.28807e-191
2.11618e-195
1.06719e-199
5.45868e-204
2.84979e-208
1.54578e-212
8.32567e-217
4.42516e-221
2.30677e-225
0
-8.08354e-70
-3.522e-35
6.49106e-24
2.17211e-23
5.41763e-23
1.02394e-22
1.65008e-22
2.30432e-22
2.95979e-22
3.55885e-22
4.08906e-22
4.66353e-22
5.31343e-22
6.17569e-22
7.14719e-22
7.9491e-22
6.80294e-22
1.09672e-21
1.50222e-27
1.3245e-27
1.93686e-27
2.23794e-27
2.08937e-27
1.76134e-27
1.35797e-27
1.00977e-27
7.06438e-28
4.87731e-28
3.21744e-28
2.09202e-28
1.27834e-28
7.53973e-29
4.15491e-29
1.7623e-29
4.00725e-30
-1.67953e-30
-1.68109e-30
-1.90631e-32
2.11476e-199
7.83889e-195
1.42315e-190
2.57748e-186
4.40598e-182
6.77556e-178
9.30631e-174
1.13157e-169
1.20694e-165
1.11769e-161
8.87683e-158
5.93753e-154
2.94887e-150
4.08226e-149
1.44175e-146
3.8889e-143
7.20558e-140
1.75387e-136
3.68618e-134
2.33942e-133
2.3222e-133
3.17958e-134
3.49937e-140
1.17556e-145
3.30657e-150
3.62778e-150
6.78638e-155
1.10279e-159
3.13582e-164
1.19331e-168
5.06005e-173
2.28583e-177
1.08267e-181
5.32178e-186
2.69152e-190
1.38977e-194
7.2753e-199
3.8777e-203
2.12175e-207
1.1521e-211
6.16894e-216
1.61936e-220
-1.34784e-75
-6.71677e-41
3.67101e-29
1.45124e-28
3.83296e-28
7.67003e-28
1.30387e-27
1.89519e-27
2.54029e-27
3.15063e-27
3.75131e-27
4.38445e-27
5.11621e-27
6.12804e-27
7.1966e-27
8.11497e-27
6.93067e-27
1.13766e-26
2.27648e-30
1.92582e-30
2.72461e-30
3.03167e-30
2.72413e-30
2.20317e-30
1.67947e-30
1.24834e-30
8.7605e-31
6.13806e-31
4.13312e-31
2.78625e-31
1.79807e-31
1.18745e-31
7.31347e-32
3.99962e-32
1.77341e-32
5.24438e-33
7.98361e-34
1.4271e-36
4.22951e-199
1.06537e-189
1.90562e-185
3.39732e-181
5.72916e-177
8.65742e-173
1.164e-168
1.3813e-164
1.43413e-160
1.2904e-156
9.9555e-153
2.27186e-149
1.3248e-148
4.41484e-145
1.54531e-141
4.06822e-138
7.36757e-135
1.76241e-131
3.63513e-129
2.28302e-128
2.26551e-128
3.12007e-129
5.28631e-135
1.2512e-140
1.17551e-145
1.46554e-149
3.90611e-150
7.63528e-155
1.51175e-159
5.23995e-164
2.22586e-168
1.02596e-172
4.9754e-177
2.50425e-181
1.2964e-185
6.84586e-190
3.66056e-194
1.99083e-198
1.10353e-202
6.06728e-207
3.28888e-211
1.74694e-215
-4.6648e-81
1.09957e-33
2.49384e-32
1.06704e-31
3.01858e-31
6.44118e-31
1.14886e-30
1.73755e-30
2.38207e-30
3.03099e-30
3.66044e-30
4.38609e-30
5.24173e-30
6.51237e-30
7.96459e-30
9.35677e-30
8.16821e-30
1.39026e-29
2.17645e-35
1.86499e-35
2.63876e-35
2.93006e-35
2.62132e-35
2.11017e-35
1.58714e-35
1.16115e-35
7.95135e-36
5.42544e-36
3.52472e-36
2.28229e-36
1.39339e-36
8.64656e-37
4.95227e-37
2.48852e-37
9.93976e-38
2.59823e-38
5.73711e-39
1.54387e-41
2.91016e-194
1.00323e-184
1.75535e-180
3.0574e-176
5.0566e-172
7.46908e-168
9.78536e-164
1.12837e-159
1.13554e-155
9.853e-152
3.6012e-149
1.38858e-147
7.41423e-144
3.22128e-140
1.09988e-136
2.82286e-133
4.99515e-130
1.18007e-126
2.37599e-124
1.47558e-123
1.46386e-123
2.02752e-124
3.57036e-130
8.82493e-136
1.2512e-140
2.5624e-145
1.09756e-149
2.81312e-150
5.86824e-155
1.42341e-159
5.54973e-164
2.55398e-168
1.26047e-172
6.48579e-177
3.43535e-181
1.85552e-185
1.01424e-189
5.64447e-194
3.19029e-198
1.78715e-202
9.86152e-207
5.32817e-211
-4.91257e-86
1.39015e-38
1.8873e-37
7.37551e-37
2.23568e-36
5.05211e-36
9.45223e-36
1.48577e-35
2.10755e-35
2.75183e-35
3.40356e-35
4.13222e-35
4.99357e-35
6.2231e-35
7.60236e-35
8.90899e-35
7.76866e-35
1.3017e-34
2.96025e-40
2.54365e-40
3.59426e-40
3.97394e-40
3.52823e-40
2.81519e-40
2.08463e-40
1.49787e-40
1.00007e-40
6.6338e-41
4.15514e-41
2.58148e-41
1.49308e-41
8.70038e-42
4.62869e-42
2.1321e-42
7.64945e-43
1.76035e-43
1.70421e-44
2.43486e-47
2.7923e-189
7.291e-180
1.2397e-175
2.09528e-171
3.38266e-167
4.86224e-163
6.18192e-159
6.90068e-155
6.56916e-151
4.00994e-149
1.2481e-146
7.91001e-143
4.14566e-139
1.75149e-135
5.83021e-132
1.45811e-128
2.52046e-125
5.90813e-122
1.15527e-119
7.08922e-119
7.03131e-119
9.79368e-120
1.79308e-125
4.63098e-131
8.82493e-136
1.52349e-140
1.5028e-145
7.42075e-150
1.96099e-150
4.21881e-155
1.17903e-159
4.89859e-164
2.37446e-168
1.23109e-172
6.62494e-177
3.64838e-181
2.0359e-185
1.16349e-189
6.74722e-194
3.87366e-198
2.18813e-202
1.209e-206
-3.5078e-91
5.37897e-44
1.40011e-42
6.95986e-42
2.26667e-41
5.435e-41
1.0692e-40
1.75132e-40
2.57482e-40
3.45725e-40
4.38386e-40
5.4167e-40
6.64038e-40
8.34431e-40
1.02468e-39
1.2047e-39
1.04986e-39
1.75516e-39
5.21564e-45
4.47968e-45
6.31434e-45
6.94521e-45
6.11213e-45
4.82544e-45
3.51554e-45
2.47846e-45
1.61329e-45
1.03963e-45
6.27871e-46
3.74197e-46
2.05334e-46
1.12398e-46
5.5534e-47
2.34443e-47
7.56046e-48
1.53047e-48
1.26218e-49
1.47015e-52
2.07977e-184
4.32821e-175
7.10792e-171
1.15802e-166
1.81672e-162
2.53083e-158
3.1113e-154
3.03782e-150
4.41464e-149
8.02731e-146
5.87033e-142
3.61448e-138
1.83928e-134
7.54968e-131
2.44868e-127
5.96531e-124
1.00706e-120
2.35283e-117
4.44579e-115
2.69355e-114
2.67107e-114
3.74167e-115
7.12633e-121
1.92458e-126
4.63096e-131
7.18895e-136
7.70978e-141
7.72815e-146
6.09601e-150
1.47056e-150
3.56671e-155
1.12447e-159
4.82057e-164
2.3785e-168
1.25535e-172
6.87896e-177
3.85214e-181
2.26096e-185
1.35341e-189
8.00875e-194
4.65699e-198
2.64516e-202
-3.19347e-96
5.54974e-49
1.5591e-47
8.39059e-47
2.93747e-46
7.47535e-46
1.54684e-45
2.64227e-45
4.02871e-45
5.56874e-45
7.24217e-45
9.12054e-45
1.13562e-44
1.4421e-44
1.78381e-44
2.10869e-44
1.84132e-44
3.07561e-44
1.12785e-49
9.67304e-50
1.35922e-49
1.48672e-49
1.29644e-49
1.01202e-49
7.25396e-50
5.01706e-50
3.186e-50
1.99547e-50
1.16289e-50
6.65061e-51
3.46587e-51
1.78348e-51
8.19564e-52
3.17176e-52
9.19641e-53
1.63985e-53
1.15334e-54
1.09253e-57
1.27224e-179
2.16839e-170
3.41904e-166
5.33588e-162
8.10123e-158
1.08958e-153
9.30387e-150
7.47123e-149
3.88098e-145
3.21988e-141
2.28233e-137
1.36244e-133
6.72509e-130
2.67985e-126
8.46566e-123
2.00819e-119
3.31032e-116
7.74174e-113
1.40671e-110
8.40779e-110
8.33652e-110
1.17468e-110
2.32923e-116
6.58387e-122
1.71982e-126
2.79963e-131
3.26999e-136
3.61701e-141
4.65485e-146
6.31137e-150
1.35343e-150
4.22906e-155
1.5595e-159
7.0436e-164
3.52532e-168
1.86559e-172
1.02133e-176
6.18866e-181
3.84749e-185
2.36044e-189
1.42058e-193
8.33751e-198
-3.57173e-101
7.00147e-54
2.12607e-52
1.23893e-51
4.65981e-51
1.25796e-50
2.73708e-50
4.87566e-50
7.70775e-50
1.09706e-49
1.46306e-49
1.87867e-49
2.37667e-49
3.05241e-49
3.80708e-49
4.52645e-49
3.96651e-49
6.62091e-49
2.89488e-54
2.4784e-54
3.4706e-54
3.77454e-54
3.26154e-54
2.5181e-54
1.77677e-54
1.20567e-54
7.47086e-55
4.54617e-55
2.55774e-55
1.40381e-55
6.95694e-56
3.36951e-56
1.44229e-56
5.12808e-57
1.34125e-57
2.10966e-58
1.26852e-59
9.75221e-63
6.60061e-175
9.35032e-166
1.40771e-161
2.09214e-157
3.06205e-153
1.84612e-149
1.66102e-148
1.46569e-144
1.36265e-140
1.09453e-136
7.51225e-133
4.34384e-129
2.07824e-125
8.03448e-122
2.47129e-118
5.70649e-115
9.18298e-112
2.15846e-108
3.75364e-106
2.21132e-105
2.19238e-105
3.10851e-106
6.4239e-112
1.90266e-117
5.27545e-122
9.23954e-127
1.17772e-131
1.44067e-136
2.06725e-141
3.86309e-146
7.39207e-150
1.66943e-150
7.03283e-155
3.07373e-159
1.51628e-163
7.96746e-168
4.34721e-172
2.78526e-176
1.80754e-180
1.15523e-184
7.22843e-189
4.4025e-193
-4.78945e-106
1.05341e-58
3.45704e-57
2.17965e-56
8.79681e-56
2.51692e-55
5.75362e-55
1.06825e-54
1.74974e-54
2.56375e-54
3.50449e-54
4.58816e-54
5.89698e-54
7.66125e-54
9.63775e-54
1.15274e-53
1.0143e-53
1.69204e-53
8.6187e-59
7.36556e-59
1.02805e-58
1.11193e-58
9.52289e-59
7.26741e-59
5.04849e-59
3.36117e-59
2.03386e-59
1.20325e-59
6.54256e-60
3.44945e-60
1.6281e-60
7.43354e-61
2.96936e-61
9.72011e-62
2.29969e-62
3.2024e-63
1.65154e-64
1.02915e-67
2.96077e-170
3.54648e-161
5.07067e-157
7.13211e-153
2.62685e-149
4.02925e-148
4.45617e-144
4.59284e-140
4.12919e-136
3.20783e-132
2.13001e-128
1.19213e-124
5.52463e-121
2.07095e-117
6.20102e-114
1.39337e-110
2.18839e-107
5.18952e-104
8.59721e-102
4.98725e-101
4.94433e-101
7.0576e-102
1.5221e-107
4.73024e-113
1.39453e-117
2.63326e-122
3.6717e-127
4.97873e-132
7.99546e-137
1.66395e-141
3.86331e-146
9.28615e-150
2.61916e-150
1.47219e-154
7.43016e-159
4.01753e-163
2.27022e-167
1.56186e-171
1.06232e-175
7.09985e-180
4.63533e-184
2.93956e-188
-7.57124e-111
1.85772e-63
6.58045e-62
4.48229e-61
1.93779e-60
5.86836e-60
1.40773e-59
2.72181e-59
4.6147e-59
6.95661e-59
9.74019e-59
1.29978e-58
1.69661e-58
2.2296e-58
2.82904e-58
3.40392e-58
3.00785e-58
5.01532e-58
2.92633e-63
2.49729e-63
3.4727e-63
3.735e-63
3.17076e-63
2.39254e-63
1.63733e-63
1.07013e-63
6.32944e-64
3.64369e-64
1.91716e-64
9.72188e-65
4.37782e-65
1.88778e-65
7.05296e-66
2.13104e-66
4.57548e-67
5.66371e-68
2.51582e-69
1.26972e-72
1.17289e-165
1.19022e-156
1.60821e-152
3.12608e-149
8.80487e-148
1.11479e-143
1.26383e-139
1.25858e-135
1.09314e-131
8.20659e-128
5.26801e-124
2.85202e-120
1.27951e-116
4.64827e-113
1.35472e-109
2.96114e-106
4.53779e-103
1.08957e-99
1.71158e-97
9.76665e-97
9.68246e-97
1.39228e-97
3.13879e-103
1.02511e-108
3.21986e-113
6.57087e-118
1.00505e-122
1.51602e-127
2.73277e-132
6.3619e-137
1.66395e-141
4.60698e-146
1.22027e-149
4.66984e-150
3.58647e-154
2.02742e-158
1.24626e-162
9.04197e-167
6.46915e-171
4.53639e-175
3.10013e-179
2.05314e-183
-1.39411e-115
3.79276e-68
1.44697e-66
1.06256e-65
4.91016e-65
1.57122e-64
3.94914e-64
7.94196e-64
1.39216e-63
2.15744e-63
3.09139e-63
4.20257e-63
5.56837e-63
7.40015e-63
9.4694e-63
1.146e-62
1.01695e-62
1.69502e-62
1.1184e-67
9.52872e-68
1.32025e-67
1.41233e-67
1.18895e-67
8.87402e-68
5.98704e-68
3.84414e-68
2.2248e-68
1.24759e-68
6.36121e-69
3.10719e-69
1.33756e-69
5.45924e-70
1.91263e-70
5.35004e-71
1.0463e-71
1.15633e-72
4.44748e-74
1.81752e-77
4.43725e-161
3.52331e-152
3.46525e-149
1.76384e-147
2.33411e-143
2.89152e-139
3.1645e-135
3.04205e-131
2.55075e-127
1.84929e-123
1.14693e-119
6.003e-116
2.60586e-112
9.16996e-109
2.60108e-105
5.52845e-102
8.2637e-99
2.01594e-95
2.98896e-93
1.6757e-92
1.66127e-92
2.40834e-93
5.68642e-99
1.95532e-104
6.55908e-109
1.45074e-113
2.44216e-118
4.11248e-123
8.34863e-128
2.18262e-132
6.3619e-137
1.93755e-141
7.43476e-146
1.70477e-149
8.51995e-150
9.7981e-154
6.66691e-158
5.11926e-162
3.86504e-166
2.85258e-170
2.04627e-174
1.41893e-178
-2.96373e-120
8.88298e-73
3.6396e-71
2.87374e-70
1.41585e-69
4.77746e-69
1.25585e-68
2.6231e-68
4.74723e-68
7.55503e-68
1.10676e-67
1.53168e-67
2.05874e-67
2.76567e-67
3.5681e-67
4.34231e-67
3.86925e-67
6.44708e-67
4.76149e-72
4.04989e-72
5.59173e-72
5.9512e-72
4.97041e-72
3.67146e-72
2.44401e-72
1.54296e-72
8.7485e-73
4.78483e-73
2.36807e-73
1.11613e-73
4.60322e-74
1.78275e-74
5.87406e-75
1.52633e-75
2.73034e-76
2.70739e-77
9.07042e-79
3.00214e-82
7.49074e-152
3.70014e-149
3.48135e-147
4.43163e-143
5.58015e-139
6.6679e-135
7.03846e-131
6.52666e-127
5.2801e-123
3.69485e-119
2.2129e-115
1.1192e-111
4.69867e-108
1.60084e-104
4.41922e-101
9.12948e-98
1.33058e-94
3.30856e-91
4.60847e-89
2.53501e-88
2.5132e-88
3.67651e-89
9.11191e-95
3.30594e-100
1.18762e-104
2.85649e-109
5.31232e-114
1.00259e-118
2.30041e-123
6.77897e-128
2.18262e-132
7.3612e-137
3.07141e-141
1.4977e-145
2.67328e-149
1.48973e-149
3.42739e-153
2.79434e-157
2.23284e-161
1.7388e-165
1.31231e-169
9.54777e-174
-7.22608e-125
2.37042e-77
1.03947e-75
8.79737e-75
4.60765e-74
1.63555e-73
4.48701e-73
9.71707e-73
1.8127e-72
2.95886e-72
4.4262e-72
6.23056e-72
8.48881e-72
1.15213e-71
1.49806e-71
1.83274e-71
1.63961e-71
2.731e-71
2.2389e-76
1.90115e-76
2.61625e-76
2.77116e-76
2.29745e-76
1.68055e-76
1.10482e-76
6.86506e-77
3.81851e-77
2.0399e-77
9.81712e-78
4.47359e-78
1.77203e-78
6.53017e-79
2.03023e-79
4.91913e-80
8.086e-81
7.23372e-82
2.12517e-83
5.70163e-87
3.71357e-149
6.43816e-147
8.31624e-143
1.00393e-138
1.19219e-134
1.37278e-130
1.39672e-126
1.24864e-122
9.74166e-119
6.57672e-115
3.80205e-111
1.85733e-107
7.53762e-104
2.49045e-100
6.6766e-97
1.33996e-93
1.90337e-90
4.8388e-87
6.30195e-85
3.39613e-84
3.3669e-84
4.97526e-85
1.29755e-90
4.97958e-96
1.92186e-100
5.04601e-105
1.04123e-109
2.21199e-114
5.75822e-119
1.91936e-123
6.77897e-128
2.54401e-132
1.16251e-136
6.13131e-141
3.56424e-145
4.91603e-149
2.79657e-149
1.45526e-152
1.23437e-156
1.01648e-160
8.08666e-165
6.18321e-169
-2.01027e-129
7.16948e-82
3.35173e-80
3.0297e-79
1.68133e-78
6.26128e-78
1.78841e-77
4.00759e-77
7.69224e-77
1.28595e-76
1.96172e-76
2.80592e-76
3.87168e-76
5.30562e-76
6.94949e-76
8.54374e-76
7.67266e-76
1.27745e-75
1.15425e-80
9.78688e-81
1.34266e-80
1.41594e-80
1.16598e-80
8.45223e-81
5.4932e-81
3.3634e-81
1.83796e-81
9.60596e-82
4.50427e-82
1.98889e-82
7.58687e-83
2.66861e-83
7.85673e-84
1.78254e-84
2.70617e-85
2.19728e-86
5.70236e-88
1.24183e-91
1.15998e-146
1.55143e-142
1.82533e-138
2.07631e-134
2.31822e-130
2.53038e-126
2.48027e-122
2.13682e-118
1.60712e-114
1.04637e-110
5.83665e-107
2.75277e-103
1.07942e-99
3.4624e-96
9.00016e-93
1.75378e-89
2.42676e-86
6.32565e-83
7.666e-81
4.04034e-80
4.00539e-80
5.98531e-81
1.64712e-86
6.70515e-92
2.7905e-96
8.03325e-101
1.84829e-105
4.44121e-110
1.31696e-114
4.98186e-119
1.91936e-123
8.04867e-128
4.0503e-132
2.32473e-136
1.45787e-140
9.69041e-145
2.27765e-147
3.43288e-149
6.43327e-152
5.62402e-156
4.7236e-160
3.80059e-164
-6.35507e-134
2.44786e-86
1.21474e-84
1.16806e-83
6.84325e-83
2.66551e-82
7.90562e-82
1.82901e-81
3.60488e-81
6.16195e-81
9.57197e-81
1.38957e-80
1.93989e-80
2.68212e-80
3.53707e-80
4.36799e-80
3.93672e-80
6.55102e-80
6.48436e-85
5.49106e-85
7.51198e-85
7.89081e-85
6.45833e-85
4.64336e-85
2.98662e-85
1.80422e-85
9.70162e-86
4.96957e-86
2.27536e-86
9.75902e-87
3.59555e-87
1.21123e-87
3.39015e-88
7.23516e-89
1.02001e-89
7.56572e-91
1.74825e-92
3.09653e-96
2.26538e-143
2.65925e-138
3.64513e-134
3.90289e-130
4.08672e-126
4.18215e-122
3.94885e-118
3.27762e-114
2.37568e-110
1.49122e-106
8.02285e-103
3.65164e-99
1.38284e-95
4.30765e-92
1.08483e-88
2.05114e-85
2.76328e-82
7.4051e-79
8.3097e-77
4.27492e-76
4.23749e-76
6.41072e-77
1.86716e-82
8.0889e-88
3.64535e-92
1.15643e-96
2.98331e-101
8.15134e-106
2.765e-110
1.19088e-114
4.98186e-119
2.34294e-123
1.3045e-127
8.18713e-132
5.56664e-136
4.19898e-140
1.02559e-142
9.66275e-147
3.78401e-149
2.89894e-151
2.59785e-155
2.20152e-159
-2.27529e-138
9.40396e-91
4.9305e-89
5.02136e-88
3.09338e-87
1.25606e-86
3.85695e-86
9.18984e-86
1.85579e-85
3.2376e-85
5.11299e-85
7.52377e-85
1.06153e-84
1.47959e-84
1.96329e-84
2.43422e-84
2.20112e-84
3.66063e-84
3.94808e-89
3.33976e-89
4.55753e-89
4.77085e-89
3.88388e-89
2.77206e-89
1.76669e-89
1.05446e-89
5.58887e-90
2.81137e-90
1.25982e-90
5.26239e-91
1.8785e-91
6.0827e-92
1.62537e-92
3.27901e-93
4.31784e-94
2.946e-95
6.113e-97
8.82996e-101
5.05525e-139
4.98751e-134
6.55567e-130
6.60275e-126
6.47738e-122
6.20733e-118
5.64245e-114
4.5109e-110
3.15007e-106
1.9057e-102
9.88547e-99
4.34034e-95
1.58653e-91
4.80032e-88
1.17052e-84
2.1459e-81
2.81288e-78
7.76888e-75
8.03193e-73
4.02438e-72
3.98836e-72
6.1159e-73
1.89143e-78
8.75248e-84
4.29197e-88
1.50906e-92
4.39245e-97
1.37267e-101
5.34995e-106
2.63176e-110
1.19088e-114
6.30184e-119
3.8962e-123
2.68496e-127
1.987e-131
1.74902e-135
4.33329e-138
4.33568e-142
4.18419e-146
4.00935e-149
1.29166e-150
1.20302e-154
-9.19905e-143
4.05405e-95
2.23461e-93
2.39892e-92
1.54733e-91
6.52591e-91
2.06812e-90
5.06111e-90
1.04466e-89
1.8564e-89
2.97532e-89
4.43164e-89
6.31174e-89
8.8607e-89
1.18218e-88
1.47088e-88
1.33398e-88
2.21694e-88
2.59284e-93
2.19153e-93
2.98423e-93
3.11477e-93
2.52412e-93
1.79019e-93
1.13192e-93
6.68495e-94
3.49885e-94
1.73202e-94
7.61513e-95
3.10675e-95
1.07809e-95
3.36866e-96
8.63229e-97
1.65478e-97
2.04791e-98
1.29468e-99
2.43412e-101
2.87708e-105
1.01813e-134
8.50749e-130
1.07284e-125
1.01613e-121
9.33364e-118
8.36263e-114
7.23649e-110
5.57113e-106
3.74738e-102
2.18435e-98
1.09212e-94
4.62356e-91
1.63047e-87
4.793e-84
1.13087e-80
2.00862e-77
2.56016e-74
7.30381e-71
6.92131e-69
3.36916e-68
3.33795e-68
5.19429e-69
1.71174e-74
8.49672e-80
4.55887e-84
1.78821e-88
5.91429e-93
2.12734e-97
9.57072e-102
5.34995e-106
2.63176e-110
1.57114e-114
1.08213e-118
8.21684e-123
6.65308e-127
1.51794e-129
1.73001e-133
1.83142e-137
1.87281e-141
1.83838e-145
4.95511e-149
5.17634e-150
-4.18891e-147
1.95662e-99
1.12796e-97
1.26996e-96
8.53741e-96
3.72546e-95
1.21432e-94
3.04329e-94
6.40431e-94
1.15673e-93
1.87801e-93
2.82708e-93
4.05937e-93
5.73404e-93
7.68637e-93
9.59147e-93
8.7214e-93
1.44823e-92
1.82877e-97
1.54483e-97
2.09994e-97
2.18662e-97
1.76538e-97
1.24548e-97
7.82329e-98
4.57916e-98
2.37125e-98
1.15774e-98
5.00737e-99
2.00126e-99
6.7749e-100
2.05125e-100
5.06473e-101
9.27649e-102
1.08595e-102
6.40995e-104
1.10218e-105
1.07049e-109
1.87221e-130
1.69089e-125
1.60905e-121
1.43344e-117
1.23275e-113
1.02946e-109
8.32437e-106
6.17037e-102
3.99707e-98
2.24434e-94
1.08118e-90
4.41167e-87
1.50009e-83
4.2863e-80
9.77811e-77
1.68122e-73
2.08221e-70
6.14819e-67
5.31223e-65
2.50517e-64
2.4808e-64
3.92212e-65
1.3825e-70
7.39671e-76
4.36995e-80
1.92659e-84
7.29738e-89
3.04182e-93
1.58719e-97
9.57072e-102
5.39372e-106
3.64093e-110
2.80138e-114
2.35056e-118
2.19307e-122
5.54617e-125
6.48782e-129
7.29154e-133
7.88537e-137
8.15015e-141
8.01586e-145
9.46579e-149
0
1.05496e-103
6.32624e-102
7.43022e-101
5.18102e-100
2.32955e-99
7.78186e-99
1.99104e-98
4.26023e-98
7.80297e-98
1.28077e-97
1.94543e-97
2.81246e-97
3.99313e-97
5.37355e-97
6.72105e-97
6.12483e-97
1.01611e-96
1.37979e-101
1.1652e-101
1.58181e-101
1.6442e-101
1.32367e-101
9.29986e-102
5.81134e-102
3.37691e-102
1.73361e-102
8.36789e-103
3.57028e-103
1.40222e-103
4.64813e-104
1.36958e-104
3.27451e-105
5.76348e-106
6.42519e-107
3.56911e-108
5.66721e-110
4.54505e-114
2.15905e-125
2.46234e-121
2.16087e-117
1.81256e-113
1.4604e-109
1.13641e-105
8.57485e-102
6.11941e-98
3.81736e-94
2.06433e-90
9.579e-87
3.76571e-83
1.23399e-79
3.42932e-76
7.55811e-73
1.25679e-69
1.51147e-66
4.62695e-63
3.62549e-61
1.65107e-60
1.63393e-60
2.62738e-61
9.94659e-67
5.76747e-72
3.77918e-76
1.88856e-80
8.26395e-85
4.02103e-89
2.44538e-93
1.58719e-97
1.02799e-101
7.86343e-106
6.77231e-110
6.29175e-114
7.11546e-118
1.83078e-120
2.28401e-124
2.72366e-128
3.11104e-132
3.38143e-136
3.48295e-140
2.6731e-144
1.33224e-149
6.34146e-108
3.93364e-106
4.79267e-105
3.44891e-104
1.59097e-103
5.42609e-103
1.4127e-102
3.06474e-102
5.67854e-102
9.40367e-102
1.4388e-101
2.09125e-101
2.98107e-101
4.02373e-101
5.04131e-101
4.60224e-101
7.62707e-101
1.10956e-105
9.36972e-106
1.27087e-105
1.31948e-105
1.06022e-105
7.4267e-106
4.62354e-106
2.67197e-106
1.36311e-106
6.52181e-107
2.75309e-107
1.0661e-107
3.47377e-108
1e-108
2.32718e-109
3.95985e-110
4.23325e-111
2.23107e-112
3.30199e-114
7.57687e-118
2.77567e-121
3.20157e-117
2.66177e-113
2.10482e-109
1.59035e-105
1.15405e-101
8.09117e-98
5.42386e-94
3.25769e-90
1.69637e-86
7.58011e-83
2.86984e-79
9.05832e-76
2.45041e-72
5.21343e-69
8.3758e-66
9.7751e-63
3.10645e-59
2.19511e-57
9.61869e-57
9.51022e-57
1.55698e-57
6.35872e-63
4.02081e-68
2.94634e-72
1.68491e-76
8.59926e-81
4.92141e-85
3.50568e-89
2.44538e-93
1.826e-97
1.58665e-101
1.5317e-105
1.57804e-109
3.84819e-112
5.67776e-116
7.51194e-120
9.51076e-124
1.14541e-127
1.30661e-131
1.40644e-135
1.42341e-139
1.34912e-143
4.24111e-112
2.70569e-110
3.39989e-109
2.51185e-108
1.18342e-107
4.1046e-107
1.08372e-106
2.37668e-106
4.4436e-106
7.4082e-106
1.13972e-105
1.66303e-105
2.37738e-105
3.21565e-105
4.03305e-105
3.68666e-105
6.10246e-105
9.47701e-110
8.00503e-110
1.08533e-109
1.12629e-109
9.04118e-110
6.32203e-110
3.9277e-110
2.26203e-110
1.14895e-110
5.46168e-111
2.28751e-111
8.76422e-112
2.81824e-112
7.9686e-113
1.81346e-113
3.00179e-114
3.09932e-115
1.42101e-116
2.15637e-117
1.74423e-117
3.23525e-117
3.71414e-113
2.93266e-109
2.19096e-105
1.55531e-101
1.05407e-97
6.85887e-94
4.28548e-90
2.47712e-86
1.24199e-82
5.34313e-79
1.94755e-75
5.959e-72
1.56013e-68
3.20156e-65
4.96443e-62
5.61921e-59
1.85549e-55
1.17558e-53
4.93613e-53
4.87455e-53
8.13264e-54
3.60075e-59
2.50048e-64
2.06841e-68
1.36814e-72
8.22875e-77
5.58188e-81
4.67933e-85
3.50568e-89
3.02839e-93
2.99609e-97
3.24747e-101
4.15328e-105
1.10916e-107
1.64193e-111
2.3085e-115
3.09078e-119
3.91545e-123
4.67556e-127
5.24476e-131
4.59551e-135
2.85505e-140
3.14908e-116
2.054e-114
2.64603e-113
1.99628e-112
9.56117e-112
3.35886e-111
8.96173e-111
1.98078e-110
3.72726e-110
6.24204e-110
9.63812e-110
1.40971e-109
2.01854e-109
2.73346e-109
3.4295e-109
3.13761e-109
5.18675e-109
8.56957e-114
7.24265e-114
9.82058e-114
1.01929e-113
8.18235e-114
5.71951e-114
3.55149e-114
2.0416e-114
1.03466e-114
4.89945e-115
2.04209e-115
7.76829e-116
2.47519e-116
6.90684e-117
1.54626e-117
2.50299e-118
2.40276e-119
1.46593e-117
2.4935e-117
5.19431e-117
4.81557e-113
3.86232e-109
2.90501e-105
2.05608e-101
1.37458e-97
8.71793e-94
5.27062e-90
3.05686e-86
1.67233e-82
8.07289e-79
3.34342e-75
1.17295e-71
3.49612e-68
8.82435e-65
1.74515e-61
2.60903e-58
2.86302e-55
9.82653e-52
5.54845e-50
2.22211e-49
2.19089e-49
3.72808e-50
1.79972e-55
1.38356e-60
1.30595e-64
1.01115e-68
7.24676e-73
5.87045e-77
5.58188e-81
4.67933e-85
4.69284e-89
5.29844e-93
6.47342e-97
1.55606e-99
2.80098e-103
4.40576e-107
6.583e-111
9.29294e-115
1.23454e-118
1.53821e-122
1.792e-126
1.9463e-130
2.01644e-134
2.59007e-120
1.71676e-118
2.25348e-117
1.72663e-116
8.36701e-116
2.96486e-115
7.96511e-115
1.76882e-114
3.34096e-114
5.60777e-114
8.67396e-114
1.26976e-113
1.81888e-113
2.46355e-113
3.0898e-113
2.82785e-113
4.66783e-113
8.17805e-118
6.91788e-118
9.38572e-118
9.7498e-118
7.8358e-118
5.48186e-118
3.40668e-118
1.95847e-118
9.92514e-119
4.69412e-119
1.95298e-119
7.40282e-120
2.34683e-120
6.49369e-121
1.41257e-121
1.65214e-121
5.51093e-120
1.03898e-119
6.23833e-117
5.5788e-113
4.62278e-109
3.56386e-105
2.56311e-101
1.72472e-97
1.08946e-93
6.48486e-90
3.65354e-86
1.95971e-82
9.98559e-79
4.63886e-75
1.84938e-71
6.2434e-68
1.81647e-64
4.41782e-61
8.41305e-58
1.21134e-54
1.2886e-51
4.59557e-48
2.29791e-46
8.7325e-46
8.59166e-46
1.49239e-46
7.9107e-52
6.79457e-57
7.40983e-61
6.80668e-65
5.88207e-69
5.73177e-73
5.87045e-77
5.81434e-81
6.79076e-85
8.78098e-89
1.3124e-92
3.6815e-95
6.54684e-99
1.09518e-102
1.73009e-106
2.56581e-110
3.56087e-114
4.61096e-118
5.5559e-122
6.21362e-126
4.84004e-130
1.74528e-124
1.57412e-122
2.09431e-121
1.62072e-120
7.90801e-120
2.81474e-119
7.58626e-119
1.68737e-118
3.19052e-118
5.35525e-118
8.28213e-118
1.21153e-117
1.73401e-117
2.34675e-117
2.94021e-117
2.6906e-117
4.43411e-117
8.21158e-122
6.95464e-122
9.44594e-122
9.82849e-122
7.91554e-122
5.54852e-122
3.45625e-122
1.99086e-122
1.01117e-122
4.78918e-123
1.99503e-123
7.56214e-124
2.37291e-124
7.14489e-125
3.09271e-122
5.887e-122
5.57959e-121
5.86739e-117
5.54259e-113
4.82604e-109
3.88181e-105
2.89052e-101
1.99703e-97
1.28328e-93
7.69099e-90
4.31303e-86
2.27203e-82
1.12954e-78
5.33296e-75
2.3439e-71
8.99581e-68
2.92217e-64
8.32067e-61
1.94895e-57
3.57129e-54
4.94719e-51
5.10421e-48
1.88912e-44
8.30914e-43
2.97922e-42
2.92284e-42
5.18838e-43
3.04738e-48
2.95567e-53
3.77894e-57
4.18206e-61
4.4146e-65
5.21409e-69
5.73177e-73
6.72446e-77
9.16138e-81
1.36533e-84
3.33033e-87
7.41337e-91
1.40365e-94
2.49608e-98
4.15153e-102
6.43981e-106
9.29316e-110
1.24462e-113
1.54352e-117
1.76871e-121
1.3525e-125
7.23669e-125
1.66402e-125
2.02839e-125
1.646e-124
8.04814e-124
2.86537e-123
7.7194e-123
1.71435e-122
3.23628e-122
5.41976e-122
8.36471e-122
1.22084e-121
1.74367e-121
2.35567e-121
2.9462e-121
2.6944e-121
4.43255e-121
8.64977e-126
7.33704e-126
9.98298e-126
1.04099e-125
8.40862e-126
5.9132e-126
3.6978e-126
2.13821e-126
1.09082e-126
5.18738e-127
2.16973e-127
8.27163e-128
3.19346e-126
2.41507e-125
5.36283e-125
3.98117e-121
4.4226e-117
4.49145e-113
4.17912e-109
3.56935e-105
2.80321e-101
2.02776e-97
1.35341e-93
8.3506e-90
4.77344e-86
2.53457e-82
1.25411e-78
5.80589e-75
2.5277e-71
1.03506e-67
3.82365e-64
1.19522e-60
3.34183e-57
7.53605e-54
1.32804e-50
1.7684e-47
1.77219e-44
6.79055e-41
2.60842e-39
8.94521e-39
8.7425e-39
1.55714e-39
1.02574e-44
1.13746e-49
1.73512e-53
2.35512e-57
3.08282e-61
4.4146e-65
5.21409e-69
7.25528e-73
1.15233e-76
2.11536e-80
6.38527e-83
1.38873e-86
2.7999e-90
5.26079e-94
9.16907e-98
1.48e-101
2.20875e-105
3.04247e-109
3.86139e-113
4.50765e-117
4.83159e-121
4.66112e-125
9.14359e-126
4.78115e-126
1.90096e-128
8.54697e-128
3.11782e-127
8.36565e-127
1.84929e-126
3.47608e-126
5.79523e-126
8.90909e-126
1.29535e-125
1.84397e-125
2.48437e-125
3.09952e-125
2.83146e-125
4.64916e-125
9.53066e-130
8.09992e-130
1.10444e-129
1.15496e-129
9.36586e-130
6.61584e-130
4.15962e-130
2.41899e-130
1.24474e-130
5.97002e-131
7.02486e-131
1.84701e-128
3.5647e-128