/*--------------------------------*- C++ -*----------------------------------*\
| =========                 |                                                 |
| \\      /  F ield         | OpenFOAM: The Open Source CFD Toolbox           |
|  \\    /   O peration     | Version:  2412                                  |
|   \\  /    A nd           | Website:  www.openfoam.com                      |
|    \\/     M anipulation  |                                                 |
\*---------------------------------------------------------------------------*/
FoamFile
{
    version     2.0;
    format      ascii;
    arch        "LSB;label=32;scalar=64";
    class       volVectorField;
    location    "1.2";
    object      U;
}
// * * * * * * * * * * * * * * * * * * * * * * * * * * * * * * * * * * * * * //

dimensions      [0 1 -1 0 0 0 0];

internalField   nonuniform List<vector> 
6400
(
(-0.000114696 0.000104528 0)
(-0.000731118 0.000170227 0)
(-0.00144347 0.000160326 0)
(-0.00208638 0.000114483 0)
(-0.00260693 4.7285e-05 0)
(-0.00296376 -3.69161e-05 0)
(-0.00312519 -0.000136327 0)
(-0.00304692 -0.000244759 0)
(-0.00269515 -0.000370127 0)
(-0.00203722 -0.000503696 0)
(-0.00105043 -0.000654608 0)
(0.000292874 -0.000808864 0)
(0.00200534 -0.000976094 0)
(0.00408521 -0.00113486 0)
(0.00657353 -0.00129386 0)
(0.00945945 -0.00144135 0)
(0.0127143 -0.00159839 0)
(0.0163169 -0.00172729 0)
(0.0202236 -0.00182668 0)
(0.0243816 -0.0018976 0)
(0.028722 -0.00193453 0)
(0.0331636 -0.00192522 0)
(0.0376076 -0.00186855 0)
(0.0419411 -0.00175846 0)
(0.0460389 -0.00159021 0)
(0.0497648 -0.0013609 0)
(0.0529741 -0.00106985 0)
(0.0555183 -0.000719633 0)
(0.0572512 -0.0003118 0)
(0.0580528 0.000151383 0)
(0.0577714 0.000674639 0)
(0.0562291 0.00121891 0)
(0.0534103 0.00176618 0)
(0.0493325 0.00228249 0)
(0.0440397 0.00275007 0)
(0.0376344 0.0031571 0)
(0.0302572 0.0034882 0)
(0.022083 0.00373922 0)
(0.0133206 0.00390655 0)
(0.00421031 0.0039828 0)
(-0.00501069 0.00397499 0)
(-0.014108 0.00388485 0)
(-0.022852 0.0037099 0)
(-0.0310087 0.00345188 0)
(-0.0383658 0.00311639 0)
(-0.0447418 0.00270787 0)
(-0.0499989 0.00223287 0)
(-0.054043 0.0017169 0)
(-0.0568213 0.00117445 0)
(-0.0583222 0.000628699 0)
(-0.0585283 0.000102108 0)
(-0.0576458 -0.000366131 0)
(-0.0558225 -0.000773232 0)
(-0.0531857 -0.00112045 0)
(-0.0498853 -0.00140747 0)
(-0.046073 -0.00163202 0)
(-0.0418963 -0.00179442 0)
(-0.0374941 -0.00189802 0)
(-0.0329928 -0.0019474 0)
(-0.0285052 -0.00194926 0)
(-0.024129 -0.00190795 0)
(-0.0199475 -0.00183053 0)
(-0.0160281 -0.00172666 0)
(-0.0124149 -0.00159533 0)
(-0.00916043 -0.00143799 0)
(-0.00629402 -0.00128772 0)
(-0.00381645 -0.00112301 0)
(-0.00174165 -0.000958418 0)
(-5.49723e-05 -0.000795683 0)
(0.00127422 -0.000634906 0)
(0.00224336 -0.000493465 0)
(0.00286883 -0.000358989 0)
(0.00319504 -0.000233696 0)
(0.00325163 -0.000120496 0)
(0.00307855 -2.16548e-05 0)
(0.00270141 5.66347e-05 0)
(0.00215774 0.000123121 0)
(0.00149393 0.000168275 0)
(0.000760284 0.000180897 0)
(0.000125973 0.000114893 0)
(-0.000227448 0.000758716 0)
(-0.00141202 0.00128912 0)
(-0.00268888 0.00128295 0)
(-0.00389189 0.00112184 0)
(-0.00494435 0.000887217 0)
(-0.00580252 0.000591335 0)
(-0.00642636 0.000237201 0)
(-0.0067721 -0.000165683 0)
(-0.0067961 -0.000625739 0)
(-0.00646126 -0.00113262 0)
(-0.00573276 -0.00169146 0)
(-0.00457331 -0.00228071 0)
(-0.00295798 -0.00290602 0)
(-0.000883087 -0.00353736 0)
(0.0016994 -0.00416641 0)
(0.00477094 -0.0047944 0)
(0.00832984 -0.00540485 0)
(0.0123806 -0.00596783 0)
(0.0168407 -0.00645086 0)
(0.0216625 -0.00683609 0)
(0.0267876 -0.00711043 0)
(0.0321237 -0.00723303 0)
(0.0375562 -0.00718783 0)
(0.0429611 -0.00695211 0)
(0.0481918 -0.00650361 0)
(0.0530862 -0.00582529 0)
(0.0574667 -0.00490582 0)
(0.0611442 -0.00374322 0)
(0.0639237 -0.00234109 0)
(0.0656521 -0.000713732 0)
(0.0661107 0.00111656 0)
(0.0652162 0.00309982 0)
(0.0629053 0.00515869 0)
(0.0590212 0.00721074 0)
(0.0535103 0.0091785 0)
(0.0464125 0.0109804 0)
(0.0378486 0.0125371 0)
(0.0280145 0.013785 0)
(0.0171801 0.0146382 0)
(0.00572198 0.0150723 0)
(-0.00595199 0.0150744 0)
(-0.0174284 0.0146422 0)
(-0.0283146 0.0137879 0)
(-0.0382334 0.0125481 0)
(-0.046886 0.0109892 0)
(-0.0540641 0.0091789 0)
(-0.0596394 0.00719425 0)
(-0.0635604 0.00512524 0)
(-0.0658752 0.00305003 0)
(-0.0667265 0.00104492 0)
(-0.0662375 -0.000810011 0)
(-0.0644607 -0.00245587 0)
(-0.0616096 -0.00386887 0)
(-0.0578509 -0.00503628 0)
(-0.0533842 -0.0059543 0)
(-0.0484026 -0.00662606 0)
(-0.0430884 -0.00706353 0)
(-0.037608 -0.00728477 0)
(-0.0321093 -0.0073121 0)
(-0.0267205 -0.00717138 0)
(-0.0215495 -0.00688527 0)
(-0.0166914 -0.00648328 0)
(-0.0122114 -0.00598789 0)
(-0.00814144 -0.00541314 0)
(-0.00457085 -0.00479561 0)
(-0.0015058 -0.00416389 0)
(0.00108095 -0.00351371 0)
(0.00315354 -0.0028786 0)
(0.00474896 -0.00225533 0)
(0.00589917 -0.00165654 0)
(0.00661471 -0.00110726 0)
(0.00693087 -0.000599003 0)
(0.00688978 -0.000139315 0)
(0.00652785 0.000268657 0)
(0.00588955 0.000622301 0)
(0.00501559 0.00091198 0)
(0.00394709 0.00114583 0)
(0.00272862 0.0013058 0)
(0.0014369 0.0013146 0)
(0.000238576 0.000787108 0)
(-0.000280974 0.0016446 0)
(-0.00163871 0.00266086 0)
(-0.00306918 0.00263871 0)
(-0.0044343 0.00235568 0)
(-0.00564718 0.00195199 0)
(-0.00666284 0.00144316 0)
(-0.00743752 0.000831873 0)
(-0.0079288 0.000122819 0)
(-0.00809468 -0.000679237 0)
(-0.00789278 -0.00156985 0)
(-0.00728242 -0.00254211 0)
(-0.00622638 -0.00358158 0)
(-0.0046967 -0.00467678 0)
(-0.0026752 -0.0058043 0)
(-0.000138144 -0.00692995 0)
(0.00291708 -0.00806769 0)
(0.00649613 -0.00914279 0)
(0.0105959 -0.0101638 0)
(0.0151606 -0.011072 0)
(0.0201172 -0.0118166 0)
(0.025418 -0.0123578 0)
(0.0309767 -0.0126588 0)
(0.036666 -0.0126705 0)
(0.0423638 -0.0123529 0)
(0.0479205 -0.0116653 0)
(0.0531662 -0.010575 0)
(0.0579139 -0.00905742 0)
(0.0619649 -0.00710105 0)
(0.0651107 -0.00470981 0)
(0.0671727 -0.00191219 0)
(0.0679295 0.00121276 0)
(0.0672038 0.00463215 0)
(0.06491 0.00823474 0)
(0.06095 0.0118975 0)
(0.0552857 0.0154775 0)
(0.0479692 0.0188129 0)
(0.0391372 0.0217519 0)
(0.028967 0.0241131 0)
(0.0177576 0.0257654 0)
(0.00592776 0.0266311 0)
(-0.00613242 0.0266538 0)
(-0.0179923 0.0258272 0)
(-0.0292473 0.0241867 0)
(-0.0394959 0.0218291 0)
(-0.0484261 0.0188996 0)
(-0.0558248 0.0155433 0)
(-0.0615546 0.0119325 0)
(-0.0655599 0.0082245 0)
(-0.0678698 0.0045725 0)
(-0.0685812 0.00110718 0)
(-0.0677902 -0.00206107 0)
(-0.0656711 -0.00489096 0)
(-0.0624492 -0.00730641 0)
(-0.0583103 -0.00927615 0)
(-0.0534689 -0.0107951 0)
(-0.04813 -0.0118761 0)
(-0.0424851 -0.0125464 0)
(-0.0367069 -0.0128406 0)
(-0.0309489 -0.0128016 0)
(-0.0253412 -0.0124733 0)
(-0.0199963 -0.0118995 0)
(-0.0150025 -0.0111346 0)
(-0.010418 -0.010206 0)
(-0.0063 -0.00915666 0)
(-0.00271625 -0.0080708 0)
(0.000343521 -0.00691926 0)
(0.00288129 -0.00577339 0)
(0.00488779 -0.00464481 0)
(0.00640466 -0.00354346 0)
(0.00744875 -0.00249807 0)
(0.00804342 -0.00152467 0)
(0.00822798 -0.000631837 0)
(0.0080455 0.000171141 0)
(0.00753786 0.000878482 0)
(0.00674725 0.00148831 0)
(0.00571578 0.00199501 0)
(0.00448737 0.00239752 0)
(0.00310766 0.00267923 0)
(0.00166356 0.00270067 0)
(0.000292086 0.00169194 0)
(-0.000337641 0.00263755 0)
(-0.00183118 0.00415561 0)
(-0.00338852 0.00412521 0)
(-0.00488662 0.00371906 0)
(-0.00623261 0.00314061 0)
(-0.00738042 0.00241184 0)
(-0.00828554 0.00153597 0)
(-0.00890047 0.000516163 0)
(-0.00918106 -0.000640081 0)
(-0.00908777 -0.00192586 0)
(-0.00857646 -0.00332956 0)
(-0.00760385 -0.00483909 0)
(-0.00613518 -0.00643322 0)
(-0.0041438 -0.00808456 0)
(-0.00161772 -0.00975682 0)
(0.00146527 -0.0114196 0)
(0.00511009 -0.0130311 0)
(0.00930578 -0.0145449 0)
(0.0140275 -0.0159242 0)
(0.0192079 -0.0170808 0)
(0.024776 -0.0179379 0)
(0.030648 -0.0184623 0)
(0.0367107 -0.0185733 0)
(0.0428319 -0.0182084 0)
(0.0488566 -0.0173078 0)
(0.0546054 -0.0158187 0)
(0.0598791 -0.0137019 0)
(0.0644614 -0.0109336 0)
(0.0681251 -0.00751573 0)
(0.0706494 -0.00347752 0)
(0.0717972 0.00108787 0)
(0.0713627 0.0061049 0)
(0.0692064 0.0114127 0)
(0.0652136 0.0168423 0)
(0.0593324 0.0221768 0)
(0.0516187 0.0271736 0)
(0.0421916 0.0315752 0)
(0.0312643 0.0351258 0)
(0.0192028 0.037649 0)
(0.00643674 0.038976 0)
(-0.00659473 0.0390138 0)
(-0.0194064 0.0377551 0)
(-0.031543 0.0352768 0)
(-0.0425445 0.0317436 0)
(-0.0520749 0.0273433 0)
(-0.0598978 0.0223084 0)
(-0.0658574 0.0169266 0)
(-0.0699058 0.0114308 0)
(-0.0720825 0.00604478 0)
(-0.0725031 0.000958973 0)
(-0.0713146 -0.00367432 0)
(-0.0687238 -0.00776978 0)
(-0.06497 -0.0112274 0)
(-0.0602852 -0.0140166 0)
(-0.0549044 -0.0161371 0)
(-0.0490508 -0.0176128 0)
(-0.0429294 -0.0184877 0)
(-0.0367228 -0.0188177 0)
(-0.0305893 -0.0186682 0)
(-0.0246604 -0.0181031 0)
(-0.0190538 -0.0171971 0)
(-0.0138493 -0.0160131 0)
(-0.00909828 -0.0146026 0)
(-0.00489079 -0.0130523 0)
(-0.00124654 -0.011424 0)
(0.00184059 -0.00973472 0)
(0.0043584 -0.00805202 0)
(0.00633459 -0.00639029 0)
(0.00778886 -0.00478652 0)
(0.00874747 -0.00327129 0)
(0.00924292 -0.00186447 0)
(0.00931787 -0.00057733 0)
(0.00901607 0.000578785 0)
(0.00838211 0.00159794 0)
(0.00746203 0.00247235 0)
(0.00629893 0.00319881 0)
(0.00493802 0.00377494 0)
(0.00342586 0.004179 0)
(0.00185466 0.00420805 0)
(0.000347879 0.00270312 0)
(-0.000408728 0.00376547 0)
(-0.00207463 0.00579724 0)
(-0.00379982 0.00575991 0)
(-0.00546964 0.00523109 0)
(-0.00698724 0.00447741 0)
(-0.00830531 0.00352697 0)
(-0.00937764 0.00238337 0)
(-0.010156 0.00105025 0)
(-0.0105944 -0.000468038 0)
(-0.010646 -0.00216095 0)
(-0.0102652 -0.00401478 0)
(-0.00940524 -0.00601513 0)
(-0.00802241 -0.0081343 0)
(-0.00608347 -0.0103413 0)
(-0.00356217 -0.0125948 0)
(-0.000449576 -0.0148371 0)
(0.00327504 -0.0170242 0)
(0.00760561 -0.0190975 0)
(0.0125275 -0.0209923 0)
(0.0180058 -0.0226157 0)
(0.0239374 -0.0238683 0)
(0.0302417 -0.0246759 0)
(0.036818 -0.0249484 0)
(0.0435252 -0.0245932 0)
(0.0502029 -0.0235291 0)
(0.0566607 -0.0216773 0)
(0.0626824 -0.0189784 0)
(0.068029 -0.0153938 0)
(0.0724424 -0.0109141 0)
(0.0756553 -0.00556965 0)
(0.0773982 0.000544395 0)
(0.0774108 0.00730731 0)
(0.0755099 0.0145117 0)
(0.0715524 0.0219299 0)
(0.0654324 0.0292564 0)
(0.057171 0.0361404 0)
(0.0469043 0.0422206 0)
(0.0348809 0.0471669 0)
(0.0214983 0.0506942 0)
(0.00725298 0.0525499 0)
(-0.00732286 0.0526035 0)
(-0.0216261 0.0508494 0)
(-0.0350985 0.0474056 0)
(-0.0472358 0.0425057 0)
(-0.0576556 0.0364145 0)
(-0.0660449 0.0294859 0)
(-0.0722586 0.0220826 0)
(-0.0762931 0.0145759 0)
(-0.0782167 0.00726981 0)
(-0.0781856 0.000394537 0)
(-0.0763974 -0.00582417 0)
(-0.0731 -0.0112559 0)
(-0.0685748 -0.015793 0)
(-0.0631042 -0.0194075 0)
(-0.056955 -0.0221091 0)
(-0.0503756 -0.0239407 0)
(-0.0435881 -0.0249673 0)
(-0.0367873 -0.0252732 0)
(-0.0301362 -0.0249468 0)
(-0.0237741 -0.0240779 0)
(-0.0178116 -0.022774 0)
(-0.012315 -0.0211006 0)
(-0.00736298 -0.0191621 0)
(-0.00302591 -0.0170534 0)
(0.000694798 -0.0148335 0)
(0.00380539 -0.0125678 0)
(0.00631105 -0.0102984 0)
(0.00823369 -0.00807732 0)
(0.00959884 -0.00594643 0)
(0.0104405 -0.00393818 0)
(0.010802 -0.00208036 0)
(0.01073 -0.000386984 0)
(0.0102726 0.0011289 0)
(0.00947577 0.00246187 0)
(0.00838548 0.00360351 0)
(0.00705109 0.00455069 0)
(0.0055186 0.0053008 0)
(0.0038351 0.00582676 0)
(0.00209646 0.00586226 0)
(0.000418284 0.0038482 0)
(-0.000496918 0.00506725 0)
(-0.00237895 0.00763238 0)
(-0.0043178 0.00758834 0)
(-0.0062049 0.00693716 0)
(-0.00794005 0.0060081 0)
(-0.00947518 0.00483449 0)
(-0.0107626 0.00341919 0)
(-0.0117522 0.0017645 0)
(-0.0123927 -0.000124813 0)
(-0.0126351 -0.0022359 0)
(-0.0124312 -0.00455735 0)
(-0.0117242 -0.00707332 0)
(-0.010462 -0.00975105 0)
(-0.00860437 -0.0125534 0)
(-0.00611316 -0.0154314 0)
(-0.00296379 -0.0183256 0)
(0.000850134 -0.021154 0)
(0.00533972 -0.0238525 0)
(0.0105148 -0.0263332 0)
(0.016342 -0.0285071 0)
(0.0227286 -0.0302451 0)
(0.0295837 -0.0314271 0)
(0.0368122 -0.0319483 0)
(0.0442732 -0.0316874 0)
(0.0517986 -0.0305327 0)
(0.0591866 -0.0283774 0)
(0.0661979 -0.0251311 0)
(0.0725666 -0.0207318 0)
(0.0779966 -0.0151517 0)
(0.0821636 -0.00841392 0)
(0.0847383 -0.000614028 0)
(0.0853997 0.00808392 0)
(0.0839069 0.0174329 0)
(0.0800456 0.0271431 0)
(0.073642 0.0367821 0)
(0.0646898 0.0458952 0)
(0.0533299 0.0540085 0)
(0.039832 0.0606314 0)
(0.0246494 0.0653748 0)
(0.00837935 0.0678857 0)
(-0.00830817 0.0679637 0)
(-0.0246514 0.0656194 0)
(-0.0399608 0.0610041 0)
(-0.0536302 0.0544327 0)
(-0.0651916 0.046313 0)
(-0.0743172 0.0371581 0)
(-0.0808478 0.0274202 0)
(-0.084792 0.0175754 0)
(-0.0863311 0.00807274 0)
(-0.085661 -0.000795391 0)
(-0.0830212 -0.00874276 0)
(-0.0787418 -0.0156038 0)
(-0.0731655 -0.0212606 0)
(-0.0666401 -0.0256978 0)
(-0.0594719 -0.028944 0)
(-0.0519397 -0.0310684 0)
(-0.0442886 -0.0321675 0)
(-0.0367253 -0.0323616 0)
(-0.029414 -0.0317658 0)
(-0.0225036 -0.0305055 0)
(-0.0160902 -0.0287041 0)
(-0.0102468 -0.0264561 0)
(-0.00505539 -0.0239166 0)
(-0.000562124 -0.0211795 0)
(0.00324081 -0.0183114 0)
(0.00637668 -0.015394 0)
(0.00884957 -0.0124948 0)
(0.0106871 -0.009676 0)
(0.0119281 -0.00698612 0)
(0.0126141 -0.00446119 0)
(0.0127958 -0.00213557 0)
(0.0125286 -2.21365e-05 0)
(0.011866 0.00186619 0)
(0.0108574 0.00351737 0)
(0.00955167 0.00492835 0)
(0.00799996 0.00609694 0)
(0.00625013 0.00702088 0)
(0.00435 0.00766793 0)
(0.00239869 0.00770933 0)
(0.000505733 0.00516532 0)
(-0.000603049 0.00658207 0)
(-0.00274501 0.00970701 0)
(-0.00494249 0.009657 0)
(-0.00709286 0.00888432 0)
(-0.00909265 0.00778056 0)
(-0.0108934 0.00638347 0)
(-0.012446 0.0046944 0)
(-0.013698 0.0027138 0)
(-0.0145924 0.000444879 0)
(-0.0150759 -0.00210371 0)
(-0.0150994 -0.0049184 0)
(-0.0145955 -0.00797259 0)
(-0.0134982 -0.0112466 0)
(-0.0117586 -0.0146916 0)
(-0.00932836 -0.018252 0)
(-0.00616516 -0.0218597 0)
(-0.00224426 -0.0254254 0)
(0.00243545 -0.0288442 0)
(0.007887 -0.0320084 0)
(0.0141135 -0.0348358 0)
(0.0210421 -0.0371709 0)
(0.0285673 -0.0388512 0)
(0.036592 -0.0397318 0)
(0.0449808 -0.0396783 0)
(0.0535605 -0.0385321 0)
(0.0621187 -0.0361602 0)
(0.0703943 -0.0324246 0)
(0.0780865 -0.0272324 0)
(0.084851 -0.0205182 0)
(0.0902981 -0.0122878 0)
(0.0940166 -0.00262696 0)
(0.0955858 0.00828239 0)
(0.0947022 0.0201227 0)
(0.0910469 0.0324928 0)
(0.0843459 0.0448717 0)
(0.0745669 0.0566921 0)
(0.0618112 0.0672955 0)
(0.0463888 0.0760012 0)
(0.028848 0.0822582 0)
(0.0098922 0.0855739 0)
(-0.00960453 0.0856893 0)
(-0.0286508 0.0826087 0)
(-0.0463942 0.076538 0)
(-0.0620677 0.0679101 0)
(-0.0750789 0.0573014 0)
(-0.0850847 0.0454082 0)
(-0.0919782 0.032885 0)
(-0.0957643 0.020319 0)
(-0.0967046 0.00824516 0)
(-0.0951171 -0.00286694 0)
(-0.0913102 -0.0127223 0)
(-0.0857105 -0.0211075 0)
(-0.0787513 -0.0279238 0)
(-0.0708594 -0.033163 0)
(-0.0623885 -0.0368894 0)
(-0.0536542 -0.0392119 0)
(-0.0449281 -0.0402756 0)
(-0.0364267 -0.0402393 0)
(-0.0283155 -0.0392532 0)
(-0.0207406 -0.0374735 0)
(-0.0137854 -0.035049 0)
(-0.00754318 -0.0321427 0)
(-0.00209497 -0.0289089 0)
(0.00257328 -0.0254437 0)
(0.00647571 -0.0218372 0)
(0.00961738 -0.0181982 0)
(0.0120243 -0.0146131 0)
(0.013738 -0.0111489 0)
(0.0148097 -0.00786264 0)
(0.0152879 -0.00479827 0)
(0.0152391 -0.0019797 0)
(0.0147302 0.000568679 0)
(0.0138109 0.00283643 0)
(0.012537 0.00481256 0)
(0.0109647 0.0064954 0)
(0.00914694 0.00788515 0)
(0.00713277 0.00898179 0)
(0.00497034 0.00974844 0)
(0.00276185 0.0097946 0)
(0.00061072 0.00669361 0)
(-0.000727372 0.00834917 0)
(-0.00317234 0.0120654 0)
(-0.00567251 0.0120111 0)
(-0.00813191 0.0111191 0)
(-0.010444 0.00984311 0)
(-0.0125604 0.00822417 0)
(-0.0144306 0.00626101 0)
(-0.0159998 0.00395093 0)
(-0.0172078 0.00129335 0)
(-0.0179951 -0.00170884 0)
(-0.0182957 -0.00503639 0)
(-0.0180472 -0.00866526 0)
(-0.0171746 -0.0125749 0)
(-0.0156024 -0.0167175 0)
(-0.0132728 -0.021031 0)
(-0.010127 -0.0254336 0)
(-0.00612143 -0.0298284 0)
(-0.00122883 -0.0340972 0)
(0.00454183 -0.0380903 0)
(0.011205 -0.0416802 0)
(0.018746 -0.0447333 0)
(0.0270626 -0.0470712 0)
(0.036033 -0.0484644 0)
(0.0455301 -0.0487575 0)
(0.0553843 -0.0477604 0)
(0.0653758 -0.0452943 0)
(0.0752225 -0.0411621 0)
(0.0845894 -0.0352274 0)
(0.0930774 -0.0273639 0)
(0.100214 -0.0175427 0)
(0.105492 -0.00583747 0)
(0.108345 0.00754087 0)
(0.108316 0.0223403 0)
(0.105019 0.0378898 0)
(0.0980805 0.0536128 0)
(0.0873507 0.0687849 0)
(0.0728644 0.0825179 0)
(0.0549816 0.0938503 0)
(0.0343513 0.101995 0)
(0.0118806 0.106342 0)
(-0.0112853 0.106516 0)
(-0.0338794 0.102502 0)
(-0.0547926 0.0945916 0)
(-0.0730454 0.0833629 0)
(-0.0878965 0.0696511 0)
(-0.098941 0.0543686 0)
(-0.106134 0.0384331 0)
(-0.109612 0.0226261 0)
(-0.109694 0.00757848 0)
(-0.106803 -0.0061309 0)
(-0.101417 -0.0181132 0)
(-0.094079 -0.0281395 0)
(-0.0853404 -0.0361371 0)
(-0.0757081 -0.0421216 0)
(-0.06561 -0.0462276 0)
(-0.0554018 -0.0486166 0)
(-0.0453795 -0.0494886 0)
(-0.0357566 -0.049067 0)
(-0.0266938 -0.0475209 0)
(-0.0183364 -0.0450692 0)
(-0.0107871 -0.0419024 0)
(-0.0041242 -0.0382231 0)
(0.00163218 -0.0341565 0)
(0.00649953 -0.0298319 0)
(0.0104779 -0.0253915 0)
(0.0135934 -0.0209523 0)
(0.0158923 -0.0166125 0)
(0.0174318 -0.0124491 0)
(0.0182739 -0.00852169 0)
(0.0184932 -0.00488391 0)
(0.01816 -0.00155233 0)
(0.0173429 0.00144612 0)
(0.0161088 0.0040986 0)
(0.0145154 0.00640118 0)
(0.012624 0.00835503 0)
(0.0104902 0.00996342 0)
(0.0081642 0.0112295 0)
(0.00569407 0.0121131 0)
(0.00318504 0.0121617 0)
(0.000733481 0.00847178 0)
(-0.000869691 0.0104074 0)
(-0.00365936 0.0147504 0)
(-0.00650497 0.0146952 0)
(-0.00931851 0.0136881 0)
(-0.0119909 0.0122449 0)
(-0.0144743 0.0104089 0)
(-0.0167175 0.00817469 0)
(-0.0186637 0.00553493 0)
(-0.0202496 0.00248486 0)
(-0.0214017 -0.000974875 0)
(-0.0220502 -0.00483028 0)
(-0.0221265 -0.00907418 0)
(-0.0215416 -0.0136728 0)
(-0.0202043 -0.0185797 0)
(-0.018032 -0.0237286 0)
(-0.0149472 -0.0290291 0)
(-0.0108879 -0.034372 0)
(-0.00580176 -0.039613 0)
(0.000332068 -0.0446001 0)
(0.00750559 -0.0491335 0)
(0.0156962 -0.0530568 0)
(0.0248918 -0.0561872 0)
(0.0349714 -0.0582994 0)
(0.0457652 -0.0591325 0)
(0.0571198 -0.0584704 0)
(0.0688332 -0.0560871 0)
(0.0806007 -0.0517105 0)
(0.0920543 -0.0451126 0)
(0.102737 -0.0361187 0)
(0.112065 -0.0246221 0)
(0.119383 -0.0106526 0)
(0.124065 0.00557553 0)
(0.125356 0.0237873 0)
(0.122652 0.043212 0)
(0.115588 0.0630827 0)
(0.103806 0.0824755 0)
(0.0871942 0.100157 0)
(0.0661474 0.114837 0)
(0.0415395 0.125422 0)
(0.0145193 0.13113 0)
(-0.0134524 0.131374 0)
(-0.0406757 0.126168 0)
(-0.0657112 0.115907 0)
(-0.0872449 0.10138 0)
(-0.104359 0.0837049 0)
(-0.116615 0.0641441 0)
(-0.124026 0.0440202 0)
(-0.1269 0.0242611 0)
(-0.125736 0.00561409 0)
(-0.121073 -0.0110402 0)
(-0.113547 -0.0253853 0)
(-0.103929 -0.0371649 0)
(-0.0929009 -0.0463241 0)
(-0.0810898 -0.0529469 0)
(-0.0690023 -0.0572684 0)
(-0.0570144 -0.0595371 0)
(-0.0454591 -0.0600104 0)
(-0.0345272 -0.0589929 0)
(-0.0243734 -0.0566944 0)
(-0.0151652 -0.0534066 0)
(-0.0069713 -0.0493541 0)
(0.000178118 -0.0447119 0)
(0.00627575 -0.0396439 0)
(0.0113219 -0.0343379 0)
(0.0153419 -0.0289506 0)
(0.0183852 -0.0236161 0)
(0.0205185 -0.0184413 0)
(0.0218211 -0.0135154 0)
(0.0223682 -0.00890125 0)
(0.0222525 -0.00465322 0)
(0.0215655 -0.00079478 0)
(0.0203789 0.00266584 0)
(0.0187649 0.00570967 0)
(0.0167924 0.00833857 0)
(0.0145266 0.0105594 0)
(0.0120254 0.0123807 0)
(0.00934009 0.0138099 0)
(0.0065179 0.0148053 0)
(0.00366648 0.0148524 0)
(0.000873742 0.0105375 0)
(-0.00102936 0.0127941 0)
(-0.00420305 0.0178034 0)
(-0.0074349 0.0177521 0)
(-0.0106463 0.0166372 0)
(-0.0137264 0.0150358 0)
(-0.016629 0.0129917 0)
(-0.0193025 0.010494 0)
(-0.0216872 0.00752857 0)
(-0.0237144 0.00408439 0)
(-0.0253055 0.000155099 0)
(-0.0263879 -0.00425839 0)
(-0.0268789 -0.00914787 0)
(-0.0266673 -0.014475 0)
(-0.0256429 -0.0202101 0)
(-0.0237038 -0.0262817 0)
(-0.0207473 -0.0325941 0)
(-0.0166757 -0.0390198 0)
(-0.011419 -0.0453942 0)
(-0.00493253 -0.051538 0)
(0.00280173 -0.0572335 0)
(0.0117554 -0.0622535 0)
(0.0218981 -0.0663628 0)
(0.0331814 -0.0693946 0)
(0.0454716 -0.0710136 0)
(0.0585658 -0.0709257 0)
(0.0723027 -0.0688718 0)
(0.0864003 -0.0644678 0)
(0.100427 -0.0573797 0)
(0.113866 -0.0473389 0)
(0.126036 -0.0341085 0)
(0.136113 -0.0176345 0)
(0.143248 0.00192878 0)
(0.146431 0.0241266 0)
(0.144831 0.0482712 0)
(0.137876 0.0733368 0)
(0.124933 0.0980688 0)
(0.105724 0.120837 0)
(0.0806827 0.139902 0)
(0.0509408 0.153705 0)
(0.0179872 0.161189 0)
(-0.0162587 0.161511 0)
(-0.0495135 0.154811 0)
(-0.0798962 0.14146 0)
(-0.105641 0.12262 0)
(-0.125567 0.0998361 0)
(-0.139111 0.0748913 0)
(-0.146521 0.0494646 0)
(-0.14848 0.024827 0)
(-0.145426 0.0019666 0)
(-0.138201 -0.0181552 0)
(-0.12788 -0.0351414 0)
(-0.115298 -0.0487501 0)
(-0.101355 -0.0589918 0)
(-0.0868418 -0.0660817 0)
(-0.0723541 -0.0703586 0)
(-0.0582709 -0.0722341 0)
(-0.0449344 -0.0720602 0)
(-0.0325239 -0.0701638 0)
(-0.0211744 -0.0669084 0)
(-0.0110489 -0.0625945 0)
(-0.00213881 -0.0574188 0)
(0.00554513 -0.0516041 0)
(0.0119737 -0.0453741 0)
(0.0171679 -0.0389364 0)
(0.0211799 -0.0324685 0)
(0.0240868 -0.0261256 0)
(0.0259801 -0.0200294 0)
(0.0269607 -0.0142742 0)
(0.0271262 -0.00893701 0)
(0.0265934 -0.00404422 0)
(0.0254748 0.000372601 0)
(0.0238449 0.00430035 0)
(0.02178 0.00773461 0)
(0.0193636 0.0106842 0)
(0.0166652 0.0131627 0)
(0.0137447 0.0151862 0)
(0.010653 0.0167683 0)
(0.00743581 0.017867 0)
(0.0042024 0.0179067 0)
(0.00103056 0.0129271 0)
(-0.0012052 0.0155446 0)
(-0.00479876 0.0212628 0)
(-0.00845452 0.0212229 0)
(-0.012105 0.0200111 0)
(-0.0156393 0.0182654 0)
(-0.0190139 0.0160284 0)
(-0.022178 0.0132812 0)
(-0.0250702 0.0100007 0)
(-0.027619 0.00616595 0)
(-0.0297385 0.00175913 0)
(-0.031344 -0.00323257 0)
(-0.0323291 -0.00877847 0)
(-0.0325859 -0.0148756 0)
(-0.0319893 -0.0215094 0)
(-0.0303892 -0.0286064 0)
(-0.0276516 -0.0360618 0)
(-0.0236451 -0.0437306 0)
(-0.0182644 -0.0514318 0)
(-0.0114366 -0.0589354 0)
(-0.00312519 -0.0660064 0)
(0.00666286 -0.0723736 0)
(0.0178622 -0.0777684 0)
(0.0304556 -0.0819232 0)
(0.0443927 -0.0845918 0)
(0.0594526 -0.0854194 0)
(0.0755329 -0.0839851 0)
(0.0923871 -0.0798753 0)
(0.109542 -0.0725997 0)
(0.126445 -0.0617018 0)
(0.142293 -0.0467602 0)
(0.15605 -0.0275932 0)
(0.166553 -0.00425746 0)
(0.172477 0.0227569 0)
(0.172703 0.0526842 0)
(0.166246 0.084265 0)
(0.152146 0.11586 0)
(0.129831 0.145351 0)
(0.0996895 0.170258 0)
(0.0632552 0.188194 0)
(0.0225496 0.197798 0)
(-0.0198713 0.19831 0)
(-0.0610101 0.18976 0)
(-0.0984351 0.172506 0)
(-0.129561 0.147942 0)
(-0.152873 0.118377 0)
(-0.167823 0.0864226 0)
(-0.174908 0.0542973 0)
(-0.175134 0.0237244 0)
(-0.169413 -0.00409392 0)
(-0.158792 -0.0282753 0)
(-0.144648 -0.0481805 0)
(-0.128191 -0.0636443 0)
(-0.110561 -0.0747819 0)
(-0.0927225 -0.0820134 0)
(-0.0753658 -0.085898 0)
(-0.0588809 -0.0869957 0)
(-0.0435199 -0.0857953 0)
(-0.0294856 -0.0827465 0)
(-0.0168956 -0.0783041 0)
(-0.00575974 -0.0726748 0)
(0.00394119 -0.0661193 0)
(0.0121601 -0.0589215 0)
(0.0188962 -0.0513297 0)
(0.0241917 -0.0435758 0)
(0.0281248 -0.035874 0)
(0.0308019 -0.0283957 0)
(0.0323514 -0.0212828 0)
(0.0328974 -0.0146296 0)
(0.0325858 -0.00851974 0)
(0.0315549 -0.00295833 0)
(0.0299054 0.00202994 0)
(0.0277378 0.00642625 0)
(0.0251461 0.0102439 0)
(0.0222181 0.013501 0)
(0.019027 0.0162209 0)
(0.0156346 0.0184292 0)
(0.0120914 0.0201484 0)
(0.00843928 0.0213381 0)
(0.00478763 0.0213618 0)
(0.00120258 0.0156742 0)
(-0.00139543 0.0186903 0)
(-0.00543986 0.025163 0)
(-0.00955256 0.0251448 0)
(-0.0136796 0.0238522 0)
(-0.0177118 0.0219829 0)
(-0.0216106 0.019576 0)
(-0.0253269 0.0166025 0)
(-0.0287985 0.0130278 0)
(-0.0319507 0.00881919 0)
(-0.0346968 0.00394905 0)
(-0.0369157 -0.00160699 0)
(-0.0385065 -0.00784547 0)
(-0.0393738 -0.0147747 0)
(-0.0393428 -0.0223707 0)
(-0.0382181 -0.0305901 0)
(-0.0358233 -0.0393337 0)
(-0.0319841 -0.0484404 0)
(-0.0265445 -0.0576866 0)
(-0.0194054 -0.0668028 0)
(-0.0105102 -0.0755017 0)
(0.0001433 -0.0834778 0)
(0.0125178 -0.0904397 0)
(0.0265522 -0.0960583 0)
(0.0422082 -0.100058 0)
(0.0594519 -0.102176 0)
(0.0781941 -0.101796 0)
(0.098207 -0.0984762 0)
(0.119103 -0.0914733 0)
(0.140313 -0.0800862 0)
(0.160888 -0.0636224 0)
(0.179538 -0.0416424 0)
(0.194722 -0.014049 0)
(0.20465 0.0186452 0)
(0.20774 0.0557215 0)
(0.202534 0.095586 0)
(0.187469 0.136327 0)
(0.161442 0.174941 0)
(0.124639 0.207739 0)
(0.0793394 0.231332 0)
(0.0286161 0.243839 0)
(-0.0247019 0.244416 0)
(-0.0760063 0.233661 0)
(-0.122648 0.21103 0)
(-0.160933 0.178619 0)
(-0.188394 0.139835 0)
(-0.20458 0.098615 0)
(-0.210583 0.0580208 0)
(-0.208125 0.0199404 0)
(-0.198541 -0.0138215 0)
(-0.183206 -0.0425899 0)
(-0.163978 -0.0656266 0)
(-0.142477 -0.0828399 0)
(-0.120184 -0.0945 0)
(-0.098328 -0.101331 0)
(-0.077636 -0.104263 0)
(-0.0584108 -0.104042 0)
(-0.0408856 -0.101405 0)
(-0.0252011 -0.0969266 0)
(-0.0112608 -0.0909282 0)
(0.00098893 -0.0836789 0)
(0.0114942 -0.0754979 0)
(0.020243 -0.0666696 0)
(0.0272509 -0.057476 0)
(0.0325723 -0.0481882 0)
(0.0363206 -0.0390682 0)
(0.0386464 -0.0303177 0)
(0.0397205 -0.0220881 0)
(0.0397024 -0.0144876 0)
(0.0387839 -0.00754078 0)
(0.0371351 -0.00128544 0)
(0.0348536 0.00426946 0)
(0.0320541 0.00912814 0)
(0.0288508 0.0133136 0)
(0.0253374 0.0168556 0)
(0.0215914 0.0197908 0)
(0.0176757 0.0221581 0)
(0.0136382 0.0239915 0)
(0.00951573 0.0252544 0)
(0.00541487 0.0252508 0)
(0.00138791 0.0188083 0)
(-0.00159759 0.0222581 0)
(-0.00611745 0.0295327 0)
(-0.0107135 0.0295498 0)
(-0.0153484 0.0281984 0)
(-0.019918 0.0262349 0)
(-0.0243913 0.0236919 0)
(-0.0287225 0.0205266 0)
(-0.0328487 0.0166896 0)
(-0.0366912 0.0121343 0)
(-0.0401557 0.00681998 0)
(-0.043127 0.000713982 0)
(-0.0454797 -0.00622889 0)
(-0.0470816 -0.0140079 0)
(-0.0477637 -0.0226176 0)
(-0.0473015 -0.0320646 0)
(-0.0454367 -0.0422666 0)
(-0.0419131 -0.0530367 0)
(-0.0365163 -0.064106 0)
(-0.0291081 -0.0751381 0)
(-0.0196177 -0.0857568 0)
(-0.00805061 -0.0956339 0)
(0.00554708 -0.104443 0)
(0.0211346 -0.111893 0)
(0.0386121 -0.117658 0)
(0.0581059 -0.121408 0)
(0.0796653 -0.122724 0)
(0.103212 -0.120904 0)
(0.128514 -0.114889 0)
(0.155022 -0.103654 0)
(0.181678 -0.0860749 0)
(0.206858 -0.0613277 0)
(0.228453 -0.0289662 0)
(0.24425 0.0105519 0)
(0.251954 0.0562324 0)
(0.249418 0.10658 0)
(0.234112 0.159634 0)
(0.203646 0.210752 0)
(0.158254 0.254272 0)
(0.101441 0.284637 0)
(0.0373366 0.300502 0)
(-0.0314582 0.301532 0)
(-0.096524 0.287799 0)
(-0.155329 0.258976 0)
(-0.202786 0.216113 0)
(-0.235219 0.16473 0)
(-0.252132 0.110879 0)
(-0.255886 0.0594096 0)
(-0.248967 0.0123626 0)
(-0.233564 -0.0285945 0)
(-0.211845 -0.0626483 0)
(-0.185833 -0.0889425 0)
(-0.15777 -0.10758 0)
(-0.129599 -0.119119 0)
(-0.102914 -0.124755 0)
(-0.0784617 -0.125865 0)
(-0.0563821 -0.123628 0)
(-0.0367227 -0.119104 0)
(-0.0193009 -0.112726 0)
(-0.00391672 -0.104796 0)
(0.0094451 -0.0956573 0)
(0.0207734 -0.0855738 0)
(0.0300481 -0.0748329 0)
(0.0372767 -0.0637552 0)
(0.0425239 -0.0526838 0)
(0.0459388 -0.041921 0)
(0.0477391 -0.0317315 0)
(0.0481485 -0.0222802 0)
(0.0474198 -0.0136647 0)
(0.0457726 -0.00586619 0)
(0.043355 0.00108922 0)
(0.0403113 0.00720276 0)
(0.0367756 0.0125039 0)
(0.0328686 0.0170275 0)
(0.0286916 0.0208185 0)
(0.0243272 0.0239302 0)
(0.0198386 0.0264187 0)
(0.0152695 0.0283338 0)
(0.0106481 0.0296453 0)
(0.00607475 0.0296 0)
(0.0015842 0.0223541 0)
(-0.00180863 0.0262684 0)
(-0.00682048 0.0343924 0)
(-0.0119167 0.0344616 0)
(-0.0170816 0.033081 0)
(-0.0222212 0.0310638 0)
(-0.0273157 0.0284318 0)
(-0.0323248 0.0251238 0)
(-0.0371848 0.0210712 0)
(-0.0418121 0.0162099 0)
(-0.0461057 0.0104836 0)
(-0.0499497 0.00384348 0)
(-0.0532086 -0.00376276 0)
(-0.0557315 -0.0123817 0)
(-0.057352 -0.0220517 0)
(-0.0578023 -0.0328088 0)
(-0.0567102 -0.0446525 0)
(-0.0537106 -0.0573708 0)
(-0.0484958 -0.0706124 0)
(-0.0408579 -0.083915 0)
(-0.0307503 -0.0968185 0)
(-0.018218 -0.108925 0)
(-0.00335353 -0.119898 0)
(0.0137645 -0.129477 0)
(0.0331163 -0.137422 0)
(0.0548015 -0.143318 0)
(0.0791798 -0.146838 0)
(0.106762 -0.147192 0)
(0.13746 -0.143114 0)
(0.170692 -0.133074 0)
(0.205102 -0.115185 0)
(0.238796 -0.0882061 0)
(0.269047 -0.0509011 0)
(0.292956 -0.00355835 0)
(0.308144 0.0524729 0)
(0.31124 0.116334 0)
(0.297177 0.186035 0)
(0.261207 0.254363 0)
(0.203701 0.312532 0)
(0.131619 0.353088 0)
(0.0493217 0.374796 0)
(-0.0423076 0.37622 0)
(-0.125461 0.357721 0)
(-0.199503 0.319383 0)
(-0.259778 0.261992 0)
(-0.298721 0.193004 0)
(-0.315051 0.121925 0)
(-0.313497 0.05667 0)
(-0.299341 -0.000726755 0)
(-0.275987 -0.0500854 0)
(-0.245736 -0.0899721 0)
(-0.210945 -0.119344 0)
(-0.174463 -0.138692 0)
(-0.138694 -0.148954 0)
(-0.105865 -0.152246 0)
(-0.0769976 -0.150601 0)
(-0.0520469 -0.145773 0)
(-0.0303922 -0.138809 0)
(-0.0113178 -0.130108 0)
(0.0054162 -0.119988 0)
(0.0198847 -0.108674 0)
(0.0320631 -0.0963801 0)
(0.0418671 -0.0833934 0)
(0.049254 -0.0700836 0)
(0.0542979 -0.0568911 0)
(0.0571939 -0.0442316 0)
(0.0582297 -0.0324373 0)
(0.0577451 -0.0216913 0)
(0.0560878 -0.0119924 0)
(0.0535185 -0.00333878 0)
(0.0501902 0.00429709 0)
(0.0462583 0.0109488 0)
(0.0418714 0.016659 0)
(0.0371597 0.0214761 0)
(0.0322359 0.0254634 0)
(0.0271891 0.0286957 0)
(0.0220824 0.0312522 0)
(0.0169525 0.0332037 0)
(0.0118143 0.0345318 0)
(0.00675556 0.0344266 0)
(0.00178819 0.0263294 0)
(-0.00202564 0.0307355 0)
(-0.00753655 0.0397534 0)
(-0.013136 0.0398928 0)
(-0.018839 0.0385214 0)
(-0.0245703 0.036506 0)
(-0.0303278 0.0338505 0)
(-0.0360779 0.0304672 0)
(-0.0417551 0.0262628 0)
(-0.0472682 0.0211522 0)
(-0.0525074 0.0150632 0)
(-0.0573535 0.00793629 0)
(-0.0616805 -0.000286529 0)
(-0.0653362 -0.00969174 0)
(-0.0681355 -0.0204081 0)
(-0.0698206 -0.0325651 0)
(-0.0698868 -0.0462217 0)
(-0.0677196 -0.0612561 0)
(-0.0628529 -0.0771362 0)
(-0.0550388 -0.0931882 0)
(-0.0442721 -0.108768 0)
(-0.0306983 -0.123399 0)
(-0.0145297 -0.136765 0)
(0.00409448 -0.148661 0)
(0.0253326 -0.158941 0)
(0.0496883 -0.167446 0)
(0.0779512 -0.173933 0)
(0.11093 -0.177932 0)
(0.148564 -0.177898 0)
(0.19033 -0.170969 0)