/*--------------------------------*- C++ -*----------------------------------*\
| =========                 |                                                 |
| \\      /  F ield         | OpenFOAM: The Open Source CFD Toolbox           |
|  \\    /   O peration     | Version:  2412                                  |
|   \\  /    A nd           | Website:  www.openfoam.com                      |
|    \\/     M anipulation  |                                                 |
\*---------------------------------------------------------------------------*/
FoamFile
{
    version     2.0;
    format      ascii;
    arch        "LSB;label=32;scalar=64";
    class       volVectorField;
    location    "5.7";
    object      U;
}
// * * * * * * * * * * * * * * * * * * * * * * * * * * * * * * * * * * * * * //

dimensions      [0 1 -1 0 0 0 0];

internalField   nonuniform List<vector> 
6400
(
(4.67802e-11 -4.7444e-11 0)
(3.35985e-11 -1.61571e-11 0)
(-2.13114e-10 3.78363e-11 0)
(-6.91937e-10 9.44829e-11 0)
(-1.35889e-09 1.16875e-10 0)
(-2.15839e-09 1.37289e-10 0)
(-3.06393e-09 1.53753e-10 0)
(-4.04877e-09 1.61329e-10 0)
(-5.09007e-09 1.6809e-10 0)
(-6.17211e-09 1.72152e-10 0)
(-7.28284e-09 1.76378e-10 0)
(-8.40719e-09 1.75828e-10 0)
(-9.53114e-09 1.74433e-10 0)
(-1.06415e-08 1.70045e-10 0)
(-1.17303e-08 1.66767e-10 0)
(-1.27897e-08 1.62207e-10 0)
(-1.38135e-08 1.5829e-10 0)
(-1.47918e-08 1.52099e-10 0)
(-1.57142e-08 1.44826e-10 0)
(-1.65668e-08 1.34484e-10 0)
(-1.73366e-08 1.22296e-10 0)
(-1.80092e-08 1.07358e-10 0)
(-1.85722e-08 9.06603e-11 0)
(-1.9012e-08 7.14281e-11 0)
(-1.93167e-08 5.02019e-11 0)
(-1.9473e-08 2.63331e-11 0)
(-1.94687e-08 5.56166e-14 0)
(-1.92905e-08 -2.90999e-11 0)
(-1.89267e-08 -6.08525e-11 0)
(-1.83654e-08 -9.53392e-11 0)
(-1.75972e-08 -1.32105e-10 0)
(-1.66142e-08 -1.709e-10 0)
(-1.54126e-08 -2.10892e-10 0)
(-1.39921e-08 -2.51297e-10 0)
(-1.23586e-08 -2.90798e-10 0)
(-1.0524e-08 -3.28127e-10 0)
(-8.50739e-09 -3.61637e-10 0)
(-6.33482e-09 -3.89896e-10 0)
(-4.03964e-09 -4.11367e-10 0)
(-1.66052e-09 -4.24976e-10 0)
(7.58822e-10 -4.29793e-10 0)
(3.17263e-09 -4.25504e-10 0)
(5.53393e-09 -4.12038e-10 0)
(7.79788e-09 -3.89962e-10 0)
(9.92244e-09 -3.6005e-10 0)
(1.18714e-08 -3.23614e-10 0)
(1.36145e-08 -2.8203e-10 0)
(1.51298e-08 -2.37027e-10 0)
(1.64023e-08 -1.90205e-10 0)
(1.74262e-08 -1.43287e-10 0)
(1.82021e-08 -9.76789e-11 0)
(1.8738e-08 -5.46994e-11 0)
(1.90467e-08 -1.52928e-11 0)
(1.91459e-08 1.98024e-11 0)
(1.90554e-08 5.01296e-11 0)
(1.87977e-08 7.55951e-11 0)
(1.83944e-08 9.62127e-11 0)
(1.78675e-08 1.12547e-10 0)
(1.72364e-08 1.2484e-10 0)
(1.65193e-08 1.34105e-10 0)
(1.57308e-08 1.40464e-10 0)
(1.48841e-08 1.45344e-10 0)
(1.39883e-08 1.48542e-10 0)
(1.30518e-08 1.51742e-10 0)
(1.20801e-08 1.53829e-10 0)
(1.10794e-08 1.56457e-10 0)
(1.00549e-08 1.57584e-10 0)
(9.01365e-09 1.59366e-10 0)
(7.96171e-09 1.59176e-10 0)
(6.90781e-09 1.59547e-10 0)
(5.86105e-09 1.56962e-10 0)
(4.8345e-09 1.53859e-10 0)
(3.84365e-09 1.45892e-10 0)
(2.90887e-09 1.35345e-10 0)
(2.05358e-09 1.18008e-10 0)
(1.30609e-09 9.54878e-11 0)
(6.99262e-10 6.26529e-11 0)
(2.65594e-10 2.27033e-11 0)
(2.36324e-11 -2.02311e-11 0)
(-2.22358e-11 -4.98376e-11 0)
(2.25707e-12 -5.3116e-11 0)
(-2.85269e-10 2.4444e-10 0)
(-1.0746e-09 6.76577e-10 0)
(-2.36106e-09 1.10453e-09 0)
(-4.07102e-09 1.39748e-09 0)
(-6.11732e-09 1.64247e-09 0)
(-8.43571e-09 1.83272e-09 0)
(-1.09703e-08 1.97598e-09 0)
(-1.36675e-08 2.07854e-09 0)
(-1.64839e-08 2.15749e-09 0)
(-1.93773e-08 2.20425e-09 0)
(-2.23122e-08 2.22545e-09 0)
(-2.52519e-08 2.21636e-09 0)
(-2.8169e-08 2.18979e-09 0)
(-3.1035e-08 2.14343e-09 0)
(-3.38285e-08 2.08442e-09 0)
(-3.6522e-08 2.00528e-09 0)
(-3.9091e-08 1.90655e-09 0)
(-4.15026e-08 1.78092e-09 0)
(-4.37263e-08 1.6293e-09 0)
(-4.57254e-08 1.44824e-09 0)
(-4.74671e-08 1.24069e-09 0)
(-4.89147e-08 1.00553e-09 0)
(-5.00357e-08 7.44722e-10 0)
(-5.07942e-08 4.57237e-10 0)
(-5.11578e-08 1.44279e-10 0)
(-5.10913e-08 -1.94782e-10 0)
(-5.05637e-08 -5.58517e-10 0)
(-4.95428e-08 -9.45944e-10 0)
(-4.80023e-08 -1.35386e-09 0)
(-4.59179e-08 -1.77863e-09 0)
(-4.3275e-08 -2.21408e-09 0)
(-4.00654e-08 -2.65278e-09 0)
(-3.62953e-08 -3.08458e-09 0)
(-3.19824e-08 -3.498e-09 0)
(-2.71629e-08 -3.87956e-09 0)
(-2.18878e-08 -4.21552e-09 0)
(-1.62277e-08 -4.49191e-09 0)
(-1.02673e-08 -4.69654e-09 0)
(-4.10686e-09 -4.81917e-09 0)
(2.14521e-09 -4.85319e-09 0)
(8.37286e-09 -4.79533e-09 0)
(1.44611e-08 -4.64678e-09 0)
(2.02974e-08 -4.41227e-09 0)
(2.57798e-08 -4.10056e-09 0)
(3.08179e-08 -3.72301e-09 0)
(3.5339e-08 -3.29367e-09 0)
(3.92871e-08 -2.8275e-09 0)
(4.26275e-08 -2.34027e-09 0)
(4.53424e-08 -1.8468e-09 0)
(4.7434e-08 -1.36094e-09 0)
(4.89179e-08 -8.94264e-10 0)
(4.9825e-08 -4.56382e-10 0)
(5.01939e-08 -5.43318e-11 0)
(5.00729e-08 3.0725e-10 0)
(4.95118e-08 6.26045e-10 0)
(4.85641e-08 9.02343e-10 0)
(4.72794e-08 1.13768e-09 0)
(4.57074e-08 1.33588e-09 0)
(4.38901e-08 1.5002e-09 0)
(4.18679e-08 1.63638e-09 0)
(3.96718e-08 1.7478e-09 0)
(3.73316e-08 1.84092e-09 0)
(3.48682e-08 1.91681e-09 0)
(3.23043e-08 1.98026e-09 0)
(2.96564e-08 2.02811e-09 0)
(2.69458e-08 2.06416e-09 0)
(2.41895e-08 2.08278e-09 0)
(2.1411e-08 2.08797e-09 0)
(1.86321e-08 2.07112e-09 0)
(1.5883e-08 2.03471e-09 0)
(1.31957e-08 1.96621e-09 0)
(1.06124e-08 1.86589e-09 0)
(8.18026e-09 1.71947e-09 0)
(5.95528e-09 1.52757e-09 0)
(3.99794e-09 1.27688e-09 0)
(2.37301e-09 9.68268e-10 0)
(1.14043e-09 6.08067e-10 0)
(3.43025e-10 2.44182e-10 0)
(1.59335e-11 -4.21857e-11 0)
(-5.81658e-11 1.45984e-10 0)
(-7.02645e-10 9.53743e-10 0)
(-2.03048e-09 1.96805e-09 0)
(-4.02041e-09 2.93593e-09 0)
(-6.58208e-09 3.68951e-09 0)
(-9.62399e-09 4.30877e-09 0)
(-1.30654e-08 4.81367e-09 0)
(-1.68268e-08 5.19432e-09 0)
(-2.0835e-08 5.48457e-09 0)
(-2.50203e-08 5.68714e-09 0)
(-2.93265e-08 5.81983e-09 0)
(-3.36966e-08 5.8729e-09 0)
(-3.80857e-08 5.86569e-09 0)
(-4.24454e-08 5.79716e-09 0)
(-4.67395e-08 5.68398e-09 0)
(-5.09239e-08 5.51843e-09 0)
(-5.4963e-08 5.30467e-09 0)
(-5.88098e-08 5.0288e-09 0)
(-6.24232e-08 4.69066e-09 0)
(-6.57515e-08 4.28051e-09 0)
(-6.87483e-08 3.80037e-09 0)
(-7.13584e-08 3.24668e-09 0)
(-7.35325e-08 2.62315e-09 0)
(-7.52145e-08 1.92786e-09 0)
(-7.63541e-08 1.1632e-09 0)
(-7.68956e-08 3.28283e-10 0)
(-7.67894e-08 -5.74201e-10 0)
(-7.59825e-08 -1.54255e-09 0)
(-7.44301e-08 -2.5708e-09 0)
(-7.20882e-08 -3.65162e-09 0)
(-6.8925e-08 -4.77251e-09 0)
(-6.4916e-08 -5.91775e-09 0)
(-6.0055e-08 -7.0656e-09 0)
(-5.43505e-08 -8.19028e-09 0)
(-4.7836e-08 -9.26066e-09 0)
(-4.05659e-08 -1.02432e-08 0)
(-3.26232e-08 -1.11022e-08 0)
(-2.41129e-08 -1.18038e-08 0)
(-1.51666e-08 -1.23172e-08 0)
(-5.93223e-09 -1.26181e-08 0)
(3.42537e-09 -1.26901e-08 0)
(1.27368e-08 -1.25268e-08 0)
(2.18295e-08 -1.21313e-08 0)
(3.05408e-08 -1.15173e-08 0)
(3.87192e-08 -1.07068e-08 0)
(4.62359e-08 -9.73003e-09 0)
(5.29832e-08 -8.62186e-09 0)
(5.88837e-08 -7.42103e-09 0)
(6.38849e-08 -6.16629e-09 0)
(6.7965e-08 -4.89544e-09 0)
(7.11242e-08 -3.64221e-09 0)
(7.33882e-08 -2.43604e-09 0)
(7.47977e-08 -1.30039e-09 0)
(7.54113e-08 -2.53047e-10 0)
(7.52935e-08 6.94333e-10 0)
(7.45189e-08 1.53618e-09 0)
(7.31595e-08 2.2718e-09 0)
(7.12909e-08 2.90579e-09 0)
(6.89796e-08 3.44445e-09 0)
(6.62923e-08 3.89842e-09 0)
(6.32831e-08 4.2766e-09 0)
(6.0005e-08 4.59246e-09 0)
(5.64977e-08 4.85317e-09 0)
(5.28022e-08 5.07026e-09 0)
(4.89481e-08 5.24363e-09 0)
(4.49704e-08 5.38047e-09 0)
(4.08957e-08 5.47383e-09 0)
(3.6759e-08 5.52932e-09 0)
(3.25898e-08 5.53438e-09 0)
(2.84292e-08 5.49202e-09 0)
(2.43163e-08 5.3823e-09 0)
(2.03041e-08 5.20362e-09 0)
(1.64483e-08 4.92991e-09 0)
(1.28179e-08 4.55781e-09 0)
(9.48589e-09 4.0632e-09 0)
(6.53387e-09 3.44668e-09 0)
(4.0427e-09 2.69496e-09 0)
(2.08832e-09 1.84085e-09 0)
(7.39225e-10 9.62325e-10 0)
(6.46821e-11 1.68912e-10 0)
(-1.02415e-10 5.63911e-10 0)
(-1.06982e-09 2.12113e-09 0)
(-2.88486e-09 3.87463e-09 0)
(-5.49028e-09 5.52176e-09 0)
(-8.77304e-09 6.85805e-09 0)
(-1.26377e-08 7.98223e-09 0)
(-1.69895e-08 8.89136e-09 0)
(-2.17376e-08 9.60559e-09 0)
(-2.67899e-08 1.01342e-08 0)
(-3.20691e-08 1.05204e-08 0)
(-3.74993e-08 1.07577e-08 0)
(-4.3021e-08 1.08731e-08 0)
(-4.85692e-08 1.08612e-08 0)
(-5.40942e-08 1.07519e-08 0)
(-5.95372e-08 1.05395e-08 0)
(-6.48534e-08 1.02382e-08 0)
(-6.99843e-08 9.83115e-09 0)
(-7.48819e-08 9.3187e-09 0)
(-7.94833e-08 8.68361e-09 0)
(-8.37346e-08 7.92577e-09 0)
(-8.75679e-08 7.03459e-09 0)
(-9.09231e-08 6.01295e-09 0)
(-9.37277e-08 4.85643e-09 0)
(-9.59168e-08 3.56818e-09 0)
(-9.74161e-08 2.14578e-09 0)
(-9.81585e-08 5.92549e-10 0)
(-9.80703e-08 -1.09039e-09 0)
(-9.70867e-08 -2.89568e-09 0)
(-9.51409e-08 -4.81422e-09 0)
(-9.21794e-08 -6.82882e-09 0)
(-8.81538e-08 -8.91703e-09 0)
(-8.30363e-08 -1.10464e-08 0)
(-7.68139e-08 -1.31771e-08 0)
(-6.95026e-08 -1.52587e-08 0)
(-6.11425e-08 -1.72346e-08 0)
(-5.18102e-08 -1.90415e-08 0)
(-4.16107e-08 -2.06153e-08 0)
(-3.06868e-08 -2.18935e-08 0)
(-1.92063e-08 -2.28214e-08 0)
(-7.36644e-09 -2.33553e-08 0)
(4.62267e-09 -2.34674e-08 0)
(1.65379e-08 -2.31466e-08 0)
(2.81613e-08 -2.24011e-08 0)
(3.92808e-08 -2.12565e-08 0)
(4.9708e-08 -1.97553e-08 0)
(5.92765e-08 -1.79525e-08 0)
(6.78565e-08 -1.59137e-08 0)
(7.53491e-08 -1.37084e-08 0)
(8.16959e-08 -1.14081e-08 0)
(8.68684e-08 -9.07973e-09 0)
(9.08745e-08 -6.78447e-09 0)
(9.37443e-08 -4.57401e-09 0)
(9.55356e-08 -2.49053e-09 0)
(9.63175e-08 -5.65134e-10 0)
(9.61767e-08 1.18172e-09 0)
(9.52003e-08 2.7397e-09 0)
(9.34841e-08 4.10832e-09 0)
(9.11157e-08 5.29328e-09 0)
(8.81853e-08 6.30782e-09 0)
(8.4769e-08 7.16598e-09 0)
(8.09432e-08 7.88832e-09 0)
(7.67673e-08 8.49031e-09 0)
(7.2302e-08 8.99301e-09 0)
(6.75917e-08 9.40432e-09 0)
(6.26861e-08 9.73879e-09 0)
(5.76207e-08 9.9924e-09 0)
(5.24412e-08 1.01741e-08 0)
(4.71823e-08 1.02699e-08 0)
(4.18927e-08 1.02848e-08 0)
(3.66138e-08 1.01944e-08 0)
(3.14036e-08 9.99675e-09 0)
(2.63188e-08 9.65583e-09 0)
(2.14333e-08 9.16417e-09 0)
(1.6823e-08 8.48299e-09 0)
(1.25762e-08 7.60822e-09 0)
(8.78396e-09 6.51134e-09 0)
(5.54371e-09 5.20296e-09 0)
(2.94737e-09 3.7085e-09 0)
(1.09698e-09 2.14784e-09 0)
(1.0393e-10 5.85991e-10 0)
(-1.2751e-10 1.15607e-09 0)
(-1.3567e-09 3.6787e-09 0)
(-3.59563e-09 6.30781e-09 0)
(-6.73145e-09 8.72097e-09 0)
(-1.06275e-08 1.07424e-08 0)
(-1.51778e-08 1.24357e-08 0)
(-2.02808e-08 1.38336e-08 0)
(-2.58306e-08 1.49197e-08 0)
(-3.17326e-08 1.57505e-08 0)
(-3.78918e-08 1.63367e-08 0)
(-4.42346e-08 1.67226e-08 0)
(-5.06828e-08 1.69004e-08 0)
(-5.71774e-08 1.69076e-08 0)
(-6.36472e-08 1.67406e-08 0)
(-7.00391e-08 1.6429e-08 0)
(-7.62847e-08 1.59577e-08 0)
(-8.23317e-08 1.53341e-08 0)
(-8.81094e-08 1.45336e-08 0)
(-9.35599e-08 1.35553e-08 0)
(-9.86071e-08 1.23797e-08 0)
(-1.03185e-07 1.10064e-08 0)
(-1.07211e-07 9.42392e-09 0)
(-1.1061e-07 7.63418e-09 0)
(-1.13292e-07 5.63096e-09 0)
(-1.15177e-07 3.41662e-09 0)
(-1.16171e-07 9.89357e-10 0)
(-1.1619e-07 -1.64438e-09 0)
(-1.15142e-07 -4.47695e-09 0)
(-1.12951e-07 -7.49004e-09 0)
(-1.09539e-07 -1.06585e-08 0)
(-1.04849e-07 -1.39432e-08 0)
(-9.88373e-08 -1.72938e-08 0)
(-9.14898e-08 -2.06438e-08 0)
(-8.28172e-08 -2.39145e-08 0)
(-7.28721e-08 -2.70139e-08 0)
(-6.1741e-08 -2.98435e-08 0)
(-4.95578e-08 -3.23008e-08 0)
(-3.64921e-08 -3.42893e-08 0)
(-2.27562e-08 -3.5723e-08 0)
(-8.58757e-09 -3.65358e-08 0)
(5.75016e-09 -3.66846e-08 0)
(1.99887e-08 -3.61555e-08 0)
(3.38567e-08 -3.49626e-08 0)
(4.71024e-08 -3.31494e-08 0)
(5.94938e-08 -3.07835e-08 0)
(7.08389e-08 -2.79543e-08 0)
(8.09807e-08 -2.47642e-08 0)
(8.98119e-08 -2.13238e-08 0)
(9.7264e-08 -1.77425e-08 0)
(1.03316e-07 -1.41247e-08 0)
(1.07977e-07 -1.05626e-08 0)
(1.11297e-07 -7.13532e-09 0)
(1.13339e-07 -3.90539e-09 0)
(1.14198e-07 -9.19392e-10 0)
(1.13969e-07 1.79264e-09 0)
(1.12764e-07 4.21627e-09 0)
(1.10688e-07 6.3497e-09 0)
(1.07853e-07 8.20349e-09 0)
(1.04355e-07 9.79374e-09 0)
(1.00293e-07 1.1146e-08 0)
(9.57474e-08 1.22837e-08 0)
(9.07993e-08 1.32381e-08 0)
(8.55093e-08 1.40286e-08 0)
(7.99433e-08 1.46811e-08 0)
(7.41475e-08 1.52001e-08 0)
(6.81782e-08 1.5602e-08 0)
(6.20753e-08 1.58756e-08 0)
(5.58934e-08 1.60296e-08 0)
(4.96752e-08 1.60388e-08 0)
(4.34809e-08 1.59042e-08 0)
(3.7364e-08 1.55839e-08 0)
(3.13988e-08 1.50679e-08 0)
(2.56589e-08 1.43034e-08 0)
(2.02354e-08 1.32809e-08 0)
(1.52179e-08 1.19546e-08 0)
(1.07107e-08 1.03217e-08 0)
(6.82337e-09 8.35776e-09 0)
(3.66854e-09 6.12522e-09 0)
(1.3886e-09 3.72461e-09 0)
(1.32345e-10 1.17559e-09 0)
(-1.42389e-10 1.86957e-09 0)
(-1.57606e-09 5.56701e-09 0)
(-4.16791e-09 9.17391e-09 0)
(-7.7507e-09 1.24502e-08 0)
(-1.21632e-08 1.52094e-08 0)
(-1.729e-08 1.75504e-08 0)
(-2.30149e-08 1.9464e-08 0)
(-2.92308e-08 2.09863e-08 0)
(-3.58263e-08 2.21285e-08 0)
(-4.27112e-08 2.29651e-08 0)
(-4.97934e-08 2.34972e-08 0)
(-5.70058e-08 2.37749e-08 0)
(-6.42697e-08 2.37912e-08 0)
(-7.15273e-08 2.35891e-08 0)
(-7.87027e-08 2.31586e-08 0)
(-8.57399e-08 2.25214e-08 0)
(-9.25625e-08 2.16513e-08 0)
(-9.91121e-08 2.05492e-08 0)
(-1.05308e-07 1.91868e-08 0)
(-1.11083e-07 1.75604e-08 0)
(-1.16347e-07 1.56487e-08 0)
(-1.21023e-07 1.34492e-08 0)
(-1.25011e-07 1.09479e-08 0)
(-1.2822e-07 8.14376e-09 0)
(-1.3054e-07 5.02882e-09 0)
(-1.31872e-07 1.60567e-09 0)
(-1.32102e-07 -2.1237e-09 0)
(-1.31126e-07 -6.14444e-09 0)
(-1.28838e-07 -1.04345e-08 0)
(-1.25148e-07 -1.49542e-08 0)
(-1.19973e-07 -1.96493e-08 0)
(-1.13259e-07 -2.44438e-08 0)
(-1.04975e-07 -2.92427e-08 0)
(-9.51325e-08 -3.39292e-08 0)
(-8.37809e-08 -3.8371e-08 0)
(-7.10244e-08 -4.24226e-08 0)
(-5.70129e-08 -4.59371e-08 0)
(-4.19541e-08 -4.87729e-08 0)
(-2.60955e-08 -5.08077e-08 0)
(-9.72884e-09 -5.19459e-08 0)
(6.835e-09 -5.21289e-08 0)
(2.32673e-08 -5.13375e-08 0)
(3.92499e-08 -4.95969e-08 0)
(5.44769e-08 -4.69718e-08 0)
(6.86821e-08 -4.35649e-08 0)
(8.16364e-08 -3.95064e-08 0)
(9.31685e-08 -3.49474e-08 0)
(1.03155e-07 -3.00462e-08 0)
(1.11534e-07 -2.49606e-08 0)
(1.18285e-07 -1.98365e-08 0)
(1.23437e-07 -1.4804e-08 0)
(1.27049e-07 -9.97075e-09 0)
(1.29212e-07 -5.42282e-09 0)
(1.30031e-07 -1.22199e-09 0)
(1.29628e-07 2.59232e-09 0)
(1.28125e-07 6.00133e-09 0)
(1.25654e-07 9.00512e-09 0)
(1.2233e-07 1.16162e-08 0)
(1.18277e-07 1.38609e-08 0)
(1.13595e-07 1.57685e-08 0)
(1.08386e-07 1.73789e-08 0)
(1.02729e-07 1.87237e-08 0)
(9.67089e-08 1.98424e-08 0)
(9.03836e-08 2.07535e-08 0)
(8.38216e-08 2.14855e-08 0)
(7.70694e-08 2.2036e-08 0)
(7.0188e-08 2.2421e-08 0)
(6.32205e-08 2.26183e-08 0)
(5.62289e-08 2.26344e-08 0)
(4.9262e-08 2.24271e-08 0)
(4.23918e-08 2.19886e-08 0)
(3.56842e-08 2.12551e-08 0)
(2.92296e-08 2.021e-08 0)
(2.31154e-08 1.87907e-08 0)
(1.74457e-08 1.69903e-08 0)
(1.23275e-08 1.47506e-08 0)
(7.88756e-09 1.20745e-08 0)
(4.25814e-09 8.99679e-09 0)
(1.62095e-09 5.62515e-09 0)
(1.53476e-10 1.8997e-09 0)
(-1.55279e-10 2.67754e-09 0)
(-1.74686e-09 7.71031e-09 0)
(-4.61796e-09 1.24094e-08 0)
(-8.57054e-09 1.66094e-08 0)
(-1.34196e-08 2.0188e-08 0)
(-1.90292e-08 2.31984e-08 0)
(-2.52783e-08 2.56941e-08 0)
(-3.20447e-08 2.7655e-08 0)
(-3.92223e-08 2.91632e-08 0)
(-4.67007e-08 3.02398e-08 0)
(-5.44003e-08 3.09631e-08 0)
(-6.22345e-08 3.13279e-08 0)
(-7.0144e-08 3.13905e-08 0)
(-7.80499e-08 3.11405e-08 0)
(-8.58967e-08 3.06176e-08 0)
(-9.36042e-08 2.97986e-08 0)
(-1.01115e-07 2.86949e-08 0)
(-1.08346e-07 2.72713e-08 0)
(-1.15234e-07 2.55235e-08 0)
(-1.21687e-07 2.34187e-08 0)
(-1.27627e-07 2.09494e-08 0)
(-1.32952e-07 1.80899e-08 0)
(-1.37566e-07 1.48331e-08 0)
(-1.41351e-07 1.11605e-08 0)
(-1.44194e-07 7.06748e-09 0)
(-1.45964e-07 2.54579e-09 0)
(-1.46538e-07 -2.39835e-09 0)
(-1.45777e-07 -7.75271e-09 0)
(-1.43559e-07 -1.34848e-08 0)
(-1.39759e-07 -1.95456e-08 0)
(-1.34279e-07 -2.58588e-08 0)
(-1.27033e-07 -3.23236e-08 0)
(-1.1798e-07 -3.88073e-08 0)
(-1.07112e-07 -4.51514e-08 0)
(-9.44819e-08 -5.11708e-08 0)
(-8.01941e-08 -5.66659e-08 0)
(-6.44267e-08 -6.14306e-08 0)
(-4.74136e-08 -6.52705e-08 0)
(-2.94553e-08 -6.80151e-08 0)
(-1.08917e-08 -6.95351e-08 0)
(7.89777e-09 -6.97501e-08 0)
(2.65277e-08 -6.86386e-08 0)
(4.46113e-08 -6.62376e-08 0)
(6.17943e-08 -6.26428e-08 0)
(7.77576e-08 -5.79986e-08 0)
(9.22456e-08 -5.24901e-08 0)
(1.0506e-07 -4.6326e-08 0)
(1.16078e-07 -3.97263e-08 0)
(1.25236e-07 -3.29039e-08 0)
(1.32534e-07 -2.60561e-08 0)
(1.38016e-07 -1.93528e-08 0)
(1.4177e-07 -1.29351e-08 0)
(1.43905e-07 -6.91146e-09 0)
(1.44556e-07 -1.35952e-09 0)
(1.43862e-07 3.67333e-09 0)
(1.41973e-07 8.16668e-09 0)
(1.39029e-07 1.21216e-08 0)
(1.35174e-07 1.55592e-08 0)
(1.30533e-07 1.85102e-08 0)
(1.2523e-07 2.10202e-08 0)
(1.19366e-07 2.31317e-08 0)
(1.13043e-07 2.48979e-08 0)
(1.06336e-07 2.63542e-08 0)
(9.93276e-08 2.75453e-08 0)
(9.20723e-08 2.8484e-08 0)
(8.46395e-08 2.91988e-08 0)
(7.70738e-08 2.96764e-08 0)
(6.94393e-08 2.99312e-08 0)
(6.17803e-08 2.99257e-08 0)
(5.41652e-08 2.96589e-08 0)
(4.665e-08 2.90646e-08 0)
(3.93185e-08 2.81227e-08 0)
(3.22497e-08 2.67496e-08 0)
(2.55482e-08 2.49312e-08 0)
(1.93162e-08 2.2597e-08 0)
(1.36768e-08 1.97264e-08 0)
(8.76374e-09 1.62563e-08 0)
(4.73443e-09 1.22594e-08 0)
(1.80258e-09 7.78308e-09 0)
(1.67891e-10 2.7312e-09 0)
(-1.65525e-10 3.55878e-09 0)
(-1.8764e-09 1.0055e-08 0)
(-4.96597e-09 1.59309e-08 0)
(-9.22596e-09 2.11486e-08 0)
(-1.44424e-08 2.55758e-08 0)
(-2.04652e-08 2.93237e-08 0)
(-2.71518e-08 3.23985e-08 0)
(-3.43851e-08 3.48585e-08 0)
(-4.20416e-08 3.6716e-08 0)
(-5.00231e-08 3.80826e-08 0)
(-5.82264e-08 3.89745e-08 0)
(-6.65867e-08 3.94717e-08 0)
(-7.50237e-08 3.95645e-08 0)
(-8.34864e-08 3.93089e-08 0)
(-9.18958e-08 3.86844e-08 0)
(-1.00199e-07 3.7719e-08 0)
(-1.08314e-07 3.63761e-08 0)
(-1.16182e-07 3.46567e-08 0)
(-1.23713e-07 3.25179e-08 0)
(-1.30836e-07 2.99482e-08 0)
(-1.37447e-07 2.69086e-08 0)
(-1.43457e-07 2.33838e-08 0)
(-1.48742e-07 1.93414e-08 0)
(-1.53188e-07 1.47662e-08 0)
(-1.5665e-07 9.63479e-09 0)
(-1.58991e-07 3.93979e-09 0)
(-1.60049e-07 -2.32343e-09 0)
(-1.59672e-07 -9.13772e-09 0)
(-1.57696e-07 -1.64698e-08 0)
(-1.53974e-07 -2.42551e-08 0)
(-1.48364e-07 -3.24e-08 0)
(-1.40761e-07 -4.07707e-08 0)
(-1.31084e-07 -4.91966e-08 0)
(-1.19315e-07 -5.74653e-08 0)
(-1.05485e-07 -6.53319e-08 0)
(-8.97109e-08 -7.25257e-08 0)
(-7.21801e-08 -7.87704e-08 0)
(-5.31717e-08 -8.38011e-08 0)
(-3.30307e-08 -8.73896e-08 0)
(-1.21711e-08 -8.93607e-08 0)
(8.96133e-09 -8.96102e-08 0)
(2.98956e-08 -8.81113e-08 0)
(5.01779e-08 -8.49206e-08 0)
(6.93789e-08 -8.01702e-08 0)
(8.71332e-08 -7.40619e-08 0)
(1.03138e-07 -6.6847e-08 0)
(1.17184e-07 -5.88106e-08 0)
(1.29137e-07 -5.02453e-08 0)
(1.38954e-07 -4.14341e-08 0)
(1.4665e-07 -3.26305e-08 0)
(1.52308e-07 -2.4052e-08 0)
(1.56038e-07 -1.58724e-08 0)
(1.57991e-07 -8.22433e-09 0)
(1.58323e-07 -1.19812e-09 0)
(1.5721e-07 5.153e-09 0)
(1.54816e-07 1.08086e-08 0)
(1.51311e-07 1.57768e-08 0)
(1.46845e-07 2.00842e-08 0)
(1.41571e-07 2.37774e-08 0)
(1.35611e-07 2.69076e-08 0)
(1.2909e-07 2.95394e-08 0)
(1.22102e-07 3.17258e-08 0)
(1.14745e-07 3.35299e-08 0)
(1.07087e-07 3.49851e-08 0)
(9.92067e-08 3.61379e-08 0)
(9.11523e-08 3.69909e-08 0)
(8.29916e-08 3.75709e-08 0)
(7.47654e-08 3.78498e-08 0)
(6.65396e-08 3.78374e-08 0)
(5.83595e-08 3.74725e-08 0)
(5.03007e-08 3.67407e-08 0)
(4.2427e-08 3.55471e-08 0)
(3.48351e-08 3.38621e-08 0)
(2.76189e-08 3.15922e-08 0)
(2.09009e-08 2.87213e-08 0)
(1.48058e-08 2.51519e-08 0)
(9.4866e-09 2.08526e-08 0)
(5.11655e-09 1.58364e-08 0)
(1.94086e-09 1.01586e-08 0)
(1.76286e-10 3.64169e-09 0)
(-1.70461e-10 4.49923e-09 0)
(-1.97078e-09 1.25438e-08 0)
(-5.23933e-09 1.97047e-08 0)
(-9.75787e-09 2.59851e-08 0)
(-1.52933e-08 3.13424e-08 0)
(-2.16694e-08 3.58242e-08 0)
(-2.87353e-08 3.95377e-08 0)
(-3.63532e-08 4.24737e-08 0)
(-4.44165e-08 4.47383e-08 0)
(-5.28055e-08 4.63642e-08 0)
(-6.14383e-08 4.74747e-08 0)
(-7.02242e-08 4.80772e-08 0)
(-7.91145e-08 4.82508e-08 0)
(-8.80348e-08 4.79771e-08 0)
(-9.69421e-08 4.73027e-08 0)
(-1.05758e-07 4.6192e-08 0)
(-1.14434e-07 4.46585e-08 0)
(-1.22885e-07 4.2653e-08 0)
(-1.31049e-07 4.01648e-08 0)
(-1.38828e-07 3.71416e-08 0)
(-1.46142e-07 3.3561e-08 0)
(-1.52871e-07 2.93742e-08 0)
(-1.58905e-07 2.45537e-08 0)
(-1.64097e-07 1.90569e-08 0)
(-1.68306e-07 1.28587e-08 0)
(-1.71354e-07 5.93135e-09 0)
(-1.73068e-07 -1.73115e-09 0)
(-1.73252e-07 -1.01217e-08 0)
(-1.71717e-07 -1.92003e-08 0)
(-1.68265e-07 -2.88962e-08 0)
(-1.62725e-07 -3.90926e-08 0)
(-1.54936e-07 -4.96267e-08 0)
(-1.4479e-07 -6.02798e-08 0)
(-1.32223e-07 -7.07819e-08 0)
(-1.17255e-07 -8.08112e-08 0)
(-9.99872e-08 -9.00128e-08 0)
(-8.06326e-08 -9.80165e-08 0)
(-5.9502e-08 -1.04471e-07 0)
(-3.70126e-08 -1.0907e-07 0)
(-1.36499e-08 -1.11583e-07 0)
(1.00385e-08 -1.11873e-07 0)
(3.3494e-08 -1.0991e-07 0)
(5.61599e-08 -1.05772e-07 0)
(7.75332e-08 -9.96431e-08 0)
(9.71721e-08 -9.17956e-08 0)
(1.14739e-07 -8.257e-08 0)
(1.29992e-07 -7.23441e-08 0)
(1.4281e-07 -6.15057e-08 0)
(1.53163e-07 -5.0419e-08 0)
(1.61112e-07 -3.94069e-08 0)
(1.66771e-07 -2.87355e-08 0)
(1.70307e-07 -1.8615e-08 0)
(1.71899e-07 -9.19794e-09 0)
(1.71753e-07 -5.85774e-10 0)
(1.70064e-07 7.16694e-09 0)
(1.67038e-07 1.40452e-08 0)
(1.62854e-07 2.00647e-08 0)
(1.57696e-07 2.5268e-08 0)
(1.51714e-07 2.97107e-08 0)
(1.45059e-07 3.34668e-08 0)
(1.37847e-07 3.66056e-08 0)
(1.30198e-07 3.92084e-08 0)
(1.22193e-07 4.13324e-08 0)
(1.13925e-07 4.30466e-08 0)
(1.05449e-07 4.43767e-08 0)
(9.68401e-08 4.53681e-08 0)
(8.81356e-08 4.60088e-08 0)
(7.94006e-08 4.63223e-08 0)
(7.06708e-08 4.6259e-08 0)
(6.20141e-08 4.58167e-08 0)
(5.34775e-08 4.49028e-08 0)
(4.51446e-08 4.34852e-08 0)
(3.709e-08 4.1442e-08 0)
(2.94278e-08 3.87407e-08 0)
(2.22735e-08 3.52732e-08 0)
(1.57759e-08 3.09966e-08 0)
(1.00948e-08 2.57874e-08 0)
(5.42891e-09 1.96959e-08 0)
(2.04615e-09 1.2703e-08 0)
(1.79956e-10 4.6137e-09 0)
(-1.71351e-10 5.47779e-09 0)
(-2.04381e-09 1.51644e-08 0)
(-5.46931e-09 2.36742e-08 0)
(-1.02198e-08 3.11072e-08 0)
(-1.60353e-08 3.7407e-08 0)
(-2.27309e-08 4.26907e-08 0)
(-3.01223e-08 4.70071e-08 0)
(-3.80742e-08 5.04742e-08 0)
(-4.64615e-08 5.31064e-08 0)
(-5.51931e-08 5.50496e-08 0)
(-6.41626e-08 5.63408e-08 0)
(-7.33114e-08 5.7104e-08 0)
(-8.25628e-08 5.73344e-08 0)
(-9.18836e-08 5.71033e-08 0)
(-1.01205e-07 5.63772e-08 0)
(-1.10491e-07 5.51865e-08 0)
(-1.19666e-07 5.34795e-08 0)
(-1.28683e-07 5.12527e-08 0)
(-1.37452e-07 4.84437e-08 0)
(-1.45908e-07 4.50263e-08 0)
(-1.5394e-07 4.09356e-08 0)
(-1.61453e-07 3.61323e-08 0)
(-1.68304e-07 3.05529e-08 0)
(-1.74359e-07 2.41527e-08 0)
(-1.79438e-07 1.6876e-08 0)
(-1.83361e-07 8.68819e-09 0)
(-1.85908e-07 -4.39249e-10 0)
(-1.86863e-07 -1.05026e-08 0)
(-1.8598e-07 -2.14701e-08 0)
(-1.83027e-07 -3.32607e-08 0)
(-1.77766e-07 -4.57435e-08 0)
(-1.69995e-07 -5.8721e-08 0)
(-1.59537e-07 -7.19281e-08 0)
(-1.4629e-07 -8.50235e-08 0)
(-1.30222e-07 -9.75976e-08 0)
(-1.11429e-07 -1.09184e-07 0)
(-9.0127e-08 -1.19297e-07 0)
(-6.66828e-08 -1.27468e-07 0)
(-4.15802e-08 -1.33292e-07 0)
(-1.54165e-08 -1.36464e-07 0)
(1.11543e-08 -1.36806e-07 0)
(3.74405e-08 -1.34283e-07 0)
(6.27774e-08 -1.29006e-07 0)
(8.65467e-08 -1.21222e-07 0)
(1.08235e-07 -1.11299e-07 0)
(1.27437e-07 -9.9688e-08 0)
(1.43903e-07 -8.68919e-08 0)
(1.57509e-07 -7.34144e-08 0)
(1.68275e-07 -5.97238e-08 0)
(1.76303e-07 -4.62191e-08 0)
(1.81779e-07 -3.32228e-08 0)
(1.84915e-07 -2.09765e-08 0)
(1.85956e-07 -9.65146e-09 0)
(1.8514e-07 6.47042e-10 0)
(1.82715e-07 9.86845e-09 0)
(1.78902e-07 1.8008e-08 0)
(1.73923e-07 2.50981e-08 0)
(1.67962e-07 3.11953e-08 0)
(1.61204e-07 3.63797e-08 0)
(1.53789e-07 4.07353e-08 0)
(1.45863e-07 4.43611e-08 0)
(1.37527e-07 4.73387e-08 0)
(1.2889e-07 4.97616e-08 0)
(1.20019e-07 5.16845e-08 0)
(1.10997e-07 5.31779e-08 0)
(1.01864e-07 5.42543e-08 0)
(9.2686e-08 5.49561e-08 0)
(8.34904e-08 5.52514e-08 0)
(7.43378e-08 5.51544e-08 0)
(6.52595e-08 5.45848e-08 0)
(5.6325e-08 5.35213e-08 0)
(4.75853e-08 5.18335e-08 0)
(3.91355e-08 4.94707e-08 0)
(3.10687e-08 4.62885e-08 0)
(2.35247e-08 4.22452e-08 0)
(1.66521e-08 3.71911e-08 0)
(1.06392e-08 3.10512e-08 0)
(5.69954e-09 2.37866e-08 0)
(2.1325e-09 1.54014e-08 0)
(1.81177e-10 5.62915e-09 0)
(-1.70801e-10 6.49074e-09 0)
(-2.10991e-09 1.78912e-08 0)
(-5.69105e-09 2.78496e-08 0)
(-1.06638e-08 3.64584e-08 0)
(-1.67473e-08 4.37805e-08 0)
(-2.37304e-08 4.98426e-08 0)
(-3.14242e-08 5.48135e-08 0)
(-3.96547e-08 5.87487e-08 0)
(-4.83175e-08 6.18018e-08 0)
(-5.73041e-08 6.40116e-08 0)
(-6.65493e-08 6.55459e-08 0)
(-7.59673e-08 6.64327e-08 0)
(-8.55253e-08 6.6786e-08 0)
(-9.51598e-08 6.65844e-08 0)
(-1.04851e-07 6.58817e-08 0)
(-1.14536e-07 6.46261e-08 0)
(-1.24186e-07 6.28276e-08 0)
(-1.33725e-07 6.04171e-08 0)
(-1.43106e-07 5.73709e-08 0)
(-1.52233e-07 5.36101e-08 0)
(-1.61029e-07 4.90877e-08 0)
(-1.69368e-07 4.37197e-08 0)
(-1.77132e-07 3.74433e-08 0)
(-1.84151e-07 3.01739e-08 0)
(-1.90253e-07 2.18453e-08 0)
(-1.95214e-07 1.23879e-08 0)
(-1.98804e-07 1.75991e-09 0)
(-2.00747e-07 -1.00594e-08 0)
(-2.00768e-07 -2.30434e-08 0)
(-1.9856e-07 -3.71161e-08 0)
(-1.93836e-07 -5.21303e-08 0)
(-1.86307e-07 -6.78629e-08 0)
(-1.75736e-07 -8.39961e-08 0)
(-1.61932e-07 -1.00114e-07 0)
(-1.44815e-07 -1.15697e-07 0)
(-1.24433e-07 -1.30141e-07 0)
(-1.01021e-07 -1.42804e-07 0)
(-7.49878e-08 -1.53065e-07 0)
(-4.69242e-08 -1.60388e-07 0)
(-1.75447e-08 -1.64372e-07 0)
(1.23355e-08 -1.64783e-07 0)
(4.18793e-08 -1.61583e-07 0)
(7.02594e-08 -1.54924e-07 0)
(9.67367e-08 -1.4514e-07 0)
(1.20681e-07 -1.32717e-07 0)
(1.41635e-07 -1.18258e-07 0)
(1.59311e-07 -1.02423e-07 0)
(1.73623e-07 -8.58699e-08 0)
(1.84636e-07 -6.91916e-08 0)
(1.92547e-07 -5.28787e-08 0)
(1.97608e-07 -3.73068e-08 0)
(2.0012e-07 -2.27483e-08 0)
(2.00379e-07 -9.38249e-09 0)
(1.98693e-07 2.68759e-09 0)
(1.95338e-07 1.34245e-08 0)
(1.90587e-07 2.28428e-08 0)
(1.8467e-07 3.09952e-08 0)
(1.7781e-07 3.79657e-08 0)
(1.70183e-07 4.38518e-08 0)
(1.61962e-07 4.87694e-08 0)
(1.53273e-07 5.28251e-08 0)
(1.44247e-07 5.61377e-08 0)
(1.34966e-07 5.87939e-08 0)
(1.25526e-07 6.08937e-08 0)
(1.15972e-07 6.24824e-08 0)
(1.06376e-07 6.36284e-08 0)
(9.6761e-08 6.4326e-08 0)
(8.71817e-08 6.46102e-08 0)
(7.76549e-08 6.44202e-08 0)
(6.82366e-08 6.3754e-08 0)
(5.89538e-08 6.24903e-08 0)
(4.988e-08 6.05811e-08 0)
(4.10755e-08 5.78543e-08 0)
(3.2655e-08 5.42408e-08 0)
(2.47419e-08 4.95684e-08 0)
(1.75158e-08 4.37517e-08 0)
(1.11729e-08 3.65999e-08 0)
(5.96393e-09 2.81174e-08 0)
(2.21394e-09 1.82274e-08 0)
(1.81873e-10 6.68663e-09 0)
(-1.70364e-10 7.53144e-09 0)
(-2.18322e-09 2.07453e-08 0)
(-5.93314e-09 3.22083e-08 0)
(-1.11508e-08 4.20786e-08 0)
(-1.7504e-08 5.04023e-08 0)
(-2.47702e-08 5.73099e-08 0)
(-3.27315e-08 6.28692e-08 0)
(-4.12183e-08 6.7311e-08 0)
(-5.0091e-08 7.07027e-08 0)
(-5.92826e-08 7.3235e-08 0)
(-6.87088e-08 7.49582e-08 0)
(-7.83379e-08 7.60403e-08 0)
(-8.8107e-08 7.64891e-08 0)
(-9.80075e-08 7.63983e-08 0)
(-1.07987e-07 7.5724e-08 0)
(-1.18039e-07 7.44965e-08 0)
(-1.28103e-07 7.26436e-08 0)
(-1.38155e-07 7.01507e-08 0)
(-1.48117e-07 6.69289e-08 0)
(-1.57938e-07 6.2929e-08 0)
(-1.67512e-07 5.80504e-08 0)
(-1.76745e-07 5.2217e-08 0)
(-1.8549e-07 4.53175e-08 0)
(-1.93598e-07 3.72574e-08 0)
(-2.00858e-07 2.79247e-08 0)
(-2.07048e-07 1.72287e-08 0)
(-2.11887e-07 5.08708e-09 0)
(-2.15075e-07 -8.54183e-09 0)
(-2.16265e-07 -2.36579e-08 0)
(-2.151e-07 -4.01912e-08 0)
(-2.11199e-07 -5.7995e-08 0)
(-2.042e-07 -7.68216e-08 0)
(-1.93749e-07 -9.63095e-08 0)
(-1.79565e-07 -1.15959e-07 0)
(-1.61457e-07 -1.35122e-07 0)
(-1.39424e-07 -1.53018e-07 0)
(-1.13683e-07 -1.68794e-07 0)
(-8.47189e-08 -1.81624e-07 0)
(-5.32324e-08 -1.90799e-07 0)
(-2.01159e-08 -1.95789e-07 0)
(1.36357e-08 -1.96295e-07 0)
(4.69696e-08 -1.92267e-07 0)
(7.88785e-08 -1.83918e-07 0)
(1.08441e-07 -1.71692e-07 0)
(1.34911e-07 -1.56236e-07 0)
(1.57733e-07 -1.38346e-07 0)
(1.76615e-07 -1.18894e-07 0)
(1.91498e-07 -9.87382e-08 0)
(2.02556e-07 -7.86293e-08 0)
(2.10084e-07 -5.9156e-08 0)
(2.14463e-07 -4.07473e-08 0)
(2.16073e-07 -2.36914e-08 0)
(2.15304e-07 -8.16674e-09 0)
(2.1251e-07 5.74011e-09 0)
(2.08034e-07 1.8015e-08 0)
(2.02167e-07 2.87008e-08 0)
(1.95185e-07 3.78833e-08 0)
(1.87307e-07 4.56735e-08 0)
(1.78743e-07 5.22051e-08 0)
(1.69648e-07 5.76106e-08 0)
(1.60179e-07 6.20353e-08 0)
(1.50436e-07 6.56001e-08 0)
(1.40533e-07 6.8437e-08 0)
(1.30527e-07 7.06295e-08 0)
(1.20495e-07 7.22784e-08 0)
(1.10463e-07 7.34131e-08 0)
(1.00484e-07 7.40968e-08 0)
(9.05646e-08 7.42971e-08 0)
(8.07488e-08 7.40353e-08 0)
(7.1041e-08 7.32124e-08 0)
(6.1493e-08 7.17989e-08 0)
(5.21308e-08 6.96224e-08 0)
(4.30361e-08 6.66003e-08 0)
(3.42882e-08 6.25178e-08 0)
(2.60351e-08 5.7274e-08 0)
(1.84486e-08 5.06371e-08 0)
(1.17646e-08 4.24748e-08 0)
(6.25923e-09 3.26724e-08 0)
(2.30637e-09 2.12018e-08 0)
(1.82597e-10 7.78166e-09 0)
(-1.71278e-10 8.61352e-09 0)
(-2.27709e-09 2.37236e-08 0)
(-6.23592e-09 3.68109e-08 0)
(-1.17415e-08 4.79546e-08 0)
(-1.84072e-08 5.73337e-08 0)
(-2.59513e-08 6.50175e-08 0)
(-3.41668e-08 7.12099e-08 0)
(-4.28562e-08 7.60553e-08 0)
(-5.19062e-08 7.98212e-08 0)
(-6.12208e-08 8.25864e-08 0)
(-7.07751e-08 8.45634e-08 0)
(-8.05141e-08 8.57932e-08 0)
(-9.04402e-08 8.64236e-08 0)
(-1.00511e-07 8.64337e-08 0)
(-1.10738e-07 8.58875e-08 0)
(-1.21079e-07 8.47164e-08 0)
(-1.31534e-07 8.29217e-08 0)
(-1.42046e-07 8.04089e-08 0)
(-1.52591e-07 7.71337e-08 0)
(-1.63087e-07 7.29833e-08 0)
(-1.73474e-07 6.78758e-08 0)
(-1.8363e-07 6.16798e-08 0)
(-1.93442e-07 5.42798e-08 0)
(-2.0273e-07 4.5527e-08 0)
(-2.11302e-07 3.52857e-08 0)
(-2.18894e-07 2.34109e-08 0)
(-2.25217e-07 9.78625e-09 0)
(-2.29908e-07 -5.67859e-09 0)
(-2.32579e-07 -2.30125e-08 0)
(-2.32782e-07 -4.21746e-08 0)
(-2.30061e-07 -6.3025e-08 0)
(-2.23928e-07 -8.53121e-08 0)
(-2.13917e-07 -1.08638e-07 0)
(-1.99585e-07 -1.32425e-07 0)
(-1.80604e-07 -1.55876e-07 0)
(-1.56851e-07 -1.77977e-07 0)
(-1.28533e-07 -1.97589e-07 0)
(-9.62013e-08 -2.13608e-07 0)
(-6.07265e-08 -2.25089e-07 0)
(-2.32017e-08 -2.3134e-07 0)
(1.51127e-08 -2.31965e-07 0)
(5.29158e-08 -2.26917e-07 0)
(8.89362e-08 -2.16479e-07 0)
(1.22055e-07 -2.01246e-07 0)
(1.51345e-07 -1.82072e-07 0)
(1.76167e-07 -1.60012e-07 0)
(1.96194e-07 -1.36222e-07 0)
(2.11458e-07 -1.11829e-07 0)
(2.22262e-07 -8.77793e-08 0)
(2.29086e-07 -6.4768e-08 0)
(2.32441e-07 -4.32571e-08 0)
(2.32841e-07 -2.35345e-08 0)
(2.30751e-07 -5.7555e-09 0)
(2.26609e-07 1.00231e-08 0)
(2.20792e-07 2.38257e-08 0)