/*--------------------------------*- C++ -*----------------------------------*\
| =========                 |                                                 |
| \\      /  F ield         | OpenFOAM: The Open Source CFD Toolbox           |
|  \\    /   O peration     | Version:  2412                                  |
|   \\  /    A nd           | Website:  www.openfoam.com                      |
|    \\/     M anipulation  |                                                 |
\*---------------------------------------------------------------------------*/
FoamFile
{
    version     2.0;
    format      ascii;
    arch        "LSB;label=32;scalar=64";
    class       volVectorField;
    location    "4.25";
    object      U;
}
// * * * * * * * * * * * * * * * * * * * * * * * * * * * * * * * * * * * * * //

dimensions      [0 1 -1 0 0 0 0];

internalField   nonuniform List<vector> 
6400
(
(-0.00183962 0.00174929 0)
(-0.00445577 0.00144256 0)
(-0.00627756 0.00133406 0)
(-0.00808966 0.00128378 0)
(-0.0098885 0.00125178 0)
(-0.0117246 0.00120789 0)
(-0.0135689 0.00115129 0)
(-0.015411 0.00108137 0)
(-0.0172114 0.0010057 0)
(-0.0189291 0.000912315 0)
(-0.0205605 0.000808167 0)
(-0.0220809 0.000701118 0)
(-0.0234635 0.00059481 0)
(-0.0247309 0.000492433 0)
(-0.025891 0.00041683 0)
(-0.0269459 0.000352061 0)
(-0.027921 0.000301614 0)
(-0.0288289 0.00025699 0)
(-0.0296766 0.000223335 0)
(-0.0304652 0.000197222 0)
(-0.0311942 0.000167883 0)
(-0.0318482 0.000133103 0)
(-0.0324045 8.94447e-05 0)
(-0.0328379 3.46e-05 0)
(-0.033119 -3.66214e-05 0)
(-0.0332029 -0.000137284 0)
(-0.0330168 -0.000263986 0)
(-0.0325414 -0.000403315 0)
(-0.0317619 -0.00055012 0)
(-0.0306542 -0.000706742 0)
(-0.0292044 -0.000868956 0)
(-0.0274055 -0.00103218 0)
(-0.0252613 -0.00119396 0)
(-0.0227766 -0.00135338 0)
(-0.0199638 -0.0015063 0)
(-0.0168491 -0.001646 0)
(-0.0134654 -0.00176773 0)
(-0.00985815 -0.00186773 0)
(-0.00608194 -0.00193878 0)
(-0.00219602 -0.00197542 0)
(0.00173007 -0.00197725 0)
(0.00562562 -0.00194601 0)
(0.00942315 -0.00188041 0)
(0.0130584 -0.00178548 0)
(0.0164779 -0.00166366 0)
(0.0196321 -0.00152438 0)
(0.0224836 -0.00137076 0)
(0.0250086 -0.00120985 0)
(0.0271916 -0.0010461 0)
(0.0290255 -0.000880933 0)
(0.0305081 -0.000716943 0)
(0.0316418 -0.000556848 0)
(0.0324418 -0.000406454 0)
(0.032929 -0.000260002 0)
(0.033122 -0.000127233 0)
(0.033037 -2.61865e-05 0)
(0.0327481 5.00035e-05 0)
(0.0322975 0.000108887 0)
(0.0317174 0.000155992 0)
(0.031038 0.000192397 0)
(0.0302819 0.000219634 0)
(0.0294571 0.000253229 0)
(0.0285746 0.00028358 0)
(0.0276387 0.000322385 0)
(0.0266419 0.000371748 0)
(0.0255705 0.000432773 0)
(0.0243995 0.00050364 0)
(0.0231126 0.000598102 0)
(0.0217266 0.000707237 0)
(0.0202282 0.000807108 0)
(0.0186097 0.00090463 0)
(0.0169025 0.000995288 0)
(0.0151264 0.00107733 0)
(0.0133172 0.00114519 0)
(0.0114999 0.00119307 0)
(0.00969569 0.00123643 0)
(0.00793835 0.00127253 0)
(0.00616941 0.00132172 0)
(0.00438182 0.00143679 0)
(0.00180893 0.00172299 0)
(-0.00183094 0.00467713 0)
(-0.00363931 0.00296322 0)
(-0.00431707 0.002384 0)
(-0.00502093 0.00234082 0)
(-0.00580999 0.00243312 0)
(-0.0067684 0.00252034 0)
(-0.0078723 0.00257606 0)
(-0.00910277 0.0025977 0)
(-0.0104403 0.00258159 0)
(-0.0118483 0.00251521 0)
(-0.0132967 0.00240921 0)
(-0.0147594 0.00227766 0)
(-0.0162192 0.00213212 0)
(-0.0176646 0.00198421 0)
(-0.0190927 0.00186276 0)
(-0.0204941 0.00175045 0)
(-0.0218713 0.00165598 0)
(-0.0232031 0.00156337 0)
(-0.0244718 0.00147138 0)
(-0.0256834 0.00137566 0)
(-0.02682 0.00125846 0)
(-0.0278499 0.00110547 0)
(-0.0287461 0.000913527 0)
(-0.0294761 0.000673661 0)
(-0.030016 0.000382306 0)
(-0.0303177 2.77443e-05 0)
(-0.0303864 -0.000389408 0)
(-0.0301889 -0.000853533 0)
(-0.0296675 -0.00135405 0)
(-0.0288092 -0.00188511 0)
(-0.0275989 -0.00243149 0)
(-0.0260198 -0.00297984 0)
(-0.0240743 -0.00352454 0)
(-0.0217742 -0.00405494 0)
(-0.0191387 -0.00455136 0)
(-0.0162045 -0.00499985 0)
(-0.0130119 -0.00538576 0)
(-0.00960782 -0.00569571 0)
(-0.00604604 -0.00591651 0)
(-0.00238338 -0.00603347 0)
(0.00131426 -0.00603986 0)
(0.00498397 -0.00594026 0)
(0.00856492 -0.00573515 0)
(0.011997 -0.00543833 0)
(0.0152253 -0.00505849 0)
(0.0182015 -0.00461398 0)
(0.0208845 -0.00411849 0)
(0.0232372 -0.00359048 0)
(0.0252326 -0.00304328 0)
(0.0268583 -0.0024873 0)
(0.0281152 -0.00193495 0)
(0.0290138 -0.00139494 0)
(0.0295763 -0.000883724 0)
(0.0298057 -0.000411053 0)
(0.0297381 1.56996e-05 0)
(0.0294509 0.000380475 0)
(0.0289343 0.000686452 0)
(0.0282116 0.000933584 0)
(0.0273199 0.00113047 0)
(0.0262916 0.00128699 0)
(0.0251678 0.00140583 0)
(0.0239558 0.00151133 0)
(0.0226692 0.00159321 0)
(0.0213484 0.00168278 0)
(0.0199865 0.00177221 0)
(0.0185919 0.00187389 0)
(0.0171737 0.00199154 0)
(0.0157384 0.0021269 0)
(0.0142951 0.002269 0)
(0.0128555 0.00238649 0)
(0.0114288 0.00248057 0)
(0.0100439 0.0025427 0)
(0.00873595 0.00256123 0)
(0.00753999 0.00253361 0)
(0.00647564 0.00246207 0)
(0.00556548 0.00237288 0)
(0.00482509 0.00228219 0)
(0.00417782 0.00231975 0)
(0.00355884 0.00291019 0)
(0.00180266 0.00459242 0)
(-0.00187097 0.00734477 0)
(-0.00340132 0.00393361 0)
(-0.00368306 0.0028348 0)
(-0.00400373 0.00281075 0)
(-0.00443158 0.00306246 0)
(-0.00507755 0.00331017 0)
(-0.00590769 0.00351877 0)
(-0.00689565 0.00365781 0)
(-0.00800575 0.00372196 0)
(-0.00918985 0.00370234 0)
(-0.0104102 0.00362086 0)
(-0.0116377 0.00349889 0)
(-0.0128591 0.00335333 0)
(-0.0140703 0.00320933 0)
(-0.0152747 0.00307864 0)
(-0.0164727 0.0029596 0)
(-0.0176759 0.00285579 0)
(-0.0188781 0.00275533 0)
(-0.0200654 0.00264566 0)
(-0.0212437 0.00251297 0)
(-0.0223999 0.00234136 0)
(-0.0235039 0.00210593 0)
(-0.0245265 0.00179887 0)
(-0.0254258 0.00140237 0)
(-0.0261683 0.000917443 0)
(-0.0267123 0.000351727 0)
(-0.0270155 -0.000299413 0)
(-0.0270472 -0.00104244 0)
(-0.0267699 -0.00185174 0)
(-0.0261621 -0.00271099 0)
(-0.0252038 -0.0035976 0)
(-0.0238819 -0.004495 0)
(-0.0221963 -0.00538737 0)
(-0.0201508 -0.00624452 0)
(-0.0177703 -0.00703759 0)
(-0.0150952 -0.00774234 0)
(-0.0121613 -0.00834009 0)
(-0.00901577 -0.00881313 0)
(-0.00571479 -0.00914653 0)
(-0.00231279 -0.00932337 0)
(0.00112398 -0.00933564 0)
(0.00453273 -0.00918417 0)
(0.00785394 -0.0088755 0)
(0.0110277 -0.00842411 0)
(0.0139996 -0.00784376 0)
(0.0167214 -0.00714966 0)
(0.0191516 -0.00636459 0)
(0.0212537 -0.0055113 0)
(0.0229999 -0.00461497 0)
(0.024375 -0.00370467 0)
(0.0253835 -0.00280401 0)
(0.0260377 -0.00193279 0)
(0.0263564 -0.00110631 0)
(0.0263602 -0.000354049 0)
(0.0260833 0.000311974 0)
(0.02557 0.000898393 0)
(0.0248453 0.0014057 0)
(0.0239467 0.00181201 0)
(0.0229312 0.0021273 0)
(0.021828 0.00236962 0)
(0.0206815 0.00254701 0)
(0.0194953 0.00267646 0)
(0.018292 0.00278074 0)
(0.0170964 0.00287588 0)
(0.0158937 0.00297083 0)
(0.0147056 0.00307625 0)
(0.0135165 0.00320194 0)
(0.0123216 0.0033349 0)
(0.011122 0.00346598 0)
(0.00991762 0.00357607 0)
(0.0087228 0.00364587 0)
(0.00756886 0.00365327 0)
(0.00649682 0.00358154 0)
(0.00554726 0.00343199 0)
(0.00475759 0.00321171 0)
(0.00416516 0.00294599 0)
(0.00378902 0.00268699 0)
(0.00353539 0.00270604 0)
(0.0033251 0.00381406 0)
(0.00184743 0.00721129 0)
(-0.00201781 0.0100831 0)
(-0.00350622 0.00474359 0)
(-0.00354676 0.00307072 0)
(-0.0036469 0.00308697 0)
(-0.00391574 0.00354182 0)
(-0.00447899 0.00401818 0)
(-0.00529182 0.00442321 0)
(-0.00631294 0.00470843 0)
(-0.00746034 0.00486596 0)
(-0.00866874 0.00488928 0)
(-0.00988757 0.00480945 0)
(-0.0110927 0.0046675 0)
(-0.012266 0.00449791 0)
(-0.0134055 0.00433623 0)
(-0.0145255 0.00419458 0)
(-0.0156396 0.00407865 0)
(-0.0167751 0.00398321 0)
(-0.0179269 0.00389807 0)
(-0.0190906 0.00380226 0)
(-0.0202771 0.00367167 0)
(-0.0214701 0.00348402 0)
(-0.0226438 0.00320707 0)
(-0.023768 0.00281695 0)
(-0.0247904 0.00230526 0)
(-0.0256661 0.00165818 0)
(-0.0263554 0.00087835 0)
(-0.0268187 -3.44326e-05 0)
(-0.0269993 -0.00106307 0)
(-0.026851 -0.00219466 0)
(-0.0263605 -0.00340428 0)
(-0.025502 -0.00465993 0)
(-0.0242616 -0.0059353 0)
(-0.0226366 -0.00720082 0)
(-0.0206332 -0.00841229 0)
(-0.0182711 -0.00953789 0)
(-0.0155799 -0.0105413 0)
(-0.0125954 -0.0113938 0)
(-0.00936314 -0.0120693 0)
(-0.00594454 -0.012546 0)
(-0.00240562 -0.0127978 0)
(0.00117879 -0.0128153 0)
(0.00472992 -0.012598 0)
(0.00817266 -0.0121592 0)
(0.0114382 -0.0115144 0)
(0.0144699 -0.0106898 0)
(0.017215 -0.00970481 0)
(0.0196338 -0.00859239 0)
(0.0216973 -0.00738268 0)
(0.0233834 -0.0061126 0)
(0.024683 -0.0048239 0)
(0.025595 -0.00355133 0)
(0.0261328 -0.00232712 0)
(0.0263218 -0.00117328 0)
(0.0261785 -0.00011894 0)
(0.0257477 0.000818794 0)
(0.0250935 0.0016244 0)
(0.0242316 0.00228935 0)
(0.0232022 0.00282981 0)
(0.0220837 0.00323462 0)
(0.0209072 0.00352091 0)
(0.0197136 0.0037184 0)
(0.0185158 0.00383471 0)
(0.0173286 0.00393091 0)
(0.0161768 0.00400225 0)
(0.0150447 0.00408093 0)
(0.0139372 0.00418045 0)
(0.0128346 0.00430909 0)
(0.011715 0.00446024 0)
(0.0105665 0.00461249 0)
(0.00938558 0.00473951 0)
(0.00818598 0.00480147 0)
(0.00700752 0.00475755 0)
(0.00590451 0.00458783 0)
(0.00492499 0.00429842 0)
(0.00414263 0.00387578 0)
(0.00363147 0.00337327 0)
(0.00342595 0.00289597 0)
(0.00338902 0.00287377 0)
(0.00341631 0.00456286 0)
(0.00198916 0.00988725 0)
(-0.00226257 0.0130222 0)
(-0.00376938 0.00543792 0)
(-0.00348592 0.0030873 0)
(-0.00329877 0.00316905 0)
(-0.00337041 0.00392671 0)
(-0.00388671 0.00473896 0)
(-0.0047813 0.00540742 0)
(-0.00594084 0.00586057 0)
(-0.00724115 0.00610595 0)
(-0.00858527 0.00614439 0)
(-0.00989835 0.00603264 0)
(-0.0111479 0.00583411 0)
(-0.0123225 0.00561597 0)
(-0.0134366 0.00541476 0)
(-0.0145162 0.0052539 0)
(-0.0155875 0.00514105 0)
(-0.0166933 0.00507121 0)
(-0.017837 0.00503018 0)
(-0.019023 0.00497559 0)
(-0.0202592 0.00488574 0)
(-0.0215307 0.00471172 0)
(-0.0228196 0.0044152 0)
(-0.0240767 0.00396728 0)
(-0.0252482 0.00335033 0)
(-0.0262922 0.00254261 0)
(-0.0271513 0.00154361 0)
(-0.0277608 0.000361685 0)
(-0.0280727 -0.000965827 0)
(-0.0280454 -0.00244195 0)
(-0.0276412 -0.00402545 0)
(-0.026835 -0.00567443 0)
(-0.0256158 -0.00735259 0)
(-0.0239754 -0.00901858 0)
(-0.0219191 -0.0106172 0)
(-0.0194687 -0.0121101 0)
(-0.0166471 -0.0134507 0)
(-0.0134885 -0.0145982 0)
(-0.0100433 -0.0155126 0)
(-0.00637724 -0.0161606 0)
(-0.00256593 -0.0165055 0)
(0.00129919 -0.0165294 0)
(0.00512411 -0.0162338 0)
(0.00882127 -0.0156383 0)
(0.0123079 -0.0147653 0)
(0.0155239 -0.0136537 0)
(0.0184118 -0.012339 0)
(0.0209283 -0.0108619 0)
(0.0230481 -0.00926558 0)
(0.0247521 -0.00759528 0)
(0.026036 -0.00590122 0)
(0.0269003 -0.00422651 0)
(0.0273564 -0.00262162 0)
(0.0274292 -0.00111901 0)
(0.0271534 0.000245259 0)
(0.0265735 0.00146052 0)
(0.0257399 0.00249451 0)
(0.0247157 0.0033248 0)
(0.0235393 0.00397231 0)
(0.0222695 0.00445216 0)
(0.0209752 0.00475806 0)
(0.0196866 0.00494917 0)
(0.0184332 0.00503062 0)
(0.0172311 0.00507454 0)
(0.0160806 0.00510362 0)
(0.0149775 0.00514635 0)
(0.013911 0.00523034 0)
(0.0128476 0.0053714 0)
(0.0117507 0.00555794 0)
(0.0105968 0.00576003 0)
(0.00937201 0.00593041 0)
(0.00808318 0.00602066 0)
(0.00677422 0.00595543 0)
(0.00552617 0.00570748 0)
(0.00439835 0.0052285 0)
(0.00352693 0.0045448 0)
(0.00306176 0.00371065 0)
(0.00304718 0.00291975 0)
(0.00330342 0.00281734 0)
(0.00364942 0.00517823 0)
(0.00221525 0.0127471 0)
(-0.00261205 0.0162623 0)
(-0.00417447 0.00593866 0)
(-0.00341009 0.00273784 0)
(-0.00274897 0.00293303 0)
(-0.00251287 0.00418225 0)
(-0.0029839 0.00548397 0)
(-0.00405462 0.00653479 0)
(-0.00547369 0.00721832 0)
(-0.00702191 0.00753352 0)
(-0.00857415 0.00753693 0)
(-0.0100249 0.00732983 0)
(-0.0113345 0.00703258 0)
(-0.0125072 0.00671958 0)
(-0.0135799 0.00644593 0)
(-0.0145974 0.0062548 0)
(-0.0156084 0.006158 0)
(-0.016665 0.00613876 0)
(-0.0177959 0.00616443 0)
(-0.0190032 0.00620084 0)
(-0.0203051 0.00617751 0)
(-0.0216949 0.00605674 0)
(-0.0231337 0.00577303 0)
(-0.0245711 0.005296 0)
(-0.0259518 0.00458281 0)
(-0.0272151 0.00361556 0)
(-0.0282839 0.00239737 0)
(-0.0290803 0.000945278 0)
(-0.0295624 -0.000722791 0)
(-0.0296758 -0.00258163 0)
(-0.0293672 -0.0045776 0)
(-0.028614 -0.00666117 0)
(-0.0274027 -0.00878537 0)
(-0.0257178 -0.0108893 0)
(-0.0235713 -0.0129204 0)
(-0.0209862 -0.0148258 0)
(-0.0179796 -0.0165476 0)
(-0.0145899 -0.0180297 0)
(-0.0108724 -0.0192215 0)
(-0.00689983 -0.020068 0)
(-0.00275842 -0.0205214 0)
(0.00144481 -0.0205542 0)
(0.00560091 -0.0201674 0)
(0.00961091 -0.0193884 0)
(0.0133794 -0.0182553 0)
(0.0168356 -0.0168158 0)
(0.0199194 -0.0151259 0)
(0.0225847 -0.0132387 0)
(0.0248028 -0.0112101 0)
(0.026556 -0.00909442 0)
(0.0278464 -0.00695135 0)
(0.0286661 -0.00483997 0)
(0.0290263 -0.00281658 0)
(0.0289627 -0.000919546 0)
(0.0285177 0.000792512 0)
(0.0277464 0.00229224 0)
(0.0266989 0.0035563 0)
(0.0254451 0.00456366 0)
(0.0240657 0.00530631 0)
(0.0226103 0.00581756 0)
(0.0211513 0.00612722 0)
(0.0197401 0.00626084 0)
(0.0183996 0.00627421 0)
(0.0171731 0.00622736 0)
(0.0160386 0.00618012 0)
(0.0149721 0.00616606 0)
(0.0139632 0.00622729 0)
(0.0129624 0.00639192 0)
(0.0119053 0.00664072 0)
(0.0107458 0.00693822 0)
(0.00946922 0.00721368 0)
(0.00805506 0.0073832 0)
(0.00654582 0.00734698 0)
(0.00502689 0.00702056 0)
(0.00363532 0.00631566 0)
(0.00261278 0.0052607 0)
(0.00217677 0.00391675 0)
(0.00245489 0.00263096 0)
(0.00317084 0.00241456 0)
(0.00401909 0.00563401 0)
(0.00256208 0.0159153 0)
(-0.00314374 0.0199926 0)
(-0.00481889 0.00623656 0)
(-0.00330133 0.00181793 0)
(-0.00185542 0.00216229 0)
(-0.00114574 0.00421995 0)
(-0.00159709 0.0063282 0)
(-0.00295798 0.00792345 0)
(-0.00482114 0.00889249 0)
(-0.00679263 0.00924612 0)
(-0.00865294 0.00913689 0)
(-0.0102716 0.00875218 0)
(-0.0116342 0.00826196 0)
(-0.0127873 0.007782 0)
(-0.0137697 0.00739943 0)
(-0.0146624 0.00716359 0)
(-0.0155633 0.00709712 0)
(-0.0165498 0.0071601 0)
(-0.0176329 0.00729657 0)
(-0.0188603 0.00747376 0)
(-0.0202454 0.00758029 0)
(-0.0217697 0.00755583 0)
(-0.0234089 0.00733427 0)
(-0.0250889 0.00685013 0)
(-0.0267444 0.00605567 0)
(-0.0282878 0.00493557 0)
(-0.0296233 0.00349062 0)
(-0.0306723 0.00173473 0)
(-0.0313807 -0.000303692 0)
(-0.0316688 -0.00258663 0)
(-0.0314788 -0.00504241 0)
(-0.0307902 -0.00761253 0)
(-0.0295831 -0.0102353 0)
(-0.0278469 -0.012833 0)
(-0.0255958 -0.0153514 0)
(-0.0228433 -0.017722 0)
(-0.0196087 -0.0198766 0)
(-0.0159364 -0.0217417 0)
(-0.0118876 -0.0232511 0)
(-0.00753921 -0.0243265 0)
(-0.00299342 -0.0249063 0)
(0.00162533 -0.0249489 0)
(0.00618814 -0.0244568 0)
(0.0105784 -0.023467 0)
(0.0146891 -0.0220369 0)
(0.0184405 -0.0202278 0)
(0.0217647 -0.0181108 0)
(0.0246132 -0.0157574 0)
(0.0269545 -0.0132376 0)
(0.0287684 -0.0106203 0)
(0.0300555 -0.00797525 0)
(0.0308175 -0.00537491 0)
(0.0310749 -0.00287978 0)
(0.030845 -0.000552853 0)
(0.0301747 0.00153337 0)
(0.0291494 0.00335543 0)
(0.027827 0.00487198 0)
(0.0262851 0.00604892 0)
(0.024618 0.0068878 0)
(0.0229218 0.00740382 0)
(0.0212544 0.00765394 0)
(0.0196751 0.00768378 0)
(0.0182482 0.00756621 0)
(0.0169996 0.00737554 0)
(0.0158946 0.00721097 0)
(0.0148968 0.00710967 0)
(0.0139979 0.00713468 0)
(0.0131138 0.00733162 0)
(0.0121482 0.00768262 0)
(0.0110257 0.00813702 0)
(0.00968682 0.00861119 0)
(0.0080956 0.00894445 0)
(0.00628195 0.0090232 0)
(0.00435721 0.00865548 0)
(0.00253709 0.00769653 0)
(0.00118905 0.00608521 0)
(0.000750475 0.00393165 0)
(0.00151101 0.001829 0)
(0.00302373 0.00143198 0)
(0.00461598 0.00584745 0)
(0.00306394 0.0195297 0)
(-0.00388447 0.0244724 0)
(-0.00600186 0.00625215 0)
(-0.00351309 -7.95166e-06 0)
(-0.000567308 0.000644258 0)
(0.00107341 0.00399347 0)
(0.000567259 0.00742175 0)
(-0.00138889 0.00983254 0)
(-0.00399071 0.0111024 0)
(-0.00660881 0.011387 0)
(-0.00889659 0.0110251 0)
(-0.0107341 0.0103063 0)
(-0.012148 0.00948429 0)
(-0.013214 0.00874999 0)
(-0.0140257 0.0082072 0)
(-0.0147111 0.00791202 0)
(-0.0154257 0.00789156 0)
(-0.0162859 0.00807621 0)
(-0.0172906 0.00840885 0)
(-0.0185123 0.00878573 0)
(-0.0199984 0.0091078 0)
(-0.0217026 0.00925533 0)
(-0.0235927 0.0091507 0)
(-0.025595 0.00869679 0)
(-0.0276016 0.0078573 0)
(-0.0295026 0.00658957 0)
(-0.0311919 0.00489369 0)
(-0.032567 0.00279118 0)
(-0.0335559 0.000329641 0)
(-0.0340629 -0.00242559 0)
(-0.0340214 -0.00540193 0)
(-0.0334177 -0.00852124 0)
(-0.0322225 -0.0117017 0)
(-0.0304295 -0.0148632 0)
(-0.0280568 -0.0179318 0)
(-0.0251105 -0.0208351 0)
(-0.0216085 -0.023487 0)
(-0.0175989 -0.0257981 0)
(-0.0131444 -0.0276749 0)
(-0.00833342 -0.0290224 0)
(-0.00328379 -0.0297519 0)
(0.001857 -0.0298055 0)
(0.00692546 -0.0291872 0)
(0.0117832 -0.0279498 0)
(0.0163079 -0.026173 0)
(0.0204126 -0.0239369 0)
(0.0240226 -0.0213301 0)
(0.0270856 -0.0184445 0)
(0.0295671 -0.0153657 0)
(0.0314482 -0.0121774 0)
(0.0327334 -0.00896043 0)
(0.0334249 -0.00580164 0)
(0.0335352 -0.00277631 0)
(0.0330813 3.36197e-05 0)
(0.0321439 0.00255614 0)
(0.0308132 0.00473266 0)
(0.029132 0.00651126 0)
(0.0272121 0.00785663 0)
(0.0251806 0.00876426 0)
(0.0231442 0.00926746 0)
(0.0212073 0.00939507 0)
(0.0194378 0.00924955 0)
(0.0178928 0.00892384 0)
(0.0166372 0.00851596 0)
(0.015603 0.00814177 0)
(0.0147217 0.00792273 0)
(0.0140062 0.00787981 0)
(0.0133294 0.00811997 0)
(0.0125342 0.00861753 0)
(0.0115078 0.00930478 0)
(0.0101222 0.0100882 0)
(0.00831327 0.0107709 0)
(0.00608925 0.0111186 0)
(0.00352987 0.0108371 0)
(0.000956285 0.009559 0)
(-0.00100972 0.0071199 0)
(-0.0015204 0.00367507 0)
(0.000125112 0.000250011 0)
(0.00311345 -0.000462885 0)
(0.00572764 0.00570033 0)
(0.0037898 0.0238148 0)
(-0.00502204 0.0301025 0)
(-0.00876593 0.00603394 0)
(-0.00474117 -0.00325226 0)
(0.00106278 -0.00237782 0)
(0.00443219 0.00322653 0)
(0.00388664 0.00893819 0)
(0.000833832 0.0126179 0)
(-0.003044 0.0141561 0)
(-0.00664571 0.0141786 0)
(-0.00951705 0.0132729 0)
(-0.0116015 0.0119617 0)
(-0.0129853 0.010626 0)
(-0.0138543 0.00952156 0)
(-0.0143788 0.00875759 0)
(-0.0147353 0.00839987 0)
(-0.0151589 0.00845963 0)
(-0.0157962 0.00883951 0)
(-0.0166706 0.00946209 0)
(-0.0178812 0.0101422 0)
(-0.0194698 0.0107814 0)
(-0.0214024 0.0111946 0)
(-0.0236296 0.0112901 0)
(-0.0260317 0.010943 0)
(-0.0284879 0.0100859 0)
(-0.0308693 0.00866765 0)
(-0.0330172 0.00668998 0)
(-0.0348079 0.00419766 0)
(-0.0361372 0.00124863 0)
(-0.0369064 -0.00205474 0)
(-0.0370538 -0.00562989 0)
(-0.0365489 -0.00937337 0)
(-0.0353706 -0.0131875 0)
(-0.0335184 -0.0169868 0)
(-0.0310093 -0.0206831 0)
(-0.0278445 -0.0241985 0)
(-0.0240355 -0.0274279 0)
(-0.0196284 -0.0302631 0)
(-0.0146887 -0.0325805 0)
(-0.00931465 -0.0342576 0)
(-0.00363736 -0.0351745 0)
(0.00215667 -0.0352406 0)
(0.00784781 -0.0344632 0)
(0.0132698 -0.0329232 0)
(0.0182894 -0.030733 0)
(0.0228112 -0.0279957 0)
(0.0267513 -0.0248221 0)
(0.030058 -0.0213248 0)
(0.0327001 -0.0176073 0)
(0.034659 -0.0137686 0)
(0.0359331 -0.00990097 0)
(0.0365285 -0.00610759 0)
(0.0364655 -0.00247932 0)
(0.03576 0.000886564 0)
(0.0344799 0.00392248 0)
(0.0327313 0.00650579 0)
(0.0305994 0.00858018 0)
(0.0282057 0.0101038 0)
(0.025709 0.0110536 0)
(0.0232412 0.0114669 0)
(0.0209372 0.0114082 0)
(0.0189237 0.0109925 0)
(0.0172578 0.0103439 0)
(0.0159841 0.00961897 0)
(0.0150809 0.0089365 0)
(0.0144138 0.00851251 0)
(0.0139778 0.00836633 0)
(0.0136419 0.00864926 0)
(0.0131315 0.00934564 0)
(0.0123045 0.0104125 0)
(0.0109647 0.0117074 0)
(0.00892997 0.0129776 0)
(0.00613868 0.0138736 0)
(0.00258598 0.0138576 0)
(-0.00128988 0.0123154 0)
(-0.00435204 0.00867199 0)
(-0.00494813 0.00293148 0)
(-0.00161266 -0.00278991 0)
(0.00417657 -0.00382768 0)
(0.00835482 0.00532202 0)
(0.00490593 0.0293052 0)
(-0.00696361 0.0385297 0)
(-0.0135029 0.006385 0)
(-0.00508665 -0.00952401 0)
(0.00516504 -0.00867165 0)
(0.0103699 0.0014345 0)
(0.00908725 0.0113218 0)
(0.00387233 0.0169623 0)
(-0.0021272 0.0186024 0)
(-0.00719422 0.0178671 0)
(-0.010844 0.0159637 0)
(-0.0131168 0.0137182 0)
(-0.0143211 0.011612 0)
(-0.0148072 0.00996441 0)
(-0.0148555 0.00890424 0)
(-0.014709 0.00847997 0)
(-0.0146841 0.00868532 0)
(-0.0149718 0.00937498 0)
(-0.0156502 0.0103905 0)
(-0.0168175 0.0115376 0)
(-0.0185359 0.0126352 0)
(-0.0207594 0.0134581 0)
(-0.0233956 0.0138638 0)
(-0.0263312 0.0137021 0)
(-0.0293894 0.0128568 0)
(-0.0323834 0.0112841 0)
(-0.0351129 0.00898907 0)
(-0.0374227 0.00603822 0)
(-0.0391799 0.00253078 0)
(-0.0402703 -0.00142625 0)
(-0.0406323 -0.0056959 0)
(-0.0402372 -0.0101533 0)
(-0.0390751 -0.0146909 0)
(-0.0371525 -0.0192101 0)
(-0.0344911 -0.0236238 0)
(-0.0310849 -0.0278388 0)
(-0.0269341 -0.0317455 0)
(-0.0220763 -0.0352071 0)
(-0.0165716 -0.0380663 0)
(-0.0105253 -0.0401559 0)
(-0.00407151 -0.0413119 0)
(0.00255275 -0.0413894 0)
(0.00900784 -0.0403961 0)
(0.0150936 -0.0384778 0)
(0.0206827 -0.0357882 0)
(0.0256802 -0.0324576 0)
(0.0299957 -0.0286263 0)
(0.0335775 -0.024422 0)
(0.0363984 -0.0199729 0)
(0.0384438 -0.0153931 0)
(0.0397084 -0.0107871 0)
(0.0401951 -0.00626412 0)
(0.0399188 -0.00193118 0)
(0.0389131 0.00209535 0)
(0.03723 0.00570766 0)
(0.0349703 0.00877789 0)
(0.0322618 0.0112036 0)
(0.0292453 0.0129137 0)
(0.0261212 0.0138781 0)
(0.023092 0.0141258 0)
(0.020343 0.0137692 0)
(0.0180117 0.012948 0)
(0.0161923 0.0118207 0)
(0.0149317 0.0106275 0)
(0.0142194 0.00952205 0)
(0.0138862 0.0087447 0)
(0.0138916 0.0084454 0)
(0.0140728 0.00876738 0)
(0.0140697 0.00974228 0)
(0.0136462 0.0113478 0)
(0.0124644 0.0134124 0)
(0.0102485 0.015618 0)
(0.00671503 0.0175031 0)
(0.00171194 0.0182591 0)
(-0.00424562 0.016665 0)
(-0.00951338 0.0111219 0)
(-0.0109777 0.0012626 0)
(-0.00601451 -0.00901578 0)
(0.00409539 -0.0102606 0)
(0.0128924 0.00534497 0)
(0.00688853 0.0374511 0)
(-0.0102201 0.0501317 0)
(-0.0122221 0.00432679 0)
(0.0096973 -0.0215316 0)
(0.0241831 -0.0180405 0)
(0.0254399 -0.000337727 0)
(0.0181293 0.0160646 0)
(0.00779731 0.0241429 0)
(-0.00181864 0.0252399 0)
(-0.00889622 0.022679 0)
(-0.013331 0.019088 0)
(-0.0156362 0.015412 0)
(-0.0164206 0.0122042 0)
(-0.0162393 0.00984541 0)
(-0.0155275 0.00841287 0)
(-0.0146081 0.0079352 0)
(-0.0139015 0.00839876 0)
(-0.0136963 0.00955316 0)
(-0.0140673 0.0111529 0)
(-0.0151481 0.0129778 0)
(-0.0170184 0.0147223 0)
(-0.019605 0.0161419 0)
(-0.0227891 0.0170024 0)
(-0.0264168 0.0171172 0)
(-0.0302547 0.0163364 0)
(-0.0340437 0.0146004 0)
(-0.0375232 0.0119326 0)
(-0.0404794 0.00842623 0)
(-0.0427609 0.00422025 0)
(-0.0442355 -0.000496183 0)
(-0.0448265 -0.00558083 0)
(-0.0445341 -0.010861 0)
(-0.0433693 -0.0162177 0)
(-0.0413586 -0.0215496 0)
(-0.0385258 -0.026772 0)
(-0.0348622 -0.0317887 0)
(-0.0303563 -0.0364846 0)
(-0.0250164 -0.0406948 0)
(-0.0188809 -0.0442224 0)
(-0.0120328 -0.0468554 0)
(-0.00459564 -0.0483447 0)
(0.00310321 -0.0484258 0)
(0.010504 -0.0471076 0)
(0.0173508 -0.0446953 0)
(0.0235624 -0.0414026 0)
(0.0290691 -0.0373763 0)
(0.0337907 -0.0327812 0)
(0.0376786 -0.0277665 0)
(0.0407035 -0.0224797 0)
(0.0428536 -0.0170482 0)
(0.0441192 -0.0115955 0)
(0.0444986 -0.00623886 0)
(0.0439979 -0.0010888 0)
(0.0426287 0.00370349 0)
(0.0404458 0.0080218 0)
(0.0375568 0.0116882 0)
(0.0341064 0.0145312 0)
(0.0302893 0.0164459 0)
(0.0263581 0.0173894 0)
(0.0225954 0.0173894 0)
(0.0192559 0.0165824 0)
(0.0165142 0.0151637 0)
(0.0145186 0.0133696 0)
(0.0133093 0.0114865 0)
(0.0128636 0.00976158 0)
(0.0130371 0.00847173 0)
(0.0137295 0.00789525 0)
(0.0146897 0.00823104 0)
(0.0154769 0.00955668 0)
(0.0157455 0.0118606 0)
(0.0150031 0.0150102 0)
(0.0127686 0.0186902 0)
(0.00848747 0.0223153 0)
(0.00153308 0.0248325 0)
(-0.00800302 0.0238497 0)
(-0.0183694 0.0160141 0)
(-0.0260616 -0.000147537 0)
(-0.0254954 -0.0180588 0)
(-0.0114234 -0.0223502 0)
(0.0109669 0.00274517 0)
(0.0101092 0.0484838 0)
(-0.0129246 0.058006 0)
(0.01663 -0.0120735 0)
(0.0570583 -0.0407945 0)
(0.0711269 -0.0224605 0)
(0.0587186 0.00889522 0)
(0.0349552 0.0306649 0)
(0.012457 0.0376251 0)
(-0.00349697 0.0351648 0)
(-0.0129677 0.0290441 0)
(-0.0177912 0.0225486 0)
(-0.0197383 0.0166731 0)
(-0.0196411 0.0120724 0)
(-0.0183693 0.00880648 0)
(-0.0165392 0.00695807 0)
(-0.0144814 0.00651261 0)
(-0.0127834 0.00734339 0)
(-0.0118576 0.00920297 0)
(-0.0117708 0.011674 0)
(-0.0127138 0.0144394 0)
(-0.0147587 0.0171038 0)
(-0.0177957 0.0193425 0)
(-0.0216795 0.0208657 0)
(-0.026206 0.0213956 0)
(-0.0310651 0.0207406 0)
(-0.0358902 0.0188305 0)
(-0.0403328 0.0156981 0)
(-0.0441222 0.0114834 0)
(-0.0470209 0.00642759 0)
(-0.048913 0.000756917 0)
(-0.049748 -0.00529904 0)
(-0.0495207 -0.0115299 0)
(-0.0483058 -0.0178062 0)
(-0.0461619 -0.024034 0)
(-0.0431356 -0.0301411 0)
(-0.0392201 -0.0360533 0)
(-0.0343741 -0.0416501 0)
(-0.0285513 -0.046753 0)
(-0.0217252 -0.0511383 0)
(-0.0139126 -0.0545377 0)
(-0.00522339 -0.0565405 0)
(0.00385028 -0.0565931 0)
(0.012434 -0.0547445 0)
(0.0201619 -0.0516368 0)
(0.0270344 -0.0475932 0)
(0.0330564 -0.0427669 0)
(0.0381856 -0.037306 0)
(0.0423968 -0.031385 0)
(0.0456619 -0.0251643 0)
(0.0479544 -0.018782 0)
(0.0492485 -0.0123635 0)
(0.0495385 -0.00603987 0)
(0.0487895 7.91516e-05 0)
(0.0470275 0.00579441 0)
(0.0442829 0.0109822 0)
(0.0406035 0.0153814 0)
(0.0361934 0.0187558 0)
(0.0313288 0.0209322 0)
(0.0263426 0.021815 0)
(0.0216169 0.0214387 0)
(0.0175085 0.0199896 0)
(0.0142595 0.0177245 0)
(0.0120479 0.0149837 0)
(0.0109371 0.0121043 0)
(0.0109099 0.00950008 0)
(0.0118139 0.00746518 0)
(0.0135011 0.00642852 0)
(0.0156189 0.00668943 0)
(0.0175974 0.0084101 0)
(0.0189876 0.0115935 0)
(0.0191527 0.0161818 0)
(0.0173618 0.0220273 0)
(0.0126274 0.0285919 0)
(0.00333313 0.0346182 0)
(-0.0122807 0.0372477 0)
(-0.0348356 0.0309064 0)
(-0.0594307 0.0100024 0)
(-0.0727974 -0.0216425 0)
(-0.0590323 -0.0418044 0)
(-0.0183884 -0.0145282 0)
(0.0125935 0.0553968 0)
(-0.000921079 0.0490195 0)
(0.0665107 -0.0602643 0)
(0.111205 -0.0753834 0)
(0.119627 -0.021762 0)
(0.093539 0.0362775 0)
(0.0505966 0.0631023 0)
(0.0128654 0.0621019 0)
(-0.0101683 0.0497023 0)
(-0.0212598 0.0367279 0)
(-0.0255814 0.0256737 0)
(-0.0261012 0.0169868 0)
(-0.0243324 0.0106911 0)
(-0.0214645 0.00640401 0)
(-0.0179772 0.00411401 0)
(-0.0143683 0.0038163 0)
(-0.0112913 0.00521103 0)
(-0.00929325 0.00809115 0)
(-0.00859491 0.0117843 0)
(-0.00932613 0.0158538 0)
(-0.0115586 0.01981 0)
(-0.0151395 0.023202 0)
(-0.0199097 0.0256623 0)
(-0.0256129 0.0268047 0)
(-0.0318074 0.0263585 0)
(-0.0379999 0.0242316 0)
(-0.0437063 0.0204857 0)
(-0.0484985 0.0153557 0)
(-0.0521302 0.009195 0)
(-0.0544753 0.0023353 0)
(-0.0554754 -0.00485692 0)
(-0.0552354 -0.0121924 0)
(-0.0538986 -0.0194991 0)
(-0.0515741 -0.0266892 0)
(-0.0483418 -0.0337307 0)
(-0.0441807 -0.0406011 0)
(-0.0389792 -0.0472248 0)
(-0.0326009 -0.053427 0)
(-0.0249468 -0.0589712 0)
(-0.015999 -0.0634835 0)
(-0.00591047 -0.0662538 0)
(0.00463631 -0.066228 0)
(0.0145429 -0.0635497 0)
(0.0233107 -0.059423 0)
(0.0309667 -0.0543935 0)
(0.0375879 -0.0486242 0)
(0.0431799 -0.0422025 0)
(0.0477467 -0.0352903 0)
(0.0512775 -0.0280405 0)
(0.0537468 -0.0205963 0)
(0.055112 -0.0130875 0)
(0.0553619 -0.00565849 0)
(0.0544123 0.00154564 0)
(0.0522531 0.00843798 0)
(0.0488664 0.0147144 0)
(0.0442435 0.0200761 0)
(0.0386316 0.0241576 0)
(0.0323931 0.0266643 0)
(0.0260028 0.0274322 0)
(0.0200146 0.0265063 0)
(0.0149062 0.0241344 0)
(0.0110147 0.020672 0)
(0.00855881 0.0166027 0)
(0.00764644 0.0123429 0)
(0.00822378 0.00847227 0)
(0.0101334 0.0053678 0)
(0.0132082 0.00368039 0)
(0.0169634 0.0037192 0)
(0.0206583 0.0058329 0)
(0.0237394 0.00999809 0)
(0.0255856 0.0163181 0)
(0.0252312 0.0249846 0)
(0.0210359 0.0360173 0)
(0.0102013 0.0488789 0)
(-0.0122712 0.0614694 0)
(-0.0501346 0.0638055 0)
(-0.0942266 0.0385425 0)
(-0.12097 -0.0203969 0)
(-0.112349 -0.0768742 0)
(-0.0677852 -0.0634889 0)
(-5.44718e-05 0.0453788 0)
(0.0324587 -0.00552915 0)
(0.0820008 -0.129788 0)
(0.102941 -0.106969 0)
(0.100949 -0.0106514 0)
(0.073545 0.0714301 0)
(0.0311471 0.104399 0)
(-0.00561321 0.0946103 0)
(-0.0271768 0.0681516 0)
(-0.0358975 0.0443957 0)
(-0.0371755 0.0273174 0)
(-0.0343639 0.0155365 0)
(-0.0296857 0.00757121 0)
(-0.0243727 0.00231612 0)
(-0.0186591 -0.000359413 0)
(-0.0130027 -0.000406347 0)
(-0.00817213 0.00179133 0)
(-0.0048468 0.0059945 0)
(-0.0034801 0.0113914 0)
(-0.00402877 0.0171971 0)
(-0.00655098 0.0228943 0)
(-0.010862 0.0278638 0)
(-0.0168065 0.0316415 0)
(-0.0240937 0.033665 0)
(-0.0321073 0.033533 0)
(-0.0401156 0.0311232 0)
(-0.047412 0.0265539 0)
(-0.053399 0.0202072 0)
(-0.0577377 0.0125654 0)
(-0.0603454 0.00422228 0)
(-0.061394 -0.00441047 0)
(-0.0611222 -0.0130349 0)
(-0.0596959 -0.0214579 0)
(-0.0572408 -0.0296313 0)
(-0.0537856 -0.0376238 0)
(-0.0492264 -0.0455382 0)
(-0.0433614 -0.0533903 0)
(-0.0360619 -0.0609669 0)
(-0.0273705 -0.0679415 0)
(-0.0174241 -0.0738001 0)
(-0.00643914 -0.0774689 0)
(0.00493138 -0.0773567 0)
(0.015756 -0.0736846 0)
(0.0255054 -0.0682905 0)
(0.0341554 -0.0620552 0)
(0.0417409 -0.0551552 0)
(0.0481791 -0.047628 0)
(0.0533582 -0.0396161 0)
(0.0572132 -0.0312547 0)
(0.0597471 -0.022655 0)
(0.0610143 -0.0139399 0)
(0.0610971 -0.00525882 0)
(0.0600672 0.00326912 0)
(0.0577502 0.0115805 0)
(0.053849 0.0193128 0)
(0.048255 0.0259923 0)
(0.041165 0.0310526 0)
(0.0331036 0.0340113 0)
(0.024807 0.0346026 0)
(0.0170992 0.0328828 0)
(0.010659 0.0291955 0)
(0.00594381 0.0240672 0)
(0.00315613 0.0182193 0)
(0.0024162 0.0121135 0)
(0.00367686 0.00649253 0)
(0.00687614 0.00196276 0)
(0.0116919 -0.00057826 0)
(0.0175397 -0.000852526 0)
(0.0235545 0.00157514 0)
(0.0291384 0.00671669 0)
(0.0339335 0.014811 0)
(0.0368832 0.0265456 0)
(0.035701 0.0434348 0)
(0.0270901 0.0669766 0)
(0.00583126 0.0938862 0)
(-0.031313 0.105679 0)
(-0.0747029 0.0743719 0)
(-0.102155 -0.00885586 0)
(-0.103369 -0.108338 0)
(-0.0823084 -0.132854 0)
(-0.0332998 -0.0105123 0)
(0.0359449 -0.06906 0)
(0.0201381 -0.153087 0)
(0.00638477 -0.0912818 0)
(-0.009317 0.0193797 0)
(-0.0270072 0.103135 0)
(-0.0427801 0.133478 0)
(-0.0551122 0.115896 0)
(-0.0594709 0.0792742 0)
(-0.0572359 0.0464005 0)
(-0.0506313 0.0233932 0)
(-0.0414628 0.00870938 0)
(-0.0319504 -0.000206276 0)
(-0.0231716 -0.00555268 0)
(-0.0145869 -0.00815685 0)
(-0.00647624 -0.00746409 0)
(0.00039568 -0.0037321 0)
(0.00524126 0.00251815 0)
(0.00712586 0.0103446 0)