/*--------------------------------*- C++ -*----------------------------------*\
| =========                 |                                                 |
| \\      /  F ield         | OpenFOAM: The Open Source CFD Toolbox           |
|  \\    /   O peration     | Version:  2412                                  |
|   \\  /    A nd           | Website:  www.openfoam.com                      |
|    \\/     M anipulation  |                                                 |
\*---------------------------------------------------------------------------*/
FoamFile
{
    version     2.0;
    format      ascii;
    arch        "LSB;label=32;scalar=64";
    class       volScalarField;
    location    "2.55";
    object      p;
}
// * * * * * * * * * * * * * * * * * * * * * * * * * * * * * * * * * * * * * //

dimensions      [1 -1 -2 0 0 0 0];

internalField   nonuniform List<scalar> 
6400
(
15293.8
15293.8
15293.8
15293.8
15293.8
15293.8
15293.8
15293.8
15293.8
15293.8
15293.8
15293.8
15293.8
15293.8
15293.8
15293.8
15293.8
15293.8
15293.8
15293.8
15293.8
15293.8
15293.8
15293.8
15293.8
15293.8
15293.8
15293.8
15293.8
15293.8
15293.8
15293.8
15293.8
15293.8
15293.8
15293.8
15293.8
15293.8
15293.8
15293.8
15293.8
15293.8
15293.8
15293.8
15293.8
15293.8
15293.8
15293.8
15293.8
15293.8
15293.8
15293.8
15293.8
15293.8
15293.8
15293.8
15293.8
15293.8
15293.8
15293.8
15293.8
15293.8
15293.8
15293.8
15293.8
15293.8
15293.8
15293.8
15293.8
15293.8
15293.8
15293.8
15293.8
15293.8
15293.8
15293.8
15293.8
15293.8
15293.8
15293.8
14509
14509
14509
14509
14509
14509
14509
14509
14509
14509
14509
14509
14509
14509
14509
14509
14509
14509
14509
14509
14509
14509
14509
14509
14509
14509
14509
14509
14509
14509
14509
14509
14509
14509
14509
14509
14509
14509
14509
14509
14509
14509
14509
14509
14509
14509
14509
14509
14509
14509
14509
14509
14509
14509
14509
14509
14509
14509
14509
14509
14509
14509
14509
14509
14509
14509
14509
14509
14509
14509
14509
14509
14509
14509
14509
14509
14509
14509
14509
14509
13724.2
13724.2
13724.2
13724.2
13724.2
13724.2
13724.2
13724.2
13724.2
13724.2
13724.2
13724.2
13724.2
13724.2
13724.2
13724.2
13724.2
13724.2
13724.2
13724.2
13724.2
13724.2
13724.2
13724.2
13724.2
13724.2
13724.2
13724.2
13724.2
13724.2
13724.2
13724.2
13724.2
13724.2
13724.2
13724.2
13724.2
13724.2
13724.2
13724.2
13724.2
13724.2
13724.2
13724.2
13724.2
13724.2
13724.2
13724.2
13724.2
13724.2
13724.2
13724.2
13724.2
13724.2
13724.2
13724.2
13724.2
13724.2
13724.2
13724.2
13724.2
13724.2
13724.2
13724.2
13724.2
13724.2
13724.2
13724.2
13724.2
13724.2
13724.2
13724.2
13724.2
13724.2
13724.2
13724.2
13724.2
13724.2
13724.2
13724.2
12939.4
12939.4
12939.4
12939.4
12939.4
12939.4
12939.4
12939.4
12939.4
12939.4
12939.4
12939.4
12939.4
12939.4
12939.4
12939.4
12939.4
12939.4
12939.4
12939.4
12939.4
12939.4
12939.4
12939.4
12939.4
12939.4
12939.4
12939.4
12939.4
12939.4
12939.4
12939.4
12939.4
12939.4
12939.4
12939.4
12939.4
12939.4
12939.4
12939.4
12939.4
12939.4
12939.4
12939.4
12939.4
12939.4
12939.4
12939.4
12939.4
12939.4
12939.4
12939.4
12939.4
12939.4
12939.4
12939.4
12939.4
12939.4
12939.4
12939.4
12939.4
12939.4
12939.4
12939.4
12939.4
12939.4
12939.4
12939.4
12939.4
12939.4
12939.4
12939.4
12939.4
12939.4
12939.4
12939.4
12939.4
12939.4
12939.4
12939.4
12154.6
12154.6
12154.6
12154.6
12154.6
12154.6
12154.6
12154.6
12154.6
12154.6
12154.6
12154.6
12154.6
12154.6
12154.6
12154.6
12154.6
12154.6
12154.6
12154.6
12154.6
12154.6
12154.6
12154.6
12154.6
12154.6
12154.6
12154.6
12154.6
12154.6
12154.6
12154.6
12154.6
12154.6
12154.6
12154.6
12154.6
12154.6
12154.6
12154.6
12154.6
12154.6
12154.6
12154.6
12154.6
12154.6
12154.6
12154.6
12154.6
12154.6
12154.6
12154.6
12154.6
12154.6
12154.6
12154.6
12154.6
12154.6
12154.6
12154.6
12154.6
12154.6
12154.6
12154.6
12154.6
12154.6
12154.6
12154.6
12154.6
12154.6
12154.6
12154.6
12154.6
12154.6
12154.6
12154.6
12154.6
12154.6
12154.6
12154.6
11369.8
11369.8
11369.8
11369.8
11369.8
11369.8
11369.8
11369.8
11369.8
11369.8
11369.8
11369.8
11369.8
11369.8
11369.8
11369.8
11369.8
11369.8
11369.8
11369.8
11369.8
11369.8
11369.8
11369.8
11369.8
11369.8
11369.8
11369.8
11369.8
11369.8
11369.8
11369.8
11369.8
11369.8
11369.8
11369.8
11369.8
11369.8
11369.8
11369.8
11369.8
11369.8
11369.8
11369.8
11369.8
11369.8
11369.8
11369.8
11369.8
11369.8
11369.8
11369.8
11369.8
11369.8
11369.8
11369.8
11369.8
11369.8
11369.8
11369.8
11369.8
11369.8
11369.8
11369.8
11369.8
11369.8
11369.8
11369.8
11369.8
11369.8
11369.8
11369.8
11369.8
11369.8
11369.8
11369.8
11369.8
11369.8
11369.8
11369.8
10585
10585
10585
10585
10585
10585
10585
10585
10585
10585
10585
10585
10585
10585
10585
10585
10585
10585
10585
10585
10585
10585
10585
10585
10585
10585
10585
10585
10585
10585
10585
10585
10585
10585
10585
10585
10585
10585
10585
10585
10585
10585
10585
10585
10585
10585
10585
10585
10585
10585
10585
10585
10585
10585
10585
10585
10585
10585
10585
10585
10585
10585
10585
10585
10585
10585
10585
10585
10585
10585
10585
10585
10585
10585
10585
10585
10585
10585
10585
10585
9800.21
9800.21
9800.21
9800.21
9800.21
9800.21
9800.21
9800.21
9800.21
9800.21
9800.21
9800.21
9800.21
9800.21
9800.21
9800.21
9800.21
9800.21
9800.21
9800.21
9800.21
9800.21
9800.21
9800.21
9800.21
9800.21
9800.21
9800.21
9800.21
9800.21
9800.21
9800.21
9800.21
9800.21
9800.21
9800.21
9800.21
9800.21
9800.21
9800.21
9800.21
9800.21
9800.21
9800.21
9800.21
9800.21
9800.21
9800.21
9800.21
9800.21
9800.21
9800.21
9800.21
9800.21
9800.21
9800.21
9800.21
9800.21
9800.21
9800.21
9800.21
9800.21
9800.21
9800.21
9800.21
9800.21
9800.21
9800.21
9800.21
9800.21
9800.21
9800.21
9800.21
9800.21
9800.21
9800.21
9800.21
9800.21
9800.21
9800.21
9015.41
9015.41
9015.41
9015.41
9015.41
9015.41
9015.41
9015.41
9015.41
9015.41
9015.41
9015.41
9015.41
9015.41
9015.41
9015.41
9015.41
9015.41
9015.41
9015.41
9015.41
9015.41
9015.41
9015.41
9015.41
9015.41
9015.41
9015.41
9015.41
9015.41
9015.41
9015.41
9015.41
9015.41
9015.41
9015.41
9015.41
9015.41
9015.41
9015.41
9015.41
9015.41
9015.41
9015.41
9015.41
9015.41
9015.41
9015.41
9015.41
9015.41
9015.41
9015.41
9015.41
9015.41
9015.41
9015.41
9015.41
9015.41
9015.41
9015.41
9015.41
9015.41
9015.41
9015.41
9015.41
9015.41
9015.41
9015.41
9015.41
9015.41
9015.41
9015.41
9015.41
9015.41
9015.41
9015.41
9015.41
9015.41
9015.41
9015.41
8230.61
8230.61
8230.61
8230.61
8230.61
8230.61
8230.61
8230.61
8230.61
8230.61
8230.61
8230.61
8230.61
8230.61
8230.61
8230.61
8230.61
8230.61
8230.61
8230.61
8230.61
8230.61
8230.61
8230.61
8230.61
8230.61
8230.61
8230.61
8230.61
8230.61
8230.61
8230.61
8230.61
8230.61
8230.61
8230.61
8230.61
8230.61
8230.61
8230.61
8230.61
8230.61
8230.61
8230.61
8230.61
8230.61
8230.61
8230.61
8230.61
8230.61
8230.61
8230.61
8230.61
8230.61
8230.61
8230.61
8230.61
8230.61
8230.61
8230.61
8230.61
8230.61
8230.61
8230.61
8230.61
8230.61
8230.61
8230.61
8230.61
8230.61
8230.61
8230.61
8230.61
8230.61
8230.61
8230.61
8230.61
8230.61
8230.61
8230.61
7445.81
7445.81
7445.81
7445.81
7445.81
7445.81
7445.81
7445.81
7445.81
7445.81
7445.81
7445.81
7445.81
7445.81
7445.81
7445.81
7445.81
7445.81
7445.81
7445.81
7445.81
7445.81
7445.81
7445.81
7445.81
7445.81
7445.81
7445.81
7445.81
7445.81
7445.81
7445.81
7445.81
7445.81
7445.81
7445.81
7445.81
7445.81
7445.81
7445.81
7445.81
7445.81
7445.81
7445.81
7445.81
7445.81
7445.81
7445.81
7445.81
7445.81
7445.81
7445.81
7445.81
7445.81
7445.81
7445.81
7445.81
7445.81
7445.81
7445.81
7445.81
7445.81
7445.81
7445.81
7445.81
7445.81
7445.81
7445.81
7445.81
7445.81
7445.81
7445.81
7445.81
7445.81
7445.81
7445.81
7445.81
7445.81
7445.81
7445.81
6661.01
6661.01
6661.01
6661.01
6661.01
6661.01
6661.01
6661.01
6661.01
6661.01
6661.01
6661.01
6661.01
6661.01
6661.01
6661.01
6661.01
6661.01
6661.01
6661.01
6661.01
6661.01
6661.01
6661.01
6661.01
6661.01
6661.01
6661.01
6661.01
6661.01
6661.01
6661.01
6661.01
6661.01
6661.01
6661.01
6661.01
6661.01
6661.01
6661.01
6661.01
6661.01
6661.01
6661.01
6661.01
6661.01
6661.01
6661.01
6661.01
6661.01
6661.01
6661.01
6661.01
6661.01
6661.01
6661.01
6661.01
6661.01
6661.01
6661.01
6661.01
6661.01
6661.01
6661.01
6661.01
6661.01
6661.01
6661.01
6661.01
6661.01
6661.01
6661.01
6661.01
6661.01
6661.01
6661.01
6661.01
6661.01
6661.01
6661.01
5876.21
5876.21
5876.21
5876.21
5876.21
5876.21
5876.21
5876.21
5876.21
5876.21
5876.21
5876.21
5876.21
5876.21
5876.21
5876.21
5876.21
5876.21
5876.21
5876.21
5876.21
5876.21
5876.21
5876.21
5876.21
5876.21
5876.21
5876.21
5876.21
5876.21
5876.21
5876.21
5876.21
5876.21
5876.21
5876.21
5876.21
5876.21
5876.21
5876.21
5876.21
5876.21
5876.21
5876.21
5876.21
5876.21
5876.21
5876.21
5876.21
5876.21
5876.21
5876.21
5876.21
5876.21
5876.21
5876.21
5876.21
5876.21
5876.21
5876.21
5876.21
5876.21
5876.21
5876.21
5876.21
5876.21
5876.21
5876.21
5876.21
5876.21
5876.21
5876.21
5876.21
5876.21
5876.21
5876.21
5876.21
5876.21
5876.21
5876.21
5091.41
5091.41
5091.41
5091.41
5091.41
5091.41
5091.41
5091.41
5091.41
5091.41
5091.41
5091.41
5091.41
5091.41
5091.41
5091.41
5091.41
5091.41
5091.41
5091.41
5091.41
5091.41
5091.41
5091.41
5091.41
5091.41
5091.41
5091.41
5091.41
5091.41
5091.41
5091.41
5091.41
5091.41
5091.41
5091.41
5091.41
5091.41
5091.41
5091.41
5091.41
5091.41
5091.41
5091.41
5091.41
5091.41
5091.41
5091.41
5091.41
5091.41
5091.41
5091.41
5091.41
5091.41
5091.41
5091.41
5091.41
5091.41
5091.41
5091.41
5091.41
5091.41
5091.41
5091.41
5091.41
5091.41
5091.41
5091.41
5091.41
5091.41
5091.41
5091.41
5091.41
5091.41
5091.41
5091.41
5091.41
5091.41
5091.41
5091.41
4306.61
4306.61
4306.61
4306.61
4306.61
4306.61
4306.61
4306.61
4306.61
4306.61
4306.61
4306.61
4306.61
4306.61
4306.61
4306.61
4306.61
4306.61
4306.61
4306.61
4306.61
4306.61
4306.61
4306.61
4306.61
4306.61
4306.61
4306.61
4306.61
4306.61
4306.61
4306.61
4306.61
4306.61
4306.61
4306.61
4306.61
4306.61
4306.61
4306.61
4306.61
4306.61
4306.61
4306.61
4306.61
4306.61
4306.61
4306.61
4306.61
4306.61
4306.61
4306.61
4306.61
4306.61
4306.61
4306.6
4306.6
4306.6
4306.6
4306.6
4306.6
4306.6
4306.6
4306.6
4306.6
4306.6
4306.6
4306.6
4306.61
4306.61
4306.61
4306.61
4306.61
4306.61
4306.61
4306.61
4306.61
4306.61
4306.61
4306.61
3521.81
3521.81
3521.81
3521.81
3521.8
3521.8
3521.8
3521.8
3521.8
3521.8
3521.8
3521.8
3521.8
3521.8
3521.8
3521.8
3521.8
3521.8
3521.8
3521.8
3521.8
3521.81
3521.81
3521.81
3521.81
3521.81
3521.81
3521.81
3521.81
3521.81
3521.81
3521.81
3521.81
3521.81
3521.81
3521.81
3521.81
3521.81
3521.81
3521.81
3521.81
3521.81
3521.81
3521.81
3521.81
3521.81
3521.81
3521.8
3521.8
3521.8
3521.8
3521.8
3521.8
3521.8
3521.8
3521.8
3521.8
3521.8
3521.8
3521.8
3521.8
3521.8
3521.8
3521.8
3521.8
3521.8
3521.8
3521.8
3521.8
3521.8
3521.8
3521.8
3521.8
3521.8
3521.8
3521.8
3521.8
3521.8
3521.8
3521.8
2737
2737
2737
2737
2737
2737
2737
2737
2737
2737
2737
2737
2737
2737
2737
2737
2737
2737
2737
2737
2737
2737
2737
2737
2737
2737
2737
2737
2737
2737
2737
2737
2737
2737
2737
2737
2737
2737
2737
2737
2737
2737
2737
2737
2737
2737
2737
2737
2737
2737
2737
2737
2737
2737
2737
2737
2737
2737
2737
2737
2737
2737
2737
2737
2737
2737
2737
2737
2737
2737
2737
2737
2737
2737
2737
2737
2737
2737
2737
2737
1952.2
1952.2
1952.2
1952.2
1952.2
1952.2
1952.2
1952.2
1952.2
1952.2
1952.2
1952.2
1952.2
1952.2
1952.2
1952.2
1952.2
1952.2
1952.2
1952.2
1952.2
1952.2
1952.2
1952.2
1952.2
1952.2
1952.2
1952.2
1952.2
1952.2
1952.2
1952.2
1952.2
1952.2
1952.2
1952.2
1952.2
1952.2
1952.2
1952.2
1952.2
1952.2
1952.2
1952.2
1952.2
1952.2
1952.2
1952.2
1952.2
1952.2
1952.2
1952.2
1952.2
1952.2
1952.2
1952.2
1952.2
1952.2
1952.2
1952.2
1952.2
1952.2
1952.2
1952.2
1952.2
1952.2
1952.2
1952.2
1952.2
1952.2
1952.2
1952.2
1952.2
1952.2
1952.2
1952.2
1952.2
1952.2
1952.2
1952.2
1167.4
1167.4
1167.4
1167.4
1167.4
1167.4
1167.4
1167.4
1167.4
1167.4
1167.4
1167.4
1167.4
1167.4
1167.4
1167.4
1167.4
1167.4
1167.4
1167.4
1167.4
1167.4
1167.4
1167.4
1167.4
1167.4
1167.4
1167.4
1167.4
1167.4
1167.4
1167.4
1167.4
1167.4
1167.4
1167.4
1167.4
1167.4
1167.4
1167.4
1167.4
1167.4
1167.4
1167.4
1167.4
1167.4
1167.4
1167.4
1167.4
1167.4
1167.4
1167.4
1167.4
1167.4
1167.4
1167.4
1167.4
1167.4
1167.4
1167.4
1167.4
1167.4
1167.4
1167.4
1167.4
1167.4
1167.4
1167.4
1167.4
1167.4
1167.4
1167.4
1167.4
1167.4
1167.4
1167.4
1167.4
1167.4
1167.4
1167.4
382.6
382.6
382.6
382.6
382.599
382.599
382.599
382.599
382.599
382.599
382.599
382.599
382.599
382.599
382.599
382.599
382.599
382.599
382.6
382.6
382.6
382.6
382.6
382.6
382.601
382.601
382.601
382.601
382.601
382.602
382.602
382.602
382.602
382.602
382.603
382.603
382.603
382.603
382.603
382.603
382.603
382.603
382.603
382.603
382.603
382.603
382.603
382.603
382.602
382.602
382.602
382.602
382.601
382.601
382.601
382.601
382.601
382.6
382.6
382.6
382.6
382.6
382.6
382.599
382.599
382.599
382.599
382.599
382.599
382.599
382.599
382.599
382.599
382.598
382.598
382.598
382.598
382.598
382.598
382.598
-10.0474
-10.0472
-10.0473
-10.0473
-10.0473
-10.0473
-10.0473
-10.0473
-10.0472
-10.0472
-10.0472
-10.0472
-10.0471
-10.047
-10.0469
-10.0468
-10.0467
-10.0465
-10.0464
-10.0462
-10.046
-10.0458
-10.0456
-10.0454
-10.0451
-10.0448
-10.0445
-10.0442
-10.0439
-10.0436
-10.0433
-10.043
-10.0427
-10.0424
-10.0422
-10.042
-10.0419
-10.0417
-10.0416
-10.0416
-10.0415
-10.0415
-10.0416
-10.0417
-10.0418
-10.0419
-10.0421
-10.0423
-10.0425
-10.0427
-10.043
-10.0433
-10.0435
-10.0438
-10.0441
-10.0444
-10.0447
-10.045
-10.0452
-10.0455
-10.0457
-10.046
-10.0462
-10.0464
-10.0466
-10.0467
-10.0468
-10.0469
-10.047
-10.0471
-10.0472
-10.0473
-10.0474
-10.0474
-10.0475
-10.0475
-10.0476
-10.0476
-10.0476
-10.0478
-10.5392
-10.5392
-10.5392
-10.5391
-10.5391
-10.5391
-10.539
-10.539
-10.5389
-10.5388
-10.5387
-10.5386
-10.5385
-10.5384
-10.5382
-10.5381
-10.5379
-10.5377
-10.5375
-10.5373
-10.5371
-10.5369
-10.5366
-10.5363
-10.5361
-10.5358
-10.5355
-10.5352
-10.5349
-10.5346
-10.5343
-10.534
-10.5337
-10.5335
-10.5332
-10.533
-10.5328
-10.5327
-10.5326
-10.5325
-10.5325
-10.5325
-10.5325
-10.5326
-10.5327
-10.5328
-10.533
-10.5332
-10.5334
-10.5337
-10.5339
-10.5342
-10.5345
-10.5348
-10.535
-10.5353
-10.5356
-10.5359
-10.5361
-10.5364
-10.5366
-10.5368
-10.537
-10.5372
-10.5374
-10.5375
-10.5377
-10.5378
-10.5379
-10.5381
-10.5382
-10.5382
-10.5383
-10.5384
-10.5384
-10.5385
-10.5385
-10.5385
-10.5386
-10.5386
-11.0297
-11.0297
-11.0296
-11.0296
-11.0296
-11.0295
-11.0295
-11.0294
-11.0294
-11.0293
-11.0292
-11.0291
-11.029
-11.0289
-11.0287
-11.0286
-11.0284
-11.0282
-11.028
-11.0278
-11.0276
-11.0274
-11.0271
-11.0268
-11.0266
-11.0263
-11.026
-11.0257
-11.0254
-11.0251
-11.0248
-11.0245
-11.0242
-11.024
-11.0237
-11.0235
-11.0233
-11.0232
-11.0231
-11.023
-11.0229
-11.0229
-11.023
-11.0231
-11.0232
-11.0233
-11.0235
-11.0237
-11.0239
-11.0241
-11.0244
-11.0247
-11.025
-11.0252
-11.0255
-11.0258
-11.0261
-11.0264
-11.0266
-11.0269
-11.0271
-11.0273
-11.0275
-11.0277
-11.0279
-11.028
-11.0282
-11.0283
-11.0284
-11.0285
-11.0286
-11.0287
-11.0288
-11.0289
-11.0289
-11.029
-11.029
-11.029
-11.029
-11.029
-11.5202
-11.5202
-11.5202
-11.5201
-11.5201
-11.5201
-11.52
-11.52
-11.5199
-11.5198
-11.5197
-11.5196
-11.5195
-11.5194
-11.5192
-11.5191
-11.5189
-11.5187
-11.5185
-11.5183
-11.5181
-11.5179
-11.5176
-11.5173
-11.5171
-11.5168
-11.5165
-11.5162
-11.5158
-11.5155
-11.5152
-11.5149
-11.5147
-11.5144
-11.5142
-11.5139
-11.5138
-11.5136
-11.5135
-11.5134
-11.5134
-11.5134
-11.5134
-11.5135
-11.5136
-11.5137
-11.5139
-11.5141
-11.5143
-11.5146
-11.5149
-11.5151
-11.5154
-11.5157
-11.516
-11.5163
-11.5166
-11.5168
-11.5171
-11.5174
-11.5176
-11.5178
-11.518
-11.5182
-11.5184
-11.5185
-11.5187
-11.5188
-11.5189
-11.5191
-11.5192
-11.5192
-11.5193
-11.5194
-11.5194
-11.5195
-11.5195
-11.5195
-11.5196
-11.5196
-12.0107
-12.0107
-12.0107
-12.0106
-12.0106
-12.0106
-12.0105
-12.0105
-12.0104
-12.0103
-12.0102
-12.0101
-12.01
-12.0099
-12.0098
-12.0096
-12.0095
-12.0093
-12.0091
-12.0089
-12.0086
-12.0084
-12.0081
-12.0078
-12.0075
-12.0072
-12.0069
-12.0066
-12.0063
-12.006
-12.0057
-12.0054
-12.0051
-12.0048
-12.0046
-12.0043
-12.0042
-12.004
-12.0039
-12.0038
-12.0038
-12.0038
-12.0038
-12.0039
-12.004
-12.0041
-12.0043
-12.0045
-12.0047
-12.005
-12.0053
-12.0056
-12.0058
-12.0061
-12.0064
-12.0067
-12.007
-12.0073
-12.0076
-12.0078
-12.0081
-12.0083
-12.0085
-12.0087
-12.0089
-12.0091
-12.0092
-12.0093
-12.0095
-12.0096
-12.0097
-12.0098
-12.0098
-12.0099
-12.0099
-12.01
-12.01
-12.0101
-12.0101
-12.0101
-12.5012
-12.5012
-12.5012
-12.5012
-12.5011
-12.5011
-12.5011
-12.501
-12.5009
-12.5009
-12.5008
-12.5007
-12.5006
-12.5004
-12.5003
-12.5002
-12.5
-12.4998
-12.4996
-12.4994
-12.4991
-12.4989
-12.4986
-12.4983
-12.498
-12.4977
-12.4974
-12.4971
-12.4967
-12.4964
-12.4961
-12.4958
-12.4955
-12.4952
-12.4949
-12.4947
-12.4945
-12.4944
-12.4942
-12.4941
-12.4941
-12.4941
-12.4941
-12.4942
-12.4943
-12.4945
-12.4947
-12.4949
-12.4951
-12.4954
-12.4957
-12.496
-12.4963
-12.4966
-12.4969
-12.4972
-12.4975
-12.4978
-12.4981
-12.4983
-12.4986
-12.4988
-12.499
-12.4992
-12.4994
-12.4996
-12.4997
-12.4999
-12.5
-12.5001
-12.5002
-12.5003
-12.5004
-12.5004
-12.5005
-12.5005
-12.5006
-12.5006
-12.5006
-12.5006
-12.9918
-12.9918
-12.9917
-12.9917
-12.9917
-12.9917
-12.9916
-12.9916
-12.9915
-12.9914
-12.9913
-12.9912
-12.9911
-12.991
-12.9909
-12.9907
-12.9905
-12.9903
-12.9901
-12.9899
-12.9897
-12.9894
-12.9891
-12.9888
-12.9885
-12.9882
-12.9879
-12.9875
-12.9872
-12.9868
-12.9865
-12.9862
-12.9859
-12.9856
-12.9853
-12.985
-12.9848
-12.9847
-12.9845
-12.9844
-12.9844
-12.9844
-12.9844
-12.9845
-12.9846
-12.9848
-12.985
-12.9852
-12.9855
-12.9857
-12.986
-12.9863
-12.9867
-12.987
-12.9873
-12.9876
-12.9879
-12.9882
-12.9885
-12.9888
-12.9891
-12.9893
-12.9895
-12.9897
-12.9899
-12.9901
-12.9903
-12.9904
-12.9905
-12.9906
-12.9907
-12.9908
-12.9909
-12.991
-12.991
-12.9911
-12.9911
-12.9911
-12.9911
-12.9911
-13.4823
-13.4823
-13.4823
-13.4823
-13.4822
-13.4822
-13.4822
-13.4821
-13.482
-13.482
-13.4819
-13.4818
-13.4817
-13.4816
-13.4814
-13.4813
-13.4811
-13.4809
-13.4807
-13.4804
-13.4802
-13.4799
-13.4796
-13.4793
-13.479
-13.4787
-13.4783
-13.478
-13.4776
-13.4773
-13.4769
-13.4765
-13.4762
-13.4759
-13.4756
-13.4754
-13.4751
-13.475
-13.4748
-13.4747
-13.4747
-13.4747
-13.4747
-13.4748
-13.4749
-13.4751
-13.4753
-13.4755
-13.4758
-13.4761
-13.4764
-13.4767
-13.477
-13.4774
-13.4777
-13.478
-13.4784
-13.4787
-13.479
-13.4793
-13.4796
-13.4798
-13.4801
-13.4803
-13.4805
-13.4806
-13.4808
-13.481
-13.4811
-13.4812
-13.4813
-13.4814
-13.4814
-13.4815
-13.4816
-13.4816
-13.4816
-13.4817
-13.4817
-13.4817
-13.9729
-13.9729
-13.9729
-13.9728
-13.9728
-13.9728
-13.9727
-13.9727
-13.9726
-13.9725
-13.9725
-13.9724
-13.9723
-13.9721
-13.972
-13.9718
-13.9717
-13.9715
-13.9712
-13.971
-13.9707
-13.9705
-13.9702
-13.9698
-13.9695
-13.9692
-13.9688
-13.9684
-13.968
-13.9677
-13.9673
-13.9669
-13.9666
-13.9662
-13.9659
-13.9657
-13.9654
-13.9652
-13.9651
-13.965
-13.9649
-13.9649
-13.965
-13.9651
-13.9652
-13.9654
-13.9656
-13.9659
-13.9661
-13.9664
-13.9668
-13.9671
-13.9674
-13.9678
-13.9681
-13.9685
-13.9688
-13.9691
-13.9695
-13.9698
-13.9701
-13.9703
-13.9706
-13.9708
-13.971
-13.9712
-13.9714
-13.9715
-13.9716
-13.9717
-13.9718
-13.9719
-13.972
-13.9721
-13.9721
-13.9722
-13.9722
-13.9722
-13.9722
-13.9722
-14.4634
-14.4634
-14.4634
-14.4634
-14.4634
-14.4633
-14.4633
-14.4633
-14.4632
-14.4631
-14.463
-14.4629
-14.4628
-14.4627
-14.4626
-14.4624
-14.4622
-14.462
-14.4618
-14.4616
-14.4613
-14.461
-14.4607
-14.4604
-14.46
-14.4596
-14.4593
-14.4589
-14.4585
-14.4581
-14.4577
-14.4573
-14.4569
-14.4566
-14.4562
-14.4559
-14.4557
-14.4555
-14.4553
-14.4552
-14.4552
-14.4552
-14.4552
-14.4553
-14.4555
-14.4557
-14.4559
-14.4562
-14.4565
-14.4568
-14.4571
-14.4575
-14.4578
-14.4582
-14.4586
-14.4589
-14.4593
-14.4596
-14.4599
-14.4603
-14.4606
-14.4608
-14.4611
-14.4613
-14.4616
-14.4617
-14.4619
-14.4621
-14.4622
-14.4623
-14.4624
-14.4625
-14.4626
-14.4626
-14.4627
-14.4627
-14.4627
-14.4628
-14.4628
-14.4628
-14.954
-14.954
-14.954
-14.954
-14.954
-14.9539
-14.9539
-14.9538
-14.9538
-14.9537
-14.9536
-14.9535
-14.9534
-14.9533
-14.9532
-14.953
-14.9528
-14.9526
-14.9524
-14.9522
-14.9519
-14.9516
-14.9513
-14.9509
-14.9505
-14.9502
-14.9498
-14.9493
-14.9489
-14.9485
-14.9481
-14.9477
-14.9473
-14.9469
-14.9465
-14.9462
-14.9459
-14.9457
-14.9455
-14.9454
-14.9454
-14.9454
-14.9455
-14.9456
-14.9457
-14.946
-14.9462
-14.9465
-14.9468
-14.9471
-14.9475
-14.9479
-14.9482
-14.9486
-14.949
-14.9494
-14.9497
-14.9501
-14.9504
-14.9508
-14.9511
-14.9514
-14.9516
-14.9519
-14.9521
-14.9523
-14.9525
-14.9526
-14.9528
-14.9529
-14.953
-14.9531
-14.9531
-14.9532
-14.9532
-14.9533
-14.9533
-14.9533
-14.9534
-14.9534
-15.4446
-15.4446
-15.4446
-15.4446
-15.4446
-15.4445
-15.4445
-15.4444
-15.4444
-15.4443
-15.4442
-15.4442
-15.444
-15.4439
-15.4438
-15.4436
-15.4434
-15.4432
-15.443
-15.4428
-15.4425
-15.4422
-15.4418
-15.4415
-15.4411
-15.4407
-15.4403
-15.4398
-15.4394
-15.4389
-15.4385
-15.438
-15.4376
-15.4372
-15.4368
-15.4365
-15.4362
-15.4359
-15.4358
-15.4356
-15.4356
-15.4356
-15.4357
-15.4358
-15.436
-15.4362
-15.4365
-15.4368
-15.4372
-15.4375
-15.4379
-15.4383
-15.4387
-15.4391
-15.4395
-15.4398
-15.4402
-15.4406
-15.4409
-15.4413
-15.4416
-15.4419
-15.4422
-15.4424
-15.4427
-15.4429
-15.4431
-15.4432
-15.4433
-15.4435
-15.4436
-15.4437
-15.4437
-15.4438
-15.4438
-15.4439
-15.4439
-15.4439
-15.4439
-15.4439
-15.9352
-15.9352
-15.9352
-15.9352
-15.9352
-15.9351
-15.9351
-15.9351
-15.935
-15.9349
-15.9349
-15.9348
-15.9347
-15.9346
-15.9344
-15.9343
-15.9341
-15.9339
-15.9336
-15.9334
-15.9331
-15.9328
-15.9324
-15.9321
-15.9317
-15.9312
-15.9308
-15.9304
-15.9299
-15.9294
-15.9289
-15.9284
-15.928
-15.9275
-15.9271
-15.9267
-15.9264
-15.9261
-15.9259
-15.9258
-15.9258
-15.9258
-15.9259
-15.926
-15.9263
-15.9265
-15.9268
-15.9272
-15.9275
-15.9279
-15.9283
-15.9287
-15.9291
-15.9295
-15.9299
-15.9303
-15.9307
-15.9311
-15.9315
-15.9318
-15.9321
-15.9325
-15.9327
-15.933
-15.9332
-15.9335
-15.9336
-15.9338
-15.9339
-15.9341
-15.9342
-15.9342
-15.9343
-15.9344
-15.9344
-15.9345
-15.9345
-15.9345
-15.9345
-15.9345
-16.4258
-16.4258
-16.4258
-16.4258
-16.4258
-16.4257
-16.4257
-16.4257
-16.4256
-16.4256
-16.4255
-16.4254
-16.4253
-16.4252
-16.4251
-16.4249
-16.4247
-16.4245
-16.4243
-16.424
-16.4237
-16.4234
-16.4231
-16.4227
-16.4223
-16.4218
-16.4214
-16.4209
-16.4204
-16.4199
-16.4194
-16.4189
-16.4184
-16.4179
-16.4174
-16.417
-16.4166
-16.4163
-16.4161
-16.416
-16.4159
-16.416
-16.4161
-16.4163
-16.4165
-16.4168
-16.4172
-16.4176
-16.418
-16.4184
-16.4188
-16.4192
-16.4196
-16.4201
-16.4205
-16.4209
-16.4213
-16.4217
-16.422
-16.4224
-16.4227
-16.423
-16.4233
-16.4236
-16.4238
-16.424
-16.4242
-16.4244
-16.4245
-16.4247
-16.4248
-16.4248
-16.4249
-16.425
-16.425
-16.4251
-16.4251
-16.4251
-16.4251
-16.4251
-16.9164
-16.9164
-16.9164
-16.9164
-16.9164
-16.9164
-16.9163
-16.9163
-16.9163
-16.9162
-16.9161
-16.9161
-16.916
-16.9159
-16.9157
-16.9156
-16.9154
-16.9152
-16.915
-16.9147
-16.9144
-16.9141
-16.9137
-16.9133
-16.9129
-16.9125
-16.912
-16.9115
-16.911
-16.9105
-16.9099
-16.9093
-16.9088
-16.9082
-16.9077
-16.9072
-16.9068
-16.9065
-16.9062
-16.9061
-16.906
-16.9061
-16.9062
-16.9065
-16.9068
-16.9071
-16.9075
-16.908
-16.9084
-16.9088
-16.9093
-16.9097
-16.9102
-16.9106
-16.911
-16.9114
-16.9118
-16.9122
-16.9126
-16.913
-16.9133
-16.9136
-16.9139
-16.9142
-16.9144
-16.9147
-16.9148
-16.915
-16.9152
-16.9153
-16.9154
-16.9155
-16.9155
-16.9156
-16.9156
-16.9157
-16.9157
-16.9157
-16.9157
-16.9157
-17.4071
-17.4071
-17.4071
-17.407
-17.407
-17.407
-17.407
-17.407
-17.4069
-17.4069
-17.4068
-17.4067
-17.4066
-17.4065
-17.4064
-17.4063
-17.4061
-17.4059
-17.4056
-17.4054
-17.4051
-17.4048
-17.4044
-17.404
-17.4036
-17.4032
-17.4027
-17.4022
-17.4016
-17.401
-17.4004
-17.3998
-17.3992
-17.3986
-17.398
-17.3974
-17.3969
-17.3966
-17.3963
-17.3961
-17.3961
-17.3962
-17.3964
-17.3967
-17.397
-17.3975
-17.3979
-17.3984
-17.3989
-17.3994
-17.3998
-17.4003
-17.4008
-17.4012
-17.4016
-17.4021
-17.4025
-17.4029
-17.4032
-17.4036
-17.4039
-17.4042
-17.4045
-17.4048
-17.4051
-17.4053
-17.4055
-17.4056
-17.4058
-17.4059
-17.406
-17.4061
-17.4061
-17.4062
-17.4062
-17.4063
-17.4063
-17.4063
-17.4063
-17.4063
-17.8977
-17.8977
-17.8977
-17.8977
-17.8977
-17.8977
-17.8976
-17.8976
-17.8976
-17.8975
-17.8975
-17.8974
-17.8973
-17.8972
-17.8971
-17.897
-17.8968
-17.8966
-17.8964
-17.8961
-17.8958
-17.8955
-17.8952
-17.8948
-17.8944
-17.8939
-17.8934
-17.8929
-17.8923
-17.8917
-17.8911
-17.8904
-17.8897
-17.889
-17.8883
-17.8876
-17.887
-17.8866
-17.8862
-17.886
-17.886
-17.8862
-17.8864
-17.8868
-17.8873
-17.8878
-17.8883
-17.8889
-17.8894
-17.8899
-17.8905
-17.891
-17.8914
-17.8919
-17.8923
-17.8927
-17.8931
-17.8935
-17.8939
-17.8942
-17.8946
-17.8949
-17.8952
-17.8955
-17.8957
-17.8959
-17.8961
-17.8963
-17.8964
-17.8965
-17.8966
-17.8967
-17.8968
-17.8968
-17.8969
-17.8969
-17.8969
-17.8969
-17.8969
-17.897
-18.3883
-18.3883
-18.3883
-18.3883
-18.3883
-18.3883
-18.3883
-18.3883
-18.3882
-18.3882
-18.3882
-18.3881
-18.388
-18.3879
-18.3878
-18.3877
-18.3875
-18.3873
-18.3871
-18.3869
-18.3866
-18.3863
-18.386
-18.3856
-18.3852
-18.3847
-18.3842
-18.3837
-18.3831
-18.3824
-18.3817
-18.381
-18.3802
-18.3793
-18.3785
-18.3777
-18.377
-18.3765
-18.3761
-18.3759
-18.3759
-18.3761
-18.3764
-18.3769
-18.3775
-18.3781
-18.3788
-18.3794
-18.38
-18.3806
-18.3811
-18.3817
-18.3821
-18.3826
-18.383
-18.3835
-18.3838
-18.3842
-18.3846
-18.3849
-18.3853
-18.3856
-18.3858
-18.3861
-18.3864
-18.3866
-18.3868
-18.3869
-18.3871
-18.3872
-18.3873
-18.3874
-18.3874
-18.3875
-18.3875
-18.3875
-18.3875
-18.3876
-18.3876
-18.3876
-18.879
-18.879
-18.879
-18.879
-18.879
-18.879
-18.879
-18.8789
-18.8789
-18.8789
-18.8789
-18.8788
-18.8788
-18.8787
-18.8786
-18.8784
-18.8783
-18.8781
-18.8779
-18.8777
-18.8774
-18.8771
-18.8768
-18.8764
-18.876
-18.8756
-18.8751
-18.8745
-18.8739
-18.8732
-18.8725
-18.8716
-18.8707
-18.8698
-18.8688
-18.8678
-18.8669
-18.8662
-18.8657
-18.8655
-18.8655
-18.8658
-18.8663
-18.8669
-18.8677
-18.8685
-18.8692
-18.87
-18.8707
-18.8713
-18.8719
-18.8725
-18.8729
-18.8734
-18.8738
-18.8742
-18.8746
-18.875
-18.8753
-18.8757
-18.876
-18.8763
-18.8765
-18.8768
-18.877
-18.8772
-18.8774
-18.8776
-18.8777
-18.8778
-18.8779
-18.878
-18.8781
-18.8781
-18.8781
-18.8782
-18.8782
-18.8782
-18.8782
-18.8782
-19.3696
-19.3696
-19.3696
-19.3696
-19.3696
-19.3696
-19.3696
-19.3696
-19.3696
-19.3696
-19.3696
-19.3695
-19.3695
-19.3694
-19.3693
-19.3692
-19.3691
-19.3689
-19.3687
-19.3685
-19.3683
-19.368
-19.3677
-19.3674
-19.367
-19.3665
-19.3661
-19.3655
-19.3649
-19.3641
-19.3633
-19.3624
-19.3614
-19.3602
-19.359
-19.3578
-19.3567
-19.3558
-19.3551
-19.3548
-19.3549
-19.3553
-19.356
-19.3569
-19.3579
-19.3588
-19.3598
-19.3606
-19.3614
-19.3621
-19.3628
-19.3633
-19.3638
-19.3643
-19.3647
-19.3651
-19.3655
-19.3658
-19.3661
-19.3664
-19.3667
-19.367
-19.3673
-19.3675
-19.3677
-19.3679
-19.3681
-19.3683
-19.3684
-19.3685
-19.3686
-19.3687
-19.3687
-19.3688
-19.3688
-19.3688
-19.3688
-19.3688
-19.3688
-19.3688
-19.8603
-19.8603
-19.8603
-19.8603
-19.8603
-19.8603
-19.8603
-19.8603
-19.8603
-19.8603
-19.8603
-19.8603
-19.8602
-19.8602
-19.8601
-19.86
-19.8599
-19.8598
-19.8596
-19.8594
-19.8592
-19.859
-19.8587
-19.8584
-19.858
-19.8576
-19.8571
-19.8566
-19.8559
-19.8552
-19.8543
-19.8533
-19.8521
-19.8508
-19.8493
-19.8478
-19.8463
-19.8451
-19.8442
-19.8438
-19.844
-19.8446
-19.8456
-19.8468
-19.848
-19.8493
-19.8504
-19.8514
-19.8523
-19.8531
-19.8538
-19.8543
-19.8548
-19.8553
-19.8557
-19.856
-19.8564
-19.8567
-19.857
-19.8573
-19.8575
-19.8578
-19.858
-19.8583
-19.8585
-19.8587
-19.8588
-19.859
-19.8591
-19.8592
-19.8593
-19.8593
-19.8594
-19.8594
-19.8594
-19.8595
-19.8595
-19.8595
-19.8595
-19.8595
-20.351
-20.351
-20.351
-20.351
-20.351
-20.351
-20.351
-20.351
-20.351
-20.351
-20.351
-20.351
-20.351
-20.3509
-20.3509
-20.3508
-20.3507
-20.3506
-20.3505
-20.3503
-20.3501
-20.3499
-20.3497
-20.3494
-20.3491
-20.3487
-20.3483
-20.3477
-20.3471
-20.3464
-20.3454
-20.3443
-20.343
-20.3414
-20.3397
-20.3377
-20.3358
-20.3341
-20.3329
-20.3324
-20.3326
-20.3335
-20.3349
-20.3366
-20.3382
-20.3398
-20.3412
-20.3424
-20.3434
-20.3442
-20.3449
-20.3454
-20.3459
-20.3463
-20.3467
-20.347
-20.3473
-20.3476
-20.3479
-20.3481
-20.3484
-20.3486
-20.3488
-20.349
-20.3492
-20.3494
-20.3495
-20.3497
-20.3498
-20.3499
-20.3499
-20.35
-20.35
-20.3501
-20.3501
-20.3501
-20.3501
-20.3501
-20.3501
-20.3501
-20.8416
-20.8416
-20.8416
-20.8417
-20.8417
-20.8417
-20.8417
-20.8417
-20.8417
-20.8418
-20.8418
-20.8418
-20.8418
-20.8417
-20.8417
-20.8417
-20.8416
-20.8415
-20.8414
-20.8413
-20.8411
-20.841
-20.8408
-20.8405
-20.8403
-20.8399
-20.8395
-20.8391
-20.8385
-20.8377
-20.8368
-20.8356
-20.8342
-20.8324
-20.8302
-20.8277
-20.8251
-20.8227
-20.821
-20.8203
-20.8207
-20.822
-20.824
-20.8262
-20.8285
-20.8305
-20.8321
-20.8335
-20.8346
-20.8354
-20.8361
-20.8367
-20.8371
-20.8375
-20.8378
-20.8381
-20.8383
-20.8386
-20.8388
-20.839
-20.8392
-20.8394
-20.8396
-20.8398
-20.84
-20.8401
-20.8403
-20.8404
-20.8405
-20.8406
-20.8406
-20.8407
-20.8407
-20.8407
-20.8408
-20.8408
-20.8408
-20.8408
-20.8408
-20.8408
-21.3323
-21.3323
-21.3323
-21.3323
-21.3324
-21.3324
-21.3324
-21.3324
-21.3325
-21.3325
-21.3325
-21.3325
-21.3325
-21.3325
-21.3325
-21.3325
-21.3325
-21.3324
-21.3323
-21.3322
-21.3321
-21.332
-21.3319
-21.3317
-21.3315
-21.3312
-21.3309
-21.3305
-21.33
-21.3293
-21.3284
-21.3273
-21.3257
-21.3237
-21.3211
-21.3179
-21.3143
-21.311
-21.3086
-21.3075
-21.308
-21.31
-21.3128
-21.3158
-21.3188
-21.3214
-21.3234
-21.3249
-21.3261
-21.3269
-21.3276
-21.3281
-21.3284
-21.3287
-21.329
-21.3292
-21.3294
-21.3296
-21.3298
-21.33
-21.3301
-21.3303
-21.3305
-21.3306
-21.3308
-21.3309
-21.331
-21.3311
-21.3312
-21.3313
-21.3313
-21.3314
-21.3314
-21.3314
-21.3314
-21.3314
-21.3314
-21.3314
-21.3314
-21.3315
-21.823
-21.823
-21.823
-21.823
-21.823