/*--------------------------------*- C++ -*----------------------------------*\
| =========                 |                                                 |
| \\      /  F ield         | OpenFOAM: The Open Source CFD Toolbox           |
|  \\    /   O peration     | Version:  2412                                  |
|   \\  /    A nd           | Website:  www.openfoam.com                      |
|    \\/     M anipulation  |                                                 |
\*---------------------------------------------------------------------------*/
FoamFile
{
    version     2.0;
    format      ascii;
    arch        "LSB;label=32;scalar=64";
    class       volScalarField;
    location    "3.3";
    object      p_rgh;
}
// * * * * * * * * * * * * * * * * * * * * * * * * * * * * * * * * * * * * * //

dimensions      [1 -1 -2 0 0 0 0];

internalField   nonuniform List<scalar> 
6400
(
7780.36
7780.69
7781.35
7782.35
7783.64
7785.16
7786.86
7788.68
7790.54
7792.38
7794.11
7795.65
7796.93
7797.91
7798.53
7798.77
7798.61
7798.07
7797.14
7795.87
7794.3
7792.48
7790.47
7788.32
7786.11
7783.88
7781.71
7779.63
7777.68
7775.9
7774.31
7772.92
7771.73
7770.75
7769.96
7769.35
7768.91
7768.62
7768.47
7768.44
7768.53
7768.74
7769.06
7769.51
7770.09
7770.81
7771.69
7772.73
7773.95
7775.35
7776.92
7778.66
7780.54
7782.55
7784.64
7786.77
7788.88
7790.93
7792.86
7794.6
7796.11
7797.33
7798.23
7798.76
7798.92
7798.71
7798.13
7797.21
7795.99
7794.53
7792.9
7791.15
7789.37
7787.63
7786.01
7784.56
7783.34
7782.39
7781.74
7781.43
7780.04
7780.36
7781.03
7782.06
7783.38
7784.95
7786.71
7788.59
7790.52
7792.42
7794.2
7795.8
7797.13
7798.15
7798.8
7799.05
7798.9
7798.34
7797.39
7796.09
7794.48
7792.62
7790.55
7788.36
7786.1
7783.84
7781.63
7779.52
7777.56
7775.76
7774.17
7772.78
7771.61
7770.64
7769.87
7769.28
7768.86
7768.59
7768.45
7768.43
7768.52
7768.72
7769.04
7769.48
7770.04
7770.74
7771.61
7772.64
7773.84
7775.24
7776.81
7778.55
7780.46
7782.48
7784.6
7786.77
7788.92
7791.02
7792.99
7794.77
7796.31
7797.57
7798.48
7799.03
7799.19
7798.96
7798.35
7797.39
7796.13
7794.62
7792.92
7791.11
7789.27
7787.48
7785.81
7784.31
7783.06
7782.07
7781.43
7781.12
7779.36
7779.69
7780.39
7781.5
7782.9
7784.56
7786.43
7788.44
7790.51
7792.54
7794.46
7796.17
7797.61
7798.7
7799.4
7799.69
7799.53
7798.94
7797.95
7796.57
7794.88
7792.91
7790.75
7788.45
7786.09
7783.74
7781.45
7779.27
7777.26
7775.43
7773.82
7772.44
7771.28
7770.33
7769.6
7769.04
7768.65
7768.41
7768.29
7768.29
7768.39
7768.59
7768.89
7769.3
7769.84
7770.52
7771.35
7772.36
7773.55
7774.94
7776.52
7778.29
7780.24
7782.32
7784.51
7786.76
7789.01
7791.2
7793.27
7795.15
7796.77
7798.09
7799.05
7799.63
7799.79
7799.53
7798.87
7797.84
7796.48
7794.86
7793.03
7791.09
7789.12
7787.21
7785.42
7783.84
7782.51
7781.47
7780.79
7780.47
7778.31
7778.65
7779.39
7780.64
7782.13
7783.95
7786.01
7788.23
7790.51
7792.77
7794.9
7796.8
7798.4
7799.62
7800.41
7800.73
7800.57
7799.94
7798.86
7797.37
7795.52
7793.4
7791.06
7788.59
7786.06
7783.56
7781.13
7778.84
7776.74
7774.87
7773.23
7771.84
7770.7
7769.79
7769.09
7768.59
7768.26
7768.06
7767.98
7768
7768.11
7768.3
7768.59
7768.97
7769.47
7770.1
7770.89
7771.87
7773.04
7774.42
7776.03
7777.84
7779.86
7782.04
7784.35
7786.74
7789.15
7791.5
7793.73
7795.76
7797.52
7798.95
7800
7800.61
7800.78
7800.48
7799.74
7798.59
7797.08
7795.26
7793.24
7791.09
7788.91
7786.79
7784.83
7783.1
7781.67
7780.52
7779.81
7779.47
7776.89
7777.26
7778.07
7779.35
7781.05
7783.1
7785.42
7787.93
7790.53
7793.1
7795.53
7797.71
7799.53
7800.93
7801.84
7802.22
7802.06
7801.35
7800.15
7798.49
7796.44
7794.08
7791.5
7788.78
7786.01
7783.28
7780.66
7778.22
7776
7774.04
7772.36
7770.96
7769.85
7768.99
7768.36
7767.94
7767.68
7767.55
7767.52
7767.58
7767.7
7767.89
7768.14
7768.48
7768.92
7769.49
7770.22
7771.14
7772.28
7773.67
7775.3
7777.18
7779.29
7781.62
7784.1
7786.69
7789.32
7791.91
7794.37
7796.62
7798.58
7800.18
7801.34
7802.02
7802.19
7801.85
7800.99
7799.67
7797.93
7795.85
7793.54
7791.09
7788.61
7786.21
7784
7782.08
7780.51
7779.17
7778.44
7778.08
7775.02
7775.39
7776.29
7777.68
7779.59
7781.95
7784.62
7787.52
7790.54
7793.53
7796.37
7798.92
7801.06
7802.7
7803.76
7804.21
7804.03
7803.24
7801.87
7799.98
7797.64
7794.97
7792.05
7789
7785.91
7782.88
7780.01
7777.35
7774.97
7772.91
7771.18
7769.78
7768.71
7767.92
7767.39
7767.07
7766.92
7766.88
7766.93
7767.03
7767.17
7767.35
7767.56
7767.83
7768.19
7768.67
7769.31
7770.16
7771.26
7772.63
7774.3
7776.26
7778.51
7781.02
7783.74
7786.6
7789.53
7792.43
7795.21
7797.76
7799.99
7801.81
7803.13
7803.91
7804.09
7803.68
7802.67
7801.12
7799.08
7796.65
7793.95
7791.08
7788.2
7785.42
7782.88
7780.68
7778.87
7777.51
7776.66
7776.27
7772.68
7773.07
7774.04
7775.56
7777.62
7780.49
7783.57
7786.97
7790.54
7794.09
7797.46
7800.49
7803.03
7804.98
7806.25
7806.8
7806.59
7805.67
7804.07
7801.87
7799.17
7796.08
7792.73
7789.24
7785.73
7782.32
7779.11
7776.19
7773.61
7771.42
7769.64
7768.25
7767.24
7766.56
7766.16
7765.99
7765.98
7766.07
7766.22
7766.39
7766.55
7766.71
7766.86
7767.04
7767.28
7767.64
7768.16
7768.9
7769.93
7771.27
7772.97
7775.03
7777.45
7780.2
7783.22
7786.43
7789.75
7793.06
7796.25
7799.2
7801.78
7803.89
7805.44
7806.34
7806.55
7806.04
7804.84
7802.99
7800.57
7797.68
7794.47
7791.07
7787.65
7784.38
7781.41
7778.85
7776.82
7775.33
7774.39
7774
7769.83
7770.34
7771.24
7772.91
7775.31
7778.4
7782.16
7786.22
7790.5
7794.77
7798.84
7802.49
7805.55
7807.89
7809.41
7810.05
7809.81
7808.71
7806.82
7804.22
7801.04
7797.43
7793.52
7789.46
7785.42
7781.53
7777.91
7774.65
7771.83
7769.49
7767.65
7766.29
7765.38
7764.86
7764.66
7764.69
7764.87
7765.14
7765.43
7765.69
7765.88
7766.01
7766.08
7766.13
7766.21
7766.38
7766.73
7767.32
7768.23
7769.53
7771.25
7773.42
7776.05
7779.08
7782.48
7786.14
7789.95
7793.79
7797.51
7800.97
7804.01
7806.51
7808.34
7809.41
7809.65
7809.05
7807.61
7805.38
7802.47
7799
7795.12
7791.03
7786.92
7783.01
7779.48
7776.55
7774.24
7772.59
7771.57
7771.19
7766.26
7766.69
7767.69
7769.54
7772.29
7775.9
7780.25
7785.18
7790.4
7795.61
7800.56
7805
7808.71
7811.54
7813.37
7814.13
7813.83
7812.49
7810.22
7807.11
7803.32
7799.02
7794.4
7789.65
7784.94
7780.44
7776.3
7772.64
7769.53
7767.03
7765.14
7763.84
7763.09
7762.79
7762.85
7763.16
7763.62
7764.13
7764.6
7764.97
7765.21
7765.29
7765.25
7765.12
7764.97
7764.9
7764.99
7765.36
7766.11
7767.31
7769.04
7771.34
7774.19
7777.59
7781.44
7785.66
7790.1
7794.61
7799
7803.11
7806.74
7809.73
7811.94
7813.23
7813.54
7812.82
7811.08
7808.39
7804.86
7800.64
7795.93
7790.95
7785.94
7781.18
7777.06
7773.64
7771.01
7769.21
7768.13
7767.81
7761.99
7762.32
7763.29
7765.28
7768.4
7772.65
7777.87
7783.8
7790.15
7796.59
7802.7
7808.15
7812.68
7816.1
7818.3
7819.2
7818.8
7817.15
7814.37
7810.6
7806.03
7800.88
7795.37
7789.73
7784.19
7778.95
7774.18
7770.02
7766.57
7763.89
7761.97
7760.79
7760.26
7760.28
7760.71
7761.41
7762.23
7763.06
7763.78
7764.3
7764.59
7764.62
7764.42
7764.04
7763.59
7763.17
7762.91
7762.97
7763.46
7764.52
7766.23
7768.64
7771.77
7775.58
7780.01
7784.91
7790.13
7795.48
7800.73
7805.66
7810.05
7813.68
7816.37
7817.96
7818.36
7817.51
7815.42
7812.15
7807.84
7802.67
7796.91
7790.82
7784.51
7778.89
7773.95
7769.92
7766.96
7765.11
7764.32
7763.88
7756.97
7757.11
7757.89
7759.89
7763.39
7768.4
7774.72
7781.98
7789.77
7797.72
7805.38
7812.07
7817.61
7821.78
7824.43
7825.47
7824.92
7822.85
7819.42
7814.81
7809.26
7803.03
7796.41
7789.67
7783.09
7776.92
7771.38
7766.63
7762.79
7759.91
7758
7757
7756.81
7757.26
7758.2
7759.42
7760.75
7762.01
7763.05
7763.78
7764.12
7764.07
7763.65
7762.94
7762.07
7761.17
7760.44
7760.05
7760.18
7761
7762.63
7765.15
7768.59
7772.92
7778.03
7783.79
7789.98
7796.38
7802.71
7808.69
7814.03
7818.47
7821.79
7823.79
7824.33
7823.34
7820.82
7816.83
7811.54
7805.18
7798.08
7790.33
7782.85
7775.92
7769.91
7765.15
7761.83
7759.95
7759.25
7759.1
7751.19
7750.94
7751.29
7753.08
7756.91
7762.84
7770.55
7779.55
7789.22
7798.9
7808.83
7816.97
7823.76
7828.84
7832
7833.2
7832.43
7829.82
7825.54
7819.86
7813.07
7805.49
7797.46
7789.35
7781.49
7774.19
7767.71
7762.25
7757.95
7754.88
7753.03
7752.31
7752.59
7753.66
7755.28
7757.21
7759.2
7761.04
7762.52
7763.51
7763.93
7763.77
7763.05
7761.89
7760.44
7758.9
7757.5
7756.49
7756.11
7756.58
7758.06
7760.67
7764.46
7769.38
7775.34
7782.15
7789.55
7797.27
7804.95
7812.24
7818.79
7824.28
7828.41
7830.94
7831.69
7830.55
7827.51
7822.64
7816.13
7808.25
7799.32
7789.89
7780.59
7771.98
7764.61
7758.97
7755.31
7753.61
7753.33
7753.56
7744.72
7743.86
7743.34
7744.43
7748.5
7755.48
7765.02
7776.28
7788.47
7800.79
7812.62
7822.95
7831.35
7837.56
7841.36
7842.7
7841.62
7838.28
7832.93
7825.89
7817.53
7808.25
7798.5
7788.69
7779.24
7770.55
7762.92
7756.61
7751.79
7748.53
7746.8
7746.51
7747.45
7749.35
7751.91
7754.79
7757.68
7760.27
7762.33
7763.67
7764.19
7763.86
7762.75
7760.98
7758.75
7756.33
7754.03
7752.18
7751.08
7751.03
7752.26
7754.93
7759.09
7764.73
7771.71
7779.82
7788.75
7798.09
7807.45
7816.39
7824.47
7831.28
7836.45
7839.68
7840.73
7839.45
7835.8
7829.87
7821.84
7812.05
7800.89
7789.15
7777.48
7766.71
7757.57
7750.91
7747.05
7745.98
7746.59
7747.41
7738.09
7736.21
7733.94
7733.27
7737.67
7745.55
7757.59
7771.79
7787.26
7802.85
7817.52
7830.44
7840.8
7848.34
7852.87
7854.34
7852.82
7848.52
7841.79
7833.03
7822.71
7811.34
7799.44
7787.52
7776.12
7765.71
7756.69
7749.37
7743.94
7740.5
7739.02
7739.34
7741.19
7744.23
7748.04
7752.19
7756.27
7759.87
7762.69
7764.48
7765.13
7764.59
7762.93
7760.34
7757.07
7753.48
7749.96
7746.95
7744.86
7744.08
7744.91
7747.56
7752.14
7758.61
7766.84
7776.55
7787.35
7798.74
7810.21
7821.2
7831.2
7839.68
7846.19
7850.34
7851.82
7850.41
7846.06
7838.84
7828.95
7816.73
7802.8
7787.97
7773.2
7759.59
7747.97
7740.45
7736.45
7736.79
7739.38
7741.14
7732.7
7729.1
7721.65
7718.54
7722.52
7733
7747.5
7765.59
7785.4
7805.26
7823.71
7839.83
7852.54
7861.67
7867.01
7868.54
7866.38
7860.83
7852.33
7841.41
7828.65
7814.69
7800.13
7785.62
7771.8
7759.29
7748.59
7740.06
7733.96
7730.37
7729.27
7730.44
7733.55
7738.12
7743.62
7749.47
7755.11
7760.04
7763.86
7766.26
7767.06
7766.22
7763.85
7760.16
7755.5
7750.34
7745.19
7740.62
7737.17
7735.36
7735.58
7738.13
7743.15
7750.62
7760.36
7772.03
7785.14
7799.09
7813.17
7826.72
7839.1
7849.7
7857.94
7863.3
7865.37
7863.89
7858.74
7849.97
7837.79
7822.55
7805
7786.12
7767.23
7749.9
7735.91
7725.44
7721.14
7725.44
7732.27
7736.26
7730.73
7722.9
7707.98
7698.36
7700.19
7712.58
7732.48
7756.75
7782.68
7808.31
7831.7
7851.57
7867.14
7878.09
7884.29
7885.76
7882.69
7875.5
7864.73
7851.08
7835.3
7818.17
7800.38
7782.68
7765.9
7750.84
7738.11
7728.15
7721.26
7717.56
7717.01
7719.38
7724.19
7730.83
7738.58
7746.66
7754.38
7761.07
7766.2
7769.38
7770.38
7769.15
7765.81
7760.67
7754.17
7746.92
7739.58
7732.92
7727.64
7724.4
7723.75
7726.07
7731.56
7740.21
7751.78
7765.85
7781.83
7798.94
7816.24
7832.94
7848.29
7861.54
7871.98
7878.93
7881.84
7880.37
7874.32
7863.74
7848.82
7829.91
7807.73
7783.4
7758.68
7735.35
7715.88
7703.53
7700.92
7711.53
7727.37
7735.73
7733.8
7718.94
7690.72
7668.42
7665.4
7680.75
7711.02
7743
7777.29
7811.21
7841.38
7866.22
7885.23
7898.33
7905.48
7906.76
7902.45
7893.08
7879.37
7862.28
7842.82
7821.86
7800.14
7778.47
7758.06
7739.91
7724.72
7713.04
7705.2
7701.39
7701.6
7705.56
7712.66
7722.06
7732.78
7743.81
7754.21
7763.17
7770
7774.19
7775.44
7773.7
7769.12
7762.1
7753.21
7743.21
7732.99
7723.54
7715.81
7710.66
7708.78
7710.71
7716.71
7726.78
7740.6
7757.63
7777.15
7798.22
7819.52
7840.04
7859
7875.58
7888.84
7897.88
7901.96
7900.58
7893.49
7880.72
7862.43
7838.77
7810.19
7778.07
7745.39
7714.46
7684.01
7669.54
7672.45
7695.26
7725.06
7740.77
7745.28
7722.15
7673.84
7629.76
7614.93
7641.67
7670.62
7713.53
7761.62
7809.24
7850.13
7882.65
7906.79
7923.05
7931.68
7932.8
7926.92
7914.71
7897.19
7875.77
7851.92
7826.58
7800.14
7773.3
7748.22
7726.11
7707.86
7694.14
7685.19
7681.26
7682.47
7688.5
7698.58
7711.59
7726.22
7741.1
7755.02
7766.93
7775.95
7781.43
7783.02
7780.62
7774.44
7764.96
7752.95
7739.33
7725.25
7712.16
7701.32
7693.7
7690.17
7691.46
7697.92
7709.66
7726.31
7747.15
7771.27
7797.52
7823.96
7848.95
7872.1
7892.75
7909.64
7921.4
7926.96
7925.61
7916.95
7900.91
7877.49
7846.38
7807.59
7762.46
7716.71
7676.05
7649.12
7621.15
7635.81
7680.96
7731.53
7755.68
7748.54
7707.22
7308.75
6874.87
6785
7146.32
7500.48
7650.3
7724.27
7796.87
7855.85
7900.58
7932.51
7953.25
7963.71
7964.55
7956.65
7941.13
7919.37
7893.33
7864.74
7834.33
7802.05
7768.62
7737.47
7710.12
7687.77
7671.43
7660.88
7656.68
7659.31
7668.25
7682.27
7699.88
7719.47
7739.24
7757.67
7773.4
7785.27
7792.43
7794.43
7791.2
7782.93
7770.26
7754.25
7736.06
7716.95
7699.23
7684.53
7673.63
7667.6
7667.86
7674.76
7688.7
7709.24
7735.33
7765.68
7798.84
7831.71
7862.09
7889.9
7914.72
7935.4
7950.13
7957.5
7956.31
7945.72
7925.17
7893.95
7850.84
7794.37
7724.64
7653.45
7519.53
7205.81
6857.72
6941.64
7357.35
7721.5
7763.13
6879.5
5470.58
3313.11
1649.11
1078.74
1943.58
3418.32
4932.88
6242.76
7356.37
7838.41
7933.32
7975.58
8000.46
8011.83
8011.32
8000.39
7980.18
7952.46
7918.22
7865.64
7839.34
7723.25
7252.28
6797.49
6381.44
6024.59
5767.27
5565.78
5463.72
5501.31
5656.33
5899.78
6192.69
6491.11
6768.76
7008.4
7198.42
7332.17
7408.01
7431.72
7403.25
7319.28
7179.61
6992.59
6763.28
6498.11
6223.97
6005.9
5824.39
5699.01
5699.81
5792.45
6008.78
6330.28
6722.17
7163.76
7649.57
7847.8
7875.22
7914.46
7948.1
7974.12
7993.11
8003.14
8002.91
7991.25
7966.65
7925.59
7828.61
7344.91
6223.48
4928.85
3523.63
2113.25
1173.8
1725.59
3437.62
5671.32
7067.57
1437.16
710.44
84.5596
21.0358
10.9342
8.53573
3.82581
2.15921
324.803
2113.03
4227.95
5982.77
6714.12
7018.47
7123.7
7042.94
6799.06
6341.37
5611.19
4691.98
3718.98
2720.43
1809.36
1195.03
749.124
442.736
236.083
111.597
77.7353
106.705
171.469
286.948
445.269
647.774
899.788
1194.92
1511.11
1814.41
2061.65
2213.72
2255.78
2184.09
1998.97
1727.68
1419.92
1108.69
814.72
562.996
366.537
217.581
122.696
79.7957
117.158
230.357
420.931
707.382
1130.08
1732.29
2632.58
3639.45
4587.04
5477.94
6207.86
6671.01
6902.63
6952.85
6826.83
6504.02
5794
4132.72
2088
338.206
2.11154
3.61794
9.01017
12.2123
20.7763
112.799
874.358
1667.69
4.82651
5.09369
5.19666
3.0875
11.9273
14.1278
3.2079
1.91708
1.70575
1.38865
1.69267
316.07
858.447
1096.26
1164.35
1031.69
778.543
485.019
222.717
41.8742
0.719543
0.576494
0.810439
0.981854
1.11529
1.22034
1.27177
1.36102
1.45422
1.40549
1.41749
1.41927
1.33759
1.24739
1.29981
1.49829
1.83364
2.23321
2.58535
2.78644
2.74747
2.49366
2.05458
1.59376
1.20677
0.97026
0.918259
0.985851
1.13313
1.32662
1.35833
1.38169
1.25071
1.27927
1.27637
1.23905
1.18397
1.11276
1.03924
17.1221
84.6781
228.547
447.305
687.427
889.012
978.063
900.183
684.589
224.029
1.61782
1.43618
1.69729
1.8448
2.2141
13.3757
18.9834
3.54326
5.91944
4.86271
4.45589
2.27466
1.97691
1.81523
1.70633
1.68564
3.2321
2.99934
1.64386
1.63168
1.6957
1.7643
1.50043
1.18666
0.9478
0.770465
0.656975
0.613333
0.649948
0.729368
0.763348
0.738286
0.780266
1.00165
0.959291
1.03536
1.15426
1.39187
1.30636
1.29191
1.27112
1.25326
1.23589
1.16786
1.04154
0.965535
0.916393
0.877774
0.852493
0.839383
0.831875
0.818366
0.792685
0.774303
0.778293
0.801211
0.834732
0.86799
0.90215
0.95252
1.10842
1.18222
1.21417
1.23577
1.26238
1.24152
1.17762
1.15325
1.14302
1.13639
1.20475
1.22643
1.16573
1.04855
0.936843
0.870553
0.878803
0.978683
1.17864
1.49056
1.77106
1.73576
1.67174
1.58403
3.04264
7.09916
3.29966
2.37534
2.05908
1.79775
1.92022
2.22711
1.91409
1.63431
1.50855
1.30022
1.08584
1.32596
1.65102
2.42072
2.74255
1.85316
1.58344
1.35427
1.13935
0.964541
0.834902
0.754798
0.72689
0.736372
0.770624
0.934992
1.01764
1.07083
1.08286
1.02372
1.08558
1.18721
1.24042
1.24089
1.22353
1.21349
1.20309
1.13876
1.00755
0.93419
0.884506
0.840726
0.802938
0.77386
0.753777
0.741802
0.738868
0.747394
0.766148
0.789359
0.81045
0.833704
0.868013
0.914995
1.08077
1.13556
1.18734
1.24131
1.2626
1.2155
1.14251
1.15913
1.19087
1.2475
1.26998
1.25281
1.1947
1.11201
1.03826
1.00354
1.0274
1.12375
1.29879
1.53024
1.77371
2.03172
3.17744
2.71064
2.76535
6.42928
3.29465
2.12471
1.80129
1.6744
1.78916
2.91132
2.75057
1.48234
1.5974
2.62362
2.04624
1.33279
2.13949
2.50368
2.2769
1.78457
1.60168
1.39206
1.1985
1.03455
0.90697
0.822544
0.780417
0.771937
0.788318
0.820687
0.859879
0.907905
0.963911
1.01603
1.05725
1.08566
1.10058
1.09883
1.08285
1.05876
1.02633
0.992524
0.969874
0.917873
0.87382
0.836343
0.803691
0.77808
0.759781
0.748289
0.744633
0.750097
0.763385
0.780989
0.799248
0.817897
0.874596
1.07764
1.12768
1.16401
1.19566
1.1106
1.05576
1.07593
1.10362
1.14374
1.20326
1.28158
1.31747
1.30279
1.24368
1.16081
1.09792
1.0716
1.06797
1.15114
1.29282
1.4838
1.68566
1.79179
2.24649
3.07842
4.30073
4.8106
4.99811
5.15084
2.97029
1.56749
1.68789
2.89794
2.6537
1.4219
2.6057
2.66238
2.49194
2.50915
1.54134
1.83375
1.67668
1.65271
1.54669
1.40575
1.25038
1.09587
0.953542
0.841874
0.775505
0.756333
0.775267
0.815795
0.863238
0.913567
0.963995
1.00821
1.04209
1.0642
1.07372
1.07007
1.05516
1.03122
1.00141
0.968752
0.934407
0.899642
0.86448
0.831404
0.802443
0.77938
0.761996
0.74935
0.74287
0.744438
0.753164
0.766641
0.78284
0.800772
0.858522
0.955117
0.993112
0.968991
0.956976
0.957992
0.983546
1.01281
1.04968
1.10182
1.18671
1.30777
1.49127
1.85223
1.99675
2.1331
2.60816
2.85916
2.37108
1.45104
1.20628
1.35907
1.49621
1.55283
1.45245
1.48749
1.91736
2.11208
3.19822
5.08577
3.52133
1.49939
1.70083
2.81918
1.47087
1.3942
2.63288
2.79594
2.47948
1.18694
1.20639
1.36537
1.46036
1.47958
1.44771
1.38299
1.27138
1.13561
0.970466
0.82063
0.729518
0.707007
0.737333
0.794429
0.856627
0.915003
0.966458
1.00732
1.03593
1.05218
1.05637
1.04938
1.03297
1.00904
0.980542
0.949513
0.91725
0.884813
0.85321
0.823568
0.797487
0.775973
0.758491
0.744198
0.735505
0.734409
0.739726
0.749428
0.76209
0.777027
0.797549
0.809608
0.82865
0.849281
0.87154
0.894567
0.918708
0.945335
0.977904
1.0299
1.17032
2.7776
3.66301
4.00631
3.89233
3.7516
3.62896
3.55426
3.56432
2.10211
1.07921
1.17761
1.26606
1.28172
1.18817
1.00839
0.822153
0.739553
0.874377
1.59761
2.07591
1.49817
1.68128
1.48839
1.40978
1.39863
1.79458
1.93374
1.22923
1.0758
1.13162
1.19599
1.24667
1.27757
1.29824
1.81564
3.24044
4.00891
2.00407
0.746199
0.611798
0.603053
0.668609
0.758197
0.842872
0.913858
0.970482
1.0111
1.03564
1.04656
1.04539
1.03436
1.01525
0.990241
0.961413
0.931055
0.899979
0.869261
0.839851
0.812669
0.788566
0.767872
0.749951
0.734505
0.724586
0.721345
0.723518
0.729642
0.73832
0.748689
0.76012
0.772587
0.786151
0.800667
0.815822
0.831549
0.847989
0.863281
0.871902
0.904409
2.4153
3.96013
4.01047
3.926
3.77184
3.61837
3.46758
3.2996
3.25398
1.76251
2.26219
2.31854
1.38897
1.00572
0.939968
0.853454
0.788439
0.795416
0.902705
1.05757
1.18645
1.24761
1.5529
1.44453
1.41712
1.37896
1.30768
1.21689
1.12361
1.0623
1.03119
1.01221
0.999222
1.0156
1.23149
6.63627
11.5276
11.216
10.9728
4.4488
0.939076
0.43015
0.567753
0.742976
0.894698
0.915954
0.978103
1.01987
1.04153
1.04646
1.03883
1.02324
1.00061
0.973276
0.943294
0.912445
0.881688
0.851858
0.823763
0.798097
0.775292
0.755339
0.737222
0.721152
0.710036
0.704626
0.703842
0.7071
0.712252
0.718796
0.726147
0.734042
0.742304
0.750586
0.758435
0.765545
0.771756
0.770368
0.745482
1.21948
3.75649
3.89045
3.89042
3.61953
3.352
3.00884
1.69767
1.14546
1.23378
4.32182
7.99075
8.20406
8.10863
2.21682
0.627131
0.612917
0.642443
0.735969
0.877154
1.03319
1.16164
1.22894
1.51499
1.49149
1.4125
1.36828
1.29965
1.20211
1.0912
0.988089
0.889306
0.781114
0.686962
0.813262
6.69379
11.4015
11.2606
11.0735
10.7998
10.506
7.46253
1.27025
0.854251
2.11256
2.65302
1.54266
1.07654
1.03483
1.05157
1.04896
1.03599
1.01436
0.987042
0.956438
0.924261
0.892514
0.861447
0.831896
0.804461
0.779607
0.757462
0.738079
0.720171
0.7039
0.691691
0.684387
0.68131
0.681742
0.684033
0.687128
0.690549
0.694038
0.697328
0.699763
0.700682
0.699368
0.695395
0.679793
0.63329
1.41167
3.63879
3.48187
2.73065
1.94851
1.65447
1.34807
1.05522
0.822659
1.22778
7.31508
7.64024
7.78556
7.90543
8.08957
2.75809
0.297567
0.396321
0.570259
0.753785
0.923898
1.06186
1.14344
1.44237
1.41701
1.38409
1.3362
1.2605
1.15119
1.02
0.87815
0.713135
0.497977
0.298286
3.04086
11.0432
10.9405
10.7143
9.88298
9.5795
9.69439
9.09027
6.1392
1.39488
2.90841
3.10286
3.22266
2.73404
1.96021
1.17779
1.05309
1.0336
1.00532
0.9725
0.938053
0.904052
0.870242
0.8384
0.808757
0.781604
0.757151
0.735299
0.716123
0.698717
0.682931
0.670138
0.661241
0.6562
0.654357
0.654031
0.653976
0.653735
0.653049
0.651916
0.648968
0.643725
0.635076
0.623195
0.600401
0.558867
1.87398
1.64017
1.57228
1.8336
2.17232
1.84324
1.16286
0.681473
0.311489
0.119968
2.05092
6.81148
7.16464
7.33334
7.49743
6.76871
0.556671
0.0548477
0.316422
0.551745
0.740661
0.890971
0.987453
1.31726
1.62986
1.34288
1.28573
1.20063
1.07624
0.921777
0.741611
0.507571
0.171736
0.0713088
6.41826
10.2419
10.3361
6.21854
-1.17419
-0.499178
2.09535
2.65152
1.07362
1.36838
1.57257
2.54222
2.6941
3.04782
3.15764
2.85427
1.2943
1.02934
0.993169
0.954433
0.915746
0.878921
0.844056
0.811766
0.782166
0.755291
0.731121
0.709457
0.690361
0.673747
0.659248
0.64651
0.636233
0.629402
0.625523
0.622762
0.61981
0.616258
0.611927
0.606428
0.598925
0.588599
0.574173
0.55567
0.533435
0.512214
2.01126
1.25021
1.25663
3.76187
7.48076
7.36386
4.56426
0.369411
-0.320377
-0.530345
-0.726745
-0.271173
5.60121
6.69193
6.96469
7.43989
1.60613
-0.371824
-0.00750069
0.290048
0.506259
0.673128
0.783107
1.12869
1.7722
1.30466
1.22332
1.12566
0.980892
0.801185
0.581478
0.282766
-0.17364
-0.107594
8.48123
9.83537
7.22667
-1.90845
-1.85976
-1.73027
-1.43542
-0.746761
1.58494
1.81156
1.25294
1.35793
1.40146
2.14168
3.20081
3.26883
3.07727
1.14607
0.975636
0.929557
0.887674
0.84887
0.813327
0.78113
0.752072
0.725863
0.702218
0.680891
0.662055
0.646544
0.634101
0.621893
0.610425
0.602075
0.596099
0.590944
0.58527
0.578705
0.571067
0.561849
0.550351
0.53584
0.517296
0.493852
0.466007
0.443275
1.26322
1.20984
5.56622
8.03399
7.658
7.10049
6.36216
1.429
-0.854478
-1.17327
-1.40713
-1.36202
0.0411269
6.18121
6.53618
7.02422
2.60339
-0.847293
-0.363996
0.000154631
0.250828
0.439122
0.562049
0.762142
1.73587
1.30685
1.654
1.33883
0.865305
0.665086
0.410187
0.0620975
-0.491104
-0.394013
8.35983
9.25409
2.92289
-2.61538
-2.62156
-2.42509
-2.00837
0.493027
4.47834
5.7844
3.26674
1.49961
1.42568
1.42023
1.52602
3.21756
3.41556
2.65097
0.994435
0.894562
0.849931
0.811764
0.777053
0.746032
0.718444
0.693683
0.671218
0.650759
0.632833
0.61898
0.60906
0.597107
0.584421
0.574886
0.566735
0.559172
0.550964
0.541684
0.531093
0.518658
0.503679
0.485495
0.463232
0.435921
0.40407
0.507194
0.37319
2.37964
8.32321
8.0098
7.52588
6.77184
2.80049
-0.126719
-1.10288
-1.54919
-1.74122
-1.75312
3.02334
5.79176
6.08219
6.61896
3.70055
-1.23594
-0.705278
-0.280339
0.00710286
0.219108
0.353695
0.44683
1.65647
1.28334
1.4998
1.99727
0.741384
0.524221
0.245196
-0.125503
-0.710205
-0.352793
9.38322
9.05598
2.58914
-3.2991
-3.3069
-3.04356
-2.58787
-0.895061
4.24231
5.4172
6.37658
5.9703
1.99787
1.43259
1.38331
1.39867
3.41365
3.48269
1.70496
0.846929
0.799524
0.765551
0.734227
0.705966
0.681133
0.658908
0.63863
0.620028
0.604181
0.592455
0.597789
0.594941
0.567607
0.546912
0.53732
0.527699
0.517312
0.505785
0.492708
0.47754
0.45958
0.438131
0.412295
0.381444
0.344777
0.435055
0.292261
6.89791
8.39345
8.03433
7.43239
4.49781
-1.38042
-1.37089
2.17675
1.3469
1.4547
5.24068
5.18454
5.25166
5.6103
6.27852
3.00721
-1.59559
-0.980948
-0.517462
-0.196036
0.0367572
0.176533
0.862805
14.6002
3.34906
1.3912
1.86145
0.685194
0.394904
0.121993
-0.261202
-0.858816
-1.51767
8.14251
8.8296
6.77057
-3.90599
-3.81518
-3.42208
-2.8761
-2.24365
-1.47894
4.71949
6.18378
6.91949
7.04253
1.80243
1.34657
1.30185
2.51803
3.47087
2.84974
0.859182
0.735024
0.708935
0.684073
0.660552
0.639912
0.62136
0.604329
0.588632
0.575586
0.565947
0.737421
0.756779
0.605448
0.518509
0.507981
0.496715
0.484697
0.471425
0.456379
0.438987
0.418543
0.394318
0.365279
0.33068
0.288301
0.243143
0.201509
4.90008
8.48282
8.12605
7.27286
-0.912429
-1.52635
-0.580307
2.14203
1.49208
-0.0808613
0.999293
4.73623
4.84781
5.30165
6.11987
0.417662
-1.82187
-1.1721
-0.685977
-0.338509
-0.094063
0.0489893
1.0154
14.5403
6.76679
1.22942
1.68287
1.43888
0.352717
0.0526182
-0.297598
-0.848116
-1.74362
-0.458649
8.92967
8.35917
2.06793
-3.81539
-3.52626
-1.86463
-2.19481
-1.59003
-0.690982
5.60829
6.78867
7.34179
6.07206
1.46734
1.2162
2.43261
3.45352
3.47358
1.07533
0.65571
0.642135
0.626606
0.60993
0.594835
0.58082
0.567709
0.555311
0.545045
0.660994
0.746291
0.730863
0.58175
0.489175
0.478325
0.466315
0.45335
0.438886
0.422441
0.403415
0.381071
0.354679
0.323056
0.285053
0.238314
0.181611
0.150647
0.292126
8.59854
8.28405
6.20845
-0.908617
-1.54092
-1.78394
1.04051
-1.33964
-3.80618
-4.26686
0.477815
4.83114
5.37418
4.25435
-2.85591
-1.97293
-1.2659
-0.768563
-0.412012
-0.167172
-0.00153095
0.973889
14.4647
12.0591
1.40214
1.28176
1.53357
0.273276
0.0609374
-0.219809
-0.672168
-1.41439
-2.51253
0.771217
8.92776
5.45201
-2.51631
-1.87621
-0.895675
-0.550266
-1.46724
-0.915568
0.457805
6.59756
7.27784
7.45263
3.1363
1.13384
3.11749
3.41762
3.41698
1.19768
0.562683
0.567206
0.563187
0.55512
0.546573
0.537569
0.528518
0.523397
0.664346
0.731164
0.718183
0.679416
0.495522
0.459778
0.449096
0.437063
0.423688
0.408557
0.391253
0.371174
0.347591
0.319748
0.286425
0.246246
0.197234
0.139125
0.0781401
0.0797464
5.77426
8.48041
7.3151
-0.625997
-1.41634
-1.9846
-2.59008
-3.16442
-3.63125
-3.94377
1.20475
5.39537
5.70223
-3.38869
-2.76411
-1.89
-1.23745
-0.76728
-0.421865
-0.186506
-0.0105742
0.795903
5.19491
11.8315
3.86914
0.827689
1.50043
0.949972
0.146601
-0.0425525
-0.363696
-0.894489
-1.71719
-2.59955
-2.25652
-3.10514
-2.11775
-0.854531
-0.442568
-0.0490258
-0.552987
-0.800379
-0.215417
5.88421
7.17299
7.23915
3.30366
1.16223
3.26884
3.34736
3.22239
0.766548
0.463542
0.488504
0.496913
0.498399
0.496794
0.49292
0.487715
0.481448
0.708181
0.701961
0.689625
0.524536
0.439026
0.431229
0.421041
0.409323
0.395911
0.380564
0.36291
0.342385
0.318305
0.289862
0.255884
0.214991
0.164938
0.105377
0.0512891
-0.016541
2.22982
8.70677
8.05387
4.88181
-1.14756
-1.7045
-2.22335
-2.6728
-2.91803
-2.94991
0.524385
5.52478
-1.51373
-3.17325
-2.38599
-1.67176
-1.12012
-0.703024
-0.380679
-0.047912
0.0219276
0.199392
5.01904
11.6341
3.35978
0.695889
1.51592
1.55068
0.641178
0.19472
0.00401482
-0.332881
-0.885033
-1.5982
-2.29697
-2.63514
-2.43448
-0.333336
0.0730013
0.373579
0.45831
-0.506785
0.019907
4.90092
5.73676
1.29367
1.47442
3.04332
3.20198
3.24472
2.70462
0.447589
0.369585
0.411726
0.432076
0.442859
0.447876
0.449009
0.447445
0.444147
0.568962
0.674551
0.562655
0.417809
0.411422
0.404026
0.394507
0.383271
0.370159
0.35501
0.337492
0.317117
0.29327
0.265159
0.231691
0.191583
0.142127
0.0813853
0.0339417
-0.0412608
2.31959
8.95578
8.30567
6.87107
-0.753704
-1.28422
-1.71042
-1.16039
0.311496
0.0325113
-0.298691
-2.7155
-3.07119
-2.56009
-1.94961
-1.39907
-0.954703
-0.59784
-0.10982
0.113087
0.0779263
2.46342
5.08656
11.8877
0.897924
0.561605
1.2874
1.63575
1.68581
0.968272
0.361152
0.174718
-0.186729
-0.734033
-1.36233
-1.86267
-0.264713
0.400409
0.564909
0.82701
0.0593643
-0.0328011
0.559084
2.33611
0.477637
0.461605
1.27418
3.05204
3.08499
3.13426
1.65945
0.213698
0.289075
0.342582
0.37303
0.391405
0.401995
0.407634
0.409436
0.409476
0.427136
0.649521
0.509575
0.389585
0.385512
0.378482
0.369647
0.359038
0.346519
0.331945
0.315034
0.295378
0.272452
0.245583
0.213808
0.175979
0.129643
0.0709714
0.00663413
-0.0580687
0.462513
6.62553
8.39398
7.23079
-0.248425
-0.753082
-0.868848
1.3386
1.07528
0.937696
0.900076
-1.70133
-2.39813
-1.98777
-1.53337
-1.11722
-0.772434
-0.479459
-0.173279
1.22308
2.41007
3.06309
2.78555
8.61932
0.966834
0.635866
0.617201
1.47122
1.39907
1.14102
0.656992
0.587432
0.367639
-0.061927
-0.632196
-0.918874
0.745714
0.910047
1.00611
0.899786
0.0290631
0.457441
3.62377
1.29575
0.455714
0.341452
2.86561
2.95782
2.98471
2.52955
0.209786
0.129522
0.228669
0.28712
0.323167
0.346074
0.360562
0.369657
0.374248
0.376841
0.38511
0.619393
0.62006
0.373433
0.36078
0.354477
0.346379
0.336558
0.324866
0.311188
0.295303
0.27689
0.255535
0.23072
0.201722
0.167659
0.12691
0.0755078
0.0174413
-0.0394338
-0.10401
0.463261
8.5815
7.82642
3.37372
-0.157309
-0.556291
0.538506
1.81072
1.69049
1.71026
1.74455
-1.21625
-1.49793
-1.15764
-0.847452
-0.587594
-0.36796
1.44207
2.75372
2.82645
0.670236
0.208485
2.86434
10.1575
3.2947
0.665207
0.655351
0.681121
0.766449
0.851576
0.882727
0.809242
0.45888
-0.0848255
-0.41553
-0.649412
-0.524566
1.41276
0.179699
0.540514
0.972745
4.89904
3.31455
0.400168
0.390728
1.46559
2.48999
1.65263
0.0774846
-0.0189604
0.107273
0.192505
0.246987
0.2833
0.307813
0.324332
0.335418
0.341953
0.346283
0.346986
0.599226
0.600351
0.354647
0.337251
0.331808
0.324612
0.315736
0.30506
0.29253
0.277989
0.261213
0.241934
0.219806
0.194385
0.165159
0.131382
0.0905918
0.0433616
-0.00147389
-0.0438616
0.285311
5.30649
7.85325
6.6398
0.329958
-0.0022573
-0.282233
1.92845
2.38357
2.35634
1.65844
-1.30069
-1.07949
-0.824416
-0.594653
-0.396001
0.626038
2.74939
2.81215
2.85413
-0.059531
0.202067
2.30834
10.379
10.5083
1.61529
0.836795
2.19997
8.15291
13.2887
16.4173
18.5439
18.5398
16.1722
12.166
6.60924
1.25056
0.314143
0.548899
1.05391
3.77571
6.2146
2.80201
0.419905
0.226924
0.0336891
-0.0909567
-0.092374
-0.0610749
0.0326106
0.115844
0.176396
0.220494
0.252701
0.276132
0.292949
0.304919
0.312747
0.318174
0.320239
0.575346
0.550304
0.322741
0.31505
0.310513
0.304341
0.29651
0.286975
0.275755
0.262766
0.24787
0.230944
0.211842
0.190397
0.166445
0.139883
0.110018
0.0761002
0.0441055
0.0198821
-0.000472676
0.195848
7.72146
7.22002
2.62448
0.549084
0.270493
0.155558
1.16786
-0.0773787
-0.880825
-0.905457
-0.722756
-0.53441
-0.352121
0.337478
2.8501
2.86635
2.86413
0.781601
-0.0840941
0.177719
0.253531
2.25024
9.51777
21.839
24.305
26.3472
26.275
26.4665
27.5369
28.8114
29.2863
29.088