/*--------------------------------*- C++ -*----------------------------------*\
| =========                 |                                                 |
| \\      /  F ield         | OpenFOAM: The Open Source CFD Toolbox           |
|  \\    /   O peration     | Version:  2412                                  |
|   \\  /    A nd           | Website:  www.openfoam.com                      |
|    \\/     M anipulation  |                                                 |
\*---------------------------------------------------------------------------*/
FoamFile
{
    version     2.0;
    format      ascii;
    arch        "LSB;label=32;scalar=64";
    class       volScalarField;
    location    "58";
    object      alpha.lava;
}
// * * * * * * * * * * * * * * * * * * * * * * * * * * * * * * * * * * * * * //

dimensions      [0 0 0 0 0 0 0];

internalField   nonuniform List<scalar> 
6400
(
0.997069
0.990434
0.98681
0.986535
0.987545
0.987415
0.987068
0.98686
0.986597
0.986483
0.986258
0.985969
0.985238
0.984457
0.983807
0.983273
0.982785
0.982146
0.981204
0.980224
0.979522
0.978997
0.978508
0.978065
0.977525
0.977017
0.976543
0.97629
0.97629
0.976296
0.976318
0.976382
0.976536
0.976535
0.976535
0.976762
0.977237
0.977467
0.977897
0.978214
0.978987
0.980113
0.980542
0.980834
0.981305
0.98173
0.982141
0.982582
0.983042
0.983514
0.983984
0.984442
0.984885
0.98531
0.985707
0.98607
0.986396
0.986682
0.98693
0.987163
0.987163
0.987163
0.98715
0.986726
0.986961
0.987348
0.986815
0.986687
0.986686
0.986686
0.986692
0.986699
0.986742
0.986879
0.987139
0.987611
0.988385
0.989864
0.993135
0.999866
1.00045
0.993813
0.988081
0.985185
0.984609
0.984951
0.984662
0.984106
0.983701
0.983817
0.983638
0.983173
0.982695
0.982401
0.982048
0.981591
0.981316
0.981124
0.980556
0.979366
0.977894
0.977928
0.977747
0.977508
0.977111
0.976739
0.976524
0.976422
0.976358
0.976581
0.976893
0.976968
0.97699
0.977314
0.977017
0.976037
0.977242
0.976056
0.975988
0.978097
0.978997
0.97811
0.978602
0.979638
0.979732
0.979703
0.979996
0.980337
0.980723
0.981184
0.981655
0.982152
0.982711
0.983275
0.983783
0.984298
0.98489
0.985436
0.985877
0.986286
0.986747
0.986708
0.986818
0.987183
0.988049
0.988442
0.988374
0.988488
0.988766
0.989131
0.989506
0.989865
0.990248
0.990569
0.991095
0.992003
0.993546
0.995911
0.999883
1.00559
1.00201
0.995148
0.98894
0.985286
0.983274
0.982633
0.981739
0.981315
0.980993
0.980921
0.981056
0.980963
0.980407
0.980062
0.980056
0.980206
0.980259
0.979867
0.979196
0.978197
0.977753
0.97791
0.97845
0.977346
0.977056
0.976992
0.977024
0.977102
0.977302
0.97725
0.977553
0.978069
0.977847
0.977354
0.976922
0.975983
0.975983
0.975983
0.975984
0.97714
0.978996
0.976628
0.976627
0.977019
0.978206
0.978343
0.977948
0.978017
0.978868
0.979219
0.979494
0.980258
0.981053
0.981307
0.981866
0.983333
0.984217
0.984442
0.984567
0.984889
0.985507
0.98646
0.98745
0.988244
0.988821
0.989384
0.989794
0.990235
0.990789
0.991419
0.992087
0.992644
0.993078
0.993694
0.994404
0.995419
0.996952
0.999431
1.00306
1.00763
1.00282
0.994709
0.988152
0.983705
0.981597
0.980462
0.979355
0.978549
0.978439
0.978713
0.97884
0.978455
0.978175
0.978673
0.979147
0.978829
0.978665
0.978505
0.977762
0.97778
0.978449
0.978451
0.978452
0.978358
0.978248
0.978101
0.977942
0.977895
0.978059
0.978081
0.978024
0.97833
0.978344
0.978219
0.977755
0.976308
0.975983
0.975984
0.977076
0.977138
0.976995
0.97699
0.976983
0.975491
0.974578
0.975676
0.977441
0.97804
0.976504
0.976301
0.9763
0.97863
0.978641
0.979799
0.982424
0.983324
0.981984
0.981358
0.983214
0.984947
0.986021
0.987031
0.988013
0.988877
0.989614
0.990285
0.990951
0.991618
0.992376
0.993157
0.993624
0.994392
0.995188
0.99606
0.997087
0.998291
0.99972
1.00171
1.00457
1.00816
1.00363
0.994214
0.986467
0.981944
0.979239
0.9775
0.976512
0.975983
0.97578
0.975828
0.976062
0.976028
0.976318
0.977255
0.977462
0.97703
0.976908
0.976941
0.977262
0.978449
0.978451
0.978452
0.978453
0.978454
0.978456
0.978459
0.97846
0.978461
0.978461
0.978392
0.978374
0.978367
0.978356
0.978344
0.978334
0.97762
0.976632
0.976141
0.976947
0.975831
0.974626
0.976232
0.976973
0.976829
0.972649
0.97265
0.97265
0.972867
0.974324
0.976363
0.978323
0.978788
0.97877
0.979224
0.979423
0.979244
0.979167
0.980151
0.984251
0.985229
0.986371
0.987485
0.988518
0.989515
0.99042
0.991263
0.992098
0.992996
0.993928
0.994466
0.995363
0.996257
0.997123
0.998125
0.999211
1.00032
1.00165
1.00327
1.0055
1.00819
1.00462
0.993561
0.984143
0.979618
0.976467
0.974602
0.973564
0.973056
0.972689
0.972708
0.973446
0.973936
0.974542
0.975468
0.975597
0.975146
0.975383
0.97648
0.977245
0.977129
0.977735
0.977941
0.977989
0.978453
0.978454
0.978326
0.977978
0.977911
0.978021
0.978385
0.97837
0.978354
0.978344
0.978334
0.976392
0.975257
0.974854
0.974414
0.973802
0.973703
0.973706
0.97462
0.974112
0.972648
0.972648
0.97265
0.97265
0.97265
0.972651
0.973638
0.975347
0.975398
0.976486
0.979216
0.979136
0.978953
0.979091
0.982692
0.9842
0.985678
0.986815
0.988039
0.989246
0.990364
0.991391
0.992344
0.993355
0.994367
0.994901
0.995941
0.997023
0.998097
0.999184
1.00006
1.00106
1.00212
1.00316
1.00445
1.00623
1.00792
1.00542
0.993112
0.983093
0.977173
0.973572
0.971593
0.970524
0.969988
0.969723
0.970054
0.971196
0.971757
0.972475
0.973531
0.973765
0.973676
0.974522
0.975806
0.976014
0.975283
0.975166
0.975782
0.97692
0.977963
0.978024
0.978022
0.977883
0.97786
0.978034
0.97837
0.978071
0.97699
0.977481
0.975949
0.9737
0.9737
0.9737
0.9737
0.973701
0.973702
0.973704
0.974706
0.972727
0.972648
0.972648
0.972648
0.973996
0.976166
0.973784
0.97368
0.974868
0.975844
0.976235
0.980528
0.981855
0.98023
0.981347
0.98361
0.984899
0.986311
0.987634
0.98894
0.990252
0.99149
0.992622
0.993715
0.994802
0.995532
0.996366
0.997439
0.998632
0.999775
1.00081
1.00187
1.00283
1.00371
1.0045
1.00549
1.00676
1.00738
1.00585
0.992103
0.981704
0.974363
0.970535
0.96826
0.967012
0.966533
0.96641
0.967157
0.968428
0.968816
0.969731
0.971102
0.971532
0.971576
0.972888
0.973924
0.973214
0.973231
0.97493
0.976582
0.976914
0.976692
0.976961
0.977408
0.977878
0.977298
0.975864
0.977066
0.977982
0.97442
0.974379
0.974353
0.973762
0.973797
0.973735
0.973701
0.973701
0.973896
0.974335
0.974717
0.974611
0.974546
0.975016
0.976014
0.977174
0.976193
0.974914
0.975835
0.978037
0.979401
0.978483
0.978542
0.981885
0.983697
0.983208
0.984152
0.985776
0.987089
0.988469
0.989846
0.991218
0.992523
0.993776
0.99501
0.995944
0.996787
0.997937
0.999208
1.00024
1.00141
1.00252
1.00356
1.00446
1.00523
1.00579
1.0065
1.00699
1.00669
1.00671
0.992008
0.979692
0.971543
0.967864
0.965417
0.964058
0.963665
0.963598
0.96456
0.965881
0.966024
0.966799
0.967845
0.968322
0.970423
0.971693
0.971729
0.972553
0.975885
0.97613
0.976145
0.976409
0.97358
0.973253
0.974595
0.97598
0.973916
0.973957
0.973985
0.974022
0.976055
0.975096
0.975255
0.977445
0.977773
0.977386
0.977231
0.977217
0.977276
0.977307
0.977294
0.97726
0.977253
0.977317
0.97728
0.977158
0.977601
0.978177
0.978325
0.978681
0.980259
0.981277
0.980556
0.981038
0.983711
0.98504
0.985623
0.986815
0.988192
0.98959
0.991034
0.992453
0.993833
0.995186
0.996303
0.997114
0.998291
0.999596
1.00073
1.00202
1.00323
1.00433
1.00526
1.00608
1.00675
1.00712
1.00732
1.00697
1.0059
1.00688
0.991417
0.977071
0.96839
0.963861
0.957864
0.953884
0.954098
0.955992
0.961312
0.962781
0.9626
0.964447
0.967138
0.969775
0.97059
0.971017
0.97248
0.974213
0.974229
0.97174
0.971553
0.972791
0.971407
0.971457
0.971495
0.971543
0.973904
0.975198
0.975428
0.975839
0.978889
0.979466
0.97958
0.980007
0.980087
0.980009
0.979927
0.979822
0.979749
0.979684
0.979587
0.979476
0.979361
0.979223
0.97911
0.979146
0.979408
0.979739
0.98006
0.98038
0.980936
0.981889
0.98232
0.982354
0.983614
0.985463
0.986673
0.987764
0.989082
0.990524
0.992026
0.99355
0.995054
0.99643
0.997314
0.998655
0.999976
1.00121
1.0026
1.00392
1.00516
1.00622
1.00711
1.0078
1.00837
1.00842
1.00795
1.00688
1.00512
1.00714
0.990362
0.975569
0.966335
0.956217
0.950926
0.950927
0.950928
0.950929
0.950927
0.954228
0.959681
0.965091
0.967401
0.968473
0.965977
0.966279
0.96859
0.971053
0.971126
0.967039
0.967097
0.96715
0.971387
0.972993
0.974663
0.976342
0.97904
0.980202
0.981129
0.98164
0.982396
0.983127
0.983546
0.983633
0.983706
0.983741
0.983572
0.983297
0.983159
0.983022
0.982848
0.982647
0.982329
0.98206
0.981909
0.981851
0.981893
0.982022
0.982218
0.982483
0.982856
0.983351
0.983828
0.98419
0.984855
0.986173
0.987623
0.988898
0.99023
0.991685
0.993236
0.994848
0.996419
0.997411
0.99892
1.00018
1.00166
1.00313
1.00455
1.00591
1.00714
1.00821
1.00902
1.00965
1.00998
1.00964
1.0085
1.00694
1.00443
1.00745
0.990023
0.975291
0.961628
0.950926
0.950926
0.950926
0.950927
0.950929
0.950928
0.950928
0.950928
0.951052
0.953866
0.955744
0.953991
0.954472
0.954705
0.955207
0.957797
0.967014
0.969886
0.972835
0.976884
0.979454
0.981096
0.982368
0.983486
0.984444
0.98541
0.986267
0.986751
0.987088
0.987442
0.98765
0.987735
0.987751
0.987779
0.987689
0.987597
0.987397
0.987185
0.986841
0.986179
0.985826
0.985567
0.985269
0.985094
0.985061
0.985089
0.985174
0.985319
0.985578
0.985988
0.986487
0.987094
0.987929
0.989043
0.990311
0.991652
0.993109
0.99469
0.996323
0.997603
0.998944
1.00025
1.00181
1.00337
1.00489
1.00635
1.00769
1.00892
1.00995
1.01075
1.01122
1.01133
1.01052
1.00904
1.00694
1.0038
1.00714
0.990669
0.974802
0.955275
0.950926
0.950926
0.950926
0.950926
0.950927
0.950929
0.950928
0.950927
0.950928
0.95093
0.950931
0.953772
0.958771
0.96258
0.966611
0.970367
0.974015
0.977583
0.980038
0.981894
0.983724
0.985317
0.986604
0.987775
0.988931
0.989735
0.990393
0.99125
0.991772
0.992011
0.992247
0.992334
0.992297
0.992206
0.99218
0.991889
0.991461
0.990996
0.990628
0.99057
0.99012
0.98966
0.989072
0.988761
0.988563
0.988418
0.988284
0.988244
0.98835
0.988644
0.989111
0.989745
0.990492
0.991362
0.992393
0.993627
0.994984
0.996426
0.997897
0.999008
1.00019
1.0017
1.00325
1.00479
1.0063
1.00769
1.009
1.01015
1.01117
1.01186
1.01219
1.01199
1.01096
1.0093
1.00669
1.00308
1.00683
0.9926
0.976042
0.965841
0.954778
0.950926
0.950926
0.950927
0.950929
0.950931
0.950931
0.950954
0.952797
0.955976
0.961245
0.969228
0.972548
0.9752
0.977592
0.979837
0.981847
0.983879
0.985702
0.987266
0.988774
0.990285
0.991714
0.992645
0.993501
0.994357
0.995579
0.996364
0.996851
0.997195
0.997397
0.997454
0.997393
0.997227
0.99699
0.996689
0.996362
0.995885
0.99499
0.994562
0.994197
0.993779
0.993596
0.993315
0.99291
0.992653
0.992311
0.992128
0.992162
0.992376
0.992765
0.993317
0.993985
0.994714
0.99554
0.996625
0.99796
0.99885
0.999609
1.00059
1.00188
1.00324
1.00462
1.006
1.00733
1.00858
1.00971
1.01077
1.01163
1.01221
1.0123
1.01193
1.01083
1.00906
1.00619
1.00245
1.00706
0.997785
0.988974
0.98531
0.981007
0.973592
0.96864
0.965434
0.966174
0.967394
0.970166
0.974388
0.977508
0.979502
0.98144
0.983203
0.984627
0.985945
0.987191
0.988728
0.990606
0.992411
0.994253
0.995607
0.996438
0.996947
0.997518
0.998169
0.998872
0.999596
1
1.00041
1.00099
1.0014
1.00162
1.0017
1.00164
1.00147
1.00121
1.00085
1.00042
1.00002
0.999883
0.999341
0.998835
0.998453
0.99819
0.997936
0.997833
0.997665
0.99765
0.99766
0.997653
0.997789
0.998029
0.998398
0.998831
0.999274
0.999708
1.00005
1.0003
1.00107
1.00192
1.00284
1.00382
1.00486
1.0059
1.00692
1.00793
1.00886
1.00975
1.01055
1.01121
1.0115
1.01143
1.01092
1.00998
1.00805
1.00539
1.002
1.00793
1.00341
1.00137
1.00085
1.00007
0.999223
0.997446
0.99668
0.996389
0.996328
0.996573
0.997143
0.997654
0.998014
0.998283
0.998499
0.998809
0.999154
0.999548
0.999777
0.999893
1
1
1.0004
1.00134
1.00224
1.00315
1.00404
1.00493
1.00575
1.00644
1.00708
1.00754
1.00783
1.00798
1.008
1.0079
1.00771
1.00743
1.00707
1.00664
1.00615
1.00566
1.00514
1.00464
1.00418
1.00376
1.00339
1.00307
1.00276
1.00251
1.00231
1.0022
1.00223
1.00244
1.00267
1.00293
1.0032
1.00351
1.00385
1.00425
1.00469
1.00511
1.00554
1.00601
1.00652
1.00702
1.00752
1.00801
1.00852
1.00899
1.00945
1.00968
1.00971
1.00941
1.00898
1.00804
1.0063
1.00412
1.00152
1.01055
1.01282
1.01277
1.01129
1.00998
1.00861
1.00722
1.00638
1.00582
1.0053
1.00506
1.00509
1.00538
1.00574
1.00615
1.00658
1.00703
1.00753
1.00808
1.00862
1.00905
1.00957
1.01022
1.01108
1.01182
1.01255
1.01324
1.0139
1.01451
1.01505
1.0155
1.01584
1.01606
1.01617
1.01616
1.01606
1.01589
1.01566
1.01537
1.01502
1.01462
1.01419
1.01375
1.0133
1.01288
1.01249
1.01212
1.01177
1.01142
1.01107
1.01073
1.01043
1.01019
1.01004
1.00998
1.00994
1.00987
1.00975
1.00962
1.0095
1.00941
1.00929
1.00909
1.00884
1.0086
1.00839
1.00821
1.00804
1.00793
1.00783
1.00777
1.00768
1.00748
1.00722
1.00683
1.00631
1.0054
1.00406
1.00259
1.0011
1.01631
1.0248
1.02834
1.02868
1.02836
1.02721
1.0262
1.02543
1.02473
1.02419
1.02372
1.02338
1.02312
1.02297
1.02291
1.02291
1.02298
1.0231
1.0233
1.02353
1.02376
1.02405
1.02438
1.0247
1.02501
1.02527
1.0255
1.02568
1.02582
1.02589
1.02591
1.02586
1.02575
1.02559
1.02539
1.02515
1.02489
1.02461
1.02431
1.02399
1.02365
1.0233
1.02295
1.02261
1.0223
1.02201
1.02172
1.02141
1.02107
1.02068
1.02025
1.0198
1.01934
1.01889
1.01844
1.01792
1.0173
1.01657
1.01579
1.015
1.01421
1.01339
1.01249
1.01152
1.01059
1.00975
1.00896
1.00823
1.00754
1.00694
1.00633
1.00582
1.00557
1.00514
1.00462
1.00394
1.00313
1.00214
1.00132
1.00084
1.01821
1.02613
1.03086
1.03193
1.03228
1.03263
1.03312
1.0336
1.03417
1.03466
1.03493
1.03469
1.03426
1.03383
1.03339
1.03295
1.03252
1.03212
1.03175
1.03145
1.03113
1.0309
1.03069
1.0305
1.03028
1.03003
1.02977
1.0295
1.02915
1.02871
1.02831
1.0279
1.02753
1.02719
1.02689
1.02662
1.02637
1.02614
1.02593
1.02572
1.02549
1.02525
1.02501
1.02478
1.02457
1.02435
1.02408
1.02372
1.02327
1.02274
1.02207
1.02128
1.02024
1.01909
1.01765
1.01593
1.01398
1.01186
1.00969
1.00754
1.00557
1.00506
1.00453
1.00403
1.0036
1.00321
1.00274
1.00211
1.0014
1.00062
1
1
1
1
1
1
1
1
1
1.00132
0.990271
0.98287
0.981151
0.981159
0.982821
0.986104
0.990253
0.994096
0.997571
0.999679
1.00579
1.00877
1.00934
1.00952
1.00964
1.0098
1.00989
1.00992
1.00992
1.00989
1.00946
1.00855
1.00762
1.00666
1.00572
1.00481
1.00396
1.00303
1.00182
1.00166
1.00157
1.00148
1.0014
1.00131
1.00123
1.00114
1.00106
1.00097
1.00088
1.00078
1.00069
1.00059
1.0005
1.0004
1.0003
1.00021
0.999836
0.998828
0.99729
0.995655
0.993966
0.99224
0.985653
0.977032
0.968067
0.958866
0.94949
0.940127
0.931008
0.922303
0.911138
0.897552
0.885093
0.874108
0.864848
0.857359
0.851656
0.847896
0.846154
0.846317
0.848185
0.851531
0.856644
0.863938
0.873999
0.886069
0.899891
0.914253
0.929666
0.958308
0.18611
0.250975
0.278538
0.292886
0.30977
0.332543
0.361337
0.394492
0.428661
0.461776
0.484293
0.504313
0.520252
0.52925
0.531538
0.527819
0.518867
0.505333
0.488259
0.46854
0.447172
0.425215
0.402638
0.380311
0.359007
0.339158
0.320989
0.304843
0.290815
0.277804
0.266572
0.257111
0.249187
0.242579
0.237086
0.232494
0.228481
0.224883
0.221429
0.21788
0.214027
0.209677
0.204614
0.198654
0.191608
0.183414
0.174192
0.164347
0.153611
0.141595
0.128323
0.113817
0.103272
0.0938285
0.0842228
0.0745938
0.0650922
0.0558455
0.0469327
0.0384741
0.0334052
0.0305096
0.0280003
0.0258998
0.0240888
0.0225015
0.0211156
0.0198625
0.0186444
0.0174548
0.0164018
0.0155411
0.0149228
0.0149494
0.0155972
0.017158
0.0197722
0.023025
0.0253091
0.016923
2.10914e-06
2.12032e-06
2.13643e-06
2.15874e-06
2.18277e-06
2.20818e-06
2.23788e-06
2.27149e-06
2.3085e-06
2.37507e-06
0.00205637
0.00374431
0.00488838
0.00569167
0.00608867
0.00577996
0.00502737
0.00412916
0.00303157
0.00184749
0.000996256
0.000245893
7.6532e-06
5.11337e-06
4.78689e-06
4.3949e-06
3.97191e-06
3.53653e-06
3.11581e-06
2.73499e-06
2.39695e-06
2.10978e-06
1.91361e-06
2.02592e-06
2.47756e-06
3.17151e-06
3.79936e-06
4.37521e-06
4.81784e-06
5.18057e-06
5.42656e-06
5.56785e-06
5.5734e-06
5.33948e-06
4.96668e-06
4.75455e-06
2.80562e-05
1.40982e-08
1.2693e-08
1.15733e-08
1.04755e-08
9.28266e-09
8.00657e-09
6.71558e-09
5.36271e-09
4.0268e-09
2.98978e-09
2.41452e-09
2.14759e-09
2.02618e-09
2.01939e-09
2.02618e-09
1.96025e-09
1.83981e-09
1.72094e-09
1.60555e-09
1.478e-09
1.34254e-09
1.203e-09
1.05454e-09
9.19423e-10
8.02875e-10
6.84191e-10
5.66962e-10
4.41878e-10
3.04981e-10
1.56268e-10
6.74893e-11
6.09882e-11
5.84851e-11
2.10442e-06
5.76758e-06
9.03684e-06
9.08448e-06
9.95361e-06
1.1104e-05
1.25212e-05
1.2638e-05
1.21371e-05
6.46884e-06
4.94858e-06
6.88791e-06
3.93562e-06
1.63329e-06
1.33418e-06
1.09024e-06
8.46487e-07
7.34231e-07
6.45894e-07
5.97251e-07
5.90438e-07
5.82064e-07
6.43364e-07
6.37765e-07
6.09463e-07
5.75068e-07
5.35839e-07
4.9614e-07
4.61205e-07
4.3353e-07
4.0566e-07
3.80148e-07
3.62059e-07
3.5354e-07
8.18291e-07
1.80973e-06
2.70238e-06
3.50943e-06
4.15246e-06
4.68735e-06
5.07846e-06
5.33852e-06
5.43683e-06
5.36672e-06
5.12777e-06
4.75126e-06
4.26872e-06
3.75296e-06
3.30374e-06
2.833e-06
2.41762e-06
2.0618e-06
1.7683e-06
1.49126e-06
1.31067e-06
1.32621e-06
1.07864e-06
6.64618e-07
3.04792e-07
2.00767e-07
7.37592e-08
5.48764e-08
1.04129e-07
1.21113e-07
9.56188e-08
8.28399e-08
7.70311e-08
7.31918e-08
6.40877e-08
6.44625e-08
6.00226e-08
4.96326e-08
4.76878e-08
5.07333e-08
5.2101e-08
6.25834e-08
7.8403e-08
7.84071e-08
7.19199e-09
5.5666e-11
1.66203e-12
1.73151e-07
3.8181e-07
3.46851e-07
2.17936e-07
1.90165e-07
2.52656e-07
5.15391e-07
6.62496e-07
1.09174e-06
1.26992e-06
2.2066e-06
5.38127e-06
1.8629e-06
1.34049e-06
1.21334e-06
7.97685e-07
6.7149e-07
5.77695e-07
5.34238e-07
5.36874e-07
5.40327e-07
6.08024e-07
6.01052e-07
5.7475e-07
5.43006e-07
5.07372e-07
4.71691e-07
4.40491e-07
4.15795e-07
3.91296e-07
3.68629e-07
3.49137e-07
3.31285e-07
3.15587e-07
3.01482e-07
2.8866e-07
2.7498e-07
2.61069e-07
2.4551e-07
2.29768e-07
2.12367e-07
1.93912e-07
1.74054e-07
1.53659e-07
1.32995e-07
1.13652e-07
9.33997e-08
7.54947e-08
5.78539e-08
4.38038e-08
3.33741e-08
2.43826e-08
1.64503e-08
3.36513e-09
8.30453e-09
1.49191e-19
2.21427e-09
1.50624e-09
1.08894e-18
2.02968e-18
8.77579e-17
1.73208e-16
4.08272e-10
1.16457e-13
1.26415e-13
1.33881e-13
1.37563e-13
1.42528e-13
1.22936e-10
1.59958e-16
1.48434e-16
1.48434e-16
1.48312e-16
1.62874e-16
3.57309e-16
6.99435e-16
1.18162e-15
3.07162e-15
5.56999e-11
8.15363e-13
3.73273e-13
2.57331e-13
1.52732e-09
4.08133e-09
5.24313e-09
5.77706e-09
6.703e-09
7.72327e-09
3.70973e-13
9.53703e-10
1.28304e-07
3.3237e-07
1.06916e-07
2.69135e-08
2.50867e-08
2.6691e-08
1.93509e-08
1.38539e-08
1.10722e-08
1.01722e-08
7.8793e-09
8.48256e-09
7.66675e-09
6.66343e-09
5.71078e-09
5.00629e-09
4.07639e-09
3.4949e-09
3.16544e-09
2.63961e-09
2.42536e-09
1.84384e-09
1.6189e-09
1.27249e-09
1.31298e-09
1.45881e-09
1.58955e-09
1.68569e-09
1.75867e-09
1.80168e-09
1.8032e-09
1.74325e-09
1.63041e-09
1.48571e-09
1.30134e-09
1.13713e-09
6.97084e-10
5.041e-10
2.67083e-10
7.77777e-11
2.13581e-18
4.08693e-12
1.23398e-11
5.21502e-23
1.41421e-19
1.55947e-20
1.2653e-20
1.55947e-20
4.27509e-19
1.95015e-18
4.44562e-15
5.38845e-14
5.38744e-14
1.15362e-13
1.20405e-12
1.23107e-12
8.02795e-13
5.24258e-13
1.23833e-14
1.23418e-14
1.71102e-16
1.51959e-16
8.92386e-15
1.41915e-13
1.90403e-13
1.78132e-14
2.10475e-13
9.63469e-12
4.5492e-11
2.29751e-12
4.1659e-13
2.59457e-13
7.48006e-16
4.97708e-17
3.28415e-16
3.42035e-14
2.87238e-15
1.24176e-17
8.60228e-16
1.08713e-10
1.12618e-09
2.51797e-09
1.42782e-09
3.3936e-11
3.21324e-18
1.97583e-15
2.4359e-14
8.15921e-14
1.3955e-13
1.24175e-13
3.88899e-14
3.18319e-14
3.92809e-14
4.09205e-14
3.93919e-14
4.07345e-14
4.041e-14
3.01784e-14
1.49361e-14
1.07713e-14
1.89597e-14
1.99945e-14
1.60665e-14
1.26533e-14
9.58784e-15
7.23913e-15
5.40829e-15
3.84443e-15
2.59225e-15
1.7044e-15
1.03545e-15
5.33879e-16
1.99302e-16
3.69808e-19
3.3057e-20
1.18525e-21
2.69592e-22
2.44639e-23
3.8879e-24
3.78203e-24
5.97126e-23
2.364e-22
5.21502e-23
5.21502e-23
5.06892e-17
5.22971e-18
9.72491e-21
3.56435e-17
8.8289e-16
1.26639e-16
1.0422e-14
6.76889e-14
9.73269e-14
2.26056e-13
3.4788e-13
2.73271e-13
1.76906e-13
1.2687e-13
4.8351e-14
2.13951e-14
4.31386e-16
1.94043e-16
1.08911e-14
1.04471e-13
1.5268e-13
9.04867e-15
2.27823e-13
4.54016e-12
1.79034e-11
4.77076e-12
1.80924e-12
5.01383e-14
1.41925e-15
4.41852e-17
1.25085e-18
3.92583e-17
6.6816e-18
9.55816e-18
9.95705e-16
7.80815e-14
-2.45135e-14
5.04871e-29
8.02352e-18
3.10581e-18
8.34996e-19
1.49399e-18
4.02775e-17
2.21352e-16
3.97379e-16
3.95337e-16
1.3189e-16
1.45365e-16
1.30304e-16
1.80546e-16
1.9134e-16
2.05164e-16
1.75348e-16
1.6779e-16
1.02589e-16
6.85283e-17
1.10276e-16
9.13377e-17
6.52364e-17
4.79431e-17
3.31771e-17
2.29291e-17
1.52975e-17
9.59367e-18
6.26996e-18
4.67286e-18
4.91353e-18
5.89437e-18
5.31854e-19
1.78955e-19
1.73071e-21
4.77224e-22
4.35512e-22
4.27032e-23
3.78203e-24
3.64471e-24
1.15549e-22
1.84444e-21
4.98216e-22
4.44376e-19
7.60482e-18
9.72477e-20
3.39621e-21
7.84095e-21
5.74412e-21
2.84384e-20
8.65241e-18
8.51399e-16
1.47226e-14
3.95679e-14
2.51637e-14
1.7585e-14
9.48198e-15
6.046e-15
3.22382e-15
5.68245e-16
9.70167e-18
3.27061e-16
1.32287e-14
4.66745e-14
2.89384e-14
3.14469e-15
3.53514e-16
1.1571e-13
1.05182e-12
4.80563e-12
2.41861e-12
1.15486e-13
8.49327e-16
1.08728e-16
1.01839e-18
1.77551e-17
6.66969e-18
2.21043e-17
3.52561e-18
6.72061e-17
1.73416e-16
1.44419e-19
1.59772e-17
6.35815e-19
8.3241e-19
1.53735e-18
5.24941e-18
1.11105e-17
4.08365e-18
2.48685e-18
5.05655e-18
1.22242e-17
1.01117e-17
1.18641e-17
1.25516e-17
1.09751e-17
8.5297e-18
6.68427e-18
5.17755e-18
3.87294e-18
2.78616e-18
2.01942e-18
1.39023e-18
9.77565e-19
6.08811e-19
3.66375e-19
2.1745e-19
6.04851e-19
1.48787e-18
2.49835e-18
4.07312e-18
5.6806e-18
7.18439e-18
8.31285e-18
8.72834e-18
4.98013e-18
9.01278e-19
3.92947e-20
1.55929e-22
2.28641e-24
6.08826e-24
1.17409e-23
1.13019e-23
1.81523e-21
1.81675e-21
1.53158e-22
3.10177e-24
2.16852e-23
4.41191e-24
1.7223e-22
2.25746e-20
3.56131e-18
1.06858e-16
4.98324e-16
4.54736e-16
3.42095e-16
1.72137e-16
8.59098e-17
2.80175e-17
2.57189e-18
2.80422e-20
1.14058e-17
2.49689e-15
6.53569e-15
1.91925e-15
2.22885e-16
8.74041e-18
3.1483e-18
5.15488e-17
4.39989e-12
2.69308e-12
3.29089e-13
3.25195e-15
8.77099e-18
3.72685e-20
5.22733e-19
1.11406e-19
1.99392e-19
2.68805e-19
6.1209e-19
1.41823e-19
1.32581e-19
1.60209e-19
2.82389e-19
2.86068e-19
2.55927e-19
1.50932e-19
6.36056e-20
1.89799e-20
1.77351e-20
2.49311e-20
5.01186e-20
2.92974e-20
3.18658e-20
3.37089e-20
3.09231e-20
2.39984e-20
1.90361e-20
1.46757e-20
1.08262e-20
7.7703e-21
5.64147e-21
3.55689e-21
2.20467e-21
1.16684e-21
5.82757e-22
2.60637e-22
1.34225e-21
4.20044e-21
1.10178e-20
2.01624e-20
2.59701e-20
3.59288e-20
5.36732e-20
6.25589e-20
4.02327e-20
6.46799e-21
2.01774e-22
2.90239e-26
3.73092e-31
5.36167e-27
1.17299e-26
1.62085e-26
8.52463e-27
8.64728e-27
7.97986e-27
1.20197e-26
1.75062e-26
3.22312e-26
3.79094e-25
2.81255e-23
1.8819e-21
1.11101e-19
1.05976e-18
3.47963e-18
3.82598e-18
1.77377e-18
6.68014e-19
1.9575e-19
2.61991e-20
5.42102e-22
4.24752e-21
3.95503e-17
8.85309e-17
2.30485e-17
1.35311e-18
1.70437e-20
2.07705e-22
4.64463e-25
1.88502e-12
4.23737e-13
4.20109e-14
1.93935e-16
2.96406e-19
3.38878e-22
3.01595e-21
7.47703e-22
4.17235e-22
6.2574e-22
1.96426e-21
1.82605e-21
9.38211e-22
1.09869e-21
2.06658e-21
1.27309e-21
3.58816e-21
8.97159e-22
1.94536e-22
6.19507e-23
3.62468e-23
2.86857e-23
6.96242e-23
8.36361e-23
1.11265e-22
1.21867e-22
1.09974e-22
8.21963e-23
6.00445e-23
4.21212e-23
2.88532e-23
1.89057e-23
1.17566e-23
6.23135e-24
3.22751e-24
1.3506e-24
5.12534e-25
1.71961e-25
7.36011e-26
5.63277e-26
1.98107e-24
2.76611e-23
7.62278e-23
1.50976e-22
2.74127e-22
3.1167e-22
1.9806e-22
3.85241e-23
3.24501e-25
5.99109e-30
-1.23308e-27
-6.52436e-29
1.24246e-28
1.948e-28
1.50323e-28
4.48369e-28
3.13766e-27
5.03026e-27
4.5634e-27
6.59807e-27
3.93089e-28
3.17372e-26
2.04875e-24
6.48061e-22
6.82066e-21
2.35491e-20
3.88874e-20
1.33065e-20
3.17807e-21
1.55322e-21
3.27154e-22
9.33775e-24
3.74658e-24
4.37107e-20
1.29822e-19
8.20467e-20
8.5879e-21
9.77284e-23
3.66889e-24
4.62896e-25
1.17966e-13
6.27789e-15
5.14728e-16
3.59239e-18
3.80299e-21
7.6835e-24
2.30764e-23
6.50961e-24
2.63204e-24
2.52919e-24
2.97612e-24
1.5268e-24
1.06168e-24
1.23925e-24
1.78128e-24
1.73039e-24
1.8883e-24
8.07649e-25
4.14882e-25
2.33257e-25
1.65025e-25
1.58153e-25
2.12007e-25
2.32166e-25
2.80769e-25
2.90661e-25
2.5564e-25
1.8152e-25
1.28907e-25
9.09306e-26
6.241e-26
4.14779e-26
2.559e-26
1.24374e-26
5.65118e-27
1.83131e-27
4.77629e-28
1.01903e-28
-1.79465e-43
-3.12496e-26
-2.79071e-29
1.26943e-26
2.54558e-25
6.04673e-25
1.08048e-24
8.78789e-25
6.86361e-27
7.00649e-46
-1.23971e-26
-4.21444e-27
-2.83985e-28
9.21862e-31
6.67083e-30
1.07645e-29
1.10276e-29
3.71887e-29
2.51112e-28
4.3545e-28
3.79309e-28
5.20346e-28
1.40754e-28
1.23887e-28
6.77746e-28
1.90997e-24
1.32003e-22
3.03137e-22
5.19494e-22
1.32363e-22
1.38854e-23
1.87336e-23
5.27496e-24
1.74197e-25
6.75273e-26
1.45724e-22
6.85487e-22
5.6499e-22
6.6489e-23
5.61529e-25
5.14722e-26
1.36388e-26
5.16235e-16
1.55865e-17
1.18281e-18
1.8199e-20
5.88839e-23
3.58921e-25
2.93897e-25
5.27745e-26
2.96055e-26
1.63735e-26
1.51831e-26
1.07502e-26
5.87089e-27
6.07546e-27
8.8197e-27
1.14052e-26
1.03532e-26
6.88236e-27
3.89471e-27
1.82476e-27
8.06138e-28
3.73258e-28
4.5029e-28
5.39719e-28
8.29012e-28
1.01564e-27
9.39014e-28
6.74359e-28
4.61128e-28
3.1086e-28
2.03084e-28
1.24648e-28
6.66165e-29
2.69481e-29
9.15192e-30
2.43429e-30
1.15145e-30
7.02109e-46
-7.06685e-29
-4.5757e-27
-5.87106e-26
-6.31358e-29
-9.62467e-32
4.07483e-28
9.83572e-28
4.51049e-28
-6.06315e-26
-1.54661e-26
-1.6852e-27
-1.31234e-28
-7.86414e-30
-8.23468e-32
3.20383e-31
5.8854e-31
6.61851e-31
1.95734e-30
1.0821e-29
1.84652e-29
1.70565e-29
2.61621e-29
1.65533e-29
2.83755e-31
5.98833e-30
2.17097e-26
2.55953e-24
4.80619e-24
8.41455e-24
2.08196e-24
1.40689e-25
2.96577e-25
8.39357e-26
3.00709e-27
1.20966e-27
2.17871e-24
7.76088e-24
5.0667e-24
3.80748e-25
2.46129e-27
1.87473e-27
8.67653e-28
1.26995e-18
1.10717e-19
1.25531e-20
4.16692e-22
1.49455e-24
8.87655e-27
4.66169e-27
6.47793e-28
4.25745e-28
2.22489e-28
2.04985e-28
1.32149e-28
8.12818e-29
8.96762e-29
1.31375e-28
1.64529e-28
1.43959e-28
9.77862e-29
5.63973e-29
2.6421e-29
1.05928e-29
4.27301e-30
3.09415e-30
3.1473e-30
3.75968e-30
3.9555e-30
3.49068e-30
2.58036e-30
1.85768e-30
1.3385e-30
9.07162e-31
5.85097e-31
3.58943e-31
2.08417e-31
1.25241e-31
7.20912e-32
5.29257e-32
4.46634e-32
-1.57353e-30
-9.61538e-29
-1.33957e-27
-4.70385e-28
-4.98193e-29
-7.1144e-32
8.89683e-32
3.78294e-34
-1.94305e-27
-4.59044e-28
-5.14822e-29
-3.23475e-30
-1.05511e-31
9.67746e-33
1.5659e-32
3.24316e-32
4.17883e-32
1.25891e-31
6.66011e-31
1.13305e-30
9.79574e-31
1.42221e-30
1.12758e-30
2.80307e-32
7.29524e-32
3.39508e-28
4.23109e-26
7.41923e-26
1.34102e-25
3.61103e-26
2.31241e-27
4.96947e-27
1.43047e-27
5.34582e-29
2.15689e-29
3.58543e-26
1.00428e-25
4.96822e-26
2.21248e-27
2.29224e-29
1.14069e-28
5.45861e-29
1.7017e-20
6.40021e-22
2.06392e-22
5.85261e-24
2.38749e-26
4.18732e-28
8.60495e-29
6.49064e-30
6.89681e-30
3.72989e-30
3.36746e-30
2.25478e-30
1.39205e-30
1.49566e-30
2.16858e-30
2.74011e-30
2.40374e-30
1.67088e-30
9.93017e-31
4.87944e-31
2.16699e-31
1.07331e-31
7.85756e-32
7.21044e-32
6.75078e-32
6.06682e-32
5.22357e-32
4.37319e-32
3.68679e-32
3.03007e-32
2.26683e-32
1.56995e-32
1.02342e-32
7.74872e-33
6.90284e-33
1.1653e-32
3.09881e-32
6.41618e-32
1.65744e-32
-2.05395e-30
-2.74488e-29
-1.07896e-29
-1.16379e-30
-9.73414e-34
8.42414e-34
-3.91199e-32
-4.07392e-29
-1.04024e-29
-1.40054e-30
-1.21859e-31
-3.60621e-33
5.97888e-34
8.07667e-34
1.84707e-33
2.79828e-33
8.94186e-33
4.54681e-32
8.14391e-32
6.66327e-32
9.05405e-32
7.29501e-32
3.24033e-33
8.30178e-34
4.43844e-30
6.72997e-28
1.18797e-27
2.15088e-27
6.31773e-28
4.1802e-29
8.4705e-29
2.39542e-29
9.50005e-31
4.17952e-31
5.63894e-28
1.44045e-27
5.5445e-28
1.74752e-29
9.76493e-31
8.14464e-30
3.82892e-30
2.69504e-22
1.71057e-23
3.31773e-24
8.95037e-26
4.7835e-28
2.33751e-29
2.11136e-30
1.11471e-31
1.29095e-31
7.43514e-32
6.48131e-32
4.52813e-32
2.85139e-32
2.90843e-32
4.03182e-32
4.91038e-32
4.3109e-32
3.17255e-32
2.04086e-32
1.14381e-32
6.51488e-33
4.53111e-33
3.93983e-33
3.68539e-33
3.3071e-33
2.82387e-33
2.36821e-33
2.0013e-33
1.70731e-33
1.37438e-33
1.03697e-33
8.22644e-34
1.20379e-33
1.30264e-33
5.43842e-33
4.37438e-32
3.32076e-31
1.11216e-30
1.72417e-30
1.63966e-30
1.03252e-30
1.40446e-30
6.62734e-31
6.52122e-32
1.26568e-33
-1.55249e-33
-8.45088e-31
-2.05979e-31
-2.32561e-32
-2.03533e-33
-1.03621e-37
4.03209e-35
4.52804e-35
1.05747e-34
1.8051e-34
6.1888e-34
3.16674e-33
5.9337e-33
4.76066e-33
6.25023e-33
5.07881e-33
1.59374e-33
2.05901e-35
5.32636e-32
1.13744e-29
2.06851e-29
3.67111e-29
1.1647e-29
7.87571e-31
1.43816e-30
4.07366e-31
1.92997e-32
1.30735e-32
9.17209e-30
2.23621e-29
6.89831e-30
1.67327e-31
7.09294e-32
6.08595e-31
2.81797e-31
4.52912e-24
2.64602e-25
5.6895e-26
1.09534e-27
1.33281e-29
1.35759e-30
6.9554e-32
3.15152e-33
2.95502e-33
1.74975e-33
1.4452e-33
1.13861e-33
7.51402e-34
6.79118e-34
8.7646e-34
1.03423e-33
9.42428e-34
7.87205e-34
5.7726e-34
3.8873e-34
2.85502e-34
2.45116e-34
2.30987e-34
2.21276e-34
2.00867e-34
1.70118e-34
1.39181e-34
1.12739e-34
1.00122e-34
1.09423e-34
1.25403e-34
3.15595e-34
1.58415e-33
9.53974e-33
7.88062e-32
9.3773e-31
7.97989e-30
2.72866e-29
4.24156e-29
4.36164e-29
5.01572e-29
4.68427e-29
1.89348e-29
1.71748e-30
3.22697e-32
2.7178e-34
-1.33732e-32
-3.1917e-33
-3.75011e-34
-2.59273e-35
3.03345e-36
2.4175e-36
2.63284e-36
6.08721e-36
1.08828e-35
3.9376e-35
2.16335e-34
4.29243e-34
3.4862e-34
4.54289e-34
3.65531e-34
1.22867e-34
1.47831e-36
1.02966e-33
1.98839e-31
3.79211e-31
6.5864e-31
2.21746e-31
1.51952e-32
2.43149e-32
6.94165e-33
5.37921e-34
6.73828e-34
1.48897e-31
3.65393e-31
9.91829e-32
2.18353e-33
5.74299e-33
4.7933e-32
2.13782e-32
9.37574e-26
5.67003e-27
1.19717e-27
2.97557e-29
5.82828e-31
8.845e-32
3.69964e-33
1.55587e-34
9.47811e-35
5.79737e-35
4.34056e-35
4.19049e-35
2.97565e-35
2.29847e-35
2.70885e-35
2.98936e-35
2.88531e-35
2.89678e-35
2.44797e-35
1.90171e-35
1.63018e-35
1.55231e-35
1.51697e-35
1.4679e-35
1.2934e-35
1.13805e-35
9.76062e-36
1.1381e-35
2.0324e-35
1.05798e-34
5.06634e-34
3.41145e-33
2.43073e-32
1.77988e-31
1.57895e-30
2.02159e-29