/*--------------------------------*- C++ -*----------------------------------*\
| =========                 |                                                 |
| \\      /  F ield         | OpenFOAM: The Open Source CFD Toolbox           |
|  \\    /   O peration     | Version:  2412                                  |
|   \\  /    A nd           | Website:  www.openfoam.com                      |
|    \\/     M anipulation  |                                                 |
\*---------------------------------------------------------------------------*/
FoamFile
{
    version     2.0;
    format      ascii;
    arch        "LSB;label=32;scalar=64";
    class       volScalarField;
    location    "58";
    object      p;
}
// * * * * * * * * * * * * * * * * * * * * * * * * * * * * * * * * * * * * * //

dimensions      [1 -1 -2 0 0 0 0];

internalField   nonuniform List<scalar> 
6400
(
20519.1
20829.5
21372.1
22007.4
22585.1
23055.9
23388.3
23575.4
23634
23589.1
23485.2
23336.1
23189.7
23100.3
23125.3
23274
23554.4
23969.2
24542.4
25282.8
26196.3
27270
28493.6
29848.6
31324.6
32909.2
34597.5
36382.4
38259.4
40215.5
42234
44289.9
46359.3
48416.9
50443.2
52423.6
54342.8
56188.5
57954.4
59623.6
61183.4
62633.5
63966.9
65166.6
66224.7
67136.4
67896.9
68502.3
68951.6
69244.8
69384.1
69370.3
69206.3
68895.3
68442
67849.1
67124.8
66277.2
65318.5
64258.8
63116.9
61910.1
60662.8
59392.5
58119.6
56854.9
55612.6
54396.8
53212.1
52055.5
50926.1
49818.9
48734.8
47678.8
46664.7
45711.8
44849.6
44127.2
43618.4
43369.6
18993.7
19272
19725.3
20279.2
20806.5
21253.8
21578.5
21809.3
21940.1
21995.7
21988.2
21956.3
21928.3
21966.6
22094.9
22334.6
22677.6
23145.6
23751.3
24518.9
25443.2
26522.4
27739.1
29087.8
30554.3
32134
33814.4
35590.3
37450
39384.3
41373.7
43398
45431.8
47454.2
49443.8
51385.7
53266
55072.9
56795
58422.6
59943.8
61354.5
62647.2
63809.2
64832.4
65710.1
66438.1
67014.3
67436.9
67707
67825.3
67793.8
67613
67290.3
66826.6
66226.7
65495.3
64645.9
63684.3
62624.5
61479.3
60271.9
59018.7
57743.5
56459.3
55185.2
53927.3
52697.3
51497.1
50331.4
49195.1
48087.5
47007.8
45965.2
44974
44055.7
43243
42584.7
42132
41897.6
17256.7
17575.4
18012.3
18515.8
19014.4
19454.7
19799.1
20066.2
20267.7
20402.9
20500.5
20572.4
20664.7
20806
21033.9
21345.2
21755.1
22270.4
22923.3
23721.8
24674.2
25761.6
26979.2
28314.1
29766.7
31326.5
32989.9
34742.8
36576.6
38474.8
40423.5
42400.9
44387.3
46360
48301.3
50192.5
52023.6
53781.2
55451.6
57028.9
58509.5
59877.2
61120.9
62236.9
63222.9
64068.2
64764.3
65308.4
65703.8
65950.3
66048
65995.3
65797.5
65459.3
64982.8
64369.6
63632.6
62779
61816.5
60750.4
59603.1
58390.6
57136.6
55855.8
54569.4
53287.1
52023.3
50783.9
49580.1
48412.4
47282.1
46185.2
45123.6
44103.8
43138.8
42252.3
41481.3
40873.2
40445.8
40195.6
15432.8
15832.1
16315.1
16840.3
17352.7
17817.2
18186.8
18493.8
18736.1
18938
19106.8
19268.4
19435.5
19648.4
19923.4
20286.6
20740.5
21311
22006.6
22844.6
23811.9
24903
26102.4
27414
28832.8
30361.9
31990.1
33709.6
35502.2
37355.9
39251.4
41173.9
43101.6
45017.1
46900.8
48737
50511.8
52216
53836.5
55367.6
56805.1
58132.5
59333.8
60408.1
61353.2
62163.9
62828.7
63346
63714.7
63935
64004.1
63926.8
63707.8
63351.7
62858.5
62238.3
61497.1
60643.9
59678.3
58614.8
57469.8
56266.9
55021.5
53755
52478.1
51207.2
49950.3
48721.9
47528.9
46378.3
45269.2
44200.8
43173.4
42188.4
41254.6
40391.4
39644
39051.6
38612.4
38312.5
13679.6
14175.7
14711.1
15265.9
15814.4
16310.3
16708.3
17038.9
17322.6
17569.9
17799.2
18013.4
18240.9
18495.4
18813.4
19207.1
19703
20305.3
21034.1
21883
22854.1
23930.3
25111.8
26391.4
27776.9
29261.7
30845
32511.3
34250.2
36042
37874.1
39727
41585.2
43429.2
45245.5
47016.3
48729.1
50372.7
51940.3
53422.9
54811.2
56092.3
57257.4
58300.1
59211.6
59985.3
60619.1
61108.1
61449.6
61641.4
61685.1
61583.8
61345.8
60969
60461.6
59831
59085
58223.3
57256.7
56197.3
55066.1
53878.5
52657.1
51413.9
50165.4
48919.5
47691
46489.3
45326.7
44207.7
43133.6
42105.3
41121.8
40184.6
39291.5
38463.3
37732.5
37139
36662.8
36299
12085.7
12666.3
13265.1
13840.4
14409.7
14927.8
15344.5
15697.7
16004.9
16286.8
16541.2
16791.3
17051.8
17352.2
17702
18129.2
18641.2
19261.6
19991.5
20840.2
21795.3
22856.9
24012.1
25265.5
26609.9
28049.9
29574.9
31180.3
32848.2
34567.4
36319.8
38093.3
39868
41631.3
43367.5
45063.9
46704.8
48282.3
49787.6
51213.1
52545.5
53777.1
54901
55910
56789.4
57532.5
58136.5
58595.9
58906.9
59074.1
59096
58976.3
58717.4
58326.2
57804.7
57163.1
56405
55538.6
54571.5
53523
52405.2
51241.8
50047.6
48840.6
47628.4
46424
45235.8
44077.5
42958.5
41884.3
40858.2
39880.4
38954.3
38070.5
37230.3
36439.3
35731.4
35124.2
34611
34184.6
10727.3
11373.4
12009.6
12590.7
13159.6
13683.5
14107.7
14457.7
14768.5
15053.9
15322.2
15584.5
15873.6
16199.3
16581.9
17025
17551.9
18167.3
18891.2
19719.5
20658.9
21694
22825.7
24043.6
25350.1
26734.9
28199.1
29730
31320.5
32953.6
34619.7
36300.2
37985.2
39658.1
41307.1
42915.9
44475.4
45975.2
47407.6
48763.1
50032.9
51208.6
52284
53247.3
54088.7
54799.2
55374.3
55807
56096.3
56241.1
56244.3
56105.2
55829.8
55423.8
54896
54246.2
53483.8
52614.6
51654.4
50613.1
49513.3
48371.7
47210.7
46040.9
44875.8
43722
42591.5
41493.4
40434
39417.3
38444.2
37523.6
36653.3
35834
35049.5
34308.3
33622.3
33011.7
32467.2
32003.1
9603.18
10282.6
10944.8
11511.7
12061.2
12569.7
12991.6
13327.7
13620.1
13892.2
14147.1
14410.5
14701.8
15042.3
15432.5
15890.6
16418.5
17036.4
17746.1
18560.5
19468.6
20473.5
21562.5
22738.7
23990
25316.8
26708.5
28162.6
29664
31205.8
32774.4
34359.6
35944.1
37519.3
39070
40584.4
42051.2
43463.7
44812.3
46090.6
47289.4
48402.5
49421.1
50334.4
51132
51806.1
52348.7
52756.3
53023.1
53147.6
53130.4
52976.3
52686.8
52271.1
51734.8
51084.6
50321.5
49458.8
48505.6
47481.1
46401.7
45292.1
44167.2
43043.6
41928.7
40834
39768.9
38741.7
37756.1
36808.2
35903.4
35042
34236.7
33476.1
32758.7
32064.2
31416
30808.7
30261.8
29784.4
8705.38
9396.87
10060
10606.7
11114
11590.4
12004.3
12322.6
12590.3
12830.2
13058.9
13297.8
13576.8
13901.8
14286
14731.5
15255.8
15861.1
16560.1
17345.8
18224.4
19183.5
20227.3
21343.4
22534.5
23787.2
25104.6
26472.6
27885.6
29328.4
30797.2
32277.5
33757.7
35224.2
36667.9
38076.1
39442.2
40756.5
42013.6
43205.6
44327
45369
46324.7
47182.1
47932.4
48565.2
49074.5
49453
49696.6
49800.3
49767.6
49600.4
49305.4
48885.4
48348.9
47699.2
46945.8
46093.2
45157.9
44154.2
43107.1
42034.6
40957.5
39885.6
38830.5
37801.1
36808.1
35859.1
34950.5
34081.7
33246.2
32458.2
31716
31028.3
30370.2
29735.4
29121.8
28544.7
28013.1
27553.5
8025.65
8699.02
9350.7
9858.59
10321.6
10746.2
11145.4
11449.9
11694.3
11894.8
12074.4
12272.2
12510
12799.5
13142.8
13557.7
14049.4
14633.8
15303.1
16062
16897.1
17812.7
18798.1
19857.8
20977
22158
23389.2
24669.2
25982.7
27325.6
28683.3
30050.8
31413.9
32764.5
34089.5
35384
36639.2
37850
39008.7
40111
41149.2
42117.3
43005.3
43804.4
44503.2
45093.6
45565.8
45914.4
46132.3
46219
46173.1
45999.2
45699.9
45283.9
44753.5
44116.1
43375.4
42544.4
41632.9
40663.2
39654.3
38630.9
37607
36596.1
35605.7
34647.5
33732.9
32864.5
32042.3
31252.8
30501.4
29786.2
29126
28505.1
27917.9
27329.7
26767
26224
25736
25298.5
7542.05
8188.15
8796.44
9260.17
9663.49
10020.8
10376.1
10663.5
10882.2
11043.6
11174
11312.8
11487.9
11708.6
11993
12349.2
12796.5
13333.5
13967.6
14686.1
15486.4
16350
17283
18275.9
19328.1
20427.3
21572.6
22751.7
23962.4
25191.2
26432.9
27674.5
28913.3
30136.6
31338.9
32512.3
33653.4
34754.9
35813.2
36821.4
37774.7
38664.7
39483.8
40220.8
40867
41411.3
41846.2
42162.9
42358
42427.1
42372.5
42194.2
41898.4
41488.4
40972.8
40352.7
39637.2
38832.7
37957.4
37027.3
36068.3
35098.5
34135.8
33188.7
32267.9
31385.9
30552.4
29774.7
29040.9
28347
27680.5
27058.4
26474.5
25935.3
25400.2
24868.9
24345.1
23853.4
23403.5
22995.2
7245.68
7837.84
8391.68
8786.94
9115.03
9377.94
9651.6
9891.02
10076.4
10201.5
10289.3
10373.7
10480.1
10630.1
10840.5
11136
11522.5
12009.5
12588.6
13258.2
14000.6
14813
15681.5
16608.3
17580.9
18598.6
19646.4
20723.7
21819
22930.1
24044.5
25159.2
26265.4
27359.6
28433.2
29484.3
30506.2
31496.6
32449.6
33361.5
34225.1
35034.6
35780.3
36454.2
37044.5
37542.6
37938.1
38225.3
38397.5
38453.6
38391.5
38215.1
37925.5
37530.2
37031.8
36438.1
35751.4
34984.6
34149.4
33269.5
32364.5
31456.9
30558.7
29681
28834.5
28031.6
27287.7
26601.8
25970.8
25372.3
24810.1
24275
23783.7
23308.4
22836.1
22342.4
21870.5
21410.8
21001.1
20618.5
7089.74
7614.47
8092.67
8407.33
8623.44
8797.01
8957.78
9117.68
9243.46
9325.87
9375.86
9418.69
9476.08
9566.75
9717.35
9947.16
10271.4
10688.4
11202
11795.6
12469.3
13206.8
14004.9
14847.8
15737.5
16657.9
17607.2
18571.5
19551.5
20535.4
21522.6
22503.7
23478.5
24439.2
25385.1
26310
27213.1
28088.9
28935.5
29746.9
30519.1
31244
31914.7
32521.1
33054.5
33503.5
33861
34118
34271
34314.9
34251.3
34079.2
33804
33426.8
32955.2
32390.7
31742.4
31016.5
30231.7
29405.6
28563.7
27722.6
26896.8
26095.4
25328.7
24613.4
23959.3
23374.6
22841
22351.5
21884.6
21452.3
21037.6
20641.5
20216
19779.1
19339.2
18910.6
18514.3
18172.7
7002.85
7420.79
7815.72
8052.46
8172.04
8260.64
8320.68
8373.17
8413.84
8430.56
8435.74
8439.93
8455.18
8496.7
8585.78
8748.93
8997.07
9341.59
9772.39
10288.9
10875.1
11532
12240.8
12998.7
13789.5
14611.4
15448.5
16300.1
17154.7
18012.9
18865.9
19715.2
20554.4
21384.6
22200.1
23001.4
23783.7
24546.4
25284.4
25995.4
26673.1
27312.7
27905.3
28443.3
28915.8
29315.4
29632.3
29860.7
29993.5
30029.4
29965.5
29804.9
29546.9
29197.4
28757
28232.8
27627.2
26953.1
26223
25460.4
24685.3
23918.8
23172.4
22454.9
21777.6
21152.1
20595.3
20103.7
19673.8
19279.1
18919.1
18573.9
18252.4
17921.7
17569.7
17179.7
16782.9
16352.2
15966.5
15647.1
6873.92
7148.88
7434.58
7657.75
7748.39
7790.47
7768.21
7715.79
7640.75
7560.04
7481.23
7415.07
7363.98
7340.69
7365.84
7458.42
7638.28
7905.84
8262.6
8695.07
9202.41
9768.73
10391.6
11051.8
11746.3
12457.5
13184.5
13913.6
14646.2
15373
16096.8
16811.4
17519.9
18217.6
18906.5
19582.3
20246.1
20893.6
21524.2
22132.6
22715.8
23266.8
23780
24245.9
24657.1
25003.8
25279.9
25477
25591.8
25618.9
25559
25410.3
25176.5
24857.3
24458.4
23979.7
23429
22812.4
22148.2
21454.4
20755.5
20069
19408.1
18781.1
18195.9
17668.4
17204.6
16812.1
16472.2
16180.5
15911.9
15668.2
15424
15179.5
14890.4
14567.2
14188.9
13754.8
13356.2
13038.2
6623.25
6719.48
6904.82
7162.73
7326.42
7376.53
7315.62
7161.12
6957.38
6734.1
6522.82
6331.46
6172.89
6059.36
6008.66
6037.11
6151.49
6356.75
6641.97
7005.13
7430.55
7916.26
8443.92
9010.06
9596.05
10199.8
10806.5
11417.2
12021.5
12622.8
13214.5
13800.8
14377.4
14947.8
15508.8
16062.7
16606.3
17140.5
17661.5
18168
18654.4
19116.8
19547.5
19940.8
20287.9
20582.5
20816
20984.2
21080.4
21102.9
21047.4
20916.2
20708.2
20427.7
20074.2
19652.5
19162.8
18616
18023.4
17408
16789.8
16188.4
15615.5
15079
14590.6
14159
13797.7
13499.4
13263.3
13067
12906.8
12751.2
12597.7
12417.2
12198.3
11912.3
11556.8
11094.6
10674
10331.4
6132.57
6106.5
6249.99
6580.44
6861.16
6985.98
6921.28
6695.38
6356.33
5972.64
5584.66
5228.69
4922.24
4687.82
4540
4488.45
4536.81
4676.1
4900.9
5194.14
5550.73
5952.01
6393.94
6857.63
7340.76
7827.46
8318.42
8802.49
9283.39
9754
10219.3
10674.7
11125.1
11567.4
12005.4
12436.6
12863.5
13283.2
13696.5
14099.4
14489.9
14862
15211.5
15531
15815.3
16056.6
16250.3
16389.7
16471.8
16490.7
16446
16334.4
16159.5
15920.6
15622
15261.7
14843.9
14371.4
13859.2
13324
12788.9
12271.1
11783.2
11335.9
10938.5
10608.1
10348.4
10164.7
10039.9
9969.67
9922.56
9880.04
9806.4
9697.09
9511.85
9242.42
8860.93
8344.87
7820.08
7426.59
5048.26
5171.6
5555.66
6091.53
6542.94
6750.31
6679.67
6355.17
5861.12
5273.47
4671.1
4101.08
3607.73
3214.29
2940.58
2790.68
2758.86
2834.87
2998.43
3237.35
3529
3864.78
4223.65
4601.23
4980.35
5361.29
5732.19
6097.35
6449.57
6795.06
7129.49
7458.97
7780.6
8099.46
8413.34
8725.99
9035.33
9343.63
9648.25
9949.36
10242.6
10525.8
10792.9
11040
11260.7
11451.2
11605.1
11719.3
11787.8
11808.5
11776.5
11692.7
11554.9
11367.2
11127.8
10838.5
10495.1
10103.1
9670.1
9215.22
8756.68
8312.99
7897.97
7523.15
7208.38
6968.76
6822.5
6763.25
6788.84
6873.33
6994.44
7098.88
7157.15
7133.07
6991.01
6693.88
6231.96
5539.83
4713.66
4012.43
2591.8
3685.22
4872.8
5921.84
6653.97
6954.74
6807.08
6295.78
5529.62
4637.98
3719.73
2867.13
2129.38
1545.76
1126.66
872.298
768.152
790.449
916.213
1115.18
1369.26
1651.48
1951.66
2249.24
2542.05
2817.52
3080.2
3323.47
3554.93
3771.31
3980.49
4180.46
4377.8
4570.83
4764.52
4957.3
5152.59
5348.62
5547.19
5745.6
5943.53
6136.71
6322.93
6496.92
6656.1
6795.27
6912.09
7001.15
7060.18
7083.7
7070.86
7018.08
6926.9
6795.18
6624.91
6410.48
6150.91
5844.14
5499.8
5130.03
4752.36
4381.15
4030.82
3720.73
3473.11
3318.98
3272.39
3342.61
3515.52
3779.84
4092.24
4400.91
4642.75
4768.86
4698.71
4385.68
3803.38
2875.3
1533.3
-99.4706
-931.292
1688.52
3580.67
4929.34
5792.72
6122.66
5953.52
5369.47
4500.67
3468.96
2405.66
1415.34
575.956
-81.454
-540.742
-813.35
-921.626
-896.318
-775.095
-588.078
-367.906
-132.952
94.2185
307.478
494.667
659.725
798.658
919.481
1021.06
1111.13
1189.84
1264.29
1334.24
1404.62
1474.83
1548.25
1623.89
1703.82
1786.58
1872.78
1960.19
2048.06
2133.18
2213.86
2286.62
2349.99
2400.91
2438.33
2458.45
2459.33
2437.93
2396.33
2340.02
2268.15
2175.09
2059.4
1918.01
1752.93
1567.71
1371.79
1176.81
988.298
812.619
659.706
547.153
490.383
504.146
589.416
746.88
966.176
1229.06
1496.86
1731.14
1893.48
1924.5
1775.66
1411.3
771.92
-300.781
-2330.4
-924.442
277.752
1045.52
1581.8
1937.14
2104.78
2088.43
1905.83
1583.2
1168.79
711.629
268.707
-117.388
-416.803
-617.745
-721.38
-742.084
-700.365
-617.779
-515.015
-406.937
-305.195
-214.953
-139.989
-79.036
-31.9172
4.6007
31.8281
52.7634
68.1473
80.4554
90.4837
99.7238
108.436
117.563
127.174
137.78
149.301
161.936
175.354
189.435
203.622
217.483
230.228
241.25
249.781
255.496
257.819
256.325
249.84
238.098
220.959
205.51
188.81
169.205
146.689
121.891
95.7335
69.6647
45.3613
26.9779
12.5884
0.341496
-9.31047
-15.7834
-18.3009
-16.6889
-11.0717
-2.06964
9.54798
22.4619
34.9191
45.5205
54.711
60.8841
62.4928
55.1844
31.5294
-16.6036
-217.328
-10.9006
-10.3988
-10.3731
-10.3288
-10.3295
-10.3579
-10.3416
-10.2682
-10.2027
-10.3185
-6.00105
-10.8419
-19.334
-27.613
-33.2599
-34.2149
-31.4425
-26.9716
-21.6237
-16.5488
-13.3333
-11.14
-10.602
-10.6047
-10.6059
-10.6027
-10.5965
-10.5884
-10.58
-10.5732
-10.5698
-10.5686
-10.5668
-10.5661
-10.5682
-10.5688
-10.5653
-10.5592
-10.5518
-10.5438
-10.5358
-10.5283
-10.5217
-10.5163
-10.5114
-10.5026
-10.466
-10.5263
-10.543
-10.5575
-10.5611
-10.5574
-10.5521
-10.5489
-10.5477
-10.5472
-10.5467
-10.5463
-10.5461
-10.546
-10.5459
-10.5459
-10.5462
-10.5463
-10.5462
-10.5461
-10.546
-10.5459
-10.5457
-10.5456
-10.5455
-10.5455
-10.5455
-10.5455
-10.5455
-10.5456
-10.5459
-10.5454
-10.5447
-10.5459
-11.0536
-11.0315
-11.0313
-11.0305
-11.0405
-11.0533
-11.0492
-11.0116
-10.9651
-10.9504
-10.9624
-11.0232
-11.0501
-11.048
-11.0489
-11.051
-11.0515
-11.0548
-11.0584
-11.0612
-11.0625
-11.0632
-11.0651
-11.0706
-11.0731
-11.072
-11.0686
-11.0638
-11.0585
-11.0544
-11.0522
-11.0514
-11.0507
-11.0504
-11.0499
-11.047
-11.0435
-11.0406
-11.0382
-11.0363
-11.0346
-11.0332
-11.0321
-11.0312
-11.0303
-11.0289
-11.029
-11.0335
-11.0377
-11.0409
-11.0417
-11.0404
-11.039
-11.038
-11.0376
-11.0376
-11.0373
-11.0369
-11.0366
-11.0364
-11.0363
-11.0363
-11.0363
-11.0363
-11.0363
-11.0363
-11.0362
-11.0362
-11.0362
-11.0362
-11.0362
-11.0363
-11.0363
-11.0364
-11.0364
-11.0365
-11.0366
-11.0365
-11.0363
-11.0365
-11.5349
-11.5336
-11.5317
-11.5259
-11.5255
-11.5266
-11.5262
-11.5226
-11.5165
-11.512
-11.5167
-11.5188
-11.5138
-11.5199
-11.5236
-11.5251
-11.5268
-11.5286
-11.5301
-11.5313
-11.5317
-11.5318
-11.5329
-11.5344
-11.535
-11.5348
-11.5341
-11.5329
-11.5315
-11.5302
-11.5299
-11.5302
-11.5296
-11.529
-11.5288
-11.5282
-11.5277
-11.5274
-11.5271
-11.527
-11.5269
-11.5268
-11.5267
-11.5267
-11.5266
-11.5265
-11.5263
-11.5266
-11.5269
-11.5271
-11.527
-11.5269
-11.5268
-11.5268
-11.5268
-11.5268
-11.5268
-11.5268
-11.5268
-11.5267
-11.5268
-11.5268
-11.5268
-11.5268
-11.5268
-11.5268
-11.5268
-11.5268
-11.5268
-11.5268
-11.5267
-11.5267
-11.5267
-11.5267
-11.5268
-11.5267
-11.5266
-11.5265
-11.5268
-11.5269
-12.0191
-12.0265
-12.0226
-12.0181
-12.0171
-12.0175
-12.0175
-12.0173
-12.0169
-12.017
-12.0171
-12.0169
-12.0164
-12.0168
-12.0171
-12.0171
-12.0172
-12.0174
-12.0176
-12.0177
-12.0176
-12.0175
-12.0174
-12.0174
-12.0175
-12.0175
-12.0175
-12.0175
-12.0174
-12.0173
-12.0173
-12.0175
-12.0175
-12.0174
-12.0173
-12.0173
-12.0173
-12.0173
-12.0173
-12.0173
-12.0173
-12.0173
-12.0172
-12.0172
-12.0172
-12.0172
-12.0172
-12.0172
-12.0172
-12.0173
-12.0173
-12.0173
-12.0173
-12.0173
-12.0173
-12.0173
-12.0173
-12.0173
-12.0173
-12.0173
-12.0173
-12.0173
-12.0173
-12.0173
-12.0173
-12.0173
-12.0173
-12.0173
-12.0173
-12.0173
-12.0173
-12.0172
-12.0172
-12.0172
-12.0172
-12.0172
-12.0172
-12.0171
-12.0173
-12.0173
-12.5015
-12.509
-12.511
-12.5087
-12.5076
-12.5077
-12.5079
-12.5079
-12.5077
-12.5076
-12.5077
-12.5078
-12.5077
-12.5077
-12.5077
-12.5076
-12.5076
-12.5077
-12.5078
-12.5078
-12.5078
-12.5077
-12.5076
-12.5076
-12.5077
-12.5077
-12.5078
-12.5078
-12.5078
-12.5078
-12.5078
-12.5078
-12.5078
-12.5078
-12.5078
-12.5078
-12.5078
-12.5078
-12.5078
-12.5078
-12.5078
-12.5078
-12.5078
-12.5078
-12.5078
-12.5077
-12.5077
-12.5077
-12.5077
-12.5077
-12.5078
-12.5078
-12.5077
-12.5077
-12.5077
-12.5077
-12.5077
-12.5077
-12.5078
-12.5077
-12.5078
-12.5078
-12.5078
-12.5078
-12.5078
-12.5078
-12.5078
-12.5078
-12.5078
-12.5078
-12.5078
-12.5078
-12.5078
-12.5077
-12.5078
-12.5078
-12.5077
-12.5077
-12.5078
-12.5078
-12.9923
-12.9961
-12.9997
-12.9996
-12.9983
-12.9979
-12.9981
-12.9983
-12.9982
-12.9982
-12.9982
-12.9983
-12.9983
-12.9982
-12.9982
-12.9981
-12.9982
-12.9982
-12.9982
-12.9982
-12.9981
-12.9981
-12.998
-12.9981
-12.9981
-12.9982
-12.9982
-12.9983
-12.9983
-12.9983
-12.9983
-12.9982
-12.9982
-12.9982
-12.9982
-12.9982
-12.9982
-12.9982
-12.9982
-12.9982
-12.9983
-12.9982
-12.9982
-12.9982
-12.9982
-12.9982
-12.9982
-12.9982
-12.9982
-12.9982
-12.9982
-12.9983
-12.9983
-12.9983
-12.9983
-12.9983
-12.9983
-12.9983
-12.9983
-12.9983
-12.9983
-12.9983
-12.9983
-12.9983
-12.9983
-12.9983
-12.9983
-12.9983
-12.9983
-12.9983
-12.9983
-12.9983
-12.9983
-12.9983
-12.9983
-12.9983
-12.9982
-12.9982
-12.9982
-12.9982
-13.4859
-13.4859
-13.4883
-13.4895
-13.4892
-13.4887
-13.4886
-13.4886
-13.4887
-13.4887
-13.4888
-13.4888
-13.4887
-13.4887
-13.4887
-13.4887
-13.4887
-13.4887
-13.4887
-13.4887
-13.4887
-13.4886
-13.4886
-13.4887
-13.4887
-13.4888
-13.4888
-13.4889
-13.4889
-13.4888
-13.4888
-13.4888
-13.4888
-13.4888
-13.4888
-13.4888
-13.4888
-13.4888
-13.4888
-13.4888
-13.4888
-13.4888
-13.4888
-13.4888
-13.4888
-13.4888
-13.4888
-13.4888
-13.4888
-13.4888
-13.4888
-13.4888
-13.4888
-13.4888
-13.4888
-13.4888
-13.4888
-13.4888
-13.4888
-13.4888
-13.4888
-13.4888
-13.4888
-13.4888
-13.4888
-13.4888
-13.4888
-13.4888
-13.4888
-13.4888
-13.4888
-13.4888
-13.4888
-13.4888
-13.4888
-13.4888
-13.4887
-13.4887
-13.4887
-13.4887
-13.9796
-13.978
-13.9781
-13.979
-13.9795
-13.9794
-13.9792
-13.9791
-13.9792
-13.9792
-13.9793
-13.9793
-13.9792
-13.9792
-13.9792
-13.9792
-13.9792
-13.9792
-13.9792
-13.9792
-13.9791
-13.9791
-13.9792
-13.9792
-13.9793
-13.9793
-13.9794
-13.9794
-13.9794
-13.9793
-13.9793
-13.9793
-13.9793
-13.9793
-13.9792
-13.9793
-13.9793
-13.9793
-13.9793
-13.9793
-13.9793
-13.9793
-13.9793
-13.9793
-13.9793
-13.9793
-13.9793
-13.9793
-13.9793
-13.9793
-13.9793
-13.9793
-13.9793
-13.9793
-13.9793
-13.9793
-13.9793
-13.9793
-13.9793
-13.9793
-13.9793
-13.9793
-13.9793
-13.9793
-13.9793
-13.9793
-13.9793
-13.9793
-13.9793
-13.9793
-13.9793
-13.9793
-13.9793
-13.9793
-13.9793
-13.9793
-13.9792
-13.9792
-13.9792
-13.9792
-14.4709
-14.47
-14.4691
-14.4693
-14.4696
-14.4698
-14.4697
-14.4696
-14.4697
-14.4698
-14.4698
-14.4697
-14.4697
-14.4696
-14.4696
-14.4697
-14.4697
-14.4697
-14.4697
-14.4697
-14.4697
-14.4697
-14.4697
-14.4697
-14.4698
-14.4698
-14.4698
-14.4698
-14.4698
-14.4698
-14.4698
-14.4698
-14.4698
-14.4698
-14.4698
-14.4698
-14.4698
-14.4698
-14.4698
-14.4698
-14.4698
-14.4698
-14.4698
-14.4698
-14.4698
-14.4698
-14.4698
-14.4698
-14.4698
-14.4698
-14.4698
-14.4698
-14.4698
-14.4698
-14.4698
-14.4698
-14.4698
-14.4698
-14.4698
-14.4698
-14.4698
-14.4698
-14.4698
-14.4698
-14.4698
-14.4698
-14.4698
-14.4698
-14.4698
-14.4698
-14.4698
-14.4698
-14.4698
-14.4698
-14.4698
-14.4698
-14.4698
-14.4697
-14.4697
-14.4697
-14.9605
-14.9608
-14.9602
-14.96
-14.96
-14.9602
-14.9602
-14.9602
-14.9602
-14.9603
-14.9603
-14.9602
-14.9602
-14.9601
-14.9602
-14.9602
-14.9602
-14.9602
-14.9602
-14.9602
-14.9601
-14.9601
-14.9602
-14.9602
-14.9603
-14.9603
-14.9603
-14.9603
-14.9603
-14.9603
-14.9603
-14.9603
-14.9603
-14.9603
-14.9603
-14.9603
-14.9603
-14.9603
-14.9603
-14.9603
-14.9603
-14.9603
-14.9603
-14.9603
-14.9603
-14.9603
-14.9603
-14.9603
-14.9603
-14.9603
-14.9603
-14.9603
-14.9603
-14.9603
-14.9603
-14.9603
-14.9603
-14.9603
-14.9603
-14.9603
-14.9603
-14.9603
-14.9603
-14.9603
-14.9603
-14.9603
-14.9603
-14.9603
-14.9603
-14.9603
-14.9603
-14.9603
-14.9603
-14.9603
-14.9603
-14.9603
-14.9603
-14.9603
-14.9603
-14.9603
-15.4504
-15.4509
-15.4508
-15.4507
-15.4506
-15.4507
-15.4507
-15.4507
-15.4507
-15.4507
-15.4507
-15.4507
-15.4506
-15.4507
-15.4507
-15.4507
-15.4507
-15.4507
-15.4506
-15.4506
-15.4506
-15.4506
-15.4507
-15.4507
-15.4507
-15.4508
-15.4508
-15.4508
-15.4508
-15.4508
-15.4508
-15.4508
-15.4508
-15.4508
-15.4508
-15.4508
-15.4508
-15.4508
-15.4508
-15.4508
-15.4508
-15.4508
-15.4508
-15.4508
-15.4508
-15.4508
-15.4508
-15.4508
-15.4508
-15.4508
-15.4508
-15.4508
-15.4508
-15.4508
-15.4508
-15.4508
-15.4508
-15.4508
-15.4508
-15.4508
-15.4508
-15.4508
-15.4508
-15.4508
-15.4508
-15.4508
-15.4508
-15.4508
-15.4508
-15.4508
-15.4508
-15.4508
-15.4508
-15.4508
-15.4508
-15.4508
-15.4508
-15.4508
-15.4508
-15.4508
-15.9408
-15.9411
-15.9413
-15.9413
-15.9412
-15.9412
-15.9412
-15.9413
-15.9412
-15.9412
-15.9412
-15.9411
-15.9412
-15.9412
-15.9412
-15.9412
-15.9412
-15.9412
-15.9411
-15.9411
-15.9411
-15.9412
-15.9412
-15.9413
-15.9413
-15.9413
-15.9413
-15.9413
-15.9413
-15.9413
-15.9413
-15.9413
-15.9413
-15.9413
-15.9413
-15.9413
-15.9413
-15.9413
-15.9414
-15.9414
-15.9414
-15.9414
-15.9414
-15.9414
-15.9414
-15.9414
-15.9413
-15.9413
-15.9413
-15.9413
-15.9413
-15.9413
-15.9413
-15.9413
-15.9413
-15.9413
-15.9413
-15.9413
-15.9413
-15.9413
-15.9413
-15.9413
-15.9413
-15.9413
-15.9413
-15.9413
-15.9413
-15.9413
-15.9413
-15.9413
-15.9413
-15.9413
-15.9413
-15.9413
-15.9413
-15.9413
-15.9413
-15.9413
-15.9413
-15.9413
-16.4316
-16.4316
-16.4317
-16.4318
-16.4317
-16.4317
-16.4317
-16.4317
-16.4317
-16.4317
-16.4316
-16.4316
-16.4317
-16.4317
-16.4317
-16.4317
-16.4317
-16.4317
-16.4316
-16.4316
-16.4317
-16.4317
-16.4318
-16.4318
-16.4318
-16.4318
-16.4318
-16.4318
-16.4318
-16.4318
-16.4318
-16.4318
-16.4318
-16.4318
-16.4318
-16.4318
-16.4318
-16.4318
-16.4318
-16.4319
-16.4319
-16.4319
-16.4319
-16.4319
-16.4319
-16.4319
-16.4319
-16.4319
-16.4319
-16.4318
-16.4318
-16.4318
-16.4318
-16.4318
-16.4318
-16.4318
-16.4318
-16.4318
-16.4318
-16.4318
-16.4318
-16.4318
-16.4318
-16.4318
-16.4318
-16.4318
-16.4318
-16.4318
-16.4318
-16.4318
-16.4318
-16.4318
-16.4318
-16.4318
-16.4318
-16.4318
-16.4318
-16.4318
-16.4318
-16.4318
-16.9223
-16.9222
-16.9222
-16.9222
-16.9222
-16.9222
-16.9222
-16.9222
-16.9222
-16.9222
-16.9222
-16.9222
-16.9222
-16.9222
-16.9222
-16.9222
-16.9222
-16.9222
-16.9222
-16.9222
-16.9222
-16.9222
-16.9223
-16.9223
-16.9223
-16.9223
-16.9223
-16.9223
-16.9223
-16.9223
-16.9223
-16.9223
-16.9223
-16.9223
-16.9223
-16.9223
-16.9223
-16.9223
-16.9224
-16.9224
-16.9224
-16.9224
-16.9224
-16.9224
-16.9224
-16.9224
-16.9224
-16.9224
-16.9224
-16.9224
-16.9224
-16.9223
-16.9223
-16.9223
-16.9223
-16.9223
-16.9223
-16.9223
-16.9223
-16.9223
-16.9223
-16.9223
-16.9223
-16.9223
-16.9223
-16.9223
-16.9223
-16.9223
-16.9223
-16.9223
-16.9223
-16.9223
-16.9223
-16.9223
-16.9223
-16.9223
-16.9223
-16.9223
-16.9223
-16.9223
-17.4128
-17.4127
-17.4127
-17.4127
-17.4127
-17.4127
-17.4127
-17.4127
-17.4127
-17.4127
-17.4127
-17.4127
-17.4127
-17.4127
-17.4127
-17.4127
-17.4127
-17.4126
-17.4126
-17.4127
-17.4127
-17.4127
-17.4128
-17.4128
-17.4128
-17.4128
-17.4128
-17.4128
-17.4128
-17.4128
-17.4128
-17.4128
-17.4128
-17.4128
-17.4128
-17.4128
-17.4128
-17.4129
-17.4129
-17.4129
-17.4129
-17.4129
-17.4129
-17.4129
-17.4129
-17.4129
-17.4129
-17.4129
-17.4129
-17.4129
-17.4129
-17.4129
-17.4128
-17.4128
-17.4128
-17.4128
-17.4128
-17.4128
-17.4128
-17.4128
-17.4128
-17.4128
-17.4128
-17.4128
-17.4128
-17.4128
-17.4128
-17.4128
-17.4128
-17.4128
-17.4128
-17.4128
-17.4128
-17.4128
-17.4128
-17.4128
-17.4128
-17.4128
-17.4128
-17.4128
-17.9032
-17.9032
-17.9031
-17.9031
-17.9032
-17.9032
-17.9032
-17.9032
-17.9032
-17.9032
-17.9032
-17.9032
-17.9032
-17.9032
-17.9032
-17.9031
-17.9031
-17.9031
-17.9031
-17.9031
-17.9032
-17.9032
-17.9032
-17.9033
-17.9033
-17.9033
-17.9033
-17.9033
-17.9033
-17.9033
-17.9033
-17.9033
-17.9033
-17.9033
-17.9033
-17.9033
-17.9033
-17.9034
-17.9034
-17.9034
-17.9034
-17.9034
-17.9034
-17.9034
-17.9034
-17.9034
-17.9034
-17.9034
-17.9034
-17.9034
-17.9034
-17.9034
-17.9033
-17.9033
-17.9033
-17.9033
-17.9033
-17.9033
-17.9033
-17.9033
-17.9033
-17.9033
-17.9033
-17.9033
-17.9033
-17.9033
-17.9033
-17.9033
-17.9033
-17.9033
-17.9033
-17.9033
-17.9033
-17.9033
-17.9033
-17.9033
-17.9033
-17.9033
-17.9033
-17.9033
-18.3936
-18.3936
-18.3936
-18.3936
-18.3937
-18.3937
-18.3937
-18.3937
-18.3937
-18.3937
-18.3937
-18.3937
-18.3937
-18.3936
-18.3936
-18.3936
-18.3936
-18.3936
-18.3936
-18.3936
-18.3937
-18.3937
-18.3937
-18.3937
-18.3937
-18.3937
-18.3937
-18.3937
-18.3937
-18.3937
-18.3937
-18.3938
-18.3938
-18.3938
-18.3938
-18.3938
-18.3939
-18.3939
-18.3939
-18.3939
-18.3939
-18.3939
-18.3939
-18.3939
-18.3939
-18.3939
-18.3939
-18.3939
-18.3939
-18.3939
-18.3939
-18.3939
-18.3939
-18.3938
-18.3938
-18.3938
-18.3938
-18.3938
-18.3938
-18.3938
-18.3938
-18.3938
-18.3938
-18.3938
-18.3938
-18.3938
-18.3938
-18.3938
-18.3938
-18.3938
-18.3938
-18.3938
-18.3938
-18.3938
-18.3938
-18.3938
-18.3938
-18.3938
-18.3938
-18.3938
-18.8841
-18.8841
-18.8842
-18.8842
-18.8842
-18.8842
-18.8842
-18.8842
-18.8842
-18.8842
-18.8842
-18.8842
-18.8841
-18.8841
-18.8841
-18.8841
-18.8841
-18.8841
-18.8842
-18.8842
-18.8842
-18.8842
-18.8842
-18.8843
-18.8843
-18.8842
-18.8842
-18.8842
-18.8842
-18.8842
-18.8842
-18.8843
-18.8843
-18.8843
-18.8843
-18.8844
-18.8844
-18.8844
-18.8844
-18.8844
-18.8844
-18.8844
-18.8844
-18.8844
-18.8844
-18.8844
-18.8844
-18.8844
-18.8844
-18.8844
-18.8844
-18.8844
-18.8844
-18.8844
-18.8843
-18.8843
-18.8843
-18.8843
-18.8843
-18.8843
-18.8843
-18.8843
-18.8843
-18.8843
-18.8843
-18.8843
-18.8843
-18.8843
-18.8843
-18.8843
-18.8843
-18.8843
-18.8843
-18.8843
-18.8843
-18.8843
-18.8843
-18.8843
-18.8843
-18.8843
-19.3747
-19.3747
-19.3747
-19.3747
-19.3747
-19.3747
-19.3747
-19.3747
-19.3747
-19.3747
-19.3747
-19.3746
-19.3746
-19.3746
-19.3746
-19.3746
-19.3746
-19.3747
-19.3747
-19.3747
-19.3748
-19.3748
-19.3748
-19.3748
-19.3748
-19.3748
-19.3747
-19.3747
-19.3747
-19.3747
-19.3748
-19.3748
-19.3748
-19.3748
-19.3749
-19.3749
-19.3749
-19.3749
-19.3749
-19.3749
-19.3749
-19.3749
-19.3749
-19.3749
-19.3749
-19.3749
-19.3749
-19.3749
-19.3749
-19.3749
-19.3749
-19.3749
-19.3749
-19.3749
-19.3748
-19.3748
-19.3748
-19.3748
-19.3748
-19.3748
-19.3748
-19.3748
-19.3748
-19.3748
-19.3748
-19.3748
-19.3748
-19.3748
-19.3748
-19.3748
-19.3748
-19.3748
-19.3748
-19.3748
-19.3748
-19.3748
-19.3748
-19.3748
-19.3748
-19.3748
-19.8652
-19.8652
-19.8652
-19.8652
-19.8652
-19.8652
-19.8651
-19.8651
-19.8651
-19.8651
-19.8651
-19.8651
-19.8651
-19.8651
-19.8651
-19.8651
-19.8652
-19.8652
-19.8652
-19.8653
-19.8653
-19.8653
-19.8653
-19.8653
-19.8653
-19.8653
-19.8652
-19.8652
-19.8652
-19.8653
-19.8653
-19.8653
-19.8653
-19.8653
-19.8654
-19.8654
-19.8654
-19.8654
-19.8654
-19.8654
-19.8654
-19.8654
-19.8654
-19.8654
-19.8654
-19.8654
-19.8654
-19.8654
-19.8654
-19.8654
-19.8654
-19.8654
-19.8654
-19.8654
-19.8653
-19.8653
-19.8653
-19.8653
-19.8653
-19.8653
-19.8653
-19.8653
-19.8653
-19.8653
-19.8653
-19.8653
-19.8653
-19.8653
-19.8653
-19.8653
-19.8653
-19.8653
-19.8653
-19.8653
-19.8653
-19.8653
-19.8653
-19.8653
-19.8653
-19.8653
-20.3557
-20.3557
-20.3557
-20.3557
-20.3557
-20.3556
-20.3556
-20.3556
-20.3556
-20.3556
-20.3556
-20.3556
-20.3556
-20.3556
-20.3556
-20.3557
-20.3557
-20.3557
-20.3557
-20.3557
-20.3558
-20.3558
-20.3558
-20.3557
-20.3557
-20.3557
-20.3557
-20.3557
-20.3557
-20.3558
-20.3558
-20.3558
-20.3558
-20.3559
-20.3559
-20.3559
-20.3559
-20.3559
-20.3559
-20.3559
-20.3559
-20.3559
-20.356
-20.3559
-20.3559
-20.3559
-20.3559
-20.3559
-20.3559
-20.3559
-20.3559
-20.3559
-20.3559
-20.3559
-20.3558
-20.3558
-20.3558
-20.3558
-20.3558
-20.3558
-20.3558
-20.3558
-20.3558
-20.3558
-20.3558
-20.3558
-20.3558
-20.3558
-20.3558
-20.3558
-20.3558
-20.3558
-20.3558
-20.3558
-20.3558
-20.3558
-20.3558
-20.3558
-20.3558
-20.3558
-20.8462
-20.8462
-20.8462
-20.8461
-20.8461
-20.8461
-20.8461
-20.8461
-20.8461
-20.8461
-20.8461
-20.8461
-20.8461
-20.8461
-20.8461
-20.8462
-20.8462
-20.8462
-20.8462
-20.8462
-20.8462
-20.8462
-20.8462
-20.8462
-20.8462
-20.8462
-20.8462
-20.8462
-20.8462
-20.8463
-20.8463
-20.8463
-20.8463
-20.8464
-20.8464
-20.8464
-20.8464
-20.8464
-20.8464
-20.8464
-20.8464
-20.8464
-20.8464
-20.8464
-20.8464
-20.8464
-20.8464
-20.8464
-20.8464
-20.8464
-20.8464
-20.8464
-20.8464
-20.8464
-20.8463
-20.8463
-20.8463
-20.8463
-20.8463
-20.8463
-20.8463
-20.8463
-20.8463
-20.8463
-20.8463
-20.8463
-20.8463
-20.8463
-20.8463
-20.8463
-20.8463
-20.8463
-20.8463
-20.8463
-20.8463
-20.8463
-20.8463
-20.8463
-20.8463
-20.8463
-21.3366
-21.3366
-21.3366
-21.3366
-21.3366
-21.3366
-21.3366
-21.3366
-21.3366
-21.3366
-21.3366
-21.3366
-21.3366
-21.3366
-21.3367