/*--------------------------------*- C++ -*----------------------------------*\
| =========                 |                                                 |
| \\      /  F ield         | OpenFOAM: The Open Source CFD Toolbox           |
|  \\    /   O peration     | Version:  2412                                  |
|   \\  /    A nd           | Website:  www.openfoam.com                      |
|    \\/     M anipulation  |                                                 |
\*---------------------------------------------------------------------------*/
FoamFile
{
    version     2.0;
    format      ascii;
    arch        "LSB;label=32;scalar=64";
    class       surfaceScalarField;
    location    "9.95";
    object      alphaPhi0.water;
}
// * * * * * * * * * * * * * * * * * * * * * * * * * * * * * * * * * * * * * //

dimensions      [0 3 -1 0 0 0 0];

oriented        oriented;

internalField   nonuniform List<scalar> 
12640
(
4.64259e-06
-4.64257e-06
1.42864e-05
-9.64245e-06
2.28826e-05
-8.59521e-06
3.0712e-05
-7.82848e-06
3.85117e-05
-7.79893e-06
4.65482e-05
-8.03598e-06
5.47963e-05
-8.24761e-06
6.31133e-05
-8.31681e-06
7.13621e-05
-8.2488e-06
7.94034e-05
-8.04139e-06
8.71962e-05
-7.7931e-06
9.45658e-05
-7.36987e-06
0.000101398
-6.83211e-06
0.000107587
-6.18941e-06
0.000113074
-5.48804e-06
0.000117828
-4.75422e-06
0.000121748
-3.91991e-06
0.000124812
-3.06457e-06
0.000126954
-2.1418e-06
0.000128086
-1.13143e-06
0.000128114
-2.85782e-08
0.000126953
1.16138e-06
0.000124549
2.40424e-06
0.000120858
3.6912e-06
0.000115888
4.97026e-06
0.000109815
6.07337e-06
0.000102807
7.0081e-06
9.523e-05
7.57758e-06
8.73781e-05
7.85229e-06
7.95202e-05
7.85828e-06
7.17424e-05
7.77792e-06
6.40732e-05
7.66915e-06
5.67105e-05
7.36247e-06
4.98019e-05
6.90804e-06
4.36331e-05
6.16827e-06
3.82289e-05
5.4035e-06
3.35612e-05
4.66682e-06
2.94982e-05
4.06272e-06
2.59133e-05
3.58452e-06
2.24805e-05
3.43209e-06
1.89479e-05
3.53243e-06
1.4995e-05
3.95289e-06
1.03575e-05
4.63691e-06
4.77216e-06
5.58517e-06
-1.8892e-06
6.66196e-06
-9.78511e-06
7.89652e-06
-1.88835e-05
9.09817e-06
-2.90245e-05
1.01402e-05
-3.9861e-05
1.08356e-05
-5.10982e-05
1.12371e-05
-6.24672e-05
1.13698e-05
-7.37905e-05
1.13242e-05
-8.47466e-05
1.09567e-05
-9.49982e-05
1.02518e-05
-0.000104143
9.145e-06
-0.000111919
7.7766e-06
-0.000118188
6.26864e-06
-0.000123011
4.82339e-06
-0.000126462
3.45178e-06
-0.000128644
2.18298e-06
-0.000129611
9.6724e-07
-0.000129479
-1.31103e-07
-0.000128315
-1.16394e-06
-0.000126214
-2.10059e-06
-0.000123223
-2.99088e-06
-0.00011939
-3.83356e-06
-0.000114755
-4.63541e-06
-0.000109342
-5.41324e-06
-0.00010312
-6.22268e-06
-9.60849e-05
-7.03559e-06
-8.81927e-05
-7.89265e-06
-7.95043e-05
-8.68933e-06
-7.02426e-05
-9.26227e-06
-6.06193e-05
-9.62372e-06
-5.07242e-05
-9.89586e-06
-4.07656e-05
-9.95952e-06
-3.05242e-05
-1.02422e-05
-1.92777e-05
-1.12471e-05
-6.93958e-06
-1.23385e-05
-6.94069e-06
2.80306e-06
-7.44429e-06
1.05561e-05
-1.73936e-05
1.7375e-05
-1.54125e-05
2.38768e-05
-1.43291e-05
3.09358e-05
-1.48569e-05
3.87732e-05
-1.58729e-05
4.73741e-05
-1.68482e-05
5.64586e-05
-1.74013e-05
6.57758e-05
-1.75662e-05
7.51349e-05
-1.74008e-05
8.42205e-05
-1.68792e-05
9.29333e-05
-1.60833e-05
0.000101083
-1.49821e-05
0.000108629
-1.37357e-05
0.000115396
-1.2256e-05
0.000121236
-1.05949e-05
0.000126019
-8.70229e-06
0.000129681
-6.72711e-06
0.000132179
-4.63978e-06
0.00013354
-2.4921e-06
0.000133805
-2.93285e-07
0.000133001
1.96584e-06
0.000131237
4.16871e-06
0.000128674
6.25477e-06
0.000125418
8.22687e-06
0.000121551
9.94146e-06
0.000117164
1.13959e-05
0.000112196
1.25455e-05
0.00010664
1.34092e-05
0.000100463
1.40353e-05
9.38247e-05
1.44155e-05
8.69411e-05
1.4552e-05
7.97457e-05
1.45572e-05
7.24069e-05
1.42457e-05
6.48396e-05
1.37345e-05
5.70026e-05
1.32398e-05
4.89688e-05
1.26996e-05
4.07177e-05
1.2313e-05
3.21925e-05
1.21097e-05
2.34551e-05
1.21695e-05
1.44669e-05
1.25206e-05
5.19265e-06
1.32275e-05
-4.36535e-06
1.41955e-05
-1.41414e-05
1.53615e-05
-2.40734e-05
1.65934e-05
-3.40223e-05
1.78446e-05
-4.39338e-05
1.90094e-05
-5.37846e-05
1.99915e-05
-6.35737e-05
2.0626e-05
-7.32406e-05
2.0905e-05
-8.26052e-05
2.07347e-05
-9.14729e-05
2.01916e-05
-9.97551e-05
1.92388e-05
-0.000107397
1.78942e-05
-0.000114384
1.61319e-05
-0.000120626
1.40191e-05
-0.000126039
1.1683e-05
-0.000130431
9.21577e-06
-0.00013374
6.76191e-06
-0.000135838
4.28076e-06
-0.000136681
1.81144e-06
-0.000136182
-6.30332e-07
-0.000134371
-2.97505e-06
-0.000131327
-5.14541e-06
-0.00012716
-7.15752e-06
-0.00012201
-8.98394e-06
-0.000115977
-1.06689e-05
-0.000109161
-1.22286e-05
-0.000101598
-1.37852e-05
-9.3322e-05
-1.53116e-05
-8.43313e-05
-1.68831e-05
-7.48942e-05
-1.81261e-05
-6.5065e-05
-1.90914e-05
-5.51053e-05
-1.95833e-05
-4.5311e-05
-1.96902e-05
-3.58491e-05
-1.94218e-05
-2.65332e-05
-1.9558e-05
-1.64302e-05
-2.13497e-05
-5.24146e-06
-2.35292e-05
-1.21808e-05
3.2942e-06
-1.07375e-05
1.154e-05
-2.5638e-05
1.88147e-05
-2.26861e-05
2.55786e-05
-2.10921e-05
3.30011e-05
-2.22788e-05
4.12151e-05
-2.40865e-05
5.00235e-05
-2.56564e-05
5.92037e-05
-2.65814e-05
6.85321e-05
-2.68946e-05
7.77467e-05
-2.66156e-05
8.66459e-05
-2.57787e-05
9.50724e-05
-2.45102e-05
0.00010303
-2.29404e-05
0.000110298
-2.10033e-05
0.00011683
-1.87885e-05
0.000122474
-1.62392e-05
0.000127223
-1.34515e-05
0.000130927
-1.04308e-05
0.000133526
-7.23778e-06
0.000134976
-3.94252e-06
0.000135277
-5.93156e-07
0.00013444
2.80353e-06
0.000132497
6.1114e-06
0.000129524
9.22909e-06
0.000125649
1.21024e-05
0.000120942
1.4649e-05
0.000115496
1.68421e-05
0.000109372
1.8669e-05
0.000102664
2.01176e-05
9.55066e-05
2.11923e-05
8.81175e-05
2.18046e-05
8.06429e-05
2.20264e-05
7.32728e-05
2.19273e-05
6.60018e-05
2.15166e-05
5.87891e-05
2.09471e-05
5.17031e-05
2.03258e-05
4.4671e-05
1.97318e-05
3.77286e-05
1.92555e-05
3.07895e-05
1.90481e-05
2.37773e-05
1.91808e-05
1.64985e-05
1.97988e-05
8.82071e-06
2.09043e-05
6.245e-07
2.239e-05
-8.12055e-06
2.41054e-05
-1.74117e-05
2.5885e-05
-2.71012e-05
2.7536e-05
-3.71382e-05
2.90484e-05
-4.74181e-05
3.02724e-05
-5.7964e-05
3.11715e-05
-6.85961e-05
3.15359e-05
-7.91375e-05
3.12754e-05
-8.92538e-05
3.03079e-05
-9.87368e-05
2.87221e-05
-0.000107378
2.65353e-05
-0.000115101
2.38556e-05
-0.000121827
2.07444e-05
-0.000127484
1.73403e-05
-0.000131954
1.36858e-05
-0.000135154
9.96153e-06
-0.000137037
6.16376e-06
-0.000137593
2.36669e-06
-0.000136856
-1.36811e-06
-0.000134941
-4.88839e-06
-0.000131956
-8.12885e-06
-0.000128019
-1.10928e-05
-0.000123228
-1.37726e-05
-0.000117672
-1.62233e-05
-0.000111332
-1.85664e-05
-0.000104234
-2.08806e-05
-9.63257e-05
-2.32178e-05
-8.77812e-05
-2.54259e-05
-7.84085e-05
-2.74978e-05
-6.84289e-05
-2.90697e-05
-5.80175e-05
-2.99933e-05
-4.76747e-05
-3.00316e-05
-3.76766e-05
-2.9419e-05
-2.78545e-05
-2.93789e-05
-1.70987e-05
-3.21051e-05
-5.46822e-06
-3.51576e-05
-1.76486e-05
2.89822e-06
-1.36348e-05
1.11051e-05
-3.38439e-05
1.83258e-05
-2.99061e-05
2.49814e-05
-2.77472e-05
3.22768e-05
-2.95737e-05
4.05699e-05
-3.23794e-05
4.97208e-05
-3.4807e-05
5.94304e-05
-3.6291e-05
6.92185e-05
-3.66828e-05
7.88244e-05
-3.62217e-05
8.80898e-05
-3.50444e-05
9.69118e-05
-3.33323e-05
0.000105118
-3.11468e-05
0.000112634
-2.85197e-05
0.000119341
-2.54954e-05
0.000125145
-2.20432e-05
0.00012997
-1.82758e-05
0.000133736
-1.41969e-05
0.000136362
-9.86315e-06
0.000137794
-5.37384e-06
0.000138004
-8.0253e-07
0.000137003
3.80499e-06
0.000134795
8.3191e-06
0.000131422
1.26027e-05
0.000126973
1.65512e-05
0.000121551
2.00715e-05
0.000115284
2.31097e-05
0.000108319
2.56338e-05
0.00010086
2.75771e-05
9.30989e-05
2.89538e-05
8.5159e-05
2.97449e-05
7.71853e-05
3.00006e-05
6.93298e-05
2.9783e-05
6.16709e-05
2.91754e-05
5.4398e-05
2.82192e-05
4.75294e-05
2.71922e-05
4.11824e-05
2.60755e-05
3.52328e-05
2.52022e-05
2.96394e-05
2.46386e-05
2.4115e-05
2.47024e-05
1.84309e-05
2.54812e-05
1.222e-05
2.71143e-05
5.24281e-06
2.93668e-05
-2.64153e-06
3.19902e-05
-1.14629e-05
3.47072e-05
-2.11895e-05
3.7263e-05
-3.1578e-05
3.94366e-05
-4.25493e-05
4.12433e-05
-5.38632e-05
4.24853e-05
-6.53381e-05
4.30114e-05
-7.67804e-05
4.27183e-05
-8.79019e-05
4.14295e-05
-9.84123e-05
3.92324e-05
-0.000108099
3.6222e-05
-0.000116733
3.24896e-05
-0.000124187
2.81985e-05
-0.000130267
2.34203e-05
-0.000134991
1.84095e-05
-0.000138284
1.32548e-05
-0.000140152
8.03165e-06
-0.000140623
2.83938e-06
-0.000139813
-2.17651e-06
-0.000137838
-6.86295e-06
-0.000134804
-1.11619e-05
-0.00013082
-1.50771e-05
-0.000125956
-1.86374e-05
-0.000120303
-2.1877e-05
-0.00011391
-2.49601e-05
-0.0001068
-2.79935e-05
-9.89229e-05
-3.10962e-05
-9.01206e-05
-3.42291e-05
-8.04751e-05
-3.7144e-05
-6.98058e-05
-3.97398e-05
-5.87293e-05
-4.10707e-05
-4.78995e-05
-4.08623e-05
-3.75821e-05
-3.97361e-05
-2.74953e-05
-3.94642e-05
-1.66095e-05
-4.29919e-05
-4.95617e-06
-4.68104e-05
-2.26048e-05
1.84484e-06
-1.54791e-05
9.62368e-06
-4.16221e-05
1.64845e-05
-3.67664e-05
2.27413e-05
-3.40037e-05
2.99564e-05
-3.67886e-05
3.86156e-05
-4.10385e-05
4.84876e-05
-4.46788e-05
5.8988e-05
-4.67914e-05
6.96224e-05
-4.73171e-05
7.99484e-05
-4.65476e-05
8.98349e-05
-4.49309e-05
9.91691e-05
-4.26663e-05
0.000107849
-3.98263e-05
0.000115808
-3.64789e-05
0.000122928
-3.26149e-05
0.000129066
-2.81812e-05
0.000134173
-2.33821e-05
0.000138168
-1.81917e-05
0.000140948
-1.26429e-05
0.000142444
-6.8699e-06
0.000142623
-9.80756e-07
0.000141483
4.94504e-06
0.00013905
1.07526e-05
0.000135371
1.62827e-05
0.000130531
2.13913e-05
0.000124661
2.59418e-05
0.000117894
2.98765e-05
0.000110434
3.30936e-05
0.000102432
3.55799e-05
9.41325e-05
3.7253e-05
8.56739e-05
3.82031e-05
7.7164e-05
3.85101e-05
6.88906e-05
3.80555e-05
6.09481e-05
3.71168e-05
5.33783e-05
3.57885e-05
4.64885e-05
3.40821e-05
4.01781e-05
3.23863e-05
3.46316e-05
3.07496e-05
2.95915e-05
2.96795e-05
2.48286e-05
2.94661e-05
1.99495e-05
3.03615e-05
1.43976e-05
3.26673e-05
7.87543e-06
3.58889e-05
1.82346e-07
3.96818e-05
-8.71123e-06
4.35985e-05
-1.86849e-05
4.72346e-05
-2.96318e-05
5.03825e-05
-4.12596e-05
5.28709e-05
-5.3363e-05
5.45889e-05
-6.56901e-05
5.53385e-05
-7.7967e-05
5.49951e-05
-8.99109e-05
5.33733e-05
-0.000101239
5.05603e-05
-0.000111644
4.6628e-05
-0.000120914
4.17598e-05
-0.000128863
3.6147e-05
-0.000135373
2.9931e-05
-0.000140319
2.33557e-05
-0.000143661
1.65973e-05
-0.000145446
9.81678e-06
-0.000145743
3.13621e-06
-0.000144675
-3.2457e-06
-0.000142385
-9.15602e-06
-0.000139006
-1.45427e-05
-0.000134674
-1.94114e-05
-0.000129511
-2.38031e-05
-0.000123634
-2.7755e-05
-0.000117102
-3.14928e-05
-0.000109905
-3.51903e-05
-0.000101978
-3.9023e-05
-9.3066e-05
-4.31409e-05
-8.27241e-05
-4.74864e-05
-7.12801e-05
-5.1184e-05
-5.91548e-05
-5.31956e-05
-4.72613e-05
-5.27559e-05
-3.63082e-05
-5.069e-05
-2.61558e-05
-4.96186e-05
-1.5336e-05
-5.38123e-05
-3.96625e-06
-5.81809e-05
-2.65718e-05
6.44331e-07
-1.61231e-05
7.618e-06
-4.85956e-05
1.37612e-05
-4.29095e-05
1.92407e-05
-3.94832e-05
2.63175e-05
-4.38653e-05
3.55625e-05
-5.02833e-05
4.66095e-05
-5.57257e-05
5.85663e-05
-5.87481e-05
7.03698e-05
-5.91205e-05
8.15517e-05
-5.77292e-05
9.21662e-05
-5.55451e-05
0.000102141
-5.26411e-05
0.000111369
-4.90537e-05
0.00011984
-4.49496e-05
0.000127405
-4.0179e-05
0.000134055
-3.48309e-05
0.000139594
-2.89214e-05
0.000143939
-2.2536e-05
0.000146988
-1.56912e-05
0.000148648
-8.52952e-06
0.000148867
-1.19899e-06
0.000147633
6.17842e-06
0.000144967
1.34188e-05
0.000140915
2.03347e-05
0.000135573
2.67334e-05
0.000129074
3.24413e-05
0.000121615
3.7335e-05
0.000113453
4.12555e-05
0.000104734
4.42984e-05
9.57095e-05
4.62776e-05
8.65442e-05
4.73683e-05
7.75614e-05
4.74935e-05
6.86147e-05
4.70034e-05
6.02169e-05
4.55161e-05
5.24387e-05
4.35686e-05
4.54038e-05
4.11185e-05
3.93085e-05
3.84829e-05
3.4089e-05
3.59706e-05
2.97217e-05
3.40475e-05
2.58153e-05
3.33727e-05
2.18355e-05
3.43408e-05
1.69934e-05
3.75078e-05
1.08985e-05
4.19817e-05
3.33214e-06
4.72464e-05
-5.74805e-06
5.26778e-05
-1.62008e-05
5.7687e-05
-2.78322e-05
6.20138e-05
-4.03238e-05
6.53624e-05
-5.34256e-05
6.76903e-05
-6.68286e-05
6.87411e-05
-8.0195e-05
6.83614e-05
-9.32331e-05
6.64116e-05
-0.000105598
6.29253e-05
-0.000116961
5.7991e-05
-0.000127024
5.18233e-05
-0.000135564
4.46869e-05
-0.000142468
3.6835e-05
-0.000147601
2.84889e-05
-0.000150939
1.99348e-05
-0.000152515
1.13915e-05
-0.000152464
3.08468e-06
-0.000150952
-4.7588e-06
-0.000148134
-1.19742e-05
-0.000144203
-1.84732e-05
-0.000139376
-2.42359e-05
-0.000133831
-2.93444e-05
-0.000127714
-3.38696e-05
-0.000121041
-3.81636e-05
-0.000113918
-4.23122e-05
-0.000106143
-4.67973e-05
-9.71975e-05
-5.20855e-05
-8.63439e-05
-5.83388e-05
-7.33742e-05
-6.4153e-05
-5.92957e-05
-6.72742e-05
-4.57051e-05
-6.63469e-05
-3.4005e-05
-6.23893e-05
-2.39645e-05
-5.96593e-05
-1.35783e-05
-6.41965e-05
-2.71077e-06
-6.90473e-05
-2.92822e-05
-5.72054e-07
-1.55509e-05
5.44911e-06
-5.46169e-05
1.03434e-05
-4.78039e-05
1.44812e-05
-4.36213e-05
2.11595e-05
-5.05436e-05
3.12332e-05
-6.0357e-05
4.4099e-05
-6.85914e-05
5.80812e-05
-7.27301e-05
7.14623e-05
-7.25013e-05
8.38021e-05
-7.00687e-05
9.51556e-05
-6.68984e-05
0.000105725
-6.32096e-05
0.000115687
-5.9016e-05
0.000124798
-5.40596e-05
0.000132995
-4.83753e-05
0.000140165
-4.20002e-05
0.000146245
-3.50012e-05
0.000151051
-2.73423e-05
0.000154486
-1.91259e-05
0.000156415
-1.04579e-05
0.000156719
-1.50327e-06
0.000155368
7.52916e-06
0.000152379
1.64082e-05
0.000147823
2.48911e-05
0.000141796
3.27608e-05
0.000134505
3.97317e-05
0.00012619
4.56505e-05
0.000117032
5.04132e-05
0.000107404
5.39267e-05
9.74431e-05
5.62389e-05
8.74979e-05
5.73133e-05
7.7597e-05
5.73938e-05
6.81593e-05
5.64403e-05
5.90229e-05
5.46512e-05
5.07768e-05
5.18137e-05
4.35649e-05
4.83288e-05
3.76125e-05
4.44337e-05
3.30447e-05
4.05366e-05
2.96682e-05
3.7421e-05
2.69928e-05
3.60456e-05
2.4281e-05
3.70518e-05
2.07033e-05
4.10863e-05
1.53264e-05
4.73602e-05
7.92128e-06
5.46535e-05
-1.47387e-06
6.20747e-05
-1.25987e-05
6.88126e-05
-2.51724e-05
7.45874e-05
-3.8829e-05
7.90186e-05
-5.32522e-05
8.21132e-05
-6.80658e-05
8.35546e-05
-8.28918e-05
8.31875e-05
-9.73456e-05
8.08653e-05
-0.000111045
7.6625e-05
-0.000123616
7.05614e-05
-0.000134706
6.2914e-05
-0.000144016
5.39965e-05
-0.000151405
4.42246e-05
-0.000156761
3.38461e-05
-0.000160047
2.32212e-05
-0.000161339
1.26849e-05
-0.000160805
2.55328e-06
-0.000158644
-6.91714e-06
-0.00015509
-1.55264e-05
-0.000150403
-2.31578e-05
-0.000144865
-2.97727e-05
-0.000138775
-3.54356e-05
-0.000132233
-4.04123e-05
-0.000125581
-4.48174e-05
-0.000118757
-4.91374e-05
-0.000111527
-5.40281e-05
-0.00010289
-6.07234e-05
-9.1547e-05
-6.96825e-05
-7.67435e-05
-7.89561e-05
-5.97041e-05
-8.43127e-05
-4.3362e-05
-8.26875e-05
-3.03282e-05
-7.54207e-05
-2.08273e-05
-6.9159e-05
-1.12956e-05
-7.37274e-05
-1.16155e-06
-7.91809e-05
-3.04436e-05
-2.18269e-06
-1.33683e-05
2.38291e-06
-5.91829e-05
5.78535e-06
-5.12067e-05
7.57993e-06
-4.54161e-05
1.34567e-05
-5.64205e-05
2.48273e-05
-7.17276e-05
4.05306e-05
-8.42946e-05
5.77809e-05
-8.99802e-05
7.33882e-05
-8.81086e-05
8.69227e-05
-8.36031e-05
9.90477e-05
-7.9023e-05
0.000110356
-7.45172e-05
0.000120941
-6.96013e-05
0.000130721
-6.38394e-05
0.000139588
-5.7242e-05
0.000147422
-4.98336e-05
0.000154171
-4.17504e-05
0.000159576
-3.27472e-05
0.000163519
-2.3069e-05
0.000165817
-1.27563e-05
0.000166276
-1.96226e-06
0.000164836
8.9694e-06
0.000161484
1.97606e-05
0.000156289
3.00856e-05
0.000149416
3.96341e-05
0.00014107
4.8078e-05
0.000131559
5.51614e-05
0.00012128
6.06913e-05
0.000110547
6.46598e-05
9.95365e-05
6.72481e-05
8.83902e-05
6.84592e-05
7.74228e-05
6.83606e-05
6.68796e-05
6.69835e-05
5.71238e-05
6.44073e-05
4.82592e-05
6.06789e-05
4.07978e-05
5.57899e-05
3.50222e-05
5.02092e-05
3.1175e-05
4.43844e-05
2.89907e-05
3.96059e-05
2.8304e-05
3.67333e-05
2.78626e-05
3.74951e-05
2.57904e-05
4.31603e-05
2.13723e-05
5.17796e-05
1.41623e-05
6.18638e-05
4.31459e-06
7.19219e-05
-7.72265e-06
8.08493e-05
-2.15578e-05
8.84224e-05
-3.67476e-05
9.42087e-05
-5.28134e-05
9.81797e-05
-6.93747e-05
0.000100117
-8.60367e-05
9.98501e-05
-0.000102344
9.71726e-05
-0.000117776
9.20584e-05
-0.000131888
8.46734e-05
-0.000144213
7.52399e-05
-0.000154486
6.42705e-05
-0.000162436
5.21754e-05
-0.000168001
3.94124e-05
-0.000171187
2.64084e-05
-0.000172095
1.35933e-05
-0.000170904
1.36118e-06
-0.000167822
-9.99972e-06
-0.000163254
-2.00967e-05
-0.000157564
-2.88511e-05
-0.000151128
-3.62115e-05
-0.00014425
-4.23157e-05
-0.000137277
-4.73855e-05
-0.00013051
-5.15852e-05
-0.000124208
-5.5439e-05
-0.000118165
-6.00712e-05
-0.000110711
-6.81763e-05
-9.92945e-05
-8.10988e-05
-8.17433e-05
-9.65074e-05
-5.94835e-05
-0.000106573
-3.88083e-05
-0.000103363
-2.40512e-05
-9.01789e-05
-1.50307e-05
-7.81797e-05
-6.51381e-06
-8.22448e-05
1.47628e-06
-8.71717e-05
-2.89689e-05
-5.13077e-06
-8.23776e-06
-5.10563e-06
-5.92086e-05
-2.75641e-06
-5.35563e-05
-2.58062e-06
-4.55921e-05
2.10531e-06
-6.11065e-05
1.59664e-05
-8.55888e-05
3.79222e-05
-0.000106251
6.0377e-05
-0.000112435
7.79393e-05
-0.000105671
9.15862e-05
-9.725e-05
0.000103929
-9.13655e-05
0.000115949
-8.65373e-05
0.000127408
-8.10598e-05
0.000138031
-7.44618e-05
0.000147645
-6.68563e-05
0.000156173
-5.83609e-05
0.000163636
-4.92141e-05
0.000169736
-3.88469e-05
0.000174304
-2.76375e-05
0.000177076
-1.55281e-05
0.000177804
-2.69114e-06
0.000176331
1.04426e-05
0.000172602
2.34888e-05
0.000166654
3.60331e-05
0.0001587
4.75878e-05
0.000149078
5.76999e-05
0.000138246
6.59936e-05
0.000126585
7.23538e-05
0.000114319
7.69265e-05
0.000101871
7.96985e-05
8.94297e-05
8.09019e-05
7.72316e-05
8.056e-05
6.5452e-05
7.87635e-05
5.46466e-05
7.52131e-05
4.50202e-05
7.03059e-05
3.69529e-05
6.38583e-05
3.0704e-05
5.64602e-05
2.68287e-05
4.82617e-05
2.64273e-05
4.00088e-05
2.96272e-05
3.35338e-05
3.35211e-05
3.36003e-05
3.41251e-05
4.2555e-05
3.02558e-05
5.5648e-05
2.25928e-05
6.95267e-05
1.18126e-05
8.27028e-05
-1.56877e-06
9.42319e-05
-1.69716e-05
0.000103827
-3.39553e-05
0.000111194
-5.20873e-05
0.000116313
-7.09032e-05
0.000118934
-8.9904e-05
0.000118852
-0.000108454
0.000115724
-0.000126059
0.000109664
-0.000141976
0.000100591
-0.000155883
8.91471e-05
-0.000167281
7.56684e-05
-0.000175903
6.07973e-05
-0.000181715
4.52238e-05
-0.000184725
2.94166e-05
-0.000185042
1.39093e-05
-0.000182946
-7.37208e-07
-0.000178605
-1.43418e-05
-0.000172713
-2.599e-05
-0.000165686
-3.58792e-05
-0.000158008
-4.38884e-05
-0.00015012
-5.02036e-05
-0.000142419
-5.50872e-05
-0.000135489
-5.85151e-05
-0.000129961
-6.0966e-05
-0.00012636
-6.36739e-05
-0.000123515
-7.10227e-05
-0.000115425
-8.91898e-05
-9.3632e-05
-0.000118302
-5.98346e-05
-0.000140371
-2.80353e-05
-0.000135163
-9.09496e-06
-0.000109121
-3.42814e-07
-8.69329e-05
6.46605e-06
-8.90537e-05
7.83574e-06
-8.85419e-05
-2.1132e-05
-8.10065e-06
-1.37421e-07
-1.9415e-05
-4.78942e-05
-2.0778e-05
-5.21937e-05
-2.12045e-05
-4.51659e-05
-1.83137e-05
-6.39974e-05
3.51736e-08
-0.000103938
3.42627e-05
-0.000140478
6.88657e-05
-0.000147038
9.00612e-05
-0.000126866
0.000100707
-0.000107896
0.000110327
-0.000100985
0.000122347
-9.85574e-05
0.000135095
-9.38073e-05
0.000146912
-8.62788e-05
0.000157434
-7.73784e-05
0.000166813
-6.77396e-05
0.000175101
-5.75028e-05
0.00018211
-4.58565e-05
0.000187513
-3.30407e-05
0.000190957
-1.89724e-05
0.000192085
-3.81939e-06
0.000190595
1.19329e-05
0.000186356
2.7727e-05
0.000179474
4.29153e-05
0.000170164
5.6898e-05
0.000158911
6.89533e-05
0.000146262
7.8644e-05
0.000132801
8.58141e-05
0.000118891
9.08364e-05
0.000104913
9.36745e-05
9.09351e-05
9.48792e-05
7.71706e-05
9.43241e-05
6.43415e-05
9.15926e-05
5.19675e-05
8.75884e-05
4.0747e-05
8.15271e-05
3.04306e-05
7.41753e-05
2.18264e-05
6.50655e-05
1.75632e-05
5.25253e-05
2.04426e-05
3.71292e-05
3.07541e-05
2.32226e-05
4.26083e-05
2.17469e-05
4.82371e-05
3.69277e-05
4.50431e-05
5.88438e-05
3.51155e-05
7.94565e-05
2.15576e-05
9.62626e-05
5.94441e-06
0.000109847
-1.14808e-05
0.000121253
-3.06039e-05
0.000130318
-5.12347e-05
0.000136944
-7.28848e-05
0.000140584
-9.48244e-05
0.000140792
-0.000116369
0.000137269
-0.000136573
0.000129869
-0.000154833
0.000118852
-0.000170453
0.000104767
-0.000183127
8.83429e-05
-0.000192605
7.0276e-05
-0.000198709
5.13284e-05
-0.000201427
3.21344e-05
-0.000200903
1.33867e-05
-0.000197434
-4.20597e-06
-0.000191697
-2.00794e-05
-0.00018403
-3.36568e-05
-0.000175126
-4.47848e-05
-0.000165736
-5.32788e-05
-0.000156289
-5.96509e-05
-0.000147197
-6.41808e-05
-0.0001393
-6.64151e-05
-0.00013544
-6.48274e-05
-0.000139913
-5.92018e-05
-0.000149974
-6.09618e-05
-0.000149701
-8.94623e-05
-0.000120786
-0.000147211
-6.60337e-05
-0.00019512
-9.69616e-06
-0.0001915
2.25029e-05
-0.00014132
3.19569e-05
-9.63881e-05
3.15455e-05
-8.86423e-05
1.86109e-05
-7.56106e-05
-2.52259e-06
-6.49104e-06
6.35349e-06
-3.34228e-05
-2.09615e-05
-4.93942e-05
-3.62229e-05
-5.67837e-05
-3.77766e-05
-6.04613e-05
-6.03199e-05
-3.87845e-05
-0.000125615
9.31938e-06
-0.000188582
6.16586e-05
-0.000199377
9.78981e-05
-0.000163106
0.000113047
-0.000123045
0.000119156
-0.000107094
0.00012808
-0.000107481
0.000141091
-0.000106818
0.000154498
-9.96861e-05
0.000166652
-8.95325e-05
0.000177681
-7.87689e-05
0.000187921
-6.77426e-05
0.000196728
-5.46627e-05
0.000203618
-3.99317e-05
0.000208109
-2.34634e-05
0.000209838
-5.54904e-06
0.000208362
1.34078e-05
0.000203578
3.25108e-05
0.00019545
5.10415e-05
0.000184329
6.80185e-05
0.00017088
8.24008e-05
0.000155966
9.35562e-05
0.000140224
0.000101555
0.000124434
0.000106627
0.000108551
0.000109559
9.29891e-05
0.000110443
7.81397e-05
0.000109176
6.30573e-05
0.000106676
4.85525e-05
0.000102094
3.36564e-05
9.64237e-05
1.93081e-05
8.85235e-05
8.41086e-06
7.59636e-05
6.59825e-06
5.43398e-05
1.55081e-05
2.82215e-05
3.29579e-05
5.77529e-06
5.27334e-05
1.97386e-06
6.60784e-05
2.35844e-05
6.63771e-05
5.85466e-05
5.44108e-05
9.1424e-05
3.59943e-05
0.00011468
1.56214e-05
0.000130221
-5.27961e-06
0.000142155
-2.71706e-05
0.00015221
-5.05838e-05
0.000160359
-7.53636e-05
0.000165365
-0.000100808
0.000166237
-0.00012603
0.000162492
-0.000149819
0.000153659
-0.000171102
0.000140136
-0.000188996
0.000122663
-0.000203157
0.000102504
-0.000213494
8.06142e-05
-0.000219919
5.77553e-05
-0.000222217
3.44328e-05
-0.000220568
1.17381e-05
-0.000215268
-9.50416e-06
-0.000206967
-2.83784e-05
-0.000196438
-4.41837e-05
-0.000184619
-5.66017e-05
-0.000172216
-6.56822e-05
-0.000160026
-7.18424e-05
-0.000148408
-7.57977e-05
-0.000140031
-7.47922e-05
-0.000141347
-6.35116e-05
-0.000155032
-4.55184e-05
-0.000168974
-4.70211e-05
-0.000162696
-9.57357e-05
-0.000125511
-0.000184398
-6.39951e-05
-0.000256639
1.04904e-05
-0.000265984
6.52929e-05
-0.000196118
7.90487e-05
-0.000110146
6.19643e-05
-7.15591e-05
2.83969e-05
-4.2042e-05
2.58727e-05
8.97234e-06
-2.61928e-06
-2.78235e-05
1.58294e-05
-7.67877e-05
1.27405e-05
-0.000107447
-7.11852e-06
-0.000129682
-3.80847e-05
-0.000122788
-0.000132509
-8.82802e-05
-0.00022309
-3.37318e-05
-0.000253926
3.24407e-05
-0.000229278
8.86974e-05
-0.000179301
0.000119876
-0.000138272
0.000133444
-0.000121049
0.000144122
-0.000117496
0.00015667
-0.000112234
0.000170109
-0.000102972
0.000183956
-9.26167e-05
0.0001977
-8.14865e-05
0.000210369
-6.73317e-05
0.000220189
-4.97528e-05
0.00022651
-2.97839e-05
0.000229115
-8.15475e-06
0.000228065
1.4458e-05
0.000222965
3.76116e-05
0.000213538
6.04689e-05
0.000199899
8.1657e-05
0.000182995
9.93055e-05
0.000164359
0.000112191
0.000145658
0.000120256
0.000127612
0.000124673
0.00011067
0.000126501
9.4559e-05
0.000126553
7.78694e-05
0.000125864
6.11352e-05
0.00012341
4.30447e-05
0.000120186
2.41965e-05
0.000115273
8.05164e-06
0.00010467
9.67319e-07
8.305e-05
5.939e-06
4.93703e-05
1.96232e-05
1.45395e-05
3.84184e-05
-1.30184e-05
5.95964e-05
-1.92031e-05
7.80975e-05
5.08399e-06
8.54244e-05
5.12204e-05
7.64427e-05
0.000100406
5.505e-05
0.000136074
2.9108e-05
0.000156163
2.8718e-06
0.000168392
-2.32243e-05
0.000178306
-4.99542e-05
0.000187089
-7.81455e-05
0.000193557
-0.000107492
0.000195585
-0.000136901
0.000191901
-0.000164872
0.00018163
-0.000189769
0.000165034
-0.000210511
0.000143404
-0.000226445
0.000118439
-0.00023745
9.16204e-05
-0.000243668
6.39741e-05
-0.000245339
3.61053e-05
-0.000242208
8.609e-06
-0.000234153
-1.7558e-05
-0.000221711
-4.08191e-05
-0.000205944
-5.99524e-05
-0.000188895
-7.36526e-05
-0.000172335
-8.22425e-05
-0.000156592
-8.75861e-05
-0.000143136
-8.92556e-05
-0.000134206
-8.37242e-05
-0.000129312
-6.8406e-05
-0.000118643
-5.61888e-05
-8.82411e-05
-7.74228e-05
-3.99189e-05
-0.000144058
7.90325e-06
-0.000232227
4.34009e-05
-0.000292144
7.63415e-05
-0.000298926
0.000113307
-0.000233084
0.000119922
-0.000116755
7.72225e-05
-2.88631e-05
2.37669e-05
1.14123e-05
4.96401e-05
5.16352e-05
-5.42551e-05
1.82867e-05
4.91452e-05
-7.54312e-05
0.000106447
-0.000151741
6.91885e-05
-0.000212682
2.28566e-05
-0.000255968
-8.9223e-05
-0.000279196
-0.000199862
-0.000255452
-0.00027767
-0.00016642
-0.00031831
-3.90087e-05
-0.000306712
7.1933e-05
-0.000249213
0.000136437
-0.000185552
0.000159964
-0.000141023
0.000167055
-0.000119325
0.000174413
-0.00011033
0.000186796
-0.000105
0.000202952
-9.76414e-05
0.000219593
-8.39725e-05
0.000233294
-6.34536e-05
0.000242283
-3.87717e-05
0.000246721
-1.25918e-05
0.000246834
1.43459e-05
0.000242105
4.23409e-05
0.000231598
7.09767e-05
0.000214913
9.83408e-05
0.000193927
0.000120292
0.000171908
0.000134209
0.000151079
0.000141084
0.000131616
0.000144135
0.000113134
0.000144981
9.48422e-05
0.000144845
7.65632e-05
0.000144143
5.70159e-05
0.000142959
3.71524e-05
0.00014005
1.93238e-05
0.000133102
9.15593e-06
0.000114838
1.10806e-05
8.11254e-05
2.07832e-05
3.96673e-05
3.16514e-05
3.6706e-06
4.65373e-05
-2.79047e-05
6.37151e-05
-3.63808e-05
7.89956e-05
-1.01962e-05
8.9645e-05
4.05713e-05
8.73793e-05
0.000102672
6.9313e-05
0.00015414
4.2175e-05
0.000183301
1.23835e-05
0.000198184
-1.72217e-05
0.000207912
-4.70591e-05
0.000216927
-7.83025e-05
0.000224801
-0.000111546
0.000228829
-0.000145533
0.000225888
-0.000178629
0.000214725
-0.000208352
0.000194756
-0.000232608
0.00016766
-0.000250238
0.000136068
-0.000261326
0.000102707
-0.000266696
6.93421e-05
-0.000266981
3.63876e-05
-0.000261822
3.44662e-06
-0.000250119
-2.92652e-05
-0.000232584
-5.83558e-05
-0.000210709
-8.18279e-05
-0.00018862
-9.57429e-05
-0.000169286
-0.000101577
-0.00015445
-0.000102421
-0.000142105
-0.000101599
-0.000123436
-0.000102392
-7.90402e-05
-0.000112802
8.1294e-06
-0.000143359
0.000128685
-0.000197979
0.000245975
-0.00026135
0.000308524
-0.000294776
0.000299174
-0.000282794
0.000242538
-0.000242304
0.000189918
-0.000180465
0.00014179
-6.86249e-05
6.10994e-05
5.18278e-05
-6.08957e-07
7.3118e-05
4.90297e-05
9.79075e-05
-0.000152023
0.000108853
3.81118e-05
-1.79998e-05
0.000233227
-0.000154246
0.000205434
-0.000265701
0.000134311
-0.000374054
1.91297e-05
-0.000456728
-0.000117188
-0.000472558
-0.00026184
-0.000398887
-0.00039198
-0.000246775
-0.000458824
-6.18078e-05
-0.000434181
9.84669e-05
-0.000345827
0.000190598
-0.000233154
0.000216867
-0.000145594
0.000212874
-0.000106337
0.000209725
-0.00010185
0.000217619
-0.000105535
0.000232842
-9.91956e-05
0.000248693
-7.93043e-05
0.000261418
-5.14959e-05
0.000269532
-2.07048e-05
0.000272233
1.16455e-05
0.000268386
4.61885e-05
0.000256626
8.27383e-05
0.000237607
0.00011736
0.00021479
0.000143109
0.000193135
0.000155865
0.000173974
0.000160245
0.000154841
0.000163268
0.000133558
0.000166264
0.000109884
0.000168519
8.44087e-05
0.000169618
6.01648e-05
0.000167201
4.0359e-05
0.000159855
2.86999e-05
0.00014476
2.8422e-05
0.000115115
3.55735e-05
7.39728e-05
4.18455e-05
3.33946e-05
4.77288e-05
-2.2126e-06
6.14998e-05
-4.16752e-05
7.39255e-05
-4.88062e-05
7.73507e-05
-1.36211e-05
7.86727e-05
3.92495e-05
7.51131e-05
0.000106232
6.16749e-05
0.000167579
3.90318e-05
0.000205945
1.28114e-05
0.000224405
-1.49176e-05
0.000235641
-4.52181e-05
0.000247228
-7.91355e-05
0.000258718
-0.000117223
0.000266917
-0.000158513
0.000267177
-0.000199717
0.000255929
-0.000236546
0.000231583
-0.000265357
0.00019647
-0.0002844
0.000155108
-0.000294619
0.000112924
-0.00029806
7.27805e-05
-0.000295531
3.38566e-05
-0.000286725
-5.36018e-06
-0.000271166
-4.48234e-05
-0.0002497
-7.98213e-05
-0.000226571
-0.000104957
-0.000206587
-0.000115725
-0.000195012
-0.000113151
-0.000189833
-0.000107599
-0.000173336
-0.000118095
-0.000113613
-0.000162115
1.73415e-05
-0.000243757
0.000210625
-0.000336641
0.00041327
-0.000400624
0.000560586
-0.000408665
0.000608544
-0.000342733
0.000555998
-0.000230249
0.000428134
-0.000114439
0.000276192
-2.85295e-05
0.000140837
6.6725e-05
2.17477e-05
0.000170899
-2.66031e-05
0.000121249
2.23528e-05
0.000131993
-0.000284258
0.000189652
-1.9723e-05
6.39674e-05
0.000357969
-9.83174e-05
0.000367719
-0.000235075
0.000271068
-0.000362609
0.000146664
-0.000454415
-2.5384e-05
-0.000485967
-0.000230288
-0.000436486
-0.000441461
-0.000320191
-0.000575119
-0.000167357
-0.000587014
5.33651e-06
-0.00051852
0.000165437
-0.000393254
0.000260961
-0.000241118
0.000285492
-0.000130868
0.000275913
-9.22708e-05
0.000267674
-9.72959e-05
0.000272774
-0.000104296
0.000286985
-9.35155e-05
0.000303769
-6.82791e-05
0.000317715
-3.46519e-05
0.000323883
5.47779e-06
0.000319851
5.02196e-05
0.000305029
9.75606e-05
0.000281722
0.000140667
0.000255348
0.000169483
0.000231239
0.000179973
0.000209058
0.000182425
0.000187041
0.000185285
0.000166463
0.000186842
0.000144757
0.000190223
0.000114903
0.000199471
8.38165e-05
0.000198288
6.28481e-05
0.000180824
5.55961e-05
0.000152013
5.91516e-05
0.00011156
6.56062e-05
6.75195e-05
7.07291e-05
2.82728e-05
8.2797e-05
-1.42802e-05
9.95015e-05
-5.83796e-05
0.000103767
-5.30717e-05
8.82735e-05
1.87249e-06
6.58655e-05
6.16575e-05
4.72063e-05
0.000124892
2.91574e-05
0.000185628
1.02331e-05
0.000224869
-8.13192e-06
0.00024277
-2.97397e-05
0.00025725
-6.02938e-05
0.000277782
-0.000100877
0.000299303
-0.000149499
0.000315539
-0.000203201
0.000320879
-0.000256431
0.000309159
-0.000302198
0.000277349
-0.000335321
0.000229593
-0.00035526
0.000175047
-0.000364672
0.000122336
-0.000365793
7.39019e-05
-0.000359177
2.72421e-05
-0.000344554
-1.99835e-05
-0.000323187
-6.61913e-05
-0.000299093
-0.000103914
-0.000278244