/*--------------------------------*- C++ -*----------------------------------*\
| =========                 |                                                 |
| \\      /  F ield         | OpenFOAM: The Open Source CFD Toolbox           |
|  \\    /   O peration     | Version:  2412                                  |
|   \\  /    A nd           | Website:  www.openfoam.com                      |
|    \\/     M anipulation  |                                                 |
\*---------------------------------------------------------------------------*/
FoamFile
{
    version     2.0;
    format      ascii;
    arch        "LSB;label=32;scalar=64";
    class       volScalarField;
    location    "5";
    object      p_rgh;
}
// * * * * * * * * * * * * * * * * * * * * * * * * * * * * * * * * * * * * * //

dimensions      [1 -1 -2 0 0 0 0];

internalField   nonuniform List<scalar> 
6400
(
15686.2
15686.2
15686.2
15686.2
15686.2
15686.2
15686.2
15686.2
15686.2
15686.2
15686.2
15686.2
15686.2
15686.2
15686.2
15686.2
15686.2
15686.2
15686.2
15686.2
15686.2
15686.2
15686.2
15686.2
15686.2
15686.2
15686.2
15686.2
15686.2
15686.2
15686.2
15686.2
15686.2
15686.2
15686.2
15686.2
15686.2
15686.2
15686.2
15686.2
15686.2
15686.2
15686.2
15686.2
15686.2
15686.2
15686.2
15686.2
15686.2
15686.2
15686.2
15686.2
15686.2
15686.2
15686.2
15686.2
15686.2
15686.2
15686.2
15686.2
15686.2
15686.2
15686.2
15686.2
15686.2
15686.2
15686.2
15686.2
15686.2
15686.2
15686.2
15686.2
15686.2
15686.2
15686.2
15686.2
15686.2
15686.2
15686.2
15686.2
15686.2
15686.2
15686.2
15686.2
15686.2
15686.2
15686.2
15686.2
15686.2
15686.2
15686.2
15686.2
15686.2
15686.2
15686.2
15686.2
15686.2
15686.2
15686.2
15686.2
15686.2
15686.2
15686.2
15686.2
15686.2
15686.2
15686.2
15686.2
15686.2
15686.2
15686.2
15686.2
15686.2
15686.2
15686.2
15686.2
15686.2
15686.2
15686.2
15686.2
15686.2
15686.2
15686.2
15686.2
15686.2
15686.2
15686.2
15686.2
15686.2
15686.2
15686.2
15686.2
15686.2
15686.2
15686.2
15686.2
15686.2
15686.2
15686.2
15686.2
15686.2
15686.2
15686.2
15686.2
15686.2
15686.2
15686.2
15686.2
15686.2
15686.2
15686.2
15686.2
15686.2
15686.2
15686.2
15686.2
15686.2
15686.2
15686.2
15686.2
15686.2
15686.2
15686.2
15686.2
15686.2
15686.2
15686.2
15686.2
15686.2
15686.2
15686.2
15686.2
15686.2
15686.2
15686.2
15686.2
15686.2
15686.2
15686.2
15686.2
15686.2
15686.2
15686.2
15686.2
15686.2
15686.2
15686.2
15686.2
15686.2
15686.2
15686.2
15686.2
15686.2
15686.2
15686.2
15686.2
15686.2
15686.2
15686.2
15686.2
15686.2
15686.2
15686.2
15686.2
15686.2
15686.2
15686.2
15686.2
15686.2
15686.2
15686.2
15686.2
15686.2
15686.2
15686.2
15686.2
15686.2
15686.2
15686.2
15686.2
15686.2
15686.2
15686.2
15686.2
15686.2
15686.2
15686.2
15686.2
15686.2
15686.2
15686.2
15686.2
15686.2
15686.2
15686.2
15686.2
15686.2
15686.2
15686.2
15686.2
15686.2
15686.2
15686.2
15686.2
15686.2
15686.2
15686.2
15686.2
15686.2
15686.2
15686.2
15686.2
15686.2
15686.2
15686.2
15686.2
15686.2
15686.2
15686.2
15686.2
15686.2
15686.2
15686.2
15686.2
15686.2
15686.2
15686.2
15686.2
15686.2
15686.2
15686.2
15686.2
15686.2
15686.2
15686.2
15686.2
15686.2
15686.2
15686.2
15686.2
15686.2
15686.2
15686.2
15686.2
15686.2
15686.2
15686.2
15686.2
15686.2
15686.2
15686.2
15686.2
15686.2
15686.2
15686.2
15686.2
15686.2
15686.2
15686.2
15686.2
15686.2
15686.2
15686.2
15686.2
15686.2
15686.2
15686.2
15686.2
15686.2
15686.2
15686.2
15686.2
15686.2
15686.2
15686.2
15686.2
15686.2
15686.2
15686.2
15686.2
15686.2
15686.2
15686.2
15686.2
15686.2
15686.2
15686.2
15686.2
15686.2
15686.2
15686.2
15686.2
15686.2
15686.2
15686.2
15686.2
15686.2
15686.2
15686.2
15686.2
15686.2
15686.2
15686.2
15686.2
15686.2
15686.2
15686.2
15686.2
15686.2
15686.2
15686.2
15686.2
15686.2
15686.2
15686.2
15686.2
15686.2
15686.2
15686.2
15686.2
15686.2
15686.2
15686.2
15686.2
15686.2
15686.2
15686.2
15686.2
15686.2
15686.2
15686.2
15686.2
15686.2
15686.2
15686.2
15686.2
15686.2
15686.2
15686.2
15686.2
15686.2
15686.2
15686.2
15686.2
15686.2
15686.2
15686.2
15686.2
15686.2
15686.2
15686.2
15686.2
15686.2
15686.2
15686.2
15686.2
15686.2
15686.2
15686.2
15686.2
15686.2
15686.2
15686.2
15686.2
15686.2
15686.2
15686.2
15686.2
15686.2
15686.2
15686.2
15686.2
15686.2
15686.2
15686.2
15686.2
15686.2
15686.2
15686.2
15686.2
15686.2
15686.2
15686.2
15686.2
15686.2
15686.2
15686.2
15686.2
15686.2
15686.2
15686.2
15686.2
15686.2
15686.2
15686.2
15686.2
15686.2
15686.2
15686.2
15686.2
15686.2
15686.2
15686.2
15686.2
15686.2
15686.2
15686.2
15686.2
15686.2
15686.2
15686.2
15686.2
15686.2
15686.2
15686.2
15686.2
15686.2
15686.2
15686.2
15686.2
15686.2
15686.2
15686.2
15686.2
15686.2
15686.2
15686.2
15686.2
15686.2
15686.2
15686.2
15686.2
15686.2
15686.2
15686.2
15686.2
15686.2
15686.2
15686.2
15686.2
15686.2
15686.2
15686.2
15686.2
15686.2
15686.2
15686.2
15686.2
15686.2
15686.2
15686.2
15686.2
15686.2
15686.2
15686.2
15686.2
15686.2
15686.2
15686.2
15686.2
15686.2
15686.2
15686.2
15686.2
15686.2
15686.2
15686.2
15686.2
15686.2
15686.2
15686.2
15686.2
15686.2
15686.2
15686.2
15686.2
15686.2
15686.2
15686.2
15686.2
15686.2
15686.2
15686.2
15686.2
15686.2
15686.2
15686.2
15686.2
15686.2
15686.2
15686.2
15686.2
15686.2
15686.2
15686.2
15686.2
15686.2
15686.2
15686.2
15686.2
15686.2
15686.2
15686.2
15686.2
15686.2
15686.2
15686.2
15686.2
15686.2
15686.2
15686.2
15686.2
15686.2
15686.2
15686.2
15686.2
15686.2
15686.2
15686.2
15686.2
15686.2
15686.2
15686.2
15686.2
15686.2
15686.2
15686.2
15686.2
15686.2
15686.2
15686.2
15686.2
15686.2
15686.2
15686.2
15686.2
15686.2
15686.2
15686.2
15686.2
15686.2
15686.2
15686.2
15686.2
15686.2
15686.2
15686.2
15686.2
15686.2
15686.2
15686.2
15686.2
15686.2
15686.2
15686.2
15686.2
15686.2
15686.2
15686.2
15686.2
15686.2
15686.2
15686.2
15686.2
15686.2
15686.2
15686.2
15686.2
15686.2
15686.2
15686.2
15686.2
15686.2
15686.2
15686.2
15686.2
15686.2
15686.2
15686.2
15686.2
15686.2
15686.2
15686.2
15686.2
15686.2
15686.2
15686.2
15686.2
15686.2
15686.2
15686.2
15686.2
15686.2
15686.2
15686.2
15686.2
15686.2
15686.2
15686.2
15686.2
15686.2
15686.2
15686.2
15686.2
15686.2
15686.2
15686.2
15686.2
15686.2
15686.2
15686.2
15686.2
15686.2
15686.2
15686.2
15686.2
15686.2
15686.2
15686.2
15686.2
15686.2
15686.2
15686.2
15686.2
15686.2
15686.2
15686.2
15686.2
15686.2
15686.2
15686.2
15686.2
15686.2
15686.2
15686.2
15686.2
15686.2
15686.2
15686.2
15686.2
15686.2
15686.2
15686.2
15686.2
15686.2
15686.2
15686.2
15686.2
15686.2
15686.2
15686.2
15686.2
15686.2
15686.2
15686.2
15686.2
15686.2
15686.2
15686.2
15686.2
15686.2
15686.2
15686.2
15686.2
15686.2
15686.2
15686.2
15686.2
15686.2
15686.2
15686.2
15686.2
15686.2
15686.2
15686.2
15686.2
15686.2
15686.2
15686.2
15686.2
15686.2
15686.2
15686.2
15686.2
15686.2
15686.2
15686.2
15686.2
15686.2
15686.2
15686.2
15686.2
15686.2
15686.2
15686.2
15686.2
15686.2
15686.2
15686.2
15686.2
15686.2
15686.2
15686.2
15686.2
15686.2
15686.2
15686.2
15686.2
15686.2
15686.2
15686.2
15686.2
15686.2
15686.2
15686.2
15686.2
15686.2
15686.2
15686.2
15686.2
15686.2
15686.2
15686.2
15686.2
15686.2
15686.2
15686.2
15686.2
15686.2
15686.2
15686.2
15686.2
15686.2
15686.2
15686.2
15686.2
15686.2
15686.2
15686.2
15686.2
15686.2
15686.2
15686.2
15686.2
15686.2
15686.2
15686.2
15686.2
15686.2
15686.2
15686.2
15686.2
15686.2
15686.2
15686.2
15686.2
15686.2
15686.2
15686.2
15686.2
15686.2
15686.2
15686.2
15686.2
15686.2
15686.2
15686.2
15686.2
15686.2
15686.2
15686.2
15686.2
15686.2
15686.2
15686.2
15686.2
15686.2
15686.2
15686.2
15686.2
15686.2
15686.2
15686.2
15686.2
15686.2
15686.2
15686.2
15686.2
15686.2
15686.2
15686.2
15686.2
15686.2
15686.2
15686.2
15686.2
15686.2
15686.2
15686.2
15686.2
15686.2
15686.2
15686.2
15686.2
15686.2
15686.2
15686.2
15686.2
15686.2
15686.2
15686.2
15686.2
15686.2
15686.2
15686.2
15686.2
15686.2
15686.2
15686.2
15686.2
15686.2
15686.2
15686.2
15686.2
15686.2
15686.2
15686.2
15686.2
15686.2
15686.2
15686.2
15686.2
15686.2
15686.2
15686.2
15686.2
15686.2
15686.2
15686.2
15686.2
15686.2
15686.2
15686.2
15686.2
15686.2
15686.2
15686.2
15686.2
15686.2
15686.2
15686.2
15686.2
15686.2
15686.2
15686.2
15686.2
15686.2
15686.2
15686.2
15686.2
15686.2
15686.2
15686.2
15686.2
15686.2
15686.2
15686.2
15686.2
15686.2
15686.2
15686.2
15686.2
15686.2
15686.2
15686.2
15686.2
15686.2
15686.2
15686.2
15686.2
15686.2
15686.2
15686.2
15686.2
15686.2
15686.2
15686.2
15686.2
15686.2
15686.2
15686.2
15686.2
15686.2
15686.2
15686.2
15686.2
15686.2
15686.2
15686.2
15686.2
15686.2
15686.2
15686.2
15686.2
15686.2
15686.2
15686.2
15686.2
15686.2
15686.2
15686.2
15686.2
15686.2
15686.2
15686.2
15686.2
15686.2
15686.2
15686.2
15686.2
15686.2
15686.2
15686.2
15686.2
15686.2
15686.2
15686.2
15686.2
15686.2
15686.2
15686.2
15686.2
15686.2
15686.2
15686.2
15686.2
15686.2
15686.2
15686.2
15686.2
15686.2
15686.2
15686.2
15686.2
15686.2
15686.2
15686.2
15686.2
15686.2
15686.2
15686.2
15686.2
15686.2
15686.2
15686.2
15686.2
15686.2
15686.2
15686.2
15686.2
15686.2
15686.2
15686.2
15686.2
15686.2
15686.2
15686.2
15686.2
15686.2
15686.2
15686.2
15686.2
15686.2
15686.2
15686.2
15686.2
15686.2
15686.2
15686.2
15686.2
15686.2
15686.2
15686.2
15686.2
15686.2
15686.2
15686.2
15686.2
15686.2
15686.2
15686.2
15686.2
15686.2
15686.2
15686.2
15686.2
15686.2
15686.2
15686.2
15686.2
15686.2
15686.2
15686.2
15686.2
15686.2
15686.2
15686.2
15686.2
15686.2
15686.2
15686.2
15686.2
15686.2
15686.2
15686.2
15686.2
15686.2
15686.2
15686.2
15686.2
15686.2
15686.2
15686.2
15686.2
15686.2
15686.2
15686.2
15686.2
15686.2
15686.2
15686.2
15686.2
15686.2
15686.2
15686.2
15686.2
15686.2
15686.2
15686.2
15686.2
15686.2
15686.2
15686.2
15686.2
15686.2
15686.2
15686.2
15686.2
15686.2
15686.2
15686.2
15686.2
15686.2
15686.2
15686.2
15686.2
15686.2
15686.2
15686.2
15686.2
15686.2
15686.2
15686.2
15686.2
15686.2
15686.2
15686.2
15686.2
15686.2
15686.2
15686.2
15686.2
15686.2
15686.2
15686.2
15686.2
15686.2
15686.2
15686.2
15686.2
15686.2
15686.2
15686.2
15686.2
15686.2
15686.2
15686.2
15686.2
15686.2
15686.2
15686.2
15686.2
15686.2
15686.2
15686.2
15686.2
15686.2
15686.2
15686.2
15686.2
15686.2
15686.2
15686.2
15686.2
15686.2
15686.2
15686.2
15686.2
15686.2
15686.2
15686.2
15686.2
15686.2
15686.2
15686.2
15686.2
15686.2
15686.2
15686.2
15686.2
15686.2
15686.2
15686.2
15686.2
15686.2
15686.2
15686.2
15686.2
15686.2
15686.2
15686.2
15686.2
15686.2
15686.2
15686.2
15686.2
15686.2
15686.2
15686.2
15686.2
15686.2
15686.2
15686.2
15686.2
15686.2
15686.2
15686.2
15686.2
15686.2
15686.2
15686.2
15686.2
15686.2
15686.2
15686.2
15686.2
15686.2
15686.2
15686.2
15686.2
15686.2
15686.2
15686.2
15686.2
15686.2
15686.2
15686.2
15686.2
15686.2
15686.2
15686.2
15686.2
15686.2
15686.2
15686.2
15686.2
15686.2
15686.2
15686.2
15686.2
15686.2
15686.2
15686.2
15686.2
15686.2
15686.2
15686.2
15686.2
15686.2
15686.2
15686.2
15686.2
15686.2
15686.2
15686.2
15686.2
15686.2
15686.2
15686.2
15686.2
15686.2
15686.2
15686.2
15686.2
15686.2
15686.2
15686.2
15686.2
15686.2
15686.2
15686.2
15686.2
15686.2
15686.2
15686.2
15686.2
15686.2
15686.2
15686.2
15686.2
15686.2
15686.2
15686.2
15686.2
15686.2
15686.2
15686.2
15686.2
15686.2
15686.2
15686.2
15686.2
15686.2
15686.2
15686.2
15686.2
15686.2
15686.2
15686.2
15686.2
15686.2
15686.2
15686.2
15686.2
15686.2
15686.2
15686.2
15686.2
15686.2
15686.2
15686.2
15686.2
15686.2
15686.2
15686.2
15686.2
15686.2
15686.2
15686.2
15686.2
15686.2
15686.2
15686.2
15686.2
15686.2
15686.2
15686.2
15686.2
15686.2
15686.2
15686.2
15686.2
15686.2
15686.2
15686.2
15686.2
15686.2
15686.2
15686.2
15686.2
15686.2
15686.2
15686.2
15686.2
15686.2
15686.2
15686.2
15686.2
15686.2
15686.2
15686.2
15686.2
15686.2
15686.2
15686.2
15686.2
15686.2
15686.2
15686.2
15686.2
15686.2
15686.2
15686.2
15686.2
15686.2
15686.2
15686.2
15686.2
15686.2
15686.2
15686.2
15686.2
15686.2
15686.2
15686.2
15686.2
15686.2
15686.2
15686.2
15686.2
15686.2
15686.2
15686.2
15686.2
15686.2
15686.2
15686.2
15686.2
15686.2
15686.2
15686.2
15686.2
15686.2
15686.2
15686.2
15686.2
15686.2
15686.2
15686.2
15686.2
15686.2
15686.2
15686.2
15686.2
15686.2
15686.2
15686.2
15686.2
15686.2
15686.2
15686.2
15686.2
15686.2
15686.2
15686.2
15686.2
15686.2
15686.2
15686.2
15686.2
15686.2
15686.2
15686.2
15686.2
15686.2
15686.2
15686.2
15686.2
15686.2
15686.2
15686.2
15686.2
15686.2
15686.2
15686.2
15686.2
15686.2
15686.2
15686.2
15686.2
15686.2
15686.2
15686.2
15686.2
15686.2
15686.2
15686.2
15686.2
15686.2
15686.2
15686.2
15686.2
15686.2
15686.2
15686.2
15686.2
15686.2
15686.2
15686.2
15686.2
15686.2
15686.2
15686.2
15686.2
15686.2
15686.2
15686.2
15686.2
15686.2
15686.2
15686.2
15686.2
15686.2
15686.2
15686.2
15686.2
15686.2
15686.2
15686.2
15686.2
15686.2
15686.2
15686.2
15686.2
15686.2
15686.2
15686.2
15686.2
15686.2
15686.2
15686.2
15686.2
15686.2
15686.2
15686.2
15686.2
15686.2
15686.2
15686.2
15686.3
15686.3
15686.2
15686.2
15686.2
15686.2
15686.2
15686.2
15686.2
15686.2
15686.2
15686.2
15686.2
15686.2
15686.2
15686.2
15686.2
15686.2
15686.2
15686.2
15686.2
15686.2
15686.2
15686.2
15686.2
15686.2
15686.2
15686.2
15686.2
15686.2
15686.2
15686.2
15686.2
15686.2
15686.2
15686.2
15686.2
15686.2
15686.2
15686.2
15686.2
15686.2
15686.2
15686.2
15686.2
15686.2
15686.2
15686.2
15686.2
15686.2
15686.2
15686.2
15686.2
15686.2
15686.2
15686.2
15686.2
15686.2
15686.2
15686.2
15686.2
15686.2
15686.2
15686.2
15686.2
15686.2
15686.2
15686.2
15686.2
15686.2
15686.2
15686.2
15686.2
15686.2
15686.2
15686.2
15686.2
15686.2
15686.2
15686.2
15686.2
15686.2
15686.2
15686.2
15686.2
15686.2
15686.2
15686.2
15686.2
15686.2
15686.2
15686.2
15686.2
15686.2
15686.2
15686.2
15686.2
15686.2
15686.2
15686.2
15686.2
15686.2
15686.2
15686.2
15686.2
15686.2
15686.2
15686.2
15686.2
15686.2
15686.2
15686.2
15686.2
15686.2
15686.2
15686.2
15686.2
15686.2
15686.2
15686.2
15686.2
0.0673407
0.0784387
0.0779159
0.0782616
0.0786562
0.0784654
0.0778901
0.0769984
0.0756021
0.0736716
0.0712109
0.0685609
0.0662271
0.0645523
0.0629409
0.060932
0.0590267
0.0569088
0.0545844
0.0520875
0.0498482
0.0477399
0.0460773
0.044991
0.0448991
0.0466886
0.048819
0.0513753
0.0544105
0.057738
0.0613578
0.0653622
0.0695965
0.0740423
0.0784045
0.0823741
0.0856646
0.0882858
0.0897925
0.0909025
0.090641
0.0890488
0.0865605
0.0834325
0.0795087
0.0751077
0.070827
0.0664906
0.0622592
0.0582809
0.0545139
0.0512261
0.0483272
0.0460344
0.0440861
0.042469
0.0412059
0.040289
0.039529
0.0391246
0.0387742
0.0384412
0.0380908
0.0376197
0.0371079
0.0373043
0.0387216
0.0400244
0.0413692
0.0424492
0.0431636
0.0435849
0.0435796
0.0432789
0.0429128
0.0422205
0.0403281
0.0375681
0.0340834
0.0224
0.00484634
0.00487083
0.00491728
0.00498765
0.00508361
0.00520682
0.00535935
0.0055438
0.00576351
0.00602271
0.00632669
0.00668139
0.00709301
0.00756944
0.00812149
0.00876072
0.00950126
0.0103618
0.0113641
0.0125318
0.0138927
0.0154753
0.0173018
0.0193818
0.0217163
0.0243589
0.0273697
0.030773
0.0346017
0.0388805
0.0436029
0.0487361
0.0542078
0.0599045
0.065597
0.0709528
0.0756931
0.0795306
0.0822187
0.0836027
0.0836035
0.0822183
0.0795548
0.0757892
0.0711651
0.0659764
0.0604397
0.0547454
0.0492024
0.0439446
0.0390724
0.0346373
0.0306432
0.0270634
0.0238585
0.0209982
0.018455
0.0162039
0.0142267
0.0125036
0.0110128
0.00973452
0.00864414
0.00771724
0.00693112
0.00626216
0.00568905
0.0052023
0.00479382
0.00445044
0.00416146
0.00391818
0.00371408
0.00354429
0.00340489
0.00329294
0.00320634
0.00314333
0.00310232
0.00308421
0.00490835
0.00493237
0.00497996
0.00505239
0.0051509
0.00527717
0.00543338
0.00562226
0.00584715
0.00611213
0.00642212
0.00678291
0.00720127
0.00768514
0.00824408
0.00888943
0.00963452
0.0104952
0.0114903
0.0126413
0.013973
0.0155132
0.0172893
0.0193236
0.0216364
0.0242572
0.0272235
0.0305714
0.0343334
0.0385299
0.0431598
0.0481962
0.0535688
0.0592366
0.0649852
0.0705865
0.0756679
0.0798643
0.0828561
0.0844208
0.0844607
0.08298
0.0800903
0.0760047
0.0710216
0.0654774
0.0597108
0.0540103
0.0485486
0.0433929
0.0386196
0.0342675
0.0303414
0.0268201
0.0236719
0.0208659
0.0183726
0.0161678
0.0142307
0.0125411
0.011078
0.009819
0.00874069
0.00781974
0.00703406
0.00636389
0.00579322
0.00530886
0.00489856
0.00455113
0.00425714
0.004009
0.00380065
0.00362717
0.00348468
0.00337008
0.0032808
0.00321482
0.0031708
0.00314759
0.00485409
0.00487722
0.00492337
0.00499375
0.00508963
0.00521267
0.00536501
0.00554933
0.00576892
0.00602778
0.00633066
0.00668319
0.00709206
0.00756538
0.00811279
0.00874559
0.00947721
0.0103233
0.0113018
0.0124325
0.0137376
0.0152405
0.0169652
0.0189374
0.0211854
0.0237417
0.0266412
0.02992
0.0336156
0.0377599
0.0423756
0.0474712
0.0530304
0.0589019
0.0649584
0.0709503
0.076505
0.0811909
0.0845973
0.0864164
0.0864974
0.0848324
0.0815609
0.076978
0.0714855
0.0655095
0.0594229
0.0534851
0.0478254
0.042593
0.0378151
0.0334951
0.0296222
0.0261689
0.0230978
0.0203706
0.017953
0.0158163
0.0139374
0.0122953
0.0108694
0.0096391
0.00858306
0.00768012
0.0069101
0.00625437
0.00569595
0.00522059
0.00481674
0.00447437
0.00418479
0.00394068
0.003736
0.00356587
0.00342633
0.0033142
0.00322705
0.003163
0.00312057
0.00309873
0.00480595
0.00482845
0.00487313
0.00494119
0.0050338
0.00515253
0.0052994
0.00547695
0.00568827
0.00593713
0.00622805
0.00656639
0.00695852
0.00741203
0.00793597
0.00854108
0.00924002
0.0100476
0.0109806
0.0120582
0.0133012
0.014732
0.0163747
0.0182548
0.0204015
0.022848
0.0256317
0.0287944
0.0323822
0.0364436
0.0410244
0.0461587
0.0518575
0.0580956
0.0647206
0.0714612
0.0778762
0.0834037
0.0874863
0.089705
0.08985
0.0878946
0.0840127
0.0786105
0.0722417
0.0654689
0.058748
0.0523724
0.0465136
0.0412104
0.0364471
0.0321938
0.0284176
0.0250772
0.0221272
0.0195225
0.0172225
0.0151938
0.0134099
0.0118489
0.0104911
0.00931707
0.00830759
0.00744322
0.00670519
0.0060761
0.00554044
0.00508488
0.00469808
0.0043702
0.00409278
0.00385879
0.0036625
0.00349923
0.00336522
0.00325745
0.00317354
0.00311162
0.00307034
0.00304873
0.00472161
0.00474291
0.00478516
0.00484951
0.00493705
0.00504924
0.00518794
0.00535551
0.00555478
0.0057892
0.0060629
0.00638082
0.00674885
0.00717402
0.00766471
0.00823082
0.00888401
0.00963785
0.0105079
0.0115116
0.0126684
0.0139996
0.0155284
0.0172803
0.0192846
0.0215755
0.0241936
0.0271878
0.0306172
0.0345514
0.0390691
0.0442483
0.0501519
0.0568434
0.0642373
0.0720685
0.0797854
0.0865962
0.0916873
0.0944903
0.0947363
0.092363
0.0875622
0.0809124
0.0732222
0.0652825
0.0576835
0.0507473
0.0446075
0.0392085
0.0344826
0.0303454
0.0267241
0.0235536
0.0207756
0.0183378
0.0161948
0.0143093
0.0126523
0.011201
0.00993642
0.00884078
0.00789687
0.00708749
0.00639586
0.00580621
0.00530424
0.00487734
0.00451471
0.00420708
0.00394665
0.00372691
0.00354253
0.00338913
0.0032632
0.00316189
0.00308295
0.00302468
0.00298581
0.00296541
0.0046109
0.00463068
0.00466978
0.0047293
0.00481023
0.00491385
0.00504186
0.00519631
0.00537975
0.00559523
0.0058464
0.00613766
0.00647425
0.00686245
0.00730977
0.00782508
0.00841887
0.00910329
0.00989229
0.0108016
0.0118488
0.0130531
0.0144361
0.0160221
0.0178394
0.0199226
0.0223146
0.0250708
0.0282632
0.0319847
0.036353
0.0415032
0.0475603
0.0547576
0.0631073
0.0724475
0.0820881
0.0908217
0.0973736
0.100997
0.101394
0.0984482
0.0922971
0.0837763
0.0741515
0.0645893
0.055853
0.0482509
0.0418687
0.0364306
0.0318165
0.0278786
0.0244964
0.021574
0.0190354
0.0168199
0.0148789
0.013174
0.011676
0.0103625
0.0092156
0.00821979
0.00736012
0.00662182
0.00599035
0.00545177
0.00499322
0.00460326
0.00427194
0.00399081
0.00375275
0.00355182
0.00338317
0.00324283
0.00312756
0.00303478
0.00296243
0.00290896
0.00287325
0.0028544
0.0044756
0.00449355
0.00452886
0.00458256
0.0046555
0.0047488
0.00486388
0.00500251
0.00516684
0.00535946
0.00558345
0.00584254
0.00614119
0.00648475
0.00687966
0.00733356
0.00785549
0.00845597
0.00914702
0.00994224
0.0108567
0.0119073
0.0131126
0.0144941
0.0160779
0.0178966
0.0199934
0.0224274
0.0252802
0.0286651
0.0327393
0.0377133
0.0438595
0.0513528
0.0606926
0.0719986
0.0844031
0.0959942
0.104656
0.109422
0.110049
0.106336
0.0981834
0.0869179
0.074519
0.0627958
0.0527324
0.0446695
0.0380517
0.0327197
0.0283669
0.0247546
0.0217157
0.0191301
0.0169062
0.0149752
0.0132865
0.0118025
0.0104964
0.00934812
0.00834255
0.00746678
0.00670873
0.00605635
0.00549759
0.00502067
0.00461451
0.00426909
0.00397562
0.00372658
0.00351564
0.00333756
0.00318803
0.00306353
0.00296121
0.00287879
0.00281446
0.00276684
0.00273494
0.00271797
0.00431725
0.0043331
0.00436404
0.00441105
0.00447481
0.00455623
0.00465646
0.00477691
0.0049193
0.00508566
0.00527845
0.00550059
0.00575565
0.00604791
0.00638255
0.00676579
0.00720497
0.00770866
0.00828665
0.00894991
0.00971054
0.0105818
0.0115785
0.0127179
0.014021
0.0155159
0.0172417
0.019255
0.0216384
0.0245132
0.0280602
0.032543
0.0383107
0.045822
0.0558624
0.0695494
0.0860976
0.102634
0.114183
0.120237
0.121083
0.116475
0.105104
0.0895101
0.0732799
0.0588944
0.0474111
0.0391212
0.0327429
0.0278462
0.0240184
0.0209322
0.0183814
0.0162373
0.014408
0.0128247
0.0114385
0.0102156
0.00913341
0.00817657
0.00733398
0.00659654
0.00595561
0.00540233
0.00492743
0.00452158
0.00417573
0.00388153
0.00363156
0.0034194
0.00323966
0.00308786
0.00296033
0.00285408
0.00276669
0.00269622
0.00264114
0.00260026
0.00257277
0.00255798
0.00413815
0.00415166
0.00417776
0.00421735
0.00427095
0.00433923
0.00442303
0.00452338
0.00464149
0.00477881
0.00493706
0.00511833
0.00532513
0.00556056
0.00582841
0.00613323
0.0064805
0.00687654
0.00732855
0.0078444
0.00843256
0.00910197
0.00986225
0.0107244
0.0117023
0.0128153
0.0140926
0.0155792
0.0173448
0.0194982
0.0222152
0.0257726
0.0305561
0.0371305
0.0466513
0.0629882
0.0861896
0.110352
0.125598
0.133527
0.134878
0.129675
0.114351
0.0910078
0.0683437
0.0510915
0.0396053
0.0313618
0.0257179
0.0216775
0.0186984
0.0163871
0.0145048
0.0129273
0.0115791
0.0104058
0.00936897
0.00844341
0.00761389
0.0068715
0.00621073
0.00562724
0.00511656
0.00467342
0.00429171
0.00396476
0.0036858
0.00344834
0.00324652
0.00307518
0.00292996
0.00280726
0.0027041
0.00261807
0.00254723
0.00249001
0.00244519
0.00241181
0.00238922
0.00237684
0.00394082
0.00395181
0.00397272
0.00400435
0.00404703
0.0041012
0.00416736
0.00424613
0.0043382
0.00444436
0.00456557
0.00470296
0.00485796
0.00503234
0.00522836
0.0054488
0.00569702
0.0059769
0.00629271
0.00664886
0.00704962
0.0074988
0.00799973
0.00855554
0.00917021
0.00985035
0.0106084
0.011467
0.0124651
0.0136682
0.0151978
0.0172834
0.0202169
0.024299
0.0314189
0.0460716
0.0731315
0.0998581
0.125997
0.141632
0.145706
0.137612
0.116259
0.0866766
0.055668
0.0360228
0.0258387
0.0202633
0.0166287
0.0141417
0.0124355
0.0111693
0.0101382
0.00925371
0.00847288
0.00776851
0.00712261
0.00652492
0.00597133
0.00546168
0.00499746
0.00458004
0.0042097
0.00388517
0.00360375
0.00336167
0.0031546
0.00297809
0.00282795
0.00270042
0.00259225
0.00250078
0.00242378
0.00235947
0.00230641
0.00226344
0.00222965
0.00220433
0.00218701
0.00217723
0.00372796
0.00373632
0.00375179
0.00377507
0.00380633
0.00384574
0.00389347
0.00394968
0.00401453
0.00408814
0.00417064
0.00426218
0.00436302
0.00447355
0.00459439
0.00472643
0.00487079
0.00502872
0.00520138
0.00538943
0.00559254
0.00580888
0.00603463
0.0062638
0.0064883
0.00669845
0.00688379
0.00703421
0.00713993
0.00718902
0.00718608
0.00721483
0.00722601
0.00601815
0.0022403
0.00445231
0.0389578
0.099818
0.123785
0.142013
0.150046
0.136296
0.0802308
0.046099
0.0229163
0.00696411
0.00508423
0.00569918
0.00549897
0.00535215
0.00539735
0.00544051
0.00541408
0.00532069
0.00517251
0.00498093
0.00475596
0.00450728
0.00424521
0.00398026
0.0037221
0.00347854
0.00325501
0.00305453
0.002878
0.00272468
0.00259276
0.00247996
0.00238382
0.00230204
0.00223259
0.00217374
0.00212409
0.0020825
0.00204805
0.00201999
0.00199776
0.00198089
0.00196909
0.00196204
0.00350241
0.00350806
0.00351796
0.00353272
0.00355231
0.00357663
0.00360553
0.00363872
0.00367579
0.00371619
0.00375921
0.00380399
0.00384958
0.00389495
0.00393904
0.00398078
0.004019
0.00405226
0.00407852
0.00409457
0.0040954
0.00407329
0.00401695
0.00391065
0.00373321
0.00345666
0.00304399
0.00244572
0.00159226
0.000374487
-0.00135811
-0.00372099
-0.00719847
-0.014727
-0.0303278
-0.0410489
0.000807441
0.22822
0.268484
0.206996
0.203231
0.249825
0.203317
0.0323053
-0.0292584
-0.0408843
-0.0228297
-0.0113257
-0.00695249
-0.00420131
-0.00206204
-0.00053862
0.000527305
0.0012748
0.00178912
0.00212896
0.0023368
0.002445
0.00247994
0.00246382
0.00241503
0.00234809
0.00227379
0.00219949
0.00212971
0.00206675
0.0020114
0.00196349
0.00192238
0.00188725
0.00185726
0.0018317
0.00180996
0.00179157
0.00177612
0.00176332
0.00175291
0.00174468
0.00173854
0.00173427
0.00326706
0.00327
0.00327433
0.00328055
0.00328846
0.00329772
0.0033078
0.003318
0.00332736
0.00333465
0.00333831
0.0033365
0.00332704
0.00330748
0.0032751
0.00322687
0.00315936
0.00306847
0.00294904
0.00279416
0.00259424
0.00233592
0.00200068
0.00156333
0.000989956
0.000234671
-0.000765753
-0.00209982
-0.00389592
-0.00635412
-0.00974604
-0.014311
-0.0207583
-0.0322168
-0.0507702
-0.0623809
-0.0354175
0.339046
0.831426
0.955204
0.846948
1.93161
2.52449
0.0752487
-0.0761505
-0.0803975
-0.0476813
-0.0277731
-0.019279
-0.0136281
-0.00940493
-0.00642579
-0.00428705
-0.00271457
-0.00155149
-0.000691788
-6.06216e-05
0.0003968
0.000722719
0.000950775
0.00110783
0.0012149
0.00128791
0.0013384
0.00137437
0.00140106
0.00142175
0.00143836
0.001452
0.0014633
0.00147263
0.00148026
0.00148637
0.00149114
0.0014947
0.00149715
0.00149856
0.00149899
0.00149851
0.00149703
0.00302482
0.0030251
0.00302397
0.00302183
0.00301831
0.00301281
0.00300451
0.00299226
0.00297458
0.00294958
0.0029149
0.00286771
0.00280468
0.00272197
0.00261524
0.0024796
0.00230946
0.00209826
0.00183796
0.00151826
0.00112551
0.000641297
4.07355e-05
-0.00070968
-0.00165492
-0.00285603
-0.00439795
-0.00640084
-0.00904044
-0.0125874
-0.0173897
-0.0237565
-0.0326467
-0.0475355
-0.0681412
-0.0770029
-0.0743377
3.31801
3.69692
6.20765
5.92568
4.64761
6.2331
-0.00423964
-0.11802
-0.0979271
-0.0618916
-0.0406262
-0.0297194
-0.0218497
-0.0160143
-0.011841
-0.00877617
-0.0064715
-0.00472176
-0.00338543
-0.00236222
-0.00157885
-0.000979555
-0.000520782
-0.000168234
0.000104851
0.000318961
0.000489384
0.000627281
0.000740599
0.000834906
0.000914093
0.000980916
0.00103738
0.001085
0.00112498
0.00115828
0.00118568
0.00120781
0.00122518
0.00123818
0.0012471
0.00125216
0.00125343
0.00277858
0.00277629
0.00276991
0.00275975
0.00274527
0.00272565
0.00269976
0.00266607
0.00262259
0.00256683
0.00249566
0.00240534
0.00229143
0.0021488
0.00197162
0.00175327
0.00148623
0.00116177
0.000769351
0.00029583
-0.000275782
-0.000967926
-0.00181055
-0.00284364
-0.0041206
-0.00571337
-0.00772125
-0.0102836
-0.0136029
-0.0179899
-0.0238351
-0.0314973
-0.0421493
-0.0592443
-0.0803035
-0.0893716
-0.0769993
33.0093
18.4556
38.4812
35.5303
6.61811
6.37152
-0.0813006
-0.128037
-0.0971044
-0.0680424
-0.0489996
-0.0371697
-0.0281849
-0.0214423
-0.0164711
-0.0127189
-0.00983755
-0.00760515
-0.0058639
-0.00449972
-0.00342783
-0.00258325
-0.0019152
-0.00138375
-0.000957615
-0.000612619
-0.000330363
-9.70049e-05
9.77389e-05
0.000261467
0.000399818
0.000517035
0.000616383
0.000700429
0.000771234
0.000830468
0.000879491
0.0009194
0.000951066
0.00097517
0.000992224
0.00100262
0.00100652
0.00253107
0.00252637
0.00251506
0.00249737
0.00247262
0.00243978
0.00239745
0.00234375
0.00227625
0.00219188
0.00208684
0.00195655
0.00179558
0.00159763
0.00135552
0.00106114
0.00070534
0.000277584
-0.000234609
-0.000846593
-0.00157776
-0.00245331
-0.00350659
-0.00478189
-0.00633808
-0.00825325
-0.0106334
-0.0136238
-0.0174302
-0.0223634
-0.0288159
-0.037171
-0.0485888
-0.0655921
-0.0844267
-0.0932117
-0.0819609
61.9959
3409.77
1572.75
1579.85
3141.26
2.26102
-0.096045
-0.11307
-0.0887723
-0.0688023
-0.0530734
-0.0416191
-0.0325423
-0.0255276
-0.0201536
-0.0159787
-0.012702
-0.0101132
-0.0080567
-0.00641653
-0.00510417
-0.00405061
-0.0032012
-0.0025126
-0.00195058
-0.00148836
-0.00110521
-0.000785195
-0.00051615
-0.000288794
-9.60136e-05
6.77178e-05
0.000206759
0.000324602
0.000424075
0.00050748
0.00057669
0.000633219
0.00067827
0.000712785
0.000737478
0.00075288
0.000759263
0.00228493
0.00227799
0.00226216
0.00223757
0.00220342
0.00215851
0.0021012
0.0020293
0.00194
0.00182974
0.00169413
0.00152786
0.00132463
0.00107713
0.00077703
0.000415004
-1.93803e-05
-0.000537935
-0.00115451
-0.00188602
-0.0027532
-0.00378262
-0.00500913
-0.00647903
-0.00825424
-0.0104143
-0.0130654
-0.0163494
-0.0204579
-0.0256689
-0.0323461
-0.0408335
-0.0520782
-0.0680636
-0.0838224
-0.0898603
-0.0829244
81.0777
13281.9
11672.4
11691.6
13120.4
-0.0920176
-0.0930096
-0.0969944
-0.0811809
-0.0667981
-0.0540358
-0.0437151
-0.0351663
-0.0283116
-0.0228616
-0.0185058
-0.0150088
-0.0121926
-0.00991643
-0.00807156
-0.00657271
-0.00535166
-0.00435327
-0.00353306
-0.0028555
-0.00229241
-0.0018216
-0.00142566
-0.00109104
-0.000807182
-0.000565824
-0.0003604
-0.000185643
-3.7287e-05
8.81484e-05
0.0001935
0.000281083
0.000352769
0.000410049
0.000454093
0.000485785
0.000505784
0.000514451
0.00204255
0.00203361
0.00201373
0.00198299
0.00194047
0.00188484
0.00181426
0.00172629
0.0016178
0.00148483
0.0013225
0.0011249
0.00088503
0.000594729
0.000244734
-0.000175215
-0.000676392
-0.00127128
-0.00197432
-0.00280382
-0.00378066
-0.00493124
-0.00628997
-0.00790223
-0.00983332
-0.0121594
-0.0149811
-0.0184315
-0.0226793
-0.0279478
-0.0345853
-0.0428979
-0.0533387
-0.0682702
-0.0805264
-0.0872676
-0.0814129
95.6654
13805.2
13792.3
13794.7
13811.7
1.15021
-0.0827526
-0.0878499
-0.0759239
-0.0641398
-0.053328
-0.0442199
-0.0364118
-0.029962
-0.0246692
-0.0203199
-0.0167501
-0.0138249
-0.0114199
-0.0094406
-0.00781025
-0.00646519
-0.00535251
-0.00442845
-0.00365773
-0.00301198
-0.00246844
-0.00200875
-0.0016185
-0.00128631
-0.0010031
-0.00076155
-0.000555693
-0.000380647
-0.00023241
-0.000107713
-3.88505e-06
8.12376e-05
0.000149385
0.000201913
0.000239851
0.000263961
0.000274678
0.00180613
0.00179543
0.00177204
0.00173598
0.00168625
0.00162141
0.00153948
0.00143781
0.00131303
0.00116088
0.00097612
0.000752373
0.000482104
0.000156523