/*--------------------------------*- C++ -*----------------------------------*\
| =========                 |                                                 |
| \\      /  F ield         | OpenFOAM: The Open Source CFD Toolbox           |
|  \\    /   O peration     | Version:  2412                                  |
|   \\  /    A nd           | Website:  www.openfoam.com                      |
|    \\/     M anipulation  |                                                 |
\*---------------------------------------------------------------------------*/
FoamFile
{
    version     2.0;
    format      ascii;
    arch        "LSB;label=32;scalar=64";
    class       volScalarField;
    location    "7.65";
    object      p_rgh;
}
// * * * * * * * * * * * * * * * * * * * * * * * * * * * * * * * * * * * * * //

dimensions      [1 -1 -2 0 0 0 0];

internalField   nonuniform List<scalar> 
6400
(
15798.2
15797.5
15795.5
15791.9
15787.3
15782
15776.5
15771
15765.6
15760.4
15755.6
15751.2
15747.3
15743.8
15740.9
15738.4
15736.6
15735.5
15735.3
15736
15738
15741.4
15746.4
15753.2
15761.9
15772.6
15785.3
15800.1
15816.7
15834.8
15854.1
15874.2
15894.5
15914.2
15932.9
15949.7
15964.1
15975.5
15983.4
15987.5
15987.7
15984
15976.4
15965.4
15951.3
15934.8
15916.4
15896.9
15877
15857.1
15838
15820.1
15803.7
15789
15776.3
15765.5
15756.5
15749.3
15743.8
15739.8
15737.3
15736
15735.9
15736.7
15738.5
15741
15744.1
15747.8
15751.9
15756.5
15761.4
15766.7
15772.2
15777.8
15783.4
15788.6
15793.2
15796.7
15798.8
15799.3
15798.8
15798.2
15796.4
15793.3
15789.3
15784.7
15779.9
15774.9
15770.1
15765.5
15761.2
15757.3
15753.7
15750.6
15748
15745.9
15744.4
15743.5
15743.5
15744.4
15746.4
15749.7
15754.4
15760.7
15768.7
15778.4
15789.9
15803
15817.7
15833.6
15850.5
15867.8
15885.3
15902.2
15918.1
15932.4
15944.6
15954.2
15960.9
15964.4
15964.5
15961.4
15955
15945.6
15933.7
15919.7
15904.1
15887.4
15870.3
15853.2
15836.6
15820.9
15806.4
15793.4
15782
15772.2
15763.9
15757.3
15752
15748.2
15745.6
15744.2
15743.9
15744.5
15746
15748.2
15750.9
15754.2
15757.9
15762.1
15766.5
15771.3
15776.2
15781.2
15786.1
15790.6
15794.6
15797.7
15799.5
15800.1
15801.1
15800.3
15798.5
15795.7
15792.1
15788.1
15783.8
15779.5
15775.2
15771.1
15767.2
15763.7
15760.5
15757.8
15755.4
15753.6
15752.3
15751.6
15751.7
15752.7
15754.7
15757.8
15762.1
15767.9
15775
15783.7
15793.7
15805.2
15817.8
15831.5
15845.8
15860.6
15875.2
15889.4
15902.7
15914.6
15924.6
15932.6
15938
15940.8
15940.9
15938.3
15933
15925.2
15915.4
15903.8
15890.9
15877
15862.6
15848.2
15834.1
15820.7
15808.2
15796.9
15786.8
15778.1
15770.8
15764.8
15760
15756.4
15753.9
15752.5
15752.1
15752.5
15753.7
15755.6
15758
15761
15764.3
15768.1
15772.1
15776.4
15780.8
15785.3
15789.6
15793.6
15797.2
15800
15801.8
15802.7
15805.3
15803.9
15801.8
15799
15795.6
15791.8
15787.9
15783.9
15780
15776.2
15772.7
15769.4
15766.5
15764
15761.8
15760.1
15759
15758.4
15758.5
15759.4
15761.1
15763.9
15767.9
15772.9
15779.3
15786.9
15795.7
15805.7
15816.6
15828.4
15840.8
15853.4
15865.9
15878
15889.2
15899.2
15907.7
15914.3
15918.8
15921.1
15921.1
15918.8
15914.3
15907.9
15899.6
15889.8
15878.9
15867.2
15855.1
15842.8
15830.8
15819.2
15808.3
15798.5
15789.7
15782
15775.6
15770.2
15766
15762.8
15760.6
15759.3
15758.8
15759.1
15760.2
15761.9
15764.1
15766.8
15770
15773.5
15777.2
15781.2
15785.3
15789.4
15793.4
15797.3
15800.7
15803.6
15805.7
15807.1
15810.6
15808.7
15806.1
15803.1
15799.7
15796
15792.2
15788.4
15784.6
15781.1
15777.8
15774.7
15772
15769.5
15767.5
15765.9
15764.7
15764.1
15764.1
15764.8
15766.3
15768.7
15772
15776.5
15782
15788.5
15796.2
15804.8
15814.3
15824.5
15835.2
15846.1
15856.8
15867.2
15876.8
15885.3
15892.5
15898.1
15901.9
15903.8
15903.7
15901.7
15897.8
15892.3
15885.2
15876.9
15867.6
15857.6
15847.3
15836.9
15826.6
15816.6
15807.3
15798.7
15791
15784.4
15778.8
15774.2
15770.6
15767.8
15765.9
15764.8
15764.5
15764.8
15765.8
15767.4
15769.5
15772.1
15775.1
15778.4
15782
15785.8
15789.7
15793.7
15797.7
15801.5
15805
15808.1
15810.8
15812.9
15816.9
15814.3
15811.1
15807.8
15804.1
15800.4
15796.6
15792.9
15789.3
15785.8
15782.6
15779.7
15777
15774.6
15772.6
15771
15769.7
15769
15768.8
15769.2
15770.4
15772.3
15775.1
15778.8
15783.4
15789.1
15795.6
15803
15811.2
15819.9
15829.1
15838.5
15847.8
15856.7
15865
15872.3
15878.5
15883.3
15886.5
15888.1
15888
15886.2
15882.8
15878
15871.9
15864.7
15856.7
15848.2
15839.4
15830.5
15821.6
15813.2
15805.2
15797.8
15791.3
15785.7
15780.9
15777.1
15774.1
15771.9
15770.4
15769.6
15769.4
15769.8
15770.8
15772.4
15774.4
15776.9
15779.8
15783.1
15786.6
15790.3
15794.1
15798.1
15802.1
15806
15809.8
15813.4
15816.6
15819.3
15823.6
15820.3
15816.5
15812.7
15808.8
15804.9
15801
15797.3
15793.7
15790.3
15787.2
15784.3
15781.6
15779.3
15777.2
15775.5
15774.1
15773.2
15772.8
15772.9
15773.6
15775
15777.2
15780.1
15783.9
15788.6
15794
15800.3
15807.2
15814.8
15822.7
15830.8
15838.9
15846.6
15853.8
15860.2
15865.6
15869.7
15872.5
15873.9
15873.7
15872.1
15869.2
15864.9
15859.6
15853.3
15846.3
15838.9
15831.2
15823.6
15816.1
15808.9
15802.2
15796
15790.5
15785.8
15782
15778.9
15776.7
15775
15774
15773.5
15773.6
15774.2
15775.3
15776.9
15779
15781.4
15784.3
15787.4
15790.9
15794.6
15798.5
15802.5
15806.6
15810.8
15814.9
15818.9
15822.9
15826.3
15830.6
15826.6
15822.2
15817.9
15813.6
15809.4
15805.4
15801.5
15797.9
15794.5
15791.3
15788.4
15785.8
15783.4
15781.3
15779.5
15777.9
15776.8
15776
15775.8
15776
15776.8
15778.3
15780.5
15783.5
15787.2
15791.6
15796.8
15802.7
15809.1
15816
15823
15830.1
15837
15843.4
15849
15853.8
15857.4
15859.9
15861.1
15860.9
15859.5
15856.9
15853.1
15848.3
15842.7
15836.4
15829.8
15823
15816.3
15809.9
15803.8
15798.2
15793.1
15788.5
15784.8
15781.9
15779.7
15778.1
15777.2
15776.8
15776.8
15777.2
15778.1
15779.4
15781.1
15783.1
15785.6
15788.4
15791.6
15795
15798.7
15802.7
15806.9
15811.2
15815.7
15820.2
15824.7
15829.3
15833.4
15837.7
15833
15827.8
15823
15818.3
15813.8
15809.5
15805.5
15801.8
15798.4
15795.2
15792.3
15789.6
15787.1
15784.9
15782.9
15781.2
15779.7
15778.6
15777.9
15777.6
15777.8
15778.6
15780
15782.1
15784.9
15788.4
15792.6
15797.5
15803
15809
15815.3
15821.6
15827.9
15833.7
15838.9
15843.2
15846.5
15848.8
15849.8
15849.8
15848.5
15846.1
15842.5
15838.1
15832.9
15827.2
15821
15814.9
15808.8
15803.3
15798.1
15793.4
15789.3
15785.7
15782.9
15780.8
15779.4
15778.7
15778.5
15778.7
15779.2
15780.2
15781.4
15782.9
15784.8
15786.9
15789.5
15792.3
15795.5
15799
15802.7
15806.8
15811.1
15815.7
15820.5
15825.5
15830.5
15835.8
15840.6
15844.8
15839.3
15833.4
15827.9
15822.8
15817.9
15813.4
15809.2
15805.4
15801.9
15798.6
15795.7
15793
15790.4
15788.1
15785.9
15783.9
15782.1
15780.5
15779.3
15778.4
15777.9
15777.8
15778.4
15779.6
15781.4
15784
15787.4
15791.5
15796.2
15801.6
15807.4
15813.4
15819.3
15824.9
15829.9
15834
15837.2
15839.3
15840.3
15840.3
15839.1
15836.8
15833.6
15829.3
15824.3
15818.6
15812.8
15806.9
15801.4
15796.3
15791.9
15788.1
15784.9
15782.2
15780.3
15779
15778.5
15778.5
15779
15779.8
15781
15782.4
15784
15785.8
15787.9
15790.2
15792.8
15795.7
15798.9
15802.4
15806.3
15810.5
15815
15819.9
15825.1
15830.5
15836.2
15842.2
15847.8
15851.7
15845.5
15838.8
15832.6
15826.9
15821.6
15816.8
15812.5
15808.6
15805
15801.7
15798.7
15795.9
15793.3
15790.8
15788.3
15786
15783.8
15781.7
15779.8
15778.2
15776.9
15776
15775.6
15775.8
15776.7
15778.4
15781
15784.4
15788.7
15793.7
15799.3
15805.2
15811.2
15816.9
15822
15826.1
15829.3
15831.4
15832.5
15832.5
15831.4
15829.3
15826
15821.7
15816.6
15810.9
15804.9
15799.1
15793.6
15789
15785.1
15782.1
15779.7
15778
15777
15776.6
15776.9
15777.7
15778.9
15780.4
15782.1
15784
15786
15788.1
15790.4
15792.9
15795.6
15798.5
15801.8
15805.4
15809.3
15813.6
15818.3
15823.5
15829.1
15835.1
15841.5
15848.4
15854.8
15858.6
15851.5
15843.7
15836.8
15830.5
15824.8
15819.7
15815.3
15811.3
15807.7
15804.4
15801.4
15798.6
15795.9
15793.2
15790.5
15787.8
15785.1
15782.4
15779.8
15777.4
15775.1
15773.3
15771.8
15771.1
15771
15771.8
15773.6
15776.5
15780.3
15785.2
15790.8
15797.1
15803.4
15809.6
15815
15819.4
15822.7
15824.9
15826
15826.1
15825.1
15822.9
15819.7
15815.2
15809.8
15803.5
15797.2
15791
15785.5
15780.9
15777.5
15775
15773.5
15772.7
15772.6
15773.2
15774.4
15776.1
15778.1
15780.4
15782.7
15785.2
15787.6
15790
15792.6
15795.2
15798
15801
15804.2
15807.8
15811.7
15816.1
15821
15826.5
15832.6
15839.2
15846.4
15854.4
15861.6
15865.4
15857.1
15848.1
15840.2
15833.3
15827.2
15821.9
15817.3
15813.4
15809.9
15806.7
15803.8
15801.1
15798.3
15795.5
15792.5
15789.5
15786.3
15783
15779.6
15776.2
15773
15770
15767.5
15765.5
15764.4
15764.2
15765.2
15767.4
15771
15775.8
15781.8
15788.5
15795.8
15802.7
15808.9
15813.7
15817.2
15819.5
15820.6
15820.7
15819.8
15817.8
15814.4
15809.7
15803.5
15796.6
15789.3
15782.5
15776.5
15772
15768.7
15766.9
15766
15766.3
15767.3
15769
15771.3
15774
15777
15780.1
15783.2
15786.3
15789.2
15792
15794.8
15797.5
15800.4
15803.3
15806.5
15809.9
15813.8
15818.1
15823.1
15828.8
15835.3
15842.6
15850.8
15859.9
15868.3
15872.3
15862.3
15851.8
15842.7
15835
15828.5
15823.1
15818.6
15814.8
15811.6
15808.7
15806
15803.4
15800.7
15797.9
15794.8
15791.4
15787.7
15783.7
15779.5
15775.1
15770.7
15766.5
15762.6
15759.3
15756.8
15755.5
15755.4
15757
15760.2
15765.1
15771.5
15779.3
15787.9
15796.3
15803.6
15809.1
15812.7
15815.1
15816.2
15816.4
15815.7
15813.7
15810.4
15805.1
15798
15789.5
15780.9
15772.8
15766.3
15761.4
15758.5
15757.1
15757.3
15758.6
15761
15764
15767.7
15771.7
15775.8
15780
15783.9
15787.7
15791.1
15794.3
15797.3
15800.1
15802.8
15805.6
15808.5
15811.7
15815.2
15819.4
15824.3
15830.1
15837
15845
15854.3
15865
15875
15879.2
15867
15854.2
15843.8
15835.3
15828.5
15823.1
15818.9
15815.5
15812.7
15810.3
15808
15805.7
15803.2
15800.4
15797.2
15793.5
15789.3
15784.6
15779.5
15774
15768.3
15762.5
15757.1
15752.2
15748.1
15745.3
15744.1
15744.7
15747.5
15752.5
15759.8
15769.1
15779.8
15790.6
15799.7
15806
15810
15812.3
15813.5
15813.8
15813.1
15811.4
15807.9
15802
15793
15782.3
15771.2
15761.5
15753.7
15748.6
15745.9
15745.5
15746.8
15749.7
15753.6
15758.4
15763.7
15769.2
15774.7
15780
15784.9
15789.4
15793.4
15796.9
15800
15802.7
15805.3
15807.7
15810.2
15812.9
15816
15819.7
15824.3
15830.1
15837.2
15845.9
15856.5
15869.3
15881.6
15886.1
15870.6
15855
15842.9
15833.8
15826.9
15821.8
15818.1
15815.3
15813.2
15811.4
15809.8
15808
15805.8
15803.2
15800
15796.1
15791.4
15786
15779.8
15773
15765.8
15758.4
15751.1
15744.3
15738.3
15733.8
15731
15730.6
15732.8
15738
15746.4
15757.9
15771.8
15786.3
15798.1
15805.3
15808.9
15810.9
15811.9
15812.3
15812.4
15811.2
15808.4
15801.6
15790.2
15775.5
15761.2
15748.8
15739.8
15734
15731.7
15732.1
15734.9
15739.5
15745.3
15752
15759.2
15766.5
15773.6
15780.3
15786.3
15791.6
15796.1
15799.9
15803
15805.6
15807.8
15809.7
15811.6
15813.6
15815.9
15819
15823
15828.4
15835.6
15844.9
15857.1
15872.8
15888.2
15893.6
15873.7
15854
15840.1
15830.4
15823.8
15819.4
15816.5
15814.8
15813.6
15812.8
15811.9
15810.8
15809.2
15806.8
15803.7
15799.5
15794.3
15788
15780.7
15772.4
15763.4
15753.9
15744.3
15735.1
15726.8
15720
15715.4
15713.4
15714.9
15720.3
15730.2
15744.9
15764.4
15785.2
15801
15806.2
15805.3
15803.4
15802.4
15803.3
15805.9
15808.9
15810.6
15806.3
15790.8
15769.8
15749.4
15733.6
15722.7
15716.7
15714.8
15716.6
15721.2
15727.9
15736.1
15745.2
15754.6
15764
15772.9
15781.1
15788.3
15794.5
15799.6
15803.7
15806.8
15809.2
15810.8
15812.1
15813.1
15814.1
15815.4
15817.4
15820.5
15825.1
15832
15841.8
15855.8
15875.6
15895.8
15906.3
15877.2
15851.4
15835.7
15826.2
15820.6
15817.6
15816.3
15816
15816.3
15816.8
15817
15816.8
15815.8
15813.9
15810.7
15806.2
15800.2
15792.7
15783.6
15773.2
15761.5
15749
15736.1
15723.4
15711.6
15701.5
15693.8
15689.6
15689.6
15695
15706.8
15727.1
15757.7
15793.7
15816.8
15811.7
15794.7
15782.8
15777.7
15778.8
15786
15798.8
15816.6
15823.2
15801.3
15764.7
15732.6
15710.9
15698.1
15692
15691.5
15695.4
15702.9
15712.9
15724.5
15737.1
15749.8
15762.2
15773.8
15784.1
15793.1
15800.5
15806.4
15810.9
15814
15815.9
15816.9
15817.2
15817
15816.7
15816.6
15817
15818.4
15821.6
15827.4
15837
15852.9
15878.9
15908.3
15917.8
15867.5
15836.7
15822.3
15815.3
15812.3
15811.9
15813
15815
15817.4
15819.7
15821.5
15822.7
15822.8
15821.5
15818.8
15814.2
15807.6
15799
15788.1
15775.3
15760.6
15744.4
15727.4
15710.3
15693.9
15679.2
15667.5
15659.7
15657.3
15661.3
15674
15700
15747.3
15808.1
15851.7
15851.7
15844.4
15854.8
15853.8
15856
15862
15853.4
15859.9
15861.2
15819.3
15757.4
15707
15678.8
15664.6
15659.8
15661.6
15669
15680.5
15695
15711.2
15728.2
15745.1
15761.2
15775.8
15788.7
15799.4
15808.1
15814.6
15819.2
15821.9
15823.1
15823
15821.9
15820.1
15817.9
15815.6
15813.7
15812.7
15813.1
15816.2
15823.3
15837.9
15869
15919.5
15827
15779.5
15764.4
15760.9
15760.7
15762.3
15764.9
15768
15771.4
15774.9
15778.3
15781.4
15784
15785.9
15787
15786.9
15785.6
15782.8
15778.3
15772.1
15764.1
15754.3
15743.1
15730.7
15717.7
15704.7
15692.6
15682.2
15674.5
15668.6
15639.7
15569.5
15443.7
15235.6
14887
14188.4
12930.9
11404.6
10263.5
9651.68
9636.92
10235.1
11351.8
12877.9
14145.8
14874.1
15229.5
15440.9
15568.5
15640
15669.8
15675.6
15683.1
15693.3
15705.2
15718.1
15731.1
15743.5
15754.7
15764.5
15772.5
15778.7
15783.2
15786.1
15787.4
15787.4
15786.4
15784.5
15781.8
15778.8
15775.4
15771.9
15768.5
15765.3
15762.7
15761.2
15761.3
15764.8
15780.1
15827.8
162.638
251.314
320.085
377.252
424.409
464.943
501.543
536.196
570.449
605.503
642.288
681.519
723.734
769.321
818.536
871.503
928.213
988.506
1052.03
1118.21
1186.15
1254.57
1321.69
1385.05
1441.31
1486.05
1513.33
1515.38
1482.11
1401.38
1282.49
1120.64
903.958
614.848
233.212
70.4932
346.787
746.605
1097.37
1224.24
1237.44
1123.69
769.231
378.667
84.3145
218.614
602.283
896.134
1115.86
1280.21
1400.97
1483.67
1518.5
1517.45
1490.8
1446.4
1390.28
1326.92
1259.7
1191.11
1122.96
1056.56
992.797
932.266
875.323
822.133
772.708
726.923
684.525
645.122
608.177
572.971
538.569
503.766
467.011
426.299
378.933
321.513
252.426
163.342
-0.00226233
-0.00252475
-0.00242754
-0.00232058
-0.00220008
-0.0020746
-0.00194516
-0.00181328
-0.00168219
-0.00155584
-0.00143811
-0.0013331
-0.00124592
-0.00118482
-0.00116329
-0.00120238
-0.00132853
-0.00156947
-0.00194378
-0.00246557
-0.0031531
-0.00404478
-0.00524235
-0.00690349
-0.010053
-0.0149049
-0.0188363
-0.0167824
-0.0114226
-0.00960653
-0.00663002
0.0234875
0.0654658
0.0234248
0.0773921
22.3315
932.248
3881.73
5772.04
5858.53
5869.97
5822.89
4009.81
1030.6
25.6337
0.106638
0.0388678
0.0770694
0.0411327
0.0101352
-0.00336612
-0.00354838
-0.0062201
-0.00922623
-0.00908616
-0.00592224
-0.00310693
-0.00158708
-0.000748816
-0.000256871
3.46795e-05
0.000188336
0.000248902
0.0002339
0.000134309
-4.7041e-05
-0.000292528
-0.000580286
-0.00089244
-0.00121271
-0.00152489
-0.00181466
-0.00207343
-0.00229926
-0.00249535
-0.00266717
-0.00281736
-0.00293897
-0.00304978
-0.00284446
-0.00262925
-0.00263313
-0.00258969
-0.00252372
-0.00245118
-0.00237306
-0.0022903
-0.00220556
-0.00212311
-0.00204804
-0.00198553
-0.0019408
-0.00191986
-0.00193122
-0.0019883
-0.00211106
-0.00232445
-0.00265184
-0.00310521
-0.00367924
-0.00435842
-0.0051547
-0.00627811
-0.00799785
-0.010584
-0.0133476
-0.0149926
-0.0145036
-0.0108236
-0.00736299
-0.00592685
-0.000312338
0.0307117
0.0391994
-0.0221408
-0.0724823
450.169
5725.2
7456.77
7495.87
7497.84
7466.29
6091.24
557.918
-0.0831377
-0.0171444
0.0316643
0.0254266
0.00266413
0.00112229
0.00165861
-0.0024302
-0.0061682
-0.00779549
-0.00708561
-0.00556562
-0.0038374
-0.0025253
-0.00177924
-0.00140965
-0.00116126
-0.000971716
-0.000837884
-0.000770028
-0.000784203
-0.000881854
-0.00104789
-0.00126259
-0.00150806
-0.00176725
-0.00202275
-0.00225916
-0.00246683
-0.00264319
-0.00279074
-0.00291376
-0.00301516
-0.00309461
-0.00315106
-0.00319554
-0.00246601
-0.00254727
-0.00251363
-0.00246689
-0.00239632
-0.00231318
-0.00222225
-0.00212776
-0.0020343
-0.00194658
-0.00186901
-0.00180581
-0.00176199
-0.00174569
-0.00177161
-0.00186262
-0.00204646
-0.00234561
-0.00276567
-0.00329936
-0.00395323
-0.00477636
-0.00594906
-0.00787288
-0.0114524
-0.0159725
-0.0184167
-0.0165965
-0.0131145
-0.0100079
-0.00893326
0.0217397
0.207084
0.426053
0.331047
-0.0310339
-0.120518
1301.81
7652.43
7694.97
7696.15
7661.48
1629.88
-0.147942
-0.0360666
0.313325
0.403946
0.226707
0.0638395
0.0125934
-0.00513585
-0.00596967
-0.00657708
-0.00848253
-0.00934471
-0.00707369
-0.00415702
-0.00239922
-0.00149665
-0.0010672
-0.000781796
-0.000603225
-0.000505415
-0.000486511
-0.000551254
-0.000691807
-0.000891801
-0.00113443
-0.00140347
-0.00168141
-0.00195037
-0.00219598
-0.00241069
-0.00259384
-0.00274849
-0.00287708
-0.0029786
-0.00304827
-0.00310596
-0.00305445
-0.00256182
-0.00255426
-0.002517
-0.00246592
-0.00239687
-0.00231488
-0.00222387
-0.00212805
-0.00203188
-0.00193977
-0.0018558
-0.00178379
-0.00172854
-0.00169869
-0.00171059
-0.00178966
-0.00196513
-0.00225715
-0.00266393
-0.00316553
-0.00375294
-0.00445721
-0.00532654
-0.00681216
-0.0100156
-0.0142948
-0.0179953
-0.0186999
-0.0190885
-0.0226837
0.00948227
0.10493
0.105855
0.0651499
-0.000245132
-0.00663438
-0.0144526
208.814
6491.92
7350.38
7398.2
6733.38
330.036
-0.0180968
-0.00369169
0.00960878
0.170578
0.205573
0.198185
0.0969859
-0.0206248
-0.0131958
-0.00982021
-0.00951051
-0.00846531
-0.00548736
-0.00297128
-0.00178036
-0.00132334
-0.000926921
-0.000653634
-0.000478296
-0.000393846
-0.000399831
-0.000490695
-0.000652529
-0.000868741
-0.0011237
-0.0014014
-0.00168417
-0.00195474
-0.00220014
-0.00241412
-0.00259658
-0.00275054
-0.00287844
-0.00297961
-0.00305114
-0.00309804
-0.00310952
-0.0025486
-0.00254147
-0.00250521
-0.00245252
-0.00238548
-0.00230568
-0.00221626
-0.00212102
-0.00202401
-0.00192937
-0.00184106
-0.00176285
-0.00169941
-0.00165938
-0.00165903
-0.00172239
-0.00187298
-0.00211758
-0.00243178
-0.00276369
-0.003071
-0.00336016
-0.00371254
-0.0047661
-0.00733931
-0.011987
-0.0114736
-0.0103466
-0.0142525
-0.0284604
-0.0321867
-0.0135259
0.00489235
0.00206485
-0.00135076
-0.00227326
0.0128219
20.8618
201.074
622.71
661.266
325.274
27.6176
-0.0120757
0.00214386
0.0101821
0.0140515
0.0114723
-0.0125584
-0.0371903
-0.0149109
0.00816239
0.0156489
-0.00606973
-0.00846312
-0.00422569
-0.00155902
-0.000649623
-0.000441611
-0.000332173
-0.000261401
-0.00022606
-0.000238373
-0.000312014
-0.000447504
-0.000636326
-0.000867965
-0.00113134
-0.0014129
-0.00169633
-0.00196555
-0.00220878
-0.00242054
-0.00260072
-0.00275189
-0.00287672
-0.00297557
-0.00304528
-0.00308491
-0.00309172
-0.00252394
-0.0025152
-0.00248332
-0.00243497
-0.00237288
-0.00229855
-0.0022145
-0.0021237
-0.00202956
-0.00193605
-0.00184741
-0.00176776
-0.00170198
-0.00165862
-0.0016533
-0.00170786
-0.00184036
-0.00204828
-0.00229843
-0.00253983
-0.00274184
-0.00293299
-0.00314633
-0.00360631
-0.00594251
-0.0119796
-0.0141959
-0.0165861
-0.0252574
-0.0314809
-0.034289
-0.0264767
-0.020279
-0.0195813
-0.0185729
-0.0162661
0.00297677
2.49971
0.0894416
0.132192
0.136768
0.0781839
-0.0314112
-0.00816695
-0.000956932
-0.0105547
-0.0109197
-0.0124139
-0.0181647
-0.0140776
-0.00933446
-0.0172297
-0.0126391
-0.0108202
-0.00960027
-0.00388469
-0.0010235
-0.000319113
-0.000141111
-6.06236e-05
-4.97461e-05
-8.47295e-05
-0.000163383
-0.000287835
-0.000455305
-0.00066098
-0.000900003
-0.00116546
-0.00144584
-0.00172576
-0.00198989
-0.00222719
-0.00243272
-0.00260651
-0.00275055
-0.00286713
-0.00295836
-0.00302248
-0.00305704
-0.00306176
-0.00248355
-0.00247534
-0.00244748
-0.00240636
-0.00235214
-0.0022866
-0.00221147
-0.00212859
-0.0020407
-0.00195181
-0.00186678
-0.00179056
-0.00172857
-0.00168931
-0.00168747
-0.00174273
-0.00186963
-0.00206195
-0.00228688
-0.00250435
-0.00270315
-0.0029289
-0.00323534
-0.00377915
-0.0061274
-0.0126343
-0.0222277
-0.0361113
-0.0520884
-0.0622982
-0.0570583
-0.0445072
-0.0401156
-0.046657
-0.0442945
-0.0543658
-0.0688771
0.093619
0.117717
0.108944
0.100538
0.0650525
0.0325457
0.0101598
-0.0168406
-0.028054
-0.0251354
-0.0272807
-0.0376264
-0.0454153
-0.0421449
-0.0280048
-0.0164159
-0.0116991
-0.00896615
-0.00366516
-0.00101364
-0.000356601
-0.000101629
-3.4184e-06
-6.8907e-06
-7.02415e-05
-0.000179886
-0.000327323
-0.000506898
-0.000716675
-0.000955584
-0.00121868
-0.00149476
-0.00176832
-0.0020243
-0.00225216
-0.00244748
-0.00261078
-0.00274447
-0.00285054
-0.00293137
-0.00298737
-0.00301699
-0.00302054
-0.00242555
-0.00241981
-0.00239786
-0.00236465
-0.00232056
-0.00226672
-0.00220346
-0.00213129
-0.00205231
-0.00197076
-0.00189248
-0.00182363
-0.00177052
-0.00174166
-0.0017506
-0.00181491
-0.00194724
-0.0021427
-0.00237759
-0.00263176
-0.00292275
-0.00332614
-0.00396148
-0.0050826
-0.00787062
-0.0151249
-0.0281233
-0.0442876
-0.0618025
-0.071207
-0.0653918
-0.050688
-0.0412953
-0.0423071
-0.0425745
-0.0329835
-0.0110123
0.0348312
0.0772977
0.0914352
0.0820963
0.0525882
0.0176995
-0.00554156
-0.0175583
-0.0238077
-0.0295983
-0.0390441
-0.051747
-0.0616572
-0.0577654
-0.0403338
-0.0261947
-0.0175123
-0.00990713
-0.0041231
-0.00166071
-0.000739447
-0.000311782
-0.000140297
-0.000111483
-0.000166147
-0.000274126
-0.000418543
-0.000592939
-0.0007973
-0.00103155
-0.0012899
-0.00155963
-0.00182437
-0.0020691
-0.00228402
-0.00246542
-0.00261433
-0.00273389
-0.00282692
-0.00289577
-0.00294214
-0.00296601
-0.00296789
-0.00235854
-0.00235423
-0.00233954
-0.00231566
-0.00228416
-0.00224477
-0.0021961
-0.00213734
-0.0020699
-0.00199832
-0.00192957
-0.00187136
-0.00183112
-0.00181739
-0.00184259
-0.00192259
-0.0020694
-0.00228202
-0.0025499
-0.00287658
-0.00330431
-0.00392836
-0.00491866
-0.00658077
-0.00971156
-0.0165008
-0.0280917
-0.042672
-0.0583288
-0.0670255
-0.0617346
-0.047893
-0.0373782
-0.0345069
-0.0357036
-0.0319908
-0.0142636
0.013542
0.0397886
0.0535533
0.0447635
0.0189914
-0.00371861
-0.0168056
-0.022343
-0.0262909
-0.0319846
-0.0414755
-0.0533404
-0.0633095
-0.059031
-0.0444528
-0.0304843
-0.0200759
-0.0104727
-0.00507771
-0.0025567
-0.00132622
-0.000714484
-0.000432166
-0.000337035
-0.000350836
-0.0004296
-0.000551621
-0.000709944
-0.000904041
-0.00113153
-0.00138334
-0.00164414
-0.00189649
-0.00212578
-0.00232327
-0.00248641
-0.00261705
-0.00271901
-0.00279628
-0.0028516
-0.00288733
-0.00290468
-0.0029046
-0.00228168
-0.00227973
-0.00227176
-0.00225903
-0.0022423
-0.00221964
-0.00218805
-0.00214536
-0.00209217
-0.00203314
-0.00197639
-0.00193134
-0.00190669
-0.00191092
-0.00195507
-0.00205337
-0.00221822
-0.00245422
-0.00276405
-0.00316992
-0.00372703
-0.00452259
-0.00572526
-0.00769413
-0.0104475
-0.0159563
-0.0243505
-0.0347993
-0.0453895
-0.0513199
-0.0493901
-0.0421106
-0.035257
-0.0336007
-0.0366525
-0.0388757
-0.0326972
-0.0161752
0.00506821
0.0196218
0.0158153
-0.00228082
-0.016896
-0.0244614
-0.0260851
-0.0265002
-0.0293199
-0.0350992
-0.0426168
-0.0468344
-0.0451013
-0.0362927
-0.0260085
-0.0171937
-0.0100385
-0.00563189
-0.00323677
-0.00188998
-0.00116638
-0.000791064
-0.00062391
-0.000582032
-0.000618357
-0.00071051
-0.000850441
-0.00103434
-0.00125493
-0.00149855
-0.00174718
-0.00198292
-0.0021922
-0.00236785
-0.00250872
-0.00261768
-0.00269927
-0.00275846
-0.00279879
-0.00282313
-0.00283349
-0.00283127
-0.00219229
-0.0021936
-0.00219283
-0.00219275
-0.00219222
-0.00218799
-0.00217573
-0.0021518
-0.0021157
-0.00207183
-0.0020293
-0.00199924
-0.00199174
-0.00201522
-0.00207902
-0.00219524
-0.00237603
-0.00263142
-0.0029766
-0.00344445
-0.00408742
-0.00497912
-0.00619986
-0.00802331
-0.010645
-0.0146435
-0.0201607
-0.0267849
-0.0334144
-0.0379966
-0.0387839
-0.0362943
-0.0332388
-0.033771
-0.0386607
-0.0442151
-0.0430708
-0.0335016
-0.0172976
-0.00287917
-0.000649347
-0.0100312
-0.0182453
-0.0222242
-0.0229766
-0.0230952
-0.0250448
-0.0285552
-0.031886
-0.0327476
-0.0302856
-0.0248681
-0.0187391
-0.0131846
-0.00870831
-0.00558915
-0.00356029
-0.00230176
-0.00156383
-0.00113624
-0.000911556
-0.000818566
-0.000815511
-0.000882133
-0.00100825
-0.00118489
-0.00139886
-0.00163211
-0.00186477
-0.00207944
-0.00226429
-0.00241411
-0.00252935
-0.00261399
-0.00267328
-0.00271289
-0.00273723
-0.00274971
-0.00275284
-0.00274837
-0.00209322
-0.00209719
-0.00210515
-0.00211843
-0.0021348
-0.00215033
-0.00215956
-0.00215718
-0.00214108
-0.00211497
-0.00208855
-0.00207458
-0.00208461
-0.00212707
-0.00220966
-0.002342
-0.00253466
-0.00280026
-0.00316437
-0.00366872
-0.0043385
-0.00525291
-0.00645024
-0.00808866
-0.0103387
-0.0133901
-0.0172699
-0.0217427
-0.0262461
-0.0298402
-0.0316604
-0.0318213
-0.0315214
-0.0329257
-0.037477
-0.0429991
-0.0438036
-0.0378303
-0.0249667
-0.0117694
-0.00494166
-0.00733122
-0.0117276
-0.0146344
-0.0164174
-0.0180474
-0.0200946
-0.0222033
-0.0235292
-0.0233039
-0.0212191
-0.017777
-0.013994
-0.0104692
-0.00751894
-0.00526562
-0.003657
-0.00256581
-0.0018597
-0.00141796
-0.00116119
-0.0010352
-0.00100715
-0.00105991
-0.00117987
-0.00135236
-0.00155889
-0.00177841
-0.00199075
-0.00217999
-0.00233661
-0.00245752
-0.00254477
-0.00260341
-0.00263936
-0.00265876
-0.0026667
-0.00266712
-0.00266291
-0.0026561
-0.00198406
-0.00199073
-0.00200782
-0.00203391
-0.00206704
-0.0021031
-0.00213548
-0.00215704
-0.00216358
-0.00215749
-0.00214859
-0.00215088
-0.00217764
-0.00223732
-0.00233589
-0.00248051
-0.00267934
-0.00294349
-0.0033044
-0.00380846
-0.00448863
-0.00537677
-0.00650568
-0.0079557
-0.009838
-0.0122415
-0.0151608
-0.0184207
-0.021677
-0.0244278
-0.0262576
-0.0272266
-0.0278626
-0.0291015
-0.0318123
-0.0352825
-0.0363377
-0.0320045
-0.0222577
-0.0110547
-0.00232623
-0.000546764
-0.00332697
-0.00657366
-0.009764
-0.0125983
-0.0149452
-0.0165942
-0.0173672
-0.0171438
-0.0157894
-0.0136097
-0.0111082
-0.00867963
-0.00656749
-0.0048783
-0.00360896
-0.00268991
-0.00204973
-0.00162133
-0.00135514
-0.00121983
-0.00118622
-0.00123901
-0.00136027
-0.00153052
-0.00172763
-0.00192954
-0.00211731
-0.00227752
-0.00240323
-0.00249343
-0.00255156
-0.00258356
-0.00259594
-0.00259514
-0.00258674
-0.00257516
-0.00256365
-0.00255444
-0.00186308
-0.00187303
-0.00189779
-0.00193517
-0.00198418
-0.00204069
-0.002097
-0.00214402
-0.00217514
-0.00219086
-0.00220041
-0.00221819
-0.00226022
-0.00233469
-0.00244568
-0.00259835
-0.00279841
-0.0030556
-0.00339864
-0.00387526
-0.00451945
-0.00534252
-0.00636614
-0.00762753
-0.00917894
-0.0110614
-0.0132592
-0.0156465
-0.0179953
-0.0200342
-0.021555
-0.0225145
-0.0230724
-0.0236264
-0.024548
-0.025662
-0.0255335
-0.0219852
-0.0145153
-0.00570903
0.0026022
0.00589829
0.00347379
-0.000415533
-0.00446997
-0.00786202
-0.0103413
-0.0118896
-0.0126079
-0.0125635
-0.0117831
-0.0104472
-0.00883026
-0.00718594
-0.00569294
-0.00444159
-0.00344841
-0.00268937
-0.00213089
-0.00174136
-0.00149484
-0.00137122
-0.00135071
-0.00141481
-0.00154262
-0.00171069
-0.0018956
-0.00207622
-0.00223615
-0.00236499
-0.00245848
-0.00251748
-0.00254656
-0.00255225
-0.00254152
-0.00252105
-0.00249678
-0.00247353
-0.00245495
-0.00244349
-0.00173098
-0.00174373
-0.00177395
-0.00182093
-0.00188457
-0.00196074
-0.00204071
-0.00211382
-0.00217071
-0.00220955
-0.00223873
-0.00226952
-0.00232569
-0.0024124
-0.00253395
-0.00269227
-0.00288956
-0.0031336
-0.0034489
-0.00387799
-0.0044541
-0.00518191
-0.00607192
-0.00714043
-0.00839465
-0.00984538
-0.0114747
-0.0132033
-0.014887
-0.0163641
-0.0175022
-0.0182001
-0.0184489
-0.0183697
-0.0180841
-0.0174993
-0.0159418
-0.0123687
-0.00641976
0.000425765
0.00687128
0.0102343
0.00784277
0.00362997
-0.000670924
-0.00413203
-0.00658319
-0.00811649
-0.00891929
-0.00910309
-0.00874598
-0.00797751
-0.00697431
-0.00589946
-0.0048728
-0.00396348
-0.00320015
-0.00258749
-0.00212028
-0.0017902
-0.00158643
-0.00149619
-0.00150232
-0.00158449
-0.00171949
-0.00188298
-0.00205265
-0.00220902
-0.00233919
-0.00243588
-0.00249729
-0.00252589
-0.00252702
-0.00250762
-0.00247489
-0.00243578
-0.0023965
-0.00236229
-0.00233715
-0.00232375
-0.00158897
-0.00160285
-0.00163688
-0.00169214
-0.00176901
-0.00186355
-0.00196566
-0.00206483
-0.00214805
-0.0022105
-0.00225827
-0.00230602
-0.0023724
-0.00246778
-0.00259604
-0.00275719
-0.00295014
-0.003179
-0.00346356
-0.00383822
-0.00433214
-0.00495117
-0.00569736
-0.00657409
-0.00756742
-0.00867177
-0.00987111
-0.0111106
-0.0122946
-0.0133186
-0.0140851
-0.0144815
-0.0144465
-0.0139077
-0.0129183
-0.0113465
-0.00891016
-0.00519965
-0.000207013
0.00503042
0.00961617
0.0123702
0.00999239
0.00586298
0.00179295
-0.00142207
-0.00371045
-0.00520622
-0.00609529
-0.00647351
-0.00644533
-0.00607673
-0.00549664
-0.00481679
-0.00412235
-0.00346968
-0.00289376
-0.00241504
-0.00204535
-0.00178945
-0.00164459
-0.00160053
-0.00164021
-0.00174216
-0.00188261
-0.00203829
-0.0021891
-0.00231941
-0.00241943
-0.00248486
-0.00251582
-0.00251598
-0.00249125
-0.0024487
-0.00239572
-0.00233945
-0.00228642
-0.00224228
-0.00221135
-0.00219647
-0.00143737
-0.00145059
-0.00148784
-0.00155019
-0.00163828
-0.00174868
-0.00187234
-0.00199608
-0.00210549
-0.00219233
-0.00225979
-0.00232199
-0.00239723
-0.00249821
-0.00262945
-0.00278985
-0.0029762
-0.0031893
-0.0034443
-0.00376792
-0.00418264
-0.00469636
-0.00530887
-0.00601323
-0.00678504
-0.00760994
-0.00847576
-0.00934161
-0.0101349
-0.0107829
-0.0112125
-0.011314
-0.0109763
-0.0102315
-0.00893656
-0.00697716
-0.00421291
-0.000579181
0.0037027
0.00775813
0.0109418
0.0126399
0.0104671
0.00675343
0.00320224
0.000399888
-0.00164496
-0.00306184
-0.00400023
-0.00455133
-0.00470241
-0.00459589
-0.00430165
-0.00389387
-0.00343636
-0.00297819
-0.00255739
-0.00220251
-0.00193327
-0.00175974
-0.00168136
-0.00168778
-0.00176142
-0.00188061
-0.00202279
-0.00216732
-0.00229749
-0.00240148
-0.00247262
-0.00250895
-0.00251224
-0.00248699
-0.00243916
-0.002376
-0.00230495
-0.00223336
-0.00216812
-0.00211527
-0.00207948
-0.00206356
-0.00127724
-0.00128946
-0.00132963
-0.00139767
-0.00149452
-0.00161773
-0.00175929
-0.00190556
-0.00204043
-0.00215208
-0.00223975
-0.0023153
-0.00239726
-0.0025006
-0.00263136
-0.00278791
-0.00296541
-0.00316191
-0.00338817
-0.00366538
-0.00401031
-0.00443061
-0.00492711
-0.00548699
-0.00607837
-0.00667829
-0.00727619
-0.00784392
-0.00832449