/*--------------------------------*- C++ -*----------------------------------*\
| =========                 |                                                 |
| \\      /  F ield         | OpenFOAM: The Open Source CFD Toolbox           |
|  \\    /   O peration     | Version:  2412                                  |
|   \\  /    A nd           | Website:  www.openfoam.com                      |
|    \\/     M anipulation  |                                                 |
\*---------------------------------------------------------------------------*/
FoamFile
{
    version     2.0;
    format      ascii;
    arch        "LSB;label=32;scalar=64";
    class       volScalarField;
    location    "4.85";
    object      alpha.ethanol;
}
// * * * * * * * * * * * * * * * * * * * * * * * * * * * * * * * * * * * * * //

dimensions      [0 0 0 0 0 0 0];

internalField   nonuniform List<scalar> 
6400
(
1
1
1
0.999999
0.999999
0.999999
0.999999
0.999999
0.999999
0.999999
0.999999
0.999999
0.999999
1
1
1
1
1
1
1
1
1
1
1
1
1
1
1
1
1
1
1
1
1
1
1
1
1
0.999999
0.999999
1
0.999999
0.999999
0.999999
0.999999
1
1
1
1
1
1
1
1
1
1
1
1
1
1
1
1
1
1
1
0.999999
0.999999
0.999999
0.999999
0.999999
1
1
0.999999
0.999999
0.999999
0.999998
0.999999
1
1
0.999999
1
0.999998
0.999998
0.999998
0.999998
0.999999
0.999999
0.999999
0.999998
0.999998
0.999998
0.999999
0.999999
0.999999
0.999999
1
1
1
1
1
1
1
1
1
1
1
1
1
1
1
1
1
1
1
1
1
0.999999
0.999999
0.999999
0.999999
0.999999
0.999999
0.999999
0.999999
0.999999
0.999999
0.999999
1
1
1
1
1
1
1
1
1
1
1
1
1
1
1
1
1
1
0.999999
0.999999
0.999999
0.999999
1
1
0.999999
0.999998
0.999999
0.999999
0.999998
0.999999
0.999999
0.999997
0.999997
0.999998
0.999999
0.999998
0.999998
0.999999
0.999999
0.999999
0.999998
0.999998
0.999999
0.999999
0.999999
1
1
0.999999
0.999999
1
1
1
1
0.999999
0.999999
1
1
1
1
1
1
1
1
1
0.999999
0.999999
0.999999
0.999999
0.999999
0.999999
1
1
0.999999
0.999999
0.999999
1
1
1
1
1
1
1
1
1
1
1
1
1
1
1
1
1
1
1
1
1
1
0.999999
0.999999
0.999999
1
1
1
1
1
0.999999
0.999999
0.999998
0.999998
0.999999
0.999998
0.999997
0.999998
1
0.999999
0.999998
0.999999
0.999999
0.999999
0.999999
0.999999
0.999999
1
1
1
0.999999
0.999999
1
1
1
1
1
1
1
1
1
1
1
1
1
1
1
0.999999
0.999998
0.999999
1
1
0.999999
0.999999
0.999999
0.999998
0.999999
1
1
1
1
1
0.999999
0.999999
0.999999
1
1
1
1
1
1
1
1
1
1
1
1
1
1
0.999999
0.999998
0.999998
0.999999
0.999999
0.999998
0.999998
0.999999
0.999999
0.999998
0.999999
1
1
0.999999
0.999999
0.999999
0.999999
1
1
1
0.999999
0.999999
1
1
1
0.999999
1
1
1
1
1
1
1
1
1
1
1
1
1
1
1
1
1
1
1
1
1
0.999999
1
1
1
1
0.999998
0.999998
0.999998
1
1
1
1
0.999999
0.999999
1
1
1
1
1
1
1
1
0.999999
0.999999
0.999999
1
1
1
1
1
0.999999
0.999998
0.999998
0.999998
0.999999
1
1
0.999999
0.999999
0.999998
0.999998
0.999998
0.999999
1
1
0.999999
1
1
1
1
1
1
1
0.999999
1
1
1
1
1
1
1
1
1
1
1
1
1
1
1
0.999999
1
1
1
1
1
1
1
1
1
1
1
1
1
1
0.999999
1
1
1
1
1
1
1
1
1
1
1
0.999999
0.999999
1
1
1
1
1
1
1
1
1
1
1
1
1
1
1
1
1
1
1
1
1
1
0.999999
0.999998
0.999998
1
1
1
1
0.999999
0.999999
1
1
0.999999
1
1
1
1
1
1
1
1
1
1
1
1
1
0.999999
0.999999
0.999999
0.999999
0.999999
1
1
1
1
0.999999
1
1
1
1
1
1
1
1
1
1
1
1
1
1
1
1
1
1
1
1
1
1
1
1
1
1
1
1
0.999999
0.999998
0.999999
0.999999
1
1
1
1
1
1
1
1
1
1
1
1
0.999999
0.999997
0.999997
0.999998
0.999999
0.999999
0.999999
0.999999
0.999999
1
0.999999
0.999999
1
1
1
1
1
1
1
1
1
1
0.999999
0.999999
0.999999
1
1
0.999999
0.999999
1
1
1
1
0.999999
0.999999
1
1
1
1
1
1
1
1
1
1
1
1
1
1
1
1
1
1
1
1
1
1
1
1
1
1
0.999999
0.999998
0.999997
0.999997
0.999997
0.999997
0.999999
1
1
1
1
1
1
1
1
1
1
1
0.999999
0.999998
0.999998
0.999999
0.999999
0.999999
0.999999
0.999999
1
1
1
1
0.999999
1
1
1
1
1
1
1
1
1
1
1
1
1
1
1
1
1
1
1
1
1
1
1
1
1
1
1
1
1
1
1
1
1
1
1
1
1
1
1
1
1
1
1
1
1
1
1
1
1
1
1
0.999999
0.999999
0.999999
1
1
1
1
1
1
1
1
1
1
1
0.999999
0.999999
0.999999
0.999999
1
1
1
1
1
1
1
1
0.999999
0.999999
1
1
1
1
1
1
1
1
1
1
1
1
1
1
1
1
1
1
1
1
1
1
1
1
1
1
1
1
1
1
1
1
1
1
1
1
1
1
1
1
1
1
1
1
1
1
1
1
1
1
1
1
1
1
1
1
1
1
1
1
1
1
1
0.999999
0.999999
0.999999
0.999999
1
1
1
1
1
1
1
1
1
0.999999
1
1
1
1
0.999998
1
1
1
1
1
1
1
1
1
1
1
1
1
1
1
1
1
1
1
1
1
1
1
1
1
1
1
0.999999
0.999999
1
1
1
1
1
1
1
1
1
1
1
1
1
1
1
1
1
1
1
1
1
1
1
1
1
1
1
1
1
1
0.999999
0.999999
0.999999
0.999999
0.999999
1
1
1
1
1
1
0.999999
0.999999
1
1
0.999999
0.999999
0.999999
0.999999
0.999999
1
1
1
1
1
1
1
1
1
1
1
1
1
1
1
1
1
1
1
1
1
1
1
1
1
1
0.999999
0.999999
0.999999
0.999999
0.999999
1
1
1
1
1
1
1
1
1
1
1
1
1
1
1
1
1
1
1
1
1
1
1
1
1
1
1
1
1
1
1
1
1
1
1
1
1
1
1
1
0.999999
1
1
0.999999
0.999999
0.999999
1
1
0.999999
1
1
1
1
1
1
1
1
1
1
1
1
1
1
1
1
1
1
1
1
1
1
1
1
1
1
1
1
1
1
1
1
1
1
1
1
1
1
1
1
1
1
0.999999
0.999999
0.999999
0.999999
0.999999
1
1
1
1
1
1
1
0.999999
0.999999
0.999999
0.999999
1
1
1
1
1
1
1
1
1
1
1
1
1
0.999999
1
0.999999
0.999998
1
0.999999
1
1
1
1
1
1
1
1
1
1
1
1
1
1
1
1
1
1
1
1
1
1
1
1
1
1
1
1
1
1
1
1
1
1
1
1
1
1
1
0.999999
0.999999
0.999999
0.999999
0.999999
0.999999
0.999998
0.999998
0.999999
0.999999
1
1
1
1
1
1
1
0.999999
0.999999
0.999999
1
1
1
1
1
1
1
1
1
1
1
1
1
1
1
1
1
0.999999
0.999999
0.999999
0.999981
0.999971
0.999996
1
1
1
1
1
1
1
1
1
1
1
1
1
0.999999
0.999999
1
1
1
1
1
1
1
1
1
1
1
1
1
1
1
1
1
0.999999
0.999999
1
1
1
1
0.999999
0.999999
0.999998
0.999998
0.999998
0.999998
0.999999
1
1
1
1
1
1
1
1
1
1
1
1
1
1
1
1
1
1
1
1
1
1
1
1
1
1
1
1
1
0.999999
1
0.999985
0.999961
0.999961
0.999977
1
1
1
1
1
1
1
1
1
1
1
1
0.999999
0.999999
1
1
1
1
1
1
1
1
1
1
1
1
1
1
1
1
1
1
1
1
1
1
1
1
1
1
0.999999
0.999999
0.999998
0.999999
1
1
1
1
1
1
1
1
1
1
1
1
1
1
1
1
1
1
1
1
1
1
1
1
1
1
1
1
1
0.999999
0.999999
1
0.999997
0.999969
0.999961
0.999979
1
1
1
1
0.999999
1
1
1
1
1
1
1
0.999999
0.999999
1
1
1
1
1
1
1
1
1
1
1
1
1
1
1
1
1
1
1
1
1
1
1
1
1
1
1
1
0.999999
1
1
1
1
1
1
1
1
1
1
1
1
1
1
1
1
1
1
1
1
1
1
1
1
1
1
1
1
1
1
0.999999
1
1
0.999999
0.999999
0.999992
0.999993
1
0.999999
1
0.999994
0.999991
0.999994
0.999997
0.999999
1
1
1
1
1
1
1
1
1
1
1
1
1
1
1
0.999999
0.999995
0.999991
0.999989
0.999988
0.999989
0.999992
0.999995
0.999998
1
1
1
1
1
1
1
1
1
1
1
1
1
1
1
1
1
1
1
1
1
1
0.999999
0.999996
0.999992
0.999989
0.999988
0.999988
0.99999
0.999994
0.999998
0.999994
1
1
1
1
1
1
1
1
1
1
1
1
0.999999
0.999999
0.999992
0.99999
0.999994
0.999992
0.999995
0.999924
0.999903
0.999923
0.999953
0.999978
0.999992
0.999998
1
1
1
1
1
1
1
1
1
1
0.986718
0.968787
0.961218
0.963821
0.972202
0.983399
0.993286
0.998791
0.99962
0.999722
0.999833
0.999919
0.99997
0.999994
1
1
1
1
1
1
1
1
1
1
1
1
1
1
1
1
1
1
0.999996
0.999975
0.999925
0.999839
0.999724
0.999618
0.998753
0.993422
0.984238
0.973846
0.965967
0.963573
0.969846
0.987737
1
1
1
1
1
1
1
1
1
1
0.999998
0.999991
0.999971
0.999949
0.999926
0.999907
0.999929
0.999014
0.99886
0.999012
0.999262
0.999525
0.99975
0.999817
0.99977
1
0.993201
0.959348
0.918037
0.870606
0.809361
0.716807
0.594038
0.462869
0.364348
0.313439
0.295833
0.305552
0.336374
0.390843
0.468246
0.565566
0.673883
0.761417
0.839528
0.896938
0.932772
0.952814
0.964408
0.973701
0.978656
0.97996
0.979856
0.979613
0.978506
0.976584
0.975632
0.976028
0.977641
0.979166
0.980456
0.981358
0.981503
0.979857
0.974529
0.963441
0.949105
0.92629
0.888395
0.831245
0.755011
0.668206
0.563592
0.470271
0.396484
0.34363
0.313035
0.303094
0.316784
0.363354
0.462055
0.600625
0.731656
0.824613
0.882463
0.928954
0.968173
1
1
0.999853
0.999914
0.999753
0.999519
0.999254
0.999017
0.998879
0.999045
0.677073
0.672846
0.671319
0.668985
0.66017
0.640343
0.605651
0.550885
0.494398
0.420908
0.337282
0.263173
0.200298
0.138439
0.0767732
0.0288687
0.00554365
0.000824064
1.38884e-05
1.16105e-05
8.66416e-06
7.09165e-06
7.14172e-06
7.14172e-06
8.25375e-06
0.00695695
0.0458765
0.100849
0.169971
0.244477
0.311
0.356194
0.376381
0.38982
0.399005
0.404531
0.405357
0.402206
0.396419
0.393926
0.392869
0.394439
0.39987
0.408373
0.412017
0.408268
0.396098
0.376756
0.351296
0.304761
0.236042
0.162021
0.0957241
0.0435343
0.00674504
2.64218e-07
2.64218e-07
2.5655e-07
2.59657e-07
2.62252e-07
3.19347e-07
4.39399e-07
0.000483672
0.00451441
0.0297519
0.0867155
0.156947
0.221362
0.285586
0.358367
0.440241
0.514914
0.570402
0.617243
0.642278
0.64947
0.646169
0.640172
0.63957
0.64394
0.0236512
0.0163969
0.0197589
0.0254436
0.0330162
0.040202
0.0435169
0.0411072
0.0312765
0.00925174
0.000712659
0.000563458
0.000494994
0.000482347
0.000472204
0.000431051
0.000304335
0.000164708
7.68361e-05
4.45796e-05
1.57358e-05
1.48636e-05
6.50958e-06
6.44421e-06
7.30142e-06
8.34193e-06
8.85743e-06
7.10825e-06
6.48209e-06
6.35564e-06
5.76166e-06
6.60179e-06
7.11516e-06
0.000298024
0.00096272
0.00184634
0.00278815
0.00347463
0.00393586
0.0041011
0.00379748
0.00332259
0.00282086
0.00242193
0.00187043
0.00131699
0.000641464
1.77509e-05
5.76223e-07
5.57801e-07
5.29798e-07
4.44109e-07
3.33737e-07
2.78945e-07
2.64214e-07
2.64218e-07
2.50308e-07
2.31953e-07
2.2807e-07
2.8005e-07
2.30691e-06
1.09918e-06
9.3509e-06
8.2297e-05
0.000247944
0.000329801
0.000362679
0.000419968
0.000510515
0.000662303
0.00903038
0.0306396
0.0408482
0.0405905
0.0343204
0.0264513
0.0193773
0.0136186
0.00990259
0.0161801
9.22508e-05
6.53915e-05
5.05887e-05
3.94703e-05
5.05887e-05
6.70886e-05
8.51444e-05
8.68264e-05
8.55137e-05
0.000125909
0.000124102
0.000147616
0.000149474
0.000197629
0.000244717
0.000225892
0.000174551
0.000138051
0.000128262
0.000142071
0.000129933
3.18777e-05
1.03804e-06
5.72098e-06
4.92129e-05
5.58962e-05
5.48167e-05
3.68579e-05
7.91069e-06
4.61971e-06
5.51446e-06
1.42459e-05
1.84224e-05
0.000105741
0.000236363
0.000312802
0.000827774
0.00081732
0.000910443
0.000524478
0.000393619
0.000251718
0.000133272
0.000181808
0.000128831
7.9103e-05
7.4729e-05
2.71848e-05
5.26658e-06
1.73515e-06
1.20561e-06
1.8466e-06
2.44023e-06
3.33737e-07
2.78945e-07
2.64218e-07
5.02305e-07
2.2815e-07
2.2807e-07
2.2807e-07
2.37657e-07
3.21806e-07
1.06195e-06
5.22975e-06
1.09139e-05
1.57177e-05
3.19076e-05
4.83197e-05
5.88666e-05
8.16785e-05
0.000111711
0.000111052
2.40777e-05
4.05088e-05
5.81899e-05
7.58253e-05
7.39622e-05
7.32474e-05
7.32048e-05
7.31947e-05
0.000218124
0.000220649
9.70862e-05
3.36626e-05
0.000130561
0.000318349
0.000306163
9.13594e-05
3.70554e-05
4.83275e-05
8.42655e-05
0.000132197
0.000147616
0.000241008
0.000244824
0.000223442
0.000199913
0.000206045
0.000213463
0.000213026
0.000156397
6.43084e-06
2.02121e-09
1.2269e-09
9.8168e-06
4.8832e-05
5.59286e-05
5.37498e-05
2.97355e-05
3.35723e-06
2.79434e-06
3.48996e-06
5.51946e-05
0.000219122
0.000197075
0.000144192
0.000705768
0.000702228
0.000635721
0.000162861
8.19901e-05
3.5255e-05
1.7985e-05
0.000148963
0.000117836
9.73668e-06
5.50682e-06
2.66662e-05
2.6642e-05
4.24217e-06
1.30346e-06
1.9056e-06
8.59847e-06
8.24039e-06
3.96166e-06
1.31299e-05
4.27442e-06
2.43876e-07
2.2757e-07
2.31847e-07
2.72373e-07
5.13418e-07
1.51163e-06
3.589e-06
6.92508e-06
1.15172e-05
2.00705e-05
3.03405e-05
2.99049e-05
3.06707e-05
3.20282e-05
3.12186e-05
1.72357e-05
9.84357e-05
0.000577043
0.000597466
0.000169475
7.39368e-05
7.3197e-05
7.31381e-05
0.000361302
0.000361021
3.02093e-05
3.01767e-05
3.02134e-05
9.5099e-05
0.000293321
5.96016e-05
2.98149e-05
3.34233e-05
7.6438e-05
0.000269699
0.000328229
0.000288551
6.27052e-05
2.43768e-05
6.1718e-06
4.32993e-06
5.05854e-06
1.00633e-06
6.06922e-09
2.04267e-09
1.2269e-09
1.14651e-09
1.16604e-09
1.14579e-09
7.4716e-06
8.77752e-06
5.65467e-06
2.42012e-06
2.17192e-06
2.79434e-06
0.000121374
0.000221019
0.000213715
0.000124401
9.76985e-05
0.000631022
0.000766153
0.000113216
4.03418e-05
1.18444e-05
5.86179e-06
4.87195e-06
4.53175e-06
4.25709e-06
2.57318e-06
3.91403e-06
1.1193e-05
6.37841e-06
1.30026e-06
1.2949e-06
1.33052e-06
0.000149671
0.000189932
5.76659e-05
7.63023e-07
3.60032e-07
2.80055e-07
4.10566e-07
6.24731e-07
1.84148e-06
1.07408e-05
2.75035e-05
4.32659e-05
3.09876e-05
3.06806e-05
3.02068e-05
3.01898e-05
2.84833e-05
2.25167e-05
1.72357e-05
1.61867e-05
0.000116324
0.00060562
0.000621711
0.000163088
7.32609e-05
7.31381e-05
7.31381e-05
0.000362175
0.000268208
3.0181e-05
3.02134e-05
3.58756e-05
1.96064e-05
3.83859e-05
2.52894e-05
2.67522e-05
3.20008e-05
0.000253637
0.000345984
0.000342592
0.000122173
9.15877e-09
7.62765e-09
7.50692e-09
5.97998e-09
1.67421e-08
2.59503e-08
5.49585e-08
5.67392e-08
1.79244e-08
1.17477e-09
1.14578e-09
1.15235e-09
1.1747e-09
1.15948e-09
1.17623e-09
1.26023e-07
1.39031e-06
8.2423e-06
1.842e-05
3.7074e-05
0.000117111
0.000139299
5.38729e-05
7.37338e-05
0.000381277
0.000422619
0.000423835
0.000153805
6.59826e-06
4.67802e-06
3.52929e-06
3.19766e-06
2.23519e-06
1.53893e-06
1.3767e-06
1.74726e-06
1.26595e-06
1.29113e-06
0.000102542
0.000310559
0.000304355
9.18502e-07
4.94008e-07
3.85478e-07
3.58816e-07
8.42628e-07
3.67149e-05
0.000212148
0.000318877
0.000384158
0.000446977
0.000422941
0.000316039
0.000201569
6.65365e-05
2.33234e-05
1.78781e-05
1.61867e-05
1.61867e-05
1.61867e-05
0.000242491
0.000459602
0.000450747
0.00014708
7.31622e-05
7.31381e-05
0.000313034
0.000328462
3.10391e-05
3.11681e-05
7.71349e-05
1.95465e-05
1.96064e-05
2.13223e-05
2.34483e-05
0.000112526
0.000347327
0.000349413
0.000204557
2.04761e-08
7.62765e-09
7.50692e-09
5.63319e-09
3.75737e-09
2.97679e-08
6.97466e-08
7.02878e-08
5.05108e-08
3.4974e-09
1.08507e-09
1.17477e-09
1.1747e-09
1.16812e-09
1.17623e-09
1.18579e-09
1.66062e-09
2.18574e-09
7.19732e-08
1.48759e-08
1.22234e-07
3.84203e-06
4.13799e-05
3.26144e-05
1.13143e-05
1.62852e-05
0.000318559
0.000422619
0.000411121
0.000299218
3.00583e-05
8.31116e-06
7.9837e-06
2.14765e-06
1.37657e-06
1.27249e-06
1.25121e-06
1.27333e-06
4.15046e-06
0.00029552
0.000310559
3.3173e-05
4.26137e-07
4.90073e-07
4.77268e-07
9.02392e-07
2.61085e-05
0.000337985
0.000443191
0.000450594
0.000456971
0.000462068
0.000469333
0.00047881
0.000482064
0.000482145
0.000355763
4.39794e-05
1.78781e-05
1.61736e-05
1.81859e-05
2.01851e-05
0.000123147
0.000428379
0.000411899
0.000138029
7.31622e-05
0.000375196
0.000375351
0.000211112
7.545e-05
7.76551e-05
1.95748e-05
1.95388e-05
1.99701e-05
2.75867e-05
0.000269483
0.000361509
0.000282915
1.26456e-06
2.9976e-07
2.04764e-08
5.75392e-09
3.75737e-09
3.24681e-09
5.12432e-09
1.92122e-08
1.80961e-08
7.66754e-11
7.64051e-11
9.68341e-10
8.2414e-09
4.03645e-09
1.93751e-09
8.21103e-09
9.06454e-09
4.62806e-09
2.2259e-09
3.63207e-09
5.03978e-09
1.3793e-08
1.22234e-07
8.94448e-07
3.90042e-06
8.03346e-06
1.13141e-05
1.96179e-05
5.94538e-05
0.000361549
0.000340177
0.000126149
4.61519e-05
2.67534e-05
2.02963e-06
1.2718e-06
1.24987e-06
1.25336e-06
1.23104e-05
0.000262211
0.000298574
7.69657e-05
3.99225e-07
3.86991e-07
4.26264e-07
5.89417e-07
4.28629e-06
0.0002276
0.000434467
0.000441816
0.000443196
0.000450603
0.000456988
0.000448873
0.000424779
0.000482094
0.00048557
0.000486307
0.000487627
0.000238786
2.03741e-05
2.01208e-05
2.5461e-05
3.06224e-05
0.000107834
0.000258106
0.000247397
0.000144165
0.000375448
0.000375064
0.000371167
0.000242773
5.25339e-05
1.95421e-05
1.9557e-05
2.04433e-05
9.31122e-05
0.00037784
0.000376998
0.000274475
1.10009e-05
1.26454e-06
2.9976e-07
5.37096e-08
-7.90896e-10
4.70145e-10
8.32894e-11
7.82686e-11
7.67149e-11
7.64051e-11
7.96067e-11
2.83165e-09
2.60869e-08
2.00461e-08
2.02106e-08
3.72218e-08
2.43319e-08
4.24437e-08
5.37816e-09
5.03943e-09
1.20318e-08
1.90259e-08
3.74762e-07
3.31099e-06
1.41315e-05
1.31761e-05
1.33119e-05
1.43767e-05
1.77545e-05
4.35779e-05
6.08056e-05
7.70715e-05
7.13916e-05
6.81159e-05
9.23224e-06
1.30805e-06
1.27249e-06
1.25336e-06
2.9533e-05
0.000264091
0.000204695
3.89681e-07
3.77494e-07
3.70034e-07
3.86991e-07
5.69114e-07
4.27947e-05
0.000419704
0.000430314
0.00038607
0.000226445
0.000312978
0.0003733
0.000247075
0.00026124
0.00044434
0.000484176
0.000487627
0.000487627
0.000487627
0.000221447
2.80523e-05
3.04172e-05
2.82495e-05
2.06065e-05
1.65559e-05
0.000136872
0.000200378
0.000375064
0.000356612
0.000369478
0.000366413
9.09615e-05
4.03716e-05
2.04433e-05
2.21521e-05
0.000176976
0.000380948
0.000380995
0.000380286
0.000374552
0.00011992
2.8113e-05
8.21829e-07
7.43684e-08
5.62581e-09
2.21887e-10
9.06871e-11
7.819e-11
7.6711e-11
1.11073e-10
4.24086e-09
3.14752e-08
3.34779e-08
3.8078e-08
3.75443e-08
2.08967e-08
6.00368e-08
1.07076e-07
1.08178e-07
1.90257e-08
2.07868e-08
3.50227e-08
3.95335e-05
5.82821e-05
6.19395e-05
3.09473e-05
1.77556e-05
2.19948e-05
2.37823e-05
2.5628e-05
2.72303e-05
7.03121e-05
6.66006e-05
9.54037e-06
1.37832e-06
1.30853e-06
7.47873e-06
0.000193772
0.000264091
9.47453e-05
3.77494e-07
3.71512e-07
3.68978e-07
3.70034e-07
4.26533e-07
4.36635e-05
0.000386074
0.000354789
2.31724e-05
8.22921e-06
1.38186e-05
7.32881e-05
0.000190791
0.000266666
0.000381799
0.000472776
0.000485774
0.000487627
0.000485774
0.000485374
0.000130271
2.80749e-05
2.04097e-05
1.60447e-05
1.35571e-05
5.74601e-05
0.000200378
0.000216783
4.2947e-05
0.000338524
0.000365613
0.000149601
6.38384e-05
2.21525e-05
4.41262e-05
0.00038113
0.000381572
0.000381626
0.000381507
0.000381101
0.000378246
0.00034495
4.49341e-05
8.80977e-07
5.8679e-08
1.51979e-09
1.43738e-10
8.56541e-11
8.20212e-11
8.78782e-11
3.28355e-09
2.15462e-08
3.21765e-08
2.73181e-08
3.7392e-08
1.95562e-08
2.06963e-08
3.96298e-07
1.25669e-06
6.70564e-07
3.50227e-08
1.13119e-07
8.20919e-06
6.17454e-05
6.41892e-05
6.64708e-05
5.44933e-05
2.37823e-05
2.5628e-05
2.67647e-05
2.67647e-05
6.406e-05
5.48442e-05
7.3884e-06
1.93904e-06
1.37824e-06
3.13278e-05
0.000279669
0.000265205
3.76754e-05
1.12083e-05
1.11668e-05
3.71099e-07
3.68964e-07
3.75309e-07
7.18693e-07
7.62964e-05
5.92222e-07
6.57307e-07
1.4546e-06
8.48192e-05
0.00033131
0.000356846
0.000353601
0.000163946
0.000163739
0.000357872
0.000485774
0.000485841
0.000486469
0.000318871
3.24352e-05
1.69145e-05
1.34919e-05
1.20709e-05
1.09204e-05
0.000151798
3.07404e-05
3.00055e-05
6.23265e-05
0.000364481
0.00010916
2.80613e-05
2.47923e-05
0.000104778
0.000381541
0.000381614
0.000381547
0.00038167
0.000381748
0.000381592
0.000379324
0.000335312
1.77835e-05
4.07147e-07
7.98359e-09
5.44546e-10
9.49073e-11
8.7453e-11
9.35992e-11
5.41391e-10
3.64654e-09
2.72932e-08
1.34419e-08
1.52582e-08
1.70803e-08
1.93618e-08
1.06308e-06
1.31768e-06
1.26957e-06
2.3922e-07
2.19754e-07
2.93602e-07
6.01492e-06
5.54754e-05
6.72547e-05
6.72547e-05
6.5287e-05
2.71491e-05
2.65505e-05
2.67647e-05
6.90373e-05
6.01773e-05
6.74605e-06
2.66688e-06
1.93789e-06
0.000114076
0.000282842
0.000279203
0.000174926
7.11949e-05
6.73624e-06
3.68968e-07
3.75309e-07
3.96344e-07
5.05571e-07
5.51924e-07
5.64612e-07
5.92222e-07
2.19234e-05
0.000357758
0.000358136
0.000357758
0.000356867
0.000113249
0.000106518
0.000106589
0.000307318
0.000486469
0.000492191
0.000487786
9.80628e-05
1.58454e-05
1.18273e-05
1.0528e-05
1.01107e-05
0.000132238
3.06862e-05
2.89255e-05
2.90433e-05
0.00020909
6.39251e-05
3.08059e-05
2.7158e-05
0.000126093
0.00038141
0.000381542
0.000381561
0.000373694
0.000381655
0.000381769
0.000381628
0.000379645
0.000320227
2.17846e-06
4.55263e-08
1.74458e-09
1.85143e-10
8.88721e-11
8.30238e-11
7.45789e-11
7.40435e-10
8.31681e-09
1.0253e-08
1.27997e-08
1.59157e-08
2.06889e-08
5.03034e-07
1.32104e-06
7.89827e-07
2.58699e-07
2.90725e-07
6.49362e-07
1.20736e-05
1.71365e-05
1.96646e-05
7.07025e-05
8.46977e-05
6.44725e-05
2.73224e-05
2.67269e-05
7.5723e-05
6.13961e-05
4.8036e-06
2.12016e-06
2.67261e-06
0.000108423
0.000285499
0.000282842
0.000122622
0.000106016
3.84372e-06
4.33707e-07
1.32343e-06
4.83726e-07
1.81933e-06
8.04443e-07
5.92222e-07
6.57307e-07
0.000156684
0.000358136
0.000358136
0.000358136
0.000227995
0.000113237
0.000106589
0.000106483
0.000106589
0.000456787
0.00049794
0.000494523
0.000136323
1.40639e-05
1.01541e-05
1.01121e-05
9.73821e-06
7.66088e-05
3.20108e-05
2.94154e-05
2.88327e-05
4.37933e-05
0.000181291
0.000270144
2.77461e-05
7.23311e-05
0.000381225
0.000381429
0.000381355
0.000251494
0.000331179
0.000381628
0.000381708
0.000381775
0.000380163
0.000229518
1.85266e-07
1.10217e-08
4.93623e-10
6.08324e-11
7.12899e-11
7.15381e-11
3.23619e-10
1.41317e-09
5.51689e-09
1.24851e-08
2.14114e-08
2.76913e-08
5.23457e-08
1.30231e-06
4.00183e-07
3.2923e-07
3.30961e-07
0.000271769
0.000499734
0.000240474
2.39708e-05
8.06832e-05
8.61824e-05
6.52155e-05
2.90581e-05
2.73286e-05
7.98176e-05
5.59354e-05
1.99163e-06
1.74248e-06
3.24693e-06
6.31849e-05
0.000289451
0.000149334
0.000125418
8.71947e-05
4.43612e-06
7.79954e-06
0.0001179
2.11081e-05
3.31324e-06
1.54822e-06
1.5823e-06
8.43572e-07
0.000182063
0.000356392
0.000358136
0.000338461
0.000206694
0.000228846
0.000107846
0.000106589
0.000107851
0.000465445
0.000499968
0.000498955
0.000250479
1.67431e-05
1.04343e-05
9.87561e-06
9.71542e-06
0.000103348
0.000194849
0.000113754
2.94154e-05
3.52568e-05
0.000265544
0.000288934
3.31405e-05
3.36063e-05
0.000121436
0.000375648
0.000369003
0.000246274
0.000245066
0.000366249
0.000381775
0.000381775
0.000381775
0.000380163
2.29426e-05
4.55079e-08
1.21672e-09
1.14119e-09
2.67363e-10
7.15387e-11
1.18065e-10
1.74474e-09
3.02269e-08
2.17958e-08
4.08384e-08
5.26279e-08
7.13983e-08
5.89981e-07
4.25386e-07
3.30963e-07
0.000200734
0.00103423
0.00104623
0.00104862
0.000470177
5.66087e-05
4.51813e-05
3.16576e-05
3.0178e-05
2.90608e-05
0.000113213
4.75331e-05
1.74248e-06
1.34795e-06
1.69506e-06
0.000168792
0.000291449
0.000139189
0.000139033
5.0807e-05
6.02696e-06
6.60155e-05
0.000208313
0.000115078
6.88155e-07
1.79889e-06
1.85591e-06
1.12606e-06
4.13906e-05
0.000349552
0.000356392
0.000300279
0.000284663
0.000337741
0.000310002
0.000107851
0.000121019
0.00049398
0.000499968
0.000499968
0.00045863
2.47293e-05
9.98804e-06
9.71479e-06
9.66715e-06
0.000127055
0.000380208
0.000380252
9.20392e-05
3.06965e-05
0.000181727
0.000288934
4.41704e-05
3.36148e-05
3.47659e-05
0.00031961
0.000339551
0.00024526
0.00024526
0.000320985
0.000381708
0.000381775
0.000381309
0.000380274
0.000272419
7.11095e-07
1.22194e-07
9.64334e-09
4.97661e-10
7.47879e-11
7.45172e-11
1.87136e-09
1.19417e-07
5.42572e-08
1.05339e-07
1.13855e-07
9.28783e-08
1.37082e-07
8.52038e-07
4.25386e-07
0.000842946
0.00104623
0.0010498
0.00104862
0.000727506
4.82019e-05
3.43362e-05
3.18589e-05
3.16576e-05
7.77465e-05
0.00019323
2.99771e-05
1.34795e-06
1.07525e-06
1.20662e-06
0.000290634
0.000291851
0.000135859
0.000133028
3.97144e-05
2.17339e-05
0.00020114
0.00020898
0.000123889
6.28144e-07
6.0643e-07
5.44899e-07
7.77509e-07
2.0749e-06
8.90798e-05
0.000349932
0.0003419
0.000338728
0.000343575
0.000351724
0.000156283
0.000125683
0.000233001
0.000499968
0.000498955
0.000236009
1.41295e-05
9.72658e-06
9.65927e-06
9.66272e-06
0.000126414
0.000380377
0.000380129
0.000167146
1.89993e-05
8.809e-05
0.000288934
5.46576e-05
3.36148e-05
3.36148e-05
0.000217379
0.000348705
0.000356768
0.00037093
0.000379175
0.000380313
0.000381309
0.000380274
0.000376497
0.000347996
9.72761e-06
1.16298e-07
7.07385e-09
2.44964e-10
7.73143e-11
7.45172e-11
8.03015e-10
1.42876e-07
6.36546e-07
6.94036e-07
2.87795e-07
1.67867e-07
1.93796e-07
1.81709e-06
1.03728e-06
0.000619152
0.0010281
0.00104623
0.000845008
0.000284806
4.58828e-05
3.8353e-05
3.43362e-05
0.000269757
0.000486314
0.000204661
5.75251e-06
1.07525e-06
9.36039e-07
9.99582e-07
0.00029069
0.000291544
0.000288128
0.000157664
3.86758e-05
6.78122e-05
0.000220516
0.000201426
1.71306e-06
6.21621e-07
5.34579e-07
4.24201e-07
5.08778e-07
6.86223e-07
1.17442e-05
0.000336335
0.000338735
0.0003384
0.000329117
0.000370118
0.000391149
0.000114769
0.000106318
0.000162421
0.000108541
1.22572e-05
9.8661e-06
9.65927e-06
9.65927e-06
9.65927e-06
4.17947e-05
0.000380129
0.000379013
0.000102618
1.79289e-05
4.71001e-05
0.000221319
7.17251e-05
3.36148e-05
3.37569e-05
3.5634e-05
0.000176401
0.000366384
0.00037414
0.000377082
0.000379239
0.000357371
0.000376383
0.000376874
0.000110187
1.09685e-06
9.58153e-08
6.48551e-09
3.78542e-10
8.36116e-11
7.57221e-11
8.36116e-11
6.39108e-08
3.3499e-06
7.90913e-06
4.8782e-06
2.46421e-07
3.12243e-07
7.62063e-07
1.20021e-05
0.000309456
0.00100844
0.000563287
6.34368e-05
5.11061e-05
4.60914e-05
4.04833e-05
0.00038482
0.000573661
0.000549703
0.000146388
2.75682e-06
9.36039e-07
8.99559e-07
9.12049e-07
0.000186534
0.000277505
0.000276323
0.000176877
2.63998e-05
0.000106456
0.00022601
9.38808e-05
5.87696e-07
5.44162e-07
4.52145e-07
3.87062e-07
3.41813e-07
4.63005e-07
4.52068e-06
7.64277e-05
0.000333414
0.000335029
0.000245389
0.000263417
0.000406949
0.000412534
0.000384056
4.19293e-05
2.05715e-05
1.07606e-05
9.86887e-06
9.75102e-06
9.65927e-06
1.16872e-05
0.000126943
0.000379013
0.000211926
1.79137e-05
1.78778e-05
1.79289e-05
2.06122e-05
6.99712e-05
3.87533e-05
3.43069e-05
3.56704e-05
4.61292e-05
7.85385e-05
0.000102305
0.000153146
0.000323433
0.000203749
0.000193193
0.000223255
7.04732e-05
2.9192e-06
2.00242e-07
1.5733e-08
9.03309e-10
1.06446e-10
8.36116e-11
1.0758e-10
2.68336e-10
4.62577e-06
1.06872e-05
1.08083e-05
1.3305e-06
9.08432e-07
1.17147e-06
2.83778e-06
0.000316014
0.000994546
0.00024635
6.82204e-05
5.96633e-05
5.11061e-05
0.000366358
0.000576881
0.000575274
0.000329348
2.3734e-05
1.02907e-06
8.99595e-07
9.12049e-07
9.00876e-07
1.39981e-05
6.96173e-05
0.00024817
0.000118349
2.33696e-05
0.00012812
0.000233035
0.000104859
6.1779e-07
4.89783e-07
3.87073e-07
3.41957e-07
3.08597e-07
3.365e-07
6.20434e-07
1.61938e-05
0.000274675
0.000319028
0.000240917
0.000239995
0.000235597
0.000420721
0.000426319
0.000418513
0.000187218
3.54325e-05
2.4231e-05
9.86964e-06
9.75102e-06
1.36838e-05
0.000210598
0.000360978
2.54623e-06
1.64802e-05
1.79137e-05
1.81126e-05
1.82756e-05
2.101e-05
3.30843e-05
7.40526e-05
8.44642e-05
7.17432e-05
0.000172903
0.000296797
0.00020727
0.000198521
0.000212433
0.000152179
6.67717e-05
5.75106e-05
1.76661e-05
3.46605e-07
2.91218e-08
1.66804e-09
1.44359e-10
9.16027e-11
1.2415e-10
3.10028e-10
3.84098e-06
1.08082e-05
1.0917e-05
7.64082e-06
1.20123e-06
1.18514e-06
2.39774e-06
9.70529e-05
0.000648603
0.000651626
0.000308104
6.82204e-05
0.00034684
0.000577955
0.00057477
0.000459111
2.33519e-05
4.55061e-06
2.78063e-06
7.66235e-06
6.28163e-06
9.12049e-07
1.58514e-05
0.000101498
0.000145523
3.92276e-05
1.94873e-05
0.000155507
0.000236096
0.000208646
1.21318e-06
6.1779e-07
4.28516e-07
3.0847e-07
3.03639e-07
2.92744e-07
3.48255e-07
1.08026e-06
2.92122e-05
0.000306197
0.000288794
0.000235635
0.000192991
0.000233738
0.000424197
0.000426319
0.00041994
0.000337695
1.79548e-05
9.98145e-06
1.02196e-05
4.67485e-05
0.000211812
0.000304015
1.00044e-06
2.0262e-05
5.06798e-05
3.703e-05
2.0266e-05
2.18185e-05
2.22791e-05
2.35148e-05
9.16533e-05
0.000311681
0.000362317
0.000374355
0.000380363
0.000383476
0.000368617
0.000298737
0.00030206
0.000185899
1.77076e-05
4.50167e-07
3.47311e-08
1.88542e-09
8.76947e-11
3.65234e-11
5.94373e-11
1.68506e-10
1.22923e-06
1.0917e-05
1.0917e-05
1.10201e-05
1.26687e-06
8.39975e-07
7.88454e-07
2.65356e-06
0.000118759
0.000627004
0.000611586
0.00052111
0.000551399
0.000560733
0.000411485
4.92176e-05
1.32021e-05
9.90769e-06
1.67679e-05
0.000100104
9.74887e-05
6.74858e-05
0.000133284
0.000133284
8.85293e-05
5.10363e-06
1.53505e-05
0.000191404
0.000236884
0.000236571
0.000172124
6.05911e-06
8.37534e-07
2.95437e-07
2.92918e-07
2.70796e-07
2.16712e-07
4.12645e-07
4.07762e-06
0.000149634
0.000282691
0.00027605
0.00021872
0.00014315
0.00027009
0.000420111
0.000415514
0.000238268
1.28564e-05
1.0338e-05
2.92445e-05
0.000211429
0.000211354
0.000309214
8.91534e-08
1.3655e-05
0.000205625
0.00026326
0.000266631
0.00014579
2.85135e-05
2.91312e-05
3.873e-05
5.56322e-05
0.000205512
0.000376458
0.000383361
0.000386184
0.000387288
0.000387856
0.000372224
0.000105669
2.22114e-06
2.24085e-07
1.67651e-08
7.38699e-10
2.31999e-11
8.95053e-12
1.71156e-11
4.93611e-11
7.78845e-08
6.32351e-06
1.10691e-05
1.12213e-05
3.97831e-06
6.08719e-07
3.77462e-07
3.48168e-07
9.37193e-07
0.000106672
0.000236376
0.000236205
0.000270647
0.000177332
3.08565e-05
7.08861e-06
9.50398e-06
2.77385e-05
0.000103761
0.000105627
0.000114244
0.000123537
0.000128672
0.000133284
2.92331e-05
1.27326e-06
2.52534e-05
0.000236884
0.000236934
0.00023693
0.000236668
0.000231321
4.3858e-05
6.24398e-06
2.70796e-07
2.17486e-07
1.74443e-07
1.2671e-07
5.54804e-07
1.75454e-05
0.00025505
0.000268582
0.000263888
0.000141516
8.01547e-05
0.000203661
0.000193144
2.8531e-05
1.92441e-05
4.30552e-05
0.000132464
0.000131994
1.17953e-05
0.000306638
2.5041e-09
2.35097e-09
7.13473e-05
0.000195153
0.000374748
0.000374256
0.000376026
0.000193086
4.62922e-05
6.53995e-05
6.75489e-05
7.77419e-05
0.000325557
0.000385218
0.000387915
0.000388548
0.000359382
4.01902e-05
7.97398e-07
7.5885e-08
4.841e-09
1.70883e-10
3.36164e-12
1.78048e-12
5.36983e-12
1.2903e-11
7.57055e-10
4.60006e-07
1.12213e-05
1.13344e-05
1.15439e-05
3.77462e-07
2.77174e-07
1.75058e-07
1.56994e-07
1.71286e-06
3.77486e-06
3.36615e-06
4.13827e-06
3.90244e-06
2.99173e-06
2.63992e-06
5.77164e-06
3.93764e-05
0.000105528
0.000105085
0.000105627
9.11907e-05
8.47714e-05
5.69122e-05
2.6446e-06
4.56582e-07
1.80771e-05
0.000236934
0.000236938
0.000236953
0.00023693
0.000236668
0.000234789
2.98778e-05
2.74832e-07
1.74442e-07
1.25256e-07
6.35092e-08
7.20918e-08
5.39622e-07
1.56444e-05
0.000250808
0.000251249
0.00023323
4.43532e-05
4.04116e-05
5.67544e-05
6.07632e-05
8.44596e-05
0.000106792
0.000109517
6.92269e-06
6.75357e-06
9.65382e-05
2.33565e-09
2.35097e-09
2.33373e-09
2.52169e-09
0.00027723
0.000376026
0.000376026
0.000376026
0.000219473
6.27757e-05
6.32036e-05
6.8741e-05
0.0003407
0.000387245
0.00038861
0.000388709
0.000327986
2.18608e-05
3.58688e-07
2.90331e-08
1.60966e-09
4.22067e-11
-1.47111e-13
1.94946e-13
1.19232e-12
6.47164e-13
2.25322e-10
8.81555e-09
4.32914e-06
1.17516e-05
1.20558e-05
7.50147e-06
1.76885e-07
1.29501e-07
8.15904e-08
3.66941e-07
5.88546e-07
3.51673e-07
6.07171e-07
7.59244e-07
7.17693e-07
8.59863e-07
4.37853e-06
2.58395e-05
4.81983e-05
6.47184e-05
4.63593e-05
8.71761e-06
6.63191e-06
2.0529e-06
6.10454e-07
1.57832e-07
4.50982e-07
0.000218001
0.000236953
0.00023695
0.000236954
0.000236831
0.000189537
3.52402e-05
1.65465e-06
1.55177e-06
2.66929e-07
4.35189e-08
1.74897e-08
7.1562e-08
4.6854e-07
5.17695e-06
0.000139649
8.0321e-05
2.94933e-05
2.93989e-05
9.47518e-05
9.94341e-05
9.8162e-05
9.98607e-05