/*--------------------------------*- C++ -*----------------------------------*\
| =========                 |                                                 |
| \\      /  F ield         | OpenFOAM: The Open Source CFD Toolbox           |
|  \\    /   O peration     | Version:  2412                                  |
|   \\  /    A nd           | Website:  www.openfoam.com                      |
|    \\/     M anipulation  |                                                 |
\*---------------------------------------------------------------------------*/
FoamFile
{
    version     2.0;
    format      ascii;
    arch        "LSB;label=32;scalar=64";
    class       volVectorField;
    location    "4.85";
    object      U;
}
// * * * * * * * * * * * * * * * * * * * * * * * * * * * * * * * * * * * * * //

dimensions      [0 1 -1 0 0 0 0];

internalField   nonuniform List<vector> 
6400
(
(0.00183402 -0.00184019 0)
(0.00567956 -0.00190609 0)
(0.0096872 -0.00187472 0)
(0.0137088 -0.00178457 0)
(0.0175081 -0.0016301 0)
(0.0209081 -0.00143091 0)
(0.0238134 -0.00120592 0)
(0.0261833 -0.000969176 0)
(0.028014 -0.000733086 0)
(0.0293243 -0.000503762 0)
(0.030148 -0.000290537 0)
(0.030533 -9.68872e-05 0)
(0.0305365 7.18642e-05 0)
(0.0302242 0.000210547 0)
(0.0296655 0.00031989 0)
(0.0289265 0.00039914 0)
(0.0280725 0.000448906 0)
(0.0271622 0.00047193 0)
(0.0262493 0.000473623 0)
(0.025374 0.000450378 0)
(0.024563 0.000414627 0)
(0.023842 0.000375072 0)
(0.0232071 0.000327636 0)
(0.0226461 0.000286434 0)
(0.0221492 0.000255188 0)
(0.0216884 0.000236921 0)
(0.0212278 0.000233827 0)
(0.0207208 0.000252276 0)
(0.0201193 0.000294252 0)
(0.0193902 0.000352506 0)
(0.0185025 0.000427084 0)
(0.0174275 0.000514682 0)
(0.0161441 0.000610065 0)
(0.0146437 0.000710144 0)
(0.0129273 0.000808141 0)
(0.0110032 0.000899022 0)
(0.00889384 0.000981398 0)
(0.00663113 0.00104764 0)
(0.004249 0.00109405 0)
(0.00178924 0.00111998 0)
(-0.000703601 0.00112497 0)
(-0.00318537 0.00110949 0)
(-0.00561269 0.0010735 0)
(-0.00794124 0.00101755 0)
(-0.0101319 0.000944169 0)
(-0.0121531 0.000857199 0)
(-0.0139799 0.000763484 0)
(-0.0155963 0.00066672 0)
(-0.0169988 0.000571839 0)
(-0.0181941 0.000484105 0)
(-0.0191971 0.000405459 0)
(-0.020033 0.000342211 0)
(-0.0207323 0.000296548 0)
(-0.0213218 0.000266038 0)
(-0.0218428 0.000257129 0)
(-0.0223451 0.000268192 0)
(-0.0228633 0.00028847 0)
(-0.0234215 0.000321579 0)
(-0.0240373 0.000359456 0)
(-0.0247248 0.000392309 0)
(-0.0254823 0.000418398 0)
(-0.0262952 0.000434035 0)
(-0.0271332 0.000431352 0)
(-0.0279621 0.000406374 0)
(-0.028737 0.000357916 0)
(-0.0293978 0.000281086 0)
(-0.0298846 0.000174518 0)
(-0.0301348 4.09099e-05 0)
(-0.0300741 -0.000123204 0)
(-0.0296446 -0.000306261 0)
(-0.0287953 -0.000513447 0)
(-0.0274741 -0.000733445 0)
(-0.0256464 -0.000961249 0)
(-0.023295 -0.00118668 0)
(-0.0204276 -0.00140191 0)
(-0.0170845 -0.00159308 0)
(-0.0133552 -0.00174183 0)
(-0.00941612 -0.00182575 0)
(-0.00550891 -0.00184972 0)
(-0.00177622 -0.00178205 0)
(0.00193108 -0.00571625 0)
(0.0062237 -0.00619891 0)
(0.0109609 -0.00636307 0)
(0.0158855 -0.00621947 0)
(0.0206022 -0.00572452 0)
(0.0248296 -0.00500352 0)
(0.0284234 -0.00416794 0)
(0.0313293 -0.00329878 0)
(0.033552 -0.00245226 0)
(0.035126 -0.00164753 0)
(0.036099 -0.00091862 0)
(0.0365413 -0.000276201 0)
(0.0365345 0.000261571 0)
(0.0361686 0.000691471 0)
(0.035528 0.00101234 0)
(0.0346915 0.00122755 0)
(0.0337411 0.00134536 0)
(0.0327456 0.0013779 0)
(0.0317576 0.00134393 0)
(0.0308267 0.00124892 0)
(0.0299844 0.00112111 0)
(0.0292372 0.000988839 0)
(0.0285818 0.000852896 0)
(0.0280046 0.000745627 0)
(0.0274806 0.00068212 0)
(0.0269687 0.000670398 0)
(0.0264226 0.000717477 0)
(0.0258087 0.000833627 0)
(0.0250711 0.00101599 0)
(0.0241558 0.00125918 0)
(0.0230349 0.00155463 0)
(0.0216718 0.00188729 0)
(0.0200455 0.0022417 0)
(0.018148 0.00260314 0)
(0.0159836 0.00295359 0)
(0.0135667 0.00327483 0)
(0.0109247 0.00355654 0)
(0.00809644 0.00378232 0)
(0.00512681 0.00394256 0)
(0.00206618 0.00403232 0)
(-0.00103488 0.00405006 0)
(-0.00412231 0.00399623 0)
(-0.00714442 0.00387067 0)
(-0.0100487 0.00367599 0)
(-0.0127864 0.00342056 0)
(-0.0153149 0.00311741 0)
(-0.0176031 0.00278169 0)
(-0.0196323 0.00242958 0)
(-0.021394 0.00207879 0)
(-0.0228934 0.00174482 0)
(-0.0241438 0.00143841 0)
(-0.0251729 0.00117843 0)
(-0.0260251 0.000972887 0)
(-0.0267315 0.000829024 0)
(-0.0273343 0.000749301 0)
(-0.0278912 0.00073357 0)
(-0.0284417 0.000765916 0)
(-0.0290111 0.00084683 0)
(-0.0296423 0.00095021 0)
(-0.0303537 0.00105732 0)
(-0.0311406 0.00116019 0)
(-0.0320003 0.00123568 0)
(-0.0329059 0.00126161 0)
(-0.0338147 0.00122401 0)
(-0.0346761 0.00110799 0)
(-0.0354222 0.00089891 0)
(-0.0359807 0.000588231 0)
(-0.0362819 0.000170381 0)
(-0.0362234 -0.000354036 0)
(-0.0357274 -0.000973992 0)
(-0.0347248 -0.00168096 0)
(-0.0331293 -0.00245996 0)
(-0.0308936 -0.00328824 0)
(-0.0279902 -0.00412628 0)
(-0.0244204 -0.00493352 0)
(-0.0202342 -0.00563402 0)
(-0.0155739 -0.00610949 0)
(-0.0107144 -0.0062289 0)
(-0.00605731 -0.00603753 0)
(-0.00187003 -0.00554498 0)
(0.00204675 -0.00988543 0)
(0.00681808 -0.0110405 0)
(0.0122418 -0.0115791 0)
(0.0179038 -0.011439 0)
(0.0233254 -0.0105679 0)
(0.0281816 -0.00923639 0)
(0.0323042 -0.00768256 0)
(0.0356251 -0.00606791 0)
(0.0381663 -0.0044914 0)
(0.0399732 -0.00300595 0)
(0.0410962 -0.00166413 0)
(0.041618 -0.000491021 0)
(0.0416341 0.000492254 0)
(0.041247 0.00127367 0)
(0.0405462 0.00185274 0)
(0.0396238 0.00223823 0)
(0.0385729 0.00244727 0)
(0.0374695 0.00250099 0)
(0.0363676 0.00243026 0)
(0.0353229 0.00226778 0)
(0.0343765 0.00204555 0)
(0.0335221 0.00180189 0)
(0.0327579 0.00157055 0)
(0.0320807 0.00139016 0)
(0.0314548 0.00128607 0)
(0.030833 0.00127596 0)
(0.0301662 0.00138302 0)
(0.0294039 0.00160082 0)
(0.0284898 0.00192589 0)
(0.0273788 0.00236014 0)
(0.0260343 0.00288316 0)
(0.024422 0.00346933 0)
(0.0225231 0.00409304 0)
(0.0203301 0.00472641 0)
(0.0178474 0.0053382 0)
(0.0150944 0.00590092 0)
(0.0121027 0.00638887 0)
(0.00891193 0.00678049 0)
(0.00557027 0.00706049 0)
(0.00213189 0.00721768 0)
(-0.00134952 0.00724973 0)
(-0.00481636 0.00715566 0)
(-0.00821382 0.00693477 0)
(-0.0114862 0.00659378 0)
(-0.0145795 0.00614985 0)
(-0.0174491 0.00562254 0)
(-0.020061 0.00503424 0)
(-0.0223913 0.00441597 0)
(-0.0244309 0.00379703 0)
(-0.0261857 0.00320366 0)
(-0.0276632 0.00266405 0)
(-0.0288918 0.00219943 0)
(-0.0299142 0.00182893 0)
(-0.0307632 0.00156876 0)
(-0.0314847 0.00140956 0)
(-0.0321442 0.00136145 0)
(-0.0327856 0.00141785 0)
(-0.0334481 0.00154843 0)
(-0.0341763 0.00172366 0)
(-0.0349754 0.00192056 0)
(-0.0358523 0.002105 0)
(-0.0368102 0.00224038 0)
(-0.0378114 0.00229162 0)
(-0.0388102 0.00223024 0)
(-0.0397517 0.00202395 0)
(-0.0405601 0.00164719 0)
(-0.0411617 0.00107894 0)
(-0.0414736 0.000315956 0)
(-0.0413799 -0.000631817 0)
(-0.0407881 -0.00177273 0)
(-0.0396204 -0.00307949 0)
(-0.0377878 -0.00452508 0)
(-0.035223 -0.00606658 0)
(-0.0318929 -0.0076338 0)
(-0.0277912 -0.00914169 0)
(-0.0229674 -0.0104354 0)
(-0.0175929 -0.0112733 0)
(-0.0119923 -0.0113744 0)
(-0.00664861 -0.0107866 0)
(-0.00198318 -0.00960205 0)
(0.00218374 -0.0144668 0)
(0.00748031 -0.0165369 0)
(0.0135772 -0.0175231 0)
(0.0199087 -0.0173658 0)
(0.0259356 -0.0160416 0)
(0.031288 -0.0139992 0)
(0.035783 -0.0116224 0)
(0.039362 -0.009163 0)
(0.0420587 -0.00676686 0)
(0.043937 -0.00452884 0)
(0.04507 -0.00251552 0)
(0.0455589 -0.000765253 0)
(0.0455047 0.0006945 0)
(0.0450198 0.00185456 0)
(0.0442106 0.00270294 0)
(0.0431765 0.00326771 0)
(0.0420189 0.00357914 0)
(0.0408218 0.00365581 0)
(0.0396498 0.00354597 0)
(0.0385578 0.0033057 0)
(0.0375819 0.00298347 0)
(0.0367256 0.00262801 0)
(0.0359845 0.00230036 0)
(0.0353401 0.00205043 0)
(0.0347516 0.00191684 0)
(0.0341775 0.0019261 0)
(0.0335496 0.00210645 0)
(0.0327961 0.00245634 0)
(0.0318661 0.0029738 0)
(0.0307025 0.00364466 0)
(0.0292565 0.00444267 0)
(0.0274917 0.00533348 0)
(0.0253868 0.00627667 0)
(0.0229336 0.00722888 0)
(0.0201412 0.00814605 0)
(0.0170342 0.00898744 0)
(0.0136483 0.00971435 0)
(0.0100327 0.0102965 0)
(0.0062433 0.0107122 0)
(0.00234249 0.0109456 0)
(-0.00160731 0.0109929 0)
(-0.00553968 0.0108522 0)
(-0.00939184 0.0105222 0)
(-0.0130963 0.0100148 0)
(-0.0165926 0.00935087 0)
(-0.0198312 0.00855843 0)
(-0.022767 0.00767613 0)
(-0.0253702 0.0067438 0)
(-0.0276308 0.00580469 0)
(-0.0295484 0.00490198 0)
(-0.0311361 0.00407967 0)
(-0.0324293 0.00336352 0)
(-0.0334715 0.00278383 0)
(-0.0343123 0.00236569 0)
(-0.0350014 0.00211264 0)
(-0.0356062 0.00201849 0)
(-0.036199 0.00207435 0)
(-0.0368248 0.00224605 0)
(-0.0375187 0.00249631 0)
(-0.0383049 0.00278767 0)
(-0.0391942 0.00305678 0)
(-0.0401828 0.0032563 0)
(-0.0412365 0.00333616 0)
(-0.0423093 0.00324955 0)
(-0.0433424 0.0029494 0)
(-0.0442515 0.00239678 0)
(-0.0449467 0.00156034 0)
(-0.0453314 0.000436311 0)
(-0.0452981 -0.000977222 0)
(-0.0447419 -0.00268231 0)
(-0.0435561 -0.00465025 0)
(-0.0416434 -0.006834 0)
(-0.0389208 -0.00917464 0)
(-0.0353335 -0.011574 0)
(-0.0308582 -0.0138835 0)
(-0.0255396 -0.0158665 0)
(-0.019563 -0.0171393 0)
(-0.0132962 -0.0172423 0)
(-0.00728979 -0.0161841 0)
(-0.00211235 -0.0140616 0)
(0.00235213 -0.0194566 0)
(0.00820962 -0.0226359 0)
(0.0150279 -0.0241285 0)
(0.0220739 -0.0239118 0)
(0.0287057 -0.0220243 0)
(0.0344944 -0.019128 0)
(0.039246 -0.0157881 0)
(0.0429195 -0.01236 0)
(0.0455834 -0.00904977 0)
(0.0473343 -0.00598492 0)
(0.0482762 -0.00324619 0)
(0.0485281 -0.000880877 0)
(0.048217 0.00107717 0)
(0.0474588 0.00261521 0)
(0.0463759 0.00374405 0)
(0.0451032 0.00447746 0)
(0.0437269 0.00486265 0)
(0.0423406 0.00492521 0)
(0.0410347 0.00473834 0)
(0.0398664 0.00437356 0)
(0.0388682 0.00390793 0)
(0.0380425 0.00341126 0)
(0.0373823 0.00295592 0)
(0.0368615 0.00260961 0)
(0.0364259 0.00242995 0)
(0.0360175 0.0024602 0)
(0.0355626 0.00272301 0)
(0.0349775 0.00322785 0)
(0.0341875 0.00397038 0)
(0.0331213 0.00492312 0)
(0.031721 0.00604983 0)
(0.02994 0.00730321 0)
(0.0277519 0.00862825 0)
(0.0251508 0.00996213 0)
(0.0221474 0.0112431 0)
(0.0187684 0.0124113 0)
(0.0150599 0.0134187 0)
(0.0110819 0.014223 0)
(0.00690083 0.0147953 0)
(0.00259039 0.0151172 0)
(-0.00177623 0.0151815 0)
(-0.0061221 0.014986 0)
(-0.0103727 0.0145303 0)
(-0.0144515 0.0138286 0)
(-0.0182872 0.0129055 0)
(-0.0218141 0.011801 0)
(-0.0249817 0.0105683 0)
(-0.0277563 0.00926196 0)
(-0.0301193 0.00794185 0)
(-0.0320691 0.00666955 0)
(-0.0336292 0.00550174 0)
(-0.0348439 0.00448511 0)
(-0.035758 0.00365908 0)
(-0.0364346 0.00305703 0)
(-0.0369574 0.00269022 0)
(-0.0374045 0.00255287 0)
(-0.0378418 0.00262067 0)
(-0.0383353 0.00285966 0)
(-0.0389337 0.00321051 0)
(-0.039672 0.00362468 0)
(-0.0405707 0.00402283 0)
(-0.0416195 0.00432627 0)
(-0.0427836 0.00447703 0)
(-0.0440183 0.00439471 0)
(-0.0452578 0.00402185 0)
(-0.0464043 0.00330454 0)
(-0.047352 0.00221879 0)
(-0.047997 0.000725586 0)
(-0.0482193 -0.00117028 0)
(-0.0478904 -0.00348116 0)
(-0.0468892 -0.00615716 0)
(-0.0451013 -0.00915025 0)
(-0.042412 -0.0123839 0)
(-0.0387247 -0.015733 0)
(-0.0339922 -0.0189899 0)
(-0.0282433 -0.0218098 0)
(-0.0216685 -0.023617 0)
(-0.0147022 -0.0237539 0)
(-0.00799256 -0.0221679 0)
(-0.00227171 -0.0189159 0)
(0.00256617 -0.0249287 0)
(0.00911288 -0.0294498 0)
(0.0168399 -0.0315111 0)
(0.0247885 -0.031172 0)
(0.0321583 -0.0285537 0)
(0.03842 -0.0245909 0)
(0.0433744 -0.0200797 0)
(0.0470305 -0.0155122 0)
(0.0495092 -0.0111677 0)
(0.0509603 -0.00719049 0)
(0.0515317 -0.0036642 0)
(0.0513685 -0.000646259 0)
(0.050611 0.00183525 0)
(0.0494167 0.00376089 0)
(0.047912 0.00515354 0)
(0.0462345 0.00602057 0)
(0.0445003 0.00641236 0)
(0.0428169 0.0064077 0)
(0.0412945 0.00608119 0)
(0.0399943 0.00552604 0)
(0.03895 0.00483961 0)
(0.0381582 0.00412436 0)
(0.0376058 0.00347757 0)
(0.0372566 0.00299142 0)
(0.0370497 0.0027309 0)
(0.0369069 0.00275329 0)
(0.0367288 0.00310716 0)
(0.036418 0.00378436 0)
(0.0358784 0.00478088 0)
(0.0350162 0.00606449 0)
(0.033762 0.00758142 0)
(0.0320621 0.00926715 0)
(0.0298802 0.0110452 0)
(0.0272022 0.0128312 0)
(0.0240409 0.0145415 0)
(0.0204341 0.0160984 0)
(0.0164376 0.0174368 0)
(0.0121218 0.0185021 0)
(0.00756838 0.0192576 0)
(0.00286467 0.0196816 0)
(-0.0019044 0.0197651 0)
(-0.00664871 0.0195052 0)
(-0.0112813 0.018902 0)
(-0.0157121 0.0179699 0)
(-0.0198561 0.0167424 0)
(-0.0236342 0.0152703 0)
(-0.0269839 0.0136183 0)
(-0.0298655 0.0118635 0)
(-0.0322573 0.0100905 0)
(-0.0341565 0.00838141 0)
(-0.0355916 0.0068082 0)
(-0.0366189 0.00544002 0)
(-0.0373015 0.00433345 0)
(-0.0377214 0.00352829 0)
(-0.0379721 0.00304357 0)
(-0.0381543 0.00287046 0)
(-0.0383646 0.00298497 0)
(-0.0386813 0.00333227 0)
(-0.0391565 0.0038492 0)
(-0.039838 0.0044507 0)
(-0.0407698 0.00504389 0)
(-0.0419295 0.00552827 0)
(-0.0432871 0.00581146 0)
(-0.0447998 0.00579587 0)
(-0.0463784 0.00539347 0)
(-0.0478998 0.00455991 0)
(-0.0492589 0.00322979 0)
(-0.050333 0.00135732 0)
(-0.0509869 -0.00102906 0)
(-0.0510739 -0.00397729 0)
(-0.0504344 -0.00741353 0)
(-0.0489399 -0.0112984 0)
(-0.04643 -0.015547 0)
(-0.0427638 -0.0200086 0)
(-0.0378348 -0.0244217 0)
(-0.0316086 -0.0282892 0)
(-0.0243014 -0.0308061 0)
(-0.0164568 -0.0310343 0)
(-0.00886175 -0.0288458 0)
(-0.00247355 -0.0242307 0)
(0.00283076 -0.0310123 0)
(0.0102691 -0.0372016 0)
(0.0192179 -0.0399285 0)
(0.0283854 -0.0393675 0)
(0.0367182 -0.0357541 0)
(0.0435392 -0.0304042 0)
(0.0486601 -0.0244274 0)
(0.0521716 -0.0184973 0)
(0.0543049 -0.012963 0)
(0.0552965 -0.00797774 0)
(0.0553323 -0.00360809 0)
(0.0545845 9.23772e-05 0)
(0.0532247 0.00311039 0)
(0.0514247 0.00542938 0)
(0.0493267 0.00703474 0)
(0.047092 0.00800486 0)
(0.0448845 0.00836245 0)
(0.0428183 0.00820947 0)
(0.0409951 0.00764077 0)
(0.0394999 0.00679601 0)
(0.0383769 0.00578969 0)
(0.0376281 0.00475867 0)
(0.0372297 0.00383742 0)
(0.0371194 0.00313792 0)
(0.037211 0.00274856 0)
(0.037428 0.00275065 0)
(0.0376336 0.00316173 0)
(0.0376946 0.00401965 0)
(0.0375069 0.00530632 0)
(0.0369454 0.00697385 0)
(0.0359201 0.00895502 0)
(0.0343626 0.0111565 0)
(0.032225 0.0134759 0)
(0.0294915 0.0158013 0)
(0.026178 0.0180232 0)
(0.0223305 0.0200444 0)
(0.0180173 0.0217762 0)
(0.013324 0.02315 0)
(0.00834871 0.024122 0)
(0.00319566 0.0246655 0)
(-0.00203461 0.0247712 0)
(-0.0072358 0.0244349 0)
(-0.0123053 0.0236563 0)
(-0.0171353 0.0224515 0)
(-0.0216234 0.0208612 0)
(-0.025675 0.0189514 0)
(-0.0292129 0.0168023 0)
(-0.0321835 0.0145138 0)
(-0.0345616 0.0121987 0)
(-0.0363539 0.00996666 0)
(-0.0375953 0.00791547 0)
(-0.0383496 0.00613544 0)
(-0.0387012 0.00470641 0)
(-0.0387551 0.00368864 0)
(-0.0386427 0.00309065 0)
(-0.0384825 0.00290805 0)
(-0.0383834 0.00310746 0)
(-0.0384492 0.00363136 0)
(-0.0387604 0.00439402 0)
(-0.0393849 0.00527667 0)
(-0.0403615 0.00616139 0)
(-0.0416819 0.00692633 0)
(-0.0433109 0.00742728 0)
(-0.0452011 0.00755879 0)
(-0.0472282 0.00721009 0)
(-0.0492681 0.00629588 0)
(-0.051215 0.00474424 0)
(-0.0528679 0.00252707 0)
(-0.054109 -0.000402028 0)
(-0.0547746 -0.00400159 0)
(-0.0546605 -0.00825879 0)
(-0.0536298 -0.0131352 0)
(-0.0514597 -0.0185504 0)
(-0.0479368 -0.0243496 0)
(-0.042847 -0.0302003 0)
(-0.036065 -0.0354321 0)
(-0.0277979 -0.038915 0)
(-0.0187459 -0.0393264 0)
(-0.00996114 -0.0364211 0)
(-0.00271969 -0.0301265 0)
(0.00313834 -0.0378557 0)
(0.0117257 -0.0461762 0)
(0.0223666 -0.0497632 0)
(0.0332349 -0.0488262 0)
(0.0428452 -0.0438056 0)
(0.0502987 -0.036575 0)
(0.0554799 -0.028727 0)
(0.0586606 -0.0211612 0)
(0.0602358 -0.0142681 0)
(0.0605595 -0.00816964 0)
(0.0598703 -0.00291397 0)
(0.0583699 0.00149072 0)
(0.0562434 0.00505357 0)
(0.0536571 0.00775578 0)
(0.0508245 0.00957441 0)
(0.047914 0.010568 0)
(0.0450726 0.0108323 0)
(0.0424814 0.0104309 0)
(0.0402831 0.00949268 0)
(0.0385621 0.00821455 0)
(0.037352 0.00676058 0)
(0.0366699 0.00528642 0)
(0.0364725 0.00397476 0)
(0.0366756 0.00297396 0)
(0.0371887 0.00239252 0)
(0.037861 0.00231912 0)
(0.038553 0.00279089 0)
(0.0391327 0.00383261 0)
(0.039416 0.00545047 0)
(0.0392584 0.00757212 0)
(0.038545 0.0101031 0)
(0.0371836 0.0129217 0)
(0.0351172 0.0158918 0)
(0.0323241 0.01887 0)
(0.0288286 0.0217152 0)
(0.0246878 0.0242962 0)
(0.0199825 0.0264998 0)
(0.0148207 0.0282429 0)
(0.00932288 0.0294726 0)
(0.00361328 0.0301589 0)
(-0.00218879 0.0302917 0)
(-0.00795819 0.0298655 0)
(-0.0135729 0.0288782 0)
(-0.0189015 0.0273482 0)
(-0.0238159 0.0253232 0)
(-0.0282022 0.0228843 0)
(-0.0319663 0.0201358 0)
(-0.0350403 0.0172055 0)
(-0.0373929 0.014234 0)
(-0.0390315 0.0113674 0)
(-0.0400029 0.00874074 0)
(-0.0403867 0.00647415 0)
(-0.0402869 0.00466877 0)
(-0.0398624 0.00340923 0)
(-0.0392686 0.0027046 0)
(-0.0386432 0.00255745 0)
(-0.038133 0.0029153 0)
(-0.0378693 0.00369917 0)
(-0.0379649 0.00480686 0)
(-0.0385003 0.00609687 0)
(-0.0395258 0.0074018 0)
(-0.0410484 0.00857257 0)
(-0.0430258 0.00942554 0)
(-0.0453807 0.00981029 0)
(-0.0479984 0.0095998 0)
(-0.0507133 0.00867446 0)
(-0.0533601 0.00692236 0)
(-0.0557857 0.00434086 0)
(-0.0577933 0.000881265 0)
(-0.0591856 -0.00338386 0)
(-0.0598019 -0.00852446 0)
(-0.0594323 -0.014486 0)
(-0.0578093 -0.0212285 0)
(-0.0546166 -0.028652 0)
(-0.0494685 -0.0363528 0)
(-0.0420509 -0.0434356 0)
(-0.0325007 -0.0482736 0)
(-0.0217592 -0.0489982 0)
(-0.011336 -0.045181 0)
(-0.0030097 -0.0367408 0)
(0.00348508 -0.0456159 0)
(0.0135753 -0.0568179 0)
(0.0267235 -0.0615873 0)
(0.0400818 -0.0600329 0)
(0.0513212 -0.0529162 0)
(0.0593304 -0.0430466 0)
(0.0642591 -0.0327701 0)
(0.0667509 -0.0232552 0)
(0.0674663 -0.014861 0)
(0.0668648 -0.00757245 0)
(0.0652289 -0.0013954 0)
(0.0627959 0.00376657 0)
(0.0597357 0.00788508 0)
(0.0562038 0.0109518 0)
(0.0524153 0.0129624 0)
(0.0486374 0.0139172 0)
(0.0450446 0.0139474 0)
(0.0417913 0.0131473 0)
(0.039111 0.0117026 0)
(0.0371205 0.00982019 0)
(0.035823 0.00773382 0)
(0.035239 0.00565134 0)
(0.0353334 0.00380889 0)
(0.0359731 0.00237725 0)
(0.0370118 0.00150314 0)
(0.0382998 0.00128559 0)
(0.0396416 0.00181845 0)
(0.0408724 0.00309755 0)
(0.0417872 0.00509067 0)
(0.0421607 0.00775728 0)
(0.0418539 0.0109571 0)
(0.0407519 0.0145312 0)
(0.0387818 0.0182991 0)
(0.0359221 0.0220754 0)
(0.0321977 0.0256788 0)
(0.0276776 0.0289376 0)
(0.0224709 0.0317119 0)
(0.0167135 0.0338987 0)
(0.0105538 0.0354363 0)
(0.00414301 0.0362936 0)
(-0.00237868 0.0364606 0)
(-0.00886592 0.0359298 0)
(-0.0151729 0.0346941 0)
(-0.0211377 0.0327717 0)
(-0.0265998 0.0302185 0)
(-0.0314144 0.0271335 0)
(-0.0354635 0.0236498 0)
(-0.0386654 0.0199301 0)
(-0.0409788 0.0161545 0)
(-0.0424111 0.0125152 0)
(-0.0430248 0.00919162 0)
(-0.0429242 0.00634402 0)
(-0.0422373 0.00410514 0)
(-0.0411691 0.00256992 0)
(-0.0399309 0.00177066 0)
(-0.0386961 0.00169621 0)
(-0.0376516 0.00229522 0)
(-0.0369531 0.00345078 0)
(-0.0367409 0.00503381 0)
(-0.0371441 0.00688253 0)
(-0.0382158 0.00876454 0)
(-0.0399676 0.0105258 0)
(-0.0423702 0.0119096 0)
(-0.045317 0.0126958 0)
(-0.0486483 0.0127092 0)
(-0.0522205 0.0118322 0)
(-0.0558073 0.00994614 0)
(-0.0591464 0.00700668 0)
(-0.0620563 0.00302967 0)
(-0.0643918 -0.00197077 0)
(-0.0659553 -0.00800089 0)
(-0.0664881 -0.0151102 0)
(-0.0657394 -0.0233483 0)
(-0.063245 -0.0326991 0)
(-0.0583417 -0.0428098 0)
(-0.0503558 -0.0524955 0)
(-0.0391635 -0.0593749 0)
(-0.0259491 -0.0606328 0)
(-0.0130782 -0.055548 0)
(-0.00332702 -0.0442091 0)
(0.00386044 -0.0545194 0)
(0.0163763 -0.06998 0)
(0.03384 -0.0764527 0)
(0.0509249 -0.0736149 0)
(0.063894 -0.0631059 0)
(0.0717827 -0.0494476 0)
(0.0755973 -0.0360889 0)
(0.0767011 -0.02436 0)
(0.0760933 -0.0144113 0)
(0.0742556 -0.00597509 0)
(0.0714715 0.00115598 0)
(0.0679182 0.00708944 0)
(0.0636955 0.0117954 0)
(0.0590114 0.0152308 0)
(0.0540845 0.0173474 0)
(0.0492078 0.0181685 0)
(0.0446288 0.0178224 0)
(0.0405873 0.0164723 0)
(0.0373391 0.014329 0)
(0.0350103 0.011628 0)
(0.0336321 0.0086875 0)
(0.0332217 0.00579879 0)
(0.033699 0.00323159 0)
(0.0348964 0.00121648 0)
(0.0366491 -7.11801e-05 0)
(0.0387532 -0.000486693 0)
(0.0409686 6.12789e-05 0)
(0.0430393 0.00160626 0)
(0.0447431 0.00405784 0)
(0.0458254 0.00739247 0)
(0.0460532 0.0114182 0)
(0.0452897 0.0159272 0)
(0.0434468 0.0206886 0)
(0.040498 0.0254552 0)
(0.0364756 0.0299891 0)
(0.0314703 0.0340778 0)
(0.0256223 0.0375466 0)
(0.0191051 0.0402696 0)
(0.0121074 0.0421731 0)
(0.00481387 0.0432343 0)
(-0.00261266 0.0434462 0)
(-0.0100072 0.0427962 0)
(-0.0171954 0.0412659 0)
(-0.0239739 0.0388684 0)
(-0.0301364 0.035668 0)
(-0.0354991 0.0317873 0)
(-0.0399137 0.0273949 0)
(-0.0432772 0.0226954 0)
(-0.0455341 0.01793 0)
(-0.0466932 0.0133375 0)
(-0.0468354 0.00915548 0)
(-0.0460916 0.0055981 0)
(-0.0446404 0.00284869 0)
(-0.0427492 0.000995203 0)
(-0.0406727 0.000108578 0)
(-0.0386296 0.000172315 0)
(-0.0368709 0.00110615 0)
(-0.0356034 0.00277542 0)
(-0.0349816 0.00501333 0)
(-0.0351851 0.00759985 0)
(-0.0362633 0.0102977 0)
(-0.0382536 0.0128601 0)
(-0.0411814 0.01498 0)
(-0.0448867 0.0163398 0)
(-0.0491484 0.0167226 0)
(-0.0537452 0.0159834 0)
(-0.0584344 0.0140111 0)
(-0.062933 0.0107617 0)
(-0.0669946 0.00623532 0)
(-0.0704323 0.000481369 0)
(-0.0731265 -0.00645948 0)
(-0.0749128 -0.0146961 0)
(-0.0754998 -0.0244656 0)
(-0.0743972 -0.0360033 0)
(-0.0706447 -0.0491906 0)
(-0.0628213 -0.0626408 0)
(-0.0499238 -0.0728552 0)
(-0.0329638 -0.0752804 0)
(-0.0157653 -0.0683567 0)
(-0.00366128 -0.0527437 0)
(0.00435494 -0.0652566 0)
(0.0219767 -0.0876289 0)
(0.0472078 -0.0961696 0)
(0.0694767 -0.0899981 0)
(0.0834428 -0.0735329 0)
(0.089342 -0.0544919 0)
(0.0902058 -0.0375745 0)
(0.0887006 -0.0237425 0)
(0.0860857 -0.0124536 0)
(0.0827249 -0.00303244 0)
(0.078619 0.00497409 0)
(0.073763 0.0116551 0)
(0.0682058 0.0169559 0)
(0.0620976 0.020791 0)
(0.0557173 0.0230355 0)
(0.0494974 0.0236431 0)
(0.0437603 0.0227679 0)
(0.0387497 0.020639 0)
(0.0347686 0.0174915 0)
(0.0320321 0.0136727 0)
(0.0305949 0.0095869 0)
(0.0304258 0.00563277 0)
(0.0314285 0.00211727 0)
(0.0333824 -0.000665967 0)
(0.0360545 -0.00249751 0)
(0.0392103 -0.00320225 0)
(0.042547 -0.00266206 0)
(0.0457197 -0.00084586 0)
(0.0484683 0.00221233 0)
(0.0504636 0.00634089 0)
(0.0513811 0.0113839 0)
(0.0510609 0.0170565 0)
(0.0493865 0.0230514 0)
(0.0463222 0.0290488 0)
(0.0419178 0.0347409 0)
(0.0362927 0.0398561 0)
(0.0296268 0.0441748 0)
(0.0221405 0.0475448 0)
(0.0140769 0.0498862 0)
(0.00566652 0.0511886 0)
(-0.00290569 0.0514597 0)
(-0.0114522 0.0506769 0)
(-0.0197638 0.0488 0)
(-0.0275821 0.0458248 0)
(-0.0346413 0.0418269 0)
(-0.0407033 0.0369579 0)
(-0.0455838 0.0314319 0)
(-0.0491445 0.0255136 0)
(-0.0513202 0.0195096 0)
(-0.0521278 0.0137249 0)
(-0.0516578 0.00846815 0)
(-0.0500721 0.00402507 0)
(-0.047634 0.000643056 0)
(-0.0446679 -0.0015612 0)
(-0.0414802 -0.00250461 0)
(-0.0383954 -0.00221879 0)
(-0.0357169 -0.000815762 0)
(-0.0336827 0.00154341 0)
(-0.0325159 0.00464624 0)
(-0.032412 0.00822668 0)
(-0.0334566 0.0120128 0)
(-0.0357388 0.0156331 0)
(-0.0392972 0.0187296 0)
(-0.0439405 0.0208617 0)
(-0.0493375 0.0218451 0)
(-0.0552393 0.0214038 0)
(-0.0613102 0.0193382 0)
(-0.0671858 0.0157214 0)
(-0.0725931 0.0106345 0)
(-0.0773344 0.00419396 0)
(-0.0813412 -0.00358257 0)
(-0.0846431 -0.0127823 0)
(-0.0872549 -0.0238392 0)
(-0.0888387 -0.0374363 0)
(-0.0881535 -0.0541369 0)
(-0.0824628 -0.0729632 0)
(-0.0686748 -0.0891178 0)
(-0.0465083 -0.0947878 0)
(-0.0214 -0.0856215 0)
(-0.00411515 -0.0630331 0)
(0.00549268 -0.0798388 0)
(0.0335276 -0.113865 0)
(0.0694298 -0.123243 0)
(0.0970058 -0.109217 0)
(0.110484 -0.0823577 0)
(0.112118 -0.0557885 0)
(0.107864 -0.0353468 0)
(0.102423 -0.0202886 0)
(0.0972554 -0.0084339 0)
(0.0921689 0.00152943 0)
(0.086674 0.0102058 0)
(0.0804391 0.0176359 0)
(0.0734013 0.0236018 0)
(0.0656994 0.0278397 0)
(0.0575849 0.0302081 0)
(0.0496233 0.0306183 0)
(0.0423412 0.0290478 0)
(0.0360764 0.0258278 0)
(0.0312 0.0212969 0)
(0.0279909 0.015943 0)
(0.0265304 0.0103708 0)
(0.0267356 0.0050224 0)
(0.0284202 0.000297686 0)
(0.031338 -0.00348473 0)
(0.0352052 -0.00603633 0)
(0.0397182 -0.00714226 0)
(0.0444986 -0.00666107 0)
(0.0491365 -0.00452991 0)
(0.0532033 -0.000776897 0)
(0.0563324 0.00436841 0)
(0.0581725 0.0107069 0)
(0.0584281 0.0178459 0)
(0.0569718 0.0253869 0)
(0.0537697 0.0329249 0)
(0.0488879 0.040061 0)
(0.0424813 0.0464506 0)
(0.0347774 0.0518166 0)
(0.0260549 0.0559734 0)
(0.0166192 0.0588401 0)
(0.00675968 0.0604317 0)
(-0.00329926 0.0607815 0)
(-0.0133362 0.0598513 0)
(-0.0230943 0.0575587 0)
(-0.0322418 0.0538735 0)
(-0.0404362 0.0488819 0)
(-0.0473817 0.0427751 0)
(-0.0528454 0.0358296 0)
(-0.0566548 0.0283913 0)
(-0.0587298 0.0208314 0)
(-0.0590859 0.0135526 0)
(-0.0578254 0.00695902 0)
(-0.0551435 0.00143704 0)
(-0.0513974 -0.00274265 0)
(-0.0470216 -0.00535964 0)
(-0.0424114 -0.00633542 0)
(-0.0379816 -0.00573256 0)
(-0.0341095 -0.00369205 0)
(-0.0311008 -0.000425351 0)
(-0.0292158 0.00379362 0)
(-0.0286868 0.00867966 0)
(-0.0296689 0.0138772 0)
(-0.0322935 0.0189279 0)
(-0.036646 0.0233457 0)
(-0.0424092 0.0266337 0)
(-0.0492043 0.0284277 0)
(-0.056807 0.0282758 0)
(-0.0646241 0.0261742 0)
(-0.0721025 0.0221557 0)
(-0.0789533 0.0164471 0)
(-0.0850501 0.00929215 0)
(-0.0904644 0.000892436 0)
(-0.095494 -0.00879102 0)
(-0.100665 -0.0203071 0)
(-0.106257 -0.0350264 0)
(-0.110872 -0.0551237 0)
(-0.109672 -0.0814677 0)
(-0.0965527 -0.108128 0)
(-0.069145 -0.121741 0)
(-0.0332402 -0.111677 0)
(-0.00524125 -0.0772161 0)
(0.00870895 -0.102326 0)
(0.0508489 -0.153856 0)
(0.094255 -0.159494 0)
(0.123876 -0.131269 0)
(0.135914 -0.0889074 0)
(0.133641 -0.0522329 0)
(0.124802 -0.0282522 0)
(0.115953 -0.0132852 0)
(0.108688 -0.00221756 0)
(0.102276 0.00757556 0)
(0.0957302 0.0167455 0)
(0.0882953 0.0250076 0)
(0.0796967 0.0318541 0)
(0.0701289 0.0367427 0)
(0.0600277 0.0393133 0)
(0.0499343 0.0393904 0)
(0.0405849 0.0368814 0)
(0.0326504 0.0322474 0)
(0.0265761 0.0259096 0)
(0.0228133 0.0185526 0)
(0.0213836 0.0110136 0)
(0.0220572 0.00383766 0)
(0.0246181 -0.00245178 0)
(0.0287514 -0.0075097 0)
(0.0341268 -0.0110036 0)
(0.0403606 -0.0126664 0)
(0.0469944 -0.0123101 0)
(0.0535016 -0.00981834 0)
(0.0593221 -0.00522625 0)
(0.0639749 0.00125412 0)
(0.0669699 0.00920465 0)
(0.0679439 0.0181927 0)
(0.0667678 0.0276862 0)
(0.0634033 0.0371548 0)
(0.0579386 0.0460957 0)
(0.0505682 0.054073 0)
(0.0415597 0.0607475 0)
(0.0312455 0.0658882 0)
(0.0200004 0.0694134 0)
(0.00819431 0.0713666 0)
(-0.00387618 0.0718185 0)
(-0.0159111 0.0707102 0)
(-0.0275683 0.0678956 0)
(-0.0384198 0.063311 0)
(-0.048044 0.0570636 0)
(-0.0560816 0.0494039 0)
(-0.0622509 0.0406861 0)
(-0.0663605 0.0313417 0)
(-0.0683082 0.0218356 0)
(-0.0680825 0.0126714 0)
(-0.0657849 0.00437821 0)
(-0.0617087 -0.00252896 0)
(-0.0562993 -0.00770291 0)
(-0.0500652 -0.0108023 0)
(-0.0435941 -0.011753 0)
(-0.0374339 -0.0106728 0)
(-0.0320452 -0.00777835 0)
(-0.0278076 -0.00334224 0)
(-0.0250168 0.00230832 0)
(-0.0239371 0.00886149 0)
(-0.024813 0.0159205 0)
(-0.0278589 0.0229155 0)
(-0.0331324 0.0291738 0)
(-0.0403503 0.0340193 0)
(-0.0491542 0.0367891 0)
(-0.0588745 0.0370379 0)
(-0.0687033 0.0347974 0)
(-0.0780538 0.03024 0)
(-0.0864571 0.0237044 0)
(-0.0937617 0.0156991 0)
(-0.100203 0.00683087 0)
(-0.106486 -0.00262264 0)
(-0.113693 -0.0131919 0)
(-0.12264 -0.027599 0)
(-0.131814 -0.0511257 0)
(-0.134602 -0.087624 0)
(-0.123085 -0.129945 0)
(-0.0938963 -0.157973 0)
(-0.0507293 -0.151835 0)
(-0.00853157 -0.0996034 0)
(0.0150446 -0.136615 0)
(0.064146 -0.205138 0)
(0.104932 -0.199311 0)
(0.131186 -0.152816 0)
(0.142276 -0.0938394 0)
(0.1407 -0.0466261 0)
(0.132948 -0.0189099 0)
(0.12507 -0.00455937 0)
(0.118483 0.00506154 0)
(0.112383 0.0144515 0)
(0.105617 0.0242657 0)
(0.0973479 0.0337263 0)
(0.0872758 0.0419031 0)
(0.0755933 0.047824 0)
(0.0628834 0.0508405 0)
(0.0499792 0.0506065 0)
(0.0380199 0.0469363 0)
(0.0279383 0.040395 0)
(0.0203305 0.0316181 0)
(0.0158478 0.0215415 0)
(0.0144658 0.0114095 0)
(0.0158222 0.00185843 0)
(0.0195559 -0.00640803 0)
(0.0252631 -0.0131266 0)
(0.032595 -0.0178509 0)
(0.0410824 -0.0202688 0)
(0.0501619 -0.0201101 0)
(0.0591648 -0.0171877 0)
(0.067326 -0.0115252 0)
(0.0739165 -0.00340094 0)
(0.0783899 0.00662473 0)
(0.0803355 0.0179692 0)
(0.0795398 0.0299181 0)
(0.0760027 0.0417962 0)
(0.0698498 0.0529908 0)
(0.0613081 0.0629679 0)
(0.0506644 0.0713239 0)
(0.0382822 0.0777626 0)
(0.0246031 0.082186 0)
(0.0101127 0.0846414 0)
(-0.00474672 0.0852171 0)
(-0.0195178 0.0838412 0)
(-0.0337121 0.0803047 0)
(-0.0467675 0.0745219 0)
(-0.0581746 0.066651 0)
(-0.0675344 0.0570365 0)
(-0.0745462 0.0461095 0)
(-0.0790005 0.0343932 0)
(-0.0807738 0.0224519 0)
(-0.0798126 0.010889 0)
(-0.0761896 0.000408738 0)
(-0.0702775 -0.00832776 0)
(-0.0626125 -0.0147032 0)
(-0.053883 -0.0183736 0)
(-0.0449302 -0.0192328 0)
(-0.0364878 -0.0174721 0)
(-0.0291357 -0.0134375 0)
(-0.0233243 -0.00749442 0)
(-0.0193585 -3.20343e-05 0)
(-0.0175217 0.00856645 0)
(-0.01818 0.0180904 0)
(-0.0216807 0.0277037 0)
(-0.0281851 0.0365301 0)
(-0.0374091 0.0434281 0)
(-0.0487489 0.0474468 0)
(-0.0612235 0.0481705 0)
(-0.0736399 0.0456334 0)
(-0.0851485 0.0401056 0)
(-0.0951521 0.0323043 0)
(-0.103328 0.0230884 0)
(-0.109958 0.0135429 0)
(-0.11578 0.00451837 0)
(-0.122008 -0.00454345 0)
(-0.129678 -0.0181995 0)
(-0.13749 -0.0452726 0)
(-0.139313 -0.0921535 0)
(-0.128682 -0.15092 0)
(-0.103215 -0.19732 0)
(-0.0633369 -0.202899 0)
(-0.0149707 -0.133706 0)
(0.021138 -0.178932 0)
(0.0610037 -0.251777 0)
(0.0889516 -0.229601 0)
(0.108855 -0.167959 0)
(0.121162 -0.098371 0)
(0.126249 -0.0449276 0)
(0.127075 -0.0144522 0)
(0.126371 0.000405614 0)
(0.124476 0.0101069 0)
(0.120654 0.0202672 0)
(0.114276 0.0317667 0)
(0.105095 0.0434723 0)
(0.0930594 0.0538755 0)
(0.0785845 0.0615199 0)
(0.0626313 0.065392 0)
(0.0461476 0.0649852 0)
(0.0306998 0.0599369 0)
(0.0177579 0.0507806 0)
(0.00817413 0.0385519 0)
(0.00302644 0.0250078 0)
(0.00213433 0.0113173 0)
(0.00481954 -0.00112255 0)
(0.0105198 -0.0118521 0)
(0.0186481 -0.0208285 0)
(0.0288873 -0.0271984 0)
(0.0406128 -0.0307101 0)
(0.0531596 -0.030905 0)
(0.0656452 -0.0274689 0)
(0.0770432 -0.020423 0)
(0.0863785 -0.0101633 0)
(0.0929235 0.00257625 0)
(0.0961779 0.0169391 0)