/*--------------------------------*- C++ -*----------------------------------*\
| =========                 |                                                 |
| \\      /  F ield         | OpenFOAM: The Open Source CFD Toolbox           |
|  \\    /   O peration     | Version:  2412                                  |
|   \\  /    A nd           | Website:  www.openfoam.com                      |
|    \\/     M anipulation  |                                                 |
\*---------------------------------------------------------------------------*/
FoamFile
{
    version     2.0;
    format      ascii;
    arch        "LSB;label=32;scalar=64";
    class       volScalarField;
    location    "9.05";
    object      p;
}
// * * * * * * * * * * * * * * * * * * * * * * * * * * * * * * * * * * * * * //

dimensions      [1 -1 -2 0 0 0 0];

internalField   nonuniform List<scalar> 
6400
(
23829.9
24038
24500.2
24771.4
24463.5
23519.5
22427.5
21972
22692.3
24407.6
26183.9
26846.7
25756.1
23332.3
20929.6
20066.1
21454.5
24459.7
27378.2
28423.4
26835.9
23417.5
20123.4
18920.5
20595.5
24243
27766.5
29106.8
27462.8
23771.3
20158.6
18694.1
20190.6
23754.3
27332.4
28913.8
27669.7
24381.2
20939.7
19245.1
20152.1
23051
26278.8
28082.1
27569.5
25136.9
22176
20274
20367.4
22296.4
24959.2
26940.6
27257.1
25832.3
23482.7
21454.6
20770.6
21722.5
23755.4
25783.5
26763.7
26229
24511
22544.1
21361.1
21548.9
22953.3
24785.7
26066
26153.3
25071.9
23459.8
22186.3
21867.7
22562.8
23810.2
24969.2
25624.3
25778.7
25720.3
22478.9
22197.6
22457.5
23104.6
23736.2
23780.7
22990.5
21711.6
20750.5
20867.3
22210.4
24102
25378.6
25116.5
23284.3
20867.1
19327.8
19706.7
21922.3
24741.5
26481.1
26030.4
23564.2
20485.5
18610
19076.7
21650.3
24844.7
26799.2
26379.6
23841
20664.9
18677.2
18985.2
21358.4
24401.5
26388.7
26252
24152.9
21332.7
19368.8
19286.5
21031.4
23565.9
25492.1
25823.5
24480.2
22267.1
20389.9
19801.6
20729.6
22610
24426.9
25256.3
24725.5
23170.4
21429.7
20399.3
20578
21829
23470.4
24640.7
24748.7
23774.3
22265.2
21033.1
20714.8
21437.4
22768.3
23972.6
24426.9
23950.6
22870.6
21794.6
21246.1
21395
22050
22885.1
23658.7
24429.6
21669.7
20824.8
20524.5
20956.5
22027.4
23067.7
23257.8
22218
20388.6
18872.3
18762.6
20373.2
22907.1
24848.1
24885.5
22795.6
19689.8
17413.5
17428.5
19868.5
23381.1
25894.2
25861.2
23222.7
19481.9
16828.3
16833.9
19512
23306.6
26016.4
26091.6
23527.8
19837.5
17139.8
16928.1
19240.7
22695.8
25331.2
25729.5
23777.5
20656.1
18116.9
17494
19010.7
21735.5
24157.4
25024.3
23979.1
21680.2
19389.2
18282.5
18859.1
20732.9
22882.2
24199.7
24053.2
22580.3
20586.4
19112.2
18896.9
20008.8
21827.4
23382.6
23870.5
23073.6
21460.8
19917.3
19254.6
19775.8
21135.2
22563
23311.7
23057.8
22031.2
20822.4
20022.9
19946.7
20573.8
21611.3
22898.7
21047.3
20002.1
19094.1
18800
19548.6
21088.9
22486.4
22675.4
21231.8
18813.4
16880.3
16798.3
18888.9
22080.5
24461.9
24448.7
21837.1
18044.4
15324
15401.2
18370.5
22564.2
25510.3
25416.5
22272.2
17885.3
14819.1
14869.5
18002.4
22385.6
25483.2
25543.8
22598
18391.4
15331.2
15092.2
17699.9
21591.3
24566.2
25041.3
22887.1
19409.9
16551.3
15799.8
17427.8
20432.6
23157
24200.5
23125.9
20613.7
18036.2
16713.9
17253.2
19284.4
21703
23260.6
23199.3
21613.4
19371.7
17651
17323.6
18514.1
20551.3
22339
22946.1
22098.5
20307.1
18565.4
17792.5
18337.6
19822.7
21397.4
22236.4
21979.4
20871
19560.8
18734.1
18791
19629.2
20998.9
20124
19590.7
18505.3
17379.9
17058.1
18079.9
20072
21828.8
22051.3
20282.4
17371.6
15074.3
14972.8
17394.6
21064.5
23786.6
23783.1
20859.9
16630.8
13606.9
13677.6
16918.9
21487.3
24692.5
24610.1
21249.3
16561.4
13281.4
13306.9
16590.1
21195.8
24465.2
24571.9
21546.4
17193.9
13997.4
13686.8
16305.1
20273.5
23356.7
23930
21826.5
18329.5
15383.2
14510.1
16038.7
19020.3
21817.5
22999
22056.1
19595.6
16956.6
15490.7
15883.6
17848.6
20317.9
22012
22093.5
20577
18297.7
16461.7
16011.2
17137.2
19194.2
21062.5
21760.2
20968.6
19182.1
17406.1
16583.4
17082.5
18533.9
20088.1
20919
20669.7
19600.2
18392.5
17750.1
17941.7
18850.9
18461.2
19037.5
18526
17126.7
15628.9
15226.8
16537.9
19023.3
21182.2
21476.3
19407.9
16003
13302.4
13113.7
15802
19928.7
23035.5
23137.7
20001
15376.8
12001.1
11945.9
15333.2
20218.9
23734.4
23800.4
20369.9
15451.2
11905.8
11758.6
15031.9
19780.8
23271.4
23574.8
20635.7
16222.5
12845.8
12317.1
14781.8
18738.8
21965.4
22772.1
20875.5
17448.4
14391
13278.2
14564.3
17433.3
20312.7
21728.6
21044.1
18723
16028.8
14346.7
14485.6
16299
18796.8
20674.9
20987.2
19622.4
17342.5
15368
14725.9
15709.3
17736.4
19686.9
20525
19861
18136.9
16342.9
15441
15837
17198.2
18698.5
19521.9
19318.4
18356.7
17304.8
16742.6
16829.4
16105.5
17756.4
18369.1
17625.7
15709.8
13820.3
13372.8
15003.1
17982.9
20523.6
20870.8
18504.9
14631.7
11561.9
11304.8
14247.6
18792.2
22241
22429.7
19098.3
14126
10445.9
10282.9
13793.1
18945
22722.8
22921.2
19446.5
14347.7
10582.4
10276
13514.5
18359.6
22030.7
22519.4
19688.3
15254.5
11732.4
10996.3
13291.1
17205.3
20547.3
21576.4
19895.5
16559.4
13412.8
12073.1
13116.5
15861.8
18806.6
20441.5
20006.6
17827
15090.2
13211.1
13112.9
14780.3
17296.6
19335.9
19855.2
18630.7
16358.9
14271.5
13466.8
14323.2
16313
18318.3
19264.2
18707.5
17049.5
15264.6
14321.9
14645.9
15924.1
17349.6
18128.7
17932
17025.7
16021.7
15318.4
13678.9
15590.8
17196.5
17769.2
16651.5
14267.7
12046.2
11575.4
13497.5
16909.6
19774.6
20163
17551.1
13302
9943.57
9633.9
12764.7
17610.8
21302.8
21558.1
18108.3
12920
9046.46
8798.86
12351.1
17629.8
21552.9
21857.5
18418.1
13278.1
9410.57
8974.86
12105.9
16916
20653.5
21293
18630.6
14293.8
10733.7
9830.49
11911.1
15682.6
19040.6
20244.9
18805.2
15640.3
12494.7
10982.8
11777.8
14339.9
17269.2
19060.9
18862
16863.3
14156.1
12148.6
11844.4
13344
15815.1
17942.5
18623.7
17545.9
15337.5
13212.2
12300.1
13035.9
14943
16930.1
17921.1
17451.4
15891.2
14183.5
13271.3
13563.7
14749.4
16044.1
16692.7
16406.1
15503.2
14429.8
12026
13028.3
14767.7
16505.4
17041.4
15654.2
12880.4
10364
9859.39
12013.2
15773.6
18903.5
19340.8
16562.9
12048.8
8477.04
8104.54
11326.3
16343.7
20192.4
20526.7
17066.5
11804.2
7829.52
7484.07
10966
16226
20200.3
20623.1
17328.6
12289.4
8412.08
7839.11
10762.4
15405.5
19120.2
19911.5
17503.1
13381.3
9867.93
8805.99
10605.9
14134
17428.1
18787.7
17634.6
14723.1
11653.9
10001.8
10524.9
12839.8
15682.4
17586.9
17626.9
15856.4
13246.1
11164.5
10669.1
11968.8
14331.6
16485
17299
16387.4
14299.9
12202.5
11222.6
11830.7
13605.6
15508.9
16496.8
16107.3
14682.8
13115.9
12292
12573.8
13634.4
14718.9
15150.5
14795.6
13920.4
11612.5
10940.5
11725.1
13658.2
15684.3
16275.4
14671.1
11557.5
8786.97
8243.36
10563.3
14576.6
17902.8
18393.5
15530.4
10864.3
7157.23
6715.26
9937.43
15003.4
18926.9
19348.8
15973.1
10761.8
6767.63
6315
9633.55
14753.6
18700.9
19249.7
16185.8
11358.9
7544.97
6831.15
9473.51
13851.6
17476.2
18416.2
16318.9
12494
9088.96
7880.22
9360.59
12580.2
15753.8
17247
16400.4
13790.9
10850.6
9090.25
9339.39
11373.3
14080
16056.1
16321.7
14800.5
12333.2
10225.9
9564.87
10653.6
12865.4
14992.5
15905.4
15162.3
13233.5
11216.6
10208.1
10694.2
12306.7
14076.4
15018.6
14696.3
13430.7
12050.1
11351.9
11622.7
12516.1
13350.2
13643.4
13361.7
12108.7
9983.07
9228.85
10165.6
12520.5
14831.6
15448.1
13655.6
10284.9
7333.77
6757.22
9169.96
13323.3
16760.3
17299.2
14432.8
9737.37
5986.54
5480.82
8618.87
13608
17513.6
18016.7
14807.4
9768.48
5844.36
5292.8
8373.58
13242.7
17079.2
17742.1
14970.7
10452.6
6778.73
5941.35
8256.84
12290.5
15756.3
16820.6
15062.2
11595.2
8359.92
7036.78
8188.4
11056.5
14054.9
15641
15092.5
12811.8
10049.4
8228.59
8227.25
9967.28
12494.3
14488.9
14944.8
13674.7
11389.3
9311.95
8528.27
9412.71
11440.1
13486
14451
13863.3
12119.6
10233.7
9243.79
9626.41
11058.3
12651.5
13505.1
13230.8
12135.7
10968
10410.6
10665.9
11401.9
12079.3
12418.4
12514.7
10085.4
8155.73
7488.51
8754.07
11404.2
13871.4
14482.5
12574.5
9066.71
6026.16
5423.53
7846.11
12013.5
15465.5
16044
13259.2
8664.08
4968.36
4409.37
7380.15
12165.2
15955.7
16527.3
13560.8
8812.42
5050.36
4415.78
7194.44
11708.4
15349.5
16105.6
13675.2
9552.69
6095
5161.77
7120.17
10742
13981
15134.2
13725.8
10664.8
7659.39
6265.21
7095.6
9581.86
12351.9
13980.4
13706.2
11769
9231.32
7406.22
7191.29
8635.32
10941.6
12895.5
13496
12469.6
10401.3
8412.74
7556.49
8250.88
10065.4
11975.2
12942
12490.5
10952.5
9244.83
8320.07
8621.03
9860.11
11241.2
11970.1
11725.7
10803.1
9858.67
9455.86
9729.84
10370.1
11032
11796.7
10441.5
8448.88
6583.72
6036.95
7441.87
10212.6
12742.9
13355.3
11424.2
7907.02
4870.66
4249.31
6597.88
10651.7
14020.9
14627.9
12006.1
7637.35
4093.55
3494.06
6221.65
10684.5
14268.3
14893.3
12234.8
7881.68
4365.63
3667.27
6093.25
10164.7
13535.3
14359.6
12303.1
8644.32
5468.92
4471.8
6059.18
9220.47
12175
13377.6
12314.5
9689.87
6964.47
5545.9
6076.56
8166.86
10664.9
12283.3
12248.2
10655.5
8380.49
6607.22
6223.44
7380.33
9433.3
11289.8
11985.1
11186.8
9362.41
7516.42
6638.05
7162.15
8743.47
10470.2
11391.8
11054.6
9735.05
8242.64
7422.1
7661.63
8702.05
9847.9
10427.9
10200.6
9450.89
8742.36
8519.36
8813.38
9401.36
9598.62
10046.3
9126.26
7206.23
5289.06
4727.61
6153.94
8937.74
11456.5
12069.4
10196.9
6794.31
3859.85
3235.39
5434.32
9251.75
12439.4
13056.5
10667.9
6640.87
3342.36
2722.23
5146.11
9184.66
12476.8
13132.8
10829.1
6955.9
3760.47
3025.09
5068.69
8632.49
11668.4
12528.5
10857.3
7707.03
4868.36
3846.04
5069.48
7744.56
10368.9
11575.9
10834.2
8654.86
6247.83
4855.19
5123.66
6822.8
9016.76
10571.3
10727.9
9464.89
7479.19
5812.27
5312.21
6203.36
7981.48
9688.58
10425.4
9830.47
8266.1
6608.79
5757.63
6137.1
7475.35
8982.08
9817.04
9570.43
8472.93
7220.17
6532.3
6727.42
7569.93
8471.69
8895.59
8686.12
8116.42
7644.42
7547.08
7805.67
6505.71
8402.08
8972.78
8087.69
6049.99
4094.76
3539.83
4933.68
7615.76
10022.4
10615.9
8877.51
5716.98
2990.2
2386.18
4365.14
7824.96
10729.9
11331.9
9237.73
5660.55
2699.43
2085.6
4158.26
7682.49
10602.3
11258.8
9340.23
6016.06
3210.18
2473.01
4122.87
7131.87
9775.62
10630.5
9336.6
6721.2
4266.46
3265.79
4150.9
6332.15
8587.94
9747.38
9286.69
7544.88
5487.2
4175.87
4233.44
5560.55
7425.63
8859.94
9151
8191.08
6513.95
5007.46
4449.49
5105.1
6594.53
8103.84
8827.75
8405.46
7109.21
5679.78
4902.25
5165.49
6258.66
7518.54
8232.94
8054.1
7175.18
6173.68
5634.17
5796.33
6448.04
7114.59
7396.48
7216.12
6812.39
6500.62
6418.5
3642.89
5864.78
7409.8
7877.07
6870.13
4879.46
3041.56
2527.09
3802.6
6246.12
8437.39
8998.92
7476.06
4682.81
2259.49
1688.85
3374.74
6364.05
8899.45
9472.38
7732.97
4700.99
2152.78
1562.7
3240.8
6176.24
8659.92
9294.22
7784.46
5061.71
2698.17
1988.69
3241.36
5664.55
7873.05
8686
7753.68
5684.85
3648.94
2713.48
3292.58
4984.28
6843.21
7906.23
7681.54
6360.83
4675.46
3497.19
3396.81
4376.42
5894.32
7157
7526.69
6841.03
5486.21
4187.6
3625.27
4075.16
5267.19
6539.02
7203.31
6925.54
5900.41
4727.35
4059.17
4230.23
5081.52
6080.34
6653.64
6526.02
5856.9
5103.6
4712.56
4846.93
5323.55
5782.01
5946.58
5789.52
5494.68
5236.47
1890.97
3361.11
4881.84
6131.11
6443.21
5528.43
3768.92
2135.1
1652.57
2733.51
4840.55
6748.39
7273.33
6022.06
3676.5
1613.9
1081.08
2428.99
4884.47
7005.64
7544.33
6190.18
3747.25
1644.53
1086.42
2356.14
4678.88
6704.67
7303.73
6199.51
4083.41
2175.05
1511.99
2386.77
4235.02
6002.19
6748.84
6145.28
4599.46
2983.72
2142.54
2458.41
3692.92
5156.74
6091.39
6054.12
5117.28
3800.47
2787.68
2579.27
3249.92
4425.93
5486.98
5888.3
5440
4400.48
3334.32
2807.91
3085.16
3989.1
5007.08
5581.31
5420.46
4654.18
3743.37
3202.55
3302.02
3926.82
4671.18
5100.68
5012.92
4535.22
4009.12
3751.87
3861.03
4186.94
4471.2
4534.78
4388.49
4141.96
1298.47
1681.81
2456.95
3576.99
4582.22
4861.92
4110.36
2640.22
1280.37
885.727
1779.13
3499.78
5043.25
5462.6
4460.16
2593.89
958.963
531.977
1578.96
3491.13
5147.99
5585.74
4564.77
2697.9
1073.96
612.867
1540.31
3284.46
4835.08
5336.11
4559.56
2997.78
1547.5
990.328
1573.47
2913.54
4248.93
4874.27
4508.72
3409.19
2194.03
1496.27
1639.76
2498.96
3595.08
4359.62
4423.24
3787.86
2806.61
1992.15
1753.73
2194.02
3064.77
3901.63
4268.7
3986.57
3223.75
2401.4
1961.85
2127.16
2782
3546.5
3996.77
3905.02
3359.92
2699.43
2301.42
2361.9
2794.77
3307.79
3597.48
3533.44
3216.55
2884.21
2739.65
2826.51
3026.87
3167.85
3159.81
3020.26
1145.91
914.782
957.022
1423.5
2219.5
2924.39
3069.13
2479.01
1438.55
551.537
376.3
1066.38
2248.19
3228.2
3409.58
2660.66
1407.13
383.947
196.059
956.565
2219.3
3247.09
3449.86
2725.95
1510.11
506.891
276.364
920.384
2043.89
3001.43
3272.53
2743.61
1746.39
847.687
524.877
914.87
1765.53
2598.65
2979.34
2739.45
2043.44
1278.31
839.666
931.222
1476.12
2173.62
2662.6
2705.04
2298.69
1668.23
1144.23
992.326
1279.3
1842.74
2379.61
2608.11
2417.13
1922.72
1400.95
1133.79
1253.9
1675.8
2151.36
2416.3
2340.92
1995.96
1598.7
1376.03
1431.33
1695.55
1987
2134.5
2080.63
1900.42
1732.3
1677.34
1738.08
1833.07
1875.81
1832.13
578.692
467.538
372.146
375.155
522.493
748.877
917.123
911.074
716.533
438.511
241.757
252.332
474.393
782.406
994.428
980.175
743.572
422.188
204.035
217.904
454.802
774.936
992.782
984.582
760.393
454.295
241.337
238.124
437.836
720.11
925.502
945.145
778.477
526.921
330.564
290.8
418.75
635.832
822.737
884.432
797.16
615.462
438.194
355.084
402.963
550.495
717.921
819.68
806.866
690.364
533.558
418.337
402.905
492.476
637.022
758.838
794.091
726.708
596.632
476.673
431.221
481.272
593.809
702.875
748.64
711.026
618.954
529.874
493.36
522.935
591.66
653.392
673.599
649.182
605.558
575.283
574.649
594.375
611.024
605.004
-9.89132
-9.79535
-9.90082
-9.98886
-9.97443
-9.73529
-9.37031
-9.4425
-9.81131
-9.77792
-9.96883
-10.077
-10.0072
-9.70365
-9.22381
-9.31469
-9.812
-9.79144
-10.0058
-10.107
-10.0206
-9.76366
-9.33908
-9.38057
-9.83478
-9.83691
-9.97951
-10.0713
-10.0212
-9.87456
-9.58768
-9.53691
-9.82623
-9.90427
-9.94986
-10.017
-10.0066
-9.97673
-9.81627
-9.69147
-9.77231
-9.94855
-9.95764
-9.97815
-9.98324
-9.97701
-9.93983
-9.79299
-9.72036
-9.84302
-9.96658
-9.95051
-9.95362
-9.95041
-9.97209
-9.84549
-9.70723
-9.76941
-9.95217
-9.93381
-9.92484
-9.93267
-9.97213
-9.88234
-9.75722
-9.79301
-9.95173
-9.94165
-9.92306
-9.93928
-9.99007
-9.944
-9.89952
-9.93954
-10.01
-9.99167
-9.99175
-10.0156
-10.0169
-10.0221
-10.5455
-10.5455
-10.5457
-10.5459
-10.5459
-10.5457
-10.5455
-10.5453
-10.5453
-10.5455
-10.5457
-10.5459
-10.5459
-10.5458
-10.5455
-10.5453
-10.5453
-10.5454
-10.5457
-10.5459
-10.5459
-10.5457
-10.5455
-10.5453
-10.5453
-10.5454
-10.5457
-10.5459
-10.5459
-10.5457
-10.5455
-10.5453
-10.5453
-10.5454
-10.5456
-10.5458
-10.5458
-10.5457
-10.5456
-10.5454
-10.5453
-10.5454
-10.5455
-10.5457
-10.5458
-10.5457
-10.5456
-10.5455
-10.5454
-10.5454
-10.5455
-10.5456
-10.5457
-10.5457
-10.5457
-10.5456
-10.5455
-10.5454
-10.5455
-10.5456
-10.5457
-10.5457
-10.5457
-10.5456
-10.5455
-10.5455
-10.5455
-10.5456
-10.5457
-10.5457
-10.5457
-10.5456
-10.5456
-10.5456
-10.5456
-10.5456
-10.5456
-10.5456
-10.5456
-10.5456
-11.0361
-11.0361
-11.0361
-11.0362
-11.0362
-11.0362
-11.0361
-11.036
-11.036
-11.036
-11.0361
-11.0362
-11.0362
-11.0362
-11.0361
-11.036
-11.036
-11.036
-11.0361
-11.0362
-11.0362
-11.0362
-11.0361
-11.036
-11.036
-11.036
-11.0361
-11.0362
-11.0362
-11.0361
-11.0361
-11.036
-11.036
-11.036
-11.0361
-11.0361
-11.0362
-11.0361
-11.0361
-11.036
-11.036
-11.036
-11.036
-11.0361
-11.0361
-11.0361
-11.0361
-11.0361
-11.036
-11.036
-11.036
-11.0361
-11.0361
-11.0361
-11.0361
-11.0361
-11.036
-11.036
-11.036
-11.0361
-11.0361
-11.0361
-11.0361
-11.0361
-11.0361
-11.0361
-11.0361
-11.0361
-11.0361
-11.0361
-11.0361
-11.0361
-11.0361
-11.0361
-11.0361
-11.0361
-11.0361
-11.0361
-11.0361
-11.0361
-11.5266
-11.5266
-11.5266
-11.5266
-11.5266
-11.5267
-11.5267
-11.5266
-11.5266
-11.5266
-11.5266
-11.5266
-11.5266
-11.5267
-11.5267
-11.5266
-11.5266
-11.5265
-11.5265
-11.5266
-11.5266
-11.5266
-11.5266
-11.5266
-11.5266
-11.5265
-11.5265
-11.5266
-11.5266
-11.5266
-11.5266
-11.5266
-11.5266
-11.5265
-11.5265
-11.5265
-11.5266
-11.5266
-11.5266
-11.5266
-11.5266
-11.5265
-11.5265
-11.5265
-11.5266
-11.5266
-11.5266
-11.5266
-11.5266
-11.5266
-11.5265
-11.5265
-11.5266
-11.5266
-11.5266
-11.5266
-11.5266
-11.5266
-11.5266
-11.5266
-11.5266
-11.5266
-11.5266
-11.5266
-11.5266
-11.5266
-11.5266
-11.5266
-11.5266
-11.5266
-11.5266
-11.5266
-11.5266
-11.5266
-11.5266
-11.5266
-11.5266
-11.5266
-11.5266
-11.5266
-12.0171
-12.0171
-12.0171
-12.0171
-12.0171
-12.0171
-12.0171
-12.0171
-12.0171
-12.0171
-12.0171
-12.0171
-12.0171
-12.0171
-12.0171
-12.0171
-12.0171
-12.0171
-12.0171
-12.0171
-12.0171
-12.0171
-12.0171
-12.0171
-12.0171
-12.0171
-12.0171
-12.0171
-12.0171
-12.0171
-12.0171
-12.0171
-12.0171
-12.0171
-12.0171
-12.017
-12.017
-12.0171
-12.0171
-12.0171
-12.0171
-12.0171
-12.0171
-12.0171
-12.017
-12.0171
-12.0171
-12.0171
-12.0171
-12.0171
-12.0171
-12.0171
-12.0171
-12.0171
-12.0171
-12.0171
-12.0171
-12.0171
-12.0171
-12.0171
-12.0171
-12.0171
-12.0171
-12.0171
-12.0171
-12.0171
-12.0171
-12.0171
-12.0171
-12.0171
-12.0171
-12.0171
-12.0171
-12.0171
-12.0171
-12.0171
-12.0171
-12.0171
-12.0171
-12.0171
-12.5076
-12.5076
-12.5076
-12.5076
-12.5076
-12.5076
-12.5076
-12.5076
-12.5076
-12.5076
-12.5076
-12.5076
-12.5076
-12.5076
-12.5076
-12.5076
-12.5076
-12.5076
-12.5076
-12.5076
-12.5076
-12.5076
-12.5076
-12.5076
-12.5076
-12.5076
-12.5076
-12.5076
-12.5076
-12.5076
-12.5076
-12.5076
-12.5076
-12.5076
-12.5076
-12.5076
-12.5076
-12.5076
-12.5076
-12.5076
-12.5076
-12.5076
-12.5076
-12.5076
-12.5076
-12.5076
-12.5076
-12.5076
-12.5076
-12.5076
-12.5076
-12.5076
-12.5076
-12.5076
-12.5076
-12.5076
-12.5076
-12.5076
-12.5076
-12.5076
-12.5076
-12.5076
-12.5076
-12.5076
-12.5076
-12.5076
-12.5076
-12.5076
-12.5076
-12.5076
-12.5076
-12.5076
-12.5076
-12.5076
-12.5076
-12.5076
-12.5076
-12.5076
-12.5076
-12.5076
-12.9981
-12.9981
-12.9981
-12.9981
-12.9981
-12.9981
-12.9981
-12.9981
-12.9981
-12.9981
-12.9981
-12.9981
-12.9981
-12.9981
-12.9981
-12.9981
-12.9981
-12.9981
-12.9981
-12.9981
-12.9981
-12.9981
-12.9981
-12.9981
-12.9981
-12.9981
-12.9981
-12.9981
-12.9981
-12.9981
-12.9981
-12.9981
-12.9981
-12.9981
-12.9981
-12.9981
-12.9981
-12.9981
-12.9981
-12.9981
-12.9981
-12.9981
-12.9981
-12.9981
-12.9981
-12.9981
-12.9981
-12.9981
-12.9981
-12.9981
-12.9981
-12.9981
-12.9981
-12.9981
-12.9981
-12.9981
-12.9981
-12.9981
-12.9981
-12.9981
-12.9981
-12.9981
-12.9981
-12.9981
-12.9981
-12.9981
-12.9981
-12.9981
-12.9981
-12.9981
-12.9981
-12.9981
-12.9981
-12.9981
-12.9981
-12.9981
-12.9981
-12.9981
-12.9981
-12.9981
-13.4886
-13.4886
-13.4886
-13.4886
-13.4886
-13.4886
-13.4886
-13.4886
-13.4886
-13.4886
-13.4886
-13.4886
-13.4886
-13.4886
-13.4886
-13.4886
-13.4886
-13.4886
-13.4886
-13.4886
-13.4886
-13.4886
-13.4886
-13.4886
-13.4886
-13.4886
-13.4886
-13.4886
-13.4886
-13.4886
-13.4886
-13.4886
-13.4886
-13.4886
-13.4886
-13.4886
-13.4886
-13.4886
-13.4886
-13.4886
-13.4886
-13.4886
-13.4886
-13.4886
-13.4886
-13.4886
-13.4886
-13.4886
-13.4886
-13.4886
-13.4886
-13.4886
-13.4886
-13.4886
-13.4886
-13.4886
-13.4886
-13.4886
-13.4886
-13.4886
-13.4886
-13.4886
-13.4886
-13.4886
-13.4886
-13.4886
-13.4886
-13.4886
-13.4886
-13.4886
-13.4886
-13.4886
-13.4886
-13.4886
-13.4886
-13.4886
-13.4886
-13.4886
-13.4886
-13.4886
-13.9791
-13.9791
-13.9791
-13.9791
-13.9791
-13.9791
-13.9791
-13.9791
-13.9791
-13.9791
-13.9791
-13.9791
-13.9791
-13.9791
-13.9791
-13.9791
-13.9791
-13.9791
-13.9791
-13.9791
-13.9791
-13.9791
-13.9791
-13.9791
-13.9791
-13.9791
-13.9791
-13.9791
-13.9791
-13.9791
-13.9791
-13.9791
-13.9791
-13.9791
-13.9791
-13.9791
-13.9791
-13.9791
-13.9791
-13.9791
-13.9791
-13.9791
-13.9791
-13.9791
-13.9791
-13.9791
-13.9791
-13.9791
-13.9791
-13.9791
-13.9791
-13.9791
-13.9791
-13.9791
-13.9791
-13.9791
-13.9791
-13.9791
-13.9791
-13.9791
-13.9791
-13.9791
-13.9791
-13.9791
-13.9791
-13.9791
-13.9791
-13.9791
-13.9791
-13.9791
-13.9791
-13.9791
-13.9791
-13.9791
-13.9791
-13.9791
-13.9791
-13.9791
-13.9791
-13.9791
-14.4696
-14.4696
-14.4696
-14.4696
-14.4696
-14.4696
-14.4696
-14.4696
-14.4696
-14.4696
-14.4696
-14.4696
-14.4696
-14.4696
-14.4696
-14.4696
-14.4696
-14.4696
-14.4696
-14.4696
-14.4696
-14.4696
-14.4696
-14.4696
-14.4696
-14.4696
-14.4696
-14.4696
-14.4696
-14.4696
-14.4696
-14.4696
-14.4696
-14.4696
-14.4696
-14.4696
-14.4696
-14.4696
-14.4696
-14.4696
-14.4696
-14.4696
-14.4696
-14.4696
-14.4696
-14.4696
-14.4696
-14.4696
-14.4696
-14.4696
-14.4696
-14.4696
-14.4696
-14.4696
-14.4696
-14.4696
-14.4696
-14.4696
-14.4696
-14.4696
-14.4696
-14.4696
-14.4696
-14.4696
-14.4696
-14.4696
-14.4696
-14.4696
-14.4696
-14.4696
-14.4696
-14.4696
-14.4696
-14.4696
-14.4696
-14.4696
-14.4696
-14.4696
-14.4696
-14.4696
-14.9601
-14.9601
-14.9601
-14.9601
-14.9601
-14.9601
-14.9601
-14.9601
-14.9601
-14.9601
-14.9601
-14.9601
-14.9601
-14.9601
-14.9601
-14.9601
-14.9601
-14.9601
-14.9601
-14.9601
-14.9601
-14.9601
-14.9601
-14.9601
-14.9601
-14.9601
-14.9601
-14.9601
-14.9601
-14.9601
-14.9601
-14.9601
-14.9601
-14.9601
-14.9601
-14.9601
-14.9601
-14.9601
-14.9601
-14.9601
-14.9601
-14.9601
-14.9601
-14.9601
-14.9601
-14.9601
-14.9601
-14.9601
-14.9601
-14.9601
-14.9601
-14.9601
-14.9601
-14.9601
-14.9601
-14.9601
-14.9601
-14.9601
-14.9601
-14.9601
-14.9601
-14.9601
-14.9601
-14.9601
-14.9601
-14.9601
-14.9601
-14.9601
-14.9601
-14.9601
-14.9601
-14.9601
-14.9601
-14.9601
-14.9601
-14.9601
-14.9601
-14.9601
-14.9601
-14.9601
-15.4506
-15.4506
-15.4506
-15.4506
-15.4506
-15.4506
-15.4506
-15.4506
-15.4506
-15.4506
-15.4506
-15.4506
-15.4506
-15.4506
-15.4506
-15.4506
-15.4506
-15.4506
-15.4506
-15.4506
-15.4506
-15.4506
-15.4506
-15.4506
-15.4506
-15.4506
-15.4506
-15.4506
-15.4506
-15.4506
-15.4506
-15.4506
-15.4506
-15.4506
-15.4506
-15.4506
-15.4506
-15.4506
-15.4506
-15.4506
-15.4506
-15.4506
-15.4506
-15.4506
-15.4506
-15.4506
-15.4506
-15.4506
-15.4506
-15.4506
-15.4506
-15.4506
-15.4506
-15.4506
-15.4506
-15.4506
-15.4506
-15.4506
-15.4506
-15.4506
-15.4506
-15.4506
-15.4506
-15.4506
-15.4506
-15.4506
-15.4506
-15.4506
-15.4506
-15.4506
-15.4506
-15.4506
-15.4506
-15.4506
-15.4506
-15.4506
-15.4506
-15.4506
-15.4506
-15.4506
-15.9411
-15.9411
-15.9411
-15.9411
-15.9411
-15.9411
-15.9411
-15.9411
-15.9411
-15.9411
-15.9411
-15.9411
-15.9411
-15.9411
-15.9411
-15.9411
-15.9411
-15.9411
-15.9411
-15.9411
-15.9411
-15.9411
-15.9411
-15.9411
-15.9411
-15.9411
-15.9411
-15.9411
-15.9411
-15.9411
-15.9411
-15.9411
-15.9411
-15.9411
-15.9411
-15.9411
-15.9411
-15.941
-15.941
-15.941
-15.941
-15.941
-15.941
-15.941
-15.9411
-15.9411
-15.9411
-15.9411
-15.9411
-15.9411
-15.9411
-15.9411
-15.9411
-15.9411
-15.9411
-15.9411
-15.9411
-15.9411
-15.9411
-15.9411
-15.9411
-15.9411
-15.9411
-15.9411
-15.9411
-15.9411
-15.9411
-15.9411
-15.9411
-15.9411
-15.9411
-15.9411
-15.9411
-15.9411
-15.9411
-15.9411
-15.9411
-15.9411
-15.9411
-15.9411
-16.4316
-16.4316
-16.4316
-16.4316
-16.4316
-16.4316
-16.4316
-16.4316
-16.4316
-16.4316
-16.4316
-16.4316
-16.4316
-16.4316
-16.4316
-16.4316
-16.4316
-16.4316
-16.4316
-16.4316
-16.4316
-16.4316
-16.4316
-16.4316
-16.4316
-16.4316
-16.4316
-16.4316
-16.4316
-16.4316
-16.4316
-16.4316
-16.4316
-16.4316
-16.4316
-16.4315
-16.4315
-16.4315
-16.4315
-16.4315
-16.4315
-16.4315
-16.4315
-16.4315
-16.4315
-16.4316
-16.4316
-16.4316
-16.4316
-16.4316
-16.4316
-16.4316
-16.4316
-16.4316
-16.4316
-16.4316
-16.4316
-16.4316
-16.4316
-16.4316
-16.4316
-16.4316
-16.4316
-16.4316
-16.4316
-16.4316
-16.4316
-16.4316
-16.4316
-16.4316
-16.4316
-16.4316
-16.4316
-16.4316
-16.4316
-16.4316
-16.4316
-16.4316
-16.4316
-16.4316
-16.9221
-16.9221
-16.9221
-16.9221
-16.9221
-16.9221
-16.9221
-16.9221
-16.9221
-16.9221
-16.9221
-16.9221
-16.9221
-16.9221
-16.9221
-16.9221
-16.9221
-16.9221
-16.9221
-16.9221
-16.9221
-16.9221
-16.9221
-16.9221
-16.9221
-16.9221
-16.9221
-16.9221
-16.9221
-16.9221
-16.9221
-16.9221
-16.9221
-16.9221
-16.922
-16.922
-16.922
-16.922
-16.922
-16.922
-16.922
-16.922
-16.922
-16.922
-16.922
-16.922
-16.922
-16.9221
-16.9221
-16.9221
-16.9221
-16.9221
-16.9221
-16.9221
-16.9221
-16.9221
-16.9221
-16.9221
-16.9221
-16.9221
-16.9221
-16.9221
-16.9221
-16.9221
-16.9221
-16.9221
-16.9221
-16.9221
-16.9221
-16.9221
-16.9221
-16.9221
-16.9221
-16.9221
-16.9221
-16.9221
-16.9221
-16.9221
-16.9221
-16.9221
-17.4126
-17.4126
-17.4126
-17.4126
-17.4126
-17.4126
-17.4126
-17.4126
-17.4126
-17.4126
-17.4126
-17.4126
-17.4126
-17.4126
-17.4126
-17.4126
-17.4126
-17.4126
-17.4126
-17.4126
-17.4126
-17.4126
-17.4126
-17.4126
-17.4126
-17.4126
-17.4126
-17.4126
-17.4126
-17.4126
-17.4126
-17.4126
-17.4126
-17.4125
-17.4125
-17.4125
-17.4125
-17.4125
-17.4125
-17.4125
-17.4125
-17.4125
-17.4125
-17.4125
-17.4125
-17.4125
-17.4125
-17.4125
-17.4126
-17.4126
-17.4126
-17.4126
-17.4126
-17.4126
-17.4126
-17.4126
-17.4126
-17.4126
-17.4126
-17.4126
-17.4126
-17.4126
-17.4126
-17.4126
-17.4126
-17.4126
-17.4126
-17.4126
-17.4126
-17.4126
-17.4126
-17.4126
-17.4126
-17.4126
-17.4126
-17.4126
-17.4126
-17.4126
-17.4126
-17.4126
-17.9031
-17.9031
-17.9031
-17.9031
-17.9031
-17.9031
-17.9031
-17.9031
-17.9031
-17.9031
-17.9031
-17.9031
-17.9031
-17.9031
-17.9031
-17.9031
-17.9031
-17.9031
-17.9031
-17.9031
-17.9031
-17.9031
-17.9031
-17.9031
-17.9031
-17.9031
-17.9031
-17.9031
-17.9031
-17.9031
-17.9031
-17.9031
-17.903
-17.903
-17.903
-17.903
-17.903
-17.903
-17.903
-17.903
-17.903
-17.903
-17.903
-17.903
-17.903
-17.903
-17.903
-17.903
-17.903
-17.9031
-17.9031
-17.9031
-17.9031
-17.9031
-17.9031
-17.9031
-17.9031
-17.9031
-17.9031
-17.9031
-17.9031
-17.9031
-17.9031
-17.9031
-17.9031
-17.9031
-17.9031
-17.9031
-17.9031
-17.9031
-17.9031
-17.9031
-17.9031
-17.9031
-17.9031
-17.9031
-17.9031
-17.9031
-17.9031
-17.9031
-18.3936
-18.3936
-18.3936
-18.3936
-18.3936
-18.3936
-18.3936
-18.3936
-18.3936
-18.3936
-18.3936
-18.3936
-18.3936
-18.3936
-18.3936
-18.3936
-18.3936
-18.3936
-18.3936
-18.3936
-18.3936
-18.3936
-18.3936
-18.3936
-18.3936
-18.3936
-18.3936
-18.3936
-18.3936
-18.3936
-18.3936
-18.3935
-18.3935
-18.3935
-18.3935
-18.3935
-18.3935
-18.3935
-18.3935
-18.3935
-18.3935
-18.3935
-18.3935
-18.3935
-18.3935
-18.3935
-18.3935
-18.3935
-18.3935
-18.3936
-18.3936
-18.3936
-18.3936
-18.3936
-18.3936
-18.3936
-18.3936
-18.3936
-18.3936
-18.3936
-18.3936
-18.3936
-18.3936
-18.3936
-18.3936
-18.3936
-18.3936
-18.3936
-18.3936
-18.3936
-18.3936
-18.3936
-18.3936
-18.3936
-18.3936
-18.3936
-18.3936
-18.3936
-18.3936
-18.3936
-18.8841
-18.8841
-18.8841
-18.8841
-18.8841
-18.8841
-18.8841
-18.8841
-18.8841
-18.8841
-18.8841
-18.8841
-18.8841
-18.8841
-18.8841
-18.8841
-18.8841
-18.8841
-18.8841
-18.8841
-18.8841
-18.8841
-18.8841
-18.8841
-18.8841
-18.8841
-18.8841
-18.8841
-18.8841
-18.8841
-18.8841
-18.884
-18.884
-18.884
-18.884
-18.884
-18.884
-18.884
-18.884
-18.884
-18.884
-18.884
-18.884
-18.884
-18.884
-18.884
-18.884
-18.884
-18.884
-18.884
-18.8841
-18.8841
-18.8841
-18.8841
-18.8841
-18.8841
-18.8841
-18.8841
-18.8841
-18.8841
-18.8841
-18.8841
-18.8841
-18.8841
-18.8841
-18.8841
-18.8841
-18.8841
-18.8841
-18.8841
-18.8841
-18.8841
-18.8841
-18.8841
-18.8841
-18.8841
-18.8841
-18.8841
-18.8841
-18.8841
-19.3746
-19.3746
-19.3746
-19.3746
-19.3746
-19.3746
-19.3746
-19.3746
-19.3746
-19.3746
-19.3746
-19.3746
-19.3746
-19.3746
-19.3746
-19.3746
-19.3746
-19.3746
-19.3746
-19.3746
-19.3746
-19.3746
-19.3746
-19.3746
-19.3746
-19.3746
-19.3746
-19.3746
-19.3746
-19.3746
-19.3745
-19.3745
-19.3745
-19.3745
-19.3745
-19.3745
-19.3745
-19.3745
-19.3745
-19.3745
-19.3745
-19.3745
-19.3745
-19.3745
-19.3745
-19.3745
-19.3745
-19.3745
-19.3745
-19.3745
-19.3746
-19.3746
-19.3746
-19.3746
-19.3746
-19.3746
-19.3746
-19.3746
-19.3746
-19.3746
-19.3746
-19.3746
-19.3746
-19.3746
-19.3746
-19.3746
-19.3746
-19.3746
-19.3746
-19.3746
-19.3746
-19.3746
-19.3746
-19.3746
-19.3746
-19.3746
-19.3746
-19.3746
-19.3746
-19.3746
-19.8651
-19.8651
-19.8651
-19.8651
-19.8651
-19.8651
-19.8651
-19.8651
-19.8651
-19.8651
-19.8651
-19.8651
-19.8651
-19.8651
-19.8651
-19.8651
-19.8651
-19.8651
-19.8651
-19.8651
-19.8651
-19.8651
-19.8651
-19.8651
-19.8651
-19.8651
-19.8651
-19.8651
-19.8651
-19.8651
-19.865
-19.865
-19.865
-19.865
-19.865
-19.865
-19.865
-19.865
-19.865
-19.865
-19.865
-19.865
-19.865
-19.865
-19.865
-19.865
-19.865
-19.865
-19.865
-19.865
-19.865
-19.8651
-19.8651
-19.8651
-19.8651
-19.8651
-19.8651
-19.8651
-19.8651
-19.8651
-19.8651
-19.8651
-19.8651
-19.8651
-19.8651
-19.8651
-19.8651
-19.8651
-19.8651
-19.8651
-19.8651
-19.8651
-19.8651
-19.8651
-19.8651
-19.8651
-19.8651
-19.8651
-19.8651
-19.8651
-20.3556
-20.3556
-20.3556
-20.3556
-20.3556
-20.3556
-20.3556
-20.3556
-20.3556
-20.3556
-20.3556
-20.3556
-20.3556
-20.3556
-20.3556
-20.3556
-20.3556
-20.3556
-20.3556
-20.3556
-20.3556
-20.3556
-20.3556
-20.3556
-20.3556
-20.3556
-20.3556
-20.3556
-20.3556
-20.3555
-20.3555
-20.3555
-20.3555
-20.3555
-20.3555
-20.3555
-20.3555
-20.3555
-20.3555
-20.3555
-20.3554
-20.3555
-20.3555
-20.3555
-20.3555
-20.3555
-20.3555
-20.3555
-20.3555
-20.3555
-20.3555
-20.3556
-20.3556
-20.3556
-20.3556
-20.3556
-20.3556
-20.3556
-20.3556
-20.3556
-20.3556
-20.3556
-20.3556
-20.3556
-20.3556
-20.3556
-20.3556
-20.3556
-20.3556
-20.3556
-20.3556
-20.3556
-20.3556
-20.3556
-20.3556
-20.3556
-20.3556
-20.3556
-20.3556
-20.3556
-20.8461
-20.8461
-20.8461
-20.8461
-20.8461
-20.8461
-20.8461
-20.8461
-20.8461
-20.8461
-20.8461
-20.8461
-20.8461
-20.8461
-20.8461
-20.8461
-20.8461
-20.8461
-20.8461
-20.8461
-20.8461
-20.8461
-20.8461
-20.8461
-20.8461
-20.8461
-20.8461
-20.8461
-20.8461
-20.846
-20.846
-20.846
-20.846
-20.846
-20.846
-20.846
-20.846
-20.8459
-20.8459
-20.8459
-20.8459
-20.8459
-20.8459
-20.8459
-20.846
-20.846
-20.846
-20.846
-20.846
-20.846
-20.846
-20.846
-20.8461
-20.8461
-20.8461
-20.8461
-20.8461
-20.8461
-20.8461
-20.8461
-20.8461
-20.8461
-20.8461
-20.8461
-20.8461
-20.8461
-20.8461
-20.8461
-20.8461
-20.8461
-20.8461
-20.8461
-20.8461
-20.8461
-20.8461
-20.8461
-20.8461
-20.8461
-20.8461
-20.8461
-21.3366
-21.3366
-21.3366
-21.3366
-21.3366
-21.3366
-21.3366
-21.3366
-21.3366
-21.3366
-21.3366
-21.3366
-21.3366
-21.3366
-21.3366