/*--------------------------------*- C++ -*----------------------------------*\
| =========                 |                                                 |
| \\      /  F ield         | OpenFOAM: The Open Source CFD Toolbox           |
|  \\    /   O peration     | Version:  2412                                  |
|   \\  /    A nd           | Website:  www.openfoam.com                      |
|    \\/     M anipulation  |                                                 |
\*---------------------------------------------------------------------------*/
FoamFile
{
    version     2.0;
    format      ascii;
    arch        "LSB;label=32;scalar=64";
    class       volScalarField;
    location    "2.55";
    object      p_rgh;
}
// * * * * * * * * * * * * * * * * * * * * * * * * * * * * * * * * * * * * * //

dimensions      [1 -1 -2 0 0 0 0];

internalField   nonuniform List<scalar> 
6400
(
7749.25
7748.33
7746.82
7744.64
7741.82
7738.48
7734.72
7730.67
7726.45
7722.19
7718
7714.01
7710.33
7707.05
7704.26
7702.04
7700.44
7699.49
7699.22
7699.64
7700.74
7702.5
7704.88
7707.84
7711.32
7715.25
7719.54
7724.12
7728.9
7733.78
7738.64
7743.4
7747.95
7752.19
7756.03
7759.4
7762.21
7764.4
7765.92
7766.74
7766.85
7766.24
7764.93
7762.96
7760.37
7757.24
7753.63
7749.63
7745.33
7740.83
7736.21
7731.58
7727.04
7722.69
7718.61
7714.88
7711.59
7708.78
7706.52
7704.86
7703.82
7703.44
7703.71
7704.63
7706.19
7708.34
7711.03
7714.2
7717.76
7721.62
7725.68
7729.81
7733.9
7737.81
7741.43
7744.65
7747.39
7749.52
7751.02
7751.88
7750.13
7749.2
7747.58
7745.3
7742.39
7738.94
7735.05
7730.86
7726.51
7722.12
7717.82
7713.72
7709.93
7706.57
7703.72
7701.45
7699.81
7698.84
7698.57
7699
7700.12
7701.92
7704.35
7707.37
7710.92
7714.92
7719.29
7723.96
7728.83
7733.8
7738.76
7743.6
7748.23
7752.55
7756.46
7759.88
7762.74
7764.97
7766.51
7767.35
7767.45
7766.83
7765.49
7763.48
7760.85
7757.65
7753.98
7749.91
7745.53
7740.94
7736.23
7731.51
7726.88
7722.45
7718.3
7714.5
7711.14
7708.27
7705.97
7704.27
7703.21
7702.81
7703.09
7704.03
7705.61
7707.81
7710.57
7713.81
7717.47
7721.44
7725.61
7729.86
7734.07
7738.12
7741.88
7745.22
7748.08
7750.29
7751.85
7752.73
7751.68
7750.71
7748.93
7746.53
7743.44
7739.77
7735.66
7731.23
7726.62
7721.98
7717.44
7713.12
7709.14
7705.62
7702.61
7700.23
7698.51
7697.5
7697.22
7697.67
7698.84
7700.72
7703.25
7706.38
7710.07
7714.22
7718.76
7723.61
7728.66
7733.84
7738.99
7744.01
7748.82
7753.3
7757.36
7760.91
7763.87
7766.18
7767.79
7768.65
7768.75
7768.09
7766.69
7764.6
7761.86
7758.53
7754.71
7750.48
7745.93
7741.16
7736.28
7731.35
7726.55
7721.95
7717.63
7713.69
7710.2
7707.22
7704.82
7703.05
7701.94
7701.52
7701.81
7702.78
7704.44
7706.74
7709.63
7713.04
7716.89
7721.06
7725.46
7729.96
7734.42
7738.71
7742.69
7746.25
7749.25
7751.58
7753.33
7754.25
7754.09
7752.96
7751.07
7748.43
7745.05
7741.05
7736.58
7731.77
7726.77
7721.74
7716.83
7712.17
7707.89
7704.1
7700.89
7698.34
7696.51
7695.44
7695.14
7695.62
7696.87
7698.85
7701.53
7704.85
7708.75
7713.14
7717.94
7723.05
7728.39
7733.9
7739.34
7744.65
7749.73
7754.47
7758.77
7762.53
7765.66
7768.1
7769.8
7770.7
7770.8
7770.09
7768.6
7766.36
7763.45
7759.91
7755.86
7751.37
7746.55
7741.51
7736.33
7731.1
7726.02
7721.16
7716.6
7712.43
7708.74
7705.59
7703.05
7701.17
7699.99
7699.54
7699.83
7700.86
7702.62
7705.07
7708.17
7711.82
7715.96
7720.46
7725.22
7730.09
7734.93
7739.59
7743.94
7747.81
7751.1
7753.67
7755.53
7756.59
7757.43
7756.14
7754.02
7751.05
7747.28
7742.82
7737.83
7732.48
7726.95
7721.39
7715.97
7710.84
7706.15
7702
7698.51
7695.74
7693.76
7692.6
7692.28
7692.81
7694.16
7696.29
7699.18
7702.74
7706.92
7711.64
7716.79
7722.28
7728
7733.99
7739.8
7745.51
7750.98
7756.09
7760.72
7764.77
7768.15
7770.77
7772.59
7773.55
7773.64
7772.86
7771.24
7768.81
7765.65
7761.82
7757.43
7752.58
7747.39
7741.96
7736.44
7730.71
7725.28
7720.06
7715.17
7710.7
7706.74
7703.35
7700.61
7698.58
7697.3
7696.8
7697.11
7698.21
7700.11
7702.77
7706.13
7710.13
7714.66
7719.61
7724.86
7730.24
7735.61
7740.81
7745.65
7749.98
7753.65
7756.54
7758.61
7759.83
7761.81
7760.33
7757.89
7754.49
7750.18
7745.11
7739.45
7733.39
7727.14
7720.89
7714.81
7709.08
7703.86
7699.26
7695.39
7692.34
7690.17
7688.91
7688.58
7689.17
7690.65
7692.99
7696.13
7700.02
7704.57
7709.7
7715.31
7721.29
7727.56
7733.99
7740.37
7746.6
7752.58
7758.17
7763.24
7767.67
7771.37
7774.24
7776.22
7777.27
7777.35
7776.48
7774.67
7771.99
7768.5
7764.29
7759.46
7754.14
7748.45
7742.51
7736.44
7730.32
7724.33
7718.64
7713.33
7708.46
7704.15
7700.46
7697.47
7695.25
7693.84
7693.27
7693.58
7694.78
7696.85
7699.76
7703.47
7707.89
7712.94
7718.47
7724.35
7730.42
7736.48
7742.36
7747.87
7752.8
7757
7760.29
7762.67
7764.1
7767.39
7765.67
7762.79
7758.85
7753.85
7747.98
7741.46
7734.5
7727.35
7720.21
7713.31
7706.82
7700.93
7695.77
7691.46
7688.08
7685.68
7684.3
7683.96
7684.64
7686.29
7688.88
7692.35
7696.63
7701.63
7707.28
7713.45
7720.04
7726.97
7734.01
7741.05
7747.95
7754.57
7760.75
7766.37
7771.3
7775.4
7778.59
7780.78
7781.93
7782.01
7781.01
7778.98
7775.97
7772.06
7767.36
7761.98
7756.07
7749.75
7743.16
7736.46
7729.8
7723.08
7716.86
7711.02
7705.67
7700.93
7696.87
7693.57
7691.1
7689.52
7688.86
7689.17
7690.46
7692.73
7695.96
7700.08
7705.04
7710.72
7716.98
7723.67
7730.59
7737.54
7744.3
7750.65
7756.37
7761.23
7765.06
7767.86
7769.53
7774.38
7772.34
7768.9
7764.26
7758.39
7751.52
7743.9
7735.81
7727.52
7719.3
7711.38
7703.97
7697.28
7691.44
7686.6
7682.82
7680.18
7678.69
7678.34
7679.12
7680.98
7683.88
7687.75
7692.5
7698.06
7704.32
7711.16
7718.47
7726.21
7734.03
7741.87
7749.57
7756.97
7763.9
7770.21
7775.73
7780.34
7783.92
7786.38
7787.66
7787.72
7786.57
7784.25
7780.83
7776.41
7771.09
7765.04
7758.38
7751.3
7743.93
7736.45
7728.99
7721.65
7714.7
7708.21
7702.28
7697.01
7692.5
7688.83
7686.07
7684.27
7683.49
7683.78
7685.17
7687.66
7691.24
7695.87
7701.47
7707.92
7715.07
7722.75
7730.73
7738.78
7746.65
7754.07
7760.77
7766.49
7771.01
7774.34
7776.31
7783
7780.59
7776.44
7770.91
7763.93
7755.79
7746.81
7737.31
7727.64
7718.09
7708.93
7700.42
7692.76
7686.12
7680.65
7676.43
7673.5
7671.89
7671.57
7672.5
7674.64
7677.91
7682.25
7687.56
7693.77
7700.76
7708.41
7716.6
7725.21
7733.99
7742.81
7751.49
7759.83
7767.66
7774.8
7781.06
7786.29
7790.35
7793.14
7794.57
7794.61
7793.28
7790.6
7786.68
7781.61
7775.56
7768.67
7761.12
7753.11
7744.8
7736.39
7728.03
7719.86
7712.08
7704.83
7698.21
7692.34
7687.3
7683.18
7680.05
7677.99
7677.04
7677.29
7678.76
7681.49
7685.47
7690.68
7697.04
7704.41
7712.64
7721.51
7730.8
7740.21
7749.45
7758.21
7766.15
7772.97
7778.35
7782.35
7784.7
7793.59
7790.67
7785.67
7779.02
7770.64
7760.91
7750.22
7739.01
7727.64
7716.48
7705.83
7696
7687.2
7679.64
7673.46
7668.74
7665.52
7663.8
7663.53
7664.68
7667.15
7670.86
7675.75
7681.72
7688.68
7696.52
7705.11
7714.32
7723.99
7733.9
7743.87
7753.71
7763.19
7772.1
7780.24
7787.39
7793.38
7798.03
7801.21
7802.83
7802.85
7801.28
7798.17
7793.63
7787.78
7780.82
7772.93
7764.31
7755.19
7745.77
7736.25
7726.83
7717.67
7708.93
7700.8
7693.4
7686.82
7681.16
7676.52
7672.96
7670.57
7669.4
7669.56
7671.09
7674.05
7678.48
7684.35
7691.58
7700.05
7709.55
7719.87
7730.73
7741.8
7752.74
7763.17
7772.67
7780.86
7787.36
7792.15
7794.99
7806.53
7802.97
7796.96
7788.86
7778.7
7766.98
7754.18
7740.85
7727.43
7714.35
7701.94
7690.54
7680.41
7671.78
7664.78
7659.53
7656.03
7654.24
7654.06
7655.51
7658.38
7662.62
7668.14
7674.86
7682.69
7691.51
7701.18
7711.56
7722.48
7733.71
7745.04
7756.25
7767.08
7777.29
7786.62
7794.86
7801.76
7807.12
7810.78
7812.64
7812.63
7810.77
7807.13
7801.82
7795.03
7786.97
7777.87
7767.98
7757.54
7746.8
7735.99
7725.33
7715.01
7705.15
7696.03
7687.73
7680.34
7673.99
7668.75
7664.69
7661.89
7660.43
7660.43
7661.97
7665.15
7670.05
7676.65
7684.89
7694.63
7705.65
7717.7
7730.45
7743.53
7756.55
7769.05
7780.51
7790.44
7798.36
7804.12
7807.56
7822.31
7817.98
7810.71
7800.76
7788.35
7774.12
7758.69
7742.78
7726.91
7711.53
7697.04
7683.8
7672.12
7662.25
7654.37
7648.56
7644.81
7643.04
7643.13
7644.87
7648.22
7653.05
7659.29
7666.86
7675.66
7685.59
7696.5
7708.23
7720.6
7733.37
7746.3
7759.11
7771.54
7783.28
7794.06
7803.59
7811.6
7817.83
7822.09
7824.23
7824.18
7821.97
7817.67
7811.44
7803.5
7794.11
7783.55
7772.14
7760.14
7747.85
7735.54
7723.44
7711.77
7700.66
7690.41
7681.09
7672.81
7665.67
7659.76
7655.12
7651.84
7650
7649.73
7651.19
7654.54
7659.89
7667.29
7676.69
7687.92
7700.74
7714.83
7729.83
7745.33
7760.89
7775.98
7789.89
7802.02
7811.77
7818.8
7822.87
7841.48
7836.37
7827.44
7815.09
7799.82
7782.47
7763.72
7744.7
7725.92
7707.84
7690.89
7675.48
7662
7650.73
7641.88
7635.52
7631.59
7629.94
7630.34
7632.58
7636.5
7642.01
7649.05
7657.56
7667.46
7678.62
7690.92
7704.2
7718.24
7732.79
7747.58
7762.29
7776.59
7790.16
7802.66
7813.76
7823.11
7830.41
7835.39
7837.88
7837.79
7835.14
7830.03
7822.67
7813.33
7802.32
7790.02
7776.79
7762.97
7748.87
7734.8
7721.04
7707.85
7695.3
7683.79
7673.34
7664.06
7656.06
7649.4
7644.13
7640.28
7637.94
7637.27
7638.51
7641.9
7647.68
7655.94
7666.64
7679.62
7694.55
7711.05
7728.73
7747.09
7765.75
7784.1
7801.06
7815.96
7828.05
7836.73
7841.59
7864.41
7858.7
7847.72
7832.29
7813.34
7792.18
7769.1
7746.49
7724.26
7702.99
7683.18
7665.24
7649.64
7636.76
7626.87
7620.02
7616.07
7614.74
7615.66
7618.52
7623.11
7629.33
7637.22
7646.76
7657.86
7670.4
7684.25
7699.27
7715.24
7731.86
7748.83
7765.76
7782.26
7797.96
7812.53
7825.53
7836.52
7845.13
7851.01
7853.93
7853.78
7850.59
7844.49
7835.74
7824.67
7811.71
7797.32
7781.93
7765.95
7749.74
7733.63
7717.96
7703
7688.92
7675.99
7664.28
7653.91
7644.97
7637.54
7631.61
7627.13
7624.13
7622.85
7623.63
7626.87
7632.96
7642.11
7654.32
7669.33
7686.76
7706.09
7726.99
7748.74
7770.9
7793.52
7814.24
7832.67
7847.76
7858.48
7863.98
7893.43
7886.35
7872.45
7852.86
7828.95
7803.03
7774.93
7747.97
7721.68
7696.73
7673.55
7652.61
7634.49
7619.75
7608.76
7601.57
7597.9
7597.21
7598.91
7602.57
7607.89
7614.77
7623.54
7634.18
7646.59
7660.64
7676.21
7693.19
7711.38
7730.43
7749.96
7769.49
7788.57
7806.78
7823.81
7839.12
7852.13
7862.35
7869.34
7872.79
7872.58
7868.73
7861.4
7850.92
7837.72
7822.38
7805.47
7787.54
7769.04
7750.36
7731.88
7714
7697.05
7681.23
7666.74
7653.66
7642.09
7632.14
7623.93
7617.44
7612.22
7608.44
7606.29
7606.24
7608.97
7615.14
7625.18
7639.11
7656.59
7677.02
7699.74
7724.27
7750.05
7776.47
7804.09
7829.58
7852.67
7871.83
7885.49
7892.45
7930.3
7920.86
7902.75
7877.68
7847.73
7815.15
7781
7748.91
7717.88
7688.65
7661.57
7637.03
7615.82
7598.85
7586.74
7579.53
7576.68
7577.18
7579.97
7584.47
7590.75
7597.94
7607.6
7619.44
7633.26
7648.94
7666.4
7685.57
7706.33
7728.24
7750.84
7773.46
7795.5
7816.55
7836.64
7854.79
7870.31
7882.52
7890.86
7894.96
7894.68
7890.04
7881.2
7868.56
7852.72
7834.42
7814.46
7793.49
7772.07
7750.52
7729.28
7708.83
7689.62
7671.87
7655.67
7641.08
7628.2
7617.16
7608.16
7601.57
7595.41
7590.82
7587.52
7586.04
7587.58
7593.38
7604.23
7620.21
7640.76
7664.86
7691.58
7720.38
7750.83
7782.18
7815.94
7847.39
7876.43
7901.32
7919.18
7928.64
7976.48
7962.99
7939.14
7905.01
7867.82
7828.21
7788.62
7749.52
7712.2
7678.27
7647.02
7618.17
7592.99
7573.18
7559.88
7553.18
7552.12
7554.76
7559.07
7563.96
7570.02
7578.34
7589.16
7602.3
7617.54
7634.87
7654.25
7675.82
7699.48
7724.88
7751.26
7777.63
7803.12
7827.08
7851.31
7872.98
7891.57
7906.25
7916.25
7921.13
7920.78
7915.19
7904.5
7889.17
7870.02
7848.04
7824.31
7799.65
7774.87
7749.98
7725.44
7701.9
7680.08
7660.27
7642.33
7626.2
7612.01
7599.79
7589.66
7582
7576.34
7571.59
7566.83
7562.89
7562.07
7566.68
7578.25
7596.86
7621.43
7650.05
7681.15
7714.84
7751.56
7789.96
7828.82
7867.46
7903.96
7936.73
7960.51
7973.75
8036.42
8019.1
7989.39
7941.51
7890.89
7840.41
7790.84
7744.39
7701
7665.36
7630.55
7596.23
7565.25
7541.37
7526.78
7521.62
7524.31
7530.51
7536.92
7542.18
7548.02
7557.24
7569.67
7584.22
7600.54
7618.9
7639.54
7663.12
7689.94
7719.55
7750.7
7781.89
7812.04
7841.45
7868.33
7893.91
7916.35
7934.19
7946.3
7952.11
7951.65
7944.91
7931.89
7913.06
7889.63
7863.05
7834.8
7806.15
7777.09
7748.04
7719.43
7692.17
7667.49
7645.94
7626.98
7610.01
7595.07
7581.84
7570.07
7560.78
7555.98
7551.38
7544.7
7536.89
7531.57
7533.51
7545.8
7568.19
7598.66
7633.18
7668.18
7703.82
7746.85
7792.64
7840.95
7889.75
7937.96
7984.31
8014.71
8031.95
8035.9
8072.22
8037.21
7973.46
7913.77
7855.64
7797.81
7745.18
7699.54
7659.16
7609.76
7533.21
7422.29
7311.15
7255.44
7262.16
7343.84
7412.57
7445.27
7459.49
7483.58
7527.02
7553.67
7568.62
7584.44
7602.17
7622.26
7646.82
7677.02
7711.63
7747.91
7783.72
7817.9
7851.55
7884.55
7915.58
7942.78
7964.75
7979.65
7986.78
7986.21
7977.88
7961.68
7938.26
7909.46
7877.08
7842.83
7808.61
7775.42
7742.71
7710.13
7678.47
7650.61
7628.35
7610.19
7594.27
7580.72
7568.3
7555.96
7531.93
7506.45
7493.41
7467.73
7407.31
7313.87
7272.71
7312.09
7414.98
7531.36
7611.87
7661.82
7702.7
7747.21
7798.89
7855.56
7912
7968.81
8029.51
8062.09
7979.32
7780.82
8038.32
8112.07
8029.31
7940.95
7732.65
7000.28
6357.25
5755.76
5169.81
4437.14
3621.97
2937.85
2500.63
2339.42
2350.67
2680.78
3008.44
3215.22
3319.76
3499.39
3745.93
4012.67
4232.57
4423.63
4641.06
4860.04
5159.93
5608.8
6199.66
6804.42
7283.47
7584.93
7738.06
7853.41
7935.63
7971.39
8000.37
8019.53
8028.33
8027.66
8017.51
7996.94
7966.12
7926.17
7820.87
7639.9
7428.58
7139.35
6737.07
6181.87
5599.06
5163.78
4904.74
4728.22
4554.88
4437.81
4315.55
4121.4
3916.79
3690.12
3568.51
3348.53
2972.74
2523.73
2379.53
2501.68
2897.64
3598.7
4470.23
5208.5
5774.5
6351.11
6969.48
7680.72
7938.51
8020.93
8099.51
8072.73
7822.68
7959.47
8249.18
8202.93
6241.08
3822.54
2138.8
1260.29
669.574
269.122
56.9722
2.15234
1.74699
1.49083
1.33847
1.21386
1.08379
0.891997
0.711172
0.629586
0.672345
0.877681
12.7054
50.1976
75.7362
102.921
138.695
187.902
275.973
430.916
677.558
988.93
1377.3
1936.84
2757.4
3773.02
4845.28
5747.77
6435.95
6847.61
6990.1
6979.55
6823.58
6400.46
5684.93
4699.59
3582.97
2565.05
1757.1
1187.02
848.251
614.289
408.198
271.929
200.222
158.093
124.576
103.852
86.89
50.74
1.04899
0.757196
0.670274
0.737748
0.934435
1.17191
1.33598
1.46409
1.58759
1.79029
2.18183
78.0271
325.329
752.335
1355.4
2230.46
3829.53
6080.68
8114.26
8239.09
8063.98
7817.4
6884.34
2657.69
547.253
46.4814
10.1437
5.35326
3.13598
2.66528
2.25434
1.90187
1.6024
1.3793
1.22423
1.10574
1.00537
0.915241
0.883013
0.824901
0.842364
1.13074
1.12011
1.08461
1.07239
1.0805
1.27154
1.5224
1.88254
2.20836
1.8871
0.959594
0.501594
0.207728
-0.108814
-0.302252
-0.241779
60.1788
475.038
768.151
927.941
922.709
750.03
445.551
19.2127
-0.22715
-0.325124
-0.22615
-0.0406828
0.164931
0.403388
1.65096
2.13054
1.98952
1.67851
1.4783
1.28839
0.896238
0.685124
0.787955
0.831749
0.761656
0.795248
0.88204
0.990891
1.10203
1.20836
1.32385
1.46538
1.65473
1.90324
2.17396
2.45883
2.80523
3.87345
7.33177
42.091
477.143
2375.59
6694.92
7961.26
6133.79
2555.08
63.7911
13.0241
8.46897
7.38246
6.49779
6.22181
6.08561
3.41914
2.42631
1.69061
1.2157
1.06728
0.946122
0.847132
0.76789
0.848598
1.17035
1.16942
1.16002
1.14202
1.13124
1.09884
1.05671
1.12563
1.22163
1.18804
1.08435
0.946607
0.709764
0.61382
0.520399
0.19621
0.0218707
0.00870517
0.120816
-0.00477683
-0.0789528
-0.100794
-0.0891284
-0.0469769
0.0497514
0.182233
0.0313195
-0.00222733
0.0407014
0.300635
0.547382
0.343823
0.515747
0.824689
1.28902
1.3757
1.31195
1.32906
1.03074
0.699477
0.677551
0.709547
0.741402
0.762655
0.801782
0.881003
1.00141
1.09165
1.19071
1.31748
1.47517
1.71152
1.99998
2.79937
3.35841
3.91426
4.79703
7.35744
12.4474
50.9263
2359.9
6212.41
6281.93
166.812
12.0589
6.98913
5.90548
7.10741
7.23856
7.14917
6.81583
6.48081
6.07661
2.70219
0.970299
0.901606
0.827778
0.760077
0.700923
0.652861
0.619455
0.604037
0.628135
0.720194
0.745506
0.775258
1.03438
1.21926
1.20943
1.14111
1.04831
1.03487
0.99477
0.440008
0.216875
0.13921
0.0942539
0.0993601
0.0820292
0.0498769
0.0415178
0.0427195
0.0469779
0.0550005
0.0704302
0.0950696
0.0757863
0.0427265
0.0565585
0.121129
0.25707
0.364229
0.478941
0.729366
1.28825
1.34641
0.945324
0.638959
0.636623
0.640254
0.649004
0.66665
0.68681
0.718391
0.80183
0.845863
0.898711
0.957414
1.00287
1.05894
1.25804
1.62814
4.30044
7.71334
8.09994
6.88965
5.30554
6.30581
7.0722
11.3584
157.35
6300.55
6545.3
277.538
6.29634
4.37581
4.17058
6.79247
6.75769
6.55778
6.27268
4.06402
1.36539
0.943197
0.81587
0.713355
0.679979
0.637073
0.599308
0.572008
0.555741
0.548181
0.544893
0.544018
0.545779
0.548323
0.548736
0.548461
0.692376
0.861226
0.901718
0.852604
0.737921
0.683974
0.43311
0.192394
0.155919
0.142728
0.126544
0.107443
0.0938349
0.0902933
0.0917346
0.0968269
0.107498
0.116723
0.109959
0.0999044
0.10976
0.148978
0.217009
0.496012
0.886796
0.997935
0.904253
0.599861
0.597959
0.608165
0.612332
0.614861
0.618254
0.624446
0.632586
0.641069
0.679808
0.727986
0.722022
0.741291
0.785705
0.831977
0.878731
5.45501
7.11812
7.38648
7.60831
7.83587
7.75512
5.9925
4.8886
6.41785
252.647
6494.46
3357.32
354.237
3.74265
2.61701
2.59264
6.02989
5.97907
5.68603
1.34564
0.449564
0.476367
0.509372
0.539875
0.55643
0.546262
0.513838
0.493203
0.482342
0.480102
0.483626
0.48996
0.497648
0.505476
0.511407
0.513087
0.508184
0.493735
0.470056
0.43646
0.394556
0.346411
0.299979
0.341558
0.255268
0.190435
0.170212
0.155082
0.145088
0.142385
0.143259
0.143214
0.141859
0.143071
0.148349
0.155544
0.166734
0.189853
0.232872
0.324716
0.478471
0.517312
0.523393
0.520193
0.548187
0.566827
0.577165
0.580947
0.58071
0.578255
0.575009
0.571229
0.56725
0.565042
0.567529
0.575169
0.585624
0.594604
0.588429
0.585814
1.73539
5.68964
6.88155
7.04976
7.13247
7.2711
6.5987
3.13305
4.12328
320.312
3402.23
104.244
313.616
1.68198
1.08721
0.749036
3.20004
4.7711
1.52254
-0.0260984
0.0811023
0.180935
0.265179
0.317912
0.346048
0.362536
0.369754
0.375377
0.380791
0.396001
0.413803
0.431891
0.448686
0.463275
0.473897
0.479119
0.476641
0.465643
0.445905
0.4185
0.384676
0.34675
0.308312
0.271957
0.244684
0.214953
0.193835
0.178306
0.168382
0.165265
0.165187
0.163802
0.162178
0.164695
0.173653
0.188167
0.208919
0.239019
0.280241
0.329591
0.379999
0.428808
0.468851
0.500911
0.524491
0.540043
0.548209
0.549844
0.545933
0.53757
0.525305
0.509721
0.491499
0.471967
0.453056
0.435227
0.417096
0.393018
0.352113
0.281068
0.183691
0.243227
3.10875
6.41315
6.43559
6.40477
4.6172
1.34538
1.96484
257.375
115.643
8.56833
56.299
0.254611
-0.0588122
-0.417351
-0.543737
-0.456618
-0.604351
-0.437685
-0.277391
-0.124126
0.00206203
0.0856075
0.136406
0.173058
0.205543
0.237189
0.270987
0.304577
0.338171
0.369436
0.396769
0.418985
0.434948
0.443875
0.445002
0.437735
0.42265
0.400709
0.373772
0.343546
0.312401
0.282378
0.255391
0.232214
0.212731
0.197421
0.187544
0.183834
0.183001
0.181345
0.180358
0.184241
0.194907
0.212135
0.235392
0.264942
0.300609
0.340308
0.380843
0.420066
0.453268
0.480176
0.500308
0.513469
0.519522
0.518515
0.510565
0.495916
0.474828
0.447547
0.414457
0.376477
0.334879
0.290198
0.241222
0.184923
0.117426
0.0343432
-0.0610379
-0.136086
-0.181495
-0.00172196
0.303832
1.12954
0.537579
0.0199439
0.588114
23.3612
5.80825
5.45761
-0.304713
-0.232295
-0.638832
-0.900628
-1.05381
-1.01158
-0.902336
-0.752671
-0.561959
-0.383484
-0.246003
-0.142552
-0.073873
-0.0158674
0.0403455
0.0966193
0.152904
0.207696
0.258943
0.30463
0.343324
0.374098
0.396404
0.409974
0.414854
0.411543
0.400831
0.384041
0.362654
0.338363
0.312932
0.287997
0.264865
0.244369
0.226857
0.212836
0.203457
0.198915
0.19695
0.195172
0.195378
0.20049
0.21186
0.229383
0.252103
0.279284
0.310211
0.343425
0.377116
0.409031
0.437007
0.459978
0.477171
0.487949
0.491681
0.487799
0.47576
0.45506
0.425255
0.386014
0.337257
0.27952
0.213797
0.140621
0.0604826
-0.0264192
-0.118848
-0.214088
-0.311134
-0.430171
-0.580945
-0.756596
-0.925145
-1.05674
-0.941345
-0.648684
-0.216586
-0.272282
4.00718
2.80427
0.14032
-0.240241
-0.807558
-1.05531
-1.17927
-1.16305
-1.10312
-0.977271
-0.77646
-0.454331
-0.354665
-0.317256
-0.281059
-0.208114
-0.129761
-0.0494957
0.0304131
0.10728
0.177761
0.239192
0.290163
0.330153
0.359286
0.378077
0.38728
0.387912
0.381237
0.368724
0.351937
0.332422
0.311634
0.290871
0.271199
0.253316
0.237826
0.225201
0.216479
0.211616
0.209059
0.207417
0.208089
0.213614
0.224887
0.241641
0.262648
0.2868
0.313303
0.341112
0.370025
0.396617
0.42044
0.440213
0.454906
0.463554
0.465127
0.458525
0.442549
0.415924
0.377372
0.32577
0.260391
0.181503
0.0901049
-0.0126997
-0.124677
-0.24151
-0.357643
-0.462001
-0.532988
-0.0879515
-0.518094
-0.988916
-1.13839
-1.25094
-1.11319
-0.892466
-0.334688
0.0622742
2.83653
1.64993
0.591975
0.041232
-0.569058
0.269434
-0.756811
-1.2651
-1.2533
-1.15939
-1.01149
-0.458453
1.05716
0.878744
-0.484671
-0.405112
-0.307066
-0.20155
-0.0959928
0.00517907
0.0970427
0.175771
0.239937
0.289575
0.325657
0.349586
0.362903
0.367185
0.364041
0.355124
0.342062
0.326342
0.309256
0.291899
0.275186
0.259808
0.246304
0.234731
0.226762
0.221939
0.219436
0.218299
0.219029
0.224404
0.235063
0.25048
0.2693
0.29043
0.313216
0.337063
0.36121
0.384028
0.404555
0.421676
0.434261
0.441111
0.440863
0.431924
0.412422
0.380218
0.332946
0.268386
0.184843
0.0822395
-0.0383837
-0.174381
-0.321198
-0.468918
-0.606261
-0.713835
0.510062
1.90297
0.755375
-1.18645
-1.32704
-1.3869
-0.696307
-0.128614
-0.154694
0.350393
8.7037
1.79013
0.930855
0.337479
1.46495
1.43599
0.550626
-1.42411
-1.44803
-1.37655
-1.24012
-0.611261
1.54814
1.83032
0.240339
-0.610638
-0.497303
-0.364009
-0.227906
-0.0979659
0.018488
0.116432
0.194771
0.254282
0.297071
0.325647
0.342452
0.349705
0.349386
0.343317
0.333168
0.320391
0.306201
0.291574
0.277301
0.263999
0.252146
0.242161
0.234576
0.229996
0.227984
0.22786
0.228772
0.233534
0.243229
0.256976
0.273472
0.291723
0.31124
0.331778
0.352251
0.371869
0.389667
0.404592
0.41547
0.420955
0.41941
0.408793
0.386541
0.349489
0.293851
0.215839
0.11189
-0.0194547
-0.175842
-0.352646
-0.542743
-0.724254
-0.874119
-0.718577
1.8507
1.66603
1.07428
-1.39821
-1.56789
-1.55751
0.0658718
0.356416
-0.0609655
2.64391
12.6425
2.23263
1.29189
0.294486
1.69512
1.40388
-0.113149
-1.71958
-1.7614
-1.66922
-1.50512
-0.964617
1.52993
1.74172
1.31979
-0.826776
-0.711426
-0.548184
-0.372073
-0.204308
-0.0572178
0.0626871
0.156126
0.225616
0.27461
0.307091
0.326532
0.33588
0.337532
0.333487
0.325458
0.314873
0.302886
0.290391
0.27808
0.266509
0.256128
0.247276
0.240384
0.236149
0.234921
0.2364
0.237441
0.241596
0.249903
0.261741
0.2759
0.291514
0.308272
0.325745
0.34331
0.360267
0.375794
0.388926
0.398503
0.403114
0.400934
0.389537
0.365667
0.324945
0.261901
0.170059
0.0423566
-0.127051
-0.329629
-0.399487
-0.703873
-1.00606
-1.18044
0.584915
1.61723
1.3952
-0.0020956
-1.87376
-1.92534
-1.82445
-0.580685
0.318278
-0.0984965
12.9223
13.2013
2.67333
1.66031
0.383882
1.59816
1.24437
-1.53596
-2.13557
-2.00578
-2.03324
-1.7912
-1.4233
1.06544
1.5849
1.64193
0.4946
-0.974332
-0.775034
-0.542831
-0.321085
-0.131356
0.0154865
0.125123
0.204479
0.258971
0.294374
0.315461
0.325939
0.328659
0.325818
0.31917
0.310105
0.299722
0.288849
0.278087
0.267936
0.258798
0.250901
0.244628
0.241046
0.240737
0.244637
0.245479
0.250315
0.255274
0.265002
0.276875
0.290057
0.30431
0.319246
0.334357
0.349071
0.362705
0.374421
0.3831
0.387358
0.385287
0.374209
0.350196
0.307693
0.238818
0.132828
-0.0219926
-0.235174
0.244281
2.21465
1.64127
-1.01223
-1.54234
0.645921
1.31329
0.39324
-1.45595
-1.94403
-2.47181
-2.22553
-1.73445
-0.0280419
0.0961466
13.4271
13.3642
53.8553
1.78481
0.301307
0.596847
1.00998
-2.0407
-2.57047
-2.34712
-2.41466
-2.07977
-1.74932
0.414449
1.39652
1.38526
1.36285
0.446972
0.0716837
-0.296354
-0.452508
-0.20807
-0.025497
0.103074
0.191908
0.250762
0.28775
0.309281
0.319855
0.32273
0.320308
0.314367
0.306246
0.29696
0.287278
0.277722
0.268731
0.260648
0.253612
0.247993
0.245225
0.246355
0.366229
0.315205
0.255673
0.258709
0.266651
0.276429
0.287453
0.299493
0.312242
0.325241
0.338018
0.350048
0.360728
0.368858
0.373241
0.372034
0.362476
0.340156
0.298806
0.226153
0.108376
-0.0575306
1.221
3.57978
2.62227
2.11674
-0.848785
-1.85733
-0.555473
1.05512
-1.14703
-1.73966
3.06258
-2.15994
-2.71764
-2.03762
-1.36088
7.35813
14.0516
3.7245
59.9558
33.1434
0.323622
-0.647547
-1.36215
-2.35307
-2.75557
-2.74794
-2.7496
-2.32718
-1.93539
-1.21949
1.25536
1.11119
-0.57526
0.387082
1.15591
1.9514
0.456978
-0.284976
-0.0589627
0.0924001
0.190032
0.250763
0.287244
0.307727
0.317227
0.319339
0.316608
0.310783
0.303128
0.294528
0.285704
0.277101
0.26908
0.261945
0.255797
0.250895
0.248853
0.255957
0.469575
0.379589
0.255734
0.260098
0.266517
0.274527
0.28368
0.293747
0.304631
0.31579
0.326803
0.337323
0.347492
0.355208
0.360008
0.360269
0.353338
0.334896
0.298426
0.227412
0.111495
2.92748
4.60425
3.38545
1.75565
-1.28137
-2.41447
-2.11793
0.00810714
-0.195641
-1.24242
5.19948
8.63888
-2.11163
-3.07626
-2.18296
-0.682022
13.9859
14.7678
1.11705
20.2629
49.0762
24.1166
-0.69833
-1.89284
-2.47774
-2.97318
-3.15977
-2.93248
-2.47997
-2.01592
-1.82125
0.956314
0.731759
-1.91899
-2.01287
-0.612937
1.88781
3.00368
1.60745
-0.0715963
0.097195
0.201212
0.259799
0.292128
0.310076
0.317273
0.317743
0.31406
0.307873
0.300334
0.292062
0.283865
0.276029
0.268823
0.262535
0.257268
0.253111
0.251952
0.293546
0.475296
0.347424
0.25549
0.259314
0.264591
0.271157
0.278751
0.287188
0.29631
0.305817
0.3154
0.324781
0.333662
0.341156
0.346517
0.348465
0.344831
0.332054
0.309631
0.289079
2.65845
5.7645
4.7777
0.00117687
-2.53038
-2.72143
-2.62986
-2.16126
0.681525
-0.214529
1.36706
11.4636
10.0178
-2.90775
-3.06868
-2.01367
13.2093
14.3471
15.0954
0.341558
-0.961088
50.1118
50.5052
22.8674
-1.11767
-2.14396
-2.72435
-3.00488
-2.86967
-2.44314
-2.01451
-1.79371
-0.620398
0.722488
-1.73109
-2.19096
-2.08795
-1.32218
3.0608
3.92839
0.833102
0.189103
0.226019
0.275932
0.302807
0.315308
0.318809
0.3169
0.3118
0.304922
0.297182
0.289181
0.281407
0.274135
0.267564
0.261923
0.257294
0.25359
0.304144
0.458146
0.478976
0.289983
0.253483
0.256569
0.260964
0.266338
0.272587
0.279588
0.287184
0.29517
0.303326
0.311425
0.319175
0.326081
0.33154
0.334649
0.333754
0.325622
0.320039
1.58694
6.64165
5.76247
1.11058
-2.21148
-2.56926
-2.70012
-2.56882
-1.68203
0.87179
0.270142
9.63719
12.0956
11.3922
-1.94154
-2.5377
8.2493
13.9058
14.8058
5.75745
0.0498899
-0.998284
46.5881
51.4143
50.6321
34.4624
7.69362
2.91166
-1.76506
-2.49256
-2.24331
-1.90641
-1.71762
-1.64416
0.805944
-1.63068
-2.09846
-2.05637
-1.74549
0.605027
4.03909
4.61358
0.813477
0.260637
0.296218
0.314788
0.320973
0.3202
0.315587
0.308908
0.301238
0.293242
0.285358
0.277893
0.271042
0.264936
0.259677
0.2553
0.251795
0.38334
0.483975
0.480947
0.257184
0.249662
0.252115
0.255815
0.260179
0.26527
0.270984
0.277181
0.28371
0.290406
0.297082
0.303493
0.309293
0.314022
0.317064
0.316764
0.311892
0.438547
4.70259
6.72679
5.78226
-1.5465
-2.09537
-2.39368
-2.47415
-1.99051
0.286526
1.12974
1.41143
13.1603
13.2358
12.8725
9.91719
6.14497
13.4855
14.0238
12.9158
-0.300416
-0.186357
-0.898379
3.81456
51.8801
51.9341
51.4163
49.8354
48.3145
47.8682
22.4426
-1.17802
-1.62975
-1.57214
-1.54191
-0.192494
-0.609426
-1.73953
-1.78606
-1.56107
-1.09051
3.90167
5.21459
2.28591
0.30158
0.315481
0.32426
0.324345
0.319498
0.312428
0.304384
0.29608
0.287935
0.280203
0.273041
0.266543
0.260776
0.255763
0.251417
0.247798
0.379394
0.48442
0.473732
0.241706
0.244126
0.246382
0.249378
0.252876
0.256929
0.261455
0.266328
0.271423
0.276597
0.281677
0.286423
0.290512
0.293519
0.294829
0.29262
0.288268
0.666615
6.91472
6.87954
6.12665
0.150802
-1.80829
-1.58035
-1.13451
-0.206137
0.827934
-0.114287
0.759627
11.9932
14.3578
14.4676
14.5619
14.374
13.9209
14.363
0.29069
-0.42217
1.45368
-0.519144
-0.836594
31.2937
52.8189
52.7275
52.6296
51.3945
50.0527
34.0383
1.53924
-0.977132
-1.26206
-1.37973
-1.19544
-0.209464
-0.331079
-1.12113
-1.21778
-0.690217
4.59734
5.4852
3.1621
0.336941
0.328148
0.327331
0.322657
0.314863
0.306168
0.297366
0.288851
0.280836
0.273423
0.266657
0.260554
0.255121
0.25037
0.246033
0.242473
0.302362
0.484498
0.379743
0.236387
0.237853
0.239639
0.241927
0.244632
0.247719
0.251126
0.254728
0.258406
0.262009
0.265342
0.268136
0.27001
0.270456
0.268624
0.262733
0.254139
0.62579
6.44584
7.07147
6.44444
4.60402
-1.21935
1.96621
1.93771
2.02137
-0.100084
-1.31335
-0.897342
5.73762
15.4949
15.6053
15.8
15.734
15.2361
3.73573
-0.61579
-0.509757
1.20785
-1.1251
-0.704248
-0.115876
33.3204
54.1265
53.8241
53.7496
42.2351
11.6983
-0.149698
-0.838393
-1.07243
-1.19586
-1.28677
-0.135601
0.145877
-0.312642
-0.755362
1.69935
5.22505
5.76655
3.24242
0.352709
0.327526
0.320896
0.313807
0.304959
0.295946
0.287291
0.279184
0.27171
0.264883
0.258688
0.253094
0.248087
0.243651
0.239528
0.236299
0.27079
0.484084
0.388529
0.230162
0.230909
0.232122
0.233715
0.235646
0.237819
0.240161
0.242544
0.244835
0.246863
0.24839
0.249086
0.248494
0.245965
0.240397
0.230143
0.214657
0.227901
3.82923
7.28087
6.78945
6.1593
0.384675
1.45904
2.44336
2.37522
-1.11323
-1.18542
-1.01568
-0.341964
7.66665
16.4689
16.4455
15.2237
3.99339
-0.372261
-0.413206
0.29852
-0.73388
-0.9764
-0.41906
-0.499959
1.26499
19.2959
32.6179
24.3775
6.87201
0.811259
-0.279014
-0.764954
-0.884079
-0.957262
-0.994511
-0.0693111
0.603753
-0.0328775
-0.215755
2.74498
5.97091
5.98896
2.26295
0.321538
0.309445
0.303328
0.296947
0.289301
0.281499
0.274018
0.267013
0.260546
0.254618
0.249207
0.244276
0.239815
0.235773
0.232001
0.228891
0.251763
0.483112
0.476824
0.223055
0.223282
0.223956
0.224906
0.226097
0.227409
0.228751
0.229981
0.230952
0.231462
0.231234
0.229883
0.226876
0.221456
0.212379
0.198132
0.177186
0.148944
1.91469
7.45518
7.1154
6.69129
1.72425
0.582067
2.90319
2.90069
0.052875
-0.942292
-0.869166
-0.716273
0.169828
3.96647
6.61712
2.44439
0.23458
0.0148132
0.329874
1.36535
-0.659271
-0.811266
-0.433108
-0.425236
-0.300727
0.458131
1.49716
0.650839
0.0683622
-0.283704
-0.45677
-0.580093
-0.656296
-0.703517
-0.603501
0.986473
0.995416
-0.0437834
0.179537
4.34901
6.56863
6.54457
1.03812
0.272476
0.275712
0.275379
0.272847
0.268458
0.263246
0.257866
0.252589
0.247553