/*--------------------------------*- C++ -*----------------------------------*\
| =========                 |                                                 |
| \\      /  F ield         | OpenFOAM: The Open Source CFD Toolbox           |
|  \\    /   O peration     | Version:  2412                                  |
|   \\  /    A nd           | Website:  www.openfoam.com                      |
|    \\/     M anipulation  |                                                 |
\*---------------------------------------------------------------------------*/
FoamFile
{
    version     2.0;
    format      ascii;
    arch        "LSB;label=32;scalar=64";
    class       surfaceScalarField;
    location    "4.55";
    object      phi;
}
// * * * * * * * * * * * * * * * * * * * * * * * * * * * * * * * * * * * * * //

dimensions      [0 3 -1 0 0 0 0];

oriented        oriented;

internalField   nonuniform List<scalar> 
12640
(
-3.12979e-08
2.71439e-08
-4.67445e-08
8.17085e-08
-2.45495e-08
9.23711e-08
3.5341e-08
2.64509e-08
9.64091e-08
-9.49621e-08
1.06391e-07
-1.98047e-07
3.96944e-08
-2.0015e-07
-7.57362e-08
-7.02878e-08
-1.68342e-07
1.35477e-07
-1.6829e-07
2.96604e-07
-5.84561e-08
3.00894e-07
1.05695e-07
1.22141e-07
2.24933e-07
-1.51237e-07
2.18193e-07
-3.61176e-07
7.77773e-08
-3.74803e-07
-1.19886e-07
-1.70177e-07
-2.57635e-07
1.4324e-07
-2.49314e-07
3.85565e-07
-9.46405e-08
4.13354e-07
1.1821e-07
2.0682e-07
2.64855e-07
-1.16767e-07
2.5959e-07
-3.72122e-07
1.0662e-07
-4.15254e-07
-1.03542e-07
-2.26726e-07
-2.49271e-07
8.03149e-08
-2.5e-07
3.29791e-07
-1.1156e-07
3.86057e-07
8.11745e-08
2.2893e-07
2.17371e-07
-4.16984e-08
2.2519e-07
-2.69973e-07
1.09847e-07
-3.35271e-07
-5.53435e-08
-2.16235e-07
-1.75929e-07
6.3571e-09
-1.90914e-07
2.03745e-07
-1.031e-07
2.74158e-07
2.94484e-08
1.94626e-07
1.31539e-07
2.38071e-08
1.53557e-07
-1.39383e-07
9.44471e-08
-2.12829e-07
-4.76027e-09
-1.71092e-07
-8.87085e-08
-4.9816e-08
-1.18234e-07
8.14856e-08
-8.70392e-08
1.58599e-07
-1.87118e-08
1.52003e-07
5.00523e-08
7.4551e-08
8.84923e-08
-3.11149e-08
8.36494e-08
-1.15136e-07
4.20658e-08
-1.41618e-07
-1.60339e-08
-1.01265e-07
-6.56011e-08
-1.33105e-08
-8.55607e-08
8.24082e-08
-6.6201e-08
1.41022e-07
-1.38943e-08
1.31803e-07
4.91936e-08
5.41604e-08
9.26038e-08
-5.78947e-08
9.14395e-08
-1.48282e-07
4.08837e-08
-1.65825e-07
-3.72961e-08
-9.34262e-08
-1.02575e-07
3.74399e-08
-1.1637e-07
1.58467e-07
-6.52347e-08
1.99829e-07
2.77237e-08
1.31003e-07
1.12306e-07
-1.72263e-08
1.38544e-07
-1.65352e-07
8.68478e-08
-2.28234e-07
-1.76797e-08
-1.65007e-07
-1.1718e-07
-5.81182e-09
-1.53825e-07
1.6246e-07
-1.04386e-07
2.44826e-07
4.79471e-09
1.93156e-07
1.12461e-07
3.44817e-08
1.58449e-07
-1.44467e-07
1.18925e-07
-2.46939e-07
1.89193e-08
-2.19928e-07
-8.56183e-08
-8.04849e-08
-1.44294e-07
9.81382e-08
-1.43526e-07
2.29563e-07
-1.01854e-07
2.59217e-07
-4.44217e-08
1.90834e-07
5.69053e-08
3.46106e-09
-2.12459e-08
-5.70133e-08
4.52744e-08
-9.46096e-08
1.15987e-07
-6.34423e-08
1.16608e-07
3.6336e-08
2.16586e-08
1.42314e-07
-1.27608e-07
1.73059e-07
-2.37058e-07
8.70937e-08
-2.1678e-07
-7.82862e-08
-4.9338e-08
-2.21948e-07
1.82971e-07
-2.42598e-07
3.39091e-07
-1.09767e-07
3.0746e-07
1.0767e-07
8.46057e-08
2.78624e-07
-2.11007e-07
2.91521e-07
-4.0453e-07
1.28055e-07
-3.71724e-07
-1.20308e-07
-1.19855e-07
-3.05801e-07
2.10721e-07
-3.15052e-07
4.27928e-07
-1.39797e-07
4.03152e-07
1.17177e-07
1.492e-07
3.04539e-07
-1.87036e-07
3.14027e-07
-4.12379e-07
1.44308e-07
-4.0144e-07
-1.01201e-07
-1.67885e-07
-2.79027e-07
1.483e-07
-2.91374e-07
3.66711e-07
-1.40631e-07
3.7165e-07
7.79999e-08
1.74002e-07
2.37512e-07
-1.03358e-07
2.54065e-07
-3.02865e-07
1.30988e-07
-3.22988e-07
-5.10921e-08
-1.69433e-07
-1.87156e-07
5.84861e-08
-2.08848e-07
2.31948e-07
-1.17913e-07
2.65697e-07
2.35665e-08
1.58486e-07
1.34964e-07
-1.7111e-08
1.62966e-07
-1.62873e-07
1.05463e-07
-2.09409e-07
4.07419e-09
-1.46986e-07
-8.48848e-08
-2.07431e-08
-1.21163e-07
1.00468e-07
-9.65893e-08
1.60662e-07
-3.1799e-08
1.39888e-07
3.93832e-08
5.65769e-08
8.67299e-08
-4.65799e-08
9.38582e-08
-1.23143e-07
6.0766e-08
-1.40974e-07
1.56676e-09
-9.31647e-08
-6.0031e-08
-3.21707e-10
-9.74624e-08
9.63071e-08
-9.09531e-08
1.50431e-07
-3.80848e-08
1.31429e-07
4.05035e-08
4.19654e-08
1.06572e-07
-7.7907e-08
1.2198e-07
-1.66392e-07
7.10923e-08
-1.71163e-07
-2.55869e-08
-8.07534e-08
-1.1762e-07
6.30948e-08
-1.50754e-07
1.83166e-07
-9.95399e-08
2.08318e-07
1.36179e-08
1.16378e-07
1.27097e-07
-4.80673e-08
1.74102e-07
-1.94712e-07
1.23002e-07
-2.37984e-07
-1.12746e-09
-1.48132e-07
-1.28744e-07
2.84438e-08
-1.86095e-07
1.9368e-07
-1.39414e-07
2.53972e-07
-1.53751e-08
1.74711e-07
1.15425e-07
3.10158e-10
1.81545e-07
-1.72244e-07
1.52278e-07
-2.49791e-07
5.08738e-08
-1.95362e-07
-6.91953e-08
-4.60007e-08
-1.63126e-07
1.13128e-07
-1.9921e-07
2.04139e-07
-1.74096e-07
2.0208e-07
1.11526e-07
8.44614e-08
-6.48265e-08
9.92911e-09
-3.45894e-08
-9.91416e-08
6.50812e-08
-1.6302e-07
1.56291e-07
-1.13584e-07
1.64053e-07
3.7291e-08
5.47987e-08
2.00705e-07
-1.25838e-07
2.6095e-07
-2.67187e-07
1.5616e-07
-2.62767e-07
-6.89637e-08
-8.84578e-08
-2.80911e-07
1.67988e-07
-3.39456e-07
3.52537e-07
-1.91659e-07
3.40634e-07
8.60761e-08
1.21665e-07
3.29267e-07
-1.85388e-07
3.86327e-07
-3.9941e-07
2.15137e-07
-3.87636e-07
-8.73736e-08
-1.49684e-07
-3.42622e-07
1.78846e-07
-3.99111e-07
4.06637e-07
-2.24467e-07
4.01421e-07
7.61915e-08
1.68565e-07
3.2566e-07
-1.54034e-07
3.81851e-07
-3.80048e-07
2.20359e-07
-3.85059e-07
-5.63885e-08
-1.76254e-07
-2.8534e-07
1.18083e-07
-3.40799e-07
3.28894e-07
-2.04223e-07
3.45222e-07
3.3228e-08
1.72838e-07
2.31641e-07
-7.82948e-08
2.8586e-07
-2.64596e-07
1.81051e-07
-2.9181e-07
-8.77444e-09
-1.61877e-07
-1.72044e-07
3.88364e-08
-2.2549e-07
1.96444e-07
-1.55532e-07
2.34165e-07
-1.54642e-08
1.47987e-07
1.13169e-07
-1.80546e-09
1.67795e-07
-1.31617e-07
1.33379e-07
-1.80594e-07
4.07723e-08
-1.36732e-07
-5.76561e-08
-3.37677e-08
-1.17017e-07
7.3057e-08
-1.17856e-07
1.35594e-07
-6.7964e-08
1.31645e-07
6.99045e-09
6.904e-08
7.57188e-08
-2.19076e-08
1.11317e-07
-1.01581e-07
9.86133e-08
-1.35337e-07
3.98308e-08
-1.06307e-07
-4.29431e-08
-2.3854e-08
-1.1262e-07
7.66475e-08
-1.31728e-07
1.46198e-07
-8.26434e-08
1.44831e-07
1.76136e-08
6.49392e-08
1.19837e-07
-5.86746e-08
1.65778e-07
-1.61707e-07
1.21833e-07
-1.83402e-07
3.39174e-09
-1.02983e-07
-1.27742e-07
4.28593e-08
-1.95481e-07
1.75322e-07
-1.5453e-07
2.16437e-07
-2.10348e-08
1.35947e-07
1.32256e-07
-2.6799e-08
2.16415e-07
-1.81736e-07
1.79401e-07
-2.39081e-07
3.90406e-08
-1.62778e-07
-1.25694e-07
6.43319e-09
-2.20929e-07
1.73572e-07
-1.93409e-07
2.44777e-07
-6.07573e-08
1.82025e-07
1.0154e-07
2.39927e-08
2.06311e-07
-1.3914e-07
2.02706e-07
-2.20554e-07
9.58277e-08
-1.86951e-07
-6.75589e-08
-7.15357e-08
-2.00345e-07
5.94886e-08
-2.32566e-07
1.49568e-07
1.35062e-07
1.44257e-07
-6.79402e-08
1.1241e-07
-1.12294e-07
-9.84093e-09
-5.51378e-08
-1.60376e-07
8.13718e-08
-2.28461e-07
2.14745e-07
-1.45803e-07
2.39234e-07
6.16361e-08
1.05102e-07
2.7118e-07
-1.31042e-07
3.3669e-07
-3.28389e-07
1.90888e-07
-3.49122e-07
-9.73996e-08
-1.54426e-07
-3.56121e-07
1.57628e-07
-4.16568e-07
4.03349e-07
-2.25129e-07
4.25628e-07
1.14766e-07
1.96204e-07
4.01266e-07
-1.59454e-07
4.58129e-07
-4.33783e-07
2.45553e-07
-4.62422e-07
-1.131e-07
-2.25149e-07
-4.05891e-07
1.40719e-07
-4.61239e-07
4.22741e-07
-2.50719e-07
4.60248e-07
9.69455e-08
2.38004e-07
3.76896e-07
-1.09019e-07
4.31797e-07
-3.79688e-07
2.41806e-07
-4.25976e-07
-7.13098e-08
-2.35159e-07
-3.23388e-07
7.12378e-08
-3.78106e-07
3.15716e-07
-2.21186e-07
3.69216e-07
4.1929e-08
2.19352e-07
2.56803e-07
-3.34777e-08
3.11612e-07
-2.42932e-07
1.94686e-07
-3.02036e-07
-1.10097e-08
-1.96814e-07
-1.85455e-07
-2.19358e-09
-2.41715e-07
1.69823e-07
-1.67553e-07
2.34403e-07
-1.99611e-08
1.73775e-07
1.16311e-07
3.55096e-08
1.76948e-07
-1.02298e-07
1.45838e-07
-1.74414e-07
5.24998e-08
-1.56706e-07
-5.17935e-08
-6.91119e-08
-1.213e-07
4.14588e-08
-1.32554e-07
1.2515e-07
-8.73127e-08
1.48543e-07
-6.7439e-09
1.04455e-07
7.6988e-08
1.25006e-08
1.29685e-07
-8.78834e-08
1.25828e-07
-1.51074e-07
6.05986e-08
-1.43729e-07
-4.2287e-08
-6.23965e-08
-1.3505e-07
5.91369e-08
-1.66142e-07
1.60758e-07
-1.09215e-07
1.84522e-07
1.58115e-08
1.08094e-07
1.45889e-07
-3.65344e-08
2.05863e-07
-1.73907e-07
1.52673e-07
-2.24172e-07
6.14992e-09
-1.50316e-07
-1.55637e-07
1.50115e-08
-2.38217e-07
1.82442e-07
-1.87158e-07
2.54807e-07
-2.45214e-08
1.84862e-07
1.59585e-07
6.59331e-09
2.58173e-07
-1.81067e-07
2.11423e-07
-2.70656e-07
4.39407e-08
-2.09601e-07
-1.48766e-07
-3.19232e-08
-2.56832e-07
1.61707e-07
-2.20652e-07
2.63542e-07
-6.40506e-08
2.21334e-07
1.22408e-07
6.58418e-08
2.34889e-07
-1.12296e-07
2.12035e-07
-2.19381e-07
6.4104e-08
-2.09988e-07
-1.12329e-07
-9.93747e-08
-1.99378e-07
4.99589e-08
1.17283e-07
1.22948e-07
-1.13344e-08
1.75394e-07
-1.22087e-07
1.27243e-07
-1.71427e-07
-3.05814e-08
-8.76866e-08
-2.11141e-07
1.00728e-07
-2.86519e-07
2.76649e-07
-1.76769e-07
3.08263e-07
7.68958e-08
1.4161e-07
3.22305e-07
-1.47627e-07
3.91593e-07
-3.87935e-07
2.17304e-07
-4.17396e-07
-1.11975e-07
-1.93562e-07
-3.98675e-07
1.67426e-07
-4.592e-07
4.53689e-07
-2.43626e-07
4.86545e-07
1.26911e-07
2.3445e-07
4.3156e-07
-1.61859e-07
4.85653e-07
-4.71305e-07
2.55128e-07
-5.11625e-07
-1.22655e-07
-2.59429e-07
-4.23787e-07
1.36629e-07
-4.741e-07
4.46427e-07
-2.51949e-07
4.95677e-07
1.04135e-07
2.6605e-07
3.83907e-07
-1.00382e-07
4.32248e-07
-3.90881e-07
2.36324e-07
-4.48119e-07
-7.64138e-08
-2.56377e-07
-3.21969e-07
5.97595e-08
-3.69672e-07
3.168e-07
-2.11668e-07
3.80215e-07
4.46851e-08
2.34573e-07
2.4933e-07
-2.02424e-08
2.98006e-07
-2.36595e-07
1.84129e-07
-3.04992e-07
-1.07391e-08
-2.08059e-07
-1.73802e-07
-1.71335e-08
-2.26183e-07
1.58123e-07
-1.58756e-07
2.32279e-07
-2.42247e-08
1.8338e-07
1.01585e-07
5.27221e-08
1.61784e-07
-8.66173e-08
1.4091e-07
-1.69737e-07
6.16635e-08
-1.67062e-07
-3.44558e-08
-8.98041e-08
-1.07718e-07
2.20734e-08
-1.32584e-07
1.19192e-07
-1.01778e-07
1.61031e-07
-2.64453e-08
1.29381e-07
6.54009e-08
3.55135e-08
1.34758e-07
-8.12364e-08
1.45259e-07
-1.66297e-07
8.23041e-08
-1.7323e-07
-3.2492e-08
-8.92574e-08
-1.44122e-07
5.13066e-08
-1.89016e-07
1.77715e-07
-1.31817e-07
2.17348e-07
7.61548e-09
1.38017e-07
1.57242e-07
-2.71253e-08
2.29693e-07
-1.90888e-07
1.74355e-07
-2.5806e-07
1.28885e-08
-1.81866e-07
-1.66922e-07
3.41824e-09
-2.59543e-07
1.96607e-07
-2.05232e-07
2.85834e-07
-2.94113e-08
2.15023e-07
1.68705e-07
1.99801e-08
2.73696e-07
-1.89805e-07
2.23315e-07
-2.94522e-07
4.65775e-08
-2.34791e-07
-1.53492e-07
-4.64962e-08
-2.61757e-07
1.61656e-07
-2.19246e-07
2.73545e-07
-5.65826e-08
2.33246e-07
1.26128e-07
7.375e-08
2.19943e-07
-1.08327e-07
1.72711e-07
-2.11826e-07
3.25269e-08
-1.84774e-07
-8.40754e-08
-5.58234e-08
5.55323e-08
6.37375e-09
7.6572e-08
1.32516e-07
-3.94696e-08
2.15287e-07
-1.92507e-07
1.5922e-07
-2.39113e-07
-3.94958e-08
-1.20175e-07
-2.6299e-07
1.15858e-07
-3.50984e-07
3.29535e-07
-2.15455e-07
3.69762e-07
8.46679e-08
1.79239e-07
3.68825e-07
-1.51395e-07
4.48219e-07
-4.27113e-07
2.5305e-07
-4.68117e-07
-1.12994e-07
-2.29048e-07
-4.30775e-07
1.62342e-07
-5.0159e-07
4.76574e-07
-2.73993e-07
5.21767e-07
1.20589e-07
2.63627e-07
4.47169e-07
-1.50314e-07
5.11425e-07
-4.78413e-07
2.77908e-07
-5.30334e-07
-1.10939e-07
-2.80149e-07
-4.24444e-07
1.21394e-07
-4.83931e-07
4.4038e-07
-2.66408e-07
4.99333e-07
8.93109e-08
2.77758e-07
3.72771e-07
-8.41733e-08
4.28775e-07
-3.75651e-07
2.43128e-07
-4.40241e-07
-6.04229e-08
-2.60422e-07
-3.0289e-07
4.41791e-08
-3.56851e-07
2.96261e-07
-2.12893e-07
3.65072e-07
2.83927e-08
2.33506e-07
2.25639e-07
-5.68843e-09
2.7987e-07
-2.13814e-07
1.82438e-07
-2.86722e-07
5.89556e-09
-2.05063e-07
-1.47899e-07
-3.15039e-08
-2.06178e-07
1.34693e-07
-1.56883e-07
2.13815e-07
-4.20451e-08
1.8115e-07
7.46024e-08
6.81499e-08
1.42133e-07
-6.308e-08
1.40924e-07
-1.52859e-07
8.16765e-08
-1.67639e-07
-6.62888e-09
-1.07757e-07
-8.94265e-08
-2.13883e-09
-1.35553e-07
1.04049e-07
-1.24619e-07
1.64874e-07
-5.52715e-08
1.50321e-07
4.84987e-08
6.08143e-08
1.40578e-07
-6.73618e-08
1.70666e-07
-1.72865e-07
1.12039e-07
-1.96788e-07
-1.64648e-08
-1.15896e-07
-1.51545e-07
3.74877e-08
-2.15449e-07
1.84958e-07
-1.61513e-07
2.41367e-07
-7.99648e-09
1.64798e-07
1.64266e-07
-1.27868e-08
2.54432e-07
-1.9649e-07
2.02041e-07
-2.79531e-07
2.81518e-08
-2.06724e-07
-1.7118e-07
-1.16835e-08
-2.78967e-07
1.97762e-07
-2.27855e-07
3.00509e-07
-4.34028e-08
2.34257e-07
1.68539e-07
3.45231e-08
2.84375e-07
-1.84732e-07
2.37256e-07
-2.98312e-07
5.72471e-08
-2.44029e-07
-1.4777e-07
-5.83419e-08
-2.58388e-07
1.48062e-07
-2.16047e-07
2.58581e-07
-5.68513e-08
2.19829e-07
1.15073e-07
6.94355e-08
1.98263e-07
-9.23444e-08
1.58672e-07
-1.6771e-07
5.85407e-08
-1.26677e-07
-2.73456e-08
-1.50073e-07
1.35614e-07
-1.70162e-08
9.46821e-08
1.74269e-07
-7.88822e-08
2.83961e-07
-2.50586e-07
1.98374e-07
-2.98011e-07
-5.32759e-08
-1.55881e-07
-3.18567e-07
1.21988e-07
-4.13484e-07
3.7382e-07
-2.49392e-07
4.27722e-07
9.51107e-08
2.21006e-07
4.13154e-07
-1.44415e-07
4.98756e-07
-4.54127e-07
2.82559e-07
-5.12249e-07
-1.16484e-07
-2.68146e-07
-4.60015e-07
1.44484e-07
-5.3746e-07
4.84217e-07
-2.97941e-07
5.47982e-07
1.17052e-07
2.95527e-07
4.60652e-07
-1.25506e-07
5.31686e-07
-4.69121e-07
2.95017e-07
-5.38838e-07
-1.02104e-07
-3.02616e-07
-4.24094e-07
9.36592e-08
-4.8996e-07
4.18438e-07
-2.76621e-07
4.92787e-07
7.70526e-08
2.90451e-07
3.61693e-07
-5.69316e-08
4.23454e-07
-3.4614e-07
2.47511e-07
-4.23063e-07
-4.62703e-08
-2.64998e-07
-2.84619e-07
1.9309e-08
-3.43985e-07
2.63613e-07
-2.13586e-07
3.42025e-07
1.29251e-08
2.3276e-07
2.03054e-07
1.64241e-08
2.63025e-07
-1.81191e-07
1.81816e-07
-2.6205e-07
2.27554e-08
-2.02302e-07
-1.2304e-07
-5.19053e-08
-1.88274e-07
1.03392e-07
-1.57237e-07
1.90165e-07
-6.09947e-08
1.78952e-07
4.83733e-08
8.8245e-08
1.24891e-07
-3.32339e-08
1.43771e-07
-1.31535e-07
1.03356e-07
-1.67748e-07
2.06955e-08
-1.29062e-07
-7.35682e-08
-3.14884e-08
-1.41488e-07
8.46465e-08
-1.49218e-07
1.67284e-07
-8.36283e-08
1.73125e-07
3.39355e-08
9.02541e-08
1.49083e-07
-4.89878e-08
1.97385e-07
-1.76552e-07
1.40911e-07
-2.20376e-07
-2.81474e-09
-1.45592e-07
-1.61175e-07
1.87433e-08
-2.42343e-07
1.87504e-07
-1.89558e-07
2.6317e-07
-2.09966e-08
1.9323e-07
1.72944e-07
6.76225e-09
2.78495e-07
-1.95488e-07
2.2691e-07
-2.96222e-07
4.02102e-08
-2.3135e-07
-1.7678e-07
-3.17902e-08
-2.96589e-07
1.90682e-07
-2.46173e-07
3.07666e-07
-5.29796e-08
2.50664e-07
1.69993e-07
5.28175e-08
2.92151e-07
-1.70681e-07
2.44479e-07
-2.92016e-07
6.05912e-08
-2.47076e-07
-1.45888e-07
-7.13927e-08
-2.53122e-07
1.25806e-07
-2.06379e-07
2.31731e-07
-4.72122e-08
1.98978e-07
1.21979e-07
6.87427e-08
1.97695e-07
-6.63844e-08
1.58803e-07
-1.294e-07
-8.91504e-08
-2.46421e-07
1.13616e-07
-1.91777e-07
1.90414e-07
6.06759e-09
1.11926e-07
2.42737e-07
-8.71409e-08
3.46937e-07
-2.93617e-07
2.2702e-07
-3.55927e-07
-6.97785e-08
-1.95452e-07
-3.66249e-07
1.21068e-07
-4.62836e-07
4.08241e-07
-2.73942e-07
4.76317e-07
1.04166e-07
2.58797e-07
4.4481e-07
-1.33176e-07
5.32012e-07
-4.70293e-07
3.00256e-07
-5.4457e-07
-1.18951e-07
-3.00909e-07
-4.75374e-07
1.24003e-07
-5.54157e-07
4.81794e-07
-3.08227e-07
5.62294e-07
1.13971e-07
3.2013e-07
4.61276e-07
-9.97462e-08
5.3321e-07
-4.51667e-07
2.98032e-07
-5.36817e-07
-9.52112e-08
-3.17909e-07
-4.13155e-07
6.63596e-08
-4.79428e-07
3.90739e-07
-2.73674e-07
4.78044e-07
6.7791e-08
2.97044e-07
3.42824e-07
-3.09085e-08
4.04821e-07
-3.13161e-07
2.40717e-07
-4.00329e-07
-3.5564e-08
-2.65123e-07
-2.613e-07
-4.20015e-09
-3.21412e-07
2.29263e-07
-2.05625e-07
3.15799e-07
7.97657e-10
2.29299e-07
1.77708e-07
3.74662e-08
2.39805e-07
-1.47988e-07
1.75057e-07
-2.35977e-07
3.66789e-08
-1.98273e-07
-9.71579e-08
-7.17e-08
-1.66707e-07
7.2054e-08
-1.53541e-07
1.66146e-07
-7.73926e-08
1.7635e-07
2.24156e-08
1.0803e-07
1.05961e-07
-3.5776e-09
1.43939e-07
-1.10234e-07
1.22498e-07
-1.67643e-07
4.65974e-08
-1.49939e-07
-5.74044e-08
-6.04298e-08
-1.45352e-07
6.52475e-08
-1.70712e-07
1.6904e-07
-1.09279e-07
1.94799e-07
2.00814e-08
1.18766e-07
1.5544e-07
-3.05125e-08
2.19746e-07
-1.7873e-07
1.65405e-07
-2.4157e-07
9.14768e-09
-1.73355e-07
-1.68198e-07
2.00441e-11
-2.63131e-07
1.87582e-07
-2.11163e-07
2.80936e-07
-3.11585e-08
2.18212e-07
1.78521e-07
2.57001e-08
2.94506e-07
-1.91321e-07
2.42937e-07
-3.07171e-07
4.78107e-08
-2.50604e-07
-1.79273e-07
-5.00673e-08
-3.04454e-07
1.80328e-07
-2.52962e-07
3.07595e-07
-5.56835e-08
2.59388e-07
1.69147e-07
6.70996e-08
2.88543e-07
-1.54447e-07
2.36371e-07
-2.77943e-07
5.25341e-08
-2.40333e-07
-1.44985e-07
-7.71869e-08
-2.36815e-07
1.05809e-07
-1.76381e-07
2.0354e-07
-1.28258e-08
1.75221e-07
1.33689e-07
5.78543e-08
1.71175e-07
-6.62824e-08
-9.88088e-08
-2.04995e-07
9.31153e-09
-2.74802e-07
1.70637e-07
-1.93198e-07
2.54195e-07
3.89568e-08
1.57976e-07
2.91053e-07
-8.79755e-08
3.93748e-07
-3.34266e-07
2.49435e-07
-4.08584e-07
-8.08568e-08
-2.32261e-07
-3.99609e-07
1.14172e-07
-4.96832e-07
4.28323e-07
-2.91384e-07
5.09169e-07
1.07042e-07
2.88398e-07
4.59816e-07
-1.17296e-07
5.47599e-07
-4.70837e-07
3.09764e-07
-5.58452e-07
-1.15016e-07
-3.2235e-07
-4.73239e-07
1.01648e-07
-5.52342e-07
4.65489e-07
-3.09596e-07
5.58406e-07
1.05347e-07
3.3201e-07
4.45504e-07
-7.47875e-08
5.17177e-07
-4.23348e-07
2.92219e-07
-5.18708e-07
-8.40493e-08
-3.2063e-07
-3.88168e-07
4.19365e-08
-4.53635e-07
3.55666e-07
-2.62768e-07
4.505e-07
5.55494e-08
2.9251e-07
3.12857e-07
-8.93619e-09
3.73974e-07
-2.7605e-07
2.27363e-07
-3.68461e-07
-2.29773e-08
-2.56352e-07
-2.29884e-07
-2.33767e-08
-2.89813e-07
1.93298e-07
-1.9268e-07
2.83763e-07
-1.23512e-08
2.19316e-07
1.46936e-07
5.44834e-08
2.10405e-07
-1.14857e-07
1.64702e-07
-2.06662e-07
5.08967e-08
-1.8973e-07
-6.8054e-08
-8.79744e-08
-1.41188e-07
4.1774e-08
-1.47167e-07
1.40539e-07
-9.32924e-08
1.70505e-07
-4.95548e-09
1.24555e-07
8.46255e-08
2.43734e-08
1.41713e-07
-8.824e-08
1.40056e-07
-1.64728e-07
7.22817e-08
-1.67259e-07
-3.98397e-08
-8.69669e-08
-1.46468e-07
4.55997e-08
-1.89106e-07
1.67684e-07
-1.3304e-07
2.11919e-07
5.50027e-09
1.43786e-07
1.58176e-07
-1.21845e-08
2.37036e-07
-1.77068e-07
1.86111e-07
-2.56608e-07
2.11973e-08
-1.95987e-07
-1.70532e-07
-1.78367e-08
-2.76633e-07
1.83115e-07
-2.2686e-07
2.90678e-07
-4.05655e-08
2.35946e-07
1.78515e-07
4.24856e-08
3.0107e-07
-1.82381e-07
2.50719e-07
-3.08412e-07
5.3278e-08
-2.60229e-07
-1.75937e-07
-6.42026e-08
-3.01078e-07
1.65869e-07
-2.48987e-07
2.96791e-07
-5.43159e-08
2.56104e-07
1.62598e-07
7.44174e-08
2.71647e-07
-1.36252e-07
2.14371e-07
-2.5364e-07
3.84494e-08
-2.19773e-07
-1.37108e-07
-7.13756e-08
-2.0242e-07
9.12566e-08
-1.28041e-07
1.71949e-07
1.05648e-08
1.34678e-07
9.94517e-08
2.20075e-08
-5.72427e-08
-3.17879e-08
-1.17763e-07
-1.95998e-07
3.33878e-08
-2.92196e-07
2.42549e-07
-2.08542e-07
3.2063e-07
4.73904e-08
1.91349e-07
3.24736e-07
-9.06692e-08
4.30917e-07
-3.63116e-07
2.68448e-07
-4.46216e-07
-8.55801e-08
-2.62212e-07
-4.18462e-07
1.00759e-07
-5.15688e-07
4.31676e-07
-3.01957e-07
5.24407e-07
1.04152e-07
3.0956e-07
4.59635e-07
-9.57136e-08
5.47488e-07
-4.54546e-07
3.1221e-07
-5.53629e-07
-1.05646e-07
-3.33407e-07
-4.5675e-07
7.59972e-08
-5.35864e-07
4.34532e-07
-3.04333e-07
5.36925e-07
9.21256e-08
3.32896e-07
4.17378e-07
-4.8865e-08
4.8865e-07
-3.83577e-07
2.80773e-07
-4.85603e-07
-6.92666e-08
-3.12983e-07
-3.53422e-07
1.83731e-08
-4.18157e-07
3.12615e-07
-2.47612e-07
4.11344e-07
4.0582e-08
2.79136e-07
2.75808e-07
1.10474e-08
3.36342e-07
-2.34112e-07
2.11214e-07
-3.28441e-07
-8.42009e-09
-2.40687e-07
-1.93787e-07
-4.00801e-08
-2.5398e-07
1.54966e-07
-1.78166e-07
2.46527e-07
-2.68005e-08
2.0427e-07
1.13447e-07
6.89107e-08
1.78719e-07
-8.10849e-08
1.53551e-07
-1.74297e-07
6.57031e-08
-1.77451e-07
-3.77835e-08
-1.01573e-07
-1.14664e-07
1.20164e-08
-1.40192e-07
1.13191e-07
-1.08859e-07
1.61508e-07
-3.21883e-08
1.38002e-07
6.30125e-08
5.0868e-08
1.38495e-07
-6.51724e-08
1.5602e-07
-1.58496e-07
9.6555e-08
-1.80568e-07
-2.23781e-08
-1.11002e-07
-1.45737e-07
2.52357e-08
-2.04282e-07
1.62285e-07
-1.5399e-07
2.23532e-07
-8.7128e-09
1.64901e-07
1.57959e-07
6.4446e-09
2.49219e-07
-1.70426e-07
2.02414e-07
-2.64263e-07
3.24922e-08
-2.12879e-07
-1.68878e-07
-3.51945e-08
-2.83152e-07
1.72978e-07
-2.36447e-07
2.9118e-07
-4.85394e-08
2.45824e-07
1.7388e-07
5.74101e-08
2.99055e-07
-1.67755e-07
2.50617e-07
-2.99043e-07
5.61782e-08
-2.59875e-07
-1.67973e-07
-7.44922e-08
-2.88069e-07
1.46769e-07
-2.35707e-07
2.75074e-07
-4.95591e-08
2.41313e-07
1.51168e-07
7.5718e-08
2.44589e-07
-1.15411e-07
1.84211e-07
-2.19429e-07
2.50886e-08
-1.87144e-07
-1.19926e-07
-5.76267e-08
-1.62205e-07
7.51775e-08
-9.8824e-08
1.27688e-07
-8.49628e-09
8.33572e-08
5.20249e-09
1.76895e-07
-1.83639e-07
1.06348e-08
-1.37723e-07
-2.16889e-07
7.35659e-08
-3.4094e-07
2.83598e-07
-2.35985e-07
3.55532e-07
5.36302e-08
2.15588e-07
3.51087e-07
-8.36976e-08
4.56175e-07
-3.72835e-07
2.80356e-07
-4.65748e-07
-8.59362e-08
-2.84106e-07
-4.22905e-07
8.15908e-08
-5.18367e-07
4.18989e-07
-3.04089e-07
5.22338e-07
9.72107e-08
3.2165e-07
4.45614e-07
-7.02841e-08
5.31985e-07
-4.24093e-07
3.06385e-07
-5.32463e-07
-9.33471e-08
-3.34802e-07
-4.2866e-07
4.86828e-08
-5.06275e-07
3.92405e-07
-2.91752e-07
5.01517e-07
7.7129e-08
3.24653e-07
3.805e-07
-2.30913e-08
4.50069e-07
-3.36019e-07
2.63535e-07
-4.41835e-07
-5.36472e-08
-2.97629e-07
-3.12852e-07
-3.85255e-09
-3.75899e-07
2.64932e-07
-2.28452e-07
3.64933e-07
2.54156e-08
2.59913e-07
2.35515e-07
2.91138e-08
2.94891e-07
-1.90076e-07
1.92735e-07
-2.84151e-07
5.92748e-09
-2.20995e-07
-1.56469e-07
-5.47131e-08
-2.16631e-07
1.16309e-07
-1.6257e-07
2.07217e-07
-4.06866e-08
1.86568e-07
8.02228e-08
8.12228e-08
1.47057e-07
-4.81277e-08
1.4197e-07
-1.41196e-07
7.94578e-08
-1.63202e-07
-8.88445e-09
-1.12818e-07
-8.90241e-08
-1.61482e-08
-1.32792e-07
8.57225e-08
-1.22572e-07
1.50491e-07
-5.70694e-08
1.48423e-07
4.26805e-08
7.50165e-08
1.34306e-07
-4.2175e-08
1.68938e-07
-1.49593e-07
1.17407e-07
-1.89665e-07
-6.39999e-09
-1.31691e-07
-1.43146e-07
5.06624e-09
-2.14892e-07
1.53262e-07
-1.70256e-07
2.29347e-07
-2.11983e-08
1.81308e-07
1.54928e-07
2.45135e-08
2.55203e-07
-1.59285e-07
2.12609e-07
-2.64428e-07
4.15904e-08
-2.23399e-07
-1.6373e-07
-5.11614e-08
-2.82054e-07
1.57975e-07
-2.38502e-07
2.82842e-07
-5.35488e-08
2.47631e-07
1.65583e-07
6.96186e-08
2.88486e-07
-1.48712e-07
2.41768e-07
-2.80274e-07
5.51658e-08
-2.50114e-07
-1.56719e-07
-8.04015e-08
-2.66439e-07
1.24753e-07
-2.13629e-07
2.44923e-07
-4.10236e-08
2.17344e-07
1.36977e-07
7.20519e-08
2.1181e-07
-9.31788e-08
1.51081e-07
-1.79554e-07
1.23051e-08
-1.49835e-07
-1.07581e-07
-4.4939e-08
-1.38886e-07
5.4168e-08
-9.18617e-08
8.8211e-08
5.08771e-08
2.93535e-07
-1.39145e-07
2.21812e-07
-2.28383e-07
-7.86484e-09
-1.44762e-07
-2.7028e-07
6.63609e-08
-3.78326e-07
2.91841e-07
-2.4741e-07
3.77825e-07
6.16426e-08
2.3923e-07
3.64221e-07
-6.70694e-08
4.63917e-07
-3.65184e-07
2.82475e-07
-4.67462e-07
-8.24159e-08
-2.96422e-07
-4.12569e-07
5.90437e-08
-5.04353e-07
3.92216e-07
-2.97174e-07
5.0341e-07
8.70492e-08
3.2314e-07
4.18694e-07
-4.407e-08
5.01698e-07
-3.82779e-07
2.92071e-07
-4.96882e-07
-7.92982e-08
-3.25983e-07
-3.90655e-07
2.26416e-08
-4.6488e-07
3.43046e-07
-2.71963e-07
4.55102e-07
6.16444e-08
3.07597e-07
3.36932e-07
2.18687e-11
4.03126e-07
-2.84706e-07
2.40836e-07
-3.90796e-07
-3.84518e-08
-2.75511e-07
-2.68595e-07
-2.2788e-08
-3.28634e-07
2.16318e-07
-2.05675e-07
3.1465e-07
1.12373e-08
2.36094e-07
1.93984e-07
4.38402e-08
2.51231e-07
-1.47083e-07
1.72214e-07
-2.38607e-07
1.89362e-08
-1.98529e-07
-1.19712e-07
-6.62346e-08
-1.7908e-07
7.98665e-08
-1.4597e-07
1.68314e-07
-5.28791e-08
1.67241e-07
4.88299e-08
9.05687e-08
1.16419e-07
-1.80388e-08
1.29781e-07
-1.09309e-07
9.0964e-08
-1.477e-07
1.72146e-08
-1.20882e-07
-6.50125e-08
-4.09689e-08
-1.24559e-07
5.96923e-08
-1.33133e-07
1.37899e-07
-7.82211e-08
1.54943e-07
2.42325e-08
9.52025e-08
1.28602e-07
-2.06209e-08
1.77442e-07
-1.38351e-07
1.33464e-07
-1.93671e-07
7.5208e-09
-1.47465e-07
-1.38151e-07
-1.35288e-08
-2.19613e-07
1.41064e-07
-1.80495e-07
2.28661e-07
-3.13264e-08
1.91532e-07
1.48714e-07
4.05247e-08
2.53891e-07
-1.44441e-07
2.15496e-07
-2.5683e-07
4.77906e-08
-2.2634e-07
-1.55029e-07
-6.41377e-08
-2.72664e-07
1.39409e-07
-2.32155e-07
2.66107e-07
-5.49318e-08
2.40729e-07
1.53891e-07
7.75981e-08
2.69315e-07
-1.27084e-07
2.24011e-07
-2.53546e-07
5.0041e-08
-2.31352e-07
-1.42593e-07
-8.09703e-08
-2.37044e-07
1.02046e-07
-1.83802e-07
2.09218e-07
-2.89709e-08
1.86625e-07
1.21533e-07
6.39084e-08
1.75709e-07
-7.24625e-08
1.138e-07
-1.40683e-07
-8.99616e-09
-1.15074e-07
-1.01777e-07
-3.18424e-08
-1.13058e-07
4.55181e-08
5.90414e-08
2.45127e-07
-8.04755e-09
3.06205e-07
-1.75784e-07
2.03629e-07
-2.67532e-07
-4.32411e-08
-1.84652e-07
-2.92798e-07
4.83038e-08
-3.87472e-07
2.93297e-07
-2.46416e-07
3.88802e-07
6.41826e-08
2.54916e-07
3.60031e-07
-4.6855e-08
4.5329e-07
-3.42726e-07
2.75163e-07
-4.5107e-07
-7.51343e-08
-2.97215e-07
-3.885e-07
3.55739e-08
-4.75004e-07
3.53284e-07
-2.8183e-07
4.68198e-07
7.4474e-08
3.12929e-07
3.80913e-07
-1.94578e-08
4.58855e-07
-3.3323e-07
2.70382e-07
-4.48482e-07
-6.4267e-08
-3.0667e-07
-3.45079e-07
-3.572e-11
-4.14328e-07
2.89336e-07
-2.46409e-07
3.99866e-07
4.62843e-08
2.82076e-07
2.88999e-07
1.88133e-08
3.50516e-07
-2.32385e-07
2.14206e-07
-3.3482e-07
-2.41291e-08
-2.47313e-07
-2.2272e-07
-3.7183e-08
-2.78781e-07
1.6916e-07
-1.80661e-07
2.6263e-07
-1.60698e-09
2.08405e-07
1.52924e-07
5.42591e-08
2.0732e-07
-1.07096e-07
1.50709e-07
-1.93557e-07
3.02681e-08
-1.73831e-07
-8.48742e-08
-7.37803e-08
-1.42773e-07
4.72648e-08
-1.29024e-07
1.3115e-07
-6.29542e-08
1.46532e-07
2.0368e-08
9.60247e-08
8.78011e-08
7.73985e-09
1.17252e-07
-7.96523e-08
9.96573e-08
-1.30895e-07
3.95635e-08
-1.24687e-07
-4.33059e-08
-6.10203e-08
-1.15462e-07
3.59815e-08
-1.39851e-07
1.23512e-07
-9.47677e-08
1.56347e-07
8.16081e-09
1.09921e-07
1.21193e-07
-1.43206e-09
1.80808e-07
-1.24576e-07
1.43924e-07
-1.91375e-07
1.8973e-08
-1.56757e-07
-1.30578e-07
-2.94603e-08
-2.17848e-07
1.25753e-07
-1.84058e-07
2.20512e-07
-3.87235e-08
1.94102e-07
1.39311e-07
5.32127e-08
2.45012e-07
-1.264e-07
2.10737e-07
-2.41056e-07
5.081e-08
-2.20609e-07
-1.43001e-07
-7.28185e-08
-2.55212e-07
1.18307e-07
-2.17612e-07
2.41382e-07
-5.27121e-08
2.24777e-07
1.39193e-07
8.03217e-08
2.42454e-07
-1.04336e-07
1.98543e-07
-2.20338e-07
4.16559e-08
-2.04523e-07
-1.25831e-07
-7.60095e-08
-2.01472e-07
8.02468e-08
-1.48543e-07
1.70568e-07
-1.53142e-08
1.51464e-07
1.03715e-07
5.14835e-08
1.34764e-07
-5.59754e-08
7.10429e-08
-1.05588e-07
-2.42867e-08
-7.88423e-08
-7.53742e-08
-9.11937e-09
3.53561e-08
6.35432e-08
1.26604e-07
2.14818e-07
-1.61379e-08
2.86439e-07
-2.17687e-07
1.91777e-07
-3.01929e-07
-4.61825e-08
-2.01982e-07
-2.90776e-07
3.68716e-08
-3.79982e-07
2.80872e-07
-2.39083e-07
3.78793e-07
6.068e-08
2.57172e-07
3.40789e-07
-2.53357e-08
4.26574e-07
-3.06363e-07
2.58959e-07
-4.16857e-07
-6.56432e-08
-2.86102e-07
-3.53455e-07
1.2392e-08
-4.327e-07
3.03976e-07
-2.5863e-07
4.18322e-07
6.12119e-08
2.91596e-07
3.35507e-07
2.6262e-09
4.06488e-07
-2.77552e-07
2.4245e-07
-3.89506e-07
-4.97061e-08
-2.78032e-07
-2.95203e-07
-1.87623e-08
-3.57899e-07
2.33338e-07
-2.16556e-07
3.38239e-07
3.21721e-08
2.49562e-07
2.39704e-07
3.30344e-08
2.95377e-07
-1.80811e-07
1.85171e-07
-2.76123e-07
-1.15051e-08
-2.1448e-07
-1.77776e-07
-4.70005e-08
-2.29057e-07
1.24796e-07
-1.5477e-07
2.10623e-07
-1.2494e-08
1.77989e-07
1.14391e-07
6.03627e-08
1.65336e-07
-7.10795e-08
1.29279e-07
-1.50196e-07
3.93874e-08
-1.47577e-07
-5.35922e-08
-7.71916e-08
-1.09373e-07
1.9233e-08
-1.12448e-07
9.64282e-08
-7.03703e-08
1.24618e-07
-3.81939e-09
9.71644e-08
6.2466e-08
2.85472e-08
1.04817e-07
-5.25942e-08
1.04957e-07
-1.1255e-07
5.69972e-08
-1.23517e-07
-2.4917e-08
-7.55792e-08
-1.05776e-07
1.48166e-08
-1.42156e-07
1.06865e-07
-1.05677e-07
1.51728e-07
-4.64658e-09
1.18354e-07
1.12357e-07
1.51416e-08
1.78607e-07
-1.07809e-07
1.47939e-07
-1.81883e-07
2.71369e-08
-1.58731e-07
-1.20848e-07
-4.23615e-08
-2.09488e-07
1.07115e-07
-1.80414e-07
2.04306e-07
-4.26714e-08
1.8837e-07
1.27368e-07
6.21194e-08
2.28952e-07
-1.05365e-07
1.98321e-07
-2.1711e-07
5.01906e-08
-2.06045e-07
-1.28491e-07
-7.68306e-08
-2.30705e-07
9.53213e-08
-1.95667e-07
2.09514e-07
-4.70159e-08
2.00468e-07
1.22359e-07
7.78338e-08
2.09695e-07
-8.14367e-08
1.67436e-07
-1.82497e-07
3.1264e-08
-1.71592e-07
-1.0701e-07
-6.65045e-08
-1.62413e-07
6.01003e-08
-1.11895e-07
1.31192e-07
-3.94973e-09
1.14314e-07
8.18889e-08
3.64376e-08
9.36176e-08
-4.18098e-08
4.25482e-08
-7.00219e-08
-1.31615e-08
-4.12646e-08
2.48217e-09
-1.37394e-07
1.79911e-07
1.35653e-08
1.4037e-07
2.00427e-07
-4.16841e-08
2.9076e-07
-2.19632e-07
1.93494e-07
-2.91403e-07
-4.39889e-08
-2.00864e-07
-2.78396e-07
1.93007e-08
-3.58314e-07
2.48856e-07
-2.22773e-07
3.47994e-07
5.50524e-08
2.47274e-07
3.09604e-07
-2.98142e-09
3.8509e-07
-2.58548e-07
2.33188e-07
-3.67805e-07
-5.6113e-08
-2.64711e-07
-3.10013e-07
-9.6381e-09
-3.7913e-07
2.4738e-07
-2.2744e-07
3.57509e-07
4.92527e-08
2.61487e-07
2.8535e-07
2.18285e-08
3.46848e-07
-2.18625e-07
2.08668e-07
-3.23784e-07
-3.73152e-08
-2.42751e-07
-2.43889e-07
-3.36528e-08
-2.98031e-07
1.77461e-07
-1.83079e-07
2.73727e-07
2.07041e-08
2.12718e-07
1.91647e-07
4.31482e-08
2.39997e-07
-1.31771e-07
1.54445e-07
-2.17578e-07
-1.73433e-09
-1.79335e-07
-1.3599e-07
-5.28614e-08
-1.81403e-07
8.44095e-08
-1.28563e-07
1.60737e-07
-2.0396e-08
1.46636e-07
8.02606e-08
6.27386e-08
1.26822e-07
-3.9741e-08
1.08233e-07
-1.09909e-07
4.52774e-08
-1.20964e-07
-2.74996e-08
-7.68853e-08
-8.00873e-08
-3.81893e-09
-9.63007e-08
6.49701e-08
-7.4043e-08
1.02183e-07
-2.22106e-08
9.41933e-08
4.14258e-08
4.41217e-08
9.23664e-08
-2.85896e-08
1.05715e-07
-9.30011e-08
6.80251e-08
-1.17423e-07
-1.07964e-08
-8.44555e-08
-9.53698e-08
-3.5286e-09
-1.38934e-07
8.8163e-08
-1.09503e-07
1.41145e-07
-1.32139e-08
1.20414e-07
1.02103e-07
2.88996e-08
1.69946e-07
-8.83236e-08
1.44234e-07
-1.65468e-07
3.1021e-08
-1.53528e-07
-1.09243e-07
-5.2089e-08
-1.94083e-07
8.5643e-08
-1.68687e-07
1.80747e-07
-4.22858e-08
1.74896e-07
1.13483e-07
6.72496e-08