/*--------------------------------*- C++ -*----------------------------------*\
| =========                 |                                                 |
| \\      /  F ield         | OpenFOAM: The Open Source CFD Toolbox           |
|  \\    /   O peration     | Version:  2412                                  |
|   \\  /    A nd           | Website:  www.openfoam.com                      |
|    \\/     M anipulation  |                                                 |
\*---------------------------------------------------------------------------*/
FoamFile
{
    version     2.0;
    format      ascii;
    arch        "LSB;label=32;scalar=64";
    class       volVectorField;
    location    "7.75";
    object      U;
}
// * * * * * * * * * * * * * * * * * * * * * * * * * * * * * * * * * * * * * //

dimensions      [0 1 -1 0 0 0 0];

internalField   nonuniform List<vector> 
6400
(
(-0.00180866 0.00131663 0)
(-0.00387647 0.000868539 0)
(-0.00577551 0.000969761 0)
(-0.00809296 0.00101496 0)
(-0.0101692 0.000985177 0)
(-0.012123 0.000914497 0)
(-0.0138184 0.000823045 0)
(-0.015283 0.000712867 0)
(-0.0164755 0.000589234 0)
(-0.0174005 0.000463815 0)
(-0.0180126 0.000323134 0)
(-0.0183381 0.000158473 0)
(-0.018388 2.20926e-05 0)
(-0.0181749 -0.000100859 0)
(-0.0177452 -0.000220267 0)
(-0.0170712 -0.000336117 0)
(-0.0161832 -0.000449865 0)
(-0.0151082 -0.000546815 0)
(-0.0138501 -0.000628961 0)
(-0.0124588 -0.000689464 0)
(-0.0109756 -0.000724509 0)
(-0.00942973 -0.000729545 0)
(-0.00786661 -0.000697941 0)
(-0.00634223 -0.000627384 0)
(-0.0049042 -0.000522754 0)
(-0.00359912 -0.00040254 0)
(-0.00244404 -0.000292297 0)
(-0.00144432 -0.000226447 0)
(-0.000578239 -0.00019094 0)
(0.000175387 -0.000188114 0)
(0.000803694 -0.000175089 0)
(0.00127083 -0.000123186 0)
(0.00159733 -9.08517e-05 0)
(0.00179998 -0.000100363 0)
(0.00191515 -0.000173206 0)
(0.00203687 -0.000285973 0)
(0.00217959 -0.000426211 0)
(0.00235763 -0.00055605 0)
(0.00258291 -0.000661967 0)
(0.00287087 -0.000726562 0)
(0.00318588 -0.000753341 0)
(0.00350158 -0.000736734 0)
(0.00382529 -0.000668167 0)
(0.00412699 -0.000566148 0)
(0.00439761 -0.000431482 0)
(0.00463284 -0.000284093 0)
(0.004833 -0.000147047 0)
(0.00502418 -5.51878e-05 0)
(0.0052403 -2.59579e-05 0)
(0.00553647 -3.44689e-05 0)
(0.00594691 -5.11294e-05 0)
(0.00645058 -6.31573e-05 0)
(0.0070335 -7.94365e-05 0)
(0.00769558 -0.000123993 0)
(0.00844969 -0.000206022 0)
(0.00929977 -0.000296123 0)
(0.0102129 -0.000362462 0)
(0.0111422 -0.000383766 0)
(0.0120317 -0.000365519 0)
(0.0128181 -0.000313632 0)
(0.0134637 -0.000237355 0)
(0.0139396 -0.000138555 0)
(0.0142172 -2.53057e-05 0)
(0.0142879 8.70022e-05 0)
(0.014158 0.000177722 0)
(0.0138527 0.000252611 0)
(0.0134125 0.000302019 0)
(0.0128432 0.000357656 0)
(0.0121451 0.000426263 0)
(0.0113426 0.000487401 0)
(0.0104474 0.000520464 0)
(0.00949876 0.000539347 0)
(0.00849531 0.0005417 0)
(0.00745655 0.000554564 0)
(0.00637797 0.000551115 0)
(0.00522659 0.000553183 0)
(0.00409106 0.000523561 0)
(0.00284099 0.000440353 0)
(0.00206486 0.00032547 0)
(0.0011433 0.000716316 0)
(-0.00205585 0.00447661 0)
(-0.00438418 0.00312869 0)
(-0.00667594 0.00339541 0)
(-0.00928432 0.0033869 0)
(-0.011548 0.003134 0)
(-0.0136047 0.00278863 0)
(-0.0153079 0.00239014 0)
(-0.0167026 0.00197207 0)
(-0.0177397 0.00152463 0)
(-0.0184508 0.00107593 0)
(-0.0188649 0.000640189 0)
(-0.0190074 0.000207774 0)
(-0.0188956 -0.000196886 0)
(-0.0185263 -0.000556734 0)
(-0.0179246 -0.000918262 0)
(-0.0170984 -0.00124646 0)
(-0.016084 -0.00155035 0)
(-0.0149043 -0.00181925 0)
(-0.0135668 -0.0020468 0)
(-0.0120992 -0.00222377 0)
(-0.0105215 -0.00235215 0)
(-0.0088496 -0.00242672 0)
(-0.00711137 -0.00243937 0)
(-0.0053299 -0.00238506 0)
(-0.00352492 -0.00227147 0)
(-0.00172586 -0.00210602 0)
(2.30503e-05 -0.00190659 0)
(0.00166504 -0.00169172 0)
(0.00312086 -0.00144783 0)
(0.00434875 -0.00120296 0)
(0.00534015 -0.000925394 0)
(0.0060332 -0.000659569 0)
(0.00650373 -0.000383697 0)
(0.00675409 -0.000171731 0)
(0.00673015 -9.21633e-06 0)
(0.00648301 9.46094e-05 0)
(0.00600784 0.000138463 0)
(0.00534544 0.000166636 0)
(0.00453832 0.000170784 0)
(0.00365727 0.000157311 0)
(0.00273437 0.000140154 0)
(0.00182537 0.000111483 0)
(0.000993008 8.13947e-05 0)
(0.000294757 4.11575e-05 0)
(-0.000215844 -1.76067e-05 0)
(-0.000495779 -9.49347e-05 0)
(-0.000514788 -0.000195184 0)
(-0.000268966 -0.000322098 0)
(0.000207686 -0.00049764 0)
(0.00089078 -0.000696767 0)
(0.00176317 -0.0008898 0)
(0.00282229 -0.00106155 0)
(0.00403683 -0.00121335 0)
(0.00534543 -0.00134127 0)
(0.00669022 -0.00145138 0)
(0.00800681 -0.00152371 0)
(0.00924638 -0.0015348 0)
(0.0103946 -0.00146989 0)
(0.0114307 -0.00133854 0)
(0.0123196 -0.00114724 0)
(0.0130518 -0.000906327 0)
(0.0136216 -0.000632074 0)
(0.014005 -0.000331092 0)
(0.0141948 -2.69016e-05 0)
(0.0142127 0.000256039 0)
(0.0140448 0.000504447 0)
(0.0136967 0.000729847 0)
(0.0131985 0.000930675 0)
(0.0125784 0.0011072 0)
(0.0118859 0.00124148 0)
(0.011134 0.00134572 0)
(0.0103141 0.00144232 0)
(0.00941676 0.00152245 0)
(0.00843388 0.0016137 0)
(0.00735988 0.00170606 0)
(0.0061613 0.0018057 0)
(0.00490346 0.0018467 0)
(0.00346029 0.00168271 0)
(0.00245582 0.00133468 0)
(0.00136739 0.00258059 0)
(-0.00204549 0.00777713 0)
(-0.00433708 0.00550129 0)
(-0.0065788 0.00593232 0)
(-0.00920176 0.00585642 0)
(-0.0114958 0.00535867 0)
(-0.0135902 0.00470536 0)
(-0.0153299 0.00395882 0)
(-0.0167718 0.00320237 0)
(-0.017891 0.00241628 0)
(-0.0186746 0.00163683 0)
(-0.0191332 0.000901374 0)
(-0.0193242 0.000208243 0)
(-0.0192369 -0.000458945 0)
(-0.0188958 -0.00107058 0)
(-0.0183262 -0.00166485 0)
(-0.0174995 -0.00220507 0)
(-0.0164708 -0.00268556 0)
(-0.0152553 -0.00312902 0)
(-0.0138679 -0.00350459 0)
(-0.012338 -0.00380323 0)
(-0.0106935 -0.00403475 0)
(-0.00896334 -0.00418763 0)
(-0.00718245 -0.00425457 0)
(-0.00538966 -0.00423203 0)
(-0.00361826 -0.00412678 0)
(-0.00190895 -0.00392877 0)
(-0.000299237 -0.00365595 0)
(0.00118159 -0.00329205 0)
(0.00247463 -0.00284272 0)
(0.00357372 -0.00233371 0)
(0.00443651 -0.00179129 0)
(0.00505658 -0.0012815 0)
(0.00549524 -0.000771286 0)
(0.00572596 -0.00032839 0)
(0.00575219 8.14825e-05 0)
(0.0055756 0.000433896 0)
(0.00522723 0.000712172 0)
(0.00474696 0.000926789 0)
(0.00414925 0.00107106 0)
(0.00350121 0.00112027 0)
(0.002836 0.00112018 0)
(0.00218488 0.00104362 0)
(0.0015926 0.000884966 0)
(0.00109223 0.00066485 0)
(0.000727577 0.000382938 0)
(0.000549603 2.75891e-05 0)
(0.000578321 -0.000343188 0)
(0.000809001 -0.000737942 0)
(0.00121487 -0.00112572 0)
(0.001796 -0.0015258 0)
(0.00253724 -0.00190447 0)
(0.00343284 -0.00225471 0)
(0.00448399 -0.00254106 0)
(0.00565416 -0.00274171 0)
(0.00689792 -0.00284976 0)
(0.00817233 -0.0028693 0)
(0.00942584 -0.00279234 0)
(0.0106198 -0.00262251 0)
(0.0117167 -0.00236524 0)
(0.0126714 -0.00202515 0)
(0.0134519 -0.00161023 0)
(0.0140504 -0.0011433 0)
(0.0144451 -0.000655568 0)
(0.0146193 -0.000162972 0)
(0.0145749 0.000323197 0)
(0.0143192 0.000766974 0)
(0.0138756 0.00117926 0)
(0.0132777 0.00152233 0)
(0.0125664 0.00179311 0)
(0.0117823 0.00199305 0)
(0.0109411 0.00216302 0)
(0.0100379 0.0023205 0)
(0.00909262 0.00247386 0)
(0.00810664 0.0026386 0)
(0.00704227 0.00284417 0)
(0.00587081 0.00306408 0)
(0.00465538 0.00317713 0)
(0.00327233 0.00293423 0)
(0.00239128 0.00234981 0)
(0.00137448 0.00456596 0)
(-0.00215729 0.0109916 0)
(-0.00453416 0.00774775 0)
(-0.00685071 0.00838574 0)
(-0.00961703 0.00834209 0)
(-0.0120544 0.0076259 0)
(-0.0142997 0.00668519 0)
(-0.0161363 0.00562755 0)
(-0.0176168 0.00452287 0)
(-0.0187452 0.00340362 0)
(-0.0195125 0.00231728 0)
(-0.019947 0.00127772 0)
(-0.0201035 0.000277364 0)
(-0.0199787 -0.000646321 0)
(-0.0195957 -0.00153272 0)
(-0.0189836 -0.00236616 0)
(-0.0181141 -0.00313754 0)
(-0.0170474 -0.0038319 0)
(-0.0157896 -0.00446192 0)
(-0.0143445 -0.00500303 0)
(-0.0127482 -0.00543732 0)
(-0.0110226 -0.00576973 0)
(-0.00920478 -0.00598736 0)
(-0.00733644 -0.00607612 0)
(-0.0054607 -0.00602485 0)
(-0.00361062 -0.00584044 0)
(-0.00184581 -0.00552606 0)
(-0.000207983 -0.00509122 0)
(0.00128263 -0.0045448 0)
(0.00256713 -0.00391461 0)
(0.00364312 -0.00321139 0)
(0.0044858 -0.00248667 0)
(0.00507314 -0.00174703 0)
(0.00542585 -0.00103749 0)
(0.00553543 -0.000397326 0)
(0.00545109 0.000179269 0)
(0.00519893 0.000663678 0)
(0.00481401 0.00105027 0)
(0.00436114 0.00132973 0)
(0.00385303 0.00150071 0)
(0.00333517 0.00157049 0)
(0.00284346 0.00155435 0)
(0.00235752 0.00145827 0)
(0.00190176 0.00125204 0)
(0.00150562 0.000955066 0)
(0.00117594 0.000578749 0)
(0.00098001 0.000109742 0)
(0.000941002 -0.000416254 0)
(0.00108375 -0.000982214 0)
(0.00142931 -0.00155091 0)
(0.00197574 -0.00210585 0)
(0.00270726 -0.00263833 0)
(0.00360205 -0.00312478 0)
(0.00465873 -0.00353995 0)
(0.00583394 -0.00386494 0)
(0.00710026 -0.00406538 0)
(0.00842776 -0.00412667 0)
(0.00975472 -0.0040403 0)
(0.0110213 -0.00380383 0)
(0.0121932 -0.00342731 0)
(0.0132225 -0.00292946 0)
(0.0140664 -0.00233012 0)
(0.0146934 -0.00164502 0)
(0.0150813 -0.000922483 0)
(0.0152346 -0.000184865 0)
(0.0151398 0.000534601 0)
(0.0148022 0.00119697 0)
(0.0142703 0.0017692 0)
(0.013593 0.00224767 0)
(0.0128056 0.00261739 0)
(0.0119519 0.0028928 0)
(0.0110625 0.00310961 0)
(0.0101396 0.00329023 0)
(0.009197 0.0034609 0)
(0.00822795 0.00369152 0)
(0.00718055 0.00395989 0)
(0.00598074 0.00426696 0)
(0.00472683 0.0044385 0)
(0.00333925 0.00405742 0)
(0.00246347 0.00323033 0)
(0.00142643 0.00644319 0)
(-0.00234733 0.014515 0)
(-0.00487625 0.0102049 0)
(-0.00733655 0.0110748 0)
(-0.010351 0.0110766 0)
(-0.0130345 0.0101091 0)
(-0.0154381 0.0088132 0)
(-0.0173869 0.00735529 0)
(-0.0189007 0.00583815 0)
(-0.0199936 0.0043305 0)
(-0.0207019 0.00289844 0)
(-0.021088 0.00154948 0)
(-0.0211719 0.00026365 0)
(-0.0209799 -0.000938081 0)
(-0.0205411 -0.00208361 0)
(-0.0198533 -0.00315387 0)
(-0.0189186 -0.00414677 0)
(-0.0177717 -0.00506147 0)
(-0.0164232 -0.00588059 0)
(-0.0148803 -0.00659735 0)
(-0.0131675 -0.00718645 0)
(-0.0113145 -0.00763204 0)
(-0.00935885 -0.00792532 0)
(-0.00733832 -0.00805095 0)
(-0.00530802 -0.00799268 0)
(-0.00331444 -0.00775318 0)
(-0.00139871 -0.00734339 0)
(0.00039572 -0.00676303 0)
(0.00201277 -0.00602766 0)
(0.00339649 -0.00518106 0)
(0.00453707 -0.00420761 0)
(0.00540464 -0.00320797 0)
(0.00598792 -0.00217966 0)
(0.00627508 -0.0012148 0)
(0.00628139 -0.000329941 0)
(0.00607047 0.000463681 0)
(0.00567689 0.00108407 0)
(0.00515688 0.00155631 0)
(0.00456874 0.00189864 0)
(0.00394633 0.00207994 0)
(0.0033305 0.00216358 0)
(0.00275821 0.00212307 0)
(0.00219392 0.00200476 0)
(0.00164198 0.00177007 0)
(0.00114404 0.00141561 0)
(0.000719233 0.000928718 0)
(0.000419535 0.000315836 0)
(0.000301818 -0.000413182 0)
(0.000391376 -0.00118576 0)
(0.000713828 -0.00199006 0)
(0.00127427 -0.00276627 0)
(0.00205974 -0.00351441 0)
(0.00304898 -0.00418657 0)
(0.0042151 -0.00475655 0)
(0.00552771 -0.00519593 0)
(0.00694998 -0.0054671 0)
(0.00843469 -0.00555505 0)
(0.00991902 -0.00544632 0)
(0.0113442 -0.00513061 0)
(0.0126634 -0.00461956 0)
(0.0138186 -0.00394974 0)
(0.0147677 -0.00313486 0)
(0.0154743 -0.00221132 0)
(0.0159023 -0.00122379 0)
(0.0160438 -0.000212126 0)
(0.0158897 0.000769169 0)
(0.0154603 0.00166731 0)
(0.0148329 0.00242723 0)
(0.0140503 0.00303969 0)
(0.013133 0.0035001 0)
(0.0121743 0.00383913 0)
(0.0112334 0.00405239 0)
(0.0103033 0.00422692 0)
(0.00941242 0.00439836 0)
(0.00849658 0.00470634 0)
(0.00747437 0.00509815 0)
(0.00627628 0.00553632 0)
(0.00495 0.00579818 0)
(0.00348116 0.00524392 0)
(0.00259061 0.00420087 0)
(0.00153071 0.0084627 0)
(-0.00253825 0.0182871 0)
(-0.00525353 0.0128267 0)
(-0.00798809 0.0139602 0)
(-0.0113162 0.0140771 0)
(-0.0143143 0.0128278 0)
(-0.0169617 0.0110971 0)
(-0.0190453 0.00914909 0)
(-0.0205747 0.0071452 0)
(-0.0216092 0.0052267 0)
(-0.0222188 0.00341711 0)
(-0.0225067 0.0017539 0)
(-0.0225146 0.000178172 0)
(-0.0222519 -0.00128825 0)
(-0.0217267 -0.00269476 0)
(-0.0209554 -0.00401432 0)
(-0.0199409 -0.0052444 0)
(-0.018696 -0.00638182 0)
(-0.0172348 -0.0074134 0)
(-0.0155655 -0.00831551 0)
(-0.013697 -0.00907237 0)
(-0.0116678 -0.00964993 0)
(-0.00952474 -0.0100279 0)
(-0.00730416 -0.0101911 0)
(-0.00506715 -0.010127 0)
(-0.00286548 -0.00981872 0)
(-0.000745061 -0.00928284 0)
(0.00123656 -0.00853468 0)
(0.0029995 -0.0076029 0)
(0.00452553 -0.00647141 0)
(0.00576632 -0.00522834 0)
(0.00667804 -0.00391114 0)
(0.0072452 -0.00258859 0)
(0.00746067 -0.00132878 0)
(0.00739011 -0.000154937 0)
(0.00702341 0.000837621 0)
(0.00642678 0.00163307 0)
(0.00572676 0.00220751 0)
(0.00495241 0.0025803 0)
(0.00414751 0.00275592 0)
(0.00337214 0.00282253 0)
(0.00263777 0.00277274 0)
(0.0019232 0.00264882 0)
(0.00120986 0.00238559 0)
(0.000543902 0.0019643 0)
(-4.16512e-05 0.00136576 0)
(-0.000481048 0.000583818 0)
(-0.000692312 -0.000344209 0)
(-0.000651545 -0.00137332 0)
(-0.0003336 -0.00242718 0)
(0.000260366 -0.003455 0)
(0.00111138 -0.0044314 0)
(0.00221708 -0.00531974 0)
(0.00354045 -0.00607378 0)
(0.00503752 -0.00665926 0)
(0.00666221 -0.00702844 0)
(0.00836179 -0.00715435 0)
(0.0100682 -0.00701838 0)
(0.0117174 -0.0066143 0)
(0.0132459 -0.00597388 0)
(0.0145889 -0.00510872 0)
(0.0156914 -0.00404383 0)
(0.0164945 -0.00283532 0)
(0.0169668 -0.00153254 0)
(0.0170944 -0.000200123 0)
(0.0168773 0.0010881 0)
(0.0163462 0.00225695 0)
(0.0155652 0.00323049 0)
(0.0145977 0.00398631 0)
(0.0135141 0.00453976 0)
(0.0123952 0.00488964 0)
(0.0113602 0.00504367 0)
(0.0104261 0.00513454 0)
(0.00962203 0.00529727 0)
(0.00885447 0.00564526 0)
(0.00790431 0.00622227 0)
(0.0066736 0.00686093 0)
(0.00524231 0.00723271 0)
(0.00368916 0.00645285 0)
(0.00275096 0.00518863 0)
(0.00165712 0.0106167 0)
(-0.00270671 0.0223772 0)
(-0.00560235 0.0157544 0)
(-0.00872211 0.0171574 0)
(-0.0124986 0.0175042 0)
(-0.0159937 0.0158728 0)
(-0.0189515 0.0135777 0)
(-0.0212162 0.0110233 0)
(-0.0227201 0.00842004 0)
(-0.0236241 0.00603176 0)
(-0.024087 0.00382026 0)
(-0.0242359 0.001845 0)
(-0.0241136 8.27243e-07 0)
(-0.0237532 -0.00172569 0)
(-0.023156 -0.00337977 0)
(-0.0222954 -0.00494875 0)
(-0.0211937 -0.00643221 0)
(-0.0198408 -0.00781344 0)
(-0.0182438 -0.00908385 0)
(-0.0164187 -0.0101931 0)
(-0.0143711 -0.0111397 0)
(-0.0121313 -0.0118673 0)
(-0.00975563 -0.0123484 0)
(-0.00728829 -0.0125658 0)
(-0.00478416 -0.0124992 0)
(-0.00231296 -0.0121285 0)
(6.07114e-05 -0.0114714 0)
(0.00227333 -0.0105319 0)
(0.00428735 -0.00936068 0)
(0.00599696 -0.00793465 0)
(0.00734125 -0.00633515 0)
(0.00830431 -0.00466358 0)
(0.00883822 -0.00295665 0)
(0.00898153 -0.00132857 0)
(0.0087343 0.000167423 0)
(0.00816067 0.00141247 0)
(0.00734257 0.00239189 0)
(0.00636758 0.00309166 0)
(0.00534681 0.00349655 0)
(0.00435028 0.00365161 0)
(0.0034193 0.00367004 0)
(0.0025201 0.00358085 0)
(0.00162492 0.00347653 0)
(0.000714277 0.00321033 0)
(-0.000163647 0.00271521 0)
(-0.000958741 0.00196177 0)
(-0.00157888 0.00098891 0)
(-0.00193737 -0.000189054 0)
(-0.00197637 -0.00150297 0)
(-0.00166399 -0.00285754 0)
(-0.00102808 -0.00420335 0)
(-8.70946e-05 -0.0054725 0)
(0.00116087 -0.00661857 0)
(0.00267095 -0.00759652 0)
(0.00439162 -0.00836099 0)
(0.00627668 -0.00884994 0)
(0.00825605 -0.00901907 0)
(0.0102535 -0.00886217 0)
(0.0121845 -0.00836426 0)
(0.0139865 -0.00755979 0)
(0.0155822 -0.00646036 0)
(0.0168763 -0.00510097 0)
(0.0178139 -0.00354066 0)
(0.0183536 -0.00186214 0)
(0.0184635 -0.000145953 0)
(0.0181617 0.00150759 0)
(0.0174819 0.00298988 0)
(0.0164753 0.00422413 0)
(0.0152482 0.00516331 0)
(0.0138999 0.0057965 0)
(0.0125462 0.00607543 0)
(0.0113705 0.00608739 0)
(0.0104581 0.00597994 0)
(0.00981947 0.00603044 0)
(0.00930572 0.00645391 0)
(0.00852428 0.00730153 0)
(0.00728381 0.00824719 0)
(0.00566423 0.00880788 0)
(0.00391895 0.00774234 0)
(0.0028708 0.0062354 0)
(0.00179708 0.012924 0)
(-0.00273698 0.0266523 0)
(-0.00585479 0.0190408 0)
(-0.00941908 0.0208134 0)
(-0.0138658 0.0215402 0)
(-0.0181732 0.0193784 0)
(-0.0215717 0.0163727 0)
(-0.0240506 0.0129937 0)
(-0.0254555 0.00958645 0)
(-0.0260946 0.00663038 0)
(-0.0262876 0.0040574 0)
(-0.0262056 0.00178879 0)
(-0.0259576 -0.000280445 0)
(-0.0255024 -0.00226432 0)
(-0.0248124 -0.00415951 0)
(-0.023881 -0.00598733 0)
(-0.0226928 -0.00772614 0)
(-0.0212293 -0.00937434 0)
(-0.0194781 -0.010909 0)
(-0.0174681 -0.0122641 0)
(-0.0152034 -0.0134336 0)
(-0.0127041 -0.0143407 0)
(-0.0100467 -0.0149515 0)
(-0.00726905 -0.0152305 0)
(-0.00443237 -0.0151663 0)
(-0.00162491 -0.0147345 0)
(0.00108653 -0.0139307 0)
(0.00361023 -0.0127843 0)
(0.00588082 -0.0113038 0)
(0.0078462 -0.00954954 0)
(0.00934299 -0.00755685 0)
(0.0103679 -0.0054204 0)
(0.0108879 -0.00326145 0)
(0.0108828 -0.00119155 0)
(0.0104267 0.000699474 0)
(0.00955347 0.0022897 0)
(0.00841292 0.00348788 0)
(0.00713816 0.0042906 0)
(0.00581704 0.00469241 0)
(0.00455243 0.0047982 0)
(0.00340588 0.00474466 0)
(0.00235893 0.00458241 0)
(0.00129951 0.00445368 0)
(0.000142293 0.00420872 0)
(-0.00102458 0.003703 0)
(-0.00207721 0.002801 0)
(-0.00293488 0.00159007 0)
(-0.00348629 9.71747e-05 0)
(-0.00363531 -0.00156155 0)
(-0.00337488 -0.00330155 0)
(-0.00270306 -0.00502012 0)
(-0.00163319 -0.00664159 0)
(-0.00019737 -0.00810314 0)
(0.00154461 -0.00935054 0)
(0.00354128 -0.0103206 0)
(0.00574799 -0.0109563 0)
(0.00807735 -0.0112069 0)
(0.0104477 -0.0110476 0)
(0.0127668 -0.0104523 0)
(0.0149307 -0.00945039 0)
(0.0168396 -0.00807237 0)
(0.0183937 -0.00635347 0)
(0.0195102 -0.0043656 0)
(0.0201353 -0.00223287 0)
(0.0202372 -4.36307e-05 0)
(0.019814 0.00206534 0)
(0.0189165 0.00395885 0)
(0.0176034 0.00551966 0)
(0.0160054 0.0066768 0)
(0.0142555 0.00735947 0)
(0.0125352 0.0075055 0)
(0.0111246 0.00722363 0)
(0.0102242 0.00673281 0)
(0.00993887 0.00646948 0)
(0.00993754 0.00696731 0)
(0.00944435 0.00829225 0)
(0.00817928 0.00974948 0)
(0.00616488 0.0106457 0)
(0.00406235 0.00921385 0)
(0.00290751 0.00737607 0)
(0.0018567 0.0152726 0)
(-0.00241746 0.031015 0)
(-0.00637661 0.0227207 0)
(-0.0103134 0.0250048 0)
(-0.0153804 0.0265 0)
(-0.0209261 0.0235808 0)
(-0.0249509 0.0196056 0)
(-0.0277698 0.0150362 0)
(-0.0289297 0.0104871 0)
(-0.0290131 0.00687779 0)
(-0.0287649 0.00399814 0)
(-0.0283911 0.00152229 0)
(-0.0279746 -0.000711178 0)
(-0.0274355 -0.00288823 0)
(-0.0266837 -0.00500672 0)
(-0.0256726 -0.00710486 0)
(-0.0243975 -0.00912272 0)
(-0.0228364 -0.0110611 0)
(-0.02093 -0.0128957 0)
(-0.0187185 -0.014558 0)
(-0.0162068 -0.0159909 0)
(-0.0134041 -0.0171163 0)
(-0.0103935 -0.017886 0)
(-0.00723697 -0.018257 0)
(-0.00400527 -0.0182139 0)
(-0.000776154 -0.0177176 0)
(0.00233844 -0.0167535 0)
(0.00525788 -0.0153704 0)
(0.00790228 -0.0135532 0)
(0.0101378 -0.0113737 0)
(0.0118793 -0.00889127 0)
(0.0130142 -0.00620157 0)
(0.0134736 -0.00346642 0)
(0.0133297 -0.00082925 0)
(0.0125959 0.00153115 0)
(0.0113495 0.0034888 0)
(0.00978339 0.00491985 0)
(0.00804979 0.00580267 0)
(0.00629319 0.00615605 0)
(0.004665 0.00618981 0)
(0.00330982 0.00603424 0)
(0.00224403 0.00582468 0)
(0.00102251 0.00572917 0)
(-0.000439679 0.00553539 0)
(-0.00203704 0.00498616 0)
(-0.00351044 0.00396401 0)
(-0.00468771 0.00245198 0)
(-0.00548784 0.000569676 0)
(-0.00579946 -0.00156858 0)
(-0.00557139 -0.00375832 0)
(-0.00482136 -0.00591826 0)
(-0.00359949 -0.00795445 0)
(-0.00193478 -0.00978659 0)
(9.89707e-05 -0.0113652 0)
(0.00243659 -0.0126038 0)
(0.00503243 -0.0134413 0)
(0.00780575 -0.013807 0)
(0.0106643 -0.0136448 0)
(0.0134736 -0.0129518 0)
(0.0160914 -0.0117304 0)
(0.0184083 -0.0100091 0)
(0.0203046 -0.00785894 0)
(0.0216627 -0.00536511 0)
(0.0224164 -0.0026539 0)
(0.0225161 0.000130011 0)
(0.0219325 0.00281434 0)
(0.020716 0.0052395 0)
(0.0189647 0.00722311 0)
(0.0168449 0.00865244 0)
(0.0144962 0.00937826 0)
(0.0122079 0.0093307 0)
(0.010421 0.00855361 0)
(0.00955472 0.00731912 0)
(0.0098641 0.00639408 0)
(0.0107491 0.00688752 0)
(0.010804 0.00912994 0)
(0.00947157 0.0115031 0)
(0.00674123 0.0130622 0)
(0.00431139 0.0108619 0)
(0.00328273 0.00862217 0)
(0.00166704 0.0176563 0)
(-0.0011313 0.0354644 0)
(-0.00716428 0.0276183 0)
(-0.0130208 0.0295624 0)
(-0.0176032 0.0324738 0)
(-0.0246298 0.0288774 0)
(-0.0294279 0.0234938 0)
(-0.0326474 0.0170829 0)
(-0.0333053 0.0108166 0)
(-0.0323955 0.00655083 0)
(-0.0314247 0.00345733 0)
(-0.0306096 0.00102148 0)
(-0.030003 -0.00127388 0)
(-0.0294207 -0.00356048 0)
(-0.0286581 -0.00592007 0)
(-0.0276274 -0.0082757 0)
(-0.0262728 -0.0106116 0)
(-0.0246106 -0.0128776 0)
(-0.022564 -0.0150664 0)
(-0.0201357 -0.0171014 0)
(-0.0173306 -0.0188527 0)
(-0.0141731 -0.0202424 0)
(-0.0107594 -0.0212091 0)
(-0.00716657 -0.0217108 0)
(-0.003465 -0.0217086 0)
(0.00026938 -0.0211605 0)
(0.00389649 -0.0200329 0)
(0.00731436 -0.0183934 0)
(0.0104132 -0.0162225 0)
(0.0130633 -0.0135395 0)
(0.0150967 -0.0104184 0)
(0.0163929 -0.00703114 0)
(0.0168593 -0.00357478 0)
(0.0164716 -0.000212445 0)
(0.0153592 0.00272568 0)
(0.0136279 0.00513927 0)
(0.0114452 0.00681673 0)
(0.00896092 0.00783408 0)
(0.00641866 0.00812222 0)
(0.00425431 0.00789862 0)
(0.00294315 0.00729685 0)
(0.00243091 0.00703628 0)
(0.00131858 0.0073366 0)
(-0.000687882 0.00743452 0)
(-0.00309767 0.0068369 0)
(-0.005302 0.0055797 0)
(-0.00701264 0.00365682 0)
(-0.00814656 0.00123453 0)
(-0.00859042 -0.00145599 0)
(-0.00835646 -0.00422428 0)
(-0.0075288 -0.00699219 0)
(-0.00610139 -0.00949768 0)
(-0.00416399 -0.0118006 0)
(-0.00179421 -0.0137486 0)
(0.00096396 -0.0153176 0)
(0.00405671 -0.0163949 0)
(0.00740276 -0.0169103 0)
(0.0108537 -0.01679 0)
(0.0142555 -0.0159896 0)
(0.0174624 -0.0145083 0)
(0.0203021 -0.0123809 0)
(0.0226336 -0.00969996 0)
(0.0243249 -0.00658896 0)
(0.0252472 -0.00315175 0)
(0.0253197 0.00038728 0)
(0.0245341 0.0038269 0)
(0.0229351 0.00693278 0)
(0.020626 0.00950427 0)
(0.0177801 0.0113025 0)
(0.014592 0.0121173 0)
(0.011479 0.0117716 0)
(0.00906505 0.0101467 0)
(0.00817773 0.00750354 0)
(0.00959556 0.00520258 0)
(0.0124767 0.00556457 0)
(0.0132648 0.00970667 0)
(0.0117352 0.0137066 0)
(0.00800256 0.0160541 0)
(0.00634808 0.0122778 0)
(0.00458589 0.0102591 0)
(0.00084984 0.0201876 0)
(0.00318271 0.039308 0)
(-0.00547293 0.0350889 0)
(-0.0189668 0.034736 0)
(-0.0224201 0.0384518 0)
(-0.0306368 0.035183 0)
(-0.0364423 0.0280412 0)
(-0.0401945 0.0190059 0)
(-0.0393195 0.0101516 0)
(-0.0359923 0.00512607 0)
(-0.0341095 0.00221697 0)
(-0.03303 0.000144147 0)
(-0.0323951 -0.00193553 0)
(-0.0319371 -0.00425146 0)
(-0.0313231 -0.00684766 0)
(-0.0302913 -0.00950078 0)
(-0.0288003 -0.0121735 0)
(-0.0268847 -0.0148401 0)
(-0.0245518 -0.017444 0)
(-0.0217865 -0.0199089 0)
(-0.0186007 -0.0220547 0)
(-0.0150222 -0.0237788 0)
(-0.0111273 -0.0249987 0)
(-0.00700701 -0.0256678 0)
(-0.00274249 -0.0257102 0)
(0.00160462 -0.0251238 0)
(0.00584226 -0.0238647 0)
(0.00985178 -0.0219508 0)
(0.0135631 -0.0193689 0)
(0.016758 -0.0160877 0)
(0.0192303 -0.0122231 0)
(0.0207465 -0.00790369 0)
(0.0212288 -0.00352758 0)
(0.0206321 0.000691619 0)
(0.0190243 0.00441448 0)
(0.0164856 0.00744558 0)
(0.0131446 0.00967219 0)
(0.00927626 0.0109177 0)
(0.0055923 0.010989 0)
(0.0031021 0.00974309 0)
(0.00231991 0.00786474 0)
(0.00273314 0.0075223 0)
(0.00225911 0.00900753 0)
(-5.05407e-05 0.0100561 0)
(-0.00359984 0.00970386 0)
(-0.00715898 0.00800248 0)
(-0.0099713 0.00536016 0)
(-0.0116663 0.0021734 0)
(-0.0122796 -0.00123073 0)
(-0.0120745 -0.00476794 0)
(-0.0110339 -0.00814727 0)
(-0.00931442 -0.0112794 0)
(-0.00705528 -0.0140947 0)
(-0.0042548 -0.0165137 0)
(-0.00101356 -0.0185108 0)
(0.00267198 -0.0199273 0)
(0.00667238 -0.020679 0)
(0.0108632 -0.020627 0)
(0.0150441 -0.0196954 0)
(0.018992 -0.017911 0)
(0.022507 -0.0153118 0)
(0.0253987 -0.0119829 0)
(0.0275379 -0.00806555 0)
(0.0287637 -0.00375551 0)
(0.0289546 0.000726733 0)
(0.028077 0.00513428 0)
(0.0261387 0.0091259 0)
(0.0232193 0.0124583 0)
(0.0194797 0.01482 0)
(0.0151369 0.0158029 0)
(0.0105196 0.0150553 0)
(0.00611307 0.0120744 0)
(0.00384726 0.00691036 0)
(0.00719295 0.00213853 0)
(0.0164737 0.00304683 0)
(0.0199499 0.0104532 0)
(0.0170229 0.0166875 0)
(0.0119128 0.0187562 0)
(0.0121588 0.0138017 0)
(0.00527652 0.0145392 0)
(-0.00111949 0.0229036 0)
(0.000714194 0.0378388 0)
(0.00254517 0.0520356 0)
(-0.0205797 0.0463298 0)
(-0.0316426 0.0460046 0)
(-0.0401201 0.0428319 0)
(-0.0486892 0.0338948 0)
(-0.0531846 0.0203274 0)
(-0.0485245 0.00630919 0)
(-0.0392979 0.00131438 0)
(-0.0354005 0.0004391 0)
(-0.0353205 -0.000847441 0)
(-0.035885 -0.00244557 0)
(-0.0360784 -0.00466652 0)
(-0.0357142 -0.00759532 0)
(-0.0347023 -0.0108041 0)
(-0.0330734 -0.0140174 0)
(-0.0307756 -0.0171861 0)
(-0.0278769 -0.0202706 0)
(-0.0245178 -0.0231633 0)
(-0.0207767 -0.0257363 0)
(-0.0166433 -0.0278205 0)
(-0.0120996 -0.0293476 0)
(-0.0071972 -0.0302289 0)
(-0.00211638 -0.0303587 0)
(0.00297805 -0.0297305 0)
(0.00792735 -0.0283363 0)
(0.0126144 -0.0261358 0)
(0.0170176 -0.0231043 0)
(0.0209451 -0.0191844 0)
(0.0241011 -0.0144011 0)
(0.026102 -0.00899864 0)
(0.0267096 -0.00330066 0)
(0.0258662 0.00205069 0)
(0.0234988 0.00692232 0)
(0.0196593 0.0110496 0)
(0.0146419 0.0141236 0)
(0.00943726 0.015447 0)
(0.00534454 0.0143688 0)
(0.00316088 0.0111602 0)
(0.00268256 0.00754735 0)
(0.00277397 0.00718213 0)
(0.00230383 0.0102979 0)
(4.40264e-05 0.0133501 0)
(-0.00404806 0.0141107 0)
(-0.00893224 0.0120353 0)
(-0.0132327 0.0082404 0)
(-0.0160142 0.0036899 0)
(-0.0171517 -0.00093098 0)
(-0.0168559 -0.00549417 0)
(-0.0154462 -0.00961707 0)
(-0.0132689 -0.0134508 0)
(-0.0104874 -0.0168 0)
(-0.00722389 -0.0197593 0)
(-0.00342968 -0.0222451 0)
(0.000910195 -0.0241493 0)
(0.0057198 -0.0252392 0)
(0.0109027 -0.0252928 0)
(0.0161522 -0.0242506 0)
(0.0211188 -0.0220869 0)
(0.0255118 -0.0189345 0)
(0.0291645 -0.0148712 0)
(0.0319756 -0.0100425 0)
(0.0338326 -0.00467386 0)
(0.0345728 0.000992957 0)
(0.0338771 0.00662291 0)
(0.0315944 0.0118308 0)
(0.0278985 0.0163082 0)
(0.0228865 0.0196483 0)
(0.0163492 0.0213572 0)
(0.00757613 0.0213393 0)
(-0.00246766 0.0179405 0)
(-0.00708905 0.00750782 0)
(0.000472121 -0.00617115 0)
(0.0176029 -0.00714192 0)
(0.0305875 0.0103901 0)
(0.0273305 0.0219334 0)
(0.0201716 0.0217158 0)
(0.0172507 0.0187072 0)
(0.000847284 0.0247591 0)
(-0.00248331 0.0242471 0)
(-0.00174885 0.0350367 0)
(0.013223 0.0553434 0)
(-0.00324932 0.0697708 0)
(-0.0369498 0.0585174 0)
(-0.0529211 0.0523585 0)
(-0.0651862 0.0420333 0)
(-0.0719227 0.0193786 0)
(-0.0662027 -0.00391423 0)
(-0.0498002 -0.00796159 0)
(-0.0360361 -0.00143636 0)
(-0.0338948 0.000740212 0)
(-0.0365492 -0.00128781 0)
(-0.038526 -0.00453009 0)
(-0.0387371 -0.00814427 0)
(-0.0381777 -0.0121587 0)
(-0.0373568 -0.0161703 0)
(-0.0357521 -0.0200774 0)
(-0.0329271 -0.0237547 0)
(-0.0291665 -0.0270996 0)
(-0.0248385 -0.0300548 0)
(-0.0200321 -0.0325528 0)
(-0.0146875 -0.0345213 0)
(-0.00878147 -0.0357215 0)
(-0.00260728 -0.0359803 0)
(0.00348015 -0.0351703 0)
(0.00926743 -0.0335114 0)
(0.0147734 -0.0310079 0)
(0.0201563 -0.0276393 0)
(0.0252592 -0.0231244 0)
(0.0295312 -0.0172528 0)
(0.032377 -0.0104631 0)
(0.0332183 -0.0031366 0)
(0.0319273 0.00401839 0)
(0.0286368 0.0107289 0)
(0.0235173 0.0163724 0)
(0.0176883 0.019903 0)
(0.0127502 0.0202318 0)
(0.00959101 0.0171041 0)
(0.00751148 0.0123596 0)
(0.00547978 0.00826355 0)
(0.00257805 0.00802205 0)
(-0.000590976 0.0117886 0)
(-0.0038425 0.0165717 0)
(-0.00813629 0.0189423 0)
(-0.0133088 0.017351 0)
(-0.0182021 0.0125795 0)
(-0.0216986 0.00618822 0)
(-0.0232406 -0.000316867 0)
(-0.0227527 -0.00635812 0)
(-0.020607 -0.0116142 0)
(-0.0175234 -0.0161634 0)
(-0.0138512 -0.0200791 0)
(-0.0098361 -0.0235096 0)
(-0.00542677 -0.0265088 0)
(-0.000411037 -0.0290576 0)
(0.0053829 -0.0307521 0)
(0.0118778 -0.0311571 0)
(0.0186805 -0.029989 0)
(0.0251124 -0.0273462 0)
(0.0306558 -0.0234484 0)
(0.0352538 -0.0186005 0)
(0.0389885 -0.0128874 0)
(0.0417049 -0.00641841 0)
(0.04277 0.000683295 0)
(0.0414062 0.00805171 0)
(0.0375337 0.0151557 0)
(0.0317239 0.0213527 0)
(0.0241824 0.0265111 0)
(0.0143038 0.0309089 0)
(0.00155618 0.0332782 0)
(-0.00944128 0.0265018 0)
(-0.00888645 0.00394024 0)
(0.00368188 -0.0245337 0)
(0.0175306 -0.0303675 0)
(0.0339504 0.000206537 0)
(0.0365219 0.0270938 0)
(0.0265011 0.0289623 0)
(0.0054952 0.0325604 0)
(-0.0148108 0.0341237 0)
(-0.00329581 0.0196324 0)
(0.0127679 0.0309102 0)
(0.041244 0.0550307 0)
(0.0409707 0.103095 0)
(-0.00687045 0.100507 0)
(-0.0556743 0.0700813 0)
(-0.0768311 0.0542473 0)
(-0.0928218 0.0220437 0)
(-0.0960642 -0.0147267 0)
(-0.0807201 -0.0286224 0)
(-0.0537218 -0.0155971 0)
(-0.0358561 -0.000919735 0)
(-0.0307331 0.00193325 0)
(-0.030382 -0.00238649 0)
(-0.0306444 -0.00751008 0)
(-0.0318217 -0.0118079 0)
(-0.034086 -0.0162796 0)
(-0.0360724 -0.0215799 0)
(-0.0359041 -0.0267955 0)
(-0.033185 -0.0312354 0)
(-0.0287017 -0.034957 0)
(-0.0232199 -0.0381589 0)
(-0.01703 -0.0408103 0)
(-0.010273 -0.0425076 0)
(-0.00316918 -0.0428685 0)
(0.00392052 -0.0417321 0)
(0.0109759 -0.0397033 0)
(0.0183132 -0.0371049 0)
(0.0260337 -0.0337458 0)
(0.0335588 -0.0286902 0)
(0.0394234 -0.0214806 0)
(0.0426322 -0.0126595 0)
(0.0429044 -0.00313995 0)
(0.0405784 0.00653275 0)
(0.0363179 0.0153209 0)
(0.030936 0.0219161 0)
(0.0259428 0.0248563 0)
(0.0221542 0.0236487 0)
(0.0188499 0.0197984 0)
(0.0148499 0.0156114 0)
(0.0100825 0.0126689 0)
(0.00301133 0.013456 0)
(-0.00599154 0.016899 0)
(-0.0138316 0.0211091 0)
(-0.0201931 0.0235752 0)
(-0.0255418 0.0223124 0)
(-0.0296872 0.0168242 0)
(-0.0319106 0.00877872 0)
(-0.0320781 9.21159e-05 0)
(-0.0303564 -0.00788507 0)
(-0.0270625 -0.0147445 0)
(-0.0228195 -0.020256 0)
(-0.018131 -0.0246027 0)
(-0.0134301 -0.0282918 0)
(-0.00855458 -0.0317805 0)
(-0.00282421 -0.0350863 0)
(0.00429416 -0.0377227 0)
(0.0126605 -0.0388181 0)
(0.0214454 -0.0376517 0)
(0.0297371 -0.034221 0)
(0.0369199 -0.0292004 0)
(0.0428135 -0.023301 0)
(0.0473293 -0.0165535 0)
(0.0497763 -0.00855316 0)
(0.048866 0.00116265 0)
(0.0438147 0.011893 0)
(0.0354448 0.0218879 0)
(0.0255395 0.030109 0)
(0.0161275 0.03734 0)
(0.00895335 0.0429153 0)
(0.00594665 0.041638 0)
(0.0112699 0.0255515 0)
(0.0256271 -0.00577059 0)
(0.0377857 -0.0349507 0)
(0.039247 -0.0406758 0)
(0.0347294 -0.00926391 0)
(0.0345001 0.0307005 0)