/*--------------------------------*- C++ -*----------------------------------*\
| =========                 |                                                 |
| \\      /  F ield         | OpenFOAM: The Open Source CFD Toolbox           |
|  \\    /   O peration     | Version:  2412                                  |
|   \\  /    A nd           | Website:  www.openfoam.com                      |
|    \\/     M anipulation  |                                                 |
\*---------------------------------------------------------------------------*/
FoamFile
{
    version     2.0;
    format      ascii;
    arch        "LSB;label=32;scalar=64";
    class       volScalarField;
    location    "0.5";
    object      alpha.honey;
}
// * * * * * * * * * * * * * * * * * * * * * * * * * * * * * * * * * * * * * //

dimensions      [0 0 0 0 0 0 0];

internalField   nonuniform List<scalar> 
6400
(
1
1
1
1
1
1
1
1
1
1
1
1
1
1
1
1
1
1
1
1
1
1
1
1
1
1
1
1
1
1
1
1
1
1
1
1
1
1
1
1
1
1
1
1
1
1
1
1
1
1
1
1
1
1
1
1
1
1
1
1
1
1
1
1
1
1
1
1
1
1
1
1
1
1
1
1
1
1
1
1
1
1
1
1
1
1
1
1
1
1
1
1
1
1
1
1
1
1
1
1
1
1
1
1
1
1
1
1
1
1
1
1
1
1
1
1
1
1
1
1
1
1
1
1
1
1
1
1
1
1
1
1
1
1
1
1
1
1
1
1
1
1
1
1
1
1
1
1
1
1
1
1
1
1
1
1
1
1
1
1
1
1
1
1
1
1
1
1
1
1
1
1
1
1
1
1
1
1
1
1
1
1
1
1
1
1
1
1
1
1
1
1
1
1
1
1
1
1
1
1
1
1
1
1
1
1
1
1
1
1
1
1
1
1
1
1
1
1
1
1
1
1
1
1
1
1
1
1
1
1
1
1
1
1
1
1
1
1
1
1
1
1
1
1
1
1
1
1
1
1
1
1
1
1
1
1
1
1
1
1
1
1
1
1
1
1
1
1
1
1
1
1
1
1
1
1
1
1
1
1
1
1
1
1
1
1
1
1
1
1
1
1
1
1
1
1
1
1
1
1
1
1
1
1
1
1
1
1
1
1
1
1
1
1
1
1
1
1
1
1
1
1
1
1
1
1
1
1
1
1
1
1
1
1
1
1
1
1
1
1
1
1
1
1
1
1
1
1
1
1
1
1
1
1
1
1
1
1
1
1
1
1
1
1
1
1
1
1
1
1
1
1
1
1
1
1
1
1
1
1
1
1
1
1
1
1
1
1
1
1
1
1
1
1
1
1
1
1
1
1
1
1
1
1
1
1
1
1
1
1
1
1
1
1
1
1
1
1
1
1
1
1
1
1
1
1
1
1
1
1
1
1
1
1
1
1
1
1
1
1
1
1
1
1
1
1
1
1
1
1
1
1
1
1
1
1
1
1
1
1
1
1
1
1
1
1
1
1
1
1
1
1
1
1
1
1
1
1
1
1
1
1
1
1
1
1
1
1
1
1
1
1
1
1
1
1
1
1
1
1
1
1
1
1
1
1
1
1
1
1
1
1
1
1
1
1
1
1
1
1
1
1
1
1
1
1
1
1
1
1
1
1
1
1
1
1
1
1
1
1
1
1
1
1
1
1
1
1
1
1
1
1
1
1
1
1
1
1
1
1
1
1
1
1
1
1
1
1
1
1
1
1
1
1
1
1
1
1
1
1
1
1
1
1
1
1
1
1
1
1
1
1
1
1
1
1
1
1
1
1
1
1
1
1
1
1
1
1
1
1
1
1
1
1
1
1
1
1
1
1
1
1
1
1
1
1
1
1
1
1
1
1
1
1
1
1
1
1
1
1
1
1
1
1
1
1
1
1
1
1
1
1
1
1
1
1
1
1
1
1
1
1
1
1
1
1
1
1
1
1
1
1
1
1
1
1
1
1
1
1
1
1
1
1
1
1
1
1
1
1
1
1
1
1
1
1
1
1
1
1
1
1
1
1
1
1
1
1
1
1
1
1
1
1
1
1
1
1
1
1
1
1
1
1
1
1
1
1
1
1
1
1
1
1
1
1
1
1
1
1
1
1
1
1
1
1
1
1
1
1
1
1
1
1
1
1
1
1
1
1
1
1
1
1
1
1
1
1
1
1
1
1
1
1
1
1
1
1
1
1
1
1
1
1
1
1
1
1
1
1
1
1
1
1
1
1
1
1
1
1
1
1
1
1
1
1
1
1
1
1
1
1
1
1
1
1
1
1
1
1
1
1
1
1
1
1
1
1
1
1
1
1
1
1
1
1
1
1
1
1
1
1
1
1
1
1
1
1
1
1
1
1
1
1
1
1
1
1
1
1
1
1
1
1
1
1
1
1
1
1
1
1
1
1
1
1
1
1
1
1
1
1
1
1
1
1
1
1
1
1
1
1
1
1
1
1
1
1
1
1
1
1
1
1
1
1
1
1
1
1
1
1
1
1
1
1
1
1
1
1
1
1
1
1
1
1
1
1
1
1
1
1
1
1
1
1
1
1
1
1
1
1
1
1
1
1
1
1
1
1
1
1
1
1
1
1
1
1
1
1
1
1
1
1
1
1
1
1
1
1
1
1
1
1
1
1
1
1
1
1
1
1
1
1
1
1
1
1
1
1
1
1
1
1
1
1
1
1
1
1
1
1
1
1
1
1
1
1
1
1
1
1
1
1
1
1
1
1
1
1
1
1
1
1
1
1
1
1
1
1
1
1
1
1
1
1
1
1
1
1
1
1
1
1
1
1
1
1
1
1
1
1
1
1
1
1
1
1
1
1
1
1
1
1
1
1
1
1
1
1
1
1
1
1
1
1
1
1
1
1
1
1
1
1
1
1
1
1
1
1
1
1
1
1
1
1
1
1
1
1
1
1
1
1
1
1
1
1
1
1
1
1
1
1
1
1
1
1
1
1
1
1
1
1
1
1
1
1
1
1
1
1
1
1
1
1
1
1
1
1
1
1
1
1
1
1
1
1
1
1
1
1
1
1
1
1
1
1
1
1
1
1
1
1
1
1
1
1
1
1
1
1
1
1
1
1
1
1
1
1
1
1
1
1
1
1
1
1
1
1
1
1
1
1
1
1
1
1
1
1
1
1
1
1
1
1
1
1
1
1
1
1
1
1
1
1
1
1
1
1
1
1
1
1
1
1
1
1
1
1
1
1
1
1
1
1
1
1
1
1
1
1
1
1
1
1
1
1
1
1
1
1
1
1
1
1
1
1
1
1
1
1
1
1
1
1
1
1
1
1
1
1
1
1
1
1
1
1
1
1
1
1
1
1
1
1
1
1
1
1
1
1
1
1
1
1
1
1
1
1
1
1
1
1
1
1
1
1
1
1
1
1
1
1
1
1
1
1
1
1
1
1
1
1
1
1
1
1
1
1
1
1
1
1
1
1
1
1
1
1
1
1
1
1
1
1
1
1
1
1
1
1
1
1
1
1
1
1
1
1
1
1
1
1
1
1
1
1
1
1
1
1
1
1
1
1
1
1
1
1
1
1
1
1
1
1
1
1
1
1
1
1
1
1
1
1
1
1
1
1
1
1
1
1
1
1
1
1
1
1
1
1
1
1
1
1
1
1
1
1
1
1
1
1
1
1
1
1
1
1
1
1
1
1
1
1
1
1
1
1
1
1
1
1
1
1
1
1
1
1
1
1
1
1
1
1
1
1
1
1
1
1
1
1
1
1
1
1
1
1
1
1
1
1
1
1
1
1
1
1
1
1
1
1
1
1
1
1
1
1
1
1
1
1
1
1
1
1
1
1
1
1
1
1
1
1
1
1
1
1
1
1
1
1
1
1
1
1
1
1
1
1
1
1
1
1
1
1
1
1
1
1
1
1
1
1
1
1
1
1
1
1
1
1
1
1
1
1
1
1
1
1
1
1
1
1
1
1
1
1
1
1
1
1
1
1
1
1
1
1
1
1
1
1
1
1
1
1
1
1
1
1
1
1
1
1
1
1
1
1
1
1
1
1
1
1
1
1
1
1
6.02032e-08
9.49897e-08
1.17498e-07
1.31034e-07
1.3433e-07
1.31719e-07
1.25733e-07
1.17226e-07
1.07115e-07
9.64003e-08
8.56785e-08
7.51159e-08
6.47553e-08
5.50187e-08
4.5489e-08
3.58172e-08
2.55176e-08
1.47576e-08
6.9887e-09
2.80403e-10
-2.98828e-43
-5.85336e-40
-7.80142e-37
0
1.61483e-156
5.3425e-153
1.56294e-149
3.98618e-146
8.87992e-143
1.7189e-139
2.86178e-136
4.05038e-133
4.79665e-130
4.65908e-127
3.61775e-124
2.16622e-121
9.49688e-119
2.81022e-116
4.83097e-114
3.12531e-112
2.17714e-112
1.10164e-115
1.29898e-119
1.13185e-123
1.9448e-127
2.07956e-131
1.33398e-135
6.0976e-140
2.84021e-144
1.94382e-148
2.77845e-164
-7.0772e-150
0
9.07302e-163
9.07302e-163
0
0
0
0
1.71057e-50
-9.18355e-42
-4.93038e-33
8.72658e-09
2.82756e-08
6.16408e-08
9.63358e-08
1.28753e-07
1.56785e-07
1.79937e-07
1.96787e-07
2.06542e-07
2.10143e-07
2.07515e-07
2.02125e-07
1.94121e-07
1.8732e-07
1.82117e-07
1.80325e-07
1.66418e-07
1.37467e-07
1.85148e-21
2.90788e-21
4.29594e-21
5.02679e-21
5.2907e-21
5.27856e-21
5.02661e-21
4.6544e-21
4.02268e-21
3.41068e-21
2.67332e-21
2.06543e-21
1.45077e-21
9.96563e-22
5.82139e-22
2.99229e-22
9.60212e-23
-3.65715e-28
-1.95698e-41
-3.31605e-38
-4.60773e-35
-4.75665e-32
-2.84812e-29
0
8.01442e-148
3.39813e-144
8.1233e-141
1.73411e-137
3.22942e-134
5.1847e-131
7.07361e-128
8.05624e-125
7.49712e-122
5.54787e-119
3.14696e-116
1.30256e-113
3.76032e-111
1.02084e-108
2.78917e-107
8.36105e-107
6.72811e-107
1.54707e-107
1.10164e-115
1.29898e-119
1.13185e-123
1.9448e-127
2.07956e-131
1.33398e-135
6.0976e-140
2.84022e-144
2.03651e-148
1.47245e-149
2.15818e-149
4.26944e-151
2.02916e-154
2.75481e-161
9.2235e-165
3.33635e-168
1.20783e-171
-1.83862e-187
-1.46947e-35
-1.01452e-38
9.49602e-36
2.90502e-22
1.30407e-21
3.04098e-21
5.41639e-21
7.80441e-21
1.02427e-20
1.18451e-20
1.29815e-20
1.31955e-20
1.29533e-20
1.22018e-20
1.12052e-20
1.02093e-20
9.12079e-21
8.09424e-21
5.87833e-21
5.25708e-21
7.77962e-26
1.22372e-25
1.79272e-25
2.08516e-25
2.17738e-25
2.13878e-25
1.97956e-25
1.76916e-25
1.46132e-25
1.17109e-25
8.52548e-26
6.00566e-26
3.76082e-26
2.19754e-26
1.01629e-26
3.1242e-27
-2.29073e-28
-2.40201e-28
-4.93402e-28
-1.82669e-31
-1.08504e-28
-1.05368e-28
-2.54978e-29
0
3.04835e-143
1.38975e-139
3.29138e-136
6.91033e-133
1.26218e-129
1.98254e-126
2.64124e-123
2.93359e-120
2.66023e-117
1.91772e-114
1.0601e-111
4.28051e-109
1.20651e-106
3.16865e-104
8.73449e-103
2.5968e-102
2.09157e-102
4.84035e-103
1.46349e-107
1.69743e-111
1.45449e-115
2.45899e-119
2.58992e-123
1.63968e-127
7.42117e-132
3.43832e-136
2.35599e-140
2.95653e-144
6.36292e-148
2.59735e-149
5.69006e-150
2.97723e-153
1.46508e-156
6.85929e-160
3.16568e-163
1.42954e-166
-6.06684e-40
8.08655e-28
2.00244e-27
1.22537e-26
3.51781e-26
9.23617e-26
1.86859e-25
2.91014e-25
3.93713e-25
4.87859e-25
5.63965e-25
5.59822e-25
5.41251e-25
4.89872e-25
4.54638e-25
4.25487e-25
3.89356e-25
3.58543e-25
2.32194e-25
2.47388e-25
4.99687e-28
5.33314e-28
7.70774e-28
9.01139e-28
9.11146e-28
8.36048e-28
7.11841e-28
5.69242e-28
4.2391e-28
3.02637e-28
2.02815e-28
1.31914e-28
8.13395e-29
5.07415e-29
2.89204e-29
1.67206e-29
8.01889e-30
3.23712e-30
9.73876e-31
2.57324e-31
6.73861e-32
6.06801e-33
3.90257e-34
1.94956e-143
6.25969e-139
2.83121e-135
6.63645e-132
1.36426e-128
2.43546e-125
3.73244e-122
4.84534e-119
5.23841e-116
4.62088e-113
3.24067e-110
1.74378e-107
6.86241e-105
1.88797e-102
4.82074e-100
1.32798e-98
3.90615e-98
3.16845e-98
7.33178e-99
4.34403e-103
5.19928e-107
4.64927e-111
8.29972e-115
9.34577e-119
6.40983e-123
3.18437e-127
1.62941e-131
1.20667e-135
1.57205e-139
3.20161e-143
8.04358e-147
3.55713e-149
2.61869e-149
2.15838e-152
1.02578e-155
4.88628e-159
2.26954e-162
-2.12169e-44
9.15707e-32
1.08021e-30
1.07632e-29
5.887e-29
2.096e-28
5.15735e-28
9.28312e-28
1.35438e-27
1.79522e-27
2.22973e-27
2.58092e-27
2.78808e-27
2.85081e-27
2.73626e-27
2.52335e-27
2.24432e-27
1.93201e-27
1.40452e-27
1.62567e-27
3.05077e-32
3.24497e-32
4.65141e-32
5.39425e-32
5.38842e-32
4.86897e-32
4.0714e-32
3.1874e-32
2.32015e-32
1.6151e-32
1.05236e-32
6.689e-33
3.88437e-33
2.38507e-33
1.37152e-33
6.69446e-34
3.00886e-34
1.67371e-34
1.65663e-34
3.64467e-35
7.72433e-36
4.68986e-37
1.19507e-38
4.02657e-139
8.7063e-135
3.91608e-131
8.99915e-128
1.80778e-124
3.14635e-121
4.69307e-118
5.92166e-115
6.21986e-112
5.32974e-109
3.63095e-106
1.89957e-103
7.27911e-101
1.95438e-98
4.8824e-96
1.32941e-94
3.86057e-94
3.16183e-94
7.29442e-95
6.26864e-99
7.38414e-103
7.21761e-107
1.35967e-110
1.51717e-114
9.05451e-119
5.61152e-123
3.72419e-127
2.96053e-131
3.94689e-135
8.01076e-139
2.03319e-142
5.79277e-146
7.148e-149
4.7429e-149
1.06037e-151
5.2169e-155
2.50363e-158
-8.36711e-49
9.24692e-37
2.43147e-35
3.3363e-34
2.13171e-33
8.28868e-33
2.1837e-32
4.05341e-32
6.15952e-32
8.47362e-32
1.09604e-31
1.32519e-31
1.49367e-31
1.55374e-31
1.49741e-31
1.36458e-31
1.19741e-31
1.02142e-31
7.43872e-32
8.59989e-32
2.38491e-36
2.65032e-36
3.72778e-36
4.27398e-36
4.23499e-36
3.78487e-36
3.1232e-36
2.40571e-36
1.71735e-36
1.16817e-36
7.38998e-37
4.44226e-37
2.5876e-37
1.50358e-37
7.89968e-38
3.75819e-38
1.54229e-38
5.17834e-39
1.28626e-39
2.41247e-40
4.46923e-41
2.8472e-42
2.84056e-47
5.67875e-135
9.17889e-131
4.10954e-127
9.21841e-124
1.80375e-120
3.05253e-117
4.42144e-114
5.41272e-111
5.51373e-108
4.58257e-105
3.02937e-102
1.53943e-99
5.73977e-97
1.50376e-94
3.69483e-92
9.85183e-91
2.82004e-90
2.32879e-90
5.36062e-91
5.50995e-95
5.59635e-99
7.38434e-103
1.46845e-106
1.40731e-110
9.21277e-115
6.29021e-119
5.61157e-123
4.78653e-127
6.52169e-131
1.3244e-134
3.38905e-138
9.79493e-142
3.0345e-145
1.826e-148
5.51685e-149
4.61096e-151
2.28388e-154
-3.78448e-53
4.46772e-41
7.90385e-40
1.31448e-38
9.68398e-38
4.11415e-37
1.15393e-36
2.33585e-36
3.73504e-36
5.36158e-36
7.18571e-36
8.96138e-36
1.04031e-35
1.10558e-35
1.07669e-35
9.84037e-36
8.61478e-36
7.34276e-36
5.38026e-36
6.1742e-36
2.48143e-40
2.80028e-40
3.88385e-40
4.40345e-40
4.31377e-40
3.80318e-40
3.09317e-40
2.34444e-40
1.6426e-40
1.09247e-40
6.71977e-41
3.96816e-41
2.23258e-41
1.23133e-41
6.08216e-42
2.68329e-42
1.00887e-42
3.04634e-43
6.65611e-44
1.0673e-44
1.57079e-45
6.41967e-47
1.74687e-56
6.09533e-131
8.21475e-127
3.46792e-123
7.57006e-120
1.43891e-116
2.36238e-113
3.31638e-110
3.93264e-107
3.87987e-104
3.12391e-101
2.00194e-98
9.87376e-96
3.57964e-93
9.14993e-91
2.22071e-88
5.75357e-87
1.62071e-86
1.34839e-86
3.09787e-87
3.15158e-91
3.34354e-95
5.59635e-99
1.09279e-102
1.03221e-106
7.42241e-111
5.59748e-115
5.59546e-119
5.78603e-123
8.12469e-127
1.65768e-130
4.26862e-134
1.24898e-137
3.932e-141
1.29493e-144
5.46241e-148
7.99901e-149
1.94261e-150
-2.00949e-57
2.6542e-45
3.50452e-44
6.99477e-43
5.75726e-42
2.66225e-41
7.98763e-41
1.72096e-40
2.90236e-40
4.35617e-40
6.03745e-40
7.71275e-40
9.1489e-40
9.98067e-40
9.88947e-40
9.18442e-40
8.08203e-40
6.90656e-40
5.09103e-40
5.81892e-40
3.15348e-44
3.60503e-44
4.92715e-44
5.52478e-44
5.35084e-44
4.66177e-44
3.7428e-44
2.79585e-44
1.92418e-44
1.25142e-44
7.54679e-45
4.33192e-45
2.33873e-45
1.22395e-45
5.683e-46
2.32622e-46
8.01544e-47
2.17739e-47
4.18127e-48
5.68433e-49
6.48794e-50
3.02319e-51
-1.80799e-75
5.64655e-127
5.84915e-123
2.43783e-119
5.16451e-116
9.51488e-113
1.51263e-109
2.05475e-106
2.35706e-103
2.24969e-100
1.75311e-97
1.08824e-94
5.20569e-92
1.83404e-89
4.57335e-87
1.10016e-84
2.75215e-83
7.61417e-83
6.37867e-83
1.46297e-83
1.47519e-87
1.63616e-91
3.34354e-95
6.06661e-99
6.22564e-103
4.9264e-107
4.11596e-111
4.50634e-115
5.59548e-119
8.21248e-123
1.70316e-126
4.43882e-130
1.31959e-133
4.23325e-137
1.42317e-140
4.91027e-144
1.86242e-146
9.29697e-149
-1.25267e-61
1.8775e-49
2.02851e-48
4.52503e-47
4.17254e-46
2.10411e-45
6.76083e-45
1.55003e-44
2.75718e-44
4.32567e-44
6.19834e-44
8.1047e-44
9.80267e-44
1.09558e-43
1.10766e-43
1.04863e-43
9.30926e-44
7.98892e-44
5.92616e-44
6.74106e-44
4.73478e-48
5.47088e-48
7.36951e-48
8.17982e-48
7.84044e-48
6.76559e-48
5.36956e-48
3.9579e-48
2.6767e-48
1.70394e-48
1.00782e-48
5.58793e-49
2.89263e-49
1.43651e-49
6.27012e-50
2.38281e-50
7.52539e-51
1.8379e-51
3.08785e-52
3.5182e-53
2.99378e-54
1.76892e-55
4.42149e-76
4.64061e-123
3.96254e-119
1.46016e-115
2.99592e-112
5.3399e-109
8.207e-106
1.0774e-102
1.19432e-99
1.10182e-96
8.30373e-94
4.98958e-91
2.31361e-88
7.91728e-86
1.92569e-83
4.60316e-81
1.10544e-79
3.00081e-79
2.52951e-79
5.79226e-80
5.79577e-84
6.72761e-88
1.63611e-91
2.83839e-95
3.17064e-99
2.76694e-103
2.56921e-107
3.10176e-111
4.50634e-115
7.01475e-119
1.50096e-122
4.00174e-126
1.21818e-129
4.00802e-133
1.38388e-136
4.95132e-140
1.81093e-142
4.38522e-146
-8.96641e-66
1.54998e-53
1.84377e-52
3.46074e-51
3.59386e-50
1.98052e-49
6.82004e-49
1.6622e-48
3.11494e-48
5.10187e-48
7.56034e-48
1.0138e-47
1.25181e-47
1.42962e-47
1.47558e-47
1.42079e-47
1.27464e-47
1.09964e-47
8.21005e-48
9.2863e-48
8.19891e-52
9.57961e-52
1.27476e-51
1.40018e-51
1.3286e-51
1.13744e-51
8.93764e-52
6.50566e-52
4.32438e-52
2.71359e-52
1.55797e-52
8.34242e-53
4.14105e-53
1.95296e-53
8.01254e-54
2.82907e-54
8.18947e-55
1.79678e-55
2.62606e-56
2.4646e-57
2.26921e-58
1.2076e-59
-5.40927e-119
6.65291e-119
3.32969e-115
7.56686e-112
1.50123e-108
2.58489e-105
3.83608e-102
4.86202e-99
5.20405e-96
4.63731e-93
3.37792e-90
1.96373e-87
8.82194e-85
2.9309e-82
6.95262e-80
1.65449e-77
3.79794e-76
1.00989e-75
8.56306e-76
1.9573e-76
1.94547e-80
2.3665e-84
6.25603e-88
1.14024e-91
1.38965e-95
1.34081e-99
1.38833e-103
1.85886e-107
3.10176e-111
5.18572e-115
1.16124e-118
3.20332e-122
1.00719e-125
3.42787e-129
1.22352e-132
4.62818e-136
1.4161e-138
2.6719e-139
-7.29389e-70
1.47412e-57
1.93052e-56
3.06491e-55
3.60862e-54
2.1776e-53
8.04058e-53
2.08091e-52
4.10232e-52
7.00307e-52
1.07273e-51
1.47711e-51
1.86513e-51
2.17323e-51
2.29057e-51
2.23395e-51
2.02697e-51
1.75917e-51
1.32201e-51
1.4857e-51
1.6082e-55
1.90049e-55
2.49954e-55
2.72273e-55
2.56631e-55
2.181e-55
1.69761e-55
1.22118e-55
7.98548e-56
4.92428e-56
2.74605e-56
1.42035e-56
6.76278e-57
3.0307e-57
1.16939e-57
3.83929e-58
1.01872e-58
2.00621e-59
2.53198e-60
2.23671e-61
2.14185e-62
9.53907e-64
-2.05705e-66
3.38515e-115
1.56142e-111
3.42942e-108
6.57075e-105
1.09172e-101
1.56301e-98
1.91122e-95
1.97402e-92
1.69819e-89
1.19503e-86
6.71833e-84
2.92282e-81
9.42321e-79
2.17979e-76
5.17006e-74
1.12974e-72
2.94003e-72
2.50654e-72
5.7184e-73
5.65152e-77
7.21527e-81
2.02874e-84
3.98749e-88
5.31669e-92
5.68996e-96
6.59308e-100
9.84294e-104
1.85886e-107
3.37222e-111
7.99989e-115
2.30659e-118
7.54637e-122
2.67574e-125
9.9106e-129
4.01597e-132
1.61724e-134
3.51849e-138
-6.59572e-74
1.59976e-61
2.29556e-60
3.09279e-59
4.1645e-58
2.75676e-57
1.09171e-56
2.99668e-56
6.20593e-56
1.10239e-55
1.74312e-55
2.46387e-55
3.1832e-55
3.78407e-55
4.06448e-55
4.01182e-55
3.67847e-55
3.21352e-55
2.43068e-55
2.71221e-55
3.52537e-59
4.20787e-59
5.47649e-59
5.92851e-59
5.56396e-59
4.70959e-59
3.63273e-59
2.58401e-59
1.66983e-59
1.0063e-59
5.45442e-60
2.72723e-60
1.24622e-60
5.31094e-61
1.92887e-61
5.89394e-62
1.43395e-62
2.53262e-63
2.74918e-64
2.76132e-65
2.30737e-66
8.6811e-68
-4.91556e-70
5.47575e-111
6.46624e-108
1.36999e-104
2.53149e-101
4.05621e-98
5.59928e-95
6.60208e-92
6.57729e-89
5.46032e-86
3.71073e-83
2.01661e-80
8.49272e-78
2.65595e-75
6.03278e-73
1.42914e-70
3.03358e-69
7.80483e-69
6.7196e-69
1.52051e-69
1.43429e-73
1.92547e-77
5.77175e-81
1.22679e-84
1.79537e-88
2.13896e-92
2.78443e-96
4.65956e-100
9.84294e-104
1.95568e-107
4.97263e-111
1.51491e-114
5.20087e-118
1.92558e-121
7.46557e-125
3.27358e-128
1.36015e-130
2.44786e-134
-6.51998e-78
1.96791e-65
3.082e-64
3.50928e-63
5.46461e-62
3.97535e-61
1.68828e-60
4.90867e-60
1.06631e-59
1.96813e-59
3.20724e-59
4.64555e-59
6.13381e-59
7.43456e-59
8.12629e-59
8.11711e-59
7.51462e-59
6.61203e-59
5.03343e-59
5.57277e-59
8.56046e-63
1.03026e-62
1.32873e-62
1.43226e-62
1.34125e-62
1.13254e-62
8.67341e-63
6.10034e-63
3.89236e-63
2.29471e-63
1.21004e-63
5.85522e-64
2.56988e-64
1.04258e-64
3.56788e-65
1.01579e-65
2.26731e-66
3.58946e-67
4.16695e-68
3.85574e-69
2.83212e-70
9.08824e-72
-9.33392e-74
-3.95638e-109
2.30728e-104
4.85042e-101
8.63848e-98
1.33395e-94
1.7747e-91
2.01709e-88
1.93771e-85
1.55192e-82
1.01996e-79
5.403e-77
2.22675e-74
6.83682e-72
1.5193e-69
3.53538e-67
7.35236e-66
1.86085e-65
1.61923e-65
3.63953e-66
3.20242e-70
4.53042e-74
1.45178e-77
3.34798e-81
5.39827e-85
7.18899e-89
1.05575e-92
1.9898e-96
4.65956e-100
1.02255e-103
2.81715e-107
9.16907e-111
3.33524e-114
1.30261e-117
5.30333e-121
1.89984e-123
7.94344e-127
0
-7.16607e-82
2.73084e-69
4.65134e-68
5.23908e-67
8.09346e-66
6.47994e-65
2.94954e-64
9.06819e-64
2.06262e-63
3.94978e-63
6.62408e-63
9.81158e-63
1.32061e-62
1.62891e-62
1.80938e-62
1.82933e-62
1.7095e-62
1.51574e-62
1.16127e-62
1.27484e-62
2.28209e-66
2.77095e-66
3.54592e-66
3.81196e-66
3.56832e-66
3.00843e-66
2.29014e-66
1.59408e-66
1.00386e-66
5.79718e-67
2.9776e-67
1.3963e-67
5.89343e-68
2.27896e-68
7.35814e-69
1.95452e-69
4.00646e-70
5.68441e-71
7.15098e-72
6.05853e-73
3.93633e-74
1.08495e-75
-1.77213e-77
1.79834e-104
7.75476e-101
1.52744e-97
2.62132e-94
3.8999e-91
4.99931e-88
5.47988e-85
5.10946e-82
3.98407e-79
2.55149e-76
1.31124e-73
5.2426e-71
1.56384e-68
3.38758e-66
7.73521e-64
1.56857e-62
3.90169e-62
3.42564e-62
7.65584e-63
6.32275e-67
9.45014e-71
3.24782e-74
8.15767e-78
1.45559e-81
2.17692e-85
3.62255e-89
7.72321e-93
1.9898e-96
4.85519e-100
1.46219e-103
5.13188e-107
1.99534e-110
8.28947e-114
3.58008e-117
1.59572e-119
8.71845e-123
2.26316e-126
-8.97425e-86
4.26105e-73
7.86618e-72
9.00299e-71
1.34616e-69
1.18744e-68
5.78664e-68
1.87722e-67
4.46106e-67
8.84584e-67
1.52456e-66
2.30518e-66
3.15405e-66
3.94709e-66
4.44729e-66
4.5488e-66
4.2932e-66
3.83744e-66
2.95899e-66
3.21861e-66
6.64025e-70
8.14649e-70
1.03553e-69
1.11145e-69
1.04129e-69
8.76967e-70
6.64134e-70
4.5913e-70
2.84734e-70
1.61322e-70
8.08309e-71
3.67952e-71
1.49574e-71
5.5221e-72
1.68481e-72
4.18254e-73
7.8865e-74
1.10607e-74
1.37427e-75
1.07055e-76
6.19982e-78
1.4802e-79
-3.62758e-81
-1.98277e-116
2.25254e-97
4.29017e-94
7.0926e-91
1.01981e-87
1.26714e-84
1.34887e-81
1.21675e-78
9.17488e-76
5.68352e-73
2.82733e-70
1.09551e-67
3.17233e-65
6.69552e-63
1.50092e-60
2.95549e-59
7.22093e-59
6.38815e-59
1.42119e-59
1.10785e-63
1.75462e-67
6.49189e-71
1.78398e-74
3.5407e-78
5.97845e-82
1.13273e-85
2.74359e-89
7.72321e-93
2.10669e-96
6.9824e-100
2.66131e-103
1.11323e-106
4.94474e-110
2.41257e-113
1.16435e-115
6.40819e-119
1.17304e-122
-1.29746e-89
7.45568e-77
1.48688e-75
1.73069e-74
2.50698e-73
2.43729e-72
1.2693e-71
4.33335e-71
1.07307e-70
2.19792e-70
3.8856e-70
5.98784e-70
8.30935e-70
1.05174e-69
1.19865e-69
1.24014e-69
1.18152e-69
1.06549e-69
8.26818e-70
8.90419e-70
2.09979e-73
2.60789e-73
3.29605e-73
3.53411e-73
3.31509e-73
2.79044e-73
2.10377e-73
1.44524e-73
8.83864e-74
4.92209e-74
2.41022e-74
1.06721e-74
4.18527e-75
1.47845e-75
4.27068e-76
9.92913e-77
1.7263e-77
2.51704e-78
2.95056e-79
2.12281e-80
1.10413e-81
2.30306e-83
-8.26201e-85
1.37484e-97
5.97837e-94
1.07757e-90
1.72454e-87
2.39844e-84
2.8804e-81
2.96261e-78
2.5822e-75
1.8818e-72
1.1271e-69
5.42506e-67
2.03606e-64
5.72e-62
1.17575e-59
2.58773e-57
4.93048e-56
1.18243e-55
1.05289e-55
2.33453e-56
1.72667e-60
2.90806e-64
1.16345e-67
3.51636e-71
7.80895e-75
1.49764e-78
3.24769e-82
8.97472e-86
2.74359e-89
8.40665e-93
3.08443e-96
1.28443e-99
5.81609e-103
2.77687e-106
1.55096e-109
8.29147e-112
4.67202e-115
8.44048e-119
-2.17255e-93
1.45956e-80
3.13401e-79
3.80376e-78
5.2241e-77
5.59134e-76
3.10339e-75
1.11137e-74
2.85889e-74
6.03092e-74
1.0909e-73
1.70997e-73
2.40205e-73
3.06743e-73
3.52713e-73
3.68688e-73
3.54446e-73
3.22603e-73
2.51901e-73
2.68328e-73
7.19024e-77
9.06034e-77
1.13951e-76
1.22062e-76
1.14651e-76
9.64681e-77
7.24618e-77
4.95048e-77
2.99063e-77
1.6404e-77
7.86706e-78
3.39641e-78
1.28769e-78
4.36389e-79
1.19619e-79
2.61136e-80
4.25379e-81
6.36404e-82
7.06474e-83
4.71699e-84
2.22055e-85
4.08054e-87
-2.12159e-88
3.40328e-94
1.41142e-90
2.41687e-87
3.74231e-84
5.03112e-81
5.83848e-78
5.80212e-75
4.88612e-72
3.44083e-69
1.99209e-66
9.27378e-64
3.36947e-61
9.1777e-59
1.83643e-56
3.96746e-54
7.29084e-53
1.71508e-52
1.53584e-52
3.3982e-53
2.39666e-57
4.30996e-61
1.87429e-64
6.2686e-68
1.56838e-71
3.4399e-75
8.58559e-79
2.71822e-82
8.97472e-86
3.10252e-89
1.26636e-92
5.79105e-96
2.85542e-99
1.47308e-102
8.09616e-105
5.48873e-108
3.17151e-111
8.2606e-115
-4.15265e-97
3.191e-84
7.35015e-83
9.49206e-82
1.31943e-80
1.43217e-79
8.44013e-79
3.15802e-78
8.40906e-78
1.82091e-77
3.35998e-77
5.34329e-77
7.58211e-77
9.74905e-77
1.12879e-76
1.1904e-76
1.15429e-76
1.06021e-76
8.32741e-77
8.76495e-77
2.65759e-80
3.40541e-80
4.26535e-80
4.56331e-80
4.29053e-80
3.60951e-80
2.70346e-80
1.83859e-80
1.09929e-80
5.9532e-81
2.8031e-81
1.18327e-81
4.34803e-82
1.41803e-82
3.69863e-83
7.60584e-84
1.24222e-84
1.78509e-85
1.88489e-86
1.17453e-87
5.03953e-89
1.29479e-90
0
1.78096e-90
2.97983e-87
4.83983e-84
7.23552e-81
9.40498e-78
1.05499e-74
1.01314e-71
8.24373e-69
5.60914e-66
3.13828e-63
1.41248e-60
4.96574e-58
1.31051e-55
2.55155e-53
5.40853e-51
9.55678e-50
2.20352e-49
1.98303e-49
4.38448e-50
2.96298e-54
5.71678e-58
2.71887e-61
1.01353e-64
2.87977e-68
7.27907e-72
2.10356e-75
7.66103e-79
2.71822e-82
1.06419e-85
4.85294e-89
2.44774e-92
1.31984e-95
7.8953e-99
5.00985e-101
3.4011e-104
2.05831e-107
3.41455e-111
-9.18591e-101
7.77939e-88
1.91451e-86
2.76212e-85
4.03505e-84
4.09587e-83
2.5499e-82
9.92156e-82
2.72365e-81
6.03206e-81
1.13175e-80
1.82059e-80
2.6033e-80
3.36377e-80
3.91535e-80
4.15995e-80
4.06703e-80
3.76713e-80
2.9749e-80
3.09063e-80
1.057e-83
1.38035e-83
1.72323e-83
1.84056e-83
1.73146e-83
1.45673e-83
1.0896e-83
7.38096e-84
4.37708e-84
2.34644e-84
1.08779e-84
4.50461e-85
1.60907e-85
5.06859e-86
1.26211e-86
2.45405e-87
4.00405e-88
5.54484e-89
5.59183e-90
3.25424e-91
9.57229e-92
1.27337e-91
2.4063e-90
3.93821e-87
5.9285e-84
8.77399e-81
1.2426e-77
1.56475e-74
1.69749e-71
1.57573e-68
1.23896e-65
8.14493e-63
4.403e-60
1.91527e-57
6.51186e-55
1.66403e-52
3.15113e-50
6.54918e-48
1.10935e-46
2.50506e-46
2.26432e-46
5.01006e-47
3.25958e-51
6.78543e-55
3.55478e-58
1.48949e-61
4.85084e-65
1.42537e-68
4.79994e-72
2.0188e-75
7.66103e-79
3.40785e-82
1.74234e-85
9.72684e-89
5.769e-92
3.59324e-94
2.9563e-97
1.98957e-100
1.26729e-103
1.5297e-107
-2.28895e-104
2.11202e-91
5.52938e-90
8.96395e-89
1.38333e-87
1.30882e-86
8.55125e-86
3.44066e-85
9.69298e-85
2.18683e-84
4.15779e-84
6.74571e-84
9.69555e-84
1.25636e-83
1.46774e-83
1.5691e-83
1.54518e-83
1.44251e-83
1.14436e-83
1.17223e-83
4.51023e-87
6.01436e-87
7.49048e-87
7.984e-87
7.51147e-87
6.32191e-87
4.72924e-87
3.19411e-87
1.8831e-87
1.00214e-87
4.58857e-88
1.87076e-88
6.51973e-89
1.99209e-89
4.75414e-90
8.77922e-91
1.42299e-91
1.87392e-92
2.56919e-93
4.11308e-93
7.08192e-93
3.0144e-90
4.87423e-87
7.37073e-84
1.04513e-80
1.41101e-77
1.89715e-74
2.31184e-71
2.42704e-68
2.17855e-65
1.65561e-62
1.05162e-59
5.49198e-57
2.30815e-54
7.58582e-52
1.87574e-49
3.45349e-47
7.03176e-45
1.1382e-43
2.51478e-43
2.28214e-43
5.06025e-44
3.18429e-48
7.19856e-52
4.18937e-55
1.99276e-58
7.51876e-62
2.59359e-65
1.02471e-68
4.79994e-72
2.0188e-75
1.02316e-78
5.87909e-82
3.64551e-85
2.4351e-88
1.91965e-90
1.56825e-93
1.10593e-96
7.35996e-100
4.56185e-103
1.03976e-105
6.37776e-95
1.76808e-93
3.2437e-92
5.29752e-91
4.67844e-90
3.18148e-89
1.31515e-88
3.78275e-88
8.65604e-88
1.66177e-87
2.71111e-87
3.90736e-87
5.06754e-87
5.93178e-87
6.37158e-87
6.31255e-87
5.93434e-87
4.72479e-87
4.76741e-87
2.05853e-90
2.80747e-90
3.49182e-90
3.71328e-90
3.49282e-90
2.9419e-90
2.20273e-90
1.48629e-90
8.73297e-91
4.62789e-91
2.10011e-91
8.4637e-92
2.88994e-92
8.60722e-93
1.97735e-93
3.51658e-94
4.40361e-95
3.17236e-94
5.48862e-94
1.95009e-93
3.27721e-90
5.58345e-87
8.7079e-84
1.25433e-80
1.68137e-77
2.11218e-74
2.60522e-71
3.01928e-68
3.07383e-65
2.66966e-62
1.96159e-59
1.20406e-56
6.07442e-54
2.46596e-51
7.83049e-49
1.87236e-46
3.35072e-44
6.67764e-42
1.02926e-40
2.22251e-40
2.02427e-40
4.50317e-41
2.75345e-45
6.81043e-49
4.44655e-52
2.42895e-55
1.07496e-58
4.40092e-62
2.05505e-65
1.02471e-68
4.9965e-72
2.89231e-75
1.87145e-78
1.29405e-81
7.55585e-84
9.7932e-87
7.79015e-90
5.78538e-93
4.00607e-96
2.56439e-99
8.44476e-102
2.11329e-98
6.14329e-97
1.30838e-95
2.26039e-94
1.93076e-93
1.31231e-92
5.53268e-92
1.61566e-91
3.73243e-91
7.20764e-91
1.17882e-90
1.69967e-90
2.20209e-90
2.57837e-90
2.77831e-90
2.76556e-90
2.61528e-90
2.0875e-90
2.07304e-90
1.00199e-93
1.39925e-93
1.73998e-93
1.84602e-93
1.73594e-93
1.46403e-93
1.09822e-93
7.41869e-94
4.35571e-94
2.30591e-94
1.04097e-94
4.16525e-95
1.4001e-95
4.08421e-96
9.82281e-97
1.52055e-96
1.30771e-95
2.40955e-95
1.8068e-93
2.92111e-90
5.44872e-87
9.06934e-84
1.36725e-80
1.886e-77
2.39961e-74
2.83648e-71
3.17096e-68
3.48343e-65
3.43427e-62
2.88842e-59
2.05298e-56
1.21809e-53
5.93691e-51
2.32767e-48
7.13864e-46
1.6496e-43
2.86906e-41
5.59065e-39
8.17231e-38
1.72222e-37
1.57392e-37
3.51493e-38
2.09831e-42
5.72659e-46
4.24253e-49
2.69692e-52
1.41978e-55
6.98254e-59
3.88407e-62
2.05505e-65
1.16627e-68
7.7267e-72
5.64317e-75
4.42669e-78
4.49186e-80
4.39656e-83
3.6407e-86
2.82657e-89
2.02636e-92
1.33153e-95
1.61758e-99
8.83431e-99
1.08512e-98
7.2603e-99
1.07002e-97
9.23588e-97
5.99458e-96
2.55712e-95
7.53613e-95
1.74907e-94
3.38411e-94
5.53105e-94
7.95938e-94
1.02828e-93
1.20233e-93
1.29754e-93
1.29579e-93
1.23118e-93
9.84083e-94
9.61222e-94
5.21768e-97
7.4787e-97
9.31764e-97
9.86642e-97
9.2771e-97
7.84028e-97
5.90024e-97
4.00024e-97
2.35377e-97
1.24889e-97
5.62691e-98
2.24089e-98
7.26698e-99
3.32282e-99
4.95959e-97
9.82281e-97
1.52055e-96
1.92882e-93
3.26544e-90
4.99799e-87
7.87801e-84
1.29595e-80
1.90481e-77
2.53362e-74
3.07763e-71
3.43984e-68
3.56351e-65
3.58296e-62
3.35992e-59
2.74512e-56
1.88884e-53
1.08383e-50
5.10473e-48
1.9329e-45
5.72361e-43
1.27748e-40
2.15973e-38
4.11043e-36
5.67067e-35
1.16423e-34
1.06735e-34
2.39236e-35
1.40184e-39
4.26111e-43
3.62869e-46
2.72493e-49
1.73321e-52
1.03729e-55
6.93071e-59
3.88407e-62
2.57592e-65
1.95625e-68
1.61742e-71
1.17472e-73
1.92016e-76
1.81471e-79
1.58303e-82
1.27569e-85
9.40695e-89
6.29645e-92
3.7828e-95
1.80204e-98
7.2603e-99
3.72997e-99
1.99636e-100
4.87373e-100
3.02434e-99
1.29547e-98
3.8292e-98
8.8844e-98
1.71542e-97
2.79293e-97
4.00175e-97
5.14557e-97
5.99835e-97
6.47254e-97
6.47509e-97
6.17372e-97
4.93576e-97
4.74018e-97
2.91152e-100
4.29167e-100
5.36815e-100
5.67636e-100
5.33974e-100
4.53082e-100
3.42613e-100
2.33978e-100
1.38626e-100
7.41819e-101
3.35798e-101
1.5943e-101
1.62789e-100
1.81407e-99
3.32282e-99
7.24784e-97
1.51723e-93
2.88495e-90
4.99391e-87
7.88358e-84
1.10724e-80
1.56655e-77
2.27279e-74
2.94311e-71
3.43999e-68
3.65943e-65
3.56947e-62
3.2335e-59
2.87437e-56
2.27542e-53
1.51852e-50
8.43358e-48
3.84037e-45
1.40471e-42
4.01581e-40
8.65385e-38
1.42301e-35
2.64214e-33
3.4199e-32
6.82555e-32
6.27596e-32
1.41034e-32
8.16343e-37
2.79183e-40
2.77301e-43
2.5012e-46
1.95466e-49
1.44236e-52
1.03729e-55
6.93071e-59
5.39543e-62
4.70821e-65
4.58311e-68
6.09802e-70
7.11488e-73
6.96274e-76
6.33417e-79
5.25827e-82
3.95309e-85
2.66468e-88
1.58613e-91
8.11108e-95
3.33096e-98
1.99636e-100
1.90424e-100
1.00091e-100
2.69958e-102
7.20596e-102
2.14583e-101
4.95092e-101
9.49451e-101
1.53358e-100
2.18085e-100
2.7836e-100
3.22799e-100
3.47606e-100
3.47782e-100
3.32335e-100
2.65335e-100
2.50096e-100
1.7238e-103
2.61523e-103
3.28479e-103
3.47129e-103
3.27115e-103
2.79035e-103
2.12471e-103
1.46489e-103
8.75934e-104
4.3865e-104
5.16204e-104
8.38019e-102
1.5943e-101
1.60633e-100
4.07311e-97
9.41344e-94
1.96479e-90
3.71181e-87
6.35818e-84
9.8898e-81
1.39845e-77
1.79997e-74
2.35029e-71
3.00248e-68
3.41252e-65
3.48592e-62
3.22465e-59
2.72193e-56
2.17955e-53
1.63229e-50
1.05883e-47
5.69913e-45
2.51136e-42
8.87879e-40
2.45126e-37
5.09978e-35
8.16782e-33
1.47756e-30
1.78183e-29
3.44827e-29
3.17897e-29
7.15461e-30
4.12042e-34
1.60207e-37
1.88658e-40
2.08153e-43
2.03399e-46
1.8737e-49
1.44236e-52
1.1674e-55
1.07199e-58
1.08447e-61
1.45923e-63
2.11526e-66
2.36374e-69
2.43953e-72
2.28843e-75
1.93701e-78
1.4659e-81
9.78346e-85
5.62059e-88
2.63716e-91
1.24165e-94
7.66712e-98
9.92578e-101
2.69958e-102
1.47318e-102
8.00817e-104
1.38407e-104
3.00785e-104
5.70201e-104
9.09699e-104
1.27984e-103
1.61764e-103
1.8623e-103
1.99767e-103
1.99571e-103
1.90897e-103
1.52008e-103
1.40668e-103
1.08e-106
1.68046e-106
2.12251e-106
2.24555e-106
2.12291e-106
1.8227e-106
1.40025e-106
9.75623e-107
6.07188e-107
3.49577e-105
2.5702e-104
5.16204e-104
5.5711e-101
1.61438e-97
4.18817e-94
9.75839e-91
2.04711e-87
3.87346e-84
6.61958e-81
1.02271e-77
1.42942e-74
1.80808e-71
2.07364e-68
2.53843e-65
2.84753e-62
2.8265e-59
2.5059e-56
1.99839e-53
1.44667e-50
1.01321e-47
6.33019e-45
3.31635e-42
1.41636e-39
4.84577e-37
1.29311e-34
2.59876e-32
4.06452e-30
7.15199e-28
7.97045e-27
1.49139e-26
1.37822e-26
3.0943e-27
1.79359e-31
8.00517e-35
1.13809e-37
1.56692e-40
1.95002e-43
2.03399e-46
1.8737e-49
1.84969e-52
2.0127e-55
2.56995e-58
4.51015e-60
6.18214e-63
7.16241e-66
7.62519e-69
7.28509e-72
6.19483e-75
4.6294e-78
2.973e-81
1.56424e-84
8.08385e-88
5.53402e-91
3.45489e-94
1.96258e-97
1.01754e-100
7.88824e-104
1.38407e-104
7.52397e-105
5.2064e-107
3.13625e-107
5.76752e-107
8.01347e-107
1.0012e-106
1.14244e-106
1.2188e-106
1.21394e-106
1.16095e-106
9.21292e-107
8.37465e-107
7.11552e-110
1.13281e-109
1.44059e-109
1.5275e-109
1.44996e-109
1.25365e-109
9.24759e-110
1.49338e-109
3.39057e-107
6.07188e-107
3.33695e-105
1.29108e-101
4.3333e-98
1.28374e-94
3.39679e-91
8.05171e-88
1.71339e-84
3.27772e-81
5.64178e-78
8.74123e-75
1.21923e-71
1.53071e-68
1.729e-65
1.77106e-62
2.00359e-59
1.96612e-56
1.69391e-53
1.29256e-50
8.80337e-48
5.47374e-45
3.22982e-42
1.64224e-39
6.82457e-37
2.26433e-34
5.85134e-32
1.13782e-29
1.74567e-27
2.98085e-25
3.04183e-24
5.48684e-24
5.08134e-24
1.13407e-24
6.70501e-29
3.45481e-32
6.04658e-35
1.06165e-37
1.56692e-40
1.95002e-43
2.26911e-46
2.74431e-49
3.55483e-52
6.71941e-54
1.17117e-56
1.5696e-59
1.91117e-62
2.06985e-65
1.97985e-68
1.65366e-71
1.18068e-74
6.8781e-78
4.09604e-81