/*--------------------------------*- C++ -*----------------------------------*\
| =========                 |                                                 |
| \\      /  F ield         | OpenFOAM: The Open Source CFD Toolbox           |
|  \\    /   O peration     | Version:  2412                                  |
|   \\  /    A nd           | Website:  www.openfoam.com                      |
|    \\/     M anipulation  |                                                 |
\*---------------------------------------------------------------------------*/
FoamFile
{
    version     2.0;
    format      ascii;
    arch        "LSB;label=32;scalar=64";
    class       volScalarField;
    location    "0.75";
    object      p;
}
// * * * * * * * * * * * * * * * * * * * * * * * * * * * * * * * * * * * * * //

dimensions      [1 -1 -2 0 0 0 0];

internalField   nonuniform List<scalar> 
6400
(
13572.1
13572.1
13572.1
13572.1
13572.1
13572.1
13572.1
13572.1
13572.1
13572.1
13572.1
13572.1
13572.1
13572.1
13572.1
13572.1
13572.1
13572.1
13572.1
13572.1
13572.1
13572.1
13572.1
13572.1
13572.1
13572.1
13572.1
13572.1
13572.1
13572.1
13572.1
13572.1
13572.1
13572.1
13572.1
13572.1
13572.1
13572.1
13572.1
13572.1
13572.1
13572.1
13572.1
13572.1
13572.1
13572.1
13572.1
13572.1
13572.1
13572.1
13572.1
13572.1
13572.1
13572.1
13572.1
13572.1
13572.1
13572.1
13572.1
13572.1
13572.1
13572.1
13572.1
13572.1
13572.1
13572.1
13572.1
13572.1
13572.1
13572.1
13572.1
13572.1
13572.1
13572.1
13572.1
13572.1
13572.1
13572.1
13572.1
13572.1
12875.6
12875.6
12875.6
12875.6
12875.6
12875.6
12875.6
12875.6
12875.6
12875.6
12875.6
12875.6
12875.6
12875.6
12875.6
12875.6
12875.6
12875.6
12875.6
12875.6
12875.6
12875.6
12875.6
12875.6
12875.6
12875.6
12875.6
12875.6
12875.6
12875.6
12875.6
12875.6
12875.6
12875.6
12875.6
12875.6
12875.6
12875.6
12875.6
12875.6
12875.6
12875.6
12875.6
12875.6
12875.6
12875.6
12875.6
12875.6
12875.6
12875.6
12875.6
12875.6
12875.6
12875.6
12875.6
12875.6
12875.6
12875.6
12875.6
12875.6
12875.6
12875.6
12875.6
12875.6
12875.6
12875.6
12875.6
12875.6
12875.6
12875.6
12875.6
12875.6
12875.6
12875.6
12875.6
12875.6
12875.6
12875.6
12875.6
12875.6
12179.1
12179.1
12179.1
12179.1
12179.1
12179.1
12179.1
12179.1
12179.1
12179.1
12179.1
12179.1
12179.1
12179.1
12179.1
12179.1
12179.1
12179.1
12179.1
12179.1
12179.1
12179.1
12179.1
12179.1
12179.1
12179.1
12179.1
12179.1
12179.1
12179.1
12179.1
12179.1
12179.1
12179.1
12179.1
12179.1
12179.1
12179.1
12179.1
12179.1
12179.1
12179.1
12179.1
12179.1
12179.1
12179.1
12179.1
12179.1
12179.1
12179.1
12179.1
12179.1
12179.1
12179.1
12179.1
12179.1
12179.1
12179.1
12179.1
12179.1
12179.1
12179.1
12179.1
12179.1
12179.1
12179.1
12179.1
12179.1
12179.1
12179.1
12179.1
12179.1
12179.1
12179.1
12179.1
12179.1
12179.1
12179.1
12179.1
12179.1
11482.6
11482.6
11482.6
11482.6
11482.6
11482.6
11482.6
11482.6
11482.6
11482.6
11482.6
11482.6
11482.6
11482.6
11482.6
11482.6
11482.6
11482.6
11482.6
11482.6
11482.6
11482.6
11482.6
11482.6
11482.6
11482.6
11482.6
11482.6
11482.6
11482.6
11482.6
11482.6
11482.6
11482.6
11482.6
11482.6
11482.6
11482.6
11482.6
11482.6
11482.6
11482.6
11482.6
11482.6
11482.6
11482.6
11482.6
11482.6
11482.6
11482.6
11482.6
11482.6
11482.6
11482.6
11482.6
11482.6
11482.6
11482.6
11482.6
11482.6
11482.6
11482.6
11482.6
11482.6
11482.6
11482.6
11482.6
11482.6
11482.6
11482.6
11482.6
11482.6
11482.6
11482.6
11482.6
11482.6
11482.6
11482.6
11482.6
11482.6
10786.1
10786.1
10786.1
10786.1
10786.1
10786.1
10786.1
10786.1
10786.1
10786.1
10786.1
10786.1
10786.1
10786.1
10786.1
10786.1
10786.1
10786.1
10786.1
10786.1
10786.1
10786.1
10786.1
10786.1
10786.1
10786.1
10786.1
10786.1
10786.1
10786.1
10786.1
10786.1
10786.1
10786.1
10786.1
10786.1
10786.1
10786.1
10786.1
10786.1
10786.1
10786.1
10786.1
10786.1
10786.1
10786.1
10786.1
10786.1
10786.1
10786.1
10786.1
10786.1
10786.1
10786.1
10786.1
10786.1
10786.1
10786.1
10786.1
10786.1
10786.1
10786.1
10786.1
10786.1
10786.1
10786.1
10786.1
10786.1
10786.1
10786.1
10786.1
10786.1
10786.1
10786.1
10786.1
10786.1
10786.1
10786.1
10786.1
10786.1
10089.6
10089.6
10089.6
10089.6
10089.6
10089.6
10089.6
10089.6
10089.6
10089.6
10089.6
10089.6
10089.6
10089.6
10089.6
10089.6
10089.6
10089.6
10089.6
10089.6
10089.6
10089.6
10089.6
10089.6
10089.6
10089.6
10089.6
10089.6
10089.6
10089.6
10089.6
10089.6
10089.6
10089.6
10089.6
10089.6
10089.6
10089.6
10089.6
10089.6
10089.6
10089.6
10089.6
10089.6
10089.6
10089.6
10089.6
10089.6
10089.6
10089.6
10089.6
10089.6
10089.6
10089.6
10089.6
10089.6
10089.6
10089.6
10089.6
10089.6
10089.6
10089.6
10089.6
10089.6
10089.6
10089.6
10089.6
10089.6
10089.6
10089.6
10089.6
10089.6
10089.6
10089.6
10089.6
10089.6
10089.6
10089.6
10089.6
10089.6
9393.07
9393.07
9393.07
9393.07
9393.07
9393.07
9393.07
9393.07
9393.07
9393.07
9393.07
9393.07
9393.07
9393.07
9393.07
9393.07
9393.07
9393.07
9393.07
9393.07
9393.07
9393.07
9393.08
9393.08
9393.08
9393.08
9393.08
9393.08
9393.08
9393.08
9393.08
9393.08
9393.08
9393.08
9393.08
9393.08
9393.08
9393.08
9393.08
9393.08
9393.08
9393.08
9393.08
9393.08
9393.08
9393.08
9393.08
9393.08
9393.08
9393.08
9393.08
9393.08
9393.08
9393.08
9393.08
9393.08
9393.08
9393.08
9393.08
9393.08
9393.08
9393.08
9393.08
9393.08
9393.08
9393.08
9393.08
9393.08
9393.07
9393.07
9393.07
9393.07
9393.07
9393.07
9393.07
9393.07
9393.07
9393.07
9393.07
9393.07
8696.56
8696.56
8696.56
8696.56
8696.56
8696.56
8696.56
8696.56
8696.56
8696.56
8696.56
8696.56
8696.56
8696.56
8696.56
8696.56
8696.56
8696.56
8696.57
8696.57
8696.57
8696.57
8696.57
8696.57
8696.57
8696.57
8696.57
8696.57
8696.57
8696.57
8696.57
8696.57
8696.57
8696.57
8696.57
8696.57
8696.57
8696.57
8696.57
8696.57
8696.57
8696.57
8696.57
8696.57
8696.57
8696.57
8696.57
8696.57
8696.57
8696.57
8696.57
8696.57
8696.57
8696.57
8696.57
8696.57
8696.57
8696.57
8696.57
8696.57
8696.57
8696.57
8696.57
8696.57
8696.57
8696.57
8696.57
8696.57
8696.57
8696.57
8696.57
8696.56
8696.56
8696.56
8696.56
8696.56
8696.56
8696.56
8696.56
8696.56
8000.05
8000.05
8000.05
8000.05
8000.05
8000.05
8000.05
8000.05
8000.05
8000.05
8000.05
8000.05
8000.05
8000.05
8000.05
8000.06
8000.06
8000.06
8000.06
8000.06
8000.06
8000.06
8000.06
8000.06
8000.06
8000.06
8000.06
8000.06
8000.06
8000.06
8000.06
8000.06
8000.06
8000.06
8000.06
8000.06
8000.06
8000.06
8000.06
8000.06
8000.06
8000.06
8000.06
8000.06
8000.06
8000.06
8000.06
8000.06
8000.06
8000.06
8000.06
8000.06
8000.06
8000.06
8000.06
8000.06
8000.06
8000.06
8000.06
8000.06
8000.06
8000.06
8000.06
8000.06
8000.06
8000.06
8000.06
8000.06
8000.06
8000.06
8000.06
8000.06
8000.06
8000.06
8000.06
8000.05
8000.05
8000.05
8000.05
8000.05
7303.54
7303.54
7303.54
7303.54
7303.54
7303.54
7303.54
7303.54
7303.54
7303.54
7303.54
7303.54
7303.55
7303.55
7303.55
7303.55
7303.55
7303.55
7303.55
7303.55
7303.55
7303.55
7303.55
7303.55
7303.55
7303.55
7303.55
7303.55
7303.55
7303.55
7303.55
7303.55
7303.55
7303.55
7303.55
7303.55
7303.55
7303.55
7303.55
7303.55
7303.55
7303.55
7303.55
7303.55
7303.55
7303.55
7303.55
7303.55
7303.55
7303.55
7303.55
7303.55
7303.55
7303.55
7303.55
7303.55
7303.55
7303.55
7303.55
7303.55
7303.55
7303.55
7303.55
7303.55
7303.55
7303.55
7303.55
7303.55
7303.55
7303.55
7303.55
7303.55
7303.55
7303.55
7303.55
7303.55
7303.55
7303.55
7303.55
7303.55
6607.03
6607.03
6607.03
6607.03
6607.03
6607.03
6607.03
6607.03
6607.04
6607.04
6607.04
6607.04
6607.04
6607.04
6607.04
6607.04
6607.04
6607.04
6607.04
6607.04
6607.04
6607.04
6607.04
6607.04
6607.04
6607.04
6607.04
6607.04
6607.04
6607.04
6607.04
6607.04
6607.04
6607.04
6607.04
6607.04
6607.04
6607.04
6607.04
6607.04
6607.04
6607.04
6607.04
6607.04
6607.04
6607.04
6607.04
6607.04
6607.04
6607.04
6607.04
6607.04
6607.04
6607.04
6607.04
6607.04
6607.04
6607.04
6607.04
6607.04
6607.04
6607.04
6607.04
6607.04
6607.04
6607.04
6607.04
6607.04
6607.04
6607.04
6607.04
6607.04
6607.04
6607.04
6607.04
6607.04
6607.04
6607.04
6607.04
6607.04
5910.52
5910.52
5910.52
5910.53
5910.53
5910.53
5910.53
5910.53
5910.53
5910.53
5910.53
5910.53
5910.53
5910.53
5910.53
5910.53
5910.53
5910.53
5910.53
5910.53
5910.53
5910.53
5910.53
5910.53
5910.53
5910.53
5910.53
5910.53
5910.53
5910.53
5910.53
5910.53
5910.53
5910.53
5910.53
5910.53
5910.53
5910.53
5910.53
5910.53
5910.53
5910.53
5910.53
5910.53
5910.53
5910.53
5910.53
5910.53
5910.53
5910.53
5910.53
5910.53
5910.53
5910.53
5910.53
5910.53
5910.53
5910.53
5910.53
5910.53
5910.53
5910.53
5910.53
5910.53
5910.53
5910.53
5910.53
5910.53
5910.53
5910.53
5910.53
5910.53
5910.53
5910.53
5910.53
5910.53
5910.53
5910.53
5910.53
5910.53
5214.02
5214.02
5214.02
5214.02
5214.02
5214.02
5214.02
5214.02
5214.02
5214.02
5214.02
5214.02
5214.02
5214.02
5214.02
5214.02
5214.02
5214.02
5214.02
5214.02
5214.02
5214.02
5214.02
5214.02
5214.02
5214.02
5214.02
5214.02
5214.02
5214.02
5214.02
5214.02
5214.02
5214.02
5214.02
5214.02
5214.02
5214.02
5214.02
5214.02
5214.02
5214.02
5214.02
5214.02
5214.02
5214.02
5214.02
5214.02
5214.02
5214.02
5214.02
5214.02
5214.02
5214.02
5214.02
5214.02
5214.02
5214.02
5214.02
5214.02
5214.02
5214.02
5214.02
5214.02
5214.02
5214.02
5214.02
5214.02
5214.02
5214.02
5214.02
5214.02
5214.02
5214.02
5214.02
5214.02
5214.02
5214.02
5214.02
5214.02
4517.51
4517.51
4517.51
4517.51
4517.51
4517.51
4517.51
4517.51
4517.51
4517.51
4517.51
4517.51
4517.51
4517.51
4517.51
4517.51
4517.51
4517.51
4517.51
4517.51
4517.51
4517.51
4517.51
4517.51
4517.51
4517.51
4517.51
4517.51
4517.51
4517.51
4517.51
4517.51
4517.51
4517.51
4517.51
4517.51
4517.51
4517.51
4517.51
4517.51
4517.51
4517.51
4517.51
4517.51
4517.51
4517.51
4517.51
4517.51
4517.51
4517.51
4517.51
4517.51
4517.51
4517.51
4517.51
4517.51
4517.51
4517.51
4517.51
4517.51
4517.51
4517.51
4517.51
4517.51
4517.51
4517.51
4517.51
4517.51
4517.51
4517.51
4517.51
4517.51
4517.51
4517.51
4517.51
4517.51
4517.51
4517.51
4517.51
4517.51
3821
3821
3821
3821
3821
3821
3821
3821
3821
3821
3821
3821
3821
3821
3821
3821
3821
3821
3821
3821
3821
3821
3821
3821
3821
3821
3821
3821
3821
3821
3821
3821
3821
3821
3821
3821
3821
3821
3821
3821
3821
3821
3821
3821
3821
3821
3821
3821
3821
3821
3821
3821
3821
3821
3821
3821
3821
3821
3821
3821
3821
3821
3821
3821
3821
3821
3821
3821
3821
3821
3821
3821
3821
3821
3821
3821
3821
3821
3821
3821
3124.49
3124.49
3124.49
3124.49
3124.49
3124.49
3124.49
3124.49
3124.49
3124.49
3124.49
3124.49
3124.49
3124.49
3124.49
3124.49
3124.49
3124.49
3124.49
3124.49
3124.49
3124.49
3124.49
3124.49
3124.49
3124.49
3124.49
3124.49
3124.49
3124.49
3124.49
3124.49
3124.49
3124.49
3124.49
3124.49
3124.49
3124.49
3124.49
3124.49
3124.49
3124.49
3124.49
3124.49
3124.49
3124.49
3124.49
3124.49
3124.49
3124.49
3124.49
3124.49
3124.49
3124.49
3124.49
3124.49
3124.49
3124.49
3124.49
3124.49
3124.49
3124.49
3124.49
3124.49
3124.49
3124.49
3124.49
3124.49
3124.49
3124.49
3124.49
3124.49
3124.49
3124.49
3124.49
3124.49
3124.49
3124.49
3124.49
3124.49
2427.98
2427.98
2427.98
2427.98
2427.98
2427.98
2427.98
2427.98
2427.98
2427.98
2427.98
2427.98
2427.98
2427.98
2427.98
2427.98
2427.98
2427.98
2427.98
2427.98
2427.98
2427.98
2427.98
2427.98
2427.98
2427.98
2427.98
2427.98
2427.98
2427.98
2427.98
2427.98
2427.98
2427.98
2427.98
2427.98
2427.98
2427.98
2427.98
2427.98
2427.98
2427.98
2427.98
2427.98
2427.98
2427.98
2427.98
2427.98
2427.98
2427.98
2427.98
2427.98
2427.98
2427.98
2427.98
2427.98
2427.98
2427.98
2427.98
2427.98
2427.98
2427.98
2427.98
2427.98
2427.98
2427.98
2427.98
2427.98
2427.98
2427.98
2427.98
2427.98
2427.98
2427.98
2427.98
2427.98
2427.98
2427.98
2427.98
2427.98
1731.47
1731.47
1731.47
1731.47
1731.47
1731.47
1731.47
1731.47
1731.47
1731.47
1731.47
1731.47
1731.47
1731.47
1731.47
1731.47
1731.47
1731.47
1731.47
1731.47
1731.47
1731.47
1731.47
1731.47
1731.47
1731.47
1731.47
1731.47
1731.47
1731.47
1731.47
1731.47
1731.47
1731.47
1731.47
1731.47
1731.47
1731.47
1731.47
1731.47
1731.47
1731.47
1731.47
1731.47
1731.47
1731.47
1731.47
1731.47
1731.47
1731.47
1731.47
1731.47
1731.47
1731.47
1731.47
1731.47
1731.47
1731.47
1731.47
1731.47
1731.47
1731.47
1731.47
1731.47
1731.47
1731.47
1731.47
1731.47
1731.47
1731.47
1731.47
1731.47
1731.47
1731.47
1731.47
1731.47
1731.47
1731.47
1731.47
1731.47
1034.96
1034.96
1034.96
1034.96
1034.96
1034.96
1034.96
1034.96
1034.96
1034.96
1034.96
1034.96
1034.96
1034.96
1034.96
1034.96
1034.96
1034.96
1034.96
1034.96
1034.96
1034.96
1034.96
1034.96
1034.96
1034.96
1034.96
1034.96
1034.96
1034.96
1034.96
1034.96
1034.96
1034.96
1034.96
1034.96
1034.96
1034.96
1034.96
1034.96
1034.96
1034.96
1034.96
1034.96
1034.96
1034.96
1034.96
1034.96
1034.96
1034.96
1034.96
1034.96
1034.96
1034.96
1034.96
1034.96
1034.96
1034.96
1034.96
1034.96
1034.96
1034.96
1034.96
1034.96
1034.96
1034.96
1034.96
1034.96
1034.96
1034.96
1034.96
1034.96
1034.96
1034.96
1034.96
1034.96
1034.96
1034.96
1034.96
1034.96
338.449
338.45
338.45
338.45
338.449
338.449
338.449
338.449
338.449
338.449
338.45
338.45
338.45
338.45
338.45
338.45
338.45
338.45
338.45
338.45
338.45
338.45
338.45
338.451
338.451
338.451
338.451
338.451
338.451
338.451
338.451
338.451
338.451
338.451
338.451
338.451
338.451
338.451
338.451
338.451
338.451
338.451
338.452
338.452
338.452
338.452
338.452
338.451
338.451
338.451
338.451
338.451
338.451
338.451
338.451
338.451
338.451
338.451
338.451
338.451
338.451
338.451
338.451
338.451
338.451
338.451
338.451
338.45
338.45
338.45
338.45
338.45
338.45
338.45
338.451
338.451
338.451
338.451
338.451
338.451
-10.0509
-10.0509
-10.0508
-10.0508
-10.0508
-10.0508
-10.0507
-10.0507
-10.0507
-10.0506
-10.0506
-10.0505
-10.0504
-10.0504
-10.0503
-10.0502
-10.0502
-10.0501
-10.05
-10.0499
-10.0498
-10.0497
-10.0496
-10.0495
-10.0494
-10.0493
-10.0492
-10.0491
-10.049
-10.049
-10.0489
-10.0488
-10.0487
-10.0486
-10.0486
-10.0485
-10.0484
-10.0484
-10.0484
-10.0483
-10.0483
-10.0483
-10.0483
-10.0483
-10.0483
-10.0484
-10.0484
-10.0484
-10.0485
-10.0485
-10.0486
-10.0486
-10.0487
-10.0488
-10.0488
-10.0489
-10.049
-10.049
-10.0491
-10.0492
-10.0492
-10.0493
-10.0493
-10.0493
-10.0494
-10.0494
-10.0494
-10.0495
-10.0495
-10.0495
-10.0495
-10.0496
-10.0496
-10.0496
-10.0496
-10.0496
-10.0497
-10.0497
-10.0497
-10.0497
-10.5414
-10.5414
-10.5414
-10.5414
-10.5414
-10.5413
-10.5413
-10.5413
-10.5412
-10.5412
-10.5411
-10.541
-10.541
-10.5409
-10.5408
-10.5408
-10.5407
-10.5406
-10.5405
-10.5404
-10.5403
-10.5402
-10.5401
-10.54
-10.5399
-10.5398
-10.5397
-10.5396
-10.5396
-10.5395
-10.5394
-10.5393
-10.5392
-10.5391
-10.5391
-10.539
-10.539
-10.5389
-10.5389
-10.5388
-10.5388
-10.5388
-10.5388
-10.5388
-10.5388
-10.5389
-10.5389
-10.5389
-10.539
-10.539
-10.5391
-10.5391
-10.5392
-10.5393
-10.5393
-10.5394
-10.5395
-10.5395
-10.5396
-10.5397
-10.5397
-10.5398
-10.5398
-10.5399
-10.5399
-10.54
-10.54
-10.54
-10.5401
-10.5401
-10.5401
-10.5402
-10.5402
-10.5402
-10.5402
-10.5402
-10.5402
-10.5402
-10.5403
-10.5403
-11.0319
-11.0319
-11.0319
-11.0319
-11.0319
-11.0318
-11.0318
-11.0318
-11.0317
-11.0317
-11.0316
-11.0316
-11.0315
-11.0314
-11.0313
-11.0313
-11.0312
-11.0311
-11.031
-11.0309
-11.0308
-11.0307
-11.0306
-11.0305
-11.0304
-11.0303
-11.0302
-11.0301
-11.03
-11.03
-11.0299
-11.0298
-11.0297
-11.0296
-11.0296
-11.0295
-11.0294
-11.0294
-11.0294
-11.0293
-11.0293
-11.0293
-11.0293
-11.0293
-11.0293
-11.0294
-11.0294
-11.0294
-11.0295
-11.0295
-11.0296
-11.0296
-11.0297
-11.0298
-11.0298
-11.0299
-11.03
-11.03
-11.0301
-11.0302
-11.0302
-11.0303
-11.0303
-11.0304
-11.0304
-11.0305
-11.0305
-11.0305
-11.0306
-11.0306
-11.0306
-11.0307
-11.0307
-11.0307
-11.0307
-11.0307
-11.0307
-11.0308
-11.0308
-11.0308
-11.5224
-11.5224
-11.5224
-11.5224
-11.5224
-11.5223
-11.5223
-11.5223
-11.5222
-11.5222
-11.5221
-11.5221
-11.522
-11.5219
-11.5219
-11.5218
-11.5217
-11.5216
-11.5215
-11.5214
-11.5213
-11.5212
-11.5211
-11.521
-11.5209
-11.5208
-11.5207
-11.5206
-11.5205
-11.5204
-11.5203
-11.5203
-11.5202
-11.5201
-11.52
-11.52
-11.5199
-11.5199
-11.5198
-11.5198
-11.5198
-11.5198
-11.5198
-11.5198
-11.5198
-11.5198
-11.5199
-11.5199
-11.5199
-11.52
-11.5201
-11.5201
-11.5202
-11.5202
-11.5203
-11.5204
-11.5205
-11.5205
-11.5206
-11.5207
-11.5207
-11.5208
-11.5208
-11.5209
-11.5209
-11.521
-11.521
-11.5211
-11.5211
-11.5211
-11.5211
-11.5212
-11.5212
-11.5212
-11.5212
-11.5212
-11.5213
-11.5213
-11.5213
-11.5213
-12.0129
-12.0129
-12.0129
-12.0129
-12.0129
-12.0129
-12.0128
-12.0128
-12.0127
-12.0127
-12.0126
-12.0126
-12.0125
-12.0124
-12.0124
-12.0123
-12.0122
-12.0121
-12.012
-12.0119
-12.0118
-12.0117
-12.0116
-12.0115
-12.0114
-12.0113
-12.0112
-12.0111
-12.011
-12.0109
-12.0108
-12.0107
-12.0106
-12.0106
-12.0105
-12.0104
-12.0104
-12.0103
-12.0103
-12.0102
-12.0102
-12.0102
-12.0102
-12.0102
-12.0103
-12.0103
-12.0103
-12.0104
-12.0104
-12.0105
-12.0105
-12.0106
-12.0107
-12.0107
-12.0108
-12.0109
-12.0109
-12.011
-12.0111
-12.0111
-12.0112
-12.0113
-12.0113
-12.0114
-12.0114
-12.0115
-12.0115
-12.0116
-12.0116
-12.0116
-12.0117
-12.0117
-12.0117
-12.0117
-12.0117
-12.0118
-12.0118
-12.0118
-12.0118
-12.0118
-12.5035
-12.5035
-12.5034
-12.5034
-12.5034
-12.5034
-12.5033
-12.5033
-12.5033
-12.5032
-12.5031
-12.5031
-12.503
-12.5029
-12.5029
-12.5028
-12.5027
-12.5026
-12.5025
-12.5024
-12.5023
-12.5022
-12.5021
-12.502
-12.5019
-12.5018
-12.5017
-12.5016
-12.5015
-12.5014
-12.5013
-12.5012
-12.5011
-12.501
-12.5009
-12.5009
-12.5008
-12.5008
-12.5007
-12.5007
-12.5007
-12.5007
-12.5007
-12.5007
-12.5007
-12.5007
-12.5008
-12.5008
-12.5009
-12.5009
-12.501
-12.501
-12.5011
-12.5012
-12.5013
-12.5013
-12.5014
-12.5015
-12.5016
-12.5016
-12.5017
-12.5018
-12.5018
-12.5019
-12.5019
-12.502
-12.502
-12.5021
-12.5021
-12.5022
-12.5022
-12.5022
-12.5022
-12.5023
-12.5023
-12.5023
-12.5023
-12.5023
-12.5023
-12.5023
-12.994
-12.994
-12.994
-12.9939
-12.9939
-12.9939
-12.9939
-12.9938
-12.9938
-12.9937
-12.9937
-12.9936
-12.9935
-12.9935
-12.9934
-12.9933
-12.9932
-12.9931
-12.993
-12.9929
-12.9928
-12.9927
-12.9926
-12.9925
-12.9924
-12.9923
-12.9921
-12.992
-12.9919
-12.9918
-12.9917
-12.9916
-12.9915
-12.9914
-12.9914
-12.9913
-12.9912
-12.9912
-12.9911
-12.9911
-12.9911
-12.9911
-12.9911
-12.9911
-12.9911
-12.9912
-12.9912
-12.9912
-12.9913
-12.9914
-12.9914
-12.9915
-12.9916
-12.9917
-12.9917
-12.9918
-12.9919
-12.992
-12.9921
-12.9921
-12.9922
-12.9923
-12.9923
-12.9924
-12.9925
-12.9925
-12.9926
-12.9926
-12.9926
-12.9927
-12.9927
-12.9927
-12.9928
-12.9928
-12.9928
-12.9928
-12.9928
-12.9928
-12.9928
-12.9928
-13.4845
-13.4845
-13.4845
-13.4845
-13.4845
-13.4844
-13.4844
-13.4843
-13.4843
-13.4842
-13.4842
-13.4841
-13.4841
-13.484
-13.4839
-13.4838
-13.4837
-13.4836
-13.4835
-13.4834
-13.4833
-13.4832
-13.4831
-13.483
-13.4828
-13.4827
-13.4826
-13.4825
-13.4824
-13.4823
-13.4821
-13.482
-13.4819
-13.4819
-13.4818
-13.4817
-13.4816
-13.4816
-13.4816
-13.4815
-13.4815
-13.4815
-13.4815
-13.4815
-13.4815
-13.4816
-13.4816
-13.4817
-13.4817
-13.4818
-13.4819
-13.4819
-13.482
-13.4821
-13.4822
-13.4823
-13.4824
-13.4825
-13.4825
-13.4826
-13.4827
-13.4828
-13.4828
-13.4829
-13.483
-13.483
-13.4831
-13.4831
-13.4832
-13.4832
-13.4832
-13.4833
-13.4833
-13.4833
-13.4833
-13.4834
-13.4834
-13.4834
-13.4834
-13.4834
-13.975
-13.975
-13.975
-13.975
-13.975
-13.975
-13.9749
-13.9749
-13.9748
-13.9748
-13.9747
-13.9746
-13.9746
-13.9745
-13.9744
-13.9743
-13.9742
-13.9741
-13.974
-13.9739
-13.9738
-13.9737
-13.9736
-13.9734
-13.9733
-13.9732
-13.9731
-13.9729
-13.9728
-13.9727
-13.9726
-13.9725
-13.9724
-13.9723
-13.9722
-13.9721
-13.9721
-13.972
-13.972
-13.9719
-13.9719
-13.9719
-13.9719
-13.9719
-13.972
-13.972
-13.972
-13.9721
-13.9722
-13.9722
-13.9723
-13.9724
-13.9725
-13.9726
-13.9727
-13.9727
-13.9728
-13.9729
-13.973
-13.9731
-13.9732
-13.9733
-13.9734
-13.9734
-13.9735
-13.9736
-13.9736
-13.9737
-13.9737
-13.9737
-13.9738
-13.9738
-13.9738
-13.9739
-13.9739
-13.9739
-13.9739
-13.9739
-13.9739
-13.9739
-14.4656
-14.4656
-14.4656
-14.4655
-14.4655
-14.4655
-14.4654
-14.4654
-14.4654
-14.4653
-14.4652
-14.4652
-14.4651
-14.465
-14.4649
-14.4648
-14.4647
-14.4646
-14.4645
-14.4644
-14.4643
-14.4642
-14.464
-14.4639
-14.4638
-14.4636
-14.4635
-14.4634
-14.4632
-14.4631
-14.463
-14.4629
-14.4628
-14.4627
-14.4626
-14.4625
-14.4625
-14.4624
-14.4624
-14.4623
-14.4623
-14.4623
-14.4623
-14.4623
-14.4624
-14.4624
-14.4625
-14.4625
-14.4626
-14.4627
-14.4627
-14.4628
-14.4629
-14.463
-14.4631
-14.4632
-14.4633
-14.4634
-14.4635
-14.4636
-14.4637
-14.4638
-14.4639
-14.4639
-14.464
-14.4641
-14.4641
-14.4642
-14.4642
-14.4643
-14.4643
-14.4644
-14.4644
-14.4644
-14.4644
-14.4644
-14.4645
-14.4645
-14.4645
-14.4645
-14.9561
-14.9561
-14.9561
-14.9561
-14.9561
-14.956
-14.956
-14.9559
-14.9559
-14.9558
-14.9558
-14.9557
-14.9556
-14.9555
-14.9555
-14.9554
-14.9553
-14.9551
-14.955
-14.9549
-14.9548
-14.9546
-14.9545
-14.9544
-14.9542
-14.9541
-14.954
-14.9538
-14.9537
-14.9536
-14.9534
-14.9533
-14.9532
-14.9531
-14.953
-14.9529
-14.9529
-14.9528
-14.9528
-14.9527
-14.9527
-14.9527
-14.9527
-14.9527
-14.9528
-14.9528
-14.9529
-14.9529
-14.953
-14.9531
-14.9532
-14.9533
-14.9534
-14.9535
-14.9536
-14.9537
-14.9538
-14.9539
-14.954
-14.9541
-14.9542
-14.9543
-14.9544
-14.9545
-14.9545
-14.9546
-14.9547
-14.9547
-14.9548
-14.9548
-14.9549
-14.9549
-14.9549
-14.955
-14.955
-14.955
-14.955
-14.955
-14.955
-14.955
-15.4467
-15.4466
-15.4466
-15.4466
-15.4466
-15.4466
-15.4465
-15.4465
-15.4464
-15.4464
-15.4463
-15.4462
-15.4462
-15.4461
-15.446
-15.4459
-15.4458
-15.4456
-15.4455
-15.4454
-15.4453
-15.4451
-15.445
-15.4448
-15.4447
-15.4446
-15.4444
-15.4443
-15.4441
-15.444
-15.4439
-15.4437
-15.4436
-15.4435
-15.4434
-15.4433
-15.4433
-15.4432
-15.4432
-15.4431
-15.4431
-15.4431
-15.4431
-15.4431
-15.4432
-15.4432
-15.4433
-15.4434
-15.4434
-15.4435
-15.4436
-15.4437
-15.4438
-15.4439
-15.444
-15.4441
-15.4443
-15.4444
-15.4445
-15.4446
-15.4447
-15.4448
-15.4449
-15.445
-15.4451
-15.4451
-15.4452
-15.4453
-15.4453
-15.4454
-15.4454
-15.4455
-15.4455
-15.4455
-15.4455
-15.4456
-15.4456
-15.4456
-15.4456
-15.4456
-15.9372
-15.9372
-15.9372
-15.9372
-15.9371
-15.9371
-15.9371
-15.937
-15.937
-15.9369
-15.9368
-15.9368
-15.9367
-15.9366
-15.9365
-15.9364
-15.9363
-15.9362
-15.936
-15.9359
-15.9358
-15.9356
-15.9355
-15.9353
-15.9352
-15.935
-15.9349
-15.9347
-15.9346
-15.9344
-15.9343
-15.9342
-15.934
-15.9339
-15.9338
-15.9337
-15.9337
-15.9336
-15.9336
-15.9335
-15.9335
-15.9335
-15.9335
-15.9336
-15.9336
-15.9337
-15.9337
-15.9338
-15.9339
-15.934
-15.9341
-15.9342
-15.9343
-15.9344
-15.9345
-15.9346
-15.9347
-15.9349
-15.935
-15.9351
-15.9352
-15.9353
-15.9354
-15.9355
-15.9356
-15.9357
-15.9358
-15.9358
-15.9359
-15.9359
-15.936
-15.936
-15.9361
-15.9361
-15.9361
-15.9361
-15.9361
-15.9362
-15.9362
-15.9362
-16.4278
-16.4277
-16.4277
-16.4277
-16.4277
-16.4277
-16.4276
-16.4276
-16.4275
-16.4275
-16.4274
-16.4273
-16.4272
-16.4271
-16.427
-16.4269
-16.4268
-16.4267
-16.4265
-16.4264
-16.4263
-16.4261
-16.4259
-16.4258
-16.4256
-16.4255
-16.4253
-16.4252
-16.425
-16.4249
-16.4247
-16.4246
-16.4245
-16.4243
-16.4242
-16.4241
-16.4241
-16.424
-16.424
-16.4239
-16.4239
-16.4239
-16.4239
-16.424
-16.424
-16.4241
-16.4241
-16.4242
-16.4243
-16.4244
-16.4245
-16.4246
-16.4247
-16.4249
-16.425
-16.4251
-16.4252
-16.4253
-16.4255
-16.4256
-16.4257
-16.4258
-16.4259
-16.426
-16.4261
-16.4262
-16.4263
-16.4264
-16.4264
-16.4265
-16.4265
-16.4266
-16.4266
-16.4267
-16.4267
-16.4267
-16.4267
-16.4267
-16.4267
-16.4267
-16.9183
-16.9183
-16.9183
-16.9183
-16.9182
-16.9182
-16.9182
-16.9181
-16.9181
-16.918
-16.9179
-16.9179
-16.9178
-16.9177
-16.9176
-16.9174
-16.9173
-16.9172
-16.9171
-16.9169
-16.9168
-16.9166
-16.9164
-16.9163
-16.9161
-16.9159
-16.9158
-16.9156
-16.9155
-16.9153
-16.9151
-16.915
-16.9149
-16.9148
-16.9146
-16.9146
-16.9145
-16.9144
-16.9144
-16.9143
-16.9143
-16.9143
-16.9143
-16.9144
-16.9144
-16.9145
-16.9146
-16.9147
-16.9148
-16.9149
-16.915
-16.9151
-16.9152
-16.9153
-16.9155
-16.9156
-16.9157
-16.9158
-16.916
-16.9161
-16.9162
-16.9163
-16.9165
-16.9166
-16.9167
-16.9168
-16.9168
-16.9169
-16.917
-16.9171
-16.9171
-16.9172
-16.9172
-16.9172
-16.9173
-16.9173
-16.9173
-16.9173
-16.9173
-16.9173
-17.4089
-17.4089
-17.4088
-17.4088
-17.4088
-17.4088
-17.4087
-17.4087
-17.4086
-17.4086
-17.4085
-17.4084
-17.4083
-17.4082
-17.4081
-17.408
-17.4078
-17.4077
-17.4076
-17.4074
-17.4073
-17.4071
-17.4069
-17.4068
-17.4066
-17.4064
-17.4062
-17.4061
-17.4059
-17.4057
-17.4056
-17.4054
-17.4053
-17.4052
-17.4051
-17.405
-17.4049
-17.4048
-17.4048
-17.4047
-17.4047
-17.4047
-17.4047
-17.4048
-17.4048
-17.4049
-17.405
-17.4051
-17.4052
-17.4053
-17.4054
-17.4056
-17.4057
-17.4058
-17.406
-17.4061
-17.4062
-17.4064
-17.4065
-17.4066
-17.4067
-17.4069
-17.407
-17.4071
-17.4072
-17.4073
-17.4074
-17.4075
-17.4076
-17.4076
-17.4077
-17.4077
-17.4078
-17.4078
-17.4078
-17.4079
-17.4079
-17.4079
-17.4079
-17.4079
-17.8994
-17.8994
-17.8994
-17.8994
-17.8994
-17.8993
-17.8993
-17.8992
-17.8992
-17.8991
-17.899
-17.8989
-17.8989
-17.8987
-17.8986
-17.8985
-17.8984
-17.8982
-17.8981
-17.8979
-17.8978
-17.8976
-17.8974
-17.8973
-17.8971
-17.8969
-17.8967
-17.8965
-17.8964
-17.8962
-17.896
-17.8959
-17.8957
-17.8956
-17.8955
-17.8954
-17.8953
-17.8952
-17.8951
-17.8951
-17.8951
-17.8951
-17.8951
-17.8952
-17.8953
-17.8953
-17.8954
-17.8955
-17.8957
-17.8958
-17.8959
-17.8961
-17.8962
-17.8963
-17.8965
-17.8966
-17.8967
-17.8969
-17.897
-17.8971
-17.8973
-17.8974
-17.8975
-17.8976
-17.8978
-17.8979
-17.898
-17.898
-17.8981
-17.8982
-17.8982
-17.8983
-17.8983
-17.8984
-17.8984
-17.8984
-17.8985
-17.8985
-17.8985
-17.8985
-18.39
-18.39
-18.39
-18.39
-18.3899
-18.3899
-18.3898
-18.3898
-18.3897
-18.3897
-18.3896
-18.3895
-18.3894
-18.3893
-18.3892
-18.389
-18.3889
-18.3888
-18.3886
-18.3885
-18.3883
-18.3881
-18.3879
-18.3878
-18.3876
-18.3874
-18.3872
-18.387
-18.3868
-18.3867
-18.3865
-18.3863
-18.3862
-18.386
-18.3859
-18.3857
-18.3856
-18.3856
-18.3855
-18.3855
-18.3855
-18.3855
-18.3855
-18.3856
-18.3857
-18.3858
-18.3859
-18.386
-18.3861
-18.3863
-18.3864
-18.3865
-18.3867
-18.3868
-18.387
-18.3871
-18.3873
-18.3874
-18.3875
-18.3877
-18.3878
-18.3879
-18.3881
-18.3882
-18.3883
-18.3884
-18.3885
-18.3886
-18.3887
-18.3888
-18.3888
-18.3889
-18.3889
-18.389
-18.389
-18.389
-18.389
-18.3891
-18.3891
-18.3891
-18.8806
-18.8806
-18.8805
-18.8805
-18.8805
-18.8805
-18.8804
-18.8804
-18.8803
-18.8802
-18.8801
-18.8801
-18.88
-18.8798
-18.8797
-18.8796
-18.8795
-18.8793
-18.8791
-18.879
-18.8788
-18.8786
-18.8785
-18.8783
-18.8781
-18.8779
-18.8777
-18.8775
-18.8773
-18.8771
-18.8769
-18.8767
-18.8766
-18.8764
-18.8763
-18.8761
-18.876
-18.8759
-18.8759
-18.8758
-18.8758
-18.8758
-18.8759
-18.876
-18.8761
-18.8762
-18.8763
-18.8764
-18.8766
-18.8767
-18.8769
-18.877
-18.8772
-18.8774
-18.8775
-18.8777
-18.8778
-18.878
-18.8781
-18.8782
-18.8784
-18.8785
-18.8786
-18.8788
-18.8789
-18.879
-18.8791
-18.8792
-18.8793
-18.8793
-18.8794
-18.8795
-18.8795
-18.8796
-18.8796
-18.8796
-18.8796
-18.8796
-18.8797
-18.8797
-19.3711
-19.3711
-19.3711
-19.3711
-19.3711
-19.371
-19.371
-19.3709
-19.3709
-19.3708
-19.3707
-19.3706
-19.3705
-19.3704
-19.3703
-19.3701
-19.37
-19.3699
-19.3697
-19.3695
-19.3694
-19.3692
-19.369
-19.3688
-19.3686
-19.3684
-19.3682
-19.368
-19.3678
-19.3676
-19.3674
-19.3672
-19.367
-19.3668
-19.3666
-19.3665
-19.3664
-19.3663
-19.3662
-19.3661
-19.3661
-19.3662
-19.3662
-19.3663
-19.3664
-19.3666
-19.3667
-19.3669
-19.367
-19.3672
-19.3674
-19.3676
-19.3677
-19.3679
-19.3681
-19.3682
-19.3684
-19.3685
-19.3687
-19.3688
-19.3689
-19.3691
-19.3692
-19.3693
-19.3694
-19.3696
-19.3697
-19.3698
-19.3698
-19.3699
-19.37
-19.37
-19.3701
-19.3701
-19.3702
-19.3702
-19.3702
-19.3702
-19.3703
-19.3703
-19.8617
-19.8617
-19.8617
-19.8617
-19.8616
-19.8616
-19.8616
-19.8615
-19.8614
-19.8614
-19.8613
-19.8612
-19.8611
-19.861
-19.8608
-19.8607
-19.8606
-19.8604
-19.8602
-19.8601
-19.8599
-19.8597
-19.8595
-19.8593
-19.8591
-19.8589
-19.8587
-19.8585
-19.8583
-19.8581
-19.8578
-19.8576
-19.8574
-19.8572
-19.857
-19.8568
-19.8567
-19.8566
-19.8565
-19.8564
-19.8564
-19.8565
-19.8565
-19.8567
-19.8568
-19.857
-19.8571
-19.8573
-19.8575
-19.8577
-19.8579
-19.8581
-19.8583
-19.8584
-19.8586
-19.8588
-19.8589
-19.8591
-19.8592
-19.8594
-19.8595
-19.8596
-19.8598
-19.8599
-19.86
-19.8601
-19.8602
-19.8603
-19.8604
-19.8605
-19.8606
-19.8606
-19.8607
-19.8607
-19.8608
-19.8608
-19.8608
-19.8608
-19.8609
-19.8609
-20.3523
-20.3523
-20.3523
-20.3522
-20.3522
-20.3522
-20.3521
-20.3521
-20.352
-20.3519
-20.3519
-20.3518
-20.3517
-20.3515
-20.3514
-20.3513
-20.3511
-20.351
-20.3508
-20.3506
-20.3505
-20.3503
-20.3501
-20.3499
-20.3497
-20.3495
-20.3493
-20.349
-20.3488
-20.3486
-20.3483
-20.3481
-20.3478
-20.3476
-20.3473
-20.3471
-20.347
-20.3468
-20.3467
-20.3467
-20.3467
-20.3467
-20.3468
-20.347
-20.3471
-20.3473
-20.3475
-20.3478
-20.348
-20.3482
-20.3484
-20.3486
-20.3488
-20.349
-20.3492
-20.3493
-20.3495
-20.3497
-20.3498
-20.35
-20.3501
-20.3502
-20.3504
-20.3505
-20.3506
-20.3507
-20.3508
-20.3509
-20.351
-20.3511
-20.3512
-20.3512
-20.3513
-20.3513
-20.3514
-20.3514
-20.3514
-20.3514
-20.3515
-20.3515
-20.8429
-20.8429
-20.8429
-20.8428
-20.8428
-20.8428
-20.8427
-20.8427
-20.8426
-20.8425
-20.8424
-20.8423
-20.8422
-20.8421
-20.842
-20.8418
-20.8417
-20.8415
-20.8414
-20.8412
-20.841
-20.8409
-20.8407
-20.8405
-20.8403
-20.84
-20.8398
-20.8396
-20.8393
-20.839
-20.8388
-20.8385
-20.8382
-20.8379
-20.8377
-20.8374
-20.8372
-20.837
-20.8369
-20.8369
-20.8369
-20.8369
-20.8371
-20.8372
-20.8374
-20.8377
-20.8379
-20.8382
-20.8384
-20.8387
-20.8389
-20.8392
-20.8394
-20.8396
-20.8398
-20.8399
-20.8401
-20.8403
-20.8404
-20.8406
-20.8407
-20.8408
-20.841
-20.8411
-20.8412
-20.8413
-20.8414
-20.8415
-20.8416
-20.8417
-20.8418
-20.8418
-20.8419
-20.8419
-20.842
-20.842
-20.842
-20.8421
-20.8421
-20.8421
-21.3335
-21.3335
-21.3334
-21.3334
-21.3334
-21.3333
-21.3333
-21.3332
-21.3332
-21.3331
-21.333
-21.3329
-21.3328
-21.3327
-21.3326
-21.3324
-21.3323
-21.3321
-21.332
-21.3318
-21.3316
-21.3314