/*--------------------------------*- C++ -*----------------------------------*\
| =========                 |                                                 |
| \\      /  F ield         | OpenFOAM: The Open Source CFD Toolbox           |
|  \\    /   O peration     | Version:  2412                                  |
|   \\  /    A nd           | Website:  www.openfoam.com                      |
|    \\/     M anipulation  |                                                 |
\*---------------------------------------------------------------------------*/
FoamFile
{
    version     2.0;
    format      ascii;
    arch        "LSB;label=32;scalar=64";
    class       volScalarField;
    location    "7.65";
    object      p_rgh;
}
// * * * * * * * * * * * * * * * * * * * * * * * * * * * * * * * * * * * * * //

dimensions      [1 -1 -2 0 0 0 0];

internalField   nonuniform List<scalar> 
6400
(
133460
133466
133479
133498
133522
133549
133580
133612
133645
133677
133706
133731
133751
133765
133771
133769
133758
133738
133708
133670
133623
133568
133505
133437
133363
133285
133204
133122
133040
132960
132882
132808
132740
132678
132623
132577
132539
132510
132492
132483
132485
132497
132519
132550
132590
132639
132696
132759
132828
132901
132978
133058
133138
133219
133298
133374
133447
133515
133577
133632
133681
133722
133755
133780
133796
133806
133808
133803
133793
133779
133760
133739
133717
133695
133673
133653
133636
133623
133614
133609
133454
133461
133474
133493
133518
133547
133579
133613
133647
133680
133711
133737
133758
133773
133780
133778
133767
133747
133718
133679
133631
133575
133512
133441
133366
133287
133205
133121
133038
132956
132877
132802
132733
132670
132614
132567
132529
132500
132481
132472
132474
132486
132509
132540
132581
132631
132688
132752
132822
132897
132975
133056
133138
133219
133300
133377
133451
133520
133583
133640
133689
133730
133763
133788
133805
133814
133815
133810
133799
133783
133763
133741
133718
133694
133672
133651
133633
133619
133609
133605
133441
133448
133462
133483
133510
133541
133576
133613
133650
133686
133719
133748
133772
133788
133797
133796
133786
133766
133736
133697
133647
133589
133524
133451
133373
133291
133206
133120
133034
132950
132868
132791
132719
132655
132597
132548
132509
132479
132460
132452
132454
132466
132489
132522
132564
132615
132674
132740
132812
132889
132970
133053
133137
133222
133304
133384
133461
133532
133597
133654
133705
133747
133780
133805
133821
133829
133829
133822
133809
133791
133769
133745
133719
133693
133668
133646
133626
133611
133600
133595
133420
133428
133444
133467
133497
133532
133571
133612
133654
133694
133732
133765
133792
133812
133823
133824
133815
133795
133765
133723
133672
133612
133543
133467
133385
133299
133209
133119
133029
132940
132855
132774
132699
132631
132572
132521
132480
132449
132429
132420
132422
132435
132459
132494
132538
132591
132653
132722
132797
132877
132962
133049
133137
133225
133312
133395
133475
133549
133616
133677
133728
133771
133805
133830
133845
133851
133849
133840
133824
133803
133777
133750
133720
133691
133663
133637
133615
133598
133586
133580
133391
133400
133419
133445
133479
133519
133564
133611
133659
133705
133749
133788
133820
133844
133858
133862
133854
133835
133803
133760
133706
133642
133569
133488
133401
133309
133214
133118
133022
132928
132837
132752
132672
132600
132537
132483
132440
132407
132386
132377
132380
132394
132419
132455
132502
132559
132624
132697
132777
132862
132951
133043
133137
133230
133322
133410
133494
133572
133644
133707
133761
133805
133840
133864
133878
133882
133877
133864
133844
133819
133789
133756
133721
133687
133654
133625
133599
133579
133565
133558
133351
133363
133385
133416
133455
133502
133554
133609
133665
133720
133771
133817
133856
133885
133904
133911
133905
133886
133853
133808
133750
133682
133603
133516
133422
133323
133220
133117
133013
132912
132815
132723
132638
132561
132493
132435
132389
132354
132332
132322
132325
132340
132368
132407
132457
132517
132587
132665
132751
132842
132938
133036
133136
133236
133335
133429
133519
133603
133679
133746
133803
133849
133884
133908
133920
133922
133913
133896
133871
133839
133802
133763
133722
133681
133643
133608
133578
133555
133538
133529
133300
133316
133341
133378
133424
133479
133540
133605
133672
133737
133799
133854
133901
133938
133962
133973
133969
133950
133916
133868
133806
133731
133646
133550
133448
133339
133228
133115
133002
132892
132787
132687
132595
132512
132439
132376
132326
132289
132266
132255
132259
132275
132305
132347
132401
132467
132542
132627
132719
132818
132921
133028
133136
133245
133351
133454
133551
133642
133723
133795
133855
133904
133940
133963
133973
133972
133958
133935
133903
133864
133819
133771
133722
133673
133628
133586
133551
133523
133503
133492
133237
133255
133285
133329
133385
133450
133523
133600
133680
133758
133832
133900
133957
134002
134033
134049
134048
134030
133994
133942
133874
133792
133697
133592
133479
133359
133236
133112
132988
132868
132752
132644
132543
132453
132373
132305
132251
132211
132186
132175
132179
132197
132230
132276
132335
132407
132489
132581
132681
132789
132902
133018
133137
133255
133371
133484
133591
133689
133778
133856
133920
133972
134009
134031
134039
134033
134013
133983
133942
133893
133839
133781
133721
133663
133608
133559
133516
133482
133458
133445
133159
133179
133216
133269
133335
133413
133500
133593
133689
133783
133873
133954
134025
134081
134120
134142
134144
134126
134088
134031
133956
133865
133760
133642
133515
133382
133246
133108
132971
132838
132711
132592
132482
132382
132294
132221
132162
132119
132092
132080
132085
132105
132141
132192
132257
132335
132426
132526
132637
132754
132878
133006
133137
133267
133395
133519
133637
133746
133843
133928
133999
134053
134092
134113
134118
134107
134080
134040
133989
133928
133861
133790
133718
133648
133582
133523
133472
133431
133402
133386
133061
133086
133130
133193
133272
133366
133470
133582
133698
133812
133921
134020
134106
134175
134225
134254
134260
134242
134201
134138
134054
133952
133834
133701
133559
133410
133257
133103
132951
132804
132663
132531
132409
132298
132202
132123
132059
132012
131982
131969
131975
131997
132037
132094
132166
132252
132351
132463
132584
132714
132851
132992
133136
133281
133423
133561
133692
133813
133921
134015
134092
134151
134191
134212
134213
134196
134158
134108
134044
133969
133887
133801
133713
133628
133548
133477
133416
133367
133332
133313
132942
132972
133025
133099
133193
133305
133431
133567
133707
133845
133978
134098
134204
134289
134352
134389
134399
134381
134336
134266
134171
134055
133919
133770
133610
133441
133269
133097
132927
132762
132606
132460
132322
132202
132097
132009
131939
131887
131854
131841
131847
131873
131917
131980
132060
132155
132265
132389
132523
132667
132819
132976
133136
133297
133456
133610
133757
133892
134013
134118
134203
134268
134310
134329
134326
134301
134254
134190
134110
134018
133917
133811
133704
133600
133504
133418
133345
133288
133246
133222
132797
132832
132895
132982
133095
133229
133382
133546
133716
133884
134045
134192
134320
134425
134503
134550
134564
134547
134497
134417
134309
134176
134021
133851
133667
133476
133281
133087
132896
132712
132538
132373
132224
132091
131975
131878
131801
131743
131708
131693
131701
131730
131781
131850
131938
132043
132166
132303
132452
132612
132780
132955
133134
133315
133493
133667
133832
133985
134122
134239
134335
134406
134451
134469
134461
134426
134367
134287
134188
134075
133951
133821
133690
133563
133446
133342
133256
133188
133140
133111
132621
132662
132735
132840
132975
133137
133322
133521
133726
133930
134125
134304
134460
134588
134683
134742
134762
134744
134687
134595
134470
134317
134139
133942
133732
133514
133292
133072
132857
132652
132457
132274
132109
131963
131835
131728
131642
131579
131540
131525
131534
131568
131624
131702
131801
131918
132052
132202
132372
132549
132736
132930
133131
133333
133535
133732
133920
134093
134249
134382
134490
134569
134618
134635
134620
134574
134500
134400
134278
134139
133988
133830
133670
133516
133374
133250
133146
133066
133010
132977
132408
132456
132543
132669
132832
133028
133250
133490
133738
133985
134221
134437
134627
134782
134898
134971
134997
134977
134912
134805
134660
134482
134275
134048
133805
133555
133302
133053
132811
132580
132363
132161
131979
131817
131676
131557
131462
131391
131348
131332
131344
131382
131446
131534
131644
131775
131925
132091
132275
132476
132683
132901
133125
133353
133582
133806
134020
134219
134397
134549
134672
134762
134815
134831
134809
134750
134657
134534
134385
134216
134032
133840
133648
133462
133290
133140
133015
132919
132851
132813
132150
132206
132312
132466
132664
132900
133167
133456
133754
134051
134335
134597
134826
135015
135156
135244
135276
135254
135177
135052
134881
134671
134432
134167
133886
133598
133309
133026
132753
132494
132252
132027
131827
131649
131494
131362
131256
131177
131129
131112
131128
131172
131245
131344
131467
131613
131779
131963
132163
132389
132619
132862
133114
133372
133632
133888
134134
134363
134568
134744
134885
134988
135048
135063
135033
134959
134844
134693
134512
134306
134084
133853
133622
133398
133192
133011
132859
132742
132660
132616
131837
131904
132035
132224
132464
132749
133069
133415
133773
134130
134473
134789
135066
135294
135463
135569
135608
135580
135489
135339
135137
134891
134608
134298
133971
133638
133307
132986
132678
132389
132121
131874
131653
131458
131288
131143
131022
130931
130878
130862
130884
130936
131017
131128
131267
131431
131615
131818
132040
132285
132541
132812
133095
133387
133683
133977
134261
134526
134765
134969
135133
135252
135320
135335
135296
135205
135065
134881
134661
134413
134146
133869
133593
133326
133079
132859
132674
132530
132430
132378
131460
131539
131700
131932
132225
132567
132951
133367
133797
134227
134639
135020
135354
135628
135832
135957
136000
135963
135851
135671
135432
135141
134807
134442
134060
133674
133296
132931
132585
132263
131966
131697
131455
131243
131059
130898
130760
130651
130597
130591
130613
130673
130767
130886
131042
131229
131434
131656
131900
132165
132448
132749
133065
133395
133733
134071
134401
134710
134988
135226
135418
135557
135638
135655
135608
135497
135327
135104
134838
134540
134220
133889
133559
133240
132945
132678
132451
132273
132151
132091
131000
131092
131292
131579
131939
132344
132807
133308
133826
134343
134840
135299
135701
136031
136273
136419
136464
136413
136271
136052
135769
135425
135028
134594
134145
133698
133265
132853
132466
132107
131780
131488
131232
131004
130813
130645
130492
130372
130308
130281
130302
130372
130485
130621
130795
131016
131238
131475
131736
132023
132333
132665
133017
133388
133774
134165
134550
134914
135240
135516
135742
135910
136009
136031
135975
135842
135637
135369
135048
134690
134307
133912
133517
133136
132784
132458
132178
131958
131809
131743
130331
130403
130756
131136
131598
132088
132625
133234
133862
134485
135084
135638
136124
136520
136807
136973
137016
136939
136754
136481
136149
135745
135270
134750
134219
133701
133206
132740
132305
131906
131547
131232
130959
130730
130536
130336
130104
129872
129698
129646
129718
129890
130133
130410
130647
130824
131026
131265
131539
131846
132185
132552
132943
133359
133799
134254
134707
135137
135521
135839
136109
136316
136441
136475
136414
136258
136012
135688
135301
134871
134412
133937
133461
133001
132592
132182
131829
131549
131362
131311
73378.6
73585.6
78511.2
85352.3
93369
102152
111018
119064
125406
130322
133993
136039
136631
137113
137454
137641
137675
137561
137313
136958
136588
136080
134977
132773
129363
125023
120079
114765
109270
103806
98544.2
93491.5
88639.9
84101.6
79434.9
75283.6
71974.4
69645.3
68337.3
68084.9
68839.7
70578.3
73266.8
76872.8
81184.1
85137.4
89501.6
94188.9
98884.9
103590
108314
112961
117484
121899
126084
129757
132635
134607
135734
136219
136533
136796
136956
137003
136935
136751
136453
136057
134825
132593
129619
125907
121383
115829
109956
103961
98438.2
93780.9
90547.4
92657.5
4.48552
4.58295
5.702
1218.64
3795.74
7521.36
13211.3
21743.1
32449.2
44925.4
58780.3
73029.6
87091.1
97915.5
105276
109221
110210
108843
104976
98731.4
90320.5
79557
65309.4
50731.4
38384.7
28850.1
21591.4
15915.8
11357.1
7732.8
4929.34
2756.57
1063.85
5.10554
2.91417
3.06526
3.23684
19.3572
58.7445
103.33
129.798
134.475
105.67
44.7455
6.07739
527.486
1715.75
3225.45
5137.76
7511.06
10508
14200.6
18690.7
24297.9
31487
40465
50921.3
62121
72954.5
81047.8
87460.3
92171.8
94663.6
94986.7
93298
89203.8
82390.8
72868.5
62496.9
52492.2
42422.1
33072.4
24663.2
17725.9
12837.1
9257.49
6552.24
4722.83
3591.54
2573.11
4.45496
4.44763
4.66394
4.70881
4.52783
4.22675
3.97334
6.65971
14.1207
29.6605
251.876
1792.36
4690.35
8318.83
11738
13667.9
13878.3
12234.8
9298.66
6001.65
3052.36
548.655
2.55109
2.52939
2.70386
2.92742
2.9293
2.87234
2.95737
3.15176
3.32298
3.38259
3.37387
3.29164
3.15153
3.18281
3.18456
3.1958
3.3435
3.31861
3.37507
3.50929
3.90031
4.88368
4.97021
4.32081
4.26182
4.19593
4.15573
4.09824
3.98671
3.89177
3.89605
3.92571
3.89426
3.72751
3.42164
3.01847
4.05574
1240.33
2728.85
4304.14
5552.93
6078.16
5758.72
4686.68
3088.99
1519.21
462.173
57.6863
30.0339
15.2517
6.85743
2.65166
2.7581
2.87186
2.95169
3.00454
3.04195
2.87816
4.42581
4.9264
9.49793
10.8148
8.88222
8.04187
7.03734
7.03151
7.34196
5.09989
9.30367
12.1003
15.4417
17.899
17.1787
12.8989
7.63972
3.36488
1.74961
1.98792
2.38429
2.83226
2.80624
2.75891
3.78798
4.99422
3.49482
2.99892
2.98483
3.08168
5.10188
8.16516
6.27695
3.27096
3.2108
3.29356
4.34917
4.35129
3.75982
3.21449
3.22126
3.18027
3.50076
5.8177
7.40867
8.00148
6.74755
5.57796
4.64937
4.31015
4.07134
3.92299
3.97795
4.21056
4.80432
4.63775
3.50819
3.3457
3.38046
3.12873
2.96964
2.94116
4.90427
8.7581
12.2176
14.2302
14.0633
13.6073
11.0569
7.61255
5.5718
3.71237
3.0028
4.83687
3.12418
2.7705
2.82263
2.8421
2.86538
2.91828
5.75618
10.9208
10.7436
10.6028
10.3777
9.2198
6.87241
7.16503
6.96463
2.59408
2.82041
3.86377
5.36784
5.28581
4.98306
3.90871
3.16894
3.02325
3.10524
3.25031
3.75592
4.67454
4.43858
2.69045
4.70395
6.0436
6.06447
2.86966
2.90358
3.02904
5.32609
8.30029
8.34672
7.13868
4.94139
5.29159
3.12795
3.10536
3.13284
3.14308
3.04679
2.94596
4.03583
6.60874
6.8132
6.87559
6.92337
6.93935
6.91303
6.60699
4.53471
3.85549
4.22785
5.81191
5.75122
5.67332
4.21002
3.3372
3.36168
3.20159
3.18764
3.2803
3.59951
4.1593
4.45006
5.10449
4.32744
4.09014
5.39971
6.5145
6.56233
4.32756
2.85871
3.37349
2.8436
2.79939
2.81914
2.76099
2.76451
2.76662
6.54578
10.604
10.4012
10.2595
8.46141
2.77737
2.71186
2.61512
2.8472
2.15312
2.1512
3.00585
4.01151
3.57983
3.8244
3.79924
3.13243
3.15828
3.21171
3.49641
4.78437
8.22651
8.42954
3.38736
2.90209
4.74933
5.02531
2.85316
2.93914
3.0562
3.75603
8.50613
8.53075
8.39039
8.12573
6.31719
3.02765
3.0385
3.12501
3.64286
3.45941
2.71064
2.52198
2.93687
3.95116
4.22345
3.46822
3.34487
3.76264
3.41493
3.49976
3.61605
3.63324
4.05105
5.73241
5.67045
5.0498
3.11837
2.63866
2.38288
7.6686
9.56822
9.44294
3.92294
3.29656
3.99043
2.9242
3.01972
5.89328
4.45829
2.39458
2.228
2.65813
2.63679
2.78203
4.02162
4.96175
4.14262
2.67804
2.70063
5.73405
10.3243
10.1059
9.97463
5.02034
2.47938
2.47819
3.28033
2.34692
2.27295
2.19545
3.921
3.73929
3.29367
3.72282
3.95857
3.18022
3.21067
3.282
3.40392
3.43674
7.39563
8.47703
4.34796
2.43083
2.49832
2.61404
3.48409
2.92985
3.66887
6.36972
8.84693
8.6473
8.4008
8.11908
6.99896
2.97555
2.99991
5.52509
5.97291
5.84765
2.15816
2.24984
2.34637
2.42596
2.52427
2.67294
2.85582
3.04814
3.23149
3.36288
3.39209
3.32072
3.20463
3.36302
3.86196
4.00148
2.89979
2.44823
2.29008
2.16115
2.66178
3.91324
3.31734
3.17862
3.80584
2.57757
2.90199
5.8658
3.6904
2.35708
2.26235
2.35387
2.5087
4.31651
5.2869
5.28022
5.24781
3.27248
2.55636
6.54135
10.3628
10.0619
9.85524
6.64072
2.19611
3.37045
4.94955
4.69195
2.43038
3.84743
3.74256
2.55982
2.06136
2.2378
3.46821
3.37446
3.26626
3.33829
3.42505
3.48875
7.44117
7.02952
3.06062
2.37509
2.45172
3.39722
3.60089
2.93371
3.60934
7.51624
8.97357
8.66391
8.28676
7.8142
3.75452
3.88683
5.85672
5.89773
5.85334
4.90131
2.0247
2.05354
2.18321
2.28568
2.38402
2.50652
2.69555
3.17458
3.86511
3.4808
3.36851
3.40743
3.29655
3.04177
2.8881
3.02031
3.41866
3.30669
2.4129
2.12834
2.07637
2.04944
2.07576
2.1393
2.19959
2.09077
4.20764
5.78776
3.72608
2.25369
2.28469
2.30836
3.23218
4.95592
4.54702
3.41838
5.19313
4.22893
2.44988
3.96735
5.86531
10.4335
10.1623
9.5383
2.29654
1.65731
4.16812
5.45054
4.74244
2.50395
2.05371
1.79383
1.61306
3.18098
5.09773
5.34896
3.3277
3.38898
3.46309
6.14083
7.56867
4.39421
2.27231
2.30545
2.41976
3.76581
2.9359
2.84379
4.87021
7.78013
9.00122
8.58035
8.08668
5.28082
3.13112
5.24268
5.477
5.54116
4.45503
1.43425
1.65015
1.85427
2.01503
2.13435
2.21651
2.29186
3.33516
6.15923
6.8835
6.73077
6.36913
6.52067
5.94636
4.16148
2.73722
2.57668
2.63559
2.50044
2.14035
2.05556
2.01737
2.0079
2.01198
2.01262
2.02276
2.05436
4.08555
5.87794
4.59099
2.31711
2.29183
2.23883
2.42514
4.61197
1.97966
2.00458
2.61304
4.2284
2.3893
2.33072
2.2772
2.77875
3.58868
3.45302
2.95317
1.53322
1.53588
3.82403
5.45474
4.30929
1.91589
1.68707
1.51833
3.51644
5.21756
5.39334
4.37205
5.17682
6.58549
6.73668
5.7
2.41197
2.49984
2.33294
2.30671
2.88248
2.84221
2.75747
5.92318
9.07869
8.90975
8.42018
7.86261
2.94712
2.52901
4.96823
5.06743
5.17166
3.45497
1.1919
1.41661
1.65307
1.8485
1.99036
2.06062
2.06715
4.53439
6.43599
6.67071
6.76039
6.67689
6.49357
6.30848
6.18826
5.20183
2.43436
2.09183
2.03399
1.99423
1.95565
2.05599
3.08821
3.34681
2.3787
2.03986
2.07029
2.09517
5.36138
5.38212
2.34373
2.27757
2.1901
4.31862
2.99168
1.84744
1.9045
2.39354
3.42624
2.3872
2.28433
2.3012
2.26268
2.05212
1.72163
1.52983
1.47006
1.45622
1.44513
4.4235
4.97532
2.55118
1.59209
1.46747
4.31944
5.2259
5.36087
5.61716
5.99513
6.33438
5.30087
2.28681
2.2091
2.71273
2.18318
2.21001
3.29279
4.86156
4.761
7.30485
9.0206
8.69763
8.19884
7.31547
1.05183
0.836362
3.77773
4.59387
4.66478
4.76129
2.09079
1.2572
1.5061
1.68155
1.85136
1.93496
1.90897
3.19035
6.2135
6.44659
6.46296
6.29953
5.5335
5.77656
5.95682
5.7903
4.96847
2.09901
1.8382
1.8289
1.81188
2.58984
3.30964
3.34202
3.37492
3.19171
2.10019
2.12058
2.237
5.38355
4.4176
2.26844
2.26907
5.05802
4.76631
1.7813
1.85623
1.99921
2.12156
2.41597
2.16887
2.21916
4.38054
3.20291
1.98581
1.51375
1.37905
1.32017
1.29732
1.98333
4.86634
2.22908
1.56118
1.75856
4.99274
5.17705
5.18012
5.31452
4.79728
2.53481
2.02583
2.08072
2.14739
2.15815
2.12128
3.46588
6.51426
6.748
6.88665
7.06857
7.1421
5.96751
7.84253
2.93519
0.709196
0.426046
0.331529
0.33455
1.21914
2.69176
3.23645
3.84928
4.49756
3.35763
2.2399
1.81141
1.81882
1.7721
6.02655
6.263
5.95316
2.88577
1.53048
1.6921
4.51366
5.49297
5.44782
3.68355
1.64868
1.63162
1.65438
1.93906
3.03348
3.28976
3.32792
3.36252
3.394
2.38399
2.25998
2.77966
4.73898
4.73152
5.11095
5.1212
4.60734
1.80421
1.8323
2.04883
2.1798
2.42258
1.95781
6.10598
12.092
11.7895
8.9383
5.55784
2.98944
1.84611
1.34414
1.75725
4.18107
4.07716
3.18896
2.849
1.65838
2.10822
4.81818
5.21529
1.86637
1.74753
1.92542
2.0642
2.1487
2.58583
5.7631
6.54053
6.34052
5.29918
5.92579
6.1938
2.80109
1.48051
2.12024
0.968218
0.598752
0.292008
0.109998
0.069078
0.125141
0.362529
0.894473
3.74751
4.82964
5.28673
5.65941
2.99616
1.70455
1.71085
3.90587
6.12327
1.99992
1.37283
1.34765
1.29865
1.22175
4.38708
5.30491
5.2371
2.11789
1.40626
1.46179
1.4855
1.56406
1.80304
2.99787
3.31252
3.35012
3.39664
2.50346
2.55859
3.17267
5.30852
5.26181
5.17066
3.66805
1.76402
2.6155
4.94769
2.59493
2.38874
2.54269
12.0584
12.0027
11.8001
11.4509
11.0319
10.7859
9.93416
10.0832
7.26143
3.94373
2.54244
1.3261
0.774891
0.67
0.625383
1.51173
2.33358
1.7658
1.73308
1.92013
2.05647
4.36691
5.73079
5.64967
3.00294
1.6191
1.45387
1.74289
1.90584
1.3412
1.24628
1.08237
0.900824
0.653869
0.313875
0.202784
2.43078
2.41315
2.35875
2.15454
1.94249
3.02333
5.23642
5.52853
5.75759
2.72328
1.67739
3.63233
5.77707
1.3734
1.29677
1.26102
1.20416
1.11675
1.10075
4.39449
4.93528
2.74478
1.21203
1.30837
1.37525
1.42331
1.46635
1.54101
2.0567
3.31548
3.35778
3.39447
2.95149
2.98444
3.32169
5.27492
5.05993
2.17923
1.77142
5.40043
7.66083
4.20268
2.34794
2.96654
12.0089
11.9459
11.6383
6.95704
10.6537
10.4783
10.1263
9.97583
3.90473
3.56293
1.13919
0.558271
0.579887
0.575274
0.563563
0.76825
1.70491
1.99567
1.71665
2.03022
5.17048
5.40056
5.32522
1.66904
1.55897
1.43555
1.34864
1.31199
1.36204
1.4229
1.34048
1.14219
1.03406
2.2504
2.95623
3.83357
3.73891
3.64826
3.74271
4.05249
2.69643
1.54913
1.74528
5.51549
5.71167
4.57422
2.58794
4.83502
2.84967
1.32551
1.2522
1.21057
1.14865
1.06645
0.960732
0.884201
1.92665
1.77218
1.12855
1.20469
1.28152
1.33843
1.38985
1.43896
1.48745
1.62225
3.09918
3.33879
3.33888
3.33184
2.5518
2.38902
2.05603
1.75696
1.81206
6.39571
7.83426
5.13165
2.31131
2.70089
12.0611
11.9712
4.02932
0.899745
3.12553
9.82952
4.49553
1.21597
1.01798
1.51611
0.395911
0.451468
0.474697
0.487377
0.50766
0.795653
1.20285
1.53764
2.4379
4.99513
5.19844
5.29469
1.88935
1.54329
1.89512
2.04977
2.02668
1.66138
1.6589
1.64872
1.54369
1.38176
4.41019
4.86968
4.50602
4.1831
3.94311
3.85684
3.96262
4.26855
4.68189
1.53236
1.52577
3.57248
5.76401
3.30673
4.8518
4.91477
3.23106
1.32493
1.2202
1.40099
1.13536
1.04606
0.972282
0.899468
0.859358
0.937182
1.04658
1.14209
1.20752
1.26281
1.31887
1.37734
1.43593
1.49279
1.56684
2.47417
3.31838
3.31258
3.23578
1.82304
1.77172
1.81636
1.88477
6.37405
8.02696
4.87222
2.1893
2.70475
12.2024
12.071
1.23247
0.893541
0.743001
0.641834
0.275056
0.2825
0.321764
0.320036
0.362796
0.387835
0.394709
0.402051
0.427207
0.532054
0.690478
1.65896
4.6395
4.83914
4.98356
2.43512
1.38199
1.42126
1.55574
2.1437
2.19221
2.25963
2.09689
1.8765
1.77361
4.21213
5.66884
5.26544
4.85361
4.52438
4.31581
4.26285
4.38964
4.64959
2.99331
1.35159
1.53154
1.7094
3.62875
1.74706
3.05072
5.03112
4.58662
1.50306
1.34527
1.55059
1.36292
1.03455
0.968747
0.933944
0.91622
0.981642
1.06692
1.09747
1.14431
1.19233
1.25012
1.32041
1.48708
1.48044
1.55534
1.59797
1.70768
3.16747
3.20227
2.56468
1.76811
1.83861
1.92454
7.43231
8.1789
4.15285
2.08081
2.59091
12.3311
10.6793
1.5948
1.01645
0.816862
0.760649
0.410268
0.396116
0.407238
0.423614
0.674119
0.445822
0.339941
0.332693
0.351453
0.427227
0.745655
3.51493
4.48145
4.66191
3.42992
1.17505
1.25354
1.3495
1.5029
1.56052
1.66956
1.79899
1.90727
2.09381
2.15911
3.66391
6.03131
5.66127
5.27687
4.98821
2.52227
4.32843
4.89641
4.47305
1.3401
1.42463
1.50222
1.57729
1.70137
1.82695
1.90906
4.957
3.2252
1.52079
1.56765
1.51046
1.45807
1.12977
0.919218
0.90246
0.901846
1.10538
1.75049
1.42937
1.08282
1.11852
1.33605
2.98069
3.28996
2.64481
2.5687
1.96818
1.79473
1.86453
3.03725
2.30284
1.71436
1.79081
3.86938
8.35121
8.27744
3.5013
1.99012
2.62034
8.81875
4.41828
2.24375
1.67977
0.809277
0.652153
0.605247
0.489278
0.640854
0.97235
0.937381
0.740736
0.311589
0.29158
0.305322
0.396686
2.06255
4.23972
4.36229
4.27125
1.15953
1.14266
2.539
2.86913
2.98169
3.01787
1.76604
1.91481
2.19992
2.90782
3.00246
2.37085
2.17385
3.07334
3.19728
1.74781
0.921695
1.38337
4.78534
3.20345
2.00274
2.1388
1.69467
1.67706
1.80046
1.92411
2.86259
5.50769
2.01591
1.54386
1.54688
1.46814
1.39362
1.1568
0.831456
0.815282
0.815016
0.82066
1.07752
2.6693
2.86284
2.98592
3.14787
3.16411
2.51473
6.07956
8.69367
8.82909
8.73801
4.64319
1.7285
1.60453
1.62212
1.68842
5.42209
8.36779
8.30185
2.68234
1.91582
2.81898
4.69449
8.39996
2.93041
2.76475
0.964979
0.683604
0.64487
0.974242
1.07337
1.03538
0.993018
0.644371
0.310832
0.278626
0.280862
0.55446
3.44382
4.10405
4.26112
3.04036
1.26024
2.52846
2.63043
2.7639
2.38773
2.05478
2.7586
3.10204
3.22997
3.25709
3.1569
2.45018
1.9979
1.60708
1.27376
1.03508
1.14356
1.62889
1.03804
2.16058
3.96157
4.19753
4.02469
1.95816
1.91102
2.0198
6.16986
5.8826
1.67693
1.56492
1.52864
1.42511
1.32261
0.977797
0.730178
0.703946
0.696269
0.698603
0.703694
1.18038
1.97068
2.16634
2.28827
1.5469
1.26807
5.77717
8.84099
8.86731
8.8431
8.81852
5.37395
1.49024
1.47885
1.53475
2.59234
8.32152
8.36529
2.67397
1.85351
3.01002
12.0597
11.4811
3.96593
2.59028
0.901287
0.736088
0.947703
1.18616
1.14586
1.10215
0.964625
0.374762
0.320563
0.270447
0.24466
0.285536
1.89164
3.99524
4.05131
2.95802
1.70127
1.04939
0.883793
0.974832
1.18995
1.46648
1.78637
2.13946
2.60877
2.64031
2.6438
2.46192
2.1973
1.665
1.41278
1.15032
0.662879
0.456889
0.484437
0.928817
3.8209
4.47325
4.61759
4.32062
2.06643
2.2627
6.55012
4.25603
1.40715
1.57001
1.50808
1.37907
1.18458
0.770749
0.639929
0.596769
0.576407
0.572797
0.579705
0.592673
0.629044
0.73853
0.824827
0.957281
1.11611
7.8372
8.72246
7.89419
8.54717
8.72786
8.68514
3.14501
1.29131
1.34699
1.42594
4.64978
8.40032
3.57444
3.05226
4.15384
12.4315
11.987
4.69221
1.21882
0.812021
0.779032
1.23873
1.26032
1.21492
1.1555
0.530859
0.389248
0.316129
0.243858
0.188283
0.176012
0.993484
2.41306
1.84448
0.586161
0.495565
0.524389
0.618552
0.790455
1.05972
1.76019
3.84404
5.06184
4.27007
2.47687
1.73475
1.48388
1.25394
1.0475
0.861248
0.704971
0.598977
0.558612
0.590904
0.680504
1.04316
4.37593
4.81475
4.91664
2.729
4.79298
6.7015
2.72264
1.3881
1.38291
1.25675
1.12704
0.81165
0.684245
0.605112
0.641949
0.530007
0.456032
0.457301
0.582544
1.43091
0.746248
0.749098
1.08638
6.05777
8.13639
6.60021
4.14575
4.1245
7.15525
8.37483
5.93956
1.14392
1.1473
1.31786
1.41997
8.30335
4.95483
2.7899
5.38586
12.7744
11.6151
1.22816
0.909683
0.894125
0.842788
1.06974
1.33529
1.13865
0.661935
0.480194
0.391992
0.29254
0.190947
0.102759
0.0474641
0.137135
0.331117
0.223327
0.235645
0.27945
0.328474
0.421622
0.637814
2.67846
7.17805
8.42278
8.58807
8.6705
8.29803
4.54779
1.64837
1.15636
1.00634
0.866894
0.737534
0.645939
0.651479
0.69137
0.749094
0.878976
2.95844
4.92696
5.03766
3.42413
6.95512
6.84871
1.72602
1.35892
1.36873
1.12226
0.937797
0.769303
0.730649
1.64312
2.11155
1.81399
1.06527
0.334944
0.898671
1.31721
0.768065
0.617629
0.839207
6.09937
6.11834
4.40919
7.29425
3.85256
3.74115
7.83618
7.55592
1.69619
0.955724
1.16331
1.27002
7.75175
5.08947
2.12951
6.2945
12.8516
8.58961
1.05714
1.05592
1.08963
0.893053
0.815258
0.808662
0.694383
0.591621
0.496382
0.382165
0.253025
0.119245
-0.0040449
-0.0963965
-0.122978
0.934771
1.91412
1.92778
1.4851
0.437158
0.423802
2.61643
7.63516
8.04099
8.21388
8.33307
8.39721
8.40242
8.37617
4.32419
1.10978
0.968448
0.849385
0.731802
0.699177
1.50297
1.05411
0.766071
0.905964
3.50983
4.98518
4.70545
2.60506
7.01109
5.18307
1.18971
1.18704
1.88935
1.89676
0.900007
0.725107
1.07419
2.30298
2.21991
2.17363
2.15523
1.24157
0.719767
0.732646
1.10196
0.804056
0.691746
2.62861
0.752751
6.46639
13.7256
6.8353
3.44135
7.08861
7.01049
2.49196
0.721506
0.956166
1.12771
5.33811
3.28502
2.02174
12.5614
12.6266
9.22459
1.19898
1.20606
1.21237
0.956948
0.883582
0.805059
0.719274
0.624271
0.507732
0.364029
0.204354
0.0406826
0.163668
0.0751616
1.20226
1.75304
1.76261
1.82354
1.90874
0.663092
0.831256
5.95993
7.60625
7.87531
7.98969
8.09029
8.17235
8.20623
7.41568
2.05697
1.29804
1.13649
1.84211
2.27139
2.68386
1.76092
0.687699
0.763445
1.12234
4.89179
5.0015
3.11694
1.85622
6.97829
1.07985
1.08446
1.18461
2.50535
2.50314
1.62355
0.690109
1.15459
2.22988
2.14261
2.08688
2.05987
2.04219
1.12636
0.611122
1.85816
2.08077
0.823903
0.568347
0.559694
13.5647
13.5998
12.9359
4.53284
6.36268
6.73619
2.69459
0.475517
0.761263
1.02055
1.31438
1.64767
1.96409
8.21075
12.5348
6.99198
1.49361
1.30381
1.15409
1.04798
0.953352
0.858134
0.759252
0.649583
0.513136
0.340433
0.390357
1.74266
1.77861
1.6595
1.56845
1.53998
1.52926
-0.226373
-0.16159
-0.270005
-0.163559
1.55616
7.13
7.6833
7.70797
7.29569
6.18466
4.29225
2.07612
1.95818
2.43974
5.1761
6.44219
6.30047
5.14733
0.750383
0.569136
0.710395
2.9706
4.78761
3.50813
2.1467
2.61984
6.4288
0.953749
0.935176
1.2135
2.54071
2.42959
2.28949
1.59189
1.06865
1.91858
2.07307
2.01237
1.54947
1.63229
1.80661
1.88905
1.96791
1.97139
1.93527
0.460917
2.04419
13.2819
13.4185
13.0805
5.05987
4.52938
6.59227
4.88197
0.388167
0.610065
0.915089
1.09996
2.75079
1.933
3.432
7.46306
2.40319
4.28176
7.29728
1.20681
1.12168
1.00123
0.890773
0.781718
0.70386
0.893
0.357374
1.39131
1.91926
1.67187
1.4557
1.32637
1.23077
0.900555
0.998376
-0.375997
-0.320486
-0.19334
-0.0932963
1.7075
3.86734
1.32694
0.649555
1.26202
1.75038
2.50828
4.4783
6.51861
6.43516
6.30268
6.16982
4.7181
0.541867
0.492069
1.5924
3.39504
2.41959
1.66102
2.96698
8.07939
2.07957
0.777304
0.749322
1.03545
2.41135
2.32933
2.2217
2.09557
1.16029
0.396854
1.16834
0.574523
-0.0457046
-0.0732393
0.455822
1.24711
1.89179
1.87196
1.81962
0.030763
10.3682
12.8646
7.64774
12.9301
5.73021
0.891592
6.51771
4.07323
0.234088
0.503497
0.829338
1.03533
3.88364
2.15106
3.4951
2.35949
2.38742
3.61651
8.31764
1.47064
1.12
1.00782
0.890673
1.06758
3.84557
3.56277
2.16097
1.00539
1.83036
1.53554
1.32115
0.119459
0.255093
1.7319
1.64251
-0.304552
-0.339079
-0.199174
-0.0974159
-0.0315449
0.0107715
0.0661521
0.305475
2.97816
4.53382
6.33582
6.37107
6.35611
6.28773
6.18999
6.09437
2.103
0.283714
0.426068
3.59041
3.00956
1.23491
1.39896
5.00102
7.88089
0.558935
0.568517
0.543794
0.564914
1.84643
2.21408
2.14212
2.0511
1.93884
0.233709
0.0396019
-0.0165122
-0.0439781
-0.0773246
-0.12082
-0.159424
0.76127
1.8357
0.684146
-0.281401
5.68652
0.011269
-0.300353
8.12492
5.77466
0.896342
6.45985
2.98959
0.192096
0.439678
0.762664
1.81836
3.91309
1.9378
4.77239
4.77957
2.3568
2.85808
8.41793
1.59534
1.07654
0.972789
0.937496
3.11739
4.60002
4.25182
1.19331
0.723323
0.964908
1.14867
0.210562
-0.024359
1.39622
1.80116
0.361908
-0.479851
-0.324576
-0.188846
-0.0958563
-0.0299768
-0.00045683
0.02432
4.09432
6.39574
6.32813
6.15433
5.98314
6.14776
6.18227
6.14164
5.92187
0.490249
0.219646
0.368722
6.56489
2.84683
1.11853
1.28024
6.37537
5.49618
0.352703
0.351189
0.337202
0.316838
0.741338
2.09639
2.05928
2.00154
1.92756
1.48943