/*--------------------------------*- C++ -*----------------------------------*\
| =========                 |                                                 |
| \\      /  F ield         | OpenFOAM: The Open Source CFD Toolbox           |
|  \\    /   O peration     | Version:  2412                                  |
|   \\  /    A nd           | Website:  www.openfoam.com                      |
|    \\/     M anipulation  |                                                 |
\*---------------------------------------------------------------------------*/
FoamFile
{
    version     2.0;
    format      ascii;
    arch        "LSB;label=32;scalar=64";
    class       volVectorField;
    location    "7.45";
    object      U;
}
// * * * * * * * * * * * * * * * * * * * * * * * * * * * * * * * * * * * * * //

dimensions      [0 1 -1 0 0 0 0];

internalField   nonuniform List<vector> 
6400
(
(-6.45275e-07 6.47393e-07 0)
(-2.32904e-06 7.7543e-07 0)
(-3.19785e-06 5.14608e-07 0)
(-2.52539e-06 1.3493e-07 0)
(8.56344e-08 -2.457e-07 0)
(4.65341e-06 -5.94204e-07 0)
(1.10391e-05 -8.98426e-07 0)
(1.90446e-05 -1.1556e-06 0)
(2.84513e-05 -1.36808e-06 0)
(3.90415e-05 -1.54058e-06 0)
(5.06111e-05 -1.6787e-06 0)
(6.29762e-05 -1.78832e-06 0)
(7.59767e-05 -1.87522e-06 0)
(8.94769e-05 -1.94482e-06 0)
(0.000103364 -2.00195e-06 0)
(0.000117544 -2.05063e-06 0)
(0.000131938 -2.09385e-06 0)
(0.000146477 -2.13329e-06 0)
(0.000161093 -2.16901e-06 0)
(0.000175706 -2.19924e-06 0)
(0.000190223 -2.22006e-06 0)
(0.000204515 -2.22525e-06 0)
(0.000218413 -2.20607e-06 0)
(0.000231693 -2.1513e-06 0)
(0.000244061 -2.04739e-06 0)
(0.000255148 -1.87905e-06 0)
(0.000264505 -1.63013e-06 0)
(0.000271605 -1.28513e-06 0)
(0.000275854 -8.31052e-07 0)
(0.000276615 -2.59849e-07 0)
(0.000273245 4.29107e-07 0)
(0.000265141 1.22648e-06 0)
(0.000251803 2.11129e-06 0)
(0.000232893 3.05027e-06 0)
(0.000208302 3.99892e-06 0)
(0.000178194 4.90426e-06 0)
(0.000143043 5.70958e-06 0)
(0.000103628 6.3599e-06 0)
(6.10093e-05 6.80831e-06 0)
(1.64659e-05 7.02105e-06 0)
(-2.85876e-05 6.982e-06 0)
(-7.27016e-05 6.69421e-06 0)
(-0.000114495 6.17993e-06 0)
(-0.000152752 5.47749e-06 0)
(-0.000186496 4.63726e-06 0)
(-0.000215044 3.71536e-06 0)
(-0.00023802 2.76776e-06 0)
(-0.000255347 1.84488e-06 0)
(-0.000267209 9.87695e-07 0)
(-0.000274001 2.25223e-07 0)
(-0.000276256 -4.25756e-07 0)
(-0.000274594 -9.5937e-07 0)
(-0.000269656 -1.37813e-06 0)
(-0.000262067 -1.69163e-06 0)
(-0.000252397 -1.91422e-06 0)
(-0.000241146 -2.06139e-06 0)
(-0.000228736 -2.1488e-06 0)
(-0.000215506 -2.19125e-06 0)
(-0.000201728 -2.20198e-06 0)
(-0.000187606 -2.19187e-06 0)
(-0.000173291 -2.16883e-06 0)
(-0.000158898 -2.13802e-06 0)
(-0.000144514 -2.10257e-06 0)
(-0.000130209 -2.06401e-06 0)
(-0.000116046 -2.02208e-06 0)
(-0.000102092 -1.9749e-06 0)
(-8.8421e-05 -1.91934e-06 0)
(-7.51252e-05 -1.85133e-06 0)
(-6.2316e-05 -1.76618e-06 0)
(-5.01274e-05 -1.65867e-06 0)
(-3.87174e-05 -1.52319e-06 0)
(-2.82669e-05 -1.35391e-06 0)
(-1.8977e-05 -1.14519e-06 0)
(-1.10622e-05 -8.92275e-07 0)
(-4.73816e-06 -5.92808e-07 0)
(-2.0124e-07 -2.49544e-07 0)
(2.40912e-06 1.25626e-07 0)
(3.10158e-06 5.01582e-07 0)
(2.25435e-06 7.68748e-07 0)
(6.15934e-07 6.62318e-07 0)
(-7.18579e-07 2.37497e-06 0)
(-2.26876e-06 2.45138e-06 0)
(-1.24303e-06 -1.86583e-08 0)
(3.67827e-06 -3.54562e-06 0)
(1.32283e-05 -7.35745e-06 0)
(2.75093e-05 -1.10599e-05 0)
(4.62855e-05 -1.44553e-05 0)
(6.91496e-05 -1.74553e-05 0)
(9.56134e-05 -2.0034e-05 0)
(0.000125163 -2.22007e-05 0)
(0.000157297 -2.3985e-05 0)
(0.000191546 -2.54279e-05 0)
(0.000227488 -2.65746e-05 0)
(0.000264752 -2.74704e-05 0)
(0.000303014 -2.81563e-05 0)
(0.000341995 -2.86659e-05 0)
(0.000381448 -2.9022e-05 0)
(0.000421143 -2.92334e-05 0)
(0.000460847 -2.92922e-05 0)
(0.000500303 -2.91708e-05 0)
(0.000539205 -2.88194e-05 0)
(0.000577166 -2.81646e-05 0)
(0.00061369 -2.71081e-05 0)
(0.000648145 -2.55288e-05 0)
(0.000679732 -2.32853e-05 0)
(0.00070747 -2.02241e-05 0)
(0.000730183 -1.61903e-05 0)
(0.000746516 -1.10439e-05 0)
(0.000754966 -4.67988e-06 0)
(0.000753937 2.94736e-06 0)
(0.000741841 1.17999e-05 0)
(0.000717213 2.17338e-05 0)
(0.000678856 3.24846e-05 0)
(0.000625999 4.36648e-05 0)
(0.000558448 5.47775e-05 0)
(0.000476702 6.52477e-05 0)
(0.000382026 7.44694e-05 0)
(0.000276453 8.18638e-05 0)
(0.000162707 8.69396e-05 0)
(4.40584e-05 8.93472e-05 0)
(-7.58905e-05 8.89189e-05 0)
(-0.000193449 8.56875e-05 0)
(-0.000305097 7.98831e-05 0)
(-0.000407721 7.19052e-05 0)
(-0.000498805 6.22787e-05 0)
(-0.000576555 5.1596e-05 0)
(-0.00063995 4.04565e-05 0)
(-0.000688712 2.94126e-05 0)
(-0.000723226 1.89274e-05 0)
(-0.000744405 9.34869e-06 0)
(-0.000753537 9.00668e-07 0)
(-0.000752132 -6.30852e-06 0)
(-0.000741784 -1.22675e-05 0)
(-0.000724057 -1.70422e-05 0)
(-0.000700406 -2.07521e-05 0)
(-0.000672121 -2.35432e-05 0)
(-0.000640308 -2.55696e-05 0)
(-0.000605882 -2.69807e-05 0)
(-0.000569583 -2.7913e-05 0)
(-0.000531991 -2.84821e-05 0)
(-0.000493558 -2.87789e-05 0)
(-0.000454635 -2.88685e-05 0)
(-0.000415503 -2.87936e-05 0)
(-0.000376401 -2.85778e-05 0)
(-0.000337545 -2.82262e-05 0)
(-0.000299155 -2.77279e-05 0)
(-0.000261469 -2.70586e-05 0)
(-0.000224759 -2.61835e-05 0)
(-0.000189341 -2.50617e-05 0)
(-0.00015558 -2.36486e-05 0)
(-0.000123893 -2.18995e-05 0)
(-9.47415e-05 -1.97745e-05 0)
(-6.86188e-05 -1.72436e-05 0)
(-4.60308e-05 -1.4297e-05 0)
(-2.74593e-05 -1.09592e-05 0)
(-1.33073e-05 -7.31597e-06 0)
(-3.81154e-06 -3.55919e-06 0)
(1.11755e-06 -7.26211e-08 0)
(2.18331e-06 2.38897e-06 0)
(6.97744e-07 2.36193e-06 0)
(-4.40519e-07 3.33076e-06 0)
(2.49998e-07 1.59514e-06 0)
(5.46256e-06 -5.02423e-06 0)
(1.65631e-05 -1.3854e-05 0)
(3.42837e-05 -2.33766e-05 0)
(5.8739e-05 -3.27229e-05 0)
(8.96394e-05 -4.14042e-05 0)
(0.000126453 -4.91689e-05 0)
(0.000168516 -5.59141e-05 0)
(0.000215108 -6.16305e-05 0)
(0.000265506 -6.63667e-05 0)
(0.00031902 -7.02056e-05 0)
(0.000375014 -7.32472e-05 0)
(0.000432914 -7.55942e-05 0)
(0.000492214 -7.73417e-05 0)
(0.000552462 -7.85672e-05 0)
(0.000613249 -7.93219e-05 0)
(0.000674187 -7.96224e-05 0)
(0.000734885 -7.94431e-05 0)
(0.000794912 -7.87087e-05 0)
(0.000853766 -7.72889e-05 0)
(0.000910832 -7.49939e-05 0)
(0.000965339 -7.15731e-05 0)
(0.00101632 -6.67193e-05 0)
(0.00106257 -6.00783e-05 0)
(0.00110262 -5.12677e-05 0)
(0.00113475 -3.99062e-05 0)
(0.00115695 -2.56543e-05 0)
(0.00116703 -8.26619e-06 0)
(0.00116266 1.23506e-05 0)
(0.00114152 3.60733e-05 0)
(0.00110147 6.25092e-05 0)
(0.00104077 9.09593e-05 0)
(0.000958331 0.000120413 0)
(0.000853876 0.000149586 0)
(0.00072818 0.000176995 0)
(0.000583147 0.000201086 0)
(0.000421824 0.000220374 0)
(0.000248287 0.000233603 0)
(6.74233e-05 0.000239878 0)
(-0.000115383 0.000238771 0)
(-0.000294618 0.000230365 0)
(-0.000465021 0.000215249 0)
(-0.000621938 0.000194443 0)
(-0.000761606 0.000169291 0)
(-0.000881335 0.000141312 0)
(-0.000979581 0.000112047 0)
(-0.00105591 8.29201e-05 0)
(-0.00111085 5.51326e-05 0)
(-0.00114572 2.95949e-05 0)
(-0.00116241 6.90472e-06 0)
(-0.00116309 -1.26362e-05 0)
(-0.00115011 -2.8976e-05 0)
(-0.00112575 -4.22597e-05 0)
(-0.00109213 -5.277e-05 0)
(-0.00105117 -6.08637e-05 0)
(-0.00100449 -6.69233e-05 0)
(-0.000953467 -7.13213e-05 0)
(-0.000899215 -7.43995e-05 0)
(-0.000842626 -7.64501e-05 0)
(-0.000784408 -7.7706e-05 0)
(-0.000725126 -7.83377e-05 0)
(-0.000665244 -7.8459e-05 0)
(-0.000605161 -7.81333e-05 0)
(-0.000545247 -7.73791e-05 0)
(-0.000485873 -7.61743e-05 0)
(-0.000427433 -7.4464e-05 0)
(-0.000370368 -7.21677e-05 0)
(-0.000315174 -6.91895e-05 0)
(-0.000262414 -6.54273e-05 0)
(-0.000212714 -6.07827e-05 0)
(-0.000166753 -5.51739e-05 0)
(-0.000125242 -4.8552e-05 0)
(-8.88882e-05 -4.09248e-05 0)
(-5.83475e-05 -3.23911e-05 0)
(-3.41456e-05 -2.31957e-05 0)
(-1.65719e-05 -1.38148e-05 0)
(-5.52408e-06 -5.09829e-06 0)
(-3.04051e-07 1.46414e-06 0)
(4.31926e-07 3.24792e-06 0)
(-6.48563e-08 2.71517e-06 0)
(3.77594e-06 -3.20154e-06 0)
(1.43053e-05 -1.59659e-05 0)
(3.26208e-05 -3.19878e-05 0)
(5.91959e-05 -4.90701e-05 0)
(9.40373e-05 -6.58539e-05 0)
(0.000136763 -8.15174e-05 0)
(0.000186724 -9.56019e-05 0)
(0.000243111 -0.000107894 0)
(0.00030504 -0.000118345 0)
(0.000371612 -0.000127013 0)
(0.000441957 -0.000134025 0)
(0.000515263 -0.000139543 0)
(0.000590788 -0.000143738 0)
(0.000667868 -0.00014677 0)
(0.000745901 -0.000148772 0)
(0.000824339 -0.000149829 0)
(0.00090266 -0.000149969 0)
(0.000980339 -0.000149141 0)
(0.00105681 -0.00014721 0)
(0.00113141 -0.000143939 0)
(0.00120337 -0.00013899 0)
(0.0012717 -0.000131912 0)
(0.00133522 -0.000122158 0)
(0.00139242 -0.000109094 0)
(0.00144149 -9.2036e-05 0)
(0.00148031 -7.0304e-05 0)
(0.00150638 -4.32915e-05 0)
(0.00151698 -1.056e-05 0)
(0.00150918 2.80514e-05 0)
(0.00148004 7.23141e-05 0)
(0.00142685 0.000121508 0)
(0.00134735 0.000174351 0)
(0.00124007 0.000228992 0)
(0.0011046 0.000283065 0)
(0.000941868 0.000333844 0)
(0.000754265 0.000378461 0)
(0.000545671 0.000414178 0)
(0.000321318 0.000438673 0)
(8.75041e-05 0.000450296 0)
(-0.000148818 0.000448254 0)
(-0.000380524 0.000432702 0)
(-0.000600826 0.000404724 0)
(-0.000803734 0.000366208 0)
(-0.000984429 0.000319634 0)
(-0.0011395 0.000267802 0)
(-0.00126702 0.000213552 0)
(-0.00136651 0.000159507 0)
(-0.00143871 0.000107873 0)
(-0.00148536 6.03208e-05 0)
(-0.00150886 1.79456e-05 0)
(-0.00151201 -1.86979e-05 0)
(-0.00149775 -4.9512e-05 0)
(-0.00146893 -7.47534e-05 0)
(-0.00142822 -9.49237e-05 0)
(-0.00137796 -0.000110661 0)
(-0.00132017 -0.000122651 0)
(-0.00125655 -0.000131559 0)
(-0.00118847 -0.000137995 0)
(-0.00111706 -0.000142478 0)
(-0.00104319 -0.000145427 0)
(-0.000967606 -0.00014715 0)
(-0.000890902 -0.000147853 0)
(-0.000813613 -0.000147651 0)
(-0.000736239 -0.000146579 0)
(-0.000659281 -0.000144602 0)
(-0.00058327 -0.000141627 0)
(-0.000508793 -0.000137516 0)
(-0.000436502 -0.000132107 0)
(-0.000367126 -0.000125229 0)
(-0.000301462 -0.000116722 0)
(-0.000240365 -0.000106462 0)
(-0.000184719 -9.43891e-05 0)
(-0.000135394 -8.05494e-05 0)
(-9.31855e-05 -6.51492e-05 0)
(-5.87357e-05 -4.86353e-05 0)
(-3.2424e-05 -3.18097e-05 0)
(-1.42539e-05 -1.60012e-05 0)
(-3.7838e-06 -3.36463e-06 0)
(6.1001e-08 2.58493e-06 0)
(3.07872e-07 1.59949e-07 0)
(7.56954e-06 -1.264e-05 0)
(2.38278e-05 -3.35568e-05 0)
(4.97533e-05 -5.84179e-05 0)
(8.5397e-05 -8.45007e-05 0)
(0.000130547 -0.000110019 0)
(0.000184665 -0.000133833 0)
(0.000246952 -0.000155271 0)
(0.000316448 -0.000173996 0)
(0.000392114 -0.00018991 0)
(0.000472895 -0.000203078 0)
(0.000557764 -0.000213669 0)
(0.000645761 -0.000221912 0)
(0.000736002 -0.000228054 0)
(0.000827689 -0.000232331 0)
(0.000920103 -0.000234938 0)
(0.00101259 -0.000236005 0)
(0.00110451 -0.000235572 0)
(0.00119527 -0.000233568 0)
(0.0012842 -0.000229791 0)
(0.00137056 -0.000223893 0)
(0.00145347 -0.000215367 0)
(0.00153186 -0.000203541 0)
(0.00160439 -0.000187589 0)
(0.00166942 -0.000166554 0)
(0.00172494 -0.000139397 0)
(0.00176854 -0.000105072 0)
(0.00179742 -6.26371e-05 0)
(0.00180841 -1.13959e-05 0)
(0.0017981 4.89332e-05 0)
(0.00176298 0.000118038 0)
(0.00169974 0.000194844 0)
(0.00160554 0.000277401 0)
(0.00147844 0.000362847 0)
(0.00131774 0.000447501 0)
(0.00112435 0.000527085 0)
(0.000900986 0.000597079 0)
(0.000652228 0.000653155 0)
(0.00038435 0.000691635 0)
(0.000104972 0.000709901 0)
(-0.000177453 0.000706695 0)
(-0.000454259 0.000682264 0)
(-0.000717202 0.00063833 0)
(-0.000959056 0.000577884 0)
(-0.00117407 0.000504852 0)
(-0.00135825 0.000423657 0)
(-0.00150947 0.000338769 0)
(-0.00162735 0.00025429 0)
(-0.00171298 0.00017365 0)
(-0.00176861 9.94176e-05 0)
(-0.00179723 3.32553e-05 0)
(-0.00180223 -2.40216e-05 0)
(-0.00178708 -7.23023e-05 0)
(-0.00175512 -0.000112012 0)
(-0.00170938 -0.000143938 0)
(-0.00165253 -0.000169069 0)
(-0.00158684 -0.000188454 0)
(-0.00151418 -0.000203107 0)
(-0.00143607 -0.000213944 0)
(-0.00135374 -0.000221745 0)
(-0.00126818 -0.000227136 0)
(-0.00118021 -0.000230576 0)
(-0.00109052 -0.000232371 0)
(-0.000999724 -0.000232691 0)
(-0.000908418 -0.000231584 0)
(-0.000817201 -0.000228997 0)
(-0.000726716 -0.000224789 0)
(-0.000637667 -0.000218758 0)
(-0.000550837 -0.000210666 0)
(-0.000467094 -0.000200265 0)
(-0.000387383 -0.00018733 0)
(-0.000312713 -0.000171693 0)
(-0.000244121 -0.000153289 0)
(-0.000182628 -0.000132213 0)
(-0.00012918 -0.000108791 0)
(-8.45631e-05 -8.36775e-05 0)
(-4.93105e-05 -5.79853e-05 0)
(-2.36395e-05 -3.34602e-05 0)
(-7.52335e-06 -1.27667e-05 0)
(-3.09252e-07 1.85147e-08 0)
(6.49237e-07 -4.33894e-06 0)
(1.12642e-05 -2.68178e-05 0)
(3.32245e-05 -5.79325e-05 0)
(6.67165e-05 -9.32044e-05 0)
(0.000111284 -0.000129544 0)
(0.000166415 -0.000164826 0)
(0.000231343 -0.000197635 0)
(0.000305075 -0.000227103 0)
(0.000386472 -0.000252781 0)
(0.000474327 -0.000274525 0)
(0.00056743 -0.000292409 0)
(0.000664609 -0.000306653 0)
(0.000764769 -0.000317562 0)
(0.000866909 -0.00032547 0)
(0.000970122 -0.0003307 0)
(0.0010736 -0.000333522 0)
(0.00117661 -0.000334121 0)
(0.00127846 -0.000332562 0)
(0.0013785 -0.000328763 0)
(0.00147603 -0.000322467 0)
(0.00157031 -0.000313215 0)
(0.00166044 -0.000300333 0)
(0.00174535 -0.000282919 0)
(0.00182371 -0.000259852 0)
(0.00189383 -0.000229817 0)
(0.00195367 -0.000191371 0)
(0.00200068 -0.000143037 0)
(0.00203188 -8.34514e-05 0)
(0.00204378 -1.15646e-05 0)
(0.00203256 7.31227e-05 0)
(0.00199414 0.000170293 0)
(0.00192454 0.000278558 0)
(0.00182023 0.000395264 0)
(0.00167859 0.000516419 0)
(0.00149843 0.0006368 0)
(0.00128041 0.000750266 0)
(0.00102743 0.000850278 0)
(0.000744621 0.000930536 0)
(0.00043927 0.000985674 0)
(0.000120323 0.00101186 0)
(-0.000202227 0.00100726 0)
(-0.000518118 0.000972231 0)
(-0.000817619 0.000909295 0)
(-0.00109227 0.000822829 0)
(-0.00133546 0.000718555 0)
(-0.00154277 0.000602899 0)
(-0.00171203 0.000482309 0)
(-0.00184319 0.000362654 0)
(-0.00193792 0.000248774 0)
(-0.00199912 0.000144229 0)
(-0.0020305 5.12572e-05 0)
(-0.00203607 -2.91169e-05 0)
(-0.0020198 -9.68556e-05 0)
(-0.00198542 -0.000152651 0)
(-0.00193624 -0.000197669 0)
(-0.0018751 -0.000233326 0)
(-0.00180435 -0.000261099 0)
(-0.00172591 -0.000282392 0)
(-0.00164133 -0.000298456 0)
(-0.00155181 -0.000310347 0)
(-0.00145837 -0.0003189 0)
(-0.00136183 -0.000324725 0)
(-0.00126288 -0.000328223 0)
(-0.00116219 -0.00032961 0)
(-0.0010604 -0.000328937 0)
(-0.000958163 -0.000326119 0)
(-0.00085621 -0.000320958 0)
(-0.000755334 -0.000313176 0)
(-0.000656425 -0.000302447 0)
(-0.00056047 -0.000288438 0)
(-0.000468547 -0.000270847 0)
(-0.000381808 -0.000249459 0)
(-0.000301444 -0.000224199 0)
(-0.000228642 -0.000195206 0)
(-0.000164522 -0.00016292 0)
(-0.000110061 -0.000128185 0)
(-6.60131e-05 -9.23827e-05 0)
(-3.28898e-05 -5.7589e-05 0)
(-1.116e-05 -2.68211e-05 0)
(-6.4847e-07 -4.44954e-06 0)
(9.48316e-07 -1.0652e-05 0)
(1.46857e-05 -4.55386e-05 0)
(4.20694e-05 -8.88858e-05 0)
(8.28099e-05 -0.000136098 0)
(0.000135916 -0.000183846 0)
(0.000200516 -0.000229747 0)
(0.000275557 -0.000272163 0)
(0.000359797 -0.000310064 0)
(0.000451878 -0.000342909 0)
(0.000550403 -0.000370528 0)
(0.000653995 -0.000393023 0)
(0.000761338 -0.000410681 0)
(0.000871214 -0.000423898 0)
(0.000982518 -0.000433113 0)
(0.00109426 -0.000438753 0)
(0.00120557 -0.000441181 0)
(0.00131567 -0.000440653 0)
(0.00142385 -0.000437281 0)
(0.00152946 -0.000430991 0)
(0.00163185 -0.000421488 0)
(0.00173031 -0.000408226 0)
(0.00182404 -0.000390377 0)
(0.00191207 -0.000366818 0)
(0.00199318 -0.00033613 0)
(0.00206583 -0.000296624 0)
(0.00212805 -0.000246406 0)
(0.00217735 -0.000183495 0)
(0.00221068 -0.000106005 0)
(0.00222439 -1.23932e-05 0)
(0.00221426 9.82106e-05 0)
(0.00217568 0.000225637 0)
(0.00210391 0.000368297 0)
(0.0019945 0.000522872 0)
(0.00184391 0.000684162 0)
(0.00165016 0.000845184 0)
(0.00141342 0.000997588 0)
(0.00113653 0.00113237 0)
(0.000825126 0.00124082 0)
(0.000487464 0.00131544 0)
(0.000133916 0.00135091 0)
(-0.000223844 0.00134466 0)
(-0.0005738 0.00129719 0)
(-0.000904606 0.00121203 0)
(-0.00120651 0.00109528 0)
(-0.00147207 0.000954893 0)
(-0.00169656 0.00079976 0)
(-0.00187802 0.000638716 0)
(-0.00201701 0.000479697 0)
(-0.00211604 0.000329124 0)
(-0.00217895 0.000191588 0)
(-0.00221028 6.98366e-05 0)
(-0.00221472 -3.50231e-05 0)
(-0.00219677 -0.00012318 0)
(-0.00216044 -0.000195744 0)
(-0.00210918 -0.000254386 0)
(-0.00204585 -0.000301044 0)
(-0.00197275 -0.000337685 0)
(-0.00189168 -0.000366141 0)
(-0.00180405 -0.000388012 0)
(-0.00171098 -0.000404627 0)
(-0.00161337 -0.000417017 0)
(-0.00151195 -0.000425926 0)
(-0.0014074 -0.000431829 0)
(-0.00130034 -0.000434968 0)
(-0.00119142 -0.00043538 0)
(-0.00108132 -0.000432929 0)
(-0.000970821 -0.000427342 0)
(-0.000860779 -0.000418249 0)
(-0.00075217 -0.000405221 0)
(-0.000646085 -0.000387821 0)
(-0.000543726 -0.000365659 0)
(-0.00044639 -0.000338455 0)
(-0.000355432 -0.000306107 0)
(-0.000272229 -0.000268783 0)
(-0.000198115 -0.000227013 0)
(-0.00013431 -0.000181801 0)
(-8.1847e-05 -0.000134744 0)
(-4.1587e-05 -8.81694e-05 0)
(-1.45208e-05 -4.53211e-05 0)
(-9.4331e-07 -1.0685e-05 0)
(1.20284e-06 -1.86024e-05 0)
(1.77645e-05 -6.84688e-05 0)
(5.01697e-05 -0.000126022 0)
(9.76961e-05 -0.000186656 0)
(0.000158823 -0.000246887 0)
(0.000232279 -0.000304132 0)
(0.00031667 -0.000356581 0)
(0.000410449 -0.000403083 0)
(0.000511997 -0.00044304 0)
(0.000619696 -0.000476286 0)
(0.000731984 -0.000502983 0)
(0.0008474 -0.000523513 0)
(0.000964607 -0.00053839 0)
(0.00108241 -0.00054818 0)
(0.00119977 -0.000553437 0)
(0.00131575 -0.000554641 0)
(0.00142959 -0.000552146 0)
(0.00154059 -0.000546135 0)
(0.00164814 -0.000536571 0)
(0.00175168 -0.000523157 0)
(0.00185062 -0.00050529 0)
(0.00194435 -0.000482023 0)
(0.00203209 -0.00045204 0)
(0.00211288 -0.000413641 0)
(0.00218544 -0.000364758 0)
(0.00224806 -0.000303016 0)
(0.00229848 -0.000225856 0)
(0.00233377 -0.00013074 0)
(0.00235024 -1.54586e-05 0)
(0.00234341 0.000121455 0)
(0.00230809 0.000280221 0)
(0.00223868 0.000459269 0)
(0.00212959 0.000654747 0)
(0.00197605 0.000860225 0)
(0.00177487 0.00106675 0)
(0.0015254 0.00126335 0)
(0.00123019 0.00143803 0)
(0.00089524 0.00157905 0)
(0.000529855 0.00167632 0)
(0.000145978 0.00172259 0)
(-0.000242802 0.00171439 0)
(-0.000622468 0.0016524 0)
(-0.000979841 0.00154142 0)
(-0.00130375 0.00138972 0)
(-0.00158594 0.00120804 0)
(-0.00182151 0.00100829 0)
(-0.00200902 0.000802193 0)
(-0.00214997 0.000600101 0)
(-0.00224811 0.000410159 0)
(-0.0023085 0.000237955 0)
(-0.00233672 8.65841e-05 0)
(-0.00233823 -4.29921e-05 0)
(-0.00231797 -0.000151426 0)
(-0.00228016 -0.00024045 0)
(-0.00222824 -0.000312405 0)
(-0.00216488 -0.00036986 0)
(-0.00209216 -0.000415333 0)
(-0.00201161 -0.000451105 0)
(-0.00192439 -0.000479124 0)
(-0.00183137 -0.000500964 0)
(-0.00173324 -0.000517827 0)
(-0.00163061 -0.000530554 0)
(-0.00152402 -0.000539661 0)
(-0.00141404 -0.000545385 0)
(-0.00130126 -0.000547718 0)
(-0.00118638 -0.00054645 0)
(-0.00107017 -0.000541212 0)
(-0.000953548 -0.000531516 0)
(-0.000837551 -0.00051681 0)
(-0.000723362 -0.000496534 0)
(-0.000612301 -0.000470181 0)
(-0.000505812 -0.00043738 0)
(-0.000405437 -0.000397977 0)
(-0.00031277 -0.000352135 0)
(-0.000229403 -0.000300442 0)
(-0.000156852 -0.00024402 0)
(-9.64833e-05 -0.000184639 0)
(-4.95426e-05 -0.000124816 0)
(-1.7537e-05 -6.79417e-05 0)
(-1.18796e-06 -1.85188e-05 0)
(1.41431e-06 -2.8001e-05 0)
(2.04869e-05 -9.52242e-05 0)
(5.74744e-05 -0.00016887 0)
(0.000111279 -0.000244357 0)
(0.000179871 -0.000318076 0)
(0.000261545 -0.000387284 0)
(0.000354512 -0.000450032 0)
(0.000456866 -0.000505092 0)
(0.000566679 -0.000551854 0)
(0.000682078 -0.000590205 0)
(0.000801304 -0.000620408 0)
(0.000922743 -0.000642979 0)
(0.00104495 -0.000658585 0)
(0.00116666 -0.000667953 0)
(0.00128677 -0.000671791 0)
(0.00140437 -0.000670723 0)
(0.00151867 -0.000665233 0)
(0.00162903 -0.000655607 0)
(0.00173495 -0.000641886 0)
(0.00183596 -0.000623812 0)
(0.0019317 -0.000600775 0)
(0.00202177 -0.000571761 0)
(0.0021057 -0.00053531 0)
(0.00218291 -0.000489482 0)
(0.00225252 -0.000431851 0)
(0.00231327 -0.000359549 0)
(0.00236333 -0.000269372 0)
(0.00240011 -0.000157995 0)
(0.00242007 -2.23235e-05 0)
(0.00241861 0.000140003 0)
(0.00239004 0.000329949 0)
(0.00232778 0.000546314 0)
(0.00222487 0.000784977 0)
(0.00207484 0.00103835 0)
(0.00187287 0.00129529 0)
(0.00161699 0.00154175 0)
(0.00130917 0.00176204 0)
(0.00095566 0.00194066 0)
(0.000566889 0.00206419 0)
(0.0001566 0.00212303 0)
(-0.000259394 0.00211252 0)
(-0.000664738 0.00203361 0)
(-0.00104413 0.00189269 0)
(-0.00138481 0.00170075 0)
(-0.00167766 0.00147203 0)
(-0.00191784 0.00122222 0)
(-0.00210474 0.000966552 0)
(-0.00224131 0.000718162 0)
(-0.00233299 0.000487036 0)
(-0.00238644 0.000279618 0)
(-0.00240848 9.90531e-05 0)
(-0.00240539 -5.4197e-05 0)
(-0.00238247 -0.000181583 0)
(-0.00234397 -0.000285733 0)
(-0.00229309 -0.000369847 0)
(-0.00223215 -0.000437238 0)
(-0.00216279 -0.000491026 0)
(-0.00208609 -0.000533943 0)
(-0.0020028 -0.000568252 0)
(-0.00191346 -0.000595731 0)
(-0.00181849 -0.000617696 0)
(-0.00171825 -0.000635034 0)
(-0.00161313 -0.000648256 0)
(-0.00150359 -0.00065755 0)
(-0.00139016 -0.000662831 0)
(-0.00127348 -0.000663784 0)
(-0.00115434 -0.000659911 0)
(-0.00103366 -0.000650586 0)
(-0.000912533 -0.000635105 0)
(-0.00079222 -0.000612751 0)
(-0.000674155 -0.000582874 0)
(-0.000559936 -0.00054497 0)
(-0.000451304 -0.00049879 0)
(-0.000350105 -0.000444449 0)
(-0.000258236 -0.000382549 0)
(-0.000177562 -0.000314292 0)
(-0.000109832 -0.000241582 0)
(-5.67104e-05 -0.000167094 0)
(-2.01989e-05 -9.43358e-05 0)
(-1.38296e-06 -2.77886e-05 0)
(1.5843e-06 -3.86636e-05 0)
(2.28659e-05 -0.000125423 0)
(6.4019e-05 -0.000216957 0)
(0.000123629 -0.000308679 0)
(0.000199171 -0.000396834 0)
(0.000288471 -0.000478519 0)
(0.000389281 -0.000551677 0)
(0.000499279 -0.000615045 0)
(0.000616182 -0.00066806 0)
(0.000737835 -0.000710724 0)
(0.000862267 -0.000743457 0)
(0.000987716 -0.000766962 0)
(0.00111264 -0.000782102 0)
(0.00123571 -0.000789797 0)
(0.00135581 -0.000790944 0)
(0.00147201 -0.000786344 0)
(0.00158358 -0.00077664 0)
(0.00168995 -0.000762263 0)
(0.0017907 -0.000743374 0)
(0.00188556 -0.00071981 0)
(0.00197436 -0.000691013 0)
(0.00205701 -0.000655974 0)
(0.00213342 -0.000613162 0)
(0.00220348 -0.00056047 0)
(0.00226687 -0.000495171 0)
(0.00232296 -0.000413924 0)
(0.00237057 -0.00031284 0)
(0.00240771 -0.000187683 0)
(0.0024313 -3.42275e-05 0)
(0.00243684 0.000151154 0)
(0.00241827 0.000370652 0)
(0.00236804 0.000623971 0)
(0.00227753 0.000907176 0)
(0.00213809 0.00121173 0)
(0.0019426 0.00152414 0)
(0.00168724 0.00182666 0)
(0.00137296 0.00209906 0)
(0.00100614 0.00232108 0)
(0.000598449 0.00247513 0)
(0.00016571 0.00254859 0)
(-0.000273661 0.00253538 0)
(-0.00070057 0.00243671 0)
(-0.00109724 0.00226101 0)
(-0.0014491 0.00202273 0)
(-0.00174615 0.00174053 0)
(-0.00198382 0.00143482 0)
(-0.00216281 0.00112511 0)
(-0.00228813 0.000827793 0)
(-0.0023675 0.000554727 0)
(-0.0024096 0.000312912 0)
(-0.00242269 0.00010505 0)
(-0.00241383 -6.94118e-05 0)
(-0.00238851 -0.000213169 0)
(-0.00235073 -0.000330074 0)
(-0.00230321 -0.000424387 0)
(-0.00224763 -0.000500271 0)
(-0.00218497 -0.000561464 0)
(-0.00211571 -0.000611116 0)
(-0.00204007 -0.000651743 0)
(-0.00195814 -0.000685251 0)
(-0.00186998 -0.000712992 0)
(-0.0017757 -0.00073583 0)
(-0.0016755 -0.000754214 0)
(-0.00156969 -0.000768233 0)
(-0.00145871 -0.000777682 0)
(-0.00134316 -0.000782106 0)
(-0.00122378 -0.000780855 0)
(-0.00110151 -0.000773129 0)
(-0.000977464 -0.000758043 0)
(-0.000852975 -0.000734693 0)
(-0.000729579 -0.000702236 0)
(-0.000609026 -0.000659992 0)
(-0.000493271 -0.000607559 0)
(-0.00038444 -0.000544946 0)
(-0.000284776 -0.000472712 0)
(-0.000196556 -0.000392094 0)
(-0.000121968 -0.000305108 0)
(-6.31322e-05 -0.000214589 0)
(-2.25288e-05 -0.000124177 0)
(-1.53603e-06 -3.83479e-05 0)
(1.71212e-06 -5.04164e-05 0)
(2.49256e-05 -0.000158715 0)
(6.98965e-05 -0.000269864 0)
(0.00013494 -0.000379167 0)
(0.000217032 -0.000482645 0)
(0.000313468 -0.000577206 0)
(0.00042147 -0.000660703 0)
(0.000538234 -0.000731901 0)
(0.000661081 -0.000790359 0)
(0.000787555 -0.000836269 0)
(0.000915474 -0.000870283 0)
(0.00104294 -0.000893349 0)
(0.00116833 -0.000906574 0)
(0.00129028 -0.000911112 0)
(0.00140767 -0.000908081 0)
(0.00151959 -0.000898485 0)
(0.00162535 -0.000883164 0)
(0.00172446 -0.000862728 0)
(0.00181662 -0.000837508 0)
(0.00190173 -0.000807492 0)
(0.00197985 -0.000772251 0)
(0.00205121 -0.000730866 0)
(0.00211617 -0.000681837 0)
(0.00217513 -0.000622995 0)
(0.00222846 -0.000551416 0)
(0.00227634 -0.000463359 0)
(0.00231849 -0.000354273 0)
(0.00235385 -0.000218915 0)
(0.00238013 -5.16922e-05 0)
(0.00239336 0.000152717 0)
(0.00238741 0.000398359 0)
(0.00235386 0.000686605 0)
(0.00228221 0.00101445 0)
(0.00216106 0.00137284 0)
(0.00198019 0.00174583 0)
(0.00173315 0.00211126 0)
(0.00141935 0.0024432 0)
(0.00104517 0.00271537 0)
(0.000623644 0.00290491 0)
(0.000173014 0.00299541 0)
(-0.000285294 0.00297899 0)
(-0.000729014 0.00285724 0)
(-0.00113753 0.00264111 0)
(-0.00149418 0.00234944 0)
(-0.0017881 0.00200648 0)
(-0.00201526 0.00163857 0)
(-0.00217827 0.00127054 0)
(-0.00228498 0.000922521 0)
(-0.00234611 0.000608172 0)
(-0.00237283 0.000334491 0)
(-0.00237496 0.000102982 0)
(-0.00236013 -8.86465e-05 0)
(-0.00233371 -0.000244887 0)
(-0.00229907 -0.000371177 0)
(-0.00225807 -0.000473031 0)
(-0.00221149 -0.000555512 0)
(-0.0021594 -0.000622949 0)
(-0.00210151 -0.000678824 0)
(-0.00203741 -0.000725797 0)
(-0.00196667 -0.000765789 0)
(-0.00188898 -0.000800089 0)
(-0.00180417 -0.000829456 0)
(-0.00171223 -0.000854203 0)
(-0.00161332 -0.000874273 0)
(-0.0015078 -0.000889297 0)
(-0.00139619 -0.000898649 0)
(-0.00127919 -0.000901493 0)
(-0.00115774 -0.000896831 0)
(-0.00103297 -0.000883566 0)
(-0.000906234 -0.000860567 0)
(-0.00077917 -0.000826755 0)
(-0.000653668 -0.000781209 0)
(-0.000531893 -0.000723307 0)
(-0.000416272 -0.000652871 0)
(-0.000309439 -0.000570348 0)
(-0.00021414 -0.000476955 0)
(-0.000133084 -0.000374804 0)
(-6.89043e-05 -0.000266917 0)
(-2.45607e-05 -0.000157152 0)
(-1.66074e-06 -5.00447e-05 0)
(1.79345e-06 -6.3093e-05 0)
(2.66958e-05 -0.000194804 0)
(7.52547e-05 -0.000327267 0)
(0.00014553 -0.000455481 0)
(0.000233953 -0.000575096 0)
(0.000337188 -0.000682777 0)
(0.000451832 -0.000776318 0)
(0.000574533 -0.000854592 0)
(0.000702185 -0.000917382 0)
(0.000832033 -0.000965176 0)
(0.000961703 -0.000998944 0)
(0.00108919 -0.00101994 0)
(0.00121282 -0.00102958 0)
(0.00133123 -0.00102927 0)
(0.00144331 -0.00102039 0)
(0.00154818 -0.00100416 0)
(0.0016452 -0.000981646 0)
(0.00173396 -0.000953673 0)
(0.00181426 -0.000920785 0)
(0.00188615 -0.000883183 0)
(0.00194992 -0.000840643 0)
(0.0020061 -0.000792437 0)
(0.00205546 -0.000737219 0)
(0.00209899 -0.000672903 0)
(0.00213779 -0.000596525 0)
(0.00217299 -0.000504101 0)
(0.00220544 -0.000390517 0)
(0.00223538 -0.00024953 0)
(0.00226182 -7.39956e-05 0)
(0.00228183 0.00014354 0)
(0.00228982 0.000409733 0)
(0.00227681 0.000728679 0)
(0.00223038 0.00109945 0)
(0.00213576 0.0015133 0)
(0.00197861 0.00195183 0)
(0.00174882 0.0023876 0)
(0.00144367 0.00278747 0)
(0.00106933 0.00311752 0)
(0.000640401 0.0033482 0)
(0.000177881 0.0034585 0)
(-0.000293435 0.00343829 0)
(-0.000747741 0.00328962 0)
(-0.00116124 0.00302659 0)
(-0.00151497 0.00267349 0)
(-0.00179717 0.00226164 0)
(-0.0020047 0.00182493 0)
(-0.00214286 0.00139474 0)
(-0.00222328 0.000995553 0)
(-0.00226061 0.000642536 0)
(-0.00226892 0.000341734 0)
(-0.00225949 9.23147e-05 0)
(-0.00224012 -0.000110702 0)
(-0.00221546 -0.000274251 0)
(-0.00218776 -0.000405697 0)
(-0.00215757 -0.000511927 0)
(-0.00212444 -0.000598877 0)
(-0.00208734 -0.000671351 0)
(-0.0020451 -0.000733011 0)
(-0.00199656 -0.000786498 0)
(-0.00194081 -0.000833597 0)
(-0.00187716 -0.000875415 0)
(-0.00180518 -0.000912509 0)
(-0.00172467 -0.00094499 0)
(-0.00163569 -0.0009726 0)
(-0.00153847 -0.000994772 0)
(-0.0014335 -0.00101068 0)
(-0.00132143 -0.00101928 0)
(-0.00120316 -0.00101935 0)
(-0.00107981 -0.00100955 0)
(-0.00095278 -0.000988504 0)
(-0.000823735 -0.000954831 0)
(-0.000694682 -0.000907309 0)
(-0.000567982 -0.000845005 0)
(-0.000446359 -0.000767458 0)
(-0.000332871 -0.000674899 0)
(-0.000230804 -0.000568453 0)
(-0.000143484 -0.000450303 0)
(-7.41624e-05 -0.000323719 0)
(-2.63205e-05 -0.000192918 0)
(-1.76714e-06 -6.26771e-05 0)
(1.8189e-06 -7.65285e-05 0)
(2.8219e-05 -0.000233472 0)
(8.03263e-05 -0.000389002 0)
(0.000155896 -0.000537466 0)
(0.000250682 -0.000673929 0)
(0.000360563 -0.000794751 0)
(0.000481389 -0.00089773 0)
(0.000609203 -0.000981973 0)
(0.000740471 -0.00104764 0)
(0.000872169 -0.00109563 0)
(0.00100178 -0.00112735 0)
(0.00112726 -0.00114443 0)
(0.00124692 -0.00114861 0)
(0.00135944 -0.00114161 0)
(0.00146372 -0.00112506 0)
(0.00155896 -0.00110042 0)
(0.00164454 -0.001069 0)
(0.0017201 -0.00103186 0)
(0.00178553 -0.000989785 0)
(0.00184098 -0.000943251 0)
(0.00188691 -0.000892313 0)
(0.0019241 -0.000836536 0)
(0.00195368 -0.000774863 0)
(0.00197714 -0.000705469 0)
(0.00199633 -0.000625569 0)
(0.00201336 -0.000531182 0)
(0.00203044 -0.000416869 0)
(0.00204941 -0.000275537 0)
(0.00207114 -9.84572e-05 0)
(0.00209455 0.000124306 0)
(0.00211542 0.000402841 0)
(0.00212509 0.000745336 0)
(0.00210945 0.00115468 0)
(0.00204974 0.00162388 0)
(0.00192626 0.00213233 0)
(0.00172402 0.00264617 0)
(0.00143738 0.00312311 0)
(0.00107214 0.00351947 0)
(0.000644723 0.00379745 0)
(0.000179129 0.0039305 0)
(-0.000296354 0.00390582 0)
(-0.000752213 0.003726 0)
(-0.00116132 0.00340895 0)
(-0.00150229 0.00298561 0)
(-0.00176248 0.00249614 0)
(-0.00194004 0.00198403 0)
(-0.00204385 0.00148886 0)
(-0.00209055 0.00104011 0)
(-0.00209967 0.000653796 0)
(-0.00208853 0.000333461 0)
(-0.0020694 7.42879e-05 0)
(-0.00204938 -0.000132578 0)
(-0.00203155 -0.000297153 0)
(-0.00201634 -0.000428962 0)
(-0.00200256 -0.00053623 0)
(-0.00198821 -0.000625605 0)
(-0.00197104 -0.000702143 0)
(-0.00194891 -0.000769448 0)
(-0.00191998 -0.000829917 0)
(-0.00188288 -0.000885022 0)
(-0.00183661 -0.000935549 0)
(-0.00178056 -0.000981762 0)
(-0.00171441 -0.00102351 0)
(-0.0016381 -0.00106029 0)