/*--------------------------------*- C++ -*----------------------------------*\
| =========                 |                                                 |
| \\      /  F ield         | OpenFOAM: The Open Source CFD Toolbox           |
|  \\    /   O peration     | Version:  2412                                  |
|   \\  /    A nd           | Website:  www.openfoam.com                      |
|    \\/     M anipulation  |                                                 |
\*---------------------------------------------------------------------------*/
FoamFile
{
    version     2.0;
    format      ascii;
    arch        "LSB;label=32;scalar=64";
    class       volScalarField;
    location    "5.45";
    object      alpha.lava;
}
// * * * * * * * * * * * * * * * * * * * * * * * * * * * * * * * * * * * * * //

dimensions      [0 0 0 0 0 0 0];

internalField   nonuniform List<scalar> 
6400
(
1
0.999996
0.999994
0.999998
1.00001
1.00002
1.00003
1.00002
1
0.999979
0.999968
0.999976
1
1.00003
1.00005
1.00004
1.00002
0.999989
0.999966
0.999962
0.999979
1.00001
1.00003
1.00004
1.00003
1.00001
0.999987
0.999973
0.999973
0.999987
1.00001
1.00002
1.00003
1.00002
1.00001
0.999997
0.999987
0.999985
0.999991
1
1.00001
1.00002
1.00002
1.00001
0.999999
0.999989
0.999985
0.999988
0.999996
1.00001
1.00001
1.00001
1
0.999991
0.999986
0.999987
0.999993
1
1
0.999999
0.999992
0.999986
0.999986
0.999994
1
1.00001
1.00001
0.999995
0.999979
0.99997
0.999974
0.99999
1.00001
1.00002
1.00002
1
0.99998
0.999966
0.999965
0.999985
1.00001
1.00001
1
0.999995
0.999989
0.999993
1
1.00002
1.00003
1.00003
1.00002
0.999998
0.999985
0.999985
1
1.00002
1.00004
1.00004
1.00003
1.00001
0.999988
0.99998
0.999984
0.999998
1.00001
1.00002
1.00002
1.00001
0.999994
0.999981
0.999976
0.999979
0.999989
1
1.00001
1.00001
1.00001
1
0.999993
0.999989
0.99999
0.999997
1.00001
1.00001
1.00002
1.00001
1.00001
0.999999
0.999994
0.999994
0.999998
1
1.00001
1.00001
1
0.999994
0.999989
0.999989
0.999995
1
1
0.999998
0.99999
0.999982
0.999981
0.999987
0.999998
1.00001
1.00001
0.999995
0.999981
0.999971
0.999972
0.999984
1
1.00002
1.00002
1.00001
1
0.999978
0.999998
1.00001
1.00001
1
0.999987
0.999982
0.999992
1.00001
1.00004
1.00005
1.00004
1.00002
0.999992
0.99998
0.999986
1.00001
1.00003
1.00005
1.00004
1.00003
1
0.999985
0.999979
0.999986
0.999999
1.00001
1.00002
1.00001
1
0.999988
0.999979
0.999974
0.999976
0.999983
0.999992
1
1.00001
1.00001
1
0.999997
0.999992
0.999991
0.999996
1.00001
1.00001
1.00002
1.00002
1.00001
1
0.999997
0.999996
1
1.00001
1.00001
1.00001
1
0.999994
0.99999
0.999992
0.999997
1
0.999999
0.999991
0.999981
0.999974
0.999977
0.999987
1
1.00001
1
0.99999
0.999974
0.999966
0.999971
0.999988
1.00001
1.00002
1.00002
1.00001
0.999982
0.999985
1.00001
1.00002
1.00002
1
0.999981
0.999975
0.999989
1.00002
1.00004
1.00006
1.00005
1.00002
0.999986
0.999971
0.99998
1.00001
1.00004
1.00005
1.00005
1.00003
0.999998
0.999977
0.999972
0.999981
0.999997
1.00001
1.00002
1.00001
0.999997
0.999983
0.999973
0.999969
0.999972
0.99998
0.99999
1
1.00001
1.00001
1
0.999996
0.999991
0.999991
0.999997
1.00001
1.00002
1.00002
1.00002
1.00001
1
0.999997
0.999997
1
1.00001
1.00001
1.00001
0.999998
0.99999
0.999988
0.999992
1
1
1
0.999987
0.999974
0.999967
0.999972
0.999988
1.00001
1.00001
1.00001
0.99999
0.99997
0.99996
0.999968
0.999991
1.00002
1.00003
1.00002
0.999995
0.999977
1.00001
1.00002
1.00003
1.00002
1
0.999978
0.999972
0.999987
1.00002
1.00005
1.00006
1.00005
1.00002
0.999986
0.999971
0.99998
1.00001
1.00003
1.00005
1.00004
1.00002
0.999995
0.999976
0.999971
0.99998
0.999993
1
1.00001
1
0.999993
0.999983
0.999976
0.999973
0.999974
0.999979
0.999987
0.999996
1
1.00001
1.00001
1
0.999995
0.999993
0.999997
1.00001
1.00001
1.00002
1.00002
1.00001
1
0.999997
0.999997
1
1.00001
1.00001
1
0.999993
0.999986
0.999985
0.999991
1
1
0.999998
0.999983
0.999968
0.999961
0.999969
0.999988
1.00001
1.00002
1.00001
0.999992
0.999971
0.999963
0.999972
0.999993
1.00001
1.00002
1.00001
0.999978
0.999992
1.00001
1.00003
1.00004
1.00003
1
0.999976
0.999967
0.999984
1.00002
1.00005
1.00006
1.00005
1.00002
0.999987
0.999971
0.999978
1
1.00003
1.00004
1.00004
1.00002
0.999994
0.999977
0.999972
0.999977
0.999987
0.999995
0.999998
0.999997
0.999992
0.999986
0.99998
0.999976
0.999974
0.999977
0.999984
0.999994
1
1.00001
1.00001
1
0.999998
0.999994
0.999996
1
1.00001
1.00002
1.00002
1.00001
1
0.999998
0.999998
1
1.00001
1.00001
0.999999
0.999989
0.999982
0.999983
0.999992
1
1.00001
1
0.999984
0.999966
0.999959
0.999968
0.999989
1.00001
1.00002
1.00001
0.999994
0.999973
0.999965
0.999974
0.999996
1.00001
1.00003
0.999993
0.999979
0.999987
1.00001
1.00004
1.00005
1.00003
1
0.999973
0.999964
0.999982
1.00002
1.00005
1.00007
1.00005
1.00002
0.999986
0.99997
0.999976
0.999999
1.00002
1.00004
1.00003
1.00001
0.999993
0.999978
0.999974
0.999978
0.999984
0.99999
0.999992
0.999993
0.999991
0.999989
0.999985
0.99998
0.999976
0.999976
0.999982
0.999991
1
1.00001
1.00001
1.00001
0.999999
0.999994
0.999994
1
1.00001
1.00001
1.00001
1.00001
1
0.999997
0.999998
1
1.00001
1
0.999995
0.999984
0.999978
0.999981
0.999993
1.00001
1.00001
1
0.999983
0.999964
0.999957
0.999967
0.99999
1.00001
1.00002
1.00002
0.999995
0.999974
0.999969
0.999981
0.999998
1.00003
1.00002
0.999977
0.999974
0.999984
1.00001
1.00004
1.00005
1.00004
1
0.999972
0.999962
0.999981
1.00002
1.00005
1.00006
1.00005
1.00002
0.999984
0.999968
0.999975
0.999996
1.00002
1.00003
1.00002
1.00001
0.99999
0.999979
0.999976
0.999979
0.999983
0.999986
0.999987
0.999989
0.999991
0.999991
0.99999
0.999985
0.99998
0.999978
0.999982
0.99999
1
1.00001
1.00001
1.00001
1
0.999994
0.999994
1
1.00001
1.00001
1.00001
1
0.999998
0.999996
0.999999
1
1.00001
1
0.999992
0.99998
0.999975
0.99998
0.999995
1.00001
1.00001
1
0.999984
0.999964
0.999957
0.999968
0.999992
1.00002
1.00002
1.00002
0.999994
0.999977
0.999976
0.999989
1.00002
1.00003
0.99999
0.999977
0.999967
0.999984
1.00002
1.00005
1.00006
1.00004
1
0.99997
0.99996
0.999979
1.00002
1.00005
1.00006
1.00004
1.00001
0.999982
0.999969
0.999976
0.999995
1.00001
1.00002
1.00001
1
0.999989
0.999982
0.999981
0.999982
0.999983
0.999982
0.999983
0.999985
0.999989
0.999993
0.999993
0.999989
0.999983
0.999979
0.999981
0.999988
0.999998
1.00001
1.00001
1.00001
1
0.999995
0.999995
1
1.00001
1.00001
1.00001
1
0.999996
0.999996
1
1.00001
1.00001
1
0.99999
0.999977
0.999972
0.99998
0.999997
1.00001
1.00002
1.00001
0.999985
0.999964
0.999958
0.99997
0.999994
1.00002
1.00002
1.00001
0.999995
0.999983
0.999987
1.00001
1.00003
1.00001
0.999996
0.999972
0.999965
0.999985
1.00002
1.00005
1.00006
1.00004
1
0.999969
0.999959
0.999978
1.00001
1.00004
1.00005
1.00004
1.00001
0.999981
0.999971
0.999978
0.999995
1.00001
1.00001
1.00001
0.999998
0.999989
0.999985
0.999985
0.999985
0.999983
0.99998
0.999979
0.999982
0.999988
0.999994
0.999996
0.999993
0.999987
0.999981
0.999981
0.999987
0.999996
1
1.00001
1.00001
1
0.999997
0.999997
1
1.00001
1.00001
1
0.999997
0.999994
0.999997
1
1.00001
1.00001
1
0.999988
0.999973
0.999969
0.999979
0.999999
1.00002
1.00002
1.00001
0.999987
0.999967
0.999961
0.999974
0.999997
1.00002
1.00002
1.00001
0.999997
0.999993
0.999994
1.00001
1.00003
1.00002
0.999998
0.999971
0.999964
0.999985
1.00002
1.00006
1.00006
1.00004
1
0.999969
0.99996
0.999978
1.00001
1.00004
1.00004
1.00003
1
0.999981
0.999973
0.999981
0.999995
1.00001
1.00001
1
0.999995
0.99999
0.999989
0.99999
0.999989
0.999986
0.999981
0.999979
0.999982
0.999989
0.999996
1
0.999997
0.99999
0.999984
0.999983
0.999988
0.999995
1
1.00001
1
1
0.999999
1
1
1.00001
1
0.999999
0.999993
0.999992
0.999997
1.00001
1.00002
1.00002
1
0.999986
0.999971
0.999968
0.99998
1
1.00002
1.00002
1.00001
0.999988
0.999969
0.999965
0.999979
0.999999
1.00002
1.00002
1.00001
1
0.999989
0.99998
1.00003
1.00004
1.00003
0.999998
0.999969
0.999963
0.999985
1.00002
1.00005
1.00006
1.00004
1
0.99997
0.999962
0.999979
1.00001
1.00003
1.00004
1.00002
1
0.999982
0.999977
0.999985
0.999997
1
1
0.999999
0.999992
0.99999
0.999991
0.999994
0.999993
0.999988
0.999982
0.999979
0.999982
0.999989
0.999997
1
0.999998
0.999992
0.999986
0.999985
0.999988
0.999995
1
1
1
1
1
1
1.00001
1.00001
1
0.999995
0.999989
0.999989
0.999996
1.00001
1.00002
1.00002
1
0.999985
0.999969
0.999967
0.99998
1
1.00002
1.00002
1.00001
0.999989
0.999972
0.99997
0.999982
1
1.00001
1.00001
1.00001
0.999992
0.999959
1.00002
1.00004
1.00005
1.00003
0.999997
0.999968
0.999964
0.999986
1.00002
1.00005
1.00006
1.00003
0.999999
0.999971
0.999965
0.999981
1.00001
1.00003
1.00003
1.00002
0.999996
0.999983
0.999981
0.999989
0.999999
1
1
0.999995
0.999989
0.999989
0.999992
0.999996
0.999995
0.99999
0.999983
0.999979
0.999981
0.999988
0.999995
0.999998
0.999997
0.999993
0.999989
0.999988
0.999991
0.999996
1
1
1
1
1
1.00001
1.00001
1.00001
1
0.999994
0.999987
0.999988
0.999996
1.00001
1.00002
1.00002
1
0.999985
0.99997
0.999968
0.999981
1
1.00002
1.00002
1.00001
0.999989
0.999976
0.999975
0.999987
1
1.00001
1.00001
0.999999
0.999957
0.999996
1.00002
1.00005
1.00005
1.00003
0.999997
0.99997
0.999965
0.999986
1.00002
1.00004
1.00005
1.00003
0.999998
0.999974
0.999969
0.999983
1.00001
1.00002
1.00002
1.00001
0.999995
0.999985
0.999986
0.999994
1
1
0.999999
0.999992
0.999987
0.999988
0.999993
0.999997
0.999996
0.999991
0.999984
0.99998
0.999981
0.999986
0.999993
0.999997
0.999998
0.999995
0.999993
0.999994
0.999996
1
1
1
1
1
1
1.00001
1.00001
1.00001
1
0.999994
0.999987
0.999987
0.999997
1.00001
1.00002
1.00002
1.00001
0.999986
0.999972
0.99997
0.999982
1
1.00002
1.00002
1.00001
0.999991
0.99998
0.999981
0.999992
1
1.00001
1.00001
0.999978
0.999977
0.999993
1.00002
1.00004
1.00005
1.00003
0.999998
0.999972
0.999967
0.999985
1.00001
1.00004
1.00004
1.00002
0.999996
0.999977
0.999974
0.999986
1.00001
1.00002
1.00002
1.00001
0.999994
0.999988
0.99999
0.999997
1
1
0.999997
0.99999
0.999986
0.999988
0.999994
0.999998
0.999998
0.999993
0.999987
0.999983
0.999983
0.999987
0.999993
0.999997
0.999999
0.999999
0.999999
1
1
1
1
1
0.999999
1
1
1.00001
1.00002
1.00001
1.00001
0.999995
0.999987
0.999987
0.999996
1.00001
1.00002
1.00002
1.00001
0.999989
0.999976
0.999975
0.999986
1
1.00001
1.00001
1.00001
0.999993
0.999986
0.999988
0.999997
1
1.00001
1.00001
0.999974
0.999974
0.999987
1.00001
1.00004
1.00004
1.00002
0.999996
0.999972
0.999967
0.999983
1.00001
1.00003
1.00003
1.00002
0.999994
0.999979
0.999978
0.999989
1
1.00001
1.00001
1
0.999994
0.999991
0.999994
1
1
1
0.999997
0.999991
0.999988
0.999991
0.999996
1
1
0.999997
0.999992
0.999988
0.999988
0.999992
0.999996
1
1
1
1
1.00001
1.00001
1.00001
1
1
0.999998
1
1.00001
1.00001
1.00002
1.00002
1.00001
0.999996
0.999988
0.999987
0.999996
1.00001
1.00002
1.00002
1.00001
0.999994
0.999983
0.999982
0.999992
1
1.00001
1.00001
1.00001
0.999998
0.999993
0.999996
1
1.00001
1.00003
0.999986
0.999973
0.999964
0.999981
1.00001
1.00003
1.00003
1.00002
0.999991
0.999971
0.999967
0.999981
1
1.00002
1.00002
1.00001
0.999993
0.999982
0.999983
0.999992
1
1.00001
1.00001
1
0.999996
0.999995
0.999998
1
1.00001
1.00001
1
0.999996
0.999994
0.999997
1
1
1.00001
1
0.999999
0.999997
0.999996
0.999998
1
1
1
1.00001
1.00001
1.00001
1.00001
1.00001
1
1
0.999997
0.999999
1.00001
1.00001
1.00002
1.00002
1.00001
0.999999
0.999991
0.99999
0.999998
1.00001
1.00002
1.00002
1.00001
1
0.999993
0.999992
0.999999
1.00001
1.00002
1.00001
1.00001
1
1
1
1.00001
1.00003
0.999999
0.999983
0.999964
0.99996
0.999973
0.999994
1.00001
1.00002
1
0.999985
0.999969
0.999966
0.999976
0.999994
1.00001
1.00001
1
0.999993
0.999985
0.999986
0.999994
1
1.00001
1.00001
1.00001
1
1
1
1.00001
1.00001
1.00001
1.00001
1.00001
1.00001
1.00001
1.00001
1.00001
1.00001
1.00001
1.00001
1.00001
1.00001
1.00001
1.00001
1.00001
1.00001
1.00001
1.00001
1.00001
1.00001
1.00001
1.00001
1
0.999998
0.999999
1.00001
1.00001
1.00002
1.00002
1.00001
1.00001
0.999998
0.999998
1.00001
1.00002
1.00003
1.00003
1.00002
1.00001
1.00001
1.00001
1.00001
1.00002
1.00002
1.00002
1.00002
1.00001
1.00001
1.00001
1.00001
1
0.99999
0.999976
0.999964
0.999961
0.999969
0.999984
0.999997
1
0.999995
0.999982
0.999972
0.999971
0.999978
0.99999
1
1
1
0.999994
0.999991
0.999993
0.999999
1.00001
1.00001
1.00001
1.00001
1.00001
1.00001
1.00001
1.00002
1.00002
1.00002
1.00002
1.00001
1.00001
1.00001
1.00002
1.00002
1.00002
1.00002
1.00002
1.00001
1.00001
1.00001
1.00001
1.00001
1.00001
1.00001
1.00001
1.00001
1.00001
1.00001
1.00001
1
1
1
1.00001
1.00002
1.00002
1.00002
1.00002
1.00001
1.00001
1.00001
1.00001
1.00002
1.00003
1.00003
1.00003
1.00002
1.00002
1.00001
1.00002
1.00002
1.00002
1.00002
1.00002
1.00002
1.00001
0.99983
0.999753
0.999767
0.999821
0.99982
0.999728
0.999681
0.999759
0.999817
0.999725
0.999682
0.999764
0.999831
0.99973
0.999684
0.999766
0.999856
0.999776
0.999737
0.999801
0.999882
0.999811
0.999775
0.999829
0.999912
0.999866
0.999836
0.999866
0.999931
0.999902
0.999878
0.999893
0.999943
0.999939
0.999918
0.999912
0.999935
0.999955
0.999935
0.999921
0.999924
0.999949
0.999948
0.999921
0.999903
0.999917
0.999937
0.999903
0.999875
0.999889
0.999929
0.9999
0.999868
0.999881
0.99993
0.999897
0.999856
0.999869
0.999929
0.999901
0.99986
0.999873
0.999933
0.999902
0.999858
0.99987
0.999933
0.999912
0.99988
0.999896
0.999949
0.999926
0.999904
0.999923
0.999961
0.999944
0.999943
0.999962
0.999967
0.999969
0.000146563
0.000220381
0.000207465
0.000153536
0.000147769
0.00022904
0.000263669
0.000178417
0.000118789
0.000214799
0.000263205
0.000184781
0.000117844
0.000215908
0.000259599
0.000178218
9.33639e-05
0.000180458
0.000227189
0.000168043
8.94062e-05
0.000162153
0.000201184
0.000153349
7.66738e-05
0.000130663
0.000166879
0.000140158
7.73062e-05
0.000108461
0.000136433
0.000125284
8.08932e-05
8.83263e-05
0.000111733
0.000117369
9.31778e-05
7.10126e-05
8.95713e-05
0.000102679
9.86185e-05
7.25157e-05
7.15398e-05
9.53358e-05
0.000110819
9.3066e-05
6.94098e-05
9.98509e-05
0.000125268
0.00011065
7.0508e-05
0.000102484
0.000136988
0.000126585
7.899e-05
0.000111929
0.0001522
0.000139695
8.17868e-05
0.000113766
0.000159917
0.000152817
9.58694e-05
0.000128097
0.00017185
0.00015793
9.39079e-05
0.000115736
0.000149219
0.000134045
8.18828e-05
0.000102522
0.000121233
9.8463e-05
5.79284e-05
7.14929e-05
7.20992e-05
5.26085e-05
5.13198e-05
4.63291e-05
4.83492e-20
1.79479e-19
2.47621e-14
2.93185e-14
4.19724e-19
5.71786e-19
5.94796e-19
7.88508e-19
1.90885e-19
1.49114e-18
7.30665e-14
5.98154e-14
4.70637e-19
7.70036e-19
7.70035e-19
7.46487e-19
2.339e-19
1.40942e-18
5.43629e-14
4.406e-14
2.2146e-19
2.46737e-19
3.07315e-19
1.8398e-19
3.99072e-20
5.18086e-19
1.92034e-14
1.94452e-14
-1.0415e-19
6.56773e-21
5.283e-20
2.57405e-20
3.75929e-24
6.44735e-20
2.36822e-15
5.76972e-15
3.17526e-15
2.75469e-16
2.39636e-27
2.47969e-22
1.9423e-21
-1.01658e-41
1.95204e-21
9.42883e-16
4.33868e-15
3.67454e-15
-1.03415e-26
-6.71203e-20
9.39245e-41
2.28673e-20
1.07192e-21
9.52651e-22
6.5483e-15
1.06938e-14
-4.1403e-26
-1.8977e-20
3.99146e-40
9.16785e-20
1.1823e-20
1.0865e-20
7.42866e-15
1.37825e-14
3.17123e-20
3.17123e-20
3.1712e-20
6.61058e-20
9.60437e-21
5.66026e-21
3.8874e-15
5.21333e-15
1.7757e-20
1.92548e-20
1.72409e-20
5.30353e-21
1.4734e-23
3.20356e-18
2.47442e-16
4.10618e-23
3.28857e-23
2.36986e-23
6.09311e-21
3.47205e-24
4.52943e-19
6.6421e-19
1.84571e-19
5.71787e-19
1.93626e-18
5.37415e-19
1.6039e-20
2.09273e-20
1.51804e-18
1.31528e-18
3.63249e-19
7.79388e-19
1.8737e-18
3.6913e-19
2.25259e-20
1.18463e-20
9.25422e-19
7.57318e-19
1.57322e-19
2.46739e-19
5.94045e-19
9.27636e-21
1.85918e-21
2.91977e-23
1.48011e-19
1.72626e-19
3.2824e-21
6.56589e-21
2.6082e-20
1.50689e-24
-2.12291e-50
8.15978e-30
2.33945e-25
7.07904e-21
3.13187e-21
-2.66059e-21
-7.18868e-33
3.4368e-32
-1.52085e-50
-1.16999e-22
2.72975e-27
-4.01911e-25
2.18313e-21
9.80397e-21
1.24782e-22
5.99551e-21
6.38575e-21
1.09855e-24
1.07056e-21
1.07322e-26
-2.28104e-20
8.6371e-20
1.28613e-20
8.84764e-20
1.07157e-19
7.14179e-20
1.18184e-20
4.6393e-26
-1.14395e-20
1.53459e-19
2.61478e-20
1.15714e-19
1.42597e-19
9.27826e-20
9.60231e-21
4.25421e-26
3.32281e-21
4.87375e-20
5.70039e-21
1.31085e-20
2.26882e-20
6.61582e-21
1.08523e-23
-4.75191e-26
1.24182e-21
1.51946e-22
2.26665e-22
2.26905e-23
1.20069e-24
2.07477e-26
8.14925e-25
3.2696e-24
1.40493e-25
1.38261e-24
2.60616e-26
2.28828e-24
3.66052e-25
5.05307e-27
-1.05898e-25
5.90526e-24
-2.17304e-24
5.61364e-25
4.86778e-27
6.57501e-25
4.74783e-26
1.74795e-27
-1.95587e-25
3.88247e-25
-2.53398e-24
2.07331e-29
-4.57429e-25
6.80412e-28
-2.04008e-26
1.7799e-23
1.14794e-39
1.73334e-34
7.06221e-34
-9.24065e-30
-1.43097e-25
-1.80792e-29
-5.68528e-26
3.87967e-46
5.54686e-39
-1.84089e-30
-4.79538e-26
6.68241e-38
1.14604e-33
-4.22456e-32
-1.33787e-27
-4.77019e-32
6.54845e-35
-2.4729e-26
-7.80615e-30
-8.85974e-27
-1.63596e-31
-2.55757e-25
-9.00778e-29
-5.29635e-27
2.34344e-31
1.38031e-27
-1.32606e-28
-3.44133e-25
4.83925e-27
7.34684e-41
-3.61624e-28
-1.01146e-25
1.564e-26
4.63919e-26
2.93527e-28
-5.63975e-25
1.6802e-25
4.43045e-25
1.74492e-25
3.98422e-25
5.58165e-26
3.18337e-26
2.79692e-26
2.57059e-25
4.84902e-26
1.15875e-25
1.89919e-25
8.11259e-26
8.08171e-26
3.86657e-27
9.02317e-27
1.24844e-27
5.84202e-27
1.30007e-25
5.52732e-24
2.07425e-26
5.26771e-26
2.16407e-26
1.40355e-26
2.17084e-27
2.60146e-26
4.70934e-26
6.82741e-27
5.05529e-27
4.09984e-26
4.01127e-26
5.96345e-27
1.32309e-27
8.22763e-27
2.49738e-26
2.46112e-27
1.75096e-27
7.78869e-27
9.20248e-27
1.18649e-27
6.84512e-29
1.19059e-28
1.26499e-27
1.30223e-28
4.05602e-30
-1.13964e-30
5.50812e-35
1.27621e-30
1.98499e-36
1.00918e-38
5.63558e-48
4.33158e-33
1.43126e-32
1.11065e-38
-4.49125e-38
8.75199e-34
5.09193e-33
2.32512e-33
1.50324e-36
1.03728e-44
2.27175e-44
5.65517e-33
1.32516e-32
1.75741e-37
2.23807e-31
6.02378e-31
8.47895e-31
4.68581e-34
2.09709e-31
1.57397e-30
-3.88493e-30
-8.87573e-33
6.21197e-30
8.11832e-29
1.1687e-29
-4.55601e-30
2.70776e-28
5.65152e-28
7.81164e-29
4.36173e-28
2.94601e-27
1.50144e-27
2.67157e-28
1.07408e-27
4.55895e-27
1.55777e-27
3.79829e-28
2.67426e-27
3.3002e-27
5.54045e-28
1.71873e-28
1.04339e-27
6.81251e-28
5.29338e-29
1.7696e-28
1.55626e-28
1.14624e-29
1.73249e-29
9.78162e-29
2.46679e-27
9.73034e-30
1.70278e-29
6.60798e-31
1.02052e-30
2.098e-31
3.03389e-30
9.87168e-31
2.42286e-31
3.33842e-31
4.12411e-30
5.63832e-31
2.72335e-31
1.51667e-31
1.01881e-30
1.65382e-31
5.79668e-32
3.56427e-32
4.14041e-31
1.12233e-31
2.00005e-32
3.81695e-33
1.09967e-32
5.08332e-33
9.90163e-35
7.545e-36
-3.76378e-37
8.61268e-39
1.01463e-38
1.18728e-38
1.34847e-38
1.42898e-38
1.41698e-38
1.31711e-38
1.11091e-38
8.38208e-39
5.53391e-39
3.19807e-39
1.44904e-39
4.59144e-40
7.89718e-41
2.42375e-44
9.06321e-42
1.1436e-38
1.05799e-37
3.70008e-37
8.49564e-37
1.47514e-36
2.12049e-36
2.49895e-36
2.45174e-36
3.15836e-36
3.45081e-36
4.39665e-36
2.55381e-35
8.37647e-35
-1.45128e-34
9.40359e-33
5.5532e-33
6.40862e-34
1.85926e-32
1.14166e-31
2.57269e-32
7.89933e-33
3.19625e-32
9.2162e-32
2.62645e-32
2.20584e-32
6.26593e-32
3.60974e-32
6.22314e-33
6.58949e-33
1.72622e-32
8.49064e-33
5.74694e-34
3.24763e-33
1.92187e-33
1.07442e-34
6.14504e-34
2.79627e-33
1.32477e-33
5.99529e-36
1.41968e-35
1.7178e-36
2.37329e-36
2.15447e-37
2.26423e-36
2.91989e-36
7.4641e-37
2.64104e-37
2.95619e-36
2.29351e-36
5.07102e-37
1.10459e-37
2.0051e-37
7.17003e-37
1.00008e-37
2.12665e-38
1.41566e-37
7.35117e-38
8.87456e-39
8.61497e-41
1.13434e-40
2.76285e-41
7.51105e-44
5.12001e-45
4.00778e-45
5.73786e-45
7.48579e-45
9.04842e-45
1.01116e-44
1.04634e-44
1.01779e-44
9.31278e-45
7.70617e-45
5.64453e-45
3.54134e-45
1.92411e-45
8.36916e-46
2.59782e-46
4.32255e-47
1.08732e-50
4.13375e-49
2.72172e-47
3.72083e-44
2.67677e-43
8.95477e-43
1.9778e-42
3.32647e-42
4.31791e-42
4.41869e-42
3.61325e-42
2.32267e-42
1.16145e-42
4.06875e-43
1.1946e-43
-9.10981e-40
1.22014e-40
1.66678e-39
6.75715e-40
1.07552e-38
5.24744e-38
3.90872e-38
1.21237e-38
5.77976e-38
2.16306e-37
9.07734e-38
2.9671e-38
1.95034e-37
2.64554e-37
5.17681e-38
1.96368e-38
1.04416e-37
7.36825e-38
5.89973e-39
1.76358e-38
1.7099e-38
1.26947e-39
1.52184e-39
2.80127e-39
9.87615e-39
7.46318e-41
1.64156e-40
2.68553e-41
4.309e-41
2.56505e-42
3.53059e-41
4.69884e-41
1.13394e-41
3.27241e-42
4.3207e-41
3.54494e-41
6.80436e-42
1.5508e-42
2.08493e-42
8.54621e-42
1.00224e-42
2.54495e-43
1.31194e-42
5.56352e-43
4.36458e-44
1.12505e-46
1.32583e-46
2.82745e-47
2.28566e-50
3.61399e-51
4.01674e-51
5.56025e-51
6.9941e-51
8.12082e-51
8.68135e-51
8.53212e-51
7.87691e-51
6.84875e-51
5.38515e-51
3.75417e-51
2.24206e-51
1.14585e-51
4.67617e-52
1.39247e-52
2.25824e-53
5.56531e-57
1.98324e-55
1.9368e-54
4.89885e-51
1.30186e-49
7.26225e-49
2.15792e-48
4.37615e-48
6.40274e-48
6.95832e-48
5.75379e-48
3.64306e-48
1.7559e-48
5.92936e-49
1.07696e-49
-6.92822e-45
1.83878e-46
7.16919e-45
2.55588e-45
8.58319e-44
4.21128e-43
3.67624e-43
1.23555e-43
6.94113e-43
2.6982e-42
1.13002e-42
3.48438e-43
2.75381e-42
3.96234e-42
7.99134e-43
3.04453e-43
1.69894e-42
1.19783e-42
9.38785e-44
2.70268e-43
2.75105e-43
2.15416e-44
2.11315e-44
2.30381e-44
2.48961e-43
8.07946e-46
3.25019e-45
6.0364e-46
9.53243e-46
7.65925e-47
7.83242e-46
9.82331e-46
2.29818e-46
7.90041e-47
8.58631e-46
6.9342e-46
1.22648e-46
2.91453e-47
3.42557e-47
1.30966e-46
1.37494e-47
3.5944e-48
1.57647e-47
5.66574e-48
3.27468e-49
6.86231e-52
5.69024e-52
5.76246e-53
2.38412e-56
3.40315e-57
4.75215e-57
6.33429e-57
7.63551e-57
8.44035e-57
8.54762e-57
7.9192e-57
6.85199e-57
5.56607e-57
4.08602e-57
2.64914e-57
1.47367e-57
7.00705e-58
2.64219e-58
7.31276e-59
1.12415e-59
2.92299e-63
1.07038e-61
6.54654e-61
7.24997e-60
2.53675e-56
3.60847e-55
1.66542e-54
4.40769e-54
7.73945e-54
9.45925e-54
8.31834e-54
5.45089e-54
2.62956e-54
8.66451e-55
1.47181e-55
-5.2493e-50
7.13188e-52
4.32339e-50
1.68612e-50
8.55365e-49
4.53889e-48
4.47641e-48
1.60707e-48
1.06047e-47
4.21399e-47
1.83408e-47
5.45959e-48
4.85788e-47
7.31277e-47
1.53136e-47
5.95191e-48
3.45008e-47
2.42027e-47
1.84232e-48
5.18351e-48
5.52008e-48
4.50891e-49
4.19229e-49
4.04261e-49
3.81458e-48
1.52201e-50
7.48226e-50
1.53707e-50
2.51827e-50
1.45096e-51
1.86474e-50
2.39144e-50
5.37568e-51
1.79718e-51
1.94865e-50
1.57202e-50
2.62366e-51
6.36929e-52
6.63938e-52
2.38863e-51
2.2949e-52
5.988e-53
2.24033e-52
6.89934e-53
3.10365e-54
5.40799e-57
3.11446e-57
1.65197e-58
2.90086e-62
4.23882e-63
6.16542e-63
7.83365e-63
8.94632e-63
9.319e-63
8.82977e-63
7.61397e-63
6.10867e-63
4.60003e-63
3.13699e-63
1.88601e-63
9.74238e-64
4.32371e-64
1.52435e-64
3.95352e-65
5.75441e-66
1.6386e-69
6.37076e-68
3.98056e-67
1.79663e-66
7.8269e-64
1.10127e-61
9.2581e-61
3.46596e-60
7.73037e-60
1.11298e-59
1.06563e-59
7.54006e-60
3.82911e-60
1.2751e-60
2.15303e-61
-4.30221e-55
3.48948e-57
3.15059e-55
1.40513e-55
1.00307e-53
6.02802e-53
6.59302e-53
2.55042e-53
1.96424e-52
7.79006e-52
3.58234e-52
1.04034e-52
1.03823e-51
1.62895e-51
3.54762e-52
1.40242e-52
8.34794e-52
5.8586e-52
4.37833e-53
1.19696e-52
1.3351e-52
1.13373e-53
1.01144e-53
9.00314e-54
9.27377e-53
4.4545e-55
2.12462e-54
4.83959e-55
7.60838e-55
5.54371e-56
5.55656e-55
6.89719e-55
1.48884e-55
5.46995e-56
5.32554e-55
4.18982e-55
6.58826e-56
1.62122e-56
1.56024e-56
5.14128e-56
4.54799e-57
1.1762e-57
3.78418e-57
9.97705e-58
3.58082e-59
5.16389e-62
2.07082e-62
6.14287e-64
3.74579e-68
5.99889e-69
8.39485e-69
1.00412e-68
1.07282e-68
1.03924e-68
9.09393e-69
7.19224e-69
5.26302e-69
3.6173e-69
2.27942e-69
1.26559e-69
6.06765e-70
2.52567e-70
8.45742e-71
2.10961e-71
2.99941e-72
1.01781e-75
4.46066e-74
2.84115e-73
1.21342e-72
9.69891e-72
2.82604e-68
4.49325e-67
2.38919e-66
6.89478e-66
1.20546e-65
1.2684e-65
9.76587e-66
5.42837e-66
1.92756e-66
3.33413e-67
-3.95779e-60
2.05286e-62
2.79583e-60
1.27834e-60
1.38069e-58
9.66219e-58
1.14752e-57
4.79291e-58
4.29351e-57
1.73122e-56
8.27512e-57
2.40469e-57
2.60725e-56
4.24872e-56
9.58519e-57
3.88971e-57
2.36208e-56
1.66859e-56
1.22353e-57
3.26619e-57
3.80798e-57
3.31868e-58
2.9006e-58
2.40311e-58
3.14651e-57
1.41223e-59
7.06883e-59
1.66344e-59
2.65303e-59
1.67671e-60
1.82939e-59
2.26974e-59
4.70899e-60
1.79353e-60
1.66545e-59
1.2785e-59
1.91585e-60
4.74927e-61
4.24729e-61
1.29092e-60
1.05521e-61
2.6671e-62
7.48613e-62
1.69653e-62
4.93954e-64
5.83707e-67
1.64798e-67
2.83522e-69
5.28968e-74
9.07902e-75
1.19715e-74
1.33875e-74
1.33147e-74
1.19224e-74
9.61287e-75
6.94364e-75
4.61586e-75
2.92049e-75
1.69624e-75
8.75266e-76
3.94258e-76
1.56319e-76
5.07705e-77
1.25297e-77
1.79866e-78
7.48798e-82
3.43317e-80
2.25651e-79
9.25714e-79
6.54277e-78
2.747e-75
1.52842e-73
1.30377e-72
5.19492e-72
1.17363e-71
1.45386e-71
1.24018e-71
7.66299e-72
3.0455e-72
5.71857e-73
-4.91509e-65
1.29021e-67
2.59059e-65
1.10768e-66
2.19283e-63
1.81095e-62
2.38298e-62
1.06117e-62
1.08386e-61
4.50142e-61
2.21867e-61
6.53349e-62
7.60524e-61
1.28253e-60
2.98786e-61
1.2442e-61
7.66468e-61
5.47774e-61
3.96979e-62
1.02959e-61
1.25795e-61
1.12097e-62
9.62507e-63
7.47538e-63
1.20385e-61
5.50622e-64
2.67331e-63
6.63953e-64
1.04194e-63
7.07391e-65
7.00369e-64
8.51199e-64
1.70367e-64
6.69492e-65
5.92036e-64
4.42457e-64
6.34084e-65
1.5744e-65
1.3182e-65
3.72165e-65
2.82275e-66
6.88753e-67
1.713e-66
3.34722e-67
8.02773e-69
7.7683e-72
1.57272e-72
1.62219e-74
8.1859e-80
1.49759e-80
1.84954e-80
1.92864e-80
1.77161e-80
1.45523e-80
1.0742e-80
6.98982e-81
4.19255e-81
2.40152e-81
1.26951e-81
6.03349e-82
2.54854e-82
2.09516e-82
2.09516e-82
1.16878e-81
1.04336e-81
2.06918e-84
1.85733e-85
1.857e-85
7.68302e-85
5.19632e-84
5.27481e-83
1.57587e-80
4.76254e-79
3.18671e-78
1.03564e-77
1.66336e-77
1.64892e-77
1.1343e-77
5.0804e-78
1.09055e-78
-8.30248e-70
7.25588e-73
3.29759e-70
-9.59645e-66
2.23727e-68
3.94217e-67
5.73465e-67
2.72187e-67
3.12193e-66
1.35e-65
6.84403e-66
2.04301e-66
2.49182e-65
4.39837e-65
1.05705e-65
4.5274e-66
2.81078e-65
2.03227e-65
1.46027e-66
3.70391e-66
4.70561e-66
4.25721e-67
3.63314e-67
2.67112e-67
5.15305e-66
2.30537e-68
1.13394e-67
2.89397e-68
4.56179e-68
2.96197e-69
2.96363e-68
3.55837e-68
6.91832e-69
2.77451e-69
2.35877e-68
1.72197e-68
2.36524e-69
5.85416e-70
4.61209e-70
1.21898e-69
8.61219e-71
2.00804e-71
4.4796e-71
7.60382e-72
1.51993e-73
1.20769e-76
1.78958e-77
1.14677e-79
1.45023e-85
2.72719e-86
3.14017e-86
3.03139e-86
2.55262e-86
1.9037e-86
1.26514e-86
7.29621e-87
3.85939e-87
1.94365e-87
1.94425e-87
2.20182e-87
1.25017e-84
8.07232e-82
2.59767e-80
5.21749e-80
4.68023e-80
2.45509e-80
1.22422e-85
4.47126e-90
2.74864e-90
4.24042e-90
4.58321e-89
5.34324e-88
1.06875e-85
1.68594e-84
8.5592e-84
1.91826e-83
2.38098e-83
1.82214e-83
8.92445e-84
2.22529e-84
-2.26819e-74
0
4.96264e-75
-4.35604e-69
-2.01187e-88
1.01648e-71
1.5719e-71
8.06334e-72
1.00864e-70
4.6111e-70
2.40389e-70
7.13899e-71
6.5496e-70
1.5929e-69
4.2092e-70
1.84572e-70
1.15856e-69
8.42386e-70
6.02294e-71
1.5e-70
1.9696e-70
1.80754e-71
1.53445e-71
1.0751e-71
2.4284e-70
1.09969e-72
5.34213e-72
1.40612e-72
2.20014e-72
1.42852e-73
1.39556e-72
1.64621e-72
3.12234e-73
1.27452e-73
1.04364e-72
7.46303e-73
9.86772e-74
2.42354e-74
1.80776e-74
4.49738e-74
2.97202e-75
6.59082e-76
1.32989e-75
1.97765e-76
3.3345e-78
2.18957e-81
2.42346e-82
1.00016e-84
2.98355e-91
5.40943e-92
5.8023e-92
5.16572e-92
3.97547e-92
2.6785e-92
1.5861e-92
8.47459e-93
8.81887e-93
2.50933e-90
5.64497e-87
1.13981e-83
1.56253e-80
1.03624e-77
2.74633e-76
5.50853e-76
4.9425e-76
2.55536e-76
1.35023e-81
1.30656e-86
6.28309e-91
8.36462e-95
5.09356e-95
5.44471e-94
1.61846e-92
8.11393e-91
6.7597e-90
2.16828e-89
3.618e-89
3.22253e-89
1.67681e-89
4.69126e-90
-7.83369e-79
0
8.87059e-80
-1.26472e-72
-7.06794e-77
3.04561e-76
4.88046e-76
2.71747e-76
3.66465e-75
1.76862e-74
9.49115e-75
2.76704e-75
-4.55864e-70
3.60782e-92
1.86733e-74
8.3509e-75
5.30464e-74
3.8682e-74
2.72588e-75
6.77519e-75
9.11982e-75
8.49109e-76
7.18287e-76
4.81213e-76
1.25208e-74
5.69923e-77
2.76346e-76
7.45645e-77
1.16177e-76
7.41467e-78
7.20892e-77
8.37101e-77
1.55338e-77
6.39759e-78
5.088e-77
3.57669e-77
4.5758e-78
1.10977e-78
7.87885e-79
1.85626e-78
1.15246e-79
2.42478e-80
4.46938e-80
5.86246e-81
8.45268e-83
4.6285e-86
3.90502e-87
1.07637e-89
7.4089e-97
1.1641e-97
1.16224e-97
9.52904e-98
6.69946e-98
6.71381e-98
6.87665e-97
2.74367e-93
1.0538e-89
3.07153e-86
7.00365e-83
1.18158e-79
1.60292e-76
1.03843e-73
2.55053e-72
5.01963e-72
4.50359e-72
2.34583e-72
1.31039e-77
1.35719e-82
7.11295e-87
2.63467e-91
9.11496e-96
4.98717e-99
3.75283e-99
3.68119e-97
5.35312e-96
2.36259e-95
5.47918e-95
6.17576e-95
3.39358e-95
1.02058e-95
-3.32095e-83
-6.46243e-87
1.87839e-84
-3.07508e-76
-1.42999e-79
1.00588e-80
1.72147e-80
1.03035e-80
1.50199e-79
7.56398e-79
4.18441e-79
1.24489e-79
-1.31523e-72
0
8.26479e-79
4.20573e-79
2.67425e-78
1.94994e-78
1.14175e-79
3.24209e-79
4.6535e-79
4.39568e-80
3.6893e-80
2.36603e-80
7.0156e-79
3.23625e-81
1.55594e-80
4.31369e-81
6.67493e-81
4.20696e-82
4.05678e-81
4.65008e-81
8.44484e-82
3.52463e-82
2.72124e-81
1.8853e-81
2.34637e-82
5.5971e-83
3.80397e-83
8.53173e-83
5.00009e-84
9.97577e-85
1.69513e-84
1.9779e-85
2.46937e-87
1.14027e-90
7.49588e-92
1.43514e-94
2.34151e-102
2.75899e-103
2.64937e-103
2.8992e-103
2.69604e-100
1.58127e-96
7.67934e-93
3.12845e-89
1.0566e-85
3.00036e-82
6.63645e-79
1.09065e-75
1.46532e-72
9.25645e-70
2.09362e-68
4.03583e-68
3.62163e-68
1.89809e-68
1.12147e-73
1.24808e-78
7.16576e-83
2.95488e-87
1.16405e-91
5.19643e-96
2.61234e-100
4.44784e-102
4.40423e-102
2.56319e-101
7.84881e-101
1.21501e-100
7.01211e-101
2.45175e-101
-1.66594e-87
-7.57117e-91
4.68348e-89
-7.09386e-80
-4.87614e-83
3.48985e-85
6.92103e-85
4.38004e-85
6.87363e-84
3.59146e-83
2.0408e-83
6.21348e-84
-1.90027e-75
-1.4373e-78
6.0695e-101
2.49477e-83
1.46889e-82
1.01622e-82
-3.99481e-80
1.63605e-84
2.59557e-83
2.45722e-84
2.06796e-84
1.27191e-84
4.24372e-83
1.98004e-85
9.49011e-85
2.68286e-85
4.14857e-85
2.59256e-86
2.47541e-85
2.80763e-85
4.99498e-86
2.10278e-86
1.5863e-85
1.08708e-85
1.324e-86
3.09728e-87
2.02444e-87
4.35105e-87
2.41888e-88
4.58381e-89
7.24413e-89
7.59513e-90
8.31358e-92
3.27939e-95
1.71805e-96
2.37257e-99
3.21159e-105
3.21159e-105
6.08332e-104
4.65423e-100
2.90996e-96
1.57897e-92
7.35023e-89
2.89242e-85
9.43763e-82
2.61276e-78
5.60224e-75
8.96903e-72
1.19438e-68
7.342e-66
1.51832e-64
2.8611e-64