/*--------------------------------*- C++ -*----------------------------------*\
| =========                 |                                                 |
| \\      /  F ield         | OpenFOAM: The Open Source CFD Toolbox           |
|  \\    /   O peration     | Version:  2412                                  |
|   \\  /    A nd           | Website:  www.openfoam.com                      |
|    \\/     M anipulation  |                                                 |
\*---------------------------------------------------------------------------*/
FoamFile
{
    version     2.0;
    format      ascii;
    arch        "LSB;label=32;scalar=64";
    class       volScalarField;
    location    "6.45";
    object      p_rgh;
}
// * * * * * * * * * * * * * * * * * * * * * * * * * * * * * * * * * * * * * //

dimensions      [1 -1 -2 0 0 0 0];

internalField   nonuniform List<scalar> 
6400
(
7792.87
7792.93
7792.95
7792.9
7792.76
7792.55
7792.27
7791.93
7791.53
7791.08
7790.57
7789.98
7789.29
7788.48
7787.51
7786.33
7784.92
7783.22
7781.19
7778.79
7775.99
7772.77
7769.11
7765.01
7760.48
7755.56
7750.29
7744.73
7738.96
7733.08
7727.18
7721.39
7715.83
7710.61
7705.85
7701.68
7698.19
7695.47
7693.58
7692.59
7692.51
7693.34
7695.06
7697.63
7700.98
7705.02
7709.66
7714.78
7720.25
7725.97
7731.8
7737.64
7743.37
7748.9
7754.15
7759.06
7763.57
7767.66
7771.31
7774.52
7777.3
7779.67
7781.68
7783.34
7784.71
7785.83
7786.74
7787.5
7788.12
7788.64
7789.08
7789.46
7789.79
7790.06
7790.28
7790.43
7790.51
7790.53
7790.48
7790.4
7792.8
7792.86
7792.89
7792.83
7792.7
7792.5
7792.23
7791.89
7791.51
7791.08
7790.6
7790.05
7789.4
7788.63
7787.71
7786.59
7785.23
7783.58
7781.59
7779.23
7776.47
7773.26
7769.6
7765.49
7760.93
7755.97
7750.63
7744.99
7739.13
7733.14
7727.12
7721.21
7715.52
7710.17
7705.3
7701.02
7697.44
7694.65
7692.72
7691.69
7691.61
7692.46
7694.24
7696.88
7700.31
7704.46
7709.21
7714.45
7720.05
7725.89
7731.85
7737.79
7743.62
7749.23
7754.55
7759.51
7764.05
7768.15
7771.8
7775
7777.75
7780.09
7782.04
7783.66
7784.98
7786.05
7786.92
7787.62
7788.19
7788.68
7789.09
7789.44
7789.75
7790.01
7790.22
7790.36
7790.44
7790.45
7790.4
7790.31
7792.73
7792.81
7792.84
7792.79
7792.66
7792.46
7792.19
7791.87
7791.52
7791.12
7790.69
7790.19
7789.62
7788.94
7788.11
7787.09
7785.82
7784.26
7782.37
7780.08
7777.37
7774.2
7770.55
7766.41
7761.8
7756.74
7751.28
7745.48
7739.43
7733.22
7726.97
7720.81
7714.87
7709.28
7704.17
7699.68
7695.92
7692.98
7690.95
7689.87
7689.79
7690.69
7692.55
7695.33
7698.95
7703.3
7708.28
7713.77
7719.62
7725.71
7731.9
7738.06
7744.08
7749.86
7755.31
7760.36
7764.97
7769.1
7772.74
7775.91
7778.61
7780.87
7782.74
7784.26
7785.49
7786.46
7787.24
7787.85
7788.35
7788.77
7789.13
7789.44
7789.72
7789.96
7790.16
7790.3
7790.37
7790.37
7790.31
7790.21
7792.7
7792.78
7792.82
7792.77
7792.64
7792.44
7792.17
7791.86
7791.53
7791.19
7790.82
7790.41
7789.95
7789.39
7788.69
7787.81
7786.69
7785.28
7783.51
7781.34
7778.72
7775.6
7771.96
7767.79
7763.1
7757.9
7752.25
7746.21
7739.87
7733.34
7726.73
7720.2
7713.87
7707.9
7702.43
7697.62
7693.57
7690.41
7688.22
7687.07
7686.98
7687.95
7689.96
7692.95
7696.84
7701.51
7706.85
7712.72
7718.96
7725.42
7731.97
7738.47
7744.78
7750.81
7756.45
7761.65
7766.34
7770.51
7774.15
7777.27
7779.88
7782.04
7783.79
7785.17
7786.25
7787.07
7787.71
7788.2
7788.58
7788.91
7789.19
7789.45
7789.7
7789.92
7790.11
7790.25
7790.32
7790.31
7790.23
7790.13
7792.68
7792.78
7792.82
7792.78
7792.64
7792.42
7792.14
7791.85
7791.55
7791.25
7790.97
7790.68
7790.35
7789.96
7789.45
7788.77
7787.85
7786.64
7785.05
7783.04
7780.54
7777.5
7773.89
7769.68
7764.88
7759.51
7753.6
7747.24
7740.51
7733.53
7726.43
7719.37
7712.51
7706.01
7700.05
7694.78
7690.34
7686.87
7684.47
7683.19
7683.09
7684.16
7686.38
7689.67
7693.94
7699.06
7704.9
7711.29
7718.06
7725.06
7732.1
7739.05
7745.76
7752.12
7758.03
7763.42
7768.23
7772.45
7776.07
7779.11
7781.61
7783.61
7785.17
7786.36
7787.23
7787.85
7788.3
7788.62
7788.87
7789.07
7789.26
7789.46
7789.66
7789.87
7790.06
7790.2
7790.27
7790.25
7790.16
7790.04
7792.68
7792.8
7792.85
7792.79
7792.63
7792.38
7792.08
7791.79
7791.51
7791.29
7791.11
7790.96
7790.82
7790.64
7790.37
7789.95
7789.3
7788.34
7787.01
7785.22
7782.89
7779.97
7776.4
7772.16
7767.23
7761.63
7755.4
7748.62
7741.38
7733.82
7726.08
7718.34
7710.78
7703.59
7696.97
7691.1
7686.15
7682.27
7679.58
7678.16
7678.05
7679.25
7681.73
7685.42
7690.19
7695.91
7702.4
7709.47
7716.95
7724.62
7732.32
7739.86
7747.09
7753.88
7760.12
7765.74
7770.7
7774.97
7778.55
7781.49
7783.82
7785.61
7786.93
7787.85
7788.46
7788.83
7789.03
7789.13
7789.18
7789.23
7789.3
7789.42
7789.58
7789.78
7789.98
7790.13
7790.21
7790.19
7790.09
7789.95
7792.69
7792.83
7792.89
7792.81
7792.6
7792.3
7791.96
7791.64
7791.4
7791.25
7791.2
7791.23
7791.32
7791.4
7791.43
7791.34
7791.03
7790.42
7789.41
7787.91
7785.82
7783.06
7779.57
7775.29
7770.22
7764.35
7757.73
7750.43
7742.57
7734.27
7725.73
7717.13
7708.68
7700.61
7693.15
7686.51
7680.9
7676.49
7673.43
7671.81
7671.69
7673.06
7675.89
7680.08
7685.5
7691.97
7699.29
7707.25
7715.62
7724.17
7732.68
7740.96
7748.84
7756.16
7762.81
7768.72
7773.84
7778.15
7781.68
7784.46
7786.57
7788.07
7789.07
7789.66
7789.92
7789.96
7789.85
7789.67
7789.48
7789.34
7789.27
7789.29
7789.41
7789.61
7789.83
7790.03
7790.14
7790.13
7790.01
7789.84
7792.7
7792.88
7792.94
7792.82
7792.52
7792.12
7791.7
7791.36
7791.14
7791.08
7791.18
7791.43
7791.79
7792.21
7792.62
7792.93
7793.06
7792.88
7792.29
7791.17
7789.39
7786.86
7783.49
7779.21
7773.98
7767.8
7760.72
7752.8
7744.16
7734.97
7725.43
7715.75
7706.19
7697.01
7688.49
7680.88
7674.44
7669.37
7665.84
7663.97
7663.83
7665.42
7668.69
7673.52
7679.75
7687.18
7695.55
7704.62
7714.1
7723.72
7733.25
7742.45
7751.12
7759.09
7766.23
7772.46
7777.75
7782.09
7785.51
7788.08
7789.88
7791.02
7791.61
7791.76
7791.59
7791.21
7790.71
7790.2
7789.72
7789.35
7789.11
7789.03
7789.1
7789.3
7789.58
7789.86
7790.03
7790.06
7789.92
7789.69
7792.7
7792.95
7793
7792.78
7792.33
7791.77
7791.24
7790.85
7790.67
7790.71
7790.99
7791.5
7792.19
7793.01
7793.88
7794.7
7795.36
7795.74
7795.68
7795.04
7793.69
7791.48
7788.29
7784.04
7778.66
7772.14
7764.51
7755.85
7746.29
7736.01
7725.24
7714.23
7703.3
7692.75
7682.91
7674.1
7666.6
7660.7
7656.58
7654.4
7654.24
7656.11
7659.93
7665.56
7672.81
7681.43
7691.12
7701.55
7712.42
7723.38
7734.15
7744.46
7754.08
7762.81
7770.52
7777.13
7782.59
7786.93
7790.18
7792.45
7793.85
7794.5
7794.56
7794.16
7793.45
7792.55
7791.6
7790.67
7789.85
7789.19
7788.75
7788.53
7788.55
7788.77
7789.14
7789.55
7789.85
7789.95
7789.81
7789.49
7792.67
7793.05
7793.02
7792.58
7791.87
7791.08
7790.43
7790.01
7789.88
7790.05
7790.55
7791.35
7792.43
7793.73
7795.16
7796.61
7797.94
7799
7799.62
7799.62
7798.81
7797.03
7794.12
7789.95
7784.44
7777.55
7769.3
7759.77
7749.11
7737.51
7725.25
7712.63
7700.01
7687.77
7676.3
7665.99
7657.2
7650.25
7645.4
7642.83
7642.65
7644.86
7649.36
7656
7664.52
7674.62
7685.93
7698.06
7710.61
7723.21
7735.5
7747.15
7757.9
7767.53
7775.89
7782.9
7788.52
7792.8
7795.8
7797.66
7798.52
7798.55
7797.94
7796.85
7795.48
7793.96
7792.43
7791.01
7789.78
7788.79
7788.1
7787.72
7787.64
7787.85
7788.31
7788.91
7789.47
7789.77
7789.68
7789.23
7792.65
7793.11
7792.84
7791.92
7790.76
7789.73
7789.04
7788.7
7788.68
7789.03
7789.77
7790.92
7792.45
7794.31
7796.4
7798.61
7800.76
7802.68
7804.15
7804.95
7804.86
7803.66
7801.15
7797.15
7791.54
7784.26
7775.32
7764.78
7752.81
7739.65
7725.59
7711.01
7696.34
7682.02
7668.54
7656.37
7645.97
7637.72
7631.95
7628.9
7628.68
7631.31
7636.67
7644.57
7654.66
7666.6
7679.91
7694.13
7708.75
7723.34
7737.44
7750.7
7762.78
7773.46
7782.56
7789.99
7795.75
7799.89
7802.52
7803.82
7803.98
7803.22
7801.76
7799.83
7797.63
7795.35
7793.14
7791.13
7789.42
7788.06
7787.08
7786.48
7786.22
7786.31
7786.75
7787.57
7788.56
7789.32
7789.46
7788.9
7792.7
7793.02
7792.2
7790.49
7788.75
7787.55
7786.97
7786.84
7787.02
7787.56
7788.55
7790.08
7792.12
7794.63
7797.51
7800.62
7803.78
7806.76
7809.3
7811.13
7811.97
7811.55
7809.59
7805.88
7800.24
7792.57
7782.85
7771.16
7757.66
7742.62
7726.41
7709.45
7692.26
7675.4
7659.44
7644.96
7632.56
7622.69
7615.78
7612.11
7611.85
7615.02
7621.47
7630.93
7643.01
7657.21
7672.99
7689.76
7706.92
7723.91
7740.22
7755.38
7769.04
7780.92
7790.83
7798.7
7804.53
7808.41
7810.51
7811.06
7810.31
7808.53
7806.01
7803.02
7799.81
7796.61
7793.6
7790.93
7788.68
7786.9
7785.61
7784.75
7784.23
7784.04
7784.31
7785.26
7786.8
7788.33
7789.01
7788.58
7792.98
7792.81
7791.14
7788.54
7786.26
7784.93
7784.5
7784.57
7784.92
7785.61
7786.82
7788.71
7791.31
7794.55
7798.36
7802.56
7806.94
7811.22
7815.1
7818.23
7820.28
7820.88
7819.7
7816.45
7810.88
7802.84
7792.28
7779.26
7763.97
7746.71
7727.9
7708.07
7687.83
7667.84
7648.83
7631.53
7616.62
7604.72
7596.37
7591.93
7591.62
7595.45
7603.25
7614.66
7629.2
7646.21
7665.05
7684.96
7705.21
7725.12
7744.07
7761.51
7777.02
7790.27
7801.08
7809.36
7815.16
7818.62
7819.98
7819.51
7817.57
7814.5
7810.65
7806.36
7801.94
7797.66
7793.72
7790.28
7787.45
7785.25
7783.67
7782.59
7781.83
7781.35
7781.38
7782.43
7784.49
7786.86
7788.32
7788.36
7793.74
7792.83
7790.33
7787.05
7784.33
7782.77
7782.22
7782.2
7782.48
7783.17
7784.52
7786.66
7789.83
7793.9
7798.77
7804.27
7810.12
7816.01
7821.56
7826.34
7829.94
7831.89
7831.79
7829.22
7823.87
7815.52
7804.06
7789.54
7772.16
7752.26
7730.34
7707.04
7683.08
7659.27
7636.49
7615.68
7597.65
7583.21
7573.03
7567.62
7567.23
7571.9
7581.39
7595.26
7612.84
7633.36
7656
7679.77
7703.8
7727.25
7749.37
7769.51
7787.17
7801.99
7813.75
7822.4
7828.03
7830.84
7831.16
7829.36
7825.88
7821.17
7815.67
7809.78
7803.89
7798.31
7793.29
7789.02
7785.58
7783.01
7781.25
7780.11
7779.34
7778.77
7778.87
7780.06
7782.57
7785.53
7787.73
7788.46
7795.27
7793.73
7790.62
7786.85
7783.66
7781.55
7780.4
7779.8
7779.64
7780.06
7781.36
7783.82
7787.46
7792.41
7798.52
7805.56
7813.21
7821.07
7828.69
7835.55
7841.12
7844.85
7846.2
7844.64
7839.74
7831.18
7818.78
7802.58
7782.76
7759.73
7734.09
7706.6
7678.12
7649.63
7622.16
7597
7575.07
7557.4
7544.91
7538.25
7537.77
7543.5
7555.15
7572.13
7593.56
7618.38
7645.75
7674.26
7702.88
7730.6
7756.53
7779.89
7800.07
7816.66
7829.43
7838.37
7843.61
7845.45
7844.34
7840.78
7835.34
7828.57
7821
7813.16
7805.48
7798.37
7792.11
7786.91
7782.88
7780.04
7778.25
7777.29
7776.85
7776.75
7777.38
7778.98
7781.79
7785.17
7787.83
7789.13
7797.85
7796.03
7792.41
7788.14
7784.2
7781.13
7778.83
7777.17
7776.15
7775.99
7777.03
7779.59
7783.82
7789.76
7797.33
7806.22
7816.05
7826.33
7836.5
7845.95
7854.03
7860.07
7863.38
7863.27
7859.13
7850.52
7837.18
7819.07
7796.42
7769.68
7739.57
7707.02
7673.07
7638.87
7605.53
7575.06
7548.23
7526.49
7511.06
7502.83
7502.22
7509.29
7523.67
7544.57
7570.89
7601.31
7634.29
7668.54
7702.74
7735.63
7766.13
7793.3
7816.42
7835
7848.83
7857.9
7862.45
7862.91
7859.87
7854.02
7846.07
7836.71
7826.59
7816.34
7806.52
7797.58
7789.9
7783.67
7779.04
7775.98
7774.36
7773.89
7774.23
7775.16
7776.69
7779.04
7782.38
7786.26
7789.08
7790.68
7801.5
7799.49
7795.61
7790.72
7785.72
7781.17
7777.26
7774.07
7771.76
7770.69
7771.26
7773.82
7778.61
7785.65
7794.98
7806.08
7818.54
7831.78
7845.09
7857.73
7868.95
7877.94
7883.84
7885.73
7882.77
7874.34
7860.07
7839.86
7813.9
7782.74
7747.26
7708.61
7668.06
7627.06
7587.25
7549.63
7516.62
7489.82
7470.78
7460.61
7459.85
7468.54
7486.24
7511.96
7544.25
7581.41
7621.45
7662.71
7703.69
7742.83
7778.81
7810.52
7837.05
7857.87
7872.74
7881.72
7885.18
7883.75
7878.14
7869.36
7858.25
7845.67
7832.41
7819.22
7806.79
7795.71
7786.39
7779.01
7773.76
7770.61
7769.36
7769.68
7771.16
7773.49
7776.47
7780.07
7784.13
7788.27
7791.41
7793.14
7806.17
7803.9
7799.67
7794.07
7787.79
7781.47
7775.53
7770.33
7766.28
7763.93
7763.7
7766.13
7771.5
7780.04
7791.24
7804.96
7820.61
7837.44
7854.58
7871.13
7886.22
7898.94
7908.24
7912.88
7911.63
7903.7
7888.55
7865.96
7836.11
7799.59
7757.56
7711.56
7663.03
7613.79
7565.47
7519.47
7478.26
7444.17
7419.55
7406.28
7405.29
7416.59
7439.42
7472.13
7512.54
7558.34
7607.15
7656.73
7706
7752.69
7795.31
7832.46
7863.03
7886.37
7902.25
7910.83
7912.66
7908.67
7899.59
7887.16
7872.07
7855.54
7838.43
7821.66
7806.09
7792.46
7781.35
7772.63
7766.74
7763.64
7763.06
7764.56
7767.61
7771.72
7776.44
7781.49
7786.5
7791.05
7794.45
7796.33
7812.65
7809.77
7804.9
7798.28
7790.35
7781.76
7773.2
7765.32
7758.89
7754.74
7753.42
7755.46
7761.3
7771.36
7785.3
7802.24
7821.92
7843.26
7865.14
7886.44
7906.21
7923.55
7937.52
7945.78
7947.05
7940.08
7924.13
7898.88
7864.54
7821.54
7771.41
7716.6
7658.59
7598.64
7473.03
7219.49
6863.01
6482.96
6169.03
5990.73
5975.81
6127.39
6422.69
6799.48
7169.44
7444.05
7586.34
7651.18
7710.48
7766.19
7816.89
7860.64
7895.85
7922.05
7938.88
7946.57
7945.91
7938.21
7925.03
7907.91
7887.76
7866.46
7844.56
7823.35
7803.9
7787.11
7773.67
7763.56
7757.08
7754.21
7754.66
7757.85
7763.11
7769.62
7776.57
7783.42
7789.61
7794.71
7798.48
7800.97
7536.92
7480.82
7425.91
7350
7253.98
7150.19
7052.82
6961.84
6880.26
6823.9
6803.29
6827.98
6919.02
7073.07
7267.98
7449.23
7592.87
7719.23
7835.19
7903.54
7928.82
7951.72
7972
7985.22
7990.14
7984.87
7968.47
7940.51
7901.43
7715.88
7293.08
6706.08
5808.32
4627.64
3318.03
2311.92
1591.66
1108.07
814.776
674.523
662.649
778.395
1040.82
1484.23
2160.43
3131.1
4448.42
5708.33
6674.49
7273.04
7689.99
7897.39
7937.52
7966.73
7984.25
7990.29
7985.89
7973.05
7954.35
7931.57
7905.01
7851.7
7728.18
7594.12
7454.5
7292.55
7116.66
6964.72
6864.83
6825.73
6838.53
6887.6
6957.15
7032.39
7113.33
7203.04
7284.11
7341.44
7382
7444.33
2504.67
2417.35
2317.03
2180.31
2001.1
1799.21
1600.3
1415.46
1261.98
1157.25
1101.7
1088.57
1118.84
1203.36
1384.83
1677.55
2125
2648.26
3201.02
3800.42
4412.22
4976.32
5476.03
5840.58
6014.78
5975.07
5699.53
5129.02
4208.52
3045.71
1937.84
1025.84
368.985
4.14575
1.80806
1.74262
1.80757
1.91267
2.03531
2.14507
2.20326
2.18781
2.11006
2.00772
1.91089
1.93192
2.37519
275.415
908.571
1823.57
2940.93
4122.54
5096.33
5701.96
6004.51
6054.85
5879.12
5516.31
5049.59
4494.62
3863.81
3224.14
2663.72
2154.97
1725.64
1403.72
1221.23
1125.74
1092.41
1105.51
1160.91
1256.94
1396.42
1564.01
1736.05
1895.66
2026.65
2119.45
2196.06
2274.73
0.978798
1.07229
1.0485
1.05731
1.08315
1.11424
1.15338
1.20612
1.25562
1.27639
1.28498
1.32017
1.36213
1.34858
1.28435
1.23354
2.50589
4.47911
8.07289
32.2081
91.8716
198.377
342.498
488.133
580.832
568.094
450.034
262.911
90.4549
6.7938
1.64137
1.82244
1.94795
2.08344
1.8135
1.66899
1.69976
1.72964
1.84265
1.97619
2.07011
2.09527
1.97317
1.88048
1.76665
1.69338
1.65777
1.48098
1.34094
1.22483
4.59589
73.3402
243.545
443.462
582.115
607.711
522.384
376.609
230.28
110.761
33.0206
4.34124
1.94208
1.30978
1.10634
1.13158
1.13377
1.11009
1.07267
1.02858
0.995536
0.948104
0.883958
0.823544
0.799168
0.803852
0.792155
0.761979
0.735835
0.595884
1.66605
1.51366
1.37745
1.22614
1.2189
1.17436
1.16197
1.39439
1.88839
1.38364
1.23525
1.238
2.07933
3.08983
3.01262
3.31197
2.43937
2.64915
4.55879
10.1161
11.915
5.77575
4.94252
4.29131
3.39146
2.61148
3.00954
2.03737
1.37825
1.10574
8.01985
9.71283
10.0966
7.41184
3.00904
2.96868
2.3648
1.67572
1.80357
1.92278
2.05804
2.21519
1.89129
1.78864
1.68923
1.63073
2.57262
3.5193
3.25393
3.56315
3.08601
2.27756
2.24814
2.77331
3.78466
3.0381
1.98714
1.37977
1.3272
1.19883
1.06605
0.950344
0.919596
0.941571
0.99616
1.04479
1.06562
1.05711
1.0292
1.04026
1.42978
1.52901
1.22524
0.901448
0.90845
1.03711
1.02228
0.842869
0.817705
0.841773
2.56896
2.58889
2.58879
2.56788
2.29942
2.2906
1.47009
1.79097
2.75488
2.82446
1.53029
1.24537
2.5515
3.11707
2.89315
1.6483
1.69932
1.93097
3.28657
12.1144
12.01
5.31116
4.97492
4.23463
2.99655
2.02763
3.50999
2.79317
1.20393
0.855087
0.681267
3.1893
9.86635
9.29339
3.98142
2.22272
1.68239
1.61196
1.72432
1.84767
1.98572
2.15332
1.83235
1.69795
1.62638
1.55401
1.78925
5.45383
5.90597
5.76662
2.65419
2.17038
2.22607
2.84649
3.56182
2.60152
1.4777
0.70801
0.762877
0.761361
0.755152
0.784169
0.846783
0.928827
0.984641
1.0224
1.04513
1.03317
0.994997
1.03206
1.97498
1.9259
1.8735
1.58739
2.14556
3.39248
3.32192
2.32109
1.1242
1.3224
1.32195
0.829161
0.918462
1.09861
1.5442
2.23043
2.19818
1.94852
2.76932
2.8381
1.75917
1.27339
1.33558
2.64757
2.49428
1.45712
1.33284
1.39541
4.05864
7.57705
1.54365
1.51437
1.54989
1.48238
1.38526
1.38282
3.45132
3.30292
2.87733
0.767415
0.378316
0.371897
0.498179
2.85638
4.786
4.93408
4.49608
1.77913
1.53581
1.6735
1.76674
2.0047
1.78594
1.62373
1.7853
1.56209
1.42714
3.71698
5.9066
5.8388
3.74145
1.97594
2.36097
3.90779
3.93024
2.66818
1.43803
0.676672
0.715525
0.734478
0.733609
0.740366
0.793289
1.27581
1.81721
1.697
1.17301
1.01606
0.968838
0.906935
0.838977
0.774861
1.0955
2.43355
3.39966
3.37842
3.38248
3.38963
2.46064
1.45004
0.621167
0.622675
0.608164
0.584285
0.577422
0.648692
1.04094
1.0001
1.14559
1.821
1.80052
1.23425
1.24083
2.12657
1.42207
1.11653
1.362
5.21519
5.38657
3.87796
1.26892
1.31757
1.37506
1.33975
1.22958
1.06674
0.887537
0.808937
0.808862
0.650929
0.256184
0.291176
0.413443
1.48164
4.64862
4.82779
4.54508
1.51073
1.27486
1.42193
1.50328
1.7983
1.68993
1.66789
3.60614
3.32718
1.34845
1.29539
4.7588
5.78794
5.66055
1.659
0.648991
0.684542
0.643731
0.914355
0.862102
0.75309
0.779691
0.776975
0.748194
0.719978
1.27434
2.8893
2.97622
3.04821
2.76187
1.279
0.903712
0.832171
0.760416
0.700008
0.632074
0.672689
2.06692
3.23253
3.33081
3.34301
3.32035
1.39679
0.606564
0.569246
0.514905
0.482895
0.467548
0.534533
0.464045
0.523369
0.616061
0.732356
1.28732
1.17464
1.16367
1.08662
0.931495
0.837913
3.32165
5.31534
5.45594
2.00491
1.03747
1.11201
1.16289
1.26802
1.30744
1.10155
0.869575
1.13549
0.949894
0.337359
0.0797539
0.145847
0.275871
0.456951
3.88419
4.71824
4.04288
1.15262
1.02794
1.16664
1.25252
1.40385
1.91445
1.88525
3.49875
3.41194
2.15734
0.856808
1.39286
2.86168
1.7995
0.656521
0.635953
0.659919
0.701061
0.788648
0.908791
0.916643
0.873419
0.850057
0.800473
0.742849
1.87568
2.83969
2.95352
3.02336
3.03956
3.00175
1.18761
0.739039
0.668807
0.607593
0.545332
0.473676
0.40465
0.375387
1.55002
2.74654
3.28082
1.41448
1.01888
0.680305
0.598762
0.532592
0.426724
0.306251
0.373555
0.400508
0.46844
0.595433
1.10447
1.103
1.09613
1.00898
0.793852
0.910446
5.34444
5.42768
5.40149
0.926668
0.922933
1.0162
1.59916
1.72019
1.61178
1.46771
1.31362
1.17342
1.07797
1.04981
0.440029
-0.0760167
0.0743839
0.274501
3.49991
4.53115
3.87031
0.925926
0.806335
0.937693
1.02206
1.054
1.5223
1.9022
3.40073
3.32696
1.94401
0.766351
0.685827
0.632027
0.629911
0.634296
0.651152
0.690962
0.746963
0.816745
1.68401
1.97885
1.93511
1.00286
0.87957
0.876297
0.850108
0.875396
1.5956
2.93426
2.95453
2.85364
1.28179
0.622005
0.55083
0.500203
0.456232
0.412362
0.36972
0.339664
0.330589
0.348743
1.49121
1.63361
2.62928
0.812793
0.334555
0.298639
0.189452
0.19159
1.6852
1.23197
0.382378
0.507506
2.08577
2.66209
1.48859
0.959355
0.957483
1.15581
4.56971
5.57148
1.12844
0.52023
0.825561
1.54716
1.58192
1.50826
1.39344
1.25358
1.10305
0.963644
0.865039
0.727425
-0.158511
-0.31462
-0.119053
0.075174
3.04381
4.29337
3.32474
0.640437
0.620797
0.751169
0.832953
0.865524
0.94038
1.34655
3.31406
3.26191
1.8345
0.73963
0.708961
0.676033
0.673007
0.684458
0.708913
0.739295
0.782586
0.839939
0.888324
0.94525
0.962634
0.98353
0.955416
0.910363
0.83724
0.757662
0.687314
0.654859
0.928499
0.880052
0.687751
0.465652
0.405214
0.373929
0.356426
0.346311
0.343043
0.350325
0.370894
0.402059
0.473995
2.10721
2.61341
0.56206
0.168004
0.143736
0.125677
0.13101
1.76172
3.18699
1.17748
0.450805
3.18804
3.16722
2.2014
0.986435
1.00023
3.52505
5.31584
5.65746
0.608183
0.42458
0.718764
1.45175
1.42447
1.34401
1.22509
1.08631
0.939171
0.536773
-0.269888
-0.685283
-0.609332
-0.462169
-0.262558
0.122283
3.51781
4.0783
1.83391
0.371512
0.485593
0.61465
0.694657
0.728157
0.72857
0.710924
1.93071
3.16476
3.12483
1.15947
0.711705
0.706689
0.724825
0.757925
0.77717
0.901397
0.987456
0.937708
0.906397
0.948403
0.979738
1.02458
0.993461
0.953955
0.877377
0.775189
0.663988
0.667269
0.585607
0.416855
0.297378
0.256061
0.228605
0.222324
0.236794
0.263495
0.298182
0.339023
0.384378
0.428218
0.505136
2.17298
2.63099
0.439836
0.1368
0.103986
0.0747694
0.100646
2.0784
3.19715
3.238
2.80599
3.20774
3.26265
1.46327
1.06654
1.01197
3.90701
5.34618
1.8866
0.0547461
0.307482
1.25049
1.36786
1.32242
1.24049
1.12004
0.5792
-0.408111
-0.659421
-0.718112
-0.719933
-0.650634
-0.511519
-0.206969
1.907
3.35186
1.81762
0.351882
0.274595
0.40577
0.527645
0.603998
0.639063
0.6413
0.621975
0.585445
1.39736
2.49307
2.52144
1.67884
0.696094
0.728083
0.803155
1.76937
1.64293
0.990998
0.939025
1.26121
1.47274
1.48805
1.1909
0.999429
0.972686
0.957929
1.65233
2.62628
3.13896
3.58477
2.89239
1.11956
-0.002816
-0.00348328
0.0280631
0.0859429
0.15593
0.230865
0.305099
0.37425
0.434065
0.547794
2.2076
2.68938
1.19038
0.138314
0.0942488
0.0586702
0.31368
3.05801
3.22603
3.26773
3.36548
3.30404
1.55259
1.24462
1.2188
3.14923
5.10454
5.19473
0.558221
0.00312241
0.650743
1.2957
1.32008
1.27995
1.01351
0.0750679
-0.471275
-0.561536
-0.642498
-0.690714
-0.684301
-0.619318
0.222404
1.92985
2.09033
0.815887
-0.0786315
0.0430424
0.228916
0.370286
0.479049
0.547341
0.582089
0.588545
0.577659
0.550055
0.53774
0.618018
1.71659
2.21691
1.79554
0.678666
1.84847
2.49725
1.2209
0.893955
1.27752
1.68844
1.72632
1.71612
1.24354
1.40773
2.15264
3.88871
5.84612
5.36375
5.05066
4.81636
4.70796
4.72344
4.69325
0.542135
-0.238021
-0.121412
0.00852787
0.136158
0.250683
0.346496
0.423216
0.574895
2.23784
2.7872
1.87375
0.175155
0.121334
0.0773584
0.903413
3.34461
3.29711
3.34053
3.43384
1.38379
1.43755
1.44765
3.06488
5.05676
5.04001
0.934038
0.0768683
0.0475395
0.359261
1.08207
0.649601
0.13884
-0.236815
-0.347487
-0.425975
-0.511977
-0.591502
-0.634778
-0.618505
-0.0310665
1.45806
1.54071
0.258365
-0.242397
-0.100199
0.0692694
0.232288
0.362583
0.452874
0.509699
0.540751
0.550199
0.545989
0.532771
0.524531
0.531582
0.556037
1.02992
1.36363
2.32317
2.45293
2.48695
1.20459
0.848722
1.64125
1.68445
1.36339
1.4222
2.62937
3.84557
6.00696
5.88215
5.49154
5.03641
4.60473
4.27669
4.09899
4.09505
4.25326
4.53566
1.99759
-0.351873
-0.178263
0.00901335
0.174265
0.302938
0.398236
0.666799
2.25857
2.91404
1.21941
0.246284
0.184961
0.130969
0.577547
3.41997
3.42842
3.45091
1.88144
1.65195
1.67807
4.17877
4.96078
5.00684
2.0506
0.18277
0.129782
0.0956589
0.0790697
0.0144075
-0.0874195
-0.153302
-0.217153
-0.280908
-0.351306
-0.42993
-0.50396
-0.551063
-0.451739
-0.109763
0.0879763
-0.246565
-0.30615
-0.166857
-0.0146614
0.137207
0.268853
0.368692
0.437737
0.481304
0.548929
0.598418
0.545328
0.513071
0.516975
0.528844
0.546271
0.563444
0.588244
0.77125
2.43208
2.47256
2.54347
0.973755
1.63146
1.39544
1.16053
1.85022
3.66913
3.46933
4.13588
5.67015
5.33679
4.76826
4.26097
3.85143
3.60524
3.57091
3.73003
4.06305
4.49458
1.51529
-0.368314
-0.146263
0.0742225
0.24302
0.360194
0.678457
1.62821
3.023
0.482427
0.338878
0.273446
0.210529
0.274375
1.34956
2.07554
1.56896
2.82876
4.27641
4.70715
4.81732
4.84047
1.75752
0.266907
0.207295
0.165052
0.126973
0.0783699
0.0184963
-0.0433482
-0.101573
-0.155396
-0.207843
-0.263499
-0.321824
-0.375306
-0.410977
-0.420011
-0.39947
-0.359936
-0.277781
-0.164095
-0.035687
0.0917777
0.209104
0.305749
0.377923
0.43299
0.529937
0.587568
0.593309
0.591887
0.508967
0.493356
0.518056
0.729537
1.30723
0.622257
0.653335
0.650465
2.23535
2.55288
1.99511
1.64363
0.956634
1.20978
3.22123
2.84418
0.709651
0.522174
4.27247
5.0621
4.69449
4.09022
3.64117
2.55933
1.63144
3.21136
3.69502
4.19214
4.63743
0.204137
-0.321827
-0.0462413
0.167219
0.309164
0.596525
1.18554
3.19447
0.506917
0.429606
0.364054
0.293185
0.221359
0.179513
0.238229
0.813986
4.43962
4.59597
4.70256
4.74661
1.7971
0.288774
0.242812
0.205281
0.17318
0.1382
0.0949017
0.0448384
-0.00670774
-0.0553358
-0.0993685
-0.139782
-0.17744
-0.211793
-0.239102
-0.252971
-0.248007
-0.220883
-0.171057
-0.0993261
-0.00840598
0.0896209
0.184035
0.266964
0.353646
0.440148
0.525278
0.551837
0.559448
0.560604
0.558444
0.465782
0.461799
0.811285
3.8121
4.28877
4.28173
2.04929
0.737487
0.943948
2.4691
2.15929
1.37971
0.950871
2.10856
3.2572
1.04644
0.612175
0.377818
0.099973
0.720565
3.62831
4.16917
3.61542
1.6411
1.54381
1.62911
3.17629
4.04951
4.55021
1.90733
-0.447871
-0.173818
0.0813179
0.244784
0.415278
3.45429
3.5367
0.727363
0.499138
0.431002
0.355071
0.264823
0.17387
0.12837
0.595371
4.43974
4.56024
4.52887
1.31273
0.23052
0.228444
0.208439
0.187619
0.165558
0.137003
0.101792
0.0620003
0.0210834
-0.0175629
-0.0520546
-0.0814782
-0.105017
-0.121741
-0.129309
-0.124475
-0.105179
-0.0705156
-0.0215693
0.0378119
0.104472
0.188029
0.314225
0.399521
0.461899
0.497837
0.517905
0.526662
0.528068
0.525336
0.487375
0.393651
0.5793
3.84588
4.23022
4.24692
4.2797
4.33502
3.58552
1.06446
0.941795
1.02564
1.14476
0.967545
2.75512
2.71708
0.663356
0.508802
0.25837
-0.108546
-0.563003
-0.629059
4.32227
3.81555
3.10868
1.64688
1.70346
1.93182
4.07222
4.53375
5.04228
-0.268828
-0.28443
-0.000112652
0.175219
0.388739
4.69386
4.15144
1.5284
0.53393
0.867834
0.835275
0.287401
0.176921
0.0984154
2.11884
4.07828
3.67115
0.527807
0.125393
0.165022
0.200731
0.183554
0.165883
0.151734
0.130217
0.103261
0.0729392
0.0417951
0.0122857
-0.0137046
-0.0346033
-0.0490403
-0.0556335
-0.0520092
-0.0365098
-0.0035408
0.0348059
0.0698273
0.118165
0.175802
0.264918
0.368963
0.416099
0.448858
0.472236
0.477845
0.486946
0.488899
0.471889
0.366963
0.330503
0.273719
3.59648
4.10727
3.31752
2.00339
4.07343
4.14129
2.30255
0.86109
0.90872
0.952567
1.02602
2.24642
0.831687
0.554503
0.390913
0.156954
-0.160678
-0.580377
-1.03992
-0.118816
3.95831
3.69168
3.63276
2.96056
3.9276
4.23436
4.64445
5.13858
0.304012
-0.3369
-0.0548192
0.122453
0.51365
4.7477
4.76645
2.24842
0.549985
3.52554
4.76045
1.30254
0.235655
2.08933
3.79936
3.04541
0.675024
0.0228224
0.0774854
0.119124
0.141285
0.148257
0.146947
0.138033
0.122679
0.102887
0.0804446
0.0572212
0.0351135
0.0158706
0.00120557
-0.00742135
-0.00879438
0.00100769
0.0597789
0.16181
0.20474
0.241671
0.240895
0.220091
0.248993
0.280818
0.309003
0.328196
0.339916
0.339815
0.332271
0.329516
0.312954
0.29521
0.270329
0.213064
0.681136
2.08026
0.865887
0.277449
0.466378
4.09337
3.57799
0.865109
0.808184
0.61152
0.889517
1.32861
0.552396
0.409577
0.254877
0.0597116
-0.228146
-0.604978
-1.03877
-1.38753
2.22176
4.18204
4.09687
4.11492
4.25956
4.5161
4.87004
5.30627
0.194312
-0.350552
-0.0642096
0.115016
0.476701
4.82141
4.85769
3.65074
0.637258
3.03132
4.90455
5.00397
4.6648
4.9002
3.93607
1.18321
-0.040578
0.0915837
0.0593299
0.0908625
0.118822
0.130751
0.132486
0.127231
0.116711
0.102547
0.0860843
0.0687759
0.0521927
0.0379263
0.0276157
0.0226531
0.024131
0.0633677
0.183064
0.206484
0.23497
0.266658
0.20469
0.206307
0.234496
0.259949
0.276614
0.282676
0.283366
0.277504
0.266952
0.255275
0.243196
0.230481
0.213456
0.184001
0.144649
0.152479
0.215515
0.289568
0.35059
1.61903
2.92335
0.942151
0.825279
0.484383
0.625175
0.978433
0.379984
0.283814
0.857623
0.566842
-0.325654
-0.632802
-0.947537
-1.28425
-1.48477
2.08315
4.55556
4.57095
4.67908
4.89694
5.18739
5.20602
-0.661709
-0.277168
-0.018505
0.155923
0.24748
4.91648
4.85154
4.83059
1.80739
1.72479
4.33805
5.02945
4.97722
4.93934
3.4664
0.185465
-0.0445145
0.000351878
0.0421434
0.0818785
0.107931
0.119777
0.1226
0.119792
0.112797
0.102662
0.0904337
0.0773366
0.0647244
0.0539862
0.0465568
0.0436688
0.0462528
0.112346
0.205988
0.226876
0.251813
0.257124
0.180806
0.201483
0.22421
0.239039
0.244079
0.237777
0.228093
0.276301
0.257634
0.246037
0.208459
0.161156
0.153869
0.153421
0.161324
0.190384
0.250753
0.362363
0.430516
0.406331
0.729811
0.977969
0.743573
0.358051
0.300124
0.282125
0.194083
0.787779
0.796322
0.630268
0.358836
-0.658723
-0.852455
-1.06987
-1.20627
-1.26536
0.629768
5.15417
5.24477
4.57875
1.28475
0.231867
-0.45458
-0.139487
0.0679079
0.207616
3.82652
5.01626
4.83005
4.82641
4.84961
2.17412
1.9139
4.22165
5.02034
4.59235
1.97359
0.0566584
-0.020331
0.0149183
0.0504291
0.0825489
0.103629
0.113541
0.116579
0.115321
0.110572
0.10306
0.0936668
0.0834852
0.0736623
0.0653437
0.0597024
0.0577725
0.0602832
0.120112
0.219107
0.237013
0.2359
0.152533
0.170563
0.186657
0.197557
0.198852
0.191015
0.170304
0.139791
0.105199
0.148433
0.142584
0.105495
0.0784168
0.084271
0.108255
0.150176
0.205387
1.30944
2.49465
0.718303
0.352403
0.328612
0.626585
0.497334
0.253194
0.183037
0.0192096
0.00786721
0.777989
0.627001
0.500412
0.396503
0.0877927
-0.787591
-0.845818
-0.914523
-0.886091
-0.0198974
-0.0550082
-0.344517
-0.447804
-0.585955
-0.443127
-0.168047
0.03188
0.171057
2.84009
4.6039
1.77131
1.55388
4.18774
4.22914
3.83066
1.72742
0.587961
1.09203
1.06044
0.97702
0.530584
0.0140915
0.0368853
0.0635932
0.0874748
0.102994
0.110625
0.113416
0.112869
0.109334
0.103424
0.0959119
0.0877405
0.0798438
0.0731332
0.0685174
0.0668149
0.0685958
0.0921603
0.172043
0.200199
0.119716
0.134947
0.150592
0.157172
0.153045
0.139214
0.120982
0.084906
0.0369152
-0.011476
0.0645533
-0.0381666
-0.0300132
-0.0244214
-0.000613856
0.0501499
0.116241
0.20542
3.345
3.31152
0.993465
0.287035
0.27809
0.285081
0.267637
0.363808
0.432003
-0.12661
-0.049048
0.631853
0.487158
0.388961
0.342426
0.344712
-0.243079
-0.684287
-0.684318
-0.450172
1.21275
1.6071
0.726655
-0.106672
-0.00969014
0.0586136
0.112193
1.4353
3.25847
3.49683
2.84548
0.919914
0.0858853
0.686119
0.487605
1.01266
1.34708
0.486543
0.0444077
0.0661799
0.0551688
0.0651207
0.0644977
0.0574339
0.0770303
0.0934911
0.104128
0.109709
0.111914
0.111411
0.108442
0.103499
0.0972746
0.0905072
0.0839248
0.0782442
0.0741437
0.0726231
0.076085
0.0795958
0.0825969
0.0931772
0.106774
0.118677
0.122463
0.113965
0.0916686
0.0630462
0.0376208
0.0224746
1.38578
1.14196
0.922461
6.45504
6.32076
0.281625
-0.124972
-0.030827
0.0624748
1.5024
3.5944
3.48375
0.646801
0.245718
0.256034
0.249824
0.207969
1.43967
0.425345
-0.218373
-0.212615
0.457124
0.408825
0.333044
0.324826
0.38781
0.442596
-0.582856
-0.476806
-0.368246
0.361779
2.10651