/*--------------------------------*- C++ -*----------------------------------*\
| =========                 |                                                 |
| \\      /  F ield         | OpenFOAM: The Open Source CFD Toolbox           |
|  \\    /   O peration     | Version:  2412                                  |
|   \\  /    A nd           | Website:  www.openfoam.com                      |
|    \\/     M anipulation  |                                                 |
\*---------------------------------------------------------------------------*/
FoamFile
{
    version     2.0;
    format      ascii;
    arch        "LSB;label=32;scalar=64";
    class       volScalarField;
    location    "9.05";
    object      p;
}
// * * * * * * * * * * * * * * * * * * * * * * * * * * * * * * * * * * * * * //

dimensions      [1 -1 -2 0 0 0 0];

internalField   nonuniform List<scalar> 
6400
(
12102.3
12102.3
12102.4
12102.6
12102.8
12103
12103.3
12103.7
12104
12104.3
12104.7
12105
12105.4
12105.7
12106.1
12106.4
12106.7
12107
12107.3
12107.5
12107.6
12107.7
12107.6
12107.5
12107.2
12106.7
12106
12105.2
12104.1
12102.8
12101.4
12099.9
12098.2
12096.5
12094.9
12093.4
12092.1
12091.1
12090.4
12090
12090.1
12090.5
12091.3
12092.5
12093.8
12095.4
12097.1
12098.7
12100.4
12101.9
12103.3
12104.5
12105.6
12106.4
12107
12107.5
12107.8
12107.9
12108
12107.9
12107.8
12107.6
12107.3
12107
12106.7
12106.4
12106.1
12105.7
12105.4
12105
12104.7
12104.4
12104
12103.7
12103.4
12103.1
12102.9
12102.8
12102.7
12102.7
11484.3
11484.3
11484.4
11484.5
11484.7
11484.9
11485.2
11485.5
11485.8
11486.1
11486.5
11486.8
11487.1
11487.5
11487.8
11488.1
11488.4
11488.7
11488.9
11489.1
11489.2
11489.2
11489.2
11489
11488.7
11488.2
11487.6
11486.8
11485.8
11484.7
11483.4
11482
11480.5
11479
11477.6
11476.3
11475.1
11474.2
11473.6
11473.3
11473.3
11473.7
11474.4
11475.4
11476.6
11478
11479.5
11481
11482.5
11483.8
11485.1
11486.2
11487.2
11488
11488.6
11489
11489.3
11489.5
11489.5
11489.5
11489.4
11489.2
11489
11488.7
11488.4
11488.1
11487.8
11487.5
11487.2
11486.8
11486.5
11486.2
11485.9
11485.6
11485.3
11485.1
11484.9
11484.7
11484.7
11484.6
10866.2
10866.2
10866.3
10866.4
10866.6
10866.8
10867.1
10867.3
10867.6
10867.9
10868.2
10868.6
10868.9
10869.2
10869.5
10869.8
10870.1
10870.3
10870.5
10870.7
10870.8
10870.8
10870.7
10870.6
10870.3
10869.8
10869.2
10868.5
10867.6
10866.5
10865.4
10864.1
10862.8
10861.5
10860.2
10859.1
10858.1
10857.3
10856.7
10856.5
10856.5
10856.9
10857.5
10858.4
10859.4
10860.6
10861.9
10863.3
10864.6
10865.8
10867
10868
10868.9
10869.6
10870.2
10870.6
10870.9
10871.1
10871.1
10871.1
10871
10870.8
10870.6
10870.4
10870.1
10869.8
10869.5
10869.2
10868.9
10868.6
10868.3
10868
10867.7
10867.4
10867.2
10866.9
10866.8
10866.6
10866.6
10866.5
10248
10248.1
10248.1
10248.3
10248.4
10248.6
10248.9
10249.1
10249.4
10249.7
10250
10250.3
10250.6
10250.9
10251.2
10251.5
10251.8
10252
10252.2
10252.4
10252.5
10252.5
10252.5
10252.3
10252
10251.6
10251.1
10250.4
10249.5
10248.6
10247.5
10246.4
10245.2
10243.9
10242.8
10241.7
10240.7
10240
10239.5
10239.3
10239.3
10239.6
10240.2
10241
10242
10243.1
10244.3
10245.6
10246.8
10247.9
10249
10249.9
10250.8
10251.4
10251.9
10252.3
10252.6
10252.8
10252.8
10252.8
10252.7
10252.5
10252.3
10252.1
10251.8
10251.5
10251.2
10250.9
10250.6
10250.4
10250.1
10249.8
10249.5
10249.2
10249
10248.8
10248.6
10248.5
10248.4
10248.4
9629.78
9629.83
9629.94
9630.08
9630.25
9630.46
9630.69
9630.93
9631.2
9631.48
9631.76
9632.06
9632.36
9632.66
9632.96
9633.24
9633.51
9633.76
9633.98
9634.15
9634.26
9634.31
9634.27
9634.13
9633.89
9633.53
9633.03
9632.4
9631.63
9630.74
9629.73
9628.63
9627.48
9626.31
9625.17
9624.13
9623.22
9622.51
9622.02
9621.79
9621.83
9622.15
9622.71
9623.5
9624.46
9625.55
9626.71
9627.89
9629.05
9630.14
9631.14
9632.02
9632.77
9633.38
9633.86
9634.21
9634.45
9634.57
9634.6
9634.56
9634.44
9634.27
9634.06
9633.82
9633.56
9633.28
9632.99
9632.69
9632.4
9632.11
9631.83
9631.55
9631.29
9631.04
9630.81
9630.61
9630.43
9630.28
9630.18
9630.12
9011.48
9011.57
9011.7
9011.86
9012.04
9012.24
9012.47
9012.71
9012.97
9013.24
9013.52
9013.81
9014.11
9014.41
9014.7
9015
9015.28
9015.54
9015.77
9015.96
9016.1
9016.18
9016.18
9016.09
9015.89
9015.58
9015.14
9014.56
9013.84
9012.99
9012.02
9010.95
9009.81
9008.64
9007.5
9006.44
9005.51
9004.78
9004.27
9004.04
9004.08
9004.41
9004.99
9005.79
9006.78
9007.88
9009.05
9010.23
9011.37
9012.43
9013.39
9014.22
9014.92
9015.48
9015.91
9016.21
9016.39
9016.48
9016.47
9016.39
9016.25
9016.07
9015.84
9015.58
9015.31
9015.02
9014.73
9014.44
9014.15
9013.86
9013.59
9013.32
9013.06
9012.82
9012.6
9012.39
9012.2
9012.04
9011.91
9011.81
8393.15
8393.27
8393.43
8393.61
8393.8
8394.01
8394.23
8394.47
8394.72
8394.99
8395.26
8395.55
8395.85
8396.15
8396.46
8396.76
8397.06
8397.34
8397.6
8397.83
8398.01
8398.13
8398.18
8398.15
8398.01
8397.76
8397.38
8396.85
8396.18
8395.37
8394.41
8393.33
8392.17
8390.95
8389.75
8388.61
8387.62
8386.82
8386.27
8386.01
8386.06
8386.41
8387.05
8387.92
8388.97
8390.15
8391.37
8392.6
8393.76
8394.82
8395.76
8396.56
8397.21
8397.71
8398.08
8398.31
8398.44
8398.47
8398.42
8398.29
8398.12
8397.9
8397.64
8397.37
8397.08
8396.78
8396.48
8396.18
8395.89
8395.61
8395.34
8395.07
8394.82
8394.59
8394.36
8394.15
8393.96
8393.78
8393.61
8393.48
7774.79
7774.95
7775.15
7775.34
7775.55
7775.76
7775.99
7776.22
7776.47
7776.73
7777
7777.29
7777.59
7777.9
7778.22
7778.54
7778.86
7779.17
7779.47
7779.74
7779.97
7780.16
7780.27
7780.31
7780.25
7780.07
7779.75
7779.29
7778.67
7777.88
7776.92
7775.8
7774.57
7773.25
7771.92
7770.65
7769.52
7768.61
7767.99
7767.69
7767.75
7768.15
7768.87
7769.86
7771.05
7772.35
7773.7
7775.01
7776.24
7777.33
7778.26
7779.03
7779.63
7780.07
7780.37
7780.53
7780.59
7780.55
7780.43
7780.25
7780.02
7779.76
7779.47
7779.17
7778.85
7778.54
7778.23
7777.92
7777.63
7777.35
7777.08
7776.82
7776.57
7776.34
7776.12
7775.9
7775.69
7775.49
7775.29
7775.12
7156.42
7156.62
7156.85
7157.07
7157.28
7157.5
7157.72
7157.96
7158.2
7158.45
7158.72
7159.01
7159.32
7159.64
7159.97
7160.32
7160.67
7161.02
7161.37
7161.69
7161.99
7162.25
7162.44
7162.57
7162.6
7162.51
7162.28
7161.89
7161.32
7160.55
7159.57
7158.39
7157.04
7155.56
7154.04
7152.56
7151.22
7150.14
7149.38
7149.03
7149.09
7149.58
7150.44
7151.61
7153
7154.52
7156.05
7157.52
7158.84
7159.99
7160.93
7161.67
7162.21
7162.58
7162.79
7162.86
7162.83
7162.7
7162.5
7162.25
7161.96
7161.65
7161.31
7160.97
7160.63
7160.29
7159.97
7159.65
7159.36
7159.07
7158.81
7158.55
7158.31
7158.08
7157.86
7157.64
7157.42
7157.19
7156.96
7156.75
6538.05
6538.29
6538.56
6538.79
6539.02
6539.24
6539.45
6539.68
6539.91
6540.16
6540.43
6540.71
6541.02
6541.36
6541.71
6542.09
6542.48
6542.88
6543.28
6543.67
6544.05
6544.39
6544.69
6544.92
6545.06
6545.09
6544.97
6544.67
6544.16
6543.41
6542.41
6541.14
6539.62
6537.92
6536.11
6534.32
6532.69
6531.34
6530.41
6529.96
6530.04
6530.64
6531.71
6533.15
6534.85
6536.67
6538.47
6540.15
6541.62
6542.84
6543.79
6544.5
6544.97
6545.24
6545.34
6545.3
6545.15
6544.92
6544.63
6544.3
6543.93
6543.55
6543.16
6542.78
6542.4
6542.04
6541.69
6541.37
6541.06
6540.78
6540.52
6540.27
6540.04
6539.82
6539.6
6539.37
6539.14
6538.9
6538.63
6538.38
5919.69
5919.98
5920.28
5920.53
5920.76
5920.97
5921.18
5921.39
5921.61
5921.85
5922.11
5922.39
5922.71
5923.06
5923.44
5923.84
5924.27
5924.73
5925.19
5925.67
5926.13
5926.58
5927
5927.36
5927.64
5927.81
5927.83
5927.65
5927.24
5926.53
5925.5
5924.12
5922.39
5920.36
5918.16
5915.93
5913.88
5912.17
5910.98
5910.4
5910.5
5911.27
5912.63
5914.46
5916.59
5918.84
5921.02
5922.99
5924.64
5925.95
5926.91
5927.56
5927.93
5928.07
5928.03
5927.85
5927.57
5927.21
5926.81
5926.37
5925.92
5925.46
5925.01
5924.57
5924.15
5923.76
5923.39
5923.06
5922.75
5922.47
5922.21
5921.98
5921.76
5921.55
5921.33
5921.12
5920.88
5920.62
5920.31
5920.02
5301.37
5301.69
5302.02
5302.29
5302.52
5302.72
5302.91
5303.09
5303.29
5303.51
5303.76
5304.04
5304.36
5304.73
5305.13
5305.57
5306.05
5306.56
5307.1
5307.67
5308.24
5308.81
5309.37
5309.88
5310.33
5310.68
5310.88
5310.87
5310.6
5309.97
5308.93
5307.42
5305.41
5302.96
5300.21
5297.38
5294.73
5292.52
5290.96
5290.2
5290.32
5291.31
5293.08
5295.46
5298.21
5301.07
5303.77
5306.12
5308.01
5309.41
5310.34
5310.89
5311.11
5311.09
5310.87
5310.51
5310.06
5309.55
5309.01
5308.46
5307.9
5307.36
5306.84
5306.35
5305.88
5305.46
5305.07
5304.72
5304.41
5304.13
5303.88
5303.67
5303.47
5303.27
5303.08
5302.87
5302.64
5302.36
5302.02
5301.69
4683.09
4683.46
4683.82
4684.09
4684.3
4684.48
4684.64
4684.79
4684.96
4685.16
4685.39
4685.66
4685.99
4686.36
4686.79
4687.27
4687.8
4688.38
4689
4689.66
4690.35
4691.06
4691.78
4692.48
4693.14
4693.71
4694.15
4694.37
4694.3
4693.82
4692.82
4691.18
4688.84
4685.83
4682.32
4678.62
4675.14
4672.22
4670.17
4669.16
4669.3
4670.6
4672.93
4676.07
4679.69
4683.4
4686.83
4689.68
4691.84
4693.31
4694.18
4694.55
4694.56
4694.3
4693.85
4693.27
4692.62
4691.93
4691.24
4690.55
4689.89
4689.25
4688.65
4688.1
4687.59
4687.12
4686.71
4686.35
4686.03
4685.77
4685.54
4685.34
4685.17
4685.01
4684.84
4684.66
4684.44
4684.16
4683.79
4683.41
4064.88
4065.29
4065.67
4065.94
4066.13
4066.27
4066.38
4066.5
4066.62
4066.78
4066.99
4067.25
4067.57
4067.96
4068.41
4068.93
4069.51
4070.16
4070.87
4071.64
4072.46
4073.33
4074.22
4075.14
4076.04
4076.9
4077.64
4078.19
4078.42
4078.19
4077.32
4075.61
4072.88
4069.12
4064.55
4059.63
4054.96
4051.06
4048.33
4046.98
4047.16
4048.87
4051.97
4056.16
4061
4065.92
4070.33
4073.84
4076.31
4077.79
4078.49
4078.6
4078.3
4077.71
4076.96
4076.11
4075.23
4074.34
4073.47
4072.64
4071.85
4071.12
4070.44
4069.81
4069.25
4068.75
4068.32
4067.94
4067.63
4067.38
4067.17
4067.01
4066.88
4066.76
4066.64
4066.5
4066.3
4066.02
4065.63
4065.22
3446.78
3447.22
3447.61
3447.86
3448
3448.08
3448.14
3448.19
3448.26
3448.38
3448.56
3448.8
3449.12
3449.51
3449.99
3450.54
3451.18
3451.9
3452.7
3453.59
3454.54
3455.58
3456.67
3457.83
3459.02
3460.21
3461.35
3462.33
3463.01
3463.19
3462.62
3460.96
3457.83
3453.1
3447.06
3440.4
3434.03
3428.77
3425.13
3423.35
3423.58
3425.86
3430.01
3435.66
3442.2
3448.81
3454.55
3458.87
3461.61
3462.99
3463.37
3463.06
3462.32
3461.31
3460.18
3459.01
3457.84
3456.73
3455.68
3454.7
3453.78
3452.94
3452.18
3451.49
3450.87
3450.34
3449.88
3449.5
3449.19
3448.96
3448.78
3448.67
3448.59
3448.54
3448.48
3448.39
3448.24
3447.99
3447.59
3447.13
2828.82
2829.29
2829.67
2829.85
2829.92
2829.91
2829.87
2829.84
2829.85
2829.91
2830.05
2830.27
2830.58
2830.98
2831.48
2832.08
2832.77
2833.57
2834.46
2835.45
2836.55
2837.76
2839.07
2840.48
2842
2843.6
2845.22
2846.77
2848.09
2848.93
2848.93
2847.56
2844.1
2838.17
2830.1
2820.91
2812.1
2804.92
2800.08
2797.76
2798.11
2801.19
2806.78
2814.46
2823.42
2832.42
2839.93
2845.19
2848.07
2849.07
2848.87
2847.93
2846.59
2845.04
2843.45
2841.89
2840.42
2839.06
2837.82
2836.68
2835.64
2834.69
2833.84
2833.08
2832.41
2831.84
2831.36
2830.97
2830.67
2830.46
2830.34
2830.28
2830.27
2830.31
2830.34
2830.34
2830.26
2830.06
2829.67
2829.17
2211.06
2211.55
2211.86
2211.94
2211.87
2211.73
2211.57
2211.42
2211.34
2211.33
2211.42
2211.62
2211.92
2212.34
2212.86
2213.5
2214.25
2215.12
2216.11
2217.22
2218.47
2219.85
2221.38
2223.07
2224.95
2227.01
2229.24
2231.54
2233.75
2235.61
2236.7
2236.18
2232.56
2224.95
2213.83
2200.73
2188.25
2178.29
2171.85
2168.81
2169.33
2173.51
2181.1
2191.74
2204.37
2217.11
2227.31
2233.75
2236.4
2236.45
2235.2
2233.31
2231.14
2228.9
2226.73
2224.73
2222.91
2221.3
2219.87
2218.58
2217.41
2216.35
2215.41
2214.58
2213.86
2213.24
2212.74
2212.34
2212.05
2211.87
2211.79
2211.8
2211.89
2212.03
2212.19
2212.31
2212.35
2212.24
2211.89
2211.37
1593.55
1594.05
1594.21
1594.11
1593.86
1593.54
1593.21
1592.93
1592.73
1592.65
1592.69
1592.87
1593.17
1593.61
1594.17
1594.86
1595.69
1596.64
1597.74
1598.98
1600.39
1601.97
1603.72
1605.7
1607.97
1610.61
1613.62
1616.95
1620.47
1624.02
1627.34
1629.16
1625.96
1615.35
1598.74
1578.97
1560.83
1547.02
1538.7
1534.69
1535.32
1540.84
1550.97
1565.77
1584.26
1603.79
1619.01
1627.42
1628.79
1626.37
1623.05
1619.63
1616.26
1613.09
1610.2
1607.64
1605.43
1603.55
1601.94
1600.5
1599.2
1598.02
1596.97
1596.05
1595.26
1594.59
1594.05
1593.63
1593.35
1593.19
1593.15
1593.24
1593.43
1593.7
1594.01
1594.3
1594.49
1594.53
1594.32
1593.77
976.257
976.989
976.964
976.585
976.057
975.453
974.865
974.37
974.013
973.817
973.788
973.925
974.222
974.664
975.247
975.978
976.862
977.897
979.082
980.433
981.982
983.737
985.677
987.858
990.473
993.699
997.587
1002.14
1007.33
1013.33
1020.68
1028.01
1027.54
1014.28
990.048
961.088
936.727
919.457
910.811
905.649
905.951
912.554
924.426
943.021
968.11
997.911
1019.41
1028.71
1026.12
1018.42
1011.56
1006.02
1001.18
996.897
993.189
990.054
987.46
985.373
983.664
982.142
980.714
979.416
978.276
977.284
976.426
975.71
975.136
974.711
974.44
974.323
974.362
974.56
974.91
975.389
975.945
976.5
976.962
977.264
977.21
976.384
359.994
366.061
369.18
370.482
370.924
370.897
370.66
370.38
370.139
369.98
369.922
369.972
370.133
370.398
370.762
371.25
371.876
372.64
373.543
374.601
375.859
377.321
378.932
380.714
382.827
385.534
388.933
393.11
398.062
404.364
413.727
426.607
435.371
445.764
459.804
466.362
467.169
467.321
468.078
466.378
466.052
467.773
468.486
468.517
466.244
456.484
441.149
432.826
423.08
410.963
402.682
397.01
392.398
388.453
385.168
382.5
380.339
378.665
377.288
376.012
374.795
373.725
372.834
372.096
371.488
371.008
370.648
370.402
370.27
370.242
370.311
370.475
370.716
370.991
371.213
371.214
370.73
369.37
366.18
360.009
20.6443
26.5641
29.7702
31.404
32.2154
32.5715
32.6947
32.7091
32.6754
32.6257
32.5785
32.5444
32.5316
32.5498
32.6118
32.7006
32.8284
33.0053
33.2453
33.5591
33.9485
34.4209
35.0372
35.8322
36.5367
37.2578
38.1474
39.3912
41.1028
43.6953
47.3647
52.8833
63.898
109.98
183.542
229.944
257.904
276.438
286.067
288.659
288.069
284.257
273.255
253.336
221.761
166.121
93.0752
59.1996
51.4723
46.5884
43.3119
40.9112
39.2619
38.0316
37.1641
36.5202
35.91
35.3555
34.6538
34.0371
33.5878
33.2542
32.9956
32.8161
32.695
32.6201
32.586
32.5804
32.5944
32.6321
32.6844
32.7378
32.775
32.7623
32.6383
32.2789
31.4594
29.8122
26.5899
20.6423
-10.5427
-10.5428
-10.5429
-10.5431
-10.5433
-10.5436
-10.544
-10.5445
-10.5452
-10.5459
-10.5466
-10.5478
-10.5489
-10.5401
-10.5151
-10.5103
-10.5206
-10.541
-10.5552
-10.553
-10.5524
-10.5495
-10.4262
-10.1051
-9.9825
-10.0622
-10.1901
-10.1682
-9.87925
-9.06842
-8.48791
-8.12915
-6.18038
14.7076
67.1091
112.83
137.655
154.473
163.386
161.643
161.009
161.267
152.176
134.85
105.169
52.5575
6.29799
-7.2235
-8.1806
-8.39325
-9.05838
-9.90133
-10.2043
-10.2607
-10.0829
-9.87478
-9.8291
-9.88201
-10.2433
-10.4824
-10.5405
-10.5423
-10.5525
-10.543
-10.5297
-10.5224
-10.5185
-10.522
-10.5363
-10.5424
-10.5423
-10.5421
-10.542
-10.5416
-10.5412
-10.5409
-10.5406
-10.5404
-10.5402
-10.54
-11.0334
-11.0334
-11.0335
-11.0337
-11.034
-11.0343
-11.0346
-11.0351
-11.0356
-11.0361
-11.0365
-11.0373
-11.0388
-11.0386
-11.0333
-11.0274
-11.0298
-11.0376
-11.0416
-11.0409
-11.0412
-11.0438
-11.0339
-10.925
-10.769
-10.7082
-10.7049
-10.6811
-10.5393
-10.1854
-9.77151
-9.51817
-9.26002
-8.84464
0.652274
16.2155
24.1889
30.7735
34.0099
29.3872
29.1637
32.9186
30.2643
24.2149
14.2982
-3.05319
-9.22792
-9.34145
-9.50167
-9.72374
-10.2115
-10.6061
-10.7129
-10.7072
-10.6678
-10.6193
-10.6429
-10.7751
-10.9665
-11.0266
-11.0309
-11.03
-11.0339
-11.0327
-11.0278
-11.024
-11.0236
-11.0268
-11.0291
-11.0299
-11.0309
-11.0317
-11.032
-11.0319
-11.0317
-11.0314
-11.0312
-11.031
-11.0309
-11.0308
-11.5239
-11.5239
-11.524
-11.5242
-11.5244
-11.5247
-11.5251
-11.5256
-11.5263
-11.527
-11.5278
-11.5291
-11.5304
-11.5298
-11.526
-11.5229
-11.5259
-11.5319
-11.5343
-11.5335
-11.5335
-11.5343
-11.5342
-11.5068
-11.4473
-11.3659
-11.3165
-11.3042
-11.2938
-11.19
-11.0446
-10.9712
-11.0677
-11.4019
-11.5313
-11.4385
-11.4744
-11.511
-11.5198
-11.5179
-11.5192
-11.5199
-11.52
-11.5199
-11.5196
-11.588
-11.3338
-10.9806
-10.9026
-10.9788
-11.1869
-11.3412
-11.3159
-11.3035
-11.3039
-11.3204
-11.3766
-11.4577
-11.514
-11.521
-11.522
-11.524
-11.5275
-11.5246
-11.5189
-11.5157
-11.5146
-11.5159
-11.5206
-11.5234
-11.5236
-11.5234
-11.5231
-11.5227
-11.5223
-11.5219
-11.5217
-11.5214
-11.5213
-11.5212
-12.0143
-12.0144
-12.0144
-12.0146
-12.0148
-12.0151
-12.0155
-12.0159
-12.0166
-12.0172
-12.0179
-12.019
-12.0203
-12.0207
-12.0199
-12.0192
-12.0225
-12.0261
-12.026
-12.0248
-12.0246
-12.0251
-12.0254
-12.0263
-12.0242
-11.9906
-11.967
-11.9675
-11.985
-12.0108
-11.9934
-11.9928
-12.029
-12.0088
-11.9945
-11.9696
-11.9723
-12.0002
-12.0074
-12.0073
-12.0085
-12.0088
-12.0092
-12.0093
-12.0093
-12.0093
-11.9986
-11.9965
-11.9666
-11.9943
-11.9998
-11.9711
-11.9459
-11.9518
-11.9424
-11.9546
-11.9933
-12.0126
-12.0129
-12.011
-12.0103
-12.0137
-12.0187
-12.0155
-12.0129
-12.0138
-12.0129
-12.0121
-12.0137
-12.0149
-12.0149
-12.0149
-12.0141
-12.0133
-12.0128
-12.0124
-12.0121
-12.0119
-12.0118
-12.0117
-12.5048
-12.5048
-12.5049
-12.505
-12.5052
-12.5055
-12.5058
-12.5062
-12.5068
-12.5074
-12.5081
-12.5092
-12.5105
-12.5113
-12.5125
-12.5151
-12.518
-12.5174
-12.5162
-12.5155
-12.5152
-12.5156
-12.5167
-12.5191
-12.5202
-12.5182
-12.5094
-12.5077
-12.506
-12.5025
-12.5006
-12.5005
-12.5028
-12.502
-12.4982
-12.4929
-12.4905
-12.4975
-12.4999
-12.4988
-12.5003
-12.5009
-12.501
-12.5009
-12.5007
-12.5
-12.4998
-12.4998
-12.4982
-12.4977
-12.498
-12.4993
-12.5027
-12.5011
-12.4986
-12.5
-12.5062
-12.5052
-12.5025
-12.4998
-12.4965
-12.5
-12.5105
-12.5136
-12.515
-12.5156
-12.5136
-12.5096
-12.5071
-12.5069
-12.5067
-12.5064
-12.5051
-12.504
-12.5034
-12.5029
-12.5026
-12.5024
-12.5022
-12.5022
-12.9953
-12.9953
-12.9953
-12.9954
-12.9956
-12.9958
-12.9961
-12.9964
-12.9969
-12.9975
-12.9982
-12.9991
-13.0004
-13.0019
-13.0034
-13.0053
-13.0076
-13.0089
-13.0088
-13.0088
-13.0089
-13.0089
-13.009
-13.0091
-13.008
-13.0051
-13.0013
-12.9981
-12.9957
-12.9942
-12.993
-12.9924
-12.9924
-12.9929
-12.9935
-12.9944
-12.9935
-12.9897
-12.9888
-12.9901
-12.9911
-12.9913
-12.9911
-12.9911
-12.9908
-12.9902
-12.9896
-12.9892
-12.9887
-12.9885
-12.9874
-12.9882
-12.9931
-12.995
-12.995
-12.9942
-12.9943
-12.9946
-12.9939
-12.9924
-12.9896
-12.9893
-12.9999
-13.0114
-13.0152
-13.0161
-13.0159
-13.0096
-13.0028
-12.9995
-12.9986
-12.9972
-12.9958
-12.9946
-12.9939
-12.9934
-12.9931
-12.9929
-12.9928
-12.9927
-13.4857
-13.4857
-13.4858
-13.4859
-13.486
-13.4861
-13.4863
-13.4866
-13.4869
-13.4874
-13.4879
-13.4885
-13.4898
-13.4916
-13.4938
-13.4967
-13.4995
-13.5019
-13.5039
-13.5053
-13.506
-13.506
-13.5049
-13.5031
-13.5001
-13.496
-13.4922
-13.4891
-13.4864
-13.4844
-13.4834
-13.483
-13.483
-13.4828
-13.4827
-13.4829
-13.4835
-13.4832
-13.4816
-13.4816
-13.4818
-13.4819
-13.482
-13.4818
-13.4814
-13.4808
-13.4804
-13.4803
-13.4795
-13.479
-13.4791
-13.4796
-13.4806
-13.4818
-13.4826
-13.4832
-13.4848
-13.4871
-13.489
-13.4907
-13.4924
-13.4949
-13.5025
-13.5094
-13.5092
-13.5075
-13.5064
-13.5038
-13.4987
-13.4936
-13.4899
-13.4871
-13.486
-13.485
-13.4843
-13.4839
-13.4836
-13.4834
-13.4833
-13.4833
-13.9762
-13.9762
-13.9762
-13.9763
-13.9763
-13.9764
-13.9765
-13.9767
-13.9769
-13.9772
-13.9775
-13.978
-13.9792
-13.981
-13.9834
-13.9872
-13.9917
-13.9959
-13.9996
-14.0021
-14.0031
-14.0024
-14.0004
-13.9971
-13.9928
-13.9881
-13.9838
-13.9804
-13.9777
-13.9758
-13.9745
-13.9739
-13.9736
-13.9735
-13.9734
-13.9734
-13.9736
-13.9736
-13.9732
-13.9727
-13.9724
-13.9725
-13.9726
-13.9725
-13.9721
-13.9716
-13.9712
-13.9709
-13.9705
-13.9702
-13.9701
-13.9703
-13.9712
-13.9727
-13.9743
-13.976
-13.9784
-13.9821
-13.987
-13.9928
-13.9984
-14.0034
-14.0075
-14.008
-14.0038
-13.9993
-13.9967
-13.9929
-13.9876
-13.9842
-13.98
-13.9762
-13.9754
-13.9751
-13.9747
-13.9744
-13.9742
-13.974
-13.9739
-13.9739
-14.4667
-14.4667
-14.4667
-14.4667
-14.4667
-14.4668
-14.4668
-14.4669
-14.467
-14.4671
-14.4672
-14.4675
-14.4684
-14.4703
-14.4737
-14.4788
-14.4852
-14.492
-14.4983
-14.5033
-14.5055
-14.5045
-14.5006
-14.4945
-14.4876
-14.4811
-14.4759
-14.4719
-14.4689
-14.4669
-14.4656
-14.4647
-14.4642
-14.4639
-14.4638
-14.4639
-14.4642
-14.4644
-14.4643
-14.4636
-14.4631
-14.4632
-14.4633
-14.4633
-14.4629
-14.4625
-14.4622
-14.462
-14.4618
-14.4616
-14.4617
-14.4621
-14.4629
-14.4643
-14.4661
-14.4685
-14.4724
-14.4792
-14.4896
-14.5021
-14.5131
-14.5198
-14.5206
-14.5152
-14.505
-14.494
-14.4852
-14.4785
-14.4734
-14.4713
-14.4695
-14.4664
-14.465
-14.4651
-14.465
-14.4648
-14.4647
-14.4646
-14.4646
-14.4645
-14.9572
-14.9572
-14.9572
-14.9572
-14.9572
-14.9572
-14.9571
-14.9571
-14.9571
-14.9571
-14.9571
-14.9571
-14.9577
-14.96
-14.9647
-14.9719
-14.981
-14.9914
-15.0022
-15.0109
-15.0153
-15.0141
-15.0075
-14.9972
-14.9859
-14.976
-14.9687
-14.9638
-14.9604
-14.9581
-14.9566
-14.9556
-14.955
-14.9546
-14.9544
-14.9543
-14.9545
-14.9548
-14.9549
-14.9544
-14.9539
-14.9539
-14.954
-14.954
-14.9538
-14.9536
-14.9534
-14.9532
-14.9531
-14.9531
-14.9533
-14.9538
-14.9548
-14.9564
-14.9588
-14.9623
-14.9686
-14.9802
-14.9982
-15.0194
-15.0373
-15.046
-15.044
-15.0315
-15.0123
-14.9918
-14.9747
-14.963
-14.9567
-14.9575
-14.9593
-14.9571
-14.9553
-14.9554
-14.9555
-14.9554
-14.9553
-14.9553
-14.9552
-14.9552
-15.4478
-15.4478
-15.4478
-15.4477
-15.4477
-15.4476
-15.4475
-15.4474
-15.4473
-15.4472
-15.4471
-15.447
-15.4474
-15.4501
-15.4565
-15.4662
-15.4789
-15.4946
-15.5116
-15.5261
-15.5338
-15.5326
-15.5227
-15.5065
-15.4886
-15.4733
-15.4624
-15.4559
-15.4519
-15.4493
-15.4476
-15.4465
-15.4458
-15.4454
-15.4451
-15.445
-15.4451
-15.4453
-15.4455
-15.4453
-15.4447
-15.4447
-15.4448
-15.4448
-15.4447
-15.4446
-15.4445
-15.4445
-15.4445
-15.4447
-15.4451
-15.4458
-15.447
-15.449
-15.4519
-15.4567
-15.4657
-15.4826
-15.5086
-15.5389
-15.5634
-15.5743
-15.5698
-15.5502
-15.5216
-15.4916
-15.4662
-15.4488
-15.441
-15.4452
-15.4501
-15.4478
-15.4458
-15.446
-15.4461
-15.446
-15.446
-15.446
-15.446
-15.446
-15.9384
-15.9383
-15.9383
-15.9383
-15.9382
-15.9381
-15.938
-15.9379
-15.9377
-15.9376
-15.9374
-15.9372
-15.9376
-15.9408
-15.9487
-15.961
-15.9776
-15.9991
-16.023
-16.0438
-16.0554
-16.0547
-16.0417
-16.0192
-15.9939
-15.9723
-15.9569
-15.948
-15.9433
-15.9404
-15.9386
-15.9374
-15.9367
-15.9362
-15.9359
-15.9357
-15.9358
-15.9359
-15.9361
-15.936
-15.9356
-15.9356
-15.9357
-15.9357
-15.9357
-15.9356
-15.9357
-15.9357
-15.9359
-15.9362
-15.9368
-15.9377
-15.9392
-15.9415
-15.9449
-15.9507
-15.9618
-15.9827
-16.0149
-16.0516
-16.0806
-16.0935
-16.087
-16.0626
-16.0274
-15.9905
-15.9593
-15.9366
-15.9291
-15.9372
-15.9419
-15.9387
-15.9367
-15.9367
-15.9368
-15.9368
-15.9368
-15.9368
-15.9368
-15.9368
-16.429
-16.429
-16.4289
-16.4289
-16.4288
-16.4287
-16.4286
-16.4285
-16.4283
-16.4282
-16.4281
-16.428
-16.4283
-16.4315
-16.4406
-16.4551
-16.4748
-16.5005
-16.5296
-16.5552
-16.5696
-16.5692
-16.5539
-16.527
-16.4962
-16.4701
-16.451
-16.4397
-16.4344
-16.4313
-16.4295
-16.4283
-16.4276
-16.4271
-16.4268
-16.4266
-16.4265
-16.4266
-16.4268
-16.4268
-16.4265
-16.4264
-16.4265
-16.4266
-16.4266
-16.4267
-16.4268
-16.427
-16.4273
-16.4277
-16.4284
-16.4295
-16.4311
-16.4336
-16.4373
-16.4434
-16.4551
-16.4772
-16.5112
-16.5501
-16.5804
-16.5934
-16.5868
-16.5615
-16.5245
-16.4854
-16.4522
-16.4266
-16.4258
-16.4354
-16.4339
-16.4297
-16.4281
-16.4279
-16.4278
-16.4277
-16.4276
-16.4276
-16.4276
-16.4276
-16.9196
-16.9196
-16.9196
-16.9195
-16.9195
-16.9194
-16.9193
-16.9192
-16.919
-16.9189
-16.9189
-16.919
-16.9195
-16.9221
-16.9312
-16.9469
-16.9683
-16.9949
-17.025
-17.052
-17.0671
-17.0665
-17.0509
-17.0232
-16.9906
-16.9629
-16.9429
-16.9306
-16.925
-16.9221
-16.9203
-16.9192
-16.9185
-16.918
-16.9177
-16.9175
-16.9174
-16.9174
-16.9175
-16.9175
-16.9174
-16.9174
-16.9174
-16.9175
-16.9176
-16.9177
-16.9179
-16.9181
-16.9185
-16.9191
-16.9199
-16.921
-16.9227
-16.9253
-16.9289
-16.9346
-16.945
-16.9651
-16.9966
-17.0331
-17.0619
-17.0741
-17.0682
-17.0446
-17.0103
-16.9742
-16.9437
-16.9256
-16.9284
-16.93
-16.9248
-16.9211
-16.9197
-16.9191
-16.9188
-16.9187
-16.9186
-16.9185
-16.9185
-16.9184
-17.4103
-17.4102
-17.4102
-17.4102
-17.4101
-17.4101
-17.41
-17.4099
-17.4098
-17.4098
-17.4099
-17.4102
-17.4109
-17.4128
-17.4204
-17.4352
-17.456
-17.4812
-17.5086
-17.5331
-17.5469
-17.5463
-17.5321
-17.5068
-17.4765
-17.4501
-17.4318
-17.4206
-17.4152
-17.4127
-17.411
-17.41
-17.4093
-17.4089
-17.4086
-17.4084
-17.4082
-17.4082
-17.4083
-17.4083
-17.4083
-17.4083
-17.4083
-17.4084
-17.4085
-17.4087
-17.4089
-17.4092
-17.4097
-17.4103
-17.4111
-17.4123
-17.414
-17.4165
-17.4199
-17.4246
-17.4329
-17.4484
-17.473
-17.5028
-17.5276
-17.5384
-17.5334
-17.5136
-17.4853
-17.457
-17.4335
-17.4279
-17.4241
-17.4186
-17.4148
-17.4126
-17.4111
-17.4103
-17.4099
-17.4096
-17.4095
-17.4094
-17.4093
-17.4093
-17.9009
-17.9009
-17.9009
-17.9009
-17.9008
-17.9008
-17.9008
-17.9008
-17.9007
-17.9008
-17.901
-17.9014
-17.9022
-17.9039
-17.909
-17.9204
-17.938
-17.9594
-17.9819
-18.0016
-18.0129
-18.0128
-18.001
-17.9798
-17.9549
-17.9333
-17.9185
-17.9096
-17.9051
-17.9031
-17.9018
-17.9008
-17.9002
-17.8998
-17.8995
-17.8993
-17.8991
-17.8991
-17.8991
-17.8991
-17.8991
-17.8991
-17.8992
-17.8993
-17.8994
-17.8996
-17.8999
-17.9003
-17.9007
-17.9014
-17.9022
-17.9034
-17.905
-17.9072
-17.9102
-17.9141
-17.9202
-17.9304
-17.9462
-17.9661
-17.9837
-17.992
-17.9882
-17.973
-17.9524
-17.9345
-17.921
-17.9185
-17.9122
-17.9076
-17.9051
-17.9036
-17.9023
-17.9014
-17.9009
-17.9006
-17.9004
-17.9003
-17.9002
-17.9001
-18.3916
-18.3916
-18.3916
-18.3916
-18.3916
-18.3916
-18.3916
-18.3916
-18.3916
-18.3918
-18.392
-18.3925
-18.3934
-18.3948
-18.3981
-18.4054
-18.4176
-18.4333
-18.4499
-18.4644
-18.4728
-18.4726
-18.4636
-18.4478
-18.4301
-18.4151
-18.4047
-18.3984
-18.3951
-18.3935
-18.3924
-18.3916
-18.3911
-18.3907
-18.3904
-18.3902
-18.39
-18.3899
-18.39
-18.39
-18.39
-18.39
-18.3901
-18.3902
-18.3903
-18.3906
-18.3908
-18.3912
-18.3917
-18.3923
-18.3932
-18.3943
-18.3957
-18.3977
-18.4002
-18.4035
-18.408
-18.4143
-18.4231
-18.4336
-18.4428
-18.4467
-18.4437
-18.4342
-18.4221
-18.413
-18.408
-18.4052
-18.4005
-18.3975
-18.3961
-18.3944
-18.3932
-18.3924
-18.3918
-18.3915
-18.3913
-18.3911
-18.3911
-18.391
-18.8823
-18.8823
-18.8823
-18.8823
-18.8823
-18.8823
-18.8824
-18.8824
-18.8826
-18.8828
-18.8831
-18.8836
-18.8845
-18.8857
-18.8879
-18.8922
-18.8993
-18.9088
-18.9191
-18.9283
-18.9336
-18.9337
-18.9281
-18.9184
-18.9076
-18.8985
-18.8917
-18.8875
-18.8853
-18.8841
-18.8831
-18.8824
-18.8819
-18.8816
-18.8813
-18.8811
-18.8809
-18.8808
-18.8808
-18.8808
-18.8808
-18.8809
-18.8809
-18.881
-18.8812
-18.8814
-18.8817
-18.8821
-18.8826
-18.8832
-18.884
-18.885
-18.8863
-18.8879
-18.8901
-18.8928
-18.8962
-18.9006
-18.9058
-18.9111
-18.9148
-18.9156
-18.9131
-18.9082
-18.9025
-18.8982
-18.896
-18.8934
-18.8908
-18.8887
-18.8867
-18.8851
-18.884
-18.8832
-18.8827
-18.8823
-18.8821
-18.8819
-18.8818
-18.8817
-19.373
-19.373
-19.373
-19.373
-19.3731
-19.3731
-19.3732
-19.3733
-19.3735
-19.3737
-19.3741
-19.3747
-19.3755
-19.3766
-19.3782
-19.3809
-19.3849
-19.3899
-19.3955
-19.4008
-19.4041
-19.4042
-19.401
-19.3957
-19.3897
-19.3842
-19.3799
-19.3772
-19.3757
-19.3747
-19.3739
-19.3732
-19.3728
-19.3724
-19.3721
-19.3719
-19.3718
-19.3717
-19.3716
-19.3716
-19.3716
-19.3717
-19.3717
-19.3718
-19.372
-19.3723
-19.3725
-19.3729
-19.3734
-19.3739
-19.3747
-19.3756
-19.3767
-19.3781
-19.3798
-19.382
-19.3846
-19.3878
-19.3913
-19.3946
-19.3968
-19.3973
-19.3959
-19.393
-19.3897
-19.3871
-19.3853
-19.383
-19.3808
-19.3786
-19.3768
-19.3755
-19.3746
-19.3739
-19.3734
-19.3731
-19.3728
-19.3727
-19.3726
-19.3725
-19.8637
-19.8637
-19.8637
-19.8637
-19.8638
-19.8639
-19.864
-19.8641
-19.8643
-19.8646
-19.865
-19.8656
-19.8664
-19.8674
-19.8688
-19.8708
-19.8734
-19.8765
-19.8797
-19.8822
-19.8837
-19.8837
-19.882
-19.879
-19.8754
-19.8718
-19.8692
-19.8674
-19.8663
-19.8653
-19.8646
-19.864
-19.8636
-19.8632
-19.863
-19.8628
-19.8626
-19.8625
-19.8624
-19.8624
-19.8624
-19.8625
-19.8625
-19.8626
-19.8628
-19.863
-19.8633
-19.8637
-19.8641
-19.8646
-19.8653
-19.8661
-19.867
-19.8682
-19.8696
-19.8712
-19.8732
-19.8754
-19.8778
-19.8799
-19.8814
-19.8819
-19.8813
-19.8796
-19.8776
-19.8756
-19.8738
-19.8719
-19.8699
-19.8683
-19.8669
-19.8659
-19.8651
-19.8645
-19.8641
-19.8638
-19.8635
-19.8634
-19.8633
-19.8632
-20.3544
-20.3544
-20.3544
-20.3544
-20.3545
-20.3546
-20.3547
-20.3549
-20.3551
-20.3554
-20.3559
-20.3564
-20.3572
-20.3581
-20.3593
-20.3609
-20.3628
-20.3651
-20.367
-20.3682
-20.3688
-20.3685
-20.3675
-20.3655
-20.3631
-20.3609
-20.3592
-20.3579
-20.3569
-20.356
-20.3554
-20.3548
-20.3544
-20.354
-20.3538
-20.3536
-20.3534
-20.3533
-20.3532
-20.3532
-20.3532
-20.3532
-20.3533
-20.3534
-20.3536
-20.3538
-20.354
-20.3544
-20.3548
-20.3552
-20.3558
-20.3565
-20.3573
-20.3583
-20.3594
-20.3607
-20.3621
-20.3637
-20.3652
-20.3666
-20.3675
-20.3678
-20.3674
-20.3664
-20.3651
-20.3637
-20.3622
-20.3608
-20.3594
-20.3582
-20.3571
-20.3563
-20.3556
-20.3551
-20.3547
-20.3544
-20.3542
-20.354
-20.3539
-20.3539
-20.845
-20.845
-20.8451
-20.8451
-20.8452
-20.8453
-20.8454
-20.8456
-20.8459
-20.8462
-20.8466
-20.8471
-20.8478
-20.8487
-20.8497
-20.851
-20.8524
-20.8539
-20.8553
-20.8562
-20.8566
-20.8562
-20.8553
-20.8538
-20.8523
-20.8509
-20.8495
-20.8484
-20.8474
-20.8467
-20.8461
-20.8456
-20.8451
-20.8448
-20.8446
-20.8444
-20.8442
-20.8441
-20.844
-20.8439
-20.844
-20.844
-20.844
-20.8441
-20.8443
-20.8445
-20.8447
-20.845
-20.8454
-20.8458
-20.8463
-20.8469
-20.8476
-20.8484
-20.8493
-20.8503
-20.8513
-20.8525
-20.8535
-20.8544
-20.8549
-20.8551
-20.8548
-20.8541
-20.8533
-20.8523
-20.8512
-20.8501
-20.8491
-20.8482
-20.8473
-20.8467
-20.8461
-20.8456
-20.8453
-20.845
-20.8448
-20.8447
-20.8446
-20.8445
-21.3357
-21.3357
-21.3358
-21.3358
-21.3359
-21.336
-21.3361
-21.3363
-21.3366
-21.3369
-21.3373
-21.3378
-21.3384
-21.3392
-21.3401
-21.3411
-21.3422
-21.3433
-21.3442
-21.3448
-21.3451
-21.345
-21.3442
-21.3432
-21.342
-21.3408
-21.3397