/*--------------------------------*- C++ -*----------------------------------*\
| =========                 |                                                 |
| \\      /  F ield         | OpenFOAM: The Open Source CFD Toolbox           |
|  \\    /   O peration     | Version:  2412                                  |
|   \\  /    A nd           | Website:  www.openfoam.com                      |
|    \\/     M anipulation  |                                                 |
\*---------------------------------------------------------------------------*/
FoamFile
{
    version     2.0;
    format      ascii;
    arch        "LSB;label=32;scalar=64";
    class       volScalarField;
    location    "0.85";
    object      p;
}
// * * * * * * * * * * * * * * * * * * * * * * * * * * * * * * * * * * * * * //

dimensions      [1 -1 -2 0 0 0 0];

internalField   nonuniform List<scalar> 
6400
(
22938
22936.9
22908.2
22901.6
22909.3
22911.1
22908.4
22906.4
22901
22897.9
22899.8
22906.5
22912.2
22917.1
22921
22924.1
22926.3
22927.6
22929.1
22933
22941.1
22954.9
22975.2
23003.2
23039.8
23086.3
23142.6
23208
23279.9
23355.2
23430.3
23501.9
23568.1
23627.8
23681
23728.3
23770.2
23807.3
23839.5
23866.3
23886.9
23901
23909.6
23914.8
23919.3
23925
23932.1
23938.2
23939
23929.4
23905.7
23866.4
23812.9
23748.5
23677
23601.2
23522.2
23439.2
23350.4
23255
23153.7
23050.6
22951.8
22864.2
22793.2
22740.4
22702.9
22674.4
22647.8
22617.7
22582.3
22543.2
22504.7
22473.1
22455
22454.9
22470.9
22493.8
22510.8
22525.4
21699
21722
21706.9
21686.9
21677.2
21673.4
21667.9
21666.9
21665.9
21665.8
21666.7
21671.2
21676.7
21683
21688.8
21694
21698.6
21702.9
21707.8
21715.3
21727.8
21746.7
21772.6
21805.4
21845.6
21893.9
21950.7
22015.2
22085.1
22157.1
22227.4
22293.5
22353.8
22408.3
22457.5
22502.2
22543.4
22581.2
22614.9
22642.9
22663.7
22676.6
22682.5
22684.1
22684.8
22686.9
22690.6
22693.1
22689.9
22675.8
22647.5
22604.4
22548.7
22484.6
22416.4
22346.9
22276.3
22202.8
22123.4
22035.9
21941
21842.7
21747.8
21663.9
21596.4
21546.4
21510
21479.9
21448.8
21411.6
21367.6
21320
21274
21236.9
21216
21216
21233.5
21257.6
21276.3
21292.2
20463.9
20479.9
20482.6
20477.1
20468.3
20463.2
20456.6
20454.7
20454
20455.4
20459.1
20465.4
20472
20477.8
20482.2
20485.4
20488.1
20491.3
20496.3
20504.6
20517.4
20535.7
20560.1
20591.1
20629.7
20676.9
20733
20797
20866.5
20938
21008.1
21074.3
21135.3
21191
21242.1
21289.2
21333
21373
21407.9
21435.7
21454.5
21464
21465.6
21462.6
21458.8
21456.8
21456.7
21455.4
21448.6
21431.3
21400.8
21357
21302.7
21242.3
21179.7
21117.2
21054.3
20988.4
20915.9
20834.3
20744
20649.3
20557.3
20475.6
20409.3
20358.8
20319.8
20285
20248
20204.8
20155.7
20104.6
20057.8
20022.7
20004.8
20004.9
20016.6
20031
20039.6
20049.8
19259
19258.4
19262.6
19263.4
19260.2
19258.3
19253.2
19251.6
19251.5
19252.9
19256.4
19262.1
19269
19274.4
19277.6
19279.5
19281.6
19285.3
19291.8
19301.8
19315.5
19333.2
19355.7
19384.4
19420.9
19466.5
19521.5
19584.4
19652.7
19722.9
19791.7
19857.1
19918
19974.4
20027
20076.3
20122.5
20164.5
20200.4
20227.7
20244.4
20250.4
20247.8
20240.4
20232.4
20226.2
20222
20216.8
20206.1
20185.8
20153.4
20109.6
20057.4
20001.3
19944.9
19889.9
19835.3
19777.7
19712.8
19637.7
19552.7
19462.2
19373.3
19293.8
19228.1
19176
19132.6
19091.8
19048.6
19001.4
18951.3
18901.6
18857.5
18825.1
18807.3
18802.4
18804
18805.3
18803.9
18811.4
18066.9
18055.4
18054.8
18053.5
18051.9
18051.9
18048.6
18047.6
18048.5
18050.3
18053.5
18057.5
18063.8
18070.5
18076.2
18081.3
18086.6
18092.9
18101.7
18113.6
18128.7
18147.3
18169.8
18197.6
18232.5
18275.8
18328.1
18388
18453.1
18520.2
18586.3
18649.3
18708.5
18764.1
18816.8
18866.9
18914.2
18957
18992.7
19018.4
19032.3
19034.7
19028.1
19016.7
19004.7
18994.9
18987
18978.4
18964.6
18942
18908.7
18865.9
18816.7
18765.4
18715.3
18667.6
18620.6
18570.5
18512.6
18443.5
18363.5
18277.2
18191.7
18114.4
18049.1
17994.7
17946.5
17899.4
17851.2
17802.5
17755.7
17712.6
17675.3
17646.4
17626
17610.9
17600.7
17589.2
17583.2
17592.9
16868
16854.2
16855.7
16852.9
16850.2
16848.3
16844.4
16842
16843
16846.3
16851.4
16855.9
16861.2
16867.6
16874.6
16882.4
16891.1
16901
16912.6
16926.4
16942.9
16962.3
16985.3
17013.2
17047.4
17089.4
17139.8
17197.6
17260.3
17324.8
17388.1
17448.1
17504.2
17556.8
17606.6
17654.2
17699.1
17739.4
17772.5
17795.6
17807
17807.2
17799.1
17786.9
17774.8
17765.2
17757.7
17749.4
17736.1
17714.4
17682.7
17642
17595.4
17547
17499.8
17455
17410.9
17363.6
17308.3
17241.7
17164.4
17081
16998.8
16924.1
16859.6
16803.6
16751.8
16701.2
16651.7
16606
16566.4
16533.1
16504.6
16479.5
16455.9
16431.3
16412.6
16394.5
16389.4
16400.7
15673.8
15656.7
15657.3
15654.4
15649.4
15643.5
15638.5
15635
15635.2
15638.7
15644.8
15650.9
15656.8
15663.6
15671.9
15681.7
15692.9
15705.6
15720.2
15736.9
15755.9
15777.2
15801.1
15828.8
15861.8
15901.6
15948.9
16002.8
16061.1
16120.5
16178.2
16232.4
16282.8
16330.1
16375.4
16419.4
16461.5
16499.8
16531.6
16554.1
16565.8
16567.4
16561.5
16552.5
16543.9
16537.6
16532.8
16526.2
16513.9
16492.4
16460.7
16420
16373.5
16325.1
16277.9
16233.1
16189.1
16141.8
16086.9
16021.4
15946.5
15867.1
15790
15720.3
15659.2
15604.3
15552.7
15503.6
15459.2
15421.7
15391.5
15366.7
15344.2
15320.6
15293.3
15263
15240.4
15222.4
15219
15224.7
14483
14466.9
14462.2
14458
14451.7
14443.6
14439.7
14437.6
14439.5
14446.1
14455.3
14465.2
14473.6
14481.4
14490.3
14500.6
14512.2
14525.4
14540.4
14557.3
14575.6
14595.3
14616.7
14641.2
14670.5
14706.8
14750.8
14801.8
14857.1
14913.5
14967.7
15018.1
15064.1
15106.8
15147.1
15185.7
15222.3
15255.1
15281.6
15299.6
15307.9
15307.5
15301.3
15293.4
15286.9
15283.3
15281.3
15277.6
15268.1
15250
15222.1
15185.7
15143.6
15099.1
15055
15012.4
14969.8
14923.5
14869.6
14806.3
14735.2
14661.4
14590.9
14527
14469.6
14415.7
14363.9
14316.2
14276.2
14245.8
14222.8
14203.2
14183.3
14160.3
14131.6
14101.5
14079.4
14063.4
14057.4
14048.9
13296.3
13282.1
13274.3
13268.2
13260.2
13250.4
13247.8
13247.9
13250.9
13259.3
13270.9
13283.2
13293.6
13302.1
13310.4
13319.4
13329.5
13341
13354.3
13369.1
13384.7
13400.9
13418.1
13437.9
13462.7
13494.7
13534.8
13582.1
13633.9
13686.6
13737.2
13783.7
13825.8
13864.2
13900.1
13934
13965.6
13993.6
14015.7
14030.3
14036.6
14035.8
14031
14025.7
14022.5
14022.1
14022.7
14021.1
14013.9
13998.6
13974.6
13942.9
13905.7
13865.6
13825
13784.4
13742.7
13696.8
13643.8
13583
13516.8
13450
13387.2
13330.2
13277.7
13227
13178
13134
13099.3
13074.5
13056
13038.6
13019.6
12997.4
12969.7
12943.8
12923.3
12907
12893.2
12871.5
12121.9
12108.6
12099.1
12091.6
12083.6
12073
12070.5
12072.2
12075.8
12083.6
12095
12106.6
12116
12122.9
12128.9
12134.9
12141.7
12150.1
12160.1
12171.6
12183.9
12196.7
12210.7
12227.6
12250
12279.9
12318.1
12363.3
12412.6
12462.4
12509.6
12552.4
12590.4
12624.3
12655
12683.3
12709.1
12731.4
12748.6
12759.5
12764.1
12763.9
12761.7
12760.3
12761.6
12765.1
12768.8
12769.8
12765.3
12753.9
12735.1
12709.6
12678.8
12644.4
12607.6
12568.9
12527.2
12480.5
12427.3
12368.1
12306.1
12245.5
12189.6
12138.5
12090.1
12042.5
11997
11957.5
11927.2
11905.5
11888.2
11870.9
11853.1
11833.7
11810
11789.8
11769
11750.6
11728.2
11705.8
10955.6
10945.9
10936.3
10926.2
10918.6
10910.1
10907
10910.4
10916
10923.8
10933.8
10943.1
10949.6
10953.1
10954.9
10956.1
10958
10961.4
10966.7
10973.4
10981.4
10990.5
11001.6
11016.6
11037.9
11067.3
11105.2
11150
11198.6
11247.3
11292.8
11333.1
11367.7
11397.1
11422.1
11443.7
11462.1
11476.9
11487.5
11493.4
11495.3
11495
11494.9
11497.1
11502.3
11509.4
11516.5
11521
11521.5
11516.9
11506.9
11491.3
11470.1
11443.5
11412
11375.5
11333.6
11285.3
11230.7
11171.8
11112.2
11056.1
11005
10957.9
10911.9
10866.1
10823
10786.7
10758.8
10737.6
10719.3
10701.7
10686.3
10671.9
10654.3
10639.3
10615.9
10596.9
10572.4
10557.8
9797.14
9790.46
9781.85
9769.67
9761.12
9756.18
9753.67
9759
9767.97
9777.65
9786.57
9792.18
9793.57
9791.45
9787.23
9782.28
9777.91
9775.01
9774.01
9774.88
9777.52
9782.13
9789.75
9802.25
9821.93
9850.44
9887.92
9932.61
9981.2
10029.8
10075
10114.3
10146.9
10172.7
10192.6
10207.7
10218.9
10226.5
10230.6
10231.7
10230.8
10229.8
10230.6
10234.3
10240.9
10249.2
10257.8
10265.5
10271.6
10275.8
10277
10273.8
10264.3
10247.3
10222.4
10189.2
10147.9
10098.8
10043.7
9985.92
9929.84
9878.84
9833.29
9790.41
9746.74
9701.74
9658.79
9622.33
9593.98
9571.54
9552.02
9535.23
9523.25
9514.31
9503
9491.06
9464.95
9448.9
9430.77
9417.34
8649.81
8644.38
8636.37
8624.37
8614.26
8611.28
8610.07
8615.96
8625.86
8636.02
8643.1
8644.64
8640.38
8631.92
8621.14
8609.8
8599.29
8590.61
8584.26
8580.37
8578.89
8580.02
8584.67
8594.55
8611.78
8637.87
8672.94
8715.26
8761.6
8808.09
8851.07
8887.86
8917.07
8938.59
8953.31
8962.58
8967.79
8970.01
8970.09
8968.87
8967.45
8967.08
8968.74
8972.73
8978.61
8985.68
8993.65
9002.87
9013.83
9026.18
9038.08
9046.47
9048.07
9040.39
9022.1
8992.85
8953.1
8904.56
8850.62
8796.11
8745.79
8702.21
8664.08
8627.07
8587.06
8543.68
8500.63
8462.72
8432.48
8408.97
8390.06
8376.63
8369.04
8364.63
8358.19
8347.6
8321.29
8310.99
8299.8
8279.08
7507.82
7502.97
7496.57
7486.33
7476.37
7470.77
7471.07
7476.69
7485.38
7493.24
7496.48
7492.8
7482.82
7468.54
7452.3
7435.98
7421.06
7408.57
7399.07
7392.65
7389.09
7388.32
7390.98
7398.6
7413.14
7436.1
7467.64
7506.21
7548.78
7591.58
7630.99
7664.18
7689.62
7707.13
7717.72
7723.06
7724.96
7724.92
7724.05
7723.15
7722.82
7723.48
7725.19
7727.66
7730.6
7734.32
7740.03
7749.48
7763.87
7782.61
7802.95
7820.64
7831.33
7831.68
7819.74
7794.86
7757.86
7711.54
7660.9
7612.03
7569.87
7535.58
7505.76
7474.39
7437.06
7394.1
7349.91
7309.69
7277.21
7253.39
7237.41
7229.52
7226.71
7224.6
7221.38
7212.89
7190.05
7187.91
7176.31
7155.75
6369.24
6364.08
6359.59
6350.89
6344.93
6334.8
6333.41
6338.26
6344.24
6347.83
6345.78
6336.97
6322.31
6304.11
6284.66
6265.89
6249.19
6235.54
6225.32
6218.37
6214.12
6212.23
6213.14
6218.29
6229.61
6248.62
6275.53
6308.98
6346.18
6383.67
6418.01
6446.55
6467.84
6481.84
6489.66
6493.14
6494.17
6494.25
6494.25
6494.53
6495.04
6495.49
6495.43
6494.58
6493.3
6493.05
6496.32
6505.74
6522.7
6546.26
6573.03
6598.19
6616.86
6625.1
6620.21
6601.06
6568.66
6526.89
6482.14
6441.35
6408.96
6384.27
6361.58
6333.59
6296.41
6252.02
6206.1
6164.32
6130.79
6107.65
6095.31
6092.7
6092.95
6090.53
6089.37
6085.57
6067.64
6072.12
6056.04
6049.1
5232.16
5228.32
5223.26
5212.4
5209.31
5201.09
5197.5
5199.31
5201.94
5200.99
5194.3
5181.56
5164.34
5144.68
5124.67
5105.94
5089.72
5076.69
5066.92
5059.84
5054.56
5050.6
5048.44
5049.6
5056.06
5069.31
5089.67
5115.98
5145.85
5176.23
5204.15
5227.3
5244.51
5255.84
5262.44
5265.97
5267.97
5269.45
5270.7
5271.47
5271.22
5269.36
5265.52
5259.92
5253.79
5249.55
5250.42
5259.32
5277.56
5303.99
5335.2
5366.43
5392.62
5409.19
5412.5
5400.81
5375.44
5341.34
5306
5276.43
5255.69
5240.81
5224.12
5197.97
5159.99
5114.35
5068.22
5027.46
4995.45
4973.83
4964.11
4963.58
4963.5
4958.83
4960.6
4962.4
4948.42
4953.84
4937.71
4939.84
4090.33
4090.84
4084.58
4074.29
4065.54
4059.43
4056.61
4055.99
4054.64
4049.77
4039.83
4025.35
4007.75
3988.95
3970.5
3953.72
3939.43
3928.01
3919.13
3911.96
3905.58
3899.63
3894.79
3892.65
3895.06
3903.41
3917.97
3937.76
3960.81
3984.6
4006.68
4025.16
4039.13
4048.69
4054.77
4058.59
4061.1
4062.71
4063.22
4062.09
4058.74
4052.85
4044.54
4034.68
4025.14
4018.72
4018.66
4027.61
4046.59
4074.46
4108.14
4143.24
4174.78
4197.69
4207.8
4203.23
4185.86
4161.42
4137.43
4119.76
4109.34
4101.22
4087.07
4060.6
4022.15
3978.14
3936.06
3900.34
3872
3851.85
3843.32
3843.57
3842.46
3836.01
3842.48
3849.22
3835.99
3841.14
3832.14
3836.4
2943.23
2947.8
2938.33
2933.83
2926.88
2921.14
2917.3
2913.44
2907.74
2898.74
2886.21
2870.67
2853.42
2835.66
2818.6
2803.06
2789.58
2778.15
2768.33
2759.36
2750.68
2742.34
2735.21
2730.7
2730.29
2734.95
2744.76
2758.87
2775.71
2793.34
2809.87
2823.88
2834.62
2842.09
2846.82
2849.43
2850.3
2849.41
2846.49
2841.25
2833.62
2823.87
2812.71
2801.42
2791.95
2786.78
2788.5
2799.05
2819.02
2847.3
2881.31
2917.28
2950.68
2976.84
2992
2994.92
2987.89
2976.17
2965.67
2959.9
2957.71
2953.38
2939.76
2913.37
2877.63
2840.25
2807.19
2779.51
2755.4
2735.34
2725.84
2725.52
2724.49
2716.95
2725.01
2733.16
2717.41
2727.67
2722.27
2735.71
1784.02
1794.16
1788.58
1782.61
1777.55
1773.14
1768.67
1763.09
1755.48
1745.53
1733.33
1719.55
1704.88
1690.18
1676.06
1663.03
1651.26
1640.72
1631.11
1622.11
1613.62
1605.91
1599.66
1595.73
1594.87
1597.44
1603.32
1611.87
1622.06
1632.68
1642.56
1650.77
1656.79
1660.49
1662.03
1661.63
1659.41
1655.43
1649.75
1642.54
1634.2
1625.3
1616.63
1609.24
1604.5
1603.97
1609.13
1620.89
1639.26
1663.23
1690.87
1719.58
1746.31
1768.07
1782.73
1789.97
1791.52
1790.46
1789.65
1790.13
1790.18
1785.78
1773.1
1752.04
1727.07
1703.46
1682.96
1664.03
1645.17
1629.04
1623
1623.94
1621.66
1613.29
1620.44
1629.56
1609.89
1623.01
1614.51
1647.09
597.585
606.992
603.234
600.396
599.688
598.849
597.29
594.923
591.775
587.873
583.407
578.465
573.366
568.299
563.522
559.097
555.052
551.311
547.843
544.649
541.817
539.477
537.784
536.86
536.776
537.52
538.993
541.012
543.324
545.643
547.697
549.273
550.239
550.538
550.158
549.111
547.432
545.199
542.554
539.703
536.884
534.336
532.297
531.035
530.868
532.146
535.162
540.032
546.627
554.563
563.255
571.971
579.921
586.427
591.158
594.263
596.248
597.665
598.829
599.651
599.519
597.423
592.703
586.059
579.297
573.613
568.991
564.5
558.441
551.526
550.259
554.464
554.443
546.863
548.104
557.715
551.706
556.548
543.031
569.884
-10.0486
-10.0442
-10.0457
-10.0474
-10.0486
-10.0502
-10.0514
-10.052
-10.0524
-10.0526
-10.0527
-10.0527
-10.0528
-10.0528
-10.0527
-10.0525
-10.0523
-10.0521
-10.0517
-10.0509
-10.05
-10.0492
-10.0484
-10.0474
-10.0464
-10.0455
-10.0445
-10.0435
-10.0426
-10.0414
-10.0399
-10.0386
-10.0375
-10.0364
-10.0356
-10.0353
-10.0353
-10.0355
-10.0359
-10.0366
-10.0375
-10.0385
-10.0394
-10.0393
-10.0393
-10.0394
-10.0396
-10.0397
-10.0399
-10.0401
-10.0403
-10.0407
-10.0412
-10.0418
-10.0425
-10.0431
-10.0436
-10.0439
-10.0431
-10.0416
-10.0401
-10.0388
-10.0377
-10.0366
-10.0357
-10.035
-10.0346
-10.034
-10.0336
-10.034
-10.0341
-10.0333
-10.0335
-10.0351
-10.036
-10.0361
-10.0367
-10.0362
-10.0365
-10.0342
-10.545
-10.5492
-10.5471
-10.5457
-10.5454
-10.5456
-10.5457
-10.5457
-10.5457
-10.5458
-10.5457
-10.5457
-10.5457
-10.5457
-10.5457
-10.5457
-10.5457
-10.5457
-10.5457
-10.5457
-10.5457
-10.5457
-10.5457
-10.5457
-10.5457
-10.5457
-10.5457
-10.5457
-10.5457
-10.5457
-10.5457
-10.5457
-10.5457
-10.5457
-10.5457
-10.5457
-10.5457
-10.5457
-10.5457
-10.5457
-10.5457
-10.5457
-10.5457
-10.5457
-10.5457
-10.5457
-10.5457
-10.5457
-10.5457
-10.5457
-10.5457
-10.5457
-10.5457
-10.5457
-10.5457
-10.5457
-10.5457
-10.5457
-10.5457
-10.5456
-10.5457
-10.5457
-10.5457
-10.5456
-10.5457
-10.5457
-10.5457
-10.5457
-10.5456
-10.5457
-10.5457
-10.5457
-10.5457
-10.5457
-10.5457
-10.5457
-10.5457
-10.5457
-10.5457
-10.5457
-11.0359
-11.04
-11.0374
-11.0358
-11.0357
-11.0362
-11.0364
-11.0363
-11.0362
-11.0362
-11.0362
-11.0362
-11.0362
-11.0362
-11.0362
-11.0362
-11.0362
-11.0362
-11.0362
-11.0362
-11.0362
-11.0362
-11.0362
-11.0362
-11.0362
-11.0362
-11.0362
-11.0362
-11.0362
-11.0362
-11.0362
-11.0362
-11.0362
-11.0362
-11.0362
-11.0362
-11.0362
-11.0362
-11.0362
-11.0362
-11.0362
-11.0362
-11.0362
-11.0362
-11.0362
-11.0362
-11.0362
-11.0362
-11.0362
-11.0362
-11.0362
-11.0362
-11.0362
-11.0362
-11.0362
-11.0362
-11.0362
-11.0362
-11.0362
-11.0362
-11.0362
-11.0362
-11.0362
-11.0362
-11.0362
-11.0362
-11.0362
-11.0362
-11.0362
-11.0362
-11.0362
-11.0362
-11.0362
-11.0362
-11.0362
-11.0362
-11.0362
-11.0362
-11.0362
-11.0362
-11.523
-11.527
-11.528
-11.5272
-11.5265
-11.5265
-11.5267
-11.5268
-11.5267
-11.5267
-11.5267
-11.5267
-11.5267
-11.5267
-11.5267
-11.5267
-11.5267
-11.5267
-11.5267
-11.5267
-11.5267
-11.5267
-11.5267
-11.5267
-11.5267
-11.5267
-11.5267
-11.5267
-11.5267
-11.5267
-11.5267
-11.5267
-11.5267
-11.5267
-11.5267
-11.5267
-11.5267
-11.5267
-11.5267
-11.5267
-11.5267
-11.5267
-11.5267
-11.5267
-11.5267
-11.5267
-11.5267
-11.5267
-11.5267
-11.5267
-11.5267
-11.5267
-11.5267
-11.5267
-11.5267
-11.5267
-11.5267
-11.5267
-11.5267
-11.5267
-11.5267
-11.5267
-11.5267
-11.5267
-11.5267
-11.5267
-11.5267
-11.5267
-11.5267
-11.5267
-11.5267
-11.5267
-11.5267
-11.5267
-11.5267
-11.5267
-11.5267
-11.5267
-11.5267
-11.5267
-12.0157
-12.016
-12.0173
-12.0176
-12.0173
-12.0171
-12.0172
-12.0172
-12.0172
-12.0172
-12.0172
-12.0172
-12.0172
-12.0172
-12.0172
-12.0172
-12.0172
-12.0172
-12.0172
-12.0172
-12.0172
-12.0172
-12.0172
-12.0172
-12.0172
-12.0172
-12.0172
-12.0172
-12.0172
-12.0172
-12.0172
-12.0172
-12.0172
-12.0172
-12.0172
-12.0172
-12.0172
-12.0172
-12.0172
-12.0172
-12.0172
-12.0172
-12.0172
-12.0172
-12.0172
-12.0172
-12.0172
-12.0172
-12.0172
-12.0172
-12.0172
-12.0172
-12.0172
-12.0172
-12.0172
-12.0172
-12.0172
-12.0172
-12.0172
-12.0172
-12.0172
-12.0172
-12.0172
-12.0172
-12.0172
-12.0172
-12.0172
-12.0172
-12.0172
-12.0172
-12.0172
-12.0172
-12.0172
-12.0172
-12.0172
-12.0172
-12.0172
-12.0172
-12.0172
-12.0172
-12.5082
-12.5069
-12.5073
-12.5077
-12.5078
-12.5077
-12.5077
-12.5077
-12.5077
-12.5077
-12.5077
-12.5077
-12.5077
-12.5077
-12.5077
-12.5077
-12.5077
-12.5077
-12.5077
-12.5077
-12.5077
-12.5077
-12.5077
-12.5077
-12.5077
-12.5077
-12.5077
-12.5077
-12.5077
-12.5077
-12.5077
-12.5077
-12.5077
-12.5077
-12.5077
-12.5077
-12.5077
-12.5077
-12.5077
-12.5077
-12.5077
-12.5077
-12.5077
-12.5077
-12.5077
-12.5077
-12.5077
-12.5077
-12.5077
-12.5077
-12.5077
-12.5077
-12.5077
-12.5077
-12.5077
-12.5077
-12.5077
-12.5077
-12.5077
-12.5077
-12.5077
-12.5077
-12.5077
-12.5077
-12.5077
-12.5077
-12.5077
-12.5077
-12.5077
-12.5077
-12.5077
-12.5077
-12.5077
-12.5077
-12.5077
-12.5077
-12.5077
-12.5077
-12.5077
-12.5077
-12.999
-12.9982
-12.9979
-12.9981
-12.9983
-12.9983
-12.9982
-12.9982
-12.9982
-12.9982
-12.9982
-12.9982
-12.9982
-12.9982
-12.9982
-12.9982
-12.9982
-12.9982
-12.9982
-12.9982
-12.9982
-12.9982
-12.9982
-12.9982
-12.9982
-12.9982
-12.9982
-12.9982
-12.9982
-12.9982
-12.9982
-12.9982
-12.9982
-12.9982
-12.9982
-12.9982
-12.9982
-12.9982
-12.9982
-12.9982
-12.9982
-12.9982
-12.9982
-12.9982
-12.9982
-12.9982
-12.9982
-12.9982
-12.9982
-12.9982
-12.9982
-12.9982
-12.9982
-12.9982
-12.9982
-12.9982
-12.9982
-12.9982
-12.9982
-12.9982
-12.9982
-12.9982
-12.9982
-12.9982
-12.9982
-12.9982
-12.9982
-12.9982
-12.9982
-12.9982
-12.9982
-12.9982
-12.9982
-12.9982
-12.9982
-12.9982
-12.9982
-12.9982
-12.9982
-12.9982
-13.4889
-13.489
-13.4887
-13.4886
-13.4887
-13.4887
-13.4887
-13.4887
-13.4887
-13.4887
-13.4887
-13.4887
-13.4887
-13.4887
-13.4887
-13.4887
-13.4887
-13.4887
-13.4887
-13.4887
-13.4887
-13.4887
-13.4887
-13.4887
-13.4887
-13.4887
-13.4887
-13.4887
-13.4887
-13.4887
-13.4887
-13.4887
-13.4887
-13.4887
-13.4887
-13.4887
-13.4887
-13.4887
-13.4887
-13.4887
-13.4887
-13.4887
-13.4887
-13.4887
-13.4887
-13.4887
-13.4887
-13.4887
-13.4887
-13.4887
-13.4887
-13.4887
-13.4887
-13.4887
-13.4887
-13.4887
-13.4887
-13.4887
-13.4887
-13.4887
-13.4887
-13.4887
-13.4887
-13.4887
-13.4887
-13.4887
-13.4886
-13.4887
-13.4887
-13.4887
-13.4887
-13.4887
-13.4887
-13.4887
-13.4887
-13.4887
-13.4887
-13.4887
-13.4887
-13.4887
-13.979
-13.9794
-13.9793
-13.9792
-13.9792
-13.9792
-13.9792
-13.9792
-13.9792
-13.9792
-13.9792
-13.9792
-13.9792
-13.9792
-13.9792
-13.9792
-13.9792
-13.9792
-13.9792
-13.9792
-13.9792
-13.9792
-13.9792
-13.9792
-13.9792
-13.9792
-13.9792
-13.9792
-13.9792
-13.9792
-13.9792
-13.9792
-13.9792
-13.9792
-13.9792
-13.9792
-13.9792
-13.9792
-13.9792
-13.9792
-13.9792
-13.9792
-13.9792
-13.9792
-13.9792
-13.9792
-13.9792
-13.9792
-13.9792
-13.9792
-13.9792
-13.9792
-13.9792
-13.9792
-13.9792
-13.9792
-13.9792
-13.9792
-13.9792
-13.9792
-13.9792
-13.9792
-13.9792
-13.9792
-13.9792
-13.9792
-13.9792
-13.9792
-13.9792
-13.9792
-13.9792
-13.9792
-13.9792
-13.9792
-13.9792
-13.9792
-13.9792
-13.9792
-13.9792
-13.9792
-14.4695
-14.4697
-14.4698
-14.4697
-14.4697
-14.4697
-14.4697
-14.4697
-14.4697
-14.4697
-14.4697
-14.4697
-14.4697
-14.4697
-14.4697
-14.4697
-14.4697
-14.4697
-14.4697
-14.4697
-14.4697
-14.4697
-14.4697
-14.4697
-14.4697
-14.4696
-14.4697
-14.4697
-14.4697
-14.4697
-14.4697
-14.4697
-14.4696
-14.4696
-14.4697
-14.4697
-14.4697
-14.4697
-14.4697
-14.4697
-14.4697
-14.4697
-14.4697
-14.4697
-14.4697
-14.4697
-14.4697
-14.4697
-14.4697
-14.4697
-14.4697
-14.4697
-14.4697
-14.4697
-14.4697
-14.4697
-14.4697
-14.4697
-14.4697
-14.4697
-14.4697
-14.4697
-14.4697
-14.4697
-14.4697
-14.4697
-14.4697
-14.4697
-14.4697
-14.4697
-14.4697
-14.4697
-14.4697
-14.4697
-14.4697
-14.4697
-14.4697
-14.4697
-14.4697
-14.4697
-14.9601
-14.9601
-14.9602
-14.9602
-14.9602
-14.9602
-14.9602
-14.9602
-14.9602
-14.9602
-14.9602
-14.9602
-14.9602
-14.9602
-14.9602
-14.9602
-14.9602
-14.9602
-14.9602
-14.9602
-14.9602
-14.9602
-14.9602
-14.9602
-14.9601
-14.9601
-14.9601
-14.9601
-14.9601
-14.9601
-14.9601
-14.9601
-14.9601
-14.9601
-14.9601
-14.9601
-14.9601
-14.9601
-14.9601
-14.9602
-14.9602
-14.9602
-14.9602
-14.9602
-14.9602
-14.9602
-14.9602
-14.9602
-14.9602
-14.9602
-14.9602
-14.9602
-14.9602
-14.9602
-14.9602
-14.9602
-14.9602
-14.9602
-14.9602
-14.9602
-14.9602
-14.9602
-14.9602
-14.9602
-14.9602
-14.9602
-14.9602
-14.9602
-14.9602
-14.9602
-14.9602
-14.9602
-14.9602
-14.9602
-14.9602
-14.9602
-14.9602
-14.9602
-14.9602
-14.9602
-15.4508
-15.4506
-15.4507
-15.4507
-15.4507
-15.4507
-15.4507
-15.4507
-15.4507
-15.4507
-15.4507
-15.4507
-15.4507
-15.4507
-15.4507
-15.4507
-15.4507
-15.4507
-15.4507
-15.4507
-15.4507
-15.4507
-15.4507
-15.4507
-15.4507
-15.4506
-15.4506
-15.4506
-15.4506
-15.4506
-15.4506
-15.4506
-15.4506
-15.4506
-15.4506
-15.4506
-15.4506
-15.4506
-15.4506
-15.4506
-15.4506
-15.4507
-15.4507
-15.4507
-15.4507
-15.4507
-15.4507
-15.4507
-15.4506
-15.4507
-15.4507
-15.4506
-15.4507
-15.4507
-15.4507
-15.4506
-15.4507
-15.4507
-15.4507
-15.4506
-15.4507
-15.4507
-15.4507
-15.4507
-15.4507
-15.4507
-15.4507
-15.4507
-15.4507
-15.4507
-15.4507
-15.4507
-15.4507
-15.4507
-15.4507
-15.4507
-15.4507
-15.4507
-15.4507
-15.4507
-15.9413
-15.9412
-15.9412
-15.9412
-15.9412
-15.9412
-15.9412
-15.9412
-15.9412
-15.9412
-15.9412
-15.9412
-15.9412
-15.9412
-15.9412
-15.9412
-15.9412
-15.9412
-15.9412
-15.9412
-15.9412
-15.9412
-15.9412
-15.9411
-15.9411
-15.9411
-15.9411
-15.9411
-15.9411
-15.9411
-15.9411
-15.9411
-15.9411
-15.9411
-15.9411
-15.9411
-15.9411
-15.9411
-15.9411
-15.9411
-15.9411
-15.9411
-15.9411
-15.9411
-15.9411
-15.9411
-15.9412
-15.9411
-15.9411
-15.9412
-15.9411
-15.9411
-15.9412
-15.9412
-15.9412
-15.9411
-15.9412
-15.9412
-15.9412
-15.9411
-15.9411
-15.9412
-15.9412
-15.9412
-15.9412
-15.9412
-15.9412
-15.9412
-15.9412
-15.9412
-15.9412
-15.9412
-15.9412
-15.9412
-15.9412
-15.9412
-15.9412
-15.9412
-15.9412
-15.9412
-16.4317
-16.4317
-16.4317
-16.4317
-16.4317
-16.4317
-16.4317
-16.4317
-16.4317
-16.4317
-16.4317
-16.4317
-16.4317
-16.4317
-16.4317
-16.4317
-16.4317
-16.4317
-16.4317
-16.4317
-16.4317
-16.4317
-16.4317
-16.4316
-16.4316
-16.4316
-16.4316
-16.4316
-16.4316
-16.4316
-16.4316
-16.4316
-16.4316
-16.4316
-16.4316
-16.4316
-16.4316
-16.4316
-16.4316
-16.4316
-16.4316
-16.4316
-16.4316
-16.4316
-16.4316
-16.4316
-16.4316
-16.4316
-16.4316
-16.4317
-16.4317
-16.4316
-16.4316
-16.4317
-16.4317
-16.4316
-16.4316
-16.4317
-16.4317
-16.4317
-16.4316
-16.4316
-16.4317
-16.4317
-16.4317
-16.4317
-16.4317
-16.4317
-16.4317
-16.4317
-16.4317
-16.4317
-16.4317
-16.4317
-16.4317
-16.4317
-16.4317
-16.4317
-16.4317
-16.4317
-16.9222
-16.9222
-16.9222
-16.9222
-16.9222
-16.9222
-16.9222
-16.9222
-16.9222
-16.9222
-16.9222
-16.9222
-16.9222
-16.9222
-16.9222
-16.9222
-16.9222
-16.9222
-16.9222
-16.9222
-16.9222
-16.9222
-16.9222
-16.9222
-16.9221
-16.9221
-16.9221
-16.9221
-16.9221
-16.9221
-16.9221
-16.9221
-16.9221
-16.9221
-16.9221
-16.9221
-16.9221
-16.9221
-16.9221
-16.9221
-16.9221
-16.9221
-16.9221
-16.9221
-16.9221
-16.9221
-16.9221
-16.9221
-16.9221
-16.9221
-16.9222
-16.9221
-16.9221
-16.9221
-16.9222
-16.9222
-16.9221
-16.9221
-16.9222
-16.9222
-16.9222
-16.9221
-16.9221
-16.9221
-16.9222
-16.9222
-16.9222
-16.9222
-16.9222
-16.9222
-16.9222
-16.9222
-16.9222
-16.9222
-16.9222
-16.9222
-16.9222
-16.9222
-16.9222
-16.9222
-17.4126
-17.4127
-17.4127
-17.4127
-17.4127
-17.4127
-17.4127
-17.4127
-17.4127
-17.4127
-17.4127
-17.4127
-17.4127
-17.4127
-17.4127
-17.4127
-17.4127
-17.4127
-17.4127
-17.4127
-17.4127
-17.4127
-17.4127
-17.4127
-17.4127
-17.4126
-17.4126
-17.4126
-17.4126
-17.4126
-17.4126
-17.4126
-17.4126
-17.4126
-17.4126
-17.4126
-17.4126
-17.4126
-17.4126
-17.4126
-17.4126
-17.4126
-17.4126
-17.4126
-17.4126
-17.4126
-17.4126
-17.4126
-17.4126
-17.4126
-17.4126
-17.4126
-17.4126
-17.4126
-17.4127
-17.4127
-17.4127
-17.4127
-17.4126
-17.4126
-17.4127
-17.4127
-17.4126
-17.4127
-17.4127
-17.4127
-17.4127
-17.4127
-17.4127
-17.4127
-17.4127
-17.4127
-17.4127
-17.4127
-17.4127
-17.4127
-17.4127
-17.4127
-17.4127
-17.4127
-17.9032
-17.9032
-17.9032
-17.9032
-17.9032
-17.9032
-17.9032
-17.9032
-17.9032
-17.9032
-17.9032
-17.9032
-17.9032
-17.9032
-17.9032
-17.9032
-17.9032
-17.9032
-17.9032
-17.9032
-17.9032
-17.9032
-17.9032
-17.9032
-17.9032
-17.9032
-17.9031
-17.9031
-17.9031
-17.9031
-17.9031
-17.9031
-17.9031
-17.9031
-17.9031
-17.9031
-17.9031
-17.9031
-17.9031
-17.9031
-17.9031
-17.9031
-17.9031
-17.9031
-17.9031
-17.9031
-17.9031
-17.9031
-17.9031
-17.9031
-17.9031
-17.9031
-17.9031
-17.9031
-17.9032
-17.9032
-17.9031
-17.9032
-17.9031
-17.9031
-17.9032
-17.9032
-17.9031
-17.9032
-17.9032
-17.9032
-17.9032
-17.9032
-17.9032
-17.9032
-17.9032
-17.9032
-17.9032
-17.9032
-17.9032
-17.9032
-17.9032
-17.9032
-17.9032
-17.9032
-18.3937
-18.3937
-18.3937
-18.3937
-18.3937
-18.3937
-18.3937
-18.3937
-18.3937
-18.3937
-18.3937
-18.3937
-18.3937
-18.3937
-18.3937
-18.3937
-18.3937
-18.3937
-18.3937
-18.3937
-18.3937
-18.3937
-18.3937
-18.3937
-18.3937
-18.3937
-18.3936
-18.3936
-18.3936
-18.3936
-18.3936
-18.3936
-18.3936
-18.3936
-18.3936
-18.3936
-18.3936
-18.3936
-18.3936
-18.3936
-18.3936
-18.3936
-18.3936
-18.3936
-18.3936
-18.3936
-18.3936
-18.3936
-18.3936
-18.3936
-18.3936
-18.3936
-18.3936
-18.3936
-18.3936
-18.3937
-18.3936
-18.3937
-18.3937
-18.3936
-18.3936
-18.3937
-18.3937
-18.3937
-18.3937
-18.3937
-18.3937
-18.3937
-18.3937
-18.3937
-18.3937
-18.3937
-18.3937
-18.3937
-18.3937
-18.3937
-18.3937
-18.3937
-18.3937
-18.3937
-18.8842
-18.8842
-18.8842
-18.8842
-18.8842
-18.8842
-18.8842
-18.8842
-18.8842
-18.8842
-18.8842
-18.8842
-18.8842
-18.8842
-18.8842
-18.8842
-18.8842
-18.8842
-18.8842
-18.8842
-18.8842
-18.8842
-18.8842
-18.8842
-18.8842
-18.8842
-18.8841
-18.8841
-18.8841
-18.8841
-18.8841
-18.8841
-18.8841
-18.8841
-18.8841
-18.8841
-18.8841
-18.8841
-18.8841
-18.8841
-18.8841
-18.8841
-18.8841
-18.8841
-18.8841
-18.8841
-18.8841
-18.8841
-18.8841
-18.8841
-18.8841
-18.8841
-18.8842
-18.8841
-18.8841
-18.8842
-18.8842
-18.8842
-18.8842
-18.8842
-18.8841
-18.8842
-18.8842
-18.8842
-18.8842
-18.8842
-18.8842
-18.8842
-18.8842
-18.8842
-18.8842
-18.8842
-18.8842
-18.8842
-18.8842
-18.8842
-18.8842
-18.8842
-18.8842
-18.8842
-19.3747
-19.3747
-19.3747
-19.3747
-19.3747
-19.3747
-19.3747
-19.3747
-19.3747
-19.3747
-19.3747
-19.3747
-19.3747
-19.3747
-19.3747
-19.3747
-19.3747
-19.3747
-19.3747
-19.3747
-19.3747
-19.3747
-19.3747
-19.3747
-19.3747
-19.3747
-19.3746
-19.3746
-19.3746
-19.3746
-19.3746
-19.3746
-19.3746
-19.3746
-19.3746
-19.3746
-19.3746
-19.3746
-19.3746
-19.3746
-19.3746
-19.3746
-19.3746
-19.3746
-19.3746
-19.3746
-19.3746
-19.3746
-19.3746
-19.3746
-19.3746
-19.3746
-19.3747
-19.3746
-19.3746
-19.3746
-19.3747
-19.3747
-19.3747
-19.3747
-19.3747
-19.3747
-19.3746
-19.3746
-19.3747
-19.3747
-19.3747
-19.3747
-19.3747
-19.3747
-19.3747
-19.3747
-19.3747
-19.3747
-19.3747
-19.3747
-19.3747
-19.3747
-19.3747
-19.3747
-19.8652
-19.8652
-19.8652
-19.8652
-19.8652
-19.8652
-19.8652
-19.8652
-19.8652
-19.8652
-19.8652
-19.8652
-19.8652
-19.8652
-19.8652
-19.8652
-19.8652
-19.8652
-19.8652
-19.8652
-19.8652
-19.8652
-19.8652
-19.8652
-19.8652
-19.8652
-19.8651
-19.8651
-19.8651
-19.8651
-19.8651
-19.8651
-19.8651
-19.8651
-19.8651
-19.8651
-19.8651
-19.8651
-19.8651
-19.8651
-19.8651
-19.8651
-19.8651
-19.8651
-19.8651
-19.8651
-19.8651
-19.8651
-19.8651
-19.8651
-19.8651
-19.8651
-19.8652
-19.8652
-19.8651
-19.8651
-19.8651
-19.8652
-19.8651
-19.8652
-19.8652
-19.8652
-19.8652
-19.8652
-19.8652
-19.8652
-19.8652
-19.8652
-19.8652
-19.8652
-19.8652
-19.8652
-19.8652
-19.8652
-19.8652
-19.8652
-19.8652
-19.8652
-19.8652
-19.8652
-20.3557
-20.3557
-20.3557
-20.3557
-20.3557
-20.3557
-20.3557
-20.3557
-20.3557
-20.3557
-20.3557
-20.3557
-20.3557
-20.3557
-20.3557
-20.3557
-20.3557
-20.3557
-20.3557
-20.3557
-20.3557
-20.3557
-20.3557
-20.3557
-20.3557
-20.3557
-20.3556
-20.3556
-20.3556
-20.3556
-20.3556
-20.3556
-20.3556
-20.3556
-20.3556
-20.3556
-20.3556
-20.3556
-20.3556
-20.3556
-20.3556
-20.3556
-20.3556
-20.3556
-20.3556
-20.3556
-20.3556
-20.3556
-20.3556
-20.3556
-20.3556
-20.3556
-20.3556
-20.3556
-20.3557
-20.3556
-20.3556
-20.3556
-20.3557
-20.3557
-20.3557
-20.3557
-20.3557
-20.3557
-20.3557
-20.3557
-20.3557
-20.3557
-20.3557
-20.3557
-20.3557
-20.3557
-20.3557
-20.3557
-20.3557
-20.3557
-20.3557
-20.3557
-20.3557
-20.3557
-20.8462
-20.8462
-20.8462
-20.8462
-20.8462
-20.8462
-20.8462
-20.8462
-20.8462
-20.8462
-20.8462
-20.8462
-20.8462
-20.8462
-20.8462
-20.8462
-20.8462
-20.8462
-20.8462
-20.8462
-20.8462
-20.8462
-20.8462
-20.8462
-20.8462
-20.8462
-20.8461
-20.8461
-20.8461
-20.8461
-20.8461
-20.8461
-20.8461
-20.8461
-20.8461
-20.8461
-20.8461
-20.8461
-20.8461
-20.8461
-20.8461
-20.8461
-20.8461
-20.8461
-20.8461
-20.8461
-20.8461
-20.8461
-20.8461
-20.8462
-20.8461
-20.8461
-20.8461
-20.8461
-20.8462
-20.8462
-20.8461
-20.8462
-20.8462
-20.8462
-20.8462
-20.8462
-20.8462
-20.8462
-20.8462
-20.8462
-20.8462
-20.8462
-20.8462
-20.8462
-20.8462
-20.8462
-20.8462
-20.8462
-20.8462
-20.8462
-20.8462
-20.8462
-20.8462
-20.8462
-21.3367
-21.3367
-21.3367