/*--------------------------------*- C++ -*----------------------------------*\
| =========                 |                                                 |
| \\      /  F ield         | OpenFOAM: The Open Source CFD Toolbox           |
|  \\    /   O peration     | Version:  2412                                  |
|   \\  /    A nd           | Website:  www.openfoam.com                      |
|    \\/     M anipulation  |                                                 |
\*---------------------------------------------------------------------------*/
FoamFile
{
    version     2.0;
    format      ascii;
    arch        "LSB;label=32;scalar=64";
    class       volScalarField;
    location    "0.85";
    object      p_rgh;
}
// * * * * * * * * * * * * * * * * * * * * * * * * * * * * * * * * * * * * * //

dimensions      [1 -1 -2 0 0 0 0];

internalField   nonuniform List<scalar> 
6400
(
23551.2
23550.1
23521.3
23514.7
23522.4
23524.2
23521.5
23519.5
23514.1
23511
23512.9
23519.7
23525.3
23530.2
23534.1
23537.2
23539.5
23540.7
23542.2
23546.1
23554.3
23568
23588.4
23616.3
23653
23699.4
23755.8
23821.1
23893
23968.3
24043.4
24115
24181.2
24240.9
24294.2
24341.4
24383.4
24420.4
24452.7
24479.4
24500
24514.1
24522.8
24528
24532.4
24538.2
24545.3
24551.4
24552.1
24542.5
24518.8
24479.5
24426
24361.6
24290.1
24214.3
24135.3
24052.3
23963.6
23868.1
23766.9
23663.7
23564.9
23477.3
23406.3
23353.5
23316
23287.6
23260.9
23230.8
23195.4
23156.3
23117.9
23086.2
23068.1
23068
23084
23106.9
23123.9
23138.6
23538.3
23561.4
23546.3
23526.3
23516.6
23512.8
23507.3
23506.3
23505.3
23505.2
23506.1
23510.6
23516.1
23522.4
23528.2
23533.3
23538
23542.3
23547.2
23554.7
23567.2
23586.1
23612
23644.8
23685
23733.3
23790
23854.6
23924.5
23996.4
24066.8
24132.8
24193.2
24247.7
24296.8
24341.6
24382.8
24420.6
24454.3
24482.3
24503.1
24515.9
24521.9
24523.5
24524.2
24526.3
24530
24532.5
24529.3
24515.2
24486.9
24443.8
24388.1
24324
24255.8
24186.2
24115.7
24042.2
23962.7
23875.3
23780.4
23682
23587.1
23503.2
23435.8
23385.8
23349.3
23319.3
23288.1
23250.9
23207
23159.3
23113.4
23076.2
23055.4
23055.3
23072.9
23096.9
23115.7
23131.6
23529.5
23545.5
23548.2
23542.8
23533.9
23528.8
23522.3
23520.4
23519.7
23521
23524.7
23531.1
23537.7
23543.5
23547.9
23551.1
23553.7
23556.9
23561.9
23570.2
23583.1
23601.4
23625.7
23656.7
23695.3
23742.5
23798.6
23862.6
23932.1
24003.6
24073.7
24139.9
24200.9
24256.6
24307.7
24354.8
24398.6
24438.6
24473.5
24501.3
24520.2
24529.6
24531.2
24528.2
24524.5
24522.5
24522.3
24521.1
24514.2
24496.9
24466.4
24422.6
24368.4
24307.9
24245.3
24182.8
24119.9
24054
23981.5
23899.9
23809.6
23714.9
23622.9
23541.2
23474.9
23424.4
23385.3
23350.6
23313.5
23270.4
23221.3
23170.2
23123.4
23088.3
23070.4
23070.5
23082.2
23096.6
23105.2
23115.5
23550.9
23550.3
23554.5
23555.3
23552.1
23550.2
23545.1
23543.5
23543.5
23544.8
23548.3
23554
23560.9
23566.3
23569.5
23571.4
23573.5
23577.2
23583.7
23593.7
23607.4
23625.1
23647.6
23676.3
23712.8
23758.4
23813.3
23876.3
23944.5
24014.7
24083.6
24148.9
24209.8
24266.2
24318.8
24368.1
24414.3
24456.4
24492.3
24519.5
24536.2
24542.3
24539.7
24532.3
24524.3
24518.1
24513.9
24508.7
24498.1
24477.7
24445.3
24401.5
24349.3
24293.2
24236.8
24181.8
24127.2
24069.5
24004.6
23929.5
23844.6
23754
23665.2
23585.6
23519.9
23467.8
23424.4
23383.6
23340.4
23293.2
23243.2
23193.4
23149.3
23116.9
23099.2
23094.2
23095.8
23097.1
23095.7
23103.3
23585
23573.5
23572.9
23571.6
23570.1
23570.1
23566.8
23565.8
23566.7
23568.5
23571.7
23575.7
23582
23588.8
23594.4
23599.5
23604.8
23611.2
23619.9
23631.7
23646.9
23665.5
23688
23715.8
23750.6
23793.9
23846.2
23906.1
23971.2
24038.3
24104.3
24167.4
24226.6
24282.2
24334.8
24385
24432.3
24475.1
24510.7
24536.5
24550.4
24552.8
24546.2
24534.8
24522.9
24513.1
24505.2
24496.5
24482.8
24460.1
24426.9
24384
24334.8
24283.5
24233.4
24185.7
24138.7
24088.6
24030.7
23961.6
23881.6
23795.2
23709.8
23632.5
23567.1
23512.7
23464.5
23417.5
23369.2
23320.6
23273.8
23230.6
23193.4
23164.5
23144.1
23129
23118.8
23107.3
23101.3
23111
23612.3
23598.6
23600.1
23597.3
23594.6
23592.7
23588.8
23586.5
23587.4
23590.8
23595.9
23600.4
23605.7
23612.1
23619.1
23626.9
23635.6
23645.5
23657.1
23670.9
23687.3
23706.7
23729.7
23757.6
23791.8
23833.8
23884.1
23941.9
24004.6
24069.1
24132.3
24192.4
24248.5
24301
24350.9
24398.5
24443.4
24483.7
24516.8
24539.9
24551.3
24551.6
24543.5
24531.3
24519.2
24509.6
24502.1
24493.8
24480.6
24458.9
24427.1
24386.4
24339.8
24291.4
24244.2
24199.4
24155.3
24108
24052.6
23986
23908.7
23825.3
23743.1
23668.4
23603.9
23547.8
23496.1
23445.4
23396
23350.3
23310.7
23277.4
23248.9
23223.9
23200.3
23175.7
23156.9
23138.8
23133.8
23145.1
23644.3
23627.4
23627.9
23625.1
23620.1
23614.1
23609.2
23605.7
23605.9
23609.5
23615.5
23621.6
23627.5
23634.3
23642.6
23652.5
23663.6
23676.3
23690.9
23707.6
23726.6
23747.8
23771.8
23799.5
23832.4
23872.2
23919.4
23973.4
24031.6
24091
24148.7
24202.9
24253.3
24300.6
24345.9
24389.9
24432
24470.3
24502.1
24524.6
24536.4
24538
24532.2
24523.1
24514.5
24508.3
24503.4
24496.9
24484.5
24463.1
24431.3
24390.6
24344.1
24295.7
24248.6
24203.7
24159.7
24112.4
24057.5
23992
23917.1
23837.7
23760.6
23690.8
23629.7
23574.8
23523.2
23474.2
23429.7
23392.2
23362
23337.3
23314.8
23291.2
23263.8
23233.6
23211
23193
23189.6
23195.3
23679.8
23663.8
23659.1
23654.9
23648.6
23640.6
23636.7
23634.6
23636.5
23643.1
23652.3
23662.2
23670.6
23678.4
23687.3
23697.6
23709.2
23722.3
23737.4
23754.2
23772.6
23792.2
23813.6
23838
23867.4
23903.6
23947.6
23998.6
24053.9
24110.2
24164.4
24214.8
24260.9
24303.5
24343.8
24382.4
24419
24451.8
24478.4
24496.4
24504.7
24504.3
24498.2
24490.2
24483.8
24480.2
24478.2
24474.5
24465
24446.9
24419
24382.6
24340.5
24296
24251.9
24209.3
24166.6
24120.3
24066.4
24003.1
23932
23858.3
23787.7
23723.8
23666.3
23612.5
23560.7
23513
23473
23442.6
23419.6
23400
23380.1
23357.1
23328.4
23298.3
23276.3
23260.3
23254.3
23245.8
23719.4
23705.2
23697.4
23691.4
23683.4
23673.6
23671
23671.1
23674.1
23682.5
23694.2
23706.5
23716.9
23725.4
23733.7
23742.7
23752.7
23764.3
23777.5
23792.3
23807.9
23824
23841.2
23861
23885.8
23917.7
23957.8
24005.1
24056.9
24109.6
24160.2
24206.7
24248.7
24287.2
24323
24356.9
24388.6
24416.5
24438.7
24453.3
24459.6
24458.9
24454.1
24448.8
24445.6
24445.2
24445.9
24444.3
24437.1
24421.8
24397.8
24366.1
24328.8
24288.8
24248.1
24207.6
24165.8
24119.9
24066.9
24006.1
23939.9
23873.1
23810.2
23753.3
23700.7
23650
23601
23557.1
23522.3
23497.5
23479
23461.6
23442.6
23420.4
23392.7
23366.9
23346.4
23330.1
23316.3
23294.6
23771.3
23758
23748.6
23741.1
23733
23722.5
23719.9
23721.6
23725.3
23733.1
23744.5
23756.1
23765.5
23772.4
23778.3
23784.4
23791.2
23799.5
23809.6
23821
23833.3
23846.1
23860
23877
23899.3
23929.2
23967.4
24012.6
24061.9
24111.7
24158.9
24201.6
24239.6
24273.4
24304.2
24332.5
24358.3
24380.6
24397.8
24408.8
24413.4
24413.2
24411
24409.7
24410.9
24414.4
24418.2
24419.2
24414.7
24403.3
24384.5
24359
24328.2
24293.8
24257
24218.3
24176.6
24129.9
24076.7
24017.5
23955.4
23894.9
23838.9
23787.8
23739.3
23691.7
23646.3
23606.8
23576.5
23554.8
23537.4
23520.1
23502.4
23483
23459.3
23439.1
23418.4
23399.9
23377.6
23355.2
23831.2
23821.6
23812
23802
23794.4
23785.9
23782.8
23786.2
23791.8
23799.6
23809.5
23818.9
23825.4
23828.9
23830.6
23831.8
23833.7
23837.1
23842.3
23849.1
23857
23866.1
23877.2
23892.2
23913.4
23942.8
23980.7
24025.6
24074.2
24122.8
24168.3
24208.6
24243.2
24272.5
24297.6
24319.1
24337.5
24352.4
24363
24368.9
24370.8
24370.5
24370.4
24372.6
24377.8
24385
24392.1
24396.7
24397.1
24392.5
24382.5
24367
24345.7
24319.2
24287.6
24251.2
24209.2
24161
24106.3
24047.4
23987.8
23931.6
23880.6
23833.4
23787.4
23741.6
23698.5
23662.2
23634.4
23613.1
23594.8
23577.2
23561.8
23547.5
23529.8
23514.9
23491.5
23472.6
23448.1
23433.5
23899
23892.4
23883.8
23871.7
23863.1
23858.2
23855.7
23861
23870
23879.7
23888.6
23894.2
23895.6
23893.4
23889.2
23884.2
23879.9
23876.9
23875.9
23876.8
23879.4
23884
23891.6
23904.1
23923.8
23952.3
23989.7
24034.4
24083
24131.6
24176.7
24216.1
24248.6
24274.3
24294.3
24309.4
24320.6
24328.2
24332.3
24333.4
24332.6
24331.6
24332.4
24336.1
24342.7
24351
24359.6
24367.3
24373.5
24377.7
24378.9
24375.7
24366.2
24349.2
24324.3
24291.1
24249.8
24200.7
24145.6
24087.8
24031.7
23980.7
23935.1
23892.2
23848.5
23803.5
23760.6
23724.1
23695.8
23673.3
23653.8
23637
23625
23616.1
23604.8
23592.9
23566.8
23550.8
23532.7
23519.3
23977.9
23972.5
23964.6
23952.6
23942.5
23939.6
23938.4
23944.3
23954.2
23964.3
23971.4
23972.9
23968.6
23960.1
23949.4
23938
23927.5
23918.8
23912.4
23908.5
23907
23908.1
23912.8
23922.6
23939.8
23965.9
24001
24043.3
24089.6
24136.1
24179.1
24215.8
24245
24266.5
24281.2
24290.5
24295.7
24298
24298
24296.8
24295.4
24295
24296.7
24300.7
24306.6
24313.7
24321.7
24331
24342
24354.3
24366.2
24374.6
24376.2
24368.6
24350.3
24321
24281.3
24232.7
24178.8
24124.2
24073.9
24030.3
23992.2
23955.1
23915.1
23871.7
23828.7
23790.8
23760.5
23737
23718.1
23704.7
23697.1
23692.7
23686.2
23675.7
23649.4
23639.1
23627.9
23607.3
24062.2
24057.4
24051
24040.8
24030.9
24025.3
24025.6
24031.2
24039.9
24047.8
24051
24047.3
24037.3
24023
24006.8
23990.4
23975.5
23963
23953.5
23947
23943.4
23942.7
23945.3
23952.9
23967.5
23990.4
24022
24060.5
24103.1
24145.9
24185.2
24218.4
24243.8
24261.3
24271.9
24277.2
24279.1
24279.1
24278.2
24277.3
24277
24277.7
24279.4
24281.9
24284.9
24288.7
24294.4
24303.9
24318.3
24337
24357.4
24375.1
24385.8
24386.1
24374.2
24349.3
24312.3
24266
24215.3
24166.5
24124.3
24090
24060.1
24028.7
23991.4
23948.4
23904.2
23864
23831.5
23807.7
23791.7
23783.8
23781
23778.9
23775.7
23767.2
23744.4
23742.3
23730.7
23710.2
24149.8
24144.7
24140.3
24131.6
24125.7
24115.6
24114.2
24119.1
24125
24128.6
24126.5
24117.7
24103
24084.8
24065.3
24046.6
24029.8
24016.2
24006
23999
23994.7
23992.8
23993.7
23998.9
24010.2
24029.2
24056.1
24089.5
24126.7
24164.2
24198.5
24227
24248.3
24262.3
24270.1
24273.6
24274.6
24274.7
24274.7
24275
24275.5
24276
24275.9
24275.1
24273.9
24273.6
24276.9
24286.4
24303.4
24327
24353.7
24378.9
24397.6
24405.8
24400.9
24381.8
24349.4
24307.6
24262.8
24222
24189.6
24164.9
24142.2
24114.2
24077
24032.6
23986.7
23944.9
23911.3
23888.2
23875.9
23873.3
23873.5
23871.1
23869.9
23866.1
23848.2
23852.7
23836.7
23829.8
24239
24235.2
24230.2
24219.3
24216.2
24208
24204.5
24206.3
24208.9
24207.9
24201.2
24188.5
24171.2
24151.6
24131.6
24112.8
24096.6
24083.5
24073.8
24066.7
24061.4
24057.4
24055.3
24056.5
24062.9
24076.2
24096.5
24122.8
24152.7
24183
24211
24234.1
24251.3
24262.6
24269.2
24272.7
24274.7
24276.2
24277.4
24278.2
24278
24276.1
24272.3
24266.8
24260.7
24256.5
24257.3
24266.3
24284.5
24311
24342.2
24373.4
24399.6
24416.2
24419.5
24407.8
24382.4
24348.3
24313
24283.4
24262.7
24247.7
24231
24204.9
24166.9
24121.2
24075.1
24034.3
24002.3
23980.7
23971
23970.5
23970.4
23965.7
23967.5
23969.3
23955.3
23960.7
23944.6
23946.8
24323.4
24323.9
24317.6
24307.3
24298.6
24292.5
24289.7
24289.1
24287.7
24282.8
24272.9
24258.4
24240.8
24222
24203.5
24186.8
24172.5
24161.1
24152.2
24145.1
24138.7
24132.7
24127.9
24125.8
24128.2
24136.6
24151.1
24170.9
24194
24217.7
24239.8
24258.3
24272.3
24281.8
24287.9
24291.7
24294.2
24295.8
24296.3
24295.2
24291.9
24286
24277.7
24267.8
24258.3
24251.9
24251.9
24260.8
24279.8
24307.7
24341.4
24376.5
24408
24430.9
24441
24436.5
24419.1
24394.7
24370.7
24353
24342.6
24334.5
24320.3
24293.8
24255.4
24211.4
24169.3
24133.6
24105.2
24085.1
24076.6
24076.8
24075.7
24069.2
24075.7
24082.5
24069.2
24074.4
24065.4
24069.6
24402.5
24406.9
24397.5
24392.9
24386
24380.3
24376.4
24372.6
24366.9
24357.9
24345.3
24329.8
24312.5
24294.8
24277.8
24262.2
24248.8
24237.4
24227.6
24218.6
24210
24201.7
24194.6
24190.1
24189.7
24194.4
24204.2
24218.4
24235.2
24252.9
24269.4
24283.4
24294.2
24301.7
24306.4
24309
24309.9
24309
24306.1
24300.8
24293.2
24283.4
24272.3
24261
24251.5
24246.3
24248
24258.6
24278.5
24306.8
24340.8
24376.8
24410.2
24436.3
24451.5
24454.4
24447.4
24435.7
24425.2
24419.5
24417.3
24413
24399.4
24373
24337.3
24299.9
24266.9
24239.2
24215.1
24195
24185.5
24185.2
24184.1
24176.6
24184.7
24192.8
24177.1
24187.3
24181.9
24195.2
24469.5
24479.4
24473.8
24467.8
24462.7
24458.3
24453.9
24448.3
24440.7
24430.7
24418.5
24404.8
24390.1
24375.5
24361.4
24348.4
24336.7
24326.1
24316.6
24307.6
24299.2
24291.5
24285.3
24281.4
24280.6
24283.2
24289.1
24297.7
24307.9
24318.6
24328.5
24336.7
24342.7
24346.5
24348
24347.6
24345.4
24341.4
24335.7
24328.5
24320.2
24311.2
24302.6
24295.1
24290.4
24289.8
24295
24306.7
24325.1
24349
24376.7
24405.4
24432.1
24453.8
24468.5
24475.8
24477.3
24476.3
24475.5
24476
24476.1
24471.7
24459
24438
24413.1
24389.5
24369
24350.1
24331.2
24315.1
24309.1
24310
24307.7
24299.4
24306.5
24315.6
24295.9
24309
24300.5
24332.8
24508.6
24517.6
24513.9
24511.1
24510.3
24509.4
24507.9
24505.5
24502.3
24498.5
24494
24489.1
24484.1
24479.1
24474.4
24470
24466.1
24462.4
24459
24455.9
24453.1
24450.8
24449.2
24448.3
24448.3
24449.1
24450.6
24452.7
24455
24457.4
24459.5
24461.1
24462
24462.3
24461.9
24460.9
24459.2
24457
24454.3
24451.5
24448.7
24446.1
24444
24442.7
24442.5
24443.7
24446.7
24451.5
24458.1
24466
24474.7
24483.5
24491.5
24498
24502.8
24506
24508
24509.5
24510.7
24511.5
24511.4
24509.3
24504.6
24497.9
24491.2
24485.5
24480.9
24476.4
24470.3
24463.4
24462.1
24466.3
24466.3
24458.7
24459.9
24469.4
24463.4
24468.2
24454.6
24481.4
0.24676
0.572057
0.453408
0.326475
0.263753
0.209029
0.161458
0.134008
0.120132
0.112295
0.110502
0.108786
0.107422
0.108559
0.112252
0.121749
0.134105
0.14521
0.164699
0.206749
0.252415
0.294233
0.339385
0.389181
0.437175
0.482927
0.530645
0.574153
0.616577
0.672084
0.741225
0.799804
0.853959
0.907531
0.948585
0.972254
0.982146
0.985333
0.974852
0.949743
0.909642
0.866386
0.821581
0.828306
0.824773
0.812451
0.793766
0.771815
0.746872
0.719032
0.687829
0.654415
0.617265
0.578031
0.541128
0.510364
0.486734
0.473363
0.504522
0.567288
0.632451
0.692746
0.750301
0.809707
0.863814
0.911856
0.947344
0.979303
1.00789
1.02359
1.03176
1.02982
1.00518
0.977651
0.944928
0.901348
0.880705
0.864025
0.935111
0.883502
0.000796338
-0.00346143
-0.00138029
6.47906e-05
0.000353461
0.000101123
1.31155e-05
3.92976e-05
1.51739e-05
-5.15527e-07
4.03889e-07
3.6105e-05
6.78599e-05
6.75053e-05
5.49926e-05
5.19496e-05
5.69409e-05
6.35428e-05
6.10514e-05
5.84807e-05
5.47531e-05
5.68622e-05
6.33144e-05
7.06905e-05
7.56325e-05
7.81107e-05
8.06812e-05
8.52589e-05
8.79889e-05
8.87734e-05
8.8721e-05
8.84802e-05
8.8703e-05
8.91304e-05
8.88394e-05
8.75401e-05
8.43604e-05
8.0062e-05
7.64699e-05
7.3645e-05
7.09049e-05
6.71735e-05
6.28539e-05
6.05021e-05
6.06639e-05
6.03222e-05
5.84955e-05
5.77206e-05
6.31002e-05
7.03878e-05
6.59445e-05
6.55266e-05
7.76605e-05
7.2646e-05
7.03978e-05
8.51137e-05
7.25909e-05
5.732e-05
7.75973e-05
0.000103262
8.4302e-05
4.21987e-05
6.72881e-05
0.00010517
9.74991e-05
5.72006e-05
4.78172e-05
7.32165e-05
0.000103866
8.08532e-05
4.07484e-05
5.88344e-05
8.86804e-05
7.75955e-05
6.94022e-05
6.97455e-05
4.23643e-05
3.77542e-05
2.3633e-05
8.06653e-05
0.000309411
-0.00372479
-0.00115596
0.000454919
0.000503022
1.31593e-05
-0.000124431
-6.09399e-06
6.48676e-05
6.93856e-05
2.59056e-05
1.82837e-05
4.85549e-05
7.27987e-05
7.17216e-05
6.17867e-05
5.23566e-05
5.66588e-05
6.63917e-05
7.03103e-05
7.1188e-05
7.0626e-05
7.20093e-05
7.77232e-05
8.36496e-05
8.86179e-05
9.16919e-05
9.32161e-05
9.31425e-05
9.27607e-05
9.28652e-05
9.33656e-05
9.37086e-05
9.33691e-05
9.25741e-05
9.18346e-05
9.02371e-05
8.74497e-05
8.45046e-05
8.20348e-05
8.03363e-05
7.81876e-05
7.43882e-05
7.12184e-05
7.09834e-05
7.11979e-05
7.01688e-05
6.74406e-05
6.88098e-05
7.47205e-05
7.33772e-05
7.03554e-05
7.89193e-05
7.46738e-05
6.67903e-05
8.09747e-05
7.77788e-05
6.37869e-05
6.85861e-05
8.48134e-05
8.3543e-05
6.00386e-05
6.9124e-05
9.11999e-05
8.94534e-05
6.52143e-05
6.28798e-05
7.79799e-05
9.91771e-05
8.94498e-05
6.06233e-05
6.17472e-05
8.74387e-05
8.76589e-05
7.88842e-05
7.85787e-05
6.52684e-05
5.52312e-05
5.81925e-05
6.7796e-05
0.00376551
-0.000226163
-0.00125586
-0.000418027
0.000283909
0.000241639
3.20141e-05
-3.81197e-05
8.64819e-06
6.501e-05
7.13528e-05
4.6627e-05
3.9975e-05
5.55092e-05
6.79679e-05
7.40476e-05
7.20441e-05
6.78605e-05
6.72191e-05
6.91276e-05
7.4285e-05
7.77899e-05
8.04933e-05
8.32651e-05
8.652e-05
9.08753e-05
9.46918e-05
9.657e-05
9.64494e-05
9.49624e-05
9.38218e-05
9.38713e-05
9.46655e-05
9.4659e-05
9.34732e-05
9.21484e-05
9.11708e-05
9.01074e-05
8.84977e-05
8.59269e-05
8.38876e-05
8.31417e-05
8.10303e-05
7.75708e-05
7.51909e-05
7.40767e-05
7.44865e-05
7.38335e-05
7.11634e-05
7.53602e-05
7.84117e-05
7.0317e-05
7.74269e-05
8.22888e-05
6.55875e-05
7.21843e-05
7.97196e-05
7.20667e-05
6.6287e-05
7.03467e-05
8.77996e-05
6.97063e-05
5.9124e-05
7.28471e-05
9.08732e-05
7.7987e-05
6.93383e-05
6.44518e-05
7.91162e-05
9.70113e-05
8.62706e-05
6.49744e-05
7.65985e-05
8.42614e-05
7.69508e-05
8.34398e-05
8.98708e-05
8.75561e-05
9.18478e-05
7.75027e-05
0.00158695
0.00122428
-4.27006e-05
-0.000357547
-6.7805e-05
0.000119546
9.03687e-05
3.00775e-05
1.29809e-05
3.46306e-05
6.58933e-05
6.61481e-05
5.89804e-05
5.99604e-05
6.40865e-05
6.89463e-05
7.0686e-05
6.96263e-05
7.0481e-05
7.13845e-05
7.54566e-05
7.93989e-05
8.20865e-05
8.54939e-05
8.95446e-05
9.37311e-05
9.60082e-05
9.61414e-05
9.55668e-05
9.471e-05
9.40262e-05
9.388e-05
9.42436e-05
9.44576e-05
9.35334e-05
9.20739e-05
9.10632e-05
9.03897e-05
8.96138e-05
8.75073e-05
8.50037e-05
8.37395e-05
8.28249e-05
8.00882e-05
7.71565e-05
7.45988e-05
7.46637e-05
7.63922e-05
7.40845e-05
7.38091e-05
8.02441e-05
7.4582e-05
7.38291e-05
8.17792e-05
7.06258e-05
7.16432e-05
7.86199e-05
7.42686e-05
7.12725e-05
6.63899e-05
8.48629e-05
7.69946e-05
6.50413e-05
6.41356e-05
8.29364e-05
7.91181e-05
7.30942e-05
7.14857e-05
7.24042e-05
8.36452e-05
8.83639e-05
7.24056e-05
7.48417e-05
8.87958e-05
8.39104e-05
7.8755e-05
7.99125e-05
7.88873e-05
8.89135e-05
8.01887e-05
-0.00040203
0.000870171
0.000473731
2.64818e-06
-6.46371e-05
3.8226e-05
7.8097e-05
6.92589e-05
3.76986e-05
2.95594e-05
5.03393e-05
6.58877e-05
6.64629e-05
6.42304e-05
6.24553e-05
6.43744e-05
6.80098e-05
6.9954e-05
7.15279e-05
7.29497e-05
7.58747e-05
8.02202e-05
8.3271e-05
8.70754e-05
9.11564e-05
9.46187e-05
9.63679e-05
9.60766e-05
9.52554e-05
9.48401e-05
9.4973e-05
9.49354e-05
9.46458e-05
9.45416e-05
9.40648e-05
9.29411e-05
9.18043e-05
9.10349e-05
9.08517e-05
8.98108e-05
8.74602e-05
8.51865e-05
8.38755e-05
8.15125e-05
7.93587e-05
7.6887e-05
7.42176e-05
7.58049e-05
7.75109e-05
7.61083e-05
7.86457e-05
7.7822e-05
7.7042e-05
8.08791e-05
7.11759e-05
7.35554e-05
8.19773e-05
7.48091e-05
7.01522e-05
6.93735e-05
8.69979e-05
7.87081e-05
6.97188e-05
6.50961e-05
8.50275e-05
8.57164e-05
7.15986e-05
6.76434e-05
7.75898e-05
8.56414e-05
8.87013e-05
7.97798e-05
7.15287e-05
8.25179e-05
9.10093e-05
9.12217e-05
8.69826e-05
7.51042e-05
7.79105e-05
7.22984e-05
-0.000735694
6.44923e-06
0.00031274
0.000154782
-6.87394e-07
-1.26587e-06
3.43551e-05
6.16807e-05
5.60374e-05
4.1106e-05
4.4503e-05
5.80392e-05
6.63621e-05
6.95838e-05
6.9129e-05
6.91692e-05
7.09437e-05
7.19349e-05
7.45421e-05
7.67167e-05
7.83693e-05
8.19693e-05
8.62506e-05
9.04628e-05
9.40805e-05
9.66842e-05
9.71941e-05
9.60279e-05
9.45688e-05
9.38539e-05
9.41259e-05
9.44648e-05
9.41269e-05
9.37151e-05
9.36239e-05
9.32549e-05
9.22573e-05
9.09215e-05
9.02949e-05
8.97248e-05
8.78576e-05
8.54686e-05
8.37643e-05
8.10018e-05
7.87096e-05
7.88472e-05
7.68088e-05
7.41291e-05
7.7178e-05
8.04087e-05
7.97932e-05
7.55116e-05
8.09881e-05
8.59734e-05
7.16837e-05
6.98116e-05
8.64817e-05
8.60502e-05
6.97158e-05
6.49568e-05
9.02877e-05
9.1408e-05
7.67715e-05
6.2352e-05
7.81172e-05
9.93316e-05
8.91371e-05
7.0341e-05
7.36247e-05
8.72894e-05
8.51768e-05
8.26034e-05
7.71339e-05
7.21397e-05
7.57922e-05
8.76806e-05
9.82914e-05
8.77771e-05
7.95522e-05
6.96263e-05
-0.000135505
-0.0002881
6.4553e-05
0.000148565
7.63754e-05
2.50391e-05
2.12737e-05
4.9283e-05
6.84435e-05
6.11122e-05
5.65886e-05
5.95544e-05
6.36462e-05
6.80961e-05
7.08078e-05
7.0252e-05
7.06301e-05
7.23688e-05
7.55592e-05
7.96892e-05
8.14652e-05
8.40322e-05
8.84463e-05
9.32825e-05
9.69099e-05
9.88106e-05
9.94635e-05
9.91307e-05
9.8437e-05
9.79402e-05
9.79504e-05
9.81589e-05
9.78619e-05
9.71022e-05
9.68357e-05
9.71105e-05
9.68395e-05
9.54607e-05
9.41813e-05
9.32694e-05
9.12165e-05
8.85299e-05
8.67115e-05
8.43699e-05
8.01334e-05
7.99556e-05
8.29032e-05
7.93615e-05
7.55146e-05
8.32953e-05
8.68982e-05
7.42535e-05
7.74087e-05
9.38526e-05
8.14572e-05
6.50114e-05
7.8788e-05
9.74416e-05
8.32601e-05
5.88584e-05
7.9204e-05
9.89928e-05
9.52021e-05
7.35513e-05
6.74311e-05
8.85146e-05
0.000102322
8.88029e-05
7.58431e-05
8.89675e-05
8.72096e-05
7.55193e-05
7.87741e-05
7.76766e-05
6.77351e-05
7.33335e-05
9.08216e-05
9.14714e-05
8.65186e-05
7.86161e-05
0.000252693
-0.000142018
-5.69753e-05
7.07819e-05
8.68167e-05
5.70424e-05
3.12743e-05
3.58569e-05
5.55258e-05
6.31342e-05
6.2459e-05
6.2233e-05
6.48563e-05
6.63166e-05
7.03189e-05
7.17317e-05
7.20584e-05
7.35868e-05
7.63771e-05
8.02702e-05
8.37287e-05
8.66497e-05
9.04453e-05
9.46648e-05
9.71415e-05
9.77677e-05
9.75083e-05
9.72717e-05
9.73217e-05
9.74291e-05
9.75095e-05
9.76769e-05
9.77634e-05
9.717e-05
9.63346e-05
9.6261e-05
9.63746e-05
9.53073e-05
9.36991e-05
9.25947e-05
9.1037e-05
8.81991e-05
8.59998e-05
8.57273e-05
8.2643e-05
7.87427e-05
8.35772e-05
8.72799e-05
7.77588e-05
7.98616e-05
9.4293e-05
8.19953e-05
7.0175e-05
8.95633e-05
9.37457e-05
7.39971e-05
6.51227e-05
9.01765e-05
9.65855e-05
7.07496e-05
6.91615e-05
9.01299e-05
9.71989e-05
8.88881e-05
7.41717e-05
7.31296e-05
9.35434e-05
9.35809e-05
7.52439e-05
8.39161e-05
9.51049e-05
8.00339e-05
7.53799e-05
8.02462e-05
7.30111e-05
6.88543e-05
7.93343e-05
8.17969e-05
8.55352e-05
8.75883e-05
0.00027112
8.06019e-05
-1.87154e-05
2.48052e-05
7.01902e-05
8.02992e-05
5.99515e-05
4.5075e-05
4.9662e-05
5.89772e-05
6.4825e-05
6.65064e-05
6.83255e-05
6.76895e-05
6.92587e-05
7.20955e-05
7.42857e-05
7.64574e-05
7.79431e-05
8.0959e-05
8.54303e-05
8.97728e-05
9.38796e-05
9.75346e-05
9.96923e-05
0.000100088
9.95749e-05
9.91959e-05
9.94215e-05
9.97856e-05
9.98546e-05
9.97483e-05
0.000100032
0.000100197
9.94969e-05
9.89164e-05
9.90182e-05
9.83925e-05
9.67176e-05
9.47882e-05
9.34421e-05
9.15477e-05
8.82537e-05
8.73638e-05
8.8004e-05
8.32213e-05
8.25482e-05
9.24661e-05
8.7307e-05
7.61849e-05
9.31306e-05
9.39054e-05
7.52856e-05
8.28243e-05
9.35129e-05
8.84997e-05
6.7999e-05
8.16035e-05
9.83726e-05
8.39136e-05
6.87388e-05
8.29259e-05
9.226e-05
8.89455e-05
9.05033e-05
7.56135e-05
8.23177e-05
9.62873e-05
7.95916e-05
7.30257e-05
9.35229e-05
9.10841e-05
8.02373e-05
8.41949e-05
7.67417e-05
6.96222e-05
7.45615e-05
7.16954e-05
7.43982e-05
8.32753e-05
0.000107364
0.000160029
5.12636e-05
2.56022e-05
4.15814e-05
6.69216e-05
7.29522e-05
6.06974e-05
5.55983e-05
5.82131e-05
6.42751e-05
6.74225e-05
7.0649e-05
6.94954e-05
6.89062e-05
7.14352e-05
7.48458e-05
7.82767e-05
8.02078e-05
8.23804e-05
8.66586e-05
9.14226e-05
9.53656e-05
9.83093e-05
0.00010032
0.000101121
0.00010126
0.00010136
0.000101841
0.000102427
0.000102685
0.000102428
0.000102417
0.000102978
0.000102755
0.000101785
0.00010141
0.00010116
0.000100375
9.81428e-05
9.58874e-05
9.51516e-05
9.36163e-05
9.048e-05
9.13769e-05
9.08722e-05
8.45564e-05
9.26326e-05
9.76152e-05
8.19378e-05
9.0223e-05
9.61799e-05
8.38779e-05
8.82364e-05
9.28183e-05
9.47482e-05
7.43748e-05
8.07424e-05
9.85957e-05
9.439e-05
7.30566e-05
8.26536e-05
9.35023e-05
8.39281e-05
9.1701e-05
9.14947e-05
7.90913e-05
8.80548e-05
8.37507e-05
6.74502e-05
7.8328e-05
8.74276e-05
7.98647e-05
8.78726e-05
8.7057e-05
7.85189e-05
8.32742e-05
7.70853e-05
6.94628e-05
7.00085e-05
-6.2832e-06
0.000130841
9.79586e-05
5.86978e-05
4.25792e-05
5.14876e-05
6.43436e-05
6.649e-05
6.42523e-05
6.19749e-05
6.44538e-05
6.55196e-05
6.97221e-05
7.12467e-05
7.12178e-05
7.26684e-05
7.54335e-05
7.90544e-05
8.24069e-05
8.49133e-05
8.88122e-05
9.31943e-05
9.66623e-05
9.8824e-05
9.97989e-05
0.00010037
0.000100932
0.000101356
0.000101809
0.000102334
0.000102813
0.000102875
0.00010278
0.000103588
0.000104436
0.000104298
0.000103968
0.000103626
0.000103885
0.000103588
0.000100351
9.74912e-05
9.83148e-05
9.72234e-05
9.46949e-05
9.63337e-05
9.13598e-05
9.34399e-05
0.000101109
8.9733e-05
9.74545e-05
0.000100418
8.2603e-05
9.089e-05
9.97333e-05
0.000106247
8.05362e-05
7.77613e-05
9.6669e-05
0.000110565
8.5379e-05
7.81007e-05
9.56677e-05
8.84989e-05
8.39309e-05
9.93441e-05
9.14326e-05
8.52953e-05
8.52709e-05
7.2833e-05
7.29782e-05
7.91842e-05
7.11655e-05
7.51203e-05
8.65404e-05
8.16981e-05
8.67179e-05
8.84201e-05
7.74844e-05
6.67061e-05
-1.38901e-05
6.11592e-05
9.09417e-05
8.52348e-05
6.31424e-05
5.49691e-05
5.7465e-05
6.32477e-05
6.74865e-05
6.70071e-05
6.7556e-05
6.57231e-05
6.7745e-05
7.08862e-05
7.28511e-05
7.4394e-05
7.65247e-05
7.96281e-05
8.41583e-05
8.79901e-05
9.19626e-05
9.6008e-05
9.89344e-05
0.00010069
0.00010173
0.00010254
0.000103584
0.000104491
0.000105125
0.000105612
0.000106231
0.000106817
0.000106945
0.000107574
0.000108858
0.000109837
0.000110479
0.000109902
0.000108977
0.000110565
0.000109573
0.000104206
0.000101542
0.00010505
0.00010346
0.000101791
9.83409e-05
0.000101722
0.000106977
8.95696e-05
0.000100217
0.000114982
9.2374e-05
8.4426e-05
9.46485e-05
0.000118148
9.72318e-05
7.95429e-05
8.42262e-05
0.000111883
0.000105548
8.78452e-05
9.09042e-05
9.36013e-05
7.84485e-05
8.6366e-05
9.95541e-05
9.47268e-05
8.89983e-05
7.95423e-05
7.83335e-05
8.48577e-05
7.38427e-05
6.27584e-05
7.457e-05
7.50029e-05
7.59934e-05
8.5183e-05
8.744e-05
7.94146e-05
4.39594e-05
3.50226e-05
5.97896e-05
7.78365e-05
7.54782e-05
6.55859e-05
6.13574e-05
6.1445e-05
6.61882e-05
6.83742e-05
7.05087e-05
6.8551e-05
6.82165e-05
7.06897e-05
7.39779e-05
7.60526e-05
7.79529e-05
7.99118e-05
8.4127e-05
8.85093e-05
9.23192e-05
9.57609e-05
9.81682e-05
0.000100018
0.000101241
0.000102278
0.000103399
0.00010446
0.000105271
0.000105939
0.000106818
0.000108096
0.00010918
0.000110364
0.000112072
0.00011383
0.00011599
0.000116995
0.000114078
0.000113457
0.000116596
0.000113957
0.000105665
0.0001073
0.000112863
0.000111797
0.000101204
0.000106023
0.000121507
9.72585e-05
8.92225e-05
0.000117562
0.000111157
9.42131e-05
7.91322e-05
0.000109623
0.000109397
9.65967e-05
7.82266e-05
9.19626e-05
0.000104372
0.000106942
9.6267e-05
9.73611e-05
8.36983e-05
7.02985e-05
8.41354e-05
9.51058e-05
9.46426e-05
8.67198e-05
8.53466e-05
9.39764e-05
9.03782e-05
7.13216e-05
6.66677e-05
6.95455e-05
6.52638e-05
6.75484e-05
7.86472e-05
8.47906e-05
9.67046e-05
5.30379e-05
5.39117e-05
6.28043e-05
6.95101e-05
6.92174e-05
6.7348e-05
6.3729e-05
6.45133e-05
6.55796e-05
6.90882e-05
6.97305e-05
6.92269e-05
7.00808e-05
7.33852e-05
7.63412e-05
7.96651e-05
8.1906e-05
8.54377e-05
8.95877e-05
9.29807e-05
9.582e-05
9.77163e-05
9.91637e-05
0.000100708
0.000102147
0.000103614
0.000105008
0.0001061
0.000107075
0.000108312
0.000110158
0.00011216
0.000114149
0.000116266
0.000117888
0.000119917
0.000123204
0.000121388
0.000115685
0.000117871
0.000122965
0.000115829
0.000108516
0.000115541
0.000125531
0.000110325
0.000100932
0.000126025
0.000116597
9.02544e-05
0.000103641
0.000113795
0.000112748
7.79713e-05
9.62516e-05
0.000104414
0.000105286
9.60245e-05
8.55131e-05
8.40189e-05
0.000108272
0.000102223
0.000100991
9.64171e-05
7.5067e-05
6.83255e-05
8.00858e-05
8.45772e-05
7.93617e-05
8.04903e-05
8.9627e-05
9.77436e-05
9.12264e-05
7.82736e-05
7.67559e-05
7.62549e-05
6.70638e-05
6.41344e-05
7.03433e-05
0.000100513
7.50048e-05
6.67122e-05
6.13894e-05
6.2363e-05
6.56456e-05
6.94372e-05
6.81948e-05
6.67321e-05
6.45981e-05
6.62306e-05
6.85466e-05
6.98131e-05
6.97413e-05
7.1669e-05
7.3848e-05
7.79331e-05
8.13091e-05
8.46427e-05
8.83198e-05
9.12645e-05
9.38061e-05
9.57228e-05
9.73305e-05
9.89822e-05
0.000100453
0.000101954
0.000103623
0.000105192
0.000106682
0.000108461
0.000111021
0.000114056
0.00011712
0.000119964
0.000121609
0.000121838
0.00012481
0.000127137
0.000120864
0.000116752
0.0001236
0.00012692
0.000115968
0.000111362
0.000129283
0.000125861
0.000103
0.000117815
0.000123887
0.000104885
0.000104169
0.000105493
0.000120256
8.46674e-05
9.15181e-05
9.92737e-05
9.65439e-05
0.000107819
0.00010382
8.01697e-05
9.65478e-05
0.000107509
9.52695e-05
9.83073e-05
9.36097e-05
7.642e-05
7.67892e-05
7.65697e-05
6.77965e-05
6.77368e-05
7.41962e-05
7.80622e-05
8.65081e-05
8.4237e-05
7.74605e-05
8.13651e-05
8.10149e-05
6.95591e-05
6.28266e-05
8.3264e-05
7.37741e-05
7.33298e-05
6.88184e-05
6.49715e-05
6.3643e-05
6.75069e-05
6.99706e-05
7.02744e-05
6.76619e-05
6.66843e-05
6.78208e-05
7.05212e-05
7.12415e-05
7.29888e-05
7.41013e-05
7.72989e-05
8.09197e-05
8.39337e-05
8.69313e-05
8.92497e-05
9.14238e-05
9.3443e-05
9.5436e-05
9.77455e-05
9.98633e-05
0.000101791
0.000103965
0.000106413
0.000108805
0.000111162
0.000114015
0.000117412
0.000120992
0.000124031
0.0001259
0.000124912
0.00012472
0.00012849
0.000127735
0.000120644
0.000119981
0.000129428
0.000127636
0.00011267
0.000123437
0.000130894
0.000112858
0.000118386
0.000121476
0.000108334
0.000109606
0.000105937
0.000126535
9.29869e-05
9.29813e-05
0.000103227
8.98495e-05
0.000102159
0.000118766
9.1018e-05
8.27275e-05
0.00010126
9.12959e-05
8.95321e-05
9.56593e-05
9.05656e-05
8.88458e-05
8.83472e-05
7.49849e-05
6.83554e-05
7.40553e-05
6.65846e-05
6.77569e-05
7.71072e-05
7.2555e-05
6.96996e-05
7.76357e-05
8.01697e-05
7.39073e-05
7.00076e-05
6.92177e-05
6.9832e-05
7.21213e-05
7.11785e-05
6.72951e-05
6.61606e-05
6.76533e-05
6.94003e-05
6.90784e-05
6.82696e-05
6.76878e-05
6.99971e-05
7.12064e-05
7.38565e-05
7.53761e-05
7.77388e-05
8.10609e-05
8.38396e-05
8.64678e-05
8.85075e-05
9.03835e-05
9.22852e-05
9.42554e-05
9.66384e-05
9.9309e-05
0.000101702
0.000104177
0.000107361
0.000111017
0.000114476
0.000117567
0.00012049
0.000123935
0.000126944
0.000128662
0.00012778
0.000125887
0.000127342
0.000130478
0.000127373
0.000120946
0.000124764
0.000131451
0.000119342
0.000124623
0.000129603
0.000112291
0.000120515
0.000127475
0.000112996
0.000109049
0.000102597
0.000131225
0.000103738
8.9256e-05
0.000104427
8.86557e-05