/*--------------------------------*- C++ -*----------------------------------*\
| =========                 |                                                 |
| \\      /  F ield         | OpenFOAM: The Open Source CFD Toolbox           |
|  \\    /   O peration     | Version:  2412                                  |
|   \\  /    A nd           | Website:  www.openfoam.com                      |
|    \\/     M anipulation  |                                                 |
\*---------------------------------------------------------------------------*/
FoamFile
{
    version     2.0;
    format      ascii;
    arch        "LSB;label=32;scalar=64";
    class       volVectorField;
    location    "6.9";
    object      U;
}
// * * * * * * * * * * * * * * * * * * * * * * * * * * * * * * * * * * * * * //

dimensions      [0 1 -1 0 0 0 0];

internalField   nonuniform List<vector> 
6400
(
(-0.000736065 0.000639996 0)
(-0.00123971 0.000326151 0)
(-0.000881709 0.000174429 0)
(-0.000253108 8.01647e-05 0)
(0.000492654 3.70476e-05 0)
(0.00118968 2.57854e-05 0)
(0.00176857 1.89446e-05 0)
(0.00221054 1.28255e-06 0)
(0.00254409 -3.13452e-05 0)
(0.00283126 -8.46421e-05 0)
(0.00313088 -0.000159636 0)
(0.00350606 -0.000252567 0)
(0.0040067 -0.000356772 0)
(0.00466929 -0.000467036 0)
(0.00552039 -0.000578404 0)
(0.00656311 -0.000684296 0)
(0.00779843 -0.000780723 0)
(0.00919933 -0.000866516 0)
(0.010725 -0.000925714 0)
(0.0123491 -0.000953192 0)
(0.0140072 -0.000956619 0)
(0.0156375 -0.000927835 0)
(0.0171975 -0.000868448 0)
(0.018627 -0.000781845 0)
(0.0198689 -0.00066884 0)
(0.0208742 -0.000532024 0)
(0.0215972 -0.000375084 0)
(0.0219994 -0.000199334 0)
(0.0220428 -1.2915e-05 0)
(0.0217125 0.000178012 0)
(0.0210137 0.000366444 0)
(0.0199524 0.000544773 0)
(0.0185443 0.000712636 0)
(0.0168172 0.000864792 0)
(0.0148015 0.000999455 0)
(0.0125293 0.0011167 0)
(0.0100448 0.00121401 0)
(0.00739011 0.00128502 0)
(0.00461139 0.00133374 0)
(0.00175732 0.0013623 0)
(-0.00112756 0.00136781 0)
(-0.00400226 0.00134824 0)
(-0.00681842 0.00130739 0)
(-0.0095276 0.00124467 0)
(-0.0120823 0.0011581 0)
(-0.0144398 0.00105123 0)
(-0.0165538 0.000922617 0)
(-0.0183883 0.000775084 0)
(-0.0199112 0.000609087 0)
(-0.0210943 0.000432676 0)
(-0.0219171 0.000247364 0)
(-0.0223674 5.56287e-05 0)
(-0.0224364 -0.000136149 0)
(-0.0221315 -0.000319249 0)
(-0.0214888 -0.000485659 0)
(-0.0205396 -0.000633387 0)
(-0.0193265 -0.000761516 0)
(-0.0178971 -0.000861567 0)
(-0.0163051 -0.000935754 0)
(-0.0146101 -0.000980966 0)
(-0.0128699 -0.00099443 0)
(-0.0111428 -0.000974448 0)
(-0.00947224 -0.000923233 0)
(-0.00791619 -0.000851993 0)
(-0.00652665 -0.000760563 0)
(-0.00532016 -0.000652911 0)
(-0.00431461 -0.000535815 0)
(-0.00351231 -0.00042084 0)
(-0.00289016 -0.000308969 0)
(-0.00240752 -0.000201766 0)
(-0.00202428 -0.0001123 0)
(-0.00169077 -3.94289e-05 0)
(-0.00133738 1.10205e-05 0)
(-0.000905975 4.15645e-05 0)
(-0.000364406 6.34557e-05 0)
(0.000274371 9.41502e-05 0)
(0.000925901 0.000156383 0)
(0.0014119 0.000272016 0)
(0.00157691 0.000450649 0)
(0.000850593 0.000751126 0)
(-0.000713364 0.0013908 0)
(-0.000487232 -0.000286268 0)
(0.00103638 -0.00116183 0)
(0.00299672 -0.00153729 0)
(0.00506625 -0.00154737 0)
(0.00695681 -0.00134286 0)
(0.00851952 -0.00106124 0)
(0.00971169 -0.000794122 0)
(0.0105641 -0.000595152 0)
(0.0111575 -0.000497461 0)
(0.0115921 -0.000511525 0)
(0.011977 -0.000630677 0)
(0.0123997 -0.000832298 0)
(0.0129216 -0.00108569 0)
(0.0135884 -0.00136249 0)
(0.0144114 -0.00164159 0)
(0.0153883 -0.00190249 0)
(0.0165027 -0.00212739 0)
(0.0177254 -0.0022928 0)
(0.0190264 -0.00238076 0)
(0.0203522 -0.00239323 0)
(0.0216519 -0.00231996 0)
(0.0228824 -0.00216129 0)
(0.023989 -0.00191772 0)
(0.0249149 -0.00159564 0)
(0.0256115 -0.00120105 0)
(0.0260357 -0.000747729 0)
(0.0261471 -0.000239119 0)
(0.0259249 0.000305898 0)
(0.0253467 0.000868834 0)
(0.0243929 0.0014326 0)
(0.0230617 0.00198118 0)
(0.0213534 0.00250278 0)
(0.0192878 0.00298024 0)
(0.0168984 0.00340894 0)
(0.014215 0.00378225 0)
(0.0112785 0.0040878 0)
(0.00813936 0.00431876 0)
(0.00485812 0.00447912 0)
(0.001488 0.00456431 0)
(-0.00191842 0.00457903 0)
(-0.00530756 0.00451786 0)
(-0.00862197 0.00438265 0)
(-0.0118072 0.00417361 0)
(-0.0148053 0.00389116 0)
(-0.017567 0.00354374 0)
(-0.020045 0.00313242 0)
(-0.0222042 0.00266552 0)
(-0.0240122 0.00215256 0)
(-0.0254435 0.00160877 0)
(-0.0264975 0.00104128 0)
(-0.0271705 0.000470633 0)
(-0.0274758 -9.01637e-05 0)
(-0.0274355 -0.000622029 0)
(-0.0270616 -0.00111127 0)
(-0.026387 -0.00154603 0)
(-0.025451 -0.00191288 0)
(-0.0243055 -0.00220046 0)
(-0.0230035 -0.00240481 0)
(-0.0215948 -0.0025226 0)
(-0.0201398 -0.00255123 0)
(-0.0186937 -0.00249172 0)
(-0.017298 -0.00235431 0)
(-0.0159982 -0.0021557 0)
(-0.0148331 -0.00190115 0)
(-0.0138165 -0.00161174 0)
(-0.012966 -0.00131563 0)
(-0.0122749 -0.00104334 0)
(-0.0117042 -0.000817844 0)
(-0.0111931 -0.000663287 0)
(-0.0106546 -0.000604131 0)
(-0.0099896 -0.00065098 0)
(-0.00909099 -0.000807686 0)
(-0.00787336 -0.00104228 0)
(-0.0063026 -0.00128709 0)
(-0.0044243 -0.00144072 0)
(-0.0024032 -0.00137113 0)
(-0.000536033 -0.000923073 0)
(0.000835623 3.39178e-05 0)
(0.000841301 0.00173076 0)
(-0.000741736 0.0019382 0)
(-0.000306952 -0.00135798 0)
(0.00164963 -0.00314977 0)
(0.00418272 -0.00390067 0)
(0.00688108 -0.00386947 0)
(0.00936098 -0.00336614 0)
(0.0114019 -0.0026693 0)
(0.0129386 -0.0019806 0)
(0.014016 -0.00142853 0)
(0.0147422 -0.00107937 0)
(0.0152452 -0.000955755 0)
(0.0156519 -0.00104248 0)
(0.0160645 -0.00129335 0)
(0.0165523 -0.00165218 0)
(0.0171642 -0.00206492 0)
(0.0179272 -0.00248934 0)
(0.018854 -0.00288786 0)
(0.0199257 -0.00323129 0)
(0.0211081 -0.00348363 0)
(0.0223744 -0.00361987 0)
(0.0236722 -0.00363425 0)
(0.0249461 -0.00351467 0)
(0.0261467 -0.00325525 0)
(0.0272128 -0.00286002 0)
(0.0280847 -0.00233365 0)
(0.028709 -0.00168424 0)
(0.0290412 -0.000930689 0)
(0.0290338 -9.22085e-05 0)
(0.0286464 0.000806803 0)
(0.027863 0.00174252 0)
(0.0266797 0.00268938 0)
(0.0251013 0.00362029 0)
(0.0231313 0.00450578 0)
(0.0207968 0.0053259 0)
(0.0181378 0.00606397 0)
(0.0151826 0.00670513 0)
(0.0119821 0.00722977 0)
(0.00859192 0.00763608 0)
(0.00505843 0.0079124 0)
(0.00143773 0.00806133 0)
(-0.00220902 0.00808373 0)
(-0.00584202 0.00797621 0)
(-0.00940708 0.00773656 0)
(-0.0128485 0.00737054 0)
(-0.0161068 0.00688183 0)
(-0.0191339 0.00627802 0)
(-0.0218813 0.00556579 0)
(-0.0243074 0.00476522 0)
(-0.0263773 0.0038935 0)
(-0.0280661 0.00297161 0)
(-0.0293549 0.00201684 0)
(-0.0302323 0.00106183 0)
(-0.030703 0.00013268 0)
(-0.0307814 -0.000749623 0)
(-0.0304971 -0.00156082 0)
(-0.029885 -0.00228093 0)
(-0.0289943 -0.00288428 0)
(-0.0278808 -0.00335712 0)
(-0.0265977 -0.00369115 0)
(-0.0252001 -0.00388685 0)
(-0.0237521 -0.00393988 0)
(-0.0223159 -0.00385599 0)
(-0.0209389 -0.00365273 0)
(-0.019662 -0.00334719 0)
(-0.0185227 -0.00295735 0)
(-0.0175394 -0.00251739 0)
(-0.0167135 -0.00207358 0)
(-0.0160308 -0.00167712 0)
(-0.0154551 -0.00138116 0)
(-0.0149107 -0.00123539 0)
(-0.0142916 -0.00128443 0)
(-0.0134776 -0.00155833 0)
(-0.012336 -0.00204619 0)
(-0.0107578 -0.00267961 0)
(-0.0086945 -0.00331718 0)
(-0.00621208 -0.00374257 0)
(-0.00354523 -0.003675 0)
(-0.00109517 -0.00279593 0)
(0.000707933 -0.000860106 0)
(0.00089342 0.00253613 0)
(-0.000866435 0.00253862 0)
(-0.000519824 -0.00261333 0)
(0.00163429 -0.00552242 0)
(0.00458716 -0.00677234 0)
(0.00781129 -0.00671114 0)
(0.0107535 -0.00581945 0)
(0.0130773 -0.00457173 0)
(0.014705 -0.00333624 0)
(0.0157393 -0.00233921 0)
(0.0163599 -0.00168514 0)
(0.0167434 -0.00140072 0)
(0.0170488 -0.00144714 0)
(0.0173966 -0.00174358 0)
(0.0178578 -0.0022136 0)
(0.0184836 -0.00277865 0)
(0.0193036 -0.0033721 0)
(0.0203188 -0.00393569 0)
(0.0215054 -0.00442484 0)
(0.0228249 -0.00478344 0)
(0.0242363 -0.00497868 0)
(0.0256845 -0.00499566 0)
(0.0271121 -0.00481949 0)
(0.0284513 -0.00444435 0)
(0.0296328 -0.00387324 0)
(0.0305986 -0.00311025 0)
(0.0312887 -0.00216721 0)
(0.0316506 -0.00106871 0)
(0.0316339 0.000147268 0)
(0.0312017 0.00145075 0)
(0.0303355 0.00280763 0)
(0.029026 0.0041787 0)
(0.0272773 0.00552193 0)
(0.0251045 0.00679471 0)
(0.0225398 0.00797303 0)
(0.0196246 0.00902819 0)
(0.0163975 0.00993879 0)
(0.0129221 0.0106883 0)
(0.00925398 0.0112614 0)
(0.0054427 0.0116458 0)
(0.00154736 0.0118569 0)
(-0.00237473 0.0118883 0)
(-0.00628084 0.0117367 0)
(-0.0101198 0.0113997 0)
(-0.0138352 0.0108815 0)
(-0.0173691 0.0101849 0)
(-0.0206713 0.00932115 0)
(-0.0236772 0.0083005 0)
(-0.0263387 0.00715304 0)
(-0.0286206 0.00589762 0)
(-0.0304902 0.004566 0)
(-0.0319224 0.00319154 0)
(-0.0328978 0.0018085 0)
(-0.0334236 0.000451999 0)
(-0.0335137 -0.000834078 0)
(-0.0332043 -0.00201448 0)
(-0.0325364 -0.00305597 0)
(-0.0315547 -0.00393075 0)
(-0.030321 -0.00461663 0)
(-0.0288992 -0.00510314 0)
(-0.0273479 -0.00538696 0)
(-0.0257369 -0.0054658 0)
(-0.0241379 -0.0053473 0)
(-0.0226055 -0.00505599 0)
(-0.0211896 -0.00462171 0)
(-0.0199347 -0.00407561 0)
(-0.0188675 -0.00346581 0)
(-0.0179994 -0.00285655 0)
(-0.017324 -0.0023215 0)
(-0.0168002 -0.00194653 0)
(-0.016345 -0.00181285 0)
(-0.0158412 -0.00200068 0)
(-0.01513 -0.0025528 0)
(-0.0140258 -0.00345937 0)
(-0.0123517 -0.00461595 0)
(-0.00999687 -0.00578415 0)
(-0.00703972 -0.0065727 0)
(-0.00383828 -0.00648656 0)
(-0.000975131 -0.00503547 0)
(0.000988082 -0.00189173 0)
(0.0010364 0.00343848 0)
(-0.00106519 0.00340802 0)
(-0.00105452 -0.00381699 0)
(0.00113036 -0.00815699 0)
(0.00455792 -0.0101301 0)
(0.00853379 -0.0100601 0)
(0.0121311 -0.00860774 0)
(0.0147529 -0.00656414 0)
(0.0163147 -0.00458385 0)
(0.0170556 -0.00303239 0)
(0.017301 -0.00204637 0)
(0.017323 -0.00162659 0)
(0.0173316 -0.00168612 0)
(0.0174717 -0.0020994 0)
(0.0178172 -0.00275089 0)
(0.0184111 -0.00353162 0)
(0.0192713 -0.00434749 0)
(0.0203873 -0.00511956 0)
(0.0217223 -0.0057775 0)
(0.0232255 -0.00626214 0)
(0.0248459 -0.00653087 0)
(0.026521 -0.00655584 0)
(0.0281799 -0.00631886 0)
(0.0297471 -0.00581736 0)
(0.0311454 -0.00504811 0)
(0.0323052 -0.00402208 0)
(0.0331583 -0.00275433 0)
(0.0336429 -0.0012794 0)
(0.0337112 0.00035403 0)
(0.0333269 0.00210932 0)
(0.03246 0.00393463 0)
(0.0310983 0.00576942 0)
(0.0292458 0.00756376 0)
(0.026925 0.00926685 0)
(0.0241744 0.0108365 0)
(0.0210381 0.0122352 0)
(0.0175714 0.0134321 0)
(0.013842 0.0144096 0)
(0.00991133 0.0151488 0)
(0.00584487 0.015646 0)
(0.00169605 0.0159136 0)
(-0.00248123 0.0159527 0)
(-0.00664309 0.0157573 0)
(-0.0107405 0.015326 0)
(-0.014716 0.0146545 0)
(-0.0185032 0.0137444 0)
(-0.0220493 0.0126082 0)
(-0.0252803 0.0112626 0)
(-0.0281409 0.00973859 0)
(-0.0305893 0.00806778 0)
(-0.0325775 0.00628809 0)
(-0.0340789 0.00444617 0)
(-0.035085 0.00258664 0)
(-0.0355911 0.000761183 0)
(-0.0356117 -0.000971777 0)
(-0.035189 -0.0025623 0)
(-0.0343674 -0.00395936 0)
(-0.0332024 -0.00513281 0)
(-0.0317569 -0.00605994 0)
(-0.0301014 -0.00671876 0)
(-0.0283096 -0.00709899 0)
(-0.0264592 -0.00720248 0)
(-0.0246284 -0.00704067 0)
(-0.022886 -0.00664574 0)
(-0.0212903 -0.00605749 0)
(-0.019901 -0.00531161 0)
(-0.0187651 -0.00447797 0)
(-0.0179023 -0.00364026 0)
(-0.0173213 -0.00289028 0)
(-0.0169902 -0.00235886 0)
(-0.0168201 -0.00217799 0)
(-0.0166721 -0.00247175 0)
(-0.016341 -0.00332399 0)
(-0.015541 -0.00475975 0)
(-0.0139319 -0.0066491 0)
(-0.0112531 -0.00860232 0)
(-0.0076006 -0.00991958 0)
(-0.00362369 -0.0097689 0)
(-0.000301452 -0.00748987 0)
(0.00162588 -0.0028288 0)
(0.00126167 0.00464414 0)
(-0.00136623 0.00474816 0)
(-0.00212936 -0.00471252 0)
(-0.00019567 -0.0109377 0)
(0.00392878 -0.0141884 0)
(0.00916256 -0.0143023 0)
(0.0138994 -0.01199 0)
(0.0170441 -0.00865299 0)
(0.0184543 -0.00554376 0)
(0.0186447 -0.00325785 0)
(0.0182293 -0.00191471 0)
(0.0176487 -0.00141971 0)
(0.0171798 -0.00159263 0)
(0.0169854 -0.00223512 0)
(0.0171354 -0.00317248 0)
(0.0176556 -0.0042669 0)
(0.0185406 -0.0053889 0)
(0.0197646 -0.00643316 0)
(0.0212755 -0.00730979 0)
(0.0230052 -0.00796055 0)
(0.0248905 -0.00832988 0)
(0.0268569 -0.00838249 0)
(0.0288189 -0.0080933 0)
(0.0306909 -0.00745449 0)
(0.0323862 -0.00647 0)
(0.0338241 -0.00515045 0)
(0.0349259 -0.00352744 0)
(0.0356136 -0.00163651 0)
(0.0358373 0.000466334 0)
(0.0355566 0.00272369 0)
(0.0347247 0.00506689 0)
(0.0333349 0.00741971 0)
(0.0314009 0.00971898 0)
(0.0289428 0.0118995 0)
(0.0260024 0.0138988 0)
(0.0226312 0.0156712 0)
(0.0188991 0.0171773 0)
(0.0148898 0.0183917 0)
(0.0106719 0.0193023 0)
(0.00631693 0.0199111 0)
(0.00187829 0.0202332 0)
(-0.00258952 0.020278 0)
(-0.00704034 0.0200387 0)
(-0.0114272 0.0195132 0)
(-0.0156922 0.0186849 0)
(-0.0197636 0.0175572 0)
(-0.0235785 0.0161332 0)
(-0.0270509 0.014438 0)
(-0.0301163 0.0125001 0)
(-0.032727 0.01037 0)
(-0.034824 0.00809563 0)
(-0.0363755 0.00573235 0)
(-0.0373707 0.00333869 0)
(-0.0378084 0.000994482 0)
(-0.0377068 -0.00122961 0)
(-0.0371004 -0.00325827 0)
(-0.036047 -0.00505389 0)
(-0.0346201 -0.00657107 0)
(-0.0328847 -0.00776361 0)
(-0.0309171 -0.00860516 0)
(-0.0288083 -0.00908614 0)
(-0.0266474 -0.00920694 0)
(-0.0245248 -0.00898399 0)
(-0.0225237 -0.008453 0)
(-0.0207121 -0.0076588 0)
(-0.0191725 -0.00665177 0)
(-0.017975 -0.00551303 0)
(-0.0171488 -0.00434207 0)
(-0.0167285 -0.00326782 0)
(-0.0167049 -0.00246125 0)
(-0.0169957 -0.00212068 0)
(-0.0174542 -0.00244308 0)
(-0.0178066 -0.00361606 0)
(-0.0175806 -0.00577098 0)
(-0.0161203 -0.00880533 0)
(-0.0128812 -0.0120715 0)
(-0.00803761 -0.0142137 0)
(-0.00275142 -0.013761 0)
(0.00125856 -0.0100423 0)
(0.00284058 -0.00335906 0)
(0.00159991 0.00641535 0)
(-0.00183428 0.00700229 0)
(-0.00387396 -0.00491679 0)
(-0.00150233 -0.0140329 0)
(0.0046975 -0.0196155 0)
(0.0118236 -0.0201811 0)
(0.0174781 -0.0164732 0)
(0.0207074 -0.0109633 0)
(0.0215514 -0.0060486 0)
(0.0207776 -0.0027276 0)
(0.0193237 -0.00101521 0)
(0.0178535 -0.000573702 0)
(0.016725 -0.00102912 0)
(0.0160967 -0.00207339 0)
(0.0160027 -0.00345089 0)
(0.0164386 -0.00498018 0)
(0.0173744 -0.0065061 0)
(0.0187524 -0.00790487 0)
(0.0204892 -0.00907065 0)
(0.022506 -0.00993657 0)
(0.0247307 -0.0104426 0)
(0.0270692 -0.0105478 0)
(0.0294221 -0.0102143 0)
(0.0316874 -0.00943701 0)
(0.0337698 -0.00822437 0)
(0.0355693 -0.00658621 0)
(0.0369931 -0.00456504 0)
(0.0379566 -0.00220401 0)
(0.0383905 0.000424461 0)
(0.0382463 0.0032478 0)
(0.0374745 0.00618058 0)
(0.0360692 0.00912603 0)
(0.0340431 0.0119967 0)
(0.0314158 0.0147111 0)
(0.0282427 0.0171913 0)
(0.0245882 0.0193746 0)
(0.0205345 0.021217 0)
(0.0161796 0.0226842 0)
(0.0116069 0.0237706 0)
(0.00689647 0.0244899 0)
(0.00210337 0.0248635 0)
(-0.00271672 0.024913 0)
(-0.00751948 0.0246379 0)
(-0.0122637 0.0240203 0)
(-0.0168853 0.0230335 0)
(-0.0213053 0.0216711 0)
(-0.0254484 0.0199342 0)
(-0.029217 0.0178556 0)
(-0.0325336 0.0154608 0)
(-0.0353359 0.0128157 0)
(-0.0375568 0.0099862 0)
(-0.0391594 0.00703136 0)
(-0.0401297 0.00403662 0)
(-0.040464 0.00110935 0)
(-0.0401809 -0.00166377 0)
(-0.0393406 -0.00420474 0)
(-0.0380103 -0.00644053 0)
(-0.0362428 -0.00832426 0)
(-0.0341203 -0.00979593 0)
(-0.0317503 -0.0108341 0)
(-0.029237 -0.0114201 0)
(-0.0266793 -0.011551 0)
(-0.0241826 -0.011241 0)
(-0.0218475 -0.0105287 0)
(-0.0197605 -0.00946333 0)
(-0.0180222 -0.00811152 0)
(-0.0167226 -0.00656197 0)
(-0.0159231 -0.00493203 0)
(-0.0156908 -0.00338148 0)
(-0.0160606 -0.00212059 0)
(-0.0169973 -0.00142159 0)
(-0.0183577 -0.00162613 0)
(-0.019787 -0.00312087 0)
(-0.0205874 -0.00630982 0)
(-0.0197853 -0.0111924 0)
(-0.0165896 -0.0166723 0)
(-0.0109095 -0.020194 0)
(-0.00363909 -0.0191779 0)
(0.00266434 -0.0129127 0)
(0.00477562 -0.00309979 0)
(0.00213172 0.0092477 0)
(-0.00258058 0.0105308 0)
(-0.00469963 -0.00536508 0)
(0.0033088 -0.0196349 0)
(0.0158111 -0.0275843 0)
(0.0254515 -0.0269597 0)
(0.0292986 -0.0205503 0)
(0.0288734 -0.0122892 0)
(0.0265773 -0.00536978 0)
(0.0235976 -0.000978643 0)
(0.0204948 0.00100456 0)
(0.0177962 0.00115962 0)
(0.0158232 0.000132677 0)
(0.014681 -0.00155912 0)
(0.014346 -0.00357353 0)
(0.0147416 -0.0056887 0)
(0.0157788 -0.00774092 0)
(0.0173679 -0.00959228 0)
(0.0194064 -0.01113 0)
(0.0217977 -0.0122712 0)
(0.0244522 -0.0129581 0)
(0.0272653 -0.0131411 0)
(0.0301147 -0.0127822 0)
(0.0328723 -0.0118695 0)
(0.0354375 -0.0104014 0)
(0.0376944 -0.00840879 0)
(0.0395306 -0.0059286 0)
(0.0408396 -0.00303377 0)
(0.0415431 0.000196747 0)
(0.0415862 0.00366521 0)
(0.0408994 0.00727268 0)
(0.0394706 0.0108999 0)
(0.0373224 0.0144296 0)
(0.0344813 0.0177527 0)
(0.0310089 0.0207781 0)
(0.0269922 0.0234239 0)
(0.0225333 0.0256322 0)
(0.0177467 0.0273669 0)
(0.0127375 0.0286341 0)
(0.00759323 0.0294622 0)
(0.00237552 0.0298918 0)
(-0.00285633 0.0299462 0)
(-0.00808076 0.0296338 0)
(-0.0132613 0.0289225 0)
(-0.018327 0.0277738 0)
(-0.0231867 0.0261617 0)
(-0.0277387 0.024088 0)
(-0.0318781 0.021581 0)
(-0.035512 0.0186728 0)
(-0.0385526 0.0154426 0)
(-0.0409354 0.011971 0)
(-0.0426121 0.00834329 0)
(-0.0435452 0.00467264 0)
(-0.0437468 0.00107786 0)
(-0.0432564 -0.0023289 0)
(-0.0421076 -0.00544777 0)
(-0.0403861 -0.00819464 0)
(-0.0381834 -0.0104873 0)
(-0.0355941 -0.0122796 0)
(-0.032736 -0.0135296 0)
(-0.0297167 -0.0142133 0)
(-0.0266535 -0.0143332 0)
(-0.0236752 -0.0138995 0)
(-0.0209055 -0.0129527 0)
(-0.0184493 -0.0115468 0)
(-0.0164301 -0.00975269 0)
(-0.0149646 -0.00766694 0)
(-0.0141449 -0.00541693 0)
(-0.0140842 -0.00317658 0)
(-0.0148944 -0.00119679 0)
(-0.016653 0.000150751 0)
(-0.0192649 0.000342571 0)
(-0.0224158 -0.0013307 0)
(-0.0256437 -0.00551313 0)
(-0.0284142 -0.0123273 0)
(-0.0293812 -0.0205623 0)
(-0.0257605 -0.0269535 0)
(-0.0158458 -0.0273092 0)
(-0.00276049 -0.0185731 0)
(0.0056161 -0.00318904 0)
(0.00298302 0.0134067 0)
(-0.00374466 0.0141256 0)
(0.000855983 -0.0107704 0)
(0.0234645 -0.033315 0)
(0.0460439 -0.0402784 0)
(0.0583949 -0.0321117 0)
(0.0574272 -0.0185157 0)
(0.0471571 -0.00750951 0)
(0.035643 -0.000524742 0)
(0.0272416 0.00335873 0)
(0.0214092 0.00477735 0)
(0.0171053 0.00409928 0)
(0.0141575 0.00204902 0)
(0.0125156 -0.000646512 0)
(0.0119978 -0.00356477 0)
(0.0124194 -0.00646347 0)
(0.0136352 -0.0091789 0)
(0.0155258 -0.0115855 0)
(0.017967 -0.0135766 0)
(0.0208416 -0.0150625 0)
(0.0240417 -0.0159829 0)
(0.0274425 -0.0162764 0)
(0.0309033 -0.0159087 0)
(0.0342886 -0.0148561 0)
(0.0374617 -0.0131102 0)
(0.0402859 -0.0107107 0)
(0.0426299 -0.00771509 0)
(0.044372 -0.00420827 0)
(0.0454164 -0.000275682 0)
(0.0456868 0.00394859 0)
(0.0451126 0.00834203 0)
(0.0436632 0.0127609 0)
(0.0413565 0.0170576 0)
(0.0382379 0.0210917 0)
(0.0343898 0.0247407 0)
(0.0299147 0.0279072 0)
(0.0249399 0.0305138 0)
(0.0196121 0.0325296 0)
(0.0140649 0.0339755 0)
(0.00840793 0.0348907 0)
(0.0027035 0.0353538 0)
(-0.00300526 0.0354164 0)
(-0.00872234 0.0350888 0)
(-0.0144212 0.0343052 0)
(-0.020027 0.032998 0)
(-0.0254284 0.0311303 0)
(-0.030497 0.0286905 0)
(-0.0351098 0.0256984 0)
(-0.0391456 0.0222084 0)
(-0.0424938 0.0183095 0)
(-0.0450757 0.0140971 0)
(-0.0468296 0.00969485 0)
(-0.0477253 0.00523588 0)
(-0.0477733 0.000861766 0)
(-0.0470013 -0.00328253 0)
(-0.0454826 -0.00706668 0)
(-0.0433009 -0.0103947 0)
(-0.0405548 -0.0131657 0)
(-0.0373739 -0.0153207 0)
(-0.0338865 -0.0168021 0)
(-0.0302339 -0.0175802 0)
(-0.0265465 -0.0176664 0)
(-0.022968 -0.0170709 0)
(-0.0196485 -0.0158329 0)
(-0.0167094 -0.0140107 0)
(-0.0142934 -0.0116744 0)
(-0.0125443 -0.0089162 0)
(-0.0115947 -0.00585463 0)
(-0.0116306 -0.00265809 0)
(-0.0128889 0.000421455 0)
(-0.0155663 0.00291846 0)
(-0.0197667 0.00411153 0)
(-0.0258187 0.00325992 0)
(-0.0349471 -1.54497e-05 0)
(-0.0475869 -0.00663146 0)
(-0.0588001 -0.017874 0)
(-0.0601126 -0.0320942 0)
(-0.0475928 -0.0405214 0)
(-0.024252 -0.0329455 0)
(-0.000480598 -0.00877342 0)
(0.00425054 0.0175156 0)
(-0.00411529 0.0134349 0)
(0.0185314 -0.0316345 0)
(0.0551093 -0.0619603 0)
(0.083678 -0.0615256 0)
(0.0966924 -0.0379993 0)
(0.0923054 -0.00880852 0)
(0.073156 0.00974601 0)
(0.0494487 0.0145838 0)
(0.0316294 0.0133254 0)
(0.021234 0.0112412 0)
(0.0150241 0.00843783 0)
(0.0112116 0.00471161 0)
(0.00922146 0.00058395 0)
(0.00867487 -0.00351711 0)
(0.00927865 -0.00739216 0)
(0.0108115 -0.0109137 0)
(0.013122 -0.0139871 0)
(0.0160854 -0.0165242 0)
(0.0195668 -0.0184356 0)
(0.0234428 -0.0196435 0)
(0.0275695 -0.0200814 0)
(0.031784 -0.0197053 0)
(0.0359369 -0.0184889 0)
(0.0398663 -0.0164458 0)
(0.0433952 -0.0136132 0)
(0.0463712 -0.0100417 0)
(0.0486651 -0.00581631 0)
(0.050143 -0.00106554 0)
(0.050697 0.00405713 0)
(0.0502538 0.00938333 0)
(0.0487744 0.014743 0)
(0.0462793 0.0199419 0)
(0.0428193 0.0248085 0)
(0.0384922 0.0291875 0)
(0.0334296 0.0329421 0)
(0.0277941 0.035988 0)
(0.0217843 0.0382866 0)
(0.0155684 0.0398919 0)
(0.00929833 0.0408428 0)
(0.00307176 0.0413092 0)
(-0.00311492 0.0413843 0)
(-0.00937461 0.041074 0)
(-0.0157019 0.0402666 0)
(-0.0219809 0.0388223 0)
(-0.0280645 0.0366892 0)
(-0.0337922 0.033843 0)
(-0.0389988 0.0303037 0)
(-0.043532 0.0261444 0)
(-0.047264 0.0214694 0)
(-0.0500972 0.0164025 0)
(-0.0519602 0.0110904 0)
(-0.0528152 0.00569789 0)
(-0.0526699 0.000406547 0)
(-0.0515612 -0.00460193 0)
(-0.0495644 -0.00917371 0)
(-0.0467906 -0.0131486 0)
(-0.0433785 -0.0164543 0)
(-0.0394717 -0.0190141 0)
(-0.0352154 -0.0207514 0)
(-0.0307819 -0.0216385 0)
(-0.0263252 -0.0216731 0)
(-0.0220033 -0.0208838 0)
(-0.0179911 -0.0192992 0)
(-0.0144265 -0.0169813 0)
(-0.0114672 -0.0139982 0)
(-0.00927674 -0.0104392 0)
(-0.00802421 -0.00638008 0)
(-0.00795554 -0.00194019 0)
(-0.00942894 0.00267987 0)
(-0.0128763 0.00704618 0)
(-0.0189556 0.0106698 0)
(-0.0297182 0.0138782 0)
(-0.0485788 0.0162839 0)
(-0.0733966 0.0116573 0)
(-0.0931254 -0.00780542 0)
(-0.0980326 -0.0380688 0)
(-0.0855606 -0.0622726 0)
(-0.0568305 -0.0627842 0)
(-0.0192068 -0.0307703 0)
(0.00460463 0.0170165 0)
(0.00153839 0.00188098 0)
(0.0399945 -0.0716792 0)
(0.075952 -0.100861 0)
(0.0987059 -0.0858166 0)
(0.107741 -0.0446822 0)
(0.103919 0.00261964 0)
(0.0851141 0.0336344 0)
(0.0568898 0.0396762 0)
(0.0326474 0.0311241 0)
(0.0182407 0.021519 0)
(0.010499 0.0141763 0)
(0.00631323 0.00781792 0)
(0.00441269 0.00184895 0)
(0.00413924 -0.00364759 0)
(0.00511786 -0.00864529 0)
(0.00712523 -0.0130849 0)
(0.0100011 -0.0169312 0)
(0.0136198 -0.0201063 0)
(0.0178545 -0.0225237 0)
(0.0225666 -0.0240827 0)
(0.0275889 -0.0247104 0)
(0.0327381 -0.0243545 0)
(0.0378248 -0.0229881 0)
(0.0426537 -0.0206061 0)
(0.0470523 -0.0172604 0)
(0.0508433 -0.0130044 0)
(0.0538326 -0.00795395 0)
(0.0558489 -0.00225636 0)
(0.0567556 0.00392795 0)
(0.0564798 0.0103743 0)
(0.0549762 0.0168574 0)
(0.052251 0.0231423 0)
(0.0483759 0.0290065 0)
(0.0434505 0.0342418 0)
(0.0376356 0.0386838 0)
(0.0311492 0.042222 0)
(0.0242741 0.0447976 0)
(0.0172311 0.0464659 0)
(0.0102577 0.0473808 0)
(0.00349456 0.0477978 0)
(-0.00318612 0.0478955 0)
(-0.0100192 0.0476735 0)
(-0.017073 0.0469056 0)
(-0.0241925 0.0453856 0)
(-0.0311429 0.0429847 0)
(-0.037707 0.0396879 0)
(-0.0436632 0.0355184 0)
(-0.0488218 0.0305716 0)
(-0.0530264 0.0249872 0)
(-0.0561638 0.0189156 0)
(-0.0581567 0.0125371 0)
(-0.058962 0.00605726 0)
(-0.0585739 -0.00031032 0)
(-0.0570319 -0.00634133 0)
(-0.0544299 -0.0118181 0)
(-0.0509236 -0.0165916 0)
(-0.0467027 -0.0205249 0)
(-0.041904 -0.0235292 0)
(-0.0367039 -0.0255424 0)
(-0.0313132 -0.0265496 0)
(-0.0259177 -0.0265218 0)
(-0.0206934 -0.0254994 0)
(-0.0158225 -0.02351 0)
(-0.0114653 -0.0206256 0)
(-0.00779645 -0.0169043 0)
(-0.00497301 -0.0124391 0)
(-0.00316163 -0.00723795 0)
(-0.00264269 -0.00131081 0)
(-0.00384806 0.00524499 0)
(-0.00748368 0.0124807 0)
(-0.0149182 0.0210985 0)
(-0.0294495 0.0323213 0)
(-0.0541082 0.041978 0)
(-0.0824707 0.0358186 0)
(-0.101529 0.00410692 0)
(-0.10643 -0.0437355 0)
(-0.0988499 -0.0858972 0)
(-0.0771031 -0.10216 0)
(-0.0411381 -0.0720446 0)
(-0.00156223 0.00521325 0)
(0.0133155 -0.0250039 0)
(0.0455692 -0.112051 0)
(0.0649137 -0.127257 0)
(0.0726689 -0.0971969 0)
(0.0750164 -0.0446242 0)
(0.0725629 0.0135844 0)
(0.0607663 0.0531881 0)
(0.0404417 0.0628109 0)
(0.0211005 0.050472 0)
(0.00888487 0.033619 0)
(0.00215929 0.0204518 0)
(-0.00116221 0.0106963 0)
(-0.00226388 0.00271192 0)
(-0.00184033 -0.00426729 0)
(-0.000223428 -0.0104058 0)
(0.00243399 -0.0158462 0)
(0.0060115 -0.0205695 0)
(0.0104299 -0.0244645 0)
(0.0155702 -0.0274799 0)
(0.0212895 -0.0294725 0)
(0.0273908 -0.0303569 0)
(0.0336627 -0.0300618 0)
(0.0399062 -0.0285486 0)
(0.0458844 -0.0257983 0)
(0.0513641 -0.0218531 0)
(0.056129 -0.016799 0)
(0.05996 -0.0107485 0)
(0.0626711 -0.00390687 0)
(0.0640597 0.00353347 0)
(0.064007 0.011314 0)
(0.0624868 0.0191372 0)
(0.0595006 0.0267308 0)
(0.0551071 0.0337896 0)
(0.0494311 0.0400598 0)
(0.0426764 0.0453375 0)
(0.0351176 0.0494338 0)
(0.0271424 0.0522602 0)
(0.0191269 0.0538584 0)
(0.011378 0.0545629 0)
(0.00397877 0.0547829 0)
(-0.00327171 0.0549222 0)
(-0.0107755 0.0549448 0)
(-0.0186533 0.0543854 0)
(-0.0267575 0.0528968 0)
(-0.0347802 0.0502457 0)
(-0.0423916 0.0464358 0)
(-0.0492903 0.0415099 0)
(-0.0552131 0.0356251 0)
(-0.0599839 0.0289569 0)
(-0.063483 0.0216871 0)
(-0.065619 0.0140341 0)
(-0.0663463 0.00625132 0)
(-0.0656512 -0.00141602 0)
(-0.063563 -0.00866525 0)
(-0.060232 -0.0152258 0)
(-0.0558349 -0.0209086 0)
(-0.0505705 -0.0255626 0)
(-0.0446669 -0.0290777 0)
(-0.0383429 -0.03141 0)
(-0.0318053 -0.0325189 0)
(-0.0252639 -0.0324065 0)
(-0.0189373 -0.0310905 0)
(-0.0130292 -0.0286337 0)
(-0.00770118 -0.0251123 0)
(-0.00313995 -0.0205577 0)
(0.000527572 -0.015136 0)
(0.00321254 -0.008755 0)
(0.00463884 -0.00134211 0)
(0.00446779 0.00736955 0)
(0.00202616 0.018169 0)
(-0.00395261 0.0328571 0)
(-0.015557 0.0514277 0)
(-0.0343322 0.0647854 0)
(-0.054109 0.0555341 0)
(-0.0660915 0.0161725 0)
(-0.069996 -0.0416839 0)
(-0.0697402 -0.09508 0)
(-0.0641578 -0.127165 0)
(-0.0460022 -0.112586 0)
(-0.0138333 -0.0223357 0)
(0.0172937 -0.0547568 0)
(0.0273537 -0.130983 0)
(0.0256222 -0.128151 0)
(0.0181307 -0.0915525 0)
(0.0136359 -0.0375491 0)
(0.0124679 0.0222833 0)
(0.00966241 0.0647163 0)
(0.00316848 0.0756493 0)
(-0.00341578 0.0618952 0)
(-0.00757473 0.0413924 0)
(-0.0102427 0.0245176 0)
(-0.0111602 0.0121616 0)
(-0.0106837 0.00248226 0)
(-0.00912611 -0.00573744 0)
(-0.00661088 -0.0129487 0)
(-0.00317898 -0.0193562 0)
(0.00128117 -0.0249819 0)
(0.00666747 -0.0297383 0)
(0.0128749 -0.0334772 0)
(0.019799 -0.0360189 0)
(0.0272019 -0.0372372 0)
(0.0348433 -0.0370285 0)
(0.042471 -0.0353434 0)
(0.0498134 -0.0321889 0)
(0.0566005 -0.0275788 0)
(0.0625928 -0.0216053 0)
(0.0674909 -0.0143999 0)
(0.0710338 -0.00619209 0)
(0.073002 0.00274081 0)
(0.073237 0.0121434 0)
(0.0717013 0.0216058 0)
(0.0683784 0.030771 0)
(0.0633418 0.0392806 0)
(0.0567673 0.0468383 0)
(0.0488881 0.0531296 0)
(0.0400757 0.0578488 0)
(0.0308458 0.0608482 0)
(0.0216901 0.0622335 0)
(0.0129284 0.0625109 0)
(0.00457958 0.0624054 0)
(-0.00357612 0.0626026 0)
(-0.012031 0.0630046 0)
(-0.0209359 0.0628426 0)
(-0.030179 0.0615049 0)
(-0.0394093 0.0586863 0)
(-0.0482226 0.0543085 0)
(-0.056223 0.0484847 0)
(-0.0630586 0.0414582 0)
(-0.0685298 0.0334737 0)
(-0.0724961 0.0247644 0)
(-0.0748373 0.0155823 0)
(-0.0755014 0.00622705 0)
(-0.0744387 -0.00296713 0)
(-0.0716703 -0.0116519 0)
(-0.0674037 -0.0195199 0)
(-0.0618996 -0.026261 0)
(-0.0554162 -0.0317495 0)
(-0.0482008 -0.0358612 0)
(-0.0404937 -0.0385541 0)
(-0.0325514 -0.0397667 0)
(-0.0246201 -0.0395424 0)
(-0.0169521 -0.0378715 0)
(-0.00979082 -0.0348683 0)
(-0.00325595 -0.03061 0)
(0.00238273 -0.0252346 0)
(0.0070748 -0.0188529 0)
(0.0108935 -0.011393 0)
(0.0137255 -0.00270598 0)
(0.0154518 0.00777994 0)
(0.0157395 0.0212631 0)
(0.0142492 0.0396347 0)
(0.0110981 0.0619983 0)
(0.00574783 0.0772446 0)
(0.000222142 0.0670438 0)
(-0.00299747 0.0254121 0)
(-0.00577148 -0.0327414 0)
(-0.012538 -0.086597 0)
(-0.0227165 -0.125438 0)
(-0.0263143 -0.130455 0)
(-0.0175464 -0.0522122 0)
(0.00962267 -0.0685258 0)
(-0.00206508 -0.123919 0)
(-0.0180328 -0.113009 0)
(-0.0350268 -0.078239 0)
(-0.0458703 -0.029262 0)
(-0.0477012 0.0246193 0)
(-0.0433402 0.064862 0)
(-0.0372757 0.074867 0)
(-0.0313259 0.0619191 0)
(-0.0271157 0.041826 0)
(-0.0246274 0.0245168 0)
(-0.0223268 0.0112606 0)
(-0.0197505 0.000648847 0)
(-0.0167004 -0.00841222 0)
(-0.0130157 -0.0165327 0)
(-0.00855555 -0.0238485 0)
(-0.00314616 -0.0303774 0)
(0.00331641 -0.0360637 0)
(0.0108034 -0.040731 0)
(0.0191663 -0.0439725 0)
(0.0281311 -0.0456044 0)
(0.0373908 -0.045518 0)
(0.0466206 -0.0436671 0)
(0.0555406 -0.0400696 0)
(0.0638731 -0.034695 0)
(0.0713202 -0.0276487 0)
(0.0775206 -0.0190934 0)
(0.0820997 -0.00923233 0)
(0.084772 0.00155672 0)
(0.0853025 0.0128951 0)
(0.0836041 0.0243378 0)
(0.079745 0.0353996 0)
(0.0738707 0.045662 0)
(0.0662203 0.0547474 0)
(0.0570786 0.062206 0)
(0.0469027 0.067591 0)
(0.036283 0.0707162 0)
(0.0257107 0.0718497 0)
(0.0154341 0.0717143 0)
(0.00544533 0.0712875 0)
(-0.00438228 0.071549 0)
(-0.0144144 0.072329 0)
(-0.0247742 0.0725453 0)
(-0.0353454 0.0713807 0)
(-0.0458705 0.0684139 0)
(-0.055975 0.0634433 0)
(-0.0651843 0.0566154 0)
(-0.0730987 0.0482509 0)
(-0.0794831 0.0387266 0)
(-0.0841513 0.0283412 0)
(-0.0869229 0.0173562 0)
(-0.0876578 0.0060946 0)
(-0.0862383 -0.00500263 0)
(-0.0827038 -0.0154706 0)
(-0.077298 -0.0248745 0)
(-0.0704144 -0.0328848 0)
(-0.0624467 -0.0393437 0)
(-0.0536782 -0.0441158 0)
(-0.0443606 -0.0472224 0)
(-0.0347605 -0.0485776 0)
(-0.0251486 -0.0482013 0)
(-0.0158389 -0.0460945 0)
(-0.0071344 -0.0423962 0)
(0.000785506 -0.0373339 0)
(0.0076918 -0.0311539 0)
(0.0136893 -0.0239365 0)
(0.018942 -0.0155436 0)
(0.0235458 -0.00595099 0)
(0.0276616 0.00549135 0)
(0.0314065 0.0199308 0)
(0.0353932 0.0387846 0)
(0.0410297 0.0607558 0)
(0.0481422 0.0757572 0)
(0.0547685 0.0669825 0)
(0.0586515 0.0282464 0)
(0.0553469 -0.0228895 0)
(0.0422436 -0.0707555 0)
(0.0228693 -0.107695 0)
(0.00465605 -0.121488 0)
(-0.00940546 -0.0650674 0)
(-0.000565551 -0.0616173 0)
(-0.0261188 -0.102698 0)
(-0.0496533 -0.0930014 0)
(-0.0708789 -0.062021 0)
(-0.0848189 -0.0202494 0)
(-0.0875898 0.0235917 0)
(-0.0800788 0.0555646 0)
(-0.0672713 0.0629765 0)
(-0.0543322 0.0523431 0)
(-0.0445866 0.0355626 0)
(-0.0377731 0.020197 0)
(-0.0325314 0.00755878 0)