/*--------------------------------*- C++ -*----------------------------------*\
| =========                 |                                                 |
| \\      /  F ield         | OpenFOAM: The Open Source CFD Toolbox           |
|  \\    /   O peration     | Version:  2412                                  |
|   \\  /    A nd           | Website:  www.openfoam.com                      |
|    \\/     M anipulation  |                                                 |
\*---------------------------------------------------------------------------*/
FoamFile
{
    version     2.0;
    format      ascii;
    arch        "LSB;label=32;scalar=64";
    class       surfaceScalarField;
    location    "1.15";
    object      alphaPhi0.honey;
}
// * * * * * * * * * * * * * * * * * * * * * * * * * * * * * * * * * * * * * //

dimensions      [0 3 -1 0 0 0 0];

oriented        oriented;

internalField   nonuniform List<scalar> 
12640
(
-6.40326e-13
6.21044e-13
-2.74777e-12
-1.25271e-12
-3.34146e-12
-2.58554e-12
-3.27317e-12
-3.05978e-12
-3.11356e-12
-3.10819e-12
-3.07139e-12
-3.00215e-12
-3.1786e-12
-2.87084e-12
-3.411e-12
-2.76951e-12
-3.71094e-12
-2.70853e-12
-4.04122e-12
-2.67941e-12
-4.36992e-12
-2.67183e-12
-4.68621e-12
-2.678e-12
-4.97726e-12
-2.69523e-12
-5.23937e-12
-2.72039e-12
-5.46289e-12
-2.75474e-12
-5.6452e-12
-2.79357e-12
-5.78016e-12
-2.83841e-12
-5.86641e-12
-2.88509e-12
-5.90139e-12
-2.93516e-12
-5.88526e-12
-2.98513e-12
-5.81818e-12
-3.03654e-12
-5.70329e-12
-3.08461e-12
-5.54404e-12
-3.131e-12
-5.34414e-12
-3.17318e-12
-5.1081e-12
-3.21234e-12
-4.84057e-12
-3.24606e-12
-4.54666e-12
-3.27571e-12
-4.23085e-12
-3.29991e-12
-3.89818e-12
-3.31967e-12
-3.55298e-12
-3.33413e-12
-3.19966e-12
-3.34445e-12
-2.84154e-12
-3.35063e-12
-2.48161e-12
-3.35392e-12
-2.12157e-12
-3.35484e-12
-1.76242e-12
-3.35474e-12
-1.4039e-12
-3.35438e-12
-1.04517e-12
-3.35471e-12
-6.84699e-13
-3.35615e-12
-3.20591e-13
-3.35921e-12
4.96e-14
-3.36433e-12
4.28756e-13
-3.37195e-12
8.20129e-13
-3.38248e-12
1.22707e-12
-3.39589e-12
1.65262e-12
-3.41209e-12
2.09919e-12
-3.4302e-12
2.56815e-12
-3.44955e-12
3.0597e-12
-3.46853e-12
3.5727e-12
-3.48645e-12
4.1048e-12
-3.50136e-12
4.65223e-12
-3.51273e-12
5.20947e-12
-3.51786e-12
5.76942e-12
-3.51622e-12
6.3227e-12
-3.50441e-12
6.85921e-12
-3.48294e-12
7.36677e-12
-3.44855e-12
7.83399e-12
-3.40324e-12
8.24672e-12
-3.34335e-12
8.59355e-12
-3.27237e-12
8.85992e-12
-3.18709e-12
9.03819e-12
-3.09406e-12
9.11706e-12
-2.99106e-12
9.09559e-12
-2.88615e-12
8.96574e-12
-2.776e-12
8.73372e-12
-2.6696e-12
8.39663e-12
-2.56497e-12
7.97186e-12
-2.47317e-12
7.46295e-12
-2.39187e-12
6.8954e-12
-2.32904e-12
6.27464e-12
-2.28121e-12
5.63375e-12
-2.25685e-12
4.98691e-12
-2.25855e-12
4.38473e-12
-2.29794e-12
3.86087e-12
-2.38302e-12
3.4842e-12
-2.51921e-12
3.28352e-12
-2.69391e-12
3.2609e-12
-2.85039e-12
3.26274e-12
-2.8666e-12
2.95578e-12
-2.54771e-12
1.87888e-12
-1.80467e-12
-8.44055e-13
-2.25159e-12
-5.02677e-13
-5.48402e-12
-4.45228e-12
-6.72245e-12
-7.44429e-12
-6.89678e-12
-8.75387e-12
-6.87609e-12
-8.97251e-12
-7.04236e-12
-8.69739e-12
-7.49068e-12
-8.31923e-12
-8.16638e-12
-8.00438e-12
-8.98996e-12
-7.80303e-12
-9.87523e-12
-7.7001e-12
-1.07718e-11
-7.67195e-12
-1.16348e-11
-7.69725e-12
-1.24439e-11
-7.7604e-12
-1.31747e-11
-7.85509e-12
-1.3813e-11
-7.97627e-12
-1.43394e-11
-8.12195e-12
-1.47461e-11
-8.28182e-12
-1.5022e-11
-8.45714e-12
-1.51655e-11
-8.63711e-12
-1.51734e-11
-8.82375e-12
-1.50495e-11
-9.00749e-12
-1.4798e-11
-9.18755e-12
-1.44291e-11
-9.35458e-12
-1.39522e-11
-9.51123e-12
-1.33793e-11
-9.65108e-12
-1.27226e-11
-9.77569e-12
-1.19955e-11
-9.88055e-12
-1.12109e-11
-9.96841e-12
-1.03816e-11
-1.00371e-11
-9.51893e-12
-1.00895e-11
-8.63339e-12
-1.01256e-11
-7.73362e-12
-1.01492e-11
-6.82612e-12
-1.01619e-11
-5.91519e-12
-1.01679e-11
-5.00259e-12
-1.017e-11
-4.08797e-12
-1.01719e-11
-3.16903e-12
-1.01759e-11
-2.2419e-12
-1.01844e-11
-1.3013e-12
-1.01989e-11
-3.40756e-13
-1.02213e-11
6.47268e-13
-1.02529e-11
1.67089e-12
-1.02947e-11
2.73821e-12
-1.0347e-11
3.85647e-12
-1.04083e-11
5.03124e-12
-1.04767e-11
6.26551e-12
-1.05483e-11
7.55952e-12
-1.06198e-11
8.90998e-12
-1.06856e-11
1.03105e-11
-1.07425e-11
1.17499e-11
-1.07832e-11
1.32137e-11
-1.08038e-11
1.46813e-11
-1.07952e-11
1.61295e-11
-1.07546e-11
1.75293e-11
-1.06733e-11
1.88519e-11
-1.05521e-11
2.00624e-11
-1.03831e-11
2.11296e-11
-1.01707e-11
2.2016e-11
-9.90836e-12
2.26948e-11
-9.60705e-12
2.31334e-11
-9.26566e-12
2.3318e-11
-8.90174e-12
2.32263e-11
-8.51545e-12
2.28609e-11
-8.12604e-12
2.22133e-11
-7.73612e-12
2.13091e-11
-7.36996e-12
2.01582e-11
-7.034e-12
1.88081e-11
-6.74848e-12
1.72812e-11
-6.51548e-12
1.56417e-11
-6.34954e-12
1.39267e-11
-6.26017e-12
1.22239e-11
-6.26628e-12
1.05977e-11
-6.39075e-12
9.16794e-12
-6.65209e-12
8.02107e-12
-7.06414e-12
7.24392e-12
-7.56953e-12
6.76272e-12
-8.00902e-12
6.2765e-12
-7.99546e-12
5.11498e-12
-7.00179e-12
2.41791e-12
-4.54388e-12
-9.74225e-13
-2.946e-12
-7.04563e-13
-6.55252e-12
-6.80725e-12
-8.08938e-12
-1.15537e-11
-8.56274e-12
-1.37621e-11
-8.83738e-12
-1.41502e-11
-9.34824e-12
-1.36671e-11
-1.01963e-11
-1.29649e-11
-1.13364e-11
-1.238e-11
-1.26573e-11
-1.19925e-11
-1.40714e-11
-1.17947e-11
-1.54928e-11
-1.17437e-11
-1.68755e-11
-1.18006e-11
-1.81686e-11
-1.19424e-11
-1.93489e-11
-1.21445e-11
-2.03835e-11
-1.2406e-11
-2.12552e-11
-1.271e-11
-2.19405e-11
-1.30541e-11
-2.24309e-11
-1.34205e-11
-2.27159e-11
-1.38066e-11
-2.27981e-11
-1.41941e-11
-2.26782e-11
-1.45836e-11
-2.23655e-11
-1.49567e-11
-2.18703e-11
-1.53123e-11
-2.1209e-11
-1.56373e-11
-2.0398e-11
-1.59338e-11
-1.94566e-11
-1.61919e-11
-1.84039e-11
-1.64149e-11
-1.72593e-11
-1.65977e-11
-1.60412e-11
-1.67453e-11
-1.47669e-11
-1.68566e-11
-1.34513e-11
-1.69379e-11
-1.21072e-11
-1.69918e-11
-1.0744e-11
-1.7026e-11
-9.36805e-12
-1.70456e-11
-7.98253e-12
-1.70584e-11
-6.58746e-12
-1.70698e-11
-5.18017e-12
-1.70858e-11
-3.75546e-12
-1.71105e-11
-2.30603e-12
-1.71481e-11
-8.22709e-13
-1.72019e-11
7.04981e-13
-1.72747e-11
2.28827e-12
-1.73684e-11
3.93805e-12
-1.74824e-11
5.66386e-12
-1.76148e-11
7.47256e-12
-1.77599e-11
9.36765e-12
-1.7912e-11
1.13482e-11
-1.80615e-11
1.34089e-11
-1.82009e-11
1.55384e-11
-1.83179e-11
1.77201e-11
-1.84036e-11
1.99296e-11
-1.84421e-11
2.21373e-11
-1.84244e-11
2.43059e-11
-1.83337e-11
2.63956e-11
-1.81659e-11
2.83589e-11
-1.79065e-11
3.01495e-11
-1.75576e-11
3.17137e-11
-1.7107e-11
3.30061e-11
-1.65664e-11
3.39761e-11
-1.59318e-11
3.45905e-11
-1.52295e-11
3.48112e-11
-1.44633e-11
3.46259e-11
-1.3667e-11
3.40158e-11
-1.28474e-11
3.29979e-11
-1.20463e-11
3.15797e-11
-1.12786e-11
2.98104e-11
-1.0588e-11
2.77211e-11
-9.98605e-12
2.53882e-11
-9.50493e-12
2.28637e-11
-9.15642e-12
2.02502e-11
-8.97165e-12
1.76252e-11
-8.97881e-12
1.51249e-11
-9.21416e-12
1.28602e-11
-9.71781e-12
1.09849e-11
-1.04854e-11
9.56325e-12
-1.14351e-11
8.53709e-12
-1.22281e-11
7.51065e-12
-1.2239e-11
5.76922e-12
-1.05368e-11
2.5389e-12
-6.40601e-12
-8.03267e-13
-3.07918e-12
-6.4187e-13
-6.83678e-12
-8.75514e-12
-8.57712e-12
-1.5244e-11
-9.3178e-12
-1.82742e-11
-9.92596e-12
-1.8786e-11
-1.08087e-11
-1.80339e-11
-1.20785e-11
-1.69753e-11
-1.36667e-11
-1.6077e-11
-1.54659e-11
-1.54886e-11
-1.73566e-11
-1.51868e-11
-1.92606e-11
-1.51174e-11
-2.1102e-11
-1.52235e-11
-2.28378e-11
-1.54649e-11
-2.44163e-11
-1.5817e-11
-2.58135e-11
-1.62549e-11
-2.69943e-11
-1.67725e-11
-2.79426e-11
-1.73445e-11
-2.86354e-11
-1.79667e-11
-2.90689e-11
-1.86087e-11
-2.92367e-11
-1.92652e-11
-2.91476e-11
-1.99102e-11
-2.8807e-11
-2.05406e-11
-2.82315e-11
-2.11319e-11
-2.74371e-11
-2.1683e-11
-2.64474e-11
-2.2177e-11
-2.52841e-11
-2.26161e-11
-2.39725e-11
-2.29901e-11
-2.25355e-11
-2.33047e-11
-2.09972e-11
-2.35562e-11
-1.93783e-11
-2.37529e-11
-1.76984e-11
-2.38972e-11
-1.59727e-11
-2.40003e-11
-1.42137e-11
-2.40689e-11
-1.24298e-11
-2.41155e-11
-1.06256e-11
-2.41489e-11
-8.8021e-12
-2.41803e-11
-6.9567e-12
-2.42176e-11
-5.08378e-12
-2.4269e-11
-3.175e-12
-2.43408e-11
-1.21974e-12
-2.44388e-11
7.9432e-13
-2.45675e-11
2.88007e-12
-2.47289e-11
5.04991e-12
-2.49229e-11
7.31405e-12
-2.51441e-11
9.67974e-12
-2.53856e-11
1.21496e-11
-2.5635e-11
1.47216e-11
-2.58807e-11
1.73872e-11
-2.61055e-11
2.01317e-11
-2.6295e-11
2.29316e-11
-2.64266e-11
2.57568e-11
-2.64838e-11
2.85672e-11
-2.64405e-11
3.13187e-11
-2.62842e-11
3.39569e-11
-2.59912e-11
3.64273e-11
-2.55578e-11
3.86655e-11
-2.49639e-11
4.06127e-11
-2.42171e-11
4.22028e-11
-2.33069e-11
4.33859e-11
-2.22613e-11
4.41064e-11
-2.10853e-11
4.43348e-11
-1.98246e-11
4.40362e-11
-1.84923e-11
4.32121e-11
-1.71461e-11
4.18585e-11
-1.58097e-11
4.00147e-11
-1.45509e-11
3.7709e-11
-1.33968e-11
3.50164e-11
-1.24062e-11
3.1995e-11
-1.16003e-11
2.8751e-11
-1.10261e-11
2.5368e-11
-1.07121e-11
2.19816e-11
-1.07078e-11
1.87109e-11
-1.1068e-11
1.57273e-11
-1.18345e-11
1.31665e-11
-1.30221e-11
1.11387e-11
-1.44612e-11
9.55773e-12
-1.56963e-11
8.07095e-12
-1.57813e-11
5.95912e-12
-1.34929e-11
2.5574e-12
-7.84857e-12
-5.50874e-13
-3.06384e-12
-5.17714e-13
-6.86121e-12
-1.05283e-11
-8.75915e-12
-1.86185e-11
-9.75802e-12
-2.23996e-11
-1.06872e-11
-2.29456e-11
-1.19423e-11
-2.18977e-11
-1.35998e-11
-2.04443e-11
-1.56043e-11
-1.92244e-11
-1.78186e-11
-1.84195e-11
-2.01327e-11
-1.802e-11
-2.24397e-11
-1.79426e-11
-2.46765e-11
-1.81136e-11
-2.67754e-11
-1.84828e-11
-2.86969e-11
-1.90077e-11
-3.03916e-11
-1.96683e-11
-3.18376e-11
-2.043e-11
-3.30007e-11
-2.12848e-11
-3.38704e-11
-2.21959e-11
-3.44283e-11
-2.31525e-11
-3.46775e-11
-2.41144e-11
-3.46176e-11
-2.50739e-11
-3.42639e-11
-2.59968e-11
-3.36279e-11
-2.68775e-11
-3.27333e-11
-2.76878e-11
-3.16015e-11
-2.84268e-11
-3.02612e-11
-2.90763e-11
-2.8738e-11
-2.96405e-11
-2.70609e-11
-3.0111e-11
-2.52556e-11
-3.04969e-11
-2.33473e-11
-3.07985e-11
-2.13571e-11
-3.10292e-11
-1.93041e-11
-3.11965e-11
-1.72024e-11
-3.13168e-11
-1.50626e-11
-3.14022e-11
-1.28906e-11
-3.14693e-11
-1.06885e-11
-3.15307e-11
-8.45437e-12
-3.16001e-11
-6.18286e-12
-3.16879e-11
-3.86532e-12
-3.18043e-11
-1.49045e-12
-3.19574e-11
9.54734e-13
-3.21534e-11
3.48381e-12
-3.23953e-11
6.10919e-12
-3.2681e-11
8.8411e-12
-3.30043e-11
1.16857e-11
-3.33524e-11
1.4645e-11
-3.37113e-11
1.77145e-11
-3.40597e-11
2.08838e-11
-3.43786e-11
2.41335e-11
-3.46395e-11
2.74368e-11
-3.48189e-11
3.07559e-11
-3.48815e-11
3.4047e-11
-3.48044e-11
3.72548e-11
-3.4553e-11
4.03219e-11
-3.41139e-11
4.31788e-11
-3.34571e-11
4.57593e-11
-3.25823e-11
4.79869e-11
-3.14689e-11
4.97985e-11
-3.01393e-11
5.11234e-11
-2.85938e-11
5.19159e-11
-2.68836e-11
5.21232e-11
-2.50262e-11
5.17293e-11
-2.30925e-11
5.07118e-11
-2.11139e-11
4.90954e-11
-1.91789e-11
4.68938e-11
-1.73301e-11
4.41736e-11
-1.56568e-11
4.09849e-11
-1.41979e-11
3.74331e-11
-1.30267e-11
3.35985e-11
-1.21775e-11
2.96161e-11
-1.17109e-11
2.55961e-11
-1.16822e-11
2.17097e-11
-1.21599e-11
1.8106e-11
-1.32154e-11
1.49697e-11
-1.48298e-11
1.23849e-11
-1.68156e-11
1.03173e-11
-1.85193e-11
8.4162e-12
-1.8797e-11
6.02161e-12
-1.60069e-11
2.51741e-12
-9.08641e-12
-2.47024e-13
-3.022e-12
-3.65097e-13
-6.81917e-12
-1.21016e-11
-8.85877e-12
-2.1698e-11
-1.00955e-11
-2.61063e-11
-1.13325e-11
-2.66506e-11
-1.29183e-11
-2.52531e-11
-1.49303e-11
-2.34086e-11
-1.72806e-11
-2.18513e-11
-1.98521e-11
-2.08391e-11
-2.25045e-11
-2.03445e-11
-2.51492e-11
-2.02726e-11
-2.76925e-11
-2.05315e-11
-3.00872e-11
-2.10449e-11
-3.22688e-11
-2.17766e-11
-3.42064e-11
-2.26771e-11
-3.58522e-11
-2.37295e-11
-3.71897e-11
-2.48881e-11
-3.81897e-11
-2.61388e-11
-3.88503e-11
-2.74306e-11
-3.91592e-11
-2.87488e-11
-3.91282e-11
-3.00454e-11
-3.87625e-11
-3.13099e-11
-3.80842e-11
-3.25022e-11
-3.71104e-11
-3.36162e-11
-3.58704e-11
-3.46221e-11
-3.43895e-11
-3.55205e-11
-3.27e-11
-3.62949e-11
-3.08296e-11
-3.69534e-11
-2.88086e-11
-3.74916e-11
-2.66624e-11
-3.79238e-11
-2.4416e-11
-3.82562e-11
-2.2089e-11
-3.85079e-11
-1.96984e-11
-3.86928e-11
-1.72557e-11
-3.88326e-11
-1.47687e-11
-3.89442e-11
-1.22405e-11
-3.90477e-11
-9.67051e-12
-3.91584e-11
-7.05374e-12
-3.92923e-11
-4.38203e-12
-3.9462e-11
-1.64427e-12
-3.96791e-11
1.17233e-12
-3.99512e-11
4.08065e-12
-4.02812e-11
7.09251e-12
-4.06666e-11
1.02167e-11
-4.1097e-11
1.34585e-11
-4.15582e-11
1.68177e-11
-4.20278e-11
2.02888e-11
-4.24831e-11
2.3858e-11
-4.28918e-11
2.75042e-11
-4.32247e-11
3.11952e-11
-4.34391e-11
3.48917e-11
-4.3502e-11
3.85417e-11
-4.33671e-11
4.20895e-11
-4.30087e-11
4.54661e-11
-4.23853e-11
4.86033e-11
-4.14853e-11
5.142e-11
-4.02756e-11
5.38449e-11
-3.87679e-11
5.5797e-11
-3.69507e-11
5.72168e-11
-3.48721e-11
5.80367e-11
-3.25479e-11
5.82224e-11
-3.00575e-11
5.77329e-11
-2.74365e-11
5.65729e-11
-2.47898e-11
5.47386e-11
-2.21715e-11
5.22793e-11
-1.96999e-11
4.92315e-11
-1.74335e-11
4.56885e-11
-1.54799e-11
4.17231e-11
-1.38882e-11
3.74625e-11
-1.27416e-11
3.30099e-11
-1.20932e-11
2.85245e-11
-1.20237e-11
2.41461e-11
-1.26205e-11
2.00705e-11
-1.39511e-11
1.64517e-11
-1.60222e-11
1.34171e-11
-1.85416e-11
1.09252e-11
-2.079e-11
8.67664e-12
-2.12815e-11
6.04536e-12
-1.81565e-11
2.46877e-12
-1.0079e-11
7.55276e-14
-2.97136e-12
-1.60477e-13
-6.74678e-12
-1.35053e-11
-8.90759e-12
-2.44357e-11
-1.03678e-11
-2.94174e-11
-1.18712e-11
-2.98818e-11
-1.37536e-11
-2.81425e-11
-1.60562e-11
-2.58808e-11
-1.87023e-11
-2.40095e-11
-2.15463e-11
-2.27897e-11
-2.44741e-11
-2.22166e-11
-2.73654e-11
-2.21646e-11
-3.01535e-11
-2.25236e-11
-3.2757e-11
-2.32115e-11
-3.51402e-11
-2.41598e-11
-3.72439e-11
-2.53371e-11
-3.90445e-11
-2.66883e-11
-4.04994e-11
-2.81941e-11
-4.16018e-11
-2.97926e-11
-4.23293e-11
-3.14637e-11
-4.26888e-11
-3.31458e-11
-4.26751e-11
-3.48222e-11
-4.23074e-11
-3.64383e-11
-4.1596e-11
-3.79825e-11
-4.05693e-11
-3.94112e-11
-3.92486e-11
-4.07197e-11
-3.76671e-11
-4.18797e-11
-3.58521e-11
-4.28957e-11
-3.38369e-11
-4.37557e-11
-3.16492e-11
-4.44729e-11
-2.93187e-11
-4.50491e-11
-2.68694e-11
-4.55052e-11
-2.4324e-11
-4.58539e-11
-2.16994e-11
-4.61211e-11
-1.90095e-11
-4.63266e-11
-1.6263e-11
-4.64965e-11
-1.34648e-11
-4.66514e-11
-1.06152e-11
-4.68138e-11
-7.71057e-12
-4.70016e-11
-4.74352e-12
-4.72324e-11
-1.70402e-12
-4.75198e-11
1.41941e-12
-4.78731e-11
4.63833e-12
-4.82955e-11
7.96257e-12
-4.87819e-11
1.13996e-11
-4.93212e-11
1.49523e-11
-4.98924e-11
1.86197e-11
-5.04721e-11
2.23934e-11
-5.10263e-11
2.62588e-11
-5.15223e-11
3.0191e-11
-5.19129e-11
3.41577e-11
-5.21572e-11
3.81136e-11
-5.21986e-11
4.20082e-11
-5.19983e-11
4.57773e-11
-5.15018e-11
4.93554e-11
-5.06839e-11
5.26624e-11
-4.94985e-11
5.56247e-11
-4.7942e-11
5.81559e-11
-4.59877e-11
6.01879e-11
-4.36711e-11
6.16417e-11
-4.09987e-11
6.24687e-11
-3.80497e-11
6.26104e-11
-3.48594e-11
6.2052e-11
-3.15422e-11
6.07692e-11
-2.81589e-11
5.87914e-11
-2.485e-11
5.61351e-11
-2.16913e-11
5.28768e-11
-1.88259e-11
4.90741e-11
-1.63249e-11
4.48426e-11
-1.43044e-11
4.02722e-11
-1.28238e-11
3.55116e-11
-1.19806e-11
3.06849e-11
-1.18575e-11
2.5974e-11
-1.25527e-11
2.15402e-11
-1.41685e-11
1.75728e-11
-1.6662e-11
1.41819e-11
-1.97588e-11
1.13642e-11
-2.25267e-11
8.83255e-12
-2.33337e-11
6.03201e-12
-1.99158e-11
2.41807e-12
-1.08905e-11
4.65894e-13
-2.8999e-12
6.5535e-14
-6.6236e-12
-1.4693e-11
-8.88777e-12
-2.68678e-11
-1.05346e-11
-3.23014e-11
-1.22732e-11
-3.26849e-11
-1.43934e-11
-3.05597e-11
-1.69422e-11
-2.79101e-11
-1.98095e-11
-2.57176e-11
-2.28739e-11
-2.43191e-11
-2.59909e-11
-2.36771e-11
-2.90713e-11
-2.36619e-11
-3.20163e-11
-2.41417e-11
-3.4777e-11
-2.50107e-11
-3.72829e-11
-2.62077e-11
-3.95075e-11
-2.76628e-11
-4.13972e-11
-2.9349e-11
-4.29397e-11
-3.11974e-11
-4.41006e-11
-3.31816e-11
-4.48823e-11
-3.5227e-11
-4.52692e-11
-3.73104e-11
-4.52763e-11
-3.93628e-11
-4.49049e-11
-4.13656e-11
-4.41809e-11
-4.32605e-11
-4.31192e-11
-4.50359e-11
-4.17521e-11
-4.66495e-11
-4.01032e-11
-4.81e-11
-3.8207e-11
-4.9364e-11
-3.60908e-11
-5.04515e-11
-3.37877e-11
-5.13567e-11
-3.13236e-11
-5.20997e-11
-2.87262e-11
-5.26899e-11
-2.60165e-11
-5.3155e-11
-2.32142e-11
-5.35152e-11
-2.03332e-11
-5.38019e-11
-1.73844e-11
-5.40395e-11
-1.43735e-11
-5.42574e-11
-1.13027e-11
-5.4479e-11
-8.16953e-12
-5.47287e-11
-4.96832e-12
-5.50261e-11
-1.69084e-12
-5.53878e-11
1.67234e-12
-5.58244e-11
5.13033e-12
-5.63382e-11
8.69098e-12
-5.6924e-11
1.23591e-11
-5.75659e-11
1.61363e-11
-5.82424e-11
2.00188e-11
-5.8921e-11
2.3998e-11
-5.95678e-11
2.80561e-11
-6.01347e-11
3.21688e-11
-6.05759e-11
3.62993e-11
-6.08283e-11
4.04051e-11
-6.08412e-11
4.44294e-11
-6.05476e-11
4.83132e-11
-5.99075e-11
5.19819e-11
-5.88607e-11
5.53646e-11
-5.73874e-11
5.83752e-11
-5.54434e-11
6.09424e-11
-5.30457e-11
6.2981e-11
-5.0184e-11
6.44326e-11
-4.69272e-11
6.52255e-11
-4.3303e-11
6.53281e-11
-3.94273e-11
6.46968e-11
-3.53612e-11
6.33405e-11
-3.12592e-11
6.12539e-11
-2.72079e-11
5.84924e-11
-2.338e-11
5.50933e-11
-1.98693e-11
5.11558e-11
-1.68328e-11
4.67533e-11
-1.43465e-11
4.20194e-11
-1.25333e-11
3.70619e-11
-1.14749e-11
3.20461e-11
-1.12837e-11
2.71163e-11
-1.20765e-11
2.24654e-11
-1.39394e-11
1.82562e-11
-1.68775e-11
1.46303e-11
-2.05037e-11
1.1574e-11
-2.38532e-11
8.85258e-12
-2.49572e-11
5.94121e-12
-2.13962e-11
2.34088e-12
-1.14768e-11
8.61465e-13
-2.8086e-12
3.41472e-13
-6.44136e-12
-1.57241e-11
-8.7654e-12
-2.89532e-11
-1.057e-11
-3.48038e-11
-1.24934e-11
-3.5031e-11
-1.48157e-11
-3.25509e-11
-1.75426e-11
-2.94959e-11
-2.05873e-11
-2.70206e-11
-2.37936e-11
-2.54499e-11
-2.70523e-11
-2.47653e-11
-3.02396e-11
-2.48044e-11
-3.32942e-11
-2.54152e-11
-3.61319e-11
-2.64902e-11
-3.87212e-11
-2.79324e-11
-4.09985e-11
-2.96971e-11
-4.29484e-11
-3.17067e-11
-4.45261e-11
-3.39304e-11
-4.57302e-11
-3.62832e-11
-4.65336e-11
-3.87355e-11
-4.69475e-11
-4.12036e-11
-4.69633e-11
-4.36624e-11
-4.66033e-11
-4.60377e-11
-4.58741e-11
-4.83111e-11
-4.48057e-11
-5.04241e-11
-4.34158e-11
-5.23686e-11
-4.17382e-11
-5.41066e-11
-3.97972e-11
-5.56425e-11
-3.76269e-11
-5.69598e-11
-3.52533e-11
-5.80752e-11
-3.2707e-11
-5.89914e-11
-3.00117e-11
-5.97357e-11
-2.71916e-11
-6.03259e-11
-2.42649e-11
-6.0796e-11
-2.12482e-11
-6.11728e-11
-1.81524e-11
-6.14913e-11
-1.49855e-11
-6.17798e-11
-1.17506e-11
-6.20697e-11
-8.44753e-12
-6.23865e-11
-5.07265e-12
-6.27546e-11
-1.62037e-12
-6.31919e-11
1.91592e-12
-6.371e-11
5.54265e-12
-6.43117e-11
9.26459e-12
-6.49888e-11
1.30846e-11
-6.57255e-11
1.70015e-11
-6.64937e-11
2.1011e-11
-6.72612e-11
2.51013e-11
-6.79821e-11
2.92557e-11
-6.86094e-11
3.34462e-11
-6.90782e-11
3.76391e-11
-6.93296e-11
4.17872e-11
-6.9287e-11
4.58398e-11
-6.88953e-11
4.97311e-11
-6.8081e-11
5.33971e-11
-6.68072e-11
5.6757e-11
-6.50128e-11
5.97411e-11
-6.26932e-11
6.2264e-11
-5.98173e-11
6.42624e-11
-5.6434e-11
6.56571e-11
-5.25558e-11
6.64043e-11
-4.82895e-11
6.64445e-11
-4.36898e-11
6.57683e-11
-3.89149e-11
6.43498e-11
-3.40552e-11
6.22228e-11
-2.93034e-11
5.94016e-11
-2.47695e-11
5.5965e-11
-2.06493e-11
5.19655e-11
-1.70438e-11
4.75198e-11
-1.41131e-11
4.27161e-11
-1.19448e-11
3.77017e-11
-1.06714e-11
3.25981e-11
-1.04024e-11
2.75841e-11
-1.1265e-11
2.28165e-11
-1.33826e-11
1.84905e-11
-1.67136e-11
1.47215e-11
-2.09028e-11
1.15316e-11
-2.47748e-11
8.70206e-12
-2.62778e-11
5.75952e-12
-2.25664e-11
2.23818e-12
-1.19572e-11
1.30219e-12
-2.69031e-12
6.18901e-13
-6.19018e-12
-1.65506e-11
-8.537e-12
-3.07596e-11
-1.04536e-11
-3.6888e-11
-1.25342e-11
-3.69702e-11
-1.50026e-11
-3.40921e-11
-1.78729e-11
-3.06796e-11
-2.10241e-11
-2.79183e-11
-2.43332e-11
-2.62148e-11
-2.76558e-11
-2.55028e-11
-3.09113e-11
-2.56141e-11
-3.39984e-11
-2.6379e-11
-3.68782e-11
-2.76587e-11
-3.94791e-11
-2.93735e-11
-4.17829e-11
-3.14313e-11
-4.37352e-11
-3.37937e-11
-4.53326e-11
-3.63674e-11
-4.65383e-11
-3.91177e-11
-4.73604e-11
-4.19484e-11
-4.77794e-11
-4.48278e-11
-4.78144e-11
-4.76661e-11
-4.74626e-11
-5.0438e-11
-4.67509e-11
-5.30682e-11
-4.56892e-11
-5.55412e-11
-4.43095e-11
-5.78024e-11
-4.26305e-11
-5.98491e-11
-4.06856e-11
-6.16506e-11
-3.84983e-11
-6.32183e-11
-3.61004e-11
-6.45445e-11
-3.35156e-11
-6.56536e-11
-3.07716e-11
-6.65574e-11
-2.7889e-11
-6.72903e-11
-2.48891e-11
-6.78778e-11
-2.17871e-11
-6.83593e-11
-1.85965e-11
-6.87661e-11
-1.53257e-11
-6.91359e-11
-1.19803e-11
-6.94996e-11
-8.56215e-12
-6.9889e-11
-5.07056e-12
-7.03291e-11
-1.50298e-12
-7.08408e-11
2.14391e-12
-7.14362e-11
5.87306e-12
-7.21172e-11
9.68661e-12
-7.28761e-11
1.35842e-11
-7.36926e-11
1.75634e-11
-7.45394e-11
2.16169e-11
-7.53755e-11
2.57336e-11
-7.61564e-11
2.98933e-11
-7.68195e-11
3.40708e-11
-7.73032e-11
3.82288e-11
-7.75258e-11
4.23261e-11
-7.74202e-11
4.63075e-11
-7.69009e-11
5.0118e-11
-7.59144e-11
5.36862e-11
-7.43841e-11
5.69482e-11
-7.22838e-11
5.98232e-11
-6.95607e-11
6.22486e-11
-6.62378e-11
6.41436e-11
-6.23061e-11
6.54578e-11
-5.78526e-11
6.61218e-11
-5.29175e-11
6.61114e-11
-4.76517e-11
6.53833e-11
-4.21414e-11
6.39518e-11
-3.65878e-11
6.18084e-11
-3.11088e-11
5.90106e-11
-2.59291e-11
5.5588e-11
-2.11729e-11
5.16366e-11
-1.70437e-11
4.72222e-11
-1.36465e-11
4.24748e-11
-1.1145e-11
3.74907e-11
-9.64205e-12
3.24267e-11
-9.2832e-12
2.74167e-11
-1.0212e-11
2.26499e-11
-1.25384e-11
1.82896e-11
-1.62813e-11
1.44799e-11
-2.09628e-11
1.12377e-11
-2.54221e-11
8.38403e-12
-2.72713e-11
5.47783e-12
-2.35607e-11
2.09742e-12
-1.22773e-11
1.70787e-12
-2.55331e-12
9.36624e-13
-5.87945e-12
-1.7243e-11
-8.20412e-12
-3.22269e-11
-1.0204e-11
-3.8605e-11
-1.23981e-11
-3.84494e-11
-1.49904e-11
-3.52178e-11
-1.795e-11
-3.14284e-11
-2.1177e-11
-2.84363e-11
-2.45183e-11
-2.66092e-11
-2.78719e-11
-2.5903e-11
-3.11192e-11
-2.61084e-11
-3.42082e-11
-2.70342e-11
-3.70573e-11
-2.85445e-11
-3.96454e-11
-3.05168e-11
-4.19117e-11
-3.28946e-11
-4.38518e-11
-3.55783e-11
-4.54205e-11
-3.85281e-11
-4.66241e-11
-4.16379e-11
-4.74336e-11
-4.4871e-11
-4.78652e-11
-4.8123e-11
-4.79061e-11
-5.1362e-11
-4.75805e-11
-5.44961e-11
-4.68896e-11
-5.75024e-11
-4.58624e-11
-6.0309e-11
-4.45103e-11
-6.29052e-11
-4.2865e-11
-6.52441e-11
-4.09445e-11
-6.73295e-11
-3.87803e-11
-6.91406e-11
-3.63937e-11
-7.06961e-11
-3.38139e-11
-7.19986e-11
-3.1062e-11
-7.30796e-11
-2.81623e-11
-7.39602e-11
-2.51329e-11
-7.46809e-11
-2.19918e-11
-7.52738e-11
-1.87517e-11
-7.57814e-11
-1.5424e-11
-7.62384e-11
-1.20154e-11
-7.66833e-11
-8.53125e-12
-7.71474e-11
-4.97365e-12
-7.76602e-11
-1.34384e-12
-7.82426e-11
2.35773e-12
-7.89076e-11
6.13066e-12
-7.96579e-11
9.97339e-12
-8.04834e-11
1.38835e-11
-8.13648e-11
1.78554e-11
-8.22688e-11
2.18813e-11
-8.31563e-11
2.59469e-11
-8.39709e-11
3.0034e-11
-8.4653e-11
3.41139e-11
-8.51218e-11
3.81549e-11
-8.53035e-11
4.21124e-11
-8.51044e-11
4.59419e-11
-8.4456e-11
4.95833e-11
-8.32687e-11
5.29819e-11
-8.14958e-11
5.60652e-11
-7.90649e-11
5.87757e-11
-7.59714e-11
6.10364e-11
-7.21811e-11
6.27963e-11
-6.77538e-11
6.39824e-11
-6.27074e-11
6.45619e-11
-5.7174e-11
6.44791e-11
-5.12266e-11
6.37327e-11
-4.50631e-11
6.22945e-11
-3.87997e-11
6.02012e-11
-3.26763e-11
5.74594e-11
-2.68327e-11
5.41445e-11
-2.15116e-11
5.02972e-11
-1.68403e-11
4.6027e-11
-1.30235e-11
4.14078e-11
-1.01732e-11
3.65724e-11
-8.45049e-12
3.16256e-11
-7.991e-12
2.67304e-11
-8.95157e-12
2.20394e-11
-1.14928e-11
1.77353e-11
-1.55721e-11
1.3951e-11
-2.07839e-11
1.07322e-11
-2.57481e-11
7.9148e-12
-2.80446e-11
5.11206e-12
-2.4304e-11
1.93362e-12
-1.2558e-11
2.1442e-12
-2.3896e-12
1.24077e-12
-5.5111e-12
-1.77287e-11
-7.78973e-12
-3.34181e-11
-9.8428e-12
-3.9888e-11
-1.21349e-11
-3.95148e-11
-1.4814e-11
-3.58738e-11
-1.78473e-11
-3.17673e-11
-2.10941e-11
-2.85458e-11
-2.44395e-11
-2.66465e-11
-2.77504e-11
-2.59654e-11
-3.09593e-11
-2.62867e-11
-3.39743e-11
-2.73989e-11
-3.6769e-11
-2.91309e-11
-3.92763e-11
-3.13868e-11
-4.14914e-11
-3.40524e-11
-4.33638e-11
-3.70815e-11
-4.48997e-11
-4.03621e-11
-4.60616e-11
-4.38535e-11
-4.68643e-11
-4.74399e-11
-4.72856e-11
-5.10836e-11
-4.73477e-11
-5.46767e-11
-4.7042e-11
-5.81895e-11
-4.63955e-11
-6.1533e-11
-4.54107e-11
-6.46886e-11
-4.41166e-11
-6.7592e-11
-4.25242e-11
-7.02389e-11
-4.06628e-11
-7.25922e-11
-3.85492e-11
-7.46635e-11
-3.62118e-11
-7.64424e-11
-3.367e-11
-7.79553e-11
-3.09495e-11
-7.92147e-11
-2.80689e-11
-8.02594e-11
-2.50496e-11
-8.11187e-11
-2.1907e-11
-8.18373e-11
-1.86571e-11
-8.24518e-11
-1.53112e-11
-8.30059e-11
-1.188e-11
-8.35356e-11
-8.37082e-12
-8.40776e-11
-4.79006e-12
-8.46607e-11
-1.14268e-12
-8.53085e-11
2.56686e-12
-8.60341e-11
6.33403e-12
-8.68396e-11
1.01543e-11
-8.77163e-11
1.40216e-11
-8.86411e-11
1.79288e-11
-8.9583e-11
2.18647e-11
-9.04944e-11
2.58155e-11
-9.1322e-11
2.97595e-11
-9.19909e-11
3.36726e-11
-9.24273e-11
3.752e-11
-9.2535e-11
4.12671e-11
-9.22349e-11
4.48658e-11
-9.14272e-11
4.8272e-11
-9.00478e-11
5.14245e-11
-8.80076e-11
5.42741e-11
-8.52761e-11
5.67518e-11
-8.17942e-11
5.88111e-11
-7.75904e-11
6.03819e-11
-7.26558e-11
6.14289e-11
-6.70936e-11
6.18906e-11
-6.09549e-11
6.17556e-11
-5.44215e-11
6.09816e-11
-4.75992e-11
5.95882e-11
-4.07286e-11
5.75606e-11
-3.39524e-11
5.49543e-11
-2.7541e-11
5.17862e-11
-2.16435e-11
4.81451e-11
-1.65059e-11
4.40784e-11
-1.22563e-11
3.96981e-11
-9.09299e-12
3.50805e-11
-7.13758e-12
3.0357e-11
-6.5624e-12
2.56459e-11
-7.5481e-12
2.11169e-11
-1.02374e-11
1.69259e-11
-1.46643e-11
1.3226e-11
-2.03077e-11
1.00705e-11
-2.58422e-11
7.3356e-12
-2.85116e-11
4.67839e-12
-2.49094e-11
1.73925e-12
-1.26881e-11
2.53334e-12
-2.21488e-12
1.58981e-12
-5.10763e-12
-1.80791e-11
-7.32005e-12
-3.42366e-11
-9.42118e-12
-4.07748e-11
-1.17935e-11
-4.00832e-11
-1.45555e-11
-3.60956e-11
-1.76231e-11
-3.16577e-11
-2.08724e-11
-2.82772e-11
-2.41579e-11
-2.63218e-11
-2.73964e-11
-2.57067e-11
-3.04886e-11
-2.6169e-11
-3.34022e-11
-2.74705e-11
-3.60678e-11
-2.94489e-11
-3.84787e-11
-3.19593e-11
-4.05806e-11
-3.49359e-11
-4.23807e-11
-3.82615e-11
-4.38359e-11
-4.18937e-11
-4.49609e-11
-4.57091e-11
-4.57253e-11
-4.96663e-11
-4.61502e-11
-5.36435e-11
-4.62182e-11
-5.76051e-11
-4.5954e-11
-6.14452e-11
-4.53513e-11
-6.51388e-11
-4.4436e-11
-6.86036e-11
-4.32107e-11
-7.18274e-11
-4.1702e-11
-7.47557e-11
-3.99196e-11
-7.73916e-11
-3.78898e-11
-7.97092e-11
-3.56274e-11
-8.17275e-11
-3.31577e-11
-8.3447e-11
-3.04977e-11
-8.49017e-11
-2.76697e-11
-8.61137e-11
-2.46905e-11
-8.71274e-11
-2.1579e-11
-8.79778e-11
-1.83497e-11
-8.87118e-11
-1.50177e-11
-8.93679e-11
-1.15951e-11
-8.99887e-11
-8.09351e-12
-9.06088e-11
-4.52284e-12
-9.12605e-11
-8.92576e-13
-9.19666e-11
2.7885e-12
-9.27414e-11
6.51199e-12
-9.35879e-11
1.02691e-11
-9.44955e-11
1.40511e-11
-9.54436e-11
1.78468e-11
-9.63956e-11
2.16441e-11
-9.73071e-11
2.54252e-11
-9.81136e-11
2.91712e-11
-9.87465e-11
3.2855e-11
-9.91139e-11
3.645e-11
-9.91326e-11
3.99191e-11
-9.86977e-11
4.32288e-11
-9.77313e-11
4.63303e-11
-9.61321e-11
4.91842e-11
-9.38468e-11
5.17328e-11
-9.07951e-11
5.39374e-11
-8.69741e-11
5.57365e-11
-8.23472e-11
5.70985e-11
-7.69832e-11
5.79634e-11
-7.09042e-11
5.83154e-11
-6.42634e-11
5.81053e-11
-5.7147e-11
5.73412e-11
-4.97836e-11
5.59922e-11
-4.23075e-11
5.40967e-11
-3.4998e-11
5.165e-11
-2.80169e-11
4.87204e-11
-2.16467e-11
4.53313e-11
-1.6036e-11
4.1575e-11
-1.14237e-11
3.74963e-11
-7.93444e-12
3.32037e-11
-5.76166e-12
2.87714e-11
-5.05539e-12
2.43349e-11
-6.01703e-12
2.00204e-11
-8.84084e-12
1.59967e-11
-1.35092e-11
1.24092e-11
-1.9605e-11
9.33783e-12
-2.55939e-11
6.70412e-12
-2.87517e-11
4.2135e-12
-2.5242e-11
1.54744e-12
-1.27802e-11
2.96526e-12
-2.02694e-12
1.93665e-12
-4.69843e-12
-1.81912e-11
-6.8534e-12
-3.47421e-11
-9.00538e-12
-4.1168e-11
-1.14653e-11
-4.01964e-11
-1.42909e-11
-3.58263e-11
-1.73826e-11
-3.11576e-11
-2.05816e-11
-2.76369e-11
-2.37784e-11
-2.56938e-11
-2.68668e-11
-2.51693e-11
-2.98092e-11
-2.57913e-11
-3.25397e-11
-2.73044e-11
-3.50536e-11
-2.95065e-11
-3.72969e-11
-3.22913e-11
-3.92776e-11
-3.55285e-11
-4.09493e-11
-3.91698e-11
-4.23276e-11
-4.30893e-11
-4.33761e-11
-4.72448e-11
-4.41156e-11
-5.15042e-11
-4.45211e-11
-5.58275e-11
-4.4616e-11
-6.00936e-11
-4.4385e-11
-6.42719e-11
-4.38518e-11
-6.8263e-11
-4.30098e-11
-7.20479e-11
-4.18823e-11
-7.55539e-11
-4.04708e-11
-7.87759e-11
-3.87979e-11
-8.1671e-11
-3.68718e-11
-8.42494e-11
-3.47151e-11
-8.64969e-11
-3.23405e-11
-8.84399e-11
-2.97699e-11
-9.00897e-11
-2.70182e-11
-9.14865e-11
-2.41058e-11
-9.26601e-11
-2.10484e-11
-9.36577e-11
-1.78642e-11
-9.45176e-11
-1.45685e-11
-9.52861e-11
-1.11777e-11
-9.60013e-11
-7.70624e-12
-9.6702e-11
-4.16894e-12
-9.74186e-11
-5.79571e-13
-9.81759e-11
3.04841e-12
-9.89882e-11
6.70183e-12
-9.98583e-11
1.03681e-11
-1.00778e-10
1.40337e-11
-1.01722e-10
1.76849e-11
-1.02659e-10
2.13049e-11
-1.03536e-10
2.48767e-11
-1.04293e-10
2.83775e-11
-1.0485e-10
3.17864e-11
-1.05126e-10
3.50744e-11
-1.05017e-10
3.82169e-11
-1.04437e-10
4.11768e-11
-1.03279e-10
4.39253e-11
-1.01471e-10
4.64169e-11
-9.89163e-11
4.86227e-11
-9.55835e-11
5.04931e-11
-9.14114e-11
5.20047e-11
-8.64332e-11
5.3106e-11
-8.06403e-11
5.37839e-11
-7.41485e-11
5.39899e-11
-6.70152e-11
5.37275e-11
-5.9444e-11
5.29574e-11
-5.15511e-11
5.17054e-11
-4.36078e-11
4.99502e-11
-3.57741e-11
4.77442e-11
-2.83555e-11
4.50869e-11
-2.1516e-11
4.20519e-11
-1.55361e-11
3.86601e-11
-1.05561e-11
3.49956e-11
-6.79544e-12
3.1097e-11
-4.38941e-12
2.706e-11
-3.5348e-12
2.29612e-11
-4.44594e-12
1.89293e-11
-7.30361e-12
1.51047e-11
-1.21928e-11
1.16437e-11
-1.85956e-11
8.65472e-12
-2.50892e-11
6.10299e-12
-2.86344e-11
3.76768e-12
-2.54062e-11
1.35899e-12
-1.26873e-11
3.34666e-12
-1.86741e-12
2.38285e-12
-4.33622e-12
-1.81257e-11
-6.47124e-12
-3.48233e-11
-8.70165e-12
-4.11178e-11
-1.12563e-11
-3.97657e-11
-1.4141e-11
-3.51288e-11
-1.72163e-11
-3.02626e-11
-2.03321e-11
-2.67239e-11
-2.33617e-11
-2.48351e-11
-2.62557e-11
-2.44503e-11
-2.89585e-11
-2.5252e-11
-3.14723e-11
-2.69624e-11
-3.37526e-11
-2.94015e-11
-3.58121e-11
-3.24092e-11
-3.76053e-11
-3.59204e-11
-3.9149e-11
-3.98067e-11
-4.04026e-11
-4.40268e-11
-4.13874e-11
-4.84439e-11
-4.20718e-11
-5.30159e-11
-4.2479e-11
-5.76091e-11
-4.2586e-11
-6.21883e-11
-4.24145e-11
-6.66387e-11
-4.19491e-11
-7.09357e-11
-4.12096e-11
-7.49898e-11
-4.01886e-11
-7.87879e-11
-3.89045e-11
-8.22696e-11
-3.73567e-11
-8.54365e-11
-3.55637e-11
-8.82579e-11
-3.35314e-11
-9.07509e-11
-3.12787e-11
-9.29128e-11
-2.88165e-11
-9.47763e-11
-2.6164e-11
-9.63621e-11
-2.33358e-11
-9.77141e-11
-2.03514e-11
-9.88669e-11
-1.72275e-11
-9.98678e-11
-1.39836e-11
-1.00755e-10
-1.06379e-11