/*--------------------------------*- C++ -*----------------------------------*\
| =========                 |                                                 |
| \\      /  F ield         | OpenFOAM: The Open Source CFD Toolbox           |
|  \\    /   O peration     | Version:  2412                                  |
|   \\  /    A nd           | Website:  www.openfoam.com                      |
|    \\/     M anipulation  |                                                 |
\*---------------------------------------------------------------------------*/
FoamFile
{
    version     2.0;
    format      ascii;
    arch        "LSB;label=32;scalar=64";
    class       volScalarField;
    location    "8.6";
    object      p;
}
// * * * * * * * * * * * * * * * * * * * * * * * * * * * * * * * * * * * * * //

dimensions      [1 -1 -2 0 0 0 0];

internalField   nonuniform List<scalar> 
6400
(
7056.21
7056.82
7057.93
7059.53
7061.56
7063.98
7066.76
7069.86
7073.24
7076.85
7080.66
7084.61
7088.66
7092.76
7096.86
7100.94
7104.96
7108.88
7112.7
7116.38
7119.92
7123.31
7126.53
7129.59
7132.48
7135.2
7137.75
7140.13
7142.32
7144.34
7146.18
7147.84
7149.32
7150.61
7151.73
7152.65
7153.39
7153.95
7154.32
7154.51
7154.52
7154.35
7154
7153.46
7152.75
7151.86
7150.79
7149.54
7148.13
7146.54
7144.78
7142.85
7140.73
7138.44
7135.98
7133.33
7130.5
7127.49
7124.29
7120.9
7117.33
7113.58
7109.67
7105.6
7101.41
7097.12
7092.77
7088.4
7084.05
7079.78
7075.65
7071.71
7068.01
7064.6
7061.54
7058.86
7056.62
7054.86
7053.62
7052.96
6692.64
6693.26
6694.4
6696.04
6698.12
6700.59
6703.42
6706.57
6710
6713.67
6717.54
6721.54
6725.64
6729.79
6733.94
6738.05
6742.1
6746.05
6749.88
6753.58
6757.13
6760.52
6763.75
6766.81
6769.7
6772.42
6774.97
6777.34
6779.54
6781.56
6783.4
6785.06
6786.54
6787.83
6788.94
6789.86
6790.6
6791.16
6791.53
6791.72
6791.73
6791.55
6791.2
6790.67
6789.95
6789.07
6788
6786.76
6785.34
6783.75
6781.99
6780.06
6777.95
6775.67
6773.21
6770.56
6767.74
6764.73
6761.52
6758.13
6754.56
6750.8
6746.87
6742.78
6738.56
6734.23
6729.84
6725.41
6721
6716.67
6712.48
6708.47
6704.7
6701.24
6698.11
6695.38
6693.08
6691.28
6690.01
6689.33
6328.48
6329.13
6330.33
6332.05
6334.22
6336.79
6339.72
6342.98
6346.52
6350.3
6354.27
6358.38
6362.58
6366.81
6371.04
6375.23
6379.33
6383.33
6387.19
6390.92
6394.49
6397.89
6401.13
6404.2
6407.1
6409.82
6412.37
6414.74
6416.93
6418.95
6420.8
6422.46
6423.94
6425.23
6426.34
6427.25
6427.99
6428.54
6428.91
6429.1
6429.11
6428.93
6428.58
6428.04
6427.33
6426.44
6425.38
6424.13
6422.72
6421.13
6419.38
6417.45
6415.35
6413.07
6410.61
6407.98
6405.16
6402.15
6398.95
6395.55
6391.96
6388.18
6384.22
6380.09
6375.81
6371.41
6366.93
6362.4
6357.88
6353.43
6349.1
6344.97
6341.08
6337.49
6334.25
6331.4
6329
6327.1
6325.76
6325.05
5963.7
5964.4
5965.7
5967.54
5969.85
5972.57
5975.66
5979.07
5982.77
5986.71
5990.85
5995.12
5999.47
6003.84
6008.18
6012.47
6016.65
6020.72
6024.64
6028.4
6032
6035.42
6038.68
6041.76
6044.66
6047.38
6049.93
6052.31
6054.5
6056.52
6058.37
6060.05
6061.51
6062.8
6063.9
6064.83
6065.56
6066.12
6066.48
6066.67
6066.67
6066.49
6066.14
6065.6
6064.89
6064
6062.92
6061.68
6060.27
6058.68
6056.93
6055.01
6052.91
6050.64
6048.2
6045.57
6042.76
6039.76
6036.56
6033.15
6029.55
6025.74
6021.73
6017.53
6013.17
6008.66
6004.05
5999.37
5994.68
5990.05
5985.53
5981.2
5977.12
5973.34
5969.92
5966.9
5964.34
5962.3
5960.86
5960.09
5598.25
5599.03
5600.46
5602.48
5604.98
5607.91
5611.2
5614.82
5618.74
5622.92
5627.28
5631.77
5636.32
5640.87
5645.37
5649.79
5654.08
5658.23
5662.22
5666.03
5669.67
5673.12
5676.39
5679.48
5682.39
5685.12
5687.67
5690.04
5692.24
5694.27
5696.13
5697.8
5699.27
5700.56
5701.66
5702.59
5703.32
5703.87
5704.23
5704.42
5704.41
5704.23
5703.87
5703.33
5702.61
5701.72
5700.64
5699.4
5697.99
5696.4
5694.65
5692.74
5690.65
5688.39
5685.96
5683.35
5680.55
5677.55
5674.35
5670.94
5667.32
5663.47
5659.41
5655.13
5650.65
5646
5641.22
5636.34
5631.42
5626.53
5621.75
5617.15
5612.8
5608.77
5605.11
5601.86
5599.07
5596.84
5595.25
5594.39
5232.06
5232.96
5234.57
5236.82
5239.58
5242.76
5246.32
5250.21
5254.43
5258.9
5263.56
5268.33
5273.14
5277.93
5282.63
5287.21
5291.64
5295.89
5299.96
5303.83
5307.5
5310.98
5314.27
5317.37
5320.28
5323.02
5325.58
5327.96
5330.16
5332.19
5334.09
5335.74
5337.21
5338.5
5339.61
5340.53
5341.26
5341.81
5342.17
5342.35
5342.34
5342.15
5341.78
5341.23
5340.51
5339.61
5338.54
5337.29
5335.87
5334.29
5332.54
5330.63
5328.55
5326.31
5323.89
5321.3
5318.51
5315.53
5312.35
5308.94
5305.29
5301.41
5297.28
5292.9
5288.29
5283.47
5278.46
5273.32
5268.11
5262.89
5257.75
5252.79
5248.1
5243.75
5239.77
5236.22
5233.14
5230.65
5228.87
5227.87
4865.02
4866.12
4867.97
4870.5
4873.58
4877.07
4880.94
4885.19
4889.78
4894.65
4899.7
4904.83
4909.97
4915.04
4919.98
4924.76
4929.34
4933.71
4937.86
4941.79
4945.51
4949.01
4952.32
4955.43
4958.35
4961.1
4963.66
4966.04
4968.24
4970.33
4972.19
4973.85
4975.33
4976.63
4977.74
4978.66
4979.39
4979.93
4980.29
4980.46
4980.44
4980.25
4979.87
4979.32
4978.58
4977.68
4976.6
4975.35
4973.92
4972.34
4970.59
4968.69
4966.62
4964.39
4961.99
4959.42
4956.67
4953.71
4950.54
4947.14
4943.49
4939.57
4935.37
4930.88
4926.12
4921.09
4915.82
4910.35
4904.76
4899.12
4893.53
4888.1
4882.96
4878.18
4873.83
4869.91
4866.48
4863.68
4861.64
4860.41
4496.98
4498.42
4500.54
4503.33
4506.69
4510.52
4514.83
4519.58
4524.7
4530.13
4535.68
4541.27
4546.82
4552.24
4557.47
4562.47
4567.23
4571.73
4575.96
4579.95
4583.7
4587.23
4590.54
4593.66
4596.59
4599.34
4601.91
4604.3
4606.54
4608.6
4610.46
4612.15
4613.64
4614.94
4616.06
4616.98
4617.71
4618.24
4618.59
4618.75
4618.73
4618.52
4618.14
4617.57
4616.83
4615.91
4614.82
4613.56
4612.13
4610.55
4608.8
4606.9
4604.85
4602.63
4600.26
4597.72
4595
4592.08
4588.95
4585.57
4581.92
4577.97
4573.71
4569.12
4564.18
4558.91
4553.32
4547.47
4541.42
4535.25
4529.07
4522.95
4517.19
4511.8
4506.91
4502.6
4498.87
4495.79
4493.45
4491.84
4127.78
4129.61
4131.9
4134.68
4138.09
4142.28
4147.32
4153.04
4159.14
4165.31
4171.53
4177.7
4183.75
4189.58
4195.13
4200.39
4205.33
4209.95
4214.27
4218.31
4222.08
4225.62
4228.94
4232.06
4235
4237.75
4240.33
4242.74
4244.98
4247.04
4248.93
4250.62
4252.13
4253.45
4254.56
4255.49
4256.21
4256.74
4257.08
4257.23
4257.2
4256.98
4256.58
4256
4255.24
4254.3
4253.21
4251.94
4250.5
4248.91
4247.16
4245.27
4243.22
4241.03
4238.67
4236.18
4233.51
4230.65
4227.57
4224.24
4220.61
4216.66
4212.35
4207.64
4202.53
4196.99
4191.05
4184.73
4178.1
4171.27
4164.33
4157.4
4150.43
4143.88
4138.1
4133.36
4129.58
4126.55
4124.03
4121.99
3757.21
3759.23
3761.38
3763.83
3767.17
3771.84
3778.01
3785.23
3792.79
3800.16
3807.27
3814.17
3820.82
3827.12
3833.05
3838.57
3843.69
3848.43
3852.82
3856.88
3860.67
3864.19
3867.5
3870.61
3873.57
3876.33
3878.91
3881.33
3883.58
3885.67
3887.57
3889.29
3890.82
3892.14
3893.27
3894.19
3894.91
3895.43
3895.76
3895.9
3895.85
3895.62
3895.2
3894.61
3893.84
3892.89
3891.78
3890.48
3889.02
3887.41
3885.65
3883.76
3881.73
3879.6
3877.2
3874.79
3872.2
3869.42
3866.42
3863.15
3859.59
3855.66
3851.33
3846.53
3841.24
3835.42
3829.07
3822.21
3814.9
3807.22
3799.24
3790.93
3782.33
3774.1
3767.03
3761.65
3757.88
3755.18
3752.83
3750.63
3385.02
3386.87
3388.69
3391.02
3394.65
3400.12
3407.62
3416.65
3426.01
3434.82
3443.04
3450.82
3458.15
3464.99
3471.29
3477.08
3482.37
3487.2
3491.62
3495.69
3499.45
3502.95
3506.22
3509.29
3512.34
3515.05
3517.63
3520.07
3522.35
3524.46
3526.4
3528.15
3529.7
3531.04
3532.17
3533.09
3533.8
3534.31
3534.63
3534.75
3534.68
3534.44
3534.01
3533.4
3532.61
3531.64
3530.51
3529.18
3527.69
3526.05
3524.27
3522.36
3520.34
3518.21
3515.93
3513.57
3511.05
3508.37
3505.48
3502.33
3498.87
3495.02
3490.7
3485.85
3480.4
3474.3
3467.52
3460.06
3451.95
3443.27
3434.03
3424.11
3413.59
3403.4
3394.82
3388.44
3384.16
3381.45
3379.45
3377.46
3010.9
3012.48
3014.37
3017.42
3022.16
3028.94
3037.93
3048.58
3059.51
3069.73
3079.12
3087.84
3095.92
3103.3
3109.99
3116.02
3121.44
3126.31
3130.72
3134.74
3138.44
3141.88
3145.11
3148.21
3151.13
3153.87
3156.47
3158.94
3161.26
3163.42
3165.4
3167.19
3168.78
3170.15
3171.29
3172.2
3172.9
3173.39
3173.68
3173.78
3173.7
3173.44
3172.99
3172.36
3171.55
3170.55
3169.36
3168.03
3166.5
3164.82
3163
3161.07
3159.05
3156.93
3154.73
3152.44
3150.05
3147.49
3144.75
3141.77
3138.47
3134.76
3130.54
3125.7
3120.14
3113.79
3106.58
3098.48
3089.52
3079.75
3069.19
3057.7
3045.5
3033.59
3023.33
3015.4
3009.72
3006.04
3003.85
3002.15
2634.58
2636.2
2638.98
2643.63
2650.25
2658.93
2669.61
2681.66
2693.87
2705.32
2715.83
2725.5
2734.32
2742.24
2749.27
2755.49
2760.97
2765.81
2770.13
2774.04
2777.62
2780.97
2784.17
2787.17
2790.04
2792.8
2795.43
2797.94
2800.32
2802.54
2804.59
2806.44
2808.07
2809.47
2810.63
2811.52
2812.2
2812.66
2812.92
2813
2812.89
2812.61
2812.15
2811.51
2810.67
2809.64
2808.43
2807.06
2805.46
2803.7
2801.83
2799.86
2797.82
2795.72
2793.57
2791.38
2789.12
2786.76
2784.2
2781.47
2778.42
2774.94
2770.9
2766.17
2760.59
2754.05
2746.44
2737.73
2727.89
2717.02
2705.16
2692.26
2678.58
2665.07
2652.91
2642.82
2634.99
2629.45
2626.16
2624.36
2255.69
2257.93
2262.27
2269.13
2278.26
2289.41
2302.16
2315.72
2329.17
2341.8
2353.42
2364.03
2373.57
2381.98
2389.29
2395.6
2401.04
2405.74
2409.88
2413.59
2416.98
2420.24
2423.27
2426.2
2429.05
2431.81
2434.49
2437.06
2439.51
2441.82
2443.96
2445.9
2447.6
2449.01
2450.14
2451.06
2451.71
2452.13
2452.35
2452.39
2452.27
2451.97
2451.51
2450.85
2449.99
2448.92
2447.65
2446.14
2444.53
2442.69
2440.74
2438.7
2436.62
2434.52
2432.42
2430.32
2428.22
2426.08
2423.83
2421.4
2418.7
2415.58
2411.87
2407.37
2401.9
2395.28
2387.37
2378.07
2367.36
2355.35
2342.14
2327.8
2312.57
2297.22
2282.7
2269.85
2259.26
2251.29
2246.25
2243.77
1873.94
1877.21
1883.45
1892.87
1904.95
1919.04
1934.37
1950
1965.07
1979.13
1992.02
2003.63
2013.88
2022.71
2030.18
2036.45
2041.7
2046.13
2049.95
2053.36
2056.52
2059.52
2062.41
2065.26
2068.09
2070.87
2073.61
2076.28
2078.83
2081.26
2083.52
2085.59
2087.39
2088.82
2089.98
2090.86
2091.46
2091.82
2091.98
2091.96
2091.81
2091.51
2091.05
2090.41
2089.53
2088.4
2087.13
2085.51
2083.69
2081.78
2079.72
2077.57
2075.42
2073.29
2071.22
2069.22
2067.3
2065.42
2063.52
2061.52
2059.29
2056.69
2053.48
2049.42
2044.24
2037.7
2029.59
2019.75
2008.15
1994.88
1980.1
1963.97
1946.72
1928.9
1911.4
1895.27
1881.44
1870.69
1863.6
1860.04
1489.11
1493.5
1501.78
1513.97
1529.31
1546.8
1565.31
1583.72
1601.18
1617.25
1631.74
1644.51
1655.47
1664.62
1672.1
1678.13
1682.99
1686.94
1690.27
1693.25
1696.06
1698.78
1701.51
1704.27
1707.08
1709.93
1712.77
1715.55
1718.24
1720.81
1723.2
1725.36
1727.22
1728.85
1730.1
1730.94
1731.46
1731.73
1731.77
1731.68
1731.49
1731.21
1730.8
1730.19
1729.33
1728.19
1726.78
1725.06
1723.11
1720.95
1718.69
1716.39
1714.13
1711.94
1709.87
1707.96
1706.22
1704.64
1703.16
1701.7
1700.11
1698.23
1695.76
1692.38
1687.73
1681.48
1673.33
1663.02
1650.46
1635.71
1618.94
1600.36
1580.27
1559.2
1538.07
1518.14
1500.7
1486.9
1477.56
1472.69
1100
1105.53
1116.17
1131.58
1150.72
1172.25
1194.78
1216.96
1237.72
1256.5
1272.99
1287.06
1298.68
1307.97
1315.18
1320.69
1324.85
1328.05
1330.68
1333.05
1335.4
1337.82
1340.36
1343.05
1345.9
1348.86
1351.89
1354.87
1357.74
1360.54
1363.18
1365.59
1367.6
1369.35
1370.64
1371.37
1371.7
1371.89
1371.72
1371.48
1371.28
1371.06
1370.74
1370.23
1369.42
1368.27
1366.74
1364.84
1362.7
1360.27
1357.72
1355.15
1352.7
1350.37
1348.23
1346.36
1344.8
1343.54
1342.54
1341.71
1340.95
1340.05
1338.64
1336.26
1332.48
1326.86
1318.94
1308.32
1294.77
1278.27
1259
1237.19
1213.34
1188
1162.36
1137.91
1116.22
1098.87
1086.89
1080.61
704.316
710.173
723.847
743.842
768.425
795.396
822.993
850.024
875.114
897.317
916.232
931.793
944.067
953.251
959.767
964.221
967.188
969.146
970.672
972.262
974.113
976.22
978.581
981.233
984.193
987.403
990.748
993.93
997.16
1000.29
1003.26
1006
1008.34
1010.29
1011.74
1012.95
1013.06
1012.56
1011.8
1011.4
1011.19
1011.12
1011.03
1010.68
1009.92
1008.71
1007.03
1004.88
1002.37
999.557
996.585
993.612
990.768
988.278
985.961
984.036
982.594
981.661
981.18
981.064
981.294
981.752
981.891
981.054
978.7
974.266
967.048
956.352
941.765
923.258
900.967
875.21
846.52
815.75
784.285
753.619
725.865
703.541
688.111
681.609
309.19
311.201
326.163
350.032
381.003
415.941
450.872
484.441
515.046
541.818
563.63
580.659
593.18
601.609
606.604
609.2
610.245
610.284
610.123
610.652
611.926
613.683
615.861
618.525
621.752
625.352
629.055
632.755
636.429
640.012
643.449
646.657
649.468
651.597
652.771
652.638
651.731
651.357
651.269
650.863
650.668
650.806
651.106
651.165
650.634
649.5
647.702
645.222
642.229
638.821
635.195
631.59
628.209
625.196
622.684
620.577
619.173
618.588
618.731
619.456
620.928
623.319
625.703
627.084
626.924
624.59
618.947
608.761
593.246
572.427
546.509
515.811
481.307
443.136
403.412
364.424
330.722
305.105
288.656
285.575
51.15
48.2203
55.4412
67.9435
84.4991
105.782
130.365
157.021
184.811
209.855
231.052
247.129
257.946
263.663
265.095
264.312
262.685
260.501
258.335
257.264
257.239
258.081
259.615
262.034
265.8
270.377
274.414
278.264
281.826
285.13
288.226
291.116
293.69
295.605
296.567
296.567
295.761
295.055
294.267
293.55
293.007
292.829
292.993
293.343
293.23
292.518
291.074
288.723
285.822
282.617
279.235
275.841
272.561
269.406
266.532
263.613
261.996
261.797
262.676
264.608
267.715
271.826
275.996
279.308
281.733
282.851
281.087
274.429
261.371
241.739
216.532
186.973
156.427
126.424
99.0788
77.0747
59.7839
46.9604
39.5695
41.4988
-8.64427
-8.56672
-8.70481
-8.80414
-8.78364
-8.44077
-5.10256
0.498314
9.06023
20.0957
30.5546
38.31
43.1343
44.8817
44.0067
42.4723
41.1331
39.6729
38.0163
36.7812
36.1654
36.2567
36.8553
37.9888
40.0417
42.7376
45.0936
47.2315
49.0535
50.5943
51.9655
53.1689
54.2003
54.8419
54.9336
54.5738
53.8936
53.2608
52.7257
52.3179
52.0137
51.9562
52.1482
52.473
52.7554
52.8728
52.5394
51.6251
50.3288
48.9021
47.3643
45.7623
44.098
42.2492
40.4828
38.6453
37.6142
37.5487
38.066
39.3259
41.5454
44.1823
46.6779
48.6479
50.5832
52.5243
53.5107
51.9546
46.4192
36.8136
24.0734
11.5089
1.92144
-4.5643
-7.63778
-7.79249
-7.75935
-7.67126
-7.53005
-7.60252
-9.08313
-9.1801
-9.28615
-9.38032
-9.4514
-9.61483
-9.85448
-9.98871
-10.0632
-10.0954
-10.0782
-10.0381
-10.0087
-10.024
-10.0715
-10.0962
-10.0913
-10.0995
-10.146
-10.2345
-10.3024
-10.3434
-10.3704
-10.3949
-10.4124
-10.4129
-10.3916
-10.3618
-10.3367
-10.3225
-10.3193
-10.3241
-10.311
-10.3236
-10.3612
-10.3873
-10.4372
-10.5012
-10.5486
-10.5672
-10.5454
-10.4832
-10.3926
-10.3082
-10.2476
-10.2175
-10.2166
-10.2452
-10.2702
-10.2613
-10.2283
-10.222
-10.2554
-10.3274
-10.408
-10.4319
-10.4071
-10.3803
-10.4007
-10.4584
-10.409
-10.3121
-10.1811
-10.0289
-9.88703
-9.77446
-9.71604
-9.75388
-9.87286
-10.0017
-10.0325
-9.91472
-9.63223
-9.16969
-8.63742
-8.42679
-8.38511
-8.31473
-8.1996
-8.08507
-9.47197
-9.60472
-9.77921
-9.94168
-10.0851
-10.2413
-10.384
-10.4679
-10.5215
-10.576
-10.6277
-10.6642
-10.693
-10.7278
-10.7577
-10.7701
-10.7728
-10.7823
-10.8088
-10.8471
-10.8744
-10.8821
-10.8756
-10.8678
-10.8625
-10.8486
-10.8241
-10.7983
-10.7821
-10.78
-10.786
-10.7935
-10.7981
-10.8122
-10.8365
-10.8576
-10.8926
-10.9402
-10.993
-11.0334
-11.0398
-11.0014
-10.9274
-10.841
-10.7713
-10.7319
-10.7211
-10.7361
-10.7388
-10.7102
-10.6734
-10.6709
-10.7035
-10.759
-10.819
-10.8705
-10.9182
-10.9729
-11.0449
-11.077
-11.0436
-10.9746
-10.8693
-10.7338
-10.5915
-10.4686
-10.3963
-10.3963
-10.4565
-10.5051
-10.4882
-10.3836
-10.1609
-9.79532
-9.36348
-9.07646
-8.91104
-8.76002
-8.61528
-8.48743
-9.91975
-10.1437
-10.3911
-10.5961
-10.7618
-10.8976
-10.9756
-10.9989
-11.0001
-11.0167
-11.0507
-11.0948
-11.1421
-11.181
-11.2129
-11.233
-11.2407
-11.2462
-11.2587
-11.2773
-11.2938
-11.3054
-11.3185
-11.3338
-11.3449
-11.3476
-11.3392
-11.3209
-11.2993
-11.283
-11.277
-11.2821
-11.2935
-11.3043
-11.3297
-11.3612
-11.4126
-11.4817
-11.5486
-11.5904
-11.5912
-11.5488
-11.4719
-11.3808
-11.306
-11.2644
-11.2496
-11.2589
-11.2617
-11.2321
-11.1838
-11.1685
-11.189
-11.2381
-11.3099
-11.3814
-11.4506
-11.5197
-11.5671
-11.5735
-11.5392
-11.4646
-11.3514
-11.2098
-11.0599
-10.9271
-10.8393
-10.8091
-10.8291
-10.8766
-10.9144
-10.8727
-10.735
-10.4961
-10.1601
-9.85211
-9.61186
-9.37298
-9.1092
-8.88462
-10.6288
-10.9534
-11.2623
-11.4525
-11.5559
-11.6346
-11.6521
-11.6071
-11.537
-11.4981
-11.5072
-11.547
-11.5919
-11.637
-11.671
-11.6915
-11.6993
-11.7037
-11.7139
-11.7314
-11.7522
-11.7737
-11.7943
-11.8117
-11.8253
-11.8349
-11.8377
-11.8308
-11.8147
-11.7947
-11.779
-11.7723
-11.7733
-11.7855
-11.8098
-11.86
-11.9379
-12.0422
-12.134
-12.1792
-12.1778
-12.1402
-12.0659
-11.966
-11.8746
-11.8157
-11.7915
-11.7924
-11.7931
-11.7595
-11.6987
-11.6731
-11.6851
-11.7421
-11.8427
-11.9369
-12.0116
-12.0727
-12.0961
-12.0965
-12.0651
-11.9932
-11.8815
-11.7385
-11.5852
-11.448
-11.3491
-11.3049
-11.3208
-11.3769
-11.4246
-11.4138
-11.3279
-11.1758
-10.9656
-10.7256
-10.4976
-10.2149
-9.83838
-9.54148
-11.5578
-11.9142
-12.252
-12.4407
-12.4678
-12.4455
-12.4054
-12.2967
-12.1393
-12.0178
-11.9807
-12.0123
-12.0573
-12.0964
-12.1301
-12.1538
-12.1684
-12.1806
-12.1961
-12.216
-12.2377
-12.2589
-12.2781
-12.2949
-12.3091
-12.3204
-12.3281
-12.331
-12.3262
-12.3137
-12.2971
-12.2817
-12.2732
-12.2809
-12.3063
-12.3722
-12.4724
-12.6006
-12.7173
-12.7733
-12.7734
-12.7361
-12.6604
-12.5518
-12.4462
-12.3638
-12.3229
-12.3143
-12.3146
-12.2874
-12.2329
-12.2129
-12.2281
-12.2971
-12.4129
-12.5142
-12.5784
-12.6181
-12.6415
-12.6505
-12.6266
-12.5631
-12.4604
-12.3242
-12.1736
-12.0367
-11.9331
-11.8812
-11.8939
-11.9517
-12.0061
-12.0175
-11.9728
-11.8832
-11.7851
-11.6366
-11.4349
-11.1665
-10.8027
-10.4993
-12.4743
-12.8409
-13.1796
-13.3662
-13.3679
-13.248
-13.1409
-12.9905
-12.7692
-12.5709
-12.4784
-12.4893
-12.5376
-12.5751
-12.6065
-12.6306
-12.6496
-12.6668
-12.6851
-12.7051
-12.726
-12.7464
-12.7656
-12.7828
-12.7975
-12.8094
-12.8184
-12.8242
-12.827
-12.824
-12.816
-12.805
-12.7964
-12.8011
-12.8319
-12.9025
-13.0171
-13.1523
-13.2759
-13.3438
-13.3485
-13.2965
-13.2099
-13.0946
-12.9825
-12.8883
-12.8323
-12.8177
-12.8193
-12.8059
-12.7769
-12.7718
-12.7988
-12.877
-12.9925
-13.0893
-13.1413
-13.1738
-13.2097
-13.2313
-13.2182
-13.1693
-13.0822
-12.9601
-12.8176
-12.6844
-12.5789
-12.5241
-12.5384
-12.6035
-12.6689
-12.7002
-12.6994
-12.7107
-12.7051
-12.6167
-12.453
-12.2237
-11.9281
-11.6457
-13.1758
-13.5542
-13.9173
-14.1304
-14.1556
-13.9874
-13.7813
-13.5945
-13.3423
-13.107
-12.9853
-12.9879
-13.0276
-13.0649
-13.0952
-13.1189
-13.1387
-13.1572
-13.1761
-13.1959
-13.2163
-13.2365
-13.2557
-13.273
-13.2882
-13.3009
-13.3109
-13.3183
-13.3225
-13.3256
-13.3263
-13.3249
-13.3254
-13.3373
-13.3761
-13.449
-13.5631
-13.6946
-13.8091
-13.8725
-13.8678
-13.7983
-13.6897
-13.5662
-13.4561
-13.371
-13.3137
-13.3007
-13.3104
-13.3149
-13.3108
-13.3242
-13.3642
-13.4432
-13.5477
-13.6349
-13.6844
-13.7253
-13.7736
-13.8086
-13.8104
-13.7748
-13.7061
-13.6056
-13.482
-13.3603
-13.265
-13.2189
-13.2455
-13.3234
-13.3998
-13.4561
-13.5404
-13.642
-13.6748
-13.6208
-13.4915
-13.2975
-13.0452
-12.7279
-13.6548
-13.9659
-14.3849
-14.656
-14.7207
-14.5729
-14.3103
-14.0623
-13.8237
-13.6128
-13.5012
-13.4953
-13.5311
-13.5645
-13.5909
-13.6127
-13.6319
-13.6504
-13.6693
-13.6889
-13.709
-13.729
-13.7483
-13.7661
-13.7821
-13.7959
-13.8072
-13.8161
-13.8229
-13.8285
-13.8332
-13.8381
-13.8458
-13.8637
-13.9044
-13.977
-14.0805
-14.198
-14.2947
-14.3385
-14.3117
-14.2242
-14.1002
-13.9715
-13.8732
-13.8096
-13.7705
-13.7733
-13.7992
-13.8198
-13.8336
-13.8608
-13.9069
-13.978
-14.0652
-14.1425
-14.1982
-14.2497
-14.307
-14.3532
-14.3671
-14.3451
-14.2948
-14.2194
-14.1254
-14.0295
-13.9597
-13.9419
-13.9979
-14.0951
-14.1865
-14.2933
-14.4601
-14.5802
-14.6159
-14.5756
-14.4602
-14.2621
-13.9558
-13.5822
-14.0611
-14.1916
-14.5284
-14.8294
-14.9358
-14.8474
-14.6364
-14.4148
-14.2288
-14.0863
-14.0188
-14.021
-14.0462
-14.0711
-14.092
-14.1106
-14.1283
-14.1461
-14.1646
-14.1839
-14.2039
-14.224
-14.2436
-14.2621
-14.2789
-14.2936
-14.3062
-14.3166
-14.3253
-14.333
-14.3407
-14.3492
-14.3608
-14.3798
-14.4129
-14.4659
-14.5394
-14.6227
-14.6882
-14.7096
-14.6711
-14.5821
-14.4636
-14.3488
-14.2703
-14.2311
-14.2258
-14.2479
-14.2906
-14.3219
-14.3478
-14.382
-14.4271
-14.4861
-14.5561
-14.6239
-14.6814
-14.7357
-14.7923
-14.8423
-14.867
-14.8552
-14.8226
-14.7742
-14.7159
-14.6597
-14.6324
-14.6645
-14.7668
-14.8883
-15.0024
-15.1889
-15.3697
-15.4605
-15.4733
-15.4165
-15.2649
-14.9858
-14.5891
-14.2411
-14.5268
-14.5655
-14.7171
-14.9002
-15.0203
-15.0221
-14.9066
-14.7639
-14.6463
-14.5735
-14.5507
-14.5548
-14.5668
-14.5813
-14.5961
-14.6111
-14.6269
-14.6437
-14.6617
-14.6808
-14.7009
-14.7212
-14.7413
-14.7605
-14.7781
-14.7939
-14.8075
-14.8192
-14.8293
-14.8385
-14.8479
-14.8585
-14.8723
-14.8926
-14.9202
-14.9512
-14.9824
-15.0126
-15.0352
-15.0361
-15.0018
-14.9299
-14.838
-14.7456
-14.6858
-14.6673
-14.6946
-14.7284
-14.7783
-14.8181
-14.8553
-14.8941
-14.9356
-14.9841
-15.0393
-15.0934
-15.142
-15.1871
-15.2318
-15.2715
-15.2961
-15.2976
-15.2814
-15.2582
-15.236
-15.229
-15.2602
-15.362
-15.5237
-15.6791
-15.8402
-16.074
-16.2174
-16.2507
-16.2122
-16.0927
-15.841
-15.4728
-15.0552
-14.8138
-15.0661
-15.0821
-15.1464
-15.2474
-15.3316
-15.3543
-15.2987
-15.2083
-15.1362
-15.1006
-15.0909
-15.0856
-15.0856
-15.0915
-15.1012
-15.1132
-15.1271
-15.1428
-15.1603
-15.1793
-15.1995
-15.2204
-15.2411
-15.2611
-15.2796
-15.2963
-15.3108
-15.3234
-15.3343
-15.3442
-15.354
-15.3645
-15.3778
-15.3971
-15.4221
-15.4442
-15.4517
-15.4445
-15.4317
-15.4171
-15.3922
-15.3433
-15.2696
-15.1877
-15.136
-15.132
-15.1739
-15.2112
-15.2629
-15.3131
-15.3621
-15.4048
-15.4438
-15.4851
-15.5274
-15.565
-15.5951
-15.6199
-15.6425
-15.66
-15.6753
-15.6852
-15.6896
-15.6909
-15.6992
-15.7376
-15.8356
-16.0173
-16.2436
-16.4439
-16.6753
-16.9001
-16.9786
-16.9432
-16.8253
-16.5895
-16.2487
-15.853
-15.4979
-15.3608
-15.5935
-15.6135
-15.6554
-15.7196
-15.7747
-15.7921
-15.7607
-15.7051
-15.6622
-15.6363
-15.6182
-15.6046
-15.5985
-15.5996
-15.6059
-15.6155
-15.6278
-15.6426
-15.6597
-15.6789
-15.6995
-15.7211
-15.7428
-15.7637
-15.7832
-15.8008
-15.8161
-15.8291
-15.8403
-15.8502
-15.8594
-15.8683
-15.8782
-15.8918
-15.9107
-15.9275
-15.929
-15.9118
-15.8873
-15.8689
-15.8538
-15.82
-15.7523
-15.6656
-15.5999
-15.6286
-15.6753
-15.7092
-15.7582
-15.8179
-15.8755
-15.92
-15.9576
-15.9938
-16.0261
-16.0485
-16.0578
-16.0571
-16.0533
-16.0473
-16.0524
-16.0707
-16.0931
-16.112
-16.1365
-16.2061
-16.3642
-16.6178
-16.9027
-17.1557
-17.4528
-17.6405
-17.6504
-17.5416
-17.3229
-16.9819
-16.6095
-16.2319
-15.9584
-15.8889
-16.1129
-16.1314
-16.1609
-16.21
-16.2486
-16.2614
-16.2388
-16.2047
-16.1784
-16.1512
-16.1284
-16.1134
-16.1059
-16.1051
-16.1092
-16.117
-16.1282
-16.1424
-16.1595
-16.1791
-16.2006
-16.2232
-16.2462
-16.2684
-16.2892
-16.3078
-16.3237
-16.3369
-16.348
-16.3573
-16.3653
-16.3723
-16.3787
-16.3861
-16.3959
-16.405
-16.4055
-16.3921
-16.372
-16.3569
-16.3476
-16.3219
-16.2588
-16.1716
-16.0712
-16.1644
-16.2331
-16.2363
-16.2743
-16.3356
-16.3956
-16.44
-16.4771
-16.5113
-16.5391
-16.5516
-16.5451
-16.5257
-16.5034
-16.4921
-16.4906
-16.5062
-16.5293
-16.5473
-16.5696
-16.6531
-16.85
-17.1504
-17.4774
-17.7974
-18.1415
-18.2781
-18.2322
-18.0449
-17.7216
-17.348
-16.9859
-16.6511
-16.4405
-16.4023
-16.626
-16.6395
-16.6601
-16.6907
-16.7168
-16.7258
-16.7154
-16.6954
-16.6714
-16.6478
-16.6293
-16.6165
-16.6095
-16.6078
-16.6105
-16.6172
-16.6277
-16.6417
-16.6591
-16.6796
-16.7025
-16.7268
-16.7516
-16.7757
-16.7983
-16.8182
-16.8349
-16.8483
-16.8587
-16.8668
-16.8732
-16.878
-16.8816
-16.8847
-16.888
-16.8909
-16.8904
-16.8824
-16.8678
-16.8551
-16.847
-16.8252
-16.7695
-16.7016
-16.5863
-16.7246
-16.7931
-16.7755
-16.7993
-16.856
-16.9159
-16.961
-17.0006
-17.0386
-17.07
-17.086
-17.0818
-17.0659
-17.0456
-17.0223
-16.9986
-16.9896
-16.9937
-16.9941
-17.001
-17.0829
-17.2877
-17.5991
-17.9538
-18.355
-18.6955
-18.7907
-18.6909
-18.4271
-18.0592
-17.7099
-17.3933
-17.1187
-16.9522
-16.9208
-17.1349
-17.1445
-17.157
-17.1738
-17.1881
-17.194
-17.1883
-17.1748
-17.1573
-17.1406
-17.1265
-17.1161
-17.1099
-17.1078
-17.1098
-17.1158
-17.1258
-17.14
-17.1582
-17.1803
-17.2054
-17.2322
-17.2597
-17.2866
-17.3117
-17.3337
-17.3516
-17.365
-17.3743
-17.3805
-17.3843
-17.3865
-17.3872
-17.387
-17.3863
-17.385
-17.3819
-17.3756
-17.3638
-17.3523
-17.344
-17.3252
-17.2759
-17.2269
-17.1491
-17.2934
-17.3538
-17.309
-17.3111
-17.3622
-17.4266
-17.4777
-17.5261
-17.5756
-17.6216
-17.6578
-17.6739
-17.6645
-17.6331
-17.5852
-17.5269
-17.4812
-17.4574
-17.4369
-17.4248
-17.492
-17.6734
-17.9575
-18.3136
-18.7446
-19.0531
-19.1241
-18.9872
-18.6907
-18.3653
-18.0792
-17.8316
-17.6284
-17.5039
-17.4694
-17.6382
-17.6444
-17.6509
-17.6598
-17.667
-17.6694
-17.6652
-17.6561
-17.6443
-17.6323
-17.6215
-17.6131
-17.6076
-17.6055
-17.607
-17.6125
-17.6224
-17.637
-17.6568
-17.6814
-17.7098
-17.7405
-17.7719
-17.8029
-17.8318
-17.8568
-17.8762
-17.8893
-17.8967
-17.9
-17.9003
-17.8986
-17.8955
-17.8914
-17.8867
-17.8813
-17.8748
-17.8666
-17.8563
-17.8462
-17.8378
-17.821
-17.7815
-17.7302
-17.7226
-17.8397
-17.8748
-17.8162
-17.7876
-17.8382
-17.9159
-17.9821
-18.0454
-18.113
-18.1774
-18.2294
-18.2529
-18.2354
-18.182
-18.1137
-18.0321
-17.9555
-17.9064
-17.8678
-17.8396
-17.882
-18.0166
-18.2444
-18.5515
-18.9168
-19.1911
-19.2575
-19.1264
-18.8893
-18.657
-18.4607
-18.2907
-18.1568
-18.0746
-18.0397
-18.1356
-18.1393
-18.1422
-18.1465
-18.1499
-18.1504
-18.1473
-18.141
-18.1325
-18.1235
-18.1152
-18.108
-18.1032
-18.1011
-18.1023
-18.1074
-18.1172
-18.1326
-18.1547
-18.1836
-18.2175
-18.2539
-18.2911
-18.328
-18.3625
-18.3915
-18.4124
-18.4244
-18.4288
-18.4274
-18.4224
-18.4151
-18.4068
-18.3978
-18.3885
-18.379
-18.3693
-18.3589
-18.3483
-18.3386
-18.3302
-18.3163
-18.2957
-18.2607
-18.2753
-18.3249
-18.3342
-18.2577
-18.2166
-18.2714
-18.3712
-18.464
-18.5495
-18.6354
-18.7133
-18.7696
-18.7871
-18.7565
-18.6873
-18.5989
-18.5007
-18.4061
-18.3405
-18.2895
-18.2545
-18.2656
-18.3465
-18.504
-18.7319
-18.9953
-19.204
-19.2784
-19.2119
-19.09
-18.9702
-18.8607
-18.7547
-18.6724
-18.627
-18.6
-18.6297
-18.6314
-18.6328
-18.6348
-18.6361
-18.6357
-18.633
-18.6281
-18.6217
-18.6147
-18.6079
-18.6018
-18.5974
-18.5951
-18.5958
-18.6004
-18.61
-18.6267
-18.6523
-18.6884
-18.7309
-18.7753
-18.8202
-18.8653
-18.9079
-18.9424
-18.9649
-18.9746
-18.9737
-18.965
-18.9519
-18.9369
-18.9216
-18.9065
-18.8919
-18.8783
-18.8659
-18.8539
-18.8424
-18.8325
-18.824
-18.8128
-18.8205
-18.8149
-18.82
-18.8166
-18.7868
-18.6794
-18.6218
-18.6669
-18.7883
-18.9173
-19.0299
-19.1316
-19.2169
-19.271
-19.2793
-19.2365
-19.1525
-19.0484
-18.9383
-18.8394
-18.7677
-18.7153
-18.6759
-18.6621
-18.6968
-18.7891
-18.9388
-19.12
-19.2743
-19.3577
-19.3766
-19.3637
-19.3347
-19.2853
-19.2247
-19.1771
-19.1518
-19.132
-19.1221
-19.1228
-19.1235
-19.1242
-19.1244
-19.1234
-19.1209
-19.1169
-19.1117
-19.106
-19.1002
-19.0948
-19.0906
-19.0879
-19.088
-19.0917
-19.1011
-19.1192
-19.15
-19.1978
-19.2522
-19.3054
-19.3583
-19.4131
-19.4666
-19.5091
-19.5337
-19.5403
-19.532
-19.5134
-19.4893
-19.4639
-19.4395
-19.4168
-19.3963
-19.3784
-19.3635
-19.3506
-19.3391
-19.3292
-19.3223
-19.315
-19.3515
-19.3915
-19.3875
-19.3504
-19.3035
-19.1792
-19.0697
-19.0714
-19.193
-19.35
-19.4852
-19.5944
-19.6783
-19.7249
-19.7214
-19.6666
-19.5736
-19.4636
-19.3552
-19.2638
-19.1991
-19.1533
-19.1137
-19.0863
-19.0919
-19.1404
-19.234
-19.3569
-19.4848
-19.5935
-19.6774
-19.7351
-19.7573
-19.7434
-19.7095
-19.6773
-19.6517
-19.6369
-19.6141
-19.6144
-19.6148
-19.6147
-19.6142
-19.6129
-19.6105
-19.6069
-19.6026
-19.5977
-19.5925
-19.5875
-19.5833
-19.5802
-19.5792
-19.5816
-19.5905
-19.6097
-19.6491
-19.7139
-19.7811
-19.8388
-19.8966
-19.9625
-20.0308
-20.0841
-20.112
-20.1157
-20.0995
-20.0692
-20.0321
-19.9942
-19.9591
-19.9277
-19.9005
-19.8781
-19.8607
-19.8475
-19.8372
-19.8292
-19.8256
-19.8229
-19.8777
-19.9712
-19.9668
-19.8928
-19.8622
-19.7573
-19.6065
-19.5677
-19.6539
-19.8067
-19.9357
-20.0261
-20.0898
-20.1196
-20.1033
-20.0434
-19.9546
-19.8553
-19.763
-19.6906
-19.6431
-19.6076
-19.5725
-19.5422
-19.5358
-19.5624
-19.6276
-19.7237
-19.8405
-19.9682
-20.0885
-20.1804
-20.2287
-20.2305
-20.2008
-20.1635
-20.1375
-20.123
-20.1064
-20.1065
-20.1065
-20.106
-20.1051
-20.1036
-20.1012
-20.098
-20.0942
-20.0898
-20.0851
-20.0805
-20.0761
-20.0725
-20.0704
-20.0714
-20.0787
-20.0987
-20.1519
-20.2374
-20.3123
-20.3651
-20.4248
-20.5056
-20.5943
-20.6611
-20.6923
-20.6928
-20.6687
-20.6261
-20.5749
-20.524
-20.4777
-20.4372
-20.4032
-20.376
-20.3559
-20.3424
-20.3339
-20.3293
-20.33
-20.3313
-20.385
-20.5029
-20.5082
-20.4292
-20.3917
-20.3299
-20.2227
-20.1588
-20.2078
-20.3296
-20.4152
-20.4494
-20.4654
-20.4656
-20.4388
-20.3869
-20.3173
-20.2446
-20.1794
-20.1331
-20.1038
-20.0795
-20.0523
-20.0262
-20.0193
-20.0379
-20.0905
-20.1758
-20.2889
-20.4226
-20.5559
-20.6619
-20.7175
-20.7154
-20.6755
-20.6323
-20.6104
-20.5983
-20.599
-20.5991
-20.5987
-20.598
-20.5969
-20.5953
-20.593
-20.5901
-20.5866
-20.5827
-20.5784
-20.5741
-20.5698
-20.5659
-20.5632
-20.5628
-20.5681
-20.5932
-20.6709
-20.7671
-20.8372
-20.8782
-20.9459
-21.049
-21.1558
-21.236
-21.2702
-21.2668
-21.2342
-21.1778
-21.1122
-21.0488
-20.9921
-20.9436
-20.9034
-20.8714
-20.8481
-20.8324
-20.8243
-20.824
-20.8279
-20.8301
-20.8615
-20.957
-20.9817
-20.9289
-20.8865
-20.8476
-20.8062
-20.7932
-20.8415
-20.9099
-20.9276
-20.8922
-20.8469
-20.809
-20.7734
-20.7346
-20.6946
-20.6537
-20.6187
-20.5956
-20.581
-20.5668
-20.5494
-20.531
-20.5285
-20.5492
-20.5967
-20.6731
-20.7775
-20.9055
-21.0365
-21.1382
-21.1847
-21.175
-21.1285
-21.091
-21.0724
-21.0644
-21.0921
-21.0921
-21.0915
-21.0907
-21.0895
-21.0878
-21.0856
-21.0829
-21.0798
-21.0763
-21.0726
-21.0687
-21.0649
-21.0614
-21.059
-21.0582
-21.0636
-21.1084
-21.2082
-21.2962
-21.3508
-21.3864
-21.4688
-21.5885