/*--------------------------------*- C++ -*----------------------------------*\
| =========                 |                                                 |
| \\      /  F ield         | OpenFOAM: The Open Source CFD Toolbox           |
|  \\    /   O peration     | Version:  2412                                  |
|   \\  /    A nd           | Website:  www.openfoam.com                      |
|    \\/     M anipulation  |                                                 |
\*---------------------------------------------------------------------------*/
FoamFile
{
    version     2.0;
    format      ascii;
    arch        "LSB;label=32;scalar=64";
    class       volScalarField;
    location    "100";
    object      p;
}
// * * * * * * * * * * * * * * * * * * * * * * * * * * * * * * * * * * * * * //

dimensions      [1 -1 -2 0 0 0 0];

internalField   nonuniform List<scalar> 
6400
(
21561.2
21558.6
21584.9
21639.7
21723.1
21827.5
21942
22058.2
22171.5
22280.5
22384.5
22479.3
22562.1
22631.4
22690.4
22740.3
22782.1
22816.9
22844
22853
22849
22843.4
22846.4
22854.6
22847.6
22802.3
22742.2
22692
22648.7
22596.8
22532.7
22470.3
22419.6
22377.2
22331.5
22253.3
22174.4
22113.1
22040.8
21980.8
21953.8
21943.1
21920.8
21894.3
21892.6
21912
21938.9
21978.6
22046.1
22134.8
22242.5
22366.2
22507.2
22658.5
22818.5
22984
23156.5
23328.1
23498.3
23662.4
23824.5
23978.1
24124.9
24257.9
24378.4
24477.2
24557.8
24621.5
24677.5
24724.2
24765.3
24799
24830.4
24856.5
24879.3
24894.5
24904.4
24908.8
24907.1
24898
20342.3
20340.5
20362
20411.5
20480.4
20564.1
20656.8
20753.1
20846.6
20937.4
21023.7
21104.7
21176.4
21238.1
21291
21336.8
21375.8
21410.4
21437.5
21454.3
21461.7
21470.5
21484.4
21497
21491.1
21461.5
21421.5
21392
21370.8
21342.9
21298.7
21247
21200.2
21171.9
21156.7
21117.4
21055.1
20999.4
20954.9
20923.7
20905.7
20903.6
20903.4
20895.1
20891.9
20913
20945.5
20994.1
21061.2
21146.7
21247.6
21368.6
21501.3
21643.9
21789.5
21946.8
22104.3
22262
22413.3
22564.8
22710.2
22854.9
22988.7
23113.6
23217.7
23306.5
23375.4
23433.7
23480.7
23524.3
23559.5
23591.9
23616.6
23639.1
23656.4
23671.7
23680.8
23683.4
23673.9
23656.6
19065.3
19071.6
19092.5
19136.2
19195.1
19264.6
19340.7
19417.5
19492.5
19567.2
19639.9
19706.8
19767.8
19822.9
19874.8
19919.3
19957.8
19990.1
20018.1
20042.1
20066.3
20092.9
20114.7
20120.7
20119.1
20116.4
20106.7
20093.4
20085.6
20076.3
20062.3
20034.2
20000.3
19976.7
19972.7
19971
19947.4
19912.3
19896.9
19888.1
19872
19860.6
19883.4
19905.2
19907.7
19915.9
19951
20007.5
20073.7
20149.5
20251.4
20368.3
20494.8
20620.5
20759.5
20905.5
21054.4
21193.6
21332.9
21468.1
21607.3
21740.3
21866.2
21973.6
22067
22141
22205.2
22252.2
22292.6
22325.4
22357.3
22382.2
22403.7
22418.6
22432.1
22442.2
22449.9
22451.5
22440.3
22417.2
17726
17748
17777.1
17820.5
17875
17937.4
18003.7
18069.5
18133.4
18198.6
18261.4
18318.3
18373.9
18431
18482.6
18525.7
18562.4
18595.8
18627.3
18664.1
18704.2
18742.5
18763.4
18769.2
18772.6
18788.5
18811
18822.2
18820
18817.6
18823.9
18827.8
18818.5
18806.8
18800.4
18818.2
18837.1
18843.1
18853.6
18849.8
18819.8
18796.4
18818.8
18874.7
18899.7
18911.5
18944
18999.4
19063.3
19141.1
19234.7
19343.8
19459.8
19584.9
19715
19852.8
19990.2
20127.3
20257
20387.2
20514.8
20638.5
20747.8
20846.1
20927
20993.5
21044.4
21085.7
21115.2
21142.5
21165
21185.7
21199.6
21210.3
21217.5
21224.2
21227.6
21227.7
21216.4
21192.3
16324.5
16366.7
16411.3
16461.4
16517.8
16577.8
16640.4
16701.7
16761.8
16820.4
16876.6
16929.3
16989.1
17048.6
17099.6
17139.4
17178.6
17218.5
17262.8
17310.4
17358.3
17397.6
17423.7
17438
17451.1
17473.5
17512
17547.6
17571.6
17575.8
17585.6
17613
17641
17656.5
17665.8
17693.5
17733.5
17751.5
17760.4
17761.4
17756.1
17747
17766.6
17814.3
17857.9
17891
17934.2
17984.5
18052.2
18131.7
18219.8
18316.3
18427.7
18550.6
18683.2
18810.3
18940.4
19069.6
19196.6
19315.1
19431.7
19538
19636.2
19718.7
19793.2
19849.5
19891.5
19919.7
19943.8
19960
19976.1
19988.4
19999
20004.9
20010.7
20015.3
20018.5
20018.2
20007.1
19987.8
14881.1
14942.9
15005.7
15067.2
15131.1
15194.5
15258.1
15319.9
15378.3
15435.1
15493.6
15552.6
15613.9
15672.1
15720.7
15760.7
15807.5
15864.6
15920.2
15971.8
16017.9
16058.8
16094.4
16126.4
16153.4
16183.3
16222.8
16274.3
16323
16348.9
16366.8
16411.7
16465.2
16510.6
16541.3
16578.6
16607.1
16623.3
16639.6
16664.8
16698.5
16725.4
16738.4
16765.4
16815.9
16870
16922.1
16981.4
17050.1
17131.9
17218
17318.3
17425.3
17547.1
17673.5
17797.8
17917.1
18036.5
18151.1
18258.8
18352.6
18447.6
18534.2
18607.6
18664.6
18714.6
18746.8
18769.6
18782.1
18790.9
18795.2
18800.7
18804.1
18807.2
18810.1
18815.6
18820.9
18822.4
18815.8
18805.6
13395.4
13478.1
13563.2
13640.9
13716.3
13787.3
13856.5
13921.6
13980.9
14039.8
14108.2
14174.8
14235.8
14292.9
14339.6
14387.3
14449.6
14513.9
14571.5
14625.9
14677.5
14723.3
14772.4
14822.8
14863.4
14895.3
14941.9
15007.7
15072.6
15125.1
15168.8
15226.3
15295.5
15354.1
15389.4
15426.3
15463.3
15505.3
15558.1
15603.9
15649.5
15689.9
15710.7
15739.9
15798.6
15859.1
15921
15985.4
16059.7
16141
16234
16336.7
16444.8
16552.1
16666.9
16785.7
16903.6
17007.5
17108.7
17202.6
17285.4
17356.5
17431.8
17495
17542.9
17577.1
17604.4
17619.2
17625.7
17623.6
17620.2
17616
17614.6
17614
17616.6
17624.1
17633.8
17641.3
17642.7
17646.8
11878
11984.4
12095.6
12193.4
12283.9
12367.9
12448.3
12521.8
12586.6
12653.2
12725.4
12795.1
12853.6
12912.1
12968.4
13033.4
13100.4
13155.5
13207.2
13269.4
13334.6
13396.3
13457.8
13520
13571.8
13614.9
13667.8
13750.4
13829.2
13902.1
13976.6
14055
14129
14189.1
14235.3
14275.6
14336.3
14426.6
14503.4
14556.8
14601.4
14648.6
14689.8
14739.8
14800.2
14865.6
14930.2
15002.1
15078.7
15164.6
15257.3
15363.3
15469.5
15564.5
15658.8
15773.1
15886.9
15987.2
16062.5
16140.7
16216.5
16279.8
16331.9
16384.3
16422.4
16448.8
16463.7
16472.2
16469.5
16461.2
16448.1
16437.4
16429.8
16427.5
16430.5
16441.2
16458.1
16474.6
16491.7
16508.9
10341
10475.9
10616.4
10737
10847.3
10951.6
11049.8
11137.1
11215.2
11292.2
11364.1
11428.2
11486.5
11550.5
11625.2
11699.1
11761.8
11807
11853.3
11921.3
12001.5
12074.7
12148.1
12216.3
12280.2
12354.1
12438
12527.8
12606.2
12692.7
12802.1
12890.3
12960.8
13036.5
13115.6
13172.7
13242
13353.1
13456
13515.5
13560.7
13615.4
13680.1
13743.8
13811.3
13879.1
13951.2
14025.3
14107.8
14193.9
14288.5
14387.9
14494.1
14584.8
14667.2
14760.5
14866.3
14962.9
15029.7
15079.2
15141.6
15200.8
15245.3
15279.3
15309.9
15327.1
15334.4
15330.3
15319.6
15301.7
15282.6
15264.8
15253.6
15249.7
15254.5
15269.5
15294.3
15325.7
15360.8
15394.8
8793.16
8960.95
9134.02
9279.94
9414.96
9542.88
9659.84
9763.52
9855.15
9940.48
10017.7
10085.6
10150.8
10219
10296
10373.5
10433.4
10486.9
10549.5
10622.9
10701.4
10776.3
10847.8
10921.2
11004.1
11116.8
11242.7
11335
11405.2
11509.2
11642.9
11743.1
11817.5
11907
12006.7
12098.3
12189.4
12292.2
12387.5
12459.5
12513.2
12588.6
12674.1
12753.8
12824.2
12897.5
12971.1
13050.9
13134.3
13223.6
13313.1
13407.9
13504.2
13601.7
13679.7
13752.5
13832.3
13921.2
13988.7
14030.4
14065.3
14114.3
14153
14181.1
14199.4
14210.6
14207.5
14194.7
14172.9
14148.1
14121.9
14099.9
14085.5
14081.7
14089.9
14110
14145.9
14192.9
14252.2
14304.8
7242.12
7446.84
7655.3
7831.27
7995.84
8142.64
8272.63
8386.44
8489.51
8585.16
8673.97
8751.86
8825.28
8899.68
8974.74
9047.09
9113.98
9190.52
9277.43
9357.14
9428.22
9502.07
9575.77
9657.02
9762.73
9889.25
10020.4
10127.1
10222.4
10335.8
10467.7
10591.4
10701.8
10796
10897.5
11014.4
11129.7
11218.7
11303.9
11391.5
11472.6
11566.4
11677.2
11766.8
11841.5
11915.1
11990.3
12068.3
12156.4
12243.9
12330.3
12413
12504.4
12595.1
12679.1
12741.2
12797.5
12860.2
12933.6
12977.2
13002.4
13028.8
13058.7
13078.4
13090.2
13090.6
13080.5
13057.8
13029
12996.3
12965.2
12938.9
12922.6
12920.2
12932.6
12960.8
13007.7
13074.6
13157.2
13239.5
5690.39
5937.99
6189.95
6403.69
6592.54
6753.68
6894.93
7018.67
7130.32
7232.94
7327.09
7413.51
7496.09
7578.56
7652.4
7720.86
7793.11
7873.57
7963.93
8053.86
8130.13
8212.72
8305.56
8406.74
8522.13
8641.91
8758.84
8885.41
9021.86
9157.84
9285.16
9419.13
9555.31
9678.04
9793.15
9917.45
10028.6
10117.7
10221.8
10350.6
10465
10555.8
10654.8
10763.9
10858.4
10935
11004.9
11086.4
11175.5
11263.3
11341.7
11421.9
11508.2
11596.2
11670.6
11733.8
11780
11823.3
11873.1
11917.4
11941.7
11956.3
11967.6
11976.7
11976.4
11969
11950
11921.4
11884.4
11845.5
11808.6
11778.4
11760.3
11758.2
11775.9
11811.6
11873.1
11957.9
12070
12186.3
4131.82
4431.41
4739.03
4990.55
5193.95
5370.07
5520.77
5649.97
5764.35
5867.89
5962.47
6050.18
6133.74
6213.49
6289.57
6361.15
6434.14
6513.97
6600.06
6688.98
6781.44
6879.94
6991.54
7112.5
7238.11
7366.58
7499.25
7640.41
7799.3
7959.75
8105.76
8246.42
8390.68
8533.94
8675.04
8804.35
8922.26
9031.78
9161.84
9310.42
9443.36
9535.43
9623.66
9735.21
9852.44
9952.01
10039.9
10120.5
10209.8
10300
10385.4
10458.4
10529.3
10602.2
10674.8
10732
10777.7
10806.1
10829.8
10853.8
10874.4
10879.9
10880.1
10874.2
10864
10846.2
10820.8
10784.4
10740.6
10694.2
10651
10615.9
10593.6
10591.2
10611.2
10656.4
10729.9
10836.9
10980
11136.7
2555.36
2915.71
3279.37
3561.05
3783.2
3966.91
4119.81
4248.32
4359.43
4458.76
4549.47
4634.6
4715.27
4793.02
4871.11
4950.95
5033.01
5119.05
5209.99
5309.27
5418.74
5535.45
5659.45
5795.16
5940.67
6093.63
6250.71
6411.39
6577.67
6748.22
6914.27
7076.32
7234.04
7389.62
7541.18
7684.55
7819.73
7956.21
8098.82
8244.68
8374.59
8485.04
8591.08
8709.65
8828.45
8949.15
9057.79
9148.73
9233.75
9327.35
9413.33
9483
9536.21
9595.23
9654.99
9707.19
9743.11
9765.66
9774.8
9785.92
9793.97
9796.02
9788.66
9775.55
9754.62
9728.25
9693.56
9650.11
9598.42
9543.87
9493.14
9450.43
9422.41
9414.76
9436.04
9485.97
9572.86
9700.47
9884.49
10079
965.419
1401.68
1822.36
2131.93
2371.79
2560.18
2709.34
2832.23
2937.96
3033.55
3122.79
3207.94
3290.09
3371.69
3455.7
3543.36
3636.94
3736.72
3842.29
3953.93
4075.21
4206.54
4346.65
4495.58
4654.4
4821.3
4996.07
5175.42
5358.61
5542.15
5723.86
5901.3
6075.19
6243.44
6407.53
6564
6716.18
6864.9
7013.92
7157.54
7293.19
7417.76
7541.22
7663.87
7787.24
7908.64
8022.13
8116.82
8207.02
8295.79
8377.08
8438
8489.74
8540.59
8593.21
8635.01
8667.95
8688.39
8700.77
8706.92
8711.57
8709.61
8701.57
8683.07
8655.46
8618.87
8575.11
8522.82
8462.15
8397.65
8335.19
8282.11
8242.25
8226.41
8241.09
8294.08
8388.52
8542.22
8766.67
9008.39
-611.741
-79.3488
418.512
765.029
1011.89
1195.18
1334.68
1446.47
1543.05
1632.05
1718.08
1803.41
1889.01
1975.06
2064.06
2157.76
2257.03
2363.35
2477.26
2599.45
2731.3
2873.79
3026.22
3188.92
3361.44
3544.03
3734.45
3931.16
4130.72
4331.11
4528.53
4723.06
4912.39
5096.72
5274.01
5445.53
5609.73
5769.81
5923.86
6073.3
6213.71
6348.21
6476.45
6603.11
6724.54
6843.9
6952.56
7051.46
7141.01
7227.4
7301.01
7363.02
7413.94
7463.75
7508.6
7549.8
7582.55
7609.68
7626.23
7636.34
7638.61
7635.74
7624.17
7602.78
7568.87
7524.59
7471.19
7408.89
7338
7260.46
7184.01
7113.66
7057.83
7023.72
7026.06
7070.54
7170.96
7345.49
7615.86
7911.38
-2194.74
-1522.71
-918.42
-537.273
-293.665
-128.82
-13.3002
75.6014
153.128
228.305
304.825
384.83
468.645
556.566
649.103
747.519
852.581
965.967
1088.73
1221.7
1365.74
1521.33
1688.55
1866.77
2055.62
2254.75
2462.72
2676.72
2894.62
3112.25
3327.72
3538.76
3746.05
3946.1
4139.87
4325.21
4503.73
4673.71
4837.66
4993
5141.6
5280.75
5414.77
5541.65
5664.85
5780.26
5889.28
5986.91
6078.28
6159.82
6233.26
6293.77
6347.82
6394.69
6439.62
6478.8
6515.41
6544.95
6567.9
6579.6
6582.58
6576.02
6562.38
6538.88
6504.95
6460.55
6405.6
6340.81
6263.37
6175.37
6079.26
5986.17
5901.97
5840.74
5813.29
5838.17
5927.57
6115.85
6429.68
6796.66
-3838.88
-2822.96
-2050.54
-1634.02
-1387.94
-1229.85
-1121.01
-1038.12
-964.821
-893.61
-821.092
-746.47
-668.863
-588.535
-504.691
-416.598
-322.647
-221.341
-110.805
9.96674
142.28
287.253
445.722
617.966
803.521
1001.29
1211.88
1434.03
1663.99
1897.49
2128.2
2354.82
2577.04
2793.39
3001.75
3203.36
3394.96
3578.36
3751.21
3916.46
4071.38
4218.63
4356.02
4487.64
4610.84
4728.51
4835.99
4936.02
5025.22
5107.55
5178.59
5242.07
5295.76
5345.37
5388.65
5429.49
5464.75
5496.95
5521.17
5537.29
5543.2
5542.61
5537.02
5525.62
5505.18
5475.43
5434.32
5372.54
5284.85
5167.42
5028.21
4884.53
4755.69
4650.73
4587.23
4577.98
4646.29
4827.15
5205.33
5713.35
-4884.71
-3046.43
-2076.74
-1638.4
-1369.86
-1183.05
-1047.09
-941.419
-855.727
-784.72
-725.346
-674.796
-630.99
-591.829
-555.862
-521.539
-487.46
-452.018
-413.722
-370.893
-321.882
-264.402
-195.871
-113.274
-14.7196
101.688
240.105
403.406
592.342
800.815
1017.33
1232.72
1448.71
1662.88
1877.02
2087.07
2289.8
2482.08
2665.06
2837.56
3002.21
3155.53
3300.58
3435.01
3563.18
3681.53
3792.67
3892.17
3983.44
4063.23
4135.49
4197.25
4253.53
4302.56
4348.69
4389.25
4427.3
4461.12
4492.65
4518.77
4541.75
4562.89
4582.47
4584.12
4548.66
4465.7
4329.25
4126.05
3864.25
3583.31
3316.41
3093.35
2925.57
2817.48
2767.67
2786.33
2880.23
3094.2
3579.42
4466.46
-2491.45
-1056.6
-606.691
-422.769
-306.629
-230.533
-178.508
-141.494
-115.053
-96.5816
-84.0798
-75.9906
-71.1907
-68.5439
-67.4355
-67.516
-68.387
-69.9124
-71.7938
-73.6122
-74.8498
-74.8164
-72.5243
-66.7524
-55.7963
-37.3822
-8.58678
34.0952
92.0109
164.417
257.579
367.695
496.358
655.872
844.989
1042.51
1233.38
1419.51
1595.35
1769.09
1936.38
2096.25
2244.96
2385.16
2515.38
2638.7
2750.95
2854.46
2945.14
3027.1
3097.67
3161.43
3216.96
3269.87
3318.79
3367.38
3412.72
3458.86
3501.98
3534.22
3538.04
3502.66
3414.72
3218.67
2889.31
2495.74
2089.53
1699.88
1348.85
1072.36
881.163
749.446
671.686
637.527
642.373
685.726
769.025
909.39
1199.57
1990.75
-10.0347
-10.0349
-10.0349
-10.0349
-10.0354
-10.0358
-10.0359
-10.0358
-10.0361
-10.0366
-10.0359
-10.0368
-10.037
-10.0369
-10.0389
-10.0403
-10.0411
-10.0415
-10.0425
-10.0439
-10.0454
-10.0468
-10.0466
-10.0462
-10.0462
-10.0463
-10.0467
-10.0468
-10.0474
-10.0232
-0.816312
21.5486
58.2133
119.057
203.285
296.204
393.68
500.391
629.921
776.771
928.344
1074.48
1216.73
1348.62
1478.7
1601.38
1717.72
1822.36
1917.31
2000.3
2075.94
2141.76
2203.18
2259.95
2315.67
2362.9
2393.67
2402.53
2369.32
2253.22
2039.56
1751.66
1402.35
1012.72
651.657
381.188
180.944
71.1915
12.3735
-9.87179
-10.0686
-10.0701
-10.0712
-10.0719
-10.0725
-10.0729
-8.25307
-1.58713
3.66788
61.4663
-10.525
-10.5254
-10.5245
-10.5225
-10.5213
-10.5207
-10.5204
-10.5206
-10.5221
-10.5249
-10.5262
-10.5264
-10.5253
-10.5257
-10.529
-10.5313
-10.5316
-10.5318
-10.5323
-10.5332
-10.5346
-10.536
-10.5363
-10.5364
-10.5366
-10.5368
-10.5372
-10.5376
-10.5379
-10.5377
-10.5383
-10.5394
-10.538
-10.3514
-7.08133
5.39617
29.8945
65.5234
115.392
169.328
224.925
286.35
355.089
439.368
535.388
639.688
741.503
839.138
925.657
1005.97
1077.92
1140.7
1189.92
1224.42
1232.96
1210.62
1150.48
1038.71
866.616
644.084
427.065
239.557
87.0821
-3.25623
-10.5567
-10.5605
-10.5627
-10.564
-10.5648
-10.5652
-10.5653
-10.5655
-10.5656
-10.5658
-10.5659
-10.566
-10.566
-10.566
-10.5662
-10.5647
-11.015
-11.0154
-11.0154
-11.0154
-11.0157
-11.0159
-11.0161
-11.0162
-11.0166
-11.0174
-11.0177
-11.018
-11.0179
-11.0189
-11.0207
-11.0217
-11.022
-11.0219
-11.0218
-11.0217
-11.0221
-11.0238
-11.0253
-11.0264
-11.027
-11.0274
-11.0278
-11.0287
-11.0293
-11.029
-11.0279
-11.0286
-11.0296
-11.0318
-11.0327
-11.0333
-11.0336
-11.0343
-11.5513
-11.4902
-5.42545
7.37131
25.536
50.4842
78.1112
108.621
144.832
185.457
227.246
269.009
309.354
338.889
352.383
342.382
303.468
245.374
176.496
100.796
31.1602
-9.35924
-11.0468
-11.05
-11.0522
-11.0537
-11.0542
-11.0545
-11.0548
-11.0552
-11.0555
-11.0557
-11.0559
-11.056
-11.0562
-11.0563
-11.0564
-11.0565
-11.0565
-11.0565
-11.0566
-11.0564
-11.5059
-11.5061
-11.5063
-11.5064
-11.5066
-11.5068
-11.507
-11.5073
-11.5076
-11.508
-11.5082
-11.5083
-11.5087
-11.5098
-11.5112
-11.5115
-11.5123
-11.513
-11.5134
-11.5134
-11.5133
-11.5139
-11.5152
-11.5165
-11.5174
-11.5178
-11.5182
-11.5191
-11.5195
-11.5196
-11.5204
-11.521
-11.5228
-11.5233
-11.5236
-11.5238
-11.5241
-11.5246
-11.525
-11.5257
-11.5266
-11.5275
-11.5287
-12.2826
-15.8101
-18.6246
-18.4747
-15.3573
-10.6913
-5.59076
-1.32297
0.090523
-2.10525
-6.90061
-11.2185
-11.536
-11.5377
-11.5393
-11.541
-11.5421
-11.5427
-11.5432
-11.5438
-11.5444
-11.5447
-11.545
-11.5453
-11.5456
-11.5459
-11.5462
-11.5464
-11.5465
-11.5466
-11.5468
-11.5469
-11.547
-11.547
-11.5471
-11.5471
-11.5471
-11.9966
-11.9967
-11.9968
-11.9969
-11.9971
-11.9973
-11.9975
-11.9978
-11.9981
-11.9984
-11.9987
-11.999
-11.9994
-12.0005
-12.0016
-12.0018
-12.0021
-12.003
-12.0038
-12.0043
-12.0044
-12.0048
-12.0058
-12.007
-12.0077
-12.0082
-12.0088
-12.0094
-12.0099
-12.0104
-12.0109
-12.0113
-12.0127
-12.0136
-12.0141
-12.0144
-12.0147
-12.0151
-12.0155
-12.0161
-12.017
-12.0176
-12.0182
-12.0188
-12.0198
-12.0209
-12.022
-12.0229
-12.0239
-12.0247
-12.0254
-12.0262
-12.027
-12.028
-12.0289
-12.0296
-12.0304
-12.0312
-12.032
-12.0327
-12.0332
-12.0337
-12.0342
-12.0347
-12.0351
-12.0355
-12.0358
-12.0361
-12.0364
-12.0366
-12.0368
-12.037
-12.0371
-12.0373
-12.0374
-12.0374
-12.0375
-12.0376
-12.0376
-12.0376
-12.4872
-12.4872
-12.4873
-12.4875
-12.4876
-12.4878
-12.488
-12.4883
-12.4886
-12.4889
-12.4893
-12.4897
-12.4902
-12.491
-12.4918
-12.4925
-12.4927
-12.4932
-12.4939
-12.4947
-12.4952
-12.4957
-12.4964
-12.4972
-12.4981
-12.4987
-12.4993
-12.4999
-12.5005
-12.501
-12.5016
-12.5023
-12.5031
-12.5038
-12.5044
-12.5048
-12.5053
-12.5057
-12.5063
-12.5069
-12.5075
-12.5081
-12.5086
-12.5093
-12.5102
-12.5112
-12.5121
-12.513
-12.5139
-12.5148
-12.5156
-12.5166
-12.5175
-12.5186
-12.5194
-12.5202
-12.5209
-12.5217
-12.5223
-12.523
-12.5236
-12.5241
-12.5246
-12.5251
-12.5255
-12.5259
-12.5262
-12.5265
-12.5268
-12.5271
-12.5273
-12.5275
-12.5276
-12.5277
-12.5278
-12.5279
-12.528
-12.5281
-12.5281
-12.5281
-12.9778
-12.9778
-12.9779
-12.978
-12.9782
-12.9784
-12.9786
-12.9789
-12.9792
-12.9795
-12.9799
-12.9803
-12.9808
-12.9813
-12.982
-12.9829
-12.9834
-12.9839
-12.9843
-12.985
-12.9857
-12.9864
-12.9871
-12.9877
-12.9885
-12.9892
-12.9898
-12.9904
-12.991
-12.9916
-12.9922
-12.9929
-12.9936
-12.9942
-12.9948
-12.9953
-12.9958
-12.9963
-12.9969
-12.9975
-12.9981
-12.9987
-12.9994
-13.0001
-13.0009
-13.0017
-13.0026
-13.0035
-13.0044
-13.0052
-13.0061
-13.007
-13.0079
-13.0088
-13.0097
-13.0105
-13.0113
-13.012
-13.0127
-13.0133
-13.0139
-13.0145
-13.015
-13.0155
-13.0159
-13.0163
-13.0167
-13.017
-13.0173
-13.0175
-13.0177
-13.0179
-13.0181
-13.0182
-13.0183
-13.0184
-13.0185
-13.0185
-13.0186
-13.0186
-13.4684
-13.4684
-13.4685
-13.4686
-13.4687
-13.4689
-13.4692
-13.4694
-13.4697
-13.4701
-13.4705
-13.471
-13.4715
-13.472
-13.4725
-13.4732
-13.4738
-13.4744
-13.4749
-13.4755
-13.4762
-13.4769
-13.4776
-13.4783
-13.479
-13.4797
-13.4803
-13.481
-13.4816
-13.4822
-13.4828
-13.4835
-13.4841
-13.4847
-13.4853
-13.4858
-13.4864
-13.4869
-13.4875
-13.4881
-13.4887
-13.4893
-13.49
-13.4907
-13.4915
-13.4923
-13.4931
-13.494
-13.4948
-13.4957
-13.4966
-13.4975
-13.4983
-13.4992
-13.5001
-13.5009
-13.5017
-13.5024
-13.5031
-13.5037
-13.5043
-13.5049
-13.5054
-13.5059
-13.5063
-13.5067
-13.5071
-13.5074
-13.5077
-13.508
-13.5082
-13.5084
-13.5085
-13.5087
-13.5088
-13.5089
-13.509
-13.509
-13.509
-13.509
-13.959
-13.959
-13.9591
-13.9592
-13.9594
-13.9595
-13.9598
-13.96
-13.9603
-13.9607
-13.9611
-13.9615
-13.9621
-13.9626
-13.9631
-13.9636
-13.9642
-13.9649
-13.9655
-13.9661
-13.9667
-13.9674
-13.9681
-13.9688
-13.9695
-13.9702
-13.9708
-13.9715
-13.9721
-13.9728
-13.9734
-13.974
-13.9746
-13.9752
-13.9758
-13.9763
-13.9769
-13.9775
-13.978
-13.9786
-13.9793
-13.9799
-13.9806
-13.9813
-13.9821
-13.9829
-13.9837
-13.9845
-13.9854
-13.9862
-13.987
-13.9879
-13.9888
-13.9896
-13.9905
-13.9913
-13.992
-13.9928
-13.9935
-13.9941
-13.9947
-13.9953
-13.9958
-13.9963
-13.9968
-13.9972
-13.9975
-13.9979
-13.9981
-13.9984
-13.9986
-13.9988
-13.999
-13.9991
-13.9993
-13.9993
-13.9994
-13.9995
-13.9995
-13.9995
-14.4496
-14.4497
-14.4497
-14.4498
-14.45
-14.4502
-14.4504
-14.4507
-14.451
-14.4513
-14.4517
-14.4521
-14.4526
-14.4532
-14.4537
-14.4542
-14.4548
-14.4554
-14.456
-14.4566
-14.4573
-14.4579
-14.4586
-14.4593
-14.46
-14.4607
-14.4614
-14.462
-14.4627
-14.4633
-14.4639
-14.4645
-14.4651
-14.4657
-14.4663
-14.4668
-14.4674
-14.468
-14.4686
-14.4692
-14.4698
-14.4705
-14.4712
-14.4719
-14.4727
-14.4734
-14.4743
-14.4751
-14.4759
-14.4768
-14.4776
-14.4784
-14.4792
-14.4801
-14.4809
-14.4817
-14.4824
-14.4832
-14.4839
-14.4845
-14.4851
-14.4857
-14.4862
-14.4867
-14.4872
-14.4876
-14.4879
-14.4883
-14.4886
-14.4888
-14.4891
-14.4893
-14.4894
-14.4896
-14.4897
-14.4898
-14.4899
-14.4899
-14.4899
-14.4899
-14.9403
-14.9403
-14.9404
-14.9405
-14.9406
-14.9408
-14.9411
-14.9413
-14.9416
-14.942
-14.9424
-14.9428
-14.9432
-14.9437
-14.9443
-14.9448
-14.9454
-14.9459
-14.9466
-14.9472
-14.9478
-14.9485
-14.9492
-14.9498
-14.9505
-14.9512
-14.9519
-14.9525
-14.9532
-14.9538
-14.9544
-14.955
-14.9556
-14.9562
-14.9568
-14.9573
-14.9579
-14.9585
-14.9591
-14.9597
-14.9604
-14.9611
-14.9618
-14.9625
-14.9632
-14.964
-14.9648
-14.9656
-14.9665
-14.9673
-14.9681
-14.9689
-14.9697
-14.9705
-14.9713
-14.9721
-14.9728
-14.9736
-14.9743
-14.9749
-14.9755
-14.9761
-14.9766
-14.9771
-14.9776
-14.978
-14.9784
-14.9787
-14.979
-14.9793
-14.9795
-14.9797
-14.9799
-14.98
-14.9801
-14.9802
-14.9803
-14.9803
-14.9804
-14.9804
-15.431
-15.431
-15.4311
-15.4312
-15.4313
-15.4315
-15.4317
-15.432
-15.4323
-15.4326
-15.433
-15.4334
-15.4338
-15.4343
-15.4349
-15.4354
-15.4359
-15.4365
-15.4371
-15.4378
-15.4384
-15.439
-15.4397
-15.4404
-15.441
-15.4417
-15.4424
-15.443
-15.4437
-15.4443
-15.4449
-15.4455
-15.4461
-15.4467
-15.4472
-15.4478
-15.4483
-15.4489
-15.4495
-15.4502
-15.4509
-15.4517
-15.4524
-15.4531
-15.4538
-15.4546
-15.4554
-15.4562
-15.457
-15.4578
-15.4586
-15.4594
-15.4602
-15.461
-15.4617
-15.4625
-15.4633
-15.464
-15.4647
-15.4653
-15.4659
-15.4665
-15.467
-15.4675
-15.468
-15.4684
-15.4688
-15.4691
-15.4694
-15.4697
-15.4699
-15.4701
-15.4703
-15.4704
-15.4706
-15.4706
-15.4707
-15.4708
-15.4708
-15.4708
-15.9217
-15.9217
-15.9218
-15.9219
-15.922
-15.9222
-15.9224
-15.9227
-15.923
-15.9233
-15.9236
-15.9241
-15.9245
-15.9249
-15.9255
-15.926
-15.9265
-15.9271
-15.9277
-15.9283
-15.9289
-15.9296
-15.9302
-15.9309
-15.9316
-15.9322
-15.9329
-15.9335
-15.9342
-15.9348
-15.9354
-15.936
-15.9366
-15.9371
-15.9377
-15.9382
-15.9387
-15.9394
-15.94
-15.9407
-15.9415
-15.9422
-15.943
-15.9438
-15.9445
-15.9452
-15.946
-15.9468
-15.9476
-15.9484
-15.9491
-15.9499
-15.9507
-15.9514
-15.9522
-15.9529
-15.9537
-15.9544
-15.9551
-15.9557
-15.9563
-15.9569
-15.9574
-15.9579
-15.9584
-15.9588
-15.9592
-15.9595
-15.9598
-15.9601
-15.9603
-15.9605
-15.9607
-15.9608
-15.961
-15.9611
-15.9611
-15.9612
-15.9612
-15.9612
-16.4124
-16.4124
-16.4125
-16.4126
-16.4127
-16.4129
-16.4131
-16.4134
-16.4137
-16.414
-16.4143
-16.4147
-16.4152
-16.4156
-16.4161
-16.4166
-16.4171
-16.4177
-16.4183
-16.4189
-16.4195
-16.4201
-16.4208
-16.4214
-16.4221
-16.4227
-16.4234
-16.424
-16.4247
-16.4253
-16.4259
-16.4265
-16.4271
-16.4276
-16.4281
-16.4286
-16.4292
-16.4298
-16.4305
-16.4313
-16.4321
-16.4329
-16.4337
-16.4345
-16.4352
-16.4359
-16.4366
-16.4374
-16.4382
-16.4389
-16.4397
-16.4404
-16.4412
-16.4419
-16.4426
-16.4434
-16.4441
-16.4448
-16.4455
-16.4461
-16.4467
-16.4473
-16.4478
-16.4483
-16.4488
-16.4492
-16.4496
-16.4499
-16.4502
-16.4505
-16.4507
-16.4509
-16.4511
-16.4512
-16.4514
-16.4515
-16.4515
-16.4516
-16.4516
-16.4516
-16.9032
-16.9032
-16.9032
-16.9033
-16.9035
-16.9036
-16.9039
-16.9041
-16.9044
-16.9047
-16.905
-16.9054
-16.9058
-16.9063
-16.9067
-16.9072
-16.9078
-16.9083
-16.9089
-16.9095
-16.9101
-16.9107
-16.9113
-16.912
-16.9126
-16.9133
-16.9139
-16.9145
-16.9152
-16.9158
-16.9164
-16.9169
-16.9175
-16.918
-16.9185
-16.919
-16.9195
-16.9202
-16.9212
-16.922
-16.9229
-16.9238
-16.9246
-16.9253
-16.926
-16.9267
-16.9274
-16.9281
-16.9288
-16.9295
-16.9302
-16.931
-16.9317
-16.9324
-16.9331
-16.9338
-16.9345
-16.9352
-16.9359
-16.9365
-16.9371
-16.9377
-16.9382
-16.9387
-16.9392
-16.9396
-16.94
-16.9403
-16.9406
-16.9409
-16.9411
-16.9413
-16.9415
-16.9416
-16.9418
-16.9418
-16.9419
-16.942
-16.942
-16.942
-17.3939
-17.394
-17.394
-17.3941
-17.3942
-17.3944
-17.3946
-17.3949
-17.3951
-17.3954
-17.3958
-17.3961
-17.3965
-17.397
-17.3974
-17.3979
-17.3984
-17.3989
-17.3995
-17.4001
-17.4007
-17.4013
-17.4019
-17.4025
-17.4032
-17.4038
-17.4044
-17.405
-17.4057
-17.4063
-17.4068
-17.4074
-17.4079
-17.4084
-17.4089
-17.4092
-17.4095
-17.4101
-17.4116
-17.4127
-17.414
-17.4149
-17.4156
-17.4163
-17.4169
-17.4175
-17.4181
-17.4188
-17.4194
-17.4201
-17.4208
-17.4215
-17.4222
-17.4229
-17.4236
-17.4243
-17.425
-17.4256
-17.4263
-17.4269
-17.4275
-17.4281
-17.4286
-17.4291
-17.4296
-17.43
-17.4304
-17.4307
-17.431
-17.4313
-17.4315
-17.4317
-17.4319
-17.432
-17.4321
-17.4322
-17.4323
-17.4323
-17.4324
-17.4324
-17.8847
-17.8847
-17.8848
-17.8849
-17.885
-17.8852
-17.8854
-17.8856
-17.8859
-17.8862
-17.8865
-17.8868
-17.8872
-17.8876
-17.8881
-17.8886
-17.889
-17.8896
-17.8901
-17.8907
-17.8913
-17.8919
-17.8925
-17.8931
-17.8937
-17.8943
-17.8949
-17.8955
-17.8961
-17.8967
-17.8973
-17.8978
-17.8983
-17.8988
-17.8992
-17.8995
-17.8997
-17.8998
-17.901
-17.9039
-17.905
-17.906
-17.9066
-17.9073
-17.9078
-17.9083
-17.9089
-17.9095
-17.9101
-17.9107
-17.9114
-17.912
-17.9127
-17.9134
-17.914
-17.9147
-17.9154
-17.9161
-17.9167
-17.9173
-17.9179
-17.9185
-17.919
-17.9195
-17.9199
-17.9203
-17.9207
-17.9211
-17.9214
-17.9216
-17.9218
-17.9221
-17.9222
-17.9224
-17.9225
-17.9226
-17.9227
-17.9227
-17.9227
-17.9227
-18.3755
-18.3755
-18.3756
-18.3757
-18.3758
-18.376
-18.3761
-18.3764
-18.3766
-18.3769
-18.3772
-18.3776
-18.3779
-18.3784
-18.3788
-18.3792
-18.3797
-18.3802
-18.3807
-18.3813
-18.3819
-18.3824
-18.383
-18.3837
-18.3843
-18.3849
-18.3855
-18.3861
-18.3866
-18.3872
-18.3877
-18.3882
-18.3886
-18.3891
-18.3895
-18.3898
-18.3901
-18.3903
-18.3923
-18.3994
-18.3971
-18.3974
-18.3977
-18.3984
-18.3989
-18.3992
-18.3997
-18.4002
-18.4007
-18.4013
-18.4019
-18.4025
-18.4032
-18.4038
-18.4045
-18.4052
-18.4058
-18.4065
-18.4071
-18.4077
-18.4083
-18.4089
-18.4094
-18.4099
-18.4103
-18.4107
-18.4111
-18.4114
-18.4117
-18.412
-18.4122
-18.4124
-18.4126
-18.4127
-18.4128
-18.4129
-18.413
-18.413
-18.4131
-18.4131
-18.8663
-18.8663
-18.8664
-18.8665
-18.8666
-18.8668
-18.8669
-18.8672
-18.8674
-18.8677
-18.868
-18.8683
-18.8687
-18.8691
-18.8695
-18.8699
-18.8704
-18.8709
-18.8714
-18.8719
-18.8725
-18.8731
-18.8736
-18.8742
-18.8748
-18.8754
-18.876
-18.8766
-18.8771
-18.8776
-18.8781
-18.8786
-18.879
-18.8794
-18.8797
-18.88
-18.8802
-18.881
-18.9106
-18.9419
-18.9053
-18.8925
-18.8891
-18.8897
-18.8899
-18.8901
-18.8905
-18.8909
-18.8914
-18.8919
-18.8925
-18.8931
-18.8937
-18.8943
-18.895
-18.8956
-18.8962
-18.8969
-18.8975
-18.8981
-18.8987
-18.8992
-18.8997
-18.9002
-18.9006
-18.901
-18.9014
-18.9017
-18.902
-18.9023
-18.9025
-18.9027
-18.9029
-18.903
-18.9032
-18.9033
-18.9033
-18.9034
-18.9034
-18.9034
-19.3572
-19.3572
-19.3572
-19.3573
-19.3574
-19.3576
-19.3578
-19.358
-19.3582
-19.3585
-19.3588
-19.3591
-19.3594
-19.3598
-19.3602
-19.3606
-19.3611
-19.3616
-19.3621
-19.3626
-19.3631
-19.3637
-19.3643
-19.3648
-19.3654
-19.366
-19.3665
-19.3671
-19.3676
-19.3681
-19.3686
-19.369
-19.3694
-19.3697
-19.3699
-19.37
-19.3704
-19.3914
-19.6324
-19.9389
-19.6021
-19.41
-19.4043
-19.3809
-19.3808
-19.381
-19.3812
-19.3816
-19.382
-19.3825
-19.383
-19.3836
-19.3842
-19.3848
-19.3854
-19.386
-19.3867
-19.3873
-19.3879
-19.3885
-19.389
-19.3896
-19.3901
-19.3905
-19.391
-19.3914
-19.3917
-19.3921
-19.3924
-19.3926
-19.3929
-19.3931
-19.3932
-19.3934
-19.3935
-19.3936
-19.3936
-19.3937
-19.3937
-19.3937
-19.848
-19.848
-19.8481
-19.8482
-19.8483
-19.8484
-19.8486
-19.8488
-19.849
-19.8493
-19.8496
-19.8499
-19.8502
-19.8506
-19.851
-19.8514
-19.8518
-19.8523
-19.8528
-19.8533
-19.8538
-19.8543
-19.8549
-19.8554
-19.856
-19.8565
-19.8571
-19.8576
-19.8581
-19.8586
-19.859
-19.8594
-19.8598
-19.86
-19.8602
-19.8602
-19.8606
-20.466
-21.6822
-21.448
-20.9513
-20.4623
-20.1347
-19.8717
-19.8716
-19.8717
-19.8719
-19.8722
-19.8726
-19.873
-19.8735
-19.8741
-19.8747
-19.8752
-19.8758
-19.8764
-19.8771
-19.8777
-19.8783
-19.8788
-19.8794
-19.8799
-19.8804
-19.8809
-19.8813
-19.8817
-19.882
-19.8824
-19.8827
-19.8829
-19.8832
-19.8834
-19.8835
-19.8837
-19.8838
-19.8839
-19.8839
-19.884
-19.884
-19.884
-20.3389
-20.3389
-20.3389
-20.339
-20.3391
-20.3393
-20.3394
-20.3396
-20.3398
-20.3401
-20.3404
-20.3407
-20.341
-20.3414
-20.3417
-20.3421
-20.3426
-20.343
-20.3435
-20.344
-20.3445
-20.345
-20.3455
-20.3461
-20.3466
-20.3471
-20.3477
-20.3482
-20.3486
-20.3491
-20.3495
-20.3499
-20.3502
-20.3503
-20.3505
-20.3506
-20.3504
-23.0872
-72.7325
-87.8082
-90.9483
-64.0099
-20.4439
-20.3623
-20.3623
-20.3624
-20.3625
-20.3628
-20.3632
-20.3636
-20.364
-20.3645
-20.3651
-20.3657
-20.3662
-20.3668
-20.3674
-20.368
-20.3686
-20.3692
-20.3697
-20.3702
-20.3707
-20.3712
-20.3716
-20.372
-20.3723
-20.3727
-20.373
-20.3732
-20.3734
-20.3736
-20.3738
-20.374
-20.3741
-20.3742
-20.3742
-20.3743
-20.3743
-20.3743
-20.8298
-20.8298
-20.8298
-20.8299
-20.83
-20.8301
-20.8303
-20.8305
-20.8307
-20.8309
-20.8312
-20.8315
-20.8318
-20.8321
-20.8325
-20.8329
-20.8333
-20.8337
-20.8342
-20.8347
-20.8351
-20.8357
-20.8362
-20.8367
-20.8372
-20.8377
-20.8382
-20.8387
-20.8392
-20.8396
-20.84
-20.8404
-20.8406
-20.8408
-20.8409
-20.8411
-20.8422
-23.0581
-130.214
-240.431
-234.173
-61.6286
-20.7605
-20.8529
-20.8529
-20.8529
-20.8531
-20.8534
-20.8537
-20.8541
-20.8545
-20.855
-20.8555
-20.8561
-20.8566
-20.8572
-20.8578
-20.8584
-20.8589
-20.8595
-20.86
-20.8605
-20.861
-20.8615
-20.8619
-20.8623
-20.8626
-20.8629
-20.8632
-20.8635
-20.8637
-20.8639
-20.8641
-20.8642
-20.8643
-20.8644
-20.8645
-20.8645
-20.8646
-20.8646
-21.3206
-21.3206
-21.3207
-21.3208
-21.3209
-21.321
-21.3211
-21.3213
-21.3215
-21.3217
-21.322
-21.3223
-21.3226
-21.3229
-21.3233
-21.3237
-21.3241
-21.3245
-21.3249
-21.3254