/*--------------------------------*- C++ -*----------------------------------*\
| =========                 |                                                 |
| \\      /  F ield         | OpenFOAM: The Open Source CFD Toolbox           |
|  \\    /   O peration     | Version:  2412                                  |
|   \\  /    A nd           | Website:  www.openfoam.com                      |
|    \\/     M anipulation  |                                                 |
\*---------------------------------------------------------------------------*/
FoamFile
{
    version     2.0;
    format      ascii;
    arch        "LSB;label=32;scalar=64";
    class       volScalarField;
    location    "6.25";
    object      p;
}
// * * * * * * * * * * * * * * * * * * * * * * * * * * * * * * * * * * * * * //

dimensions      [1 -1 -2 0 0 0 0];

internalField   nonuniform List<scalar> 
6400
(
7645.28
7644.96
7644.26
7643.14
7641.63
7639.72
7637.46
7634.86
7631.97
7628.82
7625.45
7621.88
7618.16
7614.33
7610.41
7606.44
7602.45
7598.47
7594.54
7590.68
7586.92
7583.29
7579.81
7576.51
7573.39
7570.48
7567.79
7565.33
7563.11
7561.12
7559.37
7557.85
7556.57
7555.48
7554.61
7553.92
7553.41
7553.07
7552.88
7552.83
7552.91
7553.13
7553.49
7553.99
7554.64
7555.44
7556.4
7557.55
7558.87
7560.39
7562.11
7564.04
7566.18
7568.52
7571.06
7573.8
7576.73
7579.84
7583.11
7586.53
7590.07
7593.72
7597.46
7601.26
7605.09
7608.92
7612.73
7616.48
7620.13
7623.66
7627.01
7630.16
7633.07
7635.68
7637.98
7639.91
7641.46
7642.59
7643.31
7643.64
7258.59
7258.27
7257.56
7256.43
7254.9
7252.98
7250.7
7248.08
7245.17
7242
7238.61
7235.02
7231.28
7227.43
7223.48
7219.49
7215.48
7211.48
7207.53
7203.65
7199.87
7196.22
7192.72
7189.39
7186.26
7183.34
7180.63
7178.16
7175.92
7173.92
7172.16
7170.63
7169.33
7168.25
7167.37
7166.68
7166.17
7165.83
7165.63
7165.59
7165.67
7165.9
7166.26
7166.76
7167.41
7168.22
7169.19
7170.34
7171.68
7173.21
7174.94
7176.88
7179.03
7181.38
7183.94
7186.69
7189.64
7192.76
7196.04
7199.47
7203.03
7206.7
7210.45
7214.27
7218.12
7221.97
7225.8
7229.57
7233.25
7236.8
7240.18
7243.35
7246.28
7248.92
7251.23
7253.18
7254.74
7255.89
7256.62
7256.94
6872.27
6871.94
6871.22
6870.08
6868.52
6866.56
6864.24
6861.57
6858.61
6855.39
6851.94
6848.31
6844.51
6840.6
6836.6
6832.56
6828.49
6824.44
6820.44
6816.51
6812.69
6808.99
6805.46
6802.1
6798.93
6795.98
6793.25
6790.76
6788.5
6786.49
6784.73
6783.2
6781.89
6780.81
6779.94
6779.25
6778.75
6778.41
6778.22
6778.17
6778.26
6778.49
6778.86
6779.36
6780.01
6780.82
6781.8
6782.95
6784.29
6785.83
6787.57
6789.52
6791.68
6794.05
6796.63
6799.4
6802.37
6805.51
6808.83
6812.29
6815.89
6819.59
6823.39
6827.25
6831.15
6835.05
6838.93
6842.75
6846.49
6850.09
6853.52
6856.76
6859.74
6862.44
6864.8
6866.8
6868.39
6869.56
6870.3
6870.63
6486.35
6486.02
6485.28
6484.11
6482.5
6480.48
6478.08
6475.34
6472.3
6468.99
6465.45
6461.73
6457.85
6453.85
6449.76
6445.63
6441.48
6437.34
6433.26
6429.25
6425.35
6421.59
6418
6414.58
6411.37
6408.38
6405.62
6403.11
6400.84
6398.83
6397.06
6395.53
6394.24
6393.17
6392.31
6391.64
6391.15
6390.82
6390.64
6390.6
6390.7
6390.93
6391.3
6391.8
6392.45
6393.26
6394.23
6395.38
6396.72
6398.25
6400
6401.95
6404.12
6406.51
6409.1
6411.9
6414.9
6418.09
6421.44
6424.96
6428.61
6432.38
6436.25
6440.18
6444.15
6448.14
6452.1
6456.01
6459.84
6463.53
6467.07
6470.39
6473.47
6476.26
6478.71
6480.78
6482.43
6483.64
6484.4
6484.73
6100.84
6100.51
6099.74
6098.52
6096.85
6094.74
6092.24
6089.39
6086.22
6082.8
6079.14
6075.29
6071.29
6067.16
6062.96
6058.7
6054.43
6050.17
6045.97
6041.86
6037.86
6034.01
6030.33
6026.84
6023.57
6020.53
6017.74
6015.2
6012.93
6010.91
6009.15
6007.64
6006.37
6005.32
6004.48
6003.84
6003.37
6003.06
6002.9
6002.88
6002.99
6003.22
6003.58
6004.08
6004.72
6005.51
6006.47
6007.61
6008.94
6010.47
6012.2
6014.16
6016.34
6018.73
6021.35
6024.19
6027.23
6030.46
6033.88
6037.47
6041.2
6045.06
6049.02
6053.05
6057.14
6061.24
6065.32
6069.35
6073.3
6077.13
6080.8
6084.26
6087.47
6090.39
6092.95
6095.13
6096.86
6098.12
6098.91
6099.26
5715.76
5715.42
5714.62
5713.34
5711.57
5709.35
5706.71
5703.71
5700.39
5696.81
5693
5689
5684.84
5680.55
5676.18
5671.76
5667.33
5662.93
5658.58
5654.32
5650.19
5646.22
5642.43
5638.85
5635.51
5632.42
5629.58
5627.02
5624.74
5622.72
5620.98
5619.5
5618.26
5617.25
5616.45
5615.84
5615.41
5615.14
5615
5615
5615.12
5615.35
5615.71
5616.2
5616.82
5617.6
5618.53
5619.64
5620.95
5622.46
5624.18
5626.13
5628.31
5630.72
5633.36
5636.23
5639.32
5642.63
5646.12
5649.8
5653.63
5657.6
5661.69
5665.86
5670.08
5674.33
5678.57
5682.77
5686.88
5690.88
5694.71
5698.34
5701.73
5704.81
5707.54
5709.85
5711.69
5713.03
5713.86
5714.22
5331.12
5330.77
5329.93
5328.57
5326.68
5324.3
5321.49
5318.3
5314.8
5311.03
5307.03
5302.84
5298.49
5294.01
5289.44
5284.83
5280.2
5275.6
5271.06
5266.63
5262.33
5258.21
5254.29
5250.6
5247.16
5244
5241.12
5238.53
5236.24
5234.24
5232.53
5231.09
5229.9
5228.94
5228.2
5227.65
5227.27
5227.04
5226.95
5226.97
5227.1
5227.34
5227.69
5228.16
5228.76
5229.49
5230.39
5231.47
5232.74
5234.21
5235.91
5237.84
5240.02
5242.44
5245.11
5248.02
5251.18
5254.55
5258.14
5261.93
5265.89
5270.01
5274.25
5278.59
5282.99
5287.42
5291.85
5296.25
5300.56
5304.76
5308.8
5312.65
5316.25
5319.54
5322.48
5324.97
5326.95
5328.39
5329.27
5329.64
4946.93
4946.58
4945.69
4944.23
4942.18
4939.6
4936.57
4933.16
4929.44
4925.46
4921.24
4916.82
4912.24
4907.53
4902.73
4897.87
4893.01
4888.17
4883.4
4878.75
4874.25
4869.95
4865.86
4862.03
4858.49
4855.24
4852.31
4849.7
4847.41
4845.44
4843.77
4842.39
4841.27
4840.39
4839.73
4839.26
4838.95
4838.78
4838.73
4838.79
4838.94
4839.19
4839.52
4839.96
4840.52
4841.21
4842.06
4843.07
4844.29
4845.71
4847.37
4849.28
4851.44
4853.87
4856.56
4859.52
4862.75
4866.22
4869.92
4873.84
4877.96
4882.25
4886.68
4891.22
4895.83
4900.49
4905.15
4909.78
4914.33
4918.78
4923.07
4927.16
4931.01
4934.57
4937.76
4940.49
4942.66
4944.22
4945.17
4945.54
4563.21
4562.88
4561.93
4560.32
4558.05
4555.21
4551.92
4548.27
4544.31
4540.08
4535.62
4530.95
4526.11
4521.13
4516.05
4510.9
4505.75
4500.63
4495.59
4490.67
4485.93
4481.4
4477.12
4473.12
4469.44
4466.1
4463.11
4460.47
4458.2
4456.27
4454.67
4453.37
4452.34
4451.58
4451.02
4450.65
4450.44
4450.35
4450.36
4450.47
4450.64
4450.89
4451.2
4451.61
4452.11
4452.73
4453.51
4454.45
4455.58
4456.94
4458.54
4460.4
4462.53
4464.96
4467.68
4470.69
4474
4477.57
4481.41
4485.5
4489.8
4494.29
4498.95
4503.73
4508.6
4513.53
4518.46
4523.37
4528.2
4532.92
4537.49
4541.86
4546
4549.86
4553.36
4556.39
4558.82
4560.56
4561.59
4561.95
4179.99
4179.71
4178.66
4176.81
4174.22
4171.06
4167.49
4163.58
4159.38
4154.9
4150.18
4145.23
4140.08
4134.79
4129.38
4123.91
4118.42
4112.96
4107.59
4102.36
4097.32
4092.52
4088
4083.81
4079.97
4076.51
4073.45
4070.8
4068.55
4066.68
4065.18
4064
4063.11
4062.47
4062.05
4061.8
4061.71
4061.72
4061.82
4061.98
4062.19
4062.43
4062.73
4063.08
4063.51
4064.05
4064.73
4065.56
4066.6
4067.86
4069.37
4071.16
4073.26
4075.67
4078.42
4081.49
4084.88
4088.58
4092.58
4096.85
4101.37
4106.1
4111.02
4116.09
4121.27
4126.51
4131.76
4136.99
4142.14
4147.19
4152.06
4156.74
4161.18
4165.34
4169.18
4172.6
4175.41
4177.42
4178.58
4178.89
3797.3
3797.08
3795.78
3793.47
3790.41
3786.91
3783.13
3779.06
3774.65
3769.93
3764.94
3759.66
3754.18
3748.53
3742.75
3736.88
3730.99
3725.14
3719.38
3713.77
3708.38
3703.26
3698.46
3694.03
3690
3686.41
3683.28
3680.61
3678.4
3676.62
3675.24
3674.22
3673.5
3673.02
3672.77
3672.69
3672.74
3672.88
3673.08
3673.31
3673.55
3673.8
3674.06
3674.35
3674.7
3675.13
3675.68
3676.39
3677.3
3678.43
3679.83
3681.53
3683.56
3685.95
3688.72
3691.85
3695.34
3699.18
3703.36
3707.85
3712.62
3717.64
3722.87
3728.28
3733.81
3739.41
3745.04
3750.64
3756.16
3761.58
3766.78
3771.76
3776.47
3780.88
3785
3788.83
3792.18
3794.72
3796.15
3796.42
3415.22
3414.91
3413.08
3409.98
3406.32
3402.58
3398.78
3394.68
3390.13
3385.18
3379.91
3374.26
3368.4
3362.34
3356.13
3349.81
3343.45
3337.13
3330.91
3324.86
3319.05
3313.55
3308.41
3303.7
3299.44
3295.7
3292.49
3289.81
3287.67
3286.01
3284.8
3283.98
3283.46
3283.2
3283.15
3283.26
3283.48
3283.77
3284.09
3284.39
3284.67
3284.92
3285.15
3285.36
3285.61
3285.91
3286.32
3286.86
3287.61
3288.59
3289.84
3291.42
3293.37
3295.72
3298.5
3301.7
3305.31
3309.32
3313.71
3318.45
3323.51
3328.86
3334.46
3340.26
3346.2
3352.23
3358.28
3364.31
3370.24
3376.05
3381.67
3386.94
3391.87
3396.39
3400.61
3404.78
3408.82
3412.23
3414.24
3414.63
3033.94
3033.21
3030.52
3026.43
3022.18
3018.31
3014.62
3010.6
3005.92
3000.67
2994.96
2989.03
2982.76
2976.24
2969.53
2962.68
2955.77
2948.89
2942.13
2935.56
2929.27
2923.32
2917.77
2912.72
2908.2
2904.27
2900.97
2898.31
2896.25
2894.77
2893.78
2893.21
2892.96
2892.95
2893.13
2893.46
2893.88
2894.34
2894.78
2895.17
2895.48
2895.73
2895.9
2896.02
2896.14
2896.3
2896.54
2896.9
2897.46
2898.25
2899.31
2900.74
2902.58
2904.89
2907.68
2910.96
2914.72
2918.93
2923.56
2928.59
2933.99
2939.72
2945.74
2951.99
2958.42
2964.95
2971.5
2978.01
2984.42
2990.68
2996.69
3002.36
3007.52
3012.08
3016.32
3020.73
3025.46
3029.92
3032.85
3033.69
2653.75
2652.3
2648.66
2643.72
2638.98
2634.93
2631.16
2626.94
2622.07
2616.52
2610.46
2604.04
2597.3
2590.25
2582.95
2575.47
2567.91
2560.38
2552.98
2545.8
2538.93
2532.45
2526.42
2520.95
2516.11
2511.97
2508.57
2505.93
2504.01
2502.76
2502.07
2501.82
2501.88
2502.17
2502.62
2503.19
2503.82
2504.46
2505.04
2505.52
2505.88
2506.11
2506.22
2506.23
2506.21
2506.2
2506.24
2506.38
2506.73
2507.28
2508.12
2509.35
2511.06
2513.3
2516.12
2519.51
2523.45
2527.9
2532.83
2538.2
2543.98
2550.14
2556.66
2563.45
2570.44
2577.55
2584.68
2591.76
2598.71
2605.45
2611.97
2618.14
2623.68
2628.55
2633.01
2637.74
2643.06
2648.44
2652.34
2653.91
2274.99
2272.85
2268.46
2262.87
2257.63
2253.13
2248.94
2244.31
2238.98
2232.94
2226.37
2219.39
2212.06
2204.42
2196.42
2188.2
2179.86
2171.55
2163.39
2155.49
2147.95
2140.83
2134.22
2128.22
2122.96
2118.54
2115.03
2112.43
2110.71
2109.76
2109.45
2109.62
2110.07
2110.7
2111.44
2112.27
2113.14
2113.98
2114.72
2115.31
2115.72
2115.95
2115.99
2115.88
2115.7
2115.5
2115.32
2115.17
2115.28
2115.53
2116.07
2117.05
2118.59
2120.77
2123.62
2127.15
2131.34
2136.11
2141.38
2147.14
2153.36
2160.04
2167.14
2174.57
2182.24
2190.04
2197.85
2205.59
2213.19
2220.62
2227.8
2234.58
2240.76
2246.26
2251.32
2256.67
2262.63
2268.72
2273.41
2275.69
1897.95
1895.43
1890.4
1884.17
1878.18
1872.83
1867.82
1862.41
1856.4
1849.76
1842.6
1835.04
1827.12
1818.87
1810.05
1800.95
1791.69
1782.44
1773.36
1764.61
1756.26
1748.37
1741.01
1734.33
1728.46
1723.67
1719.99
1717.44
1715.94
1715.38
1715.58
1716.29
1717.25
1718.3
1719.39
1720.51
1721.65
1722.73
1723.69
1724.43
1724.91
1725.12
1725.05
1724.79
1724.42
1724.02
1723.6
1723.1
1722.88
1722.72
1722.86
1723.53
1724.88
1726.99
1729.92
1733.66
1738.21
1743.42
1749.13
1755.33
1762.07
1769.35
1777.14
1785.35
1793.83
1802.45
1811.02
1819.47
1827.8
1835.97
1843.91
1851.49
1858.56
1865.13
1871.15
1877.57
1884.43
1891.28
1896.67
1899.36
1522.75
1519.98
1514.42
1507.41
1500.32
1493.69
1487.39
1480.95
1474.12
1466.83
1459.14
1451.08
1442.6
1433.55
1424.07
1413.98
1403.59
1393.2
1383.03
1373.26
1363.94
1355.05
1346.62
1338.88
1332.14
1326.71
1322.74
1320.22
1319.04
1319.01
1319.88
1321.32
1322.96
1324.54
1325.92
1327.26
1328.69
1330.13
1331.39
1332.3
1332.84
1333
1332.75
1332.24
1331.67
1331.14
1330.63
1330.04
1329.04
1328.27
1327.89
1328.17
1329.29
1331.35
1334.45
1338.62
1343.69
1349.78
1356.05
1362.84
1370.2
1378.19
1386.8
1395.93
1405.41
1415.03
1424.44
1433.63
1442.62
1451.47
1460.18
1468.66
1476.8
1484.63
1492.3
1500.21
1508.35
1516.12
1522.12
1525.11
1149.19
1146.09
1139.92
1131.95
1123.48
1115.24
1107.35
1099.64
1091.89
1083.99
1075.89
1067.54
1058.8
1049.39
1039
1027.6
1015.8
1004.01
992.527
981.579
971.229
961.202
951.374
942.155
934.168
927.862
923.431
920.782
919.652
919.848
921.31
923.697
926.248
928.285
929.729
931.104
932.621
934.069
935.269
936.1
936.685
937
936.906
936.49
935.902
935.371
934.891
934.044
932.465
931.014
930.254
930.508
931.738
933.982
937.447
942.299
948.376
955.291
962.48
969.905
977.891
986.686
996.26
1006.51
1017.23
1028.21
1038.38
1048.16
1057.65
1067.05
1076.45
1085.86
1095.25
1104.67
1114.26
1124.06
1133.85
1142.79
1149.55
1152.91
777.39
773.75
766.653
757.373
747.214
737.008
727.202
718.006
709.314
700.938
692.728
684.511
675.919
666.365
654.946
641.779
628.398
614.934
601.884
589.645
578.345
567.011
555.08
543.38
533.157
525.267
520.019
517.216
516.336
517.009
519.095
522.571
526.945
529.288
530.903
532.163
533.392
534.449
535.416
536.202
536.837
537.254
537.444
537.524
537.296
536.838
536.116
534.63
532.059
530.068
529.139
529.414
530.764
533.282
537.363
543.548
551.48
560.164
568.633
576.65
585.183
594.883
605.528
617.081
629.164
641.131
652.875
663.255
672.975
682.598
692.487
702.763
713.494
724.796
736.709
748.866
760.69
771.208
779.072
783.059
408.415
404.052
395.531
384.605
372.694
360.437
348.916
338.748
329.84
321.801
314.303
307.13
299.628
291.16
280.891
268.715
255.094
243.189
232.784
223.109
214.088
204.138
192.745
181.61
172.26
165.511
161.384
159.545
159.346
160.37
162.063
164.474
167.532
170.247
171.636
173.454
175.261
176.75
178.206
179.197
179.619
179.442
178.837
178.287
177.453
176.376
175.565
173.66
171.176
170.131
169.529
169.575
170.448
172.312
175.522
181.127
188.971
197.825
205.781
212.346
218.81
226.061
234.211
243.795
255.183
266.462
276.769
285.992
294.813
303.623
313.006
323.184
334.394
346.952
361.011
375.752
389.877
402.479
412.039
416.883
116.52
113.23
106.648
98.5863
90.4694
83.359
76.8889
71.6414
67.4042
63.661
60.1421
56.8491
53.0408
48.5324
43.3117
37.5159
31.8619
27.8557
24.9361
22.3219
19.8648
16.8044
13.1615
9.87793
7.38534
5.64864
4.51665
3.90663
3.70096
3.66767
3.35916
2.54545
1.1094
1.30634
2.31956
3.4508
4.62326
5.66422
6.69234
7.35065
7.51798
7.20335
6.54661
5.90529
5.04721
3.89618
2.86549
2.43199
3.75358
5.05441
5.52849
5.73937
6.08414
6.6714
7.59158
9.11009
11.3922
14.3579
17.0123
18.9266
20.5395
22.2906
24.4351
27.4443
31.6215
36.3259
41.032
45.6903
50.2377
54.445
58.9426
63.8647
69.4188
76.1114
84.1892
93.0754
103.093
112.678
120.234
124.063
-4.54964
-5.3799
-6.57991
-8.11279
-9.47143
-9.91536
-10.0199
-9.98675
-9.90522
-9.81666
-9.78402
-9.79203
-9.78388
-9.71202
-9.68584
-9.71833
-9.70857
-9.59105
-9.38426
-9.18559
-8.95798
-8.5923
-8.18702
-7.93863
-7.83302
-7.8778
-8.0335
-8.24855
-8.52538
-9.00655
-9.60692
-9.87063
-9.89297
-10.0262
-10.2096
-10.2599
-10.0524
-9.79629
-9.61032
-9.48778
-9.43332
-9.46644
-9.55189
-9.66138
-9.78759
-9.9101
-9.95014
-9.8317
-9.74946
-9.6342
-9.44181
-9.25711
-9.06693
-8.90568
-8.79099
-8.78346
-8.91585
-9.10071
-9.20577
-9.27696
-9.35822
-9.42558
-9.47412
-9.51625
-9.57879
-9.64975
-9.71336
-9.76799
-9.80327
-9.8323
-9.85603
-9.88801
-9.92952
-9.90239
-9.72539
-9.05203
-7.31558
-5.41876
-3.87695
-2.69363
-10.5188
-10.5341
-10.5247
-10.4803
-10.4158
-10.4582
-10.4913
-10.4632
-10.3952
-10.2931
-10.2253
-10.2069
-10.2094
-10.1841
-10.1685
-10.1919
-10.1861
-10.1042
-9.97894
-9.82831
-9.61357
-9.28874
-8.94915
-8.73433
-8.66345
-8.72784
-8.88645
-9.09743
-9.33654
-9.65424
-10.0154
-10.2906
-10.4701
-10.594
-10.6583
-10.5584
-10.3373
-10.1358
-10.0063
-9.9191
-9.88202
-9.90395
-9.96919
-10.0581
-10.1589
-10.2614
-10.3444
-10.3354
-10.2682
-10.1998
-10.1091
-9.98337
-9.83172
-9.70115
-9.61893
-9.61098
-9.69067
-9.81606
-9.8792
-9.90973
-9.94949
-9.98582
-10.0107
-10.0408
-10.0763
-10.1174
-10.1615
-10.2014
-10.2395
-10.2749
-10.3068
-10.3452
-10.3807
-10.3915
-10.35
-10.2864
-10.3599
-10.4137
-10.4637
-10.5032
-11.0593
-11.0612
-11.0362
-11.0177
-11.008
-11.0108
-11.023
-11.0095
-10.9471
-10.8389
-10.7415
-10.7331
-10.7445
-10.7255
-10.7046
-10.7117
-10.7058
-10.6511
-10.5693
-10.4386
-10.2356
-9.93852
-9.6067
-9.42296
-9.40109
-9.49905
-9.67665
-9.88436
-10.1171
-10.3603
-10.6297
-10.8461
-10.9918
-11.0414
-10.9691
-10.8339
-10.6956
-10.5744
-10.4663
-10.3797
-10.3573
-10.3811
-10.4457
-10.5305
-10.5835
-10.6
-10.628
-10.6881
-10.7382
-10.7223
-10.6455
-10.5384
-10.4262
-10.3212
-10.254
-10.2438
-10.2901
-10.362
-10.4093
-10.446
-10.4909
-10.5266
-10.5474
-10.563
-10.5867
-10.6204
-10.6611
-10.7051
-10.7499
-10.7945
-10.8329
-10.8556
-10.8635
-10.8532
-10.8301
-10.8364
-10.8581
-10.8843
-10.9291
-10.9554
-11.6443
-11.6148
-11.5686
-11.5619
-11.5821
-11.6052
-11.5934
-11.5518
-11.485
-11.3774
-11.2588
-11.2272
-11.2278
-11.2111
-11.2011
-11.2299
-11.2564
-11.2535
-11.2032
-11.0889
-10.9072
-10.6733
-10.4069
-10.2305
-10.2414
-10.3656
-10.5393
-10.7406
-10.9559
-11.128
-11.2737
-11.4179
-11.5271
-11.5527
-11.4694
-11.3201
-11.1747
-11.0527
-10.9573
-10.8971
-10.8844
-10.9039
-10.9468
-11.02
-11.055
-11.0408
-11.0497
-11.1204
-11.2263
-11.269
-11.2179
-11.1309
-11.0416
-10.9543
-10.908
-10.9077
-10.9068
-10.9041
-10.9406
-10.9958
-11.0428
-11.0658
-11.0624
-11.0643
-11.0817
-11.1156
-11.157
-11.2002
-11.2451
-11.2949
-11.3419
-11.3672
-11.3837
-11.4034
-11.4183
-11.419
-11.4081
-11.4063
-11.4196
-11.4484
-12.1819
-12.1626
-12.1589
-12.1881
-12.2332
-12.2633
-12.2419
-12.1704
-12.0734
-11.961
-11.8251
-11.7547
-11.7288
-11.6907
-11.706
-11.7833
-11.8673
-11.8992
-11.8728
-11.7771
-11.621
-11.4227
-11.2284
-11.1051
-11.1187
-11.2315
-11.3948
-11.5801
-11.76
-11.8924
-11.9803
-12.071
-12.1395
-12.141
-12.0541
-11.8917
-11.7341
-11.6231
-11.548
-11.4932
-11.4667
-11.4754
-11.497
-11.5533
-11.5732
-11.5698
-11.573
-11.6436
-11.735
-11.8157
-11.8027
-11.7366
-11.6663
-11.5949
-11.5321
-11.4966
-11.458
-11.4212
-11.4533
-11.5272
-11.5797
-11.5933
-11.5815
-11.566
-11.5754
-11.6177
-11.6692
-11.719
-11.7676
-11.8134
-11.8538
-11.8847
-11.91
-11.9366
-11.9844
-12.026
-12.0048
-11.9751
-11.9456
-11.9733
-12.6907
-12.7143
-12.771
-12.8441
-12.9107
-12.9444
-12.92
-12.8404
-12.7153
-12.5694
-12.4404
-12.3396
-12.2755
-12.2485
-12.2909
-12.4143
-12.5272
-12.5853
-12.5695
-12.4761
-12.3346
-12.1791
-12.0411
-11.968
-11.9824
-12.0787
-12.2277
-12.3892
-12.5376
-12.6484
-12.6983
-12.744
-12.7894
-12.7723
-12.6636
-12.4903
-12.3351
-12.23
-12.1561
-12.1009
-12.068
-12.0606
-12.0635
-12.1094
-12.1385
-12.1545
-12.173
-12.2053
-12.2385
-12.322
-12.3367
-12.2956
-12.2363
-12.1626
-12.0707
-11.9821
-11.9179
-11.8807
-11.9256
-12.0239
-12.0981
-12.1402
-12.1369
-12.1123
-12.1088
-12.1481
-12.2061
-12.2582
-12.3056
-12.3492
-12.3867
-12.4159
-12.4415
-12.4731
-12.5228
-12.5772
-12.5883
-12.5531
-12.499
-12.4915
-13.2176
-13.2767
-13.3462
-13.4247
-13.4931
-13.5284
-13.5176
-13.4647
-13.3615
-13.2195
-13.0932
-12.9736
-12.8826
-12.8699
-12.9411
-13.0831
-13.211
-13.2703
-13.2444
-13.1534
-13.0328
-12.9155
-12.8196
-12.7881
-12.8293
-12.9338
-13.0699
-13.2032
-13.3206
-13.408
-13.4354
-13.4264
-13.444
-13.42
-13.2834
-13.0935
-12.9375
-12.8303
-12.755
-12.7025
-12.6689
-12.6521
-12.6492
-12.6807
-12.7307
-12.7339
-12.7378
-12.7231
-12.7355
-12.7768
-12.7985
-12.7767
-12.7241
-12.647
-12.5627
-12.4658
-12.3955
-12.3708
-12.4086
-12.5162
-12.6292
-12.697
-12.7045
-12.691
-12.6937
-12.7257
-12.7751
-12.8249
-12.8693
-12.9081
-12.9402
-12.9648
-12.9854
-13.0083
-13.0372
-13.0727
-13.1001
-13.0915
-13.0257
-12.9795
-13.7592
-13.8313
-13.891
-13.9613
-14.0177
-14.0497
-14.0587
-14.0557
-14.0003
-13.8885
-13.7633
-13.625
-13.527
-13.5189
-13.5983
-13.7401
-13.8693
-13.9133
-13.8836
-13.8001
-13.6996
-13.6115
-13.5636
-13.5745
-13.6506
-13.7773
-13.9143
-14.0232
-14.1007
-14.1378
-14.1281
-14.0923
-14.0984
-14.0576
-13.8878
-13.6857
-13.5277
-13.4185
-13.3438
-13.2933
-13.2599
-13.2414
-13.2372
-13.2573
-13.3123
-13.3062
-13.2654
-13.2185
-13.211
-13.215
-13.217
-13.1938
-13.148
-13.0885
-13.0259
-12.9599
-12.9197
-12.9065
-12.9152
-12.9825
-13.0893
-13.1718
-13.2211
-13.2562
-13.2914
-13.3255
-13.3675
-13.419
-13.4632
-13.4963
-13.5194
-13.5336
-13.5406
-13.5446
-13.5488
-13.5539
-13.5553
-13.5548
-13.5079
-13.4485
-14.2864
-14.3597
-14.4155
-14.4828
-14.5419
-14.5841
-14.6253
-14.6568
-14.6311
-14.5334
-14.4118
-14.2653
-14.1567
-14.1368
-14.2051
-14.3492
-14.4695
-14.5085
-14.478
-14.3971
-14.3174
-14.2693
-14.2698
-14.3244
-14.4329
-14.5756
-14.7078
-14.7954
-14.8379
-14.8252
-14.7653
-14.7285
-14.7304
-14.6535
-14.4592
-14.2572
-14.1024
-13.9947
-13.9212
-13.8709
-13.8372
-13.8173
-13.8104
-13.8179
-13.8545
-13.8609
-13.8122
-13.7435
-13.6959
-13.6767
-13.6512
-13.6031
-13.5449
-13.51
-13.4817
-13.4425
-13.4066
-13.3909
-13.4005
-13.443
-13.5165
-13.6047
-13.6973
-13.7834
-13.8561
-13.9139
-13.9766
-14.0422
-14.0924
-14.1213
-14.1324
-14.1297
-14.1153
-14.0937
-14.0692
-14.0432
-14.0135
-13.9876
-13.962
-13.9145
-14.7814
-14.8539
-14.9076
-14.9759
-15.0458
-15.1061
-15.1724
-15.2169
-15.2027
-15.1181
-14.9964
-14.84
-14.7215
-14.686
-14.7493
-14.8964
-15.0049
-15.0447
-15.0051
-14.9396
-14.8974
-14.8941
-14.9353
-15.0232
-15.1529
-15.2992
-15.408
-15.4675
-15.4848
-15.4478
-15.3719
-15.3379
-15.3195
-15.1963
-14.9923
-14.8006
-14.6558
-14.5542
-14.4834
-14.4333
-14.398
-14.3745
-14.3616
-14.3564
-14.3654
-14.3709
-14.3446
-14.2799
-14.2058
-14.1636
-14.1285
-14.0743
-14.0226
-14.0005
-13.9786
-13.9376
-13.9014
-13.8878
-13.8967
-13.9226
-13.9725
-14.0544
-14.1659
-14.2911
-14.4119
-14.5212
-14.6255
-14.7183
-14.7804
-14.805
-14.7986
-14.7702
-14.7236
-14.6674
-14.6086
-14.5503
-14.4926
-14.4436
-14.4086
-14.386
-15.2537
-15.3117
-15.3608
-15.4288
-15.508
-15.5812
-15.6525
-15.7072
-15.6983
-15.6202
-15.4883
-15.3254
-15.2096
-15.1825
-15.252
-15.381
-15.4846
-15.5099
-15.4789
-15.4539
-15.454
-15.4874
-15.5564
-15.656
-15.7875
-15.9191
-15.9945
-16.0307
-16.034
-15.9944
-15.933
-15.9089
-15.8498
-15.6873
-15.4864
-15.3128
-15.1837
-15.0923
-15.0271
-14.9792
-14.9437
-14.9168
-14.897
-14.8821
-14.8706
-14.8558
-14.8306
-14.7902
-14.7299
-14.6698
-14.6447
-14.6284
-14.5873
-14.5409
-14.5044
-14.4473
-14.4107
-14.3965
-14.3959
-14.407
-14.4439
-14.5289
-14.664
-14.8385
-15.0337
-15.227
-15.3958
-15.5152
-15.5716
-15.571
-15.5359
-15.4738
-15.3812
-15.2779
-15.1759
-15.0809
-14.9955
-14.9251
-14.8785
-14.8622
-15.7022
-15.7357
-15.7811
-15.8452
-15.9275
-16.0052
-16.0753
-16.125
-16.1159
-16.0409
-15.9059
-15.763
-15.6785
-15.6838
-15.7551
-15.8494
-15.927
-15.9485
-15.9492
-15.9606
-15.995
-16.0537
-16.1324
-16.2307
-16.3474
-16.4398
-16.4891
-16.5181
-16.5207
-16.4905
-16.45
-16.415
-16.3101
-16.1298
-15.9451
-15.7965
-15.6871
-15.6089
-15.5522
-15.5102
-15.4776
-15.4505
-15.4273
-15.4061
-15.3801
-15.344
-15.3076
-15.2731
-15.2383
-15.2045
-15.1909
-15.2012
-15.1713
-15.0902
-15.0291
-14.9707
-14.9312
-14.9129
-14.9009
-14.8978
-14.9321
-15.0402
-15.2306
-15.51
-15.8506
-16.1869
-16.4514
-16.6045
-16.641
-16.5801
-16.4461
-16.2763
-16.1114
-15.9456
-15.7849
-15.6415
-15.5234
-15.431
-15.3723
-15.351
-16.1233
-16.1466
-16.1837
-16.2421
-16.3215
-16.3961
-16.4596
-16.4982
-16.4915
-16.4305
-16.323
-16.215
-16.1708
-16.1958
-16.2694
-16.3427
-16.3795
-16.4041
-16.4263
-16.4667
-16.5248
-16.5935
-16.6707
-16.7592
-16.845
-16.8935
-16.9306
-16.9575
-16.9619
-16.9399
-16.8999
-16.8335
-16.7029
-16.5337
-16.3782
-16.2614
-16.1726
-16.1094
-16.0639
-16.03
-16.0026
-15.9783
-15.9558
-15.9331
-15.9003
-15.8455
-15.7957
-15.7573
-15.7364
-15.7276
-15.7317
-15.7395
-15.7025
-15.6137
-15.5435
-15.4869
-15.4468
-15.4233
-15.4029
-15.3948
-15.4552
-15.6321
-15.9313
-16.3554
-16.8691
-17.3526
-17.7157
-17.9123
-17.9316
-17.8104
-17.5584
-17.2321
-16.9253
-16.6719
-16.4399
-16.236
-16.0759
-15.9565
-15.8827
-15.8516
-16.5411
-16.5606
-16.5872
-16.6392
-16.7135
-16.7836
-16.8409
-16.875
-16.8737
-16.8323
-16.7634
-16.6875
-16.6647
-16.6986
-16.7766
-16.8358
-16.8509
-16.8727
-16.91
-16.9682
-17.0377
-17.1091
-17.1793
-17.2467
-17.2912
-17.3143
-17.3381
-17.3549
-17.3528
-17.3256
-17.2719
-17.1836
-17.0577
-16.9227
-16.8063
-16.7175
-16.651
-16.6036
-16.5698
-16.5444
-16.5233
-16.5035
-16.4848
-16.4719
-16.453
-16.4154
-16.3653
-16.3068
-16.2616
-16.2414
-16.2415
-16.2301
-16.1815
-16.1049
-16.0303
-15.9795
-15.9454
-15.9152
-15.8953
-15.8992
-16.0366
-16.304
-16.6798
-17.2164
-17.8538
-18.4291
-18.8524
-19.0709
-19.0993
-18.9624
-18.669
-18.2642
-17.8234
-17.4399
-17.1304
-16.8596
-16.6492
-16.4991
-16.4101
-16.3686
-16.9711
-16.9829
-17.005
-17.0541
-17.1266
-17.191
-17.2485
-17.2864
-17.2949
-17.2669
-17.22
-17.1775
-17.1649
-17.2039
-17.2708
-17.3098
-17.3258
-17.352
-17.398
-17.462
-17.5331
-17.596
-17.6505
-17.6928
-17.7102
-17.7207
-17.7297
-17.7292
-17.7109
-17.6701
-17.6095
-17.5248
-17.4245
-17.3277
-17.2462
-17.1821
-17.1345
-17.101
-17.0775
-17.0605
-17.0463
-17.0328
-17.0229
-17.0339
-17.0633
-17.0752
-17.0328
-16.949
-16.8626
-16.8038
-16.7735
-16.7257
-16.6434
-16.5597
-16.4943
-16.4513
-16.4305
-16.4015
-16.379
-16.4346
-16.6416
-16.943
-17.3449
-17.9771
-18.6862
-19.2965
-19.724
-19.9465
-19.9929
-19.875
-19.5926
-19.1936
-18.7233
-18.2379
-17.836
-17.4953
-17.2327
-17.0528
-16.9521
-16.9132
-17.4264
-17.4272
-17.4506
-17.502
-17.5766
-17.6442
-17.6971
-17.7429
-17.7676
-17.7621
-17.7365
-17.7145
-17.7104
-17.7352
-17.7646
-17.7886
-17.8047
-17.8308
-17.8792
-17.939
-17.9984
-18.0493
-18.0888
-18.1136
-18.1241
-18.1283
-18.1257
-18.1118
-18.0827
-18.0362
-17.9762
-17.9059
-17.8324
-17.7652
-17.7089
-17.6642
-17.6308
-17.6078
-17.5931
-17.5835
-17.5764
-17.5704
-17.5714
-17.6001
-17.6712
-17.7275
-17.7034
-17.6189
-17.5002
-17.4107
-17.3532
-17.2629
-17.1254
-17.0176
-16.9595
-16.9358
-16.9178
-16.8995
-16.8851
-16.9992
-17.2184
-17.4934
-17.9417
-18.6273
-19.3479
-19.9549
-20.3713
-20.5892
-20.6386
-20.5431
-20.3102
-19.9559
-19.5094
-19.0075
-18.5276
-18.1135
-17.8063
-17.6011
-17.4881
-17.4661
-17.9175
-17.9146
-17.931
-18.0029
-18.1012
-18.1835
-18.2319
-18.272
-18.3093
-18.3311
-18.3232
-18.2977
-18.2769
-18.2696
-18.2728
-18.2806
-18.2888
-18.3076
-18.3486
-18.3976
-18.4431
-18.484
-18.5154
-18.534
-18.5429
-18.5449
-18.5376
-18.5191
-18.4877
-18.4435
-18.3891
-18.3358
-18.283
-18.2354
-18.1952
-18.1636
-18.1403
-18.1257
-18.1187
-18.1163
-18.1167
-18.1186
-18.1257
-18.1506
-18.2064
-18.2564
-18.2424
-18.1671
-18.0727
-18.0035
-17.9463
-17.826
-17.6449
-17.515
-17.4576
-17.452
-17.4339
-17.421
-17.4411
-17.5754
-17.7784
-18.0457
-18.5095
-19.169
-19.8542
-20.4396
-20.855
-21.0844
-21.1517
-21.0775
-20.8831
-20.566
-20.1569
-19.678
-19.15
-18.6756
-18.3475
-18.1242
-17.9965
-18.0013
-18.4482
-18.4523
-18.4415
-18.5526
-18.7012
-18.8038
-18.8574
-18.8862
-18.9172
-18.9269
-18.9047
-18.8646
-18.8242
-18.7942
-18.7808
-18.7755
-18.7763
-18.7884
-18.8183
-18.8547
-18.8912
-18.9236
-18.9486
-18.9648
-18.9737
-18.9752
-18.9676
-18.9499
-18.9219
-18.8857
-18.8471
-18.8036
-18.7636
-18.7274
-18.6972
-18.6748
-18.6607
-18.6541
-18.6546
-18.6575
-18.6664
-18.677
-18.6869
-18.697
-18.7095
-18.7093
-18.6767
-18.6167
-18.5634
-18.5351
-18.4974
-18.3777
-18.1861
-18.0524
-18.0058
-18.002
-17.9905
-17.9884
-18.0464
-18.1859
-18.376
-18.657
-19.0927
-19.6591
-20.2525
-20.7838
-21.1848
-21.4318
-21.5302
-21.4899
-21.3224
-21.0365
-20.6627
-20.1991
-19.641
-19.1579
-18.8352
-18.6177
-18.4947
-18.5187
-19.0102
-19.0179
-19.003
-19.1119
-19.2787
-19.4219
-19.4845
-19.507
-19.5072
-19.4816
-19.4382
-19.3845
-19.3364
-19.3007
-19.2781
-19.2669
-19.2647
-19.2739
-19.2949
-19.3219
-19.35
-19.3755
-19.3961
-19.4108
-19.4193
-19.4206
-19.4139
-19.3988
-19.3759
-19.3476
-19.3177
-19.2865
-19.2565
-19.2284
-19.2074
-19.195
-19.1911
-19.1926
-19.1956
-19.2058
-19.2196
-19.2368
-19.2513
-19.2524
-19.2319
-19.1863
-19.1225
-19.0688
-19.0455
-19.0318
-19.0047
-18.9001
-18.7318
-18.6151
-18.5926
-18.5844
-18.5872
-18.605
-18.69
-18.8398
-19.0467
-19.3262
-19.6949
-20.1417
-20.6019
-21.0185
-21.3488
-21.5808
-21.7109
-21.7123
-21.5746
-21.3158
-20.9589
-20.4966
-19.9654
-19.5415
-19.2591
-19.0833
-19.0158
-19.0324
-19.5974
-19.6005
-19.6085
-19.6362
-19.7746
-19.9269
-20.0046
-20.0239
-20.0039
-19.964
-19.9173
-19.8696
-19.8219
-19.7855
-19.7638
-19.7537
-19.7527
-19.761
-19.777
-19.7974
-19.819
-19.8393
-19.8565
-19.8694
-19.877
-19.8784
-19.8731
-19.8614
-19.8438
-19.8228
-19.8
-19.7765
-19.7536
-19.7348
-19.7244
-19.7249
-19.736
-19.7521
-19.7686
-19.7834
-19.7974
-19.8136
-19.8258
-19.8185
-19.7812
-19.7131
-19.631
-19.5846
-19.5596
-19.5405
-19.5075
-19.4144
-19.279
-19.1988
-19.1963
-19.1956
-19.219
-19.2618
-19.3665
-19.5358
-19.7628
-20.024
-20.3175
-20.6385
-20.957
-21.2308
-21.4436
-21.5949
-21.6777
-21.6672
-21.5523
-21.325
-20.9955
-20.587
-20.1707
-19.8545
-19.6513
-19.55
-19.5483
-19.5646
-20.1809
-20.1792
-20.181
-20.1818
-20.2502
-20.3275
-20.3915
-20.4171
-20.4111
-20.3919
-20.3624
-20.329
-20.2916
-20.2614
-20.245
-20.2391
-20.2408
-20.2489
-20.2617
-20.2776
-20.2946
-20.3111
-20.3255
-20.3368
-20.3438
-20.3457
-20.3422
-20.3339
-20.3215
-20.3065
-20.2896
-20.2731
-20.2559
-20.2481
-20.2514
-20.2686
-20.299
-20.3334
-20.3693
-20.3981
-20.4223
-20.4435
-20.4491
-20.4209
-20.3628
-20.2778
-20.2008
-20.1539
-20.1098
-20.073
-20.0266
-19.9314
-19.8333
-19.7935
-19.7954
-19.827
-19.8735
-19.944
-20.0707
-20.2607
-20.4875
-20.7152
-20.9388
-21.1584
-21.3555
-21.503
-21.5908
-21.6211
-21.5953
-21.5155
-21.3793
-21.1863
-20.9252
-20.6305
-20.3644
-20.18
-20.0776
-20.0545
-20.0851
-20.087
-20.7221
-20.7295
-20.732
-20.7363
-20.7368
-20.7447
-20.7781
-20.8114
-20.8261
-20.8234
-20.8081
-20.7851
-20.7577
-20.7366
-20.7268
-20.7252
-20.7289
-20.7365
-20.7472
-20.7601
-20.7742
-20.788
-20.8004
-20.8104
-20.8171
-20.8198
-20.8184
-20.8134
-20.8058
-20.7959
-20.7843
-20.7727
-20.765
-20.7699
-20.7906
-20.8292
-20.8819
-20.9358
-20.998
-21.0556
-21.1086
-21.1465
-21.1536
-21.0889
-20.9832
-20.8685
-20.793
-20.7353
-20.6826
-20.6221
-20.5554
-20.4612
-20.387
-20.3729
-20.3967
-20.4603
-20.5248
-20.6226
-20.7692
-20.969
-21.188
-21.3849
-21.5594
-21.7079
-21.8121
-21.8519
-21.8279
-21.7496
-21.629
-21.4868
-21.335
-21.1715
-20.9873
-20.8073
-20.6658
-20.5895
-20.5639
-20.5741
-20.5961
-20.5837
-21.2272
-21.2378
-21.2387
-21.235
-21.2211
-21.2139
-21.2306
-21.2578
-21.2732
-21.2731
-21.2623
-21.2452
-21.227
-21.215
-21.2109
-21.2122
-21.2167
-21.2238
-21.2331
-21.2443
-21.2564
-21.2684
-21.2793
-21.2884
-21.295
-21.2987