/*--------------------------------*- C++ -*----------------------------------*\
| =========                 |                                                 |
| \\      /  F ield         | OpenFOAM: The Open Source CFD Toolbox           |
|  \\    /   O peration     | Version:  2412                                  |
|   \\  /    A nd           | Website:  www.openfoam.com                      |
|    \\/     M anipulation  |                                                 |
\*---------------------------------------------------------------------------*/
FoamFile
{
    version     2.0;
    format      ascii;
    arch        "LSB;label=32;scalar=64";
    class       volScalarField;
    location    "5.5";
    object      alpha.glycerin;
}
// * * * * * * * * * * * * * * * * * * * * * * * * * * * * * * * * * * * * * //

dimensions      [0 0 0 0 0 0 0];

internalField   nonuniform List<scalar> 
6400
(
1
0.999998
0.999999
0.999999
0.999999
0.999999
1
1
1
1
1
1
1
1
1
1
1
1
1
1
1
1
1
1
1
1
0.999999
0.999999
0.999999
0.999998
0.999998
0.999998
0.999997
0.999997
0.999997
0.999996
0.999996
0.999995
0.999995
0.999995
0.999995
0.999995
0.999995
0.999995
0.999996
0.999996
0.999997
0.999997
0.999998
0.999998
0.999999
0.999999
0.999999
1
1
1
1
1
1
1
1
1
1
1
1
1
1
1
1
1
1
1
1
1
1
0.999999
0.999999
0.999999
0.999999
0.999999
0.999999
0.999998
0.999998
0.999998
0.999998
0.999998
0.999998
0.999998
0.999998
0.999998
0.999998
0.999999
0.999999
0.999999
0.999999
0.999999
0.999999
0.999999
0.999999
0.999999
0.999999
0.999999
0.999999
0.999999
0.999998
0.999998
0.999998
0.999998
0.999998
0.999998
0.999998
0.999998
0.999998
0.999998
0.999997
0.999997
0.999997
0.999997
0.999996
0.999996
0.999996
0.999997
0.999997
0.999997
0.999997
0.999998
0.999998
0.999998
0.999998
0.999998
0.999998
0.999999
0.999999
0.999999
0.999999
1
1
1
0.999999
0.999999
0.999998
0.999998
0.999999
0.999999
0.999999
0.999999
0.999999
0.999999
0.999999
0.999999
0.999998
0.999998
0.999998
0.999998
0.999998
0.999998
0.999998
0.999998
0.999998
0.999999
0.999999
0.999998
0.999998
0.999998
0.999998
0.999998
0.999998
0.999998
0.999998
0.999999
0.999999
0.999999
0.999999
0.999999
1
1
1
0.999999
0.999999
0.999999
0.999999
0.999999
0.999999
0.999999
0.999999
0.999998
0.999998
0.999998
0.999998
0.999998
0.999998
0.999997
0.999997
0.999997
0.999997
0.999996
0.999996
0.999996
0.999996
0.999996
0.999996
0.999996
0.999996
0.999996
0.999997
0.999997
0.999997
0.999997
0.999998
0.999998
0.999998
0.999998
0.999998
0.999998
0.999998
0.999998
0.999999
0.999998
0.999999
0.999999
1
1
1
1
1
1
0.999999
0.999999
0.999999
0.999999
0.999999
0.999999
0.999999
0.999998
0.999998
0.999998
0.999998
0.999998
0.999997
0.999999
0.999999
0.999998
0.999998
0.999998
0.999998
0.999998
0.999998
0.999999
0.999999
0.999999
0.999999
1
1
1
1
1
1
1
1
1
1
1
0.999999
0.999999
0.999999
0.999999
0.999998
0.999998
0.999998
0.999997
0.999997
0.999996
0.999996
0.999995
0.999995
0.999995
0.999995
0.999995
0.999995
0.999995
0.999994
0.999995
0.999994
0.999995
0.999995
0.999995
0.999996
0.999996
0.999997
0.999997
0.999997
0.999998
0.999998
0.999998
0.999998
0.999999
1
1
1
1
1
1
1
1
1
1
1
1
1
1
1
0.999999
0.999999
0.999999
0.999999
0.999998
0.999998
0.999998
0.999998
0.999999
0.999999
0.999997
0.999998
0.999998
0.999998
0.999998
0.999998
0.999999
0.999999
0.999999
0.999999
1
1
1
1
1
1
1
1
1
1
1
1
0.999999
0.999999
0.999999
0.999999
0.999998
0.999998
0.999997
0.999997
0.999996
0.999996
0.999995
0.999995
0.999995
0.999995
0.999995
0.999995
0.999995
0.999995
0.999994
0.999994
0.999994
0.999994
0.999995
0.999995
0.999996
0.999997
0.999997
0.999997
0.999998
0.999998
0.999999
0.999999
0.999999
0.999999
0.999999
0.999999
0.999999
1
1
1
1
1
1
1
1
1
1
1
0.999999
0.999999
0.999999
0.999999
0.999998
0.999998
0.999998
0.999998
0.999999
0.999998
0.999997
0.999998
0.999998
0.999998
0.999998
0.999998
0.999999
0.999999
0.999999
1
1
1
1
1
1
1
1
1
1
1
1
1
0.999999
0.999999
0.999999
0.999999
0.999998
0.999998
0.999997
0.999997
0.999996
0.999996
0.999996
0.999996
0.999996
0.999996
0.999996
0.999995
0.999995
0.999995
0.999995
0.999995
0.999995
0.999995
0.999995
0.999995
0.999996
0.999997
0.999998
0.999998
0.999998
0.999998
0.999998
0.999997
0.999997
0.999998
0.999999
0.999999
0.999999
1
1
1
1
1
1
1
1
1
1
1
1
0.999999
0.999999
0.999999
0.999999
0.999999
0.999999
0.999999
0.999999
0.999998
0.999997
0.999997
0.999997
0.999998
0.999998
0.999998
0.999999
0.999999
0.999999
1
1
1
1
1
1
1
1
1
1
1
1
0.999999
0.999999
0.999999
0.999999
0.999998
0.999998
0.999998
0.999997
0.999997
0.999996
0.999996
0.999996
0.999996
0.999996
0.999996
0.999996
0.999996
0.999996
0.999997
0.999996
0.999996
0.999996
0.999996
0.999996
0.999996
0.999997
0.999997
0.999998
0.999998
0.999997
0.999997
0.999998
0.999997
0.999997
0.999997
0.999998
0.999998
0.999998
0.999999
0.999999
1
1
1
1
1
1
1
1
1
0.999999
0.999999
0.999999
0.999999
0.999999
0.999999
0.999999
0.999999
0.999999
0.999998
0.999997
0.999997
0.999997
0.999997
0.999998
0.999998
0.999999
0.999999
0.999999
0.999999
0.999999
1
1
1
1
1
1
1
1
1
0.999999
0.999999
0.999999
0.999999
0.999998
0.999998
0.999998
0.999997
0.999997
0.999997
0.999997
0.999997
0.999997
0.999996
0.999997
0.999996
0.999997
0.999997
0.999998
0.999998
0.999998
0.999998
0.999998
0.999997
0.999997
0.999997
0.999997
0.999997
0.999998
0.999999
0.999999
0.999999
0.999999
0.999999
0.999998
0.999998
0.999998
0.999998
0.999998
0.999999
0.999999
0.999999
0.999999
0.999999
0.999999
0.999999
0.999999
0.999999
0.999999
0.999999
0.999999
0.999999
0.999998
0.999998
0.999998
0.999998
0.999998
0.999998
0.999998
0.999998
0.999997
0.999997
0.999997
0.999997
0.999997
0.999997
0.999998
0.999998
0.999998
0.999999
0.999999
0.999999
0.999999
0.999999
0.999999
1
1
1
1
1
1
0.999999
0.999999
0.999999
0.999999
0.999999
0.999998
0.999998
0.999998
0.999998
0.999998
0.999998
0.999997
0.999997
0.999997
0.999996
0.999996
0.999997
0.999997
0.999998
0.999998
0.999999
0.999998
0.999998
0.999997
0.999997
0.999997
0.999998
0.999999
1
1
1
1
1
1
1
1
1
0.999999
0.999999
0.999999
0.999999
0.999999
0.999999
0.999999
0.999999
0.999999
0.999999
0.999998
0.999998
0.999998
0.999998
0.999998
0.999998
0.999997
0.999997
0.999997
0.999997
0.999997
0.999997
0.999996
0.999996
0.999996
0.999996
0.999996
0.999996
0.999997
0.999997
0.999998
0.999998
0.999998
0.999999
0.999999
0.999999
0.999999
1
1
1
1
1
1
1
1
1
1
1
1
1
1
1
1
0.999999
0.999999
0.999998
0.999997
0.999996
0.999995
0.999995
0.999995
0.999996
0.999997
0.999997
0.999997
0.999997
0.999996
0.999995
0.999995
0.999996
0.999998
0.999999
0.999999
1
1
1
1
1
1
1
1
1
1
1
1
0.999999
0.999999
0.999999
0.999999
0.999998
0.999998
0.999998
0.999998
0.999997
0.999997
0.999997
0.999996
0.999996
0.999996
0.999996
0.999997
0.999997
0.999996
0.999995
0.999995
0.999995
0.999995
0.999995
0.999996
0.999996
0.999996
0.999997
0.999997
0.999998
0.999998
0.999999
0.999999
0.999999
1
1
1
1
1
1
1
1
1
1
1
1
1
1
1
1
1
0.999999
0.999997
0.999996
0.999994
0.999993
0.999993
0.999993
0.999994
0.999996
0.999996
0.999996
0.999996
0.999994
0.999993
0.999993
0.999994
0.999995
0.999997
0.999998
1
1
1
1
1
1
1
1
1
1
1
1
1
1
0.999999
0.999999
0.999998
0.999998
0.999997
0.999997
0.999997
0.999996
0.999996
0.999995
0.999995
0.999995
0.999996
0.999996
0.999995
0.999995
0.999995
0.999995
0.999995
0.999995
0.999995
0.999995
0.999995
0.999996
0.999996
0.999996
0.999997
0.999997
0.999998
0.999998
0.999999
0.999999
0.999999
1
1
1
1
1
1
1
1
1
1
1
1
1
1
1
1
1
0.999998
0.999997
0.999995
0.999995
0.999997
0.999999
1
1
0.999999
0.999997
0.999994
0.999993
0.999993
0.999995
0.999996
0.999998
0.999999
1
1
1
1
1
1
1
1
1
1
1
1
1
1
0.999999
0.999999
0.999998
0.999998
0.999997
0.999997
0.999996
0.999995
0.999995
0.999995
0.999995
0.999996
0.999995
0.999996
0.999995
0.999997
0.999997
0.999997
0.999997
0.999996
0.999996
0.999996
0.999996
0.999996
0.999996
0.999996
0.999996
0.999996
0.999996
0.999996
0.999996
0.999995
0.999996
0.999996
0.999996
0.999996
0.999996
0.999997
0.999997
0.999998
0.999999
0.999999
1
1
1
1
1.00001
1.00001
1.00001
1.00001
1.00001
1.00001
1.00001
1.00001
1.00001
1.00001
1.00001
1.00001
1.00001
1
0.999999
0.999996
0.999995
0.999994
0.999993
0.999993
0.999994
0.999995
0.999996
0.999996
0.999997
0.999997
0.999998
0.999998
0.999998
0.999999
0.999999
0.999999
0.999999
0.999999
0.999999
0.999999
0.999999
0.999998
0.999998
0.999998
0.999997
0.999996
0.999996
0.999996
0.999997
0.999997
0.999995
0.999998
0.999997
1
1
1
1
1
1
0.999999
0.999998
0.999998
0.999997
0.999996
0.999995
0.999994
0.999993
0.999992
0.999991
0.99999
0.999989
0.999988
0.999987
0.999987
0.999986
0.999986
0.999986
0.999987
0.999989
0.99999
0.999992
0.999995
0.999999
1
1.00001
1.00002
1.00003
1.00003
1.00003
1.00003
1.00003
1.00003
1.00003
1.00003
1.00003
1.00003
1.00002
1.00002
1.00001
1
0.999996
0.999991
0.999988
0.999986
0.999985
0.999984
0.999984
0.999985
0.999985
0.999986
0.999987
0.999988
0.999989
0.999991
0.999992
0.999993
0.999995
0.999996
0.999997
0.999998
0.999999
0.999999
1
1
1
1
1
1
1
1
0.999996
1
0.999999
1
1.00001
1.00001
1.00001
1.00001
1.00001
1.00001
1
1
1
0.999998
0.999996
0.999994
0.999992
0.999989
0.999987
0.999984
0.999982
0.99998
0.999978
0.999977
0.999976
0.999975
0.999975
0.999976
0.999978
0.99998
0.999984
0.999989
0.999996
1
1.00002
1.00003
1.00004
1.00005
1.00006
1.00006
1.00005
1.00004
1.00004
1.00004
1.00004
1.00004
1.00004
1.00003
1.00002
1.00001
1
0.999993
0.999987
0.999982
0.999978
0.999975
0.999974
0.999974
0.999974
0.999974
0.999976
0.999978
0.99998
0.999982
0.999984
0.999987
0.99999
0.999992
0.999995
0.999997
0.999999
1
1
1
1
1.00001
1.00001
1.00001
1.00001
1.00001
0.999996
1
1
1
1.00001
1.00001
1.00001
1.00001
1.00001
1.00001
1.00001
1.00001
1
1
0.999999
0.999996
0.999994
0.999992
0.999989
0.999987
0.999985
0.999983
0.999982
0.99998
0.999979
0.999979
0.999979
0.99998
0.999981
0.999984
0.999987
0.999992
0.999999
1.00001
1.00002
1.00004
1.00005
1.00006
1.00007
1.00006
1.00004
1.00003
1.00002
1.00002
1.00002
1.00003
1.00003
1.00002
1.00002
1.00001
1
0.999997
0.999992
0.999988
0.999984
0.999981
0.999979
0.999978
0.999978
0.999978
0.999979
0.99998
0.999981
0.999983
0.999985
0.999988
0.99999
0.999993
0.999995
0.999998
1
1
1
1.00001
1.00001
1.00001
1.00001
1.00001
1.00001
1
0.999997
1.00001
0.999997
0.999994
0.999996
0.999999
1
1
1
1
1
1
1
1
1
1
1
1
1
1
1
1
1
1
1
1.00001
1.00001
1.00001
1.00001
1.00001
1.00001
1.00001
1.00001
1.00002
1.00002
1.00002
1.00002
1.00003
1.00003
1.00004
1.00002
1
0.999994
0.999993
0.999996
1
1
0.999993
0.999995
0.999999
1
1
1
1
1.00001
1.00001
1
1
1
1
1
1
1
1
1
1
1
1
1
1
1
1
1
1
1
1
1
1
1
0.999992
0.999993
1.00001
0.999992
0.999981
0.999978
0.99998
0.999983
0.999986
0.999989
0.999991
0.999994
0.999996
0.999998
1
1
1.00001
1.00001
1.00001
1.00001
1.00002
1.00002
1.00002
1.00002
1.00002
1.00003
1.00003
1.00003
1.00003
1.00002
1.00002
1.00002
1.00002
1.00002
1.00001
1.00001
0.999993
1
1
1
1
1
1
1
0.999999
0.999972
0.999974
0.999981
0.999977
0.999986
0.999994
1
1.00001
1.00001
1.00002
1.00002
1.00002
1.00003
1.00003
1.00003
1.00003
1.00002
1.00002
1.00002
1.00002
1.00002
1.00001
1.00001
1.00001
1.00001
1
1
0.999998
0.999995
0.999992
0.99999
0.999987
0.999986
0.999986
0.999986
0.999979
0.999977
0.999994
0.999987
0.999979
0.999978
0.99998
0.999982
0.999985
0.999988
0.99999
0.999994
0.999998
0.999999
1
1
1
1
1
1
1
1
1
1
1
1
1
1
1
1
1
1
1
1
1
1
0.999999
0.99311
0.960034
0.928629
0.911128
0.912736
0.935545
0.969754
0.998851
0.99999
0.999992
0.999993
0.999994
0.999994
0.999996
1
1
1
1
1
1
1
1
1
1
1
1
1
1
1
1
1
1
1
0.999998
0.999994
0.999991
0.999988
0.999985
0.999983
0.999981
0.99998
0.99998
0.999981
0.999977
0.999994
0.999994
0.999994
0.999994
0.999994
0.999972
0.999842
0.999611
0.999283
0.998853
0.9983
0.997607
0.996748
0.995689
0.994397
0.992836
0.990972
0.988779
0.98624
0.983355
0.980127
0.976579
0.972742
0.968642
0.964324
0.959805
0.955094
0.950115
0.94464
0.938113
0.929134
0.914903
0.891378
0.852441
0.736386
0.584066
0.428352
0.326329
0.281143
0.253985
0.256428
0.291792
0.355297
0.466167
0.621736
0.785707
0.864011
0.896312
0.917726
0.930516
0.938846
0.945257
0.950762
0.955793
0.960539
0.965064
0.969406
0.973534
0.977392
0.98094
0.984144
0.986994
0.989487
0.991624
0.993431
0.994935
0.996165
0.997165
0.997965
0.998598
0.999094
0.999473
0.999745
0.999923
0.999998
0.999998
0.999998
0.999998
0.999998
0.999998
0.0971106
0.134918
0.157563
0.173097
0.183341
0.190047
0.194427
0.197138
0.19859
0.199054
0.198723
0.197734
0.19619
0.194173
0.191752
0.188983
0.185914
0.182581
0.179007
0.175199
0.171159
0.166868
0.162293
0.157391
0.152088
0.146288
0.139828
0.132549
0.124085
0.11381
0.101248
0.0852421
0.0617215
0.0403134
0.0405525
0.0430396
0.0680786
0.0730642
0.0955443
0.0948205
0.0943881
0.0931131
0.0790278
0.0682082
0.040737
0.0239509
0.0427244
0.0689894
0.0897481
0.104484
0.116356
0.125988
0.133967
0.140875
0.147078
0.152766
0.158005
0.162813
0.167281
0.171458
0.175386
0.179082
0.182548
0.18578
0.188751
0.191426
0.193764
0.195702
0.197177
0.198106
0.198386
0.197875
0.196391
0.193655
0.189263
0.182525
0.172248
0.156709
0.134109
0.096449
3.92427e-08
1.82922e-09
1.90317e-09
3.69881e-10
-8.47033e-23
-4.80249e-18
-3.78833e-19
-3.78306e-17
-1.70052e-17
-1.01829e-16
-2.94778e-17
-1.61764e-16
-2.12619e-16
-7.54292e-16
-1.28683e-50
1.55104e-17
4.30166e-16
2.0335e-15
3.23768e-15
1.12053e-13
1.26962e-11
3.68423e-11
4.85131e-11
4.85131e-11
6.71034e-11
6.13925e-10
1.44055e-08
8.57267e-08
1.55232e-07
1.70875e-07
1.26295e-05
5.24578e-05
0.00011119
0.000200216
0.0515873
0.258467
0.276765
0.276837
0.276848
0.276871
0.276885
0.276885
0.276885
0.276827
0.215244
0.0162146
0.000172346
9.36444e-05
3.62696e-05
6.71604e-06
6.28715e-07
6.17754e-07
5.72306e-07
4.28703e-07
1.92366e-07
2.88702e-08
8.4867e-10
2.26851e-11
3.98856e-13
1.63685e-13
4.21946e-14
1.74339e-14
1.64044e-14
1.49717e-14
1.43619e-14
1.40846e-14
1.39773e-14
1.39297e-14
1.39109e-14
1.39021e-14
1.354e-14
1.28192e-14
1.24324e-14
1.24055e-14
1.24061e-14
1.24061e-14
9.78224e-10
2.8121e-09
2.49676e-09
4.25893e-08
1.99743e-10
4.46744e-13
6.81382e-13
1.11815e-13
-9.15778e-17
-1.48169e-14
-5.49502e-16
-2.12595e-14
-6.08885e-15
-1.6471e-14
-2.31058e-15
-1.16485e-14
-9.62967e-15
-4.88859e-14
2.96604e-14
7.75512e-13
3.25019e-12
3.06658e-15
3.23919e-12
1.26738e-11
4.91696e-09
3.48015e-08
4.85131e-11
6.71034e-11
6.13925e-10
3.96923e-05
0.0002402
0.000289016
0.000137453
5.71698e-05
0.000119887
0.000178647
0.000142602
0.000142586
0.0220858
0.114149
0.177381
0.246909
0.276837
0.266882
0.267789
0.276885
0.241322
0.17445
0.0999307
0.00592395
0.000222649
0.000224316
0.000404571
0.000317661
2.2714e-05
3.15619e-05
0.000131438
0.000312284
0.000405455
0.000307823
5.38034e-05
8.48668e-10
2.26851e-11
3.98856e-13
1.3963e-13
1.81388e-14
1.74339e-14
1.99283e-12
6.25861e-13
4.30503e-13
2.09992e-13
1.23878e-13
5.90923e-14
4.36784e-14
2.07533e-14
1.97224e-14
1.41893e-14
1.98902e-14
1.26073e-14
1.74668e-14
3.93395e-12
5.49774e-12
2.82946e-12
3.25866e-10
6.25712e-13
8.68996e-16
1.77919e-15
8.27059e-16
3.9461e-16
2.35071e-16
-2.76078e-18
-4.13538e-17
-9.97188e-17
-5.78122e-16
-9.72432e-16
4.1274e-17
1.30892e-14
2.24158e-13
9.01541e-13
1.38085e-12
2.24694e-12
4.85051e-13
9.26361e-11
2.38996e-06
1.0288e-05
1.1923e-05
2.79158e-06
1.90909e-08
2.46321e-09
4.25769e-05
0.000409912
0.000439634
0.000439634
0.000229653
0.000314343
0.00284912
0.00343622
0.00339691
0.00217602
4.48121e-06
3.69662e-06
2.74187e-06
0.0676268
0.0332407
0.0333658
0.0561239
1.28334e-09
1.29836e-09
1.30498e-09
0.00161822
0.00358903
0.00359047
0.00308747
0.00021442
2.47377e-05
0.000230652
0.000484099
0.000484098
0.000484101
0.000483877
0.000118142
2.32042e-08
2.43358e-08
2.99323e-08
3.62381e-08
2.00284e-11
2.5072e-10
1.30155e-12
6.29445e-13
1.16337e-12
1.63858e-12
1.02213e-12
1.98545e-13
5.22814e-14
2.17762e-14
1.45615e-14
1.1597e-14
1.29301e-14
1.04575e-14
1.21238e-14
2.28926e-14
4.97045e-14
3.56083e-14
1.61224e-12
2.61326e-15
2.56751e-17
4.40447e-17
1.71134e-17
9.24533e-18
6.25277e-18
1.7887e-18
-5.16526e-20
-2.81351e-19
-3.08318e-34
8.12913e-17
8.41147e-15
2.90304e-13
2.34397e-12
5.42379e-12
2.6579e-12
2.94487e-11
7.30242e-10
3.64014e-07
1.40859e-05
1.97786e-05
1.97861e-05
1.84181e-05
2.30306e-07
9.31895e-11
9.81171e-11
2.10501e-06
0.000222635
0.000389762
0.000388439
0.000318044
0.000203988
0.000228293
0.000258632
2.63744e-07
4.07255e-05
0.000114406
2.47932e-06
1.25733e-09
1.25449e-09
1.25733e-09
1.25976e-09
1.2668e-09
1.28334e-09
1.29836e-09
5.86486e-06
0.000255936
9.27949e-05
2.85541e-05
0.000209798
0.000248305
0.000202147
0.000174409
0.000367401
0.000319551
6.10629e-05
3.38911e-10
8.59693e-07
2.87122e-06
9.4975e-06
1.08677e-05
6.65604e-06
9.72967e-07
4.44139e-11
2.09568e-12
1.35423e-12
1.54438e-11
1.01959e-11
2.36278e-12
1.96125e-13
2.04274e-14
8.84902e-15
6.25108e-15
5.03432e-15
4.20403e-15
3.8396e-15
3.91057e-15
1.07259e-14
1.09786e-14
1.88393e-14
3.90413e-16
2.25994e-17
3.42145e-17
2.11324e-17
4.21509e-18
4.58092e-19
2.41226e-19
1.17088e-19
1.66088e-19
1.79866e-18
7.43933e-17
5.5486e-15
1.93048e-13
1.80984e-12
4.94226e-12
3.26232e-12
1.44341e-11
4.88646e-10
2.81054e-07
1.31885e-05
1.97849e-05
1.97466e-05
5.72052e-06
9.2416e-11
8.96319e-11
9.31895e-11
9.8117e-11
1.0852e-10
1.1984e-10
1.29562e-10
1.38929e-10
1.49174e-10
1.59714e-10
1.88572e-10
7.16377e-09
7.03837e-05
0.000138339
0.000102586
1.25449e-09
1.25261e-09
1.25449e-09
2.25572e-09
4.52327e-09
4.31799e-09
4.12944e-09
1.82809e-09
1.68435e-09
1.29941e-06
1.32489e-09
1.34899e-09
3.39364e-06
2.44194e-07
2.78964e-11
1.67463e-10
3.01328e-10
3.07064e-10
3.2063e-10
3.38963e-10
2.18511e-06
1.57235e-05
1.71143e-05
1.70898e-05
1.40723e-05
1.56483e-06
2.02142e-09
1.21846e-10
2.47741e-11
8.20499e-12
2.04396e-12
1.85276e-13
1.89251e-14
8.51589e-15
6.02852e-15
4.83864e-15
4.06373e-15
3.74694e-15
3.7928e-15
1.05065e-14
1.08344e-14
2.66884e-15
4.36791e-16
1.53626e-17
3.41882e-17
2.12481e-17
4.16629e-18
3.67993e-19
1.23374e-19
4.05537e-20
4.96797e-20
5.42011e-19
2.32965e-17
1.92065e-15
7.85656e-14
8.2353e-13
2.48473e-12
2.84832e-12
3.26429e-12
1.44341e-11
2.45258e-07
1.59269e-06
1.72878e-06
1.91338e-06
1.10452e-08
8.90772e-11
9.69071e-11
2.96345e-10
4.53586e-10
7.18123e-10
1.11356e-09
1.55914e-09
2.10593e-09
2.69556e-09
3.46695e-09
4.89748e-09
6.55685e-09
5.04751e-09
1.09683e-08
2.61106e-09
2.71867e-09
1.25321e-09
1.25272e-09
4.28351e-09
6.15505e-09
6.15505e-09
5.57693e-09
1.59231e-09
1.65469e-09
1.25981e-09
1.31603e-09
1.3672e-09
1.83204e-11
2.10233e-11
2.44598e-11
1.36876e-09
5.63784e-09
7.07862e-09
9.0366e-09
1.47644e-08
6.28156e-09
7.90389e-09
6.94429e-06
1.71103e-05
1.71066e-05
1.33689e-05
1.048e-06
2.65197e-09
1.50689e-10
1.30773e-11
1.74375e-12
2.31933e-13
2.12312e-14
8.52044e-15
5.77914e-15
4.11804e-15
2.88645e-15
2.03543e-15
1.39865e-15
2.34946e-15
2.37915e-15
1.41914e-15
6.93237e-17
2.02797e-18
5.83373e-18
3.6521e-18
1.10996e-18
3.77397e-19
1.23732e-19
3.29094e-20
2.69819e-20
6.28597e-20
1.98956e-18
2.97418e-16
1.62113e-14
2.34671e-13
9.64838e-13
1.59632e-12
5.7965e-12
1.42064e-08
6.22879e-07
1.01558e-06
6.22125e-09
4.43883e-09
8.89354e-11
8.51823e-11
8.45164e-11
8.47453e-11
7.54487e-11
6.03914e-11
4.19246e-11
2.60439e-11
2.32139e-11
2.27404e-11
2.32814e-11
3.97135e-10
2.58696e-09
5.03995e-09
5.1825e-09
2.59613e-09
1.9088e-09
1.13661e-09
1.47471e-09
2.97371e-09
5.8342e-09
4.27707e-09
1.58797e-09
1.5875e-09
1.56141e-09
1.18414e-09
5.89919e-10
1.62616e-10
1.05649e-11
1.84973e-11
2.10233e-11
3.43967e-11
1.09135e-10
1.97061e-10
4.40931e-10
9.44666e-10
5.95654e-09
9.21313e-09
2.51368e-09
8.07619e-06
1.71122e-05
1.70508e-05
6.96167e-06
1.13918e-08
5.92549e-10
3.89505e-11
2.12589e-12
4.26535e-13
3.27017e-14
6.29184e-15
3.5e-15
2.01955e-15
1.10573e-15
5.8283e-16
2.83166e-16
1.53868e-16
1.14069e-16
2.6516e-16
1.62786e-18
4.91973e-20
1.52186e-19
1.16079e-19
9.27147e-20
1.0384e-19
4.296e-20
2.22403e-20
2.21202e-20
8.62809e-20
4.69555e-18
3.96551e-16
1.723e-14
1.96864e-13
1.04749e-12
5.37658e-12
1.09453e-07
6.80382e-07
6.75309e-07
9.13789e-08
2.53776e-09
4.46441e-10
9.54204e-11
8.91383e-11
8.51093e-11
8.73819e-11
8.98438e-11
8.92609e-11
5.75311e-11
3.66537e-11
2.45468e-11
2.27208e-11
3.0868e-11
3.58073e-11
3.61169e-11
3.67904e-11
4.49312e-10
1.81312e-09
2.04095e-09
1.12003e-09
1.66238e-09
1.07152e-09
1.2054e-09
2.33503e-10
4.39484e-11
4.31157e-11
3.517e-11
2.95859e-11
2.36462e-11
1.46851e-11
7.91588e-12
6.52921e-12
2.49343e-11
1.30691e-09
4.80673e-09
4.55486e-09
1.5648e-09
9.6829e-10
5.5219e-09
8.62554e-09
1.75979e-09
1.66857e-06
1.66643e-05
1.70481e-05
7.60032e-06
1.17748e-08
5.72985e-10
3.45509e-11
1.81245e-12
4.49281e-13
3.12445e-14
2.63259e-15
9.29998e-16
4.02207e-16
1.67869e-16
6.73508e-17
2.50792e-17
4.86499e-18
1.72984e-18
1.33532e-17
1.08312e-20
5.00464e-22
1.50501e-21
1.9911e-21
3.34332e-21
5.74017e-21
4.73632e-21
6.21781e-21
9.56766e-21
1.3764e-19
1.19715e-17
1.01769e-15
3.15644e-14
1.68903e-13
4.00339e-12
1.89697e-10
3.29286e-07
6.80382e-07
6.1867e-07
3.90004e-09
3.51885e-09
2.15657e-09
3.21197e-09
6.1899e-09
2.00592e-10
8.88888e-11
1.09152e-10
1.39483e-10
5.37004e-11
2.3233e-11
1.28078e-11
9.48936e-12
2.01833e-11
4.53759e-11
5.77564e-11
5.99949e-11
5.91667e-11
2.00204e-10
7.76544e-10
1.02987e-09
1.66238e-09
8.14484e-10
1.33375e-10
1.10984e-10
1.09297e-10
9.7247e-11
7.26396e-11
4.37275e-11
1.83783e-11
3.95438e-12
7.21002e-13
8.73139e-13
3.79505e-09
1.40033e-08
1.81071e-08
1.79902e-08
1.46384e-08
2.8175e-09
5.18814e-09
6.77582e-09
1.19195e-09
1.27898e-07
1.51564e-05
1.70188e-05
5.32054e-06
7.98095e-09
3.47722e-10
1.91804e-11
1.30605e-12
3.99966e-13
2.0959e-14
6.26109e-16
9.20336e-17
2.68939e-17
8.57192e-18
2.73741e-18
8.55706e-19
1.32933e-19
3.20434e-20
2.20597e-19
1.35279e-22
7.92778e-24
2.65074e-23
4.54647e-23
8.25378e-23
1.41224e-22
2.40779e-22
5.19934e-22
7.36053e-22
1.63349e-20
4.71929e-18
5.48609e-16
1.29853e-14
5.81201e-14
1.93388e-12
6.86398e-11
5.14358e-08
3.60849e-07
3.89927e-07
5.38433e-09
3.90004e-09
1.87965e-08
4.70638e-08
3.66466e-08
3.77994e-09
1.04083e-10
1.20392e-10
2.21254e-10
9.59535e-11
1.90756e-11
5.54502e-12
2.95297e-12
3.50264e-12
1.57258e-11
3.40053e-11
5.06213e-11
5.82963e-11
1.87562e-10
1.18493e-09
9.72278e-10
1.66238e-09
1.00929e-09
3.00944e-10
1.14821e-10
7.8972e-11
5.20793e-11
2.48792e-11
6.97649e-12
1.46973e-12
3.02558e-13
2.89184e-13
2.9631e-09
1.8058e-08
1.82111e-08
1.82238e-08
1.81071e-08
1.6128e-08
4.42161e-09
3.34576e-09
2.7835e-09
9.64622e-10
1.19195e-09
1.43214e-05
1.69277e-05
4.71142e-06
6.59358e-09
2.40805e-10
7.94033e-12
8.67162e-13
2.32016e-13
8.8826e-15
1.46149e-16
5.46002e-18
8.16871e-19
2.12984e-19
6.28477e-20
1.91107e-20
4.06125e-21
9.86547e-22
3.99955e-21
2.79047e-24
1.82438e-25
6.55056e-25
1.19959e-24
2.16681e-24
3.98872e-24
8.92646e-24
3.2883e-23
3.29975e-22
2.93259e-20
6.48291e-18
7.20307e-16
1.04912e-14
4.96371e-13
2.04428e-11
1.41774e-08
4.26094e-07
6.69505e-07
8.37395e-09
7.4307e-09
1.37342e-08
4.70638e-08
4.70638e-08
4.70638e-08
2.24174e-08
2.22473e-10
3.79477e-10
2.41967e-10
1.39074e-10
2.48125e-11
2.65115e-12
1.02473e-12
1.21872e-12
6.17816e-12
1.47775e-11
2.1924e-11
3.1471e-11
3.87036e-10
1.3735e-09
8.62943e-10
1.66233e-09
1.2943e-09
3.42683e-10
7.80128e-11
4.68711e-11
2.66735e-11
9.26162e-12
1.57263e-12
3.42293e-13
1.57083e-13
1.71026e-13
8.82577e-09
1.80732e-08
1.8224e-08
1.32675e-08
4.14939e-09
3.48446e-09
2.33296e-09
1.30974e-09
9.14514e-10
9.17621e-10
9.64622e-10
8.76021e-06
1.07502e-05
2.85514e-06
3.55076e-09
1.07813e-10
3.84741e-12
1.14466e-12
1.06142e-13
2.40547e-15
3.76632e-17
6.08909e-19
2.98103e-20
6.08383e-21
1.79158e-21
5.55829e-22
1.41463e-22
3.53844e-23
1.17275e-22
6.37058e-26
4.56705e-27
1.71019e-26
3.27487e-26
6.2489e-26
1.23081e-25
1.72472e-25
7.20345e-24
1.40344e-21
1.81056e-19
1.89089e-17
1.39872e-15
4.64344e-14
2.42434e-12
1.04802e-10
1.68812e-07
9.02633e-07
9.03215e-07
8.50913e-09
8.37395e-09
1.02573e-08
3.8388e-08
4.70638e-08
3.99281e-08
1.04974e-08
1.04519e-09
4.36977e-09
2.19878e-10
1.45803e-10
2.99847e-11
1.28257e-12
2.58733e-13
5.70006e-13
3.36896e-12
9.46988e-12
1.39827e-11
1.81092e-11
4.09918e-10
1.35708e-09
7.93923e-10
1.66039e-09
1.33547e-09
3.05071e-10
5.66354e-11
3.33236e-11
1.6227e-11
3.93212e-12
4.37367e-13
1.16801e-13
1.32303e-13
1.45474e-13
6.39588e-09
1.77496e-08
1.55931e-08
7.74171e-10
7.69744e-10
7.71555e-10
9.92797e-10
8.08974e-10
8.47985e-10
9.0732e-10
3.25127e-08
2.7549e-07
5.64695e-07
6.37347e-07
8.28958e-08
2.9523e-11
1.1889e-12
6.04693e-13
2.98073e-14
4.64499e-16
7.29732e-18
9.5309e-20
1.86987e-21
2.38233e-22
6.5764e-23
2.01335e-23
5.27401e-24
1.31128e-24
4.00625e-24
1.49353e-27
1.16213e-28
4.50716e-28
9.12875e-28
1.7856e-27
1.28818e-28
7.67958e-27
2.27879e-24
3.98109e-22
5.50314e-20
6.21298e-18
5.35727e-16
1.49746e-14
8.94295e-13
4.47686e-11
8.909e-08
9.28629e-07
9.51054e-07
1.02482e-07
8.50913e-09
8.65576e-09
8.9482e-09
1.241e-08
1.2848e-08
1.51727e-08
6.37233e-08
9.29844e-09
5.50295e-11
6.3343e-11
2.35021e-11
5.75037e-13
6.8986e-14
2.94505e-13
2.01109e-12
6.96537e-12
1.12882e-11
1.36422e-11
3.47616e-10
1.29501e-09
7.25303e-10
1.56502e-09
1.32942e-09
2.9302e-10
4.43369e-11
2.49051e-11
1.0367e-11
1.91177e-12
1.77859e-13
3.99462e-14
2.36318e-13
1.48444e-10
2.75696e-09
1.55794e-08
7.14767e-09
9.20435e-10
7.69748e-10
7.69689e-10
7.71555e-10
7.92856e-10
8.62188e-10
2.27317e-09
3.70895e-09
4.10404e-10
4.82722e-10
1.8038e-08
2.00546e-08
1.91648e-10
1.31443e-12
1.28146e-13
3.00537e-15
5.12197e-17
8.23416e-19
1.0688e-20
1.40825e-22
1.04359e-23
2.60209e-24
7.70273e-25
2.00961e-25
4.92309e-26
1.4096e-25
3.56627e-29
2.99155e-30
1.1975e-29
2.56255e-29
4.99119e-29
8.21363e-31
7.46374e-29
1.67052e-26
3.19182e-24
5.23526e-22
7.44488e-20
8.76508e-18
8.09595e-16
6.35691e-14
4.16244e-12
4.30859e-09
3.91622e-07
9.44186e-07
9.18347e-07
1.43739e-07
8.9323e-09
1.05004e-08
1.16739e-08
9.66891e-08
3.84783e-07
2.01168e-07
9.08331e-10
2.0042e-11
4.53596e-12
3.98611e-12
1.75412e-13
2.93312e-14
1.85721e-13
1.35408e-12
5.08694e-12
9.0948e-12
1.34747e-11
2.8212e-10
1.20445e-09
6.4589e-10
1.33619e-09
1.33366e-09
3.20825e-10
3.61955e-11
1.88693e-11
7.00303e-12
1.1409e-12
9.9521e-14
1.39377e-14
1.56835e-14
1.53407e-11
9.19292e-10
3.03369e-09
6.14758e-09
1.23556e-09
7.69748e-10
8.88308e-10
8.28211e-10
8.09777e-10
1.38201e-09
3.31851e-09
9.114e-11
3.96495e-11
5.33744e-11
1.27954e-10
6.12539e-10
1.69155e-11
4.61463e-13
1.07058e-14
1.90039e-16
3.4123e-18
5.38382e-20
7.11666e-22
8.84372e-24
4.58163e-25
1.03469e-25
2.9491e-26
7.66603e-27
1.85785e-27
5.00773e-27
8.5816e-31
7.76198e-32
3.1885e-31
7.15545e-31
1.52861e-30
9.85636e-32
2.53636e-31
5.51416e-29
1.0857e-26
1.80816e-24
2.58534e-22
3.26947e-20
4.57431e-18
7.82657e-16
1.02973e-13
9.25226e-12
6.38019e-09
5.27421e-07
9.21554e-07
9.10061e-07
7.25585e-07
3.73887e-07
6.2095e-07
7.54029e-07
7.47167e-07
2.18737e-07
5.67751e-10
2.33143e-11
7.90722e-13
1.76313e-13
9.41332e-15
1.80084e-14
1.40658e-13
1.02994e-12
3.86132e-12
7.31586e-12
1.54902e-11
2.57384e-10
1.06441e-09
5.66154e-10
1.17607e-09
1.34355e-09
3.60553e-10
3.03291e-11
1.46191e-11
5.11215e-12
8.23443e-13
7.04215e-14
1.14013e-14
8.35691e-15
4.63999e-14
2.01751e-11
7.75614e-10
1.90093e-09
1.49158e-09
9.81773e-10
1.1125e-09
1.0858e-09
1.0383e-09
1.30646e-09
1.85523e-09
1.76048e-11
1.40883e-11
1.37823e-11
1.77849e-11
1.98838e-11
1.37712e-12
2.69735e-14
4.62283e-16
8.82762e-18
1.56387e-19
2.40776e-21
3.18177e-23
4.09571e-25
1.91572e-26
4.05683e-27
1.11704e-27
2.89624e-28
6.97501e-29
1.78288e-28
2.05366e-32
2.01458e-33
8.4399e-33
1.94593e-32
4.66013e-32
8.53374e-32
6.83569e-33
2.53636e-31
5.51416e-29
1.0857e-26
1.80816e-24
2.58534e-22
3.26947e-20
4.57431e-18
7.82657e-16
1.75534e-13
2.21871e-11
6.516e-09
2.78053e-07
5.27528e-07
6.23083e-07
7.5544e-07
7.5544e-07
7.5544e-07
3.27988e-07
3.63494e-10
2.76809e-11
1.66993e-12
1.07564e-13
5.00293e-15
1.5431e-15
1.23479e-14
1.19105e-13
8.43432e-13
3.05493e-12
6.18698e-12
1.76052e-11
2.54181e-10
9.10191e-10
4.9238e-10
1.0685e-09
1.34355e-09
3.61877e-10
2.62761e-11
1.1578e-11
3.97818e-12
6.77005e-13
5.87212e-14
9.10186e-15
6.72859e-15
1.05732e-14
3.62672e-14
5.68764e-13
1.58686e-10
1.04553e-09
1.22076e-09
1.10421e-09
1.01993e-09
8.00627e-10
5.74287e-10
1.53378e-10
1.37745e-11
1.17826e-11
9.75041e-12
6.94329e-12
2.65194e-12
7.85399e-14
8.147e-16
1.61317e-17
3.18767e-19
5.55174e-21
8.34379e-23
1.09372e-24
1.4774e-26
7.48104e-28
1.55152e-28
4.15201e-29
1.07408e-29
2.5795e-30
6.29222e-30
4.82751e-34
5.19988e-35
2.20299e-34
5.24595e-34
1.30573e-33
6.35816e-33
1.24947e-33
6.37661e-33
6.25056e-31
1.32741e-28
2.38701e-26
3.55182e-24
3.7952e-22
3.75497e-20
4.72649e-18
7.98081e-14
1.15353e-12
6.10308e-11
6.66901e-10
9.47971e-09
4.32824e-08
2.17771e-07
2.0849e-07
7.54336e-08
1.48372e-11
5.06612e-13
-8.63902e-14
8.06693e-15
3.97149e-15
4.27323e-16
1.32781e-15
1.09936e-14
1.08911e-13
7.31699e-13
2.52807e-12
5.53571e-12
1.97365e-11
2.67352e-10
8.07256e-10
4.28496e-10
9.70095e-10
1.33418e-09
3.44607e-10
2.46747e-11
9.37057e-12
3.23429e-12
5.93373e-13
5.40327e-14
5.36538e-15
4.89419e-15
1.88265e-14
3.77878e-14
5.19432e-14
7.16284e-12
1.03105e-10
3.11469e-10
3.93346e-10
3.8284e-10
1.86349e-10
6.32119e-11
9.49698e-12
8.04039e-12
5.79983e-12
3.44114e-12
1.12196e-12
1.61028e-13
2.42511e-15
2.9957e-17
6.03769e-19
1.11809e-20
1.81382e-22
2.54348e-24
3.25002e-26
4.59486e-28
2.73513e-29
5.7242e-30
1.50028e-30
3.87844e-31
9.32477e-32
2.17604e-31
1.10024e-35
1.34968e-36
5.61971e-36
1.38926e-35
3.53725e-35
1.11741e-34
1.13979e-33
2.60951e-34
8.77766e-33
2.0093e-30
4.29794e-28
7.90003e-26
1.43922e-22
1.7665e-20
2.25974e-17
1.86409e-14
2.57783e-13
3.19136e-12
3.05265e-11
6.59977e-11
7.98565e-11
1.095e-10
2.59025e-11
3.96956e-12
8.59937e-13
8.74409e-14
8.64726e-15
4.88554e-15
1.00883e-15
1.87847e-16
1.00179e-15
1.06147e-14
1.05444e-13
6.65765e-13
2.19024e-12
5.24149e-12
2.3181e-11
2.72915e-10
7.38517e-10
3.67981e-10
8.8166e-10
1.30597e-09
3.20259e-10
2.43536e-11
7.79772e-12
2.68717e-12
5.38209e-13
5.31507e-14
3.54369e-15
7.44636e-16
6.99206e-15
2.3259e-14
3.71017e-14
2.48416e-13
2.08579e-12
9.11687e-12
1.88763e-11
2.31314e-11
9.10761e-12
4.31649e-12
2.96275e-12
2.42987e-12
1.19217e-12
3.77679e-13
6.58682e-14
6.1313e-15
7.68935e-17
1.11265e-18
2.1904e-20
3.86955e-22
5.98358e-24
8.01798e-26
9.77015e-28