/*--------------------------------*- C++ -*----------------------------------*\
| =========                 |                                                 |
| \\      /  F ield         | OpenFOAM: The Open Source CFD Toolbox           |
|  \\    /   O peration     | Version:  2412                                  |
|   \\  /    A nd           | Website:  www.openfoam.com                      |
|    \\/     M anipulation  |                                                 |
\*---------------------------------------------------------------------------*/
FoamFile
{
    version     2.0;
    format      ascii;
    arch        "LSB;label=32;scalar=64";
    class       volScalarField;
    location    "93";
    object      p;
}
// * * * * * * * * * * * * * * * * * * * * * * * * * * * * * * * * * * * * * //

dimensions      [1 -1 -2 0 0 0 0];

internalField   nonuniform List<scalar> 
6400
(
20204.9
20224.8
20287
20386.7
20533.2
20711.7
20919.7
21145.3
21382.3
21629.5
21882.8
22138.8
22387.1
22622
22841.8
23047.6
23235.9
23407.3
23553.8
23659.1
23723.4
23764.5
23797.1
23825.2
23822
23761.7
23671.2
23586
23497.9
23387.3
23248.8
23103.6
22960.2
22821.9
22674.5
22475.7
22264.1
22072
21856.3
21651.4
21487.7
21349.6
21195.8
21042.3
20925.8
20843.6
20778.3
20741.2
20745.6
20789.4
20865.8
20978
21122.2
21297
21492.6
21711.5
21946
22192.7
22439.1
22688.3
22933.7
23179.2
23418
23651.8
23869.5
24070.2
24246
24405.6
24543.8
24665
24762.7
24845.3
24911.8
24967.1
25006.5
25030.5
25035.9
25025
24997.2
24948.7
18956
18977.2
19034.1
19131.3
19260.6
19418.6
19603.3
19803.3
20014.6
20239.1
20475.6
20714.7
20947.9
21168.8
21381.6
21583.4
21772.4
21942.1
22086.9
22196.6
22274.6
22332.5
22382.7
22417
22418.2
22376.6
22314.3
22256
22201.2
22122.7
22013.5
21882.7
21748.2
21627.7
21521.9
21374.6
21189.4
21004
20829.3
20665.1
20517.5
20389.2
20266.1
20137.4
20024.5
19944
19889.7
19860.6
19867.4
19903.2
19973
20075.1
20210.3
20367.4
20546.3
20744.1
20959
21177.5
21401.3
21622.4
21847.2
22068.2
22289.4
22497.8
22696.2
22875.5
23041.4
23184.1
23312.8
23420
23514.8
23594.1
23665
23719.4
23759.3
23781.8
23793.1
23786.8
23756.9
23687.1
17674.8
17704.3
17757.9
17845.7
17965
18108.7
18269.4
18443.5
18632.4
18838.8
19054.8
19271.8
19483.4
19691.6
19897.8
20095.9
20278.1
20441
20578.4
20694
20790.1
20873.4
20933
20960.7
20966.3
20962.6
20939.1
20903.9
20864.3
20814.5
20744.6
20647.3
20532.5
20424.8
20333.7
20240.1
20109.2
19959.3
19827.9
19702.8
19560.4
19425.5
19336.5
19254.3
19148.3
19060.7
19010.4
18996.3
18999.9
19029
19093.7
19192.6
19312.8
19452.2
19612.6
19794.9
19985.2
20180.3
20376.1
20576.8
20777.9
20981.3
21175.2
21361.1
21532.5
21696
21843.4
21973.7
22083.8
22181.9
22266.5
22345.3
22413.8
22470.5
22508
22530.3
22537.3
22529.5
22501.5
22430.4
16336.3
16380.9
16446
16533.1
16647.9
16781.3
16931.7
17095.2
17272.7
17464.2
17664
17860.9
18058.7
18259.6
18458.6
18645.6
18818.4
18973
19109.7
19234.5
19350
19446.7
19507.9
19534
19548.2
19566.9
19587.7
19581.9
19549.5
19506.3
19466.2
19410.4
19333.2
19242.7
19154.2
19088.7
19022.3
18932.8
18847.3
18733.2
18580.6
18433.1
18352.9
18315.2
18245.5
18162.9
18115
18097.4
18102.2
18127.5
18184.6
18267.1
18376.5
18503
18651.5
18814.3
18993.4
19174.1
19358.1
19540
19726.5
19905.8
20083
20247.5
20404.1
20544.4
20677.1
20790.7
20891.2
20977.1
21057.4
21129.3
21195.8
21248.3
21287.5
21309.1
21312.1
21297.2
21263.3
21194.9
14927.2
14996.2
15080.5
15178.8
15296.1
15429
15577.5
15738.3
15910.1
16091.2
16276.9
16463
16656.9
16852.7
17038.8
17211.4
17375.3
17531.1
17677.3
17813.6
17934.3
18032.6
18098.5
18137
18161.8
18190.6
18228.9
18255.6
18255.8
18220.3
18183.4
18165.3
18138.2
18090.5
18023
17977.7
17946.5
17881.5
17797.1
17699
17585
17466
17382.8
17344
17300.5
17250.2
17212.3
17193.3
17197
17225.3
17269.4
17339.7
17433.3
17554.2
17693.5
17847.6
18010.6
18184.3
18353.2
18523.3
18688.1
18851.5
19005.6
19155
19292.2
19418.9
19529.5
19632.3
19721.5
19802.5
19875.6
19945.1
20003.9
20052.4
20088.5
20109.8
20111.6
20091.5
20051.2
19983.7
13472.8
13564.1
13667.8
13785.5
13914.7
14054.3
14206.3
14368
14538.5
14714
14897.6
15084.3
15275.3
15460.8
15634.5
15794
15956.9
16123.4
16280.4
16418.4
16537.5
16634.7
16712.9
16770.9
16813.8
16849.3
16889.2
16934.1
16968
16956.9
16932.7
16938.5
16950.1
16942.8
16907.3
16877.5
16840.1
16774.2
16704.4
16640.1
16587.8
16519.3
16437.3
16374.9
16348.5
16323.5
16303.4
16292.9
16302.6
16328.8
16373.5
16441.1
16530.8
16640.1
16771.9
16913.2
17067.3
17221.6
17379
17526.4
17672.8
17816.9
17957.7
18082.9
18202.6
18312.1
18411.4
18498
18577.5
18647.7
18716.5
18779
18833.3
18874.1
18904.7
18920.3
18921.8
18901.3
18858.7
18793.6
11963.2
12080.8
12214.7
12351.7
12494.9
12645.4
12804.8
12971.7
13143.2
13321
13511.6
13704
13889.4
14067.9
14230
14389.4
14560.9
14731.5
14885.9
15025.9
15148.1
15251.5
15344.3
15426.4
15482.9
15521.1
15567.5
15630.4
15679.7
15705.8
15712.8
15737.5
15770
15779.5
15752.1
15730.8
15702
15673.3
15651.4
15620.3
15583.9
15541.7
15472
15419.6
15403.8
15395
15387.2
15390.4
15405.2
15437.6
15487
15563.4
15648.7
15745.8
15857.4
15994.8
16138.3
16279.3
16415.3
16549.6
16673.8
16797
16915.8
17027.4
17124.1
17217.5
17301.5
17378.2
17443.1
17505.3
17563.4
17618.8
17664.4
17700.7
17724.5
17735.8
17736.8
17719.3
17681.4
17622.1
10425.6
10569.5
10736.7
10895.6
11057
11224.8
11399.7
11577.8
11756.1
11942
12137.1
12328.9
12506.5
12680.7
12848.8
13019.8
13191.6
13345
13488.6
13633.2
13769.6
13889.2
13996.7
14091.1
14161.7
14208.5
14261.9
14342.2
14405.3
14456.2
14505.5
14552.9
14590.6
14603
14599.7
14579.4
14580.5
14614.8
14629.6
14607.7
14574.9
14540.8
14504.2
14478.4
14470.9
14467.6
14470.8
14482.6
14508.2
14545.3
14602.6
14679.9
14770.5
14851.6
14948.9
15073.8
15214.9
15344.3
15459.4
15572.3
15688.6
15790.4
15886.2
15975.1
16058.2
16131.3
16201.2
16261.6
16316.7
16366.3
16415.1
16457.7
16494.2
16523.9
16544.4
16555.4
16557.9
16547.3
16518.2
16477.2
8867.03
9044.98
9242.54
9427.99
9614.05
9808.4
10005.4
10199.9
10391.9
10589.8
10783.9
10965.2
11134.1
11309.7
11492.7
11670.8
11832.2
11968.9
12098.9
12246.7
12395.8
12526.3
12644.7
12745.9
12826.8
12909.9
12993.7
13079.8
13140.7
13210.1
13302.7
13360.4
13391.1
13434.4
13474.4
13476.3
13489.1
13557
13603.9
13594.1
13560.6
13540.8
13534.4
13531.7
13530.6
13535.8
13545.6
13566.3
13596.9
13641.4
13698
13773.8
13861.7
13946.4
14028.6
14139
14265
14394.3
14492.7
14583.7
14679.7
14774.9
14849.3
14918.4
14981.9
15042.7
15095
15143
15184.5
15226.3
15265
15299
15326.2
15350.5
15368.4
15381.8
15390
15388.5
15379.2
15363.3
7291.8
7507.36
7740.71
7958.62
8175.3
8398.04
8616.48
8829.57
9035.51
9239.06
9436.69
9618.06
9791.57
9964.44
10146.7
10324.8
10478.9
10618.8
10762.8
10908.9
11053.1
11179.9
11290.5
11388.6
11487.6
11614.5
11746.9
11827.6
11881.5
11973
12097.4
12170.1
12210.7
12273.2
12346.3
12397.2
12443.6
12499.4
12541.8
12549
12530.5
12535.9
12559.8
12574.4
12581.3
12589.6
12605.6
12628.9
12665.8
12710.6
12767
12832.2
12914.1
13004.4
13089.6
13175.2
13281.3
13396.9
13499.4
13575.2
13649.6
13727.5
13795
13847.8
13899.1
13946.5
13990.1
14025.3
14058.4
14090.4
14121.8
14146.2
14165.8
14184.2
14199.6
14218
14233.9
14249.6
14265.2
14282.8
5722.53
5974.63
6254.08
6512.1
6764.85
7009.13
7241.93
7466.11
7681.77
7893.14
8098.88
8289.39
8469.52
8647.92
8822.36
8988.23
9142.13
9303.18
9468.07
9616.29
9743.54
9861.88
9964.56
10065.2
10186.3
10325.6
10462.2
10559.1
10639.2
10744.7
10867.2
10977.7
11066
11136.1
11213.3
11305.6
11383.2
11422.5
11454.4
11493
11509.5
11539.2
11586.9
11618.2
11626.4
11638.9
11652.3
11677.4
11716.2
11765.4
11813.8
11869.8
11942.6
12031.4
12119.1
12198.7
12277.5
12375.9
12480.5
12561.2
12622.1
12684.6
12739.5
12787.2
12827.3
12867.2
12900.5
12928.4
12950.5
12971.9
12989.7
13002.2
13012.4
13024.3
13038.4
13060.7
13089.2
13124.9
13173.1
13221.7
4153.27
4454.56
4791.38
5097.8
5380.88
5642.05
5888.69
6123.72
6347.2
6561.76
6768.44
6964.68
7153.68
7339
7507.11
7661.09
7813.26
7968.63
8130.34
8281.08
8403.87
8522.56
8643.81
8764.45
8894.26
9018.98
9136.2
9258.86
9389.74
9518.68
9637.48
9762.12
9889.9
9994.26
10089.3
10189.9
10269.2
10314.8
10382.5
10470.3
10532.4
10556
10594.2
10644.9
10678.7
10688.6
10698.9
10723.5
10767.9
10813.8
10861.7
10914.3
10987.4
11070
11154.9
11231.2
11304.2
11378.6
11468.9
11549.9
11616.2
11666
11711.7
11748.5
11781.4
11809.5
11834
11850.1
11860.6
11865.4
11865.6
11861.5
11859.8
11865.1
11877.2
11906
11947.1
12008.4
12085.8
12171.3
2567.95
2939.32
3347.11
3699.01
4001.47
4282.71
4542.87
4784.27
5008.97
5220.7
5421.56
5613.22
5796.84
5972.32
6136.49
6287.59
6432.31
6579.12
6725.02
6866.19
7000.89
7132.98
7270.95
7412.18
7549.04
7683.46
7815.59
7956.76
8114.32
8271.95
8410.53
8545.46
8683.22
8818.26
8944.72
9056.34
9147.15
9231.81
9335.73
9449.19
9531.57
9566.86
9596.58
9654.85
9713.8
9756.04
9781.44
9806.68
9847.83
9904.82
9957.3
10007.7
10063.4
10141.3
10222.6
10298.5
10364.5
10427.4
10490.4
10559.8
10619.9
10666.4
10701.1
10730.5
10751.7
10768.9
10778.1
10780
10773.9
10761.6
10742.6
10720.7
10706.3
10702.2
10711.9
10743
10798.7
10879.8
10990.7
11111.9
956.684
1413.93
1893.69
2284
2610.2
2900.52
3164.12
3403.7
3622.24
3824.71
4014.73
4195.62
4367.97
4531.69
4690.99
4845.57
4995.43
5141.46
5286.63
5433.19
5583.59
5732.54
5881.59
6035.49
6194.87
6354.99
6514.9
6674.46
6840.29
7008.74
7172.48
7330.79
7485.88
7635.9
7780.21
7909.99
8029.09
8147.48
8270.88
8384.17
8474.62
8537.28
8598.34
8668.76
8740.01
8807.05
8862.42
8898.39
8941.46
8998.52
9056.67
9100.63
9146.62
9209.02
9283.86
9352.47
9416.14
9469.68
9522.68
9576.76
9629.37
9669.23
9700.23
9721.36
9735.72
9740.07
9734.56
9717.98
9693.44
9661.18
9620.72
9578.97
9546.74
9530.58
9531.99
9564.3
9626.87
9726.77
9870.45
10036.9
-676.682
-117.148
440.626
871.252
1222.72
1517.54
1774.84
2004.32
2213.09
2406.76
2589.13
2762.52
2927.98
3087.68
3244.79
3399.31
3554.16
3709.31
3864.11
4019.01
4177.87
4341.31
4506.39
4674.32
4846.46
5022.45
5201.69
5383.54
5567.12
5751.84
5933.31
6111.85
6285.5
6454.22
6614.7
6765.76
6907.15
7044.48
7174.93
7294.42
7396.1
7484.6
7566.96
7650.64
7730.48
7809.45
7873.3
7923.39
7972.52
8031.41
8082.74
8126.03
8170.15
8230.6
8296.72
8362.25
8421.05
8477.86
8529.26
8581.79
8628.7
8668.7
8697.07
8716.58
8724.35
8719.71
8698.68
8663.45
8617.51
8562.75
8499.91
8434.66
8381.38
8344.08
8332.48
8355.34
8420.67
8532.61
8716.8
8930.47
-2309.55
-1622.43
-957.261
-470.276
-103.725
186.377
428.606
639.712
830.807
1009.11
1178.73
1342.64
1501.31
1655
1807.04
1959.75
2112.33
2266.89
2424.31
2585.25
2751.82
2924.37
3102.38
3286.04
3476.28
3671.98
3872.56
4076.01
4281.6
4486.58
4689.31
4887.69
5081.56
5268.3
5447.44
5616.33
5776.8
5927.67
6070.08
6199.55
6316.56
6419.87
6515.83
6604.2
6688.51
6765.71
6834.41
6891.5
6948.68
7005.06
7058.55
7104.78
7155.6
7212
7275.8
7338.01
7400.88
7460.04
7518.42
7572.45
7623.07
7663.49
7693.85
7711.39
7717.37
7706.95
7675.37
7622.87
7554.24
7474.75
7384.39
7292.55
7209
7144.45
7106.17
7112.01
7165.98
7292.14
7511.68
7779.83
-3976.14
-3104.47
-2291.03
-1752.19
-1384.49
-1115.45
-905.611
-729.267
-569.689
-418.275
-270.229
-123.58
22.2517
167.018
312.379
460.084
611.224
767.552
930.316
1100.38
1278.79
1466.17
1662.07
1866.46
2078.87
2298.81
2524.29
2753.67
2983.74
3212.17
3436.03
3656.01
3870.31
4077.92
4275.68
4463.79
4640.59
4807.36
4961.55
5104.14
5232.38
5349.23
5454
5550.83
5637.57
5718.1
5788.27
5852.68
5911.35
5969.98
6023.79
6077.52
6131.16
6191.41
6253.83
6319.67
6383.11
6447.2
6508.29
6569.13
6624.59
6672.03
6705.66
6726.21
6733.6
6725.17
6692.54
6632.13
6548.61
6445.71
6327.06
6198.4
6075.76
5965.57
5885.89
5851.07
5879.91
6002.52
6255.52
6573.57
-5766.28
-4456.58
-3424.74
-2843.82
-2483.17
-2233.46
-2046.6
-1891.83
-1753.24
-1621.53
-1492.63
-1364.04
-1235.59
-1106.79
-977.224
-845.043
-708.494
-565.017
-413.089
-251.394
-79.1065
104.941
301.454
510.417
731.004
962.816
1204.81
1454.3
1707.91
1959.7
2205.07
2443.22
2675.61
2898.55
3111.63
3312.48
3502.35
3679.99
3846.69
3999.68
4140.9
4268.01
4384.4
4488.23
4583.4
4668.3
4746.39
4815.26
4880.21
4939.02
4996.54
5051.08
5109.43
5169.91
5236.12
5302.48
5370.12
5435.56
5502.1
5567.83
5635.59
5699.17
5754.08
5794.45
5821.58
5835.37
5821.94
5762.65
5652.59
5502.41
5322.73
5133.8
4948.27
4780.7
4642.03
4555.52
4539.3
4640.15
4919.45
5335.21
-6896.67
-4537.01
-3250.07
-2642.31
-2267.5
-2002.9
-1802.99
-1644.08
-1512.54
-1401.77
-1306.14
-1222.05
-1145.73
-1075.11
-1007.73
-942.375
-876.648
-809.156
-737.596
-660.678
-576.325
-482.647
-376.877
-257.013
-121.115
33.462
208.912
406.83
626.159
858.416
1092.79
1322.18
1547.95
1765.23
1975.33
2178.38
2371.08
2555
2727.04
2887.86
3035.64
3172.52
3296.65
3411.05
3513.63
3608.64
3693.18
3770.95
3839.63
3904.51
3963.8
4023.82
4083.58
4148.84
4216.56
4289.32
4362.09
4438.18
4515.32
4598.66
4690.99
4791.29
4882.11
4934.89
4932.18
4874.63
4745.19
4506.95
4186.68
3849.83
3539.68
3272.52
3059.55
2894.64
2785.25
2730.67
2746.45
2866.79
3218.67
3898.3
-3642.74
-1656.9
-1014.66
-739.474
-563.916
-445.183
-361.931
-302.499
-259.973
-229.54
-207.811
-192.122
-180.758
-172.002
-165.217
-159.646
-154.914
-150.715
-146.709
-142.285
-136.898
-129.602
-119.292
-104.298
-82.608
-51.6742
-8.35973
50.3646
124.704
219.055
335.189
464.901
610.551
774.338
953.588
1132.69
1305.5
1472.64
1628.36
1778.7
1925.08
2062.35
2191.73
2310.95
2422.36
2524.25
2619.49
2704.61
2783.1
2853.41
2921.05
2985.45
3052.86
3123.03
3201.51
3286.45
3379.89
3478.02
3575.72
3658.24
3713.56
3734.01
3674.28
3458.49
3090.15
2656.46
2200.92
1773.37
1396.41
1115.04
911.003
770.447
682.165
635.949
625.764
649.539
701.675
794.288
994.649
1553.78
-90.998
-10.042
-10.0431
-10.0457
-10.0478
-10.0493
-10.0497
-10.0491
-10.0483
-10.0472
-10.0454
-10.0466
-10.0478
-10.048
-10.0495
-10.05
-10.0503
-10.0505
-10.0505
-10.0507
-10.051
-10.05
-10.0514
-10.0544
-10.0562
-10.057
-10.0573
-10.0575
-10.0363
-2.79035
19.4853
55.7891
107.787
183.5
274.792
368.159
457.248
546.749
646.726
761.933
882.226
1001.5
1114.98
1224.41
1327.86
1430.44
1527.98
1620.88
1705.58
1786.91
1864.12
1942.21
2021.27
2106.58
2192.69
2276.94
2352.17
2405.56
2397.67
2286.78
2072.82
1773.28
1393.14
978.803
612.39
329.588
119.961
32.9111
-2.19923
-10.0967
-10.0988
-10.1
-10.1009
-10.1018
-10.1023
-10.1027
-9.71706
-7.33674
-5.91086
11.7385
-10.5383
-10.533
-10.533
-10.5314
-10.5304
-10.53
-10.5298
-10.53
-10.5314
-10.5341
-10.5353
-10.5355
-10.5347
-10.5355
-10.5389
-10.5406
-10.5408
-10.5409
-10.5412
-10.5415
-10.5419
-10.5425
-10.5431
-10.545
-10.5465
-10.5474
-10.548
-10.5483
-10.5489
-10.5487
-10.5456
-10.5478
-10.5543
-9.43075
-1.28003
18.2159
47.3968
80.6427
121.064
156.258
189.19
222.247
260.347
306.851
371.123
447.62
532.092
615.636
696.901
775.946
855.678
930.759
1002.27
1061.22
1099.99
1103.38
1058.5
950.827
777.139
566.294
368.407
189.182
45.8544
-10.5739
-10.5842
-10.5883
-10.5908
-10.592
-10.5926
-10.5931
-10.5934
-10.5936
-10.5938
-10.5942
-10.5944
-10.5945
-10.5946
-10.5947
-10.5948
-10.5943
-11.0243
-11.0229
-11.0249
-11.025
-11.0249
-11.0249
-11.0251
-11.0253
-11.0256
-11.0263
-11.0265
-11.0267
-11.0269
-11.0282
-11.0302
-11.031
-11.0313
-11.0316
-11.0319
-11.0319
-11.0319
-11.0327
-11.0338
-11.0354
-11.0365
-11.0373
-11.038
-11.039
-11.0398
-11.04
-11.0392
-11.0407
-11.0444
-11.0475
-11.0478
-11.048
-11.0488
-11.0498
-11.4581
-13.4996
-14.3031
-12.8557
-11.1506
-7.37432
-0.844693
11.6303
30.7678
59.9812
93.8772
134.931
175.773
211.454
232.057
232.584
211.28
173.136
117.933
55.5271
2.27601
-11.0633
-11.0714
-11.0761
-11.0795
-11.0808
-11.0813
-11.0819
-11.0824
-11.0829
-11.0832
-11.0836
-11.0839
-11.0841
-11.0844
-11.0846
-11.0848
-11.085
-11.0851
-11.0852
-11.0852
-11.0852
-11.5148
-11.514
-11.5148
-11.515
-11.5152
-11.5154
-11.5157
-11.516
-11.5163
-11.5168
-11.517
-11.5172
-11.5176
-11.5187
-11.5203
-11.5209
-11.5213
-11.5219
-11.5225
-11.523
-11.5231
-11.5238
-11.525
-11.5265
-11.5273
-11.5279
-11.5286
-11.5297
-11.5304
-11.5309
-11.5322
-11.5335
-11.5363
-11.5376
-11.5381
-11.5386
-11.5395
-11.5404
-11.5413
-11.5427
-11.5447
-11.5471
-11.5503
-11.5563
-14.6652
-20.6207
-25.4818
-27.3806
-25.5305
-21.738
-16.8934
-12.887
-11.0833
-11.4676
-11.5585
-11.56
-11.5623
-11.5648
-11.5671
-11.5682
-11.569
-11.5698
-11.5708
-11.5714
-11.5718
-11.5723
-11.5728
-11.5732
-11.5737
-11.574
-11.5743
-11.5746
-11.5749
-11.5751
-11.5753
-11.5755
-11.5756
-11.5756
-11.5757
-11.5757
-12.0057
-12.0051
-12.0053
-12.0055
-12.0057
-12.0059
-12.0062
-12.0065
-12.0068
-12.0071
-12.0075
-12.0078
-12.0083
-12.0094
-12.0106
-12.0112
-12.0116
-12.0121
-12.0127
-12.0134
-12.0139
-12.0146
-12.0156
-12.0169
-12.0177
-12.0184
-12.0192
-12.0202
-12.021
-12.0219
-12.0228
-12.0239
-12.0263
-12.0276
-12.0284
-12.0292
-12.0301
-12.031
-12.0319
-12.0331
-12.0347
-12.036
-12.0373
-12.0387
-12.0401
-12.042
-12.044
-12.0458
-12.0473
-12.0485
-12.0495
-12.0504
-12.0514
-12.0525
-12.0535
-12.0547
-12.0558
-12.0569
-12.058
-12.0588
-12.0595
-12.0603
-12.061
-12.0616
-12.0622
-12.0627
-12.0632
-12.0637
-12.0641
-12.0644
-12.0648
-12.0651
-12.0653
-12.0656
-12.0658
-12.0659
-12.066
-12.0661
-12.0661
-12.0661
-12.496
-12.4958
-12.4958
-12.496
-12.4962
-12.4964
-12.4967
-12.497
-12.4973
-12.4977
-12.4981
-12.4985
-12.4991
-12.4999
-12.5007
-12.5014
-12.502
-12.5026
-12.5031
-12.5038
-12.5045
-12.5053
-12.5062
-12.5072
-12.5081
-12.509
-12.5098
-12.5107
-12.5116
-12.5126
-12.5137
-12.515
-12.5164
-12.5177
-12.5188
-12.5197
-12.5207
-12.5217
-12.5229
-12.5241
-12.5253
-12.5265
-12.5278
-12.5291
-12.5305
-12.532
-12.5335
-12.5349
-12.5363
-12.5377
-12.5391
-12.5404
-12.5417
-12.5429
-12.544
-12.5452
-12.5463
-12.5472
-12.5481
-12.549
-12.5498
-12.5506
-12.5513
-12.5519
-12.5525
-12.5531
-12.5536
-12.554
-12.5545
-12.5549
-12.5552
-12.5555
-12.5558
-12.556
-12.5562
-12.5564
-12.5565
-12.5565
-12.5566
-12.5566
-12.9864
-12.9863
-12.9864
-12.9865
-12.9867
-12.9869
-12.9872
-12.9875
-12.9878
-12.9882
-12.9886
-12.9891
-12.9897
-12.9904
-12.991
-12.9917
-12.9924
-12.993
-12.9936
-12.9943
-12.9951
-12.9959
-12.9967
-12.9976
-12.9985
-12.9994
-13.0003
-13.0012
-13.0022
-13.0032
-13.0044
-13.0056
-13.0068
-13.0081
-13.0092
-13.0103
-13.0113
-13.0124
-13.0136
-13.0148
-13.016
-13.0173
-13.0187
-13.02
-13.0214
-13.0227
-13.024
-13.0254
-13.0268
-13.0282
-13.0295
-13.0308
-13.032
-13.0332
-13.0343
-13.0354
-13.0365
-13.0375
-13.0384
-13.0393
-13.0401
-13.0409
-13.0416
-13.0423
-13.0429
-13.0434
-13.0439
-13.0444
-13.0448
-13.0452
-13.0456
-13.0459
-13.0462
-13.0464
-13.0466
-13.0468
-13.0469
-13.047
-13.047
-13.047
-13.4768
-13.4768
-13.4769
-13.477
-13.4772
-13.4774
-13.4777
-13.478
-13.4783
-13.4788
-13.4792
-13.4797
-13.4802
-13.4809
-13.4815
-13.4822
-13.4828
-13.4835
-13.4841
-13.4848
-13.4856
-13.4864
-13.4872
-13.4881
-13.489
-13.4899
-13.4908
-13.4918
-13.4928
-13.4938
-13.4949
-13.4961
-13.4973
-13.4985
-13.4996
-13.5008
-13.5019
-13.5031
-13.5043
-13.5055
-13.5068
-13.508
-13.5093
-13.5107
-13.512
-13.5133
-13.5146
-13.516
-13.5173
-13.5187
-13.52
-13.5212
-13.5224
-13.5236
-13.5247
-13.5258
-13.5268
-13.5278
-13.5287
-13.5296
-13.5304
-13.5312
-13.5319
-13.5326
-13.5332
-13.5337
-13.5343
-13.5347
-13.5352
-13.5356
-13.5359
-13.5363
-13.5365
-13.5368
-13.537
-13.5371
-13.5373
-13.5373
-13.5374
-13.5374
-13.9673
-13.9674
-13.9675
-13.9676
-13.9677
-13.968
-13.9682
-13.9685
-13.9689
-13.9693
-13.9697
-13.9702
-13.9708
-13.9713
-13.972
-13.9726
-13.9732
-13.9739
-13.9746
-13.9753
-13.9761
-13.9769
-13.9777
-13.9786
-13.9795
-13.9804
-13.9813
-13.9823
-13.9833
-13.9844
-13.9855
-13.9866
-13.9878
-13.9889
-13.9901
-13.9913
-13.9925
-13.9937
-13.9949
-13.9961
-13.9974
-13.9987
-14
-14.0013
-14.0026
-14.0039
-14.0053
-14.0066
-14.0079
-14.0092
-14.0104
-14.0116
-14.0128
-14.0139
-14.015
-14.0161
-14.0171
-14.0181
-14.019
-14.0199
-14.0207
-14.0214
-14.0222
-14.0228
-14.0235
-14.024
-14.0246
-14.0251
-14.0255
-14.0259
-14.0263
-14.0266
-14.0269
-14.0271
-14.0273
-14.0275
-14.0276
-14.0277
-14.0277
-14.0277
-14.4579
-14.4579
-14.458
-14.4581
-14.4583
-14.4585
-14.4588
-14.4591
-14.4594
-14.4598
-14.4603
-14.4608
-14.4613
-14.4618
-14.4624
-14.4631
-14.4637
-14.4644
-14.4651
-14.4658
-14.4666
-14.4674
-14.4682
-14.4691
-14.47
-14.4709
-14.4718
-14.4728
-14.4738
-14.4749
-14.476
-14.4771
-14.4782
-14.4794
-14.4806
-14.4818
-14.483
-14.4842
-14.4855
-14.4867
-14.488
-14.4893
-14.4906
-14.492
-14.4933
-14.4945
-14.4958
-14.4971
-14.4984
-14.4996
-14.5008
-14.502
-14.5032
-14.5043
-14.5054
-14.5064
-14.5074
-14.5084
-14.5093
-14.5101
-14.5109
-14.5117
-14.5124
-14.5131
-14.5137
-14.5143
-14.5148
-14.5153
-14.5158
-14.5162
-14.5166
-14.5169
-14.5172
-14.5174
-14.5176
-14.5178
-14.5179
-14.518
-14.518
-14.518
-14.9484
-14.9485
-14.9486
-14.9487
-14.9489
-14.9491
-14.9493
-14.9496
-14.95
-14.9504
-14.9508
-14.9513
-14.9518
-14.9524
-14.9529
-14.9536
-14.9542
-14.9549
-14.9556
-14.9563
-14.9571
-14.9579
-14.9587
-14.9596
-14.9604
-14.9614
-14.9623
-14.9633
-14.9643
-14.9654
-14.9664
-14.9676
-14.9687
-14.9699
-14.971
-14.9722
-14.9735
-14.9747
-14.976
-14.9773
-14.9786
-14.98
-14.9813
-14.9826
-14.9839
-14.9851
-14.9864
-14.9876
-14.9888
-14.99
-14.9912
-14.9924
-14.9935
-14.9946
-14.9957
-14.9967
-14.9977
-14.9986
-14.9995
-15.0004
-15.0012
-15.002
-15.0027
-15.0033
-15.004
-15.0046
-15.0051
-15.0056
-15.006
-15.0065
-15.0068
-15.0071
-15.0074
-15.0077
-15.0079
-15.008
-15.0082
-15.0082
-15.0083
-15.0083
-15.439
-15.439
-15.4391
-15.4393
-15.4394
-15.4396
-15.4399
-15.4402
-15.4405
-15.4409
-15.4414
-15.4418
-15.4424
-15.4429
-15.4435
-15.4441
-15.4447
-15.4454
-15.4461
-15.4468
-15.4476
-15.4484
-15.4492
-15.45
-15.4509
-15.4518
-15.4528
-15.4538
-15.4548
-15.4558
-15.4569
-15.458
-15.4591
-15.4603
-15.4615
-15.4627
-15.4639
-15.4652
-15.4666
-15.4679
-15.4692
-15.4706
-15.4719
-15.4732
-15.4745
-15.4757
-15.4769
-15.4781
-15.4793
-15.4805
-15.4817
-15.4828
-15.4839
-15.485
-15.486
-15.487
-15.488
-15.4889
-15.4898
-15.4906
-15.4914
-15.4922
-15.4929
-15.4936
-15.4942
-15.4948
-15.4953
-15.4958
-15.4963
-15.4967
-15.4971
-15.4974
-15.4977
-15.4979
-15.4981
-15.4983
-15.4984
-15.4985
-15.4985
-15.4985
-15.9296
-15.9296
-15.9297
-15.9298
-15.93
-15.9302
-15.9305
-15.9308
-15.9311
-15.9315
-15.9319
-15.9324
-15.9329
-15.9334
-15.934
-15.9346
-15.9352
-15.9359
-15.9366
-15.9373
-15.9381
-15.9388
-15.9397
-15.9405
-15.9414
-15.9423
-15.9432
-15.9442
-15.9452
-15.9462
-15.9473
-15.9484
-15.9495
-15.9506
-15.9518
-15.9531
-15.9544
-15.9557
-15.9571
-15.9584
-15.9598
-15.9612
-15.9625
-15.9638
-15.9651
-15.9663
-15.9675
-15.9687
-15.9698
-15.971
-15.9721
-15.9732
-15.9743
-15.9753
-15.9763
-15.9773
-15.9783
-15.9792
-15.9801
-15.9809
-15.9817
-15.9824
-15.9831
-15.9838
-15.9844
-15.985
-15.9855
-15.986
-15.9865
-15.9869
-15.9873
-15.9876
-15.9879
-15.9881
-15.9883
-15.9885
-15.9886
-15.9887
-15.9887
-15.9887
-16.4202
-16.4202
-16.4203
-16.4204
-16.4206
-16.4208
-16.421
-16.4213
-16.4217
-16.4221
-16.4225
-16.4229
-16.4234
-16.424
-16.4245
-16.4251
-16.4257
-16.4264
-16.4271
-16.4278
-16.4286
-16.4293
-16.4301
-16.431
-16.4319
-16.4328
-16.4337
-16.4346
-16.4356
-16.4366
-16.4377
-16.4387
-16.4398
-16.441
-16.4421
-16.4434
-16.4447
-16.4461
-16.4475
-16.449
-16.4504
-16.4518
-16.4532
-16.4545
-16.4557
-16.4569
-16.4581
-16.4592
-16.4603
-16.4614
-16.4625
-16.4636
-16.4646
-16.4657
-16.4666
-16.4676
-16.4685
-16.4694
-16.4703
-16.4711
-16.4719
-16.4726
-16.4733
-16.474
-16.4746
-16.4752
-16.4757
-16.4762
-16.4766
-16.4771
-16.4774
-16.4778
-16.478
-16.4783
-16.4785
-16.4786
-16.4788
-16.4789
-16.4789
-16.4789
-16.9108
-16.9108
-16.9109
-16.911
-16.9112
-16.9114
-16.9116
-16.9119
-16.9123
-16.9126
-16.9131
-16.9135
-16.914
-16.9145
-16.9151
-16.9156
-16.9163
-16.9169
-16.9176
-16.9183
-16.919
-16.9198
-16.9206
-16.9215
-16.9223
-16.9232
-16.9241
-16.9251
-16.926
-16.927
-16.928
-16.929
-16.9301
-16.9312
-16.9324
-16.9336
-16.935
-16.9364
-16.938
-16.9395
-16.941
-16.9425
-16.9439
-16.9452
-16.9464
-16.9476
-16.9487
-16.9498
-16.9509
-16.9519
-16.9529
-16.954
-16.955
-16.956
-16.957
-16.9579
-16.9588
-16.9597
-16.9605
-16.9613
-16.9621
-16.9628
-16.9635
-16.9641
-16.9648
-16.9653
-16.9659
-16.9663
-16.9668
-16.9672
-16.9676
-16.9679
-16.9682
-16.9684
-16.9686
-16.9688
-16.9689
-16.969
-16.969
-16.969
-17.4014
-17.4014
-17.4015
-17.4016
-17.4018
-17.402
-17.4022
-17.4025
-17.4029
-17.4032
-17.4036
-17.4041
-17.4045
-17.4051
-17.4056
-17.4062
-17.4068
-17.4074
-17.4081
-17.4088
-17.4095
-17.4103
-17.4111
-17.4119
-17.4128
-17.4136
-17.4145
-17.4154
-17.4164
-17.4173
-17.4183
-17.4193
-17.4203
-17.4214
-17.4225
-17.4237
-17.4251
-17.4267
-17.4284
-17.4301
-17.4317
-17.4333
-17.4347
-17.4359
-17.4371
-17.4382
-17.4393
-17.4404
-17.4414
-17.4424
-17.4434
-17.4444
-17.4454
-17.4463
-17.4473
-17.4482
-17.449
-17.4499
-17.4507
-17.4515
-17.4522
-17.453
-17.4536
-17.4543
-17.4549
-17.4555
-17.456
-17.4565
-17.4569
-17.4573
-17.4577
-17.458
-17.4583
-17.4585
-17.4587
-17.4589
-17.459
-17.4591
-17.4591
-17.4591
-17.892
-17.8921
-17.8921
-17.8922
-17.8924
-17.8926
-17.8928
-17.8931
-17.8934
-17.8938
-17.8942
-17.8946
-17.8951
-17.8956
-17.8962
-17.8967
-17.8973
-17.898
-17.8986
-17.8993
-17.9001
-17.9008
-17.9016
-17.9024
-17.9032
-17.9041
-17.9049
-17.9058
-17.9067
-17.9076
-17.9085
-17.9095
-17.9105
-17.9115
-17.9125
-17.9137
-17.9151
-17.917
-17.919
-17.9208
-17.9225
-17.9242
-17.9256
-17.9268
-17.9279
-17.9289
-17.93
-17.931
-17.9319
-17.9329
-17.9338
-17.9348
-17.9357
-17.9366
-17.9375
-17.9384
-17.9393
-17.9401
-17.9409
-17.9417
-17.9424
-17.9431
-17.9438
-17.9444
-17.945
-17.9456
-17.9461
-17.9466
-17.947
-17.9474
-17.9477
-17.9481
-17.9483
-17.9486
-17.9488
-17.9489
-17.9491
-17.9492
-17.9492
-17.9492
-18.3827
-18.3827
-18.3828
-18.3829
-18.383
-18.3832
-18.3835
-18.3837
-18.3841
-18.3844
-18.3848
-18.3852
-18.3857
-18.3862
-18.3867
-18.3873
-18.3879
-18.3885
-18.3892
-18.3898
-18.3906
-18.3913
-18.3921
-18.3928
-18.3937
-18.3945
-18.3953
-18.3962
-18.397
-18.3979
-18.3988
-18.3997
-18.4006
-18.4015
-18.4024
-18.4034
-18.4045
-18.4065
-18.4096
-18.4117
-18.4137
-18.4154
-18.4167
-18.4178
-18.4188
-18.4197
-18.4207
-18.4216
-18.4225
-18.4234
-18.4243
-18.4252
-18.4261
-18.4269
-18.4278
-18.4287
-18.4295
-18.4303
-18.4311
-18.4318
-18.4325
-18.4332
-18.4339
-18.4345
-18.4351
-18.4356
-18.4361
-18.4366
-18.437
-18.4374
-18.4378
-18.4381
-18.4384
-18.4386
-18.4388
-18.439
-18.4391
-18.4392
-18.4392
-18.4392
-18.8733
-18.8733
-18.8734
-18.8735
-18.8737
-18.8739
-18.8741
-18.8744
-18.8747
-18.875
-18.8754
-18.8758
-18.8763
-18.8768
-18.8773
-18.8778
-18.8784
-18.879
-18.8797
-18.8804
-18.8811
-18.8818
-18.8825
-18.8833
-18.8841
-18.8849
-18.8857
-18.8865
-18.8873
-18.8882
-18.889
-18.8898
-18.8906
-18.8914
-18.8922
-18.8929
-18.8934
-18.8942
-18.8989
-18.9027
-18.9052
-18.907
-18.908
-18.9089
-18.9098
-18.9106
-18.9114
-18.9122
-18.913
-18.9139
-18.9147
-18.9156
-18.9164
-18.9172
-18.9181
-18.9189
-18.9197
-18.9205
-18.9212
-18.9219
-18.9226
-18.9233
-18.924
-18.9246
-18.9251
-18.9257
-18.9262
-18.9266
-18.9271
-18.9275
-18.9278
-18.9281
-18.9284
-18.9286
-18.9288
-18.929
-18.9291
-18.9292
-18.9292
-18.9292
-19.364
-19.364
-19.3641
-19.3642
-19.3643
-19.3645
-19.3648
-19.365
-19.3653
-19.3657
-19.366
-19.3664
-19.3669
-19.3674
-19.3679
-19.3684
-19.369
-19.3696
-19.3702
-19.3709
-19.3716
-19.3723
-19.373
-19.3738
-19.3745
-19.3753
-19.3761
-19.3769
-19.3776
-19.3784
-19.3792
-19.3799
-19.3807
-19.3814
-19.382
-19.3826
-19.383
-19.3827
-19.3842
-19.3931
-19.397
-19.3988
-19.3995
-19.4001
-19.4009
-19.4015
-19.4022
-19.4029
-19.4036
-19.4044
-19.4051
-19.4059
-19.4067
-19.4075
-19.4083
-19.4091
-19.4099
-19.4106
-19.4113
-19.412
-19.4127
-19.4134
-19.414
-19.4146
-19.4152
-19.4157
-19.4162
-19.4166
-19.4171
-19.4174
-19.4178
-19.4181
-19.4184
-19.4186
-19.4188
-19.4189
-19.4191
-19.4191
-19.4192
-19.4192
-19.8546
-19.8547
-19.8547
-19.8548
-19.855
-19.8552
-19.8554
-19.8557
-19.856
-19.8563
-19.8567
-19.8571
-19.8575
-19.858
-19.8585
-19.859
-19.8596
-19.8602
-19.8608
-19.8614
-19.8621
-19.8628
-19.8635
-19.8642
-19.865
-19.8657
-19.8665
-19.8672
-19.868
-19.8687
-19.8694
-19.8701
-19.8707
-19.8713
-19.8719
-19.8724
-19.8729
-19.8726
-19.8737
-19.8831
-19.8879
-19.8908
-19.891
-19.8915
-19.892
-19.8924
-19.8929
-19.8935
-19.8941
-19.8948
-19.8955
-19.8963
-19.897
-19.8978
-19.8985
-19.8993
-19.9
-19.9007
-19.9014
-19.9021
-19.9028
-19.9034
-19.904
-19.9046
-19.9052
-19.9057
-19.9062
-19.9066
-19.907
-19.9074
-19.9077
-19.908
-19.9083
-19.9085
-19.9087
-19.9089
-19.909
-19.9091
-19.9091
-19.9091
-20.3453
-20.3453
-20.3454
-20.3455
-20.3457
-20.3458
-20.3461
-20.3463
-20.3466
-20.3469
-20.3473
-20.3477
-20.3481
-20.3486
-20.3491
-20.3496
-20.3502
-20.3507
-20.3513
-20.352
-20.3526
-20.3533
-20.354
-20.3547
-20.3554
-20.3561
-20.3568
-20.3576
-20.3583
-20.3589
-20.3596
-20.3602
-20.3608
-20.3613
-20.3617
-20.3621
-20.3625
-20.367
-20.4291
-20.3936
-20.3814
-20.3849
-20.3821
-20.3827
-20.3829
-20.3832
-20.3836
-20.3841
-20.3846
-20.3852
-20.3859
-20.3866
-20.3873
-20.388
-20.3887
-20.3894
-20.3901
-20.3908
-20.3915
-20.3922
-20.3928
-20.3934
-20.394
-20.3946
-20.3951
-20.3956
-20.3961
-20.3965
-20.3969
-20.3973
-20.3977
-20.398
-20.3982
-20.3984
-20.3986
-20.3988
-20.3989
-20.399
-20.399
-20.399
-20.836
-20.836
-20.8361
-20.8362
-20.8363
-20.8365
-20.8367
-20.837
-20.8373
-20.8376
-20.8379
-20.8383
-20.8388
-20.8392
-20.8397
-20.8402
-20.8407
-20.8413
-20.8419
-20.8425
-20.8431
-20.8438
-20.8445
-20.8452
-20.8458
-20.8465
-20.8472
-20.8479
-20.8486
-20.8492
-20.8498
-20.8504
-20.8509
-20.8513
-20.8516
-20.8517
-20.8518
-21.0189
-21.1939
-21.0744
-21.0476
-20.8825
-20.864
-20.8737
-20.8737
-20.8739
-20.8742
-20.8746
-20.8751
-20.8756
-20.8762
-20.8768
-20.8775
-20.8782
-20.8788
-20.8795
-20.8802
-20.8809
-20.8815
-20.8822
-20.8828
-20.8834
-20.884
-20.8845
-20.8851
-20.8856
-20.886
-20.8864
-20.8868
-20.8872
-20.8875
-20.8878
-20.8881
-20.8883
-20.8885
-20.8886
-20.8887
-20.8888
-20.8889
-20.8889
-21.3267
-21.3267
-21.3268
-21.3269
-21.327
-21.3272
-21.3274
-21.3277
-21.328
-21.3283
-21.3286
-21.329
-21.3294
-21.3298
-21.3303
-21.3308
-21.3313
-21.3319
-21.3325
-21.3331
-21.3337
-21.3343
-21.335
-21.3356