/*--------------------------------*- C++ -*----------------------------------*\
| =========                 |                                                 |
| \\      /  F ield         | OpenFOAM: The Open Source CFD Toolbox           |
|  \\    /   O peration     | Version:  2412                                  |
|   \\  /    A nd           | Website:  www.openfoam.com                      |
|    \\/     M anipulation  |                                                 |
\*---------------------------------------------------------------------------*/
FoamFile
{
    version     2.0;
    format      ascii;
    arch        "LSB;label=32;scalar=64";
    class       volVectorField;
    location    "93";
    object      U;
}
// * * * * * * * * * * * * * * * * * * * * * * * * * * * * * * * * * * * * * //

dimensions      [0 1 -1 0 0 0 0];

internalField   nonuniform List<vector> 
6400
(
(-7.6554e-08 1.30064e-07 0)
(-8.55175e-07 1.86229e-07 0)
(-1.67108e-06 2.29734e-07 0)
(-2.24811e-06 1.33237e-07 0)
(-2.31571e-06 2.02034e-08 0)
(-1.66274e-06 -1.16052e-07 0)
(-2.24491e-07 -2.12657e-07 0)
(2.03085e-06 -3.13634e-07 0)
(5.0056e-06 -3.77511e-07 0)
(8.66219e-06 -4.87476e-07 0)
(1.29367e-05 -5.72412e-07 0)
(1.78106e-05 -6.59642e-07 0)
(2.31737e-05 -6.68168e-07 0)
(2.89395e-05 -7.02392e-07 0)
(3.49651e-05 -6.93285e-07 0)
(4.12249e-05 -7.43889e-07 0)
(4.76175e-05 -7.33796e-07 0)
(5.4145e-05 -7.56738e-07 0)
(6.06968e-05 -7.50278e-07 0)
(6.71974e-05 -7.36023e-07 0)
(7.34839e-05 -6.65101e-07 0)
(7.9519e-05 -6.33077e-07 0)
(8.52379e-05 -5.54303e-07 0)
(9.07993e-05 -5.31355e-07 0)
(9.60011e-05 -5.23872e-07 0)
(0.000100854 -5.53037e-07 0)
(0.000105203 -3.79669e-07 0)
(0.000108893 -2.67699e-07 0)
(0.000112122 -2.14316e-07 0)
(0.000114894 -1.36248e-07 0)
(0.000116957 3.1552e-08 0)
(0.000118346 2.50144e-08 0)
(0.000119012 -4.99767e-08 0)
(0.000119226 -4.90951e-08 0)
(0.00011882 2.32339e-07 0)
(0.00011743 4.24264e-07 0)
(0.000115636 4.19682e-07 0)
(0.000112951 2.92921e-07 0)
(0.000109556 5.72844e-07 0)
(0.000105307 7.57171e-07 0)
(0.000100515 7.30238e-07 0)
(9.52549e-05 7.40767e-07 0)
(8.94059e-05 8.03489e-07 0)
(8.32521e-05 8.92211e-07 0)
(7.65768e-05 1.01456e-06 0)
(6.9552e-05 1.00142e-06 0)
(6.22695e-05 1.07619e-06 0)
(5.47891e-05 1.06567e-06 0)
(4.72792e-05 1.10302e-06 0)
(3.97461e-05 1.04686e-06 0)
(3.24123e-05 1.06887e-06 0)
(2.52135e-05 9.5931e-07 0)
(1.84239e-05 9.45213e-07 0)
(1.19289e-05 8.10477e-07 0)
(5.97184e-06 8.04448e-07 0)
(4.06334e-07 6.37904e-07 0)
(-4.44231e-06 6.08142e-07 0)
(-8.76473e-06 4.20279e-07 0)
(-1.23069e-05 4.12298e-07 0)
(-1.53729e-05 2.27161e-07 0)
(-1.76668e-05 2.26181e-07 0)
(-1.94816e-05 4.18124e-08 0)
(-2.05227e-05 6.97947e-08 0)
(-2.11186e-05 -1.17186e-07 0)
(-2.09636e-05 -9.87178e-08 0)
(-2.04513e-05 -2.61273e-07 0)
(-1.93765e-05 -1.62291e-07 0)
(-1.8161e-05 -2.78881e-07 0)
(-1.65359e-05 -1.87787e-07 0)
(-1.48599e-05 -3.02583e-07 0)
(-1.29195e-05 -2.13527e-07 0)
(-1.10727e-05 -3.17037e-07 0)
(-9.12377e-06 -2.44963e-07 0)
(-7.33099e-06 -3.00608e-07 0)
(-5.53108e-06 -1.87807e-07 0)
(-3.96167e-06 -1.96235e-07 0)
(-2.52067e-06 -1.34956e-07 0)
(-1.35797e-06 -1.95347e-07 0)
(-3.96094e-07 -2.008e-07 0)
(-7.82072e-08 -6.76062e-08 0)
(-5.69112e-08 8.03908e-07 0)
(-1.51873e-06 1.46819e-06 0)
(-2.74802e-06 1.43176e-06 0)
(-3.14914e-06 6.41365e-07 0)
(-2.04998e-06 -7.38017e-07 0)
(9.14828e-07 -2.31344e-06 0)
(5.97883e-06 -3.94718e-06 0)
(1.31179e-05 -5.44778e-06 0)
(2.2238e-05 -6.93815e-06 0)
(3.31606e-05 -8.28031e-06 0)
(4.58498e-05 -9.58659e-06 0)
(6.00592e-05 -1.05655e-05 0)
(7.56268e-05 -1.14026e-05 0)
(9.2173e-05 -1.19518e-05 0)
(0.000109614 -1.25098e-05 0)
(0.00012759 -1.27901e-05 0)
(0.000146025 -1.3013e-05 0)
(0.00016456 -1.30001e-05 0)
(0.000183151 -1.30938e-05 0)
(0.000201477 -1.27601e-05 0)
(0.00021949 -1.23211e-05 0)
(0.000236836 -1.16836e-05 0)
(0.000253549 -1.11952e-05 0)
(0.000269235 -1.06571e-05 0)
(0.000283997 -1.02017e-05 0)
(0.000297618 -9.08542e-06 0)
(0.000310057 -7.90538e-06 0)
(0.000320916 -6.82306e-06 0)
(0.000330324 -5.88401e-06 0)
(0.000337941 -4.57696e-06 0)
(0.000343853 -3.17912e-06 0)
(0.000347759 -1.77441e-06 0)
(0.000349827 -5.96205e-07 0)
(0.000350032 6.43048e-07 0)
(0.000348479 1.72663e-06 0)
(0.000344458 3.61266e-06 0)
(0.000338725 5.10554e-06 0)
(0.000330894 6.13518e-06 0)
(0.000321138 7.76946e-06 0)
(0.000309257 9.44765e-06 0)
(0.000295704 1.04317e-05 0)
(0.000280544 1.13418e-05 0)
(0.000263658 1.23361e-05 0)
(0.000245568 1.34331e-05 0)
(0.000226592 1.39534e-05 0)
(0.00020679 1.45189e-05 0)
(0.000186045 1.49268e-05 0)
(0.000165023 1.53286e-05 0)
(0.000143743 1.51765e-05 0)
(0.00012276 1.51088e-05 0)
(0.000101858 1.46158e-05 0)
(8.1812e-05 1.42192e-05 0)
(6.23578e-05 1.33561e-05 0)
(4.42334e-05 1.27087e-05 0)
(2.69632e-05 1.16063e-05 0)
(1.14462e-05 1.07208e-05 0)
(-2.8346e-06 9.26332e-06 0)
(-1.49931e-05 8.17424e-06 0)
(-2.58336e-05 6.63411e-06 0)
(-3.45122e-05 5.56784e-06 0)
(-4.18746e-05 3.97087e-06 0)
(-4.69987e-05 2.93575e-06 0)
(-5.08426e-05 1.38594e-06 0)
(-5.25191e-05 4.70713e-07 0)
(-5.31013e-05 -8.95818e-07 0)
(-5.18503e-05 -1.48394e-06 0)
(-4.99325e-05 -2.48697e-06 0)
(-4.65968e-05 -2.77859e-06 0)
(-4.29713e-05 -3.54122e-06 0)
(-3.83669e-05 -3.6103e-06 0)
(-3.38267e-05 -4.05631e-06 0)
(-2.87449e-05 -3.88882e-06 0)
(-2.39814e-05 -4.08513e-06 0)
(-1.90109e-05 -3.69828e-06 0)
(-1.45932e-05 -3.54904e-06 0)
(-1.03847e-05 -2.93628e-06 0)
(-6.9104e-06 -2.54111e-06 0)
(-3.82896e-06 -1.97129e-06 0)
(-1.47902e-06 -1.54655e-06 0)
(-3.43092e-07 -6.15131e-07 0)
(-8.49759e-08 1.57376e-06 0)
(-1.47863e-06 2.55708e-06 0)
(-2.12343e-06 1.8828e-06 0)
(-1.23801e-06 -4.3177e-07 0)
(2.00583e-06 -3.90344e-06 0)
(8.20655e-06 -8.04721e-06 0)
(1.75068e-05 -1.22518e-05 0)
(2.99443e-05 -1.64719e-05 0)
(4.52915e-05 -2.03514e-05 0)
(6.35384e-05 -2.41225e-05 0)
(8.43457e-05 -2.73194e-05 0)
(0.000107513 -3.01449e-05 0)
(0.00013253 -3.22899e-05 0)
(0.000159313 -3.42109e-05 0)
(0.000187332 -3.55222e-05 0)
(0.000216264 -3.64961e-05 0)
(0.000245617 -3.68303e-05 0)
(0.000275275 -3.70322e-05 0)
(0.000304746 -3.6789e-05 0)
(0.000334123 -3.63303e-05 0)
(0.000362856 -3.51435e-05 0)
(0.00039087 -3.37876e-05 0)
(0.000417386 -3.20422e-05 0)
(0.000442491 -3.04772e-05 0)
(0.000465959 -2.84772e-05 0)
(0.000487815 -2.59761e-05 0)
(0.000507384 -2.26859e-05 0)
(0.000524943 -1.98377e-05 0)
(0.000539815 -1.69145e-05 0)
(0.00055216 -1.35852e-05 0)
(0.000561441 -9.51401e-06 0)
(0.000567783 -5.70513e-06 0)
(0.000571034 -1.86985e-06 0)
(0.000571338 1.6745e-06 0)
(0.000568567 5.33129e-06 0)
(0.000562588 9.49609e-06 0)
(0.000553073 1.39068e-05 0)
(0.000540491 1.76959e-05 0)
(0.000524792 2.19857e-05 0)
(0.000505983 2.57481e-05 0)
(0.000484395 2.91672e-05 0)
(0.000460037 3.20378e-05 0)
(0.000433592 3.49658e-05 0)
(0.000404276 3.72639e-05 0)
(0.000373872 3.92962e-05 0)
(0.000342053 4.05106e-05 0)
(0.000309375 4.18604e-05 0)
(0.000275812 4.23393e-05 0)
(0.00024229 4.2407e-05 0)
(0.000208717 4.17312e-05 0)
(0.000176058 4.11105e-05 0)
(0.000143866 3.94629e-05 0)
(0.000113461 3.78262e-05 0)
(8.40011e-05 3.53126e-05 0)
(5.69978e-05 3.31435e-05 0)
(3.16985e-05 2.98124e-05 0)
(9.51906e-06 2.67776e-05 0)
(-1.08052e-05 2.28606e-05 0)
(-2.77865e-05 1.96728e-05 0)
(-4.27613e-05 1.56475e-05 0)
(-5.41973e-05 1.24159e-05 0)
(-6.35612e-05 8.35182e-06 0)
(-6.93666e-05 5.31386e-06 0)
(-7.33588e-05 1.59135e-06 0)
(-7.42125e-05 -8.02114e-07 0)
(-7.38065e-05 -3.75067e-06 0)
(-7.0829e-05 -5.36941e-06 0)
(-6.70512e-05 -7.53721e-06 0)
(-6.13511e-05 -8.4095e-06 0)
(-5.55235e-05 -9.82556e-06 0)
(-4.84925e-05 -9.96656e-06 0)
(-4.17874e-05 -1.05777e-05 0)
(-3.44197e-05 -1.00726e-05 0)
(-2.7695e-05 -9.9515e-06 0)
(-2.0907e-05 -8.8933e-06 0)
(-1.51474e-05 -8.08293e-06 0)
(-9.86954e-06 -6.57371e-06 0)
(-5.71819e-06 -5.39352e-06 0)
(-2.28044e-06 -3.87971e-06 0)
(-5.23414e-07 -1.72358e-06 0)
(-8.20876e-08 2.33405e-06 0)
(-8.05469e-07 3.18616e-06 0)
(8.08673e-08 1.06776e-06 0)
(3.29819e-06 -3.60223e-06 0)
(9.76142e-06 -1.02386e-05 0)
(1.99754e-05 -1.77582e-05 0)
(3.42052e-05 -2.5741e-05 0)
(5.23173e-05 -3.34395e-05 0)
(7.43176e-05 -4.08508e-05 0)
(9.98194e-05 -4.75819e-05 0)
(0.000128601 -5.37451e-05 0)
(0.000160108 -5.87795e-05 0)
(0.000194289 -6.32631e-05 0)
(0.000230525 -6.66481e-05 0)
(0.000268283 -6.93257e-05 0)
(0.000306891 -7.07754e-05 0)
(0.000346261 -7.16884e-05 0)
(0.000385758 -7.1761e-05 0)
(0.00042535 -7.16474e-05 0)
(0.000464471 -7.04654e-05 0)
(0.000502929 -6.85893e-05 0)
(0.000539942 -6.57757e-05 0)
(0.000575381 -6.26931e-05 0)
(0.000608815 -5.8919e-05 0)
(0.000640145 -5.51651e-05 0)
(0.000668879 -5.04192e-05 0)
(0.000695141 -4.49123e-05 0)
(0.000718094 -3.87947e-05 0)
(0.000738024 -3.29552e-05 0)
(0.000754292 -2.61979e-05 0)
(0.000766872 -1.90752e-05 0)
(0.000775201 -1.14652e-05 0)
(0.000779752 -4.17383e-06 0)
(0.000780018 3.24261e-06 0)
(0.000776277 1.02994e-05 0)
(0.000768371 1.847e-05 0)
(0.00075591 2.66387e-05 0)
(0.000739019 3.47101e-05 0)
(0.000717895 4.25062e-05 0)
(0.000692391 4.97347e-05 0)
(0.000663445 5.58939e-05 0)
(0.00063111 6.20788e-05 0)
(0.000596186 6.71768e-05 0)
(0.000558357 7.19858e-05 0)
(0.000517515 7.56544e-05 0)
(0.000475294 7.87664e-05 0)
(0.000431324 8.06867e-05 0)
(0.00038709 8.17971e-05 0)
(0.000342086 8.14962e-05 0)
(0.000297606 8.09903e-05 0)
(0.000253645 7.88197e-05 0)
(0.000211506 7.63094e-05 0)
(0.000170341 7.25045e-05 0)
(0.000131616 6.89182e-05 0)
(9.46189e-05 6.35473e-05 0)
(6.16929e-05 5.81127e-05 0)
(3.10763e-05 5.13874e-05 0)
(4.53883e-06 4.5418e-05 0)
(-1.9571e-05 3.81619e-05 0)
(-3.90562e-05 3.18098e-05 0)
(-5.58033e-05 2.41935e-05 0)
(-6.77048e-05 1.78831e-05 0)
(-7.71921e-05 1.06892e-05 0)
(-8.22859e-05 5.24193e-06 0)
(-8.54809e-05 -8.49158e-07 0)
(-8.48821e-05 -4.90958e-06 0)
(-8.30415e-05 -9.63668e-06 0)
(-7.81564e-05 -1.22668e-05 0)
(-7.27236e-05 -1.54659e-05 0)
(-6.5193e-05 -1.67215e-05 0)
(-5.78691e-05 -1.84482e-05 0)
(-4.92576e-05 -1.83358e-05 0)
(-4.12949e-05 -1.86198e-05 0)
(-3.27558e-05 -1.73482e-05 0)
(-2.52772e-05 -1.64256e-05 0)
(-1.79362e-05 -1.4259e-05 0)
(-1.19583e-05 -1.23244e-05 0)
(-6.70292e-06 -9.73866e-06 0)
(-2.85076e-06 -7.22294e-06 0)
(-5.54388e-07 -3.12097e-06 0)
(-3.42314e-08 2.63242e-06 0)
(4.46946e-07 2.43559e-06 0)
(3.56058e-06 -1.88258e-06 0)
(1.00283e-05 -9.93371e-06 0)
(2.05225e-05 -2.0431e-05 0)
(3.55996e-05 -3.23867e-05 0)
(5.52906e-05 -4.4613e-05 0)
(7.96708e-05 -5.67845e-05 0)
(0.000108429 -6.80359e-05 0)
(0.000141309 -7.86259e-05 0)
(0.000177652 -8.78619e-05 0)
(0.0002175 -9.61213e-05 0)
(0.000260208 -0.000102906 0)
(0.000305102 -0.000108467 0)
(0.000351368 -0.000112105 0)
(0.000398887 -0.000114635 0)
(0.000446935 -0.000115748 0)
(0.000495593 -0.000116292 0)
(0.000543893 -0.00011549 0)
(0.000591572 -0.000113874 0)
(0.000637864 -0.000110533 0)
(0.000682847 -0.000106402 0)
(0.000725724 -0.00010094 0)
(0.000766574 -9.51786e-05 0)
(0.000804361 -8.8382e-05 0)
(0.00083928 -8.09921e-05 0)
(0.000870675 -7.23219e-05 0)
(0.000898653 -6.32393e-05 0)
(0.00092269 -5.31166e-05 0)
(0.000942318 -4.22998e-05 0)
(0.000957466 -3.07065e-05 0)
(0.000967896 -1.91065e-05 0)
(0.000973348 -6.9493e-06 0)
(0.000973792 4.99643e-06 0)
(0.000968756 1.74739e-05 0)
(0.000958823 3.00934e-05 0)
(0.000943495 4.32895e-05 0)
(0.000922805 5.58572e-05 0)
(0.000897317 6.79992e-05 0)
(0.000866789 7.92108e-05 0)
(0.000831661 9.02636e-05 0)
(0.000792129 9.98224e-05 0)
(0.000749875 0.000108306 0)
(0.000704364 0.000115258 0)
(0.000655742 0.000121909 0)
(0.000604281 0.00012665 0)
(0.000551534 0.000130106 0)
(0.00049721 0.000131304 0)
(0.000443128 0.00013177 0)
(0.000388452 0.000129903 0)
(0.00033542 0.000127093 0)
(0.00028313 0.000122361 0)
(0.000233495 0.000117512 0)
(0.000185511 0.000110666 0)
(0.000141332 0.000103084 0)
(9.96725e-05 9.32135e-05 0)
(6.29801e-05 8.39976e-05 0)
(2.90443e-05 7.32227e-05 0)
(4.50309e-07 6.32427e-05 0)
(-2.5139e-05 5.15261e-05 0)
(-4.48084e-05 4.10386e-05 0)
(-6.14725e-05 2.94008e-05 0)
(-7.27103e-05 1.99121e-05 0)
(-8.14745e-05 9.56117e-06 0)
(-8.52144e-05 1.77636e-06 0)
(-8.71699e-05 -6.5521e-06 0)
(-8.49807e-05 -1.21818e-05 0)
(-8.18482e-05 -1.8258e-05 0)
(-7.55472e-05 -2.15635e-05 0)
(-6.91262e-05 -2.5301e-05 0)
(-6.0609e-05 -2.63986e-05 0)
(-5.26401e-05 -2.78543e-05 0)
(-4.34482e-05 -2.69565e-05 0)
(-3.53047e-05 -2.63841e-05 0)
(-2.67716e-05 -2.39113e-05 0)
(-1.95825e-05 -2.16835e-05 0)
(-1.26995e-05 -1.81361e-05 0)
(-7.36274e-06 -1.49613e-05 0)
(-2.97905e-06 -1.07491e-05 0)
(-5.68523e-07 -4.72223e-06 0)
(8.3817e-08 2.18349e-06 0)
(2.10421e-06 -2.40181e-07 0)
(7.9512e-06 -7.95865e-06 0)
(1.81868e-05 -2.00859e-05 0)
(3.34307e-05 -3.54613e-05 0)
(5.38716e-05 -5.2255e-05 0)
(7.96652e-05 -6.96561e-05 0)
(0.000110507 -8.64175e-05 0)
(0.000146275 -0.000102391 0)
(0.000186245 -0.000116773 0)
(0.000230377 -0.00013007 0)
(0.000278085 -0.000141225 0)
(0.000328693 -0.000150913 0)
(0.000381064 -0.000157992 0)
(0.000435297 -0.000163389 0)
(0.000490433 -0.000166392 0)
(0.000546763 -0.000168539 0)
(0.000603012 -0.000168697 0)
(0.000658767 -0.00016763 0)
(0.0007132 -0.000164431 0)
(0.000766556 -0.000159928 0)
(0.000817891 -0.000153622 0)
(0.000867424 -0.000146432 0)
(0.000914062 -0.000137435 0)
(0.000957641 -0.000127787 0)
(0.000997124 -0.00011646 0)
(0.00103298 -0.000104391 0)
(0.00106466 -9.09894e-05 0)
(0.00109223 -7.71381e-05 0)
(0.00111443 -6.09587e-05 0)
(0.00113194 -4.44014e-05 0)
(0.00114369 -2.73874e-05 0)
(0.00115003 -1.03248e-05 0)
(0.00115043 7.54794e-06 0)
(0.00114458 2.54888e-05 0)
(0.00113284 4.4148e-05 0)
(0.00111492 6.22098e-05 0)
(0.00109155 8.06343e-05 0)
(0.00106236 9.82887e-05 0)
(0.00102802 0.000115361 0)
(0.000988153 0.000130455 0)
(0.000943215 0.000144436 0)
(0.000894125 0.000155526 0)
(0.000842035 0.000166217 0)
(0.000786011 0.000175638 0)
(0.000727718 0.000183128 0)
(0.00066703 0.000187525 0)
(0.000605493 0.00019024 0)
(0.000542704 0.000190058 0)
(0.000480748 0.000188433 0)
(0.000418733 0.000183649 0)
(0.000359213 0.00017804 0)
(0.000300767 0.000169763 0)
(0.000246485 0.000161057 0)
(0.000194531 0.000148952 0)
(0.000147438 0.000136402 0)
(0.000103088 0.000121715 0)
(6.47307e-05 0.000107888 0)
(2.96616e-05 9.1955e-05 0)
(9.73749e-07 7.7016e-05 0)
(-2.4331e-05 6.01489e-05 0)
(-4.29771e-05 4.577e-05 0)
(-5.87923e-05 3.03738e-05 0)
(-6.86486e-05 1.78458e-05 0)
(-7.62007e-05 4.58294e-06 0)
(-7.84519e-05 -5.13145e-06 0)
(-7.92991e-05 -1.52888e-05 0)
(-7.59219e-05 -2.18068e-05 0)
(-7.20608e-05 -2.86481e-05 0)
(-6.51564e-05 -3.19373e-05 0)
(-5.86045e-05 -3.54686e-05 0)
(-5.00386e-05 -3.57696e-05 0)
(-4.24008e-05 -3.63295e-05 0)
(-3.37401e-05 -3.4193e-05 0)
(-2.64204e-05 -3.2288e-05 0)
(-1.88616e-05 -2.82932e-05 0)
(-1.27676e-05 -2.45956e-05 0)
(-7.09769e-06 -1.9762e-05 0)
(-3.04198e-06 -1.45852e-05 0)
(-4.59107e-07 -6.23574e-06 0)
(1.92347e-07 8.81685e-07 0)
(3.93739e-06 -5.31362e-06 0)
(1.27939e-05 -1.75207e-05 0)
(2.73154e-05 -3.48885e-05 0)
(4.76352e-05 -5.56338e-05 0)
(7.39631e-05 -7.82472e-05 0)
(0.00010604 -0.000100924 0)
(0.000143717 -0.000123145 0)
(0.000186347 -0.000143565 0)
(0.000233772 -0.000162602 0)
(0.000285227 -0.000179682 0)
(0.000340286 -0.000194346 0)
(0.000397638 -0.000205811 0)
(0.000457101 -0.000215126 0)
(0.000518036 -0.000221605 0)
(0.000580679 -0.000226168 0)
(0.000643813 -0.000228189 0)
(0.000706438 -0.000228316 0)
(0.000767865 -0.000225727 0)
(0.000828397 -0.000221693 0)
(0.000887205 -0.000215091 0)
(0.000944391 -0.000207091 0)
(0.000998773 -0.000196898 0)
(0.00105036 -0.000185311 0)
(0.00109785 -0.000171388 0)
(0.00114151 -0.000156481 0)
(0.00118059 -0.000139814 0)
(0.00121555 -0.000122433 0)
(0.00124529 -0.000103252 0)
(0.00127012 -8.21496e-05 0)
(0.00128884 -5.93741e-05 0)
(0.00130205 -3.70755e-05 0)
(0.00130871 -1.35326e-05 0)
(0.00130927 1.02203e-05 0)
(0.00130283 3.5109e-05 0)
(0.00129043 5.94216e-05 0)
(0.00127072 8.4373e-05 0)
(0.00124517 0.000108787 0)
(0.00121335 0.000132392 0)
(0.00117551 0.000154464 0)
(0.00113189 0.000175462 0)
(0.00108269 0.000193669 0)
(0.00102853 0.000209645 0)
(0.000970334 0.000223722 0)
(0.000908895 0.000236427 0)
(0.000844248 0.000245637 0)
(0.000778015 0.000252473 0)
(0.000709566 0.000255492 0)
(0.000641016 0.0002564 0)
(0.000571657 0.000253408 0)
(0.000503983 0.00024846 0)
(0.000436775 0.000239792 0)
(0.000372894 0.000229958 0)
(0.000311305 0.000216368 0)
(0.000255285 0.000201842 0)
(0.000201257 0.00018413 0)
(0.000152976 0.000166531 0)
(0.00010793 0.000146194 0)
(7.01145e-05 0.000126892 0)
(3.58072e-05 0.000105117 0)
(8.29473e-06 8.50658e-05 0)
(-1.58589e-05 6.36481e-05 0)
(-3.28581e-05 4.56496e-05 0)
(-4.73124e-05 2.67446e-05 0)
(-5.55776e-05 1.16807e-05 0)
(-6.19893e-05 -3.71511e-06 0)
(-6.31042e-05 -1.46678e-05 0)
(-6.33405e-05 -2.57656e-05 0)
(-5.95216e-05 -3.24265e-05 0)
(-5.58156e-05 -3.91392e-05 0)
(-4.92597e-05 -4.16385e-05 0)
(-4.34907e-05 -4.42242e-05 0)
(-3.59378e-05 -4.31964e-05 0)
(-2.96677e-05 -4.23961e-05 0)
(-2.25346e-05 -3.87098e-05 0)
(-1.68699e-05 -3.52431e-05 0)
(-1.10131e-05 -2.98112e-05 0)
(-6.53396e-06 -2.47507e-05 0)
(-2.58949e-06 -1.78497e-05 0)
(-4.03326e-07 -7.80018e-06 0)
(3.04562e-07 -1.42437e-06 0)
(5.82101e-06 -1.29027e-05 0)
(1.79373e-05 -3.10186e-05 0)
(3.69018e-05 -5.44429e-05 0)
(6.26604e-05 -8.17051e-05 0)
(9.49581e-05 -0.00011031 0)
(0.000133689 -0.000139118 0)
(0.000178108 -0.000166473 0)
(0.000227935 -0.000192267 0)
(0.000282611 -0.00021541 0)
(0.000341135 -0.000236488 0)
(0.000402174 -0.000253537 0)
(0.00046589 -0.000267676 0)
(0.000531532 -0.00027857 0)
(0.000599211 -0.000287077 0)
(0.000667842 -0.000291963 0)
(0.000736496 -0.000294328 0)
(0.000803801 -0.000292968 0)
(0.000870454 -0.000289757 0)
(0.000935444 -0.000283744 0)
(0.000999172 -0.000275844 0)
(0.00106021 -0.000264775 0)
(0.00111859 -0.000252036 0)
(0.00117308 -0.000236437 0)
(0.00122401 -0.000219028 0)
(0.00127039 -0.000199047 0)
(0.00131274 -0.000178448 0)
(0.00134991 -0.000155871 0)
(0.00138171 -0.000131754 0)
(0.00140786 -0.000104607 0)
(0.00142824 -7.61543e-05 0)
(0.00144215 -4.6878e-05 0)
(0.00144939 -1.74307e-05 0)
(0.00144976 1.33686e-05 0)
(0.00144352 4.48266e-05 0)
(0.00142998 7.65611e-05 0)
(0.00140988 0.000107793 0)
(0.0013825 0.000139021 0)
(0.00134848 0.000168349 0)
(0.00130823 0.00019718 0)
(0.00126152 0.000223571 0)
(0.00120914 0.000247757 0)
(0.00115115 0.000268093 0)
(0.00108904 0.000286518 0)
(0.0010228 0.00030162 0)
(0.000954167 0.000314111 0)
(0.000882547 0.000322093 0)
(0.000810022 0.00032722 0)
(0.000735683 0.000327621 0)
(0.000662264 0.000325245 0)
(0.000588496 0.00031808 0)
(0.000517444 0.000308669 0)
(0.000447323 0.000294562 0)
(0.000381941 0.000278396 0)
(0.000319496 0.000258577 0)
(0.000262948 0.000238555 0)
(0.000208761 0.000214597 0)
(0.000161354 0.000190877 0)
(0.000117407 0.000163931 0)
(8.16452e-05 0.000138985 0)
(4.89196e-05 0.000111684 0)
(2.33647e-05 8.72732e-05 0)
(9.4108e-07 6.18118e-05 0)
(-1.42276e-05 4.07341e-05 0)
(-2.73808e-05 1.91098e-05 0)
(-3.43479e-05 2.51736e-06 0)
(-4.00814e-05 -1.40534e-05 0)
(-4.07465e-05 -2.52747e-05 0)
(-4.12338e-05 -3.63489e-05 0)
(-3.79907e-05 -4.22158e-05 0)
(-3.5391e-05 -4.79351e-05 0)
(-3.02212e-05 -4.89845e-05 0)
(-2.62833e-05 -5.00917e-05 0)
(-2.08162e-05 -4.74369e-05 0)
(-1.67938e-05 -4.50079e-05 0)
(-1.19976e-05 -3.97789e-05 0)
(-8.50522e-06 -3.48657e-05 0)
(-4.73989e-06 -2.82852e-05 0)
(-2.14455e-06 -2.09971e-05 0)
(-2.41194e-07 -9.07568e-06 0)
(3.81227e-07 -4.6146e-06 0)
(7.74246e-06 -2.30911e-05 0)
(2.31794e-05 -4.83154e-05 0)
(4.68265e-05 -7.91991e-05 0)
(7.80507e-05 -0.000113346 0)
(0.000116628 -0.000148914 0)
(0.00016193 -0.000183811 0)
(0.000213482 -0.000217277 0)
(0.000270252 -0.000247734 0)
(0.000331769 -0.000275341 0)
(0.000396155 -0.000298785 0)
(0.000463329 -0.000318988 0)
(0.000532925 -0.000334988 0)
(0.000604596 -0.000348514 0)
(0.000677011 -0.000357747 0)
(0.000750253 -0.000363314 0)
(0.000822566 -0.000364221 0)
(0.000894224 -0.000362227 0)
(0.000964638 -0.000357184 0)
(0.00103373 -0.000350417 0)
(0.00110022 -0.000339715 0)
(0.00116443 -0.00032636 0)
(0.00122497 -0.000309513 0)
(0.00128205 -0.000290672 0)
(0.00133483 -0.000268827 0)
(0.00138426 -0.000245189 0)
(0.00142854 -0.000218691 0)
(0.00146776 -0.000191456 0)
(0.00150023 -0.000161 0)
(0.00152781 -0.000128507 0)
(0.00154887 -9.33746e-05 0)
(0.0015635 -5.80979e-05 0)
(0.00157108 -2.12293e-05 0)
(0.00157197 1.63864e-05 0)
(0.00156523 5.53802e-05 0)
(0.00155113 9.3813e-05 0)
(0.00153008 0.000132744 0)
(0.00150232 0.000169941 0)
(0.0014671 0.000206709 0)
(0.00142488 0.00024171 0)
(0.00137627 0.000274909 0)
(0.00132136 0.000304052 0)
(0.00126126 0.000330032 0)
(0.00119617 0.000351965 0)
(0.00112767 0.000371222 0)
(0.00105538 0.000385675 0)
(0.000981264 0.000396674 0)
(0.000904494 0.000402179 0)
(0.000827759 0.000404138 0)
(0.000749816 0.000400315 0)
(0.000673833 0.000393311 0)
(0.000597942 0.000380684 0)
(0.000525869 0.000365243 0)
(0.000454962 0.000343974 0)
(0.000390051 0.000321282 0)
(0.000328337 0.000294938 0)
(0.000273246 0.00026838 0)
(0.000220741 0.00023752 0)
(0.000175355 0.000207151 0)
(0.00013369 0.000173954 0)
(0.000100508 0.000143818 0)
(6.97776e-05 0.000111791 0)
(4.66078e-05 8.37922e-05 0)
(2.59078e-05 5.52008e-05 0)
(1.22165e-05 3.20848e-05 0)
(-7.69708e-08 8.96182e-06 0)
(-6.41561e-06 -8.06045e-06 0)
(-1.2299e-05 -2.46856e-05 0)
(-1.35718e-05 -3.51148e-05 0)
(-1.53513e-05 -4.51163e-05 0)
(-1.37534e-05 -4.93589e-05 0)
(-1.33033e-05 -5.33802e-05 0)
(-1.06659e-05 -5.25707e-05 0)
(-9.53227e-06 -5.1899e-05 0)
(-7.03026e-06 -4.75531e-05 0)
(-5.89168e-06 -4.35827e-05 0)
(-3.84032e-06 -3.71762e-05 0)
(-2.68034e-06 -3.12219e-05 0)
(-1.10336e-06 -2.28241e-05 0)
(-1.89962e-07 -1.01794e-05 0)
(4.59847e-07 -8.79118e-06 0)
(9.63254e-06 -3.58381e-05 0)
(2.85509e-05 -6.9925e-05 0)
(5.69502e-05 -0.000109079 0)
(9.40655e-05 -0.000151296 0)
(0.000139157 -0.000194053 0)
(0.000191484 -0.000235921 0)
(0.000249557 -0.000274711 0)
(0.000312766 -0.000310303 0)
(0.000379874 -0.000341144 0)
(0.000450343 -0.000367998 0)
(0.000523169 -0.000390176 0)
(0.000598383 -0.00040861 0)
(0.000674185 -0.000422293 0)
(0.000750309 -0.000432729 0)
(0.000826044 -0.000437464 0)
(0.000901464 -0.000438388 0)
(0.000976294 -0.000434954 0)
(0.00105057 -0.000428692 0)
(0.00112168 -0.000418727 0)
(0.00119041 -0.000406328 0)
(0.00125576 -0.00038904 0)
(0.0013183 -0.000369547 0)
(0.00137666 -0.000346448 0)
(0.00143182 -0.000321256 0)
(0.00148236 -0.000292812 0)
(0.00152809 -0.000261724 0)
(0.00156728 -0.000227588 0)
(0.00160103 -0.000191776 0)
(0.00162871 -0.000152683 0)
(0.00165034 -0.000112007 0)
(0.00166474 -6.89111e-05 0)
(0.00167289 -2.53125e-05 0)
(0.00167357 1.96181e-05 0)
(0.00166703 6.52326e-05 0)
(0.00165262 0.000112016 0)
(0.00163115 0.000157666 0)
(0.00160278 0.000202248 0)
(0.0015674 0.000245255 0)
(0.0015245 0.000287889 0)
(0.00147477 0.000326984 0)
(0.00141951 0.000362731 0)
(0.00135799 0.000392987 0)
(0.00129217 0.000420068 0)
(0.00122172 0.000442198 0)
(0.00114853 0.000460509 0)
(0.0010719 0.000472809 0)
(0.000994246 0.000480825 0)
(0.000914495 0.000482185 0)
(0.00083591 0.000479294 0)
(0.00075665 0.0004699 0)
(0.000680264 0.000456959 0)
(0.000604389 0.000437358 0)
(0.000533254 0.000414482 0)
(0.000463483 0.000385557 0)
(0.000400697 0.000356034 0)
(0.000341153 0.000322526 0)
(0.000289014 0.000289076 0)
(0.000238981 0.000251197 0)
(0.000196737 0.000214625 0)
(0.000157925 0.000176039 0)
(0.000127249 0.000141669 0)
(9.86142e-05 0.000105881 0)
(7.74893e-05 7.55355e-05 0)
(5.79509e-05 4.51082e-05 0)
(4.50931e-05 2.13096e-05 0)
(3.28721e-05 -1.97421e-06 0)
(2.61079e-05 -1.81698e-05 0)
(1.89549e-05 -3.35991e-05 0)
(1.59157e-05 -4.21555e-05 0)
(1.17896e-05 -5.01368e-05 0)
(1.05747e-05 -5.21214e-05 0)
(7.76165e-06 -5.40118e-05 0)
(6.85748e-06 -5.12141e-05 0)
(4.42276e-06 -4.87906e-05 0)
(3.38413e-06 -4.31493e-05 0)
(1.45545e-06 -3.81959e-05 0)
(7.39712e-07 -3.13924e-05 0)
(-1.16874e-07 -2.38114e-05 0)
(8.14081e-09 -1.0564e-05 0)
(5.45842e-07 -1.39016e-05 0)
(1.15941e-05 -5.14787e-05 0)
(3.40813e-05 -9.57976e-05 0)
(6.77279e-05 -0.00014467 0)
(0.000111126 -0.000195598 0)
(0.000163174 -0.000246473 0)
(0.000221946 -0.000294337 0)
(0.000286467 -0.000338773 0)
(0.000355359 -0.000378181 0)
(0.000428027 -0.000413073 0)
(0.000503299 -0.000442268 0)
(0.000580872 -0.000467051 0)
(0.000659515 -0.000486059 0)
(0.000739159 -0.000500404 0)
(0.000817924 -0.0005095 0)
(0.000896122 -0.000514739 0)
(0.0009738 -0.000514578 0)
(0.00105115 -0.000511097 0)
(0.00112615 -0.000502262 0)
(0.00119918 -0.000489896 0)
(0.00126843 -0.000473458 0)
(0.00133508 -0.000454088 0)
(0.00139826 -0.000430253 0)
(0.00145804 -0.000404242 0)
(0.00151329 -0.000374209 0)
(0.00156375 -0.000341395 0)
(0.00160833 -0.000304537 0)
(0.00164787 -0.000265089 0)
(0.00168149 -0.000222031 0)
(0.00170928 -0.000177504 0)
(0.00173027 -0.000130183 0)
(0.00174525 -8.1011e-05 0)
(0.00175293 -2.92531e-05 0)
(0.00175349 2.26766e-05 0)
(0.00174686 7.61609e-05 0)
(0.0017331 0.000129549 0)
(0.0017119 0.000182738 0)
(0.00168362 0.000233541 0)
(0.00164837 0.000284721 0)
(0.0016057 0.000333747 0)
(0.00155661 0.00038004 0)
(0.00150203 0.000420682 0)
(0.00144208 0.000457195 0)
(0.00137558 0.000488056 0)
(0.00130569 0.000514847 0)
(0.00123154 0.000535271 0)
(0.00115554 0.000550963 0)
(0.00107655 0.000559396 0)
(0.00099766 0.000562515 0)
(0.000917294 0.00055803 0)
(0.000839043 0.000549083 0)
(0.000760407 0.000532848 0)
(0.00068575 0.000512528 0)
(0.00061183 0.00048462 0)
(0.000543368 0.000453985 0)
(0.000476289 0.000417377 0)
(0.000416848 0.000380636 0)
(0.000360509 0.000339681 0)
(0.000311815 0.000299687 0)
(0.000264988 0.000255123 0)
(0.000226292 0.000213853 0)
(0.000189973 0.000171109 0)
(0.000161579 0.000133669 0)
(0.000134511 9.56237e-05 0)
(0.000114627 6.43949e-05 0)
(9.54277e-05 3.36831e-05 0)
(8.24132e-05 1.0714e-05 0)
(6.91317e-05 -1.12364e-05 0)
(6.06705e-05 -2.52843e-05 0)
(5.1086e-05 -3.83359e-05 0)
(4.50809e-05 -4.41594e-05 0)
(3.7417e-05 -4.9501e-05 0)
(3.21825e-05 -4.89993e-05 0)
(2.52073e-05 -4.87336e-05 0)
(2.00143e-05 -4.43178e-05 0)
(1.36454e-05 -4.07637e-05 0)
(9.00531e-06 -3.48372e-05 0)
(4.3121e-06 -2.99191e-05 0)
(1.59006e-06 -2.24367e-05 0)
(1.02795e-07 -1.03932e-05 0)
(6.28288e-07 -1.9929e-05 0)
(1.36447e-05 -6.99065e-05 0)
(4.01243e-05 -0.000126373 0)
(7.95852e-05 -0.000185989 0)
(0.000129878 -0.000246791 0)
(0.000188505 -0.000304913 0)
(0.000253786 -0.000359283 0)
(0.000324064 -0.000408102 0)
(0.00039844 -0.00045176 0)
(0.000475561 -0.000488959 0)
(0.000555037 -0.000520845 0)
(0.000635658 -0.000546327 0)
(0.00071726 -0.000566734 0)
(0.000798743 -0.000580596 0)
(0.000880021 -0.000589648 0)
(0.000960103 -0.00059332 0)
(0.00103949 -0.000593266 0)
(0.00111671 -0.000587371 0)
(0.00119219 -0.000577282 0)
(0.00126468 -0.000561515 0)
(0.00133456 -0.000542508 0)
(0.0014008 -0.000519289 0)
(0.00146387 -0.000492801 0)
(0.00152238 -0.000461328 0)
(0.00157652 -0.000426986 0)
(0.00162477 -0.000388087 0)
(0.00166874 -0.000346705 0)
(0.00170712 -0.000301399 0)
(0.00174064 -0.000253314 0)
(0.00176754 -0.000201418 0)
(0.00178855 -0.00014803 0)
(0.0018029 -9.16666e-05 0)
(0.00181089 -3.40249e-05 0)
(0.00181138 2.58184e-05 0)
(0.00180517 8.61037e-05 0)
(0.00179185 0.000147137 0)
(0.00177165 0.000206526 0)
(0.00174423 0.000265554 0)
(0.00170989 0.000323309 0)
(0.00166865 0.000379663 0)
(0.00162104 0.000431081 0)
(0.00156826 0.000477704 0)
(0.00151036 0.000518924 0)
(0.00144676 0.000556098 0)
(0.0013774 0.000586283 0)
(0.00130536 0.000610645 0)
(0.00122958 0.000627552 0)
(0.00115306 0.000638785 0)
(0.00107412 0.000641279 0)
(0.000996152 0.000637876 0)
(0.000917032 0.000626508 0)
(0.000840957 0.000610473 0)
(0.000765287 0.000585969 0)
(0.000694314 0.000557188 0)
(0.000623679 0.000521006 0)
(0.000559122 0.000482727 0)
(0.000495772 0.000438418 0)
(0.000440396 0.000394594 0)
(0.000387803 0.000346485 0)
(0.000342841 0.000300261 0)
(0.000299115 0.000251033 0)
(0.000263416 0.000206462 0)
(0.00022907 0.000160998 0)
(0.000202159 0.000122198 0)
(0.000175766 8.36399e-05 0)
(0.000156036 5.32016e-05 0)
(0.000136058 2.38968e-05 0)
(0.000121571 3.29978e-06 0)
(0.000105923 -1.59442e-05 0)
(9.44339e-05 -2.67861e-05 0)
(8.11785e-05 -3.66411e-05 0)
(7.08823e-05 -3.93362e-05 0)
(5.85761e-05 -4.19273e-05 0)
(4.84533e-05 -3.92351e-05 0)
(3.67617e-05 -3.74022e-05 0)
(2.70281e-05 -3.24309e-05 0)
(1.69511e-05 -2.90731e-05 0)
(9.33768e-06 -2.43067e-05 0)
(3.22167e-06 -1.94411e-05 0)
(3.74264e-07 -9.12235e-06 0)
(7.01547e-07 -2.69701e-05 0)
(1.61798e-05 -9.16947e-05 0)
(4.74275e-05 -0.00016199 0)
(9.32382e-05 -0.000234375 0)
(0.000150468 -0.000304535 0)
(0.000215837 -0.000370319 0)
(0.000287133 -0.000429884 0)
(0.000362962 -0.000483381 0)
(0.000441727 -0.000529582 0)
(0.000522793 -0.000569577 0)
(0.000604969 -0.000602279 0)
(0.000688072 -0.000629262 0)
(0.000770962 -0.000649178 0)
(0.000853806 -0.000663528 0)
(0.000935596 -0.000671243 0)
(0.00101666 -0.00067451 0)
(0.00109541 -0.000671453 0)
(0.00117213 -0.000663978 0)
(0.00124567 -0.000650458 0)
(0.00131708 -0.000632889 0)
(0.00138521 -0.000609864 0)
(0.00145025 -0.000583587 0)
(0.00151052 -0.000552208 0)
(0.00156714 -0.000517329 0)
(0.00161869 -0.000477255 0)
(0.0016663 -0.000434253 0)
(0.00170859 -0.000386882 0)
(0.00174624 -0.000336946 0)
(0.00177801 -0.000282632 0)
(0.00180455 -0.000225754 0)
(0.00182463 -0.00016526 0)
(0.00183903 -0.00010296 0)
(0.0018466 -3.77785e-05 0)
(0.00184799 2.8235e-05 0)
(0.00184227 9.5961e-05 0)
(0.00183001 0.000163106 0)
(0.00181083 0.000230374 0)
(0.00178479 0.000296029 0)
(0.00175206 0.000361104 0)
(0.00171309 0.00042257 0)
(0.00166846 0.000480211 0)
(0.00161774 0.000531641 0)
(0.00156224 0.000579221 0)
(0.00150146 0.000620804 0)
(0.00143681 0.000656136 0)
(0.00136712 0.000683207 0)
(0.00129507 0.000703839 0)
(0.00122025 0.00071518 0)
(0.00114585 0.000719759 0)
(0.0010688 0.000715292 0)
(0.000993268 0.000704827 0)
(0.000917346 0.000685001 0)
(0.000845896 0.000659674 0)
(0.000774564 0.000626368 0)
(0.000707947 0.000589602 0)
(0.000641727 0.000545436 0)
(0.000582053 0.000499601 0)
(0.000523399 0.000447803 0)
(0.000472612 0.000397449 0)
(0.000423228 0.000343651 0)
(0.000381355 0.000293322 0)
(0.000340221 0.000240943 0)
(0.000306624 0.000194784 0)
(0.000273283 0.00014846 0)
(0.000246839 0.000110216 0)