/*--------------------------------*- C++ -*----------------------------------*\
| =========                 |                                                 |
| \\      /  F ield         | OpenFOAM: The Open Source CFD Toolbox           |
|  \\    /   O peration     | Version:  2412                                  |
|   \\  /    A nd           | Website:  www.openfoam.com                      |
|    \\/     M anipulation  |                                                 |
\*---------------------------------------------------------------------------*/
FoamFile
{
    version     2.0;
    format      ascii;
    arch        "LSB;label=32;scalar=64";
    class       surfaceScalarField;
    location    "4.5";
    object      phi;
}
// * * * * * * * * * * * * * * * * * * * * * * * * * * * * * * * * * * * * * //

dimensions      [0 3 -1 0 0 0 0];

oriented        oriented;

internalField   nonuniform List<scalar> 
12640
(
-2.52148e-05
2.52148e-05
-4.52053e-05
1.999e-05
-6.53128e-05
2.01072e-05
-8.40722e-05
1.87592e-05
-0.000100443
1.63703e-05
-0.0001139
1.3457e-05
-0.00012418
1.02799e-05
-0.00013115
6.97042e-06
-0.000134791
3.6412e-06
-0.000135095
3.02956e-07
-0.000132158
-2.93755e-06
-0.000126229
-5.92926e-06
-0.000117544
-8.68602e-06
-0.000106669
-1.08759e-05
-9.39348e-05
-1.27348e-05
-7.99447e-05
-1.39909e-05
-6.50552e-05
-1.48899e-05
-4.97719e-05
-1.52833e-05
-3.45855e-05
-1.51861e-05
-1.99153e-05
-1.46704e-05
-6.19703e-06
-1.37187e-05
6.1924e-06
-1.23895e-05
1.69935e-05
-1.08006e-05
2.58736e-05
-8.87925e-06
3.26675e-05
-6.7931e-06
3.72873e-05
-4.61905e-06
3.98751e-05
-2.58702e-06
4.06624e-05
-7.86757e-07
3.98349e-05
8.27628e-07
3.758e-05
2.25487e-06
3.41679e-05
3.41199e-06
2.97014e-05
4.46608e-06
2.43335e-05
5.36752e-06
1.84975e-05
5.83581e-06
1.26765e-05
5.8206e-06
7.28269e-06
5.3935e-06
2.5538e-06
4.72853e-06
-1.39242e-06
3.94555e-06
-4.60268e-06
3.2094e-06
-7.27428e-06
2.67074e-06
-9.66514e-06
2.39046e-06
-1.21266e-05
2.46097e-06
-1.48524e-05
2.72506e-06
-1.8056e-05
3.20337e-06
-2.17315e-05
3.67585e-06
-2.57373e-05
4.0062e-06
-2.98315e-05
4.09468e-06
-3.35786e-05
3.74752e-06
-3.65419e-05
2.96394e-06
-3.84269e-05
1.88566e-06
-3.91604e-05
7.3403e-07
-3.87072e-05
-4.52773e-07
-3.69066e-05
-1.80047e-06
-3.37414e-05
-3.16501e-06
-2.88542e-05
-4.88699e-06
-2.21915e-05
-6.66234e-06
-1.38332e-05
-8.35798e-06
-3.97668e-06
-9.85623e-06
7.14634e-06
-1.11228e-05
1.92471e-05
-1.21006e-05
3.20025e-05
-1.27551e-05
4.50788e-05
-1.30761e-05
5.81365e-05
-1.30579e-05
7.08421e-05
-1.27056e-05
8.27939e-05
-1.19515e-05
9.35953e-05
-1.08014e-05
0.000102855
-9.25973e-06
0.000110205
-7.34961e-06
0.00011528
-5.0757e-06
0.000117756
-2.47654e-06
0.000117427
3.28539e-07
0.000114206
3.22042e-06
0.000108135
6.07048e-06
9.9173e-05
8.96165e-06
8.74338e-05
1.1739e-05
7.31824e-05
1.42517e-05
5.68052e-05
1.63774e-05
3.9215e-05
1.75904e-05
2.18473e-05
1.73683e-05
2.18469e-05
-2.67924e-05
5.20065e-05
-4.81349e-05
4.13322e-05
-6.95367e-05
4.15089e-05
-8.92558e-05
3.84779e-05
-0.000106258
3.33727e-05
-0.000120029
2.72275e-05
-0.00013026
2.05109e-05
-0.00013686
1.35697e-05
-0.000139807
6.58746e-06
-0.000139259
-2.45517e-07
-0.00013547
-6.72853e-06
-0.000128799
-1.2601e-05
-0.000119533
-1.7953e-05
-0.000107998
-2.24127e-05
-9.46512e-05
-2.60818e-05
-7.99455e-05
-2.86966e-05
-6.43163e-05
-3.05194e-05
-4.82413e-05
-3.13589e-05
-3.21584e-05
-3.12695e-05
-1.64854e-05
-3.03434e-05
-1.64212e-06
-2.85615e-05
1.2033e-05
-2.60641e-05
2.43884e-05
-2.31557e-05
3.495e-05
-1.94403e-05
4.38652e-05
-1.57077e-05
5.096e-05
-1.17135e-05
5.61373e-05
-7.76431e-06
5.92166e-05
-3.86639e-06
6.02299e-05
-1.86099e-07
5.94171e-05
3.06741e-06
5.69445e-05
5.88447e-06
5.3099e-05
8.31143e-06
4.82605e-05
1.02059e-05
4.25322e-05
1.15641e-05
3.58814e-05
1.24715e-05
2.83783e-05
1.28965e-05
2.01747e-05
1.29318e-05
1.13432e-05
1.27767e-05
2.18669e-06
1.23658e-05
-7.12173e-06
1.19787e-05
-1.63208e-05
1.15892e-05
-2.51235e-05
1.1264e-05
-3.3309e-05
1.09112e-05
-4.06276e-05
1.05226e-05
-4.69094e-05
9.95811e-06
-5.20405e-05
9.13766e-06
-5.60012e-05
8.05551e-06
-5.88265e-05
6.57289e-06
-6.05839e-05
4.72137e-06
-6.11454e-05
2.44713e-06
-6.02649e-05
-1.46523e-07
-5.77192e-05
-2.99813e-06
-5.35054e-05
-6.01381e-06
-4.74955e-05
-9.17453e-06
-3.99828e-05
-1.23995e-05
-3.1042e-05
-1.56031e-05
-2.0798e-05
-1.86023e-05
-9.37511e-06
-2.12794e-05
3.11537e-06
-2.36133e-05
1.63616e-05
-2.5347e-05
3.01398e-05
-2.65333e-05
4.41094e-05
-2.70456e-05
5.80175e-05
-2.69657e-05
7.14084e-05
-2.60965e-05
8.39544e-05
-2.44975e-05
9.52609e-05
-2.21077e-05
0.000105022
-1.90208e-05
0.000112873
-1.52027e-05
0.000118461
-1.06645e-05
0.000121568
-5.58488e-06
0.000121969
-7.33791e-08
0.000119358
5.83008e-06
0.000113632
1.17958e-05
0.000104675
1.79177e-05
9.26697e-05
2.37444e-05
7.7841e-05
2.90801e-05
6.05973e-05
3.36211e-05
4.19123e-05
3.62766e-05
2.33774e-05
3.59036e-05
4.52254e-05
-2.79334e-05
7.99395e-05
-5.00952e-05
6.34944e-05
-7.23654e-05
6.37791e-05
-9.30187e-05
5.91308e-05
-0.00011076
5.11132e-05
-0.000125071
4.15382e-05
-0.000135697
3.11366e-05
-0.00014253
2.04014e-05
-0.000145651
9.70858e-06
-0.000145047
-8.50583e-07
-0.000141005
-1.07706e-05
-0.000133852
-1.97543e-05
-0.000123945
-2.78601e-05
-0.000111605
-3.47531e-05
-9.73799e-05
-4.03072e-05
-8.17725e-05
-4.4305e-05
-6.52516e-05
-4.70413e-05
-4.83115e-05
-4.82995e-05
-3.14554e-05
-4.81258e-05
-1.51841e-05
-4.66157e-05
1.2134e-07
-4.38684e-05
1.41072e-05
-4.00513e-05
2.60917e-05
-3.51411e-05
3.65389e-05
-2.98883e-05
4.47634e-05
-2.39329e-05
5.09667e-05
-1.79174e-05
5.49813e-05
-1.17792e-05
5.69986e-05
-5.88351e-06
5.70734e-05
-2.60406e-07
5.5346e-05
4.79528e-06
5.21255e-05
9.10573e-06
4.76943e-05
1.27436e-05
4.24169e-05
1.54843e-05
3.64516e-05
1.75304e-05
2.98693e-05
1.90549e-05
2.28999e-05
1.98672e-05
1.55324e-05
2.03007e-05
7.98556e-06
2.03248e-05
3.13277e-07
2.00393e-05
-7.31886e-06
1.96121e-05
-1.48625e-05
1.91339e-05
-2.20947e-05
1.84962e-05
-2.88647e-05
1.76802e-05
-3.50823e-05
1.67389e-05
-4.06543e-05
1.55289e-05
-4.54889e-05
1.39714e-05
-4.9498e-05
1.20637e-05
-5.26442e-05
9.71809e-06
-5.4892e-05
6.96834e-06
-5.61075e-05
3.66213e-06
-5.60273e-05
-2.26904e-07
-5.446e-05
-4.56568e-06
-5.12702e-05
-9.20411e-06
-4.63073e-05
-1.41382e-05
-3.97049e-05
-1.90027e-05
-3.143e-05
-2.38785e-05
-2.15648e-05
-2.84678e-05
-1.02557e-05
-3.25887e-05
2.18131e-06
-3.60501e-05
1.56689e-05
-3.88339e-05
2.98193e-05
-4.06831e-05
4.43663e-05
-4.15924e-05
5.88634e-05
-4.14628e-05
7.2918e-05
-4.01511e-05
8.61219e-05
-3.77021e-05
9.81642e-05
-3.41516e-05
0.000108573
-2.9431e-05
0.00011693
-2.3561e-05
0.000123011
-1.6747e-05
0.000126374
-8.94899e-06
0.000126798
-4.98503e-07
0.000124119
8.50755e-06
0.000118114
1.78002e-05
0.000108897
2.71343e-05
9.648e-05
3.61617e-05
8.10546e-05
4.4506e-05
6.30645e-05
5.16129e-05
4.3725e-05
5.56181e-05
2.44248e-05
5.52034e-05
6.96514e-05
-3.05786e-05
0.000110518
-5.45715e-05
8.74876e-05
-7.85474e-05
8.77547e-05
-0.000100842
8.14249e-05
-0.000119902
7.01718e-05
-0.000135086
5.6722e-05
-0.000146161
4.22111e-05
-0.000153053
2.72931e-05
-0.000155855
1.25099e-05
-0.000154744
-1.96148e-06
-0.00014997
-1.55443e-05
-0.000141716
-2.80079e-05
-0.000130546
-3.90311e-05
-0.000116976
-4.83235e-05
-0.000101464
-5.58197e-05
-8.445e-05
-6.13193e-05
-6.65356e-05
-6.49566e-05
-4.82625e-05
-6.65741e-05
-3.01596e-05
-6.62297e-05
-1.27291e-05
-6.40462e-05
3.54194e-06
-6.01389e-05
1.82065e-05
-5.47152e-05
3.11511e-05
-4.80854e-05
4.17744e-05
-4.05117e-05
5.01344e-05
-3.22931e-05
5.61242e-05
-2.39071e-05
5.97267e-05
-1.53816e-05
6.10708e-05
-7.22781e-06
6.02941e-05
5.15997e-07
5.7676e-05
7.41312e-06
5.35208e-05
1.32604e-05
4.81811e-05
1.80826e-05
4.18235e-05
2.18413e-05
3.47744e-05
2.4579e-05
2.74346e-05
2.63944e-05
1.99397e-05
2.73619e-05
1.25706e-05
2.76699e-05
5.43627e-06
2.74591e-05
-1.44587e-06
2.69208e-05
-8.07616e-06
2.6241e-05
-1.44512e-05
2.55077e-05
-2.06926e-05
2.47366e-05
-2.68262e-05
2.38134e-05
-3.28093e-05
2.2722e-05
-3.8593e-05
2.13124e-05
-4.3955e-05
1.9333e-05
-4.87619e-05
1.68703e-05
-5.29064e-05
1.38626e-05
-5.60211e-05
1.0083e-05
-5.80164e-05
5.65746e-06
-5.86516e-05
4.08354e-07
-5.76406e-05
-5.57642e-06
-5.48471e-05
-1.1997e-05
-5.03423e-05
-1.86423e-05
-4.38438e-05
-2.55002e-05
-3.55042e-05
-3.22174e-05
-2.53927e-05
-3.85785e-05
-1.36301e-05
-4.43501e-05
-4.47293e-07
-4.92321e-05
1.39178e-05
-5.31985e-05
2.9047e-05
-5.58117e-05
4.45778e-05
-5.71232e-05
6.01128e-05
-5.69987e-05
7.5253e-05
-5.5292e-05
8.95934e-05
-5.20425e-05
0.000102704
-4.72623e-05
0.000114124
-4.08512e-05
0.000123559
-3.2996e-05
0.000130497
-2.36853e-05
0.000134604
-1.30557e-05
0.000135592
-1.4857e-06
0.000133111
1.0989e-05
0.000127205
2.37077e-05
0.000117619
3.6721e-05
0.000104434
4.93474e-05
8.78288e-05
6.11117e-05
6.84211e-05
7.10217e-05
4.74595e-05
7.65783e-05
2.66779e-05
7.59848e-05
9.6329e-05
-3.42662e-05
0.000144785
-6.07145e-05
0.000113936
-8.73076e-05
0.000114347
-0.000112017
0.000106133
-0.000132917
9.10714e-05
-0.000149245
7.30497e-05
-0.000160829
5.37957e-05
-0.000167675
3.4139e-05
-0.000170008
1.48428e-05
-0.000168054
-3.91545e-06
-0.00016204
-2.15593e-05
-0.000152411
-3.76364e-05
-0.000139757
-5.16861e-05
-0.000124348
-6.37321e-05
-0.000106891
-7.32775e-05
-8.78598e-05
-8.03513e-05
-6.79203e-05
-8.48959e-05
-4.77015e-05
-8.67918e-05
-2.7735e-05
-8.61947e-05
-8.60354e-06
-8.31768e-05
9.16665e-06
-7.79092e-05
2.50478e-05
-7.0597e-05
3.89227e-05
-6.1961e-05
5.02781e-05
-5.18677e-05
5.88863e-05
-4.09017e-05
6.47375e-05
-2.97586e-05
6.81761e-05
-1.88206e-05
6.89828e-05
-8.03528e-06
6.74348e-05
2.06289e-06
6.40296e-05
1.08171e-05
5.88938e-05
1.83948e-05
5.23974e-05
2.45771e-05
4.5008e-05
2.92286e-05
3.69129e-05
3.26721e-05
2.86603e-05
3.46451e-05
2.04049e-05
3.56156e-05
1.24797e-05
3.55936e-05
4.95731e-06
3.49807e-05
-2.12167e-06
3.39992e-05
-8.84013e-06
3.29593e-05
-1.52808e-05
3.19485e-05
-2.16582e-05
3.11135e-05
-2.79834e-05
3.01375e-05
-3.43363e-05
2.90741e-05
-4.05662e-05
2.75424e-05
-4.65793e-05
2.5347e-05
-5.2161e-05
2.24534e-05
-5.6999e-05
1.87019e-05
-6.09179e-05
1.40028e-05
-6.36118e-05
8.35189e-06
-6.48334e-05
1.63015e-06
-6.43765e-05
-6.03334e-06
-6.20046e-05
-1.43693e-05
-5.75222e-05
-2.31251e-05
-5.0889e-05
-3.21339e-05
-4.21626e-05
-4.0944e-05
-3.13518e-05
-4.93895e-05
-1.87412e-05
-5.69607e-05
-4.45795e-06
-6.35153e-05
1.10851e-05
-6.87419e-05
2.75576e-05
-7.22844e-05
4.45331e-05
-7.40984e-05
6.15673e-05
-7.40321e-05
7.83034e-05
-7.20271e-05
9.42698e-05
-6.80082e-05
0.000108888
-6.18799e-05
0.000121888
-5.38515e-05
0.000132641
-4.37487e-05
0.000140786
-3.18312e-05
0.000146004
-1.82743e-05
0.000147739
-3.22215e-06
0.000145806
1.29212e-05
0.000139889
2.96255e-05
0.000129878
4.67311e-05
0.000115714
6.35109e-05
9.75554e-05
7.92702e-05
7.60717e-05
9.25043e-05
5.28024e-05
9.98461e-05
2.98222e-05
9.89655e-05
0.00012615
-3.90569e-05
0.000183842
-6.89705e-05
0.000143848
-9.89662e-05
0.000144342
-0.000126921
0.000134088
-0.000150237
0.000114387
-0.000167979
9.07923e-05
-0.000180085
6.5901e-05
-0.000186823
4.08763e-05
-0.000188466
1.64857e-05
-0.000185284
-7.09812e-06
-0.00017777
-2.90731e-05
-0.000166306
-4.91002e-05
-0.000151486
-6.65071e-05
-0.000133724
-8.14937e-05
-0.000113627
-9.33726e-05
-9.20531e-05
-0.000101925
-6.95905e-05
-0.000107358
-4.68177e-05
-0.000109566
-2.44094e-05
-0.000108605
-3.01601e-06
-0.000104572
1.66448e-05
-9.75714e-05
3.43329e-05
-8.8286e-05
4.92778e-05
-7.69067e-05
6.13485e-05
-6.39393e-05
7.05098e-05
-5.0064e-05
7.64925e-05
-3.57423e-05
7.93375e-05
-2.16665e-05
7.94454e-05
-8.14394e-06
7.69981e-05
4.50938e-06
7.23241e-05
1.54903e-05
6.57954e-05
2.49228e-05
5.79976e-05
3.23746e-05
4.91105e-05
3.81156e-05
3.98734e-05
4.19094e-05
3.04667e-05
4.40522e-05
2.13028e-05
4.47798e-05
1.26876e-05
4.42084e-05
4.63291e-06
4.3035e-05
-2.79527e-06
4.14263e-05
-9.76175e-06
3.99246e-05
-1.63967e-05
3.85834e-05
-2.30539e-05
3.77717e-05
-2.97615e-05
3.68467e-05
-3.65701e-05
3.58842e-05
-4.34138e-05
3.4387e-05
-5.01568e-05
3.20901e-05
-5.65784e-05
2.88744e-05
-6.24388e-05
2.45614e-05
-6.73579e-05
1.89208e-05
-7.09582e-05
1.19514e-05
-7.302e-05
3.69141e-06
-7.31831e-05
-5.87076e-06
-7.11547e-05
-1.63979e-05
-6.67643e-05
-2.7516e-05
-6.0044e-05
-3.88546e-05
-5.08594e-05
-5.01292e-05
-3.93364e-05
-6.09132e-05
-2.55524e-05
-7.07453e-05
-9.84556e-06
-7.92223e-05
7.22368e-06
-8.58109e-05
2.54614e-05
-9.05219e-05
4.43417e-05
-9.29787e-05
6.33892e-05
-9.30801e-05
8.2128e-05
-9.07667e-05
0.000100086
-8.59667e-05
0.000116805
-7.86003e-05
0.000131707
-6.87542e-05
0.000144301
-5.63437e-05
0.000154073
-4.16034e-05
0.000160683
-2.48847e-05
0.000163525
-6.06509e-06
0.000162296
1.41506e-05
0.000156607
3.53143e-05
0.000146201
5.71358e-05
0.000130831
7.88799e-05
0.000110599
9.95027e-05
8.62043e-05
0.000116898
5.9938e-05
0.000126113
3.39542e-05
0.000124949
0.000160104
-4.4988e-05
0.000228829
-7.95471e-05
0.000178407
-0.000114186
0.000178981
-0.000146563
0.000166465
-0.000172842
0.000140667
-0.000192107
0.000110056
-0.000204641
7.84351e-05
-0.000210921
4.71562e-05
-0.000211493
1.70574e-05
-0.000206805
-1.17861e-05
-0.000197254
-3.86234e-05
-0.000183547
-6.2806e-05
-0.000165902
-8.41513e-05
-0.000145177
-0.00010222
-0.000122083
-0.000116467
-9.71927e-05
-0.000126816
-7.14108e-05
-0.000133142
-4.54114e-05
-0.000135566
-1.99797e-05
-0.000134037
4.19373e-06
-0.000128746
2.64546e-05
-0.000119833
4.6063e-05
-0.000107895
6.27043e-05
-9.35487e-05
7.58579e-05
-7.70934e-05
8.54232e-05
-5.96297e-05
9.12948e-05
-4.16141e-05
9.36191e-05
-2.39908e-05
9.26521e-05
-7.17658e-06
8.87887e-05
8.37366e-06
8.24965e-05
2.17839e-05
7.42136e-05
3.32074e-05
6.45159e-05
4.20741e-05
5.39606e-05
4.86723e-05
4.29784e-05
5.2892e-05
3.20659e-05
5.49641e-05
2.1834e-05
5.50111e-05
1.23477e-05
5.36938e-05
3.8146e-06
5.15681e-05
-3.8589e-06
4.91004e-05
-1.08903e-05
4.69568e-05
-1.75747e-05
4.52682e-05
-2.43649e-05
4.45618e-05
-3.14243e-05
4.39053e-05
-3.87777e-05
4.3236e-05
-4.63891e-05
4.19964e-05
-5.41195e-05
3.98187e-05
-6.17822e-05
3.6536e-05
-6.88421e-05
3.16209e-05
-7.50472e-05
2.51262e-05
-7.9924e-05
1.6829e-05
-8.30882e-05
6.85648e-06
-8.40059e-05
-4.95235e-06
-8.25547e-05
-1.78486e-05
-7.85611e-05
-3.15094e-05
-7.17031e-05
-4.57125e-05
-6.17806e-05
-6.00517e-05
-4.92389e-05
-7.34548e-05
-3.4367e-05
-8.56173e-05
-1.70532e-05
-9.65366e-05
2.04643e-06
-0.000104911
2.25907e-05
-0.000111067
4.38274e-05
-0.000114217
6.53814e-05
-0.000114635
8.66391e-05
-0.000112025
0.000107199
-0.000106526
0.000126475
-9.78757e-05
0.000143809
-8.60866e-05
0.000158664
-7.11964e-05
0.000170596
-5.35355e-05
0.000179011
-3.32992e-05
0.000183388
-1.04417e-05
0.000183189
1.43506e-05
0.000177973
4.0532e-05
0.000167264
6.78463e-05
0.000150543
9.56015e-05
0.000127665
0.000122382
9.9394e-05
0.00014517
6.90243e-05
0.000156484
3.89844e-05
0.000154988
0.000199089
-5.18357e-05
0.000280665
-9.23991e-05
0.00021897
-0.000133358
0.00021994
-0.00017202
0.000205127
-0.000202109
0.000170755
-0.000222921
0.000130868
-0.000235422
9.09359e-05
-0.00024069
5.24247e-05
-0.000239711
1.60798e-05
-0.000232975
-1.85218e-05
-0.000221008
-5.05895e-05
-0.000204372
-7.94431e-05
-0.000183399
-0.000105124
-0.000159119
-0.000126501
-0.000132002
-0.000143585
-0.00010309
-0.000155728
-7.32872e-05
-0.000162944
-4.33468e-05
-0.000165506
-1.40968e-05
-0.000163287
1.3622e-05
-0.000156465
3.89013e-05
-0.000145112
6.11218e-05
-0.000130116
7.94683e-05
-0.000111896
9.40931e-05
-9.17185e-05
0.000104025
-6.9562e-05
0.000109768
-4.73561e-05
0.000111269
-2.54922e-05
0.000108886
-4.79244e-06
0.000103366
1.38949e-05
9.50105e-05
3.01395e-05
8.44182e-05
4.37994e-05
7.22448e-05
5.42466e-05
5.92346e-05
6.16816e-05
4.61133e-05
6.60129e-05
3.34937e-05
6.75835e-05
2.17987e-05
6.67064e-05
1.13776e-05
6.41153e-05
2.37127e-06
6.05738e-05
-5.33482e-06
5.68049e-05
-1.22744e-05
5.38947e-05
-1.87377e-05
5.17295e-05
-2.55119e-05
5.1334e-05
-3.28535e-05
5.12457e-05
-4.08395e-05
5.12218e-05
-4.94641e-05
5.06213e-05
-5.84781e-05
4.88335e-05
-6.75695e-05
4.56283e-05
-7.63855e-05
4.04375e-05
-8.43338e-05
3.30745e-05
-9.09651e-05
2.34599e-05
-9.56073e-05
1.14981e-05
-9.79244e-05
-2.63565e-06
-9.73027e-05
-1.84706e-05
-9.35172e-05
-3.5295e-05
-8.64128e-05
-5.2817e-05
-7.61639e-05
-7.03007e-05
-6.22741e-05
-8.73446e-05
-4.52627e-05
-0.000102629
-2.59047e-05
-0.000115895
-4.22802e-06
-0.000126588
1.88985e-05
-0.000134193
4.30284e-05
-0.000138346
6.75195e-05
-0.000139126
9.18219e-05
-0.000136327
0.00011547
-0.000130174
0.000137759
-0.000120165
0.000158166
-0.000106494
0.000175987
-8.90171e-05
0.000190552
-6.81002e-05
0.000201204
-4.39497e-05
0.00020761
-1.68459e-05
0.000208999
1.29638e-05
0.000204816
4.47159e-05
0.000194153
7.85091e-05
0.000176049
0.000113706
0.000149867
0.000148563
0.000116091
0.000178946
8.0074e-05
0.0001925
4.49761e-05
0.000190086
0.000244065
-5.94538e-05
0.000340118
-0.000108495
0.00026801
-0.000157924
0.000269369
-0.000205319
0.000252521
-0.000239897
0.000205334
-0.000261652
0.000152623
-0.000273259
0.000102544
-0.000276842
5.60075e-05
-0.000273606
1.28449e-05
-0.000264243
-2.7885e-05
-0.000249392
-6.54405e-05
-0.000229218
-9.96165e-05
-0.000204391
-0.000129951
-0.000175564
-0.000155326
-0.000143736
-0.000175413
-0.000109979
-0.000189484
-7.51484e-05
-0.000197775
-4.03936e-05
-0.000200262
-6.50966e-06
-0.000197172
2.532e-05
-0.000188296
5.46208e-05
-0.000174414
8.00584e-05
-0.000155554
0.000100897
-0.000132735
0.000116465
-0.000107287
0.000127109
-8.02074e-05
0.00013253
-5.27777e-05
0.000132938
-2.59007e-05
0.000128972
-8.28015e-07
0.000121195
2.16713e-05
0.000110063
4.12705e-05
9.65365e-05
5.7325e-05
8.12812e-05
6.95012e-05
6.51964e-05
7.77658e-05
4.93041e-05
8.19049e-05
3.43053e-05
8.25824e-05
2.09053e-05
8.01058e-05
9.41821e-06
7.56027e-05
5.71124e-08
6.99355e-05
-7.48384e-06
6.43459e-05
-1.39192e-05
6.03303e-05
-1.97937e-05
5.76049e-05
-2.63636e-05
5.79054e-05
-3.38931e-05
5.87771e-05
-4.25851e-05
5.99157e-05
-5.23757e-05
6.04132e-05
-6.30837e-05
5.95422e-05
-7.41602e-05
5.6705e-05
-8.51371e-05
5.14142e-05
-9.54142e-05
4.33514e-05
-0.000104247
3.2293e-05
-0.000110875
1.81259e-05
-0.000114761
1.2507e-06
-0.000115295
-1.79365e-05
-0.000112082
-3.85075e-05
-0.000104749
-6.015e-05
-9.33181e-05
-8.17306e-05
-7.81843e-05
-0.000102478
-5.92399e-05
-0.000121573
-3.71417e-05
-0.000137993
-1.25092e-05
-0.000151221
1.40063e-05
-0.000160708
4.16931e-05
-0.000166033
6.97821e-05
-0.000167215
9.77999e-05
-0.000164345
0.000125019
-0.000157394
0.000151118
-0.000146263
0.000175181
-0.000130558
0.000196485
-0.000110321
0.000214224
-8.58391e-05
0.000227865
-5.75909e-05
0.000236835
-2.58154e-05
0.00024051
9.28863e-06
0.000238059
4.71655e-05
0.00022815
8.8418e-05
0.000209015
0.00013284
0.000178997
0.00017858
0.000137329
0.000220614
9.32418e-05
0.000236586
5.11882e-05
0.00023214
0.000295253
-6.97456e-05
0.000409863
-0.000133348
0.000331612
-0.000192941
0.000328962
-0.000250104
0.000309683
-0.000288969
0.000244199
-0.000310291
0.000173945
-0.000319405
0.000111657
-0.000319911
5.65141e-05
-0.000313563
6.49676e-06
-0.00030121
-4.02381e-05
-0.000282909
-8.37408e-05
-0.000258643
-0.000123882
-0.00022899
-0.000159603
-0.000194532
-0.000189785
-0.00015692
-0.000213025
-0.000117352
-0.000229054
-7.68761e-05
-0.000238252
-3.62888e-05
-0.000240851
3.19428e-06
-0.000236656
4.0502e-05
-0.000225604
7.41301e-05
-0.000208043
0.000103708
-0.000185133
0.000127623
-0.00015665
0.000145276
-0.000124941
0.000156283
-9.12154e-05
0.000160915
-5.74097e-05
0.000159867
-2.48529e-05
0.00015361
5.42925e-06
0.000142684
3.25971e-05
0.000128177
5.57772e-05
0.000110862
7.46407e-05
9.15734e-05
8.87911e-05
7.18555e-05
9.74854e-05
5.24722e-05
0.000101289
3.45135e-05
0.000100542
1.89255e-05
9.56935e-05
6.31268e-06
8.82149e-05
-3.3852e-06
7.96337e-05
-1.04625e-05
7.1425e-05
-1.55352e-05
6.54051e-05
-2.01429e-05
6.22146e-05
-2.64272e-05
6.41911e-05
-3.43428e-05
6.66938e-05
-4.39273e-05
6.95007e-05
-5.51221e-05
7.16083e-05
-6.76774e-05
7.20979e-05
-8.12715e-05
7.02997e-05
-9.50562e-05
6.51994e-05
-0.000108408
5.67034e-05
-0.00012013
4.40161e-05
-0.000129439
2.74353e-05
-0.000135487
7.29909e-06
-0.000137525
-1.58975e-05
-0.000134916
-4.11167e-05
-0.000127607
-6.74582e-05
-0.000115297
-9.40409e-05
-9.80754e-05
-0.0001197
-7.66451e-05
-0.000143003
-5.11609e-05
-0.000163476
-2.26897e-05
-0.000179691
7.79676e-06
-0.000191195
3.95758e-05
-0.000197812
7.19195e-05
-0.00019956
0.000104062
-0.000196489
0.000135756
-0.00018909
0.000166195
-0.000176704
0.000194771
-0.000159135
0.000220449
-0.000135999
0.00024211
-0.0001075
0.000259238
-7.47178e-05
0.000271504
-3.80807e-05
0.00027836
2.43157e-06
0.000278867
4.66579e-05
0.000271138
9.61473e-05
0.00025167
0.000152307
0.000217116
0.000213135
0.000165752
0.000271977
0.000111753
0.000290585
5.9037e-05
0.000284856
0.00035429
-7.32961e-05
0.000483159
-0.000167764
0.00042608
-0.000249265
0.000410463
-0.00031809
0.000378508
-0.000357598
0.000283707
-0.000370979
0.000187325
-0.000373987
0.000114664
-0.000369506
5.20326e-05
-0.00035924
-3.76845e-06
-0.000343536
-5.59423e-05
-0.000321688
-0.000105589
-0.000292693
-0.000152877
-0.000257068
-0.000195229
-0.000216199
-0.000230654
-0.000171793
-0.000257432
-0.000125035
-0.000275811
-7.77016e-05
-0.000285586
-3.01836e-05
-0.000288369
1.59946e-05
-0.000282835
5.94635e-05
-0.000269074
9.93377e-05
-0.000247918
0.000133328
-0.000219123
0.000160747
-0.00018407
0.000180027
-0.000144221
0.000191842
-0.000103029
0.000195675
-6.12424e-05
0.00019267
-2.18474e-05
0.000183493
1.46075e-05
0.000168968
4.7123e-05
0.000149941
7.4806e-05
0.000127848
9.67351e-05
0.000103715
0.000112924
7.90639e-05
0.000122136
5.51573e-05
0.000125194
3.3603e-05
0.000122095
1.52741e-05
0.000114023
8.26433e-07
0.000102664
-9.2607e-06
8.97215e-05
-1.49452e-05
7.71097e-05
-1.64794e-05
6.69388e-05
-1.79731e-05
6.37074e-05
-2.40592e-05
7.02763e-05
-3.32443e-05
7.58784e-05
-4.43833e-05
8.06397e-05
-5.74942e-05
8.47195e-05
-7.26576e-05
8.72616e-05
-8.93606e-05
8.70028e-05
-0.000106838
8.26769e-05
-0.000123799
7.36641e-05
-0.000139316
5.95334e-05
-0.00015225
4.03692e-05
-0.000160935
1.59849e-05
-0.000164717
-1.2116e-05
-0.000162991
-4.28431e-05
-0.000155573
-7.48768e-05
-0.000142106
-0.000107509
-0.000122848
-0.000138958
-9.80154e-05
-0.000167836
-6.87776e-05
-0.000192715
-3.56668e-05
-0.000212804
-4.33402e-07
-0.000226431
3.63003e-05
-0.000234548
7.34876e-05
-0.000236748
0.000110471
-0.000233472
0.000146892
-0.000225511
0.00018262
-0.000212431
0.000216612
-0.000193126
0.000247577
-0.000166963
0.000273961
-0.000133883
0.000295176
-9.59318e-05
0.000311264
-5.41694e-05
0.000322524
-8.8281e-06
0.000328037
4.11464e-05
0.000325485
9.86999e-05
0.000310803
0.000166992
0.000274226
0.000249712
0.000209244
0.000336959
0.000140768
0.000359063
6.70628e-05
0.000358562
0.000421353
-2.29822e-05
0.000506141
-0.000156807
0.000559906
-0.000331548
0.000585204
-0.000432777
0.000479736
-0.000456718
0.000307648
-0.000446735
0.000177342
-0.000436886
0.000104815
-0.000426739
4.18851e-05
-0.000412135
-1.83729e-05
-0.000392714
-7.53653e-05
-0.000366714
-0.00013159
-0.000333119
-0.000186472
-0.000291577
-0.000236771
-0.000243353
-0.000278879
-0.000190412
-0.000310374
-0.00013553
-0.000330695
-7.91589e-05
-0.000341957
-2.29455e-05
-0.000344583
3.17226e-05
-0.000337504
8.35195e-05
-0.000320871
0.000130662
-0.000295061
0.000170824
-0.000259285
0.000202375
-0.000215621
0.000224827
-0.000166673
0.000236184
-0.000114386
0.000238659
-6.37173e-05
0.00023294
-1.61281e-05
0.000219882
2.76644e-05
0.000200655
6.63501e-05
0.000176304
9.91561e-05
0.000148225
0.000124814
0.000118035
0.000143114
8.71458e-05
0.000153025
5.7729e-05
0.000154613
3.07808e-05
0.000149044
7.75296e-06
0.00013705
-9.81837e-06
0.000120234
-2.01821e-05
0.000100084
-2.22098e-05
7.91362e-05
-1.65182e-05
6.12465e-05
-1.17142e-05
5.89032e-05
-1.64578e-05
7.50201e-05
-2.75668e-05
8.6988e-05
-4.19285e-05
9.5002e-05
-5.85658e-05
0.000101358
-7.73501e-05
0.000106047
-9.80971e-05
0.000107751
-0.00011994
0.00010452
-0.000141856
9.55807e-05
-0.000162481
8.01591e-05
-0.000179707
5.75955e-05
-0.000192185
2.84621e-05
-0.000198334
-5.9673e-06
-0.000197909
-4.32688e-05
-0.00019051
-8.22763e-05
-0.00017563
-0.000122389
-0.000153711
-0.000160878
-0.000124981
-0.000196567
-8.99514e-05
-0.000227745
-5.11747e-05
-0.000251581
-9.78088e-06
-0.000267823
3.31568e-05
-0.000277484
7.67667e-05
-0.000280357
0.000120068
-0.000276773
0.000162351
-0.000267793
0.000203603
-0.000253683
0.000243122
-0.000232644
0.000279398
-0.000203239
0.000310757
-0.000165243
0.000336555
-0.000121729
0.000357471
-7.5086e-05
0.000374025
-2.53821e-05
0.000385864
2.93079e-05
0.000392391
9.21722e-05
0.00039269
0.000166691
0.000366082
0.000276321
0.000291433
0.000411608
0.000165388
0.000485107
3.80756e-05
0.000485874
0.000459428
5.93734e-05
0.000446768
4.63426e-05
0.000572937
-0.000227393
0.000858939
-0.000526252
0.000778595
-0.000602202
0.000383598
-0.000552365
0.000127506
-0.000510233
6.26832e-05
-0.000484355
1.60068e-05
-0.000465942
-3.67865e-05
-0.000446988
-9.43198e-05
-0.000422818
-0.000155761
-0.000388613
-0.000220679
-0.000341584
-0.000283801
-0.000284054
-0.00033641
-0.000221841
-0.000372587
-0.000156699
-0.000395837
-8.92181e-05
-0.000409438
-2.13382e-05
-0.000412463
4.46491e-05
-0.000403491
0.000107493
-0.000383715
0.000164908
-0.000352477
0.000214681
-0.000309058
0.000253367
-0.000254307
0.000277868
-0.000191175
0.000289781
-0.0001263
0.000289832
-6.37689e-05
0.000280007
-6.30283e-06
0.000261748
4.59235e-05
0.000236603
9.14944e-05
0.000206166
0.000129593
0.000171351
0.000159628
0.000134356
0.000180109
9.61924e-05
0.000191188
5.82921e-05
0.000192511
2.27543e-05
0.00018458
-7.39109e-06
0.000167194
-2.78636e-05
0.000140705
-3.61836e-05
0.000108403
-3.18236e-05
7.47761e-05
-1.80151e-05
4.7438e-05
-5.5438e-06
4.64315e-05
-5.25226e-06
7.47282e-05
-1.56817e-05
9.74171e-05
-3.28114e-05
0.000112132
-5.4662e-05
0.000123208
-8.01933e-05
0.000131578
-0.000107642
0.0001352
-0.000135312
0.00013219
-0.000161717
0.000121986
-0.000186646
0.000105088
-0.000209243
8.0193e-05
-0.000226628
4.58473e-05
-0.000237097
4.50139e-06
-0.000238979
-4.13863e-05
-0.000231898
-8.93578e-05
-0.000215467
-0.00013882
-0.000189313
-0.000187032
-0.000153548
-0.000232332
-0.000110273
-0.000271019
-6.25902e-05
-0.000299264
-1.27994e-05
-0.000317614
3.82805e-05
-0.000328564
9.00656e-05
-0.000332142
0.000140195
-0.000326902
0.000188244
-0.000315841
0.000235843
-0.000301282
0.00028264
-0.00027944
0.000323888
-0.000244487
0.000356957
-0.000198313
0.000383091
-0.000147863
0.000405436
-9.74319e-05
0.000428005
-4.79508e-05
0.000454977
2.33612e-06
0.000489534
5.76149e-05
0.00053302
0.000123204
0.000512197
0.000297143
0.000316305
0.0006075
3.7778e-05
0.000763634
-5.31745e-05
0.000576827
0.000406255
0.000177377
0.000269391
0.000403366
0.000346947
0.000213696
0.00104861
-0.000332017
0.00132431
-0.000608481
0.000660063
-0.000628635
0.00014766
-0.000588012
2.206e-05
-0.000555466
-1.65388e-05
-0.000535814
-5.64389e-05
-0.000521591
-0.000108543
-0.000500623
-0.000176729
-0.00045926
-0.000262042
-0.000393215
-0.000349846
-0.000314814
-0.000414811
-0.000240374
-0.000447027
-0.000171575
-0.000464635
-9.99752e-05
-0.000481038
-2.42353e-05
-0.000488203
5.26584e-05
-0.000480385
0.000128136
-0.000459193
0.00019985
-0.00042419
0.000262437
-0.000371645
0.000309908
-0.000301778
0.000340182
-0.000221449
0.000351876
-0.000137993
0.000347786
-5.96791e-05
0.000331778
9.70487e-06
0.000307533
7.01678e-05
0.000276309
0.000122717
0.00023865
0.000167252
0.000195727
0.00020255
0.000148615
0.00022722
9.9789e-05
0.000240013
5.21785e-05
0.000240122
8.57016e-06
0.000228188
-2.35357e-05
0.0001993
-3.99475e-05
0.000157116
-4.20642e-05
0.000110519
-3.53287e-05
6.80396e-05
-2.37363e-05
3.58446e-05
-1.23655e-05
3.50598e-05
-8.37948e-06
7.07414e-05
-1.34922e-05
0.000102529
-2.68772e-05
0.000125516
-4.81825e-05
0.000144513
-7.77921e-05
0.000161188
-0.000113142
0.000170549
-0.000149143
0.000168192
-0.000184087
0.00015693
-0.000217335
0.000138336
-0.000247107
0.000109965
-0.000269647
6.83881e-05
-0.000282214
1.7069e-05
-0.000285297
-3.83028e-05
-0.000277908
-9.67466e-05
-0.000259472
-0.000157257
-0.000228476
-0.000218028
-0.000185271
-0.000275537
-0.000131448
-0.000324841
-7.26596e-05
-0.000358052
-1.39805e-05
-0.000376294
4.3295e-05
-0.00038584
9.60976e-05
-0.000384945
0.000142382
-0.000373187
0.00018685
-0.00036031
0.000242467
-0.000356899
0.000311323
-0.000348297
0.000376545
-0.000309708
0.000421878
-0.000243646
0.000448851
-0.000174835
0.000470269
-0.000118849
0.000498634
-7.63156e-05
0.000543443
-4.24734e-05
0.000604048
-2.99136e-06
0.000624442
0.000102811
0.000450886
0.000470699
-8.13748e-06
0.00106652
-0.000281457
0.00103695
-0.000143593
0.000438963
0.000262661
0.000403732
-0.000134341
0.00065185
9.88289e-05
0.000498818
0.00120164
-4.44665e-05
0.00186759
-0.000480082
0.00109568
-0.000611972
0.00027955
-0.000620764
3.08527e-05
-0.00060589
-3.14134e-05
-0.000600921
-6.14071e-05
-0.000593427
-0.000116037
-0.000558874
-0.000211282
-0.000481149
-0.000339767
-0.000369701
-0.000461294
-0.000256679
-0.000527833
-0.000169776
-0.000533931
-0.00010629
-0.000528122
-4.51378e-05
-0.00054219
2.34577e-05
-0.000556798
0.000100518
-0.000557445
0.00018441
-0.000543084
0.000267104
-0.000506883
0.000337757
-0.000442297
0.00038931
-0.000353331
0.000418441
-0.00025058
0.000427917
-0.000147469
0.000421368
-5.31308e-05
0.000403623
2.74495e-05
0.000376333
9.74574e-05
0.000338683
0.000160366
0.000289834
0.0002161
0.000231401
0.000260985
0.000168661
0.00028996
0.000108675
0.0003
5.62438e-05
0.000292553
1.79781e-05
0.000266455
-2.51407e-06
0.000219792
-6.36434e-06
0.000160966
-5.77299e-06
0.000109927
-1.16716e-05
7.39371e-05
-2.43106e-05
4.84823e-05
-3.71663e-05
4.79143e-05
-4.79142e-05
8.14879e-05
-5.69054e-05
0.000111519
-6.36424e-05
0.000132252
-7.18933e-05
0.000152763
-8.93604e-05
0.000178654
-0.000122182
0.00020337
-0.000166864
0.000212874
-0.000215989
0.000206054
-0.000267546
0.000189894
-0.00031518
0.0001576
-0.000348081
0.00010129
-0.000360853
2.98416e-05
-0.000356573
-4.25838e-05
-0.000342563
-0.000110756
-0.000322241
-0.000177579
-0.000296284
-0.000243985
-0.000259721
-0.0003121
-0.000208521
-0.000376042
-0.000145446