/*--------------------------------*- C++ -*----------------------------------*\
| =========                 |                                                 |
| \\      /  F ield         | OpenFOAM: The Open Source CFD Toolbox           |
|  \\    /   O peration     | Version:  2412                                  |
|   \\  /    A nd           | Website:  www.openfoam.com                      |
|    \\/     M anipulation  |                                                 |
\*---------------------------------------------------------------------------*/
FoamFile
{
    version     2.0;
    format      ascii;
    arch        "LSB;label=32;scalar=64";
    class       volVectorField;
    location    "8.25";
    object      U;
}
// * * * * * * * * * * * * * * * * * * * * * * * * * * * * * * * * * * * * * //

dimensions      [0 1 -1 0 0 0 0];

internalField   nonuniform List<vector> 
6400
(
(0.00118107 -0.00122337 0)
(0.0038294 -0.00134705 0)
(0.00704974 -0.00143769 0)
(0.0105844 -0.0014884 0)
(0.0142113 -0.00146892 0)
(0.0176688 -0.0013874 0)
(0.0208214 -0.00127502 0)
(0.0235938 -0.00114952 0)
(0.0259409 -0.00102941 0)
(0.0279229 -0.000902118 0)
(0.0295679 -0.000791166 0)
(0.0308921 -0.000677689 0)
(0.0319577 -0.000567287 0)
(0.032781 -0.00045997 0)
(0.0333861 -0.000354599 0)
(0.03378 -0.000245891 0)
(0.0339592 -0.000137236 0)
(0.0339299 -3.0336e-05 0)
(0.0336949 7.83262e-05 0)
(0.0332538 0.000188062 0)
(0.0326061 0.000296849 0)
(0.0317552 0.000401556 0)
(0.0307118 0.000501949 0)
(0.0294903 0.000592392 0)
(0.0281038 0.000674975 0)
(0.0265688 0.000745966 0)
(0.0249161 0.000805893 0)
(0.0231593 0.000855418 0)
(0.0213153 0.000893833 0)
(0.0194204 0.000919931 0)
(0.0174863 0.000942136 0)
(0.0155292 0.000949183 0)
(0.0135753 0.000946722 0)
(0.0116415 0.000937866 0)
(0.0097303 0.000923496 0)
(0.0078473 0.000911071 0)
(0.00599811 0.00090077 0)
(0.00417846 0.000886285 0)
(0.00238756 0.000875437 0)
(0.000615163 0.000870202 0)
(-0.00115327 0.000870537 0)
(-0.00292778 0.000871952 0)
(-0.00471487 0.000882952 0)
(-0.00652253 0.000895329 0)
(-0.00835815 0.000905726 0)
(-0.0102241 0.000917374 0)
(-0.0121253 0.000926362 0)
(-0.0140396 0.000937215 0)
(-0.0159565 0.000931685 0)
(-0.0178796 0.000927005 0)
(-0.0197829 0.000913346 0)
(-0.0216416 0.000876912 0)
(-0.0234487 0.000840271 0)
(-0.0251679 0.000800444 0)
(-0.0267817 0.000736739 0)
(-0.028284 0.000668951 0)
(-0.0296459 0.000588965 0)
(-0.0308491 0.000504461 0)
(-0.0318841 0.000412142 0)
(-0.0327432 0.000315965 0)
(-0.033415 0.000215069 0)
(-0.0339005 0.000113191 0)
(-0.0341938 9.96339e-06 0)
(-0.0342946 -9.59841e-05 0)
(-0.0342019 -0.000201872 0)
(-0.0339091 -0.000304014 0)
(-0.0334095 -0.000410719 0)
(-0.0326855 -0.000524822 0)
(-0.0317074 -0.000640662 0)
(-0.0304502 -0.000756434 0)
(-0.0288738 -0.000878153 0)
(-0.0269179 -0.00101333 0)
(-0.0245447 -0.00116103 0)
(-0.0217129 -0.00129783 0)
(-0.0184637 -0.00143758 0)
(-0.0148849 -0.00152461 0)
(-0.0111157 -0.00155305 0)
(-0.00743324 -0.00150771 0)
(-0.00406699 -0.00141817 0)
(-0.00126818 -0.00131233 0)
(0.00118901 -0.00379565 0)
(0.00414847 -0.0046159 0)
(0.00817311 -0.00539581 0)
(0.0127903 -0.00577726 0)
(0.0176181 -0.00571469 0)
(0.0222037 -0.00530761 0)
(0.0262874 -0.00469686 0)
(0.0297343 -0.00401383 0)
(0.0325059 -0.00334746 0)
(0.0346764 -0.0027223 0)
(0.0363196 -0.00218928 0)
(0.0375125 -0.00172713 0)
(0.0383456 -0.00133085 0)
(0.0388733 -0.000978455 0)
(0.039153 -0.000642929 0)
(0.0392094 -0.000324128 0)
(0.0390396 -1.21852e-05 0)
(0.0386623 0.000292766 0)
(0.0380861 0.000597141 0)
(0.0373143 0.000905141 0)
(0.0363487 0.00120879 0)
(0.0351965 0.00150329 0)
(0.0338691 0.00177945 0)
(0.0323833 0.00203192 0)
(0.0307501 0.00226686 0)
(0.0289801 0.00246812 0)
(0.027106 0.00263485 0)
(0.0251317 0.00277566 0)
(0.0230713 0.0028821 0)
(0.0209762 0.00295359 0)
(0.0188471 0.00299411 0)
(0.0166906 0.00301378 0)
(0.0145465 0.00299949 0)
(0.0124265 0.00296622 0)
(0.0103329 0.0029195 0)
(0.00827375 0.00287159 0)
(0.00624472 0.00282436 0)
(0.00424576 0.00277688 0)
(0.00228464 0.00273976 0)
(0.000345154 0.00271953 0)
(-0.00159091 0.00272016 0)
(-0.00352975 0.00273519 0)
(-0.00548395 0.0027685 0)
(-0.00747119 0.00280951 0)
(-0.0094862 0.00285371 0)
(-0.0115313 0.00289735 0)
(-0.0136112 0.00293321 0)
(-0.0157127 0.00296166 0)
(-0.0178108 0.00296127 0)
(-0.0199098 0.00294348 0)
(-0.0220129 0.00289928 0)
(-0.0240578 0.00281456 0)
(-0.0260392 0.00270857 0)
(-0.0279623 0.00258094 0)
(-0.0297784 0.0024031 0)
(-0.0314778 0.00220898 0)
(-0.0330504 0.00198595 0)
(-0.0344806 0.00174514 0)
(-0.0357613 0.00148955 0)
(-0.0368826 0.001222 0)
(-0.0378391 0.00094672 0)
(-0.038627 0.000668493 0)
(-0.0392397 0.000385436 0)
(-0.0396696 9.79505e-05 0)
(-0.0399083 -0.000194672 0)
(-0.0399514 -0.000495376 0)
(-0.0397777 -0.000819198 0)
(-0.0393389 -0.00118863 0)
(-0.0385823 -0.0016049 0)
(-0.0374578 -0.00209377 0)
(-0.0358831 -0.00266793 0)
(-0.0337366 -0.00332861 0)
(-0.0309094 -0.00406551 0)
(-0.0273637 -0.00482073 0)
(-0.0231439 -0.00550649 0)
(-0.0183868 -0.00593402 0)
(-0.0133807 -0.00601508 0)
(-0.00857595 -0.00562406 0)
(-0.00437013 -0.00482785 0)
(-0.00126455 -0.00404308 0)
(0.00121029 -0.00656271 0)
(0.00439891 -0.00837459 0)
(0.00887583 -0.0100884 0)
(0.0141231 -0.0109298 0)
(0.0197119 -0.010858 0)
(0.0250696 -0.0100519 0)
(0.0298125 -0.00879658 0)
(0.0337477 -0.00737177 0)
(0.0368551 -0.00596986 0)
(0.0392197 -0.00469487 0)
(0.0409526 -0.00360705 0)
(0.0421655 -0.00269926 0)
(0.0429644 -0.00193534 0)
(0.0434273 -0.00128565 0)
(0.0436024 -0.000677122 0)
(0.0435247 -0.000122475 0)
(0.0432102 0.000412561 0)
(0.0426694 0.000929502 0)
(0.0419135 0.00143787 0)
(0.0409479 0.00194727 0)
(0.039779 0.00244263 0)
(0.0384103 0.00291386 0)
(0.0368512 0.00335295 0)
(0.0351305 0.00375579 0)
(0.0332512 0.0041191 0)
(0.0312249 0.00443807 0)
(0.0291023 0.00470402 0)
(0.0268839 0.00490959 0)
(0.0245775 0.00507336 0)
(0.0222369 0.00517863 0)
(0.0198887 0.00522305 0)
(0.0175272 0.00523026 0)
(0.0151817 0.0051967 0)
(0.0128869 0.00513434 0)
(0.0106377 0.0050481 0)
(0.00844395 0.00495513 0)
(0.00630555 0.00486325 0)
(0.00421644 0.00477433 0)
(0.0021751 0.0047086 0)
(0.000166529 0.0046734 0)
(-0.00182902 0.00467206 0)
(-0.00383379 0.00470113 0)
(-0.00586571 0.00475828 0)
(-0.00794036 0.00483443 0)
(-0.0100607 0.00492124 0)
(-0.0122345 0.00500443 0)
(-0.0144622 0.00507073 0)
(-0.0167296 0.00512406 0)
(-0.0190195 0.00514222 0)
(-0.0213285 0.00511968 0)
(-0.0236487 0.0050505 0)
(-0.0259226 0.00494645 0)
(-0.0281375 0.00478154 0)
(-0.0302997 0.00456546 0)
(-0.032351 0.00430151 0)
(-0.0342787 0.00398897 0)
(-0.0360832 0.00363833 0)
(-0.0377354 0.00325663 0)
(-0.0392262 0.0028503 0)
(-0.0405468 0.00241984 0)
(-0.0416907 0.00197921 0)
(-0.0426577 0.00152952 0)
(-0.0434398 0.00106636 0)
(-0.0440274 0.000588275 0)
(-0.0444115 9.21824e-05 0)
(-0.0445793 -0.000435578 0)
(-0.0445038 -0.00101333 0)
(-0.0441319 -0.00168318 0)
(-0.0434188 -0.00247938 0)
(-0.0422951 -0.0034569 0)
(-0.040624 -0.00461946 0)
(-0.0382648 -0.00597533 0)
(-0.0350983 -0.00749161 0)
(-0.0310478 -0.00905918 0)
(-0.0261271 -0.0104272 0)
(-0.0205635 -0.0112848 0)
(-0.0147638 -0.0113837 0)
(-0.00929456 -0.010506 0)
(-0.00462457 -0.00875648 0)
(-0.00128963 -0.00696504 0)
(0.00117766 -0.00940604 0)
(0.00431378 -0.0123292 0)
(0.00896583 -0.0151586 0)
(0.0146577 -0.016655 0)
(0.0209536 -0.0166661 0)
(0.0270794 -0.0154122 0)
(0.032409 -0.0133725 0)
(0.0366795 -0.0110488 0)
(0.0399184 -0.00879804 0)
(0.0422956 -0.00679588 0)
(0.043989 -0.00511125 0)
(0.0451538 -0.00372392 0)
(0.0458998 -0.00256347 0)
(0.046327 -0.00158615 0)
(0.0464751 -0.000702293 0)
(0.0463717 0.000105702 0)
(0.0460433 0.000875726 0)
(0.0454753 0.00161671 0)
(0.0446825 0.00234593 0)
(0.0436683 0.00307056 0)
(0.0424306 0.00377613 0)
(0.0409777 0.00444759 0)
(0.0393192 0.0050772 0)
(0.037472 0.00565354 0)
(0.0354512 0.00616547 0)
(0.0332739 0.00661736 0)
(0.0309703 0.0069993 0)
(0.0285733 0.00729073 0)
(0.0260907 0.00750716 0)
(0.0235525 0.0076466 0)
(0.0210048 0.00770857 0)
(0.0184571 0.00769181 0)
(0.0159409 0.00762242 0)
(0.0134765 0.00750327 0)
(0.0110684 0.00735221 0)
(0.00874112 0.00719292 0)
(0.00648511 0.00702936 0)
(0.00430122 0.00688601 0)
(0.00218891 0.00677552 0)
(0.000114181 0.00671597 0)
(-0.00194338 0.00671204 0)
(-0.00400971 0.0067589 0)
(-0.00611328 0.00685625 0)
(-0.00827824 0.00699084 0)
(-0.0105094 0.00713548 0)
(-0.012822 0.00727739 0)
(-0.0151974 0.00741018 0)
(-0.0176247 0.00751024 0)
(-0.0200996 0.00755183 0)
(-0.022604 0.00754215 0)
(-0.0251057 0.007466 0)
(-0.0275629 0.00731848 0)
(-0.0299678 0.00707955 0)
(-0.03229 0.00676897 0)
(-0.0344958 0.00639563 0)
(-0.0365727 0.00595036 0)
(-0.0385006 0.0054502 0)
(-0.04026 0.00490167 0)
(-0.0418437 0.00432088 0)
(-0.0432372 0.00371191 0)
(-0.0444351 0.00308646 0)
(-0.0454444 0.0024475 0)
(-0.0462616 0.00178968 0)
(-0.0468787 0.00110774 0)
(-0.0472897 0.000396109 0)
(-0.0474868 -0.000364688 0)
(-0.0474473 -0.00120986 0)
(-0.0471339 -0.00219773 0)
(-0.0465084 -0.00340058 0)
(-0.0454646 -0.00488433 0)
(-0.0438415 -0.00668566 0)
(-0.0414781 -0.00883327 0)
(-0.0381841 -0.0112647 0)
(-0.0337827 -0.0137835 0)
(-0.0282312 -0.015983 0)
(-0.0218581 -0.0173301 0)
(-0.0153169 -0.0173373 0)
(-0.00939927 -0.0157888 0)
(-0.00457154 -0.0128861 0)
(-0.00127438 -0.00996314 0)
(0.0011139 -0.0120963 0)
(0.00390716 -0.0162075 0)
(0.00845442 -0.0204117 0)
(0.0145952 -0.0229474 0)
(0.0218652 -0.0232685 0)
(0.0290608 -0.0215016 0)
(0.0351469 -0.0183855 0)
(0.039702 -0.0148617 0)
(0.0428661 -0.0115736 0)
(0.0450027 -0.00876155 0)
(0.0464251 -0.00646871 0)
(0.0473548 -0.00462458 0)
(0.0479242 -0.00311612 0)
(0.0482383 -0.0018453 0)
(0.0483269 -0.000712292 0)
(0.0481988 0.000340594 0)
(0.0478644 0.00133569 0)
(0.0472954 0.00230613 0)
(0.0464973 0.00326996 0)
(0.0454667 0.00422199 0)
(0.0441989 0.00515248 0)
(0.0426987 0.0060456 0)
(0.0409709 0.00688295 0)
(0.0390332 0.00765256 0)
(0.036905 0.00834015 0)
(0.0346076 0.00893728 0)
(0.0321705 0.00944046 0)
(0.0296233 0.00982965 0)
(0.0269951 0.0100989 0)
(0.0243196 0.0102771 0)
(0.0216256 0.0103432 0)
(0.0189377 0.0103073 0)
(0.0162912 0.010191 0)
(0.0137094 0.010004 0)
(0.0112057 0.00977527 0)
(0.00879337 0.00952873 0)
(0.00648471 0.00927391 0)
(0.00427662 0.00905668 0)
(0.00215004 0.00888562 0)
(7.94405e-05 0.00878999 0)
(-0.00196901 0.00878306 0)
(-0.00403146 0.00885842 0)
(-0.00614183 0.00901028 0)
(-0.00833911 0.00921793 0)
(-0.0106293 0.00945095 0)
(-0.0130075 0.0096698 0)
(-0.0154775 0.009882 0)
(-0.0180381 0.0100366 0)
(-0.0206471 0.0101247 0)
(-0.0232811 0.010126 0)
(-0.0259269 0.0100429 0)
(-0.0285371 0.00984089 0)
(-0.0310792 0.00952261 0)
(-0.0335277 0.00911116 0)
(-0.0358525 0.00860762 0)
(-0.0380348 0.00801447 0)
(-0.0400585 0.00735012 0)
(-0.041888 0.00661903 0)
(-0.0435167 0.00584387 0)
(-0.0449461 0.00503723 0)
(-0.0461673 0.00421082 0)
(-0.0471848 0.0033716 0)
(-0.0480013 0.00251298 0)
(-0.0486241 0.00163075 0)
(-0.0490583 0.000716624 0)
(-0.0493046 -0.000253216 0)
(-0.0493573 -0.00133329 0)
(-0.0491996 -0.00260589 0)
(-0.0487953 -0.00416503 0)
(-0.0480293 -0.00612695 0)
(-0.0467207 -0.00859295 0)
(-0.0446309 -0.0116226 0)
(-0.0414214 -0.0151776 0)
(-0.0367134 -0.0189791 0)
(-0.0303578 -0.0223223 0)
(-0.0228566 -0.0242143 0)
(-0.0152992 -0.0238722 0)
(-0.0089104 -0.021274 0)
(-0.00418551 -0.0169638 0)
(-0.0012284 -0.0128458 0)
(0.000977543 -0.014422 0)
(0.00317932 -0.0196852 0)
(0.00782492 -0.0258092 0)
(0.0152902 -0.0301742 0)
(0.0242542 -0.0311841 0)
(0.0325886 -0.0287164 0)
(0.039172 -0.0239895 0)
(0.0437071 -0.0187307 0)
(0.0464809 -0.0140839 0)
(0.0480735 -0.0103478 0)
(0.0489665 -0.00746065 0)
(0.049463 -0.00523594 0)
(0.0497216 -0.00347547 0)
(0.0498477 -0.00198338 0)
(0.0498438 -0.000652242 0)
(0.0496642 0.000598972 0)
(0.0493054 0.00180128 0)
(0.0487384 0.00299689 0)
(0.0479392 0.00420016 0)
(0.0468939 0.00539425 0)
(0.0455962 0.00656562 0)
(0.0440446 0.0076971 0)
(0.0422484 0.0087642 0)
(0.0402237 0.0097475 0)
(0.0379868 0.0106275 0)
(0.0355707 0.0113865 0)
(0.0330003 0.0120162 0)
(0.0303074 0.0124976 0)
(0.0275484 0.0128385 0)
(0.0247373 0.0130385 0)
(0.0219013 0.013098 0)
(0.0190937 0.0130309 0)
(0.0163441 0.0128618 0)
(0.0136754 0.012595 0)
(0.0111026 0.0122656 0)
(0.00864461 0.0119017 0)
(0.00632341 0.0115389 0)
(0.00413287 0.0112162 0)
(0.00204609 0.010964 0)
(3.26148e-05 0.0108213 0)
(-0.00195287 0.0108111 0)
(-0.00395885 0.0109282 0)
(-0.00602899 0.0111565 0)
(-0.00820466 0.0114526 0)
(-0.0105161 0.0117936 0)
(-0.0129463 0.012138 0)
(-0.015484 0.0124393 0)
(-0.0181314 0.0126645 0)
(-0.020857 0.0128176 0)
(-0.0236175 0.0128487 0)
(-0.0263858 0.012742 0)
(-0.0291328 0.0124928 0)
(-0.0318077 0.0120983 0)
(-0.0343817 0.0115738 0)
(-0.0368272 0.0109337 0)
(-0.0391105 0.0101717 0)
(-0.0412142 0.00932314 0)
(-0.0431107 0.00839331 0)
(-0.0447873 0.00740764 0)
(-0.046246 0.00638241 0)
(-0.0474798 0.00534344 0)
(-0.0485001 0.00429911 0)
(-0.0493192 0.00324614 0)
(-0.0499546 0.00218173 0)
(-0.0504234 0.00109766 0)
(-0.0507487 -4.11608e-05 0)
(-0.0509544 -0.00129676 0)
(-0.0510386 -0.00276109 0)
(-0.0509974 -0.00457761 0)
(-0.0507348 -0.00695115 0)
(-0.0500274 -0.0100671 0)
(-0.0485442 -0.0141072 0)
(-0.0457779 -0.0191439 0)
(-0.0411496 -0.0248039 0)
(-0.0343735 -0.0298412 0)
(-0.0257288 -0.0324692 0)
(-0.0163593 -0.0314181 0)
(-0.00847444 -0.0269192 0)
(-0.00352717 -0.0206491 0)
(-0.00112044 -0.0154004 0)
(0.000865484 -0.0163348 0)
(0.00301047 -0.0231758 0)
(0.0104047 -0.0327383 0)
(0.0227165 -0.039628 0)
(0.0349443 -0.0405738 0)
(0.0433402 -0.0362861 0)
(0.0478689 -0.0292983 0)
(0.0501778 -0.0220263 0)
(0.051342 -0.0159032 0)
(0.0518086 -0.0112412 0)
(0.0518442 -0.00785163 0)
(0.051704 -0.00539457 0)
(0.0515587 -0.00353757 0)
(0.0514589 -0.00194062 0)
(0.0513393 -0.00050046 0)
(0.0511218 0.000889373 0)
(0.0507603 0.00227583 0)
(0.0502055 0.00369082 0)
(0.0494134 0.00513485 0)
(0.0483573 0.00658839 0)
(0.0470304 0.00802177 0)
(0.0454267 0.00941479 0)
(0.04355 0.010739 0)
(0.0414222 0.0119526 0)
(0.0390639 0.013034 0)
(0.0365076 0.0139671 0)
(0.0337833 0.0147293 0)
(0.0309365 0.0153151 0)
(0.0280143 0.0157211 0)
(0.0250447 0.0159361 0)
(0.0220689 0.0159895 0)
(0.0191352 0.015877 0)
(0.0162697 0.0156295 0)
(0.0135005 0.0152553 0)
(0.0108587 0.0147928 0)
(0.00836842 0.0142926 0)
(0.00605824 0.0137846 0)
(0.0039077 0.0133143 0)
(0.00188855 0.0129483 0)
(-2.9169e-05 0.0127429 0)
(-0.00190746 0.0127317 0)
(-0.00381901 0.0129154 0)
(-0.00582855 0.0132516 0)
(-0.00797301 0.0136844 0)
(-0.0102664 0.0141591 0)
(-0.0127323 0.0146486 0)
(-0.0153608 0.0150767 0)
(-0.0181027 0.0154107 0)
(-0.0209396 0.0156182 0)
(-0.0238495 0.0156935 0)
(-0.0267669 0.0155825 0)
(-0.0296534 0.0152789 0)
(-0.0324781 0.0148066 0)
(-0.0351967 0.014162 0)
(-0.0377783 0.0133717 0)
(-0.0401779 0.0124327 0)
(-0.0423746 0.0113764 0)
(-0.0443433 0.0102257 0)
(-0.0460686 0.00900878 0)
(-0.0475538 0.00775708 0)
(-0.0487918 0.00649248 0)
(-0.0498053 0.00523051 0)
(-0.0506146 0.00398702 0)
(-0.0512507 0.00276236 0)
(-0.0517541 0.00154726 0)
(-0.0521679 0.000307481 0)
(-0.0525315 -0.00102452 0)
(-0.0528987 -0.00255583 0)
(-0.0533488 -0.00447736 0)
(-0.053814 -0.00709266 0)
(-0.0540693 -0.0107637 0)
(-0.0538645 -0.0158175 0)
(-0.0529519 -0.0224178 0)
(-0.0509125 -0.0301514 0)
(-0.0465417 -0.0375507 0)
(-0.0379324 -0.0422059 0)
(-0.0250428 -0.0414203 0)
(-0.0117765 -0.0343342 0)
(-0.00360521 -0.0244549 0)
(-0.00106224 -0.0175901 0)
(0.000872328 -0.018565 0)
(0.00586919 -0.029599 0)
(0.022765 -0.0453889 0)
(0.0443011 -0.0540041 0)
(0.0612059 -0.0509021 0)
(0.0684945 -0.0407888 0)
(0.0669959 -0.0302504 0)
(0.0621518 -0.0219574 0)
(0.0583332 -0.0156808 0)
(0.0562333 -0.0108668 0)
(0.0549393 -0.00736806 0)
(0.0539813 -0.00498396 0)
(0.0533833 -0.00324348 0)
(0.0530811 -0.00172651 0)
(0.0528917 -0.000278561 0)
(0.0526926 0.0011939 0)
(0.0523766 0.00273756 0)
(0.0518658 0.00437112 0)
(0.0511052 0.00606751 0)
(0.0500571 0.00780053 0)
(0.0487068 0.00953049 0)
(0.0470509 0.0112107 0)
(0.0450809 0.0128095 0)
(0.0428205 0.0142757 0)
(0.0403121 0.0155803 0)
(0.0375876 0.0167035 0)
(0.0346827 0.017613 0)
(0.0316472 0.0183088 0)
(0.0285311 0.0187657 0)
(0.0253831 0.0190072 0)
(0.0222347 0.019031 0)
(0.019134 0.0188527 0)
(0.0161249 0.0185082 0)
(0.0132376 0.0180033 0)
(0.0105233 0.0173797 0)
(0.00799895 0.0166982 0)
(0.00567771 0.0159847 0)
(0.00357296 0.0153429 0)
(0.0016636 0.0148389 0)
(-0.000104765 0.0145582 0)
(-0.00181541 0.0145423 0)
(-0.00358929 0.0147942 0)
(-0.00550806 0.0152674 0)
(-0.00761401 0.0158913 0)
(-0.00991691 0.0165602 0)
(-0.0124308 0.0172138 0)
(-0.0151446 0.0178008 0)
(-0.0180211 0.0182752 0)
(-0.0210079 0.0185707 0)
(-0.0240717 0.0186827 0)
(-0.0271813 0.0185809 0)
(-0.0302533 0.0182385 0)
(-0.0332552 0.0176735 0)
(-0.0361489 0.0169034 0)
(-0.0388866 0.0159406 0)
(-0.0414251 0.0148061 0)
(-0.0437301 0.0135193 0)
(-0.0457801 0.0121244 0)
(-0.0475545 0.0106498 0)
(-0.0490582 0.00914301 0)
(-0.050296 0.00763112 0)
(-0.0512814 0.00614824 0)
(-0.0520473 0.00471368 0)
(-0.0526462 0.00334622 0)
(-0.0531342 0.00204447 0)
(-0.0535883 0.000781881 0)
(-0.0540915 -0.00049886 0)
(-0.0547445 -0.00191703 0)
(-0.0557307 -0.00370799 0)
(-0.0571234 -0.00623835 0)
(-0.0588973 -0.0100206 0)
(-0.0615844 -0.0151859 0)
(-0.0661794 -0.0218379 0)
(-0.0718383 -0.0305927 0)
(-0.0738219 -0.0418702 0)
(-0.0664404 -0.0529451 0)
(-0.0487323 -0.0567765 0)
(-0.0256606 -0.0481463 0)
(-0.00705178 -0.0317139 0)
(-0.00114037 -0.0203006 0)
(0.000854781 -0.0233107 0)
(0.0156815 -0.044694 0)
(0.0459798 -0.069512 0)
(0.0752499 -0.0769628 0)
(0.0951665 -0.0641107 0)
(0.101818 -0.0413343 0)
(0.0949835 -0.0223197 0)
(0.0807904 -0.0130213 0)
(0.0682192 -0.00989447 0)
(0.0611818 -0.00779427 0)
(0.0578024 -0.00558462 0)
(0.0559537 -0.00390873 0)
(0.055001 -0.00262228 0)
(0.05461 -0.00139998 0)
(0.0544669 -6.50973e-05 0)
(0.054373 0.00144021 0)
(0.0541806 0.00313787 0)
(0.0537747 0.00499472 0)
(0.0530871 0.00696788 0)
(0.0520797 0.00901238 0)
(0.0507167 0.0110714 0)
(0.0489955 0.0130822 0)
(0.0469167 0.0149888 0)
(0.0445057 0.0167434 0)
(0.0418167 0.0183057 0)
(0.0388834 0.0196387 0)
(0.0357584 0.0207093 0)
(0.0324917 0.021508 0)
(0.0291488 0.0220236 0)
(0.0257805 0.0222716 0)
(0.0224156 0.0222554 0)
(0.0191323 0.0220001 0)
(0.0159498 0.021518 0)
(0.0129058 0.0208544 0)
(0.0100801 0.0200391 0)
(0.00748007 0.0191138 0)
(0.00516256 0.018164 0)
(0.00313777 0.0172945 0)
(0.00136245 0.0166065 0)
(-0.00020199 0.0162181 0)
(-0.00169055 0.016202 0)
(-0.00326712 0.0165546 0)
(-0.00503969 0.0172175 0)
(-0.00708901 0.0180639 0)
(-0.00942421 0.0189819 0)
(-0.0120195 0.019866 0)
(-0.0148471 0.0206613 0)
(-0.0178801 0.0212908 0)
(-0.0210644 0.0217017 0)
(-0.0243386 0.0218747 0)
(-0.0276628 0.0217781 0)
(-0.0309681 0.0214025 0)
(-0.0341972 0.02074 0)
(-0.0373017 0.01983 0)
(-0.0402296 0.0186709 0)
(-0.0429275 0.0173091 0)
(-0.0453623 0.0157664 0)
(-0.0475043 0.0140893 0)
(-0.0493332 0.0123183 0)
(-0.0508475 0.010518 0)
(-0.0520502 0.00873441 0)
(-0.0529714 0.00701282 0)
(-0.0536515 0.00538514 0)
(-0.054146 0.00387892 0)
(-0.0545444 0.00251797 0)
(-0.0549475 0.00130562 0)
(-0.0554752 0.00021159 0)
(-0.0563232 -0.000842409 0)
(-0.0577754 -0.00211555 0)
(-0.0601979 -0.00390634 0)
(-0.0643192 -0.00622639 0)
(-0.0723634 -0.0084166 0)
(-0.086053 -0.0118454 0)
(-0.101043 -0.0220064 0)
(-0.108343 -0.0423025 0)
(-0.101932 -0.0666777 0)
(-0.081595 -0.0810994 0)
(-0.0507558 -0.0742911 0)
(-0.0179816 -0.0486114 0)
(-0.00117065 -0.0259429 0)
(0.00216229 -0.034848 0)
(0.0321835 -0.0747956 0)
(0.0688264 -0.104777 0)
(0.0975471 -0.105406 0)
(0.114963 -0.0796996 0)
(0.120719 -0.0418313 0)
(0.113544 -0.00984288 0)
(0.095723 0.00410406 0)
(0.0767769 0.00361413 0)
(0.0649176 -0.000319242 0)
(0.0594664 -0.00202652 0)
(0.0570152 -0.00218175 0)
(0.0560625 -0.00183104 0)
(0.055858 -0.00111945 0)
(0.055968 8.02932e-06 0)
(0.0561444 0.00153331 0)
(0.056183 0.00338416 0)
(0.0559535 0.00549069 0)
(0.0553991 0.00779231 0)
(0.0544647 0.0102059 0)
(0.0531073 0.0126477 0)
(0.0513212 0.015046 0)
(0.0491139 0.017324 0)
(0.0465266 0.019413 0)
(0.0436169 0.0212517 0)
(0.0404303 0.0228168 0)
(0.0370339 0.0240585 0)
(0.0334948 0.0249573 0)
(0.0298783 0.0255271 0)
(0.0262474 0.0257694 0)
(0.0226395 0.0257077 0)
(0.0191082 0.0253559 0)
(0.015715 0.0247197 0)
(0.0125032 0.0238552 0)
(0.00951413 0.0227926 0)
(0.0068137 0.0215829 0)
(0.00446955 0.0203342 0)
(0.00250776 0.019132 0)
(0.000930765 0.0181571 0)
(-0.000326363 0.0175975 0)
(-0.0014704 0.0175937 0)
(-0.002762 0.0181336 0)
(-0.00436685 0.0190761 0)
(-0.00636168 0.0202273 0)
(-0.00873844 0.0214541 0)
(-0.0114494 0.0226394 0)
(-0.0144477 0.0236797 0)
(-0.0177024 0.0244938 0)
(-0.0211148 0.0250555 0)
(-0.0246371 0.0253124 0)
(-0.0282346 0.025235 0)
(-0.0318201 0.0248083 0)
(-0.0353239 0.0240496 0)
(-0.0386905 0.02297 0)
(-0.0418493 0.021598 0)
(-0.0447341 0.0199753 0)
(-0.0473194 0.018132 0)
(-0.04957 0.0161285 0)
(-0.0514471 0.0140142 0)
(-0.0529451 0.0118803 0)
(-0.0540847 0.00977839 0)
(-0.0548945 0.00777539 0)
(-0.0554273 0.00593195 0)
(-0.0557446 0.00428867 0)
(-0.0559303 0.00287787 0)
(-0.0561182 0.00176651 0)
(-0.0564601 0.000977942 0)
(-0.0572237 0.000488244 0)
(-0.0588408 0.000241215 0)
(-0.0619952 0.000430056 0)
(-0.0683185 0.0022594 0)
(-0.0811783 0.00615426 0)
(-0.100766 0.00592702 0)
(-0.118838 -0.00912891 0)
(-0.126488 -0.0423047 0)
(-0.12148 -0.0821087 0)
(-0.104398 -0.110416 0)
(-0.0747947 -0.111891 0)
(-0.0358053 -0.081619 0)
(-0.00277659 -0.0390899 0)
(0.00770414 -0.0562035 0)
(0.0442438 -0.11395 0)
(0.0751946 -0.138616 0)
(0.0946299 -0.12726 0)
(0.105146 -0.0897317 0)
(0.109176 -0.0404969 0)
(0.104443 0.00153685 0)
(0.090363 0.0205972 0)
(0.0743316 0.0188457 0)
(0.0634674 0.00949285 0)
(0.0583735 0.00263939 0)
(0.0564734 -0.000359302 0)
(0.0561997 -0.0013451 0)
(0.0566594 -0.00122769 0)
(0.0573466 -0.000283244 0)
(0.0579768 0.00130095 0)
(0.0583703 0.00336297 0)
(0.0584317 0.00580116 0)
(0.0580827 0.00850194 0)
(0.0572559 0.0113587 0)
(0.0559178 0.014266 0)
(0.0540693 0.0171129 0)
(0.0517158 0.0198162 0)
(0.048902 0.0222945 0)
(0.0457286 0.0244627 0)
(0.0422491 0.0262671 0)
(0.0385196 0.0276977 0)
(0.0346475 0.0287126 0)
(0.0307128 0.0293179 0)
(0.0267792 0.0295418 0)
(0.0228891 0.0294204 0)
(0.0190956 0.0289301 0)
(0.0154533 0.0281488 0)
(0.0120057 0.0270617 0)
(0.0088173 0.0257067 0)
(0.00597435 0.0241363 0)
(0.00357052 0.0224449 0)
(0.00168402 0.0207579 0)
(0.000362497 0.0193613 0)
(-0.000483103 0.0185587 0)
(-0.00116497 0.0185834 0)
(-0.00208361 0.0194145 0)
(-0.00346891 0.0207834 0)
(-0.00540431 0.022402 0)
(-0.00784352 0.0240422 0)
(-0.0107232 0.0255648 0)
(-0.0139644 0.0268893 0)
(-0.0174672 0.0279471 0)
(-0.0211576 0.0286823 0)
(-0.0249947 0.0290406 0)
(-0.0289183 0.0289953 0)
(-0.0328343 0.028534 0)
(-0.0366662 0.0276611 0)
(-0.040343 0.0263872 0)
(-0.0437677 0.0247639 0)
(-0.046883 0.0228271 0)
(-0.0496432 0.0206345 0)
(-0.0520081 0.0182442 0)
(-0.0539277 0.0157307 0)
(-0.0553919 0.0131988 0)
(-0.0564302 0.0107174 0)
(-0.057064 0.0083833 0)
(-0.057357 0.00627113 0)
(-0.0573922 0.00445262 0)
(-0.0572396 0.00298443 0)
(-0.0570131 0.00193832 0)
(-0.0568976 0.00144767 0)
(-0.0571282 0.00162274 0)
(-0.0581637 0.00279359 0)
(-0.0608519 0.00594236 0)
(-0.0667014 0.0128711 0)
(-0.078114 0.0218495 0)
(-0.0940995 0.0225026 0)
(-0.107949 0.00256138 0)
(-0.113035 -0.0400689 0)
(-0.109701 -0.0911276 0)
(-0.100013 -0.131845 0)
(-0.0806681 -0.147113 0)
(-0.0484057 -0.123704 0)
(-0.00905718 -0.0629683 0)
(0.0142676 -0.0851546 0)
(0.0423103 -0.146888 0)
(0.0594263 -0.157951 0)
(0.0663774 -0.135782 0)
(0.0692755 -0.0918784 0)
(0.0713109 -0.0374531 0)
(0.070745 0.00876334 0)
(0.0653122 0.0304995 0)
(0.0587723 0.0283896 0)
(0.0547877 0.0159314 0)
(0.0535317 0.005602 0)
(0.0539664 0.000251289 0)
(0.0553654 -0.00184116 0)
(0.057067 -0.00213668 0)
(0.0586633 -0.00121159 0)
(0.0599621 0.000571247 0)
(0.0608689 0.00298378 0)
(0.0613118 0.00585514 0)
(0.061227 0.00902832 0)
(0.0605592 0.0124045 0)
(0.0592542 0.0158689 0)
(0.0573253 0.0192923 0)
(0.0548054 0.0225259 0)
(0.0517402 0.0254535 0)
(0.0482207 0.0279957 0)
(0.0443717 0.0300759 0)
(0.0402696 0.0316853 0)
(0.0359911 0.0328052 0)
(0.0316706 0.0334464 0)
(0.0274053 0.0336495 0)
(0.0231923 0.0334237 0)
(0.0191102 0.0327921 0)
(0.0152159 0.0318157 0)
(0.0114946 0.0304969 0)
(0.00806031 0.0288261 0)
(0.00504724 0.0268097 0)
(0.00259303 0.0245485 0)
(0.000835577 0.0222083 0)
(-0.000174516 0.0202023 0)
(-0.000623755 0.0190283 0)
(-0.000880914 0.0190896 0)
(-0.00142193 0.0203423 0)
(-0.00253747 0.0223172 0)
(-0.0043733 0.0245642 0)
(-0.00689843 0.0267629 0)
(-0.00996205 0.0287188 0)
(-0.0134371 0.0303966 0)
(-0.0172474 0.031718 0)
(-0.0212819 0.0326131 0)
(-0.0254744 0.033106 0)
(-0.0297714 0.0331103 0)
(-0.0340787 0.0326178 0)
(-0.03831 0.0316143 0)
(-0.0423549 0.0301259 0)
(-0.0461083 0.0282004 0)
(-0.0494933 0.0258959 0)
(-0.0524595 0.0232761 0)
(-0.0549585 0.0204147 0)
(-0.0569106 0.0174349 0)
(-0.0583115 0.0144128 0)
(-0.0591923 0.0114945 0)
(-0.0595774 0.00875676 0)
(-0.0595416 0.00630751 0)
(-0.0591638 0.00423731 0)
(-0.0585324 0.0026156 0)
(-0.0577124 0.00155014 0)
(-0.0568026 0.00120963 0)
(-0.0559481 0.00189569 0)
(-0.0554653 0.00420975 0)
(-0.0559007 0.00968894 0)
(-0.0578546 0.0198797 0)
(-0.0622538 0.0315717 0)
(-0.0686634 0.0322257 0)
(-0.0735255 0.00955403 0)
(-0.0738384 -0.0366834 0)
(-0.0717907 -0.0922148 0)
(-0.069389 -0.139108 0)
(-0.0629884 -0.166224 0)
(-0.0458685 -0.158375 0)
(-0.0161305 -0.0948291 0)
(0.0148135 -0.110955 0)
(0.0275661 -0.163481 0)
(0.0310291 -0.161481 0)
(0.0276166 -0.134127 0)
(0.0240384 -0.0896623 0)
(0.0241686 -0.035958 0)
(0.0277012 0.00990222 0)
(0.0322381 0.0310697 0)
(0.0370631 0.0284832 0)
(0.0418912 0.0154179 0)
(0.04633 0.00429789 0)
(0.0503863 -0.00175573 0)
(0.054181 -0.00414022 0)
(0.057574 -0.00433496 0)
(0.0604193 -0.00305891 0)
(0.0626149 -0.000806229 0)
(0.0641701 0.00213303 0)
(0.0650707 0.00553742 0)
(0.0653098 0.00931363 0)
(0.0648549 0.0133555 0)
(0.0636399 0.0175095 0)
(0.0616286 0.0216158 0)
(0.0588368 0.0254825 0)
(0.0553876 0.0289595 0)
(0.0514296 0.03193 0)
(0.0470995 0.0343286 0)
(0.0425152 0.0361207 0)
(0.0377844 0.0373279 0)
(0.0330441 0.037984 0)
(0.028363 0.0381092 0)
(0.0237746 0.0377372 0)
(0.0193732 0.0369589 0)
(0.0151968 0.0357702 0)
(0.0112384 0.0341708 0)
(0.00760323 0.0321179 0)
(0.00449993 0.0295684 0)
(0.00207057 0.0265869 0)
(0.000402441 0.0234727 0)
(-0.000474874 0.0207632 0)
(-0.000758366 0.0191707 0)
(-0.000816618 0.019266 0)
(-0.0011612 0.0209841 0)
(-0.00210036 0.0236619 0)
(-0.00380232 0.0266543 0)
(-0.00630272 0.0295535 0)
(-0.00946505 0.0321082 0)
(-0.0131687 0.0342043 0)
(-0.0173239 0.0358135 0)
(-0.0217263 0.036924 0)
(-0.0263304 0.0375693 0)
(-0.0311079 0.0376547 0)
(-0.0359104 0.0371339 0)
(-0.0406297 0.0359831 0)
(-0.0451312 0.0342516 0)
(-0.0492904 0.0319741 0)
(-0.0530251 0.0292379 0)
(-0.056269 0.0261209 0)
(-0.058924 0.0227107 0)
(-0.0609321 0.019126 0)
(-0.0622516 0.0155 0)
(-0.0629083 0.0119978 0)
(-0.0629648 0.00877551 0)
(-0.0624764 0.00591479 0)
(-0.0615614 0.00352352 0)
(-0.0602802 0.0016228 0)
(-0.058647 0.000353277 0)
(-0.0566765 -0.000117291 0)
(-0.0543662 0.000595503 0)
(-0.0516891 0.00320406 0)
(-0.0487472 0.00918746 0)
(-0.0452006 0.0199483 0)
(-0.0408727 0.0318528 0)
(-0.0362793 0.0327281 0)
(-0.0315348 0.010085 0)
(-0.0273788 -0.0359029 0)
(-0.0264386 -0.0902543 0)
(-0.0295221 -0.137022 0)
(-0.0329481 -0.168935 0)
(-0.0298422 -0.175307 0)
(-0.0165275 -0.123067 0)
(0.0102821 -0.126059 0)
(0.00949686 -0.164571 0)
(0.00345936 -0.155762 0)
(-0.00713511 -0.126902 0)
(-0.0156618 -0.0847471 0)
(-0.016116 -0.0364209 0)
(-0.00861315 0.00320068 0)
(0.00359012 0.0210887 0)
(0.017418 0.0183288 0)
(0.029709 0.00726594 0)
(0.0395062 -0.0019981 0)
(0.0474276 -0.00708713 0)
(0.0540581 -0.00879716 0)
(0.0595492 -0.00818062 0)
(0.0638962 -0.00607431 0)
(0.0671323 -0.00302701 0)
(0.0693993 0.000649362 0)
(0.0708328 0.00477184 0)
(0.0714922 0.00929878 0)
(0.0712695 0.0141797 0)
(0.0700649 0.0192141 0)
(0.067853 0.0241619 0)
(0.0646842 0.0287887 0)
(0.0607076 0.0329255 0)
(0.0561273 0.036381 0)
(0.0511672 0.0391012 0)
(0.0459893 0.0410982 0)
(0.0407065 0.0423799 0)
(0.0354233 0.04299 0)
(0.030233 0.042974 0)
(0.0252136 0.0424273 0)
(0.0204414 0.0414292 0)
(0.0159449 0.0399825 0)
(0.0117768 0.0380314 0)
(0.0080543 0.0355064 0)
(0.00492957 0.0323131 0)
(0.00249875 0.0285582 0)
(0.000766481 0.0246814 0)
(-0.000300002 0.0213337 0)
(-0.000814805 0.0193705 0)
(-0.00104976 0.0194635 0)
(-0.00151253 0.0215879 0)
(-0.0025147 0.0249026 0)
(-0.00419115 0.0286534 0)
(-0.00661848 0.0323225 0)
(-0.00980705 0.0355667 0)
(-0.0136937 0.0382371 0)
(-0.0181661 0.0402634 0)
(-0.0230057 0.0417116 0)
(-0.0281573 0.0425489 0)
(-0.0335685 0.0427482 0)
(-0.039045 0.0422183 0)
(-0.0443883 0.0409116 0)
(-0.0494403 0.0388678 0)
(-0.054087 0.0361744 0)
(-0.0582346 0.032942 0)
(-0.061836 0.029248 0)
(-0.0647863 0.0251691 0)
(-0.066938 0.0208313 0)
(-0.0682221 0.0164427 0)
(-0.0686283 0.0122054 0)
(-0.0682528 0.0083592 0)
(-0.0672147 0.00500652 0)
(-0.0656517 0.00217354 0)
(-0.0636225 -0.000128224 0)
(-0.0610464 -0.00185304 0)
(-0.0578186 -0.00284117 0)
(-0.053771 -0.00272625 0)
(-0.0487315 -0.00079209 0)
(-0.0423112 0.00395525 0)
(-0.033887 0.012501 0)
(-0.022452 0.0222164 0)
(-0.00904771 0.022982 0)
(0.00291202 0.00305248 0)
(0.0108316 -0.0375297 0)
(0.0114595 -0.0867878 0)
(0.00433454 -0.130822 0)
(-0.00526354 -0.163325 0)
(-0.0108013 -0.176342 0)
(-0.0115519 -0.139925 0)
(0.00504125 -0.130261 0)
(-0.00476168 -0.157259 0)
(-0.0165822 -0.145205 0)
(-0.0302648 -0.11621 0)
(-0.0402008 -0.0788444 0)
(-0.0401708 -0.0397283 0)
(-0.0295125 -0.00987639 0)
(-0.0125874 0.00310652 0)
(0.00581678 0.00112166 0)
(0.022165 -0.00638064 0)
(0.0353868 -0.0126595 0)
(0.0463198 -0.0158131 0)
(0.0555699 -0.0160395 0)
(0.0631893 -0.0139728 0)
(0.06913 -0.010516 0)
(0.0735287 -0.0062726 0)
(0.0766286 -0.00159515 0)
(0.0786634 0.00341089 0)
(0.0797623 0.00884616 0)
(0.0797841 0.0147382 0)
(0.0785418 0.0209099 0)
(0.0760056 0.0270081 0)
(0.0722878 0.032647 0)
(0.0675779 0.0375424 0)
(0.0621738 0.041503 0)
(0.056457 0.0444979 0)