/*--------------------------------*- C++ -*----------------------------------*\
| =========                 |                                                 |
| \\      /  F ield         | OpenFOAM: The Open Source CFD Toolbox           |
|  \\    /   O peration     | Version:  2412                                  |
|   \\  /    A nd           | Website:  www.openfoam.com                      |
|    \\/     M anipulation  |                                                 |
\*---------------------------------------------------------------------------*/
FoamFile
{
    version     2.0;
    format      ascii;
    arch        "LSB;label=32;scalar=64";
    class       volScalarField;
    location    "7.3";
    object      p;
}
// * * * * * * * * * * * * * * * * * * * * * * * * * * * * * * * * * * * * * //

dimensions      [1 -1 -2 0 0 0 0];

internalField   nonuniform List<scalar> 
6400
(
15396
15394.5
15391
15386.1
15380.6
15374.9
15369.5
15364.5
15360
15356
15352.7
15350
15348
15346.5
15345.8
15345.8
15346.6
15348.4
15351.2
15355.2
15360.6
15367.5
15376
15386.3
15398.6
15412.8
15429
15447.1
15466.9
15488.2
15510.5
15533.4
15556.3
15578.4
15599.1
15617.7
15633.5
15646
15654.6
15659.2
15659.4
15655.3
15647
15634.9
15619.4
15601.2
15580.8
15558.9
15536.3
15513.6
15491.4
15470.2
15450.3
15432.1
15415.8
15401.3
15388.7
15378.1
15369.2
15362
15356.4
15352.2
15349.3
15347.6
15346.8
15347
15348
15349.7
15352.1
15355
15358.6
15362.7
15367.4
15372.6
15378.2
15383.9
15389.6
15394.5
15398
15399.6
14612.8
14611.3
14608.3
14604.1
14599.4
14594.5
14589.8
14585.4
14581.4
14577.9
14574.9
14572.5
14570.7
14569.6
14569
14569.3
14570.3
14572.2
14575.1
14579.1
14584.4
14591
14599.2
14608.9
14620.3
14633.4
14648.2
14664.6
14682.3
14701.2
14720.9
14741
14760.8
14780
14797.9
14813.9
14827.4
14838.1
14845.5
14849.4
14849.6
14846
14839
14828.7
14815.4
14799.7
14782.1
14763.2
14743.5
14723.6
14704.1
14685.2
14667.5
14651
14636.1
14622.8
14611.2
14601.1
14592.7
14585.8
14580.3
14576.1
14573.2
14571.3
14570.4
14570.4
14571.2
14572.6
14574.7
14577.3
14580.5
14584.2
14588.4
14592.9
14597.8
14602.8
14607.6
14611.9
14614.9
14616.5
13831.7
13829.7
13826.7
13823
13818.9
13814.7
13810.6
13806.8
13803.3
13800.3
13797.7
13795.7
13794.2
13793.3
13793
13793.4
13794.6
13796.6
13799.5
13803.5
13808.5
13814.8
13822.4
13831.4
13841.8
13853.7
13866.9
13881.3
13896.9
13913.3
13930.3
13947.5
13964.5
13980.7
13995.8
14009.2
14020.6
14029.6
14035.8
14039
14039.2
14036.3
14030.4
14021.7
14010.6
13997.4
13982.6
13966.5
13949.8
13932.7
13915.9
13899.5
13883.9
13869.4
13856.1
13844.1
13833.5
13824.3
13816.5
13810
13804.7
13800.7
13797.7
13795.7
13794.7
13794.5
13795
13796.2
13797.9
13800.2
13803
13806.2
13809.8
13813.8
13818
13822.3
13826.5
13830.3
13833.4
13835.3
13052.1
13049.5
13046
13042.3
13038.5
13034.7
13031
13027.6
13024.5
13021.8
13019.6
13017.9
13016.7
13016
13015.9
13016.4
13017.7
13019.7
13022.6
13026.4
13031.2
13037.1
13044.1
13052.3
13061.7
13072.3
13084.1
13096.9
13110.5
13124.9
13139.7
13154.5
13169.1
13183.1
13196
13207.5
13217.3
13224.9
13230.2
13233
13233.1
13230.7
13225.7
13218.3
13208.9
13197.6
13184.8
13171
13156.5
13141.8
13127.1
13112.8
13099.1
13086.3
13074.5
13063.8
13054.2
13045.9
13038.7
13032.7
13027.8
13023.9
13021
13019.1
13017.9
13017.5
13017.9
13018.8
13020.2
13022.2
13024.6
13027.4
13030.6
13034.1
13037.9
13041.9
13045.8
13049.6
13053.1
13055.7
12273.3
12269.9
12265.9
12262
12258.2
12254.5
12251.1
12247.9
12245.2
12242.8
12240.9
12239.4
12238.5
12238
12238.1
12238.8
12240.1
12242.1
12244.8
12248.4
12252.9
12258.3
12264.6
12272
12280.4
12289.8
12300.2
12311.4
12323.4
12335.9
12348.8
12361.7
12374.4
12386.5
12397.8
12407.7
12416.2
12422.8
12427.4
12429.8
12429.9
12427.8
12423.5
12417.2
12409
12399.2
12388.2
12376.2
12363.5
12350.7
12337.8
12325.3
12313.3
12302.1
12291.7
12282.2
12273.8
12266.3
12259.9
12254.4
12249.9
12246.3
12243.5
12241.6
12240.4
12239.9
12240
12240.7
12241.9
12243.5
12245.6
12248.1
12251
12254.2
12257.8
12261.5
12265.4
12269.4
12273.4
12276.9
11494.8
11490.5
11485.9
11481.7
11477.8
11474.2
11470.9
11468
11465.5
11463.4
11461.8
11460.5
11459.8
11459.5
11459.8
11460.6
11461.9
11463.8
11466.4
11469.7
11473.8
11478.7
11484.3
11490.9
11498.3
11506.5
11515.5
11525.3
11535.7
11546.6
11557.8
11569
11580.1
11590.7
11600.5
11609.3
11616.7
11622.5
11626.6
11628.7
11628.9
11627
11623.3
11617.7
11610.5
11602
11592.3
11581.8
11570.7
11559.5
11548.2
11537.3
11526.9
11517.1
11508.1
11499.8
11492.5
11485.9
11480.2
11475.4
11471.3
11468
11465.4
11463.6
11462.4
11461.7
11461.7
11462.1
11463
11464.4
11466.2
11468.5
11471.1
11474.1
11477.4
11481.1
11485.1
11489.3
11494
11498.3
10715.9
10711
10705.8
10701.3
10697.3
10693.7
10690.5
10687.7
10685.4
10683.6
10682.2
10681.2
10680.7
10680.6
10681
10681.9
10683.2
10685.1
10687.5
10690.5
10694.1
10698.4
10703.3
10709
10715.3
10722.4
10730.1
10738.5
10747.4
10756.8
10766.6
10776.4
10786.2
10795.6
10804.3
10812.1
10818.7
10823.9
10827.6
10829.5
10829.6
10828
10824.7
10819.7
10813.3
10805.7
10797.1
10787.8
10778.1
10768.2
10758.4
10748.9
10739.9
10731.5
10723.8
10716.7
10710.4
10704.9
10700
10695.8
10692.2
10689.2
10686.8
10685.1
10683.8
10683.1
10682.8
10683.1
10683.8
10684.9
10686.4
10688.4
10690.8
10693.6
10696.9
10700.6
10704.6
10709.2
10714.4
10719.4
9936.64
9931.15
9925.47
9920.67
9916.49
9912.83
9909.69
9907.06
9904.95
9903.32
9902.17
9901.46
9901.19
9901.33
9901.88
9902.83
9904.19
9905.97
9908.18
9910.84
9913.97
9917.6
9921.75
9926.44
9931.7
9937.56
9944.01
9951.06
9958.66
9966.77
9975.23
9983.94
9992.62
10001.1
10009
10016.1
10022.2
10026.9
10030.3
10032
10032.2
10030.7
10027.7
10023.2
10017.4
10010.4
10002.6
9994.21
9985.56
9976.81
9968.27
9960.07
9952.41
9945.32
9938.87
9933.04
9927.85
9923.24
9919.19
9915.65
9912.59
9909.99
9907.84
9906.14
9904.87
9904.04
9903.62
9903.63
9904.05
9904.9
9906.18
9907.91
9910.11
9912.79
9915.98
9919.68
9923.9
9928.75
9934.48
9939.99
9156.75
9150.81
9144.72
9139.65
9135.31
9131.59
9128.49
9125.99
9124.06
9122.68
9121.79
9121.37
9121.36
9121.74
9122.47
9123.53
9124.91
9126.6
9128.59
9130.88
9133.49
9136.43
9139.73
9143.42
9147.56
9152.18
9157.35
9163.07
9169.41
9176.28
9183.69
9191.41
9199.33
9207.12
9214.53
9221.21
9226.92
9231.41
9234.54
9236.22
9236.35
9235.02
9232.15
9227.96
9222.45
9215.97
9208.65
9200.97
9193.06
9185.32
9177.82
9170.85
9164.42
9158.65
9153.47
9148.89
9144.82
9141.23
9138.04
9135.21
9132.7
9130.49
9128.57
9126.96
9125.67
9124.71
9124.09
9123.84
9123.98
9124.53
9125.53
9127
9128.99
9131.53
9134.66
9138.41
9142.79
9147.91
9154.05
9160
8376.21
8369.91
8363.48
8358.15
8353.65
8349.87
8346.82
8344.46
8342.75
8341.64
8341.07
8340.96
8341.27
8341.93
8342.89
8344.1
8345.52
8347.13
8348.89
8350.79
8352.84
8355.04
8357.42
8360.04
8362.96
8366.29
8370.09
8374.51
8379.56
8385.34
8391.76
8398.78
8406.11
8413.57
8420.72
8427.27
8432.84
8437.23
8440.3
8441.93
8442.13
8440.81
8438.12
8433.97
8428.68
8422.28
8415.27
8407.84
8400.55
8393.48
8387
8381.09
8375.93
8371.44
8367.62
8364.31
8361.47
8358.94
8356.69
8354.61
8352.68
8350.87
8349.19
8347.66
8346.32
8345.2
8344.34
8343.79
8343.59
8343.8
8344.46
8345.64
8347.4
8349.78
8352.85
8356.64
8361.17
8366.55
8373.04
8379.37
7595.04
7588.42
7581.66
7576.08
7571.42
7567.6
7564.62
7562.45
7561
7560.22
7560.02
7560.31
7561
7562
7563.25
7564.66
7566.16
7567.71
7569.25
7570.75
7572.19
7573.58
7574.95
7576.38
7577.98
7579.87
7582.24
7585.22
7589.01
7593.66
7599.28
7605.69
7612.81
7620.18
7627.49
7634.15
7639.86
7644.32
7647.42
7649.13
7649.35
7648.17
7645.42
7641.35
7635.85
7629.41
7622.15
7614.83
7607.66
7601.23
7595.5
7590.73
7586.78
7583.7
7581.27
7579.39
7577.84
7576.51
7575.25
7573.99
7572.67
7571.28
7569.83
7568.36
7566.93
7565.61
7564.45
7563.53
7562.93
7562.72
7562.99
7563.81
7565.28
7567.47
7570.46
7574.29
7578.97
7584.61
7591.43
7598.09
6813.33
6806.35
6799.22
6793.35
6788.52
6784.67
6781.81
6779.87
6778.77
6778.4
6778.66
6779.43
6780.6
6782.04
6783.65
6785.33
6786.98
6788.51
6789.85
6790.93
6791.71
6792.21
6792.46
6792.57
6792.65
6792.95
6793.65
6795.1
6797.45
6801.01
6805.8
6811.91
6818.99
6826.79
6834.57
6841.81
6847.87
6852.57
6855.82
6857.61
6858.02
6856.85
6854.23
6849.88
6844.16
6837.02
6829.32
6821.43
6814.27
6808.03
6803.14
6799.39
6796.86
6795.25
6794.45
6794.11
6794.06
6794.03
6793.89
6793.51
6792.85
6791.88
6790.64
6789.2
6787.62
6786.02
6784.47
6783.1
6782
6781.29
6781.07
6781.46
6782.57
6784.51
6787.38
6791.23
6796.09
6802.02
6809.22
6816.24
6031.2
6023.72
6016.08
6009.83
6004.81
6000.95
5998.25
5996.63
5995.98
5996.15
5996.99
5998.37
6000.13
6002.13
6004.22
6006.27
6008.14
6009.72
6010.88
6011.53
6011.62
6011.14
6010.13
6008.7
6007.07
6005.46
6004.28
6003.83
6004.62
6006.86
6010.95
6016.8
6024.37
6032.98
6041.96
6050.13
6056.88
6061.85
6065.23
6067.19
6067.69
6066.82
6064.15
6059.77
6053.26
6045.26
6036.2
6027.48
6019.64
6013.6
6009.28
6006.84
6005.81
6006.05
6007.06
6008.58
6010.2
6011.68
6012.77
6013.37
6013.39
6012.85
6011.79
6010.31
6008.51
6006.53
6004.5
6002.55
6000.84
5999.49
5998.67
5998.51
5999.17
6000.78
6003.47
6007.33
6012.39
6018.71
6026.43
6033.95
5248.83
5240.55
5232.13
5225.34
5220.07
5216.24
5213.79
5212.62
5212.55
5213.4
5215
5217.14
5219.65
5222.35
5225.06
5227.61
5229.82
5231.52
5232.56
5232.82
5232.18
5230.63
5228.19
5225.01
5221.31
5217.48
5213.93
5211.27
5210
5210.8
5213.96
5219.89
5228.25
5238.61
5249.46
5259.37
5266.96
5272.24
5275.62
5277.55
5278.32
5277.62
5275.35
5270.66
5263.5
5253.6
5242.69
5232.01
5223.34
5217.01
5213.56
5212.44
5213.45
5215.82
5219.17
5222.84
5226.49
5229.66
5232.17
5233.82
5234.57
5234.42
5233.49
5231.87
5229.74
5227.26
5224.59
5221.93
5219.45
5217.33
5215.75
5214.89
5214.95
5216.11
5218.55
5222.39
5227.7
5234.56
5243.08
5251.41
4466.43
4456.79
4447.11
4439.55
4433.98
4430.23
4428.17
4427.61
4428.32
4430.05
4432.58
4435.68
4439.12
4442.7
4446.2
4449.41
4452.11
4454.07
4455.1
4455.01
4453.65
4450.94
4446.92
4441.7
4435.61
4429.02
4422.62
4417.06
4413.31
4412.06
4414.27
4420.21
4430.18
4443.13
4457.38
4469.91
4478.95
4484.43
4487.63
4489.46
4490.26
4490.12
4488.01
4483.43
4474.75
4462.39
4447.87
4434.55
4424.03
4417.63
4414.96
4415.85
4419.26
4424.54
4430.68
4437.1
4443.1
4448.31
4452.37
4455.16
4456.62
4456.83
4455.9
4454.02
4451.4
4448.25
4444.79
4441.24
4437.81
4434.72
4432.19
4430.44
4429.72
4430.27
4432.32
4436.09
4441.71
4449.34
4459.13
4468.81
3684.12
3672.25
3660.57
3651.94
3646.04
3642.49
3641.02
3641.3
3643.02
3645.86
3649.54
3653.8
3658.38
3663.04
3667.53
3671.6
3674.97
3677.37
3678.53
3678.2
3676.15
3672.27
3666.51
3659.01
3650.06
3640.23
3630.21
3621.1
3613.93
3610.15
3610.77
3617.04
3629.07
3646.47
3665.89
3682.93
3693.61
3698.96
3701.24
3702.34
3703.37
3703.93
3703.11
3698.59
3688.62
3671.68
3651.99
3633.8
3621.04
3614.06
3612.92
3616.24
3623.1
3631.92
3641.74
3651.42
3660.31
3667.8
3673.62
3677.57
3679.72
3680.15
3679.08
3676.76
3673.45
3669.43
3664.97
3660.33
3655.75
3651.48
3647.79
3644.93
3643.19
3642.9
3644.37
3647.94
3653.9
3662.61
3674.4
3686.28
2902.87
2887.35
2872.35
2862.23
2856.05
2852.94
2852.38
2853.86
2856.92
2861.19
2866.33
2872.04
2878.04
2884.05
2889.8
2894.98
2899.29
2902.37
2903.88
2903.46
2900.81
2895.68
2887.99
2877.77
2865.38
2851.37
2836.77
2822.74
2811.04
2803.31
2801.74
2807.83
2823.35
2847.88
2877.1
2900.44
2909.79
2908.59
2904.66
2902.19
2903.15
2907.72
2913.13
2915.83
2907.64
2884.9
2855
2829.1
2812.12
2804.97
2805.71
2812.93
2824.27
2838.11
2852.59
2866.55
2878.94
2889.22
2896.99
2902.21
2904.96
2905.47
2904.03
2901.01
2896.75
2891.58
2885.84
2879.82
2873.81
2868.08
2862.92
2858.62
2855.53
2854.04
2854.6
2857.73
2863.97
2874.17
2889.24
2904.73
2127.17
2103.35
2082.61
2070.66
2064.57
2062.52
2063.56
2066.92
2072
2078.34
2085.55
2093.29
2101.27
2109.2
2116.75
2123.58
2129.31
2133.51
2135.69
2135.38
2132.1
2125.45
2115.15
2101.18
2083.77
2063.67
2041.93
2020.35
2000.97
1986.72
1980.38
1985.69
2006.37
2046.2
2096.27
2131.89
2128.91
2105.45
2085.3
2075.54
2076.84
2088.98
2111.7
2137.51
2143.23
2108.81
2057.6
2014.71
1991.42
1984.2
1989.29
2002.69
2021.61
2042.95
2064.63
2084.75
2102.24
2116.3
2126.72
2133.47
2136.85
2137.22
2135.09
2130.92
2125.2
2118.36
2110.79
2102.84
2094.83
2087.05
2079.8
2073.43
2068.31
2064.93
2063.89
2065.94
2072.07
2084.07
2104.83
2128.64
1353.52
1309.6
1282.85
1270.95
1266.54
1266.78
1270.33
1276.25
1283.86
1292.65
1302.23
1312.28
1322.51
1332.62
1342.29
1351.14
1358.72
1364.5
1367.88
1368.16
1364.68
1356.74
1343.85
1325.7
1302.46
1274.69
1243.83
1211.82
1181.71
1157.04
1142.58
1143.72
1170.26
1233.62
1321.9
1392.12
1407.57
1403.08
1413.72
1426.44
1429.48
1422.68
1416.29
1423.51
1409.42
1339.63
1249.16
1180.64
1150.31
1146.97
1159.96
1183.69
1213.17
1244.86
1275.56
1303.29
1326.57
1344.79
1357.75
1365.76
1369.31
1369.06
1365.71
1359.93
1352.35
1343.48
1333.78
1323.64
1313.38
1303.29
1293.66
1284.83
1277.18
1271.22
1267.63
1267.37
1271.78
1283.68
1310.46
1354.56
496.822
453.274
438.209
434.269
434.326
436.826
441.009
446.378
452.608
459.473
466.8
474.451
482.297
490.201
497.994
505.459
512.31
518.181
522.614
525.069
524.926
521.548
514.298
502.728
486.559
466.059
441.864
415.576
389.184
365.971
349.212
344.078
359.619
411.079
481.969
599.217
851.781
1163.2
1396.18
1492.04
1501.29
1424.08
1206.29
892.712
622.277
494.226
422.201
365.954
347.714
351.455
367.432
390.087
416.199
442.312
466.468
486.964
503.181
514.797
522.101
525.518
525.692
523.252
518.823
512.946
506.081
498.595
490.776
482.842
474.965
467.281
459.921
453.023
446.761
441.363
437.154
434.635
434.564
438.495
453.598
497.388
-5.86356
-6.20626
-5.13816
-4.23759
-3.47525
-2.75893
-2.04079
-1.28897
-0.478552
0.410656
1.39568
2.49113
3.70908
5.05825
6.54247
8.15827
9.89174
11.7143
13.5782
15.4107
17.111
18.5463
19.558
19.9678
19.6107
18.3555
16.1777
13.1716
9.63516
5.98348
2.76465
0.462252
0.312456
3.87545
8.21893
106.173
502.786
964.734
1265.13
1405.55
1416.58
1297.44
1013.53
550.151
126.722
9.29212
4.8063
0.773536
0.703332
2.92613
6.09409
9.72077
13.2448
16.2554
18.4431
19.7129
20.0816
19.6809
18.6734
17.2387
15.5352
13.6972
11.8261
9.99553
8.25367
6.62953
5.13726
3.78049
2.55552
1.45363
0.462727
-0.431832
-1.24713
-2.0034
-2.72563
-3.44583
-4.2122
-5.11764
-6.19109
-5.83959
-10.5488
-10.5491
-10.549
-10.549
-10.5489
-10.5489
-10.5488
-10.5488
-10.5488
-10.5488
-10.5489
-10.549
-10.5491
-10.5493
-10.5495
-10.5497
-10.55
-10.5503
-10.5506
-10.5509
-10.5513
-10.5518
-10.5524
-10.5536
-10.5555
-10.559
-10.5635
-10.5656
-10.562
-10.5542
-10.5475
-10.5336
-10.5023
-10.473
-10.4078
33.2428
140.106
557.707
961.116
1109.06
1117.55
986.473
596.076
159.453
41.0867
-10.388
-10.4845
-10.5063
-10.5209
-10.5413
-10.5471
-10.5554
-10.5618
-10.5627
-10.5594
-10.5562
-10.5542
-10.553
-10.5522
-10.5516
-10.5511
-10.5507
-10.5503
-10.55
-10.5497
-10.5494
-10.5492
-10.5491
-10.5489
-10.5488
-10.5488
-10.5488
-10.5488
-10.5489
-10.5489
-10.549
-10.5491
-10.5492
-10.5493
-10.549
-11.0398
-11.0397
-11.0397
-11.0396
-11.0396
-11.0395
-11.0395
-11.0395
-11.0395
-11.0395
-11.0395
-11.0396
-11.0398
-11.0399
-11.0401
-11.0404
-11.0406
-11.0409
-11.0412
-11.0415
-11.0419
-11.0423
-11.0428
-11.0438
-11.0457
-11.0487
-11.0514
-11.0523
-11.0495
-11.0428
-11.0346
-11.0278
-11.026
-11.0373
-11.0963
-11.1818
19.69
268.676
555.269
604.114
608.374
571.788
293.568
26.9757
-11.2075
-11.1064
-11.0447
-11.0272
-11.0211
-11.0236
-11.0353
-11.0438
-11.0486
-11.0494
-11.0482
-11.046
-11.0443
-11.0433
-11.0427
-11.0422
-11.0418
-11.0414
-11.041
-11.0406
-11.0403
-11.0401
-11.0399
-11.0397
-11.0396
-11.0395
-11.0394
-11.0394
-11.0395
-11.0395
-11.0396
-11.0397
-11.0398
-11.0398
-11.0399
-11.04
-11.5301
-11.5302
-11.5302
-11.5302
-11.5301
-11.53
-11.53
-11.53
-11.5299
-11.53
-11.53
-11.5301
-11.5302
-11.5303
-11.5305
-11.5306
-11.5308
-11.531
-11.5312
-11.5315
-11.5318
-11.5322
-11.5328
-11.534
-11.5363
-11.5401
-11.5443
-11.5455
-11.5424
-11.537
-11.5315
-11.5349
-11.5501
-11.582
-11.5801
-11.5749
-11.7607
111.855
402.809
449.578
453.511
420.137
130.492
-11.8092
-11.6223
-11.608
-11.5998
-11.5561
-11.5328
-11.5272
-11.5307
-11.536
-11.5414
-11.5429
-11.5402
-11.5369
-11.5346
-11.5334
-11.5326
-11.5321
-11.5317
-11.5314
-11.5311
-11.5308
-11.5306
-11.5304
-11.5302
-11.5301
-11.53
-11.5299
-11.5299
-11.5299
-11.53
-11.53
-11.5301
-11.5302
-11.5303
-11.5304
-11.5304
-11.5303
-12.0207
-12.0207
-12.0207
-12.0206
-12.0206
-12.0205
-12.0205
-12.0204
-12.0204
-12.0204
-12.0205
-12.0205
-12.0206
-12.0207
-12.0209
-12.021
-12.0212
-12.0214
-12.0216
-12.0219
-12.0222
-12.0227
-12.0234
-12.0241
-12.0258
-12.0293
-12.0337
-12.036
-12.037
-12.0394
-12.0479
-12.0626
-12.0684
-12.0638
-12.0317
-12.0188
-12.0687
4.95153
169.554
267.959
271.788
182.214
10.7835
-12.1198
-12.0366
-12.0432
-12.0928
-12.1008
-12.0868
-12.0565
-12.0384
-12.0348
-12.034
-12.0331
-12.0296
-12.0263
-12.0246
-12.0237
-12.0231
-12.0226
-12.0221
-12.0218
-12.0215
-12.0212
-12.021
-12.0208
-12.0206
-12.0205
-12.0204
-12.0204
-12.0204
-12.0204
-12.0204
-12.0205
-12.0206
-12.0207
-12.0208
-12.0209
-12.0209
-12.0209
-12.5112
-12.5112
-12.5112
-12.5112
-12.5111
-12.511
-12.511
-12.511
-12.5109
-12.5109
-12.511
-12.511
-12.5111
-12.5112
-12.5113
-12.5115
-12.5117
-12.5118
-12.512
-12.5122
-12.5124
-12.5126
-12.5128
-12.513
-12.5139
-12.5169
-12.5227
-12.5281
-12.5324
-12.5431
-12.5572
-12.5405
-12.4987
-12.4858
-12.4904
-12.5038
-12.468
-11.7454
5.08507
48.7997
50.8801
9.34195
-11.6615
-12.4925
-12.513
-12.4861
-12.4786
-12.5075
-12.5568
-12.5736
-12.5556
-12.5401
-12.5317
-12.5257
-12.5191
-12.5152
-12.5138
-12.5133
-12.513
-12.5127
-12.5124
-12.5121
-12.5119
-12.5116
-12.5114
-12.5113
-12.5111
-12.511
-12.5109
-12.5109
-12.5109
-12.5109
-12.511
-12.511
-12.5111
-12.5112
-12.5113
-12.5114
-12.5114
-12.5115
-13.0017
-13.0017
-13.0017
-13.0017
-13.0016
-13.0016
-13.0015
-13.0015
-13.0014
-13.0014
-13.0015
-13.0015
-13.0016
-13.0017
-13.0018
-13.002
-13.0021
-13.0023
-13.0025
-13.0027
-13.0028
-13.003
-13.0031
-13.0032
-13.0036
-13.0062
-13.0143
-13.0252
-13.0315
-13.0341
-13.0393
-13.0364
-13.0189
-13.0081
-13.0074
-13.0332
-13.0684
-13.0643
-12.8941
-12.8572
-12.8511
-12.8977
-13.0511
-13.0651
-13.0435
-13.0066
-12.999
-13.0081
-13.0169
-13.0266
-13.0392
-13.0398
-13.0317
-13.0196
-13.0097
-13.0054
-13.0042
-13.0037
-13.0034
-13.0031
-13.0028
-13.0026
-13.0023
-13.0021
-13.0019
-13.0017
-13.0016
-13.0015
-13.0014
-13.0014
-13.0014
-13.0014
-13.0015
-13.0016
-13.0016
-13.0017
-13.0018
-13.0019
-13.002
-13.002
-13.4922
-13.4922
-13.4922
-13.4922
-13.4921
-13.4921
-13.492
-13.492
-13.4919
-13.4919
-13.492
-13.492
-13.4921
-13.4922
-13.4923
-13.4925
-13.4926
-13.4928
-13.493
-13.4932
-13.4935
-13.4937
-13.494
-13.4943
-13.4951
-13.498
-13.5067
-13.5215
-13.5384
-13.5554
-13.5657
-13.5552
-13.5359
-13.5304
-13.5426
-13.5698
-13.5868
-13.3955
-13.3603
-13.3611
-13.3645
-13.3691
-13.4217
-13.5472
-13.544
-13.5232
-13.5215
-13.5334
-13.5483
-13.5522
-13.5391
-13.5264
-13.5198
-13.5097
-13.5004
-13.4965
-13.4952
-13.4945
-13.494
-13.4937
-13.4933
-13.4931
-13.4928
-13.4926
-13.4924
-13.4922
-13.4921
-13.492
-13.4919
-13.4919
-13.4919
-13.4919
-13.492
-13.4921
-13.4922
-13.4923
-13.4923
-13.4924
-13.4925
-13.4925
-13.9827
-13.9827
-13.9827
-13.9827
-13.9826
-13.9825
-13.9825
-13.9825
-13.9824
-13.9824
-13.9824
-13.9825
-13.9826
-13.9827
-13.9828
-13.983
-13.9832
-13.9834
-13.9836
-13.9839
-13.9842
-13.9846
-13.9852
-13.986
-13.9876
-13.9912
-13.9999
-14.0156
-14.0348
-14.0525
-14.0592
-14.0507
-14.032
-14.0231
-14.0306
-14.0249
-13.9827
-13.9279
-13.8874
-13.8676
-13.8701
-13.8943
-13.9416
-13.9901
-14.0069
-14.0122
-14.0234
-14.0394
-14.0531
-14.0543
-14.0421
-14.028
-14.0148
-14.0013
-13.9922
-13.9883
-13.9865
-13.9855
-13.9848
-13.9843
-13.9839
-13.9836
-13.9833
-13.9831
-13.9829
-13.9827
-13.9826
-13.9825
-13.9824
-13.9824
-13.9824
-13.9824
-13.9825
-13.9826
-13.9827
-13.9828
-13.9828
-13.9829
-13.983
-13.983
-14.4732
-14.4732
-14.4732
-14.4731
-14.4731
-14.473
-14.473
-14.4729
-14.4729
-14.4729
-14.4729
-14.473
-14.4731
-14.4732
-14.4733
-14.4735
-14.4737
-14.474
-14.4743
-14.4746
-14.4751
-14.4757
-14.4765
-14.4778
-14.4799
-14.4837
-14.491
-14.5038
-14.5195
-14.5338
-14.5392
-14.5329
-14.5176
-14.5078
-14.5056
-14.4984
-14.4739
-14.4416
-14.4117
-14.3937
-14.3976
-14.4218
-14.453
-14.4814
-14.499
-14.5076
-14.5166
-14.529
-14.54
-14.5404
-14.5311
-14.5181
-14.5043
-14.4916
-14.4839
-14.4799
-14.4778
-14.4765
-14.4757
-14.4751
-14.4746
-14.4742
-14.4739
-14.4736
-14.4734
-14.4732
-14.473
-14.4729
-14.4729
-14.4729
-14.4729
-14.4729
-14.473
-14.4731
-14.4732
-14.4732
-14.4733
-14.4734
-14.4734
-14.4734
-14.9637
-14.9637
-14.9637
-14.9636
-14.9636
-14.9635
-14.9635
-14.9634
-14.9634
-14.9634
-14.9634
-14.9635
-14.9636
-14.9637
-14.9638
-14.964
-14.9643
-14.9646
-14.9649
-14.9654
-14.9659
-14.9667
-14.9677
-14.9692
-14.9714
-14.9749
-14.9805
-14.9888
-14.9991
-15.0084
-15.0125
-15.0089
-15.0025
-14.9974
-14.9967
-14.9938
-14.983
-14.9641
-14.9406
-14.9234
-14.9267
-14.9485
-14.9713
-14.9874
-14.9951
-14.9985
-15.003
-15.0091
-15.0135
-15.0133
-15.0071
-14.998
-14.9884
-14.9801
-14.9745
-14.971
-14.9689
-14.9675
-14.9665
-14.9658
-14.9652
-14.9648
-14.9644
-14.9641
-14.9639
-14.9637
-14.9635
-14.9634
-14.9634
-14.9634
-14.9634
-14.9634
-14.9635
-14.9636
-14.9636
-14.9637
-14.9638
-14.9639
-14.9639
-14.9639
-15.4542
-15.4542
-15.4541
-15.4541
-15.4541
-15.454
-15.454
-15.4539
-15.4539
-15.4539
-15.4539
-15.454
-15.4541
-15.4542
-15.4544
-15.4546
-15.4548
-15.4552
-15.4556
-15.4561
-15.4567
-15.4575
-15.4586
-15.4601
-15.4623
-15.4653
-15.4695
-15.475
-15.4814
-15.4875
-15.4912
-15.4912
-15.489
-15.4878
-15.4913
-15.494
-15.4908
-15.4797
-15.4618
-15.446
-15.4463
-15.4617
-15.4763
-15.4839
-15.4859
-15.4862
-15.4877
-15.4903
-15.4914
-15.4897
-15.4852
-15.4793
-15.4734
-15.4683
-15.4644
-15.4615
-15.4595
-15.4582
-15.4572
-15.4564
-15.4558
-15.4553
-15.4549
-15.4546
-15.4544
-15.4542
-15.454
-15.4539
-15.4539
-15.4538
-15.4539
-15.4539
-15.454
-15.454
-15.4541
-15.4542
-15.4543
-15.4543
-15.4544
-15.4544
-15.9446
-15.9446
-15.9446
-15.9446
-15.9445
-15.9445
-15.9444
-15.9444
-15.9444
-15.9444
-15.9444
-15.9445
-15.9446
-15.9447
-15.9449
-15.9451
-15.9454
-15.9457
-15.9462
-15.9467
-15.9474
-15.9482
-15.9493
-15.9508
-15.9527
-15.9553
-15.9586
-15.9627
-15.9672
-15.9716
-15.9749
-15.9766
-15.9772
-15.9789
-15.9841
-15.9899
-15.9908
-15.9841
-15.9706
-15.9557
-15.9516
-15.9597
-15.9676
-15.9711
-15.9716
-15.9714
-15.9721
-15.9731
-15.9731
-15.9714
-15.9682
-15.9644
-15.9604
-15.9569
-15.954
-15.9517
-15.95
-15.9487
-15.9477
-15.9469
-15.9463
-15.9458
-15.9454
-15.9451
-15.9449
-15.9447
-15.9445
-15.9444
-15.9444
-15.9443
-15.9443
-15.9444
-15.9444
-15.9445
-15.9446
-15.9447
-15.9448
-15.9448
-15.9448
-15.9448
-16.4351
-16.4351
-16.435
-16.435
-16.435
-16.4349
-16.4349
-16.4349
-16.4349
-16.4349
-16.4349
-16.435
-16.4351
-16.4352
-16.4354
-16.4356
-16.4359
-16.4362
-16.4367
-16.4372
-16.4379
-16.4387
-16.4398
-16.4412
-16.4429
-16.445
-16.4477
-16.4508
-16.4542
-16.4575
-16.4603
-16.4624
-16.4642
-16.4669
-16.4719
-16.4783
-16.4808
-16.4766
-16.4657
-16.4522
-16.4444
-16.4462
-16.4501
-16.4524
-16.4537
-16.4548
-16.456
-16.4567
-16.4566
-16.4555
-16.4535
-16.4509
-16.4482
-16.4456
-16.4434
-16.4416
-16.4402
-16.439
-16.4381
-16.4374
-16.4368
-16.4363
-16.4359
-16.4356
-16.4353
-16.4351
-16.435
-16.4349
-16.4348
-16.4348
-16.4348
-16.4349
-16.4349
-16.435
-16.4351
-16.4351
-16.4352
-16.4353
-16.4353
-16.4353
-16.9255
-16.9255
-16.9255
-16.9255
-16.9254
-16.9254
-16.9254
-16.9254
-16.9254
-16.9254
-16.9254
-16.9255
-16.9256
-16.9257
-16.9259
-16.9261
-16.9264
-16.9267
-16.9272
-16.9277
-16.9283
-16.9291
-16.9301
-16.9313
-16.9328
-16.9346
-16.9366
-16.939
-16.9415
-16.944
-16.9462
-16.9481
-16.9499
-16.9522
-16.9558
-16.9604
-16.963
-16.9599
-16.9509
-16.9393
-16.9298
-16.9277
-16.9301
-16.933
-16.9358
-16.9382
-16.94
-16.9411
-16.9414
-16.9408
-16.9396
-16.938
-16.9362
-16.9344
-16.9328
-16.9314
-16.9302
-16.9292
-16.9284
-16.9277
-16.9271
-16.9267
-16.9263
-16.926
-16.9258
-16.9256
-16.9255
-16.9254
-16.9253
-16.9253
-16.9253
-16.9253
-16.9254
-16.9255
-16.9255
-16.9256
-16.9257
-16.9257
-16.9257
-16.9257
-17.4159
-17.4159
-17.4159
-17.4159
-17.4159
-17.4158
-17.4158
-17.4158
-17.4158
-17.4158
-17.4159
-17.4159
-17.416
-17.4161
-17.4163
-17.4165
-17.4168
-17.4172
-17.4176
-17.4181
-17.4187
-17.4194
-17.4203
-17.4213
-17.4225
-17.424
-17.4256
-17.4274
-17.4292
-17.431
-17.4326
-17.434
-17.4351
-17.4365
-17.4383
-17.4405
-17.4414
-17.4386
-17.4312
-17.4217
-17.4126
-17.4091
-17.4114
-17.4153
-17.4194
-17.4226
-17.425
-17.4265
-17.4271
-17.4271
-17.4266
-17.4256
-17.4245
-17.4233
-17.4221
-17.421
-17.4201
-17.4193
-17.4186
-17.418
-17.4175
-17.4171
-17.4167
-17.4164
-17.4162
-17.4161
-17.4159
-17.4158
-17.4158
-17.4158
-17.4158
-17.4158
-17.4158
-17.4159
-17.416
-17.416
-17.4161
-17.4161
-17.4162
-17.4162
-17.9064
-17.9064
-17.9064
-17.9063
-17.9063
-17.9063
-17.9063
-17.9063
-17.9063
-17.9063
-17.9063
-17.9064
-17.9065
-17.9066
-17.9068
-17.907
-17.9072
-17.9076
-17.908
-17.9084
-17.909
-17.9096
-17.9103
-17.9112
-17.9122
-17.9133
-17.9145
-17.9158
-17.9171
-17.9183
-17.9193
-17.9201
-17.9207
-17.921
-17.9212
-17.9213
-17.9204
-17.9171
-17.9109
-17.9034
-17.8962
-17.8928
-17.8954
-17.9
-17.9047
-17.9084
-17.911
-17.9128
-17.9138
-17.9142
-17.9141
-17.9137
-17.913
-17.9123
-17.9114
-17.9107
-17.9099
-17.9093
-17.9087
-17.9082
-17.9078
-17.9074
-17.9071
-17.9068
-17.9066
-17.9065
-17.9064
-17.9063
-17.9062
-17.9062
-17.9062
-17.9062
-17.9063
-17.9064
-17.9064
-17.9065
-17.9065
-17.9066
-17.9066
-17.9066
-18.3968
-18.3968
-18.3968
-18.3968
-18.3967
-18.3967
-18.3967
-18.3967
-18.3967
-18.3967
-18.3968
-18.3968
-18.3969
-18.397
-18.3972
-18.3974
-18.3976
-18.3979
-18.3983
-18.3987
-18.3992
-18.3997
-18.4003
-18.401
-18.4018
-18.4027
-18.4036
-18.4045
-18.4053
-18.406
-18.4066
-18.4068
-18.4068
-18.4063
-18.4055
-18.4041
-18.4019
-18.3982
-18.3928
-18.3869
-18.3817
-18.3793
-18.3822
-18.387
-18.3917
-18.3954
-18.3981
-18.4
-18.4012
-18.4019
-18.4022
-18.4021
-18.4018
-18.4014
-18.4008
-18.4003
-18.3998
-18.3992
-18.3988
-18.3984
-18.398
-18.3977
-18.3974
-18.3972
-18.397
-18.3969
-18.3968
-18.3967
-18.3967
-18.3967
-18.3967
-18.3967
-18.3967
-18.3968
-18.3968
-18.3969
-18.3969
-18.397
-18.397
-18.397
-18.8872
-18.8872
-18.8872
-18.8872
-18.8871
-18.8871
-18.8871
-18.8871
-18.8871
-18.8871
-18.8872
-18.8872
-18.8873
-18.8874
-18.8876
-18.8878
-18.888
-18.8882
-18.8886
-18.8889
-18.8893
-18.8898
-18.8903
-18.8908
-18.8914
-18.8921
-18.8927
-18.8933
-18.8938
-18.8941
-18.8942
-18.8941
-18.8936
-18.8927
-18.8912
-18.8891
-18.8862
-18.8823
-18.8775
-18.873
-18.8695
-18.8683
-18.8712
-18.8757
-18.88
-18.8834
-18.886
-18.8879
-18.8892
-18.8902
-18.8907
-18.8909
-18.8908
-18.8906
-18.8903
-18.89
-18.8896
-18.8892
-18.8889
-18.8885
-18.8882
-18.888
-18.8878
-18.8876
-18.8874
-18.8873
-18.8872
-18.8871
-18.8871
-18.8871
-18.8871
-18.8871
-18.8872
-18.8872
-18.8873
-18.8873
-18.8873
-18.8874
-18.8874
-18.8874
-19.3776
-19.3776
-19.3776
-19.3776
-19.3776
-19.3775
-19.3775
-19.3775
-19.3775
-19.3776
-19.3776
-19.3777
-19.3777
-19.3778
-19.378
-19.3781
-19.3783
-19.3785
-19.3788
-19.3791
-19.3795
-19.3798
-19.3802
-19.3807
-19.3811
-19.3815
-19.3819
-19.3823
-19.3825
-19.3825
-19.3824
-19.3819
-19.3811
-19.3799
-19.3783
-19.3759
-19.3728
-19.369
-19.3648
-19.3612
-19.3589
-19.3588
-19.3616
-19.3656
-19.3693
-19.3723
-19.3747
-19.3766
-19.378
-19.3789
-19.3796
-19.3799
-19.3801
-19.38
-19.3799
-19.3797
-19.3795
-19.3792
-19.3789
-19.3787
-19.3785
-19.3783
-19.3781
-19.3779
-19.3778
-19.3777
-19.3776
-19.3775
-19.3775
-19.3775
-19.3775
-19.3775
-19.3776
-19.3776
-19.3777
-19.3777
-19.3778
-19.3778
-19.3778
-19.3778
-19.868
-19.868
-19.868
-19.868
-19.868
-19.8679
-19.8679
-19.8679
-19.8679
-19.868
-19.868
-19.8681
-19.8681
-19.8682
-19.8683
-19.8685
-19.8686
-19.8688
-19.8691
-19.8693
-19.8696
-19.8699
-19.8702
-19.8705
-19.8708
-19.8711
-19.8713
-19.8714
-19.8714
-19.8713
-19.8709
-19.8703
-19.8693
-19.868
-19.8663
-19.864
-19.8611
-19.8576
-19.8539
-19.851
-19.8496
-19.8502
-19.8528
-19.8562
-19.8593
-19.8619
-19.864
-19.8657
-19.867
-19.868
-19.8688
-19.8692
-19.8695
-19.8696
-19.8696
-19.8695
-19.8694
-19.8692
-19.869
-19.8689
-19.8687
-19.8685
-19.8684
-19.8683
-19.8681
-19.8681
-19.868
-19.8679
-19.8679
-19.8679
-19.8679
-19.868
-19.868
-19.868
-19.8681
-19.8681
-19.8682
-19.8682
-19.8682
-19.8682
-20.3584
-20.3584
-20.3584
-20.3584
-20.3584
-20.3583
-20.3583
-20.3583
-20.3583
-20.3584
-20.3584
-20.3584
-20.3585
-20.3586
-20.3587
-20.3588
-20.3589
-20.3591
-20.3593
-20.3595
-20.3597
-20.3599
-20.3601
-20.3604
-20.3606
-20.3607
-20.3608
-20.3608
-20.3606
-20.3603
-20.3598
-20.3591
-20.3581
-20.3568
-20.3551
-20.353
-20.3504
-20.3474
-20.3443
-20.3419
-20.3411
-20.3421
-20.3444
-20.3471
-20.3497
-20.3519
-20.3537
-20.3553
-20.3565
-20.3575
-20.3582
-20.3588
-20.3591
-20.3593
-20.3594
-20.3594
-20.3593
-20.3592
-20.3591
-20.359
-20.3589
-20.3588
-20.3587
-20.3586
-20.3585
-20.3584
-20.3584
-20.3583
-20.3583
-20.3583
-20.3583
-20.3584
-20.3584
-20.3584
-20.3585
-20.3585
-20.3585
-20.3586
-20.3586
-20.3586
-20.8488
-20.8488
-20.8488
-20.8488
-20.8488
-20.8487
-20.8487
-20.8487
-20.8487
-20.8488
-20.8488
-20.8488
-20.8489
-20.8489
-20.849
-20.8491
-20.8493
-20.8494
-20.8495
-20.8497
-20.8498
-20.85
-20.8501
-20.8503
-20.8504
-20.8504
-20.8504
-20.8503
-20.85
-20.8497
-20.8491
-20.8483
-20.8473
-20.8461
-20.8446
-20.8427
-20.8405
-20.8379
-20.8353
-20.8334
-20.833
-20.8341
-20.836
-20.8383
-20.8403
-20.8422
-20.8438
-20.8452
-20.8463
-20.8472
-20.8479
-20.8485
-20.8489
-20.8491
-20.8493
-20.8493
-20.8493
-20.8493
-20.8493
-20.8492
-20.8491
-20.849
-20.849
-20.8489
-20.8488
-20.8488
-20.8487
-20.8487
-20.8487
-20.8487
-20.8487
-20.8488
-20.8488
-20.8488
-20.8489
-20.8489
-20.8489
-20.8489
-20.849
-20.849
-21.3392
-21.3392
-21.3392
-21.3392
-21.3391
-21.3391
-21.3391
-21.3391
-21.3391
-21.3391
-21.3392
-21.3392
-21.3392
-21.3393
-21.3394
-21.3395
-21.3395
-21.3397
-21.3398
-21.3399
-21.34
-21.3401
-21.3402
-21.3402
-21.3403
-21.3402
-21.3401
-21.34
-21.3397