/*--------------------------------*- C++ -*----------------------------------*\
| =========                 |                                                 |
| \\      /  F ield         | OpenFOAM: The Open Source CFD Toolbox           |
|  \\    /   O peration     | Version:  2412                                  |
|   \\  /    A nd           | Website:  www.openfoam.com                      |
|    \\/     M anipulation  |                                                 |
\*---------------------------------------------------------------------------*/
FoamFile
{
    version     2.0;
    format      ascii;
    arch        "LSB;label=32;scalar=64";
    class       volVectorField;
    location    "6.8";
    object      U;
}
// * * * * * * * * * * * * * * * * * * * * * * * * * * * * * * * * * * * * * //

dimensions      [0 1 -1 0 0 0 0];

internalField   nonuniform List<vector> 
6400
(
(2.12311e-07 -2.03172e-07 0)
(-2.95472e-06 9.84116e-07 0)
(-1.06014e-05 1.98535e-06 0)
(-2.16407e-05 2.55918e-06 0)
(-3.46921e-05 2.87266e-06 0)
(-4.89127e-05 3.04294e-06 0)
(-6.38716e-05 3.14297e-06 0)
(-7.93714e-05 3.21678e-06 0)
(-9.53477e-05 3.28704e-06 0)
(-0.000111808 3.36393e-06 0)
(-0.000128789 3.45093e-06 0)
(-0.000146335 3.54755e-06 0)
(-0.000164484 3.65146e-06 0)
(-0.000183262 3.75925e-06 0)
(-0.000202668 3.86634e-06 0)
(-0.000222676 3.96694e-06 0)
(-0.000243225 4.05403e-06 0)
(-0.000264213 4.11908e-06 0)
(-0.000285485 4.15173e-06 0)
(-0.00030683 4.13988e-06 0)
(-0.000327973 4.07001e-06 0)
(-0.000348566 3.92746e-06 0)
(-0.000368188 3.69679e-06 0)
(-0.000386338 3.3622e-06 0)
(-0.000402438 2.90836e-06 0)
(-0.000415837 2.32153e-06 0)
(-0.000425827 1.59095e-06 0)
(-0.000431661 7.10732e-07 0)
(-0.000432583 -3.18147e-07 0)
(-0.000427871 -1.48558e-06 0)
(-0.000416886 -2.77057e-06 0)
(-0.000399127 -4.14e-06 0)
(-0.000374292 -5.54926e-06 0)
(-0.000342325 -6.94447e-06 0)
(-0.000303451 -8.26699e-06 0)
(-0.000258186 -9.45925e-06 0)
(-0.000207318 -1.04704e-05 0)
(-0.000151864 -1.1261e-05 0)
(-9.30115e-05 -1.18038e-05 0)
(-3.20632e-05 -1.20831e-05 0)
(2.96168e-05 -1.20918e-05 0)
(9.06429e-05 -1.18293e-05 0)
(0.000149645 -1.13016e-05 0)
(0.000205309 -1.05237e-05 0)
(0.000256432 -9.52139e-06 0)
(0.000301976 -8.33344e-06 0)
(0.000341138 -7.0112e-06 0)
(0.000373386 -5.61467e-06 0)
(0.000398481 -4.20423e-06 0)
(0.000416465 -2.8335e-06 0)
(0.00042764 -1.54653e-06 0)
(0.000432515 -3.8213e-07 0)
(0.000431736 6.26473e-07 0)
(0.000426007 1.46619e-06 0)
(0.000416043 2.15346e-06 0)
(0.000402586 2.7185e-06 0)
(0.000386395 3.18432e-06 0)
(0.000368208 3.56267e-06 0)
(0.000348679 3.85847e-06 0)
(0.000328334 4.0716e-06 0)
(0.000307545 4.20005e-06 0)
(0.000286549 4.24656e-06 0)
(0.000265508 4.22263e-06 0)
(0.000244564 4.14576e-06 0)
(0.000223874 4.03366e-06 0)
(0.0002036 3.90083e-06 0)
(0.000183885 3.75896e-06 0)
(0.000164826 3.61848e-06 0)
(0.000146463 3.48891e-06 0)
(0.000128785 3.37765e-06 0)
(0.000111743 3.28846e-06 0)
(9.52726e-05 3.22037e-06 0)
(7.93154e-05 3.1668e-06 0)
(6.38459e-05 3.1134e-06 0)
(4.8915e-05 3.03329e-06 0)
(3.47131e-05 2.87965e-06 0)
(2.16684e-05 2.57794e-06 0)
(1.06109e-05 2.01191e-06 0)
(2.91757e-06 1.0277e-06 0)
(-2.53275e-07 -1.53442e-07 0)
(-8.84946e-07 3.02321e-06 0)
(-1.15654e-05 1.18362e-05 0)
(-3.11639e-05 1.91461e-05 0)
(-5.7608e-05 2.39986e-05 0)
(-8.83774e-05 2.70052e-05 0)
(-0.000121909 2.88833e-05 0)
(-0.000157331 3.01637e-05 0)
(-0.000194203 3.11862e-05 0)
(-0.000232355 3.21437e-05 0)
(-0.000271772 3.31314e-05 0)
(-0.000312515 3.41848e-05 0)
(-0.000354666 3.53045e-05 0)
(-0.000398298 3.64696e-05 0)
(-0.000443455 3.76454e-05 0)
(-0.000490129 3.87853e-05 0)
(-0.000538248 3.98314e-05 0)
(-0.000587663 4.07142e-05 0)
(-0.000638124 4.1351e-05 0)
(-0.000689268 4.16448e-05 0)
(-0.000740593 4.14838e-05 0)
(-0.000791449 4.07408e-05 0)
(-0.000841014 3.92749e-05 0)
(-0.000888287 3.69342e-05 0)
(-0.000932071 3.35608e-05 0)
(-0.000970983 2.89989e-05 0)
(-0.00100346 2.31071e-05 0)
(-0.00102779 1.57745e-05 0)
(-0.00104215 6.93991e-06 0)
(-0.0010447 -3.38546e-06 0)
(-0.00103369 -1.50969e-05 0)
(-0.00100752 -2.79785e-05 0)
(-0.000964965 -4.16959e-05 0)
(-0.000905255 -5.58024e-05 0)
(-0.000828229 -6.9764e-05 0)
(-0.000734407 -8.30019e-05 0)
(-0.000625025 -9.49456e-05 0)
(-0.000501986 -0.000105088 0)
(-0.000367762 -0.000113022 0)
(-0.00022525 -0.000118464 0)
(-7.76289e-05 -0.000121239 0)
(7.17678e-05 -0.00012127 0)
(0.000219555 -0.000118557 0)
(0.000362388 -0.000113183 0)
(0.000497069 -0.000105319 0)
(0.000620673 -9.52514e-05 0)
(0.000730692 -8.33798e-05 0)
(0.000825187 -7.02096e-05 0)
(0.000902889 -5.63104e-05 0)
(0.000963246 -4.22611e-05 0)
(0.00100639 -2.85973e-05 0)
(0.00103308 -1.5772e-05 0)
(0.00104452 -4.13096e-06 0)
(0.00104232 6.105e-06 0)
(0.00102824 1.48595e-05 0)
(0.00100411 2.21822e-05 0)
(0.000971748 2.81867e-05 0)
(0.000932905 3.29919e-05 0)
(0.000889224 3.66972e-05 0)
(0.000842146 3.93829e-05 0)
(0.000792871 4.11233e-05 0)
(0.000742352 4.20082e-05 0)
(0.000691324 4.21626e-05 0)
(0.000640348 4.17468e-05 0)
(0.00058987 4.09341e-05 0)
(0.000540259 3.98823e-05 0)
(0.000491819 3.87131e-05 0)
(0.000444778 3.75093e-05 0)
(0.000399275 3.63214e-05 0)
(0.000355359 3.51794e-05 0)
(0.000313003 3.41009e-05 0)
(0.000272129 3.30929e-05 0)
(0.000232637 3.21466e-05 0)
(0.000194446 3.12222e-05 0)
(0.000157553 3.02232e-05 0)
(0.000122112 2.8957e-05 0)
(8.85556e-05 2.70853e-05 0)
(5.77524e-05 2.4078e-05 0)
(3.12584e-05 1.92223e-05 0)
(1.15909e-05 1.19165e-05 0)
(8.74752e-07 3.0936e-06 0)
(-1.84227e-06 1.0809e-05 0)
(-1.87015e-05 3.17239e-05 0)
(-4.69819e-05 4.79043e-05 0)
(-8.38278e-05 5.89005e-05 0)
(-0.000126133 6.60269e-05 0)
(-0.000172087 7.07054e-05 0)
(-0.000220666 7.4033e-05 0)
(-0.000271328 7.67414e-05 0)
(-0.000323858 7.92657e-05 0)
(-0.000378229 8.18324e-05 0)
(-0.000434515 8.45339e-05 0)
(-0.00049282 8.73796e-05 0)
(-0.000553242 9.03268e-05 0)
(-0.000615837 9.32954e-05 0)
(-0.0006806 9.61747e-05 0)
(-0.000747438 9.88253e-05 0)
(-0.000816153 0.000101077 0)
(-0.000886415 0.000102727 0)
(-0.000957735 0.000103534 0)
(-0.00102944 0.000103218 0)
(-0.00110065 0.000101463 0)
(-0.00117025 9.7913e-05 0)
(-0.00123685 9.21847e-05 0)
(-0.00129882 8.38791e-05 0)
(-0.00135422 7.26026e-05 0)
(-0.00140086 5.79975e-05 0)
(-0.00143632 3.9783e-05 0)
(-0.00145801 1.78038e-05 0)
(-0.00146328 -7.91473e-06 0)
(-0.00144955 -3.71123e-05 0)
(-0.00141448 -6.92517e-05 0)
(-0.00135622 -0.000103497 0)
(-0.00127358 -0.000138733 0)
(-0.00116623 -0.000173622 0)
(-0.00103486 -0.000206712 0)
(-0.000881208 -0.000236572 0)
(-0.000708007 -0.000261929 0)
(-0.00051881 -0.000281766 0)
(-0.000317784 -0.000295369 0)
(-0.000109482 -0.000302308 0)
(0.000101337 -0.000302387 0)
(0.000309852 -0.000295613 0)
(0.000511293 -0.000282184 0)
(0.000701088 -0.000262532 0)
(0.000875037 -0.000237369 0)
(0.00102954 -0.000207699 0)
(0.00116183 -0.000174788 0)
(0.00127012 -0.000140061 0)
(0.00135367 -0.000104963 0)
(0.00141276 -7.08239e-05 0)
(0.00144855 -3.87544e-05 0)
(0.00146291 -9.59299e-06 0)
(0.0014582 1.61244e-05 0)
(0.00143705 3.8175e-05 0)
(0.00140207 5.65962e-05 0)
(0.0013558 7.15732e-05 0)
(0.00130064 8.3346e-05 0)
(0.00123883 9.2176e-05 0)
(0.00117233 9.83476e-05 0)
(0.00110285 0.000102175 0)
(0.00103178 0.000104009 0)
(0.000960203 0.000104225 0)
(0.00088896 0.000103211 0)
(0.000818669 0.000101327 0)
(0.0007498 9.88801e-05 0)
(0.000682702 9.61078e-05 0)
(0.000617622 9.31837e-05 0)
(0.000554703 9.02303e-05 0)
(0.000493991 8.73339e-05 0)
(0.000435449 8.45526e-05 0)
(0.000378983 8.19142e-05 0)
(0.000324479 7.94003e-05 0)
(0.000271852 7.69145e-05 0)
(0.000221111 7.42292e-05 0)
(0.000172462 7.09103e-05 0)
(0.000126439 6.62278e-05 0)
(8.40612e-05 5.9086e-05 0)
(4.7139e-05 4.80653e-05 0)
(1.87774e-05 3.18516e-05 0)
(1.85823e-06 1.08788e-05 0)
(-2.39671e-06 2.18461e-05 0)
(-2.32578e-05 5.8154e-05 0)
(-5.72152e-05 8.48702e-05 0)
(-0.000100698 0.000103047 0)
(-0.000150161 0.000115063 0)
(-0.000203687 0.000123173 0)
(-0.000260226 0.000129101 0)
(-0.00031923 0.00013401 0)
(-0.000380486 0.000138607 0)
(-0.000443985 0.000143269 0)
(-0.000509821 0.000148156 0)
(-0.000578129 0.000153292 0)
(-0.000649033 0.000158609 0)
(-0.000722617 0.000163974 0)
(-0.000798897 0.000169198 0)
(-0.00087779 0.000174042 0)
(-0.000959097 0.00017821 0)
(-0.00104247 0.000181346 0)
(-0.00112737 0.000183028 0)
(-0.00121305 0.000182762 0)
(-0.00129853 0.000179984 0)
(-0.00138252 0.000174061 0)
(-0.00146344 0.000164304 0)
(-0.00153935 0.000149993 0)
(-0.00160798 0.000130412 0)
(-0.00166669 0.000104903 0)
(-0.0017125 7.29396e-05 0)
(-0.00174223 3.42128e-05 0)
(-0.0017525 -1.12655e-05 0)
(-0.00173999 -6.30642e-05 0)
(-0.00170165 -0.000120248 0)
(-0.00163495 -0.000181336 0)
(-0.00153818 -0.000244323 0)
(-0.00141077 -0.000306785 0)
(-0.00125345 -0.000366081 0)
(-0.00106835 -0.000419598 0)
(-0.000858899 -0.000465026 0)
(-0.000629602 -0.000500538 0)
(-0.000385694 -0.000524879 0)
(-0.000132845 -0.000537306 0)
(0.000123084 -0.000537495 0)
(0.000376171 -0.000525448 0)
(0.000620548 -0.000501491 0)
(0.000850529 -0.000466362 0)
(0.00106085 -0.000421305 0)
(0.00124696 -0.000368124 0)
(0.00140538 -0.000309108 0)
(0.00153392 -0.000246855 0)
(0.0016318 -0.000183994 0)
(0.00169956 -0.000122931 0)
(0.00173886 -6.5653e-05 0)
(0.00175218 -1.36494e-05 0)
(0.00174265 3.21048e-05 0)
(0.00171365 7.11561e-05 0)
(0.0016685 0.000103514 0)
(0.00161033 0.000129501 0)
(0.00154201 0.000149606 0)
(0.00146621 0.000164411 0)
(0.00138527 0.000174553 0)
(0.00130122 0.000180706 0)
(0.00121571 0.000183543 0)
(0.00113002 0.000183725 0)
(0.00104514 0.000181869 0)
(0.000961746 0.000178536 0)
(0.000880335 0.000174203 0)
(0.000801246 0.000169258 0)
(0.000724702 0.000164002 0)
(0.000650821 0.000158661 0)
(0.000579627 0.000153402 0)
(0.000511063 0.000148337 0)
(0.000445014 0.000143518 0)
(0.000381344 0.000138913 0)
(0.00031995 0.000134355 0)
(0.000260829 0.000129465 0)
(0.000204184 0.000123539 0)
(0.000150556 0.000115414 0)
(0.000100993 0.000103366 0)
(5.74124e-05 8.51417e-05 0)
(2.33575e-05 5.83568e-05 0)
(2.41821e-06 2.19416e-05 0)
(-2.67154e-06 3.46682e-05 0)
(-2.57127e-05 8.83424e-05 0)
(-6.29156e-05 0.000126525 0)
(-0.00011019 0.000152338 0)
(-0.000163678 0.000169539 0)
(-0.000221395 0.000181341 0)
(-0.000282307 0.000190138 0)
(-0.000345895 0.000197538 0)
(-0.000411978 0.000204523 0)
(-0.000480584 0.000211624 0)
(-0.000551844 0.000219076 0)
(-0.000625929 0.000226914 0)
(-0.000703008 0.000235048 0)
(-0.000783207 0.000243291 0)
(-0.000866588 0.000251375 0)
(-0.000953111 0.000258952 0)
(-0.00104262 0.000265591 0)
(-0.0011348 0.000270769 0)
(-0.00122914 0.000273863 0)
(-0.00132491 0.000274136 0)
(-0.00142111 0.00027074 0)
(-0.00151642 0.00026272 0)
(-0.00160916 0.000249023 0)
(-0.00169724 0.000228539 0)
(-0.00177815 0.000200146 0)
(-0.00184891 0.000162795 0)
(-0.00190612 0.000115617 0)
(-0.00194598 5.80562e-05 0)
(-0.00196443 -9.96546e-06 0)
(-0.00195735 -8.7885e-05 0)
(-0.00192081 -0.000174353 0)
(-0.00185143 -0.000267144 0)
(-0.00174684 -0.000363174 0)
(-0.00160602 -0.000458662 0)
(-0.00142962 -0.000549435 0)
(-0.00122016 -0.000631378 0)
(-0.000981785 -0.000700856 0)
(-0.000720009 -0.000755083 0)
(-0.000441157 -0.000792187 0)
(-0.000151941 -0.000811146 0)
(0.000140819 -0.000811519 0)
(0.000430298 -0.000793299 0)
(0.000709668 -0.000756903 0)
(0.00097221 -0.000703334 0)
(0.00121157 -0.000634432 0)
(0.00142222 -0.000552948 0)
(0.0015999 -0.000462484 0)
(0.00174207 -0.000367144 0)
(0.001848 -0.0002711 0)
(0.00191867 -0.000178137 0)
(0.00195639 -9.13369e-05 0)
(0.00196448 -1.29453e-05 0)
(0.00194687 5.56058e-05 0)
(0.00190779 0.000113677 0)
(0.00185133 0.000161342 0)
(0.00178114 0.000199186 0)
(0.00170055 0.000228076 0)
(0.00161252 0.000249015 0)
(0.00151966 0.000263069 0)
(0.00142415 0.000271317 0)
(0.00132778 0.000274806 0)
(0.00123191 0.000274514 0)
(0.00113754 0.000271324 0)
(0.00104533 0.000266019 0)
(0.000955751 0.000259266 0)
(0.000869079 0.000251618 0)
(0.000785477 0.000243516 0)
(0.000705008 0.0002353 0)
(0.000627646 0.000227222 0)
(0.000553293 0.000219453 0)
(0.000481799 0.000212069 0)
(0.000412995 0.00020502 0)
(0.000346745 0.000198069 0)
(0.000283014 0.000190683 0)
(0.000221971 0.00018188 0)
(0.000164129 0.000170052 0)
(0.000110523 0.000152805 0)
(6.31358e-05 0.000126922 0)
(2.58237e-05 8.86366e-05 0)
(2.69482e-06 3.48063e-05 0)
(-2.77306e-06 4.83089e-05 0)
(-2.67335e-05 0.000120392 0)
(-6.54069e-05 0.000170562 0)
(-0.000114414 0.000204228 0)
(-0.000169719 0.00022672 0)
(-0.000229305 0.000242312 0)
(-0.00029216 0.000254105 0)
(-0.000357806 0.000264164 0)
(-0.000426109 0.000273748 0)
(-0.000497141 0.000283544 0)
(-0.000571083 0.000293857 0)
(-0.000648157 0.000304745 0)
(-0.000728586 0.000316095 0)
(-0.000812561 0.000327673 0)
(-0.00090021 0.000339133 0)
(-0.000991574 0.000350025 0)
(-0.00108658 0.000359782 0)
(-0.00118499 0.000367711 0)
(-0.00128641 0.000372977 0)
(-0.00139018 0.000374588 0)
(-0.00149537 0.000371388 0)
(-0.00160073 0.00036206 0)
(-0.00170458 0.000345136 0)
(-0.00180479 0.000319042 0)
(-0.0018987 0.000282161 0)
(-0.00198308 0.000232934 0)
(-0.00205409 0.000170014 0)
(-0.00210736 9.24538e-05 0)
(-0.00213801 -5.47162e-08 0)
(-0.00214095 -0.000106927 0)
(-0.00211112 -0.000226441 0)
(-0.00204402 -0.000355565 0)
(-0.00193624 -0.000489942 0)
(-0.00178605 -0.000624087 0)
(-0.00159394 -0.000751879 0)
(-0.00136277 -0.000867217 0)
(-0.00109767 -0.000964831 0)
(-0.000805384 -0.00104075 0)
(-0.000493556 -0.00109254 0)
(-0.00017004 -0.00111896 0)
(0.000157453 -0.00111959 0)
(0.000481282 -0.00109438 0)
(0.000793727 -0.00104371 0)
(0.00108692 -0.000968765 0)
(0.00135322 -0.000871928 0)
(0.0015858 -0.00075712 0)
(0.00177947 -0.000629588 0)
(0.00193126 -0.000495434 0)
(0.00204063 -0.000360817 0)
(0.00210924 -0.000231275 0)
(0.00214045 -0.000111193 0)
(0.00213865 -3.62997e-06 0)
(0.00210887 8.95952e-05 0)
(0.00205636 0.000167782 0)
(0.00198606 0.00023122 0)
(0.00190227 0.000280918 0)
(0.00180867 0.000318272 0)
(0.00170846 0.000344825 0)
(0.00160439 0.000362145 0)
(0.00149872 0.000371767 0)
(0.00139325 0.000375143 0)
(0.00128929 0.000373601 0)
(0.00118779 0.000368324 0)
(0.00108933 0.000360341 0)
(0.000994266 0.000350523 0)
(0.000902783 0.000339591 0)
(0.000814944 0.000328123 0)
(0.000730723 0.000316572 0)
(0.00065002 0.000305271 0)
(0.000572675 0.000294444 0)
(0.000498484 0.000284189 0)
(0.000427233 0.000274439 0)
(0.00035874 0.000264883 0)
(0.000292929 0.000254831 0)
(0.000229926 0.000243026 0)
(0.000170201 0.0002274 0)
(0.000114765 0.000204849 0)
(6.56365e-05 0.000171092 0)
(2.68484e-05 0.000120785 0)
(2.79724e-06 4.84931e-05 0)
(-2.7723e-06 6.21742e-05 0)
(-2.68358e-05 0.000153041 0)
(-6.5755e-05 0.000215409 0)
(-0.000115052 0.000257001 0)
(-0.000170639 0.000284803 0)
(-0.0002305 0.000304209 0)
(-0.000293652 0.00031906 0)
(-0.000359665 0.000331887 0)
(-0.000428451 0.000344228 0)
(-0.000500136 0.000356927 0)
(-0.000574956 0.000370367 0)
(-0.000653195 0.00038463 0)
(-0.000735145 0.000399593 0)
(-0.000821078 0.000414981 0)
(-0.000911217 0.000430383 0)
(-0.00100571 0.000445255 0)
(-0.00110461 0.000458906 0)
(-0.00120782 0.000470478 0)
(-0.00131508 0.000478928 0)
(-0.00142592 0.000483003 0)
(-0.00153955 0.000481225 0)
(-0.00165487 0.000471884 0)
(-0.00177032 0.000453047 0)
(-0.00188382 0.000422601 0)
(-0.00199264 0.000378317 0)
(-0.00209336 0.000317985 0)
(-0.00218175 0.000239591 0)
(-0.00225277 0.000141578 0)
(-0.00230062 2.31734e-05 0)
(-0.00231894 -0.000115223 0)
(-0.0023012 -0.000271645 0)
(-0.00224127 -0.000442244 0)
(-0.00213419 -0.000621154 0)
(-0.00197713 -0.000800756 0)
(-0.00177014 -0.000972295 0)
(-0.00151659 -0.00112708 0)
(-0.00122289 -0.00125758 0)
(-0.000897585 -0.00135853 0)
(-0.000550095 -0.00142694 0)
(-0.000189615 -0.00146172 0)
(0.000175211 -0.00146261 0)
(0.000536098 -0.00142955 0)
(0.000884394 -0.0013627 0)
(0.00121088 -0.00126306 0)
(0.0015061 -0.00113354 0)
(0.00176142 -0.000979343 0)
(0.00197033 -0.000807981 0)
(0.00212932 -0.000628176 0)
(0.00223824 -0.000448762 0)
(0.00229988 -0.00027747 0)
(0.00231914 -0.000120242 0)
(0.00230203 1.90534e-05 0)
(0.00225502 0.000138353 0)
(0.00218464 0.000237116 0)
(0.00209687 0.000316062 0)
(0.00199671 0.000376828 0)
(0.00188821 0.000421533 0)
(0.00177471 0.000452425 0)
(0.00165898 0.0004717 0)
(0.00154325 0.000481418 0)
(0.00142923 0.000483473 0)
(0.00131812 0.000479569 0)
(0.00121069 0.000471197 0)
(0.0011074 0.000459641 0)
(0.00100844 0.000445977 0)
(0.000913839 0.000431089 0)
(0.000823531 0.000415686 0)
(0.00073737 0.000400318 0)
(0.000655156 0.000385392 0)
(0.000576645 0.000371174 0)
(0.000501566 0.000357778 0)
(0.000429646 0.000345114 0)
(0.000360653 0.000332792 0)
(0.000294458 0.000319967 0)
(0.000231143 0.000305097 0)
(0.000171132 0.00028565 0)
(0.000115408 0.000257777 0)
(6.59853e-05 0.000216074 0)
(2.69502e-05 0.000153536 0)
(2.79706e-06 6.24045e-05 0)
(-2.71318e-06 7.58977e-05 0)
(-2.6356e-05 0.000185452 0)
(-6.46867e-05 0.000259972 0)
(-0.000113267 0.000309442 0)
(-0.000168058 0.000342515 0)
(-0.000227079 0.000365726 0)
(-0.000289389 0.000383664 0)
(-0.000354603 0.000399336 0)
(-0.000422685 0.000414564 0)
(-0.000493813 0.000430353 0)
(-0.000568286 0.000447171 0)
(-0.000646459 0.000465134 0)
(-0.000728706 0.000484121 0)
(-0.000815397 0.000503831 0)
(-0.000906872 0.000523804 0)
(-0.00100342 0.000543419 0)
(-0.00110524 0.000561879 0)
(-0.00121245 0.000578181 0)
(-0.00132498 0.000591087 0)
(-0.00144261 0.000599091 0)
(-0.00156479 0.000600388 0)
(-0.00169067 0.000592856 0)
(-0.00181891 0.000574053 0)
(-0.00194759 0.000541242 0)
(-0.00207405 0.000491463 0)
(-0.00219475 0.000421662 0)
(-0.00230511 0.000328911 0)
(-0.00239938 0.000210727 0)
(-0.00247067 6.55177e-05 0)
(-0.00251105 -0.000106858 0)
(-0.00251196 -0.00030447 0)
(-0.00246495 -0.000522707 0)
(-0.00236276 -0.000753988 0)
(-0.00220072 -0.000987854 0)
(-0.00197808 -0.00121206 0)
(-0.00169876 -0.00141407 0)
(-0.00137113 -0.00158351 0)
(-0.00100642 -0.00171326 0)
(-0.000616579 -0.00180034 0)
(-0.000212645 -0.00184417 0)
(0.000195983 -0.00184527 0)
(0.000600459 -0.00180358 0)
(0.00099137 -0.00171849 0)
(0.00135765 -0.00159041 0)
(0.00168726 -0.00142224 0)
(0.00196886 -0.00122096 0)
(0.0021939 -0.000996946 0)
(0.00235829 -0.000762757 0)
(0.0024626 -0.000530745 0)
(0.00251148 -0.000311545 0)
(0.0025122 -0.000112863 0)
(0.00247308 6.06576e-05 0)
(0.00240255 0.000207016 0)
(0.00230871 0.000326184 0)
(0.00219877 0.000419645 0)
(0.00207854 0.00048993 0)
(0.00195242 0.000540104 0)
(0.00182376 0.00057332 0)
(0.00169524 0.000592554 0)
(0.0015689 0.000600503 0)
(0.00144623 0.000599559 0)
(0.00132823 0.000591813 0)
(0.00121545 0.000579068 0)
(0.0011081 0.000562846 0)
(0.00100618 0.000544414 0)
(0.000909523 0.000524802 0)
(0.000817887 0.000504829 0)
(0.000730979 0.000485127 0)
(0.000648476 0.000466158 0)
(0.000570033 0.000448219 0)
(0.000495296 0.000431425 0)
(0.000423922 0.000415654 0)
(0.000355621 0.000400434 0)
(0.000290214 0.000384755 0)
(0.00022773 0.000366791 0)
(0.000168552 0.000343531 0)
(0.00011362 0.000310375 0)
(6.49126e-05 0.000260773 0)
(2.64673e-05 0.000186047 0)
(2.73767e-06 7.61752e-05 0)
(-2.61775e-06 8.92464e-05 0)
(-2.54888e-05 0.000217055 0)
(-6.26474e-05 0.000303484 0)
(-0.00010979 0.000360685 0)
(-0.000163002 0.000398944 0)
(-0.00022037 0.000425921 0)
(-0.000281003 0.000446957 0)
(-0.000344565 0.000465532 0)
(-0.00041107 0.00048376 0)
(-0.000480754 0.000502813 0)
(-0.00055398 0.000523253 0)
(-0.000631181 0.000545246 0)
(-0.000712825 0.000568685 0)
(-0.000799394 0.000593263 0)
(-0.000891364 0.000618496 0)
(-0.000989187 0.000643712 0)
(-0.00109327 0.000668034 0)
(-0.00120396 0.000690344 0)
(-0.00132147 0.000709236 0)
(-0.00144586 0.000722974 0)
(-0.00157697 0.000729441 0)
(-0.00171429 0.000726099 0)
(-0.00185683 0.000709963 0)
(-0.00200299 0.000677598 0)
(-0.00215034 0.000625174 0)
(-0.00229538 0.000548577 0)
(-0.00243326 0.000443642 0)
(-0.00255759 0.00030653 0)
(-0.00266023 0.000134294 0)
(-0.00273131 -7.43332e-05 0)
(-0.00275958 -0.000317939 0)
(-0.00273331 -0.000591453 0)
(-0.00264168 -0.000885261 0)
(-0.00247705 -0.00118537 0)
(-0.00223703 -0.00147428 0)
(-0.00192625 -0.00173428 0)
(-0.0015559 -0.00195025 0)
(-0.00114137 -0.00211349 0)
(-0.00069859 -0.00222099 0)
(-0.000240839 -0.00227442 0)
(0.000221523 -0.00227565 0)
(0.000679936 -0.00222472 0)
(0.00112406 -0.00211959 0)
(0.00154058 -0.00195854 0)
(0.00191348 -0.00174429 0)
(0.00222717 -0.0014854 0)
(0.00247023 -0.00119688 0)
(0.00263775 -0.000896468 0)
(0.00273189 -0.000601761 0)
(0.00276023 -0.000326997 0)
(0.00273369 -8.20049e-05 0)
(0.00266392 0.000128083 0)
(0.00256198 0.000301807 0)
(0.00243786 0.000440283 0)
(0.00230011 0.000546282 0)
(0.00215533 0.000623616 0)
(0.00200823 0.000676556 0)
(0.00186209 0.00070935 0)
(0.00171929 0.000725907 0)
(0.0015815 0.000729664 0)
(0.00144984 0.000723575 0)
(0.00132498 0.000710142 0)
(0.00120713 0.000691464 0)
(0.00109623 0.000669282 0)
(0.000991998 0.00064502 0)
(0.000894037 0.00061982 0)
(0.000801898 0.000594584 0)
(0.000715115 0.000569998 0)
(0.00063322 0.000546554 0)
(0.00055575 0.000524561 0)
(0.000482258 0.000504121 0)
(0.000412324 0.000485066 0)
(0.000345593 0.00046683 0)
(0.00028183 0.000448236 0)
(0.000221017 0.000427165 0)
(0.000163488 0.00040013 0)
(0.000110134 0.000361777 0)
(6.28657e-05 0.000304422 0)
(2.55962e-05 0.000217753 0)
(2.64205e-06 8.95724e-05 0)
(-2.49507e-06 0.00010206 0)
(-2.43338e-05 0.00024745 0)
(-5.98855e-05 0.00034539 0)
(-0.000105046 0.000410091 0)
(-0.000156079 0.000453401 0)
(-0.000211161 0.000484081 0)
(-0.00026946 0.000508204 0)
(-0.000330687 0.000529723 0)
(-0.000394911 0.000551045 0)
(-0.000462426 0.000573522 0)
(-0.000533662 0.00059782 0)
(-0.000609134 0.000624166 0)
(-0.000689411 0.000652493 0)
(-0.000775099 0.000682511 0)
(-0.000866828 0.000713738 0)
(-0.000965238 0.000745487 0)
(-0.00107097 0.00077684 0)
(-0.00118465 0.000806605 0)
(-0.00130682 0.000833254 0)
(-0.00143796 0.000854865 0)
(-0.00157833 0.000869045 0)
(-0.00172792 0.000872863 0)
(-0.00188629 0.000862783 0)
(-0.00205235 0.000834621 0)
(-0.00222412 0.000783544 0)
(-0.0023984 0.000704142 0)
(-0.00257034 0.000590627 0)
(-0.00273304 0.000437233 0)
(-0.0028771 0.000238897 0)
(-0.00299037 -7.65348e-06 0)
(-0.00305818 -0.000302474 0)
(-0.00306405 -0.000640529 0)
(-0.00299191 -0.00101031 0)
(-0.00282895 -0.00139282 0)
(-0.00256991 -0.00176365 0)
(-0.00221968 -0.00209622 0)
(-0.00179384 -0.00236955 0)
(-0.00131427 -0.00257139 0)
(-0.00080279 -0.00270129 0)
(-0.000276558 -0.00276415 0)
(0.000254161 -0.00276559 0)
(0.000781109 -0.00270556 0)
(0.00129411 -0.00257866 0)
(0.00177607 -0.00237964 0)
(0.00220509 -0.00210877 0)
(0.00255904 -0.00177782 0)
(0.00282196 -0.00140766 0)
(0.0029886 -0.00102482 0)
(0.00306382 -0.00065386 0)
(0.00306032 -0.000314108 0)
(0.00299436 -1.74128e-05 0)
(0.00288246 0.000231022 0)
(0.00273906 0.000431221 0)
(0.00257639 0.000586357 0)
(0.00240425 0.000701345 0)
(0.00222989 0.000781852 0)
(0.00205815 0.000833706 0)
(0.00189202 0.000862433 0)
(0.00173335 0.000872974 0)
(0.00158326 0.000869568 0)
(0.0014423 0.000855756 0)
(0.00131062 0.000834451 0)
(0.00118802 0.000808029 0)
(0.00107405 0.000778409 0)
(0.000968103 0.000747128 0)
(0.000869515 0.000715398 0)
(0.000777598 0.000684158 0)
(0.000691689 0.000654114 0)
(0.000611162 0.000625758 0)
(0.000535425 0.000599386 0)
(0.000463924 0.000575065 0)
(0.000396159 0.000552566 0)
(0.000331706 0.00053122 0)
(0.000270275 0.000509668 0)
(0.000211795 0.000485501 0)
(0.000156552 0.000454753 0)
(0.000105378 0.000411335 0)
(6.00947e-05 0.000346459 0)
(2.4438e-05 0.000248246 0)
(2.51973e-06 0.000102431 0)
(-2.34687e-06 0.000114208 0)
(-2.29344e-05 0.000276317 0)
(-5.653e-05 0.000385253 0)
(-9.92753e-05 0.000457152 0)
(-0.000147644 0.00050534 0)
(-0.000199917 0.000539625 0)
(-0.000255322 0.000566796 0)
(-0.000313622 0.000591273 0)
(-0.000374939 0.00061576 0)
(-0.000439626 0.000641794 0)
(-0.000508185 0.000670162 0)
(-0.000581212 0.00070117 0)
(-0.000659381 0.000734809 0)
(-0.00074343 0.000770839 0)
(-0.000834152 0.000808813 0)
(-0.000932397 0.000848071 0)
(-0.00103906 0.000887705 0)
(-0.0011551 0.000926505 0)
(-0.00128145 0.000962889 0)
(-0.00141905 0.000994817 0)
(-0.00156875 0.00101969 0)
(-0.00173118 0.00103425 0)
(-0.00190664 0.00103444 0)
(-0.00209484 0.00101533 0)
(-0.0022946 0.000970982 0)
(-0.0025034 0.000894475 0)
(-0.00271685 0.000777972 0)
(-0.00292792 0.000613077 0)
(-0.0031262 0.000391596 0)
(-0.00329716 0.000106852 0)
(-0.00342173 -0.000244082 0)
(-0.00347717 -0.000657715 0)
(-0.00343909 -0.00112064 0)
(-0.00328663 -0.0016083 0)
(-0.00300829 -0.00208497 0)
(-0.00260887 -0.00251224 0)
(-0.00210976 -0.00285719 0)
(-0.00154287 -0.00310549 0)
(-0.000940112 -0.0032586 0)
(-0.000323033 -0.00333063 0)
(0.000296749 -0.00333233 0)
(0.000914543 -0.00326404 0)
(0.00151898 -0.00311469 0)
(0.0020887 -0.00287026 0)
(0.00259184 -0.00252849 0)
(0.0029961 -0.00210332 0)
(0.00327952 -0.00162725 0)
(0.00343672 -0.00113889 0)
(0.00347869 -0.000674158 0)
(0.00342599 -0.00025808 0)
(0.00330334 9.54572e-05 0)
(0.00313368 0.000382669 0)
(0.00293595 0.000606392 0)
(0.00272469 0.000773286 0)
(0.00251074 0.000891489 0)
(0.0023015 0.000969342 0)
(0.00210145 0.00101467 0)
(0.00191296 0.00103449 0)
(0.00173708 0.00103481 0)
(0.00157407 0.00102067 0)
(0.00142372 0.000996136 0)
(0.00128551 0.000964485 0)
(0.00115865 0.000928306 0)
(0.00104225 0.000889636 0)
(0.00093531 0.000850063 0)
(0.000836841 0.000810812 0)
(0.000745903 0.000772809 0)
(0.000661623 0.000736731 0)
(0.000583202 0.000703037 0)
(0.000509913 0.000671978 0)
(0.000441095 0.000643564 0)
(0.000376161 0.000617488 0)
(0.000314617 0.00059296 0)
(0.000256114 0.000568439 0)
(0.000200531 0.000541214 0)
(0.0001481 0.000506851 0)
(9.95932e-05 0.000458541 0)
(5.67299e-05 0.000386447 0)
(2.30353e-05 0.000277206 0)
(2.37146e-06 0.000114619 0)
(-2.16982e-06 0.000125567 0)
(-2.13046e-05 0.000303386 0)
(-5.26534e-05 0.000422714 0)
(-9.26325e-05 0.000501455 0)
(-0.000137938 0.000554299 0)
(-0.00018695 0.000592049 0)
(-0.000238962 0.000622189 0)
(-0.000293788 0.000649599 0)
(-0.000351603 0.000677281 0)
(-0.000412824 0.000706969 0)
(-0.00047802 0.000739582 0)
(-0.000547874 0.000775523 0)
(-0.000623162 0.000814867 0)
(-0.000704752 0.000857451 0)
(-0.000793608 0.000902907 0)
(-0.000890797 0.000950652 0)
(-0.000997498 0.000999849 0)
(-0.00111501 0.00104935 0)
(-0.00124473 0.0010976 0)
(-0.00138815 0.00114254 0)
(-0.00154681 0.00118149 0)
(-0.00172215 0.00121097 0)
(-0.00191548 0.00122652 0)
(-0.00212762 0.00122253 0)
(-0.00235865 0.00119197 0)
(-0.00260737 0.00112625 0)
(-0.00287053 0.00101509 0)
(-0.00314177 0.000846697 0)
(-0.00341038 0.000608394 0)
(-0.00365961 0.000288256 0)
(-0.00386564 -0.000122184 0)
(-0.00399705 -0.000623076 0)
(-0.00401784 -0.00120138 0)
(-0.0038929 -0.00182472 0)
(-0.0036001 -0.00244355 0)
(-0.0031407 -0.00299698 0)
(-0.00254428 -0.00343747 0)
(-0.00185837 -0.00374157 0)
(-0.00112877 -0.00392052 0)
(-0.000387592 -0.00399943 0)
(0.000355852 -0.00400182 0)
(0.00109781 -0.00392749 0)
(0.00182942 -0.00375387 0)
(0.00251901 -0.00345474 0)
(0.00312084 -0.00301853 0)
(0.00358681 -0.00246737 0)
(0.00388631 -0.00184877 0)
(0.00401731 -0.00122375 0)
(0.00400125 -0.000642598 0)
(0.00387297 -0.000138217 0)
(0.00366876 0.000275745 0)
(0.00342055 0.00059907 0)
(0.00315212 0.000840089 0)
(0.00288035 0.00101072 0)
(0.00261633 0.00112369 0)
(0.00236682 0.00119083 0)
(0.00213515 0.00122243 0)
(0.00192246 0.00122718 0)
(0.00172854 0.00121215 0)
(0.00155251 0.00118306 0)
(0.00139313 0.00114441 0)
(0.00124902 0.00109969 0)
(0.00111872 0.0010516 0)
(0.00100077 0.00100219 0)
(0.000893736 0.000953029 0)
(0.000796278 0.000905264 0)
(0.000707177 0.000859752 0)
(0.000625342 0.000817093 0)
(0.000549801 0.000777667 0)
(0.00047969 0.000741648 0)
(0.000414241 0.000708966 0)
(0.000352781 0.000679214 0)
(0.000294745 0.000651475 0)
(0.000239723 0.000624009 0)
(0.000187539 0.000593805 0)
(0.000138372 0.000555966 0)
(9.29339e-05 0.000502985 0)
(5.28433e-05 0.000424028 0)
(2.14006e-05 0.000304362 0)
(2.19326e-06 0.000126016 0)
(-1.95728e-06 0.000136014 0)
(-1.94503e-05 0.000328418 0)
(-4.83273e-05 0.000457484 0)
(-8.52797e-05 0.000542664 0)
(-0.000127208 0.000599893 0)
(-0.000172578 0.000640911 0)
(-0.00022074 0.000673879 0)
(-0.000271572 0.00070414 0)
(-0.000325308 0.000734998 0)
(-0.000382429 0.000768386 0)
(-0.000443574 0.000805365 0)
(-0.000509505 0.000846455 0)
(-0.000581095 0.000891836 0)
(-0.000659336 0.000941457 0)
(-0.000745359 0.000995072 0)
(-0.000840448 0.00105223 0)
(-0.000946071 0.00111225 0)
(-0.0010639 0.00117412 0)
(-0.00119583 0.00123643 0)
(-0.00134398 0.00129727 0)
(-0.00151066 0.001354 0)
(-0.00169836 0.00140313 0)
(-0.00190961 0.00144001 0)
(-0.00214678 0.00145854 0)
(-0.00241181 0.00145076 0)
(-0.00270556 0.00140643 0)
(-0.00302701 0.00131261 0)
(-0.00337184 0.00115334 0)
(-0.00373031 0.000910029 0)
(-0.00408482 0.000562734 0)
(-0.00440655 9.4e-05 0)
(-0.00465424 -0.000505214 0)
(-0.00477427 -0.00122473 0)
(-0.00471027 -0.00202707 0)
(-0.0044182 -0.00283918 0)
(-0.00389088 -0.00357114 0)
(-0.0031669 -0.00414176 0)
(-0.00231432 -0.00452211 0)
(-0.00140475 -0.00472877 0)
(-0.000480721 -0.00481373 0)
(0.000441145 -0.00481637 0)
(0.00136621 -0.00473788 0)
(0.00227853 -0.00453778 0)
(0.00313631 -0.00416474 0)
(0.00386795 -0.00359964 0)
(0.00440445 -0.00287079 0)
(0.00470553 -0.00205819 0)
(0.00477706 -0.00125277 0)
(0.00466254 -0.000528664 0)
(0.00441809 7.55181e-05 0)
(0.00409792 0.000548988 0)
(0.00374386 0.000900378 0)
(0.003385 0.00114702 0)
(0.00303907 0.00130889 0)
(0.00271627 0.00140471 0)
(0.00242129 0.00145051 0)
(0.00215529 0.00145934 0)
(0.00191728 0.00144154 0)
(0.00170523 0.00140514 0)
(0.00151671 0.00135632 0)
(0.0013492 0.0012998 0)
(0.0012003 0.00123911 0)
(0.00106773 0.00117689 0)
(0.000949396 0.00111505 0)
(0.000843383 0.00105502 0)
(0.000747981 0.000997801 0)
(0.000661685 0.000944096 0)
(0.000583185 0.000894368 0)
(0.000511341 0.000848876 0)
(0.00044516 0.000807681 0)
(0.000383772 0.000770606 0)
(0.000326423 0.000737133 0)
(0.000272478 0.000706201 0)
(0.000221462 0.000675872 0)
(0.000173135 0.000642828 0)
(0.000127618 0.000601709 0)
(8.55624e-05 0.000544329 0)
(4.85052e-05 0.000458912 0)
(1.95399e-05 0.000329476 0)