/*--------------------------------*- C++ -*----------------------------------*\
| =========                 |                                                 |
| \\      /  F ield         | OpenFOAM: The Open Source CFD Toolbox           |
|  \\    /   O peration     | Version:  2412                                  |
|   \\  /    A nd           | Website:  www.openfoam.com                      |
|    \\/     M anipulation  |                                                 |
\*---------------------------------------------------------------------------*/
FoamFile
{
    version     2.0;
    format      ascii;
    arch        "LSB;label=32;scalar=64";
    class       volVectorField;
    location    "8.5";
    object      U;
}
// * * * * * * * * * * * * * * * * * * * * * * * * * * * * * * * * * * * * * //

dimensions      [0 1 -1 0 0 0 0];

internalField   nonuniform List<vector> 
6400
(
(0.00179772 -0.00182514 0)
(0.00604014 -0.00204696 0)
(0.0108451 -0.00208233 0)
(0.0158402 -0.00203917 0)
(0.0206995 -0.00188445 0)
(0.025085 -0.00162999 0)
(0.0287724 -0.00131504 0)
(0.031634 -0.00097327 0)
(0.0336144 -0.000636394 0)
(0.0347678 -0.000309942 0)
(0.0351665 -1.74167e-05 0)
(0.0348831 0.000244194 0)
(0.0340361 0.000468878 0)
(0.0327275 0.000654039 0)
(0.0310533 0.0008012 0)
(0.0290975 0.000915364 0)
(0.0269327 0.000995169 0)
(0.0246329 0.00104191 0)
(0.0222642 0.00106179 0)
(0.0198811 0.00105857 0)
(0.0175288 0.00103507 0)
(0.0152456 0.0009937 0)
(0.0130666 0.000938481 0)
(0.0110211 0.000870014 0)
(0.00912767 0.000793971 0)
(0.007399 0.000711778 0)
(0.0058506 0.000626348 0)
(0.00448082 0.000541066 0)
(0.00328437 0.000457362 0)
(0.00226712 0.000376423 0)
(0.00141553 0.000303861 0)
(0.000717199 0.000232413 0)
(0.000168363 0.00016498 0)
(-0.000241619 0.000103365 0)
(-0.00053025 4.798e-05 0)
(-0.00071167 3.05558e-06 0)
(-0.000799657 -3.37824e-05 0)
(-0.000812563 -6.70809e-05 0)
(-0.000767441 -9.54737e-05 0)
(-0.00068277 -0.000109499 0)
(-0.00058188 -0.00011243 0)
(-0.000487891 -0.000107882 0)
(-0.0004147 -8.69231e-05 0)
(-0.000383366 -5.92461e-05 0)
(-0.000416879 -2.46846e-05 0)
(-0.000535643 1.86591e-05 0)
(-0.000764014 7.15365e-05 0)
(-0.00110874 0.000136828 0)
(-0.00158694 0.000202337 0)
(-0.00222597 0.0002813 0)
(-0.00303422 0.000366839 0)
(-0.00401984 0.000448786 0)
(-0.00520081 0.000542301 0)
(-0.00657266 0.000642914 0)
(-0.00813977 0.000733808 0)
(-0.009907 0.000825042 0)
(-0.0118576 0.000908146 0)
(-0.013974 0.00098408 0)
(-0.016237 0.00104651 0)
(-0.0186176 0.00109257 0)
(-0.0210761 0.00111806 0)
(-0.0235719 0.00112135 0)
(-0.0260507 0.00109746 0)
(-0.0284521 0.00104283 0)
(-0.0307096 0.000954807 0)
(-0.0327495 0.000835328 0)
(-0.0344921 0.000677175 0)
(-0.0358438 0.000476908 0)
(-0.0367019 0.000238754 0)
(-0.0369618 -3.4119e-05 0)
(-0.0365205 -0.000339421 0)
(-0.0352804 -0.000676547 0)
(-0.0331656 -0.00103485 0)
(-0.0301329 -0.00138903 0)
(-0.0262403 -0.0017239 0)
(-0.0216327 -0.00197889 0)
(-0.0165467 -0.00213475 0)
(-0.0113345 -0.00217593 0)
(-0.00632828 -0.00213669 0)
(-0.00189205 -0.00192058 0)
(0.00192366 -0.00599368 0)
(0.0069569 -0.00734564 0)
(0.0129467 -0.00793055 0)
(0.0194108 -0.0080279 0)
(0.0258486 -0.00755148 0)
(0.03173 -0.00659356 0)
(0.0366887 -0.00532516 0)
(0.0405186 -0.00392203 0)
(0.0431518 -0.00252733 0)
(0.0446577 -0.00121712 0)
(0.0451536 -6.06967e-05 0)
(0.0447832 0.00092597 0)
(0.0437086 0.00173916 0)
(0.042064 0.00239112 0)
(0.0399811 0.00290538 0)
(0.0375698 0.00329025 0)
(0.0349128 0.00355552 0)
(0.0321009 0.00371086 0)
(0.0292131 0.00377316 0)
(0.026313 0.00375958 0)
(0.0234522 0.0036794 0)
(0.0206771 0.00354208 0)
(0.0180277 0.00335571 0)
(0.0155371 0.00313 0)
(0.0132249 0.00288365 0)
(0.011099 0.00261819 0)
(0.00917744 0.00234099 0)
(0.00745112 0.00206742 0)
(0.00591067 0.00179779 0)
(0.0045729 0.00153584 0)
(0.0034168 0.00128662 0)
(0.0024209 0.00105702 0)
(0.00159047 0.000837445 0)
(0.000912295 0.000635844 0)
(0.000365913 0.000455374 0)
(-6.32466e-05 0.000302429 0)
(-0.000394627 0.000173794 0)
(-0.000647811 6.45694e-05 0)
(-0.000827188 -1.74984e-05 0)
(-0.000955569 -6.39858e-05 0)
(-0.00106936 -7.4121e-05 0)
(-0.00118557 -5.27749e-05 0)
(-0.00132854 6.53638e-06 0)
(-0.00152799 9.44904e-05 0)
(-0.00179622 0.00021149 0)
(-0.00215453 0.00035673 0)
(-0.00262868 0.00053016 0)
(-0.0032326 0.000733819 0)
(-0.00397275 0.000953939 0)
(-0.00488197 0.00120252 0)
(-0.00598843 0.00147163 0)
(-0.00727328 0.00174978 0)
(-0.00876079 0.00204774 0)
(-0.0104745 0.00235782 0)
(-0.0123965 0.00265363 0)
(-0.0145321 0.00294772 0)
(-0.0168768 0.00322048 0)
(-0.0194149 0.00346723 0)
(-0.0221263 0.00367558 0)
(-0.0249784 0.00383154 0)
(-0.0279318 0.00392479 0)
(-0.0309367 0.00394392 0)
(-0.0339304 0.00387373 0)
(-0.0368418 0.00370364 0)
(-0.0395918 0.00342202 0)
(-0.0420961 0.00302028 0)
(-0.0442509 0.00247955 0)
(-0.0459297 0.00177929 0)
(-0.0470046 0.000916348 0)
(-0.0473483 -0.000120593 0)
(-0.0468021 -0.00132811 0)
(-0.0451909 -0.00268733 0)
(-0.0423802 -0.00415229 0)
(-0.0383259 -0.00562493 0)
(-0.0331055 -0.00695012 0)
(-0.02694 -0.00791411 0)
(-0.0202235 -0.00838666 0)
(-0.0134887 -0.00826086 0)
(-0.00725004 -0.00764894 0)
(-0.00200858 -0.00627998 0)
(0.00201167 -0.0105088 0)
(0.00741076 -0.0132188 0)
(0.0139779 -0.0145856 0)
(0.0212103 -0.0149644 0)
(0.0285546 -0.0142031 0)
(0.0353497 -0.0124619 0)
(0.0410808 -0.0100706 0)
(0.0454634 -0.00739302 0)
(0.0484365 -0.00472223 0)
(0.0500958 -0.00224404 0)
(0.0506007 -7.26255e-05 0)
(0.0501341 0.00175134 0)
(0.0488839 0.00324491 0)
(0.0470159 0.00442731 0)
(0.0446689 0.005355 0)
(0.0419653 0.00603594 0)
(0.0390101 0.00650135 0)
(0.035896 0.00677113 0)
(0.0327063 0.00687297 0)
(0.02951 0.00683911 0)
(0.0263652 0.0066852 0)
(0.0233172 0.00642616 0)
(0.0204038 0.00608178 0)
(0.0176655 0.00567351 0)
(0.0151157 0.00522419 0)
(0.0127608 0.00475133 0)
(0.0106282 0.0042654 0)
(0.00870535 0.00377599 0)
(0.00697486 0.00330494 0)
(0.00545251 0.00284932 0)
(0.00413385 0.0024097 0)
(0.00298772 0.00200323 0)
(0.0020098 0.00162639 0)
(0.00120202 0.00128322 0)
(0.000539002 0.000974088 0)
(7.74627e-06 0.000708071 0)
(-0.000409265 0.000483794 0)
(-0.000731653 0.000295887 0)
(-0.000972919 0.000163183 0)
(-0.00115784 8.50363e-05 0)
(-0.0013181 6.50757e-05 0)
(-0.00148438 0.000101613 0)
(-0.00168408 0.000195612 0)
(-0.00194531 0.000344672 0)
(-0.00228689 0.000546297 0)
(-0.00273424 0.0007952 0)
(-0.00330961 0.00108898 0)
(-0.00402652 0.00143459 0)
(-0.00489868 0.00181903 0)
(-0.00595401 0.00224434 0)
(-0.00721498 0.00270594 0)
(-0.00866722 0.00320666 0)
(-0.0103322 0.00372351 0)
(-0.0122362 0.00425441 0)
(-0.0143576 0.00478683 0)
(-0.0167034 0.00530499 0)
(-0.019278 0.0057959 0)
(-0.0220576 0.00624218 0)
(-0.0250218 0.00662231 0)
(-0.028139 0.00691189 0)
(-0.0313695 0.00709506 0)
(-0.0346642 0.00714548 0)
(-0.0379564 0.00703605 0)
(-0.0411689 0.00674595 0)
(-0.0442166 0.00625615 0)
(-0.047004 0.0055421 0)
(-0.0494163 0.00457488 0)
(-0.0513181 0.00331631 0)
(-0.0525738 0.00173915 0)
(-0.05302 -0.000189133 0)
(-0.0524476 -0.00245747 0)
(-0.0506566 -0.00503655 0)
(-0.0474862 -0.00782974 0)
(-0.0428495 -0.0106363 0)
(-0.0368131 -0.0131121 0)
(-0.0296967 -0.014876 0)
(-0.0220408 -0.0156236 0)
(-0.0145116 -0.0151776 0)
(-0.00769237 -0.0137549 0)
(-0.00209409 -0.0109746 0)
(0.00208107 -0.0152779 0)
(0.00764134 -0.0194965 0)
(0.0145743 -0.021832 0)
(0.0224586 -0.0226909 0)
(0.0307441 -0.0217376 0)
(0.0385492 -0.0191357 0)
(0.045068 -0.0154151 0)
(0.0498833 -0.0112244 0)
(0.0529743 -0.00708647 0)
(0.0545462 -0.00330429 0)
(0.0548505 -2.68134e-05 0)
(0.0541371 0.00269994 0)
(0.0526181 0.00492341 0)
(0.0504789 0.0066753 0)
(0.0478637 0.00802773 0)
(0.0448985 0.00901651 0)
(0.0417022 0.00968413 0)
(0.0383559 0.0100646 0)
(0.0349461 0.0102019 0)
(0.0315464 0.0101379 0)
(0.028212 0.00990028 0)
(0.0249916 0.00951338 0)
(0.021923 0.00900849 0)
(0.0190371 0.00841444 0)
(0.0163516 0.00775814 0)
(0.0138749 0.00707257 0)
(0.0116174 0.00637669 0)
(0.00958266 0.00567564 0)
(0.00775276 0.00499354 0)
(0.00612161 0.00433962 0)
(0.0046936 0.00371693 0)
(0.00344693 0.00312527 0)
(0.00237622 0.00257899 0)
(0.00147289 0.00207507 0)
(0.000717402 0.00161957 0)
(0.000107367 0.00122471 0)
(-0.000379838 0.000883417 0)
(-0.00075611 0.000607363 0)
(-0.00103482 0.000402195 0)
(-0.00125427 0.000282676 0)
(-0.00144395 0.000251208 0)
(-0.00163737 0.000305025 0)
(-0.00186877 0.000448457 0)
(-0.00217157 0.000675989 0)
(-0.00256608 0.000973792 0)
(-0.00308196 0.00134003 0)
(-0.0037273 0.00178004 0)
(-0.00451929 0.00228295 0)
(-0.00548236 0.00283785 0)
(-0.00663423 0.00345553 0)
(-0.00798286 0.00412519 0)
(-0.00952929 0.00483772 0)
(-0.0112987 0.00557228 0)
(-0.0132986 0.00633154 0)
(-0.0155293 0.00710155 0)
(-0.0180003 0.00785224 0)
(-0.0207065 0.00856631 0)
(-0.023633 0.0092159 0)
(-0.0267615 0.0097745 0)
(-0.0300573 0.0102091 0)
(-0.0334811 0.0104899 0)
(-0.0369872 0.0105785 0)
(-0.0405082 0.0104346 0)
(-0.0439637 0.0100251 0)
(-0.0472664 0.00932179 0)
(-0.0503185 0.0082869 0)
(-0.0530021 0.00687345 0)
(-0.0551864 0.00502351 0)
(-0.0567339 0.00268103 0)
(-0.0574433 -0.000193082 0)
(-0.0570652 -0.00362551 0)
(-0.0553527 -0.00757759 0)
(-0.0520472 -0.0119028 0)
(-0.0469416 -0.0162695 0)
(-0.0400633 -0.02011 0)
(-0.0318899 -0.0227516 0)
(-0.0232639 -0.0236601 0)
(-0.0150867 -0.022698 0)
(-0.00792614 -0.0202616 0)
(-0.00216936 -0.0159111 0)
(0.00214611 -0.0201272 0)
(0.00765207 -0.0259217 0)
(0.0147897 -0.0294854 0)
(0.0235023 -0.0312452 0)
(0.0331362 -0.030373 0)
(0.0423188 -0.0268264 0)
(0.0498298 -0.0213894 0)
(0.0550564 -0.0152415 0)
(0.058046 -0.00931745 0)
(0.059219 -0.00406245 0)
(0.0590035 0.000378702 0)
(0.0577564 0.00402888 0)
(0.0557403 0.00695839 0)
(0.053152 0.00925361 0)
(0.0501409 0.0110049 0)
(0.0468237 0.0122791 0)
(0.043312 0.0131209 0)
(0.0396848 0.0135887 0)
(0.0360257 0.0137412 0)
(0.0324064 0.0136233 0)
(0.0288835 0.0132774 0)
(0.0255043 0.0127428 0)
(0.0223025 0.0120571 0)
(0.0193058 0.0112608 0)
(0.0165312 0.0103898 0)
(0.0139861 0.00947875 0)
(0.0116738 0.00855877 0)
(0.00959131 0.00764158 0)
(0.00772901 0.00674118 0)
(0.00607727 0.00588807 0)
(0.00462418 0.00507467 0)
(0.00335386 0.00430403 0)
(0.00226071 0.00358718 0)
(0.00133513 0.00292128 0)
(0.000563952 0.00231713 0)
(-6.14771e-05 0.00178312 0)
(-0.000546854 0.00131527 0)
(-0.000905985 0.000936614 0)
(-0.00116046 0.000651599 0)
(-0.00134047 0.000480382 0)
(-0.00148731 0.000434524 0)
(-0.00163892 0.000510238 0)
(-0.00183207 0.000708927 0)
(-0.00210933 0.00102076 0)
(-0.00248994 0.00143009 0)
(-0.00298875 0.00192064 0)
(-0.00362987 0.0025091 0)
(-0.00443669 0.00316977 0)
(-0.00540846 0.0039066 0)
(-0.00656268 0.00471464 0)
(-0.00792336 0.00559368 0)
(-0.00949221 0.00651604 0)
(-0.0112835 0.0074757 0)
(-0.0133137 0.00847504 0)
(-0.0155927 0.00949021 0)
(-0.0181322 0.0104895 0)
(-0.0209326 0.0114466 0)
(-0.0239725 0.0123211 0)
(-0.0272389 0.0130791 0)
(-0.0307079 0.0136798 0)
(-0.034336 0.0140802 0)
(-0.0380738 0.0142297 0)
(-0.0418568 0.0140746 0)
(-0.0456113 0.0135717 0)
(-0.0492514 0.0126827 0)
(-0.0526798 0.0113581 0)
(-0.0557867 0.00952909 0)
(-0.0584493 0.00711127 0)
(-0.0605146 0.00402419 0)
(-0.0617784 0.000178565 0)
(-0.0619453 -0.00448737 0)
(-0.0606408 -0.00999234 0)
(-0.0574233 -0.016191 0)
(-0.0518727 -0.0225889 0)
(-0.0439614 -0.0281907 0)
(-0.0343609 -0.0317714 0)
(-0.0243335 -0.032535 0)
(-0.0152912 -0.0306262 0)
(-0.00792393 -0.026917 0)
(-0.00223532 -0.0209366 0)
(0.00217334 -0.0249105 0)
(0.00756795 -0.0323331 0)
(0.0156367 -0.0377749 0)
(0.0267183 -0.0412414 0)
(0.0388382 -0.0407044 0)
(0.0494318 -0.0358824 0)
(0.0572698 -0.0280985 0)
(0.0622073 -0.0193358 0)
(0.0645579 -0.0111509 0)
(0.0648885 -0.00418759 0)
(0.0637912 0.00148241 0)
(0.0617112 0.00601857 0)
(0.0589417 0.00958182 0)
(0.0557114 0.0123502 0)
(0.0521523 0.0144406 0)
(0.0483495 0.015938 0)
(0.0444081 0.016905 0)
(0.0404131 0.0174174 0)
(0.0364353 0.0175441 0)
(0.0325411 0.0173347 0)
(0.028788 0.0168428 0)
(0.0252211 0.0161228 0)
(0.0218747 0.0152242 0)
(0.0187728 0.0141967 0)
(0.015925 0.0130853 0)
(0.0133391 0.0119289 0)
(0.0110089 0.0107638 0)
(0.00892341 0.00960931 0)
(0.00708366 0.00849154 0)
(0.00546088 0.0074254 0)
(0.00403198 0.00641392 0)
(0.00279569 0.00546267 0)
(0.00173966 0.00458019 0)
(0.000850258 0.0037551 0)
(0.000114372 0.00299709 0)
(-0.000470953 0.00231279 0)
(-0.000903164 0.00171368 0)
(-0.00119226 0.00121075 0)
(-0.00136432 0.000834203 0)
(-0.00145147 0.000603587 0)
(-0.00149766 0.000540031 0)
(-0.00155011 0.000642916 0)
(-0.00164946 0.000905725 0)
(-0.00183846 0.00130399 0)
(-0.00215088 0.00182986 0)
(-0.00259014 0.00246754 0)
(-0.0031697 0.00320047 0)
(-0.00391653 0.00402072 0)
(-0.0048378 0.00494539 0)
(-0.00594032 0.00595178 0)
(-0.00724604 0.00703164 0)
(-0.00877546 0.00817749 0)
(-0.0105383 0.00937997 0)
(-0.0125581 0.0106351 0)
(-0.0148536 0.0119201 0)
(-0.0174336 0.0131904 0)
(-0.0203067 0.0144193 0)
(-0.0234614 0.0155544 0)
(-0.0268848 0.0165495 0)
(-0.030556 0.0173521 0)
(-0.0344315 0.0179118 0)
(-0.0384639 0.0181641 0)
(-0.0425916 0.0180437 0)
(-0.0467424 0.0174968 0)
(-0.0508318 0.0164728 0)
(-0.0547734 0.0149072 0)
(-0.058475 0.0127222 0)
(-0.061818 0.00982189 0)
(-0.0646706 0.00606396 0)
(-0.0668088 0.00127631 0)
(-0.0678989 -0.00468977 0)
(-0.0674823 -0.0119989 0)
(-0.0649755 -0.0205649 0)
(-0.0598426 -0.029657 0)
(-0.0517421 -0.0376515 0)
(-0.0407323 -0.0425368 0)
(-0.0280392 -0.0429492 0)
(-0.0163594 -0.0392367 0)
(-0.00787398 -0.0335659 0)
(-0.00226427 -0.0258927 0)
(0.00220857 -0.0297004 0)
(0.00857191 -0.0397436 0)
(0.0214196 -0.0488457 0)
(0.0391127 -0.0545373 0)
(0.055882 -0.052926 0)
(0.0672134 -0.0449235 0)
(0.0724882 -0.0337885 0)
(0.0739284 -0.0222416 0)
(0.0735319 -0.0118409 0)
(0.0719963 -0.00319963 0)
(0.0694956 0.00365278 0)
(0.0662434 0.00896223 0)
(0.0624955 0.0130232 0)
(0.0584513 0.0161442 0)
(0.0542011 0.0184726 0)
(0.0498051 0.0201092 0)
(0.0453456 0.0211373 0)
(0.0408977 0.0216367 0)
(0.036527 0.0216792 0)
(0.032297 0.0213258 0)
(0.028268 0.0206371 0)
(0.0244836 0.0196822 0)
(0.020973 0.0185267 0)
(0.0177588 0.0172231 0)
(0.0148468 0.0158277 0)
(0.0122357 0.0143929 0)
(0.00991119 0.0129551 0)
(0.00786033 0.0115485 0)
(0.00606904 0.0101976 0)
(0.0045052 0.00890914 0)
(0.00314661 0.00770297 0)
(0.00198253 0.00657111 0)
(0.00099156 0.00551919 0)
(0.000159524 0.00453149 0)
(-0.000516307 0.0036119 0)
(-0.00103233 0.00277795 0)
(-0.00138258 0.00202751 0)
(-0.00157503 0.00138515 0)
(-0.00163211 0.000891464 0)
(-0.00158964 0.000589582 0)
(-0.00149474 0.000507455 0)
(-0.00141031 0.000649124 0)
(-0.00138939 0.000990213 0)
(-0.00146656 0.00149724 0)
(-0.00166233 0.00214314 0)
(-0.00200601 0.00292627 0)
(-0.0025082 0.00381386 0)
(-0.00316099 0.00480399 0)
(-0.00398542 0.00589817 0)
(-0.00500439 0.00710689 0)
(-0.00622069 0.00840007 0)
(-0.00766076 0.00977591 0)
(-0.00935742 0.011241 0)
(-0.0113356 0.0127766 0)
(-0.0136222 0.0143624 0)
(-0.0162288 0.0159456 0)
(-0.0191714 0.0174864 0)
(-0.0224485 0.0189288 0)
(-0.0260503 0.020214 0)
(-0.0299588 0.0212791 0)
(-0.0341315 0.0220529 0)
(-0.0385251 0.0224609 0)
(-0.0430773 0.0224338 0)
(-0.0477184 0.0219055 0)
(-0.0523709 0.0208144 0)
(-0.0569502 0.019091 0)
(-0.0613674 0.0166523 0)
(-0.0655575 0.0133853 0)
(-0.06944 0.00909367 0)
(-0.0728031 0.00349593 0)
(-0.0753875 -0.0037099 0)
(-0.0770292 -0.0127468 0)
(-0.0776236 -0.0235239 0)
(-0.0764493 -0.0353878 0)
(-0.0712593 -0.0468695 0)
(-0.059562 -0.0552309 0)
(-0.0419159 -0.0569648 0)
(-0.023003 -0.0509756 0)
(-0.00909374 -0.041396 0)
(-0.00229363 -0.0308599 0)
(0.00219065 -0.0354316 0)
(0.0136216 -0.0519892 0)
(0.0380118 -0.0677857 0)
(0.0658756 -0.0747335 0)
(0.0883857 -0.0677449 0)
(0.100191 -0.0513507 0)
(0.100486 -0.0338596 0)
(0.0939402 -0.0198415 0)
(0.0865686 -0.00902454 0)
(0.0808128 -8.69707e-05 0)
(0.0760244 0.00732299 0)
(0.0712641 0.0131001 0)
(0.0663559 0.0174553 0)
(0.0613849 0.0207562 0)
(0.0563534 0.0232029 0)
(0.0512862 0.024891 0)
(0.0462331 0.0259045 0)
(0.0412558 0.0263236 0)
(0.0364243 0.0262149 0)
(0.0318052 0.0256502 0)
(0.0274585 0.0247034 0)
(0.0234302 0.0234491 0)
(0.0197397 0.0219697 0)
(0.0164032 0.0203318 0)
(0.0134314 0.0186036 0)
(0.0108119 0.0168495 0)
(0.00852019 0.0151098 0)
(0.00653244 0.0134294 0)
(0.00482132 0.0118223 0)
(0.0033554 0.0103151 0)
(0.0020954 0.00890792 0)
(0.0010188 0.0075966 0)
(0.000107395 0.00638171 0)
(-0.000654096 0.00523852 0)
(-0.00125298 0.0041617 0)
(-0.00169219 0.00316573 0)
(-0.00196363 0.00223307 0)
(-0.00205233 0.00144258 0)
(-0.00197132 0.000820446 0)
(-0.00175587 0.000437962 0)
(-0.00147268 0.000329635 0)
(-0.00121714 0.000503949 0)
(-0.00104941 0.000933286 0)
(-0.00100326 0.0015725 0)
(-0.00108886 0.00236068 0)
(-0.00132516 0.0032791 0)
(-0.00172007 0.00432054 0)
(-0.00227099 0.00548142 0)
(-0.0029782 0.00674761 0)
(-0.00386715 0.00814289 0)
(-0.00496915 0.0096586 0)
(-0.00629304 0.0112838 0)
(-0.0078864 0.0130258 0)
(-0.00979056 0.0148739 0)
(-0.0120375 0.016795 0)
(-0.0146531 0.0187399 0)
(-0.017658 0.0206487 0)
(-0.0210629 0.0224619 0)
(-0.0248616 0.0241025 0)
(-0.0290421 0.0254961 0)
(-0.0335668 0.0265536 0)
(-0.0383835 0.0271916 0)
(-0.0434313 0.027327 0)
(-0.0486405 0.0268885 0)
(-0.0539324 0.0258088 0)
(-0.0592346 0.0240234 0)
(-0.0644792 0.021457 0)
(-0.0696364 0.0179818 0)
(-0.0747167 0.0133716 0)
(-0.0796637 0.00730262 0)
(-0.0847365 -0.000412564 0)
(-0.0910003 -0.00957549 0)
(-0.0990878 -0.0205989 0)
(-0.106278 -0.0350156 0)
(-0.106255 -0.0533108 0)
(-0.0942165 -0.0707026 0)
(-0.0707774 -0.0784054 0)
(-0.0411865 -0.0713777 0)
(-0.0147473 -0.0547016 0)
(-0.00222128 -0.036887 0)
(0.00239089 -0.0447397 0)
(0.0260923 -0.0758976 0)
(0.063482 -0.0995873 0)
(0.0984172 -0.104439 0)
(0.123623 -0.0874529 0)
(0.135903 -0.057037 0)
(0.133674 -0.0272784 0)
(0.120099 -0.00810387 0)
(0.103785 0.0012967 0)
(0.0913427 0.00731647 0)
(0.0830165 0.0132622 0)
(0.0764164 0.0186735 0)
(0.0703123 0.0229811 0)
(0.0643991 0.026267 0)
(0.0585536 0.028697 0)
(0.0527536 0.0303493 0)
(0.0470392 0.0312805 0)
(0.041467 0.0315454 0)
(0.0361138 0.0312087 0)
(0.031058 0.0303523 0)
(0.0263554 0.0290644 0)
(0.0220522 0.0274345 0)
(0.0181693 0.0255551 0)
(0.0147161 0.0235167 0)
(0.011699 0.021402 0)
(0.00909256 0.0192799 0)
(0.00686546 0.017201 0)
(0.00497709 0.0152128 0)
(0.00338999 0.0133391 0)
(0.00205865 0.0116038 0)
(0.000925159 0.00999937 0)
(-2.84377e-05 0.00852442 0)
(-0.000842161 0.00715193 0)
(-0.00153152 0.00586716 0)
(-0.00206674 0.00464419 0)
(-0.00245809 0.00346404 0)
(-0.00264862 0.00235902 0)
(-0.00261351 0.00138226 0)
(-0.002379 0.00060261 0)
(-0.00195701 0.000114384 0)
(-0.00144812 -2.19748e-05 0)
(-0.000979268 0.000201121 0)
(-0.000628052 0.000742357 0)
(-0.000446086 0.0015162 0)
(-0.000433491 0.00246009 0)
(-0.000571859 0.00352838 0)
(-0.000851632 0.0047227 0)
(-0.00127968 0.00603236 0)
(-0.00185512 0.00746371 0)
(-0.00259126 0.00904159 0)
(-0.00353005 0.0107721 0)
(-0.00470177 0.0126605 0)
(-0.00615506 0.0147005 0)
(-0.00794396 0.0168936 0)
(-0.010116 0.0191926 0)
(-0.0127102 0.0215538 0)
(-0.0157638 0.0239016 0)
(-0.0192967 0.0261594 0)
(-0.0233112 0.028234 0)
(-0.0277949 0.0300376 0)
(-0.0327111 0.0314663 0)
(-0.0380112 0.0324196 0)
(-0.0436267 0.0327988 0)
(-0.0494769 0.0325215 0)
(-0.0554818 0.0315243 0)
(-0.0615628 0.0297614 0)
(-0.0676649 0.0271915 0)
(-0.0738094 0.0237219 0)
(-0.0801247 0.019168 0)
(-0.0870197 0.0135566 0)
(-0.0958814 0.00758335 0)
(-0.109099 0.00158727 0)
(-0.126048 -0.0081396 0)
(-0.139924 -0.0281517 0)
(-0.142401 -0.0591013 0)
(-0.130304 -0.0910444 0)
(-0.104668 -0.10961 0)
(-0.0681857 -0.10547 0)
(-0.0282925 -0.0808159 0)
(-0.0024139 -0.0468267 0)
(0.00516837 -0.0620233 0)
(0.0428426 -0.115267 0)
(0.0848616 -0.140842 0)
(0.118134 -0.137516 0)
(0.140273 -0.108315 0)
(0.1517 -0.0638104 0)
(0.151105 -0.01993 0)
(0.137869 0.00856849 0)
(0.11809 0.0189815 0)
(0.100988 0.0206424 0)
(0.089458 0.022412 0)
(0.0811416 0.0258872 0)
(0.0740279 0.0295867 0)
(0.0673048 0.0326699 0)
(0.0606842 0.034991 0)
(0.0541339 0.0365476 0)
(0.047698 0.037328 0)
(0.0414563 0.037359 0)
(0.0355178 0.0367125 0)
(0.0299726 0.0354765 0)
(0.0248789 0.0337529 0)
(0.0202818 0.0316566 0)
(0.0162014 0.0292981 0)
(0.0126454 0.0267825 0)
(0.00960794 0.0242017 0)
(0.0070506 0.0216502 0)
(0.00493168 0.0191842 0)
(0.00319771 0.0168525 0)
(0.00178823 0.0146968 0)
(0.000639278 0.0127342 0)
(-0.000317405 0.0109464 0)
(-0.00112783 0.0093357 0)
(-0.00182569 0.00783852 0)
(-0.00242784 0.00643001 0)
(-0.00293306 0.00506629 0)
(-0.00329289 0.00371873 0)
(-0.00343634 0.00242033 0)
(-0.0033164 0.00119352 0)
(-0.00289501 0.000181008 0)
(-0.00219902 -0.000464299 0)
(-0.00138173 -0.000624761 0)
(-0.000645619 -0.000297035 0)
(-0.000105788 0.000406657 0)
(0.000201719 0.00134969 0)
(0.000301883 0.00245494 0)
(0.000243912 0.0036798 0)
(6.20254e-05 0.00500455 0)
(-0.00024494 0.00643654 0)
(-0.000652906 0.00801599 0)
(-0.00119354 0.00976434 0)
(-0.00192523 0.0117033 0)
(-0.00288962 0.0138526 0)
(-0.00414832 0.0162154 0)
(-0.00577147 0.0187826 0)
(-0.00781989 0.0215194 0)
(-0.01035 0.0243646 0)
(-0.0134251 0.0272309 0)
(-0.0170784 0.0300257 0)
(-0.0213129 0.0326339 0)
(-0.0261216 0.0349524 0)
(-0.0314769 0.0368504 0)
(-0.0373236 0.0382107 0)
(-0.0435849 0.0389221 0)
(-0.0501579 0.0388829 0)
(-0.0569327 0.0380283 0)
(-0.06381 0.0363502 0)
(-0.0707153 0.0338549 0)
(-0.0777022 0.0305602 0)
(-0.0850704 0.0266796 0)
(-0.0936986 0.0231993 0)
(-0.105699 0.0215782 0)
(-0.123119 0.0197059 0)
(-0.142688 0.00852282 0)
(-0.155602 -0.0207369 0)
(-0.156332 -0.0655424 0)
(-0.145389 -0.111731 0)
(-0.123549 -0.143426 0)
(-0.0896883 -0.148878 0)
(-0.0458718 -0.123116 0)
(-0.00563103 -0.0653832 0)
(0.0121185 -0.0899365 0)
(0.0531195 -0.16057 0)
(0.0885937 -0.178261 0)
(0.112791 -0.162894 0)
(0.12828 -0.123102 0)
(0.137925 -0.0686411 0)
(0.140486 -0.014403 0)
(0.132889 0.0222742 0)
(0.118317 0.0359143 0)
(0.104067 0.0356029 0)
(0.0932278 0.0334417 0)
(0.0847244 0.0342721 0)
(0.0772145 0.0369751 0)
(0.0699604 0.039804 0)
(0.0626681 0.0420553 0)
(0.0553425 0.0435198 0)
(0.0481052 0.0441098 0)
(0.0411182 0.0438434 0)
(0.0345253 0.042795 0)
(0.0284307 0.0410725 0)
(0.0229078 0.0388057 0)
(0.018006 0.0361264 0)
(0.0137363 0.0331746 0)
(0.0100936 0.0300835 0)
(0.00707646 0.0269581 0)
(0.0046308 0.0238968 0)
(0.00268154 0.0209888 0)
(0.00116791 0.0182898 0)
(1.34853e-05 0.0158268 0)
(-0.000885621 0.0136387 0)
(-0.00160097 0.0117094 0)
(-0.00220243 0.0099849 0)
(-0.00276287 0.00842908 0)
(-0.00329438 0.00694986 0)
(-0.00378217 0.00547877 0)
(-0.00415895 0.00396579 0)
(-0.00431602 0.00239945 0)
(-0.00412741 0.000828058 0)
(-0.00350204 -0.000516739 0)
(-0.00248465 -0.00138316 0)
(-0.00129976 -0.00156102 0)
(-0.000256822 -0.00105872 0)
(0.000485872 -9.9897e-05 0)
(0.000903484 0.00110037 0)
(0.00106581 0.0023949 0)
(0.00105486 0.00374185 0)
(0.000944148 0.00515784 0)
(0.000782588 0.00668305 0)
(0.000574929 0.00836759 0)
(0.000273763 0.0102547 0)
(-0.000182655 0.0123865 0)
(-0.000863383 0.0148141 0)
(-0.00185223 0.017511 0)
(-0.00322871 0.0204872 0)
(-0.00507745 0.023723 0)
(-0.00748955 0.0271253 0)
(-0.0105411 0.0306103 0)
(-0.0142877 0.0340531 0)
(-0.0187406 0.0373189 0)
(-0.023899 0.0402743 0)
(-0.0297413 0.0427625 0)
(-0.0361995 0.0446439 0)
(-0.0431873 0.0457781 0)
(-0.0505788 0.0460467 0)
(-0.0582072 0.0453696 0)
(-0.0659066 0.0437485 0)
(-0.0735358 0.0412753 0)
(-0.0810622 0.0381863 0)
(-0.0887765 0.0353224 0)
(-0.0974326 0.0345007 0)
(-0.108308 0.0365812 0)
(-0.122153 0.0362045 0)
(-0.135705 0.0215569 0)
(-0.142378 -0.0153488 0)
(-0.139498 -0.0699139 0)
(-0.13003 -0.125631 0)
(-0.115165 -0.168164 0)
(-0.0915019 -0.186841 0)
(-0.0558103 -0.170454 0)
(-0.013277 -0.095197 0)
(0.0180545 -0.124568 0)
(0.050789 -0.197822 0)
(0.0740301 -0.20207 0)
(0.0876619 -0.176806 0)
(0.0965175 -0.131358 0)
(0.104463 -0.0722353 0)
(0.110361 -0.0129762 0)
(0.110615 0.0285719 0)
(0.106029 0.0455407 0)
(0.100013 0.0458848 0)
(0.093737 0.042604 0)
(0.0870508 0.0422964 0)
(0.079992 0.0445929 0)
(0.0724994 0.0474826 0)
(0.0645721 0.0498667 0)
(0.0563906 0.0513216 0)
(0.0482363 0.0517317 0)
(0.0403831 0.0511011 0)
(0.0330338 0.049524 0)
(0.0263272 0.0471676 0)
(0.0203369 0.0442142 0)
(0.0151139 0.0408347 0)
(0.0106754 0.0371761 0)
(0.00699905 0.0333886 0)
(0.00405085 0.029614 0)
(0.00178064 0.0259633 0)
(0.000104088 0.0225288 0)
(-0.00110171 0.0194187 0)
(-0.00191588 0.0166541 0)
(-0.00244124 0.0142549 0)
(-0.00283057 0.0122157 0)
(-0.00316289 0.0104413 0)
(-0.00352125 0.00888844 0)
(-0.00397287 0.00742775 0)
(-0.00447008 0.00592214 0)
(-0.00489635 0.00424446 0)
(-0.00508976 0.00236762 0)
(-0.00484103 0.000351343 0)
(-0.00403481 -0.00146837 0)
(-0.00277792 -0.00265928 0)
(-0.00132379 -0.00285635 0)
(-3.57653e-05 -0.00209028 0)
(0.000902802 -0.000763058 0)
(0.00143401 0.000771305 0)
(0.00163147 0.00230048 0)
(0.00166299 0.00375601 0)
(0.00165356 0.00521691 0)
(0.00165268 0.00675604 0)
(0.00168573 0.00845507 0)
(0.00170118 0.0104433 0)
(0.00162616 0.0127526 0)
(0.00132758 0.0154274 0)
(0.000697008 0.0184779 0)
(-0.000319793 0.0219033 0)
(-0.00187667 0.0257217 0)
(-0.00408912 0.0297644 0)
(-0.00705214 0.0339802 0)
(-0.0108554 0.0382039 0)
(-0.0155129 0.0422817 0)
(-0.0210366 0.0460219 0)
(-0.0274078 0.0492623 0)
(-0.0345554 0.0518047 0)
(-0.0423782 0.0534737 0)
(-0.0507131 0.0541117 0)
(-0.0593337 0.0535992 0)
(-0.0679517 0.0519235 0)
(-0.0762689 0.0492375 0)
(-0.084051 0.0460037 0)
(-0.0912575 0.043435 0)
(-0.0978921 0.043582 0)
(-0.103876 0.0464445 0)
(-0.109243 0.0449554 0)
(-0.112601 0.0266685 0)
(-0.110894 -0.0149213 0)
(-0.103975 -0.0737939 0)
(-0.0954866 -0.133351 0)
(-0.0868406 -0.180855 0)
(-0.0741824 -0.209477 0)
(-0.0519938 -0.207926 0)
(-0.0192678 -0.131513 0)
(0.0181621 -0.156689 0)
(0.0397031 -0.221025 0)
(0.0528718 -0.213678 0)
(0.0591527 -0.182931 0)
(0.0630103 -0.135822 0)
(0.0691222 -0.0764517 0)
(0.0777253 -0.0171537 0)
(0.0857547 0.0258067 0)
(0.0915094 0.0454453 0)
(0.0943709 0.0486937 0)
(0.0935851 0.0476315 0)
(0.089484 0.0486961 0)
(0.0832042 0.0519535 0)
(0.0755079 0.0556006 0)
(0.0668273 0.0584829 0)
(0.0576178 0.0601145 0)
(0.0483627 0.0603551 0)
(0.0394561 0.0592454 0)
(0.0312132 0.0569859 0)
(0.0238209 0.0538356 0)
(0.0173498 0.0500292 0)
(0.0118124 0.0457807 0)
(0.00719448 0.0412592 0)
(0.00349297 0.0366419 0)
(0.000677184 0.0320907 0)
(-0.00134801 0.0277393 0)
(-0.00265468 0.0237406 0)
(-0.0033907 0.0201534 0)
(-0.00372433 0.0170762 0)
(-0.00377887 0.0144793 0)
(-0.00373456 0.0123504 0)
(-0.00370673 0.0106294 0)
(-0.00379965 0.00918796 0)
(-0.00410213 0.00784218 0)
(-0.00456179 0.0063725 0)
(-0.00499124 0.00456663 0)
(-0.00520455 0.00233162 0)
(-0.00500517 -0.000173518 0)
(-0.00426405 -0.00252402 0)
(-0.00307622 -0.00407569 0)
(-0.00166398 -0.00431485 0)
(-0.000388661 -0.00328446 0)
(0.000584637 -0.00155224 0)
(0.0012075 0.000345016 0)
(0.0015095 0.00212751 0)
(0.00165915 0.00370554 0)
(0.00180159 0.00513616 0)
(0.00200884 0.0065886 0)
(0.00237075 0.00822579 0)
(0.00280745 0.0102353 0)
(0.00317124 0.0126798 0)
(0.00335383 0.0155889 0)
(0.00322286 0.0190142 0)
(0.00270885 0.0229591 0)
(0.00155946 0.0273784 0)
(-0.000377392 0.0321811 0)
(-0.00317082 0.0372987 0)
(-0.0069803 0.042481 0)
(-0.0118393 0.0475276 0)
(-0.0177467 0.052227 0)
(-0.0246889 0.0563834 0)
(-0.0326138 0.0597732 0)
(-0.0413971 0.0621383 0)
(-0.0508556 0.063243 0)
(-0.0606767 0.0628752 0)
(-0.0704156 0.0609878 0)
(-0.0795616 0.0577078 0)
(-0.0876042 0.0535685 0)
(-0.0940084 0.0498089 0)
(-0.0979411 0.0482799 0)
(-0.0982465 0.0486389 0)
(-0.094706 0.0439745 0)
(-0.0880536 0.0227286 0)
(-0.0787404 -0.0207806 0)
(-0.0687291 -0.079403 0)
(-0.0614389 -0.13847 0)
(-0.0570421 -0.186515 0)
(-0.0512489 -0.219659 0)
(-0.0392304 -0.23006 0)
(-0.0187683 -0.16437 0)
(0.0148537 -0.181578 0)
(0.0287108 -0.234043 0)
(0.037005 -0.21951 0)
(0.0402533 -0.18547 0)
(0.0417957 -0.138476 0)
(0.0469888 -0.0821406 0)
(0.0579355 -0.0268287 0)
(0.0717374 0.01445 0)
(0.0847255 0.0363722 0)
(0.0935896 0.0446288 0)
(0.096532 0.0486821 0)
(0.0942593 0.0534393 0)
(0.0884326 0.0590768 0)
(0.0802418 0.0643086 0)
(0.0705084 0.0681567 0)
(0.0599454 0.0701499 0)
(0.0492475 0.0701883 0)
(0.0390374 0.0684541 0)
(0.0297538 0.0653034 0)
(0.021576 0.061147 0)
(0.0145357 0.0562954 0)
(0.00862043 0.0509867 0)
(0.00381211 0.0454061 0)
(0.000105306 0.0397821 0)
(-0.00255057 0.0343118 0)
(-0.00419838 0.0291138 0)
(-0.00499532 0.0244804 0)
(-0.00514538 0.0203943 0)
(-0.00484076 0.0169537 0)
(-0.00430051 0.0141678 0)
(-0.00369947 0.0120216 0)
(-0.00320263 0.010444 0)
(-0.00295968 0.00923963 0)
(-0.00303209 0.00812175 0)
(-0.00335108 0.00677235 0)
(-0.00375628 0.00489588 0)
(-0.00408062 0.00237951 0)
(-0.00418287 -0.000518181 0)
(-0.00394297 -0.00328802 0)
(-0.00332805 -0.00514888 0)
(-0.00243963 -0.00548317 0)
(-0.00158331 -0.00430172 0)
(-0.000893104 -0.00231589 0)
(-0.000364405 -0.000160886 0)
(3.34673e-05 0.00180388 0)
(0.000364502 0.00343692 0)
(0.000743885 0.0048096 0)
(0.00126774 0.00610209 0)
(0.0020261 0.00760947 0)
(0.00293721 0.00954468 0)
(0.00383851 0.0120579 0)
(0.00460978 0.0152212 0)
(0.00512714 0.0190327 0)
(0.00522757 0.0235115 0)
(0.00463959 0.028596 0)
(0.00320609 0.0343124 0)
(0.000673497 0.0404776 0)
(-0.003166 0.0468713 0)
(-0.0082691 0.0530897 0)
(-0.014624 0.0589517 0)
(-0.0222109 0.0642348 0)
(-0.0310145 0.0686954 0)
(-0.0409435 0.0719797 0)
(-0.0517913 0.0736969 0)
(-0.0631363 0.0735127 0)
(-0.0743563 0.0712293 0)
(-0.084713 0.0668709 0)
(-0.0933949 0.0609389 0)
(-0.0994611 0.0545223 0)
(-0.101564 0.0489503 0)
(-0.0980661 0.0439251 0)
(-0.088391 0.0341654 0)
(-0.0746473 0.01043 0)
(-0.0600338 -0.031849 0)
(-0.0478237 -0.0867255 0)
(-0.0412838 -0.142406 0)
(-0.0385439 -0.189546 0)
(-0.03488 -0.224994 0)
(-0.0271223 -0.241861 0)
(-0.0147708 -0.188957 0)
(0.0120909 -0.20069 0)
(0.0234729 -0.243881 0)
(0.0313703 -0.224831 0)
(0.035743 -0.18843 0)
(0.0393206 -0.14244 0)
(0.0462917 -0.0911355 0)
(0.0592649 -0.0415352 0)
(0.0758922 -0.00258236 0)
(0.0915213 0.0223189 0)
(0.101919 0.0371351 0)
(0.105474 0.0478252 0)
(0.103124 0.0575294 0)
(0.0965673 0.0664926 0)
(0.0871278 0.0740245 0)
(0.0757535 0.0792638 0)
(0.0633423 0.0817604 0)
(0.0508315 0.081526 0)
(0.0390347 0.078928 0)