/*--------------------------------*- C++ -*----------------------------------*\
| =========                 |                                                 |
| \\      /  F ield         | OpenFOAM: The Open Source CFD Toolbox           |
|  \\    /   O peration     | Version:  2412                                  |
|   \\  /    A nd           | Website:  www.openfoam.com                      |
|    \\/     M anipulation  |                                                 |
\*---------------------------------------------------------------------------*/
FoamFile
{
    version     2.0;
    format      ascii;
    arch        "LSB;label=32;scalar=64";
    class       surfaceScalarField;
    location    "7.22";
    object      alphaPhi0.water;
}
// * * * * * * * * * * * * * * * * * * * * * * * * * * * * * * * * * * * * * //

dimensions      [0 3 -1 0 0 0 0];

oriented        oriented;

internalField   nonuniform List<scalar> 
158920
(
-2.11082e-05
2.11069e-05
-4.1109e-05
1.9994e-05
-6.08796e-05
1.97653e-05
-7.98184e-05
1.89353e-05
-9.86949e-05
1.88745e-05
-0.000117623
1.89271e-05
-0.000136551
1.89272e-05
-0.000155452
1.89007e-05
-0.000174289
1.88359e-05
-0.00019309
1.8801e-05
-0.000211836
1.87469e-05
-0.000230506
1.86703e-05
-0.000249094
1.85881e-05
-0.000267596
1.85021e-05
-0.000286006
1.84109e-05
-0.000304307
1.83003e-05
-0.000322483
1.81765e-05
-0.00034053
1.80471e-05
-0.000358435
1.79049e-05
-0.000376188
1.77528e-05
-0.000393781
1.75921e-05
-0.000411201
1.74201e-05
-0.000428441
1.72399e-05
-0.000445491
1.70498e-05
-0.000462342
1.68506e-05
-0.000478984
1.66426e-05
-0.000495409
1.64246e-05
-0.000511608
1.6198e-05
-0.000527572
1.59638e-05
-0.000543293
1.57213e-05
-0.000558763
1.54698e-05
-0.000573975
1.52108e-05
-0.000588918
1.49431e-05
-0.000603586
1.46675e-05
-0.00061797
1.43837e-05
-0.000632062
1.40918e-05
-0.000645855
1.37919e-05
-0.000659339
1.34838e-05
-0.000672507
1.31677e-05
-0.000685352
1.28438e-05
-0.000697865
1.25121e-05
-0.000710038
1.21728e-05
-0.000721865
1.18257e-05
-0.000733336
1.14711e-05
-0.000744446
1.11089e-05
-0.000755186
1.07392e-05
-0.000765549
1.03623e-05
-0.000775527
9.97809e-06
-0.000785115
9.58674e-06
-0.000794304
9.18823e-06
-0.000803087
8.78263e-06
-0.000811458
8.37008e-06
-0.000819409
7.95077e-06
-0.000826935
7.52486e-06
-0.000834028
7.09249e-06
-0.000840683
6.65376e-06
-0.000846892
6.20873e-06
-0.00085265
5.75748e-06
-0.000857951
5.30013e-06
-0.000862789
4.83686e-06
-0.000867157
4.36784e-06
-0.000871051
3.89325e-06
-0.000874464
3.4132e-06
-0.000877393
2.92781e-06
-0.00087983
2.43715e-06
-0.000881772
1.94138e-06
-0.000883213
1.44069e-06
-0.000884149
9.3543e-07
-0.000884576
4.25938e-07
-0.000884486
-9.04526e-08
-0.000883867
-6.18889e-07
-0.000882733
-1.13497e-06
-0.000881064
-1.6686e-06
-0.000878873
-2.19144e-06
-0.000876138
-2.73596e-06
-0.000872869
-3.26927e-06
-0.000869059
-3.80937e-06
-0.000864704
-4.35582e-06
-0.000859795
-4.90872e-06
-0.000854334
-5.46126e-06
-0.000848319
-6.01497e-06
-0.000841747
-6.57174e-06
-0.000834616
-7.13104e-06
-0.000826923
-7.69255e-06
-0.000818667
-8.25604e-06
-0.000809845
-8.82176e-06
-0.000800458
-9.38751e-06
-0.000790503
-9.95455e-06
-0.000779979
-1.05242e-05
-0.000768883
-1.10955e-05
-0.000757214
-1.16687e-05
-0.000744972
-1.22428e-05
-0.000732158
-1.28132e-05
-0.000718772
-1.33858e-05
-0.000704813
-1.39593e-05
-0.000690278
-1.45347e-05
-0.000675171
-1.51063e-05
-0.000659493
-1.56772e-05
-0.000643245
-1.62483e-05
-0.000626424
-1.68206e-05
-0.000609033
-1.73904e-05
-0.000591076
-1.79567e-05
-0.000572553
-1.85227e-05
-0.000553465
-1.90877e-05
-0.000533814
-1.96516e-05
-0.0005136
-2.02131e-05
-0.00049283
-2.07704e-05
-0.000471504
-2.13258e-05
-0.000449624
-2.18795e-05
-0.000427194
-2.243e-05
-0.000404217
-2.29775e-05
-0.000380695
-2.35219e-05
-0.000356633
-2.40621e-05
-0.000332034
-2.45988e-05
-0.000306902
-2.51319e-05
-0.000281242
-2.56606e-05
-0.000255057
-2.6185e-05
-0.000228352
-2.67048e-05
-0.000201133
-2.72198e-05
-0.000173404
-2.77294e-05
-0.00014517
-2.82335e-05
-0.000116439
-2.8732e-05
-8.72142e-05
-2.92248e-05
-5.75e-05
-2.97146e-05
-2.73006e-05
-3.01997e-05
3.37666e-06
-3.06777e-05
3.4525e-05
-3.11488e-05
6.61379e-05
-3.16133e-05
9.82078e-05
-3.20703e-05
0.00013073
-3.25222e-05
0.000163703
-3.29733e-05
0.000197107
-3.3405e-05
0.000230926
-3.38191e-05
0.00026519
-3.42641e-05
0.000299856
-3.46657e-05
0.00033492
-3.50648e-05
0.000370381
-3.5461e-05
0.000406227
-3.58458e-05
0.00044245
-3.62236e-05
0.000479041
-3.65902e-05
0.00051599
-3.69494e-05
0.000553289
-3.72987e-05
0.000590925
-3.76361e-05
0.000628893
-3.79675e-05
0.000667177
-3.82837e-05
0.000705771
-3.85943e-05
0.000744663
-3.88908e-05
0.000783843
-3.91794e-05
0.000823298
-3.94543e-05
0.000863016
-3.97178e-05
0.000902988
-3.99704e-05
0.000943198
-4.02094e-05
0.000983642
-4.04426e-05
0.0010243
-4.06576e-05
0.00106516
-4.08608e-05
0.00110622
-4.1054e-05
0.00114745
-4.12314e-05
0.00118884
-4.13932e-05
0.0012304
-4.15545e-05
0.00127209
-4.16899e-05
0.0013139
-4.18144e-05
0.00135583
-4.19236e-05
0.00139785
-4.20226e-05
0.00143996
-4.21042e-05
0.00148213
-4.21712e-05
0.00152435
-4.22234e-05
0.00156661
-4.226e-05
0.0016089
-4.22847e-05
0.00165119
-4.22898e-05
0.00169347
-4.22789e-05
0.00173572
-4.22534e-05
0.00177793
-4.22097e-05
0.00182008
-4.21504e-05
0.00186215
-4.20747e-05
0.00190413
-4.19809e-05
0.001946
-4.18684e-05
0.00198774
-4.17422e-05
0.00202934
-4.1598e-05
0.00207077
-4.14326e-05
0.00211202
-4.12459e-05
0.00215306
-4.10424e-05
0.00219389
-4.08316e-05
0.00223448
-4.05877e-05
0.0022748
-4.03254e-05
0.00231484
-4.00454e-05
0.00235459
-3.97458e-05
0.00239401
-3.94251e-05
0.0024331
-3.90832e-05
0.00247182
-3.87215e-05
0.00251015
-3.83373e-05
0.00254808
-3.79314e-05
0.00258559
-3.75054e-05
0.00262264
-3.70572e-05
0.00265923
-3.65855e-05
0.00269532
-3.60916e-05
0.00273089
-3.55743e-05
0.00276593
-3.50342e-05
0.00280039
-3.44702e-05
0.00283428
-3.38847e-05
0.00286755
-3.32733e-05
0.00290018
-3.26357e-05
0.00293216
-3.19759e-05
0.00296345
-3.1294e-05
0.00299403
-3.05824e-05
0.00302388
-2.98462e-05
0.00305296
-2.90851e-05
0.00308126
-2.82992e-05
0.00310875
-2.74857e-05
0.0031354
-2.66464e-05
0.00316118
-2.57829e-05
0.00318607
-2.48896e-05
0.00321004
-2.39704e-05
0.00323306
-2.30247e-05
0.00325512
-2.20536e-05
0.00327617
-2.10519e-05
0.00329619
-2.00257e-05
0.00331517
-1.89733e-05
0.00333305
-1.78891e-05
0.00334983
-1.67781e-05
0.00336547
-1.56419e-05
0.00337995
-1.4476e-05
0.00339323
-1.32846e-05
0.00340529
-1.20598e-05
0.0034161
-1.08173e-05
0.00342564
-9.53749e-06
0.00343388
-8.23681e-06
0.00344079
-6.91159e-06
0.00344634
-5.55387e-06
0.00345051
-4.1691e-06
0.00345328
-2.76337e-06
0.00345461
-1.33389e-06
0.00345448
1.34323e-07
0.00345283
1.64869e-06
0.00344967
3.15869e-06
0.003445
4.66818e-06
0.00343877
6.22678e-06
0.00343096
7.81257e-06
0.00342156
9.39615e-06
0.00341052
1.10359e-05
0.00339787
1.2655e-05
0.00338355
1.4316e-05
0.00336755
1.59981e-05
0.00334988
1.76744e-05
0.00333049
1.9391e-05
0.00330939
2.10944e-05
0.00328657
2.28203e-05
0.00326201
2.45605e-05
0.00323572
2.62927e-05
0.00320767
2.80426e-05
0.00317789
2.97788e-05
0.00314636
3.15316e-05
0.00311307
3.32798e-05
0.00307806
3.50146e-05
0.0030413
3.67545e-05
0.00300284
3.84655e-05
0.00296266
4.01752e-05
0.00292079
4.18739e-05
0.00287725
4.35404e-05
0.00283206
4.51929e-05
0.00278524
4.68179e-05
0.00273685
4.83975e-05
0.00268689
4.99597e-05
0.00263539
5.14916e-05
0.00258242
5.29655e-05
0.00252802
5.43988e-05
0.00247223
5.57891e-05
0.0024151
5.71274e-05
0.00235669
5.84067e-05
0.00229705
5.96322e-05
0.00223625
6.07994e-05
0.00217435
6.18964e-05
0.00211144
6.29159e-05
0.00204757
6.38683e-05
0.00198281
6.47555e-05
0.00191725
6.55622e-05
0.00185097
6.62824e-05
0.00178406
6.69098e-05
0.0017166
6.74606e-05
0.00164868
6.79215e-05
0.00158037
6.83057e-05
0.00151178
6.85828e-05
0.00144303
6.87568e-05
0.00137416
6.88599e-05
0.0013053
6.8863e-05
0.00123651
6.87799e-05
0.00116792
6.85879e-05
0.00109962
6.83007e-05
0.0010317
6.79203e-05
0.000964235
6.74594e-05
0.000897318
6.69137e-05
0.000831053
6.62622e-05
0.000765542
6.55093e-05
0.000700872
6.46657e-05
0.00063711
6.37581e-05
0.000574323
6.27841e-05
0.000512602
6.17172e-05
0.000452058
6.05426e-05
0.000392751
5.93046e-05
0.000334745
5.80039e-05
0.000278092
5.66507e-05
0.000222841
5.52498e-05
0.000169086
5.37561e-05
0.000116905
5.21803e-05
6.63315e-05
5.0572e-05
1.73928e-05
4.89362e-05
-2.98313e-05
4.72229e-05
-7.54435e-05
4.56141e-05
-0.000119269
4.38297e-05
-0.000161261
4.19947e-05
-0.000201409
4.01468e-05
-0.000239565
3.81515e-05
-0.000275894
3.63277e-05
-0.0003103
3.44101e-05
-0.000342739
3.24463e-05
-0.000373216
3.0479e-05
-0.000401714
2.84933e-05
-0.000428248
2.65254e-05
-0.000452822
2.45713e-05
-0.000475404
2.25873e-05
-0.00049596
2.05624e-05
-0.000514522
1.85614e-05
-0.000531137
1.66068e-05
-0.000545722
1.45784e-05
-0.000558369
1.26454e-05
-0.00056908
1.07197e-05
-0.000577746
8.67279e-06
-0.000584467
6.71814e-06
-0.000589262
4.78167e-06
-0.000592113
2.83651e-06
-0.000592993
8.74192e-07
-0.000591932
-1.05588e-06
-0.00058895
-2.97379e-06
-0.000584075
-4.87637e-06
-0.0005773
-6.78526e-06
-0.000568612
-8.70159e-06
-0.000558001
-1.06205e-05
-0.000545459
-1.25414e-05
-0.000531075
-1.43772e-05
-0.000514889
-1.61829e-05
-0.00049683
-1.80575e-05
-0.000476872
-1.99558e-05
-0.000455085
-2.17827e-05
-0.000431491
-2.35922e-05
-0.000406128
-2.53692e-05
-0.000379011
-2.71294e-05
-0.000350166
-2.88577e-05
-0.0003196
-3.05701e-05
-0.000287287
-3.23049e-05
-0.000253304
-3.3971e-05
-0.000217746
-3.5551e-05
-0.000180698
-3.70547e-05
-0.000142158
-3.85553e-05
-0.000102089
-4.0086e-05
-6.05342e-05
-4.15627e-05
-1.76236e-05
-4.29068e-05
2.65866e-05
-4.42e-05
7.20495e-05
-4.54555e-05
0.000118686
-4.66383e-05
0.000166412
-4.77332e-05
0.000215235
-4.88306e-05
0.000265038
-4.98044e-05
0.000315671
-5.06291e-05
0.000367042
-5.13669e-05
0.000419077
-5.20358e-05
0.000471764
-5.269e-05
0.00052501
-5.32492e-05
0.000578659
-5.36487e-05
0.000632568
-5.3906e-05
0.000686702
-5.41337e-05
0.000741014
-5.43123e-05
0.000795356
-5.43419e-05
0.000849599
-5.42375e-05
0.000903695
-5.40921e-05
0.000957445
-5.37445e-05
0.00101087
-5.34219e-05
0.00106391
-5.30528e-05
0.00111647
-5.25664e-05
0.00116838
-5.19109e-05
0.00121951
-5.11268e-05
0.00126976
-5.02447e-05
0.00131917
-4.94114e-05
0.00136764
-4.84792e-05
0.00141502
-4.73896e-05
0.00146118
-4.61676e-05
0.00150611
-4.49319e-05
0.00154973
-4.36199e-05
0.00159197
-4.22279e-05
0.00163268
-4.07038e-05
0.00167181
-3.91245e-05
0.00170928
-3.74852e-05
0.00174506
-3.57827e-05
0.00177899
-3.39433e-05
0.00181099
-3.20073e-05
0.00184102
-3.00239e-05
0.00186909
-2.80811e-05
0.00189507
-2.59759e-05
0.00191889
-2.38236e-05
0.00194049
-2.16048e-05
0.00195978
-1.92873e-05
0.00197673
-1.6954e-05
0.00199133
-1.45979e-05
0.00200359
-1.22515e-05
0.00201332
-9.73283e-06
0.0020205
-7.18049e-06
0.00202515
-4.64894e-06
0.00202722
-2.07139e-06
0.00202675
4.70799e-07
0.00202362
3.12684e-06
0.00201786
5.75968e-06
0.00200948
8.37767e-06
0.00199856
1.0911e-05
0.00198503
1.35349e-05
0.00196887
1.61612e-05
0.00195016
1.8708e-05
0.00192896
2.11998e-05
0.00190527
2.36884e-05
0.00187911
2.61625e-05
0.00185061
2.84972e-05
0.00181977
3.08386e-05
0.00178661
3.31573e-05
0.00175126
3.53549e-05
0.00171371
3.75488e-05
0.00167413
3.9577e-05
0.00163257
4.1556e-05
0.00158904
4.35273e-05
0.00154369
4.5345e-05
0.00149656
4.71353e-05
0.00144784
4.87109e-05
0.00139764
5.02089e-05
0.00134596
5.1684e-05
0.00129298
5.29772e-05
0.0012387
5.42833e-05
0.00118335
5.53481e-05
0.00112699
5.63565e-05
0.00106976
5.72283e-05
0.00101181
5.79557e-05
0.000953133
5.86734e-05
0.000893959
5.91728e-05
0.000834292
5.96647e-05
0.000774405
5.98857e-05
0.000714345
6.00568e-05
0.000654265
6.00784e-05
0.000594309
5.9955e-05
0.000534655
5.96528e-05
0.000475323
5.93314e-05
0.000416509
5.88135e-05
0.000358224
5.82847e-05
0.000300739
5.74843e-05
0.000244134
5.66039e-05
0.000188598
5.55359e-05
0.000134278
5.43197e-05
8.12029e-05
5.30756e-05
2.95494e-05
5.16534e-05
-2.05856e-05
5.01348e-05
-6.90997e-05
4.85141e-05
-0.000115886
4.67865e-05
-0.00016077
4.48839e-05
-0.000203529
4.27585e-05
-0.000244256
4.0726e-05
-0.000282774
3.8518e-05
-0.000318877
3.61023e-05
-0.000352602
3.37247e-05
-0.00038388
3.12786e-05
-0.000412653
2.87718e-05
-0.000438741
2.60868e-05
-0.000462154
2.34123e-05
-0.000482839
2.06843e-05
-0.000500859
1.80199e-05
-0.000516117
1.52584e-05
-0.000528611
1.24944e-05
-0.000538353
9.7415e-06
-0.000545321
6.96707e-06
-0.000549503
4.18045e-06
-0.000551019
1.51599e-06
-0.000549947
-1.07254e-06
-0.000546302
-3.64501e-06
-0.000540171
-6.13133e-06
-0.000531641
-8.53097e-06
-0.000520768
-1.08743e-05
-0.000507682
-1.30863e-05
-0.000492535
-1.51465e-05
-0.000475432
-1.71011e-05
-0.000456458
-1.89735e-05
-0.000435779
-2.06788e-05
-0.000413522
-2.22578e-05
-0.000389816
-2.37048e-05
-0.00036496
-2.48535e-05
-0.000339023
-2.5934e-05
-0.000312052
-2.69689e-05
-0.000284363
-2.76883e-05
-0.00025599
-2.83717e-05
-0.000227164
-2.88247e-05
-0.000198012
-2.91498e-05
-0.000168716
-2.92923e-05
-0.000139399
-2.93152e-05
-0.000110261
-2.91361e-05
-8.14157e-05
-2.88446e-05
-5.2956e-05
-2.84595e-05
-2.50801e-05
-2.78753e-05
2.15559e-06
-2.72344e-05
2.84894e-05
-2.63323e-05
5.38847e-05
-2.53943e-05
7.84235e-05
-2.45391e-05
0.000101792
-2.337e-05
0.000123938
-2.21492e-05
0.000144808
-2.08729e-05
0.000164484
-1.96783e-05
0.000182784
-1.83011e-05
0.000199756
-1.69733e-05
0.00021533
-1.55758e-05
0.000229375
-1.40462e-05
0.000242089
-1.27168e-05
0.000253343
-1.12556e-05
0.000263285
-9.9439e-06
0.000271784
-8.49926e-06
0.000278956
-7.17235e-06
0.00028488
-5.9248e-06
0.000289585
-4.70588e-06
0.000293256
-3.67136e-06
0.00029585
-2.59443e-06
0.000297501
-1.65085e-06
0.000298314
-8.11295e-07
0.000298383
-6.81282e-08
0.000297763
6.20084e-07
0.000296645
1.11735e-06
0.000295114
1.5315e-06
0.000293148
1.96669e-06
0.00029104
2.10926e-06
0.000288688
2.35139e-06
0.000286317
2.37067e-06
0.00028391
2.40666e-06
0.000281553
2.35645e-06
0.000279346
2.20753e-06
0.000277235
2.11185e-06
0.000275379
1.85607e-06
0.000273668
1.71058e-06
0.000272138
1.52954e-06
0.000270815
1.3215e-06
0.00026965
1.16532e-06
0.000268657
9.9222e-07
0.000267887
7.69677e-07
0.000267297
5.89331e-07
0.000266998
2.98585e-07
0.000266884
1.13872e-07
0.000267048
-1.63616e-07
0.000267361
-3.14011e-07
0.000267844
-4.84231e-07
0.000268391
-5.47813e-07
0.00026914
-7.50675e-07
0.000270051
-9.11158e-07
0.000271084
-1.03413e-06
0.000272182
-1.09806e-06
0.000273306
-1.12421e-06
0.0002744
-1.09487e-06
0.000275302
-9.03953e-07
0.00027593
-6.28855e-07
0.000276218
-2.88691e-07
0.000276271
-5.3995e-08
0.000276159
1.11029e-07
0.000275761
3.97902e-07
0.000275013
7.48323e-07
0.000273817
1.19609e-06
0.000272015
1.80117e-06
0.000269692
2.32339e-06
0.000266781
2.91094e-06
0.000263224
3.55658e-06
0.000258961
4.26286e-06
0.000254082
4.87961e-06
0.000248477
5.60461e-06
0.000242042
6.43613e-06
0.00023476
7.28216e-06
0.000226587
8.17338e-06
0.000217374
9.21294e-06
0.000207161
1.02138e-05
0.000195943
1.12181e-05
0.000183435
1.25081e-05
0.000169463
1.39724e-05
0.000153243
1.62204e-05
0.000135621
1.7622e-05
0.000114819
2.08023e-05
9.07011e-05
2.41179e-05
7.81173e-05
1.25841e-05
8.36735e-05
-5.55595e-06
7.97244e-05
3.94926e-06
6.06275e-05
1.9097e-05
3.54855e-05
2.51422e-05
2.04613e-05
1.50245e-05
2.51493e-05
-4.68769e-06
2.06393e-05
4.51036e-06
-2.90165e-06
2.35413e-05
-2.8024e-05
2.51227e-05
-4.99525e-05
2.19288e-05
-7.03981e-05
2.04458e-05
-8.91895e-05
1.87917e-05
-0.000106712
1.7523e-05
-0.000123167
1.64546e-05
-0.000138695
1.55284e-05
-0.000153461
1.47663e-05
-0.000167519
1.40576e-05
-0.000180931
1.34117e-05
-0.000193722
1.27914e-05
-0.0002058
1.20783e-05
-0.000217139
1.1338e-05
-0.00022777
1.06313e-05
-0.000237524
9.75407e-06
-0.000246656
9.13292e-06
-0.000254979
8.32234e-06
-0.000262451
7.47229e-06
-0.000269147
6.69604e-06
-0.000274994
5.84734e-06
-0.000280111
5.11701e-06
-0.000284537
4.42558e-06
-0.000288244
3.70745e-06
-0.000291298
3.05401e-06
-0.000293622
2.32401e-06
-0.000295337
1.71434e-06
-0.000296604
1.26755e-06
-0.000297445
8.40723e-07
-0.000297888
4.42072e-07
-0.000297902
1.43276e-08
-0.000297452
-4.49477e-07
-0.00029671
-7.43341e-07
-0.000295771
-9.38829e-07
-0.000294844
-9.27127e-07
-0.000293698
-1.14662e-06
-0.000292301
-1.39637e-06
-0.000290697
-1.6045e-06
-0.000289035
-1.66158e-06
-0.000287326
-1.70973e-06
-0.000285538
-1.7882e-06
-0.000283747
-1.79168e-06
-0.000281867
-1.88017e-06
-0.000280068
-1.79886e-06
-0.000278309
-1.75883e-06
-0.00027661
-1.69836e-06
-0.000274969
-1.64149e-06
-0.000273433
-1.53547e-06
-0.000271866
-1.56752e-06
-0.000270616
-1.24933e-06
-0.000269492
-1.12371e-06
-0.000268086
-1.40636e-06
-0.000266566
-1.52052e-06
-0.00026467
-1.89658e-06
-0.000262379
-2.29108e-06
-0.000259686
-2.69303e-06
-0.000256472
-3.21418e-06
-0.000252643
-3.82926e-06
-0.000248069
-4.57422e-06
-0.000242796
-5.27378e-06
-0.000236464
-6.33178e-06
-0.000229093
-7.37209e-06
-0.000220626
-8.46648e-06
-0.000211189
-9.43775e-06
-0.000200562
-1.06276e-05
-0.000188721
-1.18396e-05
-0.000175643
-1.30802e-05
-0.000161019
-1.46241e-05
-0.000144856
-1.61639e-05
-0.000127428
-1.74288e-05
-0.000108733
-1.86946e-05
-8.89472e-05
-1.97864e-05
-6.80916e-05
-2.08558e-05
-4.57944e-05
-2.22977e-05
-2.19929e-05
-2.38021e-05
2.93294e-06
-2.49265e-05
2.89369e-05
-2.60046e-05
5.57302e-05
-2.67939e-05
8.31727e-05
-2.74432e-05
0.000111254
-2.80815e-05
0.000140023
-2.87694e-05
0.000169122
-2.90986e-05
0.000198542
-2.94201e-05
0.000227782
-2.92402e-05
0.000256822
-2.90406e-05
0.000285406
-2.85847e-05
0.00031328
-2.78741e-05
0.000340585
-2.73032e-05
0.00036682
-2.62354e-05
0.000391631
-2.48105e-05
0.000414778
-2.31472e-05
0.000436182
-2.14038e-05
0.000455452
-1.92711e-05
0.000472418
-1.69653e-05
0.00048698
-1.45599e-05
0.000498915
-1.19344e-05
0.00050793
-9.01467e-06
0.000513861
-5.93135e-06
0.000516725
-2.86363e-06
0.000515839
8.85828e-07
0.000511545
4.29312e-06
0.000503464
8.07986e-06
0.000491597
1.1869e-05
0.000476182
1.54191e-05
0.000457066
1.91171e-05
0.000434024
2.30426e-05
0.000407126
2.68964e-05
0.000376384
3.07426e-05
0.000341765
3.46202e-05
0.000303758
3.80099e-05
0.00026227
4.14889e-05
0.000217402
4.48684e-05
0.000169169
4.82343e-05
0.000117659
5.151e-05
6.3364e-05
5.42951e-05
6.38679e-06
5.69783e-05
-5.31822e-05
5.95705e-05
-0.000114664
6.14819e-05
-0.00017811
6.34465e-05
-0.000243574
6.54637e-05
-0.000310715
6.71409e-05
-0.000379168
6.84544e-05
-0.000448635
6.94692e-05
-0.000518994
7.03595e-05
-0.00058986
7.08658e-05
-0.000661124
7.1265e-05
-0.000732517
7.1395e-05
-0.000803759
7.12447e-05
-0.00087461
7.08525e-05
-0.000944718
7.01076e-05
-0.00101383
6.91155e-05
-0.00108179
6.79625e-05
-0.00114859
6.68028e-05
-0.00121401
6.54315e-05
-0.00127775
6.37396e-05
-0.00133949
6.17347e-05
-0.00139918
5.96821e-05
-0.00145654
5.73625e-05
-0.00151157
5.50296e-05
-0.00156409
5.25155e-05
-0.00161405
4.99569e-05
-0.00166132
4.72773e-05
-0.00170568
4.43623e-05
-0.00174695
4.12694e-05
-0.00178497
3.8018e-05
-0.00181986
3.48791e-05
-0.00185154
3.16775e-05
-0.00188007
2.85372e-05
-0.00190529
2.52148e-05
-0.00192701
2.1715e-05
-0.00194544
1.84421e-05
-0.00196032
1.48785e-05
-0.00197166
1.13401e-05
-0.00197941
7.74929e-06
-0.00198373
4.31732e-06
-0.00198466
9.24063e-07
-0.00198204
-2.61307e-06
-0.00197591
-6.13147e-06
-0.0019664
-9.51147e-06
-0.00195339
-1.30048e-05
-0.00193706
-1.63247e-05
-0.00191751
-1.95533e-05
-0.00189454
-2.29743e-05
-0.00186833
-2.62113e-05
-0.00183901
-2.93174e-05
-0.00180664
-3.23706e-05
-0.00177134
-3.52933e-05
-0.00173323
-3.81177e-05
-0.0016923
-4.09277e-05
-0.00164874
-4.35581e-05
-0.00160261
-4.61295e-05
-0.00155399
-4.86199e-05
-0.00150304
-5.09459e-05
-0.00144986
-5.31812e-05
-0.00139462
-5.52481e-05
-0.00133749
-5.71299e-05
-0.0012785
-5.89906e-05
-0.00121786
-6.06435e-05
-0.00115574
-6.21205e-05
-0.00109239
-6.33499e-05
-0.00102799
-6.44013e-05
-0.000962648
-6.53424e-05
-0.000896587
-6.6062e-05
-0.000830056
-6.65294e-05
-0.000763261
-6.67966e-05
-0.000696232
-6.70302e-05
-0.000629175
-6.70596e-05
-0.00056246
-6.67173e-05
-0.000496302
-6.61598e-05
-0.000430882
-6.54224e-05
-0.000366336
-6.45484e-05
-0.00030289
-6.34484e-05
-0.000240726
-6.21658e-05
-0.000179971
-6.07563e-05
-0.000120884
-5.90893e-05
-6.35215e-05
-5.73638e-05
-7.99729e-06
-5.55259e-05
4.54597e-05
-5.34587e-05
9.67495e-05
-5.12919e-05
0.000145736
-4.89891e-05
0.000192305
-4.65723e-05
0.000236368
-4.4066e-05
0.000277788
-4.14238e-05
0.000316486
-3.86996e-05
0.000352412
-3.59284e-05
0.000385411
-3.30012e-05
0.000415378
-2.99675e-05
0.000442199
-2.68208e-05
0.000465784
-2.35845e-05
0.000486017
-2.02329e-05
0.000502819
-1.68016e-05
0.000516115
-1.32966e-05
0.000525812
-9.69699e-06
0.000531911
-6.09904e-06
0.000534244
-2.33449e-06
0.000532846
1.3969e-06
0.000527555
5.29319e-06
0.000518345
9.21222e-06
0.000505116
1.32329e-05
0.000487733
1.73862e-05
0.000466236
2.15013e-05
0.00044058
2.56599e-05
0.000410713
2.987e-05
0.000376599
3.41157e-05
0.000338235
3.83638e-05
0.000295635
4.25982e-05
0.000248833
4.6802e-05
0.000197881
5.09525e-05
0.00014324
5.46416e-05
8.44026e-05
5.88387e-05
2.17853e-05
6.262e-05
-4.45529e-05
6.63419e-05
-0.000114473
6.99242e-05
-0.000187809
7.33397e-05
-0.000264369
7.65614e-05
-0.000343988
7.96205e-05
-0.000426465
8.24777e-05
-0.000511556
8.50892e-05
-0.000599024
8.74657e-05
-0.000688656
8.9629e-05
-0.00078021
9.15538e-05
-0.000873414
9.32047e-05
-0.000967992
9.45776e-05
-0.00106367
9.56806e-05
-0.00116017
9.65072e-05
-0.00125722
9.70443e-05
-0.00135451
9.72921e-05
-0.00145179
9.72851e-05
-0.0015488
9.70135e-05
-0.00164525
9.64537e-05
-0.00174089
9.56398e-05
-0.00183545
9.45666e-05
-0.00192869
9.32325e-05
-0.00202036
9.16618e-05
-0.00211021
8.98489e-05
-0.00219805
8.78345e-05
-0.00228366
8.56076e-05
-0.00236683
8.31742e-05
-0.00244737
8.05291e-05
-0.00252508
7.77154e-05
-0.00259984
7.47569e-05
-0.00267151
7.16666e-05
-0.00273997
6.84562e-05
-0.0028051
6.51283e-05
-0.00286679
6.16867e-05
-0.00292495
5.81568e-05
-0.00297949
5.45441e-05
-0.00303037
5.08829e-05
-0.00307758
4.72159e-05
-0.00312113
4.355e-05
-0.00316097
3.98338e-05
-0.00319713
3.61563e-05
-0.0032296
3.2471e-05
-0.00325843
2.88334e-05
-0.00328369
2.52476e-05
-0.00330538
2.16942e-05
-0.00332357
1.81963e-05
-0.0033383
1.4735e-05
-0.00334964
1.13488e-05
-0.00335766
8.01229e-06
-0.00336245
4.7863e-06
-0.00336409
1.64769e-06
-0.0033626
-1.48945e-06
-0.00335805
-4.55575e-06
-0.00335045
-7.60149e-06
-0.00333987
-1.058e-05
-0.00332639
-1.34717e-05
-0.00331013
-1.62634e-05
-0.00329112
-1.90107e-05
-0.00326937
-2.17435e-05
-0.00324495
-2.44213e-05
-0.00321791
-2.70363e-05
-0.00318832
-2.95939e-05
-0.00315623
-3.20867e-05
-0.00312174
-3.44914e-05
-0.00308494
-3.67969e-05
-0.00304583
-3.9111e-05
-0.00300447
-4.13626e-05
-0.00296093
-4.35358e-05
-0.0029153
-4.56397e-05
-0.00286763
-4.76706e-05
-0.00281806
-4.95641e-05
-0.00276665
-5.14052e-05
-0.00271349
-5.31573e-05
-0.00265864
-5.48497e-05
-0.00260218
-5.64631e-05
-0.00254423
-5.79501e-05
-0.00248487
-5.9363e-05
-0.00242417
-6.07025e-05
-0.00236219
-6.19717e-05
-0.00229902
-6.31703e-05
-0.0022348
-6.42267e-05
-0.00216959
-6.52055e-05
-0.0021035
-6.60875e-05
-0.00203663
-6.68738e-05
-0.00196904
-6.75886e-05
-0.0019008
-6.82386e-05
-0.00183197
-6.88329e-05
-0.00176271
-6.92606e-05
-0.00169309
-6.96149e-05
-0.00162315
-6.99448e-05
-0.00155298
-7.01669e-05
-0.00148269
-7.02868e-05
-0.00141237
-7.03216e-05
-0.00134206
-7.0306e-05
-0.00127183
-7.02337e-05
-0.00120176
-7.00708e-05
-0.00113195
-6.9809e-05
-0.00106255
-6.94018e-05
-0.000993535
-6.90179e-05
-0.000924945
-6.85913e-05
-0.000856866
-6.80806e-05
-0.000789423
-6.74443e-05
-0.00072263
-6.67947e-05
-0.000656663
-6.59691e-05
-0.000591476
-6.51881e-05
-0.000527146
-6.43325e-05
-0.000463735
-6.34125e-05
-0.000401333
-6.24052e-05
-0.000339952
-6.13832e-05
-0.000279717
-6.02368e-05
-0.000220597
-5.91225e-05
-0.000162685
-5.79147e-05
-0.000106012
-5.66752e-05
-5.07423e-05
-5.52717e-05
3.14705e-06
-5.38914e-05
5.56837e-05
-5.25384e-05
0.000106781
-5.10995e-05
0.000156379
-4.96001e-05
0.000204449
-4.80715e-05
0.000250969
-4.65214e-05
0.0002959
-4.49321e-05
0.000339188
-4.32896e-05
0.000380811
-4.1624e-05
0.00042076
-3.9951e-05
0.000458993
-3.82337e-05
0.000495477
-3.64845e-05
0.000530189
-3.4713e-05
0.0005631
-3.29105e-05
0.000594201
-3.11016e-05
0.00062348
-2.92792e-05
0.000650911
-2.74315e-05
0.000676481
-2.557e-05
0.000700173
-2.36918e-05
0.000721996
-2.1823e-05
0.000741932
-1.99358e-05
0.000759978
-1.80457e-05
0.000776129
-1.61504e-05
0.00079039
-1.42607e-05
0.000802763
-1.23738e-05
0.000813247
-1.04841e-05
0.000821855
-8.60696e-06
0.000828595
-6.74002e-06
0.000833478
-4.88276e-06
0.000836518
-3.03991e-06
0.000837728
-1.20967e-06
0.000837137
5.90802e-07
0.000834754
2.38238e-06
0.000830607
4.14724e-06
0.000824719
5.88777e-06
0.000817118
7.60131e-06
0.000807833
9.28444e-06
0.000796894
1.09391e-05
0.000784331
1.25623e-05
0.000770184
1.4147e-05
0.000754501
1.56833e-05
0.000737304
1.71964e-05
0.000718639
1.8665e-05
0.000698549
2.00902e-05
0.000677078
2.147e-05
0.000654276
2.28028e-05
0.000630184
2.40919e-05
0.000604859
2.53256e-05
0.00057835
2.65092e-05
0.000550726
2.76242e-05
0.00052202
2.87061e-05
0.000492291
2.97287e-05
0.000461604
3.0688e-05
0.000430016
3.15877e-05
0.000397588
3.24281e-05
0.000364378
3.32102e-05
0.000330454
3.39255e-05
0.000295891
3.45648e-05
0.000260763
3.51287e-05
0.000225142
3.56219e-05
0.000189154
3.59892e-05
0.000153178
3.59759e-05
0.000117006
3.61723e-05
7.85597e-05
3.84464e-05
3.89529e-05
3.96082e-05
3.89548e-05
-1.7884e-05
3.8996e-05
-3.77892e-05
3.99061e-05
-5.7621e-05
3.9603e-05
-7.72842e-05
3.86013e-05
-9.66852e-05
3.82783e-05
-0.000115843
3.80883e-05
-0.000134872
3.79584e-05
-0.000153856
3.7886e-05
-0.000172812
3.7794e-05
-0.000191684
3.76751e-05
-0.000210479
3.75434e-05
-0.000229203
3.73957e-05
-0.00024785
3.72367e-05
-0.000266403
3.70573e-05
-0.000284854
3.68639e-05
-0.000303195
3.66424e-05
-0.000321418
3.64013e-05
-0.00033951
3.61399e-05
-0.00035746
3.58563e-05
-0.000375259
3.55532e-05
-0.000392899
3.52334e-05
-0.00041037
3.48921e-05
-0.000427662
3.45322e-05
-0.000444764
3.41525e-05
-0.000461667
3.37541e-05
-0.000478362
3.33387e-05
-0.000494841
3.29033e-05
-0.000511093
3.24511e-05
-0.000527113
3.19834e-05
-0.000542891
3.14996e-05
-0.000558418
3.09975e-05
-0.000573687
3.04801e-05
-0.00058869
2.99453e-05
-0.000603416
2.93941e-05
-0.000617859
2.88266e-05
-0.00063201
2.82428e-05
-0.000645861
2.7643e-05
-0.000659405
2.7027e-05
-0.000672632
2.6395e-05
-0.000685536
2.57471e-05
-0.000698108
2.50838e-05
-0.00071034
2.44052e-05
-0.000722226
2.37114e-05
-0.000733758
2.30023e-05
-0.000744927
2.22781e-05
-0.000755727
2.15389e-05
-0.00076615
2.07848e-05
-0.000776188
2.00161e-05
-0.000785835
1.92331e-05
-0.000795083
1.8436e-05
-0.000803925
1.76249e-05
-0.000812355
1.67999e-05
-0.000820365
1.59613e-05
-0.00082795
1.51093e-05
-0.000835102
1.42443e-05
-0.000841815
1.33665e-05
-0.000848083
1.24761e-05
-0.000853899
1.15734e-05
-0.000859257
1.06585e-05
-0.000864152
9.73169e-06
-0.000868577
8.79336e-06
-0.000872528
7.84375e-06
-0.000875998
6.88309e-06
-0.000878982
5.91162e-06
-0.000881474
4.92953e-06
-0.00088347
3.93709e-06
-0.000884964
2.93457e-06
-0.000885951
1.9223e-06
-0.000886425
9.00493e-07
-0.000886385
-1.31267e-07
-0.00088583
-1.17291e-06
-0.000884745
-2.22001e-06
-0.000883137
-3.27625e-06
-0.00088099
-4.33816e-06
-0.000878309
-5.41727e-06
-0.000875089
-6.48884e-06
-0.000871323
-7.57487e-06
-0.000867011
-8.66762e-06
-0.00086215
-9.76982e-06
-0.000856737
-1.08738e-05
-0.000850768
-1.19833e-05
-0.000844241
-1.30984e-05
-0.000837153
-1.42181e-05
-0.000829504
-1.5342e-05
-0.000821289
-1.64699e-05
-0.000812507
-1.7604e-05
-0.000803156
-1.87378e-05
-0.000793237
-1.9873e-05
-0.000782747
-2.1014e-05
-0.000771685
-2.21571e-05
-0.000760051
-2.33022e-05
-0.000747842
-2.44512e-05
-0.000735059
-2.55959e-05
-0.000721702
-2.67424e-05
-0.00070777
-2.78901e-05
-0.000693266
-2.90385e-05
-0.000678184
-3.01869e-05
-0.000662531
-3.13297e-05
-0.000646306
-3.24735e-05
-0.00062951
-3.36161e-05
-0.000612136
-3.47632e-05
-0.0005942
-3.5893e-05
-0.000575695
-3.70275e-05
-0.000556623
-3.81591e-05
-0.000536987
-3.92866e-05
-0.000516784
-4.04162e-05
-0.000496027
-4.15273e-05
-0.000474711
-4.26412e-05
-0.00045284
-4.37498e-05
-0.000430418
-4.4852e-05
-0.000407447
-4.59484e-05
-0.00038393
-4.70386e-05
-0.00035987
-4.81214e-05
-0.000335271
-4.91978e-05
-0.000310137
-5.02659e-05
-0.000284474
-5.13235e-05
-0.000258286
-5.2373e-05
-0.000231577
-5.34138e-05
-0.00020435
-5.44463e-05
-0.000176614
-5.54654e-05
-0.000148371
-5.64768e-05
-0.000119625
-5.74779e-05
-9.03826e-05
-5.84672e-05
-6.06517e-05
-5.94456e-05
-3.04388e-05
-6.04127e-05
2.50622e-07
-6.13672e-05
3.14121e-05
-6.23104e-05
6.30384e-05
-6.32397e-05
9.51191e-05
-6.41511e-05
0.00012764
-6.50434e-05
0.000160625
-6.59577e-05
0.000194049
-6.68293e-05
0.000227913
-6.76832e-05
0.000262143
-6.84942e-05
0.000296805
-6.93275e-05
0.000331874
-7.01335e-05
0.000367345
-7.09313e-05
0.000403201
-7.17022e-05
0.000439434
-7.24556e-05
0.000476033
-7.31891e-05
0.000512994
-7.39101e-05
0.000550303
-7.46067e-05
0.000587951
-7.52843e-05
0.000625931
-7.59462e-05
0.000664226
-7.65788e-05
0.000702834
-7.72016e-05
0.000741734
-7.77896e-05
0.000780931
-7.83757e-05
0.000820397
-7.89192e-05
0.000860131
-7.94507e-05
0.000900115
-7.99536e-05
0.000940343
-8.04366e-05
0.000980796
-8.0895e-05
0.00102147
-8.13346e-05
0.00106235
-8.17363e-05
0.00110342
-8.21239e-05
0.00114467
-8.24798e-05
0.00118609
-8.28161e-05
0.00122765
-8.3112e-05
0.00126935
-8.33923e-05
0.00131118
-8.36448e-05
0.00135313
-8.38655e-05
0.00139517
-8.40642e-05
0.00143729
-8.4224e-05
0.00147948
-8.43605e-05
0.00152172
-8.44669e-05
0.001564
-8.45421e-05
0.00160631
-8.45883e-05
0.00164861
-8.45987e-05
0.00169091
-8.45778e-05
0.00173319
-8.4533e-05
0.00177542
-8.4442e-05
0.0018176
-8.43256e-05
0.0018597
-8.41755e-05
0.0019017
-8.39869e-05
0.0019436
-8.37637e-05
0.00198538
-8.35279e-05
0.00202701
-8.32244e-05
0.00206846
-8.2892e-05
0.00210974
-8.25273e-05
0.00215083
-8.21301e-05
0.00219166
-8.16649e-05
0.00223227
-8.11961e-05
0.00227262
-8.06805e-05
0.0023127