/*--------------------------------*- C++ -*----------------------------------*\
| =========                 |                                                 |
| \\      /  F ield         | OpenFOAM: The Open Source CFD Toolbox           |
|  \\    /   O peration     | Version:  2412                                  |
|   \\  /    A nd           | Website:  www.openfoam.com                      |
|    \\/     M anipulation  |                                                 |
\*---------------------------------------------------------------------------*/
FoamFile
{
    version     2.0;
    format      ascii;
    arch        "LSB;label=32;scalar=64";
    class       volVectorField;
    location    "3.05";
    object      U;
}
// * * * * * * * * * * * * * * * * * * * * * * * * * * * * * * * * * * * * * //

dimensions      [0 1 -1 0 0 0 0];

internalField   nonuniform List<vector> 
6400
(
(0.00152033 -0.0015754 0)
(0.005895 -0.00198445 0)
(0.010768 -0.00191087 0)
(0.015312 -0.00175577 0)
(0.0194529 -0.00156014 0)
(0.0231112 -0.00133753 0)
(0.0262268 -0.0010922 0)
(0.0287645 -0.000835903 0)
(0.0307082 -0.000578095 0)
(0.0320596 -0.000329597 0)
(0.03284 -0.00010002 0)
(0.0331081 9.31533e-05 0)
(0.0329334 0.000255142 0)
(0.0323743 0.00039605 0)
(0.0314924 0.000511957 0)
(0.03036 0.000593719 0)
(0.0290237 0.000642934 0)
(0.0275441 0.000673137 0)
(0.026 0.000684658 0)
(0.0244319 0.000670751 0)
(0.0228667 0.000637904 0)
(0.0213503 0.000598076 0)
(0.0199026 0.00055323 0)
(0.0185364 0.000505775 0)
(0.0172539 0.000467654 0)
(0.0160503 0.000418793 0)
(0.0149228 0.000389417 0)
(0.0138491 0.000364079 0)
(0.0128174 0.000346737 0)
(0.0118029 0.000335298 0)
(0.0108148 0.000336038 0)
(0.00982236 0.00035723 0)
(0.0087868 0.000378462 0)
(0.00770566 0.000397548 0)
(0.00658496 0.00040486 0)
(0.00543087 0.000411096 0)
(0.00425794 0.000408459 0)
(0.00306462 0.000400393 0)
(0.00185101 0.000393739 0)
(0.000626002 0.000394772 0)
(-0.000618894 0.000404999 0)
(-0.00188408 0.000423173 0)
(-0.00316425 0.000447666 0)
(-0.00446901 0.00046524 0)
(-0.00578038 0.000486239 0)
(-0.00709185 0.000493102 0)
(-0.00839051 0.000492882 0)
(-0.00965799 0.000474236 0)
(-0.0108798 0.000454659 0)
(-0.0120477 0.000425291 0)
(-0.0131851 0.000410937 0)
(-0.0143261 0.000408241 0)
(-0.0154599 0.000411373 0)
(-0.0166064 0.000426188 0)
(-0.0177787 0.000440109 0)
(-0.0189924 0.000471406 0)
(-0.0202495 0.000495972 0)
(-0.0215607 0.000524771 0)
(-0.0229272 0.000556831 0)
(-0.0243247 0.000590886 0)
(-0.0257596 0.00060294 0)
(-0.027193 0.000608336 0)
(-0.0285734 0.000599908 0)
(-0.029873 0.000563809 0)
(-0.0310323 0.000508209 0)
(-0.03199 0.000425028 0)
(-0.0326927 0.000317631 0)
(-0.0330839 0.000181497 0)
(-0.0331046 2.40597e-05 0)
(-0.0326977 -0.000161535 0)
(-0.0318008 -0.000380135 0)
(-0.0303592 -0.000617371 0)
(-0.0283552 -0.000859765 0)
(-0.0257895 -0.0011006 0)
(-0.0226765 -0.00132925 0)
(-0.019051 -0.0015377 0)
(-0.0149722 -0.0017197 0)
(-0.0105151 -0.00186341 0)
(-0.00575114 -0.00192914 0)
(-0.00148046 -0.00153317 0)
(0.00168361 -0.00565271 0)
(0.00729368 -0.00779192 0)
(0.0134744 -0.00766077 0)
(0.0192521 -0.00707168 0)
(0.0245352 -0.00634452 0)
(0.0292487 -0.00552361 0)
(0.0333242 -0.00462727 0)
(0.0367179 -0.00368887 0)
(0.0394099 -0.00274491 0)
(0.0414127 -0.00182861 0)
(0.0427615 -0.000965924 0)
(0.043484 -0.00018087 0)
(0.0436233 0.000511377 0)
(0.0432447 0.00111213 0)
(0.0424199 0.00161382 0)
(0.0412343 0.00199821 0)
(0.03976 0.00228342 0)
(0.038073 0.00247154 0)
(0.0362525 0.00257909 0)
(0.0343495 0.00260321 0)
(0.0324203 0.00256493 0)
(0.0305255 0.0024728 0)
(0.0286869 0.00235523 0)
(0.0269399 0.00221845 0)
(0.0252725 0.00208126 0)
(0.0237068 0.00194531 0)
(0.0222515 0.00182763 0)
(0.0208536 0.00173961 0)
(0.0195037 0.00166964 0)
(0.0181529 0.00163245 0)
(0.0167707 0.00163486 0)
(0.0153511 0.00167462 0)
(0.0138687 0.00172914 0)
(0.0123172 0.00179791 0)
(0.0106775 0.00185523 0)
(0.00892775 0.00191455 0)
(0.0070672 0.00196113 0)
(0.00510575 0.00200459 0)
(0.00305434 0.00203188 0)
(0.000946074 0.00206012 0)
(-0.00120124 0.00209295 0)
(-0.00335986 0.00211961 0)
(-0.00549965 0.00214342 0)
(-0.00759023 0.00214864 0)
(-0.00960478 0.0021461 0)
(-0.0115341 0.00211649 0)
(-0.0133654 0.00207584 0)
(-0.0151001 0.0020114 0)
(-0.0167659 0.00194173 0)
(-0.0183684 0.00188407 0)
(-0.0199111 0.00184454 0)
(-0.021392 0.00184451 0)
(-0.0228333 0.0018629 0)
(-0.0242909 0.00190272 0)
(-0.0257782 0.001976 0)
(-0.0273269 0.00205645 0)
(-0.0289425 0.00214693 0)
(-0.0306078 0.00223462 0)
(-0.0323233 0.00231432 0)
(-0.034072 0.00237022 0)
(-0.0358457 0.0023709 0)
(-0.0375675 0.00232517 0)
(-0.0391935 0.00220543 0)
(-0.040677 0.00200207 0)
(-0.0419427 0.00171326 0)
(-0.0429214 0.00132611 0)
(-0.043548 0.000848922 0)
(-0.0437472 0.000265871 0)
(-0.043442 -0.000406185 0)
(-0.0425775 -0.00116153 0)
(-0.0411139 -0.00198807 0)
(-0.0390188 -0.00286248 0)
(-0.0362632 -0.00375705 0)
(-0.0328391 -0.00464708 0)
(-0.0287702 -0.00549558 0)
(-0.024099 -0.00626879 0)
(-0.0188855 -0.00695391 0)
(-0.0132014 -0.00750864 0)
(-0.00713381 -0.00761604 0)
(-0.0016384 -0.00551911 0)
(0.0017926 -0.0101174 0)
(0.00784312 -0.0140757 0)
(0.0144827 -0.0138479 0)
(0.0206805 -0.0127969 0)
(0.0263289 -0.0115122 0)
(0.0313477 -0.0100683 0)
(0.0356652 -0.00849729 0)
(0.0392404 -0.00685723 0)
(0.0420595 -0.00521199 0)
(0.0441372 -0.00361461 0)
(0.0455181 -0.00210631 0)
(0.0462539 -0.000713008 0)
(0.0464027 0.00052997 0)
(0.0460357 0.00160727 0)
(0.0452213 0.00250523 0)
(0.0440573 0.00321654 0)
(0.0426158 0.00374928 0)
(0.0409663 0.00411451 0)
(0.0391906 0.00432473 0)
(0.0373371 0.0044 0)
(0.0354576 0.0043681 0)
(0.0336094 0.00424002 0)
(0.0318174 0.00405992 0)
(0.0301009 0.00384894 0)
(0.0284601 0.00361386 0)
(0.0268907 0.00341845 0)
(0.0254044 0.00325063 0)
(0.0239452 0.00313774 0)
(0.0224939 0.00306629 0)
(0.0210273 0.00307124 0)
(0.0195119 0.00314632 0)
(0.017927 0.00326381 0)
(0.0162585 0.00342115 0)
(0.0144808 0.00361596 0)
(0.0125748 0.00383322 0)
(0.0105344 0.00405807 0)
(0.00836526 0.00427055 0)
(0.00606897 0.00445891 0)
(0.00365728 0.00460637 0)
(0.00118311 0.00470861 0)
(-0.00134347 0.00476193 0)
(-0.00388054 0.0047664 0)
(-0.00638239 0.00471835 0)
(-0.00882079 0.00461779 0)
(-0.0111692 0.00446869 0)
(-0.0134063 0.00429189 0)
(-0.0155181 0.00409626 0)
(-0.0175094 0.0039 0)
(-0.0193767 0.00371729 0)
(-0.0211486 0.00356235 0)
(-0.0228313 0.00343862 0)
(-0.0244381 0.00335731 0)
(-0.0259937 0.00334421 0)
(-0.0275036 0.00336707 0)
(-0.0290221 0.00345089 0)
(-0.0305786 0.00355364 0)
(-0.0321629 0.00370574 0)
(-0.0337916 0.00383815 0)
(-0.0354575 0.00395335 0)
(-0.037155 0.00401211 0)
(-0.0388681 0.00399249 0)
(-0.0405344 0.00387928 0)
(-0.0421095 0.00363756 0)
(-0.0435453 0.00325826 0)
(-0.0447769 0.00272093 0)
(-0.0457207 0.00201934 0)
(-0.0463208 0.00114553 0)
(-0.0465022 0.000102949 0)
(-0.0461751 -0.00109763 0)
(-0.0452835 -0.00243492 0)
(-0.0437741 -0.0038794 0)
(-0.0415953 -0.00540308 0)
(-0.0387102 -0.00696738 0)
(-0.0351073 -0.0085247 0)
(-0.0307996 -0.0100147 0)
(-0.0258286 -0.0113794 0)
(-0.0202585 -0.0125956 0)
(-0.0141641 -0.0135918 0)
(-0.0076556 -0.013777 0)
(-0.00174038 -0.00988145 0)
(0.00187824 -0.0148765 0)
(0.00834919 -0.0208388 0)
(0.0154794 -0.0204887 0)
(0.0220968 -0.01891 0)
(0.0280721 -0.0169823 0)
(0.0333264 -0.0148249 0)
(0.0377909 -0.0124899 0)
(0.0414301 -0.0100638 0)
(0.0442445 -0.0076383 0)
(0.0462587 -0.00529271 0)
(0.0475259 -0.00309022 0)
(0.0481122 -0.00107493 0)
(0.0480881 0.00072091 0)
(0.0475316 0.00227855 0)
(0.0465247 0.0035735 0)
(0.0451597 0.00460841 0)
(0.0435241 0.00537447 0)
(0.0417018 0.0059018 0)
(0.0397676 0.00620051 0)
(0.0377816 0.00630861 0)
(0.0357961 0.00625601 0)
(0.0338729 0.00606978 0)
(0.0320355 0.00581451 0)
(0.0302857 0.00550025 0)
(0.0286476 0.00520117 0)
(0.0271137 0.00491684 0)
(0.0256546 0.00470742 0)
(0.0242193 0.00456729 0)
(0.0228049 0.00451807 0)
(0.0213801 0.00455876 0)
(0.0198922 0.00469518 0)
(0.0183196 0.00490787 0)
(0.0166365 0.00517864 0)
(0.014822 0.00550302 0)
(0.0128608 0.00585533 0)
(0.0107565 0.00620623 0)
(0.00852615 0.00654148 0)
(0.00618849 0.00682188 0)
(0.0037522 0.00704451 0)
(0.00125208 0.00720123 0)
(-0.00128678 0.00728303 0)
(-0.00383992 0.00729195 0)
(-0.00638301 0.00721263 0)
(-0.00888659 0.00705898 0)
(-0.0113075 0.00681647 0)
(-0.013631 0.00652843 0)
(-0.0158325 0.00620608 0)
(-0.0178876 0.00588075 0)
(-0.0198033 0.00557528 0)
(-0.0215828 0.00530181 0)
(-0.0232576 0.00508483 0)
(-0.0248413 0.00492291 0)
(-0.0263635 0.00486127 0)
(-0.0278605 0.00487418 0)
(-0.0293527 0.00495422 0)
(-0.0308687 0.00510775 0)
(-0.032446 0.00528692 0)
(-0.0340995 0.00548593 0)
(-0.0358035 0.00564332 0)
(-0.0375702 0.00573267 0)
(-0.0393724 0.00571096 0)
(-0.0411553 0.00555005 0)
(-0.0428726 0.00520978 0)
(-0.0444718 0.00466727 0)
(-0.0458789 0.00389095 0)
(-0.0470101 0.0028754 0)
(-0.0477917 0.00160373 0)
(-0.048138 9.74559e-05 0)
(-0.047968 -0.00163499 0)
(-0.0472152 -0.00357214 0)
(-0.0458099 -0.00568292 0)
(-0.0436871 -0.00792095 0)
(-0.0407995 -0.0102274 0)
(-0.03713 -0.0125285 0)
(-0.032681 -0.0147413 0)
(-0.0274825 -0.0167843 0)
(-0.0215991 -0.0186076 0)
(-0.015106 -0.0201026 0)
(-0.00813356 -0.0203879 0)
(-0.00182108 -0.0145165 0)
(0.00197497 -0.0199076 0)
(0.00900661 -0.0281449 0)
(0.0168233 -0.0276411 0)
(0.0240215 -0.0254395 0)
(0.0304413 -0.022761 0)
(0.0359928 -0.0197794 0)
(0.0406205 -0.0165805 0)
(0.0443087 -0.0132829 0)
(0.0470736 -0.0100091 0)
(0.0489555 -0.00686786 0)
(0.0500275 -0.00392634 0)
(0.0503773 -0.00123694 0)
(0.0500862 0.00115194 0)
(0.0492352 0.00321042 0)
(0.0479234 0.00490633 0)
(0.0462527 0.00625354 0)
(0.0443192 0.00725056 0)
(0.0422212 0.00791201 0)
(0.0400391 0.0082769 0)
(0.0378453 0.00837868 0)
(0.0356871 0.00826639 0)
(0.0336462 0.00799101 0)
(0.0317273 0.00761354 0)
(0.0299615 0.0071792 0)
(0.0283401 0.00677321 0)
(0.0268393 0.00639011 0)
(0.0254674 0.00610108 0)
(0.0241351 0.00592001 0)
(0.0228282 0.00588142 0)
(0.0215081 0.00596277 0)
(0.0201273 0.00617624 0)
(0.0186313 0.00650392 0)
(0.0170057 0.0069238 0)
(0.0152206 0.00740604 0)
(0.0132494 0.00791167 0)
(0.011124 0.00841276 0)
(0.00885217 0.00887617 0)
(0.00645079 0.00926999 0)
(0.00395153 0.00957535 0)
(0.00138805 0.00978774 0)
(-0.0012259 0.00990413 0)
(-0.00386277 0.00991249 0)
(-0.00648354 0.00980003 0)
(-0.00907326 0.00958268 0)
(-0.0115769 0.00924705 0)
(-0.013955 0.00882961 0)
(-0.0161932 0.00836441 0)
(-0.0182673 0.00788186 0)
(-0.0201664 0.00741751 0)
(-0.0218994 0.00700316 0)
(-0.0235014 0.00666536 0)
(-0.0249905 0.00643293 0)
(-0.0264154 0.00630709 0)
(-0.0278238 0.00631481 0)
(-0.0292301 0.00642926 0)
(-0.0307077 0.00663493 0)
(-0.0322603 0.00688057 0)
(-0.0339182 0.00716457 0)
(-0.0356931 0.007407 0)
(-0.0375624 0.00756617 0)
(-0.0395138 0.00758185 0)
(-0.0414859 0.00740698 0)
(-0.0434284 0.00699304 0)
(-0.0452833 0.00629982 0)
(-0.0469681 0.00530195 0)
(-0.0483877 0.00396798 0)
(-0.049456 0.00230181 0)
(-0.0500763 0.000310176 0)
(-0.0501595 -0.00198955 0)
(-0.0496241 -0.00456773 0)
(-0.0483894 -0.00738557 0)
(-0.0463809 -0.0103904 0)
(-0.0435353 -0.0135045 0)
(-0.0398171 -0.0166313 0)
(-0.0352089 -0.0196593 0)
(-0.0297208 -0.0224777 0)
(-0.0234161 -0.0250123 0)
(-0.0163746 -0.0270939 0)
(-0.00875326 -0.0275099 0)
(-0.00191106 -0.0194053 0)
(0.00207215 -0.0252882 0)
(0.00985082 -0.0362271 0)
(0.0186296 -0.0355331 0)
(0.0266266 -0.0325574 0)
(0.033637 -0.0289534 0)
(0.0395671 -0.0249864 0)
(0.0443798 -0.0207803 0)
(0.0480969 -0.016492 0)
(0.0507622 -0.012274 0)
(0.0524497 -0.00825802 0)
(0.0532642 -0.00451591 0)
(0.0532983 -0.00110693 0)
(0.0526434 0.00190387 0)
(0.0513965 0.00448075 0)
(0.0496834 0.0065944 0)
(0.0476195 0.0082481 0)
(0.0452964 0.00944748 0)
(0.0428404 0.010222 0)
(0.0403423 0.0106099 0)
(0.0378767 0.0106621 0)
(0.0355163 0.0104366 0)
(0.0333276 0.0100193 0)
(0.0313263 0.00946521 0)
(0.0295406 0.00886982 0)
(0.0279486 0.00828128 0)
(0.0265299 0.00777874 0)
(0.0252739 0.00738808 0)
(0.0240937 0.00714944 0)
(0.0229486 0.00709623 0)
(0.021784 0.00722586 0)
(0.0205503 0.00753869 0)
(0.0191863 0.0080105 0)
(0.0176496 0.00860206 0)
(0.0159044 0.00927759 0)
(0.0139423 0.00997878 0)
(0.0117824 0.0106583 0)
(0.00943802 0.0112816 0)
(0.00693609 0.0118023 0)
(0.00430788 0.0122062 0)
(0.00159881 0.0124838 0)
(-0.0011702 0.0126327 0)
(-0.00396735 0.0126456 0)
(-0.0067432 0.0125037 0)
(-0.00947464 0.0122035 0)
(-0.0120979 0.0117624 0)
(-0.0145614 0.0111974 0)
(-0.0168453 0.0105458 0)
(-0.0189214 0.00986296 0)
(-0.0207861 0.00920997 0)
(-0.0224397 0.00861801 0)
(-0.0239196 0.00813903 0)
(-0.0252827 0.00780814 0)
(-0.0265641 0.00763294 0)
(-0.0278239 0.0076378 0)
(-0.0291204 0.00780511 0)
(-0.0305086 0.00809445 0)
(-0.0320131 0.00847739 0)
(-0.0336767 0.00888224 0)
(-0.0355113 0.00926275 0)
(-0.0375073 0.00954044 0)
(-0.0396453 0.00964253 0)
(-0.0418605 0.00949762 0)
(-0.0440975 0.00905155 0)
(-0.0462784 0.00823671 0)
(-0.0483239 0.00702697 0)
(-0.0501243 0.0053878 0)
(-0.0515675 0.00332535 0)
(-0.0525511 0.000829841 0)
(-0.0529675 -0.00207288 0)
(-0.0527258 -0.00534715 0)
(-0.051738 -0.0089287 0)
(-0.0499063 -0.0127632 0)
(-0.0471399 -0.0167755 0)
(-0.0433833 -0.0208409 0)
(-0.0385897 -0.0248169 0)
(-0.0327406 -0.0285653 0)
(-0.0258792 -0.0319762 0)
(-0.0180793 -0.0347864 0)
(-0.00954714 -0.0353716 0)
(-0.0019993 -0.0246301 0)
(0.00213952 -0.0310746 0)
(0.0108782 -0.0453673 0)
(0.020991 -0.0444421 0)
(0.0300836 -0.0404706 0)
(0.0378565 -0.035679 0)
(0.0442344 -0.0304866 0)
(0.049231 -0.025076 0)
(0.0529302 -0.0196446 0)
(0.0554277 -0.0143656 0)
(0.0568384 -0.00937583 0)
(0.0573025 -0.00476166 0)
(0.0569212 -0.000586692 0)
(0.0558 0.00307978 0)
(0.0540611 0.00619645 0)
(0.0518355 0.00873543 0)
(0.0492525 0.010686 0)
(0.046444 0.0120672 0)
(0.0435417 0.0129165 0)
(0.0406437 0.0132721 0)
(0.0378447 0.013214 0)
(0.0352265 0.0128069 0)
(0.0328623 0.0121665 0)
(0.0307662 0.0113763 0)
(0.0289669 0.0105292 0)
(0.0274399 0.00971711 0)
(0.0261441 0.00903006 0)
(0.0250472 0.00849969 0)
(0.024067 0.00818703 0)
(0.0231438 0.00811629 0)
(0.0222061 0.00830369 0)
(0.0211819 0.0087331 0)
(0.0199734 0.00938348 0)
(0.0185532 0.0102028 0)
(0.0168762 0.0111238 0)
(0.014908 0.0120669 0)
(0.0126985 0.0129816 0)
(0.0102529 0.0138023 0)
(0.0075956 0.0144835 0)
(0.00479052 0.0150067 0)
(0.00188279 0.0153697 0)
(-0.00109957 0.015564 0)
(-0.00411555 0.0155829 0)
(-0.00711123 0.0153961 0)
(-0.0100395 0.0149988 0)
(-0.0128259 0.0143991 0)
(-0.015421 0.0136371 0)
(-0.0177773 0.0127546 0)
(-0.0198542 0.0118309 0)
(-0.0216646 0.0109249 0)
(-0.0232168 0.010106 0)
(-0.0245394 0.0094572 0)
(-0.0257089 0.00900945 0)
(-0.0267873 0.00879052 0)
(-0.027847 0.00880741 0)
(-0.0289642 0.00904488 0)
(-0.0302207 0.00946727 0)
(-0.0316556 0.0100256 0)
(-0.0333151 0.0106414 0)
(-0.0352168 0.011222 0)
(-0.0373604 0.0116876 0)
(-0.0397288 0.0119428 0)
(-0.0422432 0.0118924 0)
(-0.0448476 0.011459 0)
(-0.047455 0.0105695 0)
(-0.0499586 0.00917428 0)
(-0.05223 0.00724497 0)
(-0.054156 0.00476648 0)
(-0.0556151 0.00174517 0)
(-0.0564722 -0.00179578 0)
(-0.0566072 -0.005808 0)
(-0.0559263 -0.0102241 0)
(-0.0543471 -0.0149798 0)
(-0.0517331 -0.0200009 0)
(-0.0479783 -0.0251487 0)
(-0.0430021 -0.0302586 0)
(-0.0367281 -0.0351628 0)
(-0.0291429 -0.0396913 0)
(-0.0203083 -0.0434394 0)
(-0.0105188 -0.044234 0)
(-0.00206221 -0.0302326 0)
(0.0021085 -0.0372537 0)
(0.0120592 -0.0559314 0)
(0.0240413 -0.0547448 0)
(0.0346375 -0.0494322 0)
(0.0433791 -0.0430554 0)
(0.0502494 -0.036295 0)
(0.0553766 -0.0294231 0)
(0.0589615 -0.0226634 0)
(0.061187 -0.0161885 0)
(0.0622167 -0.0101409 0)
(0.0622186 -0.00457172 0)
(0.0613077 0.000431369 0)
(0.0595993 0.00480023 0)
(0.0572383 0.0084843 0)
(0.0543714 0.0114479 0)
(0.0511515 0.0136814 0)
(0.0477349 0.0152194 0)
(0.0442682 0.0160864 0)
(0.0408758 0.016344 0)
(0.037663 0.0160954 0)
(0.0347332 0.015415 0)
(0.0321703 0.0144561 0)
(0.0299662 0.013334 0)
(0.0281639 0.0121798 0)
(0.0267409 0.0110591 0)
(0.0256153 0.0101091 0)
(0.0247496 0.00938443 0)
(0.0240495 0.00896367 0)
(0.0234275 0.00887311 0)
(0.0227854 0.00912931 0)
(0.0220298 0.00971165 0)
(0.0210626 0.0105899 0)
(0.0197976 0.0117061 0)
(0.0181758 0.0129439 0)
(0.0162059 0.0142035 0)
(0.0139111 0.0154027 0)
(0.0113076 0.0164717 0)
(0.00845456 0.0173565 0)
(0.00541907 0.0180296 0)
(0.00225715 0.018497 0)
(-0.000997106 0.0187455 0)
(-0.00430006 0.0187738 0)
(-0.00758262 0.0185373 0)
(-0.0107888 0.0180067 0)
(-0.0138113 0.017207 0)
(-0.0165732 0.0161915 0)
(-0.0190214 0.0150141 0)
(-0.0211203 0.0137704 0)
(-0.0228807 0.0125464 0)
(-0.0242726 0.0114553 0)
(-0.0253644 0.010576 0)
(-0.0262775 0.00997484 0)
(-0.027077 0.00969274 0)
(-0.0278662 0.00975311 0)
(-0.0287449 0.010107 0)
(-0.0298024 0.010715 0)
(-0.031106 0.0115195 0)
(-0.0327422 0.012408 0)
(-0.0347226 0.0132901 0)
(-0.0370369 0.0140421 0)
(-0.0396817 0.0145404 0)
(-0.0425736 0.0146643 0)
(-0.0456353 0.0143096 0)
(-0.0487657 0.0133983 0)
(-0.0518425 0.0118555 0)
(-0.0547202 0.0096442 0)
(-0.0572515 0.00674006 0)
(-0.0592914 0.00316533 0)
(-0.0606906 -0.00105456 0)
(-0.0613157 -0.00586353 0)
(-0.0610649 -0.0111989 0)
(-0.0598342 -0.0169696 0)
(-0.0574601 -0.0231197 0)
(-0.0537916 -0.0295184 0)
(-0.0486794 -0.0360019 0)
(-0.0419374 -0.0423752 0)
(-0.0334342 -0.0483898 0)
(-0.0231832 -0.0534067 0)
(-0.0116268 -0.0544389 0)
(-0.00202317 -0.0362003 0)
(0.00183454 -0.0437301 0)
(0.0132968 -0.0684609 0)
(0.0279758 -0.0670089 0)
(0.0406718 -0.0597789 0)
(0.0506179 -0.0511853 0)
(0.0579523 -0.0423707 0)
(0.0630648 -0.0337232 0)
(0.0663693 -0.0254377 0)
(0.0681531 -0.01763 0)
(0.0686689 -0.0104207 0)
(0.0680962 -0.00382896 0)
(0.0665229 0.00206486 0)
(0.0640912 0.00717889 0)
(0.0609601 0.0114628 0)
(0.0572967 0.0148752 0)
(0.0532941 0.0173873 0)
(0.0491282 0.0190288 0)
(0.0449642 0.0198463 0)
(0.0409707 0.0199118 0)
(0.037254 0.0193677 0)
(0.0339411 0.0183 0)
(0.0311478 0.0169232 0)
(0.0288643 0.0153462 0)
(0.0270742 0.0137547 0)
(0.0257653 0.0122559 0)
(0.0248865 0.0109341 0)
(0.0243449 0.00996983 0)
(0.0240289 0.00939268 0)
(0.0238152 0.00927154 0)
(0.0235763 0.00961586 0)
(0.0231905 0.0104138 0)
(0.0225252 0.0115944 0)
(0.0214665 0.0130679 0)
(0.0199292 0.0147308 0)
(0.0179177 0.0163976 0)
(0.0154931 0.0179688 0)
(0.0126896 0.0193529 0)
(0.00956908 0.02049 0)
(0.00623242 0.0213531 0)
(0.00274221 0.0219227 0)
(-0.000856247 0.0222407 0)
(-0.00452087 0.0222901 0)
(-0.00819739 0.0220081 0)
(-0.0117737 0.0213111 0)
(-0.0151032 0.0202678 0)
(-0.0181114 0.0189175 0)
(-0.0207104 0.0173487 0)
(-0.0228364 0.0156824 0)
(-0.0244922 0.0140409 0)
(-0.025692 0.0125821 0)
(-0.0265053 0.0114038 0)
(-0.0270523 0.0106081 0)
(-0.0274433 0.0102499 0)
(-0.0278423 0.0103619 0)
(-0.0283897 0.0108967 0)
(-0.0291769 0.0117872 0)
(-0.0303162 0.0129506 0)
(-0.031888 0.0142047 0)
(-0.0339207 0.0154881 0)
(-0.0364394 0.0166255 0)
(-0.0394227 0.0174955 0)
(-0.0427724 0.0178947 0)
(-0.0463923 0.0177112 0)
(-0.050173 0.0168394 0)
(-0.0539641 0.0151907 0)
(-0.0575869 0.0127081 0)
(-0.0608648 0.00937703 0)
(-0.0636282 0.00521858 0)
(-0.06571 0.000267103 0)
(-0.0669534 -0.00541057 0)
(-0.0672281 -0.0117287 0)
(-0.0664565 -0.0186061 0)
(-0.0644722 -0.0260157 0)
(-0.061048 -0.0338546 0)
(-0.0559324 -0.0420064 0)
(-0.0487433 -0.0502998 0)
(-0.0391084 -0.0583947 0)
(-0.026889 -0.0652203 0)
(-0.0127853 -0.0664956 0)
(-0.00175295 -0.0424458 0)
(0.00101767 -0.0502493 0)
(0.0142153 -0.0837627 0)
(0.0330015 -0.0821112 0)
(0.0487671 -0.0719692 0)
(0.0601814 -0.0601125 0)
(0.0677976 -0.0485461 0)
(0.0725801 -0.0377576 0)
(0.0753265 -0.0277665 0)
(0.0764676 -0.0185321 0)
(0.0763 -0.0100836 0)
(0.0750014 -0.00240365 0)
(0.0726278 0.00444732 0)
(0.0693236 0.0103763 0)
(0.0652731 0.0153082 0)
(0.0606454 0.0191824 0)
(0.0556674 0.0219551 0)
(0.050572 0.0236444 0)
(0.0455532 0.0243263 0)
(0.0408248 0.0240893 0)
(0.0365049 0.0231111 0)
(0.0327617 0.0215133 0)
(0.0297061 0.0195639 0)
(0.0273006 0.0174027 0)
(0.0255908 0.0152221 0)
(0.0244583 0.0132026 0)
(0.0238991 0.0114479 0)
(0.0238169 0.0101369 0)
(0.0240028 0.00935423 0)
(0.0243447 0.00917352 0)
(0.024656 0.0096521 0)
(0.0247623 0.0107232 0)
(0.0244894 0.0123008 0)
(0.0237149 0.0142727 0)
(0.0222861 0.0164821 0)
(0.0202131 0.0186774 0)
(0.0175958 0.0207275 0)
(0.0144957 0.0225161 0)
(0.0110245 0.0239522 0)
(0.00726388 0.025041 0)
(0.00334843 0.0257425 0)
(-0.000645218 0.0261541 0)
(-0.00477582 0.0262643 0)
(-0.00898504 0.0259206 0)
(-0.013075 0.0250389 0)
(-0.0168382 0.0236686 0)
(-0.0201861 0.0218843 0)
(-0.0229827 0.0197998 0)
(-0.0251578 0.0175674 0)
(-0.0267005 0.0153603 0)
(-0.0276142 0.0133968 0)
(-0.0280144 0.011827 0)
(-0.0280714 0.0107735 0)
(-0.0279234 0.0103508 0)
(-0.0277796 0.0105366 0)
(-0.0278449 0.0113142 0)
(-0.0282431 0.012586 0)
(-0.0291591 0.0142099 0)
(-0.0306603 0.0160108 0)
(-0.0327501 0.0178324 0)
(-0.0354638 0.0195029 0)
(-0.0388274 0.0208822 0)
(-0.0427443 0.0216864 0)
(-0.0470506 0.0217935 0)
(-0.0516267 0.02105 0)
(-0.0562961 0.0193441 0)
(-0.0608384 0.0166108 0)
(-0.0650279 0.0128288 0)
(-0.0686733 0.00803212 0)
(-0.0715796 0.00229236 0)
(-0.0735628 -0.00431675 0)
(-0.0745039 -0.0116918 0)
(-0.0743516 -0.019765 0)
(-0.0729442 -0.0285362 0)
(-0.0700127 -0.0379811 0)
(-0.0651775 -0.0481313 0)
(-0.0577132 -0.0589835 0)
(-0.0467075 -0.0701316 0)
(-0.0316171 -0.0796993 0)
(-0.0136408 -0.0811617 0)
(-0.000968462 -0.0487169 0)
(-0.00113266 -0.0556385 0)
(0.0136591 -0.102603 0)
(0.039166 -0.101413 0)
(0.0597258 -0.0867034 0)
(0.0729293 -0.069784 0)
(0.0803395 -0.0544337 0)
(0.0842042 -0.0411365 0)
(0.085961 -0.0293913 0)
(0.086179 -0.0187372 0)
(0.0851677 -0.00899148 0)
(0.0830249 -0.000153384 0)
(0.0797212 0.00772479 0)
(0.0753891 0.0145568 0)
(0.0702205 0.0202019 0)
(0.0644135 0.0245571 0)
(0.0582449 0.0275733 0)
(0.0520113 0.0292499 0)
(0.0459523 0.0296844 0)
(0.0403304 0.02901 0)
(0.0352873 0.0274172 0)
(0.0310319 0.0251151 0)
(0.0276999 0.0223944 0)
(0.0252059 0.0194838 0)
(0.0235797 0.0165624 0)
(0.0227262 0.013825 0)
(0.0226005 0.0115263 0)
(0.0230845 0.00975562 0)
(0.0239557 0.00870342 0)
(0.0250594 0.00846408 0)
(0.0261279 0.00909142 0)
(0.0268911 0.0105471 0)
(0.0271695 0.0126553 0)
(0.0267676 0.0153218 0)
(0.0254649 0.0182012 0)
(0.0232868 0.0211099 0)
(0.0203977 0.0237814 0)
(0.0168763 0.0260779 0)
(0.0128917 0.027903 0)
(0.00857663 0.029192 0)
(0.0041341 0.0300392 0)
(-0.00030666 0.0305708 0)
(-0.00504088 0.0308393 0)
(-0.00999335 0.0304574 0)
(-0.0148049 0.0293059 0)
(-0.0191802 0.0275242 0)
(-0.0229973 0.0251701 0)
(-0.0260871 0.0223946 0)
(-0.0283314 0.019413 0)
(-0.0296928 0.0164804 0)
(-0.0302174 0.0138724 0)
(-0.0300705 0.0117316 0)
(-0.0294167 0.0103445 0)
(-0.028512 0.00981235 0)
(-0.0276507 0.0101179 0)
(-0.0270607 0.0112375 0)
(-0.0269624 0.0130348 0)
(-0.0275411 0.0152421 0)
(-0.0288939 0.0177748 0)
(-0.0310414 0.020318 0)
(-0.0339773 0.0227289 0)
(-0.0377937 0.0247772 0)
(-0.0423769 0.0261584 0)
(-0.0475107 0.0267007 0)
(-0.0530734 0.0261996 0)
(-0.0588253 0.0244964 0)
(-0.0644974 0.0215341 0)
(-0.0698141 0.0172811 0)
(-0.074515 0.0117799 0)
(-0.0783915 0.00515502 0)
(-0.0812517 -0.00247254 0)
(-0.082975 -0.0109891 0)
(-0.0835823 -0.0203089 0)
(-0.082986 -0.0304373 0)
(-0.0809281 -0.0415342 0)
(-0.07691 -0.0540128 0)
(-0.0696235 -0.0683644 0)
(-0.0569602 -0.0842219 0)
(-0.0373991 -0.0981027 0)
(-0.0131012 -0.0991606 0)
(0.00107385 -0.0539143 0)
(-0.00622055 -0.0579497 0)
(0.0114646 -0.126567 0)
(0.0483974 -0.127824 0)
(0.0756089 -0.105303 0)
(0.0902778 -0.0800592 0)
(0.0961916 -0.0594027 0)
(0.0980108 -0.0432682 0)
(0.0981843 -0.0298659 0)
(0.0973066 -0.0180983 0)
(0.0953448 -0.00715616 0)
(0.0922238 0.0029657 0)
(0.0878776 0.012026 0)
(0.0823642 0.0198897 0)
(0.0758582 0.026343 0)
(0.0686238 0.0312361 0)
(0.0609942 0.0344828 0)
(0.0533485 0.0360792 0)
(0.0460183 0.0361227 0)
(0.0393046 0.0348201 0)
(0.0334023 0.0323746 0)
(0.0285752 0.0291593 0)
(0.0249469 0.0254574 0)
(0.0223725 0.0215535 0)
(0.0208658 0.0176662 0)
(0.0203941 0.0140686 0)
(0.0208546 0.0109986 0)
(0.0220867 0.00862832 0)
(0.023883 0.00718989 0)
(0.0259876 0.00685173 0)
(0.0280912 0.00760444 0)
(0.0297896 0.00956527 0)
(0.0308287 0.0124113 0)
(0.0309062 0.0159958 0)
(0.0297678 0.0198719 0)
(0.0274768 0.0237313 0)
(0.0241562 0.0272631 0)
(0.0200052 0.0302272 0)
(0.0152384 0.0324922 0)
(0.0101765 0.0339621 0)
(0.00516403 0.0348039 0)
(0.000229361 0.0355471 0)
(-0.00522045 0.0361809 0)
(-0.0112336 0.0358571 0)
(-0.01709 0.0344039 0)
(-0.0223353 0.0320371 0)
(-0.0268513 0.028912 0)
(-0.030335 0.0251689 0)
(-0.0326446 0.0211182 0)
(-0.0337383 0.0170913 0)
(-0.0337585 0.0136095 0)
(-0.0328224 0.0108138 0)
(-0.0311743 0.00906147 0)
(-0.0292519 0.00837399 0)
(-0.0273834 0.00887825 0)
(-0.0258956 0.0104671 0)
(-0.0251584 0.0129435 0)
(-0.0253009 0.0160482 0)
(-0.0264361 0.0194762 0)
(-0.0286192 0.0229794 0)
(-0.0317901 0.026335 0)
(-0.0361337 0.0292698 0)
(-0.0415056 0.0314632 0)
(-0.0476481 0.0326193 0)
(-0.0544255 0.0324985 0)
(-0.0615143 0.0308821 0)
(-0.0685724 0.0276989 0)
(-0.0752709 0.0229133 0)
(-0.0812579 0.0166147 0)
(-0.08626 0.00897606 0)
(-0.0901005 0.00019015 0)
(-0.0927056 -0.00958245 0)
(-0.0941462 -0.0200729 0)
(-0.0945182 -0.0313156 0)
(-0.093863 -0.0439837 0)
(-0.0916727 -0.0590755 0)
(-0.0857314 -0.0783124 0)
(-0.0717208 -0.101906 0)
(-0.0460251 -0.123157 0)
(-0.0110885 -0.122034 0)
(0.00582979 -0.0562295 0)
(-0.0142439 -0.0582265 0)
(0.0164316 -0.160321 0)
(0.0722917 -0.164008 0)
(0.105149 -0.126897 0)
(0.116155 -0.0887583 0)
(0.116418 -0.0617561 0)
(0.113958 -0.0434402 0)
(0.111559 -0.0289299 0)
(0.10939 -0.0157884 0)
(0.106755 -0.00374723 0)
(0.102758 0.00741753 0)
(0.097232 0.0176446 0)
(0.0903177 0.0266496 0)
(0.0821957 0.0340519 0)
(0.0732026 0.0395522 0)
(0.0637648 0.0429931 0)
(0.054367 0.0444021 0)
(0.0454627 0.0438669 0)
(0.0374144 0.0416924 0)
(0.0305187 0.0380708 0)
(0.0250746 0.033683 0)
(0.0210956 0.0287407 0)
(0.0184519 0.023574 0)
(0.0171673 0.0184846 0)
(0.0171786 0.0137699 0)
(0.0183568 0.00969521 0)
(0.0205771 0.00651483 0)
(0.0236097 0.00459991 0)
(0.0270541 0.0041721 0)
(0.0305974 0.00528194 0)
(0.0336564 0.00780601 0)
(0.0357568 0.0116852 0)
(0.0365692 0.0164328 0)
(0.0356705 0.0217092 0)
(0.0331503 0.0268599 0)
(0.0292009 0.031435 0)
(0.0240857 0.0352216 0)
(0.0182753 0.037945 0)
(0.0122923 0.0394701 0)
(0.00656559 0.0400908 0)
(0.000880482 0.0411913 0)
(-0.00552146 0.0425538 0)
(-0.0128123 0.0424477 0)
(-0.0200861 0.0407887 0)
(-0.026604 0.0375591 0)
(-0.032114 0.0333646 0)
(-0.0362023 0.02839 0)
(-0.0386425 0.0230649 0)
(-0.0392768 0.0177419 0)
(-0.0383891 0.0129745 0)
(-0.0363131 0.00917212 0)
(-0.033366 0.00673124 0)
(-0.0300531 0.00581602 0)
(-0.0267953 0.00658246 0)
(-0.0241419 0.00883319 0)
(-0.0224637 0.0122255 0)
(-0.0220458 0.0164411 0)
(-0.022959 0.0210702 0)
(-0.0251443 0.0258017 0)
(-0.028607 0.0303798 0)
(-0.0335217 0.0344571 0)
(-0.0398173 0.0377643 0)
(-0.0471982 0.0397716 0)
(-0.0554699 0.0402181 0)
(-0.0642264 0.03881 0)
(-0.0730251 0.0354242 0)
(-0.0814233 0.0300417 0)
(-0.0889521 0.0228012 0)
(-0.0952896 0.0140131 0)
(-0.100257 0.00403613 0)
(-0.103665 -0.00679916 0)
(-0.105688 -0.0184441 0)
(-0.107167 -0.0310249 0)
(-0.108745 -0.0447259 0)
(-0.11038 -0.0618074 0)
(-0.109656 -0.0868454 0)
(-0.0993032 -0.122324 0)
(-0.0688615 -0.157272 0)
(-0.016301 -0.154225 0)
(0.0132124 -0.0568031 0)
(-0.0159118 -0.0593833 0)
(0.0437526 -0.2153 0)
(0.121889 -0.211702 0)
(0.159992 -0.143326 0)
(0.156812 -0.08718 0)
(0.141987 -0.0563382 0)
(0.131486 -0.0394022 0)
(0.126218 -0.0272045 0)
(0.12267 -0.0149977 0)
(0.118833 -0.00151721 0)
(0.114032 0.0118478 0)
(0.107579 0.0241443 0)
(0.0992544 0.0348636 0)
(0.0892517 0.0435714 0)
(0.0780763 0.0498527 0)
(0.0663935 0.0535184 0)
(0.0548399 0.0545861 0)
(0.0440285 0.0531947 0)
(0.0343727 0.0497946 0)
(0.0263963 0.0446597 0)
(0.0203934 0.0386904 0)
(0.0160755 0.0321572 0)
(0.0134343 0.0254298 0)
(0.0124471 0.0188735 0)
(0.0130653 0.0127064 0)
(0.0152094 0.00731349 0)
(0.018848 0.00311271 0)
(0.0236952 0.000531117 0)
(0.0290993 -0.000181657 0)
(0.0343989 0.00105894 0)
(0.0391153 0.00415933 0)
(0.0426476 0.00919407 0)
(0.0443634 0.0158373 0)
(0.043806 0.0231414 0)
(0.0409388 0.0303406 0)
(0.0363352 0.0364846 0)
(0.030423 0.0414019 0)
(0.0235152 0.0446039 0)
(0.0160763 0.0460542 0)
(0.00864108 0.0465099 0)
(0.000947514 0.0480169 0)
(-0.00738934 0.0502893 0)
(-0.0163445 0.0507121 0)
(-0.025216 0.048676 0)
(-0.0331497 0.0443954 0)
(-0.0395546 0.0385083 0)
(-0.0441676 0.0314748 0)
(-0.0467264 0.0238489 0)
(-0.0470887 0.0165627 0)
(-0.0453683 0.010344 0)
(-0.0418839 0.00568059 0)
(-0.0371015 0.00265213 0)
(-0.0316555 0.00162157 0)
(-0.0262618 0.00274495 0)
(-0.0218428 0.00596395 0)
(-0.018956 0.0106782 0)
(-0.0177813 0.0163066 0)
(-0.0183532 0.0224774 0)
(-0.020525 0.0287592 0)
(-0.0242652 0.034867 0)
(-0.029749 0.0404043 0)
(-0.0370523 0.0451998 0)
(-0.0459041 0.0484252 0)
(-0.0559664 0.0497342 0)
(-0.0667873 0.0486754 0)
(-0.0777607 0.0450555 0)
(-0.0882794 0.038898 0)
(-0.0976566 0.0304084 0)
(-0.105384 0.0199408 0)
(-0.111234 0.00792629 0)
(-0.115383 -0.00511919 0)
(-0.118443 -0.0182211 0)
(-0.121011 -0.0300157 0)
(-0.125055 -0.0416927 0)
(-0.13403 -0.0574027 0)
(-0.147669 -0.0855297 0)
(-0.151803 -0.137019 0)
(-0.117627 -0.201153 0)
(-0.0432668 -0.206314 0)
(0.014793 -0.0584985 0)
(0.00364074 -0.0738479 0)
(0.0819571 -0.302102 0)
(0.157422 -0.286935 0)
(0.210175 -0.158788 0)
(0.201092 -0.069142 0)
(0.168158 -0.0375599 0)
(0.147386 -0.0283851 0)
(0.139614 -0.0193381 0)
(0.137457 -0.00733701 0)
(0.135088 0.00610875 0)
(0.129785 0.019842 0)
(0.121712 0.0332689 0)
(0.111273 0.0455096 0)
(0.098793 0.0555593 0)
(0.0848658 0.0626114 0)
(0.0703294 0.066351 0)
(0.0559977 0.0668368 0)
(0.0427924 0.0642425 0)
(0.0312915 0.0592155 0)
(0.0222576 0.0522389 0)
(0.0159441 0.0443089 0)
(0.0116959 0.0358549 0)
(0.00942693 0.0272104 0)
(0.00894335 0.018692 0)
(0.0101982 0.0106056 0)
(0.0135102 0.00344011 0)
(0.0190382 -0.00210411 0)
(0.0262414 -0.00565228 0)
(0.034037 -0.00667783 0)
(0.0415466 -0.00508208 0)
(0.0481277 -0.000748869 0)
(0.0532709 0.00640564 0)
(0.056073 0.0156759 0)
(0.0562263 0.0255271 0)
(0.0539999 0.0347646 0)
(0.0497756 0.0422887 0)
(0.0434699 0.0483219 0)