/*--------------------------------*- C++ -*----------------------------------*\
| =========                 |                                                 |
| \\      /  F ield         | OpenFOAM: The Open Source CFD Toolbox           |
|  \\    /   O peration     | Version:  2412                                  |
|   \\  /    A nd           | Website:  www.openfoam.com                      |
|    \\/     M anipulation  |                                                 |
\*---------------------------------------------------------------------------*/
FoamFile
{
    version     2.0;
    format      ascii;
    arch        "LSB;label=32;scalar=64";
    class       volScalarField;
    location    "2.05";
    object      p;
}
// * * * * * * * * * * * * * * * * * * * * * * * * * * * * * * * * * * * * * //

dimensions      [1 -1 -2 0 0 0 0];

internalField   nonuniform List<scalar> 
6400
(
7420.14
7421.98
7425.3
7430.17
7436.51
7444.2
7453.03
7462.92
7473.7
7485.14
7497.04
7509.21
7521.43
7533.51
7545.26
7556.53
7567.15
7577.02
7586.02
7594.13
7601.24
7607.35
7612.45
7616.55
7619.7
7621.94
7623.36
7624
7624.01
7623.46
7622.45
7621.12
7619.57
7617.92
7616.28
7614.75
7613.42
7612.36
7611.65
7611.31
7611.36
7611.81
7612.63
7613.78
7615.2
7616.82
7618.53
7620.24
7621.84
7623.21
7624.24
7624.81
7624.83
7624.19
7622.8
7620.57
7617.46
7613.4
7608.37
7602.35
7595.34
7587.37
7578.52
7568.82
7558.39
7547.33
7535.8
7523.95
7511.96
7500.02
7488.34
7477.11
7466.55
7456.85
7448.16
7440.61
7434.38
7429.6
7426.34
7424.53
7031.31
7033.33
7036.68
7041.62
7048.06
7055.86
7064.93
7075.05
7086.03
7097.68
7109.8
7122.17
7134.59
7146.85
7158.77
7170.18
7180.93
7190.9
7200
7208.11
7215.23
7221.33
7226.4
7230.46
7233.55
7235.72
7237.05
7237.62
7237.52
7236.87
7235.76
7234.31
7232.66
7230.91
7229.18
7227.56
7226.16
7225.06
7224.3
7223.95
7224
7224.47
7225.34
7226.54
7228.04
7229.73
7231.54
7233.35
7235.05
7236.52
7237.66
7238.33
7238.44
7237.89
7236.57
7234.42
7231.36
7227.34
7222.33
7216.31
7209.3
7201.31
7192.37
7182.57
7172.02
7160.83
7149.13
7137.11
7124.93
7112.79
7100.9
7089.47
7078.69
7068.76
7059.86
7052.19
7045.86
7041.01
7037.72
7035.72
6640.92
6643.02
6646.5
6651.63
6658.32
6666.44
6675.84
6686.33
6697.72
6709.79
6722.32
6735.11
6747.93
6760.56
6772.81
6784.5
6795.49
6805.65
6814.87
6823.08
6830.24
6836.33
6841.35
6845.32
6848.3
6850.33
6851.49
6851.87
6851.57
6850.72
6849.37
6847.7
6845.83
6843.87
6841.94
6840.15
6838.61
6837.38
6836.55
6836.16
6836.22
6836.73
6837.68
6839.01
6840.65
6842.52
6844.53
6846.55
6848.47
6850.16
6851.52
6852.4
6852.7
6852.32
6851.16
6849.14
6846.19
6842.25
6837.28
6831.27
6824.21
6816.13
6807.07
6797.09
6786.31
6774.83
6762.82
6750.44
6737.87
6725.32
6713.03
6701.19
6690.01
6679.71
6670.48
6662.51
6655.93
6650.88
6647.46
6645.4
6248.79
6250.95
6254.65
6260.09
6267.16
6275.74
6285.66
6296.72
6308.72
6321.43
6334.61
6348.03
6361.45
6374.64
6387.4
6399.53
6410.89
6421.34
6430.75
6439.09
6446.31
6452.39
6457.34
6461.18
6463.98
6465.79
6466.69
6466.78
6466.17
6464.95
6463.29
6461.29
6459.07
6456.78
6454.55
6452.49
6450.71
6449.31
6448.35
6447.9
6447.96
6448.55
6449.63
6451.14
6453.02
6455.17
6457.49
6459.83
6462.09
6464.13
6465.82
6467.03
6467.63
6467.52
6466.61
6464.79
6462
6458.18
6453.28
6447.27
6440.15
6431.94
6422.67
6412.42
6401.28
6389.38
6376.88
6363.95
6350.8
6337.65
6324.71
6312.24
6300.46
6289.59
6279.85
6271.42
6264.47
6259.12
6255.48
6253.36
5854.78
5857.05
5861.04
5866.88
5874.48
5883.69
5894.32
5906.17
5919.01
5932.6
5946.67
5960.96
5975.21
5989.17
6002.62
6015.35
6027.19
6038.03
6047.72
6056.23
6063.52
6069.58
6074.42
6078.09
6080.64
6082.15
6082.7
6082.4
6081.36
6079.7
6077.56
6075.07
6072.38
6069.63
6066.97
6064.52
6062.42
6060.76
6059.64
6059.1
6059.17
6059.85
6061.11
6062.9
6065.11
6067.65
6070.39
6073.2
6075.93
6078.45
6080.59
6082.24
6083.26
6083.53
6082.94
6081.41
6078.85
6075.18
6070.37
6064.38
6057.18
6048.8
6039.26
6028.63
6017.01
6004.54
5991.37
5977.69
5963.73
5949.72
5935.92
5922.59
5909.99
5898.35
5887.9
5878.85
5871.38
5865.62
5861.7
5859.47
5458.75
5461.18
5465.54
5471.91
5480.19
5490.2
5501.76
5514.63
5528.57
5543.29
5558.51
5573.94
5589.27
5604.23
5618.56
5632.05
5644.51
5655.8
5665.86
5674.58
5681.95
5687.97
5692.67
5696.1
5698.34
5699.45
5699.55
5698.75
5697.16
5694.92
5692.16
5689.04
5685.73
5682.38
5679.15
5676.2
5673.67
5671.67
5670.32
5669.66
5669.74
5670.55
5672.06
5674.19
5676.85
5679.91
5683.22
5686.63
5689.98
5693.11
5695.86
5698.07
5699.62
5700.37
5700.22
5699.05
5696.78
5693.33
5688.65
5682.67
5675.39
5666.8
5656.93
5645.83
5633.61
5620.39
5606.36
5591.72
5576.71
5561.59
5546.67
5532.23
5518.55
5505.9
5494.54
5484.69
5476.55
5470.27
5465.98
5463.59
5060.51
5063.17
5067.99
5075.02
5084.14
5095.16
5107.88
5122.03
5137.34
5153.49
5170.2
5187.03
5203.71
5219.91
5235.34
5249.77
5263
5274.88
5285.33
5294.28
5301.72
5307.68
5312.18
5315.31
5317.14
5317.77
5317.3
5315.87
5313.59
5310.63
5307.09
5303.19
5299.09
5294.98
5291.03
5287.43
5284.35
5281.92
5280.26
5279.46
5279.55
5280.53
5282.36
5284.94
5288.17
5291.89
5295.92
5300.1
5304.24
5308.14
5311.64
5314.55
5316.76
5318.12
5318.5
5317.78
5315.89
5312.71
5308.19
5302.27
5294.91
5286.08
5275.82
5264.16
5251.19
5237.07
5221.97
5206.12
5189.8
5173.29
5156.95
5141.11
5126.08
5112.17
5099.67
5088.82
5079.84
5072.91
5068.16
5065.54
4659.83
4662.79
4668.18
4676.02
4686.16
4698.42
4712.55
4728.27
4745.26
4763.16
4781.66
4800.27
4818.62
4836.35
4853.14
4868.7
4882.84
4895.4
4906.29
4915.49
4922.98
4928.82
4933.07
4935.81
4937.13
4937.16
4936.01
4933.8
4930.69
4926.82
4922.37
4917.51
4912.45
4907.39
4902.54
4898.13
4894.34
4891.36
4889.32
4888.33
4888.43
4889.63
4891.86
4895.02
4898.97
4903.51
4908.46
4913.59
4918.69
4923.55
4927.97
4931.75
4934.75
4936.83
4937.85
4937.69
4936.25
4933.43
4929.13
4923.3
4915.87
4906.8
4896.1
4883.78
4869.94
4854.72
4838.33
4821
4803.06
4784.86
4766.73
4749.17
4732.48
4717.03
4703.13
4691.05
4681.05
4673.32
4668
4665.09
4256.44
4259.78
4265.85
4274.66
4286.04
4299.78
4315.62
4333.23
4352.26
4372.25
4393
4413.77
4434.16
4453.75
4472.15
4489.06
4504.25
4517.57
4528.96
4538.38
4545.89
4551.55
4555.45
4557.7
4558.41
4557.72
4555.74
4552.63
4548.52
4543.56
4538.02
4532
4525.76
4519.53
4513.58
4508.15
4503.48
4499.8
4497.28
4496.05
4496.17
4497.64
4500.38
4504.27
4509.11
4514.69
4520.77
4527.07
4533.35
4539.37
4544.9
4549.69
4553.64
4556.58
4558.36
4558.87
4557.98
4555.59
4551.6
4545.91
4538.45
4529.14
4517.96
4504.91
4490.06
4473.56
4455.61
4436.49
4416.58
4396.28
4375.98
4356.35
4337.65
4320.32
4304.73
4291.18
4279.96
4271.26
4265.25
4261.96
3849.99
3853.8
3860.71
3870.67
3883.51
3899.01
3916.88
3936.77
3958.3
3981.11
4004.31
4027.65
4050.5
4072.31
4092.63
4111.11
4127.51
4141.67
4153.55
4163.18
4170.63
4176.02
4179.46
4181.1
4181.08
4179.53
4176.59
4172.41
4167.14
4160.96
4154.07
4146.66
4139
4131.36
4124.03
4117.34
4111.58
4107.02
4103.89
4102.35
4102.49
4104.3
4107.69
4112.48
4118.45
4125.32
4132.78
4140.51
4148.21
4155.6
4162.4
4168.44
4173.51
4177.45
4180.12
4181.41
4181.19
4179.34
4175.74
4170.28
4162.85
4153.34
4141.67
4127.81
4111.83
4093.83
4074.04
4052.78
4030.49
4007.68
3984.93
3962.58
3941.42
3921.84
3904.24
3888.95
3876.26
3866.42
3859.58
3855.81
3440.05
3444.45
3452.36
3463.69
3478.26
3495.81
3516.06
3538.62
3563.07
3588.96
3615.47
3642
3667.84
3692.34
3714.93
3735.22
3752.96
3768.01
3780.37
3790.11
3797.41
3802.4
3805.25
3806.15
3805.25
3802.69
3798.64
3793.23
3786.63
3779
3770.56
3761.5
3752.13
3742.77
3733.78
3725.52
3718.38
3712.71
3708.8
3706.88
3707.03
3709.27
3713.48
3719.42
3726.8
3735.26
3744.42
3753.89
3763.3
3772.32
3780.64
3788.1
3794.44
3799.53
3803.24
3805.43
3806
3804.8
3801.72
3796.6
3789.3
3779.67
3767.54
3752.83
3735.59
3715.87
3693.92
3670.08
3644.89
3618.97
3593
3567.6
3543.56
3521.32
3501.35
3484.02
3469.63
3458.42
3450.58
3446.21
3026.13
3031.26
3040.37
3053.31
3069.87
3089.81
3112.82
3138.52
3166.48
3196.1
3226.55
3256.98
3286.48
3314.21
3339.48
3361.84
3381.02
3396.99
3409.71
3419.41
3426.44
3430.86
3432.97
3432.96
3431.02
3427.31
3421.98
3415.18
3407.06
3397.76
3387.52
3376.54
3365.15
3353.71
3342.65
3332.44
3323.57
3316.5
3311.6
3309.17
3309.36
3312.14
3317.38
3324.77
3333.91
3344.35
3355.6
3367.18
3378.64
3389.62
3399.71
3408.76
3416.56
3422.95
3427.81
3431.03
3432.52
3432.12
3429.69
3425.06
3418.05
3408.43
3395.97
3380.35
3361.77
3340.13
3315.63
3288.71
3259.98
3230.25
3200.42
3171.32
3143.79
3118.43
3095.71
3076
3059.62
3046.81
3037.76
3032.63
2607.59
2613.6
2624.16
2638.99
2657.86
2680.53
2706.7
2736.03
2768.19
2802.29
2837.54
2872.8
2906.81
2938.45
2966.87
2991.55
3012.23
3029.1
3041.91
3051.27
3057.98
3061.56
3062.72
3061.63
3058.49
3053.46
3046.7
3038.35
3028.53
3017.35
3005
2991.83
2978.04
2964.09
2950.48
2937.84
2926.79
2917.92
2911.75
2908.67
2908.87
2912.35
2918.91
2928.14
2939.51
2952.42
2966.25
2980.37
2994.28
3007.6
3019.68
3030.55
3039.96
3047.77
3053.9
3058.3
3060.84
3061.4
3059.8
3055.84
3049.35
3039.93
3027.48
3010.78
2990.95
2967.18
2939.72
2909.06
2875.97
2841.55
2806.99
2773.44
2741.72
2712.73
2686.84
2664.4
2645.72
2631.02
2620.5
2614.44
2183.67
2190.74
2203.06
2220.14
2241.67
2267.43
2297.11
2330.44
2367.46
2407.11
2448.37
2489.71
2529.38
2565.81
2597.91
2625.33
2647.38
2664.6
2677.35
2686.25
2691.9
2694.55
2694.59
2692.23
2687.7
2681.2
2672.88
2662.84
2651.15
2637.89
2623.23
2607.43
2590.8
2573.79
2557.04
2541.34
2527.52
2516.36
2508.54
2504.61
2504.83
2509.2
2517.45
2529.03
2543.23
2559.25
2576.25
2593.45
2610.2
2625.94
2640.61
2653.59
2664.77
2674.1
2681.6
2687.27
2691.03
2692.71
2692.14
2688.99
2683.25
2674.4
2661.98
2645.3
2624.12
2597.82
2566.91
2531.71
2493.19
2452.84
2412.36
2373.29
2336.72
2303.65
2274.19
2248.66
2227.33
2210.39
2198.06
2190.86
1753.6
1761.75
1776.31
1796.1
1820.71
1849.89
1883.39
1920.87
1963.66
2010
2058.87
2108.07
2154.97
2197.32
2233.86
2263.82
2286.99
2304.29
2316.43
2324.31
2328.67
2330
2328.65
2324.81
2318.67
2310.52
2300.53
2288.72
2275.05
2259.52
2242.26
2223.53
2203.49
2182.77
2162.1
2142.51
2125.13
2111
2101.04
2095.98
2096.21
2101.74
2112.18
2126.8
2144.63
2164.59
2185.57
2206.54
2226.75
2245.64
2262.88
2278.09
2291.12
2302
2310.89
2317.93
2323.06
2326.06
2326.69
2324.79
2320.14
2312.26
2300.51
2283.94
2261.84
2233.28
2198.24
2157.5
2112.06
2064.05
2016.05
1970.28
1928.06
1890.54
1857.17
1828.16
1803.79
1784.21
1769.55
1761.07
1316.93
1325.59
1342.6
1365.81
1394.16
1427.19
1464.85
1507.77
1555.58
1609.86
1668.67
1728.42
1784.86
1834.53
1876.26
1908.29
1932.18
1948.96
1959.71
1965.68
1968.22
1967.89
1964.91
1959.32
1951.26
1941.28
1929.55
1915.94
1900.24
1882.27
1862.09
1839.85
1816.01
1790.72
1765.06
1740.53
1718.64
1700.7
1687.93
1681.36
1681.59
1688.65
1701.97
1720.48
1742.89
1767.81
1793.78
1819.34
1843.47
1866.23
1886.53
1904.16
1919.06
1931.4
1941.62
1950.1
1956.85
1961.43
1963.52
1963.09
1960.04
1953.88
1943.67
1927.8
1905.27
1874.97
1835.21
1787.73
1733.24
1674.97
1617.08
1563.15
1515.15
1472.54
1434.99
1402.05
1373.98
1351.14
1333.98
1324.62
872.122
879.282
898.789
927.045
960.678
998.4
1039.81
1085.35
1139.45
1203.78
1276.28
1351.04
1420.73
1479.74
1526.6
1560.27
1583.83
1598.59
1606.72
1610.31
1610.5
1608.12
1603.24
1595.55
1585.03
1573.19
1559.96
1544.75
1526.99
1506.34
1482.96
1457.08
1428.88
1397.69
1365.46
1334.47
1306.65
1283.6
1266.96
1258.24
1258.45
1267.61
1284.84
1308.6
1337.11
1368.58
1401.16
1432.8
1462.04
1488.41
1511.94
1532.15
1548.91
1562.47
1573.6
1583.29
1591.95
1598.59
1602.51
1603.84
1602.81
1599.04
1591.06
1577.64
1555.78
1524.15
1480.23
1424.25
1357.28
1284.37
1212.86
1148.56
1093.93
1048.32
1006.85
968.952
935.409
907.823
888.125
879.953
416.974
416.656
439.428
475.715
517.576
562.442
609.306
654.801
713.124
789.707
881.683
978.396
1066.68
1137.24
1187.08
1221.61
1243.88
1255.71
1259.86
1258.31
1254.76
1250.29
1244.02
1233.94
1219.54
1206.08
1191.73
1175.34
1155.63
1131.8
1104.59
1074.6
1041.15
1001.96
961.103
922.664
887.95
858.785
837.347
825.739
825.869
837.913
860.11
890.291
926.084
965.023
1005.35
1044.17
1079.92
1111.26
1139.18
1162.5
1181.08
1195.34
1206.69
1217.23
1228.44
1238.08
1243.51
1246.32
1248.32
1249.18
1245.63
1235.58
1215.36
1183.33
1136.87
1071.24
986.966
892.432
801.554
724.495
664.183
619.326
572.047
526.533
484.432
448.898
425.495
423.364
86.3226
76.6736
90.6035
112.657
140.346
169.74
200.207
236.673
285.846
365.274
478.689
610.337
728.015
809.185
860.118
892.801
911.803
917.19
914.504
906.485
899.613
894.555
887.447
872.519
854.756
839.476
824.474
807.172
784.897
757.161
727.079
694.835
653.951
609.501
556.091
508.009
462.563
422.226
391.412
374.345
374.291
391.457
423.021
464.843
512.532
562.017
613.303
660.807
701.675
736.25
767.9
794.33
814.699
829.723
840.781
851.23
864.804
879.744
887.171
888.934
892.574
898.827
901.793
900.805
884.458
854.404
807.744
733.622
623.15
492.515
379.857
298.163
244.85
207.339
176.055
145.739
117.437
96.1417
81.4796
86.0692
-2.74324
-1.90683
-1.10116
-0.0258564
3.15073
10.9455
18.6356
24.0212
38.8425
79.1242
167.006
301.896
438.721
518.158
556.291
579
591.198
592.964
583.96
574.433
560.64
545.187
525.77
503.502
485.279
473.205
462.268
447.555
424.827
392.745
362.463
334.862
296.42
244.178
193.28
152.773
115.511
87.732
69.9103
61.0114
60.8561
69.543
87.5882
116.134
155.817
201.856
249.605
301.714
341.934
376.755
410.296
438.335
457.553
469.526
476.225
481.498
491.925
511.227
531.748
547.66
560.596
570.208
581.834
580.005
569.826
549.352
515.96
446.906
318.422
182.494
90.5907
45.565
26.6359
19.8578
12.6029
4.68499
0.275631
-0.727829
-1.37353
-2.21024
-3.25134
-2.82284
-2.27678
-2.02445
-2.26799
-1.54314
-1.61783
-2.60228
0.0780906
9.80287
46.5901
115.488
202.889
250.441
263.209
271.828
273.31
263.862
248.841
232.17
214.288
192.159
171.398
158.747
153.757
153.696
153.995
150.103
138.835
119.597
99.7232
87.9194
58.9954
27.914
12.2198
1.45209
-5.31259
-7.56175
-7.9677
-8.02901
-8.0239
-7.95235
-7.59802
-5.24141
2.40197
15.0099
32.163
61.3257
93.6396
109.118
133.906
151.894
159.764
160.582
157.384
152.441
149.209
155.36
172.196
194.835
213.998
231.282
246.928
258.775
262.151
254.934
245.888
209.084
123.154
54.7229
13.2037
0.848614
-0.724435
-1.36384
-1.4267
-1.77383
-1.67185
-1.75805
-2.25863
-2.68941
-4.59179
-4.36673
-4.15009
-4.53316
-5.86553
-7.17785
-7.70705
-7.50444
-7.14976
-4.78719
12.9085
57.8354
64.9408
56.8856
53.6104
55.427
53.5078
44.2166
34.1506
23.3667
13.4628
5.83385
0.816072
-1.70035
-2.42314
-2.17447
-2.06371
-4.24043
-8.80465
-10.6662
-10.7273
-11.1211
-11.466
-10.6097
-10.2603
-10.0963
-9.66261
-9.23446
-9.02066
-8.96512
-8.96926
-9.04548
-9.30812
-9.78776
-10.2049
-10.2706
-10.404
-10.2767
-9.67443
-10.5916
-9.67166
-4.641
-0.374535
0.4343
-0.722556
-2.54564
-4.06635
-3.02135
0.0470695
5.51848
14.3368
25.3338
36.2925
47.9849
55.0584
52.6773
51.8668
60.2309
57.0619
20.5567
-5.33086
-8.79891
-7.95279
-7.55508
-6.79313
-5.02518
-3.69416
-3.45212
-3.70677
-3.97946
-6.04065
-6.14039
-6.32274
-7.11349
-8.70797
-10.0943
-10.6563
-9.8798
-9.67139
-10.9375
-12.9976
-13.4945
-13.843
-14.1205
-14.1866
-14.0708
-13.7289
-13.1765
-12.5507
-11.9429
-11.4118
-10.9852
-10.6985
-10.5874
-10.6341
-10.7683
-10.9056
-11.0065
-11.0931
-10.9445
-10.978
-11.1057
-11.2057
-11.0127
-10.7487
-10.4738
-10.1868
-9.9326
-9.76769
-9.70356
-9.71735
-9.819
-10.0335
-10.3445
-10.6477
-10.8878
-11.1276
-11.3506
-11.2287
-10.8953
-10.817
-10.828
-10.8102
-10.7432
-10.6738
-10.5997
-10.5253
-10.5299
-10.654
-10.9385
-11.3709
-11.926
-12.5587
-13.1565
-13.5391
-13.6947
-13.7286
-13.5787
-13.2213
-12.9195
-11.5153
-10.2271
-10.5151
-10.7219
-10.0358
-8.30991
-6.50001
-5.76008
-5.62305
-5.62223
-7.20544
-7.53823
-7.95884
-8.78212
-10.0391
-11.2777
-12.1647
-12.3937
-12.309
-12.4545
-12.8556
-13.0428
-13.3642
-13.7542
-14.0362
-14.1325
-14.0194
-13.7083
-13.2601
-12.7525
-12.2588
-11.8379
-11.5375
-11.3674
-11.2987
-11.2934
-11.312
-11.3327
-11.3179
-11.2712
-11.3294
-11.3849
-11.4008
-11.3296
-11.1603
-10.9532
-10.7492
-10.5845
-10.4766
-10.4325
-10.4544
-10.5521
-10.7283
-10.954
-11.1861
-11.3555
-11.423
-11.4391
-11.4095
-11.2674
-11.2023
-11.2248
-11.2454
-11.2276
-11.2044
-11.2007
-11.226
-11.3067
-11.4885
-11.8163
-12.2776
-12.7753
-13.2012
-13.5029
-13.6533
-13.6371
-13.4802
-13.2019
-12.9262
-12.7664
-12.4451
-12.2316
-12.1948
-11.9655
-11.1625
-9.90137
-8.57696
-7.80894
-7.38683
-7.05378
-8.37255
-8.69935
-9.14479
-9.84585
-10.869
-11.9857
-12.8219
-13.1368
-13.0937
-13.2142
-13.5435
-13.8488
-14.1063
-14.3732
-14.562
-14.6129
-14.5103
-14.2585
-13.8924
-13.4664
-13.0388
-12.6625
-12.3642
-12.1482
-11.996
-11.8911
-11.8159
-11.7544
-11.7033
-11.6756
-11.6783
-11.7082
-11.7408
-11.7213
-11.6175
-11.4743
-11.333
-11.2185
-11.1428
-11.1122
-11.134
-11.2197
-11.3549
-11.5261
-11.6843
-11.7607
-11.729
-11.6697
-11.6373
-11.65
-11.6765
-11.7095
-11.7467
-11.7712
-11.7927
-11.8395
-11.9319
-12.0894
-12.331
-12.6572
-13.0355
-13.3968
-13.6926
-13.9141
-14.0554
-14.0883
-14.0234
-13.8552
-13.6447
-13.4265
-13.1147
-12.9323
-12.873
-12.533
-11.7514
-10.7118
-9.71578
-9.0937
-8.67946
-8.35355
-9.56698
-9.85417
-10.2331
-10.7889
-11.5492
-12.419
-13.1367
-13.4936
-13.5811
-13.6733
-13.8831
-14.1778
-14.5048
-14.8467
-15.0866
-15.1782
-15.1116
-14.903
-14.5755
-14.1765
-13.7661
-13.3919
-13.0776
-12.8272
-12.6348
-12.4913
-12.3875
-12.3138
-12.2661
-12.2388
-12.2233
-12.2191
-12.2111
-12.1762
-12.1063
-12.0014
-11.903
-11.8204
-11.7661
-11.7445
-11.7625
-11.8239
-11.92
-12.035
-12.127
-12.1608
-12.1234
-12.0892
-12.118
-12.1665
-12.2152
-12.2556
-12.2881
-12.3209
-12.368
-12.4493
-12.5848
-12.7847
-13.0549
-13.3863
-13.7321
-14.0413
-14.2874
-14.4627
-14.5634
-14.5703
-14.4511
-14.2365
-13.9553
-13.7013
-13.4996
-13.3799
-13.1859
-12.7976
-12.147
-11.339
-10.5959
-10.1093
-9.77917
-9.5326
-10.7443
-10.9764
-11.2729
-11.6977
-12.2558
-12.8888
-13.4709
-13.8852
-14.1262
-14.307
-14.5037
-14.7466
-15.05
-15.369
-15.6039
-15.6891
-15.6359
-15.4568
-15.1616
-14.7893
-14.3961
-14.0284
-13.7102
-13.4467
-13.2349
-13.0714
-12.9526
-12.8722
-12.8195
-12.7847
-12.7604
-12.7405
-12.7136
-12.6674
-12.6099
-12.5373
-12.4662
-12.4046
-12.363
-12.3458
-12.3579
-12.4001
-12.4644
-12.5346
-12.5862
-12.6046
-12.5928
-12.6024
-12.6326
-12.6861
-12.7345
-12.7783
-12.8228
-12.8727
-12.941
-13.045
-13.2008
-13.4162
-13.6935
-14.016
-14.3319
-14.6032
-14.8255
-15.0026
-15.1027
-15.1125
-15.0189
-14.7811
-14.4749
-14.2167
-14.0279
-13.8114
-13.5224
-13.1434
-12.6426
-12.05
-11.5124
-11.1297
-10.8622
-10.6607
-11.8058
-11.9819
-12.2113
-12.5415
-12.9652
-13.4414
-13.8988
-14.2939
-14.6029
-14.8516
-15.0706
-15.2785
-15.5175
-15.7838
-16.0082
-16.0995
-16.0512
-15.877
-15.6098
-15.2728
-14.9113
-14.568
-14.266
-14.0116
-13.8038
-13.6402
-13.5179
-13.4305
-13.3688
-13.3242
-13.2896
-13.2572
-13.2208
-13.1781
-13.128
-13.0741
-13.0218
-12.9723
-12.9407
-12.9277
-12.9359
-12.965
-13.0075
-13.0504
-13.0822
-13.0998
-13.1049
-13.1253
-13.1611
-13.2094
-13.2592
-13.308
-13.3599
-13.4199
-13.4982
-13.6094
-13.7671
-13.9792
-14.2473
-14.546
-14.833
-15.0826
-15.2963
-15.4645
-15.5512
-15.5438
-15.4387
-15.2212
-14.9378
-14.6832
-14.4738
-14.2232
-13.9289
-13.6184
-13.2453
-12.8029
-12.3913
-12.0753
-11.8539
-11.6922
-12.7296
-12.8607
-13.0415
-13.3102
-13.6471
-14.021
-14.3859
-14.7222
-15.0332
-15.3127
-15.5643
-15.773
-15.9756
-16.171
-16.3229
-16.3776
-16.3236
-16.1648
-15.9387
-15.6552
-15.3423
-15.04
-14.7696
-14.5378
-14.3452
-14.1901
-14.0696
-13.9787
-13.9101
-13.8571
-13.8136
-13.774
-13.7346
-13.6937
-13.6504
-13.6066
-13.5653
-13.5293
-13.5045
-13.4939
-13.4995
-13.5197
-13.5481
-13.5762
-13.5988
-13.6144
-13.6301
-13.6548
-13.69
-13.7338
-13.7823
-13.8334
-13.8895
-13.9549
-14.0375
-14.148
-14.2972
-14.4928
-14.735
-15.0012
-15.2626
-15.4978
-15.6997
-15.8403
-15.9045
-15.8867
-15.7973
-15.6271
-15.3897
-15.1273
-14.8789
-14.6309
-14.3805
-14.1497
-13.8634
-13.5148
-13.177
-12.9069
-12.722
-12.597
-13.5456
-13.6447
-13.7933
-14.0179
-14.2937
-14.5989
-14.8998
-15.1788
-15.4538
-15.7372
-16.0134
-16.2639
-16.4557
-16.5623
-16.6149
-16.6597
-16.5958
-16.435
-16.2277
-15.991
-15.7292
-15.4723
-15.2391
-15.0355
-14.8627
-14.7198
-14.6048
-14.5138
-14.4419
-14.3839
-14.3353
-14.2925
-14.2524
-14.2133
-14.1747
-14.1374
-14.1033
-14.0748
-14.0551
-14.0468
-14.0507
-14.0646
-14.0835
-14.1029
-14.1206
-14.1373
-14.1565
-14.1819
-14.215
-14.2553
-14.3012
-14.3522
-14.4097
-14.4771
-14.5602
-14.6658
-14.8009
-14.9713
-15.1767
-15.4043
-15.6353
-15.8521
-16.0376
-16.1758
-16.2573
-16.2761
-16.2153
-16.0887
-15.89
-15.6199
-15.3081
-15.0657
-14.8686
-14.6889
-14.4569
-14.1681
-13.8855
-13.6541
-13.4972
-13.3976
-14.2836
-14.3617
-14.4902
-14.6824
-14.9151
-15.1713
-15.4247
-15.6581
-15.8839
-16.1323
-16.4015
-16.6774
-16.8837
-16.9718
-16.9944
-16.9674
-16.8757
-16.716
-16.5225
-16.3184
-16.1021
-15.8886
-15.6913
-15.5154
-15.3625
-15.2328
-15.1249
-15.0365
-14.9643
-14.9049
-14.8547
-14.8108
-14.7711
-14.734
-14.6989
-14.6661
-14.6368
-14.6128
-14.5964
-14.5893
-14.592
-14.6017
-14.6146
-14.6287
-14.6436
-14.6602
-14.6801
-14.705
-14.7358
-14.773
-14.8161
-14.8654
-14.9224
-14.9896
-15.071
-15.1705
-15.2918
-15.4376
-15.6068
-15.7928
-15.9849
-16.1713
-16.3384
-16.4761
-16.5792
-16.6515
-16.6538
-16.5785
-16.4104
-16.169
-15.8461
-15.5731
-15.3958
-15.234
-15.0291
-14.7831
-14.5443
-14.3449
-14.2079
-14.1242
-14.9504
-15.0217
-15.1403
-15.3133
-15.5192
-15.7439
-15.9626
-16.1564
-16.3306
-16.5152
-16.7256
-16.9623
-17.1577
-17.2423
-17.2555
-17.2171
-17.1263
-16.9898
-16.8283
-16.6568
-16.4798
-16.3037
-16.137
-15.985
-15.8501
-15.7331
-15.6334
-15.5496
-15.4796
-15.4211
-15.3712
-15.3278
-15.2891
-15.2539
-15.2216
-15.1922
-15.1663
-15.1453
-15.131
-15.1242
-15.1253
-15.1329
-15.1421
-15.1528
-15.1656
-15.1814
-15.2007
-15.2243
-15.2532
-15.2877
-15.3282
-15.3753
-15.4305
-15.4958
-15.5737
-15.6665
-15.776
-15.903
-16.0457
-16.1992
-16.3561
-16.508
-16.6459
-16.763
-16.8569
-16.9273
-16.9542
-16.9178
-16.8436
-16.6825
-16.4252
-16.1486
-15.9583
-15.7952
-15.603
-15.3836
-15.1724
-14.9925
-14.866
-14.7872
-15.5484
-15.6285
-15.7457
-15.9132
-16.1103
-16.3217
-16.5226
-16.6878
-16.8123
-16.9179
-17.031
-17.171
-17.3156
-17.4066
-17.4444
-17.4368
-17.3822
-17.2843
-17.1587
-17.0187
-16.8718
-16.7236
-16.5809
-16.4486
-16.3295
-16.2244
-16.1334
-16.0554
-15.9891
-15.9328
-15.8844
-15.8423
-15.8051
-15.7718
-15.7419
-15.7152
-15.6921
-15.6734
-15.6606
-15.6535
-15.6534
-15.6586
-15.6655
-15.6743
-15.6856
-15.7003
-15.7185
-15.7408
-15.7678
-15.8001
-15.8382
-15.883
-15.9357
-15.9978
-16.0709
-16.1562
-16.2549
-16.3669
-16.4905
-16.6217
-16.7546
-16.8821
-16.9966
-17.092
-17.1637
-17.2041
-17.204
-17.1731
-17.1257
-17.032
-16.8801
-16.6861
-16.5215
-16.376
-16.194
-15.9831
-15.7795
-15.6039
-15.4776
-15.3884
-16.082
-16.1865
-16.3076
-16.4824
-16.6891
-16.9097
-17.1167
-17.2781
-17.3726
-17.4117
-17.4333
-17.4714
-17.5612
-17.6594
-17.7231
-17.7361
-17.6993
-17.6228
-17.5197
-17.4011
-17.275
-17.1476
-17.0241
-16.9085
-16.8033
-16.7095
-16.627
-16.5553
-16.4933
-16.4403
-16.3941
-16.3539
-16.3185
-16.2872
-16.2594
-16.2351
-16.2142
-16.1974
-16.1854
-16.1784
-16.1763
-16.18
-16.1856
-16.1931
-16.2033
-16.2169
-16.234
-16.255
-16.2804
-16.3107
-16.3466
-16.3889
-16.4386
-16.4966
-16.5641
-16.6418
-16.7303
-16.8294
-16.9375
-17.0515
-17.1669
-17.278
-17.3786
-17.4626
-17.5227
-17.5493
-17.5349
-17.4821
-17.4107
-17.3437
-17.2686
-17.1788
-17.0923
-16.9827
-16.8039
-16.5828
-16.368
-16.1812
-16.0437
-15.928
-16.5329
-16.7131
-16.8258
-17.0224
-17.2562
-17.5132
-17.7601
-17.9597
-18.0759
-18.0985
-18.0603
-18.0245
-18.0473
-18.0873
-18.1137
-18.1091
-18.0679
-17.9956
-17.9024
-17.7972
-17.6865
-17.5753
-17.4676
-17.3663
-17.2735
-17.1898
-17.1155
-17.0503
-16.9932
-16.9436
-16.9002
-16.8623
-16.829
-16.7997
-16.774
-16.7517
-16.7328
-16.7176
-16.7065
-16.6993
-16.6946
-16.6975
-16.7023
-16.7091
-16.7186
-16.7313
-16.7474
-16.7671
-16.791
-16.8195
-16.8532
-16.8928
-16.9389
-16.9924
-17.054
-17.1243
-17.2036
-17.2915
-17.3868
-17.4872
-17.5894
-17.6891
-17.7817
-17.862
-17.9234
-17.9577
-17.9599
-17.9343
-17.9114
-17.8786
-17.8407
-17.7955
-17.7519
-17.647
-17.4398
-17.183
-16.9405
-16.7248
-16.5798
-16.3814
-16.915
-17.1708
-17.3052
-17.5348
-17.8161
-18.1451
-18.4779
-18.7821
-19.0053
-19.1026
-19.059
-18.9314
-18.7696
-18.6599
-18.5959
-18.5381
-18.4712
-18.391
-18.3
-18.2029
-18.1038
-18.0057
-17.9112
-17.8225
-17.7407
-17.6665
-17.6
-17.541
-17.489
-17.4432
-17.403
-17.3676
-17.3365
-17.3093
-17.2856
-17.2651
-17.248
-17.2343
-17.2241
-17.2167
-17.2105
-17.2124
-17.2163
-17.2226
-17.2315
-17.2434
-17.2586
-17.2771
-17.2995
-17.3262
-17.3575
-17.3941
-17.4365
-17.4854
-17.5411
-17.6043
-17.6749
-17.7528
-17.8371
-17.9263
-18.0182
-18.1102
-18.1996
-18.2834
-18.359
-18.4237
-18.4805
-18.572
-18.7195
-18.8474
-18.9084
-18.8338
-18.6696
-18.4501
-18.13
-17.7927
-17.5013
-17.2405
-17.0574
-16.75
-17.3101
-17.5342
-17.7755
-18.0353
-18.3855
-18.8391
-19.3424
-19.858
-20.2901
-20.5344
-20.4799
-20.176
-19.714
-19.3411
-19.1262
-18.9949
-18.8906
-18.7961
-18.7041
-18.613
-18.5236
-18.437
-18.3545
-18.277
-18.2054
-18.1401
-18.0811
-18.0283
-17.9813
-17.9395
-17.9025
-17.8699
-17.8411
-17.816
-17.7941
-17.7753
-17.7598
-17.7475
-17.7382
-17.7304
-17.7248
-17.7251
-17.728
-17.7337
-17.7421
-17.7533
-17.7675
-17.7849
-17.8058
-17.8305
-17.8595
-17.893
-17.9316
-17.9757
-18.0257
-18.0819
-18.1444
-18.213
-18.2873
-18.3664
-18.4493
-18.5349
-18.6227
-18.7138
-18.8119
-18.9212
-19.0796
-19.4163
-19.8883
-20.3135
-20.4821
-20.3447
-19.9681
-19.4615
-18.9003
-18.4299
-18.0634
-17.7519
-17.4272
-17.1053
-17.8525
-17.9743
-18.2297
-18.538
-18.9686
-19.5715
-20.2907
-21.0226
-21.6433
-21.9771
-21.91
-21.474
-20.7091
-20.0554
-19.6476
-19.4404
-19.3048
-19.1983
-19.1071
-19.0231
-18.9436
-18.8682
-18.7969
-18.7302
-18.6682
-18.6113
-18.5596
-18.5127
-18.4706
-18.4329
-18.3993
-18.3694
-18.3431
-18.3199
-18.2999
-18.2825
-18.2683
-18.257
-18.2483
-18.2404
-18.2358
-18.2354
-18.2375
-18.2428
-18.2506
-18.2611
-18.2744
-18.2906
-18.3098
-18.3325
-18.359
-18.3894
-18.4242
-18.4636
-18.508
-18.5574
-18.6121
-18.6719
-18.7365
-18.8058
-18.8795
-18.9579
-19.0426
-19.1393
-19.2556
-19.41
-19.7053
-20.2826
-20.9953
-21.5479
-21.7796
-21.6878
-21.2312
-20.4571
-19.6689
-19.0797
-18.6311
-18.266
-17.9075
-17.6879
-18.4867
-18.5061
-18.6593
-19.0002
-19.5015
-20.2041
-21.076
-21.9288
-22.6
-22.9273
-22.8246
-22.31
-21.4804
-20.6502
-20.106
-19.8413
-19.6945
-19.5887
-19.5042
-19.4306
-19.3627
-19.299
-19.2389
-19.1824
-19.1296
-19.0808
-19.0359
-18.9948
-18.9575
-18.9239
-18.8936
-18.8666
-18.8425
-18.8214
-18.8029
-18.787
-18.7739
-18.7633
-18.755
-18.7468
-18.7443
-18.7435
-18.7452
-18.75
-18.7571
-18.7669
-18.7792
-18.7941
-18.8117
-18.8324
-18.8563
-18.8836
-18.9146
-18.9495
-18.9883
-19.0313
-19.0784
-19.1296
-19.1847
-19.2439
-19.3073
-19.376
-19.4533
-19.5469
-19.6663
-19.8509
-20.2425
-20.9388
-21.6905
-22.2788
-22.5626
-22.4993
-22.0058
-21.1523
-20.3226
-19.6687
-19.164
-18.7903
-18.601
-18.5354
-19.0521
-18.9956
-19.0655
-19.3758
-19.8912
-20.5981
-21.4875
-22.3653
-23.0227
-23.317
-23.1792
-22.6031
-21.7861
-20.9862
-20.4476
-20.1841
-20.0531
-19.9647
-19.8953
-19.8359
-19.7814
-19.7299
-19.6809
-19.6344
-19.5904
-19.5491
-19.5107
-19.4752
-19.4426
-19.4129
-19.3859
-19.3616
-19.3399
-19.3207
-19.3038
-19.2893
-19.2772
-19.2673
-19.2595
-19.2524
-19.2508
-19.2498
-19.2512
-19.2555
-19.2619
-19.271
-19.2821
-19.2957
-19.3117
-19.3303
-19.3517
-19.376
-19.4033
-19.4337
-19.4673
-19.504
-19.5439
-19.5867
-19.6325
-19.6812
-19.7331
-19.7892
-19.8534
-19.9321
-20.0359
-20.2161
-20.597
-21.2259
-21.9191
-22.5197
-22.8381
-22.7676
-22.275
-21.4848
-20.7167
-20.0812
-19.5718
-19.2573
-19.2187
-19.2633
-19.571
-19.5142
-19.5559
-19.7626
-20.1543
-20.7481
-21.5157
-22.2822
-22.8403
-23.0514
-22.8451
-22.352
-21.6896
-21.086
-20.6809
-20.4822
-20.3918
-20.3328
-20.2845
-20.242
-20.2017
-20.1625
-20.1242
-20.0871
-20.0513
-20.0172
-19.9848
-19.9545
-19.9264
-19.9004
-19.8766
-19.855
-19.8356
-19.8183
-19.803
-19.7898
-19.7788
-19.7698
-19.7631
-19.7577
-19.7558
-19.7545
-19.7557
-19.7595
-19.7653
-19.7734
-19.7834
-19.7956
-19.8099
-19.8265
-19.8455
-19.8668
-19.8906
-19.9168
-19.9454
-19.9762
-20.0093
-20.0442
-20.0809
-20.1191
-20.1589
-20.2009
-20.2476
-20.303
-20.3764
-20.5125
-20.7905
-21.2336
-21.7707
-22.2775
-22.5807
-22.5361
-22.1172
-21.4666
-20.8139
-20.2679
-19.8914
-19.7391
-19.7492
-19.7972
-20.1394
-20.119
-20.1586
-20.2748
-20.4734
-20.8546
-21.402
-21.9331
-22.2825
-22.3743
-22.1991
-21.8518
-21.4452
-21.1051
-20.887
-20.7749
-20.7325
-20.7054
-20.6791
-20.6532
-20.6265
-20.5987
-20.5703
-20.5417
-20.5133
-20.4856
-20.4589
-20.4334
-20.4093
-20.3869
-20.3662
-20.3471
-20.3299
-20.3145
-20.3008
-20.289
-20.2791
-20.2711
-20.2655
-20.2611
-20.259
-20.2577
-20.2588
-20.262
-20.2672
-20.2742
-20.2832
-20.294
-20.3067
-20.3213
-20.3379
-20.3565
-20.3769
-20.3992
-20.4231
-20.4486
-20.4754
-20.5031
-20.5314
-20.5599
-20.5883
-20.6163
-20.645
-20.6752
-20.712
-20.786
-20.9403
-21.1796
-21.4751
-21.7883
-22.0169
-22.0052
-21.6958
-21.2096
-20.7474
-20.4288
-20.2977
-20.3016
-20.3139
-20.3141
-20.7435
-20.7523
-20.7974
-20.8722
-20.9689
-21.1951
-21.5131
-21.754
-21.8505
-21.8197
-21.6813
-21.4987
-21.3435
-21.2202
-21.1434
-21.1037
-21.0975
-21.0941
-21.0857
-21.0736
-21.0582
-21.0402
-21.0202
-20.999
-20.9771
-20.9551
-20.9333
-20.9122
-20.8919
-20.8728
-20.8548
-20.8383
-20.8231
-20.8095
-20.7974
-20.7869
-20.7781
-20.771
-20.7663
-20.7626
-20.7603
-20.7593
-20.7603
-20.763
-20.7675
-20.7737
-20.7816
-20.7911
-20.8023
-20.815
-20.8294
-20.8453
-20.8627
-20.8814
-20.9012
-20.9218
-20.9431
-20.9645
-20.9855
-21.0057
-21.0241
-21.0405
-21.0542
-21.064
-21.0718
-21.0946
-21.16
-21.2455
-21.3365
-21.478
-21.612
-21.6168
-21.4303
-21.1143
-20.864
-20.7961
-20.856
-20.8913
-20.8741
-20.8653
-21.336
-21.3622
-21.4166
-21.487
-21.5793
-21.7571
-21.9183
-21.9239
-21.8162
-21.6893
-21.5856
-21.5224
-21.4989
-21.4886
-21.4735
-21.4791
-21.4947
-21.5049
-21.5078
-21.5054
-21.4986
-21.4881
-21.4749
-21.4598
-21.4434