/*--------------------------------*- C++ -*----------------------------------*\
| =========                 |                                                 |
| \\      /  F ield         | OpenFOAM: The Open Source CFD Toolbox           |
|  \\    /   O peration     | Version:  2412                                  |
|   \\  /    A nd           | Website:  www.openfoam.com                      |
|    \\/     M anipulation  |                                                 |
\*---------------------------------------------------------------------------*/
FoamFile
{
    version     2.0;
    format      ascii;
    arch        "LSB;label=32;scalar=64";
    class       surfaceScalarField;
    location    "1.5";
    object      alphaPhi0.honey;
}
// * * * * * * * * * * * * * * * * * * * * * * * * * * * * * * * * * * * * * //

dimensions      [0 3 -1 0 0 0 0];

oriented        oriented;

internalField   nonuniform List<scalar> 
12640
(
3.32825e-13
-2.75021e-13
-4.26184e-13
-1.09205e-12
-7.93699e-13
-1.2781e-12
-1.19818e-12
-1.18147e-12
-1.71089e-12
-1.08512e-12
-2.25855e-12
-1.05424e-12
-2.7939e-12
-1.06724e-12
-3.30534e-12
-1.0925e-12
-3.78583e-12
-1.12094e-12
-4.23677e-12
-1.14773e-12
-4.65162e-12
-1.17882e-12
-5.0274e-12
-1.21453e-12
-5.35474e-12
-1.25967e-12
-5.63001e-12
-1.31185e-12
-5.84521e-12
-1.37425e-12
-6.0005e-12
-1.44123e-12
-6.09288e-12
-1.51503e-12
-6.12569e-12
-1.59093e-12
-6.09963e-12
-1.67084e-12
-6.02e-12
-1.7511e-12
-5.88972e-12
-1.83343e-12
-5.71669e-12
-1.91314e-12
-5.50642e-12
-1.99195e-12
-5.26646e-12
-2.06753e-12
-5.00246e-12
-2.14107e-12
-4.72164e-12
-2.21028e-12
-4.42921e-12
-2.2764e-12
-4.13087e-12
-2.33801e-12
-3.83088e-12
-2.39585e-12
-3.53362e-12
-2.44877e-12
-3.24208e-12
-2.49751e-12
-2.9588e-12
-2.54157e-12
-2.685e-12
-2.58164e-12
-2.42112e-12
-2.61763e-12
-2.1663e-12
-2.65027e-12
-1.91885e-12
-2.67968e-12
-1.6762e-12
-2.70619e-12
-1.43541e-12
-2.72963e-12
-1.19315e-12
-2.75e-12
-9.45762e-13
-2.76728e-12
-6.89292e-13
-2.78154e-12
-4.19553e-13
-2.79291e-12
-1.32516e-13
-2.80121e-12
1.75551e-13
-2.80632e-12
5.07412e-13
-2.80743e-12
8.64995e-13
-2.80414e-12
1.24866e-12
-2.79522e-12
1.65799e-12
-2.78052e-12
2.09082e-12
-2.7588e-12
2.5445e-12
-2.73035e-12
3.01405e-12
-2.69343e-12
3.49409e-12
-2.64849e-12
3.97626e-12
-2.5933e-12
4.45287e-12
-2.52929e-12
4.91318e-12
-2.45438e-12
5.34855e-12
-2.37122e-12
5.74645e-12
-2.27716e-12
6.09773e-12
-2.17582e-12
6.38913e-12
-2.06458e-12
6.61377e-12
-1.94955e-12
6.76077e-12
-1.82858e-12
6.82735e-12
-1.70871e-12
6.80473e-12
-1.58615e-12
6.69394e-12
-1.46869e-12
6.49048e-12
-1.35344e-12
6.2033e-12
-1.25072e-12
5.83462e-12
-1.15697e-12
5.39909e-12
-1.08033e-12
4.90158e-12
-1.01477e-12
4.35976e-12
-9.67754e-13
3.78074e-12
-9.32905e-13
3.18195e-12
-9.14239e-13
2.56731e-12
-9.0262e-13
1.95331e-12
-9.03759e-13
1.36031e-12
-9.26364e-13
8.49983e-13
-1.00632e-12
5.03549e-13
-1.16989e-12
3.65078e-13
-1.37855e-12
3.20423e-13
-1.48436e-12
-1.15511e-12
2.08038e-13
-2.34577e-12
-4.12074e-13
-4.13626e-12
-8.24106e-13
-4.25528e-12
-1.48044e-12
-3.83905e-12
-2.40203e-12
-3.48595e-12
-3.44315e-12
-3.33021e-12
-4.50996e-12
-3.31273e-12
-5.55465e-12
-3.34935e-12
-6.56925e-12
-3.39789e-12
-7.54044e-12
-3.45273e-12
-8.46244e-12
-3.5212e-12
-9.31377e-12
-3.61528e-12
-1.00839e-11
-3.73658e-12
-1.07536e-11
-3.88825e-12
-1.13148e-11
-4.06817e-12
-1.1753e-11
-4.2745e-12
-1.20695e-11
-4.49784e-12
-1.22587e-11
-4.73822e-12
-1.2328e-11
-4.98658e-12
-1.2279e-11
-5.24371e-12
-1.2123e-11
-5.50225e-12
-1.18671e-11
-5.76035e-12
-1.15268e-11
-6.01071e-12
-1.11124e-11
-6.25491e-12
-1.06387e-11
-6.48799e-12
-1.01168e-11
-6.71025e-12
-9.56094e-12
-6.91774e-12
-8.9815e-12
-7.11163e-12
-8.39006e-12
-7.28929e-12
-7.79481e-12
-7.45184e-12
-7.20393e-12
-7.59789e-12
-6.62238e-12
-7.7291e-12
-6.054e-12
-7.84534e-12
-5.49952e-12
-7.94867e-12
-4.95796e-12
-8.03986e-12
-4.42587e-12
-8.12064e-12
-3.8985e-12
-8.19139e-12
-3.36959e-12
-8.25281e-12
-2.83197e-12
-8.30502e-12
-2.27757e-12
-8.34853e-12
-1.69766e-12
-8.38388e-12
-1.08339e-12
-8.41127e-12
-4.26062e-13
-8.43077e-12
2.81574e-13
-8.4411e-12
1.04538e-12
-8.44103e-12
1.86807e-12
-8.42761e-12
2.7505e-12
-8.39917e-12
3.6895e-12
-8.35238e-12
4.68042e-12
-8.28634e-12
5.71364e-12
-8.19728e-12
6.77836e-12
-8.08441e-12
7.85751e-12
-7.9429e-12
8.93444e-12
-7.77313e-12
9.986e-12
-7.57115e-12
1.09924e-11
-7.34028e-12
1.19264e-11
-7.07715e-12
1.27671e-11
-6.78676e-12
1.3485e-11
-6.46617e-12
1.4062e-11
-6.12462e-12
1.44723e-11
-5.76269e-12
1.47059e-11
-5.39363e-12
1.47434e-11
-5.01741e-12
1.4584e-11
-4.6469e-12
1.4217e-11
-4.28293e-12
1.3656e-11
-3.94297e-12
1.29041e-11
-3.63091e-12
1.19897e-11
-3.36179e-12
1.09258e-11
-3.13409e-12
9.75103e-12
-2.95765e-12
8.48655e-12
-2.8301e-12
7.17539e-12
-2.75492e-12
5.83597e-12
-2.72068e-12
4.50221e-12
-2.72062e-12
3.19448e-12
-2.75762e-12
1.97933e-12
-2.87154e-12
9.61954e-13
-3.14426e-12
2.9597e-13
-3.63026e-12
2.65548e-14
-4.2002e-12
-1.44153e-13
-4.28847e-12
-2.63897e-12
1.47984e-13
-4.14419e-12
-3.04826e-13
-7.01939e-12
-6.46349e-13
-6.99007e-12
-1.3821e-12
-6.12305e-12
-2.49184e-12
-5.40351e-12
-3.79894e-12
-5.05151e-12
-5.17535e-12
-4.95866e-12
-6.55958e-12
-4.98379e-12
-7.92575e-12
-5.04027e-12
-9.26597e-12
-5.11299e-12
-1.05571e-11
-5.21967e-12
-1.17824e-11
-5.37394e-12
-1.29097e-11
-5.58923e-12
-1.3924e-11
-5.85801e-12
-1.48008e-11
-6.18505e-12
-1.5531e-11
-6.55725e-12
-1.60985e-11
-6.97064e-12
-1.65037e-11
-7.41091e-12
-1.67416e-11
-7.87354e-12
-1.68223e-11
-8.34479e-12
-1.67491e-11
-8.82362e-12
-1.65361e-11
-9.2963e-12
-1.61928e-11
-9.76009e-12
-1.57377e-11
-1.02054e-11
-1.51838e-11
-1.06324e-11
-1.45499e-11
-1.10332e-11
-1.38497e-11
-1.14085e-11
-1.31005e-11
-1.17533e-11
-1.23146e-11
-1.20694e-11
-1.15058e-11
-1.23538e-11
-1.06832e-11
-1.26093e-11
-9.85572e-12
-1.28354e-11
-9.02789e-12
-1.30359e-11
-8.20275e-12
-1.32123e-11
-7.37956e-12
-1.33686e-11
-6.55601e-12
-1.35065e-11
-5.72696e-12
-1.36286e-11
-4.88597e-12
-1.37359e-11
-4.0248e-12
-1.38298e-11
-3.1342e-12
-1.39116e-11
-2.20418e-12
-1.39821e-11
-1.22436e-12
-1.40421e-11
-1.85422e-13
-1.40907e-11
9.20889e-13
-1.41262e-11
2.09942e-12
-1.41444e-11
3.35291e-12
-1.41414e-11
4.67903e-12
-1.41109e-11
6.07348e-12
-1.40495e-11
7.52555e-12
-1.39502e-11
9.02283e-12
-1.38099e-11
1.05449e-11
-1.36202e-11
1.20712e-11
-1.33785e-11
1.35723e-11
-1.30769e-11
1.50222e-11
-1.27175e-11
1.63857e-11
-1.22946e-11
1.76337e-11
-1.1814e-11
1.87277e-11
-1.12711e-11
1.96398e-11
-1.06765e-11
2.0334e-11
-1.00313e-11
2.07913e-11
-9.355e-12
2.09837e-11
-8.65238e-12
2.09046e-11
-7.94521e-12
2.05379e-11
-7.23787e-12
1.9894e-11
-6.55653e-12
1.89748e-11
-5.91174e-12
1.781e-11
-5.33199e-12
1.64183e-11
-4.82415e-12
1.48455e-11
-4.4079e-12
1.31249e-11
-4.08543e-12
1.13126e-11
-3.86787e-12
9.44608e-12
-3.74707e-12
7.57463e-12
-3.71182e-12
5.7274e-12
-3.74472e-12
3.95537e-12
-3.85764e-12
2.33484e-12
-4.12861e-12
1.00625e-12
-4.6873e-12
1.4351e-13
-5.62908e-12
-1.88128e-13
-6.71776e-12
-3.24886e-13
-6.95198e-12
-4.20742e-12
9.08221e-14
-5.8169e-12
-3.95217e-13
-9.74173e-12
-8.23337e-13
-9.53187e-12
-1.7164e-12
-8.14132e-12
-3.04378e-12
-6.9991e-12
-4.60825e-12
-6.40492e-12
-6.27372e-12
-6.20866e-12
-7.96688e-12
-6.19693e-12
-9.65915e-12
-6.24727e-12
-1.1328e-11
-6.33071e-12
-1.29571e-11
-6.46859e-12
-1.45129e-11
-6.68668e-12
-1.59704e-11
-6.99752e-12
-1.72923e-11
-7.40248e-12
-1.84627e-11
-7.89019e-12
-1.9456e-11
-8.45561e-12
-2.02641e-11
-9.07964e-12
-2.08708e-11
-9.7556e-12
-2.12794e-11
-1.04603e-11
-2.14864e-11
-1.11866e-11
-2.1505e-11
-1.1916e-11
-2.13394e-11
-1.2644e-11
-2.10074e-11
-1.33526e-11
-2.05201e-11
-1.40385e-11
-1.98993e-11
-1.4689e-11
-1.91595e-11
-1.53035e-11
-1.83217e-11
-1.5873e-11
-1.74006e-11
-1.63988e-11
-1.64151e-11
-1.68759e-11
-1.53779e-11
-1.73071e-11
-1.43031e-11
-1.76911e-11
-1.31992e-11
-1.80328e-11
-1.20748e-11
-1.83338e-11
-1.0933e-11
-1.86003e-11
-9.77627e-12
-1.88355e-11
-8.60273e-12
-1.90446e-11
-7.40933e-12
-1.92303e-11
-6.19024e-12
-1.93959e-11
-4.93835e-12
-1.95433e-11
-3.64498e-12
-1.96749e-11
-2.30055e-12
-1.97925e-11
-8.95741e-13
-1.98964e-11
5.78335e-13
-1.99858e-11
2.12762e-12
-2.0056e-11
3.75622e-12
-2.01022e-11
5.46308e-12
-2.01154e-11
7.2451e-12
-2.00892e-11
9.09226e-12
-2.00132e-11
1.09928e-11
-1.9881e-11
1.29258e-11
-1.96805e-11
1.48699e-11
-1.94054e-11
1.67934e-11
-1.90427e-11
1.86671e-11
-1.85905e-11
2.04512e-11
-1.80394e-11
2.21126e-11
-1.73941e-11
2.36058e-11
-1.66473e-11
2.48969e-11
-1.58096e-11
2.59404e-11
-1.48793e-11
2.67096e-11
-1.38793e-11
2.71669e-11
-1.28175e-11
2.72986e-11
-1.17251e-11
2.70798e-11
-1.06119e-11
2.65152e-11
-9.51298e-12
2.55996e-11
-8.44436e-12
2.43601e-11
-7.44796e-12
2.28121e-11
-6.54193e-12
2.10038e-11
-5.76176e-12
1.89713e-11
-5.11892e-12
1.67796e-11
-4.63649e-12
1.44757e-11
-4.31436e-12
1.21244e-11
-4.15056e-12
9.76919e-12
-4.12186e-12
7.46329e-12
-4.20641e-12
5.2583e-12
-4.42752e-12
3.24849e-12
-4.89052e-12
1.57791e-12
-5.78871e-12
4.45961e-13
-7.2469e-12
-7.09777e-14
-8.93965e-12
-3.0899e-13
-9.40983e-12
-5.73384e-12
-9.10683e-15
-7.37708e-12
-6.53893e-13
-1.2252e-11
-1.30109e-12
-1.18019e-11
-2.4443e-12
-9.86373e-12
-4.04858e-12
-8.26468e-12
-5.9081e-12
-7.41524e-12
-7.87719e-12
-7.10059e-12
-9.88727e-12
-7.04319e-12
-1.18982e-11
-7.0803e-12
-1.38885e-11
-7.17522e-12
-1.58277e-11
-7.35136e-12
-1.76895e-11
-7.63961e-12
-1.94344e-11
-8.06119e-12
-2.10337e-11
-8.61338e-12
-2.24511e-11
-9.28949e-12
-2.36723e-11
-1.00666e-11
-2.46721e-11
-1.09354e-11
-2.5447e-11
-1.18689e-11
-2.59833e-11
-1.28543e-11
-2.62889e-11
-1.38623e-11
-2.63629e-11
-1.48839e-11
-2.62221e-11
-1.58949e-11
-2.58731e-11
-1.68882e-11
-2.53374e-11
-1.78428e-11
-2.46282e-11
-1.87551e-11
-2.37692e-11
-1.96104e-11
-2.2776e-11
-2.04085e-11
-2.16713e-11
-2.11402e-11
-2.04703e-11
-2.18083e-11
-1.9192e-11
-2.24087e-11
-1.78485e-11
-2.29471e-11
-1.64534e-11
-2.34241e-11
-1.50145e-11
-2.38474e-11
-1.35391e-11
-2.42209e-11
-1.20297e-11
-2.45527e-11
-1.04875e-11
-2.48473e-11
-8.91042e-12
-2.51107e-11
-7.29485e-12
-2.53464e-11
-5.63472e-12
-2.55584e-11
-3.92274e-12
-2.575e-11
-2.15079e-12
-2.59234e-11
-3.10598e-13
-2.60794e-11
1.60407e-12
-2.6215e-11
3.59811e-12
-2.63253e-11
5.67167e-12
-2.64004e-11
7.82309e-12
-2.64313e-11
1.0044e-11
-2.64046e-11
1.23242e-11
-2.63107e-11
1.46447e-11
-2.61338e-11
1.6985e-11
-2.58636e-11
1.93138e-11
-2.54819e-11
2.16016e-11
-2.49814e-11
2.38066e-11
-2.43469e-11
2.58935e-11
-2.35795e-11
2.78131e-11
-2.26685e-11
2.95274e-11
-2.16225e-11
3.09839e-11
-2.04357e-11
3.21489e-11
-1.913e-11
3.29756e-11
-1.77126e-11
3.34424e-11
-1.62213e-11
3.35143e-11
-1.46714e-11
3.31877e-11
-1.31074e-11
3.24467e-11
-1.15503e-11
3.13118e-11
-1.00535e-11
2.979e-11
-8.64528e-12
2.79253e-11
-7.37887e-12
2.5749e-11
-6.27904e-12
2.33278e-11
-5.38696e-12
2.07122e-11
-4.71473e-12
1.79771e-11
-4.27667e-12
1.51772e-11
-4.05902e-12
1.23785e-11
-4.03626e-12
9.63179e-12
-4.18308e-12
7.00467e-12
-4.52335e-12
4.587e-12
-5.20194e-12
2.53498e-12
-6.45736e-12
1.0572e-12
-8.47675e-12
2.34234e-13
-1.07997e-11
-2.16397e-13
-1.1609e-11
-7.13544e-12
-1.17344e-13
-8.80059e-12
-9.62481e-13
-1.44763e-11
-1.86345e-12
-1.37465e-11
-3.28758e-12
-1.12274e-11
-5.18199e-12
-9.16875e-12
-7.33879e-12
-8.04966e-12
-9.60946e-12
-7.61854e-12
-1.19187e-11
-7.51193e-12
-1.42312e-11
-7.53868e-12
-1.65125e-11
-7.65113e-12
-1.87376e-11
-7.87482e-12
-2.0863e-11
-8.25222e-12
-2.28608e-11
-8.7977e-12
-2.46867e-11
-9.52094e-12
-2.63172e-11
-1.03998e-11
-2.77168e-11
-1.14215e-11
-2.88754e-11
-1.25539e-11
-2.97716e-11
-1.37811e-11
-3.04082e-11
-1.50662e-11
-3.07754e-11
-1.63933e-11
-3.08867e-11
-1.77283e-11
-3.07441e-11
-1.906e-11
-3.03683e-11
-2.03595e-11
-2.97684e-11
-2.16187e-11
-2.89692e-11
-2.28145e-11
-2.79854e-11
-2.39438e-11
-2.68426e-11
-2.49913e-11
-2.55567e-11
-2.59585e-11
-2.4151e-11
-2.68373e-11
-2.26402e-11
-2.76329e-11
-2.10428e-11
-2.83436e-11
-1.93701e-11
-2.89778e-11
-1.76348e-11
-2.9539e-11
-1.58434e-11
-3.00375e-11
-1.40023e-11
-3.04794e-11
-1.21129e-11
-3.08737e-11
-1.01763e-11
-3.12256e-11
-8.18956e-12
-3.1542e-11
-6.14875e-12
-3.18275e-11
-4.04784e-12
-3.20868e-11
-1.8802e-12
-3.23229e-11
3.59996e-13
-3.25355e-11
2.67772e-12
-3.27214e-11
5.0741e-12
-3.28715e-11
7.54873e-12
-3.2976e-11
1.0095e-11
-3.30194e-11
1.27052e-11
-3.29892e-11
1.53626e-11
-3.28666e-11
1.80498e-11
-3.26377e-11
2.07377e-11
-3.22799e-11
2.33982e-11
-3.17798e-11
2.59905e-11
-3.11155e-11
2.84789e-11
-3.0282e-11
3.08132e-11
-2.92634e-11
3.29533e-11
-2.80646e-11
3.48428e-11
-2.6675e-11
3.64429e-11
-2.51123e-11
3.76989e-11
-2.33793e-11
3.85822e-11
-2.15148e-11
3.90477e-11
-1.95368e-11
3.90829e-11
-1.74981e-11
3.86599e-11
-1.54244e-11
3.77894e-11
-1.33788e-11
3.64669e-11
-1.13973e-11
3.47286e-11
-9.54935e-12
3.25957e-11
-7.87326e-12
3.01299e-11
-6.43134e-12
2.73771e-11
-5.25166e-12
2.44149e-11
-4.37109e-12
2.13039e-11
-3.79311e-12
1.81225e-11
-3.51014e-12
1.49291e-11
-3.48716e-12
1.17916e-11
-3.69218e-12
8.77429e-12
-4.16135e-12
5.97342e-12
-5.05295e-12
3.55437e-12
-6.69306e-12
1.71799e-12
-9.27206e-12
5.81171e-13
-1.22806e-11
-1.12917e-13
-1.34889e-11
-8.39794e-12
-2.15882e-13
-1.00836e-11
-1.2285e-12
-1.64365e-11
-2.3693e-12
-1.53544e-11
-4.0488e-12
-1.22483e-11
-6.20831e-12
-9.71129e-12
-8.63202e-12
-8.3282e-12
-1.11739e-11
-7.76887e-12
-1.37526e-11
-7.62128e-12
-1.63258e-11
-7.64077e-12
-1.88643e-11
-7.77963e-12
-2.13282e-11
-8.06509e-12
-2.3685e-11
-8.5427e-12
-2.58863e-11
-9.23724e-12
-2.79054e-11
-1.01436e-11
-2.96993e-11
-1.1253e-11
-3.125e-11
-1.25316e-11
-3.25256e-11
-1.39603e-11
-3.35237e-11
-1.54944e-11
-3.42277e-11
-1.71125e-11
-3.46469e-11
-1.87713e-11
-3.47755e-11
-2.04531e-11
-3.46322e-11
-2.21196e-11
-3.42215e-11
-2.37579e-11
-3.3568e-11
-2.53359e-11
-3.26832e-11
-2.68455e-11
-3.15942e-11
-2.82636e-11
-3.03162e-11
-2.95883e-11
-2.88756e-11
-3.08061e-11
-2.7288e-11
-3.19203e-11
-2.55765e-11
-3.29255e-11
-2.37548e-11
-3.38298e-11
-2.18406e-11
-3.46347e-11
-1.98439e-11
-3.53517e-11
-1.77761e-11
-3.59872e-11
-1.56427e-11
-3.65531e-11
-1.34492e-11
-3.70567e-11
-1.11966e-11
-3.75076e-11
-8.88511e-12
-3.79123e-11
-6.51151e-12
-3.82784e-11
-4.0718e-12
-3.86111e-11
-1.56152e-12
-3.89136e-11
1.02354e-12
-3.91856e-11
3.68486e-12
-3.94209e-11
6.4228e-12
-3.96105e-11
9.23239e-12
-3.97388e-11
1.21078e-11
-3.97915e-11
1.50354e-11
-3.97475e-11
1.80009e-11
-3.95904e-11
2.09791e-11
-3.9294e-11
2.39453e-11
-3.88402e-11
2.68612e-11
-3.82003e-11
2.96931e-11
-3.73615e-11
3.23917e-11
-3.6301e-11
3.49174e-11
-3.5018e-11
3.72127e-11
-3.34962e-11
3.92361e-11
-3.17477e-11
4.09282e-11
-2.97679e-11
4.22546e-11
-2.75916e-11
4.31621e-11
-2.52344e-11
4.36304e-11
-2.27535e-11
4.36197e-11
-2.01777e-11
4.31305e-11
-1.75782e-11
4.21448e-11
-1.4996e-11
4.06886e-11
-1.25138e-11
3.87699e-11
-1.0181e-11
3.64418e-11
-8.08087e-12
3.37401e-11
-6.25873e-12
3.07385e-11
-4.77651e-12
2.74936e-11
-3.65778e-12
2.40907e-11
-2.92588e-12
2.05964e-11
-2.56273e-12
1.70861e-11
-2.52793e-12
1.36233e-11
-2.79134e-12
1.0278e-11
-3.37672e-12
7.15792e-12
-4.50101e-12
4.42022e-12
-6.51499e-12
2.28386e-12
-9.68561e-12
8.71909e-13
-1.3392e-11
-1.79028e-14
-1.50935e-11
-9.51429e-12
-2.86224e-13
-1.12519e-11
-1.43366e-12
-1.81367e-11
-2.7689e-12
-1.66623e-11
-4.66787e-12
-1.29367e-11
-7.0456e-12
-9.93102e-12
-9.69618e-12
-8.2663e-12
-1.24667e-11
-7.58487e-12
-1.52724e-11
-7.39058e-12
-1.80679e-11
-7.41416e-12
-2.08144e-11
-7.58842e-12
-2.3479e-11
-7.94787e-12
-2.60156e-11
-8.54338e-12
-2.83894e-11
-9.39698e-12
-3.05532e-11
-1.05123e-11
-3.24837e-11
-1.1861e-11
-3.41417e-11
-1.34244e-11
-3.55178e-11
-1.51548e-11
-3.65864e-11
-1.7025e-11
-3.73523e-11
-1.89818e-11
-3.78028e-11
-2.10016e-11
-3.79531e-11
-2.30359e-11
-3.78015e-11
-2.50658e-11
-3.73712e-11
-2.70494e-11
-3.66694e-11
-2.8973e-11
-3.57233e-11
-3.08041e-11
-3.45455e-11
-3.25362e-11
-3.31638e-11
-3.41476e-11
-3.15938e-11
-3.56391e-11
-2.98613e-11
-3.69992e-11
-2.79816e-11
-3.82346e-11
-2.59765e-11
-3.93431e-11
-2.38586e-11
-4.03363e-11
-2.16442e-11
-4.12192e-11
-1.93422e-11
-4.20057e-11
-1.6963e-11
-4.27042e-11
-1.45113e-11
-4.33276e-11
-1.19919e-11
-4.3884e-11
-9.40522e-12
-4.43842e-11
-6.75076e-12
-4.48355e-11
-4.02638e-12
-4.5245e-11
-1.22974e-12
-4.56157e-11
1.64009e-12
-4.59458e-11
4.58335e-12
-4.6229e-11
7.59609e-12
-4.64519e-11
1.06738e-11
-4.65998e-11
1.38053e-11
-4.66512e-11
1.69796e-11
-4.65876e-11
2.01753e-11
-4.63814e-11
2.33722e-11
-4.60107e-11
2.65361e-11
-4.54419e-11
2.96368e-11
-4.46546e-11
3.26281e-11
-4.36179e-11
3.54725e-11
-4.23229e-11
3.81141e-11
-4.0747e-11
4.05118e-11
-3.88953e-11
4.26042e-11
-3.67554e-11
4.43537e-11
-3.43538e-11
4.5702e-11
-3.16991e-11
4.66224e-11
-2.88466e-11
4.70657e-11
-2.58251e-11
4.7023e-11
-2.27107e-11
4.64632e-11
-1.95473e-11
4.54018e-11
-1.64272e-11
4.38319e-11
-1.3407e-11
4.17955e-11
-1.05874e-11
3.93142e-11
-8.02924e-12
3.64543e-11
-5.82142e-12
3.32621e-11
-4.00727e-12
2.98208e-11
-2.64109e-12
2.61969e-11
-1.73554e-12
2.24756e-11
-1.27976e-12
1.87254e-11
-1.22764e-12
1.5015e-11
-1.53217e-12
1.14228e-11
-2.24494e-12
8.05284e-12
-3.58691e-12
5.07614e-12
-5.99884e-12
2.70227e-12
-9.74927e-12
1.08874e-12
-1.4204e-11
4.00179e-14
-1.64266e-11
-1.05207e-11
-3.45857e-13
-1.23007e-11
-1.57998e-12
-1.96158e-11
-3.07837e-12
-1.76733e-11
-5.15136e-12
-1.33298e-11
-7.71206e-12
-9.83555e-12
-1.05447e-11
-7.8995e-12
-1.35005e-11
-7.08382e-12
-1.64907e-11
-6.85165e-12
-1.94612e-11
-6.88211e-12
-2.23767e-11
-7.10414e-12
-2.51919e-11
-7.55161e-12
-2.78726e-11
-8.27576e-12
-3.03681e-11
-9.30835e-12
-3.26501e-11
-1.06379e-11
-3.46726e-11
-1.22509e-11
-3.64204e-11
-1.41008e-11
-3.78604e-11
-1.61581e-11
-3.89923e-11
-1.83625e-11
-3.9795e-11
-2.06837e-11
-4.02802e-11
-2.30627e-11
-4.04394e-11
-2.54742e-11
-4.02935e-11
-2.78657e-11
-3.98438e-11
-3.02178e-11
-3.91167e-11
-3.24873e-11
-3.81207e-11
-3.46622e-11
-3.68842e-11
-3.67111e-11
-3.54201e-11
-3.86303e-11
-3.37562e-11
-4.04007e-11
-3.19076e-11
-4.20261e-11
-2.9899e-11
-4.34988e-11
-2.77446e-11
-4.48289e-11
-2.54647e-11
-4.60183e-11
-2.3071e-11
-4.70814e-11
-2.05784e-11
-4.80263e-11
-1.79953e-11
-4.88684e-11
-1.53308e-11
-4.96175e-11
-1.25893e-11
-5.0287e-11
-9.77467e-12
-5.08867e-11
-6.88781e-12
-5.14268e-11
-3.92943e-12
-5.19141e-11
-9.0017e-13
-5.23516e-11
2.19898e-12
-5.27374e-11
5.36417e-12
-5.30619e-11
8.59123e-12
-5.33127e-11
1.18707e-11
-5.34692e-11
1.51937e-11
-5.35125e-11
1.85426e-11
-5.34146e-11
2.19011e-11
-5.31519e-11
2.52403e-11
-5.26886e-11
2.8534e-11
-5.19982e-11
3.17408e-11
-5.10421e-11
3.48269e-11
-4.98025e-11
3.77399e-11
-4.82488e-11
4.04411e-11
-4.63783e-11
4.28707e-11
-4.41704e-11
4.49906e-11
-4.16421e-11
4.674e-11
-3.87917e-11
4.80888e-11
-3.56669e-11
4.89818e-11
-3.22912e-11
4.94023e-11
-2.87407e-11
4.93083e-11
-2.5059e-11
4.8705e-11
-2.13448e-11
4.75718e-11
-1.76586e-11
4.59393e-11
-1.41132e-11
4.38132e-11
-1.07799e-11
4.12489e-11
-7.77169e-12
3.82786e-11
-5.15225e-12
3.49781e-11
-3.00627e-12
3.14053e-11
-1.37294e-12
2.76469e-11
-2.85544e-13
2.37731e-11
2.7492e-13
1.98629e-11
3.60496e-13
1.59848e-11
1.3305e-14
1.22202e-11
-8.10547e-13
8.6816e-12
-2.38654e-12
5.52763e-12
-5.17387e-12
2.99726e-12
-9.54085e-12
1.22687e-12
-1.47282e-11
8.69053e-14
-1.75566e-11
-1.14113e-11
-3.86781e-13
-1.32453e-11
-1.69658e-12
-2.08519e-11
-3.31836e-12
-1.84191e-11
-5.54261e-12
-1.34213e-11
-8.24849e-12
-9.45499e-12
-1.123e-11
-7.23348e-12
-1.43288e-11
-6.29875e-12
-1.74595e-11
-6.02296e-12
-2.05647e-11
-6.07372e-12
-2.36002e-11
-6.35259e-12
-2.65305e-11
-6.89862e-12
-2.93055e-11
-7.76897e-12
-3.18932e-11
-8.986e-12
-3.42447e-11
-1.05509e-11
-3.6339e-11
-1.24266e-11
-3.81356e-11
-1.45852e-11
-3.96293e-11
-1.6963e-11
-4.07922e-11
-1.95238e-11
-4.16317e-11
-2.22001e-11
-4.21317e-11
-2.49593e-11
-4.23104e-11
-2.77383e-11
-4.21627e-11
-3.05113e-11
-4.17132e-11
-3.32242e-11
-4.0965e-11
-3.58587e-11
-3.99459e-11
-3.83727e-11
-3.86651e-11
-4.0757e-11
-3.71508e-11
-4.29831e-11
-3.54158e-11
-4.50504e-11
-3.34867e-11
-4.69439e-11
-3.13776e-11
-4.86706e-11
-2.91118e-11
-5.02273e-11
-2.67026e-11
-5.16274e-11
-2.4169e-11
-5.28765e-11
-2.15218e-11
-5.39914e-11
-1.8775e-11
-5.49823e-11
-1.59361e-11
-5.58655e-11
-1.30138e-11
-5.66518e-11
-1.00125e-11
-5.73552e-11
-6.93698e-12
-5.79851e-11
-3.79032e-12
-5.85493e-11
-5.75955e-13
-5.90506e-11
2.70126e-12
-5.94854e-11
6.03637e-12
-5.98449e-11
9.42054e-12
-6.01121e-11
1.28457e-11
-6.0269e-11
1.6297e-11
-6.02889e-11
1.97612e-11
-6.01481e-11
2.3214e-11
-5.98107e-11
2.66339e-11
-5.92471e-11
2.99847e-11
-5.84139e-11
3.3237e-11
-5.72843e-11
3.63435e-11
-5.58194e-11
3.92697e-11
-5.40072e-11
4.19596e-11
-5.18194e-11
4.4377e-11
-4.92628e-11
4.64622e-11
-4.63246e-11
4.8184e-11
-4.3041e-11
4.94847e-11
-3.94256e-11
5.03434e-11
-3.55486e-11
5.07101e-11
-3.1449e-11
5.05818e-11
-2.72265e-11
4.99257e-11
-2.29424e-11
4.87619e-11
-1.87173e-11
4.70805e-11
-1.46279e-11
4.4926e-11
-1.08044e-11
4.23142e-11
-7.32704e-12
3.93099e-11
-4.30943e-12
3.59562e-11
-1.81427e-12
3.2336e-11
8.40649e-14
2.85117e-11
1.36755e-12
2.45669e-11
2.04517e-12
2.05707e-11
2.17159e-12
1.65974e-11
1.80155e-12
1.27355e-11
8.57438e-13
9.08701e-12
-9.2635e-13
5.83271e-12
-4.11397e-12
3.18464e-12
-9.06454e-12
1.32106e-12
-1.50269e-11
1.07193e-13
-1.84633e-11
-1.22149e-11
-4.3026e-13
-1.4066e-11
-1.78815e-12
-2.18669e-11
-3.53002e-12
-1.88739e-11
-5.87467e-12
-1.32368e-11
-8.70793e-12
-8.77887e-12
-1.18026e-11
-6.29713e-12
-1.50127e-11
-5.23531e-12
-1.82428e-11
-4.93667e-12
-2.14381e-11
-5.00973e-12
-2.45564e-11
-5.3597e-12
-2.75517e-11
-6.01785e-12
-3.03892e-11
-7.0414e-12
-3.30189e-11
-8.46132e-12
-3.54157e-11
-1.02602e-11
-3.7535e-11
-1.24181e-11
-3.93666e-11
-1.4875e-11
-4.08761e-11
-1.7592e-11
-4.20669e-11
-2.04944e-11
-4.29159e-11
-2.35436e-11
-4.34377e-11
-2.66663e-11
-4.36205e-11
-2.98294e-11
-4.34869e-11
-3.29679e-11
-4.3034e-11
-3.60571e-11
-4.22881e-11
-3.90439e-11
-4.12533e-11
-4.19127e-11
-3.99571e-11
-4.46246e-11
-3.84085e-11
-4.71734e-11
-3.66344e-11
-4.9535e-11
-3.46471e-11
-5.17122e-11
-3.24716e-11
-5.36943e-11
-3.01214e-11
-5.54919e-11
-2.76183e-11
-5.71063e-11
-2.49748e-11
-5.85537e-11
-2.22087e-11
-5.98429e-11
-1.93304e-11
-6.09921e-11
-1.63529e-11
-6.20129e-11
-1.32843e-11
-6.29216e-11
-1.01336e-11
-6.37298e-11
-6.90725e-12
-6.44495e-11
-3.61215e-12
-6.50878e-11
-2.55196e-13
-6.56471e-11
3.15662e-12
-6.6124e-11
6.61387e-12
-6.65071e-11
1.0108e-11
-6.67813e-11
1.36255e-11
-6.69228e-11
1.71546e-11
-6.69092e-11
2.06748e-11
-6.67065e-11
2.41682e-11
-6.62846e-11
2.76039e-11
-6.55988e-11
3.09568e-11
-6.46162e-11
3.41857e-11
-6.32904e-11
3.72607e-11
-6.15999e-11
4.01315e-11
-5.9508e-11
4.27659e-11
-5.70115e-11
4.51076e-11
-5.40874e-11
4.7127e-11
-5.07586e-11
4.87671e-11
-4.70263e-11
5.00059e-11
-4.29493e-11
5.079e-11
-3.85578e-11
5.11108e-11
-3.39462e-11
5.09271e-11
-2.91722e-11
5.02501e-11
-2.43595e-11
4.90567e-11
-1.95855e-11
4.73797e-11
-1.49908e-11
4.52193e-11
-1.06657e-11
4.26294e-11
-6.74885e-12
3.96348e-11
-3.32106e-12
3.6308e-11
-4.9233e-13
3.27003e-11
1.68304e-12
2.88911e-11
3.16568e-12
2.49447e-11
3.97137e-12
2.09355e-11
4.15927e-12
1.69409e-11
3.76523e-12
1.30359e-11
2.73519e-12
9.34659e-12
7.27283e-13
6.02664e-12
-2.82012e-12
3.31632e-12
-8.37632e-12
1.37187e-12
-1.50777e-11
1.31747e-13
-1.91998e-11
-1.29094e-11
-4.59715e-13
-1.47756e-11
-1.87881e-12
-2.26147e-11
-3.72767e-12
-1.90468e-11
-6.19874e-12
-1.27415e-11
-9.13236e-12
-7.83027e-12
-1.2323e-11
-5.08108e-12
-1.56087e-11
-3.92293e-12
-1.89025e-11
-3.60432e-12
-2.21476e-11
-3.72172e-12
-2.5301e-11
-4.15185e-12
-2.83253e-11
-4.93402e-12
-3.11734e-11
-6.12609e-12
-3.38171e-11
-7.74872e-12
-3.62096e-11
-9.79881e-12
-3.83366e-11
-1.22275e-11
-4.01597e-11
-1.49985e-11
-4.16783e-11
-1.80354e-11
-4.28629e-11
-2.12943e-11
-4.37247e-11
-2.46934e-11
-4.42455e-11
-2.81927e-11
-4.44451e-11
-3.17161e-11
-4.43147e-11
-3.52323e-11
-4.38788e-11
-3.8677e-11
-4.31355e-11
-4.20284e-11
-4.21109e-11
-4.52364e-11
-4.08087e-11
-4.82891e-11
-3.92551e-11
-5.11516e-11
-3.74584e-11
-5.38215e-11
-3.54441e-11
-5.6279e-11
-3.32238e-11
-5.85302e-11
-3.08212e-11
-6.05695e-11
-2.82489e-11
-6.24109e-11
-2.55274e-11
-6.40595e-11
-2.26689e-11
-6.55338e-11
-1.96902e-11
-6.68446e-11
-1.66024e-11
-6.80102e-11
-1.34188e-11
-6.90428e-11
-1.01495e-11
-6.99577e-11
-6.80518e-12
-7.0765e-11
-3.39589e-12
-7.14729e-11
6.828e-14
-7.20835e-11
3.57611e-12
-7.2592e-11
7.11716e-12
-7.29885e-11
1.06777e-11
-7.32541e-11
1.4246e-11
-7.33685e-11
1.78035e-11
-7.33016e-11
2.13345e-11
-7.30247e-11
2.48125e-11
-7.24953e-11
2.8216e-11
-7.16775e-11
3.15095e-11
-7.05214e-11
3.46676e-11
-6.89964e-11
3.76468e-11
-6.70584e-11
4.04198e-11
-6.46937e-11
4.2936e-11
-6.18703e-11
4.51691e-11
-5.85981e-11
4.70655e-11
-5.48654e-11
4.86052e-11
-5.07169e-11
4.97352e-11
-4.617e-11
5.04453e-11
-4.13083e-11
5.06893e-11
-3.61808e-11
5.04732e-11
-3.0908e-11
4.97639e-11
-2.55651e-11
4.85853e-11
-2.02958e-11
4.69224e-11
-1.51931e-11
4.48187e-11
-1.0413e-11
4.2282e-11
-6.05194e-12
3.93735e-11
-2.24737e-12
3.61254e-11
9.21816e-13
3.26097e-11
3.36429e-12
2.888e-11
5.05501e-12
2.50058e-11
6.00354e-12
2.10557e-11
6.25846e-12
1.70969e-11
5.87496e-12
1.32169e-11
4.75744e-12
9.51634e-12
2.5763e-12
6.17855e-12
-1.34144e-12
3.40769e-12
-7.44328e-12
1.41817e-12
-1.49196e-11
1.35191e-13
-1.97103e-11
-1.35213e-11
-4.99328e-13
-1.53469e-11
-1.96603e-12
-2.31083e-11
-3.95283e-12
-1.88789e-11
-6.54656e-12
-1.1938e-11
-9.58905e-12
-6.57357e-12
-1.2847e-11
-3.6108e-12
-1.61817e-11
-2.36403e-12
-1.9499e-11
-2.06032e-12
-2.27517e-11
-2.23029e-12
-2.58999e-11
-2.76047e-12
-2.89016e-11
-3.67994e-12
-3.17272e-11
-5.04497e-12
-3.43323e-11
-6.88451e-12
-3.66988e-11
-9.17492e-12
-3.87859e-11
-1.18878e-11
-4.05899e-11
-1.49513e-11
-4.2077e-11
-1.83203e-11
-4.32551e-11
-2.19074e-11
-4.41e-11
-2.56665e-11
-4.46293e-11
-2.95114e-11
-4.48279e-11
-3.34038e-11
-4.47187e-11
-3.72683e-11
-4.42934e-11
-4.10772e-11
-4.35763e-11
-4.47693e-11
-4.2565e-11
-4.83266e-11
-4.1284e-11
-5.17036e-11
-3.97362e-11
-5.48916e-11
-3.79461e-11
-5.78606e-11
-3.59214e-11
-6.06111e-11
-3.3686e-11
-6.31283e-11
-3.1251e-11
-6.54221e-11
-2.86382e-11
-6.74916e-11
-2.58603e-11
-6.93533e-11
-2.29367e-11
-7.10155e-11
-1.98805e-11
-7.24969e-11
-1.67089e-11
-7.38093e-11
-1.34347e-11
-7.49699e-11
-1.00732e-11
-7.59905e-11
-6.63754e-12
-7.68834e-11
-3.14194e-12
-7.76552e-11
3.99628e-13
-7.83082e-11
3.97362e-12
-7.88384e-11
7.56466e-12
-7.92334e-11
1.11592e-11
-7.94775e-11
1.4739e-11
-7.95449e-11
1.82887e-11
-7.94102e-11
2.17844e-11
-7.9035e-11
2.52069e-11
-7.83845e-11
2.85252e-11
-7.74087e-11
3.17179e-11
-7.60716e-11
3.47477e-11
-7.43233e-11
3.75922e-11
-7.21406e-11
4.02078e-11
-6.94834e-11
4.25726e-11
-6.63494e-11
4.46388e-11
-6.27155e-11
4.63898e-11
-5.8611e-11
4.77771e-11
-5.404e-11
4.87923e-11
-4.90712e-11
4.93892e-11
-4.37403e-11
4.95715e-11
-3.81579e-11
4.93008e-11
-3.23919e-11
4.85952e-11
-2.6585e-11
4.74284e-11
-2.08263e-11
4.58353e-11
-1.52793e-11
4.3808e-11
-1.00486e-11
4.13964e-11
-5.29482e-12
3.86148e-11
-1.11425e-12
3.55251e-11
2.36487e-12
3.21603e-11
5.0805e-12
2.85869e-11
6.97896e-12
2.48553e-11
8.07893e-12
2.10285e-11
8.42946e-12
1.71728e-11
8.06641e-12
1.33536e-11
6.91688e-12
9.69247e-12
4.56865e-12
6.33085e-12
3.60579e-13
3.52316e-12
-6.29455e-12
1.45565e-12
-1.44854e-11
1.5595e-13
-2.00319e-11
-1.40146e-11
-5.30447e-13
-1.57894e-11
-2.08727e-12
-2.32729e-11
-4.23084e-12
-1.83518e-11
-6.98973e-12
-1.07559e-11
-1.01329e-11
-5.01652e-12
-1.34523e-11
-1.86773e-12
-1.6795e-11
-5.97138e-13
-2.00977e-11
-3.21331e-13
-2.33126e-11
-5.75438e-13
-2.64059e-11
-1.21684e-12
-2.93465e-11
-2.28531e-12
-3.20958e-11
-3.83577e-12
-3.46346e-11
-5.88512e-12
-3.69234e-11
-8.42643e-12
-3.89551e-11
-1.14011e-11
-4.06942e-11
-1.47666e-11
-4.21458e-11
-1.84355e-11
-4.32813e-11
-2.2358e-11
-4.4116e-11
-2.64396e-11
-4.46295e-11
-3.06353e-11
-4.48428e-11
-3.48591e-11
-4.47418e-11
-3.90771e-11
-4.43489e-11
-4.32176e-11
-4.36551e-11
-4.72569e-11
-4.26831e-11
-5.11387e-11
-4.1429e-11
-5.48486e-11
-3.99151e-11
-5.8346e-11
-3.81435e-11
-6.1625e-11
-3.61367e-11
-6.46605e-11
-3.39019e-11
-6.74562e-11
-3.14613e-11
-7.00028e-11
-2.88256e-11
-7.2313e-11
-2.60158e-11
-7.43899e-11
-2.30453e-11
-7.62509e-11
-1.99341e-11
-7.79056e-11
-1.66971e-11
-7.93718e-11
-1.33536e-11
-8.0661e-11
-9.91971e-12
-8.17881e-11
-6.41395e-12
-8.27625e-11
-2.85372e-12
-8.35921e-11
7.43318e-13
-8.42787e-11
4.35892e-12
-8.48173e-11
7.97625e-12
-8.5198e-11
1.15756e-11
-8.54012e-11
1.51399e-11
-8.54055e-11
1.86459e-11
-8.51782e-11
2.20748e-11
-8.46877e-11
2.53986e-11
-8.38879e-11
2.85977e-11
-8.27415e-11
3.16401e-11
-8.11964e-11
3.45074e-11
-7.92219e-11
3.7163e-11
-7.67717e-11
3.95897e-11
-7.38325e-11
4.17466e-11
-7.03715e-11
4.36217e-11
-6.64037e-11
4.51731e-11
-6.19205e-11
4.6397e-11
-5.69744e-11
4.72514e-11
-5.15865e-11
4.7742e-11
-4.58515e-11
4.78301e-11
-3.98253e-11
4.75324e-11
-3.36427e-11
4.68161e-11
-2.73859e-11
4.57097e-11
-2.12164e-11
4.41935e-11
-1.52389e-11
4.23096e-11
-9.62906e-12
4.0054e-11
-4.4929e-12
3.74777e-11
1.29872e-14
3.45962e-11
3.79947e-12
3.1464e-11
6.76651e-12
2.81134e-11
8.87955e-12
2.45976e-11
1.01449e-11
2.09661e-11
1.06039e-11
1.72638e-11
1.03143e-11
1.3566e-11
9.15172e-12
9.95025e-12
6.72755e-12
6.59003e-12
2.25495e-12
3.69268e-12
-4.8437e-12
1.53743e-12
-1.3773e-11
1.64405e-13
-2.00677e-11
-1.44088e-11
-5.896e-13
-1.60587e-11
-2.26166e-12
-2.30865e-11
-4.64859e-12
-1.73529e-11
-7.59677e-12
-9.17194e-12
-1.0863e-11
-3.10992e-12
-1.42052e-11
1.09807e-13
-1.75248e-11
1.36805e-12
-2.07594e-11
1.56091e-12
-2.38868e-11
1.21096e-12
-2.68779e-11
4.37248e-13
-2.97034e-11
-7.89119e-13
-3.23426e-11
-2.52379e-12
-3.47609e-11
-4.79187e-12
-3.69505e-11
-7.5636e-12
-3.88765e-11
-1.08066e-11
-4.05422e-11
-1.44397e-11
-4.19166e-11
-1.84128e-11
-4.30132e-11
-2.26278e-11
-4.38072e-11
-2.70337e-11
-4.43183e-11
-3.15351e-11
-4.45271e-11
-3.60916e-11
-4.44547e-11
-4.06215e-11
-4.40859e-11
-4.50961e-11
-4.34409e-11
-4.94488e-11
-4.25092e-11
-5.366e-11
-4.13099e-11
-5.76788e-11
-3.9838e-11
-6.14939e-11
-3.81128e-11
-6.50692e-11
-3.61361e-11
-6.8401e-11
-3.39281e-11
-7.14697e-11
-3.1496e-11
-7.42821e-11
-2.88604e-11
-7.68336e-11
-2.60333e-11
-7.91383e-11
-2.30358e-11
-8.12013e-11
-1.98836e-11
-8.30392e-11
-1.65986e-11
-8.46615e-11
-1.31996e-11
-8.60837e-11