/*--------------------------------*- C++ -*----------------------------------*\
| =========                 |                                                 |
| \\      /  F ield         | OpenFOAM: The Open Source CFD Toolbox           |
|  \\    /   O peration     | Version:  2412                                  |
|   \\  /    A nd           | Website:  www.openfoam.com                      |
|    \\/     M anipulation  |                                                 |
\*---------------------------------------------------------------------------*/
FoamFile
{
    version     2.0;
    format      ascii;
    arch        "LSB;label=32;scalar=64";
    class       surfaceScalarField;
    location    "4.4";
    object      phi;
}
// * * * * * * * * * * * * * * * * * * * * * * * * * * * * * * * * * * * * * //

dimensions      [0 3 -1 0 0 0 0];

oriented        oriented;

internalField   nonuniform List<scalar> 
12640
(
2.92889e-08
-2.50365e-08
4.42399e-08
-7.76464e-08
2.08804e-08
-8.89133e-08
-3.89628e-08
-2.38003e-08
-9.80484e-08
9.67562e-08
-1.03561e-07
1.97025e-07
-3.23801e-08
1.94064e-07
8.35549e-08
6.00397e-08
1.70805e-07
-1.44673e-07
1.62058e-07
-2.97991e-07
4.59624e-08
-2.91281e-07
-1.17016e-07
-1.05389e-07
-2.2737e-07
1.65539e-07
-2.09218e-07
3.63569e-07
-6.22754e-08
3.62505e-07
1.32425e-07
1.49652e-07
2.59207e-07
-1.59825e-07
2.38703e-07
-3.87908e-07
7.83701e-08
-3.99739e-07
-1.29985e-07
-1.8549e-07
-2.64826e-07
1.32612e-07
-2.47928e-07
3.72592e-07
-9.07813e-08
4.00024e-07
1.13636e-07
2.05249e-07
2.47524e-07
-9.47487e-08
2.37864e-07
-3.2836e-07
9.6922e-08
-3.69839e-07
-8.91114e-08
-2.08103e-07
-2.13856e-07
5.42641e-08
-2.12706e-07
2.66651e-07
-9.63035e-08
3.18209e-07
6.16859e-08
1.95809e-07
1.71502e-07
-1.80067e-08
1.78774e-07
-1.99991e-07
9.07617e-08
-2.57594e-07
-3.47197e-08
-1.75182e-07
-1.26979e-07
-1.26946e-08
-1.42216e-07
1.36136e-07
-8.30295e-08
1.975e-07
9.96675e-09
1.52507e-07
8.52974e-08
3.80894e-08
1.08647e-07
-8.05073e-08
7.67834e-08
-1.4614e-07
1.31389e-08
-1.35176e-07
-4.84868e-08
-6.22201e-08
-8.11239e-08
3.29634e-08
-7.44831e-08
1.0612e-07
-3.55334e-08
1.26668e-07
1.71682e-08
8.7812e-08
6.12554e-08
7.59436e-09
7.80431e-08
-7.81273e-08
5.89891e-08
-1.29205e-07
1.01254e-08
-1.18231e-07
-4.79437e-08
-4.51808e-08
-8.68854e-08
5.82041e-08
-8.36944e-08
1.39851e-07
-3.44822e-08
1.52547e-07
3.94511e-08
8.1377e-08
9.93651e-08
-4.27509e-08
1.0911e-07
-1.54619e-07
5.72418e-08
-1.88648e-07
-3.25805e-08
-1.17778e-07
-1.11479e-07
2.61819e-08
-1.32178e-07
1.65691e-07
-7.78724e-08
2.19709e-07
2.49056e-08
1.51667e-07
1.1905e-07
-5.91484e-09
1.49369e-07
-1.669e-07
9.58263e-08
-2.39904e-07
-1.3178e-08
-1.81467e-07
-1.16587e-07
-2.2031e-08
-1.5659e-07
1.51291e-07
-1.12592e-07
2.44646e-07
-1.18259e-08
2.09692e-07
9.00339e-08
6.7572e-08
1.45063e-07
-1.07495e-07
1.41119e-07
-2.31121e-07
9.78666e-08
-2.54132e-07
4.19212e-08
-1.83077e-07
-5.38847e-08
-2.10603e-09
2.00371e-08
5.60129e-08
-4.53816e-08
9.0281e-08
-1.16672e-07
5.63687e-08
-1.15609e-07
-4.49165e-08
-1.63585e-08
-1.47346e-07
1.35219e-07
-1.68931e-07
2.40348e-07
-7.35333e-08
2.09825e-07
9.39322e-08
3.2997e-08
2.28768e-07
-1.99874e-07
2.33882e-07
-3.45065e-07
8.87422e-08
-2.96666e-07
-1.28823e-07
-6.20063e-08
-2.86339e-07
2.31835e-07
-2.79967e-07
4.09927e-07
-1.03473e-07
3.57136e-07
1.43159e-07
9.33307e-08
3.12883e-07
-2.33288e-07
3.01964e-07
-4.32829e-07
1.14587e-07
-3.87624e-07
-1.39071e-07
-1.23221e-07
-3.09957e-07
2.07077e-07
-3.00161e-07
4.14036e-07
-1.20142e-07
3.83945e-07
1.20785e-07
1.42377e-07
2.82562e-07
-1.66025e-07
2.77625e-07
-3.66163e-07
1.1884e-07
-3.5397e-07
-9.42726e-08
-1.50853e-07
-2.38823e-07
1.17372e-07
-2.40521e-07
2.99274e-07
-1.11546e-07
3.04375e-07
6.45998e-08
1.47363e-07
1.87262e-07
-7.08703e-08
1.96513e-07
-2.27872e-07
1.01271e-07
-2.48422e-07
-3.45626e-08
-1.38801e-07
-1.34437e-07
2.76269e-08
-1.52071e-07
1.58546e-07
-9.10208e-08
1.93258e-07
5.82422e-09
1.28354e-07
8.5436e-08
9.6256e-09
1.13023e-07
-9.88861e-08
8.48325e-08
-1.48297e-07
2.27315e-08
-1.24037e-07
-4.15275e-08
-4.56146e-08
-8.15224e-08
4.74825e-08
-8.43052e-08
1.1415e-07
-5.14609e-08
1.26866e-07
3.48731e-09
8.05965e-08
5.89638e-08
-5.34259e-09
9.10289e-08
-9.3149e-08
8.20487e-08
-1.40428e-07
3.05864e-08
-1.19327e-07
-4.32091e-08
-3.32151e-08
-1.02969e-07
7.93415e-08
-1.13231e-07
1.59618e-07
-6.08173e-08
1.58792e-07
3.27e-08
6.79568e-08
1.17961e-07
-7.06899e-08
1.43729e-07
-1.81993e-07
8.82342e-08
-1.98706e-07
-2.36452e-08
-1.02725e-07
-1.30489e-07
5.91155e-08
-1.68571e-07
1.97398e-07
-1.10796e-07
2.30429e-07
1.411e-08
1.33563e-07
1.35898e-07
-4.30778e-08
1.83593e-07
-2.01147e-07
1.28312e-07
-2.5052e-07
1.09875e-09
-1.62068e-07
-1.26006e-07
1.52426e-08
-1.83794e-07
1.83258e-07
-1.46068e-07
2.51651e-07
-3.96564e-08
1.88437e-07
8.02604e-08
3.50152e-08
1.68369e-07
-1.22695e-07
1.97107e-07
-2.08495e-07
1.66645e-07
-2.00824e-07
-1.07746e-07
-8.12777e-08
6.27938e-08
-1.03924e-08
3.3757e-08
9.81024e-08
-6.72573e-08
1.61483e-07
-1.58443e-07
1.08923e-07
-1.63114e-07
-4.49999e-08
-4.94381e-08
-2.06267e-07
1.32161e-07
-2.58396e-07
2.68084e-07
-1.44801e-07
2.54332e-07
8.25065e-08
7.35079e-08
2.86749e-07
-1.80699e-07
3.31773e-07
-3.54108e-07
1.73716e-07
-3.28752e-07
-1.03343e-07
-1.03139e-07
-3.34386e-07
1.98525e-07
-3.7523e-07
3.97823e-07
-1.94311e-07
3.71207e-07
1.04821e-07
1.28032e-07
3.45428e-07
-1.92388e-07
3.85253e-07
-4.03658e-07
2.02589e-07
-3.83987e-07
-9.22636e-08
-1.48018e-07
-3.25757e-07
1.64282e-07
-3.65919e-07
3.73078e-07
-1.98412e-07
3.64847e-07
7.06916e-08
1.55114e-07
2.83301e-07
-1.27313e-07
3.23983e-07
-3.2088e-07
1.83243e-07
-3.25327e-07
-4.54818e-08
-1.53626e-07
-2.27942e-07
8.48961e-08
-2.68809e-07
2.54505e-07
-1.61099e-07
2.71001e-07
1.99245e-08
1.42461e-07
1.684e-07
-4.59988e-08
2.0993e-07
-1.88008e-07
1.37567e-07
-2.15822e-07
5.34696e-09
-1.30698e-07
-1.10277e-07
8.30552e-09
-1.5426e-07
1.24108e-07
-1.17116e-07
1.63612e-07
-3.04367e-08
1.19477e-07
5.7319e-08
2.4828e-08
1.07197e-07
-7.00859e-08
1.04374e-07
-1.23415e-07
5.78167e-08
-1.17238e-07
-9.16299e-09
-5.98011e-08
-6.95095e-08
2.17137e-08
-1.00189e-07
9.24377e-08
-8.78745e-08
1.21737e-07
-3.41287e-08
9.43623e-08
4.15012e-08
1.85103e-08
1.05106e-07
-7.36158e-08
1.21742e-07
-1.36733e-07
7.47345e-08
-1.3361e-07
-1.98436e-08
-5.73216e-08
-1.15255e-07
5.89531e-08
-1.56269e-07
1.54186e-07
-1.11567e-07
1.71165e-07
2.98557e-09
9.13502e-08
1.27268e-07
-4.87496e-08
1.88384e-07
-1.72962e-07
1.44279e-07
-2.07252e-07
1.27807e-08
-1.24711e-07
-1.34185e-07
3.423e-08
-2.10746e-07
1.81343e-07
-1.68678e-07
2.30741e-07
-2.84463e-08
1.50391e-07
1.30951e-07
-1.69083e-08
2.18306e-07
-1.77125e-07
1.84342e-07
-2.39823e-07
4.98425e-08
-1.71029e-07
-1.09125e-07
-1.19755e-08
-2.0739e-07
1.47272e-07
-1.97111e-07
2.22345e-07
-8.60398e-08
1.82809e-07
7.59263e-08
6.36866e-08
2.03501e-07
-6.79576e-08
2.27756e-07
-1.54911e-07
-1.3368e-07
-1.42214e-07
6.63288e-08
-1.14065e-07
1.11652e-07
1.11187e-08
5.37613e-08
1.6518e-07
-8.4886e-08
2.32549e-07
-2.19316e-07
1.43081e-07
-2.40964e-07
-7.14345e-08
-1.01404e-07
-2.8128e-07
1.37962e-07
-3.38795e-07
3.32552e-07
-1.82143e-07
3.45537e-07
1.11595e-07
1.43568e-07
3.65741e-07
-1.69449e-07
4.14291e-07
-4.08305e-07
2.11812e-07
-4.2019e-07
-1.30513e-07
-1.8404e-07
-4.0902e-07
1.6973e-07
-4.52856e-07
4.34514e-07
-2.31021e-07
4.52309e-07
1.26954e-07
2.10329e-07
4.09754e-07
-1.50737e-07
4.52675e-07
-4.21504e-07
2.35713e-07
-4.48822e-07
-1.08113e-07
-2.24404e-07
-3.76596e-07
1.15063e-07
-4.20137e-07
3.73202e-07
-2.26508e-07
4.10153e-07
8.00756e-08
2.19444e-07
3.19723e-07
-7.7172e-08
3.6422e-07
-3.08179e-07
2.05922e-07
-3.52923e-07
-4.88066e-08
-2.04548e-07
-2.50811e-07
3.73314e-08
-2.96279e-07
2.32926e-07
-1.79214e-07
2.83507e-07
1.74973e-08
1.80042e-07
1.79389e-07
-3.72989e-09
2.2697e-07
-1.62204e-07
1.5284e-07
-2.18225e-07
1.35565e-08
-1.58548e-07
-1.1121e-07
-2.97826e-08
-1.6363e-07
9.55227e-08
-1.31757e-07
1.58897e-07
-4.49032e-08
1.40478e-07
4.96598e-08
5.9969e-08
1.11435e-07
-3.98933e-08
1.20592e-07
-1.14838e-07
7.92955e-08
-1.35527e-07
6.15927e-09
-9.55382e-08
-7.05061e-08
-1.19659e-08
-1.1966e-07
8.00009e-08
-1.16933e-07
1.38575e-07
-5.64749e-08
1.32172e-07
4.04312e-08
5.64746e-08
1.28627e-07
-5.75794e-08
1.58308e-07
-1.533e-07
1.03439e-07
-1.75232e-07
-1.71459e-08
-1.01598e-07
-1.42332e-07
3.70907e-08
-1.98965e-07
1.68149e-07
-1.4528e-07
2.14518e-07
-1.22639e-09
1.40777e-07
1.56221e-07
-2.06728e-08
2.34452e-07
-1.82368e-07
1.80918e-07
-2.49787e-07
1.87879e-08
-1.77863e-07
-1.62007e-07
-1.34133e-09
-2.55938e-07
1.81806e-07
-2.05313e-07
2.66306e-07
-3.65527e-08
2.0199e-07
1.54258e-07
2.43891e-08
2.5823e-07
-1.6584e-07
2.17752e-07
-2.62415e-07
5.85758e-08
-2.15286e-07
-1.27785e-07
-5.71468e-08
-2.3729e-07
1.20358e-07
-2.09456e-07
2.23455e-07
-5.72013e-08
2.07591e-07
1.19594e-07
9.10595e-08
1.99826e-07
-5.92196e-08
-1.18757e-07
-1.22712e-07
9.65059e-09
-1.77567e-07
1.20398e-07
-1.26099e-07
1.72592e-07
3.66856e-08
8.84747e-08
2.20828e-07
-1.04218e-07
2.91842e-07
-2.83339e-07
1.71386e-07
-3.12571e-07
-9.10352e-08
-1.39056e-07
-3.35696e-07
1.55891e-07
-3.94188e-07
3.95667e-07
-2.06263e-07
4.181e-07
1.29768e-07
1.85628e-07
4.11265e-07
-1.79353e-07
4.5789e-07
-4.62077e-07
2.2898e-07
-4.86426e-07
-1.45498e-07
-2.26917e-07
-4.42252e-07
1.70568e-07
-4.82042e-07
4.74345e-07
-2.40268e-07
5.06408e-07
1.38573e-07
2.49366e-07
4.30369e-07
-1.44663e-07
4.67538e-07
-4.47062e-07
2.37238e-07
-4.88926e-07
-1.16841e-07
-2.57392e-07
-3.86177e-07
1.0377e-07
-4.22878e-07
3.85177e-07
-2.21876e-07
4.35711e-07
8.6185e-08
2.44527e-07
3.20617e-07
-6.36183e-08
3.58173e-07
-3.10021e-07
1.97587e-07
-3.66891e-07
-5.22309e-08
-2.23162e-07
-2.45506e-07
2.21007e-08
-2.85168e-07
2.26813e-07
-1.70116e-07
2.8837e-07
1.7605e-08
1.93443e-07
1.69739e-07
1.22145e-08
2.13948e-07
-1.51211e-07
1.45653e-07
-2.18015e-07
1.76308e-08
-1.70132e-07
-9.83628e-08
-4.79922e-08
-1.50983e-07
8.01777e-08
-1.28587e-07
1.55432e-07
-5.41077e-08
1.52016e-07
3.39993e-08
8.10114e-08
1.00318e-07
-2.12648e-08
1.22543e-07
-1.10421e-07
9.41316e-08
-1.49654e-07
2.45122e-08
-1.21519e-07
-6.12642e-08
-3.50652e-08
-1.26864e-07
7.41906e-08
-1.37205e-07
1.5512e-07
-7.73074e-08
1.62804e-07
3.28068e-08
8.36003e-08
1.40124e-07
-5.07446e-08
1.82686e-07
-1.72378e-07
1.25861e-07
-2.10572e-07
-1.07828e-08
-1.33325e-07
-1.5633e-07
2.75478e-08
-2.2496e-07
1.869e-07
-1.67518e-07
2.51288e-07
-6.52837e-09
1.74761e-07
1.70316e-07
-8.65117e-09
2.58599e-07
-1.98755e-07
2.00388e-07
-2.84916e-07
2.29091e-08
-2.121e-07
-1.73675e-07
-1.67198e-08
-2.74421e-07
1.91672e-07
-2.18896e-07
2.93764e-07
-3.84517e-08
2.31165e-07
1.62171e-07
4.09783e-08
2.67563e-07
-1.67056e-07
2.19975e-07
-2.76497e-07
5.22384e-08
-2.32157e-07
-1.33007e-07
-6.88227e-08
-2.24546e-07
1.14438e-07
-1.70089e-07
2.14674e-07
-2.46873e-08
1.81422e-07
9.00018e-08
4.7983e-08
-5.92681e-08
-6.6553e-09
-7.83954e-08
-1.32075e-07
3.47325e-08
-2.14471e-07
1.93541e-07
-1.566e-07
2.44465e-07
4.71393e-08
1.23014e-07
2.71827e-07
-1.19906e-07
3.53073e-07
-3.37609e-07
2.06757e-07
-3.74778e-07
-9.96977e-08
-1.76388e-07
-3.79855e-07
1.60519e-07
-4.46743e-07
4.35676e-07
-2.39103e-07
4.69295e-07
1.30359e-07
2.21186e-07
4.39642e-07
-1.7455e-07
4.95475e-07
-4.85559e-07
2.56405e-07
-5.22496e-07
-1.38431e-07
-2.57005e-07
-4.53822e-07
1.58323e-07
-5.02823e-07
4.81187e-07
-2.59978e-07
5.25305e-07
1.26287e-07
2.70519e-07
4.27201e-07
-1.29078e-07
4.72473e-07
-4.40995e-07
2.48398e-07
-4.92918e-07
-1.02071e-07
-2.69603e-07
-3.72057e-07
8.71461e-08
-4.15177e-07
3.69753e-07
-2.25479e-07
4.27778e-07
7.08634e-08
2.48431e-07
2.99623e-07
-4.84354e-08
3.42077e-07
-2.90093e-07
1.95878e-07
-3.52294e-07
-3.72519e-08
-2.2224e-07
-2.21171e-07
7.93933e-09
-2.65002e-07
2.04737e-07
-1.6606e-07
2.70604e-07
2.66151e-09
1.90249e-07
1.44259e-07
2.5535e-08
1.93045e-07
-1.29328e-07
1.41991e-07
-2.00893e-07
3.35072e-08
-1.68377e-07
-7.26894e-08
-6.28123e-08
-1.31449e-07
5.79476e-08
-1.27453e-07
1.3977e-07
-7.22052e-08
1.52949e-07
7.95803e-09
9.81395e-08
8.27959e-08
1.23174e-09
1.24853e-07
-9.71555e-08
1.152e-07
-1.54751e-07
5.1363e-08
-1.4264e-07
-4.55128e-08
-5.95393e-08
-1.3243e-07
6.16433e-08
-1.61144e-07
1.62822e-07
-1.05204e-07
1.86722e-07
1.79782e-08
1.09571e-07
1.47502e-07
-3.84664e-08
2.07949e-07
-1.81528e-07
1.53996e-07
-2.36184e-07
3.77079e-09
-1.6078e-07
-1.63373e-07
1.37104e-08
-2.48779e-07
1.93927e-07
-1.93974e-07
2.74391e-07
-2.10058e-08
2.00561e-07
1.74492e-07
6.06067e-09
2.77212e-07
-2.01655e-07
2.22058e-07
-3.02024e-07
3.64526e-08
-2.33398e-07
-1.7313e-07
-3.20645e-08
-2.84037e-07
1.87276e-07
-2.31506e-07
2.99066e-07
-4.79181e-08
2.41545e-07
1.57278e-07
5.24988e-08
2.64433e-07
-1.55592e-07
2.16134e-07
-2.6483e-07
5.09092e-08
-2.22035e-07
-1.23258e-07
-6.70247e-08
-2.00998e-07
9.67684e-08
-1.54383e-07
1.69697e-07
-5.05754e-08
1.23647e-07
2.27671e-08
1.49743e-07
-1.36051e-07
2.17801e-08
-1.00904e-07
-1.72118e-07
7.68825e-08
-2.84993e-07
2.55383e-07
-1.97626e-07
3.04996e-07
5.83545e-08
1.58043e-07
3.23839e-07
-1.26963e-07
4.12538e-07
-3.81839e-07
2.4039e-07
-4.32185e-07
-1.06915e-07
-2.18352e-07
-4.19145e-07
1.51867e-07
-4.93804e-07
4.60087e-07
-2.69443e-07
5.11404e-07
1.28627e-07
2.60221e-07
4.62102e-07
-1.54589e-07
5.27049e-07
-4.90138e-07
2.81262e-07
-5.46583e-07
-1.29114e-07
-2.89141e-07
-4.59887e-07
1.30837e-07
-5.18245e-07
4.68096e-07
-2.77543e-07
5.30833e-07
1.12039e-07
2.92293e-07
4.19598e-07
-9.95698e-08
4.73429e-07
-4.15941e-07
2.58323e-07
-4.83667e-07
-8.54997e-08
-2.81386e-07
-3.54743e-07
5.86778e-08
-4.05175e-07
3.37631e-07
-2.29035e-07
4.07923e-07
5.36954e-08
2.51402e-07
2.76524e-07
-2.36599e-08
3.2526e-07
-2.56345e-07
1.95321e-07
-3.27705e-07
-2.01877e-08
-2.20261e-07
-1.9545e-07
-1.36981e-08
-2.45283e-07
1.71744e-07
-1.64113e-07
2.44895e-07
-1.46847e-08
1.86098e-07
1.17716e-07
4.45699e-08
1.73226e-07
-9.89865e-08
1.40995e-07
-1.77495e-07
5.20427e-08
-1.65652e-07
-4.59758e-08
-8.18564e-08
-1.13133e-07
2.9138e-08
-1.29084e-07
1.18874e-07
-9.30119e-08
1.52542e-07
-1.92189e-08
1.18106e-07
6.62547e-08
2.89603e-08
1.29568e-07
-7.89812e-08
1.38664e-07
-1.57553e-07
7.93134e-08
-1.65009e-07
-3.03582e-08
-8.81355e-08
-1.39679e-07
4.39656e-08
-1.86732e-07
1.66673e-07
-1.3385e-07
2.09889e-07
3.40827e-09
1.38487e-07
1.55582e-07
-2.0555e-08
2.33662e-07
-1.84761e-07
1.82079e-07
-2.58487e-07
1.81372e-08
-1.89571e-07
-1.7013e-07
-6.06987e-09
-2.71593e-07
1.92872e-07
-2.19183e-07
2.91252e-07
-3.4969e-08
2.25518e-07
1.77654e-07
2.64366e-08
2.93327e-07
-1.94656e-07
2.40802e-07
-3.0979e-07
4.82698e-08
-2.50861e-07
-1.71722e-07
-5.15471e-08
-2.89837e-07
1.72234e-07
-2.38512e-07
2.92049e-07
-5.2593e-08
2.43869e-07
1.53403e-07
6.44193e-08
2.57157e-07
-1.35027e-07
2.04311e-07
-2.39882e-07
3.94204e-08
-2.0255e-07
-1.29093e-07
-6.64658e-08
-1.99493e-07
7.16928e-08
-1.52509e-07
1.32276e-07
8.6285e-08
2.44921e-07
-1.11073e-07
1.98216e-07
-1.9325e-07
-2.17699e-09
-1.16394e-07
-2.44111e-07
8.61403e-08
-3.51685e-07
2.97378e-07
-2.29157e-07
3.60441e-07
7.18786e-08
1.95805e-07
3.68599e-07
-1.26002e-07
4.60739e-07
-4.15012e-07
2.66959e-07
-4.8014e-07
-1.11397e-07
-2.57656e-07
-4.46377e-07
1.36951e-07
-5.259e-07
4.72139e-07
-2.90539e-07
5.41552e-07
1.24748e-07
2.94172e-07
4.71826e-07
-1.30113e-07
5.42263e-07
-4.8319e-07
2.95259e-07
-5.58495e-07
-1.19172e-07
-3.1493e-07
-4.5442e-07
1.00877e-07
-5.17896e-07
4.45659e-07
-2.83861e-07
5.25625e-07
9.86946e-08
3.07666e-07
4.02777e-07
-6.92935e-08
4.60775e-07
-3.84236e-07
2.57882e-07
-4.6611e-07
-7.08926e-08
-2.87709e-07
-3.30896e-07
3.05112e-08
-3.84604e-07
3.01428e-07
-2.24026e-07
3.82529e-07
3.89383e-08
2.50487e-07
2.49389e-07
4.77493e-10
3.01095e-07
-2.20451e-07
1.88433e-07
-2.99994e-07
-5.42121e-09
-2.16037e-07
-1.67637e-07
-3.48439e-08
-2.21046e-07
1.37812e-07
-1.57988e-07
2.17813e-07
-3.01533e-08
1.81049e-07
9.04112e-08
6.34988e-08
1.51034e-07
-6.82204e-08
1.37524e-07
-1.53627e-07
6.9118e-08
-1.62744e-07
-1.93637e-08
-1.01036e-07
-9.38533e-08
4.09593e-11
-1.29259e-07
9.77091e-08
-1.12443e-07
1.51965e-07
-4.55884e-08
1.38049e-07
4.9587e-08
5.68993e-08
1.33111e-07
-6.02559e-08
1.60258e-07
-1.59502e-07
1.05573e-07
-1.86558e-07
-1.56217e-08
-1.16527e-07
-1.45415e-07
2.53825e-08
-2.09284e-07
1.68553e-07
-1.59495e-07
2.30834e-07
-1.01803e-08
1.66256e-07
1.61448e-07
-1.62108e-09
2.54617e-07
-1.84751e-07
2.05332e-07
-2.76668e-07
3.06518e-08
-2.15594e-07
-1.74016e-07
-2.6359e-08
-2.87729e-07
1.87669e-07
-2.37327e-07
3.0204e-07
-4.56482e-08
2.45587e-07
1.77836e-07
4.60178e-08
3.01058e-07
-1.83345e-07
2.49806e-07
-3.09802e-07
5.42911e-08
-2.60837e-07
-1.68375e-07
-6.777e-08
-2.8591e-07
1.54086e-07
-2.32259e-07
2.76529e-07
-4.74086e-08
2.36095e-07
1.49733e-07
6.93055e-08
2.38203e-07
-1.15795e-07
1.71716e-07
-2.11561e-07
4.3432e-09
-1.7683e-07
-1.40388e-07
-5.25415e-08
-1.68907e-07
7.3277e-08
9.91811e-08
2.00935e-07
-4.24389e-09
2.77173e-07
-1.6608e-07
1.96305e-07
-2.57223e-07
-3.79215e-08
-1.65236e-07
-2.95686e-07
8.27912e-08
-4.00075e-07
3.33772e-07
-2.52724e-07
4.10191e-07
8.10218e-08
2.32054e-07
4.00063e-07
-1.17531e-07
4.94645e-07
-4.33032e-07
2.86995e-07
-5.12598e-07
-1.10089e-07
-2.89708e-07
-4.58186e-07
1.16549e-07
-5.41571e-07
4.68445e-07
-3.03725e-07
5.53934e-07
1.15575e-07
3.17796e-07
4.66036e-07
-1.03109e-07
5.40633e-07
-4.6244e-07
3.00591e-07
-5.5291e-07
-1.05144e-07
-3.28802e-07
-4.34967e-07
7.13806e-08
-5.01965e-07
4.12739e-07
-2.81694e-07
5.05193e-07
8.2633e-08
3.11253e-07
3.7451e-07
-4.17057e-08
4.35039e-07
-3.45715e-07
2.49999e-07
-4.3673e-07
-5.47278e-08
-2.83709e-07
-2.98481e-07
6.25642e-09
-3.54023e-07
2.61711e-07
-2.13135e-07
3.49024e-07
2.34441e-08
2.41524e-07
2.16394e-07
2.04962e-08
2.69958e-07
-1.8345e-07
1.77351e-07
-2.67395e-07
9.59129e-09
-2.06122e-07
-1.36176e-07
-5.22884e-08
-1.9238e-07
1.04251e-07
-1.49098e-07
1.88214e-07
-4.55263e-08
1.72257e-07
6.11335e-08
7.93767e-08
1.26263e-07
-3.8518e-08
1.32201e-07
-1.28603e-07
8.56756e-08
-1.57238e-07
7.94423e-09
-1.1754e-07
-7.31566e-08
-2.76453e-08
-1.27837e-07
7.59625e-08
-1.30598e-07
1.49065e-07
-7.14963e-08
1.55113e-07
3.21649e-08
8.3026e-08
1.34671e-07
-4.10478e-08
1.79321e-07
-1.58601e-07
1.30065e-07
-2.04224e-07
-5.57474e-10
-1.42206e-07
-1.48295e-07
6.44371e-09
-2.27533e-07
1.66644e-07
-1.81723e-07
2.46236e-07
-2.36019e-08
1.89783e-07
1.63407e-07
1.71689e-08
2.6918e-07
-1.80003e-07
2.23166e-07
-2.87249e-07
4.21668e-08
-2.35164e-07
-1.73203e-07
-4.52287e-08
-2.9545e-07
1.77405e-07
-2.47774e-07
3.03392e-07
-5.38601e-08
2.56652e-07
1.73276e-07
6.20426e-08
2.98735e-07
-1.67705e-07
2.48502e-07
-2.9927e-07
5.54885e-08
-2.59181e-07
-1.61032e-07
-7.72719e-08
-2.70475e-07
1.34062e-07
-2.13075e-07
2.51208e-07
-3.61822e-08
2.15247e-07
1.39383e-07
6.38268e-08
2.01419e-07
-9.97713e-08
1.2172e-07
-1.76652e-07
-1.82901e-08
-1.32241e-07
-1.00986e-07
-1.4932e-08
6.01917e-08
2.57021e-08
1.22417e-07
1.90173e-07
-2.2349e-08
2.90733e-07
-2.40274e-07
2.11277e-07
-3.29116e-07
-4.72496e-08
-2.04176e-07
-3.28652e-07
8.11673e-08
-4.3588e-07
3.59591e-07
-2.71643e-07
4.46569e-07
8.4219e-08
2.63055e-07
4.17141e-07
-1.01412e-07
5.13347e-07
-4.33902e-07
2.99818e-07
-5.27573e-07
-1.03621e-07
-3.13528e-07
-4.55342e-07
9.05843e-08
-5.41514e-07
4.48462e-07
-3.09012e-07
5.48214e-07
1.02315e-07
3.31219e-07
4.4701e-07
-7.32767e-08
5.24488e-07
-4.27948e-07
2.98229e-07
-5.30531e-07
-8.83158e-08
-3.31819e-07
-4.04721e-07
4.16282e-08
-4.73957e-07
3.69589e-07
-2.72869e-07
4.70829e-07
6.49015e-08
3.04753e-07
3.38301e-07
-1.56771e-08
4.00298e-07
-3.00529e-07
2.37043e-07
-3.96944e-07
-3.76866e-08
-2.71301e-07
-2.60825e-07
-1.54383e-08
-3.17493e-07
2.18414e-07
-1.98883e-07
3.08607e-07
7.5541e-09
2.26257e-07
1.80385e-07
3.77218e-08
2.35453e-07
-1.45076e-07
1.64388e-07
-2.30701e-07
2.47117e-08
-1.91801e-07
-1.03337e-07
-6.70811e-08
-1.62193e-07
7.07163e-08
-1.39294e-07
1.56448e-07
-6.06907e-08
1.60401e-07
3.16417e-08
9.27803e-08
1.01089e-07
-9.61928e-09
1.263e-07
-1.02413e-07
1.01465e-07
-1.49177e-07
3.45367e-08
-1.31353e-07
-5.25972e-08
-5.39257e-08
-1.25533e-07
5.34283e-08
-1.47001e-07
1.43353e-07
-9.57069e-08
1.68696e-07
1.51193e-08
1.0699e-07
1.34553e-07
-2.11224e-08
1.95187e-07
-1.54001e-07
1.51626e-07
-2.1692e-07
1.39215e-08
-1.64451e-07
-1.48438e-07
-1.29575e-08
-2.40775e-07
1.59991e-07
-1.9945e-07
2.54768e-07
-3.59913e-08
2.08088e-07
1.61683e-07
3.57138e-08
2.76886e-07
-1.69707e-07
2.34692e-07
-2.88975e-07
5.17751e-08
-2.47262e-07
-1.68266e-07
-6.23687e-08
-2.94793e-07
1.61647e-07
-2.5001e-07
2.9449e-07
-5.8721e-08
2.57978e-07
1.64915e-07
7.41376e-08
2.87065e-07
-1.47792e-07
2.3725e-07
-2.78187e-07
5.18842e-08
-2.46014e-07
-1.5026e-07
-8.01982e-08
-2.45522e-07
1.12415e-07
-1.85238e-07
2.17249e-07
-2.44557e-08
1.83789e-07
1.21031e-07
5.22616e-08
1.5989e-07
-8.02958e-08
9.39376e-08
-1.28806e-07
5.11619e-09
-7.96811e-08
-1.75536e-09
-1.81728e-07
1.84294e-07
-2.29152e-08
1.48934e-07
2.09378e-07
-6.59919e-08
3.41729e-07
-2.86751e-07
2.40533e-07
-3.68e-07
-5.08981e-08
-2.30422e-07
-3.51716e-07
7.26146e-08
-4.58769e-07
3.67889e-07
-2.83486e-07
4.65929e-07
8.25493e-08
2.86776e-07
4.19251e-07
-7.90553e-08
5.15429e-07
-4.18473e-07
3.03854e-07
-5.24995e-07
-9.33378e-08
-3.27841e-07
-4.38635e-07
6.13838e-08
-5.25638e-07
4.14821e-07
-3.05257e-07
5.26182e-07
8.69029e-08
3.34369e-07
4.16711e-07
-4.28221e-08
4.94828e-07
-3.8323e-07
2.87533e-07
-4.94519e-07
-7.08463e-08
-3.25107e-07
-3.66363e-07
1.32713e-08
-4.3566e-07
3.1992e-07
-2.57234e-07
4.26419e-07
4.7603e-08
2.90178e-07
2.97105e-07
7.85677e-09
3.58736e-07
-2.52036e-07
2.19206e-07
-3.50695e-07
-2.1657e-08
-2.52909e-07
-2.208e-07
-3.42688e-08
-2.77232e-07
1.74241e-07
-1.81616e-07
2.64778e-07
-7.10469e-09
2.07061e-07
1.43928e-07
5.22527e-08
1.99569e-07
-1.0732e-07
1.49857e-07
-1.92688e-07
3.85195e-08
-1.7505e-07
-7.13191e-08
-7.94369e-08
-1.32123e-07
3.86151e-08
-1.28727e-07
1.24525e-07
-7.43275e-08
1.46871e-07
3.83075e-09
1.03791e-07
7.67983e-08
1.74195e-08
1.19745e-07
-7.64302e-08
1.15156e-07
-1.39355e-07
5.86934e-08
-1.42267e-07
-3.32142e-08
-7.78457e-08
-1.22078e-07
3.1095e-08
-1.60256e-07
1.35177e-07
-1.16548e-07
1.78292e-07
-6.09305e-10
1.27776e-07
1.32408e-07
-1.34467e-09
2.06426e-07
-1.4587e-07
1.68572e-07
-2.23995e-07
2.6827e-08
-1.82148e-07
-1.45606e-07
-3.18591e-08
-2.47704e-07
1.48897e-07
-2.11021e-07
2.55924e-07
-4.62108e-08
2.20099e-07
1.56358e-07
5.28604e-08
2.76778e-07
-1.54599e-07
2.38431e-07
-2.81857e-07
5.8187e-08
-2.51137e-07
-1.59739e-07
-7.65099e-08
-2.85372e-07
1.41739e-07
-2.42998e-07
2.76237e-07
-5.90657e-08
2.49597e-07
1.53608e-07
8.1298e-08
2.66515e-07
-1.25456e-07
2.16324e-07
-2.48708e-07
4.34778e-08
-2.2304e-07
-1.37154e-07
-7.69864e-08
-2.14144e-07
9.07237e-08
-1.5263e-07
1.78806e-07
-1.12512e-08
1.48478e-07
1.08608e-07
4.18453e-08
1.38229e-07
-5.72723e-08
8.87189e-08
-8.87752e-08
-4.8756e-08
-2.92821e-07
1.34388e-07
-2.32992e-07
2.31989e-07
-2.5423e-09
1.52797e-07
2.66041e-07
-6.16297e-08
3.8221e-07
-2.95222e-07
2.54689e-07
-3.886e-07
-5.55385e-08
-2.52999e-07
-3.61254e-07
5.53795e-08
-4.64474e-07
3.58954e-07
-2.86292e-07
4.67415e-07
7.6259e-08
3.00894e-07
4.06117e-07
-5.32435e-08
5.00598e-07
-3.8872e-07
2.98693e-07
-5.05099e-07
-7.99841e-08
-3.30925e-07
-4.09082e-07
3.19821e-08
-4.94792e-07
3.70551e-07
-2.92586e-07
4.89409e-07
7.02216e-08
3.26494e-07
3.76748e-07
-1.45831e-08
4.53195e-07
-3.31876e-07
2.69077e-07
-4.47412e-07
-5.35525e-08
-3.08816e-07
-3.21731e-07
-1.13442e-08
-3.8893e-07
2.67351e-07
-2.35608e-07
3.74944e-07
3.14272e-08
2.68315e-07
2.52707e-07
2.71472e-08
3.12182e-07
-2.03483e-07
1.97315e-07
-3.00922e-07
-7.2307e-09
-2.29613e-07
-1.79976e-07
-4.90149e-08
-2.34804e-07
1.3187e-07
-1.61977e-07
2.20091e-07
-1.99649e-08
1.84989e-07
1.0834e-07
6.32157e-08
1.63492e-07
-7.22916e-08
1.34094e-07
-1.55383e-07
5.03688e-08
-1.5667e-07
-4.12483e-08
-8.86082e-08
-1.02997e-07
9.64118e-09
-1.17389e-07
9.39787e-08
-8.56285e-08
1.32133e-07
-2.12563e-08
1.11607e-07
5.39533e-08
4.11127e-08
1.12222e-07
-5.18579e-08
1.25735e-07
-1.27943e-07
7.93417e-08
-1.49329e-07
-1.54444e-08
-9.79294e-08
-1.16964e-07
1.00605e-08
-1.69184e-07
1.2459e-07
-1.3287e-07
1.82854e-07
-1.45861e-08
1.43829e-07
1.27693e-07
1.70914e-08
2.11827e-07
-1.34372e-07
1.79714e-07
-2.24484e-07
3.76424e-08
-1.93704e-07
-1.39405e-07
-4.88439e-08
-2.47287e-07
1.33903e-07
-2.1535e-07
2.49117e-07
-5.36565e-08
2.24384e-07
1.47339e-07
6.69853e-08
2.68235e-07
-1.35788e-07
2.33617e-07
-2.66023e-07
6.08476e-08
-2.4588e-07
-1.47834e-07
-8.60508e-08
-2.67162e-07
1.19375e-07
-2.26677e-07
2.49786e-07
-5.48464e-08
2.31667e-07
1.39633e-07
8.2525e-08
2.37954e-07
-1.02686e-07
1.87105e-07
-2.13332e-07
3.1253e-08
-1.92436e-07
-1.22224e-07
-6.82786e-08
-1.77725e-07
7.11691e-08
-1.13798e-07
1.411e-07
1.12487e-08
1.1429e-07
1.03955e-07
2.88237e-08
1.11161e-07
-4.86554e-08
-5.87426e-08
-2.36916e-07
1.59372e-10
-3.07871e-07
1.68208e-07
-2.10421e-07
2.69447e-07
3.49382e-08
1.93259e-07
2.90815e-07
-4.02515e-08
3.92297e-07
-2.92081e-07
2.55041e-07
-3.96023e-07
-5.52445e-08
-2.6766e-07
-3.53997e-07
3.38093e-08
-4.52512e-07
3.34391e-07
-2.80266e-07
4.5017e-07
6.59326e-08
3.03117e-07
3.79232e-07
-2.66414e-08
4.70398e-07
-3.46698e-07
2.84853e-07
-4.68564e-07
-6.46419e-08
-3.21784e-07
-3.69018e-07
4.67915e-09
-4.51408e-07
3.18273e-07
-2.72152e-07
4.39625e-07
5.31668e-08
3.0756e-07
3.2971e-07
9.60883e-09
4.025e-07
-2.76638e-07
2.44486e-07
-3.91493e-07
-3.70217e-08
-2.83594e-07
-2.73288e-07
-3.09256e-08
-3.36707e-07
2.14383e-07
-2.0977e-07
3.18751e-07
1.66773e-08
2.40127e-07
2.07195e-07
4.13566e-08
2.6323e-07
-1.56921e-07
1.73002e-07
-2.49679e-07
5.45812e-09
-2.02354e-07
-1.39989e-07
-5.91066e-08
-1.92263e-07
9.28905e-08
-1.41245e-07
1.76134e-07
-3.09193e-08
1.6071e-07
7.48512e-08
7.00828e-08
1.28703e-07
-4.12473e-08
1.17925e-07
-1.19902e-07
6.00418e-08
-1.36937e-07
-1.40923e-08
-9.39107e-08
-7.58169e-08
-1.50762e-08
-1.05668e-07
6.55998e-08
-9.4187e-08
1.16089e-07
-4.27679e-08
1.15284e-07
3.3237e-08
6.02667e-08
1.03786e-07
-2.93607e-08
1.32607e-07
-1.14607e-07
9.56427e-08
-1.51348e-07
1.81236e-10
-1.12798e-07
-1.10076e-07
-8.91949e-09
-1.73102e-07
1.11255e-07
-1.43839e-07
1.81109e-07
-2.63128e-08
1.53612e-07
1.20315e-07
3.3205e-08
2.10805e-07
-1.19426e-07
1.84321e-07
-2.17309e-07
4.58547e-08
-1.97599e-07
-1.29944e-07
-6.2689e-08
-2.39274e-07
1.15407e-07
-2.12003e-07
2.33812e-07
-5.78738e-08
2.19772e-07
1.35017e-07
7.67804e-08
2.5155e-07
-1.14248e-07
2.20393e-07
-2.41817e-07
5.96265e-08
-2.31122e-07
-1.33093e-07
-8.99963e-08
-2.4114e-07
9.59535e-08
-2.02205e-07
2.16579e-07
-4.68235e-08
2.05175e-07
1.23331e-07
7.7791e-08
2.03132e-07
-8.09007e-08
1.52216e-07
-1.74664e-07
1.75887e-08
-1.56887e-07
-1.03915e-07
-5.51666e-08
-1.35131e-07
5.50023e-08
-6.92876e-08
1.05268e-07
2.68251e-08
7.67506e-08
7.46478e-08
5.76066e-09
-3.6193e-08
-5.06159e-08
-1.32879e-07
-2.04135e-07
1.14137e-09
-2.84148e-07
2.10355e-07
-1.98848e-07
3.0676e-07
3.80476e-08
2.15036e-07
2.87239e-07
-2.41132e-08
3.83126e-07
-2.75532e-07
2.47995e-07
-3.83678e-07
-4.94867e-08
-2.70233e-07
-3.32169e-07
9.85949e-09
-4.24743e-07
2.95269e-07
-2.65321e-07
4.14761e-07
5.36461e-08
2.9317e-07
3.41565e-07
-6.4965e-10
4.27121e-07
-2.94612e-07
2.62668e-07
-4.1746e-07
-4.92458e-08
-3.01253e-07
-3.21754e-07
-1.95236e-08
-3.98458e-07
2.60472e-07
-2.44966e-07
3.79576e-07
3.72965e-08
2.79123e-07
2.78913e-07
2.92489e-08
3.46014e-07
-2.19828e-07
2.15195e-07
-3.29633e-07
-2.23893e-08
-2.51328e-07
-2.24029e-07
-4.5416e-08
-2.82123e-07
1.62871e-07
-1.81272e-07
2.60375e-07
4.11799e-09
2.07428e-07
1.63051e-07
5.06932e-08
2.14568e-07
-1.13664e-07
1.47666e-07
-1.98898e-07
1.58812e-08
-1.72561e-07
-1.02792e-07
-6.47896e-08
-1.51735e-07
5.81516e-08
-1.20504e-07
1.3416e-07
-3.95243e-08
1.35089e-07
4.4991e-08
7.29233e-08
9.67943e-08
-1.47526e-08
1.02065e-07
-8.69152e-08
6.70496e-08
-1.16122e-07
8.87549e-09
-9.50924e-08
-5.17926e-08
-3.50431e-08
-9.39734e-08
3.96703e-08
-9.94166e-08
9.85318e-08
-5.95425e-08
1.14222e-07
1.56468e-08
7.43031e-08
9.46703e-08
-9.06334e-09
1.35128e-07
-9.88662e-08
1.0648e-07
-1.47479e-07
1.27287e-08
-1.21729e-07
-1.01652e-07
-2.56709e-08
-1.71452e-07
9.46976e-08
-1.48437e-07
1.722e-07
-3.48532e-08
1.56347e-07
1.10681e-07
4.66645e-08
2.03094e-07
-1.00833e-07
1.81633e-07
-2.01919e-07
5.05637e-08
-1.93224e-07
-1.17908e-07
-7.29215e-08
-2.23914e-07
9.36898e-08
-2.00727e-07
2.10116e-07
-5.81873e-08
2.06162e-07
1.20313e-07
8.18283e-08
2.2764e-07
-9.07835e-08
1.99351e-07
-2.10285e-07
5.4468e-08
-2.07711e-07
-1.16427e-07
-8.84176e-08
-2.08983e-07
7.25548e-08
-1.71482e-07
1.78665e-07
-3.61615e-08
1.72291e-07
1.05242e-07
6.81858e-08
1.6465e-07
-6.09487e-08
1.15657e-07
-1.35314e-07
6.25347e-09
-1.19542e-07
-8.13514e-08
-4.01894e-08
-9.26677e-08
3.98776e-08
-4.11561e-08
6.82732e-08
1.32054e-08
3.8992e-08
-3.49579e-09
1.48472e-07
-1.80908e-07
3.88936e-09
-1.53973e-07
-1.89089e-07
2.87283e-08
-2.90701e-07
2.16133e-07
-2.02169e-07
2.99491e-07
3.28318e-08
2.15997e-07
2.71072e-07
-4.68963e-09
3.58957e-07
-2.42028e-07
2.31741e-07
-3.52702e-07
-4.16567e-08
-2.61797e-07
-2.9838e-07
-1.4831e-08
-3.82107e-07
2.45593e-07
-2.40608e-07
3.65329e-07
4.15619e-08
2.72907e-07
2.9564e-07
2.31317e-08
3.72489e-07
-2.36762e-07
2.32175e-07
-3.56507e-07
-3.55596e-08
-2.71921e-07
-2.70029e-07
-3.96874e-08
-3.38252e-07
2.01069e-07
-2.11656e-07
3.13996e-07
2.40275e-08
2.44171e-07
2.2705e-07
4.40755e-08
2.86216e-07
-1.6463e-07
1.82117e-07
-2.66058e-07
-1.07539e-08
-2.14982e-07
-1.76357e-07
-5.50823e-08
-2.27472e-07
1.15111e-07
-1.51028e-07
2.03195e-07
-5.38305e-09
1.72803e-07
1.22277e-07
5.572e-08
1.68086e-07
-7.51727e-08
1.22006e-07
-1.51008e-07
2.32572e-08
-1.42238e-07
-7.00362e-08
-6.66982e-08
-1.14663e-07
2.84645e-08
-1.00129e-07
9.57437e-08
-4.49436e-08
1.0952e-07
2.01935e-08
7.22866e-08
6.88499e-08
6.80211e-09
8.65643e-08
-5.73502e-08
7.04035e-08
-9.51105e-08
2.62808e-08
-9.25607e-08
-3.18001e-08
-5.00896e-08
-8.21213e-08
1.67353e-08
-1.00173e-07
8.00431e-08
-7.01678e-08
1.08754e-07
2.00824e-09
8.31711e-08
8.46149e-08
8.65403e-09
1.32102e-07
-8.12407e-08
1.10411e-07
-1.38129e-07
2.13213e-08
-1.24796e-07
-9.15433e-08
-3.9835e-08
-1.63195e-07
7.56046e-08
-1.45335e-07
1.56836e-07
-3.92807e-08
1.52357e-07
9.89161e-08
5.71143e-08
1.88075e-07
-7.95969e-08
1.70683e-07
-1.79541e-07
5.09198e-08