/*--------------------------------*- C++ -*----------------------------------*\
| =========                 |                                                 |
| \\      /  F ield         | OpenFOAM: The Open Source CFD Toolbox           |
|  \\    /   O peration     | Version:  2412                                  |
|   \\  /    A nd           | Website:  www.openfoam.com                      |
|    \\/     M anipulation  |                                                 |
\*---------------------------------------------------------------------------*/
FoamFile
{
    version     2.0;
    format      ascii;
    arch        "LSB;label=32;scalar=64";
    class       volVectorField;
    location    "6.2";
    object      U;
}
// * * * * * * * * * * * * * * * * * * * * * * * * * * * * * * * * * * * * * //

dimensions      [0 1 -1 0 0 0 0];

internalField   nonuniform List<vector> 
6400
(
(0.000879339 -0.000949945 0)
(0.00297003 -0.00108451 0)
(0.0056336 -0.00112445 0)
(0.00834686 -0.00111149 0)
(0.0109269 -0.00103638 0)
(0.0132185 -0.000925929 0)
(0.0151563 -0.000796241 0)
(0.0166774 -0.00065783 0)
(0.0177659 -0.000496735 0)
(0.0184435 -0.000328864 0)
(0.0186984 -0.000155775 0)
(0.0185585 2.29221e-05 0)
(0.0180295 0.000199205 0)
(0.0171253 0.000371581 0)
(0.0158726 0.000537656 0)
(0.0142798 0.000701901 0)
(0.0124033 0.000856612 0)
(0.0102312 0.000988068 0)
(0.00778987 0.00112136 0)
(0.0051704 0.00123766 0)
(0.0023567 0.00131925 0)
(-0.000591258 0.00138512 0)
(-0.00357059 0.00141528 0)
(-0.00653487 0.00140493 0)
(-0.00940675 0.00135546 0)
(-0.0121008 0.00126372 0)
(-0.014536 0.00113088 0)
(-0.0166279 0.000960438 0)
(-0.0183103 0.000750839 0)
(-0.0195193 0.000519067 0)
(-0.020187 0.000263497 0)
(-0.0202878 -2.1072e-05 0)
(-0.0198147 -0.000304604 0)
(-0.0187502 -0.00058436 0)
(-0.0171138 -0.000851655 0)
(-0.0149552 -0.00109202 0)
(-0.0123339 -0.00129882 0)
(-0.00933145 -0.00146535 0)
(-0.00603971 -0.00158262 0)
(-0.00256333 -0.0016436 0)
(0.000980386 -0.00164684 0)
(0.00446257 -0.00159277 0)
(0.0077711 -0.00148053 0)
(0.0107959 -0.00131867 0)
(0.0134446 -0.00111101 0)
(0.0156325 -0.000868437 0)
(0.0173019 -0.000600025 0)
(0.0184042 -0.000322558 0)
(0.0189112 -4.10208e-05 0)
(0.018834 0.000242011 0)
(0.0181852 0.000503304 0)
(0.0169963 0.000741084 0)
(0.0153265 0.000951556 0)
(0.0132401 0.00112398 0)
(0.0108066 0.00126038 0)
(0.00811553 0.00135624 0)
(0.0052495 0.00140756 0)
(0.00228779 0.00141742 0)
(-0.000692586 0.00138957 0)
(-0.00361914 0.00132724 0)
(-0.0064254 0.00123729 0)
(-0.00907063 0.00112296 0)
(-0.0114774 0.00100109 0)
(-0.0136144 0.0008532 0)
(-0.0154975 0.000699405 0)
(-0.0170596 0.000533315 0)
(-0.0182793 0.000365258 0)
(-0.0191489 0.000189924 0)
(-0.0196491 7.05636e-06 0)
(-0.0197447 -0.000170415 0)
(-0.0194179 -0.000351082 0)
(-0.0186787 -0.000519066 0)
(-0.0175028 -0.000679806 0)
(-0.0158905 -0.000833143 0)
(-0.0138543 -0.000968625 0)
(-0.0114344 -0.00108256 0)
(-0.00872061 -0.00115551 0)
(-0.00587562 -0.00116481 0)
(-0.0030996 -0.00110645 0)
(-0.000913514 -0.000982501 0)
(0.00081773 -0.00287942 0)
(0.00317916 -0.00370771 0)
(0.00663034 -0.00424158 0)
(0.010215 -0.00423256 0)
(0.0136298 -0.00386136 0)
(0.016604 -0.00330362 0)
(0.0190287 -0.00265385 0)
(0.0208539 -0.00197165 0)
(0.0220697 -0.00126844 0)
(0.0227063 -0.000584927 0)
(0.0228041 7.04938e-05 0)
(0.0224201 0.000689362 0)
(0.0215851 0.00127029 0)
(0.0203341 0.00182455 0)
(0.0187097 0.0023459 0)
(0.0167208 0.00283234 0)
(0.0143985 0.00327751 0)
(0.0117667 0.00367133 0)
(0.00886366 0.00402164 0)
(0.00575863 0.00431118 0)
(0.00248748 0.00450835 0)
(-0.000882472 0.00462449 0)
(-0.00426404 0.00463242 0)
(-0.00758707 0.00452249 0)
(-0.0107713 0.00429289 0)
(-0.0137304 0.00393664 0)
(-0.0163848 0.00345534 0)
(-0.0186558 0.00286021 0)
(-0.0204594 0.00215824 0)
(-0.0217308 0.00137142 0)
(-0.0224258 0.000517187 0)
(-0.0224962 -0.000384633 0)
(-0.0219345 -0.00129601 0)
(-0.020746 -0.00219963 0)
(-0.0189417 -0.00305166 0)
(-0.0165786 -0.00382205 0)
(-0.0137259 -0.0044873 0)
(-0.0104686 -0.00502061 0)
(-0.00690148 -0.00538913 0)
(-0.00313589 -0.00558493 0)
(0.000702357 -0.00559131 0)
(0.00447624 -0.00541203 0)
(0.00806015 -0.00505261 0)
(0.0113395 -0.00453047 0)
(0.0142179 -0.00387269 0)
(0.0166027 -0.00309713 0)
(0.0184296 -0.00224009 0)
(0.0196472 -0.0013372 0)
(0.0202337 -0.000418876 0)
(0.0201835 0.00049048 0)
(0.0195096 0.00134519 0)
(0.0182529 0.00214025 0)
(0.0164606 0.00284973 0)
(0.0141993 0.00344923 0)
(0.0115494 0.00393182 0)
(0.00859925 0.00428855 0)
(0.00543075 0.00451711 0)
(0.00212561 0.00462377 0)
(-0.00123578 0.00461401 0)
(-0.00457017 0.00449411 0)
(-0.00780664 0.00428369 0)
(-0.010889 0.00399539 0)
(-0.0137473 0.00365075 0)
(-0.0163291 0.00323566 0)
(-0.0186141 0.00278018 0)
(-0.0205472 0.00229315 0)
(-0.0221107 0.0017685 0)
(-0.0232984 0.00120673 0)
(-0.0240682 0.000607703 0)
(-0.0243807 -2.59844e-05 0)
(-0.0241852 -0.000698205 0)
(-0.0234468 -0.00139227 0)
(-0.0221152 -0.00211061 0)
(-0.0201539 -0.00283098 0)
(-0.0175669 -0.00350914 0)
(-0.0143999 -0.00408583 0)
(-0.0107848 -0.00445977 0)
(-0.00699153 -0.00445447 0)
(-0.00335967 -0.0038818 0)
(-0.000858239 -0.00301682 0)
(0.000866139 -0.00502623 0)
(0.00360262 -0.00692358 0)
(0.00763687 -0.00813343 0)
(0.0118832 -0.00817727 0)
(0.0159714 -0.00747962 0)
(0.0195632 -0.0063846 0)
(0.0225074 -0.00510082 0)
(0.0247438 -0.00374802 0)
(0.0262725 -0.00240427 0)
(0.0271369 -0.00111524 0)
(0.02739 9.33663e-05 0)
(0.0270964 0.00121023 0)
(0.0263062 0.00225483 0)
(0.0250491 0.00324233 0)
(0.0233653 0.00417439 0)
(0.0212876 0.005038 0)
(0.0188674 0.00583099 0)
(0.0161145 0.00653473 0)
(0.0130608 0.00714555 0)
(0.00978374 0.00764172 0)
(0.0063141 0.00798839 0)
(0.00271935 0.00817455 0)
(-0.000914686 0.00817641 0)
(-0.00451109 0.00797834 0)
(-0.00798765 0.00757196 0)
(-0.0112564 0.00695656 0)
(-0.0142256 0.00613134 0)
(-0.0168116 0.00510797 0)
(-0.0189331 0.00390521 0)
(-0.0205133 0.00255161 0)
(-0.0214872 0.00108867 0)
(-0.0218086 -0.000441018 0)
(-0.021477 -0.00200721 0)
(-0.0204769 -0.00354812 0)
(-0.0188191 -0.00500615 0)
(-0.0165735 -0.00632625 0)
(-0.0138011 -0.00746883 0)
(-0.0105825 -0.00836666 0)
(-0.00703533 -0.00899942 0)
(-0.00328006 -0.00932421 0)
(0.000561924 -0.00933624 0)
(0.00433359 -0.00903295 0)
(0.00790225 -0.00842605 0)
(0.0111379 -0.00753554 0)
(0.0139461 -0.00640808 0)
(0.0162314 -0.00508531 0)
(0.0179192 -0.00363313 0)
(0.0189589 -0.00208505 0)
(0.0193253 -0.000508055 0)
(0.0190145 0.00104382 0)
(0.01806 0.00251687 0)
(0.0165094 0.00386716 0)
(0.0144055 0.00508096 0)
(0.0118321 0.00611013 0)
(0.0088748 0.00693856 0)
(0.00562553 0.0075503 0)
(0.00217024 0.00794861 0)
(-0.00140575 0.00814069 0)
(-0.00501943 0.008132 0)
(-0.0085752 0.00793679 0)
(-0.0119978 0.00757816 0)
(-0.0152411 0.00708003 0)
(-0.0182428 0.00645969 0)
(-0.0209489 0.00573526 0)
(-0.0233272 0.0049275 0)
(-0.0253384 0.00406176 0)
(-0.0269499 0.00312699 0)
(-0.0281266 0.00212877 0)
(-0.0288477 0.0010563 0)
(-0.029068 -9.43076e-05 0)
(-0.0287157 -0.00132331 0)
(-0.0277447 -0.00264394 0)
(-0.0260893 -0.00403008 0)
(-0.0237041 -0.00543363 0)
(-0.0205857 -0.00677175 0)
(-0.0167876 -0.00790601 0)
(-0.0124759 -0.00862329 0)
(-0.00800381 -0.00855522 0)
(-0.0037699 -0.00728403 0)
(-0.000892494 -0.00526973 0)
(0.000843169 -0.00731406 0)
(0.00373092 -0.0104861 0)
(0.00817515 -0.0124881 0)
(0.0129515 -0.0126502 0)
(0.0175998 -0.0116026 0)
(0.0216677 -0.00988863 0)
(0.0249428 -0.00787052 0)
(0.0273725 -0.00576117 0)
(0.0290039 -0.00369562 0)
(0.0299235 -0.00174509 0)
(0.0301958 5.80973e-05 0)
(0.0299087 0.00171333 0)
(0.0291199 0.00325848 0)
(0.0278553 0.00469852 0)
(0.0261544 0.00605044 0)
(0.024049 0.00730585 0)
(0.0215691 0.00846228 0)
(0.0187336 0.00948756 0)
(0.0155735 0.0103872 0)
(0.0121398 0.0111168 0)
(0.00848173 0.0116417 0)
(0.00466636 0.0119339 0)
(0.000769659 0.0119652 0)
(-0.00312316 0.0117053 0)
(-0.00691559 0.0111428 0)
(-0.0105113 0.0102821 0)
(-0.0138105 0.00911505 0)
(-0.016716 0.00765707 0)
(-0.0191308 0.00593592 0)
(-0.0209671 0.00399765 0)
(-0.022163 0.00189519 0)
(-0.0226728 -0.000324091 0)
(-0.0224696 -0.00260006 0)
(-0.021535 -0.00483407 0)
(-0.0198842 -0.00695939 0)
(-0.0175807 -0.00889118 0)
(-0.0146722 -0.0105481 0)
(-0.0112638 -0.0118653 0)
(-0.00748434 -0.012797 0)
(-0.00346218 -0.0132708 0)
(0.000648871 -0.0132863 0)
(0.00469075 -0.012837 0)
(0.00850647 -0.0119466 0)
(0.0119467 -0.0106504 0)
(0.0148945 -0.0090072 0)
(0.0172379 -0.00707941 0)
(0.0189271 -0.00496732 0)
(0.019912 -0.00272004 0)
(0.0201537 -0.000434412 0)
(0.0196644 0.00181006 0)
(0.0184686 0.00394832 0)
(0.0166522 0.00589024 0)
(0.0142653 0.00761017 0)
(0.0113788 0.00907376 0)
(0.00809494 0.010246 0)
(0.00451322 0.0111026 0)
(0.000741636 0.0116516 0)
(-0.00312767 0.0118985 0)
(-0.00700252 0.011859 0)
(-0.0107837 0.0115567 0)
(-0.0143972 0.0110169 0)
(-0.0177932 0.0102769 0)
(-0.0209079 0.00936903 0)
(-0.0236921 0.00830974 0)
(-0.0261193 0.00713873 0)
(-0.0281569 0.00587065 0)
(-0.0297801 0.00450726 0)
(-0.0309685 0.00305588 0)
(-0.0316963 0.00148505 0)
(-0.0319064 -0.00020758 0)
(-0.0315438 -0.00205522 0)
(-0.0305316 -0.00405677 0)
(-0.028769 -0.00618547 0)
(-0.0261879 -0.008366 0)
(-0.0227349 -0.0104681 0)
(-0.0184509 -0.0122529 0)
(-0.0135601 -0.0133356 0)
(-0.00853756 -0.0131262 0)
(-0.00388881 -0.0110155 0)
(-0.000865633 -0.00764933 0)
(0.000778968 -0.00959096 0)
(0.00369931 -0.0142625 0)
(0.00855239 -0.0173054 0)
(0.0139956 -0.0177074 0)
(0.0193675 -0.0162526 0)
(0.0239854 -0.0137629 0)
(0.0275572 -0.0108369 0)
(0.0300665 -0.00784324 0)
(0.031636 -0.00497151 0)
(0.0324341 -0.00232683 0)
(0.0325698 8.07573e-05 0)
(0.0321606 0.00227724 0)
(0.031275 0.004311 0)
(0.0299275 0.00620535 0)
(0.0281497 0.00797697 0)
(0.0259638 0.00963507 0)
(0.0233853 0.011171 0)
(0.0204202 0.0125668 0)
(0.0170924 0.0137852 0)
(0.0134526 0.014787 0)
(0.00954928 0.015528 0)
(0.00544821 0.0159634 0)
(0.00122826 0.016056 0)
(-0.00302022 0.0157577 0)
(-0.00718124 0.0150569 0)
(-0.0111559 0.0139487 0)
(-0.0148315 0.0124289 0)
(-0.0180854 0.0105135 0)
(-0.0208077 0.00824485 0)
(-0.0229018 0.00567945 0)
(-0.024301 0.00286286 0)
(-0.0249484 -0.000112068 0)
(-0.0247966 -0.00315587 0)
(-0.0238246 -0.00616112 0)
(-0.0220529 -0.00902192 0)
(-0.0195225 -0.0116388 0)
(-0.0163036 -0.013891 0)
(-0.0125114 -0.015695 0)
(-0.00826675 -0.0169598 0)
(-0.00374112 -0.0176165 0)
(0.000886905 -0.0176371 0)
(0.00543098 -0.0170231 0)
(0.00970568 -0.0158043 0)
(0.0135425 -0.0140382 0)
(0.0168206 -0.0118088 0)
(0.0193997 -0.00920425 0)
(0.0212239 -0.00634306 0)
(0.0222528 -0.00331846 0)
(0.0224401 -0.000248916 0)
(0.0218228 0.00275304 0)
(0.0204234 0.00559664 0)
(0.0183231 0.00819756 0)
(0.0156196 0.0104617 0)
(0.0123907 0.0123778 0)
(0.00872809 0.0138929 0)
(0.00476373 0.014999 0)
(0.000618851 0.0156858 0)
(-0.00360514 0.0159647 0)
(-0.00780176 0.0158604 0)
(-0.0118724 0.0154089 0)
(-0.0157363 0.0146491 0)
(-0.0193329 0.0136318 0)
(-0.0226144 0.0124002 0)
(-0.0255263 0.0109692 0)
(-0.0280439 0.00941082 0)
(-0.0301681 0.00773396 0)
(-0.0318695 0.00593266 0)
(-0.0331443 0.00402977 0)
(-0.0339836 0.00198306 0)
(-0.0343316 -0.000250805 0)
(-0.0341129 -0.00272453 0)
(-0.0332285 -0.00543735 0)
(-0.0315428 -0.00839344 0)
(-0.0288952 -0.0114966 0)
(-0.0251419 -0.0145457 0)
(-0.0202828 -0.0171442 0)
(-0.0146237 -0.0186378 0)
(-0.00890473 -0.0181601 0)
(-0.00385046 -0.0149616 0)
(-0.000801196 -0.0100169 0)
(0.000667984 -0.0117882 0)
(0.00343775 -0.0182345 0)
(0.00865872 -0.0227081 0)
(0.0150579 -0.023587 0)
(0.0215992 -0.0216656 0)
(0.0270689 -0.0181151 0)
(0.0310044 -0.0139635 0)
(0.0335044 -0.00986172 0)
(0.0348612 -0.00608015 0)
(0.0353824 -0.00270742 0)
(0.0352601 0.000287146 0)
(0.0346333 0.00300062 0)
(0.0335775 0.00549113 0)
(0.0320942 0.00781932 0)
(0.0301994 0.0100051 0)
(0.0278976 0.0120779 0)
(0.0251879 0.0140189 0)
(0.0220532 0.0158188 0)
(0.0185073 0.0173981 0)
(0.0146031 0.0187204 0)
(0.0103851 0.0197191 0)
(0.00592323 0.0203434 0)
(0.00129026 0.0205338 0)
(-0.00340665 0.0202244 0)
(-0.00803151 0.0193988 0)
(-0.0124733 0.0180369 0)
(-0.0166062 0.016145 0)
(-0.0202871 0.0137407 0)
(-0.0233815 0.0108774 0)
(-0.0257998 0.00760384 0)
(-0.0274428 0.00399584 0)
(-0.0282202 0.00018166 0)
(-0.0280943 -0.00372969 0)
(-0.0270329 -0.00761425 0)
(-0.0250594 -0.0113192 0)
(-0.0222104 -0.0147196 0)
(-0.0185441 -0.017669 0)
(-0.0141969 -0.0200336 0)
(-0.00932175 -0.021698 0)
(-0.00411649 -0.0225725 0)
(0.00120887 -0.0226049 0)
(0.00643839 -0.021806 0)
(0.0113552 -0.0201988 0)
(0.0157553 -0.0178861 0)
(0.0194889 -0.0149576 0)
(0.0224063 -0.0115707 0)
(0.024453 -0.00784571 0)
(0.0255809 -0.0039408 0)
(0.0257375 1.40991e-05 0)
(0.0249763 0.00386949 0)
(0.0233498 0.00750325 0)
(0.0209267 0.0108127 0)
(0.0178267 0.0136876 0)
(0.0141606 0.0160864 0)
(0.0100375 0.0179708 0)
(0.00560236 0.019329 0)
(0.000982963 0.0201373 0)
(-0.00369031 0.0204202 0)
(-0.00829835 0.0202133 0)
(-0.012735 0.0195692 0)
(-0.0169141 0.0185405 0)
(-0.0207718 0.017196 0)
(-0.0242729 0.0155907 0)
(-0.02735 0.0137668 0)
(-0.0299934 0.0117932 0)
(-0.0322474 0.00969692 0)
(-0.0340703 0.00747913 0)
(-0.0354753 0.00514308 0)
(-0.0364939 0.00264642 0)
(-0.0370716 -0.000101498 0)
(-0.0371277 -0.00317105 0)
(-0.0365497 -0.00663579 0)
(-0.035112 -0.010531 0)
(-0.0324899 -0.0147939 0)
(-0.0283551 -0.019136 0)
(-0.022589 -0.0228451 0)
(-0.0156866 -0.0248141 0)
(-0.00897769 -0.0238212 0)
(-0.0035661 -0.0191001 0)
(-0.000684431 -0.0123018 0)
(0.00047381 -0.0136738 0)
(0.00259654 -0.0221229 0)
(0.00801221 -0.0287374 0)
(0.0158642 -0.0307377 0)
(0.0243248 -0.0283462 0)
(0.0312125 -0.0232108 0)
(0.0356712 -0.0172587 0)
(0.0380144 -0.0116899 0)
(0.0389252 -0.00685992 0)
(0.0389595 -0.0027422 0)
(0.0384415 0.000791458 0)
(0.0375216 0.00394318 0)
(0.0362491 0.00683502 0)
(0.0346134 0.00955428 0)
(0.0326009 0.0121517 0)
(0.0301826 0.0146532 0)
(0.0273361 0.0170359 0)
(0.0240115 0.0192761 0)
(0.0202102 0.0212789 0)
(0.015994 0.0229786 0)
(0.0113958 0.024294 0)
(0.00648825 0.025171 0)
(0.00133933 0.0254866 0)
(-0.00391748 0.0252001 0)
(-0.00912384 0.0242655 0)
(-0.0141571 0.0226513 0)
(-0.0188669 0.0203669 0)
(-0.0230847 0.0174199 0)
(-0.0266692 0.0138838 0)
(-0.0295026 0.00982815 0)
(-0.0314366 0.00534287 0)
(-0.0323849 0.000566998 0)
(-0.0323058 -0.0043454 0)
(-0.0311362 -0.00923658 0)
(-0.0288985 -0.0139354 0)
(-0.0256331 -0.0182516 0)
(-0.0214035 -0.0220187 0)
(-0.0163608 -0.0250541 0)
(-0.0106816 -0.0272013 0)
(-0.00460257 -0.0283435 0)
(0.001623 -0.028394 0)
(0.00773805 -0.0273501 0)
(0.0134693 -0.0252782 0)
(0.0185852 -0.0223076 0)
(0.0229045 -0.0185734 0)
(0.026258 -0.01427 0)
(0.0285829 -0.0095374 0)
(0.0298268 -0.00460872 0)
(0.0299489 0.000357872 0)
(0.0290106 0.00520144 0)
(0.0270844 0.00973103 0)
(0.0242454 0.0138097 0)
(0.020642 0.0173796 0)
(0.0164234 0.0203122 0)
(0.0117175 0.0225925 0)
(0.00667874 0.024194 0)
(0.00146385 0.0251084 0)
(-0.00376927 0.0253604 0)
(-0.00888781 0.0250053 0)
(-0.0137789 0.024111 0)
(-0.0183425 0.0227531 0)
(-0.0225092 0.0210177 0)
(-0.0262538 0.0189833 0)
(-0.0295198 0.0167281 0)
(-0.0323076 0.0143117 0)
(-0.0346795 0.0117875 0)
(-0.0366263 0.00916525 0)
(-0.0381812 0.0064411 0)
(-0.0394133 0.00354232 0)
(-0.0403047 0.000359274 0)
(-0.0407945 -0.00324696 0)
(-0.0407417 -0.0074633 0)
(-0.0397963 -0.0124456 0)
(-0.0373717 -0.0182425 0)
(-0.0327037 -0.0244891 0)
(-0.025455 -0.0298972 0)
(-0.0165366 -0.0323528 0)
(-0.00826674 -0.0301257 0)
(-0.00264265 -0.0231325 0)
(-0.000472111 -0.0142547 0)
(0.000110554 -0.0148082 0)
(0.00114282 -0.0256042 0)
(0.00807566 -0.0358728 0)
(0.0190372 -0.0401257 0)
(0.0296358 -0.0371242 0)
(0.0375311 -0.0293881 0)
(0.0421085 -0.0206516 0)
(0.0438691 -0.0130802 0)
(0.0439295 -0.0070308 0)
(0.0431737 -0.00223454 0)
(0.0420711 0.00170528 0)
(0.040782 0.00516184 0)
(0.0392833 0.00835938 0)
(0.0375207 0.01142 0)
(0.0354305 0.0144146 0)
(0.032923 0.0173595 0)
(0.0299469 0.0202259 0)
(0.0264288 0.0229505 0)
(0.0223515 0.0254484 0)
(0.0177716 0.0276132 0)
(0.0127388 0.029339 0)
(0.00728365 0.0305208 0)
(0.00149694 0.0310348 0)
(-0.0044362 0.0308191 0)
(-0.0103722 0.0298032 0)
(-0.0161462 0.0279353 0)
(-0.0215903 0.0252325 0)
(-0.0264961 0.0216983 0)
(-0.03067 0.0174035 0)
(-0.034011 0.0124541 0)
(-0.0363508 0.00696855 0)
(-0.0375414 0.00109683 0)
(-0.0375261 -0.00498701 0)
(-0.0362518 -0.0110577 0)
(-0.0337092 -0.0169129 0)
(-0.0299374 -0.0223268 0)
(-0.0250146 -0.0270725 0)
(-0.0190976 -0.0309168 0)
(-0.012414 -0.0336467 0)
(-0.00522817 -0.0350984 0)
(0.00216664 -0.035169 0)
(0.0094069 -0.033841 0)
(0.0161618 -0.0312282 0)
(0.0221623 -0.027465 0)
(0.0271876 -0.0227686 0)
(0.0310825 -0.0173527 0)
(0.0337459 -0.0114429 0)
(0.0351076 -0.00531412 0)
(0.0351804 0.000834005 0)
(0.0339993 0.00678918 0)
(0.0316433 0.0123377 0)
(0.0282973 0.0173372 0)
(0.0240764 0.0216688 0)
(0.0191363 0.0251912 0)
(0.0136929 0.0278912 0)
(0.00790662 0.0297361 0)
(0.00195593 0.0307318 0)
(-0.00397152 0.0309085 0)
(-0.0097168 0.0303364 0)
(-0.0151519 0.0291169 0)
(-0.0201658 0.0273467 0)
(-0.0246888 0.0251388 0)
(-0.0286962 0.0226078 0)
(-0.0321474 0.0198473 0)
(-0.0350616 0.016947 0)
(-0.0375287 0.0139787 0)
(-0.0395624 0.0109696 0)
(-0.041246 0.00792005 0)
(-0.0427038 0.00472637 0)
(-0.0439772 0.00124568 0)
(-0.0450882 -0.0027478 0)
(-0.0458867 -0.00763208 0)
(-0.0458698 -0.0138589 0)
(-0.0441213 -0.0217752 0)
(-0.0394983 -0.0309607 0)
(-0.0314137 -0.0391298 0)
(-0.0203185 -0.0422676 0)
(-0.00860256 -0.0376522 0)
(-0.0011765 -0.0267115 0)
(-9.63034e-05 -0.0153764 0)
(-0.000288515 -0.0152312 0)
(0.00206806 -0.0303283 0)
(0.0174727 -0.0467543 0)
(0.0357283 -0.0522459 0)
(0.0470873 -0.0466042 0)
(0.051357 -0.035319 0)
(0.0521405 -0.023352 0)
(0.0514454 -0.0134659 0)
(0.0498412 -0.00618001 0)
(0.0478539 -0.000917979 0)
(0.0459794 0.00314858 0)
(0.0442867 0.00667937 0)
(0.0426085 0.0100262 0)
(0.0407897 0.013357 0)
(0.038683 0.0167325 0)
(0.0361401 0.0201497 0)
(0.0330662 0.0235579 0)
(0.0293743 0.0268574 0)
(0.0250307 0.0299461 0)
(0.0200643 0.0326817 0)
(0.0145001 0.0349274 0)
(0.00839408 0.036511 0)
(0.00186123 0.0373268 0)
(-0.00491108 0.0372419 0)
(-0.0117504 0.0361742 0)
(-0.0184441 0.0340609 0)
(-0.0247812 0.0309028 0)
(-0.0305415 0.0267256 0)
(-0.0354925 0.0215875 0)
(-0.0394765 0.0156084 0)
(-0.0423041 0.00895272 0)
(-0.0438334 0.00180413 0)
(-0.0439445 -0.00562949 0)
(-0.0425455 -0.0131015 0)
(-0.0396524 -0.0203394 0)
(-0.0352874 -0.027068 0)
(-0.0295252 -0.0329924 0)
(-0.0225428 -0.0378309 0)
(-0.0145906 -0.0412982 0)
(-0.00600195 -0.0431259 0)
(0.00285215 -0.0432129 0)
(0.0114944 -0.0415363 0)
(0.0195343 -0.0382344 0)
(0.0266428 -0.0335157 0)
(0.0325533 -0.0276405 0)
(0.037086 -0.0208935 0)
(0.0401134 -0.0135913 0)
(0.0415988 -0.00602906 0)
(0.0415595 0.00152141 0)
(0.0400506 0.00877065 0)
(0.0372105 0.0155147 0)
(0.0331985 0.0215537 0)
(0.0281551 0.0267018 0)
(0.0223322 0.0308842 0)
(0.0159735 0.0340373 0)
(0.00925826 0.0361187 0)
(0.0024042 0.0371609 0)
(-0.00437398 0.0371966 0)
(-0.0108745 0.0363135 0)
(-0.0169521 0.0346727 0)
(-0.02249 0.0323722 0)
(-0.0274002 0.0295841 0)
(-0.0316826 0.0264572 0)
(-0.0353097 0.0231073 0)
(-0.0383034 0.0196666 0)
(-0.0407872 0.0162231 0)
(-0.0428208 0.0128552 0)
(-0.0445583 0.00953992 0)
(-0.0462108 0.00621879 0)
(-0.0479131 0.00270202 0)
(-0.0498313 -0.00137072 0)
(-0.0519135 -0.00667909 0)
(-0.0537331 -0.0141268 0)
(-0.0548237 -0.0243119 0)
(-0.0546281 -0.0367695 0)
(-0.0507023 -0.048747 0)
(-0.038777 -0.055012 0)
(-0.0191249 -0.0493706 0)
(-0.00237283 -0.0318633 0)
(0.000296499 -0.0158431 0)
(-0.000498989 -0.0171115 0)
(0.0131136 -0.0426812 0)
(0.0460175 -0.0676061 0)
(0.074191 -0.0679457 0)
(0.0860547 -0.0509086 0)
(0.0813138 -0.0331282 0)
(0.0701504 -0.0203578 0)
(0.0615958 -0.0108548 0)
(0.0563736 -0.00346662 0)
(0.052616 0.00157656 0)
(0.0498297 0.00522109 0)
(0.0477906 0.00845752 0)
(0.046078 0.0117616 0)
(0.0443525 0.0152668 0)
(0.042356 0.0190135 0)
(0.0398813 0.0229557 0)
(0.0367877 0.0269899 0)
(0.0329633 0.030985 0)
(0.0283524 0.0347929 0)
(0.0229624 0.0382458 0)
(0.0168014 0.0411516 0)
(0.0099361 0.0432905 0)
(0.00250162 0.0445111 0)
(-0.00529226 0.0446322 0)
(-0.0132282 0.0435445 0)
(-0.0210497 0.0412067 0)
(-0.0284971 0.0375644 0)
(-0.0353126 0.0326586 0)
(-0.0412255 0.0265688 0)
(-0.0460336 0.0194309 0)
(-0.0495033 0.011438 0)
(-0.0514379 0.00277611 0)
(-0.0517201 -0.00624974 0)
(-0.0502374 -0.0153762 0)
(-0.046952 -0.0242713 0)
(-0.0418942 -0.0325809 0)
(-0.0351512 -0.0399674 0)
(-0.0268916 -0.0460535 0)
(-0.0173541 -0.0504503 0)
(-0.00696371 -0.0528184 0)
(0.00376024 -0.0529236 0)
(0.0141883 -0.0507707 0)
(0.0238071 -0.0465574 0)
(0.0322411 -0.0406315 0)
(0.039196 -0.0333207 0)
(0.0444627 -0.0249849 0)
(0.047925 -0.016008 0)
(0.0495412 -0.00673883 0)
(0.0493283 0.00246404 0)
(0.0473883 0.0112732 0)
(0.0438762 0.0194111 0)
(0.0389852 0.026602 0)
(0.0329593 0.0327045 0)
(0.0260685 0.0376046 0)
(0.0185645 0.0412227 0)
(0.0107089 0.0435236 0)
(0.00275256 0.0445611 0)
(-0.00506682 0.0443463 0)
(-0.0124635 0.0430805 0)
(-0.0192939 0.0408521 0)
(-0.0254308 0.0378974 0)
(-0.0307564 0.0343783 0)
(-0.0353061 0.0305122 0)
(-0.039056 0.0264601 0)
(-0.0420536 0.0223998 0)
(-0.0444439 0.0184323 0)
(-0.0463481 0.014703 0)
(-0.047983 0.0112135 0)
(-0.0496545 0.00797734 0)
(-0.0517062 0.00481641 0)
(-0.0545501 0.00124356 0)
(-0.0584851 -0.00373347 0)
(-0.0642218 -0.0110014 0)
(-0.0739311 -0.0203437 0)
(-0.0863873 -0.0336233 0)
(-0.0914054 -0.0531196 0)
(-0.0787379 -0.0720178 0)
(-0.0492207 -0.0718863 0)
(-0.014468 -0.0453546 0)
(0.000541806 -0.0180228 0)
(0.000903659 -0.0276515 0)
(0.0398549 -0.0746699 0)
(0.085458 -0.105038 0)
(0.116578 -0.0932644 0)
(0.128494 -0.0539491 0)
(0.118809 -0.0185766 0)
(0.0948732 -0.00329556 0)
(0.0738 0.000272923 0)
(0.0625146 0.00297499 0)
(0.0564679 0.00560662 0)
(0.0529811 0.00784428 0)
(0.0509478 0.0103191 0)
(0.0495041 0.0133365 0)
(0.04811 0.0169537 0)
(0.0464308 0.0211067 0)
(0.0441744 0.0256548 0)
(0.0411665 0.0304369 0)
(0.0372758 0.0352887 0)
(0.0324296 0.0399953 0)
(0.0266034 0.0443584 0)
(0.0197648 0.0481076 0)
(0.0120133 0.0509921 0)
(0.00350205 0.0527646 0)
(-0.00553539 0.0532077 0)
(-0.0147851 0.0521767 0)
(-0.0239725 0.0496112 0)
(-0.032799 0.0454538 0)
(-0.0409196 0.0397336 0)
(-0.0480249 0.0325568 0)
(-0.0538414 0.024079 0)
(-0.0581186 0.0145028 0)
(-0.0606046 0.00412255 0)
(-0.061117 -0.00681029 0)
(-0.0595538 -0.0178877 0)
(-0.0558513 -0.0287525 0)
(-0.0500361 -0.0390026 0)
(-0.042166 -0.0481938 0)
(-0.0323554 -0.055877 0)
(-0.020874 -0.0614806 0)
(-0.00820884 -0.0645643 0)
(0.00494631 -0.0646877 0)
(0.0176537 -0.0618714 0)
(0.0292349 -0.0565021 0)
(0.0392378 -0.0490549 0)
(0.0473979 -0.0399767 0)
(0.0535006 -0.0297148 0)
(0.0574328 -0.0187135 0)
(0.0591602 -0.00741173 0)
(0.0587124 0.00375318 0)
(0.0562174 0.0143982 0)
(0.051843 0.0241591 0)
(0.0458718 0.0327199 0)
(0.0386117 0.0399061 0)
(0.0303722 0.0455834 0)
(0.0214708 0.049669 0)
(0.0122304 0.0521684 0)
(0.00291653 0.0531053 0)
(-0.00611515 0.0525726 0)
(-0.0145835 0.0507413 0)
(-0.0223079 0.0477781 0)
(-0.0290966 0.0439752 0)
(-0.0348832 0.0395146 0)
(-0.0396696 0.0347379 0)
(-0.0434636 0.0298169 0)
(-0.04635 0.0250109 0)
(-0.0484931 0.0204385 0)
(-0.0500491 0.0163106 0)
(-0.0513072 0.0127204 0)
(-0.0526671 0.00978645 0)
(-0.0546998 0.00747405 0)
(-0.0582199 0.00541686 0)
(-0.06444 0.00315469 0)
(-0.0764455 0.00117845 0)
(-0.098831 -0.00198849 0)
(-0.123506 -0.0186516 0)
(-0.133076 -0.0569344 0)
(-0.121121 -0.0985509 0)
(-0.0896698 -0.110963 0)
(-0.0425473 -0.0794489 0)
(-0.00116306 -0.0295792 0)
(0.0115592 -0.0555977 0)
(0.0655084 -0.1287 0)
(0.107364 -0.149068 0)
(0.129617 -0.117636 0)
(0.137226 -0.0567709 0)
(0.12848 -0.00195407 0)
(0.103366 0.0212665 0)
(0.0782501 0.0197391 0)
(0.0641954 0.0137022 0)
(0.0575048 0.0108505 0)
(0.0545118 0.0104917 0)
(0.0532874 0.0117616 0)
(0.0526511 0.014392 0)
(0.0519993 0.0181671 0)
(0.050899 0.0228217 0)
(0.0490478 0.0281182 0)
(0.0462821 0.0338252 0)
(0.0424249 0.0397068 0)
(0.0373803 0.0455274 0)
(0.0310988 0.0510637 0)
(0.0235309 0.0558787 0)
(0.0147636 0.0597266 0)
(0.00496438 0.0622666 0)
(-0.00555789 0.0632151 0)
(-0.016429 0.0623479 0)
(-0.027297 0.0595664 0)
(-0.037794 0.0548494 0)
(-0.0475161 0.0482138 0)
(-0.0560797 0.0397958 0)
(-0.063167 0.0297733 0)
(-0.0684036 0.0183435 0)
(-0.0715577 0.00590684 0)
(-0.0724175 -0.00725186 0)
(-0.0707952 -0.0206443 0)
(-0.0666783 -0.0338454 0)
(-0.0600092 -0.0464248 0)
(-0.0507987 -0.0578758 0)
(-0.0390979 -0.0676147 0)
(-0.0251969 -0.0749136 0)
(-0.00974083 -0.0789774 0)
(0.00639268 -0.079105 0)
(0.0218931 -0.0753488 0)
(0.0358879 -0.0684305 0)
(0.0478319 -0.0590037 0)
(0.0574254 -0.0477164 0)
(0.064491 -0.035116 0)
(0.0689521 -0.0217144 0)
(0.0707682 -0.00799424 0)
(0.0699936 0.00552422 0)
(0.0667827 0.018336 0)
(0.0613277 0.0299626 0)
(0.0539964 0.0401418 0)
(0.045206 0.0485513 0)
(0.0353231 0.0550926 0)
(0.0247242 0.0596611 0)
(0.0137904 0.0623381 0)
(0.00287784 0.0631098 0)
(-0.00763222 0.0621064 0)
(-0.0173809 0.0594539 0)
(-0.0261072 0.0555526 0)
(-0.0336718 0.0506113 0)
(-0.0399134 0.045012 0)
(-0.0448802 0.0390862 0)
(-0.0486167 0.0331084 0)
(-0.0512289 0.0273603 0)
(-0.0529235 0.0220461 0)
(-0.053856 0.0174029 0)
(-0.054344 0.0136754 0)
(-0.0547969 0.0111412 0)
(-0.0559322 0.0100777 0)
(-0.0588444 0.0108057 0)
(-0.0654747 0.014309 0)
(-0.0797517 0.0213 0)
(-0.105211 0.0229852 0)
(-0.130387 -0.00189985 0)
(-0.139431 -0.0592894 0)
(-0.132867 -0.12233 0)
(-0.111207 -0.155531 0)
(-0.0686039 -0.135514 0)
(-0.0127135 -0.0593929 0)
(0.0258016 -0.1037 0)
(0.0646893 -0.180031 0)
(0.0865457 -0.175921 0)
(0.094051 -0.124978 0)
(0.0966204 -0.0511136 0)
(0.0932971 0.012418 0)
(0.0796703 0.0399442 0)
(0.0650701 0.036106 0)
(0.0573075 0.0234982 0)
(0.0541606 0.0150519 0)
(0.053813 0.0117484 0)
(0.054639 0.0118639 0)
(0.0556342 0.0143568 0)
(0.0562131 0.0185091 0)
(0.0560368 0.0238733 0)
(0.0548548 0.0301352 0)
(0.0524937 0.0369871 0)
(0.0487946 0.0441331 0)
(0.0436823 0.0513855 0)
(0.0369479 0.0583246 0)
(0.0285367 0.0645777 0)
(0.0186263 0.0697158 0)
(0.00731974 0.0732792 0)
(-0.00503351 0.0749454 0)
(-0.0179221 0.0743545 0)
(-0.0308465 0.0714091 0)
(-0.0433657 0.0660756 0)
(-0.0550189 0.0584101 0)
(-0.0653457 0.0485381 0)
(-0.0739971 0.0366573 0)
(-0.0805116 0.0231377 0)
(-0.0845496 0.008245 0)
(-0.0858529 -0.00751636 0)
(-0.0841883 -0.0236604 0)
(-0.0795388 -0.0396411 0)
(-0.0718079 -0.0550204 0)
(-0.0609009 -0.0693066 0)
(-0.0468987 -0.0817222 0)
(-0.0301909 -0.0912403 0)
(-0.0115587 -0.0965999 0)
(0.00788967 -0.0967485 0)
(0.0265723 -0.0917678 0)
(0.0434753 -0.0827897 0)
(0.0578488 -0.0708422 0)
(0.0692657 -0.056795 0)
(0.0775443 -0.0413314 0)
(0.0826544 -0.0250472 0)
(0.0845876 -0.00843195 0)
(0.0833646 0.00789288 0)
(0.0791388 0.0232571 0)
(0.0723075 0.0371525 0)
(0.063305 0.0491911 0)
(0.0525928 0.0589847 0)
(0.0406987 0.0664736 0)
(0.0280782 0.0715718 0)
(0.0151439 0.0743642 0)
(0.00224812 0.0748445 0)
(-0.0101093 0.0731418 0)
(-0.021363 0.0694663 0)
(-0.0312561 0.064269 0)
(-0.0396216 0.0578421 0)
(-0.0462804 0.0508022 0)
(-0.0513555 0.043423 0)
(-0.0548841 0.0361634 0)
(-0.0570288 0.0292119 0)
(-0.058013 0.0229262 0)
(-0.0579724 0.0175509 0)
(-0.0571614 0.0134561 0)
(-0.0559181 0.0110893 0)
(-0.0548347 0.0111831 0)
(-0.0549222 0.0148803 0)
(-0.0577146 0.0239657 0)
(-0.0649798 0.0374623 0)
(-0.0790875 0.041491 0)
(-0.0923957 0.0128673 0)
(-0.0962794 -0.0522693 0)
(-0.0952577 -0.128226 0)
(-0.0889509 -0.181828 0)
(-0.0671507 -0.188087 0)
(-0.02726 -0.109876 0)
(0.0236955 -0.144459 0)
(0.0329654 -0.19951 0)
(0.0326663 -0.175137 0)
(0.0271714 -0.117774 0)
(0.0278762 -0.0453407 0)
(0.0342258 0.0172262 0)
(0.0374125 0.0449713 0)
(0.0395074 0.0406985 0)
(0.0431351 0.0258075 0)
(0.0471504 0.0147269 0)
(0.0517033 0.00986108 0)
(0.0560253 0.0096726 0)
(0.0595992 0.0125854 0)
(0.0620727 0.017525 0)
(0.0632934 0.0239578 0)
(0.0631055 0.0314815 0)
(0.061387 0.0397272 0)
(0.0580672 0.0484576 0)
(0.0529352 0.0573813 0)
(0.0457836 0.0661553 0)
(0.0365396 0.0743042 0)
(0.0251668 0.0812129 0)
(0.0119338 0.0861872 0)
(-0.00272041 0.0888204 0)
(-0.0181196 0.0886311 0)
(-0.0335488 0.0855554 0)
(-0.0484992 0.079533 0)
(-0.0624946 0.0707069 0)
(-0.0750661 0.0591848 0)
(-0.0856775 0.0451807 0)
(-0.0938813 0.02914 0)
(-0.0992364 0.0113955 0)
(-0.101224 -0.00751634 0)
(-0.0995166 -0.0270104 0)
(-0.0940333 -0.0463763 0)
(-0.0847908 -0.0652221 0)
(-0.071745 -0.0829976 0)
(-0.0550646 -0.09866 0)
(-0.0353432 -0.110733 0)
(-0.0135473 -0.117567 0)
(0.00916105 -0.117757 0)
(0.0311478 -0.111437 0)
(0.0512305 -0.10006 0)
(0.0684904 -0.0851212 0)
(0.082301 -0.0676788 0)
(0.0923048 -0.0486893 0)
(0.0984073 -0.028833 0)
(0.10051 -0.00865205 0)
(0.0985694 0.0111168 0)
(0.0929219 0.0296313 0)
(0.084131 0.0462057 0)
(0.0727579 0.0602815 0)
(0.0595861 0.0716261 0)
(0.0452796 0.080126 0)
(0.030264 0.0857824 0)
(0.0149189 0.0886151 0)
(-0.000353658 0.0886132 0)
(-0.0149349 0.0859977 0)
(-0.0280852 0.0809435 0)
(-0.0394308 0.0739738 0)
(-0.0486539 0.0656924 0)
(-0.0556511 0.0567233 0)
(-0.0606483 0.0476002 0)
(-0.0637653 0.0387418 0)
(-0.0652126 0.0303229 0)
(-0.0651347 0.0227777 0)
(-0.0636615 0.0163311 0)
(-0.0609148 0.0114162 0)
(-0.0570412 0.00862416 0)
(-0.0523996 0.00903102 0)
(-0.0474825 0.014153 0)
(-0.0429859 0.0256755 0)
(-0.0386494 0.0412781 0)
(-0.0356351 0.0460214 0)
(-0.0319105 0.017871 0)
(-0.0262263 -0.0453702 0)
(-0.0269677 -0.119497 0)
(-0.0337416 -0.179845 0)
(-0.0342884 -0.207683 0)
(-0.0247843 -0.152339 0)
(0.0097745 -0.157991 0)
(-0.00603317 -0.189701 0)
(-0.0207552 -0.162096 0)
(-0.0333977 -0.109488 0)
(-0.0329733 -0.0466354 0)
(-0.0210611 0.00808485 0)
(-0.00480488 0.0338987 0)
(0.0125946 0.0305494 0)
(0.0279835 0.0171735 0)
(0.0405016 0.0071421 0)
(0.05109 0.00305475 0)
(0.0598899 0.00386978 0)
(0.0668062 0.00808402 0)
(0.071757 0.0145333 0)
(0.0748035 0.0225652 0)
(0.075871 0.0317804 0)
(0.0750143 0.0417565 0)
(0.072148 0.0523934 0)
(0.0671159 0.063411 0)
(0.0595868 0.0746265 0)
(0.0492581 0.0853077 0)
(0.036077 0.0946466 0)
(0.0203797 0.10153 0)
(0.00277663 0.105331 0)
(-0.0157341 0.105599 0)
(-0.0342041 0.102363 0)
(-0.052063 0.0955603 0)
(-0.0688293 0.0855155 0)