/*--------------------------------*- C++ -*----------------------------------*\
| =========                 |                                                 |
| \\      /  F ield         | OpenFOAM: The Open Source CFD Toolbox           |
|  \\    /   O peration     | Version:  2412                                  |
|   \\  /    A nd           | Website:  www.openfoam.com                      |
|    \\/     M anipulation  |                                                 |
\*---------------------------------------------------------------------------*/
FoamFile
{
    version     2.0;
    format      ascii;
    arch        "LSB;label=32;scalar=64";
    class       surfaceScalarField;
    location    "5";
    object      phi;
}
// * * * * * * * * * * * * * * * * * * * * * * * * * * * * * * * * * * * * * //

dimensions      [0 3 -1 0 0 0 0];

oriented        oriented;

internalField   nonuniform List<scalar> 
12640
(
2.16457e-05
-2.16457e-05
4.75237e-05
-2.58779e-05
7.11163e-05
-2.35925e-05
9.29375e-05
-2.1821e-05
0.000113151
-2.02134e-05
0.00013153
-1.83785e-05
0.000147809
-1.62797e-05
0.000161647
-1.38376e-05
0.000172821
-1.1174e-05
0.000181183
-8.36151e-06
0.000186653
-5.47007e-06
0.000189181
-2.52753e-06
0.000188776
4.04383e-07
0.00018546
3.31592e-06
0.000179472
5.98899e-06
0.000171094
8.37787e-06
0.000160576
1.05186e-05
0.000148339
1.22364e-05
0.000134773
1.35665e-05
0.000120299
1.44749e-05
0.000105249
1.50498e-05
9.00544e-05
1.51956e-05
7.50229e-05
1.50324e-05
6.04859e-05
1.45377e-05
4.67006e-05
1.37858e-05
3.39329e-05
1.27686e-05
2.24167e-05
1.15173e-05
1.24656e-05
9.95232e-06
4.23871e-06
8.22828e-06
-2.17835e-06
6.41837e-06
-6.97139e-06
4.79406e-06
-1.01621e-05
3.19121e-06
-1.18957e-05
1.73367e-06
-1.21475e-05
2.51555e-07
-1.08032e-05
-1.34482e-06
-7.83047e-06
-2.97353e-06
-3.3607e-06
-4.47079e-06
2.36477e-06
-5.72635e-06
8.96891e-06
-6.60491e-06
1.59041e-05
-6.93593e-06
2.26029e-05
-6.69964e-06
2.83997e-05
-5.79762e-06
3.28043e-05
-4.40477e-06
3.53863e-05
-2.58186e-06
3.57964e-05
-4.09844e-07
3.39395e-05
1.85703e-06
2.98418e-05
4.09768e-06
2.36958e-05
6.14597e-06
1.5799e-05
7.89687e-06
6.28301e-06
9.51575e-06
-4.8247e-06
1.11075e-05
-1.75475e-05
1.27226e-05
-3.17433e-05
1.41955e-05
-4.71707e-05
1.54269e-05
-6.33561e-05
1.6185e-05
-8.002e-05
1.66635e-05
-9.68588e-05
1.68386e-05
-0.000113624
1.67654e-05
-0.00012999
1.63657e-05
-0.000145621
1.56321e-05
-0.00016015
1.45289e-05
-0.000173231
1.30826e-05
-0.000184508
1.12774e-05
-0.000193618
9.11e-06
-0.000200284
6.66689e-06
-0.000204228
3.94488e-06
-0.000205228
1.00043e-06
-0.00020323
-1.99684e-06
-0.000198288
-4.94239e-06
-0.000190563
-7.72532e-06
-0.000180115
-1.04476e-05
-0.000167058
-1.30567e-05
-0.000151606
-1.54512e-05
-0.000134051
-1.75555e-05
-0.00011469
-1.93609e-05
-9.37908e-05
-2.08994e-05
-7.15642e-05
-2.22268e-05
-4.78761e-05
-2.36885e-05
-2.2114e-05
-2.57619e-05
-2.21158e-05
2.10513e-05
-4.26967e-05
4.64877e-05
-5.13142e-05
6.97141e-05
-4.68186e-05
9.13407e-05
-4.34474e-05
0.000111684
-4.05571e-05
0.000130434
-3.71274e-05
0.000147263
-3.3109e-05
0.000161857
-2.84314e-05
0.000173879
-2.31958e-05
0.00018311
-1.7593e-05
0.000189295
-1.16553e-05
0.000192298
-5.5291e-06
0.000192135
5.67495e-07
0.000188992
6.45816e-06
0.000183116
1.18653e-05
0.000174746
1.67486e-05
0.000164214
2.10518e-05
0.000151891
2.45595e-05
0.000138303
2.71545e-05
0.000123839
2.89401e-05
0.000109065
2.98246e-05
9.43256e-05
2.99359e-05
8.01489e-05
2.92098e-05
6.68365e-05
2.78512e-05
5.47496e-05
2.58738e-05
4.4113e-05
2.34061e-05
3.50515e-05
2.05794e-05
2.75082e-05
1.74959e-05
2.14047e-05
1.43319e-05
1.66471e-05
1.11759e-05
1.33148e-05
8.12596e-06
1.12953e-05
5.21018e-06
1.05354e-05
2.49324e-06
1.08456e-05
-5.90282e-08
1.17902e-05
-2.28985e-06
1.30498e-05
-4.23369e-06
1.43292e-05
-5.75086e-06
1.54285e-05
-6.82624e-06
1.62174e-05
-7.39431e-06
1.66481e-05
-7.36703e-06
1.66702e-05
-6.72194e-06
1.62336e-05
-5.36127e-06
1.53606e-05
-3.53216e-06
1.39668e-05
-1.18827e-06
1.19272e-05
1.62928e-06
9.19823e-06
4.58573e-06
5.55871e-06
7.73688e-06
6.99638e-07
1.10046e-05
-5.67133e-06
1.42673e-05
-1.36069e-05
1.74508e-05
-2.2998e-05
2.04981e-05
-3.35905e-05
2.33147e-05
-4.53819e-05
2.59863e-05
-5.8246e-05
2.82906e-05
-7.22908e-05
3.02295e-05
-8.72329e-05
3.16054e-05
-0.000102837
3.24426e-05
-0.000118716
3.26447e-05
-0.000134462
3.21131e-05
-0.000149683
3.0854e-05
-0.000163958
2.88046e-05
-0.000176864
2.59889e-05
-0.000187959
2.23728e-05
-0.000196914
1.80658e-05
-0.00020338
1.31341e-05
-0.000207113
7.67967e-06
-0.000207938
1.82613e-06
-0.000205779
-4.15525e-06
-0.000200482
-1.02397e-05
-0.000192103
-1.61048e-05
-0.000180846
-2.17046e-05
-0.000167045
-2.68566e-05
-0.000150953
-3.15434e-05
-0.000132884
-3.5625e-05
-0.000113195
-3.90513e-05
-9.21934e-05
-4.19012e-05
-7.01618e-05
-4.42592e-05
-4.67917e-05
-4.70582e-05
-2.14244e-05
-5.11312e-05
-4.35365e-05
2.21359e-05
-6.48325e-05
4.89057e-05
-7.80839e-05
7.32917e-05
-7.12047e-05
9.5809e-05
-6.59649e-05
0.000116848
-6.15968e-05
0.000136238
-5.65173e-05
0.000153527
-5.03978e-05
0.000168413
-4.33177e-05
0.00018057
-3.53533e-05
0.000189757
-2.67787e-05
0.000195768
-1.76673e-05
0.000198485
-8.24585e-06
0.000197971
1.08173e-06
0.000194319
1.01108e-05
0.000187776
1.84072e-05
0.000178631
2.58929e-05
0.000167207
3.24766e-05
0.000154019
3.77485e-05
0.000139489
4.16842e-05
0.000124067
4.43614e-05
0.000108257
4.56336e-05
9.24647e-05
4.57269e-05
7.71288e-05
4.45445e-05
6.26335e-05
4.23451e-05
4.93131e-05
3.91926e-05
3.74358e-05
3.5282e-05
2.71601e-05
3.08541e-05
1.86639e-05
2.59915e-05
1.19091e-05
2.10864e-05
6.80043e-06
1.62848e-05
3.29811e-06
1.16291e-05
1.46544e-06
7.04409e-06
1.09553e-06
2.86449e-06
1.98466e-06
-9.46915e-07
3.77881e-06
-4.083e-06
6.24175e-06
-6.69585e-06
9.06352e-06
-8.57193e-06
1.20167e-05
-9.77867e-06
1.48622e-05
-1.02392e-05
1.74635e-05
-9.96826e-06
1.96125e-05
-8.87151e-06
2.12605e-05
-7.01022e-06
2.22541e-05
-4.52667e-06
2.23986e-05
-1.33335e-06
2.16555e-05
2.37198e-06
1.97272e-05
6.51342e-06
1.64378e-05
1.10256e-05
1.15646e-05
1.58774e-05
4.96461e-06
2.08671e-05
-3.30321e-06
2.57182e-05
-1.3331e-05
3.05256e-05
-2.48937e-05
3.48774e-05
-3.78967e-05
3.89892e-05
-5.2197e-05
4.25908e-05
-6.7538e-05
4.55702e-05
-8.3789e-05
4.78561e-05
-0.000100579
4.92323e-05
-0.000117717
4.97829e-05
-0.000134608
4.90039e-05
-0.000150884
4.71303e-05
-0.000166162
4.40828e-05
-0.000179996
3.98229e-05
-0.000191969
3.43464e-05
-0.000201678
2.77747e-05
-0.000208819
2.02755e-05
-0.000213046
1.19072e-05
-0.000214265
3.04523e-06
-0.000212227
-6.19366e-06
-0.000206947
-1.55203e-05
-0.000198514
-2.45386e-05
-0.000187139
-3.30787e-05
-0.000173068
-4.09275e-05
-0.000156587
-4.80249e-05
-0.000138033
-5.41809e-05
-0.000117741
-5.93431e-05
-9.60782e-05
-6.3564e-05
-7.32192e-05
-6.71168e-05
-4.88017e-05
-7.1474e-05
-2.22639e-05
-7.76689e-05
-6.57994e-05
2.29428e-05
-8.77752e-05
5.1248e-05
-0.000106389
7.68709e-05
-9.68281e-05
0.000100371
-8.94653e-05
0.000122348
-8.35741e-05
0.000142658
-7.68274e-05
0.000160876
-6.86163e-05
0.000176603
-5.9045e-05
0.000189442
-4.81923e-05
0.000199068
-3.64042e-05
0.000205292
-2.38909e-05
0.000207969
-1.09233e-05
0.000207063
1.98596e-06
0.000202846
1.43278e-05
0.000195468
2.57858e-05
0.000185156
3.62044e-05
0.000172508
4.5123e-05
0.000157996
5.22601e-05
0.000141964
5.77154e-05
0.000125117
6.12072e-05
0.000107872
6.28786e-05
9.0831e-05
6.27687e-05
7.4404e-05
6.09731e-05
5.88811e-05
5.78702e-05
4.47146e-05
5.33618e-05
3.20682e-05
4.79309e-05
2.12364e-05
4.16877e-05
1.22189e-05
3.50101e-05
5.14469e-06
2.81616e-05
-2.36385e-08
2.1454e-05
-3.33954e-06
1.49456e-05
-5.24426e-06
8.94901e-06
-5.59583e-06
3.21605e-06
-4.57509e-06
-1.96771e-06
-2.41749e-06
-6.24067e-06
6.46787e-07
-9.76045e-06
4.5358e-06
-1.24614e-05
8.96683e-06
-1.42103e-05
1.36844e-05
-1.49572e-05
1.83674e-05
-1.46515e-05
2.26213e-05
-1.31254e-05
2.61897e-05
-1.05783e-05
2.876e-05
-7.09654e-06
3.00304e-05
-2.60344e-06
2.98371e-05
2.56534e-06
2.80469e-05
8.3037e-06
2.45244e-05
1.45476e-05
1.93125e-05
2.10888e-05
1.23391e-05
2.78401e-05
3.51397e-06
3.45432e-05
-6.95434e-06
4.09939e-05
-1.922e-05
4.71431e-05
-3.30592e-05
5.28282e-05
-4.82438e-05
5.77753e-05
-6.46897e-05
6.20162e-05
-8.20033e-05
6.51697e-05
-9.99718e-05
6.72007e-05
-0.000118087
6.78986e-05
-0.000136221
6.71383e-05
-0.000153843
6.47521e-05
-0.000170396
6.06365e-05
-0.000185493
5.49195e-05
-0.00019865
4.75033e-05
-0.000209389
3.85126e-05
-0.000217301
2.81873e-05
-0.000222122
1.67285e-05
-0.000223606
4.52822e-06
-0.000221629
-8.17125e-06
-0.000216131
-2.10179e-05
-0.000207246
-3.34227e-05
-0.000195243
-4.50822e-05
-0.00018038
-5.57908e-05
-0.000163023
-6.5382e-05
-0.000143557
-7.36461e-05
-0.000122364
-8.05345e-05
-9.98162e-05
-8.61106e-05
-7.61196e-05
-9.08109e-05
-5.07166e-05
-9.68815e-05
-2.29759e-05
-0.000105406
-8.87778e-05
2.40646e-05
-0.00011184
5.43395e-05
-0.000136665
8.15677e-05
-0.000124057
0.000106327
-0.000114225
0.0001295
-0.000106747
0.000151109
-9.84371e-05
0.000170691
-8.81978e-05
0.000187622
-7.59763e-05
0.000201437
-6.20069e-05
0.000211795
-4.67637e-05
0.000218331
-3.04264e-05
0.000220939
-1.35309e-05
0.000219592
3.33252e-06
0.000214509
1.94085e-05
0.000205963
3.43311e-05
0.000194263
4.79041e-05
0.000180003
5.93832e-05
0.000163626
6.86373e-05
0.000145811
7.5532e-05
0.000127094
7.99264e-05
0.000108121
8.18536e-05
8.94189e-05
8.14716e-05
7.14283e-05
7.89637e-05
5.47276e-05
7.45698e-05
3.95739e-05
6.85139e-05
2.62379e-05
6.1265e-05
1.49443e-05
5.29798e-05
5.76554e-06
4.41879e-05
-1.117e-06
3.50436e-05
-6.0511e-06
2.63876e-05
-9.20826e-06
1.81019e-05
-1.05141e-05
1.02537e-05
-1.03154e-05
3.01592e-06
-8.7333e-06
-3.55125e-06
-5.93993e-06
-9.03555e-06
-2.06339e-06
-1.36387e-05
2.70344e-06
-1.72299e-05
8.14874e-06
-1.96569e-05
1.39667e-05
-2.07759e-05
1.9753e-05
-2.04378e-05
2.52324e-05
-1.86047e-05
2.98213e-05
-1.51671e-05
3.32531e-05
-1.05283e-05
3.52864e-05
-4.63665e-06
3.56676e-05
2.18386e-06
3.42557e-05
9.71529e-06
3.09957e-05
1.78074e-05
2.58081e-05
2.62765e-05
1.87027e-05
3.49457e-05
9.69541e-06
4.35505e-05
-1.18097e-06
5.18705e-05
-1.38936e-05
5.98561e-05
-2.83106e-05
6.72456e-05
-4.43924e-05
7.38573e-05
-6.17602e-05
7.9384e-05
-8.02493e-05
8.36588e-05
-9.95599e-05
8.65114e-05
-0.000119314
8.76533e-05
-0.000139018
8.68421e-05
-0.000158171
8.39049e-05
-0.000176469
7.89338e-05
-0.000193128
7.15786e-05
-0.000207738
6.21124e-05
-0.000219881
5.0654e-05
-0.000228877
3.71829e-05
-0.000234505
2.23557e-05
-0.000236421
6.44439e-06
-0.000234457
-1.01357e-05
-0.00022867
-2.68041e-05
-0.000219097
-4.29956e-05
-0.000206147
-5.80325e-05
-0.000190119
-7.18192e-05
-0.000171461
-8.40383e-05
-0.000150724
-9.43824e-05
-0.00012834
-0.000102919
-0.000104729
-0.000109721
-7.99629e-05
-0.000115577
-5.32382e-05
-0.000123606
-2.39294e-05
-0.000134712
-0.000112707
2.56396e-05
-0.00013748
5.82863e-05
-0.000169312
8.75544e-05
-0.000153325
0.000113779
-0.00014045
0.00013851
-0.000131478
0.000161855
-0.000121782
0.000183227
-0.00010957
0.000201853
-9.46023e-05
0.00021707
-7.72237e-05
0.000228371
-5.80649e-05
0.000235368
-3.74245e-05
0.000237931
-1.6095e-05
0.000235967
5.29789e-06
0.000229761
2.56147e-05
0.000219579
4.45127e-05
0.000206086
6.13966e-05
0.000189599
7.58701e-05
0.000170859
8.73759e-05
0.000150602
9.57864e-05
0.000129439
0.000101087
0.000108134
0.000103156
8.73513e-05
0.000102253
6.74633e-05
9.88501e-05
4.92184e-05
9.28136e-05
3.28137e-05
8.4918e-05
1.86199e-05
7.54583e-05
6.80052e-06
6.47987e-05
-2.22164e-06
5.32092e-05
-9.2405e-06
4.2061e-05
-1.38555e-05
3.10007e-05
-1.64295e-05
2.0674e-05
-1.7099e-05
1.09218e-05
-1.60019e-05
1.91828e-06
-1.35273e-05
-6.02558e-06
-9.77226e-06
-1.27901e-05
-4.84368e-06
-1.85669e-05
1.01984e-06
-2.30936e-05
7.61647e-06
-2.62542e-05
1.46773e-05
-2.78374e-05
2.17183e-05
-2.74797e-05
2.83747e-05
-2.5262e-05
3.40687e-05
-2.08622e-05
3.85122e-05
-1.49727e-05
4.14039e-05
-7.52908e-06
4.25259e-05
1.06159e-06
4.16848e-05
1.05562e-05
3.88023e-05
2.06896e-05
3.38315e-05
3.12474e-05
2.67269e-05
4.20506e-05
1.74215e-05
5.28559e-05
6.10956e-06
6.31826e-05
-7.03379e-06
7.29995e-05
-2.23213e-05
8.25332e-05
-3.92834e-05
9.08198e-05
-5.78316e-05
9.79328e-05
-7.78634e-05
0.000103691
-9.89034e-05
0.000107551
-0.000120534
0.000109284
-0.000142277
0.000108585
-0.000163685
0.000105312
-0.000184072
9.93211e-05
-0.000202949
9.04544e-05
-0.000219644
7.88076e-05
-0.000233422
6.44306e-05
-0.000243978
4.77381e-05
-0.000250666
2.90433e-05
-0.00025308
8.85791e-06
-0.000251226
-1.19889e-05
-0.000244949
-3.30815e-05
-0.000234536
-5.34097e-05
-0.000220199
-7.23706e-05
-0.000202538
-8.94812e-05
-0.000182169
-0.000104406
-0.000159693
-0.000116859
-0.000135749
-0.000126863
-0.000110831
-0.000134636
-8.47996e-05
-0.000141609
-5.65084e-05
-0.000151891
-2.51982e-05
-0.000166024
-0.000137903
2.79337e-05
-0.000165414
6.36353e-05
-0.000205014
9.50375e-05
-0.000184728
0.000122642
-0.000168055
0.000149134
-0.00015797
0.000174747
-0.000147394
0.000198544
-0.000133368
0.000219483
-0.000115541
0.000236632
-9.43722e-05
0.000249256
-7.0689e-05
0.000256884
-4.50508e-05
0.000259264
-1.84768e-05
0.000256623
7.93914e-06
0.000249078
3.31586e-05
0.000237037
5.65526e-05
0.000220929
7.75016e-05
0.000201517
9.52795e-05
0.000179697
0.000109195
0.000156283
0.000119201
0.000132156
0.000125215
0.000107871
0.000127444
8.42873e-05
0.000125839
6.21749e-05
0.000120965
4.19031e-05
0.000113088
2.39648e-05
0.000102858
8.71565e-06
9.07086e-05
-3.33888e-06
7.68534e-05
-1.28798e-05
6.27498e-05
-1.96275e-05
4.88084e-05
-2.37778e-05
3.51513e-05
-2.55139e-05
2.24112e-05
-2.51863e-05
1.05958e-05
-2.31281e-05
-1.38193e-07
-1.96675e-05
-9.48467e-06
-1.47059e-05
-1.77506e-05
-8.51822e-06
-2.47539e-05
-1.29602e-06
-3.03155e-05
6.79297e-06
-3.43431e-05
1.54433e-05
-3.64877e-05
2.41215e-05
-3.6158e-05
3.23846e-05
-3.35254e-05
3.95647e-05
-2.80426e-05
4.53422e-05
-2.07504e-05
4.93301e-05
-1.15172e-05
5.13509e-05
-9.59167e-07
5.11537e-05
1.07536e-05
4.87328e-05
2.31104e-05
4.39765e-05
3.60033e-05
3.67818e-05
4.92449e-05
2.73876e-05
6.22496e-05
1.56691e-05
7.49011e-05
1.61565e-06
8.70535e-05
-1.44348e-05
9.85845e-05
-3.26558e-05
0.000109042
-5.28705e-05
0.000118148
-7.46162e-05
0.000125437
-9.77e-05
0.000130635
-0.000121633
0.000133216
-0.000146015
0.000132967
-0.000170181
0.000129479
-0.000193413
0.000122553
-0.000215108
0.00011215
-0.000234433
9.81318e-05
-0.000250665
8.06626e-05
-0.000262998
6.00709e-05
-0.000270896
3.69406e-05
-0.000274074
1.20359e-05
-0.000272377
-1.36855e-05
-0.000265425
-4.00346e-05
-0.000253748
-6.50875e-05
-0.000237627
-8.84925e-05
-0.000217799
-0.000109309
-0.000195031
-0.000127172
-0.000170289
-0.000141602
-0.000144334
-0.000152816
-0.000117932
-0.000161037
-9.0782e-05
-0.000168758
-6.08142e-05
-0.000181857
-2.69854e-05
-0.000199853
-0.000164887
3.17056e-05
-0.00019712
7.09147e-05
-0.000244223
0.000104415
-0.000218228
0.000132971
-0.00019661
0.000161246
-0.000186245
0.00018969
-0.000175838
0.000216801
-0.000160479
0.000241034
-0.000139774
0.000260748
-0.000114085
0.000275144
-8.50852e-05
0.000283672
-5.35785e-05
0.000285954
-2.07608e-05
0.000282293
1.15993e-05
0.000272814
4.26373e-05
0.000258252
7.11167e-05
0.00023899
9.67653e-05
0.000216121
0.000118151
0.000190409
0.000134909
0.000163028
0.000146583
0.000134968
0.000153275
0.000107083
0.000155328
8.02938e-05
0.000152628
5.52532e-05
0.000146005
3.25586e-05
0.000135782
1.28451e-05
0.000122572
-3.31962e-06
0.000106873
-1.63875e-05
8.99219e-05
-2.61025e-05
7.24661e-05
-3.23405e-05
5.5048e-05
-3.57173e-05
3.85293e-05
-3.63078e-05
2.30022e-05
-3.49296e-05
9.2174e-06
-3.17486e-05
-3.32002e-06
-2.69659e-05
-1.42682e-05
-2.07531e-05
-2.3964e-05
-1.3172e-05
-3.23354e-05
-4.25681e-06
-3.92309e-05
5.67963e-06
-4.42797e-05
1.63094e-05
-4.71176e-05
2.70644e-05
-4.69132e-05
3.74235e-05
-4.3885e-05
4.65167e-05
-3.71367e-05
5.38335e-05
-2.80678e-05
5.91237e-05
-1.68078e-05
6.2223e-05
-4.05897e-06
6.28256e-05
1.01506e-05
6.08273e-05
2.51087e-05
5.62239e-05
4.06068e-05
4.91393e-05
5.63297e-05
3.93134e-05
7.20759e-05
2.71447e-05
8.70702e-05
1.23333e-05
0.000101865
-4.86221e-06
0.00011578
-2.45094e-05
0.000128689
-4.63629e-05
0.000140002
-7.02705e-05
0.000149345
-9.58149e-05
0.00015618
-0.000122691
0.000160092
-0.000150142
0.000160419
-0.000177693
0.000157031
-0.000204458
0.000149318
-0.000229761
0.000137453
-0.000252388
0.000120759
-0.000271657
9.99319e-05
-0.000286456
7.48705e-05
-0.000296256
4.67409e-05
-0.00030027
1.60511e-05
-0.000298482
-1.54723e-05
-0.000290777
-4.77398e-05
-0.000277408
-7.84559e-05
-0.000258839
-0.000107061
-0.00023598
-0.000132165
-0.000209959
-0.000153193
-0.000182111
-0.00016945
-0.000154013
-0.000180914
-0.000125975
-0.000189077
-9.81128e-05
-0.000196619
-6.65352e-05
-0.000213439
-2.99582e-05
-0.000236429
-0.000194847
3.70701e-05
-0.00023419
7.96443e-05
-0.000286797
0.000115708
-0.000254291
0.000144168
-0.00022507
0.000173987
-0.000216063
0.000206213
-0.000208064
0.000238044
-0.00019231
0.000266687
-0.000168417
0.000290166
-0.000137564
0.000307046
-0.000101965
0.000316502
-6.30328e-05
0.000318511
-2.27686e-05
0.000313553
1.65584e-05
0.000302061
5.41302e-05
0.000284128
8.90504e-05
0.000261032
0.00011986
0.000233511
0.00014567
0.000203077
0.000165341
0.000170798
0.00017886
0.000137971
0.000186101
0.000105556
0.000187742
7.46846e-05
0.000183499
4.62377e-05
0.000174452
2.07302e-05
0.00016129
-8.16141e-07
0.000144118
-1.88716e-05
0.000124929
-3.25898e-05
0.00010364
-4.1962e-05
8.18376e-05
-4.76237e-05
6.07084e-05
-4.96678e-05
4.05718e-05
-4.91183e-05
2.24509e-05
-4.61866e-05
6.28419e-06
-4.16212e-05
-7.88668e-06
-3.54183e-05
-2.0472e-05
-2.7799e-05
-3.15839e-05
-1.8637e-05
-4.14978e-05
-7.9703e-06
-4.98982e-05
4.14156e-06
-5.63924e-05
1.72207e-05
-6.01978e-05
3.05867e-05
-6.02803e-05
4.35434e-05
-5.68426e-05
5.4927e-05
-4.85211e-05
6.42368e-05
-3.73784e-05
7.11404e-05
-2.37115e-05
7.52794e-05
-8.19801e-06
7.67233e-05
8.70656e-06
7.52062e-05
2.66259e-05
7.08542e-05
4.4959e-05
6.36158e-05
6.35681e-05
5.37049e-05
8.19867e-05
4.08543e-05
9.99208e-05
2.52278e-05
0.000117492
6.6948e-06
0.000134314
-1.42559e-05
0.000149641
-3.81659e-05
0.000163913
-6.43542e-05
0.000175534
-9.28914e-05
0.000184717
-0.000123122
0.000190324
-0.000154449
0.000191746
-0.000186193
0.000188776
-0.000217467
0.000180593
-0.000246942
0.000166928
-0.000273896
0.000147715
-0.000296938
0.000122974
-0.000314997
9.2931e-05
-0.000326847
5.85924e-05
-0.000332249
2.14546e-05
-0.000330499
-1.72223e-05
-0.000321705
-5.65329e-05
-0.000306126
-9.4035e-05
-0.000284348
-0.000128838
-0.000257385
-0.000159129
-0.000226911
-0.000183671
-0.000194957
-0.000201405
-0.000163652
-0.00021222
-0.000134612
-0.000218119
-0.000107311
-0.00022392
-7.46639e-05
-0.000246087
-3.4928e-05
-0.000276165
-0.000229776
4.32771e-05
-0.000277467
8.51701e-05
-0.00032869
0.000124328
-0.000293448
0.000154064
-0.000254807
0.000185865
-0.000247865
0.000223837
-0.000246035
0.000262451
-0.000230923
0.000297588
-0.000203552
0.000326103
-0.000166079
0.000346079
-0.000121942
0.000356866
-7.38202e-05
0.0003585
-2.44031e-05
0.000352155
2.29028e-05
0.000337664
6.86202e-05
0.000316053
0.000110662
0.000287712
0.000148202
0.000254337
0.000179047
0.00021772
0.000201961
0.000179602
0.000216981
0.000140842
0.000224863
0.000103191
0.000225395
6.74942e-05
0.000219198
3.47217e-05
0.000207225
6.02368e-06
0.000189988
-1.86312e-05
0.000168772
-3.8113e-05
0.00014441
-5.25335e-05
0.000118059
-6.15819e-05
9.08849e-05
-6.58642e-05
6.49902e-05
-6.63021e-05
4.10099e-05
-6.37124e-05
1.98624e-05
-5.90177e-05
1.59108e-06
-5.26633e-05
-1.42399e-05
-4.49227e-05
-2.82121e-05
-3.56922e-05
-4.08143e-05
-2.48763e-05
-5.23136e-05
-1.22412e-05
-6.25332e-05
2.25372e-06
-7.0887e-05
1.81647e-05
-7.61088e-05
3.49247e-05
-7.70404e-05
5.11922e-05
-7.31105e-05
6.51626e-05
-6.24918e-05
7.66845e-05
-4.8901e-05
8.52308e-05
-3.22586e-05
9.07275e-05
-1.36952e-05
9.3011e-05
6.4228e-06
9.21341e-05
2.75028e-05
8.8028e-05
4.90651e-05
8.07975e-05
7.07984e-05
7.046e-05
9.23241e-05
5.69474e-05
0.000113434
4.03334e-05
0.000134107
2.07005e-05
0.000153948
-1.85268e-06
0.000172195
-2.76426e-05
0.000189704
-5.67464e-05
0.000204639
-8.86859e-05
0.000216658
-0.000122928
0.000224567
-0.000158949
0.000227768
-0.000195716
0.000225544
-0.000232223
0.000217101
-0.000267253
0.000201959
-0.000299591
0.000180053
-0.000327606
0.000150991
-0.000349897
0.000115222
-0.000364932
7.36272e-05
-0.000371369
2.78915e-05
-0.000369522
-1.90693e-05
-0.000359302
-6.6754e-05
-0.000340923
-0.000112414
-0.000314808
-0.000154954
-0.000282146
-0.000191792
-0.000245043
-0.000220773
-0.000207501
-0.000238945
-0.000172624
-0.000247095
-0.000142754
-0.000247988
-0.000117298
-0.000249377
-8.26624e-05
-0.00028072
-4.08045e-05
-0.000318023
-0.00027058
6.43685e-05
-0.000341835
9.51586e-05
-0.000359479
0.00011844
-0.000316728
0.000149992
-0.000286359
0.000188976
-0.00028685
0.000240066
-0.000297125
0.000290582
-0.000281438
0.000335437
-0.000248408
0.000370995
-0.000201636
0.000394615
-0.00014556
0.000406584
-8.57893e-05
0.000407765
-2.55833e-05
0.000398916
3.17545e-05
0.000381194
8.6344e-05
0.000354156
0.000137702
0.000319796
0.000182562
0.000279603
0.00021924
0.000235712
0.000245852
0.000189795
0.000262896
0.000144066
0.000270592
9.98655e-05
0.000269593
5.83843e-05
0.000260678
2.04737e-05
0.000245136
-1.29472e-05
0.000223409
-4.11051e-05
0.00019693
-6.24599e-05
0.000165764
-7.7018e-05
0.000132617
-8.51793e-05
9.90467e-05
-8.72965e-05
6.71083e-05
-8.50815e-05
3.87956e-05
-7.98043e-05
1.45852e-05
-7.24769e-05
-5.73681e-06
-6.40922e-05
-2.26255e-05
-5.47537e-05
-3.75514e-05
-4.42029e-05
-5.13653e-05
-3.19617e-05
-6.45548e-05
-1.75937e-05
-7.69015e-05
-8.02776e-07
-8.76782e-05
1.87562e-05
-9.56682e-05
4.07788e-05
-9.90634e-05
6.19565e-05
-9.42888e-05
7.85429e-05
-7.9079e-05
9.15286e-05
-6.18873e-05
0.000101597
-4.23268e-05
0.0001084
-2.04993e-05
0.000111614
3.20897e-06
0.000111171
2.79463e-05
0.000107266
5.29691e-05
0.000100061
7.80029e-05
8.97103e-05
0.000102675
7.5665e-05
0.000127479
5.81767e-05
0.000151596
3.74282e-05
0.000174697
1.30323e-05
0.000196592
-1.49328e-05
0.00021767
-4.70784e-05
0.000236785
-8.29682e-05
0.000252548
-0.00012205
0.00026365
-0.000163537
0.000269256
-0.000206463
0.00026847
-0.000249584
0.000260222
-0.00029142
0.000243796
-0.000330223
0.000218856
-0.000364583
0.00018535
-0.000392113
0.000142752
-0.00041077
9.22839e-05
-0.000419446
3.65675e-05
-0.00041759
-2.09256e-05
-0.000405557
-7.87854e-05
-0.000383681
-0.000134289
-0.000352035
-0.0001866
-0.00031126
-0.000232565
-0.000264871
-0.00026716
-0.000218203
-0.000285611
-0.000176177
-0.000289123
-0.000143131
-0.000281033
-0.00011894
-0.00027357
-8.74578e-05
-0.000312203
-5.13791e-05
-0.000354102
-0.00032196
0.000125047
-0.000466881
0.000167636
-0.000402068
0.000122949
-0.000272041
0.000119144
-0.000282553
0.000166791
-0.000334495
0.000246122
-0.000376455
0.000321124
-0.00035644
0.000381882
-0.000309166
0.00042664
-0.000246394
0.000454688
-0.000173607
0.000466888
-9.79879e-05
0.000465269
-2.39642e-05
0.000452422
4.46024e-05
0.000428887
0.00010988
0.000396045
0.000170544
0.000353887
0.000224721
0.000305378
0.000267749
0.000253357
0.000297873
0.000199334
0.00031692
0.000145833
0.000324093
9.43313e-05
0.000321095
4.61244e-05
0.000308885
2.02143e-06
0.000289238
-3.64148e-05
0.000261845
-6.80391e-05
0.000228554
-9.20514e-05
0.000189776
-0.000106916
0.000147482
-0.000113168
0.000105298
-0.000111956
6.58955e-05
-0.000105739
3.2576e-05
-9.6439e-05
5.28431e-06
-8.59858e-05
-1.61902e-05
-7.51946e-05
-3.34164e-05
-6.42718e-05
-4.84742e-05
-5.29723e-05
-6.26651e-05
-4.07217e-05
-7.68061e-05
-2.61676e-05
-9.14562e-05
-7.29715e-06
-0.000106549
1.77111e-05
-0.000120677
4.87071e-05
-0.00013006
7.78185e-05
-0.000123401
9.78077e-05
-9.90686e-05
0.000111503
-7.55828e-05
0.000121699
-5.25229e-05
0.000128793
-2.7594e-05
0.000132477
-4.75977e-07
0.000132548
2.78746e-05
0.00012909
5.64277e-05
0.000122094
8.49987e-05
0.000111316
0.000113453
9.66945e-05
0.000142101
7.87882e-05
0.000169502
5.68879e-05
0.000196598
3.12681e-05
0.000222212
6.5355e-07
0.000248285
-3.4929e-05
0.000272368
-7.49047e-05
0.000292523
-0.000119027
0.000307772
-0.000166391
0.000316621
-0.000216312
0.000318391
-0.00026714
0.00031105
-0.000316433
0.000293089
-0.000362597
0.00026502
-0.000403823
0.000226575
-0.000438064
0.000176994
-0.000462148
0.000116369
-0.000474039
4.84595e-05
-0.000473403
-2.15603e-05
-0.000460778
-9.14085e-05
-0.000435733
-0.000159335
-0.00039729
-0.000225044
-0.000345175
-0.00028468
-0.000283447
-0.000328889
-0.000220167
-0.000348893
-0.000161878
-0.000347413
-0.000117344
-0.000325567
-9.9087e-05
-0.000291826
-0.000110178
-0.000301112
-9.12669e-05
-0.000373013
-0.000413226
0.000180178
-0.000647058
0.000402169
-0.000624058
0.000340838
-0.000210711
0.000178756
-0.000120469
0.000150913
-0.000306652
0.000236052
-0.000461593
0.000346612
-0.000466998
0.000437329
-0.000399882
0.000496638
-0.000305703
0.000527293
-0.000204261
0.000534788
-0.000105484
0.000525745
-1.49204e-05
0.000507554
6.27933e-05
0.000479917
0.000137516
0.000438938
0.000211523
0.000386223
0.000277436
0.000326861
0.000327112
0.000264296
0.000360439
0.000201106
0.000380109
0.000138278
0.000386921
7.85232e-05
0.00038085
2.33932e-05
0.000364015
-2.58953e-05
0.000338526
-6.9529e-05
0.000305478
-0.000105672
0.000264696
-0.000131784
0.000215887
-0.000147084
0.000162782
-0.000150306
0.000108518
-0.000144236
5.98245e-05
-0.000131107
1.94469e-05
-0.000115144
-1.06776e-05
-9.9155e-05
-3.21793e-05
-8.49405e-05
-4.76313e-05
-7.31946e-05
-6.02207e-05
-6.3447e-05
-7.24134e-05
-5.39395e-05
-8.63141e-05
-4.06799e-05
-0.000104716
-1.8926e-05
-0.000128303
1.42544e-05
-0.000153857
5.67595e-05
-0.000172565
9.6615e-05
-0.000163257
0.000123098
-0.000125552
0.000139154
-9.16392e-05
0.000149021
-6.23907e-05
0.000154485
-3.30584e-05
0.000156487
-2.47849e-06
0.0001559
2.84625e-05
0.000153521
5.8807e-05
0.000148637
8.98828e-05
0.000139274
0.000122815
0.000125302
0.000156074
0.000106769
0.000188036
8.41334e-05
0.000219234
5.67228e-05
0.000249623
2.39706e-05
0.000281037
-1.44124e-05
0.00031075
-5.834e-05
0.000336451
-0.000107224
0.000356655
-0.000160782
0.000370179
-0.00021805
0.000375659
-0.000277109
0.000370111
-0.000334974
0.000350954
-0.000390309
0.000320356
-0.000442331
0.000278597
-0.000487596
0.000222259
-0.000519194
0.000147967
-0.000533452
6.27173e-05
-0.000533194
-2.18173e-05
-0.000520536
-0.000104067
-0.000494637
-0.000185235
-0.000449733
-0.000269947
-0.000379684
-0.000354728
-0.000286857
-0.000421717
-0.000189111
-0.000446642
-0.000110377
-0.000426146
-7.81261e-05
-0.000357818
-0.000146185
-0.000223767
-0.000258466
-0.000188832
-0.000163984
-0.000467496
-0.000577209
0.000318393
-0.00096545
0.00076273
-0.00106839
0.000853461
-0.000301442
0.000574106
0.000158888
0.000306943
-3.94885e-05
0.000281708
-0.000436357
0.00038789
-0.00057318
0.000502734
-0.000514727
0.000577271
-0.000380241
0.00060783
-0.00023482
0.000610916
-0.00010857
0.000605419
-9.42312e-06
0.00059791
7.03022e-05
0.000575605
0.000159822
0.000525102
0.000262026
0.000449598
0.000352941
0.000365098
0.000411611
0.000281544
0.000443992
0.000201541
0.000460111
0.000125841
0.000462621
5.52396e-05
0.00045145
-8.7804e-06
0.000428034
-6.66121e-05
0.000396357
-0.000117445
0.00035631
-0.000158453
0.000305704
-0.000188529
0.000245963
-0.00020304
0.000177293
-0.000200905
0.000106385
-0.000185159
4.40791e-05
-0.000161699
-4.01346e-06
-0.000136432
-3.59453e-05
-0.000113695
-5.49175e-05
-9.62105e-05
-6.51162e-05
-8.47291e-05
-7.17029e-05
-7.77313e-05
-7.94118e-05
-7.04583e-05
-9.35873e-05
-5.53355e-05
-0.000119839
-2.70986e-05
-0.00015654
1.34475e-05
-0.000194403
6.1989e-05
-0.000221107
0.000108017
-0.000209284
0.000142324
-0.000159859
0.000165259
-0.000114574
0.000179498
-7.663e-05
0.000186449
-4.00096e-05
0.000186963
-2.99235e-06
0.000183848
3.15775e-05
0.000180956
6.16994e-05
0.000177318
9.35206e-05
0.000169341
0.000130793
0.000155772
0.000169643
0.000137944
0.000205864
0.000117122
0.000240057
9.1529e-05
0.000275216
5.88769e-05
0.00031369
1.77715e-05
0.000351856
-3.24205e-05
0.000386643
-8.9968e-05
0.000414202
-0.000152873
0.000433084
-0.000220455
0.000443242
-0.000291211
0.000440867
-0.000363806
0.000423549
-0.000439836
0.000396387
-0.000519413
0.000358174
-0.000591263
0.000294108
-0.000635607
0.00019231
-0.000642342
6.94526e-05
-0.000623807
-4.03532e-05
-0.000595775
-0.000132099
-0.000564141
-0.000216869
-0.000513283
-0.000320804
-0.000421846
-0.000446165
-0.000286383
-0.000557181
-0.000154501
-0.000578524
-0.000113979
-0.000466667
-0.000232141
-0.000239657
-0.000508654
5.2745e-05
-0.000597835
-9.96514e-05
-0.000286465
-0.000778865
-0.000863675
0.000539674
-0.00150512
0.00102294
-0.00155165
0.00119929
-0.000477792
0.000974067
0.000384108
0.000582191
0.000352389
0.000413717
-0.000267885
0.000493974
-0.000653437
0.000630314
-0.000651066
0.000714909
-0.000464834
0.000746678
-0.000266588
0.000758968
-0.00012086
0.00077569
-2.61439e-05
0.000788406
5.75872e-05
0.000772094
0.000176135
0.000707011
0.00032711
0.000599685
0.000460267
0.000476699
0.000534597
0.000360098
0.000560593
0.0002558
0.000564409
0.000162094
0.000556326
7.54875e-05
0.000538056
-7.2001e-06
0.000510721
-8.70079e-05
0.000476165
-0.00015742
0.000426722
-0.000212721
0.000361005
-0.000246456
0.000279699
-0.000253837
0.000184676
-0.00023739
8.99371e-05
-0.000205695
1.23839e-05
-0.000170725
-3.89831e-05
-0.000140807
-6.58633e-05
-0.000118227
-7.74975e-05
-0.000102329
-8.10136e-05
-9.11312e-05
-8.29013e-05
-8.14238e-05
-8.91195e-05
-6.74121e-05
-0.000107599
-4.25943e-05
-0.000144657
-6.69919e-06
-0.000192435
3.14053e-05
-0.000232508
6.88956e-05
-0.000258597
0.000102755
-0.000243144
0.000133001
-0.000190105
0.000160438
-0.000142011
0.000185365
-0.000101557
0.000203881
-5.85252e-05
0.00021145
-1.05621e-05
0.00021326
2.97685e-05
0.000209156
6.5804e-05
0.000199005
0.000103671
0.000180434
0.000149364
0.000156079
0.000193998
0.000131004
0.00023094
0.000112788
0.000258274
9.90903e-05
0.000288914
7.4738e-05
0.000338042
2.89779e-05
0.000397616
-3.93443e-05
0.000454964
-0.000124102
0.00049896
-0.000211265
0.000520247
-0.000293629
0.000525605
-0.00037667
0.000523909
-0.00046939
0.000516268