/*--------------------------------*- C++ -*----------------------------------*\
| =========                 |                                                 |
| \\      /  F ield         | OpenFOAM: The Open Source CFD Toolbox           |
|  \\    /   O peration     | Version:  2412                                  |
|   \\  /    A nd           | Website:  www.openfoam.com                      |
|    \\/     M anipulation  |                                                 |
\*---------------------------------------------------------------------------*/
FoamFile
{
    version     2.0;
    format      ascii;
    arch        "LSB;label=32;scalar=64";
    class       volScalarField;
    location    "40";
    object      p_rgh;
}
// * * * * * * * * * * * * * * * * * * * * * * * * * * * * * * * * * * * * * //

dimensions      [1 -1 -2 0 0 0 0];

internalField   nonuniform List<scalar> 
6400
(
72559.7
72466.6
72240.1
71873.1
71365.5
70753.8
70057.9
69261.5
68396.5
67461.6
66463
65429.3
64375.9
63289.3
62161.3
61013.9
59886.2
58802.9
57759.4
56735.2
55718.8
54720.7
53766.5
52881.3
52078.3
51360.1
50726.9
50181.5
49727.9
49367.7
49099
48918
48821.6
48807.2
48871.9
49009.6
49211.5
49465.8
49759.4
50077.3
50403.8
50722
51015.4
51267.8
51464.4
51591.2
51635.9
51587.3
51436.1
51174.9
50797.8
50300.6
49679.7
48932.6
48058
47056.7
45931.9
44690.6
43343
41902.8
40386.3
38810.6
37192.8
35548.3
33890.5
32231.6
30584
28961.9
27381.5
25860.1
24413.3
23054.5
21795.7
20650.8
19636.1
18769.6
18067.8
17545.9
17216.4
17060.3
72613.2
72517.4
72294.8
71934.8
71430.6
70811.8
70114.9
69320.9
68444.1
67500.3
66504.6
65474.1
64410.7
63306.6
62164.9
61011.1
59878.3
58783.6
57720.2
56671.7
55632.5
54616.6
53649.2
52752.8
51939
51211.3
50570.9
50020.8
49563.2
49198.3
48924
48737.4
48636.5
48619.2
48682.4
48820.1
49023.7
49281.7
49580.6
49905.1
50238.3
50563.1
50862.7
51121
51323
51454.7
51503.4
51458.3
51310.2
51052.1
50678.7
50185.8
49569.6
48827.3
47957
46958.9
45836
44594.9
43246.2
41804
40285.2
38707.7
37088.9
35443.9
33785.6
32125.3
30475.1
28849.4
27264.7
25738.9
24288.1
22926.1
21665.8
20520.8
19507
18641.7
17944
17433.5
17121.9
16978.1
72679.7
72591.6
72377.3
72015.6
71508.4
70882.8
70169.6
69363
68481.4
67529.3
66518.7
65468.6
64392.2
63286.3
62147.4
60987.6
59833.4
58707
57612.8
56541.8
55488.1
54460.5
53479.9
52568.4
51740.6
51002.4
50355.5
49800.4
49337.3
48965.2
48682.1
48486.3
48376
48349.5
48404
48533.8
48730.8
48983.5
49278
49598.5
49928
50249.3
50545.7
50801.3
51000.9
51130.6
51177.9
51132
50984.4
50728.3
50358.7
49871.2
49262.1
48528.1
47666.9
46678.1
45564.4
44332.2
42991.8
41557.6
40046.7
38477.3
36866.5
35229.4
33578.3
31924.2
30279
28657.1
27075.5
25551.9
24102.6
22742.2
21483.8
20340.7
19327
18460.7
17766.6
17270.4
16977.5
16851.3
72729.3
72660.3
72461.1
72105.7
71584.6
70944.4
70218.5
69400.9
68498.6
67518.7
66478.9
65404.9
64311.5
63195.9
62047.7
60870.8
59688.1
58527.6
57402.9
56310.7
55244.2
54208
53219.4
52299.5
51463.6
50718.5
50065.5
49504.3
49033.8
48652.8
48359.2
48151.1
48027.1
47985.6
48024
48137.3
48317.3
48553
48830.4
49133.6
49446.1
49751
50031.9
50272.9
50459.3
50577.2
50614.6
50561.2
50408.8
50151.2
49783.3
49300.9
48699.8
47976.7
47128.9
46155.8
45059.7
43846.4
42526.2
41113.2
39624.1
38076.8
36487.9
34871.9
33240.7
31605.2
29977.6
28372.4
26806.4
25296.7
23859.8
22510.2
21261.6
20126.4
19117
18252
17562.5
17079.9
16806
16695.9
72751.9
72708.1
72525.5
72175.5
71644.3
70987.7
70241.9
69402.1
68468.1
67449.1
66373.3
65267.5
64146
63006.1
61837.4
60639.2
59431.3
58242.2
57090.7
55978.4
54900.7
53860.3
52870.9
51950.1
51111.3
50361.2
49701.5
49132.2
48652.2
48259.6
47952.1
47727.5
47584.4
47521.2
47535.4
47622.4
47774.3
47980.4
48227.5
48500.5
48783.2
49059.3
49312.9
49528.5
49691.6
49789.3
49809.9
49743.9
49583.6
49322.8
48956.5
48480.3
47889.9
47181.8
46353.1
45403.1
44333.6
43150.2
41862.6
40484.2
39030.9
37519.6
35966.1
34384.1
32785.3
31181.1
29584.1
28008.7
26470.9
24986.2
23570.2
22238.3
21005.6
19884.8
18886.4
18028.5
17346.1
16873.2
16611.9
16512.4
72728.1
72711.9
72555.8
72215.4
71677.4
71002.5
70229.9
69362.8
68393.1
67333.9
66218.9
65073.7
63909.9
62729.9
61529.6
60308.1
59078.2
57863.5
56683.7
55546.6
54452.6
53405
52413.6
51490.9
50647.1
49888.2
49217.1
48634.4
48139.5
47730.6
47404.8
47159.7
46993.5
46904.3
46889.4
46944.3
47061.9
47232.2
47442.9
47679.7
47927.2
48169.8
48392.1
48579.1
48717.1
48793.7
48797.8
48720.4
48554
48292.6
47931
47464.5
46888.8
46200.1
45395.8
44474.7
43438.5
42292.5
41045.5
39710.1
38301.2
36834.5
35324.5
33784.3
32225.5
30660.4
29102.2
27565.6
26064.8
24613.1
23224.1
21914.1
20700.5
19598.1
18618.3
17777
17106.7
16644.9
16392.8
16299.3
72624.7
72645.4
72519.6
72192.4
71649.2
70957.3
70156.9
69263.2
68258.9
67159.8
66006
64820.9
63611.6
62383.6
61141.4
59888.4
58634
57395.1
56188.6
55024.5
53907.7
52843.3
51839.5
50905.5
50048.4
49273.4
48583.4
47980
47463.1
47030.9
46680.7
46409.8
46215.7
46096.2
46048.5
46068.1
46148.6
46281
46453.8
46653.6
46865.9
47075.6
47268
47429.1
47545.5
47605.5
47598.3
47515.2
47348.6
47092.3
46741.1
46290.1
45734.7
45071.2
44296.8
43410.3
42413.2
41310.1
40109.4
38822.6
37463.4
36046.1
34584.2
33090
31575.6
30054.1
28539.7
27047
25588.6
24175.6
22819.8
21537.4
20346.9
19264.9
18305.3
17486
16833.4
16387.9
16146.5
16059.1
72381.8
72441.2
72352.9
72042.3
71498.1
70792.3
69968.7
69054.4
68023.8
66891.7
65703.4
64481.8
63230.8
61957.2
60672.5
59385.8
58105.6
56843.5
55611.6
54420.1
53276.1
52187
51160.4
50203.5
49322
48520.3
47801.6
47168
46619.8
46155.6
45772.7
45468.2
45239.5
45083.9
44998.5
44979.3
45020.4
45113.4
45247.9
45411.2
45589.8
45769.6
45936.6
46077.2
46178.8
46229.6
46219.1
46138.4
45980
45737.3
45404.7
44977
44449.6
43818.5
43080.9
42235.3
41283.1
40228.3
39078.9
37845.5
36540.8
35177.4
33767.5
32322.6
30855.3
29379.8
27911.8
26465.7
25052.9
23681.8
22363.1
21113.1
19951.3
18894.7
17958.7
17163.3
16531.7
16105.6
15878.3
15801
71933.7
72031.8
71986.1
71699
71157.3
70443.9
69600.4
68671.3
67621.9
66466.3
65250.3
63997.8
62712.1
61402.2
60083.5
58768.7
57465.7
56181.9
54926
53707
52533.8
51414.8
50358
49369.6
48454.8
47617.7
46862.3
46190.9
45604.3
45101.2
44679
44335
44066.3
43870.4
43744.4
43684.6
43685.7
43739.9
43837.5
43967.1
44115.8
44270.6
44418.1
44545.2
44639.5
44689.2
44683.8
44614
44471.9
44250.6
43944.1
43547
43054.4
42462.2
41767.4
40968.4
40066
39064.2
37970.4
36794.6
35548.3
34242.6
32888.4
31496.3
30079.2
28652.8
27234.3
25838.5
24474.9
23149.8
21872.5
20659.9
19532.7
18508
17600.9
16831
16222
15816.6
15607.6
15545
71184.1
71320.6
71325.6
71064
70534.4
69819.9
68965
68024.8
66968.4
65804.1
64574.4
63301.4
61992.6
60660.2
59322.9
57993.2
56676.7
55377.2
54100.8
52856.3
51653.9
50503.4
49412.8
48388.3
47435.1
46557.7
45760.5
45046.5
44416.6
43869.9
43404
43016.3
42704.2
42465.4
42297.3
42196.7
42158.5
42175.8
42239.7
42339.5
42463.5
42599.2
42734
42855
42950
43006.8
43014.7
42964
42846.1
42653.8
42380.7
42021.1
41569.9
41022.9
40376.7
39629.6
38782.1
37838
36804
35689.9
34505.9
33262.3
31967.9
30632.8
29269.8
27896.2
26530.9
25189.1
23878.9
22604.3
21373.7
20205
19119.7
18134.2
17262.2
16520.6
15936.2
15554
15368.1
15321.3
70019.9
70193.1
70247.4
70014.4
69504.3
68803.7
67951.1
67009.4
65959.3
64809.9
63589.3
62315.2
60998.6
59660.1
58320.8
56992.2
55675.7
54371
53082.1
51818.3
50591.5
49412.5
48290.3
47231.1
46240.4
45323.3
44484.7
43728
43054.4
42463.5
41953.4
41521.7
41166.5
40885.8
40677.5
40538.7
40464.9
40449.6
40484.8
40560.4
40665.6
40788.8
40917.7
41039.7
41142.4
41213.6
41241.9
41217.1
41130.2
40973.5
40740.1
40424
40020
39523.6
38931.3
38241.1
37453.1
36570.7
35600.7
34552.2
33435.2
32258.4
31029.5
29757.1
28454
27138.3
25830.8
24547.4
23295.3
22076.8
20900
19783.6
18749.1
17811
16981.1
16273.4
15718
15364.9
15205.6
15172.2
68315.7
68509
68601.8
68393.8
67913.8
67240.8
66418.8
65489.8
64463.2
63351.1
62168.2
60918.6
59617.3
58291.6
56968
55656.9
54355.9
53060.9
51774.2
50505.2
49267.1
48072.3
46930.1
45847.4
44830
43883.5
43012.9
42222.1
41512.7
40884.9
40337.4
39868.8
39477.4
39161.8
38920.5
38750.9
38648.8
38608.3
38621.8
38680.1
38773
38889.6
39018
39146
39260.9
39350.5
39403
39407.8
39355.6
39238.1
39048
38779.2
38426.1
37984.2
37449.6
36820
36095.2
35278.4
34376.3
33398.2
32353.5
31250.3
30094.9
28894.4
27660.6
26412.2
25170.7
23953.2
22766.4
21612.1
20498.5
19444.9
18471.4
17589.6
16810.1
16145
15626.9
15309.2
15177.4
15154.8
65935
66116.7
66222.8
66036.8
65594.7
64964.6
64197.8
63309.6
62323.5
61267.8
60144.7
58949.3
57693
56408.6
55124.9
53853.3
52589.2
51326.2
50065.2
48815.9
47591.8
46406
45268.2
44185.7
43164.5
42210.4
41328.5
40522.9
39795.9
39148.1
38579.1
38088.1
37674.3
37336.8
37074.5
36885
36764.5
36707.5
36706.8
36754
36839.6
36953.2
37083.6
37218.7
37346.2
37453.7
37529.7
37563.3
37545
37466.4
37319.9
37099.1
36798.5
36413.2
35939.1
35373.4
34715.9
33969.5
33141
32240
31276
30256.6
29187
28072.4
26923.5
25757.9
24597.2
23458.7
22349.3
21270.9
20232.7
19254.1
18353
17537.9
16818.4
16207.1
15735.6
15456.8
15349.7
15337.2
62751.4
62883
62974.5
62799.6
62409.6
61830.3
61128.7
60302.8
59384.1
58401.6
57358.2
56243
55067.7
53862.3
52655.3
51456.1
50260.3
49061.4
47860.3
46666.5
45493.4
44353.4
43256.3
42209.3
41218.5
40289.7
39427.9
38637.2
37920.2
37278.1
36711
36219.1
35802.1
35459.7
35191
34994.1
34865.6
34800.2
34791.6
34831.9
34912.4
35023.3
35154.1
35293.3
35429.1
35549.6
35643.5
35700.6
35711.3
35667.4
35561.5
35387.1
35138.5
34810.7
34399.5
33901.9
33317.2
32648.3
31902.3
31088.9
30218.1
29297.3
28330.3
27320.9
26277.4
25216
24157.2
23117
22102.4
21116.1
20168.6
19279.3
18463.4
17726.4
17078.4
16531.6
16114.1
15872.2
15785.6
15782.4
58675.7
58734
58785.6
58609.7
58271.5
57761.1
57116.7
56361.8
55531.6
54652.1
53715
52711.9
51653.1
50567.4
49477.5
48391
47303.1
46208.8
45109.8
44015.2
42937.4
41887.8
40875.3
39906.8
38988.2
38124.9
37321.7
36582.5
35909.7
35304.8
34768.5
34301.4
33903.7
33575.7
33316.9
33125.7
32999.1
32932.8
32920.8
32956.3
33031.4
33137.1
33263.6
33400.5
33536.6
33661.3
33764.1
33835.7
33867.3
33851
33779.9
33647.7
33448.9
33178.4
32832.1
32406.7
31901.5
31319.2
30667
29955
29193.3
28388.8
27544.1
26661
25745.6
24811.8
23878.3
22959.6
22061.5
21187.4
20349.1
19566
18849.3
18203
17637.3
17163.2
16803
16595.4
16526.5
16530
53681.9
53657.9
53660
53478.9
53179.5
52746.9
52182.5
51516.7
50797.8
50041.4
49238.2
48377
47470.8
46541.9
45608.5
44674.2
43735
42787.4
41834.1
40883.4
39946.1
39032
38148.7
37302.4
36498.6
35741.9
35036.7
34386.1
33792.5
33257.2
32781.1
32365.1
32009.7
31715.7
31482.9
31310.2
31195.1
31134.1
31122.3
31153.7
31221.4
31317.5
31433.4
31559.7
31686.7
31805.2
31906.2
31981.8
32024.5
32027.2
31983.8
31888.2
31735.3
31520.6
31239.8
30890.2
30471
29985
29439.3
28843.6
28207.4
27536.8
26832.8
26095.2
25328.1
24543.5
23757.9
22983.8
22225.7
21486.6
20778.7
20119.2
19515.9
18970.9
18496.9
18102.7
17804.7
17633.2
17580.7
17588.3
47806.4
47696.2
47638.8
47484.2
47242.6
46892.9
46426.6
45883.4
45301.4
44692.7
44045.4
43355.7
42632.7
41894.2
41150
40402.3
39647.2
38883.6
38114.6
37347.5
36590.7
35851.9
35137.2
34451.7
33799.7
33185.4
32612.1
32082.4
31598.1
31160.5
30770.4
30428.8
30136.4
29894
29701.7
29558.7
29463.5
29413.1
29403.9
29431
29488.7
29570.6
29669.1
29776.6
29885.2
29987.5
30076.5
30146.1
30190.3
30203.5
30180.2
30115.1
30003.7
29842.2
29627.2
29356.4
29029.5
28649.2
28221.8
27755.6
27259
26736.2
26187
25609.7
25007
24389.4
23771.4
23163.6
22568
21986
21427.9
20907.8
20428.9
19994.3
19621.2
19318.9
19094.5
18966.3
18920.5
18927.6
41111.6
40966
40852.9
40738.8
40605.1
40375.1
40032.5
39623.7
39193.6
38749.8
38284.8
37792.8
37281.3
36758.3
36229.7
35694.9
35152.6
34603.1
34049.9
33498.5
32954.8
32423.8
31909.6
31415.8
30945.5
30501.7
30086.9
29703.1
29351.7
29033.7
28749.9
28501.1
28288
28111.2
27971.1
27867.1
27798.4
27762.9
27758
27780.2
27825.4
27888.5
27964
28045.9
28128.5
28206.6
28275.5
28331.1
28369.3
28385.9
28376.5
28337
28263.7
28153.9
28005.7
27817.5
27589.3
27323.1
27023.5
26697.1
26349.7
25984.2
25599.6
25193.5
24767.9
24331.9
23898.2
23474.3
23059.3
22651.4
22257.9
21888.8
21544.4
21229.7
20969.2
20769.4
20626
20543.1
20503.2
20511.5
33608.8
33678
33600.1
33494.3
33413.8
33288.5
33091.8
32854.4
32606.1
32354.9
32094.6
31823
31541
31252.6
30958.7
30659.5
30354.4
30045
29733.9
29424.5
29120
28823
28535.3
28258.8
27995
27745.4
27511.4
27294.2
27094.8
26913.9
26752.1
26610.1
26488.6
26388.1
26308.7
26250.4
26212.6
26194.2
26193.7
26209.2
26237.9
26276.9
26322.8
26372
26421.4
26468
26509.6
26544
26569
26582.2
26580.9
26562.4
26524.8
26466.7
26387.2
26285.5
26161.5
26016.2
25852.2
25673.1
25482.3
25281.4
25069.4
24844.7
24608.7
24368.1
24131.4
23903
23679.3
23455.9
23238.2
23034
22839.9
22660.1
22518.8
22414.1
22328
22271
22258.5
22333.1
25833
26320.3
26347.7
26283.5
26232.9
26185.7
26131.1
26073.7
26019.3
25966.8
25913.3
25856.4
25796.7
25734.4
25670.2
25603.9
25535.9
25466.9
25398.5
25331.3
25265.6
25201.6
25139.8
25080.3
25023.9
24970.7
24921.2
24875.5
24833.6
24795.7
24762.6
24734.7
24712.2
24695.3
24684
24678.4
24678.3
24683.4
24693.2
24705.6
24720.7
24738.4
24757.6
24777.5
24797.3
24816.1
24833.4
24849.1
24862.4
24872.9
24880.2
24883.6
24879.8
24866
24847.2
24824.4
24797.5
24766.3
24731.7
24694.3
24654.8
24613.5
24570.3
24525.1
24477.9
24430.4
24385
24343.1
24302.6
24259.7
24216.7
24178.3
24141.9
24103.6
24071.3
24042
24007
23978.8
23998.7
24181.6
171.983
225.309
216.886
218.126
220.369
223.935
226.705
229.708
232.179
233.97
235.259
236.195
236.93
237.516
237.929
238.33
239.092
239.636
239.295
238.389
237.3
236.361
235.292
234.119
232.448
230.306
227.569
224.165
220.568
216.862
212.353
207.036
200.906
193.959
186.204
177.669
168.4
158.455
147.919
138.733
129.903
120.906
111.808
102.804
93.8673
85.0961
76.8508
68.8166
61.3056
54.1716
47.1479
40.3909
37.3296
40.758
44.8733
48.2365
50.6104
52.1962
52.6501
52.5381
51.8373
50.5961
48.5107
45.3634
41.8747
38.6287
35.8325
32.2955
27.9646
24.5627
22.0432
19.9614
17.9512
16.9084
17.1752
19.2378
20.6674
21.5385
18.7452
7.39641
-0.00174706
-0.00170896
-0.00149743
-0.0014349
-0.0015388
-0.00164331
-0.00172335
-0.00175709
-0.00176593
-0.00176204
-0.001758
-0.00175762
-0.00175907
-0.00176156
-0.00176776
-0.0017796
-0.00179666
-0.00181699
-0.00183912
-0.00186049
-0.00187727
-0.00188695
-0.0018909
-0.00189073
-0.00188835
-0.00188627
-0.00188607
-0.00188767
-0.00189171
-0.00189727
-0.00190263
-0.00190636
-0.00190731
-0.0019051
-0.00189949
-0.00189055
-0.001879
-0.00186565
-0.00185139
-0.00183694
-0.00182273
-0.0018089
-0.00179543
-0.00178262
-0.00176997
-0.00175715
-0.0017441
-0.00173148
-0.00171876
-0.00170622
-0.00169481
-0.00168561
-0.00167712
-0.00166911
-0.00166374
-0.00165878
-0.00165112
-0.00164355
-0.0016383
-0.00163479
-0.0016359
-0.00164258
-0.00165451
-0.00167202
-0.00169474
-0.00171815
-0.0017355
-0.00174927
-0.00176575
-0.00177923
-0.00179597
-0.00183744
-0.00186359
-0.00180689
-0.00163643
-0.00154068
-0.00171244
-0.0023667
-0.00347522
-0.00297328
-0.00144431
-0.00146349
-0.0014936
-0.00157652
-0.00164466
-0.00168712
-0.00173897
-0.00177007
-0.00178523
-0.00178691
-0.00178308
-0.00178014
-0.00177919
-0.00178052
-0.00178643
-0.0017984
-0.00181563
-0.00183567
-0.00185664
-0.00187634
-0.00189178
-0.00190073
-0.0019039
-0.0019029
-0.00189959
-0.00189638
-0.0018952
-0.00189647
-0.00189969
-0.00190429
-0.00190882
-0.00191185
-0.00191225
-0.00190954
-0.00190352
-0.00189428
-0.00188256
-0.00186915
-0.0018549
-0.00184047
-0.00182628
-0.00181259
-0.00179936
-0.0017868
-0.0017744
-0.00176207
-0.00174924
-0.00173645
-0.00172376
-0.0017112
-0.00169964
-0.0016902
-0.00168185
-0.0016742
-0.0016686
-0.00166352
-0.00165614
-0.00164867
-0.00164204
-0.00163744
-0.0016379
-0.00164409
-0.00165572
-0.00167282
-0.00169448
-0.00171754
-0.00173713
-0.00175574
-0.00177986
-0.00179907
-0.00180443
-0.00181411
-0.00184308
-0.00186705
-0.00183686
-0.00180416
-0.00171191
-0.00185078
-0.00208902
-0.00186155
-0.00143547
-0.00146952
-0.00153125
-0.00163843
-0.00166888
-0.00171507
-0.00175568
-0.00177795
-0.00178834
-0.00179248
-0.00178972
-0.00178505
-0.0017824
-0.00178344
-0.00178973
-0.00180249
-0.00182093
-0.00184225
-0.00186314
-0.00188142
-0.00189515
-0.00190239
-0.00190348
-0.00190088
-0.0018967
-0.00189306
-0.00189201
-0.00189343
-0.00189669
-0.00190169
-0.00190671
-0.00190988
-0.00190999
-0.00190676
-0.00190032
-0.00189086
-0.0018791
-0.00186578
-0.00185164
-0.00183746
-0.00182366
-0.00181056
-0.00179778
-0.00178548
-0.00177351
-0.00176153
-0.00174891
-0.00173614
-0.00172373
-0.00171161
-0.00169996
-0.0016907
-0.00168368
-0.00167621
-0.00166939
-0.00166396
-0.00165638
-0.001648
-0.0016403
-0.00163451
-0.00163424
-0.00164164
-0.00165522
-0.00167215
-0.0016906
-0.0017103
-0.00172858
-0.00174359
-0.00176333
-0.00178576
-0.00179415
-0.00179548
-0.00180244
-0.0018469
-0.00184789
-0.00191864
-0.00192556
-0.00212878
-0.00254228
-0.00173082
-0.00142396
-0.00147213
-0.00155148
-0.00165706
-0.0016943
-0.00173476
-0.00175888
-0.00177747
-0.0017855
-0.00178962
-0.00178796
-0.0017837
-0.00178142
-0.00178327
-0.00179064
-0.00180369
-0.00182216
-0.00184363
-0.00186425
-0.00188106
-0.00189248
-0.00189776
-0.00189727
-0.00189355
-0.00188891
-0.00188514
-0.00188395
-0.00188589
-0.00189
-0.00189467
-0.00189872
-0.00190104
-0.00190049
-0.00189662
-0.00188965
-0.00187992
-0.00186809
-0.001855
-0.00184136
-0.00182781
-0.00181462
-0.00180231
-0.00179057
-0.00177915
-0.00176778
-0.00175659
-0.00174472
-0.00173222
-0.00172006
-0.0017086
-0.00169742
-0.00168811
-0.00168141
-0.00167466
-0.00166747
-0.00166088
-0.00165257
-0.00164331
-0.00163477
-0.00162822
-0.00162701
-0.00163344
-0.00164642
-0.00166248
-0.00167864
-0.00169717
-0.00172061
-0.00174236
-0.00175658
-0.00176677
-0.00178607
-0.00180774
-0.001831
-0.0018461
-0.00176646
-0.00180308
-0.001709
-0.00157601
-0.00202288
-0.00152688
-0.00149775
-0.00156898
-0.00156114
-0.00164326
-0.00168967
-0.00173303
-0.00175537
-0.00177202
-0.00177895
-0.00178162
-0.00178046
-0.0017772
-0.0017759
-0.0017792
-0.0017881
-0.00180207
-0.00182027
-0.00184068
-0.00185989
-0.00187473
-0.00188375
-0.00188689
-0.00188489
-0.00188011
-0.00187514
-0.00187163
-0.0018707
-0.001873
-0.00187734
-0.00188202
-0.00188552
-0.00188714
-0.00188599
-0.00188159
-0.00187429
-0.00186451
-0.0018529
-0.00184026
-0.00182735
-0.00181476
-0.00180254
-0.0017912
-0.00178059
-0.00177036
-0.00175972
-0.00174892
-0.00173753
-0.0017258
-0.00171425
-0.00170339
-0.00169299
-0.00168414
-0.00167756
-0.00167057
-0.00166323
-0.00165605
-0.00164657
-0.0016358
-0.00162602
-0.00161821
-0.00161625
-0.00162237
-0.00163454
-0.00164828
-0.00165918
-0.0016709
-0.00169373
-0.00172375
-0.00173984
-0.00173144
-0.001727
-0.00176054
-0.00180862
-0.00188633
-0.00192442
-0.00200249
-0.00211099
-0.00189487
-0.00200584
-0.00178036
-0.00158271
-0.0016087
-0.00161076
-0.00165669
-0.00169034
-0.00172685
-0.00174701
-0.00176273
-0.00176837
-0.00176972
-0.0017689
-0.00176713
-0.00176739
-0.00177231
-0.0017827
-0.00179766
-0.0018158
-0.00183499
-0.00185228
-0.0018647
-0.00187103
-0.00187189
-0.0018686
-0.00186326
-0.00185831
-0.00185527
-0.0018544
-0.00185613
-0.00185985
-0.00186411
-0.00186744
-0.00186868
-0.00186718
-0.00186261
-0.00185513
-0.00184547
-0.00183433
-0.00182235
-0.00181014
-0.0017985
-0.00178742
-0.00177733
-0.00176799
-0.00175886
-0.00174963
-0.00174012
-0.00172992
-0.00171882
-0.00170778
-0.00169748
-0.00168726
-0.00167873
-0.00167319
-0.00166677
-0.00165909
-0.00165131
-0.00164139
-0.00162961
-0.00161847
-0.0016094
-0.00160447
-0.00160778
-0.00161737
-0.00162951
-0.00163989
-0.00164691
-0.00166226
-0.00169388
-0.0017308
-0.00175233
-0.00174555
-0.00173362
-0.00171097
-0.00173696
-0.00178919
-0.00188554
-0.0020399
-0.00189809
-0.00202558
-0.00191682
-0.00161376
-0.00161971
-0.00163232
-0.00166458
-0.00169031
-0.0017192
-0.00173724
-0.00174948
-0.00175493
-0.00175579
-0.00175526
-0.00175507
-0.00175731
-0.00176413
-0.00177611
-0.00179198
-0.00180973
-0.00182713
-0.00184172
-0.00185138
-0.00185516
-0.00185391
-0.00184954
-0.00184413
-0.00183984
-0.00183807
-0.00183892
-0.00184163
-0.00184544
-0.00184922
-0.00185177
-0.00185224
-0.00185021
-0.00184474
-0.00183674
-0.00182709
-0.00181655
-0.00180569
-0.00179436
-0.00178387
-0.00177409
-0.00176486
-0.00175607
-0.00174757
-0.00173903
-0.00173038
-0.00172107
-0.00171049
-0.00169999
-0.00169103
-0.00168155
-0.00167274
-0.0016681
-0.00166313
-0.00165593
-0.0016476
-0.00163665
-0.00162346
-0.00161116
-0.00160063
-0.00159468
-0.00159518
-0.00159988
-0.00160687
-0.00161661
-0.00162572
-0.0016324
-0.00164105
-0.00166023
-0.00169628
-0.00173636
-0.00178616
-0.0018052
-0.00181886
-0.00179408
-0.00183602
-0.00198375
-0.0018999
-0.00197019
-0.00192715
-0.00161406
-0.00162845
-0.00164387
-0.00166798
-0.00168773
-0.00170848
-0.00172132
-0.00173233
-0.00173803
-0.00173958
-0.00174
-0.00174179
-0.00174642
-0.00175531
-0.0017688
-0.00178526
-0.00180229
-0.0018175
-0.0018289
-0.00183544
-0.00183688
-0.00183424
-0.00182936
-0.00182416
-0.00182031
-0.00181895
-0.00182043
-0.0018239
-0.00182812
-0.00183186
-0.00183392
-0.00183337
-0.00183011
-0.00182478
-0.00181725
-0.00180803
-0.00179796
-0.00178775
-0.00177792
-0.00176878
-0.0017601
-0.00175192
-0.0017442
-0.00173658
-0.0017285
-0.00172027
-0.00171184
-0.00170192
-0.00169153
-0.0016837
-0.00167576
-0.00166691
-0.00166252
-0.00165896
-0.00165348
-0.00164636
-0.00163553
-0.00162078
-0.0016064
-0.0015942
-0.00158564
-0.00158391
-0.00158533
-0.00158692
-0.00159207
-0.0016058
-0.00162326
-0.00163475
-0.0016303
-0.00162219
-0.00161808
-0.00166234
-0.00170112
-0.00175991
-0.00180164
-0.00178532
-0.00194643
-0.00189755
-0.00190856
-0.00189652
-0.00161866
-0.00164196
-0.00165645
-0.00167073
-0.00168519
-0.00169814
-0.00170685
-0.00171448
-0.00171927
-0.00172174
-0.00172405
-0.00172858
-0.00173614
-0.00174712
-0.00176154
-0.00177783
-0.00179355
-0.00180633
-0.00181474
-0.00181829
-0.00181757
-0.00181387
-0.00180902
-0.00180475
-0.00180228
-0.00180226
-0.00180447
-0.00180817
-0.00181226
-0.0018157
-0.00181756
-0.00181696
-0.0018138
-0.00180837
-0.00180102
-0.00179215
-0.00178249
-0.00177296
-0.00176371
-0.00175535
-0.00174728
-0.0017396
-0.0017325
-0.00172567
-0.00171811
-0.00171012
-0.00170254
-0.00169356
-0.00168295
-0.00167542
-0.00166904
-0.00166051
-0.001656
-0.00165315
-0.00164927
-0.00164433
-0.00163564
-0.00162134
-0.00160556
-0.00159115
-0.00157947
-0.00157331
-0.00157048
-0.00156673
-0.00156494
-0.00157001
-0.00159124
-0.00162163
-0.0016351
-0.00162657
-0.00161878
-0.00164791
-0.00166216
-0.00170493
-0.00176889
-0.00170846
-0.00181294
-0.00182591
-0.00183588
-0.00184318
-0.00162501
-0.00163642
-0.00164786
-0.00166012
-0.00167279
-0.00168333
-0.00169097
-0.00169642
-0.00170043
-0.00170392
-0.00170837
-0.0017157
-0.00172628
-0.00173944
-0.00175453
-0.00177015
-0.00178415
-0.00179467
-0.00180036
-0.00180148
-0.00179912
-0.00179487
-0.00179036
-0.00178677
-0.0017853
-0.00178633
-0.00178929
-0.0017933
-0.00179726
-0.00180021
-0.00180156
-0.00180077
-0.00179759
-0.00179228
-0.00178543
-0.00177742
-0.00176863
-0.0017599
-0.00175131
-0.00174321
-0.00173571
-0.00172812
-0.00172101
-0.00171448
-0.00170733
-0.00169933
-0.00169241
-0.00168494
-0.00167438
-0.00166636
-0.00166088
-0.00165268
-0.00164807
-0.00164537
-0.00164248
-0.00163961
-0.00163372
-0.00162108
-0.00160517
-0.00159065
-0.00157873
-0.00157
-0.00156308
-0.00155335
-0.00154391
-0.00154156
-0.0015526
-0.00157707
-0.0016073
-0.00161858
-0.00161312
-0.00162628
-0.00162538
-0.00165337
-0.00172724
-0.00168939
-0.00175047
-0.00177889
-0.00180097
-0.00180883
-0.00162819
-0.00163457
-0.00164155
-0.0016495
-0.0016573
-0.00166466
-0.00167148
-0.00167687
-0.00168181
-0.0016875
-0.00169473
-0.00170463
-0.00171746
-0.001732
-0.00174688
-0.00176073
-0.00177195
-0.00177928
-0.00178255
-0.00178194
-0.00177868
-0.00177444
-0.00177059
-0.00176852
-0.00176862
-0.00177078
-0.00177444
-0.00177878
-0.0017829
-0.00178581
-0.0017869
-0.00178592
-0.00178281
-0.00177776
-0.00177127
-0.00176393
-0.00175587
-0.00174779
-0.00173968
-0.00173178
-0.00172441
-0.00171679
-0.00170927
-0.00170262
-0.00169583
-0.00168747
-0.0016805
-0.00167472
-0.00166503
-0.00165668
-0.00165152
-0.00164284
-0.00163743
-0.00163427
-0.00163155
-0.00163027
-0.00162783
-0.00161832
-0.00160289
-0.00158778
-0.00157589
-0.00156693
-0.00155953
-0.0015482
-0.00153308
-0.00152369
-0.00152985
-0.00154158
-0.00155357
-0.00156297
-0.00157807
-0.00159212
-0.00159749
-0.00161748
-0.00168391
-0.00168655
-0.00171863
-0.00174635
-0.00175962
-0.00176338
-0.00161892
-0.00162318
-0.00162908
-0.00163462
-0.00164015
-0.00164571
-0.00165102
-0.00165645
-0.001663
-0.00167149
-0.00168191
-0.00169436
-0.00170881
-0.00172399
-0.00173823
-0.0017501
-0.00175858
-0.00176317
-0.00176413
-0.00176207
-0.00175827
-0.00175433
-0.00175151
-0.0017507
-0.00175193
-0.00175495
-0.00175908
-0.0017635
-0.00176753
-0.00177044
-0.00177162
-0.00177083
-0.00176809
-0.0017636
-0.0017577
-0.001751
-0.0017436
-0.00173602
-0.00172821
-0.00172022
-0.00171263
-0.0017048
-0.0016966
-0.00168939
-0.00168301
-0.00167438
-0.00166647
-0.00166188
-0.00165357
-0.00164571
-0.00164154
-0.00163262
-0.00162578
-0.00162118
-0.00161695
-0.00161527
-0.00161577
-0.00161185
-0.00160003
-0.00158516
-0.00157347
-0.00156316
-0.00155348
-0.00154241
-0.00152628
-0.0015116
-0.00151483
-0.00153291
-0.00155082
-0.00156124
-0.00157331
-0.00159679
-0.00159281
-0.00161339
-0.00165207
-0.00167561
-0.00168736
-0.00170647
-0.00171138
-0.00170964
-0.00160419
-0.00160537
-0.00160999
-0.00161517
-0.00162026
-0.00162525
-0.00163072
-0.00163747
-0.00164584
-0.0016565
-0.00166946
-0.00168384
-0.001699
-0.00171374
-0.00172663
-0.0017364
-0.00174254
-0.00174462
-0.0017437
-0.00174085
-0.0017372
-0.00173405
-0.00173253
-0.00173262
-0.00173461
-0.00173812
-0.00174255
-0.00174712
-0.001751
-0.00175368
-0.00175492
-0.00175444
-0.00175225
-0.00174852
-0.00174345
-0.00173755
-0.0017309
-0.0017238
-0.00171629
-0.00170803
-0.00169994
-0.00169174
-0.00168253
-0.001674
-0.00166772
-0.00165926
-0.00164993
-0.00164552
-0.00163831
-0.00163148
-0.00162941
-0.00162185
-0.0016143
-0.00160857
-0.00160152
-0.00159596
-0.00159536
-0.00159555
-0.00159052
-0.00157949
-0.00156936
-0.00156102
-0.0015511
-0.00154204
-0.00153073
-0.00151442
-0.00149954
-0.00150425
-0.00151998
-0.0015357
-0.00154931
-0.0015777
-0.00157938
-0.00158961
-0.00160481
-0.00163011
-0.00163902
-0.00165055
-0.0016513
-0.0016517
-0.00158809
-0.00158812
-0.00158984
-0.00159293
-0.00159722
-0.0016026
-0.00160936
-0.00161802
-0.00162839
-0.00164131
-0.00165608
-0.00167151
-0.00168653
-0.00169998
-0.00171085
-0.00171822
-0.00172191
-0.00172247
-0.00172046
-0.00171721
-0.00171389
-0.0017115
-0.00171065
-0.00171191
-0.00171486
-0.00171898
-0.00172374
-0.00172841
-0.00173236
-0.001735
-0.00173629
-0.0017362
-0.00173468
-0.00173186
-0.0017278
-0.00172286
-0.00171701
-0.00171048
-0.00170323
-0.00169472
-0.00168587
-0.00167728
-0.00166722
-0.0016567
-0.00164977
-0.00164196
-0.00163126
-0.00162588
-0.00161834
-0.00161184
-0.00161221
-0.00160747
-0.00160045
-0.00159587
-0.0015889
-0.00157927
-0.00157323
-0.00157202
-0.00157173
-0.00156602
-0.00155888
-0.00155367
-0.00154472
-0.00153171
-0.00152358
-0.00151205
-0.00149579
-0.00148309
-0.00148961
-0.00149661
-0.00150308
-0.00152985
-0.00153913
-0.00154861
-0.00155298
-0.00157217
-0.00158067
-0.00158937
-0.00159284
-0.00159611
-0.00156735
-0.00156841
-0.00156943
-0.00157139
-0.00157505
-0.00158077
-0.00158859
-0.00159895
-0.00161127
-0.00162525
-0.00164045
-0.00165572
-0.00166985
-0.0016817
-0.00169058
-0.00169609
-0.0016982
-0.00169755
-0.00169497
-0.00169172
-0.00168889
-0.00168727
-0.00168726
-0.00168909
-0.00169254
-0.00169696
-0.00170174
-0.00170637
-0.00171032
-0.00171335
-0.00171503
-0.00171554
-0.00171482
-0.00171301
-0.00171012
-0.00170627
-0.00170128
-0.00169529
-0.00168841
-0.00167987
-0.00167024
-0.00166122
-0.00165096
-0.00163841
-0.00162981
-0.00162276
-0.00161143
-0.00160439
-0.00159405
-0.00158522
-0.00158626
-0.00158475
-0.00157813
-0.00157508
-0.00157249
-0.00156459
-0.0015552
-0.00154858
-0.00154905
-0.00155074
-0.00154844
-0.00154632
-0.00154251
-0.00152822
-0.00151297
-0.00150676
-0.0014977
-0.0014777
-0.00146598
-0.0014703
-0.00147171
-0.0014817
-0.00149164
-0.00150234
-0.00150732
-0.00152175
-0.00153049
-0.00153874
-0.00154432
-0.0015485
-0.00154446
-0.00154513
-0.00154654
-0.00154919
-0.00155352
-0.00155997
-0.00156847
-0.00157946
-0.00159252
-0.00160679
-0.00162156
-0.00163579
-0.0016485
-0.00165864
-0.00166571
-0.00166962
-0.00167051
-0.00166921
-0.0016666
-0.00166371
-0.00166154
-0.00166079
-0.00166165
-0.001664
-0.00166767
-0.00167216
-0.00167685
-0.0016813
-0.00168527
-0.00168869
-0.001691
-0.00169229
-0.00169255
-0.00169183
-0.00169007
-0.00168726
-0.00168305
-0.00167745
-0.00167094
-0.00166257
-0.0016524
-0.00164328
-0.00163416
-0.00162102
-0.00161031
-0.00160367
-0.00159338
-0.00158643
-0.00157201
-0.00155692
-0.00155447
-0.00155519
-0.00154842
-0.00154464
-0.00154514
-0.00154125
-0.00153478
-0.00152462
-0.00152001
-0.00152405
-0.00152858
-0.00153113
-0.0015336
-0.00152735
-0.00150959
-0.00150004
-0.00149865
-0.00149082
-0.00146698
-0.00145675
-0.00145784
-0.00145754
-0.00146318
-0.00147029
-0.00147307
-0.00148325
-0.00149102
-0.00149818
-0.00150363
-0.00150721
-0.00152294
-0.00152303
-0.00152449
-0.00152761
-0.00153264
-0.0015396
-0.00154833
-0.00155904
-0.00157154
-0.001585
-0.00159864
-0.00161144
-0.00162262
-0.00163125
-0.00163688
-0.00163964
-0.00163978
-0.00163811
-0.00163559
-0.00163314
-0.00163151
-0.00163134
-0.00163286
-0.0016358
-0.00163981
-0.00164448
-0.00164927
-0.00165373
-0.00165788
-0.00166136
-0.00166418
-0.00166624
-0.00166752
-0.00166785
-0.00166704
-0.00166505
-0.00166147
-0.00165607
-0.00164994
-0.0016423
-0.00163211
-0.00162303
-0.00161678
-0.00160614
-0.0015945
-0.00158727
-0.00157908
-0.00157651
-0.0015613
-0.0015384
-0.00152671
-0.00152578
-0.00151883
-0.00151206
-0.00151272
-0.00151139
-0.00150888
-0.00150021
-0.00148815
-0.00148591
-0.00149588
-0.00150717
-0.00151543
-0.00151786
-0.00150534
-0.00148675
-0.00148532
-0.0014905