/*--------------------------------*- C++ -*----------------------------------*\
| =========                 |                                                 |
| \\      /  F ield         | OpenFOAM: The Open Source CFD Toolbox           |
|  \\    /   O peration     | Version:  2412                                  |
|   \\  /    A nd           | Website:  www.openfoam.com                      |
|    \\/     M anipulation  |                                                 |
\*---------------------------------------------------------------------------*/
FoamFile
{
    version     2.0;
    format      ascii;
    arch        "LSB;label=32;scalar=64";
    class       volScalarField;
    location    "5.82";
    object      p;
}
// * * * * * * * * * * * * * * * * * * * * * * * * * * * * * * * * * * * * * //

dimensions      [1 -1 -2 0 0 0 0];

internalField   nonuniform List<scalar> 
80000
(
30473.9
30474.1
30474.3
30474.7
30475.3
30475.9
30476.8
30477.7
30478.8
30480
30481.4
30482.9
30484.5
30486.2
30488.1
30490.2
30492.3
30494.6
30497.1
30499.7
30502.4
30505.2
30508.2
30511.3
30514.5
30517.9
30521.4
30525.1
30528.8
30532.7
30536.8
30540.9
30545.2
30549.7
30554.2
30558.9
30563.7
30568.6
30573.7
30578.8
30584.1
30589.6
30595.1
30600.8
30606.6
30612.5
30618.5
30624.6
30630.9
30637.2
30643.7
30650.3
30657
30663.8
30670.7
30677.7
30684.8
30692
30699.3
30706.7
30714.2
30721.8
30729.5
30737.3
30745.2
30753.1
30761.2
30769.3
30777.5
30785.8
30794.1
30802.6
30811
30819.6
30828.2
30836.9
30845.7
30854.5
30863.4
30872.3
30881.3
30890.3
30899.4
30908.5
30917.6
30926.8
30936
30945.2
30954.5
30963.8
30973.1
30982.4
30991.7
31001.1
31010.4
31019.8
31029.1
31038.5
31047.8
31057.1
31066.4
31075.7
31084.9
31094.2
31103.3
31112.5
31121.6
31130.7
31139.7
31148.6
31157.5
31166.4
31175.2
31183.9
31192.5
31201
31209.5
31217.8
31226.1
31234.3
31242.3
31250.3
31258.1
31265.8
31273.4
31280.9
31288.2
31295.4
31302.4
31309.3
31316
31322.6
31329
31335.2
31341.3
31347.1
31352.8
31358.3
31363.6
31368.7
31373.6
31378.2
31382.7
31386.9
31390.9
31394.6
31398.1
31401.4
31404.4
31407.1
31409.6
31411.8
31413.8
31415.4
31416.8
31417.9
31418.6
31419.1
31419.3
31419.1
31418.7
31417.9
31416.8
31415.3
31413.5
31411.4
31408.9
31406
31402.8
31399.2
31395.3
31390.9
31386.2
31381.1
31375.6
31369.7
31363.4
31356.7
31349.6
31342.1
31334.2
31325.8
31317
31307.7
31298.1
31288
31277.4
31266.4
31254.9
31243
31230.6
31217.8
31204.4
31190.7
31176.4
31161.6
31146.4
31130.7
31114.5
31097.8
31080.6
31063
31044.8
31026.1
31007
30987.3
30967.1
30946.4
30925.3
30903.6
30881.4
30858.6
30835.4
30811.7
30787.4
30762.7
30737.4
30711.6
30685.3
30658.5
30631.2
30603.4
30575.1
30546.2
30516.9
30487.1
30456.7
30425.9
30394.6
30362.7
30330.4
30297.6
30264.4
30230.6
30196.4
30161.7
30126.6
30091
30054.9
30018.4
29981.5
29944.1
29906.3
29868.1
29829.4
29790.4
29750.9
29711.1
29670.9
29630.4
29589.4
29548.2
29506.5
29464.6
29422.4
29379.8
29336.9
29293.8
29250.4
29206.7
29162.9
29118.8
29074.5
29029.9
28985.3
28940.5
28895.6
28850.5
28805.3
28760
28714.6
28669.2
28623.8
28578.4
28532.9
28487.6
28442.2
28397
28351.9
28306.9
28262
28217.3
28172.9
28128.7
28084.7
28041
27997.7
27954.6
27912
27869.8
27828
27786.7
27745.9
27705.6
27665.8
27626.7
27588.2
27550.4
27513.3
27476.9
27441.3
27406.5
27372.5
27339.4
27307.3
27276
27245.8
27216.6
27188.4
27161.3
27135.4
27110.6
27087
27064.6
27043.4
27023.6
27005
26987.8
26971.9
26957.4
26944.4
26932.7
26922.5
26913.8
26906.5
26900.7
26896.5
26893.7
26892.5
26892.8
26894.6
26898
26902.9
26909.3
26917.2
26926.7
26937.7
26950.2
26964.2
26979.7
26996.7
27015.2
27035.1
27056.5
27079.3
27103.6
27129.2
27156.3
27184.7
27214.5
27245.6
27278
27311.8
27346.8
27383.1
27420.7
27459.4
27499.4
27540.5
27582.7
27626
27670.3
27715.7
27762
27809.3
27857.4
27906.3
27956.1
28006.5
28057.6
28109.3
28161.5
28214.1
28267.1
28320.4
28374
28427.6
28481.4
28535.1
28588.7
28642.1
28695.3
28748
28800.4
28852.2
28903.4
28953.8
29003.5
29052.3
29100.1
29146.9
29192.6
29237.1
29280.4
29322.4
29362.9
29402
29439.6
29475.6
29510
29542.7
29573.7
29603
29630.5
29656.2
29680
29702
29722
29740.2
29756.4
29770.7
29783.1
29793.5
29801.9
29808.5
29813
29815.7
29816.4
29815.2
29812.1
29807.2
29800.4
29791.8
29781.4
29769.3
29755.5
29739.9
29722.7
29704
29683.7
29661.8
29638.6
29613.9
29587.9
29560.6
29532.1
29502.4
29471.6
29439.8
29407
29373.4
29338.9
29303.7
29267.9
29231.5
29194.7
29157.4
29119.7
29081.8
29043.6
29005.5
28967.3
28929.3
28891.5
28854
28816.8
28780
28743.7
28708
28672.9
28638.6
28605.2
28572.8
28541.3
28511
28481.8
28453.8
28427.1
28401.6
28377.6
28354.9
28333.8
28314.1
28296.1
28279.7
28264.9
28251.9
28240.6
28230.9
28223.1
28217
28212.6
28209.9
28209
28209.9
28212.4
28216.6
28222.5
28230.1
28239.2
28249.9
28262.1
28275.8
28290.9
28307.3
28325
28343.9
28364
28385.2
28407.3
28430.3
28454.2
28478.8
28504.1
28530
28556.3
28583
28610
28637.3
28664.6
28692
28719.3
28746.4
28773.3
28799.9
28826.1
28851.9
28877
28901.6
28925.5
28948.6
28970.8
28992.3
29012.8
29032.3
29050.8
29068.3
29084.7
29100.1
29114.3
29127.4
29139.3
29150.2
29159.9
29168.5
29175.9
29182.4
29187.7
29192
29195.3
29197.6
29199
29199.5
29199.2
29198
29196.1
29193.5
29190.2
29186.4
29181.9
29177
29171.6
29165.7
29159.6
29153.1
29146.3
29139.4
29132.2
29124.9
29117.5
29110.1
29102.7
29095.2
29087.9
29080.6
29073.4
29066.4
29059.6
29052.9
29046.5
29040.4
29034.5
29029
29023.8
29018.9
29014.4
29010.3
29006.6
29003.3
29000.5
28998.1
28996.1
28994.6
28993.6
28993
28992.9
28993.3
28994.1
28995.4
28997.1
28999.4
29002
29005.1
29008.6
29012.6
29016.9
29021.6
29026.7
29032.1
29037.8
29043.9
29050.2
29056.7
29063.5
29070.4
29077.5
29084.7
29092
29099.4
29106.7
29114.1
29121.3
29128.5
29135.5
29142.2
29148.8
29155
29160.9
29166.3
29171.4
29175.9
29179.8
29183.2
29185.8
29187.7
29188.9
29189.2
29188.6
29187.1
29184.6
29181
29176.4
29170.6
29163.7
29155.6
29146.3
29135.7
29123.9
29110.7
29096.3
29080.7
29063.7
29045.5
29026.1
29005.5
28983.7
28960.8
28936.9
28912
28886.2
28859.6
28832.2
28804.2
28775.6
28746.5
28717.2
28687.6
28657.9
28628.2
28598.6
28569.3
28540.4
28512.1
28484.4
28457.4
28431.4
28406.4
28382.5
28359.9
28338.7
28319
28300.8
28284.4
28269.8
28257
28246.2
28237.4
28230.7
28226.2
28223.9
28223.8
28226
28230.6
28237.5
28246.7
28258.2
28272
28288.1
28306.4
28327
28349.7
28374.6
28401.5
28430.3
28461.1
28493.6
28527.9
28563.7
28601
28639.7
28679.7
28720.7
28762.8
28805.7
28849.3
28893.5
28938.1
28983
29028
29073
29117.8
29162.3
29206.4
29249.9
29292.6
29334.4
29375.2
29414.8
29453.1
29490
29525.3
29558.9
29590.7
29620.6
29648.4
29674.1
29697.6
29718.6
29737.3
29753.5
29767
29777.8
29785.9
29791.2
29793.6
29793
29789.5
29782.9
29773.2
29760.4
29744.4
29725.4
29703.2
29677.9
29649.5
29618
29583.4
29545.8
29505.3
29462
29415.8
29366.9
29315.5
29261.6
29205.3
29146.9
29086.5
29024.2
28960.3
28894.9
28828.1
28760.3
28691.5
28622.1
28552.2
28481.9
28411.6
28341.5
28271.7
28202.3
28133.7
28066
27999.4
27934
27870
27807.5
27746.7
27687.6
27630.5
27575.3
27522.3
27471.5
27422.9
27376.6
27332.7
27291.2
27252.2
27215.6
27181.6
27150.1
27121.2
27094.9
27071.1
27049.9
27031.2
27015.1
27001.6
26990.5
26982
26976
26972.5
26971.4
26972.8
26976.5
26982.6
26991.1
27001.9
27015
27030.3
27047.9
27067.6
27089.5
27113.5
27139.7
27167.8
27198
27230.2
27264.3
27300.4
27338.3
27378
27419.5
27462.8
27507.7
27554.2
27602.4
27652
27703.1
27755.6
27809.5
27864.5
27920.8
27978.2
28036.7
28096.1
28156.4
28217.6
28279.5
28342
28405.2
28468.8
28532.9
28597.4
28662.2
28727.2
28792.4
28857.7
28923
28988.2
29053.5
29118.6
29183.5
29248.1
29312.4
29376.4
29440.1
29503.3
29566
29628.1
29689.6
29750.5
29810.7
29870.2
29928.9
29986.9
30044
30100.2
30155.6
30209.9
30263.3
30315.7
30367.1
30417.4
30466.5
30514.6
30561.5
30607.3
30651.9
30695.3
30737.5
30778.4
30818.1
30856.6
30893.8
30929.7
30964.4
30997.8
31030
31060.8
31090.4
31118.7
31145.7
31171.4
31195.9
31219.2
31241.1
31261.9
31281.4
31299.7
31316.7
31332.6
31347.3
31360.8
31373.1
31384.4
31394.4
31403.4
31411.3
31418.1
31423.9
31428.6
31432.3
31435.1
31436.8
31437.6
31437.5
31436.5
31434.6
31431.8
31428.2
31423.8
31418.6
31412.7
31406
31398.6
31390.5
31381.7
31372.4
31362.4
31351.8
31340.6
31329
31316.8
31304.1
31291
31277.5
31263.5
31249.2
31234.5
31219.5
31204.2
31188.6
31172.8
31156.8
31140.5
31124.1
31107.5
31090.7
31073.9
31057
31040
31023
31006
30989
30972
30955
30938.2
30921.4
30904.7
30888.2
30871.8
30855.5
30839.5
30823.6
30808
30792.6
30777.5
30762.6
30748
30733.7
30719.8
30706.1
30692.8
30679.8
30667.3
30655.1
30643.2
30631.8
30620.8
30610.3
30600.1
30590.4
30581.2
30572.4
30564.1
30556.3
30548.9
30542.1
30535.7
30529.9
30524.5
30519.7
30515.4
30511.6
30508.4
30505.7
30503.5
30501.9
30500.8
30500.3
29737.9
29738
29738.3
29738.7
29739.2
29739.9
29740.7
29741.7
29742.7
29743.9
29745.3
29746.8
29748.4
29750.2
29752.1
29754.1
29756.3
29758.6
29761
29763.6
29766.3
29769.1
29772.1
29775.2
29778.5
29781.9
29785.4
29789
29792.8
29796.7
29800.7
29804.9
29809.2
29813.6
29818.2
29822.8
29827.7
29832.6
29837.6
29842.8
29848.1
29853.6
29859.1
29864.8
29870.6
29876.5
29882.5
29888.6
29894.9
29901.2
29907.7
29914.3
29921
29927.8
29934.7
29941.7
29948.8
29956
29963.4
29970.8
29978.3
29985.9
29993.6
30001.4
30009.2
30017.2
30025.2
30033.4
30041.6
30049.8
30058.2
30066.6
30075.1
30083.7
30092.3
30101.1
30109.8
30118.6
30127.5
30136.4
30145.4
30154.4
30163.5
30172.6
30181.8
30190.9
30200.2
30209.4
30218.7
30228
30237.3
30246.6
30255.9
30265.3
30274.6
30284
30293.3
30302.7
30312
30321.4
30330.7
30339.9
30349.2
30358.4
30367.6
30376.8
30385.9
30395
30404
30413
30421.9
30430.7
30439.5
30448.2
30456.8
30465.4
30473.9
30482.2
30490.5
30498.7
30506.7
30514.7
30522.5
30530.3
30537.9
30545.3
30552.7
30559.9
30566.9
30573.8
30580.5
30587.1
30593.5
30599.8
30605.8
30611.7
30617.4
30622.9
30628.2
30633.3
30638.2
30642.8
30647.3
30651.5
30655.5
30659.3
30662.8
30666.1
30669.1
30671.8
30674.3
30676.5
30678.5
30680.1
30681.5
30682.6
30683.4
30683.9
30684
30683.9
30683.5
30682.7
30681.6
30680.1
30678.3
30676.2
30673.7
30670.8
30667.6
30664.1
30660.1
30655.8
30651.1
30646
30640.5
30634.6
30628.3
30621.7
30614.5
30607
30599.1
30590.7
30581.9
30572.7
30563
30552.9
30542.4
30531.3
30519.9
30508
30495.6
30482.7
30469.4
30455.6
30441.4
30426.6
30411.4
30395.7
30379.5
30362.8
30345.6
30328
30309.8
30291.1
30271.9
30252.3
30232.1
30211.4
30190.2
30168.5
30146.3
30123.6
30100.4
30076.6
30052.4
30027.6
30002.3
29976.5
29950.2
29923.4
29896.1
29868.3
29840
29811.1
29781.8
29751.9
29721.6
29690.7
29659.4
29627.6
29595.2
29562.4
29529.2
29495.4
29461.2
29426.5
29391.3
29355.7
29319.6
29283.1
29246.1
29208.7
29170.9
29132.7
29094
29055
29015.5
28975.7
28935.5
28894.9
28853.9
28812.6
28771
28729
28686.8
28644.2
28601.3
28558.1
28514.7
28471.1
28427.2
28383
28338.7
28294.2
28249.5
28204.7
28159.7
28114.5
28069.3
28024
27978.6
27933.2
27887.7
27842.3
27796.8
27751.4
27706.1
27660.8
27615.6
27570.6
27525.7
27481
27436.5
27392.2
27348.2
27304.5
27261.1
27218.1
27175.4
27133.1
27091.3
27050
27009.1
26968.8
26929
26889.9
26851.3
26813.5
26776.3
26739.9
26704.2
26669.4
26635.4
26602.2
26570
26538.8
26508.5
26479.2
26451
26423.9
26397.9
26373.1
26349.5
26327
26305.9
26286
26267.4
26250.1
26234.3
26219.8
26206.7
26195
26184.8
26176
26168.8
26163
26158.7
26156
26154.7
26155
26156.9
26160.2
26165.1
26171.5
26179.5
26189
26200
26212.5
26226.5
26242
26259.1
26277.5
26297.5
26318.9
26341.7
26366
26391.6
26418.7
26447.1
26476.9
26508.1
26540.5
26574.3
26609.4
26645.7
26683.3
26722.1
26762
26803.2
26845.4
26888.8
26933.2
26978.6
27024.9
27072.3
27120.4
27169.5
27219.2
27269.8
27320.9
27372.7
27424.9
27477.7
27530.8
27584.2
27637.8
27691.6
27745.4
27799.2
27852.9
27906.5
27959.7
28012.6
28065
28117
28168.2
28218.8
28268.6
28317.5
28365.4
28412.3
28458.1
28502.7
28546.1
28588.1
28628.7
28667.9
28705.6
28741.6
28776.1
28808.9
28840
28869.3
28896.8
28922.6
28946.4
28968.4
28988.5
29006.7
29023
29037.3
29049.6
29060
29068.5
29075
29079.5
29082.2
29082.9
29081.7
29078.6
29073.6
29066.8
29058.1
29047.7
29035.5
29021.6
29006
28988.8
28969.9
28949.6
28927.7
28904.3
28879.6
28853.5
28826.1
28797.5
28767.8
28736.9
28705
28672.1
28638.4
28603.8
28568.6
28532.7
28496.2
28459.2
28421.8
28384.1
28346
28307.8
28269.5
28231.3
28193.2
28155.3
28117.7
28080.4
28043.5
28007.1
27971.3
27936.2
27901.8
27868.3
27835.8
27804.3
27773.9
27744.7
27716.6
27689.8
27664.3
27640.2
27617.5
27596.3
27576.6
27558.6
27542.1
27527.4
27514.3
27502.9
27493.3
27485.5
27479.3
27475
27472.3
27471.4
27472.3
27474.8
27479.1
27485
27492.6
27501.8
27512.6
27524.8
27538.6
27553.7
27570.2
27588
27607
27627.1
27648.3
27670.5
27693.7
27717.6
27742.4
27767.7
27793.7
27820.1
27846.9
27874
27901.3
27928.7
27956.2
27983.6
28010.8
28037.8
28064.5
28090.8
28116.6
28141.9
28166.5
28190.4
28213.6
28235.9
28257.4
28277.9
28297.5
28316.1
28333.6
28350
28365.4
28379.6
28392.7
28404.7
28415.5
28425.2
28433.8
28441.3
28447.7
28453
28457.2
28460.5
28462.8
28464.2
28464.6
28464.2
28463
28461.1
28458.4
28455.1
28451.1
28446.7
28441.7
28436.2
28430.3
28424.1
28417.6
28410.8
28403.8
28396.6
28389.3
28381.8
28374.4
28366.9
28359.4
28352
28344.7
28337.5
28330.5
28323.6
28316.9
28310.5
28304.3
28298.5
28292.9
28287.7
28282.8
28278.3
28274.2
28270.5
28267.2
28264.3
28261.9
28259.9
28258.4
28257.4
28256.8
28256.7
28257.1
28257.9
28259.2
28261
28263.2
28265.9
28269
28272.5
28276.5
28280.8
28285.5
28290.6
28296.1
28301.8
28307.9
28314.2
28320.8
28327.5
28334.5
28341.6
28348.9
28356.2
28363.6
28371
28378.4
28385.7
28392.9
28399.9
28406.7
28413.3
28419.6
28425.5
28431
28436.1
28440.6
28444.6
28448
28450.7
28452.7
28453.9
28454.2
28453.7
28452.2
28449.7
28446.2
28441.6
28435.9
28429
28420.9
28411.6
28401
28389.2
28376
28361.6
28346
28329
28310.7
28291.3
28270.6
28248.8
28225.9
28201.9
28176.9
28151.1
28124.3
28096.9
28068.8
28040.1
28011
27981.5
27951.8
27922
27892.2
27862.5
27833.2
27804.2
27775.7
27747.9
27720.8
27694.7
27669.6
27645.6
27623
27601.7
27581.9
27563.7
27547.2
27532.4
27519.6
27508.8
27499.9
27493.2
27488.6
27486.3
27486.2
27488.4
27493
27499.8
27509
27520.6
27534.4
27550.5
27568.9
27589.5
27612.3
27637.2
27664.1
27693
27723.8
27756.4
27790.8
27826.7
27864.1
27902.9
27942.9
27984.1
28026.2
28069.3
28113
28157.3
28202
28247
28292.2
28337.3
28382.2
28426.9
28471
28514.6
28557.5
28599.4
28640.2
28680
28718.4
28755.4
28790.8
28824.5
28856.4
28886.3
28914.3
28940
28963.6
28984.7
29003.5
29019.7
29033.3
29044.2
29052.3
29057.7
29060.1
29059.6
29056
29049.4
29039.7
29026.9
29011
28991.9
28969.7
28944.4
28915.9
28884.3
28849.7
28812.1
28771.5
28728.1
28681.8
28632.8
28581.3
28527.2
28470.9
28412.3
28351.8
28289.4
28225.3
28159.7
28092.8
28024.8
27956
27886.4
27816.3
27745.9
27675.5
27605.2
27535.2
27465.8
27397.1
27329.3
27262.5
27197
27132.9
27070.3
27009.4
26950.3
26893.1
26838
26784.9
26734
26685.4
26639
26595.1
26553.6
26514.6
26478
26444
26412.6
26383.7
26357.3
26333.5
26312.3
26293.7
26277.6
26264.1
26253
26244.6
26238.6
26235.1
26234
26235.4
26239.1
26245.3
26253.8
26264.6
26277.7
26293
26310.6
26330.4
26352.3
26376.3
26402.5
26430.7
26460.9
26493.1
26527.2
26563.3
26601.2
26641
26682.5
26725.8
26770.8
26817.3
26865.5
26915.2
26966.3
27018.8
27072.7
27127.9
27184.2
27241.6
27300.1
27359.6
27419.9
27481.1
27543.1
27605.7
27668.9
27732.6
27796.7
27861.3
27926.1
27991.2
28056.4
28121.7
28187
28252.4
28317.6
28382.8
28447.7
28512.4
28576.7
28640.8
28704.4
28767.7
28830.3
28892.5
28954
29015
29075.2
29134.8
29193.5
29251.5
29308.6
29364.9
29420.3
29474.7
29528.1
29580.5
29631.9
29682.2
29731.4
29779.5
29826.4
29872.2
29916.8
29960.2
30002.4
30043.4
30083.1
30121.6
30158.8
30194.7
30229.4
30262.8
30295
30325.8
30355.4
30383.7
30410.7
30436.4
30460.9
30484.2
30506.1
30526.9
30546.4
30564.6
30581.7
30597.6
30612.2
30625.7
30638.1
30649.3
30659.4
30668.3
30676.2
30683
30688.8
30693.5
30697.2
30699.9
30701.6
30702.4
30702.3
30701.3
30699.3
30696.6
30692.9
30688.5
30683.3
30677.3
30670.6
30663.2
30655.1
30646.4
30636.9
30626.9
30616.3
30605.2
30593.5
30581.3
30568.6
30555.5
30541.9
30528
30513.6
30498.9
30483.9
30468.6
30453
30437.2
30421.1
30404.8
30388.4
30371.7
30355
30338.2
30321.2
30304.3
30287.2
30270.2
30253.2
30236.2
30219.2
30202.3
30185.5
30168.8
30152.3
30135.9
30119.6
30103.6
30087.7
30072.1
30056.7
30041.5
30026.7
30012.1
29997.8
29983.8
29970.1
29956.8
29943.9
29931.3
29919.1
29907.2
29895.8
29884.8
29874.2
29864.1
29854.4
29845.1
29836.4
29828.1
29820.2
29812.9
29806
29799.7
29793.8
29788.5
29783.6
29779.3
29775.6
29772.3
29769.6
29767.4
29765.8
29764.7
29764.2
29001.5
29001.6
29001.9
29002.3
29002.8
29003.5
29004.3
29005.3
29006.4
29007.6
29008.9
29010.4
29012
29013.8
29015.7
29017.7
29019.9
29022.2
29024.7
29027.2
29029.9
29032.8
29035.8
29038.9
29042.1
29045.5
29049
29052.7
29056.4
29060.4
29064.4
29068.6
29072.9
29077.3
29081.8
29086.5
29091.3
29096.3
29101.3
29106.5
29111.8
29117.3
29122.8
29128.5
29134.3
29140.2
29146.2
29152.4
29158.6
29165
29171.5
29178.1
29184.8
29191.6
29198.5
29205.5
29212.6
29219.8
29227.2
29234.6
29242.1
29249.7
29257.4
29265.2
29273.1
29281.1
29289.1
29297.2
29305.5
29313.8
29322.1
29330.6
29339.1
29347.7
29356.3
29365
29373.8
29382.6
29391.5
29400.4
29409.4
29418.5
29427.5
29436.7
29445.8
29455
29464.3
29473.5
29482.8
29492.1
29501.4
29510.8
29520.1
29529.5
29538.8
29548.2
29557.6
29566.9
29576.3
29585.6
29594.9
29604.2
29613.5
29622.8
29632
29641.2
29650.3
29659.4
29668.4
29677.4
29686.3
29695.2
29704
29712.7
29721.4
29729.9
29738.4
29746.8
29755.1
29763.3
29771.4
29779.3
29787.2
29794.9
29802.5
29810
29817.4
29824.6
29831.6
29838.6
29845.3
29851.9
29858.3
29864.6
29870.7
29876.6
29882.3
29887.8
29893.1
29898.2
29903.1
29907.8
29912.3
29916.6
29920.6
29924.3
29927.9
29931.2
29934.2
29937
29939.5
29941.7
29943.7
29945.3
29946.7
29947.8
29948.7
29949.2
29949.3
29949.2
29948.8
29948
29946.9
29945.5
29943.7
29941.6
29939.1
29936.3
29933.1
29929.5
29925.6
29921.3
29916.6
29911.5
29906
29900.2
29893.9
29887.2
29880.1
29872.6
29864.7
29856.3
29847.5
29838.3
29828.7
29818.6
29808
29797
29785.6
29773.6
29761.3
29748.4
29735.1
29721.3
29707.1
29692.3
29677.1
29661.4
29645.2
29628.5
29611.3
29593.7
29575.5
29556.8
29537.6
29518
29497.8
29477.1
29455.9
29434.2
29412
29389.3
29366
29342.3
29318
29293.2
29267.9
29242.1
29215.8
29189
29161.7
29133.8
29105.5
29076.6
29047.3
29017.4
28987
28956.2
28924.8
28893
28860.6
28827.8
28794.5
28760.7
28726.5
28691.7
28656.5
28620.9
28584.8
28548.2
28511.2
28473.8
28436
28397.7
28359
28319.9
28280.4
28240.6
28200.3
28159.7
28118.7
28077.3
28035.7
27993.7
27951.4
27908.7
27865.8
27822.6
27779.1
27735.4
27691.5
27647.3
27602.9
27558.4
27513.6
27468.7
27423.7
27378.5
27333.2
27287.8
27242.4
27196.9
27151.4
27105.9
27060.4
27014.9
26969.5
26924.1
26878.9
26833.8
26788.8
26744.1
26699.5
26655.2
26611.1
26567.3
26523.8
26480.7
26438
26395.6
26353.7
26312.3
26271.3
26230.9
26191.1
26151.9
26113.3
26075.3
26038.1
26001.6
25965.9
25930.9
25896.9
25863.6
25831.4
25800
25769.7
25740.3
25712.1
25684.9
25658.8
25633.9
25610.2
25587.7
25566.5
25546.6
25527.9
25510.6
25494.7
25480.2
25467
25455.3
25445.1
25436.3
25429
25423.2
25419
25416.2
25415
25415.3
25417.1
25420.5
25425.4
25431.8
25439.8
25449.3
25460.3
25472.8
25486.9
25502.4
25519.5
25538
25557.9
25579.4
25602.2
25626.5
25652.2
25679.3
25707.8
25737.6
25768.8
25801.3
25835.1
25870.3
25906.6
25944.3
25983.1
26023.1
26064.3
26106.7
26150.1
26194.6
26240.1
26286.6
26334
26382.3
26431.4
26481.3
26532
26583.3
26635.2
26687.6
26740.5
26793.8
26847.4
26901.2
26955.2
27009.2
27063.3
27117.2
27170.9
27224.4
27277.5
27330.1
27382.2
27433.7
27484.5
27534.5
27583.6
27631.7
27678.8
27724.8
27769.6
27813.1
27855.3
27896.1
27935.5
27973.3
28009.5
28044.1
28077
28108.2
28137.6
28165.3
28191.1
28215
28237.1
28257.2
28275.4
28291.7
28306.1
28318.4
28328.9
28337.3
28343.8
28348.3
28350.9
28351.6
28350.3
28347.2
28342.1
28335.2
28326.5
28316
28303.7
28289.7
28274
28256.6
28237.6
28217.1
28195.1
28171.6
28146.7
28120.4
28092.9
28064.2
28034.2
28003.2
27971.1
27938.1
27904.2
27869.5
27834
27797.9
27761.2
27724
27686.4
27648.5
27610.3
27571.9
27533.4
27495
27456.8
27418.7
27380.9
27343.4
27306.3
27269.7
27233.7
27198.5
27164
27130.4
27097.7
27066
27035.5
27006.1
26977.9
26951
26925.4
26901.2
26878.4
26857.1
26837.4
26819.2
26802.8
26787.9
26774.8
26763.5
26753.8
26746
26739.8
26735.5
26732.9
26732
26732.9
26735.5
26739.8
26745.8
26753.5
26762.7
26773.6
26786
26799.8
26815.1
26831.7
26849.6
26868.7
26889
26910.4
26932.8
26956.1
26980.2
27005.1
27030.7
27056.8
27083.4
27110.4
27137.7
27165.2
27192.8
27220.4
27248
27275.4
27302.6
27329.4
27355.9
27381.8
27407.2
27432
27456
27479.3
27501.8
27523.4
27544
27563.7
27582.3
27599.9
27616.4
27631.8
27646.1
27659.2
27671.2
27682
27691.7
27700.2
27707.7
27714
27719.3
27723.5
27726.7
27728.9
27730.1
27730.5
27730
27728.7
27726.7
27723.9
27720.5
27716.5
27711.9
27706.8
27701.2
27695.3
27688.9
27682.3
27675.4
27668.3
27661.1
27653.7
27646.2
27638.6
27631.1
27623.5
27616.1
27608.7
27601.4
27594.3
27587.4
27580.7
27574.2
27568
27562.1
27556.5
27551.3
27546.4
27541.8
27537.7
27533.9
27530.6
27527.7
27525.3
27523.3
27521.8
27520.8
27520.2
27520.1
27520.5
27521.3
27522.6
27524.4
27526.6
27529.3
27532.5
27536
27540
27544.4
27549.1
27554.3
27559.7
27565.5
27571.6
27578
27584.6
27591.5
27598.5
27605.7
27613
27620.4
27627.8
27635.3
27642.7
27650.1
27657.4
27664.5
27671.4
27678.1
27684.4
27690.4
27696.1
27701.2
27705.9
27710
27713.4
27716.2
27718.3
27719.6
27720
27719.6
27718.2
27715.8
27712.3
27707.8
27702.1
27695.3
27687.2
27677.9
27667.4
27655.5
27642.4
27628
27612.3
27595.3
27577
27557.4
27536.7
27514.7
27491.7
27467.6
27442.5
27416.5
27389.6
27362
27333.7
27304.8
27275.5
27245.9
27216
27186
27156
27126.1
27096.5
27067.4
27038.7
27010.7
26983.4
26957.1
26931.8
26907.7
26884.8
26863.4
26843.4
26825
26808.4
26793.6
26780.6
26769.6
26760.7
26753.9
26749.3
26746.9
26746.8
26749
26753.5
26760.3
26769.5
26781.1
26795
26811.1
26829.6
26850.3
26873.1
26898.1
26925.2
26954.2
26985.1
27017.9
27052.4
27088.5
27126.1
27165
27205.2
27246.6
27289
27332.2
27376.1
27420.6
27465.6
27510.8
27556.2
27601.5
27646.7
27691.6
27736
27779.8
27822.9
27865
27906.1
27946
27984.7
28021.8
28057.4
28091.3
28123.4
28153.6
28181.7
28207.6
28231.3
28252.7
28271.5
28287.9
28301.6
28312.6
28320.9
28326.3
28328.8
28328.3
28324.8
28318.2
28308.6
28295.8
28279.9
28260.8
28238.5
28213.1
28184.5
28152.9
28118.1
28080.4
28039.6
27996
27949.6
27900.4
27848.6
27794.3
27737.8
27679
27618.1
27555.5
27491.1
27425.2
27358
27289.7
27220.5
27150.6
27080.3
27009.6
26938.9
26868.3
26798.1
26728.4
26659.4
26591.4
26524.5
26458.8
26394.5
26331.8
26270.7
26211.5
26154.2
26098.9
26045.7
25994.8
25946.1
25899.7
25855.8
25814.3
25775.2
25738.6
25704.6
25673.2
25644.3
25617.9
25594.2
25573
25554.4
25538.3
25524.8
25513.8
25505.4
25499.4
25495.9
25494.9
25496.3
25500.1
25506.3
25514.9
25525.7
25538.8
25554.2
25571.8
25591.6
25613.6
25637.7
25663.9
25692.1
25722.4
25754.6
25788.8
25824.9
25862.9
25902.7
25944.3
25987.6
26032.6
26079.3
26127.5
26177.2
26228.5
26281.1
26335
26390.2
26446.6
26504.2
26562.7
26622.3
26682.8
26744
26806
26868.7
26932
26995.8
27060.1
27124.7
27189.6
27254.7
27320.1
27385.5
27450.9
27516.3
27581.6
27646.8
27711.8
27776.6
27841
27905.2
27968.9
28032.1
28094.9
28157.1
28218.7
28279.7
28340
28399.6
28458.5
28516.5
28573.7
28630
28685.4
28739.9
28793.3
28845.8
28897.2
28947.6
28996.8
29044.9
29091.9
29137.7
29182.4
29225.8
29268
29309
29348.8
29387.3
29424.5
29460.5
29495.2
29528.6
29560.7
29591.6
29621.1
29649.4
29676.5
29702.2
29726.7
29749.9
29771.9
29792.6
29812.1
29830.3
29847.4
29863.2
29877.9
29891.4
29903.7
29914.9
29924.9
29933.9
29941.7
29948.5
29954.2
29958.9
29962.6
29965.3
29967
29967.8
29967.6
29966.5
29964.6
29961.8
29958.1
29953.7
29948.4
29942.4
29935.7
29928.2
29920.1
29911.3
29901.9
29891.8
29881.2
29870
29858.3
29846.1
29833.3
29820.2
29806.6
29792.6
29778.2
29763.5
29748.4
29733.1
29717.5
29701.6
29685.5
29669.2
29652.7
29636.1
29619.3
29602.4
29585.5
29568.5
29551.4
29534.4
29517.3
29500.3
29483.3
29466.4
29449.6
29432.9
29416.3
29399.9
29383.6
29367.5
29351.6
29336
29320.6
29305.4
29290.5
29275.9
29261.6
29247.6
29233.9
29220.6
29207.6
29195
29182.8
29171
29159.5
29148.5
29137.9
29127.8
29118.1
29108.8
29100
29091.7
29083.9
29076.5
29069.7
29063.3
29057.4
29052.1
29047.3
29043
29039.2
29035.9
29033.2
29031.1
29029.4
29028.3
29027.8
28264.8
28264.9
28265.2
28265.6
28266.1
28266.8
28267.6
28268.6
28269.7
28270.9
28272.2
28273.7
28275.4
28277.1
28279
28281.1
28283.2
28285.5
28288
28290.6
28293.3
28296.1
28299.1
28302.2
28305.5
28308.9
28312.4
28316
28319.8
28323.7
28327.8
28331.9
28336.2
28340.7
28345.2
28349.9
28354.8
28359.7
28364.8
28370
28375.3
28380.7
28386.3
28391.9
28397.7
28403.7
28409.7
28415.9
28422.1
28428.5
28435
28441.6
28448.3
28455.1
28462
28469.1
28476.2
28483.4
28490.8
28498.2
28505.7
28513.4
28521.1
28528.9
28536.8
28544.7
28552.8
28561
28569.2
28577.5
28585.9
28594.3
28602.9
28611.5
28620.1
28628.8
28637.6
28646.5
28655.4
28664.3
28673.3
28682.4
28691.5
28700.6
28709.8
28719
28728.3
28737.5
28746.8
28756.2
28765.5
28774.9
28784.2
28793.6
28803
28812.4
28821.8
28831.2
28840.5
28849.9
28859.2
28868.6
28877.9
28887.1
28896.4
28905.6
28914.7
28923.8
28932.9
28941.9
28950.9
28959.8
28968.6
28977.3
28986
28994.6
29003.1
29011.5
29019.8
29028
29036.1
29044.1
29052
29059.8
29067.4
29075
29082.3
29089.6
29096.7
29103.6
29110.4
29117
29123.5
29129.7
29135.9
29141.8
29147.5
29153.1
29158.4
29163.5
29168.5
29173.2
29177.7
29182
29186
29189.8
29193.4
29196.7
29199.7
29202.5
29205.1
29207.3
29209.3
29211
29212.5
29213.6
29214.4
29214.9
29215.2
29215.1
29214.6
29213.9
29212.8
29211.4
29209.7
29207.6
29205.1
29202.3
29199.1
29195.6
29191.7
29187.4
29182.7
29177.7
29172.2
29166.4
29160.1
29153.4
29146.4
29138.9
29131
29122.6
29113.8
29104.6
29095
29084.9
29074.4
29063.4
29051.9
29040
29027.7
29014.8
29001.5
28987.7
28973.5
28958.8
28943.5
28927.8
28911.6
28895
28877.8
28860.1
28841.9
28823.3
28804.1
28784.4
28764.2
28743.5
28722.3
28700.6
28678.4
28655.6
28632.4
28608.6
28584.3
28559.6
28534.3
28508.4
28482.1
28455.3
28427.9
28400
28371.7
28342.8
28313.4
28283.5
28253.1
28222.2
28190.8
28159
28126.6
28093.7
28060.4
28026.6
27992.3
27957.5
27922.3
27886.6
27850.4
27813.8
27776.8
27739.3
27701.4
27663.1
27624.4
27585.2
27545.7
27505.7
27465.4
27424.7
27383.7
27342.3
27300.6
27258.5
27216.1
27173.4
27130.4
27087.2
27043.6
26999.8
26955.8
26911.6
26867.1
26822.5
26777.6
26732.7
26687.5
26642.3
26596.9
26551.5
26505.9
26460.3
26414.7
26369.1
26323.5
26277.9
26232.4
26187
26141.7
26096.5
26051.4
26006.5
25961.9
25917.4
25873.2
25829.4
25785.8
25742.5
25699.7
25657.2
25615.2
25573.7
25532.6
25492.1
25452.1
25412.8
25374.1
25336
25298.7
25262
25226.2
25191.1
25156.9
25123.6
25091.2
25059.8
25029.3
24999.9
24971.5
24944.2
24918
24893
24869.2
24846.7
24825.3
24805.3
24786.6
24769.2
24753.2
24738.6
24725.5
24713.7
24703.4
24694.6
24687.3
24681.5
24677.2
24674.4
24673.2
24673.5
24675.3
24678.7
24683.6
24690
24698
24707.6
24718.6
24731.2
24745.3
24760.9
24777.9
24796.5
24816.5
24838
24860.9
24885.2
24911
24938.1
24966.7
24996.5
25027.8
25060.4
25094.2
25129.4
25165.9
25203.6
25242.5
25282.7
25324
25366.4
25409.9
25454.6
25500.2
25546.8
25594.4
25642.9
25692.2
25742.3
25793.2
25844.7
25896.9
25949.5
26002.7
26056.2
26110.1
26164.2
26218.5
26272.8
26327.1
26381.4
26435.4
26489.2
26542.7
26595.6
26648.1
26699.9
26751
26801.2
26850.7
26899.1
26946.5
26992.8
27037.8
27081.6
27124.1
27165.1
27204.7
27242.8
27279.2
27314
27347.1
27378.4
27408
27435.8
27461.7
27485.8
27507.9
27528.2
27546.5
27562.8
27577.2
27589.6
27600
27608.4
27614.9
27619.4
27621.9
27622.5
27621.2
27617.9
27612.8
27605.8
27596.9
27586.2
27573.8
27559.6
27543.8
27526.2
27507.1
27486.3
27464.1
27440.4
27415.3
27388.8
27361
27332
27301.8
27270.5
27238.2
27204.9
27170.7
27135.7
27100
27063.6
27026.6
26989.1
26951.2
26913
26874.5
26835.9
26797.2
26758.5
26719.9
26681.5
26643.4
26605.7
26568.3
26531.5
26495.3
26459.8
26425.1
26391.2
26358.3
26326.5
26295.7
26266.1
26237.8
26210.7
26184.9
26160.5
26137.6
26116.2
26096.4
26078.1
26061.6
26046.7
26033.5
26022.1
26012.5
26004.6
25998.4
25994.1
25991.5
25990.7
25991.6
25994.3
25998.7
26004.8
26012.6
26022
26033
26045.5
26059.5
26075
26091.8
26109.9
26129.3
26149.8
26171.4
26194
26217.6
26242
26267.1
26292.9
26319.3
26346.2
26373.5
26401
26428.8
26456.7
26484.6
26512.4
26540.1
26567.5
26594.7
26621.3
26647.5
26673.2
26698.1
26722.4
26745.9
26768.5
26790.3
26811
26830.8
26849.6
26867.3
26883.9
26899.3
26913.6
26926.8
26938.8
26949.6
26959.3
26967.8
26975.2
26981.4
26986.6
26990.7
26993.8
26995.9
26997
26997.3
26996.6
26995.2
26993
26990.1
26986.5
26982.3
26977.6
26972.3
26966.6
26960.5
26954.1
26947.3
26940.3
26933
26925.6
26918.1
26910.5
26902.9
26895.2
26887.6
26880
26872.6
26865.2
26858
26851
26844.3
26837.7
26831.4
26825.5
26819.8
26814.5
26809.6
26805
26800.8
26797
26793.6
26790.7
26788.3
26786.3
26784.8
26783.7
26783.2
26783.1
26783.4
26784.3
26785.6
26787.4
26789.7
26792.4
26795.5
26799.1
26803.2
26807.6
26812.4
26817.6
26823.1
26829
26835.2
26841.6
26848.3
26855.2
26862.3
26869.6
26877
26884.5
26892
26899.6
26907.2
26914.7
26922
26929.3
26936.3
26943.1
26949.6
26955.8
26961.5
26966.8
26971.6
26975.8
26979.5
26982.4
26984.6
26986
26986.6
26986.3
26985
26982.7
26979.4
26974.9
26969.4
26962.6
26954.6
26945.4
26934.8
26923
26909.9
26895.4
26879.7
26862.6
26844.2
26824.5
26803.6
26781.6
26758.4
26734.1
26708.8
26682.5
26655.4
26627.6
26599
26569.9
26540.3
26510.3
26480.2
26449.8
26419.6
26389.4
26359.5
26330
26301
26272.7
26245.2
26218.6
26193
26168.6
26145.5
26123.8
26103.6
26085
26068.1
26053.1
26040
26028.9
26019.8
26012.9
26008.1
26005.7
26005.5
26007.6
26012.1
26018.9
26028.2
26039.7
26053.7
26069.9
26088.4
26109.2
26132.2
26157.4
26184.6
26213.8
26244.9
26277.9
26312.6
26349
26386.8
26426.1
26466.6
26508.2
26550.9
26594.4
26638.7
26683.5
26728.8
26774.4
26820.1
26865.8
26911.3
26956.6
27001.3
27045.5
27088.9
27131.3
27172.8
27213
27252
27289.5
27325.4
27359.6
27391.9
27422.3
27450.7
27476.9
27500.9
27522.4
27541.5
27558.1