/*--------------------------------*- C++ -*----------------------------------*\
| =========                 |                                                 |
| \\      /  F ield         | OpenFOAM: The Open Source CFD Toolbox           |
|  \\    /   O peration     | Version:  2412                                  |
|   \\  /    A nd           | Website:  www.openfoam.com                      |
|    \\/     M anipulation  |                                                 |
\*---------------------------------------------------------------------------*/
FoamFile
{
    version     2.0;
    format      ascii;
    arch        "LSB;label=32;scalar=64";
    class       volScalarField;
    location    "9.45";
    object      p;
}
// * * * * * * * * * * * * * * * * * * * * * * * * * * * * * * * * * * * * * //

dimensions      [1 -1 -2 0 0 0 0];

internalField   nonuniform List<scalar> 
6400
(
130997
130989
130971
130944
130908
130863
130810
130750
130684
130612
130537
130458
130377
130295
130213
130133
130055
129981
129912
129847
129789
129736
129691
129652
129619
129593
129574
129560
129551
129547
129546
129549
129554
129561
129568
129577
129584
129591
129597
129602
129605
129606
129606
129604
129601
129598
129594
129590
129588
129587
129588
129593
129601
129614
129631
129654
129684
129719
129760
129808
129862
129921
129986
130055
130128
130204
130281
130360
130438
130514
130588
130657
130722
130781
130833
130877
130913
130940
130957
130966
124368
124359
124341
124313
124277
124232
124179
124118
124051
123979
123902
123822
123740
123657
123574
123493
123414
123339
123269
123204
123145
123092
123046
123007
122974
122949
122929
122916
122907
122904
122904
122907
122913
122921
122929
122938
122946
122954
122960
122965
122968
122969
122968
122966
122963
122959
122954
122950
122947
122945
122946
122950
122958
122970
122987
123010
123039
123074
123116
123164
123218
123278
123343
123414
123487
123564
123643
123722
123801
123879
123953
124024
124090
124149
124201
124246
124282
124310
124328
124336
117747
117738
117720
117692
117655
117608
117554
117492
117424
117349
117271
117188
117104
117019
116934
116850
116770
116693
116621
116554
116494
116441
116394
116355
116323
116298
116279
116267
116260
116257
116259
116264
116271
116280
116289
116299
116309
116317
116324
116329
116332
116333
116332
116329
116325
116320
116315
116309
116305
116302
116301
116304
116310
116322
116338
116360
116389
116424
116466
116514
116569
116630
116697
116769
116844
116923
117004
117086
117167
117246
117323
117396
117463
117524
117578
117623
117660
117688
117707
117716
111136
111127
111108
111079
111041
110993
110937
110873
110801
110724
110642
110557
110469
110380
110292
110205
110121
110042
109967
109899
109837
109783
109736
109696
109665
109641
109623
109612
109607
109607
109610
109617
109627
109638
109649
109661
109672
109681
109689
109695
109698
109699
109698
109694
109689
109682
109675
109668
109661
109656
109653
109654
109658
109668
109683
109704
109732
109767
109809
109858
109914
109977
110046
110120
110198
110280
110364
110449
110534
110617
110697
110772
110842
110906
110962
111009
111048
111077
111096
111105
104535
104526
104506
104476
104436
104387
104328
104260
104185
104104
104018
103927
103835
103741
103648
103557
103469
103386
103308
103237
103173
103117
103070
103030
103000
102976
102961
102952
102949
102952
102959
102969
102981
102995
103009
103023
103036
103047
103056
103063
103066
103067
103065
103060
103053
103045
103035
103025
103016
103008
103002
103000
103002
103008
103021
103041
103068
103102
103144
103194
103252
103317
103389
103466
103549
103635
103723
103813
103902
103990
104074
104154
104228
104295
104354
104404
104445
104475
104495
104504
97944.2
97934.8
97914.7
97883.4
97841.3
97788.6
97726
97654.4
97574.8
97488.3
97396.3
97300.2
97201.5
97101.7
97002.5
96905.4
96812.1
96723.9
96642
96567.5
96501.3
96443.8
96395.5
96356.4
96326.3
96305
96291.7
96285.9
96286.6
96292.8
96303.5
96317.6
96334
96351.7
96369.6
96386.7
96402.4
96415.8
96426.4
96433.8
96437.8
96438.2
96435.1
96428.9
96419.8
96408.5
96395.8
96382.3
96369.1
96357.2
96347.5
96341.3
96339.5
96343.2
96353.4
96370.8
96396.1
96429.8
96472.2
96523.3
96582.9
96650.7
96726
96807.9
96895.3
96986.9
97081.4
97177.1
97272.6
97366.2
97456.4
97541.8
97620.9
97692.5
97755.5
97808.8
97851.8
97883.7
97904.4
97914.3
91364.4
91354.8
91333.7
91300.8
91256
91199.8
91132.9
91056.3
90970.8
90877.9
90778.9
90675.4
90569
90461.4
90354.6
90250.2
90150.1
90055.7
89968.6
89890
89820.6
89761.1
89711.9
89673.1
89644.3
89625.3
89615.1
89613.1
89618.2
89629.2
89644.9
89664.2
89685.6
89708.1
89730.5
89751.7
89770.7
89786.9
89799.6
89808.3
89812.7
89812.7
89808.5
89800.3
89788.5
89773.8
89757.1
89739.2
89721.2
89704.2
89689.6
89678.4
89672
89671.6
89678.2
89692.7
89716.1
89748.8
89791.3
89843.7
89905.7
89976.9
90056.8
90144.1
90237.8
90336.3
90438.1
90541.5
90644.6
90745.8
90843.3
90935.5
91020.8
91098
91165.8
91223.1
91269.1
91303.1
91325
91335.3
84796
84786.2
84764.1
84729
84681.1
84620.8
84548.8
84466.1
84373.8
84273.2
84165.8
84053.2
83937.4
83820.3
83704.1
83590.6
83482.1
83380.2
83286.7
83203
83129.8
83068
83017.9
82979.5
82952.6
82936.5
82930.4
82933.2
82943.8
82960.9
82982.9
83008.5
83036.2
83064.7
83092.6
83118.7
83142
83161.6
83176.8
83187
83192
83191.6
83185.9
83175.2
83160.1
83141.2
83119.5
83096.1
83072.1
83049
83028.1
83010.8
82998.6
82992.8
82994.9
83005.9
83026.7
83058.1
83100.6
83154.4
83219.2
83294.7
83380
83474
83575.3
83682.3
83793.2
83905.9
84018.4
84128.8
84235.1
84335.5
84428.4
84512.3
84585.8
84647.9
84697.4
84733.9
84757.3
84767.9
78239.7
78229.7
78206.4
78168.8
78117.2
78052
77974.2
77884.6
77784.3
77674.7
77557.3
77434
77306.8
77178.2
77050.4
76926
76807.2
76696.2
76595
76505
76427.4
76363
76312.1
76274.5
76250
76237.8
76236.7
76245.6
76263.1
76287.6
76317.4
76350.8
76386.1
76421.8
76456.5
76488.6
76517
76540.7
76558.9
76571
76576.6
76575.6
76568.1
76554.5
76535.3
76511.3
76483.7
76453.5
76422.3
76391.5
76362.9
76338
76318.6
76306.4
76302.8
76309.1
76326.7
76356.3
76398.7
76453.9
76522
76602.4
76694.3
76796.4
76907
77024.3
77146.1
77270.1
77394.1
77515.5
77632.4
77742.5
77844.1
77935.7
78016
78083.6
78137.5
78177.1
78202.1
78213.1
71696.2
71686.1
71661.2
71620.7
71564.8
71494.2
71409.8
71312.7
71203.2
71083.2
70954
70817.9
70677.1
70534.5
70392.9
70255.1
70124
70002.1
69891.8
69794.6
69711.9
69644.5
69592.8
69556.6
69535.2
69527.8
69533.1
69549.6
69575.5
69609.1
69648.3
69691.1
69735.7
69780.1
69822.8
69862.1
69896.7
69925.3
69947.1
69961.5
69967.8
69966.2
69956.5
69939.3
69915.2
69885.1
69850.3
69812
69772
69732
69694
69659.8
69631.6
69611.3
69600.6
69601.3
69614.7
69641.9
69683.7
69740.5
69812.3
69898.5
69998.2
70109.8
70231.7
70361.3
70496.4
70634.1
70771.7
70906.3
71035.5
71157
71268.7
71369.2
71457.1
71531.2
71590.4
71633.7
71660.8
71672.3
65166.4
65156
65129.4
65085.5
65024.9
64948.4
64856.9
64750.8
64631.5
64499.6
64356.8
64205.5
64048.5
63889.2
63730.9
63577.1
63431.2
63296.2
63174.9
63069.2
62980.7
62910.2
62857.9
62823.6
62806.3
62805.1
62818.3
62844
62880.3
62924.9
62975.5
63029.7
63085.4
63140.3
63192.6
63240.4
63282.2
63316.7
63342.9
63359.8
63367.2
63364.6
63352.4
63331
63301.1
63263.7
63220.2
63172.3
63121.7
63070.6
63021.2
62975.8
62936.8
62906.5
62887.1
62880.6
62888.7
62912.8
62953.7
63012.1
63088
63180.9
63289.7
63412.8
63548
63692.6
63843.6
63997.6
64151.5
64301.8
64445.5
64580.1
64703.4
64813.8
64910.3
64991.7
65056.9
65104.6
65134.1
65146.3
58651.3
58640.2
58611.8
58564.6
58499.4
58417
58318.1
58202.9
58071.9
57926
57767.1
57597.8
57421.4
57241.9
57063.5
56890.4
56726.7
56576
56441.7
56326.1
56231
56157.1
56104.6
56073
56061.1
56067.7
56090.6
56127.8
56176.7
56234.7
56299
56366.9
56435.8
56503.2
56566.9
56624.8
56675.2
56716.6
56747.8
56767.9
56776.3
56772.8
56757.6
56731.2
56694.3
56648.3
56594.7
56535.1
56471.9
56407.4
56344.3
56285.2
56233.2
56190.8
56160.7
56145.4
56146.8
56166.6
56206.1
56265.9
56346.3
56447
56566.6
56703.3
56854.5
57016.9
57186.9
57360.6
57533.9
57702.8
57863.8
58013.6
58150.1
58271.8
58377.6
58466.9
58538.4
58590.9
58623.1
58636.3
52151.7
52140
52109.9
52060.1
51991
51903.2
51796.8
51671.4
51527.3
51365.3
51187.3
50996.3
50796.6
50592.8
50389.9
50193.3
50008
49838.4
49688.6
49561.5
49459
49381.7
49329.6
49301.9
49297
49313.3
49348.4
49399.6
49463.9
49538.1
49618.9
49703.2
49787.8
49870
49947.1
50016.9
50077.4
50126.9
50164
50187.7
50197.4
50192.8
50174
50141.7
50096.9
50040.6
49975
49901.7
49823.3
49742.8
49663.2
49587.7
49519.7
49462.6
49419.5
49393.2
49386.2
49400.5
49437.7
49498.7
49584.1
49693.5
49825.8
49978.7
50149
50332.9
50526
50723.3
50919.9
51111.1
51292.4
51460.3
51612.1
51746.3
51862.3
51959.5
52037.3
52094.1
52129.2
52143.6
45668.4
45656.4
45625.7
45574.5
45502.9
45410.6
45296.8
45160.6
45001.7
44820.9
44620.2
44403.2
44175
43941.6
43709
43483.7
43272
43079.6
42911.4
42770.9
42660.3
42579.9
42529.2
42506.8
42510.9
42539.3
42589.3
42657.6
42740.6
42834.3
42935
43038.9
43142
43241.6
43334.6
43418.4
43490.6
43549.5
43593.6
43621.7
43633
43627.1
43604.1
43564.7
43511
43442.6
43362.5
43273.2
43176.8
43077.1
42977.7
42882.4
42795.2
42720.1
42660.9
42621.2
42603.7
42610.9
42644.6
42706.3
42796.8
42916.2
43063.4
43235.6
43429.1
43638.8
43859.9
44086.2
44310.9
44528.8
44734.5
44923.8
45093.4
45241.8
45368.5
45473.5
45556.5
45616.9
45654.1
45669.6
39201.7
39190.2
39160.5
39110
39037.7
38942.3
38821.7
38674.3
38499.3
38297.1
38069.7
37821.2
37558.2
37288.3
37019.4
36758.8
36514.7
36294.4
36104.1
35948.2
35828.9
35746.2
35698.3
35683.2
35698.7
35742.2
35810.6
35899.8
36005.4
36122.8
36247.2
36374.2
36499.5
36619.6
36731.1
36831.1
36917
36987
37039.3
37072.6
37085.9
37078.6
37050.8
37003.8
36938.6
36856.4
36759.6
36651.1
36533.5
36410.9
36287.7
36168.4
36057.9
35960.9
35882
35825.7
35795.2
35793.2
35821.9
35883.1
35978.7
36109.4
36274.1
36469.8
36691.5
36933
37187.3
37450
37708.6
37958.9
38194.1
38408.5
38598.4
38762.5
38900.3
39012.4
39099.3
39161.6
39199.7
39215.5
32750.8
32741.2
32714.6
32667.9
32598
32501.7
32375.7
32217.4
32025.4
31799.4
31541.1
31253.7
30946.9
30633.7
30319.7
30015.2
29730.5
29475.6
29258.4
29084.5
28956.4
28873.1
28830.4
28825.5
28855.2
28917.4
29008.6
29123.7
29257.1
29403.1
29556
29710.6
29861.9
30005.8
30138.9
30257.7
30359.4
30441.9
30504
30543.7
30560.1
30551.7
30518.6
30461.5
30383.2
30284.8
30168.6
30038
29895
29745.1
29593.3
29445.1
29306.1
29182.2
29079.3
29002.5
28956.1
28942.5
28964.1
29022.7
29122.4
29265.5
29451.2
29675.5
29932
30212.9
30509.5
30813
31114.5
31404.7
31675.8
31919.5
32132
32312.5
32461.3
32579.3
32667.9
32729.6
32766.4
32781.2
26315.9
26310
26289.2
26249.6
26186
26092.6
25963.6
25795.8
25587.1
25335.2
25042.4
24700.5
24347
23978.6
23607.6
23247.2
22911.1
22612.6
22362.3
22167.6
22031.4
21952.2
21920.3
21927.7
21973.9
22058.7
22178
22325.2
22492.8
22673.7
22861
23048.6
23230.9
23402.1
23560.6
23701.3
23820.9
23917.4
23991.4
24039.1
24058.6
24048.6
24008.8
23941
23847.7
23731
23592.8
23435.9
23262.8
23080.3
22894.3
22711
22537.3
22380.3
22247.7
22146.2
22081.1
22054.5
22065.3
22116.5
22217.7
22374.5
22585.5
22845.1
23144.9
23474.7
23823.2
24179.2
24531.1
24869.6
25186
25462.9
25699.4
25896.3
26055.3
26176.9
26264.5
26322.7
26355.6
26367.6
19890
19891.2
19880.6
19853.6
19802.5
19717.6
19589.8
19413.2
19191.6
18911.2
18570.3
18179.3
17759.4
17321.2
16878.6
16447.1
16045
15691
15399.7
15180.5
15038.5
14973.8
14961.8
14980
15042.6
15154.1
15308.7
15496.4
15707
15931.1
16160.3
16387.6
16607.6
16809.3
16998.6
17165.2
17305
17415
17501.2
17561.3
17586.3
17575
17527.4
17444.4
17328.6
17198.4
17035.5
16847.6
16638.3
16416.6
16189.2
15963.2
15746.4
15548.1
15378.2
15246.6
15160.5
15121.2
15120.3
15153.3
15249.8
15421.7
15663.8
15967.7
16321.9
16712.9
17126
17547
17961.7
18355.6
18734.1
19046.4
19306
19517.7
19685.9
19807.8
19889.5
19939.5
19964.6
19970.1
13463.5
13470.2
13476.5
13472.4
13445.4
13380.7
13261.7
13075.6
12854.1
12545.8
12149.7
11690.4
11192.5
10670.5
10138.9
9614.8
9123.95
8695.78
8352.4
8104.44
7959
7934.45
7948.84
7958.74
8034.13
8184.31
8390.6
8635.3
8903.37
9182.6
9462.96
9736.64
9998.05
10238.6
10461.1
10657
10819.8
10938.6
11052.9
11128.5
11159.6
11146.8
11090.9
10990
10850.1
10700.5
10505.1
10281.1
10028.3
9760.1
9482.93
9204.12
8932.1
8677.83
8455.68
8281.37
8170.25
8129.66
8132.4
8125.52
8203.06
8394.33
8676.81
9038.42
9463.19
9931.79
10425.1
10925.6
11417.4
11886.1
12322.7
12682.2
12959.9
13180.3
13358.6
13472.7
13537.7
13569.3
13579.7
13577.6
7076.33
7087.94
7117.77
7141.15
7144.79
7109.87
7008.07
6825.45
6618.86
6264.67
5821.39
5343.15
4841.31
4333
3829.4
3346.93
2915.66
2566.29
2310.66
2141.27
2048.48
2019.59
2034.6
2077.7
2155.84
2293.03
2463.53
2659
2874.46
3102.67
3336.04
3568.04
3793.91
4010.12
4214.09
4400.26
4559.82
4685.89
4798.16
4869.77
4900.06
4889.31
4838.24
4745.42
4613.18
4460.41
4268.38
4050.78
3819.55
3581.33
3341.66
3106.55
2881.5
2674.24
2491.86
2341.17
2227.01
2151.7
2122.92
2127.62
2188.15
2323.61
2536.7
2829.59
3193.58
3613.23
4071.67
4552.29
5038.82
5518.38
5981.64
6405.27
6703.66
6911.27
7101.26
7198.91
7240.45
7250.16
7242.03
7229.01
2008.09
2015.84
2054.78
2094.79
2123.73
2133.63
2101.89
2012.59
1857.23
1606.57
1335.27
1091.7
858.304
644.784
455.278
296.445
175.8
93.7574
42.3987
12.0237
-2.93907
-7.10789
-7.58014
-7.62057
-6.94474
15.0395
49.114
92.2014
145.301
208.067
278.63
354.474
433.45
514.309
595.783
675.964
749.52
812.165
863.72
897.953
912.709
908.623
886.399
845.545
787.239
714.42
627.136
534.13
443.995
358.573
279.148
207.62
145.318
94.0125
54.2557
25.2852
5.41358
-6.71586
-7.35674
-6.71458
2.09634
26.9577
70.8725
139.824
238.883
370.286
533.715
725.766
939.61
1168.64
1416.76
1705.35
1916.33
2065.79
2153.84
2187.51
2188.56
2170.05
2136.48
2129.17
-1.7563
-8.39993
-5.52441
13.978
33.3783
51.9915
62.9789
55.513
33.8884
8.06144
-4.90603
-6.39269
-6.57727
-6.64695
-6.75181
-7.08335
-7.31256
-7.42814
-7.46609
-7.47704
-7.49938
-7.55175
-7.766
-7.99281
-8.03017
-8.08148
-8.04056
-7.99693
-7.98139
-7.91649
-7.94702
-8.07107
-8.17827
-8.55785
-9.05842
-9.50658
-9.64653
-9.59566
-9.47744
-9.27398
-8.95361
-8.61837
-8.35806
-8.22555
-8.22324
-8.29731
-8.42716
-8.58647
-8.74707
-8.86691
-8.90606
-8.83625
-8.68475
-8.49593
-8.27108
-8.03372
-7.8308
-7.71562
-7.7734
-7.74568
-7.73463
-7.72603
-7.73549
-7.76517
-7.77806
-7.69612
-7.51988
-7.39095
-7.3384
-7.03589
-2.87593
16.9712
42.7724
63.0437
66.2819
55.5955
40.8347
22.7122
8.51002
24.7104
-9.16171
-9.03204
-9.08293
-9.19298
-9.33007
-9.54028
-9.7699
-9.73467
-9.64631
-9.43071
-9.08941
-8.98626
-8.94375
-8.86235
-8.72288
-8.66933
-8.64017
-8.61456
-8.56079
-8.4417
-8.31846
-8.37331
-8.49862
-8.63368
-8.62425
-8.5492
-8.46805
-8.40415
-8.3772
-8.37899
-8.39685
-8.44795
-8.61124
-8.9739
-9.38021
-9.70515
-9.90994
-9.99863
-9.97367
-9.7983
-9.49397
-9.17142
-8.93512
-8.81665
-8.79992
-8.84838
-8.93851
-9.05416
-9.16116
-9.23496
-9.27245
-9.25393
-9.18132
-9.07555
-8.9351
-8.75545
-8.58553
-8.45093
-8.38684
-8.34264
-8.32354
-8.36318
-8.44693
-8.57334
-8.75352
-8.88016
-8.89857
-8.89831
-8.94181
-8.98308
-9.08149
-9.32385
-9.54457
-9.72264
-9.68847
-9.47479
-9.26861
-9.08704
-8.96449
-9.16743
-9.67949
-9.6481
-9.69872
-9.75582
-9.82853
-9.92327
-10.0419
-10.1265
-10.1623
-10.1131
-9.97337
-9.83925
-9.74146
-9.64424
-9.49541
-9.41243
-9.40929
-9.45027
-9.49825
-9.43152
-9.29862
-9.29695
-9.35155
-9.32407
-9.21149
-9.1318
-9.11629
-9.0843
-9.03265
-9.01036
-8.98079
-9.07337
-9.33988
-9.74156
-10.1434
-10.424
-10.6176
-10.6757
-10.6006
-10.3871
-10.0762
-9.75727
-9.52597
-9.41708
-9.40267
-9.43915
-9.51517
-9.6223
-9.73728
-9.82899
-9.87299
-9.86682
-9.82586
-9.75645
-9.6681
-9.55908
-9.42525
-9.30663
-9.24021
-9.18065
-9.11819
-9.08527
-9.10891
-9.2118
-9.38759
-9.51939
-9.51953
-9.49182
-9.51886
-9.59801
-9.74526
-9.9014
-10.0001
-10.0286
-9.97049
-9.86399
-9.73986
-9.6247
-9.55176
-9.53503
-10.2796
-10.2658
-10.275
-10.3128
-10.3635
-10.4228
-10.4919
-10.5948
-10.6933
-10.7341
-10.6679
-10.5411
-10.4292
-10.3556
-10.2437
-10.0736
-10.0351
-10.0981
-10.1474
-10.0941
-10.0081
-10.0111
-10.0359
-9.96342
-9.85053
-9.78809
-9.77209
-9.73333
-9.66113
-9.62801
-9.58677
-9.73063
-10.0698
-10.508
-10.9271
-11.2913
-11.5205
-11.5561
-11.4285
-11.1761
-10.8481
-10.5189
-10.2795
-10.1641
-10.1375
-10.1536
-10.2101
-10.2941
-10.3812
-10.4363
-10.4409
-10.42
-10.3868
-10.3433
-10.2971
-10.2605
-10.2088
-10.1338
-10.09
-10.0391
-9.94269
-9.85817
-9.82938
-9.88163
-10.009
-10.1122
-10.13
-10.0773
-10.0576
-10.1221
-10.2186
-10.312
-10.3748
-10.4254
-10.4437
-10.4
-10.2929
-10.1728
-10.0892
-10.0634
-10.918
-10.9297
-10.8659
-10.8602
-10.8865
-10.9344
-11.0007
-11.1099
-11.2431
-11.3404
-11.3422
-11.2545
-11.1456
-11.0885
-11.03
-10.8281
-10.6617
-10.6066
-10.5955
-10.5608
-10.5077
-10.5202
-10.5355
-10.5031
-10.4556
-10.4494
-10.4723
-10.4696
-10.3943
-10.3564
-10.3493
-10.5294
-10.9213
-11.3297
-11.7115
-12.091
-12.3224
-12.3565
-12.2257
-11.9686
-11.6388
-11.3034
-11.0461
-10.9086
-10.8539
-10.8361
-10.87
-10.931
-10.9862
-11.0123
-11.0044
-10.9832
-10.9568
-10.9283
-10.9042
-10.8926
-10.9019
-10.9101
-10.9068
-10.8754
-10.7623
-10.6398
-10.5676
-10.5543
-10.5844
-10.6159
-10.627
-10.5934
-10.575
-10.6204
-10.7011
-10.7845
-10.8511
-10.9029
-10.932
-10.9062
-10.8175
-10.7058
-10.6084
-10.5617
-11.5765
-11.6074
-11.5192
-11.4698
-11.4614
-11.4916
-11.5571
-11.6624
-11.7907
-11.8929
-11.9273
-11.8843
-11.8247
-11.7833
-11.7205
-11.586
-11.4031
-11.2796
-11.1986
-11.1072
-11.0492
-11.0658
-11.0893
-11.1037
-11.1234
-11.1774
-11.2312
-11.2525
-11.2095
-11.1754
-11.187
-11.3745
-11.772
-12.1161
-12.4474
-12.8011
-13.0179
-13.0454
-12.9164
-12.6691
-12.3539
-12.0296
-11.7618
-11.6036
-11.5226
-11.4695
-11.4713
-11.5101
-11.5429
-11.5563
-11.5558
-11.5479
-11.5331
-11.5177
-11.5139
-11.5273
-11.5651
-11.6405
-11.6918
-11.6895
-11.5823
-11.4175
-11.2851
-11.1931
-11.1208
-11.0806
-11.0637
-11.0575
-11.0653
-11.0979
-11.1608
-11.2579
-11.3716
-11.4588
-11.5027
-11.4843
-11.3974
-11.2992
-11.2155
-11.1597
-12.1512
-12.1925
-12.1546
-12.1147
-12.1018
-12.1324
-12.1987
-12.2844
-12.3691
-12.4278
-12.4439
-12.4308
-12.4016
-12.3459
-12.2714
-12.1929
-12.0897
-11.9995
-11.8697
-11.723
-11.6703
-11.6776
-11.7132
-11.7561
-11.8049
-11.8566
-11.9143
-11.9809
-11.9993
-11.9849
-11.9934
-12.1529
-12.5077
-12.8107
-13.0817
-13.38
-13.5676
-13.5936
-13.4827
-13.2639
-12.9812
-12.6805
-12.4112
-12.2426
-12.1549
-12.0767
-12.0366
-12.0518
-12.0786
-12.0945
-12.104
-12.1048
-12.0969
-12.095
-12.1113
-12.1461
-12.2015
-12.2998
-12.4044
-12.4328
-12.3348
-12.1382
-11.9402
-11.7815
-11.6602
-11.5766
-11.5264
-11.5158
-11.5319
-11.5442
-11.6104
-11.7647
-11.9411
-12.0745
-12.132
-12.107
-12.02
-11.9361
-11.8631
-11.7922
-12.6869
-12.7104
-12.7326
-12.7465
-12.7782
-12.8371
-12.9015
-12.9429
-12.9669
-12.9783
-12.978
-12.9665
-12.929
-12.8621
-12.7755
-12.7025
-12.6808
-12.6409
-12.4987
-12.3428
-12.2834
-12.2992
-12.3325
-12.3574
-12.3809
-12.4437
-12.5341
-12.6245
-12.6788
-12.7015
-12.751
-12.8685
-13.1676
-13.4506
-13.6574
-13.8808
-14.045
-14.0963
-14.033
-13.8257
-13.5583
-13.2812
-13.0267
-12.8596
-12.7756
-12.6991
-12.6174
-12.5911
-12.6125
-12.6368
-12.6513
-12.6529
-12.6506
-12.6625
-12.6944
-12.7379
-12.7909
-12.8743
-12.994
-13.0453
-12.9607
-12.7501
-12.5264
-12.35
-12.2129
-12.1027
-12.0183
-11.9766
-11.976
-11.964
-12.0844
-12.2972
-12.5006
-12.6412
-12.7052
-12.6916
-12.6355
-12.5691
-12.4819
-12.3828
-13.2275
-13.2351
-13.3065
-13.3669
-13.4215
-13.4707
-13.5046
-13.5162
-13.5101
-13.4979
-13.4859
-13.471
-13.4344
-13.3661
-13.281
-13.2195
-13.2052
-13.1707
-13.0594
-12.9421
-12.9003
-12.9095
-12.9078
-12.9138
-12.9759
-13.1043
-13.2667
-13.3439
-13.3506
-13.3639
-13.4617
-13.5414
-13.8023
-14.0655
-14.2455
-14.4166
-14.5626
-14.6395
-14.593
-14.3947
-14.1249
-13.8515
-13.6154
-13.4684
-13.3944
-13.3298
-13.2217
-13.1513
-13.1525
-13.1842
-13.1976
-13.1966
-13.2041
-13.2373
-13.2871
-13.3285
-13.3581
-13.3973
-13.4603
-13.5122
-13.4457
-13.2686
-13.0799
-12.9151
-12.7719
-12.6441
-12.5287
-12.4453
-12.4088
-12.4298
-12.5817
-12.8138
-13.0281
-13.1623
-13.2265
-13.23
-13.1999
-13.1423
-13.0281
-12.9265
-13.7566
-13.7926
-13.883
-13.9449
-14.0088
-14.0574
-14.0769
-14.0757
-14.0591
-14.0356
-14.0102
-13.978
-13.9265
-13.8542
-13.7722
-13.7088
-13.6784
-13.6489
-13.5919
-13.5396
-13.5163
-13.5087
-13.4817
-13.499
-13.641
-13.8867
-14.1107
-14.1716
-14.1189
-14.0832
-14.1586
-14.2256
-14.4386
-14.6729
-14.8688
-15.019
-15.1427
-15.1909
-15.1125
-14.9079
-14.6431
-14.3807
-14.1714
-14.0523
-14.007
-13.9321
-13.8072
-13.7204
-13.7061
-13.7331
-13.7421
-13.7474
-13.7806
-13.8514
-13.9295
-13.9738
-13.9765
-13.9594
-13.955
-13.9522
-13.8915
-13.7695
-13.6288
-13.4795
-13.3346
-13.1973
-13.0596
-12.9411
-12.854
-12.9255
-13.1131
-13.3489
-13.5431
-13.6629
-13.717
-13.721
-13.6951
-13.6431
-13.5542
-13.4791
-14.2817
-14.3604
-14.4377
-14.4897
-14.5667
-14.6274
-14.6404
-14.6306
-14.6066
-14.5731
-14.533
-14.48
-14.4091
-14.322
-14.2395
-14.1753
-14.1485
-14.1447
-14.1186
-14.1155
-14.1286
-14.1194
-14.1146
-14.1815
-14.3382
-14.6119
-14.8121
-14.8571
-14.8384
-14.805
-14.8263
-14.8955
-15.0396
-15.2406
-15.4704
-15.6033
-15.6802
-15.674
-15.5512
-15.3375
-15.0953
-14.871
-14.7018
-14.6102
-14.5785
-14.4994
-14.3605
-14.2691
-14.2573
-14.2764
-14.2865
-14.316
-14.3874
-14.5009
-14.6095
-14.6616
-14.6453
-14.5887
-14.5269
-14.4717
-14.4004
-14.3043
-14.1872
-14.0502
-13.9039
-13.7665
-13.6187
-13.4785
-13.3988
-13.5006
-13.7087
-13.9263
-14.0761
-14.1478
-14.1723
-14.1529
-14.1203
-14.0989
-14.096
-14.0539
-14.8285
-14.9238
-14.9757
-15.0515
-15.1431
-15.2035
-15.1995
-15.1805
-15.1496
-15.1065
-15.0517
-14.9802
-14.8951
-14.8002
-14.723
-14.7012
-14.7091
-14.7155
-14.7063
-14.7271
-14.7302
-14.7423
-14.8028
-14.8667
-14.9771
-15.1627
-15.2929
-15.3576
-15.3786
-15.3733
-15.388
-15.4538
-15.5263
-15.7341
-15.9813
-16.0982
-16.1296
-16.077
-15.9143
-15.7123
-15.5155
-15.3419
-15.2145
-15.1431
-15.1024
-15.0239
-14.8865
-14.7989
-14.7933
-14.8119
-14.8335
-14.8934
-14.9978
-15.143
-15.2669
-15.3171
-15.3014
-15.2415
-15.1605
-15.0766
-14.9854
-14.8836
-14.7657
-14.6339
-14.4926
-14.3626
-14.2315
-14.1247
-14.1225
-14.2606
-14.4345
-14.5844
-14.6564
-14.6518
-14.6077
-14.5499
-14.5111
-14.5304
-14.5976
-14.5939
-15.3805
-15.4714
-15.5186
-15.6345
-15.7394
-15.7636
-15.734
-15.7085
-15.6737
-15.6258
-15.5628
-15.4888
-15.4074
-15.3204
-15.2803
-15.3079
-15.3384
-15.3293
-15.3227
-15.3179
-15.2872
-15.3058
-15.3765
-15.4141
-15.4777
-15.5835
-15.6869
-15.7476
-15.7758
-15.7776
-15.8092
-15.8305
-15.8607
-16.0981
-16.3405
-16.4472
-16.448
-16.3672
-16.2202
-16.0623
-15.9207
-15.8017
-15.7135
-15.6562
-15.6012
-15.521
-15.4033
-15.3315
-15.3308
-15.345
-15.3872
-15.467
-15.5914
-15.751
-15.8707
-15.9159
-15.9099
-15.8659
-15.7957
-15.7089
-15.6073
-15.4935
-15.368
-15.2374
-15.1119
-15.0065
-14.9217
-14.8933
-14.9745
-15.1043
-15.2204
-15.2813
-15.285
-15.2198
-15.1112
-15.0234
-14.9737
-14.9803
-15.0462
-15.0701
-15.9164
-15.9888
-16.0657
-16.1889
-16.293
-16.2664
-16.2317
-16.2036
-16.1696
-16.1232
-16.0643
-16.0055
-15.9431
-15.8738
-15.8661
-15.892
-15.8972
-15.8773
-15.8701
-15.8345
-15.7865
-15.7878
-15.8264
-15.8704
-15.9228
-15.9958
-16.0565
-16.0896
-16.1024
-16.097
-16.1082
-16.0661
-16.0844
-16.2923
-16.5119
-16.6187
-16.6287
-16.5712
-16.4906
-16.4039
-16.3242
-16.2554
-16.2014
-16.1585
-16.1016
-16.0297
-15.941
-15.8907
-15.8847
-15.8807
-15.9404
-16.0337
-16.167
-16.3315
-16.4406
-16.4874
-16.4866
-16.4567
-16.4067
-16.3345
-16.2358
-16.1186
-15.992
-15.8671
-15.7673
-15.6975
-15.676
-15.7271
-15.8333
-15.9254
-15.9514
-15.9452
-15.9054
-15.8135
-15.6866
-15.5873
-15.5341
-15.5061
-15.5265
-15.5368
-16.4268
-16.476
-16.5812
-16.6846
-16.7317
-16.7009
-16.6693
-16.6419
-16.6076
-16.5674
-16.5316
-16.5137
-16.4796
-16.4216
-16.4054
-16.4011
-16.3909
-16.3855
-16.3704
-16.3279
-16.2985
-16.308
-16.3466
-16.3769
-16.4085
-16.4367
-16.4417
-16.4358
-16.4269
-16.4075
-16.3811
-16.3162
-16.3103
-16.4444
-16.6186
-16.7316
-16.779
-16.7865
-16.7781
-16.7611
-16.7361
-16.7094
-16.6898
-16.6734
-16.6409
-16.5834
-16.5213
-16.4772
-16.4413
-16.4236
-16.4863
-16.5863
-16.7256
-16.9023
-17.004
-17.0541
-17.0547
-17.0367
-17.0045
-16.9478
-16.8565
-16.7436
-16.6234
-16.5145
-16.4399
-16.4057
-16.4445
-16.5332
-16.6271
-16.6733
-16.6369
-16.5743
-16.5037
-16.3975
-16.2527
-16.132
-16.0718
-16.056
-16.0549
-16.0279
-16.9002
-16.9436
-17.0352
-17.0979
-17.1079
-17.1041
-17.0716
-17.0107
-16.9607
-16.9379
-16.9541
-16.9909
-16.9837
-16.937
-16.8914
-16.8844
-16.8763
-16.882
-16.8787
-16.8608
-16.8604
-16.8875
-16.9202
-16.9375
-16.9414
-16.9244
-16.8844
-16.8363
-16.8008
-16.7726
-16.7321
-16.6627
-16.64
-16.7115
-16.8289
-16.9353
-17.0144
-17.0732
-17.119
-17.1461
-17.1606
-17.1747
-17.206
-17.2399
-17.2398
-17.1909
-17.1377
-17.0745
-16.9912
-16.9771
-17.0329
-17.1342
-17.285
-17.4549
-17.5666
-17.6165
-17.6198
-17.6103
-17.5868
-17.5353
-17.4506
-17.3479
-17.2397
-17.1503
-17.0896
-17.077
-17.1497
-17.229
-17.3067
-17.3185
-17.2506
-17.1429
-17.059
-16.9624
-16.8056
-16.6432
-16.5548
-16.5441
-16.5424
-16.5123
-17.3418
-17.3855
-17.4558
-17.4942
-17.521
-17.5506
-17.528
-17.4706
-17.4173
-17.4008
-17.4272
-17.4834
-17.4761
-17.4486
-17.4378
-17.4296
-17.4008
-17.3862
-17.4034
-17.4276
-17.4575
-17.4965
-17.5248
-17.5351
-17.5073
-17.4503
-17.3772
-17.2969
-17.249
-17.2162
-17.1808
-17.1211
-17.0932
-17.1187
-17.1844
-17.2668
-17.3592
-17.4466
-17.5115
-17.5562
-17.5981
-17.6765
-17.7685
-17.8305
-17.8386
-17.8063
-17.7486
-17.6446
-17.5437
-17.5373
-17.584
-17.6817
-17.8335
-18.0029
-18.1221
-18.1663
-18.1705
-18.1589
-18.1303
-18.0781
-18.0032
-17.9147
-17.8211
-17.7452
-17.6821
-17.6615
-17.7234
-17.7853
-17.8463
-17.8485
-17.7782
-17.6621
-17.5783
-17.5011
-17.3472
-17.158
-17.0334
-16.9986
-16.9932
-16.9886
-17.7704
-17.8174
-17.8787
-17.9119
-17.9621
-18.0124
-18.0295
-18.031
-18.043
-18.0418
-18.0377
-18.0468
-18.0347
-18.0197
-18.0395
-18.0348
-17.9827
-17.9258
-17.9279
-17.9795
-18.0464
-18.1239
-18.1673
-18.1615
-18.0966
-18.0033
-17.9
-17.7901
-17.7282
-17.7116
-17.6988
-17.6602
-17.6287
-17.6168
-17.6437
-17.7125
-17.7985
-17.8753
-17.9341
-17.9873
-18.0704
-18.2081
-18.3322
-18.383
-18.3904
-18.378
-18.3147
-18.184
-18.1016
-18.0971
-18.1339
-18.2225
-18.3718
-18.541
-18.66
-18.6983
-18.6962
-18.6725
-18.6313
-18.5782
-18.5156
-18.4426
-18.3646
-18.2917
-18.2141
-18.1604
-18.1764
-18.2359
-18.2753
-18.2919
-18.2389
-18.1597
-18.0835
-18.0064
-17.87
-17.6852
-17.5488
-17.5003
-17.5064
-17.5197
-18.1947
-18.242
-18.3153
-18.3622
-18.4115
-18.4621
-18.5113
-18.5551
-18.5995
-18.6303
-18.6444
-18.6335
-18.6355
-18.6553
-18.6848
-18.6658
-18.602
-18.5197
-18.4785
-18.5108
-18.5984
-18.7249
-18.8006
-18.7954
-18.7014
-18.584
-18.4763
-18.3706
-18.2739
-18.2324
-18.2418
-18.236
-18.2097
-18.1808
-18.1812
-18.2185
-18.2745
-18.3308
-18.3842
-18.4504
-18.5769
-18.7314
-18.8362
-18.8853
-18.9133
-18.9042
-18.8258
-18.7161
-18.662
-18.6521
-18.6783
-18.7536
-18.8982
-19.0652
-19.1812
-19.2153
-19.2011
-19.1642
-19.1166
-19.06
-19.0057
-18.9446
-18.877
-18.803
-18.7127
-18.6295
-18.6119
-18.6675
-18.6905
-18.7095
-18.6969
-18.6535
-18.5855
-18.4995
-18.3848
-18.2252
-18.1117
-18.0757
-18.0929
-18.1125
-18.6231
-18.6669
-18.7564
-18.8264
-18.8692
-18.9205
-18.9726
-19.0288
-19.0759
-19.1137
-19.1447
-19.1586
-19.1836
-19.248
-19.294
-19.2588
-19.1943
-19.1356
-19.0818
-19.078
-19.1383
-19.2494
-19.3297
-19.3225
-19.2557
-19.1667
-19.0902
-19.0085
-18.9258
-18.8624
-18.8312
-18.8175
-18.7846
-18.7449
-18.7228
-18.7282
-18.7594
-18.8051
-18.8588
-18.9515
-19.0841
-19.2208
-19.3009
-19.3589
-19.4018
-19.3936
-19.3182
-19.2496
-19.214
-19.1994
-19.2146
-19.2762
-19.41
-19.5706
-19.6834
-19.7118
-19.6905
-19.6499
-19.6046
-19.547
-19.4899
-19.4332
-19.368
-19.2957
-19.2073
-19.1157
-19.1008
-19.1383
-19.1513
-19.1601
-19.1703
-19.1466
-19.077
-18.9972
-18.907
-18.8294
-18.7694
-18.7274
-18.7256
-18.7307
-19.0717
-19.1161
-19.2049
-19.284
-19.3357
-19.39
-19.4492
-19.514
-19.5721
-19.615
-19.6356
-19.6451
-19.6723
-19.7343
-19.7812
-19.7568
-19.7145
-19.6976
-19.6826
-19.6838
-19.6938
-19.7151
-19.7404
-19.7427
-19.7249
-19.699
-19.6793
-19.6573
-19.6207
-19.5661
-19.4793
-19.388
-19.3119
-19.2537
-19.2181
-19.2105
-19.2431
-19.2973
-19.3859
-19.4856
-19.5886
-19.6866
-19.7604
-19.819
-19.8595
-19.8605
-19.8235
-19.7846
-19.7535
-19.7344
-19.7384
-19.7862
-19.9015
-20.0509
-20.1558
-20.1832
-20.1682
-20.1364
-20.0962
-20.0413
-19.9778
-19.914
-19.8485
-19.785
-19.7155
-19.6439
-19.6318
-19.6444
-19.6437
-19.6435
-19.6447
-19.6157
-19.5535
-19.4901
-19.4588
-19.4788
-19.4971
-19.4634
-19.4087
-19.3666
-19.5476
-19.5878
-19.6698
-19.7504
-19.8077
-19.8687
-19.9526
-20.0353
-20.1018
-20.154
-20.1744
-20.1658
-20.1632
-20.1845
-20.2097
-20.2099
-20.2012
-20.2039
-20.2231
-20.2344
-20.2172
-20.1662
-20.1451
-20.1632
-20.1763
-20.191
-20.2085
-20.2353
-20.2545
-20.213
-20.0885
-19.931
-19.8137
-19.738
-19.6943
-19.6897
-19.7416
-19.8485
-19.9823
-20.0524
-20.1143
-20.176
-20.2277
-20.2697
-20.3085
-20.3332
-20.3343
-20.3112
-20.2782
-20.252
-20.2441
-20.2758
-20.3687
-20.5025
-20.6018
-20.6395
-20.6391
-20.6222
-20.5881
-20.5343
-20.4676
-20.3911
-20.3236
-20.2744
-20.2351
-20.2028
-20.1815
-20.1723
-20.1489
-20.1241
-20.0974
-20.0561
-20.0218
-19.9979
-20.003
-20.0953
-20.1768
-20.1831
-20.0746
-19.9956
-20.04
-20.0738
-20.1444
-20.2244
-20.2891
-20.3704
-20.4761
-20.5725
-20.6508
-20.7027
-20.7248
-20.7167
-20.6917
-20.6803
-20.6915
-20.7025
-20.7013
-20.7036
-20.7151
-20.7169
-20.6896
-20.6359
-20.6209
-20.6319
-20.653
-20.679
-20.7083
-20.7454
-20.7801
-20.7409
-20.6146
-20.4575
-20.3323
-20.2437
-20.1873
-20.1943
-20.2963
-20.4785
-20.6287
-20.6509
-20.6724
-20.6995
-20.7076
-20.7336
-20.7732
-20.8194
-20.8384
-20.8213
-20.7844
-20.7492
-20.7298
-20.7452
-20.8155
-20.9316
-21.029
-21.0812
-21.0987
-21.0978
-21.0693
-21.0167
-20.9463
-20.8621
-20.7863
-20.752
-20.7527
-20.7483
-20.7201
-20.691
-20.6516
-20.5865
-20.5382
-20.5244
-20.5238
-20.5364