/*--------------------------------*- C++ -*----------------------------------*\
| =========                 |                                                 |
| \\      /  F ield         | OpenFOAM: The Open Source CFD Toolbox           |
|  \\    /   O peration     | Version:  2412                                  |
|   \\  /    A nd           | Website:  www.openfoam.com                      |
|    \\/     M anipulation  |                                                 |
\*---------------------------------------------------------------------------*/
FoamFile
{
    version     2.0;
    format      ascii;
    arch        "LSB;label=32;scalar=64";
    class       volVectorField;
    location    "9.45";
    object      U;
}
// * * * * * * * * * * * * * * * * * * * * * * * * * * * * * * * * * * * * * //

dimensions      [0 1 -1 0 0 0 0];

internalField   nonuniform List<vector> 
6400
(
(0.000955489 -0.000955586 0)
(0.00228457 -0.000841079 0)
(0.00349869 -0.000800558 0)
(0.00478255 -0.000750858 0)
(0.00602819 -0.000668428 0)
(0.00711768 -0.000551157 0)
(0.00795077 -0.000414641 0)
(0.00845089 -0.00026208 0)
(0.00860323 -0.000103785 0)
(0.00841936 5.23341e-05 0)
(0.00791118 0.000199139 0)
(0.00711661 0.000328543 0)
(0.00608935 0.000440004 0)
(0.00488001 0.000529916 0)
(0.00352914 0.000607404 0)
(0.00209025 0.000656923 0)
(0.000617246 0.000684608 0)
(-0.000841777 0.000693095 0)
(-0.00224846 0.000681904 0)
(-0.00356848 0.000653824 0)
(-0.00476805 0.000606199 0)
(-0.00582073 0.000543614 0)
(-0.00670336 0.00047305 0)
(-0.00740107 0.000395908 0)
(-0.00790774 0.000313117 0)
(-0.00822659 0.000226049 0)
(-0.00836396 0.000140575 0)
(-0.00832872 5.72634e-05 0)
(-0.00813221 -2.01334e-05 0)
(-0.00778711 -8.9776e-05 0)
(-0.00731253 -0.000150078 0)
(-0.00672974 -0.000200601 0)
(-0.00605852 -0.00024233 0)
(-0.00531633 -0.000276682 0)
(-0.00451928 -0.000302642 0)
(-0.00368337 -0.000320432 0)
(-0.00282357 -0.000331058 0)
(-0.00195244 -0.000335747 0)
(-0.00107972 -0.00033566 0)
(-0.000214959 -0.000332239 0)
(0.000635685 -0.000323651 0)
(0.00146547 -0.00031087 0)
(0.00226412 -0.000294489 0)
(0.00302448 -0.000274601 0)
(0.00374131 -0.000251627 0)
(0.00440783 -0.000224392 0)
(0.00501426 -0.000190851 0)
(0.00555131 -0.000152062 0)
(0.00601249 -0.000111437 0)
(0.00639155 -6.44479e-05 0)
(0.00668099 -1.44527e-05 0)
(0.00687168 4.00863e-05 0)
(0.00695043 0.000102648 0)
(0.00690898 0.000171908 0)
(0.0067367 0.000237791 0)
(0.00642158 0.000303701 0)
(0.00596096 0.000367872 0)
(0.0053531 0.000427472 0)
(0.00460108 0.000481887 0)
(0.00371542 0.000528524 0)
(0.00271143 0.000563129 0)
(0.00160834 0.000582939 0)
(0.000430605 0.00058795 0)
(-0.000791464 0.000577961 0)
(-0.00202501 0.000551635 0)
(-0.00323546 0.000507942 0)
(-0.00438105 0.000447036 0)
(-0.00541956 0.000366644 0)
(-0.0063076 0.000268715 0)
(-0.00699884 0.000157442 0)
(-0.00744853 2.83031e-05 0)
(-0.0076247 -0.000106879 0)
(-0.0074986 -0.000252763 0)
(-0.00706034 -0.000385179 0)
(-0.00634151 -0.000508275 0)
(-0.00539805 -0.000605916 0)
(-0.00431036 -0.000683841 0)
(-0.00317637 -0.000736989 0)
(-0.00209736 -0.000784188 0)
(-0.000894504 -0.000894859 0)
(0.000862965 -0.00229698 0)
(0.00165255 -0.00165751 0)
(0.00261462 -0.00173625 0)
(0.0038652 -0.00180653 0)
(0.0052206 -0.0016813 0)
(0.00646481 -0.00136934 0)
(0.00741505 -0.000916552 0)
(0.0079462 -0.000382254 0)
(0.0080219 0.000176174 0)
(0.00766407 0.000708595 0)
(0.00689595 0.00118919 0)
(0.00578019 0.00158422 0)
(0.00440084 0.00189371 0)
(0.00283928 0.00212023 0)
(0.00114445 0.00227228 0)
(-0.000617147 0.00234089 0)
(-0.00236677 0.00232568 0)
(-0.00405211 0.00224155 0)
(-0.00562358 0.00210109 0)
(-0.00704871 0.001914 0)
(-0.00830137 0.00167972 0)
(-0.00935399 0.00140819 0)
(-0.0101896 0.00111437 0)
(-0.0108007 0.000809821 0)
(-0.0111859 0.000503822 0)
(-0.0113488 0.000203702 0)
(-0.0113002 -8.15625e-05 0)
(-0.0110568 -0.000348916 0)
(-0.0106357 -0.000593024 0)
(-0.0100556 -0.00080855 0)
(-0.00933932 -0.000990259 0)
(-0.00851062 -0.00113792 0)
(-0.00759178 -0.00125513 0)
(-0.00660358 -0.00134709 0)
(-0.00556262 -0.00141377 0)
(-0.00448476 -0.00145596 0)
(-0.00338436 -0.0014772 0)
(-0.0022744 -0.00148026 0)
(-0.00116493 -0.00147294 0)
(-6.34759e-05 -0.00145778 0)
(0.00102395 -0.00142833 0)
(0.00208823 -0.00138508 0)
(0.00311624 -0.0013302 0)
(0.00409962 -0.00126632 0)
(0.00503352 -0.00119528 0)
(0.00591351 -0.00111373 0)
(0.00673088 -0.00101632 0)
(0.00747846 -0.000906033 0)
(0.00815353 -0.000792263 0)
(0.00875069 -0.00066519 0)
(0.00926219 -0.000525145 0)
(0.00967716 -0.000367704 0)
(0.00997998 -0.00018385 0)
(0.0101494 2.16678e-05 0)
(0.0101711 0.000238068 0)
(0.0100362 0.00046605 0)
(0.00973284 0.00070175 0)
(0.00925159 0.000938418 0)
(0.00858848 0.0011704 0)
(0.00774615 0.00138824 0)
(0.00673242 0.00158156 0)
(0.00556206 0.00174169 0)
(0.00425654 0.00186233 0)
(0.0028438 0.00193776 0)
(0.0013587 0.00196159 0)
(-0.000154797 0.00192449 0)
(-0.00164272 0.00181976 0)
(-0.00304596 0.00164193 0)
(-0.00430275 0.00139028 0)
(-0.00535214 0.00106294 0)
(-0.00611141 0.000661385 0)
(-0.00652271 0.000201275 0)
(-0.00652964 -0.000291016 0)
(-0.00612021 -0.000761219 0)
(-0.00536345 -0.00115966 0)
(-0.00435519 -0.0014316 0)
(-0.00324025 -0.00154578 0)
(-0.00220798 -0.00149994 0)
(-0.00144155 -0.00145256 0)
(-0.000802437 -0.00210807 0)
(0.000925641 -0.00359374 0)
(0.00196853 -0.00266636 0)
(0.00341375 -0.00308371 0)
(0.00524037 -0.00340772 0)
(0.00720975 -0.00328969 0)
(0.00904778 -0.00276954 0)
(0.0105216 -0.00193184 0)
(0.0114684 -0.000918425 0)
(0.0118395 0.000146443 0)
(0.011677 0.00116055 0)
(0.0110168 0.00206439 0)
(0.00992623 0.00280773 0)
(0.0085138 0.00337804 0)
(0.00687268 0.00379096 0)
(0.00507649 0.00405254 0)
(0.00319491 0.0041698 0)
(0.00129919 0.00413413 0)
(-0.000547761 0.00396719 0)
(-0.00228749 0.00369947 0)
(-0.00388004 0.00335481 0)
(-0.00529832 0.00293861 0)
(-0.00651741 0.00246165 0)
(-0.00751898 0.00194374 0)
(-0.00829132 0.00140757 0)
(-0.00883333 0.000873799 0)
(-0.00915005 0.000356729 0)
(-0.00925045 -0.000132172 0)
(-0.00915016 -0.000585557 0)
(-0.00887051 -0.000998533 0)
(-0.00843146 -0.00136378 0)
(-0.00785497 -0.00167373 0)
(-0.00716333 -0.00192633 0)
(-0.00637895 -0.00212602 0)
(-0.00552648 -0.00228059 0)
(-0.00462067 -0.00239537 0)
(-0.00367497 -0.00247122 0)
(-0.00269936 -0.00251366 0)
(-0.00170666 -0.00252801 0)
(-0.000712511 -0.00252281 0)
(0.000276811 -0.00249924 0)
(0.00125251 -0.00245077 0)
(0.00220204 -0.00237597 0)
(0.0031137 -0.00227888 0)
(0.00397939 -0.00216562 0)
(0.00479415 -0.00204044 0)
(0.00555424 -0.00189956 0)
(0.00625409 -0.00173567 0)
(0.00688905 -0.00155318 0)
(0.00745293 -0.00136201 0)
(0.00793646 -0.00115393 0)
(0.00833195 -0.000920834 0)
(0.00862845 -0.00065599 0)
(0.00880987 -0.000350275 0)
(0.00885869 -9.84931e-06 0)
(0.00875943 0.000360627 0)
(0.00849945 0.000755604 0)
(0.00806702 0.00116892 0)
(0.0074519 0.00159079 0)
(0.00664873 0.00200858 0)
(0.0056592 0.0024061 0)
(0.00449074 0.00276803 0)
(0.00315663 0.00307944 0)
(0.00167882 0.0033259 0)
(8.98203e-05 0.00349053 0)
(-0.00157131 0.00355777 0)
(-0.00325428 0.00351043 0)
(-0.00489433 0.00333389 0)
(-0.00642382 0.00301952 0)
(-0.00777505 0.00256215 0)
(-0.00886491 0.00193812 0)
(-0.00958243 0.00117978 0)
(-0.00985191 0.000282306 0)
(-0.00962399 -0.0006622 0)
(-0.00887482 -0.00156724 0)
(-0.00766702 -0.00231177 0)
(-0.00611866 -0.00278447 0)
(-0.00443493 -0.00289483 0)
(-0.00289279 -0.00260538 0)
(-0.00170444 -0.00224939 0)
(-0.000854251 -0.00325261 0)
(0.00102414 -0.0051926 0)
(0.0024857 -0.0041795 0)
(0.00452623 -0.00504298 0)
(0.0070105 -0.00565492 0)
(0.00963194 -0.00552039 0)
(0.0120425 -0.0047058 0)
(0.0139736 -0.00337907 0)
(0.0152434 -0.00176962 0)
(0.015814 -8.38205e-05 0)
(0.0157482 0.00151136 0)
(0.0151118 0.00291895 0)
(0.0139866 0.00407606 0)
(0.0124898 0.00495431 0)
(0.0107312 0.00557653 0)
(0.00880346 0.00597061 0)
(0.00678445 0.00614649 0)
(0.00473858 0.00610574 0)
(0.00272701 0.00586684 0)
(0.000819642 0.00547313 0)
(-0.000933191 0.00496098 0)
(-0.00250041 0.00435359 0)
(-0.00385649 0.0036635 0)
(-0.00498586 0.00291822 0)
(-0.00587766 0.00214717 0)
(-0.00653186 0.00137861 0)
(-0.00695328 0.000634613 0)
(-0.00715211 -6.6799e-05 0)
(-0.00714821 -0.000712235 0)
(-0.00696637 -0.00129415 0)
(-0.00663068 -0.00180645 0)
(-0.00616616 -0.00224067 0)
(-0.0055937 -0.00259382 0)
(-0.00493384 -0.00287345 0)
(-0.00421565 -0.00308787 0)
(-0.00345237 -0.00324657 0)
(-0.00265341 -0.00335616 0)
(-0.001829 -0.0034214 0)
(-0.000987845 -0.00344952 0)
(-0.000148128 -0.00344422 0)
(0.000679737 -0.00340581 0)
(0.00148879 -0.00333426 0)
(0.00226988 -0.00322716 0)
(0.00301537 -0.00308907 0)
(0.0037191 -0.00292885 0)
(0.00437685 -0.00275337 0)
(0.00498639 -0.00255871 0)
(0.00554739 -0.00233646 0)
(0.0060571 -0.00209035 0)
(0.00650328 -0.00182328 0)
(0.00687253 -0.00153237 0)
(0.00715824 -0.00120744 0)
(0.00734827 -0.000834054 0)
(0.00742433 -0.00040437 0)
(0.00736978 7.87783e-05 0)
(0.0071682 0.000606325 0)
(0.00680381 0.00117209 0)
(0.0062623 0.00176818 0)
(0.00553159 0.0023815 0)
(0.00460474 0.0029927 0)
(0.00348212 0.00357921 0)
(0.00216961 0.00411907 0)
(0.00068041 0.0045898 0)
(-0.000963391 0.00496895 0)
(-0.00272609 0.00522675 0)
(-0.00456078 0.00533489 0)
(-0.00641147 0.00526878 0)
(-0.00820989 0.00500591 0)
(-0.00988169 0.00452757 0)
(-0.0113528 0.00381747 0)
(-0.0125078 0.00284913 0)
(-0.0132326 0.00163846 0)
(-0.0134439 0.000209974 0)
(-0.0130633 -0.00130653 0)
(-0.0120481 -0.00275818 0)
(-0.0104237 -0.00395706 0)
(-0.00833557 -0.00470816 0)
(-0.00604447 -0.00483601 0)
(-0.0039023 -0.00426351 0)
(-0.00216453 -0.00350375 0)
(-0.000935693 -0.00467533 0)
(0.00114563 -0.00710237 0)
(0.00306949 -0.00621029 0)
(0.00577998 -0.00765219 0)
(0.00901035 -0.00857764 0)
(0.0123287 -0.00835643 0)
(0.0152747 -0.00711517 0)
(0.0175392 -0.00514567 0)
(0.0189656 -0.00279244 0)
(0.0195492 -0.000368047 0)
(0.0193871 0.00188641 0)
(0.0185917 0.00385247 0)
(0.0172812 0.00546195 0)
(0.0155873 0.00667993 0)
(0.0136203 0.00752541 0)
(0.0114831 0.00804976 0)
(0.00926775 0.0082832 0)
(0.00704084 0.00823843 0)
(0.00486257 0.00792734 0)
(0.00279764 0.00740069 0)
(0.000904485 0.00670622 0)
(-0.000776784 0.005887 0)
(-0.0022249 0.00496825 0)
(-0.00342403 0.00398145 0)
(-0.00437049 0.00296322 0)
(-0.00506568 0.00195 0)
(-0.00551469 0.000971647 0)
(-0.0057345 5.29044e-05 0)
(-0.0057497 -0.000786428 0)
(-0.00558821 -0.00153243 0)
(-0.00527825 -0.0021808 0)
(-0.00485243 -0.00272873 0)
(-0.00433596 -0.0031736 0)
(-0.003744 -0.0035222 0)
(-0.0031011 -0.00378563 0)
(-0.00242661 -0.00397673 0)
(-0.00173322 -0.00411024 0)
(-0.00103041 -0.00419075 0)
(-0.000324228 -0.00422215 0)
(0.000372213 -0.00420652 0)
(0.00104833 -0.00414724 0)
(0.00169918 -0.00404909 0)
(0.00232155 -0.00391093 0)
(0.00291137 -0.00373617 0)
(0.00346538 -0.00353619 0)
(0.00398248 -0.00331946 0)
(0.00446303 -0.0030825 0)
(0.00491059 -0.00281844 0)
(0.00532531 -0.00252437 0)
(0.00569388 -0.00219227 0)
(0.00599924 -0.00182517 0)
(0.00623154 -0.00141408 0)
(0.00637404 -0.000936281 0)
(0.00640635 -0.0003853 0)
(0.00631211 0.0002369 0)
(0.00607242 0.000922097 0)
(0.00566848 0.00166225 0)
(0.00508176 0.00244748 0)
(0.00429606 0.00326162 0)
(0.00330013 0.00407823 0)
(0.00208986 0.00486789 0)
(0.000667588 0.00560165 0)
(-0.000953535 0.00624971 0)
(-0.00275101 0.00677355 0)
(-0.00468594 0.00713408 0)
(-0.00670426 0.00728846 0)
(-0.00874692 0.00720373 0)
(-0.0107465 0.00684864 0)
(-0.0126265 0.00619458 0)
(-0.0142916 0.00520454 0)
(-0.0156317 0.0038599 0)
(-0.0165251 0.00214006 0)
(-0.0168512 0.000112092 0)
(-0.0164971 -0.00207862 0)
(-0.0153581 -0.00422897 0)
(-0.0134224 -0.00604139 0)
(-0.0108359 -0.00719774 0)
(-0.00790178 -0.00739716 0)
(-0.00505952 -0.00652521 0)
(-0.00268776 -0.00523704 0)
(-0.00104132 -0.00638745 0)
(0.00129683 -0.00940422 0)
(0.00382036 -0.00888835 0)
(0.00742583 -0.0110455 0)
(0.0116296 -0.0122872 0)
(0.0157852 -0.0118362 0)
(0.0192802 -0.00994355 0)
(0.021767 -0.00708911 0)
(0.023144 -0.00379213 0)
(0.0234994 -0.000493433 0)
(0.0230105 0.00249676 0)
(0.0218465 0.00504513 0)
(0.0201727 0.00711478 0)
(0.0181356 0.00867297 0)
(0.0158418 0.0097354 0)
(0.0133967 0.0103735 0)
(0.0109027 0.0106448 0)
(0.00843292 0.0105692 0)
(0.00604692 0.0101637 0)
(0.00380749 0.00947896 0)
(0.00176924 0.00857788 0)
(-2.33382e-05 0.00751663 0)
(-0.00154567 0.00633905 0)
(-0.00278496 0.0050851 0)
(-0.00374302 0.00379862 0)
(-0.00442799 0.00252623 0)
(-0.00485107 0.00130217 0)
(-0.00503623 0.00015774 0)
(-0.00500989 -0.000878196 0)
(-0.00480273 -0.00178567 0)
(-0.00445379 -0.00256024 0)
(-0.0040006 -0.00320851 0)
(-0.00346992 -0.00373042 0)
(-0.00288282 -0.00413315 0)
(-0.00226147 -0.00442792 0)
(-0.00162514 -0.00463373 0)
(-0.000992448 -0.00477045 0)
(-0.000373364 -0.00484697 0)
(0.000228784 -0.00486597 0)
(0.0008065 -0.00482802 0)
(0.00135417 -0.00474142 0)
(0.00187178 -0.00461359 0)
(0.00236038 -0.0044463 0)
(0.00281904 -0.00424155 0)
(0.00324935 -0.00401334 0)
(0.00365632 -0.00376604 0)
(0.00404099 -0.00349944 0)
(0.0044083 -0.0032116 0)
(0.00476141 -0.00288909 0)
(0.00508901 -0.00251253 0)
(0.0053721 -0.00208465 0)
(0.00559895 -0.0015942 0)
(0.00574937 -0.00102088 0)
(0.00579688 -0.000354531 0)
(0.00572407 0.000401735 0)
(0.00550789 0.00124405 0)
(0.00512281 0.00216331 0)
(0.00454469 0.00314757 0)
(0.00375146 0.00417812 0)
(0.00272521 0.0052214 0)
(0.00145508 0.00624023 0)
(-5.8713e-05 0.00719695 0)
(-0.00180623 0.00805127 0)
(-0.00376286 0.00874679 0)
(-0.00588673 0.00923146 0)
(-0.00812286 0.00944827 0)
(-0.0104088 0.00936196 0)
(-0.0126783 0.00893079 0)
(-0.0148621 0.00811443 0)
(-0.0168547 0.00686127 0)
(-0.018546 0.00512036 0)
(-0.0198083 0.00287615 0)
(-0.020472 0.00018575 0)
(-0.0203659 -0.00280486 0)
(-0.0192859 -0.00584135 0)
(-0.0171389 -0.00851049 0)
(-0.0140419 -0.0102797 0)
(-0.0103207 -0.0106854 0)
(-0.00656156 -0.00952376 0)
(-0.00337844 -0.00757329 0)
(-0.0011933 -0.00844174 0)
(0.00150467 -0.0122354 0)
(0.00490321 -0.0124583 0)
(0.0097683 -0.0155168 0)
(0.0152592 -0.017021 0)
(0.0204372 -0.0160594 0)
(0.0245011 -0.0131264 0)
(0.0270746 -0.00902745 0)
(0.0281599 -0.00452815 0)
(0.0280065 -0.000207692 0)
(0.0269204 0.00357732 0)
(0.0251601 0.00671385 0)
(0.0229373 0.00921011 0)
(0.0204028 0.0110721 0)
(0.0176587 0.0123253 0)
(0.0148032 0.0130488 0)
(0.0119364 0.0133169 0)
(0.00914003 0.0131638 0)
(0.00647877 0.0126203 0)
(0.00401474 0.0117396 0)
(0.00180245 0.0105897 0)
(-0.000118136 0.009246 0)
(-0.00172029 0.00776526 0)
(-0.00299155 0.00620281 0)
(-0.00393768 0.00461634 0)
(-0.00457504 0.00306106 0)
(-0.00492741 0.00157487 0)
(-0.00502411 0.000194038 0)
(-0.00489704 -0.00104483 0)
(-0.00458337 -0.00211575 0)
(-0.00413021 -0.00301243 0)
(-0.00358143 -0.00374462 0)
(-0.0029726 -0.00432464 0)
(-0.00233233 -0.00476248 0)
(-0.00168174 -0.00506822 0)
(-0.00104093 -0.00526575 0)
(-0.000429253 -0.00538003 0)
(0.0001428 -0.00542827 0)
(0.000674021 -0.00541764 0)
(0.001162 -0.00535 0)
(0.00160843 -0.00522982 0)
(0.00202007 -0.00506938 0)
(0.00240159 -0.004874 0)
(0.00275514 -0.00464733 0)
(0.00309238 -0.00439527 0)
(0.00342372 -0.0041276 0)
(0.00374521 -0.00384964 0)
(0.00406421 -0.00355257 0)
(0.00438975 -0.00321738 0)
(0.00471203 -0.00282342 0)
(0.00501275 -0.00235642 0)
(0.0052787 -0.00180144 0)
(0.00548653 -0.00114565 0)
(0.00560435 -0.000371927 0)
(0.0056102 0.000516237 0)
(0.00547341 0.00151725 0)
(0.00515581 0.0026253 0)
(0.00462706 0.00382543 0)
(0.00385894 0.00509643 0)
(0.00282532 0.006398 0)
(0.00150798 0.00768405 0)
(-9.52283e-05 0.00890325 0)
(-0.00197416 0.0100008 0)
(-0.00410608 0.0109094 0)
(-0.00645107 0.0115569 0)
(-0.00895351 0.0118712 0)
(-0.0115521 0.0118215 0)
(-0.0141825 0.011356 0)
(-0.0167764 0.0104169 0)
(-0.019249 0.00894409 0)
(-0.0214901 0.00684676 0)
(-0.0233457 0.00408627 0)
(-0.0246052 0.000680641 0)
(-0.0250026 -0.00326624 0)
(-0.0242102 -0.0074478 0)
(-0.0219872 -0.0113158 0)
(-0.0183447 -0.0140585 0)
(-0.0136532 -0.0149348 0)
(-0.00869825 -0.013527 0)
(-0.00436341 -0.0107257 0)
(-0.00138499 -0.010967 0)
(0.00178268 -0.0158082 0)
(0.00639497 -0.0172935 0)
(0.0129417 -0.0214721 0)
(0.0200532 -0.0230711 0)
(0.0263977 -0.0211375 0)
(0.0309825 -0.0165917 0)
(0.0334687 -0.0107545 0)
(0.034022 -0.00472374 0)
(0.0330948 0.000773535 0)
(0.031176 0.00537637 0)
(0.0286221 0.00906707 0)
(0.0256848 0.0119187 0)
(0.0225237 0.0140151 0)
(0.0192219 0.0154076 0)
(0.0158591 0.0161746 0)
(0.0125315 0.0163849 0)
(0.00932559 0.0161035 0)
(0.00631384 0.0153627 0)
(0.00355917 0.0142268 0)
(0.00112282 0.0127764 0)
(-0.000953872 0.0110941 0)
(-0.0026506 0.00925301 0)
(-0.00395276 0.00732523 0)
(-0.00486912 0.00539048 0)
(-0.00542752 0.00351632 0)
(-0.00566263 0.00173978 0)
(-0.00561319 0.000105419 0)
(-0.00532317 -0.00134732 0)
(-0.00483954 -0.00258664 0)
(-0.00421477 -0.00359993 0)
(-0.00350355 -0.00440223 0)
(-0.00275447 -0.00501704 0)
(-0.00200324 -0.00546311 0)
(-0.00127686 -0.00575393 0)
(-0.000595055 -0.00591414 0)
(2.49733e-05 -0.00597978 0)
(0.000573501 -0.00597328 0)
(0.00105387 -0.00590701 0)
(0.00147533 -0.00579009 0)
(0.00184525 -0.00562499 0)
(0.00217094 -0.00542878 0)
(0.00246137 -0.00520699 0)
(0.00273112 -0.00496485 0)
(0.00299498 -0.00470326 0)
(0.00325904 -0.00443682 0)
(0.00353579 -0.00416278 0)
(0.00383732 -0.00387437 0)
(0.00416437 -0.0035485 0)
(0.00451701 -0.00315868 0)
(0.00488091 -0.00268025 0)
(0.00523294 -0.00208779 0)
(0.00554977 -0.00136742 0)
(0.0057924 -0.000498891 0)
(0.005928 0.000522771 0)
(0.00591999 0.00169278 0)
(0.00571447 0.00300823 0)
(0.00527145 0.00445046 0)
(0.00455533 0.00599602 0)
(0.00353066 0.00759626 0)
(0.00217255 0.00919539 0)
(0.000474976 0.0107266 0)
(-0.00155215 0.0121151 0)
(-0.00388855 0.0132871 0)
(-0.00649509 0.0141522 0)
(-0.00931752 0.0146244 0)
(-0.0123015 0.0146655 0)
(-0.015385 0.0142288 0)
(-0.0184951 0.0132405 0)
(-0.0215716 0.0116183 0)
(-0.0245253 0.00925335 0)
(-0.0271795 0.0060267 0)
(-0.0292809 0.00186772 0)
(-0.0304471 -0.00319761 0)
(-0.03018 -0.00885808 0)
(-0.0280452 -0.0143909 0)
(-0.0238899 -0.0186502 0)
(-0.018079 -0.0204259 0)
(-0.0116067 -0.0188933 0)
(-0.00572279 -0.01502 0)
(-0.00163867 -0.0141812 0)
(0.00215697 -0.0203696 0)
(0.00830449 -0.0237837 0)
(0.0167874 -0.0292492 0)
(0.0255874 -0.0306119 0)
(0.0330084 -0.0270669 0)
(0.0379646 -0.0202269 0)
(0.0402164 -0.0120904 0)
(0.0401267 -0.00416769 0)
(0.0383269 0.00266008 0)
(0.0354859 0.00807497 0)
(0.0320657 0.0122459 0)
(0.0283452 0.0153665 0)
(0.0244932 0.0176123 0)
(0.0205663 0.0190752 0)
(0.0166193 0.0198321 0)
(0.0127549 0.0199432 0)
(0.00906039 0.019471 0)
(0.00561666 0.0184704 0)
(0.00251229 0.017004 0)
(-0.000192474 0.0151786 0)
(-0.0024571 0.0130826 0)
(-0.00425932 0.0108097 0)
(-0.00558953 0.00844824 0)
(-0.00645877 0.00609793 0)
(-0.00690123 0.00385053 0)
(-0.00696538 0.00174357 0)
(-0.00670619 -0.000173299 0)
(-0.00618243 -0.00185519 0)
(-0.00545675 -0.00326818 0)
(-0.00459291 -0.00439158 0)
(-0.00365408 -0.00524818 0)
(-0.00270185 -0.00586654 0)
(-0.00178569 -0.00628271 0)
(-0.000938675 -0.0065166 0)
(-0.000184086 -0.00660173 0)
(0.00046614 -0.00658149 0)
(0.00101173 -0.00648776 0)
(0.00145493 -0.00633958 0)
(0.00181314 -0.00614911 0)
(0.00210332 -0.00592672 0)
(0.00233899 -0.00569114 0)
(0.00253569 -0.00544547 0)
(0.00271419 -0.00519045 0)
(0.00289784 -0.00493765 0)
(0.00310498 -0.00469458 0)
(0.00334759 -0.00445456 0)
(0.00364011 -0.0042013 0)
(0.00399868 -0.00391634 0)
(0.00441856 -0.00356093 0)
(0.0048855 -0.00310086 0)
(0.00537474 -0.00250096 0)
(0.00585387 -0.00173659 0)
(0.00628011 -0.000786075 0)
(0.00660431 0.000367219 0)
(0.00677608 0.00172075 0)
(0.00673008 0.00326898 0)
(0.00641556 0.00499103 0)
(0.00578506 0.00685436 0)
(0.00479187 0.00880662 0)
(0.00340525 0.0107776 0)
(0.00160809 0.0126829 0)
(-0.000593594 0.0144283 0)
(-0.0031756 0.0159239 0)
(-0.0060944 0.0170675 0)
(-0.00929975 0.0177683 0)
(-0.0127352 0.0179757 0)
(-0.0163313 0.0176389 0)
(-0.0200245 0.0166903 0)
(-0.0237673 0.0150197 0)
(-0.0274987 0.012495 0)
(-0.0310458 0.00888276 0)
(-0.0341035 0.0039637 0)
(-0.0361812 -0.00236689 0)
(-0.0366103 -0.00986246 0)
(-0.0347397 -0.0176277 0)
(-0.030219 -0.0240826 0)
(-0.0233531 -0.0273466 0)
(-0.0152396 -0.0259463 0)
(-0.00750265 -0.0208329 0)
(-0.00198589 -0.0183228 0)
(0.00262151 -0.026117 0)
(0.0104323 -0.0321728 0)
(0.0206804 -0.0388779 0)
(0.0307518 -0.0394831 0)
(0.0387851 -0.0336379 0)
(0.0438182 -0.0238799 0)
(0.0457862 -0.0129804 0)
(0.0451924 -0.00287484 0)
(0.0427437 0.0053997 0)
(0.0392057 0.0116463 0)
(0.0350932 0.0162318 0)
(0.0306867 0.0195581 0)
(0.0261687 0.0218923 0)
(0.0215921 0.0233833 0)
(0.0170157 0.0240964 0)
(0.0125382 0.0240732 0)
(0.00827538 0.023353 0)
(0.00433438 0.022013 0)
(0.000818028 0.020135 0)
(-0.0021962 0.0178367 0)
(-0.0046684 0.0152287 0)
(-0.00657324 0.0124313 0)
(-0.00791038 0.00955226 0)
(-0.0086974 0.00670819 0)
(-0.00897404 0.0040141 0)
(-0.00880322 0.00152322 0)
(-0.00825904 -0.000711571 0)
(-0.00741865 -0.00264156 0)
(-0.00636487 -0.00422917 0)
(-0.00517923 -0.00545672 0)
(-0.00393912 -0.00634477 0)
(-0.00271791 -0.00693157 0)
(-0.00157837 -0.00726598 0)
(-0.000566737 -0.00738941 0)
(0.000292315 -0.00734954 0)
(0.000991058 -0.00719697 0)
(0.0015333 -0.00697357 0)
(0.00193333 -0.00671743 0)
(0.00221594 -0.00643475 0)
(0.00240405 -0.00614598 0)
(0.00252584 -0.00585364 0)
(0.0026107 -0.00557836 0)
(0.00267989 -0.00532077 0)
(0.00276322 -0.00509688 0)
(0.00289141 -0.00489927 0)
(0.0030966 -0.00472782 0)
(0.00339525 -0.00455358 0)
(0.00380027 -0.00434834 0)
(0.00432106 -0.00407187 0)
(0.00493847 -0.00366815 0)
(0.00561985 -0.00309322 0)
(0.00632431 -0.00230965 0)
(0.00699826 -0.00128768 0)
(0.00757847 -4.41101e-06 0)
(0.00799762 0.00154336 0)
(0.00817659 0.00335111 0)
(0.0080482 0.00539983 0)
(0.00755298 0.00763925 0)
(0.00663021 0.010012 0)
(0.00523255 0.0124288 0)
(0.00333509 0.0147882 0)
(0.000937578 0.0169785 0)
(-0.00193434 0.0188761 0)
(-0.00522897 0.0203667 0)
(-0.00888436 0.0213573 0)
(-0.0128219 0.021798 0)
(-0.0169558 0.0216168 0)
(-0.0212349 0.0207745 0)
(-0.0256046 0.0191591 0)
(-0.0300161 0.0165735 0)
(-0.0343268 0.0126516 0)
(-0.038202 0.00699545 0)
(-0.0410822 -0.000713104 0)
(-0.0421825 -0.0103415 0)
(-0.0406878 -0.0208446 0)
(-0.0360938 -0.0301497 0)
(-0.0285644 -0.0355939 0)
(-0.0191113 -0.0348232 0)
(-0.00958477 -0.0284808 0)
(-0.00243846 -0.0236135 0)
(0.00313037 -0.0331977 0)
(0.012421 -0.0422762 0)
(0.0237295 -0.0497834 0)
(0.0340958 -0.0489767 0)
(0.0419567 -0.040317 0)
(0.0467186 -0.027345 0)
(0.0484958 -0.0135418 0)
(0.0477861 -0.00120787 0)
(0.0452381 0.00857637 0)
(0.0415397 0.0157353 0)
(0.0371414 0.0207908 0)
(0.0323143 0.0243598 0)
(0.0272551 0.0268133 0)
(0.022057 0.0283546 0)
(0.0168078 0.029028 0)
(0.0116429 0.0288453 0)
(0.00672146 0.0278249 0)
(0.00220156 0.0260538 0)
(-0.00178732 0.0236581 0)
(-0.00515926 0.0207628 0)
(-0.00785437 0.0175347 0)
(-0.00984361 0.0140988 0)
(-0.0111413 0.0105978 0)
(-0.0117786 0.00717138 0)
(-0.0118081 0.00394507 0)
(-0.0113043 0.00100032 0)
(-0.0103633 -0.00159862 0)
(-0.00908938 -0.00379921 0)
(-0.0075907 -0.00556245 0)
(-0.00596979 -0.00687787 0)
(-0.00432537 -0.00776611 0)
(-0.00275026 -0.00827549 0)
(-0.00132169 -0.00846854 0)
(-9.4041e-05 -0.00841719 0)
(0.000904736 -0.00818472 0)
(0.00167156 -0.00783836 0)
(0.00221071 -0.00743706 0)
(0.00255067 -0.00701883 0)
(0.00272903 -0.00661234 0)
(0.00278788 -0.00623449 0)
(0.0027626 -0.00588554 0)
(0.00268127 -0.00558312 0)
(0.00258882 -0.00533922 0)
(0.00254025 -0.00515169 0)
(0.00257624 -0.00503426 0)
(0.00272782 -0.00497162 0)
(0.00303321 -0.00493487 0)
(0.00350903 -0.0048743 0)
(0.00416744 -0.00473102 0)
(0.00499231 -0.00443977 0)
(0.00593806 -0.00393349 0)
(0.0069521 -0.00316074 0)
(0.00796589 -0.00208172 0)
(0.00889378 -0.000668565 0)
(0.00965248 0.00108909 0)
(0.0101529 0.00318902 0)
(0.010299 0.00561095 0)
(0.0100089 0.00829803 0)
(0.00920559 0.0111762 0)
(0.00782491 0.0141352 0)
(0.00583513 0.0170561 0)
(0.00322071 0.0198022 0)
(9.16893e-06 0.0222028 0)
(-0.00372666 0.024133 0)
(-0.00789229 0.0254739 0)
(-0.0123785 0.0261645 0)
(-0.017062 0.0261618 0)
(-0.021859 0.0254345 0)
(-0.0267103 0.0238904 0)
(-0.0315649 0.0212664 0)
(-0.0362715 0.0170561 0)
(-0.0405109 0.0106714 0)
(-0.0437459 0.00153917 0)
(-0.0452036 -0.0103344 0)
(-0.0440809 -0.0237971 0)
(-0.0398322 -0.0363575 0)
(-0.0324024 -0.0445796 0)
(-0.0224436 -0.0451392 0)
(-0.0116502 -0.0379127 0)
(-0.00294981 -0.0301898 0)
(0.00370465 -0.0414498 0)
(0.0139058 -0.0533061 0)
(0.0251091 -0.0608166 0)
(0.0346038 -0.0579749 0)
(0.041518 -0.0464059 0)
(0.0457307 -0.0304944 0)
(0.0474802 -0.0140955 0)
(0.0471564 0.000273188 0)
(0.0451678 0.0115515 0)
(0.0419227 0.019758 0)
(0.0377137 0.025492 0)
(0.0327647 0.0295103 0)
(0.0273033 0.0322717 0)
(0.0214893 0.0339881 0)
(0.015494 0.0346787 0)
(0.00952809 0.0343272 0)
(0.0038226 0.0329686 0)
(-0.00138474 0.0306857 0)
(-0.00593788 0.0276398 0)
(-0.00970658 0.0240133 0)
(-0.012626 0.0200079 0)
(-0.0146789 0.0157795 0)
(-0.0158645 0.0115228 0)
(-0.0162373 0.00739249 0)
(-0.0158743 0.00353026 0)
(-0.0148731 4.6767e-05 0)
(-0.0133563 -0.0029755 0)
(-0.0114603 -0.00547286 0)
(-0.00932853 -0.00741184 0)
(-0.00709651 -0.00878595 0)
(-0.00489207 -0.00962533 0)
(-0.00282963 -0.00999059 0)
(-0.0010056 -0.00996531 0)
(0.000516425 -0.00964992 0)
(0.00170749 -0.00913489 0)
(0.00256254 -0.00851034 0)
(0.00310852 -0.00785799 0)
(0.00337772 -0.0072284 0)
(0.0034131 -0.00665674 0)
(0.00328703 -0.00614745 0)
(0.00305732 -0.00572821 0)
(0.00276382 -0.00539957 0)
(0.00247358 -0.00518073 0)
(0.00224423 -0.00506241 0)
(0.00213104 -0.00507658 0)
(0.0022088 -0.00518775 0)
(0.00252465 -0.00536121 0)
(0.00310839 -0.00552684 0)
(0.00397052 -0.00560008 0)
(0.00509025 -0.00549425 0)
(0.00641611 -0.00511676 0)
(0.00787178 -0.00439622 0)
(0.00936448 -0.00328171 0)
(0.0107862 -0.0017411 0)
(0.0120316 0.000247783 0)
(0.0129887 0.00268167 0)
(0.0135343 0.00553577 0)
(0.0135555 0.00875274 0)
(0.0129439 0.0122379 0)
(0.0116206 0.015873 0)
(0.00954832 0.019494 0)
(0.00668617 0.0229177 0)
(0.00308047 0.0259597 0)
(-0.00116448 0.028432 0)
(-0.00592834 0.0301759 0)
(-0.0110267 0.0311207 0)
(-0.0162844 0.031253 0)
(-0.0215596 0.0305577 0)
(-0.0267217 0.0289573 0)
(-0.0316986 0.0261611 0)
(-0.0363074 0.02159 0)
(-0.0402775 0.0144121 0)
(-0.0432198 0.00389544 0)
(-0.0445449 -0.0100713 0)
(-0.0436711 -0.0262852 0)
(-0.04011 -0.0420107 0)
(-0.0335923 -0.0532878 0)
(-0.0242787 -0.0558555 0)
(-0.0132826 -0.0484965 0)
(-0.00351031 -0.03799 0)
(0.00427882 -0.0504842 0)
(0.014581 -0.0642325 0)
(0.0245906 -0.0707387 0)
(0.0323446 -0.0655461 0)
(0.0378116 -0.0514694 0)
(0.0414035 -0.0333535 0)
(0.0433639 -0.0149889 0)
(0.0437876 0.00105616 0)
(0.0427397 0.0137615 0)
(0.0402668 0.0232235 0)
(0.0364753 0.0299836 0)
(0.0315375 0.0348301 0)
(0.0256727 0.0382271 0)
(0.0191285 0.0403689 0)
(0.0122034 0.0412011 0)
(0.00525526 0.0407035 0)
(-0.00140375 0.0389384 0)
(-0.00747544 0.0360327 0)
(-0.012708 0.0321702 0)
(-0.0169445 0.0276221 0)
(-0.0201099 0.0226114 0)
(-0.0221563 0.017405 0)
(-0.0230969 0.0122039 0)
(-0.0230214 0.00720172 0)
(-0.0220311 0.00256696 0)
(-0.0202659 -0.00155951 0)
(-0.0178849 -0.00507351 0)
(-0.0150706 -0.00789912 0)
(-0.0120157 -0.010006 0)
(-0.00889867 -0.0113929 0)
(-0.00588846 -0.0121057 0)
(-0.0031284 -0.0122271 0)
(-0.000738851 -0.0118694 0)
(0.00120519 -0.0111679 0)
(0.00267446 -0.0102507 0)
(0.00367087 -0.00923859 0)
(0.00423216 -0.008234 0)
(0.00442005 -0.00731512 0)
(0.00431328 -0.00651383 0)
(0.00398141 -0.00584336 0)
(0.00349644 -0.00532085 0)
(0.00292793 -0.00496045 0)
(0.0023658 -0.00477862 0)
(0.00189265 -0.00479624 0)
(0.00160267 -0.00500393 0)
(0.00159905 -0.00537306 0)
(0.00194921 -0.00586038 0)
(0.00270404 -0.00636945 0)
(0.00387353 -0.00677972 0)
(0.00543359 -0.00696167 0)
(0.00731525 -0.00679605 0)
(0.0094147 -0.00619082 0)
(0.011605 -0.00507447 0)
(0.0137482 -0.00340915 0)
(0.0157072 -0.00116203 0)
(0.0173319 0.00166575 0)
(0.0184618 0.00504296 0)
(0.0189402 0.00890719 0)
(0.0186355 0.0131514 0)
(0.0174352 0.0176241 0)
(0.0152699 0.0221241 0)
(0.0121318 0.0264053 0)
(0.00806808 0.0302277 0)
(0.00319027 0.0333283 0)
(-0.00229363 0.0355379 0)
(-0.00813141 0.0367297 0)
(-0.0140702 0.0368879 0)
(-0.0198633 0.0360418 0)
(-0.0252778 0.0341361 0)
(-0.030144 0.0308708 0)
(-0.0343026 0.0256805 0)
(-0.0375456 0.0175648 0)
(-0.0396548 0.00577112 0)
(-0.0403947 -0.00988994 0)
(-0.0395338 -0.0282309 0)
(-0.0367813 -0.0465271 0)
(-0.0317279 -0.0606574 0)
(-0.0241058 -0.065731 0)
(-0.0141726 -0.059243 0)
(-0.00410516 -0.0467163 0)
(0.00480102 -0.0599185 0)
(0.0145394 -0.0741687 0)
(0.0227131 -0.0787887 0)
(0.0284173 -0.0713018 0)
(0.0324389 -0.0554255 0)
(0.0355121 -0.0359788 0)
(0.0377303 -0.0164532 0)
(0.0388775 0.000889973 0)
(0.0387274 0.01506 0)
(0.03688 0.0260043 0)
(0.0332699 0.0342563 0)
(0.0280846 0.0404217 0)
(0.0215573 0.0448558 0)
(0.0139868 0.0476594 0)
(0.00580235 0.0487943 0)
(-0.00245177 0.048218 0)
(-0.0103432 0.0459695 0)
(-0.0175046 0.0422492 0)
(-0.023598 0.0373543 0)
(-0.0284002 0.0315954 0)
(-0.0317843 0.0253211 0)
(-0.0337087 0.0188464 0)
(-0.034227 0.012435 0)
(-0.0334298 0.00632733 0)
(-0.0314727 0.000736405 0)
(-0.0285544 -0.00416981 0)
(-0.0248949 -0.00826396 0)
(-0.0207393 -0.0114532 0)
(-0.0163428 -0.0137058 0)
(-0.0119438 -0.0150279 0)
(-0.0077686 -0.0155009 0)
(-0.00399876 -0.0152302 0)
(-0.000785646 -0.0143745 0)
(0.00177984 -0.0131136 0)
(0.00367291 -0.0116268 0)
(0.00490935 -0.0100741 0)
(0.00555172 -0.00859099 0)
(0.00569025 -0.00727226 0)
(0.00542976 -0.00616347 0)
(0.00487741 -0.00528155 0)
(0.00412494 -0.00462944 0)
(0.00325291 -0.00422398 0)
(0.00237033 -0.00410297 0)
(0.00161789 -0.00428735 0)
(0.00114295 -0.00477041 0)
(0.00106649 -0.00553154 0)
(0.00149874 -0.00648462 0)
(0.00252911 -0.00750209 0)
(0.00417725 -0.00841121 0)
(0.00640005 -0.00902743 0)
(0.0090965 -0.00919423 0)
(0.0121302 -0.00879483 0)
(0.0153311 -0.00772493 0)
(0.0185186 -0.00594332 0)
(0.0215119 -0.00341159 0)
(0.0241026 -0.000115847 0)
(0.0260789 0.00390952 0)
(0.0272385 0.0085905 0)
(0.0273929 0.0138005 0)
(0.0263995 0.0193399 0)
(0.0241763 0.0249459 0)
(0.0207003 0.0303256 0)
(0.0160419 0.0351092 0)