/*--------------------------------*- C++ -*----------------------------------*\
| =========                 |                                                 |
| \\      /  F ield         | OpenFOAM: The Open Source CFD Toolbox           |
|  \\    /   O peration     | Version:  2412                                  |
|   \\  /    A nd           | Website:  www.openfoam.com                      |
|    \\/     M anipulation  |                                                 |
\*---------------------------------------------------------------------------*/
FoamFile
{
    version     2.0;
    format      ascii;
    arch        "LSB;label=32;scalar=64";
    class       surfaceScalarField;
    location    "8.25";
    object      phi;
}
// * * * * * * * * * * * * * * * * * * * * * * * * * * * * * * * * * * * * * //

dimensions      [0 3 -1 0 0 0 0];

oriented        oriented;

internalField   nonuniform List<scalar> 
12640
(
5.60293e-09
-5.5896e-09
1.62299e-08
-1.03765e-08
2.63087e-08
-9.83091e-09
3.22399e-08
-5.7511e-09
3.2095e-08
2.33256e-10
2.49895e-08
7.08673e-09
1.06943e-08
1.41573e-08
-1.06371e-08
2.10628e-08
-3.86384e-08
2.7601e-08
-7.28523e-08
3.36884e-08
-1.12799e-07
3.93094e-08
-1.58024e-07
4.44926e-08
-2.08105e-07
4.92729e-08
-2.62653e-07
5.36886e-08
-3.21286e-07
5.7743e-08
-3.83611e-07
6.1426e-08
-4.49167e-07
6.46637e-08
-5.17406e-07
6.73726e-08
-5.8762e-07
6.93823e-08
-6.58937e-07
7.05401e-08
-7.30248e-07
7.05865e-08
-8.00232e-07
6.93363e-08
-8.67301e-07
6.6477e-08
-9.29659e-07
6.1859e-08
-9.85284e-07
5.51764e-08
-1.03202e-06
4.6405e-08
-1.06763e-06
3.5318e-08
-1.08989e-06
2.21129e-08
-1.0967e-06
6.7089e-09
-1.08622e-06
-1.03999e-08
-1.05698e-06
-2.91164e-08
-1.008e-06
-4.86315e-08
-9.38915e-07
-6.86998e-08
-8.50001e-07
-8.82619e-08
-7.42328e-07
-1.07025e-07
-6.17578e-07
-1.23824e-07
-4.78251e-07
-1.38463e-07
-3.27284e-07
-1.49852e-07
-1.68289e-07
-1.58028e-07
-5.00524e-09
-1.6213e-07
1.58406e-07
-1.62509e-07
3.18038e-07
-1.58628e-07
4.69858e-07
-1.51161e-07
6.10461e-07
-1.39929e-07
7.36598e-07
-1.2587e-07
8.45934e-07
-1.09118e-07
9.36488e-07
-9.07575e-08
1.00733e-06
-7.11169e-08
1.05793e-06
-5.1267e-08
1.08876e-06
-3.1569e-08
1.10062e-06
-1.29146e-08
1.09507e-06
4.44448e-09
1.07382e-06
1.98989e-08
1.03907e-06
3.33793e-08
9.92944e-07
4.45781e-08
9.37787e-07
5.36094e-08
8.75694e-07
6.0418e-08
8.08771e-07
6.52466e-08
7.38784e-07
6.8205e-08
6.67383e-07
6.95921e-08
5.95873e-07
6.95915e-08
5.25408e-07
6.84873e-08
4.56851e-07
6.6458e-08
3.9094e-07
6.37212e-08
3.28219e-07
6.04023e-08
2.69165e-07
5.66305e-08
2.14168e-07
5.24583e-08
1.63623e-07
4.79256e-08
1.17916e-07
4.3018e-08
7.74828e-08
3.77149e-08
4.27804e-08
3.19757e-08
1.4299e-08
2.57812e-08
-7.49648e-09
1.91423e-08
-2.22253e-08
1.21447e-08
-2.97179e-08
4.98814e-09
-3.01954e-08
-1.94005e-09
-2.45608e-08
-7.96637e-09
-1.48286e-08
-1.19842e-08
-4.75889e-09
-1.22617e-08
-6.82433e-09
1.05048e-08
-1.59262e-08
2.73312e-08
-2.69283e-08
4.00777e-08
-2.23678e-08
4.19186e-08
-7.53622e-09
2.86606e-08
1.33509e-08
-1.87593e-09
3.72674e-08
-5.04658e-08
6.21629e-08
-1.16961e-07
8.6742e-08
-2.00661e-07
1.10261e-07
-3.00562e-07
1.32349e-07
-4.15549e-07
1.52883e-07
-5.44473e-07
1.71874e-07
-6.86235e-07
1.89394e-07
-8.3973e-07
2.05494e-07
-1.00386e-06
2.20168e-07
-1.1774e-06
2.33292e-07
-1.35897e-06
2.44625e-07
-1.54687e-06
2.53757e-07
-1.73906e-06
2.60168e-07
-1.93294e-06
2.63158e-07
-2.12546e-06
2.61983e-07
-2.31286e-06
2.55755e-07
-2.49088e-06
2.43673e-07
-2.65455e-06
2.24855e-07
-2.79859e-06
1.98704e-07
-2.91719e-06
1.64613e-07
-3.00458e-06
1.22498e-07
-3.05488e-06
7.23086e-08
-3.06279e-06
1.47585e-08
-3.02355e-06
-4.94393e-08
-2.93355e-06
-1.18623e-07
-2.79036e-06
-1.91293e-07
-2.59325e-06
-2.64927e-07
-2.3432e-06
-3.37479e-07
-2.04307e-06
-4.05938e-07
-1.69762e-06
-4.68191e-07
-1.31334e-06
-5.21307e-07
-8.98361e-07
-5.63679e-07
-4.61897e-07
-5.93026e-07
-1.43306e-08
-6.08701e-07
4.33865e-07
-6.09477e-07
8.71731e-07
-5.95894e-07
1.28926e-06
-5.67944e-07
1.67667e-06
-5.27342e-07
2.02609e-06
-4.75211e-07
2.33045e-06
-4.14176e-07
2.58518e-06
-3.46154e-07
2.78685e-06
-2.74189e-07
2.93467e-06
-2.00451e-07
3.0289e-06
-1.27805e-07
3.07214e-06
-5.81044e-08
3.06762e-06
6.47228e-09
3.02032e-06
6.47761e-08
2.9353e-06
1.15559e-07
2.81861e-06
1.58488e-07
2.67588e-06
1.93214e-07
2.5131e-06
2.20096e-07
2.33549e-06
2.39459e-07
2.14818e-06
2.52092e-07
1.95538e-06
2.58691e-07
1.76098e-06
2.60191e-07
1.56802e-06
2.57366e-07
1.37919e-06
2.51057e-07
1.19651e-06
2.41897e-07
1.02177e-06
2.30479e-07
8.56332e-07
2.17183e-07
7.01481e-07
2.02303e-07
5.5832e-07
1.85953e-07
4.27991e-07
1.68173e-07
3.11608e-07
1.48906e-07
2.1035e-07
1.28097e-07
1.25345e-07
1.05725e-07
5.76254e-08
8.192e-08
7.91214e-09
5.70433e-08
-2.36233e-08
3.18474e-08
-3.7762e-08
7.64845e-09
-3.6743e-08
-1.34232e-08
-2.49464e-08
-2.81292e-08
-9.57207e-09
-3.18036e-08
-1.83754e-08
1.0082e-08
-2.58099e-08
2.28802e-08
-3.95183e-08
2.64099e-08
-2.57628e-08
1.26362e-08
6.22977e-09
-2.35794e-08
4.93827e-08
-8.50679e-08
9.83717e-08
-1.7291e-07
1.49416e-07
-2.86987e-07
2.00018e-07
-4.26387e-07
2.48665e-07
-5.89764e-07
2.94551e-07
-7.75531e-07
3.37336e-07
-9.82053e-07
3.76963e-07
-1.20764e-06
4.13485e-07
-1.45062e-06
4.46934e-07
-1.70919e-06
4.77213e-07
-1.98143e-06
5.04018e-07
-2.265e-06
5.26773e-07
-2.55723e-06
5.44627e-07
-2.85471e-06
5.56421e-07
-3.15346e-06
5.60764e-07
-3.44849e-06
5.56021e-07
-3.73414e-06
5.4049e-07
-4.00359e-06
5.12377e-07
-4.24952e-06
4.70104e-07
-4.46354e-06
4.12219e-07
-4.63722e-06
3.37854e-07
-4.7615e-06
2.46492e-07
-4.82796e-06
1.38595e-07
-4.82834e-06
1.51173e-08
-4.75596e-06
-1.21695e-07
-4.60517e-06
-2.69147e-07
-4.37284e-06
-4.23135e-07
-4.05776e-06
-5.79433e-07
-3.66184e-06
-7.3256e-07
-3.1894e-06
-8.77534e-07
-2.64795e-06
-1.00851e-06
-2.04735e-06
-1.1209e-06
-1.4e-06
-1.20974e-06
-7.20112e-07
-1.27195e-06
-2.31391e-08
-1.30445e-06
6.74538e-07
-1.30645e-06
1.35686e-06
-1.27729e-06
2.00788e-06
-1.21875e-06
2.61356e-06
-1.13263e-06
3.16093e-06
-1.02298e-06
3.64015e-06
-8.93649e-07
4.04311e-06
-7.50192e-07
4.36551e-06
-5.97511e-07
4.60486e-06
-4.41506e-07
4.76245e-06
-2.86926e-07
4.84093e-06
-1.38805e-07
4.84607e-06
-7.02321e-10
4.78422e-06
1.24021e-07
4.66382e-06
2.33522e-07
4.49308e-06
3.2633e-07
4.28125e-06
4.02275e-07
4.0367e-06
4.61506e-07
3.76799e-06
5.051e-07
3.48242e-06
5.34263e-07
3.18699e-06
5.50728e-07
2.88734e-06
5.56136e-07
2.58863e-06
5.52307e-07
2.29485e-06
5.40794e-07
2.0095e-06
5.23078e-07
1.7353e-06
5.00283e-07
1.47466e-06
4.73328e-07
1.22951e-06
4.42783e-07
1.00173e-06
4.09003e-07
7.93022e-07
3.72086e-07
6.05111e-07
3.32031e-07
4.39662e-07
2.88779e-07
2.98302e-07
2.42399e-07
1.82401e-07
1.93217e-07
9.29069e-08
1.42047e-07
2.99573e-08
9.04133e-08
-7.53484e-09
4.08661e-08
-2.24766e-08
-2.66876e-09
-2.02131e-08
-3.45045e-08
-9.10739e-09
-4.68328e-08
-2.9347e-08
6.25156e-09
-3.19012e-08
8.53225e-09
-4.17232e-08
-4.90958e-09
-1.23244e-08
-4.21519e-08
4.33511e-08
-1.08405e-07
1.15355e-07
-2.06521e-07
1.96029e-07
-3.37534e-07
2.79785e-07
-5.01156e-07
3.62821e-07
-6.96247e-07
4.42763e-07
-9.2112e-07
5.18292e-07
-1.17385e-06
5.88806e-07
-1.45235e-06
6.5413e-07
-1.75452e-06
7.14261e-07
-2.07814e-06
7.69162e-07
-2.42092e-06
8.18583e-07
-2.78018e-06
8.61936e-07
-3.15294e-06
8.98214e-07
-3.53546e-06
9.25938e-07
-3.92339e-06
9.43182e-07
-4.31124e-06
9.47584e-07
-4.69274e-06
9.36498e-07
-5.06015e-06
9.07042e-07
-5.40504e-06
8.56394e-07
-5.71748e-06
7.8184e-07
-5.98722e-06
6.81232e-07
-6.20286e-06
5.5295e-07
-6.35344e-06
3.96529e-07
-6.4276e-06
2.12415e-07
-6.41553e-06
2.73982e-09
-6.30803e-06
-2.2927e-07
-6.09875e-06
-4.78407e-07
-5.78308e-06
-7.38572e-07
-5.36032e-06
-1.0018e-06
-4.8324e-06
-1.25993e-06
-4.20565e-06
-1.50351e-06
-3.48936e-06
-1.72401e-06
-2.69675e-06
-1.91245e-06
-1.84364e-06
-2.06195e-06
-9.48471e-07
-2.16593e-06
-3.13476e-08
-2.22079e-06
8.8691e-07
-2.22365e-06
1.78505e-06
-2.17501e-06
2.64319e-06
-2.0762e-06
3.44228e-06
-1.93182e-06
4.16652e-06
-1.74708e-06
4.80198e-06
-1.52987e-06
5.33931e-06
-1.28803e-06
5.7715e-06
-1.03111e-06
6.09655e-06
-7.67709e-07
6.31457e-06
-5.06943e-07
6.43022e-06
-2.56167e-07
6.44939e-06
-2.23238e-08
6.38142e-06
1.89816e-07
6.23581e-06
3.76346e-07
6.02415e-06
5.35449e-07
5.75722e-06
6.66171e-07
5.44666e-06
7.69211e-07
5.10267e-06
8.4584e-07
4.7354e-06
8.98388e-07
4.3533e-06
9.29352e-07
3.96429e-06
9.41695e-07
3.57467e-06
9.38181e-07
3.19012e-06
9.21574e-07
2.81499e-06
8.94179e-07
2.45317e-06
8.58018e-07
2.10766e-06
8.14555e-07
1.78124e-06
7.64873e-07
1.47623e-06
7.09563e-07
1.19494e-06
6.48925e-07
9.39474e-07
5.83002e-07
7.11985e-07
5.11819e-07
5.14426e-07
4.35542e-07
3.4853e-07
3.54779e-07
2.15466e-07
2.70851e-07
1.1555e-07
1.86163e-07
4.77337e-08
1.04596e-07
9.09455e-09
3.19618e-08
-5.77673e-09
-2.35837e-08
-5.24383e-09
-5.11337e-08
-3.6411e-08
6.30998e-10
-3.24457e-08
-1.16123e-08
-2.95746e-08
-4.71258e-08
2.30232e-08
-1.13223e-07
1.09177e-07
-2.14518e-07
2.1624e-07
-3.53377e-07
3.34321e-07
-5.30389e-07
4.56078e-07
-7.4488e-07
5.76441e-07
-9.95307e-07
6.92193e-07
-1.27965e-06
8.01515e-07
-1.59558e-06
9.03549e-07
-1.94072e-06
9.98002e-07
-2.31254e-06
1.08481e-06
-2.70848e-06
1.16381e-06
-3.12571e-06
1.23457e-06
-3.56116e-06
1.29614e-06
-4.01103e-06
1.34695e-06
-4.47105e-06
1.3848e-06
-4.93571e-06
1.40681e-06
-5.39873e-06
1.40954e-06
-5.85221e-06
1.38905e-06
-6.28741e-06
1.34123e-06
-6.69373e-06
1.26187e-06
-7.06004e-06
1.14718e-06
-7.37348e-06
9.93909e-07
-7.62139e-06
7.99963e-07
-7.78994e-06
5.64439e-07
-7.86667e-06
2.88409e-07
-7.83899e-06
-2.53841e-08
-7.6971e-06
-3.71621e-07
-7.43242e-06
-7.43229e-07
-7.04064e-06
-1.13045e-06
-6.51989e-06
-1.52234e-06
-5.8736e-06
-1.90587e-06
-5.10846e-06
-2.26812e-06
-4.23646e-06
-2.59525e-06
-3.27284e-06
-2.87531e-06
-2.23703e-06
-3.09674e-06
-1.15086e-06
-3.25132e-06
-3.83538e-08
-3.3322e-06
1.07533e-06
-3.33676e-06
2.16531e-06
-3.2641e-06
3.20703e-06
-3.11779e-06
4.17869e-06
-2.90301e-06
5.0601e-06
-2.62898e-06
5.83595e-06
-2.30584e-06
6.49341e-06
-1.94663e-06
7.02567e-06
-1.56414e-06
7.42856e-06
-1.17238e-06
7.70388e-06
-7.83662e-07
7.85535e-06
-4.09961e-07
7.89165e-06
-6.05625e-08
7.82215e-06
2.56589e-07
7.65962e-06
5.36497e-07
7.41631e-06
7.75744e-07
7.10628e-06
9.73493e-07
6.74209e-06
1.13017e-06
6.33687e-06
1.24806e-06
5.90174e-06
1.33011e-06
5.44755e-06
1.38028e-06
4.98306e-06
1.40259e-06
4.51641e-06
1.40131e-06
4.0539e-06
1.38029e-06
3.60122e-06
1.34308e-06
3.1627e-06
1.29254e-06
2.74225e-06
1.23099e-06
2.34299e-06
1.15997e-06
1.96786e-06
1.08052e-06
1.61944e-06
9.93097e-07
1.30033e-06
8.97885e-07
1.01294e-06
7.94958e-07
7.59666e-07
6.84622e-07
5.42549e-07
5.67732e-07
3.63182e-07
4.46123e-07
2.22253e-07
3.2305e-07
1.19171e-07
2.03705e-07
5.14903e-08
9.57209e-08
1.44165e-08
9.62181e-09
3.7882e-10
-4.07923e-08
-3.78035e-08
-5.86939e-09
-2.6586e-08
-3.49752e-08
-7.37753e-10
-9.5846e-08
8.35576e-08
-1.94443e-07
2.07357e-07
-3.34273e-07
3.55533e-07
-5.16738e-07
5.16127e-07
-7.4164e-07
6.80192e-07
-1.00761e-06
8.41523e-07
-1.31259e-06
9.96177e-07
-1.65405e-06
1.14193e-06
-2.02936e-06
1.27774e-06
-2.43573e-06
1.40326e-06
-2.87043e-06
1.51835e-06
-3.33049e-06
1.62278e-06
-3.81288e-06
1.71585e-06
-4.31395e-06
1.79619e-06
-4.82968e-06
1.86163e-06
-5.35493e-06
1.90911e-06
-5.88383e-06
1.93469e-06
-6.40886e-06
1.93367e-06
-6.92162e-06
1.90077e-06
-7.41164e-06
1.83034e-06
-7.86771e-06
1.71683e-06
-8.27647e-06
1.55501e-06
-8.62439e-06
1.34067e-06
-8.89614e-06
1.07081e-06
-9.07731e-06
7.44498e-07
-9.15253e-06
3.62861e-07
-9.10891e-06
-6.99315e-08
-8.93387e-06
-5.47171e-07
-8.6191e-06
-1.05859e-06
-8.1581e-06
-1.5916e-06
-7.55019e-06
-2.13038e-06
-6.79782e-06
-2.65801e-06
-5.90993e-06
-3.15564e-06
-4.89912e-06
-3.6055e-06
-3.78382e-06
-3.98982e-06
-2.58559e-06
-4.29422e-06
-1.32989e-06
-4.50599e-06
-4.40625e-08
-4.61735e-06
1.24332e-06
-4.62311e-06
2.50326e-06
-4.52369e-06
3.70852e-06
-4.3223e-06
4.83293e-06
-4.02761e-06
5.85482e-06
-3.6506e-06
6.75485e-06
-3.20671e-06
7.52024e-06
-2.71238e-06
8.14113e-06
-2.18656e-06
8.61495e-06
-1.64722e-06
8.94163e-06
-1.11248e-06
9.12764e-06
-5.9763e-07
9.18079e-06
-1.16349e-07
9.11379e-06
3.21425e-07
8.9392e-06
7.081e-07
8.67264e-06
1.03974e-06
8.32835e-06
1.31457e-06
7.92197e-06
1.53369e-06
7.46695e-06
1.6997e-06
6.97698e-06
1.81698e-06
6.46327e-06
1.8905e-06
5.93656e-06
1.92599e-06
5.40529e-06
1.92896e-06
4.87724e-06
1.90484e-06
4.35828e-06
1.85829e-06
3.85376e-06
1.79338e-06
3.36773e-06
1.71315e-06
2.90397e-06
1.61989e-06
2.46556e-06
1.51498e-06
2.05554e-06
1.39918e-06
1.67668e-06
1.27274e-06
1.33185e-06
1.13582e-06
1.02371e-06
9.88774e-07
7.5483e-07
8.32659e-07
5.27313e-07
6.69708e-07
3.42553e-07
5.03926e-07
2.00733e-07
3.41672e-07
1.00384e-07
1.92261e-07
3.78231e-08
6.84043e-08
6.87242e-09
-1.34448e-08
-3.26416e-08
-1.27556e-08
-1.39361e-08
-6.00692e-08
4.61371e-08
-1.4841e-07
1.71409e-07
-2.82014e-07
3.40406e-07
-4.62813e-07
5.35692e-07
-6.90848e-07
7.43424e-07
-9.64737e-07
9.53265e-07
-1.2822e-06
1.15809e-06
-1.64039e-06
1.35344e-06
-2.03629e-06
1.53687e-06
-2.4668e-06
1.70729e-06
-2.9289e-06
1.86438e-06
-3.41952e-06
2.00806e-06
-3.93563e-06
2.13797e-06
-4.4738e-06
2.25318e-06
-5.03037e-06
2.35189e-06
-5.60074e-06
2.43122e-06
-6.17971e-06
2.48721e-06
-6.76054e-06
2.51474e-06
-7.33562e-06
2.50778e-06
-7.89522e-06
2.45951e-06
-8.42877e-06
2.36275e-06
-8.92324e-06
2.21031e-06
-9.36515e-06
1.99562e-06
-9.73864e-06
1.7131e-06
-1.00283e-05
1.3591e-06
-1.0217e-05
9.32121e-07
-1.02893e-05
4.33916e-07
-1.02295e-05
-1.30671e-07
-1.00252e-05
-7.52523e-07
-9.66516e-06
-1.4191e-06
-9.14399e-06
-2.11339e-06
-8.45872e-06
-2.81574e-06
-7.61372e-06
-3.50308e-06
-6.61707e-06
-4.15194e-06
-5.48431e-06
-4.73779e-06
-4.23463e-06
-5.23884e-06
-2.8931e-06
-5.63487e-06
-1.48737e-06
-5.91098e-06
-4.81661e-08
-6.05548e-06
1.39262e-06
-6.06335e-06
2.80333e-06
-5.93341e-06
4.15263e-06
-5.67149e-06
5.41276e-06
-5.28712e-06
6.55777e-06
-4.79614e-06
7.56818e-06
-4.21708e-06
8.42747e-06
-3.5729e-06
9.1273e-06
-2.88701e-06
9.66239e-06
-2.18421e-06
1.00356e-05
-1.48694e-06
1.02516e-05
-8.16157e-07
1.03219e-05
-1.8854e-07
1.02582e-05
3.82249e-07
1.00766e-05
8.87299e-07
9.79221e-06
1.32091e-06
9.42256e-06
1.6815e-06
8.98292e-06
1.96999e-06
8.48949e-06
2.19018e-06
7.95573e-06
2.34731e-06
7.39501e-06
2.44811e-06
6.81791e-06
2.49961e-06
6.23445e-06
2.50916e-06
5.65228e-06
2.48349e-06
5.07839e-06
2.42882e-06
4.51799e-06
2.35021e-06
3.97586e-06
2.25179e-06
3.4557e-06
2.13642e-06
2.96106e-06
2.00603e-06
2.49499e-06
1.86155e-06
2.06066e-06
1.70339e-06
1.66109e-06
1.53165e-06
1.29948e-06
1.34667e-06
9.78862e-07
1.14954e-06
7.02133e-07
9.42719e-07
4.71591e-07
7.30751e-07
2.88619e-07
5.20955e-07
1.53102e-07
3.24102e-07
6.29498e-08
1.54909e-07
1.37447e-08
3.22717e-08
-2.05266e-08
-1.98022e-08
5.66692e-09
-8.61633e-08
1.11915e-07
-2.03492e-07
2.8811e-07
-3.73969e-07
5.10224e-07
-5.97567e-07
7.58568e-07
-8.72514e-07
1.0176e-06
-1.19594e-06
1.27586e-06
-1.56431e-06
1.52562e-06
-1.97393e-06
1.7622e-06
-2.42107e-06
1.98319e-06
-2.90227e-06
2.18768e-06
-3.41417e-06
2.37554e-06
-3.95364e-06
2.54679e-06
-4.51738e-06
2.70108e-06
-5.10208e-06
2.83723e-06
-5.70372e-06
2.95297e-06
-6.31789e-06
3.04473e-06
-6.9388e-06
3.10754e-06
-7.55995e-06
3.1351e-06
-8.17278e-06
3.1199e-06
-8.76787e-06
3.05357e-06
-9.33324e-06
2.92721e-06
-9.85626e-06
2.73202e-06
-1.03215e-05
2.45975e-06
-1.07136e-05
2.10367e-06
-1.10147e-05
1.65896e-06
-1.12081e-05
1.12394e-06
-1.12756e-05
5.00242e-07
-1.12018e-05
-2.05871e-07
-1.09713e-05
-9.8389e-07
-1.05738e-05
-1.81774e-06
-1.00004e-05
-2.68717e-06
-9.24993e-06
-3.56674e-06
-8.32436e-06
-4.42856e-06
-7.23443e-06
-5.24178e-06
-5.99493e-06
-5.97677e-06
-4.62857e-06
-6.60456e-06
-3.16133e-06
-7.10137e-06
-1.62438e-06
-7.44692e-06
-5.07741e-08
-7.6284e-06
1.52477e-06
-7.63777e-06
3.0671e-06
-7.47538e-06
4.54315e-06
-7.14663e-06
5.92093e-06
-6.66511e-06
7.17413e-06
-6.04889e-06
8.27897e-06
-5.32284e-06
9.22028e-06
-4.5144e-06
9.98627e-06
-3.65463e-06
1.05747e-05
-2.77354e-06
1.09861e-05
-1.90055e-06
1.12291e-05
-1.06072e-06
1.13135e-05
-2.75714e-07
1.1255e-05
4.38584e-07
1.10686e-05
1.07056e-06
1.0773e-05
1.61406e-06
1.03844e-05
2.06669e-06
9.92138e-06
2.43027e-06
9.39905e-06
2.70912e-06
8.83328e-06
2.91015e-06
8.23667e-06
3.04134e-06
7.62157e-06
3.11169e-06
6.9974e-06
3.12999e-06
6.37302e-06
3.10479e-06
5.75495e-06
3.04359e-06
5.14921e-06
2.95281e-06
4.56022e-06
2.83747e-06
3.99217e-06
2.70125e-06
3.44839e-06
2.54646e-06
2.93228e-06
2.37434e-06
2.44698e-06
2.18527e-06
1.99594e-06
1.97928e-06
1.58266e-06
1.75648e-06
1.21091e-06
1.51781e-06
8.84433e-07
1.26569e-06
6.06786e-07
1.0049e-06
3.80839e-07
7.43389e-07
2.08301e-07
4.93142e-07
8.90504e-08
2.70667e-07
2.07661e-08
9.72255e-08
-1.29627e-09
-2.69576e-08
3.23488e-08
-1.13121e-07
1.97376e-07
-2.60825e-07
4.35088e-07
-4.69902e-07
7.18558e-07
-7.37886e-07
1.02579e-06
-1.0608e-06
1.33973e-06
-1.43387e-06
1.64815e-06
-1.85215e-06
1.94313e-06
-2.31083e-06
2.22017e-06
-2.80558e-06
2.47726e-06
-3.3324e-06
2.71392e-06
-3.88783e-06
2.93043e-06
-4.4685e-06
3.12705e-06
-5.07132e-06
3.30347e-06
-5.69275e-06
3.45834e-06
-6.32913e-06
3.58894e-06
-6.97567e-06
3.69095e-06
-7.62707e-06
3.75841e-06
-8.27619e-06
3.78374e-06
-8.91509e-06
3.75799e-06
-9.53336e-06
3.6711e-06
-1.01198e-05
3.51248e-06
-1.06603e-05
3.27149e-06
-1.11405e-05
2.93836e-06
-1.15428e-05
2.50476e-06
-1.18507e-05
1.96502e-06
-1.20446e-05
1.31657e-06
-1.21076e-05
5.61464e-07
-1.20209e-05
-2.93677e-07
-1.17703e-05
-1.236e-06
-1.13415e-05
-2.24729e-06
-1.07272e-05
-3.30247e-06
-9.9223e-06
-4.37182e-06
-8.93112e-06
-5.42011e-06
-7.76186e-06
-6.41073e-06
-6.43275e-06
-7.30559e-06
-4.96598e-06
-8.07066e-06
-3.39135e-06
-8.67517e-06
-1.74118e-06
-9.09632e-06
-5.17089e-08
-9.31675e-06
1.63975e-06
-9.32867e-06
3.29603e-06
-9.13054e-06
4.88021e-06
-8.73072e-06
6.35969e-06
-8.14376e-06
7.70355e-06
-7.39335e-06
8.88914e-06
-6.50817e-06
9.89701e-06
-5.52361e-06
1.07185e-05
-4.47659e-06
1.13484e-05
-3.40545e-06
1.17917e-05
-2.34494e-06
1.20548e-05
-1.32649e-06
1.21524e-05
-3.7503e-07
1.20981e-05
4.89815e-07
1.19111e-05
1.25527e-06
1.16082e-05
1.91367e-06
1.12093e-05
2.46308e-06
1.07308e-05
2.90541e-06
1.01907e-05
3.24646e-06
9.60332e-06
3.49421e-06
8.98325e-06
3.6586e-06
8.34163e-06
3.75013e-06
7.68921e-06
3.77958e-06
7.03396e-06
3.75698e-06
6.38326e-06
3.69146e-06
5.74246e-06
3.59061e-06
5.11651e-06
3.46056e-06
4.50911e-06
3.30566e-06
3.9239e-06
3.12874e-06
3.36401e-06
2.93118e-06
2.83289e-06
2.71335e-06
2.33403e-06
2.475e-06
1.87147e-06
2.21588e-06
1.4496e-06
1.93645e-06
1.07328e-06
1.63876e-06
7.47476e-07
1.32741e-06
4.76982e-07
1.0106e-06
2.65705e-07
7.01118e-07
1.15985e-07
4.17099e-07
2.78804e-08
1.82182e-07
2.51644e-08
-3.43269e-08
6.63372e-08
-1.41303e-07
3.03582e-07
-3.21124e-07
6.14115e-07
-5.70796e-07
9.67449e-07
-8.84905e-07
1.33912e-06
-1.25673e-06
1.71081e-06
-1.67931e-06
2.07002e-06
-2.146e-06
2.40917e-06
-2.65092e-06
2.7245e-06
-3.18895e-06
3.01481e-06
-3.75582e-06
3.2804e-06
-4.34781e-06
3.52216e-06
-4.96173e-06
3.74074e-06
-5.59436e-06
3.93599e-06
-6.2426e-06
4.10642e-06
-6.90258e-06
4.24886e-06
-7.57015e-06
4.35827e-06
-8.2396e-06
4.42768e-06
-8.90464e-06
4.44826e-06
-9.55665e-06
4.40953e-06
-1.01863e-05
4.29982e-06
-1.07814e-05
4.10671e-06
-1.13292e-05
3.81788e-06
-1.18138e-05
3.42172e-06
-1.22193e-05
2.90856e-06
-1.2527e-05
2.27128e-06
-1.27192e-05
1.50688e-06
-1.27759e-05
6.16809e-07
-1.26802e-05
-3.91244e-07
-1.24136e-05
-1.5036e-06
-1.19636e-05
-2.69871e-06
-1.1318e-05
-3.94855e-06
-1.04737e-05
-5.21706e-06
-9.43022e-06
-6.46347e-06
-8.19905e-06
-7.64207e-06
-6.79595e-06
-8.70816e-06
-5.24728e-06
-9.61881e-06
-3.58259e-06
-1.03391e-05
-1.83797e-06
-1.08399e-05
-5.11108e-08
-1.11029e-05
1.73808e-06
-1.11167e-05
3.48928e-06
-1.08814e-05
5.16461e-06
-1.0405e-05
6.72697e-06
-9.70638e-06
8.14624e-06
-8.81194e-06
9.39472e-06
-7.75767e-06
1.0456e-05
-6.58485e-06
1.13175e-05
-5.33989e-06
1.19792e-05
-4.0679e-06
1.24435e-05
-2.81164e-06
1.27227e-05
-1.60705e-06
1.28287e-05
-4.83959e-07
1.27805e-05
5.36094e-07
1.25944e-05
1.43812e-06
1.22914e-05
2.21444e-06
1.18884e-05
2.86275e-06
1.14051e-05
3.38616e-06
1.0857e-05
3.79128e-06
1.02607e-05
4.08795e-06
9.62864e-06
4.28754e-06
8.97361e-06
4.40259e-06
8.30484e-06
4.44545e-06
7.63128e-06
4.42801e-06
6.95923e-06
4.36076e-06
6.29461e-06
4.25272e-06
5.6416e-06
4.11091e-06
5.0042e-06
3.94051e-06
4.38552e-06
3.74472e-06
3.7889e-06
3.52514e-06
3.21752e-06
3.28195e-06
2.67519e-06
3.01453e-06
2.1662e-06
2.72197e-06
1.69573e-06
2.40399e-06
1.2697e-06
2.06179e-06
8.94816e-07
1.69928e-06
5.78039e-07
1.32432e-06
3.26039e-07
9.50063e-07
1.44115e-07
5.9596e-07
3.51973e-08
2.88184e-07
5.90672e-08
-4.21539e-08
1.08115e-07
-1.71617e-07
4.32235e-07
-3.86091e-07
8.27784e-07
-6.7908e-07
1.25964e-06
-1.04144e-06
1.70072e-06
-1.46323e-06
2.13188e-06
-1.9349e-06
2.54106e-06
-2.44806e-06
2.9218e-06
-2.99565e-06
3.27169e-06
-3.57202e-06
3.59086e-06
-4.17255e-06
3.88077e-06
-4.79361e-06
4.14314e-06
-5.43198e-06
4.37918e-06
-6.08486e-06
4.58894e-06
-6.7491e-06
4.77082e-06
-7.42149e-06
4.92127e-06
-8.09767e-06
5.03454e-06
-8.77287e-06
5.10266e-06
-9.44035e-06
5.11556e-06
-1.00928e-05
5.06132e-06
-1.07202e-05
4.9266e-06
-1.13119e-05
4.69733e-06
-1.18544e-05
4.35929e-06
-1.23337e-05
3.89934e-06
-1.27325e-05
3.30604e-06
-1.30344e-05
2.57125e-06
-1.32196e-05
1.69067e-06
-1.32706e-05
6.65738e-07
-1.31668e-05
-4.96251e-07
-1.28923e-05
-1.77999e-06
-1.2429e-05
-3.16271e-06
-1.17669e-05
-4.61205e-06
-1.08962e-05
-6.08793e-06
-9.81909e-06
-7.54128e-06
-8.54175e-06
-8.91907e-06
-7.08416e-06
-1.01657e-05
-5.47066e-06
-1.12316e-05
-3.73539e-06
-1.20736e-05
-1.9144e-06
-1.26601e-05
-4.88548e-08
-1.29673e-05
1.81914e-06
-1.29841e-05
3.64751e-06
-1.27085e-05
5.3943e-06
-1.21517e-05
7.02286e-06
-1.13339e-05
8.49768e-06
-1.02874e-05
9.7936e-06
-9.05307e-06
1.08892e-05
-7.68189e-06
1.17776e-05
-6.22852e-06
1.24557e-05
-4.74822e-06
1.29331e-05
-3.29e-06
1.32194e-05
-1.89611e-06
1.33329e-05
-5.99084e-07
1.32893e-05
5.76658e-07
1.31096e-05
1.61574e-06
1.28111e-05
2.50973e-06
1.24143e-05
3.25725e-06
1.19353e-05
3.86193e-06
1.13921e-05
4.33205e-06
1.07984e-05
4.6787e-06
1.01683e-05
4.91525e-06
9.5123e-06
5.05578e-06
8.84084e-06
5.11462e-06
8.16118e-06
5.10511e-06
7.48034e-06
5.03939e-06
6.80305e-06
4.92759e-06
6.1339e-06
4.77786e-06
5.47605e-06
4.596e-06
4.8328e-06
4.3857e-06
4.20693e-06
4.14861e-06
3.60176e-06
3.88472e-06
3.02092e-06
3.59284e-06
2.46909e-06
3.27123e-06
1.95197e-06
2.91844e-06
1.47668e-06
2.53437e-06
1.05166e-06
2.12154e-06
6.86468e-07
1.68673e-06
3.91017e-07
1.24271e-06
1.74359e-07
8.09826e-07
4.29616e-08
4.16907e-07
1.00881e-07
-5.08971e-08
1.58609e-07
-2.05632e-07
5.86177e-07
-4.58664e-07
1.08003e-06
-7.98776e-07
1.599e-06
-1.21217e-06
2.11338e-06
-1.685e-06
2.60407e-06
-2.20498e-06
3.06049e-06
-2.76192e-06
3.47833e-06
-3.34785e-06
3.85734e-06
-3.95663e-06
4.19953e-06
-4.58369e-06
4.50782e-06
-5.22541e-06
4.78501e-06
-5.87898e-06
5.03294e-06
-6.54166e-06
5.25194e-06
-7.21093e-06
5.44033e-06
-7.88351e-06
5.59417e-06
-8.55595e-06
5.70704e-06
-9.2232e-06
5.77002e-06
-9.87986e-06
5.77188e-06
-1.05181e-05
5.69929e-06
-1.11298e-05
5.53743e-06
-1.17037e-05
5.27049e-06
-1.22287e-05
4.88273e-06
-1.26897e-05
4.35918e-06
-1.30727e-05
3.68712e-06
-1.33596e-05
2.85676e-06
-1.35342e-05
1.86312e-06
-1.35762e-05
7.06386e-07
-1.34687e-05
-6.05871e-07
-1.31909e-05
-2.0588e-06
-1.27277e-05
-3.62768e-06
-1.20616e-05
-5.27866e-06
-1.11846e-05
-6.96608e-06
-1.00907e-05
-8.63507e-06
-8.78899e-06
-1.02213e-05
-7.29459e-06
-1.16595e-05
-5.6373e-06
-1.28887e-05
-3.84935e-06
-1.38608e-05
-1.9713e-06
-1.45372e-05
-4.50797e-08
-1.48927e-05
1.88397e-06
-1.49119e-05
3.77012e-06
-1.45945e-05
5.57085e-06
-1.39512e-05
7.24436e-06
-1.30078e-05
8.75738e-06
-1.17995e-05
1.00785e-05
-1.03753e-05
1.11916e-05
-8.79465e-06
1.20861e-05
-7.12492e-06
1.2768e-05
-5.43048e-06
1.32442e-05
-3.7688e-06
1.35329e-05
-2.18593e-06
1.36486e-05
-7.17795e-07
1.36129e-05
6.1065e-07
1.34424e-05
1.78313e-06
1.3158e-05
2.79205e-06
1.27757e-05
3.63634e-06
1.23144e-05
4.3211e-06
1.17878e-05
4.85564e-06
1.12115e-05
5.25287e-06
1.05964e-05
5.52758e-06
9.95433e-06
5.69577e-06
9.2933e-06
5.77322e-06
8.62142e-06
5.77501e-06
7.94407e-06
5.71454e-06
7.26651e-06
5.60325e-06
6.59216e-06
5.45014e-06
5.92445e-06
5.26178e-06
5.26587e-06
5.04221e-06
4.61928e-06
4.79317e-06
3.98745e-06
4.51438e-06
3.37409e-06
4.20401e-06
2.78377e-06
3.85924e-06
2.22272e-06
3.47714e-06
1.69895e-06
3.0557e-06
1.22272e-06
2.5953e-06
8.06325e-07
2.1006e-06
4.63603e-07
1.58292e-06
2.08294e-07
1.06261e-06
5.16394e-08
5.71172e-07
1.51517e-07
-6.13304e-08
2.19539e-07
-2.4597e-07
7.70047e-07
-5.43451e-07
1.37681e-06
-9.35989e-07
1.99086e-06
-1.40377e-06
2.58053e-06
-1.92858e-06
3.1283e-06
-2.4953e-06
3.62678e-06
-3.09232e-06
4.07505e-06
-3.71102e-06
4.47592e-06
-4.34527e-06
4.83379e-06
-4.99063e-06
5.15336e-06
-5.64393e-06
5.43857e-06
-6.30254e-06
5.69196e-06
-6.96432e-06
5.9141e-06
-7.62677e-06
6.10325e-06
-8.2874e-06
6.25509e-06
-8.94259e-06
6.36255e-06
-9.5885e-06
6.41588e-06
-1.02194e-05
6.40273e-06
-1.08292e-05
6.30857e-06
-1.14094e-05
6.11715e-06
-1.19514e-05
5.81127e-06
-1.24432e-05
5.37358e-06
-1.28737e-05
4.78782e-06
-1.32274e-05
4.03962e-06
-1.34912e-05
3.11826e-06
-1.36466e-05
2.01722e-06
-1.36788e-05
7.36209e-07
-1.35672e-05
-7.18662e-07
-1.32957e-05
-2.33246e-06
-1.28425e-05
-4.08154e-06
-1.21927e-05
-5.9302e-06
-1.1328e-05
-7.83099e-06
-1.0243e-05
-9.72115e-06
-8.93715e-06
-1.15267e-05
-7.43026e-06
-1.31668e-05
-5.74804e-06
-1.45702e-05
-3.92834e-06
-1.56802e-05
-2.00998e-06
-1.64549e-05
-3.9784e-08
-1.6862e-05
1.93363e-06
-1.6885e-05
3.86124e-06
-1.6521e-05
5.69502e-06
-1.57854e-05
7.39494e-06
-1.47067e-05
8.92156e-06
-1.33271e-05
1.02479e-05
-1.17009e-05
1.13521e-05
-9.90056e-06
1.22342e-05
-8.00685e-06
1.28984e-05
-6.09696e-06
1.33634e-05
-4.23436e-06
1.36437e-05
-2.46913e-06
1.37621e-05
-8.37417e-07
1.37342e-05
6.35379e-07
1.35815e-05
1.93416e-06
1.33187e-05
3.05171e-06
1.29648e-05
3.98838e-06
1.25328e-05
4.75008e-06
1.20387e-05
5.34773e-06
1.14935e-05
5.79538e-06
1.09097e-05
6.10955e-06
1.02955e-05
6.30756e-06
9.66016e-06
6.40684e-06
9.00938e-06
6.42373e-06
8.34925e-06
6.37301e-06
7.68351e-06
6.26713e-06
7.016e-06
6.11603e-06
6.34913e-06
5.92688e-06
5.68553e-06
5.70413e-06
5.0273e-06
5.44958e-06
4.37716e-06
5.16271e-06
3.73823e-06
4.84098e-06
3.11506e-06
4.48042e-06
2.5138e-06
4.07631e-06
1.94313e-06
3.62423e-06
1.41474e-06
3.1215e-06
9.43764e-07
2.56937e-06
5.48435e-07
1.97601e-06
2.48567e-07
1.36027e-06
6.2012e-08
7.55612e-07
2.12688e-07
-7.49058e-08
2.94062e-07
-2.97003e-07
9.91448e-07
-6.47688e-07
1.72687e-06
-1.09957e-06
2.44224e-06
-1.6254e-06
3.10588e-06
-2.20226e-06
3.70477e-06
-2.81276e-06
4.23698e-06
-3.44444e-06
4.70661e-06
-4.08882e-06
5.12032e-06
-4.74013e-06
5.48532e-06
-5.39458e-06
5.80813e-06
-6.04938e-06
6.09386e-06
-6.70255e-06
6.34562e-06
-7.35201e-06
6.56418e-06
-7.99594e-06
6.74767e-06
-8.63168e-06
6.89139e-06
-9.25659e-06
6.9877e-06
-9.8665e-06
7.02607e-06
-1.04573e-05
6.99324e-06
-1.10225e-05
6.87362e-06
-1.1556e-05
6.64984e-06
-1.20489e-05
6.30344e-06
-1.24928e-05
5.81596e-06
-1.28758e-05
5.16979e-06
-1.3188e-05
4.34968e-06
-1.34146e-05
3.34356e-06
-1.35441e-05
2.14429e-06
-1.35592e-05
7.50029e-07
-1.34465e-05
-8.33786e-07
-1.31854e-05
-2.59455e-06
-1.27594e-05
-4.50973e-06
-1.21437e-05
-6.54633e-06
-1.13208e-05
-8.65568e-06
-1.027e-05
-1.07718e-05
-8.99112e-06
-1.28066e-05
-7.49454e-06
-1.46628e-05
-5.81297e-06
-1.62522e-05
-3.97882e-06
-1.75139e-05
-2.03608e-06
-1.83976e-05
-3.31633e-08
-1.88646e-05
1.97361e-06
-1.88908e-05
3.92717e-06
-1.84749e-05
5.7772e-06
-1.76347e-05
7.47794e-06
-1.64088e-05
8.99563e-06
-1.48443e-05
1.02956e-05
-1.30028e-05
1.13655e-05
-1.09703e-05
1.22044e-05
-8.84811e-06
1.28328e-05
-6.7256e-06
1.32681e-05
-4.67235e-06
1.3536e-05
-2.73789e-06
1.36528e-05
-9.5729e-07
1.36402e-05
6.46593e-07
1.35114e-05
2.05987e-06
1.32844e-05
3.27706e-06
1.29706e-05
4.29926e-06
1.25852e-05
5.13373e-06
1.21381e-05
5.79221e-06
1.16417e-05
6.29014e-06
1.1104e-05
6.64504e-06
1.05344e-05
6.87564e-06
9.93885e-06
7.00044e-06
9.32412e-06
7.03709e-06
8.69419e-06
7.0013e-06
8.05346e-06
6.90656e-06
7.40449e-06
6.76353e-06
6.75006e-06
6.58001e-06
6.09194e-06
6.36079e-06
5.43229e-06
6.10784e-06
4.77305e-06
5.8204e-06
4.11709e-06
5.49538e-06
3.46819e-06
5.12764e-06
2.83218e-06
4.7106e-06
2.21759e-06
4.23701e-06
1.63695e-06
3.70031e-06
1.1077e-06
3.09674e-06
6.52808e-07
2.42904e-06
2.9959e-07
1.71161e-06
7.55565e-08
9.77895e-07
2.87585e-07
-9.44775e-08
3.88252e-07
-3.66408e-07
1.26272e-06
-7.82754e-07
2.14271e-06
-1.30233e-06
2.96142e-06
-1.88905e-06
3.69236e-06
-2.516e-06
4.33155e-06
-3.16469e-06
4.88564e-06
-3.8232e-06
5.3652e-06
-4.48397e-06
5.78137e-06
-5.14243e-06
6.14418e-06
-5.79552e-06
6.46182e-06
-6.44129e-06
6.74028e-06
-7.07791e-06
6.98304e-06
-7.70391e-06
7.1909e-06
-8.31722e-06
7.3618e-06
-8.91588e-06
7.49064e-06
-9.4968e-06
7.56926e-06
-1.00571e-05
7.58652e-06
-1.0592e-05
7.52844e-06
-1.10974e-05
7.37864e-06
-1.15667e-05
7.11888e-06
-1.19943e-05
6.72995e-06
-1.23715e-05
6.19242e-06
-1.26915e-05
5.48811e-06
-1.29438e-05
4.60087e-06
-1.31208e-05
3.51826e-06
-1.32099e-05
2.23216e-06
-1.32028e-05
7.40324e-07
-1.3084e-05
-9.53706e-07
-1.2842e-05
-2.83908e-06
-1.24545e-05
-4.89793e-06
-1.19014e-05
-7.10159e-06
-1.11496e-05
-9.40757e-06
-1.01745e-05
-1.17486e-05
-8.95509e-06
-1.40256e-05
-7.50496e-06
-1.61137e-05
-5.84819e-06
-1.79081e-05
-4.02023e-06
-1.93422e-05
-2.05943e-06
-2.03583e-05
-2.55267e-08
-2.08984e-05
2.01332e-06
-2.09297e-05
3.98719e-06
-2.04477e-05
5.83349e-06
-1.94821e-05
7.51134e-06
-1.80863e-05
8.98389e-06
-1.63193e-05
1.0225e-05
-1.42441e-05
1.12183e-05
-1.19668e-05
1.19839e-05
-9.61436e-06
1.25464e-05
-7.29136e-06
1.29402e-05
-5.06701e-06
1.31856e-05
-2.98652e-06
1.3306e-05
-1.07899e-06
1.3313e-05
6.36325e-07
1.32228e-05
2.14851e-06
1.30436e-05
3.45319e-06
1.27886e-05
4.55267e-06
1.24651e-05
5.45461e-06
1.20843e-05
6.17164e-06
1.16525e-05
6.71974e-06
1.1179e-05
7.11737e-06
1.06689e-05
7.38394e-06
1.01293e-05
7.53897e-06
9.56423e-06
7.60082e-06
8.97851e-06
7.58612e-06
8.37497e-06
7.50899e-06
7.75686e-06
7.3808e-06
7.12604e-06
7.20982e-06