/*--------------------------------*- C++ -*----------------------------------*\
| =========                 |                                                 |
| \\      /  F ield         | OpenFOAM: The Open Source CFD Toolbox           |
|  \\    /   O peration     | Version:  2412                                  |
|   \\  /    A nd           | Website:  www.openfoam.com                      |
|    \\/     M anipulation  |                                                 |
\*---------------------------------------------------------------------------*/
FoamFile
{
    version     2.0;
    format      ascii;
    arch        "LSB;label=32;scalar=64";
    class       volScalarField;
    location    "3.9";
    object      p_rgh;
}
// * * * * * * * * * * * * * * * * * * * * * * * * * * * * * * * * * * * * * //

dimensions      [1 -1 -2 0 0 0 0];

internalField   nonuniform List<scalar> 
6400
(
9868.01
9868.01
9867.98
9867.96
9867.94
9867.92
9867.93
9867.96
9868.05
9868.21
9868.47
9868.86
9869.41
9870.17
9871.16
9872.42
9873.99
9875.9
9878.15
9880.76
9883.72
9887.01
9890.6
9894.44
9898.48
9902.66
9906.9
9911.15
9915.3
9919.32
9923.13
9926.69
9929.92
9932.8
9935.29
9937.36
9939
9940.18
9940.9
9941.16
9940.95
9940.3
9939.2
9937.67
9935.74
9933.42
9930.75
9927.75
9924.46
9920.93
9917.19
9913.29
9909.28
9905.22
9901.15
9897.13
9893.2
9889.4
9885.78
9882.35
9879.13
9876.12
9873.33
9870.74
9868.34
9866.12
9864.03
9862.07
9860.23
9858.49
9856.86
9855.32
9853.9
9852.6
9851.45
9850.45
9849.63
9849
9848.58
9848.36
9868
9868
9867.97
9867.95
9867.92
9867.89
9867.89
9867.91
9867.97
9868.11
9868.33
9868.68
9869.2
9869.91
9870.87
9872.09
9873.64
9875.53
9877.78
9880.39
9883.37
9886.7
9890.33
9894.23
9898.33
9902.58
9906.89
9911.2
9915.44
9919.52
9923.39
9926.99
9930.27
9933.18
9935.69
9937.78
9939.42
9940.61
9941.33
9941.58
9941.37
9940.7
9939.59
9938.05
9936.1
9933.76
9931.06
9928.03
9924.71
9921.13
9917.34
9913.39
9909.33
9905.21
9901.09
9897.02
9893.05
9889.22
9885.57
9882.12
9878.89
9875.89
9873.11
9870.54
9868.15
9865.96
9863.89
9861.95
9860.12
9858.38
9856.75
9855.21
9853.77
9852.46
9851.28
9850.27
9849.43
9848.79
9848.36
9848.13
9867.98
9867.98
9867.95
9867.92
9867.88
9867.84
9867.81
9867.81
9867.83
9867.91
9868.07
9868.34
9868.77
9869.4
9870.27
9871.41
9872.9
9874.76
9877
9879.63
9882.66
9886.06
9889.79
9893.81
9898.05
9902.44
9906.9
9911.36
9915.73
9919.94
9923.92
9927.61
9930.97
9933.94
9936.5
9938.62
9940.28
9941.47
9942.2
9942.44
9942.22
9941.53
9940.39
9938.82
9936.83
9934.44
9931.69
9928.59
9925.19
9921.53
9917.65
9913.61
9909.44
9905.22
9901
9896.83
9892.77
9888.86
9885.15
9881.66
9878.42
9875.42
9872.65
9870.11
9867.77
9865.63
9863.61
9861.7
9859.9
9858.18
9856.54
9854.98
9853.52
9852.17
9850.95
9849.9
9849.03
9848.36
9847.91
9847.67
9867.96
9867.96
9867.92
9867.88
9867.82
9867.77
9867.71
9867.66
9867.62
9867.61
9867.67
9867.82
9868.12
9868.62
9869.38
9870.35
9871.77
9873.57
9875.79
9878.45
9881.55
9885.06
9888.95
9893.16
9897.61
9902.22
9906.91
9911.58
9916.16
9920.56
9924.71
9928.55
9932.03
9935.09
9937.72
9939.89
9941.59
9942.79
9943.52
9943.75
9943.51
9942.79
9941.61
9939.98
9937.93
9935.47
9932.63
9929.44
9925.93
9922.14
9918.12
9913.92
9909.6
9905.22
9900.84
9896.52
9892.32
9888.29
9884.49
9880.94
9877.67
9874.68
9871.95
9869.47
9867.2
9865.13
9863.18
9861.35
9859.59
9857.89
9856.25
9854.66
9853.15
9851.73
9850.45
9849.33
9848.4
9847.69
9847.21
9846.97
9867.93
9867.92
9867.88
9867.82
9867.75
9867.68
9867.59
9867.49
9867.37
9867.25
9867.16
9867.14
9867.25
9867.54
9868.1
9868.94
9870.21
9871.91
9874.1
9876.8
9880
9883.67
9887.78
9892.24
9896.99
9901.91
9906.92
9911.9
9916.77
9921.43
9925.81
9929.84
9933.47
9936.66
9939.38
9941.61
9943.34
9944.57
9945.29
9945.51
9945.23
9944.47
9943.24
9941.55
9939.42
9936.86
9933.91
9930.59
9926.93
9922.97
9918.76
9914.36
9909.82
9905.22
9900.61
9896.07
9891.68
9887.49
9883.56
9879.93
9876.62
9873.64
9870.97
9868.58
9866.42
9864.46
9862.63
9860.89
9859.2
9857.54
9855.88
9854.25
9852.66
9851.15
9849.77
9848.55
9847.55
9846.78
9846.27
9846
9867.89
9867.87
9867.81
9867.74
9867.66
9867.58
9867.46
9867.3
9867.08
9866.82
9866.54
9866.3
9866.15
9866.18
9866.46
9867.08
9868.15
9869.73
9871.87
9874.6
9877.93
9881.82
9886.21
9891.03
9896.17
9901.51
9906.94
9912.32
9917.57
9922.56
9927.23
9931.51
9935.33
9938.67
9941.5
9943.8
9945.57
9946.81
9947.53
9947.73
9947.41
9946.6
9945.3
9943.53
9941.3
9938.63
9935.54
9932.05
9928.21
9924.03
9919.58
9914.91
9910.09
9905.19
9900.29
9895.46
9890.81
9886.4
9882.3
9878.57
9875.22
9872.26
9869.67
9867.41
9865.42
9863.63
9861.96
9860.36
9858.77
9857.14
9855.48
9853.78
9852.08
9850.43
9848.9
9847.54
9846.43
9845.59
9845.04
9844.75
9867.85
9867.81
9867.71
9867.62
9867.55
9867.47
9867.34
9867.13
9866.8
9866.36
9865.85
9865.32
9864.83
9864.49
9864.42
9864.73
9865.53
9866.92
9868.98
9871.75
9875.24
9879.41
9884.19
9889.47
9895.11
9900.99
9906.96
9912.86
9918.58
9924
9929.03
9933.59
9937.65
9941.16
9944.11
9946.49
9948.3
9949.55
9950.25
9950.42
9950.05
9949.18
9947.8
9945.93
9943.59
9940.78
9937.53
9933.85
9929.78
9925.35
9920.6
9915.61
9910.43
9905.15
9899.86
9894.67
9889.67
9884.97
9880.65
9876.77
9873.37
9870.46
9867.99
9865.92
9864.16
9862.62
9861.19
9859.78
9858.32
9856.76
9855.07
9853.28
9851.42
9849.57
9847.81
9846.27
9845.01
9844.08
9843.49
9843.19
9867.83
9867.72
9867.56
9867.43
9867.37
9867.34
9867.24
9867
9866.56
9865.93
9865.12
9864.2
9863.27
9862.47
9861.92
9861.79
9862.22
9863.36
9865.3
9868.12
9871.81
9876.33
9881.6
9887.47
9893.78
9900.36
9907.01
9913.56
9919.86
9925.79
9931.25
9936.16
9940.48
9944.18
9947.25
9949.7
9951.54
9952.79
9953.47
9953.59
9953.17
9952.22
9950.75
9948.78
9946.31
9943.35
9939.92
9936.02
9931.69
9926.95
9921.85
9916.45
9910.83
9905.08
9899.31
9893.64
9888.2
9883.12
9878.51
9874.45
9870.99
9868.14
9865.86
9864.06
9862.63
9861.43
9860.33
9859.2
9857.93
9856.44
9854.72
9852.79
9850.7
9848.56
9846.49
9844.67
9843.21
9842.2
9841.6
9841.34
9867.87
9867.6
9867.29
9867.08
9867.09
9867.19
9867.2
9866.97
9866.43
9865.55
9864.38
9862.99
9861.49
9860.06
9858.89
9858.16
9858.09
9858.87
9860.64
9863.49
9867.44
9872.43
9878.34
9884.98
9892.13
9899.58
9907.09
9914.44
9921.47
9928.02
9933.98
9939.28
9943.89
9947.78
9950.97
9953.48
9955.33
9956.57
9957.2
9957.26
9956.77
9955.73
9954.17
9952.08
9949.48
9946.36
9942.73
9938.6
9933.97
9928.88
9923.36
9917.48
9911.32
9904.98
9898.6
9892.33
9886.32
9880.74
9875.75
9871.45
9867.92
9865.17
9863.15
9861.73
9860.76
9860.05
9859.41
9858.66
9857.65
9856.27
9854.5
9852.37
9849.95
9847.39
9844.87
9842.64
9840.91
9839.85
9839.33
9839.18
9868.09
9867.48
9866.82
9866.43
9866.6
9867
9867.23
9867.08
9866.46
9865.32
9863.71
9861.72
9859.5
9857.25
9855.23
9853.71
9852.94
9853.22
9854.74
9857.63
9861.9
9867.49
9874.22
9881.84
9890.09
9898.64
9907.22
9915.57
9923.48
9930.76
9937.31
9943.05
9947.96
9952.04
9955.33
9957.87
9959.7
9960.89
9961.45
9961.44
9960.86
9959.73
9958.06
9955.86
9953.12
9949.84
9946.01
9941.62
9936.68
9931.19
9925.19
9918.74
9911.93
9904.87
9897.72
9890.67
9883.92
9877.69
9872.19
9867.58
9863.96
9861.36
9859.7
9858.81
9858.49
9858.47
9858.47
9858.25
9857.58
9856.35
9854.51
9852.09
9849.22
9846.06
9842.87
9840.02
9837.9
9836.88
9836.68
9836.77
9868.68
9867.42
9865.9
9865.1
9865.74
9866.73
9867.39
9867.44
9866.78
9865.33
9863.19
9860.45
9857.29
9853.98
9850.84
9848.24
9846.53
9846.11
9847.26
9850.17
9854.86
9861.23
9869.04
9877.95
9887.6
9897.57
9907.5
9917.07
9926.02
9934.16
9941.36
9947.57
9952.79
9957.04
9960.38
9962.9
9964.67
9965.76
9966.23
9966.12
9965.43
9964.2
9962.43
9960.13
9957.27
9953.84
9949.81
9945.17
9939.88
9933.96
9927.42
9920.31
9912.71
9904.76
9896.65
9888.59
9880.87
9873.78
9867.59
9862.55
9858.81
9856.42
9855.27
9855.14
9855.73
9856.67
9857.56
9858.06
9857.88
9856.84
9854.9
9852.1
9848.58
9844.56
9840.39
9836.59
9833.84
9833.09
9833.66
9834.29
9870.24
9867.81
9864.14
9862.02
9863.78
9866.25
9867.7
9868.06
9867.37
9865.65
9862.9
9859.24
9854.9
9850.2
9845.58
9841.51
9838.52
9837.13
9837.75
9840.65
9845.88
9853.29
9862.53
9873.13
9884.59
9896.38
9907.99
9919.05
9929.25
9938.37
9946.31
9953.01
9958.5
9962.87
9966.2
9968.63
9970.26
9971.2
9971.53
9971.29
9970.49
9969.16
9967.3
9964.9
9961.95
9958.39
9954.19
9949.3
9943.67
9937.28
9930.14
9922.26
9913.73
9904.69
9895.36
9886.02
9877.03
9868.77
9861.64
9856
9852.08
9849.97
9849.54
9850.47
9852.34
9854.61
9856.76
9858.25
9858.72
9857.92
9855.81
9852.45
9848.06
9842.89
9837.22
9831.62
9827.7
9828.03
9830.69
9832.16
9862.89
9781.55
9822.53
9852.23
9859.81
9865.38
9868.31
9869.11
9868.48
9866.43
9862.94
9858.15
9852.33
9845.87
9839.28
9833.23
9828.46
9825.7
9825.55
9828.41
9834.36
9843.18
9854.34
9867.19
9881.02
9895.11
9908.82
9921.7
9933.37
9943.62
9952.35
9959.54
9965.27
9969.66
9972.87
9975.08
9976.47
9977.18
9977.31
9976.91
9976
9974.58
9972.65
9970.2
9967.19
9963.55
9959.22
9954.12
9948.16
9941.29
9933.48
9924.73
9915.1
9904.72
9893.87
9882.88
9872.19
9862.34
9853.88
9847.37
9843.19
9841.47
9842.04
9844.46
9848.12
9852.28
9856.17
9859.04
9860.37
9859.86
9857.48
9853.38
9847.83
9841.06
9832.81
9823.34
9817.45
9811.29
9788.36
9823.99
9713.74
9486.67
9469.18
9622.54
9854.93
9865.2
9869.14
9870.53
9870.04
9867.65
9863.42
9857.37
9849.77
9841.03
9831.79
9823
9815.73
9811.02
9809.72
9812.46
9819.4
9830.18
9843.99
9859.87
9876.81
9893.87
9910.19
9925.25
9938.65
9950.17
9959.73
9967.37
9973.24
9977.53
9980.46
9982.29
9983.28
9983.63
9983.47
9982.89
9981.87
9980.38
9978.45
9976.01
9973.02
9969.37
9964.97
9959.72
9953.48
9946.13
9937.61
9927.88
9916.94
9904.94
9892.17
9879.06
9866.12
9854.05
9843.65
9835.83
9831.22
9830.07
9832.06
9836.57
9842.76
9849.65
9856.04
9860.82
9863.23
9862.96
9860.12
9855.01
9847.91
9839.12
9827.85
9813.84
9706.21
9440.16
9456.9
9696.95
9726.01
9669.98
9430.37
9472.64
9795.82
9867
9870.17
9871.81
9871.56
9869.28
9864.42
9857.05
9847.36
9835.67
9822.77
9810.12
9799.34
9791.84
9788.87
9791.39
9799.74
9813.36
9830.92
9850.95
9871.99
9892.77
9912.34
9930.01
9945.4
9958.32
9968.75
9976.78
9982.67
9986.67
9989.09
9990.29
9990.66
9990.51
9989.98
9989.19
9988.07
9986.57
9984.7
9982.36
9979.47
9975.92
9971.58
9966.29
9959.84
9952.02
9942.75
9931.91
9919.44
9905.47
9890.35
9874.58
9858.69
9843.53
9830.24
9820.31
9814.94
9814.5
9818.45
9825.87
9835.64
9846.57
9856.66
9864.07
9867.77
9867.58
9863.82
9857.14
9848.13
9837.6
9825.53
9731.84
9402.35
9398.72
9585.58
9682.67
9878.62
9843.32
9499.53
9371.89
9579.64
9865.13
9871.57
9874.48
9874.85
9871.95
9866.6
9857.97
9845.64
9829.57
9811.1
9793.08
9777.73
9766.65
9761.48
9763.68
9774.07
9791.94
9814.86
9840.57
9866.99
9892.46
9915.76
9936.46
9954.12
9968.56
9979.83
9988.15
9993.86
9997.31
9998.86
9999.05
9998.5
9997.66
9996.64
9995.64
9994.52
9993.13
9991.43
9989.28
9986.57
9983.22
9979.09
9973.97
9967.48
9959.32
9949.35
9937.33
9923.03
9906.56
9888.46
9869.49
9850.14
9830.78
9813
9799.9
9793.46
9793.78
9799.94
9810.78
9824.77
9841.71
9858
9869.87
9875.22
9874.58
9869.19
9860.59
9849.55
9835.9
9811.96
9472.79
9270.86
9470.99
9775.96
9811.36
9874.71
9829.13
9368.17
9355.62
9536.65
9864.23
9871.53
9874.6
9876.08
9872.15
9867.19
9858.4
9843.76
9822.13
9795.73
9770.03
9748.27
9732.23
9724.08
9726.13
9740.11
9765.17
9796.03
9829.6
9862.95
9894.17
9922.02
9945.99
9965.88
9981.68
9993.59
10001.9
10007
10009.6
10009.9
10008.7
10006.8
10005
10003.4
10002.3
10001.3
10000.2
9998.78
9996.89
9994.43
9991.38
9987.59
9982.91
9976.57
9968.15
9957.59
9944.66
9928.9
9909.99
9888.42
9865.6
9842.01
9817.12
9791.48
9772.37
9763.51
9764.59
9773.51
9789.56
9808.84
9835.55
9860.91
9878.76
9884.61
9881.82
9873.42
9862.23
9848.36
9832.31
9789.73
9346.38
9243.37
9227.69
9756.24
9801.26
9873.49
9827.73
9714.98
9569.8
9788.95
9873
9865.35
9861.99
9861.35
9866.42
9867.56
9863.05
9848.68
9820.45
9782.59
9745.6
9714.47
9692.1
9680.69
9682.58
9699.94
9735.05
9777
9820.83
9863.44
9900.69
9933.34
9960.39
9982.08
9998.57
10010.2
10017.8
10022.1
10023.6
10022.4
10019.2
10015.4
10012.1
10009.8
10008.7
10008.2
10007.7
10006.7
10005.1
10003.1
10000.5
9997.46
9993.62
9987.33
9978.29
9966.94
9953.51
9936.95
9915.97
9890.53
9863.11
9833.9
9801.66
9766.72
9738.91
9727.63
9729.55
9740.68
9762.66
9795.15
9835.74
9873.4
9900.5
9901.8
9891.32
9874.28
9854.7
9835.17
9822.7
9820.66
9584.82
9244.95
9508.49
9748.86
9797.07
9870.25
9840.89
9804.75
9818.69
9844.39
9864.39
9864.98
9865.14
9862.49
9868.69
9875.09
9874.41
9856.89
9816.48
9761.99
9706.94
9659.85
9626.44
9601.77
9584
9584.83
9606.12
9737.52
9802.03
9858.57
9907.82
9946.38
9976.09
9999.2
10016.2
10028.1
10035.3
10039.2
10039.8
10036.4
10030.3
10023.5
10017.9
10014.7
10013.8
10014.1
10014.6
10014.7
10013.8
10012.2
10010
10007.7
10006.2
10000.3
9990.82
9978.06
9962.39
9941.39
9914.12
9883.59
9853.96
9810.37
9747.43
9625.38
9615.77
9633.34
9661.49
9682.48
9715.27
9766.14
9828.85
9887.96
9922.33
9924.36
9906.31
9878.29
9848.37
9829.7
9812.9
9798.71
9753.98
9710.73
9695.94
9755.93
9788.39
9321.24
9135.23
9128.13
9149.28
9042.61
8967.83
8907.88
8646.15
8197.86
8221.21
8307
8408.1
8343.26
7897.58
7084.44
6091.51
5186.02
4579.29
4028.1
3495.69
3486.2
5470.89
7628.56
8808.3
9341.07
9583.46
9807.7
9947.97
10007.3
10035.1
10051
10060.1
10063.9
10062.9
10050.1
10025.9
9996.05
9970.52
9958.51
9959.39
9966.12
9973.85
9980.04
9983.81
9983.27
9977.33
9977.49
9988.19
9989.33
9966.86
9926.46
9882.83
9776.32
9461.71
9045.45
9263.41
9279.2
8592.32
5455.17
3704.29
4388.02
5084.66
5407.45
5969.07
6985.93
8141.44
8945.14
9246.01
9191.82
8986.16
8769.34
8599.1
8557.22
8374.97
8181.85
8191.38
8345.93
8256.46
8225.77
8549.43
2680.6
2329.78
2213.51
2177.21
2020.54
1852.82
1886.87
2168.33
2553.43
2733.17
2648.93
2461.02
2126.02
1535.14
879.319
400.895
141.426
43.6411
11.3133
8.98581
19.8162
162.19
750.484
1342.99
1893.04
2731.06
3945.05
4981.82
5652.75
5976.75
6128.92
6171.67
6161.43
6061.4
5737.62
5351.63
5010.18
4787.69
4723.66
4789.21
4886.05
4953.57
4991.15
5006.18
5017.72
4958.09
4955.78
5092.93
5159.42
5070.4
4909.75
4726.85
4049.12
2748.59
1620.58
1667.12
1983.15
1086.5
126.475
16.7826
35.9792
92.2821
159.039
340.58
874.084
1855.63
2890.28
3445.5
3499.06
3283.48
2896.07
2322.24
1704.36
1238.68
1020.26
997.794
1075.52
1090.91
1203.32
1464.35
4.28224
3.73341
3.51399
3.5732
3.46554
3.19993
2.98629
2.98477
3.03845
2.90679
2.72022
4.8989
17.5668
21.6736
21.6296
19.455
12.731
6.52881
3.25905
1.76156
2.28025
3.59264
0.417414
-3.02004
3.93024
0.968193
1.84955
1.36017
0.595063
-0.159163
-0.31332
39.4575
55.3692
3.66773
2.04623
2.1379
1.91383
1.7461
1.81514
2.08727
2.54844
3.11289
3.67998
4.14184
4.40477
4.446
4.40524
4.60524
4.88368
4.59413
50.8451
9.48412
11.9221
13.2686
12.6234
6.97515
20.4008
8.91115
6.95976
7.54332
8.15072
9.85076
11.7381
10.1497
11.8287
16.1696
18.9637
11.0296
4.11553
3.44541
3.61504
3.73173
3.78789
3.93687
4.05972
4.10156
4.12464
4.40954
5.05528
5.88275
12.8455
10.1739
3.44706
3.33621
6.47558
8.80071
6.68549
2.80938
2.94697
3.49289
2.92303
2.25991
3.10183
4.50204
11.5457
17.8523
10.3176
3.7436
1.84144
1.13222
0.987613
1.03319
-0.886858
-0.770034
-1.61992
0.599552
5.51316
1.22808
-0.0431017
-0.278443
-0.176642
0.106796
0.399927
0.832201
1.23462
1.37232
1.34353
1.33633
1.45566
1.74305
2.18646
2.71775
3.25198
3.71076
3.99425
4.02834
4.08992
4.37066
4.39457
4.03634
3.45673
6.73224
16.3891
15.5391
13.1257
8.20285
15.8689
9.56626
6.3282
6.76335
6.94224
9.86458
9.68669
4.3974
3.84191
6.06887
7.77003
4.30851
4.20255
3.89065
3.68925
3.6352
3.6582
3.76942
3.91026
3.94925
3.9231
4.20406
12.1584
14.2008
19.476
19.2683
5.56752
3.87826
8.8789
8.62478
3.77309
2.60595
4.59599
4.49317
4.04819
2.02457
1.51194
2.15754
5.58988
5.62244
3.03536
1.22653
1.14012
1.01368
0.654154
-0.00720476
-0.926581
-1.81975
-2.10166
-1.50303
4.34506
2.09033
0.0489747
-0.0580968
0.0330765
0.2529
0.540889
0.946371
1.1087
1.19308
1.19544
0.830749
0.920804
1.22671
1.7042
2.28261
2.97999
3.25145
3.47646
4.9589
8.28834
4.06106
4.00941
3.83905
6.50287
14.2085
15.3056
9.85295
-0.771837
1.90219
17.5546
19.4446
20.4466
16.3945
2.68195
7.01655
9.02373
3.45829
2.83143
6.5656
12.0648
11.743
4.68718
4.73422
3.83019
3.55447
3.54285
3.58579
3.73238
3.81717
3.79858
11.6092
22.968
23.2009
19.1609
13.1963
5.63538
4.11986
8.22902
5.30412
2.46638
2.64293
4.2118
4.21086
4.02868
2.75901
1.17483
1.24939
1.22492
1.13079
1.0637
1.01888
0.990067
1.2056
0.39066
-0.342152
-1.13207
-1.78679
-1.97645
-1.5594
1.91626
3.05754
2.4594
0.400772
0.200558
0.310358
0.369146
0.398043
0.397624
0.361829
0.300028
0.278247
0.368615
0.582136
0.996103
1.67044
2.36455
2.77458
2.86091
6.27644
9.36601
3.71736
3.53189
4.27091
13.6168
13.355
12.9479
4.94291
-1.79741
-2.79807
-0.244099
1.4035
-0.150606
-1.14587
-0.552376
0.129217
0.490108
0.217494
2.2001
6.98574
7.88362
7.58216
8.61353
8.8314
8.79039
3.55503
3.54208
3.58187
3.72126
3.77106
6.53808
22.4069
23.1599
23.4912
16.4765
-0.443069
2.45326
7.73237
8.10867
4.61116
1.94196
2.26439
3.88798
3.65036
3.61981
3.34772
1.11281
1.13443
1.0957
0.998386
0.90609
0.805722
1.98821
2.6774
1.43019
-0.406258
-1.12637
-1.67185
-1.81695
-1.42129
1.43573
3.32803
3.66669
1.50917
0.348104
0.358596
0.347298
0.301931
0.215086
0.0882074
-0.0579553
0.124779
0.507306
0.520348
0.256732
0.755763
1.44934
1.83846
2.09467
4.65191
8.80735
6.05156
2.73686
2.73367
12.321
12.4843
11.5015
10.6159
1.72934
-3.12331
-2.98485
-2.6264
-2.16343
-1.66743
-1.18761
-0.764546
-0.418765
-0.182871
-0.0449272
0.108971
0.395683
2.21475
7.98946
8.57125
8.69334
8.16178
3.5758
3.80579
9.87168
12.13
19.3522
18.3284
11.9592
22.8325
0.476054
-0.100083
0.941559
5.10954
8.54458
9.22438
1.51236
2.42314
2.92992
1.22384
1.248
1.83796
1.29642
1.20592
0.999837
0.862461
0.745046
0.619295
2.15881
2.67138
2.39119
0.0584425
-0.671662
-1.11125
-1.30254
-0.978634
2.25152
3.51999
2.11548
0.380955
0.366122
0.362438
0.314833
0.223805
0.0827745
-0.10655
-0.323079
0.096262
0.104046
0.0880604
0.0575332
-0.0191699
0.473509
0.945045
1.27269
1.70915
8.28971
6.02652
1.89355
1.44787
3.79712
11.7903
10.8421
9.57673
-2.20321
-2.82679
-2.77045
-2.47672
-2.06282
-1.62832
-1.21652
-0.855433
-0.561064
-0.354034
-0.208735
-0.0505926
0.418601
1.63617
2.16666
4.4855
8.1415
7.9558
4.92692
4.01163
16.5087
16.617
16.1201
3.66126
2.17217
3.3895
0.311059
0.261067
0.263707
1.79353
9.33349
9.74355
2.53863
2.97905
1.05288
1.08983
1.20988
1.33185
1.58338
1.29572
0.87967
0.761519
0.629785
0.4889
0.442027
2.69914
2.50754
1.22644
0.051392
0.538676
0.40385
0.571763
1.36576
1.30394
0.341624
0.268072
0.315008
0.307046
0.251126
0.145735
-0.0157625
-0.234329
-0.498608
-0.774153
-0.400015
-0.291875
-0.235494
-0.293752
-0.138313
0.301277
0.532986
0.649946
6.15096
3.06676
1.20755
0.778749
-0.140437
2.35264
6.35725
-0.614029
-3.25286
-2.98224
-2.55136
-2.2911
-1.91731
-1.54955
-1.20038
-0.901027
-0.667584
-0.509653
-0.404964
0.124307
4.25172
5.65108
5.85496
2.69984
0.736602
1.96749
5.25947
4.77813
7.13004
10.6886
3.29438
2.11925
2.16699
2.18366
0.539029
0.489958
0.384348
0.226114
9.54603
9.62229
1.92979
2.93233
1.35322
2.9131
2.69362
1.31309
1.21152
1.00557
0.745655
0.635287
0.516444
0.384256
0.242901
0.904299
2.62731
2.42434
1.00579
0.202476
0.863375
0.951499
0.156665
-0.0912041
0.0733008
0.185327
0.231302
0.226398
0.175389
0.0742748
-0.0819897
-0.300831
-0.577956
-0.883554
-1.159
-1.03097
-0.91379
-0.965472
0.0249521
0.462055
0.288067
0.258072
0.270002
3.22079
0.750454
0.428897
-0.359128
-1.56217
-2.31627
-3.25891
-3.09507
-2.84536
-2.37634
-1.9057
-1.54634
-1.41681
-1.1624
-0.927901
-0.750632
-0.642824
-0.582753
2.2186
5.36281
5.62079
5.43695
2.38296
0.442137
0.658991
3.80826
6.10464
6.40161
2.12647
1.92746
2.17527
2.16443
2.12437
0.697019
0.64016
0.526599
0.204248
9.5881
2.95046
1.12934
1.73369
3.63818
4.2383
4.42499
3.44035
1.00968
0.652452
0.582042
0.502657
0.399417
0.278934
0.153555
0.0265075
1.58685
2.58668
2.43611
0.0403452
-0.119352
-0.0735504
-0.220817
-0.108405
0.017565
0.1028
0.14699
0.145579
0.101418
0.00993834
-0.132049
-0.333593
-0.601453
-0.906477
-1.20171
-1.38912
-1.42625
-1.2627
-0.256319
0.202513
0.414543
0.115248
-0.0770318
3.22577
8.22343
0.977903
-0.328209
-1.47521
-2.42376
-2.7733
-2.71817
-2.48944
-2.20709
-1.74761
-1.36501
-1.15284
-1.11636
-0.944498
-0.819933
-0.756656
-0.606845
3.76265
5.33629
4.96307
0.219583
-0.0584554
0.160057
0.341426
0.561207
2.40517
5.56744
5.39824
1.91571
2.18093
7.65934
5.66821
4.6322
1.17706
0.572584
0.509682
2.56926
1.18624
1.34858
3.66201
4.11607
4.22934
4.32077
4.31404
2.19506
0.451036
0.426982
0.372679
0.280748
0.170868
0.061686
-0.0391148
-0.13715
2.17241
2.47666
0.466004
-0.348291
-0.31624
-0.223228
-0.115277
-0.0208084
0.0464858
0.0812763
0.078687
0.0374796
-0.0461132
-0.176175
-0.3585
-0.598257
-0.882502
-1.17653
-1.37611
-1.44435
-1.31652
-0.979357
0.0333187
0.220516
-0.249317
-0.329774
2.94296
18.6279
6.03722
-0.54503
-1.34686
-1.89685
-2.16049
-2.1925
-2.06971
-1.87268
-1.64505
-1.25638
-1.07989
-1.06556
-0.955234
-0.876008
-0.83463
-0.0918544
4.80074
5.30533
-0.315109
-0.486833
-0.264286
-0.101314
0.259386
2.30558
1.26439
3.63038
5.39949
2.13936
2.95584
11.9815
12.1231
10.0596
9.93845
0.559366
0.634791
0.576754
1.38485
3.21635
4.20398
4.19327
4.21229
4.20729
4.14009
2.13282
0.295524
0.306248
0.253477
0.186943
0.0753291
-0.0217528
-0.113266
-0.17698
-0.0341488
1.51511
0.130822
-0.308329
-0.280959
-0.203151
-0.117232
-0.0444531
0.00740592
0.032364
0.0252986
-0.0158649
-0.0935028
-0.210064
-0.369539
-0.576906
-0.831575
-1.11694
-1.31463
-1.39704
-1.37809
-1.13413
-0.864109
-0.495918
-0.647028
-0.596838
6.74855
20.7467
21.6408
2.06055
-1.11224
-1.43784
-1.6117
-1.68826
-1.65761
-1.54962
-1.40607
-1.25918
-1.10856
-1.01948
-0.957385
-0.822719
0.295789
0.825726
4.49875
1.88027
-0.823702
-0.619423
-0.435369
-0.311575
2.29781
3.49128
0.846017
0.384097
5.13539
1.85123
3.21876
10.0824
11.9364
3.3641
9.12429
0.589808
0.609516
0.652526
3.12666
4.05448
4.30855
4.24281
3.86364
3.16414
2.11414
0.453356
0.205393
0.206945
0.317359
0.472731
0.26963
-0.0838805
-0.194962
-0.230586
-0.263076
0.524494
1.46459
0.0632447
-0.258455
-0.191274
-0.118103
-0.0603825
-0.0217383
-0.0062915
-0.0187444
-0.0604543
-0.132717
-0.23594
-0.372669
-0.548279
-0.767567
-1.03022
-1.25012
-1.25085
-1.22921
-1.172
-0.977568
-0.912884
-0.860969
-0.834823
17.7679
22.4428
22.5703
9.93677
-0.649482
-1.06014
-1.19173
-1.29343
-1.31846
-1.27698
-1.20061
-1.11618
-1.04053
-0.988419
-0.752206
1.08284
1.13665
0.298887
1.50804
-1.03485
-0.862054
-0.695651
-0.559901
-0.476911
2.88323
3.32244
0.777801
-0.28751
3.6309
4.33562
4.11152
2.42365
11.7491
1.56798
2.40963
5.95711
0.601872
1.69871
4.1081
4.53987
4.39402
3.09507
0.459218
0.00248395
-0.00466562
0.0430397
0.11748
0.41045
0.470698
0.344084
0.243016
-0.188059
-0.272176
-0.287681
-0.310708
1.24179
3.7464
0.516334
-0.258862
-0.189955
-0.123332
-0.0763078
-0.0480529
-0.0399811
-0.0571536
-0.0985251
-0.165139
-0.256429
-0.373714
-0.521559
-0.706966
-0.938646
-1.20268
-1.39297
1.61181
8.18743
6.09739
1.96721
3.16804
14.4399
22.7608
23.251
23.2026
19.8669
-0.0775305
-0.792733
-0.907598
-1.01489
-1.0653
-1.06389
-1.03342
-0.994362
-0.960989
-0.948182
0.595192
1.15127
0.520453
-0.937937
-0.904916
-0.933446
-0.860766
-0.698407
-0.633261
-0.578818
-0.157535
3.26186
-0.0464425
-0.519266
1.93498
4.1861
3.58518
2.03097
11.8154
1.41386
7.74663
8.85881
2.24547
4.42055
3.11271
4.54968
3.87158
0.142523
0.0271309
-0.00963482
-0.0157579
0.0144523
0.367371
0.455346
0.346039
0.198894
-0.283955
-0.357345
0.0847979
1.63592
0.150033
4.48874
4.47851
0.264336
-0.282106
-0.199604
-0.136477
-0.0966961
-0.0759377
-0.0750281
-0.0928226
-0.131762
-0.191962
-0.272258
-0.373786
-0.499925
-0.657471
-0.857811
-1.09994
-1.3094
0.576956
18.09
21.1911
22.3979
22.3752
22.7553
23.2342
23.5611
24.0176
13.7124
-0.183982
-0.630381
-0.729719
-0.825004
-0.882672
-0.903244
-0.902993
-0.895376
-0.895498
-0.356676
0.96517
0.342635
-0.889893
-0.965674
-0.963886
-0.864022
-0.46858
-0.708408
-0.660584
-0.615624
-0.602861
3.29715
-0.439562
-0.591825
-0.642862
4.16678
0.53611
0.0296751
12.0681
1.36915
8.7698
8.83144
8.6845
1.92168
2.5108
4.53548
0.452368
0.0721472
0.0111697
-0.0201384
-0.034897
0.135833
0.448671
0.361207
0.0645194
-0.408476
-0.483669
-0.48211
2.51721
5.95627
5.95194
5.97761
6.01796
0.884728
-0.317311
-0.219322
-0.157965
-0.121695
-0.10493
-0.105728
-0.125581
-0.160654
-0.213505
-0.283666
-0.372067
-0.481352
-0.61618
-0.784216
-0.992129
-1.22944
-1.44111
3.70936
22.4938
22.6002
22.7775
23.2088
23.2881
24.0524
15.6682
2.05621
0.203297
-0.52934
-0.612073
-0.691929
-0.749074
-0.781678
-0.801387
-0.815204
-0.841728
0.346241
1.03369
-0.605848
-0.955968
-0.989255
-0.868197
0.6491
0.0797945
-0.735429
-0.64334
-0.596802
-0.446217
3.42828
-0.344566
-0.514984
-0.473438
1.84454
-0.156151
-0.236612
11.5739
1.38866
7.84627
8.93103
2.41959
0.802582
1.80225
2.72547
0.0998162
0.0391463
-0.0041266
-0.0334798
-0.0585477
0.230809
0.397777
0.217869
-0.369435
-0.501714
-0.584933
0.94541
5.96563
5.84563
5.8364
5.91292
5.47518
-0.0328984
-0.3521
-0.244991
-0.183365
-0.148973
-0.134385
-0.136264
-0.153537
-0.184665
-0.230263
-0.290663
-0.36731
-0.46226
-0.577187
-0.713463
-0.874494
-1.07532
-1.33156
-1.50662
5.87205
19.9081
23.3351
23.8466
20.4025
10.8972
0.637795
-0.565263
-0.313538
-0.458559
-0.524479
-0.591696
-0.645938
-0.685897
-0.718667
-0.747315
-0.791441
0.404048
-0.183647
-0.889016
-0.951571
-1.00163
0.833753
1.27062
-0.00248197
-0.693747
-0.59102
-0.536357
-0.152213
3.63538
1.01474
-0.30862
-0.345992
-0.274511
-0.0460883
-0.0646018
9.80227
7.88513
7.98439
1.79535
0.1437
0.646541
3.31732
0.0376161
0.0269954
0.00513907
-0.0222131
-0.0467633
-0.0757301
0.132135
0.380939
-0.253646
-0.389097
-0.524174
-0.56928
3.66768
5.87823
5.79071
5.8257
5.93524
-0.391285
-0.538278
-0.366086
-0.264652
-0.206199
-0.174241
-0.160954
-0.162616
-0.177524
-0.20441
-0.243012
-0.294017
-0.359521
-0.440884
-0.536531
-0.642818
-0.759163
-0.897235
-1.08936
-1.23154
-0.790891
1.56745
4.99018
3.38094
1.96512
-0.389416
-0.482626
-0.493256
-0.402177
-0.404791
-0.452321
-0.509095
-0.560657
-0.605016
-0.645567
-0.684315
-0.738418
0.382473
0.858219
-0.762859
-0.910525
0.3425
1.42102
1.44841
-0.532676
-0.620634
-0.513564
-0.453889
-0.0315164
3.8519
3.21782
-0.0652364
-0.0789724
-0.0541759
0.061633
0.0768827
12.1042
7.974
5.93657
0.0654682
-0.0286718
0.522061
3.23924
0.333336
-0.0308031
-0.0263292
-0.0375475
-0.054241
-0.0797005
-0.0698719
0.159987
-0.243933
-0.349134
-0.468766
-0.596002
0.40774
3.85414
3.55088
-0.00515537
-0.147473
-0.677504
-0.482335
-0.351208
-0.270128
-0.221125
-0.19368
-0.182304
-0.183906
-0.196851
-0.219925
-0.252337
-0.295001
-0.350506
-0.416687
-0.469847
-0.519187
-0.620775
-0.732992
-0.839966
-0.970549
-1.08156
-1.15278
-1.07561
-0.888123
-0.676524
-0.504618
-0.43638
-0.381064
-0.341226
-0.348656
-0.387755
-0.436619
-0.485316
-0.530927
-0.574876
-0.619363
-0.678514
-0.147244
1.53113
1.59808
1.30535
1.56225
1.56695
-0.155644
-0.662262
-0.524964
-0.422724
-0.364555
-0.115182
2.83452
3.40233
0.175624
0.151016
0.12207
0.11273
0.498866
12.7063
7.68728
1.57601
-0.0317024
-0.14656
0.140963
3.1829
1.10493
-0.0721054
-0.0480185
-0.0449902
-0.0526818
-0.0712426
-0.103519
-0.145163
-0.112196
-0.277792
-0.367893
-0.474565
-0.605168
-0.728659
-0.777201
-0.742387
-0.647027
-0.518043
-0.401853
-0.320035
-0.263372
-0.226793
-0.205583
-0.197021
-0.199148
-0.210766
-0.230799
-0.258302
-0.294342
-0.341812
-0.397053
-0.268269
-0.0982553
-0.145236
-0.379051
-0.647958
-0.702967
-0.742633
-0.751099
-0.724209
-0.639088
-0.518741
-0.410004
-0.34388
-0.295896
-0.281449
-0.294893
-0.328326
-0.370891
-0.41532
-0.458702
-0.501692
-0.546263
-0.602336
-0.69612
0.708124
1.75313
1.71633
1.70686
1.08674
-0.627152
-0.539254
-0.418929
-0.333933
-0.270705
-0.0995318
0.0121945
3.52558
0.416115
0.342785
0.265357
0.111881
8.78402
13.0502
6.97049
0.0916921
-0.0791958
-0.223668
1.29131
3.17418
1.17129
-0.0904073
-0.0482396
-0.0411942
-0.0416747
-0.0542252
-0.0794797
-0.0628277
-0.0590395
-0.213115
-0.280205
-0.356964
-0.441142
-0.507032
-0.527629
-0.503632
-0.459015
-0.395689
-0.335895
-0.287202
-0.250279
-0.225079
-0.210326
-0.204948
-0.207994
-0.218746
-0.236428
-0.260267
-0.29141
-0.3326
-0.331258
-0.0223695
-0.0347171
-0.0556735
-0.0786842
-0.276812
-0.520882
-0.523257
-0.511146
-0.489952
-0.450762
-0.380773
-0.317502
-0.26825
-0.237456
-0.231622
-0.245991
-0.274269
-0.310407
-0.348974
-0.387115
-0.424843
-0.463077
-0.506269
-0.575168
-0.629893
-0.0672773
0.449765
-0.0874303
-0.634078
-0.519734
-0.408241
-0.322188
-0.261444
-0.149164
-0.0293847
0.025462
3.66243
2.22637
0.494419
0.393459
0.120143
12.8127
13.4218
7.54272
0.355522
-0.0745632
-0.229982
1.64022
3.23133
0.413242
-0.083105
-0.0350236
-0.0256236
-0.0226045
-0.0319388
-0.0531536
-0.0257461
-0.0200929
-0.166007
-0.216535
-0.271912
-0.326938
-0.36801
-0.3855
-0.382253
-0.354381
-0.320889
-0.287517
-0.257985
-0.234649
-0.218383
-0.20918
-0.206765
-0.210781
-0.220873
-0.236602
-0.257524
-0.284643
-0.320285
-0.226623
0.0346865
0.0199802
0.0158218
0.00766782
-0.184544
-0.367352
-0.318741
-0.320166
-0.367923
-0.341388
-0.292461
-0.246922
-0.211991
-0.190972
-0.187873
-0.201575
-0.225235
-0.255002
-0.286987
-0.318371
-0.348371
-0.376684
-0.403495
-0.438354
-0.479867
-0.508979
-0.505141
-0.49052
-0.437763
-0.367493
-0.300596
-0.248769
-0.210461
-0.117068
0.0488573
0.0732506
0.793483
4.63404
1.20179
0.483275
0.274559
1.91089
13.8556
7.7002
0.901781
-0.0168257
-0.155558
0.811477
3.10414
0.1162
-0.0498454
-0.00859347
-0.00103126
0.00149968
-0.00733876
-0.0268494
-0.0553305
-0.0868124
-0.0997589
-0.165984
-0.209546
-0.248532
-0.277494
-0.292899
-0.29531
-0.285347
-0.267873
-0.249044
-0.23173
-0.21781
-0.208242
-0.203416
-0.203431
-0.208223
-0.217654
-0.231541
-0.249718
-0.272882
-0.302938
-0.299837
-0.0218086
0.0702586
0.0752063
0.0734378
-0.106841
-0.292697
-0.206795
-0.18216
-0.215823
-0.26833
-0.228408
-0.192714
-0.166294
-0.15202
-0.150554
-0.161887
-0.181449
-0.205538
-0.231264
-0.256073
-0.278659
-0.29809
-0.313095
-0.326591
-0.340571
-0.349163
-0.346025
-0.331479
-0.300875
-0.262701
-0.226769
-0.198026
-0.175798
-0.157882
0.00538178
0.0981066
0.112293
4.43768
4.822
0.925682
0.456618
0.383043
10.9272