/*--------------------------------*- C++ -*----------------------------------*\
| =========                 |                                                 |
| \\      /  F ield         | OpenFOAM: The Open Source CFD Toolbox           |
|  \\    /   O peration     | Version:  2412                                  |
|   \\  /    A nd           | Website:  www.openfoam.com                      |
|    \\/     M anipulation  |                                                 |
\*---------------------------------------------------------------------------*/
FoamFile
{
    version     2.0;
    format      ascii;
    arch        "LSB;label=32;scalar=64";
    class       surfaceScalarField;
    location    "9.6";
    object      alphaPhi0.ethanol;
}
// * * * * * * * * * * * * * * * * * * * * * * * * * * * * * * * * * * * * * //

dimensions      [0 3 -1 0 0 0 0];

oriented        oriented;

internalField   nonuniform List<scalar> 
12640
(
1.22715e-05
-1.22715e-05
2.39644e-05
-1.16932e-05
3.63383e-05
-1.2374e-05
4.92166e-05
-1.2878e-05
6.17564e-05
-1.25394e-05
7.29551e-05
-1.11983e-05
8.2132e-05
-9.17665e-06
8.88364e-05
-6.70424e-06
9.28811e-05
-4.04438e-06
9.43914e-05
-1.51e-06
9.36581e-05
7.33393e-07
9.09372e-05
2.72126e-06
8.65429e-05
4.39473e-06
8.0787e-05
5.75557e-06
7.39461e-05
6.8419e-06
6.62936e-05
7.65354e-06
5.8053e-05
8.24012e-06
4.94617e-05
8.59098e-06
4.0733e-05
8.72942e-06
3.20881e-05
8.64561e-06
2.36962e-05
8.39226e-06
1.57649e-05
7.93164e-06
8.4035e-06
7.36147e-06
1.73693e-06
6.66627e-06
-4.13593e-06
5.87238e-06
-9.14358e-06
5.00697e-06
-1.32238e-05
4.07929e-06
-1.63839e-05
3.15936e-06
-1.86316e-05
2.24727e-06
-2.00061e-05
1.37434e-06
-2.04899e-05
4.8371e-07
-2.02362e-05
-2.53683e-07
-1.92495e-05
-9.86487e-07
-1.76097e-05
-1.63946e-06
-1.53928e-05
-2.21654e-06
-1.26785e-05
-2.71399e-06
-9.55622e-06
-3.12182e-06
-6.12015e-06
-3.43571e-06
-2.47107e-06
-3.64887e-06
1.29319e-06
-3.76408e-06
5.07007e-06
-3.77665e-06
8.75223e-06
-3.68191e-06
1.22274e-05
-3.47492e-06
1.53976e-05
-3.17012e-06
1.81718e-05
-2.77412e-06
2.04589e-05
-2.28711e-06
2.21646e-05
-1.70551e-06
2.3196e-05
-1.03099e-06
2.34629e-05
-2.66386e-07
2.2958e-05
5.0527e-07
2.15175e-05
1.44094e-06
1.91506e-05
2.36729e-06
1.5826e-05
3.32485e-06
1.15212e-05
4.30504e-06
6.26201e-06
5.25933e-06
9.80048e-08
6.16416e-06
-6.90129e-06
6.99949e-06
-1.46515e-05
7.7505e-06
-2.3021e-05
8.36978e-06
-3.18227e-05
8.80198e-06
-4.09047e-05
9.08223e-06
-5.00424e-05
9.13783e-06
-5.90438e-05
9.00177e-06
-6.7677e-05
8.63359e-06
-7.5706e-05
8.02961e-06
-8.28721e-05
7.1667e-06
-8.88958e-05
6.0238e-06
-9.34692e-05
4.57303e-06
-9.62963e-05
2.82701e-06
-9.70687e-05
7.7296e-07
-9.55217e-05
-1.5456e-06
-9.1321e-05
-4.19943e-06
-8.44072e-05
-6.91379e-06
-7.49212e-05
-9.48712e-06
-6.33153e-05
-1.16065e-05
-5.04167e-05
-1.28983e-05
-3.71519e-05
-1.3265e-05
-2.44164e-05
-1.27369e-05
-1.24068e-05
-1.20092e-05
-1.24059e-05
1.1529e-05
-2.38009e-05
2.32691e-05
-2.34331e-05
3.72653e-05
-2.63695e-05
5.30601e-05
-2.86722e-05
6.90215e-05
-2.85002e-05
8.34216e-05
-2.55982e-05
9.48685e-05
-2.06232e-05
0.000102524
-1.436e-05
0.000106249
-7.76865e-06
0.000106296
-1.55602e-06
0.000103128
3.90168e-06
9.73582e-05
8.49105e-06
8.95768e-05
1.21777e-05
8.02866e-05
1.5046e-05
6.99572e-05
1.71713e-05
5.89828e-05
1.86291e-05
4.76976e-05
1.95266e-05
3.63846e-05
1.99045e-05
2.53194e-05
1.97949e-05
1.47115e-05
1.92536e-05
4.78206e-06
1.83212e-05
-4.32884e-06
1.7042e-05
-1.2466e-05
1.54984e-05
-1.9538e-05
1.37384e-05
-2.54798e-05
1.18145e-05
-3.02658e-05
9.79334e-06
-3.3899e-05
7.71267e-06
-3.63814e-05
5.64179e-06
-3.77552e-05
3.62103e-06
-3.80524e-05
1.67178e-06
-3.73864e-05
-1.81952e-07
-3.57575e-05
-1.8821e-06
-3.3295e-05
-3.44828e-06
-3.00846e-05
-4.849e-06
-2.621e-05
-6.09005e-06
-2.17521e-05
-7.17059e-06
-1.68055e-05
-8.06724e-06
-1.14777e-05
-8.7623e-06
-5.88466e-06
-9.24077e-06
-1.4983e-07
-9.49798e-06
5.59623e-06
-9.52198e-06
1.12303e-05
-9.31554e-06
1.66278e-05
-8.87217e-06
2.16713e-05
-8.21361e-06
2.62492e-05
-7.35201e-06
3.02572e-05
-6.29514e-06
3.3597e-05
-5.0453e-06
3.61708e-05
-3.60466e-06
3.78788e-05
-1.97419e-06
3.85758e-05
-1.91466e-07
3.8261e-05
1.75612e-06
3.68195e-05
3.80922e-06
3.42073e-05
5.93743e-06
3.03983e-05
8.11456e-06
2.53758e-05
1.02823e-05
1.91251e-05
1.24154e-05
1.16875e-05
1.44378e-05
3.14341e-06
1.62954e-05
-6.39606e-06
1.791e-05
-1.6795e-05
1.92015e-05
-2.78499e-05
2.01377e-05
-3.938e-05
2.06683e-05
-5.11524e-05
2.07747e-05
-6.29034e-05
2.03852e-05
-7.43112e-05
1.94378e-05
-8.50105e-05
1.7866e-05
-9.45956e-05
1.56084e-05
-0.000102559
1.25359e-05
-0.000108407
8.67565e-06
-0.000111528
3.89539e-06
-0.000111271
-1.80146e-06
-0.00010722
-8.25057e-06
-9.90362e-05
-1.50992e-05
-8.69768e-05
-2.15475e-05
-7.18783e-05
-2.67045e-05
-5.51635e-05
-2.96129e-05
-3.86523e-05
-2.97776e-05
-2.40557e-05
-2.73328e-05
-1.18194e-05
-2.42424e-05
-2.42298e-05
1.26593e-05
-3.64602e-05
2.67608e-05
-3.75342e-05
4.4322e-05
-4.39304e-05
6.43874e-05
-4.87373e-05
8.47683e-05
-4.88814e-05
0.000103203
-4.40332e-05
0.000117836
-3.52562e-05
0.000127714
-2.42381e-05
0.000132595
-1.26501e-05
0.000132909
-1.86889e-06
0.000129279
7.5327e-06
0.000122496
1.52743e-05
0.000113345
2.13297e-05
0.000102459
2.59322e-05
9.04144e-05
2.92169e-05
7.76866e-05
3.13576e-05
6.46415e-05
3.25714e-05
5.1615e-05
3.29301e-05
3.88825e-05
3.25268e-05
2.66959e-05
3.14406e-05
1.5272e-05
2.97462e-05
4.77814e-06
2.75373e-05
-4.64513e-06
2.49227e-05
-1.29004e-05
2.19943e-05
-1.99317e-05
1.88463e-05
-2.57058e-05
1.55676e-05
-3.02188e-05
1.22259e-05
-3.34934e-05
8.91701e-06
-3.55719e-05
5.70066e-06
-3.65028e-05
2.60399e-06
-3.63623e-05
-3.21018e-07
-3.51962e-05
-3.04656e-06
-3.31161e-05
-5.52614e-06
-3.02265e-05
-7.73605e-06
-2.66025e-05
-9.71134e-06
-2.2334e-05
-1.14367e-05
-1.7514e-05
-1.28853e-05
-1.22575e-05
-1.40173e-05
-6.70093e-06
-1.47963e-05
-9.8644e-07
-1.52119e-05
4.74359e-06
-1.52518e-05
1.03368e-05
-1.49089e-05
1.5665e-05
-1.42008e-05
2.05944e-05
-1.31435e-05
2.50069e-05
-1.17653e-05
2.87798e-05
-1.00688e-05
3.18205e-05
-8.08651e-06
3.40215e-05
-5.80588e-06
3.52672e-05
-3.2199e-06
3.54563e-05
-3.80249e-07
3.45224e-05
2.6905e-06
3.23932e-05
5.93902e-06
2.90101e-05
9.32131e-06
2.43308e-05
1.27946e-05
1.83234e-05
1.62907e-05
1.10005e-05
1.97392e-05
2.40457e-06
2.30346e-05
-7.45514e-06
2.61558e-05
-1.84e-05
2.88552e-05
-3.02604e-05
3.10618e-05
-4.28773e-05
3.27543e-05
-5.60423e-05
3.3833e-05
-6.95113e-05
3.42434e-05
-8.29874e-05
3.3861e-05
-9.61196e-05
3.25696e-05
-0.000108501
3.02462e-05
-0.000119618
2.67245e-05
-0.000128981
2.18978e-05
-0.000135808
1.5503e-05
-0.000139358
7.44649e-06
-0.000138828
-2.33146e-06
-0.000133462
-1.36181e-05
-0.000122933
-2.56286e-05
-0.000107477
-3.70027e-05
-8.81292e-05
-4.60497e-05
-6.68046e-05
-5.09375e-05
-4.58804e-05
-5.07011e-05
-2.75699e-05
-4.56388e-05
-1.29354e-05
-3.88824e-05
-3.71637e-05
1.40952e-05
-5.05552e-05
3.11154e-05
-5.45539e-05
5.27113e-05
-6.55263e-05
7.75019e-05
-7.35282e-05
0.000102476
-7.38555e-05
0.000124688
-6.62455e-05
0.000141997
-5.25652e-05
0.000153357
-3.5598e-05
0.000158816
-1.81086e-05
0.000158922
-1.97523e-06
0.000154613
1.18423e-05
0.000146871
2.30168e-05
0.000136515
3.16861e-05
0.000124325
3.81215e-05
0.000110912
4.26288e-05
9.67592e-05
4.55104e-05
8.22759e-05
4.70563e-05
6.78149e-05
4.73923e-05
5.36803e-05
4.66613e-05
4.01283e-05
4.49914e-05
2.73983e-05
4.24739e-05
1.56495e-05
3.92833e-05
5.04897e-06
3.552e-05
-4.29987e-06
3.13405e-05
-1.23355e-05
2.68805e-05
-1.90357e-05
2.22678e-05
-2.43882e-05
1.75788e-05
-2.8437e-05
1.29666e-05
-3.12222e-05
8.48704e-06
-3.27941e-05
4.17744e-06
-3.32404e-05
1.27233e-07
-3.2639e-05
-3.64595e-06
-3.10797e-05
-7.08341e-06
-2.86616e-05
-1.01529e-05
-2.54699e-05
-1.2902e-05
-2.1584e-05
-1.53222e-05
-1.71188e-05
-1.73502e-05
-1.21964e-05
-1.89393e-05
-6.94933e-06
-2.0043e-05
-1.52728e-06
-2.06334e-05
3.91247e-06
-2.0691e-05
9.21083e-06
-2.02067e-05
1.42259e-05
-1.92154e-05
1.88168e-05
-1.77341e-05
2.28534e-05
-1.58016e-05
2.6227e-05
-1.34419e-05
2.88174e-05
-1.06763e-05
3.05184e-05
-7.50617e-06
3.12289e-05
-3.9298e-06
3.08403e-05
8.90793e-09
2.92728e-05
4.25848e-06
2.64472e-05
8.76513e-06
2.22961e-05
1.34729e-05
1.67803e-05
1.83108e-05
9.85156e-06
2.32198e-05
1.52257e-06
2.80684e-05
-8.22262e-06
3.27798e-05
-1.9175e-05
3.7108e-05
-3.13412e-05
4.10211e-05
-4.45384e-05
4.42584e-05
-5.85307e-05
4.6746e-05
-7.30942e-05
4.8396e-05
-8.79809e-05
4.91299e-05
-0.000102877
4.87566e-05
-0.000117424
4.71165e-05
-0.000131205
4.40261e-05
-0.000143685
3.9204e-05
-0.000154182
3.23943e-05
-0.000162026
2.33476e-05
-0.000166266
1.16867e-05
-0.000165879
-2.71882e-06
-0.000159961
-1.95363e-05
-0.000147864
-3.77253e-05
-0.000129604
-5.5261e-05
-0.000106309
-6.93449e-05
-8.02117e-05
-7.70365e-05
-5.44505e-05
-7.64607e-05
-3.20256e-05
-6.80646e-05
-1.43913e-05
-5.65186e-05
-5.15501e-05
1.5727e-05
-6.6282e-05
3.64239e-05
-7.52505e-05
6.34376e-05
-9.25402e-05
9.42359e-05
-0.000104327
0.000124526
-0.000104145
0.000150333
-9.20528e-05
0.000169181
-7.14133e-05
0.000180414
-4.68303e-05
0.000184629
-2.23239e-05
0.000183022
-3.68636e-07
0.000176874
1.79889e-05
0.00016732
3.25694e-05
0.000155327
4.3679e-05
0.0001416
5.18483e-05
0.000126717
5.75125e-05
0.000111158
6.10687e-05
9.53172e-05
6.28951e-05
7.95606e-05
6.31472e-05
6.41821e-05
6.20387e-05
4.94692e-05
5.97035e-05
3.56239e-05
5.63184e-05
2.28887e-05
5.20179e-05
1.13906e-05
4.70178e-05
1.23356e-06
4.14971e-05
-7.51182e-06
3.56252e-05
-1.48236e-05
2.95786e-05
-2.07402e-05
2.34942e-05
-2.52513e-05
1.74767e-05
-2.84498e-05
1.16849e-05
-3.03963e-05
6.12337e-06
-3.12056e-05
9.35904e-07
-3.09479e-05
-3.90454e-06
-2.97127e-05
-8.31934e-06
-2.75805e-05
-1.22857e-05
-2.46546e-05
-1.58283e-05
-2.10377e-05
-1.89389e-05
-1.68328e-05
-2.15545e-05
-1.2157e-05
-2.36144e-05
-7.13603e-06
-2.50632e-05
-1.9232e-06
-2.58457e-05
3.31724e-06
-2.59311e-05
8.42297e-06
-2.53121e-05
1.32153e-05
-2.40072e-05
1.75886e-05
-2.21065e-05
2.13983e-05
-1.96103e-05
2.4521e-05
-1.65637e-05
2.68507e-05
-1.3005e-05
2.8266e-05
-8.92059e-06
2.86693e-05
-4.33234e-06
2.79505e-05
7.285e-07
2.60254e-05
6.18425e-06
2.27882e-05
1.20031e-05
1.8181e-05
1.80807e-05
1.21227e-05
2.43695e-05
4.58674e-06
3.0756e-05
-4.44124e-06
3.70967e-05
-1.49298e-05
4.32687e-05
-2.68645e-05
4.90427e-05
-4.00415e-05
5.41982e-05
-5.43293e-05
5.85461e-05
-6.95033e-05
6.19196e-05
-8.53507e-05
6.42431e-05
-0.000101555
6.53342e-05
-0.000117813
6.50145e-05
-0.000133781
6.30855e-05
-0.000149048
5.92929e-05
-0.000163125
5.32796e-05
-0.000175411
4.46806e-05
-0.000185061
3.29976e-05
-0.000191201
1.78268e-05
-0.000192593
-1.32787e-06
-0.000187995
-2.41337e-05
-0.00017605
-4.96694e-05
-0.000156168
-7.51424e-05
-0.000129128
-9.63865e-05
-9.75019e-05
-0.000108665
-6.54446e-05
-0.000108516
-3.75047e-05
-9.60066e-05
-1.60967e-05
-7.79225e-05
-6.76473e-05
1.8335e-05
-8.46168e-05
4.50612e-05
-0.000101976
8.05094e-05
-0.000127988
0.000120286
-0.000144103
0.00015743
-0.000141289
0.000186457
-0.000121079
0.000204959
-8.99159e-05
0.000213386
-5.52574e-05
0.000213703
-2.26424e-05
0.000208069
5.26477e-06
0.000198305
2.77519e-05
0.000185731
4.51428e-05
0.000171221
5.81874e-05
0.000155399
6.76679e-05
0.000138693
7.4217e-05
0.000121484
7.82774e-05
0.000104144
8.02352e-05
8.69994e-05
8.02916e-05
7.03466e-05
7.86921e-05
5.44644e-05
7.55872e-05
3.96189e-05
7.11662e-05
2.59625e-05
6.56768e-05
1.36974e-05
5.92849e-05
2.91558e-06
5.22806e-05
-6.31841e-06
4.48606e-05
-1.40154e-05
3.72762e-05
-2.01901e-05
2.96686e-05
-2.4876e-05
2.2162e-05
-2.82021e-05
1.50103e-05
-3.0252e-05
8.17264e-06
-3.11159e-05
1.79924e-06
-3.09168e-05
-4.10376e-06
-2.97351e-05
-9.50075e-06
-2.76605e-05
-1.43595e-05
-2.47891e-05
-1.86987e-05
-2.12272e-05
-2.24997e-05
-1.70696e-05
-2.57111e-05
-1.24269e-05
-2.82564e-05
-7.42284e-06
-3.00669e-05
-2.21061e-06
-3.10576e-05
3.04335e-06
-3.11846e-05
8.15723e-06
-3.04252e-05
1.29929e-05
-2.8842e-05
1.73533e-05
-2.64661e-05
2.11579e-05
-2.34141e-05
2.42704e-05
-1.96754e-05
2.65959e-05
-1.53298e-05
2.80046e-05
-1.03286e-05
2.83835e-05
-4.7104e-06
2.76278e-05
1.48492e-06
2.56673e-05
8.14541e-06
2.23158e-05
1.53551e-05
1.75339e-05
2.2863e-05
1.12147e-05
3.06889e-05
3.29886e-06
3.86721e-05
-6.24316e-06
4.66389e-05
-1.7378e-05
5.44039e-05
-3.00101e-05
6.16751e-05
-4.41402e-05
6.83283e-05
-5.95023e-05
7.39079e-05
-7.58975e-05
7.83145e-05
-9.30686e-05
8.14139e-05
-0.000110712
8.2978e-05
-0.000128521
8.28234e-05
-0.000146159
8.07239e-05
-0.0001633
7.64332e-05
-0.000179571
6.95498e-05
-0.00019445
5.95589e-05
-0.000207327
4.58748e-05
-0.000217236
2.77356e-05
-0.000222891
4.32656e-06
-0.000222415
-2.46093e-05
-0.000213405
-5.86775e-05
-0.0001938
-9.47485e-05
-0.000163301
-0.000126887
-0.000124464
-0.000147499
-8.30579e-05
-0.000149921
-4.62843e-05
-0.00013278
-1.87293e-05
-0.000105474
-8.63794e-05
2.27819e-05
-0.000107398
5.96228e-05
-0.000138816
0.000108597
-0.000176962
0.000161125
-0.000196631
0.000206588
-0.000186751
0.000237906
-0.000152397
0.000253358
-0.000105367
0.000255431
-5.73311e-05
0.000248333
-1.55452e-05
0.000235856
1.77417e-05
0.000220435
4.31697e-05
0.000203418
6.21593e-05
0.000185477
7.61288e-05
0.000166922
8.62219e-05
0.000147959
9.31775e-05
0.000128781
9.74546e-05
0.000109664
9.93505e-05
9.08754e-05
9.90792e-05
7.27573e-05
9.68094e-05
5.55855e-05
9.27585e-05
3.95728e-05
8.7179e-05
2.49691e-05
8.0281e-05
1.20117e-05
7.22428e-05
7.11873e-07
6.35809e-05
-8.87925e-06
5.44524e-05
-1.6747e-05
4.51451e-05
-2.29524e-05
3.58752e-05
-2.7585e-05
2.67962e-05
-3.07502e-05
1.81773e-05
-3.25856e-05
1.001e-05
-3.32223e-05
2.43761e-06
-3.27877e-05
-4.53659e-06
-3.13887e-05
-1.08984e-05
-2.91155e-05
-1.66315e-05
-2.60579e-05
-2.17554e-05
-2.23151e-05
-2.62417e-05
-1.79687e-05
-3.00567e-05
-1.31161e-05
-3.31084e-05
-7.87998e-06
-3.53023e-05
-2.41661e-06
-3.65204e-05
3.10095e-06
-3.67016e-05
8.49205e-06
-3.58158e-05
1.35661e-05
-3.39156e-05
1.82053e-05
-3.11048e-05
2.22688e-05
-2.74771e-05
2.56376e-05
-2.30437e-05
2.82037e-05
-1.78952e-05
2.98775e-05
-1.20017e-05
3.05478e-05
-5.38002e-06
3.00802e-05
1.95302e-06
2.83363e-05
9.88964e-06
2.51757e-05
1.85158e-05
2.04887e-05
2.75501e-05
1.41542e-05
3.70234e-05
6.04465e-06
4.67817e-05
-3.84018e-06
5.65238e-05
-1.55366e-05
6.61002e-05
-2.90662e-05
7.52044e-05
-4.40752e-05
8.33368e-05
-6.05925e-05
9.04242e-05
-7.83603e-05
9.60809e-05
-9.7082e-05
0.000100134
-0.000116429
0.000102324
-0.000136101
0.000102494
-0.000155818
0.00010044
-0.000175294
9.59101e-05
-0.000194371
8.86262e-05
-0.000212821
7.80083e-05
-0.000230331
6.33834e-05
-0.000246242
4.36462e-05
-0.000259118
1.72031e-05
-0.0002663
-1.74255e-05
-0.000263733
-6.12431e-05
-0.000247178
-0.000111302
-0.000214071
-0.000159993
-0.000166515
-0.000195052
-0.000111888
-0.000204548
-6.11806e-05
-0.000183485
-2.31217e-05
-0.000143534
-0.0001095
2.97767e-05
-0.000137175
8.19251e-05
-0.000190964
0.000148948
-0.000243985
0.000216257
-0.00026394
0.000269624
-0.000240118
0.000301456
-0.000184229
0.000311529
-0.00011544
0.000304578
-5.03804e-05
0.00028737
1.66219e-06
0.000265711
3.94022e-05
0.000243081
6.5799e-05
0.00022067
8.45686e-05
0.00019868
9.81163e-05
0.000176984
0.000107917
0.00015541
0.000114749
0.000133938
0.000118924
0.00011271
0.000120576
9.20133e-05
0.000119773
7.21281e-05
0.000116692
5.33981e-05
0.000111486
3.61493e-05
0.000104425
2.06386e-05
9.57897e-05
6.82135e-06
8.60588e-05
-4.99558e-06
7.53976e-05
-1.48277e-05
6.42853e-05
-2.27068e-05
5.30257e-05
-2.87239e-05
4.18945e-05
-3.30488e-05
3.11232e-05
-3.579e-05
2.09207e-05
-3.71237e-05
1.13453e-05
-3.72533e-05
2.56806e-06
-3.63191e-05
-5.47052e-06
-3.445e-05
-1.27676e-05
-3.17412e-05
-1.93407e-05
-2.82951e-05
-2.5202e-05
-2.41651e-05
-3.03723e-05
-1.94292e-05
-3.47931e-05
-1.41718e-05
-3.8366e-05
-8.50446e-06
-4.097e-05
-2.58816e-06
-4.24366e-05
3.39133e-06
-4.26807e-05
9.23585e-06
-4.16597e-05
1.4781e-05
-3.94598e-05
1.9885e-05
-3.62077e-05
2.43996e-05
-3.19903e-05
2.82786e-05
-2.69213e-05
3.13779e-05
-2.09932e-05
3.36252e-05
-1.42479e-05
3.48809e-05
-6.63472e-06
3.49717e-05
1.86275e-06
3.37197e-05
1.1142e-05
3.10453e-05
2.11904e-05
2.66944e-05
3.1901e-05
2.05547e-05
4.31629e-05
1.24207e-05
5.49156e-05
2.21594e-06
6.67283e-05
-1.0053e-05
7.83688e-05
-2.42461e-05
8.93968e-05
-4.04444e-05
9.95339e-05
-5.83735e-05
0.000108352
-7.77668e-05
0.000115473
-9.82752e-05
0.000120642
-0.000119642
0.00012369
-0.00014152
0.000124371
-0.000163609
0.00012253
-0.00018577
0.000118071
-0.000208079
0.000110936
-0.0002307
0.000100629
-0.00025388
8.65626e-05
-0.000277343
6.71107e-05
-0.000299718
3.95791e-05
-0.000317155
1.37958e-08
-0.000323687
-5.471e-05
-0.000312293
-0.000122696
-0.000278457
-0.000193827
-0.000222618
-0.000250889
-0.000152889
-0.000274277
-8.38117e-05
-0.00025256
-3.01765e-05
-0.000197171
-0.000139674
3.92758e-05
-0.00017645
0.00011028
-0.00026197
0.000195232
-0.000328936
0.000274005
-0.000342713
0.000331347
-0.00029746
0.000361377
-0.000214258
0.000365492
-0.000119554
0.000350114
-3.50027e-05
0.000323587
2.81884e-05
0.000293474
6.95145e-05
0.00026394
9.53332e-05
0.000236417
0.000112091
0.00021062
0.000123913
0.000185825
0.000132711
0.000161584
0.00013899
0.000137603
0.000142905
0.00011401
0.00014417
9.10851e-05
0.000142699
6.91791e-05
0.000138599
4.86318e-05
0.000132034
2.98703e-05
0.000123188
1.30948e-05
0.000112567
-1.44377e-06
0.000100599
-1.37084e-05
8.76633e-05
-2.36632e-05
7.42411e-05
-3.13827e-05
6.07456e-05
-3.70349e-05
4.75464e-05
-4.07818e-05
3.48692e-05
-4.28198e-05
2.29576e-05
-4.33993e-05
1.19238e-05
-4.27532e-05
1.92097e-06
-4.10706e-05
-7.15377e-06
-3.85114e-05
-1.53271e-05
-3.51749e-05
-2.26772e-05
-3.11509e-05
-2.92259e-05
-2.648e-05
-3.50431e-05
-2.12258e-05
-4.00471e-05
-1.54485e-05
-4.41428e-05
-9.24296e-06
-4.71747e-05
-2.75963e-06
-4.8919e-05
3.79767e-06
-4.92368e-05
1.02225e-05
-4.80831e-05
1.63571e-05
-4.55929e-05
2.20593e-05
-4.19083e-05
2.72127e-05
-3.71423e-05
3.17402e-05
-3.14475e-05
3.55919e-05
-2.48438e-05
3.86347e-05
-1.72899e-05
4.07555e-05
-8.7549e-06
4.17443e-05
8.74347e-07
4.13633e-05
1.15233e-05
3.94428e-05
2.31112e-05
3.56787e-05
3.56653e-05
2.98348e-05
4.9007e-05
2.1834e-05
6.29165e-05
1.14595e-05
7.71029e-05
-1.29507e-06
9.11236e-05
-1.64814e-05
0.000104583
-3.39329e-05
0.000116985
-5.34643e-05
0.000127883
-7.47443e-05
0.000136752
-9.74363e-05
0.000143334
-0.000121106
0.00014736
-0.000145392
0.000148658
-0.000170035
0.000147173
-0.000194974
0.000143009
-0.000220447
0.000136409
-0.000247
0.000127182
-0.000275416
0.000114978
-0.00030586
9.75553e-05
-0.000336772
7.04901e-05
-0.000363445
2.66857e-05
-0.000377999
-4.01572e-05
-0.00037238
-0.000128315
-0.000340249
-0.000225957
-0.000280617
-0.000310523
-0.000199539
-0.000355354
-0.000112419
-0.00033968
-3.98366e-05
-0.000269751
-0.000179511
5.05218e-05
-0.000226972
0.000138181
-0.00034963
0.00023333
-0.000424085
0.000313548
-0.00042293
0.000367707
-0.000351618
0.000393625
-0.000240177
0.000394364
-0.000120293
0.000375787
-1.64265e-05
0.000345691
5.82839e-05
0.000312011
0.000103194
0.000279281
0.000128063
0.000248977
0.000142397
0.000220674
0.000152217
0.000193524
0.000159864
0.000166798
0.000165718
0.00014026
0.000169444
0.000114053
0.000170377
8.85302e-05
0.000168222
6.42298e-05
0.000162898
4.16282e-05
0.000154635
2.11209e-05
0.000143695
3.03625e-06
0.000130651
-1.23859e-05
0.00011602
-2.50839e-05
0.000100361
-3.5023e-05
8.41794e-05
-4.24486e-05
6.81702e-05
-4.74618e-05
5.25585e-05
-5.03597e-05
3.77664e-05
-5.14257e-05
2.40234e-05
-5.09816e-05
1.14798e-05
-4.9248e-05
1.87833e-07
-4.65361e-05
-9.86502e-06
-4.30149e-05
-1.88475e-05
-3.88685e-05
-2.68231e-05
-3.41337e-05
-3.39602e-05
-2.88731e-05
-4.03032e-05
-2.30625e-05
-4.58571e-05
-1.67146e-05
-5.04901e-05
-9.9807e-06
-5.39079e-05
-2.95464e-06
-5.59442e-05
4.15863e-06
-5.6349e-05
1.11624e-05
-5.50858e-05
1.78952e-05
-5.23246e-05
2.42359e-05
-4.82479e-05
3.01396e-05
-4.3045e-05
3.55383e-05
-3.68452e-05
4.03544e-05
-2.96591e-05
4.44692e-05
-2.14041e-05
4.77254e-05
-1.20105e-05
4.98957e-05
-1.29554e-06
5.07136e-05
1.07057e-05
4.97672e-05
2.40578e-05
4.69572e-05
3.84755e-05
4.17507e-05
5.42137e-05
3.39921e-05
7.06755e-05
2.3528e-05
8.75677e-05
1.02109e-05
0.000104442
-5.95715e-06
0.000120752
-2.48704e-05
0.000135899
-4.6245e-05
0.000149258
-6.97662e-05
0.000160274
-9.49421e-05
0.000168509
-0.000121267
0.000173684
-0.000148204
0.000175595
-0.000175429
0.000174399
-0.000202811
0.00017039
-0.000230616
0.000164213
-0.000259701
0.000156266
-0.000290835
0.000146113
-0.000324355
0.000131075
-0.00035846
0.000104593
-0.000388368
5.65926e-05
-0.000405492
-2.30346e-05
-0.000403444
-0.000130362
-0.000375822
-0.000253578
-0.000319881
-0.000366465
-0.000237675
-0.000437559
-0.000140479
-0.000436877
-5.11414e-05
-0.000359087
-0.000230654
6.07968e-05
-0.000287769
0.00015589
-0.000444723
0.00024728
-0.000515475
0.000317083
-0.000492733
0.000361472
-0.000396008
0.000382575
-0.000261282
0.000383617
-0.000121335
0.000369038
-1.84883e-06
0.000344619
8.27043e-05
0.000315588
0.000132225
0.000285771
0.00015788
0.000256754
0.000171414
0.00022839
0.000180579
0.000200086
0.000188166
0.000171331
0.00019447
0.000142181
0.000198592
0.000113014
0.000199542
8.45241e-05
0.00019671
5.7412e-05
0.00019001
3.2352e-05
0.000179695
9.77687e-06
0.00016627
-9.80406e-06
0.000150232
-2.61416e-05
0.000132359
-3.91654e-05
0.000113386
-4.90222e-05
9.40376e-05
-5.58242e-05
7.49735e-05
-5.98963e-05
5.66321e-05
-6.16064e-05
3.94778e-05
-6.12781e-05
2.36962e-05
-5.93215e-05
9.52384e-06
-5.61412e-05
-2.99233e-06
-5.20198e-05
-1.39867e-05
-4.7312e-05
-2.35558e-05
-4.21641e-05
-3.19715e-05
-3.66123e-05
-3.95125e-05
-3.07023e-05
-4.62136e-05
-2.44302e-05
-5.21293e-05
-1.7726e-05
-5.7194e-05
-1.05964e-05
-6.1037e-05
-3.19897e-06
-6.33409e-05
4.31275e-06
-6.38597e-05
1.17835e-05
-6.25553e-05
1.905e-05
-5.959e-05
2.60501e-05
-5.52471e-05
3.27414e-05
-4.97355e-05
3.912e-05
-4.32234e-05
4.51287e-05
-3.56675e-05
5.06468e-05
-2.6922e-05
5.53542e-05
-1.67179e-05
5.90736e-05
-5.01478e-06
6.14161e-05
8.36329e-06
6.20042e-05
2.34696e-05
6.02979e-05
4.01819e-05
5.60955e-05
5.84162e-05
4.89481e-05
7.78234e-05
3.8564e-05
9.79525e-05
2.47611e-05
0.000118245
7.49639e-06
0.000138018
-1.30847e-05
0.000156481
-3.66629e-05
0.000172837
-6.28044e-05
0.000186416
-9.09327e-05
0.000196638
-0.000120285
0.000203038
-0.00015022
0.000205531
-0.000180033
0.000204214
-0.000209428
0.000199786
-0.000238336
0.000193121
-0.000267252
0.000185183
-0.000296806
0.000175668
-0.000326918
0.000161186
-0.000355804
0.000133479
-0.00037944
8.02284e-05
-0.000393009
-9.46347e-06
-0.000390639
-0.000132729
-0.000368676
-0.000275534
-0.000323286
-0.000411856
-0.000251982
-0.000508863
-0.000158567
-0.000530291
-6.14068e-05
-0.000456249
-0.000292061
6.64783e-05
-0.000354247
0.000155742
-0.000533986
0.000230116
-0.000589849
0.000281428
-0.000544045
0.000313312
-0.000427892
0.000330668
-0.000278639
0.000336582
-0.000127249
0.000333027
1.70505e-06
0.000321756
9.39752e-05
0.000304708
0.000149271
0.000283776
0.000178809
0.00026009
0.000195099
0.000234157
0.000206512
0.00020583
0.000216493
0.000175292
0.00022501
0.000143261
0.000230626
0.000110644
0.000232161
7.84944e-05
0.000228862
4.79314e-05
0.000220575
1.98123e-05
0.000207815
-5.12712e-06
0.000191211
-2.63572e-05
0.000171464
-4.36221e-05
0.000149625
-5.6859e-05
0.000126624
-6.62421e-05
0.000103422
-7.20499e-05
8.07833e-05
-7.46816e-05
5.92657e-05
-7.457e-05
3.93678e-05
-7.22975e-05
2.14249e-05
-6.83502e-05
5.57713e-06
-6.31962e-05
-8.14619e-06
-5.73325e-05
-1.98505e-05
-5.10733e-05
-2.98154e-05
-4.46673e-05
-3.8378e-05
-3.82587e-05
-4.59214e-05
-3.17443e-05
-5.27283e-05
-2.50586e-05
-5.88151e-05
-1.81767e-05
-6.40758e-05
-1.09835e-05
-6.82299e-05
-3.54092e-06
-7.07831e-05
4.05904e-06
-7.14593e-05
1.17084e-05
-7.02044e-05
1.93451e-05
-6.72264e-05
2.69355e-05
-6.28372e-05
3.45015e-05
-5.73013e-05
4.20904e-05
-5.08121e-05
4.95487e-05
-4.31256e-05
5.67099e-05
-3.4083e-05
6.34737e-05
-2.34814e-05
6.92515e-05
-1.07925e-05
7.36455e-05
3.96927e-06
7.61652e-05
2.09497e-05
7.63579e-05
3.9989e-05
7.35615e-05
6.12124e-05
6.74149e-05
8.39699e-05
5.74486e-05
0.000107919
4.33294e-05
0.000132365
2.4971e-05
0.000156376
2.50079e-06
0.000178952
-2.37297e-05
0.000199068
-5.31058e-05
0.000215793
-8.4819e-05
0.000228352
-0.000117927
0.000236147
-0.000151351
0.000238955
-0.000184049
0.000236912
-0.000215098
0.000230835
-0.000243897
0.000221922
-0.000270196
0.000211484
-0.000293905
0.000199379
-0.000314612
0.000181894
-0.00033107
0.000149937
-0.000341272
9.04321e-05
-0.000344079
-6.65282e-06
-0.000337547
-0.000139247
-0.000319871
-0.000293211
-0.000287757
-0.000443965
-0.000235516
-0.000561103
-0.000159215
-0.000606591
-6.75182e-05
-0.000547946
-0.000359578
6.56568e-05
-0.000419903
0.000137577
-0.000605906
0.000188487
-0.000640759
0.000220688
-0.000576247
0.000242236
-0.000449439
0.000258874
-0.000295277
0.000272559
-0.000140933
0.000282925
-8.66086e-06
0.000288148
8.87528e-05
0.000286555
0.000150865
0.000277558
0.000187808
0.000261561
0.000211097
0.000239016
0.000229058
0.000210762
0.000244747
0.000177952
0.00025782
0.000142186
0.00026639
0.000105165
0.000269181
6.85063e-05
0.000265521
3.35623e-05
0.00025552
1.72585e-06
0.000239653
-2.60336e-05
0.000218971
-4.91272e-05
0.000194558
-6.72423e-05
0.000167741
-8.03252e-05
0.000139708
-8.8667e-05
0.000111765
-9.27261e-05
8.48425e-05
-9.31564e-05
5.96958e-05
-9.05452e-05
3.67563e-05
-8.5538e-05
1.64173e-05
-7.87983e-05
-1.16294e-06
-7.09508e-05
-1.59941e-05
-6.2592e-05
-2.82099e-05
-5.42433e-05
-3.81646e-05
-4.62704e-05
-4.63514e-05
-3.87245e-05
-5.34676e-05
-3.1656e-05
-5.97968e-05
-2.47845e-05
-6.56865e-05
-1.80399e-05
-7.08202e-05
-1.1154e-05
-7.51154e-05
-4.02182e-06
-7.79147e-05
3.32371e-06
-7.88041e-05
1.0901e-05
-7.77809e-05
1.87174e-05
-7.50419e-05
2.6838e-05
-7.0957e-05
3.53645e-05
-6.58272e-05
4.42689e-05
-5.9716e-05
5.36056e-05
-5.24618e-05
6.31485e-05
-4.36255e-05
7.24463e-05
-3.2779e-05
8.10838e-05
-1.94298e-05
8.83988e-05
-3.34563e-06
9.38357e-05
1.55129e-05
9.65352e-05
3.72895e-05
9.60281e-05
6.17195e-05
9.16658e-05
8.83323e-05
8.26456e-05
0.000116939
6.86108e-05
0.0001464
4.9229e-05
0.000175759
2.46094e-05
0.000203572
-4.77964e-06
0.000228458
-3.81437e-05
0.000249157
-7.44743e-05
0.000264683
-0.000112354
0.000274026
-0.000150325
0.000276927
-0.000186765
0.000273352
-0.000220077
0.000264148
-0.000248644
0.000250489
-0.00027123
0.000234071
-0.000286995
0.000215145
-0.000295264
0.000190163
-0.0002961
0.000150774
-0.000290052
8.43851e-05
-0.000279068
-1.76311e-05
-0.000265083
-0.000153227
-0.000248639
-0.000309657
-0.000226999
-0.000465607
-0.000194531
-0.000593577
-0.000141986
-0.000659139
-6.72583e-05
-0.000622674
-0.000426838
5.87146e-05
-0.000478617
0.000108519
-0.00065571
0.000137567
-0.000669808
0.000155364
-0.000594044
0.000172007
-0.000466082
0.000191031
-0.000314301
0.000213661
-0.000163563
0.000237338
-3.2336e-05
0.000257795
6.82958e-05
0.000270495
0.000138166
0.000272442
0.000185861
0.000262959
0.000220581
0.0002426
0.000249417
0.000212984
0.000274363
0.00017646
0.000294344
0.000135298
0.000307552
9.22623e-05
0.000312217
4.95107e-05
0.000308272
9.24956e-06
0.000295779
-2.70644e-05
0.000275965
-5.81744e-05
0.00025008
-8.32314e-05
0.000219614
-0.000101804
0.000186312
-0.000113949
0.000151853
-0.000120263
0.000118077
-0.000121607
8.61862e-05
-0.000118658
5.67457e-05
-0.000112366
3.04649e-05
-0.000103355
7.40605e-06
-9.25987e-05
-1.19192e-05
-8.08849e-05
-2.77081e-05
-6.90963e-05
-3.99986e-05
-5.79214e-05
-4.93394e-05
-4.76689e-05
-5.66037e-05
-3.87059e-05
-6.24304e-05
-3.09455e-05
-6.75567e-05
-2.40812e-05
-7.25501e-05
-1.76525e-05
-7.7248e-05
-1.1272e-05
-8.14949e-05
-4.59243e-06
-8.45932e-05
2.38899e-06
-8.57844e-05
9.76869e-06
-8.51597e-05
1.75503e-05
-8.28228e-05
2.61664e-05
-7.95726e-05
3.57396e-05
-7.54e-05
4.64436e-05
-7.04196e-05
5.82976e-05
-6.43154e-05
7.10351e-05
-5.63626e-05
8.40268e-05
-4.57703e-05
9.67632e-05
-3.21656e-05
0.000108342
-1.49237e-05
0.00011787
5.98578e-06
0.000124514
3.06462e-05
0.000127592
5.86425e-05
0.000126009
8.99155e-05
0.000119088
0.000123862
0.00010585
0.000159638
8.58284e-05
0.000195782
5.89486e-05
0.000230453
2.58131e-05
0.000261594
-1.25749e-05
0.000287546
-5.47455e-05
0.000306854
-9.90401e-05
0.000318321
-0.000143365
0.000321252
-0.000185413
0.0003154
-0.000222583
0.000301317
-0.000252533
0.000280439
-0.000272847
0.000254384
-0.000281697
0.000223993
-0.000278995
0.00018746
-0.000265399
0.000137176
-0.000244358
6.33428e-05
-0.000220262
-4.17284e-05
-0.000197368
-0.000176121
-0.000177996
-0.00032903
-0.000161582
-0.000482036
-0.000143537
-0.000611624
-0.000113383
-0.000689292
-6.08809e-05
-0.000675176
-0.000487718
4.85047e-05
-0.000527123
7.73006e-05
-0.000684506
8.9962e-05
-0.000682469
0.000100559
-0.000604641
0.000117041
-0.000482563
0.000142155
-0.000339414
0.000173683
-0.00019509
0.000207994
-6.66471e-05
0.000239159
3.71318e-05
0.000260993
0.000116331
0.000269429
0.000177426
0.000262488
0.000227522
0.000240917
0.000270988
0.000207109
0.000308171
0.00016395
0.000337504
0.00011546
0.000356042
6.43697e-05
0.000363306
1.41896e-05
0.000358451
-3.28558e-05
0.000342824
-7.46101e-05
0.000317718
-0.000109392
0.000284861
-0.000136231
0.000246452
-0.000154471
0.000204552
-0.000164437
0.000161818
-0.000167196
0.000120836
-0.000164017
8.30072e-05
-0.000156133
4.88628e-05
-0.00014438
1.87128e-05
-0.000129838
-7.13537e-06
-0.000113222
-2.85354e-05
-9.59736e-05
-4.49559e-05
-7.90923e-05
-5.68795e-05
-6.37196e-05
-6.47119e-05
-5.04227e-05
-6.99002e-05
-3.93544e-05
-7.34982e-05
-3.04741e-05
-7.64365e-05
-2.33079e-05
-7.97156e-05
-1.71131e-05
-8.34421e-05
-1.13183e-05
-8.72891e-05
-5.33233e-06
-9.05786e-05
1.32639e-06
-9.24428e-05
8.38303e-06
-9.22161e-05
1.66037e-05
-9.10433e-05
2.59351e-05
-8.89039e-05
3.71614e-05
-8.66262e-05
5.05336e-05
-8.37918e-05
6.58398e-05
-7.96213e-05
8.29817e-05
-7.35041e-05
0.00010143
-6.4218e-05
0.000120036
-5.07711e-05
0.000137654
-3.25413e-05
0.000153167
-9.52602e-06
0.000165565
1.82493e-05
0.000173859
5.03497e-05
0.00017704
8.67349e-05
0.000173762
0.000127141
0.000162726
0.000170675
0.000142847
0.000215662
0.000113893
0.000259408
7.65818e-05
0.000298906
3.22137e-05
0.000331914
-1.75086e-05
0.000356577