/*--------------------------------*- C++ -*----------------------------------*\
| =========                 |                                                 |
| \\      /  F ield         | OpenFOAM: The Open Source CFD Toolbox           |
|  \\    /   O peration     | Version:  2412                                  |
|   \\  /    A nd           | Website:  www.openfoam.com                      |
|    \\/     M anipulation  |                                                 |
\*---------------------------------------------------------------------------*/
FoamFile
{
    version     2.0;
    format      ascii;
    arch        "LSB;label=32;scalar=64";
    class       volScalarField;
    location    "9.6";
    object      p;
}
// * * * * * * * * * * * * * * * * * * * * * * * * * * * * * * * * * * * * * //

dimensions      [1 -1 -2 0 0 0 0];

internalField   nonuniform List<scalar> 
6400
(
7633.62
7633.31
7632.62
7631.52
7630.01
7628.08
7625.74
7623.01
7619.9
7616.44
7612.65
7608.6
7604.29
7599.78
7595.12
7590.35
7585.52
7580.7
7575.94
7571.28
7566.79
7562.5
7558.46
7554.7
7551.25
7548.12
7545.32
7542.85
7540.7
7538.87
7537.32
7536.03
7534.97
7534.11
7533.43
7532.89
7532.47
7532.15
7531.9
7531.72
7531.61
7531.56
7531.59
7531.7
7531.92
7532.28
7532.8
7533.51
7534.45
7535.63
7537.1
7538.88
7540.98
7543.43
7546.22
7549.36
7552.79
7556.57
7560.63
7564.93
7569.43
7574.09
7578.85
7583.66
7588.45
7593.18
7597.8
7602.25
7606.48
7610.46
7614.16
7617.54
7620.57
7623.22
7625.49
7627.35
7628.8
7629.85
7630.5
7630.8
7246.92
7246.61
7245.93
7244.84
7243.33
7241.41
7239.07
7236.33
7233.21
7229.74
7225.94
7221.86
7217.52
7212.97
7208.26
7203.44
7198.57
7193.69
7188.87
7184.17
7179.63
7175.3
7171.22
7167.43
7163.96
7160.82
7158.01
7155.54
7153.41
7151.58
7150.05
7148.78
7147.75
7146.92
7146.26
7145.75
7145.35
7145.04
7144.8
7144.63
7144.51
7144.45
7144.47
7144.56
7144.76
7145.09
7145.58
7146.26
7147.17
7148.34
7149.79
7151.56
7153.66
7156.11
7158.91
7162.05
7165.53
7169.33
7173.43
7177.78
7182.33
7187.04
7191.86
7196.72
7201.56
7206.34
7211
7215.48
7219.75
7223.76
7227.47
7230.85
7233.89
7236.54
7238.8
7240.66
7242.1
7243.14
7243.79
7244.08
6860.57
6860.27
6859.6
6858.52
6857.03
6855.1
6852.76
6850
6846.86
6843.35
6839.51
6835.36
6830.95
6826.32
6821.52
6816.6
6811.62
6806.63
6801.71
6796.9
6792.26
6787.85
6783.7
6779.86
6776.35
6773.18
6770.37
6767.91
6765.8
6764.01
6762.52
6761.31
6760.33
6759.56
6758.95
6758.49
6758.13
6757.85
6757.64
6757.47
6757.35
6757.28
6757.26
6757.32
6757.47
6757.74
6758.18
6758.8
6759.65
6760.77
6762.18
6763.92
6766
6768.44
6771.25
6774.42
6777.95
6781.82
6785.99
6790.42
6795.08
6799.9
6804.82
6809.79
6814.75
6819.63
6824.37
6828.94
6833.27
6837.33
6841.08
6844.5
6847.55
6850.22
6852.48
6854.33
6855.76
6856.78
6857.42
6857.7
6474.6
6474.31
6473.66
6472.6
6471.12
6469.19
6466.83
6464.04
6460.85
6457.28
6453.36
6449.12
6444.59
6439.83
6434.88
6429.8
6424.66
6419.51
6414.41
6409.45
6404.67
6400.13
6395.88
6391.96
6388.39
6385.2
6382.38
6379.94
6377.87
6376.14
6374.73
6373.6
6372.71
6372.03
6371.51
6371.12
6370.83
6370.6
6370.42
6370.27
6370.14
6370.04
6369.98
6369.97
6370.05
6370.24
6370.58
6371.11
6371.88
6372.91
6374.25
6375.93
6377.97
6380.4
6383.23
6386.44
6390.03
6393.99
6398.28
6402.85
6407.66
6412.64
6417.73
6422.87
6427.99
6433.03
6437.92
6442.61
6447.05
6451.2
6455.02
6458.49
6461.58
6464.27
6466.54
6468.38
6469.8
6470.8
6471.41
6471.67
6088.98
6088.72
6088.1
6087.07
6085.6
6083.67
6081.28
6078.45
6075.2
6071.54
6067.52
6063.14
6058.46
6053.52
6048.36
6043.07
6037.69
6032.31
6026.99
6021.81
6016.83
6012.12
6007.73
6003.69
6000.06
5996.83
5994.01
5991.61
5989.6
5987.96
5986.65
5985.64
5984.88
5984.33
5983.93
5983.66
5983.46
5983.3
5983.17
5983.04
5982.9
5982.77
5982.64
5982.55
5982.52
5982.59
5982.8
5983.2
5983.83
5984.74
5985.98
5987.58
5989.57
5991.98
5994.81
5998.07
6001.76
6005.84
6010.28
6015.04
6020.05
6025.26
6030.58
6035.96
6041.31
6046.56
6051.65
6056.51
6061.1
6065.37
6069.29
6072.83
6075.97
6078.69
6080.97
6082.81
6084.2
6085.17
6085.74
6085.97
5703.7
5703.48
5702.91
5701.91
5700.46
5698.53
5696.12
5693.24
5689.91
5686.16
5681.99
5677.45
5672.57
5667.39
5661.98
5656.39
5650.72
5645.03
5639.42
5633.96
5628.72
5623.79
5619.21
5615.04
5611.32
5608.04
5605.23
5602.88
5600.96
5599.44
5598.28
5597.43
5596.85
5596.47
5596.24
5596.11
5596.04
5595.98
5595.91
5595.81
5595.66
5595.48
5595.27
5595.06
5594.88
5594.79
5594.83
5595.04
5595.5
5596.25
5597.34
5598.83
5600.74
5603.12
5605.97
5609.29
5613.08
5617.32
5621.96
5626.96
5632.24
5637.74
5643.37
5649.06
5654.71
5660.24
5665.59
5670.68
5675.46
5679.88
5683.91
5687.54
5690.73
5693.49
5695.78
5697.6
5698.97
5699.89
5700.41
5700.6
5318.74
5318.59
5318.07
5317.11
5315.68
5313.74
5311.31
5308.39
5304.99
5301.13
5296.82
5292.08
5286.95
5281.48
5275.74
5269.8
5263.74
5257.67
5251.68
5245.86
5240.3
5235.09
5230.28
5225.93
5222.12
5218.79
5216
5213.71
5211.91
5210.56
5209.6
5208.97
5208.61
5208.46
5208.45
5208.51
5208.6
5208.67
5208.69
5208.62
5208.46
5208.21
5207.89
5207.53
5207.17
5206.86
5206.67
5206.65
5206.88
5207.41
5208.32
5209.65
5211.46
5213.78
5216.64
5220.03
5223.95
5228.38
5233.28
5238.58
5244.2
5250.08
5256.1
5262.18
5268.21
5274.1
5279.77
5285.13
5290.14
5294.74
5298.9
5302.6
5305.85
5308.63
5310.93
5312.74
5314.07
5314.94
5315.39
5315.51
4934.06
4934
4933.55
4932.63
4931.21
4929.26
4926.82
4923.88
4920.44
4916.48
4912.01
4907.05
4901.63
4895.82
4889.67
4883.29
4876.77
4870.22
4863.75
4857.49
4851.53
4845.96
4840.88
4836.33
4832.38
4829.01
4826.24
4824.06
4822.42
4821.28
4820.58
4820.23
4820.16
4820.3
4820.57
4820.89
4821.19
4821.42
4821.54
4821.51
4821.33
4821.01
4820.55
4819.99
4819.4
4818.82
4818.33
4818.01
4817.94
4818.2
4818.86
4820
4821.66
4823.91
4826.76
4830.23
4834.31
4838.97
4844.18
4849.85
4855.91
4862.24
4868.75
4875.32
4881.82
4888.15
4894.21
4899.91
4905.19
4909.98
4914.27
4918.03
4921.3
4924.06
4926.35
4928.16
4929.46
4930.28
4930.65
4930.68
4549.63
4549.67
4549.28
4548.37
4546.93
4544.98
4542.58
4539.69
4536.26
4532.24
4527.63
4522.42
4516.68
4510.44
4503.81
4496.89
4489.79
4482.65
4475.6
4468.79
4462.33
4456.34
4450.92
4446.14
4442.03
4438.62
4435.9
4433.86
4432.43
4431.57
4431.19
4431.2
4431.51
4432.02
4432.64
4433.27
4433.84
4434.28
4434.53
4434.56
4434.36
4433.93
4433.3
4432.5
4431.61
4430.69
4429.83
4429.13
4428.68
4428.58
4428.93
4429.8
4431.28
4433.42
4436.26
4439.81
4444.08
4449.01
4454.59
4460.72
4467.3
4474.21
4481.32
4488.49
4495.57
4502.45
4508.98
4515.08
4520.66
4525.66
4530.05
4533.84
4537.03
4539.72
4541.95
4543.74
4545.04
4545.84
4546.14
4546.05
4165.37
4165.52
4165.16
4164.22
4162.75
4160.85
4158.56
4155.85
4152.5
4148.47
4143.73
4138.28
4132.15
4125.42
4118.21
4110.62
4102.81
4094.95
4087.19
4079.7
4072.64
4066.14
4060.32
4055.24
4050.97
4047.52
4044.88
4043.02
4041.88
4041.37
4041.42
4041.87
4042.65
4043.63
4044.69
4045.72
4046.63
4047.32
4047.74
4047.85
4047.62
4047.06
4046.2
4045.11
4043.84
4042.49
4041.16
4039.98
4039.06
4038.51
4038.46
4039
4040.23
4042.22
4045.02
4048.66
4053.13
4058.41
4064.43
4071.12
4078.34
4085.95
4093.79
4101.7
4109.5
4117.03
4124.14
4130.7
4136.63
4141.85
4146.31
4150.04
4153.08
4155.57
4157.65
4159.37
4160.69
4161.51
4161.78
4161.58
3781.26
3781.47
3781.12
3780.16
3778.72
3776.97
3774.93
3772.55
3769.3
3765.32
3760.47
3754.73
3748.16
3740.85
3732.91
3724.52
3715.84
3707.09
3698.46
3690.15
3682.35
3675.24
3668.93
3663.52
3659.07
3655.59
3653.07
3651.45
3650.67
3650.62
3651.16
3652.22
3653.59
3655.16
3656.78
3658.3
3659.62
3660.64
3661.27
3661.46
3661.2
3660.48
3659.36
3657.88
3656.14
3654.26
3652.36
3650.57
3649.06
3647.95
3647.39
3647.51
3648.42
3650.2
3652.94
3656.66
3661.36
3667.03
3673.59
3680.94
3688.94
3697.41
3706.15
3714.97
3723.64
3731.97
3739.77
3746.9
3753.23
3758.67
3763.19
3766.8
3769.61
3771.79
3773.58
3775.12
3776.38
3777.21
3777.47
3777.2
3397.26
3397.48
3397.18
3396.32
3395.1
3393.66
3391.94
3389.71
3386.87
3383.01
3378.04
3371.97
3364.86
3356.83
3348.02
3338.64
3328.9
3319.05
3309.34
3300.03
3291.34
3283.48
3276.6
3270.8
3266.16
3262.68
3260.33
3259.05
3258.73
3259.25
3260.47
3262.23
3264.34
3266.64
3268.94
3271.09
3272.93
3274.34
3275.23
3275.53
3275.23
3274.32
3272.85
3270.91
3268.6
3266.05
3263.43
3260.9
3258.64
3256.83
3255.64
3255.22
3255.71
3257.22
3259.85
3263.63
3268.6
3274.72
3281.93
3290.07
3299.02
3308.54
3318.39
3328.31
3338.06
3347.36
3356.01
3363.81
3370.63
3376.35
3380.93
3384.4
3386.9
3388.69
3390.07
3391.24
3392.25
3392.97
3393.17
3392.88
3013.31
3013.56
3013.42
3012.9
3012.18
3011.28
3010.06
3008.23
3005.64
3001.84
2996.7
2990.22
2982.45
2973.53
2963.65
2953.04
2941.99
2930.79
2919.76
2909.22
2899.46
2890.69
2883.13
2876.89
2872.05
2868.61
2866.5
2865.65
2865.92
2867.18
2869.22
2871.87
2874.91
2878.11
2881.27
2884.18
2886.65
2888.56
2889.77
2890.21
2889.85
2888.71
2886.83
2884.31
2881.28
2877.92
2874.4
2870.95
2867.77
2865.08
2863.1
2862
2861.95
2863.11
2865.56
2869.39
2874.64
2881.29
2889.25
2898.37
2908.46
2919.26
2930.47
2941.77
2952.83
2963.34
2973.03
2981.66
2989.07
2995.13
2999.81
3003.14
3005.3
3006.62
3007.42
3008
3008.48
3008.84
3008.86
3008.55
2629.35
2629.68
2629.91
2630.01
2630.04
2629.93
2629.43
2628.18
2625.85
2622.09
2616.73
2609.73
2601.16
2591.16
2579.95
2567.83
2555.15
2542.28
2529.63
2517.58
2506.48
2496.63
2488.26
2481.53
2476.5
2473.15
2471.38
2471.09
2472.11
2474.27
2477.36
2481.12
2485.3
2489.62
2493.83
2497.68
2500.95
2503.46
2505.07
2505.68
2505.27
2503.83
2501.44
2498.21
2494.3
2489.92
2485.31
2480.71
2476.38
2472.61
2469.63
2467.69
2466.97
2467.64
2469.85
2473.68
2479.22
2486.46
2495.32
2505.62
2517.12
2529.5
2542.39
2555.39
2568.08
2580.08
2591.05
2600.7
2608.82
2615.31
2620.1
2623.28
2625.04
2625.73
2625.74
2625.46
2625.14
2624.86
2624.51
2624.11
2245.17
2245.71
2246.53
2247.51
2248.58
2249.53
2249.99
2249.48
2247.6
2243.96
2238.4
2230.82
2221.28
2209.95
2197.11
2183.11
2168.4
2153.46
2138.8
2124.88
2112.15
2100.99
2091.67
2084.38
2079.19
2076.03
2074.74
2075.15
2077.13
2080.42
2084.78
2089.92
2095.51
2101.23
2106.74
2111.76
2116
2119.26
2121.36
2122.18
2121.69
2119.9
2116.88
2112.77
2107.78
2102.15
2096.18
2090.16
2084.43
2079.3
2075.1
2072.1
2070.52
2070.59
2072.41
2076.17
2082
2089.91
2099.83
2111.55
2124.78
2139.12
2154.1
2169.21
2183.95
2197.81
2210.36
2221.25
2230.24
2237.19
2242.06
2244.97
2246.15
2245.98
2244.94
2243.52
2242.1
2240.91
2239.96
2239.36
1860.56
1861.44
1863.04
1865.19
1867.63
1869.98
1871.71
1872.26
1871.08
1867.74
1862.04
1853.84
1843.17
1830.22
1815.36
1799.01
1781.77
1764.24
1747.07
1730.83
1716.1
1703.34
1692.89
1685
1679.71
1676.91
1676.31
1677.58
1680.75
1685.44
1691.39
1698.24
1705.58
1713.01
1720.14
1726.59
1732.04
1736.22
1738.92
1740
1739.42
1737.2
1733.4
1728.21
1721.88
1714.71
1707.06
1699.3
1691.82
1685.03
1679.31
1675
1672.34
1671.64
1672.91
1676.44
1682.5
1691.16
1702.34
1715.79
1731.15
1747.92
1765.51
1783.3
1800.6
1816.78
1831.3
1843.71
1853.71
1861.14
1865.99
1868.41
1868.71
1867.34
1864.9
1861.99
1859.16
1856.77
1855.03
1854.09
1475.27
1476.64
1479.23
1482.83
1487.01
1491.18
1494.67
1496.71
1496.56
1493.83
1488.18
1479.36
1467.34
1452.41
1435.03
1415.71
1395.24
1374.5
1354.16
1335.03
1317.82
1303.1
1291.31
1282.76
1277.53
1275.42
1275.85
1278.35
1282.75
1289.11
1297.01
1305.98
1315.51
1325.07
1334.18
1342.4
1349.33
1354.63
1358.07
1359.48
1358.78
1356.04
1351.28
1344.77
1336.79
1327.72
1318.01
1308.09
1298.45
1289.59
1281.99
1276.13
1272.33
1270.57
1270.94
1273.94
1280.11
1289.6
1302.26
1317.82
1335.8
1355.62
1376.53
1397.67
1418.24
1437.35
1454.32
1468.61
1479.8
1487.67
1492.28
1493.91
1492.89
1489.81
1485.45
1480.64
1476.04
1472.21
1469.5
1468.1
1088.43
1090.34
1094.18
1099.69
1106.22
1112.91
1118.9
1123.17
1124.67
1122.69
1117.48
1108.09
1094.43
1076.98
1056.51
1033.15
1008.85
983.97
959.609
936.84
916.559
899.456
886.06
876.774
871.895
871.108
873.045
876.557
882.516
890.94
901.323
912.974
925.217
937.427
949.009
959.418
968.168
974.857
979.194
980.992
980.18
976.785
970.867
962.7
952.673
941.263
928.989
916.399
904.063
892.582
882.624
874.84
869.693
867.053
866.004
867.847
873.939
884.345
898.793
916.898
938.135
961.785
986.899
1012.35
1037
1059.89
1079.94
1096.56
1109.17
1117.37
1121.33
1121.86
1118.9
1113.32
1106.29
1098.89
1091.96
1086.26
1082.36
1080.47
699.404
701.543
706.967
715.106
724.932
735.235
744.781
752.249
756.111
754.901
751.162
741.392
725.624
704.881
680.21
652.64
623.227
592.994
563.412
535.949
511.771
491.648
476.207
465.983
461.927
463.594
467.105
470.988
478.799
490.151
503.982
519.203
534.947
550.496
565.154
578.267
589.256
597.616
603.044
605.302
604.388
600.213
592.887
582.689
570.121
555.797
540.345
524.393
508.579
493.576
480.281
469.738
463.023
460.309
457.629
457.084
462.905
474.431
491.084
512.382
537.748
566.343
596.93
627.924
657.727
685.211
709.15
728.738
743.139
751.41
753.869
753.181
747.404
738.254
727.509
716.477
706.278
698.047
692.672
690.621
314.635
316.377
322.884
333.277
346.148
360.297
374.413
386.249
393.519
392.96
392.075
381.204
361.892
337.854
311.46
282.979
253.106
223.218
195.278
170.903
150.959
135.458
124.475
117.809
115.034
115.379
118.145
123.521
131.8
142.037
153.838
166.794
180.536
194.553
208.205
220.748
231.455
239.6
244.834
246.943
245.843
241.556
234.139
224.076
212.044
198.862
185.147
171.444
158.217
145.844
134.694
125.179
118.231
114.318
112.342
112.921
116.597
124.087
135.883
152.227
173.203
198.611
227.577
258.361
288.929
317.489
343.388
366.358
384.034
392.854
393.407
390.903
381.051
366.839
351.498
336.996
324.108
313.941
307.701
306.135
57.9929
58.1311
61.8042
68.0783
75.7769
84.4875
93.7043
103.098
110.965
114.932
111.882
102.735
88.5666
73.3987
59.4898
45.5979
32.1663
20.1169
10.3452
3.06117
-1.97678
-5.42024
-7.49668
-8.59582
-9.03329
-9.11721
-8.95089
-8.28298
-6.75055
-4.5962
-1.78647
1.66148
5.73255
10.3795
15.4164
20.5048
25.1722
28.8315
31.1762
32.0638
31.4474
29.3794
25.9216
21.475
16.5711
11.7321
7.19608
3.10678
-0.467694
-3.49412
-5.94012
-7.78285
-8.6506
-8.85038
-8.84118
-8.68439
-8.17104
-6.98748
-4.7878
-1.13631
4.31336
12.0534
22.3693
34.9892
49.1005
63.3924
77.3113
92.3042
105.464
113.44
115.222
109.342
99.9756
89.5519
79.8757
71.0619
63.5621
57.6702
54.3747
54.3646
-9.93429
-9.82664
-9.89558
-9.95091
-9.99474
-9.99162
-9.79761
-8.6102
-6.56464
-5.58573
-6.05113
-7.40623
-8.86352
-9.6181
-9.81893
-9.8699
-9.88089
-9.86628
-9.83626
-9.7744
-9.68925
-9.66486
-9.67894
-9.69852
-9.70614
-9.69611
-9.6468
-9.61733
-9.66096
-9.73809
-9.84615
-9.97801
-10.1306
-10.2738
-10.3813
-10.4508
-10.477
-10.4588
-10.4129
-10.3511
-10.2642
-10.1513
-10.0277
-9.91511
-9.81714
-9.73565
-9.66835
-9.59941
-9.52955
-9.46379
-9.40525
-9.35684
-9.34658
-9.39028
-9.38547
-9.37191
-9.38149
-9.40788
-9.44033
-9.4535
-9.45315
-9.42785
-9.37819
-9.29912
-9.17369
-8.96953
-8.55693
-7.65927
-6.32463
-5.17494
-5.02431
-6.41552
-8.14566
-9.01998
-9.3863
-9.49376
-9.50086
-9.47078
-9.41167
-9.57678
-10.3975
-10.3963
-10.4193
-10.4436
-10.4655
-10.473
-10.4614
-10.556
-10.6128
-10.5802
-10.5633
-10.5901
-10.5987
-10.5609
-10.5458
-10.5468
-10.5379
-10.5106
-10.4655
-10.4025
-10.3214
-10.2544
-10.2269
-10.2289
-10.2174
-10.1941
-10.1679
-10.1596
-10.1845
-10.2351
-10.3254
-10.4565
-10.6057
-10.7268
-10.8129
-10.869
-10.8918
-10.8856
-10.8588
-10.8102
-10.74
-10.6459
-10.538
-10.4287
-10.3271
-10.2384
-10.1638
-10.0967
-10.0355
-9.98429
-9.93964
-9.90383
-9.88082
-9.88404
-9.89453
-9.90854
-9.92512
-9.95422
-9.98476
-10.0063
-10.0155
-10.0069
-9.97569
-9.91315
-9.81038
-9.66323
-9.51365
-9.42331
-9.49904
-9.72386
-9.9479
-9.97083
-9.76196
-9.69761
-9.8553
-9.97499
-10.0065
-10.0062
-10.0044
-10.0396
-10.9343
-10.9269
-10.9461
-10.9643
-10.9813
-11.0009
-11.0253
-11.0787
-11.1078
-11.1011
-11.0891
-11.0892
-11.0928
-11.08
-11.0734
-11.0678
-11.0606
-11.0382
-11.0047
-10.9777
-10.9542
-10.9085
-10.8558
-10.8127
-10.777
-10.7513
-10.724
-10.6986
-10.7137
-10.7738
-10.8823
-11.0192
-11.1509
-11.2569
-11.3387
-11.3908
-11.4112
-11.4005
-11.3656
-11.3174
-11.2579
-11.1799
-11.0845
-10.982
-10.8821
-10.7864
-10.6998
-10.6258
-10.5579
-10.505
-10.4653
-10.4348
-10.4175
-10.4171
-10.4347
-10.4622
-10.4911
-10.5235
-10.5485
-10.5624
-10.563
-10.5457
-10.5048
-10.4352
-10.3363
-10.1982
-10.0364
-9.89864
-9.95282
-10.2006
-10.5093
-10.6939
-10.6501
-10.4816
-10.4559
-10.499
-10.523
-10.5692
-10.6141
-10.6314
-11.4517
-11.451
-11.4661
-11.4821
-11.5005
-11.5237
-11.5484
-11.5816
-11.6252
-11.6582
-11.6653
-11.6512
-11.6197
-11.592
-11.5875
-11.5953
-11.5964
-11.5693
-11.5403
-11.541
-11.5688
-11.5761
-11.5448
-11.4837
-11.4156
-11.3544
-11.3009
-11.2641
-11.2602
-11.3499
-11.4925
-11.6274
-11.7271
-11.8137
-11.8798
-11.9102
-11.9108
-11.8967
-11.8648
-11.8226
-11.7743
-11.7151
-11.6397
-11.5538
-11.461
-11.3619
-11.268
-11.1828
-11.0996
-11.0356
-10.988
-10.9534
-10.9431
-10.9566
-10.9882
-11.0198
-11.0511
-11.0818
-11.1038
-11.1152
-11.1135
-11.0944
-11.053
-10.9896
-10.9101
-10.8053
-10.6654
-10.5581
-10.679
-11.0232
-11.411
-11.6545
-11.6753
-11.5085
-11.2923
-11.1695
-11.1327
-11.195
-11.2954
-11.281
-11.9949
-12.0079
-12.0151
-12.0148
-12.0249
-12.0464
-12.0785
-12.11
-12.1439
-12.1671
-12.169
-12.1493
-12.1256
-12.1167
-12.1391
-12.1697
-12.1545
-12.1125
-12.0919
-12.1039
-12.1399
-12.1741
-12.1744
-12.1393
-12.0649
-11.9765
-11.9151
-11.87
-11.855
-11.965
-12.1279
-12.2535
-12.3333
-12.3921
-12.4199
-12.4203
-12.3968
-12.3668
-12.3352
-12.2966
-12.2532
-12.2032
-12.1444
-12.078
-12.0029
-11.9123
-11.818
-11.7323
-11.6465
-11.5713
-11.515
-11.4791
-11.4747
-11.5004
-11.5411
-11.5754
-11.6057
-11.6306
-11.6512
-11.6647
-11.6656
-11.6493
-11.6135
-11.5622
-11.5052
-11.4491
-11.3792
-11.3568
-11.5656
-12.0013
-12.4303
-12.7092
-12.7927
-12.6804
-12.3836
-12.0601
-11.8771
-11.8726
-11.9592
-11.9309
-12.589
-12.6222
-12.6237
-12.6015
-12.598
-12.6135
-12.6415
-12.6582
-12.662
-12.6646
-12.6527
-12.6484
-12.6486
-12.676
-12.7235
-12.7407
-12.704
-12.662
-12.6487
-12.6564
-12.6762
-12.6973
-12.7079
-12.6937
-12.6425
-12.5716
-12.525
-12.4918
-12.4844
-12.589
-12.778
-12.9065
-12.9849
-13.0248
-13.0382
-13.0174
-12.949
-12.8717
-12.8231
-12.7829
-12.7388
-12.6899
-12.6364
-12.5792
-12.5175
-12.4385
-12.3451
-12.2592
-12.178
-12.0935
-12.0357
-12.0037
-12.0093
-12.0493
-12.0965
-12.1312
-12.1605
-12.1863
-12.21
-12.2282
-12.236
-12.2279
-12.2028
-12.171
-12.1387
-12.1196
-12.1231
-12.2167
-12.4858
-12.9696
-13.4266
-13.7298
-13.8449
-13.7737
-13.4815
-13.0328
-12.6923
-12.5519
-12.537
-12.5232
-13.2058
-13.247
-13.2445
-13.2188
-13.2033
-13.204
-13.2067
-13.1945
-13.178
-13.1684
-13.1624
-13.1783
-13.1872
-13.2045
-13.2496
-13.2639
-13.2322
-13.1959
-13.1801
-13.1775
-13.1844
-13.196
-13.2036
-13.1988
-13.1732
-13.1338
-13.105
-13.0927
-13.1048
-13.1968
-13.3705
-13.5144
-13.5975
-13.6289
-13.6223
-13.5875
-13.5136
-13.4047
-13.3285
-13.2787
-13.2323
-13.1826
-13.1308
-13.0785
-13.025
-12.9611
-12.8769
-12.7818
-12.6983
-12.6022
-12.5479
-12.5252
-12.5399
-12.5986
-12.6552
-12.6919
-12.7234
-12.7534
-12.7804
-12.8046
-12.8228
-12.8289
-12.8327
-12.825
-12.8191
-12.825
-12.8697
-13.0271
-13.3395
-13.8529
-14.3301
-14.6572
-14.7931
-14.7422
-14.4592
-13.9525
-13.4821
-13.2103
-13.1107
-13.0865
-13.7835
-13.824
-13.8227
-13.7946
-13.7635
-13.7497
-13.7382
-13.7167
-13.7005
-13.6923
-13.6928
-13.6987
-13.7081
-13.749
-13.8085
-13.8042
-13.752
-13.7071
-13.6892
-13.6842
-13.6874
-13.6961
-13.705
-13.7085
-13.7007
-13.6817
-13.6613
-13.66
-13.683
-13.7426
-13.8599
-13.9892
-14.0738
-14.1035
-14.0876
-14.0539
-14.0045
-13.9256
-13.8413
-13.7798
-13.7318
-13.6827
-13.6321
-13.5825
-13.534
-13.4796
-13.4063
-13.3152
-13.214
-13.1118
-13.0538
-13.0496
-13.0709
-13.1486
-13.2185
-13.2602
-13.2962
-13.3296
-13.3576
-13.3853
-13.4136
-13.4394
-13.4568
-13.4754
-13.497
-13.5268
-13.5937
-13.7522
-14.0931
-14.6254
-15.1283
-15.4886
-15.6397
-15.5906
-15.2976
-14.7565
-14.2102
-13.8631
-13.7144
-13.6668
-14.3042
-14.336
-14.3498
-14.3208
-14.2926
-14.2792
-14.2661
-14.2455
-14.2267
-14.2197
-14.2186
-14.1998
-14.2216
-14.3538
-14.4718
-14.4183
-14.2769
-14.2017
-14.1781
-14.1792
-14.1854
-14.1929
-14.2059
-14.2173
-14.2207
-14.2111
-14.1911
-14.1912
-14.2068
-14.2245
-14.275
-14.3564
-14.4297
-14.4699
-14.4798
-14.4719
-14.4508
-14.4098
-14.3445
-14.2846
-14.2372
-14.191
-14.1431
-14.0959
-14.0506
-14.0016
-13.9346
-13.8466
-13.7399
-13.633
-13.5664
-13.5808
-13.6142
-13.702
-13.7873
-13.8355
-13.8745
-13.9083
-13.9313
-13.9543
-13.9828
-14.0122
-14.0412
-14.0783
-14.123
-14.174
-14.2551
-14.4137
-14.7518
-15.2614
-15.7978
-16.2045
-16.3639
-16.3041
-15.9839
-15.421
-14.8591
-14.502
-14.3415
-14.2687
-14.7932
-14.8241
-14.8416
-14.827
-14.8154
-14.8082
-14.7976
-14.7788
-14.7553
-14.7496
-14.7436
-14.7212
-14.7635
-14.9003
-14.9769
-14.9098
-14.7653
-14.6834
-14.6684
-14.6769
-14.6787
-14.6842
-14.6985
-14.712
-14.7187
-14.7128
-14.6887
-14.6849
-14.6857
-14.6759
-14.6887
-14.7362
-14.799
-14.8536
-14.8925
-14.9133
-14.9151
-14.8897
-14.8421
-14.7934
-14.751
-14.7094
-14.6656
-14.6216
-14.5793
-14.5343
-14.4698
-14.3791
-14.2737
-14.1681
-14.0974
-14.1219
-14.1756
-14.2592
-14.3598
-14.4173
-14.4578
-14.4875
-14.4994
-14.5091
-14.5284
-14.5514
-14.5809
-14.6254
-14.6819
-14.7447
-14.835
-14.9904
-15.2829
-15.7517
-16.3144
-16.7454
-16.9166
-16.8469
-16.4973
-15.9319
-15.4155
-15.0918
-14.9524
-14.8648
-15.3161
-15.322
-15.3263
-15.326
-15.3244
-15.3224
-15.3163
-15.3031
-15.2852
-15.2853
-15.2937
-15.2964
-15.3124
-15.3436
-15.3616
-15.2998
-15.2098
-15.1641
-15.1634
-15.1729
-15.1689
-15.1717
-15.1811
-15.1901
-15.1926
-15.1835
-15.1648
-15.1538
-15.1449
-15.1356
-15.1455
-15.1868
-15.2464
-15.3054
-15.3572
-15.3855
-15.3908
-15.3737
-15.3416
-15.3072
-15.2736
-15.2384
-15.2002
-15.1604
-15.1214
-15.079
-15.016
-14.9221
-14.8162
-14.72
-14.6581
-14.6811
-14.7519
-14.8251
-14.9323
-15.0035
-15.0477
-15.0694
-15.0665
-15.0645
-15.0664
-15.0754
-15.1023
-15.1429
-15.1972
-15.2573
-15.3462
-15.4861
-15.7204
-16.1209
-16.6406
-17.042
-17.2403
-17.1732
-16.8155
-16.291
-15.8676
-15.6128
-15.5001
-15.4219
-15.8143
-15.8095
-15.8154
-15.8182
-15.8201
-15.8202
-15.8179
-15.8121
-15.808
-15.8219
-15.865
-15.9122
-15.8951
-15.836
-15.8052
-15.7594
-15.6933
-15.6617
-15.6587
-15.6591
-15.6563
-15.6562
-15.6591
-15.6608
-15.6566
-15.6443
-15.6269
-15.6139
-15.607
-15.6126
-15.6384
-15.684
-15.7376
-15.7838
-15.8209
-15.8485
-15.8614
-15.859
-15.8466
-15.8284
-15.8061
-15.7797
-15.7486
-15.7142
-15.6785
-15.6367
-15.5749
-15.4787
-15.3759
-15.2915
-15.2477
-15.2653
-15.3396
-15.3984
-15.4973
-15.5811
-15.6277
-15.6377
-15.6145
-15.5993
-15.5938
-15.598
-15.6239
-15.6582
-15.6993
-15.7466
-15.8241
-15.9398
-16.1163
-16.4034
-16.7975
-17.1175
-17.2839
-17.2256
-16.9244
-16.52
-16.2245
-16.0518
-15.9798
-15.9406
-16.2955
-16.3004
-16.305
-16.3087
-16.3116
-16.3124
-16.3122
-16.3106
-16.3188
-16.3453
-16.4071
-16.4928
-16.5048
-16.4456
-16.3871
-16.3181
-16.2281
-16.1696
-16.1513
-16.141
-16.141
-16.1404
-16.139
-16.1349
-16.1254
-16.11
-16.0921
-16.0777
-16.0726
-16.0854
-16.1173
-16.157
-16.196
-16.2379
-16.2749
-16.3102
-16.3381
-16.3547
-16.3612
-16.3599
-16.352
-16.3376
-16.3163
-16.2888
-16.2561
-16.2122
-16.144
-16.0517
-15.9562
-15.884
-15.8595
-15.8766
-15.9281
-15.9653
-16.0449
-16.1281
-16.1745
-16.1691
-16.1332
-16.1061
-16.1004
-16.1148
-16.1413
-16.1743
-16.2013
-16.2373
-16.2961
-16.3812
-16.4988
-16.6693
-16.9047
-17.1014
-17.1957
-17.1375
-16.9331
-16.6889
-16.5306
-16.4427
-16.4025
-16.4156
-16.7846
-16.7927
-16.7958
-16.8007
-16.8051
-16.8086
-16.8117
-16.8146
-16.8258
-16.8562
-16.9091
-16.9885
-17.053
-17.0612
-17.0205
-16.9399
-16.8117
-16.6843
-16.6519
-16.6307
-16.6281
-16.6289
-16.6247
-16.6171
-16.6044
-16.5871
-16.5681
-16.5514
-16.543
-16.5505
-16.5751
-16.6104
-16.652
-16.6975
-16.7434
-16.788
-16.8284
-16.8619
-16.8878
-16.9061
-16.9169
-16.9195
-16.9122
-16.8939
-16.8642
-16.8199
-16.7526
-16.6589
-16.5617
-16.501
-16.4913
-16.4979
-16.5062
-16.5187
-16.5709
-16.6302
-16.6693
-16.658
-16.6248
-16.6006
-16.5985
-16.6268
-16.6592
-16.6919
-16.7125
-16.739
-16.779
-16.8346
-16.9013
-16.9823
-17.0797
-17.1615
-17.1899
-17.1235
-17.0061
-16.8954
-16.8433
-16.8275
-16.821
-16.8697
-17.2775
-17.2828
-17.2874
-17.2937
-17.3006
-17.3083
-17.3171
-17.3272
-17.3435
-17.3712
-17.4089
-17.4604
-17.5161
-17.5645
-17.5645
-17.5108
-17.3728
-17.2206
-17.163
-17.1347
-17.1252
-17.1245
-17.1168
-17.1065
-17.0918
-17.0738
-17.0546
-17.0364
-17.0255
-17.0283
-17.0473
-17.081
-17.1243
-17.1729
-17.2241
-17.2769
-17.3303
-17.3825
-17.4309
-17.4732
-17.5087
-17.5349
-17.5467
-17.5416
-17.5224
-17.4865
-17.4184
-17.3163
-17.2036
-17.1477
-17.1314
-17.1057
-17.0675
-17.0664
-17.0879
-17.101
-17.1185
-17.1248
-17.1166
-17.1027
-17.1134
-17.1526
-17.1905
-17.2233
-17.2415
-17.2563
-17.2779
-17.3054
-17.3288
-17.3471
-17.3619
-17.3759
-17.3582
-17.2883
-17.2185
-17.1879
-17.1973
-17.2323
-17.2811
-17.3378
-17.7689
-17.7731
-17.7789
-17.7862
-17.7957
-17.8079
-17.8234
-17.8424
-17.8666
-17.8945
-17.9232
-17.9606
-18.0112
-18.0502
-18.0445
-17.9883
-17.8744
-17.7582
-17.6798
-17.6496
-17.6372
-17.6264
-17.6132
-17.5997
-17.5834
-17.5654
-17.5468
-17.5295
-17.5186
-17.5192
-17.5352
-17.5665
-17.6092
-17.6595
-17.7155
-17.777
-17.8457
-17.9201
-17.9961
-18.0694
-18.1361
-18.1907
-18.2248
-18.2413
-18.2414
-18.2201
-18.1497
-18.0288
-17.8877
-17.8104
-17.7663
-17.7019
-17.6154
-17.6163
-17.6041
-17.5658
-17.562
-17.6025
-17.6315
-17.6223
-17.6557
-17.7007
-17.7412
-17.7716
-17.7826
-17.7818
-17.7836
-17.7853
-17.7766
-17.7582
-17.7342
-17.7125
-17.6746
-17.61
-17.5669
-17.5738
-17.623
-17.6927
-17.7781
-17.8063
-18.2586
-18.2629
-18.269
-18.277
-18.2885
-18.3045
-18.3265
-18.355
-18.3891
-18.4225
-18.4565
-18.5084
-18.5693
-18.5989
-18.5658
-18.4725
-18.3661
-18.2726
-18.2046
-18.1758
-18.1545
-18.1314
-18.1115
-18.0945
-18.077
-18.0592
-18.042
-18.0257
-18.0159
-18.0176
-18.0332
-18.0633
-18.1051
-18.1568
-18.2163
-18.2876
-18.3763
-18.4813
-18.5933
-18.7017
-18.7962
-18.8709
-18.926
-18.9639
-18.982
-18.9658
-18.8975
-18.7596
-18.5852
-18.4672
-18.3956
-18.2895
-18.1715
-18.1681
-18.1123
-18.0461
-18.0553
-18.1195
-18.1587
-18.1768
-18.2223
-18.265
-18.301
-18.3224
-18.3247
-18.3068
-18.2863
-18.2648
-18.2343
-18.1981
-18.1623
-18.1334
-18.094
-18.0461
-18.0224
-18.0533
-18.1283
-18.2109
-18.2744
-18.2689
-18.7471
-18.7513
-18.7574
-18.7655
-18.7778
-18.7962
-18.8234
-18.8607
-18.9055
-18.9513
-19.008
-19.0817
-19.1445
-19.1601
-19.1068
-18.9886
-18.8667
-18.7842
-18.7309
-18.7009
-18.6666
-18.6344
-18.6102
-18.5908
-18.5728
-18.5555
-18.5396
-18.5269
-18.519
-18.5225
-18.5389
-18.5684
-18.6094
-18.6616
-18.7242
-18.8107
-18.9308
-19.0713
-19.2136
-19.3423
-19.446
-19.521
-19.5788
-19.619
-19.6392
-19.6383
-19.5792
-19.4322
-19.2464
-19.1189
-19.0186
-18.8561
-18.7463
-18.7205
-18.6333
-18.5714
-18.6157
-18.6722
-18.6997
-18.73
-18.7822
-18.8207
-18.849
-18.8683
-18.872
-18.8451
-18.8082
-18.7583
-18.7037
-18.6577
-18.6208
-18.5908
-18.5658
-18.5538
-18.5462
-18.5839
-18.6548
-18.7151
-18.7463
-18.7431
-19.2344
-19.2383
-19.2441
-19.2517
-19.2634
-19.282
-19.311
-19.3528
-19.405
-19.4654
-19.5437
-19.6241
-19.675
-19.6796
-19.6204
-19.5015
-19.3847
-19.3009
-19.2468
-19.2072
-19.1665
-19.1335
-19.109
-19.089
-19.0713
-19.0552
-19.0417
-19.0321
-19.0274
-19.0331
-19.0505
-19.0788
-19.1182
-19.1701
-19.2388
-19.353
-19.5062
-19.668
-19.8182
-19.948
-20.0453
-20.1095
-20.1559
-20.1843
-20.2023
-20.2087
-20.1561
-20.0104
-19.8546
-19.7446
-19.6062
-19.419
-19.3334
-19.286
-19.1959
-19.1627
-19.1967
-19.2266
-19.2361
-19.2641
-19.3129
-19.349
-19.3815
-19.4134
-19.4343
-19.4153
-19.3643
-19.2855
-19.1999
-19.1376
-19.1024
-19.0761
-19.0585
-19.0626
-19.0852
-19.1169
-19.1606
-19.1918
-19.2109
-19.2128
-19.7212
-19.7246
-19.7298
-19.7365
-19.7464
-19.7628
-19.7893
-19.8288
-19.8813
-19.9471
-20.0262
-20.1026
-20.1493
-20.1506
-20.0958
-19.9961
-19.8883
-19.8015
-19.7417
-19.6966
-19.6594
-19.6312
-19.6086
-19.589
-19.572
-19.5577
-19.5467
-19.5399
-19.5388
-19.5466
-19.564
-19.59
-19.628
-19.68
-19.763
-19.9064
-20.0715
-20.2301
-20.378
-20.5134
-20.6199
-20.6911
-20.72
-20.7188
-20.7141
-20.7077
-20.6523
-20.5179
-20.4171
-20.323
-20.1621
-19.9907
-19.9269
-19.8736
-19.8066
-19.783
-19.7919
-19.7934
-19.7883
-19.8037
-19.8349
-19.868
-19.9078
-19.954
-20.0035
-20.0021
-19.9364
-19.838
-19.7261
-19.6419
-19.6037
-19.5812
-19.5658
-19.5645
-19.5878
-19.6176
-19.6477
-19.6697
-19.6825
-19.6874
-20.2084
-20.2111
-20.2156
-20.221
-20.2288
-20.2416
-20.2627
-20.2949
-20.34
-20.3989
-20.4668
-20.5307
-20.575
-20.5796
-20.5376
-20.4555
-20.3589
-20.2765
-20.2188
-20.1801
-20.1526
-20.1302
-20.109
-20.0897
-20.0733
-20.0605
-20.0518
-20.0474
-20.05
-20.0595
-20.0758
-20.0997
-20.1366
-20.1904
-20.2928
-20.4447
-20.5921
-20.7348
-20.8836
-21.0392
-21.1844
-21.2853
-21.3069
-21.2687
-21.2259
-21.1899
-21.1253
-21.0183
-20.9512
-20.8638
-20.7057
-20.5719
-20.522
-20.48
-20.4431
-20.4196
-20.4087
-20.3941
-20.3791
-20.3729
-20.3783
-20.3899
-20.426
-20.482
-20.5494
-20.5701
-20.4991
-20.3912
-20.2599
-20.1651
-20.1177
-20.0953
-20.0831
-20.0762
-20.0821
-20.1041
-20.1319
-20.155
-20.1657
-20.1711
-20.697
-20.6988
-20.7022
-20.7064
-20.7122
-20.7216
-20.737
-20.7609
-20.7954
-20.8411
-20.8939
-20.9446
-20.9807
-20.9904
-20.9616
-20.8958
-20.8147
-20.7414
-20.6911
-20.6653
-20.6503
-20.6325
-20.6109
-20.5903
-20.5733
-20.5608
-20.5542
-20.5538
-20.5601
-20.5709
-20.586
-20.6082
-20.6429
-20.699
-20.8143
-20.9483
-21.0648
-21.1929
-21.3437
-21.5135
-21.6792
-21.799
-21.8464
-21.8201
-21.7647
-21.6931
-21.618
-21.5397
-21.4717
-21.3807
-21.2441
-21.1456
-21.1071
-21.0885
-21.0716
-21.0509
-21.0259
-20.9967
-20.9718
-20.9493
-20.9275
-20.9123
-20.9302
-20.9849
-21.0548
-21.0934
-21.0378
-20.9247
-20.7853
-20.6862
-20.6318
-20.6097
-20.6018
-20.5975
-20.5928
-20.6047
-20.6264
-20.6467
-20.6572
-20.6619
-21.1874
-21.1884
-21.1905
-21.1936
-21.1978
-21.2046
-21.2157
-21.2329
-21.2584
-21.2922
-21.3313
-21.3697
-21.4005
-21.4146
-21.3994
-21.3506
-21.2821
-21.217
-21.1785
-21.1664
-21.1598
-21.1399
-21.1127