/*--------------------------------*- C++ -*----------------------------------*\
| =========                 |                                                 |
| \\      /  F ield         | OpenFOAM: The Open Source CFD Toolbox           |
|  \\    /   O peration     | Version:  2412                                  |
|   \\  /    A nd           | Website:  www.openfoam.com                      |
|    \\/     M anipulation  |                                                 |
\*---------------------------------------------------------------------------*/
FoamFile
{
    version     2.0;
    format      ascii;
    arch        "LSB;label=32;scalar=64";
    class       volScalarField;
    location    "73";
    object      alpha.lava;
}
// * * * * * * * * * * * * * * * * * * * * * * * * * * * * * * * * * * * * * //

dimensions      [0 0 0 0 0 0 0];

internalField   nonuniform List<scalar> 
6400
(
0.997503
0.988852
0.984903
0.984033
0.98518
0.985313
0.98496
0.984152
0.983927
0.983927
0.983613
0.982791
0.982031
0.980906
0.979619
0.979025
0.977915
0.976818
0.976502
0.974287
0.973159
0.970816
0.970367
0.970372
0.971136
0.969331
0.963948
0.963948
0.963948
0.963948
0.966019
0.968698
0.968699
0.962588
0.957618
0.964286
0.965179
0.965179
0.958897
0.965244
0.965884
0.965884
0.965871
0.965179
0.966755
0.967077
0.96708
0.967323
0.967828
0.968249
0.968557
0.968955
0.969355
0.969419
0.969419
0.969256
0.9692
0.971186
0.971186
0.971186
0.971186
0.971185
0.969484
0.967534
0.967953
0.970772
0.970623
0.969977
0.969977
0.970035
0.970133
0.970448
0.970841
0.971216
0.971486
0.972066
0.974513
0.978852
0.986795
0.999977
1.00292
0.994584
0.988942
0.984364
0.983659
0.984621
0.984339
0.983549
0.982555
0.982884
0.983721
0.982945
0.981267
0.980474
0.977881
0.977881
0.977902
0.980664
0.980662
0.972822
0.970861
0.970835
0.974157
0.978735
0.971646
0.96395
0.963949
0.964096
0.963948
0.963948
0.967096
0.968699
0.968699
0.968699
0.961698
0.952035
0.96475
0.961
0.951976
0.962002
0.965883
0.964295
0.954421
0.961842
0.966744
0.963354
0.961309
0.963013
0.964075
0.964611
0.964799
0.964834
0.965641
0.966952
0.964462
0.964341
0.965745
0.971186
0.971186
0.971186
0.971185
0.968798
0.9668
0.967541
0.969944
0.975334
0.970186
0.969977
0.970495
0.974749
0.975305
0.975815
0.976683
0.97747
0.979026
0.981506
0.984644
0.989724
0.998215
1.0115
1.00483
0.996481
0.990717
0.986668
0.984345
0.983121
0.982514
0.98245
0.981724
0.980934
0.982989
0.982986
0.981596
0.977972
0.977883
0.979025
0.980667
0.980664
0.980664
0.972523
0.970886
0.972227
0.978735
0.978735
0.969707
0.96395
0.96395
0.97396
0.972572
0.963949
0.966616
0.968699
0.968699
0.968699
0.96422
0.951978
0.951976
0.951975
0.951976
0.964385
0.965874
0.957916
0.954372
0.954348
0.958673
0.960003
0.957778
0.958541
0.961692
0.961098
0.959412
0.961232
0.962815
0.961348
0.960529
0.965807
0.965807
0.965449
0.966085
0.965041
0.962439
0.962439
0.966769
0.971487
0.975003
0.975334
0.975054
0.972921
0.97743
0.979912
0.980916
0.981564
0.982033
0.983309
0.985755
0.989107
0.993263
0.99872
1.00535
1.01712
1.00592
0.997175
0.99074
0.9861
0.983963
0.982617
0.981859
0.980289
0.978457
0.981198
0.982986
0.981048
0.976163
0.977028
0.980669
0.98067
0.98067
0.980667
0.975622
0.972441
0.974892
0.978739
0.978737
0.978735
0.978735
0.967222
0.96395
0.974069
0.974292
0.97083
0.965671
0.965671
0.966861
0.968699
0.968548
0.951977
0.951975
0.951975
0.958293
0.964467
0.964536
0.964474
0.959345
0.942939
0.942929
0.942915
0.948722
0.951216
0.946981
0.952584
0.957606
0.958735
0.957853
0.946553
0.960522
0.965807
0.96058
0.949932
0.949938
0.949945
0.963795
0.967773
0.976179
0.976773
0.973197
0.97321
0.981503
0.980838
0.979921
0.983066
0.985152
0.986474
0.987461
0.988605
0.990508
0.993501
0.997812
1.00198
1.00995
1.01889
1.00687
0.99736
0.989358
0.985105
0.98207
0.980488
0.979787
0.978615
0.977258
0.980059
0.981626
0.976114
0.976131
0.980412
0.980668
0.98067
0.976065
0.974734
0.976273
0.978736
0.97874
0.97874
0.977915
0.978463
0.978735
0.978734
0.973611
0.973164
0.974282
0.974269
0.967465
0.965671
0.96593
0.96869
0.968681
0.968681
0.968674
0.967448
0.960902
0.942931
0.942924
0.955402
0.959366
0.955695
0.942914
0.942915
0.942915
0.942914
0.942912
0.94291
0.948054
0.942908
0.942908
0.942916
0.942925
0.949974
0.950658
0.949932
0.949932
0.958605
0.970649
0.967532
0.967525
0.976738
0.980599
0.97418
0.981757
0.984777
0.984614
0.985681
0.987993
0.989824
0.991362
0.992768
0.994432
0.997132
1.00008
1.00508
1.01224
1.01915
1.00753
0.996877
0.987364
0.983218
0.979758
0.977823
0.976988
0.976474
0.975712
0.976552
0.973486
0.971121
0.979979
0.980662
0.980666
0.975352
0.974142
0.974731
0.978729
0.978735
0.97874
0.977744
0.97238
0.974421
0.978734
0.978734
0.978734
0.978733
0.967364
0.972504
0.973285
0.973285
0.973285
0.966741
0.968681
0.968675
0.96019
0.942924
0.942914
0.942919
0.942923
0.953032
0.957751
0.942911
0.942911
0.942913
0.942914
0.942912
0.94291
0.942909
0.942908
0.942908
0.942908
0.950853
0.95672
0.949933
0.949932
0.949932
0.949932
0.960067
0.972756
0.976602
0.967525
0.973079
0.98243
0.983279
0.981312
0.984658
0.988147
0.989894
0.991435
0.992713
0.994161
0.995637
0.997638
0.999896
1.00243
1.00729
1.01297
1.01856
1.00817
0.996523
0.986712
0.980441
0.977076
0.974946
0.974089
0.973945
0.972728
0.970768
0.970785
0.971096
0.980636
0.980658
0.977131
0.967205
0.974118
0.978705
0.978717
0.977044
0.97238
0.972376
0.972376
0.97309
0.978729
0.978734
0.978734
0.977816
0.965672
0.967677
0.973283
0.973285
0.973285
0.961744
0.949986
0.968666
0.943534
0.942914
0.942913
0.94293
0.943085
0.942914
0.942912
0.942911
0.942913
0.942913
0.942912
0.94291
0.942909
0.942908
0.942908
0.942908
0.944242
0.961723
0.961746
0.949933
0.949932
0.950044
0.965513
0.960212
0.96089
0.976729
0.980964
0.976285
0.980669
0.985826
0.986126
0.987198
0.990548
0.993264
0.995134
0.996289
0.997143
0.998492
0.999944
1.00162
1.0048
1.00845
1.01295
1.01742
1.00846
0.995118
0.985329
0.97787
0.974174
0.971745
0.970752
0.970696
0.968114
0.964845
0.974405
0.977123
0.977204
0.968686
0.967206
0.967206
0.977521
0.978693
0.976226
0.972408
0.972396
0.973945
0.976271
0.976271
0.973405
0.976805
0.978733
0.978705
0.966678
0.957863
0.970444
0.973283
0.969121
0.949985
0.94998
0.959547
0.946595
0.942914
0.942913
0.942912
0.942913
0.942912
0.942911
0.942911
0.943114
0.943838
0.943677
0.942917
0.94291
0.943623
0.942908
0.942907
0.943007
0.953809
0.962303
0.959281
0.949932
0.949932
0.965508
0.978955
0.966468
0.967519
0.982454
0.985217
0.984749
0.987028
0.98951
0.99153
0.993997
0.996211
0.998065
0.999411
1
1.00062
1.00187
1.00399
1.00655
1.00917
1.01309
1.01636
1.00907
0.994848
0.98269
0.975167
0.971298
0.967342
0.961227
0.958747
0.95578
0.96492
0.974388
0.972238
0.967211
0.9672
0.967213
0.969316
0.978634
0.97868
0.978634
0.972781
0.976263
0.97628
0.97628
0.976277
0.958815
0.956658
0.973972
0.978703
0.9609
0.957827
0.95783
0.973139
0.950016
0.94998
0.94998
0.94998
0.961834
0.95372
0.942913
0.942912
0.942912
0.942912
0.942912
0.943263
0.94384
0.94384
0.94384
0.94384
0.943834
0.94383
0.942972
0.942907
0.942907
0.942907
0.962349
0.965768
0.961793
0.949965
0.950482
0.979555
0.983227
0.974234
0.979767
0.987551
0.989557
0.990634
0.992981
0.995511
0.997612
0.999273
1.00011
1.00102
1.0021
1.00318
1.00458
1.00614
1.00801
1.01025
1.01336
1.01538
1.00884
0.994271
0.980057
0.971951
0.966463
0.952587
0.950738
0.950738
0.950738
0.951722
0.95549
0.950741
0.959857
0.973357
0.97336
0.97336
0.968915
0.963711
0.973728
0.976186
0.976233
0.976217
0.97514
0.956435
0.956496
0.9566
0.96883
0.961909
0.957869
0.95783
0.957827
0.957832
0.974697
0.957218
0.94998
0.951358
0.978256
0.973156
0.942922
0.942915
0.945194
0.942912
0.942912
0.942913
0.942914
0.94292
0.942916
0.942913
0.942911
0.942932
0.942907
0.942907
0.942907
0.942907
0.942907
0.965791
0.971251
0.970503
0.950599
0.969184
0.98399
0.985914
0.983612
0.988623
0.992097
0.994112
0.996473
0.99881
1.00001
1.00092
1.00228
1.00352
1.00469
1.00591
1.00703
1.00807
1.00958
1.01144
1.0132
1.01361
1.00896
0.992759
0.978812
0.970035
0.950937
0.950738
0.950738
0.950738
0.950738
0.950736
0.950738
0.950741
0.950741
0.964386
0.973328
0.964
0.950763
0.950769
0.950771
0.972006
0.96598
0.951148
0.951215
0.951215
0.964359
0.968262
0.96068
0.960704
0.972935
0.986571
0.960399
0.957828
0.974603
0.980016
0.972077
0.977745
0.978243
0.973255
0.943363
0.943515
0.969785
0.971287
0.945602
0.942914
0.942913
0.942912
0.942911
0.94291
0.942909
0.942909
0.942908
0.946094
0.947282
0.942907
0.942908
0.94291
0.966988
0.974755
0.972932
0.969063
0.976996
0.987836
0.989758
0.991986
0.995374
0.998042
0.999691
1.00047
1.00181
1.00339
1.00512
1.00655
1.00768
1.0087
1.00948
1.01016
1.01135
1.01216
1.01259
1.01134
1.00937
0.99235
0.978149
0.958283
0.950739
0.950738
0.950738
0.950738
0.950739
0.95074
0.950739
0.95074
0.950742
0.950746
0.950748
0.950751
0.950755
0.950763
0.950769
0.950823
0.950909
0.951012
0.952782
0.97064
0.987162
0.988845
0.980312
0.975028
0.977922
0.987828
0.986993
0.984172
0.980974
0.979908
0.981836
0.983193
0.974467
0.972132
0.974217
0.975283
0.978586
0.977296
0.971275
0.959203
0.949119
0.94338
0.947402
0.953096
0.945523
0.942909
0.947269
0.962666
0.967861
0.959769
0.951159
0.950799
0.954048
0.97255
0.985324
0.980309
0.982641
0.989432
0.993446
0.996366
0.999162
1.00013
1.00138
1.00305
1.00489
1.00668
1.00846
1.00979
1.01078
1.01141
1.01192
1.01227
1.01285
1.01235
1.01155
1.00955
1.00848
0.992822
0.975997
0.950768
0.950744
0.950739
0.950739
0.950739
0.95074
0.950737
0.950739
0.950742
0.950745
0.950748
0.950751
0.950755
0.951564
0.955715
0.961595
0.963494
0.9697
0.985576
0.994033
0.992181
0.986946
0.988791
0.993899
0.994015
0.99251
0.990528
0.990605
0.990887
0.990109
0.988095
0.98792
0.987428
0.985997
0.986151
0.987319
0.987485
0.98654
0.98473
0.984153
0.982288
0.978766
0.975544
0.976304
0.977864
0.975104
0.972167
0.975324
0.97724
0.978345
0.980297
0.980222
0.98001
0.977502
0.979621
0.988106
0.991381
0.993007
0.995772
0.998414
0.999772
1.00096
1.00286
1.00497
1.00683
1.0085
1.01023
1.01186
1.01286
1.01352
1.01377
1.01408
1.01407
1.01374
1.01244
1.01047
1.00793
1.00771
0.994375
0.978157
0.974746
0.959832
0.952428
0.951949
0.951847
0.952178
0.952758
0.955036
0.960122
0.965221
0.966452
0.970641
0.985746
0.99723
1
1.00006
1.00012
1.00008
0.998811
0.998234
0.999254
0.99995
0.999918
0.999719
0.999813
0.999748
0.999436
0.999003
0.998603
0.998064
0.997674
0.997534
0.997559
0.997788
0.997785
0.997558
0.997326
0.996977
0.996516
0.996047
0.995244
0.994146
0.993281
0.992719
0.992294
0.992592
0.992335
0.991409
0.991003
0.990888
0.992435
0.994862
0.996808
0.99747
0.996801
0.997664
0.999198
0.999498
0.999673
1.00069
1.00296
1.00536
1.00754
1.00942
1.01098
1.01235
1.01379
1.01503
1.01551
1.01585
1.01586
1.01605
1.01558
1.0145
1.01268
1.01004
1.00623
1.00801
0.999793
0.996293
0.997284
0.998968
0.997515
0.995311
0.99446
0.996237
0.998605
1.00018
1.0007
1.00116
1.00164
1.00202
1.00218
1.00229
1.00243
1.00264
1.00286
1.0031
1.00331
1.00352
1.00374
1.00394
1.00405
1.00406
1.00401
1.00393
1.0037
1.00326
1.00259
1.00179
1.00117
1.00072
1.00037
1.00009
1
1
0.999861
0.999506
0.99931
0.999264
0.999253
0.999272
0.999286
0.999254
0.999195
0.999235
0.999241
0.999187
0.999171
0.999191
0.999243
0.99936
0.999415
0.999593
1
1.00068
1.00207
1.00315
1.00448
1.00649
1.00886
1.01099
1.01271
1.01413
1.01525
1.01615
1.01711
1.0177
1.01768
1.01783
1.01773
1.01769
1.01669
1.01538
1.01279
1.00972
1.00516
1.0088
1.00561
1.00541
1.0056
1.00568
1.00593
1.00585
1.00599
1.00621
1.00644
1.00674
1.0071
1.00757
1.00815
1.00871
1.0092
1.00963
1.00998
1.0103
1.01062
1.01093
1.01123
1.01152
1.01184
1.01223
1.01262
1.01295
1.01319
1.01328
1.0132
1.01289
1.01233
1.01159
1.01082
1.01001
1.00916
1.00829
1.00736
1.00644
1.00557
1.00471
1.00382
1.00304
1.00248
1.00209
1.00181
1.00162
1.0015
1.00143
1.00139
1.00137
1.0015
1.00178
1.00222
1.00272
1.00333
1.00421
1.0056
1.00734
1.00899
1.01048
1.01214
1.01406
1.01588
1.0173
1.01833
1.0191
1.01946
1.01956
1.01974
1.01957
1.01907
1.01905
1.01874
1.01844
1.01708
1.01582
1.01295
1.00897
1.00463
1.01133
1.01554
1.01694
1.0168
1.01665
1.01625
1.01577
1.01547
1.01533
1.01529
1.01538
1.01559
1.01588
1.0162
1.01654
1.01687
1.01721
1.01758
1.018
1.01846
1.01896
1.01951
1.02014
1.02089
1.02172
1.02258
1.02341
1.02415
1.02476
1.02513
1.0252
1.02493
1.02434
1.02349
1.02246
1.0213
1.02009
1.01883
1.01755
1.01624
1.01488
1.01343
1.01206
1.0109
1.01001
1.00938
1.00897
1.00872
1.00855
1.00843
1.00844
1.0087
1.00932
1.01022
1.01123
1.01231
1.0136
1.01523
1.01711
1.0188
1.02016
1.02142
1.02269
1.02375
1.02405
1.02376
1.02307
1.02195
1.02069
1.01969
1.01848
1.0174
1.01703
1.01652
1.01644
1.01572
1.01471
1.01275
1.00866
1.00419
1.01682
1.02348
1.02403
1.02237
1.02066
1.01893
1.01755
1.01655
1.01589
1.01547
1.01521
1.01504
1.01489
1.0148
1.01477
1.01479
1.0149
1.0151
1.0154
1.01582
1.01638
1.0171
1.01802
1.01918
1.02056
1.0222
1.02412
1.02633
1.02897
1.03167
1.03391
1.03554
1.0365
1.03631
1.03546
1.0343
1.03299
1.03163
1.03021
1.02873
1.02716
1.02553
1.02392
1.02249
1.02133
1.02051
1.01998
1.01965
1.01939
1.01921
1.01922
1.01961
1.02043
1.02152
1.02258
1.02355
1.02463
1.02604
1.02753
1.02859
1.02896
1.02909
1.02928
1.02927
1.0273
1.02334
1.01995
1.01687
1.01405
1.0111
1.00786
1.00531
1.00432
1.00428
1.00596
1.00804
1.00915
1.00908
1.00723
1.00421
1.01118
1
1
1
1
1
1
0.999951
0.999894
0.999889
0.999936
1.00001
1
1
1
1
1
1
1
1
1
1
1
1
1
1
1
1
1.00021
1.01019
1.01992
1.02798
1.03344
1.03595
1.0368
1.03696
1.0368
1.03646
1.03594
1.03524
1.03434
1.03328
1.03213
1.03105
1.03016
1.02952
1.02909
1.02876
1.02844
1.02815
1.02801
1.02818
1.02858
1.02893
1.02889
1.02847
1.02835
1.02838
1.02795
1.02721
1.02587
1.02439
1.02278
1.0206
1.00994
1
1
0.999393
0.994849
0.984505
0.972013
0.962141
0.958047
0.960394
0.969488
0.982609
0.995041
0.999534
1
1
0.899424
0.844381
0.789262
0.731915
0.679535
0.631554
0.598144
0.57957
0.572252
0.572343
0.576907
0.583742
0.590975
0.597302
0.602254
0.60556
0.60829
0.6117
0.616222
0.622912
0.633335
0.645911
0.662716
0.684811
0.712626
0.746146
0.784979
0.828238
0.873314
0.908925
0.943682
0.97752
1
1.0023
1.00737
1.0119
1.01555
1.01857
1.02102
1.02291
1.02424
1.02518
1.02574
1.02606
1.02627
1.02642
1.02653
1.02648
1.02627
1.02589
1.02547
1.02512
1.02453
1.02351
1.02195
1.02005
1.01841
1.01654
1.01391
1.01087
1.00724
1.00323
1.0002
0.952335
0.883138
0.797213
0.683484
0.558637
0.453738
0.376713
0.323134
0.289707
0.277309
0.283561
0.312715
0.367269
0.449971
0.560446
0.68544
0.81511
0.0687658
0.0588491
0.0412696
0.0195898
0.00275921
1.26317e-07
3.63e-08
3.31832e-08
3.09546e-08
2.48629e-08
1.70808e-08
1.13063e-08
5.56259e-09
1.76269e-09
1.09763e-09
1.02784e-09
9.64898e-10
9.18072e-10
8.7382e-10
8.40756e-10
9.08708e-10
0.00282233
0.00760504
0.0144419
0.0240779
0.0374946
0.0558224
0.0806104
0.113643
0.157017
0.213154
0.284184
0.379551
0.502693
0.623103
0.729966
0.820383
0.893502
0.950025
0.993284
1.00054
1.00354
1.00676
1.00813
1.00944
1.01036
1.01105
1.01126
1.01122
1.01069
1.0098
1.00881
1.00678
1.00475
1.00249
1
0.960712
0.90233
0.823018
0.718256
0.586423
0.431276
0.267197
0.153523
0.0739277
0.0213048
7.00148e-08
2.08967e-09
5.75818e-10
5.05461e-10
2.24768e-10
3.16602e-11
1.74799e-11
1.32055e-11
9.17189e-12
3.86654e-12
7.32902e-13
7.31331e-13
7.32902e-13
7.45477e-13
1.21108e-07
1.19788e-07
1.22615e-07
1.35528e-07
1.56455e-07
1.90031e-07
1.99357e-07
1.49422e-07
1.33761e-07
8.30491e-08
4.14212e-08
3.53746e-08
6.03962e-08
1.71386e-08
2.36684e-09
1.03253e-09
9.83797e-10
9.26373e-10
8.65356e-10
8.31468e-10
8.40756e-10
9.08708e-10
1.20816e-09
1.64754e-09
1.94707e-09
2.18151e-09
2.56407e-09
3.31106e-09
4.83946e-09
7.32109e-09
1.32435e-08
2.13551e-08
2.42841e-08
0.0033164
0.0189501
0.0508668
0.0999507
0.165319
0.244223
0.332627
0.445403
0.548072
0.631904
0.697774
0.746584
0.780558
0.801388
0.809356
0.806504
0.792547
0.765201
0.723227
0.664958
0.586947
0.487038
0.366892
0.268533
0.179409
0.10444
0.047982
0.0132109
0.000537296
3.63647e-06
1.0397e-06
2.00737e-07
4.13066e-08
1.2483e-08
1.48212e-08
3.79853e-08
1.81353e-08
1.76532e-07
9.40053e-08
5.93106e-09
1.41303e-09
1.2802e-09
1.80515e-09
1.65721e-09
7.31331e-13
3.99229e-12
4.80717e-10
1.98482e-07
1.29348e-06
2.68719e-06
3.0288e-06
3.16561e-06
3.16879e-06
3.17293e-06
2.90597e-06
2.04412e-06
9.20294e-07
2.91351e-07
6.05555e-07
1.3209e-06
1.09253e-06
1.08167e-07
1.09801e-09
3.79792e-09
4.7706e-09
2.97796e-09
7.8064e-10
6.95336e-09
3.52061e-08
4.58054e-08
2.88601e-08
3.18697e-08
6.34765e-08
1.47402e-07
3.54995e-07
6.80179e-07
2.62661e-06
6.76828e-06
5.28702e-06
4.24143e-07
2.87448e-08
2.68594e-07
1.2586e-06
3.87351e-06
9.25139e-06
1.85255e-05
3.25108e-05
0.000821356
0.00783237
0.0214728
0.0397346
0.0590773
0.076397
0.0888961
0.0942429
0.0923732
0.0837359
0.0686439
0.0496079
0.0302609
0.0133514
0.00269693
5.1721e-05
3.14893e-05
1.71989e-05
8.00676e-06
2.93588e-06
7.19319e-07
1.0399e-07
2.38857e-08
5.77062e-09
2.65142e-09
4.61665e-08
1.22395e-08
3.79217e-08
4.1276e-08
1.80607e-08
1.00135e-08
4.01808e-09
1.22208e-08
1.6321e-09
1.31966e-09
1.85129e-09
1.73006e-09
3.79918e-13
1.81139e-10
1.95895e-08
2.46466e-13
2.45542e-13
2.44312e-13
2.44982e-13
2.44312e-13
7.01278e-13
2.77671e-12
9.77808e-13
8.24903e-13
6.12491e-13
9.36132e-13
7.3765e-07
1.3209e-06
1.30403e-06
1.74129e-07
2.02171e-09
5.74117e-09
6.24052e-09
3.65528e-09
3.20944e-10
9.00298e-09
5.61876e-08
5.75019e-08
3.22653e-08
3.01807e-11
1.57272e-15
6.37386e-16
-2.62954e-31
-4.13287e-15
1.16109e-08
1.23718e-07
2.35257e-07
1.3774e-07
7.13816e-10
1.91925e-09
8.48271e-09
3.35545e-08
9.73906e-08
2.25305e-07
4.45846e-07
8.55246e-07
2.14029e-06
4.77452e-06
8.76447e-06
1.35506e-05
1.83151e-05
2.2102e-05
2.40154e-05
2.37964e-05
2.15084e-05
1.7449e-05
1.25039e-05
7.77125e-06
3.97138e-06
1.70265e-06
8.38251e-07
4.64617e-07
2.34897e-07
1.00256e-07
3.28563e-08
7.28626e-09
9.8848e-10
2.24381e-10
4.6257e-11
1.47331e-09
1.01761e-09
1.22676e-10
1.41306e-10
8.88944e-11
2.98412e-15
2.98412e-15
2.36597e-15
3.21294e-10
8.41587e-10
8.88879e-10
2.77482e-12
2.8507e-14
2.8507e-14
5.22915e-10
8.76397e-09
1.79521e-12
4.92908e-13
4.54956e-13
2.44315e-13
6.62519e-11
3.66075e-10
3.68294e-10
1.05963e-10
3.23617e-12
6.00451e-13
1.15494e-12
8.09347e-13
4.54923e-08
2.56496e-10
5.3603e-11
2.86249e-09
3.96937e-09
2.75234e-09
8.82129e-10
3.17852e-10
8.6284e-16
6.2646e-16
5.38599e-12
6.31164e-16
1.25614e-15
1.87067e-15
1.05683e-14
-7.3296e-15
-2.79593e-13
-2.55896e-15
-2.10363e-30
5.5862e-09
1.21231e-09
5.27514e-10
2.09597e-11
1.04001e-10
4.62037e-10
1.33363e-09
3.02437e-09
6.21481e-09
1.2819e-08
3.45211e-08
8.22461e-08
1.59721e-07
2.58577e-07
3.62103e-07
4.47963e-07
4.93869e-07
4.9153e-07
4.42e-07
3.53293e-07
2.47145e-07
1.48701e-07
7.31195e-08
3.00201e-08
1.49149e-08
7.52607e-09
3.16949e-09
1.29321e-09
4.31558e-10
9.33299e-11
1.29486e-11
2.54009e-12
4.11378e-13
2.69771e-12
6.48675e-11
1.94872e-11
4.40255e-13
1.52961e-13
1.52314e-13
5.38188e-15
1.23931e-15
2.40779e-13
1.308e-11
5.22562e-12
2.19255e-14
3.83478e-14
1.30714e-13
1.30881e-13
1.39384e-13
2.02558e-12
1.81708e-13
1.05808e-13
2.69219e-13
3.72221e-11
2.46352e-11
3.89496e-12
3.30959e-13
1.99176e-15
6.02543e-13
2.42107e-11
3.06388e-12
1.15029e-18
1.20021e-17
8.85728e-18
8.56492e-18
8.85728e-18
1.47636e-17
1.34174e-16
3.70568e-12
6.31153e-16
6.20716e-16
6.20716e-16
6.20716e-16
2.16996e-15
1.81011e-14
3.30697e-14
2.38145e-14
8.56036e-14
6.93864e-12
4.81033e-11
4.53606e-13
1.03109e-15
4.26576e-12
4.08035e-13
1.00704e-12
4.69333e-12
1.75756e-11
5.07111e-11
1.19599e-10
2.56363e-10
6.57789e-10
1.48916e-09
2.89076e-09
4.80752e-09
6.92609e-09
8.75706e-09
9.78101e-09
9.7751e-09
8.75039e-09
6.9117e-09
4.74564e-09
2.79615e-09
1.36437e-09
5.70688e-10
2.74174e-10
1.33394e-10
5.5036e-11
1.82266e-11
5.59418e-12
1.42326e-12
1.7772e-13
2.86516e-14
9.87552e-15
1.03344e-13
5.86098e-13
4.15778e-13
2.27511e-13
1.64827e-13
3.52783e-14
1.5719e-14
5.55693e-16
6.1319e-16
2.37582e-14
9.7433e-14
5.48787e-14
2.51836e-14
2.96115e-13
1.71376e-12
2.55028e-12
3.17251e-12
5.30636e-13
1.08207e-13
4.07956e-13
1.21806e-12
2.03201e-18
1.82942e-18
1.52492e-18
7.25241e-16
1.31454e-13
1.27606e-12
1.68176e-15
2.48894e-19
9.42964e-17
5.66609e-16
8.08497e-18
5.6487e-16
2.80983e-14
1.60695e-13
2.83e-13
4.56503e-14
1.82491e-15
8.10551e-16
1.61921e-15
1.63517e-15
9.82011e-16
5.01689e-16
3.64515e-16
9.79566e-17
2.86805e-17
9.4547e-17
8.87204e-17
5.85767e-16
1.69243e-14
5.88795e-14
1.80653e-14
8.12427e-14
3.44032e-13
9.80081e-13
2.16927e-12
4.3529e-12
1.09573e-11
2.74664e-11
5.77247e-11
1.00163e-10
1.46147e-10
1.84893e-10
2.05028e-10
2.03002e-10
1.81124e-10
1.44433e-10
1.01143e-10
6.25723e-11
3.23294e-11
1.45843e-11
9.38338e-12
4.21874e-12
1.44977e-12
5.27406e-13
1.69217e-13
5.20019e-14
3.00188e-14
2.78378e-15
8.36747e-15
1.84974e-14
3.59587e-14
8.11157e-14
9.34097e-14
7.64759e-14
2.50147e-14
4.01971e-15
2.50363e-16
3.39907e-16
1.2484e-14
7.21093e-14
5.80146e-14
1.66167e-14
6.46889e-16
2.12169e-14
6.05532e-13
4.50214e-12
1.96583e-12
1.3012e-13
1.06247e-14
2.54617e-17
4.4002e-18
9.73857e-18
1.42412e-18
2.23095e-17
1.3821e-16
1.99098e-16
1.89139e-17
2.40955e-19
1.33118e-18
4.79126e-18
6.85888e-18
2.12665e-17
1.62806e-16
1.18254e-15
2.35968e-15
1.85634e-15
5.47903e-16
4.92865e-16
1.13558e-15
1.24771e-15
9.1414e-16
5.83291e-16
5.77764e-16
2.9192e-16
2.86267e-17
1.63428e-17
8.39921e-17
4.20877e-16
1.22571e-15
5.28769e-16
1.68058e-15
8.3468e-15
2.03323e-14
3.38157e-14
6.79074e-14
1.19302e-13
2.72607e-13
7.13716e-13
1.54233e-12
2.77926e-12
4.15832e-12
5.38864e-12
6.04403e-12
6.02113e-12
5.45583e-12
4.52778e-12
3.27457e-12
2.11879e-12
1.16206e-12
5.4177e-13
5.66545e-13
2.42185e-13
5.0541e-14
5.71032e-14
2.05446e-14
9.3632e-15
4.08866e-15
4.08338e-16
4.62749e-16
1.7359e-15
6.28358e-15
8.54544e-15
8.03505e-15
4.47782e-15
1.27253e-15
4.20887e-17
3.94953e-18
8.70611e-17
6.40627e-15
2.5411e-14
1.41352e-14
2.22537e-15
6.8544e-17
1.2292e-17
5.82915e-16
3.40539e-12
2.4628e-12
1.04959e-12
8.36646e-14
5.16253e-16
2.03121e-18
7.21188e-19
2.76474e-20
1.71028e-19
2.15154e-19
7.28346e-19
6.67045e-20
2.92416e-20
3.83779e-20
8.19541e-20
1.31523e-19
2.53254e-19
1.45329e-18
1.1101e-17
2.14309e-17
1.15647e-17
2.3714e-18
7.60598e-19
2.51039e-18
3.4904e-18
5.39296e-18
3.86381e-18
4.33043e-18
2.40169e-18
3.30208e-19
4.6515e-20
8.40917e-19
5.91019e-18
2.19623e-17
1.56422e-16
1.16064e-15
3.86345e-15
8.50417e-15
1.65936e-14
2.71152e-14
3.27662e-14
3.26116e-14
3.22896e-14
4.23527e-14
8.09298e-14
1.30586e-13
1.75874e-13
2.00346e-13
2.01193e-13
1.81329e-13
1.5737e-13
1.20515e-13
1.07841e-13
1.63761e-13
1.1246e-13
1.39434e-13
1.08763e-13
2.12445e-14
7.2923e-15
1.48209e-15
3.35226e-16
6.42922e-17
3.71379e-18
2.82044e-18
1.79078e-17
1.81871e-16
1.25028e-16
7.00401e-17
2.19112e-17
4.5292e-18
2.92224e-19
9.6269e-21
1.92866e-18
1.0457e-15
1.48005e-15
4.10221e-16
2.60047e-17
3.71163e-19
1.62344e-22
1.49074e-25
8.57623e-13
2.02248e-13
6.33609e-13
1.81999e-13
4.93279e-15
1.72184e-18
1.61629e-21
5.2451e-23
1.83787e-22
2.08645e-22
8.43996e-22
3.57512e-22
3.27971e-22
4.09381e-22
6.73613e-22
5.75768e-22
1.25173e-21
1.49171e-21
6.16036e-21
1.5638e-20
1.32131e-20
5.69735e-22
1.31512e-22
2.38789e-22
4.24608e-22
5.62222e-22
5.39851e-22
5.39989e-22
2.63666e-22
1.0816e-22
1.62414e-22
1.59675e-21
1.06688e-20
1.05664e-19
3.36523e-18
3.82644e-17
1.27481e-16
3.68725e-16
1.12887e-15
2.18097e-15
3.62459e-15
5.53897e-15
7.92309e-15
1.10497e-14
1.72887e-14
2.76945e-14
3.66982e-14
4.05455e-14
4.03081e-14
3.60034e-14
3.36597e-14
2.93711e-14
2.87799e-14
2.44335e-14
1.35394e-14
9.47128e-15
7.56402e-15
1.53184e-15
1.46752e-16
2.43878e-17
3.15796e-18
3.51142e-19
1.90039e-20
6.48535e-21
2.38469e-20
4.91699e-19
3.65598e-19
2.08536e-19
6.78716e-20
1.24539e-20
1.67972e-21
9.77421e-23
2.76453e-21
1.97303e-17
7.41678e-18
8.86505e-19
2.56799e-20
5.5097e-22
2.81022e-24
1.34422e-25
9.64324e-14
4.24055e-15
1.83386e-13
2.63966e-14
6.75156e-16
2.16082e-19
2.78362e-23
2.5626e-25
8.55398e-25
4.91666e-25
9.9383e-25
2.43498e-25
2.68425e-25
3.38855e-25
5.32863e-25
5.4286e-25
7.34273e-25
8.72546e-25
3.4542e-24
4.28419e-24
5.10689e-25
2.99857e-25
6.22331e-25
1.79701e-24
3.15449e-24
4.4687e-24
4.16704e-24
4.98298e-24
2.703e-24
9.09574e-25
8.97754e-25
1.19482e-23
1.10652e-22
1.21146e-21
1.6156e-20
1.35188e-19
7.14415e-19
3.34927e-18
1.1583e-17
2.70724e-17
6.18879e-17
1.39713e-16
2.55811e-16
4.56903e-16
8.68289e-16
1.50337e-15
2.05462e-15
2.29305e-15
2.26843e-15
2.08927e-15
1.97578e-15
1.30789e-15
1.24038e-15
9.20454e-16
4.73962e-16
1.86056e-16
8.22259e-17
1.63855e-17
1.49283e-18
2.07221e-19
2.98085e-20
3.66074e-21
2.17599e-22
7.55513e-23
3.32833e-22
2.14042e-21
2.90333e-21
2.1005e-21
7.50724e-22
1.28536e-22
2.20014e-23
2.61994e-24
6.9456e-24
2.72606e-20
1.41903e-20
2.91748e-21
1.63335e-22
6.98222e-24
5.13561e-26
4.7162e-27
2.27355e-15
3.24554e-16
9.05187e-15
5.32964e-17
2.38261e-18
2.1078e-21
4.64774e-25
2.01757e-27
8.70662e-27
2.27193e-27
3.99572e-27
1.76287e-27
1.38265e-27
1.65786e-27
2.80451e-27
3.21372e-27
2.65383e-27
1.76672e-27
6.05174e-27
8.95889e-27
3.74318e-27
2.36747e-27
5.18273e-27
2.18168e-26
4.60711e-26
7.38097e-26
7.40271e-26
9.36014e-26
4.85483e-26
1.19512e-26
9.20744e-27
1.45802e-25
1.2972e-24
1.2325e-23
1.42124e-22
1.11616e-21
6.27539e-21
2.79709e-20
8.6301e-20
2.05662e-19
4.58414e-19
9.99123e-19
2.05865e-18
4.47646e-18
1.03669e-17
2.01043e-17
2.99831e-17
3.575e-17
3.60532e-17
3.57535e-17
3.4655e-17
1.80353e-17
1.41794e-17
1.05401e-17
5.90548e-18
2.44103e-18
8.15192e-19
1.46895e-19
1.97179e-20
2.91799e-21
4.47878e-22
5.32701e-23
3.26329e-24
1.18651e-24
5.98785e-24
3.16124e-23
4.16754e-23
3.01668e-23
1.01138e-23
1.50765e-24
3.01627e-25
4.38646e-26
1.03833e-25
1.09276e-22
8.73219e-23
1.79018e-23
1.19783e-24
4.1314e-26
8.17744e-28
3.8775e-28
3.01085e-18
1.81039e-18
3.40329e-17
2.24986e-18
4.83567e-21
4.5137e-26
6.14249e-27
4.41183e-29
1.11601e-28
3.54715e-29
5.06259e-29
2.42449e-29
2.04172e-29
2.53959e-29
4.20742e-29
4.97785e-29
4.46416e-29
3.10568e-29
3.15607e-29
5.25368e-29
5.38455e-29
2.92394e-29
4.98635e-29
3.24335e-28
7.06308e-28
1.43249e-27
1.446e-27
2.14167e-27
1.28664e-27
2.75301e-28
2.05234e-28
3.38017e-27
2.83877e-26
2.16513e-25
2.56713e-24
1.83422e-23
8.91379e-23
3.5241e-22
1.0208e-21
2.4e-21
5.24849e-21
1.16051e-20
2.52281e-20
5.3808e-20
1.13124e-19
2.09723e-19
3.20487e-19
3.99235e-19
4.02151e-19
4.29222e-19
4.40619e-19
2.81313e-19
2.09967e-19
1.43694e-19
8.19599e-20
4.07697e-20
1.48639e-20
2.60375e-21
3.47948e-22
5.20274e-23
8.01814e-24
9.1214e-25
5.54178e-26
2.01799e-26
1.18542e-25
5.45625e-25
6.59469e-25
4.74737e-25
1.5708e-25
2.39101e-26
4.75563e-27
6.93401e-28
1.41734e-27
1.23232e-24
8.40454e-25
1.4759e-25
1.00289e-26
1.91007e-28
5.22306e-29
3.068e-29
7.33021e-21
9.11673e-22
1.5465e-20
3.56072e-21
3.59332e-23
4.88431e-27
9.55777e-29
7.62062e-31
1.88185e-30
7.27888e-31
8.89478e-31
4.85152e-31
3.83482e-31
4.65497e-31
7.52867e-31
8.93276e-31
8.07116e-31
5.81677e-31
4.45813e-31
7.18542e-31
8.27465e-31
4.64072e-31
9.18956e-31
6.5357e-30
1.6212e-29
3.33493e-29
3.65331e-29
5.58401e-29
3.39862e-29
7.24438e-30
7.86556e-30
8.30471e-29
7.10501e-28
5.2869e-27
4.59957e-26
3.3415e-25
2.76829e-24
1.56977e-23
5.41852e-23
1.28959e-22
3.31613e-22
4.28563e-22
2.73e-22
6.35455e-22
1.4588e-21
2.88617e-21
4.74927e-21
6.15288e-21
6.13998e-21
6.71996e-21
6.97446e-21
5.2284e-21
4.0883e-21
2.72298e-21
1.46602e-21
7.25409e-22
2.87792e-22
5.08545e-23
6.6247e-24
9.69173e-25
1.47528e-25
1.6234e-26
9.869e-28
3.64171e-28
2.25834e-27
9.97979e-27
1.12238e-26
7.78788e-27
2.34801e-27
3.87164e-28
7.65236e-29
1.06734e-29
2.55265e-29
1.65611e-26
9.06283e-27
1.42075e-27
9.79147e-29
1.65072e-30
4.11861e-30
2.50559e-30
1.06516e-22
1.34731e-23
2.15553e-23
5.2712e-24
3.53667e-26
2.92183e-28
1.31662e-30
2.06239e-32
3.58803e-32
1.65841e-32
1.7872e-32
1.09389e-32
8.51917e-33
9.41246e-33
1.41528e-32
1.65998e-32
1.55844e-32
1.21708e-32
8.76039e-33
1.26318e-32
1.70218e-32
1.0299e-32
1.67015e-32
1.43852e-31
3.75086e-31
8.72128e-31
9.86869e-31
1.58746e-30
1.00934e-30
5.09566e-31
3.65459e-30
7.86557e-30
8.99565e-29
1.69548e-27
2.76583e-26
3.72084e-25
4.13018e-24
3.06228e-23
9.01063e-23
1.72214e-22
5.98135e-22
4.84753e-22
9.51095e-24
5.99475e-24
1.85268e-23
3.88301e-23
7.08761e-23
9.76074e-23
1.03175e-22
1.15757e-22
1.19551e-22
9.4352e-23
7.81515e-23
5.54985e-23
2.98015e-23
1.40996e-23
5.73782e-24
1.05177e-24
1.37289e-25
1.97245e-26
2.98554e-27
3.24369e-28
1.94836e-29
7.05304e-30
4.43021e-29
1.89477e-28
2.01474e-28
1.38825e-28
3.85417e-29
6.74583e-30
1.24368e-30
1.6606e-31
6.60575e-30
2.33722e-28
1.0903e-28
1.62161e-29
1.02949e-30
5.56099e-32
3.60686e-31
2.05646e-31
1.26337e-24
1.4262e-25
7.32883e-26
2.45479e-26
1.59523e-28
1.45858e-30
2.71465e-32
7.25495e-34
8.78918e-34
4.50063e-34
4.2888e-34
3.20979e-34
2.36165e-34
2.23969e-34
3.18309e-34
3.77071e-34
3.82379e-34
3.42558e-34
2.70301e-34
3.18222e-34
4.48142e-34
3.53252e-34
4.46405e-34
3.45993e-33
8.93028e-33
2.50169e-32
2.78013e-32
5.11148e-32
1.73512e-31
3.9228e-31
5.3121e-30
1.27488e-28
2.8949e-27
5.98593e-26
1.09464e-24
1.66514e-23
2.07596e-22
1.74672e-21
5.63985e-21
1.07067e-20
4.0314e-20
5.30922e-20
1.04503e-23
1.58285e-24
5.22788e-25
6.63529e-25
8.40952e-25
1.41038e-24
1.75651e-24
2.0764e-24
2.1924e-24
1.769e-24
1.47926e-24
1.10371e-24
6.17357e-25
2.92428e-25
1.19975e-25
2.18555e-26
2.85834e-27
4.05795e-28
6.04981e-29
6.5164e-30
3.92171e-31
1.44446e-31
9.3498e-31
3.73877e-30
3.82497e-30
2.5253e-30
6.40262e-31
1.15693e-31
2.0797e-32
2.86112e-33
2.24239e-31
3.37018e-30
1.46145e-30
2.23997e-31
1.25602e-32
4.27539e-33
3.26073e-32
1.70278e-32
2.4485e-26
1.73325e-27
6.20676e-28
1.30892e-28
7.45843e-31
2.80091e-32
1.47578e-33
4.43277e-35
2.9632e-35
1.6549e-35
1.40145e-35
1.34418e-35
1.00803e-35
8.19273e-36
1.05959e-35
1.228e-35
1.34759e-35
1.45627e-35
1.31069e-35
1.3537e-35
1.73925e-35
1.75597e-35
2.09954e-35
9.59023e-35
2.51464e-34
8.57698e-34
4.49881e-33
1.88849e-32
2.06498e-31
5.55835e-30
1.54326e-28
4.12681e-27
1.03369e-25
2.35909e-24
4.79644e-23
8.11791e-22
1.1161e-20
1.06144e-19
3.76998e-19
7.02947e-19
2.62464e-18
4.76241e-18
6.17129e-21
1.82104e-23
5.22788e-25
5.22788e-25
4.0709e-25
1.10161e-25
2.57084e-26
3.68877e-26
4.18367e-26
3.53176e-26