/*--------------------------------*- C++ -*----------------------------------*\
| =========                 |                                                 |
| \\      /  F ield         | OpenFOAM: The Open Source CFD Toolbox           |
|  \\    /   O peration     | Version:  2412                                  |
|   \\  /    A nd           | Website:  www.openfoam.com                      |
|    \\/     M anipulation  |                                                 |
\*---------------------------------------------------------------------------*/
FoamFile
{
    version     2.0;
    format      ascii;
    arch        "LSB;label=32;scalar=64";
    class       surfaceScalarField;
    location    "73";
    object      phi;
}
// * * * * * * * * * * * * * * * * * * * * * * * * * * * * * * * * * * * * * //

dimensions      [0 3 -1 0 0 0 0];

oriented        oriented;

internalField   nonuniform List<scalar> 
12640
(
-6.98351e-09
6.11031e-09
-2.19532e-08
1.29308e-08
-3.67142e-08
1.30614e-08
-4.64653e-08
8.07493e-09
-4.83419e-08
-4.99973e-11
-4.08335e-08
-9.51113e-09
-2.34873e-08
-1.9679e-08
3.77725e-09
-2.95282e-08
4.03705e-08
-3.92076e-08
8.60614e-08
-4.812e-08
1.40036e-07
-5.67822e-08
2.01627e-07
-6.39913e-08
2.695e-07
-7.0525e-08
3.43137e-07
-7.58162e-08
4.21054e-07
-8.06845e-08
5.0261e-07
-8.40664e-08
5.86372e-07
-8.67871e-08
6.72241e-07
-8.81431e-08
7.59474e-07
-8.96718e-08
8.46227e-07
-8.84891e-08
9.30523e-07
-8.67254e-08
1.01227e-06
-8.41546e-08
1.09063e-06
-8.19053e-08
1.16701e-06
-7.98511e-08
1.23967e-06
-7.67416e-08
1.3059e-06
-6.97456e-08
1.36349e-06
-6.14073e-08
1.41463e-06
-5.44049e-08
1.45929e-06
-4.84189e-08
1.49452e-06
-3.86281e-08
1.51855e-06
-2.77909e-08
1.53293e-06
-1.74642e-08
1.53755e-06
-7.79332e-09
1.53312e-06
2.118e-09
1.51839e-06
1.26542e-08
1.49041e-06
2.69009e-08
1.45087e-06
3.88167e-08
1.40337e-06
4.79627e-08
1.34257e-06
6.18327e-08
1.27023e-06
7.46742e-08
1.19059e-06
8.23639e-08
1.10407e-06
9.03518e-08
1.00941e-06
9.87068e-08
9.07583e-07
1.06773e-07
8.00225e-07
1.12194e-07
6.8883e-07
1.16867e-07
5.73551e-07
1.20346e-07
4.56614e-07
1.22531e-07
3.39327e-07
1.22187e-07
2.2372e-07
1.21034e-07
1.10476e-07
1.17747e-07
1.84758e-09
1.13756e-07
-1.0164e-07
1.07485e-07
-1.97701e-07
1.00936e-07
-2.86771e-07
9.25753e-08
-3.66441e-07
8.42127e-08
-4.36382e-07
7.25633e-08
-4.94053e-07
6.1343e-08
-5.41032e-07
4.81104e-08
-5.75073e-07
3.64249e-08
-5.98299e-07
2.25342e-08
-6.0843e-07
1.09764e-08
-6.07932e-07
-3.20473e-09
-5.94442e-07
-1.42309e-08
-5.71489e-07
-2.75242e-08
-5.374e-07
-3.61259e-08
-4.96944e-07
-4.63127e-08
-4.47849e-07
-5.20015e-08
-3.95055e-07
-5.95528e-08
-3.37043e-07
-6.15715e-08
-2.79492e-07
-6.46302e-08
-2.20917e-07
-6.21405e-08
-1.66718e-07
-6.05913e-08
-1.15781e-07
-5.38683e-08
-7.3064e-08
-4.78556e-08
-3.78104e-08
-3.75422e-08
-1.40051e-08
-2.76619e-08
-5.61751e-10
-1.52753e-08
1.9337e-09
-4.96396e-09
1.65046e-09
-1.25716e-08
1.87428e-08
-3.485e-08
3.32837e-08
-5.27283e-08
2.81004e-08
-5.67968e-08
8.51997e-09
-4.09097e-08
-1.97949e-08
-1.69803e-09
-5.3049e-08
6.24719e-08
-8.79904e-08
1.51544e-07
-1.23156e-07
2.6485e-07
-1.56717e-07
4.01068e-07
-1.88946e-07
5.58631e-07
-2.18464e-07
7.34944e-07
-2.44895e-07
9.27937e-07
-2.67322e-07
1.13518e-06
-2.87035e-07
1.35453e-06
-3.02983e-07
1.58255e-06
-3.15608e-07
1.81669e-06
-3.24011e-07
2.05437e-06
-3.29957e-07
2.29395e-06
-3.32912e-07
2.53244e-06
-3.31383e-07
2.7671e-06
-3.25068e-07
2.995e-06
-3.16573e-07
3.21397e-06
-3.05151e-07
3.42248e-06
-2.93889e-07
3.61966e-06
-2.79305e-07
3.80122e-06
-2.57636e-07
3.96329e-06
-2.29277e-07
4.10499e-06
-2.02471e-07
4.22523e-06
-1.7419e-07
4.32003e-06
-1.39311e-07
4.38765e-06
-1.00454e-07
4.42741e-06
-6.24801e-08
4.43868e-06
-2.34007e-08
4.42032e-06
1.6107e-08
4.3726e-06
5.74345e-08
4.29272e-06
1.04513e-07
4.18177e-06
1.49449e-07
4.04122e-06
1.89231e-07
3.8704e-06
2.35491e-07
3.67103e-06
2.77893e-07
3.4454e-06
3.1365e-07
3.19482e-06
3.47219e-07
2.92293e-06
3.78325e-07
2.63369e-06
4.03551e-07
2.32973e-06
4.24537e-07
2.01289e-06
4.41407e-07
1.68711e-06
4.54481e-07
1.35684e-06
4.60063e-07
1.02724e-06
4.59727e-07
7.00984e-07
4.5389e-07
3.82886e-07
4.43384e-07
7.64328e-08
4.26052e-07
-2.13752e-07
4.04577e-07
-4.85362e-07
3.77146e-07
-7.34898e-07
3.47927e-07
-9.59788e-07
3.11999e-07
-1.15505e-06
2.72172e-07
-1.31981e-06
2.26609e-07
-1.45144e-06
1.81719e-07
-1.55117e-06
1.3342e-07
-1.61689e-06
8.74501e-08
-1.6505e-06
3.85747e-08
-1.64993e-06
-7.22871e-09
-1.61885e-06
-5.42558e-08
-1.55738e-06
-9.47249e-08
-1.47094e-06
-1.33936e-07
-1.3604e-06
-1.64344e-07
-1.23249e-06
-1.92574e-07
-1.08932e-06
-2.10738e-07
-9.38178e-07
-2.25155e-07
-7.8238e-07
-2.28005e-07
-6.29163e-07
-2.26388e-07
-4.82426e-07
-2.13419e-07
-3.48703e-07
-1.95719e-07
-2.31884e-07
-1.68168e-07
-1.36903e-07
-1.36716e-07
-6.66954e-08
-9.86805e-08
-2.26873e-08
-6.0203e-08
-3.51279e-09
-2.40259e-08
-2.55169e-10
-1.15478e-08
2.91252e-08
-2.72894e-08
4.63699e-08
-3.16562e-08
2.88557e-08
-1.3389e-08
-1.37158e-08
3.47515e-08
-7.24849e-08
1.17362e-07
-1.40062e-07
2.36394e-07
-2.11728e-07
3.92198e-07
-2.83169e-07
5.83384e-07
-3.5247e-07
8.08562e-07
-4.17942e-07
1.06452e-06
-4.78629e-07
1.34825e-06
-5.32045e-07
1.6565e-06
-5.795e-07
1.98645e-06
-6.19747e-07
2.33312e-06
-6.5265e-07
2.69229e-06
-6.76536e-07
3.05948e-06
-6.93693e-07
3.43226e-06
-7.04523e-07
3.80674e-06
-7.10322e-07
4.18038e-06
-7.07313e-07
4.54749e-06
-6.9557e-07
4.90393e-06
-6.75757e-07
5.24509e-06
-6.50221e-07
5.56904e-06
-6.21289e-07
5.87339e-06
-5.88353e-07
6.15464e-06
-5.43151e-07
6.40655e-06
-4.86512e-07
6.62604e-06
-4.26653e-07
6.80948e-06
-3.63076e-07
6.95474e-06
-2.89147e-07
7.05842e-06
-2.09226e-07
7.11896e-06
-1.27254e-07
7.13451e-06
-4.35555e-08
7.10344e-06
4.36622e-08
7.02427e-06
1.3308e-07
6.89679e-06
2.30093e-07
6.71982e-06
3.25027e-07
6.49433e-06
4.15291e-07
6.2234e-06
5.07538e-07
5.91004e-06
5.94328e-07
5.55284e-06
6.74358e-07
5.15535e-06
7.49886e-07
4.72393e-06
8.14759e-07
4.26474e-06
8.68811e-07
3.78176e-06
9.1276e-07
3.28055e-06
9.48739e-07
2.76595e-06
9.73972e-07
2.2457e-06
9.86135e-07
1.72512e-06
9.84554e-07
1.21149e-06
9.72958e-07
7.09489e-07
9.49033e-07
2.27557e-07
9.1323e-07
-2.31081e-07
8.66173e-07
-6.60254e-07
8.11098e-07
-1.05537e-06
7.44781e-07
-1.40831e-06
6.68849e-07
-1.71818e-06
5.82101e-07
-1.97946e-06
4.90404e-07
-2.19269e-06
3.92527e-07
-2.35333e-06
2.94467e-07
-2.4639e-06
1.92739e-07
-2.52026e-06
9.33609e-08
-2.52694e-06
-8.20219e-09
-2.48271e-06
-1.01678e-07
-2.39617e-06
-1.90839e-07
-2.26736e-06
-2.6732e-07
-2.10538e-06
-3.3737e-07
-1.91255e-06
-3.909e-07
-1.70027e-06
-4.3435e-07
-1.4719e-06
-4.58823e-07
-1.23918e-06
-4.71059e-07
-1.00655e-06
-4.63523e-07
-7.85293e-07
-4.43065e-07
-5.80177e-07
-4.03919e-07
-4.00558e-07
-3.53146e-07
-2.50448e-07
-2.87809e-07
-1.35329e-07
-2.15449e-07
-5.6646e-08
-1.37972e-07
-1.32093e-08
-6.61501e-08
-1.13687e-08
-6.06788e-09
3.35287e-08
-7.0994e-09
4.38551e-08
1.21551e-08
5.41229e-09
6.30068e-08
-6.91996e-08
1.52932e-07
-1.67065e-07
2.86434e-07
-2.7849e-07
4.65755e-07
-3.95539e-07
6.9092e-07
-5.12952e-07
9.60427e-07
-6.25988e-07
1.27147e-06
-7.33046e-07
1.62081e-06
-8.3113e-07
2.00473e-06
-9.19304e-07
2.4201e-06
-9.9739e-07
2.86087e-06
-1.06322e-06
3.32122e-06
-1.11446e-06
3.79601e-06
-1.15281e-06
4.28179e-06
-1.17982e-06
4.77417e-06
-1.19784e-06
5.2687e-06
-1.20527e-06
5.75938e-06
-1.19945e-06
6.24041e-06
-1.17769e-06
6.70669e-06
-1.14414e-06
7.15417e-06
-1.0993e-06
7.57732e-06
-1.04695e-06
7.97256e-06
-9.85664e-07
8.33649e-06
-9.10297e-07
8.66429e-06
-8.17218e-07
8.94919e-06
-7.15443e-07
9.18612e-06
-6.03405e-07
9.37244e-06
-4.79603e-07
9.50597e-06
-3.46209e-07
9.58261e-06
-2.08124e-07
9.60088e-06
-6.53848e-08
9.55726e-06
8.33391e-08
9.44922e-06
2.38131e-07
9.27744e-06
3.98864e-07
9.04158e-06
5.59232e-07
8.73927e-06
7.16232e-07
8.37682e-06
8.70129e-07
7.9578e-06
1.0138e-06
7.48473e-06
1.14934e-06
6.9628e-06
1.27364e-06
6.39783e-06
1.38263e-06
5.792e-06
1.47678e-06
5.15179e-06
1.55587e-06
4.48618e-06
1.6161e-06
3.80605e-06
1.6566e-06
3.11754e-06
1.67583e-06
2.4285e-06
1.67581e-06
1.74806e-06
1.65408e-06
1.08653e-06
1.61267e-06
4.49029e-07
1.5511e-06
-1.57238e-07
1.47463e-06
-7.28253e-07
1.38196e-06
-1.25054e-06
1.26897e-06
-1.71943e-06
1.13657e-06
-2.13059e-06
9.94364e-07
-2.48298e-06
8.4001e-07
-2.76959e-06
6.79009e-07
-2.98974e-06
5.09917e-07
-3.13897e-06
3.4055e-07
-3.22172e-06
1.69756e-07
-3.23708e-06
4.82024e-09
-3.19126e-06
-1.54975e-07
-3.0859e-06
-2.99203e-07
-2.92993e-06
-4.31671e-07
-2.72749e-06
-5.43391e-07
-2.48924e-06
-6.37947e-07
-2.2212e-06
-7.06252e-07
-1.9354e-06
-7.52923e-07
-1.63962e-06
-7.70147e-07
-1.34574e-06
-7.64247e-07
-1.06201e-06
-7.2922e-07
-7.98885e-07
-6.71882e-07
-5.64105e-07
-5.89154e-07
-3.65033e-07
-4.88904e-07
-2.0717e-07
-3.72564e-07
-9.3022e-08
-2.50492e-07
-2.45504e-08
-1.31786e-07
-3.25219e-08
1.74647e-09
2.97373e-08
2.03236e-08
2.08363e-08
6.9468e-08
-4.88916e-08
1.59535e-07
-1.64428e-07
2.97314e-07
-3.10184e-07
4.86802e-07
-4.72994e-07
7.29591e-07
-6.4336e-07
1.0254e-06
-8.13124e-07
1.37185e-06
-9.76867e-07
1.76566e-06
-1.13035e-06
2.20342e-06
-1.2722e-06
2.68118e-06
-1.39919e-06
3.19313e-06
-1.51157e-06
3.73235e-06
-1.60359e-06
4.29295e-06
-1.6763e-06
4.87012e-06
-1.7298e-06
5.46033e-06
-1.76991e-06
6.05759e-06
-1.79384e-06
6.65358e-06
-1.80077e-06
7.24222e-06
-1.7871e-06
7.81831e-06
-1.75397e-06
8.37772e-06
-1.70339e-06
8.91436e-06
-1.63683e-06
9.42152e-06
-1.55446e-06
9.89263e-06
-1.45808e-06
1.03243e-05
-1.34289e-06
1.0713e-05
-1.20796e-06
1.10526e-05
-1.05668e-06
1.13338e-05
-8.8724e-07
1.15536e-05
-7.01667e-07
1.17101e-05
-5.05716e-07
1.17986e-05
-2.9954e-07
1.18154e-05
-8.59528e-08
1.17571e-05
1.38594e-07
1.16191e-05
3.72581e-07
1.14055e-05
6.09942e-07
1.11175e-05
8.44566e-07
1.07531e-05
1.07902e-06
1.03154e-05
1.30613e-06
9.80626e-06
1.52249e-06
9.23128e-06
1.72365e-06
8.60117e-06
1.90412e-06
7.9209e-06
2.06271e-06
7.19336e-06
2.20488e-06
6.42224e-06
2.32641e-06
5.61996e-06
2.41847e-06
4.79705e-06
2.47819e-06
3.96439e-06
2.50823e-06
3.13055e-06
2.5079e-06
2.30764e-06
2.47665e-06
1.5048e-06
2.41337e-06
7.31541e-07
2.32412e-06
-4.69996e-09
2.20849e-06
-6.93889e-07
2.07107e-06
-1.32953e-06
1.90172e-06
-1.90035e-06
1.70706e-06
-2.40373e-06
1.49366e-06
-2.83247e-06
1.26754e-06
-3.18605e-06
1.0271e-06
-3.45662e-06
7.78756e-07
-3.64618e-06
5.239e-07
-3.75344e-06
2.75041e-07
-3.78513e-06
2.95327e-08
-3.74078e-06
-2.0135e-07
-3.62914e-06
-4.17855e-07
-3.45339e-06
-6.09301e-07
-3.22588e-06
-7.77922e-07
-2.95255e-06
-9.13189e-07
-2.64646e-06
-1.01923e-06
-2.31562e-06
-1.08569e-06
-1.97402e-06
-1.11772e-06
-1.63102e-06
-1.10856e-06
-1.29948e-06
-1.06502e-06
-9.8866e-07
-9.83215e-07
-7.08769e-07
-8.71176e-07
-4.67837e-07
-7.29279e-07
-2.71844e-07
-5.67682e-07
-1.26565e-07
-3.93147e-07
-3.42202e-08
-2.19851e-07
-6.30276e-08
1.04197e-08
1.69607e-08
5.12492e-08
-2.51847e-08
1.33954e-07
-1.37357e-07
2.67165e-07
-3.03513e-07
4.56521e-07
-5.0505e-07
7.04804e-07
-7.26746e-07
1.01268e-06
-9.56013e-07
1.37874e-06
-1.1838e-06
1.80001e-06
-1.40194e-06
2.27292e-06
-1.60689e-06
2.79428e-06
-1.79589e-06
3.35742e-06
-1.96412e-06
3.95454e-06
-2.10908e-06
4.57998e-06
-2.22938e-06
5.22916e-06
-2.3247e-06
5.89633e-06
-2.39622e-06
6.57582e-06
-2.44734e-06
7.25907e-06
-2.4752e-06
7.93829e-06
-2.47725e-06
8.6078e-06
-2.45468e-06
9.26337e-06
-2.40724e-06
9.8991e-06
-2.33803e-06
1.05092e-05
-2.24556e-06
1.1084e-05
-2.12907e-06
1.16159e-05
-1.98932e-06
1.21006e-05
-1.82791e-06
1.25363e-05
-1.6436e-06
1.29171e-05
-1.43839e-06
1.32345e-05
-1.20515e-06
1.34801e-05
-9.49026e-07
1.36524e-05
-6.79343e-07
1.37473e-05
-3.97041e-07
1.37609e-05
-1.01987e-07
1.36883e-05
2.08165e-07
1.35261e-05
5.32346e-07
1.32786e-05
8.54357e-07
1.29469e-05
1.17402e-06
1.25293e-05
1.49418e-06
1.20291e-05
1.80448e-06
1.14479e-05
2.10146e-06
1.07919e-05
2.37857e-06
1.00696e-05
2.62461e-06
9.28882e-06
2.84258e-06
8.45331e-06
3.03843e-06
7.57401e-06
3.20442e-06
6.6598e-06
3.32995e-06
5.72166e-06
3.41448e-06
4.76975e-06
3.45684e-06
3.81753e-06
3.45824e-06
2.87442e-06
3.41622e-06
1.95336e-06
3.33258e-06
1.06404e-06
3.20947e-06
2.20505e-07
3.05021e-06
-5.67667e-07
2.8549e-06
-1.29305e-06
2.62524e-06
-1.95256e-06
2.36145e-06
-2.53338e-06
2.0721e-06
-3.03176e-06
1.75942e-06
-3.44032e-06
1.43277e-06
-3.76035e-06
1.09178e-06
-3.9862e-06
7.47452e-07
-4.12251e-06
4.04767e-07
-4.16956e-06
7.474e-08
-4.13504e-06
-2.42478e-07
-4.02104e-06
-5.32959e-07
-3.83879e-06
-7.97315e-07
-3.59399e-06
-1.02325e-06
-3.30019e-06
-1.21227e-06
-2.96629e-06
-1.35367e-06
-2.60651e-06
-1.4504e-06
-2.23101e-06
-1.49387e-06
-1.85381e-06
-1.48965e-06
-1.48601e-06
-1.43298e-06
-1.13958e-06
-1.33159e-06
-8.24882e-07
-1.18504e-06
-5.50344e-07
-1.00313e-06
-3.24676e-07
-7.9088e-07
-1.52716e-07
-5.60808e-07
-4.27835e-08
-3.25209e-07
-1.00328e-07
1.91112e-08
-4.85615e-09
8.32424e-08
-9.4619e-08
2.01263e-07
-2.61302e-07
3.79691e-07
-4.877e-07
6.22461e-07
-7.53393e-07
9.3077e-07
-1.03998e-06
1.30387e-06
-1.33373e-06
1.73923e-06
-1.62285e-06
2.23294e-06
-1.89914e-06
2.78105e-06
-2.15747e-06
3.37782e-06
-2.39462e-06
4.01557e-06
-2.60207e-06
4.68679e-06
-2.77978e-06
5.38829e-06
-2.92893e-06
6.11471e-06
-3.04913e-06
6.85921e-06
-3.13756e-06
7.61052e-06
-3.19567e-06
8.36142e-06
-3.22205e-06
9.10714e-06
-3.21937e-06
9.8429e-06
-3.18621e-06
1.05628e-05
-3.12384e-06
1.12589e-05
-3.03064e-06
1.19236e-05
-2.90795e-06
1.25494e-05
-2.75243e-06
1.31273e-05
-2.56582e-06
1.36531e-05
-2.35209e-06
1.41241e-05
-2.11378e-06
1.45344e-05
-1.8477e-06
1.48763e-05
-1.54687e-06
1.51412e-05
-1.2138e-06
1.53238e-05
-8.62978e-07
1.54224e-05
-4.96535e-07
1.54323e-05
-1.13707e-07
1.53492e-05
2.89648e-07
1.51703e-05
7.08649e-07
1.48978e-05
1.12492e-06
1.45285e-05
1.54022e-06
1.40675e-05
1.95305e-06
1.35158e-05
2.35334e-06
1.28764e-05
2.73922e-06
1.21543e-05
3.09823e-06
1.13571e-05
3.42006e-06
1.04925e-05
3.70445e-06
9.57212e-06
3.95673e-06
8.60523e-06
4.16792e-06
7.60159e-06
4.33105e-06
6.5704e-06
4.44168e-06
5.52512e-06
4.49936e-06
4.47702e-06
4.50204e-06
3.43994e-06
4.45072e-06
2.42352e-06
4.34445e-06
1.4432e-06
4.18715e-06
5.11499e-07
3.97677e-06
-3.54128e-07
3.71781e-06
-1.15457e-06
3.41981e-06
-1.88287e-06
3.0865e-06
-2.53091e-06
2.71315e-06
-3.08525e-06
2.30998e-06
-3.54296e-06
1.88273e-06
-3.9025e-06
1.44779e-06
-4.16612e-06
1.00363e-06
-4.32796e-06
5.64645e-07
-4.39586e-06
1.36567e-07
-4.37177e-06
-2.6751e-07
-4.26523e-06
-6.44802e-07
-4.08115e-06
-9.81227e-07
-3.83228e-06
-1.27633e-06
-3.52665e-06
-1.51716e-06
-3.17934e-06
-1.7046e-06
-2.8009e-06
-1.82838e-06
-2.40602e-06
-1.89208e-06
-2.00639e-06
-1.8892e-06
-1.61548e-06
-1.82612e-06
-1.24526e-06
-1.70118e-06
-9.06211e-07
-1.52378e-06
-6.09151e-07
-1.29779e-06
-3.61014e-07
-1.03508e-06
-1.71904e-07
-7.45261e-07
-4.74448e-08
-4.42907e-07
-1.42876e-07
2.72956e-08
-3.49859e-08
1.14928e-07
-1.86905e-07
2.68744e-07
-4.20173e-07
4.93136e-07
-7.17172e-07
7.89715e-07
-1.05451e-06
1.15794e-06
-1.4124e-06
1.59564e-06
-1.77469e-06
2.09868e-06
-2.12871e-06
2.66219e-06
-2.46439e-06
3.2797e-06
-2.77634e-06
3.94206e-06
-3.05703e-06
4.64289e-06
-3.30214e-06
5.37934e-06
-3.51356e-06
6.14817e-06
-3.6944e-06
6.94e-06
-3.8363e-06
7.74409e-06
-3.93695e-06
8.55005e-06
-3.99592e-06
9.353e-06
-4.01973e-06
1.01507e-05
-4.01115e-06
1.09372e-05
-3.96751e-06
1.17036e-05
-3.88482e-06
1.24407e-05
-3.76342e-06
1.31421e-05
-3.60477e-06
1.38017e-05
-3.40859e-06
1.44142e-05
-3.17479e-06
1.49714e-05
-2.90697e-06
1.54683e-05
-2.60803e-06
1.58973e-05
-2.27497e-06
1.62539e-05
-1.90136e-06
1.65316e-05
-1.49088e-06
1.67219e-05
-1.05274e-06
1.68211e-05
-5.96106e-07
1.68264e-05
-1.19173e-07
1.6734e-05
3.80819e-07
1.65425e-05
8.98673e-07
1.6248e-05
1.41735e-06
1.58504e-05
1.93553e-06
1.53556e-05
2.44492e-06
1.47651e-05
2.9417e-06
1.40801e-05
3.42197e-06
1.33072e-05
3.86945e-06
1.24533e-05
4.27097e-06
1.15289e-05
4.62652e-06
1.05446e-05
4.93737e-06
9.51205e-06
5.19764e-06
8.43993e-06
5.39906e-06
7.34022e-06
5.53841e-06
6.22375e-06
5.61131e-06
5.10596e-06
5.61687e-06
3.99797e-06
5.554e-06
2.9137e-06
5.42591e-06
1.86415e-06
5.23153e-06
8.66526e-07
4.9712e-06
-6.67214e-08
4.64487e-06
-9.23095e-07
4.27248e-06
-1.70336e-06
3.85929e-06
-2.3985e-06
3.40386e-06
-3.00179e-06
2.905e-06
-3.49951e-06
2.37626e-06
-3.89459e-06
1.83485e-06
-4.18609e-06
1.2919e-06
-4.37656e-06
7.48322e-07
-4.46342e-06
2.2259e-07
-4.4568e-06
-2.78948e-07
-4.35992e-06
-7.41225e-07
-4.18454e-06
-1.16037e-06
-3.93761e-06
-1.52193e-06
-3.6334e-06
-1.82416e-06
-3.28201e-06
-2.05448e-06
-2.89859e-06
-2.21414e-06
-2.49517e-06
-2.29462e-06
-2.08607e-06
-2.30034e-06
-1.68418e-06
-2.22761e-06
-1.30161e-06
-2.08434e-06
-9.50856e-07
-1.87297e-06
-6.40468e-07
-1.605e-06
-3.81886e-07
-1.28891e-06
-1.80988e-07
-9.38282e-07
-5.08381e-08
-5.66318e-07
-1.86943e-07
3.49046e-08
-7.25106e-08
1.45526e-07
-3.00732e-07
3.35265e-07
-6.13339e-07
6.05538e-07
-9.9077e-07
9.55396e-07
-1.40756e-06
1.38281e-06
-1.84231e-06
1.88382e-06
-2.27774e-06
2.45229e-06
-2.69816e-06
3.08071e-06
-3.09329e-06
3.75921e-06
-3.45411e-06
4.47981e-06
-3.77639e-06
5.23883e-06
-4.05845e-06
6.03163e-06
-4.30271e-06
6.85156e-06
-4.50866e-06
7.68974e-06
-4.66836e-06
8.53638e-06
-4.77642e-06
9.38315e-06
-4.83561e-06
1.02259e-05
-4.85477e-06
1.10594e-05
-4.83754e-06
1.1879e-05
-4.77977e-06
1.26735e-05
-4.67314e-06
1.34351e-05
-4.5189e-06
1.41586e-05
-4.32302e-06
1.48398e-05
-4.08453e-06
1.54761e-05
-3.80683e-06
1.60557e-05
-3.4824e-06
1.65662e-05
-3.11549e-06
1.70036e-05
-2.70883e-06
1.7366e-05
-2.26116e-06
1.76493e-05
-1.77183e-06
1.78429e-05
-1.24552e-06
1.79405e-05
-6.92559e-07
1.7939e-05
-1.17776e-07
1.78368e-05
4.8301e-07
1.76314e-05
1.10217e-06
1.73199e-05
1.72751e-06
1.6905e-05
2.34814e-06
1.63891e-05
2.95924e-06
1.577e-05
3.55826e-06
1.50534e-05
4.13717e-06
1.42448e-05
4.67549e-06
1.33543e-05
5.15931e-06
1.23911e-05
5.58634e-06
1.13661e-05
5.95984e-06
1.02889e-05
6.27073e-06
9.17193e-06
6.51312e-06
8.02494e-06
6.68103e-06
6.86274e-06
6.77049e-06
5.69783e-06
6.77707e-06
4.54525e-06
6.70363e-06
3.41493e-06
6.55122e-06
2.32196e-06
6.32152e-06
1.27684e-06
6.0104e-06
2.96392e-07
5.62136e-06
-6.05539e-07
5.16691e-06
-1.41896e-06
4.6679e-06
-2.14724e-06
4.12342e-06
-2.78156e-06
3.53434e-06
-3.31704e-06
2.90311e-06
-3.73984e-06
2.25394e-06
-4.05746e-06
1.60208e-06
-4.26915e-06
9.57931e-07
-4.3799e-06
3.27953e-07
-4.39025e-06
-2.68054e-07
-4.31138e-06
-8.23425e-07
-4.14846e-06
-1.3217e-06
-3.91481e-06
-1.7581e-06
-3.61936e-06
-2.11784e-06
-3.27675e-06
-2.39905e-06
-2.89849e-06
-2.59093e-06
-2.4992e-06
-2.69543e-06
-2.0922e-06
-2.70646e-06
-1.69086e-06
-2.62976e-06
-1.30887e-06
-2.46554e-06
-9.56359e-07
-2.22393e-06
-6.45919e-07
-1.91218e-06
-3.83992e-07
-1.544e-06
-1.83167e-07
-1.13179e-06
-4.98776e-08
-6.89432e-07
-2.3124e-07
4.20347e-08
-1.16464e-07
1.75361e-07
-4.35276e-07
4.01112e-07
-8.40213e-07
7.17558e-07
-1.30849e-06
1.1215e-06
-1.8126e-06
1.6086e-06
-2.33044e-06
2.17025e-06
-2.83946e-06
2.7975e-06
-3.32481e-06
3.48189e-06
-3.7759e-06
4.21489e-06
-4.18491e-06
4.98983e-06
-4.54803e-06
5.8008e-06
-4.86565e-06
6.63704e-06
-5.13386e-06
7.4893e-06
-5.35483e-06
8.3544e-06
-5.52556e-06
9.22738e-06
-5.64134e-06
1.0104e-05
-5.70327e-06
1.09757e-05
-5.71823e-06
1.18313e-05
-5.68448e-06
1.26647e-05
-5.60554e-06
1.34713e-05
-5.47187e-06
1.42446e-05
-5.28552e-06
1.49805e-05
-5.05229e-06
1.5675e-05
-4.7737e-06
1.63185e-05
-4.44506e-06
1.69016e-05
-4.06093e-06
1.74148e-05
-3.62399e-06
1.78533e-05
-3.14368e-06
1.82137e-05
-2.61783e-06
1.84917e-05
-2.04725e-06
1.86806e-05
-1.4323e-06
1.87718e-05
-7.82985e-07
1.87625e-05
-1.08056e-07
1.86513e-05
5.94149e-07
1.84343e-05
1.31832e-06
1.81109e-05
2.04895e-06
1.76858e-05
2.77199e-06
1.71578e-05
3.48608e-06
1.65235e-05
4.19105e-06
1.57912e-05
4.86702e-06
1.49699e-05
5.49496e-06
1.4064e-05
6.0625e-06
1.30819e-05
6.56644e-06
1.20348e-05
7.00389e-06
1.09355e-05
7.36749e-06
9.79443e-06
7.65019e-06
8.62449e-06
7.84798e-06
7.43743e-06
7.95281e-06
6.25028e-06
7.96104e-06
5.07393e-06
7.87484e-06
3.92287e-06
7.69893e-06
2.80677e-06
7.43184e-06
1.74121e-06
7.07233e-06
7.34043e-07
6.62174e-06
-1.97087e-07
6.0935e-06
-1.03933e-06
5.50166e-06
-1.78463e-06
4.86319e-06
-2.43792e-06
4.17834e-06
-2.99322e-06
3.45354e-06
-3.44341e-06
2.69613e-06
-3.78146e-06
1.93743e-06
-4.01597e-06
1.18626e-06
-4.14646e-06
4.5779e-07
-4.1804e-06
-2.37935e-07
-4.12089e-06
-8.81381e-07
-3.98e-06
-1.46487e-06
-3.76501e-06
-1.97124e-06
-3.48977e-06
-2.39516e-06
-3.16454e-06
-2.72307e-06
-2.80357e-06
-2.95373e-06
-2.4197e-06
-3.07853e-06
-2.0266e-06
-3.10043e-06
-1.63856e-06
-3.01704e-06
-1.26709e-06
-2.83624e-06
-9.26144e-07
-2.56309e-06
-6.23304e-07
-2.21031e-06
-3.7129e-07
-1.78995e-06
-1.74987e-07
-1.31696e-06
-4.85588e-08
-8.06406e-07
-2.71746e-07
4.91545e-08
-1.6631e-07
2.05676e-07
-5.90694e-07
4.68891e-07
-1.10217e-06
8.34078e-07
-1.67254e-06
1.29541e-06
-2.27312e-06
1.84093e-06
-2.8751e-06
2.45894e-06
-3.45656e-06
3.13943e-06
-4.00337e-06
3.87307e-06
-4.50685e-06
4.65194e-06
-4.95989e-06
5.46846e-06
-5.36021e-06
6.31489e-06
-5.7066e-06
7.18181e-06
-5.99504e-06
8.05795e-06
-6.22417e-06
8.93958e-06
-6.39963e-06
9.82809e-06
-6.52106e-06
1.07197e-05
-6.58596e-06
1.16028e-05
-6.592e-06
1.24661e-05
-6.53919e-06
1.32992e-05
-6.43015e-06
1.41047e-05
-6.26967e-06
1.48814e-05
-6.05456e-06
1.56187e-05
-5.78309e-06
1.63069e-05
-5.45583e-06
1.69361e-05
-5.06934e-06
1.7505e-05
-4.6242e-06
1.80087e-05
-4.12315e-06
1.84383e-05
-3.56908e-06
1.87862e-05
-2.96289e-06
1.90509e-05
-2.30859e-06
1.92281e-05
-1.60752e-06
1.93101e-05
-8.63539e-07
1.92904e-05
-8.89957e-08
1.91705e-05
7.13917e-07
1.89477e-05
1.53992e-06
1.86224e-05
2.3734e-06
1.81925e-05
3.20026e-06
1.76594e-05
4.01914e-06
1.70217e-05
4.82676e-06
1.62901e-05
5.59662e-06
1.5476e-05
6.30659e-06
1.45801e-05
6.95702e-06
1.35999e-05
7.54396e-06
1.25517e-05
8.05024e-06
1.14495e-05
8.46644e-06
1.03071e-05
8.79021e-06
9.13547e-06
9.01584e-06
7.9493e-06
9.13654e-06
6.75976e-06
9.1463e-06
5.58279e-06
9.04924e-06
4.42923e-06
8.84708e-06
3.31621e-06
8.54121e-06
2.25075e-06
8.13115e-06
1.24396e-06
7.62463e-06
3.02552e-07
7.02753e-06
-5.54439e-07
6.35411e-06
-1.31616e-06
5.61652e-06
-1.97641e-06
4.83381e-06
-2.5415e-06
4.01007e-06
-3.00504e-06
3.15602e-06
-3.36525e-06
2.29083e-06
-3.61819e-06
1.4377e-06
-3.77251e-06
6.07211e-07
-3.82883e-06
-1.81265e-07
-3.7968e-06
-9.16329e-07
-3.68152e-06
-1.57859e-06
-3.49552e-06
-2.15939e-06
-3.24753e-06
-2.6422e-06
-2.95108e-06
-3.02201e-06
-2.61782e-06
-3.28716e-06
-2.26103e-06
-3.43734e-06
-1.89437e-06
-3.46717e-06
-1.52976e-06
-3.38164e-06
-1.18196e-06
-3.183e-06
-8.60093e-07
-2.88188e-06
-5.78007e-07
-2.48859e-06
-3.40768e-07
-2.01844e-06
-1.61172e-07
-1.48761e-06
-4.27809e-08
-9.11621e-07
-3.07892e-07
5.66157e-08
-2.22088e-07
2.38495e-07
-7.68978e-07
5.43e-07
-1.4031e-06
9.62096e-07
-2.08861e-06
1.48137e-06
-2.78954e-06
2.08366e-06
-3.47509e-06
2.75524e-06
-4.12588e-06
3.48419e-06
-4.73014e-06
4.26029e-06
-5.27983e-06
5.07505e-06
-5.77084e-06
5.92027e-06
-6.20056e-06
6.78768e-06
-6.56853e-06
7.6707e-06
-6.87138e-06
8.5623e-06
-7.10886e-06
9.45667e-06
-7.28605e-06
1.03501e-05
-7.40643e-06
1.12371e-05
-7.46424e-06
1.21098e-05
-7.45639e-06
1.29628e-05
-7.38344e-06
1.37883e-05
-7.24815e-06
1.45826e-05
-7.05646e-06
1.53412e-05
-6.80665e-06
1.60558e-05
-6.49153e-06
1.6716e-05
-6.11101e-06
1.73179e-05
-5.66621e-06
1.78609e-05
-5.16264e-06
1.83417e-05
-4.59923e-06
1.8751e-05
-3.97504e-06
1.90819e-05
-3.29119e-06
1.93295e-05
-2.55437e-06
1.9491e-05
-1.76719e-06
1.95612e-05
-9.33063e-07
1.9534e-05
-6.18342e-08
1.94072e-05
8.3939e-07
1.91827e-05
1.7637e-06
1.88584e-05
2.69662e-06
1.843e-05
3.62747e-06
1.78997e-05
4.54805e-06
1.7276e-05
5.44948e-06
1.65626e-05
6.30806e-06
1.5764e-05
7.10431e-06
1.48844e-05
7.83519e-06
1.39308e-05
8.4965e-06
1.29086e-05
9.06974e-06
1.18293e-05
9.54341e-06
1.07062e-05
9.90919e-06
9.55825e-06
1.01611e-05
8.39607e-06
1.02946e-05
7.22904e-06
1.03108e-05
6.06888e-06
1.02051e-05
4.93603e-06
9.9775e-06
3.84397e-06
9.62836e-06
2.80246e-06
9.16973e-06
1.81218e-06
8.60835e-06
8.86015e-07
7.9496e-06
3.25535e-08
7.19977e-06
-7.30752e-07
6.37549e-06
-1.39793e-06
5.49325e-06
-1.96384e-06
4.57231e-06
-2.43684e-06
3.62179e-06
-2.80927e-06
2.66089e-06
-3.08388e-06
1.70669e-06
-3.25949e-06
7.81962e-07
-3.34469e-06
-1.00373e-07
-3.34182e-06
-9.19086e-07
-3.26147e-06
-1.6621e-06
-3.11025e-06
-2.31034e-06
-2.90051e-06
-2.85493e-06
-2.64236e-06
-3.28103e-06
-2.3482e-06
-3.58456e-06
-2.03046e-06
-3.75678e-06
-1.70049e-06
-3.799e-06
-1.37245e-06
-3.71016e-06
-1.05606e-06
-3.49778e-06
-7.6623e-07
-3.16946e-06
-5.09453e-07
-2.73881e-06
-2.99156e-07
-2.22166e-06
-1.37717e-07
-1.63567e-06
-3.73481e-08
-1.00075e-06
-3.3551e-07
6.57933e-08
-2.854e-07
2.7789e-07
-9.74735e-07
6.30021e-07
-1.74939e-06
1.1072e-06
-2.56092e-06
1.68572e-06
-3.36398e-06
2.34458e-06
-4.13027e-06
3.0669e-06
-4.84527e-06
3.83883e-06
-5.49921e-06
4.64978e-06
-6.08785e-06
5.49087e-06
-6.60805e-06
6.35432e-06
-7.0596e-06
7.2326e-06
-7.44164e-06
8.12021e-06
-7.7535e-06
9.01219e-06
-7.9946e-06
9.90232e-06
-8.16977e-06
1.07839e-05
-8.28101e-06
1.16514e-05
-8.32477e-06
1.24994e-05
-8.29716e-06
1.33241e-05
-8.20096e-06
1.41216e-05
-8.03848e-06
1.48833e-05
-7.81182e-06
1.56015e-05
-7.51864e-06
1.62734e-05
-7.15829e-06
1.68969e-05
-6.72929e-06
1.74681e-05
-6.23332e-06
1.79809e-05
-5.67152e-06
1.84293e-05
-5.04475e-06
1.88094e-05
-4.35205e-06
1.91158e-05
-3.59581e-06
1.93431e-05
-2.78031e-06
1.94863e-05
-1.91045e-06
1.95432e-05
-9.90089e-07
1.95085e-05
-2.82931e-08
1.93795e-05
9.67103e-07
1.91555e-05
1.98585e-06
1.88357e-05
3.01559e-06
1.84168e-05
4.04417e-06
1.79029e-05
5.06045e-06
1.73007e-05
6.05005e-06
1.6614e-05
6.99412e-06
1.58422e-05
7.87487e-06
1.49924e-05
8.68457e-06
1.4074e-05
9.41341e-06
1.30953e-05
1.00477e-05
1.2063e-05
1.05734e-05
1.099e-05
1.09806e-05
9.88851e-06
1.12595e-05
8.77316e-06
1.14086e-05
7.65223e-06
1.14284e-05
6.54091e-06
1.13147e-05
5.45101e-06
1.10636e-05
4.39686e-06
1.06812e-05
3.38541e-06
1.01772e-05
2.42995e-06
9.56196e-06
1.53464e-06
8.83931e-06
7.11295e-07
8.02015e-06
-3.70132e-08
7.11687e-06
-6.96369e-07
6.14927e-06
-1.26547e-06
5.13453e-06
-1.74007e-06
4.0936e-06
-2.12487e-06
3.03944e-06
-2.41535e-06
1.99538e-06
-2.61739e-06
9.78703e-07
-2.73121e-06
1.20353e-08
-2.76553e-06
-8.89657e-07
-2.72433e-06
-1.70483e-06
-2.61834e-06
-2.42079e-06
-2.45556e-06
-3.01973e-06
-2.24715e-06
-3.49371e-06
-2.00377e-06
-3.83086e-06
-1.73565e-06
-4.02855e-06
-1.45548e-06
-4.0818e-06
-1.17221e-06
-3.9942e-06
-9.00296e-07
-3.76952e-06
-6.47078e-07
-3.41835e-06
-4.27246e-07
-2.95388e-06
-2.44518e-07
-2.3934e-06
-1.11448e-07
-1.75826e-06
-2.74781e-08
-1.06926e-06
-3.54691e-07
7.99851e-08
-3.6144e-07
3.34424e-07
-1.21962e-06
7.45325e-07
-2.15162e-06
1.2836e-06
-3.0926e-06
1.92185e-06
-3.9968e-06
2.63594e-06
-4.83987e-06
3.40444e-06
-5.60985e-06
4.21229e-06
-6.30391e-06
5.04855e-06
-6.92101e-06
5.90515e-06
-7.4614e-06
6.77465e-06
-7.92488e-06
7.65053e-06
-8.31269e-06
8.52812e-06
-8.6255e-06
9.40431e-06
-8.86504e-06
1.02721e-05
-9.03139e-06
1.11226e-05
-9.12549e-06
1.19514e-05
-9.14763e-06
1.27573e-05
-9.09794e-06
1.35375e-05
-8.976e-06
1.42875e-05
-8.78365e-06
1.50011e-05
-8.52056e-06
1.56734e-05
-8.18669e-06
1.63011e-05
-7.78169e-06
1.68812e-05
-7.30564e-06
1.74097e-05
-6.75825e-06
1.78811e-05
-6.14056e-06
1.82908e-05
-5.45254e-06
1.86352e-05
-4.6953e-06
1.89106e-05
-3.87026e-06
1.91118e-05
-2.98184e-06
1.92348e-05
-2.03416e-06
1.92762e-05
-1.03325e-06
1.92329e-05
1.32152e-08
1.91019e-05
1.0956e-06
1.88822e-05
2.20338e-06
1.85721e-05
3.32332e-06
1.81719e-05
4.44247e-06
1.76836e-05
5.54652e-06
1.71125e-05
6.62016e-06
1.64606e-05
7.64492e-06
1.57304e-05
8.6046e-06
1.49269e-05
9.48652e-06
1.40603e-05
1.02791e-05
1.31378e-05
1.0968e-05
1.21696e-05
1.15406e-05
1.11634e-05
1.19844e-05
1.01308e-05
1.2291e-05
9.08123e-06
1.24559e-05
8.03015e-06
1.2479e-05
6.98625e-06
1.23563e-05
5.96215e-06
1.20875e-05
4.96405e-06
1.16765e-05
4.00672e-06
1.11339e-05
3.09777e-06
1.0467e-05
2.2493e-06
9.68632e-06
1.46325e-06
8.80105e-06
7.49234e-07
7.82847e-06
1.08226e-07
6.78378e-06
-4.4963e-07
5.68926e-06
-9.25839e-07
4.56294e-06
-1.31601e-06
3.4266e-06
-1.62509e-06
2.29803e-06
-1.85051e-06
1.20146e-06
-1.99921e-06
1.54545e-07
-2.07275e-06
-8.19389e-07
-2.08003e-06
-1.70401e-06
-2.02664e-06
-2.47837e-06
-1.92222e-06
-3.1304e-06
-1.77517e-06
-3.64541e-06
-1.59404e-06
-4.01733e-06
-1.38928e-06
-4.23781e-06
-1.16823e-06
-4.30605e-06
-9.43503e-07
-4.22142e-06
-7.21521e-07
-3.99003e-06
-5.16836e-07
-3.6209e-06
-3.34293e-07
-3.128e-06
-1.88115e-07
-2.53067e-06
-7.95647e-08
-1.85042e-06
-1.92295e-08
-1.11596e-06
-3.61832e-07
1.04011e-07
-4.60089e-07
4.19045e-07
-1.52131e-06
9.06876e-07
-2.62695e-06
1.51971e-06
-3.69624e-06
2.22065e-06
-4.69104e-06
2.98263e-06
-5.59619e-06
3.78636e-06
-6.40864e-06
4.61694e-06
-7.12995e-06
5.46364e-06
-7.76372e-06
6.31859e-06
-8.31266e-06
7.17661e-06
-8.77951e-06
8.03315e-06
-9.16554e-06
8.88424e-06
-9.47275e-06
9.7254e-06
-9.70202e-06
1.0552e-05
-9.85375e-06
1.13587e-05
-9.92771e-06
1.21419e-05
-9.92641e-06
1.28982e-05
-9.85024e-06
1.3625e-05
-9.69939e-06
1.43185e-05
-9.47379e-06
1.4975e-05
-9.17405e-06
1.55914e-05
-8.79976e-06
1.61639e-05
-8.35155e-06
1.66894e-05
-7.82869e-06
1.71644e-05
-7.23166e-06
1.75853e-05
-6.56028e-06
1.79484e-05
-5.8154e-06
1.82504e-05
-4.99755e-06
1.84881e-05
-4.10917e-06
1.86581e-05
-3.15346e-06
1.87565e-05
-2.1354e-06
1.8781e-05
-1.06069e-06
1.87284e-05
6.22108e-08
1.85969e-05
1.22383e-06
1.83843e-05
2.41219e-06
1.80904e-05
3.61418e-06
1.77148e-05
4.81484e-06
1.72601e-05
5.99895e-06
1.67287e-05
7.14936e-06
1.6124e-05
8.24855e-06
1.54479e-05
9.2791e-06
1.47068e-05
1.02267e-05
1.39071e-05
1.10767e-05
1.30584e-05
1.18156e-05
1.21675e-05
1.24293e-05
1.12446e-05
1.29065e-05
1.02961e-05
1.32372e-05
9.33371e-06
1.34174e-05
8.367e-06
1.34435e-05
7.40865e-06
1.33147e-05
6.46425e-06
1.30301e-05
5.54553e-06
1.25955e-05
4.65884e-06
1.2018e-05
3.81727e-06
1.13081e-05
3.02434e-06
1.04751e-05
2.28996e-06
9.53372e-06
1.61471e-06
8.49808e-06
1.00717e-06
7.3883e-06
4.66566e-07
6.22266e-06
4.23201e-10
5.02488e-06
-3.95167e-07
3.8142e-06
-7.16583e-07
2.61484e-06
-9.69374e-07
1.4464e-06
-1.15275e-06
3.33062e-07
-1.2737e-06
-7.06404e-07