/*--------------------------------*- C++ -*----------------------------------*\
| =========                 |                                                 |
| \\      /  F ield         | OpenFOAM: The Open Source CFD Toolbox           |
|  \\    /   O peration     | Version:  2412                                  |
|   \\  /    A nd           | Website:  www.openfoam.com                      |
|    \\/     M anipulation  |                                                 |
\*---------------------------------------------------------------------------*/
FoamFile
{
    version     2.0;
    format      ascii;
    arch        "LSB;label=32;scalar=64";
    class       volScalarField;
    location    "7.45";
    object      p;
}
// * * * * * * * * * * * * * * * * * * * * * * * * * * * * * * * * * * * * * //

dimensions      [1 -1 -2 0 0 0 0];

internalField   nonuniform List<scalar> 
6400
(
7570.35
7570.36
7570.39
7570.42
7570.47
7570.55
7570.68
7570.88
7571.18
7571.61
7572.17
7572.88
7573.73
7574.73
7575.85
7577.08
7578.39
7579.73
7581.08
7582.39
7583.63
7584.75
7585.72
7586.51
7587.1
7587.47
7587.63
7587.57
7587.32
7586.89
7586.33
7585.65
7584.91
7584.14
7583.39
7582.7
7582.11
7581.65
7581.35
7581.21
7581.26
7581.49
7581.9
7582.45
7583.14
7583.93
7584.78
7585.65
7586.5
7587.28
7587.96
7588.49
7588.85
7589.02
7588.96
7588.68
7588.18
7587.48
7586.58
7585.51
7584.31
7583.02
7581.67
7580.31
7578.96
7577.68
7576.48
7575.38
7574.42
7573.59
7572.9
7572.36
7571.93
7571.6
7571.36
7571.17
7571.04
7570.93
7570.85
7570.81
7183.32
7183.34
7183.36
7183.38
7183.42
7183.49
7183.6
7183.79
7184.09
7184.51
7185.08
7185.79
7186.66
7187.68
7188.83
7190.08
7191.42
7192.8
7194.19
7195.54
7196.8
7197.95
7198.93
7199.73
7200.32
7200.69
7200.83
7200.74
7200.45
7199.98
7199.36
7198.63
7197.83
7197.01
7196.21
7195.47
7194.84
7194.35
7194.02
7193.88
7193.93
7194.17
7194.59
7195.18
7195.91
7196.75
7197.65
7198.57
7199.48
7200.32
7201.05
7201.63
7202.02
7202.22
7202.18
7201.92
7201.42
7200.7
7199.79
7198.7
7197.48
7196.15
7194.77
7193.37
7191.99
7190.67
7189.44
7188.33
7187.35
7186.51
7185.82
7185.27
7184.84
7184.52
7184.28
7184.1
7183.97
7183.87
7183.8
7183.76
6796.29
6796.3
6796.31
6796.32
6796.33
6796.36
6796.44
6796.6
6796.87
6797.28
6797.83
6798.55
6799.44
6800.49
6801.69
6803.01
6804.42
6805.88
6807.34
6808.77
6810.1
6811.31
6812.35
6813.18
6813.78
6814.14
6814.25
6814.12
6813.76
6813.21
6812.49
6811.66
6810.75
6809.82
6808.92
6808.09
6807.38
6806.82
6806.45
6806.29
6806.33
6806.59
6807.06
6807.71
6808.52
6809.44
6810.45
6811.48
6812.49
6813.44
6814.26
6814.93
6815.4
6815.64
6815.64
6815.39
6814.88
6814.14
6813.18
6812.04
6810.74
6809.34
6807.88
6806.41
6804.96
6803.57
6802.3
6801.15
6800.14
6799.29
6798.59
6798.05
6797.64
6797.34
6797.13
6796.98
6796.87
6796.78
6796.72
6796.68
6409.26
6409.27
6409.26
6409.23
6409.2
6409.18
6409.19
6409.29
6409.51
6409.87
6410.41
6411.13
6412.04
6413.14
6414.41
6415.82
6417.34
6418.92
6420.52
6422.07
6423.53
6424.84
6425.96
6426.85
6427.49
6427.85
6427.92
6427.72
6427.27
6426.6
6425.74
6424.75
6423.69
6422.59
6421.54
6420.57
6419.74
6419.09
6418.65
6418.45
6418.5
6418.79
6419.32
6420.06
6420.99
6422.05
6423.21
6424.4
6425.57
6426.67
6427.64
6428.43
6429
6429.31
6429.35
6429.11
6428.58
6427.79
6426.75
6425.51
6424.1
6422.58
6420.99
6419.39
6417.83
6416.36
6415
6413.79
6412.75
6411.89
6411.21
6410.69
6410.32
6410.07
6409.91
6409.8
6409.73
6409.66
6409.61
6409.57
6022.25
6022.25
6022.21
6022.14
6022.04
6021.93
6021.85
6021.85
6021.98
6022.28
6022.78
6023.49
6024.44
6025.6
6026.97
6028.51
6030.18
6031.94
6033.71
6035.45
6037.08
6038.55
6039.8
6040.78
6041.47
6041.83
6041.87
6041.59
6041.01
6040.17
6039.12
6037.92
6036.63
6035.32
6034.05
6032.89
6031.9
6031.12
6030.59
6030.34
6030.39
6030.72
6031.34
6032.21
6033.3
6034.55
6035.92
6037.33
6038.72
6040.03
6041.19
6042.15
6042.85
6043.26
6043.35
6043.11
6042.54
6041.67
6040.52
6039.13
6037.56
6035.86
6034.09
6032.32
6030.6
6028.99
6027.53
6026.25
6025.17
6024.29
6023.63
6023.16
6022.86
6022.69
6022.61
6022.57
6022.55
6022.52
6022.49
6022.45
5635.27
5635.26
5635.19
5635.05
5634.84
5634.6
5634.39
5634.25
5634.26
5634.47
5634.91
5635.61
5636.58
5637.83
5639.32
5641.04
5642.92
5644.9
5646.92
5648.91
5650.78
5652.46
5653.89
5655
5655.76
5656.14
5656.13
5655.74
5655
5653.95
5652.65
5651.18
5649.6
5647.99
5646.45
5645.03
5643.82
5642.87
5642.22
5641.91
5641.95
5642.35
5643.08
5644.12
5645.42
5646.92
5648.56
5650.26
5651.95
5653.53
5654.95
5656.12
5656.99
5657.52
5657.67
5657.43
5656.8
5655.81
5654.5
5652.91
5651.11
5649.17
5647.17
5645.17
5643.24
5641.46
5639.85
5638.48
5637.34
5636.47
5635.84
5635.44
5635.24
5635.18
5635.22
5635.29
5635.35
5635.37
5635.36
5635.33
5248.35
5248.32
5248.21
5247.97
5247.62
5247.2
5246.79
5246.46
5246.3
5246.38
5246.74
5247.42
5248.43
5249.78
5251.43
5253.36
5255.51
5257.8
5260.14
5262.46
5264.64
5266.61
5268.27
5269.56
5270.42
5270.82
5270.76
5270.23
5269.28
5267.97
5266.35
5264.52
5262.57
5260.59
5258.69
5256.95
5255.46
5254.29
5253.49
5253.1
5253.14
5253.61
5254.49
5255.74
5257.32
5259.14
5261.13
5263.2
5265.26
5267.2
5268.93
5270.38
5271.47
5272.14
5272.36
5272.11
5271.41
5270.26
5268.73
5266.88
5264.78
5262.52
5260.2
5257.9
5255.71
5253.69
5251.92
5250.42
5249.23
5248.36
5247.79
5247.49
5247.42
5247.53
5247.73
5247.96
5248.14
5248.23
5248.25
5248.22
4861.5
4861.47
4861.29
4860.92
4860.36
4859.69
4859
4858.43
4858.05
4857.96
4858.21
4858.85
4859.9
4861.37
4863.23
4865.43
4867.92
4870.59
4873.35
4876.09
4878.68
4881.02
4882.99
4884.51
4885.51
4885.95
4885.82
4885.13
4883.93
4882.27
4880.25
4877.97
4875.55
4873.1
4870.75
4868.6
4866.76
4865.31
4864.32
4863.83
4863.87
4864.43
4865.5
4867.03
4868.95
4871.17
4873.61
4876.15
4878.67
4881.05
4883.2
4884.99
4886.35
4887.2
4887.5
4887.24
4886.41
4885.06
4883.25
4881.05
4878.56
4875.89
4873.16
4870.48
4867.95
4865.65
4863.65
4862.02
4860.76
4859.89
4859.39
4859.23
4859.34
4859.66
4860.1
4860.55
4860.92
4861.12
4861.18
4861.14
4474.77
4474.76
4474.48
4473.87
4472.98
4471.94
4470.92
4470.04
4469.41
4469.11
4469.22
4469.81
4470.9
4472.51
4474.62
4477.17
4480.08
4483.24
4486.54
4489.82
4492.94
4495.75
4498.12
4499.94
4501.13
4501.62
4501.41
4500.52
4498.99
4496.91
4494.39
4491.55
4488.54
4485.5
4482.59
4479.92
4477.64
4475.85
4474.62
4474.01
4474.05
4474.73
4476.03
4477.9
4480.25
4482.98
4485.97
4489.09
4492.2
4495.14
4497.79
4500.01
4501.7
4502.78
4503.18
4502.89
4501.91
4500.29
4498.11
4495.45
4492.47
4489.28
4486.03
4482.85
4479.89
4477.23
4474.97
4473.16
4471.82
4470.97
4470.56
4470.55
4470.88
4471.45
4472.19
4472.97
4473.64
4474.05
4474.19
4474.12
4088.22
4088.22
4087.72
4086.69
4085.28
4083.76
4082.35
4081.15
4080.24
4079.72
4079.66
4080.18
4081.32
4083.1
4085.51
4088.48
4091.92
4095.7
4099.67
4103.64
4107.43
4110.85
4113.73
4115.94
4117.37
4117.94
4117.64
4116.5
4114.57
4111.96
4108.81
4105.27
4101.53
4097.76
4094.14
4090.84
4088.02
4085.79
4084.26
4083.5
4083.54
4084.37
4085.97
4088.26
4091.15
4094.5
4098.19
4102.03
4105.86
4109.5
4112.78
4115.54
4117.65
4119
4119.52
4119.19
4118.01
4116.03
4113.37
4110.14
4106.51
4102.65
4098.74
4094.95
4091.44
4088.35
4085.76
4083.74
4082.32
4081.48
4081.18
4081.34
4081.87
4082.71
4083.78
4085
4086.15
4086.97
4087.3
4087.2
3701.94
3701.87
3700.95
3699.21
3697.07
3694.97
3693.15
3691.65
3690.46
3689.67
3689.42
3689.84
3691.01
3692.99
3695.75
3699.24
3703.35
3707.9
3712.72
3717.56
3722.2
3726.4
3729.95
3732.66
3734.39
3735.06
3734.65
3733.19
3730.76
3727.49
3723.56
3719.16
3714.5
3709.82
3705.33
3701.25
3697.75
3694.99
3693.1
3692.15
3692.19
3693.21
3695.16
3697.98
3701.53
3705.67
3710.21
3714.95
3719.68
3724.18
3728.25
3731.68
3734.31
3736
3736.67
3736.27
3734.83
3732.4
3729.12
3725.15
3720.7
3715.99
3711.24
3706.68
3702.51
3698.87
3695.88
3693.62
3692.11
3691.3
3691.14
3691.48
3692.21
3693.28
3694.7
3696.44
3698.28
3699.77
3700.49
3700.44
3316.09
3315.76
3314.17
3311.5
3308.5
3305.75
3303.46
3301.59
3300.06
3298.92
3298.38
3298.64
3299.82
3302.01
3305.19
3309.31
3314.24
3319.76
3325.65
3331.6
3337.33
3342.53
3346.92
3350.26
3352.39
3353.19
3352.64
3350.78
3347.72
3343.62
3338.71
3333.22
3327.44
3321.63
3316.07
3311.01
3306.67
3303.26
3300.92
3299.74
3299.78
3301.03
3303.43
3306.9
3311.27
3316.36
3321.96
3327.81
3333.66
3339.24
3344.28
3348.56
3351.84
3353.95
3354.8
3354.32
3352.54
3349.53
3345.47
3340.56
3335.06
3329.26
3323.47
3317.94
3312.93
3308.64
3305.19
3302.66
3301.07
3300.35
3300.38
3300.98
3301.98
3303.33
3305.15
3307.48
3310.11
3312.46
3313.81
3313.99
2930.89
2930.11
2927.73
2924.13
2920.27
2916.76
2913.79
2911.29
2909.14
2907.45
2906.46
2906.44
2907.57
2909.95
2913.62
2918.5
2924.43
2931.17
2938.41
2945.78
2952.9
2959.37
2964.84
2968.99
2971.62
2972.58
2971.85
2969.48
2965.62
2960.48
2954.34
2947.5
2940.31
2933.1
2926.21
2919.95
2914.59
2910.37
2907.48
2906.03
2906.07
2907.6
2910.56
2914.81
2920.19
2926.46
2933.36
2940.59
2947.82
2954.73
2960.99
2966.31
2970.42
2973.06
2974.14
2973.56
2971.35
2967.62
2962.55
2956.43
2949.61
2942.44
2935.31
2928.58
2922.55
2917.46
2913.49
2910.7
2909.09
2908.56
2908.95
2910.01
2911.53
2913.42
2915.83
2918.83
2922.22
2925.39
2927.45
2928.04
2546.68
2545.37
2542.26
2537.85
2533.12
2528.65
2524.62
2521.03
2517.85
2515.26
2513.55
2513.06
2514
2516.55
2520.75
2526.53
2533.7
2541.97
2550.92
2560.1
2568.99
2577.1
2583.94
2589.13
2592.38
2593.54
2592.57
2589.55
2584.68
2578.23
2570.55
2562.03
2553.09
2544.15
2535.62
2527.88
2521.26
2516.06
2512.49
2510.7
2510.76
2512.64
2516.28
2521.51
2528.12
2535.84
2544.33
2553.24
2562.17
2570.73
2578.5
2585.12
2590.28
2593.58
2594.95
2594.27
2591.53
2586.86
2580.53
2572.88
2564.35
2555.45
2546.64
2538.4
2531.12
2525.09
2520.53
2517.5
2515.98
2515.84
2516.85
2518.71
2521.14
2524.01
2527.36
2531.18
2535.29
2539.12
2541.82
2542.9
2163.78
2162.02
2158.32
2153.02
2147.25
2141.5
2136.01
2130.83
2126.15
2122.23
2119.47
2118.23
2118.81
2121.44
2126.21
2133.06
2141.75
2151.92
2163.05
2174.52
2185.69
2195.89
2204.5
2211.01
2215.05
2216.44
2215.15
2211.31
2205.16
2197.06
2187.46
2176.85
2165.75
2154.68
2144.14
2134.57
2126.41
2120
2115.61
2113.41
2113.49
2115.81
2120.28
2126.71
2134.84
2144.33
2154.79
2165.76
2176.78
2187.36
2197
2205.22
2211.57
2215.82
2217.6
2216.79
2213.39
2207.55
2199.59
2189.97
2179.29
2168.16
2157.24
2147.11
2138.29
2131.16
2125.96
2122.76
2121.51
2122
2123.96
2127.01
2130.81
2135.1
2139.78
2144.72
2149.69
2154.16
2157.38
2158.89
1782.54
1780.48
1776.32
1769.62
1762.6
1755.14
1747.78
1740.49
1733.82
1728.14
1723.92
1721.62
1721.59
1724.16
1729.52
1737.61
1748.16
1760.71
1774.57
1788.97
1803.05
1815.94
1826.81
1834.99
1840.02
1841.66
1839.95
1835.07
1827.31
1817.15
1805.16
1791.98
1778.25
1764.57
1751.55
1739.76
1729.71
1721.83
1716.46
1713.78
1713.89
1716.74
1722.23
1730.12
1740.09
1751.74
1764.58
1778.08
1791.66
1804.74
1816.7
1826.94
1834.92
1840.22
1842.49
1841.53
1837.3
1829.97
1819.92
1807.79
1794.34
1780.39
1766.79
1754.31
1743.61
1735.19
1729.32
1726.08
1725.32
1726.75
1730.04
1734.71
1740.32
1746.47
1752.95
1759.38
1765.51
1770.8
1774.52
1776.34
1403.2
1400.83
1395.43
1388.02
1379.23
1369.7
1359.95
1349.8
1340.71
1332.77
1326.66
1322.89
1321.92
1324.19
1330.11
1339.63
1352.43
1367.91
1385.22
1403.33
1421.13
1437.45
1451.22
1461.53
1467.76
1469.68
1467.4
1461.24
1451.42
1438.66
1423.72
1407.39
1390.43
1373.61
1357.62
1343.14
1330.81
1321.16
1314.59
1311.36
1311.51
1315.02
1321.74
1331.38
1343.58
1357.82
1373.53
1390.07
1406.76
1422.89
1437.72
1450.49
1460.5
1467.14
1470.04
1468.96
1463.71
1454.46
1441.75
1426.38
1409.38
1391.84
1374.85
1359.45
1346.49
1336.6
1330.1
1327.02
1327.07
1329.84
1334.93
1341.66
1349.55
1357.92
1366.84
1375.04
1382.6
1389.08
1393.38
1395.47
1025.99
1023.07
1016.55
1007.76
996.843
984.808
972.105
959.127
946.788
935.893
927.36
921.65
919.205
920.914
927.3
938.434
953.935
973.029
994.637
1017.45
1040
1060.74
1078.22
1091.19
1098.85
1100.93
1097.75
1089.99
1077.64
1061.53
1042.9
1022.77
1002
981.403
961.787
943.984
928.803
916.938
908.899
904.97
905.218
909.562
917.825
929.674
944.639
962.083
981.268
1001.43
1021.79
1041.56
1059.91
1075.91
1088.53
1096.74
1100.58
1099.5
1093.07
1081.44
1065.32
1045.81
1024.26
1002.15
980.937
961.938
946.273
934.735
927.694
925.064
926.407
930.942
938.543
947.787
958.636
969.918
981.143
991.619
1000.84
1008.7
1013.88
1016.43
652.503
648.608
640.672
630.029
615.847
600.713
584.527
567.824
551.572
537.125
525.638
517.399
512.605
513.162
519.938
533.057
551.966
575.67
602.79
631.649
660.305
686.727
708.972
725.296
734.613
736.51
731.694
722.219
706.356
686.033
663.097
638.516
613.014
587.484
563.038
540.758
521.718
506.87
496.894
492.138
492.559
498.019
508.35
523.133
541.786
563.492
587.272
612.132
637.081
661.179
683.594
703.54
719.616
729.599
734.952
734.318
726.586
711.962
691.487
666.681
639.288
611.299
584.644
561.042
541.982
528.495
521.058
519.439
522.965
530.104
540.245
552.899
567.063
581.704
596.418
609.944
621.316
630.661
637.472
640.89
292.614
287.547
279.122
267.993
254.372
238.959
222.223
205.225
189.088
175.509
165.34
158.235
153.282
152.763
157.515
167.724
183.455
204.609
230.478
259.736
290.391
319.877
345.694
365.981
377.689
379.045
371.704
362.007
341.87
317.388
292.053
266.476
241.175
217.143
195.176
175.915
160.043
148.148
140.514
137.153
137.691
141.922
149.878
161.443
176.605
195.185
216.578
240.032
264.856
289.961
314.404
337.774
358.145
370.667
375.528
376.081
366.522
348.556
324.918
297.26
267.789
239.018
212.978
191.206
174.863
164.226
159.121
159.051
163.12
169.393
178.303
190.028
204.204
219.366
234.324
247.775
259.225
268.755
276.004
280.49
57.722
54.1024
49.2976
43.3566
36.469
28.9538
21.4755
14.7055
9.16436
5.11249
2.59121
1.12066
0.207402
0.256347
1.45932
3.96268
8.16257
14.5521
23.56
35.3465
49.5848
65.0155
80.2129
94.3582
103.831
106.557
103.217
93.7371
79.6691
64.4117
50.7496
38.4576
27.4518
18.2179
10.873
5.21899
1.07608
-1.70028
-3.30368
-3.93272
-3.75697
-2.82333
-1.1209
1.46807
5.32065
10.7994
18.0237
27.0383
37.8472
49.9208
62.7541
76.572
90.0471
99.923
104.283
102.538
94.3854
81.8066
67.6869
52.9859
38.9833
26.9697
17.5017
10.5745
6.01917
3.33066
2.0446
1.93713
2.75517
3.91373
5.93369
9.16517
13.7323
19.7661
26.5157
33.0976
38.9458
43.9458
47.8568
51.0171
-9.56703
-9.48183
-9.50941
-9.51295
-9.49309
-9.46802
-9.4302
-9.40107
-9.42284
-9.46032
-9.43569
-9.36332
-9.30911
-9.30864
-9.30938
-9.27446
-9.21818
-9.18235
-9.19234
-9.26666
-9.42894
-9.63329
-9.54097
-8.79606
-7.94094
-7.86494
-8.6908
-9.62354
-9.9342
-10.0963
-10.0958
-10.0182
-9.90341
-9.78966
-9.6943
-9.61675
-9.54839
-9.47117
-9.38591
-9.30746
-9.26045
-9.27083
-9.27671
-9.326
-9.4567
-9.62874
-9.78776
-9.92352
-10.0459
-10.1545
-10.231
-10.223
-10.0988
-9.28194
-8.39899
-8.28547
-8.92546
-9.68924
-9.91626
-9.77823
-9.60918
-9.45165
-9.3143
-9.21831
-9.17083
-9.16315
-9.18211
-9.21607
-9.27479
-9.34513
-9.42308
-9.50612
-9.5901
-9.67427
-9.6809
-9.6161
-9.62003
-9.71218
-9.72979
-9.80807
-9.93765
-9.92524
-9.91344
-9.90176
-9.89131
-9.88737
-9.88774
-9.90406
-9.98086
-10.0741
-10.0782
-10.0154
-9.96011
-9.92898
-9.90761
-9.89563
-9.89554
-9.89977
-9.92227
-9.98128
-10.1153
-10.3229
-10.573
-10.7474
-10.7956
-10.794
-10.752
-10.5964
-10.5417
-10.5389
-10.5055
-10.4366
-10.3434
-10.2496
-10.1866
-10.1642
-10.1468
-10.0772
-9.97135
-9.87324
-9.80965
-9.81489
-9.83986
-9.90921
-10.0619
-10.2292
-10.3463
-10.431
-10.5051
-10.5863
-10.6571
-10.6926
-10.7098
-10.8189
-10.9015
-10.9314
-10.9212
-10.8214
-10.6365
-10.4654
-10.2971
-10.132
-9.98745
-9.881
-9.81988
-9.80246
-9.82048
-9.86272
-9.92361
-9.98334
-10.0325
-10.0707
-10.1017
-10.1177
-10.1143
-10.1028
-10.1234
-10.1709
-10.1619
-10.1323
-10.4518
-10.4369
-10.4245
-10.4149
-10.3962
-10.367
-10.3604
-10.3895
-10.4584
-10.5381
-10.5967
-10.5992
-10.5793
-10.5314
-10.4813
-10.4624
-10.4855
-10.5153
-10.5412
-10.5737
-10.6707
-10.8252
-10.9831
-11.0941
-11.1502
-11.1651
-11.1354
-11.0699
-11.0181
-10.9898
-10.9655
-10.931
-10.8844
-10.8354
-10.7948
-10.7496
-10.6885
-10.5961
-10.4825
-10.3937
-10.3405
-10.3479
-10.4044
-10.4776
-10.6114
-10.7391
-10.8341
-10.9166
-10.9971
-11.0757
-11.1418
-11.1881
-11.233
-11.3094
-11.3299
-11.3185
-11.2773
-11.1893
-11.062
-10.9204
-10.7734
-10.6313
-10.509
-10.419
-10.3646
-10.3507
-10.3739
-10.4166
-10.4692
-10.5291
-10.5786
-10.6084
-10.6323
-10.6655
-10.6879
-10.6813
-10.703
-10.7384
-10.7195
-10.676
-10.9594
-10.9511
-10.9435
-10.9298
-10.9051
-10.8689
-10.8356
-10.8821
-10.9594
-11.0387
-11.1312
-11.1953
-11.1887
-11.1272
-11.0527
-11.0301
-11.0742
-11.1207
-11.1516
-11.1807
-11.2474
-11.3494
-11.446
-11.511
-11.5437
-11.5501
-11.5337
-11.5026
-11.4733
-11.4556
-11.4444
-11.4321
-11.4119
-11.3823
-11.3462
-11.3043
-11.234
-11.1397
-11.029
-10.9254
-10.8708
-10.871
-10.9273
-10.9885
-11.0918
-11.2026
-11.2975
-11.3791
-11.4537
-11.5239
-11.5839
-11.6274
-11.6677
-11.7151
-11.7322
-11.7168
-11.6712
-11.5958
-11.4956
-11.3786
-11.2518
-11.1295
-11.0237
-10.9449
-10.9036
-10.9002
-10.9262
-10.9723
-11.0231
-11.0761
-11.1222
-11.1532
-11.1687
-11.2026
-11.2412
-11.2156
-11.2137
-11.2441
-11.2234
-11.1705
-11.4946
-11.5043
-11.5202
-11.5166
-11.4985
-11.4635
-11.4189
-11.4658
-11.5897
-11.693
-11.7966
-11.8966
-11.9317
-11.8892
-11.7977
-11.738
-11.7244
-11.7242
-11.7351
-11.7635
-11.8136
-11.8766
-11.9328
-11.97
-11.9865
-11.9897
-11.9817
-11.9666
-11.9525
-11.9465
-11.9489
-11.9553
-11.9584
-11.9544
-11.9438
-11.9203
-11.8654
-11.7723
-11.647
-11.5132
-11.4353
-11.4191
-11.446
-11.5009
-11.5837
-11.6919
-11.7897
-11.8709
-11.9372
-11.9956
-12.0472
-12.0862
-12.1152
-12.1406
-12.1523
-12.1408
-12.1015
-12.0378
-11.9517
-11.851
-11.7464
-11.6438
-11.5544
-11.4895
-11.457
-11.4581
-11.485
-11.5264
-11.5718
-11.6167
-11.6579
-11.69
-11.7019
-11.7132
-11.7283
-11.6924
-11.6636
-11.6897
-11.6833
-11.6519
-12.0586
-12.1054
-12.1388
-12.1503
-12.1477
-12.1355
-12.1169
-12.1534
-12.3179
-12.481
-12.6246
-12.7456
-12.8066
-12.7376
-12.5938
-12.4692
-12.3742
-12.3196
-12.3063
-12.3276
-12.3618
-12.3966
-12.4272
-12.4474
-12.4566
-12.4582
-12.4537
-12.4464
-12.4422
-12.4468
-12.4617
-12.4827
-12.5016
-12.5127
-12.5189
-12.516
-12.4865
-12.4084
-12.2853
-12.1473
-12.0448
-12.0063
-12.0111
-12.0528
-12.1205
-12.2111
-12.2984
-12.3688
-12.4233
-12.4726
-12.5211
-12.5598
-12.582
-12.5984
-12.6079
-12.6022
-12.5727
-12.5211
-12.4505
-12.3617
-12.2654
-12.1726
-12.0951
-12.0403
-12.0132
-12.0165
-12.0422
-12.0789
-12.121
-12.1627
-12.201
-12.2274
-12.2294
-12.2128
-12.1968
-12.1517
-12.1062
-12.114
-12.1268
-12.1255
-12.6461
-12.7014
-12.7127
-12.7299
-12.7651
-12.7982
-12.8288
-12.8809
-13.038
-13.2674
-13.4171
-13.5083
-13.5138
-13.4104
-13.2295
-13.065
-12.956
-12.8888
-12.8684
-12.8785
-12.8958
-12.9122
-12.9276
-12.9381
-12.9432
-12.9442
-12.9424
-12.9409
-12.9448
-12.9587
-12.9845
-13.0182
-13.051
-13.0765
-13.1054
-13.1251
-13.1151
-13.0519
-12.9387
-12.8068
-12.6878
-12.6286
-12.6195
-12.6462
-12.6999
-12.7657
-12.8287
-12.8828
-12.9271
-12.9688
-13.0145
-13.0535
-13.0783
-13.0955
-13.1076
-13.1083
-13.0868
-13.04
-12.9744
-12.8932
-12.8016
-12.7133
-12.6415
-12.5944
-12.5734
-12.5816
-12.6092
-12.645
-12.6843
-12.7234
-12.7606
-12.7835
-12.77
-12.7261
-12.6793
-12.6247
-12.5724
-12.5695
-12.6008
-12.6179
-13.2294
-13.2636
-13.258
-13.2859
-13.3509
-13.4264
-13.4861
-13.5458
-13.6523
-13.8621
-14.023
-14.0605
-14.0038
-13.8969
-13.7364
-13.5949
-13.4958
-13.4361
-13.4146
-13.4148
-13.4189
-13.4245
-13.4313
-13.4364
-13.4394
-13.4408
-13.4415
-13.4449
-13.4554
-13.4766
-13.5117
-13.5579
-13.6068
-13.6523
-13.704
-13.7456
-13.7499
-13.6987
-13.5947
-13.4683
-13.3449
-13.2694
-13.2443
-13.2596
-13.2977
-13.3477
-13.3843
-13.4088
-13.4407
-13.4777
-13.5212
-13.5597
-13.5898
-13.6117
-13.6317
-13.637
-13.6181
-13.5735
-13.5089
-13.4324
-13.3477
-13.2651
-13.2004
-13.1631
-13.1537
-13.1742
-13.2085
-13.2435
-13.2794
-13.3177
-13.36
-13.3838
-13.3507
-13.2771
-13.1996
-13.1331
-13.079
-13.0783
-13.1117
-13.1335
-13.8007
-13.8223
-13.8382
-13.9103
-13.9987
-14.0717
-14.1146
-14.1465
-14.181
-14.2765
-14.3996
-14.4402
-14.3958
-14.2954
-14.1864
-14.0826
-14.0026
-13.9589
-13.9402
-13.9367
-13.9341
-13.9347
-13.9369
-13.9394
-13.9416
-13.9434
-13.9463
-13.9537
-13.9682
-13.994
-14.0356
-14.0923
-14.1552
-14.2211
-14.2889
-14.354
-14.3731
-14.33
-14.2344
-14.1149
-13.9991
-13.9102
-13.8709
-13.8707
-13.8937
-13.9316
-13.9648
-13.9618
-13.9596
-13.9946
-14.036
-14.0757
-14.106
-14.1323
-14.1619
-14.1728
-14.1581
-14.1197
-14.0635
-13.9949
-13.9174
-13.841
-13.7861
-13.7618
-13.7704
-13.8099
-13.856
-13.8953
-13.9406
-13.9929
-14.0514
-14.0938
-14.0799
-13.9777
-13.8294
-13.7145
-13.6399
-13.6196
-13.6378
-13.646
-14.3629
-14.3993
-14.4611
-14.5749
-14.6577
-14.6984
-14.702
-14.6939
-14.6618
-14.6592
-14.7129
-14.7601
-14.7416
-14.6753
-14.6017
-14.5354
-14.4843
-14.461
-14.4539
-14.4491
-14.445
-14.4437
-14.4441
-14.4453
-14.4472
-14.4494
-14.4542
-14.4641
-14.4802
-14.5076
-14.5519
-14.6137
-14.6832
-14.7591
-14.8398
-14.9213
-14.9542
-14.9223
-14.839
-14.7313
-14.6266
-14.5378
-14.488
-14.4672
-14.4737
-14.4975
-14.5305
-14.5337
-14.4946
-14.5164
-14.5596
-14.6006
-14.6296
-14.6614
-14.7005
-14.7265
-14.7268
-14.7012
-14.6516
-14.5894
-14.5194
-14.4501
-14.4074
-14.4004
-14.4352
-14.5011
-14.5667
-14.6281
-14.7306
-14.8919
-15.0315
-15.1012
-15.0826
-14.9188
-14.6604
-14.4184
-14.267
-14.1875
-14.1653
-14.1512
-14.892
-14.9512
-15.0518
-15.1753
-15.2421
-15.2405
-15.2101
-15.1696
-15.1024
-15.0565
-15.0709
-15.1031
-15.0957
-15.0539
-15.0103
-14.9766
-14.9612
-14.9594
-14.9599
-14.956
-14.9532
-14.9521
-14.9522
-14.9532
-14.955
-14.9576
-14.9635
-14.9741
-14.9902
-15.0174
-15.0612
-15.1226
-15.193
-15.2701
-15.3575
-15.4432
-15.485
-15.4656
-15.3964
-15.3046
-15.2139
-15.1383
-15.0823
-15.0507
-15.0385
-15.048
-15.0724
-15.0912
-15.0411
-15.0333
-15.0877
-15.132
-15.1623
-15.2021
-15.2544
-15.3031
-15.3279
-15.3217
-15.2825
-15.2231
-15.1567
-15.0943
-15.0639
-15.0786
-15.148
-15.2486
-15.3467
-15.4777
-15.7362
-16.0511
-16.2651
-16.33
-16.2444
-15.9986
-15.6377
-15.249
-14.9481
-14.7819
-14.7058
-14.6698
-15.3836
-15.4501
-15.5687
-15.6899
-15.7458
-15.7108
-15.6652
-15.6139
-15.5524
-15.515
-15.5145
-15.5201
-15.496
-15.4603
-15.4399
-15.4406
-15.4531
-15.4611
-15.4618
-15.4615
-15.4609
-15.4607
-15.4611
-15.4624
-15.4643
-15.4677
-15.4734
-15.4838
-15.499
-15.5246
-15.5658
-15.6231
-15.6905
-15.7651
-15.8516
-15.9338
-15.9755
-15.9661
-15.9114
-15.8379
-15.7657
-15.704
-15.6505
-15.6175
-15.5965
-15.5927
-15.6025
-15.62
-15.5923
-15.5558
-15.6147
-15.6646
-15.702
-15.7465
-15.8146
-15.8887
-15.9385
-15.9535
-15.9324
-15.8798
-15.8144
-15.7583
-15.7393
-15.779
-15.8873
-16.0293
-16.1805
-16.4478
-16.8591
-17.212
-17.4195
-17.4707
-17.3541
-17.053
-16.6094
-16.1147
-15.6756
-15.3984
-15.2749
-15.2171
-15.8502
-15.9203
-16.032
-16.1544
-16.2147
-16.1702
-16.1297
-16.0974
-16.0674
-16.0495
-16.0325
-15.994
-15.9484
-15.9197
-15.9219
-15.9454
-15.9601
-15.9649
-15.9672
-15.9685
-15.969
-15.9696
-15.9706
-15.9722
-15.9746
-15.9783
-15.9838
-15.9932
-16.0067
-16.0293
-16.0662
-16.1183
-16.1786
-16.2472
-16.3275
-16.4013
-16.4391
-16.4401
-16.4032
-16.3478
-16.2906
-16.2395
-16.1935
-16.1627
-16.1431
-16.1342
-16.1308
-16.1406
-16.1277
-16.1005
-16.1379
-16.1921
-16.2351
-16.2807
-16.3562
-16.4502
-16.5219
-16.5593
-16.559
-16.5191
-16.4591
-16.4107
-16.4051
-16.4707
-16.6165
-16.7983
-17.0207
-17.4413
-17.9015
-18.2266
-18.4042
-18.4336
-18.2877
-17.949
-17.455
-16.8996
-16.4039
-16.0453
-15.8707
-15.7877
-16.3174
-16.3902
-16.4894
-16.5935
-16.6559
-16.6389
-16.6148
-16.6045
-16.5983
-16.5839
-16.5553
-16.498
-16.4603
-16.4427
-16.4515
-16.4632
-16.4703
-16.4743
-16.4757
-16.4767
-16.4777
-16.4788
-16.4804
-16.4826
-16.4856
-16.4894
-16.4951
-16.5032
-16.5141
-16.5313
-16.5622
-16.608
-16.6589
-16.7194
-16.7894
-16.8567
-16.8955
-16.9011
-16.8854
-16.8485
-16.8024
-16.7581
-16.7194
-16.6884
-16.6723
-16.659
-16.6516
-16.6604
-16.6593
-16.6458
-16.6654
-16.7123
-16.7542
-16.7968
-16.862
-16.9581
-17.0488
-17.1079
-17.1291
-17.109
-17.0595
-17.0192
-17.0292
-17.1193
-17.2968
-17.5155
-17.8361
-18.3383
-18.7686
-19.0469
-19.1924
-19.1878
-19.0122
-18.6453
-18.1323
-17.5528
-17.0534
-16.6869
-16.4634
-16.3421
-16.8132
-16.8754
-16.9666
-17.0708
-17.1415
-17.138
-17.1072
-17.0929
-17.0867
-17.078
-17.0595
-17.0273
-16.9974
-16.981
-16.9824
-16.9826
-16.985
-16.9845
-16.9849
-16.9856
-16.9867
-16.9881
-16.9902
-16.9932
-16.9973
-17.0021
-17.0086
-17.0163
-17.025
-17.0361
-17.0578
-17.095
-17.1361
-17.1877
-17.245
-17.3066
-17.3522
-17.3651
-17.3624
-17.3437
-17.3079
-17.2681
-17.2351
-17.2039
-17.183
-17.1647
-17.1632
-17.1796
-17.1865
-17.1843
-17.1982
-17.2356
-17.2729
-17.2957
-17.3372
-17.4192
-17.5178
-17.5928
-17.6297
-17.6297
-17.5976
-17.5651
-17.5875
-17.6965
-17.893
-18.1498
-18.5543
-19.0591
-19.4382
-19.677
-19.7865
-19.7499
-19.5456
-19.1643
-18.6477
-18.09
-17.6178
-17.2648
-16.9946
-16.8558
-17.3402
-17.3889
-17.4742
-17.5863
-17.6618
-17.6542
-17.6056
-17.5697
-17.563
-17.5647
-17.5601
-17.544
-17.5217
-17.5073
-17.5004
-17.4967
-17.4958
-17.4948
-17.4944
-17.4946
-17.4955
-17.4971
-17.4997
-17.5038
-17.5094
-17.5163
-17.5254
-17.5367
-17.5481
-17.5565
-17.5747
-17.5994
-17.6279
-17.6601
-17.7041
-17.7533
-17.8047
-17.8359
-17.8416
-17.8326
-17.8063
-17.7701
-17.7373
-17.7123
-17.692
-17.6839
-17.6874
-17.7089
-17.7178
-17.7273
-17.7479
-17.7907
-17.8242
-17.8268
-17.8428
-17.8943
-17.9693
-18.0377
-18.0788
-18.087
-18.071
-18.0464
-18.0712
-18.1853
-18.3858
-18.6716
-19.111
-19.5888
-19.9313
-20.1318
-20.2014
-20.1362
-19.9121
-19.5277
-19.0312
-18.519
-18.0904
-17.7469
-17.4634
-17.3575
-17.9173
-17.9547
-18.0284
-18.1121
-18.1711
-18.1668
-18.1006
-18.0417
-18.036
-18.0586
-18.0607
-18.0525
-18.0379
-18.0261
-18.0175
-18.0124
-18.0082
-18.0055
-18.0039
-18.0033
-18.0037
-18.0053
-18.0084
-18.0135
-18.021
-18.0311
-18.0452
-18.0664
-18.0911
-18.1085
-18.1255
-18.1328
-18.1392
-18.1427
-18.1699
-18.2071
-18.2544
-18.2979
-18.3175
-18.3165
-18.2939
-18.2608
-18.228
-18.2149
-18.2137
-18.2235
-18.2367
-18.2613
-18.2726
-18.2968
-18.3324
-18.4087
-18.4448
-18.4351
-18.4215
-18.4422
-18.481
-18.5126
-18.523
-18.5185
-18.5048
-18.4749
-18.4888
-18.589
-18.7742
-19.0586
-19.4867
-19.9482
-20.2815
-20.4611
-20.5069
-20.4193
-20.1837
-19.8043
-19.3356
-18.8652
-18.4617
-18.1514
-17.9532
-17.9088
-18.5153
-18.5559
-18.63
-18.6996
-18.766
-18.7775
-18.6924
-18.5656
-18.5209
-18.5629
-18.5657
-18.5618
-18.5517
-18.5408
-18.5315
-18.5247
-18.5194
-18.5154
-18.5128
-18.5113
-18.511
-18.5123
-18.5156
-18.5213
-18.5305
-18.5442
-18.5644
-18.5998
-18.6492
-18.6841
-18.6905
-18.6787
-18.6605
-18.6395
-18.6428
-18.6697
-18.707
-18.7514
-18.7828
-18.7887
-18.7688
-18.7348
-18.711
-18.7128
-18.7371
-18.7599
-18.7921
-18.8258
-18.8413
-18.8819
-18.9429
-19.0561
-19.1051
-19.0918
-19.0422
-19.0347
-19.0446
-19.036
-18.9974
-18.9575
-18.9272
-18.8863
-18.8678
-18.9308
-19.0766
-19.3217
-19.6968
-20.1337
-20.4861
-20.6826
-20.7302
-20.6385
-20.3978
-20.0209
-19.5672
-19.1206
-18.7587
-18.5432
-18.4781
-18.4876
-19.1015
-19.144
-19.2342
-19.3115
-19.3552
-19.3922
-19.3416
-19.163
-19.059
-19.0747
-19.0764
-19.071
-19.0627
-19.052
-19.0434
-19.0358
-19.0295
-19.0245
-19.0207
-19.0182
-19.017
-19.0176
-19.0203
-19.0259
-19.0356
-19.0511
-19.0759
-19.1201
-19.1958
-19.2463
-19.2412
-19.2113
-19.1735
-19.1439
-19.1298
-19.1458
-19.1738
-19.2116
-19.2426
-19.2531
-19.2381
-19.2009
-19.1876
-19.2108
-19.2547
-19.2869
-19.3349
-19.3732
-19.3996
-19.4595
-19.5439
-19.6536
-19.7335
-19.7214
-19.6412
-19.6013
-19.5826
-19.5423
-19.4715
-19.4086
-19.36
-19.2969
-19.2382
-19.2485
-19.3353
-19.509
-19.7954
-20.1658
-20.51
-20.7478
-20.8377
-20.764
-20.5386
-20.1901
-19.7829
-19.3958
-19.1229
-19.0087
-19.0146
-19.0289
-19.6937
-19.7391
-19.8053
-19.87
-19.8981
-19.9155
-19.8949
-19.739
-19.6163
-19.5917
-19.5944
-19.5817
-19.5739
-19.5618
-19.5542
-19.5458
-19.5386
-19.5326
-19.5277
-19.524
-19.5216
-19.5209
-19.5223
-19.5265
-19.5347
-19.5489
-19.5734
-19.6182
-19.6895
-19.7517
-19.7488
-19.7101
-19.6699
-19.6479
-19.6386
-19.6465
-19.6655
-19.6902
-19.713
-19.7259
-19.7198
-19.7004
-19.6951
-19.7297
-19.7731
-19.8068
-19.8575
-19.8978
-19.94
-20.0164
-20.1004
-20.1868
-20.2719
-20.267
-20.1863
-20.1146
-20.0695
-20.0004
-19.9258
-19.8605
-19.7992
-19.72
-19.6257
-19.5873
-19.6125
-19.7067
-19.8937
-20.1728
-20.4777
-20.7476
-20.9115
-20.9133
-20.7531
-20.4703
-20.1362
-19.824
-19.6165
-19.5377
-19.5443
-19.5586
-20.3108
-20.3262
-20.353
-20.398
-20.4091
-20.3912
-20.3581
-20.2644
-20.1639
-20.1249
-20.113
-20.0953
-20.0845
-20.0729
-20.0635
-20.0547
-20.0468
-20.0398
-20.0338
-20.0288
-20.0249
-20.0224
-20.0216
-20.0232
-20.0277
-20.0366
-20.053
-20.0835
-20.1343
-20.1897
-20.2007
-20.1835
-20.1696
-20.1665
-20.1731
-20.1767
-20.1849
-20.1962
-20.2099
-20.2216
-20.2251
-20.2304
-20.242
-20.2687
-20.2994
-20.327
-20.3708
-20.416
-20.4754
-20.5535
-20.6242
-20.68
-20.7417
-20.7433
-20.6736
-20.5945
-20.5348
-20.4587
-20.3837
-20.3165
-20.2501
-20.1614
-20.0561
-19.9841
-19.9627
-19.9968
-20.1141
-20.3243
-20.606
-20.901
-21.1384
-21.2373
-21.1516
-20.9212
-20.6497
-20.3934
-20.2146
-20.1256
-20.0952
-20.0961
-20.8802
-20.8807
-20.9002
-20.9042
-20.884
-20.8369
-20.7871
-20.7417
-20.6851
-20.6519
-20.6285
-20.6082
-20.5947
-20.5827
-20.5724
-20.5629
-20.5543
-20.5464
-20.5392
-20.5328
-20.5272
-20.5226
-20.5191
-20.5171
-20.5165
-20.5183
-20.5234
-20.5354
-20.5602
-20.5977
-20.6273
-20.6496
-20.6831
-20.71
-20.726
-20.7254
-20.7199
-20.7204
-20.7303
-20.7419
-20.7472
-20.7557
-20.781
-20.8096
-20.8296
-20.8495
-20.881
-20.9321
-21.0038
-21.0769
-21.1322
-21.1623
-21.1981
-21.2002
-21.1493
-21.0759
-21.0078
-20.9405
-20.8618
-20.7851
-20.7148
-20.6295
-20.5279
-20.447
-20.4051
-20.4084
-20.4835
-20.6565
-20.9238
-21.2483
-21.5489
-21.7077
-21.6752
-21.5107
-21.2594
-21.0044
-20.8138
-20.7167
-20.6697
-20.6529
-21.3914
-21.4091
-21.4349
-21.421
-21.3561
-21.281
-21.2314
-21.2114
-21.1809
-21.159
-21.1368
-21.1179
-21.1038
-21.0915
-21.0806
-21.0707
-21.0614
-21.0526
-21.0444
-21.0365