/*--------------------------------*- C++ -*----------------------------------*\
| =========                 |                                                 |
| \\      /  F ield         | OpenFOAM: The Open Source CFD Toolbox           |
|  \\    /   O peration     | Version:  2412                                  |
|   \\  /    A nd           | Website:  www.openfoam.com                      |
|    \\/     M anipulation  |                                                 |
\*---------------------------------------------------------------------------*/
FoamFile
{
    version     2.0;
    format      ascii;
    arch        "LSB;label=32;scalar=64";
    class       volScalarField;
    location    "7.7";
    object      p_rgh;
}
// * * * * * * * * * * * * * * * * * * * * * * * * * * * * * * * * * * * * * //

dimensions      [1 -1 -2 0 0 0 0];

internalField   nonuniform List<scalar> 
6400
(
9858.84
9859.26
9860.07
9861.26
9862.74
9864.47
9866.35
9868.3
9870.22
9872
9873.56
9874.8
9875.64
9876
9875.82
9875.06
9873.67
9871.64
9868.97
9865.68
9861.78
9857.32
9852.36
9846.96
9841.19
9835.13
9828.87
9822.5
9816.12
9809.82
9803.7
9797.85
9792.36
9787.32
9782.81
9778.91
9775.67
9773.16
9771.42
9770.49
9770.38
9771.11
9772.68
9775.05
9778.21
9782.1
9786.67
9791.84
9797.54
9803.67
9810.13
9816.81
9823.6
9830.4
9837.07
9843.51
9849.61
9855.27
9860.39
9864.9
9868.71
9871.79
9874.09
9875.6
9876.34
9876.31
9875.59
9874.23
9872.31
9869.95
9867.26
9864.36
9861.37
9858.43
9855.64
9853.13
9850.99
9849.31
9848.16
9847.57
9858.41
9858.85
9859.71
9860.95
9862.5
9864.31
9866.29
9868.33
9870.34
9872.23
9873.88
9875.2
9876.12
9876.54
9876.41
9875.68
9874.31
9872.28
9869.6
9866.28
9862.34
9857.83
9852.8
9847.32
9841.47
9835.32
9828.97
9822.51
9816.04
9809.64
9803.43
9797.49
9791.91
9786.79
9782.21
9778.24
9774.94
9772.39
9770.62
9769.66
9769.55
9770.28
9771.86
9774.27
9777.47
9781.42
9786.06
9791.32
9797.11
9803.33
9809.9
9816.69
9823.6
9830.51
9837.3
9843.85
9850.06
9855.81
9861.01
9865.58
9869.45
9872.56
9874.87
9876.38
9877.09
9877.02
9876.22
9874.77
9872.76
9870.29
9867.47
9864.44
9861.33
9858.26
9855.37
9852.76
9850.53
9848.79
9847.59
9846.97
9857.54
9858.02
9858.96
9860.31
9862.01
9863.98
9866.14
9868.38
9870.6
9872.68
9874.52
9876.02
9877.08
9877.63
9877.6
9876.94
9875.6
9873.58
9870.87
9867.49
9863.46
9858.84
9853.69
9848.06
9842.04
9835.72
9829.19
9822.54
9815.87
9809.28
9802.88
9796.76
9791.01
9785.72
9780.99
9776.89
9773.48
9770.83
9768.99
9767.99
9767.86
9768.6
9770.22
9772.69
9775.98
9780.05
9784.84
9790.26
9796.23
9802.66
9809.44
9816.46
9823.6
9830.74
9837.76
9844.53
9850.95
9856.89
9862.26
9866.97
9870.94
9874.12
9876.47
9877.96
9878.61
9878.44
9877.51
9875.88
9873.66
9870.96
9867.9
9864.61
9861.24
9857.93
9854.8
9851.99
9849.59
9847.72
9846.42
9845.77
9856.19
9856.73
9857.78
9859.31
9861.23
9863.47
9865.92
9868.46
9870.99
9873.37
9875.5
9877.27
9878.57
9879.31
9879.43
9878.86
9877.58
9875.56
9872.81
9869.34
9865.18
9860.4
9855.04
9849.19
9842.92
9836.33
9829.51
9822.57
9815.61
9808.74
9802.05
9795.65
9789.64
9784.11
9779.15
9774.84
9771.26
9768.47
9766.53
9765.46
9765.3
9766.05
9767.72
9770.29
9773.72
9777.97
9782.97
9788.64
9794.9
9801.64
9808.74
9816.11
9823.6
9831.09
9838.46
9845.57
9852.31
9858.54
9864.17
9869.1
9873.24
9876.52
9878.92
9880.39
9880.95
9880.63
9879.48
9877.59
9875.04
9871.98
9868.54
9864.86
9861.09
9857.4
9853.93
9850.8
9848.15
9846.06
9844.63
9843.9
9854.28
9854.91
9856.14
9857.91
9860.14
9862.74
9865.59
9868.56
9871.51
9874.32
9876.85
9878.98
9880.6
9881.61
9881.93
9881.5
9880.29
9878.28
9875.46
9871.87
9867.54
9862.52
9856.89
9850.72
9844.11
9837.15
9829.96
9822.62
9815.27
9808
9800.92
9794.15
9787.78
9781.91
9776.65
9772.07
9768.26
9765.28
9763.19
9762.02
9761.82
9762.59
9764.33
9767.03
9770.65
9775.14
9780.43
9786.45
9793.09
9800.24
9807.79
9815.62
9823.59
9831.57
9839.41
9846.99
9854.16
9860.8
9866.78
9872.01
9876.37
9879.81
9882.27
9883.73
9884.18
9883.65
9882.21
9879.93
9876.95
9873.39
9869.41
9865.19
9860.88
9856.66
9852.7
9849.14
9846.12
9843.75
9842.12
9841.29
9851.74
9852.49
9853.94
9856.03
9858.68
9861.76
9865.14
9868.66
9872.18
9875.54
9878.6
9881.21
9883.24
9884.6
9885.18
9884.93
9883.81
9881.79
9878.89
9875.14
9870.57
9865.25
9859.26
9852.69
9845.64
9838.22
9830.53
9822.7
9814.83
9807.06
9799.49
9792.24
9785.41
9779.12
9773.46
9768.54
9764.42
9761.2
9758.92
9757.63
9757.37
9758.15
9759.98
9762.84
9766.7
9771.51
9777.18
9783.63
9790.75
9798.43
9806.55
9814.98
9823.56
9832.16
9840.63
9848.8
9856.54
9863.7
9870.15
9875.76
9880.43
9884.08
9886.63
9888.06
9888.37
9887.57
9885.75
9882.99
9879.43
9875.22
9870.54
9865.59
9860.57
9855.67
9851.06
9846.94
9843.44
9840.7
9838.82
9837.86
9848.45
9849.34
9851.09
9853.6
9856.78
9860.48
9864.53
9868.76
9873
9877.07
9880.8
9884.01
9886.57
9888.35
9889.26
9889.23
9888.21
9886.19
9883.17
9879.21
9874.34
9868.65
9862.21
9855.14
9847.54
9839.53
9831.24
9822.79
9814.3
9805.91
9797.74
9789.91
9782.51
9775.7
9769.55
9764.19
9759.7
9756.17
9753.66
9752.22
9751.88
9752.67
9754.6
9757.65
9761.81
9767
9773.13
9780.12
9787.84
9796.18
9805.01
9814.17
9823.51
9832.89
9842.12
9851.04
9859.49
9867.31
9874.35
9880.46
9885.51
9889.42
9892.1
9893.52
9893.65
9892.52
9890.22
9886.84
9882.54
9877.5
9871.94
9866.07
9860.14
9854.36
9848.95
9844.11
9840
9836.8
9834.58
9833.47
9844.26
9845.34
9847.46
9850.51
9854.36
9858.83
9863.73
9868.86
9874
9878.95
9883.5
9887.47
9890.67
9892.98
9894.29
9894.51
9893.61
9891.57
9888.41
9884.18
9878.94
9872.77
9865.79
9858.1
9849.84
9841.12
9832.1
9822.91
9813.68
9804.55
9795.65
9787.12
9779.03
9771.58
9764.87
9758.97
9754.02
9750.13
9747.34
9745.7
9745.26
9746.06
9748.1
9751.38
9755.89
9761.54
9768.24
9775.87
9784.32
9793.45
9803.12
9813.17
9823.44
9833.75
9843.91
9853.75
9863.08
9871.7
9879.46
9886.19
9891.74
9895.99
9898.85
9900.25
9900.18
9898.66
9895.77
9891.62
9886.4
9880.31
9873.63
9866.62
9859.56
9852.69
9846.28
9840.54
9835.68
9831.88
9829.27
9827.94
9838.98
9840.29
9842.88
9846.6
9851.29
9856.74
9862.7
9868.93
9875.19
9881.23
9886.8
9891.68
9895.67
9898.61
9900.39
9900.91
9900.13
9898.08
9894.71
9890.15
9884.45
9877.71
9870.06
9861.64
9852.57
9843.02
9833.12
9823.05
9812.93
9802.93
9793.18
9783.88
9774.88
9766.74
9759.37
9752.82
9747.32
9743
9739.87
9738
9737.43
9738.21
9740.36
9743.89
9748.81
9755.03
9762.42
9770.8
9780.11
9790.17
9800.84
9811.95
9823.32
9834.74
9846.03
9856.96
9867.34
9876.95
9885.6
9893.09
9899.25
9903.94
9907.03
9908.45
9908.15
9906.15
9902.54
9897.46
9891.1
9883.73
9875.65
9867.22
9858.77
9850.58
9842.93
9836.09
9830.3
9825.77
9822.65
9821.09
9832.39
9833.96
9837.15
9841.7
9847.45
9854.11
9861.39
9868.99
9876.61
9883.96
9890.78
9896.78
9901.72
9905.41
9907.73
9908.58
9907.94
9905.78
9902.21
9897.24
9890.98
9883.56
9875.11
9865.8
9855.78
9845.23
9834.31
9823.2
9812.06
9801.02
9790.24
9779.94
9770.18
9761.16
9752.97
9745.72
9739.54
9734.69
9731.17
9729
9728.27
9729.01
9731.26
9735.02
9740.47
9747.34
9755.57
9764.79
9775.11
9786.26
9798.11
9810.46
9823.12
9835.86
9848.47
9860.72
9872.35
9883.15
9892.87
9901.29
9908.22
9913.46
9916.87
9918.33
9917.78
9915.24
9910.77
9904.54
9896.79
9887.82
9878.02
9867.82
9857.73
9847.9
9838.77
9830.57
9823.63
9818.24
9814.51
9812.67
9824.21
9826.04
9830
9835.61
9842.65
9850.81
9859.73
9868.99
9878.27
9887.25
9895.59
9902.94
9909.01
9913.58
9916.52
9917.75
9917.23
9914.98
9911.08
9905.6
9898.66
9890.41
9881.01
9870.65
9859.51
9847.78
9835.68
9823.37
9811.04
9798.7
9786.86
9775.49
9764.73
9754.73
9745.64
9737.51
9730.53
9725.14
9721.13
9718.61
9717.65
9718.34
9720.72
9724.86
9730.81
9738.34
9747.32
9757.55
9769.23
9781.63
9794.84
9808.64
9822.8
9837.1
9851.28
9865.06
9878.19
9890.39
9901.41
9910.97
9918.85
9924.79
9928.62
9930.18
9929.38
9926.2
9920.72
9913.12
9903.66
9892.7
9880.77
9868.43
9856.23
9844.79
9833.66
9823.77
9815.45
9808.99
9804.53
9802.37
9812.96
9810.34
9820.94
9828.08
9836.65
9846.64
9857.59
9868.89
9880.22
9891.17
9901.37
9910.37
9917.77
9923.36
9927
9928.63
9928.22
9925.81
9921.5
9915.39
9907.63
9898.38
9887.85
9876.24
9863.78
9850.7
9837.21
9823.52
9809.72
9796.16
9783.02
9770.41
9758.49
9747.41
9737.37
9728.6
9720.83
9714.33
9709.63
9706.63
9705.4
9706
9708.51
9713.01
9719.52
9727.87
9737.86
9749.33
9762.15
9776.12
9790.96
9806.44
9822.35
9838.45
9854.44
9870.04
9884.93
9898.81
9911.37
9922.31
9931.35
9938.19
9942.59
9944.35
9943.3
9939.41
9932.73
9923.47
9911.95
9898.48
9883.86
9868.84
9854.03
9840.59
9827.19
9815.35
9805.46
9797.68
9790.91
9789.01
9798.31
9795.09
9802.41
9818.42
9829.07
9841.18
9854.66
9868.67
9882.44
9895.78
9908.32
9919.33
9928.31
9935.05
9939.46
9941.5
9941.16
9938.5
9933.67
9926.78
9918.03
9907.6
9895.73
9882.66
9868.65
9853.98
9838.9
9823.69
9808.12
9793.19
9778.63
9764.63
9751.38
9739.05
9727.9
9717.89
9709.2
9701.95
9696.41
9692.89
9691.28
9691.75
9694.4
9699.32
9706.37
9715.74
9726.91
9739.73
9754.04
9769.6
9786.36
9803.75
9821.67
9839.85
9857.96
9875.66
9892.62
9908.48
9922.88
9935.5
9945.97
9953.96
9959.14
9961.23
9959.99
9955.3
9947.22
9935.94
9921.83
9905.25
9886.99
9868.63
9850.81
9834.17
9818.51
9804.75
9793.12
9781.56
9768.15
9771.64
9779.51
9778.81
9787.37
9805.54
9819.31
9833.62
9850
9867.5
9884.68
9901.22
9916.71
9930.2
9941.02
9949.04
9954.25
9956.67
9956.34
9953.33
9947.8
9939.96
9930.01
9918.17
9904.72
9889.93
9874.12
9857.58
9840.63
9823.51
9806.42
9789.75
9773.56
9758
9743.28
9729.64
9717.06
9705.82
9696.09
9688.1
9681.57
9677.24
9675.1
9675.32
9678.07
9683.52
9691.56
9701.76
9714.22
9728.59
9744.62
9762.08
9780.77
9800.43
9820.66
9841.24
9861.8
9881.95
9901.29
9919.46
9936.06
9950.69
9962.96
9972.4
9978.66
9981.3
9979.97
9974.45
9964.74
9951.04
9933.85
9913.4
9890.57
9867.85
9846.89
9826.8
9807.38
9791.57
9777.2
9757.88
9744.72
9748.92
9740.52
9709.46
9758.67
9789.46
9806
9822.95
9842.39
9864.85
9887.17
9908.15
9927.28
9943.66
9956.48
9965.81
9971.84
9974.61
9974.14
9970.59
9964.17
9955.14
9943.76
9930.26
9914.94
9898.13
9880.18
9861.47
9842.34
9823.13
9804.11
9785.57
9767.6
9750.31
9733.89
9718.73
9704.78
9692.25
9681.32
9672.16
9664.76
9659.43
9656.58
9656.49
9659.2
9664.9
9673.7
9685.29
9699.4
9715.6
9733.61
9753.23
9774.22
9796.29
9819.19
9842.54
9865.91
9888.87
9910.98
9931.84
9951.01
9968.05
9982.48
9993.87
10001.6
10005.2
10004
9997.65
9986.12
9969.68
9948.77
9923.87
9896.52
9868.97
9842.81
9818.4
9795.63
9775.35
9758.33
9717.76
9672.91
9704.26
9713.34
9668.41
9683.45
9763.26
9788.34
9808.8
9831.93
9861.24
9891.24
9918.15
9941.4
9960.49
9975.23
9985.74
9992.51
9995.6
9994.95
9990.7
9983.18
9972.71
9959.59
9944.12
9926.61
9907.43
9887
9865.71
9844.01
9822.32
9801.04
9780.44
9760.52
9741.35
9723.04
9706.37
9690.96
9677.05
9664.78
9654.28
9645.7
9639.36
9635.55
9634.53
9636.94
9643.02
9652.8
9665.87
9682.02
9700.44
9720.8
9742.91
9766.53
9791.38
9817.19
9843.56
9870.23
9896.44
9921.8
9945.85
9968.11
9988.06
10005.2
10018.9
10028.7
10033.7
10032.8
10025.7
10012.2
9992.78
9967.79
9937.99
9905.62
9871.52
9837.38
9805.23
9776.9
9753.97
9733.36
9667.51
9634.2
9669
9689.02
9638.45
9641.76
9726.18
9768.13
9793.66
9820.47
9858.69
9898.8
9933.12
9961.12
9983.11
9998.92
10009.8
10016.7
10019.9
10018.9
10013.9
10005.1
9992.92
9977.73
9959.94
9939.89
9917.9
9894.45
9870.04
9845.27
9820.74
9797.03
9774.37
9752.49
9731.28
9711.29
9692.46
9675.43
9660.09
9646.41
9634.45
9624.36
9616.33
9610.74
9608.47
9610.37
9616.98
9628.28
9643.29
9662.25
9683.27
9706.24
9731.12
9757.67
9785.58
9814.57
9844.16
9874.78
9904.64
9933.82
9961.64
9987.55
10011
10031.3
10047.8
10060.5
10067.4
10067.3
10059.8
10044.8
10022.7
9993.3
9957.62
9918.9
9875.25
9829.51
9787.38
9752.85
9728.04
9694.36
9616.3
9601.59
9643.05
9659.53
9660.87
9616.09
9707.75
9745.81
9776.64
9813.12
9858.67
9910.46
9952.94
9986.93
10012.3
10029
10039.7
10046.3
10048.1
10046.1
10039.8
10029.6
10015.5
9998.04
9977.69
9954.69
9929.3
9902.31
9874.18
9845.75
9817.76
9791.28
9766.65
9742.99
9719.56
9695.85
9676.26
9657.82
9641.27
9626.45
9613.28
9601.46
9590.96
9582.45
9578.07
9578.97
9586.41
9600.43
9619.67
9641.07
9664.23
9689.4
9717.2
9747
9778.26
9811.08
9844.48
9878.65
9912.8
9946.33
9978.54
10008.8
10036.4
10060.6
10079.7
10096.6
10106.6
10108.8
10102.3
10087
10062.7
10029.2
9987.3
9935.83
9879.08
9819.13
9766.43
9725.77
9698.36
9667.03
9584.81
9609.58
9606.57
9604.15
9618.27
9654.63
9688.69
9721.37
9761.2
9809.06
9865.79
9926.57
9979.48
10021.3
10052.8
10074.3
10083.9
10084.2
10081.1
10076.1
10068.4
10056.2
10040
10020.2
9997.13
9971.17
9941.92
9911.15
9878.56
9845.25
9812.99
9783.45
9756.49
9730.81
9706.69
9683.98
9659.77
9639
9621.02
9604.85
9558.63
9511.13
9487.07
9470.45
9458.89
9449.52
9463.17
9502.85
9558.35
9608.39
9641.91
9668.38
9699.68
9733.52
9768.59
9805.98
9843.44
9881.91
9920.43
9958.42
9995.15
10030
10062.7
10092.4
10119.2
10137.3
10151.6
10159
10156.8
10142.8
10114.5
10071.8
10017.7
9953.62
9882.23
9808.79
9744.16
9694.73
9663.38
9639.77
9577.57
9517.32
9483.64
5172.8
5416.47
5911.49
6500.54
7124.96
7695.72
8280.01
8880.27
9436.87
9839.64
10060.7
10097.8
10120.9
10129.6
10126.6
10116.4
10106.8
10099.4
10086.4
10068.3
10042.5
9996.07
9917.4
9795.75
9613.03
9354.92
9032.13
8709.01
8425.3
8141.45
7787.28
7367.71
6894.57
6476.95
6016.85
5637.52
5322.85
5086.38
4848.22
4537.57
4192.71
3955.32
3878.62
4056.38
4396.28
4859.65
5395.54
5955.09
6518.58
7084.15
7604.18
8081.77
8535.58
8965
9341.16
9638.47
9847.89
9978.53
10051.6
10091.8
10125.1
10154.1
10173.6
10199.5
10217.3
10221.4
10207.8
10173.2
10119
10049.8
9759
9122.74
8254.43
7337.89
6533.38
5980.75
5540.41
5207.04
4694.27
4416.01
2.01689
2.07556
2.22598
8.29134
180.241
602.698
1301.75
2347.63
3634.84
4877.97
5965.98
6852.96
7326.1
7427.88
7286.61
7042.44
6885.94
6806.1
6643.89
6328.99
5825.91
5225.22
4564.55
3884.53
3209.56
2549.27
1897.55
1329.02
903.954
605.556
396.208
243.465
137.79
101.214
117.948
150.91
135.075
102.849
64.3504
29.7559
11.738
5.43262
2.67246
1.42735
1.21667
1.12255
1.06845
1.17473
55.4847
313.551
587.973
925.985
1335.43
1855.26
2504.59
3266.34
4131.12
5020.92
5898.51
6772.74
7451.6
8015.88
8451.44
8785.77
8999.8
9036.69
8799.05
8133.45
7023.06
5441.35
3677.61
2147.1
957.717
336.128
37.216
2.7073
2.23604
2.00208
1.97774
1.96405
1.73153
1.68106
1.5618
1.74503
1.98472
1.91963
4.12993
6.46731
10.99
83.9893
281.713
518.395
651.874
656.224
494
351.38
250.733
146.31
55.8688
0.443212
0.151622
0.116116
0.11071
0.207648
0.349241
0.449943
0.525937
0.634791
0.762247
0.849699
0.855725
0.739702
0.523025
0.799266
1.3059
1.38997
1.30916
1.30561
1.2953
1.2117
1.10133
1.00541
0.970676
0.993202
1.02776
1.0128
0.99153
0.965274
0.918163
0.743957
0.661101
0.610408
0.574416
0.543505
0.518394
0.501997
0.498406
0.522071
0.587863
0.862076
211.32
510.72
884.613
1369.47
1906.87
2207
2064.69
1499.02
767.263
227.786
22.2794
6.02108
3.38897
3.01286
3.19135
3.20348
2.2285
1.73788
1.81848
1.85342
1.46033
1.39831
1.2626
1.55813
2.25252
1.69767
1.52974
1.78984
3.09235
1.51662
1.24144
0.754381
0.791548
0.883455
0.844288
0.665085
0.729273
0.71677
0.616011
0.463916
0.275953
0.186548
0.136718
0.168237
0.270207
0.554597
1.64526
2.0056
1.98652
1.26991
0.996295
0.658098
0.545107
0.522337
0.56722
0.606802
0.632885
0.667923
0.713155
0.748482
0.799411
0.851256
0.913505
0.949149
0.961517
0.941509
0.920179
0.871563
0.791375
0.701661
0.638546
0.592606
0.556526
0.526114
0.500868
0.481007
0.467778
0.465837
0.457539
0.401516
0.202911
0.114352
0.0507411
-0.0165302
0.517697
2.93763
5.22384
4.62318
2.4685
1.97321
3.99337
2.78892
2.61063
2.5853
4.18571
4.28718
3.58598
1.50517
1.61617
1.69859
1.24759
1.19418
1.07785
1.25461
1.29478
0.989727
1.45629
1.67837
1.54675
1.55125
1.17217
0.620715
0.529829
0.529792
0.556109
0.603326
1.12507
2.54195
2.55878
2.51501
1.4265
0.274722
0.262744
0.41668
1.51123
1.76049
1.84236
1.99921
2.13888
2.21956
2.23772
1.86087
0.506411
0.489542
0.504631
0.528894
0.569722
0.594312
0.637829
0.666871
0.714327
0.763048
0.824123
0.853803
0.846242
0.845668
0.827649
0.788979
0.73107
0.667912
0.615477
0.574997
0.543753
0.518419
0.497293
0.479576
0.464117
0.449966
0.422163
0.367775
0.289759
0.250847
0.202362
0.133367
0.147169
0.229744
0.56399
1.00651
1.01168
1.0259
4.2728
3.54725
3.31285
4.92267
5.02644
1.84578
1.57756
1.30742
1.43375
1.54334
1.07208
1.02526
0.925062
0.803779
0.650651
0.556917
0.524316
0.474578
0.531224
1.49079
1.49585
0.741055
0.60216
0.590541
0.57079
0.540261
0.651697
2.3672
2.54982
2.55576
1.80931
0.333892
0.753087
1.24493
1.44424
0.748121
0.436793
0.519735
1.54006
2.20147
2.22091
2.20781
1.56816
0.441483
0.467408
0.496616
0.535525
0.546418
0.558298
0.599691
0.641915
0.680793
0.712861
0.735686
0.747155
0.747909
0.732715
0.702171
0.660127
0.614669
0.573788
0.540642
0.514744
0.494
0.476811
0.461624
0.447404
0.431871
0.41422
0.377749
0.333886
0.294578
0.265738
0.259832
0.297875
0.403664
0.54647
0.896797
0.983895
0.989377
1.48238
4.84599
5.04137
5.03879
5.02423
1.26
1.19625
1.2094
1.32512
1.42587
0.924586
0.884901
0.803599
0.678368
0.557637
0.465247
0.391558
0.908282
1.48489
1.53095
1.56615
0.732779
0.650233
0.619684
0.582135
0.529087
0.491404
0.685022
2.36468
2.50335
0.959629
0.434759
0.691127
1.19267
1.25608
0.784071
0.438272
0.49096
0.91611
2.21256
2.22487
2.17585
1.5223
0.402946
0.424922
0.46361
0.504774
0.492954
0.515554
0.550018
0.584896
0.616744
0.642472
0.6609
0.670988
0.669995
0.656262
0.630977
0.597684
0.5619
0.529106
0.502274
0.481225
0.464038
0.44992
0.438204
0.426738
0.413626
0.422782
0.463195
0.460628
0.354626
0.326345
0.330979
0.38214
0.654806
0.832586
1.09353
1.06379
1.04263
1.00157
1.47409
4.9939
5.02205
5.0738
2.27928
1.20976
1.20994
1.25896
1.34476
0.798348
0.77852
0.759198
0.698081
0.517359
0.426482
0.360655
0.433247
0.852239
1.028
1.48977
1.49954
0.747847
1.02169
1.17189
0.551642
0.510193
0.492138
0.722751
1.57625
0.883242
0.500555
0.498652
0.53607
0.647884
0.506741
0.411857
1.01047
2.2989
2.29502
2.0993
0.319575
0.278698
0.418377
0.428048
0.427403
0.462139
0.451774
0.473507
0.498701
0.523748
0.547219
0.567171
0.582617
0.591881
0.592401
0.582238
0.562434
0.536039
0.507498
0.481414
0.460716
0.445366
0.433079
0.42279
0.414789
0.407478
0.399201
0.403616
0.699259
0.744338
0.675521
0.379404
0.434858
1.82381
3.36305
3.49921
4.07353
4.0992
4.07365
1.62024
1.18799
1.11325
4.45983
5.14593
3.62099
1.95575
1.20918
1.21965
1.28353
0.688935
0.799917
0.765122
0.704294
0.502222
0.426675
0.511003
0.521787
0.452585
0.317763
0.339679
0.381028
1.22444
1.6377
1.61315
1.39842
1.04014
1.0089
0.619869
0.498809
0.493321
0.496852
0.513857
0.504438
0.341007
0.344492
0.406075
1.90908
2.37973
2.40795
1.10372
0.279799
0.276587
0.309284
0.362459
0.397927
0.41473
0.408579
0.425376
0.439634
0.453867
0.469037
0.484925
0.49927
0.509543
0.512977
0.507675
0.494104
0.474488
0.452411
0.43199
0.416316
0.405925
0.398752
0.392899
0.388297
0.384611
0.381054
0.37703
0.498416
0.74627
0.820218
0.844786
0.956729
3.66086
3.93377
4.03314
4.0696
4.07214
4.03111
3.98178
1.50097
0.600212
0.838787
2.5396
3.14313
1.7277
1.20563
1.19513
1.24237
0.611824
0.673891
0.674996
0.675696
0.542329
0.578116
0.59613
0.491498
0.315362
0.301443
0.297304
0.289461
0.644474
1.65777
1.63779
1.6108
1.57135
1.53682
1.49672
1.28352
0.471674
0.596983
1.16033
0.928498
0.361974
0.382579
0.39624
1.43589
2.47222
2.4814
1.26496
0.305629
0.296507
0.295501
0.312848
0.340671
0.350353
0.361092
0.3674
0.37076
0.374994
0.382859
0.395028
0.409641
0.422845
0.431119
0.432453
0.426644
0.414974
0.400129
0.385775
0.374978
0.368682
0.365392
0.363027
0.361068
0.360058
0.360212
0.361065
0.362809
0.373612
0.691659
0.898476
0.839408
0.7911
1.37189
2.62521
4.02007
4.07604
4.03491
2.61491
0.477363
0.4568
0.548953
0.648883
0.807145
1.4146
1.25536
1.17023
1.16958
0.56704
0.536878
0.526039
0.653002
0.702419
0.66692
0.577386
0.358815
0.313514
0.301669
0.243144
0.1981
0.185586
1.60757
1.63886
1.61955
1.58494
1.54702
1.52135
1.39183
2.11969
2.4134
2.45134
2.52088
1.57456
0.426511
0.440365
0.504245
2.42475
2.52499
2.09384
0.333193
0.316298
0.303441
0.298772
0.300773
0.303204
0.301624
0.295575
0.287781
0.281993
0.281858
0.289893
0.305576
0.32388
0.339923
0.350572
0.35477
0.352971
0.346838
0.34016
0.336061
0.3353
0.336203
0.336624
0.336262
0.336392
0.337792
0.340503
0.345729
0.360209
0.403061
0.507548
0.647114
0.637256
0.551558
0.416947
0.347958
2.72215
4.09016
3.25107
0.50906
0.39518
0.46433
0.556103
0.68136
0.801725
1.35503
1.12803
1.11467
0.544377
0.515849
0.521683
0.541733
0.64713
0.644476
0.418494
0.357438
0.341558
0.295821
0.244146
0.147414
0.124605
1.33543
1.63332
1.6354
1.53159
0.666213
0.371745
0.284247
0.393034
2.03956
2.53047
2.59383
2.66861
2.08396
0.498876
0.51256
1.01963
2.59414
2.60434
0.593916
0.331536
0.307336
0.285347
0.266327
0.248767
0.229616
0.208236
0.186487
0.167577
0.156249
0.158486
0.177936
0.205609
0.233906
0.25801
0.275097
0.284615
0.287569
0.289382
0.294057
0.301768
0.309366
0.313329
0.314022
0.314011
0.314525
0.315637
0.317925
0.325757
0.641197
1.41992
1.79127
1.65482
1.35505
0.513427
0.120927
0.114166
0.14997
1.8764
2.4361
1.85435
0.385533
0.462909
0.576586
0.6904
1.28688
1.069
1.05345
0.533978
1.01063
1.34864
0.463442
0.44205
0.426888
0.383712
0.344623
0.352337
0.298585
0.207721
0.145885
0.131482
0.443299
1.29403
1.1602
0.368077
0.110364
0.0841372
0.075313
0.0709245
0.0744757
1.61704
2.67715
2.75035
2.82322
1.95032
0.572841
0.645005
2.58243
2.7368
0.979169
0.340509
0.304394
0.266125
0.226695
0.187189
0.146917
0.10539
0.0636897
0.024729
-0.00470468
-0.00891105
0.0315227
0.0750313
0.115232
0.16024
0.191836
0.212156
0.221558
0.229663
0.243294
0.262725
0.280814
0.289708
0.291501
0.290884
0.289741
0.287509
0.283569
0.27907
0.723954
1.91242
1.92042
1.86004
1.71231
1.57255
0.184996
-0.0440228
0.0096887
0.0466821
1.63426
1.9163
1.60739
0.396177
0.479784
0.591977
1.22442
1.28808
0.995685
0.683398
1.60867
1.59839
0.709453
0.390804
0.373829
0.352833
0.329688
0.350365
0.285673
0.209495
0.170868
0.141879
0.122017
0.185069
0.18793
0.178135
0.156608
0.129965
0.114556
0.111318
0.1158
0.13548
1.58007
2.83464
2.90842
2.93886
0.620259
0.664839
2.48653
2.97036
1.06658
0.345095
0.29643
0.242543
0.183245
0.120418
0.0554896
-0.0120088
-0.0816829
-0.150306
-0.207226
-0.228133
0.188831
1.01299
1.51911
0.880779
0.251031
0.148089
0.15287
0.160034
0.182033
0.216941
0.249169
0.262293
0.265528
0.26465
0.26247
0.257396
0.248286
0.233889
0.318304
1.34364
1.88653
1.814
1.65366
1.10259
-0.0573165
-0.17059
-0.11415
-0.0462922
0.0215242
0.411959
1.64608
1.52908
0.409093
0.502055
1.20924
1.33673
1.08454
0.651893
1.57561
1.56939
1.54851
0.419667
0.327499
0.319429
0.318255
0.345043
0.255284
0.226806
0.196734
0.171716
0.162822
0.180245
0.211026
0.213793
0.191937
0.162159
0.151149
0.154572
0.151993
0.16995
0.199268
2.10633
2.9749
3.03776
1.5846
0.707881
2.564
3.19694
1.40884
0.349144
0.287905
0.218045
0.138097
0.0493494
-0.0435479
-0.14195
-0.247073
-0.353317
-0.441884
-0.391055
1.79286
3.48133
3.59069
3.72528
3.07588
1.05168
0.108879
0.0835178
0.118279
0.1813
0.306941
0.230756
0.234554
0.233788
0.232294
0.226161
0.214767
0.196213
0.169105
0.146948
1.8818
1.81604
1.41437
-0.160118
-0.216683
-0.226064
-0.199974
-0.142409
-0.0617828
0.0179062
0.862503
1.61408
1.1663
0.427643
0.839819
1.30188
1.32861
0.451317
1.55333
1.52982
1.53595
0.786045
0.282349
0.289484
0.321071
0.340077
0.260048
0.239138
0.216685
0.197175
0.192532
0.206821
0.864848
1.3204
1.25367
0.920172
0.170722
0.172318
0.174103
0.185803
0.208567
0.327637
3.02268
3.07648
3.15205
0.582625
2.57803
3.34907
1.82578
0.357953
0.295309
0.217636
0.0925981
-0.0221715
-0.143646
-0.273029
-0.417594
-0.568069
-0.691091
-0.067259
3.13349
3.17318
3.31127
3.50394
3.70621
3.88542
2.12043
0.16585
0.0448255
0.627865
1.33882
0.593962
0.197553
0.198417
0.200083
0.194997
0.183543
0.164011
0.135252
0.148565
1.6225
1.85722
1.21872
-0.100387
-0.136653
0.570725
0.0544703
-0.180454
-0.131199
-0.0249066
0.0546625
0.826531
1.08483
0.552578
0.402174
1.23654
1.29953
0.345751
1.06504
1.52338
1.51272
0.74383
0.256695
0.275799
0.322489
0.344922
0.262532
0.246049
0.229141
0.21178
0.27678
1.62543
2.2505
2.18978
2.03618
0.411737
0.399674
1.05621
0.592123
0.19253
0.216018
0.239162
1.77432
3.10279
2.87621
0.451088
2.16777
3.40336
3.00593
0.374459
0.303817
0.216216
0.0548076
-0.0894254
-0.0945414
0.565285
0.0394652
-0.557539
-0.836155
-0.810198
1.85652
2.89194
3.03677
3.26051
3.51397
3.74466
3.86613
0.883384
0.00200479
1.28955
1.50489
1.57926
0.168201
0.161416
0.167864
0.165937
0.156058
0.137702
0.109913
0.0873937
0.490105
2.0032
1.93543
0.332627
-0.0456969
1.276
0.793409
-0.263647
-0.193786
-0.0698245
0.040282
0.093261
0.169764
0.396714
0.328934
0.596562
1.28493
0.311851
0.298548
0.95901
0.859112
0.377045
0.264895
0.28048
0.322534
0.341054
0.281409
0.247539
0.232013
0.216411
1.12698
2.33391
2.30206
1.95168
0.997351
0.766221
1.26573
1.26133
1.26204
0.986069
0.221145
0.244815
0.427944
1.92958
0.708266
0.388969
0.823159
3.45118
3.68875
2.57476
0.324765
0.209232
0.0283653
0.439077
1.87704
1.76516
1.33322
-0.658538
-0.95502
-1.14438
-1.02153
1.34326
2.84697
3.07716
3.34402
3.65358
2.74006
0.254379
-0.000426
1.37142
1.46141
1.55017
0.799284
0.126916
0.138452
0.141245
0.134277
0.118626
0.0934293
0.0569132
0.325695
2.24272
2.28439
0.727505
-0.0448513
1.26279
1.26065
0.263716
-0.213595
-0.110992
0.0266494
0.119691
0.17226
0.216225
0.307007
0.355994
0.788215
0.277595
0.269982
0.266028
0.254906
0.264128
0.283354
0.288708
0.303302
0.33145
0.273853
0.280707
0.29028
0.281162
1.68761
2.43016
1.53157
0.436221
0.958179
1.25165
1.25724
1.26715
0.896096
1.12845
1.15361
0.63138
0.40785
0.354677
0.35894
0.384466
0.381188
1.26309
3.71396
3.79999
2.91314
0.571831
0.0627875
0.690336
1.8999
1.7847
0.688151
-0.868383
-1.06375
-1.2293
-1.31353
-1.32995
0.47016
3.00751
3.27594
3.54249
0.540628
-0.175332
-0.104264
0.359666
1.43158
1.52772
1.48912
0.0985336
0.115367
0.123111
0.119774
0.107601
0.0859779
0.0537683
0.177292
1.23166
2.52245
1.16238
0.00843277
0.292915
1.08614
1.13722
1.15562
0.251053
0.0503583
1.94493
1.8301
0.207894
0.312627
0.362792
0.378766
0.251095
0.262292
0.260292
0.263591
0.272359
0.292068
0.277055
0.262033
0.307092
0.238182
0.262757
0.399621
0.392297
2.16381
2.5635
0.422356
0.163955
0.447356
0.753237
0.325681
0.117369
0.120209
0.371323
0.945946
1.08186
1.10974
1.13674
0.968282
0.475901
0.405147
0.40782
1.72923
3.82642
3.78159
3.4762
1.90655
0.995952
1.33341
1.79027
-0.16987
-0.940886
-1.126
-1.20325
-1.12624
-1.00787
-0.977017
2.56731
3.2007
3.52199
2.75333
-0.250414
-0.150007
-0.0773088
0.6721
1.51945
1.54882
0.080322
0.10136
0.113334
0.113644
0.105438
0.0882981
0.0613739
0.0181223
0.0196412
2.8151
5.28894
2.5668
1.03779
0.703964
0.718615
1.10323
0.388828
0.0452455
2.60165
5.70425
0.216986
0.322134
0.385851
0.404841
0.239283
0.247395
0.252614
0.255491
0.282978
0.282102
0.257184
0.235794
0.230471
0.213966
0.220311
0.316955
0.3755
2.57514
2.63359
1.45332
0.118923
0.061955
0.0426665
0.0546378
0.0744428
0.105447
0.14481
0.203035
0.536097
1.1094
1.31229
1.36291
1.3985
0.950239
0.445244
0.44293
3.28701
3.79107
3.65864
3.4681
3.20487
2.82883
1.65559
0.866043
-0.960983
-1.15281
-1.25947
-1.01463
-0.315685
-0.464781
2.57866
3.22222
3.4315
3.70819
0.312592
-0.176465
-0.0883147
-0.0269968
1.43059
1.74824
0.0744404
0.0965851
0.112427
0.116203
0.112137
0.0999066
0.0788362
0.043829
-0.00795957
1.81887
6.1752
6.06836
5.89158
1.84088
-0.0518922
-0.0141352
0.0689952
0.117378
3.48356
6.2014
0.246658
0.352211
0.423971
0.788253
0.235371
0.236649
0.240773
0.264948
0.272293
0.267858
0.230894
0.219351
0.209636
0.198098
0.185193
0.206854
0.259803
1.97626
2.65698
2.64511
1.86073
1.97648
1.71668
0.386914
0.0649986
0.0967255
0.13665
0.177517
0.208475
0.302986
0.602863
1.16979
1.40617
1.43048
1.1045
0.492326
0.545773
3.78217
3.66017
3.5019
3.28716
3.02817
2.15799
1.00296
-0.526675
-0.864121
-1.23537
-1.27302
-1.03784
-0.111001
0.70209
2.32561
3.41749
3.67757
3.61328
-0.178202
-0.0834777
-0.0156152
0.244432
2.04998
0.10204
0.101111
0.119381
0.126436
0.126419
0.119387
0.104603
0.0781314
0.035717
0.849278
6.42348
6.25224
6.0898
6.05296
3.83767
0.0318331
0.179726
0.292601
6.67839
6.66501
2.99965
0.406871
1.81992
3.20621
0.226431
0.226339
0.229037
0.262054
0.258758
0.231792
0.212515
0.204996
0.195446
0.183778
0.169795
0.163255
0.224224
0.662496
2.67467
2.66946
2.66407
2.66309
2.6875
2.61818
0.372107
0.0863517
0.123777
0.160627
0.188427
0.200545
0.197388
0.216294
1.18079
1.4179
1.43162
1.11084
0.61914
1.19991
3.68261
3.55122
3.36708
3.1507
2.92957
1.63815
0.306906
1.11252
1.61993
0.0703981
-0.772765
-0.699487
-0.522825
-0.344419
1.19427
3.72143
3.90451
0.0874718
-0.0632723
0.00992226
0.305614
2.12207
0.931478
0.113014
0.13139
0.142077
0.145907
0.14425
0.136406
0.119661
0.0890795
0.0962912
3.41387
6.51898
6.33172
6.22553
6.2571
3.71659
2.1007
6.07425
6.82189
6.8567
6.9569
6.14702
5.5879
2.22169
0.215863
0.228453
0.229742
0.22546
0.229658
0.206337
0.19998
0.192666
0.183366
0.171766
0.157883
0.142543
0.220542
0.0711018
1.12387
2.65477
2.70197
2.68588
2.70928
2.11119
0.165905
0.0765966
0.110042
0.140319
0.162665
0.172761
0.169679
0.163087
1.15497
1.39588
1.39113
1.36162
1.26008
0.407769
0.727402
3.38122
3.46485
3.29333
3.07564
2.81689
2.48555
2.13204
1.94585
1.96242
0.255121
-0.425539
-0.308411
-0.130518
0.0707508
3.45089
3.7556
0.23805
-0.0225495
0.0443032
1.24297
2.18578
2.28718
0.178912
0.145865
0.160041
0.167355
0.17052
0.169282
0.162354
0.146314
0.130491
1.01886
6.00943
6.67828
6.50763
6.47782
6.61578
6.83532
6.95319
6.96233
7.02462
6.94193
2.77841
1.59731
0.434133
0.205268
0.218194
0.219652
0.202487
0.19896
0.194729
0.189272
0.182143
0.173213
0.162159
0.148956
0.132817
0.12464
0.07649
0.0311364
0.23022
0.849298
1.65078
1.26925
0.430024
0.0602491
0.0716249
0.0988519
0.121541
0.138242
0.145973
0.142781
0.342019
1.35721
1.35236
1.28958
1.29413
1.23154
0.288845
-0.0358143
0.150611
0.739185
3.43907
3.19379
2.89968
2.63049
2.41606
2.23731
2.15889
2.28606
0.814075
-0.00892567
0.11755
0.285203
1.7302
2.31691
0.419541
0.0344754
0.0835256
1.49353
2.2602
2.34547
0.711585
0.161142
0.177422
0.187632
0.194301
0.197838
0.198087
0.19344
0.383959
0.728405
0.485036
3.4487
6.81955
5.47158
3.68892
5.27698
4.45383
2.46131
1.71859
0.723183
0.311207
0.347525