/*--------------------------------*- C++ -*----------------------------------*\
| =========                 |                                                 |
| \\      /  F ield         | OpenFOAM: The Open Source CFD Toolbox           |
|  \\    /   O peration     | Version:  2412                                  |
|   \\  /    A nd           | Website:  www.openfoam.com                      |
|    \\/     M anipulation  |                                                 |
\*---------------------------------------------------------------------------*/
FoamFile
{
    version     2.0;
    format      ascii;
    arch        "LSB;label=32;scalar=64";
    class       volVectorField;
    location    "7.7";
    object      U;
}
// * * * * * * * * * * * * * * * * * * * * * * * * * * * * * * * * * * * * * //

dimensions      [0 1 -1 0 0 0 0];

internalField   nonuniform List<vector> 
6400
(
(-0.00146958 0.000969924 0)
(-0.00281138 0.00051983 0)
(-0.00400475 0.00063078 0)
(-0.00569677 0.000730086 0)
(-0.0072408 0.000744756 0)
(-0.00880664 0.000738312 0)
(-0.0102325 0.000721458 0)
(-0.0115757 0.000688259 0)
(-0.0128096 0.000649926 0)
(-0.0139095 0.000600668 0)
(-0.0148948 0.000532136 0)
(-0.0157366 0.000446485 0)
(-0.016424 0.000370624 0)
(-0.0169709 0.000299739 0)
(-0.017363 0.000215983 0)
(-0.0175956 0.000126094 0)
(-0.0176438 2.27525e-05 0)
(-0.017501 -7.70572e-05 0)
(-0.0171705 -0.000177285 0)
(-0.0166587 -0.000264349 0)
(-0.0159832 -0.00033312 0)
(-0.0151722 -0.000379624 0)
(-0.0142673 -0.000395647 0)
(-0.0133071 -0.000374948 0)
(-0.0123328 -0.000320582 0)
(-0.0113854 -0.000253621 0)
(-0.0104794 -0.000203521 0)
(-0.00960989 -0.000193605 0)
(-0.00875646 -0.00021977 0)
(-0.00792167 -0.000265989 0)
(-0.00710654 -0.000297334 0)
(-0.00632616 -0.000301424 0)
(-0.00561474 -0.00030912 0)
(-0.00493775 -0.000365419 0)
(-0.00424016 -0.000486213 0)
(-0.00349147 -0.000627593 0)
(-0.00265931 -0.000796009 0)
(-0.00174073 -0.000940469 0)
(-0.0007323 -0.00106132 0)
(0.000357538 -0.0011409 0)
(0.00150002 -0.00117476 0)
(0.00265904 -0.00115538 0)
(0.00381452 -0.00107918 0)
(0.00493139 -0.000957579 0)
(0.00598142 -0.000814832 0)
(0.00696656 -0.000637728 0)
(0.00786918 -0.000479972 0)
(0.00870113 -0.000364786 0)
(0.00950693 -0.000304858 0)
(0.0103289 -0.000278211 0)
(0.0111698 -0.000250554 0)
(0.0120098 -0.000204975 0)
(0.0128236 -0.000165821 0)
(0.0136068 -0.000156222 0)
(0.0143849 -0.000182935 0)
(0.0151536 -0.000225894 0)
(0.0158911 -0.000246839 0)
(0.0165484 -0.000226556 0)
(0.0170773 -0.000168183 0)
(0.0174293 -8.1797e-05 0)
(0.0175666 2.82966e-05 0)
(0.0174901 0.000150969 0)
(0.0171968 0.000261774 0)
(0.0166781 0.000370608 0)
(0.0159767 0.000463692 0)
(0.0151208 0.000529543 0)
(0.0141411 0.000557448 0)
(0.0130869 0.0005895 0)
(0.0119692 0.000608077 0)
(0.0108141 0.000630322 0)
(0.00967342 0.000633977 0)
(0.00856152 0.000602447 0)
(0.00748417 0.000563786 0)
(0.00642394 0.000539326 0)
(0.00537789 0.000517088 0)
(0.00433567 0.000485069 0)
(0.00335283 0.000439254 0)
(0.0022775 0.000336309 0)
(0.00174084 0.000213096 0)
(0.00106618 0.000624512 0)
(-0.00167379 0.00339511 0)
(-0.00323978 0.00201785 0)
(-0.00477777 0.00236649 0)
(-0.00672446 0.00251052 0)
(-0.00843854 0.00241995 0)
(-0.0100789 0.00227213 0)
(-0.0115113 0.0020852 0)
(-0.0127859 0.00190417 0)
(-0.0138731 0.00171189 0)
(-0.014791 0.00151486 0)
(-0.0155959 0.00131095 0)
(-0.0162683 0.00110011 0)
(-0.0168195 0.000881352 0)
(-0.0172452 0.000654055 0)
(-0.0175002 0.000403255 0)
(-0.0176055 0.000145985 0)
(-0.0175438 -0.000128061 0)
(-0.0173192 -0.0004084 0)
(-0.0169302 -0.00068204 0)
(-0.0163573 -0.000941094 0)
(-0.0156121 -0.00117371 0)
(-0.0146991 -0.00136607 0)
(-0.0136334 -0.00151763 0)
(-0.0124284 -0.00161291 0)
(-0.0110909 -0.00165531 0)
(-0.00964703 -0.00165041 0)
(-0.0081429 -0.00162324 0)
(-0.00663334 -0.00156623 0)
(-0.00518125 -0.00149582 0)
(-0.00385864 -0.00141213 0)
(-0.0026968 -0.00130262 0)
(-0.00169055 -0.00117892 0)
(-0.000828308 -0.00105098 0)
(-0.00011488 -0.000950638 0)
(0.00043829 -0.000903837 0)
(0.000810818 -0.000891954 0)
(0.00101742 -0.000927237 0)
(0.00110526 -0.000964651 0)
(0.00108096 -0.00101617 0)
(0.00101399 -0.00107895 0)
(0.000936502 -0.00112617 0)
(0.000885934 -0.00115459 0)
(0.000918489 -0.0011723 0)
(0.00105608 -0.00117265 0)
(0.00136916 -0.00118297 0)
(0.00187 -0.00119162 0)
(0.00256421 -0.00121807 0)
(0.00346882 -0.00125575 0)
(0.0045296 -0.00132887 0)
(0.00571854 -0.00140886 0)
(0.00702212 -0.00146818 0)
(0.00841782 -0.00149292 0)
(0.00985976 -0.00149198 0)
(0.0113008 -0.00146084 0)
(0.0126765 -0.00141218 0)
(0.0139188 -0.0013307 0)
(0.0149918 -0.00119634 0)
(0.0158714 -0.000995694 0)
(0.016539 -0.000737818 0)
(0.0169855 -0.000435596 0)
(0.0172054 -0.000105523 0)
(0.0172013 0.000230424 0)
(0.0169955 0.000548061 0)
(0.0165928 0.000849072 0)
(0.0160106 0.00112352 0)
(0.0152568 0.00133722 0)
(0.0143707 0.00150185 0)
(0.0133781 0.00161667 0)
(0.0123204 0.00167263 0)
(0.0112834 0.00169764 0)
(0.0102639 0.00168493 0)
(0.00926266 0.00163352 0)
(0.00828309 0.00159737 0)
(0.0072903 0.00159414 0)
(0.00625894 0.00158707 0)
(0.0051612 0.00159455 0)
(0.00406271 0.00157256 0)
(0.00282591 0.00134664 0)
(0.00208266 0.000965854 0)
(0.00125812 0.00226945 0)
(-0.00164006 0.00589709 0)
(-0.00310104 0.00357649 0)
(-0.00453671 0.00416357 0)
(-0.00646461 0.00435685 0)
(-0.00816779 0.00414126 0)
(-0.00981897 0.00382571 0)
(-0.0112569 0.00344722 0)
(-0.0125475 0.00308828 0)
(-0.0137 0.00272957 0)
(-0.014693 0.00238246 0)
(-0.0155777 0.00205403 0)
(-0.0163276 0.00172135 0)
(-0.0169485 0.00137205 0)
(-0.0174491 0.000992196 0)
(-0.0177791 0.000582108 0)
(-0.0179398 0.000156779 0)
(-0.0179165 -0.000281561 0)
(-0.0177015 -0.000749244 0)
(-0.0172961 -0.00119588 0)
(-0.016699 -0.00163448 0)
(-0.0159178 -0.00204205 0)
(-0.0149683 -0.00239714 0)
(-0.0138751 -0.00269676 0)
(-0.0126657 -0.00293116 0)
(-0.0113676 -0.00309554 0)
(-0.0100195 -0.00318386 0)
(-0.00864733 -0.00319085 0)
(-0.00729541 -0.00310081 0)
(-0.00601362 -0.00293375 0)
(-0.00483272 -0.00270352 0)
(-0.00378065 -0.00243041 0)
(-0.00284013 -0.00215034 0)
(-0.00199609 -0.00188212 0)
(-0.00126441 -0.00162821 0)
(-0.000660441 -0.00139532 0)
(-0.000202181 -0.00121028 0)
(0.000153523 -0.00105932 0)
(0.000443753 -0.00097205 0)
(0.00065703 -0.000929232 0)
(0.00085159 -0.000946626 0)
(0.00105605 -0.000996828 0)
(0.0012785 -0.00108521 0)
(0.00157159 -0.00121647 0)
(0.00193839 -0.00139062 0)
(0.00241144 -0.00159285 0)
(0.00302787 -0.00184109 0)
(0.00380235 -0.00207338 0)
(0.00471883 -0.00230854 0)
(0.00573905 -0.00252085 0)
(0.00684962 -0.002709 0)
(0.00802922 -0.00286707 0)
(0.00926852 -0.00297668 0)
(0.0105589 -0.00300629 0)
(0.0118628 -0.00294165 0)
(0.0131353 -0.00278679 0)
(0.0143258 -0.00254588 0)
(0.0153889 -0.00222161 0)
(0.0162844 -0.00181825 0)
(0.016982 -0.00133852 0)
(0.0174623 -0.000806985 0)
(0.0177085 -0.000251707 0)
(0.017714 0.000301342 0)
(0.01748 0.000841683 0)
(0.0170116 0.00134539 0)
(0.0163246 0.00180572 0)
(0.0154589 0.00217546 0)
(0.0144546 0.00248131 0)
(0.0133345 0.00267072 0)
(0.0121755 0.00276406 0)
(0.0110374 0.00277239 0)
(0.00991133 0.0027128 0)
(0.00883506 0.00263801 0)
(0.00783597 0.00260905 0)
(0.00684546 0.00260484 0)
(0.00584548 0.00264235 0)
(0.00479462 0.00270467 0)
(0.0037401 0.00271612 0)
(0.0025945 0.00234165 0)
(0.0019707 0.00171769 0)
(0.00122638 0.00398452 0)
(-0.00170873 0.00824539 0)
(-0.00318065 0.00496922 0)
(-0.00460007 0.00581972 0)
(-0.00659424 0.00615635 0)
(-0.00837636 0.00585869 0)
(-0.0100945 0.00539337 0)
(-0.0115852 0.00486458 0)
(-0.012891 0.00435245 0)
(-0.0140486 0.00385589 0)
(-0.0150376 0.00338531 0)
(-0.0159312 0.00292247 0)
(-0.0166977 0.00247975 0)
(-0.0173443 0.00197835 0)
(-0.0178896 0.0014547 0)
(-0.0182677 0.00088089 0)
(-0.0184712 0.000268861 0)
(-0.0184938 -0.000378666 0)
(-0.0183067 -0.00104685 0)
(-0.0179058 -0.00170753 0)
(-0.0173034 -0.0023429 0)
(-0.0164916 -0.0029277 0)
(-0.0154913 -0.0034411 0)
(-0.0143376 -0.00386635 0)
(-0.0130629 -0.00418855 0)
(-0.0117037 -0.00439281 0)
(-0.0103046 -0.00448061 0)
(-0.00890389 -0.00444112 0)
(-0.00754888 -0.00429972 0)
(-0.00626653 -0.00407043 0)
(-0.0050777 -0.00374854 0)
(-0.00401732 -0.00337796 0)
(-0.00309958 -0.00298211 0)
(-0.00232438 -0.0025969 0)
(-0.00168955 -0.00223334 0)
(-0.0011782 -0.00191373 0)
(-0.000760349 -0.00166557 0)
(-0.000402734 -0.00147855 0)
(-5.97761e-05 -0.00137396 0)
(0.000287743 -0.00134163 0)
(0.000649937 -0.00137148 0)
(0.00104859 -0.00144622 0)
(0.0014715 -0.00156361 0)
(0.00192525 -0.00173137 0)
(0.00241634 -0.00195415 0)
(0.00296418 -0.00222656 0)
(0.00360774 -0.00254629 0)
(0.00434304 -0.00288479 0)
(0.00519065 -0.00322201 0)
(0.00617851 -0.00353158 0)
(0.00727605 -0.00378995 0)
(0.00846466 -0.00400186 0)
(0.00972779 -0.00414603 0)
(0.0110357 -0.00419541 0)
(0.0123494 -0.00414431 0)
(0.0136441 -0.0039653 0)
(0.0148774 -0.00365676 0)
(0.0159958 -0.00320892 0)
(0.0169502 -0.00263604 0)
(0.0177009 -0.00194719 0)
(0.0182152 -0.00118135 0)
(0.0184737 -0.000374422 0)
(0.0184602 0.000441953 0)
(0.0181685 0.00124247 0)
(0.0176114 0.0019959 0)
(0.0168074 0.00266855 0)
(0.0158165 0.00321251 0)
(0.0146878 0.00362828 0)
(0.0134464 0.00389017 0)
(0.0121888 0.00401023 0)
(0.0109612 0.00398661 0)
(0.0097719 0.00386618 0)
(0.00869247 0.00373481 0)
(0.00771611 0.00364156 0)
(0.00677386 0.00358985 0)
(0.00580367 0.00365917 0)
(0.00475518 0.00376929 0)
(0.00370903 0.00375866 0)
(0.00256597 0.00318673 0)
(0.00199625 0.00231578 0)
(0.00127658 0.00554805 0)
(-0.00184246 0.0108055 0)
(-0.00335742 0.00645398 0)
(-0.00479205 0.00760342 0)
(-0.00690268 0.00811107 0)
(-0.00882815 0.00772179 0)
(-0.0106383 0.00703636 0)
(-0.0121634 0.00630467 0)
(-0.0134536 0.00558829 0)
(-0.014584 0.00492765 0)
(-0.0155527 0.00433148 0)
(-0.0164101 0.00376525 0)
(-0.0171941 0.00320108 0)
(-0.0178951 0.00258547 0)
(-0.0184739 0.00192467 0)
(-0.0189113 0.00119129 0)
(-0.019168 0.000395803 0)
(-0.0192194 -0.000463184 0)
(-0.0190462 -0.0013442 0)
(-0.018635 -0.00224285 0)
(-0.0179863 -0.00309936 0)
(-0.0171092 -0.00388925 0)
(-0.0160227 -0.00458623 0)
(-0.014761 -0.00516646 0)
(-0.0133589 -0.00560051 0)
(-0.0118597 -0.00587647 0)
(-0.0103092 -0.00599322 0)
(-0.0087615 -0.00594243 0)
(-0.00728172 -0.00573706 0)
(-0.00587552 -0.0053824 0)
(-0.00459219 -0.00491926 0)
(-0.00349102 -0.0043841 0)
(-0.00256816 -0.00381747 0)
(-0.00182347 -0.00325242 0)
(-0.00125646 -0.00273513 0)
(-0.000846459 -0.00229582 0)
(-0.000540346 -0.0019673 0)
(-0.000278985 -0.00174674 0)
(-2.65567e-05 -0.00163336 0)
(0.000244722 -0.00163555 0)
(0.000555543 -0.0017018 0)
(0.000923302 -0.00181772 0)
(0.00131077 -0.00195034 0)
(0.00172076 -0.00214832 0)
(0.00216084 -0.0024129 0)
(0.0026548 -0.00275887 0)
(0.00323825 -0.00317004 0)
(0.00394335 -0.00365431 0)
(0.0047843 -0.00412245 0)
(0.00578174 -0.00458178 0)
(0.00692803 -0.00497623 0)
(0.00819681 -0.00529674 0)
(0.00957053 -0.00551667 0)
(0.0110085 -0.00561973 0)
(0.0124741 -0.00556 0)
(0.0139256 -0.00533516 0)
(0.0153073 -0.00492495 0)
(0.0165626 -0.00433483 0)
(0.0176394 -0.00356688 0)
(0.0184956 -0.00264668 0)
(0.0190894 -0.00161807 0)
(0.0193902 -0.000526189 0)
(0.0193729 0.000588063 0)
(0.0190357 0.00168406 0)
(0.0183947 0.00271192 0)
(0.0174642 0.00361673 0)
(0.0163179 0.00435583 0)
(0.01502 0.00490058 0)
(0.0136124 0.0052263 0)
(0.0121961 0.00534217 0)
(0.0108336 0.00525247 0)
(0.00958498 0.00502929 0)
(0.00851966 0.00477945 0)
(0.00759569 0.0045859 0)
(0.00674376 0.00453799 0)
(0.00585797 0.00465565 0)
(0.00483377 0.00485452 0)
(0.00376169 0.00487143 0)
(0.00258771 0.00407944 0)
(0.0020567 0.00293265 0)
(0.00136959 0.00725073 0)
(-0.00197309 0.0134945 0)
(-0.00352289 0.00798043 0)
(-0.00502724 0.00942937 0)
(-0.00728299 0.0102005 0)
(-0.00943409 0.00968833 0)
(-0.0113727 0.0087451 0)
(-0.012941 0.00775135 0)
(-0.014205 0.00678176 0)
(-0.0152445 0.00595936 0)
(-0.0161344 0.00525829 0)
(-0.0169881 0.00462052 0)
(-0.0177959 0.0039762 0)
(-0.018536 0.00327504 0)
(-0.0192005 0.0024719 0)
(-0.0197277 0.00156664 0)
(-0.0200587 0.000568941 0)
(-0.0201538 -0.000514126 0)
(-0.0200008 -0.0016594 0)
(-0.0195728 -0.00280926 0)
(-0.0188614 -0.00391056 0)
(-0.0178914 -0.00493727 0)
(-0.0166805 -0.00584565 0)
(-0.0152597 -0.00659444 0)
(-0.0136758 -0.00715307 0)
(-0.0119895 -0.00750425 0)
(-0.0102503 -0.00763906 0)
(-0.0085197 -0.007551 0)
(-0.00685406 -0.00726625 0)
(-0.00529621 -0.00676674 0)
(-0.0039087 -0.00614292 0)
(-0.00273509 -0.00542018 0)
(-0.00178585 -0.00465229 0)
(-0.00106393 -0.00387341 0)
(-0.000568504 -0.0031646 0)
(-0.000262519 -0.00258352 0)
(-8.59407e-05 -0.00216709 0)
(2.551e-05 -0.00190144 0)
(0.000119826 -0.00180469 0)
(0.000261118 -0.00184737 0)
(0.000467876 -0.00195561 0)
(0.000748882 -0.00212539 0)
(0.00105218 -0.0022787 0)
(0.00135015 -0.0024983 0)
(0.00168378 -0.00281896 0)
(0.00209593 -0.00323983 0)
(0.00260626 -0.00378459 0)
(0.00326785 -0.00440634 0)
(0.00410679 -0.005057 0)
(0.00513596 -0.00567914 0)
(0.00636285 -0.00623345 0)
(0.00774857 -0.00668827 0)
(0.00926527 -0.00700138 0)
(0.0108849 -0.00715838 0)
(0.0125451 -0.0071193 0)
(0.0141923 -0.00685932 0)
(0.0157767 -0.00635142 0)
(0.0172288 -0.00560675 0)
(0.0184929 -0.00463058 0)
(0.0195046 -0.00345562 0)
(0.0202154 -0.00212854 0)
(0.0205827 -0.000707128 0)
(0.020574 0.000758494 0)
(0.0201854 0.00220037 0)
(0.0194347 0.00354743 0)
(0.0183442 0.00473121 0)
(0.0169871 0.00570191 0)
(0.0154404 0.00638765 0)
(0.0137819 0.00676981 0)
(0.0121359 0.00684824 0)
(0.0105815 0.00664612 0)
(0.00923015 0.00625999 0)
(0.00818588 0.00577706 0)
(0.00740279 0.00542344 0)
(0.00672629 0.00537053 0)
(0.00595354 0.0055862 0)
(0.00497225 0.00591596 0)
(0.00383519 0.00599664 0)
(0.00261296 0.00494141 0)
(0.00210848 0.00350598 0)
(0.00146835 0.00903816 0)
(-0.00205763 0.0163225 0)
(-0.00360673 0.00960113 0)
(-0.00526861 0.0113691 0)
(-0.00774304 0.0125519 0)
(-0.010256 0.0118421 0)
(-0.0123739 0.0106043 0)
(-0.0139981 0.00920624 0)
(-0.0151614 0.00788659 0)
(-0.0160189 0.00688996 0)
(-0.0167838 0.00612155 0)
(-0.017577 0.00546686 0)
(-0.01843 0.00482281 0)
(-0.0192883 0.00405085 0)
(-0.0200716 0.00312931 0)
(-0.0207231 0.00205124 0)
(-0.0211641 0.000816161 0)
(-0.0213441 -0.000529535 0)
(-0.0212222 -0.00197944 0)
(-0.0207619 -0.00342615 0)
(-0.0199808 -0.00482215 0)
(-0.018896 -0.00612478 0)
(-0.017521 -0.00727189 0)
(-0.0159019 -0.00821944 0)
(-0.0140952 -0.00892361 0)
(-0.0121677 -0.00935838 0)
(-0.0101754 -0.00950948 0)
(-0.00820558 -0.00938091 0)
(-0.0063035 -0.00898021 0)
(-0.0045326 -0.00833795 0)
(-0.0029969 -0.00749552 0)
(-0.00173385 -0.00652564 0)
(-0.000748147 -0.0054763 0)
(-6.07594e-05 -0.00443403 0)
(0.000319119 -0.00348867 0)
(0.000453588 -0.00272052 0)
(0.00043801 -0.00217324 0)
(0.000344161 -0.0018816 0)
(0.000252454 -0.001811 0)
(0.000258132 -0.00192157 0)
(0.000345889 -0.00209862 0)
(0.000521144 -0.00232645 0)
(0.000753374 -0.00248124 0)
(0.000944223 -0.00271292 0)
(0.00114502 -0.00307271 0)
(0.001411 -0.00360672 0)
(0.00180475 -0.00431276 0)
(0.00239748 -0.00512424 0)
(0.00322105 -0.0060001 0)
(0.00429345 -0.0068377 0)
(0.00560725 -0.00759659 0)
(0.00714531 -0.00823253 0)
(0.00885935 -0.00867906 0)
(0.0106892 -0.00892094 0)
(0.012591 -0.00891723 0)
(0.0145102 -0.00862703 0)
(0.016367 -0.0080244 0)
(0.0180803 -0.00710833 0)
(0.0195831 -0.00589265 0)
(0.0207991 -0.00442599 0)
(0.0216597 -0.00274969 0)
(0.0221162 -0.000929373 0)
(0.0221265 0.000954072 0)
(0.0216734 0.00280706 0)
(0.0207803 0.00454425 0)
(0.019478 0.00607215 0)
(0.0178351 0.00730922 0)
(0.0159527 0.00817274 0)
(0.0139457 0.0086139 0)
(0.0119544 0.00861934 0)
(0.0101334 0.00822555 0)
(0.00861428 0.00753327 0)
(0.00758992 0.00670067 0)
(0.0070695 0.00607606 0)
(0.00673917 0.00597336 0)
(0.00620049 0.00641267 0)
(0.00526187 0.00701014 0)
(0.00396003 0.0072169 0)
(0.00262795 0.00579329 0)
(0.00209085 0.0040771 0)
(0.00155041 0.0108648 0)
(-0.0019914 0.0191305 0)
(-0.00355941 0.0113443 0)
(-0.00531989 0.0134872 0)
(-0.00820151 0.0153525 0)
(-0.0113388 0.0143036 0)
(-0.0137612 0.0126182 0)
(-0.0155086 0.0106114 0)
(-0.0164112 0.00878907 0)
(-0.0168866 0.0076131 0)
(-0.0174065 0.006879 0)
(-0.0181253 0.00632043 0)
(-0.0190636 0.00574463 0)
(-0.0200908 0.00498096 0)
(-0.0210619 0.00395607 0)
(-0.0219179 0.00268802 0)
(-0.0225269 0.00119478 0)
(-0.0228235 -0.000478668 0)
(-0.0227559 -0.00227398 0)
(-0.0222694 -0.00408948 0)
(-0.0214011 -0.00585036 0)
(-0.0201547 -0.00747808 0)
(-0.0185693 -0.00891286 0)
(-0.0167013 -0.0100918 0)
(-0.0146035 -0.0109688 0)
(-0.0123647 -0.0114999 0)
(-0.0100577 -0.0116695 0)
(-0.00776116 -0.0114895 0)
(-0.00555886 -0.0109508 0)
(-0.00353167 -0.0101104 0)
(-0.00178601 -0.00900213 0)
(-0.000386095 -0.00768933 0)
(0.000636563 -0.00628714 0)
(0.00124233 -0.00488456 0)
(0.00145995 -0.00364482 0)
(0.00137371 -0.00264941 0)
(0.00107583 -0.00195162 0)
(0.000702253 -0.00162733 0)
(0.000387548 -0.00162774 0)
(0.000211859 -0.0018579 0)
(0.000168215 -0.00213972 0)
(0.000264645 -0.00243811 0)
(0.000412206 -0.00258743 0)
(0.000473435 -0.00279674 0)
(0.000492494 -0.00317196 0)
(0.000560044 -0.00382362 0)
(0.00078869 -0.00470833 0)
(0.00126664 -0.00578942 0)
(0.00205674 -0.00693955 0)
(0.00317887 -0.00807274 0)
(0.00460626 -0.00910156 0)
(0.00632897 -0.00994869 0)
(0.00827967 -0.010583 0)
(0.010383 -0.010949 0)
(0.012594 -0.0109956 0)
(0.0148452 -0.0106953 0)
(0.0170525 -0.0100061 0)
(0.0191174 -0.00891124 0)
(0.0209374 -0.00742383 0)
(0.0224193 -0.00560822 0)
(0.0234886 -0.0035119 0)
(0.0240669 -0.00121711 0)
(0.0241066 0.00116497 0)
(0.0235884 0.00352209 0)
(0.0225173 0.00574383 0)
(0.0209231 0.00770085 0)
(0.0189064 0.00928102 0)
(0.016579 0.0103609 0)
(0.0140696 0.0108716 0)
(0.0115821 0.0107778 0)
(0.00933162 0.0100845 0)
(0.00755558 0.00887006 0)
(0.0065865 0.00746496 0)
(0.00651113 0.00633321 0)
(0.00684936 0.00620891 0)
(0.00672673 0.00709096 0)
(0.00578622 0.00815954 0)
(0.00408434 0.0086908 0)
(0.00248291 0.00670096 0)
(0.00197272 0.00462068 0)
(0.00149276 0.0126167 0)
(-0.00151304 0.0218869 0)
(-0.00386029 0.0132048 0)
(-0.00554969 0.0157558 0)
(-0.00858766 0.0187905 0)
(-0.0128011 0.0172856 0)
(-0.0156792 0.0148984 0)
(-0.0175833 0.0119003 0)
(-0.0179764 0.00926497 0)
(-0.017753 0.0079543 0)
(-0.0178699 0.00744044 0)
(-0.0184977 0.00719086 0)
(-0.0195611 0.00683698 0)
(-0.0208673 0.00614693 0)
(-0.0221542 0.00504022 0)
(-0.023289 0.00354557 0)
(-0.0241514 0.00174461 0)
(-0.0246331 -0.000329023 0)
(-0.0246432 -0.00254667 0)
(-0.0241419 -0.00481399 0)
(-0.0231617 -0.00701848 0)
(-0.021724 -0.00904023 0)
(-0.0198734 -0.0108186 0)
(-0.0176823 -0.0122638 0)
(-0.0152204 -0.0133372 0)
(-0.0125839 -0.013988 0)
(-0.00986958 -0.014187 0)
(-0.00715761 -0.0139453 0)
(-0.00455726 -0.0132562 0)
(-0.00218594 -0.0121541 0)
(-0.000149818 -0.010668 0)
(0.00141752 -0.00891484 0)
(0.00248664 -0.00703944 0)
(0.00299629 -0.00521235 0)
(0.00296931 -0.00356782 0)
(0.00258497 -0.00227283 0)
(0.0019331 -0.00142253 0)
(0.00116203 -0.00108289 0)
(0.000467799 -0.00120765 0)
(7.71966e-06 -0.00160204 0)
(-0.000123829 -0.00207231 0)
(9.53e-05 -0.00245607 0)
(0.000174196 -0.00255315 0)
(-2.01697e-05 -0.00268139 0)
(-0.000326407 -0.00304054 0)
(-0.000557545 -0.00379307 0)
(-0.000576897 -0.00493024 0)
(-0.000252931 -0.00636896 0)
(0.000494312 -0.00787949 0)
(0.00167008 -0.00939687 0)
(0.00326986 -0.010773 0)
(0.00522031 -0.0118971 0)
(0.00745107 -0.0127725 0)
(0.00990285 -0.0133114 0)
(0.012501 -0.0134535 0)
(0.0151781 -0.0131582 0)
(0.0178442 -0.0123787 0)
(0.0203668 -0.0110781 0)
(0.0226002 -0.00928756 0)
(0.0244339 -0.00705436 0)
(0.0257753 -0.00446035 0)
(0.0265215 -0.00160495 0)
(0.0266144 0.00138564 0)
(0.0260195 0.00436725 0)
(0.0247242 0.00719235 0)
(0.0227721 0.00969677 0)
(0.020263 0.0117243 0)
(0.0173239 0.0131024 0)
(0.0141321 0.0137382 0)
(0.0109165 0.0135353 0)
(0.00797914 0.0123925 0)
(0.00579796 0.0103955 0)
(0.00491582 0.00795579 0)
(0.00561891 0.00587325 0)
(0.00710664 0.00568682 0)
(0.00763531 0.00755229 0)
(0.00668061 0.00957176 0)
(0.0042309 0.0106915 0)
(0.00253475 0.00765557 0)
(0.00229729 0.00521756 0)
(0.00115172 0.0143084 0)
(-8.78391e-05 0.0244799 0)
(-0.00437172 0.0157942 0)
(-0.00772494 0.0180103 0)
(-0.00950042 0.0230068 0)
(-0.0149424 0.0213119 0)
(-0.018442 0.0176993 0)
(-0.0205802 0.012954 0)
(-0.0199815 0.00891427 0)
(-0.0184726 0.00761729 0)
(-0.0179283 0.00770747 0)
(-0.0184088 0.00812686 0)
(-0.0197289 0.00820146 0)
(-0.0214849 0.00767226 0)
(-0.0232565 0.00649643 0)
(-0.0248112 0.00473919 0)
(-0.0260196 0.00253275 0)
(-0.0267521 -2.26588e-05 0)
(-0.0268892 -0.00279062 0)
(-0.0263971 -0.00562312 0)
(-0.0252805 -0.00836729 0)
(-0.0235896 -0.0108735 0)
(-0.0214023 -0.0130615 0)
(-0.0188186 -0.014842 0)
(-0.015926 -0.0161398 0)
(-0.0128073 -0.0169275 0)
(-0.00957897 -0.017174 0)
(-0.00634404 -0.0168742 0)
(-0.00323335 -0.016004 0)
(-0.00037353 -0.0145647 0)
(0.00205604 -0.0125853 0)
(0.0038654 -0.0102889 0)
(0.00496357 -0.00776738 0)
(0.00534231 -0.00537656 0)
(0.00506936 -0.0032065 0)
(0.00425919 -0.00152093 0)
(0.00302087 -0.000431268 0)
(0.00150215 -6.24708e-05 0)
(6.66138e-05 -0.000340219 0)
(-0.000822337 -0.00110216 0)
(-0.000745521 -0.0020892 0)
(0.000206278 -0.00256212 0)
(0.000502057 -0.00229074 0)
(-0.000103248 -0.00215553 0)
(-0.0011291 -0.00251394 0)
(-0.0020276 -0.0034484 0)
(-0.0024797 -0.00492519 0)
(-0.00233068 -0.00676905 0)
(-0.00160435 -0.00880153 0)
(-0.000354283 -0.0108556 0)
(0.00146174 -0.0126572 0)
(0.00370564 -0.0141663 0)
(0.00627798 -0.015331 0)
(0.00915383 -0.0160831 0)
(0.0122506 -0.0163667 0)
(0.0154749 -0.0161071 0)
(0.0187217 -0.0152482 0)
(0.0218103 -0.0137468 0)
(0.0245643 -0.0115987 0)
(0.0268511 -0.00886688 0)
(0.0285467 -0.00566755 0)
(0.0295323 -0.00213413 0)
(0.0297124 0.00160875 0)
(0.0290255 0.00537381 0)
(0.0274577 0.00896958 0)
(0.0250633 0.0121829 0)
(0.0219354 0.0147885 0)
(0.0182118 0.0166172 0)
(0.0140949 0.0174684 0)
(0.00983539 0.0171294 0)
(0.00590258 0.0154107 0)
(0.00301557 0.012192 0)
(0.00207652 0.00779922 0)
(0.00416672 0.00389344 0)
(0.00830199 0.00372845 0)
(0.00983944 0.00766908 0)
(0.00864652 0.0115071 0)
(0.00514034 0.0130615 0)
(0.00462329 0.0082089 0)
(0.00309519 0.00631454 0)
(1.2409e-05 0.0160303 0)
(0.00338383 0.0259707 0)
(-0.00148321 0.0214714 0)
(-0.0119143 0.0201245 0)
(-0.0126316 0.0261404 0)
(-0.019217 0.0259127 0)
(-0.023813 0.0208284 0)
(-0.0262421 0.0133886 0)
(-0.0229683 0.00688703 0)
(-0.0182186 0.00593204 0)
(-0.0169873 0.00752958 0)
(-0.0178615 0.00914302 0)
(-0.0197865 0.00998097 0)
(-0.0222708 0.00975342 0)
(-0.0247906 0.00848963 0)
(-0.0269318 0.006394 0)
(-0.0284949 0.00366158 0)
(-0.029415 0.000494156 0)
(-0.0296151 -0.00297249 0)
(-0.0290601 -0.00651993 0)
(-0.0277458 -0.00993203 0)
(-0.0257389 -0.013026 0)
(-0.0231509 -0.01571 0)
(-0.0200808 -0.017883 0)
(-0.0166492 -0.0194567 0)
(-0.0129583 -0.0204232 0)
(-0.00911125 -0.0207429 0)
(-0.00522108 -0.0203811 0)
(-0.00143458 -0.019303 0)
(0.00208005 -0.0174283 0)
(0.00501252 -0.0148703 0)
(0.00717348 -0.0118182 0)
(0.00839251 -0.00854058 0)
(0.0086276 -0.00529097 0)
(0.0079775 -0.00242937 0)
(0.00645789 -0.000127683 0)
(0.00406502 0.00134165 0)
(0.00115174 0.00190654 0)
(-0.00129159 0.00129688 0)
(-0.00233907 -0.000565091 0)
(-0.00156952 -0.00285811 0)
(0.000423055 -0.00342643 0)
(0.0014208 -0.0019779 0)
(0.00062591 -0.000860199 0)
(-0.00138943 -0.0010232 0)
(-0.00350916 -0.00235654 0)
(-0.00488078 -0.00450348 0)
(-0.00520836 -0.00703023 0)
(-0.0046169 -0.0097936 0)
(-0.00316772 -0.0124304 0)
(-0.0010042 -0.0147826 0)
(0.00162207 -0.0167721 0)
(0.00465472 -0.0182964 0)
(0.00803416 -0.0193349 0)
(0.011704 -0.0198461 0)
(0.0155837 -0.0197085 0)
(0.0195285 -0.0188016 0)
(0.023346 -0.0170659 0)
(0.0268036 -0.014477 0)
(0.0296855 -0.0111601 0)
(0.0318308 -0.00722445 0)
(0.0331283 -0.00284657 0)
(0.0334658 0.00182438 0)
(0.0327452 0.00655869 0)
(0.0309603 0.0111141 0)
(0.0281361 0.0152206 0)
(0.0243526 0.0186072 0)
(0.0197159 0.0210564 0)
(0.0144264 0.0222511 0)
(0.00880339 0.0218275 0)
(0.00309066 0.0194387 0)
(-0.00229639 0.0145518 0)
(-0.00483122 0.00705433 0)
(0.000229584 -4.51922e-05 0)
(0.0120942 -2.71445e-05 0)
(0.0166403 0.00780563 0)
(0.0138101 0.0142518 0)
(0.00873552 0.014813 0)
(0.00937603 0.00908154 0)
(0.00159126 0.0102106 0)
(-0.0022264 0.0172112 0)
(0.00290426 0.0219127 0)
(0.00851785 0.0326199 0)
(-0.00923919 0.0296347 0)
(-0.0185009 0.0315748 0)
(-0.0256797 0.0327414 0)
(-0.0342694 0.0256745 0)
(-0.0376763 0.0125129 0)
(-0.0296569 0.000425202 0)
(-0.0168296 0.00180908 0)
(-0.0128941 0.00759239 0)
(-0.0159129 0.0110501 0)
(-0.0203119 0.012679 0)
(-0.0244003 0.0128049 0)
(-0.0280178 0.0113031 0)
(-0.0309328 0.0085547 0)
(-0.0328633 0.00503651 0)
(-0.0337555 0.00104282 0)
(-0.033704 -0.00325131 0)
(-0.032802 -0.00761038 0)
(-0.031108 -0.0118049 0)
(-0.0286836 -0.0156111 0)
(-0.0255614 -0.0188455 0)
(-0.0218098 -0.0214414 0)
(-0.0176476 -0.0233681 0)
(-0.0132372 -0.0245548 0)
(-0.00867611 -0.0249815 0)
(-0.00406347 -0.0246044 0)
(0.000543062 -0.0233099 0)
(0.0049103 -0.0209559 0)
(0.00862484 -0.0176652 0)
(0.0113562 -0.0136008 0)
(0.0128961 -0.00926841 0)
(0.0130403 -0.00488456 0)
(0.0117022 -0.000847176 0)
(0.00881952 0.00250441 0)
(0.00479278 0.00473557 0)
(0.000795043 0.00526597 0)
(-0.00184345 0.00328157 0)
(-0.00241757 -0.000651895 0)
(-0.00134339 -0.00472749 0)
(0.000361536 -0.00536712 0)
(0.00153251 -0.00224808 0)
(0.000972122 0.000904593 0)
(-0.0015064 0.00178349 0)
(-0.0048884 0.000215566 0)
(-0.00766892 -0.00310988 0)
(-0.00897556 -0.00697068 0)
(-0.00864679 -0.0109099 0)
(-0.00692187 -0.0143195 0)
(-0.00426842 -0.0173579 0)
(-0.00099853 -0.0198558 0)
(0.00268658 -0.0217743 0)
(0.0066834 -0.0231494 0)
(0.0109988 -0.023956 0)
(0.0156269 -0.0240322 0)
(0.0204495 -0.023148 0)
(0.0252513 -0.0211484 0)
(0.0296846 -0.0180605 0)
(0.033402 -0.0140326 0)
(0.0361596 -0.00922008 0)
(0.0378614 -0.0038355 0)
(0.0384982 0.00191153 0)
(0.0380168 0.00778429 0)
(0.036347 0.0135141 0)
(0.0333222 0.0187821 0)
(0.0288803 0.0232909 0)
(0.0231668 0.0266997 0)
(0.0163915 0.028588 0)
(0.00830842 0.0286995 0)
(-0.00209593 0.0270004 0)
(-0.0132837 0.0211283 0)
(-0.0167042 0.00655977 0)
(-0.00553965 -0.0117401 0)
(0.0142596 -0.0129742 0)
(0.0279346 0.00701698 0)
(0.0234213 0.019931 0)
(0.0159702 0.0183973 0)
(0.0100517 0.0157435 0)
(-0.00762814 0.0191251 0)
(-0.00471831 0.0148422 0)
(0.0100775 0.0147548 0)
(0.0277156 0.034178 0)
(0.0132059 0.0490897 0)
(-0.020385 0.0425767 0)
(-0.0344655 0.0414598 0)
(-0.0495027 0.0338692 0)
(-0.0561297 0.00973762 0)
(-0.0469659 -0.0133653 0)
(-0.0257775 -0.0106255 0)
(-0.00975943 0.00706672 0)
(-0.00988966 0.0167264 0)
(-0.0177853 0.0185338 0)
(-0.025557 0.0175914 0)
(-0.0312582 0.0153263 0)
(-0.0355643 0.0114469 0)
(-0.0387118 0.00657692 0)
(-0.0403059 0.00131718 0)
(-0.040215 -0.00398643 0)
(-0.0388866 -0.00920711 0)
(-0.036717 -0.0141607 0)
(-0.0336937 -0.0187639 0)
(-0.029756 -0.022713 0)
(-0.0250513 -0.0258724 0)
(-0.0198698 -0.0281385 0)
(-0.014524 -0.0294777 0)
(-0.00918403 -0.0299884 0)
(-0.00372156 -0.029644 0)
(0.00200651 -0.0282219 0)
(0.00768315 -0.0254953 0)
(0.012673 -0.0213058 0)
(0.0163294 -0.0160107 0)
(0.0182969 -0.0101067 0)
(0.018316 -0.00399034 0)
(0.016084 0.00191902 0)
(0.0119781 0.00678868 0)
(0.00736484 0.00944872 0)
(0.00378757 0.00859378 0)
(0.00211211 0.00435331 0)
(0.00142176 -0.00105079 0)
(0.000772469 -0.00574664 0)
(-0.000156083 -0.00631191 0)
(-0.00127514 -0.0025501 0)
(-0.00252958 0.00228985 0)
(-0.00474956 0.00491027 0)
(-0.00827726 0.00387323 0)
(-0.0117882 -0.000303968 0)
(-0.0138471 -0.00602737 0)
(-0.0137389 -0.0117942 0)
(-0.0115565 -0.0167034 0)
(-0.00805305 -0.0206303 0)
(-0.0036805 -0.0236454 0)
(0.00104488 -0.0259661 0)
(0.00590238 -0.0276698 0)
(0.010972 -0.0288104 0)
(0.0164359 -0.0292109 0)
(0.0223499 -0.0285235 0)
(0.0284969 -0.0264528 0)
(0.0343572 -0.022782 0)
(0.0393213 -0.0177422 0)
(0.0429302 -0.0117834 0)
(0.045146 -0.00526354 0)
(0.0462154 0.00160035 0)
(0.0461424 0.00869071 0)
(0.0444871 0.015847 0)
(0.0406808 0.0227565 0)
(0.0347505 0.0289821 0)
(0.0272105 0.0338289 0)
(0.0179969 0.0372374 0)
(0.00589206 0.0399478 0)
(-0.00897199 0.0400939 0)
(-0.019233 0.0282687 0)
(-0.0140254 -0.00160649 0)
(0.00386233 -0.0339873 0)
(0.0194146 -0.0364702 0)
(0.0343499 -0.00126316 0)
(0.0324864 0.0263525 0)
(0.0199651 0.0278608 0)
(-0.00762658 0.0335477 0)
(-0.0292128 0.0262909 0)
(-0.0121924 0.00513295 0)
(0.0237354 -0.0122237 0)
(0.0592582 0.0310696 0)
(0.0584713 0.0836647 0)
(0.00968955 0.0814067 0)
(-0.0341463 0.0623637 0)
(-0.0591212 0.0500009 0)
(-0.0759169 0.0101796 0)
(-0.0714411 -0.0308102 0)
(-0.053258 -0.0365261 0)
(-0.0266972 -0.00802647 0)
(-0.0109809 0.0178735 0)
(-0.0103148 0.0277388 0)
(-0.0171814 0.0264212 0)
(-0.0251935 0.0217898 0)
(-0.0328288 0.0165053 0)
(-0.0397883 0.00996613 0)
(-0.0449573 0.00252986 0)
(-0.0470979 -0.00461494 0)
(-0.0463742 -0.0110624 0)
(-0.043763 -0.0170764 0)
(-0.039752 -0.0227433 0)
(-0.0346048 -0.0277203 0)
(-0.0287478 -0.0315974 0)
(-0.0225043 -0.0340829 0)
(-0.016115 -0.0354175 0)
(-0.00945776 -0.0360215 0)
(-0.00211644 -0.0360076 0)
(0.0058829 -0.0348682 0)
(0.0138008 -0.0318773 0)
(0.0203896 -0.0266597 0)
(0.0246851 -0.0196263 0)
(0.026525 -0.0114187 0)
(0.025976 -0.0027689 0)
(0.023213 0.00531819 0)
(0.0191554 0.0112145 0)
(0.0154379 0.0130861 0)
(0.012933 0.0105052 0)
(0.0107305 0.00561045 0)
(0.00709356 0.00095832 0)
(0.00331202 -0.00314798 0)
(-0.000942272 -0.00323969 0)
(-0.00708015 0.00010718 0)
(-0.0121338 0.00442208 0)
(-0.0156848 0.00745669 0)
(-0.0188129 0.00702461 0)
(-0.0214598 0.00257037 0)
(-0.0225439 -0.00491994 0)
(-0.0212405 -0.012928 0)
(-0.0177514 -0.0199941 0)
(-0.0128981 -0.0252822 0)
(-0.00739059 -0.0289229 0)
(-0.00176493 -0.0315533 0)
(0.00376738 -0.0333744 0)
(0.0095143 -0.0347927 0)
(0.0161358 -0.0356629 0)
(0.0237682 -0.035448 0)
(0.0319963 -0.0334243 0)
(0.0399177 -0.0291291 0)
(0.0465138 -0.0227584 0)
(0.0513281 -0.0151523 0)
(0.0543823 -0.0071674 0)
(0.0557882 0.000947074 0)
(0.0551271 0.00953644 0)
(0.0513551 0.018952 0)
(0.0439793 0.0285702 0)
(0.0339269 0.0370191 0)
(0.0225746 0.0437787 0)
(0.010982 0.049979 0)
(0.000665586 0.054165 0)
(-0.00418543 0.048736 0)