/*--------------------------------*- C++ -*----------------------------------*\
| =========                 |                                                 |
| \\      /  F ield         | OpenFOAM: The Open Source CFD Toolbox           |
|  \\    /   O peration     | Version:  2412                                  |
|   \\  /    A nd           | Website:  www.openfoam.com                      |
|    \\/     M anipulation  |                                                 |
\*---------------------------------------------------------------------------*/
FoamFile
{
    version     2.0;
    format      ascii;
    arch        "LSB;label=32;scalar=64";
    class       volVectorField;
    location    "9.15";
    object      U;
}
// * * * * * * * * * * * * * * * * * * * * * * * * * * * * * * * * * * * * * //

dimensions      [0 1 -1 0 0 0 0];

internalField   nonuniform List<vector> 
6400
(
(4.32375e-07 -2.62534e-07 0)
(2.07304e-06 -2.78644e-07 0)
(3.96129e-06 -1.67139e-07 0)
(5.27179e-06 4.45746e-09 0)
(5.45253e-06 1.81227e-07 0)
(4.27037e-06 3.28111e-07 0)
(1.68415e-06 4.32046e-07 0)
(-2.23777e-06 4.95391e-07 0)
(-7.36803e-06 5.25338e-07 0)
(-1.35134e-05 5.18968e-07 0)
(-2.04657e-05 4.84226e-07 0)
(-2.79931e-05 4.23346e-07 0)
(-3.58953e-05 3.51769e-07 0)
(-4.3961e-05 2.67344e-07 0)
(-5.20345e-05 1.84739e-07 0)
(-5.99478e-05 9.77967e-08 0)
(-6.76103e-05 2.67656e-08 0)
(-7.4898e-05 -3.98513e-08 0)
(-8.17736e-05 -8.11751e-08 0)
(-8.81318e-05 -1.20266e-07 0)
(-9.39703e-05 -1.35335e-07 0)
(-9.91782e-05 -1.60748e-07 0)
(-0.00010377 -1.72128e-07 0)
(-0.000107605 -2.16044e-07 0)
(-0.000110702 -2.63504e-07 0)
(-0.000112873 -3.70107e-07 0)
(-0.000114137 -4.96238e-07 0)
(-0.000114253 -7.00125e-07 0)
(-0.000113244 -9.25943e-07 0)
(-0.000110823 -1.22934e-06 0)
(-0.000107044 -1.53721e-06 0)
(-0.000101617 -1.90192e-06 0)
(-9.46799e-05 -2.23889e-06 0)
(-8.59953e-05 -2.601e-06 0)
(-7.58436e-05 -2.90182e-06 0)
(-6.40867e-05 -3.19826e-06 0)
(-5.1164e-05 -3.41047e-06 0)
(-3.70393e-05 -3.59939e-06 0)
(-2.2276e-05 -3.69643e-06 0)
(-6.8998e-06 -3.76275e-06 0)
(8.46744e-06 -3.74197e-06 0)
(2.37904e-05 -3.69e-06 0)
(3.84552e-05 -3.56258e-06 0)
(5.24586e-05 -3.40731e-06 0)
(6.52493e-05 -3.19364e-06 0)
(7.68858e-05 -2.96098e-06 0)
(8.69213e-05 -2.69255e-06 0)
(9.54954e-05 -2.41768e-06 0)
(0.000102294 -2.12906e-06 0)
(0.000107549 -1.84436e-06 0)
(0.00011109 -1.56249e-06 0)
(0.000113231 -1.29004e-06 0)
(0.000113928 -1.02961e-06 0)
(0.000113534 -7.80132e-07 0)
(0.000112077 -5.48772e-07 0)
(0.000109877 -3.31397e-07 0)
(0.000106948 -1.37686e-07 0)
(0.0001035 3.99354e-08 0)
(9.94722e-05 1.91751e-07 0)
(9.49589e-05 3.247e-07 0)
(8.98578e-05 4.25892e-07 0)
(8.42125e-05 4.99478e-07 0)
(7.79514e-05 5.34853e-07 0)
(7.11451e-05 5.41246e-07 0)
(6.38102e-05 5.17589e-07 0)
(5.60914e-05 4.78384e-07 0)
(4.81067e-05 4.25155e-07 0)
(4.00644e-05 3.65884e-07 0)
(3.21419e-05 2.93714e-07 0)
(2.45629e-05 2.05708e-07 0)
(1.7516e-05 9.14603e-08 0)
(1.12102e-05 -5.0077e-08 0)
(5.82066e-06 -2.1937e-07 0)
(1.51911e-06 -4.08381e-07 0)
(-1.57188e-06 -6.1042e-07 0)
(-3.37262e-06 -8.1597e-07 0)
(-3.89014e-06 -1.01819e-06 0)
(-3.26202e-06 -1.19172e-06 0)
(-1.88353e-06 -1.21501e-06 0)
(-3.86553e-07 -7.8907e-07 0)
(8.26317e-07 -1.2768e-06 0)
(3.70999e-06 -1.98497e-06 0)
(6.36559e-06 -1.4234e-06 0)
(7.45552e-06 -5.36153e-08 0)
(5.97347e-06 1.74673e-06 0)
(1.41202e-06 3.67656e-06 0)
(-6.35275e-06 5.5458e-06 0)
(-1.72419e-05 7.25443e-06 0)
(-3.09946e-05 8.74087e-06 0)
(-4.7268e-05 9.99036e-06 0)
(-6.56068e-05 1.09865e-05 0)
(-8.55852e-05 1.1754e-05 0)
(-0.000106717 1.22934e-05 0)
(-0.000128618 1.26464e-05 0)
(-0.000150834 1.2806e-05 0)
(-0.00017307 1.28194e-05 0)
(-0.000194925 1.26631e-05 0)
(-0.000216206 1.23845e-05 0)
(-0.000236538 1.19289e-05 0)
(-0.000255801 1.13364e-05 0)
(-0.000273595 1.05164e-05 0)
(-0.000289849 9.51058e-06 0)
(-0.000304099 8.19845e-06 0)
(-0.000316304 6.63495e-06 0)
(-0.000325901 4.68035e-06 0)
(-0.000332883 2.42091e-06 0)
(-0.000336575 -2.8137e-07 0)
(-0.000337026 -3.28539e-06 0)
(-0.000333469 -6.70463e-06 0)
(-0.000326064 -1.03288e-05 0)
(-0.000314019 -1.42357e-05 0)
(-0.000297706 -1.8152e-05 0)
(-0.00027642 -2.21279e-05 0)
(-0.000250868 -2.58577e-05 0)
(-0.000220541 -2.93891e-05 0)
(-0.000186548 -3.24278e-05 0)
(-0.000148623 -3.50453e-05 0)
(-0.000108236 -3.69948e-05 0)
(-6.5305e-05 -3.83807e-05 0)
(-2.15341e-05 -3.90197e-05 0)
(2.30819e-05 -3.90408e-05 0)
(6.67722e-05 -3.83252e-05 0)
(0.000109568 -3.70136e-05 0)
(0.000149783 -3.50508e-05 0)
(0.000187555 -3.25831e-05 0)
(0.000221408 -2.96185e-05 0)
(0.000251652 -2.63048e-05 0)
(0.000277123 -2.27015e-05 0)
(0.000298338 -1.89418e-05 0)
(0.000314503 -1.51109e-05 0)
(0.000326347 -1.13117e-05 0)
(0.000333444 -7.63193e-06 0)
(0.000336673 -4.13371e-06 0)
(0.000335898 -8.9187e-07 0)
(0.000332032 2.069e-06 0)
(0.000325077 4.6911e-06 0)
(0.000315827 6.98416e-06 0)
(0.000304264 8.91862e-06 0)
(0.000290948 1.05358e-05 0)
(0.000275783 1.18244e-05 0)
(0.000259142 1.28272e-05 0)
(0.00024094 1.35276e-05 0)
(0.000221504 1.39573e-05 0)
(0.000200873 1.4103e-05 0)
(0.000179434 1.40001e-05 0)
(0.000157399 1.3648e-05 0)
(0.000135242 1.30802e-05 0)
(0.000113302 1.2291e-05 0)
(9.20874e-05 1.12926e-05 0)
(7.19855e-05 1.0066e-05 0)
(5.34746e-05 8.61239e-06 0)
(3.69317e-05 6.92505e-06 0)
(2.27679e-05 5.03016e-06 0)
(1.12856e-05 2.96683e-06 0)
(2.74002e-06 8.14706e-07 0)
(-2.77617e-06 -1.31959e-06 0)
(-5.32653e-06 -3.27172e-06 0)
(-5.24578e-06 -4.76902e-06 0)
(-3.33094e-06 -5.18252e-06 0)
(-6.78688e-07 -3.19282e-06 0)
(9.01556e-07 -2.34941e-06 0)
(3.53688e-06 -3.46527e-06 0)
(5.04678e-06 -1.90135e-06 0)
(4.01636e-06 1.50679e-06 0)
(-6.81364e-07 5.97529e-06 0)
(-9.62419e-06 1.08796e-05 0)
(-2.3e-05 1.57931e-05 0)
(-4.06914e-05 2.04366e-05 0)
(-6.24258e-05 2.46635e-05 0)
(-8.77214e-05 2.83698e-05 0)
(-0.000116072 3.15354e-05 0)
(-0.000146843 3.41251e-05 0)
(-0.0001795 3.61761e-05 0)
(-0.000213389 3.76665e-05 0)
(-0.000248039 3.86565e-05 0)
(-0.000282816 3.91071e-05 0)
(-0.000317358 3.90826e-05 0)
(-0.000351048 3.84992e-05 0)
(-0.000383624 3.74082e-05 0)
(-0.000414429 3.56624e-05 0)
(-0.00044327 3.33053e-05 0)
(-0.000469395 3.01365e-05 0)
(-0.000492667 2.62195e-05 0)
(-0.000512192 2.13264e-05 0)
(-0.000527894 1.5578e-05 0)
(-0.00053872 8.75547e-06 0)
(-0.00054469 1.07944e-06 0)
(-0.000544608 -7.61892e-06 0)
(-0.000538671 -1.6986e-05 0)
(-0.000525617 -2.71122e-05 0)
(-0.000505945 -3.75063e-05 0)
(-0.00047846 -4.81826e-05 0)
(-0.000444126 -5.85517e-05 0)
(-0.000401974 -6.85926e-05 0)
(-0.000353556 -7.76975e-05 0)
(-0.000298226 -8.58721e-05 0)
(-0.000238128 -9.25769e-05 0)
(-0.000172914 -9.78906e-05 0)
(-0.000105173 -0.000101399 0)
(-3.47332e-05 -0.000103261 0)
(3.55941e-05 -0.000103205 0)
(0.000105951 -0.000101455 0)
(0.000173538 -9.78823e-05 0)
(0.000238589 -9.27591e-05 0)
(0.000298521 -8.61017e-05 0)
(0.000353763 -7.82201e-05 0)
(0.00040213 -6.92621e-05 0)
(0.00044432 -5.95544e-05 0)
(0.000478678 -4.933e-05 0)
(0.000506207 -3.88867e-05 0)
(0.000525825 -2.84806e-05 0)
(0.000538796 -1.83398e-05 0)
(0.000544555 -8.69249e-06 0)
(0.000544504 3.22799e-07 0)
(0.000538447 8.52908e-06 0)
(0.000527751 1.58696e-05 0)
(0.000512387 2.22288e-05 0)
(0.000493509 2.7632e-05 0)
(0.000471086 3.2038e-05 0)
(0.000445983 3.5536e-05 0)
(0.000418153 3.81281e-05 0)
(0.000388283 3.99172e-05 0)
(0.000356426 4.09135e-05 0)
(0.000323239 4.12099e-05 0)
(0.000288954 4.0819e-05 0)
(0.000254265 3.9818e-05 0)
(0.000219569 3.82113e-05 0)
(0.000185578 3.60447e-05 0)
(0.000152779 3.3302e-05 0)
(0.000121854 3.00016e-05 0)
(9.33045e-05 2.61312e-05 0)
(6.77402e-05 2.17293e-05 0)
(4.56109e-05 1.68465e-05 0)
(2.73751e-05 1.1608e-05 0)
(1.32941e-05 6.19086e-06 0)
(3.50121e-06 8.74512e-07 0)
(-2.14215e-06 -3.9609e-06 0)
(-4.05489e-06 -7.70824e-06 0)
(-3.15093e-06 -9.1883e-06 0)
(-7.32798e-07 -5.87212e-06 0)
(8.23645e-07 -3.38205e-06 0)
(2.35041e-06 -4.2509e-06 0)
(1.56991e-06 -7.84549e-07 0)
(-2.80384e-06 5.62833e-06 0)
(-1.18024e-05 1.37966e-05 0)
(-2.59963e-05 2.27571e-05 0)
(-4.55124e-05 3.17979e-05 0)
(-7.02378e-05 4.04691e-05 0)
(-9.97832e-05 4.846e-05 0)
(-0.000133671 5.56195e-05 0)
(-0.000171218 6.18203e-05 0)
(-0.00021181 6.70495e-05 0)
(-0.000254663 7.12444e-05 0)
(-0.000299182 7.44529e-05 0)
(-0.000344556 7.66118e-05 0)
(-0.000390278 7.77881e-05 0)
(-0.000435539 7.78725e-05 0)
(-0.000479954 7.69216e-05 0)
(-0.000522674 7.4744e-05 0)
(-0.000563408 7.1377e-05 0)
(-0.000601189 6.6546e-05 0)
(-0.0006358 6.03026e-05 0)
(-0.000666097 5.2326e-05 0)
(-0.000691939 4.274e-05 0)
(-0.000711971 3.12329e-05 0)
(-0.000726166 1.80678e-05 0)
(-0.000732965 3.00503e-06 0)
(-0.000732541 -1.34939e-05 0)
(-0.000723201 -3.15446e-05 0)
(-0.000705466 -5.04604e-05 0)
(-0.000677646 -7.0217e-05 0)
(-0.000640804 -8.99331e-05 0)
(-0.000593447 -0.000109484 0)
(-0.000537366 -0.000127892 0)
(-0.000471421 -0.000145024 0)
(-0.000398201 -0.000159947 0)
(-0.00031696 -0.000172617 0)
(-0.000230969 -0.000182274 0)
(-0.000139763 -0.000189017 0)
(-4.70454e-05 -0.000192317 0)
(4.75377e-05 -0.000192417 0)
(0.000140151 -0.000189035 0)
(0.000231191 -0.000182532 0)
(0.000316967 -0.00017288 0)
(0.000398047 -0.000160544 0)
(0.000471135 -0.000145739 0)
(0.000537085 -0.000129014 0)
(0.000593216 -0.000110776 0)
(0.000640743 -9.159e-05 0)
(0.000677723 -7.19463e-05 0)
(0.000705721 -5.23327e-05 0)
(0.000723527 -3.32194e-05 0)
(0.000732948 -1.49535e-05 0)
(0.000733372 2.0889e-06 0)
(0.000726662 1.77184e-05 0)
(0.000712599 3.16692e-05 0)
(0.000692909 4.3888e-05 0)
(0.000667548 5.4229e-05 0)
(0.000637944 6.27705e-05 0)
(0.000604078 6.94868e-05 0)
(0.000567069 7.45431e-05 0)
(0.000526961 7.79773e-05 0)
(0.000484715 7.99692e-05 0)
(0.000440541 8.05676e-05 0)
(0.00039536 7.99272e-05 0)
(0.000349566 7.80818e-05 0)
(0.000304064 7.51384e-05 0)
(0.000259371 7.10993e-05 0)
(0.000216351 6.60215e-05 0)
(0.000175577 5.9894e-05 0)
(0.000137841 5.27724e-05 0)
(0.000103707 4.4703e-05 0)
(7.38413e-05 3.58299e-05 0)
(4.86888e-05 2.63503e-05 0)
(2.86506e-05 1.65969e-05 0)
(1.38427e-05 7.02218e-06 0)
(4.17207e-06 -1.7199e-06 0)
(-8.12415e-07 -8.68622e-06 0)
(-1.98146e-06 -1.20995e-05 0)
(-6.33495e-07 -8.25637e-06 0)
(6.79763e-07 -4.10478e-06 0)
(6.33361e-07 -3.78072e-06 0)
(-3.13996e-06 2.61803e-06 0)
(-1.16382e-05 1.30243e-05 0)
(-2.57027e-05 2.58235e-05 0)
(-4.57537e-05 3.97089e-05 0)
(-7.18698e-05 5.37315e-05 0)
(-0.000103789 6.72079e-05 0)
(-0.000141117 7.97292e-05 0)
(-0.0001832 9.09906e-05 0)
(-0.000229399 0.000100865 0)
(-0.000278863 0.000109209 0)
(-0.000330911 0.000116027 0)
(-0.000384619 0.000121215 0)
(-0.000439366 0.000124827 0)
(-0.000494197 0.000126723 0)
(-0.000548616 0.000126956 0)
(-0.000601641 0.000125299 0)
(-0.000652905 0.000121781 0)
(-0.000701313 0.000116065 0)
(-0.00074659 0.000108183 0)
(-0.00078744 9.77195e-05 0)
(-0.000823674 8.47772e-05 0)
(-0.00085374 6.89366e-05 0)
(-0.000877566 5.04615e-05 0)
(-0.000893323 2.90123e-05 0)
(-0.000901139 5.10477e-06 0)
(-0.000898958 -2.14415e-05 0)
(-0.000887259 -4.97997e-05 0)
(-0.000863889 -7.99453e-05 0)
(-0.000829889 -0.000110743 0)
(-0.000783214 -0.000141981 0)
(-0.000725713 -0.000172305 0)
(-0.000655668 -0.00020141 0)
(-0.000575893 -0.000227901 0)
(-0.000485121 -0.000251532 0)
(-0.000387093 -0.000271076 0)
(-0.000280933 -0.000286473 0)
(-0.000171062 -0.000296807 0)
(-5.68115e-05 -0.000302248 0)
(5.7062e-05 -0.000302242 0)
(0.000171202 -0.000297169 0)
(0.000280859 -0.000286852 0)
(0.000386798 -0.000271864 0)
(0.000484592 -0.000252408 0)
(0.000575256 -0.000229233 0)
(0.000654981 -0.000202886 0)
(0.000725164 -0.00017423 0)
(0.000782846 -0.000144027 0)
(0.000829847 -0.000113101 0)
(0.000864122 -8.22363e-05 0)
(0.000887828 -5.20881e-05 0)
(0.000899746 -2.33283e-05 0)
(0.000902186 3.62928e-06 0)
(0.000894542 2.82975e-05 0)
(0.000879052 5.0492e-05 0)
(0.000855491 6.99013e-05 0)
(0.000825847 8.653e-05 0)
(0.000790064 0.000100245 0)
(0.00074976 0.000111216 0)
(0.000704941 0.000119462 0)
(0.000656916 0.000125243 0)
(0.000605825 0.00012864 0)
(0.000552833 0.00012991 0)
(0.000498277 0.000129134 0)
(0.000443255 0.000126512 0)
(0.000388263 0.000122086 0)
(0.000334332 0.00011598 0)
(0.00028206 0.0001082 0)
(0.000232399 9.88309e-05 0)
(0.000185991 8.7908e-05 0)
(0.000143691 7.55789e-05 0)
(0.000106097 6.20235e-05 0)
(7.38721e-05 4.75793e-05 0)
(4.74093e-05 3.26939e-05 0)
(2.69881e-05 1.80321e-05 0)
(1.25331e-05 4.48079e-06 0)
(3.70485e-06 -6.6569e-06 0)
(-2.42797e-07 -1.30592e-05 0)
(-4.7089e-07 -9.89116e-06 0)
(4.96812e-07 -4.40322e-06 0)
(-1.38896e-06 -1.74828e-06 0)
(-8.57638e-06 8.74027e-06 0)
(-2.17167e-05 2.41769e-05 0)
(-4.13221e-05 4.2486e-05 0)
(-6.76622e-05 6.20887e-05 0)
(-0.000100603 8.17606e-05 0)
(-0.000139824 0.000100673 0)
(-0.000184721 0.00011822 0)
(-0.000234669 0.000134072 0)
(-0.000288795 0.000147947 0)
(-0.000346367 0.000159762 0)
(-0.000406393 0.000169354 0)
(-0.00046817 0.000176742 0)
(-0.00053065 0.000181756 0)
(-0.000593239 0.000184432 0)
(-0.000654858 0.000184511 0)
(-0.000715072 0.00018201 0)
(-0.000772719 0.000176543 0)
(-0.000827493 0.000168117 0)
(-0.00087803 0.000156236 0)
(-0.000924124 0.000140963 0)
(-0.00096412 0.000121764 0)
(-0.000997925 9.88695e-05 0)
(-0.00102355 7.18132e-05 0)
(-0.00104108 4.11089e-05 0)
(-0.0010482 6.46416e-06 0)
(-0.00104532 -3.12282e-05 0)
(-0.00102991 -7.20072e-05 0)
(-0.00100291 -0.000114561 0)
(-0.000961752 -0.000158651 0)
(-0.000908203 -0.000202598 0)
(-0.000839922 -0.000245948 0)
(-0.000759738 -0.000286825 0)
(-0.000665762 -0.000324735 0)
(-0.000561978 -0.000357881 0)
(-0.000446981 -0.000385948 0)
(-0.000325719 -0.000407485 0)
(-0.000197106 -0.00042249 0)
(-6.66782e-05 -0.000429989 0)
(6.65461e-05 -0.000430294 0)
(0.000196845 -0.000422942 0)
(0.000325258 -0.000408534 0)
(0.000446249 -0.000387138 0)
(0.00056105 -0.00035964 0)
(0.000664665 -0.000326627 0)
(0.000758668 -0.000289229 0)
(0.000838949 -0.000248454 0)
(0.000907557 -0.000205516 0)
(0.000961457 -0.000161575 0)
(0.00100313 -0.000117682 0)
(0.00103056 -7.48956e-05 0)
(0.00104649 -3.39622e-05 0)
(0.00104975 4.3028e-06 0)
(0.00104306 3.9503e-05 0)
(0.00102584 7.10996e-05 0)
(0.0010006 9.89814e-05 0)
(0.000967091 0.000122844 0)
(0.00092747 0.000142802 0)
(0.000881664 0.000158774 0)
(0.000831401 0.000171052 0)
(0.000776716 0.000179711 0)
(0.000719046 0.000185107 0)
(0.000658614 0.000187365 0)
(0.000596714 0.000186801 0)
(0.000533766 0.000183511 0)
(0.00047096 0.000177721 0)
(0.000408859 0.000169474 0)
(0.00034856 0.000158913 0)
(0.000290724 0.000146071 0)
(0.000236365 0.000131098 0)
(0.00018618 0.000114131 0)
(0.00014106 9.54794e-05 0)
(0.000101614 7.55365e-05 0)
(6.84745e-05 5.49218e-05 0)
(4.19583e-05 3.44459e-05 0)
(2.22039e-05 1.52489e-05 0)
(8.9742e-06 -1.07115e-06 0)
(1.79706e-06 -1.16541e-05 0)
(-2.87622e-07 -1.06217e-05 0)
(2.80267e-07 -4.21641e-06 0)
(-3.60335e-06 2.05643e-06 0)
(-1.4471e-05 1.79228e-05 0)
(-3.25565e-05 3.94745e-05 0)
(-5.80366e-05 6.41955e-05 0)
(-9.08727e-05 9.02083e-05 0)
(-0.000130789 0.000116122 0)
(-0.000177196 0.00014088 0)
(-0.000229463 0.000163828 0)
(-0.000286709 0.000184462 0)
(-0.000348164 0.000202556 0)
(-0.000412801 0.000217856 0)
(-0.000479853 0.000230328 0)
(-0.000548224 0.000239765 0)
(-0.000617245 0.000246186 0)
(-0.000685774 0.000249305 0)
(-0.000753311 0.000249124 0)
(-0.000818658 0.000245218 0)
(-0.000881489 0.00023757 0)
(-0.000940438 0.000225614 0)
(-0.000995306 0.000209371 0)
(-0.00104443 0.000188197 0)
(-0.00108772 0.000162265 0)
(-0.00112313 0.000130966 0)
(-0.00115073 9.47651e-05 0)
(-0.00116808 5.3217e-05 0)
(-0.00117553 7.2059e-06 0)
(-0.00117026 -4.34405e-05 0)
(-0.00115312 -9.73342e-05 0)
(-0.0011211 -0.000154302 0)
(-0.00107578 -0.000212441 0)
(-0.00101423 -0.000271235 0)
(-0.000939112 -0.000328381 0)
(-0.000847831 -0.000383149 0)
(-0.000744375 -0.000433125 0)
(-0.000626697 -0.00047765 0)
(-0.000500047 -0.000514604 0)
(-0.000362827 -0.000543683 0)
(-0.000221182 -0.000563343 0)
(-7.37102e-05 -0.000573718 0)
(7.30141e-05 -0.000573914 0)
(0.000220385 -0.00056446 0)
(0.000361819 -0.000545138 0)
(0.000498838 -0.000516871 0)
(0.000625259 -0.000480146 0)
(0.000742873 -0.000436273 0)
(0.000846309 -0.000386398 0)
(0.00093782 -0.000332109 0)
(0.00101323 -0.000274953 0)
(0.00107532 -0.000216468 0)
(0.00112116 -0.000158179 0)
(0.00115389 -0.000101269 0)
(0.00117162 -4.69894e-05 0)
(0.00117757 3.93444e-06 0)
(0.00117065 5.0631e-05 0)
(0.00115387 9.28118e-05 0)
(0.00112665 0.00012995 0)
(0.00109163 0.000162071 0)
(0.00104856 0.000188926 0)
(0.000999652 0.000210781 0)
(0.000944808 0.000227627 0)
(0.000885799 0.000239887 0)
(0.000822691 0.000247692 0)
(0.000756984 0.000251482 0)
(0.000688962 0.000251402 0)
(0.000619968 0.000247809 0)
(0.000550474 0.000240796 0)
(0.000481702 0.000230604 0)
(0.000414264 0.000217281 0)
(0.0003493 0.00020101 0)
(0.000287533 0.000181881 0)
(0.000230027 0.000160158 0)
(0.000177535 0.000136137 0)
(0.00013097 0.000110355 0)
(9.09554e-05 8.34974e-05 0)
(5.80973e-05 5.65661e-05 0)
(3.26496e-05 3.08716e-05 0)
(1.46715e-05 8.31555e-06 0)
(3.97126e-06 -7.76736e-06 0)
(-1.01437e-07 -1.04432e-05 0)
(3.85013e-08 -3.48101e-06 0)
(-5.95635e-06 7.8406e-06 0)
(-2.06474e-05 3.04652e-05 0)
(-4.38985e-05 5.93004e-05 0)
(-7.54174e-05 9.13037e-05 0)
(-0.000114905 0.000124402 0)
(-0.000161743 0.000156977 0)
(-0.000215226 0.000187906 0)
(-0.000274423 0.000216354 0)
(-0.000338499 0.00024187 0)
(-0.000406389 0.000264062 0)
(-0.000477272 0.000282816 0)
(-0.00055002 0.000297885 0)
(-0.000623909 0.000309268 0)
(-0.000697774 0.000316668 0)
(-0.000771054 0.000320078 0)
(-0.000842541 0.000319051 0)
(-0.000911883 0.000313547 0)
(-0.00097775 0.000302951 0)
(-0.00103996 0.000287236 0)
(-0.00109692 0.000265669 0)
(-0.00114856 0.00023835 0)
(-0.0011929 0.000204532 0)
(-0.00123002 0.000164597 0)
(-0.00125744 0.000117923 0)
(-0.00127552 6.53222e-05 0)
(-0.00128131 6.43197e-06 0)
(-0.00127555 -5.73827e-05 0)
(-0.00125494 -0.000126115 0)
(-0.00122088 -0.000197778 0)
(-0.00116989 -0.000271919 0)
(-0.00110438 -0.000345946 0)
(-0.00102102 -0.000418993 0)
(-0.000923558 -0.000488069 0)
(-0.000809185 -0.000552149 0)
(-0.000683186 -0.000608322 0)
(-0.000543335 -0.000655855 0)
(-0.000396193 -0.000692447 0)
(-0.000239865 -0.000717932 0)
(-8.16395e-05 -0.000730823 0)
(8.03086e-05 -0.000731485 0)
(0.000238446 -0.000719254 0)
(0.000394657 -0.000694973 0)
(0.000541608 -0.000658852 0)
(0.000681373 -0.000612256 0)
(0.00080729 -0.000556302 0)
(0.000921807 -0.000492849 0)
(0.00101944 -0.000423752 0)
(0.00110325 -0.000351067 0)
(0.00116923 -0.000276869 0)
(0.00122095 -0.000202887 0)
(0.00125569 -0.000130908 0)
(0.00127715 -6.20925e-05 0)
(0.00128362 2.23034e-06 0)
(0.00127865 6.14841e-05 0)
(0.00126119 0.000114828 0)
(0.00123438 0.000162159 0)
(0.00119761 0.000203016 0)
(0.00115357 0.000237608 0)
(0.00110197 0.000265775 0)
(0.00104498 0.000287948 0)
(0.00098248 0.0003042 0)
(0.00091623 0.000315068 0)
(0.000846314 0.000320724 0)
(0.000774235 0.000321663 0)
(0.000700308 0.000318035 0)
(0.00062587 0.000310213 0)
(0.000551425 0.00029828 0)
(0.000478202 0.000282492 0)
(0.000406871 0.000262916 0)
(0.000338606 0.000239793 0)
(0.000274205 0.000213307 0)
(0.000214786 0.000183873 0)
(0.000161171 0.000152004 0)
(0.00011432 0.000118525 0)
(7.49135e-05 8.45115e-05 0)
(4.35687e-05 5.14819e-05 0)
(2.05764e-05 2.15568e-05 0)
(6.20547e-06 -1.4169e-06 0)
(9.57694e-08 -9.42378e-06 0)
(-2.28687e-07 -2.09005e-06 0)
(-8.40446e-06 1.58394e-05 0)
(-2.70401e-05 4.67122e-05 0)
(-5.55775e-05 8.40125e-05 0)
(-9.32896e-05 0.000124192 0)
(-0.000139427 0.000164921 0)
(-0.000193145 0.000204517 0)
(-0.000253371 0.000241689 0)
(-0.00031913 0.000275656 0)
(-0.000389272 0.000305822 0)
(-0.000462887 0.000331953 0)
(-0.000538815 0.000353747 0)
(-0.000616276 0.000371183 0)
(-0.000694101 0.000383968 0)
(-0.000771686 0.000392104 0)
(-0.000847837 0.000395147 0)
(-0.000922168 0.000393051 0)
(-0.000993407 0.000385171 0)
(-0.00106139 0.000371447 0)
(-0.00112462 0.000351071 0)
(-0.0011831 0.000324076 0)
(-0.00123494 0.000289589 0)
(-0.0012803 0.000247895 0)
(-0.0013168 0.000198191 0)
(-0.00134479 0.00014118 0)
(-0.00136136 7.62745e-05 0)
(-0.00136721 4.73717e-06 0)
(-0.0013589 -7.36744e-05 0)
(-0.0013377 -0.000157022 0)
(-0.00129976 -0.000245072 0)
(-0.0012472 -0.000335129 0)
(-0.001176 -0.000426382 0)
(-0.00108953 -0.000515427 0)
(-0.000984068 -0.000600967 0)
(-0.000864635 -0.000679281 0)
(-0.000728209 -0.000749086 0)
(-0.000581506 -0.000807122 0)
(-0.000422062 -0.000852747 0)
(-0.000257722 -0.000883691 0)
(-8.61816e-05 -0.000900044 0)
(8.41955e-05 -0.000900545 0)
(0.000255725 -0.000885875 0)
(0.000419997 -0.000855776 0)
(0.000579424 -0.000811521 0)
(0.000726068 -0.000753973 0)
(0.000862617 -0.000685101 0)
(0.00098217 -0.000606887 0)
(0.00108799 -0.000521841 0)
(0.00117481 -0.000432588 0)
(0.00124664 -0.000341529 0)
(0.00129983 -0.000251114 0)
(0.00133863 -0.000163052 0)
(0.00136059 -7.92259e-05 0)
(0.00136984 -6.04536e-07 0)
(0.00136477 7.15318e-05 0)
(0.00134908 0.00013686 0)
(0.0013217 0.000194635 0)
(0.00128576 0.000244987 0)
(0.00124062 0.000287556 0)
(0.00118889 0.000322757 0)
(0.00113022 0.000350529 0)
(0.00106667 0.000371462 0)
(0.000998109 0.000385693 0)
(0.000926221 0.000393847 0)
(0.000851106 0.000396115 0)
(0.000774212 0.000393021 0)
(0.000695872 0.000384701 0)
(0.000617386 0.000371527 0)
(0.000539296 0.000353572 0)
(0.000462835 0.000331104 0)
(0.000388741 0.000304218 0)
(0.000318237 0.000273225 0)
(0.00025222 0.000238429 0)
(0.00019189 0.000200432 0)
(0.000138197 0.000160017 0)
(9.2219e-05 0.000118394 0)
(5.47716e-05 7.7167e-05 0)
(2.66188e-05 3.87158e-05 0)
(8.45013e-06 7.38055e-06 0)
(3.27572e-07 -7.60164e-06 0)
(-5.08779e-07 1.02289e-07 0)
(-1.09497e-05 2.63695e-05 0)
(-3.36277e-05 6.70405e-05 0)
(-6.76182e-05 0.000114041 0)
(-0.000111595 0.000163198 0)
(-0.000164426 0.000212057 0)
(-0.0002248 0.00025879 0)
(-0.00029149 0.000302183 0)
(-0.000363161 0.000341353 0)
(-0.000438741 0.000375887 0)
(-0.000516992 0.000405411 0)
(-0.000597053 0.000429877 0)
(-0.00067775 0.000449013 0)
(-0.000758435 0.000462844 0)
(-0.000837949 0.000470966 0)
(-0.000915879 0.00047335 0)
(-0.00099102 0.000469359 0)
(-0.00106321 0.000458915 0)
(-0.00113108 0.000441169 0)
(-0.00119469 0.000416093 0)
(-0.00125233 0.000382716 0)
(-0.00130422 0.000341224 0)
(-0.00134815 0.000290654 0)
(-0.00138456 0.000231579 0)
(-0.00141066 0.000163185 0)
(-0.00142719 8.65889e-05 0)
(-0.00143076 1.25711e-06 0)
(-0.00142258 -9.10242e-05 0)
(-0.00139865 -0.000190359 0)
(-0.00136087 -0.000294151 0)
(-0.00130475 -0.000401874 0)
(-0.00123316 -0.00050999 0)
(-0.00114154 -0.000617188 0)
(-0.00103428 -0.000719101 0)
(-0.000907338 -0.000813918 0)
(-0.000767183 -0.000897235 0)
(-0.000610646 -0.000967691 0)
(-0.000445911 -0.00102197 0)
(-0.000270173 -0.00105971 0)
(-9.24993e-05 -0.00107889 0)
(8.98868e-05 -0.00107994 0)
(0.000267594 -0.00106199 0)
(0.000443439 -0.00102614 0)
(0.000608231 -0.000972745 0)
(0.000764953 -0.000903672 0)
(0.00090525 -0.000820731 0)
(0.00103256 -0.000726718 0)
(0.00114012 -0.000624695 0)
(0.00123228 -0.000517792 0)
(0.00130433 -0.00040926 0)
(0.00136122 -0.000301549 0)
(0.0013997 -0.000197217 0)
(0.00142456 -9.77036e-05 0)
(0.00143354 -4.80853e-06 0)
(0.00143094 8.08376e-05 0)
(0.0014152 0.000158094 0)
(0.00138994 0.000226948 0)
(0.00135404 0.00028678 0)
(0.00131051 0.000337971 0)
(0.00125865 0.000380277 0)
(0.0012009 0.000414308 0)
(0.00113683 0.000440096 0)
(0.00106837 0.000458361 0)
(0.000995355 0.000469284 0)
(0.000919369 0.000473543 0)
(0.000840511 0.000471324 0)
(0.000760147 0.000463153 0)
(0.000678626 0.000449139 0)
(0.000597209 0.000429634 0)
(0.000516486 0.000404691 0)
(0.000437701 0.000374576 0)
(0.000361687 0.00033941 0)
(0.000289744 0.000299573 0)
(0.000222928 0.000255508 0)
(0.000162601 0.000208049 0)
(0.000109955 0.000158343 0)
(6.6304e-05 0.000108131 0)
(3.27843e-05 5.99559e-05 0)
(1.07082e-05 1.87445e-05 0)
(5.64853e-07 -4.92865e-06 0)
(-7.93819e-07 3.27979e-06 0)
(-1.36035e-05 3.97988e-05 0)
(-4.05239e-05 9.19302e-05 0)
(-8.01508e-05 0.000149822 0)
(-0.000130571 0.000208724 0)
(-0.000190032 0.000265976 0)
(-0.000256908 0.000319846 0)
(-0.000329533 0.000369083 0)
(-0.000406555 0.000413044 0)
(-0.000486573 0.000451256 0)
(-0.000568586 0.000483644 0)
(-0.000651384 0.000509971 0)
(-0.000734262 0.00053031 0)
(-0.000816096 0.000544327 0)
(-0.000896449 0.000552044 0)
(-0.000974197 0.000552873 0)
(-0.00104917 0.00054675 0)
(-0.00112014 0.000532821 0)
(-0.00118719 0.000511021 0)
(-0.00124882 0.000480312 0)
(-0.00130531 0.000440794 0)
(-0.00135472 0.000391374 0)
(-0.00139754 0.000332496 0)
(-0.00143125 0.000263147 0)
(-0.00145663 0.000184282 0)
(-0.00147052 9.50858e-05 0)
(-0.00147415 -2.85535e-06 0)
(-0.00146364 -0.000110034 0)
(-0.00144077 -0.000224095 0)
(-0.00140092 -0.000344992 0)
(-0.00134657 -0.000469367 0)
(-0.00127247 -0.000596274 0)
(-0.00118225 -0.000721111 0)
(-0.00107067 -0.000841844 0)
(-0.000943389 -0.000952975 0)
(-0.000796179 -0.00105219 0)
(-0.000637196 -0.00113471 0)
(-0.000463083 -0.00119946 0)
(-0.000283438 -0.00124338 0)
(-9.50332e-05 -0.00126653 0)
(9.18345e-05 -0.00126726 0)
(0.000280377 -0.00124644 0)
(0.000460207 -0.00120379 0)
(0.000634639 -0.00114095 0)
(0.00079387 -0.00105918 0)
(0.000941514 -0.000961207 0)
(0.00106915 -0.000850226 0)
(0.00118129 -0.000730065 0)
(0.0012719 -0.000604859 0)
(0.00134663 -0.00047803 0)
(0.00140152 -0.000353051 0)
(0.00144222 -0.000231999 0)
(0.0014658 -0.000117254 0)
(0.00147725 -9.76963e-06 0)
(0.0014744 8.88673e-05 0)
(0.00146146 0.000178442 0)
(0.00143679 0.000257986 0)
(0.00140381 0.000327799 0)
(0.00136132 0.000387394 0)
(0.00131211 0.000437384 0)
(0.00125541 0.000477633 0)
(0.00119341 0.000508923 0)
(0.00112565 0.000531357 0)
(0.00105386 0.000545746 0)
(0.000977885 0.000552287 0)
(0.000899156 0.000551679 0)
(0.000817781 0.00054408 0)
(0.000735032 0.000529987 0)
(0.000651289 0.000509458 0)
(0.000567773 0.000482798 0)
(0.000485138 0.000450011 0)
(0.000404658 0.000411331 0)
(0.000327307 0.000366884 0)
(0.000254536 0.000317116 0)
(0.000187672 0.000262637 0)
(0.000128399 0.000204596 0)
(7.83202e-05 0.000144667 0)
(3.92217e-05 8.56137e-05 0)
(1.29927e-05 3.29234e-05 0)
(7.46159e-07 -1.27612e-06 0)
(-1.07166e-06 7.64959e-06 0)
(-1.64555e-05 5.66023e-05 0)
(-4.79326e-05 0.000121928 0)
(-9.35786e-05 0.000191913 0)
(-0.000150631 0.00026111 0)
(-0.000216775 0.000326867 0)
(-0.000289806 0.000387486 0)
(-0.0003679 0.000442039 0)
(-0.000449357 0.000489942 0)
(-0.000532946 0.000531106 0)
(-0.000617371 0.000565368 0)
(-0.000701833 0.000592881 0)
(-0.000785233 0.000613423 0)
(-0.000867101 0.000627101 0)
(-0.000946399 0.000633425 0)
(-0.00102295 0.000632375 0)
(-0.00109565 0.000623144 0)
(-0.0011646 0.000605656 0)
(-0.00122852 0.000578851 0)
(-0.00128773 0.00054276 0)
(-0.00134056 0.000496199 0)
(-0.00138758 0.000439498 0)
(-0.00142658 0.000371486 0)
(-0.00145843 0.000292965 0)
(-0.00148029 0.000202883 0)
(-0.00149346 0.00010263 0)
(-0.00149438 -8.64387e-06 0)
(-0.0014849 -0.000128868 0)
(-0.00146055 -0.000258546 0)
(-0.00142372 -0.000394728 0)
(-0.00136889 -0.000537179 0)
(-0.00129905 -0.00068161 0)
(-0.0012079 -0.000826387 0)
(-0.0010998 -0.000965477 0)
(-0.00096893 -0.00109579 0)
(-0.00082261 -0.00121067 0)
(-0.000656693 -0.00130772 0)
(-0.000481063 -0.00138243 0)
(-0.000291989 -0.00143429 0)
(-0.000100506 -0.0014606 0)
(9.68798e-05 -0.00146186 0)
(0.000288527 -0.00143703 0)
(0.000477984 -0.00138751 0)
(0.000654012 -0.00131392 0)
(0.000820492 -0.00121861 0)
(0.000967258 -0.00110422 0)
(0.00109878 -0.000974886 0)
(0.00120735 -0.000835628 0)
(0.00129913 -0.000691117 0)
(0.00136935 -0.000546055 0)
(0.00142485 -0.000403477 0)
(0.00146224 -0.000266544 0)
(0.00148744 -0.000136585 0)
(0.0014976 -1.56022e-05 0)
(0.0014976 9.60357e-05 0)
(0.00148515 0.00019699 0)
(0.00146417 0.00028745 0)
(0.00143289 0.000366603 0)
(0.00139443 0.00043503 0)
(0.00134752 0.000492353 0)
(0.00129465 0.00053939 0)
(0.00123498 0.000576089 0)
(0.00117045 0.000603367 0)
(0.00110057 0.000621366 0)
(0.00102688 0.000630952 0)
(0.000949208 0.00063231 0)
(0.00086885 0.000626121 0)
(0.000785927 0.000612487 0)
(0.000701619 0.000591838 0)
(0.000616341 0.000564144 0)
(0.000531274 0.000529609 0)
(0.000447159 0.00048814 0)
(0.000365348 0.00043989 0)
(0.000287046 0.000384954 0)
(0.000213994 0.000323841 0)
(0.000147997 0.000257393 0)
(9.12878e-05 0.000187233 0)
(4.61808e-05 0.000116159 0)
(1.54436e-05 5.03157e-05 0)
(8.31775e-07 3.5138e-06 0)
(-1.35689e-06 1.34838e-05 0)
(-1.96692e-05 7.73797e-05 0)
(-5.63121e-05 0.000157791 0)
(-0.000108535 0.000240922 0)
(-0.000172616 0.000320786 0)
(-0.000245391 0.000394729 0)
(-0.000324277 0.00046148 0)
(-0.000407037 0.000520339 0)
(-0.000492064 0.000571241 0)
(-0.000577888 0.000614161 0)
(-0.000663585 0.000649407 0)
(-0.00074806 0.000676937 0)
(-0.000830802 0.000696995 0)
(-0.000910852 0.000709235 0)
(-0.000988017 0.000713725 0)
(-0.00106133 0.000709751 0)
(-0.0011309 0.000697261 0)
(-0.00119561 0.000675219 0)
(-0.00125584 0.000643613 0)
(-0.00131017 0.000601214 0)
(-0.00135923 0.000548255 0)
(-0.00140115 0.000483454 0)
(-0.00143687 0.00040748 0)
(-0.00146393 0.000319105 0)
(-0.00148373 0.000219558 0)
(-0.00149314 0.000107714 0)
(-0.00149413 -1.45895e-05 0)
(-0.00148273 -0.000148331 0)
(-0.00146145 -0.000291001 0)
(-0.00142507 -0.000443207 0)
(-0.0013764 -0.000601386 0)
(-0.00130864 -0.000764998 0)
(-0.00122498 -0.00092847 0)
(-0.00111773 -0.00108892 0)
(-0.000992183 -0.00123827 0)
(-0.000842446 -0.00137217 0)
(-0.000678103 -0.00148355 0)
(-0.000494933 -0.0015709 0)
(-0.00030427 -0.00163026 0)
(-0.000102191 -0.00166144 0)
(9.83488e-05 -0.00166219 0)
(0.000300678 -0.00163358 0)
(0.000491754 -0.00157557 0)
(0.000675596 -0.00149039 0)
(0.000840532 -0.00137986 0)
(0.000991051 -0.00124743 0)
(0.00111719 -0.0010982 0)
(0.00122521 -0.000938351 0)
(0.0013093 -0.000774325 0)
(0.00137762 -0.000610644 0)
(0.0014266 -0.000451595 0)
(0.00146364 -0.000299082 0)
(0.00148543 -0.000155563 0)
(0.00149764 -2.14688e-05 0)
(0.00149725 0.00010159 0)
(0.00148871 0.000213779 0)
(0.00146954 0.00031395 0)
(0.00144322 0.000402627 0)
(0.00140788 0.000479112 0)
(0.00136627 0.000544211 0)
(0.00131708 0.000597637 0)
(0.00126246 0.000640363 0)
(0.00120154 0.000672404 0)
(0.00113601 0.000694761 0)