/*--------------------------------*- C++ -*----------------------------------*\
| =========                 |                                                 |
| \\      /  F ield         | OpenFOAM: The Open Source CFD Toolbox           |
|  \\    /   O peration     | Version:  2412                                  |
|   \\  /    A nd           | Website:  www.openfoam.com                      |
|    \\/     M anipulation  |                                                 |
\*---------------------------------------------------------------------------*/
FoamFile
{
    version     2.0;
    format      ascii;
    arch        "LSB;label=32;scalar=64";
    class       volScalarField;
    location    "9.8";
    object      p;
}
// * * * * * * * * * * * * * * * * * * * * * * * * * * * * * * * * * * * * * //

dimensions      [1 -1 -2 0 0 0 0];

internalField   nonuniform List<scalar> 
6400
(
13655.7
13655.6
13654.8
13653.4
13651.6
13649.4
13647
13644.7
13642.3
13640.1
13638.1
13636.3
13634.7
13633.5
13632.6
13632.1
13631.9
13632
13632.6
13633.5
13634.7
13636.3
13638.2
13640.5
13643
13645.7
13648.7
13651.9
13655.1
13658.5
13661.8
13665
13668.1
13671
13673.7
13676
13677.9
13679.5
13680.6
13681.2
13681.3
13680.9
13680.1
13678.8
13677
13674.9
13672.4
13669.5
13666.4
13663.2
13659.8
13656.4
13653
13649.7
13646.6
13643.7
13641
13638.6
13636.5
13634.8
13633.4
13632.5
13631.9
13631.7
13632
13632.7
13633.7
13635.1
13636.8
13638.8
13641.1
13643.6
13646.2
13648.8
13651.4
13653.7
13655.7
13657.2
13657.9
13658
12959.4
12959.3
12958.6
12957.4
12955.8
12953.9
12951.8
12949.7
12947.6
12945.6
12943.7
12942.1
12940.7
12939.5
12938.7
12938.1
12937.9
12938
12938.4
12939.1
12940.2
12941.5
12943.2
12945.1
12947.3
12949.7
12952.3
12955
12957.8
12960.7
12963.5
12966.3
12969
12971.5
12973.8
12975.8
12977.4
12978.8
12979.7
12980.2
12980.3
12980
12979.3
12978.2
12976.7
12974.9
12972.8
12970.3
12967.7
12964.9
12962
12959.1
12956.1
12953.3
12950.5
12948
12945.6
12943.6
12941.8
12940.3
12939.1
12938.3
12937.9
12937.8
12938.1
12938.7
12939.7
12941
12942.6
12944.5
12946.5
12948.8
12951.1
12953.5
12955.7
12957.8
12959.5
12960.8
12961.5
12961.6
12263.6
12263.5
12262.8
12261.7
12260.2
12258.5
12256.7
12254.8
12253
12251.2
12249.5
12248
12246.7
12245.7
12244.8
12244.3
12244
12244
12244.3
12244.8
12245.6
12246.7
12248.1
12249.7
12251.5
12253.5
12255.6
12257.9
12260.2
12262.6
12264.9
12267.2
12269.4
12271.5
12273.4
12275
12276.4
12277.4
12278.2
12278.7
12278.8
12278.5
12278
12277.1
12275.9
12274.4
12272.7
12270.7
12268.5
12266.2
12263.8
12261.4
12259
12256.6
12254.3
12252.2
12250.2
12248.5
12247
12245.8
12244.9
12244.2
12243.9
12243.9
12244.2
12244.9
12245.8
12247.1
12248.6
12250.3
12252.1
12254.2
12256.3
12258.4
12260.4
12262.2
12263.8
12265
12265.6
12265.9
11568.5
11568.2
11567.5
11566.3
11564.9
11563.4
11561.7
11559.9
11558.2
11556.6
11555
11553.6
11552.4
11551.3
11550.5
11550
11549.6
11549.5
11549.7
11550.1
11550.7
11551.6
11552.7
11553.9
11555.4
11557
11558.8
11560.7
11562.6
11564.5
11566.5
11568.4
11570.2
11571.9
11573.4
11574.7
11575.8
11576.7
11577.3
11577.7
11577.8
11577.6
11577.2
11576.5
11575.6
11574.4
11573
11571.4
11569.6
11567.7
11565.7
11563.7
11561.7
11559.8
11557.9
11556.1
11554.5
11553.1
11551.9
11550.9
11550.2
11549.7
11549.6
11549.6
11550
11550.7
11551.6
11552.8
11554.2
11555.8
11557.5
11559.4
11561.3
11563.2
11565.1
11566.9
11568.4
11569.6
11570.4
11570.8
10874.1
10873.5
10872.6
10871.3
10869.9
10868.3
10866.7
10865
10863.4
10861.8
10860.3
10859
10857.8
10856.8
10856
10855.4
10855
10854.8
10854.8
10855.1
10855.5
10856.2
10857
10858
10859.2
10860.5
10861.9
10863.4
10865
10866.6
10868.2
10869.7
10871.1
10872.5
10873.7
10874.7
10875.6
10876.3
10876.8
10877.1
10877.2
10877.1
10876.8
10876.2
10875.5
10874.6
10873.5
10872.2
10870.8
10869.3
10867.7
10866.1
10864.5
10862.9
10861.4
10859.9
10858.6
10857.5
10856.5
10855.8
10855.3
10855
10854.9
10855.1
10855.5
10856.2
10857.1
10858.3
10859.6
10861.1
10862.7
10864.5
10866.3
10868.2
10870
10871.7
10873.3
10874.6
10875.6
10876.2
10180
10179.2
10178
10176.5
10175
10173.4
10171.7
10170.1
10168.5
10166.9
10165.5
10164.2
10163
10162
10161.2
10160.6
10160.1
10159.8
10159.7
10159.8
10160.1
10160.6
10161.2
10162
10162.9
10163.9
10165
10166.2
10167.4
10168.6
10169.9
10171.1
10172.2
10173.2
10174.2
10174.9
10175.6
10176.1
10176.5
10176.7
10176.8
10176.7
10176.5
10176.2
10175.6
10175
10174.1
10173.2
10172.1
10170.9
10169.7
10168.4
10167.1
10165.9
10164.7
10163.6
10162.6
10161.7
10161
10160.5
10160.1
10160
10160.1
10160.4
10160.9
10161.6
10162.5
10163.6
10164.9
10166.3
10167.9
10169.6
10171.4
10173.2
10175
10176.7
10178.4
10179.9
10181.2
10182.1
9486.27
9485.12
9483.55
9481.92
9480.24
9478.52
9476.8
9475.12
9473.5
9471.98
9470.57
9469.28
9468.12
9467.11
9466.25
9465.56
9465.03
9464.68
9464.48
9464.44
9464.56
9464.83
9465.23
9465.77
9466.42
9467.16
9467.99
9468.87
9469.79
9470.73
9471.65
9472.54
9473.37
9474.11
9474.76
9475.3
9475.73
9476.06
9476.29
9476.44
9476.51
9476.5
9476.41
9476.21
9475.9
9475.46
9474.9
9474.21
9473.43
9472.56
9471.63
9470.66
9469.72
9468.8
9467.96
9467.17
9466.46
9465.84
9465.36
9465.03
9464.87
9464.88
9465.08
9465.45
9466.01
9466.74
9467.66
9468.74
9469.99
9471.4
9472.94
9474.6
9476.35
9478.17
9480.01
9481.84
9483.62
9485.34
9486.96
9488.22
8792.7
8791.2
8789.28
8787.39
8785.52
8783.66
8781.85
8780.1
8778.45
8776.91
8775.5
8774.21
8773.05
8772.03
8771.15
8770.4
8769.81
8769.36
8769.06
8768.9
8768.86
8768.95
8769.16
8769.48
8769.89
8770.38
8770.94
8771.54
8772.18
8772.83
8773.46
8774.07
8774.62
8775.09
8775.47
8775.76
8775.96
8776.1
8776.19
8776.26
8776.32
8776.36
8776.38
8776.35
8776.24
8776.04
8775.73
8775.32
8774.82
8774.24
8773.6
8772.94
8772.27
8771.65
8771.09
8770.6
8770.17
8769.83
8769.57
8769.44
8769.44
8769.6
8769.91
8770.37
8770.99
8771.76
8772.69
8773.77
8775
8776.38
8777.9
8779.54
8781.29
8783.14
8785.06
8787.01
8788.98
8790.95
8792.92
8794.52
8099.23
8097.36
8095.06
8092.88
8090.78
8088.75
8086.82
8085
8083.3
8081.73
8080.29
8079
8077.83
8076.8
8075.89
8075.1
8074.45
8073.92
8073.51
8073.22
8073.04
8072.97
8072.99
8073.1
8073.28
8073.53
8073.84
8074.18
8074.55
8074.94
8075.3
8075.65
8075.93
8076.15
8076.28
8076.31
8076.26
8076.18
8076.12
8076.09
8076.14
8076.24
8076.39
8076.54
8076.66
8076.69
8076.64
8076.47
8076.24
8075.94
8075.59
8075.2
8074.82
8074.45
8074.16
8073.92
8073.77
8073.68
8073.66
8073.72
8073.89
8074.17
8074.59
8075.14
8075.82
8076.63
8077.57
8078.65
8079.87
8081.23
8082.73
8084.37
8086.15
8088.05
8090.07
8092.17
8094.35
8096.6
8098.95
8100.91
7405.8
7403.52
7400.82
7398.31
7395.96
7393.75
7391.68
7389.77
7388.01
7386.41
7384.95
7383.64
7382.47
7381.42
7380.49
7379.66
7378.95
7378.35
7377.84
7377.44
7377.12
7376.89
7376.73
7376.64
7376.62
7376.63
7376.7
7376.8
7376.92
7377.04
7377.17
7377.27
7377.32
7377.29
7377.16
7376.91
7376.59
7376.26
7376
7375.86
7375.89
7376.08
7376.39
7376.77
7377.13
7377.42
7377.6
7377.68
7377.68
7377.64
7377.56
7377.46
7377.34
7377.24
7377.18
7377.2
7377.27
7377.42
7377.62
7377.88
7378.21
7378.63
7379.15
7379.77
7380.5
7381.35
7382.31
7383.39
7384.6
7385.95
7387.44
7389.08
7390.88
7392.85
7394.98
7397.26
7399.67
7402.24
7404.99
7407.32
6712.34
6709.63
6706.49
6703.62
6700.99
6698.57
6696.37
6694.37
6692.56
6690.93
6689.46
6688.14
6686.96
6685.91
6684.96
6684.11
6683.35
6682.68
6682.08
6681.57
6681.12
6680.74
6680.42
6680.14
6679.9
6679.7
6679.52
6679.38
6679.26
6679.16
6679.05
6678.93
6678.76
6678.51
6678.11
6677.57
6676.92
6676.27
6675.75
6675.47
6675.49
6675.8
6676.34
6677
6677.67
6678.23
6678.65
6678.94
6679.16
6679.33
6679.5
6679.67
6679.84
6680
6680.19
6680.42
6680.72
6681.08
6681.48
6681.92
6682.42
6682.96
6683.58
6684.28
6685.06
6685.93
6686.9
6687.97
6689.17
6690.5
6691.98
6693.62
6695.45
6697.48
6699.73
6702.2
6704.87
6707.79
6710.97
6713.71
6018.83
6015.64
6011.99
6008.73
6005.8
6003.17
6000.83
5998.75
5996.91
5995.27
5993.81
5992.5
5991.33
5990.27
5989.32
5988.44
5987.65
5986.92
5986.25
5985.64
5985.07
5984.55
5984.06
5983.59
5983.15
5982.72
5982.32
5981.93
5981.58
5981.25
5980.94
5980.63
5980.28
5979.83
5979.18
5978.29
5977.22
5976.14
5975.28
5974.8
5974.8
5975.29
5976.15
5977.23
5978.31
5979.2
5979.84
5980.31
5980.67
5981.03
5981.41
5981.84
5982.27
5982.72
5983.16
5983.64
5984.14
5984.69
5985.27
5985.89
5986.52
5987.19
5987.9
5988.66
5989.48
5990.38
5991.34
5992.41
5993.58
5994.88
5996.33
5997.97
5999.81
6001.89
6004.26
6006.91
6009.87
6013.17
6016.84
6020.06
5325.26
5321.49
5317.25
5313.54
5310.3
5307.45
5304.99
5302.86
5301.02
5299.41
5297.98
5296.71
5295.56
5294.53
5293.57
5292.7
5291.87
5291.1
5290.36
5289.66
5288.98
5288.32
5287.67
5287.02
5286.37
5285.73
5285.08
5284.46
5283.86
5283.31
5282.81
5282.36
5281.89
5281.31
5280.44
5279.14
5277.48
5275.79
5274.44
5273.68
5273.66
5274.39
5275.73
5277.42
5279.1
5280.39
5281.25
5281.82
5282.28
5282.75
5283.31
5283.95
5284.66
5285.38
5286.1
5286.82
5287.54
5288.27
5289.03
5289.78
5290.56
5291.33
5292.12
5292.94
5293.79
5294.68
5295.64
5296.67
5297.81
5299.06
5300.46
5302.06
5303.89
5306.01
5308.48
5311.32
5314.58
5318.31
5322.56
5326.35
4631.65
4627.13
4622.17
4617.95
4614.38
4611.35
4608.8
4606.66
4604.86
4603.31
4601.96
4600.76
4599.67
4598.68
4597.75
4596.88
4596.04
4595.23
4594.44
4593.66
4592.88
4592.09
4591.28
4590.45
4589.6
4588.72
4587.83
4586.94
4586.09
4585.31
4584.65
4584.1
4583.63
4583.04
4582.04
4580.25
4577.73
4575.15
4573.09
4571.94
4571.89
4572.98
4575
4577.59
4580.13
4581.95
4582.95
4583.51
4583.96
4584.51
4585.2
4586.05
4586.99
4588
4589
4589.99
4590.93
4591.85
4592.76
4593.66
4594.53
4595.4
4596.26
4597.12
4597.98
4598.87
4599.8
4600.79
4601.85
4603.02
4604.35
4605.87
4607.66
4609.77
4612.29
4615.3
4618.87
4623.1
4628.07
4632.6
3937.98
3932.45
3926.56
3921.77
3917.89
3914.73
3912.17
3910.1
3908.4
3906.98
3905.75
3904.66
3903.66
3902.74
3901.86
3901.01
3900.18
3899.35
3898.51
3897.66
3896.78
3895.87
3894.91
3893.9
3892.83
3891.71
3890.54
3889.37
3888.22
3887.2
3886.36
3885.79
3885.44
3885.1
3884.16
3881.8
3878.07
3874.24
3871.25
3869.57
3869.51
3871.08
3874
3877.81
3881.59
3884
3884.98
3885.31
3885.65
3886.21
3887.05
3888.11
3889.33
3890.62
3891.91
3893.15
3894.33
3895.44
3896.5
3897.51
3898.49
3899.42
3900.33
3901.21
3902.08
3902.95
3903.83
3904.74
3905.71
3906.77
3907.97
3909.36
3911.03
3913.06
3915.58
3918.71
3922.58
3927.37
3933.26
3938.8
3244.17
3237.26
3230.17
3224.74
3220.62
3217.45
3215.01
3213.12
3211.62
3210.4
3209.35
3208.42
3207.56
3206.73
3205.92
3205.12
3204.31
3203.47
3202.61
3201.7
3200.75
3199.72
3198.62
3197.42
3196.13
3194.74
3193.27
3191.73
3190.24
3188.87
3187.83
3187.25
3187.23
3187.53
3187.11
3184.14
3178.45
3172.54
3167.94
3165.33
3165.27
3167.76
3172.23
3178.07
3183.8
3186.89
3187.38
3187.1
3187.12
3187.69
3188.73
3190.11
3191.65
3193.27
3194.86
3196.37
3197.77
3199.08
3200.28
3201.41
3202.45
3203.44
3204.37
3205.26
3206.11
3206.93
3207.74
3208.55
3209.4
3210.3
3211.31
3212.5
3213.96
3215.8
3218.2
3221.33
3225.44
3230.86
3237.96
3244.86
2550.45
2541.63
2532.83
2526.69
2522.45
2519.46
2517.33
2515.78
2514.6
2513.66
2512.85
2512.12
2511.41
2510.71
2509.99
2509.25
2508.46
2507.63
2506.75
2505.8
2504.76
2503.64
2502.39
2501.02
2499.49
2497.82
2495.99
2494.05
2492.07
2490.29
2488.95
2488.47
2489.26
2491.5
2493.24
2489.42
2478.34
2466.45
2457.22
2452.03
2451.99
2457.04
2466.04
2477.78
2488.94
2492.99
2491.38
2489.14
2488.34
2488.81
2490.15
2491.95
2493.96
2495.97
2497.89
2499.66
2501.29
2502.76
2504.11
2505.32
2506.44
2507.46
2508.41
2509.29
2510.11
2510.87
2511.6
2512.29
2512.98
2513.69
2514.47
2515.37
2516.5
2518.01
2520.1
2523.07
2527.29
2533.42
2542.21
2551.02
1858.62
1845.94
1834.49
1827.64
1823.56
1821.04
1819.46
1818.42
1817.68
1817.09
1816.55
1816.02
1815.46
1814.85
1814.18
1813.46
1812.67
1811.81
1810.88
1809.86
1808.74
1807.5
1806.12
1804.57
1802.85
1800.9
1798.73
1796.32
1793.81
1791.45
1789.75
1789.55
1792.49
1800.46
1809.89
1805.11
1779.31
1753.86
1737.76
1729.97
1730.06
1737.82
1753.48
1778.5
1804.56
1809.91
1800.66
1792.53
1789.47
1789.63
1791.32
1793.71
1796.26
1798.72
1800.94
1802.96
1804.76
1806.39
1807.85
1809.18
1810.36
1811.45
1812.43
1813.33
1814.15
1814.89
1815.57
1816.18
1816.73
1817.26
1817.77
1818.33
1819.03
1820.03
1821.58
1824.07
1828.13
1834.98
1846.42
1859.09
1166.04
1144.53
1131.08
1125
1122.23
1121.01
1120.53
1120.37
1120.3
1120.21
1120.03
1119.76
1119.38
1118.89
1118.3
1117.62
1116.84
1115.98
1115.02
1113.97
1112.79
1111.48
1110
1108.34
1106.45
1104.29
1101.72
1098.71
1095.25
1091.61
1088.34
1086.8
1090.51
1105.54
1127.11
1124.62
1091
1079.86
1095.19
1108.79
1109.52
1096.79
1080.85
1090.77
1124.55
1127.86
1106.44
1090.88
1086.85
1088.27
1091.55
1095.23
1098.74
1101.79
1104.37
1106.54
1108.48
1110.2
1111.74
1113.1
1114.33
1115.43
1116.43
1117.32
1118.12
1118.81
1119.42
1119.91
1120.3
1120.57
1120.73
1120.81
1120.85
1120.97
1121.41
1122.59
1125.32
1131.38
1144.85
1166.37
428.446
409.759
405.894
406.938
408.954
411.133
413.164
414.924
416.397
417.603
418.575
419.341
419.93
420.358
420.645
420.793
420.808
420.676
420.388
419.91
419.212
418.236
416.932
415.217
413.016
410.221
406.843
402.817
398.095
392.605
386.443
380.18
376.221
380.081
394.481
425.997
525.906
683.107
813.559
869.882
871.476
818.11
689.268
530.266
427.964
394.817
380.269
376.232
380.055
386.298
392.501
398.056
402.83
406.891
410.324
413.181
415.419
417.167
418.499
419.5
420.217
420.71
421.007
421.145
421.132
420.985
420.696
420.264
419.671
418.898
417.916
416.694
415.195
413.396
411.31
409.062
406.97
405.876
409.722
428.327
6.91422
8.38296
12.2212
15.5772
18.2844
20.503
22.3497
23.911
25.2527
26.4237
27.4591
28.3839
29.2146
29.9608
30.6256
31.2068
31.696
32.0797
32.3375
32.4428
32.3608
32.0502
31.4577
30.5224
29.1693
27.3291
25.1343
22.6568
19.8394
16.5741
12.6946
7.97597
2.24784
-4.75413
-10.0529
36.0496
241.832
469.232
622.483
690.547
692.402
627.388
476.667
249.46
40.0539
-10.0592
-5.0404
2.03881
7.81449
12.6047
16.5119
19.7762
22.6055
25.0974
27.312
29.1762
30.5498
31.5022
32.1084
32.4295
32.5193
32.4196
32.1662
31.7855
31.2982
30.718
30.0536
29.3072
28.476
27.5503
26.5133
25.3397
23.9936
22.4253
20.5685
18.3369
15.6156
12.2489
8.41162
6.96443
-10.5457
-10.5456
-10.5456
-10.5457
-10.5457
-10.5457
-10.5457
-10.5458
-10.5458
-10.5458
-10.5459
-10.5459
-10.546
-10.5461
-10.5463
-10.5466
-10.5469
-10.5475
-10.5481
-10.5492
-10.5507
-10.553
-10.556
-10.5582
-10.5577
-10.5551
-10.5523
-10.5511
-10.5517
-10.5443
-10.5223
-10.5072
-10.5281
-10.5234
-10.537
-10.5292
49.6536
257.817
419.824
475.103
476.147
423.763
266.674
54.2822
-10.5366
-10.5455
-10.5361
-10.5449
-10.5132
-10.4823
-10.5059
-10.5479
-10.5548
-10.5557
-10.5588
-10.5614
-10.5593
-10.5546
-10.5505
-10.5478
-10.5464
-10.5458
-10.5454
-10.5451
-10.5449
-10.5448
-10.5448
-10.5448
-10.5448
-10.5448
-10.5448
-10.5448
-10.5449
-10.5449
-10.5449
-10.5449
-10.5449
-10.5448
-10.5448
-10.5449
-11.0361
-11.0361
-11.0361
-11.0361
-11.0362
-11.0362
-11.0362
-11.0362
-11.0363
-11.0363
-11.0364
-11.0365
-11.0366
-11.0367
-11.037
-11.0372
-11.0377
-11.0382
-11.0389
-11.04
-11.0414
-11.0431
-11.0447
-11.0455
-11.0454
-11.0441
-11.042
-11.0408
-11.0407
-11.04
-11.0359
-11.0295
-11.0302
-11.0342
-11.0364
-11.0393
2.18004
99.7593
216.092
236.254
236.201
217.377
104.6
4.093
-11.0361
-11.0413
-11.038
-11.0316
-11.0264
-11.0264
-11.0372
-11.0418
-11.0433
-11.0437
-11.0462
-11.0482
-11.0479
-11.0459
-11.0428
-11.0399
-11.0378
-11.0368
-11.0361
-11.0358
-11.0355
-11.0354
-11.0353
-11.0353
-11.0353
-11.0353
-11.0353
-11.0353
-11.0353
-11.0353
-11.0353
-11.0353
-11.0353
-11.0353
-11.0353
-11.0353
-11.5266
-11.5266
-11.5266
-11.5266
-11.5266
-11.5266
-11.5267
-11.5267
-11.5267
-11.5268
-11.5268
-11.5269
-11.527
-11.5271
-11.5272
-11.5275
-11.5279
-11.5284
-11.5292
-11.5303
-11.5321
-11.5345
-11.5374
-11.5392
-11.5387
-11.5365
-11.5342
-11.5325
-11.5332
-11.5346
-11.5357
-11.5351
-11.5322
-11.5273
-11.523
-11.5272
-11.5351
11.5787
120.318
156.759
157.673
124.96
15.0268
-11.5215
-11.5227
-11.5203
-11.5185
-11.5273
-11.5346
-11.535
-11.5362
-11.5369
-11.5362
-11.538
-11.5408
-11.5428
-11.5409
-11.5363
-11.5324
-11.5299
-11.528
-11.5269
-11.5264
-11.526
-11.5259
-11.5258
-11.5257
-11.5257
-11.5257
-11.5257
-11.5258
-11.5258
-11.5258
-11.5258
-11.5258
-11.5258
-11.5258
-11.5258
-11.5258
-11.5258
-12.0171
-12.0171
-12.0171
-12.0171
-12.0171
-12.0171
-12.0171
-12.0172
-12.0172
-12.0172
-12.0173
-12.0173
-12.0174
-12.0175
-12.0177
-12.0179
-12.0182
-12.0186
-12.0193
-12.0205
-12.0226
-12.0254
-12.0283
-12.0309
-12.0312
-12.0292
-12.027
-12.0261
-12.0272
-12.0279
-12.026
-12.0223
-12.0181
-12.0092
-12.0085
-12.0146
-12.007
-10.6516
23.8173
53.1589
54.0119
26.9006
-10.1471
-12.008
-12.0101
-12.0046
-12.0014
-12.007
-12.0175
-12.0237
-12.0297
-12.0324
-12.0301
-12.0308
-12.0326
-12.0332
-12.0313
-12.028
-12.024
-12.0201
-12.0178
-12.017
-12.0167
-12.0165
-12.0163
-12.0162
-12.0162
-12.0162
-12.0162
-12.0162
-12.0163
-12.0163
-12.0163
-12.0163
-12.0163
-12.0163
-12.0163
-12.0163
-12.0163
-12.0163
-12.5076
-12.5076
-12.5076
-12.5076
-12.5076
-12.5076
-12.5076
-12.5076
-12.5077
-12.5077
-12.5077
-12.5077
-12.5078
-12.5078
-12.5079
-12.508
-12.5082
-12.5086
-12.5091
-12.5101
-12.5123
-12.5154
-12.5188
-12.5212
-12.522
-12.5208
-12.52
-12.5222
-12.5203
-12.5143
-12.5079
-12.5034
-12.5012
-12.4977
-12.4977
-12.5104
-12.5293
-12.4917
-12.4866
-12.4783
-12.4733
-12.4842
-12.4822
-12.5058
-12.502
-12.4956
-12.4896
-12.4882
-12.4945
-12.5118
-12.5276
-12.5339
-12.5304
-12.524
-12.523
-12.5218
-12.5188
-12.5166
-12.5134
-12.5102
-12.5083
-12.5071
-12.5068
-12.5067
-12.5066
-12.5066
-12.5066
-12.5067
-12.5067
-12.5067
-12.5067
-12.5068
-12.5068
-12.5068
-12.5068
-12.5068
-12.5068
-12.5068
-12.5068
-12.5068
-12.9981
-12.9981
-12.9981
-12.9981
-12.9981
-12.9981
-12.9981
-12.9981
-12.9981
-12.9981
-12.9981
-12.9981
-12.9981
-12.9982
-12.9982
-12.9982
-12.9983
-12.9984
-12.9986
-12.9995
-13.0014
-13.0036
-13.006
-13.009
-13.0112
-13.0114
-13.011
-13.0113
-13.0117
-13.0085
-13.0036
-13
-12.999
-12.9999
-13.001
-13.0046
-13.0154
-12.9744
-12.9681
-12.9698
-12.9693
-12.967
-12.9742
-13.0012
-12.9937
-12.9886
-12.9887
-12.9925
-12.9992
-13.0064
-13.0103
-13.0105
-13.0104
-13.0125
-13.014
-13.011
-13.0066
-13.0045
-13.003
-13.0007
-12.9988
-12.9975
-12.9972
-12.9971
-12.9971
-12.9971
-12.9971
-12.9971
-12.9972
-12.9972
-12.9973
-12.9973
-12.9973
-12.9973
-12.9973
-12.9973
-12.9973
-12.9973
-12.9973
-12.9973
-13.4886
-13.4886
-13.4886
-13.4886
-13.4886
-13.4886
-13.4886
-13.4886
-13.4886
-13.4886
-13.4886
-13.4886
-13.4885
-13.4885
-13.4885
-13.4884
-13.4883
-13.4882
-13.4881
-13.4888
-13.4902
-13.4918
-13.494
-13.4991
-13.506
-13.5124
-13.5168
-13.5173
-13.513
-13.5057
-13.4983
-13.493
-13.492
-13.4955
-13.4964
-13.4892
-13.4766
-13.4712
-13.4681
-13.465
-13.4644
-13.4675
-13.4735
-13.479
-13.4803
-13.4813
-13.4838
-13.4874
-13.492
-13.4983
-13.5056
-13.5105
-13.5128
-13.5133
-13.5113
-13.505
-13.4968
-13.4918
-13.4914
-13.4907
-13.4889
-13.4878
-13.4876
-13.4875
-13.4875
-13.4875
-13.4876
-13.4876
-13.4877
-13.4877
-13.4878
-13.4878
-13.4878
-13.4878
-13.4878
-13.4878
-13.4878
-13.4878
-13.4878
-13.4878
-13.979
-13.979
-13.979
-13.9791
-13.9791
-13.9791
-13.9791
-13.9791
-13.9791
-13.979
-13.979
-13.979
-13.9789
-13.9789
-13.9788
-13.9787
-13.9786
-13.9784
-13.9781
-13.9785
-13.9801
-13.982
-13.9845
-13.9916
-14.0032
-14.0148
-14.0214
-14.0204
-14.013
-14.0026
-13.9928
-13.9852
-13.9804
-13.9777
-13.9763
-13.9754
-13.973
-13.9684
-13.9663
-13.9633
-13.9623
-13.9642
-13.9664
-13.9689
-13.9715
-13.9739
-13.9767
-13.9802
-13.9851
-13.9922
-14.0011
-14.0096
-14.0155
-14.0165
-14.011
-14
-13.9883
-13.9821
-13.9805
-13.9802
-13.9791
-13.9782
-13.9781
-13.978
-13.978
-13.9781
-13.9781
-13.9782
-13.9782
-13.9783
-13.9783
-13.9783
-13.9783
-13.9784
-13.9784
-13.9784
-13.9784
-13.9783
-13.9783
-13.9783
-14.4695
-14.4695
-14.4695
-14.4695
-14.4695
-14.4695
-14.4695
-14.4695
-14.4695
-14.4695
-14.4695
-14.4694
-14.4694
-14.4693
-14.4692
-14.4691
-14.4689
-14.4688
-14.4686
-14.4687
-14.4706
-14.4739
-14.4778
-14.4853
-14.4978
-14.5111
-14.5178
-14.5158
-14.5068
-14.4952
-14.4849
-14.4775
-14.4727
-14.4688
-14.4654
-14.4642
-14.4641
-14.4631
-14.4615
-14.4591
-14.4577
-14.4582
-14.4599
-14.4616
-14.4636
-14.466
-14.4688
-14.4724
-14.4773
-14.4848
-14.4946
-14.5053
-14.5137
-14.5159
-14.5097
-14.4961
-14.4814
-14.4729
-14.471
-14.4705
-14.4695
-14.4689
-14.4687
-14.4686
-14.4686
-14.4686
-14.4687
-14.4687
-14.4688
-14.4688
-14.4688
-14.4689
-14.4689
-14.4689
-14.4689
-14.4689
-14.4689
-14.4689
-14.4689
-14.4689
-14.96
-14.96
-14.96
-14.96
-14.96
-14.96
-14.96
-14.96
-14.96
-14.96
-14.96
-14.9599
-14.9599
-14.9598
-14.9597
-14.9596
-14.9595
-14.9594
-14.9594
-14.9595
-14.9611
-14.9648
-14.9703
-14.9778
-14.9882
-15
-15.0056
-15.0035
-14.9951
-14.9845
-14.9751
-14.9683
-14.9639
-14.9607
-14.9586
-14.9572
-14.9562
-14.9553
-14.954
-14.9523
-14.9511
-14.9508
-14.952
-14.9536
-14.9556
-14.9578
-14.9604
-14.9637
-14.9683
-14.975
-14.9843
-14.9949
-15.0037
-15.0067
-15.0008
-14.9874
-14.973
-14.9646
-14.9622
-14.9612
-14.9602
-14.9596
-14.9594
-14.9593
-14.9592
-14.9592
-14.9593
-14.9593
-14.9593
-14.9594
-14.9594
-14.9594
-14.9594
-14.9594
-14.9594
-14.9594
-14.9594
-14.9594
-14.9594
-14.9594
-15.4505
-15.4505
-15.4505
-15.4505
-15.4505
-15.4505
-15.4505
-15.4505
-15.4505
-15.4505
-15.4505
-15.4504
-15.4504
-15.4503
-15.4502
-15.4502
-15.4501
-15.4501
-15.4502
-15.4506
-15.4517
-15.4546
-15.4598
-15.4666
-15.4748
-15.4826
-15.4864
-15.4848
-15.4787
-15.4708
-15.4637
-15.4586
-15.4549
-15.4522
-15.45
-15.4484
-15.4473
-15.4463
-15.4452
-15.444
-15.4434
-15.443
-15.4439
-15.4454
-15.4472
-15.4491
-15.4513
-15.4541
-15.4578
-15.463
-15.47
-15.4781
-15.4847
-15.4866
-15.4824
-15.4726
-15.4623
-15.456
-15.4534
-15.4519
-15.451
-15.4504
-15.4501
-15.45
-15.4499
-15.4499
-15.4499
-15.4499
-15.4499
-15.4499
-15.45
-15.45
-15.45
-15.45
-15.45
-15.45
-15.45
-15.4499
-15.4499
-15.4499
-15.941
-15.941
-15.941
-15.941
-15.941
-15.941
-15.941
-15.941
-15.941
-15.941
-15.941
-15.9409
-15.9409
-15.9409
-15.9408
-15.9408
-15.9408
-15.9409
-15.9411
-15.9416
-15.9426
-15.9445
-15.948
-15.9529
-15.9586
-15.9635
-15.9658
-15.9651
-15.9614
-15.9565
-15.9519
-15.9482
-15.9454
-15.9432
-15.9414
-15.9399
-15.9387
-15.9376
-15.9365
-15.9356
-15.9352
-15.935
-15.9357
-15.9369
-15.9384
-15.94
-15.9419
-15.9442
-15.947
-15.9506
-15.9551
-15.9601
-15.9637
-15.9642
-15.9615
-15.9559
-15.9502
-15.9463
-15.944
-15.9426
-15.9417
-15.9412
-15.9408
-15.9406
-15.9405
-15.9405
-15.9405
-15.9405
-15.9405
-15.9405
-15.9405
-15.9405
-15.9405
-15.9405
-15.9405
-15.9405
-15.9405
-15.9405
-15.9405
-15.9405
-16.4315
-16.4315
-16.4315
-16.4315
-16.4315
-16.4315
-16.4315
-16.4315
-16.4315
-16.4315
-16.4315
-16.4315
-16.4315
-16.4314
-16.4314
-16.4314
-16.4315
-16.4316
-16.4319
-16.4324
-16.4332
-16.4347
-16.4368
-16.4398
-16.4432
-16.4462
-16.4478
-16.4477
-16.4459
-16.4431
-16.4403
-16.4378
-16.4356
-16.4338
-16.4323
-16.431
-16.4299
-16.4288
-16.4279
-16.4271
-16.4268
-16.4268
-16.4272
-16.4282
-16.4294
-16.4307
-16.4323
-16.4341
-16.4363
-16.4388
-16.4416
-16.4444
-16.4461
-16.4461
-16.4444
-16.4414
-16.4383
-16.4359
-16.4343
-16.4331
-16.4324
-16.4319
-16.4315
-16.4313
-16.4312
-16.4311
-16.4311
-16.4311
-16.4311
-16.4311
-16.4311
-16.4311
-16.4311
-16.4311
-16.4311
-16.431
-16.431
-16.431
-16.431
-16.431
-16.922
-16.922
-16.922
-16.922
-16.922
-16.9221
-16.9221
-16.9221
-16.922
-16.922
-16.922
-16.922
-16.922
-16.922
-16.922
-16.9221
-16.9221
-16.9223
-16.9226
-16.923
-16.9238
-16.9248
-16.9263
-16.9281
-16.9301
-16.9319
-16.9331
-16.9333
-16.9324
-16.9309
-16.9291
-16.9273
-16.9257
-16.9243
-16.923
-16.9219
-16.9209
-16.92
-16.9192
-16.9185
-16.9182
-16.9183
-16.9186
-16.9193
-16.9203
-16.9214
-16.9227
-16.9241
-16.9258
-16.9276
-16.9294
-16.931
-16.9319
-16.9319
-16.9308
-16.929
-16.9272
-16.9257
-16.9245
-16.9236
-16.923
-16.9225
-16.9222
-16.922
-16.9218
-16.9218
-16.9217
-16.9217
-16.9217
-16.9217
-16.9217
-16.9217
-16.9216
-16.9216
-16.9216
-16.9216
-16.9216
-16.9216
-16.9216
-16.9216
-17.4125
-17.4125
-17.4125
-17.4126
-17.4126
-17.4126
-17.4126
-17.4126
-17.4126
-17.4126
-17.4126
-17.4126
-17.4126
-17.4126
-17.4126
-17.4127
-17.4128
-17.4129
-17.4132
-17.4136
-17.4142
-17.415
-17.416
-17.4173
-17.4186
-17.4198
-17.4205
-17.4207
-17.4203
-17.4194
-17.4182
-17.417
-17.4157
-17.4146
-17.4136
-17.4126
-17.4118
-17.411
-17.4103
-17.4098
-17.4095
-17.4096
-17.4098
-17.4104
-17.4112
-17.412
-17.413
-17.4142
-17.4154
-17.4168
-17.418
-17.419
-17.4195
-17.4195
-17.4189
-17.4178
-17.4167
-17.4156
-17.4147
-17.414
-17.4135
-17.4131
-17.4128
-17.4126
-17.4125
-17.4124
-17.4123
-17.4123
-17.4123
-17.4122
-17.4122
-17.4122
-17.4122
-17.4122
-17.4122
-17.4121
-17.4121
-17.4121
-17.4121
-17.4121
-17.9031
-17.9031
-17.9031
-17.9031
-17.9031
-17.9031
-17.9031
-17.9031
-17.9031
-17.9031
-17.9031
-17.9031
-17.9031
-17.9031
-17.9032
-17.9033
-17.9034
-17.9035
-17.9038
-17.9041
-17.9046
-17.9052
-17.906
-17.9069
-17.9077
-17.9085
-17.909
-17.9092
-17.9089
-17.9084
-17.9076
-17.9067
-17.9058
-17.9049
-17.9041
-17.9033
-17.9026
-17.902
-17.9014
-17.9009
-17.9006
-17.9007
-17.9009
-17.9013
-17.9019
-17.9026
-17.9034
-17.9043
-17.9053
-17.9063
-17.9071
-17.9078
-17.9082
-17.9082
-17.9078
-17.9071
-17.9064
-17.9056
-17.905
-17.9044
-17.904
-17.9037
-17.9034
-17.9032
-17.9031
-17.903
-17.9029
-17.9029
-17.9028
-17.9028
-17.9028
-17.9028
-17.9027
-17.9027
-17.9027
-17.9027
-17.9027
-17.9026
-17.9026
-17.9026
-18.3936
-18.3936
-18.3936
-18.3936
-18.3936
-18.3936
-18.3936
-18.3936
-18.3936
-18.3936
-18.3936
-18.3936
-18.3937
-18.3937
-18.3938
-18.3938
-18.3939
-18.3941
-18.3943
-18.3946
-18.395
-18.3955
-18.396
-18.3966
-18.3972
-18.3977
-18.3981
-18.3982
-18.3981
-18.3977
-18.3972
-18.3965
-18.3958
-18.3952
-18.3945
-18.3939
-18.3933
-18.3928
-18.3923
-18.3919
-18.3916
-18.3917
-18.3919
-18.3922
-18.3926
-18.3932
-18.3939
-18.3946
-18.3953
-18.396
-18.3966
-18.3971
-18.3974
-18.3974
-18.3972
-18.3968
-18.3963
-18.3957
-18.3953
-18.3948
-18.3945
-18.3942
-18.394
-18.3938
-18.3937
-18.3936
-18.3935
-18.3934
-18.3934
-18.3934
-18.3933
-18.3933
-18.3933
-18.3933
-18.3932
-18.3932
-18.3932
-18.3932
-18.3932
-18.3932
-18.8841
-18.8841
-18.8841
-18.8841
-18.8841
-18.8841
-18.8841
-18.8841
-18.8841
-18.8841
-18.8842
-18.8842
-18.8842
-18.8842
-18.8843
-18.8844
-18.8845
-18.8846
-18.8848
-18.8851
-18.8854
-18.8857
-18.8862
-18.8866
-18.887
-18.8874
-18.8876
-18.8877
-18.8876
-18.8873
-18.887
-18.8865
-18.886
-18.8854
-18.8849
-18.8844
-18.884
-18.8836
-18.8831
-18.8828
-18.8826
-18.8826
-18.8828
-18.883
-18.8834
-18.8838
-18.8843
-18.8849
-18.8854
-18.886
-18.8864
-18.8868
-18.887
-18.887
-18.8869
-18.8866
-18.8863
-18.8859
-18.8855
-18.8852
-18.8849
-18.8847
-18.8845
-18.8844
-18.8842
-18.8841
-18.8841
-18.884
-18.884
-18.8839
-18.8839
-18.8839
-18.8838
-18.8838
-18.8838
-18.8838
-18.8837
-18.8837
-18.8837
-18.8837
-19.3746
-19.3746
-19.3746
-19.3746
-19.3746
-19.3746
-19.3746
-19.3746
-19.3747
-19.3747
-19.3747
-19.3747
-19.3747
-19.3748
-19.3748
-19.3749
-19.375
-19.3751
-19.3753
-19.3755
-19.3758
-19.376
-19.3763
-19.3767
-19.3769
-19.3772
-19.3774
-19.3774
-19.3773
-19.3772
-19.3769
-19.3765
-19.3761
-19.3757
-19.3753
-19.375
-19.3746
-19.3743
-19.3739
-19.3736
-19.3734
-19.3734
-19.3736
-19.3738
-19.374
-19.3744
-19.3748
-19.3752
-19.3757
-19.3761
-19.3764
-19.3767
-19.3768
-19.3769
-19.3768
-19.3766
-19.3764
-19.3761
-19.3759
-19.3756
-19.3754
-19.3752
-19.375
-19.3749
-19.3748
-19.3747
-19.3746
-19.3746
-19.3745
-19.3745
-19.3744
-19.3744
-19.3744
-19.3744
-19.3743
-19.3743
-19.3743
-19.3743
-19.3743
-19.3743
-19.8651
-19.8651
-19.8651
-19.8651
-19.8651
-19.8651
-19.8651
-19.8652
-19.8652
-19.8652
-19.8652
-19.8652
-19.8653
-19.8653
-19.8654
-19.8654
-19.8655
-19.8656
-19.8658
-19.8659
-19.8661
-19.8664
-19.8666
-19.8668
-19.867
-19.8672
-19.8673
-19.8673
-19.8673
-19.8671
-19.8669
-19.8667
-19.8664
-19.8661
-19.8658
-19.8655
-19.8652
-19.8649
-19.8646
-19.8644
-19.8642
-19.8642
-19.8643
-19.8645
-19.8647
-19.865
-19.8653
-19.8656
-19.866
-19.8663
-19.8666
-19.8668
-19.8669
-19.8669
-19.8669
-19.8668
-19.8666
-19.8664
-19.8662
-19.866
-19.8658
-19.8657
-19.8655
-19.8654
-19.8653
-19.8652
-19.8652
-19.8651
-19.8651
-19.865
-19.865
-19.8649
-19.8649
-19.8649
-19.8649
-19.8648
-19.8648
-19.8648
-19.8648
-19.8648
-20.3556
-20.3556
-20.3556
-20.3556
-20.3556
-20.3556
-20.3557
-20.3557
-20.3557
-20.3557
-20.3557
-20.3557
-20.3558
-20.3558
-20.3559
-20.3559
-20.356
-20.3561
-20.3562
-20.3564
-20.3565
-20.3567
-20.3569
-20.357
-20.3572
-20.3573
-20.3574
-20.3574
-20.3573
-20.3572
-20.3571
-20.3569
-20.3567
-20.3564
-20.3562
-20.356
-20.3558
-20.3555
-20.3553
-20.3551
-20.355
-20.355
-20.3551
-20.3552
-20.3554
-20.3556
-20.3558
-20.3561
-20.3563
-20.3566
-20.3568
-20.3569
-20.357
-20.3571
-20.3571
-20.357
-20.3569
-20.3567
-20.3566
-20.3564
-20.3563
-20.3562
-20.356
-20.3559
-20.3558
-20.3558
-20.3557
-20.3556
-20.3556
-20.3556
-20.3555
-20.3555
-20.3555
-20.3554
-20.3554
-20.3554
-20.3554
-20.3554
-20.3554
-20.3553
-20.8461
-20.8461
-20.8461
-20.8461
-20.8461
-20.8462
-20.8462
-20.8462
-20.8462
-20.8462
-20.8462
-20.8463
-20.8463
-20.8463
-20.8464
-20.8464
-20.8465
-20.8466
-20.8467
-20.8468
-20.8469
-20.8471
-20.8472
-20.8473
-20.8474
-20.8475
-20.8475
-20.8476
-20.8475
-20.8474
-20.8473
-20.8471
-20.847
-20.8468
-20.8466
-20.8464
-20.8463
-20.8461
-20.846
-20.8458
-20.8458
-20.8459
-20.8459
-20.8459
-20.846
-20.8462
-20.8463
-20.8465
-20.8467
-20.8469
-20.8471
-20.8472
-20.8473
-20.8473
-20.8473
-20.8473
-20.8472
-20.8471
-20.847
-20.8469
-20.8467
-20.8466
-20.8465
-20.8464
-20.8464
-20.8463
-20.8462
-20.8462
-20.8461
-20.8461
-20.846
-20.846
-20.846
-20.846
-20.8459
-20.8459
-20.8459
-20.8459
-20.8459
-20.8459
-21.3366
-21.3366
-21.3366
-21.3366
-21.3367
-21.3367
-21.3367
-21.3367
-21.3367
-21.3367
-21.3367
-21.3368
-21.3368
-21.3368
-21.3369
-21.3369
-21.337
-21.3371
-21.3372
-21.3373
-21.3373
-21.3374
-21.3375
-21.3376
-21.3377
-21.3378
-21.3378
-21.3378
-21.3378
-21.3377
-21.3376
-21.3375
-21.3373
-21.3372
-21.337
-21.3369
-21.3368