/*--------------------------------*- C++ -*----------------------------------*\
| =========                 |                                                 |
| \\      /  F ield         | OpenFOAM: The Open Source CFD Toolbox           |
|  \\    /   O peration     | Version:  2412                                  |
|   \\  /    A nd           | Website:  www.openfoam.com                      |
|    \\/     M anipulation  |                                                 |
\*---------------------------------------------------------------------------*/
FoamFile
{
    version     2.0;
    format      ascii;
    arch        "LSB;label=32;scalar=64";
    class       surfaceScalarField;
    location    "5.35";
    object      alphaPhi0.water;
}
// * * * * * * * * * * * * * * * * * * * * * * * * * * * * * * * * * * * * * //

dimensions      [0 3 -1 0 0 0 0];

oriented        oriented;

internalField   nonuniform List<scalar> 
12640
(
-4.54446e-06
4.54444e-06
-3.79631e-06
-7.47963e-07
-4.09765e-06
3.0148e-07
-4.63398e-06
5.3642e-07
-4.54933e-06
-8.46422e-08
-3.5549e-06
-9.94507e-07
-1.55998e-06
-1.99509e-06
1.36919e-06
-2.92943e-06
5.11621e-06
-3.74737e-06
9.51662e-06
-4.40086e-06
1.43648e-05
-4.84869e-06
1.93749e-05
-5.01055e-06
2.42614e-05
-4.887e-06
2.86447e-05
-4.3837e-06
3.22992e-05
-3.65465e-06
3.49532e-05
-2.65412e-06
3.65265e-05
-1.5733e-06
3.68657e-05
-3.39024e-07
3.59115e-05
9.5441e-07
3.36538e-05
2.25792e-06
3.01693e-05
3.48469e-06
2.54557e-05
4.7138e-06
1.96928e-05
5.76309e-06
1.2972e-05
6.72099e-06
5.49129e-06
7.48079e-06
-2.49002e-06
7.98142e-06
-1.06001e-05
8.11038e-06
-1.84195e-05
7.81949e-06
-2.56141e-05
7.19445e-06
-3.18084e-05
6.19399e-06
-3.67426e-05
4.93402e-06
-4.0323e-05
3.58028e-06
-4.24398e-05
2.11644e-06
-4.28699e-05
4.29966e-07
-4.1237e-05
-1.63292e-06
-3.74755e-05
-3.76151e-06
-3.16597e-05
-5.81551e-06
-2.40692e-05
-7.5902e-06
-1.51202e-05
-8.94882e-06
-5.39807e-06
-9.72223e-06
4.46399e-06
-9.86251e-06
1.37668e-05
-9.30365e-06
2.18877e-05
-8.12189e-06
2.83002e-05
-6.41358e-06
3.26496e-05
-4.35065e-06
3.47388e-05
-2.09055e-06
3.45979e-05
1.3994e-07
3.25179e-05
2.07906e-06
2.88997e-05
3.61758e-06
2.39998e-05
4.9001e-06
1.7842e-05
6.15806e-06
1.07102e-05
7.13121e-06
2.86473e-06
7.84479e-06
-5.37769e-06
8.24201e-06
-1.35323e-05
8.15444e-06
-2.12349e-05
7.70246e-06
-2.82181e-05
6.98275e-06
-3.4333e-05
6.11426e-06
-3.9411e-05
5.07755e-06
-4.3334e-05
3.92277e-06
-4.60043e-05
2.66991e-06
-4.73447e-05
1.34002e-06
-4.73047e-05
-3.98634e-08
-4.58778e-05
-1.42665e-06
-4.31629e-05
-2.7146e-06
-3.9325e-05
-3.83763e-06
-3.45516e-05
-4.77308e-06
-2.91381e-05
-5.41282e-06
-2.34594e-05
-5.67827e-06
-1.78744e-05
-5.58528e-06
-1.26479e-05
-5.22755e-06
-8.01182e-06
-4.63741e-06
-4.15446e-06
-3.85875e-06
-1.25613e-06
-2.89988e-06
6.50527e-07
-1.90847e-06
1.61736e-06
-9.68344e-07
1.87689e-06
-2.60387e-07
2.15326e-06
-2.77148e-07
3.4625e-06
-1.31006e-06
3.46279e-06
-5.67963e-06
1.02241e-05
-5.82346e-06
-6.03838e-07
-7.05939e-06
1.5376e-06
-8.2699e-06
1.74698e-06
-8.55038e-06
1.9573e-07
-7.60655e-06
-1.93859e-06
-5.37152e-06
-4.23057e-06
-1.90317e-06
-6.39842e-06
2.61424e-06
-8.26551e-06
7.97253e-06
-9.75992e-06
1.37909e-05
-1.06678e-05
1.96705e-05
-1.08909e-05
2.53471e-05
-1.05641e-05
3.06317e-05
-9.66865e-06
3.52128e-05
-8.23589e-06
3.87775e-05
-6.21871e-06
4.11256e-05
-3.92123e-06
4.21448e-05
-1.35796e-06
4.17579e-05
1.3417e-06
4.00125e-05
4.00368e-06
3.69388e-05
6.55872e-06
3.27311e-05
8.92175e-06
2.76351e-05
1.08593e-05
2.18296e-05
1.25268e-05
1.56893e-05
1.36214e-05
9.47012e-06
1.42007e-05
3.36563e-06
1.42147e-05
-2.41846e-06
1.36034e-05
-7.71432e-06
1.24902e-05
-1.23401e-05
1.08196e-05
-1.61346e-05
8.7282e-06
-1.88414e-05
6.28686e-06
-2.01864e-05
3.46138e-06
-2.02677e-05
5.11322e-07
-1.92989e-05
-2.60177e-06
-1.74486e-05
-5.61218e-06
-1.49151e-05
-8.34981e-06
-1.18873e-05
-1.06192e-05
-8.53926e-06
-1.22983e-05
-5.01907e-06
-1.3244e-05
-1.54401e-06
-1.33391e-05
1.72307e-06
-1.25722e-05
4.65171e-06
-1.1052e-05
7.11639e-06
-8.87934e-06
8.99455e-06
-6.22945e-06
1.01559e-05
-3.25249e-06
1.03453e-05
-4.94492e-08
9.40024e-06
3.02475e-06
7.10455e-06
5.91374e-06
3.57643e-06
8.42854e-06
-8.72534e-07
1.06074e-05
-6.08204e-06
1.23412e-05
-1.19425e-05
1.3706e-05
-1.80901e-05
1.43902e-05
-2.4422e-05
1.44864e-05
-3.07028e-05
1.39829e-05
-3.6681e-05
1.29608e-05
-4.20129e-05
1.14461e-05
-4.64396e-05
9.50389e-06
-4.97337e-05
7.2167e-06
-5.17113e-05
4.6478e-06
-5.22511e-05
1.88022e-06
-5.12855e-05
-1.00508e-06
-4.89052e-05
-3.80723e-06
-4.52753e-05
-6.34486e-06
-4.05895e-05
-8.52355e-06
-3.51107e-05
-1.02519e-05
-2.90813e-05
-1.14429e-05
-2.27154e-05
-1.20454e-05
-1.63271e-05
-1.19753e-05
-1.02738e-05
-1.12821e-05
-4.96156e-06
-9.95045e-06
-6.55519e-07
-8.16559e-06
2.45642e-06
-6.01285e-06
4.30051e-06
-3.7533e-06
4.90214e-06
-1.57e-06
4.50357e-06
1.38045e-07
4.07867e-06
1.47099e-07
4.57433e-06
-1.80533e-06
8.03582e-06
-5.7912e-06
1.60155e-05
-5.78315e-06
-6.11389e-07
-7.0321e-06
2.7869e-06
-8.46301e-06
3.17811e-06
-8.96979e-06
7.02557e-07
-8.15117e-06
-2.7573e-06
-5.95952e-06
-6.42246e-06
-2.41688e-06
-9.94142e-06
2.25008e-06
-1.29329e-05
7.80442e-06
-1.53147e-05
1.39066e-05
-1.67705e-05
2.01823e-05
-1.71671e-05
2.6233e-05
-1.66151e-05
3.17804e-05
-1.52164e-05
3.65005e-05
-1.29561e-05
4.0151e-05
-9.86911e-06
4.25193e-05
-6.28936e-06
4.34873e-05
-2.32573e-06
4.29643e-05
1.86472e-06
4.09689e-05
5.9992e-06
3.75348e-05
9.99308e-06
3.29257e-05
1.35311e-05
2.70762e-05
1.6709e-05
2.05243e-05
1.90787e-05
1.33402e-05
2.08053e-05
5.91281e-06
2.1628e-05
-1.51123e-06
2.1639e-05
-8.60483e-06
2.06971e-05
-1.50378e-05
1.89231e-05
-2.07299e-05
1.65115e-05
-2.53132e-05
1.33115e-05
-2.84906e-05
9.46386e-06
-3.00794e-05
5.04926e-06
-3.00331e-05
4.63539e-07
-2.84128e-05
-4.22415e-06
-2.54459e-05
-8.58115e-06
-2.13878e-05
-1.24099e-05
-1.64016e-05
-1.56071e-05
-1.08266e-05
-1.78745e-05
-4.95289e-06
-1.91184e-05
9.08967e-07
-1.9201e-05
6.43484e-06
-1.80972e-05
1.13936e-05
-1.60093e-05
1.54958e-05
-1.29797e-05
1.85188e-05
-9.25052e-06
2.02837e-05
-5.0151e-06
2.0658e-05
-4.21679e-07
1.94494e-05
4.23475e-06
1.66476e-05
8.71664e-06
1.23634e-05
1.27146e-05
6.88987e-06
1.60829e-05
4.88508e-07
1.87439e-05
-6.531e-06
2.07261e-05
-1.39191e-05
2.17789e-05
-2.14346e-05
2.20027e-05
-2.8772e-05
2.13211e-05
-3.56061e-05
1.97951e-05
-4.16613e-05
1.75014e-05
-4.67499e-05
1.45929e-05
-5.05358e-05
1.10029e-05
-5.29098e-05
7.0212e-06
-5.37417e-05
2.71078e-06
-5.30185e-05
-1.72957e-06
-5.08153e-05
-6.01127e-06
-4.71991e-05
-9.96155e-06
-4.23472e-05
-1.33758e-05
-3.65244e-05
-1.60746e-05
-3.00379e-05
-1.79285e-05
-2.31932e-05
-1.88885e-05
-1.63989e-05
-1.87673e-05
-1.00462e-05
-1.76322e-05
-4.4935e-06
-1.55007e-05
-4.64889e-08
-1.26108e-05
3.10505e-06
-9.16301e-06
4.88167e-06
-5.52849e-06
5.28807e-06
-1.97551e-06
4.75075e-06
6.74938e-07
4.32189e-06
5.75733e-07
4.86186e-06
-2.34548e-06
1.2898e-05
-6.80243e-06
2.28182e-05
-7.14512e-06
-2.67991e-07
-8.77305e-06
4.41532e-06
-1.09002e-05
5.30557e-06
-1.19693e-05
1.77188e-06
-1.14199e-05
-3.30659e-06
-9.13644e-06
-8.70593e-06
-5.24099e-06
-1.3837e-05
1.26286e-07
-1.83004e-05
6.53083e-06
-2.17195e-05
1.35587e-05
-2.37987e-05
2.0827e-05
-2.44357e-05
2.78577e-05
-2.3646e-05
3.42541e-05
-2.1613e-05
3.96595e-05
-1.83616e-05
4.37834e-05
-1.39931e-05
4.64472e-05
-8.95317e-06
4.75059e-05
-3.38423e-06
4.68743e-05
2.49654e-06
4.45881e-05
8.2856e-06
4.07487e-05
1.38326e-05
3.54379e-05
1.88419e-05
2.8983e-05
2.31639e-05
2.15029e-05
2.6559e-05
1.33193e-05
2.8989e-05
4.76366e-06
3.01836e-05
-3.84549e-06
3.02479e-05
-1.21066e-05
2.8958e-05
-1.97385e-05
2.65549e-05
-2.64508e-05
2.32238e-05
-3.18032e-05
1.86639e-05
-3.56029e-05
1.32634e-05
-3.77455e-05
7.19165e-06
-3.80131e-05
7.30985e-07
-3.64242e-05
-5.81345e-06
-3.29656e-05
-1.20406e-05
-2.77573e-05
-1.7619e-05
-2.1147e-05
-2.22182e-05
-1.34619e-05
-2.55599e-05
-5.21742e-06
-2.73628e-05
3.07148e-06
-2.74898e-05
1.08516e-05
-2.58775e-05
1.7627e-05
-2.27848e-05
2.30299e-05
-1.83825e-05
2.68005e-05
-1.30217e-05
2.87367e-05
-6.95276e-06
2.87537e-05
-4.40177e-07
2.69573e-05
6.02937e-06
2.34788e-05
1.21933e-05
1.83427e-05
1.78492e-05
1.19184e-05
2.25058e-05
4.37612e-06
2.62851e-05
-3.85166e-06
2.89534e-05
-1.2539e-05
3.04658e-05
-2.12167e-05
3.068e-05
-2.96234e-05
2.97276e-05
-3.74258e-05
2.75972e-05
-4.43375e-05
2.44125e-05
-5.00235e-05
2.02784e-05
-5.43295e-05
1.53084e-05
-5.70332e-05
9.72509e-06
-5.80588e-05
3.73714e-06
-5.73313e-05
-2.45626e-06
-5.48821e-05
-8.45979e-06
-5.08023e-05
-1.40405e-05
-4.5248e-05
-1.8929e-05
-3.85771e-05
-2.27445e-05
-3.10983e-05
-2.54067e-05
-2.32231e-05
-2.67638e-05
-1.54117e-05
-2.65794e-05
-8.13616e-06
-2.49086e-05
-1.86694e-06
-2.17709e-05
3.07747e-06
-1.75564e-05
6.37256e-06
-1.24591e-05
7.91992e-06
-7.07675e-06
7.86944e-06
-1.92638e-06
6.71881e-06
1.8247e-06
5.70926e-06
1.5861e-06
5.87694e-06
-2.51416e-06
1.87757e-05
-8.23919e-06
3.10578e-05
-8.84303e-06
3.3666e-07
-1.12364e-05
6.80927e-06
-1.44807e-05
8.55034e-06
-1.65435e-05
3.83509e-06
-1.64176e-05
-3.43219e-06
-1.39783e-05
-1.11451e-05
-9.41117e-06
-1.8404e-05
-3.05793e-06
-2.46537e-05
4.60649e-06
-2.9384e-05
1.30682e-05
-3.22606e-05
2.17413e-05
-3.31089e-05
3.0064e-05
-3.19689e-05
3.76302e-05
-2.91794e-05
4.40337e-05
-2.47652e-05
4.89852e-05
-1.89448e-05
5.22045e-05
-1.21725e-05
5.35512e-05
-4.73102e-06
5.28999e-05
3.14766e-06
5.03575e-05
1.08279e-05
4.60235e-05
1.81668e-05
4.00093e-05
2.48564e-05
3.26683e-05
3.05052e-05
2.41585e-05
3.50688e-05
1.48589e-05
3.82883e-05
5.15178e-06
3.98909e-05
-4.63146e-06
4.00318e-05
-1.40806e-05
3.8408e-05
-2.29161e-05
3.53914e-05
-3.05241e-05
3.08326e-05
-3.68072e-05
2.49475e-05
-4.13402e-05
1.77964e-05
-4.38768e-05
9.72795e-06
-4.43363e-05
1.19009e-06
-4.2535e-05
-7.61509e-06
-3.85105e-05
-1.60655e-05
-3.23987e-05
-2.37313e-05
-2.45134e-05
-3.01044e-05
-1.52959e-05
-3.4779e-05
-5.37191e-06
-3.72892e-05
4.62775e-06
-3.74924e-05
1.39596e-05
-3.52131e-05
2.20866e-05
-3.09163e-05
2.84777e-05
-2.4778e-05
3.28489e-05
-1.73965e-05
3.5093e-05
-9.19906e-06
3.50742e-05
-4.22691e-07
3.29424e-05
8.15985e-06
2.87706e-05
1.63639e-05
2.28124e-05
2.38068e-05
1.53097e-05
3.00079e-05
6.702e-06
3.48922e-05
-2.6738e-06
3.83288e-05
-1.25591e-05
4.0351e-05
-2.24478e-05
4.05688e-05
-3.2029e-05
3.93087e-05
-4.09076e-05
3.64756e-05
-4.876e-05
3.22645e-05
-5.52543e-05
2.67726e-05
-6.01394e-05
2.01933e-05
-6.32339e-05
1.28188e-05
-6.4373e-05
4.87505e-06
-6.34743e-05
-3.35652e-06
-6.05975e-05
-1.13381e-05
-5.57549e-05
-1.88845e-05
-4.92739e-05
-2.54118e-05
-4.13474e-05
-3.06735e-05
-3.25058e-05
-3.42515e-05
-2.31557e-05
-3.61171e-05
-1.38394e-05
-3.58985e-05
-5.21561e-06
-3.35346e-05
2.19498e-06
-2.91835e-05
7.82601e-06
-2.3189e-05
1.13531e-05
-1.59867e-05
1.26093e-05
-8.33317e-06
1.17161e-05
-1.03335e-06
9.44023e-06
4.10131e-06
7.63478e-06
3.39216e-06
7.29198e-06
-2.17109e-06
2.60676e-05
-9.87427e-06
4.09326e-05
-1.10516e-05
1.51481e-06
-1.46002e-05
1.03585e-05
-1.93955e-05
1.33463e-05
-2.29524e-05
7.39249e-06
-2.34266e-05
-2.95762e-06
-2.08401e-05
-1.37313e-05
-1.53066e-05
-2.39373e-05
-7.5333e-06
-3.24269e-05
1.96861e-06
-3.88859e-05
1.23314e-05
-4.26234e-05
2.28796e-05
-4.36572e-05
3.30266e-05
-4.2116e-05
4.22453e-05
-3.83983e-05
5.00475e-05
-3.25677e-05
5.61083e-05
-2.50061e-05
5.99116e-05
-1.59762e-05
6.15411e-05
-6.36077e-06
6.08932e-05
3.79539e-06
5.80435e-05
1.36776e-05
5.30537e-05
2.31564e-05
4.62123e-05
3.16976e-05
3.7691e-05
3.90266e-05
2.78482e-05
4.49122e-05
1.71392e-05
4.8998e-05
5.84612e-06
5.11846e-05
-5.50387e-06
5.1382e-05
-1.6587e-05
4.9491e-05
-2.69227e-05
4.57267e-05
-3.59143e-05
3.98235e-05
-4.32558e-05
3.22886e-05
-4.86195e-05
2.31599e-05
-5.16711e-05
1.27793e-05
-5.22355e-05
1.75421e-06
-5.01081e-05
-9.74306e-06
-4.53242e-05
-2.08505e-05
-3.80131e-05
-3.10441e-05
-2.85468e-05
-3.95728e-05
-1.74452e-05
-4.58835e-05
-5.47909e-06
-4.92585e-05
6.57922e-06
-4.95539e-05
1.7782e-05
-4.64182e-05
2.75039e-05
-4.06391e-05
3.51545e-05
-3.24284e-05
4.03926e-05
-2.26342e-05
4.30534e-05
-1.1859e-05
4.30076e-05
-3.75574e-07
4.04272e-05
1.07412e-05
3.54846e-05
2.13071e-05
2.84972e-05
3.07948e-05
1.97711e-05
3.8735e-05
9.71129e-06
4.49529e-05
-1.23302e-06
4.92739e-05
-1.2705e-05
5.18232e-05
-2.42264e-05
5.20903e-05
-3.5275e-05
5.03571e-05
-4.55798e-05
4.67804e-05
-5.46429e-05
4.13277e-05
-6.21358e-05
3.42657e-05
-6.78383e-05
2.58963e-05
-7.14636e-05
1.64442e-05
-7.27931e-05
6.20466e-06
-7.17314e-05
-4.41879e-06
-6.82403e-05
-1.48304e-05
-6.24814e-05
-2.46447e-05
-5.46411e-05
-3.32533e-05
-4.51439e-05
-4.01718e-05
-3.44301e-05
-4.49657e-05
-2.30411e-05
-4.7506e-05
-1.16881e-05
-4.7251e-05
-1.13071e-06
-4.40915e-05
7.8742e-06
-3.81879e-05
1.46102e-05
-2.99239e-05
1.83462e-05
-1.97214e-05
1.91272e-05
-9.11342e-06
1.69889e-05
1.10622e-06
1.30465e-05
8.0451e-06
1.00981e-05
6.34042e-06
8.9766e-06
-1.04812e-06
3.50441e-05
-1.14168e-05
5.23499e-05
-1.32579e-05
3.35669e-06
-1.80259e-05
1.51271e-05
-2.59572e-05
2.12781e-05
-3.16655e-05
1.31013e-05
-3.33064e-05
-1.31647e-06
-3.04667e-05
-1.65708e-05
-2.34716e-05
-3.09321e-05
-1.34392e-05
-4.24592e-05
-1.49877e-06
-5.08262e-05
1.14868e-05
-5.5609e-05
2.45677e-05
-5.67381e-05
3.70396e-05
-5.45881e-05
4.83304e-05
-4.96893e-05
5.78978e-05
-4.21355e-05
6.51419e-05
-3.22506e-05
6.9917e-05
-2.07518e-05
7.19541e-05
-8.39842e-06
7.12438e-05
4.50512e-06
6.79229e-05
1.69981e-05
6.21369e-05
2.89421e-05
5.41098e-05
3.97248e-05
4.41616e-05
4.89747e-05
3.265e-05
5.64235e-05
1.99898e-05
6.1658e-05
6.80512e-06
6.4369e-05
-6.72879e-06
6.49157e-05
-1.98774e-05
6.26395e-05
-3.20081e-05
5.78569e-05
-4.27792e-05
5.05945e-05
-5.15866e-05
4.10956e-05
-5.80675e-05
2.96407e-05
-6.18741e-05
1.65859e-05
-6.27378e-05
2.61802e-06
-6.02908e-05
-1.21902e-05
-5.45345e-05
-2.66072e-05
-4.56584e-05
-3.99208e-05
-3.40578e-05
-5.11737e-05
-2.0373e-05
-5.95678e-05
-5.57395e-06
-6.4056e-05
9.33018e-06
-6.44558e-05
2.31364e-05
-6.02223e-05
3.49548e-05
-5.24562e-05
4.4215e-05
-4.16881e-05
5.05158e-05
-2.89354e-05
5.3566e-05
-1.49099e-05
5.33806e-05
-1.90882e-07
5.02049e-05
1.39161e-05
4.42514e-05
2.72601e-05
3.58585e-05
3.91871e-05
2.54329e-05
4.91599e-05
1.34959e-05
5.6889e-05
5.08994e-07
6.22604e-05
-1.29328e-05
6.5265e-05
-2.64148e-05
6.55734e-05
-3.94333e-05
6.33771e-05
-5.14567e-05
5.8805e-05
-6.21727e-05
5.20448e-05
-7.10341e-05
4.31281e-05
-7.77772e-05
3.264e-05
-8.20261e-05
2.06933e-05
-8.36831e-05
7.86195e-06
-8.24199e-05
-5.68173e-06
-7.82657e-05
-1.89842e-05
-7.13503e-05
-3.1559e-05
-6.18138e-05
-4.27885e-05
-5.01429e-05
-5.18413e-05
-3.69659e-05
-5.81414e-05
-2.28918e-05
-6.1579e-05
-8.78458e-06
-6.13577e-05
4.43696e-06
-5.7313e-05
1.56568e-05
-4.94077e-05
2.37776e-05
-3.80443e-05
2.81911e-05
-2.41349e-05
2.80231e-05
-8.94561e-06
2.38055e-05
5.32403e-06
1.74621e-05
1.43883e-05
1.26832e-05
1.11195e-05
1.08252e-05
8.09982e-07
4.58693e-05
-1.2336e-05
6.46864e-05
-1.43515e-05
5.37276e-06
-2.16554e-05
2.24315e-05
-3.44223e-05
3.40453e-05
-4.42948e-05
2.2974e-05
-4.72874e-05
1.67639e-06
-4.35004e-05
-2.03576e-05
-3.4458e-05
-3.99742e-05
-2.14024e-05
-5.55146e-05
-5.96248e-06
-6.6266e-05
1.0462e-05
-7.20335e-05
2.67914e-05
-7.30674e-05
4.23459e-05
-7.01426e-05
5.62859e-05
-6.36293e-05
6.7935e-05
-5.3785e-05
7.69176e-05
-4.12337e-05
8.27113e-05
-2.6546e-05
8.5155e-05
-1.08425e-05
8.44243e-05
5.23543e-06
8.04476e-05
2.09742e-05
7.36045e-05
3.57846e-05
6.41492e-05
4.91796e-05
5.23602e-05
6.07638e-05
3.87848e-05
6.99991e-05
2.37594e-05
7.66837e-05
7.92157e-06
8.02073e-05
-8.11459e-06
8.09521e-05
-2.37784e-05
7.83037e-05
-3.83705e-05
7.24491e-05
-5.12697e-05
6.34941e-05
-6.20481e-05
5.18742e-05
-7.01185e-05
3.77109e-05
-7.49573e-05
2.14241e-05
-7.62368e-05
3.89699e-06
-7.34639e-05
-1.49632e-05
-6.66258e-05
-3.34449e-05
-5.58041e-05
-5.07412e-05
-4.13973e-05
-6.55789e-05
-2.42606e-05
-7.67031e-05
-5.68318e-06
-8.26327e-05
1.30612e-05
-8.32003e-05
3.03138e-05
-7.7476e-05
4.49411e-05
-6.70853e-05
5.61967e-05
-5.29461e-05
6.36e-05
-3.63409e-05
6.71126e-05
-1.84238e-05
6.67037e-05
2.17057e-07
6.2632e-05
1.79866e-05
5.52499e-05
3.46413e-05
4.50289e-05
4.94075e-05
3.25176e-05
6.16711e-05
1.81629e-05
7.12439e-05
2.58594e-06
7.78377e-05
-1.34081e-05
8.12584e-05
-2.93662e-05
8.15304e-05
-4.47779e-05
7.87874e-05
-5.90039e-05
7.30291e-05
-7.15629e-05
6.46019e-05
-8.21078e-05
5.36717e-05
-9.01523e-05
4.06836e-05
-9.53518e-05
2.58923e-05
-9.74091e-05
9.91885e-06
-9.60151e-05
-7.07616e-06
-9.11905e-05
-2.38093e-05
-8.28304e-05
-3.99197e-05
-7.11537e-05
-5.44662e-05
-5.67996e-05
-6.61968e-05
-4.03807e-05
-7.45617e-05
-2.28207e-05
-7.91402e-05
-5.05692e-06
-7.91227e-05
1.18287e-05
-7.41997e-05
2.63819e-05
-6.39613e-05
3.71646e-05
-4.88272e-05
4.21647e-05
-2.91354e-05
4.05848e-05
-7.36541e-06
3.29601e-05
1.2949e-05
2.17029e-05
2.56453e-05
1.4797e-05
1.80269e-05
1.20835e-05
3.52338e-06
5.79539e-05
-1.32142e-05
7.7901e-05
-1.6279e-05
8.43779e-06
-2.58161e-05
3.19688e-05
-4.57427e-05
5.39721e-05
-6.17291e-05
3.89605e-05
-6.72648e-05
7.21222e-06
-6.24246e-05
-2.51976e-05
-4.95566e-05
-5.28421e-05
-3.17657e-05
-7.33054e-05
-1.14956e-05
-8.6536e-05
9.46089e-06
-9.29899e-05
2.9894e-05
-9.35005e-05
4.91355e-05
-8.93842e-05
6.64329e-05
-8.09268e-05
8.09767e-05
-6.83289e-05
9.18983e-05
-5.21555e-05
9.88587e-05
-3.3507e-05
0.000101728
-1.37127e-05
0.000100763
6.2005e-06
9.60613e-05
2.56754e-05
8.79334e-05
4.39121e-05
7.66954e-05
6.04172e-05
6.27427e-05
7.47164e-05
4.65301e-05
8.62122e-05
2.87285e-05
9.4486e-05
9.57885e-06
9.93577e-05
-9.65845e-06
0.00010019
-2.83669e-05
9.70122e-05
-4.58821e-05
8.99638e-05
-6.1694e-05
7.93049e-05
-7.49024e-05
6.50813e-05
-8.49466e-05
4.77538e-05
-9.1309e-05
2.77855e-05
-9.32492e-05
5.83653e-06
-9.0361e-05
-1.78519e-05
-8.22579e-05
-4.15486e-05
-6.90001e-05
-6.39998e-05
-5.10094e-05
-8.35712e-05
-2.93921e-05
-9.83226e-05
-5.76213e-06
-0.000106265
1.80861e-05
-0.000107051
3.97921e-05
-9.91836e-05
5.79539e-05
-8.5247e-05
7.16293e-05
-6.6621e-05
8.0406e-05
-4.51172e-05
8.42245e-05
-2.22411e-05
8.32981e-05
1.14461e-06
7.79794e-05
2.33065e-05
6.87848e-05
4.38367e-05
5.62587e-05
6.19339e-05
4.09999e-05
7.69295e-05
2.37017e-05
8.85416e-05
5.06125e-06
9.64775e-05
-1.40857e-05
0.000100405
-3.30436e-05
0.000100488
-5.12971e-05
9.70412e-05
-6.82416e-05
8.99746e-05
-8.32519e-05
7.96131e-05
-9.58582e-05
6.62784e-05
-0.000105621
5.04454e-05
-0.000112028
3.22983e-05
-0.000114655
1.25444e-05
-0.000113253
-8.47955e-06
-0.000107583
-2.94821e-05
-9.73853e-05
-5.01196e-05
-8.31639e-05
-6.86903e-05
-6.52835e-05
-8.40792e-05
-4.48579e-05
-9.49888e-05
-2.28713e-05
-0.000101128
-2.64604e-07
-0.00010173
2.17423e-05
-9.62062e-05
4.1211e-05
-8.34292e-05
5.56235e-05
-6.32391e-05
6.18728e-05
-3.53842e-05
5.82113e-05
-3.70267e-06
4.48207e-05
2.63407e-05
2.63917e-05
4.40755e-05
1.66451e-05
2.77747e-05
1.30138e-05
7.15514e-06
7.09683e-05
-1.09871e-05
8.88882e-05
-2.13187e-05
1.87693e-05
-3.73925e-05
4.80425e-05
-6.50992e-05
8.16788e-05
-8.8308e-05
6.21694e-05
-9.59907e-05
1.48951e-05
-8.80217e-05
-3.31667e-05
-6.93375e-05
-7.15264e-05
-4.44073e-05
-9.82355e-05
-1.77717e-05
-0.000113171
8.96942e-06
-0.000119731
3.44196e-05
-0.00011895
5.84111e-05
-0.000113376
7.98226e-05
-0.000102338
9.76326e-05
-8.61391e-05
0.000111032
-6.55546e-05
0.000119477
-4.19523e-05
0.000122841
-1.70775e-05
0.000121301
7.74067e-06
0.000115548
3.14283e-05
0.000105726
5.37338e-05
9.23362e-05
7.38075e-05
7.57475e-05
9.13054e-05
5.64159e-05
0.000105544
3.48771e-05
0.000116024
1.20829e-05
0.000122151
-1.10066e-05
0.000123279
-3.3671e-05
0.000119677
-5.49335e-05
0.000111227
-7.40497e-05
9.84217e-05
-9.0433e-05
8.14647e-05
-0.000103161
6.04814e-05
-0.000111435
3.60593e-05
-0.000114608
9.00862e-06
-0.000111622
-2.08396e-05
-0.000102153
-5.10193e-05
-8.60011e-05
-8.01531e-05
-6.36388e-05
-0.000105935
-3.62031e-05
-0.000125759
-5.45035e-06
-0.000137018
2.54078e-05
-0.000137908
5.2577e-05
-0.000126352
7.48045e-05
-0.000107473
9.12564e-05
-8.30722e-05
0.00010152
-5.53801e-05
0.000105641
-2.6362e-05
0.000103863
2.92251e-06
9.69155e-05
3.02537e-05
8.52889e-05
5.54637e-05
6.98086e-05
7.74152e-05
5.10997e-05
9.56395e-05
3.00872e-05
0.000109556
7.7042e-06
0.000118861
-1.5219e-05
0.000123329
-3.7846e-05
0.000123116
-5.95253e-05
0.00011872
-7.96532e-05
0.000110102
-9.76348e-05
9.75945e-05
-0.000112814
8.14573e-05
-0.000124608
6.22391e-05
-0.000132686
4.03753e-05
-0.000136286
1.61437e-05
-0.000135078
-9.68907e-06
-0.000128638
-3.59235e-05
-0.000116462
-6.22975e-05
-9.88212e-05
-8.63319e-05
-7.65745e-05
-0.000106327
-5.10823e-05
-0.000120481
-2.35273e-05
-0.000128683
5.22424e-06
-0.000130481
3.40419e-05
-0.000125023
6.08595e-05
-0.000110246
8.08982e-05
-8.32778e-05
8.94727e-05
-4.3958e-05
8.30347e-05
2.73587e-06
6.24884e-05
4.68872e-05
3.58498e-05
7.07147e-05
2.22718e-05
4.13518e-05
1.3703e-05
1.57248e-05
8.46703e-05
9.61912e-06
7.92681e-05
-8.32533e-06
3.67135e-05
-5.85723e-05
9.82893e-05
-0.000109385
0.000132491
-0.000140235
9.30194e-05
-0.000141769
1.64286e-05
-0.000123717
-5.12184e-05
-9.44297e-05
-0.000100814
-5.92386e-05
-0.000133426
-2.32945e-05
-0.000149115
1.00839e-05
-0.000153109
4.13749e-05
-0.000150242
7.056e-05
-0.000142561
9.71623e-05
-0.00012894
0.000119457
-0.000108433
0.000135831
-8.19284e-05
0.000145758
-5.18797e-05
0.000149204
-2.0523e-05
0.00014716
9.78482e-06
0.000139937
3.86508e-05
0.000128121
6.55495e-05
0.000112038
8.9891e-05
9.20477e-05
0.000111295
6.85434e-05
0.000129048
4.26975e-05
0.000141871
1.5264e-05
0.000149585
-1.2435e-05
0.000150979
-3.95308e-05
0.000146773
-6.51818e-05
0.000136877
-8.8588e-05
0.000121828
-0.000108768
0.000101645
-0.0001249
7.66131e-05
-0.000135914
4.70737e-05
-0.000140614
1.37087e-05
-0.000138053
-2.34006e-05
-0.000127535
-6.15366e-05
-0.000108688
-9.89992e-05
-8.13651e-05
-0.000133255
-4.59375e-05
-0.000161185
-4.07069e-06
-0.000178883
3.74385e-05
-0.000179417
7.14561e-05
-0.000160369
9.75508e-05
-0.000133568
0.000116317
-0.000101838
0.000127715
-6.67789e-05
0.000131709
-3.03554e-05
0.000128666
5.96503e-06
0.000119425
3.9495e-05
0.000104898
6.99916e-05
8.58578e-05
9.64555e-05
6.30123e-05
0.000118485
3.75465e-05
0.000135022
1.05281e-05
0.00014588
-1.68393e-05
0.000150696
-4.38435e-05
0.00015012
-6.977e-05
0.000144647
-9.38976e-05
0.00013423
-0.000115488
0.000119184
-0.000133891
9.98606e-05
-0.000148432
7.67797e-05
-0.000158456
5.03995e-05
-0.000163527
2.12151e-05
-0.000162658
-1.0557e-05
-0.000155393
-4.31877e-05
-0.000140899
-7.679e-05
-0.000119194
-0.000108036
-9.14619e-05
-0.000134058
-5.97705e-05
-0.000152171
-2.56102e-05
-0.000162843
1.07171e-05
-0.000166808
4.9159e-05
-0.000163465
8.70343e-05
-0.000148121
0.000117949
-0.000114192
0.00013243
-5.84377e-05
0.00012718
7.98573e-06
0.000100241
7.38269e-05
5.88595e-05
0.000112097
2.26965e-05
7.75144e-05
1.13977e-06
3.72818e-05
8.58101e-05
5.54001e-05
2.37874e-05
9.67516e-05
-4.7723e-06
-2.60607e-05
0.000220274
-0.000165835
0.000272265
-0.000225424
0.000152609
-0.000217325
8.32999e-06
-0.000183332
-8.52121e-05
-0.000131846
-0.000152298
-7.83142e-05
-0.000186958
-3.02148e-05
-0.000197215
1.10639e-05
-0.000194388
4.76878e-05
-0.000186865
8.21604e-05
-0.000177033
0.000114431
-0.00016121
0.000142354
-0.000136357
0.00016313
-0.000102704
0.000175684
-6.44335e-05
0.000180534
-2.53727e-05
0.000178172
1.21468e-05
0.000169543
4.72796e-05
0.000155452
7.96408e-05
0.000136178
0.000109165
0.000112221
0.000135253
8.41487e-05
0.00015712
5.28937e-05
0.000173126
2.0008e-05
0.00018247
-1.34477e-05
0.000184434
-4.60567e-05
0.000179381
-7.69071e-05
0.000167728
-0.00010518
0.000150101
-0.00013005
0.000126514
-0.000150315
9.68782e-05
-0.00016474
6.14997e-05
-0.000172221
2.11906e-05
-0.000171516
-2.41042e-05
-0.000161867
-7.11835e-05
-0.000141463
-0.000119401
-0.000108088
-0.000166629
-6.07505e-05
-0.000208521
-2.15087e-06
-0.000237483
5.56039e-05
-0.000237173
0.000100142
-0.000204907
0.000130731
-0.000164157
0.000150373
-0.00012148
0.00016102
-7.74264e-05
0.000163462
-3.27979e-05
0.000158374
1.1053e-05
0.000146361
5.15082e-05
0.000128165
8.81879e-05
0.000104532
0.000120089
7.65737e-05
0.000146443
4.55793e-05
0.000166016
1.31313e-05
0.000178328
-1.98308e-05
0.000183659
-5.21983e-05
0.000182487
-8.28554e-05
0.000175304
-0.00011135
0.000162725
-0.000136946
0.00014478
-0.00015893
0.000121845
-0.000176596
9.44468e-05
-0.000188962
6.27663e-05
-0.000194991
2.72461e-05
-0.000194086
-1.14609e-05
-0.000184997
-5.22759e-05
-0.000167114
-9.46721e-05
-0.000139939
-0.000135211
-0.000105404
-0.000168593
-6.69045e-05
-0.000190671
-2.63854e-05
-0.000203362
1.8124e-05
-0.000211317
6.96223e-05
-0.000214963
0.000127188
-0.000205687
0.000179556
-0.000166559
0.000207083
-8.59644e-05
0.000207008
8.06102e-06
0.000168815
0.00011202
7.18506e-05
0.000209062
-3.59689e-05
0.000185334
-4.17717e-05
4.30526e-05
4.39518e-05
0.00014036
-0.000117158
0.000346
-0.000213081
0.000242984
0.000321701
-7.75562e-05
0.000590626
-0.000284522
0.000359575
-0.000316201
4.00086e-05
-0.000275797
-0.000125615
-0.000188703
-0.000239392
-0.000103374
-0.000272288
-3.96042e-05
-0.000260983
7.50111e-06
-0.000241493
4.73278e-05
-0.000226691
8.76595e-05
-0.000217364
0.000128894
-0.000202445
0.000164536
-0.000171998
0.000189723
-0.000127891
0.000204397
-7.91082e-05
0.000210528
-3.15034e-05
0.000208545
1.41301e-05
0.00019902
5.68042e-05
0.000183037
9.56236e-05
0.000161499
0.000130703
0.000134455
0.000162296
0.000101951
0.000189623
6.4593e-05
0.000210483
2.43295e-05
0.000222733
-1.62828e-05
0.000225046
-5.54721e-05
0.00021857
-9.22109e-05
0.000204466
-0.000125782
0.000183672
-0.000155558
0.00015629
-0.000180465
0.000121785
-0.000199471
8.05058e-05
-0.000211797
3.35162e-05
-0.00021615
-1.97521e-05
-0.000209385
-7.79497e-05
-0.000186019
-0.000142768
-0.000142274
-0.000210377
-7.90635e-05
-0.000271733
-2.35845e-06
-0.000314189
7.41146e-05
-0.000313646
0.00013494
-0.000265734
0.00017532
-0.000204538
0.00019748
-0.000143641
0.000205567
-8.55142e-05
0.000203245
-3.04762e-05
0.000193482
2.08147e-05
0.000178017
6.69727e-05
0.000156758
0.000109446
0.000129117
0.000147728
9.56169e-05
0.000179942
5.7831e-05
0.000203801
1.79623e-05
0.000218195
-2.20137e-05
0.000223633
-6.0518e-05
0.000220991
-9.63998e-05
0.000211185
-0.00012893
0.000195254
-0.000157604
0.000173455
-0.000182434
0.000146675
-0.000203011
0.000115024
-0.000217595
7.73484e-05
-0.000224499
3.41489e-05
-0.000223854
-1.21086e-05
-0.000215183
-6.09485e-05
-0.000195913
-0.000113945
-0.000162933
-0.000168192
-0.000118056
-0.000213471
-6.91233e-05
-0.000239604
-2.19208e-05
-0.000250565
2.87509e-05
-0.000261989
9.48459e-05
-0.000281058
0.000184688
-0.00029553
0.00028006
-0.000261931
0.000325473
-0.000131377
0.000307334
2.61995e-05
0.000187072
0.000232283
-8.08228e-05
0.000476956
-0.000245166
0.000347398
-0.00012199
-8.11307e-05
-7.81131e-05
0.000324798
-0.000441952
0.000612279
-0.000503146
0.00060923
0.000322214
0.000242848
0.000954666
-0.000152077
0.000751693
-0.00035245
0.000240382
-0.000346274
-0.000131791
-0.000225203
-0.000360463
-0.000104968
-0.000392522
-2.92925e-05
-0.000336659
1.78169e-05
-0.000288602
6.35285e-05
-0.000272403
0.000121235
-0.000275071
0.000182658
-0.000263868
0.000228085
-0.000217426
0.000248132
-0.000147937
0.000250722
-8.16978e-05
0.000246974
-2.77555e-05
0.00023921
2.18931e-05
0.000226327
6.96877e-05
0.000207886
0.000114065
0.00018404
0.000154549
0.00015402
0.000192317
0.000117275
0.000226368
7.34425e-05
0.000254315
2.47108e-05
0.000271465
-2.49059e-05
0.000274662
-7.15507e-05
0.000265214
-0.000114376
0.00024729
-0.000153561
0.000222856
-0.000188877
0.000191605
-0.000219544
0.00015245
-0.000244959
0.000105919
-0.000263571
5.21265e-05
-0.000271763
-1.15618e-05
-0.000260823
-8.8891e-05
-0.000224079
-0.000179513
-0.00016265
-0.000271806
-8.51423e-05
-0.000349239
-7.15318e-08
-0.00039926
8.53931e-05
-0.000399111
0.000160228
-0.000340569
0.000215265
-0.000259575
0.000247812
-0.000176188
0.00025895
-9.66525e-05
0.000253455
-2.49818e-05
0.000237897
3.63716e-05
0.000216677
8.81917e-05
0.000191152
0.000134969
0.000159107
0.000179773
0.000119791
0.000219258
7.50439e-05
0.000248547
2.78378e-05
0.000265401
-1.91835e-05
0.000270654
-6.46933e-05
0.0002665
-0.000106202
0.000252692
-0.000142915
0.000231967
-0.000175392
0.00020593
-0.000204236
0.000175516
-0.000229148
0.000139934
-0.000249088
9.72865e-05
-0.000264428
4.94875e-05
-0.000277721
1.18325e-06
-0.000287346
-5.13238e-05
-0.00028051
-0.000120781
-0.000242606
-0.000206096
-0.000176241
-0.000279836
-0.000103255
-0.00031259
-4.4206e-05
-0.000309613
5.42011e-06
-0.000311615
7.79267e-05
-0.000353564
0.000203312
-0.000420914
0.000356378
-0.000414985
0.000411395
-0.000186395
0.000294189
0.000143406
-3.25376e-05
0.000558429
-0.000435792
0.000876658
-0.000539254
0.000448952
-0.000284967
-0.000340265
-0.000363078
0.000456143
-0.000898091
0.000635417
-0.000680823
0.000613671
0.000354705
0.000391805
0.001174
2.0215e-05
0.00112524
-0.000299456
0.000560062
-0.000343394
-8.78533e-05
-0.000203127
-0.000500717
-4.65503e-05
-0.0005491
5.12895e-05
-0.000434499
0.000106379
-0.000343691
0.000164369
-0.000330393
0.000245317
-0.000356019
0.000331004
-0.000349555
0.000388863
-0.000275285
0.000400755
-0.00015983
0.000377261
-5.82035e-05
0.000341743
7.76237e-06
0.00031144
5.21961e-05
0.000286365
9.47639e-05
0.00026095
0.000139481
0.000228814
0.000186684
0.0001874
0.00023373
0.000138321
0.000275448
8.34429e-05
0.000309193
2.60365e-05
0.000328871
-2.86997e-05
0.000329398
-7.80784e-05
0.000314592
-0.000125122
0.000294333
-0.000173019
0.000270753
-0.000220961
0.000239546
-0.000263655
0.000195144
-0.000296445
0.000138708
-0.000314793
7.0475e-05
-0.000311041
-1.53126e-05
-0.000278369
-0.000121561
-0.000217821
-0.000240062
-0.000141129
-0.000348497
-6.06241e-05
-0.000429745
1.83433e-05
-0.000478227
9.58012e-05
-0.000476569
0.000166596
-0.000411363
0.000225416
-0.000318394
0.000269046
-0.000219818
0.000295174
-0.000122781
0.000300579
-3.03868e-05
0.000287263
4.96871e-05
0.00026211
0.000113346
0.000228455
0.000168624
0.000185551
0.000222677
0.000132751
0.000272058
7.53982e-05
0.0003059
2.06362e-05
0.000320163
-2.84188e-05
0.000319709
-7.65247e-05
0.000314605
-0.000125711
0.000301878
-0.000175737
0.000281991
-0.000225681
0.000255872
-0.000269597
0.000219432
-0.000305478