/*--------------------------------*- C++ -*----------------------------------*\
| =========                 |                                                 |
| \\      /  F ield         | OpenFOAM: The Open Source CFD Toolbox           |
|  \\    /   O peration     | Version:  2412                                  |
|   \\  /    A nd           | Website:  www.openfoam.com                      |
|    \\/     M anipulation  |                                                 |
\*---------------------------------------------------------------------------*/
FoamFile
{
    version     2.0;
    format      ascii;
    arch        "LSB;label=32;scalar=64";
    class       surfaceScalarField;
    location    "4.5";
    object      phi;
}
// * * * * * * * * * * * * * * * * * * * * * * * * * * * * * * * * * * * * * //

dimensions      [0 3 -1 0 0 0 0];

oriented        oriented;

internalField   nonuniform List<scalar> 
12640
(
-1.11238e-07
1.11273e-07
-3.53334e-07
2.42333e-07
-6.25962e-07
2.728e-07
-8.62882e-07
2.37169e-07
-1.03495e-06
1.72121e-07
-1.13586e-06
1.01226e-07
-1.17239e-06
3.71532e-08
-1.15794e-06
-1.39875e-08
-1.10692e-06
-5.06119e-08
-1.03256e-06
-7.37676e-08
-9.46145e-07
-8.56835e-08
-8.55971e-07
-8.94389e-08
-7.67677e-07
-8.75111e-08
-6.84606e-07
-8.2126e-08
-6.08425e-07
-7.51095e-08
-5.39515e-07
-6.78299e-08
-4.77435e-07
-6.10293e-08
-4.21464e-07
-5.49473e-08
-3.70897e-07
-4.96401e-08
-3.25122e-07
-4.5052e-08
-2.83606e-07
-4.10112e-08
-2.45964e-07
-3.72441e-08
-2.12023e-07
-3.35042e-08
-1.81831e-07
-2.96458e-08
-1.55562e-07
-2.56448e-08
-1.33384e-07
-2.15611e-08
-1.15316e-07
-1.75342e-08
-1.01156e-07
-1.37498e-08
-9.04877e-08
-1.03998e-08
-8.2706e-08
-7.66897e-09
-7.70788e-08
-5.6905e-09
-7.27845e-08
-4.55833e-09
-6.89661e-08
-4.30202e-09
-6.48231e-08
-4.85303e-09
-5.96696e-08
-6.08469e-09
-5.30404e-08
-7.76669e-09
-4.46819e-08
-9.68124e-09
-3.45466e-08
-1.16211e-08
-2.28283e-08
-1.33494e-08
-9.96879e-09
-1.46205e-08
3.52768e-09
-1.5365e-08
1.71599e-08
-1.5578e-08
3.0379e-08
-1.52095e-08
4.28508e-08
-1.44745e-08
5.43433e-08
-1.34757e-08
6.46834e-08
-1.22744e-08
7.39978e-08
-1.11736e-08
8.26338e-08
-1.03969e-08
9.11697e-08
-1.01798e-08
1.00333e-07
-1.06726e-08
1.10783e-07
-1.18046e-08
1.23172e-07
-1.35662e-08
1.38112e-07
-1.59167e-08
1.55997e-07
-1.86497e-08
1.77075e-07
-2.16293e-08
2.01493e-07
-2.47641e-08
2.29262e-07
-2.79277e-08
2.60368e-07
-3.10909e-08
2.94837e-07
-3.4296e-08
3.33026e-07
-3.78743e-08
3.75193e-07
-4.17272e-08
4.21955e-07
-4.62175e-08
4.74112e-07
-5.15239e-08
5.32549e-07
-5.77353e-08
5.98057e-07
-6.47584e-08
6.71003e-07
-7.21697e-08
7.50939e-07
-7.91511e-08
8.36223e-07
-8.45152e-08
9.23467e-07
-8.65116e-08
1.00705e-06
-8.28879e-08
1.07878e-06
-7.10534e-08
1.12777e-06
-4.8309e-08
1.14089e-06
-1.24432e-08
1.10407e-06
3.74917e-08
1.0049e-06
9.98301e-08
8.36876e-07
1.68638e-07
6.06183e-07
2.31245e-07
3.41546e-07
2.65087e-07
1.07301e-07
2.34571e-07
1.0752e-07
-2.43985e-07
3.55402e-07
-6.99358e-07
6.97948e-07
-1.17426e-06
7.47626e-07
-1.55189e-06
6.15149e-07
-1.77721e-06
3.97749e-07
-1.83867e-06
1.62967e-07
-1.75199e-06
-4.90376e-08
-1.54753e-06
-2.17938e-07
-1.25959e-06
-3.37873e-07
-9.21002e-07
-4.11435e-07
-5.5993e-07
-4.4563e-07
-1.98481e-07
-4.49668e-07
1.4787e-07
-4.32614e-07
4.68953e-07
-4.01849e-07
7.59023e-07
-3.6364e-07
1.01572e-06
-3.22896e-07
1.23893e-06
-2.82694e-07
1.42969e-06
-2.44358e-07
1.58944e-06
-2.08226e-07
1.71959e-06
-1.74134e-07
1.8214e-06
-1.41728e-07
1.89587e-06
-1.10526e-07
1.94368e-06
-8.00609e-08
1.9653e-06
-5.00158e-08
1.96111e-06
-2.02937e-08
1.93158e-06
8.9718e-09
1.87756e-06
3.72931e-08
1.80037e-06
6.40202e-08
1.70191e-06
8.83944e-08
1.58457e-06
1.09705e-07
1.45118e-06
1.27407e-07
1.30481e-06
1.41149e-07
1.14862e-06
1.50862e-07
9.85642e-07
1.56746e-07
8.18598e-07
1.59243e-07
6.49775e-07
1.59035e-07
4.80925e-07
1.56872e-07
3.13246e-07
1.53519e-07
1.47401e-07
1.49755e-07
-1.64269e-08
1.46305e-07
-1.78361e-07
1.43551e-07
-3.38573e-07
1.41551e-07
-4.97157e-07
1.40282e-07
-6.53927e-07
1.39245e-07
-8.08371e-07
1.3801e-07
-9.59637e-07
1.3617e-07
-1.10641e-06
1.32952e-07
-1.24686e-06
1.27608e-07
-1.37864e-06
1.19398e-07
-1.49911e-06
1.07872e-07
-1.60557e-06
9.30384e-08
-1.69551e-06
7.50602e-08
-1.76665e-06
5.4246e-08
-1.81709e-06
3.11297e-08
-1.84543e-06
6.3484e-09
-1.85064e-06
-1.96346e-08
-1.83195e-06
-4.64443e-08
-1.78873e-06
-7.39217e-08
-1.72027e-06
-1.02162e-07
-1.62578e-06
-1.31617e-07
-1.50395e-06
-1.62695e-07
-1.35325e-06
-1.95957e-07
-1.17198e-06
-2.31789e-07
-9.5845e-07
-2.70229e-07
-7.11588e-07
-3.10595e-07
-4.31597e-07
-3.51176e-07
-1.20949e-07
-3.8887e-07
2.14635e-07
-4.19226e-07
5.6506e-07
-4.36109e-07
9.14842e-07
-4.31873e-07
1.2424e-06
-3.97823e-07
1.52017e-06
-3.25291e-07
1.71605e-06
-2.07534e-07
1.79664e-06
-4.23198e-08
1.73314e-06
1.64077e-07
1.51063e-06
3.91836e-07
1.14087e-06
6.01573e-07
6.78467e-07
7.27902e-07
2.36384e-07
6.76887e-07
3.4384e-07
-2.80957e-07
6.36409e-07
-7.66256e-07
1.18322e-06
-1.22655e-06
1.20761e-06
-1.53012e-06
9.1874e-07
-1.61749e-06
4.84934e-07
-1.47992e-06
2.5348e-08
-1.14216e-06
-3.86602e-07
-6.47455e-07
-7.12575e-07
-4.43585e-08
-9.40878e-07
6.2019e-07
-1.07577e-06
1.30537e-06
-1.13053e-06
1.97894e-06
-1.12301e-06
2.61714e-06
-1.07065e-06
3.20404e-06
-9.88545e-07
3.73003e-06
-8.89318e-07
4.19046e-06
-7.82895e-07
4.58412e-06
-6.75793e-07
4.91183e-06
-5.71331e-07
5.17525e-06
-4.70773e-07
5.37627e-06
-3.7425e-07
5.5167e-06
-2.81354e-07
5.59817e-06
-1.91355e-07
5.62212e-06
-1.03496e-07
5.5898e-06
-1.72819e-08
5.50251e-06
6.73623e-08
5.36179e-06
1.49991e-07
5.1697e-06
2.29602e-07
4.92907e-06
3.04767e-07
4.64361e-06
3.73845e-07
4.31786e-06
4.35294e-07
3.95706e-06
4.87889e-07
3.56685e-06
5.30875e-07
3.15297e-06
5.64069e-07
2.72105e-06
5.87836e-07
2.27622e-06
6.03074e-07
1.82303e-06
6.11084e-07
1.36526e-06
6.13379e-07
9.05834e-07
6.11584e-07
4.46923e-07
6.07232e-07
-9.96738e-09
6.01712e-07
-4.63757e-07
5.95832e-07
-9.1355e-07
5.89838e-07
-1.3583e-06
5.83558e-07
-1.79658e-06
5.7611e-07
-2.22651e-06
5.66614e-07
-2.64559e-06
5.54041e-07
-3.0507e-06
5.3699e-07
-3.43802e-06
5.14018e-07
-3.80309e-06
4.83726e-07
-4.14104e-06
4.45236e-07
-4.44685e-06
3.98428e-07
-4.71581e-06
3.43734e-07
-4.94366e-06
2.81959e-07
-5.12675e-06
2.14222e-07
-5.26211e-06
1.41833e-07
-5.34744e-06
6.59373e-08
-5.38093e-06
-1.26263e-08
-5.36102e-06
-9.34474e-08
-5.28617e-06
-1.76568e-07
-5.15477e-06
-2.62572e-07
-4.96483e-06
-3.52182e-07
-4.71415e-06
-4.46202e-07
-4.40044e-06
-5.45085e-07
-4.02178e-06
-6.48507e-07
-3.57735e-06
-7.54672e-07
-3.06844e-06
-8.5974e-07
-2.49977e-06
-9.57195e-07
-1.88088e-06
-1.03777e-06
-1.22759e-06
-1.08905e-06
-5.63336e-07
-1.09578e-06
8.00358e-08
-1.04086e-06
6.62653e-07
-9.07594e-07
1.13867e-06
-6.83276e-07
1.46079e-06
-3.64221e-07
1.58792e-06
3.70767e-08
1.49658e-06
4.83177e-07
1.19606e-06
9.01941e-07
7.45716e-07
1.17794e-06
2.73012e-07
1.14917e-06
6.16285e-07
-2.55013e-07
8.91154e-07
-6.58755e-07
1.58593e-06
-9.7699e-07
1.52463e-06
-1.0804e-06
1.02132e-06
-9.16748e-07
3.20226e-07
-4.86813e-07
-4.05501e-07
1.73318e-07
-1.04742e-06
1.00923e-06
-1.54937e-06
1.9611e-06
-1.89365e-06
2.9716e-06
-2.087e-06
3.99089e-06
-2.15044e-06
4.97924e-06
-2.11209e-06
5.90724e-06
-1.99958e-06
6.75478e-06
-1.83701e-06
7.50936e-06
-1.64462e-06
8.16438e-06
-1.43833e-06
8.71759e-06
-1.22912e-06
9.16946e-06
-1.02307e-06
9.52181e-06
-8.2287e-07
9.77692e-06
-6.29119e-07
9.93715e-06
-4.41429e-07
1.00047e-05
-2.58866e-07
9.98166e-06
-8.0472e-08
9.87005e-06
9.43031e-08
9.67207e-06
2.6535e-07
9.39034e-06
4.31742e-07
9.02827e-06
5.91704e-07
8.5903e-06
7.42772e-07
8.08203e-06
8.82136e-07
7.51024e-06
1.00711e-06
6.88265e-06
1.1155e-06
6.20758e-06
1.20596e-06
5.49355e-06
1.27812e-06
4.74884e-06
1.33257e-06
3.98121e-06
1.37074e-06
3.19759e-06
1.39476e-06
2.40384e-06
1.40721e-06
1.60483e-06
1.41073e-06
8.04429e-07
1.40782e-06
5.72223e-09
1.40068e-06
-7.88753e-07
1.39064e-06
-1.57673e-06
1.37824e-06
-2.35585e-06
1.36318e-06
-3.12328e-06
1.34413e-06
-3.87551e-06
1.31955e-06
-4.60817e-06
1.28753e-06
-5.31609e-06
1.24585e-06
-5.99326e-06
1.19225e-06
-6.63297e-06
1.12459e-06
-7.22797e-06
1.04146e-06
-7.7709e-06
9.42622e-07
-8.25467e-06
8.28788e-07
-8.67288e-06
7.01445e-07
-9.02005e-06
5.62641e-07
-9.29161e-06
4.1458e-07
-9.48387e-06
2.59325e-07
-9.59395e-06
9.84642e-08
-9.61937e-06
-6.71386e-08
-9.55787e-06
-2.37343e-07
-9.40712e-06
-4.1276e-07
-9.16459e-06
-5.94328e-07
-8.82756e-06
-7.83042e-07
-8.39334e-06
-9.7929e-07
-7.85991e-06
-1.18208e-06
-7.22675e-06
-1.38811e-06
-6.4961e-06
-1.59077e-06
-5.67441e-06
-1.77934e-06
-4.77409e-06
-1.93858e-06
-3.8152e-06
-2.04847e-06
-2.82694e-06
-2.0846e-06
-1.84848e-06
-2.01992e-06
-9.28534e-07
-1.82818e-06
-1.23066e-07
-1.48945e-06
5.09763e-07
-9.97813e-07
9.17857e-07
-3.71848e-07
1.06731e-06
3.32788e-07
9.5829e-07
1.00987e-06
6.43396e-07
1.49165e-06
2.48133e-07
1.54319e-06
8.63402e-07
-2.00167e-07
1.09091e-06
-4.63462e-07
1.84786e-06
-5.71045e-07
1.63074e-06
-4.07523e-07
8.567e-07
6.45892e-08
-1.53235e-07
8.30258e-07
-1.1724e-06
1.84098e-06
-2.0591e-06
3.03073e-06
-2.74033e-06
4.33055e-06
-3.19473e-06
5.67553e-06
-3.43308e-06
7.00985e-06
-3.48563e-06
8.28917e-06
-3.39222e-06
9.48068e-06
-3.19212e-06
1.05619e-05
-2.91946e-06
1.15187e-05
-2.60266e-06
1.23434e-05
-2.2642e-06
1.30333e-05
-1.91991e-06
1.35886e-05
-1.57913e-06
1.40115e-05
-1.24625e-06
1.43045e-05
-9.2259e-07
1.44704e-05
-6.07783e-07
1.45117e-05
-3.00747e-07
1.44311e-05
-3.52078e-10
1.42309e-05
2.93933e-07
1.39141e-05
5.81657e-07
1.34842e-05
8.61217e-07
1.29458e-05
1.12979e-06
1.23047e-05
1.38359e-06
1.15682e-05
1.61833e-06
1.07453e-05
1.82983e-06
9.84617e-06
2.01458e-06
8.88176e-06
2.17042e-06
7.86335e-06
2.29669e-06
6.80194e-06
2.39426e-06
5.70784e-06
2.46524e-06
4.59027e-06
2.51286e-06
3.45716e-06
2.54097e-06
2.31518e-06
2.5535e-06
1.1699e-06
2.55405e-06
2.59471e-08
2.54572e-06
-1.11271e-06
2.53054e-06
-2.24244e-06
2.50934e-06
-3.35957e-06
2.4818e-06
-4.4599e-06
2.44607e-06
-5.53839e-06
2.39976e-06
-6.58889e-06
2.33986e-06
-7.6042e-06
2.2631e-06
-8.57615e-06
2.16624e-06
-9.49567e-06
2.04623e-06
-1.03532e-05
1.90111e-06
-1.11388e-05
1.73047e-06
-1.18433e-05
1.5354e-06
-1.2458e-05
1.31827e-06
-1.29757e-05
1.08235e-06
-1.33904e-05
8.31127e-07
-1.36973e-05
5.67925e-07
-1.38926e-05
2.95338e-07
-1.39734e-05
1.49284e-08
-1.39368e-05
-2.72851e-07
-1.37801e-05
-5.68585e-07
-1.35003e-05
-8.73395e-07
-1.30946e-05
-1.18843e-06
-1.25598e-05
-1.51394e-06
-1.18937e-05
-1.84819e-06
-1.10959e-05
-2.18613e-06
-1.0169e-05
-2.51803e-06
-9.1205e-06
-2.82838e-06
-7.96436e-06
-3.09531e-06
-6.72318e-06
-3.29033e-06
-5.42963e-06
-3.37893e-06
-4.12756e-06
-3.3229e-06
-2.87162e-06
-3.08519e-06
-1.7251e-06
-2.6372e-06
-7.55075e-07
-1.96924e-06
-2.42228e-08
-1.10424e-06
4.21411e-07
-1.14489e-07
5.68402e-07
8.61141e-07
4.55313e-07
1.60305e-06
1.94861e-07
1.80193e-06
1.05738e-06
-1.36276e-07
1.22629e-06
-2.3579e-07
1.94598e-06
-1.03928e-07
1.49725e-06
3.53617e-07
3.98005e-07
1.15412e-06
-9.55126e-07
2.26487e-06
-2.28439e-06
3.62296e-06
-3.41803e-06
5.15146e-06
-4.26983e-06
6.7737e-06
-4.81798e-06
8.4196e-06
-5.07981e-06
1.00301e-05
-5.09661e-06
1.15588e-05
-4.9212e-06
1.2972e-05
-4.60558e-06
1.42465e-05
-4.1946e-06
1.53682e-05
-3.72514e-06
1.63293e-05
-3.22626e-06
1.71272e-05
-2.71865e-06
1.77623e-05
-2.21498e-06
1.82371e-05
-1.72146e-06
1.85544e-05
-1.24013e-06
1.87171e-05
-7.70668e-07
1.87278e-05
-3.11737e-07
1.85892e-05
1.38008e-07
1.83038e-05
5.79051e-07
1.78747e-05
1.01049e-06
1.73059e-05
1.42983e-06
1.66026e-05
1.83292e-06
1.57718e-05
2.21429e-06
1.48222e-05
2.56782e-06
1.37647e-05
2.88738e-06
1.26116e-05
3.16774e-06
1.13766e-05
3.40561e-06
1.00736e-05
3.59995e-06
8.71635e-06
3.75194e-06
7.31744e-06
3.86463e-06
5.88832e-06
3.94256e-06
4.43884e-06
3.99112e-06
2.97735e-06
4.01574e-06
1.51093e-06
4.02132e-06
4.55536e-08
4.01204e-06
-1.41351e-06
3.99065e-06
-2.86139e-06
3.95835e-06
-4.29319e-06
3.91481e-06
-5.7035e-06
3.85764e-06
-7.08591e-06
3.78348e-06
-8.43282e-06
3.6881e-06
-9.73514e-06
3.56681e-06
-1.09826e-05
3.41518e-06
-1.2164e-05
3.22905e-06
-1.32671e-05
3.00574e-06
-1.42797e-05
2.74466e-06
-1.51904e-05
2.44752e-06
-1.59885e-05
2.11786e-06
-1.66653e-05
1.76053e-06
-1.72138e-05
1.38081e-06
-1.76284e-05
9.83663e-07
-1.79051e-05
5.73038e-07
-1.80407e-05
1.51417e-07
-1.80325e-05
-2.8034e-07
-1.78777e-05
-7.22747e-07
-1.75735e-05
-1.17717e-06
-1.71167e-05
-1.64505e-06
-1.65039e-05
-2.12659e-06
-1.57328e-05
-2.61937e-06
-1.48025e-05
-3.11661e-06
-1.37155e-05
-3.60536e-06
-1.24792e-05
-4.06509e-06
-1.1108e-05
-4.46704e-06
-9.6251e-06
-4.7738e-06
-8.0645e-06
-4.94023e-06
-6.47212e-06
-4.91619e-06
-4.90582e-06
-4.65259e-06
-3.43386e-06
-4.11046e-06
-2.13065e-06
-3.27389e-06
-1.06912e-06
-2.16731e-06
-3.08897e-07
-8.76286e-07
1.19704e-07
4.30976e-07
2.36113e-07
1.48521e-06
1.33108e-07
1.90362e-06
1.19044e-06
-7.29111e-08
1.29802e-06
-5.11561e-09
1.87709e-06
3.71949e-07
1.11878e-06
1.12679e-06
-3.57617e-07
2.25214e-06
-2.08144e-06
3.69474e-06
-3.7278e-06
5.37617e-06
-5.09978e-06
7.2091e-06
-6.10313e-06
9.11088e-06
-6.72009e-06
1.10087e-05
-6.97786e-06
1.2843e-05
-6.93088e-06
1.45682e-05
-6.64594e-06
1.61518e-05
-6.18844e-06
1.75721e-05
-5.6142e-06
1.8816e-05
-4.96858e-06
1.98767e-05
-4.28689e-06
2.07524e-05
-3.59433e-06
2.1444e-05
-2.90656e-06
2.19542e-05
-2.23144e-06
2.22861e-05
-1.57152e-06
2.24423e-05
-9.26344e-07
2.24252e-05
-2.94131e-07
2.22369e-05
3.2681e-07
2.18794e-05
9.36971e-07
2.13554e-05
1.53495e-06
2.06685e-05
2.11713e-06
1.98241e-05
2.67773e-06
1.88295e-05
3.20919e-06
1.76947e-05
3.703e-06
1.64318e-05
4.15058e-06
1.50554e-05
4.54445e-06
1.35815e-05
4.87977e-06
1.20268e-05
5.15495e-06
1.04074e-05
5.37154e-06
8.73848e-06
5.53374e-06
7.03343e-06
5.64774e-06
5.30389e-06
5.72075e-06
3.55971e-06
5.75995e-06
1.80925e-06
5.77176e-06
5.96646e-08
5.76155e-06
-1.68264e-06
5.73285e-06
-3.41168e-06
5.68727e-06
-5.1214e-06
5.62437e-06
-6.80529e-06
5.54134e-06
-8.45587e-06
5.43379e-06
-1.00642e-05
5.29614e-06
-1.16198e-05
5.12201e-06
-1.31103e-05
4.90532e-06
-1.45222e-05
4.64057e-06
-1.58409e-05
4.32415e-06
-1.70519e-05
3.95533e-06
-1.81414e-05
3.53661e-06
-1.90971e-05
3.07327e-06
-1.99092e-05
2.57233e-06
-2.05701e-05
2.0414e-06
-2.10743e-05
1.48758e-06
-2.14182e-05
9.16601e-07
-2.15992e-05
3.32087e-07
-2.16152e-05
-2.64606e-07
-2.14642e-05
-8.74006e-07
-2.11436e-05
-1.49788e-06
-2.06506e-05
-2.13822e-06
-1.99818e-05
-2.79551e-06
-1.91343e-05
-3.46692e-06
-1.81069e-05
-4.1442e-06
-1.69009e-05
-4.81137e-06
-1.55231e-05
-5.44306e-06
-1.39866e-05
-6.00361e-06
-1.23138e-05
-6.44676e-06
-1.05377e-05
-6.71664e-06
-8.70347e-06
-6.7508e-06
-6.86965e-06
-6.48705e-06
-5.10693e-06
-5.874e-06
-3.4953e-06
-4.88645e-06
-2.11739e-06
-3.54617e-06
-1.04749e-06
-1.94711e-06
-3.35305e-07
-2.8197e-07
1.54844e-08
1.13382e-06
7.27781e-08
1.84609e-06
1.26385e-06
-1.29562e-08
1.31016e-06
2.1868e-07
1.64501e-06
8.37382e-07
4.99298e-07
1.88174e-06
-1.40206e-06
3.31584e-06
-3.51583e-06
5.06345e-06
-5.47561e-06
7.02999e-06
-7.06616e-06
9.11902e-06
-8.19209e-06
1.12444e-05
-8.84531e-06
1.33336e-05
-9.06695e-06
1.53297e-05
-8.92688e-06
1.71907e-05
-8.50663e-06
1.88878e-05
-7.88471e-06
2.04025e-05
-7.1277e-06
2.1724e-05
-6.28898e-06
2.28475e-05
-5.40946e-06
2.37721e-05
-4.51828e-06
2.44995e-05
-3.63346e-06
2.50328e-05
-2.76403e-06
2.53746e-05
-1.91259e-06
2.55272e-05
-1.07813e-06
2.5492e-05
-2.58129e-07
2.52699e-05
5.49705e-07
2.48616e-05
1.34602e-06
2.42683e-05
2.12889e-06
2.34927e-05
2.89344e-06
2.25391e-05
3.63188e-06
2.14148e-05
4.334e-06
2.01299e-05
4.98828e-06
1.86978e-05
5.58295e-06
1.71348e-05
6.10758e-06
1.54593e-05
6.55522e-06
1.36908e-05
6.92341e-06
1.18479e-05
7.21413e-06
9.94826e-06
7.43303e-06
8.00715e-06
7.58832e-06
6.03781e-06
7.68942e-06
4.05143e-06
7.74553e-06
2.05751e-06
7.76475e-06
6.43356e-08
7.75369e-06
-1.92065e-06
7.71669e-06
-3.89032e-06
7.65573e-06
-5.83753e-06
7.57033e-06
-7.7547e-06
7.4572e-06
-9.63338e-06
7.3111e-06
-1.14636e-05
7.12489e-06
-1.32335e-05
6.89039e-06
-1.49291e-05
6.59931e-06
-1.65344e-05
6.24432e-06
-1.80324e-05
5.82065e-06
-1.9406e-05
5.32746e-06
-2.06393e-05
4.76846e-06
-2.17186e-05
4.15129e-06
-2.26336e-05
3.48603e-06
-2.33768e-05
2.7834e-06
-2.39436e-05
2.05334e-06
-2.43318e-05
1.30375e-06
-2.45402e-05
5.39675e-07
-2.45685e-05
-2.36981e-07
-2.44162e-05
-1.02693e-06
-2.40817e-05
-1.83267e-06
-2.35629e-05
-2.65712e-06
-2.28567e-05
-3.5016e-06
-2.196e-05
-4.36345e-06
-2.08705e-05
-5.23343e-06
-1.95885e-05
-6.09302e-06
-1.81187e-05
-6.9124e-06
-1.64725e-05
-7.64951e-06
-1.46691e-05
-8.24981e-06
-1.27385e-05
-8.64711e-06
-1.07225e-05
-8.7668e-06
-8.67691e-06
-8.5328e-06
-6.67204e-06
-7.87924e-06
-4.79093e-06
-6.76797e-06
-3.12474e-06
-5.21276e-06
-1.76281e-06
-3.30939e-06
-7.76398e-07
-1.26847e-06
-1.96202e-07
5.53652e-07
1.64261e-08
1.63395e-06
1.28044e-06
4.5232e-08
1.26458e-06
4.39907e-07
1.25047e-06
1.298e-06
-3.59165e-07
2.62256e-06
-2.72633e-06
4.34419e-06
-5.23757e-06
6.36168e-06
-7.49311e-06
8.56436e-06
-9.26881e-06
1.08493e-05
-1.04773e-05
1.31307e-05
-1.11267e-05
1.53403e-05
-1.12767e-05
1.74277e-05
-1.10147e-05
1.93577e-05
-1.04373e-05
2.11076e-05
-9.63488e-06
2.26636e-05
-8.68342e-06
2.40185e-05
-7.64321e-06
2.51696e-05
-6.55988e-06
2.61174e-05
-5.46561e-06
2.68644e-05
-4.38006e-06
2.74135e-05
-3.3127e-06
2.77669e-05
-2.26552e-06
2.79256e-05
-1.23632e-06
2.78893e-05
-2.21325e-07
2.76566e-05
7.82787e-07
2.72261e-05
1.77698e-06
2.65964e-05
2.7589e-06
2.57679e-05
3.72225e-06
2.47432e-05
4.65687e-06
2.35281e-05
5.54925e-06
2.21325e-05
6.38398e-06
2.05703e-05
7.14513e-06
1.88595e-05
7.81833e-06
1.70209e-05
8.39359e-06
1.50768e-05
8.86723e-06
1.30487e-05
9.24172e-06
1.09567e-05
9.52459e-06
8.8178e-06
9.7266e-06
6.64681e-06
9.85976e-06
4.45609e-06
9.93553e-06
2.25634e-06
9.96373e-06
5.7019e-08
9.9522e-06
-2.1332e-06
9.90605e-06
-4.30597e-06
9.82767e-06
-6.45288e-06
9.71645e-06
-8.56522e-06
9.56881e-06
-1.06336e-05
9.37873e-06
-1.26471e-05
9.13765e-06
-1.45927e-05
8.83529e-06
-1.64549e-05
8.46069e-06
-1.82153e-05
8.00397e-06
-1.98541e-05
7.45875e-06
-2.13515e-05
6.82415e-06
-2.26894e-05
6.10568e-06
-2.38531e-05
5.31437e-06
-2.48322e-05
4.46453e-06
-2.56204e-05
3.57107e-06
-2.62152e-05
2.64761e-06
-2.66167e-05
1.70479e-06
-2.68267e-05
7.49299e-07
-2.68477e-05
-2.16378e-07
-2.66814e-05
-1.19339e-06
-2.63287e-05
-2.18543e-06
-2.57887e-05
-3.19698e-06
-2.50591e-05
-4.23089e-06
-2.41366e-05
-5.28552e-06
-2.30182e-05
-6.35143e-06
-2.17024e-05
-7.40826e-06
-2.0192e-05
-8.42241e-06
-1.84948e-05
-9.34632e-06
-1.66262e-05
-1.01183e-05
-1.46102e-05
-1.0663e-05
-1.24826e-05
-1.08946e-05
-1.02926e-05
-1.07231e-05
-8.10603e-06
-1.00662e-05
-6.00537e-06
-8.86901e-06
-4.08776e-06
-7.1307e-06
-2.45699e-06
-4.94046e-06
-1.20798e-06
-2.51756e-06
-4.03172e-07
-2.51283e-07
-3.82991e-08
1.26894e-06
1.24104e-06
1.06983e-07
1.15751e-06
6.7398e-07
6.83711e-07
1.77865e-06
-1.46438e-06
3.37909e-06
-4.32675e-06
5.36585e-06
-7.22504e-06
7.61126e-06
-9.73887e-06
9.99043e-06
-1.16485e-05
1.23985e-05
-1.28863e-05
1.47553e-05
-1.34841e-05
1.7003e-05
-1.35247e-05
1.91022e-05
-1.31146e-05
2.10283e-05
-1.23646e-05
2.2767e-05
-1.13747e-05
2.43106e-05
-1.02277e-05
2.56558e-05
-8.98878e-06
2.68025e-05
-7.70664e-06
2.77522e-05
-6.41549e-06
2.85079e-05
-5.13594e-06
2.9072e-05
-3.87703e-06
2.94456e-05
-2.63924e-06
2.96275e-05
-1.41826e-06
2.96146e-05
-2.08535e-07
2.94022e-05
9.95037e-07
2.89852e-05
2.19377e-06
2.83588e-05
3.38517e-06
2.75194e-05
4.56133e-06
2.64667e-05
5.70932e-06
2.52041e-05
6.81167e-06
2.37398e-05
7.84803e-06
2.20879e-05
8.79681e-06
2.02679e-05
9.63818e-06
1.83033e-05
1.0358e-05
1.62197e-05
1.09506e-05
1.40419e-05
1.14194e-05
1.17921e-05
1.17743e-05
9.48914e-06
1.20294e-05
7.14926e-06
1.21996e-05
4.78608e-06
1.22988e-05
2.41159e-06
1.23384e-05
3.67157e-08
1.23273e-05
-2.32824e-06
1.22712e-05
-4.67327e-06
1.2173e-05
-6.98826e-06
1.20319e-05
-9.26315e-06
1.18443e-05
-1.14874e-05
1.16037e-05
-1.36494e-05
1.13004e-05
-1.57351e-05
1.09219e-05
-1.77276e-05
1.0454e-05
-1.96062e-05
9.88333e-06
-2.13477e-05
9.20108e-06
-2.29291e-05
8.40632e-06
-2.43299e-05
7.50728e-06
-2.55347e-05
6.51992e-06
-2.65339e-05
5.46442e-06
-2.73236e-05
4.36133e-06
-2.79044e-05
3.22898e-06
-2.82806e-05
2.08147e-06
-2.84583e-05
9.27357e-07
-2.8444e-05
-2.30353e-07
-2.82436e-05
-1.39366e-06
-2.78608e-05
-2.56798e-06
-2.72974e-05
-3.76016e-06
-2.65525e-05
-4.97554e-06
-2.56231e-05
-6.21458e-06
-2.45054e-05
-7.46879e-06
-2.31967e-05
-8.71682e-06
-2.16969e-05
-9.92217e-06
-2.00104e-05
-1.10329e-05
-1.81472e-05
-1.19818e-05
-1.61236e-05
-1.2687e-05
-1.39654e-05
-1.30534e-05
-1.1711e-05
-1.29781e-05
-9.41598e-06
-1.23619e-05
-7.15678e-06
-1.11287e-05
-5.03187e-06
-9.25605e-06
-3.15735e-06
-6.81548e-06
-1.65348e-06
-4.02186e-06
-6.20561e-07
-1.28507e-06
-9.64267e-08
7.43165e-07
1.14311e-06
1.81348e-07
9.75994e-07
9.46997e-07
-8.21335e-08
2.32129e-06
-2.83984e-06
4.20173e-06
-6.20764e-06
6.43038e-06
-9.45515e-06
8.85255e-06
-1.21617e-05
1.13343e-05
-1.41308e-05
1.3776e-05
-1.5329e-05
1.61116e-05
-1.58203e-05
1.8301e-05
-1.57138e-05
2.03222e-05
-1.51354e-05
2.21647e-05
-1.42072e-05
2.38248e-05
-1.30353e-05
2.53021e-05
-1.17055e-05
2.65972e-05
-1.02841e-05
2.77113e-05
-8.82098e-06
2.86469e-05
-7.35134e-06
2.94067e-05
-5.89605e-06
2.99922e-05
-4.46286e-06
3.04021e-05
-3.04952e-06
3.06321e-05
-1.64852e-06
3.06748e-05
-2.51472e-07
3.05211e-05
1.14841e-06
3.01608e-05
2.55371e-06
2.95838e-05
3.96171e-06
2.87818e-05
5.3629e-06
2.77496e-05
6.74115e-06
2.64866e-05
8.0743e-06
2.49984e-05
9.33589e-06
2.32983e-05
1.04967e-05
2.14071e-05
1.15292e-05
1.93519e-05
1.24131e-05
1.71623e-05
1.31402e-05
1.48665e-05
1.37152e-05
1.24892e-05
1.41518e-05
1.00509e-05
1.4468e-05
7.5688e-06
1.46819e-05
5.05801e-06
1.48098e-05
2.53206e-06
1.48647e-05
3.92783e-09
1.48558e-05
-2.51368e-06
1.47893e-05
-5.00821e-06
1.4668e-05
-7.46716e-06
1.44914e-05
-9.8784e-06
1.42562e-05
-1.22301e-05
1.39562e-05
-1.451e-05
1.35811e-05
-1.67037e-05
1.31164e-05
-1.87931e-05
1.25442e-05
-2.07548e-05
1.1846e-05
-2.2562e-05
1.10092e-05
-2.41873e-05
1.00325e-05
-2.56073e-05
8.92823e-06
-2.68062e-05
7.71974e-06
-2.77764e-05
6.43548e-06
-2.85177e-05
5.10342e-06
-2.90357e-05
3.74777e-06
-2.93403e-05
2.38681e-06
-2.94438e-05
1.03141e-06
-2.93585e-05
-3.15249e-07
-2.90953e-05
-1.65654e-06
-2.86628e-05
-3.00027e-06
-2.80665e-05
-4.35641e-06
-2.73078e-05
-5.73405e-06
-2.63851e-05
-7.13722e-06
-2.5294e-05
-8.55983e-06
-2.40304e-05
-9.98056e-06
-2.25921e-05
-1.13607e-05
-2.09803e-05
-1.2645e-05
-1.9199e-05
-1.37636e-05
-1.72551e-05
-1.46315e-05
-1.51607e-05
-1.51485e-05
-1.29375e-05
-1.52018e-05
-1.06238e-05
-1.4676e-05
-8.2815e-06
-1.34712e-05
-6.00286e-06
-1.15349e-05
-3.91135e-06
-8.90738e-06
-2.15303e-06
-5.78077e-06
-8.73124e-07
-2.56637e-06
-1.6549e-07
3.33702e-08
9.77524e-07
2.82579e-07
6.9289e-07
1.29862e-06
-1.09894e-06
2.98677e-06
-4.52966e-06
5.15982e-06
-8.38114e-06
7.60234e-06
-1.1899e-05
1.01346e-05
-1.46943e-05
1.26236e-05
-1.66198e-05
1.49871e-05
-1.7693e-05
1.71843e-05
-1.80177e-05
1.92024e-05
-1.77312e-05
2.10434e-05
-1.69752e-05
2.27154e-05
-1.58783e-05
2.42273e-05
-1.45465e-05
2.55854e-05
-1.30629e-05
2.6793e-05
-1.14909e-05
2.78515e-05
-9.87891e-06
2.87627e-05
-8.26219e-06
2.95286e-05
-6.66171e-06
3.0149e-05
-5.08303e-06
3.06191e-05
-3.51956e-06
3.09297e-05
-1.95906e-06
3.10678e-05
-3.89526e-07
3.10183e-05
1.19789e-06
3.07646e-05
2.80731e-06
3.029e-05
4.43619e-06
2.95795e-05
6.07324e-06
2.86216e-05
7.69884e-06
2.74102e-05
9.28556e-06
2.59464e-05
1.07996e-05
2.42412e-05
1.22018e-05
2.23171e-05
1.34533e-05
2.02056e-05
1.45246e-05
1.79417e-05
1.54042e-05
1.55577e-05
1.60992e-05
1.30804e-05
1.6629e-05
1.05315e-05
1.70169e-05
7.92894e-06
1.72844e-05
5.2892e-06
1.74494e-05
2.62793e-06
1.75258e-05
-3.88901e-08
1.75225e-05
-2.695e-06
1.74451e-05
-5.32404e-06
1.72966e-05
-7.90969e-06
1.70765e-05
-1.04368e-05
1.67827e-05
-1.28918e-05
1.64106e-05
-1.5262e-05
1.59508e-05
-1.75338e-05
1.53877e-05
-1.96886e-05
1.46985e-05
-2.17002e-05
1.38572e-05
-2.35366e-05
1.28452e-05
-2.51647e-05
1.16603e-05
-2.65576e-05
1.03208e-05
-2.76996e-05
8.86141e-06
-2.85865e-05
7.32213e-06
-2.92237e-05
5.74043e-06
-2.96236e-05
4.14756e-06
-2.98036e-05
2.56668e-06
-2.97837e-05
1.01144e-06
-2.95838e-05
-5.15243e-07
-2.92218e-05
-2.01886e-06
-2.87121e-05
-3.51019e-06
-2.80658e-05
-5.00306e-06
-2.72886e-05
-6.51161e-06
-2.63805e-05
-8.04562e-06
-2.53372e-05
-9.60338e-06
-2.41535e-05
-1.11646e-05
-2.28263e-05
-1.26883e-05
-2.13548e-05
-1.41169e-05
-1.97379e-05
-1.53809e-05
-1.79718e-05
-1.6398e-05
-1.60513e-05
-1.70693e-05
-1.3975e-05
-1.72783e-05
-1.17542e-05
-1.68967e-05
-9.42505e-06
-1.58001e-05
-7.06165e-06
-1.38981e-05
-4.78534e-06
-1.11839e-05
-2.76479e-06
-7.80188e-06
-1.19796e-06
-4.13452e-06
-2.58608e-07
-9.06636e-07
7.20374e-07
4.33792e-07
2.58228e-07
1.78863e-06
-2.45451e-06
3.86041e-06
-6.60288e-06
6.34277e-06
-1.08636e-05
8.9566e-06
-1.45134e-05
1.1506e-05
-1.72434e-05
1.38765e-05
-1.89899e-05
1.60205e-05
-1.98375e-05
1.79377e-05
-1.99356e-05
1.96535e-05
-1.94472e-05
2.1201e-05
-1.85226e-05
2.26103e-05
-1.72874e-05
2.39033e-05
-1.58393e-05
2.50919e-05
-1.42511e-05
2.61794e-05
-1.25779e-05
2.71648e-05
-1.08638e-05
2.80474e-05
-9.14437e-06
2.88276e-05
-7.44164e-06
2.95028e-05
-5.75808e-06
3.00637e-05
-4.0803e-06
3.04939e-05
-2.38925e-06
3.07732e-05
-6.68692e-07
3.08789e-05
1.09223e-06
3.0787e-05
2.89924e-06
3.04727e-05
4.75054e-06
2.99129e-05
6.63299e-06
2.90886e-05
8.52314e-06
2.79859e-05
1.03884e-05
2.6599e-05
1.21865e-05
2.49353e-05
1.38656e-05
2.30182e-05
1.53705e-05
2.08856e-05
1.66572e-05
1.85799e-05
1.77098e-05
1.61383e-05
1.85408e-05
1.35889e-05
1.91784e-05
1.09531e-05
1.96527e-05
8.24933e-06
1.9988e-05
5.49544e-06
2.02032e-05
2.70993e-06
2.03111e-05
-8.68506e-08
2.03191e-05
-2.87349e-06
2.02315e-05
-5.62801e-06
2.00508e-05
-8.3283e-06
1.97763e-05
-1.09544e-05
1.94083e-05
-1.34905e-05
1.89462e-05
-1.59241e-05
1.83839e-05
-1.82436e-05
1.77066e-05
-2.04316e-05
1.6886e-05
-2.24596e-05
1.58846e-05
-2.42885e-05
1.46735e-05
-2.58768e-05
1.3248e-05
-2.7193e-05
1.16364e-05
-2.82226e-05
9.89035e-06
-2.89672e-05
8.06603e-06
-2.94399e-05
6.21248e-06
-2.96616e-05
4.36866e-06
-2.96588e-05
2.56333e-06
-2.94612e-05
8.13345e-07
-2.90977e-05
-8.79096e-07
-2.85943e-05
-2.52268e-06
-2.79735e-05
-4.13151e-06
-2.72536e-05
-5.72345e-06
-2.64465e-05
-7.31913e-06
-2.55556e-05
-8.937e-06
-2.45765e-05
-1.05829e-05
-2.35031e-05
-1.22385e-05
-2.23332e-05
-1.38587e-05
-2.10675e-05
-1.53831e-05
-1.97021e-05
-1.67466e-05
-1.82225e-05
-1.78779e-05
-1.66031e-05
-1.86889e-05
-1.48126e-05
-1.90689e-05
-1.28245e-05
-1.88849e-05
-1.06342e-05
-1.79906e-05
-8.28021e-06
-1.62524e-05
-5.8652e-06
-1.35999e-05
-3.56991e-06
-1.00983e-05
-1.65163e-06
-6.05393e-06
-3.98783e-07
-2.15853e-06
3.21963e-07
6.74103e-07
-4.16716e-07
2.50806e-06
-4.28838e-06
5.05986e-06
-9.15516e-06
7.86115e-06
-1.36649e-05
1.05723e-05
-1.72251e-05
1.30053e-05
-1.96761e-05
1.50914e-05
-2.10759e-05
1.68409e-05
-2.1588e-05
1.83115e-05
-2.14075e-05
1.95786e-05
-2.07155e-05
2.07118e-05
-1.96572e-05
2.17646e-05
-1.83418e-05
2.27711e-05
-1.68471e-05
2.37458e-05
-1.52269e-05
2.46877e-05
-1.35206e-05
2.55888e-05
-1.17654e-05
2.64435e-05
-9.99955e-06
2.72507e-05
-8.24933e-06
2.80055e-05
-6.51328e-06
2.86921e-05
-4.76711e-06
2.92846e-05
-2.98195e-06
2.97531e-05
-1.13724e-06
3.0067e-05
7.78484e-07
3.01938e-05
2.77257e-06
3.00994e-05
4.84511e-06
2.97519e-05
6.98059e-06
2.91239e-05
9.15139e-06
2.81918e-05
1.13207e-05
2.694e-05
1.34384e-05
2.53689e-05
1.5437e-05
2.35023e-05
1.72373e-05
2.13874e-05
1.87723e-05
1.90771e-05
2.00203e-05
1.66137e-05
2.10043e-05
1.40244e-05
2.17679e-05
1.13282e-05
2.23491e-05
8.54341e-06
2.27731e-05
5.68937e-06
2.30575e-05
2.78842e-06
2.32125e-05
-1.3274e-07
2.32408e-05
-3.04539e-06
2.31448e-05
-5.91992e-06
2.2926e-05
-8.72559e-06
2.25827e-05
-1.14351e-05
2.21185e-05
-1.40291e-05
2.1541e-05
-1.64955e-05
2.08512e-05
-1.88277e-05
2.00396e-05
-2.10133e-05
1.90726e-05
-2.30215e-05
1.78937e-05
-2.4804e-05
1.64568e-05
-2.63073e-05
1.47521e-05
-2.74932e-05
1.2823e-05
-2.83506e-05
1.07483e-05
-2.88904e-05
8.60631e-06
-2.91362e-05
6.45853e-06
-2.91183e-05
4.35096e-06
-2.88732e-05
2.31862e-06
-2.84423e-05
3.82844e-07
-2.78648e-05
-1.45613e-06
-2.71753e-05
-3.21185e-06
-2.64051e-05
-4.90131e-06
-2.5583e-05
-6.54519e-06
-2.473e-05
-8.17176e-06
-2.38542e-05
-9.81248e-06
-2.29508e-05
-1.1486e-05
-2.20122e-05
-1.3177e-05
-2.10395e-05
-1.48314e-05
-2.00407e-05
-1.6382e-05
-1.90143e-05
-1.77732e-05
-1.79368e-05
-1.89557e-05
-1.67605e-05
-1.98655e-05
-1.54186e-05
-2.04113e-05
-1.38353e-05
-2.04689e-05
-1.19475e-05
-1.98791e-05
-9.73571e-06
-1.84656e-05
-7.25681e-06
-1.60808e-05
-4.68049e-06
-1.26763e-05
-2.32179e-06
-8.4134e-06
-6.23383e-07
-3.85652e-06
-3.0371e-07
1.07174e-06
-1.48887e-06
3.59548e-06
-6.81155e-06
6.74153e-06
-1.23011e-05
9.84114e-06
-1.67646e-05
1.25198e-05
-1.99053e-05
1.46457e-05
-2.18025e-05
1.62352e-05
-2.26652e-05
1.73835e-05
-2.27365e-05
1.82233e-05
-2.22478e-05
1.88891e-05
-2.13817e-05
1.94893e-05
-2.0258e-05
2.00988e-05
-1.89519e-05
2.07602e-05
-1.75093e-05
2.14866e-05
-1.59539e-05
2.22667e-05
-1.4301e-05
2.30788e-05
-1.25777e-05
2.39099e-05
-1.08306e-05
2.47588e-05
-9.09824e-06
2.56194e-05
-7.37367e-06
2.64669e-05
-5.61441e-06
2.72626e-05
-3.77727e-06
2.79645e-05
-1.83872e-06
2.85342e-05
2.09324e-07
2.89317e-05
2.37564e-06
2.91121e-05
4.66517e-06
2.90352e-05
7.05802e-06
2.86656e-05
9.52138e-06
2.79695e-05
1.20171e-05
2.69172e-05
1.44909e-05
2.54965e-05
1.6858e-05
2.37298e-05
1.90041e-05
2.16782e-05
2.0824e-05
1.94094e-05
2.22891e-05
1.69705e-05
2.34431e-05
1.43831e-05
2.43553e-05
1.16597e-05
2.50725e-05
8.81798e-06
2.56149e-05
5.87995e-06
2.59956e-05
2.87286e-06
2.62197e-05
-1.67252e-07
2.62811e-05
-3.20185e-06
2.61796e-05
-6.192e-06
2.59162e-05
-9.09442e-06
2.54852e-05
-1.18704e-05
2.48946e-05
-1.44952e-05
2.4166e-05
-1.69566e-05
2.33128e-05
-1.92573e-05
2.23406e-05
-2.13966e-05
2.12122e-05
-2.33429e-05
1.98402e-05
-2.50361e-05
1.81502e-05
-2.64047e-05
1.61208e-05
-2.74015e-05
1.38199e-05
-2.8023e-05
1.137e-05
-2.82956e-05
8.87907e-06
-2.82554e-05
6.41837e-06
-2.79416e-05
4.03731e-06
-2.74007e-05
1.77799e-06
-2.66872e-05
-3.30314e-07
-2.58511e-05