/*--------------------------------*- C++ -*----------------------------------*\
| =========                 |                                                 |
| \\      /  F ield         | OpenFOAM: The Open Source CFD Toolbox           |
|  \\    /   O peration     | Version:  2412                                  |
|   \\  /    A nd           | Website:  www.openfoam.com                      |
|    \\/     M anipulation  |                                                 |
\*---------------------------------------------------------------------------*/
FoamFile
{
    version     2.0;
    format      ascii;
    arch        "LSB;label=32;scalar=64";
    class       volScalarField;
    location    "5.3";
    object      alpha.mercury;
}
// * * * * * * * * * * * * * * * * * * * * * * * * * * * * * * * * * * * * * //

dimensions      [0 0 0 0 0 0 0];

internalField   nonuniform List<scalar> 
6400
(
1
0.999999
0.999999
1
1
1
1
1
1
1
1
1
1
1
1
1
0.999999
0.999998
0.999998
1
1
1
0.999999
0.999999
1
1
1
1
1
1
0.999999
0.999999
0.999999
0.999999
0.999998
0.999997
0.999997
0.999999
1
1
0.999999
0.999998
0.999999
1
1
1
0.999998
0.999997
0.999996
0.999994
0.999995
0.999996
0.999997
0.999997
0.999998
1
1
1
1
1
1
1
1
1
1
1
1
1
1
1
1
0.999999
0.999996
0.999995
0.999997
0.999999
1
1
0.999998
0.999999
1
1
1
1
1
1
1
1
1
1
1
1
1
1
0.999998
0.999998
0.999998
0.999999
0.999999
0.999997
0.999997
0.999999
1
1
1
1
1
1
1
1
0.999999
0.999998
0.999996
0.999996
0.999997
0.999998
0.999998
0.999997
0.999997
0.999997
0.999999
1
0.999999
0.999998
0.999996
0.999995
0.999994
0.999993
0.999992
0.999992
0.999993
0.999997
0.999999
1
1
1
1
1
1
1
1
1
1
1
1
1
1
1
1
0.999998
0.999995
0.999995
0.999995
0.999996
0.999997
0.999999
0.999999
0.999997
0.999997
1
1
1
1
1
1
1
1
1
1
1
1
0.999999
0.999999
0.999998
0.999999
0.999999
0.999998
0.999997
0.999997
0.999999
1
1
1.00001
1
1
1
1
1
1
0.999999
0.999998
0.999997
0.999997
0.999998
0.999998
0.999996
0.999995
0.999995
0.999998
0.999999
1
0.999999
0.999998
0.999997
0.999997
0.999996
0.999995
0.999995
0.999997
0.999999
1
1
1
1
1
1
1
1
1
1
1
1
1
1
1
1
1
0.999999
0.999997
0.999997
0.999998
0.999998
0.999998
0.999998
0.999998
0.999999
0.999999
0.999999
1
1
1
1
1
1
1
1
1
1
1
0.999999
0.999999
0.999999
1
0.999999
0.999999
1
1
1
1
1
1
1
1
1
1
1
1
1
1
1
0.999999
0.999998
0.999996
0.999996
0.999997
0.999998
0.999997
0.999997
0.999998
0.999999
1
1
1
0.999999
0.999998
0.999998
0.999998
0.999998
0.999999
1
1
1
1
1
1
1
1
0.999999
0.999998
0.999998
0.999999
1
1
1
1
1
1
1
1
1
1
1
1
1
1
1
1
1
1
1
1
1
1
1
1
1
1
1
1
1
1
1
1
1
1
1
1
1
1
1
1
1
0.999999
1
1
1
1
1
1
1
1
0.999999
0.999998
0.999996
0.999996
0.999998
0.999998
0.999999
0.999999
0.999999
1
1
1
1
0.999999
0.999998
0.999998
0.999997
0.999996
0.999996
0.999996
0.999998
0.999999
0.999999
0.999999
0.999998
0.999998
0.999999
0.999999
1
1
1
1
1
1
1
1
1
1
1
1
1
1
1
1
1
1
1
0.999999
0.999999
1
1
1
1
1
1
1
1
1
1
1
1
1
1
1
1
1
1
1
1
1
1
1
1
1
1
1
1
1
1
0.999999
0.999999
0.999998
0.999997
0.999996
0.999997
0.999999
0.999999
0.999999
0.999998
0.999998
0.999998
0.999998
0.999997
0.999997
0.999996
0.999994
0.999994
0.999994
0.999994
0.999994
0.999994
0.999995
0.999996
0.999997
0.999998
0.999999
1
1
1
1
1
1
1
1
1
1
1
1
1
1
1
1
1
1
0.999997
0.999996
0.999995
0.999996
0.999996
1
1
1
1
1
0.999999
1
1
1
1
1
1
1
1
1
1
0.999999
0.999998
0.999998
0.999999
1
1
1
1
1
1
1
1
0.999999
0.999997
0.999997
0.999998
0.999999
0.999999
0.999998
0.999998
0.999999
1
1
0.999998
0.999997
0.999996
0.999996
0.999995
0.999995
0.999995
0.999996
0.999996
0.999997
0.999997
0.999998
0.999998
0.999998
0.999999
0.999999
1
1
1
1
1
1
0.999999
0.999998
0.999996
0.999994
0.999996
0.999999
1
1
1
1
1
0.999999
0.999996
0.999995
0.999995
0.999996
0.999998
1
0.999996
1
0.999999
0.999999
0.999999
0.999999
0.999999
0.999999
0.999999
0.999999
1
1
1
0.999999
0.999999
0.999998
0.999998
0.999998
0.999998
0.999999
1
1
1
1
1
0.999998
0.999999
0.999999
0.999999
0.999999
0.999997
0.999997
0.999999
1
1
0.999999
0.999999
0.999999
1
1
0.999999
0.999999
0.999999
0.999999
0.999999
0.999999
1
1
1
1
1
1
1
1
1
1
1
1
1
1
1
1
0.999999
0.999996
0.999994
0.999994
0.999994
0.999998
1
1
1
1
1
0.999998
0.999996
0.999997
0.999999
1
1
1
1
0.999999
0.999998
0.999998
0.999998
0.999999
0.999998
0.999998
0.999998
0.999998
0.999999
1
1
1
1
1
1
1
1
1
1
1
1
1
0.999996
0.999996
0.999997
1
1
1
1
0.999998
0.999998
1
1
1
0.999999
0.999999
0.999999
1
0.999999
1
1
1
1
1
1
1
1
1
1
1
1
1
1
1
1
1
1
1
1
1
0.999999
0.999998
0.999997
0.999997
0.999997
0.999998
0.999998
0.999999
0.999998
0.999998
0.999999
1
0.999999
0.999998
1
1
1
1
1
0.999999
0.999998
0.999997
0.999996
0.999996
0.999996
0.999998
0.999999
1
1
1
1
1
1
1
1
1
1
1
1
0.999999
0.999999
1
0.999999
0.999999
0.999999
1
1
1
1
0.999999
0.999999
1
1
1
1
0.999999
0.999998
0.999997
0.999997
0.999998
0.999999
0.999999
1
1
1
1
1
0.999999
0.999999
0.999999
0.999998
0.999998
0.999999
1
1
1
1
1
1
1
1
1
1
1
1
0.999998
0.999995
0.999994
0.999994
0.999994
0.999999
0.999999
0.999999
0.999999
0.999999
1
1
0.999998
1
0.999998
0.999995
0.999994
0.999994
0.999996
0.999999
1
1
1
1
1
1
1
1
1
1
1
1
1
0.999999
1
1
1
1
1
1
1
1
1
1
1
1
1
1
1
1
1
1
1
0.999999
0.999998
0.999998
0.999998
0.999998
0.999999
1
1
1
1
1
1
1
1
1
1
1
1
1
1
1
1
1
1
1
1
1
1
1
1
0.999999
1
1
1
1
1
1
1
1
1
1
0.999997
0.999994
0.999994
0.999995
0.999999
1
1
1
1
1
1
1
1
1
1
1
1
1
1
1
1
1
1
1
1
1
1
1
1
1.00001
1
1
1
1
1
1
0.999999
0.999998
0.999998
0.999998
0.999997
0.999996
0.999997
0.999999
1
1
1
1
1
1
1
1
1
1
1
1
1
1
1
1
1
1
1
1
1
1
1
1
1
1
1
1
1
1
1
1
1
1
1
1
0.999997
0.999997
0.999999
1
1
1
1
1
1
1
1
1
1
1
1
1
1
1
1
1
1
1
1
1
1
1
1
1
1
1.00001
1
1
1
0.999999
0.999999
0.999999
0.999999
0.999998
0.999998
0.999997
0.999996
0.999996
0.999997
0.999999
1
1
1
1
1
1
1
1
1
1
1
1
1
1
1
1
1
1
1
1
0.999999
0.999999
0.999999
1
1
1
1
1
1
0.999999
1
1
1
1
1
0.999998
0.999999
1
1
1
1
1
1
1
1
1
0.999999
0.999999
0.999999
0.999999
0.999999
0.999999
0.999999
1
1
1
1
1
1
1
1
1
1
1
1
1
1
1
1
1
1
1
1
1
0.999999
0.999996
0.999996
0.999999
1
1
1
1
1.00001
1.00001
1.00001
1.00001
1
1
1
1
1
1
1
1
1
1
1
1
1
1
1
1
1
1
1
1
1
1
0.999999
0.999997
1
1
1
1
1
0.999999
1
1
1
1
1
1
1
1
1
1
1
1
0.999999
0.999998
0.999998
1
1
1
1
0.999999
0.999998
0.999999
1
1
1
1
1
1
1
1.00001
1
1
1
1
1
1
1
1
0.999998
0.999998
0.999999
1
1
1
1
1
1
1
1
1
1
1
1
1
1
1
1
1
1
1
1
1
1
1
1
1
1
1
1
1
1
0.999999
0.999994
0.999995
1
1
1
1
1
0.999999
1
1
1
1
1
1
1
1
1
1
1
0.999999
0.999997
0.999997
0.999997
0.999998
0.999999
0.999999
0.999997
0.999997
0.999997
0.999998
0.999999
0.999999
0.999999
1
1
1
1
1
1
1
1
1
1
1
1
0.999999
0.999999
1
1
1
1
1
1
1
1
1
1
1
1
1
1
0.999999
0.999999
0.999998
0.999999
0.999999
0.999999
1
1
1
1
1
1
1
1
1
0.999999
1
1
0.999999
0.999995
0.999995
1
1
1
1
1
0.999998
1
1
1
1
1
1
1
1
1
1
1
0.999999
0.999999
0.999999
0.999999
1
1
1
0.999998
0.999997
0.999997
0.999999
1
1
1
1
1
0.999999
0.999999
1
1
1
1
1
1
1
1
0.999999
0.999999
1
1
1
1
1
1
1
1
1
1
1
1
1
0.999999
0.999999
0.999999
0.999999
0.999998
0.999999
0.999999
0.999999
0.999999
0.999999
1
1
1
1
1
1
0.999999
1
1
0.999999
0.999999
1
1
1
1
1
1
0.999998
1
1
1
1
1
1
1
1
1
1
1
0.999999
0.999998
0.999999
0.999999
1
1
0.999999
0.999999
0.999999
0.999999
1
1
1
1
1
1
1
1
1
1
1
1
1
1
0.999999
0.999999
0.999998
0.999997
0.999998
0.999998
0.999998
0.999999
0.999999
0.999999
1
1
1
1
1
1
1
1
1
1
1
1
0.999999
0.999999
1
1
1
1
1
1
1
1
0.999999
0.999999
0.999999
0.999999
0.999999
0.999999
0.999999
1
1
1
1
1
0.999999
0.995987
0.990004
0.992005
0.994125
0.995928
0.997394
0.99861
0.999543
0.99997
0.999972
0.999969
0.999969
0.999975
0.999983
0.999991
0.999997
0.999999
1
1
1
1
1
1
1
1
1
1
1
1
1
1
1
0.999991
0.999996
0.999983
0.999967
0.999952
0.999939
0.999929
0.999926
0.999926
0.999931
0.99994
0.999954
0.999972
0.99999
0.999999
1
1
1
1
1
1
1
1
1
1
1
1
1
1
1
1
0.999999
0.999996
0.999989
0.999976
0.999961
0.999951
0.999948
0.999952
0.999962
0.999249
0.996968
0.993383
0.988847
0.983463
0.977117
0.971413
0.994258
0.462503
0.475369
0.483668
0.490986
0.502046
0.516916
0.53737
0.565381
0.602409
0.647176
0.69521
0.748631
0.804628
0.860091
0.91053
0.951846
0.982499
0.997988
0.999986
1
1
1
1
1
1
1
1
0.993743
0.974167
0.958166
0.937356
0.910529
0.886446
0.878037
0.882873
0.893335
0.902255
0.90905
0.913085
0.914046
0.91147
0.9054
0.895682
0.882742
0.867024
0.854419
0.855821
0.870998
0.895283
0.915693
0.932909
0.95716
0.985899
1
1
1
1
1
1
1
1
0.999984
0.998734
0.992022
0.975587
0.945584
0.90108
0.846308
0.787972
0.73026
0.672326
0.611549
0.556266
0.507615
0.469291
0.444975
0.433426
0.426243
0.410876
0.3902
2.02882e-05
0.000722394
0.000653364
0.000186288
2.95886e-06
2.95827e-06
2.95886e-06
3.07147e-06
6.37109e-06
0.00266603
0.0187792
0.041144
0.0741119
0.12129
0.183585
0.260559
0.349269
0.44467
0.534193
0.62035
0.702304
0.766851
0.80268
0.803551
0.767574
0.695754
0.581222
0.444739
0.335148
0.25612
0.197806
0.156734
0.136976
0.136832
0.14596
0.16215
0.176943
0.188396
0.195636
0.19744
0.193396
0.183449
0.168451
0.149914
0.129509
0.114719
0.109702
0.116793
0.142807
0.184881
0.244112
0.329318
0.437669
0.555299
0.657636
0.732282
0.771615
0.777284
0.754784
0.709239
0.650523
0.587475
0.514947
0.427021
0.334714
0.244255
0.166362
0.1058
0.0620059
0.0307742
0.00657402
8.91619e-06
2.47487e-06
2.51496e-06
2.67069e-06
0.00017385
0.000554
0.000830395
0.000338733
5.07186e-05
3.15575e-06
3.15617e-06
3.07388e-06
3.13131e-06
3.17408e-06
2.98181e-06
3.05631e-06
3.72592e-06
3.1122e-06
3.36479e-06
3.53472e-06
3.57605e-06
3.62591e-06
3.714e-06
3.7431e-06
3.8377e-06
4.19993e-06
4.55612e-06
0.00533355
0.0177601
0.038605
0.069045
0.100232
0.11165
0.0964394
0.060606
0.0241909
0.0042486
0.00078444
0.000355925
0.000139249
4.06854e-07
4.48898e-07
4.47587e-07
4.00048e-07
3.05656e-07
2.12751e-07
1.37254e-07
8.12075e-08
4.03038e-08
2.272e-08
2.23562e-08
2.29915e-08
2.29915e-08
2.39646e-08
3.01469e-08
5.00779e-08
7.51751e-08
7.41183e-05
0.000242808
0.000553801
0.0010686
0.00456572
0.0193827
0.0455394
0.0735832
0.0874382
0.0825166
0.0620167
0.0387192
0.0206184
0.00771861
1.76966e-06
1.76965e-06
1.76966e-06
1.76966e-06
1.76967e-06
1.77025e-06
1.77581e-06
1.81613e-06
2.00717e-06
2.25448e-06
2.4144e-06
2.47487e-06
2.94062e-06
3.66178e-06
5.59759e-06
8.17722e-06
2.08449e-05
3.16822e-05
3.55002e-06
5.21879e-06
2.98685e-06
2.92736e-06
4.49504e-06
4.5321e-06
4.52308e-06
3.20322e-06
3.11058e-06
9.86135e-06
7.34876e-06
7.9013e-06
1.11527e-05
6.62198e-06
8.52944e-06
2.74188e-05
4.40306e-05
2.47086e-05
6.37137e-06
6.36831e-06
6.37137e-06
6.41198e-06
4.11922e-05
0.000175434
0.000283801
0.000312855
0.000268884
0.000158878
5.82833e-05
2.35068e-05
1.04322e-05
4.24523e-06
7.12281e-06
1.12043e-06
2.32332e-06
3.16217e-06
2.55141e-06
1.80472e-06
1.26291e-06
8.51572e-07
4.54645e-07
2.14649e-08
2.23562e-08
2.501e-08
1.03317e-07
7.91898e-08
8.24078e-07
1.27979e-06
7.76646e-06
3.00157e-05
6.38917e-05
0.000136836
0.000269963
0.000335276
0.000257416
0.000181508
9.76836e-05
2.96289e-05
1.85886e-06
1.85863e-06
1.85935e-06
1.81508e-06
1.7706e-06
1.76966e-06
1.76965e-06
1.76968e-06
1.77026e-06
1.77626e-06
1.81603e-06
1.2186e-05
1.97809e-05
2.04649e-05
9.92582e-06
2.54519e-06
2.75991e-06
2.93781e-06
3.71698e-06
6.48848e-06
2.48369e-05
3.02518e-05
3.77907e-06
1.74182e-06
6.43346e-07
6.35213e-07
6.34168e-07
3.67032e-06
4.5321e-06
3.21365e-06
3.09555e-06
2.76866e-05
2.20209e-05
1.79534e-05
3.51173e-06
2.45874e-05
5.80134e-05
5.80773e-05
5.78488e-05
1.48404e-05
6.36915e-06
6.37137e-06
9.02045e-06
1.82947e-05
2.25564e-05
6.17299e-05
5.61191e-05
4.40971e-05
3.61081e-05
2.09628e-05
1.06969e-05
1.24525e-05
8.24965e-06
4.56544e-06
4.74076e-06
7.43552e-06
8.32554e-06
8.32555e-06
8.24852e-06
6.07336e-06
3.08454e-06
2.06304e-06
5.45879e-07
1.88808e-08
2.15528e-08
3.30554e-08
2.51484e-06
1.71887e-05
2.69995e-05
2.34143e-05
2.17796e-05
2.38308e-05
2.00006e-05
2.80838e-05
5.86732e-05
7.39214e-05
4.53506e-05
2.30628e-05
1.22304e-05
1.11445e-05
8.26167e-06
9.01048e-06
5.22541e-06
1.8826e-06
1.85639e-06
1.7706e-06
1.76981e-06
1.77027e-06
1.77236e-06
2.08994e-06
2.09452e-06
2.08506e-06
2.34634e-06
2.23223e-05
3.32636e-05
3.33101e-05
3.31919e-05
2.17138e-05
5.99655e-06
8.79959e-06
1.23045e-05
2.37506e-05
1.56312e-06
6.43278e-07
6.35213e-07
6.33777e-07
6.34372e-07
7.58515e-07
3.53757e-06
3.67048e-06
3.09555e-06
3.00226e-05
1.67991e-05
5.30987e-06
3.05056e-06
5.31391e-06
4.01984e-05
5.26114e-05
6.19543e-06
6.19671e-06
6.30447e-06
6.42618e-06
6.83782e-06
1.15172e-05
6.45663e-05
7.72703e-05
2.90749e-05
1.05844e-05
1.02924e-05
8.38386e-06
7.61359e-06
1.03172e-05
5.1536e-06
4.92831e-06
8.36499e-06
8.36135e-06
7.74229e-06
4.46829e-06
1.11073e-06
1.27827e-08
1.29793e-08
1.32264e-08
1.3642e-08
1.49987e-08
2.32542e-08
7.99124e-08
6.76351e-06
3.33893e-05
3.38509e-05
3.3884e-05
3.38509e-05
2.63178e-05
1.13814e-05
7.64895e-06
1.31491e-05
1.67649e-05
1.05435e-05
5.19582e-06
2.96524e-06
1.02329e-05
3.87999e-05
3.89113e-05
3.17357e-05
2.4835e-05
2.07328e-05
5.12935e-06
1.77696e-06
1.77077e-06
1.77169e-06
1.77281e-06
2.31899e-06
5.72277e-06
4.96333e-06
1.73919e-06
1.7394e-06
4.25114e-06
5.91108e-06
3.0657e-05
3.08896e-05
3.08719e-05
2.32633e-05
2.10571e-05
6.86096e-07
6.53187e-07
6.42761e-07
6.35213e-07
6.34235e-07
1.05689e-06
3.84215e-06
3.43268e-06
3.09555e-06
3.84484e-05
9.82755e-06
2.64183e-06
2.79126e-06
4.72599e-06
2.15749e-05
1.78386e-05
6.1649e-06
6.1702e-06
6.19671e-06
6.30447e-06
6.79392e-06
1.79805e-05
6.71395e-05
7.58023e-05
2.19784e-05
7.41446e-06
7.40257e-06
7.22669e-06
7.22318e-06
8.47741e-06
8.6245e-06
8.63679e-06
8.51794e-06
3.47233e-06
1.27091e-08
1.26344e-08
1.25154e-08
1.26494e-08
1.28338e-08
1.31453e-08
1.34644e-08
1.40924e-08
1.71362e-08
2.60617e-08
7.77707e-08
7.77686e-06
2.96593e-05
3.38509e-05
3.39038e-05
3.37218e-05
1.05883e-05
4.0259e-06
4.73155e-06
4.53454e-06
3.39157e-06
2.62063e-06
2.35997e-06
2.35297e-06
2.40089e-06
2.41031e-06
2.4014e-06
3.32665e-05
5.30057e-05
4.82526e-05
9.19423e-06
1.78534e-06
1.77249e-06
1.77435e-06
1.77949e-06
4.92681e-06
7.30667e-06
7.31259e-06
5.25485e-06
1.67664e-06
1.62261e-06
1.55061e-06
5.32528e-06
2.74106e-05
2.7367e-05
2.12894e-05
6.96256e-07
6.77786e-07
6.53187e-07
6.4275e-07
9.539e-07
2.62204e-06
3.90886e-06
3.24831e-06
3.19571e-06
3.86418e-05
1.3339e-05
2.60559e-06
2.64194e-06
2.79126e-06
1.35891e-05
1.86055e-05
6.16906e-06
6.16128e-06
6.1702e-06
6.25361e-06
6.73125e-06
3.32568e-05
6.20171e-05
5.85996e-05
8.83218e-06
7.08309e-06
7.08424e-06
7.0748e-06
7.11573e-06
8.03581e-06
8.68012e-06
8.56994e-06
2.79825e-06
2.45292e-08
1.26344e-08
1.25154e-08
1.20696e-08
1.39484e-08
1.69408e-08
1.69483e-08
1.66369e-08
1.63426e-08
1.6668e-08
1.7999e-08
2.65576e-08
7.77439e-08
7.52745e-07
2.78741e-05
3.38399e-05
3.27504e-05
4.02622e-06
3.50374e-06
3.26564e-06
2.80988e-06
2.47431e-06
2.32886e-06
2.29267e-06
2.29116e-06
2.29837e-06
2.3418e-06
2.39352e-06
7.06085e-06
5.61956e-05
5.65927e-05
5.10911e-05
8.50593e-06
2.41597e-06
1.84069e-06
1.78659e-06
2.01989e-06
7.23158e-06
7.33455e-06
7.33455e-06
7.33455e-06
2.73902e-06
1.48685e-06
1.49085e-06
3.97094e-06
1.21117e-05
4.99551e-05
7.38875e-07
7.64057e-07
6.77974e-07
1.9865e-06
4.61584e-06
3.72972e-06
3.36734e-06
3.26835e-06
3.49435e-06
3.86418e-05
2.76476e-05
2.58041e-06
2.59407e-06
4.52611e-06
1.99121e-05
2.02445e-05
1.95708e-05
8.37845e-06
6.25361e-06
6.31855e-06
6.60575e-06
2.983e-05
5.88304e-05
5.49797e-05
1.30111e-05
7.04803e-06
7.04889e-06
7.05426e-06
7.0748e-06
7.15406e-06
8.71841e-06
6.08271e-06
2.24597e-06
1.91933e-06
1.16943e-07
1.20288e-08
1.1645e-08
1.39676e-08
1.69475e-08
1.69471e-08
1.69348e-08
1.65944e-08
1.65849e-08
1.6941e-08
1.98631e-08
2.85201e-08
9.61038e-08
2.10908e-06
2.63888e-05
3.14543e-05
8.84537e-06
3.40112e-06
2.80994e-06
2.47422e-06
2.32886e-06
2.29267e-06
2.2915e-06
2.29267e-06
3.59625e-06
9.22662e-06
6.89234e-06
4.48768e-05
5.65927e-05
5.66838e-05
5.66591e-05
5.24753e-05
1.07946e-05
6.31217e-06
4.11628e-06
1.00051e-06
8.11503e-07
1.25448e-06
6.79848e-06
7.32659e-06
2.91422e-06
1.49085e-06
1.48719e-06
4.08811e-06
6.78328e-06
5.02046e-05
9.36213e-07
1.91908e-06
7.96431e-07
5.95155e-06
5.14899e-06
3.37986e-06
3.35617e-06
3.31129e-06
3.2688e-05
3.86418e-05
1.93178e-05
2.56889e-06
2.56687e-06
2.62485e-06
9.70615e-06
2.01856e-05
2.02445e-05
2.01856e-05
1.9749e-05
9.55677e-06
8.82101e-06
3.55819e-05
5.53414e-05
5.30243e-05
2.21526e-05
7.04875e-06
7.04713e-06
7.04889e-06
7.05426e-06
7.08158e-06
8.06573e-06
9.75307e-06
9.53297e-06
6.71014e-06
1.50585e-08
1.1645e-08
1.11765e-08
1.11035e-08
1.54028e-08
1.69457e-08
1.6935e-08
1.65547e-08
1.65802e-08
1.65845e-08
1.57923e-08
1.1165e-08
7.32079e-09
2.05597e-08
1.02523e-06
1.60016e-05
1.96559e-05
1.96559e-05
1.97715e-05
1.22868e-05
1.05615e-05
9.20297e-06
6.10712e-06
2.30102e-06
2.98907e-05
5.1571e-05
5.25259e-05
5.38731e-05
5.47962e-05
5.65927e-05
4.0561e-05
1.17847e-05
4.16128e-06
5.41771e-06
4.70877e-06
1.12155e-06
5.64092e-07
6.82997e-07
7.94841e-07
2.47975e-06
4.98703e-06
4.21493e-06
1.52841e-06
1.58664e-06
2.27485e-06
5.02397e-05
2.63787e-06
1.99546e-05
3.07799e-06
5.96478e-06
5.78689e-06
3.3581e-06
3.37986e-06
1.16094e-05
3.74108e-05
3.83925e-05
2.81248e-06
2.56655e-06
2.56889e-06
2.56678e-06
2.51818e-06
4.29579e-06
7.5637e-06
9.2051e-06
1.65478e-05
1.78867e-05
1.79033e-05
1.62213e-05
1.62563e-05
2.56596e-05
8.39237e-05
5.05613e-05
7.04889e-06
7.04976e-06
7.07689e-06
7.29275e-06
2.69822e-05
7.88586e-05
5.59095e-05
8.85584e-07
7.85933e-07
1.32661e-08
1.05091e-08
1.02e-08
1.02184e-08
1.47978e-08
1.6906e-08
1.54365e-08
1.86252e-08
2.61629e-08
2.32696e-08
8.61057e-09
3.87398e-09
3.67553e-09
4.11044e-09
3.34399e-09
5.35276e-07
6.19908e-06
2.41582e-05
3.50624e-05
3.54483e-05
3.56082e-05
3.56353e-05
3.53208e-05
2.58517e-05
2.28382e-05
2.11268e-05
1.21525e-05
3.26804e-06
5.4616e-08
3.25658e-07
4.28863e-08
1.15972e-07
1.90612e-07
2.1158e-07
7.13474e-08
1.52984e-07
3.95897e-06
4.97656e-06
4.99097e-06
4.97919e-06
3.35023e-06
1.58664e-06
1.66347e-06
1.66601e-06
4.93023e-05
1.78328e-05
2.69551e-05
1.62776e-05
4.09743e-06
3.87617e-06
3.37986e-06
4.02796e-06
3.26097e-05
3.66785e-05
9.60502e-06
2.58804e-06
2.56889e-06
2.57471e-06
2.1247e-05
2.57037e-06
1.0902e-06
7.59144e-07
6.23525e-07
1.08883e-06
2.57394e-06
4.72275e-06
5.27936e-06
1.73972e-05
8.2262e-05
8.41761e-05
8.39237e-05
2.0841e-05
7.07641e-06
7.13943e-06
7.93938e-06
7.13706e-05
0.00010364
0.000103391
3.03561e-05
7.55414e-07
6.57382e-07
1.1904e-08
1.04713e-08
9.42317e-09
9.68519e-09
1.04933e-08
1.37489e-08
3.00994e-08
3.17704e-08
3.17704e-08
1.52973e-08
3.88146e-09
3.87197e-09
3.61823e-09
2.91087e-09
2.26906e-09
1.79904e-09
1.58576e-09
1.171e-09
6.93547e-10
5.76252e-10
1.43197e-07
6.12101e-10
6.52874e-10
1.04794e-09
2.71391e-09
5.1315e-09
7.28357e-09
8.36839e-09
1.19012e-08
2.08931e-08
2.61464e-08
2.63456e-08
2.98569e-08
3.47977e-08
2.41929e-06
4.96237e-06
4.99097e-06
4.98265e-06
3.16469e-06
1.67742e-06
1.66346e-06
1.66346e-06
1.66347e-06
4.82876e-05
2.69551e-05
2.70259e-05
2.69551e-05
3.65084e-06
3.56437e-06
3.49317e-06
3.98826e-06
1.63999e-05
1.30623e-05
2.88089e-06
2.74255e-06
2.58804e-06
2.28305e-05
3.13813e-05
2.90926e-05
5.11326e-06
6.23525e-07
6.06887e-07
5.90249e-07
4.14064e-06
6.48158e-06
6.02724e-06
1.12058e-05
7.65442e-05
8.41761e-05
8.41761e-05
2.38159e-05
7.12533e-06
7.16208e-06
8.07215e-06
7.89281e-05
0.000103603
0.000103661
9.04594e-05
1.05495e-06
4.29691e-06
9.80524e-07
9.3345e-09
9.15088e-09
9.0926e-09
9.63471e-09
8.29058e-09
1.39137e-08
2.94636e-08
3.04771e-08
1.22848e-08
3.88146e-09
4.02664e-09
4.1487e-09
3.61292e-09
2.89151e-09
1.97061e-09
1.15186e-09
7.13102e-10
5.76252e-10
5.52958e-10
5.59217e-10
5.50949e-10
1.59231e-09
3.40311e-08
4.74627e-08
4.58332e-08
1.90572e-08
9.1256e-09
1.80718e-11
6.61035e-11
5.59069e-09
3.25885e-07
3.02242e-07
5.02902e-08
1.28878e-06
2.27182e-06
1.41433e-06
4.24364e-07
4.78104e-07
9.97618e-06
1.67467e-06
1.66347e-06
1.66601e-06
4.82947e-05
2.70259e-05
2.70259e-05
2.70259e-05
2.34191e-05
3.57127e-06
3.57127e-06
3.62244e-06
3.53214e-06
3.11333e-06
2.93655e-06
2.88089e-06
1.71502e-05
3.13813e-05
3.16012e-05
3.16373e-05
3.11446e-05
4.61679e-06
5.90249e-07
5.90249e-07
7.50561e-06
1.85882e-05
7.64815e-06
7.6631e-06
3.48585e-05
8.41761e-05
8.4136e-05
3.90979e-05
7.16208e-06
7.1476e-06
7.28876e-06
5.76222e-05
0.000103641
0.000103603
9.97485e-05
1.0747e-05
3.63718e-06
3.1747e-06
2.59594e-07
8.95138e-09
8.74936e-09
9.44431e-09
8.07643e-09
7.53187e-09
7.52895e-09
7.70912e-09
9.00763e-09
7.26886e-09
6.80408e-09
8.46168e-09
8.36272e-09
6.32118e-09
4.15649e-09
2.48093e-09
1.14398e-09
6.85763e-10
5.73938e-10
5.58798e-10
7.01458e-10
2.05499e-09
1.88817e-10
5.46754e-12
4.48026e-12
4.41476e-12
4.41373e-12
4.41853e-12
1.80718e-11
2.21584e-10
8.0033e-07
1.38963e-06
1.39218e-06
4.46373e-07
1.38598e-07
1.19406e-07
1.10193e-07
6.91693e-06
1.88696e-05
1.62379e-05
1.89579e-06
1.77454e-06
4.83378e-05
2.53304e-05
2.70259e-05
2.70072e-05
2.68054e-05
2.59842e-05
1.69222e-05
6.48449e-06
5.03457e-06
7.85751e-06
1.09162e-05
2.40936e-05
3.13239e-05
3.16012e-05
3.16631e-05
3.16814e-05
3.16527e-05
2.47988e-05
1.40684e-06
5.25392e-07
4.01902e-06
1.85882e-05
1.85884e-05
8.77728e-06
9.15406e-06
4.98447e-05
8.38707e-05
8.40089e-05
2.03358e-05
7.27232e-06
7.29062e-06
4.98058e-05
0.000103677
0.000103185
2.97588e-05
8.19138e-06
7.40527e-06
1.00506e-05
1.17941e-06
8.74936e-09
8.6062e-09
8.57346e-09
8.18655e-09
7.53192e-09
7.70153e-09
1.92023e-08
6.91407e-08
5.45711e-08
3.3703e-08
4.9572e-08
5.12251e-08
4.24801e-08
2.59027e-08
1.23214e-08
5.33019e-09
2.25597e-09
1.16631e-09
6.24262e-10
2.40998e-10
7.72449e-11
2.56102e-11
7.83767e-12
5.99437e-12
4.50689e-12
4.41853e-12
4.48284e-12
1.69653e-10
7.05401e-10
7.27843e-09
8.39703e-07
1.40992e-06
1.40886e-06
8.92095e-07
1.11347e-07
1.11347e-07
1.51204e-05
1.90409e-05
1.91941e-05
3.72848e-06
2.00703e-06
4.83237e-05
2.08385e-05
2.69361e-05
2.59119e-05
5.31009e-06
4.0172e-06
4.3283e-06
4.15193e-06
2.74245e-06
4.84151e-06
7.2029e-06
1.2735e-05
3.15591e-05
3.16631e-05
3.16814e-05
3.1684e-05
3.16814e-05
2.88977e-05
2.05459e-06
3.07507e-07
1.14465e-07
1.14888e-05
1.87272e-05
1.9274e-05
9.90647e-06
1.18869e-05
5.58842e-05
8.41392e-05
8.41637e-05
2.60926e-05
2.91817e-05
0.000103671
0.000103807
5.83191e-05
4.40676e-06
2.28716e-05
4.22703e-05
1.47545e-05
4.05547e-06
4.23295e-07
8.74936e-09
8.58311e-09
8.41331e-09
8.28298e-09
1.15499e-08
1.28215e-07
7.85758e-07
1.14703e-06
1.46736e-06
1.37515e-06
4.69769e-07
3.24022e-07
1.95655e-07
1.00031e-07
4.06691e-08
1.642e-08
6.77734e-09
2.34388e-09
7.95817e-10
2.40262e-10
9.13886e-11
4.53752e-11
4.16455e-11
1.04062e-11
4.46999e-12
4.99497e-12
3.53342e-08
1.63604e-07
1.10229e-07
1.10371e-07
5.13266e-07
1.41104e-06
1.36461e-06
3.14113e-07
1.10494e-07
5.98805e-06
1.91941e-05
1.91941e-05
5.42207e-06
2.28846e-06
4.8263e-05
2.08312e-05
2.69558e-05
2.30427e-05
4.37522e-06
3.82977e-06
2.71175e-06
1.05349e-06
5.29823e-07
3.36485e-07
3.42145e-07
3.00489e-07
1.12473e-05
3.16133e-05
3.1683e-05
3.16814e-05
3.14421e-05
1.1514e-05
9.63253e-07
1.3376e-07
7.05236e-08
7.34793e-08
7.37546e-06
1.97873e-05
2.03253e-05
2.02528e-05
2.31004e-05
3.40813e-05
4.84694e-05
0.000101124
0.00010373
0.000103808
0.000103753
4.78226e-05
3.79854e-06
1.61096e-05
4.30801e-05
4.37864e-05
1.40729e-05
6.89555e-07
7.93991e-07
9.21263e-09
9.83908e-09
1.55993e-08
5.07954e-08
2.11625e-07
6.90563e-06
2.90115e-05
4.19937e-05
4.23178e-05
3.14598e-05
2.48224e-05
8.4309e-06
1.71869e-06
2.781e-07
1.13546e-07
4.66011e-08
1.51303e-08
4.81419e-09
1.41821e-09
5.8296e-10
2.30352e-10
2.00998e-10
4.05846e-11
4.99346e-12
1.4765e-08
2.87768e-07
3.22312e-07
3.22028e-07
1.41534e-07
4.0772e-08
8.27999e-07
1.35571e-06
1.2125e-06
1.19204e-07
9.76756e-08
1.75226e-05
1.91941e-05
9.08213e-06
2.47124e-06
3.87791e-05
2.10813e-05
2.70705e-05
2.70628e-05
2.69972e-05
2.67561e-05
1.88343e-05
9.45986e-07
2.82778e-07
1.2611e-07
4.02432e-08
3.63375e-08
8.3552e-07
8.8788e-06
2.0101e-05
1.81857e-05
5.42706e-06
2.71818e-07
3.94029e-07
1.6735e-07
5.83924e-08
5.79695e-08
7.18964e-08
2.50627e-06
1.75043e-05
2.23309e-05
2.25756e-05
9.56092e-06
2.60515e-06
1.54014e-05
2.57913e-05
7.54832e-05
0.000103776
5.0284e-05
3.14417e-06
3.09898e-06
4.34341e-06
4.35916e-05
4.39167e-05
1.50664e-05
8.59502e-07
1.45128e-06
4.8027e-07
7.57621e-08
1.56744e-07
3.42828e-07
1.37362e-05
5.70769e-05
5.94008e-05
6.15166e-05
6.23437e-05
6.24418e-05
6.2897e-05
4.1528e-05
1.17592e-05
1.50288e-06
2.87797e-07
9.28551e-08
3.00773e-08
9.14188e-09
3.09349e-09
9.36281e-10
1.15485e-09
9.7653e-11
7.37729e-12
6.81807e-08
3.17513e-07
3.20512e-07
3.23081e-07
3.17661e-07
3.18738e-08
5.61165e-09
1.1427e-06
1.16212e-06
2.25914e-07
2.67932e-08
1.28963e-05
1.91673e-05
1.23808e-05
2.49196e-06
3.31969e-05
2.16817e-05
2.70705e-05
2.70711e-05
2.70564e-05
2.69862e-05
2.6827e-05
2.43549e-05
5.06836e-06
3.37584e-08
2.32505e-08
1.14758e-08
3.74845e-08
8.29633e-08
2.85651e-07
3.06153e-07
1.77756e-07
1.04012e-07
6.69365e-08
5.83924e-08
5.79579e-08
5.79696e-08
5.79696e-08
6.34867e-08
1.4943e-06
8.22302e-06
1.42569e-05
9.53792e-06
4.50426e-07
9.30161e-08
5.69765e-08
2.16616e-06
4.5192e-06
3.84153e-06
3.3712e-06
3.2031e-06
2.36225e-06
7.69086e-07
3.36334e-05
3.31782e-05
2.51333e-05
8.52896e-07
5.83417e-07
1.68632e-06
1.66509e-06
3.71429e-06
1.43473e-05
1.83275e-05
2.74234e-05
4.08061e-05
6.24377e-05
6.2893e-05
6.2897e-05
6.2893e-05
6.28929e-05
3.70237e-05
1.05949e-05
5.74002e-07
1.68093e-07
5.24918e-08
1.82158e-08
5.82802e-09
5.40732e-09
1.8711e-10
1.53791e-11
9.79171e-10
2.90112e-07
3.17513e-07
2.7679e-07
1.00487e-07
6.52049e-09
3.92579e-09
1.32476e-07
5.83275e-07
1.75434e-07
9.63892e-09
6.10926e-06
6.93171e-06
6.76393e-06
2.40437e-06
3.32128e-05
2.555e-05
2.70707e-05
2.70705e-05
2.70476e-05
2.69492e-05
2.66962e-05
2.67026e-05
1.99351e-05
1.17498e-06
1.14758e-08
7.86387e-09
4.25195e-09
4.85337e-09
1.34725e-08
8.78822e-08
1.54916e-07
1.47301e-07
1.31227e-07
1.32135e-07
1.32827e-07
1.32275e-07
1.12132e-07
5.04348e-08
6.19225e-08
6.43823e-08
2.23218e-07
7.82439e-07
4.05876e-07
7.97542e-09
5.61492e-09
5.39095e-09
5.41586e-09
6.02213e-09
6.87705e-08
3.26104e-07
1.29745e-06
6.75836e-07
1.19554e-07
2.87727e-05
3.14509e-05
2.93908e-05
1.93177e-05
1.86251e-06
1.79863e-06
2.25446e-06
5.45001e-06
5.56102e-06
6.00461e-06
6.32188e-06
2.43471e-05
6.2585e-05
6.2893e-05
6.28929e-05
6.24728e-05
6.16018e-05
5.7528e-05
2.25279e-05
4.32461e-06
1.58375e-06
3.71582e-07
2.71634e-07
1.03711e-08
8.67974e-11
3.69533e-11
8.67974e-11
8.47766e-08
7.60308e-08
2.96496e-09
3.65898e-09
8.75077e-09
3.7166e-09
3.909e-09
1.25598e-08
3.55021e-08
5.70017e-09
8.99597e-07
1.05895e-05
2.25827e-06
2.19977e-06
2.91126e-05
2.18998e-05
2.70705e-05
2.70476e-05
7.26465e-06
1.90104e-05
2.62736e-05
2.57397e-05
2.44847e-05
1.28283e-05
1.24749e-08
4.25195e-09
3.47658e-09
2.70904e-09
2.94735e-09
9.81888e-08
1.80668e-07
1.82924e-07
1.83766e-07
1.82981e-07
1.81898e-07
1.31518e-07
8.03938e-08
4.87341e-08
5.9392e-08
5.12051e-08
1.78456e-08
3.52598e-09
7.81325e-09
3.39034e-09
3.53107e-09
3.71084e-09
3.81559e-09
3.94748e-09
4.22996e-09
5.05955e-09
1.27141e-08
7.13686e-08
2.50071e-08
1.19543e-07
2.315e-05
3.58344e-05
3.75093e-05
3.9149e-05
3.8296e-05
2.47255e-05
7.79402e-06
8.65373e-06
6.84579e-06
6.46115e-06
7.04602e-06
4.73738e-05
6.2585e-05
6.24728e-05
6.03385e-05
6.11054e-05
5.97379e-05
5.84156e-05
2.24905e-05
5.66905e-06
3.33289e-06
5.39583e-07
1.30919e-09
2.04062e-10
1.20716e-10
6.00779e-09
3.0092e-09
2.96335e-09
2.96496e-09
5.0435e-09
9.26226e-09
3.66691e-09
3.68467e-09
4.49539e-09
5.36031e-09
5.07293e-09
2.17867e-06
2.15379e-05
3.51244e-06
2.12125e-06
2.08238e-05
2.13769e-05
2.67957e-05
2.09759e-05
2.58208e-06
2.7362e-06
8.93587e-06
2.32439e-05
2.46522e-05
2.61315e-05
7.5986e-06
1.08003e-08
2.70903e-09
2.44072e-09
1.70471e-09
4.17061e-09
3.76244e-08
8.62776e-08
1.07567e-07
5.64523e-08
2.01113e-08
7.74475e-09
4.36617e-09
4.97108e-09
4.93307e-09
4.79675e-09
4.40984e-09
2.98931e-09
2.80284e-09
3.35347e-09
3.59548e-09
3.69293e-09
3.77998e-09
3.86123e-09
3.95214e-09
4.12212e-09
4.39891e-09
4.92399e-09
1.35415e-08
5.60966e-08
8.84773e-07
3.44912e-06
3.65262e-05
4.11222e-05
4.16952e-05
4.21051e-05
4.21511e-05
4.21051e-05
3.24139e-05
7.04602e-06
1.00415e-05
5.49891e-05
6.14481e-05
3.43831e-05
8.59591e-06
3.7491e-05
5.84156e-05
5.72256e-05
4.17447e-05
7.62693e-06
4.9347e-06
6.01532e-07
2.16552e-09
4.62195e-10
4.80929e-10
9.93562e-09
3.34794e-09
2.96611e-09
2.96312e-09
2.97077e-09
3.71548e-09
3.53075e-09
3.65239e-09
3.80598e-09
4.51763e-09
5.07753e-09
1.60104e-05
2.1764e-05
5.71277e-06
2.07249e-06
1.47271e-06
2.15091e-05
2.64008e-05
6.95954e-06
2.36392e-06
2.39287e-06
2.5736e-06
6.24853e-06
2.41707e-05
2.81461e-05
2.82959e-05
2.96891e-06
1.05314e-08
1.10387e-09
4.40131e-11
3.43957e-11
3.3121e-11
4.8138e-11
1.08804e-10
2.88788e-11
2.8148e-11
1.20799e-10
3.40633e-10
4.83677e-10
5.10381e-10
5.70164e-10
1.09735e-09
1.80243e-09
2.55855e-09
3.61887e-09
4.12267e-09
4.0293e-09
4.17468e-09
4.23192e-09
4.1791e-09
4.1625e-09
4.1875e-09
4.39891e-09
4.924e-09
1.30227e-07
2.37327e-07
7.94699e-08
1.90171e-06
3.86213e-06
3.53538e-05
4.16952e-05
4.21051e-05
4.21325e-05
2.59947e-05
3.28814e-05
5.51733e-05
5.68611e-05
5.80564e-05
5.47306e-06
1.93286e-06
1.94167e-06
3.64356e-05
5.60997e-05
4.38206e-05
6.37041e-06
2.34952e-06
4.24848e-07
2.42046e-09
6.70499e-10
5.79481e-10
8.32574e-09
1.20305e-08
8.49332e-09
2.96611e-09
2.98693e-09
3.1023e-09
3.19745e-09
3.58963e-09
4.6167e-09
3.88552e-06
9.2774e-06
2.1764e-05
2.17983e-05
5.05312e-06
2.21518e-06
1.05468e-08
2.20652e-05
2.17555e-05
2.37524e-06
2.31337e-06
2.29982e-06
2.32904e-06
2.48243e-06
6.66859e-06
2.88167e-05
3.23607e-05
3.024e-05
6.16009e-07
1.92029e-08
2.7379e-10
3.29776e-11
3.31213e-11
4.37749e-11
3.00268e-11
2.86936e-11
2.65983e-11
1.20184e-10
1.05855e-09
7.5027e-09
8.50175e-09
6.06134e-08
6.60807e-08
2.72647e-08
4.29893e-09
5.06644e-09
7.26067e-09
8.97749e-09
1.34588e-08
2.04721e-08
2.18856e-08
1.49557e-08
4.65894e-09
4.85446e-09
5.12444e-09
1.25745e-07
1.70197e-07
2.65867e-08
2.60451e-08
3.57151e-08
6.11149e-07
8.44312e-06
1.67018e-05
6.94671e-06
6.8625e-06
4.6554e-05
5.43536e-05
5.51733e-05
3.16204e-05
2.07674e-06
1.34873e-06
1.7125e-06
2.5044e-06
4.6555e-05
3.46536e-05
4.00177e-06
2.50555e-07
1.21956e-07
2.17116e-09
7.33104e-10
6.71651e-10
4.33602e-09
1.95621e-08