/*--------------------------------*- C++ -*----------------------------------*\
| =========                 |                                                 |
| \\      /  F ield         | OpenFOAM: The Open Source CFD Toolbox           |
|  \\    /   O peration     | Version:  2412                                  |
|   \\  /    A nd           | Website:  www.openfoam.com                      |
|    \\/     M anipulation  |                                                 |
\*---------------------------------------------------------------------------*/
FoamFile
{
    version     2.0;
    format      ascii;
    arch        "LSB;label=32;scalar=64";
    class       surfaceScalarField;
    location    "6.7";
    object      phi;
}
// * * * * * * * * * * * * * * * * * * * * * * * * * * * * * * * * * * * * * //

dimensions      [0 3 -1 0 0 0 0];

oriented        oriented;

internalField   nonuniform List<scalar> 
12640
(
6.15643e-06
-6.15643e-06
1.7213e-05
-1.10443e-05
3.02271e-05
-1.30145e-05
4.37085e-05
-1.34841e-05
5.64834e-05
-1.27764e-05
6.78526e-05
-1.13697e-05
7.75516e-05
-9.69903e-06
8.55653e-05
-8.01387e-06
9.20895e-05
-6.52428e-06
9.74024e-05
-5.31293e-06
0.000101855
-4.45235e-06
0.0001058
-3.94467e-06
0.00010956
-3.76079e-06
0.000113406
-3.84542e-06
0.000117572
-4.16528e-06
0.000122186
-4.6133e-06
0.000127326
-5.13992e-06
0.00013308
-5.75345e-06
0.00013927
-6.18907e-06
0.00014577
-6.49952e-06
0.000152432
-6.66047e-06
0.000158948
-6.51513e-06
0.000165042
-6.09368e-06
0.000170434
-5.39139e-06
0.000174785
-4.35048e-06
0.000177751
-2.96546e-06
0.000179022
-1.27072e-06
0.000178318
7.04265e-07
0.000175381
2.93648e-06
0.000170048
5.33361e-06
0.00016219
7.85704e-06
0.000151791
1.03986e-05
0.000138898
1.28929e-05
0.000123608
1.52902e-05
0.000106104
1.75032e-05
8.66346e-05
1.94691e-05
6.55549e-05
2.10797e-05
4.31874e-05
2.23675e-05
1.99694e-05
2.32179e-05
-3.67443e-06
2.3644e-05
-2.7304e-05
2.36298e-05
-5.04662e-05
2.31629e-05
-7.27348e-05
2.22699e-05
-9.36714e-05
2.09378e-05
-0.000112955
1.92845e-05
-0.000130225
1.72702e-05
-0.000145257
1.50313e-05
-0.000157828
1.25714e-05
-0.000167844
1.00156e-05
-0.000175274
7.43033e-06
-0.000180147
4.87374e-06
-0.000182566
2.41934e-06
-0.0001827
1.34835e-07
-0.00018079
-1.90948e-06
-0.00017714
-3.64919e-06
-0.000172078
-5.06155e-06
-0.000165973
-6.10459e-06
-0.000159099
-6.87268e-06
-0.000151839
-7.2594e-06
-0.000144486
-7.35205e-06
-0.000137274
-7.21071e-06
-0.000130434
-6.84003e-06
-0.000124156
-6.27688e-06
-0.000118508
-5.64692e-06
-0.00011351
-4.9984e-06
-0.000109092
-4.41825e-06
-0.000105112
-3.97905e-06
-0.000101329
-3.78332e-06
-9.74321e-05
-3.89693e-06
-9.31169e-05
-4.3154e-06
-8.80076e-05
-5.1098e-06
-8.17634e-05
-6.24469e-06
-7.40501e-05
-7.71358e-06
-6.46584e-05
-9.39186e-06
-5.35695e-05
-1.1089e-05
-4.11172e-05
-1.24524e-05
-2.80402e-05
-1.30771e-05
-1.5579e-05
-1.24611e-05
-5.30043e-06
-1.02779e-05
-5.30044e-06
8.49471e-06
-1.46647e-05
2.44875e-05
-2.70379e-05
4.39558e-05
-3.24818e-05
6.42005e-05
-3.37287e-05
8.32638e-05
-3.18402e-05
0.000100001
-2.81072e-05
0.000113881
-2.35799e-05
0.000124864
-1.89967e-05
0.000133183
-1.48436e-05
0.00013931
-1.14394e-05
0.00014378
-8.92219e-06
0.000147153
-7.31786e-06
0.000149898
-6.50506e-06
0.000152376
-6.32256e-06
0.000154864
-6.65279e-06
0.000157565
-7.31278e-06
0.000160594
-8.16799e-06
0.000163933
-9.09116e-06
0.000167642
-9.89737e-06
0.000171597
-1.04527e-05
0.000175632
-1.06943e-05
0.00017961
-1.04918e-05
0.000183289
-9.77129e-06
0.000186403
-8.50467e-06
0.00018862
-6.56735e-06
0.00018968
-4.02566e-06
0.000189239
-8.28954e-07
0.000187008
2.935e-06
0.000182764
7.18007e-06
0.000176283
1.18139e-05
0.000167422
1.67179e-05
0.000156096
2.17244e-05
0.000142285
2.67038e-05
0.000126125
3.14495e-05
0.000107755
3.58729e-05
8.74166e-05
3.98078e-05
6.54182e-05
4.3078e-05
4.2152e-05
4.56339e-05
1.80624e-05
4.73077e-05
-6.49069e-06
4.81977e-05
-3.10186e-05
4.81584e-05
-5.50614e-05
4.72058e-05
-7.8185e-05
4.53932e-05
-9.99957e-05
4.2748e-05
-0.00012006
3.93482e-05
-0.000138135
3.53462e-05
-0.000153917
3.08128e-05
-0.000167283
2.5938e-05
-0.000178121
2.08534e-05
-0.000186449
1.57589e-05
-0.000192279
1.07047e-05
-0.000195826
5.96717e-06
-0.000197306
1.61602e-06
-0.00019693
-2.28497e-06
-0.000195026
-5.5514e-06
-0.000191898
-8.18865e-06
-0.000187827
-1.01742e-05
-0.000183214
-1.14845e-05
-0.000178286
-1.21858e-05
-0.000173312
-1.23258e-05
-0.000168528
-1.19936e-05
-0.000164088
-1.12791e-05
-0.000160045
-1.03199e-05
-0.000156472
-9.2192e-06
-0.000153294
-8.17658e-06
-0.000150482
-7.23115e-06
-0.000147815
-6.64593e-06
-0.000144991
-6.60786e-06
-0.000141623
-7.26447e-06
-0.000137199
-8.74041e-06
-0.000131188
-1.112e-05
-0.000123009
-1.4424e-05
-0.000112155
-1.85674e-05
-9.83326e-05
-2.32145e-05
-8.16186e-05
-2.78029e-05
-6.25707e-05
-3.14996e-05
-4.24141e-05
-3.32334e-05
-2.32067e-05
-3.16684e-05
-7.65604e-06
-2.58294e-05
-1.29567e-05
9.33558e-06
-2.40007e-05
2.7378e-05
-4.50824e-05
4.96829e-05
-5.47869e-05
7.32387e-05
-5.72844e-05
9.5573e-05
-5.41746e-05
0.000115101
-4.76351e-05
0.000131104
-3.95834e-05
0.000143527
-3.142e-05
0.000152722
-2.40381e-05
0.000159265
-1.79826e-05
0.00016383
-1.34877e-05
0.000167038
-1.05259e-05
0.000169405
-8.87123e-06
0.000171385
-8.30263e-06
0.000173311
-8.57863e-06
0.000175429
-9.4305e-06
0.000177901
-1.06396e-05
0.000180828
-1.20165e-05
0.000184155
-1.3224e-05
0.000187808
-1.41052e-05
0.000191649
-1.45345e-05
0.000195487
-1.43294e-05
0.000199065
-1.33486e-05
0.000202036
-1.1475e-05
0.000204142
-8.67303e-06
0.00020501
-4.89388e-06
0.000204278
-9.63843e-08
0.000201633
5.58108e-06
0.000196792
1.20216e-05
0.000189567
1.90395e-05
0.000179789
2.64954e-05
0.000167374
3.41398e-05
0.000152391
4.16867e-05
0.000134897
4.89439e-05
0.000115103
5.56665e-05
9.32554e-05
6.16549e-05
6.96447e-05
6.66883e-05
4.47198e-05
7.05581e-05
1.88875e-05
7.31386e-05
-7.35987e-06
7.44425e-05
-3.35867e-05
7.4382e-05
-5.93443e-05
7.2961e-05
-8.4135e-05
7.01828e-05
-0.000107535
6.61471e-05
-0.000129161
6.09733e-05
-0.000148652
5.48365e-05
-0.000165747
4.79072e-05
-0.000180279
4.04701e-05
-0.000192163
3.27384e-05
-0.000201339
2.49353e-05
-0.000207949
1.73153e-05
-0.000212085
1.01036e-05
-0.000213929
3.45989e-06
-0.000213781
-2.43294e-06
-0.000211983
-7.34857e-06
-0.000208885
-1.12863e-05
-0.00020487
-1.41881e-05
-0.000200278
-1.60769e-05
-0.000195383
-1.70803e-05
-0.000190547
-1.71614e-05
-0.000185957
-1.6583e-05
-0.000181787
-1.54495e-05
-0.000178133
-1.39736e-05
-0.000174993
-1.23594e-05
-0.000172366
-1.0804e-05
-0.000170031
-9.56621e-06
-0.000167786
-8.88982e-06
-0.000165298
-9.0953e-06
-0.000162079
-1.0482e-05
-0.000157578
-1.32405e-05
-0.000151136
-1.75611e-05
-0.000142035
-2.35247e-05
-0.000129677
-3.09247e-05
-0.000113672
-3.92191e-05
-9.40776e-05
-4.73982e-05
-7.16449e-05
-5.39336e-05
-4.80522e-05
-5.68272e-05
-2.59086e-05
-5.38127e-05
-8.35642e-06
-4.33815e-05
-2.13136e-05
9.19785e-06
-3.31965e-05
2.82255e-05
-6.41107e-05
5.27412e-05
-7.93028e-05
7.92131e-05
-8.37563e-05
0.000104386
-7.93469e-05
0.00012599
-6.92397e-05
0.000143049
-5.66421e-05
0.000155646
-4.40177e-05
0.000164454
-3.28454e-05
0.000170336
-2.38645e-05
0.00017416
-1.73124e-05
0.000176663
-1.30293e-05
0.000178444
-1.06522e-05
0.000179953
-9.81127e-06
0.000181617
-1.02428e-05
0.000183671
-1.14839e-05
0.000186263
-1.32319e-05
0.000189404
-1.51575e-05
0.000193098
-1.69179e-05
0.000197258
-1.82648e-05
0.000201678
-1.89531e-05
0.000206223
-1.88739e-05
0.000210422
-1.75473e-05
0.000214079
-1.51304e-05
0.000216785
-1.13785e-05
0.0002182
-6.30796e-06
0.000217871
2.33985e-07
0.000215463
7.98982e-06
0.000210683
1.6802e-05
0.000203251
2.64716e-05
0.000193017
3.67297e-05
0.000179917
4.72406e-05
0.000163955
5.76486e-05
0.000145241
6.7658e-05
0.000123973
7.6935e-05
0.000100454
8.51725e-05
7.50852e-05
9.20559e-05
4.82942e-05
9.73472e-05
2.05381e-05
0.000100893
-7.67116e-06
0.000102651
-3.58566e-05
0.000102567
-6.34963e-05
0.0001006
-9.01291e-05
9.68146e-05
-0.000115302
9.13195e-05
-0.000138551
8.42223e-05
-0.000159477
7.57628e-05
-0.000177799
6.62302e-05
-0.000193325
5.59958e-05
-0.000205924
4.53366e-05
-0.000215581
3.45916e-05
-0.000222341
2.40753e-05
-0.000226422
1.41844e-05
-0.000228008
5.04732e-06
-0.000227402
-3.03863e-06
-0.000225
-9.74869e-06
-0.000221232
-1.50528e-05
-0.000216481
-1.89387e-05
-0.000211137
-2.14205e-05
-0.000205578
-2.26379e-05
-0.000200059
-2.26801e-05
-0.000194896
-2.17458e-05
-0.000190281
-2.00637e-05
-0.000186343
-1.79108e-05
-0.000183082
-1.56199e-05
-0.000180481
-1.34033e-05
-0.000178395
-1.16509e-05
-0.000176566
-1.07166e-05
-0.00017468
-1.09803e-05
-0.000172239
-1.2922e-05
-0.000168578
-1.69013e-05
-0.000162846
-2.32929e-05
-0.000154171
-3.22007e-05
-0.000141658
-4.34382e-05
-0.000124577
-5.63005e-05
-0.000102824
-6.91519e-05
-7.74296e-05
-7.93285e-05
-5.0861e-05
-8.33957e-05
-2.6516e-05
-7.81596e-05
-8.09345e-06
-6.18048e-05
-2.94083e-05
8.39983e-06
-4.1595e-05
2.77786e-05
-8.34892e-05
5.45811e-05
-0.000106105
8.48998e-05
-0.000114075
0.000114037
-0.000108484
0.00013821
-9.34129e-05
0.000155935
-7.43665e-05
0.00016769
-5.57729e-05
0.00017482
-3.99751e-05
0.000178738
-2.77829e-05
0.000180646
-1.92201e-05
0.000181466
-1.38493e-05
0.00018189
-1.10763e-05
0.00018242
-1.03415e-05
0.000183455
-1.12772e-05
0.000185194
-1.3223e-05
0.00018776
-1.57983e-05
0.000191149
-1.85456e-05
0.00019534
-2.11087e-05
0.000200204
-2.31281e-05
0.000205553
-2.43021e-05
0.000211114
-2.44347e-05
0.000216505
-2.29371e-05
0.00022137
-1.99954e-05
0.000225315
-1.53219e-05
0.000227856
-8.84825e-06
0.000228597
-5.06228e-07
0.000227071
9.51661e-06
0.000222926
2.09477e-05
0.000215841
3.35581e-05
0.000205674
4.68968e-05
0.000192242
6.06728e-05
0.000175601
7.42896e-05
0.000155849
8.741e-05
0.000133236
9.95466e-05
0.000108119
0.000110289
8.09557e-05
0.00011922
5.22152e-05
0.00012609
2.24477e-05
0.000130663
-7.80879e-06
0.00013291
-3.80344e-05
0.000132794
-6.7711e-05
0.000130277
-9.62921e-05
0.000125396
-0.000123241
0.000118268
-0.000148078
0.000109058
-0.000170355
9.80394e-05
-0.000189744
8.56188e-05
-0.000205952
7.22035e-05
-0.000218894
5.82787e-05
-0.000228548
4.42468e-05
-0.000235041
3.0569e-05
-0.000238417
1.75609e-05
-0.000239075
5.70559e-06
-0.00023735
-4.76416e-06
-0.000233741
-1.3358e-05
-0.000228675
-2.01198e-05
-0.000222651
-2.49628e-05
-0.000216064
-2.80087e-05
-0.000209338
-2.9363e-05
-0.000202842
-2.91765e-05
-0.000196887
-2.76999e-05
-0.000191698
-2.52513e-05
-0.000187425
-2.21824e-05
-0.000184125
-1.89186e-05
-0.000181796
-1.57318e-05
-0.000180363
-1.30828e-05
-0.000179567
-1.15122e-05
-0.000179099
-1.14483e-05
-0.000178413
-1.36069e-05
-0.000176749
-1.85645e-05
-0.000173138
-2.69032e-05
-0.000166295
-3.90436e-05
-0.000154724
-5.5008e-05
-0.000136933
-7.40916e-05
-0.000112422
-9.36631e-05
-8.28326e-05
-0.000108917
-5.22641e-05
-0.000113965
-2.57264e-05
-0.000104697
-7.11247e-06
-8.04179e-05
-3.65199e-05
6.42711e-06
-4.80218e-05
2.47696e-05
-0.000101831
5.39392e-05
-0.000135275
9.01504e-05
-0.000150286
0.000125961
-0.000144295
0.000154532
-0.000121984
0.000173189
-9.3023e-05
0.000183217
-6.58007e-05
0.000187327
-4.40848e-05
0.000187941
-2.8397e-05
0.00018679
-1.80684e-05
0.000185023
-1.20821e-05
0.00018341
-9.46363e-06
0.000182464
-9.39449e-06
0.000182473
-1.12861e-05
0.00018361
-1.43593e-05
0.00018602
-1.82084e-05
0.000189635
-2.21603e-05
0.000194385
-2.58596e-05
0.00020013
-2.88724e-05
0.000206634
-3.0807e-05
0.000213529
-3.13287e-05
0.000220546
-2.99541e-05
0.000227107
-2.65554e-05
0.00023282
-2.10336e-05
0.000237111
-1.31383e-05
0.000239522
-2.91696e-06
0.00023939
9.64946e-06
0.00023635
2.39875e-05
0.000230074
3.98338e-05
0.000220198
5.67734e-05
0.000206688
7.41825e-05
0.000189427
9.15503e-05
0.000168611
0.000108227
0.000144491
0.000123668
0.000117514
0.000137267
8.81969e-05
0.000148538
5.71195e-05
0.000157167
2.48719e-05
0.00016291
-7.94744e-06
0.000165729
-4.07249e-05
0.00016557
-7.28912e-05
0.000162443
-0.000103811
0.000156316
-0.000132922
0.00014738
-0.000159619
0.000135754
-0.000183388
0.000121809
-0.000203845
0.000106076
-0.000220692
8.90512e-05
-0.000233769
7.13559e-05
-0.000243106
5.35839e-05
-0.000248758
3.62208e-05
-0.000251063
1.98659e-05
-0.000250323
4.96472e-06
-0.000246991
-8.09634e-06
-0.00024152
-1.88298e-05
-0.000234599
-2.7041e-05
-0.000226811
-3.27504e-05
-0.000218523
-3.62957e-05
-0.000210258
-3.76284e-05
-0.000202482
-3.69522e-05
-0.00019554
-3.46417e-05
-0.000189687
-3.11049e-05
-0.000185094
-2.67763e-05
-0.000181915
-2.20975e-05
-0.000180133
-1.75136e-05
-0.000179722
-1.34931e-05
-0.000180469
-1.07645e-05
-0.000182148
-9.76915e-06
-0.000184145
-1.16086e-05
-0.000185725
-1.6985e-05
-0.000185656
-2.69721e-05
-0.000182074
-4.26245e-05
-0.00017234
-6.47416e-05
-0.000153536
-9.28945e-05
-0.000124309
-0.000122889
-8.76273e-05
-0.000145598
-5.08923e-05
-0.0001507
-2.20292e-05
-0.000133559
-4.79454e-06
-9.76539e-05
-4.13146e-05
2.34971e-06
-5.03714e-05
1.94257e-05
-0.000118907
5.47466e-05
-0.000170595
0.000101264
-0.000196803
0.000145728
-0.000188759
0.000178698
-0.000154954
0.000197327
-0.000111652
0.000204027
-7.25005e-05
0.00020327
-4.33266e-05
0.000198889
-2.40155e-05
0.000193394
-1.25735e-05
0.000188192
-6.87904e-06
0.000183964
-5.23628e-06
0.000181101
-6.52969e-06
0.000179844
-1.00302e-05
0.000180327
-1.48416e-05
0.000182495
-2.03769e-05
0.000186358
-2.60237e-05
0.000191835
-3.1336e-05
0.00019867
-3.5707e-05
0.000206635
-3.87722e-05
0.000215275
-3.99695e-05
0.000224382
-3.9061e-05
0.000233249
-3.5422e-05
0.000241278
-2.90625e-05
0.000247885
-1.97446e-05
0.000252421
-7.4539e-06
0.000254243
7.82674e-06
0.000252778
2.54524e-05
0.000247592
4.50192e-05
0.000238333
6.60323e-05
0.0002247
8.78158e-05
0.000206818
0.000109433
0.000184726
0.000130318
0.000158766
0.000149626
0.000129455
0.000166576
9.74144e-05
0.000180576
6.33608e-05
0.000191219
2.79655e-05
0.000198305
-8.08773e-06
0.000201782
-4.41171e-05
0.0002016
-7.94149e-05
0.000197741
-0.000113349
0.00019025
-0.000145174
0.000179206
-0.000174209
0.00016479
-0.000199857
0.000147458
-0.000221594
0.000127814
-0.000239117
0.000106575
-0.000252305
8.45438e-05
-0.000261086
6.2366e-05
-0.00026569
4.08245e-05
-0.000266421
2.05985e-05
-0.000263695
2.23931e-06
-0.000257989
-1.38004e-05
-0.000250331
-2.64859e-05
-0.00024111
-3.626e-05
-0.000230893
-4.29666e-05
-0.00022033
-4.68585e-05
-0.000210111
-4.78462e-05
-0.000200692
-4.63712e-05
-0.000192507
-4.28277e-05
-0.000185825
-3.77864e-05
-0.000180887
-3.17143e-05
-0.000177846
-2.51389e-05
-0.000176753
-1.86063e-05
-0.000177565
-1.26823e-05
-0.000180247
-8.08371e-06
-0.00018458
-5.4355e-06
-0.000190184
-6.00489e-06
-0.00019634
-1.08296e-05
-0.000201575
-2.17364e-05
-0.000203276
-4.09236e-05
-0.000197292
-7.07262e-05
-0.000178911
-0.000111278
-0.000145511
-0.000156289
-9.99395e-05
-0.00019117
-5.20679e-05
-0.000198572
-1.62342e-05
-0.000169392
-3.16754e-07
-0.00011357
-4.16309e-05
-7.25385e-07
-4.9646e-05
2.8097e-05
-0.000147729
8.93481e-05
-0.000231846
0.000156963
-0.000264417
0.000205466
-0.000237262
0.00022933
-0.000178818
0.000235893
-0.000118215
0.000232327
-6.8934e-05
0.000222982
-3.39812e-05
0.000211339
-1.23725e-05
0.000200084
-1.31813e-06
0.000190471
2.73524e-06
0.000183247
1.98675e-06
0.000178262
-1.54458e-06
0.000175609
-7.37679e-06
0.000175295
-1.4528e-05
0.000177266
-2.23472e-05
0.000181483
-3.02404e-05
0.000187844
-3.76971e-05
0.000196047
-4.39105e-05
0.000205826
-4.85507e-05
0.000216847
-5.09916e-05
0.000228442
-5.06566e-05
0.000240166
-4.71459e-05
0.000251107
-4.00048e-05
0.000260765
-2.94027e-05
0.000268114
-1.48036e-05
0.000272534
3.40618e-06
0.000273195
2.47911e-05
0.000269471
4.87426e-05
0.000260949
7.45542e-05
0.000247388
0.000101377
0.000228658
0.000128162
0.000204962
0.000154014
0.000176689
0.0001779
0.000144422
0.000198844
0.000108985
0.000216013
7.11737e-05
0.00022903
3.18391e-05
0.000237641
-8.21682e-06
0.000241839
-4.82325e-05
0.000241617
-8.74887e-05
0.000236998
-0.00012521
0.000227972
-0.000160485
0.000214481
-0.000192474
0.00019678
-0.000220448
0.000175432
-0.000243808
0.000151173
-0.000262164
0.000124931
-0.00027535
9.77309e-05
-0.000283437
7.0454e-05
-0.000286617
4.40065e-05
-0.000285316
1.92989e-05
-0.000279908
-3.16731e-06
-0.000271616
-2.20924e-05
-0.000260745
-3.73565e-05
-0.000248348
-4.86566e-05
-0.000235062
-5.62524e-05
-0.000221856
-6.00652e-05
-0.000209229
-6.04732e-05
-0.000197758
-5.78418e-05
-0.000187928
-5.26577e-05
-0.000180172
-4.55427e-05
-0.000174725
-3.71614e-05
-0.000171766
-2.80987e-05
-0.000171391
-1.8982e-05
-0.000173609
-1.04647e-05
-0.00017849
-3.20423e-06
-0.000185877
1.95088e-06
-0.000195905
4.02276e-06
-0.000208289
1.55454e-06
-0.000221234
-8.79165e-06
-0.000232331
-2.98262e-05
-0.000238204
-6.48531e-05
-0.000234151
-0.000115329
-0.000211714
-0.000178725
-0.000162156
-0.000240729
-9.1354e-05
-0.000269372
-2.67764e-05
-0.00023397
2.94927e-06
-0.000143296
-3.86821e-05
8.39977e-06
-5.80455e-05
8.96715e-05
-0.000229001
0.000210338
-0.000352512
0.000310765
-0.000364845
0.000354085
-0.000280581
0.000342578
-0.000167311
0.000306984
-8.26195e-05
0.000272949
-3.48997e-05
0.000246077
-7.10881e-06
0.000223791
9.9136e-06
0.0002053
1.71735e-05
0.00019096
1.70745e-05
0.000180301
1.26461e-05
0.000173177
5.57906e-06
0.00016902
-3.21909e-06
0.000167949
-1.34571e-05
0.000169813
-2.4211e-05
0.000174531
-3.49591e-05
0.000181994
-4.51606e-05
0.000191951
-5.38674e-05
0.000204052
-6.06527e-05
0.000217832
-6.47722e-05
0.000232723
-6.5548e-05
0.000247898
-6.23224e-05
0.000262713
-5.48199e-05
0.000275958
-4.2649e-05
0.000286987
-2.5832e-05
0.000294872
-4.47885e-06
0.000298216
2.1447e-05
0.000296483
5.04752e-05
0.000289066
8.19722e-05
0.000275529
0.000114915
0.000255861
0.000147831
0.000230169
0.000179709
0.000198937
0.000209134
0.000163008
0.000234777
0.000123271
0.000255752
8.07808e-05
0.000271521
3.66567e-05
0.000281765
-8.28054e-06
0.000286776
-5.32227e-05
0.000286558
-9.73321e-05
0.000281107
-0.000139711
0.00027035
-0.000179285
0.000254055
-0.000215004
0.000232499
-0.000245963
0.000206391
-0.000271344
0.000176553
-0.000290715
0.000144303
-0.000303903
0.000110918
-0.000310945
7.74951e-05
-0.000312218
4.52788e-05
-0.0003082
1.5279e-05
-0.000299707
-1.16608e-05
-0.000287684
-3.41163e-05
-0.00027298
-5.20601e-05
-0.000256583
-6.50544e-05
-0.000239599
-7.32361e-05
-0.000222837
-7.68275e-05
-0.000207104
-7.62059e-05
-0.000193119
-7.18268e-05
-0.000181314
-6.44633e-05
-0.000172209
-5.46476e-05
-0.000166095
-4.32762e-05
-0.000163121
-3.10732e-05
-0.000163425
-1.86779e-05
-0.000167037
-6.8527e-06
-0.000174127
3.88638e-06
-0.000184992
1.28174e-05
-0.000200112
1.91422e-05
-0.00021968
2.11231e-05
-0.000244077
1.5606e-05
-0.000274509
6.07224e-07
-0.000314029
-2.53325e-05
-0.000355429
-7.39287e-05
-0.000369959
-0.000164195
-0.000325731
-0.000284958
-0.000221209
-0.000373894
-9.40523e-05
-0.000361127
-7.4805e-06
-0.000229867
-4.6163e-05
4.91955e-05
-0.000107241
0.000220456
-0.00040026
0.000402746
-0.000534803
0.000524494
-0.000486593
0.000558306
-0.000314393
0.00050843
-0.000117435
0.000414829
1.09813e-05
0.000328659
5.12703e-05
0.000270655
5.08949e-05
0.000233161
4.74074e-05
0.000206911
4.34242e-05
0.000187747
3.62382e-05
0.00017399
2.64026e-05
0.000164703
1.48654e-05
0.000159393
2.08991e-06
0.000157599
-1.16637e-05
0.000159432
-2.60448e-05
0.000164844
-4.03713e-05
0.000173655
-5.39717e-05
0.00018572
-6.59331e-05
0.000200595
-7.55283e-05
0.000217771
-8.19485e-05
0.000236723
-8.45004e-05
0.000256421
-8.2021e-05
0.000275795
-7.41949e-05
0.000294024
-6.08777e-05
0.000309688
-4.14968e-05
0.00032164
-1.643e-05
0.000328626
1.44616e-05
0.000329545
4.9557e-05
0.000323593
8.7925e-05
0.00031036
0.000128149
0.000289569
0.000168623
0.000261362
0.000207917
0.0002265
0.000243996
0.000185822
0.000275454
0.000140676
0.000300896
9.23323e-05
0.000319863
4.23533e-05
0.000331743
-8.18882e-06
0.000337317
-5.87847e-05
0.000337154
-0.000108912
0.000331235
-0.000157292
0.00031873
-0.000202379
0.000299143
-0.000242861
0.000272981
-0.000277461
0.000240992
-0.000305274
0.000204365
-0.000325827
0.000164855
-0.000338863
0.000123951
-0.000344591
8.32211e-05
-0.000343414
4.41006e-05
-0.000335932
7.79613e-06
-0.000323276
-2.43181e-05
-0.000306552
-5.08415e-05
-0.000286929
-7.16842e-05
-0.000265662
-8.63232e-05
-0.000243887
-9.50123e-05
-0.00022275
-9.79651e-05
-0.000203284
-9.56724e-05
-0.000186141
-8.89705e-05
-0.000171988
-7.86158e-05
-0.00016123
-6.54056e-05
-0.00015422
-5.02849e-05
-0.000151095
-3.41986e-05
-0.000151918
-1.78539e-05
-0.000156774
-1.99746e-06
-0.000165869
1.29812e-05
-0.000179815
2.67632e-05
-0.000199713
3.90403e-05
-0.000227453
4.88639e-05
-0.000267888
5.60413e-05
-0.000331407
6.41264e-05
-0.000424801
6.80624e-05
-0.00052379
2.50588e-05
-0.000575728
-0.000112256
-0.000542613
-0.000318073
-0.000419627
-0.000496881
-0.000231317
-0.000549437
-5.11024e-05
-0.000410082
-9.72651e-05
0.000120153
-0.000227395
0.000353088
-0.000633194
0.000539255
-0.00072097
0.000641948
-0.000589286
0.000662662
-0.000335107
0.000607385
-6.21587e-05
0.000495712
0.000122654
0.000376522
0.000170461
0.000288371
0.000139045
0.000234359
0.000101419
0.000201104
7.66776e-05
0.000178672
5.86704e-05
0.000162888
4.21854e-05
0.000152078
2.56748e-05
0.000145615
8.55238e-06
0.000143296
-9.34483e-06
0.000145174
-2.79226e-05
0.000151416
-4.66138e-05
0.000161939
-6.44951e-05
0.000176528
-8.05223e-05
0.000194862
-9.38636e-05
0.000216249
-0.000103336
0.000239879
-0.000108131
0.00026493
-0.000107072
0.000290343
-9.96076e-05
0.000314681
-8.52143e-05
0.000336367
-6.31824e-05
0.000353741
-3.38034e-05
0.000365472
2.73062e-06
0.000369866
4.51639e-05
0.000365987
9.1803e-05
0.000353244
0.000140891
0.000331132
0.000190732
0.000300103
0.000238942
0.000260508
0.000283589
0.00021372
0.000322242
0.000161566
0.000353052
0.000106119
0.00037531
4.93748e-05
0.000388488
-7.91022e-06
0.000394603
-6.53696e-05
0.000394614
-0.000122567
0.000388432
-0.000178373
0.000374537
-0.000230457
0.000351226
-0.000276984
0.000319508
-0.000316277
0.000280285
-0.000347165
0.000235253
-0.000369005
0.000186695
-0.000381668
0.000136616
-0.000385499
8.70516e-05
-0.000381169
3.97706e-05
-0.000369121
-4.25314e-06
-0.000351123
-4.23176e-05
-0.000328618
-7.33478e-05
-0.000302529
-9.77736e-05
-0.000275112
-0.000113741
-0.000247583
-0.000122542
-0.000221267
-0.000124281
-0.000196926
-0.000120013
-0.000176077
-0.00010982
-0.000159057
-9.56354e-05
-0.000146284
-7.81784e-05
-0.00013815
-5.84191e-05
-0.000134703
-3.76453e-05
-0.000135996
-1.65601e-05
-0.000141791
3.79838e-06
-0.000152327
2.35179e-05
-0.000168216
4.2652e-05
-0.000191146
6.19705e-05
-0.000225795
8.35118e-05
-0.000282885
0.000113131
-0.000375588
0.000156829
-0.000498579
0.000191052
-0.000611688
0.000138168
-0.000667729
-5.62159e-05
-0.00065102
-0.000334782
-0.000552223
-0.000595678
-0.000365109
-0.000736552
-0.000125066
-0.000650127
-0.000222332
0.000177243
-0.000404637
0.000373087
-0.000829039
0.000487867
-0.00083575
0.000540658
-0.000642077
0.000548964
-0.000343413
0.000514056
-2.72511e-05
0.000439058
0.000197651
0.000347702
0.000261816
0.00026912
0.000217625
0.0002165
0.000154039
0.000183778
0.000109399
0.000161831
8.06169e-05
0.000145801
5.82153e-05
0.000134207
3.72678e-05
0.000126921
1.58375e-05
0.000124031
-6.4546e-06
0.000125928
-2.98202e-05
0.000133132
-5.38185e-05
0.000145603
-7.69665e-05
0.000163146
-9.80662e-05
0.000185447
-0.000116165
0.000211813
-0.000129701
0.000241456
-0.000137775
0.000273462
-0.000139077
0.000306243
-0.000132389
0.000337933
-0.000116903
0.000367282
-9.2532e-05
0.000391823
-5.83439e-05
0.000409831
-1.52787e-05
0.000418766
3.62277e-05
0.00041797
9.25981e-05
0.000405978
0.000152882
0.00038288
0.00021383
0.000348172
0.000273651
0.000302732
0.00032903
0.000248409
0.000376565
0.000187766
0.000413695
0.000123824
0.000439251
5.82088e-05
0.000454104
-7.63332e-06
0.000460445
-7.37745e-05
0.000460755
-0.000139906
0.000454564
-0.000204373
0.000439005
-0.000265207
0.000412061
-0.00031928
0.000373583
-0.000364401
0.000325408
-0.000398997
0.000269851
-0.000422122
0.000209822
-0.000434017
0.000148512
-0.000435078
8.81133e-05
-0.000426226
3.09195e-05
-0.00040874
-2.17386e-05
-0.000384107
-6.69501e-05
-0.000353705
-0.000103749
-0.000320224
-0.000131255
-0.000284885
-0.00014908
-0.000249947
-0.000157481
-0.000216998
-0.000157231
-0.000187439
-0.000149573
-0.000161847
-0.000135413
-0.000141226
-0.000116256
-0.000126154
-9.32499e-05
-0.000116712
-6.78608e-05
-0.000112985
-4.13723e-05
-0.000114589
-1.49555e-05
-0.000121129
1.03391e-05
-0.000132233
3.46211e-05
-0.000148091
5.85093e-05
-0.000170154
8.40335e-05
-0.000203259
0.000116616
-0.000256644
0.000166516
-0.000335507
0.000235692
-0.000425763
0.000281307
-0.000499209
0.000211615
-0.00053592
-1.95063e-05
-0.000533299
-0.000337405
-0.000488236
-0.000640742
-0.000379192
-0.000845597
-0.000182246
-0.000847073
-0.000404578
0.000159766
-0.000564403
0.00024433
-0.000913604
0.000264517
-0.000855938
0.000267139
-0.0006447
0.000268322
-0.000344596
0.000264197
-2.31268e-05
0.000253958
0.000207888
0.000231217
0.000284557
0.000202085
0.000246757
0.000175514
0.000180609
0.00015448
0.000130432
0.000137507
9.75891e-05
0.000123195
7.25275e-05
0.00011155
4.89123e-05
0.000103404
2.39834e-05
9.98407e-05
-2.89233e-06
0.000101721
-3.17008e-05
0.000109698
-6.1797e-05
0.000124206
-9.14746e-05
0.00014531
-0.000119171
0.000172278
-0.000143134
0.000204569
-0.000161993
0.00024142
-0.000174626
0.000281583
-0.000179241
0.000323438
-0.000174244
0.000365257
-0.000158724
0.000403933
-0.000131208
0.000437686
-9.20974e-05
0.000463339
-4.09314e-05
0.000478782
2.07858e-05
0.000481915
8.94668e-05
0.00047194
0.000162859
0.000447655
0.000238116
0.000409039
0.000312268
0.000357057
0.000381011
0.000294195
0.000439427
0.00022349
0.0004844
0.000148276
0.000514466
7.07958e-05
0.000531584
-7.69871e-06
0.00053894
-8.64657e-05
0.000539523
-0.000164685
0.000532784
-0.000240385
0.000514705
-0.000311283
0.000482959
-0.000373923
0.000436222
-0.000425564
0.000377048
-0.000464006
0.000308293
-0.000488387
0.000234202
-0.000498899
0.000159023
-0.000496398
8.56116e-05
-0.000481743
1.62646e-05
-0.000456951
-4.65319e-05
-0.000423613
-0.000100289
-0.000383462
-0.000143901
-0.000339847
-0.000174872
-0.000294974
-0.000193954
-0.000250992
-0.000201464
-0.000210157
-0.000198067
-0.000173929
-0.000185801
-0.000142972
-0.00016637
-0.000118329
-0.0001409
-0.00010051
-0.000111069
-8.96637e-05
-7.87067e-05
-8.57555e-05
-4.52803e-05
-8.80988e-05
-1.26122e-05
-9.52456e-05
1.74859e-05
-0.000106302
4.56778e-05
-0.000120209
7.24169e-05
-0.000136755
0.00010058
-0.000157093
0.000136953
-0.00018218
0.000191602
-0.000208788
0.0002623
-0.000228287
0.000300804
-0.000235721
0.000219048
-0.000242546
-1.26813e-05
-0.000246748
-0.000333203
-0.000253642
-0.000633848
-0.000242302
-0.000856938
-0.00016128
-0.000928095
-0.000565858
7.55517e-05
-0.000639955
5.44935e-05
-0.000892546
1.21541e-05
-0.000813599
-1.88681e-05
-0.000613678
-1.73507e-05
-0.000346114
1.04049e-05
-5.08829e-05
5.35508e-05
0.000164742
9.67219e-05
0.000241385
0.000120357
0.000223122
0.000125898
0.000175067
0.000121324
0.000135006
0.000111993
0.00010692
0.000100548
8.39719e-05
8.91118e-05
6.03483e-05
8.00023e-05
3.30923e-05
7.52072e-05
1.90203e-06
7.63387e-05
-3.28332e-05
8.47614e-05
-7.02207e-05
0.000101461
-0.000108175
0.000126192
-0.000143903
0.000158358
-0.0001753
0.000197327
-0.000200963
0.000242142
-0.000219442
0.000291981
-0.000229081
0.000345219
-0.000227482
0.000399166
-0.000212672
0.000450701
-0.000182744
0.00049639
-0.000137787
0.000532045
-7.65862e-05
0.000555715
-2.88408e-06
0.000564125
8.10567e-05
0.000556486
0.000170497
0.00053174
0.000262861
0.000489555
0.000354453
0.000430932
0.000439634
0.000358415
0.000511944
0.000275289
0.000567526
0.000184561
0.000605195
8.89418e-05
0.000627202
-8.47544e-06
0.000636356
-0.000106086
0.000637132
-0.000201993
0.000628689
-0.000293148
0.000605858
-0.00037617
0.000565978
-0.000448203
0.000508253
-0.00050634
0.000435182
-0.000548391
0.000350342
-0.000573431
0.000259239
-0.000581872
0.000167462
-0.000574944
7.86812e-05
-0.000553364
-5.31646e-06
-0.000519379
-8.05184e-05
-0.000474967
-0.000144702
-0.000423075
-0.000195794
-0.000366382
-0.000231566
-0.000309179
-0.000251157
-0.000254436
-0.000256207
-0.000204252
-0.000248252
-0.000160041
-0.000230012
-0.000122885
-0.000203526
-9.35584e-05
-0.000170227
-7.27125e-05
-0.000131916
-6.07379e-05
-9.06825e-05
-5.71386e-05
-4.88805e-05
-6.03376e-05
-9.41372e-06
-6.87473e-05
2.58951e-05
-7.98247e-05
5.67547e-05
-9.09742e-05
8.35657e-05
-9.97182e-05
0.000109323
-0.000103021
0.000140255
-9.53155e-05
0.000183895
-6.88239e-05
0.000235808
-2.32307e-05
0.000255211
1.842e-05
0.000177396
4.6073e-05
-4.03352e-05
4.06019e-05
-0.000327732
1.79743e-06
-0.000595044
-4.761e-05
-0.000807531
-7.41279e-05
-0.000901578
-0.000639987
-1.4166e-05
-0.00062579
-8.66874e-05
-0.000820025
-0.000152216
-0.000748071
-0.000196127
-0.000569768
-0.000204131
-0.000338111
-0.000157731
-9.72842e-05
-7.91468e-05
8.61579e-05
2.60404e-06
0.000159634
6.00793e-05
0.000165647
8.97846e-05
0.000145361
9.89952e-05
0.000125795
9.60179e-05
0.000109897
8.64109e-05
9.35789e-05
7.43046e-05
7.24539e-05
6.34436e-05
4.39527e-05
5.65706e-05
8.77396e-06
5.59311e-05
-3.21948e-05
6.41081e-05
-7.83989e-05
8.22937e-05
-0.000126362
0.000110863
-0.000172473
0.000148389
-0.000212828
0.000194367
-0.000246942
0.000247991
-0.000273068
0.000309241
-0.000290333
0.000376436
-0.000294679
0.00044622
-0.000282457
0.000514447
-0.000250972
0.000575196
-0.000198538
0.00062398
-0.000125372
0.000657086
-3.59922e-05
0.000672246
6.58958e-05
0.00066822
0.000174523
0.000643594
0.000287488
0.000598147
0.0003999
0.000531876
0.000505905
0.000446277
0.000597544
0.000345058
0.000668745
0.00023228
0.000717971
0.000112913
0.000746569
-9.29974e-06
0.000758568
-0.000131347
0.000759177
-0.000250496
0.000747836
-0.000362977
0.000718339
-0.000463542
0.000666542
-0.000548442
0.000593153
-0.000614559
0.000501297
-0.000660295
0.000396077
-0.000685141
0.000284084
-0.000690266
0.000172586
-0.000677589
6.60031e-05
-0.000648518
-3.4388e-05
-0.000604122
-0.000124915
-0.000545649
-0.000203175
-0.000477409
-0.000264034
-0.000404231
-0.000304745
-0.000331483