/*--------------------------------*- C++ -*----------------------------------*\
| =========                 |                                                 |
| \\      /  F ield         | OpenFOAM: The Open Source CFD Toolbox           |
|  \\    /   O peration     | Version:  2412                                  |
|   \\  /    A nd           | Website:  www.openfoam.com                      |
|    \\/     M anipulation  |                                                 |
\*---------------------------------------------------------------------------*/
FoamFile
{
    version     2.0;
    format      ascii;
    arch        "LSB;label=32;scalar=64";
    class       volVectorField;
    location    "0.35";
    object      U;
}
// * * * * * * * * * * * * * * * * * * * * * * * * * * * * * * * * * * * * * //

dimensions      [0 1 -1 0 0 0 0];

internalField   nonuniform List<vector> 
6400
(
(-4.81077e-09 5.43818e-09 0)
(-9.01545e-08 4.03358e-08 0)
(-2.55677e-07 6.26878e-08 0)
(-4.87147e-07 7.19948e-08 0)
(-7.51629e-07 7.61098e-08 0)
(-1.02806e-06 7.74777e-08 0)
(-1.30486e-06 7.69693e-08 0)
(-1.57539e-06 7.51411e-08 0)
(-1.83562e-06 7.24787e-08 0)
(-2.08298e-06 6.93508e-08 0)
(-2.3158e-06 6.59109e-08 0)
(-2.53289e-06 6.22613e-08 0)
(-2.73339e-06 5.83991e-08 0)
(-2.91645e-06 5.43233e-08 0)
(-3.08123e-06 5.0013e-08 0)
(-3.22681e-06 4.55036e-08 0)
(-3.35228e-06 4.07558e-08 0)
(-3.45678e-06 3.58265e-08 0)
(-3.53945e-06 3.06693e-08 0)
(-3.59949e-06 2.52708e-08 0)
(-3.6362e-06 1.96872e-08 0)
(-3.64899e-06 1.39425e-08 0)
(-3.63756e-06 8.03935e-09 0)
(-3.60149e-06 2.20849e-09 0)
(-3.54062e-06 -3.72031e-09 0)
(-3.45515e-06 -9.67168e-09 0)
(-3.34534e-06 -1.55816e-08 0)
(-3.21166e-06 -2.13893e-08 0)
(-3.05481e-06 -2.70433e-08 0)
(-2.8757e-06 -3.25078e-08 0)
(-2.67541e-06 -3.77412e-08 0)
(-2.45526e-06 -4.26854e-08 0)
(-2.21676e-06 -4.72809e-08 0)
(-1.96162e-06 -5.14746e-08 0)
(-1.6917e-06 -5.52101e-08 0)
(-1.40901e-06 -5.84218e-08 0)
(-1.11572e-06 -6.10441e-08 0)
(-8.14111e-07 -6.30238e-08 0)
(-5.06538e-07 -6.43229e-08 0)
(-1.9541e-07 -6.49175e-08 0)
(1.16852e-07 -6.48006e-08 0)
(4.27853e-07 -6.39857e-08 0)
(7.35252e-07 -6.25052e-08 0)
(1.03678e-06 -6.0402e-08 0)
(1.33023e-06 -5.77227e-08 0)
(1.61341e-06 -5.4516e-08 0)
(1.88418e-06 -5.08355e-08 0)
(2.14042e-06 -4.67402e-08 0)
(2.38011e-06 -4.22876e-08 0)
(2.60133e-06 -3.75247e-08 0)
(2.80236e-06 -3.24824e-08 0)
(2.98175e-06 -2.71783e-08 0)
(3.13834e-06 -2.16267e-08 0)
(3.27134e-06 -1.58522e-08 0)
(3.38032e-06 -9.90261e-09 0)
(3.46517e-06 -3.86512e-09 0)
(3.52598e-06 2.12167e-09 0)
(3.56283e-06 7.91896e-09 0)
(3.57596e-06 1.36458e-08 0)
(3.56565e-06 1.91379e-08 0)
(3.53198e-06 2.44136e-08 0)
(3.47503e-06 2.95919e-08 0)
(3.3949e-06 3.48057e-08 0)
(3.2922e-06 4.00384e-08 0)
(3.16836e-06 4.50578e-08 0)
(3.02538e-06 4.9612e-08 0)
(2.86489e-06 5.367e-08 0)
(2.68754e-06 5.74256e-08 0)
(2.49315e-06 6.11085e-08 0)
(2.2813e-06 6.47964e-08 0)
(2.0521e-06 6.83353e-08 0)
(1.80685e-06 7.14324e-08 0)
(1.54839e-06 7.38491e-08 0)
(1.28077e-06 7.54597e-08 0)
(1.00854e-06 7.60653e-08 0)
(7.37301e-07 7.51174e-08 0)
(4.7662e-07 7.14172e-08 0)
(2.456e-07 6.30635e-08 0)
(7.72893e-08 4.51487e-08 0)
(-2.61149e-09 1.50993e-08 0)
(-2.29562e-08 1.03679e-07 0)
(-2.58527e-07 3.08561e-07 0)
(-6.54043e-07 4.50758e-07 0)
(-1.17213e-06 5.31159e-07 0)
(-1.75524e-06 5.7103e-07 0)
(-2.36608e-06 5.84843e-07 0)
(-2.98053e-06 5.81545e-07 0)
(-3.58274e-06 5.67015e-07 0)
(-4.16259e-06 5.45276e-07 0)
(-4.71376e-06 5.19044e-07 0)
(-5.23223e-06 4.89823e-07 0)
(-5.71525e-06 4.5848e-07 0)
(-6.16069e-06 4.25311e-07 0)
(-6.56662e-06 3.90431e-07 0)
(-6.93118e-06 3.53811e-07 0)
(-7.25247e-06 3.15555e-07 0)
(-7.52856e-06 2.75618e-07 0)
(-7.75755e-06 2.3415e-07 0)
(-7.93762e-06 1.91179e-07 0)
(-8.0671e-06 1.46739e-07 0)
(-8.14454e-06 1.01061e-07 0)
(-8.16877e-06 5.43892e-08 0)
(-8.13883e-06 6.88966e-09 0)
(-8.05423e-06 -4.10391e-08 0)
(-7.91487e-06 -8.92328e-08 0)
(-7.72088e-06 -1.37316e-07 0)
(-7.47293e-06 -1.84901e-07 0)
(-7.17214e-06 -2.31548e-07 0)
(-6.82005e-06 -2.76815e-07 0)
(-6.41863e-06 -3.20281e-07 0)
(-5.97033e-06 -3.61496e-07 0)
(-5.47805e-06 -3.99979e-07 0)
(-4.94515e-06 -4.35281e-07 0)
(-4.37538e-06 -4.67015e-07 0)
(-3.77289e-06 -4.94835e-07 0)
(-3.14213e-06 -5.18424e-07 0)
(-2.48788e-06 -5.37513e-07 0)
(-1.81511e-06 -5.51902e-07 0)
(-1.12901e-06 -5.61456e-07 0)
(-4.34852e-07 -5.66086e-07 0)
(2.62013e-07 -5.65758e-07 0)
(9.56265e-07 -5.60495e-07 0)
(1.64266e-06 -5.50373e-07 0)
(2.31604e-06 -5.35502e-07 0)
(2.97137e-06 -5.16028e-07 0)
(3.60371e-06 -4.92151e-07 0)
(4.20827e-06 -4.6416e-07 0)
(4.78043e-06 -4.32437e-07 0)
(5.31582e-06 -3.97432e-07 0)
(5.81042e-06 -3.59605e-07 0)
(6.26066e-06 -3.19375e-07 0)
(6.66348e-06 -2.77098e-07 0)
(7.01646e-06 -2.33066e-07 0)
(7.31783e-06 -1.87528e-07 0)
(7.56644e-06 -1.40722e-07 0)
(7.76161e-06 -9.29406e-08 0)
(7.90308e-06 -4.46191e-08 0)
(7.99094e-06 3.67298e-09 0)
(8.02525e-06 5.15049e-08 0)
(8.00614e-06 9.82603e-08 0)
(7.93404e-06 1.43613e-07 0)
(7.80964e-06 1.87517e-07 0)
(7.63402e-06 2.30127e-07 0)
(7.40897e-06 2.71488e-07 0)
(7.13727e-06 3.11326e-07 0)
(6.82229e-06 3.49299e-07 0)
(6.46665e-06 3.85387e-07 0)
(6.07131e-06 4.1978e-07 0)
(5.63605e-06 4.52448e-07 0)
(5.16113e-06 4.83049e-07 0)
(4.64868e-06 5.11238e-07 0)
(4.10303e-06 5.36706e-07 0)
(3.52997e-06 5.58484e-07 0)
(2.93615e-06 5.73893e-07 0)
(2.3305e-06 5.78042e-07 0)
(1.72777e-06 5.64247e-07 0)
(1.15277e-06 5.24608e-07 0)
(6.42906e-07 4.4835e-07 0)
(2.53039e-07 3.17057e-07 0)
(2.0583e-08 1.18803e-07 0)
(-3.80666e-08 2.98056e-07 0)
(-3.84937e-07 7.53684e-07 0)
(-9.38071e-07 1.05936e-06 0)
(-1.64252e-06 1.23927e-06 0)
(-2.42529e-06 1.33154e-06 0)
(-3.2417e-06 1.36399e-06 0)
(-4.06206e-06 1.35618e-06 0)
(-4.86578e-06 1.32178e-06 0)
(-5.63921e-06 1.27012e-06 0)
(-6.37374e-06 1.20748e-06 0)
(-7.064e-06 1.13763e-06 0)
(-7.70637e-06 1.06268e-06 0)
(-8.29808e-06 9.83494e-07 0)
(-8.83665e-06 9.004e-07 0)
(-9.31964e-06 8.13394e-07 0)
(-9.7446e-06 7.22533e-07 0)
(-1.01091e-05 6.27789e-07 0)
(-1.04106e-05 5.29263e-07 0)
(-1.06468e-05 4.27182e-07 0)
(-1.08154e-05 3.21781e-07 0)
(-1.09147e-05 2.1352e-07 0)
(-1.0943e-05 1.02997e-07 0)
(-1.08992e-05 -9.21957e-09 0)
(-1.07826e-05 -1.22539e-07 0)
(-1.0593e-05 -2.36068e-07 0)
(-1.03307e-05 -3.48981e-07 0)
(-9.99666e-06 -4.6041e-07 0)
(-9.59225e-06 -5.69416e-07 0)
(-9.11957e-06 -6.75045e-07 0)
(-8.58124e-06 -7.76343e-07 0)
(-7.98055e-06 -8.72307e-07 0)
(-7.32138e-06 -9.61906e-07 0)
(-6.6082e-06 -1.04416e-06 0)
(-5.84606e-06 -1.1182e-06 0)
(-5.04047e-06 -1.18322e-06 0)
(-4.19739e-06 -1.23851e-06 0)
(-3.32313e-06 -1.28344e-06 0)
(-2.42429e-06 -1.31751e-06 0)
(-1.50772e-06 -1.34033e-06 0)
(-5.80443e-07 -1.35164e-06 0)
(3.50471e-07 -1.35129e-06 0)
(1.27795e-06 -1.33929e-06 0)
(2.195e-06 -1.31578e-06 0)
(3.09473e-06 -1.28104e-06 0)
(3.97039e-06 -1.23547e-06 0)
(4.81542e-06 -1.17962e-06 0)
(5.62344e-06 -1.11423e-06 0)
(6.38834e-06 -1.04019e-06 0)
(7.10438e-06 -9.58492e-07 0)
(7.76628e-06 -8.70091e-07 0)
(8.36932e-06 -7.75852e-07 0)
(8.9095e-06 -6.76522e-07 0)
(9.38363e-06 -5.7277e-07 0)
(9.78934e-06 -4.65251e-07 0)
(1.0125e-05 -3.5468e-07 0)
(1.03898e-05 -2.41905e-07 0)
(1.0583e-05 -1.28004e-07 0)
(1.07046e-05 -1.42594e-08 0)
(1.07545e-05 9.79811e-08 0)
(1.07329e-05 2.0783e-07 0)
(1.06402e-05 3.14846e-07 0)
(1.04775e-05 4.18995e-07 0)
(1.02467e-05 5.2037e-07 0)
(9.95057e-06 6.18808e-07 0)
(9.59268e-06 7.13703e-07 0)
(9.17677e-06 8.04341e-07 0)
(8.70549e-06 8.90397e-07 0)
(8.17978e-06 9.71974e-07 0)
(7.59977e-06 1.04929e-06 0)
(6.96679e-06 1.12245e-06 0)
(6.2847e-06 1.19111e-06 0)
(5.55935e-06 1.25363e-06 0)
(4.79717e-06 1.30605e-06 0)
(4.00527e-06 1.34141e-06 0)
(3.19511e-06 1.34969e-06 0)
(2.38816e-06 1.31751e-06 0)
(1.61839e-06 1.22733e-06 0)
(9.31047e-07 1.0532e-06 0)
(3.86326e-07 7.54749e-07 0)
(3.88314e-08 3.01179e-07 0)
(-4.84947e-08 5.50995e-07 0)
(-4.71635e-07 1.31923e-06 0)
(-1.13435e-06 1.81686e-06 0)
(-1.96775e-06 2.11072e-06 0)
(-2.88562e-06 2.26237e-06 0)
(-3.83739e-06 2.31465e-06 0)
(-4.79006e-06 2.29889e-06 0)
(-5.72082e-06 2.23794e-06 0)
(-6.6146e-06 2.14777e-06 0)
(-7.46198e-06 2.03909e-06 0)
(-8.25717e-06 1.91838e-06 0)
(-8.99636e-06 1.78917e-06 0)
(-9.67662e-06 1.65293e-06 0)
(-1.02953e-05 1.51014e-06 0)
(-1.08497e-05 1.36079e-06 0)
(-1.13371e-05 1.20481e-06 0)
(-1.17547e-05 1.04217e-06 0)
(-1.20996e-05 8.72922e-07 0)
(-1.23691e-05 6.97476e-07 0)
(-1.25607e-05 5.16459e-07 0)
(-1.26723e-05 3.30686e-07 0)
(-1.27021e-05 1.41133e-07 0)
(-1.26487e-05 -5.1113e-08 0)
(-1.25112e-05 -2.4482e-07 0)
(-1.22895e-05 -4.38591e-07 0)
(-1.19838e-05 -6.31012e-07 0)
(-1.15952e-05 -8.20634e-07 0)
(-1.11251e-05 -1.00594e-06 0)
(-1.05761e-05 -1.1854e-06 0)
(-9.95115e-06 -1.35745e-06 0)
(-9.25397e-06 -1.52044e-06 0)
(-8.48908e-06 -1.67271e-06 0)
(-7.66169e-06 -1.81265e-06 0)
(-6.77762e-06 -1.93879e-06 0)
(-5.84327e-06 -2.04975e-06 0)
(-4.86551e-06 -2.14431e-06 0)
(-3.85165e-06 -2.22138e-06 0)
(-2.80936e-06 -2.28004e-06 0)
(-1.74656e-06 -2.31956e-06 0)
(-6.71358e-07 -2.33941e-06 0)
(4.08036e-07 -2.3393e-06 0)
(1.48343e-06 -2.31921e-06 0)
(2.54672e-06 -2.27937e-06 0)
(3.58991e-06 -2.22026e-06 0)
(4.60518e-06 -2.14259e-06 0)
(5.58493e-06 -2.04736e-06 0)
(6.5218e-06 -1.93586e-06 0)
(7.40874e-06 -1.80957e-06 0)
(8.23915e-06 -1.67009e-06 0)
(9.00693e-06 -1.51901e-06 0)
(9.70666e-06 -1.35777e-06 0)
(1.03338e-05 -1.1877e-06 0)
(1.08845e-05 -1.01003e-06 0)
(1.13564e-05 -8.26025e-07 0)
(1.17474e-05 -6.37046e-07 0)
(1.20564e-05 -4.4461e-07 0)
(1.22829e-05 -2.50506e-07 0)
(1.24265e-05 -5.67554e-08 0)
(1.24872e-05 1.34706e-07 0)
(1.24651e-05 3.22524e-07 0)
(1.23605e-05 5.05998e-07 0)
(1.21752e-05 6.8482e-07 0)
(1.19116e-05 8.58756e-07 0)
(1.15733e-05 1.02737e-06 0)
(1.11641e-05 1.18984e-06 0)
(1.06875e-05 1.34527e-06 0)
(1.01462e-05 1.49316e-06 0)
(9.54134e-06 1.63367e-06 0)
(8.87348e-06 1.76742e-06 0)
(8.14464e-06 1.8949e-06 0)
(7.35955e-06 2.01523e-06 0)
(6.52449e-06 2.12464e-06 0)
(5.64541e-06 2.21556e-06 0)
(4.72886e-06 2.27659e-06 0)
(3.7877e-06 2.2923e-06 0)
(2.84706e-06 2.24175e-06 0)
(1.94481e-06 2.09494e-06 0)
(1.12852e-06 1.80606e-06 0)
(4.70962e-07 1.30886e-06 0)
(4.83168e-08 5.45667e-07 0)
(-5.54522e-08 8.39502e-07 0)
(-5.32181e-07 1.96459e-06 0)
(-1.27539e-06 2.67563e-06 0)
(-2.20415e-06 3.09109e-06 0)
(-3.22085e-06 3.30267e-06 0)
(-4.26912e-06 3.37161e-06 0)
(-5.31315e-06 3.34261e-06 0)
(-6.32893e-06 3.24871e-06 0)
(-7.3012e-06 3.11324e-06 0)
(-8.22085e-06 2.95183e-06 0)
(-9.08247e-06 2.77377e-06 0)
(-9.88262e-06 2.58395e-06 0)
(-1.06186e-05 2.38436e-06 0)
(-1.12878e-05 2.17544e-06 0)
(-1.18875e-05 1.95699e-06 0)
(-1.24146e-05 1.72874e-06 0)
(-1.28662e-05 1.49062e-06 0)
(-1.3239e-05 1.24275e-06 0)
(-1.35301e-05 9.85725e-07 0)
(-1.37368e-05 7.20615e-07 0)
(-1.38567e-05 4.48704e-07 0)
(-1.38877e-05 1.7143e-07 0)
(-1.38283e-05 -1.09512e-07 0)
(-1.36776e-05 -3.92242e-07 0)
(-1.34352e-05 -6.74798e-07 0)
(-1.31012e-05 -9.55179e-07 0)
(-1.26767e-05 -1.23132e-06 0)
(-1.21635e-05 -1.5011e-06 0)
(-1.15638e-05 -1.76239e-06 0)
(-1.08811e-05 -2.01297e-06 0)
(-1.01193e-05 -2.25048e-06 0)
(-9.28335e-06 -2.47254e-06 0)
(-8.37894e-06 -2.67684e-06 0)
(-7.41236e-06 -2.86121e-06 0)
(-6.3906e-06 -3.0236e-06 0)
(-5.32119e-06 -3.16217e-06 0)
(-4.21213e-06 -3.27525e-06 0)
(-3.07184e-06 -3.36144e-06 0)
(-1.90903e-06 -3.41959e-06 0)
(-7.32613e-07 -3.44891e-06 0)
(4.48401e-07 -3.44897e-06 0)
(1.625e-06 -3.41972e-06 0)
(2.78827e-06 -3.36153e-06 0)
(3.92943e-06 -3.27514e-06 0)
(5.0399e-06 -3.16166e-06 0)
(6.11134e-06 -3.02259e-06 0)
(7.13569e-06 -2.85977e-06 0)
(8.10529e-06 -2.67535e-06 0)
(9.01292e-06 -2.47158e-06 0)
(9.85196e-06 -2.2507e-06 0)
(1.06166e-05 -2.01484e-06 0)
(1.13018e-05 -1.766e-06 0)
(1.19037e-05 -1.50615e-06 0)
(1.24195e-05 -1.23729e-06 0)
(1.28471e-05 -9.61536e-07 0)
(1.31855e-05 -6.81109e-07 0)
(1.34337e-05 -3.98477e-07 0)
(1.35915e-05 -1.16325e-07 0)
(1.36589e-05 1.62807e-07 0)
(1.3636e-05 4.37098e-07 0)
(1.35235e-05 7.05498e-07 0)
(1.33232e-05 9.67238e-07 0)
(1.30387e-05 1.22151e-06 0)
(1.26738e-05 1.46748e-06 0)
(1.22323e-05 1.70431e-06 0)
(1.17172e-05 1.93115e-06 0)
(1.11311e-05 2.14754e-06 0)
(1.04758e-05 2.35371e-06 0)
(9.75278e-06 2.5506e-06 0)
(8.9646e-06 2.73903e-06 0)
(8.11565e-06 2.91774e-06 0)
(7.21089e-06 3.08108e-06 0)
(6.25481e-06 3.21784e-06 0)
(5.25398e-06 3.31134e-06 0)
(4.2229e-06 3.33948e-06 0)
(3.18813e-06 3.27244e-06 0)
(2.18678e-06 3.06643e-06 0)
(1.26924e-06 2.65424e-06 0)
(5.27701e-07 1.94355e-06 0)
(5.50949e-08 8.33295e-07 0)
(-6.01156e-08 1.15434e-06 0)
(-5.77957e-07 2.67019e-06 0)
(-1.38582e-06 3.613e-06 0)
(-2.39145e-06 4.15626e-06 0)
(-3.48705e-06 4.42654e-06 0)
(-4.61057e-06 4.50705e-06 0)
(-5.72349e-06 4.45816e-06 0)
(-6.80108e-06 4.32449e-06 0)
(-7.82855e-06 4.13748e-06 0)
(-8.79781e-06 3.9179e-06 0)
(-9.70447e-06 3.67781e-06 0)
(-1.05459e-05 3.42326e-06 0)
(-1.13199e-05 3.15637e-06 0)
(-1.2024e-05 2.87736e-06 0)
(-1.26555e-05 2.58566e-06 0)
(-1.32111e-05 2.28069e-06 0)
(-1.36875e-05 1.96229e-06 0)
(-1.40812e-05 1.63073e-06 0)
(-1.43889e-05 1.28686e-06 0)
(-1.46077e-05 9.32204e-07 0)
(-1.47349e-05 5.68562e-07 0)
(-1.47684e-05 1.97922e-07 0)
(-1.47063e-05 -1.77423e-07 0)
(-1.45474e-05 -5.54984e-07 0)
(-1.42914e-05 -9.32217e-07 0)
(-1.39382e-05 -1.3065e-06 0)
(-1.34889e-05 -1.67515e-06 0)
(-1.2945e-05 -2.03543e-06 0)
(-1.23091e-05 -2.38452e-06 0)
(-1.15845e-05 -2.71946e-06 0)
(-1.07754e-05 -3.03712e-06 0)
(-9.88706e-06 -3.33431e-06 0)
(-8.92532e-06 -3.60791e-06 0)
(-7.89687e-06 -3.85496e-06 0)
(-6.80914e-06 -4.07267e-06 0)
(-5.67015e-06 -4.25848e-06 0)
(-4.48851e-06 -4.41011e-06 0)
(-3.27323e-06 -4.52563e-06 0)
(-2.03369e-06 -4.6035e-06 0)
(-7.7949e-07 -4.64265e-06 0)
(4.79646e-07 -4.64256e-06 0)
(1.73401e-06 -4.60323e-06 0)
(2.97401e-06 -4.5252e-06 0)
(4.19017e-06 -4.40952e-06 0)
(5.37328e-06 -4.25771e-06 0)
(6.51437e-06 -4.07179e-06 0)
(7.60485e-06 -3.8542e-06 0)
(8.63652e-06 -3.60771e-06 0)
(9.60176e-06 -3.33524e-06 0)
(1.04936e-05 -3.03973e-06 0)
(1.13059e-05 -2.72402e-06 0)
(1.20336e-05 -2.39092e-06 0)
(1.26726e-05 -2.04321e-06 0)
(1.32198e-05 -1.68375e-06 0)
(1.36735e-05 -1.31544e-06 0)
(1.40321e-05 -9.4127e-07 0)
(1.42949e-05 -5.64335e-07 0)
(1.44615e-05 -1.87905e-07 0)
(1.45319e-05 1.84833e-07 0)
(1.45069e-05 5.51435e-07 0)
(1.43873e-05 9.10379e-07 0)
(1.41754e-05 1.26041e-06 0)
(1.38751e-05 1.60006e-06 0)
(1.34907e-05 1.92801e-06 0)
(1.3026e-05 2.24329e-06 0)
(1.24835e-05 2.54531e-06 0)
(1.18657e-05 2.83392e-06 0)
(1.11753e-05 3.10971e-06 0)
(1.04152e-05 3.37389e-06 0)
(9.58824e-06 3.62735e-06 0)
(8.69758e-06 3.86856e-06 0)
(7.7455e-06 4.09081e-06 0)
(6.73451e-06 4.28006e-06 0)
(5.67147e-06 4.41426e-06 0)
(4.57254e-06 4.46311e-06 0)
(3.46443e-06 4.38486e-06 0)
(2.38195e-06 4.11918e-06 0)
(1.38063e-06 3.57823e-06 0)
(5.74174e-07 2.6418e-06 0)
(6.187e-08 1.15119e-06 0)
(-6.38459e-08 1.49116e-06 0)
(-6.17214e-07 3.42598e-06 0)
(-1.48238e-06 4.6166e-06 0)
(-2.55609e-06 5.29321e-06 0)
(-3.72077e-06 5.62033e-06 0)
(-4.90873e-06 5.70646e-06 0)
(-6.07886e-06 5.63025e-06 0)
(-7.20605e-06 5.44963e-06 0)
(-8.27649e-06 5.20502e-06 0)
(-9.28358e-06 4.92251e-06 0)
(-1.02244e-05 4.61676e-06 0)
(-1.10974e-05 4.29459e-06 0)
(-1.19011e-05 3.9579e-06 0)
(-1.26332e-05 3.6063e-06 0)
(-1.3291e-05 3.23868e-06 0)
(-1.38708e-05 2.85406e-06 0)
(-1.43689e-05 2.45216e-06 0)
(-1.47815e-05 2.03342e-06 0)
(-1.5105e-05 1.59904e-06 0)
(-1.5336e-05 1.15098e-06 0)
(-1.54716e-05 6.91531e-07 0)
(-1.55093e-05 2.23262e-07 0)
(-1.54472e-05 -2.50959e-07 0)
(-1.52838e-05 -7.28073e-07 0)
(-1.50186e-05 -1.20493e-06 0)
(-1.46515e-05 -1.67827e-06 0)
(-1.41833e-05 -2.14474e-06 0)
(-1.36156e-05 -2.60089e-06 0)
(-1.29507e-05 -3.04312e-06 0)
(-1.21922e-05 -3.4676e-06 0)
(-1.13442e-05 -3.87031e-06 0)
(-1.0412e-05 -4.24717e-06 0)
(-9.40182e-06 -4.59418e-06 0)
(-8.32052e-06 -4.90752e-06 0)
(-7.17592e-06 -5.18359e-06 0)
(-5.97653e-06 -5.4191e-06 0)
(-4.73146e-06 -5.61114e-06 0)
(-3.45037e-06 -5.75729e-06 0)
(-2.14329e-06 -5.85564e-06 0)
(-8.20508e-07 -5.90491e-06 0)
(5.07548e-07 -5.90449e-06 0)
(1.83048e-06 -5.85446e-06 0)
(3.13797e-06 -5.75557e-06 0)
(4.4199e-06 -5.60915e-06 0)
(5.66639e-06 -5.41715e-06 0)
(6.86791e-06 -5.18206e-06 0)
(8.01532e-06 -4.9069e-06 0)
(9.10002e-06 -4.59507e-06 0)
(1.0114e-05 -4.25016e-06 0)
(1.10501e-05 -3.87583e-06 0)
(1.19021e-05 -3.47575e-06 0)
(1.26646e-05 -3.0536e-06 0)
(1.33336e-05 -2.61311e-06 0)
(1.39059e-05 -2.15802e-06 0)
(1.43796e-05 -1.69209e-06 0)
(1.47532e-05 -1.21913e-06 0)
(1.5026e-05 -7.42873e-07 0)
(1.51974e-05 -2.67107e-07 0)
(1.52677e-05 2.04322e-07 0)
(1.52384e-05 6.68149e-07 0)
(1.51109e-05 1.12217e-06 0)
(1.48876e-05 1.56461e-06 0)
(1.45725e-05 1.99347e-06 0)
(1.41705e-05 2.40682e-06 0)
(1.36854e-05 2.80346e-06 0)
(1.31197e-05 3.18304e-06 0)
(1.24758e-05 3.54603e-06 0)
(1.17575e-05 3.89367e-06 0)
(1.09689e-05 4.22754e-06 0)
(1.01135e-05 4.54849e-06 0)
(9.19221e-06 4.85497e-06 0)
(8.20444e-06 5.13992e-06 0)
(7.15083e-06 5.38739e-06 0)
(6.03822e-06 5.57039e-06 0)
(4.88311e-06 5.64911e-06 0)
(3.71077e-06 5.56642e-06 0)
(2.55499e-06 5.24195e-06 0)
(1.4815e-06 4.56786e-06 0)
(6.19888e-07 3.39214e-06 0)
(6.86991e-08 1.48801e-06 0)
(-6.76228e-08 1.84825e-06 0)
(-6.55401e-07 4.228e-06 0)
(-1.57582e-06 5.68104e-06 0)
(-2.71478e-06 6.49575e-06 0)
(-3.94485e-06 6.87727e-06 0)
(-5.19274e-06 6.96248e-06 0)
(-6.4149e-06 6.85106e-06 0)
(-7.58613e-06 6.61615e-06 0)
(-8.69402e-06 6.30805e-06 0)
(-9.73392e-06 5.95837e-06 0)
(-1.07046e-05 5.58408e-06 0)
(-1.16059e-05 5.19232e-06 0)
(-1.24369e-05 4.78429e-06 0)
(-1.31957e-05 4.35861e-06 0)
(-1.38791e-05 3.91338e-06 0)
(-1.44833e-05 3.44715e-06 0)
(-1.5004e-05 2.9595e-06 0)
(-1.54368e-05 2.45102e-06 0)
(-1.57776e-05 1.92331e-06 0)
(-1.60228e-05 1.37869e-06 0)
(-1.61688e-05 8.19948e-07 0)
(-1.62131e-05 2.50222e-07 0)
(-1.61535e-05 -3.27059e-07 0)
(-1.59883e-05 -9.08265e-07 0)
(-1.57167e-05 -1.48962e-06 0)
(-1.53386e-05 -2.06715e-06 0)
(-1.48546e-05 -2.63676e-06 0)
(-1.42659e-05 -3.19413e-06 0)
(-1.35751e-05 -3.73473e-06 0)
(-1.27854e-05 -4.25376e-06 0)
(-1.19011e-05 -4.7462e-06 0)
(-1.09275e-05 -5.20701e-06 0)
(-9.87077e-06 -5.63127e-06 0)
(-8.7383e-06 -6.01425e-06 0)
(-7.53819e-06 -6.35154e-06 0)
(-6.27945e-06 -6.63913e-06 0)
(-4.97178e-06 -6.87353e-06 0)
(-3.6255e-06 -7.05181e-06 0)
(-2.25135e-06 -7.1717e-06 0)
(-8.60392e-07 -7.23172e-06 0)
(5.36202e-07 -7.23117e-06 0)
(1.92725e-06 -7.17019e-06 0)
(3.30168e-06 -7.04967e-06 0)
(4.64863e-06 -6.87122e-06 0)
(5.95751e-06 -6.63712e-06 0)
(7.21817e-06 -6.35038e-06 0)
(8.42095e-06 -6.01457e-06 0)
(9.55684e-06 -5.63375e-06 0)
(1.06176e-05 -5.21225e-06 0)
(1.15957e-05 -4.75451e-06 0)
(1.24848e-05 -4.26513e-06 0)
(1.32796e-05 -3.74884e-06 0)
(1.3976e-05 -3.2104e-06 0)
(1.45706e-05 -2.65448e-06 0)
(1.50614e-05 -2.08576e-06 0)
(1.54469e-05 -1.50887e-06 0)
(1.57266e-05 -9.28276e-07 0)
(1.58999e-05 -3.48307e-07 0)
(1.59674e-05 2.26599e-07 0)
(1.59311e-05 7.92246e-07 0)
(1.57935e-05 1.34548e-06 0)
(1.55573e-05 1.88395e-06 0)
(1.5226e-05 2.40521e-06 0)
(1.48047e-05 2.90686e-06 0)
(1.42978e-05 3.38733e-06 0)
(1.37083e-05 3.8463e-06 0)
(1.30392e-05 4.28485e-06 0)
(1.22951e-05 4.70526e-06 0)
(1.1481e-05 5.10987e-06 0)
(1.06002e-05 5.49989e-06 0)
(9.65194e-06 5.87392e-06 0)
(8.63334e-06 6.225e-06 0)
(7.54349e-06 6.53596e-06 0)
(6.38799e-06 6.77532e-06 0)
(5.18153e-06 6.89204e-06 0)
(3.94702e-06 6.81109e-06 0)
(2.72092e-06 6.43016e-06 0)
(1.58259e-06 5.61995e-06 0)
(6.66985e-07 4.18789e-06 0)
(7.43924e-08 1.83856e-06 0)
(-7.19122e-08 2.22548e-06 0)
(-6.95528e-07 5.07592e-06 0)
(-1.67227e-06 6.80531e-06 0)
(-2.87695e-06 7.76222e-06 0)
(-4.1722e-06 8.19512e-06 0)
(-5.47915e-06 8.27242e-06 0)
(-6.75207e-06 8.11763e-06 0)
(-7.96602e-06 7.82107e-06 0)
(-9.11027e-06 7.44389e-06 0)
(-1.01824e-05 7.0233e-06 0)
(-1.11833e-05 6.57827e-06 0)
(-1.2114e-05 6.11569e-06 0)
(-1.29741e-05 5.63552e-06 0)
(-1.37619e-05 5.13498e-06 0)
(-1.44739e-05 4.61109e-06 0)
(-1.51056e-05 4.06189e-06 0)
(-1.56521e-05 3.48673e-06 0)
(-1.61084e-05 2.88635e-06 0)
(-1.64699e-05 2.26265e-06 0)
(-1.67322e-05 1.61835e-06 0)
(-1.68916e-05 9.56746e-07 0)
(-1.69451e-05 2.81536e-07 0)
(-1.68903e-05 -4.03273e-07 0)
(-1.67254e-05 -1.09345e-06 0)
(-1.64493e-05 -1.78451e-06 0)
(-1.60617e-05 -2.4717e-06 0)
(-1.55629e-05 -3.15e-06 0)
(-1.49541e-05 -3.81413e-06 0)
(-1.42374e-05 -4.45851e-06 0)
(-1.34161e-05 -5.07725e-06 0)
(-1.24943e-05 -5.6643e-06 0)
(-1.14773e-05 -6.21362e-06 0)
(-1.03718e-05 -6.71931e-06 0)
(-9.18507e-06 -7.17576e-06 0)
(-7.92589e-06 -7.57774e-06 0)
(-6.60375e-06 -7.92052e-06 0)
(-5.22902e-06 -8.19996e-06 0)
(-3.81276e-06 -8.41261e-06 0)
(-2.36652e-06 -8.55578e-06 0)
(-9.02188e-07 -8.62769e-06 0)
(5.68199e-07 -8.62751e-06 0)
(2.03257e-06 -8.55535e-06 0)
(3.47898e-06 -8.41218e-06 0)
(4.89569e-06 -8.19986e-06 0)
(6.27134e-06 -7.92104e-06 0)
(7.59506e-06 -7.57925e-06 0)
(8.85663e-06 -7.17872e-06 0)
(1.00466e-05 -6.72425e-06 0)
(1.11563e-05 -6.221e-06 0)
(1.21782e-05 -5.67439e-06 0)
(1.31057e-05 -5.09004e-06 0)
(1.39333e-05 -4.47385e-06 0)
(1.4657e-05 -3.83177e-06 0)
(1.52734e-05 -3.1695e-06 0)
(1.57801e-05 -2.49254e-06 0)
(1.61758e-05 -1.80639e-06 0)
(1.64602e-05 -1.11639e-06 0)
(1.66332e-05 -4.2745e-07 0)
(1.66954e-05 2.55475e-07 0)
(1.66494e-05 9.27315e-07 0)
(1.64987e-05 1.58378e-06 0)
(1.62465e-05 2.22167e-06 0)
(1.58959e-05 2.83817e-06 0)
(1.54516e-05 3.4306e-06 0)
(1.49189e-05 3.9971e-06 0)
(1.43021e-05 4.53715e-06 0)
(1.36053e-05 5.05214e-06 0)
(1.28339e-05 5.54544e-06 0)
(1.1993e-05 6.02091e-06 0)
(1.1085e-05 6.48088e-06 0)
(1.01082e-05 6.92454e-06 0)
(9.05881e-06 7.34507e-06 0)
(7.93452e-06 7.72474e-06 0)
(6.73826e-06 8.0275e-06 0)
(5.48072e-06 8.18997e-06 0)
(4.18269e-06 8.11742e-06 0)
(2.88801e-06 7.68526e-06 0)
(1.68786e-06 6.73688e-06 0)
(7.13553e-07 5.02895e-06 0)
(7.81901e-08 2.20617e-06 0)
(-7.68275e-08 2.62364e-06 0)
(-7.38683e-07 5.97114e-06 0)
(-1.77421e-06 7.9906e-06 0)
(-3.04654e-06 9.09335e-06 0)
(-4.40837e-06 9.57418e-06 0)
(-5.77546e-06 9.63638e-06 0)
(-7.10035e-06 9.43011e-06 0)
(-8.35865e-06 9.06479e-06 0)
(-9.54156e-06 8.61343e-06 0)
(-1.0649e-05 8.11885e-06 0)
(-1.16839e-05 7.60159e-06 0)
(-1.26484e-05 7.06756e-06 0)
(-1.35427e-05 6.51498e-06 0)
(-1.43646e-05 5.93922e-06 0)
(-1.51104e-05 5.33601e-06 0)
(-1.57749e-05 4.70265e-06 0)
(-1.63523e-05 4.03826e-06 0)
(-1.6837e-05 3.34364e-06 0)
(-1.72235e-05 2.62097e-06 0)
(-1.75069e-05 1.87342e-06 0)
(-1.76831e-05 1.10482e-06 0)
(-1.77488e-05 3.19519e-07 0)
(-1.77013e-05 -4.77849e-07 0)
(-1.75386e-05 -1.28237e-06 0)
(-1.72594e-05 -2.08876e-06 0)
(-1.68629e-05 -2.8914e-06 0)
(-1.63493e-05 -3.68429e-06 0)
(-1.57194e-05 -4.46106e-06 0)
(-1.49751e-05 -5.21503e-06 0)
(-1.41194e-05 -5.93919e-06 0)
(-1.31565e-05 -6.62643e-06 0)
(-1.20918e-05 -7.26968e-06 0)
(-1.0932e-05 -7.86206e-06 0)
(-9.68496e-06 -8.39699e-06 0)
(-8.35988e-06 -8.86837e-06 0)
(-6.9669e-06 -9.27064e-06 0)
(-5.51712e-06 -9.59889e-06 0)
(-4.02239e-06 -9.849e-06 0)
(-2.49518e-06 -1.00177e-05 0)
(-9.48322e-07 -1.01029e-05 0)
(6.05134e-07 -1.01034e-05 0)
(2.15208e-06 -1.00194e-05 0)
(3.67951e-06 -9.85177e-06 0)
(5.17469e-06 -9.60276e-06 0)
(6.62532e-06 -9.27551e-06 0)
(8.0197e-06 -8.87415e-06 0)
(9.34693e-06 -8.40372e-06 0)
(1.0597e-05 -7.86991e-06 0)
(1.1761e-05 -7.27891e-06 0)
(1.2831e-05 -6.63721e-06 0)
(1.38002e-05 -5.95164e-06 0)
(1.46632e-05 -5.22933e-06 0)
(1.54157e-05 -4.47752e-06 0)
(1.60545e-05 -3.70307e-06 0)
(1.65769e-05 -2.91228e-06 0)
(1.69818e-05 -2.11144e-06 0)
(1.72693e-05 -1.30682e-06 0)
(1.74401e-05 -5.04139e-07 0)
(1.74949e-05 2.91217e-07 0)
(1.74364e-05 1.07347e-06 0)
(1.7269e-05 1.83715e-06 0)
(1.69968e-05 2.57798e-06 0)
(1.66225e-05 3.29253e-06 0)
(1.61504e-05 3.97799e-06 0)
(1.55863e-05 4.63246e-06 0)
(1.49366e-05 5.25519e-06 0)
(1.4207e-05 5.84747e-06 0)
(1.34037e-05 6.41357e-06 0)
(1.25311e-05 6.95948e-06 0)
(1.15904e-05 7.48976e-06 0)
(1.05797e-05 8.00484e-06 0)
(9.49555e-06 8.49849e-06 0)
(8.33465e-06 8.95257e-06 0)
(7.09609e-06 9.32572e-06 0)
(5.7853e-06 9.54204e-06 0)
(4.42212e-06 9.48651e-06 0)
(3.06045e-06 9.01111e-06 0)
(1.79643e-06 7.92199e-06 0)
(7.57685e-07 5.91976e-06 0)
(8.08385e-08 2.59841e-06 0)
(-8.23239e-08 3.04378e-06 0)
(-7.84646e-07 6.91547e-06 0)
(-1.88137e-06 9.23869e-06 0)
(-3.22343e-06 1.04907e-05 0)
(-4.65377e-06 1.10158e-05 0)
(-6.08323e-06 1.1056e-05 0)
(-7.463e-06 1.07907e-05 0)
(-8.76975e-06 1.03503e-05 0)
(-9.99662e-06 9.8205e-06 0)
(-1.11457e-05 9.24968e-06 0)
(-1.22216e-05 8.65936e-06 0)
(-1.32275e-05 8.05381e-06 0)
(-1.41636e-05 7.4288e-06 0)
(-1.50275e-05 6.77758e-06 0)
(-1.58145e-05 6.09432e-06 0)
(-1.65188e-05 5.37541e-06 0)
(-1.71338e-05 4.61961e-06 0)
(-1.76528e-05 3.82779e-06 0)
(-1.80697e-05 3.00243e-06 0)
(-1.8379e-05 2.14721e-06 0)
(-1.8576e-05 1.26669e-06 0)
(-1.86572e-05 3.6597e-07 0)
(-1.86195e-05 -5.49553e-07 0)
(-1.84608e-05 -1.4742e-06 0)
(-1.81795e-05 -2.4019e-06 0)
(-1.77744e-05 -3.32612e-06 0)
(-1.72452e-05 -4.23989e-06 0)
(-1.65922e-05 -5.13576e-06 0)
(-1.58173e-05 -6.00591e-06 0)
(-1.4923e-05 -6.84225e-06 0)
(-1.39137e-05 -7.63654e-06 0)
(-1.27948e-05 -8.38062e-06 0)
(-1.15734e-05 -9.06648e-06 0)
(-1.02577e-05 -9.68648e-06 0)
(-8.85751e-06 -1.02334e-05 0)
(-7.38358e-06 -1.07007e-05 0)
(-5.84784e-06 -1.10824e-05 0)
(-4.26307e-06 -1.13736e-05 0)
(-2.64276e-06 -1.15704e-05 0)
(-1.00086e-06 -1.167e-05 0)
(6.4836e-07 -1.16711e-05 0)
(2.29053e-06 -1.15737e-05 0)
(3.91138e-06 -1.1379e-05 0)
(5.49693e-06 -1.10897e-05 0)
(7.03377e-06 -1.07094e-05 0)
(8.50924e-06 -1.02432e-05 0)
(9.9116e-06 -9.69703e-06 0)
(1.12302e-05 -9.0776e-06 0)
(1.24557e-05 -8.39226e-06 0)
(1.35799e-05 -7.64877e-06 0)
(1.45957e-05 -6.85522e-06 0)
(1.54977e-05 -6.02005e-06 0)
(1.62814e-05 -5.15187e-06 0)
(1.6944e-05 -4.2588e-06 0)
(1.74828e-05 -3.34805e-06 0)
(1.78965e-05 -2.42659e-06 0)
(1.81858e-05 -1.50164e-06 0)
(1.83525e-05 -5.79885e-07 0)
(1.83979e-05 3.32733e-07 0)
(1.83243e-05 1.22993e-06 0)
(1.81364e-05 2.10521e-06 0)
(1.78392e-05 2.95303e-06 0)
(1.74357e-05 3.76903e-06 0)
(1.69299e-05 4.55009e-06 0)
(1.63282e-05 5.29444e-06 0)
(1.56383e-05 6.00139e-06 0)
(1.48684e-05 6.67199e-06 0)
(1.40254e-05 7.31104e-06 0)
(1.31131e-05 7.9268e-06 0)
(1.21315e-05 8.52716e-06 0)
(1.10786e-05 9.11513e-06 0)
(9.95227e-06 9.68588e-06 0)
(8.7488e-06 1.02203e-05 0)
(7.4633e-06 1.06707e-05 0)
(6.0959e-06 1.09488e-05 0)
(4.66726e-06 1.09201e-05 0)
(3.2395e-06 1.04093e-05 0)
(1.90556e-06 9.17523e-06 0)
(7.99799e-07 6.86461e-06 0)
(8.41316e-08 3.01985e-06 0)
(-8.83063e-08 3.48673e-06 0)
(-8.32507e-07 7.91025e-06 0)
(-1.99197e-06 1.05509e-05 0)
(-3.40526e-06 1.19555e-05 0)
(-4.90609e-06 1.25219e-05 0)
(-6.40096e-06 1.25338e-05 0)
(-7.8402e-06 1.22034e-05 0)
(-9.20182e-06 1.16831e-05 0)
(-1.0481e-05 1.10719e-05 0)
(-1.16814e-05 1.04236e-05 0)
(-1.28089e-05 9.76014e-06 0)
(-1.38669e-05 9.0833e-06 0)
(-1.48554e-05 8.3859e-06 0)
(-1.57713e-05 7.65871e-06 0)
(-1.66091e-05 6.89417e-06 0)
(-1.7362e-05 6.0876e-06 0)
(-1.80224e-05 5.23737e-06 0)
(-1.85831e-05 4.34439e-06 0)
(-1.90369e-05 3.41154e-06 0)
(-1.93776e-05 2.4432e-06 0)
(-1.96e-05 1.44489e-06 0)
(-1.97002e-05 4.22697e-07 0)
(-1.96751e-05 -6.17073e-07 0)
(-1.95222e-05 -1.66799e-06 0)
(-1.92397e-05 -2.72331e-06 0)
(-1.88258e-05 -3.77575e-06 0)
(-1.82796e-05 -4.81743e-06 0)
(-1.7601e-05 -5.83988e-06 0)
(-1.67915e-05 -6.83416e-06 0)
(-1.58535e-05 -7.79101e-06 0)
(-1.47912e-05 -8.70096e-06 0)
(-1.36103e-05 -9.55457e-06 0)
(-1.23181e-05 -1.03425e-05 0)
(-1.09233e-05 -1.10557e-05 0)
(-9.43632e-06 -1.16856e-05 0)
(-7.8686e-06 -1.22243e-05 0)
(-6.23301e-06 -1.26647e-05 0)
(-4.5434e-06 -1.30008e-05 0)
(-2.81448e-06 -1.32279e-05 0)
(-1.06159e-06 -1.33429e-05 0)
(6.99501e-07 -1.33441e-05 0)
(2.45287e-06 -1.32315e-05 0)
(4.1827e-06 -1.30069e-05 0)
(5.87354e-06 -1.26732e-05 0)
(7.51064e-06 -1.22351e-05 0)
(9.08018e-06 -1.16984e-05 0)
(1.05695e-05 -1.10701e-05 0)
(1.19671e-05 -1.03582e-05 0)
(1.32631e-05 -9.57121e-06 0)
(1.4449e-05 -8.71824e-06 0)
(1.55177e-05 -7.80888e-06 0)
(1.64634e-05 -6.85292e-06 0)
(1.72818e-05 -5.86035e-06 0)
(1.797e-05 -4.84078e-06 0)
(1.85262e-05 -3.80258e-06 0)
(1.89489e-05 -2.75342e-06 0)
(1.92391e-05 -1.70132e-06 0)
(1.94001e-05 -6.54038e-07 0)
(1.94339e-05 3.81762e-07 0)
(1.93425e-05 1.39937e-06 0)
(1.91302e-05 2.39152e-06 0)
(1.88023e-05 3.35145e-06 0)
(1.8363e-05 4.27352e-06 0)
(1.78165e-05 5.15376e-06 0)
(1.71696e-05 5.99048e-06 0)
(1.64315e-05 6.78353e-06 0)
(1.56115e-05 7.53401e-06 0)
(1.47178e-05 8.24687e-06 0)
(1.37545e-05 8.93225e-06 0)
(1.2721e-05 9.60194e-06 0)
(1.16154e-05 1.02634e-05 0)
(1.04363e-05 1.09143e-05 0)
(9.18042e-06 1.15336e-05 0)
(7.84016e-06 1.20671e-05 0)
(6.41194e-06 1.24137e-05 0)
(4.91838e-06 1.24204e-05 0)
(3.42366e-06 1.18784e-05 0)
(2.01352e-06 1.04935e-05 0)
(8.42294e-07 7.86454e-06 0)
(8.95167e-08 3.46912e-06 0)
(-9.4678e-08 3.95282e-06 0)
(-8.81375e-07 8.95599e-06 0)
(-2.1045e-06 1.19279e-05 0)
(-3.5901e-06 1.3489e-05 0)
(-5.1634e-06 1.40944e-05 0)
(-6.7276e-06 1.40737e-05 0)
(-8.23275e-06 1.3674e-05 0)
(-9.65835e-06 1.30713e-05 0)
(-1.10015e-05 1.23778e-05 0)
(-1.22669e-05 1.16524e-05 0)
(-1.34602e-05 1.09163e-05 0)
(-1.45845e-05 1.01685e-05 0)
(-1.56391e-05 9.39843e-06 0)
(-1.66197e-05 8.59407e-06 0)
(-1.752e-05 7.74602e-06 0)
(-1.83322e-05 6.84857e-06 0)
(-1.90479e-05 5.89966e-06 0)
(-1.96588e-05 4.90028e-06 0)
(-2.01571e-05 3.85388e-06 0)
(-2.05357e-05 2.7658e-06 0)
(-2.07887e-05 1.64278e-06 0)
(-2.09118e-05 4.92282e-07 0)
(-2.0902e-05 -6.78361e-07 0)
(-2.07569e-05 -1.86217e-06 0)
(-2.0474e-05 -3.05207e-06 0)
(-2.0051e-05 -4.24032e-06 0)
(-1.94862e-05 -5.41827e-06 0)
(-1.87791e-05 -6.57646e-06 0)
(-1.79303e-05 -7.70474e-06 0)
(-1.69423e-05 -8.79248e-06 0)
(-1.58192e-05 -9.82874e-06 0)
(-1.45667e-05 -1.08024e-05 0)
(-1.31925e-05 -1.17025e-05 0)
(-1.17056e-05 -1.25183e-05 0)
(-1.01171e-05 -1.32395e-05 0)
(-8.43938e-06 -1.38567e-05 0)
(-6.68636e-06 -1.43614e-05 0)
(-4.87322e-06 -1.47466e-05 0)
(-3.01623e-06 -1.50067e-05 0)
(-1.13246e-06 -1.51381e-05 0)
(7.60478e-07 -1.5139e-05 0)
(2.64477e-06 -1.50097e-05 0)
(4.50275e-06 -1.47522e-05 0)
(6.31721e-06 -1.43701e-05 0)
(8.07181e-06 -1.38688e-05 0)
(9.75138e-06 -1.32553e-05 0)
(1.13421e-05 -1.25376e-05 0)
(1.28317e-05 -1.17249e-05 0)
(1.42095e-05 -1.08271e-05 0)
(1.54667e-05 -9.85502e-06 0)
(1.65962e-05 -8.81987e-06 0)
(1.75919e-05 -7.73304e-06 0)