/*--------------------------------*- C++ -*----------------------------------*\
| =========                 |                                                 |
| \\      /  F ield         | OpenFOAM: The Open Source CFD Toolbox           |
|  \\    /   O peration     | Version:  2412                                  |
|   \\  /    A nd           | Website:  www.openfoam.com                      |
|    \\/     M anipulation  |                                                 |
\*---------------------------------------------------------------------------*/
FoamFile
{
    version     2.0;
    format      ascii;
    arch        "LSB;label=32;scalar=64";
    class       surfaceScalarField;
    location    "3.74";
    object      phi;
}
// * * * * * * * * * * * * * * * * * * * * * * * * * * * * * * * * * * * * * //

dimensions      [0 3 -1 0 0 0 0];

oriented        oriented;

internalField   nonuniform List<scalar> 
158920
(
-9.98934e-07
9.98934e-07
-1.85164e-06
8.30749e-07
-2.60517e-06
7.38119e-07
-3.36515e-06
7.53611e-07
-4.12814e-06
7.6541e-07
-4.88631e-06
7.68795e-07
-5.6404e-06
7.72147e-07
-6.39339e-06
7.77594e-07
-7.14838e-06
7.85215e-07
-7.9079e-06
7.94425e-07
-8.67374e-06
8.04497e-07
-9.44689e-06
8.14658e-07
-1.02276e-05
8.24224e-07
-1.10169e-05
8.33841e-07
-1.18146e-05
8.42719e-07
-1.26205e-05
8.50585e-07
-1.34343e-05
8.5757e-07
-1.42556e-05
8.6367e-07
-1.50842e-05
8.69108e-07
-1.59193e-05
8.7351e-07
-1.6761e-05
8.77688e-07
-1.76091e-05
8.81426e-07
-1.84633e-05
8.84903e-07
-1.93234e-05
8.88214e-07
-2.01896e-05
8.9155e-07
-2.1062e-05
8.95225e-07
-2.19409e-05
8.99165e-07
-2.28264e-05
9.03463e-07
-2.37187e-05
9.08176e-07
-2.46183e-05
9.13367e-07
-2.55253e-05
9.19052e-07
-2.64403e-05
9.25271e-07
-2.73635e-05
9.3203e-07
-2.82953e-05
9.39341e-07
-2.92362e-05
9.472e-07
-3.01864e-05
9.55604e-07
-3.11465e-05
9.64539e-07
-3.21168e-05
9.73987e-07
-3.30977e-05
9.83933e-07
-3.40895e-05
9.94357e-07
-3.50927e-05
1.00525e-06
-3.61077e-05
1.01658e-06
-3.71347e-05
1.02834e-06
-3.81742e-05
1.0405e-06
-3.92264e-05
1.05305e-06
-4.02918e-05
1.066e-06
-4.13706e-05
1.07932e-06
-4.24632e-05
1.09301e-06
-4.357e-05
1.10706e-06
-4.46913e-05
1.12148e-06
-4.58275e-05
1.13627e-06
-4.69788e-05
1.15141e-06
-4.81457e-05
1.16692e-06
-4.93285e-05
1.18281e-06
-5.05276e-05
1.19906e-06
-5.17433e-05
1.21571e-06
-5.29761e-05
1.23274e-06
-5.42264e-05
1.25016e-06
-5.54944e-05
1.26799e-06
-5.67807e-05
1.28622e-06
-5.80857e-05
1.30487e-06
-5.94097e-05
1.32394e-06
-6.07533e-05
1.34344e-06
-6.21167e-05
1.36336e-06
-6.35006e-05
1.38373e-06
-6.49052e-05
1.40454e-06
-6.63311e-05
1.42579e-06
-6.77787e-05
1.44751e-06
-6.92485e-05
1.46968e-06
-7.0741e-05
1.49232e-06
-7.22565e-05
1.51544e-06
-7.37957e-05
1.53904e-06
-7.53589e-05
1.56314e-06
-7.69468e-05
1.58772e-06
-7.85597e-05
1.61282e-06
-8.01983e-05
1.63842e-06
-8.1863e-05
1.66455e-06
-8.35543e-05
1.69121e-06
-8.52728e-05
1.71841e-06
-8.70191e-05
1.74615e-06
-8.87937e-05
1.77445e-06
-9.05972e-05
1.8033e-06
-9.243e-05
1.83273e-06
-9.42929e-05
1.86272e-06
-9.61863e-05
1.8933e-06
-9.81109e-05
1.92448e-06
-0.000100067
1.95625e-06
-0.000102056
1.98863e-06
-0.000104078
2.02163e-06
-0.000106133
2.05526e-06
-0.000108223
2.08953e-06
-0.000110348
2.12445e-06
-0.000112508
2.16003e-06
-0.000114704
2.19627e-06
-0.000116938
2.23319e-06
-0.000119209
2.27079e-06
-0.000121518
2.30909e-06
-0.000123866
2.3481e-06
-0.000126254
2.38782e-06
-0.000128683
2.42827e-06
-0.000131152
2.46946e-06
-0.000133664
2.5114e-06
-0.000136218
2.5541e-06
-0.000138816
2.59757e-06
-0.000141458
2.64183e-06
-0.000144145
2.68688e-06
-0.000146878
2.73274e-06
-0.000149657
2.77942e-06
-0.000152485
2.82692e-06
-0.00015536
2.87527e-06
-0.000158285
2.92446e-06
-0.000161259
2.97452e-06
-0.000164285
3.02546e-06
-0.000167363
3.07729e-06
-0.000170493
3.13002e-06
-0.000173677
3.18367e-06
-0.000176915
3.23825e-06
-0.000180209
3.29378e-06
-0.00018356
3.35026e-06
-0.000186968
3.40771e-06
-0.000190434
3.46615e-06
-0.00019396
3.52558e-06
-0.000197546
3.58602e-06
-0.000201194
3.64748e-06
-0.000204904
3.70999e-06
-0.000208678
3.77354e-06
-0.000212516
3.83816e-06
-0.00021642
3.90387e-06
-0.000220391
3.97068e-06
-0.00022443
4.0386e-06
-0.000228538
4.10765e-06
-0.000232716
4.17784e-06
-0.000236965
4.24919e-06
-0.000241287
4.32171e-06
-0.000245683
4.39541e-06
-0.000250154
4.47032e-06
-0.0002547
4.54645e-06
-0.000259325
4.62381e-06
-0.000264027
4.70243e-06
-0.00026881
4.78231e-06
-0.000273674
4.86347e-06
-0.00027862
4.94593e-06
-0.00028365
5.02971e-06
-0.000288765
5.11482e-06
-0.000293967
5.20128e-06
-0.000299256
5.28911e-06
-0.000304635
5.37831e-06
-0.000310104
5.46892e-06
-0.000315665
5.56093e-06
-0.00032132
5.65438e-06
-0.00032707
5.74928e-06
-0.000332916
5.84564e-06
-0.000338859
5.94348e-06
-0.000344902
6.04281e-06
-0.000351047
6.14366e-06
-0.000357293
6.24603e-06
-0.000363643
6.34995e-06
-0.000370099
6.45543e-06
-0.000376662
6.5625e-06
-0.000383333
6.67116e-06
-0.000390115
6.78144e-06
-0.000397009
6.89336e-06
-0.000404016
7.00692e-06
-0.000411139
7.12214e-06
-0.000418378
7.23904e-06
-0.000425736
7.35763e-06
-0.000433215
7.47792e-06
-0.000440815
7.59994e-06
-0.000448539
7.72368e-06
-0.000456389
7.84918e-06
-0.000464366
7.97645e-06
-0.000472471
8.1055e-06
-0.000480708
8.23635e-06
-0.000489078
8.36902e-06
-0.000497582
8.50352e-06
-0.000506222
8.63985e-06
-0.000515001
8.77804e-06
-0.000523919
8.91808e-06
-0.00053298
9.06e-06
-0.000542184
9.20379e-06
-0.000551534
9.34949e-06
-0.000561031
9.49708e-06
-0.000570678
9.6466e-06
-0.000580477
9.79804e-06
-0.000590429
9.95141e-06
-0.000600536
1.01067e-05
-0.000610801
1.0264e-05
-0.000621224
1.04232e-05
-0.000631809
1.05844e-05
-0.000642557
1.07476e-05
-0.000653471
1.09127e-05
-0.000664551
1.10798e-05
-0.000675801
1.12489e-05
-0.000687221
1.142e-05
-0.000698815
1.1593e-05
-0.000710583
1.17681e-05
-0.000722529
1.19451e-05
-0.000734654
1.21241e-05
-0.000746959
1.2305e-05
-0.000759448
1.2488e-05
-0.000772121
1.26728e-05
-0.000784981
1.28597e-05
-0.000798031
1.30485e-05
-0.00081127
1.32392e-05
-0.000824703
1.34319e-05
-0.00083833
1.36264e-05
-0.000852153
1.38229e-05
-0.000866175
1.40213e-05
-0.000880397
1.42215e-05
-0.000894822
1.44235e-05
-0.00090945
1.46274e-05
-0.000924283
1.48331e-05
-0.000939324
1.50405e-05
-0.000954575
1.52497e-05
-0.000970036
1.54606e-05
-0.00098571
1.56732e-05
-0.0010016
1.58875e-05
-0.0010177
1.61034e-05
-0.00103402
1.63209e-05
-0.00105056
1.65399e-05
-0.00106733
1.67604e-05
-0.00108431
1.69823e-05
-0.00110151
1.72057e-05
-0.00111895
1.74304e-05
-0.0011366
1.76565e-05
-0.00115449
1.78838e-05
-0.0011726
1.81123e-05
-0.00119094
1.83419e-05
-0.00120952
1.85726e-05
-0.00122832
1.88043e-05
-0.00124736
1.90369e-05
-0.00126663
1.92704e-05
-0.00128614
1.95047e-05
-0.00130588
1.97397e-05
-0.00132585
1.99753e-05
-0.00134606
2.02115e-05
-0.00136651
2.04481e-05
-0.0013872
2.0685e-05
-0.00140812
2.09223e-05
-0.00142928
2.11596e-05
-0.00145068
2.1397e-05
-0.00147232
2.16344e-05
-0.00149419
2.18715e-05
-0.0015163
2.21084e-05
-0.00153864
2.23449e-05
-0.00156122
2.25808e-05
-0.00158404
2.2816e-05
-0.00160709
2.30505e-05
-0.00163038
2.32839e-05
-0.00165389
2.35163e-05
-0.00167764
2.37474e-05
-0.00170162
2.39771e-05
-0.00172583
2.42052e-05
-0.00175026
2.44316e-05
-0.00177491
2.4656e-05
-0.00179979
2.48784e-05
-0.00182489
2.50986e-05
-0.00185021
2.53162e-05
-0.00187574
2.55312e-05
-0.00190149
2.57434e-05
-0.00192744
2.59525e-05
-0.0019536
2.61583e-05
-0.00197996
2.63607e-05
-0.00200652
2.65593e-05
-0.00203327
2.6754e-05
-0.00206022
2.69445e-05
-0.00208735
2.71306e-05
-0.00211466
2.7312e-05
-0.00214215
2.74884e-05
-0.00216981
2.76597e-05
-0.00219764
2.78254e-05
-0.00222562
2.79855e-05
-0.00225376
2.81395e-05
-0.00228205
2.82872e-05
-0.00231048
2.84282e-05
-0.00233904
2.85624e-05
-0.00236773
2.86893e-05
-0.00239654
2.88087e-05
-0.00242546
2.89202e-05
-0.00245449
2.90234e-05
-0.0024836
2.91181e-05
-0.00251281
2.92039e-05
-0.00254209
2.92803e-05
-0.00257144
2.93471e-05
-0.00260084
2.94038e-05
-0.00263029
2.94501e-05
-0.00265978
2.94855e-05
-0.00268929
2.95097e-05
-0.00271881
2.95222e-05
-0.00274833
2.95225e-05
-0.00277784
2.95104e-05
-0.00280733
2.94852e-05
-0.00283678
2.94466e-05
-0.00286617
2.93941e-05
-0.0028955
2.93272e-05
-0.00292474
2.92455e-05
-0.00295389
2.91484e-05
-0.00298293
2.90355e-05
-0.00301184
2.89063e-05
-0.0030406
2.87602e-05
-0.0030692
2.85968e-05
-0.00309761
2.84154e-05
-0.00312583
2.82157e-05
-0.00315382
2.79969e-05
-0.00318158
2.77587e-05
-0.00320908
2.75003e-05
-0.00323631
2.72211e-05
-0.00326323
2.69206e-05
-0.00328982
2.65982e-05
-0.00331608
2.62531e-05
-0.00334196
2.58849e-05
-0.00336746
2.54927e-05
-0.00339253
2.50761e-05
-0.00341717
2.46343e-05
-0.00344133
2.41668e-05
-0.00346501
2.36728e-05
-0.00348816
2.31519e-05
-0.00351076
2.26032e-05
-0.00353279
2.20261e-05
-0.00355421
2.14201e-05
-0.003575
2.07843e-05
-0.00359511
2.01181e-05
-0.00361453
1.94209e-05
-0.00363323
1.86918e-05
-0.00365116
1.79303e-05
-0.00366829
1.71355e-05
-0.0036846
1.63067e-05
-0.00370004
1.54434e-05
-0.00371459
1.45447e-05
-0.0037282
1.36101e-05
-0.00374084
1.2639e-05
-0.00375247
1.16306e-05
-0.00376305
1.05845e-05
-0.00377255
9.49988e-06
-0.00378093
8.37628e-06
-0.00378814
7.21318e-06
-0.00379415
6.01011e-06
-0.00379892
4.76676e-06
-0.0038024
3.48304e-06
-0.00380456
2.15962e-06
-0.00380536
8.00285e-07
-0.00380473
-6.33115e-07
-0.00380264
-2.091e-06
-0.00379908
-3.566e-06
-0.00379397
-5.10037e-06
-0.00378729
-6.68575e-06
-0.003779
-8.29094e-06
-0.00376905
-9.9507e-06
-0.00375739
-1.16586e-05
-0.00374399
-1.33971e-05
-0.00372882
-1.51736e-05
-0.00371182
-1.69932e-05
-0.00369296
-1.88593e-05
-0.00367221
-2.07491e-05
-0.00364953
-2.26777e-05
-0.00362489
-2.46404e-05
-0.00359825
-2.66414e-05
-0.00356959
-2.86614e-05
-0.00353888
-3.07086e-05
-0.0035061
-3.27806e-05
-0.00347122
-3.48796e-05
-0.00343423
-3.69933e-05
-0.00339511
-3.91154e-05
-0.00335386
-4.12531e-05
-0.00331045
-4.34011e-05
-0.00326489
-4.55591e-05
-0.00321718
-4.77124e-05
-0.00316731
-4.98648e-05
-0.0031153
-5.20131e-05
-0.00306115
-5.41536e-05
-0.00300486
-5.62849e-05
-0.00294646
-5.83945e-05
-0.00288598
-6.04842e-05
-0.00282343
-6.25513e-05
-0.00275883
-6.45915e-05
-0.00269223
-6.6604e-05
-0.00262365
-6.85792e-05
-0.00255313
-7.05137e-05
-0.00248072
-7.24104e-05
-0.00240646
-7.4266e-05
-0.00233038
-7.60782e-05
-0.00225253
-7.78422e-05
-0.00217298
-7.95537e-05
-0.00209176
-8.12165e-05
-0.00200893
-8.28284e-05
-0.00192454
-8.43881e-05
-0.00183865
-8.58956e-05
-0.0017513
-8.73447e-05
-0.00166256
-8.87401e-05
-0.00157248
-9.0081e-05
-0.00148111
-9.13667e-05
-0.00138851
-9.25987e-05
-0.00129474
-9.37717e-05
-0.00119985
-9.48875e-05
-0.0011039
-9.59498e-05
-0.00100694
-9.6958e-05
-0.00090903
-9.79131e-05
-0.000810214
-9.88139e-05
-0.000710555
-9.96581e-05
-0.000610106
-0.000100448
-0.000508928
-0.000101177
-0.000407093
-0.000101835
-0.000304608
-0.000102485
-0.000201452
-0.000103156
-9.76842e-05
-0.000103767
6.60859e-06
-0.000104292
0.000111367
-0.000104758
0.000216554
-0.000105187
0.000322144
-0.00010559
0.000428123
-0.000105978
0.000534383
-0.000106259
0.000640807
-0.000106423
0.000747361
-0.000106553
0.000854006
-0.000106645
0.000960697
-0.000106693
0.00106739
-0.000106693
0.00117403
-0.000106642
0.00128057
-0.00010654
0.00138694
-0.00010638
0.00149311
-0.000106163
0.001599
-0.000105889
0.00170455
-0.000105556
0.00180971
-0.000105161
0.00191441
-0.0001047
0.00201858
-0.000104171
0.00212216
-0.000103573
0.00222506
-0.000102902
0.00232721
-0.00010215
0.00242853
-0.000101323
0.00252894
-0.000100415
0.00262835
-9.94156e-05
0.00272666
-9.83047e-05
0.00282382
-9.71659e-05
0.00291974
-9.59134e-05
0.00301427
-9.45257e-05
0.00310732
-9.30534e-05
0.0031988
-9.14743e-05
0.00328859
-8.97917e-05
0.00337659
-8.80006e-05
0.00346268
-8.60961e-05
0.00354676
-8.40793e-05
0.00362872
-8.19496e-05
0.00370842
-7.97031e-05
0.00378575
-7.73273e-05
0.00386059
-7.48362e-05
0.00393282
-7.22249e-05
0.0040023
-6.94784e-05
0.00406893
-6.66291e-05
0.00413257
-6.36428e-05
0.00419312
-6.05477e-05
0.00425044
-5.73188e-05
0.00430439
-5.39517e-05
0.00435485
-5.04601e-05
0.00440167
-4.68215e-05
0.00444475
-4.30719e-05
0.00448398
-3.92373e-05
0.0045192
-3.52214e-05
0.00455028
-3.10736e-05
0.0045771
-2.68281e-05
0.00459958
-2.24731e-05
0.00461758
-1.79991e-05
0.00463098
-1.34029e-05
0.00463969
-8.7081e-06
0.00464361
-3.92751e-06
0.00464256
1.05781e-06
0.00463647
6.08204e-06
0.00462534
1.11359e-05
0.00460907
1.62701e-05
0.00458759
2.14729e-05
0.00456089
2.67047e-05
0.00452889
3.19971e-05
0.00449157
3.73221e-05
0.00444892
4.26519e-05
0.00440093
4.79861e-05
0.00434763
5.3308e-05
0.00428905
5.85748e-05
0.00422523
6.38163e-05
0.00415627
6.89628e-05
0.00408223
7.40438e-05
0.0040032
7.90292e-05
0.00391931
8.38851e-05
0.00383069
8.86216e-05
0.0037375
9.31865e-05
0.00363988
9.76195e-05
0.00353803
0.000101853
0.00343213
0.000105899
0.00332241
0.000109717
0.0032091
0.000113314
0.00309243
0.000116672
0.00297266
0.000119771
0.00285005
0.000122603
0.00272489
0.000125162
0.00259745
0.000127441
0.00246803
0.000129416
0.00233692
0.000131112
0.00220443
0.000132493
0.00207086
0.000133572
0.00193653
0.000134322
0.00180178
0.000134755
0.00166691
0.000134865
0.00153228
0.000134634
0.0013982
0.000134076
0.00126499
0.000133209
0.00113294
0.000132046
0.00100239
0.000130557
0.000873601
0.000128786
0.000746926
0.000126676
0.000622638
0.000124288
0.000501052
0.000121587
0.000382467
0.000118585
0.000267096
0.000115371
0.00015511
0.000111987
4.67624e-05
0.000108348
-5.77442e-05
0.000104507
-0.000157885
0.000100141
-0.000253884
9.59993e-05
-0.000345349
9.14651e-05
-0.000431993
8.6646e-05
-0.000513792
8.18006e-05
-0.000590332
7.65414e-05
-0.000661731
7.14013e-05
-0.000727904
6.6174e-05
-0.00078867
6.07674e-05
-0.000843934
5.52663e-05
-0.000893662
4.97311e-05
-0.0009379
4.42392e-05
-0.000976493
3.85913e-05
-0.00100955
3.30502e-05
-0.00103707
2.752e-05
-0.00105908
2.20201e-05
-0.00107592
1.68327e-05
-0.00108755
1.16236e-05
-0.00109401
6.46145e-06
-0.00109556
1.54369e-06
-0.00109241
-3.15425e-06
-0.00108477
-7.63873e-06
-0.00107278
-1.19845e-05
-0.00105678
-1.60006e-05
-0.00103689
-1.98865e-05
-0.00101334
-2.35476e-05
-0.000986386
-2.69558e-05
-0.000956258
-3.01256e-05
-0.000923194
-3.30611e-05
-0.000887377
-3.58162e-05
-0.000849124
-3.82543e-05
-0.000808684
-4.04435e-05
-0.000766347
-4.23405e-05
-0.00072235
-4.40024e-05
-0.000676966
-4.5391e-05
-0.000630503
-4.64698e-05
-0.000583247
-4.72578e-05
-0.000535571
-4.76729e-05
-0.000487729
-4.78392e-05
-0.000440231
-4.74974e-05
-0.000393194
-4.70405e-05
-0.000346932
-4.62674e-05
-0.000301719
-4.52175e-05
-0.000257768
-4.3953e-05
-0.000215335
-4.2431e-05
-0.000174735
-4.05942e-05
-0.000136267
-3.84617e-05
-0.000100042
-3.62218e-05
-6.61623e-05
-3.38802e-05
-3.49097e-05
-3.12571e-05
-6.47155e-06
-2.84446e-05
1.91211e-05
-2.55982e-05
4.20795e-05
-2.29614e-05
6.21193e-05
-2.00403e-05
7.89515e-05
-1.68318e-05
9.29036e-05
-1.39523e-05
0.000103776
-1.08738e-05
0.000111546
-7.77416e-06
0.000116281
-4.73845e-06
0.000118332
-2.05479e-06
0.000117269
1.06213e-06
0.000113028
4.24131e-06
0.000105721
7.30584e-06
9.47721e-05
1.09469e-05
8.03882e-05
1.43813e-05
6.05276e-05
1.98594e-05
4.25234e-05
1.80048e-05
4.63907e-05
-3.8665e-06
5.73026e-05
-1.09125e-05
4.4692e-05
1.26087e-05
2.22391e-05
2.24508e-05
-2.97876e-07
2.25349e-05
-1.56148e-05
1.53147e-05
-8.59911e-06
-7.01827e-06
-4.54053e-06
-4.06045e-06
-2.22649e-05
1.77242e-05
-4.46568e-05
2.23931e-05
-6.19853e-05
1.73291e-05
-7.57722e-05
1.37857e-05
-8.61435e-05
1.0369e-05
-9.34058e-05
7.25996e-06
-9.75644e-05
4.15664e-06
-9.8454e-05
8.87582e-07
-9.63668e-05
-2.08941e-06
-9.07833e-05
-5.58514e-06
-8.17567e-05
-9.02725e-06
-6.95218e-05
-1.22353e-05
-5.40825e-05
-1.54403e-05
-3.53352e-05
-1.87486e-05
-1.32699e-05
-2.20665e-05
1.22986e-05
-2.557e-05
4.11855e-05
-2.88887e-05
7.31169e-05
-3.19334e-05
0.000107936
-3.48208e-05
0.000145478
-3.75444e-05
0.000185706
-4.02307e-05
0.000228333
-4.26291e-05
0.000272914
-4.45813e-05
0.000319267
-4.63538e-05
0.000367023
-4.77578e-05
0.000415894
-4.88719e-05
0.000465583
-4.96882e-05
0.000515622
-5.00384e-05
0.000565806
-5.01834e-05
0.000615607
-4.98027e-05
0.000664665
-4.9061e-05
0.000712657
-4.79946e-05
0.000759219
-4.65641e-05
0.000804078
-4.48604e-05
0.00084678
-4.27046e-05
0.000887074
-4.02974e-05
0.000924551
-3.7478e-05
0.000958915
-3.43638e-05
0.000989943
-3.10261e-05
0.00101729
-2.73421e-05
0.0010407
-2.34139e-05
0.00105981
-1.91111e-05
0.00107446
-1.46462e-05
0.00108432
-9.85403e-06
0.00108905
-4.73311e-06
0.00108852
5.24206e-07
0.00108235
6.17384e-06
0.0010703
1.20476e-05
0.00105221
1.80874e-05
0.00102788
2.43352e-05
0.000997052
3.08297e-05
0.000959984
3.70697e-05
0.000916227
4.37602e-05
0.000865857
5.03728e-05
0.000809313
5.65456e-05
0.000745912
6.3401e-05
0.000676239
6.96736e-05
0.000600038
7.62011e-05
0.000517778
8.22598e-05
0.000429461
8.83166e-05
0.000334749
9.47128e-05
0.000234846
9.99035e-05
0.000129364
0.000105482
1.8664e-05
0.0001107
-9.70521e-05
0.000115716
-0.000217505
0.000120454
-0.000342285
0.000124781
-0.000471063
0.000128778
-0.00060366
0.000132596
-0.000739771
0.000136111
-0.000878996
0.000139225
-0.00102095
0.000141953
-0.00116523
0.00014428
-0.0013114
0.000146174
-0.00145907
0.000147672
-0.00160776
0.000148689
-0.00175704
0.00014928
-0.00190651
0.00014947
-0.00205574
0.000149235
-0.00220435
0.000148606
-0.0023518
0.000147456
-0.00249767
0.000145873
-0.00264151
0.000143841
-0.00278293
0.000141414
-0.00292145
0.000138523
-0.00305674
0.000135293
-0.00318833
0.000131587
-0.00331587
0.000127541
-0.00343896
0.000123079
-0.00355724
0.000118286
-0.00367038
0.000113141
-0.00377807
0.000107687
-0.00388004
0.000101964
-0.003976
9.59657e-05
-0.00406572
8.97103e-05
-0.00414895
8.3232e-05
-0.00422548
7.65279e-05
-0.00429517
6.96983e-05
-0.00435791
6.27349e-05
-0.00441354
5.56351e-05
-0.00446196
4.84158e-05
-0.00450316
4.11965e-05
-0.00453705
3.3895e-05
-0.00456369
2.66322e-05
-0.00458305
1.93613e-05
-0.00459524
1.21955e-05
-0.00460039
5.14536e-06
-0.00459841
-1.97479e-06
-0.00458951
-8.90512e-06
-0.00457382
-1.56918e-05
-0.00455147
-2.23424e-05
-0.00452272
-2.8753e-05
-0.00448773
-3.49984e-05
-0.00444667
-4.10582e-05
-0.00439975
-4.69186e-05
-0.00434717
-5.2575e-05
-0.00428911
-5.8058e-05
-0.00422583
-6.32794e-05
-0.00415753
-6.82989e-05
-0.00408447
-7.3059e-05
-0.00400686
-7.76191e-05
-0.00392496
-8.18922e-05
-0.00383896
-8.60028e-05
-0.00374903
-8.99241e-05
-0.00365537
-9.3666e-05
-0.00355819
-9.71751e-05
-0.00345774
-0.000100456
-0.00335425
-0.000103488
-0.00324796
-0.000106289
-0.00313897
-0.000108993
-0.00302746
-0.000111509
-0.00291368
-0.00011378
-0.00279777
-0.000115909
-0.00267993
-0.000117841
-0.00256032
-0.000119613
-0.00243915
-0.000121167
-0.00231657
-0.000122586
-0.00219261
-0.000123955
-0.00206756
-0.000125054
-0.00194156
-0.000125997
-0.00181478
-0.00012678
-0.00168734
-0.000127441
-0.00155938
-0.000127967
-0.00143096
-0.000128416
-0.00130224
-0.000128725
-0.00117349
-0.000128744
-0.00104467
-0.000128825
-0.000915927
-0.000128738
-0.000787399
-0.000128527
-0.000659182
-0.000128217
-0.000531267
-0.000127915
-0.000403867
-0.0001274
-0.000277253
-0.000126614
-0.000151408
-0.000125844
-2.63797e-05
-0.000125027
9.77456e-05
-0.000124124
0.000220894
-0.000123147
0.000342956
-0.000122061
0.000463811
-0.000120855
0.000583508
-0.000119697
0.000702069
-0.000118561
0.000819382
-0.000117314
0.000935347
-0.000115967
0.00104991
-0.000114567
0.001163
-0.00011309
0.00127452
-0.000111523
0.00138443
-0.00010991
0.00149266
-0.00010823
0.00159913
-0.000106474
0.00170379
-0.000104659
0.00180655
-0.000102766
0.00190733
-0.000100774
0.00200603
-9.87044e-05
0.00210258
-9.65535e-05
0.00219689
-9.43176e-05
0.0022889
-9.20074e-05
0.00237853
-8.96276e-05
0.00246569
-8.71657e-05
0.00255031
-8.462e-05
0.00263232
-8.20086e-05
0.00271165
-7.93358e-05
0.00278823
-7.65745e-05
0.00286197
-7.37508e-05
0.00293283
-7.08582e-05
0.00300074
-6.79137e-05
0.00306566
-6.49195e-05
0.00312755
-6.18901e-05
0.00318636
-5.88071e-05
0.00324205
-5.56964e-05
0.00329463
-5.25765e-05
0.00334407
-4.94362e-05
0.00339035
-4.62818e-05
0.00343345
-4.3104e-05
0.00347339
-3.99394e-05
0.00351017
-3.67759e-05
0.0035438
-3.36312e-05
0.00357432
-3.05199e-05
0.00360173
-2.7416e-05
0.0036261
-2.43708e-05
0.00364747
-2.1367e-05
0.00366586
-1.83923e-05
0.00368135
-1.54864e-05
0.00369398
-1.26266e-05
0.00370382
-9.83749e-06
0.00371095
-7.1359e-06
0.00371543
-4.47186e-06
0.00371733
-1.90529e-06
0.00371672
6.10265e-07
0.0037137
3.02295e-06
0.00370834
5.36277e-06
0.00370072
7.62245e-06
0.00369092
9.80131e-06
0.00367902
1.18968e-05
0.00366511
1.39124e-05
0.00364926
1.58521e-05
0.00363155
1.7712e-05
0.00361206
1.94912e-05
0.00359086
2.11929e-05
0.00356804
2.28194e-05
0.00354367
2.43758e-05
0.00351781
2.58635e-05
0.00349052
2.72833e-05
0.00346189
2.86353e-05
0.00343197
2.99222e-05
0.00340082
3.11455e-05
0.00336852
3.23042e-05
0.00333512
3.34004e-05
0.00330069
3.4432e-05
0.0032653
3.53996e-05
0.00322899
3.63065e-05
0.00319184
3.71522e-05
0.0031539
3.79381e-05
0.00311523
3.86655e-05
0.0030759
3.93342e-05
0.00303596
3.9944e-05
0.00299546
4.04964e-05
0.00295447
4.09924e-05
0.00291304
4.14329e-05
0.00287122
4.18192e-05
0.00282906
4.21537e-05
0.00278662
4.24382e-05
0.00274395
4.26732e-05
0.0027011
4.28585e-05
0.00265811
4.2995e-05
0.00261502
4.30858e-05
0.00257189
4.31345e-05
0.00252874
4.31445e-05
0.00248562
4.31167e-05
0.00244258
4.30514e-05
0.00239963
4.29493e-05
0.00235682
4.2812e-05
0.00231418
4.26425e-05
0.00227173
4.24432e-05
0.00222952
4.22162e-05
0.00218756
4.19626e-05
0.00214588
4.16833e-05
0.0021045
4.138e-05
0.00206344
4.10545e-05
0.00202273
4.07091e-05
0.00198239
4.03446e-05
0.00194243
3.99618e-05
0.00190287
3.95619e-05
0.00186372
3.9147e-05
0.001825
3.8719e-05
0.00178672
3.82785e-05
0.0017489
3.78254e-05
0.00171154
3.73606e-05
0.00167466
3.68862e-05
0.00163825
3.64037e-05
0.00160234
3.59142e-05
0.00156692
3.54177e-05
0.001532
3.49145e-05
0.0014976
3.44053e-05
0.00146371
3.38915e-05
0.00143033
3.33743e-05
0.00139748
3.28543e-05
0.00136515
3.23321e-05
0.00133334
3.18079e-05
0.00130206
3.12821e-05
0.0012713
3.07554e-05
0.00124107
3.02285e-05
0.00121137
2.97019e-05
0.00118219
2.91762e-05
0.00115354
2.86522e-05
0.00112541
2.81303e-05
0.0010978
2.76108e-05
0.00107071
2.70938e-05
0.00104413
2.65793e-05
0.00101806
2.60677e-05
0.000992499
2.55597e-05
0.000967443
2.50556e-05
0.000942887
2.45559e-05
0.000918826
2.40607e-05
0.000895256
2.357e-05
0.000872172
2.3084e-05
0.000849568
2.26032e-05
0.00082744
2.21276e-05
0.000805782
2.16577e-05
0.000784588
2.11934e-05
0.000763853
2.07349e-05
0.000743571
2.02822e-05
0.000723735
1.98356e-05
0.000704339
1.93949e-05
0.000685378
1.89605e-05
0.000666845
1.85325e-05
0.000648734
1.81108e-05
0.000631037
1.76957e-05
0.00061375
1.72872e-05
0.000596865
1.68851e-05
0.000580375
1.64896e-05
0.000564274
1.61007e-05
0.000548555
1.57184e-05
0.000533212
1.53428e-05
0.000518238
1.49738e-05
0.000503627
1.46114e-05
0.000489371
1.42556e-05
0.000475464
1.39064e-05
0.0004619
1.35638e-05
0.000448672
1.32278e-05
0.000435774
1.28982e-05
0.000423198
1.25751e-05
0.00041094
1.22585e-05
0.000398991
1.19483e-05
0.000387347
1.16443e-05
0.000376
1.13467e-05
0.000364945
1.10552e-05
0.000354175
1.07699e-05
0.000343684
1.04906e-05
0.000333466
1.02174e-05
0.000323516
9.95014e-06
0.000313827
9.68877e-06
0.000304394
9.43321e-06
0.00029521
9.18339e-06
0.000286271
8.93923e-06
0.00027757
8.70067e-06
0.000269102
8.46761e-06
0.000260862
8.23999e-06
0.000252844
8.01771e-06
0.000245044
7.80069e-06
0.000237455
7.58888e-06
0.000230072
7.38218e-06
0.000222892
7.18052e-06
0.000215908
6.98381e-06
0.000209116
6.79196e-06
0.000202511
6.60489e-06
0.000196088
6.42254e-06
0.000189843
6.24483e-06
0.000183772
6.07168e-06
0.000177869
5.90301e-06
0.00017213
5.73872e-06
0.000166551
5.57874e-06
0.000161128
5.423e-06
0.000155856
5.27142e-06
0.000150732
5.12393e-06
0.000145752
4.98046e-06
0.000140911
4.84092e-06
0.000136206
4.70523e-06
0.000131632
4.57333e-06
0.000127187
4.44515e-06
0.000122866
4.32062e-06
0.000118667
4.19969e-06
0.000114584
4.08226e-06
0.000110616
3.96828e-06
0.000106758
3.85767e-06
0.000103008
3.75037e-06
9.93615e-05
3.64633e-06
9.5816e-05
3.54549e-06
9.23682e-05
3.44779e-06
8.9015e-05
3.35315e-06
8.57534e-05
3.26151e-06
8.25806e-05
3.17282e-06
7.94935e-05
3.08701e-06
7.64894e-05
3.00405e-06
7.35655e-05
2.92389e-06
7.0719e-05
2.84647e-06
6.79472e-05
2.77174e-06
6.52475e-05
2.69965e-06
6.26174e-05
2.63014e-06
6.00542e-05
2.56318e-06
5.75554e-05
2.49873e-06
5.51186e-05
2.43675e-06
5.27414e-05
2.37719e-06
5.04214e-05
2.31999e-06
4.81562e-05
2.26511e-06
4.59437e-05
2.21254e-06
4.37814e-05
2.16223e-06
4.16672e-05
2.11415e-06
3.95989e-05
2.06827e-06
3.75744e-05
2.02457e-06
3.55913e-05
1.98301e-06
3.36477e-05
1.94355e-06
3.17416e-05
1.90617e-06
2.98707e-05
1.87083e-06
2.80331e-05
1.83754e-06
2.62269e-05
1.80626e-06
2.44499e-05
1.77698e-06
2.27002e-05
1.74966e-06
2.09758e-05
1.72431e-06
1.92749e-05
1.70089e-06
1.75955e-05
1.67938e-06
1.59357e-05
1.65979e-06
1.42936e-05
1.64209e-06
1.26673e-05
1.62628e-06
1.10549e-05
1.61236e-06
9.45459e-06
1.60032e-06
7.86443e-06
1.59015e-06
6.28262e-06
1.5818e-06
4.7072e-06
1.57539e-06
3.13616e-06
1.57103e-06
1.5678e-06
1.56833e-06
1.56779e-06
-3.75981e-07
1.3958e-06
-1.28499e-06
1.763e-06
-2.23338e-06
1.69644e-06
-3.11121e-06
1.62854e-06
-3.94367e-06
1.58239e-06
-4.74603e-06
1.54379e-06
-5.53399e-06
1.52191e-06
-6.315e-06
1.51089e-06
-7.09428e-06
1.50866e-06
-7.87463e-06
1.5123e-06
-8.65766e-06
1.51989e-06
-9.44434e-06
1.52998e-06
-1.02354e-05
1.54161e-06
-1.10311e-05
1.55474e-06
-1.18316e-05
1.56861e-06
-1.26374e-05
1.58296e-06
-1.34488e-05
1.59759e-06
-1.4266e-05
1.61227e-06
-1.50895e-05
1.62738e-06
-1.59191e-05
1.64178e-06
-1.67552e-05
1.65652e-06
-1.75977e-05
1.6711e-06
-1.84463e-05
1.68508e-06
-1.93021e-05
1.69992e-06
-2.01646e-05
1.71429e-06
-2.10339e-05
1.72899e-06
-2.19103e-05
1.74394e-06
-2.2794e-05
1.75921e-06
-2.36852e-05
1.77486e-06
-2.45842e-05
1.79095e-06
-2.54912e-05
1.80751e-06
-2.64064e-05
1.8246e-06
-2.73303e-05
1.84224e-06
-2.82631e-05
1.86047e-06
-2.92051e-05
1.87931e-06
-3.01566e-05
1.89878e-06
-3.11179e-05
1.9189e-06
-3.20895e-05
1.93969e-06
-3.30715e-05
1.96114e-06
-3.40645e-05
1.98327e-06
-3.50686e-05
2.00608e-06
-3.60843e-05
2.02958e-06
-3.7112e-05
2.05375e-06
-3.81519e-05
2.0786e-06
-3.92045e-05
2.10413e-06
-4.02701e-05
2.13033e-06
-4.1349e-05
2.15721e-06
-4.24417e-05
2.18478e-06
-4.35483e-05
2.21303e-06
-4.46694e-05
2.24198e-06
-4.58053e-05
2.27162e-06
-4.69563e-05
2.30198e-06
-4.81228e-05
2.33305e-06
-4.93052e-05
2.36486e-06
-5.05038e-05
2.39741e-06
-5.17191e-05
2.43071e-06
-5.29514e-05
2.46479e-06
-5.42011e-05
2.49965e-06
-5.54687e-05
2.53531e-06
-5.67544e-05
2.57178e-06
-5.80589e-05
2.60908e-06
-5.93823e-05
2.64721e-06
-6.07253e-05
2.6862e-06
-6.20882e-05
2.72604e-06
-6.34715e-05
2.76677e-06
-6.48755e-05
2.80837e-06
-6.63008e-05
2.85088e-06
-6.77478e-05
2.8943e-06
-6.9217e-05
2.93864e-06
-7.07088e-05
2.98392e-06
-7.22238e-05
3.03015e-06
-7.37623e-05
3.07734e-06
-7.53249e-05
3.12552e-06
-7.69121e-05
3.17469e-06
-7.85244e-05
3.22487e-06
-8.01623e-05
3.27608e-06
-8.18263e-05
3.32833e-06
-8.3517e-05
3.38164e-06
-8.52348e-05
3.43602e-06
-8.69804e-05
3.4915e-06
-8.87543e-05
3.54807e-06
-9.0557e-05
3.60577e-06
-9.23892e-05
3.66461e-06
-9.42513e-05
3.72459e-06
-9.6144e-05
3.78574e-06
-9.80679e-05
3.84807e-06
-0.000100024
3.9116e-06
-0.000102012
3.97635e-06
-0.000104033
4.04235e-06
-0.000106087
4.1096e-06
-0.000108176
4.17813e-06
-0.0001103
4.24795e-06
-0.000112459
4.31909e-06
-0.000114655
4.39156e-06
-0.000116887
4.46538e-06
-0.000119157
4.54058e-06
-0.000121466
4.61717e-06
-0.000123813
4.69517e-06
-0.0001262
4.7746e-06
-0.000128628
4.85549e-06
-0.000131096
4.93785e-06
-0.000133607
5.02172e-06
-0.00013616
5.1071e-06
-0.000138757
5.19403e-06
-0.000141398
5.28253e-06
-0.000144084
5.37262e-06
-0.000146816
5.46432e-06
-0.000149595
5.55765e-06
-0.000152421
5.65265e-06
-0.000155295
5.74932e-06
-0.000158219
5.8477e-06
-0.000161193
5.9478e-06
-0.000164217
6.04966e-06
-0.000167294
6.1533e-06
-0.000170423
6.25875e-06
-0.000173606
6.36603e-06
-0.000176843
6.47518e-06
-0.000180136
6.58621e-06
-0.000183485
6.69916e-06
-0.000186892
6.81404e-06
-0.000190357
6.9309e-06
-0.000193882
7.04974e-06
-0.000197467
7.1706e-06
-0.000201113
7.29351e-06
-0.000204822
7.41849e-06
-0.000208595
7.54559e-06
-0.000212432
7.67481e-06
-0.000216335
7.80621e-06
-0.000220304
7.9398e-06
-0.000224342
8.07562e-06
-0.000228448
8.21369e-06
-0.000232625
8.35405e-06
-0.000236873
8.49672e-06
-0.000241193
8.64174e-06
-0.000245588
8.78913e-06
-0.000250057
8.93893e-06
-0.000254602
9.09116e-06
-0.000259225
9.24586e-06
-0.000263926
9.40306e-06
-0.000268707
9.56279e-06
-0.000273569
9.7251e-06
-0.000278514
9.89e-06
-0.000283542
1.00575e-05
-0.000288656
1.02277e-05
-0.000293856
1.04006e-05
-0.000299143
1.05762e-05
-0.00030452
1.07546e-05
-0.000309988
1.09358e-05
-0.000315547
1.11198e-05
-0.0003212
1.13067e-05
-0.000326948
1.14965e-05
-0.000332792
1.16891e-05
-0.000338734
1.18848e-05
-0.000344775
1.20834e-05
-0.000350917
1.22851e-05
-0.000357162
1.24898e-05
-0.00036351
1.26976e-05
-0.000369964
1.29086e-05
-0.000376525
1.31227e-05
-0.000383194
1.334e-05
-0.000389974
1.35605e-05
-0.000396866
1.37843e-05
-0.000403871
1.40114e-05
-0.000410992
1.42418e-05
-0.000418229
1.44755e-05
-0.000425585
1.47127e-05
-0.000433061
1.49532e-05
-0.000440659
1.51972e-05
-0.000448381
1.54447e-05
-0.000456228
1.56957e-05
-0.000464202
1.59502e-05
-0.000472306
1.62082e-05
-0.00048054
1.64699e-05
-0.000488907
1.67352e-05
-0.000497409
1.70042e-05
-0.000506047
1.72768e-05
-0.000514823
1.75531e-05
-0.000523739
1.78332e-05
-0.000532796
1.8117e-05
-0.000541998
1.84045e-05
-0.000551345
1.86958e-05
-0.00056084
1.8991e-05
-0.000570484
1.929e-05
-0.00058028
1.95928e-05
-0.000590229
1.98996e-05
-0.000600334
2.02102e-05
-0.000610595
2.05247e-05
-0.000621016
2.08431e-05
-0.000631598
2.11655e-05
-0.000642343
2.14917e-05
-0.000653254
2.1822e-05
-0.000664331
2.21561e-05
-0.000675577
2.24943e-05
-0.000686995
2.28364e-05
-0.000698585
2.31824e-05
-0.000710351
2.35325e-05
-0.000722293
2.38864e-05
-0.000734414
2.42444e-05
-0.000746717
2.46062e-05