/*--------------------------------*- C++ -*----------------------------------*\
| =========                 |                                                 |
| \\      /  F ield         | OpenFOAM: The Open Source CFD Toolbox           |
|  \\    /   O peration     | Version:  2412                                  |
|   \\  /    A nd           | Website:  www.openfoam.com                      |
|    \\/     M anipulation  |                                                 |
\*---------------------------------------------------------------------------*/
FoamFile
{
    version     2.0;
    format      ascii;
    arch        "LSB;label=32;scalar=64";
    class       volScalarField;
    location    "2";
    object      p_rgh;
}
// * * * * * * * * * * * * * * * * * * * * * * * * * * * * * * * * * * * * * //

dimensions      [1 -1 -2 0 0 0 0];

internalField   nonuniform List<scalar> 
6400
(
7626.89
7628.59
7631.49
7635.76
7641.31
7648.07
7655.94
7664.79
7674.49
7684.86
7695.75
7707
7718.41
7729.79
7740.96
7751.75
7761.99
7771.53
7780.26
7788.07
7794.91
7800.7
7805.37
7808.93
7811.48
7813.06
7813.67
7813.42
7812.39
7810.62
7808.48
7805.98
7803.26
7800.48
7797.76
7795.28
7793.13
7791.41
7790.21
7789.57
7789.53
7790.07
7791.18
7792.9
7795.01
7797.43
7800.06
7802.78
7805.45
7807.93
7810.06
7811.7
7812.83
7813.11
7812.54
7811.03
7808.59
7805.14
7800.44
7794.83
7788.19
7780.56
7772.03
7762.69
7752.67
7742.11
7731.17
7720.02
7708.84
7697.81
7687.13
7676.96
7667.44
7658.75
7651.02
7644.38
7638.92
7634.73
7631.88
7630.22
7625.32
7627.02
7630.01
7634.35
7640.01
7646.89
7654.89
7663.89
7673.75
7684.32
7695.41
7706.86
7718.46
7730.03
7741.39
7752.34
7762.72
7772.4
7781.23
7789.12
7796
7801.81
7806.51
7810.11
7812.6
7814.03
7814.52
7814.14
7812.98
7811.15
7808.85
7806.2
7803.34
7800.43
7797.62
7795.02
7792.75
7790.95
7789.69
7789.02
7788.97
7789.55
7790.73
7792.48
7794.68
7797.22
7799.99
7802.85
7805.66
7808.28
7810.55
7812.34
7813.53
7813.95
7813.51
7812.14
7809.71
7806.21
7801.59
7795.92
7789.22
7781.51
7772.88
7763.41
7753.25
7742.53
7731.42
7720.08
7708.7
7697.48
7686.6
7676.23
7666.56
7657.72
7649.86
7643.1
7637.55
7633.27
7630.33
7628.67
7622.34
7624.05
7627.14
7631.63
7637.47
7644.58
7652.85
7662.15
7672.34
7683.27
7694.74
7706.57
7718.57
7730.52
7742.23
7753.51
7764.19
7774.11
7783.15
7791.19
7798.16
7804
7808.69
7812.22
7814.61
7815.92
7816.22
7815.61
7814.21
7812.13
7809.55
7806.6
7803.45
7800.26
7797.17
7794.33
7791.87
7789.91
7788.53
7787.81
7787.77
7788.4
7789.7
7791.59
7793.98
7796.76
7799.79
7802.94
7806.04
7808.95
7811.51
7813.57
7814.98
7815.61
7815.35
7814.1
7811.78
7808.34
7803.76
7798.05
7791.25
7783.39
7774.56
7764.85
7754.4
7743.36
7731.89
7720.18
7708.43
7696.83
7685.58
7674.86
7664.86
7655.72
7647.6
7640.62
7634.87
7630.46
7627.41
7625.74
7617.81
7619.58
7622.82
7627.53
7633.65
7641.09
7649.76
7659.51
7670.21
7681.67
7693.72
7706.13
7718.72
7731.24
7743.5
7755.28
7766.41
7776.72
7786.06
7794.33
7801.44
7807.35
7812.02
7815.46
7817.7
7818.79
7818.82
7817.88
7816.1
7813.62
7810.6
7807.2
7803.6
7799.96
7796.46
7793.25
7790.48
7788.27
7786.72
7785.91
7785.87
7786.59
7788.06
7790.19
7792.89
7796.03
7799.47
7803.06
7806.61
7809.97
7812.96
7815.42
7817.2
7818.15
7818.16
7817.12
7814.96
7811.6
7807.04
7801.28
7794.33
7786.24
7777.11
7767.04
7756.15
7744.62
7732.62
7720.34
7708
7695.84
7684.03
7672.78
7662.28
7652.7
7644.18
7636.86
7630.84
7626.21
7623.02
7621.28
7611.65
7613.53
7616.97
7621.97
7628.46
7636.36
7645.56
7655.93
7667.3
7679.49
7692.31
7705.54
7718.93
7732.24
7745.25
7757.72
7769.46
7780.28
7790.04
7798.62
7805.93
7811.92
7816.58
7819.9
7821.93
7822.72
7822.36
7820.97
7818.68
7815.64
7812.02
7808
7803.77
7799.53
7795.45
7791.72
7788.51
7785.96
7784.17
7783.24
7783.19
7784.04
7785.73
7788.21
7791.34
7795
7799.01
7803.2
7807.37
7811.35
7814.93
7817.95
7820.23
7821.63
7822.02
7821.27
7819.31
7816.07
7811.53
7805.67
7798.53
7790.15
7780.61
7770.03
7758.55
7746.35
7733.61
7720.57
7707.44
7694.49
7681.91
7669.94
7658.77
7648.59
7639.54
7631.77
7625.38
7620.47
7617.08
7615.23
7603.78
7605.8
7609.5
7614.86
7621.82
7630.29
7640.17
7651.31
7663.55
7676.68
7690.51
7704.77
7719.21
7733.55
7747.53
7760.9
7773.43
7784.92
7795.21
7804.18
7811.73
7817.83
7822.46
7825.63
7827.39
7827.79
7826.94
7824.96
7822
7818.23
7813.83
7809
7803.95
7798.91
7794.08
7789.67
7785.87
7782.86
7780.76
7779.66
7779.61
7780.62
7782.62
7785.55
7789.26
7793.59
7798.35
7803.34
7808.32
7813.1
7817.46
7821.2
7824.14
7826.12
7826.99
7826.62
7824.93
7821.84
7817.32
7811.36
7803.98
7795.21
7785.16
7773.93
7761.68
7748.61
7734.93
7720.89
7706.77
7692.76
7679.19
7666.29
7654.27
7643.32
7633.6
7625.25
7618.4
7613.12
7609.47
7607.48
7594.06
7596.26
7600.28
7606.08
7613.61
7622.78
7633.49
7645.58
7658.88
7673.19
7688.25
7703.83
7719.59
7735.23
7750.44
7764.93
7778.44
7790.76
7801.7
7811.14
7818.99
7825.21
7829.8
7832.77
7834.18
7834.1
7832.63
7829.92
7826.12
7821.43
7816.05
7810.2
7804.12
7798.06
7792.27
7786.99
7782.45
7778.84
7776.33
7775.02
7774.97
7776.18
7778.59
7782.1
7786.55
7791.75
7797.46
7803.45
7809.47
7815.26
7820.59
7825.24
7829
7831.7
7833.18
7833.29
7831.93
7829.03
7824.55
7818.47
7810.79
7801.57
7790.87
7778.84
7765.63
7751.47
7736.6
7721.3
7705.87
7690.59
7675.8
7661.75
7648.68
7636.78
7626.24
7617.2
7609.78
7604.06
7600.1
7597.92
7582.35
7584.77
7589.17
7595.49
7603.69
7613.69
7625.37
7638.6
7653.19
7668.91
7685.49
7702.69
7720.09
7737.33
7754.05
7769.93
7784.65
7797.97
7809.7
7819.69
7827.88
7834.23
7838.74
7841.46
7842.45
7841.77
7839.55
7835.93
7831.12
7825.31
7818.72
7811.61
7804.25
7796.93
7789.93
7783.56
7778.07
7773.72
7770.68
7769.1
7769.05
7770.51
7773.44
7777.69
7783.08
7789.37
7796.28
7803.53
7810.82
7817.87
7824.39
7830.14
7834.91
7838.49
7840.72
7841.41
7840.44
7837.78
7833.37
7827.16
7819.15
7809.38
7797.93
7784.92
7770.55
7755.04
7738.69
7721.83
7704.8
7687.93
7671.66
7656.22
7641.87
7628.85
7617.33
7607.47
7599.38
7593.14
7588.79
7586.4
7568.44
7571.14
7575.98
7582.91
7591.88
7602.83
7615.66
7630.23
7646.34
7663.75
7682.13
7701.34
7720.74
7739.93
7758.51
7776.07
7792.25
7806.77
7819.41
7830.05
7838.61
7845.07
7849.47
7851.85
7852.34
7850.88
7847.82
7843.1
7837.08
7829.93
7821.89
7813.25
7804.33
7795.45
7786.96
7779.22
7772.55
7767.25
7763.56
7761.64
7761.57
7763.37
7766.94
7772.13
7778.69
7786.33
7794.73
7803.54
7812.4
7820.97
7828.94
7836.02
7841.97
7846.59
7849.75
7851.13
7850.62
7848.28
7843.97
7837.64
7829.26
7818.87
7806.53
7792.36
7776.58
7759.44
7741.29
7722.52
7703.54
7684.69
7666.67
7649.56
7633.7
7619.35
7606.7
7595.88
7587.02
7580.18
7575.39
7572.72
7552.13
7555.15
7560.52
7568.13
7577.97
7590
7604.13
7620.23
7638.13
7657.59
7678.38
7699.77
7721.55
7743.14
7763.98
7783.57
7801.49
7817.42
7831.12
7842.47
7851.41
7857.96
7862.19
7864.05
7863.56
7861.28
7857.12
7851.47
7844.14
7835.4
7825.64
7815.16
7804.33
7793.54
7783.22
7773.78
7765.63
7759.15
7754.63
7752.28
7752.21
7754.42
7758.81
7765.16
7773.18
7782.52
7792.76
7803.47
7814.23
7824.65
7834.34
7842.99
7850.3
7855.98
7859.89
7862.11
7862.51
7860.69
7856.56
7850.14
7841.38
7830.3
7816.93
7801.41
7783.94
7764.83
7744.5
7723.41
7702.1
7681.15
7660.72
7641.57
7623.95
7608.07
7594.12
7582.23
7572.5
7564.97
7559.66
7556.66
7533.13
7536.56
7542.53
7550.9
7561.7
7574.92
7590.5
7608.34
7628.26
7650.03
7673.43
7697.76
7722.52
7747.04
7770.64
7792.69
7812.69
7830.25
7845.14
7857.25
7866.57
7873.17
7877.18
7878.27
7877.21
7873.92
7868.54
7861.28
7852.5
7841.86
7830.05
7817.38
7804.26
7791.14
7778.55
7767
7757.02
7749.06
7743.49
7740.6
7740.52
7743.25
7748.65
7756.47
7766.32
7777.75
7790.26
7803.31
7816.37
7828.98
7840.72
7851.22
7860.06
7867.17
7872.39
7875.57
7876.57
7875.26
7871.42
7864.95
7855.82
7843.98
7829.47
7812.37
7792.9
7771.42
7748.41
7724.47
7700.25
7676.4
7653.4
7631.97
7612.33
7594.72
7579.33
7566.25
7555.56
7547.28
7541.35
7537.93
7511.12
7515.07
7521.73
7530.92
7542.75
7557.25
7574.42
7594.18
7616.41
7640.78
7667.41
7695.23
7723.62
7751.77
7778.76
7803.79
7826.23
7845.67
7861.87
7874.77
7884.41
7890.91
7894.23
7895.02
7893.11
7888.67
7881.87
7872.89
7861.84
7849.4
7835.27
7820.01
7804.12
7788.17
7772.78
7758.61
7746.32
7736.5
7729.63
7726.06
7725.96
7729.34
7736.03
7745.68
7757.81
7771.85
7787.15
7803.04
7818.89
7834.12
7848.27
7860.97
7871.58
7880.36
7886.96
7891.24
7893.04
7892.25
7888.83
7882.37
7872.91
7860.31
7844.54
7825.64
7803.82
7779.47
7753.18
7725.71
7697.92
7670.63
7644.43
7620.41
7598.48
7578.95
7561.98
7547.62
7535.91
7526.79
7520.16
7516.2
7485.71
7490.27
7497.71
7507.8
7520.7
7536.56
7555.41
7577.28
7602.16
7630.05
7659.99
7691.94
7724.84
7757.51
7788.71
7817.36
7842.67
7864.21
7881.81
7895.42
7905.29
7911.67
7914.54
7914.49
7911.5
7905.74
7897.36
7886.54
7873.45
7858.43
7841.53
7823.18
7803.96
7784.55
7765.7
7748.27
7733.09
7720.93
7712.4
7707.97
7707.85
7712.05
7720.36
7732.32
7747.31
7764.6
7783.36
7802.73
7821.92
7840.25
7857.15
7871.98
7885.05
7895.67
7903.8
7909.33
7912.13
7912.05
7908.97
7902.73
7893.05
7879.76
7862.64
7841.73
7817.17
7789.35
7759
7727.13
7694.93
7663.56
7634.08
7606.54
7581.94
7560.3
7541.64
7525.93
7513.15
7503.12
7495.66
7491.04
7456.38
7461.74
7470.07
7481.09
7495.09
7512.32
7532.89
7556.91
7584.49
7615.75
7650.24
7687.42
7726.06
7764.51
7801
7834.06
7862.7
7886.54
7905.57
7919.68
7929.49
7935.35
7937.77
7936.8
7932.59
7925.34
7915.22
7902.37
7886.89
7868.96
7849.04
7827.06
7803.85
7780.2
7757.06
7735.54
7716.73
7701.61
7690.99
7685.46
7685.31
7690.56
7700.9
7715.76
7734.36
7755.71
7778.77
7802.41
7825.63
7847.61
7867.71
7885.52
7900.84
7913.41
7923.17
7930.08
7934.01
7934.8
7932.29
7926.39
7916.7
7902.91
7884.4
7861.32
7833.61
7801.6
7766.16
7728.68
7690.85
7654.31
7620.3
7589.37
7562.03
7538.21
7517.81
7500.72
7486.83
7475.85
7467.43
7461.91
7422.62
7428.97
7438.41
7450.41
7465.49
7484.03
7506.25
7532.32
7562.55
7597.62
7637.32
7681.03
7727.11
7773.11
7816.41
7854.88
7887.26
7913.44
7934.1
7948.01
7957.37
7962.62
7964.26
7962.18
7956.59
7947.7
7935.71
7920.7
7902.69
7881.79
7858.49
7832.02
7803.98
7775.14
7746.63
7719.93
7696.5
7677.62
7664.34
7657.41
7657.23
7663.79
7676.72
7695.27
7718.41
7744.92
7773.37
7802.27
7830.37
7856.71
7880.41
7901.4
7919.22
7933.82
7945.28
7953.67
7958.89
7960.72
7958.98
7953.59
7944.24
7930.57
7910.52
7885.29
7854.07
7816.97
7775.05
7730.26
7685.14
7642.13
7602.91
7568.13
7538.03
7512.06
7489.95
7471.53
7456.6
7444.66
7434.99
7428.26
7384.11
7390.73
7401.34
7414.69
7431.06
7450.95
7474.71
7502.53
7534.92
7573.94
7619.64
7671.63
7727.7
7783.98
7836.22
7881.4
7917.78
7947.18
7967.15
7980.67
7989.24
7993.63
7994.21
7990.87
7983.63
7972.9
7958.95
7941.73
7921.05
7896.67
7868.47
7837.98
7804.38
7769.18
7733.88
7700.59
7671.33
7647.72
7631.04
7622.3
7622.07
7630.35
7646.59
7669.76
7698.59
7731.57
7766.83
7802.29
7836.24
7867.5
7895.73
7920.08
7940.48
7957.06
7970.2
7980.19
7986.92
7989.99
7989.17
7984.74
7975.86
7962.47
7943.14
7914.96
7880.06
7836.79
7786.41
7731.71
7676.79
7625.51
7580.25
7541.63
7508.95
7481.05
7457.31
7437.53
7421.41
7408.26
7397.2
7389.68
7340.42
7344.43
7355.39
7371.2
7389.89
7411.78
7437.42
7466.62
7498.74
7541.58
7593.81
7656.47
7726.59
7797.59
7862.03
7915.96
7957.24
7986.56
8006
8017.69
8023.46
8028.15
8027.72
8022.95
8013.65
8000.9
7985.1
7965.87
7942.6
7914.79
7882.42
7846.6
7805.8
7762.6
7718.44
7676.57
7639.76
7610.06
7588.95
7577.83
7577.53
7588.07
7608.63
7637.75
7673.91
7715.33
7759.56
7803.46
7844.74
7881.74
7914.41
7942.23
7965.1
7983.41
7997.91
8009.42
8018.02
8022.59
8022.79
8018.49
8011.24
7999.59
7981
7953.11
7913.67
7862.69
7800.92
7732.02
7663.23
7601.16
7549.14
7507.04
7473.69
7444.28
7418.61
7396.77
7378.36
7362.94
7351.08
7345.42
7287.35
7278.5
7293.93
7316.97
7339.14
7363.77
7392.89
7425.71
7461.28
7499.44
7557.09
7633.6
7724.28
7817
7897.11
7962.78
8005.78
8034.84
8052.07
8060.87
8066.18
8067.08
8065.15
8058.63
8046.52
8031.09
8012.45
7992.61
7968.26
7936.74
7898.73
7854.69
7807.05
7754.1
7698.54
7646.29
7600.27
7563.43
7536.94
7522.9
7522.51
7535.89
7561.81
7598.04
7642.96
7694.54
7749.55
7803.52
7853.17
7898.28
7937.05
7968.74
7993.49
8011.53
8025.97
8040.57
8052.42
8059.03
8060.03
8057.23
8052.06
8043.24
8027.21
7999.79
7958.67
7898.25
7821.88
7731.96
7642.74
7566.3
7507.69
7466.11
7432.91
7400.4
7371.28
7346.7
7324.96
7303.17
7285.29
7288.91
5079.29
4543.73
5024.26
5482.63
5686.59
5841.74
6034.38
6260.05
6503.19
6786.97
7128.42
7501.97
7714.39
7844.59
7949.31
8020.28
8064.81
8091.51
8103.23
8103.8
8103.94
8098.82
8090
8096.68
8081.7
8050.28
8014.63
7993.68
7997.88
7963.11
7915.74
7861.31
7816.46
7751.95
7678.82
7610.74
7550.67
7449.33
7244.33
7118.66
7113.85
7228.72
7434.56
7547.44
7605.55
7673.05
7744.72
7812.52
7868.77
7920.83
7965.36
8000.08
8017
8001.6
8015.68
8060.23
8089.48
8085.59
8087.21
8094.23
8090.82
8090.25
8081.13
8056.65
8014.76
7949.09
7852.04
7725.77
7536.68
7176.39
6850.57
6573.07
6342.71
6131.08
5948.8
5797
5606.9
5215.49
4719.48
5006.53
299.526
128.344
263.644
500.546
617.736
716.7
900.546
1125.2
1362.31
1664.7
2228.64
3166.31
4619.54
6024.08
6773.89
7173.04
7573.35
7908.91
8016.14
7553.25
7333.41
7323.15
7540.75
8130.77
8113.16
8089.18
8057.65
8050.65
8035.93
7999.72
7954.57
7903.66
7844.22
7333.19
5784.87
4388.4
3205.33
2332.2
1878.25
1658.27
1645.24
1841.94
2269.97
3112.23
4273.12
5597.24
7029.92
7840.09
7905.8
7956.75
8005.35
8041.16
8061.54
8066.73
8068.64
8097.13
8119.77
7750.63
7197.4
7209.05
7337.8
7955.35
7904.78
7545.94
7089.62
6675.48
6029.93
4726.52
3285.02
2342.95
1759.6
1420.91
1179.17
950.12
761.068
647.472
542.641
346.205
181.674
208.089
3.83363
4.15276
4.47649
5.07218
6.03617
33.2153
132.557
213.169
254.039
269.791
296.282
440.468
795.909
3121.12
6698.45
7770.63
7856.82
7886.24
7864.38
7663.05
7536.27
7430.18
7352.68
7405.2
7470.24
7541.41
7602.1
7582.63
7464.89
7119.8
6052.05
4470.06
2857.2
1261.04
536.206
133.544
7.98979
3.31227
2.61541
2.45479
2.43635
2.59468
3.35733
7.51684
122.866
535.415
1273.28
2673.17
4378.53
6086.28
7347.93
7639.78
7709.95
7698.43
7612.89
7452.1
7318.01
7186.48
7244.48
7355.7
7506.07
7766.01
7832.72
7799.37
7742.3
7042.23
3823.29
935.936
470.138
328.193
286.318
281.831
234.367
119.586
18.8517
6.08438
5.24817
4.69048
4.46747
4.1055
4.42325
3.77218
3.74881
4.2157
4.75301
7.34276
36.2084
53.3894
60.3183
66.9166
72.5825
144.604
1683.58
3482.32
3645.28
3317.16
3149.69
2924.31
2625.13
2351.96
2057.14
1776.45
1513.95
1400.34
1540.95
1686.83
1755.94
1526.86
1029.7
461.779
109.273
194.009
41.1204
1.11295
1.41869
1.79909
1.829
1.9362
1.9885
2.00668
2.00093
1.95814
1.88199
1.81057
2.0315
1.8618
1.69879
72.2372
252.369
272.092
672.806
1280.39
1807.6
1947.32
1812.58
1558.3
1273.55
1157.97
1283.28
1548.87
1878.22
2212.32
2614.48
3013.37
3150.17
3340.56
3430.93
2103.11
218.837
60.3451
64.9911
78.18
77.8521
40.6528
6.60649
5.16619
4.60455
5.25426
4.42346
3.93045
3.56893
3.1616
3.17077
3.34719
3.58204
4.65882
4.07452
7.16017
45.4423
81.1826
82.3037
30.0746
10.5403
-2.50464
-2.6677
-2.67822
-2.41562
-1.49103
-1.47734
-0.909541
-0.394129
0.0260412
0.346841
0.447498
0.516525
0.383271
0.203301
0.148355
0.322553
0.552556
0.459562
0.0885197
0.317348
0.69974
0.976134
1.20848
1.40564
1.59177
1.69893
1.7376
1.72179
1.64319
1.48917
1.28227
1.06754
0.884458
0.702713
0.430995
0.35078
0.840383
0.918121
0.657692
0.339934
0.185489
0.125125
0.165839
0.325547
0.364723
0.166875
-0.20658
-0.68091
-1.33202
-2.11921
-2.50005
-2.56946
-2.63876
-2.52895
-2.18016
6.38019
52.8772
78.8918
54.7207
13.6076
4.85519
4.66593
3.64013
3.60633
6.24368
5.49334
3.92423
3.60872
3.42308
2.94797
2.79209
2.70857
2.56219
1.72961
3.34291
16.6125
19.0656
5.52627
-0.0239704
-1.19061
-1.37785
-1.68902
-1.95855
-1.98879
-1.30661
-1.00344
-0.641687
-0.225565
0.125649
-0.010181
0.0189073
0.815224
1.32281
0.931768
0.737339
0.751841
0.686556
0.646452
0.482121
0.535665
0.669053
0.917134
1.19686
1.23682
1.33491
1.43237
1.47306
1.45301
1.36579
1.22136
1.02905
0.83127
0.675478
0.606052
0.557724
0.801985
1.04267
1.72897
2.63028
2.49615
2.19122
0.338321
0.141145
0.504885
0.664225
0.378987
-0.0109565
-0.956082
-1.6662
-2.00084
-2.1303
-2.05207
-1.86053
-1.61306
-1.40034
-0.901804
5.39825
22.126
18.6721
3.65805
1.99063
2.47634
2.60306
2.75047
4.37552
4.71292
3.77793
3.62356
3.34846
2.66178
2.39027
2.05396
1.55231
0.88759
0.44705
4.2456
17.5615
8.21532
-0.754226
-1.36469
-1.63733
-1.76423
-1.95662
-2.35864
-2.52426
-2.04592
-1.26653
-1.18066
-1.15479
-0.787168
-0.36142
0.879016
1.37396
1.66692
1.82935
1.96542
2.06411
1.0307
0.91127
0.773125
0.776584
0.944416
1.10139
1.1648
1.14254
1.22388
1.25992
1.24153
1.16515
1.04144
0.871096
0.744631
0.690922
0.727489
1.7427
3.32088
3.20755
3.11856
2.80158
1.26737
0.189554
0.100816
-0.0338653
-0.158343
0.0356325
-0.363685
-1.12729
-1.52207
-1.81924
-2.02785
-2.14344
-1.85488
-0.502708
-1.05953
-1.59134
-1.08938
6.87568
14.3328
5.00307
0.851949
1.0642
1.56294
2.02864
2.33368
2.54395
2.78902
3.31583
3.23249
2.58661
2.2611
1.98179
1.61395
1.11028
0.503885
-0.0518686
0.112811
7.83642
11.0848
1.92191
-1.2301
-1.5714
-1.70266
-1.99154
-2.6544
-2.66169
-2.49483
-2.19922
-1.81393
-1.39544
-1.01149
-0.67605
-0.385586
-0.137024
0.226076
1.3095
1.87609
2.11307
2.28145
2.32689
2.25195
0.788334
0.862597
0.84371
0.903753
1.00108
1.06456
1.09546
1.08268
1.02528
0.931366
0.820271
0.746762
0.732171
0.785979
0.848509
1.70899
2.09288
0.749701
0.320753
0.244048
0.159047
0.0414244
-0.133867
-0.383136
-0.699852
-1.0519
-1.40187
-1.71459
-1.95285
-2.09962
-1.91916
-0.23782
0.00306434
-1.06619
-1.00774
1.70529
4.05673
1.4556
-0.0142363
0.283932
0.637714
1.13132
1.5809
1.92473
2.17919
2.40433
3.02441
2.72782
2.06458
1.84563
1.58497
1.24173
0.799293
0.297264
-0.192387
-0.450864
0.768519
4.49829
2.95572
-1.28839
-1.62144
-1.97527
-2.03116
-2.16012
-2.5482
-2.60481
-2.32593
-1.93887
-1.53458
-1.14316
-0.804193
-0.489577
-0.221206
-0.00529169
0.156933
0.275678
0.358657
0.74021
0.770303
0.528423
0.853868
0.718623
0.725344
0.806619
0.879146
0.93157
0.959118
0.952954
0.914323
0.851738
0.784904
0.741817
0.730067
0.725543
0.676345
0.584511
0.47547
0.380585
0.293201
0.204687
0.101306
-0.038737
-0.237625
-0.50544
-0.779135
-0.936697
-1.40349
-1.81512
-2.03119
-0.746185
-0.0310649
-0.0445113
0.0837783
-0.22797
-0.53606
-0.220719
-0.36482
-0.498713
-0.325061
0.00406949
0.379904
0.796651
1.20507
1.54244
1.79907
2.0084
2.669
2.29654
1.66443
1.48444
1.2478
0.936267
0.560174
0.147408
-0.260514
-0.604009
-0.953033
-0.999597
-0.0844139
0.747169
-0.744459
-2.08392
-2.36509
-2.1235
-2.28636
-2.53578
-2.30328
-1.94694
-1.56449
-1.2027
-0.852686
-0.540312
-0.283364
-0.0740769
0.10202
0.206762
0.288358
0.357848
0.418816
0.476959
0.534195
0.591267
0.654225
0.716371
0.772723
0.815566
0.838712
0.836951
0.811404
0.770707
0.729478
0.699067
0.678053
0.651198
0.59865
0.52028
0.42851
0.337672
0.248421
0.15389
0.0426931
-0.102114
-0.29898
-0.559989
-0.640486
-0.66994
-1.00333
-1.63778
-1.06354
0.123069
0.0730441
0.0620618
-0.499169
-0.416732
-0.230122
3.43835
-0.184581
-0.555163
-0.358484
-0.102257
0.20457
0.556542
0.919158
1.23388
1.4789
1.66513
2.3178
1.95704
1.34256
1.18784
0.973408
0.694364
0.371339
0.0248628
-0.315912
-0.643524
-0.968888
-1.18216
0.0270007
7.3251
7.00392
-0.0800335
-2.29437
-2.22709
-2.09981
-2.3386
-2.13974
-1.83818
-1.49551
-1.15699
-0.84263
-0.56323
-0.325669
-0.133083
0.0380519
0.150994
0.22436
0.297963
0.362858
0.422503
0.478595
0.532599
0.585401
0.635109
0.679919
0.71523
0.733773
0.733592
0.716216
0.688716
0.660209
0.634868
0.609969
0.575195
0.523656
0.455621
0.376304
0.29167
0.203228
0.106695
-0.00616074
-0.147067
-0.33029
-0.568294
-0.741018
-0.64548
-0.91303
-1.18308
-1.42153
-1.22041
-1.13778
-0.104218
1.05558
3.07649
5.90357
6.29582
5.73722
-0.514781
-0.378814
-0.163285
0.0890072
0.391637
0.710504
0.995293
1.22281
1.38754
2.03187
1.6141
1.08972
0.947932
0.745499
0.497283
0.215389
-0.0805901
-0.367236
-0.641554
-0.924158
-1.18461
1.83495
7.69017
7.53802
7.35159
6.87151
5.78888
0.115448
-2.097
-1.905
-1.64367
-1.35376
-1.06633
-0.79737
-0.556092
-0.347994
-0.175255
-0.0331877
0.0764765
0.167753
0.244386
0.310325
0.369405
0.423638
0.474013
0.520847
0.563166
0.600024
0.628083
0.643295
0.643541
0.631378
0.612041
0.590252
0.567082
0.540818
0.50459
0.456355
0.395962
0.325467
0.247268
0.162079
0.0672593
-0.0426436
-0.17435
-0.339516
-0.544009
-0.786682
-1.05594
-1.22612
-1.43935
-1.76026
-1.59064
-0.484081
1.06086
5.78727
6.06392
6.28977
6.52659
6.81848
4.89919
-0.0176373
-0.215814
0.0026057
0.267977
0.546604
0.801146
1.01125
1.16182
1.71298
1.02577
0.892723
0.754082
0.556936
0.327228
0.0732832
-0.184165
-0.424378
-0.648439
-0.880759
-1.11806
1.78859
8.09143
7.91341
7.82284
7.18275
3.24798
-0.15282
-1.83199
-1.64593
-1.43185
-1.20001
-0.963418
-0.739559
-0.535647
-0.356116
-0.202763
-0.0744553
0.0321608
0.121238
0.196722
0.262057
0.31963
0.371298
0.418347
0.460725
0.498092
0.529707
0.55295
0.565595
0.56574
0.556749
0.542356
0.524502
0.503074
0.476197
0.441042
0.396383
0.341967
0.2784
0.206468
0.126071
0.0353833
-0.0690282
-0.191494
-0.337319
-0.509452
-0.707727
-0.924381
-1.14481
-1.35237
-1.53176
-1.66987
-1.75803
-1.41915
1.55709
5.2719
6.54113
6.73892
7.00603
7.32456
1.39539
-0.293716
-0.0933074
0.143351
0.393924
0.629051
0.82976
0.975966
1.11986
0.845889
0.744975
0.598637
0.400441
0.172297
-0.0705322
-0.304567
-0.507438
-0.676906
-0.840556
-0.999892
0.22688
1.38847
1.33389
-0.0512114
-1.80958
-1.78352
-1.70166
-1.57869
-1.41633
-1.23861
-1.05977
-0.867754
-0.681873
-0.509395
-0.354286
-0.218408
-0.101562
-0.00197061
0.0828763
0.155488
0.218585
0.273931
0.323044
0.366855
0.405712
0.439351
0.467047
0.487037
0.498351
0.498299
0.491166
0.479763
0.464353
0.444287
0.418211
0.384852
0.343523
0.293907
0.235991
0.169817
0.0948935
0.0098298
-0.0874831
-0.199681
-0.329044
-0.476641
-0.640707
-0.81537
-0.991336
-1.15768
-1.30387
-1.42077
-1.50335
-1.55434
-1.57465
-1.11622
0.517162
2.93456
4.08016
3.78473
1.16314
-0.359642
-0.219797
-0.00345499
0.237405
0.469867
0.673214
0.823218
0.926764
0.779576
0.75977
0.487557
0.270039
0.0264094
-0.226518
-0.457544
-0.638075
-0.756515
-0.832929
-0.872913
-1.06438
-1.24666
-1.38452
-1.48289
-1.52487
-1.51721
-1.46052
-1.36502
-1.2425
-1.09977
-0.943677
-0.783444
-0.62694
-0.479607
-0.344925
-0.224693
-0.119191
-0.0275015
0.0519657
0.120294
0.180377
0.232992
0.279338
0.320199
0.355915
0.386364
0.410911
0.428658
0.438889
0.439931
0.433906
0.424145
0.410285
0.39155
0.366834
0.335553
0.297299
0.251744
0.198649
0.137742
0.0684501
-0.0101469
-0.0995115
-0.201064
-0.315941
-0.444136
-0.583582
-0.729668
-0.875406
-1.0126
-1.13268
-1.22852
-1.29588
-1.33228
-1.33131
-1.28573
-1.19726
-1.08806
-0.888288
-0.705498
-0.306923
-0.383983
-0.371052
-0.169345
0.0783255
0.323382
0.540752
0.704318
0.827253
0.761665
0.690856
0.509689
0.159406
-0.117537
-0.408343
-0.667399
-0.85652
-0.946807
-0.955469
-0.942101
-0.988538
-1.08307
-1.19089
-1.2783
-1.32275
-1.31992
-1.27492
-1.19661
-1.09381
-0.973513
-0.842219
-0.706947
-0.573795
-0.447187
-0.33002
-0.223898
-0.129302
-0.045846
0.0273723
0.0913949
0.147647
0.197049
0.24045
0.278391
0.311195
0.338847
0.360938
0.37699
0.386305
0.388863
0.383743
0.375062
0.362318
0.344807
0.321615
0.292457
0.257068
0.215126
0.166337
0.110377
0.0467457
-0.0252352
-0.106414
-0.197611
-0.299285
-0.410928
-0.530649
-0.654952
-0.778642
-0.895561
-0.999134
-1.08355
-1.144
-1.17514
-1.16966
-1.12354
-1.04226
-0.945576
-0.847698
-0.746508
-0.698058
-0.676613
-0.580943
-0.364669
-0.087507
0.185282
0.656706
0.668134
0.799768
0.838292
0.612446
0.452621
0.0597473
-0.275273
-0.642433
-0.972523
-1.21828
-1.32907
-1.30549
-1.21086
-1.12404
-1.11176
-1.14382
-1.17647
-1.19277
-1.17764
-1.131
-1.05911
-0.968335
-0.864197
-0.751883
-0.63649
-0.522506
-0.413352
-0.311352
-0.217873
-0.133476
-0.0580756
0.00882868
0.0679345
0.12009
0.166036
0.206358
0.241428
0.271492
0.296575
0.316473
0.330967
0.339853
0.35466
0.346759
0.332037
0.320078
0.303649
0.281975
0.254884
0.22218
0.18357
0.138777
0.0875587
0.0294979
-0.0359042
-0.109139
-0.190619
-0.280437
-0.377886
-0.481423
-0.588307
-0.694806
-0.796429
-0.888401
-0.966372
-1.0263
-1.06354
-1.07339
-1.05607
-1.02039
-0.99276
-0.68652
-0.0343351
-0.55653
-1.03563
-0.911333
-0.621344
-0.276408
0.0820158
0.678875
0.772259
0.884808
0.952646
0.619606
0.339581
-0.0455993
-0.473809
-0.634663
0.371975
0.576502
0.22206
0.261725
-0.896357
-0.785081
-1.29005
-1.19478
-1.14296
-1.10938
-1.06919
-1.01324
-0.942184
-0.859168
-0.767339
-0.670092
-0.570913
-0.472951
-0.378711
-0.28997
-0.207854
-0.132917
-0.0652474
-0.00460701
0.0494225
0.0973605
0.139704
0.176858
0.209085
0.236569
0.259249
0.277091
0.290072
0.298774
0.478147
0.325697
0.293984
0.282917
0.267539
0.247353
0.222251
0.192085
0.156623
0.115655
0.0689811
0.0163019
-0.0427279
-0.108375
-0.180805
-0.259925
-0.345014
-0.434881
-0.527513
-0.620282
-0.710157
-0.794029
-0.869184
-0.933313
-0.985155
-1.02466
-1.03893
-0.903034
1.09878
4.72517
4.61752
4.43848
1.94573
-1.29145
-0.983567
-0.512828
0.0647217
0.592498
0.653134
1.02387
3.56894
0.67349
0.265605
-0.160006
-0.705189
-0.669304
1.71963
1.36582
1.11535
1.15838
1.55617
2.25607
0.370011
-1.11321
-1.13052
-1.04516
-0.975336
-0.908244
-0.836666
-0.759749
-0.678328
-0.593974
-0.508735
-0.424658
-0.343491
-0.266555
-0.194749
-0.128589
-0.0682655
-0.0137228
0.035252
0.0789573
0.11769
0.151707
0.18119
0.206247
0.226719
0.242736
0.254232
0.262867
0.490896
0.298848
0.260375
0.250187
0.235897
0.217182
0.194008
0.166281
0.13385
0.0965466
0.0542134
0.00666849
-0.0462716
-0.104752
-0.168786
-0.238143
-0.31226
-0.390133
-0.47041
-0.551353
-0.631159
-0.708175
-0.781349
-0.851035
-0.920966
-0.995599
-0.647804
3.06311
4.70377
4.1743
3.70414
3.55486
2.72299
-1.79597
-1.3674
-0.583323
0.0170737
0.397754
0.735568
4.14668
4.39196
3.66831
0.289921
-0.230206
-0.871086
-1.43822
-0.551349
-0.728777
-2.19696
-3.22618
-1.02668
2.11804
2.91749
0.38759
-1.0717
-0.968266
-0.877805
-0.804123
-0.734842
-0.665152
-0.594027
-0.521687
-0.449087
-0.377467
-0.308019
-0.241734
-0.179341
-0.121313
-0.0679154
-0.0192313
0.0248102
0.0643598
0.0995687
0.130561
0.157442
0.18026
0.198799
0.213265
0.223734
0.232485
0.465439
0.264735
0.230655
0.22134
0.20816
0.190902
0.169609
0.144248
0.11473
0.0809526
0.0427947
0.000149129
-0.0470132
-0.0987516
-0.155027
-0.215452
-0.279641
-0.34676
-0.415891
-0.485953
-0.556037
-0.625575
-0.694968
-0.767359
-0.849827
-0.945009
0.938773
5.04129
4.44817
1.97051
-2.55026
-2.03064
-1.87059
-2.25097
-1.65134
-0.920015
-0.234492
0.313655
1.82608
10.1018
2.1277
3.95392
3.44609
-0.131506
-0.858737
-1.71159
-2.62454
-3.28507
-3.69996
-3.72328
-3.28439
-0.127723
3.14714
2.2749
-0.828398
-0.853733
-0.764638
-0.694265
-0.63259
-0.572853
-0.512912
-0.452389
-0.391654
-0.33147
-0.272688
-0.216093
-0.162321
-0.111826
-0.064918
-0.021786
0.0175218
0.0530401
0.0848252
0.112919
0.137358
0.158137
0.175056
0.188327
0.19863
0.222125
0.444213
0.227308
0.204349
0.195854
0.183794
0.167959
0.148564
0.125519
0.0988107
0.0684087
0.0342392
-0.0037587
-0.0455027
-0.0909239
-0.139967
-0.19221
-0.247295
-0.304563
-0.363315
-0.422865
-0.48279
-0.543096
-0.605093
-0.673459
-0.754314
-0.847544
1.89264
5.1683
2.4224
-2.76972
-3.2487
-3.40628
-3.15514
-2.46106
-1.71033
-0.946599
-0.231433
1.20889
9.16185
9.88878
0.344517
2.65235
3.79869
3.20709
-0.608255
-1.34878
-2.1534
-2.81542
-3.23143
-3.21449
-2.78271
-0.868666
4.14306
3.02871
-0.569125
-0.699334
-0.633657
-0.578357
-0.529816
-0.482742
-0.43497
-0.386182
-0.336675
-0.287053
-0.238019
-0.190254
-0.144357
-0.1008
-0.0599366
-0.022025
0.0127969
0.0444665
0.0729611
0.0982769
0.1204
0.139278
0.154733
0.166919
0.183192
0.361494
0.426209
0.192929
0.180942
0.173247
0.162287
0.14796
0.130403
0.10962
0.0856178
0.0584272
0.0280539
-0.00550922
-0.0421769
-0.0817862
-0.124149
-0.168898
-0.215612
-0.263762
-0.312736
-0.362006
-0.41124
-0.460508
-0.511221
-0.567324
-0.631789
-0.703913
1.60201
5.28395
0.349745
-2.2962
-2.73989
-2.8905
-2.62352
-2.05437
-1.38313
-0.605817
1.8414
8.94991
9.36387
0.789529
0.231389
0.24844
1.97813
4.26497
3.00245
-0.802372
-1.35744
-1.86169
-2.16853
-2.1314
-1.79935
1.63141
5.22311
3.19325
-0.461586
-0.527575
-0.495351
-0.462084
-0.429973
-0.396804
-0.361404
-0.3239
-0.284821
-0.244826
-0.204611
-0.164832
-0.126076
-0.0888465
-0.0535492
-0.0204949
0.010111
0.038135
0.06349
0.0861329
0.106022
0.123065
0.137068
0.148111
0.175317
0.409268
0.410649
0.164562
0.16005
0.153177
0.143336
0.130481
0.114739
0.0961701
0.0747934
0.0506444
0.0237918
-0.00564354
-0.0375564
-0.071804
-0.108054
-0.145977
-0.18508
-0.224875
-0.264755
-0.304178
-0.342668
-0.380034
-0.417057
-0.45561
-0.495782
-0.534464
1.20547
5.25522
2.96249
-1.48118
-1.79258
-1.90808
-1.69435
-1.24194
-0.666459
4.93705
9.43565
9.24172
6.67372
0.0326915
0.0677198
0.0417274
-0.0464052
2.63107
7.15352
7.38454
2.79694
-0.834994
-0.990552
-0.954692
-0.543235
5.78634
6.3114
2.15961
-0.344905
-0.368185
-0.365939
-0.354106
-0.337967
-0.317912
-0.293919
-0.266652
-0.236911
-0.20547
-0.173072
-0.140394
-0.108039
-0.0765317
-0.0463155
-0.0177387
0.00894428
0.0335485
0.0559395
0.0760309
0.093755
0.108998
0.121542
0.131418
0.15523
0.396129
0.382018
0.144592
0.141491
0.13546
0.126713
0.115285
0.101276
0.0847958
0.0659127
0.0446638
0.0211031
-0.00456328
-0.0321304
-0.0614655
-0.0921812
-0.123949
-0.156239
-0.188543
-0.220214
-0.250624
-0.279102
-0.305122
-0.328626
-0.349635
-0.366696
-0.375336
0.0640797
5.18774
6.86598
-0.506223
-0.799153
-0.863163
-0.692585
5.36688
10.3176
10.8112
10.2075
7.57315
0.0334781
-0.0214261
-0.0805013
-0.133577
-0.236426
-0.0234068
7.84514
8.05848
8.04223
7.05197
2.06784
1.37909
6.88146
7.60011
6.79708
0.769711
-0.199139
-0.240983
-0.257615
-0.261446
-0.257922
-0.248547
-0.234052
-0.215444
-0.193675
-0.169586
-0.143949
-0.117462
-0.0907474
-0.0643415
-0.0387055
-0.0142052
0.00887702
0.0303197
0.0499528
0.0676481
0.0833105
0.0968087
0.107938
0.116686
0.129512
0.385655
0.373542
0.128058
0.125223
0.119932
0.112192
0.102119
0.0897595
0.075227
0.0586353
0.0400744
0.0195952
-0.00260978
-0.0262751
-0.0512014
-0.0769923
-0.103298
-0.129593
-0.155354
-0.179904
-0.202532
-0.222438
-0.238848
-0.251165
-0.258218