/*--------------------------------*- C++ -*----------------------------------*\
| =========                 |                                                 |
| \\      /  F ield         | OpenFOAM: The Open Source CFD Toolbox           |
|  \\    /   O peration     | Version:  2412                                  |
|   \\  /    A nd           | Website:  www.openfoam.com                      |
|    \\/     M anipulation  |                                                 |
\*---------------------------------------------------------------------------*/
FoamFile
{
    version     2.0;
    format      ascii;
    arch        "LSB;label=32;scalar=64";
    class       surfaceScalarField;
    location    "3.95";
    object      alphaPhi0.ethanol;
}
// * * * * * * * * * * * * * * * * * * * * * * * * * * * * * * * * * * * * * //

dimensions      [0 3 -1 0 0 0 0];

oriented        oriented;

internalField   nonuniform List<scalar> 
12640
(
6.42158e-06
-6.42157e-06
1.57887e-05
-9.36743e-06
2.58554e-05
-1.00673e-05
3.48432e-05
-8.98808e-06
4.15555e-05
-6.7124e-06
4.53226e-05
-3.76724e-06
4.58012e-05
-4.78886e-07
4.28056e-05
2.99515e-06
3.64082e-05
6.39722e-06
2.67551e-05
9.65317e-06
1.4143e-05
1.26123e-05
-1.05238e-06
1.51961e-05
-1.82981e-05
1.72458e-05
-3.71236e-05
1.88256e-05
-5.698e-05
1.9857e-05
-7.73126e-05
2.03325e-05
-9.75326e-05
2.02197e-05
-0.000117103
1.95697e-05
-0.000135455
1.83522e-05
-0.000152135
1.66797e-05
-0.000166777
1.46424e-05
-0.000179068
1.22919e-05
-0.000188755
9.68671e-06
-0.000195667
6.91134e-06
-0.00019974
4.07333e-06
-0.000200909
1.16823e-06
-0.000199229
-1.68124e-06
-0.000194801
-4.42864e-06
-0.000187787
-7.01466e-06
-0.000178381
-9.40606e-06
-0.000166775
-1.16058e-05
-0.000153195
-1.35801e-05
-0.000137892
-1.53021e-05
-0.000121081
-1.6811e-05
-0.00010299
-1.80907e-05
-8.38378e-05
-1.9152e-05
-6.38681e-05
-1.99693e-05
-4.328e-05
-2.05876e-05
-2.22897e-05
-2.09899e-05
-1.10998e-06
-2.11793e-05
2.0043e-05
-2.11525e-05
4.09474e-05
-2.09041e-05
6.13946e-05
-2.04471e-05
8.11851e-05
-1.97906e-05
0.000100115
-1.893e-05
0.00011798
-1.78655e-05
0.000134561
-1.65816e-05
0.000149654
-1.50938e-05
0.000163043
-1.33888e-05
0.000174516
-1.14729e-05
0.000183852
-9.33674e-06
0.000190842
-6.98987e-06
0.000195343
-4.49987e-06
0.000197209
-1.86626e-06
0.000196304
9.05567e-07
0.000192562
3.74173e-06
0.000186033
6.52904e-06
0.000176823
9.21057e-06
0.000165068
1.17562e-05
0.000150994
1.40742e-05
0.000134905
1.60892e-05
0.000117185
1.77201e-05
9.82785e-05
1.89058e-05
7.86713e-05
1.96071e-05
5.89032e-05
1.97685e-05
3.95514e-05
1.93523e-05
2.11919e-05
1.83595e-05
4.36227e-06
1.68291e-05
-1.0537e-05
1.48989e-05
-2.29416e-05
1.24049e-05
-3.24889e-05
9.54794e-06
-3.89088e-05
6.41978e-06
-4.20274e-05
3.11795e-06
-4.17883e-05
-2.39344e-07
-3.83873e-05
-3.40034e-06
-3.21364e-05
-6.25016e-06
-2.36938e-05
-8.44277e-06
-1.42596e-05
-9.43359e-06
-5.62592e-06
-8.63303e-06
-5.62679e-06
9.56361e-06
-1.59862e-05
2.47147e-05
-2.45195e-05
4.17399e-05
-2.7093e-05
5.7821e-05
-2.50694e-05
7.11264e-05
-2.00183e-05
8.0693e-05
-1.33344e-05
8.60587e-05
-5.84503e-06
8.70457e-05
2.00787e-06
8.36885e-05
9.75455e-06
7.61979e-05
1.71446e-05
6.48993e-05
2.39111e-05
5.02807e-05
2.98155e-05
3.28289e-05
3.46981e-05
1.32233e-05
3.84307e-05
-7.85792e-06
4.09378e-05
-2.96974e-05
4.21721e-05
-5.17079e-05
4.22305e-05
-7.3144e-05
4.10059e-05
-9.35693e-05
3.87776e-05
-0.000112328
3.54382e-05
-0.000129054
3.1369e-05
-0.000143398
2.66358e-05
-0.000155053
2.1341e-05
-0.000163986
1.5844e-05
-0.000170049
1.01357e-05
-0.000173217
4.33646e-06
-0.000173578
-1.32072e-06
-0.000171285
-6.72051e-06
-0.000166443
-1.18563e-05
-0.000159199
-1.665e-05
-0.000149777
-2.10274e-05
-0.000138399
-2.49577e-05
-0.000125266
-2.84354e-05
-0.000110642
-3.1435e-05
-9.47265e-05
-3.40055e-05
-7.77439e-05
-3.61338e-05
-5.99019e-05
-3.78109e-05
-4.14279e-05
-3.90615e-05
-2.25334e-05
-3.98843e-05
-3.44145e-06
-4.02713e-05
1.56156e-05
-4.02097e-05
3.44162e-05
-3.9705e-05
5.27394e-05
-3.87709e-05
7.04013e-05
-3.74532e-05
8.71722e-05
-3.57016e-05
0.000102863
-3.35576e-05
0.000117282
-3.10009e-05
0.000130215
-2.80277e-05
0.000141457
-2.46302e-05
0.000150793
-2.08093e-05
0.000158034
-1.65773e-05
0.000162946
-1.19015e-05
0.000165409
-6.96197e-06
0.000165283
-1.74011e-06
0.00016245
3.73801e-06
0.000156971
9.22046e-06
0.000148614
1.48866e-05
0.000137565
2.02604e-05
0.000123958
2.53628e-05
0.000108029
3.00035e-05
9.01016e-05
3.40155e-05
7.05661e-05
3.72549e-05
4.99036e-05
3.95679e-05
2.87188e-05
4.07922e-05
7.64248e-06
4.08453e-05
-1.27099e-05
3.97045e-05
-3.16633e-05
3.73119e-05
-4.85519e-05
3.37169e-05
-6.26808e-05
2.9028e-05
-7.36084e-05
2.33333e-05
-8.08396e-05
1.67791e-05
-8.40427e-05
9.62174e-06
-8.30353e-05
2.10995e-06
-7.77764e-05
-5.49731e-06
-6.8443e-05
-1.27332e-05
-5.54887e-05
-1.92055e-05
-3.98416e-05
-2.40899e-05
-2.33258e-05
-2.59485e-05
-8.79525e-06
-2.31658e-05
-1.44204e-05
1.19898e-05
-2.79765e-05
3.10618e-05
-4.35925e-05
5.23868e-05
-4.84187e-05
7.2649e-05
-4.53319e-05
8.98139e-05
-3.71838e-05
0.00010281
-2.63309e-05
0.000111129
-1.41644e-05
0.000114654
-1.51687e-06
0.00011336
1.10486e-05
0.000107504
2.30012e-05
9.7466e-05
3.39484e-05
8.37665e-05
4.35147e-05
6.69745e-05
5.149e-05
4.77663e-05
5.76395e-05
2.68506e-05
6.18536e-05
4.94038e-06
6.40822e-05
-1.71985e-05
6.43699e-05
-3.89682e-05
6.27764e-05
-5.96655e-05
5.94754e-05
-7.89865e-05
5.47594e-05
-9.6281e-05
4.86638e-05
-0.000111269
4.16242e-05
-0.000123737
3.38099e-05
-0.000133475
2.55826e-05
-0.000140421
1.70833e-05
-0.000144639
8.55533e-06
-0.000146132
1.73348e-07
-0.000145022
-7.83054e-06
-0.000141527
-1.53515e-05
-0.000135848
-2.23284e-05
-0.000128165
-2.87113e-05
-0.000118692
-3.44312e-05
-0.000107655
-3.94724e-05
-9.52634e-05
-4.38264e-05
-8.17446e-05
-4.75247e-05
-6.72933e-05
-5.05861e-05
-5.21101e-05
-5.29951e-05
-3.63822e-05
-5.47901e-05
-2.03077e-05
-5.59594e-05
-4.07687e-06
-5.65026e-05
1.21101e-05
-5.63971e-05
2.80567e-05
-5.56519e-05
4.36077e-05
-5.43222e-05
5.855e-05
-5.23958e-05
7.27855e-05
-4.99375e-05
8.60473e-05
-4.68198e-05
9.81848e-05
-4.31387e-05
0.000109004
-3.88474e-05
0.000118319
-3.39448e-05
0.000125903
-2.83934e-05
0.000131538
-2.22119e-05
0.000135162
-1.55259e-05
0.000136489
-8.28938e-06
0.000135352
-6.0424e-07
0.000131599
7.49007e-06
0.000125129
1.56903e-05
0.000116071
2.39439e-05
0.000104374
3.1957e-05
9.01947e-05
3.95421e-05
7.37678e-05
4.64298e-05
5.53994e-05
5.23831e-05
3.55424e-05
5.71114e-05
1.47085e-05
6.04018e-05
-6.52335e-06
6.20245e-05
-2.75443e-05
6.18661e-05
-4.76445e-05
5.9804e-05
-6.61234e-05
5.57896e-05
-8.22779e-05
4.98711e-05
-9.54355e-05
4.21862e-05
-0.000105024
3.29221e-05
-0.000110562
2.23156e-05
-0.000111684
1.07426e-05
-0.000108106
-1.46768e-06
-9.98708e-05
-1.37328e-05
-8.70935e-05
-2.55121e-05
-7.02664e-05
-3.60338e-05
-5.04436e-05
-4.39126e-05
-2.96304e-05
-4.67643e-05
-1.1204e-05
-4.15913e-05
-2.56254e-05
1.42807e-05
-4.22578e-05
3.67824e-05
-6.60954e-05
6.16588e-05
-7.32958e-05
8.51781e-05
-6.88516e-05
0.000105063
-5.7069e-05
0.000120174
-4.14431e-05
0.000130007
-2.39975e-05
0.000134443
-5.95265e-06
0.000133557
1.19338e-05
0.000127637
2.89211e-05
0.000117224
4.43605e-05
0.000102745
5.79948e-05
8.49737e-05
6.92601e-05
6.46271e-05
7.79866e-05
4.24812e-05
8.40006e-05
1.93204e-05
8.72441e-05
-4.0624e-06
8.77531e-05
-2.69687e-05
8.56826e-05
-4.87373e-05
8.12436e-05
-6.87615e-05
7.47828e-05
-8.67048e-05
6.66063e-05
-0.000102169
5.7088e-05
-0.000114978
4.66185e-05
-0.000124927
3.5531e-05
-0.00013203
2.4187e-05
-0.000136245
1.27698e-05
-0.000137764
1.69336e-06
-0.000136718
-8.87607e-06
-0.000133301
-1.87692e-05
-0.000127763
-2.78669e-05
-0.000120369
-3.61048e-05
-0.000111295
-4.35052e-05
-0.000100792
-4.99755e-05
-8.90835e-05
-5.55354e-05
-7.63645e-05
-6.02437e-05
-6.28547e-05
-6.40955e-05
-4.8697e-05
-6.71521e-05
-3.40747e-05
-6.94117e-05
-1.91545e-05
-7.0879e-05
-4.1129e-06
-7.15434e-05
1.08818e-05
-7.1391e-05
2.56649e-05
-7.04344e-05
4.00661e-05
-6.87229e-05
5.39403e-05
-6.62697e-05
6.71218e-05
-6.3119e-05
7.95233e-05
-5.92215e-05
9.09217e-05
-5.45372e-05
0.000101144
-4.90694e-05
0.000109981
-4.27826e-05
0.000117233
-3.56451e-05
0.000122798
-2.77766e-05
0.000126315
-1.9043e-05
0.000127583
-9.55626e-06
0.000126418
5.60437e-07
0.00012265
1.12584e-05
0.000116156
2.21855e-05
0.000106927
3.31735e-05
9.49402e-05
4.39442e-05
8.03581e-05
5.41248e-05
6.33434e-05
6.34448e-05
4.42521e-05
7.14745e-05
2.35036e-05
7.78603e-05
1.60713e-06
8.2299e-05
-2.08039e-05
8.44361e-05
-4.30176e-05
8.40799e-05
-6.42867e-05
8.10726e-05
-8.38441e-05
7.53467e-05
-0.00010094
6.69675e-05
-0.000114802
5.60496e-05
-0.0001248
4.2921e-05
-0.000130361
2.78757e-05
-0.000131077
1.14596e-05
-0.000126598
-5.94567e-06
-0.000116871
-2.34608e-05
-0.000102003
-4.0382e-05
-8.24819e-05
-5.55546e-05
-5.94591e-05
-6.69363e-05
-3.518e-05
-7.10447e-05
-1.34026e-05
-6.3368e-05
-3.903e-05
1.69754e-05
-5.92339e-05
4.33968e-05
-9.25179e-05
7.22496e-05
-0.000102149
9.93069e-05
-9.59095e-05
0.000121948
-7.97109e-05
0.000138911
-5.84061e-05
0.000149713
-3.48004e-05
0.000154311
-1.05513e-05
0.000152884
1.33608e-05
0.000145901
3.59041e-05
0.000133853
5.64071e-05
0.000117509
7.43397e-05
9.74534e-05
8.93161e-05
7.47089e-05
0.000100731
5.00897e-05
0.000108619
2.44937e-05
0.000112839
-1.21544e-06
0.000113462
-2.61734e-05
0.00011064
-4.9715e-05
0.000104785
-7.12385e-05
9.63068e-05
-9.0293e-05
8.56615e-05
-0.000106533
7.33287e-05
-0.0001198
5.9885e-05
-0.00012993
4.56612e-05
-0.000136773
3.10291e-05
-0.00014079
1.6786e-05
-0.000141872
2.77448e-06
-0.000140256
-1.04923e-05
-0.000136228
-2.27969e-05
-0.000130053
-3.40411e-05
-0.000122034
-4.4123e-05
-0.000112402
-5.31375e-05
-0.000101491
-6.08857e-05
-8.94632e-05
-6.7563e-05
-7.65133e-05
-7.3193e-05
-6.28433e-05
-7.77652e-05
-4.86014e-05
-8.13936e-05
-3.39394e-05
-8.40732e-05
-1.90093e-05
-8.58087e-05
-3.97211e-06
-8.65802e-05
1.10082e-05
-8.63708e-05
2.57748e-05
-8.52006e-05
4.01729e-05
-8.31206e-05
5.40837e-05
-8.01802e-05
6.73562e-05
-7.63911e-05
7.99025e-05
-7.17675e-05
9.15358e-05
-6.61702e-05
0.00010212
-5.96539e-05
0.00011144
-5.21023e-05
0.000119296
-4.35009e-05
0.000125362
-3.38422e-05
0.000129427
-2.31085e-05
0.000131253
-1.13825e-05
0.000130552
1.26074e-06
0.000127084
1.47255e-05
0.000120669
2.86003e-05
0.000111426
4.24159e-05
9.90117e-05
5.63589e-05
8.375e-05
6.93865e-05
6.5677e-05
8.15177e-05
4.51599e-05
9.19916e-05
2.273e-05
0.000100291
-1.15541e-06
0.000106185
-2.57896e-05
0.000109071
-5.03644e-05
0.000108655
-7.40402e-05
0.000104748
-9.59476e-05
9.72546e-05
-0.000115242
8.62621e-05
-0.000130979
7.17874e-05
-0.000142551
5.44914e-05
-0.000149183
3.45065e-05
-0.000150389
1.2665e-05
-0.000145762
-1.05725e-05
-0.000135089
-3.41353e-05
-0.00011841
-5.70616e-05
-9.61991e-05
-7.77646e-05
-6.97171e-05
-9.34204e-05
-4.15606e-05
-9.92006e-05
-1.59741e-05
-8.89554e-05
-5.50041e-05
2.03548e-05
-7.95894e-05
5.18609e-05
-0.000124025
8.59097e-05
-0.000136199
0.0001175
-0.000127501
0.00014355
-0.000105762
0.000162587
-7.74437e-05
0.000174226
-4.64393e-05
0.000178592
-1.49181e-05
0.000176074
1.58784e-05
0.0001672
4.47786e-05
0.000152742
7.08646e-05
0.000133413
9.36674e-05
0.000110145
0.000112584
8.39045e-05
0.000126972
5.572e-05
0.000136804
2.6631e-05
0.000141929
-2.35578e-06
0.000142449
-3.03004e-05
0.000138586
-5.64043e-05
0.000130891
-8.00063e-05
0.00011991
-0.000100692
0.000106347
-0.00011808
9.07165e-05
-0.000131971
7.37753e-05
-0.000142147
5.58357e-05
-0.000149115
3.79973e-05
-0.000152577
2.0248e-05
-0.000152872
3.0702e-06
-0.000150332
-1.30325e-05
-0.000145276
-2.78528e-05
-0.00013803
-4.12864e-05
-0.000128815
-5.33383e-05
-0.000118192
-6.37603e-05
-0.000106253
-7.28249e-05
-9.33077e-05
-8.05091e-05
-7.95577e-05
-8.69441e-05
-6.51403e-05
-9.21835e-05
-5.02213e-05
-9.63135e-05
-3.49181e-05
-9.93771e-05
-1.93771e-05
-0.00010135
-3.74776e-06
-0.000102209
1.18132e-05
-0.000101931
2.71509e-05
-0.000100538
4.21275e-05
-9.80965e-05
5.66306e-05
-9.46828e-05
7.05571e-05
-9.03172e-05
8.37772e-05
-8.49875e-05
9.61981e-05
-7.85915e-05
0.000107676
-7.1132e-05
0.000117945
-6.23719e-05
0.000126793
-5.23496e-05
0.000133923
-4.09736e-05
0.000139016
-2.82028e-05
0.00014171
-1.40777e-05
0.000141775
1.19464e-06
0.00013883
1.76694e-05
0.00013269
3.47401e-05
0.000122972
5.21336e-05
0.000110123
6.92076e-05
9.3622e-05
8.58871e-05
7.41162e-05
0.000101023
5.17178e-05
0.00011439
2.68516e-05
0.000125157
1.32232e-07
0.000132905
-2.76856e-05
0.000136889
-5.56731e-05
0.000136642
-8.28633e-05
0.000131938
-0.000108201
0.000122592
-0.00013066
0.000108721
-0.000149303
9.04286e-05
-0.000163199
6.83858e-05
-0.000171665
4.29729e-05
-0.000174007
1.50075e-05
-0.00016959
-1.49908e-05
-0.000158093
-4.56332e-05
-0.000139401
-7.57526e-05
-0.000113874
-0.000103293
-8.29731e-05
-0.000124322
-4.97374e-05
-0.000132435
-1.92658e-05
-0.000119429
-7.42696e-05
2.46794e-05
-0.000104269
6.29034e-05
-0.000162249
0.0001039
-0.000177196
0.000141435
-0.000165037
0.000171769
-0.000136096
0.000193253
-9.89277e-05
0.00020567
-5.88568e-05
0.000209405
-1.86525e-05
0.000205162
2.01207e-05
0.000193796
5.61442e-05
0.000176027
8.86339e-05
0.000152757
0.000116937
0.000125251
0.00014009
9.44528e-05
0.000157771
6.15678e-05
0.00016969
2.79641e-05
0.000175533
-5.19855e-06
0.000175613
-3.69526e-05
0.000170341
-6.6353e-05
0.00016029
-9.26788e-05
0.000146234
-0.000115333
0.000129
-0.000134074
0.000109457
-0.000148577
8.8278e-05
-0.000159298
6.65565e-05
-0.000165864
4.45642e-05
-0.000168651
2.30351e-05
-0.000167909
2.32781e-06
-0.000164092
-1.68506e-05
-0.000157599
-3.43459e-05
-0.000148807
-5.00787e-05
-0.000138203
-6.39427e-05
-0.000126105
-7.58589e-05
-0.000112838
-8.6092e-05
-9.86453e-05
-9.47022e-05
-8.37599e-05
-0.00010183
-6.83188e-05
-0.000107624
-5.24536e-05
-0.000112178
-3.62682e-05
-0.000115562
-1.98809e-05
-0.000117737
-3.43092e-06
-0.000118659
1.29266e-05
-0.000118288
2.90392e-05
-0.00011665
4.4815e-05
-0.000113872
6.01359e-05
-0.000110003
7.49244e-05
-0.000105105
8.90938e-05
-9.91568e-05
0.000102583
-9.20809e-05
0.000115188
-8.37368e-05
0.000126749
-7.39328e-05
0.000136971
-6.25714e-05
0.000145447
-4.94489e-05
0.000151929
-3.46849e-05
0.000155919
-1.80678e-05
0.000157072
4.16124e-08
0.000154883
1.98588e-05
0.000149116
4.05071e-05
0.000139437
6.18134e-05
0.000125697
8.29476e-05
0.000108163
0.000103421
8.66138e-05
0.000122573
6.1587e-05
0.000139417
3.3424e-05
0.000153321
3.04548e-06
0.000163284
-2.88484e-05
0.000168783
-6.12069e-05
0.000169001
-9.29544e-05
0.000163687
-0.000122738
0.000152377
-0.000149377
0.00013536
-0.000171884
0.000112936
-0.000188996
8.54986e-05
-0.000199951
5.39292e-05
-0.000203944
1.90007e-05
-0.000200139
-1.87972e-05
-0.000187938
-5.78335e-05
-0.000166855
-9.68349e-05
-0.000137149
-0.000133
-0.000100384
-0.000161086
-6.03612e-05
-0.000172457
-2.33605e-05
-0.000156429
-9.76293e-05
2.99484e-05
-0.000134218
7.70204e-05
-0.000209321
0.000127376
-0.000227551
0.000172814
-0.000210475
0.000208475
-0.000171757
0.000232654
-0.000123107
0.000245603
-7.18056e-05
0.000248238
-2.12878e-05
0.000241544
2.68147e-05
0.00022674
7.09487e-05
0.000204641
0.000110734
0.000176608
0.000144969
0.000143601
0.000173097
0.000107032
0.000194339
6.82978e-05
0.000208423
2.90398e-05
0.000214791
-9.46635e-06
0.000214119
-4.58614e-05
0.000206735
-7.93585e-05
0.000193787
-0.000108847
0.000175724
-0.000133903
0.000154058
-0.000154189
0.000129744
-0.000169693
0.000103782
-0.000180305
7.71674e-05
-0.000186366
5.06246e-05
-0.000188168
2.48367e-05
-0.000185936
9.56823e-08
-0.000180454
-2.23326e-05
-0.000172147
-4.26531e-05
-0.000161541
-6.06841e-05
-0.000149077
-7.64066e-05
-0.00013513
-8.98054e-05
-0.000120192
-0.00010103
-0.000104531
-0.000110362
-8.83273e-05
-0.000118033
-7.17201e-05
-0.000124231
-5.47976e-05
-0.000129101
-3.76375e-05
-0.000132722
-2.03274e-05
-0.000135047
-2.9899e-06
-0.000135996
1.42279e-05
-0.000135506
3.11906e-05
-0.000133612
4.77997e-05
-0.00013048
6.4008e-05
-0.000126211
7.97925e-05
-0.00012089
9.51041e-05
-0.000114468
0.000109874
-0.000106851
0.000123956
-9.78197e-05
0.000137152
-8.71291e-05
0.00014917
-7.45896e-05
0.000159489
-5.97684e-05
0.000167682
-4.28787e-05
0.000173297
-2.36837e-05
0.000175741
-2.40263e-06
0.000174499
2.11004e-05
0.000169144
4.58617e-05
0.000159589
7.13686e-05
0.000145379
9.7157e-05
0.000126342
0.000122458
0.000102652
0.000146263
7.45527e-05
0.000167516
4.26818e-05
0.000185192
7.57841e-06
0.000198388
-2.95428e-05
0.000205905
-6.751e-05
0.000206968
-0.000105007
0.000201184
-0.000140426
0.000187797
-0.00017241
0.000167344
-0.000199594
0.000140119
-0.000220982
0.000106887
-0.000235319
6.82663e-05
-0.0002416
2.52807e-05
-0.000238993
-2.14049e-05
-0.000226275
-7.05496e-05
-0.00020259
-0.00012052
-0.000167633
-0.000167957
-0.000123093
-0.000205624
-7.3928e-05
-0.000221623
-2.83525e-05
-0.000202004
-0.000125981
3.60457e-05
-0.000170264
9.47758e-05
-0.00026805
0.000157892
-0.000290667
0.000213884
-0.000266467
0.000256036
-0.000213908
0.000282887
-0.000149957
0.000295612
-8.45292e-05
0.000296157
-2.18334e-05
0.000286272
3.67009e-05
0.000266987
9.02335e-05
0.000239742
0.000137979
0.000205478
0.000179233
0.000165678
0.000212896
0.000121919
0.000238098
7.59021e-05
0.000254441
2.95425e-05
0.000261151
-1.55157e-05
0.000259177
-5.78364e-05
0.000249056
-9.59176e-05
0.000231869
-0.000129201
0.000209007
-0.000156958
0.000181816
-0.000178946
0.000151732
-0.00019505
0.000119886
-0.000205492
8.76089e-05
-0.000210643
5.57762e-05
-0.000210966
2.51603e-05
-0.000207087
-3.78315e-06
-0.000199525
-2.98945e-05
-0.00018883
-5.33476e-05
-0.000175746
-7.37685e-05
-0.000160894
-9.12584e-05
-0.000144743
-0.000105956
-0.000127862
-0.000117911
-0.000110504
-0.00012772
-9.28675e-05
-0.00013567
-7.5022e-05
-0.000142078
-5.70143e-05
-0.000147109
-3.88677e-05
-0.00015087
-2.06246e-05
-0.000153291
-2.38908e-06
-0.000154232
1.56828e-05
-0.000153578
3.34523e-05
-0.000151382
5.08627e-05
-0.000147891
6.79345e-05
-0.000143284
8.46931e-05
-0.000137649
0.00010118
-0.000130956
0.000117363
-0.000123035
0.000133146
-0.000113604
0.000148343
-0.000102328
0.00016246
-8.87068e-05
0.000175137
-7.24464e-05
0.000185674
-5.34164e-05
0.000193425
-3.14355e-05
0.000197797
-6.77484e-06
0.000198124
2.07727e-05
0.00019381
5.01759e-05
0.000184296
8.08824e-05
0.000169353
0.0001121
0.000148837
0.000142973
0.000122729
0.00017237
9.10398e-05
0.000199205
5.43829e-05
0.000221849
1.38904e-05
0.00023888
-2.96114e-05
0.000249406
-7.45063e-05
0.000251863
-0.000119154
0.000245832
-0.000161646
0.000230288
-0.000200314
0.000206012
-0.000233587
0.000173393
-0.000259993
0.000133295
-0.000278652
8.69255e-05
-0.000288269
3.48972e-05
-0.00028762
-2.20516e-05
-0.000275139
-8.30296e-05
-0.000248853
-0.000146806
-0.000207493
-0.000209316
-0.000152554
-0.000260564
-9.08199e-05
-0.000283356
-3.40976e-05
-0.000258726
-0.00016008
4.2762e-05
-0.000213025
0.000117351
-0.000342638
0.000198664
-0.000371979
0.000268667
-0.00033647
0.00031815
-0.00026339
0.000346633
-0.00017844
0.000357691
-9.55866e-05
0.000354752
-1.88935e-05
0.00034031
5.1143e-05
0.000315684
0.000114859
0.000281862
0.000171801
0.000240003
0.000221094
0.000191879
0.00026102
0.000139235
0.000290741
8.41733e-05
0.000309501
2.90499e-05
0.000316273
-2.4021e-05
0.000312247
-7.33354e-05
0.00029837
-0.00011712
0.000275653
-0.000154826
0.000246712
-0.000185324
0.000212312
-0.000208679
0.000175086
-0.000225314
0.00013652
-0.000235538
9.78333e-05
-0.000239598
5.98362e-05
-0.000238049
2.36117e-05
-0.000231685
-1.01475e-05
-0.000221123
-4.04567e-05
-0.000207314
-6.71562e-05
-0.000191164
-8.99187e-05
-0.000173376
-0.000109046
-0.000154566
-0.000124766
-0.000135396
-0.00013708
-0.000116143
-0.000146973
-9.69658e-05
-0.000154847
-7.79022e-05
-0.000161141
-5.88502e-05
-0.000166161
-3.97893e-05
-0.000169931
-2.06642e-05
-0.000172416
-1.5732e-06
-0.000173323
1.72841e-05
-0.000172436
3.57531e-05
-0.000169851
5.38217e-05
-0.00016596
7.16047e-05
-0.000161067
8.92595e-05
-0.000155304
0.000106929
-0.000148626
0.000124671
-0.000140777
0.000142417
-0.00013135
0.000159949
-0.00011986
0.000176768
-0.000105525
0.000192355
-8.80338e-05
0.000205879
-6.69403e-05
0.000216573
-4.21294e-05
0.000223435
-1.36361e-05
0.000225848
1.83599e-05
0.000222897
5.31273e-05
0.000214004
8.97755e-05
0.000198792
0.000127312
0.00017679
0.000164974
0.000147786
0.000201375
0.000112163
0.000234828
7.02013e-05
0.00026381
2.26852e-05
0.000286396
-2.856e-05
0.000300651
-8.20146e-05
0.000305319
-0.000135547
0.000299365
-0.000186792
0.000281535
-0.000233666
0.000252888
-0.00027438
0.000214108
-0.000307186
0.000166103
-0.000331048
0.000110787
-0.000345064
4.89135e-05
-0.000347864
-1.92481e-05
-0.000337128
-9.37659e-05
-0.000309374
-0.00017456
-0.000260841
-0.000257847
-0.000191877
-0.00032953
-0.00011213
-0.000363103
-4.01258e-05
-0.000330729
-0.000200203
5.06095e-05
-0.000263634
0.000150419
-0.000442447
0.000259709
-0.000481269
0.000347398
-0.000424158
0.000402122
-0.000318113
0.000428201
-0.000204518
0.000434005
-0.000101391
0.000425221
-1.01093e-05
0.000404719
7.1645e-05
0.000373471
0.000146108
0.000331944
0.000213328
0.000281308
0.000271729
0.000222825
0.000319503
0.0001592
0.000354366
9.29124e-05
0.000375789
2.69442e-05
0.000382242
-3.59224e-05
0.000375114
-9.3547e-05
0.000355995
-0.000144273
0.000326378
-0.000186464
0.000288902
-0.000220269
0.000246117
-0.000245387
0.000200205
-0.000262186
0.000153319
-0.000271298
0.000106945
-0.000273416
6.19533e-05
-0.000269142
1.93367e-05
-0.000259406
-1.98842e-05
-0.000245239
-5.46243e-05
-0.000227586
-8.48095e-05
-0.000207463
-0.000110042
-0.000185995
-0.000130514
-0.000164017
-0.000146744
-0.000142144
-0.000158952
-0.000120789
-0.000168329
-0.000100049
-0.000175587
-7.98153e-05
-0.000181374
-5.99214e-05
-0.000186055
-4.01144e-05
-0.000189737
-2.0278e-05
-0.000192253
-4.74337e-07
-0.000193127
1.89991e-05
-0.000191909
3.79193e-05
-0.000188772
5.6362e-05
-0.000184403
7.45902e-05
-0.000179296
9.29532e-05
-0.000173668
0.000111745
-0.000167419
0.000131134
-0.000160167
0.000151118
-0.000151334
0.00017138
-0.000140123
0.000191579
-0.000125725
0.000210896
-0.000107351
0.000228325
-8.43695e-05
0.000242707
-5.65119e-05
0.000252939
-2.38679e-05
0.000258189
1.31095e-05
0.000257221
5.40953e-05
0.000249251
9.77451e-05
0.000233846
0.000142717
0.000210661
0.000188159
0.000179192
0.000232844
0.000139043
0.000274977
9.06955e-05
0.000312157
3.51928e-05
0.000341898
-2.56906e-05
0.000361535
-8.97966e-05
0.000369425
-0.000154395
0.000363963
-0.000216484
0.000343623
-0.000273601
0.000310005
-0.000322888
0.000263396
-0.000363316
0.000206531
-0.000393495
0.000140965
-0.000413234
6.86532e-05
-0.000421878
-1.06031e-05
-0.000416581
-9.90646e-05
-0.000391744
-0.000199396
-0.000338581
-0.000311009
-0.000252175
-0.000415934
-0.000144245
-0.000471032
-4.72979e-05
-0.000427679
-0.000247501
6.58752e-05
-0.000329508
0.000212578
-0.000589149
0.000364154
-0.000632845
0.000469753
-0.000529755
0.000520549
-0.000368909
0.000533648
-0.000217619
0.00052699
-9.47326e-05
0.000508987
7.89352e-06
0.000480905
9.97271e-05
0.000442147
0.000184867
0.000392041
0.000263433
0.000330678
0.000333092
0.000259845
0.000390336
0.000182588
0.000431624
0.000102344
0.000456033
2.28918e-05
0.000461694
-5.21946e-05
0.0004502
-0.000119836
0.000423636
-0.000178476
0.000385019
-0.000226271
0.000336698
-0.000262869
0.000282716
-0.000288965
0.0002263
-0.000305327
0.000169681
-0.000312866
0.000114482
-0.00031242
6.15082e-05
-0.00030457
1.14865e-05
-0.000290683
-3.37703e-05
-0.000271594
-7.37131e-05
-0.000248938
-0.000107466
-0.000223893
-0.000135087
-0.000197883
-0.000156524
-0.000172102
-0.000172525
-0.000147081
-0.000183973
-0.000123437
-0.000191972
-0.000101156
-0.000197868
-7.99696e-05
-0.00020256
-5.9533e-05
-0.000206491
-3.93508e-05
-0.00020992
-1.91677e-05
-0.000212436
9.68665e-07
-0.000213264
2.06724e-05
-0.000211613
3.95898e-05
-0.000207689
5.78996e-05
-0.000202714
7.61357e-05
-0.000197532
9.48724e-05
-0.000192405
0.000114666
-0.000187212
0.000135715
-0.000181216
0.000158156
-0.000173775
0.00018179
-0.000163757
0.000206084
-0.000150018
0.000230116
-0.000131383
0.000252551
-0.000106804
0.000271824
-7.57853e-05
0.000286463
-3.85063e-05
0.000295348
4.22357e-06
0.000297069
5.23744e-05
0.000291105
0.000103708
0.000276553
0.000157269
0.000252507
0.000212205
0.000218172
0.000267179
0.000172994
0.000320155
0.00011707
0.000368081
5.19299e-05
0.000407038
-2.08117e-05
0.000434277
-9.81413e-05
0.000446755
-0.000176547
0.000442369
-0.00025221
0.000419286
-0.000321303
0.000379099
-0.000381282
0.000323375
-0.000429848
0.000255096
-0.0004672
0.000178316
-0.000494186
9.56406e-05
-0.000511883
7.09406e-06
-0.000519602
-9.13456e-05
-0.000509054
-0.000209942
-0.000461467
-0.000358598
-0.00035799
-0.000519411
-0.00020727
-0.000621753
-6.24087e-05
-0.000572538
-0.00030991
0.000104842
-0.00043435
0.000327176
-0.000811483
0.00052556
-0.000831229
0.000640388
-0.000644583
0.000675114
-0.000403635
0.000663673
-0.000206178
0.000637042
-6.81016e-05
0.000606323
3.86118e-05
0.000570468
0.000135582
0.000524746
0.000230588
0.000465634
0.000322544
0.000392227
0.000406498
0.000306732
0.00047583
0.000212429
0.000525926
0.000114676
0.000553785
1.84643e-05
0.000557905
-7.19392e-05
0.000540604
-0.000152327
0.000504025
-0.000219808
0.000452501
-0.00027341
0.0003903
-0.000313094
0.000322401
-0.000339724
0.000252931
-0.000354905
0.000184864
-0.000360042
0.000119621
-0.000356067
5.75337e-05
-0.00034381
-7.69482e-07
-0.000324508
-5.30725e-05
-0.000299464
-9.87572e-05
-0.000270287
-0.000136642
-0.000239067
-0.000166308
-0.000207475
-0.000188117
-0.000177029
-0.000202971
-0.000148617
-0.000212386
-0.000122437
-0.000218152
-9.86564e-05
-0.000221649
-7.68136e-05
-0.000224403
-5.62692e-05
-0.000227036
-3.64086e-05
-0.000229781
-1.67321e-05
-0.000232113
2.82282e-06
-0.000232819
2.17833e-05
-0.000230574
3.97809e-05
-0.000225687
5.71476e-05
-0.000220081
7.47593e-05
-0.000215144
9.34581e-05
-0.000211104
0.000113904
-0.000207658
0.000136664
-0.000203975
0.000161877
-0.000198988
0.000189355
-0.000191235
0.000218628
-0.000179291
0.00024858
-0.000161334
0.000277341
-0.000135566
0.000302997
-0.000101441
0.000323502
-5.90116e-05
0.000336969
-9.24443e-06
0.000342574
4.67691e-05
0.000339117
0.000107164
0.000325833
0.000170554
0.000301585
0.000236452
0.000264881
0.000303883
0.000214234
0.000370803
0.000149865
0.00043245
7.24459e-05
0.000484457
-1.51979e-05
0.000521921
-0.00010907
0.000540628
-0.000204928
0.000538227
-0.000297522
0.00051188
-0.000381525
0.000463103
-0.000453149
0.000395001
-0.000510351
0.000312297
-0.000553939
0.000221906
-0.000587862
0.000129565
-0.000617796
3.70258e-05
-0.000645933
-6.32057e-05
-0.0006618
-0.000194077
-0.000633083
-0.000387315
-0.000522914
-0.000629579
-0.000325954
-0.000818715
-0.000103218
-0.000795274
-0.000413128
0.00017694
-0.00061129
0.000467648
-0.00110219
0.000683645
-0.00104723
0.000792812
-0.00075375
0.00081551
-0.000426333
0.000789696
-0.000180364
0.000751285
-2.96906e-05
0.000713238
7.66578e-05
0.000674155
0.000174664
0.000625141
0.000279601
0.000559043
0.000388641
0.000473268
0.000492271
0.000369645
0.000579453
0.000253955
0.000641616
0.000133514
0.000674227
1.54488e-05
0.00067597
-9.40593e-05
0.000650112
-0.000190203
0.000600169
-0.000268956
0.000531253
-0.000328931
0.000450276
-0.000370964
0.000364435
-0.000397197
0.000279166
-0.000410156
0.000197823
-0.000411948
0.000121413
-0.000403355
4.89414e-05
-0.000385445
-1.86798e-05
-0.000359265
-7.9253e-05
-0.000326491
-0.000131532
-0.000289255
-0.000173878
-0.000250301
-0.000205262
-0.000211978
-0.00022644
-0.000176058
-0.000238891
-0.000143637
-0.000244807
-0.000114801
-0.000246987
-8.94977e-05
-0.000246952
-6.72329e-05
-0.000246668
-4.74126e-05
-0.000246857
-2.91671e-05
-0.000248026
-1.18057e-05
-0.000249474
5.06273e-06
-0.000249688
2.11588e-05
-0.00024667
3.64071e-05
-0.000240936
5.1506e-05
-0.00023518
6.75501e-05
-0.000231188
8.56758e-05
-0.000229229
0.000106672
-0.000228655
0.000131089
-0.000228392
0.000159283
-0.000227181
0.000191227
-0.000223178
0.000226382
-0.000214447
0.000263462
-0.000198414
0.000300417
-0.000172522
0.000334365
-0.00013539
0.000362305
-8.69523e-05
0.000381966
-2.89061e-05
0.000392492
3.62424e-05
0.000392604
0.000107052
0.000381566
0.000181591
0.000358006
0.000260013
0.000319247
0.000342642
0.000263172
0.000426878
0.000188268
0.000507354
9.57272e-05
0.000576997
-1.06445e-05
0.000628293
-0.000126053
0.000656037
-0.000244518
0.000656691
-0.000358827
0.00062619
-0.000461237
0.000565514
-0.000545438
0.000479202
-0.000609057
0.000375916
-0.000654972
0.000267822
-0.000690601
0.000165193
-0.000726116
7.25405e-05
-0.000765098
-2.42203e-05
-0.000795892
-0.000163271
-0.00078147
-0.000401712
-0.00068104
-0.000730006
-0.00047027
-0.00102949
-0.000178789
-0.00108675
-0.000591917
0.000242006
-0.000853296
0.000514996
-0.00137518
0.000691896
-0.00122413
0.000792111
-0.000853966
0.000837997
-0.000472219
0.000844601
-0.000186969
0.000830335
-1.54248e-05
0.000810043
9.69501e-05
0.000782543
0.000202164
0.000738247
0.000323896
0.000667973
0.000458916
0.000568508
0.000591738
0.000443102
0.000704859
0.000300631
0.000784087
0.000151729
0.000823129
6.05074e-06
0.000821649
-0.00012728
0.000783442
-0.000241986
0.000714875
-0.000333594
0.000622861
-0.000400109
0.000516791
-0.000442912
0.000407236
-0.00046678
0.000303033
-0.000475428
0.00020647
-0.000471833
0.000117819
-0.00045695
3.40579e-05
-0.000431097
-4.45325e-05
-0.00039532
-0.000115029
-0.000351721
-0.000175131
-0.000303893
-0.000221706
-0.000254941
-0.000254213
-0.000208054
-0.000273327
-0.00016538
-0.000281565
-0.000127955
-0.000282233
-9.59489e-05
-0.000278994
-6.91091e-05
-0.000273792
-4.70464e-05
-0.000268731
-2.92766e-05
-0.000264626
-1.48939e-05
-0.000262409
-2.83938e-06
-0.000261529
7.77648e-06
-0.000260304
1.74695e-05
-0.000256363
2.69807e-05
-0.000250447
3.75538e-05
-0.000245753
5.06554e-05
-0.00024429
6.75903e-05
-0.000246164
8.89619e-05
-0.000250026
0.000115298
-0.000254728
0.000146772
-0.000258656
0.000183783
-0.00026019
0.000226382
-0.000257046
0.000273181
-0.000245214
0.000321198
-0.000220539
0.000366435
-0.000180627
0.000405135
-0.000125652
0.000434211
-5.79812e-05
0.000451476
1.89776e-05
0.000456702
0.000101826
0.000450178