/*--------------------------------*- C++ -*----------------------------------*\
| =========                 |                                                 |
| \\      /  F ield         | OpenFOAM: The Open Source CFD Toolbox           |
|  \\    /   O peration     | Version:  2412                                  |
|   \\  /    A nd           | Website:  www.openfoam.com                      |
|    \\/     M anipulation  |                                                 |
\*---------------------------------------------------------------------------*/
FoamFile
{
    version     2.0;
    format      ascii;
    arch        "LSB;label=32;scalar=64";
    class       volScalarField;
    location    "6.5";
    object      p_rgh;
}
// * * * * * * * * * * * * * * * * * * * * * * * * * * * * * * * * * * * * * //

dimensions      [1 -1 -2 0 0 0 0];

internalField   nonuniform List<scalar> 
6400
(
7778.21
7778.37
7778.57
7778.78
7778.99
7779.21
7779.42
7779.63
7779.83
7780.02
7780.17
7780.27
7780.27
7780.14
7779.84
7779.31
7778.5
7777.37
7775.86
7773.93
7771.54
7768.67
7765.3
7761.42
7757.07
7752.26
7747.05
7741.5
7735.7
7729.76
7723.77
7717.86
7712.16
7706.79
7701.9
7697.58
7693.96
7691.13
7689.15
7688.09
7687.97
7688.78
7690.52
7693.13
7696.54
7700.66
7705.38
7710.59
7716.17
7721.97
7727.88
7733.77
7739.53
7745.06
7750.27
7755.08
7759.46
7763.35
7766.74
7769.64
7772.04
7773.98
7775.48
7776.6
7777.37
7777.85
7778.1
7778.17
7778.08
7777.9
7777.65
7777.37
7777.06
7776.76
7776.45
7776.15
7775.87
7775.6
7775.36
7775.18
7778.05
7778.21
7778.42
7778.64
7778.86
7779.09
7779.32
7779.55
7779.78
7780
7780.19
7780.33
7780.38
7780.31
7780.06
7779.59
7778.85
7777.77
7776.3
7774.42
7772.06
7769.2
7765.83
7761.95
7757.56
7752.7
7747.43
7741.8
7735.9
7729.84
7723.73
7717.7
7711.87
7706.38
7701.36
7696.94
7693.23
7690.32
7688.29
7687.2
7687.08
7687.92
7689.7
7692.38
7695.88
7700.1
7704.94
7710.28
7715.98
7721.91
7727.94
7733.95
7739.81
7745.42
7750.7
7755.57
7759.97
7763.88
7767.28
7770.16
7772.54
7774.44
7775.89
7776.96
7777.68
7778.11
7778.29
7778.29
7778.16
7777.93
7777.63
7777.31
7776.98
7776.65
7776.32
7776.01
7775.71
7775.43
7775.18
7774.99
7777.81
7777.98
7778.2
7778.43
7778.67
7778.92
7779.17
7779.43
7779.7
7779.98
7780.24
7780.46
7780.61
7780.64
7780.5
7780.15
7779.51
7778.54
7777.17
7775.36
7773.06
7770.24
7766.88
7762.97
7758.52
7753.56
7748.15
7742.36
7736.26
7729.98
7723.63
7717.33
7711.25
7705.5
7700.24
7695.6
7691.7
7688.64
7686.51
7685.37
7685.24
7686.12
7688
7690.82
7694.5
7698.94
7704.02
7709.61
7715.57
7721.76
7728.04
7734.27
7740.33
7746.11
7751.53
7756.51
7760.98
7764.93
7768.33
7771.18
7773.5
7775.32
7776.69
7777.65
7778.26
7778.58
7778.66
7778.55
7778.32
7778
7777.63
7777.24
7776.86
7776.48
7776.13
7775.79
7775.47
7775.17
7774.9
7774.7
7777.49
7777.68
7777.92
7778.17
7778.43
7778.69
7778.97
7779.28
7779.61
7779.96
7780.33
7780.67
7780.95
7781.14
7781.16
7780.97
7780.51
7779.69
7778.47
7776.79
7774.58
7771.82
7768.46
7764.51
7759.97
7754.87
7749.26
7743.21
7736.81
7730.18
7723.45
7716.77
7710.28
7704.14
7698.5
7693.52
7689.33
7686.04
7683.74
7682.51
7682.37
7683.33
7685.36
7688.4
7692.36
7697.13
7702.58
7708.56
7714.92
7721.51
7728.16
7734.74
7741.12
7747.17
7752.8
7757.93
7762.51
7766.51
7769.9
7772.71
7774.95
7776.66
7777.89
7778.7
7779.14
7779.28
7779.19
7778.93
7778.55
7778.1
7777.62
7777.15
7776.69
7776.27
7775.87
7775.51
7775.16
7774.83
7774.53
7774.32
7777.1
7777.31
7777.57
7777.84
7778.12
7778.4
7778.71
7779.06
7779.47
7779.92
7780.42
7780.92
7781.39
7781.78
7782.03
7782.08
7781.84
7781.25
7780.23
7778.72
7776.65
7773.96
7770.63
7766.64
7761.98
7756.68
7750.79
7744.39
7737.58
7730.48
7723.24
7716.01
7708.96
7702.27
7696.11
7690.65
7686.05
7682.44
7679.92
7678.56
7678.41
7679.47
7681.71
7685.06
7689.41
7694.64
7700.61
7707.13
7714.05
7721.19
7728.37
7735.43
7742.23
7748.64
7754.55
7759.9
7764.62
7768.67
7772.06
7774.8
7776.92
7778.47
7779.5
7780.09
7780.3
7780.21
7779.89
7779.41
7778.84
7778.22
7777.6
7777.01
7776.47
7775.98
7775.54
7775.14
7774.75
7774.39
7774.07
7773.83
7776.61
7776.84
7777.13
7777.43
7777.72
7778.02
7778.35
7778.75
7779.25
7779.83
7780.48
7781.19
7781.9
7782.56
7783.1
7783.45
7783.52
7783.22
7782.48
7781.21
7779.32
7776.75
7773.46
7769.41
7764.61
7759.06
7752.83
7745.98
7738.63
7730.92
7723
7715.05
7707.27
7699.86
7693.01
7686.93
7681.79
7677.75
7674.92
7673.4
7673.24
7674.44
7676.96
7680.71
7685.59
7691.43
7698.07
7705.32
7712.96
7720.81
7728.68
7736.36
7743.71
7750.59
7756.88
7762.49
7767.37
7771.5
7774.87
7777.51
7779.46
7780.79
7781.56
7781.85
7781.76
7781.37
7780.76
7780
7779.17
7778.34
7777.53
7776.79
7776.14
7775.58
7775.09
7774.65
7774.24
7773.84
7773.48
7773.2
7776.01
7776.28
7776.6
7776.91
7777.2
7777.5
7777.85
7778.31
7778.9
7779.63
7780.49
7781.45
7782.46
7783.45
7784.36
7785.09
7785.56
7785.65
7785.26
7784.3
7782.66
7780.26
7777.03
7772.94
7767.97
7762.12
7755.46
7748.05
7740.03
7731.55
7722.77
7713.92
7705.21
7696.88
7689.16
7682.27
7676.44
7671.84
7668.62
7666.9
7666.72
7668.1
7670.97
7675.25
7680.79
7687.42
7694.92
7703.09
7711.67
7720.43
7729.15
7737.62
7745.66
7753.12
7759.86
7765.79
7770.87
7775.07
7778.4
7780.9
7782.63
7783.66
7784.08
7784.01
7783.52
7782.74
7781.75
7780.65
7779.51
7778.4
7777.36
7776.44
7775.67
7775.03
7774.5
7774.03
7773.6
7773.17
7772.75
7772.43
7775.27
7775.6
7775.96
7776.27
7776.53
7776.79
7777.15
7777.66
7778.36
7779.27
7780.38
7781.64
7783.01
7784.42
7785.78
7787
7787.96
7788.54
7788.61
7788.05
7786.74
7784.57
7781.46
7777.33
7772.18
7765.98
7758.81
7750.73
7741.89
7732.46
7722.63
7712.64
7702.77
7693.28
7684.45
7676.56
7669.85
7664.55
7660.83
7658.84
7658.65
7660.25
7663.58
7668.52
7674.91
7682.53
7691.12
7700.43
7710.17
7720.06
7729.86
7739.3
7748.19
7756.35
7763.63
7769.94
7775.23
7779.5
7782.75
7785.04
7786.47
7787.11
7787.1
7786.54
7785.57
7784.3
7782.85
7781.33
7779.8
7778.35
7777.05
7775.92
7774.99
7774.26
7773.7
7773.23
7772.79
7772.34
7771.87
7771.48
7774.37
7774.8
7775.18
7775.45
7775.63
7775.82
7776.15
7776.72
7777.56
7778.69
7780.08
7781.71
7783.52
7785.43
7787.35
7789.15
7790.72
7791.91
7792.57
7792.53
7791.66
7789.81
7786.87
7782.75
7777.41
7770.82
7763.05
7754.18
7744.34
7733.74
7722.62
7711.25
7699.93
7689.01
7678.81
7669.66
7661.85
7655.67
7651.3
7649
7648.79
7650.67
7654.58
7660.35
7667.8
7676.65
7686.6
7697.34
7708.52
7719.81
7730.91
7741.54
7751.44
7760.43
7768.35
7775.09
7780.62
7784.92
7788.04
7790.06
7791.07
7791.22
7790.64
7789.48
7787.9
7786.04
7784.03
7781.98
7780
7778.15
7776.52
7775.13
7774.02
7773.18
7772.6
7772.17
7771.78
7771.33
7770.82
7770.3
7773.28
7773.86
7774.22
7774.32
7774.31
7774.38
7774.7
7775.37
7776.39
7777.78
7779.52
7781.58
7783.91
7786.41
7789
7791.53
7793.86
7795.82
7797.21
7797.85
7797.55
7796.13
7793.44
7789.38
7783.85
7776.84
7768.37
7758.55
7747.54
7735.54
7722.85
7709.78
7696.71
7684.02
7672.12
7661.41
7652.23
7644.91
7639.79
7637.09
7636.86
7639.1
7643.71
7650.53
7659.29
7669.67
7681.31
7693.8
7706.74
7719.75
7732.44
7744.48
7755.61
7765.58
7774.23
7781.45
7787.21
7791.51
7794.42
7796.04
7796.53
7796.03
7794.74
7792.84
7790.51
7787.93
7785.23
7782.56
7780.03
7777.71
7775.68
7773.98
7772.62
7771.62
7770.98
7770.63
7770.4
7770.08
7769.56
7768.88
7772
7772.69
7772.86
7772.55
7772.18
7772.13
7772.56
7773.45
7774.75
7776.47
7778.62
7781.18
7784.1
7787.31
7790.7
7794.11
7797.37
7800.27
7802.58
7804.08
7804.52
7803.68
7801.37
7797.43
7791.74
7784.27
7775.02
7764.11
7751.69
7738.03
7723.44
7708.32
7693.09
7678.24
7664.26
7651.61
7640.77
7631.95
7625.93
7622.73
7622.47
7625.15
7630.66
7638.77
7649.17
7661.45
7675.16
7689.81
7704.91
7719.98
7734.59
7748.33
7760.9
7772.01
7781.5
7789.25
7795.22
7799.46
7802.06
7803.16
7802.95
7801.64
7799.45
7796.62
7793.37
7789.9
7786.39
7782.99
7779.81
7776.94
7774.44
7772.33
7770.62
7769.31
7768.5
7768.2
7768.28
7768.35
7767.99
7767.18
7770.58
7771.16
7770.83
7769.83
7769.01
7768.92
7769.62
7770.9
7772.59
7774.69
7777.29
7780.4
7784
7788.03
7792.35
7796.82
7801.21
7805.28
7808.75
7811.34
7812.74
7812.68
7810.9
7807.19
7801.4
7793.44
7783.31
7771.13
7757.07
7741.42
7724.55
7706.94
7689.09
7671.59
7655.03
7639.99
7627
7616.49
7609.27
7605.44
7605.14
7608.38
7615.01
7624.74
7637.17
7651.8
7668.06
7685.36
7703.09
7720.68
7737.59
7753.36
7767.61
7780.06
7790.48
7798.79
7804.95
7809.03
7811.17
7811.56
7810.45
7808.09
7804.78
7800.79
7796.41
7791.88
7787.4
7783.16
7779.25
7775.77
7772.74
7770.16
7767.95
7766.16
7764.98
7764.66
7765.13
7765.85
7765.95
7765.24
7769.15
7769.27
7768.19
7766.44
7765.23
7765.16
7766.18
7767.85
7769.91
7772.39
7775.44
7779.13
7783.47
7788.42
7793.86
7799.58
7805.35
7810.86
7815.79
7819.75
7822.4
7823.36
7822.32
7818.99
7813.17
7804.72
7793.63
7779.99
7764
7745.99
7726.4
7705.77
7684.72
7663.97
7644.24
7626.27
7610.64
7597.98
7589.28
7584.67
7584.32
7588.25
7596.28
7608.03
7622.99
7640.52
7659.93
7680.46
7701.4
7722.02
7741.7
7759.87
7776.11
7790.08
7801.56
7810.43
7816.72
7820.5
7821.99
7821.43
7819.14
7815.45
7810.73
7805.33
7799.58
7793.79
7788.19
7782.98
7778.27
7774.14
7770.57
7767.47
7764.8
7762.49
7760.86
7760.45
7761.26
7762.63
7763.42
7763.13
7767.9
7767.35
7765.57
7763.32
7761.86
7761.75
7762.84
7764.62
7766.84
7769.53
7772.96
7777.21
7782.34
7788.33
7795.05
7802.27
7809.72
7817.01
7823.74
7829.45
7833.69
7836
7835.97
7833.24
7827.51
7818.61
7806.46
7791.16
7772.92
7752.12
7729.27
7704.99
7680.04
7655.29
7631.65
7610.03
7591.26
7575.82
7565.27
7559.65
7559.23
7564.05
7573.85
7588.12
7606.22
7627.35
7650.65
7675.18
7700.02
7724.31
7747.29
7768.31
7786.86
7802.56
7815.19
7824.63
7830.93
7834.23
7834.81
7832.99
7829.19
7823.82
7817.34
7810.19
7802.78
7795.48
7788.58
7782.28
7776.73
7771.95
7767.91
7764.43
7761.5
7758.84
7757.05
7756.53
7757.56
7759.3
7760.67
7760.99
7767.05
7765.96
7763.76
7761.23
7759.52
7759.1
7759.83
7761.31
7763.37
7766.1
7769.69
7774.42
7780.38
7787.53
7795.72
7804.73
7814.21
7823.69
7832.67
7840.58
7846.85
7850.93
7852.28
7850.43
7844.99
7835.69
7822.41
7805.22
7784.37
7760.28
7733.53
7704.86
7675.14
7645.47
7617
7590.84
7568.11
7549.4
7536.45
7529.44
7528.89
7534.9
7546.98
7564.44
7586.44
7612.03
7640.14
7669.56
7699.16
7727.88
7754.81
7779.18
7800.41
7818.09
7831.96
7841.94
7848.09
7850.65
7849.98
7846.51
7840.76
7833.28
7824.61
7815.3
7805.87
7796.77
7788.36
7780.87
7774.44
7769.07
7764.72
7761.24
7758.18
7755.65
7754.05
7753.66
7754.7
7756.57
7758.22
7759.02
7766.8
7765.48
7763.08
7760.27
7758.09
7757.01
7756.92
7757.66
7759.16
7761.62
7765.3
7770.47
7777.27
7785.71
7795.61
7806.73
7818.68
7830.87
7842.66
7853.32
7862.18
7868.53
7871.74
7871.16
7866.28
7856.69
7842.22
7822.91
7799.03
7771.06
7739.7
7705.74
7670.11
7634.39
7599.88
7567.93
7540.46
7518.02
7501.93
7492.78
7491.97
7499.74
7514.77
7536.18
7563.1
7594.18
7628.29
7663.73
7699.16
7733.23
7764.86
7793.17
7817.5
7837.4
7852.59
7863.01
7868.78
7870.25
7867.89
7862.28
7854.06
7843.91
7832.5
7820.53
7808.64
7797.39
7787.24
7778.46
7771.12
7765.25
7760.68
7757.23
7754.61
7752.7
7751.6
7751.61
7752.83
7754.74
7756.42
7757.42
7767.11
7765.72
7763.2
7760.12
7757.28
7755.16
7753.88
7753.47
7754.06
7755.96
7759.53
7765.07
7772.68
7782.59
7794.4
7808.04
7823
7838.54
7853.8
7867.91
7880
7889.27
7894.9
7896.1
7892.14
7882.46
7866.78
7845.07
7817.68
7785.1
7748.07
7707.57
7664.93
7621.88
7580.09
7541.48
7507.92
7480.97
7460.66
7448.34
7447.11
7457.56
7476.71
7502.29
7535.51
7573.33
7615.08
7657.87
7700.42
7740.96
7778.17
7811.05
7838.93
7861.31
7877.88
7888.59
7893.66
7893.59
7889.01
7880.65
7869.31
7855.83
7841.03
7825.77
7810.87
7797.07
7784.92
7774.75
7766.54
7760.21
7755.6
7752.47
7750.51
7749.48
7749.3
7749.99
7751.48
7753.45
7755.11
7756.13
7767.84
7766.29
7763.65
7760.27
7756.67
7753.33
7750.57
7748.66
7747.95
7748.94
7752.14
7757.97
7766.68
7777.92
7791.7
7808.33
7827.01
7846.71
7866.28
7884.64
7900.75
7913.68
7922.51
7926.15
7923.63
7914.14
7897.21
7872.82
7841.37
7803.47
7759.76
7711.44
7660.05
7607.94
7557.3
7510.77
7471.22
7441.22
7420.07
7409.3
7408.49
7417.44
7436.81
7465.22
7503.35
7549.06
7599.77
7652.01
7703.53
7751.89
7795.66
7833.81
7865.74
7890.92
7908.93
7919.69
7923.59
7921.37
7913.94
7902.06
7886.8
7869.21
7850.2
7830.87
7812.31
7795.43
7781
7769.47
7760.57
7753.86
7749.42
7746.94
7745.96
7746.05
7746.9
7748.36
7750.22
7752.2
7753.8
7754.91
7769.64
7767.4
7764.41
7760.5
7755.9
7751.05
7746.43
7742.54
7740.01
7739.63
7742.13
7748.15
7757.91
7770.92
7786.48
7806.93
7830.39
7855.38
7880.33
7903.97
7924.93
7942.37
7955.26
7962.3
7962.02
7953.17
7935
7907.52
7871.42
7827.61
7776.09
7718.42
7656.09
7592.68
7460.77
7192.88
6815.18
6416.38
6089.48
5899.66
5885.42
6047.04
6352.72
6746.95
7139.35
7429.51
7580.99
7647.09
7709.77
7767.43
7818.77
7862.71
7899.21
7927.62
7947.12
7957.55
7959.55
7954.31
7943.12
7927.03
7907.05
7884.31
7860.04
7835.54
7812.45
7791.71
7774.64
7762.85
7752.91
7745.56
7741.4
7739.95
7740.4
7741.98
7744.09
7746.43
7748.69
7750.65
7752.21
7754.19
7183.46
7100.42
7054.36
6991.34
6913.03
6835.68
6773.21
6719.87
6672.36
6646.63
6655.03
6714.84
6843.7
7035.27
7269.44
7493.6
7668.87
7817.23
7896.65
7926.31
7952.98
7975.93
7994.01
8005.72
8008.92
8001.46
7982.2
7951.3
7910.39
7828.77
7409.39
6772.78
5764.56
4518.12
3180.97
2192.12
1498.54
1036.4
754.087
613.592
601.515
716.864
967.095
1387.53
2035.18
2978.25
4309.07
5645.55
6710.18
7366.43
7786.58
7900.63
7941.36
7973.39
7994.38
8003.78
8002.71
7993.32
7977.51
7956.33
7930.5
7901.33
7851.49
7703.77
7539.25
7340.94
7119.3
6932.43
6795.13
6714.04
6686.84
6694.97
6717.41
6739.67
6769.91
6818.32
6868.14
6899.14
6919.8
7013.36
1724.22
1681
1636.17
1575.46
1486
1376.64
1261.31
1147.8
1047.86
979.953
952.291
968.738
1027.94
1153.22
1378.15
1757.93
2288.13
2928.15
3667.04
4387.12
5033.2
5598.08
6070.35
6420.52
6596.17
6553.18
6251.63
5620.44
4627.53
3339.65
2150.12
1133.02
433.133
52.8554
2.24043
2.00456
1.99073
2.10864
2.20538
2.25505
2.31224
2.31363
2.19457
2.10197
2.06058
2.14452
26.4807
350.64
984.173
1983.64
3153.36
4432.25
5475.39
6158.17
6499.86
6563.63
6403.56
6078.81
5657.38
5137.97
4510.88
3792.18
3030.24
2408.37
1892.72
1488.26
1227.66
1085.62
1015.23
989.341
1005.3
1055.38
1130.2
1214.04
1291.27
1351.34
1393.93
1418.73
1444.42
1477.4
1.06672
1.15282
1.13048
1.1349
1.1517
1.16934
1.19158
1.22597
1.25639
1.2671
1.28113
1.32062
1.34831
1.31942
1.26229
2.41791
3.34934
5.33929
27.242
93.1799
208.067
386.628
587.359
784.352
912.365
890.075
705.192
417.889
166.38
21.8675
2.44345
2.63187
2.63033
2.44156
2.04634
1.89868
1.87839
1.89086
1.9336
2.02559
2.10411
2.1464
2.03409
1.96082
1.8873
1.84572
1.80076
1.63707
1.51531
1.32863
9.87848
126.054
351.105
637.147
847.08
894.644
794.476
618.481
427.221
252.26
113.335
26.7138
2.26755
1.49646
1.30181
1.205
1.18529
1.16596
1.12723
1.08149
1.04941
0.996896
0.931114
0.87873
0.870299
0.885212
0.883358
0.854801
0.825051
0.692054
1.78715
1.60088
1.49438
1.3373
1.24815
1.20194
1.19943
1.47921
1.81945
1.24926
1.21334
1.22108
2.32068
3.12912
3.33048
3.01081
2.38387
3.38213
7.7867
11.4395
8.1626
2.55119
3.04348
3.08618
2.11123
1.30023
1.97318
1.65151
1.52841
1.2649
4.39808
8.30893
9.89153
10.7065
6.23897
3.0779
2.22136
1.78502
1.85292
1.96062
2.09696
2.24126
1.96677
1.87033
1.7625
1.74322
2.46344
3.86889
3.66447
3.45878
1.97315
1.53112
1.59862
1.72947
2.01486
1.54972
1.01871
0.686716
0.774824
0.801754
0.851566
0.888009
0.911794
0.981554
1.04167
1.06054
1.09459
1.09665
1.07634
1.08702
1.49671
1.60433
1.26103
0.938981
1.02626
1.47834
1.49909
0.9759
0.839879
0.881227
2.44818
2.46255
2.45492
2.47072
2.48245
2.42766
1.33422
1.76748
2.75375
2.78996
1.24607
1.32783
3.04811
3.11616
3.05404
1.74767
1.80414
2.17263
8.77123
11.9997
3.49814
2.3234
3.20963
3.36816
2.75152
1.15676
2.54947
3.21922
2.4837
1.12026
0.91851
0.737564
4.11517
9.43057
8.98925
3.77173
1.74401
1.68055
1.75508
1.86318
1.99663
2.15325
1.87967
1.75207
1.67498
1.60301
3.76053
5.97752
5.80258
5.5001
1.74958
1.42489
2.36764
3.50727
3.56904
2.04066
1.05844
0.533959
0.599371
0.639672
0.666545
0.710849
0.809223
0.918937
1.01699
1.0619
1.07813
1.07994
1.05085
1.03004
2.02527
1.97508
1.86755
1.55624
2.7557
3.45355
3.44144
2.85109
1.27715
1.36783
1.29669
0.745324
0.780203
0.922225
1.18626
1.96353
2.23243
2.65927
2.76167
2.80375
1.66968
1.23067
1.70669
3.11318
2.30753
1.36546
1.3565
1.87046
6.95826
2.53509
1.30284
1.40322
1.38945
1.29717
1.15789
1.00629
0.998809
2.66242
2.70039
2.66049
1.31831
0.541078
0.607734
0.773576
3.22681
4.61839
4.76503
4.04202
1.73923
1.67282
1.7852
1.99457
1.77018
1.64031
1.63787
1.5355
1.80869
5.53943
5.76923
5.64894
3.12258
1.0813
2.42492
3.25058
3.24263
2.14264
1.01378
0.575154
0.629361
0.658896
0.67442
0.691089
0.760523
1.38362
2.1728
2.27733
1.76629
1.12619
1.02717
0.967985
0.921193
0.848484
1.15547
2.64645
3.41996
3.3957
3.39576
3.39885
2.83405
1.46835
0.707309
0.694305
0.669292
0.642389
0.622208
0.629823
1.03251
1.13653
1.55877
2.42559
2.03898
1.15484
1.38872
2.36649
0.979215
0.976548
3.19997
5.12468
4.50193
1.60251
1.11309
1.22699
1.24564
1.18189
1.06324
0.919212
0.817598
0.745227
0.949554
1.07567
0.649383
0.371038
0.463152
0.608841
1.92425
4.48376
4.62369
4.55825
1.63962
1.42141
1.52855
1.7781
1.61266
1.63104
3.57887
2.99459
1.52148
2.04479
5.52076
5.54072
4.24323
0.637057
0.594762
0.563287
0.553929
0.756188
0.731942
0.667471
0.708681
0.720417
0.711227
0.690564
0.981158
2.75432
2.86177
2.96426
3.02933
2.48423
1.07053
0.895893
0.814114
0.746394
0.670113
0.753472
2.20711
3.26311
3.32917
3.33609
3.25664
1.42274
0.732357
0.698807
0.590527
0.516036
0.526995
0.557975
0.482085
0.525537
0.603801
0.771206
1.35072
1.00931
1.10582
0.991706
0.740974
0.903227
4.86691
5.13333
5.39337
1.53753
0.923211
1.03136
1.16541
1.37195
1.65848
1.51937
0.861974
0.837761
1.20229
1.03608
0.238261
0.15367
0.274043
0.42694
0.788156
4.14014
4.51561
3.77427
1.20009
1.15308
1.26372
1.42215
1.86991
1.80065
3.5145
3.40804
2.06164
0.848551
1.82081
2.79513
1.00847
0.598535
0.586461
0.600325
0.63087
0.716211
0.882531
0.865076
0.807245
0.800242
0.776994
0.737055
0.870702
1.68167
2.62748
2.91835
2.98287
2.97005
2.65234
0.965226
0.711622
0.641695
0.571098
0.489945
0.432926
0.397971
1.02858
1.83135
2.68299
1.44341
2.32235
1.19587
0.588491
0.559096
0.429808
0.348033
0.382395
0.403585
0.460472
0.574056
0.678161
0.813204
0.826468
0.775519
0.601052
1.11564
5.18553
5.25053
4.79635
0.804735
0.785781
1.08752
1.64401
1.57655
1.46208
1.33005
1.20097
1.08334
0.999218
0.972144
1.01575
0.69396
0.0374787
0.202426
0.600682
3.9447
4.36498
3.07555
0.85234
0.913409
1.01892
1.06412
1.62208
2.10461
3.40363
3.30914
2.08824
0.732892
0.648122
0.605805
0.602274
0.59535
0.602389
0.632887
0.67598
0.749214
1.55534
1.72864
1.77214
1.1457
0.856392
0.827338
0.809426
0.758874
0.73163
1.0191
2.55269
2.8581
2.5695
0.896024
0.580104
0.517503
0.469106
0.423232
0.381391
0.356944
0.360962
0.385548
0.485986
1.86818
2.64356
1.15262
0.26205
0.238546
0.223255
0.227242
1.59551
0.978893
0.381129
0.49916
0.836872
1.90487
0.955271
0.859374
0.794172
0.656206
4.4257
5.44262
0.996222
0.299159
0.593329
1.44053
1.45374
1.38207
1.27493
1.14596
1.01517
0.893891
0.802541
0.767384
0.578545
-0.158968
-0.225304
0.000948595
0.498379
3.81672
4.17702
2.42293
0.59158
0.712829
0.81374
0.856644
1.02992
1.65314
3.30219
3.25456
1.51453
0.691375
0.664792
0.638405
0.634566
0.63928
0.657354
0.677513
0.736517
0.770485
0.811891
0.877078
0.899022
0.915412
0.916639
0.896519
0.849756
0.785529
0.725378
0.697001
0.692434
0.707882
0.775195
0.676306
0.428098
0.374611
0.355908
0.348658
0.349842
0.363165
0.390186
0.424177
0.47836
2.0928
2.62387
0.695143
0.182945
0.168867
0.160848
0.172247
1.62955
3.21002
0.403053
0.451447
2.84349
3.12167
2.19772
0.899651
0.734951
2.36092
5.11133
5.5663
0.676181
0.140181
0.70049
1.34013
1.31849
1.24028
1.13665
1.00771
0.623009
0.112614
-0.464441
-0.716631
-0.678459
-0.563946
-0.372151
-0.153122
1.46614
3.66114
3.99356
1.25995
0.424744
0.562025
0.66081
0.702443
0.701562
0.745149
2.60691
3.17125
2.82988
0.678399
0.667223
0.665859
0.684638
0.712082
0.739135
0.91172
0.922518
0.817026
0.827179
0.888123
0.908925
0.937866
0.937065
0.921993
0.880188
0.804863
0.839613
1.02043
1.3394
1.04632
0.448071
0.236627
0.210198
0.204959
0.22075
0.253354
0.294873
0.341704
0.390995
0.43601
0.465433
2.12686
2.63779
0.778097
0.153173
0.129316
0.112849
0.140894
2.10966
3.23153
2.71482
1.06313
3.21895
3.21549
1.86148
0.977618
0.886929
3.33053
5.13929
1.58309
-0.00891446
0.055948
1.18765
1.23724
1.23059
1.1575
0.628307
-0.219749
-0.554711
-0.648329
-0.716652
-0.740566
-0.702689
-0.588245
-0.425632
0.378649
3.15791
3.30955
1.67825
0.383184
0.339101
0.468158
0.562801
0.604673
0.604234
0.577216
0.638747
1.99989
2.81176
2.44716
1.04797
0.650347
0.683998
0.788456
1.84982
1.50252
0.86823
0.902269
1.41167
1.53863
1.41627
1.03904
0.932497
0.978553
1.64871
2.78917
4.45768
5.28353
5.112
5.02413
3.13725
0.126359
-0.0423947
-0.0106068
0.0518786
0.131522
0.215308
0.295873
0.368692
0.430111
0.470984
2.04753
2.69083
1.48953
0.152538
0.116704
0.0948643
0.564106
3.31619
3.26798
3.32015
3.40088
3.30967
2.40454
1.09674
1.11715
2.23574
5.00513
4.88194
0.535931
0.00426923
0.0605138
0.586612
0.893646
0.455312
-0.0381273
-0.347269
-0.436851
-0.532858
-0.623276
-0.683914
-0.691854
-0.638911
-0.26233
1.30188
1.80458
1.90346
0.827348
0.000263219
0.138306
0.30046
0.422742
0.507947
0.54868
0.551904
0.532248
0.494595
0.50873
0.824701
1.87759
2.00347
1.45788
0.62707
1.85422
2.40468
0.938767
0.839168
1.4573
1.57358
1.59745
1.62533
1.70107
2.31984
3.35574
5.84178
5.64086
5.31588
4.91025
4.63348
4.49356
4.51602
4.64679
2.83381
-0.288664
-0.170155
-0.0298403
0.107603
0.229253
0.329226
0.407764
0.461508
2.08399
2.78198
1.34515
0.185926
0.138254
0.118162
1.96043
3.36596
3.32914
3.39009
3.47467
1.63198
1.30427
1.31428
2.47604
4.97287
4.9308
0.485994
0.10584
0.0782313
0.0784534
0.0463948
-0.0758587
-0.146609
-0.21882
-0.295423
-0.381243
-0.47683
-0.567797
-0.624444
-0.608854
0.00322435
1.47183
1.60582
0.953027
-0.154219
-0.167273
-0.0211431
0.144078
0.296391
0.407224
0.477583
0.513363
0.520028
0.508478
0.483923
0.46916
0.472976
0.520043
1.15776
1.39863
2.20448
2.37124
2.40096
1.08958
0.830979
1.52193
1.55369
1.24935
1.60306
3.32669
4.22599
5.32816
5.48429
5.36772
4.97121
4.52588
4.15428
3.94368
3.9206
4.07539
4.35956
3.18835
-0.332651
-0.223658
-0.0315361
0.141189
0.27472
0.372042
0.497704
2.11048
2.80731
0.412441
0.254234
0.196156
0.187139
2.33863
3.47027
3.43847
3.17314
1.50792
1.5951
1.5829
3.92753
4.87194
4.90973
1.36804
0.231002
0.175165
0.135442
0.0915902
0.0337498
-0.0314073
-0.0963403
-0.160543
-0.227836
-0.304299
-0.390006
-0.473558
-0.533386
-0.431353
-0.0202804
0.143652
-0.0229005
-0.326817
-0.228441
-0.0905764
0.0597287
0.204456
0.323315
0.404738
0.457799
0.485032
0.509171
0.485804
0.474558
0.466502
0.470266
0.48326
0.503266
0.557682
0.723778
2.36008
2.37962
2.43695
1.07091
1.51878
1.03348
1.19328
2.76524
2.76431
0.712764
0.679273
3.25908
4.72438
4.95841
4.25338
3.79703
3.51755
3.42758
3.58702
3.91017
4.34173
2.03007
-0.422555
-0.195583
0.0334124
0.207219
0.326506
0.523757
1.58796
2.45773
0.391536
0.343502
0.278331
0.226899
1.151
3.10877
3.29662
2.50644
2.59388
4.10015
4.62648
4.74718
4.76011
1.17419
0.312698
0.252735
0.206218
0.164044
0.117306
0.063247
0.00627893
-0.0498968
-0.104145
-0.158889
-0.217338
-0.279729
-0.339929
-0.385723
-0.408747
-0.407714
-0.377857
-0.309804
-0.207981
-0.0893683
0.0355491
0.157954
0.265873
0.349849
0.407115
0.44525
0.525503
0.574276
0.556682
0.470977
0.454274
0.468645
0.489973
0.503242
0.548248
0.564214
0.548744
1.88918
2.45685
2.15683
1.46514
0.972961
1.58152
2.73993
1.31295
0.628712
0.430477
0.0924043
0.325189
3.76048
4.14508
3.62142
2.42728
1.62802
2.84699
3.58613
4.09689
4.56997
0.205033
-0.37018
-0.0870765
0.1299
0.273143
0.527459
0.913825
2.66072
0.479487
0.430811
0.364322
0.295086
0.281458
0.368479
0.87861
3.50889
4.40986
4.54368
4.60338
4.52008
0.9369
0.322299
0.280601
0.241755
0.20693
0.170368
0.12747
0.0818698
0.0343865
-0.0118421
-0.0553253
-0.0962271
-0.135332
-0.172655
-0.204819
-0.225959
-0.23112
-0.21637
-0.177791
-0.118669
-0.0367248
0.0564702
0.151014
0.239878
0.31453
0.377257
0.452374
0.529919
0.549325
0.54672
0.53927
0.481927
0.423302
0.439383
1.50637
4.00171
4.03659
2.06231
0.647273
0.78442
2.23519
2.22521
1.22236
0.977488
2.53484
2.64476
0.666483
0.541487
0.32011
-0.0201537
-0.456892
-0.498345
4.186
3.64887
1.72481
1.58065
1.63749
3.22103
3.98577
4.48917
1.26529
-0.527855
-0.208004
0.0476984
0.210375
0.437675
3.0495
3.6192
0.542099
0.494702
0.427903
0.348091
0.251572
0.169858
0.2908
3.26692
4.37942
4.50043
3.77289
0.370454
0.258539
0.258503
0.239804
0.216746
0.192497
0.163236
0.129229
0.092501
0.0548948
0.0186027
-0.0147197
-0.0440143
-0.0687032
-0.0878538
-0.099176
-0.0995347
-0.0875385
-0.0617137
-0.0204994
0.0301178
0.0918631
0.173178
0.276275
0.352084
0.422199
0.484549
0.517654
0.525577
0.523747
0.516462
0.507113
0.418748
0.36586
1.38467
4.16551
4.17896
4.18613
4.21901
4.03708
1.15523
0.918716
1.09201
1.02705
1.1772
2.44983
1.19385
0.587785
0.443726
0.218394
-0.102064
-0.511117
-0.647838
3.93471
3.7779
3.37324
1.71981
1.73684
1.94051
4.02961
4.49562
5.01217
-0.307488
-0.310122
-0.0295066
0.141295
0.432023
4.66087
4.56954
1.02299
0.523244
0.458777
0.378239
0.257373
0.13529
0.0962871
2.91824
4.41313
3.13301
0.0916613
0.150878
0.188779
0.210481
0.205481
0.189421
0.17373
0.152223
0.126617
0.0986834
0.0701176
0.0426137
0.0177737
-0.00292888
-0.0183453
-0.0268724
-0.0246938
-0.00364661
0.0342374
0.0515249
0.0749058
0.119315
0.170839
0.277825
0.381265
0.430191
0.467713
0.490479
0.499447
0.498306
0.490922
0.480377
0.451068
0.337037
0.29063
3.07161
4.07149
4.09793
2.60389
3.72812
4.02091
3.30287
0.816145
0.743254
0.875905
1.07506
1.7876
0.604593
0.480562
0.332341
0.114061
-0.173979
-0.574949
-0.992724
-0.660343
4.04091
3.77514
3.69532
3.01156
3.90191
4.2099
4.6143
5.10803
0.108016
-0.360477
-0.0841412
0.0830374
0.625836
4.70625
4.78105
1.78463
0.721754
3.2115
2.47768
0.254075
0.143984
1.36874
4.05755
2.80852
0.170409
0.0576449
0.101803
0.138255
0.161612
0.168204
0.165929
0.156553
0.141723
0.123298
0.10274
0.0814562
0.0609014
0.0425797
0.0280672
0.0186874
0.0158033
0.0388129
0.139725
0.187499
0.216459
0.250391
0.229256
0.219053
0.261813
0.307186
0.342626
0.367239
0.381638
0.376951
0.375648
0.38402
0.372817
0.313826
0.277961
0.226974
0.817745
3.55357
2.52946
0.313154
0.251993
3.17581
3.50285
1.50529
0.585923
0.539267
0.913284
1.15076
0.471468
0.37373
0.642061
0.073816
-0.281127
-0.605079
-0.988625
-1.19331
2.89875
4.25905
4.13529
4.13729
4.26582
4.50764
4.84916
5.27775
-0.224081
-0.369498
-0.0960561
0.0680551
0.654517
4.77038
4.8603
3.29027
0.742909
4.02477
4.94792
3.54451
3.28649
4.84931
4.30356
0.878279
-0.0196448
0.0736506
0.079441
0.107257
0.134751
0.146333
0.147859
0.14299
0.133392
0.120534
0.105587
0.0897476
0.0743423
0.0608049
0.0506515
0.0451869
0.0457829
0.125442
0.200573
0.221931
0.248422
0.278702
0.203264
0.218278
0.249673
0.27788
0.297619
0.306265
0.303737
0.295142
0.282604
0.270881
0.257157
0.240743
0.221074
0.186225
0.125898
0.38695
0.198547
0.202313
0.253447
1.03765
3.53998
1.50346
0.567588
0.415021
0.622815
0.829211
0.334082
0.821202
0.876593
0.653192
-0.386734
-0.636896
-0.91956
-1.20174
-1.28627
3.58122
4.60765
4.59741
4.69242
4.90015
5.17349
4.86318
-0.668609
-0.297724
-0.0520795
0.108207
0.225865
4.87361
4.87196
4.8083
0.798174
1.77578
4.9656
4.96184
4.95298
4.90279
4.13321
0.269218
-0.0318592
0.013752
0.054723
0.0933972
0.119431
0.131665
0.135123
0.13326
0.127341
0.118409
0.107431
0.0955208
0.083873
0.0737794
0.0665761
0.0634416
0.0660084
0.161642
0.222849
0.242621
0.266697
0.247979
0.19118
0.219258
0.244369
0.262244
0.271035
0.268348
0.254489
0.271583
0.269323
0.249622
0.235084
0.176384
0.163167
0.151036
0.136872
0.141798
0.196971
0.255343
0.279492
0.303853
1.31144
1.37164
0.740538
0.289135
0.224684
0.147196
0.495085
0.864828
0.718975
0.57684
0.141255
-0.664623
-0.822259
-1.01441
-1.12724
-1.09127
3.68639
5.17306
5.24609
5.39386
1.87431
0.0505683
-0.469268
-0.165223
0.0345744
0.169832
2.87348
4.97735
4.84844
4.85194
4.62723
1.80407
3.65806
5.04802
5.00478
4.98578
2.68984
0.124565
-0.015409
0.0217461
0.0576312
0.0897446
0.111545
0.122562
0.126785
0.126763
0.12298
0.116662
0.108401
0.0992775
0.0903418
0.082672
0.0773596
0.0754052
0.0775446
0.13932
0.235182
0.252638
0.216419
0.160977
0.188555
0.207301
0.221015
0.226095
0.222713
0.206778
0.178674
0.146326
0.150539
0.152459
0.142726
0.0981151
0.0975123
0.106652
0.128984
0.164475
0.241629
1.46002
0.906691
0.344214
0.301653
0.732872
0.626356
0.185307
0.0953179
-0.0523208
0.325007
0.699595
0.564788
0.463504
0.392048
-0.253975
-0.744204
-0.793879
-0.853009
-0.515615
-0.085078
-0.175051
-0.384398
-0.21786
-0.658618
-0.478805
-0.198807
-0.000370523
0.137938
2.02593
4.11146
1.73282
2.44868
4.26894
4.36107
4.23017
1.64581
1.62007
2.0464
1.42516
0.782251
0.554109
0.0286514
0.039094
0.0667675
0.0914724
0.108303
0.117439
0.121612
0.122281
0.119878
0.115086
0.108667
0.101501
0.094461
0.0884181
0.0842254
0.0827724
0.0847039
0.102409
0.156041
0.174254
0.132965
0.15334
0.170565
0.179408
0.178973
0.17074
0.157147
0.127199
0.0843612
0.0343341
0.00309923
-0.0234472
-0.00911369
0.00427656
0.0203231
0.052548
0.102557
0.160141
0.999619
3.23303
1.8992
0.292815
0.248981
0.242626
0.199674
0.12054
-0.00106805
-0.179972
0.148607
0.572501
0.445562
0.374161
0.361207
0.398356
-0.609026
-0.617012
-0.611821
0.0672415
0.916356
1.01035
-0.23428
-0.21417
-0.128063
-0.0278455
0.0720202
0.524723
2.59401
3.31745
3.31581
0.919066
0.0881948
0.772208
0.573332
1.46123
1.33685
0.517324
0.0235892
0.0351867
-0.00232571
0.0168586
0.056801
0.0592036
0.0776358
0.0954008
0.107624
0.114801
0.118415
0.119139
0.117315
0.113491
0.108334
0.102521
0.0967507
0.0917204
0.0880895
0.0874995
0.0900219
0.0909212
0.0977057
0.109159
0.123889
0.137179
0.142871
0.137222
0.120161
0.100738
0.0790405
0.116652
1.63205
1.65388
0.307076
1.29856
4.26124
0.514852
-0.0815488
-0.0145662
0.0638343
0.138037
2.98127
3.28418
1.88994
0.233054
0.222441
0.215224
0.172312
0.241516
0.361424
-0.251761
-0.0863479
0.510763
0.392116
0.342186
0.365731
0.459042
0.397371
-0.493603
-0.396297
-0.296306