/*--------------------------------*- C++ -*----------------------------------*\
| =========                 |                                                 |
| \\      /  F ield         | OpenFOAM: The Open Source CFD Toolbox           |
|  \\    /   O peration     | Version:  2412                                  |
|   \\  /    A nd           | Website:  www.openfoam.com                      |
|    \\/     M anipulation  |                                                 |
\*---------------------------------------------------------------------------*/
FoamFile
{
    version     2.0;
    format      ascii;
    arch        "LSB;label=32;scalar=64";
    class       volScalarField;
    location    "0.35";
    object      alpha.glycerin;
}
// * * * * * * * * * * * * * * * * * * * * * * * * * * * * * * * * * * * * * //

dimensions      [0 0 0 0 0 0 0];

internalField   nonuniform List<scalar> 
6400
(
1
1
1
1
1
1
1
1
1
1
1
1
1
1
1
1
1
1
1
1
1
1
1
1
1
1
1
1
1
1
1
1
1
1
1
1
1
1
1
1
1
1
1
1
1
1
1
1
1
1
1
1
1
1
1
1
1
1
1
1
1
1
1
1
1
1
1
1
1
1
1
1
1
1
1
1
1
1
1
1
1
1
1
1
1
1
1
1
1
1
1
1
1
1
1
1
1
1
1
1
1
1
1
1
1
1
1
1
1
1
1
1
1
1
1
1
1
1
1
1
1
1
1
1
1
1
1
1
1
1
1
1
1
1
1
1
1
1
1
1
1
1
1
1
1
1
1
1
1
1
1
1
1
1
1
1
1
1
1
1
1
1
1
1
1
1
1
1
1
1
1
1
1
1
1
1
1
1
1
1
1
1
1
1
1
1
1
1
1
1
1
1
1
1
1
1
1
1
1
1
1
1
1
1
1
1
1
1
1
1
1
1
1
1
1
1
1
1
1
1
1
1
1
1
1
1
1
1
1
1
1
1
1
1
1
1
1
1
1
1
1
1
1
1
1
1
1
1
1
1
1
1
1
1
1
1
1
1
1
1
1
1
1
1
1
1
1
1
1
1
1
1
1
1
1
1
1
1
1
1
1
1
1
1
1
1
1
1
1
1
1
1
1
1
1
1
1
1
1
1
1
1
1
1
1
1
1
1
1
1
1
1
1
1
1
1
1
1
1
1
1
1
1
1
1
1
1
1
1
1
1
1
1
1
1
1
1
1
1
1
1
1
1
1
1
1
1
1
1
1
1
1
1
1
1
1
1
1
1
1
1
1
1
1
1
1
1
1
1
1
1
1
1
1
1
1
1
1
1
1
1
1
1
1
1
1
1
1
1
1
1
1
1
1
1
1
1
1
1
1
1
1
1
1
1
1
1
1
1
1
1
1
1
1
1
1
1
1
1
1
1
1
1
1
1
1
1
1
1
1
1
1
1
1
1
1
1
1
1
1
1
1
1
1
1
1
1
1
1
1
1
1
1
1
1
1
1
1
1
1
1
1
1
1
1
1
1
1
1
1
1
1
1
1
1
1
1
1
1
1
1
1
1
1
1
1
1
1
1
1
1
1
1
1
1
1
1
1
1
1
1
1
1
1
1
1
1
1
1
1
1
1
1
1
1
1
1
1
1
1
1
1
1
1
1
1
1
1
1
1
1
1
1
1
1
1
1
1
1
1
1
1
1
1
1
1
1
1
1
1
1
1
1
1
1
1
1
1
1
1
1
1
1
1
1
1
1
1
1
1
1
1
1
1
1
1
1
1
1
1
1
1
1
1
1
1
1
1
1
1
1
1
1
1
1
1
1
1
1
1
1
1
1
1
1
1
1
1
1
1
1
1
1
1
1
1
1
1
1
1
1
1
1
1
1
1
1
1
1
1
1
1
1
1
1
1
1
1
1
1
1
1
1
1
1
1
1
1
1
1
1
1
1
1
1
1
1
1
1
1
1
1
1
1
1
1
1
1
1
1
1
1
1
1
1
1
1
1
1
1
1
1
1
1
1
1
1
1
1
1
1
1
1
1
1
1
1
1
1
1
1
1
1
1
1
1
1
1
1
1
1
1
1
1
1
1
1
1
1
1
1
1
1
1
1
1
1
1
1
1
1
1
1
1
1
1
1
1
1
1
1
1
1
1
1
1
1
1
1
1
1
1
1
1
1
1
1
1
1
1
1
1
1
1
1
1
1
1
1
1
1
1
1
1
1
1
1
1
1
1
1
1
1
1
1
1
1
1
1
1
1
1
1
1
1
1
1
1
1
1
1
1
1
1
1
1
1
1
1
1
1
1
1
1
1
1
1
1
1
1
1
1
1
1
1
1
1
1
1
1
1
1
1
1
1
1
1
1
1
1
1
1
1
1
1
1
1
1
1
1
1
1
1
1
1
1
1
1
1
1
1
1
1
1
1
1
1
1
1
1
1
1
1
1
1
1
1
1
1
1
1
1
1
1
1
1
1
1
1
1
1
1
1
1
1
1
1
1
1
1
1
1
1
1
1
1
1
1
1
1
1
1
1
1
1
1
1
1
1
1
1
1
1
1
1
1
1
1
1
1
1
1
1
1
1
1
1
1
1
1
1
1
1
1
1
1
1
1
1
1
1
1
1
1
1
1
1
1
1
1
1
1
1
1
1
1
1
1
1
1
1
1
1
1
1
1
1
1
1
1
1
1
1
1
1
1
1
1
1
1
1
1
1
1
1
1
1
1
1
1
1
1
1
1
1
1
1
1
1
1
1
1
1
1
1
1
1
1
1
1
1
1
1
1
1
1
1
1
1
1
1
1
1
1
1
1
1
1
1
1
1
1
1
1
1
1
1
1
1
1
1
1
1
1
1
1
1
1
1
1
1
1
1
1
1
1
1
1
1
1
1
1
1
1
1
1
1
1
1
1
1
1
1
1
1
1
1
1
1
1
1
1
1
1
1
1
1
1
1
1
1
1
1
1
1
1
1
1
1
1
1
1
1
1
1
1
1
1
1
1
1
1
1
1
1
1
1
1
1
1
1
1
1
1
1
1
1
1
1
1
1
1
1
1
1
1
1
1
1
1
1
1
1
1
1
1
1
1
1
1
1
1
1
1
1
1
1
1
1
1
1
1
1
1
1
1
1
1
1
1
1
1
1
1
1
1
1
1
1
1
1
1
1
1
1
1
1
1
1
1
1
1
1
1
1
1
1
1
1
1
1
1
1
1
1
1
1
1
1
1
1
1
1
1
1
1
1
1
1
1
1
1
1
1
1
1
1
1
1
1
1
1
1
1
1
1
1
1
1
1
1
1
1
1
1
1
1
1
1
1
1
1
1
1
1
1
1
1
1
1
1
1
1
1
1
1
1
1
1
1
1
1
1
1
1
1
1
1
1
1
1
1
1
1
1
1
1
1
1
1
1
1
1
1
1
1
1
1
1
1
1
1
1
1
1
1
1
1
1
1
1
1
1
1
1
1
1
1
1
1
1
1
1
1
1
1
1
1
1
1
1
1
1
1
1
1
1
1
1
1
1
1
1
1
1
1
1
1
1
1
1
1
1
1
1
1
1
1
1
1
1
1
1
1
1
1
1
1
1
1
1
1
1
1
1
1
1
1
1
1
1
1
1
1
1
1
1
1
1
1
1
1
1
1
1
1
1
1
1
1
1
1
1
1
1
1
1
1
1
1
1
1
1
1
1
1
1
1
1
1
1
1
1
1
1
1
1
1
1
1
1
1
1
1
1
1
1
1
1
1
1
1
1
1
1
1
1
1
1
1
1
1
1
1
1
1
1
1
1
1
1
1
1
1
1
1
1
1
1
1
1
1
1
1
1
1
1
1
1
1
1
1
1
1
1
1
1
1
1
1
1
1
1
1
1
1
1
1
1
1
1
1
1
1
1
1
1
1
1
1
1
1
1
1
1
1
1
1
1
1
1
1
1
1
1
1
1
1
1
1
1
1
1
1
0.999999
0.999999
0.999999
0.999999
0.999999
0.999999
0.999999
0.999999
0.999999
0.999998
0.999998
0.999998
0.999998
0.999998
0.999998
0.999998
0.999998
0.999998
0.999998
0.999998
0.999998
0.999998
0.999998
0.999998
0.999999
0.999999
0.999999
0.999999
0.999999
0.999999
0.999999
0.999999
0.999999
1
1
1
1
1
1
1
1
1
1
1
1
1
1
1
1
1
1
1
1
1
1
1
7.26572e-07
1.03933e-06
1.25053e-06
1.405e-06
1.50133e-06
1.54555e-06
1.5453e-06
1.5129e-06
1.4583e-06
1.3878e-06
1.3056e-06
1.21423e-06
1.11543e-06
1.00977e-06
8.97976e-07
7.79162e-07
6.53405e-07
5.20376e-07
3.8031e-07
2.33796e-07
8.22084e-08
6.86176e-120
6.86176e-120
1.13719e-116
9.4493e-114
5.9498e-111
3.05144e-108
1.32447e-105
4.92681e-103
1.57355e-100
4.29682e-98
9.94371e-96
1.92488e-93
3.06126e-91
3.9036e-89
3.85975e-87
2.82091e-85
1.41609e-83
4.30309e-82
6.03572e-81
6.05467e-81
3.91454e-82
4.51579e-84
1.49246e-86
2.52019e-89
3.31649e-92
3.58856e-95
3.52653e-98
3.56639e-101
4.04915e-104
-9.91384e-120
-4.3313e-42
-6.21783e-48
-4.84728e-54
-2.70248e-60
-7.00649e-47
3.62659e-36
1.31379e-38
1.31444e-38
7.0119e-10
7.38226e-08
2.07882e-07
3.77433e-07
5.45865e-07
7.12102e-07
8.77818e-07
1.0407e-06
1.19883e-06
1.34752e-06
1.48565e-06
1.60719e-06
1.71374e-06
1.79901e-06
1.85618e-06
1.89505e-06
1.9213e-06
1.83863e-06
1.68784e-06
1.60172e-06
1.08208e-06
5.82475e-18
5.12003e-18
7.69894e-18
9.93306e-18
1.14914e-17
1.23056e-17
1.24211e-17
1.19811e-17
1.11399e-17
1.00261e-17
8.74761e-18
7.39518e-18
6.04359e-18
4.75061e-18
3.56348e-18
2.5157e-18
1.63563e-18
9.429e-19
4.48083e-19
1.47556e-19
-7.96628e-28
2.15636e-120
1.57844e-111
1.46457e-108
6.399e-106
2.51304e-103
8.8204e-101
2.74279e-98
7.4789e-96
1.76667e-93
3.56358e-91
6.03196e-89
8.38517e-87
9.31538e-85
7.98371e-83
5.04467e-81
2.25735e-79
7.41854e-78
3.64748e-77
4.51429e-77
4.45724e-77
3.92397e-77
5.35009e-78
4.51579e-84
1.49246e-86
2.52019e-89
3.31649e-92
3.58854e-95
3.52653e-98
3.56639e-101
4.04915e-104
0
1.116e-102
2.06414e-105
5.48923e-108
6.95343e-24
1.18318e-25
1.3223e-29
1.26977e-38
-4.63234e-30
3.75615e-20
2.20916e-19
6.7689e-19
1.44998e-18
2.52795e-18
3.87378e-18
5.47561e-18
7.32544e-18
9.33101e-18
1.13514e-17
1.32403e-17
1.491e-17
1.62107e-17
1.697e-17
1.71238e-17
1.65153e-17
1.46712e-17
1.18866e-17
8.23453e-18
9.52739e-18
1.97292e-21
1.59293e-21
2.2066e-21
3.02661e-21
3.80175e-21
4.06734e-21
4.04626e-21
3.83209e-21
3.48131e-21
3.04406e-21
2.5644e-21
2.07923e-21
1.61779e-21
1.2008e-21
8.42396e-22
5.49748e-22
3.25457e-22
1.67394e-22
6.90294e-23
1.90186e-23
-1.14794e-39
6.79159e-110
1.00298e-107
9.20377e-105
3.99632e-102
1.55803e-99
5.41431e-97
1.66306e-94
4.47556e-92
1.04227e-89
2.07143e-87
3.45454e-85
4.73449e-83
5.19314e-81
4.405e-79
2.76319e-77
1.22679e-75
3.91312e-74
2.27659e-73
3.67685e-73
3.66159e-73
2.38921e-73
2.90864e-74
2.71195e-77
9.21478e-80
1.60976e-82
2.20865e-85
2.51266e-88
2.62045e-91
2.84268e-94
3.51055e-97
5.02663e-100
8.19073e-103
1.45452e-105
5.48923e-108
6.49835e-107
1.31895e-109
1.8671e-33
2.80926e-35
2.20167e-35
3.82553e-24
3.0085e-23
1.11005e-22
2.73361e-22
5.29699e-22
8.89581e-22
1.37244e-21
1.99114e-21
2.70842e-21
3.44587e-21
4.12062e-21
4.69122e-21
5.13419e-21
5.43519e-21
5.6015e-21
5.56928e-21
4.53696e-21
3.50915e-21
2.52227e-21
3.40443e-21
5.1683e-24
4.94371e-24
7.68438e-24
9.5511e-24
1.05407e-23
1.04173e-23
1.00159e-23
8.83322e-24
7.4061e-24
5.87199e-24
4.37156e-24
3.01383e-24
1.86615e-24
9.66419e-25
3.28617e-25
1.85564e-25
9.99078e-26
4.56495e-26
1.61486e-26
3.59464e-27
1.23875e-40
9.76437e-108
3.2428e-104
2.97241e-101
1.28282e-98
4.96087e-96
1.70696e-93
5.18298e-91
1.37545e-88
3.15429e-86
6.16715e-84
1.01132e-81
1.36305e-79
1.47157e-77
1.23061e-75
7.62651e-74
3.34194e-72
1.03193e-70
6.76445e-70
1.24045e-69
1.2392e-69
6.96832e-70
7.85738e-71
1.28631e-73
4.54996e-76
8.36201e-79
1.21408e-81
1.46321e-84
1.60129e-87
1.78469e-90
2.21437e-93
3.14874e-96
5.04463e-99
8.83969e-102
1.65105e-104
3.25577e-107
6.59477e-110
1.36437e-41
1.14711e-39
1.14683e-39
6.59727e-28
6.85387e-27
3.03322e-26
8.55003e-26
1.83331e-25
3.32081e-25
6.08317e-25
1.71132e-24
3.54567e-24
5.852e-24
8.1597e-24
1.01426e-23
1.17785e-23
1.31083e-23
1.42637e-23
1.52117e-23
1.51174e-23
1.30294e-23
9.16412e-24
9.50362e-24
2.06912e-27
1.9675e-27
3.03689e-27
3.76072e-27
4.1055e-27
4.0666e-27
3.82331e-27
3.31325e-27
2.70453e-27
2.06907e-27
1.47032e-27
9.53455e-28
5.42081e-28
2.43888e-28
1.14708e-28
6.4044e-29
3.13354e-29
1.27051e-29
3.85652e-30
7.00412e-31
3.70766e-45
3.15213e-104
7.22758e-101
6.59247e-98
2.81668e-95
1.07588e-92
3.64886e-90
1.09003e-87
2.84147e-85
6.3929e-83
1.22521e-80
1.96868e-78
2.60041e-76
2.75366e-74
2.26205e-72
1.37972e-70
5.94915e-69
1.7826e-67
1.25984e-66
2.46303e-66
2.46303e-66
1.28143e-66
1.38033e-67
3.01759e-70
1.11182e-72
2.15176e-75
3.3118e-78
4.24424e-81
4.91156e-84
5.69437e-87
7.19884e-90
1.02825e-92
1.64655e-95
2.88363e-98
5.39059e-101
1.05523e-103
2.13054e-106
8.70811e-57
1.68436e-45
8.01769e-44
1.31337e-31
1.64394e-30
8.49003e-30
2.70244e-29
6.37674e-29
1.24536e-28
2.16926e-28
5.17683e-28
1.13872e-27
1.95753e-27
2.82854e-27
3.64246e-27
4.37799e-27
5.02607e-27
5.60034e-27
6.01339e-27
5.96334e-27
5.10841e-27
3.57706e-27
3.73578e-27
1.12487e-30
1.06259e-30
1.62847e-30
2.00829e-30
2.16777e-30
2.14604e-30
1.97774e-30
1.68308e-30
1.33948e-30
9.91498e-31
6.75275e-31
4.14133e-31
2.1762e-31
9.46578e-32
5.44384e-32
2.81224e-32
1.25058e-32
4.50004e-33
1.1725e-33
1.7406e-34
1.65273e-48
7.0898e-101
1.23683e-97
1.11937e-94
4.71616e-92
1.77235e-89
5.90225e-87
1.72831e-84
4.40992e-82
9.70103e-80
1.81663e-77
2.85153e-75
3.68069e-73
3.81222e-71
3.0676e-69
1.83624e-67
7.77347e-66
2.26416e-64
1.67924e-63
3.40105e-63
3.40046e-63
1.7e-63
1.77369e-64
4.66759e-67
1.79219e-69
3.65588e-72
5.97437e-75
8.16792e-78
1.00606e-80
1.22703e-83
1.60362e-86
2.33355e-89
3.77924e-92
6.68127e-95
1.26098e-97
2.49313e-100
5.08845e-103
4.6125e-63
5.03789e-50
7.70471e-48
3.10945e-35
4.99625e-34
2.99659e-33
1.07402e-32
2.78909e-32
5.88612e-32
1.08991e-31
2.11296e-31
4.91626e-31
8.90147e-31
1.34652e-30
1.80474e-30
2.24017e-30
2.63016e-30
2.96975e-30
3.18257e-30
3.14905e-30
2.69127e-30
1.89381e-30
1.99994e-30
7.93992e-34
7.45515e-34
1.1333e-33
1.38986e-33
1.48076e-33
1.45849e-33
1.31613e-33
1.09694e-33
8.48943e-34
6.0828e-34
3.98364e-34
2.32072e-34
1.13424e-34
5.81989e-35
3.15857e-35
1.51112e-35
6.11427e-36
1.95534e-36
4.38289e-37
5.34008e-38
8.24584e-52
1.46229e-96
1.69461e-94
1.53982e-91
6.37407e-89
2.34826e-86
7.65188e-84
2.18896e-81
5.44961e-79
1.16866e-76
2.13242e-74
3.26156e-72
4.10425e-70
4.14842e-68
3.26263e-66
1.91241e-64
7.93484e-63
2.24928e-61
1.71941e-60
3.55162e-60
3.55017e-60
1.73478e-60
1.77589e-61
5.33455e-64
2.13578e-66
4.59673e-69
7.98872e-72
1.16851e-74
1.54023e-77
1.99441e-80
2.72877e-83
4.10014e-86
6.79629e-89
1.22499e-91
2.3548e-94
4.74034e-97
9.8454e-100
4.85836e-71
1.63878e-54
9.6322e-52
9.33098e-39
1.85772e-37
1.29091e-36
5.20402e-36
1.48737e-35
3.39424e-35
6.7009e-35
1.23626e-34
2.76351e-34
5.26912e-34
8.30828e-34
1.15112e-33
1.47012e-33
1.76338e-33
2.01489e-33
2.1699e-33
2.14192e-33
1.83947e-33
1.3061e-33
1.39453e-33
7.22903e-37
6.73567e-37
1.01561e-36
1.24071e-36
1.31001e-36
1.28647e-36
1.14289e-36
9.37174e-37
7.10076e-37
4.93489e-37
3.1028e-37
1.71519e-37
7.90703e-38
4.27586e-38
2.18191e-38
9.68306e-39
3.57174e-39
1.01778e-39
1.9702e-40
1.98227e-41
2.50954e-55
1.73144e-94
1.97493e-91
1.77163e-88
7.1894e-86
2.58794e-83
8.22533e-81
2.29188e-78
5.55186e-76
1.15772e-73
2.05369e-71
3.05445e-69
3.74002e-67
3.68246e-65
2.82564e-63
1.61899e-61
6.57459e-60
1.81529e-58
1.41216e-57
2.94672e-57
2.945e-57
1.42081e-57
1.44057e-58
4.78644e-61
1.99971e-63
4.54615e-66
8.41615e-69
1.32053e-71
1.87118e-74
2.59195e-77
3.7523e-80
5.89264e-83
1.01141e-85
1.87739e-88
3.70703e-91
7.65733e-94
1.62924e-96
1.72723e-74
2.99799e-59
1.51707e-55
3.43815e-42
8.32352e-41
6.6796e-40
3.02016e-39
9.47591e-39
2.3328e-38
4.89833e-38
9.19527e-38
2.05973e-37
4.12216e-37
6.77104e-37
9.68991e-37
1.26324e-36
1.534e-36
1.76374e-36
1.90931e-36
1.88158e-36
1.62843e-36
1.16783e-36
1.261e-36
7.72389e-40
7.15427e-40
1.0712e-39
1.30345e-39
1.36591e-39
1.33524e-39
1.17222e-39
9.49939e-40
7.09531e-40
4.85029e-40
2.991e-40
1.61717e-40
7.2878e-41
3.663e-41
1.76103e-41
7.2663e-42
2.45041e-42
6.24479e-43
1.04953e-43
8.78913e-45
3.41385e-59
2.07447e-91
2.00892e-88
1.74799e-85
6.90978e-83
2.42305e-80
7.49102e-78
2.02793e-75
4.76905e-73
9.65074e-71
1.66136e-68
2.39884e-66
2.85379e-64
2.73321e-62
2.04323e-60
1.14271e-58
4.53669e-57
1.22078e-55
9.57366e-55
2.00547e-54
2.00405e-54
9.60978e-55
9.71622e-56
3.49924e-58
1.5269e-60
3.67123e-63
7.25158e-66
1.22341e-68
1.87073e-71
2.78927e-74
4.31034e-77
7.14913e-80
1.2843e-82
2.47942e-85
5.07177e-88
1.08288e-90
2.37599e-93
-1.66131e-75
7.16207e-63
2.9045e-59
1.03545e-45
4.44064e-44
4.09441e-43
2.06693e-42
7.0887e-42
1.87539e-41
4.1737e-41
8.47737e-41
1.9631e-40
3.96876e-40
6.6198e-40
9.62755e-40
1.27332e-39
1.56521e-39
1.81684e-39
1.98437e-39
1.96121e-39
1.71043e-39
1.23614e-39
1.34424e-39
9.39955e-43
8.6698e-43
1.29008e-42
1.56158e-42
1.63032e-42
1.57908e-42
1.37314e-42
1.10026e-42
8.10811e-43
5.45666e-43
3.30588e-43
1.75434e-43
7.76362e-44
3.60706e-44
1.63779e-44
6.30156e-45
1.94998e-45
4.46596e-46
6.55892e-47
4.61405e-48
1.38131e-62
2.13224e-88
1.79395e-85
1.50185e-82
5.73523e-80
1.95435e-77
5.86376e-75
1.53918e-72
3.50785e-70
6.87812e-68
1.1475e-65
1.60655e-63
1.85476e-61
1.72594e-59
1.25556e-57
6.84625e-56
2.65484e-54
6.96518e-53
5.46672e-52
1.14449e-51
1.14349e-51
5.47505e-52
5.5483e-53
2.13642e-55
9.74583e-58
2.48143e-60
5.23807e-63
9.5226e-66
1.57639e-68
2.54279e-71
4.2255e-74
7.46901e-77
1.41782e-79
2.87339e-82
6.14048e-85
1.36511e-87
3.1101e-90
-3.70264e-79
2.11911e-66
7.08718e-63
3.64126e-49
2.7842e-47
2.92962e-46
1.64205e-45
6.12804e-45
1.73616e-44
4.08377e-44
8.90666e-44
2.12574e-43
4.33031e-43
7.34309e-43
1.08781e-42
1.46268e-42
1.82281e-42
2.13877e-42
2.35863e-42
2.34088e-42
2.05612e-42
1.49481e-42
1.63359e-42
1.28512e-45
1.18177e-45
1.74866e-45
2.10435e-45
2.19294e-45
2.10096e-45
1.81178e-45
1.43613e-45
1.04474e-45
6.92496e-46
4.12232e-46
2.14593e-46
9.30591e-47
4.03835e-47
1.73679e-47
6.25346e-48
1.78353e-48
3.69167e-49
4.77333e-50
2.84943e-51
7.42198e-67
3.52426e-85
2.96225e-82
1.12798e-79
4.14752e-77
1.37076e-74
3.98454e-72
1.01262e-69
2.23366e-67
4.23907e-65
6.84714e-63
9.28673e-61
1.03956e-58
9.3909e-57
6.64215e-55
3.52802e-53
1.33534e-51
3.41662e-50
2.66826e-49
5.56396e-49
5.55747e-49
2.66574e-49
2.71823e-50
1.10825e-52
5.29057e-55
1.4284e-57
3.22762e-60
6.33619e-63
1.13885e-65
1.99593e-68
3.58876e-71
6.81324e-74
1.37833e-76
2.95751e-79
6.65662e-82
1.55203e-84
3.76736e-87
-7.6197e-82
7.65174e-70
2.07468e-66
1.5329e-52
2.02767e-50
2.41685e-49
1.49542e-48
6.04628e-48
1.8287e-47
4.5362e-47
1.0534e-46
2.58373e-46
5.32178e-46
9.18888e-46
1.38789e-45
1.89778e-45
2.39617e-45
2.83864e-45
3.1558e-45
3.14336e-45
2.77803e-45
2.02937e-45
2.22669e-45
1.95362e-48
1.79267e-48
2.63928e-48
3.15911e-48
3.2841e-48
3.1166e-48
2.66627e-48
2.09221e-48
1.50369e-48
9.82404e-49
5.74943e-49
2.93626e-49
1.24773e-49
5.09626e-50
2.08301e-50
7.0473e-51
1.86184e-51
3.50483e-52
4.02191e-53
2.05925e-54
-1.38913e-68
9.13778e-82
2.07202e-79
7.4468e-77
2.62931e-74
8.41586e-72
2.36707e-69
5.81817e-67
1.24111e-64
2.2781e-62
3.56031e-60
4.67514e-58
5.07141e-56
4.44478e-54
3.05474e-52
1.57949e-50
5.83181e-49
1.45535e-47
1.12555e-46
2.33146e-46
2.32779e-46
1.12158e-46
1.1545e-47
4.94662e-50
2.4741e-52
7.09409e-55
1.71902e-57
3.65224e-60
7.14752e-63
1.36623e-65
2.672e-68
5.48486e-71
1.19136e-73
2.72735e-76
6.51424e-79
1.60436e-81
4.21298e-84
4.353e-81
3.35164e-73
6.89447e-70
7.66573e-56
1.70342e-53
2.28296e-52
1.55035e-51
6.75987e-51
2.17485e-50
5.67401e-50
1.39486e-49
3.51363e-49
7.33823e-49
1.29012e-48
1.98491e-48
2.75678e-48
3.52125e-48
4.20432e-48
4.70188e-48
4.69462e-48
4.1688e-48
3.0574e-48
3.36509e-48
3.27375e-51
2.99971e-51
4.39663e-51
5.23743e-51
5.43079e-51
5.11145e-51
4.34099e-51
3.37514e-51
2.39885e-51
1.54631e-51
8.90597e-52
4.46637e-52
1.86221e-52
7.19964e-53
2.80721e-53
8.96446e-54
2.20587e-54
3.80187e-55
3.90469e-56
1.73379e-57
5.34363e-75
1.0953e-79
5.90595e-77
4.33633e-74
1.46693e-71
4.54392e-69
1.2356e-66
2.93551e-64
6.05263e-62
1.0741e-59
1.62364e-57
2.06357e-55
2.16855e-53
1.84337e-51
1.23049e-49
6.19044e-48
2.22856e-46
5.42417e-45
4.13802e-44
8.49732e-44
8.48083e-44
4.11457e-44
4.28741e-45
1.91836e-47
1.00674e-49
3.07139e-52
7.99829e-55
1.84363e-57
3.93981e-60
8.24234e-63
1.76128e-65
3.93102e-68
9.22576e-71
2.26813e-73
5.78645e-76
1.51461e-78
4.35299e-81
4.16647e-78
1.69022e-76
3.30965e-73
4.53232e-59
1.64516e-56
2.46079e-55
1.82339e-54
8.53141e-54
2.90742e-53
7.94964e-53
2.06124e-52
5.3139e-52
1.12641e-51
2.01363e-51
3.14967e-51
4.4361e-51
5.72544e-51
6.88294e-51
7.73297e-51
7.73311e-51
6.89074e-51
5.06959e-51
5.59161e-51
6.00299e-54
5.4956e-54
8.02351e-54
9.51902e-54
9.84589e-54
9.20302e-54
7.76518e-54
5.98827e-54
4.2137e-54
2.68328e-54
1.5231e-54
7.51319e-55
3.081e-55
1.13224e-55
4.22854e-56
1.28074e-56
2.95231e-57
4.69153e-58
4.35021e-59
1.69423e-60
3.53717e-74
6.89949e-77
7.05069e-74
2.23131e-71
7.22698e-69
2.16443e-66
5.68761e-64
1.30572e-61
2.6018e-59
4.46347e-57
6.52573e-55
8.02718e-53
8.17143e-51
6.73588e-49
4.36607e-47
2.13629e-45
7.49562e-44
1.77912e-42
1.3346e-41
2.71289e-41
2.7073e-41
1.32559e-41
1.40175e-42
6.51389e-45
3.59335e-47
1.16906e-49
3.266e-52
8.22449e-55
1.92488e-57
4.42207e-60
1.03647e-62
2.527e-65
6.44154e-68
1.70997e-70
4.68515e-73
1.3098e-75
4.16647e-78
2.07338e-77
3.31434e-77
1.68591e-76
3.16035e-62
1.82094e-59
3.01595e-58
2.4235e-57
1.2105e-56
4.34992e-56
1.24166e-55
3.38735e-55
8.90391e-55
1.91293e-54
3.46788e-54
5.4986e-54
7.83633e-54
1.02069e-53
1.2347e-53
1.39279e-53
1.3947e-53
1.24606e-53
9.18964e-54
1.01512e-53
1.19685e-56
1.09523e-56
1.59376e-56
1.8846e-56
1.94505e-56
1.80783e-56
1.51697e-56
1.16165e-56
8.10325e-57
5.10545e-57
2.86134e-57
1.3914e-57
5.62877e-58
1.97283e-58
7.08759e-59
2.04641e-59
4.44578e-60
6.56109e-61
5.54201e-62
1.9152e-63
1.93217e-71
4.39444e-74
3.53402e-71
1.05954e-68
3.18971e-66
9.11259e-64
2.31429e-61
5.13441e-59
9.88883e-57
1.6403e-54
2.31994e-52
2.76241e-50
2.72424e-48
2.17764e-46
1.37037e-44
6.51943e-43
2.22878e-41
5.15791e-40
3.79467e-39
7.62725e-39
7.61291e-39
3.76939e-39
4.0541e-40
1.94796e-42
1.13204e-44
3.87546e-47
1.16115e-49
3.26622e-52
8.39842e-55
2.12565e-57
5.4845e-60
1.46653e-62
4.07801e-65
1.17412e-67
3.47046e-70
1.0406e-72
2.03635e-74
4.92121e-77
5.83115e-77
8.34801e-77
2.59404e-65
2.30201e-62
4.18495e-61
3.62245e-60
1.92098e-59
7.24466e-59
2.15007e-58
6.15912e-58
1.64839e-57
3.5807e-57
6.56271e-57
1.05128e-56
1.51168e-56
1.9832e-56
2.41136e-56
2.72896e-56
2.73683e-56
2.44988e-56
1.81018e-56
2.00221e-56
2.58008e-59
2.36097e-59
3.42643e-59
4.04173e-59
4.16419e-59
3.85356e-59
3.21928e-59
2.45114e-59
1.69754e-59
1.06009e-59
5.87901e-60
2.82573e-60
1.13111e-60
3.79305e-61
1.31676e-61
3.64335e-62
7.50583e-63
1.03641e-63
8.04744e-65
2.47119e-66
8.80169e-69
1.95599e-71
1.57402e-68
4.47255e-66
1.24677e-63
3.39266e-61
8.33704e-59
1.78821e-56
3.33033e-54
5.34358e-52
7.31398e-50
8.4329e-48
8.05822e-46
6.24663e-44
3.8161e-42
1.76478e-40
5.87687e-39
1.3257e-37
9.54217e-37
1.89437e-36
1.89145e-36
9.48524e-37
1.03977e-37
5.15016e-40
3.14819e-42
1.12599e-44
3.70907e-47
1.16115e-49
3.2915e-52
9.20993e-55
2.62509e-57
7.72713e-60
2.35283e-62
7.37409e-65
2.35852e-67
7.94405e-70
1.68651e-71
6.43183e-74
1.22529e-76
3.55075e-74
2.49705e-68
3.31708e-65
6.5555e-64
6.06662e-63
3.39512e-62
1.33702e-61
4.10757e-61
1.24222e-60
3.35075e-60
7.34538e-60
1.35818e-59
2.19254e-59
3.17285e-59
4.1834e-59
5.1045e-59
5.7886e-59
5.81305e-59
5.20963e-59
3.85471e-59
4.26853e-59
5.98387e-62
5.47763e-62
7.93304e-62
9.34255e-62
9.6147e-62
8.87009e-62
7.38629e-62
5.59971e-62
3.85677e-62
2.39212e-62
1.31598e-62
6.27079e-63
2.49207e-63
8.01772e-64
2.70202e-64
7.20321e-65
1.41621e-65
1.84097e-66
1.39913e-67
4.95172e-68
3.50825e-68
8.80192e-69
6.20939e-66
1.67366e-63
4.31513e-61
1.11965e-58
2.66113e-56
5.52181e-54
9.95062e-52
1.54535e-49
2.04807e-47
2.28746e-45
2.11852e-43
1.59275e-41
9.44524e-40
4.24499e-38
1.37651e-36
3.02521e-35
2.12469e-34
4.16021e-34
4.1549e-34
2.11311e-34
2.36559e-35
1.20594e-37
7.49715e-40
2.93174e-42
1.0667e-44
3.70907e-47
1.16365e-49
3.61291e-52
1.14169e-54
3.71293e-57
1.24238e-59
4.25301e-62
1.47602e-64
5.70163e-67
1.29823e-68
5.03511e-71
6.19682e-74
2.84312e-71
5.65151e-71
5.43273e-68
1.15748e-66
1.13599e-65
6.66525e-65
2.726e-64
8.62905e-64
2.73984e-63
7.42569e-63
1.63948e-62
3.0535e-62
4.95999e-62
7.21162e-62
9.54048e-62
1.16654e-61
1.32406e-61
1.33044e-61
1.19303e-61
8.83517e-62
9.79116e-62
1.48636e-64
1.36156e-64
1.96898e-64
2.3171e-64
2.38348e-64
2.19497e-64
1.8243e-64
1.37926e-64
9.46516e-65
5.84399e-65
3.19794e-65
1.51556e-65
6.0006e-66
1.90737e-66
6.10414e-67
1.57598e-67
2.95788e-68
7.55139e-69
2.85343e-68
4.95172e-68
4.95172e-68
8.15586e-66
2.23392e-63
5.71185e-61
1.38362e-58
3.31786e-56
7.51902e-54
1.51189e-51
2.63863e-49
3.96932e-47
5.09676e-45
5.5168e-43
4.95341e-41
3.61215e-39
2.079e-37
9.07673e-36
2.86439e-34
6.12787e-33
4.18614e-32
8.06978e-32
8.05995e-32
4.16269e-32
4.76823e-33
2.50057e-35
1.59193e-37
6.84054e-40
2.7633e-42
1.0667e-44
3.7203e-47
1.28684e-49
4.52486e-52
1.63154e-54
6.01967e-57
2.25816e-59
8.53307e-62
1.99366e-63
9.18809e-66
3.55139e-68
1.01847e-70
5.65151e-71
1.1495e-70
1.82104e-70
2.28819e-69
2.37225e-68
1.44933e-67
6.12113e-67
1.98689e-66
6.59619e-66
1.78888e-65
3.96445e-65
7.41896e-65
1.2105e-64
1.76598e-64
2.34133e-64
2.86574e-64
3.25272e-64
3.26812e-64
2.93047e-64
2.17106e-64
2.40664e-64
3.9379e-67
3.61095e-67
5.21719e-67
6.14033e-67
6.3179e-67
5.81543e-67
4.83088e-67
3.64859e-67
2.49986e-67
1.54022e-67
8.40804e-68
3.9762e-68
1.57396e-68
4.97505e-69
1.5103e-69
4.47977e-70
3.67172e-70
4.2569e-69
7.55139e-69
3.29157e-68
9.75774e-66
2.73767e-63
7.12581e-61
1.73356e-58
3.96726e-56
8.72469e-54
1.88146e-51
3.66761e-49
6.2055e-47
9.04989e-45
1.12662e-42
1.1824e-40
1.0295e-38
7.28157e-37
4.06625e-35
1.72342e-33
5.28848e-32
1.09996e-30
7.2824e-30
1.37943e-29
1.37755e-29
7.23569e-30
8.49477e-31
4.58475e-33
3.01043e-35
1.4292e-37
6.44539e-40
2.7633e-42
1.07664e-44
4.16676e-47
1.63634e-49
6.56364e-52
2.67863e-54
1.10401e-56
4.80943e-59
1.2392e-60
5.79946e-63
2.34648e-65
9.06506e-68
2.5693e-70
1.82104e-70
1.03025e-70
1.52273e-71
5.43045e-71
3.47209e-70
1.50828e-69
5.12588e-69
1.7306e-68
4.6788e-68
1.03672e-67
1.94272e-67
3.17583e-67
4.6404e-67
6.1575e-67
7.53684e-67
8.54774e-67
8.5828e-67
7.69081e-67
5.69744e-67
6.31446e-67
1.1085e-69
1.01781e-69
1.47008e-69
1.73187e-69
1.7838e-69
1.64332e-69
1.36641e-69
1.03279e-69
7.08028e-70
4.36439e-70
2.38386e-70
1.1287e-70
4.46931e-71
1.37997e-71
8.88992e-72
1.16038e-70
2.95179e-70
3.67172e-70
3.0083e-68
1.00419e-65
2.98387e-63
8.10096e-61
2.02673e-58
4.70566e-56
1.02011e-53
2.0809e-51
4.1963e-49
7.86092e-47
1.29192e-44
1.8283e-42
2.20827e-40
2.24821e-38
1.89858e-36
1.30225e-34
7.0522e-33
2.89922e-31
8.64273e-30
1.74518e-28
1.11548e-27
2.07211e-27
2.06871e-27
1.10707e-27
1.33426e-28
7.41635e-31
5.06428e-33
2.67196e-35
1.3531e-37
6.44539e-40
2.82025e-42
1.2267e-44
5.39981e-47
2.4168e-49
1.09405e-51
4.97069e-54
1.2845e-55
7.16058e-58
3.25971e-60
1.4111e-62
5.67397e-65
2.10405e-67
7.03693e-70
1.52273e-71
1.33236e-71
6.61556e-72
1.81127e-72
4.02248e-72
1.44827e-71
4.92556e-71
1.32401e-70
2.92416e-70
5.46976e-70
8.93341e-70
1.30445e-69
1.72953e-69
2.11445e-69
2.39393e-69
2.40077e-69
2.14838e-69
1.59065e-69
1.76181e-69
3.30345e-72
3.03811e-72
4.38902e-72
5.17994e-72
5.34506e-72
4.93484e-72
4.11347e-72
3.11728e-72
2.14309e-72
1.32513e-72
7.2642e-73
3.43552e-73
1.84888e-73
3.76131e-73
4.94719e-72
8.88992e-72
1.16038e-70
3.37912e-68
9.43081e-66
2.74716e-63
8.03706e-61
2.12622e-58
5.13936e-56
1.14381e-53
2.35926e-51
4.53926e-49
8.33787e-47
1.48593e-44
2.37346e-42
3.26301e-40
3.82673e-38
3.78107e-36
3.09737e-34
2.05989e-32
1.08124e-30
4.30834e-29
1.24674e-27
2.44046e-26
1.50007e-25
2.72758e-25
2.72232e-25
1.4874e-25
1.84454e-26
1.05599e-28
7.57395e-31
4.46958e-33
2.55709e-35
1.3531e-37
6.68584e-40
3.28334e-42
1.62548e-44
8.13742e-47
4.09545e-49
2.11209e-51
6.32573e-53
3.56029e-55
1.69541e-57
7.66151e-60
3.1865e-62
1.21153e-64
4.17254e-67
1.28001e-69
6.61556e-72
1.81127e-72
9.88868e-73
7.96209e-74
7.23275e-74
1.5044e-73
4.03527e-73
8.8608e-73
1.65033e-72
2.68633e-72
3.91131e-72
5.17228e-72
6.30699e-72
7.1205e-72
7.1266e-72
6.36424e-72
4.70682e-72
5.20779e-72
1.03866e-74
9.57044e-75
1.38361e-74
1.63718e-74
1.69387e-74
1.56934e-74
1.31341e-74
9.99849e-75
6.90891e-75
4.28717e-75
2.24175e-75
2.068e-75
9.50209e-74
1.84888e-73
3.76131e-73
9.14436e-71
3.14847e-68
9.89507e-66
2.84146e-63
7.11851e-61
1.87107e-58
4.86586e-56
1.14422e-53
2.45551e-51
4.84297e-49
8.83079e-47
1.50064e-44
2.49165e-42
3.82545e-40
5.12184e-38
5.83767e-36
5.60101e-34
4.45184e-32
2.87069e-30
1.46027e-28
5.63754e-27
1.58302e-25
2.99969e-24
1.76599e-23
3.1375e-23
3.13105e-23
1.75099e-23
2.24045e-24
1.3202e-26
1.00655e-28
6.69071e-31
4.35203e-33
2.55709e-35
1.4349e-37
7.99343e-40
4.4646e-42
2.50446e-44
1.40453e-46
4.27054e-48
2.85339e-50
1.54309e-52
7.89313e-55
3.70801e-57
1.58653e-59
6.13497e-62
2.12076e-64
6.43659e-67
1.65329e-69
5.75339e-72
7.96209e-74
7.23275e-74
3.67299e-74
9.35197e-76
1.20959e-75
2.8655e-75
5.31561e-75
8.60471e-75
1.24676e-74
1.64145e-74
1.99341e-74
2.24147e-74
2.23696e-74
1.99201e-74
1.47081e-74
1.62495e-74
3.43415e-77
3.17113e-77
4.59015e-77
5.44964e-77
5.65808e-77
5.26733e-77
4.43298e-77
3.39655e-77
2.35369e-77
1.60911e-77
1.33349e-76
1.1593e-75
2.068e-75
1.4331e-73
5.92407e-71
2.22544e-68
7.59004e-66
2.35639e-63
6.67418e-61
1.72732e-58
4.08836e-56
9.60295e-54
2.21859e-51
4.62769e-49
8.78783e-47
1.52887e-44
2.45181e-42
3.68758e-40
5.39256e-38
7.02524e-36
7.79567e-34
7.26921e-32
5.60965e-30
3.50926e-28
1.73069e-26
6.47475e-25
1.76442e-23
3.23176e-22
1.81437e-21
3.14376e-21
3.1378e-21
1.80122e-21
2.3853e-22
1.44631e-24
1.18686e-26
8.95401e-29
6.66561e-31
4.35203e-33
2.78954e-35
1.77133e-37
1.11962e-39
7.0502e-42
4.58413e-44
1.62157e-45
1.08227e-47
6.0871e-50
3.23834e-52
1.56863e-54
6.85166e-57
2.6685e-59
9.12113e-62
2.65496e-64
9.39901e-67
3.29128e-69
1.05666e-71
4.39248e-74
9.35197e-76
5.74143e-76
1.12319e-76
1.15489e-77
1.80434e-77
2.92292e-77
4.20979e-77
5.50857e-77
6.65264e-77
7.44125e-77
7.39829e-77
6.56427e-77
4.83632e-77
5.33336e-77
1.19019e-79
1.10168e-79
1.59736e-79
1.90422e-79
1.98565e-79
1.85977e-79
1.57363e-79
1.1423e-79
1.48514e-79
8.66434e-78
1.60911e-77
1.33349e-76
6.28441e-74
2.91128e-71
1.21286e-68
4.56035e-66
1.55197e-63
4.79135e-61
1.34437e-58
3.43352e-56
7.98807e-54
1.69806e-51
3.71347e-49
7.6106e-47
1.40401e-44
2.34872e-42
3.58202e-40
5.01791e-38
6.71602e-36
8.35885e-34
9.05137e-32
8.21377e-30
6.16226e-28
3.7448e-26
1.79269e-24
6.5044e-23
1.72115e-21
3.04177e-20
1.62037e-19
2.73268e-19
2.72857e-19
1.61102e-19
2.24731e-20
1.38439e-22
1.23737e-24
1.06732e-26
8.95401e-29
6.66561e-31
4.90868e-33
3.57063e-35
2.56195e-37
1.81468e-39
6.84561e-41
5.45275e-43
3.48697e-45
2.1001e-47
1.15043e-49
5.68047e-52
2.49961e-54
9.64352e-57
3.17294e-59
1.23919e-61
4.81595e-64
1.71157e-66
5.5534e-69
1.64198e-71
4.43364e-74
1.12319e-76
1.15489e-77
6.5097e-78
2.0111e-79
9.21083e-80
1.49652e-79
1.94809e-79
2.3361e-79
2.59615e-79
2.56912e-79
2.26952e-79
1.66769e-79
1.83516e-79
4.31031e-82
4.00031e-82
5.81262e-82
6.96227e-82
7.29774e-82
6.87048e-82
5.66989e-82
7.61332e-81
6.26719e-80
1.48514e-79
3.25464e-77
1.9204e-74
1.00912e-71
4.73673e-69
1.99477e-66
7.56178e-64
2.58684e-61
8.00119e-59
2.24081e-56
5.68853e-54
1.31018e-51
2.73737e-49
5.20805e-47
1.05202e-44
1.90875e-42
3.1021e-40
4.54451e-38
6.03267e-36
7.32454e-34
8.61064e-32
9.0387e-30
8.01875e-28
5.86295e-26
3.46887e-24
1.6151e-22
5.69114e-21
1.46377e-19
2.49133e-18
1.26033e-17
2.07663e-17
2.07416e-17
1.25405e-17
1.85816e-18
1.13304e-20
1.13528e-22
1.12718e-24
1.06732e-26
9.15128e-29
7.78262e-31
6.51608e-33
5.33063e-35
2.07955e-36
1.98963e-38
1.46019e-40
9.98436e-43
6.17701e-45
3.43505e-47
1.70152e-49
7.39526e-52
2.74343e-54
1.23672e-56
5.34636e-59
2.10489e-61
7.5459e-64
2.46097e-66
6.98229e-69
1.67491e-71
3.60556e-74
6.94168e-77
2.0111e-79
9.05015e-80
4.42865e-80
6.36557e-82
7.12731e-82
8.59641e-82
9.48671e-82
9.33596e-82
8.20538e-82
6.0109e-82
6.59883e-82
1.62615e-84
1.51351e-84
2.20486e-84
2.6552e-84
2.77813e-84
3.05691e-84
2.97564e-82
5.66989e-82
7.61332e-81
5.68234e-78
3.91392e-75
2.37335e-72
1.27617e-69
6.11819e-67
2.6259e-64
1.012e-61
3.50976e-59
1.09705e-56
3.09371e-54
7.87618e-52
1.81094e-49
3.76089e-47
7.05067e-45
1.21812e-42
2.21357e-40
3.54588e-38
5.05115e-36
6.4346e-34
7.36619e-32
7.73752e-30
7.72654e-28
6.68872e-26
4.79207e-24
2.76955e-22
1.25769e-20
4.31281e-19
1.0812e-17
1.81063e-16
8.3753e-16
1.2922e-15
1.29058e-15
8.33431e-16
1.37436e-16
7.92536e-19
9.13909e-21
1.05082e-22
1.12718e-24
1.11841e-26
1.10159e-28
1.06467e-30
1.01048e-32
4.72435e-34
4.47689e-36
3.37964e-38
2.37703e-40
1.48953e-42
8.26004e-45
4.0073e-47
1.72811e-49
9.1379e-52
4.40343e-54
1.92239e-56
7.61263e-59
2.51597e-61
7.30727e-64
1.91264e-66
4.50097e-69
9.4908e-72
1.78541e-74
2.97956e-77
4.43349e-80
6.36557e-82
3.39763e-82
1.27772e-83
2.93483e-84
3.61312e-84
3.53886e-84
3.09243e-84
2.25753e-84
2.47192e-84
6.37171e-87
5.94857e-87
8.69067e-87
1.01733e-86
2.97155e-86
1.338e-84
3.1799e-84
6.31571e-82
5.98037e-79
4.89658e-76
3.49145e-73
2.18893e-70
1.21516e-67
6.00457e-65
2.65109e-62
1.04866e-59
3.72316e-57
1.18782e-54
3.40733e-52
8.78987e-50
2.0389e-47
4.25094e-45
7.95961e-43
1.33728e-40
2.09777e-38
3.38355e-36
4.76511e-34
5.90667e-32
6.47632e-30
6.32842e-28
5.71896e-26
4.73684e-24
3.32496e-22
1.88753e-20
8.39279e-19
2.81403e-17
7.41623e-16
1.04848e-14
3.31582e-14
4.14725e-14
4.14096e-14
3.30185e-14
7.9164e-15
4.81099e-17
6.47436e-19
8.69877e-21
1.05082e-22
1.20927e-24
1.37735e-26
1.53235e-28
7.87175e-30
9.09056e-32
7.9744e-34
6.43928e-36
4.58348e-38
2.85379e-40
1.53718e-42
8.1918e-45
4.86255e-47
2.61326e-49
1.25307e-51
4.89171e-54
1.71365e-56
5.4043e-59
1.53342e-61
3.91088e-64
8.94805e-67
1.83116e-69
3.33807e-72
5.39091e-75
7.65663e-78
9.47394e-81
1.27772e-83
2.39791e-84
1.00535e-84
1.39926e-86