/*--------------------------------*- C++ -*----------------------------------*\
| =========                 |                                                 |
| \\      /  F ield         | OpenFOAM: The Open Source CFD Toolbox           |
|  \\    /   O peration     | Version:  2412                                  |
|   \\  /    A nd           | Website:  www.openfoam.com                      |
|    \\/     M anipulation  |                                                 |
\*---------------------------------------------------------------------------*/
FoamFile
{
    version     2.0;
    format      ascii;
    arch        "LSB;label=32;scalar=64";
    class       surfaceScalarField;
    location    "0.8";
    object      phi;
}
// * * * * * * * * * * * * * * * * * * * * * * * * * * * * * * * * * * * * * //

dimensions      [0 3 -1 0 0 0 0];

oriented        oriented;

internalField   nonuniform List<scalar> 
12640
(
-1.3474e-05
1.3474e-05
-2.69452e-05
1.34715e-05
-4.05257e-05
1.35808e-05
-5.42378e-05
1.37124e-05
-6.81168e-05
1.38793e-05
-8.21995e-05
1.40831e-05
-9.65203e-05
1.4321e-05
-0.000111108
1.45876e-05
-0.000125985
1.48767e-05
-0.000141165
1.51809e-05
-0.000156656
1.54912e-05
-0.000172453
1.57967e-05
-0.000188537
1.60843e-05
-0.000204875
1.63383e-05
-0.000221415
1.65406e-05
-0.000238085
1.66698e-05
-0.000254786
1.67018e-05
-0.000271394
1.6609e-05
-0.000287755
1.63606e-05
-0.000303677
1.59227e-05
-0.000318936
1.52587e-05
-0.000333266
1.43299e-05
-0.000346362
1.30961e-05
-0.00035788
1.15171e-05
-0.000367433
9.55338e-06
-0.000374601
7.16776e-06
-0.000378924
4.32295e-06
-0.000379888
9.6339e-07
-0.000376947
-2.9408e-06
-0.000369533
-7.41433e-06
-0.00035729
-1.22441e-05
-0.000339915
-1.73752e-05
-0.000317165
-2.27506e-05
-0.000288918
-2.82473e-05
-0.000255218
-3.37008e-05
-0.000216304
-3.89137e-05
-0.000172651
-4.36537e-05
-0.000124979
-4.76724e-05
-7.42524e-05
-5.07275e-05
-2.16409e-05
-5.2612e-05
3.15487e-05
-5.31904e-05
8.39634e-05
-5.24147e-05
0.000134294
-5.03308e-05
0.000181374
-4.70806e-05
0.000224254
-4.28791e-05
0.00026223
-3.79768e-05
0.000294861
-3.26305e-05
0.00032194
-2.70787e-05
0.000343459
-2.152e-05
0.000359579
-1.61186e-05
0.00037057
-1.0992e-05
0.000376738
-6.16771e-06
0.000378546
-1.80926e-06
0.000376548
1.99937e-06
0.000371305
5.24145e-06
0.000363328
7.98031e-06
0.000353058
1.02665e-05
0.00034092
1.21385e-05
0.000327285
1.36344e-05
0.000312492
1.47919e-05
0.000296835
1.56577e-05
0.000280564
1.62692e-05
0.000263899
1.6665e-05
0.000247021
1.68797e-05
0.000230071
1.69504e-05
0.000213166
1.69057e-05
0.000196395
1.67716e-05
0.000179823
1.65718e-05
0.000163497
1.63259e-05
0.000147446
1.60523e-05
0.000131678
1.57669e-05
0.000116197
1.54817e-05
0.000100992
1.52058e-05
8.60448e-05
1.49484e-05
7.13282e-05
1.47172e-05
5.68106e-05
1.45172e-05
4.24581e-05
1.43523e-05
2.82334e-05
1.42257e-05
1.40948e-05
1.41398e-05
1.40954e-05
-1.34866e-05
2.69609e-05
-2.70418e-05
2.70271e-05
-4.06678e-05
2.72072e-05
-5.44298e-05
2.74748e-05
-6.83714e-05
2.78213e-05
-8.25302e-05
2.82422e-05
-9.69407e-05
2.87316e-05
-0.000111634
2.92807e-05
-0.000126635
2.98777e-05
-0.000141961
3.05076e-05
-0.000157622
3.11525e-05
-0.000173614
3.17899e-05
-0.000189923
3.23934e-05
-0.000206515
3.2931e-05
-0.000223339
3.33653e-05
-0.000240321
3.36524e-05
-0.000257361
3.37419e-05
-0.000274327
3.35763e-05
-0.000291058
3.30912e-05
-0.000307351
3.22155e-05
-0.000322965
3.08725e-05
-0.000337617
2.8981e-05
-0.000350978
2.64574e-05
-0.00036268
2.32187e-05
-0.000372313
1.91856e-05
-0.000379434
1.42885e-05
-0.000383586
8.47472e-06
-0.000384357
1.73414e-06
-0.000381518
-5.78029e-06
-0.000374358
-1.45753e-05
-0.000362412
-2.41918e-05
-0.000345267
-3.45205e-05
-0.000322624
-4.5394e-05
-0.000294319
-5.65518e-05
-0.000260364
-6.76569e-05
-0.000220972
-7.83067e-05
-0.000176602
-8.80245e-05
-0.000127982
-9.62935e-05
-7.61074e-05
-0.000102602
-2.22125e-05
-0.000106507
3.23099e-05
-0.000107713
8.60083e-05
-0.000106113
0.000137484
-0.000101807
0.000185505
-9.51016e-05
0.000229084
-8.64579e-05
0.000267514
-7.64068e-05
0.000300367
-6.54839e-05
0.000327467
-5.41769e-05
0.000348843
-4.28975e-05
0.000364702
-3.19789e-05
0.000375385
-2.16762e-05
0.000381343
-1.21238e-05
0.000383145
-3.61123e-06
0.000381344
3.80092e-06
0.000376225
1.03584e-05
0.000368239
1.59673e-05
0.000357846
2.0659e-05
0.000345487
2.44962e-05
0.000331563
2.75576e-05
0.000316431
2.99236e-05
0.000300408
3.16809e-05
0.000283765
3.29127e-05
0.000266733
3.36984e-05
0.000249499
3.41145e-05
0.000232218
3.42323e-05
0.000215008
3.41152e-05
0.000197962
3.38186e-05
0.000181146
3.33891e-05
0.000164604
3.28681e-05
0.000148362
3.22942e-05
0.000132432
3.16979e-05
0.000116812
3.11036e-05
0.000101487
3.05318e-05
8.6436e-05
2.99996e-05
7.1631e-05
2.9522e-05
5.70386e-05
2.91098e-05
4.26215e-05
2.87706e-05
2.83387e-05
2.85099e-05
1.41461e-05
2.83331e-05
2.82407e-05
-1.33452e-05
4.03063e-05
-2.67676e-05
4.04495e-05
-4.0273e-05
4.07126e-05
-5.39103e-05
4.11123e-05
-6.77262e-05
4.16372e-05
-8.17622e-05
4.22782e-05
-9.60552e-05
4.30247e-05
-0.000110638
4.38635e-05
-0.000125538
4.47777e-05
-0.000140776
4.57457e-05
-0.000156364
4.67409e-05
-0.000172304
4.77307e-05
-0.000188586
4.8676e-05
-0.000205185
4.95295e-05
-0.000222055
5.02358e-05
-0.000239132
5.07294e-05
-0.000256324
5.0935e-05
-0.000273514
5.07662e-05
-0.000290549
5.01261e-05
-0.000307241
4.8907e-05
-0.000323361
4.69922e-05
-0.000338638
4.42575e-05
-0.000352755
4.05744e-05
-0.00036535
3.5814e-05
-0.000376018
2.98529e-05
-0.000384311
2.2581e-05
-0.000389748
1.3912e-05
-0.000391817
3.80234e-06
-0.00039004
-7.55745e-06
-0.000383835
-2.07801e-05
-0.00037263
-3.53964e-05
-0.000356017
-5.11331e-05
-0.000333641
-6.77699e-05
-0.000305269
-8.49241e-05
-0.000270842
-0.000102085
-0.000230515
-0.000118633
-0.000184713
-0.000133826
-0.00013417
-0.000146836
-7.99452e-05
-0.000156827
-2.34016e-05
-0.00016305
3.38794e-05
-0.000164994
9.02285e-05
-0.000162463
0.000144053
-0.000155631
0.000193981
-0.00014503
0.000238957
-0.000131433
0.000278268
-0.000115717
0.000311524
-9.87413e-05
0.000338612
-8.12657e-05
0.000359643
-6.39277e-05
0.000374896
-4.72332e-05
0.000384772
-3.15512e-05
0.000389678
-1.70318e-05
0.000390315
-4.24525e-06
0.00038718
6.9357e-06
0.000380796
1.67442e-05
0.000371672
2.50921e-05
0.000360282
3.20479e-05
0.000347066
3.77121e-05
0.000332422
4.22009e-05
0.000316702
4.56454e-05
0.000300207
4.81763e-05
0.000283195
4.9924e-05
0.000265886
5.10087e-05
0.000248453
5.15481e-05
0.000231038
5.16484e-05
0.000213751
5.14034e-05
0.000196673
5.08966e-05
0.000179863
5.01996e-05
0.000163359
4.93733e-05
0.000147179
4.84738e-05
0.00013133
4.75476e-05
0.000115805
4.663e-05
0.000100587
4.575e-05
8.56514e-05
4.49341e-05
7.09694e-05
4.42039e-05
5.65049e-05
4.35746e-05
4.22188e-05
4.30572e-05
2.80691e-05
4.26601e-05
1.40102e-05
4.23918e-05
4.2251e-05
-1.32203e-05
5.35266e-05
-2.64961e-05
5.37246e-05
-3.98693e-05
5.40854e-05
-5.33826e-05
5.46254e-05
-6.70817e-05
5.53363e-05
-8.10104e-05
5.62069e-05
-9.52094e-05
5.72238e-05
-0.000109715
5.83696e-05
-0.00012456
5.96225e-05
-0.000139769
6.09549e-05
-0.00015536
6.23328e-05
-0.000171344
6.37143e-05
-0.000187716
6.50484e-05
-0.00020446
6.62738e-05
-0.000221542
6.73174e-05
-0.000238906
6.80933e-05
-0.000256472
6.85015e-05
-0.000274134
6.84271e-05
-0.000291748
6.77401e-05
-0.000309136
6.62954e-05
-0.000326078
6.39341e-05
-0.000342307
6.04859e-05
-0.000357505
5.57729e-05
-0.000371306
4.9615e-05
-0.000383291
4.1837e-05
-0.000392989
3.22788e-05
-0.000399885
2.08082e-05
-0.000403421
7.33877e-06
-0.000403045
-7.93246e-06
-0.000398235
-2.559e-05
-0.000388202
-4.54295e-05
-0.000372472
-6.68639e-05
-0.000350586
-8.96562e-05
-0.000322196
-0.000113315
-0.000287127
-0.000137155
-0.000245433
-0.000160327
-0.000197468
-0.00018179
-0.000143958
-0.000200346
-8.60507e-05
-0.000214735
-2.53129e-05
-0.000223788
3.63594e-05
-0.000226666
9.69169e-05
-0.000223021
0.000154432
-0.000213146
0.000207308
-0.000197905
0.000254394
-0.000178518
0.000294983
-0.000156307
0.00032877
-0.000132528
0.000355749
-0.000108247
0.000376163
-8.43399e-05
0.000390415
-6.14866e-05
0.000399023
-4.01548e-05
0.000402483
-2.0493e-05
0.000401629
-3.39069e-06
0.000397008
1.15569e-05
0.000389152
2.45991e-05
0.000378624
3.56202e-05
0.000365936
4.47384e-05
0.000351542
5.21065e-05
0.000335849
5.78926e-05
0.000319212
6.22816e-05
0.000301933
6.54563e-05
0.000284261
6.75958e-05
0.000266406
6.88659e-05
0.000248533
6.94219e-05
0.000230773
6.94089e-05
0.000213224
6.89531e-05
0.000195959
6.81633e-05
0.000179023
6.71342e-05
0.000162447
6.59499e-05
0.000146241
6.46819e-05
0.000130401
6.33881e-05
0.000114915
6.21154e-05
9.97625e-05
6.0903e-05
8.49136e-05
5.97841e-05
7.03333e-05
5.87852e-05
5.59825e-05
5.79261e-05
4.18194e-05
5.72202e-05
2.77992e-05
5.66809e-05
1.38741e-05
5.63161e-05
5.61253e-05
-1.3043e-05
6.65693e-05
-2.61342e-05
6.6815e-05
-3.93283e-05
6.72789e-05
-5.26714e-05
6.79683e-05
-6.62108e-05
6.88757e-05
-7.99931e-05
6.99894e-05
-9.40627e-05
7.12937e-05
-0.000108461
7.27683e-05
-0.000123226
7.43874e-05
-0.000138389
7.61186e-05
-0.000153978
7.79215e-05
-0.000170009
7.97459e-05
-0.000186491
8.15306e-05
-0.000203419
8.32011e-05
-0.00022077
8.46685e-05
-0.000238504
8.58271e-05
-0.000256556
8.65533e-05
-0.000274833
8.67039e-05
-0.000293209
8.61155e-05
-0.000311517
8.4604e-05
-0.000329549
8.19662e-05
-0.000347045
7.7982e-05
-0.000363691
7.24186e-05
-0.000379114
6.50374e-05
-0.00039288
5.56026e-05
-0.000404494
4.38925e-05
-0.000413403
2.97175e-05
-0.000419007
1.29436e-05
-0.00042054
-6.39973e-06
-0.000417721
-2.84096e-05
-0.000409403
-5.37486e-05
-0.000395012
-8.12549e-05
-0.00037395
-0.00011072
-0.000345699
-0.000141566
-0.000309909
-0.000172945
-0.000266474
-0.000203761
-0.000215618
-0.000232647
-0.000158013
-0.000257951
-9.48985e-05
-0.00027785
-2.81271e-05
-0.00029056
3.99161e-05
-0.000294708
0.00010655
-0.000289653
0.000169309
-0.000275904
0.000226269
-0.000254867
0.000276177
-0.000228426
0.000318381
-0.000198513
0.00035272
-0.000166866
0.000379374
-0.000134901
0.000398775
-0.00010374
0.000411508
-7.42223e-05
0.000418244
-4.68925e-05
0.000419671
-2.19206e-05
0.000416839
-5.59408e-07
0.000410093
1.83026e-05
0.000400208
3.4485e-05
0.000387775
4.80565e-05
0.00037333
5.91832e-05
0.000357354
6.80821e-05
0.000340262
7.49851e-05
0.000322408
8.01364e-05
0.000304086
8.37765e-05
0.000285545
8.61371e-05
0.000266976
8.74359e-05
0.00024853
8.78692e-05
0.000230322
8.76166e-05
0.000212437
8.68366e-05
0.000194933
8.56672e-05
0.000177843
8.42255e-05
0.00016118
8.26139e-05
0.000144944
8.09184e-05
0.000129125
7.92083e-05
0.000113702
7.75406e-05
9.86431e-05
7.59629e-05
8.39126e-05
7.45146e-05
6.94712e-05
7.32261e-05
5.52755e-05
7.21205e-05
4.12803e-05
7.12152e-05
2.74349e-05
7.05253e-05
1.36912e-05
7.00598e-05
6.98161e-05
-1.28102e-05
7.93789e-05
-2.56717e-05
7.96755e-05
-3.8639e-05
8.02458e-05
-5.17637e-05
8.10929e-05
-6.50966e-05
8.22088e-05
-7.8688e-05
8.35811e-05
-9.25868e-05
8.51928e-05
-0.00010684
8.70219e-05
-0.000121493
8.90398e-05
-0.000136585
9.12106e-05
-0.000152152
9.34888e-05
-0.000168224
9.58179e-05
-0.000184821
9.81278e-05
-0.000201953
0.000100333
-0.000219615
0.00010233
-0.000237784
0.000103996
-0.000256416
0.000105184
-0.000275436
0.000105724
-0.000294738
0.000105419
-0.000314178
0.000104044
-0.000333561
0.000101349
-0.000352641
9.70613e-05
-0.000371109
9.08859e-05
-0.000388589
8.25173e-05
-0.000404633
7.16467e-05
-0.000418717
5.79764e-05
-0.000430239
4.12399e-05
-0.000438522
2.12262e-05
-0.000442765
-2.15668e-06
-0.000442515
-2.866e-05
-0.000436588
-5.96754e-05
-0.000424145
-9.36983e-05
-0.000404394
-0.00013047
-0.000376599
-0.00016936
-0.000340161
-0.000209383
-0.000294724
-0.000249198
-0.000240281
-0.00028709
-0.000177362
-0.000320869
-0.000107251
-0.000347961
-3.21542e-05
-0.000365656
4.48133e-05
-0.000371675
0.000119886
-0.000364726
0.000189749
-0.000345767
0.000252045
-0.000317164
0.000305452
-0.00028183
0.00034948
-0.000242541
0.000384221
-0.000201609
0.000410151
-0.000160833
0.000427979
-0.00012157
0.00043853
-8.47712e-05
0.000442602
-5.09621e-05
0.000441492
-2.08125e-05
0.000435811
5.12455e-06
0.000426336
2.77782e-05
0.000413826
4.6992e-05
0.000398946
6.2937e-05
0.000382268
7.58615e-05
0.000364291
8.60583e-05
0.000345442
9.38346e-05
0.000326072
9.95063e-05
0.000306468
0.000103381
0.000286859
0.000105748
0.000267421
0.000106874
0.000248286
0.000107003
0.000229547
0.000106354
0.000211271
0.000105113
0.000193495
0.000103445
0.000176233
0.000101489
0.000159483
9.93647e-05
0.000143232
9.71696e-05
0.000127456
9.49834e-05
0.000112123
9.2873e-05
9.71928e-05
9.08929e-05
8.26216e-05
8.90855e-05
6.83632e-05
8.7484e-05
5.43696e-05
8.61129e-05
4.05897e-05
8.49958e-05
2.69698e-05
8.41448e-05
1.34573e-05
8.35726e-05
8.3273e-05
-1.25235e-05
9.19018e-05
-2.5103e-05
9.22544e-05
-3.77927e-05
9.29354e-05
-5.06481e-05
9.39486e-05
-6.37242e-05
9.52853e-05
-7.70757e-05
9.6933e-05
-9.07569e-05
9.88742e-05
-0.000104821
0.000101086
-0.000119321
0.000103539
-0.000134305
0.000106195
-0.000149822
0.000109006
-0.000165914
0.00011191
-0.000182617
0.000114831
-0.000199959
0.000117675
-0.000217955
0.000120327
-0.000236606
0.000122646
-0.000255889
0.000124468
-0.00027576
0.000125595
-0.000296138
0.000125797
-0.000316903
0.000124809
-0.000337887
0.000122332
-0.00035886
0.000118034
-0.000379528
0.000111553
-0.000399516
0.000102505
-0.000418365
9.04955e-05
-0.000435522
7.51338e-05
-0.000450336
5.60541e-05
-0.000462055
3.29451e-05
-0.000469795
5.58276e-06
-0.000472804
-2.5651e-05
-0.000470191
-6.22884e-05
-0.000460486
-0.000103404
-0.000442746
-0.00014821
-0.000415956
-0.00019615
-0.000379172
-0.000246166
-0.000331667
-0.000296704
-0.000273055
-0.000345701
-0.000203545
-0.000390379
-0.000124319
-0.000427186
-3.79363e-05
-0.000452038
5.14702e-05
-0.000461082
0.000138122
-0.000451377
0.00021737
-0.000425015
0.000286343
-0.000386137
0.000343802
-0.000339289
0.000389635
-0.000288373
0.000424366
-0.000236342
0.000448911
-0.000185372
0.000464364
-0.000137024
0.000471887
-9.22927e-05
0.000472409
-5.14847e-05
0.000467833
-1.62376e-05
0.000458568
1.43905e-05
0.000445626
4.07173e-05
0.00042984
6.2777e-05
0.000411931
8.08449e-05
0.000392517
9.52758e-05
0.000372116
0.000106459
0.000351156
0.000114796
0.000329981
0.000120682
0.000308863
0.000124498
0.000288007
0.000126602
0.000267567
0.000127314
0.000247647
0.000126924
0.000228315
0.000125686
0.00020961
0.000123819
0.000191544
0.000121511
0.000174109
0.000118922
0.000157286
0.000116186
0.000141045
0.000113411
0.000125346
0.000110684
0.000110142
0.000108078
9.53833e-05
0.000105652
8.1018e-05
0.00010345
6.69919e-05
0.000101509
5.3252e-05
9.98539e-05
3.97386e-05
9.85094e-05
2.63975e-05
9.7487e-05
1.31693e-05
9.68004e-05
9.64423e-05
-1.2182e-05
0.000104083
-2.44235e-05
0.000104496
-3.67806e-05
0.000105293
-4.9312e-05
0.00010648
-6.20766e-05
0.00010805
-7.51341e-05
0.000109991
-8.85442e-05
0.000112284
-0.000102367
0.000114909
-0.000116664
0.000117836
-0.000131494
0.000121026
-0.000146918
0.00012443
-0.000162994
0.000127986
-0.000179776
0.000131613
-0.000197312
0.000135212
-0.000215643
0.000138658
-0.000234796
0.000141799
-0.000254779
0.000144453
-0.000275581
0.000146397
-0.000297156
0.000147372
-0.000319419
0.000147071
-0.000342234
0.000145146
-0.000365401
0.0001412
-0.000388646
0.000134797
-0.000411605
0.000125464
-0.000433814
0.000112705
-0.000454698
9.6017e-05
-0.000473559
7.49146e-05
-0.000489575
4.89605e-05
-0.000501806
1.78133e-05
-0.00050889
-1.85679e-05
-0.000510605
-6.05728e-05
-0.000504708
-0.000109301
-0.000489992
-0.000162926
-0.000465066
-0.000221076
-0.000428574
-0.000282659
-0.000379265
-0.000346012
-0.000316165
-0.0004088
-0.000238843
-0.0004677
-0.000148047
-0.000517983
-4.64681e-05
-0.000553617
6.05992e-05
-0.000568152
0.000163182
-0.000553958
0.000254609
-0.000516441
0.000331582
-0.000463109
0.000393355
-0.000401062
0.000440583
-0.000335594
0.000474498
-0.000270259
0.000496626
-0.000207502
0.000508543
-0.000148947
0.000511831
-9.55769e-05
0.000507953
-4.76073e-05
0.00049881
-7.0953e-06
0.000485037
2.81639e-05
0.000467793
5.79614e-05
0.000448003
8.25672e-05
0.000426446
0.0001024
0.000403774
0.000117948
0.000380517
0.000129716
0.000357098
0.000138214
0.000333844
0.000143935
0.000311002
0.000147341
0.000288747
0.000148857
0.000267197
0.000148864
0.000246424
0.000147698
0.00022646
0.00014565
0.00020731
0.000142968
0.000188959
0.000139862
0.000171373
0.000136508
0.000154511
0.00013305
0.000138319
0.000129604
0.00012274
0.000126263
0.000107714
0.000123103
9.31802e-05
0.000120185
7.90754e-05
0.000117555
6.53383e-05
0.000115246
5.19067e-05
0.000113287
3.87176e-05
0.000111699
2.57108e-05
0.000110494
1.28245e-05
0.000109686
0.000109267
-1.17832e-05
0.000115866
-2.3628e-05
0.000116341
-3.55939e-05
0.000117259
-4.77425e-05
0.00011863
-6.01367e-05
0.000120445
-7.28403e-05
0.000122694
-8.5919e-05
0.000125362
-9.944e-05
0.00012843
-0.000113473
0.000131869
-0.000128089
0.000135643
-0.000143363
0.000139705
-0.000159369
0.000143992
-0.000176181
0.000148426
-0.000193873
0.000152903
-0.000212511
0.000157296
-0.000232156
0.000161445
-0.000252855
0.000165152
-0.000274634
0.000168177
-0.000297494
0.00017023
-0.000321393
0.00017097
-0.000346241
0.000169993
-0.00037188
0.00016684
-0.000398071
0.000160987
-0.000424472
0.000151863
-0.000450623
0.000138855
-0.000475932
0.000121326
-0.00049966
9.86424e-05
-0.000520906
7.02063e-05
-0.000538596
3.55023e-05
-0.000551322
-5.84204e-06
-0.000558231
-5.36641e-05
-0.000557643
-0.000109891
-0.000547269
-0.000173301
-0.000525453
-0.000242892
-0.000490342
-0.00031777
-0.000440021
-0.000396333
-0.000372626
-0.000476194
-0.000286605
-0.000553722
-0.000181609
-0.00062298
-5.96359e-05
-0.000675589
7.35219e-05
-0.000701309
0.000198233
-0.00067867
0.000305148
-0.000623357
0.000391133
-0.000549093
0.000456869
-0.000466799
0.00050444
-0.000383168
0.000536181
-0.000301996
0.0005544
-0.00022572
0.000561302
-0.000155849
0.000558627
-9.2902e-05
0.000549345
-3.8326e-05
0.000534366
7.88275e-06
0.000515011
4.75181e-05
0.000492543
8.0431e-05
0.000467967
0.000107144
0.00044211
0.000128256
0.000415644
0.000144413
0.000389102
0.000156258
0.000362889
0.000164427
0.000337307
0.000169517
0.000312562
0.000172086
0.000288788
0.000172632
0.000266057
0.000171596
0.000244393
0.000169361
0.00022379
0.000166253
0.000204213
0.000162546
0.00018561
0.000158466
0.000167918
0.000154201
0.000151065
0.000149903
0.000134979
0.000145691
0.000119581
0.00014166
0.000104795
0.000137888
9.05483e-05
0.000134432
7.67665e-05
0.000131336
6.33806e-05
0.000128632
5.03182e-05
0.000126349
3.75156e-05
0.000124502
2.49032e-05
0.000123106
1.24199e-05
0.000122169
0.000121686
-1.13239e-05
0.000127191
-2.27112e-05
0.000127729
-3.42244e-05
0.000128773
-4.59278e-05
0.000130333
-5.78875e-05
0.000132404
-7.01717e-05
0.000134978
-8.28513e-05
0.000138042
-9.60008e-05
0.000141579
-0.000109699
0.000145567
-0.000124028
0.000149973
-0.000139077
0.000154754
-0.000154938
0.000159854
-0.000171708
0.000165196
-0.000189486
0.000170681
-0.000208372
0.000176182
-0.000228464
0.000181537
-0.000249852
0.00018654
-0.000272611
0.000190936
-0.000296796
0.000194415
-0.000322426
0.000196599
-0.000349469
0.000197037
-0.000377828
0.000195198
-0.000407313
0.000190471
-0.000437622
0.000182172
-0.000468316
0.000169549
-0.0004988
0.000151811
-0.000528304
0.000128147
-0.000555862
9.77637e-05
-0.000580288
5.99281e-05
-0.000600132
1.40025e-05
-0.00061359
-4.0207e-05
-0.000619997
-0.000103484
-0.000615739
-0.000177558
-0.000598811
-0.000259819
-0.000566765
-0.000349814
-0.000516988
-0.00044611
-0.000446429
-0.000546753
-0.000351723
-0.000648428
-0.00023021
-0.000744494
-8.12705e-05
-0.000824529
9.31091e-05
-0.000875689
0.000248892
-0.000834452
0.00037468
-0.000749145
0.000469621
-0.000644035
0.000537772
-0.000534946
0.000583684
-0.00042908
0.000611139
-0.000329448
0.000623283
-0.000237865
0.000623034
-0.0001556
0.000612983
-8.28514e-05
0.000596597
-2.19386e-05
0.000574303
3.01753e-05
0.000548161
7.36604e-05
0.000519459
0.000109134
0.000489262
0.00013734
0.000458424
0.000159093
0.000427625
0.000175213
0.000397381
0.000186503
0.000368068
0.00019374
0.000339944
0.000197643
0.000313159
0.00019887
0.00028779
0.000198
0.000263848
0.000195537
0.000241303
0.000191906
0.000220095
0.000187463
0.000200142
0.000182499
0.00018135
0.000177258
0.000163621
0.00017193
0.000146854
0.00016667
0.00013095
0.000161596
0.000115809
0.000156801
0.000101338
0.000152357
8.74514e-05
0.000148318
7.40638e-05
0.000144723
6.10972e-05
0.0001416
4.84727e-05
0.000138974
3.61214e-05
0.000136854
2.39687e-05
0.000135258
1.19513e-05
0.000134187
0.000133637
-1.0802e-05
0.000137993
-2.16686e-05
0.000138596
-3.26648e-05
0.000139769
-4.38569e-05
0.000141525
-5.5314e-05
0.000143861
-6.71077e-05
0.000146771
-7.93138e-05
0.000150247
-9.20131e-05
0.000154278
-0.000105293
0.000158846
-0.000119247
0.000163927
-0.000133979
0.000169486
-0.000149599
0.000175473
-0.000166227
0.000181823
-0.000183992
0.000188446
-0.000203028
0.000195219
-0.000223477
0.000201986
-0.000245477
0.000208541
-0.000269165
0.000214624
-0.000294658
0.00021991
-0.000322052
0.000223993
-0.000351394
0.000226379
-0.000382667
0.00022647
-0.000415757
0.000223561
-0.000450423
0.000216839
-0.00048627
0.000205396
-0.000522716
0.000188257
-0.000558974
0.000164405
-0.000594031
0.00013282
-0.00062661
9.25076e-05
-0.00065515
4.25432e-05
-0.000677474
-1.78836e-05
-0.000692291
-8.86667e-05
-0.000696724
-0.000173124
-0.000686948
-0.000269595
-0.000660326
-0.000376436
-0.00061369
-0.000492746
-0.000542698
-0.000617745
-0.000441044
-0.00075008
-0.0003025
-0.000883036
-0.000120816
-0.00100621
0.000124052
-0.00112056
0.000325272
-0.00103567
0.000472281
-0.000896151
0.000573321
-0.000745074
0.000640085
-0.00060171
0.000680994
-0.000469988
0.000701164
-0.000349618
0.000704516
-0.000241215
0.000694087
-0.000145172
0.000675316
-6.40791e-05
0.000649256
4.12338e-06
0.000618186
6.12437e-05
0.000583954
0.000107892
0.000547947
0.000145143
0.000511257
0.00017403
0.000474748
0.000195603
0.000439084
0.000210877
0.000404751
0.000220838
0.000372076
0.000226414
0.000341248
0.000228471
0.000312346
0.000227772
0.000285366
0.000224981
0.000260244
0.000220659
0.000236878
0.000215271
0.000215145
0.000209195
0.000194908
0.000202737
0.000176027
0.00019614
0.000158362
0.000189596
0.000141781
0.000183252
0.000126156
0.000177223
0.000111365
0.000171592
9.72988e-05
0.000166423
8.38555e-05
0.000161761
7.09424e-05
0.000157637
5.84695e-05
0.000154073
4.63567e-05
0.000151088
3.45252e-05
0.000148685
2.29019e-05
0.000146882
1.14162e-05
0.000145672
0.000145054
-1.02156e-05
0.000148209
-2.04966e-05
0.000148878
-3.09093e-05
0.000150182
-4.15214e-05
0.000152137
-5.24039e-05
0.000154743
-6.36312e-05
0.000157998
-7.52827e-05
0.000161898
-8.74448e-05
0.00016644
-0.000100212
0.000171614
-0.000113689
0.000177404
-0.000127992
0.000183788
-0.000143251
0.000190731
-0.000159608
0.000198181
-0.000177224
0.000206061
-0.000196271
0.000214267
-0.000216936
0.000222651
-0.000239416
0.00023102
-0.000263911
0.00023912
-0.000290622
0.000246621
-0.000319734
0.000253105
-0.000351398
0.000258043
-0.000385706
0.000260777
-0.00042265
0.000260505
-0.000462085
0.000256274
-0.000503683
0.000246994
-0.0005469
0.000231472
-0.000590952
0.000208457
-0.000634805
0.000176674
-0.000677143
0.000134846
-0.000716294
8.16931e-05
-0.000750073
1.58954e-05
-0.000775516
-6.32239e-05
-0.000791153
-0.000157487
-0.000791618
-0.00026913
-0.000773442
-0.000394611
-0.000733557
-0.000532629
-0.000666141
-0.00068516
-0.000561119
-0.000855103
-0.000411697
-0.00103246
-0.000198847
-0.00121906
0.000158395
-0.0014778
0.000434805
-0.00131208
0.000608411
-0.00106975
0.000709566
-0.000846229
0.000768019
-0.00066016
0.000798907
-0.000500878
0.000807876
-0.000358585
0.000798513
-0.000231851
0.000775748
-0.000122406
0.00074477
-3.30994e-05
0.000707021
4.18735e-05
0.000665377
0.000102888
0.000621643
0.000151628
0.000577209
0.000189576
0.00053314
0.0002181
0.000490274
0.000238469
0.000449243
0.000251908
0.000410482
0.000259599
0.000374246
0.000262653
0.000340631
0.000262088
0.000309614
0.00025879
0.000281085
0.000253509
0.000254883
0.000246859
0.00023082
0.000239333
0.000208699
0.000231317
0.000188318
0.000223118
0.000169486
0.000214973
0.000152021
0.000207061
0.000135753
0.00019952
0.000120525
0.00019245
0.000106196
0.000185921
9.26363e-05
0.000179982
7.97317e-05
0.000174666
6.73799e-05
0.00016999
5.5483e-05
0.00016597
4.39582e-05
0.000162613
3.27204e-05
0.000159922
2.16973e-05
0.000157905
1.08128e-05
0.000156556
0.000155866
-9.56376e-06
0.000157773
-1.91931e-05
0.000158507
-2.89545e-05
0.000159943
-3.89159e-05
0.000162098
-4.91491e-05
0.000164976
-5.97301e-05
0.000168578
-7.07408e-05
0.000172909
-8.2271e-05
0.000177971
-9.44213e-05
0.000183764
-0.000107305
0.000190287
-0.000121049
0.000197533
-0.000135802
0.000205483
-0.000151729
0.000214108
-0.000169022
0.000223354
-0.000187894
0.000233138
-0.000208579
0.000243336
-0.000231335
0.000253777
-0.000256439
0.000264225
-0.000284184
0.000274365
-0.000314864
0.000283784
-0.000348763
0.00029194
-0.000386117
0.000298131
-0.000427072
0.00030146
-0.00047162
0.000300821
-0.000519535
0.000294909
-0.000570332
0.000282269
-0.000623247
0.000261372
-0.000677255
0.000230682
-0.000731063
0.000188653
-0.000782999
0.000133629
-0.000830878
6.37741e-05
-0.000870974
-2.31279e-05
-0.000900187
-0.000128273
-0.000914617
-0.000254698
-0.000908077
-0.000401152
-0.000878022
-0.000562683
-0.000818309
-0.000744873
-0.000721702
-0.00095171
-0.000582257
-0.0011719
-0.000347136
-0.00145418
0.000208957
-0.00203389
0.000581768
-0.00168489
0.000787801
-0.00127579
0.000882653
-0.000941081
0.000924444
-0.00070195
0.000939442
-0.000515873
0.000932554
-0.000351697
0.000905884
-0.000205183
0.000867933
-8.44547e-05
0.000820854
1.39792e-05
0.000768997
9.37315e-05
0.000714865
0.00015702
0.000660185
0.000206308
0.000606205
0.000243556
0.000553885
0.000270419
0.000504007
0.000288346
0.000457157
0.000298759
0.000413705
0.000303051
0.000373802
0.000302556
0.000337419
0.00029847
0.000304392
0.000291816
0.000274474
0.000283426
0.000247381
0.000273953
0.000222821
0.000263894
0.000200509
0.000253629
0.000180176
0.00024345
0.000161576
0.000233572
0.000144481
0.000224156
0.000128683
0.000215318
0.000113996
0.000207137
0.000100256
0.000199661
8.73183e-05
0.00019292
7.5057e-05
0.000186927
6.33598e-05
0.000181687
5.21269e-05
0.000177204
4.12694e-05
0.00017347
3.07021e-05
0.00017049
2.03515e-05
0.000168255
1.01397e-05
0.000166768
0.000166006
-8.8466e-06
0.00016662
-1.7758e-05
0.000167418
-2.67997e-05
0.000168985
-3.60389e-05
0.000171337
-4.55467e-05
0.000174483
-5.53991e-05
0.00017843
-6.56786e-05
0.000183188
-7.64768e-05
0.000188769
-8.78968e-05
0.000195184
-0.000100057
0.000202447
-0.000113096
0.000210571
-0.000127175
0.000219562
-0.000142482
0.000229416
-0.000159239
0.000240111
-0.000177697
0.000251596
-0.000198144
0.000263783
-0.000220899
0.000276533
-0.000246321
0.000289647
-0.000274802
0.000302846
-0.000306769
0.00031575
-0.000342667
0.000327838
-0.00038293
0.000338394
-0.000427915
0.000346446
-0.000477814
0.000350719
-0.000532551
0.000349645
-0.000591719
0.000341436
-0.00065457
0.000324223
-0.000720093
0.000296204
-0.000787117
0.000255677
-0.0008542
0.000200713
-0.000919196
0.00012877
-0.000978756
3.64323e-05
-0.0010263
-8.07305e-05
-0.00105746
-0.000223533
-0.00106503
-0.000393587
-0.00104867
-0.000579039
-0.00102217
-0.000771379
-0.0010057
-0.00096818
-0.000931845
-0.00124575
-0.000560148
-0.00182588
0.000605327
-0.00319937
0.000964855
-0.00204442
0.00106977
-0.00138071
0.00109949
-0.000970803
0.0011077
-0.000710165
0.00110286
-0.000511032
0.00107571
-0.000324547
0.00102876
-0.000158227
0.000968963
-2.46591e-05
0.000902275
8.06665e-05
0.000833597
0.00016241
0.000765116
0.000225502
0.000698174
0.00027325
0.000633624
0.000308105
0.000572241
0.000331802
0.000514745
0.000345841
0.000461695
0.000351809
0.000413386
0.00035136
0.000369839
0.000346102
0.000330848
0.00033746
0.000296055
0.000326609
0.000265031
0.00031445
0.000237339
0.000301644
0.000212565
0.000288667
0.000190331
0.000275862
0.000170298
0.000263482
0.000152159
0.000251709
0.000135642
0.000240673
0.0001205
0.00023046
0.000106518
0.000221118
9.35127e-05
0.000212667
8.13241e-05
0.000205108
6.98177e-05
0.000198434
5.8875e-05
0.000192629
4.83954e-05
0.000187683
3.82881e-05
0.000183577
2.84689e-05
0.000180309
1.88639e-05
0.00017786
9.39653e-06
0.000176235
0.000175402
-8.06514e-06
0.000174685
-1.61933e-05
0.000175546
-2.44475e-05
0.000177238
-3.28934e-05
0.000179782
-4.15997e-05
0.000183189
-5.06406e-05
0.000187471
-6.00972e-05
0.000192645
-7.00597e-05
0.000198731
-8.06306e-05
0.000205755
-9.193e-05
0.000213747
-0.000104101
0.000222742
-0.000117315
0.000232777
-0.000131782
0.000243882
-0.000147749
0.000256077
-0.000165506
0.000269353
-0.000185392
0.000283668
-0.000207788
0.000298929
-0.000233132
0.00031499
-0.000261921
0.000331634
-0.000294725
0.000348555
-0.00033219
0.000365304
-0.000375011
0.000381214
-0.000423846
0.000395281
-0.000479183
0.000406055
-0.000541164
0.000411627
-0.00060947
0.000409742
-0.000683308
0.000398061
-0.000761617
0.000374512
-0.000843454
0.000337513
-0.000928131
0.000285392
-0.0010143
0.000214938
-0.00109844
0.000120575
-0.00117249
-6.6826e-06
-0.00122115
-0.000174875
-0.00124377
-0.000370964
-0.00127144
-0.000551368
-0.00140422
-0.000638598
-0.00169444
-0.000677967
-0.00191671
-0.00102348
-0.000733637
-0.00300896
0.00186262
-0.00579562
0.00237456
-0.00255636
0.00184937
-0.000855514
0.00146209
-0.000583519
0.00131926
-0.00056733
0.00128272
-0.0004745
0.00123874
-0.000280561
0.00116676
-8.62419e-05
0.00107777
6.43314e-05
0.000986879
0.000171554
0.0008985
0.000250789
0.000814105
0.000309896
0.000733889
0.000353465
0.000657923
0.000384071
0.000586729
0.000402995
0.000521052
0.000411518
0.000461496
0.000411365
0.000408299
0.000404557
0.000361308
0.000393093
0.000320063
0.000378706
0.000283931
0.000362741
0.000252241
0.00034614
0.000224367
0.000329518
0.000199759
0.000313274
0.000177946
0.000297673
0.000158519
0.000282908
0.000141118
0.000269109
0.000125423
0.000256368
0.000111152
0.000244731
9.80628e-05
0.000234208
8.59512e-05
0.000224778
7.46477e-05
0.000216411
6.40124e-05