/*--------------------------------*- C++ -*----------------------------------*\
| =========                 |                                                 |
| \\      /  F ield         | OpenFOAM: The Open Source CFD Toolbox           |
|  \\    /   O peration     | Version:  2412                                  |
|   \\  /    A nd           | Website:  www.openfoam.com                      |
|    \\/     M anipulation  |                                                 |
\*---------------------------------------------------------------------------*/
FoamFile
{
    version     2.0;
    format      ascii;
    arch        "LSB;label=32;scalar=64";
    class       volScalarField;
    location    "9.3";
    object      alpha.lava;
}
// * * * * * * * * * * * * * * * * * * * * * * * * * * * * * * * * * * * * * //

dimensions      [0 0 0 0 0 0 0];

internalField   nonuniform List<scalar> 
6400
(
1
1
1.00001
1.00001
1.00001
1.00001
1
0.999998
1
1.00001
1.00001
1.00001
1
0.999992
0.999987
0.999995
1.00001
1.00003
1.00003
1.00002
0.999988
0.999963
0.999959
0.999982
1.00002
1.00005
1.00006
1.00003
0.999988
0.999948
0.999936
0.999961
1.00001
1.00006
1.00007
1.00005
1.00001
0.99996
0.999936
0.999948
0.999988
1.00003
1.00006
1.00006
1.00003
0.999984
0.999952
0.999945
0.999965
1
1.00003
1.00005
1.00004
1.00001
0.999972
0.999953
0.999955
0.999978
1.00001
1.00003
1.00003
1.00001
0.999988
0.999968
0.999965
0.999979
1
1.00002
1.00002
1
0.999986
0.999975
0.999976
0.999988
1
1.00001
1.00001
0.999996
0.999987
0.999991
1
0.999997
0.999999
1
1.00001
1.00001
1.00001
1.00001
1
0.999999
1.00001
1.00002
1.00003
1.00003
1.00001
0.999994
0.999985
0.999993
1.00001
1.00004
1.00005
1.00003
0.999999
0.999967
0.999955
0.99997
1
1.00004
1.00005
1.00003
0.999993
0.999953
0.999936
0.999951
0.999991
1.00003
1.00005
1.00004
1.00001
0.999974
0.999952
0.999957
0.999985
1.00002
1.00005
1.00005
1.00003
1
0.999974
0.999963
0.999973
0.999996
1.00002
1.00003
1.00003
1.00001
0.999984
0.999967
0.999966
0.99998
1
1.00002
1.00002
1.00001
0.999987
0.999973
0.999971
0.999981
0.999996
1.00001
1.00001
0.999996
0.999984
0.999979
0.999983
0.999993
1
1
1
0.999998
1
0.999999
0.999996
0.999996
1
1.00001
1.00002
1.00002
1.00001
1
0.999999
1.00001
1.00003
1.00004
1.00003
1.00001
0.999989
0.999977
0.999987
1.00002
1.00005
1.00006
1.00004
0.999995
0.999953
0.999937
0.999955
0.999999
1.00004
1.00006
1.00004
0.999988
0.999939
0.999918
0.999936
0.999984
1.00003
1.00006
1.00005
1.00002
0.999972
0.999945
0.999949
0.999981
1.00002
1.00006
1.00006
1.00004
1.00001
0.999972
0.999958
0.999967
0.999995
1.00002
1.00004
1.00004
1.00001
0.999982
0.999961
0.999959
0.999976
1
1.00002
1.00002
1
0.999981
0.999965
0.999964
0.999978
0.999996
1.00001
1.00001
0.999995
0.999983
0.999979
0.999986
0.999997
1.00001
1.00001
1.00001
1
1.00001
1
0.999994
0.999993
1
1.00002
1.00003
1.00002
1.00001
0.999997
0.999995
1.00001
1.00003
1.00005
1.00004
1.00002
0.999984
0.999969
0.999981
1.00002
1.00005
1.00007
1.00004
0.999993
0.999943
0.999923
0.999944
0.999995
1.00005
1.00007
1.00004
0.999986
0.999931
0.999906
0.999926
0.999979
1.00004
1.00007
1.00006
1.00002
0.999971
0.99994
0.999943
0.999977
1.00002
1.00006
1.00007
1.00005
1.00001
0.999971
0.999953
0.999963
0.999992
1.00003
1.00004
1.00004
1.00001
0.999981
0.999958
0.999955
0.999973
0.999999
1.00002
1.00002
1
0.999978
0.999963
0.999964
0.99998
0.999998
1.00001
1.00001
0.999994
0.999983
0.999981
0.999988
1
1.00001
1.00001
0.999994
1.00001
1.00001
1
0.999991
0.99999
1
1.00002
1.00004
1.00003
1.00001
0.999993
0.999988
1
1.00003
1.00005
1.00005
1.00002
0.999982
0.99996
0.999969
1.00001
1.00005
1.00007
1.00005
0.999996
0.999941
0.999915
0.999932
0.999983
1.00004
1.00006
1.00005
0.999994
0.999937
0.999908
0.999922
0.999972
1.00003
1.00007
1.00006
1.00003
0.999981
0.999947
0.999944
0.999972
1.00002
1.00005
1.00007
1.00005
1.00001
0.999977
0.999956
0.99996
0.999985
1.00002
1.00004
1.00004
1.00001
0.999983
0.999959
0.999954
0.999969
0.999993
1.00001
1.00001
0.999998
0.999978
0.999966
0.999968
0.999982
0.999998
1.00001
1
0.999994
0.999985
0.999984
0.999993
1
1.00002
0.999985
1.00001
1.00002
1.00001
0.999999
0.999985
0.999985
1
1.00003
1.00004
1.00004
1.00001
0.999987
0.99998
0.999999
1.00003
1.00006
1.00006
1.00002
0.999977
0.999948
0.999954
0.999994
1.00004
1.00007
1.00006
1
0.99994
0.999906
0.999918
0.99997
1.00003
1.00007
1.00006
1.00001
0.999945
0.999909
0.999916
0.999962
1.00002
1.00006
1.00007
1.00004
0.999993
0.999954
0.999943
0.999964
1
1.00004
1.00006
1.00005
1.00002
0.999984
0.999958
0.999956
0.999978
1.00001
1.00003
1.00004
1.00002
0.999988
0.999963
0.999955
0.999967
0.999989
1.00001
1.00001
1
0.999982
0.999971
0.999972
0.999984
0.999998
1.00001
1
0.999995
0.999988
0.999989
0.999998
1.00002
0.99998
1
1.00002
1.00003
1.00002
0.999997
0.99998
0.999982
1
1.00003
1.00005
1.00004
1.00001
0.99998
0.999971
0.999994
1.00003
1.00007
1.00006
1.00003
0.999973
0.999937
0.999941
0.999984
1.00004
1.00008
1.00006
1.00001
0.99994
0.9999
0.999908
0.999961
1.00003
1.00007
1.00006
1.00001
0.999952
0.999911
0.999913
0.999955
1.00001
1.00006
1.00007
1.00005
1
0.999958
0.999942
0.999958
0.999995
1.00004
1.00006
1.00005
1.00003
0.999988
0.99996
0.999954
0.999972
1
1.00003
1.00003
1.00002
0.99999
0.999966
0.999957
0.999967
0.999987
1
1.00001
0.999999
0.999984
0.999974
0.999976
0.999987
0.999999
1.00001
1
0.999996
0.999991
0.999995
1.00001
0.999985
0.99999
1.00001
1.00003
1.00003
1.00002
0.999996
0.999977
0.999979
1.00001
1.00004
1.00006
1.00005
1.00001
0.999974
0.999962
0.999986
1.00003
1.00007
1.00007
1.00003
0.999969
0.999928
0.999929
0.999974
1.00004
1.00008
1.00007
1.00001
0.999943
0.999899
0.999903
0.999954
1.00002
1.00007
1.00007
1.00002
0.999962
0.999919
0.999915
0.999951
1.00001
1.00005
1.00007
1.00005
1.00001
0.999965
0.999945
0.999954
0.999987
1.00003
1.00005
1.00005
1.00003
0.999993
0.999964
0.999955
0.999969
0.999997
1.00002
1.00003
1.00002
0.999993
0.999971
0.999962
0.99997
0.999988
1
1.00001
0.999999
0.999986
0.999979
0.99998
0.99999
1
1
1
0.999997
0.999997
1
1
0.99998
0.999987
1.00001
1.00003
1.00004
1.00003
0.999995
0.999972
0.999975
1
1.00004
1.00006
1.00005
1.00001
0.999966
0.999952
0.999977
1.00003
1.00007
1.00007
1.00003
0.999968
0.999923
0.999921
0.999965
1.00003
1.00007
1.00007
1.00002
0.999949
0.999902
0.999901
0.999947
1.00001
1.00006
1.00007
1.00003
0.999972
0.999927
0.999918
0.999946
0.999997
1.00004
1.00006
1.00005
1.00001
0.999973
0.99995
0.999953
0.99998
1.00002
1.00004
1.00005
1.00003
0.999999
0.99997
0.999959
0.999968
0.999992
1.00002
1.00003
1.00002
0.999996
0.999976
0.999968
0.999974
0.999988
1
1
0.999998
0.999988
0.999983
0.999985
0.999994
1
1
1
1
0.999999
1.00002
0.999983
0.999975
0.999984
1.00001
1.00004
1.00005
1.00003
0.999993
0.999966
0.999969
1
1.00004
1.00007
1.00005
1
0.999958
0.999942
0.999968
1.00002
1.00007
1.00007
1.00003
0.999969
0.99992
0.999915
0.999958
1.00002
1.00007
1.00007
1.00002
0.999957
0.999906
0.999901
0.999941
1
1.00005
1.00006
1.00003
0.999982
0.999937
0.999923
0.999944
0.999988
1.00003
1.00006
1.00005
1.00002
0.999982
0.999956
0.999954
0.999975
1.00001
1.00004
1.00005
1.00003
1
0.999977
0.999964
0.999969
0.999989
1.00001
1.00002
1.00001
0.999998
0.999982
0.999975
0.999979
0.999989
0.999999
1
0.999998
0.999991
0.999988
0.99999
0.999997
1
1.00001
1
1
1.00003
1
0.999981
0.999971
0.999986
1.00002
1.00005
1.00005
1.00003
0.99999
0.999961
0.999965
1
1.00005
1.00007
1.00005
1
0.999953
0.999935
0.999961
1.00002
1.00007
1.00007
1.00004
0.999973
0.999922
0.999914
0.999953
1.00002
1.00007
1.00007
1.00003
0.999966
0.999916
0.999906
0.99994
0.999998
1.00005
1.00006
1.00004
0.999993
0.999949
0.99993
0.999944
0.999982
1.00002
1.00005
1.00005
1.00003
0.999991
0.999965
0.999958
0.999972
1
1.00003
1.00004
1.00003
1.00001
0.999984
0.99997
0.999971
0.999986
1
1.00001
1.00001
1
0.999987
0.999981
0.999983
0.999991
0.999998
1
0.999997
0.999993
0.999991
0.999994
1
1
1.00001
1
1.00002
1.00002
1
0.999979
0.999969
0.999986
1.00002
1.00005
1.00006
1.00003
0.999988
0.999957
0.999961
0.999999
1.00005
1.00007
1.00005
1
0.999951
0.999931
0.999957
1.00001
1.00006
1.00007
1.00004
0.999978
0.999926
0.999915
0.99995
1.00001
1.00006
1.00007
1.00003
0.999976
0.999927
0.999913
0.99994
0.999991
1.00004
1.00006
1.00004
1
0.99996
0.999938
0.999946
0.999976
1.00001
1.00004
1.00005
1.00003
0.999999
0.999973
0.999962
0.999971
0.999994
1.00002
1.00003
1.00003
1.00001
0.99999
0.999975
0.999974
0.999984
0.999998
1.00001
1.00001
1
0.999991
0.999986
0.999986
0.999992
0.999996
0.999998
0.999997
0.999994
0.999993
0.999997
1
1
1
0.999997
1.00003
1.00003
1.00001
0.999978
0.999967
0.999985
1.00002
1.00006
1.00006
1.00003
0.999985
0.999954
0.999958
0.999996
1.00004
1.00007
1.00005
1
0.99995
0.99993
0.999953
1.00001
1.00006
1.00007
1.00004
0.999984
0.999933
0.999918
0.999947
1
1.00005
1.00006
1.00004
0.999984
0.999938
0.999922
0.999941
0.999984
1.00003
1.00005
1.00004
1.00001
0.999971
0.999949
0.999951
0.999974
1.00001
1.00003
1.00004
1.00003
1.00001
0.999982
0.999969
0.999973
0.99999
1.00001
1.00003
1.00003
1.00001
0.999996
0.999982
0.999978
0.999984
0.999995
1
1.00001
1
0.999994
0.999989
0.99999
0.999993
0.999995
0.999997
0.999996
0.999995
0.999996
0.999998
1
1
0.999972
1.00003
1.00004
1.00004
1.00001
0.999977
0.999965
0.999984
1.00002
1.00005
1.00006
1.00003
0.999983
0.999952
0.999956
0.999993
1.00004
1.00006
1.00005
1
0.999953
0.999932
0.999952
1
1.00005
1.00007
1.00004
0.99999
0.999942
0.999924
0.999947
0.999995
1.00004
1.00006
1.00004
0.999992
0.99995
0.999931
0.999943
0.999978
1.00002
1.00004
1.00003
1.00001
0.999983
0.999962
0.999959
0.999975
1
1.00003
1.00004
1.00003
1.00001
0.999991
0.999977
0.999976
0.999989
1.00001
1.00002
1.00002
1.00002
1
0.999987
0.999982
0.999985
0.999993
1
1
1
0.999996
0.999993
0.999992
0.999993
0.999996
0.999996
0.999996
0.999997
0.999998
1
1
0.99996
1.00001
1.00003
1.00005
1.00003
1.00001
0.999975
0.999964
0.999983
1.00002
1.00005
1.00005
1.00002
0.999982
0.999953
0.999956
0.99999
1.00003
1.00006
1.00005
1
0.999958
0.999937
0.999953
0.999998
1.00004
1.00006
1.00004
0.999996
0.999951
0.999932
0.999949
0.999989
1.00003
1.00005
1.00003
0.999998
0.999962
0.999942
0.999948
0.999975
1.00001
1.00003
1.00003
1.00002
0.999995
0.999975
0.999969
0.999978
0.999997
1.00002
1.00003
1.00003
1.00002
0.999999
0.999985
0.999981
0.999989
1
1.00002
1.00002
1.00001
1
0.999992
0.999986
0.999987
0.999993
0.999998
1
1
0.999999
0.999996
0.999995
0.999996
0.999997
0.999997
0.999998
0.999999
1
1
0.99997
0.999985
1
1.00003
1.00004
1.00003
1
0.999973
0.999963
0.999979
1.00001
1.00004
1.00005
1.00002
0.999981
0.999954
0.999956
0.999988
1.00003
1.00005
1.00004
1.00001
0.999965
0.999945
0.999957
0.999996
1.00004
1.00005
1.00004
1
0.999963
0.999945
0.999955
0.999987
1.00002
1.00004
1.00003
1.00001
0.999976
0.999957
0.999959
0.999977
1
1.00002
1.00003
1.00002
1.00001
0.999988
0.999979
0.999982
0.999995
1.00001
1.00002
1.00003
1.00002
1.00001
0.999993
0.999987
0.999991
1
1.00001
1.00002
1.00001
1.00001
0.999998
0.999993
0.999993
0.999996
1
1
1
1
1
1
1
1
1
1
1
1
0.999993
0.999977
0.999978
0.999992
1.00002
1.00003
1.00002
0.999999
0.999971
0.99996
0.999974
1
1.00003
1.00004
1.00002
0.999982
0.999958
0.999959
0.999985
1.00002
1.00004
1.00004
1.00001
0.999975
0.999956
0.999964
0.999994
1.00003
1.00005
1.00004
1.00001
0.999979
0.999961
0.999966
0.999989
1.00002
1.00003
1.00003
1.00001
0.999991
0.999975
0.999972
0.999983
1
1.00002
1.00003
1.00002
1.00001
0.999998
0.999988
0.999987
0.999994
1.00001
1.00002
1.00002
1.00002
1.00001
1
0.999994
0.999994
1
1.00001
1.00001
1.00001
1.00001
1.00001
1
1
1
1
1.00001
1.00001
1.00001
1.00001
1.00001
1.00001
1.00001
1
1.00001
1
1.00001
0.99998
0.999967
0.999964
0.999981
1.00001
1.00002
1.00001
0.999991
0.999966
0.999955
0.999967
0.999993
1.00002
1.00003
1.00001
0.999983
0.999962
0.999961
0.999982
1.00001
1.00003
1.00003
1.00001
0.999987
0.999969
0.999973
0.999995
1.00002
1.00004
1.00004
1.00002
0.999997
0.999981
0.999981
0.999996
1.00002
1.00003
1.00004
1.00003
1.00001
0.999994
0.999987
0.999991
1
1.00002
1.00002
1.00002
1.00002
1.00001
0.999996
0.999991
0.999994
1
1.00001
1.00002
1.00002
1.00001
1.00001
1
1
1
1.00001
1.00002
1.00002
1.00002
1.00002
1.00001
1.00001
1.00001
1.00001
1.00002
1.00002
1.00002
1.00002
1.00002
1.00002
1.00001
1.00001
1
1.00001
0.999989
0.999971
0.999959
0.999961
0.999976
0.999995
1.00001
1
0.999985
0.999966
0.999959
0.999968
0.999989
1.00001
1.00002
1.00001
0.999986
0.999971
0.999969
0.999985
1.00001
1.00003
1.00003
1.00002
0.999997
0.999983
0.999984
0.999999
1.00002
1.00004
1.00004
1.00003
1.00001
0.999998
0.999996
1
1.00002
1.00003
1.00003
1.00003
1.00002
1.00001
0.999999
0.999998
1
1.00001
1.00002
1.00002
1.00002
1.00001
1
0.999996
0.999996
1
1.00001
1.00002
1.00002
1.00002
1.00001
1.00001
1.00001
1.00001
1.00001
1.00002
1.00002
1.00002
1.00002
1.00002
1.00002
1.00002
1.00002
1.00002
1.00002
1.00002
1.00002
1.00002
1.00002
1.00002
1.00001
0.999706
0.99951
0.99946
0.999545
0.999689
0.999459
0.999262
0.999405
0.999694
0.999426
0.999197
0.999349
0.999678
0.999403
0.999184
0.999356
0.999723
0.999463
0.999236
0.999374
0.99973
0.99951
0.999312
0.99944
0.999784
0.999613
0.999419
0.999489
0.999783
0.99969
0.999528
0.999564
0.999802
0.999796
0.99964
0.999608
0.999758
0.999858
0.999723
0.999657
0.999735
0.999882
0.999796
0.999685
0.999681
0.999809
0.999821
0.999695
0.999644
0.99975
0.99985
0.999714
0.99962
0.999697
0.99985
0.999727
0.999614
0.999679
0.999862
0.999754
0.999629
0.999676
0.999861
0.999774
0.99966
0.999705
0.99988
0.999814
0.999724
0.999769
0.99991
0.999856
0.999805
0.999856
0.999948
0.999904
0.9999
0.999948
0.999957
0.999962
0.000271099
0.000468554
0.000519041
0.000428091
0.000273653
0.000490756
0.000680335
0.000537165
0.000253439
0.000525914
0.000756069
0.000600297
0.000264126
0.000533963
0.000755946
0.000593098
0.000238259
0.000507373
0.000736695
0.000595133
0.000235766
0.000455551
0.000660327
0.00054585
0.000215427
0.000394531
0.00059165
0.000518651
0.000220633
0.000313821
0.00048194
0.00045636
0.000228295
0.000240023
0.000397137
0.00042476
0.000267911
0.000163555
0.000297943
0.000365297
0.000290488
0.000144718
0.000229574
0.000335491
0.000332922
0.000197398
0.000180348
0.000304684
0.000356667
0.000252717
0.000155239
0.000292901
0.000387288
0.000308968
0.000154725
0.000277637
0.000391913
0.000331468
0.000152513
0.000265387
0.000393687
0.000349379
0.000165034
0.000252564
0.000367491
0.000323177
0.000149603
0.000216921
0.000307312
0.000261875
0.000119647
0.000171733
0.000219895
0.000166397
7.21038e-05
0.000113291
0.000115205
6.68902e-05
6.14026e-05
5.39513e-05
6.77217e-20
1.82316e-16
3.4481e-14
5.17372e-14
1.15671e-14
1.43657e-18
4.18023e-18
1.77648e-18
1.7733e-19
4.82339e-16
1.44579e-13
1.59087e-13
1.17688e-18
1.928e-18
1.928e-18
2.47452e-18
3.33503e-19
5.22698e-16
1.69105e-13
1.82324e-13
1.15994e-18
1.96929e-18
1.9967e-18
1.152e-18
2.17092e-21
1.42282e-17
1.07081e-13
1.35219e-13
-1.16029e-18
3.37659e-19
7.75861e-19
4.2138e-19
2.63277e-22
2.9932e-18
3.6603e-14
7.45028e-14
-5.236e-19
-1.28402e-33
8.16897e-20
1.0542e-19
-1.28486e-50
6.35611e-21
-1.72902e-19
3.26283e-14
2.78716e-14
2.29575e-15
1.77914e-19
1.10241e-19
4.11126e-20
8.1098e-24
-2.24384e-24
1.32516e-14
2.76761e-14
1.1132e-19
1.88267e-19
1.47267e-19
1.64465e-19
2.51668e-20
1.01783e-19
4.62408e-15
1.85378e-14
1.04705e-14
2.92568e-17
1.0482e-19
5.05887e-20
1.41353e-21
1.41366e-21
-4.37571e-20
5.58803e-15
2.94493e-15
1.88248e-17
3.15996e-20
1.71978e-20
1.77362e-21
6.8202e-22
1.44077e-16
1.41201e-16
2.98625e-18
1.50336e-22
3.21906e-25
8.49542e-21
3.44418e-20
7.56547e-19
1.15152e-18
1.61068e-19
1.42853e-18
5.29681e-18
1.93271e-18
2.77564e-21
3.01553e-20
3.71901e-18
3.7895e-18
1.37508e-18
2.934e-18
9.36067e-18
1.82515e-18
3.3556e-21
3.15876e-20
3.86601e-18
3.57076e-18
9.84433e-19
1.96936e-18
6.14657e-18
3.76374e-20
2.29818e-26
1.97943e-22
1.4905e-18
1.5007e-18
3.46511e-20
3.37653e-19
1.36244e-18
5.50508e-23
-7.9541e-48
5.97766e-24
7.90705e-20
2.70032e-19
-7.48994e-23
-5.4162e-22
1.07908e-45
1.32005e-29
-2.77129e-21
8.40833e-20
-9.0774e-22
1.52576e-20
3.53618e-25
-3.96046e-24
6.28926e-21
-1.4516e-32
-1.01334e-42
-9.8666e-32
6.13045e-31
-1.64736e-19
1.49127e-19
-1.42405e-20
7.55531e-19
1.06312e-19
1.58816e-19
2.51581e-20
1.73602e-23
3.7546e-20
1.93056e-19
8.28748e-20
1.24484e-22
9.09176e-20
2.19241e-19
4.32302e-20
2.11846e-19
1.18602e-20
6.30718e-20
2.79647e-20
1.17763e-22
2.9112e-20
2.68893e-20
2.17426e-21
2.47017e-24
6.80801e-22
1.12265e-21
2.15073e-23
2.85531e-22
3.21532e-25
6.15057e-25
8.70491e-26
8.02214e-24
1.61285e-23
3.92711e-24
1.25811e-23
5.04216e-23
3.76758e-23
4.4554e-26
1.47832e-26
1.47803e-23
5.3865e-23
4.24279e-24
8.06304e-24
1.8627e-23
4.45568e-23
2.90486e-26
1.9441e-26
1.09238e-25
2.44045e-23
4.3748e-25
7.35504e-27
-8.04293e-24
2.66513e-24
1.29395e-26
1.42112e-22
-9.18355e-39
-1.46561e-28
-4.9696e-26
-5.45866e-28
-4.70795e-24
-5.28998e-28
-1.05056e-24
1.36476e-24
-8.60963e-40
-3.50792e-28
-1.65738e-34
-3.33337e-30
-6.67336e-26
-3.3995e-29
-9.66275e-25
-7.99802e-29
-4.27244e-33
-2.3367e-26
-1.24835e-30
-1.44208e-33
-1.44797e-35
-7.33968e-27
-7.41818e-31
-7.95086e-35
1.2258e-30
-3.32168e-28
-2.9645e-24
-6.93765e-29
2.81977e-47
-1.05957e-27
-9.08143e-25
8.89917e-26
1.65886e-23
-5.65461e-24
8.76746e-25
7.67343e-25
3.66521e-24
1.09466e-24
1.38546e-24
6.48998e-25
1.06757e-23
-7.04502e-25
7.43636e-25
4.14029e-25
1.40086e-24
4.6318e-25
5.08975e-25
4.26317e-26
2.46482e-24
4.56291e-26
2.2236e-26
7.38588e-25
9.73879e-27
3.16143e-25
5.56052e-24
3.50467e-26
2.39098e-25
3.02867e-25
9.06225e-26
2.16325e-26
5.22192e-25
8.28973e-25
6.86228e-26
1.37258e-26
5.43208e-25
9.74465e-25
6.00638e-26
1.02231e-26
4.46782e-25
8.3067e-25
3.86439e-26
1.9435e-26
1.95856e-25
4.30291e-25
2.12828e-26
8.94627e-27
2.63328e-26
1.0247e-25
4.99893e-27
1.31641e-27
-3.82995e-29
-4.14135e-36
1.20724e-29
2.19908e-29
7.00527e-42
7.07994e-42
7.60094e-42
7.60379e-42
7.6292e-42
-8.21883e-42
2.72602e-36
4.9716e-33
1.44684e-43
6.21532e-44
0
1.55714e-44
5.61141e-39
7.78711e-39
5.3846e-38
5.38474e-38
5.95044e-31
5.26466e-35
1.68766e-36
1.69537e-36
1.49503e-30
-7.4038e-30
-1.49886e-31
7.70021e-30
1.56813e-28
-2.49696e-28
2.35088e-28
6.6332e-27
3.2369e-27
5.38056e-29
9.98959e-27
2.82168e-26
9.17716e-27
2.1311e-27
2.56059e-26
3.90366e-26
8.76069e-27
2.37642e-27
1.93683e-26
1.92657e-26
2.79211e-27
1.82255e-27
8.2346e-27
3.69861e-27
3.20765e-28
6.95614e-28
7.16249e-28
1.13422e-28
7.33412e-29
1.73557e-28
1.39381e-26
2.99931e-29
6.1519e-29
1.69599e-29
1.87639e-29
4.71741e-30
5.80138e-29
3.09989e-29
1.42743e-29
6.51178e-30
7.48904e-29
6.31666e-29
1.23338e-29
3.40252e-30
9.98727e-29
3.4195e-29
7.7594e-30
5.90139e-30
4.96142e-29
1.80734e-29
2.42033e-30
7.57176e-31
4.095e-30
2.24682e-30
2.53444e-34
6.82148e-33
-7.42331e-35
7.46671e-39
1.01329e-38
1.18535e-38
1.34566e-38
1.4233e-38
1.40993e-38
1.30787e-38
1.10334e-38
8.31747e-39
5.46904e-39
3.16593e-39
1.43684e-39
4.55924e-40
7.85991e-41
4.47776e-44
8.92908e-42
1.12205e-38
1.04213e-37
3.64942e-37
8.38847e-37
1.45814e-36
2.10832e-36
2.48632e-36
2.44146e-36
3.13844e-36
3.43876e-36
4.38374e-36
2.5198e-35
-2.47103e-33
2.3999e-33
1.73245e-31
1.6292e-31
1.47451e-32
8.64518e-31
7.8055e-31
1.42653e-30
4.73752e-31
2.0548e-30
1.58283e-30
9.2722e-31
4.52824e-31
1.82683e-30
9.53533e-31
1.60945e-31
2.79999e-31
7.4594e-31
2.14374e-31
3.59237e-33
2.41948e-32
3.31423e-32
9.25113e-34
2.39516e-33
3.06431e-33
5.00639e-32
6.48144e-35
1.55253e-34
1.01245e-34
5.446e-35
6.39462e-36
2.00614e-34
2.37952e-34
3.40003e-35
7.25953e-39
1.37513e-34
2.23473e-34
2.22524e-35
2.26911e-36
7.8032e-35
1.03507e-34
8.63722e-36
2.38583e-36
1.33721e-35
1.22415e-35
9.36061e-37
8.61275e-38
1.73615e-37
2.05146e-38
4.23557e-43
5.07574e-45
4.01388e-45
5.74058e-45
7.47153e-45
9.01012e-45
1.00445e-44
1.04107e-44
1.00761e-44
9.20352e-45
7.60308e-45
5.56124e-45
3.48638e-45
1.89355e-45
8.23761e-46
2.55982e-46
4.26952e-47
2.21529e-50
4.04843e-49
2.65818e-47
3.62878e-44
2.61649e-43
8.77976e-43
1.94521e-42
3.28272e-42
4.29254e-42
4.39051e-42
3.61235e-42
2.33379e-42
1.17316e-42
4.1387e-43
1.20635e-43
-1.20331e-38
1.76617e-38
3.96162e-38
2.3531e-36
7.25459e-37
1.99805e-36
1.21697e-36
6.19886e-37
5.1886e-36
7.45144e-36
2.03224e-36
9.12044e-37
6.21537e-36
5.69475e-36
8.91364e-37
8.23978e-37
3.14506e-36
1.36103e-36
6.6189e-38
2.73004e-37
2.80829e-37
1.9193e-38
2.85938e-38
1.17658e-38
2.89974e-37
8.12247e-40
4.15898e-39
3.07928e-39
1.5275e-39
1.18852e-40
5.62015e-39
7.23395e-39
9.08047e-40
1.3592e-43
3.29682e-39
6.04211e-39
4.91835e-40
3.61819e-41
1.27623e-39
2.22365e-39
1.38256e-40
1.23065e-43
1.06054e-40
1.38121e-40
6.86084e-42
5.62697e-45
2.30054e-43
1.79187e-45
2.2217e-50
3.60652e-51
4.01945e-51
5.55596e-51
6.96986e-51
8.07068e-51
8.60179e-51
8.4384e-51
7.77536e-51
6.74728e-51
5.29564e-51
3.68602e-51
2.19928e-51
1.12351e-51
4.58629e-52
1.36737e-52
2.22316e-53
1.16015e-56
1.93606e-55
1.88724e-54
4.75624e-51
1.26434e-49
7.07759e-49
2.11152e-48
4.30072e-48
6.32599e-48
6.90241e-48
5.74552e-48
3.66061e-48
1.77477e-48
6.04147e-49
1.0989e-49
-3.35925e-43
2.67981e-44
1.63775e-43
5.52474e-43
8.7035e-42
2.76175e-41
1.58533e-41
1.10426e-41
1.05535e-40
1.63125e-40
4.40151e-41
2.24263e-41
1.59211e-40
1.50643e-40
2.34873e-41
2.26078e-41
8.83464e-41
3.88421e-41
1.95369e-42
8.34774e-42
8.4121e-42
5.79782e-43
8.63011e-43
2.26461e-43
1.04337e-41
2.92783e-44
1.64274e-43
1.21608e-43
6.02841e-44
5.68349e-45
2.23347e-43
2.76437e-43
3.44028e-44
6.55851e-48
1.22251e-43
2.10062e-43
1.63048e-44
1.33867e-45
3.85663e-44
6.22371e-44
3.53644e-45
6.10415e-48
2.35924e-45
2.32335e-45
8.83107e-47
6.92965e-49
1.16842e-48
1.49041e-51
2.3136e-56
3.40419e-57
4.75798e-57
6.32126e-57
7.59648e-57
8.36538e-57
8.45155e-57
7.80883e-57
6.74167e-57
5.46443e-57
4.00317e-57
2.59099e-57
1.43984e-57
6.84313e-58
2.58134e-58
7.15432e-59
1.10284e-59
5.94313e-63
1.04109e-61
6.36302e-61
7.02154e-60
2.4492e-56
3.49163e-55
1.6193e-54
4.30889e-54
7.61423e-54
9.36334e-54
8.28516e-54
5.47431e-54
2.65927e-54
8.84071e-55
1.50528e-55
-1.20943e-47
2.76232e-50
1.30896e-48
4.41634e-48
1.45538e-46
5.13701e-46
3.29691e-46
2.78976e-46
2.85512e-45
4.59767e-45
1.30749e-45
7.509e-46
5.41752e-45
5.1243e-45
8.12356e-46
8.35942e-46
3.25847e-45
1.42663e-45
7.25625e-47
3.26216e-46
3.22866e-46
2.18647e-47
3.35388e-47
7.73654e-48
4.69513e-46
1.28928e-48
7.73704e-48
5.71952e-48
2.85304e-48
2.63945e-49
9.73622e-48
1.25443e-47
1.54272e-48
3.68782e-52
5.13609e-48
8.62442e-48
6.46075e-49
5.82569e-50
1.37558e-48
2.07103e-48
1.08775e-49
3.12959e-52
6.21633e-50
4.71239e-50
1.39904e-51
1.25233e-53
6.95001e-54
2.9619e-57
2.81162e-62
4.24429e-63
6.16845e-63
7.80626e-63
8.87906e-63
9.21748e-63
8.70477e-63
7.48308e-63
5.98875e-63
4.49876e-63
3.06094e-63
1.83684e-63
9.47812e-64
4.20457e-64
1.48302e-64
3.85241e-65
5.62426e-66
3.20727e-69
6.16952e-68
3.85528e-67
1.73743e-66
7.51884e-64
1.05819e-61
8.93778e-61
3.36691e-60
7.56511e-60
1.09878e-59
1.05772e-59
7.56324e-60
3.87181e-60
1.30292e-60
2.20568e-61
-6.45676e-52
-1.50485e-73
1.37934e-53
6.87472e-53
2.94863e-51
1.18394e-50
8.49028e-51
8.58357e-51
9.40469e-50
1.5635e-49
4.68975e-50
3.01589e-50
2.22443e-49
2.10839e-49
3.41682e-50
3.71619e-50
1.44329e-49
6.33049e-50
3.27985e-51
1.52925e-50
1.49357e-50
9.99548e-52
1.56673e-51
3.29486e-52
2.45542e-50
7.31196e-53
4.28707e-52
3.15422e-52
1.55468e-52
1.70798e-53
5.3169e-52
6.6514e-52
8.04669e-53
2.34909e-56
2.61556e-52
4.17102e-52
3.00751e-53
2.89025e-54
5.83581e-53
8.14193e-53
3.94789e-54
1.75819e-56
1.94326e-54
1.14859e-54
2.69301e-56
2.02054e-58
5.53442e-59
9.29502e-63
3.62742e-68
6.00639e-69
8.38958e-69
9.9865e-69
1.06222e-68
1.0253e-68
8.93506e-69
7.04191e-69
5.13853e-69
3.52263e-69
2.21425e-69
1.22691e-69
5.87565e-70
2.44475e-70
8.19104e-71
2.04677e-71
2.91961e-72
2.01398e-75
4.29906e-74
2.73921e-73
1.16933e-72
9.30404e-72
2.70023e-68
4.30819e-67
2.30559e-66
6.70711e-66
1.18534e-65
1.2558e-65
9.77531e-66
5.4825e-66
1.9711e-66
3.42396e-67
-4.97702e-56
5.66385e-74
1.95045e-58
1.33001e-57
7.17141e-56
3.31172e-55
2.63794e-55
3.14113e-55
3.68801e-54
6.357e-54
2.0049e-54
1.42699e-54
1.07112e-53
1.02071e-53
1.69346e-54
1.94174e-54
7.50269e-54
3.30213e-54
1.74369e-55
8.37838e-55
8.10343e-55
5.35692e-56
8.58921e-56
1.66399e-56
1.47985e-54
4.34987e-57
2.69309e-56
1.97999e-56
9.73858e-57
1.09408e-57
3.1753e-56
4.04329e-56
4.81374e-57
1.6872e-60
1.51053e-56
2.32429e-56
1.61946e-57
1.64317e-58
2.88674e-57
3.73881e-57
1.67366e-58
1.56686e-60
7.09214e-59
3.34989e-59
6.26485e-61
3.70747e-63
5.80818e-64
4.20031e-68
5.11723e-74
9.08848e-75
1.19493e-74
1.32782e-74
1.3159e-74
1.17256e-74
9.41046e-75
6.77005e-75
4.48693e-75
2.83084e-75
1.63972e-75
8.44126e-76
3.84139e-76
3.8476e-76
6.1227e-76
5.4508e-75
4.43185e-75
1.62976e-77
2.28534e-79
2.25679e-79
8.87518e-79
6.24732e-78
2.60937e-75
1.45459e-73
1.2487e-72
5.01762e-72
1.1469e-71
1.43639e-71
1.23685e-71
7.72794e-72
3.11281e-72
5.88477e-73
-5.68224e-60
0
3.5142e-63
3.1071e-62
2.08357e-60
1.10195e-59
9.78018e-60
1.34825e-59
1.68808e-58
3.03241e-58
9.99055e-59
7.79924e-59
5.96503e-58
5.7225e-58
9.735e-59
1.16972e-58
4.49028e-58
1.98668e-58
1.07073e-59
5.25104e-59
5.056e-59
3.32454e-60
5.40398e-60
9.73359e-61
1.00175e-58
3.15714e-61
1.92372e-60
1.40844e-60
6.87703e-61
8.53966e-62
2.21657e-60
2.78307e-60
3.2642e-61
1.35172e-64
9.93784e-61
1.47636e-60
9.95138e-62
1.0597e-62
1.64133e-61
1.97841e-61
8.19519e-63
1.18624e-64
3.00554e-63
1.15082e-63
1.74767e-65
8.0866e-68
7.91438e-69
2.67321e-73
7.9118e-80
1.49901e-80
1.84159e-80
1.91066e-80
1.74562e-80
1.42632e-80
1.04719e-80
6.78307e-81
4.05232e-81
2.36313e-81
2.37276e-81
3.84968e-80
3.36045e-77
6.47234e-75
7.23953e-74
1.10295e-73
1.05646e-73
5.58413e-74
9.59661e-78
2.22502e-82
4.91159e-84
4.87938e-84
4.99847e-83
1.48853e-80
4.51682e-79
3.05017e-78
1.00368e-77
1.63762e-77
1.63497e-77
1.14363e-77
5.18889e-78
1.12296e-78
-8.84539e-64
-3.67276e-68
6.20219e-68
8.60751e-67
7.16237e-65
4.31082e-64
4.25238e-64
6.72537e-64
8.93002e-63
1.67298e-62
5.74316e-63
4.85167e-63
3.79463e-62
3.66317e-62
6.36683e-63
8.01682e-63
3.05035e-62
1.35487e-62
7.43512e-64
3.71412e-63
3.56359e-63
2.32609e-64
3.84653e-64
6.468e-65
7.57143e-63
2.4315e-65
1.52295e-64
1.11356e-64
5.41685e-65
7.07087e-66
1.70399e-64
2.13854e-64
2.47707e-65
1.19891e-68
7.34467e-65
1.05893e-64
6.91135e-66
7.69715e-67
1.06349e-65
1.19527e-65
4.60061e-67
8.68351e-69
1.4647e-67
4.6439e-68
5.80863e-70
2.11714e-72
1.37589e-73
2.33745e-78
1.41064e-85
2.7287e-86
3.12122e-86
2.99684e-86
2.50699e-86
1.85732e-86
1.23285e-86
1.23703e-86
1.38046e-85
2.03342e-82
2.9016e-79
2.74238e-76
2.34848e-73
4.05454e-71
4.17776e-70
6.53283e-70
6.21375e-70
3.1586e-70
5.97389e-74
1.33876e-78
5.2814e-83
3.69718e-87
5.04423e-88
5.03722e-88
1.00489e-85
1.59717e-84
8.21608e-84
1.87258e-83
2.35605e-83
1.83088e-83
9.11746e-84
2.23772e-84
-1.76542e-67
-4.81205e-70
0
1.79555e-71
2.81451e-69
1.98463e-68
2.14602e-68
3.87831e-68
5.39129e-67
1.05531e-66
3.77313e-67
3.40067e-67
2.7232e-66
2.65206e-66
4.70568e-67
6.17134e-67
2.33079e-66
1.03718e-66
5.77813e-68
2.93048e-67
2.80432e-67
1.82004e-68
3.0555e-68
4.82374e-69
6.31226e-67
2.13092e-69
1.33526e-68
9.75572e-69
4.71252e-69
6.57178e-70
1.46344e-68
1.82118e-68
2.08569e-69
1.17029e-72
6.0452e-69
8.50123e-69
5.38247e-70
6.26642e-71
7.79298e-70
8.19184e-70
2.94172e-71
6.56104e-73
8.20148e-72
2.19054e-72
2.28868e-74
6.66228e-77
3.01305e-78
2.75752e-83
3.01399e-91
5.40642e-92
5.76271e-92
5.08992e-92
5.09343e-92
1.02723e-91
1.85519e-88
4.8245e-85
9.27431e-82
1.41907e-78
1.68483e-75
1.55191e-72
1.31575e-69
2.16482e-67
2.10184e-66
3.23517e-66
3.07737e-66
1.56501e-66
3.29359e-70
7.28642e-75
3.12487e-79
2.08653e-83
1.22921e-87
4.07641e-91
2.75999e-91
7.618e-91
6.4253e-90
2.09656e-89
3.56658e-89
3.21975e-89
1.71694e-89
5.01347e-90
-4.45841e-71
-2.98303e-73
0
-2.23255e-71
1.43579e-74
1.12016e-72
1.24851e-72
2.5586e-72
3.70469e-71
7.5398e-71
2.79689e-71
2.67523e-71
2.16766e-70
2.14634e-70
3.88547e-71
5.2883e-71
1.98296e-70
8.81735e-71
4.97017e-72
2.55697e-71
2.44035e-71
1.57905e-72
2.6849e-72
3.98432e-73
5.76453e-71
2.01893e-73
1.28028e-72
9.37293e-73
4.49597e-73
6.63377e-74
1.38321e-72
1.70699e-72
1.93398e-73
1.24935e-76
5.4994e-73
7.58691e-73
4.67379e-74
5.67597e-75
6.40761e-74
6.33784e-74
2.13258e-75
5.23926e-77
5.27559e-76
1.19695e-76
1.06608e-78
2.5177e-81
8.22847e-83
4.31708e-88
8.03249e-97
1.19857e-97
1.24183e-97
4.35752e-95
1.52154e-91
4.62481e-88
1.21875e-84
2.73726e-81
5.05635e-78
7.49691e-75
8.63983e-72
7.78802e-69
6.54071e-66
1.02248e-63
9.3089e-63
1.40889e-62
1.34033e-62
6.80983e-63
1.59591e-66
3.51991e-71
1.64992e-75
1.2248e-79
8.15564e-84
6.86027e-88
7.21988e-92
3.13231e-95
2.26172e-95
2.26136e-95
5.35884e-95
6.13883e-95
3.47735e-95
1.19667e-95
-1.3933e-74
-1.68911e-76
0
-1.2204e-73
3.92607e-91
7.97012e-77
8.35099e-77
1.91555e-76
2.88867e-75
6.06763e-75
2.32518e-75
2.33683e-75
1.18943e-74
1.86083e-74
3.55721e-75
5.00378e-75
1.86253e-74
8.2662e-75
4.69381e-76
2.45025e-75
2.33258e-75
1.50986e-76
2.58658e-76
3.62567e-77
5.72804e-75
2.09599e-77
1.33581e-76
9.8144e-77
4.67388e-77
7.29212e-78
1.42963e-76
1.75079e-76
1.96199e-77
1.45159e-80
5.50994e-77
7.48503e-77
4.50151e-78
5.69833e-79
5.88835e-78
5.51037e-78
1.74616e-79
4.70436e-81
3.87325e-80
7.5947e-81
5.85252e-83
1.13952e-85
2.77725e-87
8.83019e-93
1.49392e-98
1.66106e-98
6.90826e-95
2.59548e-91
8.54044e-88
2.44197e-84
6.29852e-81
1.36899e-77
2.44836e-74
3.51743e-71
3.93472e-68
3.47387e-65
2.89077e-62
4.2788e-60
3.63411e-59
5.40168e-59
5.14004e-59
2.6041e-59
6.81254e-63
1.51272e-67
7.79639e-72
6.48056e-76
4.9097e-80
4.73089e-84
5.71919e-88
7.21917e-92
1.28947e-95
2.40131e-99
1.18682e-100
1.18004e-100
7.1579e-101
2.42361e-98
-5.26457e-78
-1.00053e-79
-6.09112e-84
-3.28994e-76
0
3.77186e-81
6.48475e-81
1.61971e-80
2.53617e-79
5.46984e-79
2.15e-79
2.08814e-79
-1.11358e-75
6.25495e-80
3.90164e-79
5.19618e-79
1.91558e-78
8.47313e-79
4.8203e-80
2.55516e-79
2.42753e-79
1.56166e-80
2.71706e-80
3.59366e-81
6.15461e-79
2.34098e-81
1.50673e-80
1.11124e-80
5.26465e-81
8.68247e-82
1.60891e-80
1.95464e-80
2.16746e-81
1.82764e-84
6.03741e-81
8.1198e-81
4.78638e-82
6.31398e-83
6.02053e-82
5.36241e-82
1.60954e-83
4.71279e-85
3.23959e-84