/*--------------------------------*- C++ -*----------------------------------*\
| =========                 |                                                 |
| \\      /  F ield         | OpenFOAM: The Open Source CFD Toolbox           |
|  \\    /   O peration     | Version:  2412                                  |
|   \\  /    A nd           | Website:  www.openfoam.com                      |
|    \\/     M anipulation  |                                                 |
\*---------------------------------------------------------------------------*/
FoamFile
{
    version     2.0;
    format      ascii;
    arch        "LSB;label=32;scalar=64";
    class       volScalarField;
    location    "1.65";
    object      p;
}
// * * * * * * * * * * * * * * * * * * * * * * * * * * * * * * * * * * * * * //

dimensions      [1 -1 -2 0 0 0 0];

internalField   nonuniform List<scalar> 
6400
(
24093.6
24089.2
24085.8
24083.3
24082.3
24082.6
24082.1
24078.3
24070
24058.9
24048.4
24041.8
24039.9
24040.5
24039.1
24032.8
24021.8
24009.6
24000.6
23997
23998
24000.1
24000.4
23997.6
23992.7
23987.8
23984.6
23983.5
23984
23985.1
23986.1
23986.8
23987.4
23988.2
23989.3
23990.7
23992.3
23993.9
23995.8
23997.8
24000.1
24002.8
24005.6
24008.7
24012
24015.3
24018.7
24022.1
24025.6
24029.1
24032.6
24035.9
24038.9
24041.4
24043.5
24045
24045.8
24045.9
24045.1
24043.2
24039.9
24035.6
24030.4
24024.6
24018.5
24011.8
24004
23994.9
23984.6
23974.5
23965.9
23959.7
23955.3
23950.7
23943.7
23933.7
23922.1
23912.2
23906.5
23904.6
22868
22865.6
22862.6
22858.2
22853.7
22851
22850.2
22849.6
22846.9
22840.1
22830
22819.4
22811.7
22808.4
22808.2
22807.4
22803
22794.4
22784.2
22775.7
22771.1
22770.2
22770.7
22770.4
22768.3
22765
22761.7
22759.6
22758.8
22759
22759.7
22760.3
22760.9
22761.6
22762.6
22763.9
22765.4
22767.2
22769
22770.9
22773.1
22775.5
22778.2
22781.2
22784.4
22787.7
22791.2
22794.7
22798.2
22801.7
22805.2
22808.5
22811.5
22814
22816
22817.4
22818
22818
22817.3
22815.7
22812.9
22808.9
22803.7
22797.6
22791
22784.4
22777.5
22769.8
22760.8
22750.5
22739.9
22730.6
22724.3
22721.1
22719.5
22717.1
22711.8
22703.4
22693.4
22681.2
21641.2
21641.3
21639.8
21635.1
21628.2
21621.7
21618.1
21617.6
21618
21615.8
21608.5
21596.8
21584.5
21575.9
21573.1
21574
21574.5
21570.9
21562.7
21552.5
21544.1
21539.6
21538.7
21539.4
21539.6
21538.3
21536
21533.8
21532.5
21532.2
21532.7
21533.5
21534.4
21535.2
21536.3
21537.6
21539.2
21541
21543
21545
21547.1
21549.4
21551.9
21554.6
21557.7
21560.9
21564.3
21567.7
21571.1
21574.5
21577.8
21580.9
21583.8
21586.3
21588.2
21589.4
21589.9
21589.6
21588.7
21587.2
21584.8
21581.2
21576.2
21569.9
21562.8
21555.7
21549
21542.6
21535.3
21526.1
21514.9
21503.2
21493.7
21488.9
21488.9
21491.2
21491.7
21486.6
21476.2
21460.7
20412.1
20414
20414.5
20411.7
20404.6
20395.4
20387.6
20383.9
20384.3
20385.7
20383.5
20374.9
20361.4
20348
20339.6
20337.9
20340.2
20341.4
20337.9
20329.7
20319.8
20312.2
20308.6
20308.4
20309.5
20310
20309.2
20307.5
20306.1
20305.5
20305.8
20306.6
20307.6
20308.6
20309.7
20311
20312.6
20314.4
20316.4
20318.5
20320.6
20322.9
20325.2
20327.8
20330.6
20333.7
20336.9
20340.2
20343.5
20346.7
20349.8
20352.7
20355.5
20357.9
20359.8
20361
20361.3
20360.8
20359.5
20357.8
20355.5
20352.4
20348
20341.9
20334.5
20326.6
20319.4
20313.3
20307.7
20300.9
20291.2
20278.8
20266.3
20257.5
20255
20258.3
20262.9
20262.9
20256.1
20242.6
19181.7
19183.3
19185.1
19185.1
19180.8
19172
19161.2
19152.3
19148.7
19149.9
19152
19149.6
19140.1
19125.7
19112.1
19104.4
19103.7
19106.4
19107.6
19104.2
19096.6
19088.1
19081.9
19079.4
19079.5
19080.6
19081
19080.4
19079.4
19078.8
19078.8
19079.5
19080.5
19081.6
19082.8
19084
19085.5
19087.2
19089.1
19091.2
19093.4
19095.6
19097.9
19100.3
19102.9
19105.8
19108.8
19111.9
19115
19118.1
19121
19123.7
19126.2
19128.5
19130.4
19131.7
19132.1
19131.5
19129.9
19127.8
19125.3
19122.4
19118.7
19113.5
19106.4
19098
19089.6
19082.7
19077.7
19073.2
19066.9
19056.8
19043.6
19030.9
19023.2
19023
19028
19032.4
19031.4
19024.2
17952.5
17950.9
17951.8
17953.5
17953.3
17948.3
17938.2
17925.7
17915.9
17912.4
17914.5
17917.2
17914.8
17904.9
17890.3
17877.1
17870.1
17869.7
17872.4
17873.5
17870.4
17864
17857.2
17852.4
17850.6
17850.9
17851.7
17852
17851.8
17851.4
17851.4
17852
17852.9
17854.1
17855.3
17856.5
17857.9
17859.4
17861.2
17863.1
17865.3
17867.5
17869.8
17872.2
17874.6
17877.2
17880
17882.9
17885.8
17888.7
17891.4
17893.9
17896.1
17898.1
17899.9
17901.3
17901.9
17901.5
17899.9
17897.4
17894.4
17891.4
17888.1
17884
17878
17869.9
17860.6
17852.1
17845.9
17842.3
17839.3
17833.5
17823.2
17809.6
17797.5
17791.5
17792.9
17798.4
17802.4
17802.6
16725
16719.3
16716.8
16717.4
16719.6
16719.9
16714.5
16703
16689.1
16678.6
16675.5
16678.4
16681.6
16679.2
16669.2
16655
16642.7
16636.5
16636.3
16638.7
16639.5
16636.9
16631.8
16626.5
16623.1
16621.8
16622.1
16622.8
16623.2
16623.3
16623.4
16623.9
16624.8
16626
16627.2
16628.5
16629.8
16631.1
16632.7
16634.5
16636.5
16638.6
16640.9
16643.2
16645.5
16647.9
16650.4
16653.1
16655.8
16658.6
16661.2
16663.4
16665.4
16667
16668.4
16669.7
16670.5
16670.6
16669.3
16666.8
16663.3
16659.7
16656.3
16652.9
16648.4
16641.8
16632.8
16622.8
16614.4
16609.4
16607.5
16605.7
16600.4
16590.1
16577
16566.3
16562.4
16565.3
16571
16576.3
15497.8
15489.5
15483.3
15480.1
15481
15484.2
15485.1
15479.2
15466.4
15451.5
15440.9
15438.3
15441.8
15445.2
15442.7
15433
15420
15409
15403.7
15403.6
15405.4
15405.9
15403.7
15399.8
15396
15393.6
15392.9
15393.3
15393.9
15394.4
15394.8
15395.3
15396
15397.2
15398.4
15399.8
15401.1
15402.4
15403.8
15405.4
15407.1
15409.1
15411.2
15413.4
15415.6
15417.9
15420.2
15422.5
15425
15427.6
15430.1
15432.4
15434.1
15435.4
15436.4
15437.3
15438
15438.4
15437.7
15435.7
15432.2
15428
15423.9
15420.5
15417.1
15412.4
15405.1
15395.3
15384.9
15377
15373.4
15373
15372.2
15367.3
15357.4
15345.8
15337.5
15335.9
15339.8
15346
14267.8
14260.7
14252.9
14245.4
14241.7
14243.3
14247.5
14248.7
14242.2
14228.6
14213.3
14203.1
14201.2
14204.8
14207.9
14205.3
14196.4
14185
14175.8
14171.4
14171.2
14172.4
14172.6
14170.9
14168.1
14165.6
14164.2
14163.9
14164.4
14165
14165.5
14166.1
14166.8
14167.8
14169
14170.4
14171.7
14173
14174.3
14175.7
14177.2
14179
14180.9
14182.9
14185
14187.1
14189.2
14191.3
14193.5
14195.8
14198.2
14200.4
14202.3
14203.5
14204.1
14204.5
14204.8
14205
14204.9
14203.6
14200.7
14196.4
14191.6
14187.3
14184.1
14181
14176.1
14168.3
14157.9
14147.5
14140.4
14138.1
14138.8
14138.5
14134
14125.2
14116
14110.6
14110.6
14114.3
13032.3
13030
13024.2
13015.1
13006.2
13002.2
13004.6
13009.5
13010.6
13003.7
12989.9
12975
12965.7
12964.2
12967.5
12969.9
12967.4
12959.7
12950.2
12942.8
12939.3
12939
12939.7
12939.7
12938.4
12936.6
12935.1
12934.5
12934.6
12935.2
12935.8
12936.4
12937.1
12938
12939
12940.3
12941.6
12942.9
12944.2
12945.5
12946.8
12948.3
12949.9
12951.8
12953.7
12955.7
12957.6
12959.5
12961.4
12963.3
12965.4
12967.5
12969.5
12970.8
12971.5
12971.4
12971.2
12971
12970.8
12970.2
12968.3
12964.6
12959.6
12954.4
12950.3
12947.4
12944.6
12939.7
12931.5
12920.9
12911
12904.9
12903.7
12905
12905
12901.1
12894.1
12887.3
12883.8
12883.5
11791.6
11794.7
11793.6
11786.8
11775.8
11765.9
11762.2
11765.1
11770.3
11771.2
11764
11750.6
11736.9
11728.6
11727.4
11730.1
11731.8
11729.3
11723
11715.5
11709.9
11707.2
11706.9
11707.2
11707.1
11706.3
11705.3
11704.6
11704.5
11704.9
11705.5
11706.2
11706.9
11707.6
11708.5
11709.6
11710.8
11712.1
11713.3
11714.6
11715.8
11717
11718.4
11720
11721.7
11723.5
11725.3
11727.1
11728.7
11730.2
11731.9
11733.7
11735.6
11737.2
11738.1
11738.1
11737.5
11736.6
11736
11735.5
11734.5
11732
11727.6
11722
11716.7
11713
11710.7
11708.3
11703.4
11695.1
11684.8
11675.7
11670.9
11670.6
11672.2
11672.3
11669.1
11663.6
11658.4
11654.7
10548.5
10554
10557.3
10555.6
10547.2
10535.1
10525.1
10521.8
10525.1
10530.1
10530.5
10523.4
10511.1
10499.1
10492
10490.9
10492.9
10493.9
10491.6
10486.6
10481
10476.9
10475
10474.7
10474.8
10474.7
10474.3
10473.9
10473.7
10474
10474.6
10475.3
10476
10476.7
10477.4
10478.3
10479.3
10480.4
10481.6
10482.8
10484
10485.1
10486.3
10487.5
10489
10490.6
10492.3
10493.9
10495.4
10496.7
10497.9
10499.3
10500.8
10502.4
10503.6
10504.1
10503.5
10502.3
10501
10500.1
10499.4
10498
10494.9
10490
10484.1
10478.9
10475.7
10474.1
10472
10467.3
10459.2
10449.7
10441.9
10438.3
10438.8
10440.7
10440.8
10437.9
10433.2
10428
9306.82
9310.22
9314.78
9317.78
9315.11
9305.95
9293.76
9284.3
9281.58
9284.83
9289.13
9288.98
9282.32
9271.57
9261.55
9255.85
9254.84
9256
9256.35
9254.38
9250.62
9246.66
9243.87
9242.6
9242.37
9242.46
9242.44
9242.29
9242.23
9242.43
9242.93
9243.61
9244.34
9245.05
9245.74
9246.45
9247.26
9248.19
9249.22
9250.3
9251.39
9252.44
9253.46
9254.5
9255.65
9256.98
9258.48
9260.04
9261.49
9262.69
9263.64
9264.52
9265.54
9266.81
9268.1
9268.95
9268.87
9267.78
9266.09
9264.52
9263.47
9262.59
9260.88
9257.37
9252.04
9246.12
9241.41
9238.91
9237.86
9236.08
9231.54
9224.01
9215.62
9209.42
9207.27
9208.42
9210.15
9209.84
9207.02
9202.38
8068.74
8066.7
8068.75
8073.16
8075.83
8072.82
8063.68
8052.16
8043.71
8041.57
8044.46
8047.8
8047.12
8041.17
8032.29
8024.36
8019.93
8018.98
8019.51
8019.41
8017.77
8015.09
8012.45
8010.69
8009.93
8009.82
8009.91
8009.98
8010.04
8010.23
8010.63
8011.23
8011.94
8012.65
8013.33
8013.97
8014.62
8015.35
8016.18
8017.1
8018.07
8019.04
8019.97
8020.86
8021.77
8022.79
8024
8025.38
8026.79
8028.02
8028.93
8029.53
8030.06
8030.77
8031.76
8032.76
8033.21
8032.67
8031.13
8029.13
8027.44
8026.39
8025.44
8023.5
8019.67
8014.22
8008.58
8004.51
8002.72
8002.15
8000.59
7996.32
7989.59
7982.65
7978.19
7977.34
7978.86
7980.13
7979.48
7976.73
6833.09
6825.77
6823.35
6825.5
6830.09
6832.59
6829.45
6820.84
6810.61
6803.52
6801.89
6804.17
6806.45
6805.35
6800.3
6793.37
6787.44
6784.16
6783.3
6783.38
6783.02
6781.74
6779.93
6778.3
6777.29
6776.92
6776.94
6777.08
6777.23
6777.42
6777.74
6778.22
6778.84
6779.52
6780.18
6780.79
6781.37
6781.94
6782.58
6783.3
6784.11
6784.97
6785.83
6786.63
6787.37
6788.13
6789.01
6790.09
6791.32
6792.56
6793.56
6794.17
6794.44
6794.66
6795.1
6795.84
6796.53
6796.61
6795.66
6793.8
6791.68
6790.06
6789.12
6788.17
6786.08
6782.15
6776.87
6771.8
6768.53
6767.42
6767.18
6765.73
6761.79
6756.04
6750.7
6747.9
6748.06
6749.63
6750.61
6750.09
5596.34
5586.99
5581.15
5579.42
5582.2
5586.65
5588.6
5585.42
5577.82
5569.37
5563.81
5562.61
5564.17
5565.43
5564.09
5560.05
5554.96
5550.8
5548.5
5547.77
5547.58
5547.13
5546.19
5545.06
5544.14
5543.65
5543.55
5543.67
5543.86
5544.07
5544.33
5544.69
5545.18
5545.75
5546.36
5546.94
5547.47
5547.96
5548.45
5548.99
5549.61
5550.31
5551.06
5551.8
5552.46
5553.05
5553.65
5554.37
5555.3
5556.37
5557.41
5558.16
5558.49
5558.48
5558.45
5558.68
5559.19
5559.59
5559.32
5558.07
5556.06
5554.04
5552.65
5551.92
5551.03
5548.92
5545.1
5540.31
5536.06
5533.67
5533.15
5533.08
5531.65
5528.12
5523.45
5519.68
5518.3
5519.17
5520.82
5522.02
4355.18
4347.72
4341.48
4337.18
4336.63
4339.51
4343.18
4344.36
4341.35
4335.16
4328.72
4324.68
4323.8
4324.66
4325.1
4323.73
4320.72
4317.24
4314.52
4313
4312.42
4312.12
4311.69
4311.06
4310.41
4309.96
4309.8
4309.85
4310.03
4310.23
4310.46
4310.73
4311.08
4311.51
4312
4312.5
4312.99
4313.42
4313.82
4314.22
4314.67
4315.19
4315.79
4316.43
4317.03
4317.55
4317.99
4318.43
4319
4319.76
4320.65
4321.47
4321.97
4322.04
4321.82
4321.63
4321.72
4322.04
4322.18
4321.63
4320.22
4318.28
4316.54
4315.52
4315.05
4314.28
4312.28
4308.84
4304.8
4301.56
4300.05
4299.95
4299.89
4298.45
4295.37
4291.82
4289.48
4289.28
4290.69
4292.63
3108.86
3104.95
3101.09
3097.2
3094.79
3095.02
3097.44
3099.98
3100.38
3097.77
3093.2
3088.77
3086.11
3085.46
3085.74
3085.62
3084.41
3082.35
3080.18
3078.54
3077.6
3077.16
3076.85
3076.5
3076.1
3075.77
3075.6
3075.59
3075.71
3075.89
3076.08
3076.28
3076.52
3076.81
3077.15
3077.54
3077.94
3078.31
3078.66
3078.97
3079.29
3079.64
3080.07
3080.57
3081.09
3081.56
3081.93
3082.22
3082.52
3082.94
3083.53
3084.21
3084.78
3085.03
3084.91
3084.59
3084.34
3084.36
3084.53
3084.44
3083.73
3082.36
3080.74
3079.49
3078.91
3078.71
3078.07
3076.34
3073.54
3070.53
3068.4
3067.64
3067.72
3067.44
3065.92
3063.34
3060.91
3059.9
3060.67
3062.6
1859.06
1856.9
1856
1854.92
1853.5
1852.74
1853.3
1854.81
1856.03
1855.8
1853.91
1851.13
1848.64
1847.17
1846.69
1846.57
1846.2
1845.31
1844.12
1842.97
1842.13
1841.6
1841.29
1841.05
1840.81
1840.6
1840.46
1840.42
1840.47
1840.58
1840.71
1840.86
1841.01
1841.19
1841.41
1841.65
1841.93
1842.2
1842.47
1842.71
1842.94
1843.17
1843.44
1843.75
1844.11
1844.47
1844.77
1845
1845.16
1845.33
1845.6
1845.97
1846.38
1846.66
1846.71
1846.51
1846.22
1846.03
1846.02
1846.05
1845.84
1845.19
1844.2
1843.2
1842.58
1842.43
1842.42
1842.01
1840.84
1839.08
1837.36
1836.27
1835.9
1835.72
1835.01
1833.48
1831.62
1830.5
1830.96
1833.08
609.425
607.217
607.566
608.487
608.998
609.136
609.251
609.519
609.838
609.935
609.633
608.99
608.248
607.66
607.318
607.152
607.006
606.781
606.468
606.137
605.853
605.649
605.508
605.405
605.315
605.238
605.181
605.153
605.155
605.181
605.221
605.27
605.324
605.384
605.453
605.533
605.621
605.717
605.813
605.906
605.993
606.075
606.157
606.249
606.353
606.466
606.573
606.659
606.716
606.753
606.793
606.857
606.947
607.034
607.075
607.044
606.954
606.857
606.804
606.803
606.796
606.712
606.515
606.261
606.062
606.013
606.097
606.19
606.136
605.862
605.441
605.027
604.721
604.46
604.07
603.426
602.65
602.164
602.656
604.786
-10.0477
-10.0401
-10.0431
-10.0463
-10.0482
-10.05
-10.0516
-10.0525
-10.0531
-10.0535
-10.0537
-10.0539
-10.054
-10.0539
-10.0538
-10.0535
-10.0532
-10.0528
-10.0522
-10.0511
-10.0499
-10.0488
-10.0476
-10.0464
-10.0452
-10.0441
-10.0429
-10.0418
-10.0408
-10.0394
-10.0378
-10.0364
-10.0351
-10.0338
-10.0329
-10.0324
-10.0322
-10.0322
-10.0325
-10.0332
-10.0342
-10.0353
-10.0365
-10.0364
-10.0365
-10.0369
-10.0374
-10.0379
-10.0386
-10.0393
-10.04
-10.0408
-10.0416
-10.0424
-10.0432
-10.0438
-10.0442
-10.0444
-10.0436
-10.042
-10.0403
-10.0387
-10.0372
-10.0357
-10.0343
-10.0331
-10.0321
-10.0314
-10.0308
-10.0305
-10.0303
-10.0304
-10.0311
-10.0318
-10.0325
-10.0333
-10.0335
-10.0335
-10.0311
-10.0315
-10.5458
-10.5459
-10.5457
-10.5456
-10.5456
-10.5456
-10.5457
-10.5457
-10.5456
-10.5456
-10.5456
-10.5456
-10.5456
-10.5456
-10.5456
-10.5456
-10.5456
-10.5456
-10.5456
-10.5456
-10.5456
-10.5456
-10.5456
-10.5456
-10.5456
-10.5456
-10.5456
-10.5456
-10.5456
-10.5456
-10.5456
-10.5456
-10.5456
-10.5456
-10.5456
-10.5456
-10.5456
-10.5456
-10.5456
-10.5456
-10.5456
-10.5456
-10.5456
-10.5456
-10.5456
-10.5456
-10.5456
-10.5456
-10.5456
-10.5456
-10.5456
-10.5456
-10.5456
-10.5456
-10.5456
-10.5456
-10.5456
-10.5456
-10.5456
-10.5456
-10.5456
-10.5456
-10.5456
-10.5456
-10.5457
-10.5457
-10.5456
-10.5456
-10.5457
-10.5457
-10.5457
-10.5457
-10.5457
-10.5457
-10.5457
-10.5457
-10.5457
-10.5457
-10.5457
-10.5457
-11.0362
-11.0363
-11.0362
-11.0361
-11.0361
-11.0361
-11.0362
-11.0362
-11.0361
-11.0361
-11.0361
-11.0361
-11.0361
-11.0361
-11.0361
-11.0361
-11.0361
-11.0361
-11.0361
-11.0361
-11.0361
-11.0361
-11.0361
-11.0361
-11.0361
-11.0361
-11.0361
-11.0361
-11.0361
-11.0361
-11.0361
-11.0361
-11.0361
-11.0361
-11.0361
-11.0361
-11.0361
-11.0361
-11.0361
-11.0361
-11.0361
-11.0361
-11.0361
-11.0361
-11.0361
-11.0361
-11.0361
-11.0361
-11.0361
-11.0361
-11.0361
-11.0361
-11.0361
-11.0361
-11.0361
-11.0361
-11.0361
-11.0361
-11.0361
-11.0361
-11.0361
-11.0361
-11.0361
-11.0361
-11.0362
-11.0362
-11.0362
-11.0362
-11.0362
-11.0362
-11.0362
-11.0362
-11.0362
-11.0362
-11.0362
-11.0362
-11.0362
-11.0362
-11.0362
-11.0362
-11.5265
-11.5267
-11.5267
-11.5267
-11.5266
-11.5266
-11.5266
-11.5267
-11.5267
-11.5266
-11.5266
-11.5266
-11.5266
-11.5266
-11.5266
-11.5266
-11.5266
-11.5266
-11.5266
-11.5266
-11.5266
-11.5266
-11.5266
-11.5266
-11.5266
-11.5266
-11.5266
-11.5266
-11.5266
-11.5266
-11.5266
-11.5266
-11.5266
-11.5266
-11.5266
-11.5266
-11.5266
-11.5266
-11.5266
-11.5266
-11.5266
-11.5266
-11.5266
-11.5266
-11.5266
-11.5266
-11.5266
-11.5266
-11.5266
-11.5266
-11.5266
-11.5266
-11.5266
-11.5266
-11.5266
-11.5266
-11.5266
-11.5266
-11.5266
-11.5266
-11.5266
-11.5266
-11.5266
-11.5266
-11.5266
-11.5267
-11.5267
-11.5267
-11.5267
-11.5267
-11.5267
-11.5267
-11.5267
-11.5267
-11.5267
-11.5267
-11.5267
-11.5267
-11.5267
-11.5267
-12.017
-12.0171
-12.0172
-12.0172
-12.0172
-12.0171
-12.0171
-12.0171
-12.0172
-12.0172
-12.0171
-12.0171
-12.0171
-12.0171
-12.0171
-12.0171
-12.0171
-12.0171
-12.0171
-12.0171
-12.0171
-12.0171
-12.0171
-12.0171
-12.0171
-12.0171
-12.0171
-12.0171
-12.0171
-12.0171
-12.0171
-12.0171
-12.0171
-12.0171
-12.0171
-12.0171
-12.0171
-12.0171
-12.0171
-12.0171
-12.0171
-12.0171
-12.0171
-12.0171
-12.0171
-12.0171
-12.0171
-12.0171
-12.0171
-12.0171
-12.0171
-12.0171
-12.0171
-12.0171
-12.0171
-12.0171
-12.0171
-12.0171
-12.0171
-12.0171
-12.0171
-12.0171
-12.0172
-12.0171
-12.0171
-12.0172
-12.0172
-12.0172
-12.0172
-12.0172
-12.0172
-12.0172
-12.0172
-12.0172
-12.0172
-12.0172
-12.0172
-12.0172
-12.0172
-12.0172
-12.5077
-12.5076
-12.5076
-12.5077
-12.5077
-12.5077
-12.5076
-12.5076
-12.5077
-12.5077
-12.5077
-12.5076
-12.5076
-12.5076
-12.5076
-12.5076
-12.5076
-12.5076
-12.5076
-12.5076
-12.5076
-12.5076
-12.5076
-12.5076
-12.5076
-12.5076
-12.5076
-12.5076
-12.5076
-12.5076
-12.5076
-12.5076
-12.5076
-12.5076
-12.5076
-12.5076
-12.5076
-12.5076
-12.5076
-12.5076
-12.5076
-12.5076
-12.5076
-12.5076
-12.5076
-12.5076
-12.5076
-12.5076
-12.5076
-12.5076
-12.5076
-12.5076
-12.5076
-12.5076
-12.5076
-12.5076
-12.5076
-12.5076
-12.5076
-12.5076
-12.5076
-12.5076
-12.5077
-12.5077
-12.5077
-12.5077
-12.5077
-12.5077
-12.5077
-12.5077
-12.5077
-12.5077
-12.5077
-12.5077
-12.5077
-12.5077
-12.5077
-12.5077
-12.5077
-12.5077
-12.9982
-12.9981
-12.9981
-12.9981
-12.9982
-12.9982
-12.9982
-12.9981
-12.9981
-12.9982
-12.9982
-12.9982
-12.9981
-12.9981
-12.9981
-12.9981
-12.9981
-12.9981
-12.9981
-12.9981
-12.9981
-12.9981
-12.9981
-12.9981
-12.9981
-12.9981
-12.9981
-12.9981
-12.9981
-12.9981
-12.9981
-12.9981
-12.9981
-12.9981
-12.9981
-12.9981
-12.9981
-12.9981
-12.9981
-12.9981
-12.9981
-12.9981
-12.9981
-12.9981
-12.9981
-12.9981
-12.9981
-12.9981
-12.9981
-12.9981
-12.9981
-12.9981
-12.9981
-12.9981
-12.9981
-12.9981
-12.9981
-12.9981
-12.9981
-12.9981
-12.9981
-12.9981
-12.9982
-12.9982
-12.9982
-12.9982
-12.9982
-12.9982
-12.9982
-12.9982
-12.9982
-12.9982
-12.9982
-12.9982
-12.9982
-12.9982
-12.9982
-12.9982
-12.9982
-12.9982
-13.4887
-13.4887
-13.4887
-13.4886
-13.4886
-13.4887
-13.4887
-13.4887
-13.4886
-13.4887
-13.4887
-13.4887
-13.4887
-13.4886
-13.4886
-13.4886
-13.4886
-13.4886
-13.4886
-13.4886
-13.4886
-13.4886
-13.4886
-13.4886
-13.4886
-13.4886
-13.4886
-13.4886
-13.4886
-13.4886
-13.4886
-13.4886
-13.4886
-13.4886
-13.4886
-13.4886
-13.4886
-13.4886
-13.4886
-13.4886
-13.4886
-13.4886
-13.4886
-13.4886
-13.4886
-13.4886
-13.4886
-13.4886
-13.4886
-13.4886
-13.4886
-13.4886
-13.4886
-13.4886
-13.4886
-13.4886
-13.4886
-13.4886
-13.4886
-13.4887
-13.4887
-13.4886
-13.4887
-13.4887
-13.4887
-13.4887
-13.4887
-13.4887
-13.4887
-13.4887
-13.4887
-13.4887
-13.4887
-13.4887
-13.4887
-13.4887
-13.4887
-13.4887
-13.4887
-13.4887
-13.9791
-13.9792
-13.9792
-13.9792
-13.9791
-13.9791
-13.9792
-13.9792
-13.9792
-13.9792
-13.9792
-13.9792
-13.9792
-13.9791
-13.9791
-13.9791
-13.9791
-13.9791
-13.9791
-13.9791
-13.9791
-13.9791
-13.9791
-13.9791
-13.9791
-13.9791
-13.9791
-13.9791
-13.9791
-13.9791
-13.9791
-13.9791
-13.9791
-13.9791
-13.9791
-13.9791
-13.9791
-13.9791
-13.9791
-13.9791
-13.9791
-13.9791
-13.9791
-13.9791
-13.9791
-13.9791
-13.9791
-13.9791
-13.9791
-13.9791
-13.9791
-13.9791
-13.9791
-13.9791
-13.9791
-13.9791
-13.9791
-13.9791
-13.9791
-13.9792
-13.9792
-13.9792
-13.9791
-13.9792
-13.9792
-13.9792
-13.9792
-13.9792
-13.9792
-13.9792
-13.9792
-13.9792
-13.9792
-13.9792
-13.9792
-13.9792
-13.9792
-13.9792
-13.9792
-13.9792
-14.4696
-14.4697
-14.4697
-14.4697
-14.4697
-14.4696
-14.4697
-14.4697
-14.4697
-14.4697
-14.4697
-14.4697
-14.4697
-14.4697
-14.4696
-14.4696
-14.4696
-14.4696
-14.4696
-14.4696
-14.4696
-14.4696
-14.4696
-14.4696
-14.4696
-14.4696
-14.4696
-14.4696
-14.4696
-14.4696
-14.4696
-14.4696
-14.4696
-14.4696
-14.4696
-14.4696
-14.4696
-14.4696
-14.4696
-14.4696
-14.4696
-14.4696
-14.4696
-14.4696
-14.4696
-14.4696
-14.4696
-14.4696
-14.4696
-14.4696
-14.4696
-14.4696
-14.4696
-14.4696
-14.4696
-14.4696
-14.4697
-14.4696
-14.4696
-14.4696
-14.4697
-14.4697
-14.4697
-14.4696
-14.4697
-14.4697
-14.4697
-14.4697
-14.4697
-14.4697
-14.4697
-14.4697
-14.4697
-14.4697
-14.4697
-14.4697
-14.4697
-14.4697
-14.4697
-14.4697
-14.9601
-14.9601
-14.9602
-14.9602
-14.9602
-14.9602
-14.9602
-14.9602
-14.9602
-14.9602
-14.9602
-14.9602
-14.9601
-14.9602
-14.9601
-14.9601
-14.9601
-14.9601
-14.9601
-14.9601
-14.9601
-14.9601
-14.9601
-14.9601
-14.9601
-14.9601
-14.9601
-14.9601
-14.9601
-14.9601
-14.9601
-14.9601
-14.9601
-14.9601
-14.9601
-14.9601
-14.9601
-14.9601
-14.9601
-14.9601
-14.9601
-14.9601
-14.9601
-14.9601
-14.9601
-14.9601
-14.9601
-14.9601
-14.9601
-14.9601
-14.9601
-14.9601
-14.9601
-14.9601
-14.9601
-14.9601
-14.9602
-14.9602
-14.9601
-14.9601
-14.9602
-14.9602
-14.9602
-14.9602
-14.9602
-14.9602
-14.9602
-14.9602
-14.9602
-14.9602
-14.9602
-14.9602
-14.9602
-14.9602
-14.9602
-14.9602
-14.9602
-14.9602
-14.9602
-14.9602
-15.4507
-15.4507
-15.4507
-15.4507
-15.4507
-15.4507
-15.4507
-15.4507
-15.4507
-15.4507
-15.4507
-15.4507
-15.4507
-15.4506
-15.4506
-15.4506
-15.4506
-15.4506
-15.4506
-15.4506
-15.4506
-15.4506
-15.4506
-15.4506
-15.4506
-15.4506
-15.4506
-15.4506
-15.4506
-15.4506
-15.4506
-15.4506
-15.4506
-15.4506
-15.4506
-15.4506
-15.4506
-15.4506
-15.4506
-15.4506
-15.4506
-15.4506
-15.4506
-15.4506
-15.4506
-15.4506
-15.4506
-15.4506
-15.4506
-15.4506
-15.4506
-15.4506
-15.4507
-15.4507
-15.4506
-15.4506
-15.4506
-15.4507
-15.4507
-15.4506
-15.4506
-15.4507
-15.4507
-15.4507
-15.4507
-15.4507
-15.4507
-15.4507
-15.4507
-15.4507
-15.4507
-15.4507
-15.4507
-15.4507
-15.4507
-15.4507
-15.4507
-15.4507
-15.4507
-15.4507
-15.9412
-15.9412
-15.9412
-15.9412
-15.9412
-15.9412
-15.9412
-15.9412
-15.9412
-15.9412
-15.9412
-15.9412
-15.9412
-15.9412
-15.9412
-15.9411
-15.9411
-15.9411
-15.9411
-15.9411
-15.9411
-15.9411
-15.9411
-15.9411
-15.9411
-15.9411
-15.9411
-15.9411
-15.9411
-15.9411
-15.9411
-15.9411
-15.9411
-15.9411
-15.9411
-15.9411
-15.9411
-15.9411
-15.9411
-15.9411
-15.9411
-15.9411
-15.9411
-15.9411
-15.9411
-15.9411
-15.9411
-15.9411
-15.9411
-15.9411
-15.9411
-15.9411
-15.9411
-15.9412
-15.9412
-15.9411
-15.9411
-15.9412
-15.9412
-15.9412
-15.9411
-15.9411
-15.9412
-15.9412
-15.9412
-15.9412
-15.9412
-15.9412
-15.9412
-15.9412
-15.9412
-15.9412
-15.9412
-15.9412
-15.9412
-15.9412
-15.9412
-15.9412
-15.9412
-15.9412
-16.4317
-16.4317
-16.4317
-16.4317
-16.4317
-16.4317
-16.4317
-16.4317
-16.4317
-16.4317
-16.4317
-16.4317
-16.4317
-16.4317
-16.4317
-16.4317
-16.4316
-16.4316
-16.4316
-16.4316
-16.4316
-16.4316
-16.4316
-16.4316
-16.4316
-16.4316
-16.4316
-16.4316
-16.4316
-16.4316
-16.4316
-16.4316
-16.4316
-16.4316
-16.4316
-16.4316
-16.4316
-16.4316
-16.4316
-16.4316
-16.4316
-16.4316
-16.4316
-16.4316
-16.4316
-16.4316
-16.4316
-16.4316
-16.4316
-16.4316
-16.4317
-16.4316
-16.4316
-16.4316
-16.4317
-16.4317
-16.4316
-16.4316
-16.4317
-16.4317
-16.4317
-16.4317
-16.4316
-16.4317
-16.4317
-16.4317
-16.4317
-16.4317
-16.4317
-16.4317
-16.4317
-16.4317
-16.4317
-16.4317
-16.4317
-16.4317
-16.4317
-16.4317
-16.4317
-16.4317
-16.9222
-16.9222
-16.9222
-16.9222
-16.9222
-16.9222
-16.9222
-16.9222
-16.9222
-16.9222
-16.9222
-16.9222
-16.9222
-16.9222
-16.9222
-16.9222
-16.9222
-16.9222
-16.9221
-16.9221
-16.9221
-16.9221
-16.9221
-16.9221
-16.9221
-16.9221
-16.9221
-16.9221
-16.9221
-16.9221
-16.9221
-16.9221
-16.9221
-16.9221
-16.9221
-16.9221
-16.9221
-16.9221
-16.9221
-16.9221
-16.9221
-16.9221
-16.9221
-16.9221
-16.9221
-16.9221
-16.9221
-16.9221
-16.9221
-16.9221
-16.9222
-16.9222
-16.9221
-16.9221
-16.9222
-16.9222
-16.9222
-16.9221
-16.9221
-16.9222
-16.9222
-16.9222
-16.9222
-16.9222
-16.9222
-16.9222
-16.9222
-16.9222
-16.9222
-16.9222
-16.9222
-16.9222
-16.9222
-16.9222
-16.9222
-16.9222
-16.9222
-16.9222
-16.9222
-16.9222
-17.4127
-17.4127
-17.4127
-17.4127
-17.4127
-17.4127
-17.4127
-17.4127
-17.4127
-17.4127
-17.4127
-17.4127
-17.4127
-17.4127
-17.4127
-17.4127
-17.4127
-17.4127
-17.4127
-17.4127
-17.4127
-17.4126
-17.4126
-17.4126
-17.4126
-17.4126
-17.4126
-17.4126
-17.4126
-17.4126
-17.4126
-17.4126
-17.4126
-17.4126
-17.4126
-17.4126
-17.4126
-17.4126
-17.4126
-17.4126
-17.4126
-17.4126
-17.4126
-17.4126
-17.4126
-17.4126
-17.4126
-17.4126
-17.4126
-17.4126
-17.4126
-17.4127
-17.4126
-17.4126
-17.4126
-17.4127
-17.4127
-17.4127
-17.4126
-17.4127
-17.4127
-17.4127
-17.4127
-17.4127
-17.4127
-17.4127
-17.4127
-17.4127
-17.4127
-17.4127
-17.4127
-17.4127
-17.4127
-17.4127
-17.4127
-17.4127
-17.4127
-17.4127
-17.4127
-17.4127
-17.9032
-17.9032
-17.9032
-17.9032
-17.9032
-17.9032
-17.9032
-17.9032
-17.9032
-17.9032
-17.9032
-17.9032
-17.9032
-17.9032
-17.9032
-17.9032
-17.9032
-17.9032
-17.9032
-17.9032
-17.9032
-17.9032
-17.9031
-17.9031
-17.9031
-17.9031
-17.9031
-17.9031
-17.9031
-17.9031
-17.9031
-17.9031
-17.9031
-17.9031
-17.9031
-17.9031
-17.9031
-17.9031
-17.9031
-17.9031
-17.9031
-17.9031
-17.9031
-17.9031
-17.9031
-17.9031
-17.9031
-17.9032
-17.9031
-17.9031
-17.9031
-17.9032
-17.9032
-17.9031
-17.9031
-17.9032
-17.9032
-17.9032
-17.9032
-17.9032
-17.9032
-17.9032
-17.9032
-17.9032
-17.9032
-17.9032
-17.9032
-17.9032
-17.9032
-17.9032
-17.9032
-17.9032
-17.9032
-17.9032
-17.9032
-17.9032
-17.9032
-17.9032
-17.9032
-17.9032
-18.3937
-18.3937
-18.3937
-18.3937
-18.3937
-18.3937
-18.3937
-18.3937
-18.3937
-18.3937
-18.3937
-18.3937
-18.3937
-18.3937
-18.3937
-18.3937
-18.3937
-18.3937
-18.3937
-18.3937
-18.3937
-18.3937
-18.3937
-18.3937
-18.3936
-18.3936
-18.3936
-18.3936
-18.3936
-18.3936
-18.3936
-18.3936
-18.3936
-18.3936
-18.3936
-18.3936
-18.3936
-18.3936
-18.3936
-18.3936
-18.3936
-18.3936
-18.3936
-18.3936
-18.3936
-18.3936
-18.3936
-18.3936
-18.3937
-18.3936
-18.3936
-18.3936
-18.3937
-18.3937
-18.3936
-18.3936
-18.3937
-18.3937
-18.3937
-18.3937
-18.3937
-18.3937
-18.3937
-18.3937
-18.3937
-18.3937
-18.3937
-18.3937
-18.3937
-18.3937
-18.3937
-18.3937
-18.3937
-18.3937
-18.3937
-18.3937
-18.3937
-18.3937
-18.3937
-18.3937
-18.8842
-18.8842
-18.8842
-18.8842
-18.8842
-18.8842
-18.8842
-18.8842
-18.8842
-18.8842
-18.8842
-18.8842
-18.8842
-18.8842
-18.8842
-18.8842
-18.8842
-18.8842
-18.8842
-18.8842
-18.8842
-18.8842
-18.8842
-18.8842
-18.8841
-18.8841
-18.8841
-18.8841
-18.8841
-18.8841
-18.8841
-18.8841
-18.8841
-18.8841
-18.8841
-18.8841
-18.8841
-18.8841
-18.8841
-18.8841
-18.8841
-18.8841
-18.8841
-18.8841
-18.8841
-18.8841
-18.8841
-18.8841
-18.8842
-18.8842
-18.8841
-18.8841
-18.8841
-18.8842
-18.8842
-18.8841
-18.8841
-18.8842
-18.8842
-18.8842
-18.8842
-18.8842
-18.8842
-18.8842
-18.8842
-18.8842
-18.8842
-18.8842
-18.8842
-18.8842
-18.8842
-18.8842
-18.8842
-18.8842
-18.8842
-18.8842
-18.8842
-18.8842
-18.8842
-18.8842
-19.3747
-19.3747
-19.3747
-19.3747
-19.3747
-19.3747
-19.3747
-19.3747
-19.3747
-19.3747
-19.3747
-19.3747
-19.3747
-19.3747
-19.3747
-19.3747
-19.3747
-19.3747
-19.3747
-19.3747
-19.3747
-19.3747
-19.3747
-19.3747
-19.3747
-19.3746
-19.3746
-19.3746
-19.3746
-19.3746
-19.3746
-19.3746
-19.3746
-19.3746
-19.3746
-19.3746
-19.3746
-19.3746
-19.3746
-19.3746
-19.3746
-19.3746
-19.3746
-19.3746
-19.3746
-19.3746
-19.3746
-19.3746
-19.3746
-19.3747
-19.3747
-19.3746
-19.3746
-19.3747
-19.3747
-19.3747
-19.3746
-19.3746
-19.3747
-19.3747
-19.3747
-19.3747
-19.3747
-19.3747
-19.3747
-19.3747
-19.3747
-19.3747
-19.3747
-19.3747
-19.3747
-19.3747
-19.3747
-19.3747
-19.3747
-19.3747
-19.3747
-19.3747
-19.3747
-19.3747
-19.8652
-19.8652
-19.8652
-19.8652
-19.8652
-19.8652
-19.8652
-19.8652
-19.8652
-19.8652
-19.8652
-19.8652
-19.8652
-19.8652
-19.8652
-19.8652
-19.8652
-19.8652
-19.8652
-19.8652
-19.8652
-19.8652
-19.8652
-19.8652
-19.8652
-19.8651
-19.8651
-19.8651
-19.8651
-19.8651
-19.8651
-19.8651
-19.8651
-19.8651
-19.8651
-19.8651
-19.8651
-19.8651
-19.8651
-19.8651
-19.8651
-19.8651
-19.8651
-19.8651
-19.8651
-19.8651
-19.8651
-19.8651
-19.8651
-19.8651
-19.8652
-19.8652
-19.8651
-19.8651
-19.8652
-19.8652
-19.8652
-19.8651
-19.8652
-19.8652
-19.8652
-19.8652
-19.8652
-19.8652
-19.8652
-19.8652
-19.8652
-19.8652
-19.8652
-19.8652
-19.8652
-19.8652
-19.8652
-19.8652
-19.8652
-19.8652
-19.8652
-19.8652
-19.8652
-19.8652
-20.3557
-20.3557
-20.3557
-20.3557
-20.3557
-20.3557
-20.3557
-20.3557
-20.3557
-20.3557
-20.3557
-20.3557
-20.3557
-20.3557
-20.3557
-20.3557
-20.3557
-20.3557
-20.3557
-20.3557
-20.3557
-20.3557
-20.3557
-20.3557
-20.3557
-20.3556
-20.3556
-20.3556
-20.3556
-20.3556
-20.3556
-20.3556
-20.3556
-20.3556
-20.3556
-20.3556
-20.3556
-20.3556
-20.3556
-20.3556
-20.3556
-20.3556
-20.3556
-20.3556
-20.3556
-20.3556
-20.3557
-20.3556
-20.3556
-20.3556
-20.3556
-20.3557
-20.3557
-20.3556
-20.3556
-20.3557
-20.3557
-20.3557
-20.3556
-20.3557
-20.3557
-20.3557
-20.3557
-20.3557
-20.3557
-20.3557
-20.3557
-20.3557
-20.3557
-20.3557
-20.3557
-20.3557
-20.3557
-20.3557
-20.3557
-20.3557
-20.3557
-20.3557
-20.3557
-20.3557
-20.8462
-20.8462
-20.8462
-20.8462
-20.8462
-20.8462
-20.8462
-20.8462
-20.8462
-20.8462
-20.8462
-20.8462
-20.8462
-20.8462
-20.8462
-20.8462
-20.8462
-20.8462
-20.8462
-20.8462
-20.8462
-20.8462
-20.8462
-20.8462
-20.8462
-20.8462
-20.8461
-20.8461
-20.8461
-20.8461
-20.8461
-20.8461
-20.8461
-20.8461
-20.8461
-20.8461
-20.8461
-20.8461
-20.8461
-20.8461
-20.8461
-20.8461
-20.8461
-20.8461
-20.8461
-20.8461
-20.8461
-20.8462
-20.8462
-20.8461
-20.8461
-20.8462
-20.8462
-20.8462
-20.8461
-20.8461
-20.8462
-20.8462
-20.8462
-20.8462
-20.8462
-20.8462
-20.8462
-20.8462
-20.8462
-20.8462
-20.8462
-20.8462
-20.8462
-20.8462
-20.8462
-20.8462
-20.8462
-20.8462
-20.8462
-20.8462
-20.8462
-20.8462
-20.8462
-20.8462
-21.3367
-21.3367
-21.3367
-21.3367