/*--------------------------------*- C++ -*----------------------------------*\
| =========                 |                                                 |
| \\      /  F ield         | OpenFOAM: The Open Source CFD Toolbox           |
|  \\    /   O peration     | Version:  2412                                  |
|   \\  /    A nd           | Website:  www.openfoam.com                      |
|    \\/     M anipulation  |                                                 |
\*---------------------------------------------------------------------------*/
FoamFile
{
    version     2.0;
    format      ascii;
    arch        "LSB;label=32;scalar=64";
    class       volScalarField;
    location    "9.3";
    object      alpha.mercury;
}
// * * * * * * * * * * * * * * * * * * * * * * * * * * * * * * * * * * * * * //

dimensions      [0 0 0 0 0 0 0];

internalField   nonuniform List<scalar> 
6400
(
1
0.999987
0.999987
0.99999
0.999993
0.999995
0.999996
0.999998
0.999998
0.999998
0.999999
0.999999
0.999998
0.999997
0.999999
1
1.00001
1
0.999998
0.999995
0.999996
0.999999
1
1
1.00001
1.00001
1.00001
1.00001
1.00001
1.00001
1.00001
1
1
1
0.999999
0.999996
0.999995
0.999997
0.999997
0.999996
0.999994
0.999993
0.999993
0.999994
0.999997
0.999998
0.999999
0.999999
0.999998
0.999994
0.999994
0.999994
0.999994
0.999996
0.999999
1
1
1
1
1
1
1
1
1.00001
1.00001
1.00001
1.00001
1.00001
1
1
0.999998
0.999995
0.99999
0.999986
0.99999
0.999992
0.999993
0.999995
1
1
0.99998
0.99998
0.999985
0.999989
0.999991
0.999993
0.999995
0.999997
0.999997
0.999995
0.999995
0.999998
1
1
1
0.999999
0.999999
0.999998
0.999999
1
1
1.00001
1.00001
1.00001
1.00001
1.00001
1.00001
1.00001
1
1
1
1
0.999998
0.999998
0.999998
0.999999
0.999997
0.999995
0.999992
0.999992
0.999993
0.999995
0.999997
0.999998
0.999999
0.999999
0.999998
0.999995
0.999994
0.999994
0.999996
1
1
1
1
1
1
1
1
1.00001
1.00001
1.00001
1.00001
1.00001
1.00001
1.00001
1
1
0.999998
0.999993
0.999987
0.999982
0.999982
0.999983
0.999986
0.999986
0.99999
1
1
0.999992
0.999987
0.999989
0.999992
0.999993
0.999994
0.999993
0.999993
0.999994
0.999995
0.999994
0.999992
0.999995
0.999997
0.999994
0.999991
0.999993
1
1.00001
1.00001
1.00001
1.00001
1.00001
1
1
1
0.999999
0.999996
0.999995
0.999996
0.999997
0.999998
0.999999
1
1
1
1
0.999999
0.999998
1
1
1.00001
1.00001
1.00001
1
1
1
1
1
1
1.00001
1.00001
1.00001
1.00001
1.00001
1.00001
1.00001
1.00001
1.00001
1.00001
1.00001
1.00001
1.00001
1.00001
1.00001
1.00001
1
1
1
0.999999
0.999995
0.999988
0.999988
0.999989
0.999987
0.999985
0.999987
0.999995
1
0.999989
0.999992
0.999995
0.999997
0.999996
0.999994
0.999995
0.999995
0.999992
0.999991
0.999992
0.999994
0.99999
0.99999
0.999996
1
0.999998
0.999995
0.999996
1
1.00001
1.00001
1
1
1
1
0.999999
0.999997
0.999996
0.999997
0.999997
0.999999
1
1
1
0.999999
1
1
1
1
1.00001
1.00001
1.00001
1.00001
1.00001
1.00001
1.00001
1.00001
1
1
1
1
1
1.00001
1.00001
1.00001
1.00001
1.00001
1.00001
1.00001
1.00001
1.00001
1.00001
1.00001
1.00001
1.00001
1.00001
1.00001
1
1
0.999993
0.999993
0.999993
0.999999
1
0.999999
0.999996
1
1
0.999989
0.999986
0.999996
0.999999
1
0.999998
0.999996
0.999995
0.999995
0.999995
0.999991
0.999992
0.999997
0.999997
0.999995
0.999998
1
1
0.999998
0.999994
0.999995
0.999999
0.999999
0.999998
0.999997
0.999998
1
1
1
1.00001
1.00001
1
1
1
1
0.999998
0.999995
0.999994
0.999996
0.999999
1
1
1.00001
1.00001
1.00001
1.00001
1.00001
1
1
1
1
0.999997
0.999998
1
1
1
1
1
1
1
1
1
1.00001
1.00001
1.00001
1.00001
1.00001
1.00001
1
1
1
0.999999
0.999998
1
1
1.00001
1
1
1
0.99999
0.99998
0.999987
0.999996
1
1
0.999998
0.999998
0.999996
0.999998
1
0.999998
0.999996
1
1
1
1
1.00001
1.00001
1.00001
0.999999
0.999995
0.999995
0.999997
0.999999
0.999997
0.999998
1
1
1.00001
1.00001
1.00001
1.00001
1
1
0.999999
0.999997
0.999995
0.999993
0.999995
0.999997
0.999999
1
1
1
1
0.999997
0.999995
0.999994
0.999994
0.999995
0.999997
0.999995
0.999995
0.999994
0.999994
0.999993
0.999992
0.999991
0.999992
0.999993
0.999993
0.999996
0.999998
1
1
1
1
1
1
1
1
1
1
1.00001
1.00001
1.00001
1
0.999998
0.999991
0.999981
0.999981
0.999989
0.999994
1
0.999998
0.999999
1
1
1
1
1
0.999998
1
1
1
0.999999
1
1.00001
1.00001
1.00001
1
1
1
1
1
1
1
1
1
1
1
1
1
0.999999
1
1
1
1
1
1
1
1
1
0.999999
0.999997
0.999996
0.999994
0.999994
0.999995
0.999998
1
1
1
1
0.999998
0.999996
0.999995
0.999995
0.999996
0.999997
0.999997
0.999997
0.999996
0.999995
0.999991
0.99999
0.999991
0.999994
0.999997
1
1
1.00001
1.00001
1.00001
1.00001
1
0.999996
0.999994
0.999987
0.999986
0.999998
0.999999
1
1
1
1
1.00001
1.00001
1
1
1
0.999999
0.999998
0.999998
0.999993
0.999986
0.999986
0.999991
0.999995
0.999996
0.999996
0.999997
0.999998
0.999999
0.999999
0.999998
0.999997
0.999996
0.999994
0.999995
0.999997
0.999997
0.999995
0.999994
0.999996
0.999998
1
1
1
1
1
1
1
1
1
1
1
1
1
1
1
1
1
1
1
1
1
1
1
1
1
1
0.999999
0.999997
0.999994
0.999989
0.999985
0.999991
0.999996
0.999998
1
1
1
1
0.999999
0.999991
0.999988
0.99999
0.999991
0.999999
1.00001
1.00001
1
1
1.00001
1
0.999999
1
0.999996
0.999996
0.999994
0.999992
0.999993
0.999989
0.999984
0.999977
0.999977
0.999977
0.999984
0.999987
0.999989
0.99999
0.999991
0.999991
0.999992
0.999993
0.999991
0.999983
0.999983
0.999983
0.999984
0.999987
0.999987
0.999988
0.999988
0.999993
0.999998
1
1
1
1
1
1
1
1
1.00001
1.00001
1.00001
1
1
1
1
1
1
1
1
1
1
1
1
1
1
0.999998
0.999996
0.999995
0.99999
0.999987
0.999988
0.999993
0.999994
0.999995
0.999994
0.999993
0.99999
0.999986
0.999986
0.999987
0.999988
0.999995
1.00001
1.00001
1
0.999997
1
1.00001
1
0.999996
0.999996
0.999995
0.999996
0.999988
0.999984
0.999996
0.999998
0.999995
0.999993
0.999989
0.999989
0.999989
0.999986
0.999983
0.999983
0.999984
0.999984
0.999984
0.999986
0.999992
0.999992
0.99999
0.999992
0.999996
0.999999
0.999999
1
1
1
1
1
1
1
1
1
1
1
1
1
1
1
1
1
1
1
1
1
1
1
1
1
0.999999
0.999999
0.999998
0.999996
0.999994
0.999993
0.999992
0.999992
0.999994
0.999993
0.999983
0.999983
0.999983
0.999983
0.999983
0.999991
0.999998
0.999995
0.999995
0.999998
1.00001
1.00001
0.999998
0.999993
0.999996
1
1.00001
1.00001
0.999998
0.999998
0.999995
1.00001
1
0.999988
0.999996
1.00001
1.00001
1
1
0.999994
0.999992
0.999991
0.999992
0.999991
0.99999
0.999988
0.999989
0.999993
0.999997
0.999999
1
1
1
1.00001
1.00001
1.00001
1.00001
1.00001
1.00001
1.00001
1.00001
1.00001
1.00001
1
1
1
1
1
1
1
1.00001
1.00001
1.00001
1.00001
1.00001
1.00001
1.00001
1.00001
1.00001
1.00001
1.00001
1
1
0.999999
0.999997
0.999996
0.999996
0.999996
0.999996
0.999996
0.999996
0.999997
0.999998
0.999998
0.999997
0.999999
0.999999
0.999999
0.999999
1
1.00001
0.999998
0.999984
0.999989
1
1
1
1.00001
1
1
0.999996
1.00001
1.00001
1
0.999989
0.999989
0.999992
0.999998
0.999999
0.999998
0.999996
0.999997
0.999997
0.999996
0.999996
0.999995
0.999995
0.999994
0.999996
0.999998
0.999999
1
1
1
1.00001
1.00001
1.00001
1.00001
1.00001
1
1
1
1
1
0.999999
0.999999
0.999999
1
1
1
1
1
1.00001
1.00001
1.00001
1.00001
1.00001
1.00001
1.00001
1.00001
1.00001
1.00001
1
1
1
0.999999
0.999997
0.999996
0.999994
0.999994
0.999995
0.999997
0.999998
0.999997
0.999995
0.999993
0.999994
0.999994
0.999999
1.00001
1
0.999986
0.999988
1.00001
1.00001
1
0.999995
1.00001
1.00001
1.00001
1
0.999999
1
1.00001
1
0.999998
0.999996
0.999996
0.999997
0.999997
0.999997
0.999997
0.999997
0.999997
0.999997
0.999997
0.999998
0.999998
0.999999
1
1
0.999999
0.999997
0.999997
0.999998
1
1
1
1
1
1
0.999999
0.999998
0.999997
0.999996
0.999996
0.999997
0.999998
0.999999
0.999999
0.999999
0.999999
1
1
1
1
1
1
1
1
1
1
1
1
1
1
0.999999
0.999997
0.999995
0.999994
0.999995
0.999997
0.999996
0.999991
0.999991
0.999991
0.999993
0.999999
1.00001
1.00001
0.999999
0.999989
1
1.00002
1
1.00001
0.999997
0.999997
1
1
1.00001
1.00001
1
1
1.00001
1.00001
1
1
1
1
1
0.999999
0.999998
0.999998
0.999999
1
1
1
1
1
1
1.00001
1.00001
1.00001
1.00001
1.00001
1.00001
1.00001
1.00001
1
1
1
1
0.999998
0.999996
0.999996
0.999997
0.999999
1
1
1
1
1.00001
1.00001
1.00001
1.00001
1.00001
1.00001
1.00001
1.00001
1.00001
1.00001
1.00001
1
1
1
1
1
1
1
1
1
1
1
1
1
1.00001
1.00001
1.00001
1
0.999994
1
1.00002
1
0.99999
1.00001
0.999999
0.99999
0.999989
0.999991
1
1.00001
1.00001
1.00001
1.00001
1.00001
1.00001
1.00001
1.00001
1.00001
1
1
1
0.999998
0.999998
0.999998
0.999998
0.999998
1
1
1.00001
1.00001
1.00001
1.00001
1.00001
1.00001
1.00001
1.00001
1
1
1
0.999998
0.999997
0.999995
0.999994
0.999995
0.999996
0.999998
0.999999
1
1
1
1
1.00001
1.00001
1.00001
1.00001
1.00001
1.00001
1.00001
1.00001
1.00001
1.00001
1.00001
1.00001
1
1
1
1
1
1
1
1
0.999999
0.999998
0.999998
1
1
1
0.999998
0.999998
1.00001
1.00001
0.999989
1
0.999999
0.999995
0.999993
0.999996
0.999993
0.999993
0.999996
0.999999
1
1
1
1
1
1
1
1
1
1
0.999999
0.999998
0.999998
0.999998
0.999998
0.999998
0.999998
0.999998
0.999999
0.999999
0.999999
0.999999
0.999999
0.999999
0.999998
0.999997
0.999996
0.999996
0.999995
0.999994
0.999993
0.999992
0.999993
0.999994
0.999995
0.999995
0.999995
0.999996
0.999996
0.999996
0.999997
0.999998
1
1
1
1.00001
1.00001
1.00001
1.00001
1.00001
1
1
1
0.999999
0.999998
0.999998
0.999997
0.999996
0.999995
0.999994
0.999995
0.999998
1
1
1
1
0.999997
1
1.00002
0.999999
1
1.00001
0.999989
0.999988
0.999992
0.999992
0.999994
0.999997
0.999997
0.999999
0.999999
0.999998
0.999998
0.999998
0.999999
1
1
0.999999
0.999999
1
1
0.999998
0.999998
0.999998
0.999998
0.999998
0.999998
0.999999
1
1
1
1
1
1
1
0.999999
0.999997
0.999993
0.999991
0.99999
0.99999
0.99999
0.99999
0.99999
0.999991
0.999991
0.999992
0.999993
0.999993
0.999993
0.999994
0.999996
0.999999
1
1
1
1
1
1
1
1
1
1
1
1
0.999999
0.999999
0.999999
0.999998
0.999998
0.999998
1
1
1
1
1
1
1.00001
1.00001
0.999987
1.00001
0.999993
0.999994
0.999994
0.999996
0.999994
0.999995
0.999998
0.999999
1
0.999999
0.999999
1
1
1
1
1
1
1
1
0.999999
0.999998
0.999997
0.999997
0.999996
0.999996
0.999996
0.999998
0.999999
1
1
1
1
1
1
0.999998
0.999996
0.999995
0.999994
0.999994
0.999993
0.999992
0.999992
0.999993
0.999993
0.999993
0.999994
0.999994
0.999995
0.999996
0.999996
0.999996
0.999999
1
1
1
0.999999
0.999999
0.999999
0.999999
0.999999
0.999999
1
1
1
0.999999
0.999999
0.999998
0.999998
0.999998
0.999999
0.999999
1
1
0.999998
0.999997
1
1.00001
0.999996
1
1.00002
0.999986
0.999998
0.999998
0.999998
1
1
1
1
1
1
1
1
1
1
1
1
1
0.999816
0.999834
0.999965
0.999957
0.999935
0.999919
0.99991
0.999912
0.999922
0.999937
0.999953
0.999968
0.99998
0.999988
0.999993
0.999997
0.999998
0.999998
0.999999
0.999999
0.999999
0.999999
0.999999
0.999999
1
1
1
1
1
1
1
1
0.999997
0.999994
0.999993
0.999988
0.99998
0.99997
0.999956
0.999942
0.999932
0.999927
0.999929
0.99994
0.999953
0.999971
0.999987
0.999997
0.999999
1
1
1
1
1
1
1
1
1
1
1
1
1.00001
1
1
0.999999
1
1
1
1
1
1
0.988843
0.95545
0.911015
0.856633
0.797074
0.738192
0.683269
0.634027
0.601085
0.587999
0.591753
0.608726
0.637337
0.66955
0.706768
0.746723
0.787066
0.8254
0.859801
0.889021
0.912518
0.929431
0.940973
0.948204
0.952153
0.953627
0.95314
0.950579
0.946505
0.941232
0.935405
0.929936
0.925676
0.923045
0.922213
0.922993
0.924974
0.927596
0.930398
0.932635
0.933592
0.932597
0.929372
0.923973
0.915853
0.904229
0.888157
0.867028
0.840971
0.811223
0.779625
0.74781
0.717873
0.691756
0.671416
0.658881
0.656053
0.663487
0.682691
0.713702
0.755043
0.804318
0.856868
0.906503
0.948584
0.981598
1
1
1
1
1.00001
1
0.999999
0.798479
0.80888
0.775407
0.731245
0.676611
0.602892
0.502318
0.388095
0.287287
0.202042
0.133984
0.0825721
0.045569
0.0204519
0.00663029
0.0012163
6.67306e-06
6.80838e-06
7.82618e-06
4.42609e-06
0.0100318
0.0240345
0.0415219
0.0627986
0.0873063
0.113895
0.141125
0.167453
0.1919
0.211303
0.22444
0.231575
0.233438
0.231016
0.225008
0.218146
0.211008
0.203624
0.197328
0.19313
0.190998
0.190502
0.191241
0.193137
0.196095
0.199626
0.202508
0.203558
0.201627
0.196086
0.18705
0.17421
0.157623
0.138142
0.117017
0.0961044
0.0761747
0.0577146
0.0414962
0.0280897
0.0177789
0.0106294
0.00662513
0.00578039
0.00834948
0.0152462
0.0289222
0.0508929
0.0825801
0.126125
0.184048
0.258034
0.347894
0.454017
0.562522
0.648674
0.712264
0.761751
0.798991
0.794408
0.106862
0.092425
0.0773053
0.0620525
0.0450951
0.0270285
0.0102961
0.00105758
0.000408759
0.000248621
0.000168098
0.000127325
0.000103782
8.6674e-05
3.67648e-05
6.72859e-06
6.72859e-06
6.0523e-06
4.42609e-06
4.13908e-06
4.0233e-06
3.92049e-06
3.87552e-06
3.86236e-06
3.87092e-06
3.60984e-06
3.35435e-06
3.33968e-06
3.35435e-06
3.33968e-06
3.37383e-06
3.41134e-06
3.40797e-06
3.41134e-06
3.45321e-06
3.49136e-06
3.32619e-05
4.63524e-05
5.69815e-05
6.50612e-05
6.46469e-05
6.0973e-05
5.573e-05
4.56859e-05
3.30294e-05
1.88538e-05
3.10538e-06
3.10638e-06
3.10372e-06
3.19063e-06
3.45031e-06
3.81226e-06
3.80677e-06
3.23599e-06
2.71443e-06
2.46098e-06
2.38094e-06
2.34364e-06
2.04198e-06
1.74229e-06
1.65618e-06
1.6488e-06
1.65618e-06
1.65605e-06
6.8031e-06
1.99268e-05
3.23537e-05
4.98709e-05
7.77884e-05
0.000111658
0.000177642
0.000282502
0.000506926
0.00444618
0.0184601
0.0373138
0.0563851
0.0738807
0.0902712
0.106207
9.44962e-06
9.39035e-06
9.3743e-06
9.37375e-06
9.3743e-06
9.38824e-06
7.6565e-05
8.55429e-05
5.3971e-05
3.82087e-05
3.58554e-05
3.78355e-05
3.62745e-05
3.66833e-05
2.66658e-05
2.36883e-05
2.58299e-05
2.99011e-05
3.47088e-05
2.90373e-05
1.2827e-05
6.42726e-06
3.92049e-06
3.87552e-06
3.86341e-06
1.16723e-05
1.43509e-05
4.62006e-06
3.98213e-06
2.12824e-05
2.78072e-05
4.11577e-06
3.41134e-06
8.96195e-06
5.68592e-05
5.88322e-05
1.01528e-05
6.50483e-06
8.66156e-06
9.64052e-06
3.99765e-06
1.40691e-06
6.11807e-06
7.43301e-06
7.16088e-06
6.97577e-06
5.46823e-06
4.40368e-06
1.68959e-05
2.61963e-05
2.67439e-05
2.70494e-05
2.71428e-05
2.70478e-05
2.70494e-05
1.28591e-05
2.46098e-06
2.40113e-06
8.73725e-06
1.44669e-05
4.71695e-06
1.65618e-06
2.6024e-06
5.61833e-06
6.60311e-06
9.53157e-06
1.09449e-05
1.01769e-05
6.18696e-06
1.97175e-06
3.10667e-06
1.3685e-05
3.78115e-05
7.22618e-05
2.62278e-05
7.01824e-06
6.6453e-06
6.44071e-06
6.07672e-06
6.44071e-06
1.11672e-05
9.37589e-06
9.37374e-06
9.37376e-06
9.37376e-06
1.01012e-05
1.66802e-05
2.31787e-05
2.72546e-05
2.65942e-05
3.08966e-05
2.92764e-05
2.83185e-05
3.75748e-05
4.20022e-05
4.45872e-05
4.43876e-05
4.38472e-05
4.18097e-05
3.98765e-05
3.95623e-05
1.60822e-05
4.55504e-06
7.67501e-06
1.43142e-05
1.43509e-05
1.43509e-05
1.43509e-05
2.92017e-06
1.99955e-05
2.84244e-05
8.92432e-06
4.55388e-06
5.79602e-06
4.62251e-05
5.74617e-05
4.77398e-06
4.74476e-06
8.76605e-06
1.0644e-05
8.59029e-06
7.75919e-06
7.4306e-06
7.18756e-06
7.00083e-06
6.79567e-06
6.91414e-06
6.04729e-06
4.0188e-06
3.87076e-06
6.90132e-06
1.67798e-05
2.67445e-05
2.71503e-05
2.6878e-05
2.65126e-05
1.98409e-05
4.15943e-06
6.89965e-06
1.71322e-05
1.74463e-05
1.73742e-05
3.83417e-06
7.02732e-06
1.63162e-05
1.66145e-05
1.06716e-05
8.82335e-06
7.08651e-06
1.83014e-06
1.30052e-06
1.60406e-06
3.47321e-06
7.88078e-06
1.00413e-05
1.20197e-05
9.06984e-06
6.07672e-06
5.79653e-06
8.61324e-06
1.24024e-05
1.0694e-05
9.37443e-06
9.37374e-06
9.37443e-06
9.3746e-06
9.88694e-06
1.27913e-05
2.41408e-05
2.63689e-05
2.63516e-05
2.63516e-05
2.63989e-05
4.26776e-05
4.27599e-05
1.1972e-05
5.91059e-06
6.69806e-06
3.717e-05
3.95623e-05
2.69196e-05
6.60728e-06
5.81919e-06
1.10461e-05
1.42222e-05
1.43147e-05
1.38037e-05
3.74615e-06
2.52189e-06
9.42902e-06
2.84244e-05
8.68513e-06
5.53396e-06
5.85606e-06
2.62921e-05
3.14904e-05
4.17382e-06
4.33433e-06
4.74477e-06
7.23114e-06
1.14767e-05
1.14846e-05
8.82878e-06
9.13026e-06
9.36484e-06
9.68358e-06
9.2878e-06
3.90453e-06
5.68838e-07
4.17993e-07
3.62125e-07
3.34133e-07
8.66647e-07
1.7477e-05
2.65126e-05
2.66043e-05
2.60969e-05
1.63116e-05
9.82989e-06
1.74463e-05
1.75466e-05
1.75188e-05
9.1382e-06
2.17723e-06
5.20477e-06
1.61979e-05
1.59658e-05
1.32054e-05
1.68288e-06
1.31959e-06
1.31959e-06
1.31443e-06
1.60406e-06
3.32167e-06
8.82687e-06
1.58977e-05
1.28278e-05
6.08047e-06
4.98336e-06
8.63471e-06
1.52086e-05
3.17332e-05
9.6083e-06
9.37442e-06
9.37736e-06
9.38138e-06
9.42269e-06
9.59541e-06
3.02596e-05
4.0181e-05
4.06879e-05
4.11274e-05
4.13746e-05
4.17435e-05
4.22478e-05
1.00581e-05
4.85994e-06
4.85994e-06
1.09038e-05
3.52306e-05
9.40454e-06
6.74501e-06
9.52277e-06
1.38507e-05
1.40005e-05
1.13441e-05
2.91629e-06
2.48694e-06
2.46172e-06
2.56625e-06
2.81881e-05
8.20624e-06
5.34177e-06
5.53391e-06
1.19209e-05
1.64095e-05
3.99402e-06
4.00661e-06
6.21143e-06
1.14666e-05
1.16616e-05
1.18178e-05
1.18795e-05
1.18795e-05
1.18795e-05
1.18456e-05
1.17426e-05
1.1564e-05
1.90707e-06
4.00477e-07
3.34137e-07
2.9592e-07
2.56363e-07
1.0134e-06
2.13544e-05
2.60969e-05
2.59262e-05
2.57732e-05
2.55034e-05
1.55735e-05
1.02399e-05
8.33656e-06
2.93565e-06
1.9575e-06
1.93739e-06
5.40078e-06
1.57155e-05
1.54193e-05
5.8178e-06
1.40286e-06
1.8255e-06
5.99498e-06
4.89065e-06
4.81508e-06
8.25998e-06
1.58521e-05
1.53164e-05
8.45052e-06
3.21027e-06
3.46835e-06
1.67656e-05
3.17332e-05
2.61479e-05
1.49433e-05
9.52766e-06
9.42925e-06
9.53157e-06
9.64531e-06
1.14625e-05
3.67388e-05
3.5754e-05
2.64991e-05
3.85855e-05
4.13147e-05
4.09354e-05
4.05202e-05
1.18674e-05
4.26727e-06
7.04526e-06
4.18716e-06
5.69078e-06
6.52023e-06
1.26295e-05
1.36531e-05
1.38507e-05
3.45621e-06
2.46425e-06
2.45333e-06
2.45216e-06
2.46172e-06
2.60339e-05
9.06912e-06
5.04285e-06
8.58837e-06
2.17654e-05
3.99402e-06
3.94456e-06
3.9436e-06
3.95902e-06
7.68406e-06
8.9685e-06
9.55001e-06
1.18178e-05
1.18795e-05
1.18456e-05
1.17426e-05
9.34611e-06
3.63511e-06
4.7323e-07
3.4192e-07
2.99042e-07
2.60724e-07
2.17501e-07
2.83904e-07
8.49363e-06
2.52963e-05
2.57732e-05
2.56203e-05
2.56203e-05
1.1338e-05
1.87473e-06
2.10579e-06
1.96223e-06
1.93739e-06
1.93195e-06
1.92954e-06
1.13459e-05
1.5105e-05
6.35321e-06
1.67892e-06
9.42086e-06
1.36629e-05
1.36629e-05
1.26077e-05
2.38948e-06
1.47806e-05
1.53602e-05
1.02589e-05
2.87092e-06
2.79853e-06
1.57347e-05
3.15862e-05
3.07544e-05
2.9299e-05
2.75909e-05
2.65745e-05
2.6235e-05
2.59801e-05
2.57395e-05
1.40558e-05
9.1609e-07
3.3287e-07
7.81678e-07
2.82681e-05
4.05597e-05
3.88303e-05
1.31902e-05
3.41125e-06
3.30847e-06
3.71123e-06
5.51563e-06
1.29046e-05
1.3706e-05
1.35085e-05
4.8611e-06
2.46425e-06
2.45333e-06
2.45253e-06
2.45333e-06
1.40637e-05
2.78763e-05
9.75064e-06
4.84115e-06
1.10776e-05
2.26133e-05
1.32709e-05
3.94443e-06
3.94456e-06
3.94361e-06
3.95902e-06
3.97469e-06
3.99456e-06
4.99229e-06
7.19523e-06
5.50955e-06
1.50692e-06
5.29976e-07
5.17829e-07
4.74467e-07
3.83763e-07
3.37207e-07
3.23955e-07
1.98821e-07
2.65343e-07
7.26145e-07
9.16625e-06
2.52257e-05
2.56203e-05
1.73137e-05
3.15959e-06
9.04979e-07
2.19773e-06
2.86555e-06
2.47804e-06
1.92788e-06
1.93262e-06
4.48074e-06
1.09711e-05
2.90616e-06
1.94069e-06
1.28727e-05
1.35042e-05
1.22574e-05
2.74505e-06
2.25752e-06
8.99911e-06
1.53164e-05
9.15265e-06
2.79853e-06
2.78807e-06
1.77444e-05
1.74682e-05
1.18247e-05
3.38464e-06
7.4278e-07
1.27927e-06
2.13008e-06
1.54405e-06
4.02154e-07
3.49289e-07
3.3287e-07
3.25981e-07
3.23555e-07
1.08677e-06
1.00438e-05
1.47519e-05
5.942e-06
3.24128e-06
2.66819e-06
3.57465e-06
1.2454e-05
1.42728e-05
1.39195e-05
4.39947e-06
3.65445e-06
1.27781e-05
2.3833e-05
2.05701e-05
1.18544e-05
2.79002e-05
2.76948e-05
7.96013e-06
4.53588e-06
6.83325e-06
2.28017e-05
2.27452e-05
1.76961e-05
7.40073e-06
3.95902e-06
3.97469e-06
3.9946e-06
5.0367e-06
2.60683e-06
1.29009e-06
1.04685e-06
7.31025e-07
5.85293e-07
5.29976e-07
5.32168e-07
1.75402e-06
1.15721e-06
3.15097e-07
1.58983e-07
1.46709e-07
1.43139e-07
1.42324e-07
4.32582e-07
4.65202e-06
6.09159e-06
3.01395e-06
5.16717e-07
2.51016e-06
2.87534e-06
2.8953e-06
2.88621e-06
2.25576e-06
1.08146e-06
1.11308e-06
1.35016e-06
1.06453e-05
1.26306e-05
7.62617e-06
2.26069e-06
2.25584e-06
2.25293e-06
2.2575e-06
9.37509e-06
4.1989e-06
2.79395e-06
2.79395e-06
1.63499e-05
6.36599e-07
5.38659e-07
5.21497e-07
5.21175e-07
5.21175e-07
5.21097e-07
5.21175e-07
5.41279e-07
4.00705e-07
3.25981e-07
3.23556e-07
3.22341e-07
3.23551e-07
3.4765e-07
4.63795e-07
5.81864e-07
7.35921e-07
2.21652e-06
1.11192e-05
1.47452e-05
1.43595e-05
4.11511e-06
4.15871e-06
1.20596e-05
2.56883e-05
2.57323e-05
2.56883e-05
2.54634e-05
2.01089e-05
2.60067e-05
3.97648e-06
4.34526e-06
1.51717e-05
2.28486e-05
2.2872e-05
2.28656e-05
2.28035e-05
1.46055e-05
4.07902e-06
4.24774e-06
6.65156e-06
6.6401e-06
2.71883e-06
1.29009e-06
1.04685e-06
7.31025e-07
5.85293e-07
2.62631e-06
3.83521e-06
2.27581e-06
2.66031e-07
1.82218e-07
1.58983e-07
1.44852e-07
1.38158e-07
1.39254e-07
3.02593e-07
2.3367e-06
2.71055e-06
4.2231e-07
3.86343e-07
2.58649e-06
2.91526e-06
2.91526e-06
2.79904e-06
1.00502e-06
1.03285e-06
1.58471e-06
1.50552e-05
7.77749e-06
2.35096e-06
2.25584e-06
2.25294e-06
2.25414e-06
2.25307e-06
2.28349e-06
2.45014e-06
2.79925e-06
9.49804e-06
4.61632e-06
1.86384e-06
5.64297e-07
5.26115e-07
5.21497e-07
5.21026e-07
5.33424e-07
1.56968e-06
1.88618e-06
1.74338e-06
3.74277e-07
3.22341e-07
3.21477e-07
3.22341e-07
3.24305e-07
3.531e-07
4.68478e-07
5.81864e-07
6.23639e-06
1.47289e-05
1.46699e-05
4.33592e-06
4.11511e-06
7.88927e-06
2.56819e-05
2.57323e-05
2.05913e-05
1.01095e-05
1.20579e-05
3.03173e-06
5.19905e-06
2.15446e-06
5.00124e-06
2.28491e-05
2.2872e-05
2.28824e-05
2.28739e-05
2.28656e-05
1.79578e-05
5.57309e-06
5.84452e-06
6.66253e-06
6.65465e-06
4.65723e-06
2.1393e-06
9.39776e-06
2.20089e-06
7.47245e-07
3.93751e-06
3.8614e-06
2.11372e-06
3.34728e-07
2.73681e-07
5.69533e-07
3.85044e-07
2.13866e-07
1.39254e-07
1.46027e-07
1.52098e-07
5.38762e-07
2.67161e-07
2.02639e-07
2.16612e-07
2.75245e-06
2.91526e-06
2.06894e-06
9.90695e-07
1.00509e-06
1.22618e-06
1.16603e-05
3.23487e-06
4.87631e-06
5.45485e-06
2.25584e-06
2.90302e-06
2.59776e-06
2.40979e-06
2.51039e-06
2.64865e-06
1.25903e-05
4.6264e-06
4.68057e-06
1.34539e-06
5.45341e-07
5.26115e-07
1.24343e-06
1.88193e-06
1.88618e-06
1.88644e-06
1.69846e-06
3.44544e-07
3.21506e-07
3.21528e-07
3.21473e-07
3.23192e-07
3.58361e-07
1.25764e-05
9.73973e-06
7.35961e-06
1.45582e-05
9.26526e-06
2.9305e-06
7.19831e-06
2.563e-05
2.57213e-05
2.56355e-05
7.56701e-06
1.93095e-06
2.05269e-06
2.08661e-06
2.16913e-06
1.97538e-06
4.20022e-06
2.28316e-05
2.28787e-05
2.28787e-05
2.28807e-05
1.8985e-05
5.8993e-06
7.09482e-06
7.0691e-06
6.76989e-06
4.32196e-06
1.81085e-06
1.13082e-05
1.53567e-05
1.18549e-05
4.40861e-06
4.30194e-06
3.92968e-06
1.21114e-06
7.18515e-07
2.89788e-06
4.96176e-06
3.54136e-06
4.03974e-07
1.46027e-07
1.48095e-07
1.4491e-07
1.54377e-07
1.83446e-07
2.02571e-07
2.02639e-07
1.34465e-06
2.90377e-06
1.00308e-06
9.8954e-07
9.90794e-07
2.5466e-06
5.40839e-06
1.54516e-05
2.76789e-05
2.74721e-05
1.0186e-05
3.85448e-06
4.2401e-06
2.50699e-06
2.50699e-06
5.0545e-06
1.25903e-05
5.76156e-06
4.01995e-06
1.03405e-06
6.30708e-07
5.45341e-07
1.83315e-06
1.88583e-06
1.88659e-06
1.88628e-06
7.31151e-07
3.22367e-07
3.21919e-07
3.21518e-07
3.23106e-07
4.81645e-07
2.15262e-05
2.17505e-05
1.26203e-05
1.28505e-05
1.28042e-05
2.60357e-06
2.64433e-06
7.49924e-06
2.55248e-05
2.563e-05
2.51188e-05
1.55667e-05
1.87965e-06
1.90235e-06
1.92397e-06
1.97319e-06
1.90267e-06
1.97703e-06
1.26416e-05
2.28316e-05
2.28815e-05
1.27687e-05
3.03292e-06
4.56582e-06
6.93809e-06
6.76601e-06
3.63272e-06
1.0835e-06
1.32345e-06
1.52243e-05
1.54601e-05
1.54586e-05
9.08609e-06
3.19125e-06
1.91987e-06
1.37252e-06
4.61916e-06
5.33018e-06
5.25362e-06
4.39452e-06
4.22665e-07
1.48095e-07
1.45176e-07
1.46063e-07
4.13883e-07
3.1348e-07
2.02639e-07
2.06278e-07
1.37454e-06
2.85794e-06
9.54135e-07
9.72443e-07
1.04967e-06
1.40924e-05
2.76259e-05
2.76789e-05
2.76789e-05
2.76789e-05
2.74118e-05
2.64832e-05
6.18072e-06
5.39527e-06
2.57009e-06
1.14055e-05
1.25904e-05
5.76507e-06
1.21361e-06
1.11883e-06
1.18423e-06
6.30708e-07
7.75851e-07
1.88261e-06
1.88583e-06
1.4852e-06
3.24287e-07
3.23693e-07
3.22367e-07
3.26705e-07
1.68734e-06
1.96834e-05
2.21195e-05
2.02325e-05
8.26791e-06
8.64679e-06
2.58103e-06
2.59087e-06
2.60357e-06
2.64433e-06
4.58764e-06
1.43015e-05
2.33484e-05
7.61575e-06
1.87496e-06
1.87697e-06
1.88134e-06
1.89483e-06
1.87768e-06
1.90211e-06
2.02427e-06
4.81893e-06
3.56179e-06
2.47084e-06
2.79641e-06
4.82573e-06
6.43486e-06
3.17557e-06
1.0082e-06
1.0508e-06
2.38776e-06
1.53629e-05
1.54586e-05
1.546e-05
1.02853e-05
2.253e-06
1.21171e-06
2.52169e-06
5.32858e-06
5.38709e-06
4.81186e-06
7.37397e-07
1.59513e-07
1.55423e-07
2.37234e-07
5.08713e-07
8.64248e-07
8.64248e-07
2.13193e-07
4.97333e-07
2.64403e-06
2.81337e-06
9.50999e-07
9.53762e-07
1.65146e-06
2.62653e-05
2.75594e-05
2.76259e-05
2.76789e-05
2.33022e-05
1.84109e-05
2.11423e-05
2.18172e-05
2.18172e-05
1.61013e-05
1.1871e-05
1.25859e-05
5.75867e-06
1.32905e-06
1.16713e-06
1.33316e-05
4.62269e-06
4.48599e-07
1.74644e-06
1.54235e-06
3.24254e-07
3.24269e-07
3.24287e-07
3.25745e-07
3.53451e-07
3.59739e-06
2.19705e-05
2.21195e-05
1.14094e-05
5.77751e-06
3.44787e-06
2.58103e-06
2.58103e-06
2.60565e-06
8.12735e-06
1.31102e-05
3.33326e-06
2.62687e-06
2.54425e-06
1.87574e-06
1.87345e-06
1.87277e-06
1.87471e-06
1.87246e-06
1.87715e-06
1.90743e-06
1.94022e-06
1.93104e-06
2.13758e-06
5.64785e-06
5.62893e-06
4.89121e-06
9.25647e-07
9.79871e-07
1.0082e-06
7.24137e-06
1.53651e-05
1.54571e-05
1.54617e-05
1.06495e-05
2.19648e-06
1.1756e-06
5.27948e-06
5.38709e-06
5.42442e-06
1.18318e-06
1.62937e-07
1.61306e-07
1.59513e-07
1.743e-06
1.72552e-06
8.51044e-07
3.43366e-07
2.26798e-07
9.22689e-07
2.61701e-06
2.3636e-06
9.50999e-07
9.50999e-07
1.09583e-06
1.66752e-05
2.75604e-05
2.75469e-05
1.66946e-05
2.79231e-06
2.80972e-06
2.88279e-06
1.36947e-05
1.99531e-05
1.84773e-05
1.06789e-05
6.18351e-06
5.72606e-06
1.44417e-06
2.45114e-06
1.80404e-05
1.49587e-05
4.30068e-07
4.00788e-07
3.84812e-07
3.24254e-07
3.24254e-07
3.24725e-07
3.31551e-07
3.86335e-07
1.7092e-05
2.20073e-05
1.56669e-05
1.08239e-05
1.06123e-05
4.04883e-06
2.58103e-06
5.23993e-06
1.31313e-05
1.31944e-05
1.31944e-05
1.31913e-05
6.47067e-06
2.73433e-06
3.73314e-06
3.83283e-06
1.87471e-06
1.87343e-06
1.87458e-06
1.87458e-06
1.87715e-06
1.90627e-06
1.93637e-06
3.24113e-06
5.8364e-06
5.68404e-06
1.19294e-06
8.30219e-07
9.25647e-07
9.79871e-07
1.25317e-05
1.53881e-05
1.54617e-05
1.5464e-05
9.7317e-06
2.01064e-06
9.90986e-07
4.36093e-06
5.50954e-06
5.57837e-06
3.31144e-06
1.63203e-07
1.62831e-07
4.74757e-07
2.12706e-06
2.30031e-06
3.13085e-07
2.4025e-07
2.38021e-07
7.53289e-07
2.53692e-06
1.03197e-06
9.50999e-07
1.62608e-06
9.7823e-06
1.04027e-05
1.27769e-05
8.44229e-06
2.78536e-06
2.7827e-06
2.79232e-06
2.80974e-06
2.8819e-06
3.06701e-06
6.27568e-06
1.02044e-05
2.30456e-06
4.81879e-06
1.70466e-06
1.09605e-05
1.80497e-05
1.63506e-05
4.48599e-07
4.30068e-07
3.71174e-07
3.52072e-07
3.46481e-06
4.79979e-06
4.33357e-06
1.15298e-05
2.0979e-05
2.13623e-05
1.28161e-05
1.38952e-05
2.12595e-05
3.68521e-06
3.15827e-06
1.28484e-05
1.29657e-05
1.24462e-05
5.38469e-06
5.40471e-06
5.44605e-06
7.99904e-06
9.31169e-06
9.09845e-06
6.45792e-06
4.08137e-06
4.40236e-06
4.12102e-06
1.91068e-06
1.94031e-06
3.29499e-06
6.48169e-06
6.18412e-06
1.46748e-06
5.67036e-07
6.7965e-07
8.30219e-07
5.75876e-06
1.50424e-05
1.5398e-05
1.5464e-05
1.54641e-05
7.87782e-06
1.24998e-06
4.36147e-08
1.96402e-07
3.09848e-06
5.73889e-06
5.84671e-06
1.1433e-06
1.63203e-07
2.08077e-07
2.12558e-06
2.91761e-06
2.45604e-07
2.48154e-07
2.4025e-07
6.05086e-07
2.48756e-06
1.0741e-06
9.99645e-07
1.49011e-06
1.71432e-05
1.411e-05
3.12657e-06
2.79468e-06
2.7827e-06
2.79232e-06
2.80974e-06
2.85576e-06
4.04845e-06
3.11913e-06
3.00488e-06
4.87714e-06
2.30456e-06
3.67458e-06
4.57121e-06
1.78757e-05
1.80183e-05
9.81362e-06
4.55696e-07
4.49101e-07
3.51367e-06
1.81242e-05
1.93381e-05
1.91908e-05
2.0158e-05
2.06666e-05
2.08419e-05
1.4445e-05
1.97073e-05
2.40351e-05
2.3943e-05
8.98066e-06
3.68525e-06
9.20641e-06
1.28484e-05
6.67158e-06
5.37061e-06
5.36029e-06
5.41133e-06
5.6675e-06
9.49224e-06
9.31169e-06
9.09845e-06
8.93858e-06
8.47042e-06
7.62503e-06
3.16723e-06
4.94861e-06
6.77124e-06
6.6352e-06
1.82177e-06
2.79829e-07
4.12589e-07
5.67036e-07
4.92603e-06
1.24163e-05
1.32108e-05
1.53629e-05
1.54641e-05
1.5464e-05
3.85707e-06
2.38866e-09
3.80274e-09
6.34127e-09
2.09778e-07
5.84671e-06
5.86959e-06
5.4617e-06
1.77353e-07
2.03808e-07
6.14027e-07
2.9197e-06
1.0581e-06
2.49154e-07
7.51283e-07
5.73062e-07
1.5743e-06
9.98008e-07
1.27729e-06
1.01794e-05
1.74203e-05
1.70374e-05
3.10395e-06
2.9553e-06
4.05463e-06
7.03164e-06
2.85579e-06
7.54308e-06
9.9545e-06
5.76841e-06
2.77342e-06
2.5601e-06
2.5238e-06
3.63852e-06
8.17459e-06
1.77267e-05
1.78757e-05
7.81643e-06
4.97225e-07
1.30154e-06
1.72233e-05
1.93888e-05
1.93948e-05
1.76756e-05
7.69229e-06
1.0525e-05
9.21705e-06
1.35932e-05
2.40351e-05
2.40546e-05
2.40545e-05
2.38436e-05
7.23046e-06
6.60689e-06
7.6743e-06
1.37008e-05
1.40627e-05
9.64822e-06
6.58918e-06
9.4157e-06
1.06447e-05
7.6197e-06
4.56892e-06
5.23555e-06
5.75476e-06
6.08619e-06
6.80569e-06
6.80569e-06
6.80569e-06
3.70747e-06
1.00612e-07
1.96183e-07
2.79829e-07
1.13048e-05
1.48795e-05
6.46174e-06
1.95148e-06
1.05507e-05
1.53625e-05
1.3989e-05
2.40589e-09
6.78415e-10
1.7502e-09
3.80134e-09
8.3637e-08
3.63123e-06
5.86959e-06
5.86959e-06
1.9464e-06
2.1654e-07
2.22027e-07
2.77124e-06
5.61169e-06
5.15854e-06
3.84056e-06
6.06277e-07
6.06277e-07
7.42251e-07
1.95407e-06
1.74203e-05
1.74941e-05
1.74203e-05
8.33315e-06
8.10705e-06
1.68715e-05
8.5494e-06
3.04242e-06
9.9545e-06
9.9545e-06
9.9545e-06
3.0634e-06
8.02448e-06
9.73654e-06
3.76241e-06
9.15772e-06
1.77421e-05
1.77267e-05
1.01798e-05
6.51534e-07
9.03647e-07
1.20944e-05
1.76231e-05
6.50795e-06
6.26671e-06
5.9945e-06
5.69331e-06
5.65252e-06
9.27168e-06
2.40546e-05
2.4074e-05
2.41334e-05
2.4269e-05
2.4031e-05
9.03847e-06
4.44463e-06
8.21454e-06
1.4216e-05
1.42403e-05
1.4253e-05
1.42561e-05
1.4253e-05
6.67137e-06
3.41603e-06
4.82324e-06
6.16914e-06
6.28317e-06
6.75334e-06
6.80569e-06
4.79803e-06
8.65452e-08
6.04061e-08
1.00612e-07
8.2331e-06
1.70726e-05
1.61102e-05
1.67293e-06
1.69563e-06
1.05605e-05
1.51319e-05
3.69895e-06
6.82857e-10
5.07872e-10
6.82226e-10
1.74412e-09
1.2202e-08
1.40975e-06
5.86959e-06
5.86322e-06
5.70776e-06
2.22027e-07
3.15814e-07
3.28422e-06
5.66352e-06
5.63236e-06
5.51888e-06
7.35491e-07
6.84951e-07
7.91504e-07
4.21736e-06
1.74941e-05
1.75074e-05