/*--------------------------------*- C++ -*----------------------------------*\
| =========                 |                                                 |
| \\      /  F ield         | OpenFOAM: The Open Source CFD Toolbox           |
|  \\    /   O peration     | Version:  2412                                  |
|   \\  /    A nd           | Website:  www.openfoam.com                      |
|    \\/     M anipulation  |                                                 |
\*---------------------------------------------------------------------------*/
FoamFile
{
    version     2.0;
    format      ascii;
    arch        "LSB;label=32;scalar=64";
    class       surfaceScalarField;
    location    "6.15";
    object      phi;
}
// * * * * * * * * * * * * * * * * * * * * * * * * * * * * * * * * * * * * * //

dimensions      [0 3 -1 0 0 0 0];

oriented        oriented;

internalField   nonuniform List<scalar> 
12640
(
-3.64686e-09
3.64747e-09
-1.18808e-09
-1.57009e-09
1.02503e-08
-1.06203e-08
3.0767e-08
-1.97743e-08
5.95054e-08
-2.80415e-08
9.54925e-08
-3.53355e-08
1.37933e-07
-4.18342e-08
1.86267e-07
-4.77711e-08
2.40143e-07
-5.33548e-08
2.99368e-07
-5.87414e-08
3.63848e-07
-6.40332e-08
4.33546e-07
-6.92835e-08
5.08436e-07
-7.45033e-08
5.88465e-07
-7.96661e-08
6.73519e-07
-8.47104e-08
7.63386e-07
-8.95408e-08
8.57722e-07
-9.40263e-08
9.56014e-07
-9.79979e-08
1.05753e-06
-1.01245e-07
1.1613e-06
-1.03515e-07
1.26604e-06
-1.04507e-07
1.37012e-06
-1.03877e-07
1.47152e-06
-1.01238e-07
1.56782e-06
-9.61689e-08
1.65613e-06
-8.82306e-08
1.73316e-06
-7.6988e-08
1.79519e-06
-6.20423e-08
1.8382e-06
-4.30782e-08
1.85798e-06
-1.9916e-08
1.85037e-06
7.42245e-09
1.81146e-06
3.86528e-08
1.73796e-06
7.31688e-08
1.62756e-06
1.10011e-07
1.47924e-06
1.47863e-07
1.29364e-06
1.85098e-07
1.0732e-06
2.19872e-07
8.22325e-07
2.50272e-07
5.47204e-07
2.74482e-07
2.55568e-07
2.90973e-07
-4.37721e-08
2.9866e-07
-3.41494e-07
2.97032e-07
-6.28392e-07
2.86203e-07
-8.95989e-07
2.66904e-07
-1.13707e-06
2.40396e-07
-1.34606e-06
2.08333e-07
-1.51926e-06
1.72583e-07
-1.65487e-06
1.3505e-07
-1.75286e-06
9.75048e-08
-1.81473e-06
6.14654e-08
-1.84318e-06
2.81145e-08
-1.84173e-06
-1.72176e-09
-1.8144e-06
-2.75593e-08
-1.7654e-06
-4.92024e-08
-1.69887e-06
-6.67027e-08
-1.61873e-06
-8.02938e-08
-1.52852e-06
-9.03196e-08
-1.43139e-06
-9.71877e-08
-1.33005e-06
-1.01337e-07
-1.22679e-06
-1.03204e-07
-1.12348e-06
-1.03204e-07
-1.02162e-06
-1.01711e-07
-9.22393e-07
-9.90503e-08
-8.26685e-07
-9.55036e-08
-7.35146e-07
-9.13149e-08
-6.48217e-07
-8.66849e-08
-5.66178e-07
-8.17747e-08
-4.8918e-07
-7.67077e-08
-4.17286e-07
-7.15749e-08
-3.50499e-07
-6.64356e-08
-2.88792e-07
-6.13177e-08
-2.32152e-07
-5.62112e-08
-1.80615e-07
-5.10642e-08
-1.34323e-07
-4.57739e-08
-9.35727e-08
-4.01827e-08
-5.8878e-08
-3.40778e-08
-3.09972e-08
-2.7215e-08
-1.08949e-08
-1.93911e-08
4.82923e-10
-1.06302e-08
3.01657e-09
-1.76977e-09
3.69635e-09
2.47724e-09
1.89834e-09
2.1327e-08
-1.8887e-08
6.07171e-08
-4.85775e-08
1.21066e-07
-7.87645e-08
2.01198e-07
-1.06846e-07
2.9955e-07
-1.32391e-07
4.14723e-07
-1.55749e-07
5.45667e-07
-1.775e-07
6.91677e-07
-1.98199e-07
8.52323e-07
-2.1828e-07
1.02736e-06
-2.38022e-07
1.21661e-06
-2.5756e-07
1.41991e-06
-2.76893e-07
1.63697e-06
-2.95888e-07
1.86731e-06
-3.14295e-07
2.11019e-06
-3.31737e-07
2.36449e-06
-3.47713e-07
2.62859e-06
-3.61583e-07
2.90035e-06
-3.72567e-07
3.17691e-06
-3.7973e-07
3.45464e-06
-3.81985e-07
3.72901e-06
-3.78094e-07
3.9945e-06
-3.66685e-07
4.24457e-06
-3.46285e-07
4.47155e-06
-3.15374e-07
4.66677e-06
-2.72468e-07
4.82061e-06
-2.16242e-07
4.92274e-06
-1.4568e-07
4.96253e-06
-6.02687e-08
4.92949e-06
3.97916e-08
4.81402e-06
1.53368e-07
4.60813e-06
2.78214e-07
4.30636e-06
4.10855e-07
3.90664e-06
5.46595e-07
3.411e-06
6.79682e-07
2.82612e-06
8.03644e-07
2.16347e-06
9.11779e-07
1.43901e-06
9.97762e-07
6.72522e-07
1.05627e-06
-1.13561e-07
1.08353e-06
-8.95525e-07
1.07777e-06
-1.64995e-06
1.0394e-06
-2.3552e-06
9.70945e-07
-2.9928e-06
8.76793e-07
-3.54832e-06
7.62696e-07
-4.01201e-06
6.35176e-07
-4.37888e-06
5.00893e-07
-4.64838e-06
3.66085e-07
-4.82387e-06
2.3613e-07
-4.91177e-06
1.15282e-07
-4.92069e-06
6.55953e-09
-4.86061e-06
-8.8204e-08
-4.74209e-06
-1.6821e-07
-4.57569e-06
-2.33513e-07
-4.37148e-06
-2.84828e-07
-4.13873e-06
-3.23289e-07
-3.88575e-06
-3.50279e-07
-3.61977e-06
-3.67293e-07
-3.34699e-06
-3.75844e-07
-3.07256e-06
-3.77382e-07
-2.80067e-06
-3.73232e-07
-2.53469e-06
-3.64571e-07
-2.27722e-06
-3.52431e-07
-2.03021e-06
-3.37702e-07
-1.79506e-06
-3.21136e-07
-1.57271e-06
-3.03346e-07
-1.36376e-06
-2.84813e-07
-1.16852e-06
-2.65897e-07
-9.87128e-07
-2.46841e-07
-8.19627e-07
-2.27772e-07
-6.66042e-07
-2.08695e-07
-5.2648e-07
-1.89474e-07
-4.01234e-07
-1.69824e-07
-2.90881e-07
-1.49302e-07
-1.96364e-07
-1.27329e-07
-1.19003e-07
-1.03281e-07
-6.03466e-08
-7.6721e-08
-2.16919e-08
-4.79244e-08
-2.88264e-09
-1.92301e-08
1.38864e-09
1.21418e-08
-9.53036e-09
5.21768e-08
-5.74544e-08
1.2138e-07
-1.16408e-07
2.19654e-07
-1.75741e-07
3.45796e-07
-2.31728e-07
4.98261e-07
-2.83633e-07
6.75637e-07
-3.31944e-07
8.76821e-07
-3.77548e-07
1.10103e-06
-4.21329e-07
1.34776e-06
-4.63979e-07
1.61665e-06
-5.05938e-07
1.90737e-06
-5.47382e-07
2.21954e-06
-5.88233e-07
2.55258e-06
-6.28165e-07
2.90558e-06
-6.66608e-07
3.2772e-06
-7.02744e-07
3.66553e-06
-7.35496e-07
4.06793e-06
-7.63512e-07
4.48091e-06
-7.8515e-07
4.89995e-06
-7.98464e-07
5.3194e-06
-8.01204e-07
5.73227e-06
-7.90823e-07
6.13015e-06
-7.64519e-07
6.50311e-06
-7.193e-07
6.83968e-06
-6.52096e-07
7.1269e-06
-5.59936e-07
7.35049e-06
-4.40183e-07
7.49521e-06
-2.90851e-07
7.54537e-06
-1.10984e-07
7.4856e-06
9.89062e-08
7.30181e-06
3.36409e-07
6.98236e-06
5.96834e-07
6.51931e-06
8.72985e-07
5.90975e-06
1.15517e-06
5.15687e-06
1.43152e-06
4.27071e-06
1.68871e-06
3.26844e-06
1.91292e-06
2.17393e-06
2.09113e-06
1.01669e-06
2.21235e-06
-1.69775e-07
2.26885e-06
-1.35008e-06
2.25696e-06
-2.48926e-06
2.17749e-06
-3.55504e-06
2.03567e-06
-4.51981e-06
1.84053e-06
-5.36203e-06
1.60392e-06
-6.06708e-06
1.33927e-06
-6.62741e-06
1.06032e-06
-7.04208e-06
7.79942e-07
-7.31589e-06
5.09228e-07
-7.45815e-06
2.56968e-07
-7.48149e-06
2.94288e-08
-7.40049e-06
-1.69555e-07
-7.23071e-06
-3.38269e-07
-6.98769e-06
-4.76739e-07
-6.68635e-06
-5.8632e-07
-6.34048e-06
-6.69248e-07
-5.96251e-06
-7.28282e-07
-5.56333e-06
-7.66423e-07
-5.15232e-06
-7.86715e-07
-4.73738e-06
-7.92101e-07
-4.325e-06
-7.85297e-07
-3.92043e-06
-7.68738e-07
-3.52782e-06
-7.44568e-07
-3.15033e-06
-7.14648e-07
-2.7903e-06
-6.80558e-07
-2.44937e-06
-6.43601e-07
-2.12863e-06
-6.04811e-07
-1.82875e-06
-5.64974e-07
-1.55009e-06
-5.24637e-07
-1.29282e-06
-4.84116e-07
-1.05704e-06
-4.43487e-07
-8.4291e-07
-4.02568e-07
-6.50737e-07
-3.60908e-07
-4.81117e-07
-3.17785e-07
-3.35e-07
-2.72267e-07
-2.13696e-07
-2.2337e-07
-1.18723e-07
-1.70446e-07
-5.14022e-08
-1.13965e-07
-1.21263e-08
-5.72436e-08
-1.0206e-08
2.14236e-08
-3.02531e-08
8.20617e-08
-1.16648e-07
1.79431e-07
-2.1241e-07
3.12122e-07
-3.07137e-07
4.78679e-07
-3.97029e-07
6.77684e-07
-4.8142e-07
9.07928e-07
-5.61013e-07
1.16847e-06
-6.36966e-07
1.45863e-06
-7.10408e-07
1.77789e-06
-7.82206e-07
2.12579e-06
-8.52877e-07
2.50187e-06
-9.22557e-07
2.90547e-06
-9.91007e-07
3.33568e-06
-1.05761e-06
3.79112e-06
-1.12137e-06
4.26987e-06
-1.18089e-06
4.76927e-06
-1.23437e-06
5.28577e-06
-1.27955e-06
5.81472e-06
-1.31373e-06
6.35026e-06
-1.3337e-06
6.88507e-06
-1.33579e-06
7.41022e-06
-1.31585e-06
7.91506e-06
-1.26931e-06
8.38705e-06
-1.19134e-06
8.81176e-06
-1.07696e-06
9.17294e-06
-9.21369e-07
9.45269e-06
-7.20283e-07
9.63185e-06
-4.70478e-07
9.69069e-06
-1.70387e-07
9.60975e-06
1.79184e-07
9.37107e-06
5.74329e-07
8.95966e-06
1.0074e-06
8.36511e-06
1.46659e-06
7.58335e-06
1.93592e-06
6.61805e-06
2.39574e-06
5.48174e-06
2.82387e-06
4.19618e-06
3.19729e-06
2.79189e-06
3.49421e-06
1.30677e-06
3.69626e-06
-2.16013e-07
3.79045e-06
-1.73083e-06
3.77063e-06
-3.19259e-06
3.63817e-06
-4.55978e-06
3.40183e-06
-5.79696e-06
3.07672e-06
-6.8767e-06
2.6827e-06
-7.78056e-06
2.2422e-06
-8.49926e-06
1.77813e-06
-9.03198e-06
1.31185e-06
-9.3852e-06
8.61727e-07
-9.57103e-06
4.42229e-07
-9.60563e-06
6.36059e-08
-9.50754e-06
-2.6791e-07
-9.29638e-06
-5.49572e-07
-8.99173e-06
-7.81455e-07
-8.6123e-06
-9.65758e-07
-8.17541e-06
-1.10611e-06
-7.69665e-06
-1.20698e-06
-7.18973e-06
-1.27323e-06
-6.66651e-06
-1.30976e-06
-6.13703e-06
-1.32134e-06
-5.60962e-06
-1.31239e-06
-5.09106e-06
-1.28689e-06
-4.58679e-06
-1.24837e-06
-4.10102e-06
-1.19988e-06
-3.63693e-06
-1.14404e-06
-3.19684e-06
-1.08302e-06
-2.78238e-06
-1.01856e-06
-2.39458e-06
-9.51993e-07
-2.0341e-06
-8.84283e-07
-1.7013e-06
-8.16028e-07
-1.39638e-06
-7.47457e-07
-1.11953e-06
-6.7842e-07
-8.71015e-07
-6.08378e-07
-6.51291e-07
-5.36414e-07
-4.61107e-07
-4.61311e-07
-3.01534e-07
-3.81764e-07
-1.73938e-07
-2.96827e-07
-7.98657e-08
-2.06793e-07
-2.09771e-08
-1.14905e-07
-3.06338e-08
2.91218e-08
-5.86394e-08
1.0738e-07
-1.93444e-07
2.29016e-07
-3.32645e-07
3.91162e-07
-4.67955e-07
5.91977e-07
-5.96551e-07
8.30136e-07
-7.18323e-07
1.10468e-06
-8.34337e-07
1.41488e-06
-9.45995e-07
1.76018e-06
-1.05457e-06
2.14006e-06
-1.161e-06
2.55396e-06
-1.26575e-06
3.00121e-06
-1.36882e-06
3.48084e-06
-1.46973e-06
3.99156e-06
-1.56748e-06
4.53153e-06
-1.66057e-06
5.09826e-06
-1.74693e-06
5.68844e-06
-1.82394e-06
6.29774e-06
-1.88831e-06
6.92062e-06
-1.93616e-06
7.55016e-06
-1.96287e-06
8.17782e-06
-1.96317e-06
8.79328e-06
-1.93112e-06
9.38427e-06
-1.86021e-06
9.93641e-06
-1.74348e-06
1.04331e-05
-1.57381e-06
1.08558e-05
-1.34424e-06
1.11837e-05
-1.04854e-06
1.13947e-05
-6.81898e-07
1.14656e-05
-2.41831e-07
1.13733e-05
2.70795e-07
1.10961e-05
8.50654e-07
1.06157e-05
1.48694e-06
9.91861e-06
2.16268e-06
8.99885e-06
2.85458e-06
7.85969e-06
3.53369e-06
6.51518e-06
4.1671e-06
4.99073e-06
4.72038e-06
3.32269e-06
5.16083e-06
1.55671e-06
5.46079e-06
-2.54953e-07
5.60068e-06
-2.05691e-06
5.57119e-06
-3.79447e-06
5.37441e-06
-5.41744e-06
5.02356e-06
-6.8833e-06
4.54143e-06
-8.15958e-06
3.95787e-06
-9.22498e-06
3.30653e-06
-1.00695e-05
2.62155e-06
-1.06932e-05
1.9346e-06
-1.1105e-05
1.27263e-06
-1.13202e-05
6.56628e-07
-1.13584e-05
1.01261e-07
-1.12419e-05
-3.84764e-07
-1.09938e-05
-7.97813e-07
-1.0637e-05
-1.13828e-06
-1.01932e-05
-1.40954e-06
-9.68224e-06
-1.61694e-06
-9.12209e-06
-1.76697e-06
-8.52848e-06
-1.86663e-06
-7.91503e-06
-1.92295e-06
-7.2933e-06
-1.94275e-06
-6.67297e-06
-1.93233e-06
-6.06198e-06
-1.89741e-06
-5.46674e-06
-1.84305e-06
-4.89233e-06
-1.77367e-06
-4.34265e-06
-1.69303e-06
-3.82065e-06
-1.60429e-06
-3.32843e-06
-1.50997e-06
-2.86749e-06
-1.41208e-06
-2.43879e-06
-1.31207e-06
-2.04295e-06
-1.2109e-06
-1.68034e-06
-1.10905e-06
-1.35121e-06
-1.00648e-06
-1.05578e-06
-9.02695e-07
-7.94349e-07
-7.96688e-07
-5.67399e-07
-6.87062e-07
-3.75714e-07
-5.72213e-07
-2.2052e-07
-4.50758e-07
-1.03691e-07
-3.22338e-07
-2.82415e-08
-1.89095e-07
-5.82612e-08
3.49119e-08
-9.27667e-08
1.26835e-07
-2.83878e-07
2.67688e-07
-4.72056e-07
4.53473e-07
-6.52364e-07
6.82043e-07
-8.23781e-07
9.52178e-07
-9.87153e-07
1.26313e-06
-1.14403e-06
1.61437e-06
-1.296e-06
2.00538e-06
-1.44438e-06
2.43557e-06
-1.59001e-06
2.9042e-06
-1.73323e-06
3.41027e-06
-1.87379e-06
3.95247e-06
-2.01088e-06
4.52907e-06
-2.14309e-06
5.13775e-06
-2.26833e-06
5.77551e-06
-2.38385e-06
6.43847e-06
-2.48613e-06
7.12169e-06
-2.57085e-06
7.81899e-06
-2.63286e-06
8.52273e-06
-2.66609e-06
9.22359e-06
-2.66361e-06
9.9104e-06
-2.6176e-06
1.05699e-05
-2.51949e-06
1.11866e-05
-2.36007e-06
1.17426e-05
-2.12984e-06
1.22177e-05
-1.81946e-06
1.25893e-05
-1.42037e-06
1.28328e-05
-9.25764e-07
1.29221e-05
-3.31717e-07
1.28309e-05
3.61348e-07
1.25337e-05
1.1471e-06
1.20079e-05
2.01179e-06
1.12365e-05
2.93304e-06
1.02104e-05
3.87947e-06
8.93126e-06
4.81145e-06
7.4136e-06
5.68326e-06
5.68565e-06
6.4467e-06
3.78909e-06
7.05563e-06
1.77717e-06
7.47088e-06
-2.8866e-07
7.66462e-06
-2.34298e-06
7.62365e-06
-4.32128e-06
7.35093e-06
-6.16464e-06
6.86526e-06
-7.82374e-06
6.19901e-06
-9.26168e-06
5.39438e-06
-1.04553e-05
4.49874e-06
-1.13948e-05
3.55978e-06
-1.20828e-05
2.62123e-06
-1.25313e-05
1.71982e-06
-1.27594e-05
8.83646e-07
-1.27909e-05
1.31815e-07
-1.26516e-05
-5.2477e-07
-1.23677e-05
-1.08206e-06
-1.19649e-05
-1.5413e-06
-1.14669e-05
-1.9075e-06
-1.08956e-05
-2.18815e-06
-1.02702e-05
-2.39208e-06
-9.60794e-06
-2.52866e-06
-8.92332e-06
-2.60723e-06
-8.22889e-06
-2.63675e-06
-7.53515e-06
-2.62555e-06
-6.85082e-06
-2.58114e-06
-6.183e-06
-2.51019e-06
-5.53739e-06
-2.41852e-06
-4.91848e-06
-2.3111e-06
-4.32976e-06
-2.19211e-06
-3.77382e-06
-2.06495e-06
-3.25261e-06
-1.93228e-06
-2.76749e-06
-1.79612e-06
-2.31941e-06
-1.65786e-06
-1.90901e-06
-1.51828e-06
-1.53668e-06
-1.37758e-06
-1.2027e-06
-1.23542e-06
-9.07246e-07
-1.09084e-06
-6.5059e-07
-9.4238e-07
-4.33234e-07
-7.88201e-07
-2.56234e-07
-6.2637e-07
-1.21688e-07
-4.5549e-07
-3.36165e-08
-2.75809e-07
-9.11501e-08
3.877e-08
-1.30695e-07
1.40119e-07
-3.83708e-07
2.94723e-07
-6.2517e-07
4.98042e-07
-8.5426e-07
7.47903e-07
-1.07225e-06
1.04327e-06
-1.28117e-06
1.38358e-06
-1.48304e-06
1.76838e-06
-1.67953e-06
2.19707e-06
-1.87182e-06
2.66884e-06
-2.06055e-06
3.18258e-06
-2.24576e-06
3.73691e-06
-2.42692e-06
4.33002e-06
-2.60283e-06
4.95968e-06
-2.77163e-06
5.6231e-06
-2.93068e-06
6.31678e-06
-3.07653e-06
7.03638e-06
-3.2048e-06
7.77651e-06
-3.31015e-06
8.5306e-06
-3.38618e-06
9.2906e-06
-3.42543e-06
1.00469e-05
-3.4193e-06
1.07879e-05
-3.35814e-06
1.15e-05
-3.23128e-06
1.21674e-05
-3.02724e-06
1.27717e-05
-2.73401e-06
1.32918e-05
-2.33962e-06
1.37042e-05
-1.83284e-06
1.39824e-05
-1.2043e-06
1.40982e-05
-4.47944e-07
1.40218e-05
4.3709e-07
1.37239e-05
1.44433e-06
1.3177e-05
2.55771e-06
1.23592e-05
3.74973e-06
1.12569e-05
4.98045e-06
9.8688e-06
6.19814e-06
8.20834e-06
7.34207e-06
6.30584e-06
8.34738e-06
4.20806e-06
9.15141e-06
1.97607e-06
9.7007e-06
-3.18738e-07
9.95715e-06
-2.60007e-06
9.90266e-06
-4.79273e-06
9.54133e-06
-6.82853e-06
8.89895e-06
-8.65126e-06
8.01982e-06
-1.02201e-05
6.96144e-06
-1.15109e-05
5.78793e-06
-1.25159e-05
4.56316e-06
-1.32412e-05
3.34488e-06
-1.37036e-05
2.18062e-06
-1.39273e-05
1.10575e-06
-1.39403e-05
1.43436e-07
-1.37722e-05
-6.9397e-07
-1.34522e-05
-1.40286e-06
-1.30079e-05
-1.98612e-06
-1.24645e-05
-2.45108e-06
-1.18449e-05
-2.80784e-06
-1.11689e-05
-3.06788e-06
-1.04541e-05
-3.24314e-06
-9.71562e-06
-3.34535e-06
-8.96622e-06
-3.38568e-06
-8.21679e-06
-3.37441e-06
-7.47639e-06
-3.32086e-06
-6.75253e-06
-3.23326e-06
-6.05134e-06
-3.11883e-06
-5.37776e-06
-2.98371e-06
-4.73572e-06
-2.83311e-06
-4.12831e-06
-2.67123e-06
-3.55794e-06
-2.50146e-06
-3.02647e-06
-2.32635e-06
-2.53529e-06
-2.14774e-06
-2.08543e-06
-1.96679e-06
-1.67761e-06
-1.78401e-06
-1.31228e-06
-1.59931e-06
-9.89673e-07
-1.41197e-06
-7.09912e-07
-1.22064e-06
-4.73249e-07
-1.02333e-06
-2.8047e-07
-8.17597e-07
-1.33605e-07
-6.00804e-07
-3.70865e-08
-3.70825e-07
-1.27377e-07
4.07764e-08
-1.70569e-07
1.47347e-07
-4.88731e-07
3.10252e-07
-7.86542e-07
5.25153e-07
-1.0677e-06
7.90255e-07
-1.33594e-06
1.10485e-06
-1.5944e-06
1.46851e-06
-1.84541e-06
1.8807e-06
-2.09048e-06
2.34053e-06
-2.33045e-06
2.84672e-06
-2.56558e-06
3.39764e-06
-2.79554e-06
3.99129e-06
-3.01943e-06
4.62527e-06
-3.2357e-06
5.29679e-06
-3.44205e-06
6.00251e-06
-3.63536e-06
6.73849e-06
-3.81151e-06
7.49998e-06
-3.96537e-06
8.28133e-06
-4.09065e-06
9.07575e-06
-4.17983e-06
9.87513e-06
-4.22413e-06
1.06699e-05
-4.21345e-06
1.14486e-05
-4.13639e-06
1.2198e-05
-3.9803e-06
1.29024e-05
-3.73147e-06
1.3544e-05
-3.37539e-06
1.41016e-05
-2.89727e-06
1.45515e-05
-2.28287e-06
1.48666e-05
-1.51962e-06
1.50167e-05
-5.98447e-07
1.49692e-05
4.84011e-07
1.46903e-05
1.72249e-06
1.41472e-05
3.09993e-06
1.33114e-05
4.5845e-06
1.2163e-05
6.12764e-06
1.06955e-05
7.66423e-06
8.92012e-06
9.11595e-06
6.86811e-06
1.03977e-05
4.59116e-06
1.14265e-05
2.15884e-06
1.2131e-05
-3.46397e-07
1.24602e-05
-2.83588e-06
1.23898e-05
-5.22237e-06
1.19255e-05
-7.42739e-06
1.11017e-05
-9.38751e-06
9.97794e-06
-1.10584e-05
8.6306e-06
-1.24163e-05
7.14433e-06
-1.3457e-05
5.60239e-06
-1.41922e-05
4.07861e-06
-1.46453e-05
2.63217e-06
-1.48467e-05
1.30539e-06
-1.48294e-05
1.24508e-07
-1.46269e-05
-8.98013e-07
-1.42706e-05
-1.7603e-06
-1.37896e-05
-2.46798e-06
-1.32098e-05
-3.0315e-06
-1.25537e-05
-3.4641e-06
-1.18414e-05
-3.78022e-06
-1.109e-05
-3.99444e-06
-1.03142e-05
-4.12089e-06
-9.52667e-06
-4.17282e-06
-8.73816e-06
-4.16241e-06
-7.95778e-06
-4.10062e-06
-7.19313e-06
-3.99717e-06
-6.45059e-06
-3.86052e-06
-5.73542e-06
-3.69794e-06
-5.05194e-06
-3.51554e-06
-4.40373e-06
-3.31832e-06
-3.79372e-06
-3.11027e-06
-3.22433e-06
-2.89448e-06
-2.69755e-06
-2.67319e-06
-2.21499e-06
-2.44795e-06
-1.7779e-06
-2.21966e-06
-1.38714e-06
-1.98859e-06
-1.04317e-06
-1.7544e-06
-7.4616e-07
-1.51607e-06
-4.96119e-07
-1.27175e-06
-2.93411e-07
-1.01865e-06
-1.39578e-07
-7.52977e-07
-3.87277e-08
-4.70067e-07
-1.65168e-07
4.1011e-08
-2.10616e-07
1.48741e-07
-5.94897e-07
3.14744e-07
-9.50985e-07
5.35736e-07
-1.28721e-06
8.10785e-07
-1.60957e-06
1.13965e-06
-1.92195e-06
1.52198e-06
-2.22652e-06
1.95689e-06
-2.52428e-06
2.4429e-06
-2.81546e-06
2.97801e-06
-3.09975e-06
3.55976e-06
-3.3764e-06
4.18534e-06
-3.64416e-06
4.85162e-06
-3.90116e-06
5.55512e-06
-4.14476e-06
6.29194e-06
-4.37143e-06
7.05767e-06
-4.57656e-06
7.84728e-06
-4.75435e-06
8.6549e-06
-4.89772e-06
9.47375e-06
-4.99821e-06
1.02959e-05
-5.0459e-06
1.11122e-05
-5.02939e-06
1.19117e-05
-4.93577e-06
1.26822e-05
-4.75062e-06
1.34089e-05
-4.4582e-06
1.4075e-05
-4.04159e-06
1.46608e-05
-3.48318e-06
1.5143e-05
-2.76542e-06
1.54949e-05
-1.87195e-06
1.56856e-05
-7.89579e-07
1.56799e-05
4.89099e-07
1.54396e-05
1.96199e-06
1.49256e-05
3.61312e-06
1.41012e-05
5.40801e-06
1.29378e-05
7.29004e-06
1.14215e-05
9.17959e-06
9.55879e-06
1.09777e-05
7.38094e-06
1.25746e-05
4.94445e-06
1.3862e-05
2.32826e-06
1.47461e-05
-3.72463e-07
1.51597e-05
-3.05475e-06
1.50706e-05
-5.61741e-06
1.44865e-05
-7.97038e-06
1.34531e-05
-1.00425e-05
1.20487e-05
-1.17864e-05
1.03735e-05
-1.31803e-05
8.53753e-06
-1.42257e-05
6.64729e-06
-1.49427e-05
4.79497e-06
-1.53631e-05
3.05179e-06
-1.55248e-05
1.46605e-06
-1.54667e-05
6.51442e-08
-1.52257e-05
-1.14035e-06
-1.48352e-05
-2.15208e-06
-1.43244e-05
-2.97978e-06
-1.37188e-05
-3.63794e-06
-1.304e-05
-4.14341e-06
-1.23067e-05
-4.51376e-06
-1.15351e-05
-4.76622e-06
-1.07389e-05
-4.91711e-06
-9.92998e-06
-4.9816e-06
-9.11869e-06
-4.97349e-06
-8.31379e-06
-4.9052e-06
-7.52281e-06
-4.78771e-06
-6.75219e-06
-4.6306e-06
-6.0074e-06
-4.44209e-06
-5.29314e-06
-4.22906e-06
-4.61346e-06
-3.99718e-06
-3.97186e-06
-3.75096e-06
-3.37146e-06
-3.4939e-06
-2.815e-06
-3.2286e-06
-2.30488e-06
-2.95695e-06
-1.84314e-06
-2.6802e-06
-1.43135e-06
-2.39911e-06
-1.07052e-06
-2.1139e-06
-7.6104e-07
-1.82415e-06
-5.02788e-07
-1.52853e-06
-2.95531e-07
-1.22437e-06
-1.3983e-07
-9.07092e-07
-3.86187e-08
-5.69733e-07
-2.02916e-07
3.94832e-08
-2.49078e-07
1.44424e-07
-6.98272e-07
3.08671e-07
-1.11366e-06
5.30956e-07
-1.50801e-06
8.11725e-07
-1.88895e-06
1.15131e-06
-2.26027e-06
1.54921e-06
-2.62331e-06
2.00388e-06
-2.97801e-06
2.51285e-06
-3.32367e-06
3.073e-06
-3.65929e-06
3.68076e-06
-3.98367e-06
4.33227e-06
-4.29529e-06
5.02349e-06
-4.59207e-06
5.75016e-06
-4.87119e-06
6.50778e-06
-5.12887e-06
7.29148e-06
-5.36015e-06
8.09593e-06
-5.55875e-06
8.91519e-06
-5.71701e-06
9.74259e-06
-5.82572e-06
1.05706e-05
-5.8741e-06
1.13906e-05
-5.84971e-06
1.21929e-05
-5.73844e-06
1.29664e-05
-5.52449e-06
1.3698e-05
-5.1904e-06
1.4373e-05
-4.71715e-06
1.49737e-05
-4.0845e-06
1.54791e-05
-3.27149e-06
1.58639e-05
-2.2575e-06
1.60976e-05
-1.02408e-06
1.61438e-05
4.4204e-07
1.59604e-05
2.14457e-06
1.55009e-05
4.07171e-06
1.47189e-05
6.18926e-06
1.35743e-05
8.43413e-06
1.20421e-05
1.07113e-05
1.0122e-05
1.28977e-05
7.84348e-06
1.48535e-05
5.26772e-06
1.64384e-05
2.48417e-06
1.75304e-05
-3.97317e-07
1.80418e-05
-3.25712e-06
1.79308e-05
-5.97788e-06
1.72072e-05
-8.45632e-06
1.59313e-05
-1.0613e-05
1.42051e-05
-1.23983e-05
1.2159e-05
-1.37944e-05
9.93424e-06
-1.48115e-05
7.66537e-06
-1.54809e-05
5.46538e-06
-1.58456e-05
3.41733e-06
-1.59524e-05
1.57328e-06
-1.58461e-05
-4.12138e-08
-1.55666e-05
-1.42034e-06
-1.51479e-05
-2.57158e-06
-1.46181e-05
-3.5103e-06
-1.40009e-05
-4.25586e-06
-1.33158e-05
-4.82911e-06
-1.25793e-05
-5.25071e-06
-1.18055e-05
-5.54029e-06
-1.10069e-05
-5.71604e-06
-1.01941e-05
-5.79465e-06
-9.37653e-06
-5.79123e-06
-8.56252e-06
-5.71935e-06
-7.75931e-06
-5.59099e-06
-6.9733e-06
-5.41661e-06
-6.21013e-06
-5.20518e-06
-5.47482e-06
-4.96422e-06
-4.77191e-06
-4.69987e-06
-4.10555e-06
-4.417e-06
-3.47966e-06
-4.1194e-06
-2.89789e-06
-3.8099e-06
-2.36369e-06
-3.49059e-06
-1.88021e-06
-3.16304e-06
-1.4501e-06
-2.82849e-06
-1.07528e-06
-2.48788e-06
-7.56731e-07
-2.14174e-06
-4.9437e-07
-1.78982e-06
-2.87264e-07
-1.43029e-06
-1.34471e-07
-1.05863e-06
-3.67845e-08
-6.66182e-07
-2.39054e-07
3.60745e-08
-2.84082e-07
1.34272e-07
-7.9491e-07
2.92293e-07
-1.27009e-06
5.11986e-07
-1.7262e-06
7.9565e-07
-2.17119e-06
1.14414e-06
-2.60746e-06
1.55643e-06
-3.03448e-06
2.02979e-06
-3.45047e-06
2.56027e-06
-3.85347e-06
3.14319e-06
-4.24176e-06
3.77352e-06
-4.61375e-06
4.44613e-06
-4.96782e-06
5.1559e-06
-5.30191e-06
5.89774e-06
-5.61321e-06
6.66645e-06
-5.89788e-06
7.45672e-06
-6.15079e-06
8.26294e-06
-6.36543e-06
9.0791e-06
-6.53373e-06
9.89875e-06
-6.64601e-06
1.07148e-05
-6.69089e-06
1.15196e-05
-6.65528e-06
1.23045e-05
-6.52427e-06
1.30602e-05
-6.28111e-06
1.37759e-05
-5.90716e-06
1.44395e-05
-5.38185e-06
1.50367e-05
-4.68275e-06
1.55498e-05
-3.78578e-06
1.5957e-05
-2.66586e-06
1.62301e-05
-1.29841e-06
1.63333e-05
3.37735e-07
1.62215e-05
2.25529e-06
1.58413e-05
4.45098e-06
1.51343e-05
6.8955e-06
1.40455e-05
9.52256e-06
1.25353e-05
1.22216e-05
1.05925e-05
1.48411e-05
8.2431e-06
1.72041e-05
5.55271e-06
1.91306e-05
2.62253e-06
2.04628e-05
-4.20795e-07
2.10874e-05
-3.43846e-06
2.09504e-05
-6.2946e-06
2.00647e-05
-8.87107e-06
1.85086e-05
-1.10797e-05
1.64143e-05
-1.28697e-05
1.39498e-05
-1.42299e-05
1.12957e-05
-1.51828e-05
8.62026e-06
-1.57747e-05
6.05974e-06
-1.60627e-05
3.70777e-06
-1.61036e-05
1.61618e-06
-1.59475e-05
-1.9589e-07
-1.56357e-05
-1.73129e-06
-1.52011e-05
-3.00596e-06
-1.4669e-05
-4.04243e-06
-1.40595e-05
-4.86558e-06
-1.33886e-05
-5.50023e-06
-1.26698e-05
-5.96981e-06
-1.19146e-05
-6.29579e-06
-1.11333e-05
-6.49769e-06
-1.03351e-05
-6.59317e-06
-9.5285e-06
-6.59822e-06
-8.72107e-06
-6.52717e-06
-7.91974e-06
-6.39271e-06
-7.13082e-06
-6.20592e-06
-6.36005e-06
-5.9763e-06
-5.6128e-06
-5.71178e-06
-4.89411e-06
-5.41882e-06
-4.20885e-06
-5.10248e-06
-3.56178e-06
-4.76661e-06
-2.95769e-06
-4.41406e-06
-2.40129e-06
-4.04697e-06
-1.89717e-06
-3.66706e-06
-1.4495e-06
-3.27595e-06
-1.06164e-06
-2.87539e-06
-7.35675e-07
-2.46723e-06
-4.71916e-07
-2.05297e-06
-2.6878e-07
-1.63269e-06
-1.23341e-07
-1.20324e-06
-3.31329e-08
-7.55593e-07
-2.71783e-07
3.04687e-08
-3.1343e-07
1.17785e-07
-8.80657e-07
2.65551e-07
-1.41622e-06
4.79975e-07
-1.93902e-06
7.65534e-07
-2.45514e-06
1.12327e-06
-2.96363e-06
1.55097e-06
-3.4607e-06
2.044e-06
-3.94218e-06
2.5963e-06
-4.40463e-06
3.20114e-06
-4.84568e-06
3.85174e-06
-5.26363e-06
4.54148e-06
-5.65705e-06
5.26408e-06
-6.02417e-06
6.01351e-06
-6.36245e-06
6.78392e-06
-6.66821e-06
7.56947e-06
-6.93639e-06
8.3643e-06
-7.1604e-06
9.16233e-06
-7.33202e-06
9.95728e-06
-7.44132e-06
1.07426e-05
-7.47667e-06
1.15114e-05
-7.42466e-06
1.22566e-05
-7.27008e-06
1.29705e-05
-6.9958e-06
1.36451e-05
-6.58264e-06
1.42715e-05
-6.00928e-06
1.48396e-05
-5.25194e-06
1.53369e-05
-4.28423e-06
1.57467e-05
-3.07702e-06
1.60462e-05
-1.5992e-06
1.62025e-05
1.79988e-07
1.61705e-05
2.28585e-06
1.58909e-05
4.72933e-06
1.52922e-05
7.49315e-06
1.43003e-05
1.05136e-05
1.28558e-05
1.36656e-05
1.09326e-05
1.67641e-05
8.55074e-06
1.95863e-05
5.77974e-06
2.19025e-05
2.73375e-06
2.35102e-05
-4.41957e-07
2.42648e-05
-3.58719e-06
2.4097e-05
-6.54552e-06
2.30236e-05
-9.18273e-06
2.11454e-05
-1.14018e-05
1.86322e-05
-1.31523e-05
1.56993e-05
-1.44328e-05
1.25758e-05
-1.5283e-05
9.47108e-06
-1.57688e-05
6.54721e-06
-1.5964e-05
3.90524e-06
-1.59355e-05
1.59012e-06
-1.57371e-05
-3.92137e-07
-1.54089e-05
-2.05783e-06
-1.49797e-05
-3.43408e-06
-1.44697e-05
-4.55169e-06
-1.38937e-05
-5.44113e-06
-1.32629e-05
-6.1307e-06
-1.25866e-05
-6.64578e-06
-1.18734e-05
-7.00879e-06
-1.11311e-05
-7.23972e-06
-1.03675e-05
-7.35657e-06
-9.58995e-06
-7.37566e-06
-8.80534e-06
-7.31168e-06
-8.02026e-06
-7.17771e-06
-7.24092e-06
-6.9852e-06
-6.47322e-06
-6.74395e-06
-5.72283e-06
-6.4621e-06
-4.99534e-06
-6.14623e-06
-4.29634e-06
-5.80138e-06
-3.63155e-06
-5.43127e-06
-3.00694e-06
-5.0385e-06
-2.42873e-06
-4.62496e-06
-1.90326e-06
-4.19223e-06
-1.43672e-06
-3.74212e-06
-1.03453e-06
-3.2771e-06
-7.00612e-07
-2.80057e-06
-4.3635e-07
-2.31656e-06
-2.39847e-07
-1.82846e-06
-1.05851e-07
-1.33652e-06
-2.73499e-08
-8.3349e-07
-2.9869e-07
2.20478e-08
-3.34293e-07
9.39539e-08
-9.5093e-07
2.28063e-07
-1.54854e-06
4.36261e-07
-2.14538e-06
7.25157e-07
-2.74203e-06
1.09514e-06
-3.33143e-06
1.54175e-06
-3.90497e-06
2.05749e-06
-4.4555e-06
2.63347e-06
-4.97817e-06
3.26051e-06
-5.47031e-06
3.92979e-06
-5.93059e-06
4.63313e-06
-6.35819e-06
5.36304e-06
-6.75199e-06
6.1126e-06
-7.11001e-06
6.87525e-06
-7.42897e-06
7.6447e-06
-7.70404e-06
8.41474e-06
-7.92874e-06
9.17919e-06
-8.09487e-06
9.93186e-06
-8.19251e-06
1.06666e-05
-8.21005e-06
1.13772e-05
-8.13416e-06
1.20579e-05
-7.94976e-06
1.27028e-05
-7.63994e-06
1.33065e-05
-7.1858e-06
1.38637e-05
-6.56621e-06
1.43691e-05
-5.75737e-06
1.48165e-05
-4.73196e-06
1.51969e-05
-3.45815e-06
1.54956e-05
-1.89896e-06
1.56876e-05
-1.32952e-08
1.57317e-05
2.24005e-06
1.55661e-05
4.8931e-06
1.51061e-05
7.95094e-06
1.42547e-05
1.13625e-05
1.29263e-05
1.49908e-05
1.10753e-05
1.86112e-05
8.71278e-06
2.19446e-05
5.91163e-06
2.46991e-05
2.79962e-06
2.66181e-05
-4.58658e-07
2.75194e-05
-3.68085e-06
2.73158e-05
-6.68923e-06
2.60279e-05
-9.33334e-06
2.37843e-05
-1.15079e-05
2.08005e-05
-1.31649e-05
1.73496e-05
-1.43165e-05
1.37213e-05
-1.50249e-05
1.01747e-05
-1.53807e-05
6.90015e-06
-1.54769e-05
4.0002e-06
-1.53888e-05
1.5021e-06
-1.51699e-05
-6.10376e-07
-1.48547e-05
-2.37228e-06
-1.44639e-05
-3.82401e-06
-1.40101e-05
-5.0047e-06
-1.35008e-05
-5.94956e-06
-1.29414e-05
-6.68914e-06
-1.23366e-05
-7.24939e-06
-1.16916e-05
-7.65245e-06
-1.10121e-05
-7.91769e-06
-1.03044e-05
-8.06267e-06
-9.57479e-06
-8.1035e-06
-8.8298e-06
-8.05488e-06
-8.07569e-06
-7.92997e-06
-7.31865e-06
-7.74035e-06
-6.56476e-06
-7.49592e-06
-5.82006e-06
-7.20487e-06
-5.09065e-06
-6.8737e-06
-4.38283e-06
-6.50726e-06
-3.70328e-06
-6.10887e-06
-3.0592e-06
-5.68065e-06
-2.4584e-06
-5.22384e-06
-1.90924e-06
-4.73947e-06
-1.42037e-06
-4.22907e-06
-1.00004e-06
-3.69552e-06
-6.54945e-07
-3.14379e-06
-3.88661e-07
-2.58103e-06
-1.99807e-07
-2.01565e-06
-8.08216e-08
-1.45408e-06
-1.87416e-08
-8.94443e-07
-3.16384e-07
9.70576e-09
-3.42701e-07
6.11091e-08
-1.00056e-06
1.79308e-07
-1.6647e-06
3.82968e-07
-2.34683e-06
6.79977e-07
-3.03647e-06
1.06845e-06
-3.71686e-06
1.5401e-06
-4.3731e-06
2.08343e-06
-4.99485e-06
2.68606e-06
-5.57644e-06
3.33604e-06
-6.11564e-06
4.02247e-06
-6.6122e-06
4.73569e-06
-7.06648e-06
5.46711e-06
-7.47843e-06
6.20897e-06
-7.84688e-06
6.95413e-06
-8.16913e-06
7.69579e-06
-8.44074e-06
8.42737e-06
-8.65543e-06
9.14247e-06
-8.80517e-06
9.83481e-06
-8.88021e-06
1.04984e-05
-8.86919e-06
1.11277e-05
-8.75918e-06
1.17175e-05
-8.53565e-06
1.22635e-05
-8.18244e-06
1.27625e-05
-7.68171e-06
1.32125e-05
-7.01359e-06
1.36129e-05
-6.15579e-06
1.39645e-05
-5.08227e-06
1.42679e-05
-3.76098e-06
1.45201e-05
-2.15134e-06
1.47089e-05
-2.03097e-07
1.48048e-05
2.14239e-06
1.475e-05
4.94523e-06
1.44498e-05
8.24725e-06
1.37801e-05
1.20267e-05
1.26228e-05
1.61403e-05
1.09088e-05
2.03148e-05
8.63712e-06
2.42032e-05
5.88335e-06
2.74381e-05
2.78836e-06
2.9698e-05
-4.66557e-07
3.07605e-05
-3.67944e-06
3.05164e-05
-6.6535e-06
2.89904e-05
-9.22466e-06
2.63433e-05
-1.12815e-05
2.2844e-05
-1.27803e-05
1.8834e-05
-1.37511e-05
1.46778e-05
-1.42835e-05
1.06939e-05
-1.4498e-05
7.10395e-06
-1.45075e-05
4.00195e-06
-1.43912e-05
1.3805e-06
-1.41942e-05
-8.10616e-07
-1.39389e-05
-2.62956e-06
-1.36339e-05
-4.13005e-06
-1.32809e-05
-5.35783e-06
-1.28793e-05
-6.35065e-06
-1.24279e-05
-7.13923e-06
-1.19269e-05
-7.74832e-06
-1.13787e-05
-8.1981e-06
-1.0787e-05
-8.50612e-06
-1.01573e-05
-8.68874e-06
-9.49527e-06
-8.76145e-06
-8.80711e-06
-8.73866e-06
-8.09903e-06
-8.63342e-06
-7.37732e-06
-8.45724e-06
-6.64831e-06
-8.21997e-06
-5.91843e-06
-7.92969e-06
-5.1943e-06
-7.59273e-06
-4.48288e-06
-7.21356e-06
-3.79168e-06
-6.79497e-06
-3.12904e-06
-6.33825e-06
-2.5043e-06
-5.84363e-06
-1.92792e-06
-5.311e-06
-1.41135e-06
-4.74093e-06
-9.66337e-07
-4.136e-06
-6.03605e-07
-3.50222e-06
-3.30493e-07
-2.85017e-06
-1.47769e-07
-2.19481e-06
-4.6337e-08
-1.55247e-06
-6.02644e-09
-9.32275e-07
-3.20257e-07
-8.46991e-09
-3.32735e-07
1.68467e-08
-1.02396e-06
1.19239e-07
-1.76477e-06
3.24263e-07
-2.54935e-06
6.38692e-07
-3.34798e-06
1.05562e-06
-4.13028e-06
1.56089e-06
-4.87414e-06
2.13786e-06
-5.56687e-06
2.77025e-06
-6.2032e-06
3.4434e-06
-6.78258e-06
4.1446e-06
-7.30676e-06
4.86299e-06
-7.77791e-06
5.58917e-06
-8.19741e-06
6.31476e-06
-8.56512e-06
7.0321e-06
-8.87903e-06
7.73391e-06
-9.13508e-06
8.41319e-06
-9.32727e-06
9.06313e-06
-9.44776e-06
9.67717e-06
-9.48706e-06
1.02492e-05
-9.43423e-06
1.07735e-05
-9.27693e-06
1.12456e-05
-9.00145e-06
1.16617e-05
-8.5928e-06
1.20198e-05
-8.03468e-06
1.232e-05
-7.3094e-06
1.25656e-05
-6.39779e-06
1.27638e-05
-5.27772e-06
1.29251e-05
-3.92058e-06
1.30609e-05
-2.28651e-06
1.31778e-05
-3.20464e-07
1.32675e-05
2.05099e-06
1.32889e-05
4.92047e-06
1.31456e-05
8.38502e-06
1.26851e-05
1.24786e-05
1.17514e-05
1.70613e-05
1.02515e-05
2.17973e-05
8.17086e-06
2.62616e-05
5.5856e-06
2.99976e-05
2.64698e-06
3.26099e-05
-4.5688e-07
3.38405e-05
-3.51395e-06
3.3554e-05
-6.31649e-06
3.17769e-05
-8.6949e-06
2.87069e-05
-1.05365e-05
2.46697e-05
-1.18039e-05
2.00837e-05
-1.25478e-05
1.54027e-05
-1.28874e-05
1.10147e-05
-1.29761e-05
7.17575e-06
-1.29447e-05
3.95659e-06
-1.28642e-05