/*--------------------------------*- C++ -*----------------------------------*\
| =========                 |                                                 |
| \\      /  F ield         | OpenFOAM: The Open Source CFD Toolbox           |
|  \\    /   O peration     | Version:  2412                                  |
|   \\  /    A nd           | Website:  www.openfoam.com                      |
|    \\/     M anipulation  |                                                 |
\*---------------------------------------------------------------------------*/
FoamFile
{
    version     2.0;
    format      ascii;
    arch        "LSB;label=32;scalar=64";
    class       surfaceScalarField;
    location    "8.65";
    object      alphaPhi0.glycerin;
}
// * * * * * * * * * * * * * * * * * * * * * * * * * * * * * * * * * * * * * //

dimensions      [0 3 -1 0 0 0 0];

oriented        oriented;

internalField   nonuniform List<scalar> 
12640
(
-4.01064e-09
4.01184e-09
-1.0345e-08
6.44919e-09
-1.50653e-08
4.83821e-09
-1.60561e-08
1.11652e-09
-1.2487e-08
-3.42532e-09
-4.25716e-09
-8.06293e-09
8.32782e-09
-1.23942e-08
2.47598e-08
-1.62197e-08
4.44592e-08
-1.9469e-08
6.68595e-08
-2.21557e-08
9.14616e-08
-2.43474e-08
1.17867e-07
-2.61443e-08
1.45794e-07
-2.76639e-08
1.75083e-07
-2.90281e-08
2.05691e-07
-3.03533e-08
2.37676e-07
-3.17414e-08
2.71174e-07
-3.3271e-08
3.0637e-07
-3.49894e-08
3.43455e-07
-3.69035e-08
3.82578e-07
-3.89717e-08
4.23792e-07
-4.10954e-08
4.66987e-07
-4.31124e-08
5.11821e-07
-4.47916e-08
5.57654e-07
-4.5833e-08
6.0348e-07
-4.58724e-08
6.47884e-07
-4.44973e-08
6.89013e-07
-4.12705e-08
7.24589e-07
-3.57691e-08
7.51977e-07
-2.76331e-08
7.68307e-07
-1.66259e-08
7.70655e-07
-2.6959e-09
7.56293e-07
1.39648e-08
7.22966e-07
3.28812e-08
6.69189e-07
5.32835e-08
5.94517e-07
7.41365e-08
4.99734e-07
9.42079e-08
3.86946e-07
1.1218e-07
2.59533e-07
1.26777e-07
1.21969e-07
1.36912e-07
-2.04942e-08
1.41799e-07
-1.62221e-07
1.41059e-07
-2.97638e-07
1.3475e-07
-4.21673e-07
1.23374e-07
-5.30128e-07
1.07805e-07
-6.19958e-07
8.91992e-08
-6.89413e-07
6.88549e-08
-7.3805e-07
4.80769e-08
-7.6661e-07
2.80479e-08
-7.76805e-07
9.73381e-09
-7.71037e-07
-6.17997e-09
-7.52101e-07
-1.93021e-08
-7.22909e-07
-2.95135e-08
-6.86271e-07
-3.69146e-08
-6.4472e-07
-4.17806e-08
-6.004e-07
-4.44995e-08
-5.5503e-07
-4.54985e-08
-5.09901e-07
-4.52051e-08
-4.6591e-07
-4.4018e-08
-4.23604e-07
-4.22859e-08
-3.83247e-07
-4.02938e-08
-3.44894e-07
-3.82524e-08
-3.08456e-07
-3.63009e-08
-2.73769e-07
-3.45198e-08
-2.40633e-07
-3.29408e-08
-2.08865e-07
-3.15493e-08
-1.78334e-07
-3.02909e-08
-1.48998e-07
-2.90807e-08
-1.20918e-07
-2.78127e-08
-9.42766e-08
-2.63686e-08
-6.93747e-08
-2.46272e-08
-4.6631e-08
-2.24724e-08
-2.65631e-08
-1.98046e-08
-9.75564e-09
-1.65565e-08
3.19377e-09
-1.27146e-08
1.17597e-08
-8.35036e-09
1.56198e-08
-3.66575e-09
1.4856e-08
9.35953e-10
1.02772e-08
4.72832e-09
3.99467e-09
6.41272e-09
4.11412e-09
-6.31966e-09
1.04648e-08
-1.44038e-08
1.47699e-08
-1.71948e-08
7.88181e-09
-1.07775e-08
-5.02723e-09
6.63063e-09
-2.05318e-08
3.53691e-08
-3.64677e-08
7.4865e-08
-5.15245e-08
1.24029e-07
-6.49899e-08
1.81545e-07
-7.65681e-08
2.46073e-07
-8.62509e-08
3.16392e-07
-9.42241e-08
3.91488e-07
-1.00797e-07
4.70608e-07
-1.06348e-07
5.5328e-07
-1.11278e-07
6.39298e-07
-1.15972e-07
7.28696e-07
-1.20769e-07
8.21683e-07
-1.25927e-07
9.18575e-07
-1.31594e-07
1.01968e-06
-1.37778e-07
1.12521e-06
-1.44317e-07
1.23507e-06
-1.50851e-07
1.3488e-06
-1.56798e-07
1.46531e-06
-1.6134e-07
1.58279e-06
-1.63428e-07
1.69852e-06
-1.61797e-07
1.80876e-06
-1.55026e-07
1.90875e-06
-1.41624e-07
1.99268e-06
-1.20162e-07
2.05395e-06
-8.94483e-08
2.08541e-06
-4.87257e-08
2.07988e-06
2.11026e-09
2.03072e-06
6.23207e-08
1.93254e-06
1.30189e-07
1.78188e-06
2.02988e-07
1.57792e-06
2.77083e-07
1.32288e-06
3.48176e-07
1.02227e-06
4.11679e-07
6.84719e-07
4.63173e-07
3.21573e-07
4.98886e-07
-5.39207e-08
5.16113e-07
-4.27568e-07
5.13534e-07
-7.8533e-07
4.9136e-07
-1.11439e-06
4.51315e-07
-1.4041e-06
3.96429e-07
-1.64664e-06
3.30693e-07
-1.83739e-06
2.58615e-07
-1.97496e-06
1.84733e-07
-2.06095e-06
1.13188e-07
-2.09935e-06
4.73751e-08
-2.09594e-06
-1.02591e-08
-2.05754e-06
-5.82834e-08
-1.99134e-06
-9.62119e-08
-1.90432e-06
-1.24338e-07
-1.80287e-06
-1.43552e-07
-1.69247e-06
-1.55137e-07
-1.57758e-06
-1.6055e-07
-1.4616e-06
-1.61258e-07
-1.34698e-06
-1.58631e-07
-1.23531e-06
-1.53878e-07
-1.12746e-06
-1.47992e-07
-1.02378e-06
-1.41724e-07
-9.24231e-07
-1.35581e-07
-8.28568e-07
-1.29862e-07
-7.36457e-07
-1.24689e-07
-6.47585e-07
-1.20023e-07
-5.61758e-07
-1.15693e-07
-4.78972e-07
-1.11421e-07
-3.99475e-07
-1.06852e-07
-3.23789e-07
-1.01592e-07
-2.5272e-07
-9.52382e-08
-1.87329e-07
-8.74152e-08
-1.28888e-07
-7.78166e-08
-7.87787e-08
-6.62592e-08
-3.83619e-08
-5.27535e-08
-8.7667e-09
-3.75988e-08
9.39406e-09
-2.15116e-08
1.64224e-08
-5.8061e-09
1.40698e-08
7.34374e-09
6.23334e-09
1.44909e-08
1.04594e-08
-4.73661e-09
1.53186e-08
-7.45635e-09
1.76863e-08
-6.33979e-10
1.27241e-09
2.0018e-08
-2.54487e-08
5.6494e-08
-5.67551e-08
1.09113e-07
-8.88087e-08
1.77058e-07
-1.19165e-07
2.58822e-07
-1.46425e-07
3.52566e-07
-1.69963e-07
4.56393e-07
-1.89715e-07
5.68543e-07
-2.06004e-07
6.87528e-07
-2.19413e-07
8.12212e-07
-2.30669e-07
9.41839e-07
-2.40556e-07
1.07603e-06
-2.49833e-07
1.21472e-06
-2.59165e-07
1.35813e-06
-2.69061e-07
1.50657e-06
-2.79808e-07
1.66039e-06
-2.91411e-07
1.81973e-06
-3.03528e-07
1.98438e-06
-3.1542e-07
2.1535e-06
-3.25903e-07
2.32542e-06
-3.33317e-07
2.49741e-06
-3.35534e-07
2.66543e-06
-3.29997e-07
2.82398e-06
-3.13836e-07
2.96607e-06
-2.8404e-07
3.08323e-06
-2.3773e-07
3.1658e-06
-1.72502e-07
3.20336e-06
-8.68429e-08
3.1854e-06
1.94366e-08
3.10222e-06
1.44804e-07
2.94591e-06
2.8573e-07
2.71147e-06
4.36614e-07
2.39769e-06
5.89986e-07
2.00793e-06
7.37011e-07
1.55039e-06
8.68258e-07
1.03793e-06
9.7464e-07
4.874e-07
1.0484e-06
-8.14903e-08
1.08398e-06
-6.4764e-07
1.07866e-06
-1.19017e-06
1.03289e-06
-1.69004e-06
9.50212e-07
-2.1314e-06
8.36847e-07
-2.50261e-06
7.01e-07
-2.79679e-06
5.51933e-07
-3.01185e-06
3.98978e-07
-3.15007e-06
2.50644e-07
-3.21729e-06
1.13909e-07
-3.22196e-06
-6.1983e-09
-3.17404e-06
-1.06728e-07
-3.08404e-06
-1.86663e-07
-2.96216e-06
-2.46588e-07
-2.81771e-06
-2.88292e-07
-2.65872e-06
-3.14353e-07
-2.49172e-06
-3.2771e-07
-2.32173e-06
-3.31335e-07
-2.1524e-06
-3.27995e-07
-1.98611e-06
-3.20128e-07
-1.82426e-06
-3.0974e-07
-1.66747e-06
-2.98357e-07
-1.51582e-06
-2.87025e-07
-1.36907e-06
-2.76359e-07
-1.22686e-06
-2.6661e-07
-1.08884e-06
-2.5771e-07
-9.54861e-07
-2.49324e-07
-8.25005e-07
-2.40905e-07
-6.99718e-07
-2.31754e-07
-5.79827e-07
-2.21093e-07
-4.66542e-07
-2.08133e-07
-3.61424e-07
-1.92151e-07
-2.663e-07
-1.7257e-07
-1.8313e-07
-1.49075e-07
-1.13814e-07
-1.21738e-07
-5.99127e-08
-9.11915e-08
-2.22973e-08
-5.88441e-08
-6.94908e-10
-2.71497e-08
6.84826e-09
3.96258e-11
4.59349e-09
1.69639e-08
1.51439e-08
-9.55031e-10
1.63711e-08
5.87539e-09
1.10177e-08
2.70997e-08
-1.97676e-08
6.64851e-08
-6.46327e-08
1.25619e-07
-1.15668e-07
2.04441e-07
-1.6739e-07
3.01731e-07
-2.1619e-07
4.15537e-07
-2.59946e-07
5.43554e-07
-2.97677e-07
6.83421e-07
-3.29266e-07
8.32946e-07
-3.55205e-07
9.90262e-07
-3.76405e-07
1.15392e-06
-3.94013e-07
1.32295e-06
-4.09276e-07
1.4968e-06
-4.23404e-07
1.67536e-06
-4.37465e-07
1.85881e-06
-4.52276e-07
2.04749e-06
-4.68304e-07
2.2418e-06
-4.85561e-07
2.44189e-06
-5.0351e-07
2.64749e-06
-5.2097e-07
2.85763e-06
-5.36043e-07
3.07032e-06
-5.4606e-07
3.28225e-06
-5.47586e-07
3.48856e-06
-5.36484e-07
3.68256e-06
-5.08081e-07
3.85566e-06
-4.57452e-07
3.9974e-06
-3.79848e-07
4.09571e-06
-2.71262e-07
4.13746e-06
-1.29107e-07
4.10926e-06
4.70538e-08
3.9986e-06
2.54828e-07
3.79513e-06
4.88505e-07
3.49209e-06
7.38897e-07
3.08762e-06
9.93655e-07
2.58571e-06
1.23809e-06
1.99665e-06
1.45645e-06
1.33685e-06
1.63354e-06
6.2796e-07
1.75637e-06
-1.04628e-07
1.81563e-06
-8.33672e-07
1.80677e-06
-1.53224e-06
1.73054e-06
-2.17579e-06
1.59288e-06
-2.74402e-06
1.40422e-06
-3.22213e-06
1.1783e-06
-3.60155e-06
9.3058e-07
-3.87993e-06
6.76619e-07
-4.06053e-06
4.3054e-07
-4.15113e-06
2.03866e-07
-4.16274e-06
4.8262e-09
-4.10814e-06
-1.61828e-07
-4.00068e-06
-2.94553e-07
-3.85317e-06
-3.94437e-07
-3.67723e-06
-4.6451e-07
-3.48275e-06
-5.09045e-07
-3.27774e-06
-5.32882e-07
-3.06828e-06
-5.40885e-07
-2.85875e-06
-5.37558e-07
-2.65203e-06
-5.26832e-07
-2.44977e-06
-5.11931e-07
-2.2527e-06
-4.95305e-07
-2.06092e-06
-4.78635e-07
-1.87416e-06
-4.62906e-07
-1.69201e-06
-4.48507e-07
-1.51412e-06
-4.35318e-07
-1.34035e-06
-4.22793e-07
-1.17088e-06
-4.1005e-07
-1.00633e-06
-3.95972e-07
-8.47759e-07
-3.79319e-07
-6.96713e-07
-3.58836e-07
-5.55145e-07
-3.33382e-07
-4.25328e-07
-3.02059e-07
-3.09701e-07
-2.64387e-07
-2.10642e-07
-2.20501e-07
-1.30165e-07
-1.71392e-07
-6.95546e-08
-1.192e-07
-2.89229e-08
-6.75485e-08
-6.72734e-09
-2.19411e-08
7.49216e-10
9.67981e-09
1.59642e-08
3.85816e-09
1.25915e-08
2.25676e-08
-7.55999e-09
6.10384e-08
-5.80768e-08
1.2188e-07
-1.25294e-07
2.058e-07
-1.99386e-07
3.12013e-07
-2.73383e-07
4.38674e-07
-3.42612e-07
5.83275e-07
-4.04289e-07
7.43008e-07
-4.57138e-07
9.15068e-07
-5.01042e-07
1.09688e-06
-5.36727e-07
1.28627e-06
-5.65497e-07
1.48154e-06
-5.88994e-07
1.68154e-06
-6.09e-07
1.88565e-06
-6.27253e-07
2.09371e-06
-6.45294e-07
2.30595e-06
-6.64313e-07
2.52282e-06
-6.85011e-07
2.74484e-06
-7.07451e-07
2.97234e-06
-7.30923e-07
3.20522e-06
-7.53803e-07
3.4426e-06
-7.73441e-07
3.68256e-06
-7.86081e-07
3.92169e-06
-7.86837e-07
4.1548e-06
-7.69778e-07
4.37461e-06
-7.28134e-07
4.57155e-06
-6.54686e-07
4.7337e-06
-5.42366e-07
4.84708e-06
-3.85068e-07
4.89614e-06
-1.78657e-07
4.86472e-06
7.79283e-08
4.73733e-06
3.81609e-07
4.50083e-06
7.24347e-07
4.14619e-06
1.09283e-06
3.67022e-06
1.46887e-06
3.07692e-06
1.83059e-06
2.37817e-06
2.1544e-06
1.59348e-06
2.4174e-06
7.49011e-07
2.59998e-06
-1.24338e-07
2.6881e-06
-9.93344e-07
2.67489e-06
-1.82517e-06
2.56149e-06
-2.59003e-06
2.35689e-06
-3.26346e-06
2.07686e-06
-3.82798e-06
1.74208e-06
-4.27391e-06
1.37581e-06
-4.59927e-06
1.00131e-06
-4.80891e-06
6.39542e-07
-4.91306e-06
3.07407e-07
-4.92556e-06
1.67692e-08
-4.86213e-06
-2.2576e-07
-4.73877e-06
-4.18341e-07
-4.57058e-06
-5.62976e-07
-4.37094e-06
-6.64426e-07
-4.15105e-06
-7.29138e-07
-3.91978e-06
-7.64294e-07
-3.68375e-06
-7.77007e-07
-3.44755e-06
-7.73794e-07
-3.2141e-06
-7.60268e-07
-2.98498e-06
-7.40992e-07
-2.76078e-06
-7.19402e-07
-2.54143e-06
-6.97837e-07
-2.3265e-06
-6.77646e-07
-2.11546e-06
-6.59327e-07
-1.90786e-06
-6.4266e-07
-1.70355e-06
-6.26827e-07
-1.50276e-06
-6.10549e-07
-1.3062e-06
-5.92221e-07
-1.11514e-06
-5.70068e-07
-9.31367e-07
-5.42298e-07
-7.57161e-07
-5.07279e-07
-5.95196e-07
-4.63725e-07
-4.48364e-07
-4.10933e-07
-3.1955e-07
-3.49045e-07
-2.11334e-07
-2.79357e-07
-1.25629e-07
-2.04675e-07
-6.32769e-08
-1.29693e-07
-2.36229e-08
-6.14065e-08
-4.11848e-09
-9.65957e-09
1.18955e-08
9.071e-09
3.57639e-09
4.07542e-08
-3.91446e-08
9.79096e-08
-1.15095e-07
1.81571e-07
-2.08795e-07
2.91184e-07
-3.08816e-07
4.2493e-07
-4.06925e-07
5.80109e-07
-4.97567e-07
7.53505e-07
-5.77447e-07
9.41734e-07
-6.45118e-07
1.14152e-06
-7.00575e-07
1.34994e-06
-7.44878e-07
1.56452e-06
-7.79814e-07
1.7834e-06
-8.07609e-07
2.00531e-06
-8.30662e-07
2.22961e-06
-8.51318e-07
2.4562e-06
-8.71667e-07
2.68542e-06
-8.93351e-07
2.91795e-06
-9.17382e-07
3.15456e-06
-9.43955e-07
3.39597e-06
-9.72255e-07
3.64247e-06
-1.00028e-06
3.89368e-06
-1.02467e-06
4.14812e-06
-1.04058e-06
4.40278e-06
-1.04163e-06
4.65276e-06
-1.01993e-06
4.89078e-06
-9.66383e-07
5.10688e-06
-8.71078e-07
5.28828e-06
-7.24109e-07
5.41943e-06
-5.16628e-07
5.48256e-06
-2.42243e-07
5.45857e-06
1.01401e-07
5.32859e-06
5.11015e-07
5.07594e-06
9.76373e-07
4.68844e-06
1.47967e-06
4.16067e-06
1.99593e-06
3.49587e-06
2.49465e-06
2.70694e-06
2.94258e-06
1.81629e-06
3.30727e-06
8.54636e-07
3.56086e-06
-1.41373e-07
3.68331e-06
-1.13217e-06
3.66486e-06
-2.07869e-06
3.50717e-06
-2.94569e-06
3.22306e-06
-3.70459e-06
2.83499e-06
-4.33555e-06
2.37234e-06
-4.82838e-06
1.86801e-06
-5.18232e-06
1.35466e-06
-5.40472e-06
8.61393e-07
-5.50911e-06
4.11259e-07
-5.51282e-06
1.99721e-08
-5.43483e-06
-3.04225e-07
-5.29387e-06
-5.59729e-07
-5.10706e-06
-7.50137e-07
-4.88914e-06
-8.82635e-07
-4.65205e-06
-9.66455e-07
-4.40488e-06
-1.0116e-06
-4.15418e-06
-1.02779e-06
-3.90422e-06
-1.02379e-06
-3.65747e-06
-1.007e-06
-3.41504e-06
-9.83367e-07
-3.17707e-06
-9.57279e-07
-2.94308e-06
-9.31688e-07
-2.71232e-06
-9.08235e-07
-2.48399e-06
-8.87453e-07
-2.25747e-06
-8.68943e-07
-2.0325e-06
-8.5154e-07
-1.80928e-06
-8.33492e-07
-1.58859e-06
-8.12632e-07
-1.37179e-06
-7.86575e-07
-1.16088e-06
-7.52914e-07
-9.58432e-07
-7.09439e-07
-7.67488e-07
-6.5439e-07
-5.91417e-07
-5.86739e-07
-4.33689e-07
-5.06525e-07
-2.97594e-07
-4.15225e-07
-1.85901e-07
-3.16162e-07
-1.00491e-07
-2.14921e-07
-4.1972e-08
-1.19766e-07
-9.37536e-09
-4.21249e-08
2.54575e-09
1.43456e-08
-1.07358e-08
5.93369e-08
-8.4071e-08
1.35663e-07
-1.91311e-07
2.42511e-07
-3.15504e-07
3.77768e-07
-4.43905e-07
5.3831e-07
-5.67272e-07
7.20364e-07
-6.79402e-07
9.19855e-07
-7.76701e-07
1.13273e-06
-8.57744e-07
1.35521e-06
-9.22803e-07
1.58399e-06
-9.73411e-07
1.81639e-06
-1.01197e-06
2.0504e-06
-1.04137e-06
2.28472e-06
-1.06475e-06
2.51874e-06
-1.08512e-06
2.75249e-06
-1.10522e-06
2.98653e-06
-1.12723e-06
3.22188e-06
-1.15259e-06
3.45974e-06
-1.18172e-06
3.7014e-06
-1.21385e-06
3.94785e-06
-1.24671e-06
4.19952e-06
-1.27637e-06
4.45584e-06
-1.29698e-06
4.71477e-06
-1.30068e-06
4.97227e-06
-1.27762e-06
5.22178e-06
-1.21612e-06
5.45366e-06
-1.10323e-06
5.6548e-06
-9.25579e-07
5.80855e-06
-6.70762e-07
5.895e-06
-3.29128e-07
5.89191e-06
1.04014e-07
5.77633e-06
6.26067e-07
5.52702e-06
1.2251e-06
5.12739e-06
1.87867e-06
4.56859e-06
2.55406e-06
3.85209e-06
3.21044e-06
2.99124e-06
3.80271e-06
2.01125e-06
4.28655e-06
9.47711e-07
4.62369e-06
-1.56322e-07
4.78663e-06
-1.25415e-06
4.76195e-06
-2.2997e-06
4.55194e-06
-3.2517e-06
4.17426e-06
-4.07727e-06
3.65978e-06
-4.75445e-06
3.0488e-06
-5.27323e-06
2.38618e-06
-5.63514e-06
1.71605e-06
-5.85133e-06
1.07711e-06
-5.93978e-06
4.99282e-07
-5.92229e-06
2.06149e-09
-5.82163e-06
-4.05301e-07
-5.65937e-06
-7.22377e-07
-5.45448e-06
-9.5538e-07
-5.22255e-06
-1.11487e-06
-4.97562e-06
-1.21362e-06
-4.72239e-06
-1.265e-06
-4.46861e-06
-1.28168e-06
-4.21762e-06
-1.27481e-06
-3.97096e-06
-1.25365e-06
-3.72884e-06
-1.22543e-06
-3.49061e-06
-1.19542e-06
-3.25515e-06
-1.16702e-06
-3.02118e-06
-1.14204e-06
-2.7875e-06
-1.12094e-06
-2.55322e-06
-1.103e-06
-2.31787e-06
-1.08664e-06
-2.08156e-06
-1.06954e-06
-1.84504e-06
-1.04888e-06
-1.60974e-06
-1.02159e-06
-1.37781e-06
-9.84563e-07
-1.15206e-06
-9.34908e-07
-9.3592e-07
-8.70267e-07
-7.33258e-07
-7.8915e-07
-5.48224e-07
-6.91327e-07
-3.84972e-07
-5.78268e-07
-2.47344e-07
-4.53603e-07
-1.38524e-07
-3.23576e-07
-6.0682e-08
-1.97476e-07
-1.4685e-08
-8.80235e-08
-1.21372e-08
1.95246e-08
-3.02468e-08
7.77469e-08
-1.42259e-07
1.73154e-07
-2.86633e-07
3.02899e-07
-4.45132e-07
4.63067e-07
-6.03918e-07
6.48988e-07
-7.53005e-07
8.5562e-07
-8.85817e-07
1.07789e-06
-9.98737e-07
1.31099e-06
-1.0906e-06
1.5506e-06
-1.16219e-06
1.79309e-06
-1.21567e-06
2.03556e-06
-1.25421e-06
2.27591e-06
-1.28151e-06
2.51286e-06
-1.30149e-06
2.74592e-06
-1.31797e-06
2.9753e-06
-1.33442e-06
3.20189e-06
-1.35367e-06
3.42712e-06
-1.37769e-06
3.65278e-06
-1.40731e-06
3.8809e-06
-1.44192e-06
4.11342e-06
-1.47924e-06
4.35195e-06
-1.51493e-06
4.59726e-06
-1.54237e-06
4.84883e-06
-1.55239e-06
5.1042e-06
-1.53318e-06
5.35828e-06
-1.47042e-06
5.60251e-06
-1.34773e-06
5.82426e-06
-1.14765e-06
6.00629e-06
-8.53162e-07
6.1268e-06
-4.50046e-07
6.1601e-06
7.02538e-08
6.07839e-06
7.07288e-07
5.85452e-06
1.44843e-06
5.46587e-06
2.26674e-06
4.8985e-06
3.12079e-06
4.15086e-06
3.95739e-06
3.23606e-06
4.71679e-06
2.1821e-06
5.33978e-06
1.03005e-06
5.77506e-06
-1.69648e-07
5.98569e-06
-1.36196e-06
5.95363e-06
-2.49264e-06
5.68193e-06
-3.51351e-06
5.19435e-06
-4.38694e-06
4.5324e-06
-5.08904e-06
3.75012e-06
-5.61088e-06
2.90734e-06
-5.95769e-06
2.06229e-06
-6.14604e-06
1.26502e-06
-6.20001e-06
5.52887e-07
-6.14701e-06
-5.12657e-08
-6.01426e-06
-5.3836e-07
-5.82631e-06
-9.10632e-07
-5.60362e-06
-1.17838e-06
-5.36203e-06
-1.35674e-06
-5.11293e-06
-1.46296e-06
-4.86378e-06
-1.51434e-06
-4.61883e-06
-1.52677e-06
-4.37986e-06
-1.51386e-06
-4.14689e-06
-1.48663e-06
-3.91885e-06
-1.45344e-06
-3.69399e-06
-1.4202e-06
-3.47031e-06
-1.39059e-06
-3.24584e-06
-1.36637e-06
-3.01888e-06
-1.34772e-06
-2.78813e-06
-1.33354e-06
-2.55289e-06
-1.32165e-06
-2.31307e-06
-1.30909e-06
-2.06935e-06
-1.29233e-06
-1.82317e-06
-1.2675e-06
-1.57675e-06
-1.23069e-06
-1.33315e-06
-1.17823e-06
-1.09613e-06
-1.10701e-06
-8.70119e-07
-1.01489e-06
-6.60026e-07
-9.01172e-07
-4.71006e-07
-7.67062e-07
-3.08168e-07
-6.16237e-07
-1.76246e-07
-4.55346e-07
-7.91901e-08
-2.94402e-07
-1.98908e-08
-1.47242e-07
-3.20377e-08
2.45682e-08
-5.48176e-08
9.57878e-08
-2.13471e-07
2.09916e-07
-4.00699e-07
3.61906e-07
-5.97027e-07
5.45819e-07
-7.87698e-07
7.55227e-07
-9.6224e-07
9.83647e-07
-1.11402e-06
1.22489e-06
-1.23973e-06
1.47334e-06
-1.33879e-06
1.72415e-06
-1.41273e-06
1.97334e-06
-1.46461e-06
2.21787e-06
-1.4985e-06
2.45561e-06
-1.51903e-06
2.68536e-06
-1.53104e-06
2.90677e-06
-1.53921e-06
3.12034e-06
-1.54784e-06
3.3273e-06
-1.5605e-06
3.52956e-06
-1.57986e-06
3.7296e-06
-1.60729e-06
3.93031e-06
-1.64262e-06
4.1348e-06
-1.68376e-06
4.3461e-06
-1.7263e-06
4.56677e-06
-1.76315e-06
4.79836e-06
-1.78413e-06
5.0407e-06
-1.77571e-06
5.29101e-06
-1.72096e-06
5.54284e-06
-1.59984e-06
5.78497e-06
-1.39009e-06
6.00043e-06
-1.06899e-06
6.16597e-06
-6.16e-07
6.25239e-06
-1.66052e-08
6.2261e-06
7.33102e-07
6.05246e-06
1.62156e-06
5.70068e-06
2.61796e-06
5.14962e-06
3.67124e-06
4.39304e-06
4.71327e-06
3.44298e-06
5.66607e-06
2.33032e-06
6.45162e-06
1.10238e-06
7.00222e-06
-1.81685e-07
7.26907e-06
-1.45695e-06
7.22828e-06
-2.65948e-06
6.88386e-06
-3.73296e-06
6.26715e-06
-4.63443e-06
5.43305e-06
-5.33823e-06
4.45303e-06
-5.83762e-06
3.40587e-06
-6.14335e-06
2.36729e-06
-6.27968e-06
1.40076e-06
-6.27873e-06
5.51511e-07
-6.17496e-06
-1.55341e-07
-6.0007e-06
-7.12857e-07
-5.78338e-06
-1.12816e-06
-5.54435e-06
-1.41762e-06
-5.29883e-06
-1.60248e-06
-5.05658e-06
-1.70543e-06
-4.82288e-06
-1.74824e-06
-4.59963e-06
-1.75017e-06
-4.38636e-06
-1.72723e-06
-4.18111e-06
-1.69192e-06
-3.98111e-06
-1.65344e-06
-3.78328e-06
-1.618e-06
-3.58455e-06
-1.58923e-06
-3.38218e-06
-1.56862e-06
-3.17386e-06
-1.5559e-06
-2.95787e-06
-1.54935e-06
-2.73318e-06
-1.54613e-06
-2.49951e-06
-1.54254e-06
-2.25737e-06
-1.53422e-06
-2.00814e-06
-1.51646e-06
-1.75412e-06
-1.48445e-06
-1.49849e-06
-1.43359e-06
-1.24538e-06
-1.35986e-06
-9.99752e-07
-1.26026e-06
-7.67344e-07
-1.13334e-06
-5.54428e-07
-9.79761e-07
-3.67556e-07
-8.02913e-07
-2.13195e-07
-6.09532e-07
-9.73054e-08
-4.10155e-07
-2.49528e-08
-2.19504e-07
-5.6988e-08
2.95147e-08
-8.43497e-08
1.13527e-07
-2.97496e-07
2.45983e-07
-5.33115e-07
4.19446e-07
-7.70426e-07
6.25725e-07
-9.93887e-07
8.56428e-07
-1.19281e-06
1.10348e-06
-1.3609e-06
1.35951e-06
-1.49553e-06
1.61807e-06
-1.59708e-06
1.87382e-06
-1.66818e-06
2.1225e-06
-1.71301e-06
2.361e-06
-1.73673e-06
2.58723e-06
-1.74502e-06
2.80011e-06
-1.7437e-06
2.99951e-06
-1.73842e-06
3.18617e-06
-1.73433e-06
3.36171e-06
-1.7359e-06
3.52852e-06
-1.74657e-06
3.68978e-06
-1.76847e-06
3.8493e-06
-1.8021e-06
4.01143e-06
-1.8459e-06
4.18085e-06
-1.89577e-06
4.36219e-06
-1.94459e-06
4.55956e-06
-1.98165e-06
4.77581e-06
-1.99215e-06
5.01144e-06
-1.95682e-06
5.26325e-06
-1.85193e-06
5.52276e-06
-1.64993e-06
5.77453e-06
-1.32112e-06
5.99481e-06
-8.36691e-07
6.15109e-06
-1.73334e-07
6.20327e-06
6.80439e-07
6.1073e-06
1.71702e-06
5.82155e-06
2.90317e-06
5.31486e-06
4.17734e-06
4.57417e-06
5.45328e-06
3.60943e-06
6.62989e-06
2.45451e-06
7.60544e-06
1.16405e-06
8.29153e-06
-1.92552e-07
8.62466e-06
-1.53873e-06
8.57379e-06
-2.79903e-06
8.14364e-06
-3.90753e-06
7.37512e-06
-4.81506e-06
6.3399e-06
-5.49444e-06
5.13156e-06
-5.9425e-06
3.8529e-06
-6.17797e-06
2.60176e-06
-6.2356e-06
1.45754e-06
-6.15821e-06
4.73435e-07
-5.98878e-06
-3.25231e-07
-5.76518e-06
-9.36753e-07
-5.51725e-06
-1.37629e-06
-5.26616e-06
-1.66885e-06
-5.02522e-06
-1.84354e-06
-4.8013e-06
-1.9295e-06
-4.5964e-06
-1.95331e-06
-4.40918e-06
-1.93755e-06
-4.23626e-06
-1.90027e-06
-4.07322e-06
-1.85502e-06
-3.91534e-06
-1.81133e-06
-3.75803e-06
-1.77528e-06
-3.59713e-06
-1.75008e-06
-3.42905e-06
-1.73661e-06
-3.2509e-06
-1.73392e-06
-3.06054e-06
-1.73956e-06
-2.8566e-06
-1.7499e-06
-2.63855e-06
-1.76039e-06
-2.40674e-06
-1.76582e-06
-2.16243e-06
-1.76054e-06
-1.90788e-06
-1.73876e-06
-1.64638e-06
-1.69484e-06
-1.38232e-06
-1.62366e-06
-1.12121e-06
-1.52113e-06
-8.6959e-07
-1.38473e-06
-6.34947e-07
-1.21419e-06
-4.25415e-07
-1.01225e-06
-2.49404e-07
-7.85369e-07
-1.15096e-07
-5.44317e-07
-2.99087e-08
-3.04584e-07
-8.68689e-08
3.44534e-08
-1.18839e-07
1.31219e-07
-3.9429e-07
2.81756e-07
-6.83629e-07
4.75984e-07
-9.64629e-07
7.03197e-07
-1.22107e-06
9.52829e-07
-1.44241e-06
1.2151e-06
-1.62309e-06
1.4814e-06
-1.7617e-06
1.74455e-06
-1.86003e-06
1.99876e-06
-1.92215e-06
2.23966e-06
-1.95364e-06
2.46413e-06
-1.96092e-06
2.67021e-06
-1.95084e-06
2.857e-06
-1.93025e-06
3.02457e-06
-1.90577e-06
3.17394e-06
-1.8835e-06
3.30703e-06
-1.86882e-06
3.42667e-06
-1.86607e-06
3.53663e-06
-1.87833e-06
3.64159e-06
-1.90699e-06
3.74708e-06
-1.95136e-06
3.85945e-06
-2.00815e-06
3.98558e-06
-2.07077e-06
4.1325e-06
-2.12867e-06
4.30668e-06
-2.16647e-06
4.51289e-06
-2.16323e-06
4.75257e-06
-2.09185e-06
5.02166e-06
-1.9193e-06
5.30809e-06
-1.60789e-06
5.58932e-06
-1.1183e-06
5.83048e-06
-4.1493e-07
5.98457e-06
5.25862e-07
5.99607e-06
1.70499e-06
5.80911e-06
3.08961e-06
5.37883e-06
4.60711e-06
4.68249e-06
6.149e-06
3.72689e-06
7.58484e-06
2.5492e-06
8.78241e-06
1.21245e-06
9.62736e-06
-2.02086e-07
1.00383e-05
-1.60433e-06
9.97511e-06
-2.90547e-06
9.44438e-06
-4.02835e-06
8.4978e-06
-4.91659e-06
7.22786e-06
-5.54156e-06
5.75603e-06
-5.90536e-06
4.21604e-06
-6.03795e-06
2.73354e-06
-5.98835e-06
1.4071e-06
-5.8131e-06
2.97314e-07
-5.5654e-06
-5.73679e-07
-5.2885e-06
-1.21422e-06
-5.01338e-06
-1.65178e-06
-4.75928e-06
-1.92314e-06
-4.53577e-06
-2.06715e-06
-4.34522e-06
-2.12012e-06
-4.18512e-06
-2.1135e-06
-4.05002e-06
-2.07275e-06
-3.93307e-06
-2.01732e-06
-3.82707e-06
-1.96108e-06
-3.72523e-06
-1.9132e-06
-3.62146e-06
-1.87904e-06
-3.51054e-06
-1.86094e-06
-3.38818e-06
-1.85888e-06
-3.25098e-06
-1.87101e-06
-3.09641e-06
-1.89399e-06
-2.92284e-06
-1.9233e-06
-2.7295e-06
-1.95354e-06
-2.51654e-06
-1.97859e-06
-2.28504e-06
-1.99183e-06
-2.03715e-06
-1.98644e-06
-1.77615e-06
-1.95563e-06
-1.50661e-06
-1.89301e-06
-1.23444e-06
-1.79312e-06
-9.66989e-07
-1.65201e-06
-7.12966e-07
-1.46806e-06
-4.82205e-07
-1.24288e-06
-2.85266e-07
-9.822e-07
-1.32806e-07
-6.9669e-07
-3.48473e-08
-4.02484e-07
-1.21705e-07
3.95073e-08
-1.58412e-07
1.49251e-07
-5.04079e-07
3.179e-07
-8.52262e-07
5.32373e-07
-1.17909e-06
7.79127e-07
-1.46785e-06
1.0452e-06
-1.70855e-06
1.31903e-06
-1.897e-06
1.59084e-06
-2.03357e-06
1.8528e-06
-2.12199e-06
2.0989e-06
-2.1682e-06
2.32479e-06
-2.17942e-06
2.52751e-06
-2.16351e-06
2.70533e-06
-2.12851e-06
2.85756e-06
-2.08234e-06
2.98448e-06
-2.03256e-06
3.08729e-06
-1.9862e-06
3.16813e-06
-1.94952e-06
3.23013e-06
-1.92795e-06
3.27744e-06
-1.92554e-06
3.31538e-06
-1.94484e-06
3.35048e-06
-1.9864e-06
3.39055e-06
-2.04817e-06
3.4446e-06
-2.12481e-06
3.5227e-06
-2.20678e-06
3.63536e-06
-2.27919e-06
3.79251e-06
-2.32047e-06
4.00165e-06
-2.30113e-06
4.26523e-06
-2.18306e-06
4.57717e-06
-1.92006e-06
4.91885e-06
-1.46027e-06
5.25526e-06
-7.51699e-07
5.53303e-06
2.47668e-07
5.68316e-06
1.55439e-06
5.63131e-06
3.14098e-06
5.31413e-06
4.92392e-06
4.6957e-06
6.7672e-06
3.77813e-06
8.50211e-06
2.60246e-06
9.95755e-06
1.24173e-06
1.09871e-05
-2.09618e-07
1.14883e-05
-1.64667e-06
1.14112e-05
-2.96582e-06
1.0763e-05
-4.07696e-06
9.60901e-06
-4.91523e-06
8.06666e-06
-5.45071e-06
6.29196e-06
-5.69291e-06
4.45827e-06
-5.68708e-06
2.72741e-06
-5.50136e-06
1.2208e-06
-5.20958e-06
4.74383e-09
-4.87624e-06
-9.07802e-07
-4.54904e-06
-1.54213e-06
-4.25767e-06
-1.94373e-06
-4.01661e-06
-2.16455e-06
-3.82924e-06
-2.25466e-06
-3.6916e-06
-2.25781e-06
-3.59538e-06
-2.20973e-06
-3.53028e-06
-2.13787e-06
-3.48562e-06
-2.062e-06
-3.4514e-06
-1.99532e-06
-3.41883e-06
-1.94575e-06
-3.38057e-06
-1.91726e-06
-3.3306e-06
-1.91084e-06
-3.26412e-06
-1.92528e-06
-3.1774e-06
-1.95762e-06
-3.06772e-06
-2.00355e-06
-2.93323e-06
-2.05766e-06
-2.77298e-06
-2.11365e-06
-2.58691e-06
-2.16452e-06
-2.37587e-06
-2.20272e-06
-2.1418e-06
-2.22038e-06
-1.88783e-06
-2.20948e-06
-1.6185e-06
-2.16224e-06
-1.34e-06
-2.07154e-06
-1.06034e-06
-1.93162e-06
-7.89392e-07
-1.73899e-06
-5.38781e-07
-1.49351e-06
-3.21434e-07
-1.1996e-06
-1.50809e-07
-8.67403e-07
-3.98859e-08
-5.13537e-07
-1.61721e-07
4.48221e-08
-2.03338e-07
1.68121e-07
-6.27435e-07
3.55293e-07
-1.03938e-06
5.89739e-07
-1.41346e-06
8.5468e-07
-1.73274e-06
1.13456e-06
-1.98846e-06
1.41601e-06
-2.17857e-06
1.68824e-06
-2.30598e-06
1.94302e-06
-2.37697e-06
2.17439e-06
-2.39974e-06
2.37826e-06
-2.38341e-06
2.55203e-06
-2.33736e-06
2.69429e-06
-2.27083e-06
2.80461e-06
-2.1927e-06
2.88344e-06
-2.11142e-06
2.93207e-06
-2.03486e-06
2.9527e-06
-1.97021e-06
2.94848e-06
-1.92378e-06
2.92368e-06
-1.9008e-06
2.88388e-06
-1.9051e-06
2.83616e-06
-1.93873e-06
2.78934e-06
-2.00139e-06
2.75414e-06
-2.08966e-06
2.74332e-06
-2.19601e-06
2.77147e-06
-2.3074e-06
2.8542e-06
-2.40322e-06
3.0064e-06
-2.45336e-06
3.23925e-06
-2.41598e-06
3.55601e-06
-2.23692e-06
3.94621e-06
-1.8506e-06
4.37886e-06
-1.18455e-06
4.79654e-06
-1.70289e-07
5.11539e-06
1.2352e-06
5.23762e-06
3.01838e-06
5.07512e-06
5.08625e-06
4.57412e-06
7.26847e-06
3.73089e-06
9.34617e-06
2.5915e-06
1.10978e-05
1.24057e-06
1.23383e-05
-2.13843e-07
1.29422e-05
-1.65203e-06
1.28485e-05
-2.95508e-06
1.20655e-05
-4.01906e-06
1.06734e-05
-4.76939e-06
8.81805e-06
-5.17443e-06
6.69842e-06
-5.25329e-06
4.53849e-06
-5.07195e-06
2.54702e-06
-4.72367e-06
8.72983e-07
-4.30354e-06
-4.15419e-07
-3.88763e-06
-1.32418e-06
-3.52482e-06
-1.90564e-06
-3.23921e-06
-2.23003e-06
-3.03668e-06
-2.36759e-06
-2.91146e-06
-2.38012e-06
-2.85127e-06
-2.31805e-06
-2.84101e-06
-2.21994e-06
-2.86512e-06
-2.11367e-06
-2.90912e-06
-2.01791e-06
-2.96049e-06
-1.94386e-06
-3.00896e-06
-1.89717e-06
-3.04638e-06
-1.8797e-06
-3.06639e-06
-1.89067e-06
-3.06405e-06
-1.92745e-06
-3.03561e-06
-1.98589e-06
-2.97831e-06
-2.06068e-06
-2.89028e-06
-2.14552e-06
-2.77046e-06
-2.2333e-06
-2.61857e-06
-2.31624e-06
-2.43522e-06
-2.38594e-06
-2.22197e-06
-2.43351e-06
-1.98164e-06
-2.44974e-06
-1.7185e-06
-2.42533e-06
-1.43873e-06
-2.35131e-06
-1.15075e-06
-2.21966e-06
-8.65467e-07
-2.02439e-06
-5.96298e-07
-1.76285e-06
-3.58772e-07
-1.43737e-06
-1.69576e-07
-1.0569e-06
-4.51558e-08
-6.38336e-07
-2.07232e-07
5.05496e-08
-2.54011e-07
1.88427e-07
-7.65359e-07
3.9501e-07
-1.2458e-06
6.49404e-07
-1.66752e-06
9.31112e-07
-2.014e-06
1.22182e-06
-2.27873e-06
1.50649e-06
-2.46288e-06
1.77362e-06
-2.5729e-06
2.01498e-06
-2.61825e-06
2.22503e-06
-2.60978e-06
2.40026e-06
-2.55866e-06
2.53864e-06
-2.47576e-06
2.63923e-06
-2.37143e-06
2.70185e-06
-2.25536e-06
2.72706e-06
-2.13661e-06
2.71612e-06
-2.02385e-06
2.67103e-06
-1.92514e-06
2.5947e-06
-1.84753e-06
2.49111e-06
-1.79731e-06
2.36558e-06
-1.77968e-06
2.22512e-06
-1.79839e-06
2.07879e-06
-1.85518e-06
1.93813e-06
-1.94913e-06
1.81775e-06
-2.07574e-06
1.73562e-06
-2.22538e-06
1.7129e-06
-2.38066e-06
1.77251e-06
-2.51311e-06
1.93636e-06
-2.57997e-06
2.22078e-06
-2.52147e-06
2.6293e-06
-2.25923e-06
3.14206e-06
-1.69742e-06
3.70327e-06
-7.31625e-07
4.21457e-06
7.23709e-07
4.54942e-06
2.68324e-06
4.58724e-06
5.04822e-06
4.25059e-06
7.60549e-06
3.52896e-06
1.00693e-05
2.4756e-06
1.21536e-05
1.18841e-06
1.36277e-05
-2.12645e-07
1.4344e-05
-1.59576e-06
1.42307e-05
-2.82884e-06
1.32971e-05
-3.79482e-06
1.16383e-05
-4.40842e-06
9.43166e-06
-4.63544e-06
6.92642e-06
-4.50654e-06
4.41113e-06
-4.11494e-06
2.15709e-06
-3.58622e-06
3.45746e-07
-3.04041e-06
-9.60178e-07
-2.56275e-06
-1.80135e-06
-2.19694e-06
-2.27151e-06
-1.95473e-06
-2.47269e-06
-1.82816e-06
-2.4947e-06
-1.7992e-06
-2.40955e-06
-1.8458e-06
-2.27165e-06
-1.94568e-06
-2.12007e-06
-2.07833e-06
-1.98094e-06
-2.2261e-06
-1.87003e-06
-2.37474e-06
-1.79509e-06
-2.51337e-06
-1.75839e-06
-2.63385e-06
-1.75902e-06
-2.73012e-06
-1.79418e-06
-2.79758e-06
-1.85973e-06
-2.83281e-06
-1.95038e-06
-2.8333e-06
-2.05987e-06
-2.79732e-06
-2.18114e-06
-2.72381e-06
-2.30641e-06
-2.61234e-06
-2.42723e-06
-2.46319e-06
-2.53456e-06
-2.27748e-06
-2.61885e-06
-2.05742e-06
-2.66945e-06
-1.80675e-06
-2.67569e-06
-1.53123e-06
-2.62655e-06
-1.23929e-06
-2.51138e-06
-9.42539e-07
-2.32098e-06
-6.56106e-07
-2.0492e-06
-3.98324e-07
-1.69517e-06
-1.89661e-07
-1.26572e-06
-5.07852e-08
-7.77498e-07
-2.58375e-07
5.68008e-08
-3.10873e-07
2.10865e-07
-9.19408e-07
4.38332e-07
-1.4729e-06
7.12837e-07
-1.94123e-06
1.00959e-06
-2.30959e-06
1.30749e-06
-2.5752e-06
1.59016e-06
-2.74406e-06
1.84598e-06
-2.82726e-06
2.06731e-06
-2.83821e-06
2.24952e-06
-2.79073e-06
2.39006e-06
-2.69805e-06
2.48771e-06
-2.57236e-06
2.54205e-06
-2.42483e-06
2.55331e-06
-2.26569e-06
2.52192e-06
-2.10458e-06
2.44883e-06
-1.95049e-06
2.33574e-06
-1.81177e-06
2.18497e-06
-1.69649e-06
1.99975e-06
-1.61188e-06
1.78451e-06
-1.56439e-06
1.54541e-06
-1.55936e-06
1.29073e-06
-1.60066e-06
1.0315e-06
-1.69013e-06
7.82534e-07
-1.82706e-06
5.63641e-07
-2.00682e-06
4.00188e-07
-2.21757e-06
3.22478e-07
-2.4358e-06
3.63839e-07
-2.62176e-06
5.56856e-07
-2.71494e-06
9.25989e-07
-2.62881e-06
1.47349e-06
-2.24528e-06
2.15648e-06
-1.41487e-06
2.86653e-06
1.34385e-08
3.44455e-06
2.1048e-06
3.72932e-06
4.76257e-06
3.61255e-06
7.72124e-06
3.07658e-06
1.06054e-05
2.18477e-06
1.30476e-05
1.04988e-06
1.47655e-05
-2.02398e-07
1.55975e-05
-1.4358e-06
1.54623e-05
-2.5113e-06
1.43684e-05
-3.303e-06
1.24252e-05
-3.71519e-06
9.83994e-06
-3.70984e-06
6.91861e-06
-3.33015e-06
4.0304e-06
-2.70456e-06
1.53156e-06
-1.99794e-06
-3.60083e-07
-1.35657e-06
-1.6003e-06