/*--------------------------------*- C++ -*----------------------------------*\
| =========                 |                                                 |
| \\      /  F ield         | OpenFOAM: The Open Source CFD Toolbox           |
|  \\    /   O peration     | Version:  2412                                  |
|   \\  /    A nd           | Website:  www.openfoam.com                      |
|    \\/     M anipulation  |                                                 |
\*---------------------------------------------------------------------------*/
FoamFile
{
    version     2.0;
    format      ascii;
    arch        "LSB;label=32;scalar=64";
    class       volScalarField;
    location    "3.35";
    object      p_rgh;
}
// * * * * * * * * * * * * * * * * * * * * * * * * * * * * * * * * * * * * * //

dimensions      [1 -1 -2 0 0 0 0];

internalField   nonuniform List<scalar> 
6400
(
7311.55
7311.76
7312.17
7312.8
7313.59
7314.52
7315.56
7316.68
7317.85
7318.96
7319.99
7320.89
7321.63
7322.15
7322.45
7322.49
7322.27
7321.81
7321.12
7320.22
7319.15
7317.96
7316.68
7315.37
7314.07
7312.81
7311.65
7310.6
7309.68
7308.92
7308.32
7307.86
7307.55
7307.36
7307.28
7307.27
7307.32
7307.39
7307.48
7307.57
7307.64
7307.69
7307.73
7307.77
7307.81
7307.88
7307.99
7308.17
7308.44
7308.81
7309.3
7309.91
7310.65
7311.5
7312.46
7313.49
7314.57
7315.66
7316.72
7317.71
7318.6
7319.34
7319.91
7320.27
7320.42
7320.34
7320.04
7319.54
7318.85
7318.02
7317.07
7316.06
7315.03
7314.02
7313.03
7312.2
7311.51
7310.96
7310.6
7310.42
7311.35
7311.54
7311.96
7312.63
7313.44
7314.4
7315.49
7316.65
7317.84
7319
7320.08
7321.02
7321.78
7322.33
7322.64
7322.68
7322.47
7321.99
7321.27
7320.35
7319.25
7318.01
7316.7
7315.35
7314.01
7312.72
7311.53
7310.46
7309.54
7308.78
7308.18
7307.75
7307.45
7307.29
7307.23
7307.24
7307.31
7307.41
7307.52
7307.61
7307.69
7307.74
7307.77
7307.79
7307.81
7307.86
7307.95
7308.11
7308.35
7308.71
7309.19
7309.8
7310.54
7311.4
7312.38
7313.43
7314.54
7315.67
7316.76
7317.79
7318.71
7319.47
7320.06
7320.43
7320.58
7320.5
7320.19
7319.66
7318.95
7318.08
7317.1
7316.05
7314.98
7313.92
7312.94
7312.07
7311.34
7310.78
7310.43
7310.24
7310.95
7311.17
7311.58
7312.27
7313.14
7314.17
7315.33
7316.58
7317.86
7319.11
7320.27
7321.29
7322.12
7322.72
7323.05
7323.11
7322.88
7322.37
7321.61
7320.62
7319.44
7318.13
7316.74
7315.3
7313.89
7312.54
7311.29
7310.19
7309.24
7308.47
7307.89
7307.47
7307.21
7307.09
7307.08
7307.14
7307.26
7307.39
7307.53
7307.65
7307.73
7307.78
7307.79
7307.78
7307.77
7307.78
7307.82
7307.94
7308.15
7308.48
7308.94
7309.55
7310.31
7311.2
7312.21
7313.32
7314.49
7315.69
7316.86
7317.95
7318.94
7319.76
7320.39
7320.79
7320.95
7320.86
7320.52
7319.95
7319.18
7318.24
7317.18
7316.05
7314.89
7313.77
7312.72
7311.79
7311.02
7310.41
7310.07
7309.87
7310.32
7310.54
7310.98
7311.72
7312.67
7313.8
7315.09
7316.48
7317.9
7319.29
7320.59
7321.73
7322.66
7323.34
7323.72
7323.79
7323.55
7322.99
7322.15
7321.06
7319.77
7318.33
7316.8
7315.23
7313.69
7312.24
7310.9
7309.73
7308.75
7307.97
7307.4
7307.02
7306.81
7306.75
7306.81
7306.96
7307.14
7307.34
7307.53
7307.67
7307.77
7307.81
7307.8
7307.75
7307.68
7307.62
7307.6
7307.65
7307.81
7308.1
7308.54
7309.15
7309.92
7310.86
7311.94
7313.14
7314.42
7315.72
7317.01
7318.22
7319.31
7320.22
7320.92
7321.36
7321.54
7321.44
7321.06
7320.42
7319.55
7318.5
7317.32
7316.05
7314.77
7313.53
7312.37
7311.36
7310.53
7309.88
7309.49
7309.29
7309.45
7309.68
7310.16
7310.9
7312.02
7313.28
7314.73
7316.32
7317.94
7319.54
7321.03
7322.35
7323.43
7324.21
7324.67
7324.76
7324.49
7323.87
7322.92
7321.69
7320.23
7318.6
7316.88
7315.13
7313.42
7311.8
7310.34
7309.08
7308.05
7307.25
7306.69
7306.36
7306.23
7306.27
7306.44
7306.69
7306.98
7307.26
7307.52
7307.71
7307.82
7307.85
7307.8
7307.69
7307.54
7307.39
7307.27
7307.24
7307.31
7307.54
7307.95
7308.56
7309.37
7310.37
7311.56
7312.88
7314.3
7315.77
7317.23
7318.6
7319.84
7320.88
7321.68
7322.18
7322.38
7322.26
7321.82
7321.08
7320.08
7318.87
7317.51
7316.06
7314.6
7313.18
7311.88
7310.75
7309.84
7309.12
7308.7
7308.5
7308.32
7308.56
7309.08
7309.92
7311.06
7312.56
7314.23
7316.1
7318
7319.86
7321.62
7323.17
7324.45
7325.39
7325.93
7326.05
7325.75
7325.03
7323.94
7322.52
7320.83
7318.96
7316.98
7314.97
7313.02
7311.21
7309.58
7308.19
7307.09
7306.27
7305.73
7305.47
7305.45
7305.62
7305.94
7306.34
7306.77
7307.18
7307.53
7307.78
7307.91
7307.93
7307.82
7307.63
7307.37
7307.09
7306.84
7306.67
7306.64
7306.79
7307.15
7307.75
7308.6
7309.7
7311.01
7312.51
7314.14
7315.83
7317.51
7319.11
7320.55
7321.76
7322.69
7323.28
7323.51
7323.36
7322.83
7321.96
7320.78
7319.36
7317.76
7316.07
7314.36
7312.71
7311.22
7309.92
7308.9
7308.15
7307.69
7307.47
7306.91
7307.15
7307.7
7308.63
7309.93
7311.58
7313.46
7315.84
7318.04
7320.26
7322.36
7324.23
7325.77
7326.9
7327.56
7327.72
7327.37
7326.53
7325.25
7323.57
7321.59
7319.4
7317.08
7314.74
7312.49
7310.4
7308.55
7307.01
7305.81
7304.97
7304.48
7304.32
7304.44
7304.8
7305.31
7305.91
7306.54
7307.11
7307.59
7307.92
7308.08
7308.07
7307.9
7307.58
7307.17
7306.72
7306.29
7305.95
7305.76
7305.79
7306.08
7306.67
7307.58
7308.79
7310.28
7312
7313.89
7315.87
7317.85
7319.74
7321.45
7322.89
7323.99
7324.7
7324.97
7324.78
7324.15
7323.1
7321.68
7319.98
7318.08
7316.06
7314.04
7312.07
7310.34
7308.83
7307.71
7306.9
7306.42
7306.19
7305.18
7305.4
7305.97
7306.99
7308.46
7310.38
7312.68
7315.3
7317.99
7320.72
7323.29
7325.56
7327.44
7328.82
7329.63
7329.84
7329.43
7328.43
7326.89
7324.9
7322.53
7319.91
7317.16
7314.4
7311.75
7309.32
7307.2
7305.46
7304.14
7303.28
7302.86
7302.84
7303.17
7303.76
7304.55
7305.42
7306.3
7307.1
7307.74
7308.18
7308.38
7308.34
7308.06
7307.59
7306.97
7306.28
7305.6
7305.02
7304.62
7304.49
7304.69
7305.26
7306.22
7307.58
7309.28
7311.29
7313.53
7315.88
7318.25
7320.52
7322.58
7324.32
7325.65
7326.5
7326.83
7326.6
7325.82
7324.55
7322.83
7320.76
7318.45
7316.02
7313.64
7311.14
7309.18
7307.51
7306.22
7305.34
7304.85
7304.64
7303.12
7303.29
7303.83
7304.9
7306.57
7308.82
7311.56
7314.66
7317.94
7321.23
7324.41
7327.22
7329.53
7331.23
7332.23
7332.49
7332
7330.79
7328.93
7326.52
7323.67
7320.52
7317.22
7313.92
7310.77
7307.89
7305.42
7303.44
7301.99
7301.11
7300.79
7300.96
7301.56
7302.49
7303.64
7304.88
7306.09
7307.18
7308.04
7308.61
7308.86
7308.78
7308.37
7307.68
7306.79
7305.78
7304.77
7303.87
7303.18
7302.83
7302.88
7303.41
7304.44
7305.97
7307.96
7310.34
7313.01
7315.84
7318.71
7321.47
7323.97
7326.1
7327.72
7328.77
7329.16
7328.88
7327.93
7326.36
7324.25
7321.71
7318.86
7315.84
7312.92
7310.15
7307.76
7305.8
7304.35
7303.42
7302.95
7302.79
7300.71
7300.78
7301.21
7302.26
7304.15
7306.77
7310.05
7313.79
7317.81
7321.87
7325.75
7329.26
7332.12
7334.23
7335.47
7335.8
7335.2
7333.72
7331.45
7328.51
7325.04
7321.21
7317.21
7313.23
7309.44
7306.02
7303.11
7300.82
7299.22
7298.34
7298.15
7298.59
7299.57
7300.94
7302.57
7304.29
7305.95
7307.41
7308.56
7309.31
7309.62
7309.47
7308.88
7307.91
7306.65
7305.23
7303.77
7302.43
7301.36
7300.7
7300.56
7301.02
7302.12
7303.87
7306.2
7309.05
7312.27
7315.72
7319.23
7322.6
7325.68
7328.29
7330.3
7331.59
7332.08
7331.73
7330.56
7328.62
7326.01
7322.86
7319.26
7315.62
7312.05
7308.75
7305.9
7303.61
7302.01
7301.07
7300.69
7300.62
7297.91
7297.77
7297.99
7298.86
7301.06
7304.03
7308.03
7312.59
7317.52
7322.56
7327.4
7331.75
7335.33
7337.95
7339.49
7339.9
7339.15
7337.33
7334.53
7330.92
7326.66
7321.99
7317.11
7312.27
7307.69
7303.57
7300.12
7297.45
7295.67
7294.79
7294.81
7295.62
7297.09
7299.06
7301.33
7303.68
7305.92
7307.88
7309.4
7310.38
7310.77
7310.53
7309.71
7308.36
7306.61
7304.62
7302.57
7300.65
7299.06
7297.98
7297.57
7297.92
7299.1
7301.11
7303.88
7307.32
7311.25
7315.48
7319.79
7323.96
7327.76
7330.99
7333.48
7335.08
7335.7
7335.28
7333.83
7331.41
7328.15
7324.18
7319.78
7315.25
7310.86
7306.86
7303.48
7300.81
7299.05
7298.19
7297.99
7298.08
7294.6
7294.24
7294.14
7294.2
7297.07
7300.86
7305.35
7310.85
7316.96
7323.28
7329.35
7334.8
7339.29
7342.56
7344.47
7344.96
7344.03
7341.76
7338.29
7333.83
7328.6
7322.85
7316.88
7310.95
7305.37
7300.39
7296.24
7293.11
7291.11
7290.28
7290.57
7291.88
7294.03
7296.79
7299.89
7303.07
7306.08
7308.68
7310.69
7311.97
7312.45
7312.1
7310.96
7309.11
7306.72
7303.99
7301.14
7298.45
7296.16
7294.52
7293.72
7293.91
7295.17
7297.5
7300.83
7305.01
7309.84
7315.06
7320.39
7325.55
7330.28
7334.3
7337.4
7339.41
7340.19
7339.68
7337.88
7334.86
7330.76
7325.79
7320.29
7314.61
7309.15
7304.28
7300.29
7297.29
7295.24
7294.68
7294.8
7295.11
7290.87
7289.99
7289.58
7290.05
7291.86
7295.99
7301.49
7308.23
7315.89
7323.89
7331.61
7338.48
7344.13
7348.21
7350.59
7351.18
7350.01
7347.17
7342.86
7337.33
7330.87
7323.8
7316.45
7309.17
7302.33
7296.25
7291.24
7287.54
7285.29
7284.53
7285.22
7287.2
7290.24
7294.03
7298.24
7302.52
7306.53
7309.97
7312.62
7314.28
7314.88
7314.37
7312.8
7310.3
7307.06
7303.34
7299.45
7295.73
7292.51
7290.11
7288.78
7288.74
7290.07
7292.79
7296.82
7301.96
7307.92
7314.4
7321.02
7327.44
7333.31
7338.32
7342.2
7344.73
7345.73
7345.11
7342.87
7339.09
7333.92
7327.66
7320.68
7313.47
7306.61
7300.62
7295.86
7292.33
7290.58
7290.53
7291
7291.84
7288.34
7284.76
7281.42
7279.22
7283.07
7288.77
7295.65
7304.11
7313.88
7324.21
7334.16
7342.92
7350
7355.11
7358.07
7358.78
7357.29
7353.73
7348.37
7341.51
7333.53
7324.82
7315.77
7306.79
7298.36
7290.9
7284.81
7280.39
7277.84
7277.21
7278.44
7281.33
7285.55
7290.71
7296.37
7302.08
7307.4
7311.94
7315.41
7317.58
7318.31
7317.58
7315.46
7312.09
7307.73
7302.71
7297.45
7292.37
7287.91
7284.49
7282.46
7282.07
7283.47
7286.68
7291.59
7297.93
7305.37
7313.42
7321.67
7329.65
7336.96
7343.2
7348.06
7351.25
7352.53
7351.77
7348.97
7344.23
7337.68
7329.74
7320.77
7311.46
7302.71
7295.23
7289.27
7284.21
7280.64
7282.46
7286.45
7289.86
7291.95
7281.96
7265.96
7258.01
7268.02
7277.57
7286.54
7297.42
7310.2
7323.86
7336.9
7348.17
7357.12
7363.53
7367.2
7368.04
7366.11
7361.61
7354.9
7346.4
7336.57
7325.85
7314.7
7303.61
7293.17
7283.97
7276.53
7271.23
7268.32
7267.89
7269.85
7273.93
7279.72
7286.7
7294.28
7301.86
7308.88
7314.86
7319.39
7322.2
7323.11
7322.08
7319.22
7314.71
7308.88
7302.17
7295.08
7288.2
7282.11
7277.35
7274.36
7273.49
7274.94
7278.75
7284.75
7292.64
7301.93
7312.03
7322.32
7332.23
7341.3
7349.08
7355.18
7359.21
7360.85
7359.93
7356.41
7350.39
7342.11
7331.9
7320.16
7307.85
7296.38
7286.77
7279.08
7269.83
7257.21
7263.22
7284.23
7293.5
7303.44
7287.6
7246.11
7234.35
7246.91
7259.71
7271.58
7286.48
7304.15
7322.85
7340.29
7354.83
7365.99
7373.92
7378.35
7379.21
7376.61
7370.84
7362.41
7351.87
7339.8
7326.69
7313
7299.28
7286.32
7274.96
7265.83
7259.41
7256.06
7255.92
7258.88
7264.58
7272.47
7281.86
7291.97
7302.01
7311.26
7319.09
7325
7328.61
7329.73
7328.32
7324.49
7318.5
7310.75
7301.81
7292.32
7283.05
7274.77
7268.19
7263.91
7262.37
7263.85
7268.39
7275.8
7285.63
7297.28
7309.97
7322.79
7335.07
7346.28
7355.96
7363.6
7368.73
7370.91
7369.89
7365.56
7358.05
7347.66
7334.53
7318.9
7302.04
7286.03
7272.77
7262.79
7252.8
7236.69
7246.82
7289.38
7304.36
7326.25
7300.27
7243.68
7214.52
7217.37
7231.96
7247.96
7271.31
7295.49
7321.27
7344.56
7363.04
7376.67
7386.5
7391.83
7392.65
7389.08
7381.51
7370.71
7357.58
7342.86
7326.97
7310.22
7293.25
7277.24
7263.23
7252
7244.17
7240.23
7240.46
7244.75
7252.62
7263.34
7275.98
7289.45
7302.69
7314.79
7324.96
7332.57
7337.19
7338.56
7336.66
7331.62
7323.75
7313.56
7301.73
7289.09
7276.59
7265.32
7256.29
7250.27
7247.87
7249.41
7254.91
7264.1
7276.36
7290.91
7306.83
7322.73
7337.82
7351.56
7363.57
7373.29
7379.98
7382.97
7381.88
7376.59
7367.21
7354.35
7337.86
7317.27
7294.05
7271.95
7250.5
7237.41
7225.22
7223.14
7249.64
7302.02
7322.98
7380.54
7337.75
7258.62
7198.68
7180.12
7198.99
7222.98
7244.44
7276.06
7312.78
7344.75
7368.74
7386.99
7400.14
7407.15
7408.13
7403.39
7393.46
7379.55
7363.25
7345.67
7326.9
7306.55
7285.35
7265.37
7248.01
7234.14
7224.56
7219.86
7220.65
7226.73
7237.37
7251.72
7268.63
7286.57
7304.04
7319.79
7332.91
7342.65
7348.49
7350.16
7347.68
7341.15
7330.9
7317.57
7301.99
7285.14
7268.32
7253.14
7241
7232.78
7229.15
7230.69
7237.27
7248.6
7264.04
7282.43
7302.35
7322.34
7340.54
7356.96
7371.7
7384.08
7392.7
7396.57
7395.15
7388.17
7375.44
7358.07
7336.49
7308.6
7275.77
7247.2
7228.9
7208.44
7192.4
7210.65
7267.45
7342.74
7384.11
7403.62
7347.9
7023.85
6732.4
6643.76
6717.45
7046.81
7171.38
7223.76
7280.93
7331.09
7368.49
7396.3
7415.26
7424.92
7426
7419.75
7407.11
7389.86
7370.88
7351.23
7329.69
7304.8
7278.12
7252.89
7230.87
7213.36
7201.19
7194.92
7196.21
7204.63
7218.89
7237.94
7260.26
7283.76
7306.61
7326.99
7343.89
7356.34
7363.74
7365.72
7362.54
7354.15
7340.87
7323.49
7303.11
7280.94
7258.65
7238.6
7222.64
7211.58
7206.39
7208.08
7216.17
7230.86
7250.75
7274.29
7299.96
7325.02
7346.8
7365.42
7382.15
7396.95
7407.41
7412.11
7410.25
7400.67
7382.27
7355.66
7320.83
7274.53
7222.02
7175.37
7073.52
6802.68
6699.76
6855.69
7135.08
7361.99
7410.25
7394.21
6534.72
4405.63
2079.37
1147.93
1838.45
3304.6
4575.97
5363.72
6161.19
6899.57
7332.67
7419.01
7445.25
7457.15
7459.41
7452.46
7436.54
7409.82
7353.57
7311.05
7320.39
7176.1
6742.69
6326.61
5958.78
5656.51
5427.64
5240.86
5225.49
5359.86
5605.4
5930.33
6276.07
6592.81
6856.12
7062.69
7213.77
7312.63
7364.81
7381.3
7364.33
7307.09
7202.21
7048.91
6848.37
6596.39
6290.17
5985.13
5728.98
5532.69
5448.83
5528.31
5663.97
5923.78
6256.21
6637.93
7049.6
7328.55
7329.93
7347.32
7398.35
7426.08
7439.49
7444.25
7439.82
7426.56
7399.2
7290.56
6852.74
6063.75
5250.56
4551.44
3439.5
2064.05
1349.51
2388.92
4762.72
6745.56
7403.45
3464.28
2359.37
735.38
35.0125
10.522
5.71502
4.51708
3.28665
20.5478
783.018
1999.14
3815.16
5170.6
5489.85
5581.61
5634.67
5527.36
5082.81
4314.32
3564.55
2931.13
2238.01
1517.69
1022.55
654.346
399.877
244.654
161.338
169.213
234.117
345.651
501.921
710.717
1003.5
1377.33
1803.46
2240.56
2640.19
2950.58
3129.1
3175.06
3098.41
2882.3
2545.93
2137.01
1697.56
1276.93
912.204
645.145
460.276
322.402
226.302
185.882
242.818
385.539
619.859
952.472
1413.24
2058.81
2825.03
3474.7
4127.91
4834.05
5276.9
5384.44
5243.83
5028.97
4637.23
3469.76
1885.46
694.138
2.16816
2.8895
5.24647
7.66118
18.3797
48.4881
961.355
2608.31
3606.98
16.6966
7.8634
4.98777
7.55979
2.98111
2.46872
2.49947
1.62053
1.31279
1.08135
0.881441
1.16145
142.892
324.864
308.023
253.98
160.391
41.1453
1.16855
0.832135
0.648412
0.590623
0.762567
0.878033
0.968462
1.00049
1.01588
1.37993
1.32033
1.26189
1.27771
1.21641
1.11847
1.13819
1.28809
1.54347
1.85699
2.14673
2.63727
4.32773
5.25155
3.54558
1.86769
1.56688
1.26293
0.968572
0.816014
0.812719
0.924638
1.09667
1.21079
1.33974
1.34341
0.91688
0.840154
0.811352
0.726384
0.614767
0.437772
0.387816
0.514558
0.774572
1.99841
79.6955
124.798
118.244
84.8421
1.46882
0.816108
0.803175
1.01518
1.20826
1.36439
2.51525
3.97597
9.13305
15.691
19.3404
17.4418
30.8654
10.0746
7.76179
3.50811
1.72126
1.61952
1.81001
1.79248
1.54153
1.36985
1.07436
1.11931
1.22827
1.17578
1.09361
1.05398
1.02874
1.02015
1.03825
1.02791
0.923688
0.800502
0.755727
0.8037
0.84579
0.897687
0.936084
0.964869
0.971098
0.961061
0.935604
0.899014
0.852275
0.809241
0.769022
0.72675
0.684414
0.647513
0.624101
0.612723
0.602298
0.583369
0.583554
0.579481
0.587492
0.609433
0.642006
0.680351
0.710983
0.733827
0.761624
0.792205
0.819227
0.826666
0.822545
0.788187
0.743963
0.688192
0.624712
0.560757
0.573823
0.673776
0.808
0.901248
0.922828
0.984736
1.073
1.17184
1.22714
1.14512
1.05866
1.00463
1.15764
1.19599
1.32113
1.54312
4.28566
16.2209
18.6603
15.7443
22.0926
5.33043
7.2877
3.05043
1.41896
1.33504
1.48543
1.68667
1.8047
2.07357
1.84619
1.58796
1.36446
1.27554
1.19554
1.12785
1.08117
1.05055
1.03505
1.01424
0.957066
0.890158
0.859544
0.854596
0.870355
0.891529
0.908657
0.918945
0.924476
0.911252
0.889395
0.856199
0.815446
0.776841
0.738622
0.696445
0.653023
0.612516
0.578073
0.551887
0.535042
0.529017
0.534406
0.549124
0.57079
0.597858
0.628264
0.660381
0.68825
0.710186
0.732246
0.754087
0.772353
0.784828
0.776434
0.760583
0.738267
0.708913
0.682643
0.673383
0.687447
0.73916
0.822457
0.895238
0.946142
1.01489
1.10393
1.2024
1.28335
1.32242
1.3387
1.27783
1.09591
0.871592
0.627378
0.274688
5.00886
12.6069
4.96962
4.95884
16.4772
3.49735
3.69684
1.90113
1.42688
2.46093
2.48686
2.46513
2.71028
2.37297
2.45956
1.88762
1.47133
1.35156
1.2738
1.19236
1.13307
1.08413
1.04433
1.00911
0.959294
0.91236
0.879246
0.862485
0.858341
0.866933
0.873263
0.875497
0.872083
0.86653
0.848886
0.818434
0.785024
0.754455
0.7215
0.686347
0.650855
0.617366
0.588241
0.565631
0.551689
0.547667
0.552694
0.565051
0.582294
0.602719
0.625292
0.648878
0.671295
0.691148
0.708893
0.724343
0.735939
0.742058
0.7387
0.730588
0.718371
0.705416
0.698303
0.703114
0.726987
0.771301
0.833317
0.900281
0.966827
1.04314
1.13179
1.22706
1.32126
1.41628
1.5263
1.43059
1.36166
1.0431
0.905456
0.356847
0.257484
-0.11021
-0.89187
0.0551737
2.66578
4.02394
1.78527
1.03275
1.53553
2.75062
2.49751
2.47679
2.38131
1.46062
2.12522
1.58396
1.43652
1.37273
1.30926
1.24203
1.17468
1.10981
1.05197
1.00115
0.954621
0.91599
0.884705
0.858212
0.847387
0.845116
0.843244
0.840258
0.833599
0.821337
0.804411
0.783548
0.75974
0.733711
0.705941
0.677079
0.648181
0.620727
0.596551
0.577784
0.566563
0.56354
0.56701
0.576324
0.588921
0.603351
0.620239
0.638271
0.656292
0.673091
0.687325
0.698797
0.706544
0.709834
0.708021
0.703371
0.69794
0.694638
0.697293
0.712643
0.742398
0.785614
0.839478
0.901864
0.973663
1.05618
1.14338
1.22875
1.30581
1.37146
1.43156
1.34534
1.18014
2.27528
1.95216
1.5774
0.207701
-0.8142
-0.541968
-0.0104615
0.543726
19.5099
1.89014
1.0304
1.98286
2.94371
2.7456
1.95616
0.768079
1.10401
1.33828
1.37252
1.35663
1.34972
1.51087
1.76859
1.53824
1.18355
1.05109
0.980174
0.931127
0.896556
0.868924
0.845289
0.830509
0.822068
0.815528
0.809611
0.801166
0.789308
0.774339
0.756525
0.73627
0.714166
0.690795
0.666783
0.642983
0.620487
0.600796
0.585723
0.576773
0.573882
0.57535
0.581537
0.590004
0.600432
0.614424
0.628957
0.643319
0.656377
0.667321
0.675733
0.681034
0.682851
0.681465
0.678752
0.677016
0.679321
0.687085
0.704523
0.73353
0.775135
0.828745
0.896202
1.09518
1.4078
1.33947
1.21467
1.23845
1.2617
1.25206
1.1515
0.837434
1.38364
2.17225
1.93835
1.81055
1.86241
0.671938
0.419256
0.751632
21.9648
3.05294
1.01426
1.41833
1.98891
1.31165
0.71409
0.867464
1.07765
1.18572
1.20716
1.219
1.84807
2.90321
2.87542
2.82656
2.35104
1.67478
1.07991
0.889717
0.859862
0.84174
0.821662
0.80666
0.796174
0.787971
0.780226
0.771369
0.760411
0.747226
0.73188
0.714643
0.695933
0.676236
0.656128
0.636329
0.617796
0.601842
0.589949
0.582627
0.579845
0.579875
0.583731
0.589331
0.597695
0.60875
0.620351
0.631587
0.641607
0.649721
0.655452
0.658408
0.658501
0.65624
0.653068
0.650989
0.652256
0.66124
0.677016
0.702417
0.741443
0.831289
1.34072
2.12918
2.20819
2.27064
1.77632
1.14638
1.10507
1.07316
0.992732
0.8003
0.518208
0.620911
2.34634
2.34683
2.46425
1.49434
0.779831
1.00808
22.5851
2.84937
1.03164
1.01822
0.913862
0.82619
0.823615
0.926364
1.02935
1.04837
1.0268
1.24724
2.82135
2.86083
2.85776
2.81582
2.74728
2.65021
1.4446
0.83908
0.819694
0.803453
0.790048
0.777562
0.767598
0.75946
0.751755
0.74336
0.733551
0.722056
0.708852
0.694148
0.678282
0.661675
0.644812
0.628291
0.612989
0.600226
0.590844
0.584854
0.582418
0.584748
0.584696
0.58834
0.59455
0.602901
0.611921
0.620624
0.628177
0.633941
0.637392
0.638137
0.636097
0.631706
0.626199
0.621542
0.620076
0.625128
0.635609
0.657058
0.707391
1.59849
2.0523
2.09903
2.14394
2.18102
2.20324
1.82894
0.947636
0.890822
0.852041
0.759708
0.609538
0.475495
0.590592
1.81709
2.13169
1.2575
1.04706
1.20555
20.513
2.31018
1.07825
1.04754
0.956984
0.873672
0.865481
0.952808
2.17044
3.01442
1.94833
1.13235
2.20853
2.85012
2.8522
2.80358
2.71186
1.94127
1.18476
0.815214
0.79385
0.771646
0.755588
0.744523
0.736585
0.730052
0.723607
0.716499
0.708093
0.698269
0.687017
0.67453
0.661104
0.6471
0.632916
0.619035
0.6063
0.596024
0.588722
0.585119
0.582426
0.585701
0.587015
0.588016
0.590238
0.596614
0.603691
0.610404
0.615967
0.61978
0.621277
0.619969
0.615574
0.608231
0.598755
0.588839
0.580215
0.578214
0.587864
0.606186
1.33747
1.91944
1.97559
2.03782
2.08859
2.11923
2.11107
1.87191
0.806721
0.706235
0.712559
0.694289
0.634356
0.586762
0.607142
0.730624
0.921271
1.14256
1.23884
1.33413
2.84659
2.25842
1.13938
1.06747
0.963573
0.876313
0.859201
4.69363
10.1664
9.73146
6.28182
0.919121
1.2448
1.47412
1.65182
1.57557
1.29945
0.877433
0.828947
0.797128
0.770602
0.73937
0.71635
0.706717
0.702992
0.69969
0.695428
0.690489
0.683664
0.675505
0.666068
0.655556
0.64425
0.63246
0.620507
0.608759
0.597936
0.589533
0.583888
0.58964
0.611893
0.582861
0.583389
0.582686
0.584754
0.589951
0.595638
0.600878
0.604972
0.607317
0.607274
0.604174
0.597402
0.586557
0.571683
0.553754
0.532875
0.520751
0.528592
0.546015
1.50203
1.82682
1.86243
1.55881
1.84009
2.00988
1.542
0.822838
0.637319
0.691849
0.671484
0.610136
0.610699
0.627381
0.693861
0.824471
0.99031
1.15626
1.29763
1.39023
2.56065
2.46761
1.18223
1.04763
0.915917
1.34048
8.73556
10.3988
10.1129
9.34586
1.31487
0.578807
1.19099
2.84481
3.37593
2.13114
0.981838
0.832441
0.790776
1.06089
0.945713
0.687077
0.666969
0.662675
0.667091
0.669012
0.667965
0.665037
0.660153
0.653666
0.645877
0.63709
0.627609
0.617726
0.607708
0.597834
0.588136
0.581069
0.577203
0.584834
0.677924
0.579429
0.574733
0.575235
0.578535
0.583082
0.587892
0.592186
0.595349
0.596763
0.595689
0.591253
0.582433
0.568059
0.546906
0.517789
0.478581
0.449056
0.517735
0.755274
0.667177
0.665945
0.674579
0.833931
1.00304
1.2292
0.937833
0.594126
0.396902
2.58345
7.68539
5.58605
0.954853
0.607159
0.699706
0.844609
1.01976
1.17702
1.29669
1.37932
3.55111
2.4516
1.15676
0.951596
0.798013
4.76225
10.5369
10.2468
9.57291
1.35877
0.227469
0.587231
4.43114
5.29096
5.5724
5.77824
3.32506
0.898475
0.788265
1.19088
1.18587
0.644785
0.604976
0.612127
0.630273
0.638984
0.641602
0.641023
0.63789
0.632871
0.626482
0.619128
0.611158
0.602862
0.594415
0.585965
0.577955
0.571622
0.569287
0.574736
0.675247
0.576469
0.567623
0.568897
0.572118
0.576339
0.580677
0.584519
0.587324
0.588447
0.58706
0.582077
0.572027
0.55489
0.52786
0.486237
0.425473
0.367803
0.795988
0.812422
0.421178
0.420158
0.45073
0.70495
1.96075
4.26458
2.95098
0.278924
-0.0585822
3.56915
7.79552
8.24439
8.67425
4.5723
0.638644
0.785113
0.970275
1.12615
1.23485
1.30819
4.66661
2.95867
1.03209
0.755593
0.861034
8.01089
10.2799
9.93438
3.96782
0.0498662
0.301007
3.67073
3.9557
4.38238
4.82418
5.28645
5.69823
4.24908
0.675493
0.966208
1.10065
0.670864
0.540207
0.563674
0.596751
0.611567
0.617651
0.619064
0.617247
0.613296
0.607951
0.601703
0.594944
0.587972
0.58093
0.573875
0.567215
0.56235
0.560992
0.56227
0.672236
0.575889
0.561145
0.562586
0.565847
0.569928
0.574116
0.577958
0.580985
0.582545
0.581748
0.577365
0.567601
0.549759
0.519596
0.468483
0.39123
0.384449
0.718684
0.712473
0.272369
0.233219
0.228838
3.23412
3.95701
3.74739
3.49866
2.9273
-0.394445
-0.18913
6.97631
8.1172
8.62464
9.12922
2.43487
0.643532
0.836575
1.00704
1.11613
1.18534
4.59566
2.97009
0.815803
0.463681
1.18519
10.9187
10.0949
8.0196
-0.375788
-0.888572
-1.20235
0.0815533
2.71338
2.96613
3.7848
4.62928
5.34348
6.06114
0.625232
0.426611
0.693145
0.589366
0.497696
0.533984
0.569581
0.589584
0.597642
0.599856
0.598524
0.595042
0.590279
0.584782
0.578941
0.57307
0.567323
0.561716
0.55662
0.553507
0.553584
0.555357
0.668445
0.608653
0.554582
0.556333
0.559681
0.563765
0.568128
0.572432
0.576263
0.579033
0.579896
0.57761
0.570299
0.555034
0.526876
0.475092
0.393641
0.33799
0.500251
0.297852
0.108736
0.0270852
2.33356
3.62339
3.2367
2.82018
2.43953
2.15751
1.91624
-0.489551
0.188586
7.65098
8.51216
8.94192
4.62763
0.40578
0.621477
0.828118
0.954762
1.04001
4.44266
1.92272
0.541233
0.108073
1.86756
10.9603
10.1287
4.11788
-1.07835
-1.6432
-2.0095
-2.06783
-1.84513
-1.32099
-0.536186
3.02923
5.0517
5.92167
3.95741
0.346161
0.419287
0.471915
0.49164
0.526606
0.558105
0.576311
0.582784
0.583841
0.581815
0.578052
0.573366
0.568248
0.563043
0.55804
0.553443
0.549269
0.545795
0.544542
0.546384
0.556255
0.664254
0.627238
0.547927
0.549617
0.553155
0.55746
0.562333
0.56754
0.572764
0.577505
0.581098
0.582527
0.58008
0.571204
0.551192
0.510857
0.441106
0.360966
0.260421
0.15991
0.0267911
-0.132361
3.53565
3.03761
2.44046
1.84673
1.35591
0.960965
-1.63146
-1.54756
-1.06446
2.81763
8.20176
8.70906
6.06096
0.214727
0.352137
0.610116
0.77391
0.883136
4.20802
1.83794
0.23548
-0.257996
3.07851
10.7853
10.1988
3.55622
-1.64327
-2.22386
-2.63025
-2.7252
-2.42725
-1.55428
-0.765404
-0.319217
2.97141
5.95006
6.97368
0.329265
0.432296
0.495791
0.518764
0.54211
0.561844
0.571427
0.572735
0.570657
0.566772
0.562023
0.556958
0.551892
0.54706
0.542665
0.538918
0.535806
0.533277
0.569762
0.692265
0.719034
0.655892
0.575751
0.538021
0.541551
0.545555
0.550465
0.556236
0.562722
0.569763
0.57708
0.584282
0.590783
0.5953
0.596007
0.588531
0.569577
0.525114
0.457557
0.367485
0.232307
0.0270622
2.12154
3.14172
2.53905
1.80825
-1.35797
-2.2237
-2.5504
-2.55113
-2.24837
-1.69405
-1.0974
7.62014
8.5282
8.86711
0.143903
0.0695511
0.375831
0.600258
0.743879
4.9616
5.51335
0.00740314
-0.534748
2.12464
10.6092
10.0995
6.79452
-2.07764
-2.6729
-3.13332
-3.27964
0.956319
6.05049
-0.892437
-0.86308
-0.440765
6.2644
7.48886
0.42262
0.48916
0.55709
0.568349
0.573127
0.574764
0.571579
0.565511
0.559014
0.552536
0.546355
0.540624
0.535409
0.530766
0.526762
0.523507
0.520958
0.519183
0.632192
0.707157
0.709855
0.581989
0.52415
0.527449
0.531784
0.536602
0.542399
0.549277
0.557286
0.566412
0.576666
0.588036
0.600263
0.612952
0.62574
0.638152
0.639805
0.625538
0.586626
0.504963
0.352872
0.14298
3.60966
2.76588
1.47317
0.192547
-1.03305
-2.65064
-3.05864
-3.00799
-2.65933
-2.09619
0.604742
7.86515
8.38288
7.87372
-0.266084
-0.181586
0.140274
0.453165
0.621213
5.8484
5.72054
-0.00351875
-0.715912
-0.666446
10.702
9.9953
9.53701
2.4593
-3.0083
-3.48052
-2.92351
6.6717
7.38176
7.41402
-0.136776
-0.724767
2.13672
7.7545
2.30495
0.575713
0.629991
0.623602
0.606027
0.588182
0.571813
0.558149
0.547085
0.537922
0.530265
0.523833
0.51842
0.513899
0.510192
0.507259
0.505014
0.502974
0.55068
0.684391
0.69826
0.611282
0.509332
0.515401
0.520286
0.526046
0.53287
0.540925
0.550467
0.561667
0.574832
0.590107
0.607868
0.628302
0.651595
0.677937
0.703151
0.718695
0.709822
0.643026
0.487189
3.37232
3.67901
1.56729
0.922311
2.48392
4.92959
2.4714
-3.1327
-3.24747
-2.87927
-0.154743
7.272
7.78773
8.29605
2.83439
-0.743496
-0.404818
-0.0854656
0.340746
2.0767
5.76599
5.60962
0.45289
-0.770922
-1.46084
1.36565
10.0931
9.43777
8.90745
4.26526
4.27687
5.67151
6.70074
7.60398
8.56867
1.89541
-0.892336
0.191201
8.03701
6.19987
0.738886
0.690783
0.664677
0.6265
0.593246
0.566683
0.547341
0.532819
0.521649
0.512939
0.506072
0.500621
0.496298
0.492924
0.490351
0.488455
0.486984
0.4859
0.528457
0.687298
0.681009
0.49569
0.501887
0.507394
0.513938
0.521641
0.530758
0.54162
0.554614
0.570193
0.588817
0.611123
0.637762
0.669369
0.706861
0.748725
0.787126
0.804069
0.761849
0.985564
4.68773
3.86751
-0.249895
3.28434
6.03119
5.54002
5.29088
4.70231
3.8493
3.42278
6.77772
7.20178
7.72748
7.74209
-1.64177
-0.985002
-0.539919
-0.313365
0.572546
6.54318
5.82419
3.67665
0.08745
-0.618962
-1.24573
-2.1099
5.43115
9.65441
8.83919
8.19104
7.80681
7.77445
6.90643
8.11444
8.88914
0.142264
-0.962347
0.266291
8.70714
7.71776
1.02565
0.721322
0.675159
0.624627
0.583601
0.553236
0.530766
0.514628
0.502657
0.493682
0.486881
0.481706
0.477784
0.474872
0.472783
0.471395
0.470614
0.470378
0.499321
0.676232
0.548366
0.481182
0.487096
0.493193
0.500166
0.508509
0.518413
0.530217
0.544449
0.561688
0.582619
0.608036
0.638804
0.67574
0.719791
0.770719
0.822548
0.858182
0.988701
4.25826
4.77993
2.38719
-0.45788
6.09281
5.80751
1.09179
5.52556
6.2316
6.26055
6.62623
6.99115
7.44367
6.77974
-0.824756
-1.45448
-0.900987
-0.542522
-0.418089
1.84619
6.33766
3.61927
1.96684
-0.0422764
-0.325853
-0.853123
-1.60638
-2.33123
0.295987
5.35149
8.86496
8.7457
1.09555
-3.98422
1.1284
0.29389
-1.57489
-0.876691
2.75407
9.53902
8.48541
1.13604
0.704669
0.650072
0.597941
0.557805
0.528524
0.50727
0.491739
0.480418
0.472116
0.466
0.461503
0.458238
0.455963
0.454494
0.45373
0.453606
0.454525
0.562558
0.642094
0.459572
0.465548
0.471198
0.477797
0.484591
0.493411
0.503727
0.515944
0.530677
0.548712
0.570703
0.597494
0.630038
0.669224
0.715789
0.769874
0.82794
0.879942
1.83889
5.43958
4.79887
-0.299044
-0.395551
1.12296
-0.949495
-3.11633
-3.29144
6.13906
7.07891
7.22601
3.969
1.04447
-1.27149
-1.66091
-1.08552
-0.672166
-0.399543
-0.286809
1.57187
5.82721
0.624552
3.4655
1.4278
-0.0363985
-0.431323
-1.00673
-1.67351
-2.27845
-2.64287
-1.04711
-1.22857
-2.94125
-3.04398
-2.49382
-1.90975
-1.31481
-0.678705
5.02504
10.4677
8.68215
1.0536
0.638196
0.590994
0.549766
0.518076
0.494424
0.477034
0.464242
0.454971
0.448269
0.443454
0.44004
0.437696
0.436218
0.435454
0.435318
0.435757
0.46162
0.599297
0.488594
0.443433
0.448804
0.454275
0.460668
0.46785
0.476505
0.486798
0.498752
0.513028
0.530978
0.552767
0.579254
0.61131
0.649825
0.695464
0.74781
0.805594
0.866661
2.21042
5.55198
3.45155
-0.149172
-0.626179
-1.1383
-1.59396
-2.42223
-2.95313
-2.68672
-1.52402
-1.83768
-2.51991
-2.13473
-1.62852
-1.11089
-0.675775
-0.38191
-0.170345
-0.0379369
1.58256
0.387276
-0.0804213
1.69361
2.39029
1.61446
-0.126844
-0.496241
-0.965916
-1.44149
-1.81041
-2.11432
-2.25562
-2.25408
-2.05746
-1.74881
-1.33618
-0.894668
-0.396386
9.18339
11.1074
6.24351
0.586304
0.534819
0.509125
0.486803
0.468016
0.452803
0.441282
0.432855
0.426755
0.422423
0.419424
0.417443
0.416252
0.415716
0.415738
0.416243
0.417213
0.445434
0.584908
0.447857
0.42651
0.43123
0.436434
0.442472
0.449395
0.457543
0.467167
0.47855
0.492186
0.508823
0.529024
0.553545
0.583113
0.618434
0.659967
0.706912
0.760458
0.820295
1.3992
5.40648
3.89255
0.0101148
-0.416588
-0.848517
-1.26482
-1.77132
-2.12498
-2.30442
-2.23945
-2.04965
-1.71889
-1.35969
-0.99761
-0.632169
-0.331085
-0.116115