/*--------------------------------*- C++ -*----------------------------------*\
| =========                 |                                                 |
| \\      /  F ield         | OpenFOAM: The Open Source CFD Toolbox           |
|  \\    /   O peration     | Version:  2412                                  |
|   \\  /    A nd           | Website:  www.openfoam.com                      |
|    \\/     M anipulation  |                                                 |
\*---------------------------------------------------------------------------*/
FoamFile
{
    version     2.0;
    format      ascii;
    arch        "LSB;label=32;scalar=64";
    class       volScalarField;
    location    "7.98";
    object      p_rgh;
}
// * * * * * * * * * * * * * * * * * * * * * * * * * * * * * * * * * * * * * //

dimensions      [1 -1 -2 0 0 0 0];

internalField   nonuniform List<scalar> 
80000
(
33081
33080.5
33079.4
33077.9
33075.8
33073.2
33070.1
33066.4
33062.2
33057.5
33052.3
33046.5
33040.2
33033.4
33026
33018.2
33009.8
33000.8
32991.4
32981.4
32971
32960
32948.4
32936.4
32923.9
32910.8
32897.2
32883.2
32868.6
32853.5
32837.9
32821.8
32805.3
32788.2
32770.6
32752.6
32734
32715
32695.6
32675.6
32655.2
32634.3
32612.9
32591.1
32568.8
32546.1
32523
32499.4
32475.3
32450.9
32426
32400.7
32375
32348.8
32322.3
32295.4
32268.1
32240.3
32212.2
32183.8
32154.9
32125.7
32096.2
32066.3
32036
32005.4
31974.5
31943.3
31911.7
31879.9
31847.7
31815.2
31782.5
31749.4
31716.1
31682.6
31648.8
31614.7
31580.4
31545.8
31511.1
31476.1
31440.9
31405.5
31369.9
31334.1
31298.2
31262.1
31225.8
31189.4
31152.9
31116.2
31079.4
31042.5
31005.5
30968.4
30931.2
30894
30856.6
30819.3
30781.9
30744.4
30707
30669.5
30632
30594.5
30557.1
30519.6
30482.2
30444.9
30407.6
30370.4
30333.3
30296.2
30259.3
30222.5
30185.8
30149.2
30112.8
30076.5
30040.4
30004.5
29968.8
29933.3
29898
29862.9
29828.1
29793.5
29759.2
29725.1
29691.3
29657.9
29624.7
29591.9
29559.4
29527.2
29495.4
29464
29432.9
29402.3
29372
29342.2
29312.8
29283.8
29255.3
29227.3
29199.8
29172.7
29146.2
29120.2
29094.7
29069.7
29045.3
29021.5
28998.3
28975.6
28953.6
28932.2
28911.4
28891.3
28871.8
28853
28834.9
28817.5
28800.7
28784.8
28769.5
28755
28741.2
28728.2
28715.9
28704.5
28693.8
28684
28675
28666.8
28659.4
28652.9
28647.3
28642.5
28638.5
28635.5
28633.3
28632
28631.6
28632.2
28633.6
28635.9
28639.2
28643.4
28648.4
28654.5
28661.4
28669.2
28678
28687.6
28698.2
28709.7
28722.1
28735.4
28749.5
28764.6
28780.5
28797.3
28814.9
28833.4
28852.6
28872.7
28893.6
28915.2
28937.6
28960.7
28984.5
29009
29034.1
29059.9
29086.3
29113.2
29140.7
29168.6
29197.1
29226
29255.3
29284.9
29314.9
29345.2
29375.7
29406.4
29437.2
29468.2
29499.2
29530.3
29561.4
29592.3
29623.2
29653.9
29684.4
29714.7
29744.7
29774.3
29803.5
29832.3
29860.6
29888.3
29915.5
29942
29967.9
29993.1
30017.5
30041.2
30064
30086
30107.1
30127.2
30146.4
30164.6
30181.8
30198
30213.2
30227.2
30240.2
30252.1
30262.9
30272.5
30281
30288.3
30294.5
30299.5
30303.4
30306.2
30307.8
30308.2
30307.5
30305.7
30302.8
30298.8
30293.8
30287.6
30280.4
30272.2
30262.9
30252.6
30241.3
30229.1
30216
30201.9
30187
30171.1
30154.4
30136.8
30118.5
30099.4
30079.5
30058.8
30037.5
30015.4
29992.7
29969.4
29945.4
29920.9
29895.8
29870.1
29843.9
29817.3
29790.2
29762.7
29734.8
29706.5
29677.9
29649
29619.7
29590.3
29560.6
29530.7
29500.7
29470.5
29440.3
29409.9
29379.6
29349.2
29318.8
29288.5
29258.2
29228.1
29198.1
29168.3
29138.7
29109.3
29080.2
29051.3
29022.8
28994.6
28966.8
28939.5
28912.6
28886.1
28860.2
28834.8
28810.1
28785.9
28762.3
28739.5
28717.3
28695.9
28675.3
28655.4
28636.5
28618.4
28601.2
28584.9
28569.6
28555.4
28542.1
28529.9
28518.8
28508.9
28500
28492.3
28485.8
28480.5
28476.5
28473.6
28472.1
28471.8
28472.9
28475.2
28478.8
28483.6
28489.8
28497.3
28506.1
28516.1
28527.5
28540
28553.8
28568.9
28585.1
28602.4
28620.9
28640.5
28661.1
28682.8
28705.4
28728.9
28753.4
28778.6
28804.7
28831.4
28858.9
28886.9
28915.5
28944.6
28974.1
29004
29034.2
29064.6
29095.2
29125.9
29156.6
29187.4
29218
29248.5
29278.7
29308.7
29338.4
29367.7
29396.5
29424.8
29452.6
29479.7
29506.1
29531.8
29556.7
29581.5
29604.7
29627.1
29648.5
29669
29688.5
29706.9
29724.3
29740.6
29755.8
29769.9
29782.8
29794.5
29805
29814.4
29822.5
29829.4
29835.1
29839.6
29842.9
29845
29845.9
29845.6
29844.2
29841.6
29837.9
29833
29827.1
29820.2
29812.2
29803.2
29793.3
29782.4
29770.7
29758.1
29744.8
29730.7
29715.9
29700.5
29684.5
29667.9
29650.9
29633.4
29615.6
29597.5
29579.1
29560.5
29541.9
29523.1
29504.3
29485.7
29467.1
29448.8
29430.6
29412.8
29395.3
29378.3
29361.7
29345.7
29330.2
29315.4
29301.2
29287.7
29275
29263.1
29251.9
29241.6
29232.2
29223.7
29216
29209.2
29203.4
29198.4
29194.3
29191.2
29188.9
29187.4
29186.8
29187
29188
29189.7
29192.2
29195.3
29199
29203.4
29208.2
29213.6
29219.5
29225.7
29232.3
29239.3
29246.5
29253.9
29261.5
29269.2
29277.1
29285
29292.9
29300.8
29308.7
29316.4
29324.1
29331.6
29339
29346.2
29353.1
29359.9
29366.4
29372.6
29378.6
29384.3
29389.8
29394.9
29399.8
29404.3
29408.6
29412.6
29416.3
29419.7
29422.8
29425.7
29428.3
29430.6
29432.7
29434.5
29436.2
29437.6
29438.8
29439.8
29440.6
29441.3
29441.8
29442.2
29442.5
29442.7
29442.7
29442.7
29442.7
29442.6
29442.4
29442.2
29442
29441.8
29441.6
29441.4
29441.3
29441.1
29441
29441
29441
29441
29441.1
29441.2
29441.4
29441.6
29441.9
29442.2
29442.5
29442.9
29443.3
29443.7
29444.1
29444.5
29444.9
29445.3
29445.7
29446
29446.3
29446.6
29446.8
29446.9
29447
29447
29447
29446.8
29446.6
29446.4
29446
29445.6
29445.2
29444.6
29444.1
29443.4
29442.7
29442
29441.3
29440.5
29439.8
29439
29438.2
29437.5
29436.7
29436
29435.3
29434.6
29434
29433.4
29432.8
29432.3
29431.8
29431.4
29431
29430.6
29430.2
29429.9
29429.6
29429.2
29428.9
29428.6
29428.2
29427.7
29427.2
29426.6
29425.9
29425.2
29424.2
29423.2
29421.9
29420.5
29418.9
29417.1
29415.1
29412.8
29410.3
29407.5
29404.4
29401.1
29397.5
29393.6
29389.4
29384.9
29380.1
29375
29369.7
29364.1
29358.3
29352.2
29345.9
29339.5
29332.8
29326
29319.1
29312.2
29305.2
29298.1
29291.2
29284.3
29277.5
29270.9
29264.5
29258.4
29252.6
29247.2
29242.3
29237.8
29233.9
29230.6
29227.9
29226
29224.8
29224.5
29225
29226.4
29228.8
29232.2
29236.6
29242
29248.5
29256.2
29264.9
29274.7
29285.6
29297.6
29310.6
29324.7
29339.8
29355.8
29372.7
29390.4
29409
29428.2
29448
29468.3
29489.1
29510.3
29531.6
29553.2
29574.8
29596.3
29617.7
29638.7
29659.4
29679.6
29699.1
29718
29736
29753.2
29769.3
29784.4
29798.2
29810.8
29822.1
29832
29840.3
29847.1
29852.3
29855.9
29857.7
29857.7
29856
29852.5
29847.1
29839.9
29830.8
29819.8
29806.9
29792.2
29775.6
29757.2
29737
29715
29691.3
29666
29639
29610.5
29580.6
29549.1
29516.5
29482.7
29447.7
29411.7
29374.9
29337.3
29299.1
29260.4
29221.3
29182
29142.5
29103.1
29063.8
29024.9
28986.4
28948.4
28911.2
28874.8
28839.4
28805.1
28771.9
28740.1
28709.7
28680.9
28653.6
28628.1
28604.3
28582.4
28562.4
28544.3
28528.3
28514.3
28502.5
28492.7
28485.1
28479.7
28476.4
28475.2
28476.2
28479.4
28484.7
28492.1
28501.6
28513.2
28526.8
28542.4
28560
28579.5
28600.8
28624
28648.9
28675.5
28703.7
28733.5
28764.9
28797.7
28831.8
28867.3
28904
28941.8
28980.8
29020.7
29061.6
29103.2
29145.7
29188.8
29232.5
29276.7
29321.3
29366.2
29411.4
29456.7
29502
29547.3
29592.4
29637.2
29681.6
29725.6
29769
29811.7
29853.5
29894.5
29934.5
29973.3
30011
30047.4
30082.3
30115.8
30147.7
30177.9
30206.4
30233.1
30257.8
30280.6
30301.4
30320.1
30336.6
30350.8
30362.8
30372.5
30379.8
30384.6
30387
30386.9
30384.3
30379.1
30371.5
30361.2
30348.5
30333.2
30315.5
30294.9
30272.2
30247.1
30219.7
30190
30158.3
30124.4
30088.7
30051.1
30011.8
29971
29928.7
29885.2
29840.6
29795.1
29748.8
29701.8
29654.5
29606.8
29559.1
29511.4
29463.9
29416.9
29370.3
29324.5
29279.5
29235.5
29192.5
29150.8
29110.4
29071.5
29034.1
28998.3
28964.3
28932.1
28901.7
28873.3
28846.9
28822.6
28800.4
28780.4
28762.6
28747
28733.7
28722.6
28713.9
28707.6
28703.5
28701.8
28702.4
28705.4
28710.7
28718.3
28728.2
28740.4
28754.9
28771.6
28790.5
28811.6
28834.9
28860.3
28887.7
28917.2
28948.7
28982.2
29017.6
29054.8
29093.8
29134.7
29177.2
29221.4
29267.2
29314.6
29363.4
29413.8
29465.5
29518.5
29572.9
29628.4
29685.1
29742.9
29801.8
29861.7
29922.4
29984.1
30046.5
30109.7
30173.6
30238
30303.1
30368.6
30434.6
30501
30567.6
30634.6
30701.7
30768.9
30836.2
30903.5
30970.8
31037.9
31104.8
31171.5
31238
31304
31369.6
31434.8
31499.4
31563.4
31626.8
31689.4
31751.3
31812.4
31872.5
31931.8
31990
32047.2
32103.3
32158.3
32212
32264.5
32315.7
32365.6
32414
32461
32506.5
32550.5
32592.9
32633.7
32672.9
32710.3
32746
32780
32812.1
32842.5
32870.9
32897.5
32922.1
32944.8
32965.5
32984.2
33000.9
33015.5
33028.1
33038.7
33047.1
33053.4
33057.7
33059.8
33082.1
33081.6
33080.5
33079
33076.9
33074.3
33071.1
33067.5
33063.3
33058.6
33053.3
33047.5
33041.2
33034.4
33027
33019.2
33010.8
33001.8
32992.4
32982.4
32971.9
32960.9
32949.4
32937.4
32924.8
32911.8
32898.2
32884.1
32869.5
32854.4
32838.8
32822.7
32806.1
32789.1
32771.5
32753.4
32734.9
32715.9
32696.4
32676.4
32656
32635.1
32613.7
32591.9
32569.6
32546.9
32523.7
32500.1
32476.1
32451.6
32426.7
32401.4
32375.7
32349.5
32323
32296
32268.7
32241
32212.8
32184.4
32155.5
32126.3
32096.7
32066.8
32036.5
32005.9
31975
31943.8
31912.2
31880.3
31848.1
31815.6
31782.9
31749.8
31716.5
31682.9
31649.1
31615
31580.7
31546.1
31511.3
31476.3
31441.1
31405.7
31370.1
31334.3
31298.4
31262.3
31226
31189.6
31153
31116.3
31079.5
31042.6
31005.6
30968.4
30931.2
30894
30856.6
30819.3
30781.8
30744.4
30706.9
30669.4
30631.9
30594.4
30556.9
30519.5
30482.1
30444.7
30407.4
30370.2
30333
30296
30259
30222.2
30185.4
30148.9
30112.4
30076.1
30040
30004.1
29968.4
29932.8
29897.5
29862.4
29827.6
29793
29758.6
29724.5
29690.8
29657.3
29624.1
29591.2
29558.7
29526.5
29494.7
29463.2
29432.2
29401.5
29371.2
29341.4
29312
29283
29254.5
29226.5
29198.9
29171.8
29145.3
29119.2
29093.7
29068.7
29044.3
29020.5
28997.2
28974.6
28952.5
28931.1
28910.3
28890.2
28870.7
28851.9
28833.7
28816.3
28799.5
28783.5
28768.2
28753.7
28739.9
28726.9
28714.6
28703.2
28692.5
28682.6
28673.6
28665.4
28658
28651.5
28645.8
28641
28637.1
28634
28631.8
28630.5
28630.2
28630.7
28632.1
28634.4
28637.7
28641.8
28646.9
28652.9
28659.9
28667.7
28676.5
28686.1
28696.7
28708.2
28720.6
28733.9
28748
28763.1
28779
28795.8
28813.5
28832
28851.3
28871.4
28892.3
28913.9
28936.3
28959.5
28983.3
29007.8
29033
29058.8
29085.2
29112.2
29139.7
29167.7
29196.2
29225.2
29254.5
29284.2
29314.3
29344.6
29375.1
29405.9
29436.8
29467.9
29499
29530.1
29561.2
29592.3
29623.2
29654
29684.6
29715
29745
29774.7
29804
29832.8
29861.2
29889
29916.2
29942.9
29968.8
29994.1
30018.6
30042.3
30065.1
30087.2
30108.3
30128.5
30147.8
30166
30183.3
30199.5
30214.7
30228.8
30241.8
30253.7
30264.5
30274.1
30282.6
30290
30296.1
30301.2
30305.1
30307.8
30309.4
30309.8
30309.1
30307.3
30304.4
30300.4
30295.3
30289.1
30281.9
30273.6
30264.3
30254
30242.7
30230.5
30217.3
30203.2
30188.2
30172.3
30155.5
30137.9
30119.6
30100.4
30080.5
30059.8
30038.4
30016.3
29993.5
29970.2
29946.2
29921.6
29896.4
29870.7
29844.5
29817.8
29790.7
29763.2
29735.2
29706.9
29678.2
29649.2
29620
29590.5
29560.7
29530.8
29500.8
29470.6
29440.3
29409.9
29379.5
29349
29318.6
29288.3
29258
29227.8
29197.8
29167.9
29138.3
29108.9
29079.7
29050.8
29022.3
28994
28966.2
28938.8
28911.8
28885.4
28859.4
28834
28809.2
28785
28761.4
28738.5
28716.3
28694.8
28674.2
28654.3
28635.3
28617.1
28599.9
28583.6
28568.3
28554
28540.7
28528.5
28517.4
28507.4
28498.5
28490.8
28484.3
28479
28474.9
28472.1
28470.5
28470.2
28471.2
28473.5
28477.1
28482
28488.2
28495.7
28504.5
28514.6
28525.9
28538.5
28552.3
28567.4
28583.6
28601
28619.5
28639.1
28659.8
28681.5
28704.2
28727.8
28752.3
28777.6
28803.7
28830.6
28858.1
28886.2
28914.8
28944
28973.6
29003.5
29033.8
29064.3
29094.9
29125.7
29156.5
29187.3
29218
29248.6
29279
29309
29338.8
29368.1
29397
29425.4
29453.2
29480.4
29506.9
29532.7
29557.8
29582.2
29605.6
29628.1
29649.6
29670.1
29689.7
29708.2
29725.6
29741.9
29757.1
29771.2
29784.1
29795.9
29806.4
29815.7
29823.9
29830.8
29836.5
29841
29844.3
29846.4
29847.3
29847
29845.5
29842.9
29839.1
29834.2
29828.3
29821.3
29813.3
29804.2
29794.3
29783.4
29771.6
29759
29745.6
29731.4
29716.6
29701.1
29685
29668.4
29651.3
29633.8
29615.9
29597.7
29579.3
29560.6
29541.9
29523
29504.2
29485.5
29466.9
29448.4
29430.2
29412.4
29394.8
29377.7
29361.1
29345
29329.5
29314.6
29300.4
29286.9
29274.1
29262.2
29251
29240.7
29231.3
29222.7
29215
29208.3
29202.4
29197.4
29193.4
29190.2
29188
29186.5
29186
29186.2
29187.2
29189
29191.5
29194.6
29198.4
29202.8
29207.7
29213.1
29219
29225.3
29232
29239
29246.2
29253.7
29261.3
29269.1
29277
29285
29292.9
29300.9
29308.8
29316.6
29324.2
29331.8
29339.2
29346.4
29353.4
29360.1
29366.6
29372.9
29378.9
29384.6
29390.1
29395.2
29400.1
29404.6
29408.9
29412.9
29416.6
29420
29423.1
29425.9
29428.5
29430.8
29432.9
29434.8
29436.4
29437.8
29439
29440
29440.8
29441.4
29442
29442.3
29442.6
29442.8
29442.8
29442.8
29442.7
29442.6
29442.4
29442.2
29442
29441.8
29441.6
29441.4
29441.2
29441.1
29441
29440.9
29440.9
29441
29441
29441.2
29441.3
29441.6
29441.8
29442.2
29442.5
29442.9
29443.3
29443.7
29444.1
29444.5
29444.9
29445.3
29445.7
29446.1
29446.4
29446.6
29446.8
29447
29447.1
29447.1
29447
29446.9
29446.7
29446.4
29446.1
29445.7
29445.2
29444.7
29444.1
29443.5
29442.8
29442.1
29441.3
29440.6
29439.8
29439
29438.2
29437.4
29436.7
29436
29435.2
29434.6
29433.9
29433.3
29432.8
29432.2
29431.8
29431.3
29430.9
29430.6
29430.2
29429.9
29429.6
29429.3
29428.9
29428.6
29428.2
29427.8
29427.3
29426.7
29426
29425.3
29424.4
29423.3
29422.1
29420.7
29419.1
29417.3
29415.3
29413
29410.5
29407.7
29404.7
29401.3
29397.7
29393.8
29389.6
29385.1
29380.3
29375.3
29369.9
29364.3
29358.5
29352.4
29346.1
29339.6
29332.9
29326.1
29319.2
29312.2
29305.1
29298.1
29291.1
29284.1
29277.3
29270.7
29264.3
29258.1
29252.3
29246.9
29241.9
29237.3
29233.4
29230
29227.3
29225.4
29224.1
29223.8
29224.2
29225.6
29228
29231.3
29235.7
29241.1
29247.6
29255.3
29264
29273.8
29284.7
29296.7
29309.8
29323.9
29339
29355.1
29372
29389.8
29408.4
29427.7
29447.5
29468
29488.8
29510
29531.5
29553.1
29574.8
29596.4
29617.8
29639
29659.7
29680
29699.6
29718.6
29736.7
29753.9
29770.1
29785.3
29799.2
29811.9
29823.2
29833.1
29841.5
29848.4
29853.6
29857.2
29859
29859.1
29857.4
29853.9
29848.5
29841.3
29832.2
29821.2
29808.3
29793.6
29777
29758.5
29738.3
29716.3
29692.5
29667.1
29640.1
29611.5
29581.5
29550
29517.3
29483.3
29448.3
29412.2
29375.3
29337.6
29299.3
29260.5
29221.3
29181.9
29142.3
29102.8
29063.4
29024.4
28985.8
28947.8
28910.5
28874
28838.5
28804.1
28770.9
28739
28708.5
28679.6
28652.3
28626.7
28602.9
28580.9
28560.9
28542.8
28526.8
28512.8
28500.9
28491.2
28483.6
28478.1
28474.8
28473.7
28474.7
28477.9
28483.2
28490.6
28500.2
28511.8
28525.4
28541.1
28558.7
28578.2
28599.5
28622.7
28647.7
28674.3
28702.6
28732.5
28763.8
28796.7
28830.9
28866.4
28903.1
28941
28980
29020
29060.9
29102.7
29145.2
29188.3
29232.1
29276.3
29321
29366
29411.2
29456.6
29502
29547.3
29592.5
29637.4
29681.9
29725.9
29769.4
29812.1
29854.1
29895.1
29935.2
29974.1
30011.8
30048.3
30083.3
30116.8
30148.8
30179
30207.6
30234.3
30259.1
30282
30302.8
30321.5
30338
30352.3
30364.4
30374
30381.3
30386.2
30388.6
30388.5
30385.9
30380.8
30373.1
30362.8
30350.1
30334.7
30316.9
30296.5
30273.6
30248.5
30221
30191.3
30159.4
30125.5
30089.6
30051.9
30012.6
29971.6
29929.3
29885.7
29841
29795.3
29748.9
29701.8
29654.4
29606.6
29558.8
29511
29463.4
29416.3
29369.7
29323.7
29278.7
29234.6
29191.6
29149.8
29109.3
29070.3
29032.9
28997.1
28963
28930.8
28900.4
28872
28845.6
28821.2
28799
28779
28761.1
28745.5
28732.2
28721.2
28712.5
28706.1
28702.1
28700.3
28701
28704
28709.3
28716.9
28726.8
28739
28753.5
28770.3
28789.2
28810.4
28833.7
28859.1
28886.5
28916.1
28947.6
28981.1
29016.5
29053.7
29092.8
29133.7
29176.2
29220.4
29266.3
29313.7
29362.6
29412.9
29464.7
29517.8
29572.1
29627.7
29684.5
29742.3
29801.2
29861.1
29921.9
29983.6
30046.1
30109.3
30173.2
30237.7
30302.8
30368.4
30434.4
30500.8
30567.5
30634.4
30701.6
30768.8
30836.2
30903.5
30970.8
31037.9
31104.9
31171.7
31238.1
31304.2
31369.9
31435
31499.7
31563.7
31627.1
31689.8
31751.7
31812.8
31873
31932.3
31990.5
32047.8
32103.9
32158.9
32212.7
32265.2
32316.4
32366.3
32414.7
32461.8
32507.3
32551.3
32593.8
32634.6
32673.7
32711.2
32746.9
32780.9
32813.1
32843.4
32871.8
32898.4
32923.1
32945.7
32966.5
32985.2
33001.9
33016.5
33029.1
33039.7
33048.1
33054.4
33058.7
33060.8
33084.1
33083.6
33082.5
33081
33078.9
33076.3
33073.1
33069.5
33065.3
33060.5
33055.3
33049.5
33043.2
33036.4
33029
33021.1
33012.7
33003.8
32994.3
32984.4
32973.9
32962.8
32951.3
32939.3
32926.7
32913.6
32900
32885.9
32871.3
32856.2
32840.6
32824.5
32807.9
32790.8
32773.2
32755.2
32736.6
32717.6
32698
32678.1
32657.6
32636.7
32615.3
32593.5
32571.2
32548.4
32525.2
32501.6
32477.5
32453
32428.1
32402.8
32377
32350.8
32324.3
32297.3
32269.9
32242.2
32214.1
32185.5
32156.7
32127.4
32097.8
32067.9
32037.6
32007
31976
31944.7
31913.1
31881.2
31849
31816.5
31783.7
31750.6
31717.3
31683.7
31649.8
31615.7
31581.3
31546.7
31511.9
31476.9
31441.7
31406.2
31370.6
31334.8
31298.8
31262.6
31226.3
31189.9
31153.3
31116.5
31079.7
31042.7
31005.7
30968.5
30931.3
30894
30856.6
30819.2
30781.7
30744.3
30706.7
30669.2
30631.7
30594.1
30556.6
30519.1
30481.7
30444.3
30407
30369.7
30332.5
30295.4
30258.4
30221.5
30184.8
30148.2
30111.7
30075.4
30039.2
30003.3
29967.5
29931.9
29896.6
29861.4
29826.5
29791.9
29757.5
29723.4
29689.6
29656.1
29622.8
29589.9
29557.4
29525.2
29493.3
29461.8
29430.7
29400
29369.7
29339.8
29310.4
29281.4
29252.8
29224.7
29197.1
29170
29143.4
29117.3
29091.8
29066.8
29042.3
29018.5
28995.2
28972.5
28950.4
28928.9
28908.1
28887.9
28868.4
28849.6
28831.4
28813.9
28797.1
28781.1
28765.8
28751.2
28737.3
28724.3
28712
28700.5
28689.8
28679.9
28670.9
28662.6
28655.2
28648.7
28643
28638.2
28634.2
28631.1
28628.9
28627.6
28627.2
28627.7
28629.1
28631.4
28634.7
28638.8
28643.9
28649.9
28656.8
28664.7
28673.4
28683.1
28693.7
28705.2
28717.6
28730.9
28745.1
28760.2
28776.1
28793
28810.6
28829.2
28848.5
28868.6
28889.6
28911.3
28933.8
28957
28980.9
29005.5
29030.7
29056.6
29083.1
29110.2
29137.8
29165.9
29194.5
29223.5
29253
29282.8
29312.9
29343.4
29374.1
29404.9
29436
29467.2
29498.4
29529.7
29561
29592.2
29623.3
29654.2
29685
29715.5
29745.6
29775.5
29804.9
29833.9
29862.4
29890.3
29917.7
29944.5
29970.6
29996
30020.6
30044.4
30067.4
30089.5
30110.8
30131.1
30150.5
30168.8
30186.2
30202.5
30217.7
30231.8
30244.9
30256.8
30267.7
30277.3
30285.9
30293.2
30299.4
30304.4
30308.3
30311
30312.6
30313.1
30312.4
30310.5
30307.6
30303.5
30298.3
30292.1
30284.8
30276.5
30267.1
30256.8
30245.4
30233.1
30219.8
30205.6
30190.6
30174.6
30157.8
30140.1
30121.7
30102.4
30082.4
30061.7
30040.2
30018
29995.2
29971.7
29947.6
29922.9
29897.7
29872
29845.7
29818.9
29791.7
29764
29736
29707.6
29678.9
29649.8
29620.5
29590.9
29561.1
29531.1
29500.9
29470.6
29440.3
29409.8
29379.3
29348.8
29318.3
29287.8
29257.5
29227.2
29197.1
29167.2
29137.5
29108
29078.7
29049.8
29021.1
28992.8
28964.9
28937.5
28910.4
28883.9
28857.8
28832.4
28807.5
28783.2
28759.5
28736.5
28714.3
28692.7
28672
28652
28632.9
28614.7
28597.4
28581.1
28565.7
28551.3
28538
28525.7
28514.5
28504.5
28495.5
28487.8
28481.2
28475.8
28471.7
28468.9
28467.3
28467
28468
28470.3
28473.9
28478.7
28485
28492.5
28501.3
28511.4
28522.8
28535.4
28549.3
28564.4
28580.7
28598.1
28616.7
28636.5
28657.2
28679
28701.8
28725.5
28750.1
28775.6
28801.8
28828.8
28856.4
28884.6
28913.5
28942.8
28972.5
29002.6
29033
29063.6
29094.5
29125.4
29156.4
29187.3
29218.2
29248.9
29279.4
29309.6
29339.5
29369
29398
29426.5
29454.5
29481.8
29508.5
29534.4
29559.6
29584
29607.5
29630.1
29651.7
29672.4
29692
29710.6
29728.1
29744.5
29759.7
29773.9
29786.8
29798.6
29809.2
29818.5
29826.7
29833.6
29839.3
29843.8
29847
29849.1
29849.9
29849.6
29848.1
29845.4
29841.6
29836.7
29830.6
29823.6
29815.4
29806.3
29796.3
29785.3
29773.4
29760.7
29747.2
29732.9
29717.9
29702.3
29686.1
29669.4
29652.1
29634.5
29616.5
29598.1
29579.5
29560.8
29541.9
29522.9
29504
29485.1
29466.3
29447.8
29429.5
29411.5
29393.8
29376.6
29359.9
29343.7
29328.1
29313.1
29298.8
29285.3
29272.4
29260.4
29249.2
29238.9
29229.4
29220.8
29213.1
29206.3
29200.5
29195.5
29191.5
29188.4
29186.1
29184.8
29184.2
29184.5
29185.6
29187.5
29190
29193.3
29197.1
29201.6
29206.6
29212.2
29218.2
29224.6
29231.3
29238.4
29245.7
29253.3
29261.1
29268.9
29276.9
29284.9
29293
29301
29308.9
29316.8
29324.5
29332.1
29339.6
29346.8
29353.8
29360.6
29367.2
29373.4
29379.5
29385.2
29390.6
29395.8
29400.7
29405.2
29409.5
29413.5
29417.1
29420.5
29423.6
29426.5
29429
29431.3
29433.4
29435.2
29436.8
29438.2
29439.3
29440.3
29441.1
29441.7
29442.2
29442.6
29442.8
29442.9
29443
29442.9
29442.8
29442.7
29442.5
29442.3
29442
29441.8
29441.6
29441.4
29441.2
29441
29440.9
29440.9
29440.8
29440.9
29440.9
29441.1
29441.3
29441.5
29441.8
29442.1
29442.4
29442.8
29443.2
29443.7
29444.1
29444.5
29445
29445.4
29445.8
29446.1
29446.5
29446.7
29446.9
29447.1
29447.2
29447.2
29447.2
29447
29446.8
29446.6
29446.2
29445.8
29445.3
29444.8
29444.2
29443.5
29442.8
29442.1
29441.4
29440.6
29439.8
29439
29438.2
29437.4
29436.7
29435.9
29435.2
29434.5
29433.9
29433.2
29432.7
29432.2
29431.7
29431.3
29430.9
29430.5
29430.2
29429.9
29429.6
29429.3
29429
29428.6
29428.3
29427.9
29427.4
29426.9
29426.2
29425.5
29424.6
29423.6
29422.4
29421
29419.5
29417.7
29415.7
29413.4
29411
29408.2
29405.1
29401.8
29398.2
29394.3
29390.1
29385.6
29380.8
29375.7
29370.4
29364.7
29358.9
29352.7
29346.4
29339.9
29333.1
29326.3
29319.3
29312.2
29305.1
29298
29290.9
29283.9
29277
29270.3
29263.8
29257.6
29251.7
29246.1
29241
29236.4
29232.4
29228.9
29226.1
29224.1
29222.8
29222.3
29222.7
29224.1
29226.4
29229.7
29234
29239.4
29245.9
29253.5
29262.2
29272.1
29283
29295
29308.2
29322.3
29337.5
29353.6
29370.7
29388.6
29407.2
29426.6
29446.7
29467.2
29488.2
29509.6
29531.2
29553
29574.8
29596.6
29618.2
29639.5
29660.5
29680.9
29700.7
29719.8
29738.1
29755.4
29771.8
29787.1
29801.1
29813.9
29825.4
29835.4
29843.9
29850.8
29856.1
29859.8
29861.7
29861.9
29860.2
29856.7
29851.4
29844.1
29835
29824
29811.1
29796.3
29779.6
29761.1
29740.8
29718.7
29694.9
29669.3
29642.2
29613.5
29583.3
29551.7
29518.8
29484.7
29449.5
29413.2
29376.1
29338.3
29299.8
29260.7
29221.3
29181.7
29141.9
29102.2
29062.7
29023.4
28984.6
28946.4
28908.9
28872.3
28836.6
28802.1
28768.7
28736.7
28706.1
28677.1
28649.7
28624
28600.1
28578.1
28558
28539.9
28523.8
28509.8
28497.9
28488.1
28480.5
28475
28471.7
28470.6
28471.7
28474.9
28480.2
28487.7
28497.3
28508.9
28522.6
28538.3
28556
28575.5
28597
28620.2
28645.3
28672
28700.3
28730.3
28761.8
28794.7
28829
28864.6
28901.4
28939.4
28978.5
29018.6
29059.6
29101.5
29144.1
29187.4
29231.2
29275.6
29320.4
29365.5
29410.9
29456.3
29501.9
29547.3
29592.7
29637.7
29682.4
29726.5
29770.1
29813
29855.2
29896.3
29936.5
29975.6
30013.5
30050
30085.2
30118.8
30150.9
30181.3
30209.9
30236.8
30261.7
30284.6
30305.5
30324.3
30340.9
30355.3
30367.4
30377.1
30384.5
30389.4
30391.8
30391.7
30389.1
30384
30376.3
30366
30353.2
30337.8
30319.9
30299.4
30276.5
30251.2
30223.6
30193.7
30161.7
30127.6
30091.6
30053.7
30014.1
29973
29930.4
29886.6
29841.6
29795.7
29749.1
29701.8
29654.1
29606.2
29558.1
29510.1
29462.4
29415.1
29368.3
29322.2
29277
29232.7
29189.6
29147.7
29107.2
29068.1
29030.5
28994.6
28960.5
28928.1
28897.7
28869.2
28842.8
28818.4
28796.2
28776.1
28758.3
28742.6
28729.3
28718.3
28709.6
28703.2
28699.2
28697.5
28698.1
28701.1
28706.5
28714.1
28724.1
28736.3
28750.9
28767.7
28786.7
28807.8
28831.2
28856.6
28884.2
28913.8
28945.3
28978.9
29014.3
29051.7
29090.8
29131.7
29174.3
29218.6
29264.5
29312
29360.9
29411.3
29463.2
29516.3
29570.7
29626.4
29683.2
29741.1
29800.1
29860
29920.9
29982.7
30045.2
30108.5
30172.4
30237
30302.2
30367.8
30433.9
30500.4
30567.1
30634.1
30701.4
30768.7
30836.1
30903.5
30970.8
31038.1
31105.1
31171.9
31238.4
31304.6
31370.3
31435.5
31500.2
31564.4
31627.8
31690.5
31752.5
31813.7
31873.9
31933.2
31991.6
32048.8
32105
32160.1
32213.9
32266.5
32317.7
32367.6
32416.2
32463.2
32508.8
32552.9
32595.4
32636.2
32675.4
32712.9
32748.7
32782.7
32814.9
32845.2
32873.7
32900.3
32925
32947.7
32968.4
32987.2
33003.9
33018.6
33031.2
33041.7
33050.2
33056.5
33060.8
33062.9
33087.2
33086.7
33085.6
33084.1
33082
33079.3
33076.2
33072.5
33068.3
33063.6
33058.3
33052.5
33046.2
33039.4
33032
33024.1
33015.7
33006.7
32997.3
32987.3
32976.8
32965.7
32954.2
32942.1
32929.5
32916.4
32902.8
32888.7
32874.1
32859
32843.3
32827.2
32810.6
32793.4
32775.8
32757.7
32739.2
32720.1
32700.6
32680.5
32660.1
32639.1
32617.7
32595.8
32573.5
32550.7
32527.5
32503.8
32479.7
32455.2
32430.2
32404.9
32379.1
32352.9
32326.3
32299.3
32271.8
32244.1
32215.9
32187.3
32158.4
32129.1
32099.5
32069.5
32039.2
32008.5
31977.5
31946.2
31914.5
31882.6
31850.3
31817.8
31784.9
31751.8
31718.4
31684.8
31650.9
31616.7
31582.3
31547.7
31512.8
31477.7
31442.4
31406.9
31371.3
31335.4
31299.4
31263.2
31226.8
31190.3
31153.6
31116.9
31080
31043
31005.9
30968.7
30931.4
30894
30856.6
30819.1
30781.6
30744.1
30706.5
30668.9
30631.3
30593.7
30556.2
30518.6
30481.1
30443.7
30406.3
30369
30331.7
30294.6
30257.5
30220.6
30183.8
30147.1
30110.6
30074.2
30038
30002
29966.2
29930.5
29895.1
29859.9
29825
29790.3
29755.9
29721.7
29687.8
29654.2
29621
29588
29555.4
29523.1
29491.2
29459.7
29428.5
29397.7
29367.4
29337.4
29307.9
29278.9
29250.3
29222.1
29194.5
29167.3
29140.7
29114.5
29088.9
29063.9
29039.4
29015.4
28992.1
28969.3
28947.2
28925.7
28904.8
28884.6
28865
28846.1
28827.8
28810.3
28793.5
28777.4
28762
28747.4
28733.5
28720.4
28708.1
28696.5
28685.8
28675.9
28666.8
28658.5
28651
28644.5
28638.7
28633.8
28629.8
28626.7
28624.5
28623.2
28622.7
28623.2
28624.6
28626.9
28630.1
28634.3
28639.3
28645.3
28652.2
28660.1
28668.9
28678.5
28689.1
28700.7
28713.1
28726.4
28740.7
28755.8
28771.8
28788.6
28806.4
28824.9
28844.3
28864.6
28885.6
28907.4
28929.9
28953.2
28977.2
29001.9
29027.3
29053.3
29079.9
29107.1
29134.8
29163.1
29191.8
29221
29250.6
29280.6
29310.9
29341.6
29372.4
29403.5
29434.8
29466.2
29497.6
29529.1
29560.6
29592
29623.4
29654.5
29685.5
29716.2
29746.6
29776.6
29806.3
29835.5
29864.2
29892.4
29920
29946.9
29973.2
29998.8
30023.6
30047.6
30070.8
30093.1
30114.5
30135
30154.5
30173
30190.4
30206.9
30222.2
30236.4
30249.6
30261.6
30272.5
30282.2
30290.7
30298.1
30304.3
30309.4
30313.3
30316
30317.5
30317.9
30317.2
30315.3
30312.2
30308.1
30302.9
30296.6
30289.2
30280.8
30271.3
30260.9
30249.4
30237
30223.6
30209.4
30194.2
30178.1
30161.2
30143.4
30124.8
30105.4
30085.3
30064.5
30042.9
30020.6
29997.7
29974
29949.8
29925
29899.7
29873.8
29847.4
29820.5
29793.2
29765.4
29737.2
29708.7
29679.8
29650.6
29621.2
29591.4
29561.5
29531.4
29501.1
29470.7
29440.2
29409.6
29379
29348.4
29317.8
29287.2
29256.7
29226.4
29196.1
29166.1
29136.2
29106.6
29077.3
29048.2
29019.4
28991
28963
28935.4
28908.3
28881.6
28855.5
28829.9
28804.8
28780.4
28756.7
28733.6
28711.2
28689.5
28668.7
28648.6
28629.4
28611.1
28593.7
28577.2
28561.8
28547.3
28533.8
28521.5
28510.2
28500
28491
28483.2
28476.6
28471.2
28467
28464.1
28462.5
28462.1
28463.1
28465.4
28469
28473.9
28480.1
28487.6
28496.5
28506.6
28518
28530.7
28544.7
28559.9
28576.3
28593.9
28612.6
28632.4
28653.3
28675.3
28698.2
28722.1
28746.9
28772.5
28798.9
28826.1
28853.9
28882.4
28911.4
28940.9
28970.8
29001.2
29031.8
29062.7
29093.7
29124.9
29156.1
29187.2
29218.3
29249.3
29280
29310.4
29340.5
29370.2
29399.5
29428.2
29456.4
29483.9
29510.8
29536.9
29562.2
29586.8
29610.4
29633.2
29655
29675.7
29695.5
29714.2
29731.8
29748.3
29763.6
29777.8
29790.8
29802.7
29813.3
29822.7
29830.8
29837.8
29843.5
29847.9
29851.2
29853.2
29854
29853.6
29852
29849.3
29845.4
29840.3
29834.2
29827
29818.8
29809.5
29799.3
29788.2
29776.1
29763.2
29749.5
29735.1
29720
29704.2
29687.8
29670.8
29653.4
29635.5
29617.3
29598.8
29580
29561
29541.9
29522.7
29503.6
29484.5
29465.6
29446.8
29428.3
29410.1
29392.3
29375
29358.1
29341.7
29326
29310.9
29296.4
29282.8
29269.8
29257.7
29246.4
29236
29226.5
29217.9
29210.2
29203.4
29197.6
29192.6
29188.7
29185.6
29183.4
29182.1
29181.7
29182.1
29183.3
29185.2
29187.9
29191.3
29195.3
29199.9
29205.1
29210.7
29216.9
29223.4
29230.3
29237.5
29245
29252.7
29260.6
29268.6
29276.7
29284.9
29293
29301.1
29309.2
29317.1
29325
29332.6
29340.1
29347.4
29354.5
29361.3
29367.9
29374.3
29380.3
29386.1
29391.5
29396.7
29401.5
29406.1
29410.4
29414.3
29418
29421.4
29424.5
29427.3
29429.8
29432.1
29434.1
29435.9
29437.4
29438.8
29439.9
29440.8
29441.6
29442.2
29442.6
29442.9
29443.1
29443.2
29443.2
29443.1
29443
29442.8
29442.5
29442.3
29442
29441.8
29441.5
29441.3
29441.1
29440.9
29440.8
29440.7
29440.7
29440.7
29440.8
29440.9
29441.1
29441.4
29441.7
29442
29442.4
29442.8
29443.2
29443.6
29444.1
29444.6
29445
29445.5
29445.9
29446.2
29446.6
29446.9
29447.1
29447.3
29447.4
29447.4
29447.3
29447.2
29447
29446.7
29446.4
29446
29445.5
29444.9
29444.3
29443.6
29442.9
29442.2
29441.4
29440.6
29439.8
29439
29438.2
29437.4
29436.6
29435.8
29435.1
29434.4
29433.8
29433.2
29432.6
29432.1
29431.6
29431.2
29430.8
29430.4
29430.1
29429.8
29429.6
29429.3
29429
29428.7
29428.4
29428
29427.6
29427.1
29426.5
29425.8
29425
29424
29422.9
29421.5
29420
29418.3
29416.3
29414.1
29411.6
29408.9
29405.9
29402.5
29398.9
29395
29390.8
29386.3
29381.5
29376.4
29371
29365.4
29359.4
29353.3
29346.9
29340.3
29333.5
29326.5
29319.5
29312.3
29305.1
29297.9
29290.7
29283.6
29276.5
29269.7
29263.1
29256.7
29250.7
29245
29239.8
29235
29230.9
29227.3
29224.4
29222.2
29220.8
29220.2
29220.5
29221.7
29223.9
29227.1
29231.4
29236.8
29243.2
29250.8
29259.6
29269.4
29280.4
29292.5
29305.7
29319.9
29335.2
29351.5
29368.7
29386.7
29405.5
29425.1
29445.3
29466.1
29487.3
29508.9
29530.8
29552.8
29574.9
29596.9
29618.8
29640.4
29661.5
29682.2
29702.3
29721.6
29740.1
29757.7
29774.3
29789.8
29804
29817
29828.6
29838.8
29847.5
29854.5
29860
29863.7
29865.8
29866
29864.4
29860.9
29855.6
29848.4
29839.3