/*--------------------------------*- C++ -*----------------------------------*\
| =========                 |                                                 |
| \\      /  F ield         | OpenFOAM: The Open Source CFD Toolbox           |
|  \\    /   O peration     | Version:  2412                                  |
|   \\  /    A nd           | Website:  www.openfoam.com                      |
|    \\/     M anipulation  |                                                 |
\*---------------------------------------------------------------------------*/
FoamFile
{
    version     2.0;
    format      ascii;
    arch        "LSB;label=32;scalar=64";
    class       volVectorField;
    location    "7.25";
    object      U;
}
// * * * * * * * * * * * * * * * * * * * * * * * * * * * * * * * * * * * * * //

dimensions      [0 1 -1 0 0 0 0];

internalField   nonuniform List<vector> 
6400
(
(-2.01378e-07 1.9638e-07 0)
(-1.28467e-05 3.94101e-06 0)
(-3.87104e-05 6.63563e-06 0)
(-7.25845e-05 7.78065e-06 0)
(-0.000109008 7.96998e-06 0)
(-0.000144719 7.63016e-06 0)
(-0.000178016 7.03389e-06 0)
(-0.000208224 6.37509e-06 0)
(-0.000235266 5.73512e-06 0)
(-0.000259365 5.14971e-06 0)
(-0.00028089 4.64097e-06 0)
(-0.000300214 4.19181e-06 0)
(-0.000317636 3.7839e-06 0)
(-0.000333373 3.40568e-06 0)
(-0.000347545 3.02845e-06 0)
(-0.000360148 2.63254e-06 0)
(-0.000371104 2.21383e-06 0)
(-0.000380314 1.7727e-06 0)
(-0.000387676 1.31326e-06 0)
(-0.000393083 8.4209e-07 0)
(-0.000396415 3.55208e-07 0)
(-0.000397553 -1.50553e-07 0)
(-0.000396383 -6.72113e-07 0)
(-0.000392816 -1.2012e-06 0)
(-0.000386789 -1.73039e-06 0)
(-0.000378256 -2.25881e-06 0)
(-0.000367177 -2.78807e-06 0)
(-0.000353517 -3.31845e-06 0)
(-0.000337244 -3.84713e-06 0)
(-0.000318346 -4.37265e-06 0)
(-0.000296831 -4.89065e-06 0)
(-0.000272734 -5.39488e-06 0)
(-0.000246121 -5.87709e-06 0)
(-0.0002171 -6.32826e-06 0)
(-0.000185823 -6.74151e-06 0)
(-0.000152499 -7.10695e-06 0)
(-0.000117395 -7.41817e-06 0)
(-8.08317e-05 -7.66849e-06 0)
(-4.3175e-05 -7.84555e-06 0)
(-4.84285e-06 -7.93457e-06 0)
(3.37159e-05 -7.93544e-06 0)
(7.20472e-05 -7.85245e-06 0)
(0.000109699 -7.68051e-06 0)
(0.000146245 -7.43699e-06 0)
(0.0001813 -7.12607e-06 0)
(0.000214509 -6.7447e-06 0)
(0.000245566 -6.30992e-06 0)
(0.000274234 -5.8321e-06 0)
(0.000300345 -5.32711e-06 0)
(0.000323796 -4.80567e-06 0)
(0.000344523 -4.26547e-06 0)
(0.000362489 -3.71526e-06 0)
(0.000377693 -3.165e-06 0)
(0.000390152 -2.61121e-06 0)
(0.0003999 -2.05758e-06 0)
(0.000406984 -1.50653e-06 0)
(0.000411464 -9.59445e-07 0)
(0.000413414 -4.17738e-07 0)
(0.000412917 1.16246e-07 0)
(0.000410079 6.34297e-07 0)
(0.000405029 1.1318e-06 0)
(0.000397908 1.60658e-06 0)
(0.000388865 2.0557e-06 0)
(0.000378056 2.47639e-06 0)
(0.00036563 2.86821e-06 0)
(0.000351709 3.23645e-06 0)
(0.000336363 3.59597e-06 0)
(0.000319592 3.95726e-06 0)
(0.00030131 4.34019e-06 0)
(0.000281325 4.76617e-06 0)
(0.000259337 5.25281e-06 0)
(0.000234962 5.81099e-06 0)
(0.000207811 6.42966e-06 0)
(0.000177618 7.06769e-06 0)
(0.000144438 7.63423e-06 0)
(0.000108915 7.96641e-06 0)
(7.26714e-05 7.79071e-06 0)
(3.89355e-05 6.66665e-06 0)
(1.31452e-05 3.97062e-06 0)
(3.35957e-07 3.3583e-07 0)
(-3.95756e-06 1.28308e-05 0)
(-4.0619e-05 4.03937e-05 0)
(-0.000102109 5.95452e-05 0)
(-0.000178586 6.85374e-05 0)
(-0.000259641 7.00417e-05 0)
(-0.000338856 6.69982e-05 0)
(-0.000412678 6.16638e-05 0)
(-0.00047958 5.56114e-05 0)
(-0.000539329 4.97026e-05 0)
(-0.000592437 4.43601e-05 0)
(-0.000639754 3.97572e-05 0)
(-0.000682141 3.58027e-05 0)
(-0.000720325 3.23401e-05 0)
(-0.000754867 2.92322e-05 0)
(-0.000786111 2.62544e-05 0)
(-0.000814133 2.31817e-05 0)
(-0.000838786 1.99137e-05 0)
(-0.000859817 1.64311e-05 0)
(-0.000876941 1.27242e-05 0)
(-0.000889864 8.78909e-06 0)
(-0.000898286 4.6201e-06 0)
(-0.000901904 2.28027e-07 0)
(-0.000900428 -4.36388e-06 0)
(-0.000893598 -9.11996e-06 0)
(-0.000881196 -1.39979e-05 0)
(-0.000863047 -1.89701e-05 0)
(-0.000839007 -2.40247e-05 0)
(-0.000808952 -2.91521e-05 0)
(-0.000772783 -3.43266e-05 0)
(-0.000730428 -3.95106e-05 0)
(-0.000681865 -4.46524e-05 0)
(-0.000627137 -4.96949e-05 0)
(-0.000566374 -5.45683e-05 0)
(-0.000499808 -5.91871e-05 0)
(-0.000427798 -6.34502e-05 0)
(-0.000350835 -6.72386e-05 0)
(-0.000269557 -7.04446e-05 0)
(-0.000184739 -7.29727e-05 0)
(-9.72774e-05 -7.47286e-05 0)
(-8.18163e-06 -7.56241e-05 0)
(8.1462e-05 -7.56246e-05 0)
(0.000170538 -7.47357e-05 0)
(0.000257949 -7.29664e-05 0)
(0.000342656 -7.04019e-05 0)
(0.000423715 -6.71101e-05 0)
(0.000500281 -6.31565e-05 0)
(0.000571639 -5.86695e-05 0)
(0.000637219 -5.37746e-05 0)
(0.000696619 -4.86102e-05 0)
(0.000749596 -4.32862e-05 0)
(0.000796028 -3.78613e-05 0)
(0.000835879 -3.24016e-05 0)
(0.000869184 -2.69676e-05 0)
(0.000896034 -2.15892e-05 0)
(0.000916562 -1.62942e-05 0)
(0.000930928 -1.11107e-05 0)
(0.000939327 -6.06703e-06 0)
(0.000941992 -1.18615e-06 0)
(0.000939187 3.50133e-06 0)
(0.000931218 7.9452e-06 0)
(0.000918435 1.2116e-05 0)
(0.000901212 1.59939e-05 0)
(0.000879935 1.95671e-05 0)
(0.00085499 2.28351e-05 0)
(0.000826731 2.58327e-05 0)
(0.000795436 2.86377e-05 0)
(0.000761249 3.13846e-05 0)
(0.000724131 3.42156e-05 0)
(0.000683832 3.73187e-05 0)
(0.000639861 4.09017e-05 0)
(0.000591482 4.51484e-05 0)
(0.000537792 5.01481e-05 0)
(0.000477894 5.57814e-05 0)
(0.000411187 6.16233e-05 0)
(0.00033779 6.67945e-05 0)
(0.000259105 6.98064e-05 0)
(0.000178522 6.83963e-05 0)
(0.000102366 5.95657e-05 0)
(4.09962e-05 4.05828e-05 0)
(4.09632e-06 1.33243e-05 0)
(-6.76757e-06 3.88992e-05 0)
(-6.06584e-05 0.000102028 0)
(-0.000144568 0.000142702 0)
(-0.000245718 0.000161495 0)
(-0.000351305 0.000164143 0)
(-0.000453661 0.000156685 0)
(-0.000548536 0.000144016 0)
(-0.000634119 0.00012962 0)
(-0.000710202 0.000115551 0)
(-0.00077754 0.000102873 0)
(-0.00083733 9.19771e-05 0)
(-0.000890785 8.26894e-05 0)
(-0.00093893 7.46871e-05 0)
(-0.000982572 6.76145e-05 0)
(-0.00102223 6.09579e-05 0)
(-0.00105809 5.41825e-05 0)
(-0.00109 4.69776e-05 0)
(-0.00111763 3.92207e-05 0)
(-0.00114055 3.08692e-05 0)
(-0.00115834 2.19126e-05 0)
(-0.00117053 1.23409e-05 0)
(-0.00117669 2.17075e-06 0)
(-0.00117636 -8.55353e-06 0)
(-0.00116915 -1.97576e-05 0)
(-0.00115468 -3.13476e-05 0)
(-0.00113266 -4.32477e-05 0)
(-0.00110283 -5.54106e-05 0)
(-0.00106497 -6.77987e-05 0)
(-0.0010189 -8.03579e-05 0)
(-0.000964459 -9.30049e-05 0)
(-0.000901567 -0.000105621 0)
(-0.000830219 -0.000118052 0)
(-0.00075054 -0.000130109 0)
(-0.000662808 -0.000141563 0)
(-0.000567483 -0.000152154 0)
(-0.000465224 -0.00016159 0)
(-0.0003569 -0.000169592 0)
(-0.000243586 -0.000175896 0)
(-0.000126549 -0.000180266 0)
(-7.20849e-06 -0.000182497 0)
(0.000112908 -0.000182485 0)
(0.000232222 -0.00018023 0)
(0.000349176 -0.000175786 0)
(0.000462301 -0.000169339 0)
(0.000570261 -0.000161076 0)
(0.000671884 -0.000151208 0)
(0.000766195 -0.000140032 0)
(0.000852432 -0.000127864 0)
(0.000930062 -0.000115042 0)
(0.000998778 -0.000101851 0)
(0.00105846 -8.84849e-05 0)
(0.00110913 -7.5104e-05 0)
(0.0011509 -6.18429e-05 0)
(0.00118394 -4.88015e-05 0)
(0.00120852 -3.60465e-05 0)
(0.00122491 -2.36448e-05 0)
(0.00123346 -1.16679e-05 0)
(0.00123454 -1.82076e-07 0)
(0.00122858 1.07382e-05 0)
(0.00121608 2.09923e-05 0)
(0.00119754 3.05183e-05 0)
(0.00117354 3.92746e-05 0)
(0.00114463 4.72487e-05 0)
(0.00111136 5.44637e-05 0)
(0.00107423 6.10271e-05 0)
(0.0010336 6.71465e-05 0)
(0.000989662 7.31577e-05 0)
(0.000942324 7.94427e-05 0)
(0.000891208 8.64656e-05 0)
(0.000835593 9.47227e-05 0)
(0.000774433 0.000104643 0)
(0.000706451 0.000116411 0)
(0.000630371 0.000129725 0)
(0.000545291 0.00014357 0)
(0.00045122 0.0001559 0)
(0.00034978 0.000163331 0)
(0.000245015 0.000160932 0)
(0.00014444 0.000142529 0)
(6.07744e-05 0.000102326 0)
(6.82603e-06 3.95988e-05 0)
(-8.12386e-06 7.36554e-05 0)
(-7.13779e-05 0.000179994 0)
(-0.0001671 0.000244585 0)
(-0.00028023 0.000273244 0)
(-0.000396583 0.000275918 0)
(-0.000508108 0.000262309 0)
(-0.000610542 0.000240323 0)
(-0.0007022 0.000215616 0)
(-0.000783092 0.00019161 0)
(-0.000854262 0.000170137 0)
(-0.000917219 0.00015182 0)
(-0.000973436 0.000136354 0)
(-0.00102413 0.000123199 0)
(-0.00107024 0.000111737 0)
(-0.00111242 0.000101121 0)
(-0.00115094 9.04438e-05 0)
(-0.00118572 7.90955e-05 0)
(-0.00121639 6.67626e-05 0)
(-0.00124242 5.33296e-05 0)
(-0.00126324 3.8768e-05 0)
(-0.00127828 2.30631e-05 0)
(-0.00128698 6.2422e-06 0)
(-0.00128877 -1.16251e-05 0)
(-0.00128313 -3.04211e-05 0)
(-0.00126959 -4.99939e-05 0)
(-0.00124774 -7.02092e-05 0)
(-0.00121722 -9.09749e-05 0)
(-0.0011777 -0.000112217 0)
(-0.0011289 -0.000133845 0)
(-0.00107059 -0.000155725 0)
(-0.00100259 -0.000177658 0)
(-0.0009248 -0.000199372 0)
(-0.000837287 -0.000220517 0)
(-0.000740295 -0.000240678 0)
(-0.000634294 -0.000259374 0)
(-0.000520013 -0.000276083 0)
(-0.000398455 -0.000290278 0)
(-0.000270896 -0.000301467 0)
(-0.000138848 -0.00030922 0)
(-4.01448e-06 -0.000313182 0)
(0.000131769 -0.000313162 0)
(0.000266601 -0.000309135 0)
(0.000398592 -0.000301215 0)
(0.000525956 -0.000289719 0)
(0.000647076 -0.000275004 0)
(0.000760572 -0.000257504 0)
(0.000865325 -0.000237744 0)
(0.000960484 -0.00021629 0)
(0.00104547 -0.000193734 0)
(0.00112 -0.000170595 0)
(0.00118398 -0.000147255 0)
(0.00123754 -0.000124007 0)
(0.0012809 -0.000101077 0)
(0.00131436 -7.864e-05 0)
(0.0013383 -5.68238e-05 0)
(0.00135311 -3.57424e-05 0)
(0.00135928 -1.55116e-05 0)
(0.0013573 3.74733e-06 0)
(0.00134774 2.1907e-05 0)
(0.00133122 3.88201e-05 0)
(0.00130838 5.4386e-05 0)
(0.00127994 6.85435e-05 0)
(0.00124657 8.12864e-05 0)
(0.00120897 9.26847e-05 0)
(0.0011677 0.000102949 0)
(0.00112321 0.000112465 0)
(0.00107571 0.000121822 0)
(0.0010251 0.000131722 0)
(0.000970907 0.000142991 0)
(0.000912244 0.000156497 0)
(0.000847833 0.000172983 0)
(0.000776108 0.000192766 0)
(0.000695473 0.000215355 0)
(0.000604701 0.000239059 0)
(0.000503529 0.000260485 0)
(0.000393408 0.000274071 0)
(0.000278364 0.000271833 0)
(0.000166232 0.000243882 0)
(7.10763e-05 0.000180178 0)
(8.10217e-06 7.43583e-05 0)
(-8.64262e-06 0.000112097 0)
(-7.53216e-05 0.00026479 0)
(-0.000174955 0.000353503 0)
(-0.000291059 0.000390873 0)
(-0.000408802 0.000392016 0)
(-0.000520206 0.000370765 0)
(-0.00062135 0.000338205 0)
(-0.000710927 0.000302212 0)
(-0.000789272 0.000267594 0)
(-0.000857739 0.000236956 0)
(-0.00091812 0.000211109 0)
(-0.000972089 0.000189542 0)
(-0.00102097 0.00017143 0)
(-0.00106575 0.000155858 0)
(-0.0011071 0.000141648 0)
(-0.00114536 0.000127527 0)
(-0.00118051 0.000112522 0)
(-0.00121214 9.60548e-05 0)
(-0.00123967 7.78855e-05 0)
(-0.00126244 5.79505e-05 0)
(-0.00127976 3.62361e-05 0)
(-0.00129097 1.27857e-05 0)
(-0.00129545 -1.23e-05 0)
(-0.00129259 -3.88612e-05 0)
(-0.00128184 -6.6693e-05 0)
(-0.0012627 -9.56037e-05 0)
(-0.0012347 -0.000125454 0)
(-0.00119745 -0.000156127 0)
(-0.00115057 -0.000187492 0)
(-0.00109374 -0.000219365 0)
(-0.00102666 -0.000251481 0)
(-0.000949133 -0.000283445 0)
(-0.000861091 -0.000314733 0)
(-0.000762683 -0.000344699 0)
(-0.000654324 -0.000372604 0)
(-0.000536743 -0.000397624 0)
(-0.000411012 -0.000418923 0)
(-0.000278533 -0.000435731 0)
(-0.000140987 -0.000447389 0)
(-2.79989e-07 -0.000453365 0)
(0.000141528 -0.000453358 0)
(0.000282294 -0.000447308 0)
(0.000419883 -0.000435385 0)
(0.000552264 -0.000418056 0)
(0.000677615 -0.000395908 0)
(0.000794404 -0.000369659 0)
(0.000901431 -0.000340128 0)
(0.000997826 -0.000308179 0)
(0.00108305 -0.000274703 0)
(0.00115687 -0.000240491 0)
(0.00121934 -0.000206147 0)
(0.00127067 -0.000172122 0)
(0.00131125 -0.000138745 0)
(0.0013415 -0.000106257 0)
(0.00136192 -7.48442e-05 0)
(0.00137302 -4.46657e-05 0)
(0.00137536 -1.58785e-05 0)
(0.00136954 1.13455e-05 0)
(0.00135622 3.68248e-05 0)
(0.00133609 6.03655e-05 0)
(0.00130991 8.18251e-05 0)
(0.00127847 0.000101125 0)
(0.00124256 0.000118274 0)
(0.00120295 0.000133402 0)
(0.00116031 0.000146838 0)
(0.00111514 0.000159173 0)
(0.00106772 0.000171284 0)
(0.00101794 0.00018425 0)
(0.000965284 0.000199314 0)
(0.000908778 0.000217781 0)
(0.000846986 0.000240771 0)
(0.000778129 0.000268788 0)
(0.000700338 0.000301187 0)
(0.000612069 0.000335619 0)
(0.000512703 0.000367331 0)
(0.000403306 0.00038852 0)
(0.000287529 0.000388002 0)
(0.000173041 0.00035174 0)
(7.45267e-05 0.000264373 0)
(8.561e-06 0.000112447 0)
(-8.72691e-06 0.000151271 0)
(-7.51542e-05 0.000350509 0)
(-0.000173458 0.000462333 0)
(-0.000286577 0.000506817 0)
(-0.000399698 0.000504879 0)
(-0.000505251 0.000474821 0)
(-0.000599871 0.000430997 0)
(-0.000682761 0.000383438 0)
(-0.000754626 0.000338255 0)
(-0.000817087 0.000298785 0)
(-0.000872147 0.000265952 0)
(-0.000921627 0.000238947 0)
(-0.000966895 0.000216567 0)
(-0.00100888 0.000197561 0)
(-0.0010482 0.000180437 0)
(-0.00108518 0.000163586 0)
(-0.00111976 0.000145658 0)
(-0.00115156 0.000125778 0)
(-0.00117995 0.000103539 0)
(-0.00120421 7.88157e-05 0)
(-0.00122359 5.15997e-05 0)
(-0.00123735 2.19592e-05 0)
(-0.00124482 -9.96936e-06 0)
(-0.00124533 -4.39871e-05 0)
(-0.00123828 -7.98444e-05 0)
(-0.00122312 -0.000117298 0)
(-0.00119932 -0.000156163 0)
(-0.00116641 -0.000196279 0)
(-0.00112395 -0.000237473 0)
(-0.00107152 -0.000279533 0)
(-0.00100873 -0.000322151 0)
(-0.000935214 -0.000364825 0)
(-0.000850763 -0.000406849 0)
(-0.000755373 -0.000447323 0)
(-0.000649353 -0.000485189 0)
(-0.000533386 -0.000519269 0)
(-0.000408562 -0.000548358 0)
(-0.000276359 -0.000571358 0)
(-0.000138586 -0.000587339 0)
(2.68523e-06 -0.000595564 0)
(0.000145203 -0.000595605 0)
(0.000286626 -0.000587358 0)
(0.000424613 -0.000571045 0)
(0.000556937 -0.0005473 0)
(0.000681603 -0.000516982 0)
(0.000796948 -0.000481149 0)
(0.000901714 -0.000440993 0)
(0.000995055 -0.00039773 0)
(0.00107652 -0.000352605 0)
(0.00114601 -0.000306712 0)
(0.00120373 -0.0002609 0)
(0.00125009 -0.000215782 0)
(0.00128559 -0.000171784 0)
(0.00131081 -0.000129196 0)
(0.00132633 -8.82413e-05 0)
(0.00133275 -4.91064e-05 0)
(0.00133068 -1.19813e-05 0)
(0.00132078 2.29212e-05 0)
(0.00130375 5.53657e-05 0)
(0.00128032 8.51084e-05 0)
(0.00125132 0.000111961 0)
(0.00121758 0.000135823 0)
(0.00117999 0.000156718 0)
(0.00113936 0.000174835 0)
(0.00109648 0.000190626 0)
(0.00105192 0.0002049 0)
(0.00100603 0.000218848 0)
(0.000958754 0.000233952 0)
(0.00090961 0.000251923 0)
(0.000857592 0.000274548 0)
(0.000801201 0.000303386 0)
(0.000738541 0.000339178 0)
(0.000667565 0.000381197 0)
(0.000586457 0.000426512 0)
(0.000494212 0.000469092 0)
(0.000391388 0.000498955 0)
(0.000281037 0.000501679 0)
(0.00017036 0.000458745 0)
(7.39425e-05 0.000348772 0)
(8.63248e-06 0.000150942 0)
(-8.61693e-06 0.000189638 0)
(-7.28068e-05 0.000433746 0)
(-0.000166675 0.000566813 0)
(-0.000273248 0.000616627 0)
(-0.000378317 0.000610272 0)
(-0.000475017 0.000570676 0)
(-0.000560685 0.000515469 0)
(-0.0006351 0.000456684 0)
(-0.000699296 0.000401571 0)
(-0.000755067 0.00035411 0)
(-0.000804509 0.000315265 0)
(-0.000849493 0.000283856 0)
(-0.000891362 0.000258185 0)
(-0.000930932 0.00023662 0)
(-0.000968674 0.000217372 0)
(-0.00100479 0.000198524 0)
(-0.00103917 0.000178384 0)
(-0.00107141 0.000155794 0)
(-0.00110083 0.000130163 0)
(-0.0011267 0.000101285 0)
(-0.0011482 6.91509e-05 0)
(-0.0011646 3.38606e-05 0)
(-0.00117514 -4.41026e-06 0)
(-0.00117915 -4.54232e-05 0)
(-0.00117599 -8.88862e-05 0)
(-0.00116509 -0.000134511 0)
(-0.0011459 -0.000182067 0)
(-0.00111791 -0.00023136 0)
(-0.00108065 -0.000282189 0)
(-0.00103363 -0.000334334 0)
(-0.000976337 -0.000387486 0)
(-0.000908271 -0.000441064 0)
(-0.000829022 -0.00049419 0)
(-0.000738401 -0.000545688 0)
(-0.000636561 -0.000594135 0)
(-0.000524097 -0.000637927 0)
(-0.000402086 -0.000675433 0)
(-0.000272066 -0.000705161 0)
(-0.000135969 -0.000725864 0)
(3.96828e-06 -0.000736569 0)
(0.000145308 -0.000736705 0)
(0.00028551 -0.000726118 0)
(0.000422047 -0.000705092 0)
(0.000552509 -0.000674433 0)
(0.000674728 -0.0006353 0)
(0.000786911 -0.000589147 0)
(0.000887733 -0.000537618 0)
(0.00097639 -0.000482373 0)
(0.00105257 -0.000425067 0)
(0.00111636 -0.000367141 0)
(0.00116819 -0.0003097 0)
(0.00120866 -0.000253502 0)
(0.00123845 -0.000199036 0)
(0.00125822 -0.000146607 0)
(0.00126864 -9.64425e-05 0)
(0.00127035 -4.87337e-05 0)
(0.00126396 -3.69111e-06 0)
(0.00125016 3.84422e-05 0)
(0.00122962 7.73755e-05 0)
(0.00120313 0.000112811 0)
(0.00117149 0.00014451 0)
(0.00113559 0.000172334 0)
(0.00109633 0.00019631 0)
(0.00105462 0.000216674 0)
(0.00101131 0.000233992 0)
(0.000967098 0.000249286 0)
(0.000922444 0.000264064 0)
(0.000877416 0.000280235 0)
(0.000831605 0.000300014 0)
(0.000784072 0.0003257 0)
(0.000733359 0.000359321 0)
(0.000677594 0.000401912 0)
(0.000614675 0.000452757 0)
(0.00054261 0.000508465 0)
(0.000460034 0.000561892 0)
(0.000366925 0.000601032 0)
(0.000265586 0.000608276 0)
(0.00016245 0.00056046 0)
(7.13021e-05 0.000429935 0)
(8.54042e-06 0.000188471 0)
(-8.45162e-06 0.000226483 0)
(-6.94413e-05 0.00051268 0)
(-0.000157194 0.000664558 0)
(-0.000255361 0.000717906 0)
(-0.000350838 0.000706164 0)
(-0.00043773 0.000656848 0)
(-0.000514179 0.000590784 0)
(-0.000580533 0.000521729 0)
(-0.000638057 0.000457852 0)
(-0.000688566 0.000403638 0)
(-0.000734071 0.000360016 0)
(-0.000776337 0.000325409 0)
(-0.000816591 0.000297535 0)
(-0.000855497 0.000274333 0)
(-0.000893333 0.000253714 0)
(-0.000930122 0.000233492 0)
(-0.000965629 0.000211683 0)
(-0.000999359 0.000186885 0)
(-0.00103062 0.000158341 0)
(-0.00105861 0.000125767 0)
(-0.00108256 8.91537e-05 0)
(-0.00110167 4.86285e-05 0)
(-0.00111522 4.40856e-06 0)
(-0.00112249 -4.32228e-05 0)
(-0.00112285 -9.39245e-05 0)
(-0.00111571 -0.000147359 0)
(-0.00110057 -0.000203254 0)
(-0.00107693 -0.00026139 0)
(-0.00104432 -0.000321563 0)
(-0.00100222 -0.000383579 0)
(-0.000950028 -0.000447174 0)
(-0.000887091 -0.000511747 0)
(-0.000812784 -0.000576269 0)
(-0.000726677 -0.000639286 0)
(-0.000628713 -0.000698956 0)
(-0.000519359 -0.00075317 0)
(-0.000399672 -0.000799778 0)
(-0.000271267 -0.000836824 0)
(-0.000136224 -0.00086269 0)
(3.03648e-06 -0.000876133 0)
(0.000143872 -0.000876429 0)
(0.000283531 -0.000863369 0)
(0.000419279 -0.000837311 0)
(0.000548509 -0.000799244 0)
(0.000668865 -0.00075064 0)
(0.000778398 -0.00069341 0)
(0.000875705 -0.000629727 0)
(0.000960024 -0.000561828 0)
(0.00103122 -0.000491858 0)
(0.00108964 -0.000421644 0)
(0.00113597 -0.000352544 0)
(0.00117105 -0.000285431 0)
(0.00119573 -0.000220797 0)
(0.00121075 -0.000158901 0)
(0.0012168 -9.99263e-05 0)
(0.00121449 -4.40423e-05 0)
(0.00120441 8.52977e-06 0)
(0.00118719 5.75144e-05 0)
(0.00116351 0.000102566 0)
(0.0011341 0.00014333 0)
(0.00109977 0.000179503 0)
(0.00106139 0.000210897 0)
(0.00101987 0.000237515 0)
(0.000976179 0.00025961 0)
(0.000931265 0.000277832 0)
(0.000885969 0.000293392 0)
(0.000840903 0.000308108 0)
(0.000796308 0.000324327 0)
(0.000751943 0.00034477 0)
(0.000707036 0.000372274 0)
(0.000660308 0.000409327 0)
(0.000610054 0.000457316 0)
(0.000554279 0.000515631 0)
(0.000490957 0.000580605 0)
(0.000418452 0.000644212 0)
(0.000336168 0.000692667 0)
(0.000245551 0.000705346 0)
(0.000151915 0.000654514 0)
(6.76091e-05 0.000506286 0)
(8.35576e-06 0.000224479 0)
(-8.28309e-06 0.000261518 0)
(-6.55637e-05 0.000586392 0)
(-0.000146266 0.000754386 0)
(-0.000235191 0.000809682 0)
(-0.000320813 0.000792148 0)
(-0.000398444 0.000733641 0)
(-0.000467063 0.000657981 0)
(-0.000527499 0.000580258 0)
(-0.000581089 0.000509288 0)
(-0.000629463 0.000449864 0)
(-0.000674314 0.000402812 0)
(-0.000717086 0.000366173 0)
(-0.000758761 0.000337095 0)
(-0.000799812 0.000313063 0)
(-0.000840319 0.000291659 0)
(-0.000880089 0.000270463 0)
(-0.000918705 0.000247248 0)
(-0.000955546 0.000220423 0)
(-0.000989848 0.0001891 0)
(-0.0010208 0.000152957 0)
(-0.00104761 0.000111989 0)
(-0.00106953 6.63557e-05 0)
(-0.00108585 1.6312e-05 0)
(-0.00109585 -3.78142e-05 0)
(-0.0010989 -9.56167e-05 0)
(-0.00109444 -0.000156693 0)
(-0.00108202 -0.000220713 0)
(-0.00106125 -0.000287439 0)
(-0.00103172 -0.000356697 0)
(-0.000992944 -0.000428368 0)
(-0.000944271 -0.000502301 0)
(-0.000884895 -0.000577947 0)
(-0.00081394 -0.0006542 0)
(-0.000730663 -0.000729328 0)
(-0.000634732 -0.000801007 0)
(-0.000526464 -0.000866508 0)
(-0.000406911 -0.000923045 0)
(-0.000277803 -0.000968106 0)
(-0.00014141 -0.000999646 0)
(-3.73385e-07 -0.00101613 0)
(0.000142433 -0.00101667 0)
(0.000284021 -0.00100099 0)
(0.000421419 -0.000969549 0)
(0.000551783 -0.000923508 0)
(0.000672529 -0.000864678 0)
(0.000781509 -0.000795486 0)
(0.000877216 -0.000718742 0)
(0.000958929 -0.000637393 0)
(0.00102672 -0.000554206 0)
(0.00108128 -0.000471445 0)
(0.00112363 -0.000390695 0)
(0.00115487 -0.000312876 0)
(0.00117599 -0.000238398 0)
(0.0011878 -0.000167391 0)
(0.00119093 -9.99285e-05 0)
(0.00118589 -3.61201e-05 0)
(0.00117315 2.37981e-05 0)
(0.00115328 7.94933e-05 0)
(0.0011269 0.000130565 0)
(0.00109471 0.000176595 0)
(0.00105746 0.000217208 0)
(0.00101598 0.000252148 0)
(0.000971164 0.00028136 0)
(0.000924019 0.000305061 0)
(0.000875589 0.000323936 0)
(0.000826883 0.000339343 0)
(0.000778726 0.000353386 0)
(0.000731595 0.000368834 0)
(0.000685497 0.000388906 0)
(0.000639933 0.000416956 0)
(0.000593934 0.000455923 0)
(0.000546129 0.000507565 0)
(0.000494829 0.000571482 0)
(0.000438179 0.000643929 0)
(0.000374451 0.000716297 0)
(0.000302578 0.00077338 0)
(0.000223073 0.000791894 0)
(0.000139764 0.000739868 0)
(6.31639e-05 0.000577164 0)
(8.0942e-06 0.000258638 0)
(-8.09579e-06 0.00029456 0)
(-6.11198e-05 0.000654292 0)
(-0.000133978 0.000835685 0)
(-0.000213247 0.000891832 0)
(-0.000289533 0.000868943 0)
(-0.000359575 0.000802721 0)
(-0.000423088 0.00071958 0)
(-0.000481163 0.000635463 0)
(-0.000534969 0.000559548 0)
(-0.000585699 0.000496697 0)
(-0.000634467 0.000447553 0)
(-0.000682155 0.000409828 0)
(-0.000729321 0.000380246 0)
(-0.000776174 0.000355868 0)
(-0.000822595 0.000333949 0)
(-0.000868194 0.000311828 0)
(-0.000912346 0.000287082 0)
(-0.000954259 0.000257978 0)
(-0.000993063 0.000223563 0)
(-0.00102792 0.000183531 0)
(-0.00105807 0.000137916 0)
(-0.00108283 8.69157e-05 0)
(-0.00110154 3.08084e-05 0)
(-0.0011135 -3.00483e-05 0)
(-0.00111804 -9.51676e-05 0)
(-0.00111467 -0.000164038 0)
(-0.00110303 -0.000236226 0)
(-0.00108291 -0.000311462 0)
(-0.0010541 -0.000389634 0)
(-0.00101621 -0.000470779 0)
(-0.000968618 -0.000554955 0)
(-0.000910365 -0.000641785 0)
(-0.000840269 -0.000730194 0)
(-0.000757181 -0.000818188 0)
(-0.00066042 -0.000902865 0)
(-0.000550128 -0.000980721 0)
(-0.000427386 -0.00104818 0)
(-0.000294101 -0.00110208 0)
(-0.000152798 -0.00113987 0)
(-6.39123e-06 -0.00115973 0)
(0.000141991 -0.00116059 0)
(0.00028911 -0.00114214 0)
(0.000431738 -0.00110489 0)
(0.000566757 -0.00105019 0)
(0.000691287 -0.000980219 0)
(0.000802914 -0.000897967 0)
(0.000899958 -0.000807021 0)
(0.000981727 -0.000711216 0)
(0.00104856 -0.000614111 0)
(0.00110159 -0.000518479 0)
(0.00114225 -0.000426083 0)
(0.00117196 -0.000337768 0)
(0.00119183 -0.000253738 0)
(0.00120265 -0.000173883 0)
(0.0012049 -9.80804e-05 0)
(0.0011989 -2.63452e-05 0)
(0.00118493 4.10583e-05 0)
(0.00116341 0.000103684 0)
(0.0011349 0.000161054 0)
(0.00110006 0.000212683 0)
(0.00105959 0.000258129 0)
(0.00101422 0.000297054 0)
(0.000964806 0.000329303 0)
(0.000912342 0.000354991 0)
(0.000857977 0.000374757 0)
(0.000802923 0.000390036 0)
(0.000748281 0.000403172 0)
(0.00069483 0.000417337 0)
(0.000642889 0.000436224 0)
(0.000592305 0.000463655 0)
(0.000542536 0.000502973 0)
(0.000492722 0.000556281 0)
(0.000441719 0.000623457 0)
(0.000388139 0.000700868 0)
(0.000330463 0.000779671 0)
(0.000267376 0.000843733 0)
(0.000198461 0.000867722 0)
(0.000125833 0.000815931 0)
(5.79235e-05 0.000641806 0)
(7.80781e-06 0.000290507 0)
(-7.8188e-06 0.000325265 0)
(-5.55158e-05 0.000715592 0)
(-0.000119315 0.00090785 0)
(-0.000188487 0.000964612 0)
(-0.000256452 0.000938038 0)
(-0.000321546 0.00086688 0)
(-0.000383938 0.000779375 0)
(-0.00044452 0.000691834 0)
(-0.000503929 0.00061353 0)
(-0.000562622 0.000549183 0)
(-0.00062088 0.000499182 0)
(-0.000678789 0.000460983 0)
(-0.000736295 0.000431115 0)
(-0.000793229 0.000406352 0)
(-0.000849277 0.000383694 0)
(-0.000903902 0.000360227 0)
(-0.000956283 0.000333333 0)
(-0.00100541 0.000301171 0)
(-0.00105025 0.000262809 0)
(-0.00108996 0.000218042 0)
(-0.00112385 0.000167004 0)
(-0.00115137 0.000109937 0)
(-0.00117194 4.7101e-05 0)
(-0.00118485 -2.11576e-05 0)
(-0.00118941 -9.42626e-05 0)
(-0.0011851 -0.000171507 0)
(-0.00117176 -0.000252258 0)
(-0.00114945 -0.000336164 0)
(-0.00111829 -0.000423191 0)
(-0.00107817 -0.000513643 0)
(-0.00102857 -0.000607932 0)
(-0.000968419 -0.000706059 0)
(-0.000896149 -0.000807135 0)
(-0.000810062 -0.00090894 0)
(-0.000709 -0.00100785 0)
(-0.0005929 -0.00109937 0)
(-0.000462945 -0.00117893 0)
(-0.000321338 -0.00124256 0)
(-0.000170956 -0.00128722 0)
(-1.50309e-05 -0.00131078 0)
(0.000143054 -0.00131203 0)
(0.000299839 -0.00129061 0)
(0.000451857 -0.00124709 0)
(0.000595696 -0.00118296 0)
(0.000728116 -0.00110076 0)
(0.000846304 -0.00100409 0)
(0.000948282 -0.000897482 0)
(0.00103333 -0.000785918 0)
(0.00110216 -0.000674003 0)
(0.00115649 -0.000565103 0)
(0.00119833 -0.000461068 0)
(0.00122943 -0.000362486 0)
(0.00125099 -0.000269156 0)
(0.00126366 -0.000180575 0)
(0.00126766 -9.63337e-05 0)
(0.00126296 -1.63242e-05 0)
(0.00124955 5.91225e-05 0)
(0.00122762 0.000129366 0)
(0.0011977 0.000193769 0)
(0.00116043 0.000251774 0)
(0.00111647 0.000302918 0)
(0.00106642 0.000346792 0)
(0.001011 0.000383086 0)
(0.000951157 0.000411729 0)
(0.000888143 0.00043319 0)
(0.000823428 0.000448879 0)
(0.000758464 0.000461322 0)
(0.000694395 0.00047408 0)
(0.000631877 0.000491307 0)
(0.000571125 0.000517216 0)
(0.000512097 0.000555442 0)
(0.000454611 0.000608335 0)
(0.000398355 0.000676027 0)
(0.000342796 0.000755135 0)
(0.000287083 0.000836958 0)
(0.000230059 0.000905076 0)
(0.000170602 0.000932973 0)
(0.00010912 0.000881845 0)
(5.14739e-05 0.000698802 0)
(7.49656e-06 0.000319485 0)
(-7.28178e-06 0.000352819 0)
(-4.74779e-05 0.000768754 0)
(-0.000100093 0.00096982 0)
(-0.00015848 0.00102842 0)
(-0.000219667 0.0010016 0)
(-0.000283569 0.000930038 0)
(-0.000350234 0.000842479 0)
(-0.000419577 0.000755156 0)
(-0.000491149 0.000677288 0)
(-0.000564346 0.000613379 0)
(-0.000638386 0.000563519 0)
(-0.000712358 0.000525036 0)
(-0.000785435 0.000494506 0)
(-0.000856997 0.000468681 0)
(-0.00092657 0.000444457 0)
(-0.000993547 0.000418667 0)
(-0.00105693 0.000388428 0)
(-0.00111542 0.00035181 0)
(-0.00116778 0.000308007 0)
(-0.00121313 0.000257056 0)
(-0.00125097 0.00019929 0)
(-0.00128097 0.000134987 0)
(-0.00130269 6.42927e-05 0)
(-0.00131537 -1.25463e-05 0)
(-0.00131817 -9.48589e-05 0)
(-0.00131053 -0.000181607 0)
(-0.0012925 -0.000271779 0)
(-0.00126456 -0.000364827 0)
(-0.00122735 -0.00046079 0)
(-0.00118126 -0.000560354 0)
(-0.00112605 -0.000664519 0)
(-0.0010606 -0.000773971 0)
(-0.000982868 -0.000888281 0)
(-0.000890357 -0.00100507 0)
(-0.00078122 -0.00111979 0)
(-0.000655172 -0.00122656 0)
(-0.000513652 -0.00131954 0)
(-0.000359357 -0.00139386 0)
(-0.000195638 -0.00144594 0)
(-2.60601e-05 -0.00147347 0)
(0.000145787 -0.00147517 0)
(0.00031631 -0.00145062 0)
(0.000481896 -0.00140043 0)
(0.000638881 -0.00132613 0)
(0.000783589 -0.00123051 0)
(0.000912625 -0.00111781 0)
(0.00102347 -0.000993688 0)
(0.00111529 -0.000864698 0)
(0.00118928 -0.000736883 0)
(0.00124806 -0.000614317 0)
(0.00129439 -0.000498744 0)
(0.00133037 -0.000390191 0)
(0.00135717 -0.000287775 0)
(0.00137515 -0.000190408 0)
(0.00138406 -9.72913e-05 0)
(0.00138338 -8.18802e-06 0)
(0.00137265 7.64069e-05 0)
(0.00135182 0.000155522 0)
(0.0013214 0.000228215 0)
(0.00128213 0.000293859 0)
(0.00123463 0.000352076 0)
(0.0011793 0.000402452 0)
(0.00111659 0.000444476 0)
(0.00104732 0.000477742 0)
(0.000972858 0.000502367 0)
(0.000895015 0.00051958 0)
(0.000815722 0.000532048 0)
(0.000736538 0.000543754 0)
(0.00065842 0.000559332 0)
(0.000581877 0.000583293 0)
(0.000507364 0.00061936 0)
(0.000435515 0.000669897 0)
(0.000367147 0.000735137 0)
(0.000303067 0.000811962 0)
(0.000243743 0.000892138 0)
(0.000188867 0.000959707 0)
(0.000137219 0.000988029 0)
(8.77386e-05 0.000936251 0)
(4.25972e-05 0.000746235 0)
(6.89729e-06 0.000344755 0)
(-6.12461e-06 0.000375481 0)
(-3.47656e-05 0.000810883 0)
(-7.27875e-05 0.00101977 0)
(-0.000119571 0.00108384 0)
(-0.00017649 0.00106276 0)
(-0.00024452 0.000997498 0)
(-0.000322511 0.000915485 0)
(-0.000408269 0.000832538 0)
(-0.000499584 0.000757966 0)
(-0.000594504 0.000696181 0)
(-0.000691016 0.000647015 0)
(-0.000787046 0.000607831 0)
(-0.000880875 0.000575563 0)
(-0.000971431 0.000547302 0)
(-0.00105821 0.000520069 0)
(-0.00114071 0.000490413 0)
(-0.00121775 0.000455022 0)
(-0.00128761 0.000411833 0)
(-0.0013487 0.000360351 0)
(-0.00140014 0.000301094 0)
(-0.00144178 0.000234748 0)
(-0.00147369 0.00016159 0)
(-0.00149564 8.14618e-05 0)
(-0.00150675 -5.68748e-06 0)
(-0.00150582 -9.9099e-05 0)
(-0.00149212 -0.000197173 0)
(-0.00146593 -0.000298207 0)
(-0.00142837 -0.000401257 0)
(-0.00138083 -0.00050641 0)
(-0.00132443 -0.000614833 0)
(-0.00125951 -0.000728411 0)
(-0.00118509 -0.000848982 0)
(-0.00109853 -0.000977064 0)
(-0.000996176 -0.00111028 0)
(-0.000875145 -0.00124279 0)
(-0.000734934 -0.00136672 0)
(-0.000577533 -0.00147453 0)
(-0.000406433 -0.00156037 0)
(-0.000225599 -0.00162028 0)
(-3.8896e-05 -0.00165194 0)
(0.000150027 -0.00165411 0)
(0.000337627 -0.0016264 0)
(0.000520343 -0.00156934 0)
(0.000694401 -0.00148435 0)
(0.000855667 -0.0013742 0)
(0.000999898 -0.00124365 0)
(0.00112365 -0.00109975 0)
(0.00122573 -0.000951235 0)
(0.00130803 -0.000806283 0)
(0.00137456 -0.000669811 0)
(0.00142911 -0.000543058 0)
(0.00147404 -0.000424978 0)
(0.00151024 -0.000313658 0)
(0.00153755 -0.000207218 0)
(0.00155508 -0.000104355 0)
(0.00156157 -4.73369e-06 0)
(0.00155598 9.08144e-05 0)
(0.00153798 0.000180712 0)
(0.00150821 0.00026349 0)
(0.0014677 0.000338504 0)
(0.00141704 0.000405687 0)
(0.00135627 0.000464765 0)
(0.00128539 0.000514988 0)
(0.00120495 0.000555385 0)
(0.00111641 0.000585419 0)
(0.0010221 0.000605914 0)
(0.000924607 0.000619658 0)