/*--------------------------------*- C++ -*----------------------------------*\
| =========                 |                                                 |
| \\      /  F ield         | OpenFOAM: The Open Source CFD Toolbox           |
|  \\    /   O peration     | Version:  2412                                  |
|   \\  /    A nd           | Website:  www.openfoam.com                      |
|    \\/     M anipulation  |                                                 |
\*---------------------------------------------------------------------------*/
FoamFile
{
    version     2.0;
    format      ascii;
    arch        "LSB;label=32;scalar=64";
    class       volScalarField;
    location    "5.53";
    object      p;
}
// * * * * * * * * * * * * * * * * * * * * * * * * * * * * * * * * * * * * * //

dimensions      [1 -1 -2 0 0 0 0];

internalField   nonuniform List<scalar> 
80000
(
30014.9
30015.1
30015.3
30015.7
30016.2
30016.8
30017.6
30018.5
30019.5
30020.6
30021.9
30023.3
30024.8
30026.5
30028.2
30030.1
30032.2
30034.3
30036.6
30039.1
30041.6
30044.3
30047.1
30050
30053.1
30056.3
30059.6
30063.1
30066.7
30070.4
30074.2
30078.2
30082.3
30086.5
30090.9
30095.4
30100
30104.7
30109.6
30114.6
30119.7
30124.9
30130.3
30135.8
30141.4
30147.2
30153.1
30159.1
30165.2
30171.5
30177.8
30184.3
30191
30197.7
30204.6
30211.6
30218.7
30225.9
30233.3
30240.7
30248.3
30256
30263.8
30271.8
30279.8
30288
30296.3
30304.6
30313.1
30321.8
30330.5
30339.3
30348.2
30357.3
30366.4
30375.7
30385
30394.5
30404
30413.6
30423.4
30433.2
30443.2
30453.2
30463.3
30473.5
30483.8
30494.1
30504.6
30515.1
30525.7
30536.4
30547.2
30558
30569
30579.9
30591
30602.1
30613.3
30624.5
30635.8
30647.1
30658.5
30670
30681.4
30693
30704.6
30716.2
30727.8
30739.5
30751.2
30762.9
30774.7
30786.5
30798.2
30810.1
30821.9
30833.7
30845.5
30857.3
30869.1
30880.9
30892.7
30904.5
30916.3
30928
30939.7
30951.4
30963
30974.6
30986.1
30997.6
31009.1
31020.4
31031.8
31043
31054.2
31065.3
31076.3
31087.2
31098.1
31108.8
31119.5
31130
31140.4
31150.7
31160.9
31171
31180.9
31190.7
31200.3
31209.8
31219.1
31228.3
31237.3
31246.1
31254.8
31263.3
31271.6
31279.7
31287.5
31295.2
31302.7
31309.9
31317
31323.8
31330.3
31336.6
31342.7
31348.5
31354.1
31359.4
31364.4
31369.1
31373.6
31377.7
31381.6
31385.1
31388.4
31391.3
31393.9
31396.2
31398.1
31399.7
31401
31401.9
31402.4
31402.6
31402.4
31401.8
31400.9
31399.5
31397.8
31395.6
31393.1
31390.1
31386.7
31382.9
31378.6
31374
31368.8
31363.2
31357.2
31350.7
31343.8
31336.3
31328.4
31320
31311.2
31301.8
31292
31281.6
31270.7
31259.4
31247.5
31235.1
31222.1
31208.7
31194.7
31180.2
31165.1
31149.5
31133.4
31116.7
31099.4
31081.6
31063.2
31044.3
31024.8
31004.7
30984.1
30962.9
30941.1
30918.8
30895.9
30872.4
30848.3
30823.6
30798.4
30772.6
30746.2
30719.2
30691.6
30663.5
30634.8
30605.5
30575.6
30545.1
30514.1
30482.5
30450.3
30417.6
30384.3
30350.5
30316.1
30281.1
30245.6
30209.5
30172.9
30135.8
30098.2
30060
30021.3
29982.1
29942.4
29902.3
29861.6
29820.5
29778.9
29736.8
29694.3
29651.4
29608
29564.3
29520.1
29475.6
29430.6
29385.4
29339.7
29293.7
29247.5
29200.9
29154.1
29107
29059.7
29012.1
28964.4
28916.6
28868.5
28820.3
28771.9
28723.5
28675
28626.4
28577.9
28529.3
28480.8
28432.4
28384
28335.8
28287.7
28239.9
28192.2
28144.8
28097.7
28050.9
28004.4
27958.4
27912.7
27867.6
27822.9
27778.8
27735.3
27692.4
27650.2
27608.6
27567.8
27527.8
27488.6
27450.2
27412.8
27376.3
27340.7
27306.2
27272.7
27240.3
27209
27178.9
27149.9
27122.1
27095.6
27070.4
27046.4
27023.7
27002.4
26982.4
26963.8
26946.5
26930.7
26916.2
26903.2
26891.7
26881.5
26872.9
26865.6
26859.9
26855.6
26852.7
26851.4
26851.5
26853.1
26856.2
26860.8
26866.8
26874.4
26883.4
26894
26906
26919.6
26934.6
26951.2
26969.2
26988.8
27009.9
27032.5
27056.6
27082.2
27109.3
27137.9
27168
27199.6
27232.6
27267.2
27303.1
27340.6
27379.4
27419.6
27461.2
27504.2
27548.4
27594
27640.7
27688.6
27737.7
27787.9
27839.1
27891.2
27944.3
27998.2
28052.8
28108.2
28164.1
28220.5
28277.4
28334.6
28392.1
28449.6
28507.2
28564.7
28622.1
28679.2
28735.8
28792
28847.6
28902.5
28956.5
29009.7
29061.8
29112.8
29162.6
29211.1
29258.3
29303.9
29348
29390.4
29431.2
29470.1
29507.1
29542.3
29575.5
29606.7
29635.9
29663
29687.9
29710.7
29731.4
29749.9
29766.1
29780.2
29792
29801.7
29809.1
29814.4
29817.5
29818.5
29817.3
29814.1
29808.8
29801.5
29792.2
29781
29767.9
29753
29736.3
29717.9
29697.9
29676.4
29653.3
29628.7
29602.9
29575.7
29547.4
29517.9
29487.4
29455.9
29423.6
29390.4
29356.6
29322.2
29287.3
29251.9
29216.2
29180.3
29144.2
29108
29071.9
29035.9
29000
28964.5
28929.2
28894.4
28860.1
28826.4
28793.4
28761.2
28729.7
28699.2
28669.7
28641.1
28613.6
28587.3
28562.1
28538.1
28515.5
28494.1
28474.2
28455.6
28438.6
28422.9
28408.8
28396.2
28385.1
28375.6
28367.6
28361.1
28356.1
28352.7
28350.9
28350.6
28351.8
28354.6
28358.8
28364.4
28371.4
28379.8
28389.5
28400.4
28412.6
28425.9
28440.3
28455.8
28472.3
28489.7
28508
28527
28546.8
28567.3
28588.3
28609.8
28631.8
28654.1
28676.7
28699.5
28722.4
28745.4
28768.3
28791.2
28813.8
28836.3
28858.4
28880.1
28901.4
28922.2
28942.4
28962
28981
28999.3
29016.7
29033.7
29049.6
29064.7
29078.9
29092.3
29104.8
29116.4
29127.1
29137
29145.9
29154.1
29161.3
29167.8
29173.4
29178.3
29182.4
29185.9
29188.6
29190.7
29192.2
29193.2
29193.6
29193.6
29193.1
29192.2
29191
29189.5
29187.7
29185.7
29183.5
29181.1
29178.7
29176.2
29173.6
29171
29168.5
29166.1
29163.7
29161.5
29159.4
29157.5
29155.8
29154.2
29153
29151.9
29151.1
29150.6
29150.3
29150.3
29150.5
29151
29151.7
29152.7
29153.8
29155.2
29156.8
29158.5
29160.3
29162.3
29164.3
29166.4
29168.5
29170.5
29172.5
29174.4
29176.2
29177.8
29179.1
29180.2
29181
29181.4
29181.4
29180.9
29180
29178.5
29176.4
29173.7
29170.4
29166.3
29161.4
29155.8
29149.3
29142
29133.8
29124.7
29114.7
29103.8
29091.8
29079
29065.1
29050.3
29034.6
29017.9
29000.3
28981.9
28962.6
28942.6
28921.8
28900.3
28878.2
28855.6
28832.5
28809
28785.2
28761.1
28736.9
28712.7
28688.5
28664.5
28640.8
28617.5
28594.6
28572.3
28550.6
28529.8
28509.8
28490.8
28472.9
28456.2
28440.7
28426.6
28413.9
28402.7
28393.1
28385.1
28378.8
28374.3
28371.5
28370.7
28371.7
28374.6
28379.4
28386.3
28395.1
28405.8
28418.5
28433.2
28449.8
28468.3
28488.6
28510.9
28534.9
28560.6
28588
28617.1
28647.7
28679.7
28713.1
28747.8
28783.7
28820.7
28858.6
28897.4
28937
28977.2
29017.9
29059
29100.3
29141.8
29183.2
29224.5
29265.5
29306
29345.9
29385
29423.3
29460.5
29496.5
29531.3
29564.5
29596.1
29626
29654
29679.9
29703.7
29725.2
29744.4
29761
29775
29786.3
29794.8
29800.4
29803
29802.5
29798.9
29792.2
29782.2
29768.9
29752.4
29732.5
29709.4
29683
29653.2
29620.2
29584
29544.6
29502.2
29456.8
29408.4
29357.2
29303.2
29246.9
29188.1
29126.9
29063.8
28998.8
28932.1
28863.9
28794.4
28723.7
28652.2
28580
28507.3
28434.4
28361.5
28288.8
28216.4
28144.7
28073.8
28003.9
27935.1
27867.7
27801.8
27737.6
27675.2
27614.8
27556.5
27500.3
27446.4
27394.9
27345.9
27299.4
27255.5
27214.2
27175.6
27139.6
27106.4
27076
27048.3
27023.3
27001
26981.5
26964.7
26950.6
26939.2
26930.4
26924.2
26920.6
26919.6
26921.1
26925
26931.5
26940.3
26951.5
26965
26980.8
26998.9
27019.2
27041.7
27066.3
27092.9
27121.6
27152.3
27185
27219.6
27256
27294.3
27334.3
27376.1
27419.5
27464.6
27511.3
27559.6
27609.3
27660.5
27713.1
27767.1
27822.3
27878.8
27936.5
27995.3
28055.2
28116
28177.8
28240.4
28303.9
28368
28432.8
28498.1
28563.9
28630.2
28696.7
28763.6
28830.6
28897.7
28964.7
29031.8
29098.9
29165.7
29232.3
29298.5
29364.4
29430
29495.1
29559.5
29623.4
29686.7
29749.2
29811
29872.1
29932.3
29991.6
30050.1
30107.6
30164.2
30219.7
30274.3
30327.7
30380
30431.2
30481.3
30530.1
30577.8
30624.2
30669.3
30713.2
30755.8
30797.1
30837
30875.7
30912.9
30948.9
30983.4
31016.6
31048.5
31079
31108.1
31135.8
31162.2
31187.2
31210.9
31233.2
31254.2
31273.8
31292.2
31309.2
31324.9
31339.4
31352.6
31364.6
31375.3
31384.8
31393.1
31400.2
31406.2
31411.1
31414.8
31417.4
31419
31419.5
31419
31417.5
31415
31411.5
31407.2
31401.9
31395.7
31388.7
31380.8
31372.1
31362.7
31352.4
31341.5
31329.8
31317.5
31304.5
31290.9
31276.7
31262
31246.6
31230.8
31214.5
31197.6
31180.4
31162.7
31144.6
31126.2
31107.4
31088.3
31068.9
31049.3
31029.4
31009.3
30988.9
30968.4
30947.8
30927
30906.1
30885.1
30864.1
30843
30821.9
30800.8
30779.6
30758.6
30737.6
30716.6
30695.7
30675
30654.4
30633.9
30613.5
30593.3
30573.4
30553.6
30534
30514.7
30495.6
30476.7
30458.2
30439.9
30421.9
30404.2
30386.8
30369.7
30353
30336.6
30320.6
30304.9
30289.6
30274.7
30260.1
30246
30232.3
30218.9
30206
30193.6
30181.5
30169.9
30158.7
30148
30137.7
30127.9
30118.5
30109.6
30101.2
30093.2
30085.7
30078.7
30072.2
30066.2
30060.6
30055.6
30051
30047
30043.4
30040.4
30037.8
30035.8
30034.2
30033.2
30032.7
29278.9
29279
29279.2
29279.6
29280.1
29280.8
29281.5
29282.4
29283.4
29284.6
29285.8
29287.2
29288.8
29290.4
29292.2
29294.1
29296.1
29298.3
29300.6
29303
29305.6
29308.3
29311.1
29314
29317.1
29320.3
29323.6
29327.1
29330.6
29334.4
29338.2
29342.2
29346.3
29350.5
29354.9
29359.3
29363.9
29368.7
29373.6
29378.6
29383.7
29388.9
29394.3
29399.8
29405.4
29411.2
29417.1
29423.1
29429.2
29435.5
29441.8
29448.3
29455
29461.7
29468.6
29475.6
29482.7
29489.9
29497.3
29504.7
29512.3
29520
29527.8
29535.8
29543.8
29552
29560.3
29568.7
29577.2
29585.8
29594.5
29603.3
29612.3
29621.3
29630.5
29639.7
29649
29658.5
29668.1
29677.7
29687.4
29697.3
29707.2
29717.2
29727.4
29737.6
29747.8
29758.2
29768.7
29779.2
29789.8
29800.5
29811.3
29822.1
29833.1
29844
29855.1
29866.2
29877.4
29888.6
29899.9
29911.3
29922.7
29934.1
29945.6
29957.1
29968.7
29980.3
29992
30003.7
30015.4
30027.1
30038.9
30050.7
30062.5
30074.3
30086.1
30097.9
30109.7
30121.6
30133.4
30145.2
30157
30168.8
30180.5
30192.3
30204
30215.7
30227.3
30238.9
30250.4
30262
30273.4
30284.8
30296.1
30307.4
30318.6
30329.7
30340.7
30351.6
30362.5
30373.2
30383.9
30394.4
30404.9
30415.2
30425.4
30435.4
30445.4
30455.2
30464.8
30474.3
30483.6
30492.8
30501.8
30510.7
30519.4
30527.8
30536.1
30544.2
30552.1
30559.8
30567.3
30574.6
30581.6
30588.4
30595
30601.3
30607.4
30613.2
30618.8
30624.1
30629.1
30633.8
30638.3
30642.5
30646.3
30649.9
30653.2
30656.1
30658.7
30661
30662.9
30664.6
30665.8
30666.7
30667.3
30667.5
30667.3
30666.7
30665.7
30664.4
30662.7
30660.5
30658
30655
30651.6
30647.8
30643.6
30638.9
30633.8
30628.2
30622.2
30615.7
30608.7
30601.3
30593.4
30585
30576.2
30566.8
30557
30546.6
30535.8
30524.4
30512.5
30500.1
30487.2
30473.7
30459.7
30445.2
30430.2
30414.6
30398.4
30381.7
30364.5
30346.6
30328.3
30309.3
30289.9
30269.8
30249.2
30228
30206.2
30183.8
30160.9
30137.4
30113.3
30088.6
30063.4
30037.6
30011.2
29984.2
29956.6
29928.5
29899.7
29870.4
29840.5
29810.1
29779
29747.4
29715.3
29682.5
29649.2
29615.3
29580.9
29545.9
29510.4
29474.4
29437.8
29400.6
29362.9
29324.8
29286.1
29246.9
29207.1
29166.9
29126.3
29085.1
29043.5
29001.4
28958.9
28915.9
28872.6
28828.8
28784.6
28740
28695.1
28649.8
28604.1
28558.1
28511.8
28465.3
28418.4
28371.3
28324
28276.4
28228.6
28180.7
28132.6
28084.3
28035.9
27987.5
27938.9
27890.4
27841.8
27793.2
27744.6
27696.1
27647.8
27599.5
27551.4
27503.5
27455.8
27408.3
27361.1
27314.3
27267.8
27221.7
27176
27130.8
27086.1
27042
26998.4
26955.5
26913.2
26871.6
26830.8
26790.7
26751.4
26713.1
26675.6
26639
26603.4
26568.9
26535.4
26502.9
26471.6
26441.4
26412.4
26384.6
26358.1
26332.8
26308.8
26286.1
26264.8
26244.8
26226.1
26208.9
26193
26178.6
26165.6
26154
26143.9
26135.2
26128
26122.2
26117.9
26115.1
26113.7
26113.9
26115.5
26118.5
26123.1
26129.2
26136.7
26145.8
26156.3
26168.4
26181.9
26196.9
26213.5
26231.6
26251.1
26272.2
26294.8
26318.9
26344.5
26371.6
26400.2
26430.3
26461.9
26495
26529.5
26565.5
26603
26641.8
26682.1
26723.7
26766.7
26811
26856.6
26903.4
26951.3
27000.5
27050.7
27102
27154.2
27207.3
27261.3
27316
27371.5
27427.5
27484
27541
27598.3
27655.9
27713.6
27771.3
27828.9
27886.4
27943.6
28000.4
28056.7
28112.4
28167.4
28221.6
28274.8
28327.1
28378.2
28428.1
28476.8
28524
28569.7
28613.9
28656.5
28697.3
28736.3
28773.5
28808.7
28842
28873.3
28902.5
28929.6
28954.6
28977.5
28998.1
29016.6
29032.9
29047
29058.8
29068.5
29075.9
29081.1
29084.2
29085.1
29084
29080.7
29075.3
29068
29058.6
29047.3
29034.2
29019.2
29002.4
28984
28963.9
28942.2
28919
28894.4
28868.4
28841.2
28812.7
28783.2
28752.5
28721
28688.5
28655.3
28621.4
28586.9
28551.8
28516.4
28480.6
28444.5
28408.3
28372.1
28335.8
28299.7
28263.8
28228.1
28192.8
28157.9
28123.5
28089.8
28056.7
28024.4
27992.9
27962.3
27932.7
27904.1
27876.5
27850.1
27824.9
27800.9
27778.2
27756.8
27736.9
27718.3
27701.2
27685.6
27671.5
27658.8
27647.8
27638.2
27630.2
27623.7
27618.7
27615.3
27613.5
27613.3
27614.5
27617.3
27621.6
27627.2
27634.3
27642.7
27652.4
27663.4
27675.6
27689
27703.4
27719
27735.5
27753
27771.3
27790.5
27810.3
27830.9
27852
27873.6
27895.6
27918
27940.7
27963.5
27986.5
28009.6
28032.6
28055.5
28078.2
28100.7
28122.9
28144.7
28166.1
28186.9
28207.2
28226.9
28245.9
28264.2
28281.8
28298.6
28314.6
28329.7
28344
28357.4
28369.9
28381.5
28392.2
28402.1
28411
28419.1
28426.4
28432.8
28438.4
28443.3
28447.4
28450.8
28453.5
28455.5
28457
28457.9
28458.3
28458.2
28457.7
28456.8
28455.5
28454
28452.1
28450.1
28447.8
28445.5
28443
28440.4
28437.8
28435.3
28432.7
28430.2
28427.8
28425.6
28423.5
28421.5
28419.8
28418.3
28417
28415.9
28415.1
28414.6
28414.3
28414.3
28414.5
28415
28415.7
28416.7
28417.9
28419.3
28420.9
28422.6
28424.5
28426.5
28428.5
28430.6
28432.7
28434.8
28436.9
28438.8
28440.6
28442.2
28443.6
28444.7
28445.5
28446
28446
28445.6
28444.7
28443.3
28441.2
28438.6
28435.3
28431.2
28426.4
28420.8
28414.3
28407.1
28398.9
28389.8
28379.8
28368.8
28356.9
28344
28330.2
28315.4
28299.6
28282.9
28265.3
28246.8
28227.5
28207.4
28186.5
28165
28142.8
28120.1
28097
28073.4
28049.5
28025.3
28001.1
27976.8
27952.5
27928.5
27904.6
27881.2
27858.2
27835.8
27814.1
27793.2
27773.2
27754.1
27736.1
27719.3
27703.8
27689.6
27676.9
27665.6
27655.9
27647.9
27641.6
27637
27634.3
27633.3
27634.3
27637.2
27642.1
27648.9
27657.7
27668.4
27681.1
27695.8
27712.4
27730.9
27751.3
27773.6
27797.6
27823.4
27850.9
27880
27910.6
27942.7
27976.2
28011
28046.9
28084
28122
28160.9
28200.6
28240.9
28281.7
28322.9
28364.4
28405.9
28447.5
28488.8
28530
28570.6
28610.6
28649.9
28688.2
28725.6
28761.8
28796.6
28829.9
28861.7
28891.7
28919.7
28945.8
28969.7
28991.3
29010.5
29027.3
29041.4
29052.7
29061.3
29066.9
29069.6
29069.2
29065.6
29058.9
29048.9
29035.7
29019.1
28999.3
28976.1
28949.6
28919.8
28886.8
28850.5
28811
28768.5
28723
28674.5
28623.2
28569.1
28512.6
28453.6
28392.4
28329.1
28264
28197.1
28128.7
28059
27988.2
27916.6
27844.2
27771.4
27698.3
27625.2
27552.4
27479.9
27408
27337
27266.9
27198.1
27130.6
27064.6
27000.3
26937.8
26877.3
26818.9
26762.7
26708.8
26657.3
26608.2
26561.7
26517.8
26476.4
26437.8
26401.9
26368.7
26338.2
26310.5
26285.5
26263.3
26243.8
26227
26212.9
26201.5
26192.8
26186.6
26183.1
26182
26183.6
26187.6
26194
26202.9
26214.1
26227.7
26243.5
26261.6
26281.9
26304.4
26329
26355.7
26384.5
26415.2
26447.9
26482.5
26518.9
26557.2
26597.3
26639.1
26682.5
26727.7
26774.4
26822.7
26872.4
26923.7
26976.3
27030.3
27085.6
27142.1
27199.8
27258.7
27318.6
27379.5
27441.3
27504
27567.4
27631.6
27696.4
27761.8
27827.7
27894
27960.6
28027.5
28094.5
28161.6
28228.8
28296
28363
28429.9
28496.5
28562.8
28628.8
28694.3
28759.4
28823.9
28887.9
28951.1
29013.7
29075.6
29136.7
29196.9
29256.3
29314.8
29372.4
29428.9
29484.5
29539
29592.5
29644.9
29696.1
29746.1
29795
29842.7
29889.1
29934.3
29978.2
30020.8
30062.1
30102.1
30140.7
30178
30213.9
30248.5
30281.7
30313.6
30344
30373.1
30400.9
30427.3
30452.3
30475.9
30498.2
30519.2
30538.9
30557.2
30574.2
30590
30604.4
30617.6
30629.6
30640.3
30649.8
30658.1
30665.2
30671.2
30676
30679.7
30682.3
30683.9
30684.4
30683.9
30682.3
30679.8
30676.4
30671.9
30666.6
30660.4
30653.4
30645.5
30636.8
30627.3
30617.1
30606.1
30594.5
30582.1
30569.1
30555.5
30541.3
30526.5
30511.2
30495.3
30478.9
30462.1
30444.9
30427.2
30409.1
30390.6
30371.8
30352.7
30333.3
30313.6
30293.7
30273.6
30253.3
30232.7
30212.1
30191.3
30170.4
30149.4
30128.3
30107.2
30086.1
30065
30043.8
30022.8
30001.7
29980.8
29959.9
29939.1
29918.5
29898
29877.6
29857.5
29837.5
29817.7
29798.1
29778.8
29759.6
29740.8
29722.2
29703.9
29685.9
29668.2
29650.8
29633.7
29617
29600.6
29584.6
29568.9
29553.6
29538.7
29524.1
29510
29496.3
29482.9
29470
29457.5
29445.5
29433.9
29422.7
29412
29401.7
29391.8
29382.5
29373.6
29365.1
29357.2
29349.7
29342.7
29336.2
29330.1
29324.6
29319.5
29315
29310.9
29307.4
29304.3
29301.8
29299.7
29298.2
29297.2
29296.7
28542.6
28542.7
28543
28543.3
28543.8
28544.5
28545.2
28546.1
28547.1
28548.3
28549.5
28550.9
28552.5
28554.1
28555.9
28557.8
28559.8
28562
28564.3
28566.7
28569.3
28572
28574.8
28577.7
28580.8
28584
28587.3
28590.8
28594.3
28598.1
28601.9
28605.9
28610
28614.2
28618.6
28623
28627.7
28632.4
28637.3
28642.3
28647.4
28652.6
28658
28663.5
28669.2
28674.9
28680.8
28686.8
28692.9
28699.2
28705.6
28712.1
28718.7
28725.5
28732.3
28739.3
28746.4
28753.7
28761
28768.5
28776.1
28783.8
28791.6
28799.6
28807.6
28815.8
28824.1
28832.5
28841
28849.6
28858.3
28867.1
28876.1
28885.1
28894.3
28903.5
28912.9
28922.3
28931.9
28941.6
28951.3
28961.2
28971.1
28981.1
28991.2
29001.5
29011.7
29022.1
29032.6
29043.1
29053.8
29064.5
29075.2
29086.1
29097
29108
29119.1
29130.2
29141.4
29152.6
29163.9
29175.3
29186.7
29198.1
29209.7
29221.2
29232.8
29244.4
29256.1
29267.8
29279.5
29291.3
29303
29314.8
29326.6
29338.4
29350.3
29362.1
29374
29385.8
29397.6
29409.5
29421.3
29433.1
29444.8
29456.6
29468.3
29480
29491.7
29503.3
29514.8
29526.4
29537.8
29549.2
29560.6
29571.8
29583.1
29594.2
29605.2
29616.2
29627
29637.8
29648.5
29659
29669.5
29679.8
29690
29700.1
29710.1
29719.9
29729.5
29739
29748.4
29757.6
29766.6
29775.5
29784.2
29792.7
29801
29809.1
29817.1
29824.8
29832.3
29839.5
29846.6
29853.4
29860
29866.4
29872.5
29878.3
29883.9
29889.2
29894.3
29899
29903.5
29907.7
29911.6
29915.2
29918.4
29921.4
29924
29926.3
29928.3
29929.9
29931.2
29932.1
29932.7
29932.9
29932.7
29932.2
29931.2
29929.9
29928.2
29926.1
29923.5
29920.6
29917.2
29913.4
29909.2
29904.5
29899.4
29893.9
29887.9
29881.4
29874.4
29867
29859.1
29850.8
29841.9
29832.6
29822.7
29812.4
29801.5
29790.2
29778.3
29765.9
29753
29739.5
29725.6
29711.1
29696
29680.4
29664.2
29647.5
29630.3
29612.5
29594.1
29575.2
29555.7
29535.6
29515
29493.8
29472
29449.6
29426.7
29403.2
29379.1
29354.4
29329.2
29303.3
29276.9
29249.9
29222.3
29194.2
29165.4
29136.1
29106.2
29075.7
29044.7
29013
28980.8
28948.1
28914.8
28880.9
28846.4
28811.4
28775.9
28739.8
28703.1
28666
28628.3
28590
28551.3
28512.1
28472.3
28432.1
28391.4
28350.2
28308.5
28266.4
28223.8
28180.8
28137.4
28093.6
28049.3
28004.7
27959.7
27914.4
27868.7
27822.6
27776.3
27729.7
27682.8
27635.6
27588.2
27540.5
27492.7
27444.7
27396.5
27348.2
27299.8
27251.2
27202.6
27154
27105.3
27056.6
27008
26959.4
26911
26862.6
26814.4
26766.4
26718.6
26671.1
26623.9
26576.9
26530.3
26484.2
26438.4
26393.1
26348.3
26304.1
26260.4
26217.4
26175
26133.3
26092.4
26052.3
26012.9
25974.5
25936.9
25900.3
25864.6
25830
25796.4
25763.9
25732.5
25702.3
25673.2
25645.4
25618.8
25593.5
25569.5
25546.7
25525.3
25505.3
25486.7
25469.4
25453.5
25439.1
25426.1
25414.5
25404.3
25395.7
25388.4
25382.7
25378.4
25375.5
25374.2
25374.3
25375.9
25379
25383.6
25389.6
25397.2
25406.2
25416.8
25428.8
25442.3
25457.4
25473.9
25492
25511.6
25532.6
25555.2
25579.3
25604.9
25632
25660.7
25690.8
25722.4
25755.5
25790
25826.1
25863.5
25902.5
25942.8
25984.4
26027.5
26071.9
26117.5
26164.4
26212.5
26261.7
26312.1
26363.4
26415.8
26469.1
26523.2
26578.2
26633.8
26690
26746.7
26803.9
26861.4
26919.2
26977.1
27035.1
27093
27150.7
27208.1
27265.2
27321.7
27377.7
27433
27487.4
27540.9
27593.4
27644.8
27695
27743.8
27791.2
27837.2
27881.6
27924.4
27965.4
28004.6
28041.9
28077.2
28110.7
28142.1
28171.4
28198.6
28223.7
28246.6
28267.3
28285.9
28302.2
28316.2
28328.1
28337.7
28345.1
28350.3
28353.4
28354.2
28353
28349.6
28344.2
28336.7
28327.2
28315.8
28302.5
28287.4
28270.4
28251.8
28231.5
28209.7
28186.3
28161.5
28135.4
28107.9
28079.3
28049.5
28018.6
27986.9
27954.2
27920.8
27886.7
27851.9
27816.7
27781
27745
27708.8
27672.4
27635.9
27599.5
27563.2
27527.1
27491.2
27455.7
27420.7
27386.1
27352.2
27319
27286.5
27254.9
27224.2
27194.5
27165.7
27138.1
27111.6
27086.2
27062.2
27039.4
27018
26998
26979.4
26962.2
26946.6
26932.4
26919.8
26908.7
26899.2
26891.1
26884.7
26879.7
26876.4
26874.5
26874.4
26875.7
26878.6
26882.9
26888.6
26895.7
26904.2
26914
26925.1
26937.4
26950.9
26965.5
26981.1
26997.8
27015.4
27033.8
27053.1
27073.1
27093.8
27115
27136.8
27158.9
27181.5
27204.3
27227.3
27250.5
27273.7
27296.8
27319.9
27342.8
27365.4
27387.7
27409.7
27431.2
27452.1
27472.5
27492.3
27511.4
27529.8
27547.5
27564.4
27580.4
27595.6
27609.9
27623.3
27635.8
27647.4
27658.2
27668
27676.9
27685
27692.2
27698.6
27704.2
27708.9
27713
27716.3
27718.9
27720.9
27722.3
27723.2
27723.5
27723.3
27722.7
27721.7
27720.4
27718.7
27716.8
27714.7
27712.4
27709.9
27707.3
27704.7
27702.1
27699.4
27696.8
27694.3
27691.8
27689.5
27687.4
27685.4
27683.6
27682.1
27680.8
27679.7
27678.9
27678.4
27678.1
27678
27678.3
27678.8
27679.6
27680.6
27681.8
27683.2
27684.8
27686.6
27688.5
27690.6
27692.7
27694.8
27697
27699.2
27701.3
27703.3
27705.2
27706.9
27708.3
27709.5
27710.4
27711
27711.1
27710.8
27709.9
27708.6
27706.6
27704
27700.7
27696.8
27692
27686.5
27680.1
27672.8
27664.7
27655.6
27645.6
27634.7
27622.8
27609.9
27596
27581.2
27565.3
27548.6
27530.9
27512.3
27492.9
27472.7
27451.8
27430.1
27407.8
27385
27361.7
27337.9
27313.9
27289.6
27265.1
27240.7
27216.3
27192
27168
27144.4
27121.3
27098.7
27076.9
27055.8
27035.6
27016.4
26998.3
26981.4
26965.7
26951.4
26938.5
26927.2
26917.4
26909.3
26902.9
26898.3
26895.4
26894.5
26895.4
26898.3
26903.1
26909.9
26918.7
26929.4
26942.2
26956.9
26973.5
26992.1
27012.5
27034.8
27059
27084.8
27112.4
27141.6
27172.3
27204.6
27238.2
27273.1
27309.2
27346.4
27384.6
27423.7
27463.6
27504.1
27545.1
27586.5
27628.2
27670
27711.7
27753.3
27794.7
27835.5
27875.8
27915.3
27953.9
27991.5
28027.9
28063
28096.6
28128.5
28158.7
28187
28213.3
28237.4
28259.2
28278.7
28295.5
28309.8
28321.3
28330
28335.8
28338.5
28338.2
28334.7
28328
28318.1
28304.9
28288.3
28268.4
28245.2
28218.6
28188.8
28155.6
28119.2
28079.6
28036.9
27991.1
27942.4
27890.9
27836.5
27779.7
27720.5
27659
27595.5
27530
27462.8
27394.1
27324.1
27253
27181
27108.3
27035.2
26961.8
26888.4
26815.3
26742.5
26670.4
26599.1
26528.8
26459.7
26392
26325.9
26261.4
26198.8
26138.2
26079.6
26023.3
25969.3
25917.7
25868.6
25822
25778
25736.7
25698.1
25662.1
25628.9
25598.5
25570.8
25545.9
25523.7
25504.2
25487.5
25473.4
25462
25453.3
25447.2
25443.7
25442.8
25444.3
25448.4
25454.9
25463.8
25475.1
25488.7
25504.6
25522.8
25543.1
25565.7
25590.3
25617.1
25645.9
25676.6
25709.4
25744
25780.5
25818.9
25859
25900.8
25944.4
25989.5
26036.3
26084.6
26134.5
26185.8
26238.5
26292.5
26347.9
26404.5
26462.2
26521.1
26581.1
26642.1
26704
26766.8
26830.3
26894.6
26959.5
27025
27090.9
27157.3
27224
27291
27358.2
27425.4
27492.7
27559.9
27627
27694
27760.7
27827.1
27893.2
27958.8
28023.9
28088.5
28152.5
28215.9
28278.5
28340.4
28401.6
28461.9
28521.4
28579.9
28637.5
28694.2
28749.8
28804.4
28857.9
28910.3
28961.6
29011.7
29060.6
29108.3
29154.8
29200
29243.9
29286.5
29327.8
29367.8
29406.5
29443.8
29479.8
29514.4
29547.6
29579.4
29609.9
29639
29666.8
29693.1
29718.1
29741.8
29764.1
29785.1
29804.7
29823
29840
29855.8
29870.2
29883.4
29895.3
29906
29915.5
29923.7
29930.9
29936.8
29941.6
29945.3
29947.9
29949.4
29949.9
29949.3
29947.8
29945.2
29941.7
29937.3
29931.9
29925.7
29918.6
29910.7
29902
29892.5
29882.2
29871.2
29859.5
29847.1
29834.1
29820.4
29806.2
29791.4
29776
29760.1
29743.7
29726.8
29709.5
29691.8
29673.7
29655.2
29636.4
29617.2
29597.8
29578.1
29558.2
29538
29517.6
29497.1
29476.4
29455.6
29434.6
29413.6
29392.5
29371.4
29350.3
29329.1
29308
29286.9
29265.8
29244.8
29223.9
29203.2
29182.5
29162
29141.6
29121.4
29101.4
29081.6
29062
29042.7
29023.5
29004.7
28986.1
28967.8
28949.8
28932
28914.6
28897.6
28880.8
28864.4
28848.4
28832.7
28817.4
28802.4
28787.9
28773.8
28760
28746.7
28733.8
28721.3
28709.2
28697.6
28686.4
28675.7
28665.4
28655.5
28646.2
28637.3
28628.8
28620.9
28613.4
28606.4
28599.9
28593.8
28588.3
28583.2
28578.7
28574.6
28571.1
28568
28565.5
28563.4
28561.9
28560.9
28560.3
27806
27806.1
27806.4
27806.7
27807.2
27807.9
27808.6
27809.5
27810.5
27811.7
27812.9
27814.3
27815.9
27817.5
27819.3
27821.2
27823.3
27825.4
27827.7
27830.1
27832.7
27835.4
27838.2
27841.1
27844.2
27847.4
27850.7
27854.2
27857.8
27861.5
27865.3
27869.3
27873.4
27877.6
27882
27886.5
27891.1
27895.8
27900.7
27905.7
27910.8
27916.1
27921.5
27927
27932.6
27938.4
27944.3
27950.3
27956.4
27962.7
27969.1
27975.6
27982.2
27989
27995.8
28002.8
28010
28017.2
28024.5
28032
28039.6
28047.3
28055.2
28063.1
28071.2
28079.3
28087.6
28096
28104.5
28113.2
28121.9
28130.7
28139.7
28148.7
28157.9
28167.2
28176.5
28186
28195.6
28205.2
28215
28224.8
28234.8
28244.8
28255
28265.2
28275.5
28285.9
28296.3
28306.9
28317.5
28328.3
28339
28349.9
28360.8
28371.9
28382.9
28394.1
28405.3
28416.5
28427.8
28439.2
28450.6
28462.1
28473.6
28485.2
28496.8
28508.4
28520.1
28531.8
28543.6
28555.3
28567.1
28578.9
28590.8
28602.6
28614.4
28626.3
28638.2
28650
28661.9
28673.7
28685.6
28697.4
28709.2
28720.9
28732.7
28744.4
28756.1
28767.7
28779.3
28790.8
28802.3
28813.8
28825.1
28836.4
28847.7
28858.8
28869.9
28880.9
28891.8
28902.5
28913.2
28923.8
28934.3
28944.7
28954.9
28965
28975
28984.8
28994.5
29004.1
29013.4
29022.7
29031.7
29040.6
29049.3
29057.9
29066.2
29074.4
29082.3
29090.1
29097.6
29104.9
29112
29118.8
29125.5
29131.8
29138
29143.8
29149.5
29154.8
29159.9
29164.7
29169.2
29173.4
29177.3
29180.9
29184.2
29187.2
29189.9
29192.2
29194.2
29195.9
29197.2
29198.1
29198.7
29198.9
29198.8
29198.3
29197.4
29196.1
29194.4
29192.3
29189.7
29186.8
29183.5
29179.7
29175.5
29170.9
29165.8
29160.2
29154.2
29147.8
29140.9
29133.5
29125.6
29117.3
29108.4
29099.1
29089.3
29078.9
29068.1
29056.8
29044.9
29032.5
29019.6
29006.2
28992.2
28977.7
28962.6
28947
28930.9
28914.2
28896.9
28879.1
28860.8
28841.8
28822.3
28802.3
28781.6
28760.4
28738.6
28716.2
28693.3
28669.8
28645.7
28621
28595.7
28569.9
28543.4
28516.4
28488.8
28460.6
28431.9
28402.5
28372.6
28342.1
28311
28279.3
28247.1
28214.3
28180.9
28147
28112.5
28077.5
28041.9
28005.8
27969.1
27931.9
27894.1
27855.9
27817.1
27777.8
27738
27697.7
27656.9
27615.7
27573.9
27531.7
27489.1
27446.1
27402.6
27358.7
27314.4
27269.7
27224.6
27179.2
27133.4
27087.3
27040.9
26994.1
26947.1
26899.9
26852.4
26804.6
26756.7
26708.6
26660.3
26611.9
26563.4
26514.7
26466
26417.2
26368.5
26319.7
26270.9
26222.3
26173.7
26125.2
26076.9
26028.8
25980.8
25933.2
25885.8
25838.7
25792
25745.7
25699.8
25654.4
25609.5
25565.1
25521.3
25478.1
25435.6
25393.8
25352.8
25312.5
25273
25234.5
25196.8
25160
25124.3
25089.5
25055.8
25023.2
24991.8
24961.4
24932.3
24904.4
24877.7
24852.4
24828.3
24805.5
24784.1
24764
24745.3
24728
24712.1
24697.7
24684.6
24673
24662.9
24654.2
24647
24641.2
24636.9
24634.1
24632.7
24632.9
24634.5
24637.6
24642.1
24648.2
24655.8
24664.8
24675.3
24687.4
24700.9
24715.9
24732.5
24750.5
24770.1
24791.1
24813.7
24837.8
24863.4
24890.6
24919.2
24949.3
24981
25014.1
25048.7
25084.8
25122.3
25161.2
25201.6
25243.4
25286.5
25331
25376.8
25423.8
25472
25521.4
25572
25623.5
25676.1
25729.6
25784
25839.2
25895.1
25951.6
26008.6
26066.1
26124
26182.1
26240.3
26298.7
26356.9
26415
26472.8
26530.3
26587.2
26643.6
26699.2
26754
26807.9
26860.8
26912.5
26963
27012.2
27060
27106.2
27150.9
27194.1
27235.4
27274.8
27312.3
27347.9
27381.6
27413.1
27442.6
27470
27495.2
27518.2
27539
27557.6
27574
27588.1
27599.9
27609.5
27616.9
27622.1
27625
27625.8
27624.4
27620.8
27615.2
27607.6
27598
27586.4
27572.9
27557.5
27540.3
27521.5
27500.9
27478.8
27455.2
27430.1
27403.6
27375.9
27346.9
27316.8
27285.7
27253.6
27220.6
27186.9
27152.4
27117.4
27081.8
27045.9
27009.6
26973
26936.3
26899.6
26862.9
26826.3
26789.8
26753.7
26718
26682.7
26647.9
26613.8
26580.3
26547.6
26515.8
26484.9
26455
26426.1
26398.3
26371.6
26346.2
26322
26299.1
26277.6
26257.5
26238.9
26221.7
26206
26191.8
26179.1
26168
26158.5
26150.4
26144
26139.1
26135.8
26134
26133.9
26135.3
26138.3
26142.7
26148.5
26155.7
26164.3
26174.3
26185.5
26197.9
26211.6
26226.3
26242.2
26259
26276.8
26295.4
26314.9
26335.1
26356
26377.4
26399.4
26421.8
26444.6
26467.6
26490.9
26514.3
26537.7
26561.1
26584.4
26607.5
26630.3
26652.9
26675
26696.7
26717.8
26738.4
26758.4
26777.6
26796.2
26813.9
26830.9
26847
26862.3
26876.6
26890.1
26902.6
26914.3
26925
26934.8
26943.7
26951.7
26958.9
26965.2
26970.7
26975.4
26979.3
26982.5
26985
26986.9
26988.2
26988.9
26989.1
26988.8
26988.1
26986.9
26985.5
26983.7
26981.7
26979.4
26977
26974.4
26971.7
26969
26966.3
26963.5
26960.8
26958.2
26955.7
26953.3
26951.1
26949.1
26947.3
26945.7
26944.3
26943.2
26942.4
26941.9
26941.6
26941.6
26941.8
26942.4
26943.2
26944.2
26945.5
26947
26948.6
26950.5
26952.5
26954.6
26956.8
26959.1
26961.3
26963.6
26965.8
26967.9
26969.9
26971.7
26973.3
26974.6
26975.6
26976.3
26976.5
26976.3
26975.6
26974.4
26972.5
26970.1
26966.9
26963
26958.4
26952.9
26946.6
26939.4
26931.3
26922.3
26912.3
26901.4
26889.5
26876.6
26862.7
26847.8
26831.9
26815
26797.2
26778.6
26759
26738.6
26717.5
26695.7
26673.2
26650.1
26626.6
26602.6
26578.3
26553.8
26529.1
26504.4
26479.7
26455.2
26431
26407.1
26383.7
26360.9
26338.8
26317.5
26297.1
26277.7
26259.4
26242.2
26226.4
26211.9
26198.9
26187.4
26177.5
26169.2
26162.7
26158
26155.1
26154
26154.9
26157.7
26162.5
26169.3
26178.1
26188.8
26201.6
26216.3
26233
26251.6
26272.2
26294.6
26318.8
26344.8
26372.5
26401.8
26432.8
26465.2
26499
26534.1
26570.4
26607.9
26646.4
26685.7
26725.9
26766.7
26808
26849.7
26891.7
26933.8
26976
27017.9
27059.6
27100.8
27141.4
27181.3
27220.3
27258.3
27295
27330.4
27364.4
27396.7
27427.2
27455.9
27482.5
27506.9
27529
27548.7
27565.9
27580.4
27592.1
27601
27606.9
27609.8
27609.6
27606.3
27599.6
27589.8
27576.5
27560