/*--------------------------------*- C++ -*----------------------------------*\
| =========                 |                                                 |
| \\      /  F ield         | OpenFOAM: The Open Source CFD Toolbox           |
|  \\    /   O peration     | Version:  2412                                  |
|   \\  /    A nd           | Website:  www.openfoam.com                      |
|    \\/     M anipulation  |                                                 |
\*---------------------------------------------------------------------------*/
FoamFile
{
    version     2.0;
    format      ascii;
    arch        "LSB;label=32;scalar=64";
    class       surfaceScalarField;
    location    "6.95";
    object      phi;
}
// * * * * * * * * * * * * * * * * * * * * * * * * * * * * * * * * * * * * * //

dimensions      [0 3 -1 0 0 0 0];

oriented        oriented;

internalField   nonuniform List<scalar> 
12640
(
4.02862e-09
-4.02857e-09
-8.53728e-09
1.32419e-08
-4.18304e-08
3.40667e-08
-9.21745e-08
5.10323e-08
-1.54802e-07
6.3335e-08
-2.25876e-07
7.17771e-08
-3.02674e-07
7.74811e-08
-3.83477e-07
8.14653e-08
-4.67331e-07
8.4498e-08
-5.53794e-07
8.70904e-08
-6.42731e-07
8.95434e-08
-7.34151e-07
9.20041e-08
-8.28107e-07
9.45126e-08
-9.24616e-07
9.70359e-08
-1.02361e-06
9.94881e-08
-1.12489e-06
1.01742e-07
-1.22811e-06
1.03634e-07
-1.33269e-06
1.04962e-07
-1.43783e-06
1.05489e-07
-1.54246e-06
1.04936e-07
-1.64518e-06
1.02982e-07
-1.74422e-06
9.92708e-08
-1.83742e-06
9.34107e-08
-1.92223e-06
8.49928e-08
-1.99566e-06
7.36106e-08
-2.05438e-06
5.8893e-08
-2.09474e-06
4.05476e-08
-2.11296e-06
1.84154e-08
-2.10526e-06
-7.47174e-09
-2.06818e-06
-3.68284e-08
-1.99881e-06
-6.90822e-08
-1.89514e-06
-1.03346e-07
-1.7563e-06
-1.38466e-07
-1.58281e-06
-1.73073e-07
-1.37661e-06
-2.05739e-07
-1.14103e-06
-2.35068e-07
-8.80595e-07
-2.59881e-07
-6.00762e-07
-2.79237e-07
-3.07618e-07
-2.92514e-07
-7.63789e-09
-2.99324e-07
2.92536e-07
-2.99502e-07
5.86248e-07
-2.93034e-07
8.67001e-07
-2.80074e-07
1.12866e-06
-2.60988e-07
1.36571e-06
-2.3639e-07
1.57355e-06
-2.07205e-07
1.74877e-06
-1.74612e-07
1.88936e-06
-1.40004e-07
1.99474e-06
-1.04823e-07
2.06572e-06
-7.0452e-08
2.10425e-06
-3.80593e-08
2.11321e-06
-8.54429e-09
2.09606e-06
1.75065e-08
2.05656e-06
3.97907e-08
1.99854e-06
5.82619e-08
1.92564e-06
7.30721e-08
1.84123e-06
8.45182e-08
1.7483e-06
9.29852e-08
1.64943e-06
9.88999e-08
1.54678e-06
1.02688e-07
1.4421e-06
1.04745e-07
1.33683e-06
1.05417e-07
1.23207e-06
1.05004e-07
1.12863e-06
1.03766e-07
1.02709e-06
1.01929e-07
9.27832e-07
9.96967e-08
8.31052e-07
9.72414e-08
7.36827e-07
9.47046e-08
6.45141e-07
9.21851e-08
5.55946e-07
8.97239e-08
4.6923e-07
8.7282e-08
3.85127e-07
8.47076e-08
3.04069e-07
8.16922e-08
2.27005e-07
7.77182e-08
1.55655e-07
7.20156e-08
9.27563e-08
6.35692e-08
4.2175e-08
5.12573e-08
8.5749e-09
3.4284e-08
-4.2728e-09
1.35392e-08
-3.61543e-09
-1.27285e-08
9.64795e-09
-6.6533e-08
6.85671e-08
-1.63909e-07
1.32947e-07
-2.98246e-07
1.86782e-07
-4.6087e-07
2.27346e-07
-6.44166e-07
2.56423e-07
-8.42408e-07
2.77032e-07
-1.05176e-06
2.92094e-07
-1.26996e-06
3.03928e-07
-1.49581e-06
3.14146e-07
-1.72886e-06
3.23743e-07
-1.96898e-06
3.33224e-07
-2.21616e-06
3.42741e-07
-2.47033e-06
3.52189e-07
-2.7312e-06
3.6127e-07
-2.99815e-06
3.69529e-07
-3.27012e-06
3.76374e-07
-3.54555e-06
3.81074e-07
-3.82221e-06
3.82762e-07
-4.09717e-06
3.80425e-07
-4.36662e-06
3.72908e-07
-4.62586e-06
3.5892e-07
-4.86916e-06
3.37066e-07
-5.08972e-06
3.05891e-07
-5.27975e-06
2.63961e-07
-5.43051e-06
2.09981e-07
-5.53255e-06
1.42946e-07
-5.57608e-06
6.23317e-08
-5.5514e-06
-3.16961e-08
-5.44962e-06
-1.38089e-07
-5.26333e-06
-2.54757e-07
-4.98742e-06
-3.78542e-07
-4.61977e-06
-5.05293e-07
-4.16173e-06
-6.30173e-07
-3.6184e-06
-7.48025e-07
-2.99839e-06
-8.53923e-07
-2.31348e-06
-9.43545e-07
-1.57786e-06
-1.01355e-06
-8.07423e-07
-1.06158e-06
-1.91018e-08
-1.08625e-06
7.69687e-07
-1.08689e-06
1.54151e-06
-1.06347e-06
2.27938e-06
-1.01658e-06
2.96727e-06
-9.47554e-07
3.59088e-06
-8.58699e-07
4.13826e-06
-7.53329e-07
4.6006e-06
-6.35749e-07
4.97263e-06
-5.10899e-07
5.25283e-06
-3.83967e-07
5.44318e-06
-2.59842e-07
5.54868e-06
-1.42725e-07
5.57662e-06
-3.58198e-08
5.53588e-06
5.87477e-08
5.43611e-06
1.39899e-07
5.28713e-06
2.07444e-07
5.09843e-06
2.61899e-07
4.87878e-06
3.04265e-07
4.63605e-06
3.35844e-07
4.37707e-06
3.58078e-07
4.10765e-06
3.72428e-07
3.83255e-06
3.80288e-07
3.55559e-06
3.82933e-07
3.27977e-06
3.81498e-07
3.00731e-06
3.76981e-07
2.73982e-06
3.70252e-07
2.47834e-06
3.62053e-07
2.22351e-06
3.52998e-07
1.97564e-06
3.43562e-07
1.73482e-06
3.34058e-07
1.50108e-06
3.24598e-07
1.27453e-06
3.15029e-07
1.05567e-06
3.04835e-07
8.45654e-07
2.93016e-07
6.46767e-07
2.77949e-07
4.62844e-07
2.57307e-07
2.99636e-07
2.28162e-07
1.64787e-07
1.87493e-07
6.69271e-08
1.33516e-07
1.28191e-08
6.89744e-08
9.81109e-09
-3.34256e-08
4.38479e-08
-1.3066e-07
1.67165e-07
-2.85779e-07
2.89413e-07
-4.89148e-07
3.91435e-07
-7.30238e-07
4.69701e-07
-9.99832e-07
5.27258e-07
-1.29087e-06
5.69276e-07
-1.5985e-06
6.00899e-07
-1.91974e-06
6.26318e-07
-2.25302e-06
6.48523e-07
-2.59761e-06
6.694e-07
-2.95331e-06
6.89935e-07
-3.32005e-06
7.10431e-07
-3.69764e-06
7.30681e-07
-4.08562e-06
7.50083e-07
-4.48304e-06
7.6771e-07
-4.8883e-06
7.82341e-07
-5.29906e-06
7.92466e-07
-5.71202e-06
7.96286e-07
-6.12279e-06
7.917e-07
-6.52573e-06
7.76308e-07
-6.91383e-06
7.47432e-07
-7.27854e-06
7.02171e-07
-7.60976e-06
6.37501e-07
-7.89584e-06
5.50433e-07
-8.12371e-06
4.3826e-07
-8.27918e-06
2.98863e-07
-8.34746e-06
1.31115e-07
-8.31389e-06
-6.46978e-08
-8.16489e-06
-2.86439e-07
-7.88909e-06
-5.29821e-07
-7.47853e-06
-7.88266e-07
-6.92974e-06
-1.05315e-06
-6.24459e-06
-1.31428e-06
-5.43061e-06
-1.56087e-06
-4.50082e-06
-1.78248e-06
-3.47299e-06
-1.97009e-06
-2.36862e-06
-2.11658e-06
-1.21173e-06
-2.21711e-06
-2.78959e-08
-2.26873e-06
1.15663e-06
-2.27009e-06
2.31557e-06
-2.22112e-06
3.42325e-06
-2.12304e-06
4.45548e-06
-1.97864e-06
5.39056e-06
-1.79271e-06
6.21047e-06
-1.57224e-06
6.90192e-06
-1.32626e-06
7.4571e-06
-1.0652e-06
7.87389e-06
-7.99936e-07
8.15558e-06
-5.40732e-07
8.30995e-06
-2.96336e-07
8.34827e-06
-7.34322e-08
8.28405e-06
1.23605e-07
8.13192e-06
2.9257e-07
7.90667e-06
4.33127e-07
7.62253e-06
5.4638e-07
7.29262e-06
6.3444e-07
6.92869e-06
7.00013e-07
6.54095e-06
7.46086e-07
6.13801e-06
7.75683e-07
5.72699e-06
7.91702e-07
5.31359e-06
7.96811e-07
4.90224e-06
7.93404e-07
4.49627e-06
7.83586e-07
4.09806e-06
7.69171e-07
3.7092e-06
7.51689e-07
3.33067e-06
7.32382e-07
2.96295e-06
7.122e-07
2.60624e-06
6.91754e-07
2.26064e-06
6.71258e-07
1.92636e-06
6.50407e-07
1.60413e-06
6.28212e-07
1.29554e-06
6.0278e-07
1.00357e-06
5.71111e-07
7.33087e-07
5.29008e-07
4.91178e-07
4.71313e-07
2.87096e-07
3.9284e-07
1.31359e-07
2.90522e-07
3.36871e-08
1.67879e-07
4.40611e-08
-5.02302e-08
9.48332e-08
-1.83512e-07
3.01772e-07
-3.8546e-07
4.92654e-07
-6.42679e-07
6.49891e-07
-9.43017e-07
7.71255e-07
-1.27643e-06
8.61863e-07
-1.63536e-06
9.29369e-07
-2.01464e-06
9.81313e-07
-2.4111e-06
1.02387e-06
-2.82303e-06
1.06152e-06
-3.24972e-06
1.09711e-06
-3.69097e-06
1.13216e-06
-4.14673e-06
1.16712e-06
-4.61686e-06
1.20167e-06
-5.10081e-06
1.23484e-06
-5.59749e-06
1.26514e-06
-6.10503e-06
1.29057e-06
-6.62064e-06
1.30869e-06
-7.14032e-06
1.31653e-06
-7.65876e-06
1.31065e-06
-8.16907e-06
1.28709e-06
-8.66262e-06
1.2414e-06
-9.12881e-06
1.16877e-06
-9.55502e-06
1.06412e-06
-9.92657e-06
9.22403e-07
-1.02268e-05
7.38957e-07
-1.04375e-05
5.1006e-07
-1.05394e-05
2.33565e-07
-1.05131e-05
-9.03333e-08
-1.03404e-05
-4.58371e-07
-1.00057e-05
-8.63588e-07
-9.49783e-06
-1.29512e-06
-8.81142e-06
-1.73841e-06
-7.94821e-06
-2.17622e-06
-6.91766e-06
-2.59005e-06
-5.73657e-06
-2.96211e-06
-4.42823e-06
-3.27691e-06
-3.02067e-06
-3.52259e-06
-1.54524e-06
-3.69098e-06
-3.5018e-08
-3.77742e-06
1.4761e-06
-3.77973e-06
2.95419e-06
-3.6978e-06
4.36603e-06
-3.53356e-06
5.68008e-06
-3.29148e-06
6.86798e-06
-2.9795e-06
7.90615e-06
-2.6094e-06
8.77739e-06
-2.19658e-06
9.47189e-06
-1.75887e-06
9.98758e-06
-1.31488e-06
1.03295e-05
-8.81992e-07
1.05088e-05
-4.74975e-07
1.05409e-05
-1.04877e-07
1.0444e-05
2.21186e-07
1.02373e-05
4.99829e-07
9.94022e-06
7.30769e-07
9.57103e-06
9.161e-07
9.14644e-06
1.05952e-06
8.68123e-06
1.16568e-06
8.18814e-06
1.23961e-06
7.67782e-06
1.28641e-06
7.15903e-06
1.31091e-06
6.63874e-06
1.31755e-06
6.12234e-06
1.3103e-06
5.61385e-06
1.29265e-06
5.11614e-06
1.26756e-06
4.63108e-06
1.23751e-06
4.15979e-06
1.20451e-06
3.70282e-06
1.17008e-06
3.26035e-06
1.1352e-06
2.83242e-06
1.10021e-06
2.41926e-06
1.06464e-06
2.0216e-06
1.02699e-06
1.64114e-06
9.84387e-07
1.28107e-06
9.32355e-07
9.46573e-07
8.64695e-07
6.45236e-07
7.73851e-07
3.87135e-07
6.52144e-07
1.84432e-07
4.94425e-07
5.05685e-08
3.02902e-07
9.51771e-08
-6.19265e-08
1.57457e-07
-2.21319e-07
4.62449e-07
-4.57498e-07
7.30072e-07
-7.53599e-07
9.47184e-07
-1.09593e-06
1.11475e-06
-1.47386e-06
1.24094e-06
-1.87968e-06
1.33631e-06
-2.30825e-06
1.41097e-06
-2.75651e-06
1.47319e-06
-3.22289e-06
1.52893e-06
-3.70684e-06
1.58204e-06
-4.20832e-06
1.63457e-06
-4.72747e-06
1.68716e-06
-5.2643e-06
1.73933e-06
-5.8184e-06
1.78973e-06
-6.38878e-06
1.83624e-06
-6.97356e-06
1.87604e-06
-7.56986e-06
1.90561e-06
-8.17346e-06
1.92072e-06
-8.77864e-06
1.91637e-06
-9.37786e-06
1.88682e-06
-9.96151e-06
1.82556e-06
-1.05177e-05
1.72546e-06
-1.10319e-05
1.57891e-06
-1.14872e-05
1.37824e-06
-1.18639e-05
1.11621e-06
-1.21399e-05
7.86761e-07
-1.22916e-05
3.86068e-07
-1.22947e-05
-8.63484e-08
-1.21257e-05
-6.26354e-07
-1.17639e-05
-1.22421e-06
-1.11938e-05
-1.86394e-06
-1.04069e-05
-2.52377e-06
-9.40428e-06
-3.17729e-06
-8.19651e-06
-3.7961e-06
-6.80421e-06
-4.3526e-06
-5.25606e-06
-4.82318e-06
-3.58692e-06
-5.18979e-06
-1.83523e-06
-5.44073e-06
-4.13896e-08
-5.56934e-06
1.75359e-06
-5.57284e-06
3.50857e-06
-5.45102e-06
5.18304e-06
-5.2064e-06
6.73824e-06
-4.8452e-06
8.13897e-06
-4.37893e-06
9.35607e-06
-3.82534e-06
1.03685e-05
-3.208e-06
1.11651e-05
-2.55452e-06
1.17445e-05
-1.89349e-06
1.21148e-05
-1.25156e-06
1.22915e-05
-6.50827e-07
1.22949e-05
-1.07573e-07
1.21487e-05
3.6821e-07
1.18771e-05
7.72198e-07
1.15039e-05
1.10473e-06
1.10512e-05
1.36957e-06
1.05386e-05
1.57272e-06
9.98342e-06
1.72143e-06
9.40016e-06
1.82338e-06
8.80084e-06
1.88619e-06
8.19517e-06
1.91702e-06
7.59078e-06
1.9224e-06
6.99348e-06
1.9081e-06
6.40755e-06
1.87916e-06
5.83593e-06
1.83983e-06
5.28052e-06
1.79366e-06
4.74234e-06
1.74351e-06
4.22181e-06
1.6915e-06
3.71893e-06
1.63901e-06
3.23358e-06
1.58653e-06
2.7658e-06
1.53343e-06
2.31617e-06
1.47767e-06
1.88626e-06
1.41538e-06
1.47915e-06
1.34058e-06
1.09999e-06
1.24499e-06
7.56532e-07
1.11847e-06
4.5942e-07
9.50419e-07
2.22388e-07
7.32629e-07
6.23011e-08
4.64108e-07
1.58011e-07
-6.91043e-08
2.27231e-07
-2.45247e-07
6.39847e-07
-5.03777e-07
9.89798e-07
-8.25254e-07
1.26981e-06
-1.19473e-06
1.48535e-06
-1.60112e-06
1.64843e-06
-2.0367e-06
1.77297e-06
-2.49654e-06
1.87185e-06
-2.97781e-06
1.95548e-06
-3.47927e-06
2.03136e-06
-4.00064e-06
2.10435e-06
-4.54221e-06
2.17704e-06
-5.10445e-06
2.25025e-06
-5.68768e-06
2.32337e-06
-6.29185e-06
2.39466e-06
-6.91629e-06
2.46139e-06
-7.55947e-06
2.51988e-06
-8.21877e-06
2.56553e-06
-8.89021e-06
2.59275e-06
-9.56817e-06
2.59491e-06
-1.0245e-05
2.56427e-06
-1.0911e-05
2.49205e-06
-1.15533e-05
2.36841e-06
-1.21565e-05
2.18277e-06
-1.27017e-05
1.92414e-06
-1.31666e-05
1.58185e-06
-1.35255e-05
1.14657e-06
-1.37501e-05
6.11681e-07
-1.38103e-05
-2.49619e-08
-1.36762e-05
-7.59173e-07
-1.33203e-05
-1.57861e-06
-1.27208e-05
-2.46176e-06
-1.18648e-05
-3.37795e-06
-1.07506e-05
-4.28939e-06
-9.3901e-06
-5.15447e-06
-7.80735e-06
-5.93304e-06
-6.03752e-06
-6.59057e-06
-4.12296e-06
-7.10182e-06
-2.11033e-06
-7.45074e-06
-4.77146e-08
-7.62929e-06
2.01625e-06
-7.63415e-06
4.03296e-06
-7.46517e-06
5.95404e-06
-7.12506e-06
7.73255e-06
-6.62152e-06
9.32558e-06
-5.97001e-06
1.06975e-05
-5.19554e-06
1.18233e-05
-4.3324e-06
1.26909e-05
-3.42086e-06
1.33013e-05
-2.50273e-06
1.3667e-05
-1.61624e-06
1.38096e-05
-7.92527e-07
1.37565e-05
-5.35588e-08
1.35378e-05
5.87945e-07
1.31834e-05
1.12751e-06
1.2722e-05
1.56711e-06
1.21792e-05
1.91325e-06
1.15776e-05
2.17523e-06
1.0936e-05
2.36372e-06
1.02703e-05
2.48975e-06
9.5931e-06
2.56396e-06
8.91443e-06
2.59622e-06
8.24198e-06
2.59536e-06
7.58147e-06
2.56917e-06
6.93694e-06
2.5243e-06
6.31106e-06
2.46638e-06
5.7054e-06
2.40007e-06
5.12066e-06
2.32906e-06
4.55689e-06
2.25612e-06
4.01377e-06
2.18303e-06
3.49086e-06
2.11038e-06
2.98788e-06
2.03738e-06
2.50511e-06
1.96144e-06
2.04382e-06
1.8777e-06
1.60684e-06
1.77863e-06
1.19913e-06
1.65379e-06
8.28434e-07
1.49028e-06
5.05856e-07
1.27411e-06
2.46406e-07
9.93221e-07
6.95008e-08
6.42096e-07
2.28026e-07
-7.27639e-08
3.0065e-07
-2.57924e-07
8.26228e-07
-5.2876e-07
1.26178e-06
-8.64258e-07
1.60642e-06
-1.24864e-06
1.87082e-06
-1.67055e-06
2.07139e-06
-2.12233e-06
2.22579e-06
-2.59931e-06
2.34983e-06
-3.09901e-06
2.45615e-06
-3.62055e-06
2.55384e-06
-4.16408e-06
2.64878e-06
-4.73032e-06
2.74414e-06
-5.3202e-06
2.84094e-06
-5.93455e-06
2.9385e-06
-6.57388e-06
3.03472e-06
-7.23809e-06
3.1263e-06
-7.92631e-06
3.20876e-06
-8.63656e-06
3.27642e-06
-9.36555e-06
3.32237e-06
-1.01083e-05
3.33828e-06
-1.08578e-05
3.31438e-06
-1.16044e-05
3.23936e-06
-1.23357e-05
3.10042e-06
-1.30356e-05
2.88341e-06
-1.36839e-05
2.57331e-06
-1.42561e-05
2.15497e-06
-1.47229e-05
1.61442e-06
-1.50506e-05
9.40676e-07
-1.52024e-05
1.28211e-07
-1.51398e-05
-8.20149e-07
-1.48261e-05
-1.89044e-06
-1.42306e-05
-3.05525e-06
-1.33327e-05
-4.27363e-06
-1.21267e-05
-5.49294e-06
-1.06239e-05
-6.65463e-06
-8.8529e-06
-7.70109e-06
-6.85642e-06
-8.58393e-06
-4.68671e-06
-9.26817e-06
-2.40021e-06
-9.73367e-06
-5.46709e-08
-9.97108e-06
2.29259e-06
-9.97758e-06
4.58404e-06
-9.75277e-06
6.76184e-06
-9.29915e-06
8.76897e-06
-8.6252e-06
1.05526e-05
-7.75058e-06
1.20693e-05
-6.70953e-06
1.32894e-05
-5.55031e-06
1.42011e-05
-4.33053e-06
1.48092e-05
-3.1092e-06
1.51339e-05
-1.93951e-06
1.52058e-05
-8.6315e-07
1.50617e-05
9.18362e-08
1.47398e-05
9.10943e-07
1.42775e-05
1.59098e-06
1.37085e-05
2.13724e-06
1.30623e-05
2.56058e-06
1.23636e-05
2.87495e-06
1.16328e-05
3.09553e-06
1.08859e-05
3.23741e-06
1.01358e-05
3.31482e-06
9.39204e-06
3.34064e-06
8.66176e-06
3.32626e-06
7.95004e-06
3.2815e-06
7.26026e-06
3.21472e-06
6.59441e-06
3.13292e-06
5.95342e-06
3.04179e-06
5.33739e-06
2.94587e-06
4.74583e-06
2.8485e-06
4.17792e-06
2.75179e-06
3.63274e-06
2.65645e-06
3.10958e-06
2.56147e-06
2.6083e-06
2.46368e-06
2.1298e-06
2.3572e-06
1.67654e-06
2.2329e-06
1.25325e-06
2.07814e-06
8.67586e-07
1.87701e-06
5.30926e-07
1.61184e-06
2.59129e-07
1.26612e-06
7.31718e-08
8.29097e-07
3.01685e-07
-7.38534e-08
3.75137e-07
-2.62062e-07
1.01561e-06
-5.3723e-07
1.53805e-06
-8.7767e-07
1.94792e-06
-1.26724e-06
2.26141e-06
-1.69449e-06
2.49965e-06
-2.15193e-06
2.68421e-06
-2.63516e-06
2.83401e-06
-3.14212e-06
2.96402e-06
-3.67235e-06
3.08496e-06
-4.22651e-06
3.20378e-06
-4.80584e-06
3.32428e-06
-5.41187e-06
3.44775e-06
-6.04611e-06
3.57348e-06
-6.7098e-06
3.69912e-06
-7.4037e-06
3.82088e-06
-8.12788e-06
3.93359e-06
-8.88141e-06
4.0306e-06
-9.66213e-06
4.10373e-06
-1.04663e-05
4.14307e-06
-1.12879e-05
4.13676e-06
-1.21188e-05
4.07091e-06
-1.2947e-05
3.92944e-06
-1.37569e-05
3.69417e-06
-1.45277e-05
3.34518e-06
-1.52332e-05
2.86158e-06
-1.58405e-05
2.22296e-06
-1.63101e-05
1.41174e-06
-1.65967e-05
4.16457e-07
-1.66509e-05
-7.64045e-07
-1.64234e-05
-2.1159e-06
-1.58698e-05
-3.60655e-06
-1.49581e-05
-5.1828e-06
-1.36744e-05
-6.7737e-06
-1.20287e-05
-8.29721e-06
-1.00538e-05
-9.67248e-06
-7.80274e-06
-1.08311e-05
-5.34041e-06
-1.17262e-05
-2.73711e-06
-1.23323e-05
-6.27699e-08
-1.26404e-05
2.61356e-06
-1.26486e-05
5.22305e-06
-1.23568e-05
7.69527e-06
-1.17659e-05
9.95966e-06
-1.08844e-05
1.19503e-05
-9.73652e-06
1.36132e-05
-8.36839e-06
1.4914e-05
-6.8478e-06
1.58422e-05
-5.25586e-06
1.64105e-05
-3.67514e-06
1.66506e-05
-2.17754e-06
1.66064e-05
-8.17269e-07
1.63276e-05
3.72172e-07
1.58638e-05
1.37622e-06
1.52606e-05
2.19556e-06
1.45577e-05
2.8414e-06
1.37883e-05
3.33122e-06
1.2979e-05
3.68543e-06
1.21506e-05
3.92497e-06
1.13191e-05
4.0699e-06
1.04963e-05
4.1385e-06
9.69078e-06
4.14697e-06
8.90843e-06
4.10932e-06
8.15313e-06
4.03746e-06
7.42713e-06
3.9414e-06
6.73137e-06
3.82937e-06
6.06583e-06
3.70805e-06
5.42976e-06
3.58269e-06
4.82192e-06
3.45712e-06
4.24081e-06
3.3337e-06
3.68492e-06
3.21317e-06
3.153e-06
3.09426e-06
2.6444e-06
2.97317e-06
2.15958e-06
2.84295e-06
1.70062e-06
2.69282e-06
1.27195e-06
2.50781e-06
8.81068e-07
2.2689e-06
5.39433e-07
1.95449e-06
2.63281e-07
1.54332e-06
7.4264e-08
1.01911e-06
3.76411e-07
-7.31016e-08
4.48841e-07
-2.59894e-07
1.20351e-06
-5.3329e-07
1.81248e-06
-8.71646e-07
2.28729e-06
-1.25885e-06
2.64959e-06
-1.68356e-06
2.92533e-06
-2.13852e-06
3.1401e-06
-2.61965e-06
3.31605e-06
-3.12532e-06
3.47054e-06
-3.65556e-06
3.61602e-06
-4.21158e-06
3.76059e-06
-4.79526e-06
3.90873e-06
-5.40884e-06
4.06207e-06
-6.05466e-06
4.22e-06
-6.73489e-06
4.38003e-06
-7.45138e-06
4.53804e-06
-8.20544e-06
4.6883e-06
-8.99756e-06
4.82339e-06
-9.82721e-06
4.93405e-06
-1.06924e-05
5.00893e-06
-1.15891e-05
5.03424e-06
-1.25109e-05
4.99352e-06
-1.34478e-05
4.86727e-06
-1.43855e-05
4.63286e-06
-1.53039e-05
4.2646e-06
-1.61754e-05
3.7344e-06
-1.69643e-05
3.01322e-06
-1.76248e-05
2.0738e-06
-1.81015e-05
8.94933e-07
-1.83311e-05
-5.32451e-07
-1.82464e-05
-2.19838e-06
-1.77839e-05
-4.06662e-06
-1.68928e-05
-6.07116e-06
-1.55464e-05
-8.1171e-06
-1.37486e-05
-1.00915e-05
-1.15377e-05
-1.18794e-05
-8.97916e-06
-1.33851e-05
-6.15647e-06
-1.45438e-05
-3.15831e-06
-1.53248e-05
-7.27162e-08
-1.57198e-05
3.01552e-06
-1.57302e-05
6.0211e-06
-1.53554e-05
8.85627e-06
-1.45939e-05
1.14313e-05
-1.34525e-05
1.36621e-05
-1.19608e-05
1.54813e-05
-1.01819e-05
1.68493e-05
-8.21106e-06
1.77602e-05
-6.16304e-06
1.824e-05
-4.15193e-06
1.83387e-05
-2.27388e-06
1.81199e-05
-5.96455e-07
1.7651e-05
8.42824e-07
1.69958e-05
2.033e-06
1.62102e-05
2.98263e-06
1.53404e-05
3.71266e-06
1.44226e-05
4.25032e-06
1.34846e-05
4.62469e-06
1.25467e-05
4.86402e-06
1.16235e-05
4.99416e-06
1.07251e-05
5.03791e-06
9.858e-06
5.01492e-06
9.0263e-06
4.9418e-06
8.23207e-06
4.83243e-06
7.47589e-06
4.69827e-06
6.7573e-06
4.54865e-06
6.07503e-06
4.39103e-06
5.42722e-06
4.23122e-06
4.8117e-06
4.07337e-06
4.22615e-06
3.92001e-06
3.66833e-06
3.77178e-06
3.13634e-06
3.62706e-06
2.629e-06
3.48136e-06
2.14624e-06
3.32658e-06
1.68974e-06
3.15023e-06
1.26358e-06
2.9349e-06
8.75054e-07
2.65839e-06
5.35494e-07
2.295e-06
2.6111e-07
1.81869e-06
7.3512e-08
1.20766e-06
4.50362e-07
-7.0996e-08
5.20405e-07
-2.53048e-07
1.38661e-06
-5.20091e-07
2.08051e-06
-8.51041e-07
2.6192e-06
-1.23013e-06
3.02959e-06
-1.64625e-06
3.34236e-06
-2.09242e-06
3.58716e-06
-2.56496e-06
3.78944e-06
-3.06266e-06
3.96905e-06
-3.58612e-06
4.14026e-06
-4.13717e-06
4.31238e-06
-4.7184e-06
4.49068e-06
-5.33289e-06
4.67725e-06
-5.98391e-06
4.8717e-06
-6.67477e-06
5.07156e-06
-7.40862e-06
5.27255e-06
-8.1883e-06
5.46863e-06
-9.01612e-06
5.65188e-06
-9.89361e-06
5.81225e-06
-1.08212e-05
5.93725e-06
-1.17976e-05
6.01146e-06
-1.28193e-05
6.01606e-06
-1.38793e-05
5.92822e-06
-1.4966e-05
5.72061e-06
-1.60613e-05
5.36104e-06
-1.71382e-05
4.81268e-06
-1.81589e-05
4.03525e-06
-1.90714e-05
2.98788e-06
-1.98091e-05
1.63441e-06
-2.02911e-05
-4.861e-08
-2.04265e-05
-2.06089e-06
-2.01234e-05
-4.36743e-06
-1.9303e-05
-6.88889e-06
-1.79151e-05
-9.50197e-06
-1.5953e-05
-1.205e-05
-1.34578e-05
-1.43706e-05
-1.05124e-05
-1.63258e-05
-7.22456e-06
-1.78264e-05
-3.71098e-06
-1.88326e-05
-8.49626e-08
-1.93395e-05
3.54396e-06
-1.93523e-05
7.06706e-06
-1.88711e-05
1.03702e-05
-1.78891e-05
1.33368e-05
-1.64108e-05
1.58572e-05
-1.44732e-05
1.78466e-05
-1.21641e-05
1.92613e-05
-9.61979e-06
2.0106e-05
-7.0031e-06
2.04296e-05
-4.47197e-06
2.031e-05
-2.15179e-06
1.98393e-05
-1.23948e-07
1.91089e-05
1.57468e-06
1.82008e-05
2.9426e-06
1.71822e-05
4.00258e-06
1.61056e-05
4.79062e-06
1.50096e-05
5.34764e-06
1.39214e-05
5.71414e-06
1.28594e-05
5.92718e-06
1.18355e-05
6.01921e-06
1.08566e-05
6.01778e-06
9.92655e-06
5.94594e-06
9.04651e-06
5.82268e-06
8.21618e-06
5.66353e-06
7.43406e-06
5.48111e-06
6.69786e-06
5.28555e-06
6.00475e-06
5.08484e-06
5.35158e-06
4.88508e-06
4.73504e-06
4.69061e-06
4.15186e-06
4.50392e-06
3.59895e-06
4.32543e-06
3.0737e-06
4.15307e-06
2.57429e-06
3.98156e-06
2.10011e-06
3.80157e-06
1.65238e-06
3.59881e-06
1.23481e-06
3.35335e-06
8.54416e-07
3.03969e-06
5.2227e-07
2.62806e-06
2.54253e-07
2.08765e-06
7.14072e-08
1.39141e-06
5.22185e-07
-6.78272e-08
5.88769e-07
-2.4265e-07
1.56243e-06
-4.9998e-07
2.33875e-06
-8.19621e-07
2.93975e-06
-1.18631e-06
3.39714e-06
-1.58923e-06
3.74614e-06
-2.02172e-06
4.02051e-06
-2.48049e-06
4.24904e-06
-2.96487e-06
4.45421e-06
-3.47606e-06
4.65218e-06
-4.01656e-06
4.85359e-06
-4.5898e-06
5.0646e-06
-5.19978e-06
5.28789e-06
-5.85084e-06
5.52341e-06
-6.54755e-06
5.76893e-06
-7.2946e-06
6.02025e-06
-8.09662e-06
6.27133e-06
-8.95811e-06
6.51406e-06
-9.88318e-06
6.73805e-06
-1.08753e-05
6.93013e-06
-1.19368e-05
7.07377e-06
-1.30681e-05
7.14828e-06
-1.42668e-05
7.1279e-06
-1.55258e-05
6.98068e-06
-1.68311e-05
6.66752e-06
-1.81587e-05
6.14148e-06
-1.94703e-05
5.34824e-06
-2.07096e-05
4.22859e-06
-2.1798e-05
2.72425e-06
-2.26335e-05
7.88596e-07
-2.30942e-05
-1.59846e-06
-2.30488e-05
-4.41083e-06
-2.23747e-05
-7.56067e-06
-2.09846e-05
-1.08895e-05
-1.88481e-05
-1.41834e-05
-1.60069e-05
-1.72084e-05
-1.25637e-05
-1.9765e-05
-8.66179e-06
-2.17242e-05
-4.45635e-06
-2.30336e-05
-1.00782e-07
-2.36906e-05
4.25903e-06
-2.37074e-05
8.47606e-06
-2.30828e-05
1.2398e-05
-2.18049e-05
1.58679e-05
-1.98734e-05
1.87418e-05
-1.73391e-05
2.09132e-05
-1.43275e-05
2.23373e-05
-1.1037e-05
2.30413e-05
-7.70144e-06
2.31108e-05
-4.5374e-06
2.26678e-05
-1.70611e-06
2.18437e-05
7.01635e-07
2.07618e-05
2.65748e-06
1.95252e-05
4.17992e-06
1.82138e-05
5.31488e-06
1.68848e-05
6.12057e-06
1.5577e-05
6.65644e-06
1.4315e-05
6.9772e-06
1.31131e-05
7.13019e-06
1.19784e-05
7.1549e-06
1.09136e-05
7.08356e-06
9.91826e-06
6.94219e-06
8.99009e-06
6.75169e-06
8.12565e-06
6.52875e-06
7.32084e-06
6.28666e-06
6.57117e-06
6.03593e-06
5.87199e-06
5.78471e-06
5.21863e-06
5.53914e-06
4.60651e-06
5.30344e-06
4.03123e-06
5.07989e-06
3.48881e-06
4.86856e-06
2.97582e-06
4.66679e-06
2.48972e-06
4.46842e-06
2.02929e-06
4.26277e-06
1.59525e-06
4.03365e-06
1.1909e-06
3.75853e-06
8.22929e-07
3.40851e-06
5.02108e-07
2.94974e-06
2.43832e-07
2.34681e-06
6.82369e-08
1.56786e-06
5.9081e-07
-6.37634e-08
6.53035e-07
-2.29549e-07
1.72913e-06
-4.74911e-07
2.58495e-06
-7.80633e-07
3.24633e-06
-1.13195e-06
3.74922e-06
-1.51828e-06
4.13326e-06
-1.93327e-06
4.43631e-06
-2.37412e-06
4.69068e-06
-2.84074e-06
4.92157e-06
-3.33504e-06
5.14717e-06
-3.86032e-06
5.37954e-06
-4.4209e-06
5.62582e-06
-5.02178e-06
5.8894e-06
-5.6685e-06
6.17076e-06
-6.36704e-06
6.4681e-06
-7.12378e-06
6.77764e-06
-7.94542e-06
7.09364e-06
-8.83898e-06
7.40831e-06
-9.81162e-06
7.71143e-06
-1.08705e-05
7.98982e-06
-1.20225e-05
8.22657e-06
-1.32733e-05
8.39996e-06
-1.46265e-05
8.48208e-06
-1.60818e-05
8.43707e-06
-1.76322e-05
8.219e-06
-1.92596e-05
7.76998e-06
-2.09292e-05
7.01906e-06
-2.25827e-05
5.88337e-06
-2.41312e-05
4.274e-06
-2.54492e-05
2.108e-06
-2.63766e-05
-6.69615e-07
-2.67271e-05
-4.05859e-06
-2.63155e-05
-7.97043e-06
-2.49912e-05
-1.22116e-05
-2.26838e-05
-1.64885e-05
-1.9424e-05
-2.04657e-05
-1.53398e-05
-2.3847e-05
-1.06192e-05
-2.64429e-05
-5.47586e-06
-2.81757e-05
-1.21201e-07
-2.90447e-05
5.23837e-06
-2.90672e-05
1.03982e-05
-2.82434e-05
1.51445e-05
-2.65512e-05
1.92642e-05
-2.39913e-05
2.25661e-05
-2.06367e-05
2.49189e-05
-1.66744e-05
2.6286e-05
-1.23976e-05
2.67343e-05
-8.14384e-06
2.64119e-05
-4.21014e-06
2.55039e-05
-7.94764e-07
2.4197e-05
2.0102e-06
2.26532e-05
4.20172e-06
2.09999e-05
5.83321e-06
1.93279e-05
6.98698e-06
1.76967e-05
7.75209e-06
1.61417e-05
8.2119e-06
1.46814e-05
8.43802e-06
1.33234e-05
8.48893e-06
1.2068e-05
8.41104e-06
1.09118e-05
8.24062e-06
9.84885e-06
8.0059e-06
8.87248e-06
7.72882e-06
7.97549e-06
7.42647e-06
7.15068e-06
7.11218e-06
6.39104e-06
6.79626e-06
5.68983e-06
6.4866e-06
5.04066e-06
6.18899e-06
4.43753e-06
5.90726e-06
3.87486e-06
5.64325e-06
3.34762e-06
5.39649e-06
2.8515e-06
5.16363e-06
2.38314e-06
4.9375e-06
1.94065e-06
4.70601e-06
1.52413e-06
4.45095e-06
1.13641e-06
4.14704e-06
7.83856e-07
3.76187e-06
4.76968e-07
3.25744e-06
2.30693e-07
2.59391e-06
6.41658e-08
1.73518e-06
6.55326e-07
-5.89554e-08
7.12455e-07
-2.14675e-07
1.88568e-06
-4.47088e-07
2.81809e-06
-7.37685e-07
3.53772e-06
-1.07194e-06
4.08414e-06
-1.43939e-06
4.50138e-06
-1.83401e-06
4.83165e-06
-2.25359e-06
5.11097e-06
-2.69878e-06
5.36745e-06
-3.17234e-06
5.62138e-06
-3.67849e-06
5.8863e-06
-4.22252e-06
6.17043e-06
-4.81052e-06
6.47797e-06
-5.44932e-06
6.81013e-06
-6.14643e-06
7.16579e-06
-6.91007e-06
7.54186e-06
-7.74923e-06
7.93341e-06
-8.67375e-06
8.33346e-06
-9.69429e-06
8.73264e-06
-1.08223e-05
9.11858e-06
-1.207e-05
9.47498e-06
-1.34495e-05
9.78026e-06
-1.49722e-05
1.00057e-05
-1.6647e-05
1.01128e-05
-1.84767e-05
1.00498e-05
-2.04536e-05
9.74791e-06
-2.25512e-05
9.11781e-06
-2.47148e-05
8.04812e-06
-2.68486e-05
6.40901e-06
-2.88053e-05
4.06605e-06
-3.03789e-05
9.05563e-07
-3.13146e-05
-3.12103e-06
-3.13339e-05
-7.94911e-06
-3.01925e-05
-1.33508e-05
-2.77435e-05
-1.89355e-05
-2.39936e-05
-2.42141e-05
-1.90917e-05
-2.87481e-05
-1.32872e-05
-3.22481e-05
-6.87194e-06
-3.45932e-05
-1.49633e-07
-3.57712e-05
6.58141e-06
-3.58051e-05
1.30194e-05
-3.46904e-05
1.8861e-05
-3.2403e-05
2.381e-05
-2.89489e-05
2.7616e-05
-2.44479e-05
3.01235e-05
-1.91828e-05
3.1319e-05
-1.35913e-05
3.13436e-05
-8.16477e-06
3.04398e-05
-3.30176e-06
2.88864e-05
7.63008e-07
2.69395e-05
3.95992e-06
2.48076e-05
6.33483e-06
2.26409e-05
8.00022e-06
2.05374e-05
9.09047e-06
1.85535e-05
9.73601e-06
1.67164e-05
1.00491e-05
1.50345e-05
1.01202e-05
1.35052e-05
1.00187e-05
1.21197e-05
9.79705e-06
1.08666e-05
9.49427e-06
9.73366e-06
9.13943e-06
8.70872e-06
8.75436e-06
7.78025e-06
8.35554e-06
6.93753e-06
7.9555e-06
6.1707e-06
7.5637e-06
5.47072e-06
7.1872e-06
4.82932e-06
6.831e-06
4.23896e-06
6.49824e-06
3.69279e-06
6.19005e-06
3.18466e-06
5.90526e-06
2.70926e-06
5.63968e-06
2.26235e-06
5.38508e-06
1.84116e-06
5.12789e-06
1.44504e-06
4.84777e-06
1.07626e-06
4.51655e-06
7.40809e-07
4.09807e-06
4.49051e-07
3.54995e-06
2.15777e-07
2.82793e-06
5.93474e-08
1.89233e-06
7.14967e-07
-5.37343e-08
7.66603e-07
-1.99631e-07
2.03229e-06
-4.19937e-07
3.03896e-06
-6.9597e-07
3.81448e-06
-1.0129e-06
4.40161e-06
-1.36025e-06
4.84924e-06
-1.73247e-06
5.20443e-06
-2.12818e-06
5.50727e-06
-2.54906e-06
5.7889e-06
-2.9989e-06
6.07176e-06
-3.48296e-06
6.37087e-06
-4.00761e-06
6.69556e-06
-4.58011e-06
7.05094e-06
-5.20863e-06
7.43911e-06
-5.9023e-06
7.8599e-06
-6.67131e-06
8.31133e-06
-7.52713e-06
8.78969e-06
-8.48266e-06
9.28946e-06
-9.55239e-06
9.80287e-06
-1.07526e-05
1.03193e-05
-1.21013e-05
1.08242e-05
-1.36181e-05
1.12977e-05
-1.53236e-05
1.17119e-05
-1.72378e-05
1.20277e-05
-1.93767e-05
1.21896e-05
-2.17472e-05
1.21193e-05
-2.43375e-05
1.17091e-05
-2.71035e-05
1.08154e-05
-2.99518e-05
9.25871e-06
-3.27173e-05
6.83346e-06
-3.51504e-05
3.34075e-06
-3.69096e-05
-1.35911e-06
-3.75967e-05
-7.25914e-06
-3.68193e-05
-1.41253e-05
-3.43112e-05
-2.1441e-05
-3.00173e-05
-2.85063e-05
-2.41048e-05
-3.46607e-05
-1.68876e-05
-3.94677e-05
-8.76987e-06
-4.27158e-05
-1.88604e-07
-4.43595e-05
8.40468e-06
-4.44084e-05
1.65596e-05
-4.28593e-05
2.383e-05
-3.96904e-05
2.98097e-05
-3.49465e-05
3.41782e-05
-2.88311e-05
3.6763e-05
-2.17771e-05
3.76079e-05
-1.4441e-05
3.6972e-05
-7.53034e-06
3.52464e-05
-1.57411e-06
3.28321e-05
3.18168e-06
3.00729e-05
6.72355e-06
2.72222e-05
9.18873e-06
2.44485e-05
1.0776e-05
2.18481e-05
1.16922e-05
1.94669e-05
1.21183e-05
1.73176e-05
1.21993e-05
1.53938e-05
1.20447e-05
1.36797e-05
1.17335e-05
1.21553e-05
1.13221e-05
1.08e-05
1.08502e-05
9.59395e-06
1.0346e-05
8.5191e-06
9.82969e-06
7.55906e-06
9.31601e-06
6.69927e-06
8.81571e-06
5.92676e-06
8.33663e-06
5.23e-06
7.88437e-06
4.59874e-06
7.4627e-06
4.02378e-06
7.07363e-06
3.49693e-06
6.71736e-06
3.01087e-06
6.39181e-06
2.5592e-06
6.09186e-06
2.13663e-06
5.80819e-06
1.73935e-06
5.52573e-06
1.3657e-06
5.22201e-06
1.01708e-06
4.86578e-06
6.98986e-07
4.41679e-06
4.21786e-07
3.82778e-06
2.00697e-07
3.04964e-06
5.41071e-08
2.0395e-06
7.69285e-07
-4.90923e-08
8.16039e-07
-1.87858e-07
2.17169e-06
-3.99711e-07
3.25118e-06
-6.64009e-07
4.07945e-06
-9.64809e-07
4.7029e-06
-1.29175e-06
5.17659e-06
-1.64026e-06
5.55336e-06
-2.01031e-06
5.87775e-06
-2.40497e-06
6.184e-06
-2.82933e-06
6.49654e-06
-3.28984e-06
6.83178e-06
-3.794e-06
7.20009e-06
-4.35029e-06
7.60758e-06
-4.96825e-06
8.0574e-06
-5.65868e-06
8.55065e-06
-6.43387e-06
9.08683e-06
-7.3079e-06
9.66403e-06
-8.29688e-06
1.02788e-05
-9.41934e-06
1.09257e-05
-1.06965e-05
1.15968e-05
-1.21527e-05
1.22808e-05
-1.38153e-05
1.29608e-05
-1.57147e-05
1.36118e-05
-1.78828e-05
1.41965e-05
-2.03511e-05
1.46586e-05
-2.31445e-05
1.49136e-05
-2.62719e-05
1.48375e-05
-2.97098e-05
1.42546e-05
-3.3378e-05
1.29286e-05
-3.71104e-05
1.05681e-05
-4.06189e-05
6.85194e-06
-4.34784e-05
1.50358e-06
-4.51328e-05
-5.60117e-06
-4.49916e-05
-1.42632e-05
-4.25865e-05
-2.38435e-05
-3.77604e-05
-3.33314e-05
-3.06585e-05
-4.17638e-05
-2.16611e-05
-4.84697e-05
-1.13071e-05
-5.30764e-05
-2.4351e-07
-5.54302e-05
1.08426e-05
-5.55011e-05
2.12529e-05
-5.32769e-05
3.03331e-05
-4.87804e-05
3.75299e-05
-4.2155e-05
4.24585e-05
-3.37709e-05
4.49629e-05
-2.42875e-05
4.51876e-05
-1.46686e-05
4.35903e-05
-5.93476e-06
4.07627e-05
1.25366e-06
3.72673e-05
6.68043e-06
3.35345e-05
1.04611e-05
2.98574e-05
1.28704e-05
2.64059e-05
1.42311e-05
2.32634e-05
1.48374e-05
2.04552e-05
1.49287e-05
1.79732e-05
1.46831e-05
1.57929e-05
1.42264e-05
1.3883e-05
1.36446e-05
1.22112e-05
1.29948e-05
1.07471e-05
1.2315e-05
9.46312e-06
1.16306e-05
8.33478e-06
1.09585e-05
7.34072e-06
1.03104e-05
6.46231e-06
9.69442e-06
5.6833e-06
9.11589e-06
4.98955e-06
8.57837e-06
4.3687e-06
8.0838e-06
3.80987e-06
7.63272e-06
3.30346e-06
7.22405e-06
2.84094e-06
6.85463e-06