/*--------------------------------*- C++ -*----------------------------------*\
| =========                 |                                                 |
| \\      /  F ield         | OpenFOAM: The Open Source CFD Toolbox           |
|  \\    /   O peration     | Version:  2412                                  |
|   \\  /    A nd           | Website:  www.openfoam.com                      |
|    \\/     M anipulation  |                                                 |
\*---------------------------------------------------------------------------*/
FoamFile
{
    version     2.0;
    format      ascii;
    arch        "LSB;label=32;scalar=64";
    class       volScalarField;
    location    "1.85";
    object      p_rgh;
}
// * * * * * * * * * * * * * * * * * * * * * * * * * * * * * * * * * * * * * //

dimensions      [1 -1 -2 0 0 0 0];

internalField   nonuniform List<scalar> 
6400
(
7205.72
7206.34
7207.38
7208.89
7210.89
7213.41
7216.47
7220.09
7224.3
7229.08
7234.44
7240.35
7246.76
7253.58
7260.75
7268.16
7275.69
7283.21
7290.58
7297.67
7304.34
7310.48
7315.99
7320.77
7324.77
7327.96
7330.33
7331.9
7332.72
7332.87
7332.42
7331.49
7330.19
7328.66
7327.02
7325.4
7323.89
7322.59
7321.6
7320.95
7320.68
7320.8
7321.3
7322.12
7323.19
7324.43
7325.74
7326.99
7328.08
7328.86
7329.23
7329.06
7328.28
7326.8
7324.58
7321.59
7317.83
7313.32
7308.12
7302.3
7295.96
7289.2
7282.17
7274.97
7267.76
7260.64
7253.74
7247.16
7240.98
7235.27
7230.08
7225.44
7221.36
7217.84
7214.86
7212.41
7210.45
7208.98
7207.96
7207.37
7205.07
7205.68
7206.73
7208.23
7210.22
7212.73
7215.79
7219.42
7223.64
7228.45
7233.85
7239.82
7246.28
7253.22
7260.51
7268.04
7275.71
7283.37
7290.88
7298.1
7304.9
7311.15
7316.74
7321.58
7325.62
7328.81
7331.16
7332.69
7333.44
7333.49
7332.93
7331.88
7330.46
7328.8
7327.04
7325.29
7323.67
7322.3
7321.24
7320.56
7320.28
7320.43
7320.97
7321.87
7323.04
7324.39
7325.82
7327.2
7328.4
7329.31
7329.78
7329.72
7329.01
7327.58
7325.39
7322.4
7318.61
7314.05
7308.77
7302.85
7296.39
7289.51
7282.33
7275
7267.65
7260.41
7253.4
7246.72
7240.47
7234.71
7229.48
7224.81
7220.71
7217.18
7214.21
7211.76
7209.82
7208.35
7207.33
7206.74
7203.86
7204.46
7205.49
7206.97
7208.93
7211.42
7214.47
7218.1
7222.34
7227.21
7232.69
7238.77
7245.4
7252.51
7260.02
7267.81
7275.74
7283.68
7291.47
7298.96
7306
7312.46
7318.22
7323.19
7327.29
7330.5
7332.81
7334.24
7334.84
7334.71
7333.93
7332.64
7330.96
7329.03
7327.01
7325.02
7323.21
7321.66
7320.49
7319.75
7319.44
7319.63
7320.27
7321.33
7322.68
7324.26
7325.93
7327.56
7329.03
7330.18
7330.87
7331
7330.44
7329.12
7326.98
7323.99
7320.14
7315.47
7310.04
7303.92
7297.23
7290.1
7282.66
7275.07
7267.46
7259.98
7252.75
7245.89
7239.48
7233.6
7228.29
7223.57
7219.44
7215.91
7212.94
7210.51
7208.59
7207.14
7206.14
7205.55
7202.08
7202.67
7203.67
7205.11
7207.03
7209.48
7212.5
7216.12
7220.39
7225.32
7230.92
7237.17
7244.03
7251.42
7259.26
7267.42
7275.77
7284.13
7292.35
7300.25
7307.66
7314.45
7320.47
7325.62
7329.83
7333.06
7335.3
7336.58
7336.97
7336.55
7335.43
7333.76
7331.68
7329.34
7326.93
7324.59
7322.47
7320.65
7319.31
7318.46
7318.15
7318.4
7319.17
7320.48
7322.11
7324.02
7326.06
7328.09
7329.95
7331.48
7332.52
7332.93
7332.61
7331.45
7329.39
7326.4
7322.47
7317.64
7311.96
7305.55
7298.51
7290.99
7283.14
7275.14
7267.13
7259.29
7251.73
7244.59
7237.97
7231.91
7226.48
7221.69
7217.54
7214
7211.06
7208.67
7206.79
7205.38
7204.4
7203.82
7199.74
7200.32
7201.29
7202.66
7204.51
7206.88
7209.84
7213.45
7217.73
7222.74
7228.48
7234.95
7242.1
7249.87
7258.17
7266.85
7275.75
7284.71
7293.52
7301.99
7309.93
7317.17
7323.55
7328.96
7333.32
7336.57
7338.72
7339.8
7339.88
7339.06
7337.48
7335.28
7332.65
7329.72
7326.77
7323.93
7321.37
7319.23
7317.63
7316.64
7316.31
7316.66
7317.64
7319.21
7321.24
7323.64
7326.19
7328.77
7331.19
7333.24
7334.76
7335.58
7335.58
7334.65
7332.71
7329.71
7325.67
7320.61
7314.6
7307.77
7300.24
7292.17
7283.76
7275.19
7266.64
7258.29
7250.3
7242.78
7235.86
7229.58
7224
7219.13
7214.95
7211.44
7208.54
7206.22
7204.41
7203.06
7202.12
7201.54
7196.86
7197.43
7198.33
7199.6
7201.34
7203.6
7206.46
7210.01
7214.29
7219.37
7225.28
7232.01
7239.53
7247.79
7256.67
7266.02
7275.67
7285.41
7295
7304.23
7312.87
7320.7
7327.57
7333.32
7337.87
7341.15
7343.18
7343.99
7343.66
7342.31
7340.1
7337.23
7333.9
7330.1
7326.48
7322.99
7319.86
7317.27
7315.34
7314.17
7313.8
7314.27
7315.52
7317.49
7320.05
7323.04
7326.29
7329.6
7332.78
7335.52
7337.67
7339.03
7339.46
7338.83
7337.04
7334.05
7329.85
7324.49
7318.05
7310.65
7302.47
7293.69
7284.52
7275.2
7265.93
7256.93
7248.36
7240.36
7233.07
7226.52
7220.78
7215.82
7211.63
7208.16
7205.36
7203.14
7201.43
7200.18
7199.3
7198.74
7193.46
7194
7194.8
7195.94
7197.5
7199.59
7202.3
7205.73
7209.98
7215.12
7221.2
7228.23
7236.2
7245.05
7254.66
7264.87
7275.47
7286.21
7296.82
7307.02
7316.56
7325.17
7332.65
7338.84
7343.63
7346.96
7348.82
7349.28
7348.42
7346.39
7343.38
7339.59
7335.26
7330.64
7326.04
7321.7
7317.81
7314.64
7312.29
7310.88
7310.47
7311.09
7312.69
7315.18
7318.41
7322.2
7326.32
7330.52
7334.78
7338.37
7341.32
7343.39
7344.37
7344.12
7342.53
7339.54
7335.15
7329.4
7322.4
7314.28
7305.25
7295.54
7285.41
7275.12
7264.93
7255.09
7245.8
7237.22
7229.47
7222.63
7216.69
7211.67
7207.5
7204.13
7201.46
7199.41
7197.87
7196.75
7195.96
7195.43
7189.56
7190.07
7190.73
7191.66
7192.97
7194.8
7197.28
7200.53
7204.69
7209.84
7216.08
7223.45
7231.93
7241.5
7252.01
7263.28
7275.07
7287.08
7298.98
7310.43
7321.1
7330.7
7338.96
7345.71
7350.8
7354.17
7355.83
7355.84
7354.32
7351.43
7347.39
7342.46
7336.93
7331.12
7325.35
7319.93
7315.15
7311.2
7308.3
7306.59
7306.13
7306.94
7308.97
7312.11
7316.21
7321.02
7326.29
7331.72
7337.03
7341.83
7345.83
7348.78
7350.46
7350.7
7349.36
7346.39
7341.76
7335.52
7327.8
7318.77
7308.67
7297.78
7286.4
7274.89
7263.54
7252.66
7242.48
7233.19
7224.93
7217.74
7211.63
7206.56
7202.48
7199.27
7196.82
7195
7193.7
7192.78
7192.13
7191.63
7185.21
7185.67
7186.14
7186.77
7187.73
7189.19
7191.32
7194.29
7198.26
7203.37
7209.75
7217.45
7226.51
7236.92
7248.53
7261.11
7274.38
7287.98
7301.51
7314.54
7326.65
7337.48
7346.72
7354.15
7359.61
7363.04
7364.43
7363.89
7361.53
7357.56
7352.23
7345.89
7338.87
7331.55
7324.31
7317.53
7311.58
7306.7
7303.13
7301.04
7300.51
7301.56
7304.14
7308.12
7313.28
7319.38
7326.08
7333.01
7339.78
7346
7351.34
7355.4
7357.95
7358.8
7357.78
7354.82
7349.9
7343.06
7334.45
7324.27
7312.81
7300.41
7287.47
7274.41
7261.61
7249.45
7238.19
7228.06
7219.21
7211.66
7205.4
7200.35
7196.43
7193.48
7191.36
7189.9
7188.93
7188.3
7187.84
7187.39
7180.47
7180.85
7181.04
7181.27
7181.74
7182.68
7184.31
7186.85
7190.51
7195.49
7201.94
7209.97
7219.63
7231.05
7243.95
7258.13
7273.25
7288.86
7304.44
7319.46
7333.38
7345.75
7356.2
7364.46
7370.37
7373.84
7374.91
7373.67
7370.28
7364.95
7358.05
7349.96
7341.08
7331.87
7322.79
7314.27
7306.92
7300.88
7296.47
7293.91
7293.29
7294.65
7297.91
7302.91
7309.41
7317.12
7325.61
7334.42
7343.06
7351.06
7357.99
7363.44
7367.09
7368.69
7368.07
7365.14
7359.86
7352.29
7342.58
7330.97
7317.8
7303.5
7288.58
7273.56
7258.95
7245.2
7232.66
7221.55
7212.06
7204.16
7197.79
7192.86
7189.21
7186.67
7185.02
7184.06
7183.57
7183.34
7183.14
7182.77
7175.4
7175.68
7175.5
7175.16
7174.96
7175.18
7176.1
7178.03
7181.22
7185.92
7192.35
7200.67
7210.9
7223.51
7237.95
7254.07
7271.48
7289.62
7307.81
7325.33
7341.52
7355.81
7367.74
7377.02
7383.44
7386.96
7387.61
7385.5
7380.82
7373.87
7365.03
7354.76
7343.57
7332.01
7320.69
7310.21
7300.92
7293.4
7287.96
7284.81
7284.09
7285.81
7289.91
7296.18
7304.31
7314.06
7324.79
7335.95
7346.93
7357.14
7366.04
7373.19
7378.18
7380.71
7380.6
7377.71
7372.02
7363.56
7352.5
7339.11
7323.79
7307.09
7289.65
7272.16
7255.3
7239.62
7225.53
7213.28
7203.14
7194.92
7188.55
7183.86
7180.65
7178.69
7177.71
7177.44
7177.61
7177.93
7178.11
7177.84
7170.12
7170.27
7169.58
7168.45
7167.33
7166.57
7166.54
7167.61
7170.1
7174.33
7180.61
7189.21
7200.41
7213.89
7230.04
7248.51
7268.8
7290.15
7311.65
7332.37
7351.41
7368.07
7381.8
7392.27
7399.3
7402.84
7402.94
7399.76
7393.52
7384.58
7373.36
7360.4
7346.34
7331.86
7317.69
7304.57
7293.1
7283.82
7277.11
7273.25
7272.4
7274.57
7279.7
7287.56
7297.84
7309.99
7323.49
7337.58
7351.48
7364.43
7375.78
7384.98
7391.61
7395.27
7395.78
7392.98
7386.82
7377.31
7364.61
7349.01
7331
7311.26
7290.61
7269.98
7250.28
7232.23
7216.35
7202.83
7192.04
7183.59
7177.34
7173.08
7170.52
7169.37
7169.31
7169.99
7171.05
7172.14
7172.82
7172.69
7164.75
7164.74
7163.33
7161.14
7158.78
7156.72
7155.42
7155.31
7156.81
7160.3
7166.17
7174.78
7186.46
7201.26
7219.47
7240.85
7264.78
7290.27
7316.06
7340.86
7363.49
7383.06
7398.95
7410.82
7418.51
7422.01
7421.42
7416.92
7408.8
7397.44
7383.31
7367.05
7349.43
7331.32
7313.67
7297.32
7283.07
7271.6
7263.34
7258.62
7257.6
7260.32
7266.71
7276.52
7289.36
7304.6
7321.55
7339.3
7356.84
7373.19
7387.55
7399.25
7407.82
7412.87
7414.15
7411.49
7404.82
7394.09
7379.44
7361.15
7339.77
7316.13
7291.33
7266.65
7243.34
7222.41
7204.51
7189.96
7178.29
7169.7
7163.79
7160.19
7158.57
7158.53
7159.69
7161.62
7163.88
7166.02
7167.42
7167.46
7159.48
7159.25
7156.83
7153.19
7149.19
7145.44
7142.47
7140.81
7140.97
7143.37
7148.47
7156.74
7168.7
7184.75
7205.29
7230.21
7258.82
7289.73
7321.16
7351.24
7378.38
7401.49
7419.93
7433.37
7441.73
7445.09
7443.63
7437.54
7427.16
7412.87
7395.21
7374.89
7352.83
7330.16
7308.11
7287.77
7270.2
7256.08
7245.93
7240.13
7238.91
7242.3
7250.22
7262.35
7278.24
7297.33
7318.65
7341.06
7363.18
7383.76
7401.79
7416.51
7427.39
7434.08
7436.29
7433.87
7426.68
7414.61
7397.68
7376.15
7350.56
7321.9
7291.64
7261.62
7233.67
7209.17
7188.89
7172.97
7161
7152.66
7147.43
7144.84
7144.48
7145.9
7148.64
7152.21
7156.07
7159.64
7162.07
7162.36
7154.46
7154.05
7150.27
7144.71
7138.58
7132.62
7127.52
7123.88
7122.25
7123.11
7126.96
7134.37
7146.09
7163.04
7186.05
7215.31
7249.99
7288.18
7327.16
7364.13
7396.91
7424.27
7445.64
7460.81
7469.81
7472.85
7470.27
7462.31
7449.27
7431.52
7409.61
7384.31
7356.79
7328.48
7300.91
7275.67
7253.9
7236.42
7223.89
7216.76
7215.28
7219.5
7229.33
7244.43
7264.25
7287.97
7314.84
7343.09
7370.92
7396.71
7419.16
7437.43
7451.01
7459.57
7462.9
7460.88
7453.26
7439.75
7420.26
7394.88
7364.06
7328.87
7291.3
7254.08
7220.02
7191.12
7168.26
7151.31
7139.5
7131.93
7127.85
7126.7
7128
7131.3
7136.08
7141.76
7147.71
7153.2
7157.04
7157.62
7150.06
7149.86
7144.11
7135.88
7126.96
7118.18
7110.37
7104.23
7100.33
7099.15
7101.12
7106.8
7117.25
7134.27
7159.69
7194.22
7237.04
7285.36
7334.76
7380.84
7420.53
7452.76
7477.31
7494.19
7503.63
7506.1
7502.16
7492.06
7475.94
7454.14
7427.06
7395.52
7360.98
7325.4
7290.91
7259.68
7232.93
7211.47
7196.07
7187.3
7185.53
7190.79
7202.91
7221.49
7245.95
7275.09
7308.67
7344.6
7380.02
7412.51
7440.43
7462.86
7479.56
7490.17
7494.72
7493.27
7485.47
7470.66
7448.51
7418.81
7381.69
7337.95
7290.24
7242.88
7200.52
7166.21
7140.78
7123.51
7112.92
7106.99
7104.69
7105.46
7108.89
7114.54
7121.88
7130.25
7138.92
7147.06
7152.97
7153.59
7146.86
7145.27
7136.85
7125.16
7112.82
7100.71
7089.75
7080.76
7074.28
7070.68
7070.18
7072.94
7079.7
7094.68
7121.72
7162.37
7216.22
7279.39
7344
7402.59
7450.6
7488.24
7516.26
7534.82
7544.34
7545.68
7540.03
7527.57
7507.99
7481.68
7448.56
7409.39
7366.15
7322.02
7278.56
7239.67
7207.05
7180.94
7162.08
7151.28
7149.21
7155.78
7170.54
7193.08
7223.44
7263.71
7303.75
7348.36
7392.34
7432.68
7466.85
7493.73
7513.81
7526.59
7532.46
7531.95
7524.59
7508.64
7483.74
7449.27
7404.72
7349.46
7286.89
7224.38
7170.55
7129.95
7102.82
7087.08
7080.26
7077.14
7077.2
7080.28
7086.13
7094.43
7104.7
7116.19
7128.15
7139.77
7148.49
7150.78
7145.43
7135.02
7124.82
7110.17
7094.13
7078.04
7063.39
7051.19
7041.87
7035.65
7032.69
7032.84
7035.9
7042.9
7070.09
7117.67
7186.88
7272.72
7359.24
7434.37
7490.56
7533.02
7564.24
7583.81
7592.69
7592.26
7585.09
7570.2
7546.64
7515.55
7475.66
7427.17
7372
7314.07
7259.38
7214.55
7177.18
7145.31
7121.18
7107.24
7104.83
7113.83
7132.96
7159.81
7191.39
7234.48
7287.39
7346.55
7405.22
7457.45
7499.41
7530.88
7555.18
7570.33
7576.86
7576.97
7571
7555.03
7528.4
7489.94
7438.42
7368.56
7284.54
7198.41
7127.94
7080.27
7053.48
7046.24
7041.83
7041
7043.46
7049.03
7057.56
7068.8
7082.45
7097.6
7113.08
7127.78
7138.09
7150.4
6885.75
7104.51
7114.86
7093.65
7054.63
6991.05
6913.51
6834.52
6760.76
6690.32
6614.74
6525.93
6457.05
6462.74
6570.39
6760.86
7023.87
7256.25
7378.94
7478.47
7538.47
7585.79
7622.9
7645.55
7634.36
7521.32
7512.93
7611.2
7592.99
7557.25
7509.03
7440.81
7379.55
7318.18
7255.61
7195.05
7109.71
6995.63
6886.31
6817.31
6803.16
6843.57
6932.31
7048.91
7155.74
7220.09
7283.36
7354.99
7429.7
7492.66
7541.51
7576.87
7604.06
7524.16
7410.93
7459.29
7631.09
7615.02
7582.47
7537.13
7482.51
7394.29
7275.27
7050.96
6787.43
6609.12
6522.9
6527.19
6589.66
6672.35
6742.42
6804.19
6867.25
6935.27
7003.05
7060.17
7095.76
7117.31
7106.61
6953.83
3757.73
4141.2
4671.68
4326.95
3738.64
3222.92
2814.25
2515.61
2305.34
2150.59
1976
1721.31
1479.05
1449.48
1706.51
2217.79
3088.07
4488.69
5804
6403.57
6470.65
6265.34
6295.51
7080.52
7704.92
7684.8
7663.92
7676.94
7647.25
7610.12
7558.22
7477.57
7377.42
6770.46
5437.04
4345.62
3409.05
2770.85
2379.37
2183.65
2139.52
2232.99
2487.37
2957.92
3686.08
4678.31
5928.18
7338.92
7446.92
7539.16
7596.17
7632.24
7660.8
7660.34
7629.92
7677.88
7466.75
6139.44
6110.01
6259.04
6408.7
5935.8
4703.55
3205.33
2293.7
1849.05
1642.87
1647.99
1845.2
2104.21
2289.86
2442.74
2636.02
2912.69
3292.54
3778.66
4316.35
4684.34
4134.69
3962.39
1957.19
216.022
152.682
3.15765
2.23816
2.10181
2.08876
2.46861
3.29856
4.48305
47.9433
77.1229
75.9355
64.0927
69.4199
144.084
290.974
1344.17
4654.17
6598.57
6937.36
7020.25
7346.68
7685.32
7751.09
7759.1
7751.08
7738.82
7720.06
7685.52
7631.05
4995.99
2053.87
594.425
113.801
2.57272
2.51682
2.5569
2.6229
2.68795
2.72754
2.70397
2.61247
2.51384
2.52314
11.0135
313.346
1271.67
3766.68
7209.31
7671.61
7710.1
7729.09
7735.53
7748.59
7739.89
7692.96
7397.61
6987.48
6862.31
6662.24
5270.12
1960.53
367.839
185.632
110.512
74.779
81.2683
86.2125
61.854
7.16219
3.37417
2.49595
1.99092
1.93584
2.05458
2.8929
163.84
214.025
1961.71
1532.87
114.83
1.88214
2.14478
2.1187
2.01804
1.8883
1.89426
2.14714
2.68413
2.40551
2.54465
4.11501
10.42
23.6425
61.3139
349.318
831.139
1014.56
1079.23
1032.78
1280.6
2570.09
4084.49
5409.33
6322.41
6676.83
6691.83
5241.01
3405.16
1572.68
380.54
6.45683
2.03954
2.02989
2.12023
2.189
2.28076
2.37559
2.4558
2.50366
2.47892
2.38206
2.26378
2.19725
2.20333
1.99296
2.19755
146.317
1265.93
3053.71
4999.66
6274.24
6823.23
6597.01
5711.11
4203.8
2493.23
1024.88
697.291
798.748
790.621
680.815
483.756
176.845
51.7637
14.6098
4.80132
2.56054
2.23496
2.48255
2.0577
1.78213
1.71083
1.81134
1.91855
1.96
2.03519
110.602
1166.74
134.732
134.963
1.66006
1.86625
1.846
1.77022
1.67989
1.61907
1.62182
1.51756
0.988835
0.880123
4.3215
10.9545
6.99681
0.401967
-0.610227
-1.77906
-1.77464
-1.59975
-1.17343
-0.538571
-0.408837
-0.694582
-0.485413
0.415278
204.033
353.472
203.201
19.5815
1.47283
0.886187
1.48177
1.48242
1.51733
1.71055
1.84817
1.93933
2.04036
2.12141
2.16747
2.13752
2.07233
1.96531
1.88376
1.85847
1.7337
1.65363
1.79656
2.2688
4.49955
162.45
467.848
340.797
-0.0792473
-1.14539
-1.13839
-1.01721
-1.0461
-1.35333
-1.72875
-2.0569
-1.94272
-2.05438
-1.74978
-1.36824
-0.169377
2.16899
1.57813
0.718283
1.297
1.40892
1.39834
1.46132
1.5621
1.65108
1.71098
2.72593
103.686
2.18424
2.52115
10.7841
1.4647
1.62016
1.65708
1.63105
1.56836
1.47777
1.35185
1.04984
0.530123
0.256355
4.09054
9.90493
1.5675
-1.02613
-1.44523
-1.71838
-1.92722
-1.81245
-1.27995
-0.534121
-0.38722
-1.12316
-0.714281
-0.140477
0.0309741
0.238128
0.352182
0.47826
0.627906
0.852449
1.08542
1.18748
1.2996
1.47427
1.61123
1.73712
1.79225
1.8558
1.88667
1.85359
1.79114
1.69842
1.62997
1.61519
1.56555
1.67637
1.42807
2.04118
3.31178
1.10426
0.0744454
-0.453454
-0.693888
-1.05038
-1.26625
-1.37262
-1.44348
-1.60403
-1.90089
-2.11801
-2.16317
-2.03456
-1.73869
-1.39922
-0.367284
0.753387
0.345004
0.191306
0.790692
1.09335
1.19901
1.31326
1.39605
1.4202
1.38336
1.22096
0.695927
1.16095
2.82766
7.33329
1.50763
1.48486
1.48996
1.44745
1.37494
1.26047
1.0766
0.746619
0.237532
-0.198341
2.3026
7.47221
6.74081
3.10303
-1.58289
-1.94383
-2.19473
-1.43164
-1.33825
-1.16931
-1.62334
-1.73036
-0.736885
0.449891
0.800102
1.16133
1.63001
0.809212
0.972047
1.03938
1.13187
1.16387
1.20631
1.306
1.45273
1.55723
1.60376
1.65323
1.67533
1.64606
1.59516
1.51905
1.46088
1.46294
1.46781
1.5926
1.33525
2.60393
4.86045
4.51932
4.03238
3.27817
-0.49855
-1.2129
-1.52789
-1.75495
-1.89786
-2.04404
-2.20343
-2.29742
-2.27012
-2.11643
-1.8483
-1.52661
-1.21831
-0.959941
-0.589751
-0.0604523
0.471786
0.803267
0.979033
1.11605
1.2092
1.2564
1.26061
1.27049
1.29288
1.59099
2.23235
1.80741
1.63306
1.48071
1.39628
1.29219
1.17546
1.02543
0.8192
0.496822
0.0224759
-0.464296
-0.0271258
4.03505
6.19845
5.78784
2.01622
-2.11377
-2.42717
-2.67933
-2.78763
-2.71978
-2.45581
-2.05894
-1.59434
-1.10302
-0.333407
0.891292
1.4276
1.7607
1.98355
1.5245
1.08193
1.10754
1.13463
1.19281
1.27601
1.3644
1.44054
1.49103
1.50939
1.4844
1.43017
1.36361
1.34126
1.33362
1.32091
1.25988
1.13105
0.918876
0.646253
0.319661
-0.0906475
-0.550124
-0.99484
-1.38843
-1.71266
-1.96312
-2.13402
-2.2414
-2.30965
-2.33982
-2.31392
-2.14877
-1.88097
-1.56572
-1.27036
-0.986788
-0.629099
-0.167334
0.277357
0.57685
0.784685
0.955361
1.0913
1.19979
1.28688
1.43094
1.61449
1.89982
2.36859
1.90005
1.67476
1.46392
1.30632
1.14856
0.994197
0.822957
0.617741
0.334676
-0.0700265
-0.53169
-0.92211
-0.996371
1.94164
5.33573
5.20879
2.74633
-2.48149
-2.78495
-2.91591
-2.88683
-2.6369
-2.20358
-1.71345
-1.17871
-0.656701
-0.190258
0.236301
0.885202
0.834133
0.918303
0.999793
1.02103
1.03557
1.09012
1.1597
1.23127
1.29568
1.34245
1.35978
1.34111
1.29841
1.25141
1.21729
1.19455
1.16012
1.09379
0.981737
0.809062
0.572347
0.267635
-0.115059
-0.543621
-0.512307
-1.03306
-1.76122
-1.86305
-1.84503
-0.968987
-1.21051
-2.3219
-2.32625
-2.14155
-1.8633
-1.53804
-0.0136508
-0.38681
-0.55405
-0.158424
0.182971
0.432116
0.632767
0.81034
0.968425
1.12044
1.26941
1.44692
1.64778
1.92605
2.17884
1.85098
1.62039
1.39125
1.18612
0.992129
0.814249
0.638231
0.450416
0.219259
-0.0973095
-0.50608
-0.957863
-1.37417
-1.54924
1.7505
5.33372
5.08038
4.83589
3.95253
-0.217015
-2.08522
-2.00472
-2.06717
-1.69851
-1.17356
-0.653664
-0.180444
0.196799
0.419117
0.643946
0.794116
0.893329
0.854672
0.914566
0.976829
1.03967
1.10103
1.15655
1.19852
1.21498
1.2022
1.16784
1.1256
1.0864
1.04777
0.996247
0.922458
0.813843
0.65962
0.450841
0.177641
-0.164833
0.140908
0.573815
0.15765
-0.379499
-0.12267
-0.274516
-0.375867
-1.38236
-2.29325
-2.1906
-2.00458
-1.47865
1.37321
2.91295
3.23438
2.34942
0.517858
0.1327
0.315197
0.485993
0.652696
0.8216
1.00348
1.19696
1.39191
1.58402
1.80544
2.00213
1.76189
1.52451
1.27774
1.04018
0.824358
0.632997
0.463734
0.301468
0.121064
-0.113413
-0.427733
-0.811096
-1.2239
-1.6025
0.469623
5.6003
5.28644
5.02854
4.89601
2.71997
1.10316
-1.09671
-1.90237
-1.56934
-1.10319
-0.679215
-0.315915
0.0715611
0.288685
0.451201
0.62786
0.682226
0.731039
0.801401
0.86535
0.924369
0.978828
1.02684
1.06348
1.07819
1.06935
1.03833
0.999467
0.958031
0.911248
0.850495
0.769218
0.661594
0.518243
0.33298
0.0940076
-0.200647
0.336453
0.632059
0.369591
0.197434
0.0240955
-0.11746
-0.266378
-1.2224
0.577924
0.877003
1.33638
2.45508
2.9024
3.1998
3.50328
3.76747
3.54244
0.356723
0.190886
0.328377
0.481545
0.657364
0.862884
1.0874
1.31082
1.50191
1.68538
1.86995
1.65353
1.40478
1.13067
0.872299
0.625176
0.434219
0.282933
0.15566
0.0273321
-0.134213
-0.357945
-0.650538
-0.997829
-1.36565
-0.353241
6.11321
5.79804
5.57461
3.94144
-2.15165
-2.41527
-2.12166
-1.75583
-1.36471
-0.9835
-0.635898
-0.333707
-0.0799275
0.128742
0.296136
0.428682
0.535417
0.623173
0.697253
0.761512
0.817818
0.867251
0.909109
0.940635
0.952877
0.950947
0.920982
0.881644
0.839845
0.789533
0.724992
0.642068
0.537011
0.405058
0.239524
0.0330458
-0.223926
-0.544562
-0.866734
-1.04072
-0.851305
-0.703505
-1.67179
-1.98395
0.214998
2.34305
2.4934
2.6972
2.92783
3.18624
3.43362
3.68776
3.40348
1.69549
0.0840044
0.0385794
0.148822
0.286523
0.46546
0.688851
0.945651
1.20048
1.40465
1.5698
1.73224
1.52699
1.25918
0.942713
0.656003
0.382298
0.192639
0.0682902
-0.0134331
-0.0839692
-0.176033
-0.318136
-0.522584
-0.783674
-1.07655
-0.626913
-0.117931
1.23869
0.371867
-1.48701
-2.12695
-1.96833
-1.73503
-1.45345
-1.15295
-0.856941
-0.581027
-0.334187
-0.119988
0.0618772
0.213633
0.339091
0.443216
0.530458
0.604279
0.667218
0.720813
0.766175
0.803296
0.830173
0.852943
0.839539
0.815364
0.775416
0.733149
0.682153
0.617644
0.536965
0.437421
0.315884
0.168692
-0.00822378
-0.220894
-0.474031
-0.757578
-1.04445
-1.30374
-1.51113
-1.65275
-1.72914
-1.17584
1.8447
2.84529
3.01156
2.49387
2.28016
1.87458
0.870809
-0.110547
-0.30387
-0.152067
-0.120232
-0.0587566
0.056647
0.232573
0.475817
0.760834
1.04965
1.27566
1.43743
1.57443
1.36731
1.07484
0.701736
0.336227
0.0538964
-0.128544
-0.214563
-0.237406
-0.239791
-0.26087
-0.328264
-0.453269
-0.636636
-0.822439
-1.08791
-1.33619
-1.54129
-1.66606
-1.72822
-1.68968
-1.57482
-1.40629
-1.20079
-0.975357
-0.746468
-0.526685
-0.324018
-0.142649
0.0160435
0.152598
0.268848
0.367488
0.451288
0.522496
0.582778
0.633251
0.67496
0.707932
0.731074
0.825274
0.731268
0.713691
0.681301
0.638033
0.588348
0.526091
0.449553
0.356903
0.246179
0.11552
-0.0368085
-0.212957
-0.413013
-0.6297
-0.848323
-1.05083
-1.21919
-1.34295
-1.42284
-1.43989
-1.29246
-0.944882
-0.780567
-0.933113
-0.868788
-0.775563
-0.637893
-0.506136
-0.410529
-0.359259
-0.340996
-0.318893
-0.240341
-0.0681006
0.204171
0.525635
0.84561
1.09838
1.26739
1.36423
1.14518
1.84629
3.28404
-0.100114
-0.417421
-0.592328
-0.621593
-0.56024
-0.469795
-0.406245
-0.398355
-0.453607
-0.567424
-0.716797
-0.89446
-1.07284
-1.22706
-1.33247
-1.37761
-1.35791
-1.28126
-1.15999
-1.00616
-0.832677
-0.652089
-0.474354
-0.306277
-0.152026
-0.0137341
0.108085
0.214068
0.305576
0.384184
0.451246
0.507818
0.554692
0.593046
0.622008
0.641611
0.757745
0.639682
0.620322
0.594432
0.554145
0.507126
0.448502
0.377237
0.292211
0.192286
0.0765848
-0.0554082
-0.203682
-0.36627
-0.537415
-0.707849
-0.866194
-1.00108
-1.10469
-1.17478
-1.21003
-1.20474
-1.15736
-1.07383
-0.962771
-0.843977
-0.72744
-0.620138
-0.554992
-0.534979
-0.565998
-0.632696
-0.685212
-0.652377
-0.468011
-0.145041
0.211886
0.561102
0.853705
1.05255
1.09813
1.46955
8.05437
7.535
3.43988
-0.90608
-1.22573
-1.19098
-1.03607
-0.81592
-0.633434
-0.530524
-0.510954
-0.562656
-0.65905
-0.78225
-0.910838
-1.02109
-1.09784
-1.13187
-1.11926
-1.06278
-0.970163
-0.850727
-0.714018
-0.569092
-0.423582
-0.283189
-0.151761
-0.031598
0.076255
0.171689
0.255212
0.327596
0.389577
0.441765
0.484658
0.519364
0.544876
0.561574
0.679913
0.559272
0.540997
0.515056
0.480961
0.437451
0.383271
0.317874
0.240681
0.151159
0.049065
-0.0654347
-0.19146
-0.326635
-0.466427
-0.604331
-0.732459
-0.843091
-0.930556
-0.991581
-1.02366
-1.02415
-0.993483
-0.936793
-0.863871
-0.782201
-0.711059
-0.665103
-0.672786
-0.745871
-0.884045
-1.04977
-1.19849
-1.22951
0.229313
6.42906
4.70375
0.382895
0.513327
0.804911
0.971079
1.68579
7.449
6.71311
6.7117
6.56685
6.62693
3.63635
-0.85618
-1.19694
-0.964198
-0.729337
-0.613686
-0.602152
-0.645862
-0.720644
-0.804552
-0.87851
-0.92994
-0.950902
-0.937925
-0.892248
-0.818614
-0.723395
-0.613449
-0.495425
-0.375155
-0.257271
-0.145136
-0.0409777
0.0539312
0.139055
0.214364
0.280096
0.336565
0.384041
0.422722
0.4535
0.475829
0.490343
0.61187
0.488013
0.471841
0.448518
0.417715
0.378079
0.328651
0.269264
0.199777
0.120071
0.0302813
-0.069043
-0.176703
-0.290416
-0.406601
-0.520525
-0.626671
-0.719606
-0.795021
-0.849901
-0.881986
-0.890153
-0.875885
-0.843912
-0.801943
-0.761001
-0.740045
-0.762373
-0.8651
-1.0636
-1.09358
-0.260176
4.56897
6.30826
6.63799
6.92127
7.39985
1.80511
0.0409493
0.656677
0.949816
0.489401
6.2772
6.39574
6.14944
5.7236
5.64604
6.01712
6.74089
4.5993
-1.29418
-0.968133
-0.739605
-0.662831
-0.650904
-0.68282
-0.729422
-0.773198
-0.802936
-0.811508
-0.795819
-0.756133
-0.695246
-0.617387
-0.527382
-0.430066
-0.329846
-0.230404
-0.134592
-0.0444487
0.0386917
0.114079
0.181377
0.240479
0.291399
0.334116
0.368559
0.395134
0.414492
0.42739
0.552341
0.425629
0.411751
0.3911
0.363529
0.327779
0.283102
0.229588
0.167411
0.0967322
0.0179218
-0.0682837
-0.16065
-0.257164
-0.355007
-0.450633
-0.540039
-0.619336
-0.685329
-0.735702
-0.768993
-0.785024
-0.785772
-0.775934
-0.763221
-0.760697
-0.792132
-0.892552
-1.10568
-1.35419
5.70517
6.24828
5.54995
5.23545
5.3589
5.86257
6.70501
1.4999
-0.264225
0.683181
1.09143
0.191172
-0.0489571
0.586563
0.27509
0.958969
1.75829
4.57945
5.72916
6.74574
5.17283
-0.779022
-0.854198
-0.710447
-0.654898
-0.651557
-0.668377
-0.688139
-0.700499
-0.698947
-0.680393
-0.644458
-0.592676
-0.527764
-0.453039
-0.371983
-0.287907
-0.203716
-0.12177
-0.0438645
0.0287182
0.0951354
0.154879
0.20765
0.253259
0.291431
0.321855
0.344888
0.361582
0.372898
0.501235
0.37184
0.360233
0.342062
0.31741
0.285248
0.245056
0.197089
0.141734
0.0793073
0.0102838
-0.0645327
-0.143979
-0.226341
-0.309373
-0.390408
-0.466533
-0.534948
-0.593318
-0.640011
-0.674271
-0.696623
-0.709506
-0.717925
-0.730348
-0.762278
-0.843521
-1.00489
-0.90112
5.52832
6.12682
5.17327
3.21464
1.02952
1.46561
3.87496
2.78174
-0.862339
-0.109918
0.872472
1.20965
0.588092
-0.925994
-2.35428
-3.15849
-4.14216
-4.60941
-4.56467
0.804437
6.37912
7.47816
1.99503
-0.906095
-0.725897
-0.639655
-0.611285
-0.607838
-0.61114
-0.611519
-0.603123
-0.582939
-0.550184
-0.505591
-0.450856
-0.388245
-0.320264
-0.249406
-0.177945
-0.107818
-0.0405747
0.0226159
0.0809047
0.133697
0.180591
0.221275
0.255295
0.282162
0.302237
0.316503
0.327558
0.457815
0.326345
0.316421
0.300353
0.278205
0.249262
0.213207
0.170392
0.121312
0.0663654
0.00606416
-0.0588062
-0.127188
-0.197659
-0.268427
-0.33746
-0.402602
-0.461822
-0.513461
-0.556439
-0.590498
-0.61661
-0.637529
-0.658365
-0.688154
-0.744995
-0.860913
-1.05365
2.09456
6.82597
5.62801
-1.69859
-4.8807
-4.94734
-4.34647
-3.07239
-2.70533
-1.2673
0.209802
1.05677
0.586308
0.448768
-0.430023
-1.66772
-2.35697
-3.69459
-4.2736
-4.21016
-3.68754
3.13939
7.73345
3.93495
-0.825284
-0.677915
-0.591079
-0.553637
-0.540749
-0.535744
-0.529858
-0.51819
-0.498117
-0.468745
-0.430368
-0.384054
-0.33137
-0.274147
-0.214275
-0.153543
-0.0935344
-0.0355691
0.0193136
0.070309
0.116798
0.158332
0.194527
0.224844
0.248733
0.266542
0.279081
0.295757
0.42147
0.287783
0.278979
0.264657
0.244665
0.218601
0.186362
0.148337
0.10503
0.056854
0.00432123
-0.051837
-0.110677
-0.171016
-0.231417
-0.290305
-0.346052
-0.397154
-0.442427
-0.481171
-0.513406
-0.540233
-0.564288
-0.590321
-0.627339
-0.693102
-0.81323
-0.966716
3.93692
6.86062
-0.0258522
-4.25766
-4.75714
-4.79923
-4.2598
-3.38286
-2.17929
-0.650776
0.452949
0.745176
-0.0628037
-0.0163565
-0.15902
-0.737186
-1.3745
-2.48939
-3.13341
-3.19243
-2.679
1.41957
8.18349
4.11888
-0.637631
-0.567705
-0.507539
-0.477884
-0.465907
-0.459828
-0.452735
-0.441006
-0.422737
-0.397206
-0.364549
-0.325498
-0.281187
-0.232993
-0.182383
-0.130779
-0.0794725
-0.0295791
0.0179846
0.0624686
0.103267
0.139923
0.17203
0.199037
0.220396
0.236374
0.248852
0.293112
0.386975
0.254324
0.246501
0.233647
0.215631
0.192258
0.16359
0.130022
0.0920124
0.0499498
0.00432833
-0.0441772
-0.0947321
-0.146334
-0.197817
-0.247936
-0.295429
-0.339143
-0.378198
-0.412086
-0.44087
-0.465459
-0.48794
-0.512187
-0.545749
-0.601977
-0.696716
-0.802462
3.6435
7.14339
-1.6155
-3.37731
-3.83224
-3.81876
-3.23385
-2.16701
-1.35576
-0.159736
0.1271
0.0570837
-0.370592
-0.419375
-0.736215
-0.346749
-0.769491
-1.15761
-1.50858
-1.99206
-1.47729
4.63185
8.42101
3.21315
-0.458849
-0.426067
-0.403269
-0.391308
-0.387083
-0.384722
-0.379895
-0.370407
-0.355183
-0.333842
-0.306556
-0.273911
-0.236798
-0.196298
-0.153577
-0.109783
-0.0659823
-0.0231161
0.0180083
0.0566944
0.092358
0.124555
0.152893
0.176858
0.195941
0.210313
0.227573
0.390924
0.310324
0.225161
0.218059
0.206494
0.190348
0.16955
0.144237
0.114784
0.0815906
0.0450185
0.00554021
-0.0362226
-0.0795366
-0.12354
-0.167267
-0.209715
-0.249868
-0.286797
-0.319779
-0.348358
-0.372462
-0.39259
-0.41003
-0.427404
-0.44953
-0.483548
-0.536936
-0.591011
3.03437
7.22104
0.403295
-2.1287
-2.48422
-2.00983
-1.80439
-1.32731
-0.578594
-0.512724
-0.278929
-0.267682
-0.664575
-0.808106
-1.14443
-0.917225
-0.579887
-0.50706
-0.947785
-1.01942
3.86803
7.20253
7.65045
1.3297
-0.282373
-0.292621
-0.299279
-0.305015
-0.310336
-0.313496
-0.3125
-0.30639
-0.294802
-0.277714
-0.255413
-0.228446
-0.19757
-0.163673
-0.127707
-0.0906177
-0.0532959
-0.0165484
0.0189103
0.0524395
0.0834838
0.111613
0.136467
0.157585
0.174529
0.187327
0.207421
0.414215
0.346632
0.199697
0.193158
0.182769
0.168377
0.15001
0.127815
0.102123
0.0732748
0.0416126
0.0075857
-0.028236
-0.0652107
-0.102591
-0.139557
-0.175274
-0.208899
-0.239629
-0.266807
-0.289941
-0.308758
-0.323305
-0.33407
-0.342365
-0.35022
-0.359746
-0.373661
-0.389177
1.6482
7.29328
4.41416
-0.282065
-1.29997
-0.95255
-1.02582
-0.99469
-0.810191
-1.04694
-0.692072
-0.573777
-0.841982
-1.00214
-1.31402
-1.62502
-0.808541
-0.388347
-0.869509
-0.49256
4.97204
7.24932
4.53133
0.0598521
-0.160071
-0.187195
-0.209977
-0.227809
-0.240923
-0.249136
-0.251998
-0.249385
-0.24141
-0.228321
-0.210512
-0.188529
-0.163043
-0.134815
-0.104641
-0.0733125
-0.0415859
-0.010164
0.0203146
0.049265
0.0761705
0.100619
0.122288
0.140764
0.155718
0.16697
0.183021
0.396865
0.397739
0.177366
0.17139
0.162128
0.149381
0.133274
0.113929
0.0916326
0.0666736
0.0393755
0.0101609
-0.0204501
-0.0518922
-0.0835105
-0.114588
-0.144409
-0.172248
-0.197391
-0.219202
-0.237129
-0.250719
-0.259656
-0.263821
-0.263492
-0.258903
-0.249501
-0.236372
-0.222476
0.365642
4.38916
5.61262
0.209632
-0.62534
-0.547954
-0.625326
-0.87596
-1.50923
-1.30622
-0.964857
-0.797927