/*--------------------------------*- C++ -*----------------------------------*\
| =========                 |                                                 |
| \\      /  F ield         | OpenFOAM: The Open Source CFD Toolbox           |
|  \\    /   O peration     | Version:  2412                                  |
|   \\  /    A nd           | Website:  www.openfoam.com                      |
|    \\/     M anipulation  |                                                 |
\*---------------------------------------------------------------------------*/
FoamFile
{
    version     2.0;
    format      ascii;
    arch        "LSB;label=32;scalar=64";
    class       volScalarField;
    location    "1.85";
    object      p_rgh;
}
// * * * * * * * * * * * * * * * * * * * * * * * * * * * * * * * * * * * * * //

dimensions      [1 -1 -2 0 0 0 0];

internalField   nonuniform List<scalar> 
6400
(
131902
131915
131932
131956
131987
132025
132072
132128
132194
132270
132357
132454
132560
132675
132797
132924
133054
133184
133312
133435
133550
133655
133748
133827
133891
133944
133977
133996
134003
133997
133982
133960
133933
133904
133876
133850
133828
133813
133807
133809
133819
133838
133865
133898
133936
133977
134018
134056
134090
134117
134134
134139
134131
134108
134068
134013
133940
133853
133751
133636
133511
133379
133241
133101
132961
132824
132692
132568
132453
132347
132252
132167
132093
132030
131976
131932
131896
131868
131848
131835
131890
131902
131920
131944
131974
132012
132059
132115
132181
132258
132345
132443
132551
132669
132793
132923
133056
133189
133319
133445
133563
133670
133764
133844
133910
133960
133993
134011
134016
134008
133991
133966
133936
133904
133873
133844
133821
133805
133797
133798
133809
133829
133857
133892
133933
133976
134019
134061
134098
134127
134147
134155
134148
134126
134087
134031
133959
133870
133766
133649
133522
133386
133245
133102
132959
132820
132686
132559
132442
132335
132239
132154
132080
132016
131963
131918
131883
131855
131835
131821
131871
131882
131900
131923
131952
131990
132036
132091
132157
132235
132323
132423
132534
132655
132784
132919
133057
133196
133332
133463
133586
133697
133795
133877
133943
133992
134024
134040
134041
134029
134006
133976
133940
133903
133866
133833
133806
133787
133778
133778
133790
133811
133842
133881
133926
133974
134023
134070
134113
134148
134172
134184
134180
134160
134123
134067
133993
133901
133794
133673
133540
133399
133252
133103
132955
132810
132672
132542
132422
132313
132215
132130
132055
131992
131938
131895
131860
131832
131812
131799
131844
131855
131872
131893
131921
131957
132002
132056
132122
132200
132290
132393
132508
132633
132769
132911
133057
133205
133350
133489
133619
133737
133840
133925
133993
134041
134071
134083
134078
134059
134029
133990
133947
133901
133857
133817
133785
133761
133748
133748
133760
133784
133819
133863
133915
133971
134028
134084
134135
134178
134210
134227
134229
134212
134176
134120
134043
133948
133835
133707
133566
133417
133261
133103
132947
132795
132650
132515
132391
132279
132180
132093
132019
131956
131904
131861
131827
131801
131781
131768
131809
131820
131835
131855
131881
131914
131957
132009
132074
132152
132244
132350
132470
132602
132746
132899
133057
133216
133374
133525
133665
133792
133902
133992
134061
134109
134135
134141
134129
134101
134060
134010
133955
133898
133843
133794
133753
133723
133706
133706
133719
133747
133787
133838
133900
133966
134035
134103
134165
134219
134261
134287
134295
134283
134249
134192
134113
134012
133891
133754
133602
133440
133272
133102
132934
132772
132619
132476
132347
132232
132131
132044
131970
131908
131858
131817
131785
131760
131741
131728
131768
131778
131792
131809
131831
131861
131899
131949
132012
132089
132182
132292
132418
132560
132715
132881
133054
133230
133403
133570
133725
133863
133982
134078
134150
134197
134219
134218
134195
134155
134100
134035
133964
133892
133823
133762
133709
133673
133653
133650
133664
133697
133745
133807
133879
133959
134043
134126
134204
134272
134327
134364
134381
134375
134343
134286
134203
134095
133964
133813
133647
133469
133285
133099
132916
132740
132576
132424
132289
132170
132067
131980
131907
131848
131800
131762
131733
131710
131692
131679
131721
131731
131742
131755
131772
131796
131829
131874
131933
132009
132104
132218
132351
132504
132673
132856
133048
133245
133439
133626
133800
133954
134085
134189
134264
134309
134326
134315
134279
134223
134150
134066
133975
133882
133795
133718
133653
133607
133580
133576
133593
133631
133688
133763
133852
133949
134051
134154
134251
134338
134409
134461
134489
134491
134463
134405
134317
134200
134056
133888
133703
133504
133298
133091
132889
132697
132518
132357
132214
132090
131986
131900
131830
131774
131731
131697
131671
131651
131635
131623
131670
131678
131686
131693
131703
131718
131744
131782
131836
131910
132005
132123
132264
132430
132617
132821
133038
133261
133483
133696
133893
134068
134214
134327
134406
134450
134459
134436
134384
134307
134212
134103
133986
133867
133757
133660
133580
133521
133486
133481
133501
133546
133615
133706
133815
133934
134059
134186
134310
134418
134511
134581
134623
134634
134612
134554
134459
134330
134170
133981
133771
133545
133312
133079
132853
132639
132444
132269
132118
131991
131886
131801
131736
131686
131648
131621
131601
131585
131572
131560
131617
131623
131625
131624
131624
131629
131643
131671
131718
131786
131880
132002
132152
132333
132541
132772
133020
133276
133533
133780
134008
134208
134373
134499
134583
134624
134623
134584
134511
134410
134286
134147
133992
133846
133708
133586
133486
133413
133372
133361
133384
133439
133522
133634
133765
133912
134067
134224
134376
134513
134636
134727
134787
134811
134795
134737
134635
134492
134310
134094
133852
133592
133325
133058
132802
132563
132346
132156
131998
131867
131762
131682
131623
131581
131553
131534
131522
131512
131502
131491
131564
131567
131562
131549
131535
131525
131525
131539
131574
131635
131726
131850
132009
132208
132441
132704
132990
133290
133592
133882
134149
134381
134571
134712
134801
134838
134825
134766
134667
134533
134374
134192
134003
133817
133643
133490
133364
133273
133222
133209
133236
133302
133405
133541
133702
133882
134073
134267
134456
134630
134782
134903
134986
135027
135019
134961
134851
134690
134481
134231
133949
133646
133334
133025
132731
132461
132221
132013
131847
131714
131612
131539
131490
131460
131444
131437
131435
131433
131428
131419
131515
131514
131498
131470
131438
131407
131386
131382
131401
131450
131534
131658
131824
132045
132308
132611
132945
133300
133659
134005
134322
134596
134815
134974
135069
135101
135072
134988
134855
134682
134476
134248
134011
133778
133559
133367
133209
133093
133031
133016
133050
133130
133256
133421
133619
133840
134075
134315
134549
134767
134959
135115
135227
135288
135293
135236
135116
134933
134691
134398
134065
133706
133337
132974
132633
132326
132060
131841
131660
131524
131429
131367
131333
131319
131321
131330
131342
131350
131352
131344
131474
131467
131437
131389
131331
131274
131226
131196
131192
131223
131297
131421
131602
131836
132131
132481
132877
133302
133735
134154
134535
134861
135117
135296
135398
135421
135372
135257
135082
134860
134600
134314
134016
133723
133450
133210
133014
132866
132793
132776
132816
132914
133068
133270
133512
133783
134073
134369
134659
134929
135170
135368
135516
135604
135624
135570
135440
135231
134949
134602
134203
133771
133328
132898
132498
132145
131846
131607
131421
131290
131206
131161
131148
131158
131182
131213
131243
131266
131276
131271
131449
131434
131383
131306
131215
131123
131039
130975
130941
130947
131003
131119
131304
131559
131892
132301
132773
133290
133821
134335
134800
135190
135491
135694
135800
135811
135737
135580
135356
135076
134748
134390
134017
133650
133308
133011
132770
132596
132500
132476
132526
132645
132832
133080
133376
133708
134064
134428
134785
135121
135421
135671
135863
135983
136025
135979
135837
135599
135267
134851
134368
133841
133302
132783
132309
131901
131566
131308
131121
131000
130935
130916
130932
130974
131029
131088
131143
131184
131203
131201
131448
131420
131341
131225
131090
130952
130823
130715
130640
130611
130639
130738
130919
131193
131569
132047
132618
133254
133917
134558
135131
135603
135956
136185
136292
136284
136173
135970
135688
135336
134927
134479
134012
133550
133124
132757
132463
132249
132133
132105
132165
132310
132537
132842
133202
133609
134045
134491
134932
135346
135717
136032
136277
136440
136509
136474
136325
136054
135662
135160
134567
133915
133248
132613
132046
131571
131198
130926
130745
130643
130608
130625
130681
130764
130860
130957
131043
131107
131139
131139
131484
131438
131317
131148
130957
130761
130574
130410
130282
130205
130193
130261
130425
130710
131128
131687
132382
133180
134023
134837
135552
136126
136538
136791
136889
136855
136700
136440
136087
135651
135144
134586
134000
133420
132886
132434
132077
131823
131678
131644
131718
131896
132167
132548
132985
133482
134016
134559
135104
135613
136070
136460
136770
136986
137092
137075
136922
136622
136156
135549
134811
133989
133148
132359
131675
131124
130714
130435
130274
130206
130214
130281
130392
130529
130678
130823
130949
131043
131090
131090
131579
131504
131319
131078
130815
130547
130289
130054
129858
129717
129648
129666
129791
130070
130521
131171
132024
133045
134145
135201
136102
136798
137271
137531
137613
137539
137329
137001
136566
136032
135408
134713
133976
133238
132573
132022
131591
131290
131110
131072
131165
131384
131719
132170
132708
133318
133977
134655
135311
135928
136485
136966
137355
137637
137792
137803
137654
137335
136776
136051
135125
134066
132979
131980
131147
130513
130073
129803
129688
129675
129744
129877
130058
130266
130484
130693
130872
131002
131061
131054
131753
131615
131332
130999
130650
130297
129953
129633
129352
129131
128990
128940
128958
129210
129663
130395
131441
132776
134261
135680
136822
137675
138173
138434
138484
138351
138072
137669
137144
136501
135743
134890
133970
133024
132178
131497
130968
130555
130398
130373
130492
130759
131167
131706
132358
133103
133910
134722
135494
136285
136972
137559
138044
138409
138629
138679
138538
138188
137600
136721
135531
134118
132667
131374
130362
129651
129212
128974
128968
129029
129178
129398
129667
129964
130269
130557
130805
130979
131047
131028
132036
131764
131338
130897
130454
130006
129557
129129
128741
128417
128194
128112
128206
128157
128530
129316
130593
132379
134435
136401
137861
138747
139271
139519
139517
139298
138936
138464
137840
137066
136133
135056
133881
132679
131630
130817
130227
129908
129647
129583
129715
130033
130528
131169
131940
132838
133848
134863
135879
136817
137577
138261
138854
139320
139621
139724
139601
139243
138627
137668
136125
134198
132206
130501
129282
128518
128151
128214
128137
128245
128489
128822
129207
129616
130029
130416
130741
130970
131047
131027
132583
132097
131415
130828
130265
129444
127974
125770
122931
119703
116437
113491
111250
110062
111034
114564
120906
129225
134535
137574
139209
140092
140582
140799
140719
140353
139593
138992
138413
137806
136717
135436
133970
132334
130880
128482
125874
123801
122722
122780
123919
125762
127985
130088
131542
132705
133841
134981
136112
136701
137671
138520
139589
140376
140776
140951
140857
140502
139913
138908
137100
134185
129261
121286
115130
111540
110476
111749
114158
117202
120474
123645
126403
128458
129727
130373
130810
131123
131119
131033
128517
111942
97355.4
89552.3
81048.1
69910.8
57944.8
47177.3
37995.5
30561.6
24889.8
20848.4
17986.1
16037.6
16753.3
21268.1
32674.9
54625.4
89064.3
112252
118280
120909
127556
136734
141884
141874
141242
140533
139684
138726
137519
135850
130465
95665.7
65245.9
47166.4
39302.9
35008.5
33203.7
33920.2
36909.5
42138.7
50699.8
63874.3
83758.6
106126
128766
135078
136528
137821
138831
139544
140712
141702
142170
140942
134356
124725
121838
121028
113728
87930.2
54811.9
33492.3
21754
16596.2
15545.3
17857
21416.4
26297.2
32575.2
40403.4
50046
61496.6
74360.5
86604.2
96560.4
102674
96278.5
85332.3
51090.9
22151.4
8945.64
5740.64
1671.91
7.91006
7.71151
8.15799
7.56352
7.25011
16.8514
37.5055
193.077
652.012
917.961
1531.62
2644.31
5554.1
30310.2
107018
138435
139218
139813
142080
142823
142793
142351
141641
140867
140055
125537
65559
25679.7
6499.8
333.004
1.56548
0.831956
0.83612
0.86825
0.870468
0.86445
0.85765
0.821703
0.444198
3.21864
5184.79
19581.6
48288.1
94538.4
134265
140142
140867
141680
142448
143059
143103
141525
139620
139458
135416
87662.8
19048.1
4783.52
2412
1304.73
714.285
465.109
94.4472
29.2363
12.9637
7.27904
8.10413
8.07498
7.68069
8.62729
2386.25
8422.85
13387
11116.4
12471.7
163.894
21.6491
7.06194
6.23673
7.23565
7.66831
8.05324
8.61354
8.81373
9.06515
14.1098
35.0028
84.3922
207.254
690.985
1152.75
1218.71
11331.9
61376.3
83118.5
79649.4
79137.9
93457.5
105112
110548
114141
117179
107160
79177.8
45380.3
20040
5178.41
72.6665
4.52962
0.270305
0.473493
0.669583
0.740889
0.790177
0.822179
0.835792
0.83303
0.816642
0.819972
1.11778
0.310623
-0.109564
1361.2
2892.89
11839.9
31551.5
61252.8
91740.7
112994
117602
117087
114060
103760
89614.5
89576.8
87972.6
56309.6
6091.19
761.715
957.478
570.699
173.538
67.2035
26.0787
11.4356
9.0722
8.7907
8.42045
7.95724
8.06966
8.0683
7.71671
7.85651
9.10191
454.657
49.13
11.9225
3.94359
4.86826
6.74468
7.30647
7.61581
8.09679
8.93226
12.5542
22.9015
46.9437
99.8101
859.263
1745.42
1877.8
1125.28
281.526
-6.67988
-3.24513
-1.54677
0.12411
0.558923
-0.0168781
-0.751131
-0.866439
1.04683
605.516
93.7893
-1.44585
-0.92828
-1.09014
0.767125
2.8622
0.674982
0.569897
0.51092
0.577789
0.601044
0.607664
0.60432
0.58893
0.564493
0.609002
0.657987
0.231729
-0.0851099
-0.526428
-0.639196
-1.35368
-2.18476
-2.76143
-3.43079
-1.16057
-0.734263
-2.94874
-3.1468
-1.87553
-1.0817
-1.36618
-2.45964
-7.75854
195.148
764.926
1072.29
1132.38
656.563
65.733
27.3754
15.365
10.0297
8.38256
7.98365
7.85294
8.35645
8.57045
8.13615
8.15792
8.64104
8.76821
159.698
49.2153
1.72481
3.61695
5.76334
6.35165
6.86331
7.49976
9.13613
38.9043
142.252
148.043
111.38
-3.4866
-5.45392
-4.79998
-3.63342
-3.16905
-2.16324
-1.3833
-0.619078
0.100543
0.509157
0.633214
0.647999
0.656145
0.736949
0.574055
0.485947
0.189781
0.28579
0.702931
0.585366
1.28958
0.728761
0.512459
0.497571
0.511043
0.515611
0.509903
0.493266
0.465061
0.422755
0.677597
0.670543
0.163042
-0.148926
-0.430429
-0.654283
-0.789964
-0.911893
-0.988162
-0.958681
-0.964534
-1.11841
-1.40033
-1.30032
-1.1093
-1.00813
-1.00718
-1.2256
-2.02119
-3.54423
-3.97494
-5.08356
-6.91857
-5.80914
92.0837
108.64
53.5268
8.81271
7.71145
7.45208
7.47327
7.67927
7.92257
9.70681
8.42812
9.14391
9.08034
146.201
10.2434
4.7344
3.16285
4.50111
5.01902
5.48423
5.90012
10.6528
85.0074
139.798
145.051
83.8925
-6.03985
-5.20563
-4.52981
-4.08256
-3.90313
-3.37897
-2.18158
-0.969267
-0.209935
0.242185
0.433903
0.463717
0.501483
0.502102
0.401964
0.294828
0.181184
0.128127
0.278428
0.521729
0.484582
0.473943
0.436526
0.416607
0.413582
0.407441
0.39345
0.3699
0.33416
0.283167
0.547828
0.507371
0.356147
-0.123009
-0.407188
-0.648773
-0.875927
-1.11261
-1.24618
-1.2004
-1.21489
-1.29708
-1.41843
-1.53393
-1.51171
-1.48135
-1.58615
-1.9866
-2.69936
-3.44393
-3.93551
-5.05836
-7.04115
-9.26572
41.9494
99.1765
53.2665
6.34473
6.32863
6.44026
6.61604
6.84472
7.0755
15.4481
7.59623
14.2318
11.454
5.78219
5.01984
3.83993
2.98227
3.44328
3.62032
3.62306
3.28749
3.18612
69.9289
134.562
138.946
17.3323
-5.59942
-4.38438
-3.66362
-3.84394
-3.58584
-3.10134
-2.12303
-1.27289
-0.574113
-0.0995779
0.183476
0.324005
0.379789
0.364056
0.286916
0.233415
0.216326
0.228151
0.287623
0.392712
0.389158
0.384236
0.362137
0.339719
0.323271
0.306089
0.283481
0.252311
0.208292
0.147836
0.224357
0.377746
0.250151
-0.0564098
-0.490476
-0.671623
-0.834173
-0.992648
-1.1133
-1.17372
-1.23583
-1.30363
-1.37127
-1.42708
-1.46861
-1.53592
-1.68442
-1.99251
-2.50426
-3.10605
-3.78696
-4.94457
-6.68802
-8.54756
-0.946734
37.5069
28.2623
5.24147
4.54941
5.09745
5.42872
5.69317
6.14464
14.6553
6.30315
15.8933
216.148
6.52971
4.26131
2.95135
2.79539
2.6709
2.42966
1.96059
1.14887
2.11481
22.3022
38.0804
13.0248
-5.10953
-0.299456
5.60807
5.91495
-3.88135
-3.48636
-2.988
-2.25033
-1.44072
-0.846999
-0.471923
-0.254628
-0.101498
0.0190691
0.0882504
0.125645
0.141387
0.147504
0.175065
0.219151
0.282612
0.285265
0.285384
0.272441
0.254517
0.235769
0.213913
0.185917
0.149258
0.100436
0.0369095
-0.0442805
0.217908
0.177962
0.052446
-0.447849
-0.673577
-0.826436
-0.957502
-1.05754
-1.12836
-1.19636
-1.27281
-1.35028
-1.42594
-1.50566
-1.61035
-1.76885
-2.01532
-2.35842
-2.77642
-3.31411
-4.17492
-5.37787
-6.3184
-6.71078
-4.91623
-0.121951
2.30704
3.0676
3.8609
4.24295
4.51173
6.34502
13.6942
5.9919
5.97672
514.409
11.772
7.22136
2.88721
2.42016
2.0096
1.49433
0.767548
-0.218043
-0.34976
-3.42937
-6.63195
-7.45721
-6.27658
-1.71178
6.37494
3.53955
-3.65378
-3.20378
-2.71768
-2.18075
-1.65638
-1.17475
-0.783251
-0.488958
-0.279923
-0.139968
-0.0479297
0.0127467
0.0517463
0.0778326
0.105961
0.143467
0.178863
0.189902
0.190784
0.182169
0.166955
0.147368
0.123034
0.09231
0.0531293
0.00290584
-0.0600346
-0.13772
-0.145966
0.111429
0.000660982
-0.44153
-0.688755
-0.815653
-0.926967
-1.0231
-1.10848
-1.18889
-1.26606
-1.34124
-1.41783
-1.50303
-1.60962
-1.751
-1.94086
-2.18019
-2.4603
-2.80295
-3.28064
-3.85627
-4.24536
-4.22953
-3.11819
-1.04366
0.817369
2.07445
2.88317
3.29853
3.54501
7.05353
12.9363
4.4179
11.6294
534.946
11.4378
8.33387
2.32844
1.82622
1.34306
0.738037
-0.0351677
-1.04513
-2.42395
-3.99104
-5.40278
-5.63031
-4.74548
-1.27494
-1.51381
-3.92801
-3.45194
-2.98771
-2.53461
-2.08191
-1.63871
-1.22885
-0.879514
-0.602269
-0.396178
-0.252137
-0.151998
-0.0837174
-0.0370392
-0.0028738
0.0276192
0.0575425
0.0822454
0.0948121
0.0978025
0.0926084
0.0804726
0.0622616
0.0377969
0.00606919
-0.0339809
-0.0838075
-0.144562
-0.217944
-0.298811
0.0384341
-0.0962742
-0.548441
-0.707535
-0.810993
-0.90383
-0.992613
-1.07823
-1.16101
-1.24239
-1.32295
-1.40425
-1.49144
-1.59098
-1.70867
-1.84825
-2.00721
-2.17696
-2.35564
-2.55869
-2.73631
-2.79403
-2.45509
-1.6534
-0.466314
0.661617
1.54495
2.18302
2.59857
2.84331
5.79097
4.41709
2.94886
46.3121
553.93
10.2491
8.06207
1.61333
1.17405
0.70019
0.101574
-0.611297
-1.45709
-2.40957
-3.38721
-4.14587
-4.18966
-3.21908
-3.1707
-4.06069
-3.73323
-3.33265
-2.8972
-2.45502
-2.02367
-1.61195
-1.23656
-0.918275
-0.665428
-0.475349
-0.338318
-0.24152
-0.173494
-0.124754
-0.0880969
-0.0578285
-0.0314634
-0.0105489
0.0025651
0.00776269
0.00551933
-0.00372763
-0.019815
-0.0429788
-0.0738183
-0.112788
-0.160327
-0.217507
-0.286172
-0.361688
-0.0142332
-0.0497292
-0.4298
-0.729822
-0.813645
-0.889155
-0.96997
-1.05541
-1.14026
-1.22326
-1.30494
-1.38615
-1.46987
-1.5584
-1.65236
-1.75101
-1.84928
-1.93746
-2.0045
-2.03761
-1.9953
-1.87587
-1.50696
-0.918387
-0.168165
0.565063
1.19687
1.70205
2.07099
2.33383
2.61968
2.44224
2.42215
65.8762
572.63
5.72381
8.02904
0.96587
0.588572
0.137713
-0.427917
-1.07124
-1.78625
-2.51943
-3.17299
-3.60013
-3.49937
-3.5694
-4.08138
-4.01394
-3.80211
-3.45483
-3.00445
-2.51006
-2.02622
-1.58711
-1.21407
-0.916824
-0.690577
-0.52437
-0.404976
-0.319497
-0.25889
-0.212628
-0.176505
-0.146628
-0.121288
-0.100966
-0.0867414
-0.0792164
-0.078575
-0.0848543
-0.0982351
-0.119147
-0.147815
-0.184083
-0.228145
-0.281731
-0.346961
-0.168443
0.000423246
-0.0826672
-0.183746
-0.695601
-0.818442
-0.880007
-0.953974
-1.03686
-1.12091
-1.20384
-1.28552
-1.36587
-1.44549
-1.52432
-1.59946
-1.66734
-1.72146
-1.75216
-1.7486
-1.70087
-1.60149
-1.378
-1.04465
-0.602627
-0.0657768
0.454517
0.930564
1.34075
1.66249
1.92328
2.04955
2.13689
2.26693
44.5657
591.098
2.42609
7.58434
0.44211
0.0987923
-0.333003
-0.867518
-1.46418
-2.11105
-2.75347
-3.3101
-3.64671
-3.93135
-4.2752
-4.43785
-4.48944
-4.35469
-3.98603
-3.42332
-2.77254
-2.14556
-1.60939
-1.19599
-0.901279
-0.698226
-0.560827
-0.464586
-0.395097
-0.342913
-0.301206
-0.26642
-0.236472
-0.210625
-0.189247
-0.173116
-0.162928
-0.159232
-0.162465
-0.17299
-0.191166
-0.216882
-0.249535
-0.289848
-0.340937
-0.391225
0.0360496
-0.0353682
-0.114292
-0.189932
-0.654158
-0.81989
-0.87181
-0.941009
-1.02054
-1.10285
-1.18561
-1.2675
-1.3473
-1.42397
-1.49575
-1.55789
-1.60485
-1.62975
-1.62364
-1.57748
-1.48312
-1.33438
-1.11079
-0.818044
-0.463686
-0.0655696
0.334237
0.710903
1.05183
1.33852
1.58139
1.73651
1.93259
2.28296
4.98833
606.694
0.844532
1.54361
0.0426131
-0.303104
-0.722854
-1.23955
-1.81553
-2.44503
-3.07871
-3.66065
-4.17882
-4.66061
-5.09078
-5.46467
-5.65013
-5.46937
-4.8816
-4.03288
-3.10224
-2.28307
-1.6603
-1.16304
-0.867568
-0.70995
-0.601715
-0.529008
-0.475063
-0.431085
-0.392738
-0.35819
-0.32686
-0.298944
-0.275114
-0.256206
-0.242946
-0.23601
-0.236016
-0.243554
-0.258848
-0.281414
-0.310982
-0.349147
-0.401556
-0.0891695
-0.00335086
-0.0752996
-0.144092
-0.344646
-0.760164
-0.815569
-0.863153
-0.92942
-1.00585
-1.08643
-1.16908
-1.25187
-1.33232
-1.40835
-1.47699
-1.53266
-1.56866
-1.57826
-1.55341
-1.48706
-1.37472
-1.21135
-0.996807
-0.73645
-0.439466
-0.1194
0.204806
0.517477
0.809589
1.0736
1.30535
1.49188
1.76164
2.43765
3.50104
621.549
0.315222
-0.0459195
-0.28133
-0.628471
-1.04205
-1.55679
-2.13755
-2.78968
-3.48381
-4.20023
-4.9366
-5.69779
-6.44444
-7.09212
-7.32089
-6.92664
-6.15439
-5.00851
-3.71505
-2.51198
-1.58496
-1.07327
-0.857029
-0.7617
-0.671047
-0.614414
-0.569698
-0.529025
-0.49011
-0.452814
-0.417778
-0.385884
-0.3581
-0.335358
-0.318419
-0.308031
-0.304759
-0.309405
-0.322043
-0.341831
-0.320801
-0.234754
-0.356882
-0.0436185
-0.0596805
-0.115657
-0.23594
-0.692967
-0.778182
-0.806365
-0.853816
-0.917973
-0.992009
-1.07156
-1.15452
-1.23908
-1.32203
-1.4005
-1.47093
-1.52755
-1.56308
-1.57063
-1.54262
-1.47303
-1.35883
-1.19979
-0.999198
-0.764277
-0.503847
-0.227749
0.0532643
0.329379
0.592539
0.842223
1.07259
1.2933
1.48869
2.5567
97.8199
627.088
0.0101499
-0.320096
-0.55612
-0.889229
-1.30105
-1.82238
-2.42586
-3.1336
-3.94384
-4.87418
-5.92987
-7.03979
-8.20606
-9.09392
-9.39815
-8.86221
-7.68171
-6.14241
-4.49333
-2.97383
-1.85843
-1.232
-1.0111
-0.892907
-0.797452
-0.738208
-0.688743
-0.641649
-0.595486
-0.550842
-0.508925
-0.470847
-0.437594
-0.409992
-0.388745
-0.374571
-0.367939
-0.369812
-0.379709
-0.397541
-0.134305
-0.158511
-0.225721
-0.551841
-0.354593
-0.330995
-0.677298
-0.749269
-0.764958
-0.795081
-0.84322
-0.905644
-0.977991
-1.05724
-1.14144
-1.22914
-1.31715
-1.40223
-1.48048
-1.54605
-1.59157
-1.60978
-1.59312
-1.53554
-1.43413
-1.28881
-1.10476
-0.888843
-0.649305
-0.394709
-0.133548
0.126445
0.376914
0.617212
0.835999
1.10661
1.17601
2.7313
375.059
216.495
-0.211332
-0.534109
-0.763265
-1.08246
-1.49788
-2.03104
-2.66933
-3.45698
-4.42699
-5.62934
-7.00282
-8.58834
-10.0551
-11.049
-11.2229
-10.6045
-9.25338
-7.22567
-5.16091
-3.48203
-2.25857
-1.59664
-1.35735
-1.14464
-1.00929
-0.914892
-0.838574
-0.771125
-0.708942
-0.651353
-0.598978
-0.552452
-0.512341
-0.479044
-0.453072
-0.434813
-0.424814
-0.423915
-0.430811
-0.304406
-0.156011
-0.216049
-0.382531
-0.66739
-0.699259
-0.716155
-0.722579
-0.730796
-0.749318
-0.78269
-0.830888
-0.891755
-0.963056
-1.04285
-1.12969
-1.22244
-1.31843
-1.41453
-1.50701
-1.59015
-1.6567
-1.699
-1.70886
-1.67916
-1.60623
-1.4828
-1.31777
-1.11521
-0.882996
-0.630754
-0.369206
-0.108319
0.141219
0.377462
0.568973
1.03585
0.849575
27.8011
513.005
6.2875
-0.438244
-0.669908
-0.891704
-1.20375
-1.62406
-2.17014
-2.84855
-3.72829
-4.87836
-6.30536
-8.06061
-9.95932
-11.6088
-12.4374
-12.442
-11.6083
-10.0486
-8.06077
-5.74916
-3.99194
-2.79377
-2.00893
-1.73414
-1.55063
-1.31931
-1.14752
-1.01762
-0.914544
-0.82741
-0.751553
-0.685557
-0.628718
-0.580675
-0.541104
-0.510185
-0.487679
-0.474448
-0.47021
-0.474068
-0.162081
-0.201309
-0.267576
-0.603828
-0.676338
-0.688629
-0.694208
-0.698525
-0.710979
-0.734134
-0.769192
-0.816558
-0.876047
-0.946878
-1.02798
-1.11865
-1.21835
-1.32529
-1.43703
-1.55055
-1.66087
-1.76122
-1.84344
-1.89779
-1.91397
-1.88218
-1.80006
-1.66103
-1.46805
-1.22953
-0.959046
-0.674168
-0.392067
-0.131344
0.103916
0.250424
1.12426
0.436368
41.7487
203.959
5.54101
-0.55736
-0.719586
-0.942583
-1.25163
-1.67293
-2.22644
-2.93939
-3.90187
-5.17242
-6.80526
-8.83716
-10.8665
-12.4251
-13.0908
-12.9425
-11.9497
-10.2713
-8.23855
-6.04399
-4.48769
-3.45007
-2.72471
-2.18485
-2.0326
-1.70198
-1.41635
-1.2117
-1.06205
-0.944021
-0.846659
-0.765356
-0.697376
-0.641006
-0.595035
-0.559101
-0.532344
-0.515951
-0.507407
-0.397422
-0.197439
-0.30115
-0.606968
-0.641234
-0.655611
-0.659233
-0.665628
-0.676121
-0.692402
-0.717672
-0.752963
-0.799331
-0.857631
-0.928247
-1.01107
-1.10637
-1.21464
-1.33544
-1.46773
-1.60993
-1.75866
-1.90833
-2.05078
-2.17476
-2.26603
-2.30789
-2.28759
-2.18856
-2.00378
-1.74142
-1.42366
-1.08139
-0.7456
-0.450014
-0.204044
-0.0998952
0.602122
0.127456
33.633
68.6839
4.93513
-0.52575
-0.691974
-0.92112
-1.2266
-1.63915
-2.19218
-2.92212
-3.92391
-5.19198
-7.029
-9.10598
-11.1539
-12.4864
-12.9848
-12.6682
-11.5441
-9.85452
-7.69573
-6.03099
-4.88973
-4.10903
-3.47523
-2.84424
-2.50346
-2.08249
-1.6749
-1.39375
-1.19729
-1.04851
-0.930159
-0.834232
-0.755813
-0.691733
-0.63996
-0.599285
-0.568717
-0.548858
-0.53399
-0.223455
-0.292634
-0.584917
-0.604828
-0.619956
-0.627867
-0.633651
-0.642258
-0.654898
-0.672704
-0.698098
-0.732812
-0.777945
-0.834907
-0.905183
-0.989785
-1.09015
-1.2082
-1.34548
-1.50319
-1.68235
-1.88263
-2.10131
-2.33248
-2.56558
-2.78164
-2.94954
-3.03437
-3.00151
-2.82491
-2.51095
-2.09868
-1.64183
-1.19501
-0.813424
-0.513973
-0.391933
-0.234588
-0.473686
12.3938
75.5791
4.15112
-0.433134
-0.598823
-0.838876
-1.13688
-1.52936
-2.06056
-2.77473
-3.67946
-5.02633
-6.83471
-8.8215
-10.6365
-11.7788
-12.0868
-11.5955
-10.4032
-8.63062
-6.90105
-5.75194
-5.03506
-4.53893
-4.0114
-3.3411
-2.91453
-2.35617
-1.86453
-1.53185
-1.30166
-1.12961
-0.99516
-0.887881
-0.801309
-0.731174
-0.674916
-0.630292
-0.597007
-0.573255
-0.313561
-0.235307
-0.562262
-0.582691
-0.590619
-0.598653
-0.604481
-0.611477
-0.620564
-0.63281
-0.65037
-0.674811
-0.708007
-0.751258
-0.806363
-0.875824
-0.961772
-1.06699
-1.19528
-1.35081
-1.53816
-1.76264
-2.02946
-2.3428
-2.70533
-3.11315
-3.53947
-3.9006
-4.16051
-4.19431
-3.9091
-3.53632
-3.03915
-2.33988
-1.7308
-1.21803
-0.790794
-0.557113
-0.439915
-0.425149
-0.795116
35.4273
1.18843
-0.311796
-0.458818
-0.714732
-0.998327
-1.35388
-1.83658
-2.49126
-3.33091
-4.56798
-6.21565
-7.90963
-9.45494
-10.3328
-10.449
-9.82209
-8.54144
-6.89581
-5.75516
-5.06486
-4.74584
-4.50429
-4.09313
-3.64641
-3.10127
-2.44082
-1.94312
-1.60236
-1.36083
-1.17873
-1.03643
-0.923078
-0.831854
-0.758083
-0.699077
-0.651712
-0.616868
-0.58701
-0.178964
-0.24168
-0.57473
-0.576355
-0.577842
-0.581603
-0.58529
-0.590265
-0.597894
-0.608901
-0.624927
-0.647546
-0.678139
-0.718661
-0.770769
-0.83847
-0.924563
-1.03333
-1.17098
-1.34485
-1.56435
-1.8413
-2.19068
-2.63111
-3.18558
-3.84809
-4.54354
-5.15478
-5.66821
-5.86158
-5.67245
-5.10206
-4.25446
-3.27173
-2.30582
-1.66988
-1.03046
-0.617016
-0.364046
0.176664
-0.0648584
9.94516
0.55244
-0.225306
-0.328078
-0.575056
-0.83169
-1.13157
-1.53686
-2.08841
-2.86047
-3.90355
-5.19911
-6.6107
-7.74996
-8.32056
-8.25756
-7.43456
-6.12203
-5.04947
-4.31818
-4.01994
-4.02084
-4.10036
-3.97868
-3.54904
-2.88574
-2.3271
-1.90773
-1.59906
-1.36989
-1.19248
-1.05167
-0.938372
-0.846588
-0.772024
-0.712159
-0.663639
-0.628104
-0.484254
-0.179431
-0.486403
-0.573506
-0.568657
-0.564799
-0.563687
-0.564806
-0.567716
-0.573299
-0.58232
-0.595959
-0.615691
-0.643045
-0.680186
-0.726783
-0.791539
-0.875729
-0.985078
-1.12924
-1.31869
-1.56907
-1.90205
-2.34806
-2.95057
-3.76154
-4.67576
-5.84084
-6.95377
-7.73008
-8.02002
-7.81734
-7.02382
-5.8355
-4.472
-3.11537
-1.97987
-1.22755
-0.614975
-0.230323
0.216457
51.7248
22.0279
0.668979
-0.220698
-0.296752
-0.461762
-0.657754
-0.88682
-1.19195
-1.60797
-2.19377
-2.9799
-3.74062
-4.78377
-5.71352
-6.04066
-5.59859
-4.81757
-3.94291
-3.21146
-2.85265
-3.01299
-3.36163
-3.45807
-3.30653
-2.94704
-2.50263
-2.10264
-1.78172
-1.53259
-1.33365
-1.17283
-1.04165
-0.934082
-0.845698
-0.773183
-0.714292
-0.666522
-0.630942
-0.18183
-0.173291
-0.519497
-0.566999
-0.557508
-0.550002
-0.544839
-0.542427
-0.542945
-0.546096
-0.552495
-0.563064
-0.579024
-0.601826
-0.633327
-0.675811
-0.734367
-0.813867
-0.917973
-1.06378
-1.26229
-1.53634
-1.92084
-2.46745
-3.25681
-4.28804
-5.70967
-7.33648
-8.84337
-9.88542
-10.2059
-9.87994
-8.92
-7.32194
-5.58419
-3.8545
-2.35675
-1.35509
-0.557955
-0.0663587
0.622061
76.7661
26.6411
0.504318
-0.253461
-0.306472
-0.371119
-0.486258
-0.637871
-0.834801
-1.10332
-1.48443
-1.9349
-2.31778
-2.94186
-3.41269
-3.50303
-3.23032
-2.67676
-2.07954
-1.70413
-1.89506
-2.19194
-2.39926
-2.52301
-2.4872
-2.31325
-2.07452
-1.8319
-1.61303
-1.42513
-1.26306
-1.12562
-1.00963
-0.912087
-0.830308
-0.762238
-0.705839
-0.660449
-0.623072
-0.168759
-0.16319
-0.540577
-0.555557
-0.541305
-0.530596
-0.522752
-0.517851
-0.515736
-0.516089
-0.519343
-0.5262
-0.537632
-0.554953
-0.579945
-0.615261
-0.665161
-0.735065
-0.832373
-0.970666
-1.16774
-1.45032
-1.86815
-2.49871
-3.46797
-4.80963
-6.64348
-8.69073
-10.2963
-11.2843
-11.5803
-11.1734
-10.085
-8.41613
-6.33491
-4.30632
-2.5974
-1.40625
-0.472992
0.133008
20.8799
78.2592
11.7547
0.582475
-0.249488
-0.259176
-0.290209
-0.329295
-0.392186
-0.485893
-0.620804
-0.762724
-0.781595
-1.10096
-1.43754
-1.65877
-1.66099
-1.50239
-1.03863
-0.754557
-0.958772
-1.21141
-1.43011
-1.65078
-1.80038
-1.85153
-1.80783
-1.70349
-1.57024
-1.42981
-1.2949
-1.17011
-1.05846
-0.96042
-0.875437
-0.802406
-0.740497
-0.687762
-0.645788
-0.576602
-0.148895
-0.477386
-0.549011
-0.536414
-0.520716
-0.508136
-0.498295
-0.491072
-0.486222
-0.483507
-0.483204
-0.485797
-0.492027
-0.503003
-0.520306
-0.546388
-0.585051
-0.641708
-0.724421