/*--------------------------------*- C++ -*----------------------------------*\
| =========                 |                                                 |
| \\      /  F ield         | OpenFOAM: The Open Source CFD Toolbox           |
|  \\    /   O peration     | Version:  2412                                  |
|   \\  /    A nd           | Website:  www.openfoam.com                      |
|    \\/     M anipulation  |                                                 |
\*---------------------------------------------------------------------------*/
FoamFile
{
    version     2.0;
    format      ascii;
    arch        "LSB;label=32;scalar=64";
    class       surfaceScalarField;
    location    "2.45";
    object      alphaPhi0.lava;
}
// * * * * * * * * * * * * * * * * * * * * * * * * * * * * * * * * * * * * * //

dimensions      [0 3 -1 0 0 0 0];

oriented        oriented;

internalField   nonuniform List<scalar> 
12640
(
7.7172e-10
-5.74757e-10
1.03614e-09
-2.07784e-09
4.83431e-10
-2.68317e-09
-9.4176e-10
-1.46038e-09
-2.49675e-09
1.34956e-09
-2.95286e-09
4.19894e-09
-1.58396e-09
5.09594e-09
1.1643e-09
2.93598e-09
3.77005e-09
-1.54942e-09
4.53292e-09
-5.98271e-09
2.71555e-09
-7.67432e-09
-8.39039e-10
-5.334e-09
-4.10247e-09
-2.30542e-11
-5.07642e-09
5.33521e-09
-3.06976e-09
7.6688e-09
8.16944e-10
5.61906e-09
4.33637e-09
3.77387e-10
5.47119e-09
-5.05074e-09
3.65106e-09
-7.66191e-09
4.63898e-11
-6.20747e-09
-3.21579e-09
-1.80274e-09
-4.36534e-09
2.89489e-09
-2.99057e-09
5.34082e-09
-1.40837e-10
4.52064e-09
2.44036e-09
1.32568e-09
3.39547e-09
-2.2088e-09
2.46226e-09
-4.19807e-09
4.48444e-10
-3.91131e-09
-1.40066e-09
-1.95423e-09
-2.16983e-09
3.21737e-10
-1.70959e-09
1.70165e-09
-5.53951e-10
1.72227e-09
5.2453e-10
7.35998e-10
9.89717e-10
-4.84368e-10
7.70508e-10
-1.26631e-09
1.74416e-10
-1.36258e-09
-3.84535e-10
-9.52629e-10
-6.40244e-10
-4.11876e-10
-5.72245e-10
-4.64276e-11
-3.3611e-10
4.59418e-11
-1.16355e-10
-5.06665e-11
-1.1377e-11
-1.92129e-10
-9.28638e-12
-2.85162e-10
-4.10708e-11
-3.20618e-10
-5.2739e-11
-3.33369e-10
-4.11672e-11
-3.4292e-10
-3.6663e-11
-3.29832e-10
-5.74439e-11
-2.63928e-10
-7.95792e-11
-1.53386e-10
-5.05944e-11
-6.44697e-11
6.13611e-11
-8.3176e-11
2.22861e-10
-2.39152e-10
3.38147e-10
-4.5168e-10
3.11575e-10
-5.55831e-10
1.32856e-10
-4.1365e-10
-8.12939e-11
-4.44432e-11
-1.39682e-10
3.3116e-10
8.98316e-11
3.99559e-10
5.49278e-10
-2.11031e-11
9.71125e-10
-7.85693e-10
1.02117e-09
-1.4217e-09
5.41233e-10
-1.38882e-09
-2.71604e-10
-4.72846e-10
-9.06652e-10
9.4764e-10
-8.33432e-10
2.00499e-09
1.10959e-10
1.83489e-09
1.50695e-09
1.96543e-10
2.5123e-09
-2.20467e-09
2.35842e-09
-3.98315e-09
8.93727e-10
-3.86338e-09
-1.20727e-09
-1.53543e-09
-2.76415e-09
1.98785e-09
-2.78553e-09
4.82333e-09
-1.0942e-09
5.26601e-09
1.53719e-09
2.82264e-09
3.83503e-09
-1.43155e-09
4.79113e-09
-5.41443e-09
4.09754e-09
-7.24186e-09
2.194e-09
-6.21944e-09
-2.46937e-09
-1.63267e-10
4.60061e-10
9.97443e-10
-1.41474e-09
1.81675e-09
-3.4395e-09
1.24555e-09
-3.73412e-09
-9.14348e-10
-1.64115e-09
-3.35437e-09
1.92872e-09
-4.23337e-09
4.82981e-09
-2.48871e-09
4.91625e-09
1.26416e-09
1.5367e-09
4.92417e-09
-3.77409e-09
6.17071e-09
-8.02011e-09
4.00771e-09
-8.53478e-09
-4.51594e-10
-4.73189e-09
-4.57204e-09
1.37974e-09
-5.82042e-09
6.31753e-09
-3.38705e-09
7.22746e-09
1.2862e-09
3.6192e-09
5.41332e-09
-2.3612e-09
6.61251e-09
-7.28248e-09
4.33906e-09
-8.50129e-09
1.13328e-10
-5.65352e-09
-3.53719e-09
-6.82744e-10
-4.66027e-09
3.48853e-09
-2.96635e-09
4.7256e-09
1.99607e-10
2.78311e-09
2.85032e-09
-8.21475e-10
3.59067e-09
-3.92173e-09
2.31736e-09
-5.00319e-09
5.43249e-11
-3.9119e-09
-1.83302e-09
-1.66923e-09
-2.46781e-09
3.27661e-10
-1.84404e-09
1.14088e-09
-6.31583e-10
6.82873e-10
3.55647e-10
-4.52927e-10
6.44324e-10
-1.49042e-09
2.71789e-10
-1.93466e-09
-3.76174e-10
-1.75122e-09
-8.79494e-10
-1.23975e-09
-1.02747e-09
-7.62463e-10
-8.7064e-10
-5.25795e-10
-6.05361e-10
-5.2482e-10
-4.0823e-10
-6.30873e-10
-3.35431e-10
-7.21821e-10
-3.31254e-10
-7.57623e-10
-3.09997e-10
-7.67662e-10
-2.36395e-10
-7.86209e-10
-1.46222e-10
-8.02366e-10
-1.00625e-10
-7.67959e-10
-1.17366e-10
-6.54052e-10
-1.38433e-10
-5.03326e-10
-6.62466e-11
-4.23945e-10
1.51745e-10
-5.13611e-10
4.54225e-10
-7.62956e-10
6.77238e-10
-1.01903e-09
6.59856e-10
-1.06235e-09
3.83038e-10
-7.69778e-10
3.60792e-11
-2.55185e-10
-6.86233e-11
1.38061e-10
2.90413e-10
3.54849e-11
1.03339e-09
-6.76493e-10
1.74483e-09
-1.67085e-09
1.89339e-09
-2.28853e-09
1.2087e-09
-1.93951e-09
-3.7713e-11
-5.68926e-10
-1.0864e-09
1.14583e-09
-1.12547e-09
2.0891e-09
1.33767e-10
1.3916e-09
2.13337e-09
-8.99701e-10
3.68998e-09
-3.65497e-09
3.69358e-09
-5.20866e-09
1.86624e-09
-4.36842e-09
-9.48872e-10
-1.25951e-09
-3.20813e-09
2.58285e-09
-3.56387e-09
5.0265e-09
-1.65482e-09
4.60691e-09
1.70488e-09
1.46e-09
5.0462e-09
-2.75575e-09
6.66994e-09
-5.95361e-09
5.81376e-09
-6.85027e-09
-4.32914e-09
-2.20299e-09
1.46562e-09
-8.00399e-10
3.22357e-10
1.72534e-09
-2.43383e-09
3.51502e-09
-4.79229e-09
2.79046e-09
-5.14087e-09
-3.7871e-10
-2.82598e-09
-4.14298e-09
1.14837e-09
-5.92311e-09
4.43051e-09
-4.1234e-09
4.72843e-09
6.4886e-10
1.38612e-09
5.75085e-09
-3.97075e-09
8.08814e-09
-8.27725e-09
6.11507e-09
-8.89298e-09
9.19049e-10
-5.30951e-09
-4.39737e-09
4.53471e-10
-6.65177e-09
5.04877e-09
-4.57568e-09
5.85072e-09
4.47506e-10
2.52537e-09
5.33446e-09
-2.85118e-09
7.27119e-09
-7.15194e-09
5.38462e-09
-8.10424e-09
1.09484e-09
-5.53866e-09
-2.9607e-09
-1.2725e-09
-4.61548e-09
2.1595e-09
-3.37262e-09
3.03847e-09
-4.45794e-10
1.31033e-09
2.21254e-09
-1.64919e-09
3.15532e-09
-4.04785e-09
2.16776e-09
-4.74428e-09
1.42585e-10
-3.74398e-09
-1.65725e-09
-1.9497e-09
-2.38781e-09
-4.65938e-10
-1.9937e-09
4.80127e-11
-1.03908e-09
-3.80022e-10
-2.28885e-10
-1.23562e-09
2.40832e-11
-1.93375e-09
-2.53425e-10
-2.15649e-09
-7.41907e-10
-1.9425e-09
-1.10284e-09
-1.54834e-09
-1.18172e-09
-1.23001e-09
-1.03906e-09
-1.09747e-09
-8.39349e-10
-1.10699e-09
-7.07347e-10
-1.15296e-09
-6.53723e-10
-1.16821e-09
-6.03562e-10
-1.16034e-09
-4.85845e-10
-1.17359e-09
-3.06699e-10
-1.22274e-09
-1.49304e-10
-1.26171e-09
-1.00979e-10
-1.21716e-09
-1.64235e-10
-1.06277e-09
-2.26531e-10
-8.71065e-10
-1.27073e-10
-7.8759e-10
2.12466e-10
-9.26977e-10
6.87234e-10
-1.25809e-09
1.03245e-09
-1.57422e-09
9.89974e-10
-1.60275e-09
5.24692e-10
-1.2087e-09
-7.06405e-11
-5.55417e-10
-3.03343e-10
-7.65683e-11
1.90994e-10
-2.22372e-10
1.32032e-09
-1.1107e-09
2.46881e-09
-2.33026e-09
2.81401e-09
-3.0912e-09
1.88926e-09
-2.70622e-09
2.17137e-11
-1.12288e-09
-1.71033e-09
8.74717e-10
-2.07973e-09
2.02343e-09
-5.41662e-10
1.35504e-09
2.2611e-09
-1.08157e-09
4.73704e-09
-4.07346e-09
5.26381e-09
-5.8613e-09
3.24027e-09
-5.20747e-09
-4.26475e-10
-2.23577e-09
-3.74488e-09
1.54012e-09
-4.75143e-09
4.08421e-09
-2.64051e-09
4.06104e-09
1.73549e-09
1.58492e-09
5.67412e-09
-2.07654e-09
6.59924e-09
-5.17517e-09
-4.80238e-09
-3.85881e-09
1.59627e-09
-3.31511e-09
2.05425e-09
-3.12887e-10
1.08305e-10
3.5127e-09
-3.39575e-09
5.47157e-09
-6.66525e-09
3.89646e-09
-7.46796e-09
-7.28132e-10
-4.75224e-09
-5.71485e-09
3.21703e-10
-7.72203e-09
4.83129e-09
-4.98049e-09
5.84682e-09
1.33978e-09
2.3671e-09
7.64985e-09
-3.86158e-09
1.01414e-08
-9.28864e-09
7.23679e-09
-1.07144e-08
6.55654e-10
-7.29251e-09
-5.65018e-09
-1.06127e-09
-7.9823e-09
4.32753e-09
-5.17016e-09
5.8541e-09
8.33066e-10
2.89582e-09
6.32411e-09
-2.55649e-09
8.20629e-09
-7.27125e-09
5.7711e-09
-8.76484e-09
8.58054e-10
-6.64651e-09
-3.53397e-09
-2.57674e-09
-5.14362e-09
9.60182e-10
-3.63606e-09
2.18097e-09
-4.72796e-10
8.80301e-10
2.24266e-09
-1.74377e-09
3.07924e-09
-4.02777e-09
1.945e-09
-4.85436e-09
-1.54066e-10
-4.14119e-09
-1.92909e-09
-2.64e-09
-2.59306e-09
-1.31891e-09
-2.16717e-09
-7.8005e-10
-1.24907e-09
-1.03512e-09
-5.15776e-10
-1.67218e-09
-3.20354e-10
-2.21136e-09
-5.91547e-10
-2.39153e-09
-1.0101e-09
-2.24224e-09
-1.27816e-09
-1.96328e-09
-1.29256e-09
-1.74311e-09
-1.14267e-09
-1.64722e-09
-9.82705e-10
-1.62674e-09
-8.95803e-10
-1.60556e-09
-8.46211e-10
-1.56112e-09
-7.38042e-10
-1.53628e-09
-5.2138e-10
-1.58231e-09
-2.56639e-10
-1.68826e-09
-8.13079e-11
-1.76343e-09
-9.67828e-11
-1.69906e-09
-2.59122e-10
-1.47023e-09
-3.69076e-10
-1.1956e-09
-1.96253e-10
-1.08831e-09
3.29199e-10
-1.30525e-09
9.98258e-10
-1.79052e-09
1.39941e-09
-2.24305e-09
1.18832e-09
-2.27701e-09
3.90538e-10
-1.70644e-09
-4.97405e-10
-7.63991e-10
-7.51756e-10
-5.72461e-11
8.24092e-11
-2.17536e-10
1.75941e-09
-1.42339e-09
3.3209e-09
-3.13185e-09
3.62058e-09
-4.2765e-09
2.12299e-09
-3.90491e-09
-5.62644e-10
-1.88638e-09
-2.86351e-09
8.08181e-10
-3.15389e-09
2.54789e-09
-8.67438e-10
2.02141e-09
2.9439e-09
-8.36791e-10
6.08098e-09
-4.62693e-09
6.4985e-09
-7.2048e-09
3.64967e-09
-6.95955e-09
-1.01675e-09
-3.839e-09
-4.78841e-09
5.57497e-10
-5.29774e-09
3.90331e-09
-2.07946e-09
4.47446e-09
2.42851e-09
2.00487e-09
4.72244e-09
-2.02304e-09
-3.72643e-09
-3.7566e-09
3.09301e-10
-4.92673e-09
2.29837e-09
-3.38467e-09
2.68333e-09
6.64368e-10
1.49245e-10
5.08377e-09
-4.5553e-09
6.94227e-09
-8.79148e-09
4.49404e-09
-9.69665e-09
-1.26988e-09
-6.16601e-09
-6.92071e-09
1.44907e-10
-8.68486e-09
5.59212e-09
-4.99026e-09
6.73772e-09
2.3085e-09
2.57917e-09
8.94671e-09
-4.66882e-09
1.09258e-08
-1.08452e-08
7.07311e-09
-1.23817e-08
-2.1375e-10
-8.49093e-09
-6.52836e-09
-1.5913e-09
-8.24489e-09
4.25395e-09
-4.69729e-09
5.83665e-09
1.61824e-09
2.63028e-09
6.80316e-09
-3.12821e-09
8.01681e-09
-8.00897e-09
5.03449e-09
-9.49223e-09
4.77532e-11
-7.28403e-09
-3.95161e-09
-3.15912e-09
-5.02218e-09
3.63729e-10
-3.20769e-09
1.55475e-09
-1.475e-10
2.83245e-10
2.16715e-09
-2.23232e-09
2.59189e-09
-4.38258e-09
1.2853e-09
-5.13536e-09
-6.84148e-10
-4.45761e-09
-2.15841e-09
-3.07806e-09
-2.55786e-09
-1.88698e-09
-2.04657e-09
-1.40782e-09
-1.2282e-09
-1.62202e-09
-6.74967e-10
-2.1493e-09
-6.108e-10
-2.5771e-09
-8.92268e-10
-2.70368e-09
-1.21443e-09
-2.57733e-09
-1.35305e-09
-2.37102e-09
-1.28255e-09
-2.22217e-09
-1.12747e-09
-2.15308e-09
-1.02074e-09
-2.10377e-09
-9.88273e-10
-2.02373e-09
-9.40632e-10
-1.93554e-09
-7.6749e-10
-1.91749e-09
-4.55365e-10
-2.02115e-09
-1.30968e-10
-2.19586e-09
1.65333e-11
-2.29386e-09
-1.09041e-10
-2.1722e-09
-3.92239e-10
-1.82777e-09
-5.34724e-10
-1.45583e-09
-2.50026e-10
-1.35644e-09
4.88034e-10
-1.71775e-09
1.33246e-09
-2.41717e-09
1.72053e-09
-3.01056e-09
1.25744e-09
-2.9798e-09
8.51839e-11
-2.12122e-09
-1.06195e-09
-8.09631e-10
-1.25073e-09
1.08026e-10
-7.19422e-12
-1.866e-10
2.19823e-09
-1.862e-09
4.05691e-09
-4.13537e-09
4.17843e-09
-5.59432e-09
2.08001e-09
-5.05188e-09
-1.27803e-09
-2.4252e-09
-3.88786e-09
9.86306e-10
-3.9029e-09
3.13276e-09
-9.2148e-10
2.45648e-09
3.5456e-09
-1.02172e-09
6.85782e-09
-5.53656e-09
6.87185e-09
-8.5331e-09
3.39373e-09
-8.20266e-09
-1.54671e-09
-4.62627e-09
-4.90477e-09
2.20073e-10
-4.69967e-09
3.63198e-09
-1.77332e-09
3.78503e-09
9.93014e-10
1.04544e-09
-1.49252e-09
-1.34248e-09
-1.8483e-09
-4.14429e-09
4.67259e-10
-5.50321e-09
3.35978e-09
-3.66585e-09
3.56885e-09
1.22876e-09
4.72577e-11
6.37826e-09
-5.77604e-09
8.24293e-09
-1.06726e-08
5.0798e-09
-1.14721e-08
-1.59126e-09
-7.21228e-09
-7.72542e-09
-4.17652e-11
-9.29399e-09
5.87431e-09
-4.98289e-09
6.8849e-09
2.82078e-09
2.19118e-09
9.47042e-09
-5.55996e-09
1.10128e-08
-1.18754e-08
6.67508e-09
-1.3175e-08
-7.34066e-10
-8.94087e-09
-6.71675e-09
-1.89951e-09
-7.9368e-09
3.78329e-09
-4.15658e-09
5.063e-09
1.90223e-09
1.69198e-09
6.4932e-09
-3.92903e-09
7.18633e-09
-8.44745e-09
4.11895e-09
-9.59695e-09
-4.63147e-10
-7.3187e-09
-3.84704e-09
-3.43411e-09
-4.49485e-09
-2.95049e-10
-2.7011e-09
6.23235e-10
-5.4098e-11
-6.42831e-10
1.74329e-09
-2.89519e-09
1.86305e-09
-4.69935e-09
6.10529e-10
-5.22558e-09
-1.03069e-09
-4.54475e-09
-2.12888e-09
-3.34523e-09
-2.31381e-09
-2.38122e-09
-1.82451e-09
-2.04104e-09
-1.19122e-09
-2.24865e-09
-8.38711e-10
-2.66012e-09
-8.69059e-10
-2.95213e-09
-1.10435e-09
-3.00313e-09
-1.29149e-09
-2.88912e-09
-1.29662e-09
-2.75353e-09
-1.16528e-09
-2.67524e-09
-1.03783e-09
-2.62885e-09
-1.00739e-09
-2.54567e-09
-1.03372e-09
-2.40757e-09
-9.76902e-10
-2.28743e-09
-7.24485e-10
-2.29646e-09
-3.14376e-10
-2.47548e-09
5.0955e-11
-2.72065e-09
1.33323e-10
-2.82107e-09
-1.4264e-10
-2.60832e-09
-5.69062e-10
-2.12206e-09
-7.35687e-10
-1.65475e-09
-3.06061e-10
-1.59776e-09
6.7817e-10
-2.15174e-09
1.7045e-09
-3.095e-09
2.04797e-09
-3.81681e-09
1.27868e-09
-3.67176e-09
-3.12633e-10
-2.47238e-09
-1.72864e-09
-7.74997e-10
-1.82828e-09
3.2138e-10
-1.45314e-10
-1.6e-10
2.59806e-09
-2.32658e-09
4.74324e-09
-5.12593e-09
4.68739e-09
-6.82617e-09
2.03514e-09
-6.08129e-09
-1.90626e-09
-2.92532e-09
-4.75397e-09
1.01781e-09
-4.52342e-09
3.38174e-09
-1.01481e-09
2.5139e-09
3.86754e-09
-1.37998e-09
7.19989e-09
-6.21476e-09
6.89647e-09
-9.22569e-09
3.12564e-09
-8.67426e-09
-1.76078e-09
-4.95275e-09
-4.89831e-09
-3.20878e-10
-4.93716e-09
2.61876e-09
-2.88428e-09
2.74916e-09
9.52599e-10
2.47232e-09
-3.58105e-09
-7.80691e-10
-2.69192e-09
-4.93941e-09
1.10536e-09
-6.8916e-09
4.17857e-09
-4.30187e-09
4.02312e-09
1.77426e-09
-2.11722e-10
7.68207e-09
-6.82792e-09
9.46486e-09
-1.21921e-08
5.56452e-09
-1.29165e-08
-1.92579e-09
-8.17196e-09
-8.42925e-09
-4.77551e-10
-9.78543e-09
5.67978e-09
-4.98556e-09
6.59894e-09
3.12871e-09
1.69238e-09
9.67607e-09
-6.13509e-09
1.08475e-08
-1.23138e-08
6.23718e-09
-1.34241e-08
-1.08268e-09
-9.19008e-09
-6.67505e-09
-2.43645e-09
-7.53598e-09
2.825e-09
-3.75655e-09
3.8535e-09
1.88368e-09
6.24539e-10
5.90324e-09
-4.49835e-09
6.26272e-09
-8.44904e-09
3.33002e-09
-9.30547e-09
-7.38796e-10
-7.17922e-09
-3.56643e-09
-3.78166e-09
-3.95805e-09
-1.15731e-09
-2.33478e-09
-4.81664e-10
-1.35955e-10
-1.60699e-09
1.23492e-09
-3.45697e-09
1.19603e-09
-4.84919e-09
1.05784e-10
-5.17131e-09
-1.19118e-09
-4.55916e-09
-1.97817e-09
-3.60613e-09
-2.03757e-09
-2.89616e-09
-1.62548e-09
-2.68205e-09
-1.17401e-09
-2.85321e-09
-9.75323e-10
-3.12714e-09
-1.04502e-09
-3.28155e-09
-1.20147e-09
-3.27084e-09
-1.25464e-09
-3.18574e-09
-1.15322e-09
-3.12835e-09
-9.96947e-10
-3.11486e-09
-9.26092e-10
-3.07669e-09
-9.84057e-10
-2.94605e-09
-1.06212e-09
-2.74665e-09
-9.75346e-10
-2.60537e-09
-6.21924e-10
-2.66145e-09
-1.07294e-10
-2.93299e-09
2.79259e-10
-3.25018e-09
2.53856e-10
-3.33407e-09
-2.17795e-10
-2.99899e-09
-8.07789e-10
-2.34602e-09
-9.77359e-10
-1.78276e-09
-3.495e-10
-1.79618e-09
9.32351e-10
-2.58491e-09
2.15245e-09
-3.80321e-09
2.40954e-09
-4.6553e-09
1.26187e-09
-4.37026e-09
-8.03991e-10
-2.79725e-09
-2.49044e-09
-6.96147e-10
-2.4502e-09
5.77459e-10
-2.65502e-10
-9.45355e-11
3.0416e-09
-2.73774e-09
5.44735e-09
-6.03221e-09
5.17007e-09
-7.96138e-09
1.95747e-09
-7.06627e-09
-2.50843e-09
-3.51103e-09
-5.50277e-09
8.0764e-10
-4.9803e-09
3.30974e-09
-1.004e-09
2.3389e-09
4.13986e-09
-1.71141e-09
7.32516e-09
-6.55379e-09
6.60192e-09
-9.40229e-09
2.47031e-09
-8.71815e-09
-2.56616e-09
-5.10398e-09
-5.51404e-09
-6.87661e-10
-5.10761e-09
2.39198e-09
2.48537e-09
5.61315e-09
-3.6223e-09
3.59452e-09
-5.3546e-09
-1.51028e-09
-3.23707e-09
-6.76533e-09
8.60607e-10
-8.3066e-09
4.3034e-09
-4.63108e-09
4.20457e-09
2.51279e-09
-4.49918e-10
8.88077e-09
-7.65753e-09
1.03584e-08
-1.33778e-08
5.72204e-09
-1.40499e-08
-2.37262e-09
-8.99078e-09
-8.9708e-09
-1.01237e-09
-9.97089e-09
5.21819e-09
-4.76381e-09
6.05872e-09
3.41808e-09
1.12683e-09
9.62828e-09
-6.53748e-09
1.03523e-08
-1.24433e-08
5.58029e-09
-1.34115e-08
-1.4499e-09
-9.36236e-09
-6.50327e-09
-3.08507e-09
-6.98834e-09
1.68549e-09
-3.29956e-09
2.54247e-09
1.81833e-09
-3.88401e-10
5.22858e-09
-4.89462e-09
5.29337e-09
-8.26839e-09
2.55966e-09
-8.91883e-09
-9.67074e-10
-7.05157e-09
-3.26419e-09
-4.19047e-09
-3.44783e-09
-2.04756e-09
-2.01535e-09
-1.53465e-09
-2.32077e-10
-2.45545e-09
7.79304e-10
-3.89776e-09
6.38193e-10
-4.92808e-09
-2.79834e-10
-5.11243e-09
-1.27146e-09
-4.60887e-09
-1.8058e-09
-3.89622e-09
-1.78057e-09
-3.40058e-09
-1.44811e-09
-3.2688e-09
-1.14763e-09
-3.38135e-09
-1.06103e-09
-3.52519e-09
-1.14046e-09
-3.56936e-09
-1.21199e-09
-3.52642e-09
-1.14678e-09
-3.4871e-09
-9.66624e-10
-3.5064e-09
-8.14353e-10
-3.5413e-09
-8.20406e-10
-3.48942e-09
-9.71128e-10
-3.29505e-09
-1.08662e-09
-3.03231e-09
-9.42713e-10
-2.88422e-09
-4.63528e-10
-3.0112e-09
1.59171e-10
-3.39466e-09
5.39452e-10
-3.7848e-09
3.57539e-10
-3.83e-09
-3.51626e-10
-3.33769e-09
-1.11009e-09
-2.49157e-09
-1.24133e-09
-1.8334e-09
-3.50996e-10
-1.94864e-09
1.27184e-09
-3.01671e-09
2.67438e-09
-4.54102e-09
2.78349e-09
-5.52356e-09
1.19005e-09
-5.07327e-09
-1.37003e-09
-3.09925e-09
-3.27957e-09
-5.86161e-10
-3.02136e-09
8.54367e-10
-2.94953e-10
-1.39042e-11
3.53157e-09
-3.11076e-09
6.09189e-09
-6.85221e-09
5.51165e-09
-8.9773e-09
1.77116e-09
-7.96475e-09
-3.05712e-09
-4.12603e-09
-5.99476e-09
4.15681e-10
-5.08165e-09
2.95984e-09
-7.49789e-10
1.92531e-09
4.34242e-09
-2.10471e-09
6.99617e-09
-6.72411e-09
5.5723e-09
-9.21912e-09
1.04386e-09
-8.2248e-09
-3.36141e-09
-4.354e-09
-4.77776e-09
2.89567e-10
2.46071e-09
6.04886e-09
-1.63334e-09
6.44493e-09
-5.74514e-09
3.07055e-09
-7.26463e-09
-2.934e-09
-4.92973e-09
-8.15402e-09
4.8031e-11
-9.11985e-09
4.24199e-09
-4.566e-09
4.30358e-09
3.26283e-09
-6.72845e-10
9.73681e-09
-8.28874e-09
1.07663e-08
-1.4185e-08
5.53979e-09
-1.47651e-08
-2.8165e-09
-9.54805e-09
-9.18917e-09
-1.56052e-09
-9.74004e-09
4.50955e-09
-4.31029e-09
5.21046e-09
3.61066e-09
3.8287e-10
9.22926e-09
-6.89705e-09
9.47577e-09
-1.23574e-08
4.72608e-09
-1.31469e-08
-1.76069e-09
-9.36916e-09
-6.11571e-09
-3.69378e-09
-6.23332e-09
5.07188e-10
-2.76291e-09
1.19091e-09
1.6986e-09
-1.39787e-09
4.44674e-09
-5.25044e-09
4.25465e-09
-8.04539e-09
1.79299e-09
-8.50974e-09
-1.14688e-09
-6.90926e-09
-2.92016e-09
-4.56011e-09
-2.92949e-09
-2.85417e-09
-1.70705e-09
-2.47332e-09
-3.22561e-10
-3.19982e-09
3.69533e-10
-4.28442e-09
1.58349e-10
-5.0142e-09
-5.86855e-10
-5.0982e-09
-1.30306e-09
-4.69815e-09
-1.62372e-09
-4.18658e-09
-1.53769e-09
-3.85741e-09
-1.28255e-09
-3.77766e-09
-1.11057e-09
-3.83078e-09
-1.10878e-09
-3.86781e-09
-1.17987e-09
-3.8335e-09
-1.16423e-09
-3.78292e-09
-9.93556e-10
-3.79772e-09
-7.57528e-10
-3.88494e-09
-6.34291e-10
-3.94789e-09
-7.34672e-10
-3.85979e-09
-9.78738e-10
-3.58754e-09
-1.1123e-09
-3.26356e-09
-8.8029e-10
-3.12756e-09
-2.51742e-10
-3.35201e-09
4.75944e-10
-3.86568e-09
8.1527e-10
-4.32513e-09
4.28135e-10
-4.30489e-09
-5.49046e-10
-3.62016e-09
-1.46332e-09
-2.56004e-09
-1.50405e-09
-1.81567e-09
-2.9413e-10
-2.06644e-09
1.68881e-09
-3.44983e-09
3.23786e-09
-5.29437e-09
3.1354e-09
-6.39422e-09
1.06049e-09
-5.75736e-09
-1.96195e-09
-3.38136e-09
-4.01055e-09
-4.86455e-10
-3.46725e-09
1.08283e-09
-2.21932e-10
1.66318e-11
3.99945e-09
-3.47017e-09
6.56483e-09
-7.55037e-09
5.63028e-09
-9.78846e-09
1.48565e-09
-8.67715e-09
-3.45055e-09
-4.69757e-09
-6.10764e-09
-1.37755e-10
-4.79258e-09
2.2984e-09
-3.79342e-10
1.20697e-09
4.21847e-09
-2.61045e-09
6.01485e-09
-6.66976e-09
4.02475e-09
-8.38538e-09
2.1751e-10
-6.61557e-09
-2.3254e-09
-2.39898e-09
1.05947e-09
3.15866e-09
1.42231e-09
5.85189e-09
-3.38723e-09
6.14387e-09
-8.52138e-09
2.63333e-09
-9.92383e-09
-3.59398e-09
-6.59844e-09
-8.86745e-09
-6.13636e-10
-9.44188e-09
4.12595e-09
-4.29755e-09
4.22374e-09
3.85909e-09
-9.61532e-10
1.01558e-08
-8.71837e-09
1.06876e-08
-1.45617e-08
5.09464e-09
-1.50212e-08
-3.16456e-09
-9.84562e-09
-9.04887e-09
-2.15761e-09
-9.14523e-09
3.51612e-09
-3.72718e-09
4.0396e-09
3.6335e-09
-5.28574e-10
8.49596e-09
-7.19354e-09
8.32194e-09
-1.20436e-08
3.80215e-09
-1.26291e-08
-1.9414e-09
-9.21216e-09
-5.53065e-09
-4.25706e-09
-5.35757e-09
-6.96641e-10
-2.23838e-09
-1.89096e-10
1.48496e-09
-2.40212e-09
3.5873e-09
-5.57465e-09
3.21842e-09
-7.79011e-09
1.09878e-09
-8.07888e-09
-1.2457e-09
-6.74109e-09
-2.54305e-09
-4.87587e-09
-2.43531e-09
-3.57128e-09
-1.44253e-09
-3.30725e-09
-4.26605e-10
-3.86055e-09
7.88747e-13
-4.63604e-09
-2.40501e-10
-5.11388e-09
-8.11151e-10
-5.12014e-09
-1.28387e-09
-4.81078e-09
-1.43246e-09
-4.46396e-09
-1.31242e-09
-4.26398e-09
-1.13607e-09
-4.21678e-09
-1.0741e-09
-4.21469e-09
-1.13236e-09
-4.16617e-09
-1.17702e-09
-4.079e-09
-1.0701e-09
-4.0391e-09
-8.05149e-10
-4.11245e-09
-5.3595e-10
-4.2575e-09
-4.67267e-10
-4.32859e-09
-6.78264e-10
-4.18355e-09
-1.01231e-09
-3.8225e-09
-1.1397e-09
-3.44346e-09
-7.87061e-10
-3.3415e-09
9.94026e-12
-3.68953e-09
8.31144e-10
-4.34728e-09
1.08971e-09
-4.86704e-09
4.53759e-10
-4.75348e-09
-8.06634e-10
-3.84761e-09
-1.84831e-09
-2.56392e-09
-1.74406e-09
-1.74934e-09
-1.7572e-10
-2.16329e-09
2.15628e-09
-3.87719e-09
3.7956e-09
-6.03129e-09
3.42777e-09
-7.22462e-09
8.76899e-10
-6.39677e-09
-2.52709e-09
-3.65908e-09
-4.60928e-09
-4.56467e-10
-3.7408e-09
1.18478e-09
-6.20744e-11
-5.90698e-11
4.3736e-09
-3.8193e-09
6.78761e-09
-8.07621e-09
5.49672e-09
-1.03199e-08
1.13659e-09
-9.14235e-09
-3.63731e-09
-5.19869e-09
-5.85971e-09
-8.47562e-10
-4.24803e-09
1.34916e-09
-6.9202e-11
2.80218e-10
3.78695e-09
-3.01243e-09
4.93861e-09
-6.06773e-09
3.30861e-09
-6.65888e-09
8.20502e-10
-4.34477e-09
-8.60322e-10
-1.70521e-09
3.77394e-09
1.85703e-09
4.20616e-10
5.78295e-09
-6.1753e-09
6.76663e-09
-1.11478e-08
2.90274e-09
-1.1787e-08
-3.85473e-09
-7.68122e-09
-9.22048e-09
-1.1539e-09
-9.43539e-09
3.78407e-09
-3.90051e-09
3.85149e-09
4.26114e-09
-1.35146e-09
1.01297e-08
-8.95062e-09
1.01582e-08
-1.45289e-08
4.44486e-09
-1.48704e-08
-3.38779e-09
-9.94125e-09
-8.58666e-09
-2.82406e-09
-8.27288e-09
2.27946e-09
-3.0882e-09
2.63339e-09
3.48724e-09
-1.52413e-09
7.51491e-09
-7.39713e-09
7.01305e-09
-1.15414e-08
2.88965e-09
-1.19394e-08
-2.0008e-09
-8.96248e-09
-4.83494e-09
-4.79428e-09
-4.46495e-09
-1.88666e-09
-1.78095e-09
-1.52675e-09
1.19917e-09
-3.33894e-09
2.72591e-09
-5.84124e-09
2.26298e-09
-7.51549e-09
5.14918e-10
-7.661e-09
-1.27631e-09
-6.58173e-09
-2.1752e-09
-5.1585e-09
-2.00509e-09
-4.20379e-09
-1.23818e-09
-4.03077e-09
-5.36527e-10
-4.42768e-09
-3.08705e-10
-4.94195e-09
-5.44402e-10
-5.21769e-09
-9.49753e-10
-5.17102e-09
-1.21973e-09
-4.94392e-09
-1.24069e-09
-4.73102e-09
-1.11189e-09
-4.62735e-09
-1.0134e-09
-4.59438e-09
-1.04177e-09
-4.53895e-09
-1.13535e-09
-4.42188e-09
-1.136e-09
-4.30347e-09
-9.347e-10
-4.2901e-09
-5.88612e-10
-4.42538e-09
-3.11189e-10
-4.61784e-09
-3.23213e-10
-4.67765e-09
-6.58326e-10
-4.45708e-09
-1.07347e-09
-4.00026e-09
-1.16615e-09
-3.57649e-09
-6.61914e-10
-3.53175e-09
3.14171e-10
-4.02566e-09
1.20741e-09
-4.834e-09
1.34297e-09
-5.39984e-09
4.25496e-10
-5.16831e-09
-1.11335e-09
-4.02556e-09
-2.23908e-09
-2.52461e-09
-1.94034e-09
-1.66226e-09
-2.394e-12
-2.25498e-09
2.6323e-09
-4.28652e-09
4.28819e-09
-6.71111e-09
3.61922e-09
-7.96532e-09
6.4521e-10
-6.96319e-09
-3.0127e-09
-3.94615e-09
-5.01045e-09
-5.486e-10
-3.80967e-09
1.09616e-09
1.61577e-10
-2.83715e-10
4.59535e-09
-4.16296e-09
6.71261e-09
-8.40629e-09
5.10578e-09
-1.05442e-08
7.42095e-10
-9.3429e-09
-3.63462e-09
-5.60592e-09
-5.33587e-09
-1.63938e-09
-3.52832e-09
2.86167e-10
3.04298e-10
-5.75947e-10
3.59271e-09
-3.0409e-09
4.49373e-09
-4.95992e-09
3.08347e-09
-4.79688e-09
-2.30602e-09
-5.91321e-09
3.94321e-09
-3.41406e-09
3.34181e-09
2.09836e-09
-1.68401e-09
7.07971e-09
-7.94162e-09
7.62912e-09
-1.25043e-08
3.02305e-09
-1.28008e-08
-4.10955e-09
-8.40585e-09
-9.29535e-09
-1.75491e-09
-9.08671e-09
3.13681e-09
-3.37801e-09
3.1662e-09
4.44825e-09
-1.85347e-09
9.66596e-09
-9.01963e-09
9.2306e-09
-1.41525e-08
3.65244e-09
-1.43879e-08
-3.46909e-09
-9.87688e-09
-7.85279e-09
-3.53493e-09
-7.20822e-09
8.87792e-10
-2.45016e-09
1.0984e-09
3.18868e-09
-2.53864e-09
6.36868e-09
-7.51987e-09
5.64276e-09
-1.09286e-08
2.03299e-09
-1.11705e-08
-1.96681e-09
-8.67226e-09
-4.10166e-09
-5.29071e-09
-3.62011e-09
-2.99692e-09
-1.4061e-09
-2.74714e-09
8.77481e-10
-4.16423e-09
1.91959e-09
-6.05179e-09
1.42818e-09
-7.25597e-09
4.54829e-11
-7.29717e-09
-1.26182e-09
-6.45752e-09
-1.84302e-09
-5.41337e-09
-1.649e-09
-4.7429e-09
-1.08463e-09
-4.63191e-09
-6.34298e-10
-4.89304e-09
-5.46233e-10
-5.19873e-09
-7.52766e-10
-5.32424e-09
-1.01135e-09
-5.2496e-09
-1.12088e-09
-5.09626e-09
-1.05413e-09
-4.98748e-09
-9.36333e-10
-4.94878e-09
-9.11999e-10
-4.9127e-09
-1.01152e-09
-4.80546e-09
-1.11783e-09
-4.63544e-09
-1.0595e-09
-4.50545e-09
-7.63733e-10
-4.53219e-09
-3.52998e-10
-4.73042e-09
-9.46562e-11
-4.95839e-09
-2.12525e-10
-4.98841e-09
-6.7989e-10
-4.67785e-09
-1.16028e-09
-4.12435e-09
-1.18687e-09
-3.67022e-09
-5.05897e-10
-3.7036e-09
6.47099e-10
-4.35634e-09
1.58002e-09
-5.31055e-09
1.55208e-09
-5.90412e-09
3.38238e-10
-5.53977e-09
-1.44969e-09
-4.16622e-09
-2.60304e-09
-2.47601e-09
-2.07303e-09
-1.5941e-09
2.09841e-10
-2.36248e-09
3.06367e-09
-4.66268e-09
4.65134e-09
-7.28568e-09
3.67266e-09
-8.55956e-09
3.78507e-10
-7.42268e-09
-3.36704e-09
-4.24958e-09
-5.1634e-09
-8.041e-10
-3.66241e-09
7.66874e-10
4.15867e-10
-6.91994e-10
4.6189e-09
-4.51467e-09
6.32129e-09
-8.54549e-09
4.47405e-09
-1.04692e-08
3.21558e-10
-9.27646e-09
-3.44906e-09
-5.86358e-09
-4.53442e-09
-2.35858e-09
-2.52102e-09
-6.50286e-10
1.01392e-09
-1.17925e-09
3.54954e-09
-2.85016e-09
3.57973e-09
-3.92838e-09
-2.71516e-09
-7.14671e-09
1.73671e-09
-7.00191e-09
3.50766e-09
-2.77108e-09
2.10651e-09
3.50929e-09
-2.46358e-09
7.98394e-09
-8.60329e-09
7.80007e-09
-1.31232e-08
2.73562e-09
-1.33134e-08
-4.30706e-09
-8.89948e-09
-9.00641e-09
-2.4307e-09
-8.38613e-09
2.20341e-09
-2.77525e-09
2.18821e-09
4.39453e-09
-2.4649e-09
8.80599e-09
-8.95805e-09
7.9969e-09
-1.3501e-08
2.79625e-09
-1.36494e-08
-3.40099e-09
-9.69106e-09
-6.91782e-09
-4.26287e-09
-6.05001e-09
-5.76619e-10
-1.87126e-09
-4.74547e-10
2.75791e-09
-3.52431e-09
5.13801e-09
-7.57974e-09
4.29678e-09
-1.02699e-08
1.27115e-09
-1.03888e-08
-1.86058e-09
-8.36989e-09
-3.38448e-09
-5.72692e-09
-2.86636e-09
-3.98078e-09
-1.12037e-09
-3.80905e-09
5.46025e-10
-4.86396e-09
1.20259e-09
-6.21956e-09
7.33396e-10
-7.03614e-09
-3.10862e-10
-7.00587e-09
-1.21326e-09
-6.37358e-09
-1.55202e-09
-5.63658e-09
-1.36024e-09
-5.18474e-09
-9.67733e-10
-5.11242e-09
-7.08947e-10
-5.26284e-09
-7.11008e-10
-5.41167e-09
-8.74055e-10
-5.43355e-09
-1.00706e-09
-5.35029e-09
-9.94622e-10
-5.25991e-09
-8.74105e-10
-5.22728e-09
-7.8311e-10
-5.22643e-09
-8.28681e-10
-5.17368e-09
-9.81793e-10
-5.01785e-09
-1.08072e-09
-4.80954e-09
-9.51618e-10
-4.68457e-09
-5.65721e-10
-4.76088e-09
-1.11544e-10
-5.01961e-09
9.84794e-11
-5.27055e-09
-1.46445e-10
-5.25604e-09
-7.44929e-10
-4.84842e-09
-1.26582e-09
-4.20419e-09
-1.19442e-09
-3.73478e-09
-3.23158e-10
-3.85849e-09
9.86362e-10
-4.66792e-09
1.91496e-09
-5.75118e-09
1.68994e-09
-6.35587e-09
1.90499e-10
-5.86352e-09
-1.78794e-09
-4.29485e-09
-2.90146e-09
-2.4655e-09
-2.12274e-09
-1.5905e-09
4.39801e-10
-2.50271e-09
3.39437e-09
-4.98134e-09
4.82586e-09
-7.70112e-09
3.56144e-09
-8.95341e-09
9.48833e-11
-7.74945e-09
-3.54941e-09
-4.57999e-09
-5.04404e-09
-1.25471e-09
-3.31449e-09
1.68361e-10
6.60171e-10
-1.29696e-09
4.41895e-09
-4.88063e-09
5.634e-09
-8.50964e-09
3.66205e-09
-1.01188e-08
-5.30699e-11
-8.94163e-09
-3.01693e-09
-5.90126e-09
-3.41278e-09
-2.87054e-09
-1.29329e-09
-1.36445e-09
1.37863e-09
-1.63139e-09
2.46458e-09
-2.58452e-09
-2.18739e-09
-4.83178e-09
-1.57319e-09
-6.96369e-09
7.9279e-10
-6.00657e-09
2.84844e-09
-1.67629e-09
1.75334e-09
4.10031e-09
-2.88254e-09
7.97476e-09
-8.98777e-09
7.32143e-09
-1.33024e-08
2.23598e-09
-1.3365e-08
-4.31562e-09
-9.14335e-09
-8.34409e-09
-3.1559e-09
-7.40396e-09
1.02734e-09
-2.16047e-09
9.76412e-10
4.10114e-09
-3.14742e-09
7.63213e-09
-8.78585e-09
6.57124e-09
-1.26544e-08
1.94809e-09
-1.27526e-08
-3.19954e-09
-9.44069e-09
-5.8704e-09
-4.99004e-09
-4.8962e-09
-2.03452e-09
-1.39368e-09
-1.99425e-09
2.23127e-09
-4.42899e-09
3.90755e-09
-7.5842e-09
3.05186e-09
-9.61442e-09
6.31815e-10
-9.64757e-09
-1.70563e-09
-8.08246e-09
-2.72769e-09
-6.09778e-09
-2.23316e-09
-4.81651e-09
-9.223e-10
-4.69472e-09
2.28203e-10
-5.43466e-09
5.99322e-10
-6.35171e-09
1.89271e-10
-6.86355e-09
-5.56924e-10
-6.78856e-09
-1.13624e-09
-6.32708e-09
-1.3008e-09
-5.82773e-09
-1.12921e-09
-5.53619e-09
-8.76397e-10
-5.48501e-09
-7.55803e-10
-5.54919e-09
-8.07691e-10
-5.58582e-09
-9.19043e-10
-5.5415e-09
-9.47993e-10
-5.4627e-09
-8.48381e-10
-5.42399e-09
-7.03789e-10
-5.4438e-09
-6.52719e-10
-5.45933e-09
-7.6295e-10
-5.38051e-09
-9.52394e-10
-5.18036e-09
-1.02594e-09
-4.94652e-09
-8.19401e-10
-4.83933e-09
-3.5512e-10
-4.9706e-09
1.15381e-10
-5.2852e-09
2.48848e-10
-5.54812e-09
-1.33986e-10
-5.47996e-09
-8.47203e-10
-4.97552e-09
-1.37421e-09
-4.2508e-09
-1.17863e-09
-3.77779e-09
-1.25143e-10
-3.9925e-09
1.29533e-09
-4.94249e-09
2.1655e-09
-6.13138e-09
1.72644e-09
-6.73901e-09
-1.07567e-11
-6.14572e-09
-2.08672e-09
-4.44213e-09
-3.08609e-09
-2.53488e-09
-2.06959e-09
-1.68184e-09
6.61604e-10
-2.67741e-09
3.56739e-09
-5.21606e-09
4.76048e-09
-7.9213e-09
3.27063e-09
-9.1244e-09
-1.84701e-10
-7.94485e-09
-3.53425e-09
-4.95174e-09
-4.65683e-09
-1.90548e-09
-2.80551e-09
-6.82029e-10
8.53257e-10
-2.06918e-09
4.00001e-09
-5.24596e-09
4.72413e-09
-8.31591e-09
2.79004e-09
-9.52824e-09
-2.78829e-10
-8.35477e-09
-2.35676e-09
-5.69789e-09
-2.2663e-09
-3.14211e-09
-6.90402e-10
-1.82735e-09
6.53419e-10
-1.66428e-09
-1.28378e-09
-4.65909e-10
-4.0333e-09
-3.56328e-09
-3.06439e-09
-5.91348e-09
2.81535e-10
-5.3971e-09
2.20193e-09
-1.37281e-09
8.95808e-10
4.01379e-09
-3.56019e-09
7.38769e-09
-9.16874e-09
6.47031e-09
-1.30009e-08
1.67271e-09
-1.29617e-08
-4.11098e-09
-9.15979e-09
-7.3736e-09
-3.90303e-09
-6.23905e-09
-3.01294e-10
-1.59718e-09
-3.66759e-10
3.58779e-09
-3.85581e-09
6.24049e-09
-8.54995e-09
5.06691e-09
-1.17266e-08
1.16815e-09
-1.18106e-08
-2.88916e-09
-9.17352e-09
-4.79246e-09
-5.67748e-09
-3.82358e-09
-3.39144e-09
-1.03734e-09
-3.36904e-09
1.65298e-09
-5.21028e-09
2.75016e-09
-7.54949e-09
1.96221e-09
-9.01209e-09
1.25298e-10
-8.99397e-09
-1.52639e-09
-7.83201e-09
-2.16103e-09
-6.40075e-09
-1.7308e-09
-5.49217e-09
-7.98764e-10
-5.39714e-09
-5.37685e-11
-5.87782e-09
1.23657e-10
-6.45226e-09
-2.05531e-10
-6.73783e-09
-7.02996e-10
-6.63965e-09
-1.03841e-09
-6.31277e-09
-1.08748e-09
-5.98843e-09
-9.46619e-10
-5.80738e-09
-8.01831e-10
-5.76377e-09
-7.73627e-10
-5.76274e-09
-8.44367e-10
-5.72326e-09
-9.0187e-10
-5.64145e-09
-8.4931e-10
-5.57608e-09
-6.94548e-10