/*--------------------------------*- C++ -*----------------------------------*\
| =========                 |                                                 |
| \\      /  F ield         | OpenFOAM: The Open Source CFD Toolbox           |
|  \\    /   O peration     | Version:  2412                                  |
|   \\  /    A nd           | Website:  www.openfoam.com                      |
|    \\/     M anipulation  |                                                 |
\*---------------------------------------------------------------------------*/
FoamFile
{
    version     2.0;
    format      ascii;
    arch        "LSB;label=32;scalar=64";
    class       volScalarField;
    location    "9.2";
    object      p_rgh;
}
// * * * * * * * * * * * * * * * * * * * * * * * * * * * * * * * * * * * * * //

dimensions      [1 -1 -2 0 0 0 0];

internalField   nonuniform List<scalar> 
6400
(
9873.6
9872.94
9871.67
9869.82
9867.44
9864.6
9861.41
9857.95
9854.33
9850.65
9847.03
9843.57
9840.35
9837.45
9834.94
9832.87
9831.27
9830.17
9829.56
9829.43
9829.75
9830.49
9831.6
9833.04
9834.74
9836.65
9838.73
9840.9
9843.12
9845.35
9847.54
9849.66
9851.67
9853.54
9855.26
9856.79
9858.12
9859.23
9860.11
9860.74
9861.12
9861.23
9861.06
9860.62
9859.89
9858.88
9857.6
9856.06
9854.27
9852.28
9850.1
9847.78
9845.37
9842.93
9840.52
9838.19
9836.04
9834.12
9832.5
9831.26
9830.44
9830.11
9830.3
9831.03
9832.31
9834.14
9836.48
9839.29
9842.51
9846.04
9849.81
9853.69
9857.57
9861.32
9864.82
9867.95
9870.6
9872.67
9874.11
9874.84
9874.23
9873.55
9872.24
9870.33
9867.87
9864.95
9861.66
9858.09
9854.37
9850.59
9846.87
9843.32
9840.02
9837.05
9834.49
9832.4
9830.78
9829.68
9829.08
9828.97
9829.33
9830.11
9831.27
9832.76
9834.52
9836.49
9838.62
9840.84
9843.11
9845.38
9847.61
9849.76
9851.8
9853.7
9855.44
9856.99
9858.33
9859.45
9860.35
9861
9861.38
9861.5
9861.34
9860.9
9860.17
9859.15
9857.86
9856.3
9854.49
9852.46
9850.24
9847.87
9845.4
9842.9
9840.42
9838.02
9835.8
9833.81
9832.12
9830.82
9829.96
9829.59
9829.75
9830.47
9831.76
9833.62
9836
9838.88
9842.18
9845.81
9849.68
9853.68
9857.69
9861.56
9865.18
9868.42
9871.16
9873.31
9874.79
9875.56
9875.49
9874.78
9873.38
9871.36
9868.76
9865.66
9862.17
9858.4
9854.46
9850.47
9846.55
9842.82
9839.36
9836.27
9833.61
9831.44
9829.79
9828.67
9828.1
9828.04
9828.47
9829.35
9830.61
9832.21
9834.08
9836.17
9838.4
9840.73
9843.09
9845.45
9847.76
9849.97
9852.07
9854.02
9855.8
9857.39
9858.77
9859.91
9860.84
9861.51
9861.92
9862.05
9861.9
9861.46
9860.73
9859.7
9858.38
9856.78
9854.92
9852.82
9850.52
9848.05
9845.47
9842.84
9840.22
9837.69
9835.31
9833.18
9831.36
9829.94
9828.97
9828.53
9828.64
9829.35
9830.66
9832.57
9835.06
9838.06
9841.52
9845.35
9849.44
9853.68
9857.93
9862.05
9865.91
9869.36
9872.29
9874.59
9876.18
9877
9877.43
9876.65
9875.14
9872.94
9870.11
9866.75
9862.95
9858.86
9854.59
9850.28
9846.06
9842.04
9838.33
9835.04
9832.22
9829.95
9828.25
9827.14
9826.6
9826.63
9827.17
9828.19
9829.61
9831.38
9833.43
9835.69
9838.09
9840.57
9843.08
9845.57
9847.98
9850.3
9852.48
9854.51
9856.35
9857.99
9859.42
9860.61
9861.57
9862.28
9862.72
9862.88
9862.75
9862.32
9861.58
9860.54
9859.19
9857.53
9855.59
9853.39
9850.96
9848.34
9845.59
9842.76
9839.93
9837.18
9834.58
9832.23
9830.2
9828.59
9827.47
9826.9
9826.93
9827.61
9828.95
9830.94
9833.57
9836.77
9840.49
9844.62
9849.05
9853.65
9858.29
9862.8
9867.03
9870.82
9874.04
9876.57
9878.32
9879.22
9880.1
9879.25
9877.57
9875.12
9871.98
9868.24
9864.03
9859.49
9854.76
9850
9845.35
9840.94
9836.89
9833.32
9830.31
9827.89
9826.13
9825.01
9824.54
9824.69
9825.4
9826.61
9828.26
9830.27
9832.56
9835.05
9837.68
9840.38
9843.08
9845.74
9848.31
9850.75
9853.05
9855.17
9857.09
9858.8
9860.29
9861.55
9862.56
9863.32
9863.8
9864
9863.9
9863.49
9862.75
9861.69
9860.29
9858.57
9856.53
9854.19
9851.59
9848.77
9845.77
9842.68
9839.56
9836.51
9833.6
9830.94
9828.63
9826.75
9825.4
9824.66
9824.58
9825.21
9826.57
9828.68
9831.49
9834.97
9839.04
9843.58
9848.48
9853.59
9858.77
9863.82
9868.57
9872.84
9876.47
9879.32
9881.29
9882.3
9883.6
9882.63
9880.73
9877.96
9874.41
9870.18
9865.42
9860.28
9854.95
9849.6
9844.38
9839.47
9834.99
9831.05
9827.77
9825.19
9823.34
9822.24
9821.86
9822.17
9823.1
9824.58
9826.53
9828.85
9831.46
9834.27
9837.2
9840.17
9843.12
9845.99
9848.75
9851.35
9853.78
9856.01
9858.04
9859.84
9861.4
9862.73
9863.81
9864.63
9865.18
9865.43
9865.37
9864.98
9864.25
9863.17
9861.73
9859.92
9857.76
9855.25
9852.44
9849.36
9846.06
9842.62
9839.13
9835.67
9832.36
9829.29
9826.6
9824.37
9822.72
9821.75
9821.51
9822.07
9823.46
9825.7
9828.77
9832.59
9837.1
9842.19
9847.7
9853.49
9859.36
9865.13
9870.57
9875.47
9879.64
9882.92
9885.18
9886.35
9888.02
9886.91
9884.74
9881.57
9877.48
9872.63
9867.16
9861.27
9855.16
9849.05
9843.12
9837.55
9832.52
9828.15
9824.52
9821.74
9819.8
9818.73
9818.49
9819.02
9820.25
9822.08
9824.42
9827.14
9830.16
9833.36
9836.66
9839.97
9843.22
9846.36
9849.34
9852.13
9854.71
9857.08
9859.21
9861.12
9862.73
9864.16
9865.32
9866.22
9866.84
9867.16
9867.16
9866.81
9866.1
9865.01
9863.52
9861.63
9859.33
9856.63
9853.56
9850.16
9846.48
9842.62
9838.65
9834.69
9830.85
9827.27
9824.08
9821.41
9819.37
9818.08
9817.63
9818.09
9819.51
9821.91
9825.27
9829.52
9834.59
9840.35
9846.64
9853.28
9860.06
9866.75
9873.09
9878.81
9883.68
9887.51
9890.15
9891.52
9893.49
9892.21
9889.7
9886.03
9881.3
9875.65
9869.29
9862.45
9855.36
9848.3
9841.48
9835.12
9829.39
9824.47
9820.45
9817.42
9815.4
9814.39
9814.34
9815.17
9816.79
9819.07
9821.9
9825.14
9828.66
9832.35
9836.1
9839.82
9843.43
9846.87
9850.1
9853.1
9855.85
9858.35
9860.59
9862.59
9864.33
9865.84
9867.1
9868.1
9868.81
9869.22
9869.3
9869.01
9868.34
9867.25
9865.73
9863.74
9861.29
9858.37
9855
9851.22
9847.09
9842.7
9838.15
9833.56
9829.08
9824.86
9821.04
9817.79
9815.25
9813.56
9812.82
9813.14
9814.57
9817.15
9820.85
9825.62
9831.38
9837.97
9845.22
9852.92
9860.85
9868.72
9876.21
9882.98
9888.73
9893.24
9896.36
9897.97
9900.19
9898.7
9895.78
9891.5
9885.97
9879.35
9871.88
9863.84
9855.54
9847.3
9839.37
9832.03
9825.47
9819.87
9815.38
9812.08
9809.99
9809.08
9809.3
9810.53
9812.65
9815.51
9818.96
9822.83
9826.99
9831.27
9835.56
9839.76
9843.79
9847.57
9851.09
9854.31
9857.23
9859.87
9862.23
9864.33
9866.17
9867.78
9869.14
9870.25
9871.08
9871.61
9871.79
9871.6
9870.99
9869.93
9868.39
9866.32
9863.71
9860.55
9856.84
9852.63
9847.96
9842.94
9837.68
9832.32
9827.04
9822.01
9817.42
9813.44
9810.26
9808.05
9806.94
9807.06
9808.48
9811.24
9815.34
9820.74
9827.32
9834.91
9843.33
9852.35
9861.7
9871.06
9880.01
9888.1
9894.96
9900.32
9904.02
9905.93
9908.28
9906.57
9903.16
9898.15
9891.65
9883.84
9875
9865.46
9855.65
9845.95
9836.69
9828.13
9820.56
9814.17
9809.13
9805.53
9803.37
9802.63
9803.2
9804.96
9807.73
9811.33
9815.56
9820.23
9825.15
9830.16
9835.1
9839.87
9844.36
9848.54
9852.36
9855.8
9858.9
9861.66
9864.12
9866.31
9868.25
9869.96
9871.44
9872.69
9873.66
9874.33
9874.66
9874.6
9874.1
9873.1
9871.56
9869.45
9866.69
9863.26
9859.18
9854.47
9849.16
9843.39
9837.28
9830.99
9824.74
9818.71
9813.15
9808.28
9804.3
9801.43
9799.83
9799.66
9801.02
9803.97
9808.53
9814.65
9822.21
9831.02
9840.84
9851.42
9862.53
9873.79
9884.6
9894.38
9902.6
9908.99
9913.4
9915.64
9918
9916.03
9912.08
9906.18
9898.52
9889.26
9878.72
9867.35
9855.67
9844.18
9833.28
9823.26
9814.45
9807.1
9801.41
9797.49
9795.32
9794.83
9795.9
9798.35
9801.96
9806.49
9811.7
9817.35
9823.21
9829.08
9834.79
9840.22
9845.26
9849.84
9853.97
9857.64
9860.89
9863.76
9866.3
9868.56
9870.58
9872.38
9873.98
9875.38
9876.53
9877.39
9877.91
9878.02
9877.69
9876.82
9875.3
9873.22
9870.33
9866.65
9862.15
9856.85
9850.81
9844.15
9837.03
9829.62
9822.17
9814.93
9808.17
9802.17
9797.19
9793.48
9791.25
9790.68
9791.92
9795.06
9800.11
9807.09
9815.81
9826.05
9837.53
9849.95
9863.04
9876.63
9890.05
9902.03
9911.9
9919.53
9924.74
9927.35
9929.58
9926.32
9922.64
9915.85
9906.76
9895.75
9883.14
9869.48
9855.5
9841.81
9828.95
9817.15
9806.82
9798.33
9791.91
9787.65
9785.54
9785.45
9787.19
9790.53
9795.2
9800.9
9807.34
9814.2
9821.21
9828.13
9834.75
9840.92
9846.54
9851.57
9856.01
9859.88
9863.24
9866.17
9868.75
9871.04
9873.1
9874.99
9876.72
9878.3
9879.68
9880.77
9881.54
9881.93
9881.85
9881.21
9879.93
9877.77
9874.77
9870.84
9865.91
9859.97
9853.08
9845.35
9836.98
9828.22
9819.34
9810.6
9802.37
9794.98
9788.75
9783.97
9780.9
9779.79
9780.81
9784.11
9789.84
9797.69
9807.78
9819.72
9833.1
9847.54
9863.06
9879.87
9896.17
9911.08
9923.15
9932.21
9938.27
9941.26
9943.33
9939.42
9934.64
9927.41
9916.51
9903.33
9888.24
9871.85
9855.03
9838.66
9823.57
9809.58
9797.36
9787.47
9780.18
9775.6
9773.65
9774.12
9776.77
9781.28
9787.32
9794.52
9802.48
9810.84
9819.25
9827.41
9835.1
9842.12
9848.36
9853.87
9858.6
9862.6
9866
9868.91
9871.45
9873.72
9875.79
9877.75
9879.64
9881.43
9883.07
9884.47
9885.54
9886.26
9886.53
9886.21
9885.16
9883.18
9880.16
9876.02
9870.65
9864.01
9856.14
9847.17
9837.31
9826.85
9816.29
9805.69
9795.65
9786.54
9778.73
9772.6
9768.46
9766.6
9767.25
9770.56
9776.5
9785.86
9797.65
9811.63
9827.33
9844.64
9863.77
9883.94
9903.91
9921.84
9936.62
9947.29
9954.15
9957.68
9955.78
9953.11
9950.46
9941.1
9927.79
9911.62
9893.3
9873.94
9854.55
9835.54
9817.03
9800.23
9785.66
9774.09
9765.87
9760.97
9759.33
9760.56
9764.38
9770.4
9778.18
9787.25
9797.13
9807.33
9817.45
9827.11
9836.07
9843.94
9850.94
9856.9
9861.85
9865.9
9869.22
9872
9874.4
9876.57
9878.62
9880.65
9882.68
9884.73
9886.71
9888.47
9889.93
9891.06
9891.78
9891.92
9891.25
9889.58
9886.71
9882.43
9876.65
9869.26
9860.28
9849.85
9838.21
9825.75
9812.92
9800.13
9787.88
9776.66
9766.91
9759.08
9753.57
9750.76
9750.96
9754.37
9761.1
9771.49
9785.12
9801.52
9820.22
9841.12
9864.43
9889.63
9914.4
9935.81
9953.08
9965.35
9960.04
9977.28
9965.79
9941.66
9963.86
9956.95
9940.37
9920.12
9897.43
9874.27
9851.69
9829.67
9808.24
9788.32
9771
9757.37
9748.2
9743.33
9742.2
9744.46
9749.77
9757.68
9767.65
9779.06
9791.31
9803.79
9815.96
9827.38
9837.72
9846.75
9854.42
9860.74
9865.79
9869.75
9872.85
9875.36
9877.53
9879.52
9881.5
9883.58
9885.79
9888.15
9890.54
9892.78
9894.72
9896.35
9897.63
9898.37
9898.31
9897.15
9894.61
9890.4
9884.24
9876.04
9865.79
9853.6
9839.79
9824.83
9809.3
9793.79
9778.88
9765.11
9753.02
9743.13
9735.96
9731.97
9731.54
9734.97
9742.6
9753.84
9769.35
9788.61
9811
9836.41
9864.75
9895.07
9925.09
9951.55
9972.47
9978.92
9969.08
9981.06
9986.86
9955.41
9946.46
9974.27
9954.52
9929.61
9901.75
9874.04
9848.07
9822.83
9797.53
9773.5
9752.57
9736.48
9726.32
9721.62
9721.52
9725.3
9732.57
9742.88
9755.59
9769.93
9785.13
9800.45
9815.06
9828.6
9840.61
9850.82
9859.12
9865.63
9870.52
9874.09
9876.75
9878.87
9880.7
9882.47
9884.37
9886.49
9888.89
9891.63
9894.53
9897.35
9899.9
9902.12
9904.04
9905.55
9906.34
9905.99
9904.07
9900.13
9893.76
9884.73
9872.95
9858.59
9842.05
9824
9805.23
9786.45
9768.33
9751.52
9736.63
9724.28
9715.05
9709.46
9707.89
9710.69
9718.25
9730.75
9748.42
9770.85
9797.33
9827.49
9861.11
9897.29
9933.78
9966.88
9992.09
9982.67
9994.45
10001.9
10011.1
9984.31
9963.64
9979.79
9972.35
9943.2
9910.42
9877.92
9847.38
9816.77
9785.54
9755.63
9729.64
9710.43
9699.58
9695.28
9696.39
9702.08
9711.9
9725.33
9741.58
9759.68
9778.67
9797.54
9815.3
9831.33
9845.24
9856.67
9865.5
9872.02
9876.49
9879.26
9881.04
9882.45
9883.82
9885.3
9887
9888.96
9891.49
9894.78
9898.35
9901.91
9905.13
9908.07
9910.83
9913.43
9915.51
9916.46
9915.6
9912.26
9905.83
9895.87
9882.25
9865.09
9845.11
9823.24
9800.56
9777.86
9755.89
9735.41
9717.07
9701.54
9689.57
9681.76
9678.45
9680.09
9687.35
9700.94
9721.15
9747.26
9778.36
9814.27
9854.11
9896.8
9940.56
9981.68
10011.8
10009.3
10025.5
10054
10055.9
10041
9993.94
10008.4
9997.67
9963.58
9925.57
9886.9
9848.92
9810.05
9770.17
9732.46
9699.68
9677.42
9668.13
9664.1
9665.83
9673.37
9686.26
9703.73
9724.52
9747.45
9771.26
9794.66
9816.39
9835.61
9851.95
9864.8
9874.04
9880.25
9883.83
9885.31
9885.71
9886.05
9886.76
9887.91
9889.49
9891.66
9894.52
9897.98
9902.05
9906.2
9910.13
9913.91
9917.74
9921.79
9925.69
9928.52
9929.36
9927.21
9921.12
9910.25
9894.71
9874.2
9850.05
9823.65
9796.17
9768.54
9741.59
9716.27
9693.3
9673.38
9657.61
9646.77
9641.12
9641.2
9648.09
9663.36
9687.94
9719.45
9755.36
9799.26
9847.36
9898.09
9949.83
9999.57
10040.6
10054.6
10089.9
10110.3
10101.5
10092.2
10077.4
10059.7
10031.2
9992.26
9948.56
9903.07
9856.61
9805.97
9754.14
9705.68
9666.2
9626.6
9602.93
9598.73
9610.04
9629.44
9651.23
9674.76
9702.15
9731.88
9762.22
9791.38
9817.72
9840.85
9860.88
9875.8
9885.45
9890.88
9892.66
9891.91
9890.32
9889.47
9889.51
9890.25
9891.39
9893.18
9895.9
9899.77
9904.7
9909.88
9914.91
9919.93
9925.35
9931.35
9937.53
9943
9946.5
9946.66
9941.91
9930.47
9913.37
9888.72
9858.77
9826.04
9791.94
9757.37
9723.44
9691.2
9661.51
9632.32
9600.59
9570.33
9547.45
9538.35
9545.82
9578.1
9634.78
9689.61
9735.07
9788.9
9847.38
9907.94
9968.75
10027.3
10080
10122.2
10151.2
10167.2
10148.4
10142.9
10129.9
10107.9
10073.2
10028.6
9893.23
9525.85
9008.99
8287.07
7445.32
6579.45
5745.45
5159.25
4914.08
4945.11
5194.46
5571.42
6072.49
6596.22
7088.31
7573.44
8022.07
8414.96
8750.51
9042.15
9246.78
9305.7
9289.6
9294.52
9307.85
9281.16
9231.16
9205.09
9201.35
9257.29
9353.99
9490.5
9614.88
9708.44
9772.34
9807.69
9817.07
9814.77
9817.91
9836.02
9871.49
9915.48
9956.34
9970.07
9968.83
9960.03
9889.26
9658.78
9298.73
8868.06
8418.12
7937.03
7426.33
6909.8
6402.99
5840.76
5348.22
4995.56
4791.64
4706.16
4727.81
4921.22
5442.07
6219.85
7133.53
8164.58
9019.89
9641.51
9996.9
10065.1
10128.3
10181.6
10218.8
10234.3
7603.49
7737.26
7593.4
7137.04
6352.23
5245.38
3971.51
2943.57
2047.38
1233.67
604.264
231.003
44.2809
4.09736
1.68051
1.55844
1.48418
1.45194
1.66696
112.092
357.498
668.006
1071.95
1531.17
1969.24
2353.62
2697.33
2978.51
3135.65
3166.07
3039.69
2873.71
2762.93
2710.48
2679.8
2624.38
2525.68
2418.85
2371.16
2376.85
2438.87
2531.13
2637.34
2765.8
2918.25
3092.51
3291.6
3509.24
3715.34
3871.39
3915
3732.47
3289.06
2701.55
2138.64
1639.25
1185.16
790.828
477.234
243.307
53.4108
1.96237
1.83397
1.66955
1.62461
1.65157
1.73199
1.90869
1.97307
145.258
491.572
1042.21
1802.79
2874.41
4359.89
6002.45
7423.29
8578.8
9208.6
9222.83
1174.35
917.128
728.879
493.578
256.485
73.7134
9.58224
4.81272
3.38565
2.54329
1.73484
1.44213
1.5306
1.51403
1.53123
1.47719
1.40529
1.33851
1.29437
1.19595
1.1287
1.08813
1.06164
1.03896
0.97736
0.846829
0.692764
0.590238
0.661518
0.685037
0.671898
0.550632
0.281601
0.182719
0.11651
0.1051
0.14316
0.201432
0.215111
0.293736
0.303997
0.361795
0.407177
0.478071
0.567658
0.633171
0.668417
0.786578
0.972215
0.930787
0.866418
1.1508
0.946358
0.975656
1.01394
1.00468
0.983015
1.0235
1.13931
1.29437
1.47737
1.62857
1.65422
1.64713
1.5666
1.55983
1.56131
1.55195
1.41348
1.1192
1.08729
0.954575
1.67106
5.1323
24.3323
211.92
666.679
1415.6
2240.61
2745.91
10.3963
3.61183
2.03609
1.84448
2.06644
1.9281
1.41984
1.07237
0.926201
0.855864
0.874472
0.993247
1.16902
1.31967
1.36996
1.40277
1.39457
1.30385
1.19408
1.12158
1.11742
1.80731
2.07552
1.53894
0.948955
2.00536
2.41854
1.68547
0.873206
0.774337
0.714485
0.750025
0.654458
0.078435
0.0571297
0.0601523
0.0890323
0.148492
0.201421
0.305759
0.36384
0.419032
0.476591
0.52955
0.587354
0.628541
0.65682
0.672512
0.818793
0.677512
0.678689
1.12244
0.930165
1.26669
2.92867
2.95674
2.85378
1.48603
1.14096
1.26192
1.43661
2.26996
3.71945
4.37824
3.58576
1.70077
1.45638
1.36435
1.28748
1.24211
1.23267
0.824945
0.741797
0.766448
1.42345
2.76027
3.10767
6.27871
10.5748
13.4301
4.82137
1.76897
0.95209
0.902651
1.04611
0.84197
0.734895
0.697385
0.694293
0.703297
0.756382
0.869098
1.00433
1.10817
1.17214
1.30874
1.36301
1.32966
1.28674
1.26165
1.72935
2.14941
2.10228
1.63495
1.02456
2.41353
2.32919
2.14133
1.98821
1.03976
0.753197
1.1619
0.715279
0.391931
-0.076487
-0.0130303
0.076328
0.155433
0.218868
0.303641
0.385848
0.442012
0.496008
0.517137
0.604769
0.833018
0.907835
0.903488
0.822368
0.665899
0.723208
1.01188
0.818213
1.38115
2.98467
3.06422
3.09473
3.14327
3.11195
1.20445
3.68631
4.40692
4.52373
4.63655
4.7397
3.7788
1.41311
1.33906
2.08501
1.92176
0.927231
0.728357
0.619079
0.498031
0.506972
1.0561
0.834786
1.28881
1.66612
0.911997
2.08369
1.15128
0.720093
0.79764
1.01237
0.697247
0.628215
0.595178
0.584992
0.593037
0.640789
0.726044
0.828934
0.919733
0.993415
1.07325
1.07392
1.0345
0.9859
0.971058
1.23184
1.77178
1.65354
1.3554
1.6834
2.3653
2.14211
1.97638
1.86645
1.79853
1.72453
0.934497
-0.204726
-0.194882
-0.13305
-0.0475337
0.0517026
0.146725
0.226107
0.288302
0.340769
0.389775
0.437581
0.484883
0.572329
0.620502
0.597677
0.566024
0.567003
0.561745
0.543324
0.506403
0.464161
0.428133
0.398293
1.57622
3.05747
1.48469
0.814966
2.00995
3.3118
2.77647
3.37667
4.56673
4.71386
4.377
1.43944
1.73051
2.19618
1.73896
0.744581
0.652046
0.554666
0.539638
0.989714
1.10458
0.439998
0.302543
0.311006
0.26228
1.14033
0.889236
0.66718
0.676602
1.05703
1.58727
0.553228
0.513705
0.494081
0.507533
0.544062
0.600851
0.696743
0.78741
0.860436
0.956526
1.0049
0.98015
0.953541
0.942507
0.9378
0.923872
0.867297
1.1886
2.36548
2.15004
1.94307
1.10139
0.68625
0.783282
1.41085
1.09962
-0.272817
-0.276003
-0.191486
-0.0907951
0.015654
0.117649
0.205009
0.273911
0.32952
0.37824
0.423812
0.48187
0.562332
0.582912
0.581256
0.561695
0.561087
0.559999
0.546171
0.51375
0.46338
0.422754
0.385828
0.353393
0.341672
0.375224
0.48045
0.79013
0.693836
0.601538
0.678567
2.43749
4.65412
4.67659
1.81222
2.18775
2.07193
1.98889
0.871877
0.560759
0.490431
0.533652
1.10076
1.09902
0.484873
0.301896
0.280841
0.304617
0.775579
0.654662
0.620367
0.638062
1.42291
1.9253
1.78403
1.27914
1.02373
0.449752
0.416298
0.500502
0.602557
0.70752
0.794378
1.01991
1.43699
1.12006
0.939971
0.92621
0.902753
0.831379
0.697912
1.31217
2.12888
1.92222
1.6283
0.29624
0.413297
0.821987
1.12388
1.20774
0.699908
-0.370243
-0.267218
-0.153813
-0.0400177
0.0698195
0.167067
0.245237
0.307106
0.359529
0.406362
0.446178
0.472542
0.494444
0.511033
0.523101
0.529638
0.527798
0.524148
0.497125
0.454757
0.418838
0.37856
0.343179
0.330829
0.350622
0.392669
0.429285
0.459096
0.490395
0.54489
3.50833
4.48769
4.50333
2.13056
1.56861
1.93268
1.87802
1.83994
0.827893
0.422557
0.391248
0.621962
0.703173
0.6155
0.348526
0.306408
0.332141
0.590589
0.555114
0.567263
0.718061
1.96688
1.8942
1.80594
1.705
0.595818
0.243291
0.31674
0.416487
0.577943
0.919056
0.871154
0.975186
1.42098
1.46544
0.925366
0.909154
0.866555
0.761457
0.594757
1.59294
1.95274
1.69691
1.33829
-0.147427
0.386583
0.840515
0.924437
1.05162
1.17995
0.295454
-0.354809
-0.228366
-0.0908199
0.0751187
0.186641
0.24783
0.279811
0.336435
0.383265
0.420001
0.448384
0.470172
0.48689
0.498847
0.504892
0.503262
0.491513
0.470347
0.448231
0.418779
0.379671
0.343148
0.341579
0.383303
0.350958
0.484439
0.415856
1.55854
4.26252
4.25478
4.24999
4.29244
1.41812
0.541748
1.64095
1.56792
1.57466
1.31474
0.469963
0.34193
0.325071
0.483548
0.541122
0.543606
0.375504
0.776071
0.531094
0.510051
0.503996
0.761421
1.9317
1.83866
1.74938
1.16815
0.108169
0.154735
0.242242
0.356136
0.752604
1.4839
1.53128
0.93089
1.23476
1.52129
1.02308
0.887676
0.834613
0.706173
0.510796
1.60573
1.87106
1.52837
1.05559
-0.411879
-0.453878
0.636626
0.708983
0.835692
1.01327
1.18809
-0.049489
-0.303506
-0.156017
0.37654
1.22686
1.00726
0.423922
0.310448
0.359262
0.396025
0.424094
0.446137
0.463802
0.476868
0.483924
0.483259
0.474494
0.458008
0.443255
0.417739
0.378926
0.348316
0.472059
0.540578
0.312688
0.667235
2.5463
3.01769
2.97808
2.58063
2.36827
1.07678
0.605983
0.411513
0.506964
0.425626
0.444047
0.526881
0.416554
0.330742
0.312473
0.292543
0.365838
0.602379
0.511854
0.870518
0.46393
0.457335
0.435611
0.602107
1.89047
1.7961
1.71196
0.0948198
0.0434197
0.106919
0.207784
0.412791
1.28037
1.47695
1.56652
0.908353
1.14353
1.51339
1.27462
0.866949
0.815622
0.677628
0.437654
1.35723
1.83765
1.45182
0.579592
-0.550408
-0.710829
-0.759244
-0.100868
0.650108
0.80123
0.9923
1.02255
-0.202607
-0.163776
0.464737
1.22782
1.37351
1.51921
0.8284
0.433695
0.37209
0.397999
0.420464
0.441201
0.458468
0.469467
0.472178
0.466892
0.45546
0.438
0.416463
0.382074
0.35857
0.474258
0.536197
0.447487
0.26341
0.213027
0.150791
0.0976603
0.115974
0.135086
0.227819
0.364905
0.427715
0.407693
0.366788
0.340398
0.331108
0.332608
0.32865
0.320105
0.313564
0.435622
0.401661
0.490066
0.941552
0.416701
0.409845
0.381001
0.415931
1.55776
1.79075
1.08088
-0.00590723
0.0249343
0.105369
0.222685
1.04502
1.38541
1.48173
1.55753
1.61481
1.22437
1.49196
1.42488
0.850902
0.813909
0.681438
0.428259
0.980812
1.84812
1.44199
0.045778
-0.608093
-0.785587
-0.863696
-0.832638
-0.581129
0.103215
0.769044
0.860844
0.801386
0.568061
0.385468
0.620097
1.36968
1.50031
1.63198
1.65782
0.608142
0.373634
0.391074
0.416605
0.441915
0.460878
0.469082
0.467304
0.460718
0.448303
0.430523
0.408022
0.382558
0.356434
0.33416
0.316603
0.297803
0.272713
0.248285
0.237121
0.251162
0.295489
0.374442
0.45433
0.479864
0.452832
0.410688
0.378036
0.358851
0.348373
0.340565
0.331666
0.340426
0.539605
0.395982
0.44059
0.659191
0.388793
0.375628
0.346683
0.390042
1.66593
1.82428
0.322685
0.00489858
0.0349099
0.120792
0.815499
1.31512
1.40816
1.47778
1.53913
1.57612
1.31504
1.2872
1.41392
0.919718
0.823897
0.708209
0.455423
0.431357
1.90904
1.47481
1.03371
-0.60709
-0.793024
-0.898
-0.478834
0.861151
0.983898
-0.0378746
0.222772
0.66402
0.947264
0.955896
0.274349
0.304506
1.50833
1.62106
1.72405
1.79342
0.92805
0.411572
0.390208
0.428166
0.459737
0.472019
0.472701
0.469829
0.461517
0.448151
0.430693
0.409869
0.387725
0.367578
0.352403
0.343266
0.340274
0.345725
0.364432
0.399852
0.439938
0.484637
0.513603
0.507345
0.472653
0.43102
0.39721
0.374178
0.359236
0.348504
0.338357
0.34247
0.559807
0.41266
0.412804
0.955096
0.375091
0.350234
0.329362
0.371683
1.63697
1.77953
0.236319
0.0501471
0.0891648
0.784788
1.28016
1.35866
1.38358
0.620307
0.589225
0.913391
0.792829
0.643337
0.831639
1.34004
0.859494
0.728787
0.495944
0.131425
1.09937
1.54362
1.1602
0.661794
-0.749169
-0.858704
-0.857137
0.866544
1.00263
1.15746
0.193489
0.323816
0.874893
1.11854
0.360568
0.0988376
0.340254
1.62837
1.72037
1.79546
1.82436
0.892094
0.599343
0.720725
0.683485
0.506587
0.480663
0.47906
0.474235
0.462815
0.447541
0.429083
0.408899
0.389898
0.377747
0.378843
0.394279
0.41949
0.450657
0.482744
0.515454
0.533391
0.531551
0.506774
0.467658
0.427783
0.395442
0.372201
0.356234
0.344845
0.334816
0.323946
0.566071
0.491971
0.5033
2.1476
0.368842
0.332592
0.321622
0.350277
0.751844
0.480516
0.183236
0.106985
0.24615
1.27555
1.34331
1.33978
0.49166
0.463844
0.522146
0.566896
0.597031
0.610855
1.25502
2.47354
1.62338
0.716104
0.517812
0.19183
-0.221044
1.44118
1.26369
1.0588
0.759532
-0.335181
0.156091
0.947874
1.04032
1.21242
1.48189
0.320123
0.25617
1.09865
1.25954
0.0712578
0.179226
0.606319
1.73426
1.79641
1.36489
0.875719
1.82446
2.54824
2.70258
1.83497
0.498547
0.485627
0.483151
0.472681
0.457612
0.439586
0.419577
0.400607
0.392128
0.404581
0.438148
0.476369
0.510779
0.538698
0.553366
0.550176
0.528505
0.492421
0.450288
0.411414
0.380544
0.358121
0.342416
0.331226
0.321624
0.312259
0.551714
0.554477
0.523453
2.1757
0.785467
0.34171
0.313272
0.270843
0.205917
0.159845
0.149277
0.159734
0.441404
1.31694
1.35051
0.366098
0.403199
0.464577
0.521272
0.559302
0.574543
0.577098
1.59561
3.08357
3.10403
2.01874
0.481318
0.22595
-0.120805
-0.436092
0.920969
1.27649
1.14981
1.1113
1.07757
1.07301
1.14349
1.29627
1.54583
1.12191
-0.341208
0.904378
0.236374
0.0515646
0.260458
0.532508
1.75595
1.78684
0.184558
0.161896
0.965685
2.54319
3.04348
3.20096
1.79273
0.488726
0.484423
0.474324
0.458091
0.438608
0.416003
0.392927
0.397554
0.438275
0.578917
0.616894
0.560167
0.567453
0.565329
0.54538
0.510725
0.467424
0.42358
0.385822
0.356714
0.335844
0.321269
0.310919
0.30213
0.294391
0.381601
0.543975
0.501918
2.21018
1.05342
1.01739
0.751709
0.239531
0.196716
0.175005
0.180694
0.201115
0.371692
0.676708
0.366526
0.354891
0.403481
0.815168
1.42555
1.87158
1.61004
2.34129
3.01309
3.00571
2.9924
2.94516
2.48689
0.20768
-0.0383142
-0.321806
-0.604813
-0.496326
1.10576
1.32909
1.2703
1.265
1.33043
1.47557
1.70198
0.96404
-0.380584
-0.213949
-0.0665012
0.0377853
1.15773
1.67094
1.75404
1.44082
0.178117
0.11819
0.120265
0.166671
2.21552
3.2562
3.37678
0.829689
0.476361
0.462675
0.444452
0.421416
0.391863
0.3572
0.35899
1.25215
2.5804
2.60086
1.99801
1.80663
1.23424
0.598643
0.472173
0.427329
0.384857
0.350123
0.324332
0.306376
0.294163
0.285773
0.278906
0.273805
0.265957
0.533875
0.435841
1.85176
1.03071
1.11016
1.11944
0.830031
0.237904
0.185503
0.201058
0.22883
0.262021
0.298338
0.329158
0.358997
1.54426
2.88274
2.84895
2.85254
2.85507
2.82763
2.83093
2.81853
1.83783
2.55875
2.43344
2.2548
0.327506
-0.189489
-0.35411
-0.543608
-0.629146
-0.267583
-0.106069
1.0297
1.62173
1.75638
1.73296
-0.278247
-0.292924
-0.134065
-0.0187301
0.0643308
1.01285
1.67363
1.75328
0.477943
0.089922
0.0884182
0.0914546
0.114992
0.158156
3.08063
3.41917
2.73482
0.518318
0.432777
0.411681
0.384175
0.344181
0.292394
0.619022
2.86831
2.97906
3.07414
3.14093
3.16269
3.16179
2.65462
0.71556
0.365341
0.330032
0.302157
0.282344
0.269445
0.261306
0.256363
0.252851
0.251252
0.248109
0.398321
0.274502
1.65435
0.309685
1.11204
1.12682
1.13006
0.351993
0.186841
0.207939
0.237628
0.27345
0.307509
0.324503
1.39008
2.99501
2.9748
2.8794
2.67404
2.13949
1.89237
1.16008
0.446675
0.362794
0.40294
1.47866
2.09034
1.91966
0.241082
-0.168606
-0.292872
-0.483362
-0.663825
-0.762233
-0.70002
-0.47216
-0.448853
-0.49761
-0.315678
-0.152949
-0.0297522
0.0553169
0.116769
0.224339
1.6613
1.75924
0.341742
0.067885
0.0672994
0.069274
0.0895276
0.132458
2.62803
3.45618
3.52446
1.18045
0.380916
0.357498
0.328426
0.280185
0.214575
1.28712
2.86641
2.9111
2.92148
2.86345
3.01718
3.08619
3.10279
3.11704
1.37168
0.257543
0.239727
0.229736
0.224734
0.22278
0.222904
0.224071
0.226635
0.228891
0.232958
0.234481
1.79199
0.106092
1.11155
1.12805
1.13533
0.3451
0.191089
0.227749
0.229391
0.264421
0.291758
0.516214
3.0962
3.07538
1.46923
0.729968
0.243364
0.165944
0.133107
0.117156
0.157526
0.235701
0.36199
0.504881
1.73858
2.11066
1.95064
0.813824
-0.165604
-0.32251
-0.42347
-0.478881
-0.493113
-0.448915
-0.362389
-0.241422
-0.112815
0.000353267
0.0846629
0.141997
0.185465
0.506039
1.62334
0.788638
0.121908
0.0571378
0.0547029
0.0533871
0.0666387
0.0998386
3.21482
3.46171
3.51728
2.18759
0.314208
0.284401
0.260189
0.212273
0.149484
1.60616
2.85725
1.57574
0.594697
0.340679
0.493155
1.30341
2.94489
3.03098
3.05138
1.53405
0.170119
0.166751
0.172348
0.178957
0.185666
0.192536
0.199782
0.206817
0.214413
0.218675
1.87229
0.086626
0.700741
1.06534
0.460731
0.281514
0.247905
0.216324
0.202178
0.22911
0.267974
2.37739
3.10059
1.59276
0.216484
0.164828
0.0875915
0.0187411
0.0161342
0.342762
1.74573
2.85702
2.80031
2.74983
2.56179
2.04734
2.32486
2.55292
2.39397
0.272288
-0.215536
-0.253146
-0.238481
-0.188683
-0.108649
-0.020222
0.0670505
0.138535
0.190222
0.226158
0.256455
1.43318
1.58765
0.328596
0.0587898
0.0557561
0.0460167
0.0383259
0.0414181
0.107617
2.38068
3.44506
3.49026
2.90971
0.304409
0.20034
0.184761
0.149071
0.128614
1.80795
2.03294
0.0736145
0.0606714
0.0438781
0.0188507
-0.00358132
0.0242688
2.47321
2.98812
3.01866
0.695385
0.099441
0.113426
0.130445
0.145132
0.158427
0.170706
0.181874
0.192536
0.198404
1.96222
0.0761338
0.0979102
0.213956
0.106271
0.131415
0.182751
0.162869
0.155382
0.16814
0.723807
3.0144
2.56085
0.148632
0.131292
0.0780128
0.0588112
0.59302
1.33865
2.89364
2.79328
2.70548
2.65195
2.63192
2.61212
1.99099
2.194
2.72924
2.75439
2.76288
2.67262
1.60619
-0.0375938
-0.00598118
0.0652103
0.141507
0.201959
0.246559
0.276552
0.29758
1.26766
1.79237
0.972228
0.15747
0.141348
0.0837914
0.0333931
0.0146181
0.00457425
0.00952842
1.18418
3.40666
3.44017
3.102
0.277961
0.111764
0.111086
0.0937985
0.202029
1.57751
0.0428263
0.0483748
0.0294244
0.0172084
-0.0144812
-0.0338441
-0.0434701
-0.0530489
2.2292
2.98648
3.00109
0.213717
0.0521623
0.0780732
0.101683
0.122309
0.140044
0.155229
0.169086
0.177193
2.04578
0.0685576
0.0673139
0.0747084
0.0757714
0.0790232
0.0842609
0.0875416
0.0894686
0.0849872
1.36032
2.96737
0.889779
0.0476084
0.0436151
0.36216
0.579943
1.44093
2.86379
2.79511
2.69756
2.61839
2.57548
2.57618
2.6282
2.04169
2.62477
2.83177
2.86626
2.89884
2.94066
2.98338
2.93745
0.76035
0.192693
0.249812
0.294788
0.324394
0.341805
0.605718
2.16263
1.91934
0.505513
0.289365
0.267223
0.0718464
0.0138795
-0.0200573
-0.0445357
-0.0448118
2.02213
3.37069
3.38527
3.08048
0.167603
0.0295024
0.044366
0.0462851
0.187743
0.70177
0.035785
0.0273887
0.00432122
0.0102653
0.0987271
-0.0452738
-0.0482781
-0.0581746
-0.0784073
1.82952
2.89814
2.0151
-0.00223147
0.0234728
0.0554149
0.0848269
0.108823
0.128299
0.145623
0.157123
2.08312
0.0621205
0.0533382
0.0525897
0.0507104
0.0471344
0.0406589
0.0318041
0.0129051
0.148007
2.88217
2.8344
0.110154
-0.0590455
-0.00821174
0.771085
0.676715
0.311736
0.769742
2.65268
2.68063
2.60736
2.56922
2.60628
2.67886
2.71321
2.84286
2.90645
2.95206
2.99823
3.05286
3.10841
3.06629
0.487174
0.253226
0.309128
0.351946
0.377551
0.388161
2.32736
2.27464
0.719339
0.326013
0.381949
0.157269
0.0322189
-0.0096691
-0.0594361
-0.0987273
1.38273
3.33616
3.31305
3.31768
2.6825
-0.0240773
-0.0385681
-0.00988491
0.00876193
0.119769
0.00982882
0.0159067
0.000768989
-0.023416
-0.0285634
0.187332
0.206883
-0.0301603
-0.0431112
-0.0586303
-0.0695996
1.61726
2.00969
1.56432
-0.0024317
0.00614645
0.0461018
0.0778208
0.102282
0.12368
0.164501
2.11185
0.0674996
0.0394773
0.0351009
0.0285778
0.0184082
0.00244655
-0.0195405
-0.058743
0.515193
2.8266
2.73319
0.0696862
-0.162789
-0.140713
0.112967
0.354016
-0.138256
-0.179942
-0.0496841
1.23352
0.115817
0.0491005
1.06851
2.59608
2.8396
2.90975
2.96745
3.02286
3.08299
3.14682
3.20169
1.30074
0.214286
0.281507
0.342737
0.387861
0.471133
2.4845
2.48842
1.75828
0.205634
0.128454
0.119305
0.0677017
0.0268426
-0.0291128
-0.0916781
0.731168
3.35439
3.28327
3.25805
3.28416
0.891134
-0.155642
-0.0846675
-0.0487998