/*--------------------------------*- C++ -*----------------------------------*\
| =========                 |                                                 |
| \\      /  F ield         | OpenFOAM: The Open Source CFD Toolbox           |
|  \\    /   O peration     | Version:  2412                                  |
|   \\  /    A nd           | Website:  www.openfoam.com                      |
|    \\/     M anipulation  |                                                 |
\*---------------------------------------------------------------------------*/
FoamFile
{
    version     2.0;
    format      ascii;
    arch        "LSB;label=32;scalar=64";
    class       surfaceScalarField;
    location    "1.3";
    object      alphaPhi0.soap;
}
// * * * * * * * * * * * * * * * * * * * * * * * * * * * * * * * * * * * * * //

dimensions      [0 3 -1 0 0 0 0];

oriented        oriented;

internalField   nonuniform List<scalar> 
12640
(
7.76183e-07
-7.7618e-07
1.83945e-06
-1.06381e-06
3.4104e-06
-1.57112e-06
5.64425e-06
-2.23393e-06
8.88627e-06
-3.24213e-06
1.33588e-05
-4.47272e-06
1.91853e-05
-5.8266e-06
2.67545e-05
-7.5694e-06
3.60446e-05
-9.29042e-06
4.73404e-05
-1.1296e-05
6.06642e-05
-1.3324e-05
7.60911e-05
-1.54269e-05
9.36863e-05
-1.75952e-05
0.000113285
-1.95984e-05
0.000134861
-2.15765e-05
0.000157992
-2.31304e-05
0.000182624
-2.46319e-05
0.000208208
-2.55836e-05
0.000234629
-2.64214e-05
0.000260966
-2.63365e-05
0.000286823
-2.5857e-05
0.000311523
-2.47005e-05
0.000334389
-2.2866e-05
0.000354704
-2.03152e-05
0.000371752
-1.70479e-05
0.000384843
-1.30914e-05
0.000393319
-8.47608e-06
0.000396639
-3.32023e-06
0.000394286
2.35303e-06
0.000385862
8.42447e-06
0.000370985
1.48773e-05
0.000349462
2.15226e-05
0.000321192
2.82711e-05
0.000286699
3.44932e-05
0.000246753
3.99453e-05
0.000202233
4.45204e-05
0.000153988
4.82458e-05
0.000103123
5.08665e-05
5.05217e-05
5.26011e-05
-2.88929e-06
5.3411e-05
-5.61845e-05
5.32954e-05
-0.000108535
5.23506e-05
-0.000159032
5.04975e-05
-0.000206773
4.77407e-05
-0.000250866
4.4094e-05
-0.000290489
3.96223e-05
-0.00032483
3.43413e-05
-0.00035318
2.835e-05
-0.000374946
2.17671e-05
-0.000389789
1.48433e-05
-0.000397957
8.16764e-06
-0.0004
2.04235e-06
-0.00039642
-3.57927e-06
-0.000387742
-8.67899e-06
-0.000374555
-1.3187e-05
-0.000357476
-1.70788e-05
-0.000337198
-2.02774e-05
-0.000314456
-2.27428e-05
-0.00028992
-2.45357e-05
-0.000264273
-2.5647e-05
-0.000238148
-2.61253e-05
-0.000212095
-2.60522e-05
-0.000186715
-2.53801e-05
-0.000162215
-2.44995e-05
-0.000139259
-2.29553e-05
-0.000117823
-2.1437e-05
-9.82364e-05
-1.95867e-05
-8.05972e-05
-1.76392e-05
-6.50256e-05
-1.55719e-05
-5.14098e-05
-1.36159e-05
-3.9931e-05
-1.14788e-05
-3.0328e-05
-9.60308e-06
-2.24443e-05
-7.88409e-06
-1.61671e-05
-6.27784e-06
-1.12897e-05
-4.8782e-06
-7.58725e-06
-3.70316e-06
-4.82778e-06
-2.75955e-06
-2.82256e-06
-2.00513e-06
-1.28802e-06
-1.53451e-06
-1.28877e-06
3.52328e-07
-1.12855e-06
9.57892e-07
-1.66964e-06
2.03694e-06
-2.65036e-06
3.94379e-06
-4.141e-06
6.81478e-06
-6.11338e-06
1.08952e-05
-8.55342e-06
1.65324e-05
-1.14642e-05
2.36429e-05
-1.46803e-05
3.27091e-05
-1.83569e-05
4.36718e-05
-2.22589e-05
5.67454e-05
-2.63976e-05
7.19764e-05
-3.06579e-05
8.94307e-05
-3.50496e-05
0.000109006
-3.91734e-05
0.000130502
-4.30724e-05
0.000153927
-4.65549e-05
0.000178694
-4.93991e-05
0.000204764
-5.16532e-05
0.000231263
-5.29204e-05
0.00025814
-5.32137e-05
0.000284621
-5.2338e-05
0.000310069
-5.01481e-05
0.000333791
-4.65882e-05
0.000355072
-4.15962e-05
0.000373189
-3.51652e-05
0.000387429
-2.73314e-05
0.000397118
-1.81658e-05
0.000401597
-7.79898e-06
0.000400278
3.67291e-06
0.000392862
1.58405e-05
0.000379168
2.85716e-05
0.000359282
4.14095e-05
0.00033336
5.41934e-05
0.00030114
6.67142e-05
0.000262693
7.83924e-05
0.000218315
8.88993e-05
0.000168618
9.79428e-05
0.000114634
0.000104851
5.75149e-05
0.000109721
-1.34813e-06
0.000112274
-6.03656e-05
0.000112313
-0.000117969
0.000109954
-0.000172557
0.000105086
-0.000222858
9.80422e-05
-0.000267818
8.90536e-05
-0.000306686
7.84914e-05
-0.000339001
6.66561e-05
-0.000364658
5.40078e-05
-0.000383856
4.09654e-05
-0.000397075
2.80613e-05
-0.000404188
1.5282e-05
-0.000405254
3.10646e-06
-0.000400553
-8.28008e-06
-0.000390646
-1.85846e-05
-0.000376231
-2.76025e-05
-0.000358007
-3.5303e-05
-0.000336701
-4.15832e-05
-0.000313038
-4.64065e-05
-0.000287719
-4.98545e-05
-0.000261421
-5.19442e-05
-0.000234758
-5.27884e-05
-0.000208327
-5.24827e-05
-0.000182592
-5.11144e-05
-0.000158067
-4.90247e-05
-0.000134747
-4.62751e-05
-0.000113375
-4.28096e-05
-9.38902e-05
-3.90711e-05
-7.64393e-05
-3.50904e-05
-6.1087e-05
-3.09242e-05
-4.7926e-05
-2.67766e-05
-3.65258e-05
-2.28792e-05
-2.72037e-05
-1.89259e-05
-1.96151e-05
-1.54739e-05
-1.37252e-05
-1.21692e-05
-9.19354e-06
-9.41037e-06
-5.8851e-06
-7.01165e-06
-3.59847e-06
-5.0465e-06
-1.96475e-06
-3.63913e-06
-8.70472e-07
-2.63052e-06
-2.15997e-06
-3.06363e-08
-1.09807e-06
1.48136e-07
-1.84839e-06
8.05256e-07
-3.30755e-06
2.27611e-06
-5.61206e-06
4.76061e-06
-8.59817e-06
8.48875e-06
-1.22819e-05
1.3629e-05
-1.66047e-05
2.06351e-05
-2.16867e-05
2.94161e-05
-2.71381e-05
4.0286e-05
-3.31291e-05
5.33847e-05
-3.94965e-05
6.88866e-05
-4.61601e-05
8.64856e-05
-5.26488e-05
0.00010643
-5.91183e-05
0.000128341
-6.49831e-05
0.000152289
-7.05025e-05
0.000177965
-7.50747e-05
0.000204868
-7.85563e-05
0.000232626
-8.06778e-05
0.000260736
-8.13234e-05
0.000288539
-8.01408e-05
0.000315345
-7.69537e-05
0.000340426
-7.16693e-05
0.000363022
-6.41919e-05
0.000382354
-5.44974e-05
0.000397664
-4.26409e-05
0.000408232
-2.87339e-05
0.000413399
-1.29657e-05
0.000412606
4.46664e-06
0.000405377
2.30702e-05
0.000391411
4.25377e-05
0.000370572
6.22486e-05
0.000342877
8.18882e-05
0.000308528
0.000101063
0.000267937
0.000118983
0.000221526
0.00013531
0.000170469
0.000149
0.000115373
0.000159948
5.74431e-05
0.00016765
-1.97135e-06
0.000171689
-6.13341e-05
0.000171677
-0.000119431
0.000168052
-0.000174828
0.000160484
-0.00022626
0.000149474
-0.000272696
0.00013549
-0.000313367
0.000119162
-0.000347638
0.000100928
-0.000375173
8.15426e-05
-0.000395761
6.15532e-05
-0.000409395
4.1696e-05
-0.000416389
2.22753e-05
-0.000416838
3.55647e-06
-0.000411365
-1.37531e-05
-0.000400561
-2.93881e-05
-0.000385084
-4.30789e-05
-0.000365691
-5.4697e-05
-0.000343147
-6.41266e-05
-0.000318162
-7.13924e-05
-0.000291539
-7.64765e-05
-0.000263986
-7.94985e-05
-0.000236155
-8.06185e-05
-0.000208663
-7.99748e-05
-0.000181997
-7.77798e-05
-0.00015662
-7.44e-05
-0.000132854
-7.00414e-05
-0.000110853
-6.48111e-05
-9.09894e-05
-5.89348e-05
-7.33458e-05
-5.27342e-05
-5.78338e-05
-4.64363e-05
-4.45618e-05
-4.00486e-05
-3.35962e-05
-3.3845e-05
-2.43554e-05
-2.81674e-05
-1.71617e-05
-2.26682e-05
-1.14246e-05
-1.79067e-05
-7.26062e-06
-1.35748e-05
-4.30195e-06
-9.97093e-06
-2.32686e-06
-7.02168e-06
-1.14509e-06
-4.82136e-06
-4.56438e-07
-3.31927e-06
-2.6161e-06
-8.14232e-07
-2.8387e-07
-1.39012e-06
-1.27247e-06
-1.41e-06
-3.28782e-06
-7.12194e-07
-6.31015e-06
1.04706e-06
-1.03577e-05
4.13268e-06
-1.53677e-05
8.86254e-06
-2.13347e-05
1.51275e-05
-2.79519e-05
2.34727e-05
-3.54836e-05
3.39831e-05
-4.364e-05
4.68354e-05
-5.23492e-05
6.21186e-05
-6.14436e-05
7.99635e-05
-7.04938e-05
0.000100219
-7.93738e-05
0.000122998
-8.7762e-05
0.000147817
-9.53219e-05
0.000174533
-0.00010179
0.000202896
-0.000106919
0.00023215
-0.000109932
0.000262077
-0.00011125
0.000291835
-0.000109898
0.000320762
-0.000105881
0.00034802
-9.89276e-05
0.000372826
-8.89968e-05
0.000394322
-7.5994e-05
0.000411678
-5.99968e-05
0.0004241
-4.11556e-05
0.000430851
-1.9716e-05
0.000431288
4.02984e-06
0.000424839
2.95191e-05
0.000411215
5.61609e-05
0.000390133
8.33303e-05
0.000361703
0.00011032
0.000325942
0.000136824
0.000283212
0.000161714
0.000234568
0.000183954
0.000180494
0.000203074
0.000122137
0.000218305
6.07222e-05
0.000229066
-2.02627e-06
0.000234438
-6.48159e-05
0.000234466
-0.000126067
0.000229303
-0.000184681
0.000219098
-0.000238982
0.000203775
-0.000288021
0.000184528
-0.000330831
0.000161972
-0.000366564
0.000136662
-0.000394927
0.000109905
-0.000415682
8.23087e-05
-0.000428981
5.49969e-05
-0.000434987
2.82806e-05
-0.000434179
2.74905e-06
-0.000427077
-2.08546e-05
-0.000414368
-4.20973e-05
-0.00039682
-6.06275e-05
-0.000375249
-7.62673e-05
-0.000350479
-8.88966e-05
-0.000323363
-9.85088e-05
-0.000294693
-0.000105145
-0.000265217
-0.000108975
-0.000235664
-0.000110172
-0.000206731
-0.000108907
-0.000178688
-0.000105823
-0.000152189
-0.000100899
-0.000127596
-9.46347e-05
-0.000105127
-8.72809e-05
-8.48993e-05
-7.91626e-05
-6.69685e-05
-7.06656e-05
-5.15596e-05
-6.18453e-05
-3.84938e-05
-5.31145e-05
-2.76342e-05
-4.47047e-05
-1.90032e-05
-3.67986e-05
-1.21968e-05
-2.94753e-05
-7.23186e-06
-2.28723e-05
-3.62559e-06
-1.71819e-05
-1.34559e-06
-1.22509e-05
-8.81177e-08
-8.27883e-06
3.23278e-07
-5.23329e-06
3.02356e-07
-3.29887e-06
-2.31449e-06
-1.85133e-06
1.56749e-06
-3.43e-06
3.06067e-07
-4.44472e-06
-2.27338e-06
-4.79053e-06
-5.96463e-06
-3.97005e-06
-1.11783e-05
-1.85995e-06
-1.74778e-05
1.8613e-06
-2.50561e-05
7.5677e-06
-3.36585e-05
1.53287e-05
-4.3245e-05
2.53895e-05
-5.37011e-05
3.79043e-05
-6.48642e-05
5.31187e-05
-7.6658e-05
7.11111e-05
-8.84862e-05
9.18559e-05
-0.000100119
0.000115316
-0.000111221
0.000141374
-0.00012138
0.000169683
-0.000130099
0.000199712
-0.000136947
0.000231385
-0.000141604
0.000263558
-0.000143423
0.000296036
-0.000142375
0.000327849
-0.000137693
0.000358139
-0.000129218
0.00038601
-0.000116868
0.000410506
-0.00010049
0.000430699
-8.0189e-05
0.000445703
-5.616e-05
0.000454671
-2.86838e-05
0.000456879
1.8216e-06
0.000451615
3.47839e-05
0.000438484
6.92933e-05
0.000417231
0.000104584
0.000387829
0.000139722
0.000350434
0.000174219
0.000305426
0.000206722
0.000253436
0.000235945
0.000195416
0.000261094
0.000132475
0.000281247
6.61016e-05
0.000295439
-1.94919e-06
0.000302489
-6.99982e-05
0.000302516
-0.000136471
0.000295776
-0.000199621
0.000282248
-0.000258073
0.000262227
-0.00031028
0.000236736
-0.00035535
0.000207043
-0.00039296
0.000174272
-0.000422183
0.000139128
-0.000443102
0.000103227
-0.000455823
6.77182e-05
-0.000460587
3.30454e-05
-0.00045789
5.14291e-08
-0.00044844
-3.03034e-05
-0.000433084
-5.74532e-05
-0.000412659
-8.10522e-05
-0.000388076
-0.000100851
-0.000360285
-0.000116687
-0.000330197
-0.000128597
-0.000298698
-0.000136644
-0.000266581
-0.000141093
-0.000234644
-0.000142108
-0.000203658
-0.000139894
-0.000174008
-0.000135472
-0.000146108
-0.000128799
-0.000120387
-0.000120355
-9.70956e-05
-0.000110573
-7.63036e-05
-9.99548e-05
-5.82861e-05
-8.86837e-05
-4.29289e-05
-7.7203e-05
-3.01098e-05
-6.59336e-05
-1.97134e-05
-5.51012e-05
-1.16104e-05
-4.49017e-05
-5.56026e-06
-3.55256e-05
-1.28437e-06
-2.7149e-05
1.33005e-06
-1.97971e-05
2.63884e-06
-1.35595e-05
2.8713e-06
-8.51182e-06
2.37565e-06
-4.73764e-06
1.31836e-06
-2.24181e-06
-9.95712e-07
-3.14799e-06
4.71542e-06
-6.03e-06
3.18779e-06
-8.39299e-06
8.93627e-08
-9.84294e-06
-4.5148e-06
-1.03325e-05
-1.06887e-05
-9.36745e-06
-1.84429e-05
-6.7668e-06
-2.76569e-05
-2.15034e-06
-3.82752e-05
4.76602e-06
-5.01614e-05
1.42026e-05
-6.31376e-05
2.63815e-05
-7.7043e-05
4.13877e-05
-9.16642e-05
5.9529e-05
-0.000106627
8.08376e-05
-0.000121428
0.000105264
-0.000135647
0.00013261
-0.000148727
0.000162811
-0.0001603
0.000195258
-0.000169394
0.00022958
-0.000175926
0.000265081
-0.000178923
0.000300992
-0.000178288
0.000336572
-0.000173273
0.000370825
-0.000163471
0.000402676
-0.000148718
0.000431104
-0.000128918
0.000455034
-0.000104118
0.000473457
-7.45829e-05
0.000485391
-4.0618e-05
0.000489965
-2.75184e-06
0.000486296
3.84525e-05
0.000473926
8.16646e-05
0.000452547
0.000125963
0.00042211
0.00017016
0.00038245
0.000213879
0.000334265
0.000254908
0.000278087
0.000292124
0.000214879
0.000324302
0.0001459
0.000350226
7.32212e-05
0.000368118
-1.7066e-06
0.000377417
-7.66362e-05
0.000377445
-0.000149825
0.000368965
-0.000219067
0.000351491
-0.000282842
0.000326002
-0.000339456
0.00029335
-0.000387898
0.000255485
-0.000427362
0.000213735
-0.000457652
0.000169418
-0.000478691
0.000124268
-0.00049063
7.96558e-05
-0.000493647
3.60637e-05
-0.000488403
-5.19276e-06
-0.000475864
-4.28426e-05
-0.00045699
-7.63266e-05
-0.000432783
-0.000105259
-0.000404297
-0.000129336
-0.00037252
-0.000148465
-0.00033857
-0.000162546
-0.000303377
-0.000171838
-0.000267996
-0.000176473
-0.000233152
-0.000176952
-0.000199311
-0.000173735
-0.000167371
-0.000167412
-0.000137722
-0.000158449
-0.00011064
-0.000147437
-8.64758e-05
-0.000134738
-6.52652e-05
-0.000121166
-4.7009e-05
-0.00010694
-3.16915e-05
-9.25206e-05
-1.93056e-05
-7.83193e-05
-9.53434e-06
-6.48725e-05
-2.17263e-06
-5.22636e-05
2.94087e-06
-4.06398e-05
6.0814e-06
-3.02907e-05
7.57479e-06
-2.12905e-05
7.72013e-06
-1.37053e-05
6.64531e-06
-7.43678e-06
4.91634e-06
-3.00868e-06
2.59391e-06
7.96427e-08
1.59829e-06
-4.70607e-06
9.42133e-06
-9.1473e-06
7.62881e-06
-1.30382e-05
3.98017e-06
-1.60349e-05
-1.51803e-06
-1.81017e-05
-8.62193e-06
-1.86293e-05
-1.79154e-05
-1.73689e-05
-2.89173e-05
-1.40791e-05
-4.15649e-05
-8.31412e-06
-5.59263e-05
1.76521e-07
-7.16282e-05
1.17443e-05
-8.86107e-05
2.65006e-05
-0.000106421
4.47947e-05
-0.000124921
6.67128e-05
-0.000143345
9.22544e-05
-0.000161189
0.000121228
-0.000177701
0.000153622
-0.000192694
0.000189056
-0.000204828
0.000226762
-0.000213632
0.000266311
-0.000218472
0.000306461
-0.000218437
0.000346794
-0.000213607
0.000385939
-0.000202616
0.000422915
-0.000185694
0.000456324
-0.000162326
0.000485018
-0.000132812
0.000507854
-9.74189e-05
0.000523625
-5.63883e-05
0.00053131
-1.04371e-05
0.000529767
3.99952e-05
0.000518598
9.28335e-05
0.00049709
0.000147471
0.000465087
0.000202162
0.000423047
0.00025592
0.00037091
0.000307044
0.000309419
0.000353615
0.000239529
0.000394192
0.000163226
0.00042653
8.23008e-05
0.000449044
-1.42371e-06
0.000461142
-8.50816e-05
0.000461104
-0.00016671
0.000450594
-0.00024377
0.000428551
-0.000314286
0.00039652
-0.000376385
0.000355448
-0.000428898
0.000307998
-0.000471144
0.000255983
-0.000502689
0.000200962
-0.000523741
0.00014532
-0.000534374
9.02886e-05
-0.000535028
3.67175e-05
-0.000526382
-1.38383e-05
-0.000509804
-5.94205e-05
-0.000486402
-9.9729e-05
-0.000457345
-0.000134316
-0.000423831
-0.000162849
-0.000387061
-0.000185236
-0.000348237
-0.000201371
-0.000308459
-0.000211616
-0.000268765
-0.000216167
-0.000230183
-0.000215535
-0.000193182
-0.000210736
-0.000158643
-0.000201952
-0.000126804
-0.000190289
-9.82269e-05
-0.000176014
-7.29839e-05
-0.000159981
-5.11954e-05
-0.000142955
-3.28143e-05
-0.000125322
-1.77047e-05
-0.00010763
-5.7598e-06
-9.02645e-05
3.20465e-06
-7.38375e-05
9.43844e-06
-5.84979e-05
1.33232e-05
-4.45253e-05
1.51455e-05
-3.21134e-05
1.51819e-05
-2.13267e-05
1.37693e-05
-1.22936e-05
1.1376e-05
-5.04351e-06
8.02611e-06
3.40118e-07
4.14541e-06
3.96059e-06
5.74238e-06
-6.53402e-06
1.59552e-05
-1.28137e-05
1.39085e-05
-1.85637e-05
9.73017e-06
-2.35143e-05
3.4327e-06
-2.71812e-05
-4.95498e-06
-2.95557e-05
-1.55409e-05
-3.01237e-05
-2.83493e-05
-2.83877e-05
-4.33009e-05
-2.41229e-05
-6.01912e-05
-1.68102e-05
-7.89409e-05
-6.21976e-06
-9.92008e-05
8.12737e-06
-0.000120767
2.6477e-05
-0.000143271
4.8965e-05
-0.000165833
7.57235e-05
-0.000187947
0.000106883
-0.00020886
0.000141666
-0.000227478
0.000180356
-0.000243517
0.000222223
-0.000255499
0.000266464
-0.000262714
0.00031238
-0.000264353
0.000358304
-0.00025953
0.000403743
-0.000248054
0.000446849
-0.0002288
0.000486479
-0.000201956
0.00052132
-0.000167652
0.000549552
-0.00012565
0.0005702
-7.70368e-05
0.000582052
-2.22885e-05
0.000583167
3.88797e-05
0.000573701
0.0001023
0.000552281
0.000168892
0.000518893
0.000235551
0.000473709
0.000301105
0.000416704
0.00036405
0.000348437
0.000421882
0.000270784
0.000471845
0.000185225
0.000512089
9.38577e-05
0.000540411
-8.08932e-07
0.000555809
-9.54785e-05
0.000555774
-0.000187655
0.000542772
-0.000274406
0.000515302
-0.000353183
0.000475297
-0.000422414
0.00042468
-0.000480064
0.000365648
-0.000525497
0.000301415
-0.000558452
0.000233917
-0.000579274
0.000166142
-0.000587957
9.89726e-05
-0.000585435
3.4194e-05
-0.000572534
-2.67393e-05
-0.000550811
-8.1142e-05
-0.000521716
-0.000128824
-0.000486616
-0.000169416
-0.000446878
-0.000202586
-0.000403953
-0.000228161
-0.000359043
-0.000246281
-0.00031359
-0.000257069
-0.000268962
-0.000260794
-0.000225568
-0.000258929
-0.000184797
-0.000251508
-0.00014684
-0.000239909
-0.000112564
-0.000224565
-8.23209e-05
-0.000206258
-5.57956e-05
-0.000186506
-3.34043e-05
-0.000165347
-1.49972e-05
-0.000143729
-3.58247e-07
-0.000122269
1.07505e-05
-0.000101374
1.85815e-05
-8.1669e-05
2.3459e-05
-6.33755e-05
2.58023e-05
-4.68687e-05
2.5954e-05
-3.22645e-05
2.42325e-05
-1.96057e-05
2.10448e-05
-9.10614e-06
1.6804e-05
-8.03253e-07
1.1662e-05
5.48145e-06
5.96487e-06
9.6574e-06
1.17074e-05
-8.62442e-06
2.45796e-05
-1.70089e-05
2.2293e-05
-2.48838e-05
1.76052e-05
-3.19515e-05
1.05004e-05
-3.78119e-05
9.05363e-07
-4.24621e-05
-1.08907e-05
-4.50102e-05
-2.58014e-05
-4.53541e-05
-4.29573e-05
-4.28909e-05
-6.26544e-05
-3.71635e-05
-8.46683e-05
-2.77941e-05
-0.00010857
-1.4179e-05
-0.000134382
3.9595e-06
-0.000161409
2.69907e-05
-0.000188865
5.49736e-05
-0.00021593
8.79926e-05
-0.000241879
0.000125879
-0.000265363
0.000168514
-0.000286152
0.000215151
-0.000302135
0.000265142
-0.000312704
0.000317498
-0.00031671
0.000370723
-0.000312755
0.000423564
-0.000300895
0.000474593
-0.000279829
0.000522071
-0.000249433
0.000564001
-0.000209582
0.000599177
-0.000160826
0.000625972
-0.000103831
0.000642723
-3.90387e-05
0.000648513
3.30902e-05
0.000640924
0.000109889
0.000619885
0.000189931
0.000585047
0.000270389
0.000536019
0.000350133
0.000473202
0.000426867
0.000397358
0.000497725
0.000309687
0.000559516
0.000212351
0.000609425
0.000108103
0.00064466
4.96145e-08
0.000663863
-0.000108078
0.000663902
-0.000213798
0.000648493
-0.00031286
0.000614363
-0.000402135
0.000564571
-0.000479274
0.000501818
-0.000543111
0.000429486
-0.000592358
0.000350663
-0.000627053
0.000268613
-0.000647274
0.000186362
-0.000652983
0.000104682
-0.000646651
2.78624e-05
-0.000627861
-4.55275e-05
-0.000599642
-0.000109361
-0.000563382
-0.000165084
-0.000520795
-0.000212002
-0.00047343
-0.000249951
-0.000422779
-0.00027881
-0.000370619
-0.00029844
-0.000318485
-0.000309202
-0.000267294
-0.000311985
-0.000218683
-0.00030754
-0.000173115
-0.000297076
-0.000131712
-0.000281313
-9.49192e-05
-0.000261359
-6.2321e-05
-0.000238856
-3.4694e-05
-0.000214134
-1.17492e-05
-0.000188292
6.65665e-06
-0.000162135
2.04652e-05
-0.000136078
3.04945e-05
-0.000111404
3.68156e-05
-8.79904e-05
4.00738e-05
-6.6634e-05
4.03906e-05
-4.71856e-05
3.85029e-05
-3.03766e-05
3.478e-05
-1.58831e-05
2.95594e-05
-3.88485e-06
2.31193e-05
5.63605e-06
1.58552e-05
1.27467e-05
8.05705e-06
1.74547e-05
1.97649e-05
-1.09619e-05
3.55415e-05
-2.17126e-05
3.30438e-05
-3.20092e-05
2.79018e-05
-4.15784e-05
2.00696e-05
-5.0117e-05
9.44381e-06
-5.69821e-05
-4.02589e-06
-6.22076e-05
-2.05762e-05
-6.50378e-05
-4.01273e-05
-6.49435e-05
-6.2749e-05
-6.13359e-05
-8.82757e-05
-5.34854e-05
-0.000116421
-4.0991e-05
-0.000146877
-2.33823e-05
-0.000179018
-1.45284e-08
-0.000212233
2.93351e-05
-0.00024528
6.46209e-05
-0.000277165
0.000106156
-0.000306898
0.000152893
-0.000332889
0.000204984
-0.000354227
0.000261826
-0.000369546
0.000321845
-0.000376729
0.000384099
-0.000375008
0.000445929
-0.000362726
0.00050622
-0.000340119
0.00056295
-0.000306164
0.000614146
-0.000260777
0.000657888
-0.000204568
0.000692231
-0.000138173
0.000715727
-6.2535e-05
0.000726383
2.24337e-05
0.000721934
0.000114338
0.000702387
0.000209479
0.000666
0.000306776
0.000612943
0.000403189
0.000543237
0.000496573
0.000457723
0.000583239
0.00035776
0.00065948
0.00024574
0.000721446
0.000125959
0.000764441
1.36071e-06
0.000788462
-0.000124304
0.000789565
-0.00024635
0.000770538
-0.000360281
0.000728295
-0.00046256
0.000666853
-0.00054987
0.000589129
-0.000620525
0.000500141
-0.000674047
0.000404185
-0.00071035
0.000304915
-0.000729894
0.000205908
-0.000732519
0.000107307
-0.000718767
1.41108e-05
-0.000693196
-7.10997e-05
-0.000656849
-0.000145708
-0.000611904
-0.000210028
-0.000560173
-0.000263732
-0.000503458
-0.000306666
-0.000443614
-0.000338655
-0.00038253
-0.000359525
-0.000322016
-0.000369715
-0.000263407
-0.000370593
-0.00020816
-0.000362788
-0.000157654
-0.000347582
-0.000112107
-0.000326861
-7.21091e-05
-0.000301357
-3.77393e-05
-0.000273227
-8.92549e-06
-0.000242948
1.43881e-05
-0.000211605
3.23274e-05
-0.000180075
4.53053e-05
-0.000149057
5.38659e-05
-0.000119965
5.83243e-05
-9.24491e-05
5.9255e-05
-6.75648e-05
5.75546e-05
-4.54847e-05
5.30348e-05
-2.58573e-05
4.68377e-05
-9.68527e-06
3.91276e-05
3.82502e-06
3.02555e-05
1.45077e-05
2.05838e-05
2.24177e-05
1.04118e-05
2.76267e-05
3.01762e-05
-1.35154e-05
4.9057e-05
-2.68697e-05
4.6398e-05
-3.98609e-05
4.0893e-05
-5.22324e-05
3.2441e-05
-6.36472e-05
2.08584e-05
-7.36254e-05
5.9522e-06
-8.19063e-05
-1.22955e-05
-8.7605e-05
-3.44288e-05
-9.04742e-05
-5.98801e-05
-8.96017e-05
-8.91481e-05
-8.39212e-05
-0.000122101
-7.30541e-05
-0.000157743
-5.62451e-05
-0.000195827
-3.28804e-05
-0.000235597
-2.47504e-06
-0.000275685
3.52116e-05
-0.000314852
8.00731e-05
-0.00035176
0.000132103
-0.000384919
0.000191014
-0.000413137
0.00025536
-0.000433892
0.000324623
-0.000445993
0.000396889
-0.000447274
0.000470495
-0.000436332
0.000542238
-0.000411862
0.000610207
-0.000374132
0.000672325
-0.000322895
0.000726251
-0.000258494
0.000770093
-0.000182015
0.000801655
-9.4097e-05
0.000819359
4.7295e-06
0.000820205
0.000113493
0.00080281
0.000226875
0.000765053
0.000344533
0.000706994
0.000461249
0.000629396
0.000574171
0.000532339
0.000680296
0.000417062
0.000774757
0.000286968
0.00085154
0.000146859
0.000904549
2.84873e-06
0.000932472
-0.000140894
0.00093331
-0.000284068
0.000913714
-0.000418147
0.000862373
-0.000537031
0.000785735
-0.000636784
0.000688882
-0.000716138
0.000579494
-0.000774484
0.000462533
-0.000812835
0.000343267
-0.000829306
0.000222378
-0.000826749
0.00010475
-0.000805446
-7.19297e-06
-0.000770167
-0.000106378
-0.000723569
-0.000192305
-0.000667939
-0.000265659
-0.00060521
-0.000326463
-0.000537236
-0.00037464
-0.000466075
-0.000409816
-0.000394349
-0.000431251
-0.000323496
-0.000440567
-0.000256153
-0.000437936
-0.000193986
-0.000424956
-0.000137376
-0.000404192
-8.77166e-05
-0.000376521
-4.41601e-05
-0.000344914
-7.56067e-06
-0.000309826
2.23266e-05
-0.000272835
4.57483e-05
-0.000235027
6.29152e-05
-0.000197242
7.46243e-05
-0.000160767
8.11156e-05
-0.000126457
8.33013e-05
-9.46347e-05
8.16813e-05
-6.59446e-05
7.67673e-05
-4.057e-05
6.966e-05
-1.87502e-05
6.04793e-05
-5.04466e-07
4.98525e-05
1.445e-05
3.81898e-05
2.61706e-05
2.58154e-05
3.47914e-05
1.30073e-05
4.04346e-05
4.31832e-05
-1.62337e-05
6.52907e-05
-3.239e-05
6.25543e-05
-4.83337e-05
5.68365e-05
-6.38446e-05
4.7952e-05
-7.86003e-05
3.56142e-05
-9.21798e-05
1.95315e-05
-0.000103938
-5.37395e-07
-0.000113511
-2.48553e-05
-0.000119807
-5.3584e-05
-0.000122209
-8.67456e-05
-0.000119698
-0.000124612
-0.000111062
-0.000166379
-9.55998e-05
-0.000211289
-7.26684e-05
-0.000258529
-4.13118e-05
-0.000307042
-1.35381e-06
-0.00035481
4.73589e-05
-0.000400473
0.00010479
-0.000442351
0.000170607
-0.000478955
0.000244332
-0.000507617
0.000324558
-0.000526219
0.000409448
-0.000532164
0.000496294
-0.000523179
0.000582477
-0.000498045
0.000664361
-0.000456017
0.000739523
-0.000398057
0.000805854
-0.000324825
0.000861161
-0.000237321
0.000903074
-0.00013601
0.00092967
-2.1866e-05
0.000938077
0.000105087
0.00092466
0.000240292
0.000886156
0.000383037
0.000823232
0.000524173
0.000736556
0.000660847
0.000625787
0.000791065
0.00049175
0.000908794
0.000338396
0.00100489
0.000173859
0.00106909
6.53002e-06
0.0010998
-0.00016141
0.00110125
-0.000331065
0.00108337
-0.000490124
0.00102143
-0.000630102
0.000925715
-0.000745058
0.000803839
-0.000833877
0.000668314
-0.000897616
0.000526272
-0.000936793
0.000382445
-0.000949667
0.000235251
-0.000939507
9.45909e-05
-0.000906939
-3.97602e-05
-0.000859156
-0.000154161
-0.000800073
-0.00025139
-0.000732006
-0.000333725
-0.000656516
-0.000401953
-0.000574817
-0.00045634
-0.000490364
-0.000494268
-0.000404712
-0.000516903
-0.00032191
-0.000523368
-0.000244247
-0.0005156
-0.000173361
-0.000495842
-0.000110403
-0.000467151
-5.57844e-05
-0.00043114
-9.36797e-06
-0.000391331
2.91622e-05
-0.000348357
5.99419e-05
-0.000303615
8.32079e-05
-0.000258293
9.92968e-05
-0.000213332
0.000109009
-0.00017048
0.000112986
-0.000130433
0.000112061
-9.37104e-05
0.000107071
-6.09548e-05
9.86443e-05
-3.21435e-05
8.80253e-05
-8.13087e-06
7.54915e-05
1.2029e-05
6.16156e-05
2.83257e-05
4.68339e-05
4.09512e-05
3.14816e-05
5.01434e-05
1.58064e-05
5.61094e-05
5.89898e-05
-1.9033e-05
8.43236e-05
-3.81251e-05
8.16464e-05
-5.72431e-05
7.59546e-05
-7.62179e-05
6.6927e-05
-9.47331e-05
5.41297e-05
-0.000112335
3.71341e-05
-0.000128416
1.55431e-05
-0.00014233
-1.09409e-05
-0.000153194
-4.27196e-05
-0.000159948
-7.99916e-05
-0.0001614
-0.000123159
-0.000156055
-0.000171724
-0.000142756
-0.000224587
-0.000120486
-0.000280799
-8.86177e-05
-0.00033891
-4.65319e-05
-0.000396896
6.03743e-06
-0.000453043
6.93996e-05
-0.000505713
0.000143146
-0.000552701
0.000227349
-0.00059182
0.00032062
-0.000619491
0.000420612
-0.000632156
0.000524053
-0.000626618
0.000626866
-0.000600858
0.000724956
-0.000554106
0.000814996
-0.000488096
0.000895529
-0.000405357
0.000964511
-0.000306303
0.00102
-0.000191495
0.00105907
-6.09347e-05
0.00107814
8.60136e-05
0.00107215
0.00024628
0.00103615
0.000419039
0.000967364
0.000592958
0.000869893
0.000758318
0.000742815
0.000918143
0.000586093
0.00106552
0.000404096
0.00118689
0.000208335
0.00126485
1.16376e-05
0.0012965
-0.000189366
0.00130225
-0.000391634
0.00128564
-0.000582959
0.00121276
-0.000748471
0.00109123
-0.00088048
0.000935847
-0.000979621
0.000767456
-0.0010496
0.000596246
-0.00108901
0.00042186
-0.00109546
0.000241703
-0.00107319
7.23177e-05
-0.00102544
-8.75109e-05
-0.000961297
-0.000218301
-0.000886163
-0.000326524
-0.000802816
-0.000417072
-0.000712584
-0.000492185
-0.000616135
-0.000552788
-0.000514661
-0.000595743
-0.000413341
-0.000618224
-0.000315961
-0.000620749
-0.000225941
-0.000605621
-0.000145739
-0.000576044
-7.6338e-05
-0.000536552
-1.64542e-05
-0.000491024
3.32733e-05
-0.000441059
7.35913e-05
-0.000388675
0.000104934
-0.000334957
0.000127446
-0.000280805
0.000142106
-0.000227992
0.000149273
-0.000177647
0.000149823
-0.000130984
0.00014488
-8.87679e-05
0.000135639
-5.1714e-05
0.000123071
-1.95757e-05
0.000108315
6.6254e-06
9.18482e-05
2.84951e-05
7.42876e-05
4.58863e-05
5.60546e-05
5.91836e-05
3.74714e-05
6.87261e-05
1.87463e-05
7.48348e-05
7.77357e-05
-2.17791e-05
0.000106103
-4.384e-05
0.000103708
-6.63032e-05
9.84182e-05
-8.90604e-05
8.96845e-05
-0.000111789
7.68582e-05
-0.000134009
5.93548e-05
-0.000155114
3.66474e-05
-0.000174274
8.21947e-06
-0.000190659
-2.6334e-05
-0.000203102
-6.75487e-05
-0.00020986
-0.0001164
-0.00020898
-0.000172605
-0.000198737
-0.00023483
-0.000177932
-0.000301604
-0.000145929
-0.000370913
-0.000101885
-0.00044094
-4.56525e-05
-0.000509276
2.3362e-05
-0.000574728
0.000105768
-0.000635108
0.000201926
-0.000687978
0.000310565
-0.000728129
0.000428783
-0.000750375
0.000551737
-0.000749573
0.00067446
-0.00072358
0.000792511
-0.000672158
0.000902855
-0.000598439
0.00100364
-0.000506145
0.00109149
-0.00039415
0.00116305
-0.000263054
0.00121599
-0.000113872
0.0012484
5.35944e-05
0.00125251
0.000242176
0.0012177
0.000453847
0.00114692
0.000663741
0.00104163
0.000863603
0.000896187
0.00106359
0.00070577
0.00125593
0.000482169
0.00141049
0.000247863
0.00149915
1.30155e-05
0.00153135
-0.00022669
0.00154196
-0.000464865
0.00152381
-0.000695647
0.00144354
-0.000897818
0.0012934
-0.00105457
0.0010926
-0.00116463
0.000877515
-0.00123766
0.000669272
-0.00127652
0.000460717
-0.0012786
0.000243784
-0.0012421
3.58185e-05
-0.0011813
-0.00014831
-0.00109831
-0.000301285
-0.00100093
-0.000423909
-0.00089286
-0.00052514
-0.000778278
-0.000606766
-0.000659644
-0.000671423
-0.000538255
-0.000717132
-0.000417815
-0.000738665
-0.000302981
-0.000735583
-0.000198387
-0.000710214
-0.000107762
-0.000666668
-3.09345e-05
-0.000613379
3.28035e-05
-0.000554762
8.50127e-05
-0.000493268
0.000126711
-0.000430374
0.000158343
-0.000366588
0.000180056
-0.000302518
0.000192468
-0.000240404
0.00019612
-0.000181298
0.000192062
-0.000126927
0.000181973
-7.86793e-05
0.000167351
-3.70916e-05
0.000150017
-2.24139e-06
0.000130279
2.63633e-05
0.000109311
4.94635e-05
8.76369e-05
6.75597e-05
6.56384e-05
8.11814e-05
4.36084e-05
9.0756e-05
2.17216e-05
9.67218e-05
9.94576e-05
-2.4253e-05
0.000130356
-4.91641e-05
0.000128619
-7.50829e-05
0.000124337
-0.000101946
0.000116548
-0.000129367
0.000104279
-0.000156813
8.68006e-05
-0.000183687
6.35208e-05
-0.000209245
3.3778e-05
-0.000232314
-3.26477e-06
-0.00025202
-4.78434e-05
-0.000265765
-0.000102654
-0.000271148
-0.000167221
-0.000265425
-0.000240553
-0.000246914
-0.000320115
-0.000214537
-0.00040329
-0.000168994
-0.000486483
-0.000109742
-0.000568528
-3.58304e-05
-0.000648639
5.51595e-05
-0.000726098
0.000164172
-0.00079699
0.000290717
-0.000854674
0.000431241
-0.000890899
0.000581036
-0.000899369
0.000736832
-0.000879376
0.000891498
-0.000826825
0.00103812
-0.00074506
0.00117044
-0.000638463
0.0012821
-0.000505816
0.00137031
-0.000351264
0.00143619
-0.00017975
0.00148241
7.37498e-06
0.00149304
0.000231552
0.00146129
0.000485595
0.00138137
0.000743663
0.00126817
0.000976796
0.00110984
0.00122192
0.000888319
0.00147745
0.000614966
0.00168384
0.000318566
0.00179555
1.19835e-05
0.00183793
-0.000290849
0.00184479
-0.000585054
0.00181802
-0.000869585
0.00172807
-0.00111738
0.00154119
-0.00129688
0.0012721
-0.00141089
0.000991528
-0.00148893
0.000747312
-0.00153286
0.000504646
-0.00153906
0.000249985
-0.00149035
-1.28879e-05
-0.00140177
-0.000236894
-0.00129061
-0.000412445
-0.00117585
-0.00053867
-0.00104079
-0.000660197
-0.000884425
-0.000763133
-0.000721325
-0.000834523
-0.000563307
-0.000875151
-0.000415287