/*--------------------------------*- C++ -*----------------------------------*\
| =========                 |                                                 |
| \\      /  F ield         | OpenFOAM: The Open Source CFD Toolbox           |
|  \\    /   O peration     | Version:  2412                                  |
|   \\  /    A nd           | Website:  www.openfoam.com                      |
|    \\/     M anipulation  |                                                 |
\*---------------------------------------------------------------------------*/
FoamFile
{
    version     2.0;
    format      ascii;
    arch        "LSB;label=32;scalar=64";
    class       volScalarField;
    location    "1.3";
    object      p;
}
// * * * * * * * * * * * * * * * * * * * * * * * * * * * * * * * * * * * * * //

dimensions      [1 -1 -2 0 0 0 0];

internalField   nonuniform List<scalar> 
6400
(
9692.61
9691.4
9688.96
9685.28
9680.35
9674.14
9666.65
9657.86
9647.77
9636.36
9623.64
9609.64
9594.38
9577.92
9560.32
9541.7
9522.16
9501.84
9480.94
9459.64
9438.16
9416.75
9395.66
9375.15
9355.47
9336.88
9319.59
9303.81
9289.67
9277.26
9266.6
9257.68
9250.38
9244.58
9240.06
9236.62
9234.02
9232.05
9230.51
9229.27
9228.25
9227.44
9226.92
9226.83
9227.36
9228.74
9231.24
9235.1
9240.54
9247.75
9256.86
9267.93
9280.93
9295.81
9312.4
9330.51
9349.89
9370.28
9391.39
9412.94
9434.66
9456.28
9477.57
9498.31
9518.32
9537.43
9555.52
9572.48
9588.23
9602.71
9615.88
9627.72
9638.21
9647.36
9655.16
9661.63
9666.79
9670.63
9673.19
9674.47
9203.33
9202.12
9199.7
9196.04
9191.12
9184.93
9177.45
9168.67
9158.57
9147.15
9134.41
9120.37
9105.05
9088.51
9070.82
9052.06
9032.37
9011.88
8990.78
8969.25
8947.54
8925.88
8904.53
8883.77
8863.86
8845.05
8827.58
8811.65
8797.41
8784.95
8774.31
8765.46
8758.3
8752.67
8748.36
8745.14
8742.75
8740.96
8739.56
8738.39
8737.38
8736.51
8735.85
8735.57
8735.87
8737.01
8739.26
8742.91
8748.19
8755.29
8764.36
8775.45
8788.56
8803.58
8820.37
8838.7
8858.34
8879
8900.39
8922.22
8944.19
8966.06
8987.56
9008.49
9028.66
9047.91
9066.11
9083.16
9098.97
9113.5
9126.7
9138.55
9149.05
9158.19
9165.99
9172.45
9177.59
9181.43
9183.97
9185.25
8715.26
8714.07
8711.68
8708.04
8703.15
8697
8689.54
8680.78
8670.68
8659.25
8646.47
8632.35
8616.92
8600.23
8582.33
8563.32
8543.32
8522.48
8500.97
8479
8456.8
8434.64
8412.78
8391.5
8371.11
8351.86
8334.03
8317.81
8303.39
8290.86
8280.28
8271.58
8264.68
8259.38
8255.46
8252.65
8250.65
8249.2
8248.05
8247.02
8246.02
8245.02
8244.12
8243.48
8243.35
8244.04
8245.84
8249.08
8254.03
8260.91
8269.87
8280.99
8294.27
8309.58
8326.76
8345.57
8365.74
8386.95
8408.91
8431.28
8453.78
8476.13
8498.07
8519.38
8539.88
8559.4
8577.82
8595.04
8610.98
8625.6
8638.85
8650.73
8661.24
8670.37
8678.15
8684.59
8689.71
8693.5
8696.03
8697.29
8228.43
8227.26
8224.89
8221.28
8216.46
8210.36
8202.94
8194.21
8184.13
8172.68
8159.85
8145.62
8130.03
8113.11
8094.91
8075.52
8055.07
8033.68
8011.56
7988.9
7965.97
7943.03
7920.37
7898.31
7877.16
7857.24
7838.82
7822.16
7807.44
7794.82
7784.31
7775.87
7769.37
7764.61
7761.32
7759.16
7757.8
7756.9
7756.15
7755.34
7754.36
7753.16
7751.86
7750.66
7749.86
7749.8
7750.88
7753.47
7757.89
7764.41
7773.21
7784.36
7797.92
7813.7
7831.49
7851.04
7872.03
7894.11
7916.93
7940.16
7963.46
7986.54
8009.14
8031.04
8052.02
8071.95
8090.7
8108.17
8124.3
8139.03
8152.36
8164.28
8174.79
8183.9
8191.64
8198.05
8203.14
8206.84
8209.36
8210.62
7742.92
7741.68
7739.33
7735.79
7731.02
7724.98
7717.65
7708.99
7698.93
7687.47
7674.59
7660.24
7644.44
7627.22
7608.63
7588.74
7567.67
7545.56
7522.6
7499.02
7475.07
7451.05
7427.29
7404.14
7381.94
7361.07
7341.83
7324.53
7309.39
7296.62
7286.22
7278.14
7272.23
7268.26
7265.87
7264.68
7264.25
7264.15
7264.01
7263.54
7262.59
7261.11
7259.23
7257.2
7255.4
7254.27
7254.29
7255.92
7259.58
7265.59
7274.15
7285.32
7299.32
7315.76
7334.43
7355.02
7377.16
7400.45
7424.48
7448.88
7473.28
7497.37
7520.86
7543.52
7565.17
7585.64
7604.82
7622.61
7638.97
7653.86
7667.27
7679.22
7689.72
7698.8
7706.47
7712.8
7717.81
7721.52
7723.98
7725.22
7258.55
7257.4
7255
7251.55
7246.87
7240.93
7233.69
7225.09
7215.12
7203.67
7190.78
7176.28
7160.24
7142.66
7123.58
7103.07
7081.23
7058.21
7034.19
7009.41
6984.15
6958.73
6933.53
6908.92
6885.33
6863.18
6842.85
6824.69
6809
6796
6785.72
6778.13
6773.04
6770.15
6769.04
6769.2
6770.08
6771.13
6771.85
6771.86
6770.98
6769.1
6766.41
6763.22
6760.03
6757.39
6755.92
6756.23
6758.83
6764.14
6772.43
6783.88
6798.24
6815.52
6835.38
6857.38
6881.06
6905.96
6931.59
6957.51
6983.33
7008.7
7033.32
7056.96
7079.43
7100.56
7120.26
7138.45
7155.09
7170.13
7183.63
7195.6
7206.04
7215.05
7222.65
7228.89
7233.81
7237.44
7239.84
7241.11
6775.29
6774.19
6771.99
6768.53
6763.97
6758.18
6751.09
6742.63
6732.72
6721.25
6708.53
6693.84
6677.52
6659.54
6639.91
6618.66
6595.89
6571.75
6546.43
6520.17
6493.27
6466.09
6439.05
6412.59
6387.19
6363.37
6341.59
6322.3
6305.89
6292.54
6282.42
6275.48
6271.48
6270.06
6270.68
6272.7
6275.39
6278.03
6279.96
6280.66
6279.89
6277.47
6273.67
6268.9
6263.78
6259.07
6255.58
6254.08
6255.24
6259.58
6267.45
6279.01
6294.15
6312.64
6334.09
6357.95
6383.66
6410.63
6438.29
6466.14
6493.73
6520.68
6546.68
6571.5
6594.94
6616.86
6637.17
6655.81
6672.75
6687.92
6701.49
6713.42
6723.82
6732.73
6740.2
6746.31
6751.1
6754.63
6757.11
6758.27
6293.11
6292.07
6289.95
6286.71
6282.3
6276.73
6269.87
6261.62
6251.89
6240.58
6227.67
6212.96
6196.41
6178.01
6157.77
6135.68
6111.83
6086.36
6059.48
6031.43
6002.54
5973.18
5943.84
5915.04
5887.35
5861.37
5837.71
5816.91
5799.46
5785.68
5775.77
5769.67
5767.12
5767.65
5770.61
5775.15
5780.32
5785.15
5788.75
5790.41
5789.81
5786.69
5781.38
5774.45
5766.72
5759.21
5752.98
5749.04
5748.25
5751.3
5758.62
5770.43
5786.56
5806.69
5830.24
5856.54
5884.86
5914.46
5944.67
5974.9
6004.64
6033.49
6061.12
6087.31
6111.88
6134.69
6155.68
6174.82
6192.13
6207.23
6220.91
6232.83
6243.1
6251.83
6259.11
6265.03
6269.66
6273.2
6275.43
6276.54
5811.98
5811
5809.03
5806
5801.81
5796.57
5790.01
5782.07
5772.61
5761.51
5748.64
5733.84
5717.03
5698.24
5677.39
5654.34
5629.26
5602.25
5573.54
5543.37
5512.07
5480.08
5447.92
5416.19
5385.59
5356.87
5330.76
5307.98
5289.15
5274.71
5265.05
5260.03
5259.35
5262.46
5268.53
5276.48
5285.03
5292.86
5298.77
5301.78
5301.43
5297.38
5290.05
5280.2
5268.94
5257.64
5247.73
5240.52
5237.15
5238.47
5245.08
5257.28
5274.8
5297.11
5323.45
5352.93
5384.58
5417.5
5450.86
5483.98
5516.28
5547.36
5576.89
5604.64
5630.47
5654.27
5675.97
5695.58
5713.07
5728.51
5742.09
5753.85
5763.91
5772.37
5779.38
5785.05
5789.53
5792.76
5794.86
5795.9
5331.81
5330.93
5329.15
5326.41
5322.68
5317.69
5311.54
5304.02
5294.96
5284.17
5271.48
5256.71
5239.69
5220.27
5199.07
5174.91
5148.44
5119.69
5088.86
5056.2
5022.06
4986.9
4951.29
4915.94
4881.7
4849.47
4820.21
4794.82
4774.1
4758.68
4749.28
4745.59
4747.32
4753.82
4764.05
4776.59
4789.73
4801.66
4810.74
4815.63
4815.67
4810.38
4800.34
4786.55
4770.54
4754.13
4739.28
4727.73
4720.95
4720
4725.57
4738.54
4757.97
4783.22
4813.26
4846.87
4882.78
4919.85
4957.07
4993.64
5028.95
5062.59
5094.26
5123.76
5150.97
5175.82
5198.24
5218.32
5236.08
5251.61
5265.06
5276.56
5286.28
5294.36
5300.97
5306.3
5310.44
5313.41
5315.34
5316.29
4852.51
4851.75
4850.21
4847.81
4844.47
4840.03
4834.41
4827.48
4818.98
4808.68
4796.35
4781.75
4764.67
4744.94
4722.56
4697.61
4669.7
4638.99
4605.75
4570.23
4532.76
4493.82
4454.04
4414.23
4375.41
4338.71
4305.37
4276.56
4253.31
4236.25
4227.23
4225.11
4229.87
4240.76
4256.52
4275.28
4294.68
4312.22
4325.65
4333.11
4333.71
4326.81
4313.15
4294.06
4271.62
4248.33
4226.85
4209.54
4198.28
4194.49
4198.81
4212.89
4234.92
4264.14
4299.1
4338.11
4379.47
4421.7
4463.59
4504.23
4543.03
4579.56
4613.59
4644.99
4673.68
4699.56
4722.78
4743.32
4761.27
4776.74
4789.93
4801.03
4810.26
4817.81
4823.83
4828.78
4832.46
4835.1
4836.79
4837.62
4373.96
4373.35
4372.09
4370.12
4367.33
4363.56
4358.55
4352.48
4344.76
4335.17
4323.41
4309.18
4292.17
4272.15
4248.96
4222.47
4193.49
4160.53
4124.59
4085.82
4044.5
4001.09
3956.28
3910.99
3866.44
3824.05
3785.41
3752.12
3725.69
3707.51
3697.48
3696.93
3705.36
3721.89
3745
3772.2
3800.21
3825.45
3844.81
3855.81
3857.24
3848.19
3829.68
3803.43
3772.29
3739.69
3709.3
3684.36
3667.34
3660.11
3664.17
3678.67
3704.1
3738.73
3780.33
3826.44
3874.76
3923.37
3970.86
4016.27
4059
4098.71
4135.29
4168.68
4198.84
4225.91
4249.88
4270.82
4288.83
4304.08
4316.82
4327.33
4335.88
4342.78
4348.33
4352.43
4355.52
4357.71
4359.09
4359.76
3896
3895.56
3894.66
3893.23
3891.14
3888.25
3884.43
3879.09
3872.34
3863.74
3852.85
3839.25
3822.53
3802.33
3778.46
3750.84
3719.6
3684.64
3645.82
3603.45
3557.74
3509.09
3458.23
3406.21
3354.49
3304.84
3259.29
3219.96
3188.89
3167.74
3157.19
3158.56
3171.4
3195.11
3228.03
3266.87
3306.81
3342.66
3370.01
3385.87
3388.36
3376.55
3351.63
3315.81
3272.8
3227.45
3185.01
3149.94
3125.29
3113.21
3115.8
3132.75
3163.42
3205.69
3256.34
3311.81
3368.96
3425.41
3479.56
3530.42
3577.5
3620.6
3659.8
3695.18
3726.92
3755.14
3779.84
3801.1
3819.02
3833.84
3845.88
3855.51
3863.12
3869.08
3873.69
3877.05
3879.46
3881.09
3882.09
3882.55
3418.44
3418.21
3417.74
3416.94
3415.7
3413.82
3411.08
3407.1
3401.7
3394.48
3384.88
3372.29
3356.14
3335.93
3311.4
3282.49
3249.29
3211.8
3169.99
3123.72
3073.07
3018.34
2960.27
2900.06
2839.41
2780.55
2725.99
2678.53
2641.07
2615.71
2603.53
2606.98
2624.69
2657.27
2703.28
2758.14
2814.64
2865.12
2903.4
2925.81
2929.78
2914.32
2880.89
2832.15
2772.92
2710.11
2651.48
2603.22
2568.92
2550.05
2551.94
2572.27
2610.34
2663.45
2726.64
2794.46
2862.77
2928.72
2990.61
3047.58
3099.3
3145.85
3187.58
3224.94
3258.24
3287.6
3313.01
3334.49
3352.14
3366.25
3377.24
3385.64
3391.92
3396.77
3400.21
3402.58
3404.14
3405.07
3405.58
3405.79
2941.06
2941.07
2941.09
2941.06
2940.83
2940.18
2938.85
2936.53
2932.79
2927.47
2919.69
2908.67
2893.51
2873.49
2848.27
2817.93
2782.69
2742.67
2697.76
2647.51
2591.44
2529.69
2463.15
2392.99
2321.07
2250.29
2183.73
2125.26
2079.19
2048.1
2031.6
2037.92
2059.67
2103.35
2168.16
2246.41
2326.15
2396.1
2448.53
2479.33
2485.44
2465.05
2420.77
2355.43
2274.38
2186.9
2105.1
2038.97
1993.43
1963.58
1966.37
1991.43
2039.51
2108.32
2189.79
2274.71
2357.4
2434.71
2505.39
2569.04
2625.5
2675.21
2719.18
2758.32
2793.08
2823.61
2849.78
2871.43
2888.58
2901.58
2911.07
2917.78
2922.57
2925.69
2927.72
2928.88
2929.39
2929.45
2929.32
2929.19
2463.63
2463.86
2464.42
2465.3
2466.3
2467.13
2467.49
2467.11
2465.71
2462.7
2457.51
2448.87
2435.36
2415.78
2389.74
2357.65
2320.25
2277.83
2229.95
2176
2114.1
2044.23
1967.53
1884.83
1798.17
1712.19
1629.86
1556.28
1499.58
1463.96
1448.35
1448.27
1465.32
1520.56
1611.36
1723.59
1837.91
1936.11
2008.23
2050.19
2059.35
2032.62
1973.88
1885.32
1772.72
1649.28
1535.37
1447.48
1397.76
1370.08
1360.67
1388.15
1447.65
1536.96
1644.2
1752.7
1854.4
1945.35
2025.63
2096.37
2157.38
2209.43
2255.2
2295.64
2331.69
2363.52
2390.67
2412.53
2428.88
2440.2
2447.48
2451.73
2454.32
2455.58
2455.99
2455.75
2455.01
2453.98
2453
2452.42
1985.91
1986.3
1987.39
1989.36
1991.89
1994.48
1996.78
1998.62
1999.9
2000.15
1998.49
1993.52
1982.68
1963.78
1936.4
1901.82
1861.82
1817.17
1766.98
1709.14
1641.72
1561.91
1472.37
1373.77
1269.19
1167.3
1063.87
965.579
892.026
851.176
842.322
841.408
839.454
911.925
1044.53
1202.43
1357.57
1487.94
1584.62
1641.35
1654.17
1619.3
1541.74
1425.69
1278.04
1110.5
949.559
822.175
771.99
715.57
697.655
740.569
827.446
949.949
1097.75
1232.43
1355.28
1461.79
1552.37
1630.47
1694.8
1749.08
1795.45
1836.52
1873.85
1907.47
1936.23
1958.58
1973.79
1982.6
1986.81
1987.82
1987.32
1986.26
1984.85
1983.07
1980.87
1978.42
1976.24
1975.01
1507.64
1507.88
1509.34
1512.68
1517.19
1521.87
1526.2
1530.28
1534.46
1538.77
1542.11
1543.22
1537.06
1519.03
1488.86
1449.93
1406.48
1360.28
1309.37
1248.29
1175.93
1082.61
979.323
860.769
736.487
622.775
494.643
369.569
273.339
211.667
179.191
171.85
174.424
247.567
423.769
650.641
881.368
1050.95
1175.76
1252.03
1270.33
1223.57
1121.57
973.527
776.943
523.192
317.43
175.087
137.625
120.898
113.569
131.521
192.564
361.509
575.833
731.746
866.482
985.166
1084.88
1172.09
1240.32
1294.8
1339.74
1380.04
1418.63
1455.22
1487.18
1510.85
1524.32
1528.98
1527.71
1524.35
1520.46
1516.96
1513.81
1510.58
1506.8
1502.42
1498.4
1496.22
1029.11
1028.3
1029.55
1034.93
1042.4
1049.61
1055.84
1061.81
1068.9
1078.56
1090.76
1099.29
1101.8
1083.95
1047.52
1001.34
954.475
910.351
865.06
805.865
721.074
615.168
509.621
374.798
241.084
171.122
98.6248
40.5172
13.1726
4.14142
-0.889767
-4.13534
-3.99462
10.3548
65.2698
200.516
446.522
641.061
793.146
888.743
913.748
856.044
733.241
558.907
352.613
112.786
27.8302
1.38012
-2.84952
-2.06026
-1.0585
0.0330245
2.34112
27.8445
159.704
280.967
420.178
537.558
628.044
726.67
803.163
853.868
891.175
926.47
964.993
1005.82
1044.23
1071.66
1082.69
1081.37
1072.26
1061.56
1053.23
1047.33
1042.85
1038.64
1033.33
1026.18
1018.87
1015.23
551.016
546.467
545.574
554.919
567.632
578.151
585.603
592.141
600.884
616.428
642.793
673.901
686.216
668.982
620.574
558.622
505.244
467.77
438.755
388.541
298.11
209.899
158.001
81.9222
3.33198
-6.26703
-6.12007
-6.48817
-6.35124
-5.62573
-5.09342
-5.11179
-4.22355
-1.9961
5.79616
36.071
148.587
322.157
478.144
581.365
608.286
549.565
428.814
251.694
84.9804
19.9868
1.80113
-1.24624
-3.29491
-3.71764
-3.56163
-3.40297
-4.45099
-6.58553
-4.16732
22.9876
121.261
190.883
228.693
301.987
387.465
432.058
451.88
475.327
513.64
563.773
615.105
649.107
652.754
644.94
618.469
596.288
583.441
576.231
571.628
567.803
561.615
549.948
535.517
529.704
182.268
168.183
156.933
167.564
185.254
197.134
202.076
204.4
207.402
219.31
255.401
320.137
372.682
357.238
277.985
191.422
140.491
118.018
109.877
97.1927
48.2756
-4.83577
-9.18749
-9.54726
-10.5046
-10.1344
-8.80147
-8.37636
-8.0007
-7.55594
-7.33075
-7.30533
-6.81087
-5.18214
-1.20993
3.55115
25.4407
126.347
256.801
356.551
382.48
329.665
214.96
75.5605
5.82277
1.89528
-2.509
-4.77239
-5.58751
-5.745
-5.79136
-6.08773
-7.13374
-9.22961
-12.8513
-13.7696
-10.799
-1.89742
12.6355
49.4005
93.7563
107.487
113.345
124.11
151.826
205.511
280.914
333.532
331.919
283.182
230.946
201.094
191.526
188.305
186.573
186.407
183.351
169.233
154.869
161.661
22.442
10.3243
7.36931
15.211
28.2959
33.1644
30.6534
28.4475
27.6889
30.7049
37.8559
64.6382
98.0589
103.517
59.1721
13.9103
-2.82965
-8.22395
-10.3643
-10.8644
-11.2056
-12.1863
-11.1666
-10.8398
-10.5447
-10.4529
-10.1607
-9.86287
-9.57775
-9.24282
-9.00995
-8.87369
-8.5793
-7.94554
-7.38159
-8.47135
-8.78411
35.9116
125.369
215.177
238.485
195.977
99.3586
26.0903
-10.9802
-8.72664
-7.34226
-7.25164
-7.41909
-7.587
-7.80869
-8.24141
-9.0514
-10.3777
-11.6977
-12.1684
-11.4483
-10.8469
-10.5907
-10.502
-10.4661
-9.80696
-6.31095
-3.5514
1.56686
17.4382
55.6647
86.6926
79.7877
52.8047
26.6224
19.1752
16.8034
16.1188
20.6118
29.9886
29.8261
14.5215
3.35121
11.2245
36.5389
14.3868
-3.68067
-9.38863
-10.8934
-11.5423
-12.0893
-10.6852
-5.80852
-4.75746
-8.82983
-10.6199
-10.9017
-11.0092
-11.0098
-10.939
-10.799
-10.7297
-10.8242
-11.1145
-11.5562
-11.9582
-11.6668
-11.5119
-11.3515
-11.1886
-11.1708
-11.1461
-11.0929
-11.0257
-10.9759
-10.8995
-10.6739
-10.3723
-10.5022
-11.9058
-13.653
14.9109
57.7884
125.971
148.656
107.794
35.6244
8.70042
-15.7954
-12.4075
-10.4303
-9.76699
-9.69276
-9.84564
-10.0719
-10.3769
-10.7964
-11.3044
-11.7679
-11.9316
-11.5936
-11.2515
-11.0665
-10.9553
-10.9179
-10.9681
-11.021
-11.1149
-11.2299
-11.4321
-11.6357
-11.7481
-11.7059
-11.3518
-10.8798
-9.24107
-8.11086
-10.0873
-11.0248
-9.96124
-9.05228
-5.14562
2.42904
17.7099
32.2467
6.03635
-6.04867
-11.0411
-13.4343
-14.3622
-14.5941
-14.3088
-13.6347
-12.8949
-12.2454
-11.8335
-11.7251
-11.6703
-11.6023
-11.4616
-11.3078
-11.2397
-11.2525
-11.3637
-11.5811
-11.7281
-11.7462
-11.8161
-11.9899
-12.1228
-12.2753
-12.4639
-12.6786
-12.8772
-12.9927
-12.9356
-12.694
-12.361
-12.1947
-12.3097
-12.6586
-12.0599
55.8697
104.513
118.134
86.9836
69.1769
-13.0306
-13.9125
-12.8996
-12.2208
-11.8966
-11.9445
-12.1948
-12.4405
-12.5873
-12.5977
-12.5371
-12.4494
-12.1977
-11.8037
-11.4444
-11.2525
-11.2841
-11.3326
-11.4221
-11.5377
-11.644
-11.7694
-11.9443
-12.1431
-12.291
-12.3204
-12.2142
-12.2532
-12.785
-13.2978
-13.6513
-13.5556
-12.9285
-11.2122
-7.06746
-1.28151
8.70434
10.6439
-5.50449
-10.5162
-13.4499
-15.1553
-15.8041
-15.7518
-15.2099
-14.3879
-13.5225
-12.8176
-12.3998
-12.2146
-12.1132
-12.0239
-11.9074
-11.7727
-11.6543
-11.5674
-11.5536
-11.6462
-11.7773
-11.927
-12.2263
-12.6685
-13.1052
-13.4576
-13.7696
-14.1318
-14.5099
-14.738
-14.7085
-14.3963
-13.8067
-13.1026
-12.6085
-12.2994
-11.6643
-10.3839
22.3594
81.6594
40.0438
-10.4963
-12.2792
-12.8547
-13.093
-13.1951
-13.4306
-13.9234
-14.4864
-14.8116
-14.8201
-14.4755
-13.9486
-13.419
-12.8884
-12.4123
-12.1162
-11.9615
-11.8288
-11.8216
-11.8887
-11.9925
-12.1116
-12.2425
-12.3906
-12.5459
-12.6729
-12.7242
-12.7193
-12.857
-13.3194
-13.949
-14.4957
-14.7174
-14.3319
-12.9676
-10.2894
-7.21577
-1.21497
-5.87762
-12.2566
-14.4753
-16.1977
-17.0442
-17.1242
-16.6888
-15.9068
-14.9886
-14.1337
-13.4739
-13.0546
-12.8185
-12.6719
-12.5489
-12.4136
-12.2617
-12.102
-11.9449
-11.8157
-11.7889
-11.9274
-12.2367
-12.792
-13.5122
-14.1993
-14.7236
-15.1168
-15.5051
-15.8967
-16.1545
-16.1581
-15.7601
-14.9311
-13.8994
-12.9801
-12.3355
-11.6812
-10.7677
-10.0834
-9.70863
-9.98884
-10.6768
-11.8083
-12.7035
-13.3572
-13.8455
-14.6048
-15.6398
-16.5275
-16.8855
-16.7214
-16.199
-15.4031
-14.6042
-13.8685
-13.3437
-13.0232
-12.6719
-12.3497
-12.2436
-12.2935
-12.4165
-12.5597
-12.7081
-12.8599
-13.009
-13.1405
-13.2453
-13.3602
-13.5935
-14.0348
-14.6417
-15.2784
-15.7341
-15.7232
-15.0031
-13.3658
-11.9043
-8.2177
-13.2725
-16.6343
-17.5294
-18.4755
-18.559
-18.1181
-17.3408
-16.3952
-15.4605
-14.6555
-14.053
-13.6495
-13.3911
-13.2137
-13.0685
-12.9275
-12.7822
-12.637
-12.4943
-12.3711
-12.3123
-12.4183
-12.7876
-13.4574
-14.3482
-15.2051
-15.8336
-16.2952
-16.7225
-17.1195
-17.3396
-17.2359
-16.7041
-15.7937
-14.6989
-13.6876
-12.9482
-12.2505
-11.5561
-10.9565
-10.6757
-10.8991
-11.531
-12.4128
-13.3111
-13.9744
-14.565
-15.5837
-16.8583
-17.9213
-18.4462
-18.2182
-17.5642
-16.6537
-15.7131
-14.8395
-14.1141
-13.5872
-13.131
-12.8111
-12.7038
-12.7403
-12.8633
-13.0087
-13.1599
-13.3119
-13.4625
-13.6104
-13.7625
-13.9542
-14.2535
-14.7233
-15.3751
-16.1532
-16.8782
-17.2258
-16.9278
-15.7022
-14.7286
-12.2986
-15.0134
-18.8708
-19.5177
-19.9775
-19.4281
-18.6058
-17.6234
-16.635
-15.7667
-15.0703
-14.5528
-14.1892
-13.9366
-13.7528
-13.6035
-13.4702
-13.345
-13.228
-13.1244
-13.0511
-13.0441
-13.1734
-13.5422
-14.1863
-15.0417
-15.8803
-16.5233
-17.0104
-17.4496
-17.8007
-17.9382
-17.8155
-17.3703
-16.5768
-15.5493
-14.5799
-13.754
-13.0799
-12.5157
-12.0498
-11.8457
-12.0161
-12.5388
-13.2859
-14.072
-14.7401
-15.4796
-16.5658
-17.7843
-18.7578
-19.2534
-19.1521
-18.4936
-17.5432
-16.4958
-15.4794
-14.5632
-13.9246
-13.5104
-13.2925
-13.2049
-13.2442
-13.3611
-13.495
-13.6332
-13.7762
-13.9237
-14.0802
-14.2589
-14.4891
-14.824
-15.3227
-16.042
-17.0019
-18.063
-18.7687
-18.7379
-17.6047
-16.6195
-13.8542
-14.8968
-18.4135
-19.9025
-20.1664
-19.4933
-18.516
-17.5224
-16.6532
-15.9451
-15.3932
-14.9779
-14.6721
-14.4464
-14.2741
-14.135
-14.016
-13.9127
-13.8267
-13.7639
-13.7392
-13.7823
-13.9406
-14.2781
-14.8222
-15.5237
-16.2333
-16.8368
-17.3253
-17.7206
-17.999
-18.1097
-18.0425
-17.7934
-17.2887
-16.4206
-15.5559
-14.7711
-14.0652
-13.5464
-13.1836
-13.0114
-13.1641
-13.602
-14.2498
-14.9288
-15.6074
-16.4137
-17.4824
-18.5788
-19.2809
-19.648
-19.5974
-19.0501
-18.1072
-17.0183
-15.9105
-14.9899
-14.3754
-14.0374
-13.8595
-13.7632
-13.7956
-13.8849
-13.9938
-14.1137
-14.2422
-14.3805
-14.534
-14.7175
-14.9508
-15.2867
-15.7837
-16.5369
-17.6428
-19.0711
-20.1932
-20.4313
-19.3194
-18.1246
-14.2388
-14.804
-16.6044
-18.3233
-18.8547
-18.479
-17.8063
-17.1234
-16.5364
-16.0531
-15.6633
-15.3556
-15.1158
-14.9287
-14.7802
-14.6593
-14.5591
-14.4774
-14.4175
-14.3855
-14.3937
-14.4614
-14.6201
-14.9035
-15.3223
-15.8496
-16.4097
-16.9295
-17.3737
-17.7253
-17.9657
-18.0834
-18.0746
-17.9745
-17.7574
-17.2068
-16.4745
-15.7658
-15.1218
-14.5918
-14.2526
-14.0979
-14.2257
-14.6196
-15.1943
-15.8304
-16.5365
-17.3233
-18.2526
-19.001
-19.4813
-19.7934
-19.7554
-19.2878
-18.4043
-17.393
-16.4465
-15.6334
-15.0666
-14.7031
-14.463
-14.3652
-14.3675
-14.4221
-14.5033
-14.6007
-14.7105
-14.8329
-14.9703
-15.1367
-15.35
-15.6467
-16.0859
-16.7831
-17.9205
-19.4977
-20.8675
-21.3145
-20.1709
-18.2647
-15.2
-15.2073
-15.5923
-16.4346
-17.059
-17.1818
-17.0102
-16.7322
-16.4414
-16.1694
-15.9259
-15.7161
-15.5402
-15.3949
-15.2751
-15.1765
-15.0967
-15.0358
-14.997
-14.9858
-15.0118
-15.0876
-15.2292
-15.4537
-15.7673
-16.154
-16.5731
-16.9808
-17.3459
-17.6475
-17.8692
-17.9993
-18.0486
-18.038
-17.979
-17.7668
-17.2477
-16.6153
-16.0517
-15.5548
-15.1799
-15.0268
-15.1243
-15.5088
-16.0654
-16.7466
-17.4223
-18.0568
-18.6835
-19.0758
-19.447
-19.7024
-19.6653
-19.2522
-18.5068
-17.6744
-16.9756
-16.2931
-15.7219
-15.3175
-15.0763
-14.965
-14.9394
-14.9653
-15.0205
-15.0944
-15.1825
-15.283
-15.3978
-15.5342
-15.705
-15.9325
-16.2577
-16.7721
-17.6366
-18.8979
-20.1205
-20.5703
-19.3441
-17.1079
-15.5419
-15.6548
-15.5377
-15.6815
-16.0922
-16.4264
-16.5665
-16.5567
-16.4666
-16.3451
-16.2107
-16.079
-15.9585
-15.8526
-15.7619
-15.6865
-15.6267
-15.5843
-15.5621
-15.5651
-15.6001
-15.6752
-15.7992
-15.9797
-16.2182
-16.5048
-16.8158
-17.1243
-17.4088
-17.6534
-17.8469
-17.9815
-18.058
-18.0899
-18.1005
-18.0475
-17.8081
-17.3366
-16.7864
-16.3239
-15.9089
-15.7366
-15.8107
-16.158
-16.7138
-17.374
-17.9786
-18.4267
-18.7482
-18.9886
-19.233
-19.3822
-19.3094
-18.9794
-18.4223
-17.8038
-17.2602
-16.7169
-16.226
-15.8745
-15.6572
-15.545
-15.5035
-15.5085
-15.5415
-15.5923
-15.6575
-15.7342
-15.8219
-15.9234
-16.044
-16.1927
-16.3867
-16.6686
-17.1104
-17.7177
-18.2649
-18.3366
-17.459
-16.3016
-15.9393
-16.014
-15.8227
-15.7687
-16.0007
-16.3029
-16.5129
-16.6111
-16.6287
-16.592
-16.5294
-16.455
-16.3789
-16.307
-16.2428
-16.1889
-16.1473
-16.1203
-16.1108
-16.123
-16.1617
-16.2323
-16.34
-16.4878
-16.6747
-16.8929
-17.1279
-17.362
-17.5801
-17.7704
-17.9259
-18.0424
-18.1175
-18.1561
-18.1804
-18.1808
-18.0793
-17.757
-17.2955
-16.845
-16.4131
-16.2088
-16.2544
-16.5393
-17.0485
-17.6154
-18.122
-18.4565
-18.649
-18.814
-18.9566
-19.0039
-18.8979
-18.6423
-18.2546
-17.8231
-17.4051
-16.9966
-16.6405
-16.3764
-16.2036
-16.1032
-16.055
-16.0439
-16.058
-16.0896
-16.1339
-16.1877
-16.2488
-16.3165
-16.3908
-16.4715
-16.5601
-16.6614
-16.7743
-16.873
-16.8116
-16.571
-16.3485
-16.373
-16.4207
-16.3541
-16.2048
-16.167
-16.3092
-16.5265
-16.7122
-16.8311
-16.8891
-16.9011
-16.8836
-16.8488
-16.8058
-16.7612
-16.7195
-16.6841
-16.6578
-16.6431
-16.643
-16.6607
-16.6998
-16.7639
-16.8558
-16.9767
-17.1248
-17.2939
-17.474
-17.653
-17.8195
-17.9642
-18.0815
-18.1687
-18.2239
-18.2461
-18.2453
-18.2334
-18.1517
-17.9243
-17.5648
-17.1385
-16.7321
-16.5164
-16.5324
-16.7385
-17.1483
-17.6232
-18.0427
-18.3275
-18.5116
-18.6568
-18.7481
-18.7492
-18.6472
-18.4527
-18.1867
-17.8888
-17.5886
-17.2998
-17.0504
-16.859
-16.7241
-16.637
-16.5877
-16.5674
-16.5681
-16.584
-16.6105
-16.6441
-16.6819
-16.7211
-16.7584
-16.789
-16.8112
-16.8158
-16.7921
-16.6728
-16.4512
-16.2103
-16.231
-16.5758
-16.7574
-16.7537
-16.6657
-16.6569
-16.7527
-16.9041
-17.0492
-17.1581
-17.2267
-17.2608
-17.2692
-17.2602
-17.2409
-17.2171
-17.1933
-17.1729
-17.1588
-17.1537
-17.1602
-17.1809
-17.2185
-17.2753
-17.3527
-17.4509
-17.5681
-17.6995
-17.8377
-17.9743
-18.1004
-18.2082
-18.2921
-18.3482
-18.372
-18.3631
-18.3322
-18.2793
-18.1791
-17.9834
-17.6835
-17.3151
-16.9726
-16.7867
-16.7849
-16.9239
-17.2221
-17.5932
-17.9439
-18.2189
-18.4282
-18.582
-18.663
-18.665
-18.593
-18.457
-18.2763
-18.0708
-17.8587
-17.6552
-17.4766
-17.3329
-17.2252
-17.1504
-17.1033
-17.0784
-17.0702
-17.0742
-17.0865
-17.1037
-17.1225
-17.1397
-17.1517
-17.1537
-17.1351
-17.0912
-17.0082
-16.8647
-16.6747
-16.5241
-16.5689
-16.8061
-16.9729
-17.213
-17.1687
-17.174
-17.2429
-17.3499
-17.4594
-17.5505
-17.6168
-17.6589
-17.6808
-17.6876
-17.6845
-17.6758
-17.6654
-17.6566
-17.6519
-17.654
-17.665
-17.6871
-17.7221
-17.7715
-17.8361
-17.9155
-18.0079
-18.1095
-18.2149
-18.3178
-18.4114
-18.4891
-18.5455
-18.5762
-18.5768
-18.5449
-18.482
-18.3894
-18.2574
-18.0634
-17.8053
-17.5119
-17.2552
-17.1228
-17.1194
-17.2176
-17.4265
-17.7051
-17.9957
-18.2557
-18.4693
-18.6227
-18.7054
-18.7227
-18.6842
-18.5983
-18.4773
-18.3354
-18.1855
-18.0395
-17.9081
-17.7981
-17.712
-17.6486
-17.6053
-17.5785
-17.5646
-17.56
-17.5615
-17.566
-17.5704
-17.5714
-17.5653
-17.5475
-17.5115
-17.4519
-17.3622
-17.2389
-17.1002
-17.0055
-17.0285
-17.147
-17.2504
-17.7054
-17.6842
-17.6966
-17.749
-17.8264
-17.9089
-17.9828
-18.0419
-18.0847
-18.1127
-18.1286
-18.1358
-18.1375
-18.1369
-18.1366
-18.139
-18.1462
-18.1601
-18.1824
-18.2143
-18.2568
-18.3103
-18.3741
-18.4465
-18.5246
-18.6042
-18.6803
-18.7477
-18.801
-18.8354
-18.8466
-18.8303
-18.7838
-18.7059
-18.5952
-18.4473
-18.2573
-18.0355
-17.8125
-17.6378
-17.5561
-17.559
-17.6336
-17.7819
-17.989
-18.2217
-18.4458
-18.637
-18.7769
-18.8588
-18.8892
-18.8758
-18.8256
-18.7467
-18.6497
-18.544
-18.4388
-18.3416
-18.2575
-18.1888
-18.1357
-18.0968
-18.0699
-18.0526
-18.0421
-18.0358
-18.031
-18.025
-18.015
-17.9977
-17.9697
-17.927
-17.8663
-17.7859
-17.6887
-17.5896
-17.523
-17.5262
-17.5819
-17.6468
-18.2123
-18.2028
-18.218
-18.259
-18.3167
-18.3796
-18.439
-18.4899
-18.5301
-18.5599
-18.5804
-18.5938
-18.6024
-18.6085
-18.6142
-18.6216
-18.6323
-18.6478
-18.6694
-18.6982
-18.7345
-18.7786
-18.8296
-18.8859
-18.9454
-19.0046
-19.0597
-19.1066
-19.1408
-19.1586
-19.1559
-19.129
-19.0761
-18.9961
-18.8863
-18.7439
-18.5719
-18.3885
-18.2237
-18.1101
-18.0614
-18.0699
-18.1264
-18.235
-18.3885
-18.5682
-18.7479
-18.9052
-19.0245
-19.1009
-19.138
-19.1409
-19.1145
-19.0651
-18.9999
-18.9262
-18.8506
-18.7786
-18.7143
-18.6597
-18.6154
-18.5809
-18.5549
-18.5358
-18.5214
-18.5097
-18.4986
-18.4857
-18.4686
-18.4451
-18.4128
-18.3693
-18.3134
-18.2456
-18.1702
-18.0984
-18.0492
-18.0412
-18.0673
-18.1004
-18.7244
-18.7209
-18.7361
-18.7688
-18.8128
-18.8616
-18.9095
-18.9527
-18.9891
-19.0183
-19.0407
-19.0575
-19.0704
-19.0808
-19.0906
-19.1012
-19.114
-19.1302
-19.1507
-19.1763
-19.2071
-19.2432
-19.2837
-19.3273
-19.3721
-19.4155
-19.4544
-19.4856
-19.5056
-19.5113
-19.4995
-19.4674
-19.4139
-19.3391
-19.2408
-19.117
-18.9733
-18.8288
-18.7086
-18.6326
-18.5995
-18.6089
-18.651
-18.7325
-18.8467
-18.9824
-19.1207
-19.2445
-19.3425
-19.4104
-19.4491
-19.4612
-19.4503
-19.421
-19.3782
-19.3274
-19.2732
-19.2199
-19.1706
-19.1271
-19.0903
-19.06
-19.0355
-19.0156
-18.999
-18.9839
-18.9687
-18.9515
-18.9305
-18.9041
-18.8708
-18.8295
-18.7801
-18.7239
-18.6651
-18.6111
-18.5726
-18.5587
-18.5671
-18.5849
-19.2372
-19.2366
-19.2506
-19.2768
-19.3112
-19.3497
-19.3886
-19.4251
-19.4574
-19.4849
-19.5074
-19.5258
-19.5409
-19.554
-19.5663
-19.5788
-19.5928
-19.609
-19.6281
-19.6506
-19.6767
-19.706
-19.738
-19.7714
-19.8048
-19.836
-19.8626
-19.8822
-19.892
-19.8895
-19.8725
-19.8389
-19.7885
-19.7219
-19.6385
-19.5373
-19.4239
-19.314
-19.2258
-19.1711
-19.145
-19.1518
-19.1821
-19.2435
-19.3288
-19.4304
-19.5351
-19.6313
-19.7105
-19.7689
-19.8059
-19.8227
-19.8215
-19.8055
-19.7783
-19.7436
-19.705
-19.6656
-19.6277
-19.5931
-19.5624
-19.5359
-19.5131
-19.4933
-19.4755
-19.4585
-19.441
-19.4215
-19.3989
-19.3718
-19.3394
-19.3016
-19.2586
-19.2121
-19.1653
-19.1231
-19.0917
-19.0756
-19.0748
-19.0841
-19.7485
-19.7494
-19.7617
-19.7829
-19.8103
-19.8411
-19.873
-19.9038
-19.9322
-19.9573
-19.9791
-19.9977
-20.0139
-20.0282
-20.0418
-20.0554
-20.0697
-20.0854
-20.1029
-20.1226
-20.1445
-20.1684
-20.1935
-20.2189
-20.2434
-20.2652
-20.2827
-20.2939
-20.2966
-20.2891
-20.2697
-20.2371
-20.1914
-20.1338
-20.0646
-19.9842
-19.8973
-19.8148
-19.7492
-19.7071
-19.6859
-19.6883
-19.7096
-19.7556
-19.8195
-19.8957
-19.9751
-20.0497
-20.1133
-20.1626
-20.1964
-20.2148
-20.2193
-20.212
-20.1954
-20.1721
-20.1447
-20.1155
-20.0864
-20.0587
-20.0331
-20.01
-19.9891
-19.9699
-19.9519
-19.934
-19.9154
-19.8951
-19.8722
-19.8457
-19.8155
-19.7814
-19.7442
-19.7055
-19.6675
-19.6336
-19.6073
-19.5912
-19.5861
-19.5905
-20.2577
-20.2592
-20.2698
-20.2871
-20.3091
-20.3342
-20.3605
-20.3866
-20.4114
-20.4341
-20.4545
-20.4727
-20.4889
-20.5037
-20.5177
-20.5315
-20.5456
-20.5605
-20.5764
-20.5935
-20.6118
-20.6311
-20.6507
-20.6699
-20.6876
-20.7025
-20.7133
-20.7185
-20.7165
-20.7061
-20.6861
-20.6559
-20.6157
-20.5666
-20.5096
-20.4461
-20.3797
-20.3174
-20.2678
-20.2341
-20.2172
-20.2159
-20.2311
-20.2654
-20.3136
-20.3711
-20.4317
-20.4898
-20.5408
-20.5819
-20.6117
-20.63
-20.6375
-20.6356
-20.626
-20.6106
-20.5913
-20.5697
-20.5472
-20.525
-20.5036
-20.4834
-20.4643
-20.4462
-20.4284
-20.4105
-20.3918
-20.3716
-20.3492
-20.3243
-20.2965
-20.2663
-20.2342
-20.2016
-20.1703
-20.1424
-20.1201
-20.105
-20.0982
-20.0999
-20.7646
-20.7664
-20.7752
-20.7894
-20.8074
-20.828
-20.8499
-20.8721
-20.8937
-20.9141
-20.9328
-20.95
-20.9658
-20.9804
-20.9943
-21.0078
-21.0213
-21.035
-21.0493
-21.0642
-21.0795
-21.095
-21.1102
-21.1245
-21.1371
-21.1469
-21.1528
-21.1539
-21.149
-21.1372
-21.1178
-21.0904
-21.0556
-21.0141
-20.9673
-20.9168
-20.8655
-20.8177
-20.7798
-20.752
-20.7391
-20.7356
-20.747
-20.7727
-20.8094
-20.8531
-20.8997
-20.945
-20.9858
-21.0196
-21.0453
-21.0624
-21.0712
-21.0725
-21.0675
-21.0575
-21.0439
-21.0278
-21.0104
-20.9924
-20.9744
-20.9568
-20.9396
-20.9226
-20.9056
-20.8882
-20.87
-20.8505
-20.8293
-20.8062
-20.7811
-20.7544
-20.7267
-20.6991
-20.6729
-20.6496
-20.6306
-20.617
-20.6098
-20.6099
-21.2693
-21.271
-21.2785
-21.2902
-21.305
-21.3221
-21.3405
-21.3595
-21.3782
-21.3963
-21.4134
-21.4293
-21.4442
-21.4582
-21.4715
-21.4844
-21.4971
-21.5097
-21.5224
-21.5352
-21.548