/*--------------------------------*- C++ -*----------------------------------*\
| =========                 |                                                 |
| \\      /  F ield         | OpenFOAM: The Open Source CFD Toolbox           |
|  \\    /   O peration     | Version:  2412                                  |
|   \\  /    A nd           | Website:  www.openfoam.com                      |
|    \\/     M anipulation  |                                                 |
\*---------------------------------------------------------------------------*/
FoamFile
{
    version     2.0;
    format      ascii;
    arch        "LSB;label=32;scalar=64";
    class       surfaceScalarField;
    location    "0.56";
    object      alphaPhi0.water;
}
// * * * * * * * * * * * * * * * * * * * * * * * * * * * * * * * * * * * * * //

dimensions      [0 3 -1 0 0 0 0];

oriented        oriented;

internalField   nonuniform List<scalar> 
158920
(
7.21781e-08
-7.21769e-08
9.47143e-09
-1.30206e-07
-2.61195e-08
-1.31843e-07
-3.9244e-08
-1.13439e-07
-4.17017e-08
-8.9632e-08
-3.80507e-08
-6.89524e-08
-3.20138e-08
-5.14256e-08
-2.54531e-08
-3.75893e-08
-1.93595e-08
-2.69579e-08
-1.41404e-08
-1.89581e-08
-9.69495e-09
-1.32057e-08
-5.94059e-09
-9.03381e-09
-2.97061e-09
-5.81164e-09
-6.43653e-10
-3.4612e-09
1.10446e-09
-1.69219e-09
2.31878e-09
-3.40106e-10
3.06144e-09
6.78005e-10
3.41362e-09
1.41307e-09
3.4506e-09
1.92125e-09
3.24872e-09
2.23884e-09
2.90384e-09
2.37497e-09
2.44883e-09
2.41549e-09
1.93296e-09
2.36247e-09
1.38186e-09
2.25481e-09
8.37838e-10
2.08828e-09
3.17344e-10
1.89872e-09
-1.56112e-10
1.68677e-09
-5.7309e-10
1.47219e-09
-9.2294e-10
1.25769e-09
-1.21863e-09
1.06924e-09
-1.44274e-09
8.77603e-10
-1.61074e-09
7.15803e-10
-1.72143e-09
5.66652e-10
-1.78534e-09
4.40955e-10
-1.80678e-09
3.31316e-10
-1.7944e-09
2.40796e-10
-1.75469e-09
1.65971e-10
-1.68633e-09
9.77888e-11
-1.61425e-09
6.13695e-11
-1.53937e-09
3.16536e-11
-1.46306e-09
8.20314e-12
-1.38819e-09
-8.30383e-12
-1.31813e-09
-1.79995e-11
-1.25507e-09
-2.26708e-11
-1.19895e-09
-2.50269e-11
-1.15299e-09
-2.22295e-11
-1.11699e-09
-1.80391e-11
-1.08896e-09
-1.4559e-11
-1.07037e-09
-8.60016e-12
-1.05839e-09
-4.63663e-12
-1.05334e-09
2.89624e-13
-1.05424e-09
4.73942e-12
-1.0615e-09
1.00074e-11
-1.07254e-09
1.29838e-11
-1.08753e-09
1.63675e-11
-1.10524e-09
1.86958e-11
-1.12525e-09
2.07207e-11
-1.14711e-09
2.23675e-11
-1.17077e-09
2.40464e-11
-1.19631e-09
2.58431e-11
-1.22378e-09
2.7707e-11
-1.25312e-09
2.95372e-11
-1.28432e-09
3.13803e-11
-1.31738e-09
3.32135e-11
-1.35219e-09
3.49671e-11
-1.38867e-09
3.66213e-11
-1.4266e-09
3.80649e-11
-1.46571e-09
3.92497e-11
-1.50576e-09
4.01761e-11
-1.54655e-09
4.0908e-11
-1.58791e-09
4.14599e-11
-1.62966e-09
4.18566e-11
-1.67172e-09
4.21425e-11
-1.71397e-09
4.23335e-11
-1.75637e-09
4.2475e-11
-1.79899e-09
4.268e-11
-1.84201e-09
4.30843e-11
-1.88578e-09
4.38226e-11
-1.93076e-09
4.50257e-11
-1.97729e-09
4.65792e-11
-2.02595e-09
4.86936e-11
-2.07673e-09
5.08082e-11
-2.12984e-09
5.31311e-11
-2.18511e-09
5.52769e-11
-2.24224e-09
5.71348e-11
-2.30095e-09
5.87064e-11
-2.36106e-09
6.00926e-11
-2.4225e-09
6.1426e-11
-2.48534e-09
6.28229e-11
-2.54973e-09
6.43785e-11
-2.6159e-09
6.61494e-11
-2.68397e-09
6.80491e-11
-2.75419e-09
7.01974e-11
-2.82654e-09
7.23309e-11
-2.90106e-09
7.44949e-11
-2.97766e-09
7.65755e-11
-3.05627e-09
7.85786e-11
-3.13682e-09
8.05134e-11
-3.21926e-09
8.23953e-11
-3.30359e-09
8.42922e-11
-3.38988e-09
8.62327e-11
-3.47822e-09
8.82902e-11
-3.56879e-09
9.05151e-11
-3.66177e-09
9.29279e-11
-3.75743e-09
9.56049e-11
-3.85604e-09
9.85527e-11
-3.95771e-09
1.01621e-10
-4.0627e-09
1.04935e-10
-4.17098e-09
1.0822e-10
-4.28242e-09
1.11396e-10
-4.39688e-09
1.14403e-10
-4.51422e-09
1.17287e-10
-4.63433e-09
1.20063e-10
-4.75721e-09
1.2283e-10
-4.88298e-09
1.25715e-10
-5.01188e-09
1.28839e-10
-5.14426e-09
1.32314e-10
-5.28049e-09
1.36165e-10
-5.4209e-09
1.40342e-10
-5.56571e-09
1.44734e-10
-5.71498e-09
1.49194e-10
-5.86867e-09
1.53598e-10
-6.02663e-09
1.5787e-10
-6.18873e-09
1.6201e-10
-6.3549e-09
1.66072e-10
-6.52517e-09
1.70164e-10
-6.6997e-09
1.74424e-10
-6.87879e-09
1.78983e-10
-7.06284e-09
1.83934e-10
-7.25227e-09
1.8932e-10
-7.44751e-09
1.95121e-10
-7.64889e-09
2.0126e-10
-7.85662e-09
2.07617e-10
-8.07082e-09
2.14079e-10
-8.29151e-09
2.20567e-10
-8.51867e-09
2.27039e-10
-8.75231e-09
2.3352e-10
-8.9925e-09
2.40069e-10
-9.23935e-09
2.4673e-10
-9.49307e-09
2.53596e-10
-9.75391e-09
2.60713e-10
-1.00221e-08
2.68105e-10
-1.0298e-08
2.75774e-10
-1.05819e-08
2.83721e-10
-1.0874e-08
2.91948e-10
-1.11745e-08
3.00456e-10
-1.14839e-08
3.09204e-10
-1.18024e-08
3.18364e-10
-1.21304e-08
3.27905e-10
-1.24683e-08
3.3781e-10
-1.28165e-08
3.48039e-10
-1.31751e-08
3.58515e-10
-1.35444e-08
3.69131e-10
-1.39243e-08
3.79785e-10
-1.43148e-08
3.90414e-10
-1.4716e-08
4.01036e-10
-1.51279e-08
4.11768e-10
-1.55509e-08
4.22816e-10
-1.59854e-08
4.34437e-10
-1.64324e-08
4.46875e-10
-1.68929e-08
4.60301e-10
-1.73677e-08
4.74756e-10
-1.7858e-08
4.90148e-10
-1.83644e-08
5.06253e-10
-1.88872e-08
5.22714e-10
-1.94266e-08
5.39241e-10
-1.99824e-08
5.55638e-10
-2.05543e-08
5.71849e-10
-2.11425e-08
5.87984e-10
-2.17469e-08
6.04298e-10
-2.23681e-08
6.21128e-10
-2.30071e-08
6.38815e-10
-2.36648e-08
6.57635e-10
-2.43426e-08
6.77713e-10
-2.50417e-08
6.99002e-10
-2.57632e-08
7.21321e-10
-2.65077e-08
7.44409e-10
-2.72758e-08
7.67993e-10
-2.80678e-08
7.91892e-10
-2.88839e-08
8.1605e-10
-2.97246e-08
8.40536e-10
-3.05902e-08
8.65517e-10
-3.14815e-08
8.91205e-10
-3.23994e-08
9.17803e-10
-3.33449e-08
9.45453e-10
-3.43192e-08
9.74219e-10
-3.53234e-08
1.00409e-09
-3.63584e-08
1.03499e-09
-3.74253e-08
1.06684e-09
-3.8525e-08
1.09961e-09
-3.96583e-08
1.13327e-09
-4.08262e-08
1.16785e-09
-4.20297e-08
1.2034e-09
-4.32697e-08
1.23999e-09
-4.45474e-08
1.2777e-09
-4.58641e-08
1.3166e-09
-4.72208e-08
1.35676e-09
-4.86192e-08
1.39829e-09
-5.00605e-08
1.44129e-09
-5.15463e-08
1.48587e-09
-5.30785e-08
1.53211e-09
-5.46585e-08
1.58003e-09
-5.62881e-08
1.62964e-09
-5.79689e-08
1.68086e-09
-5.97025e-08
1.73361e-09
-6.14903e-08
1.78783e-09
-6.33338e-08
1.84351e-09
-6.52345e-08
1.90072e-09
-6.7194e-08
1.9596e-09
-6.92143e-08
2.02032e-09
-7.12973e-08
2.08306e-09
-7.34452e-08
2.14797e-09
-7.56603e-08
2.21512e-09
-7.79447e-08
2.28453e-09
-8.03009e-08
2.3562e-09
-8.27309e-08
2.43014e-09
-8.52372e-08
2.50639e-09
-8.78222e-08
2.58507e-09
-9.04884e-08
2.66634e-09
-9.32387e-08
2.75037e-09
-9.60759e-08
2.83729e-09
-9.90029e-08
2.92715e-09
-1.02023e-07
3.01996e-09
-1.05138e-07
3.1157e-09
-1.08353e-07
3.21436e-09
-1.11668e-07
3.31601e-09
-1.15089e-07
3.42076e-09
-1.18618e-07
3.52882e-09
-1.22258e-07
3.64043e-09
-1.26014e-07
3.75581e-09
-1.29889e-07
3.87513e-09
-1.33887e-07
3.99854e-09
-1.38013e-07
4.12613e-09
-1.42271e-07
4.258e-09
-1.46665e-07
4.39427e-09
-1.512e-07
4.5351e-09
-1.55881e-07
4.68063e-09
-1.60712e-07
4.83097e-09
-1.65698e-07
4.98621e-09
-1.70844e-07
5.14635e-09
-1.76155e-07
5.31145e-09
-1.81637e-07
5.4816e-09
-1.87294e-07
5.65706e-09
-1.93132e-07
5.83821e-09
-1.99157e-07
6.02551e-09
-2.05377e-07
6.21943e-09
-2.11797e-07
6.42028e-09
-2.18425e-07
6.62819e-09
-2.25268e-07
6.84312e-09
-2.32333e-07
7.06494e-09
-2.39626e-07
7.29364e-09
-2.47156e-07
7.52936e-09
-2.54928e-07
7.77256e-09
-2.62952e-07
8.02386e-09
-2.71236e-07
8.28395e-09
-2.79789e-07
8.55338e-09
-2.88621e-07
8.83237e-09
-2.97742e-07
9.12094e-09
-3.07161e-07
9.41891e-09
-3.16887e-07
9.72618e-09
-3.2693e-07
1.00429e-08
-3.373e-07
1.03697e-08
-3.48007e-07
1.07073e-08
-3.59063e-07
1.10566e-08
-3.70482e-07
1.14184e-08
-3.82275e-07
1.17931e-08
-3.94455e-07
1.21808e-08
-4.07037e-07
1.25815e-08
-4.20031e-07
1.29951e-08
-4.33453e-07
1.3422e-08
-4.47316e-07
1.38628e-08
-4.61634e-07
1.43184e-08
-4.76424e-07
1.47897e-08
-4.91701e-07
1.52775e-08
-5.07483e-07
1.57821e-08
-5.23786e-07
1.63037e-08
-5.40628e-07
1.68426e-08
-5.58027e-07
1.73991e-08
-5.76001e-07
1.79741e-08
-5.94569e-07
1.85687e-08
-6.13752e-07
1.91839e-08
-6.33573e-07
1.98207e-08
-6.54052e-07
2.04796e-08
-6.75212e-07
2.11611e-08
-6.97077e-07
2.18652e-08
-7.19669e-07
2.25925e-08
-7.43012e-07
2.3344e-08
-7.67132e-07
2.41209e-08
-7.92057e-07
2.49249e-08
-8.17813e-07
2.57572e-08
-8.44431e-07
2.66187e-08
-8.7194e-07
2.751e-08
-9.00371e-07
2.84314e-08
-9.29754e-07
2.93832e-08
-9.60119e-07
3.03667e-08
-9.91502e-07
3.13835e-08
-1.02394e-06
3.24355e-08
-1.05746e-06
3.35246e-08
-1.09211e-06
3.46523e-08
-1.12793e-06
3.58194e-08
-1.16496e-06
3.70263e-08
-1.20323e-06
3.82739e-08
-1.24279e-06
3.95632e-08
-1.28369e-06
4.08963e-08
-1.32596e-06
4.22756e-08
-1.36966e-06
4.37034e-08
-1.41485e-06
4.5182e-08
-1.46156e-06
4.67126e-08
-1.50985e-06
4.82963e-08
-1.55979e-06
4.99341e-08
-1.61141e-06
5.16277e-08
-1.66479e-06
5.33791e-08
-1.71998e-06
5.51912e-08
-1.77705e-06
5.70667e-08
-1.83606e-06
5.90082e-08
-1.89708e-06
6.10176e-08
-1.96017e-06
6.30969e-08
-2.02542e-06
6.5248e-08
-2.0929e-06
6.74733e-08
-2.16267e-06
6.97759e-08
-2.23483e-06
7.21592e-08
-2.30946e-06
7.46264e-08
-2.38664e-06
7.71805e-08
-2.46647e-06
7.9824e-08
-2.54903e-06
8.25597e-08
-2.63442e-06
8.53906e-08
-2.72274e-06
8.83204e-08
-2.8141e-06
9.13532e-08
-2.9086e-06
9.44932e-08
-3.00634e-06
9.77443e-08
-3.10746e-06
1.0111e-07
-3.21205e-06
1.04593e-07
-3.32025e-06
1.08198e-07
-3.43219e-06
1.11928e-07
-3.54798e-06
1.1579e-07
-3.66777e-06
1.19787e-07
-3.7917e-06
1.23927e-07
-3.91992e-06
1.28215e-07
-4.05258e-06
1.32654e-07
-4.18984e-06
1.37251e-07
-4.33186e-06
1.4201e-07
-4.4788e-06
1.46937e-07
-4.63084e-06
1.52038e-07
-4.78817e-06
1.5732e-07
-4.95097e-06
1.62788e-07
-5.11942e-06
1.68451e-07
-5.29375e-06
1.74315e-07
-5.47414e-06
1.80387e-07
-5.66083e-06
1.86676e-07
-5.85402e-06
1.93189e-07
-6.05397e-06
1.99935e-07
-6.2609e-06
2.06922e-07
-6.47507e-06
2.14157e-07
-6.69673e-06
2.2165e-07
-6.92615e-06
2.29409e-07
-7.1636e-06
2.37446e-07
-7.40938e-06
2.4577e-07
-7.66379e-06
2.54392e-07
-7.92712e-06
2.63325e-07
-8.19971e-06
2.72577e-07
-8.48189e-06
2.82161e-07
-8.77399e-06
2.92088e-07
-9.07637e-06
3.02372e-07
-9.38941e-06
3.13026e-07
-9.71349e-06
3.24063e-07
-1.0049e-05
3.35498e-07
-1.03964e-05
3.47344e-07
-1.0756e-05
3.59616e-07
-1.11283e-05
3.72329e-07
-1.15138e-05
3.85502e-07
-1.1913e-05
3.99151e-07
-1.23263e-05
4.13294e-07
-1.27543e-05
4.27948e-07
-1.31974e-05
4.43131e-07
-1.36563e-05
4.58863e-07
-1.41315e-05
4.75163e-07
-1.46235e-05
4.92054e-07
-1.51331e-05
5.09559e-07
-1.56608e-05
5.27701e-07
-1.62073e-05
5.46502e-07
-1.67733e-05
5.65986e-07
-1.73595e-05
5.86176e-07
-1.79666e-05
6.07098e-07
-1.85954e-05
6.28783e-07
-1.92467e-05
6.51259e-07
-1.99212e-05
6.74556e-07
-2.062e-05
6.98704e-07
-2.13437e-05
7.23731e-07
-2.20934e-05
7.49669e-07
-2.28699e-05
7.76555e-07
-2.36744e-05
8.04424e-07
-2.45077e-05
8.33315e-07
-2.5371e-05
8.63266e-07
-2.62653e-05
8.94314e-07
-2.71918e-05
9.26498e-07
-2.81517e-05
9.5986e-07
-2.91461e-05
9.94445e-07
-3.01764e-05
1.0303e-06
-3.12439e-05
1.06748e-06
-3.235e-05
1.10602e-06
-3.34959e-05
1.14598e-06
-3.46834e-05
1.18742e-06
-3.59138e-05
1.23037e-06
-3.71887e-05
1.27491e-06
-3.85098e-05
1.3211e-06
-3.98788e-05
1.36898e-06
-4.12975e-05
1.41864e-06
-4.27676e-05
1.47014e-06
-4.42912e-05
1.52353e-06
-4.58701e-05
1.57889e-06
-4.75064e-05
1.63631e-06
-4.92023e-05
1.69585e-06
-5.096e-05
1.7576e-06
-5.27816e-05
1.82164e-06
-5.46697e-05
1.88806e-06
-5.66267e-05
1.95694e-06
-5.86551e-05
2.02837e-06
-6.07576e-05
2.10246e-06
-6.2937e-05
2.1793e-06
-6.51961e-05
2.259e-06
-6.75378e-05
2.34167e-06
-6.99653e-05
2.42741e-06
-7.24817e-05
2.51634e-06
-7.50904e-05
2.60859e-06
-7.77948e-05
2.70428e-06
-8.05984e-05
2.80354e-06
-8.3505e-05
2.9065e-06
-8.65185e-05
3.01331e-06
-8.96427e-05
3.1241e-06
-9.28819e-05
3.23903e-06
-9.62403e-05
3.35826e-06
-9.97224e-05
3.48194e-06
-0.000103333
3.61025e-06
-0.000107076
3.74337e-06
-0.000110958
3.88146e-06
-0.000114983
4.02473e-06
-0.000119157
4.17337e-06
-0.000123484
4.32758e-06
-0.000127972
4.48756e-06
-0.000132626
4.65354e-06
-0.000137452
4.82575e-06
-0.000142457
5.00442e-06
-0.000147647
5.18979e-06
-0.00015303
5.38213e-06
-0.000158612
5.58168e-06
-0.000164401
5.78872e-06
-0.000170405
6.00353e-06
-0.000176632
6.22641e-06
-0.00018309
6.45767e-06
-0.000189788
6.6976e-06
-0.000196735
6.94654e-06
-0.00020394
7.20483e-06
-0.000211414
7.47282e-06
-0.000219165
7.75087e-06
-0.000227205
8.03936e-06
-0.000235545
8.33867e-06
-0.000244195
8.64921e-06
-0.000253167
8.97139e-06
-0.000262473
9.30566e-06
-0.000272127
9.65245e-06
-0.00028214
1.00122e-05
-0.000292526
1.03855e-05
-0.0003033
1.07727e-05
-0.000314475
1.11744e-05
-0.000326067
1.15911e-05
-0.000338091
1.20234e-05
-0.000350564
1.24718e-05
-0.000363502
1.29369e-05
-0.000376922
1.34193e-05
-0.000390842
1.39197e-05
-0.000405281
1.44387e-05
-0.000420259
1.49769e-05
-0.000435794
1.5535e-05
-0.000451908
1.61138e-05
-0.000468622
1.67139e-05
-0.000485958
1.73361e-05
-0.000503939
1.79812e-05
-0.000522588
1.86499e-05
-0.000541931
1.9343e-05
-0.000561991
2.00613e-05
-0.000582796
2.08056e-05
-0.000604372
2.15769e-05
-0.000626747
2.23759e-05
-0.000649949
2.32036e-05
-0.000674009
2.40608e-05
-0.000698956
2.49483e-05
-0.000724823
2.58672e-05
-0.00075164
2.68184e-05
-0.000779442
2.78027e-05
-0.000808262
2.88211e-05
-0.000838136
2.98745e-05
-0.000869099
3.09637e-05
-0.000901187
3.20898e-05
-0.00093444
3.32535e-05
-0.000968894
3.44558e-05
-0.00100459
3.56973e-05
-0.00104157
3.69788e-05
-0.00107986
3.83011e-05
-0.00111953
3.96648e-05
-0.00116059
4.10703e-05
-0.00120311
4.25181e-05
-0.00124711
4.40085e-05
-0.00129265
4.55418e-05
-0.00133977
4.7118e-05
-0.0013885
4.8737e-05
-0.0014389
5.03985e-05
-0.001491
5.2102e-05
-0.00154484
5.38468e-05
-0.00160047
5.5632e-05
-0.00165792
5.74562e-05
-0.00171724
5.93178e-05
-0.00177845
6.12148e-05
-0.00184159
6.31448e-05
-0.00190669
6.51049e-05
-0.00197378
6.70916e-05
-0.00204288
6.91009e-05
-0.00211401
7.11282e-05
-0.00218717
7.31681e-05
-0.00226238
7.52146e-05
-0.00233964
7.72608e-05
-0.00241894
7.9299e-05
-0.00250026
8.13207e-05
-0.00258357
8.33164e-05
-0.00266885
8.52753e-05
-0.00275603
8.71858e-05
-0.00284506
8.9035e-05
-0.00293587
9.08086e-05
-0.00302836
9.2491e-05
-0.00312243
9.40653e-05
-0.00321794
9.55131e-05
-0.00331475
9.68146e-05
-0.0034127
9.79485e-05
-0.0035116
9.88924e-05
-0.00361122
9.96223e-05
-0.00371134
0.000100113
-0.00381168
0.000100338
-0.00391195
0.00010027
-0.00401183
9.98811e-05
-0.00411097
9.91411e-05
-0.00420899
9.80203e-05
-0.00430548
9.64883e-05
-0.00439999
9.45145e-05
-0.00449206
9.20689e-05
-0.00458118
8.91217e-05
-0.00466682
8.56447e-05
-0.00474843
8.16111e-05
-0.00482543
7.69962e-05
-0.00489721
7.17782e-05
-0.00496315
6.59383e-05
-0.00502261
5.94615e-05
-0.00507495
5.23365e-05
-0.00511951
4.45569e-05
-0.00515564
3.61203e-05
-0.00518267
2.70291e-05
-0.00519997
1.73045e-05
-0.00520707
7.10434e-06
-0.0052033
-3.76974e-06
-0.00518771
-1.55944e-05
-0.00516016
-2.75493e-05
-0.00512007
-4.00888e-05
-0.00506699
-5.30709e-05
-0.00500053
-6.64588e-05
-0.00492037
-8.01635e-05
-0.00482625
-9.41232e-05
-0.00471799
-0.000108256
-0.00459551
-0.000122488
-0.00445877
-0.000136742
-0.00430783
-0.000150934
-0.00414285
-0.000164981
-0.00396405
-0.000178797
-0.00377175
-0.000192297
-0.00356635
-0.000205397
-0.00334834
-0.000218012
-0.00311827
-0.00023006
-0.00287681
-0.000241458
-0.00262469
-0.000252124
-0.00236272
-0.000261971
-0.00209184
-0.000270881
-0.00181328
-0.00027856
-0.00152875
-0.000284537
-0.00123807
-0.000290678
-0.000936866
-0.000301202
-0.000629935
-0.000306929
-0.000323804
-0.000306128
-1.68784e-05
-0.000306921
0.000290318
-0.000307189
0.000597245
-0.000306919
0.000905258
-0.000308003
0.00120875
-0.000303477
0.00150237
-0.000293617
0.00178964
-0.000287257
0.00207137
-0.000281728
0.0023458
-0.000274423
0.00261156
-0.000265766
0.00286765
-0.000256087
0.00311315
-0.000245506
0.00334725
-0.000234108
0.00356921
-0.00022197
0.00377839
-0.000209174
0.0039742
-0.000195805
0.00415617
-0.000181954
0.00432391
-0.000167714
0.00447711
-0.000153178
0.00461556
-0.000138435
0.00473913
-0.000123575
0.00484782
-0.000108687
0.00494168
-9.38575e-05
0.00502086
-7.91695e-05
0.0050856
-6.47275e-05
0.00513621
-5.05899e-05
0.0051731
-3.68846e-05
0.00519673
-2.36397e-05
0.00520764
-1.09202e-05
0.00520604
1.58833e-06
0.00519311
1.29284e-05
0.00516929
2.3822e-05
0.00513522
3.4081e-05
0.00509158
4.36416e-05
0.00503911
5.24852e-05
0.0049785
6.06064e-05
0.00491049
6.80064e-05
0.00483579
7.46934e-05
0.0047551
8.06799e-05
0.00466912
8.59823e-05
0.0045785
9.0622e-05
0.00448388
9.46224e-05
0.00438587
9.80112e-05
0.00428506
0.000100818
0.00418197
0.000103077
0.00407715
0.000104822
0.00397105
0.000106089
0.00386413
0.000106912
0.0037568
0.000107326
0.00364944
0.000107366
0.00354237
0.000107066
0.00343591
0.000106459
0.00333033
0.000105575
0.00322589
0.000104445
0.00312279
0.000103097
0.00302123
0.000101558
0.00292138
9.98525e-05
0.00282337
9.80039e-05
0.00272733
9.60347e-05
0.00263336
9.39659e-05
0.00254155
9.1816e-05
0.00245195
8.96013e-05
0.00236461
8.73364e-05
0.00227958
8.50346e-05
0.00219687
8.2709e-05
0.0021165
8.03714e-05
0.00203847
7.80325e-05
0.00196277
7.57009e-05
0.00188939
7.33835e-05
0.00181831
7.10863e-05
0.0017495
6.88152e-05
0.00168292
6.65756e-05
0.00161855
6.43728e-05
0.00155634
6.2211e-05
0.00149625
6.00934e-05
0.00143823
5.8022e-05
0.00138224
5.59981e-05
0.00132822
5.40225e-05
0.00127613
5.20961e-05
0.00122592
5.02198e-05
0.00117752
4.83949e-05
0.0011309
4.66222e-05
0.001086
4.49025e-05
0.00104277
4.32359e-05
0.00100115
4.16221e-05
0.000961094
4.00598e-05
0.000922555
3.85475e-05
0.000885478
3.70837e-05
0.000849814
3.56674e-05
0.000815517
3.42981e-05
0.00078254
3.29755e-05
0.00075084
3.16994e-05
0.000720371
3.04687e-05
0.000691091
2.92822e-05
0.000662956
2.81383e-05
0.000635924
2.70354e-05
0.000609954
2.59725e-05
0.000585008
2.49482e-05
0.000561048
2.39617e-05
0.000538037
2.30117e-05
0.00051594
2.20971e-05
0.000494723
2.12168e-05
0.000474354
2.03696e-05
0.0004548
1.95545e-05
0.00043603
1.87704e-05
0.000418014
1.80165e-05
0.000400723
1.72915e-05
0.000384129
1.65945e-05
0.000368205
1.59246e-05
0.000352926
1.52805e-05
0.000338265
1.46615e-05
0.000324199
1.40667e-05
0.000310705
1.34953e-05
0.000297759
1.29463e-05
0.000285341
1.2419e-05
0.000273429
1.19125e-05
0.000262004
1.14259e-05
0.000251045
1.09586e-05
0.000240535
1.05098e-05
0.000230455
1.00788e-05
0.000220789
9.66497e-06
0.00021152
9.26767e-06
0.000202632
8.8863e-06
0.00019411
8.52024e-06
0.00018594
8.16884e-06
0.000178107
7.83156e-06
0.000170598
7.50791e-06
0.0001634
7.19733e-06
0.0001565
6.89925e-06
0.000149886
6.61323e-06
0.000143546
6.33881e-06
0.00013747
6.07554e-06
0.000131647
5.82293e-06
0.000126065
5.5806e-06
0.000120717
5.34816e-06
0.000115591
5.12521e-06
0.000110679
4.91135e-06
0.000105973
4.70623e-06
0.000101463
4.50951e-06
9.71418e-05
4.32085e-06
9.30016e-05
4.13993e-06
8.90349e-05
3.96643e-06
8.52346e-05
3.80006e-06
8.15938e-05
3.64054e-06
7.81061e-05
3.48759e-06
7.47649e-05
3.34094e-06
7.15644e-05
3.20034e-06
6.84987e-05
3.06555e-06
6.55622e-05
2.93634e-06
6.27496e-05
2.81247e-06
6.00557e-05
2.69374e-06
5.74757e-05
2.57993e-06
5.50048e-05
2.47083e-06
5.26384e-05
2.36627e-06
5.03722e-05
2.26606e-06
4.82021e-05
2.17003e-06
4.61241e-05
2.07798e-06
4.41342e-05
1.98978e-06
4.22289e-05
1.90526e-06
4.04046e-05
1.82427e-06
3.86579e-05
1.74666e-06
3.69856e-05
1.67229e-06
3.53845e-05
1.60104e-06
3.38517e-05
1.53278e-06
3.23843e-05
1.46738e-06
3.09795e-05
1.40472e-06
2.96348e-05
1.3447e-06
2.83476e-05
1.2872e-06
2.71154e-05
1.23211e-06
2.59361e-05
1.17935e-06
2.48072e-05
1.12881e-06
2.37268e-05
1.0804e-06
2.26928e-05
1.03403e-06
2.17031e-05
9.89622e-07
2.0756e-05
9.47091e-07
1.98496e-05
9.0636e-07
1.89822e-05
8.6735e-07
1.81522e-05
8.29992e-07
1.7358e-05
7.9422e-07
1.6598e-05
7.59966e-07
1.58708e-05
7.27167e-07
1.5175e-05
6.9576e-07
1.45093e-05
6.65689e-07
1.38724e-05
6.36897e-07
1.32631e-05
6.09331e-07
1.26801e-05
5.82941e-07
1.21224e-05
5.57676e-07
1.15889e-05
5.33488e-07
1.10785e-05
5.10332e-07
1.05903e-05
4.88169e-07
1.01233e-05
4.66956e-07
9.67667e-06
4.46648e-07
9.24944e-06
4.27208e-07
8.84081e-06
4.086e-07
8.44999e-06
3.90794e-07
8.07621e-06
3.73753e-07
7.71874e-06
3.57442e-07
7.37689e-06
3.41832e-07
7.04997e-06
3.26894e-07
6.73734e-06
3.12601e-07
6.43839e-06
2.98924e-07
6.15253e-06
2.85832e-07
5.87919e-06
2.73305e-07
5.61785e-06
2.6132e-07
5.36796e-06
2.49856e-07
5.12905e-06
2.38888e-07
4.90063e-06
2.28393e-07
4.68225e-06
2.18351e-07
4.47348e-06
2.08744e-07
4.2739e-06
1.99555e-07
4.08311e-06
1.90766e-07
3.90073e-06
1.82357e-07
3.72639e-06
1.74312e-07
3.55975e-06
1.66618e-07
3.40047e-06
1.59261e-07
3.24822e-06
1.52224e-07
3.10271e-06
1.45492e-07
2.96363e-06
1.39053e-07
2.83072e-06
1.32894e-07
2.70369e-06
1.27006e-07
2.5823e-06
1.21376e-07
2.46629e-06
1.15992e-07
2.35543e-06
1.10843e-07
2.24949e-06
1.05918e-07
2.14827e-06
1.0121e-07
2.05154e-06
9.67084e-08
1.95913e-06
9.24044e-08
1.87082e-06
8.82891e-08
1.78646e-06
8.43548e-08
1.70585e-06
8.05943e-08
1.62884e-06
7.69994e-08
1.55527e-06
7.35618e-08
1.48498e-06
7.02747e-08
1.41784e-06
6.71327e-08
1.3537e-06
6.413e-08
1.29243e-06
6.12601e-08
1.23391e-06
5.85169e-08
1.178e-06
5.58957e-08
1.1246e-06
5.33917e-08
1.0736e-06
5.09985e-08
1.02488e-06
4.87091e-08
9.7836e-07
4.65185e-08
9.3393e-07
4.44252e-08
8.91497e-07
4.2428e-08
8.5097e-07
4.05226e-08
8.12265e-07
3.87012e-08
7.75304e-07
3.69574e-08
7.40011e-07
3.52888e-08
7.06313e-07
3.36957e-08
6.74133e-07
3.21766e-08
6.43405e-07
3.0726e-08
6.14064e-07
2.93382e-08
5.86052e-07
2.80102e-08
5.59308e-07
2.67426e-08
5.33772e-07
2.55348e-08
5.09388e-07
2.43822e-08
4.86109e-07
2.32788e-08
4.63887e-07
2.22213e-08
4.42676e-07
2.12103e-08
4.22428e-07
2.02473e-08
4.03097e-07
1.93307e-08
3.84641e-07
1.84554e-08
3.67024e-07
1.7617e-08
3.5021e-07
1.68144e-08
3.34162e-07
1.60485e-08
3.18843e-07
1.53191e-08
3.0422e-07
1.4623e-08
2.90264e-07
1.39568e-08
2.76945e-07
1.33191e-08
2.64235e-07
1.27107e-08
2.52104e-07
1.21318e-08
2.40525e-07
1.15801e-08
2.29473e-07
1.10522e-08
2.18927e-07
1.05461e-08
2.08866e-07
1.00621e-08
1.99265e-07
9.60139e-09
1.90103e-07
9.16331e-09
1.81358e-07
8.7455e-09
1.73013e-07
8.34551e-09
1.65051e-07
7.96251e-09
1.57454e-07
7.59694e-09
1.50206e-07
7.24881e-09
1.4329e-07
6.917e-09
1.3669e-07
6.59989e-09
1.30394e-07
6.2967e-09
1.24387e-07
6.00736e-09
1.18655e-07
5.73168e-09
1.13187e-07
5.46855e-09
1.07971e-07
5.21665e-09
1.02995e-07
4.97554e-09
9.82497e-08
4.74579e-09
9.37221e-08
4.5278e-09
8.94015e-08
4.32067e-09
8.52789e-08
4.12257e-09
8.13467e-08
3.93222e-09
7.75967e-08
3.74998e-09
7.40197e-08
3.57696e-09
7.06064e-08
3.41331e-09
6.73488e-08
3.2575e-09
6.42412e-08
3.10746e-09
6.12784e-08
2.96263e-09
5.84542e-08
2.82402e-09
5.57608e-08
2.69325e-09
5.31904e-08
2.57022e-09
5.07372e-08
2.45289e-09
4.83979e-08
2.33909e-09
4.61691e-08
2.22857e-09
4.40456e-08
2.12324e-09
4.20203e-08
2.02511e-09
4.0086e-08
1.93405e-09
3.8238e-08
1.84774e-09
3.64742e-08
1.76355e-09
3.47931e-08
1.68076e-09
3.31919e-08
1.60093e-09
3.16657e-08
1.52595e-09
3.02093e-08
1.45618e-09
2.8819e-08
1.39006e-09
2.7493e-08
1.32578e-09
2.62297e-08
1.26304e-09
2.50264e-08
1.20314e-09
2.38787e-08
1.14748e-09
2.27826e-08
1.09595e-09
2.17355e-08
1.04691e-09
2.07367e-08
9.98678e-10
1.97854e-08
9.51125e-10
1.88796e-08
9.05663e-10
1.80157e-08
8.63779e-10
1.71901e-08
8.25494e-10
1.64008e-08
7.89235e-10
1.56475e-08
7.53193e-10
1.49305e-08
7.16914e-10
1.42489e-08
6.8152e-10
1.36002e-08
6.48626e-10
1.29813e-08
6.18879e-10
1.23898e-08
5.91468e-10
1.18247e-08
5.65066e-10
1.12856e-08
5.39015e-10
1.07718e-08
5.13737e-10
1.02817e-08
4.90064e-10
9.81352e-09
4.682e-10
9.36607e-09
4.47439e-10
8.93924e-09
4.26814e-10
8.53306e-09
4.06162e-10
8.14674e-09
3.86316e-10
7.77839e-09
3.68338e-10
7.42586e-09
3.52518e-10
7.08799e-09
3.37872e-10
6.76507e-09
3.22915e-10
6.45819e-09
3.06877e-10
6.16775e-09
2.90431e-10
5.89253e-09
2.75221e-10
5.63002e-09
2.6251e-10
5.3779e-09
2.52119e-10
5.13517e-09
2.42727e-10
4.90221e-09
2.32951e-10
4.67991e-09
2.22302e-10
4.46834e-09
2.11564e-10
4.26648e-09
2.01863e-10
4.07299e-09
1.93484e-10
3.88702e-09
1.85978e-10
3.70914e-09
1.77873e-10
3.54017e-09
1.68973e-10
3.38046e-09
1.59701e-10
3.22929e-09
1.51173e-10
3.08515e-09
1.44136e-10
2.94682e-09
1.3833e-10
2.81385e-09
1.32969e-10
2.6867e-09
1.27142e-10
2.5661e-09
1.20599e-10
2.4521e-09
1.14005e-10
2.34364e-09
1.08457e-10
2.23894e-09
1.04703e-10
2.13635e-09
1.0259e-10
2.03569e-09
1.00651e-10
1.93841e-09
9.7284e-11
1.84617e-09
9.22432e-11
1.75978e-09
8.63856e-11
1.6786e-09
8.11865e-11
1.60119e-09
7.74067e-11
1.52668e-09
7.4509e-11
1.45489e-09
7.17903e-11
1.38654e-09
6.83545e-11
1.32153e-09
6.50111e-11
1.25959e-09
6.19476e-11
1.19917e-09
6.04255e-11
1.13903e-09
6.01378e-11
1.07927e-09
5.97703e-11
1.02051e-09
5.87587e-11
9.6531e-10
5.52098e-11
9.12955e-10
5.23607e-11
8.6471e-10
4.82515e-11
8.18596e-10
4.6121e-11
7.7601e-10
4.25939e-11
7.3333e-10
4.26877e-11
6.9124e-10
4.20985e-11
6.48563e-10
4.26862e-11
6.087e-10
3.98728e-11
5.71191e-10
3.75184e-11
5.3524e-10
3.59617e-11
4.99659e-10
3.55914e-11
4.64715e-10
3.49553e-11
4.29983e-10
3.47437e-11
3.94816e-10
3.51793e-11
3.59575e-10
3.52536e-11
3.25526e-10
3.4062e-11
2.92913e-10
3.26257e-11
2.61733e-10
3.11939e-11
2.32016e-10
2.97308e-11
2.03223e-10
2.88066e-11
1.74572e-10
2.86651e-11
1.46284e-10
2.83019e-11
1.17989e-10
2.83089e-11
8.93137e-11
2.86904e-11
5.95937e-11
2.97351e-11
2.85464e-11
3.10625e-11
2.85614e-11
1.18564e-08
9.7085e-08
4.28436e-08
1.03598e-07
3.83797e-08
7.91247e-08
2.88216e-08
5.46117e-08
2.01529e-08
3.7604e-08
1.33471e-08
2.43545e-08
8.24407e-09
1.5413e-08
4.65095e-09
9.16628e-09
2.22001e-09
4.98519e-09
8.83471e-10
1.99323e-09
3.09791e-10
-1.30058e-10
2.28264e-11
-1.32549e-09
-3.99995e-11
-1.93584e-09
1.47949e-11
-2.24606e-09
1.28306e-10
-2.30534e-09
3.1482e-10
-2.23044e-09
5.06765e-10
-2.00477e-09
6.68694e-10
-1.71613e-09
7.3049e-10
-1.35223e-09
7.97845e-10
-1.11197e-09
7.97471e-10
-8.53312e-10
7.69979e-10
-6.40663e-10
7.01019e-10
-4.46045e-10
6.14921e-10
-2.92637e-10
5.09651e-10
-1.77035e-10
3.97053e-10
-9.19507e-11
2.72292e-10
-3.09984e-11
1.36766e-10
1.16772e-11
1.40129e-13
2.56153e-11
-1.351e-10
4.13066e-11
-2.63257e-10
2.52906e-11
-3.82116e-10
1.43076e-11
-4.92274e-10
-4.94004e-12
-5.90085e-10
-2.42457e-11
-6.75983e-10
-4.49748e-11
-7.48928e-10
-6.34839e-11
-8.08349e-10
-8.07129e-11
-8.62974e-10
-9.45308e-11
-8.99593e-10
-1.00046e-10
-9.2186e-10
-1.03919e-10
-9.30491e-10
-1.08172e-10
-9.32741e-10
-1.04391e-10
-9.31455e-10
-9.60899e-11
-9.30017e-10
-8.36299e-11
-9.29629e-10
-7.11566e-11
-9.31164e-10
-5.5536e-11
-9.34827e-10
-4.06684e-11
-9.42387e-10
-2.66489e-11
-9.52899e-10
-1.2625e-11
-9.6818e-10
5.56216e-15
-9.83736e-10
8.15295e-12
-1.00048e-09
1.60021e-11
-1.0178e-09
2.34729e-11
-1.03719e-09
2.97258e-11
-1.05828e-09
3.56856e-11
-1.08119e-09
4.04566e-11
-1.10567e-09
4.44777e-11
-1.1318e-09
4.80798e-11
-1.15941e-09
5.14369e-11
-1.18813e-09
5.4487e-11
-1.21781e-09
5.74045e-11
-1.24867e-09
6.04787e-11
-1.28087e-09
6.36999e-11
-1.31452e-09
6.70234e-11
-1.34967e-09
7.02926e-11
-1.38615e-09
7.3294e-11
-1.42374e-09
7.5843e-11
-1.46228e-09
7.79815e-11
-1.50163e-09
7.97166e-11
-1.54167e-09
8.11288e-11
-1.58231e-09
8.22633e-11
-1.62347e-09
8.31647e-11
-1.66509e-09
8.38991e-11
-1.70718e-09
8.45522e-11
-1.74984e-09
8.52437e-11
-1.79323e-09
8.61743e-11
-1.83755e-09
8.75064e-11
-1.88302e-09
8.93741e-11
-1.92981e-09
9.18925e-11
-1.97817e-09
9.50022e-11
-2.02804e-09
9.86151e-11
-2.07978e-09
1.02576e-10
-2.13314e-09
1.06512e-10
-2.18821e-09
1.10347e-10
-2.24489e-09
1.13806e-10
-2.30312e-09
1.16927e-10
-2.36288e-09
1.19825e-10
-2.42413e-09
1.22653e-10
-2.48694e-09
1.25593e-10
-2.55136e-09
1.28769e-10
-2.61749e-09
1.32243e-10
-2.68547e-09
1.3599e-10
-2.75535e-09
1.40041e-10
-2.82722e-09
1.44155e-10
-2.90113e-09
1.4835e-10
-2.97709e-09
1.52479e-10
-3.05508e-09
1.56508e-10
-3.13508e-09
1.60442e-10
-3.21709e-09
1.64325e-10
-3.30111e-09
1.68223e-10
-3.38719e-09
1.72222e-10
-3.47543e-09
1.76433e-10
-3.56595e-09
1.8094e-10
-3.65897e-09
1.85842e-10
-3.75468e-09
1.91218e-10
-3.85327e-09
1.97045e-10
-3.95492e-09
2.03166e-10
-4.05959e-09
2.09513e-10
-4.16734e-09
2.15874e-10
-4.27811e-09
2.22069e-10
-4.39182e-09
2.28023e-10
-4.50841e-09
2.33787e-10
-4.62787e-09
2.39427e-10
-4.75028e-09
2.45134e-10
-4.87579e-09
2.51122e-10
-5.00466e-09
2.57591e-10
-5.13715e-09
2.64691e-10
-5.27355e-09
2.72432e-10
-5.41404e-09
2.80701e-10
-5.55876e-09
2.89306e-10
-5.70774e-09
2.98015e-10
-5.86094e-09
3.0664e-10
-6.01834e-09
3.151e-10
-6.17991e-09
3.23397e-10
-6.34567e-09
3.31644e-10
-6.51575e-09
3.4005e-10
-6.69034e-09
3.48817e-10
-6.86973e-09
3.58165e-10
-7.05423e-09
3.68232e-10
-7.24419e-09
3.79067e-10
-7.43989e-09
3.90612e-10
-7.64156e-09
4.02713e-10
-7.84933e-09
4.15173e-10
-8.06329e-09
4.27825e-10
-8.28349e-09
4.40545e-10
-8.50996e-09
4.5329e-10
-8.74277e-09
4.66105e-10
-8.98197e-09
4.79055e-10
-9.22787e-09
4.92404e-10
-9.48069e-09
5.06195e-10
-9.74071e-09
5.20505e-10
-1.00082e-08
5.35335e-10
-1.02833e-08
5.50709e-10
-1.05664e-08
5.6662e-10
-1.08578e-08
5.83077e-10
-1.11577e-08
6.00116e-10
-1.14665e-08
6.17794e-10
-1.17844e-08
6.36074e-10
-1.21118e-08
6.55061e-10
-1.2449e-08
6.74765e-10
-1.27963e-08
6.95127e-10
-1.31541e-08
7.16013e-10
-1.35224e-08
7.37245e-10
-1.39015e-08
7.5865e-10
-1.42915e-08
7.80137e-10
-1.46924e-08
8.01746e-10
-1.51046e-08
8.23676e-10
-1.55282e-08
8.46265e-10
-1.5964e-08
8.6992e-10
-1.64123e-08
8.95026e-10
-1.68741e-08
9.21834e-10
-1.735e-08
9.50393e-10
-1.78406e-08
9.80522e-10
-1.83464e-08
1.01184e-09
-1.88678e-08
1.04389e-09
-1.9405e-08
1.07625e-09
-1.99583e-08
1.10866e-09
-2.05277e-08
1.14107e-09
-2.11137e-08
1.17371e-09
-2.17166e-08
1.20701e-09
-2.23372e-08
1.24151e-09
-2.29763e-08
1.2777e-09
-2.36348e-08
1.31594e-09
-2.43136e-08
1.35634e-09
-2.50136e-08
1.39875e-09
-2.57353e-08
1.44286e-09
-2.64794e-08
1.48828e-09
-2.72462e-08
1.53464e-09
-2.80362e-08
1.58173e-09
-2.88499e-08
1.62954e-09
-2.96878e-08
1.67827e-09
-3.05507e-08
1.72824e-09
-3.14394e-08
1.77982e-09
-3.23551e-08
1.8333e-09
-3.32987e-08
1.88887e-09
-3.42712e-08
1.9466e-09
-3.52736e-08
2.00641e-09
-3.6307e-08
2.06821e-09
-3.73721e-08
2.1319e-09
-3.847e-08
2.19739e-09
-3.96015e-08
2.2647e-09
-4.07677e-08
2.33391e-09
-4.19695e-08
2.40514e-09
-4.32081e-08