/*--------------------------------*- C++ -*----------------------------------*\
| =========                 |                                                 |
| \\      /  F ield         | OpenFOAM: The Open Source CFD Toolbox           |
|  \\    /   O peration     | Version:  2412                                  |
|   \\  /    A nd           | Website:  www.openfoam.com                      |
|    \\/     M anipulation  |                                                 |
\*---------------------------------------------------------------------------*/
FoamFile
{
    version     2.0;
    format      ascii;
    arch        "LSB;label=32;scalar=64";
    class       surfaceScalarField;
    location    "8.74";
    object      phi;
}
// * * * * * * * * * * * * * * * * * * * * * * * * * * * * * * * * * * * * * //

dimensions      [0 3 -1 0 0 0 0];

oriented        oriented;

internalField   nonuniform List<scalar> 
158920
(
6.93809e-05
-6.93809e-05
0.000139288
-6.98894e-05
0.000209488
-7.01846e-05
0.000280841
-7.13412e-05
0.000351261
-7.04109e-05
0.0004211
-6.98318e-05
0.000491062
-6.99563e-05
0.000561112
-7.00456e-05
0.000631186
-7.00709e-05
0.000701234
-7.00449e-05
0.000771204
-6.99685e-05
0.000841101
-6.98947e-05
0.000910924
-6.98221e-05
0.000980658
-6.97327e-05
0.00105028
-6.96208e-05
0.00111978
-6.94948e-05
0.00118914
-6.93647e-05
0.00125837
-6.92265e-05
0.00132745
-6.9081e-05
0.00139637
-6.89246e-05
0.00146513
-6.87572e-05
0.00153371
-6.85805e-05
0.00160211
-6.83937e-05
0.0016703
-6.81949e-05
0.00173829
-6.79869e-05
0.00180606
-6.77679e-05
0.0018736
-6.75383e-05
0.0019409
-6.72982e-05
0.00200795
-6.70487e-05
0.00207474
-6.67884e-05
0.00214126
-6.65166e-05
0.00220749
-6.62344e-05
0.00227344
-6.594e-05
0.00233907
-6.5636e-05
0.0024044
-6.53193e-05
0.00246939
-6.49919e-05
0.00253405
-6.46543e-05
0.00259835
-6.43041e-05
0.0026623
-6.39425e-05
0.00272587
-6.35699e-05
0.00278906
-6.31867e-05
0.00285185
-6.27913e-05
0.00291424
-6.23859e-05
0.00297621
-6.19676e-05
0.00303775
-6.15388e-05
0.00309886
-6.11017e-05
0.00315951
-6.06518e-05
0.0032197
-6.01887e-05
0.00327942
-5.97134e-05
0.00333865
-5.9229e-05
0.00339739
-5.87338e-05
0.00345561
-5.82263e-05
0.00351333
-5.77088e-05
0.00357051
-5.71796e-05
0.00362715
-5.66393e-05
0.00368324
-5.60879e-05
0.00373877
-5.55247e-05
0.00379372
-5.4951e-05
0.00384809
-5.43666e-05
0.00390186
-5.37708e-05
0.00395503
-5.31635e-05
0.00400757
-5.25448e-05
0.00405949
-5.19152e-05
0.00411077
-5.12744e-05
0.00416139
-5.06226e-05
0.00421135
-4.99595e-05
0.00426064
-4.92855e-05
0.00430924
-4.85999e-05
0.00435714
-4.79032e-05
0.00440434
-4.7196e-05
0.00445082
-4.64767e-05
0.00449657
-4.5748e-05
0.00454157
-4.50065e-05
0.00458583
-4.42542e-05
0.00462932
-4.34913e-05
0.00467204
-4.27171e-05
0.00471397
-4.19338e-05
0.00475511
-4.11365e-05
0.00479544
-4.0327e-05
0.00483495
-3.95091e-05
0.00487363
-3.86817e-05
0.00491148
-3.78399e-05
0.00494846
-3.69879e-05
0.00498459
-3.61259e-05
0.00501984
-3.52509e-05
0.00505421
-3.43667e-05
0.00508768
-3.34724e-05
0.00512025
-3.25644e-05
0.0051519
-3.16498e-05
0.00518262
-3.07242e-05
0.00521241
-2.97835e-05
0.00524123
-2.8828e-05
0.0052691
-2.78655e-05
0.005296
-2.68952e-05
0.00532191
-2.59112e-05
0.00534682
-2.49158e-05
0.00537073
-2.39106e-05
0.00539363
-2.28954e-05
0.0054155
-2.18693e-05
0.00543633
-2.0832e-05
0.00545611
-1.97814e-05
0.00547484
-1.87229e-05
0.00549249
-1.7651e-05
0.00550906
-1.65723e-05
0.00552454
-1.54799e-05
0.00553892
-1.4378e-05
0.00555218
-1.32657e-05
0.00556433
-1.21427e-05
0.00557534
-1.10115e-05
0.00558521
-9.86741e-06
0.00559392
-8.71359e-06
0.00560147
-7.55159e-06
0.00560785
-6.37964e-06
0.00561305
-5.19787e-06
0.00561706
-4.00677e-06
0.00561986
-2.8037e-06
0.00562145
-1.58801e-06
0.00562183
-3.79499e-07
0.00562094
8.927e-07
0.00561882
2.12478e-06
0.00561547
3.35222e-06
0.00561086
4.60187e-06
0.005605
5.859e-06
0.00559787
7.12875e-06
0.00558947
8.40514e-06
0.00557978
9.68818e-06
0.0055688
1.0979e-05
0.00555652
1.22759e-05
0.00554295
1.35744e-05
0.00552807
1.48829e-05
0.00551187
1.61958e-05
0.00549435
1.75168e-05
0.00547552
1.88374e-05
0.00545536
2.01524e-05
0.00543388
2.14817e-05
0.00541107
2.28141e-05
0.00538692
2.41467e-05
0.00536144
2.54802e-05
0.00533463
2.68136e-05
0.00530648
2.81461e-05
0.005277
2.94771e-05
0.00524619
3.08087e-05
0.00521406
3.2135e-05
0.0051806
3.34618e-05
0.00514581
3.4781e-05
0.00510972
3.60922e-05
0.00507232
3.74025e-05
0.00503361
3.87039e-05
0.00499362
3.99949e-05
0.00495234
4.12807e-05
0.00490979
4.25537e-05
0.00486597
4.38153e-05
0.00482091
4.50643e-05
0.00477461
4.62983e-05
0.00472709
4.75195e-05
0.00467837
4.87211e-05
0.00462847
4.99046e-05
0.0045774
5.10702e-05
0.00452518
5.22136e-05
0.00447185
5.33328e-05
0.00441742
5.44276e-05
0.00436192
5.54981e-05
0.00430538
5.65419e-05
0.00424783
5.75566e-05
0.00418929
5.85385e-05
0.0041298
5.94891e-05
0.0040694
6.04029e-05
0.00400811
6.12839e-05
0.00394599
6.21231e-05
0.00388307
6.2922e-05
0.00381939
6.36786e-05
0.003755
6.43919e-05
0.00368994
6.50604e-05
0.00362426
6.56777e-05
0.00355802
6.62437e-05
0.00349126
6.67597e-05
0.00342404
6.72198e-05
0.00335642
6.76233e-05
0.00328845
6.79686e-05
0.00322019
6.82558e-05
0.00315171
6.84816e-05
0.00308307
6.86436e-05
0.00301433
6.87417e-05
0.00294556
6.87718e-05
0.00287683
6.87301e-05
0.00280821
6.86216e-05
0.00273977
6.84445e-05
0.00267158
6.8194e-05
0.00260371
6.78666e-05
0.00253625
6.74639e-05
0.00246926
6.6987e-05
0.00240282
6.64372e-05
0.00233702
6.5807e-05
0.00227192
6.50988e-05
0.0022076
6.43161e-05
0.00214415
6.34566e-05
0.00208162
6.2521e-05
0.00202011
6.15099e-05
0.00195969
6.0424e-05
0.00190043
5.92633e-05
0.00184239
5.80317e-05
0.00178567
5.67284e-05
0.00173031
5.53576e-05
0.00167639
5.39175e-05
0.00162398
5.24127e-05
0.00157314
5.08461e-05
0.00152391
4.92212e-05
0.00147638
4.75381e-05
0.00143057
4.58022e-05
0.00138656
4.40152e-05
0.00134437
4.21832e-05
0.00130407
4.03071e-05
0.00126567
3.83935e-05
0.00122923
3.64438e-05
0.00119477
3.44651e-05
0.00116231
3.24574e-05
0.00113188
3.04317e-05
0.0011035
2.83815e-05
0.00107717
2.63236e-05
0.00105292
2.42526e-05
0.00103075
2.21773e-05
0.00101064
2.01017e-05
0.000992621
1.80211e-05
0.000976664
1.59554e-05
0.000962766
1.38978e-05
0.000950914
1.18518e-05
0.000941091
9.82523e-06
0.000933275
7.81797e-06
0.000927443
5.83465e-06
0.000923564
3.8796e-06
0.000921608
1.95636e-06
0.000921542
6.57149e-08
0.000923344
-1.80174e-06
0.000926972
-3.62654e-06
0.000932386
-5.41423e-06
0.000939554
-7.16852e-06
0.000948414
-8.8622e-06
0.000958959
-1.05482e-05
0.000971108
-1.21528e-05
0.000984855
-1.375e-05
0.00100012
-1.52641e-05
0.00101688
-1.67632e-05
0.00103507
-1.8191e-05
0.00105465
-1.95834e-05
0.00107556
-2.09213e-05
0.00109777
-2.22115e-05
0.00112122
-2.34535e-05
0.00114587
-2.46434e-05
0.00117166
-2.57857e-05
0.00119855
-2.68737e-05
0.00122648
-2.79282e-05
0.00125539
-2.89083e-05
0.00128524
-2.9867e-05
0.00131595
-3.07205e-05
0.00134749
-3.15414e-05
0.00137977
-3.22859e-05
0.00141278
-3.30078e-05
0.00144649
-3.37071e-05
0.00148075
-3.42529e-05
0.00151556
-3.48185e-05
0.00155083
-3.52784e-05
0.00158655
-3.57172e-05
0.00162264
-3.60949e-05
0.00165906
-3.64133e-05
0.00169572
-3.66486e-05
0.00173259
-3.68688e-05
0.00176956
-3.69703e-05
0.0018066
-3.70484e-05
0.00184366
-3.70618e-05
0.00188065
-3.6996e-05
0.00191753
-3.68709e-05
0.0019542
-3.66693e-05
0.00199065
-3.6435e-05
0.00202683
-3.61754e-05
0.00206262
-3.57901e-05
0.00209796
-3.53488e-05
0.00213286
-3.49074e-05
0.00216724
-3.43856e-05
0.00220107
-3.38257e-05
0.00223425
-3.31764e-05
0.00226673
-3.24768e-05
0.0022985
-3.1763e-05
0.00232949
-3.09878e-05
0.00235969
-3.01901e-05
0.00238898
-2.92945e-05
0.00241733
-2.83479e-05
0.00244468
-2.73548e-05
0.00247105
-2.6373e-05
0.00249635
-2.53026e-05
0.0025205
-2.41595e-05
0.00254343
-2.29294e-05
0.00256515
-2.17157e-05
0.00258566
-2.05033e-05
0.00260491
-1.92503e-05
0.00262284
-1.79322e-05
0.00263935
-1.65079e-05
0.00265442
-1.50664e-05
0.00266807
-1.36483e-05
0.00268024
-1.21753e-05
0.00269093
-1.07008e-05
0.00270009
-9.16307e-06
0.00270762
-7.53143e-06
0.00271354
-5.91799e-06
0.00271789
-4.35456e-06
0.00272067
-2.78342e-06
0.00272186
-1.19044e-06
0.00272137
4.89994e-07
0.00271919
2.17886e-06
0.00271537
3.82342e-06
0.00270993
5.44401e-06
0.00270289
7.03487e-06
0.00269424
8.65444e-06
0.00268399
1.02481e-05
0.00267216
1.18238e-05
0.00265876
1.33977e-05
0.0026438
1.49569e-05
0.00262732
1.64841e-05
0.00260929
1.80286e-05
0.00258965
1.96339e-05
0.00256847
2.11791e-05
0.00254578
2.26946e-05
0.00252163
2.41523e-05
0.00249603
2.56013e-05
0.00246896
2.70613e-05
0.00244033
2.8633e-05
0.00241015
3.01863e-05
0.00237849
3.16565e-05
0.00234543
3.30636e-05
0.00231094
3.44867e-05
0.00227502
3.59205e-05
0.00223769
3.7328e-05
0.00219897
3.87242e-05
0.00215885
4.01174e-05
0.00211734
4.15111e-05
0.00207449
4.28549e-05
0.00203028
4.42062e-05
0.00198475
4.55354e-05
0.00193795
4.67926e-05
0.00188999
4.79656e-05
0.00184084
4.91515e-05
0.0017905
5.03433e-05
0.00173905
5.1448e-05
0.00168658
5.24664e-05
0.00163318
5.3402e-05
0.00157888
5.42983e-05
0.00152375
5.51324e-05
0.00146782
5.59253e-05
0.00141117
5.66545e-05
0.00135386
5.73065e-05
0.001296
5.78554e-05
0.00123769
5.83152e-05
0.00117905
5.86418e-05
0.00112012
5.89237e-05
0.00106093
5.91897e-05
0.00100159
5.9345e-05
0.000942253
5.9336e-05
0.000883029
5.92249e-05
0.000824006
5.90223e-05
0.000765281
5.87252e-05
0.000706899
5.83818e-05
0.000648977
5.79213e-05
0.000591574
5.74037e-05
0.000534867
5.67071e-05
0.000478972
5.58947e-05
0.000423948
5.50222e-05
0.000369862
5.40853e-05
0.000316792
5.30681e-05
0.000264856
5.19342e-05
0.000214161
5.06944e-05
0.000164769
4.93912e-05
0.000116786
4.79821e-05
7.02686e-05
4.65161e-05
2.53328e-05
4.49346e-05
-1.79051e-05
4.32366e-05
-5.94741e-05
4.15676e-05
-9.93837e-05
3.99079e-05
-0.000137434
3.80481e-05
-0.000173453
3.60164e-05
-0.000207538
3.4083e-05
-0.000239475
3.19352e-05
-0.000269286
2.98083e-05
-0.000296975
2.76881e-05
-0.000322482
2.55062e-05
-0.000345744
2.32612e-05
-0.000366686
2.09411e-05
-0.000385305
1.86182e-05
-0.000401577
1.62713e-05
-0.000415484
1.39076e-05
-0.000427024
1.15401e-05
-0.000436213
9.18911e-06
-0.000443058
6.84599e-06
-0.00044754
4.48049e-06
-0.000449676
2.13358e-06
-0.000449519
-1.58709e-07
-0.000447119
-2.40049e-06
-0.000442449
-4.66869e-06
-0.000435685
-6.76424e-06
-0.000426684
-9.0021e-06
-0.000415569
-1.11162e-05
-0.000402435
-1.31342e-05
-0.000387328
-1.51043e-05
-0.000370285
-1.70393e-05
-0.000351419
-1.8863e-05
-0.000330778
-2.06406e-05
-0.000308445
-2.23334e-05
-0.000284567
-2.38799e-05
-0.000259124
-2.54427e-05
-0.000232293
-2.68301e-05
-0.000204092
-2.82001e-05
-0.000174683
-2.94093e-05
-0.000144242
-3.04415e-05
-0.000112699
-3.15426e-05
-8.02095e-05
-3.24881e-05
-4.70003e-05
-3.32071e-05
-1.3076e-05
-3.39233e-05
2.14952e-05
-3.45721e-05
5.65994e-05
-3.51062e-05
9.20692e-05
-3.54711e-05
0.000127876
-3.58059e-05
0.000163838
-3.59608e-05
0.000199869
-3.60288e-05
0.000235796
-3.59255e-05
0.000271538
-3.57413e-05
0.000307023
-3.54851e-05
0.000342057
-3.50349e-05
0.000376569
-3.45126e-05
0.000410271
-3.37033e-05
0.000443358
-3.30872e-05
0.0004757
-3.23424e-05
0.000507122
-3.14214e-05
0.000537478
-3.03562e-05
0.000566668
-2.91909e-05
0.000594686
-2.80196e-05
0.000621397
-2.67132e-05
0.000646758
-2.53627e-05
0.000670687
-2.39304e-05
0.000693032
-2.23464e-05
0.000713749
-2.07177e-05
0.000732702
-1.89553e-05
0.000750037
-1.73378e-05
0.000765579
-1.55441e-05
0.000779374
-1.37975e-05
0.000791403
-1.20295e-05
0.000801613
-1.0211e-05
0.000809908
-8.29516e-06
0.000816319
-6.4112e-06
0.000820725
-4.40638e-06
0.000823232
-2.5068e-06
0.00082385
-6.17916e-07
0.000822644
1.20639e-06
0.000819631
3.01166e-06
0.000814736
4.89387e-06
0.000808076
6.66064e-06
0.000799632
8.44426e-06
0.000789524
1.01088e-05
0.000777718
1.18069e-05
0.000764371
1.33481e-05
0.000749631
1.47407e-05
0.000733522
1.61094e-05
0.000716033
1.7489e-05
0.000697427
1.86065e-05
0.000677652
1.97766e-05
0.000656734
2.09191e-05
0.000634816
2.19188e-05
0.000612107
2.27087e-05
0.000588602
2.35053e-05
0.000564462
2.41403e-05
0.000539797
2.46655e-05
0.000514735
2.50624e-05
0.000489361
2.53735e-05
0.000463713
2.56476e-05
0.000437982
2.57301e-05
0.000412228
2.57547e-05
0.000386544
2.56841e-05
0.000360959
2.55855e-05
0.000335604
2.53556e-05
0.000310596
2.50074e-05
0.000285964
2.46323e-05
0.000261782
2.41821e-05
0.000238103
2.36783e-05
0.000214991
2.31117e-05
0.000192495
2.24957e-05
0.000170684
2.18112e-05
0.000149564
2.11192e-05
0.000129158
2.04062e-05
0.00010953
1.96273e-05
9.0647e-05
1.88822e-05
7.24788e-05
1.81674e-05
5.51769e-05
1.7301e-05
3.86355e-05
1.65406e-05
2.2935e-05
1.56998e-05
8.0142e-06
1.49202e-05
-6.07697e-06
1.40906e-05
-1.93974e-05
1.33199e-05
-3.19173e-05
1.25193e-05
-4.37059e-05
1.17882e-05
-5.47492e-05
1.1043e-05
-6.49678e-05
1.02184e-05
-7.45278e-05
9.55971e-06
-8.33253e-05
8.79718e-06
-9.13959e-05
8.07013e-06
-9.87872e-05
7.39077e-06
-0.000105515
6.72685e-06
-0.000111468
5.95261e-06
-0.000116789
5.32137e-06
-0.000121517
4.72865e-06
-0.000125546
4.02879e-06
-0.000128904
3.35826e-06
-0.000131591
2.6864e-06
-0.000133649
2.05792e-06
-0.000135134
1.48598e-06
-0.000135976
8.4327e-07
-0.000136258
2.82097e-07
-0.000135951
-3.07109e-07
-0.000135093
-8.57845e-07
-0.000133681
-1.41014e-06
-0.000131717
-1.96223e-06
-0.000129222
-2.49363e-06
-0.000126102
-3.11941e-06
-0.000122458
-3.64502e-06
-0.000118226
-4.23261e-06
-0.000113397
-4.82887e-06
-0.000107972
-5.42526e-06
-0.00010194
-6.03093e-06
-9.53081e-05
-6.63263e-06
-8.80662e-05
-7.24275e-06
-8.03348e-05
-7.73199e-06
-7.19659e-05
-8.36898e-06
-6.3134e-05
-8.83156e-06
-5.37359e-05
-9.39769e-06
-4.38721e-05
-9.86348e-06
-3.35502e-05
-1.0322e-05
-2.27696e-05
-1.07808e-05
-1.16125e-05
-1.11575e-05
-1.20331e-07
-1.14924e-05
1.16108e-05
-1.17312e-05
2.34892e-05
-1.18784e-05
3.54605e-05
-1.19714e-05
4.74059e-05
-1.19456e-05
5.93176e-05
-1.19122e-05
7.11667e-05
-1.18496e-05
8.285e-05
-1.16837e-05
9.44313e-05
-1.15815e-05
0.00010578
-1.13492e-05
0.000116917
-1.11369e-05
0.000127723
-1.08061e-05
0.000138178
-1.04545e-05
0.000148169
-9.99148e-06
0.000157774
-9.60534e-06
0.000167004
-9.22977e-06
0.000175795
-8.79049e-06
0.00018409
-8.29582e-06
0.000191843
-7.75247e-06
0.000199014
-7.17011e-06
0.000205468
-6.45431e-06
0.000211122
-5.65347e-06
0.000215888
-4.7655e-06
0.000219896
-4.00777e-06
0.000223266
-3.3703e-06
0.00022596
-2.69354e-06
0.000227939
-1.97912e-06
0.000229153
-1.21398e-06
0.00022947
-3.16429e-07
0.000228962
5.07545e-07
0.000227649
1.31332e-06
0.000225549
2.10072e-06
0.000222623
2.92606e-06
0.000219
3.62263e-06
0.000214671
4.32875e-06
0.000209585
5.08585e-06
0.000203752
5.83341e-06
0.000197193
6.55841e-06
0.0001898
7.39393e-06
0.000181627
8.1729e-06
0.000172741
8.88565e-06
0.000162934
9.80665e-06
0.000152129
1.08049e-05
0.000139394
1.27351e-05
0.000125631
1.37629e-05
0.000109137
1.64939e-05
8.95747e-05
1.95618e-05
7.87555e-05
1.08188e-05
8.64898e-05
-7.73463e-06
8.92723e-05
-2.78288e-06
7.735e-05
1.1922e-05
5.79985e-05
1.93512e-05
4.66613e-05
1.13369e-05
5.51773e-05
-8.51616e-06
5.65293e-05
-1.35212e-06
3.90341e-05
1.74951e-05
1.90259e-05
2.00081e-05
1.3877e-06
1.76381e-05
-1.47985e-05
1.61862e-05
-2.96581e-05
1.48595e-05
-4.34606e-05
1.38025e-05
-5.64603e-05
1.29997e-05
-6.88181e-05
1.23578e-05
-8.06785e-05
1.18605e-05
-9.21483e-05
1.14698e-05
-0.000103272
1.11236e-05
-0.000114045
1.07727e-05
-0.000124332
1.0287e-05
-0.000134104
9.77209e-06
-0.000143337
9.2332e-06
-0.00015188
8.54367e-06
-0.000159922
8.04205e-06
-0.000167222
7.30001e-06
-0.000173717
6.49429e-06
-0.000179414
5.69733e-06
-0.000184223
4.80923e-06
-0.000188229
4.00617e-06
-0.000191387
3.15727e-06
-0.000193619
2.23228e-06
-0.000194935
1.31582e-06
-0.000195203
2.67048e-07
-0.00019455
-6.52594e-07
-0.000193132
-1.41866e-06
-0.000190834
-2.29743e-06
-0.000187619
-3.21515e-06
-0.000183471
-4.14874e-06
-0.000178316
-5.15451e-06
-0.000172337
-5.97925e-06
-0.000165696
-6.64086e-06
-0.000158501
-7.19551e-06
-0.000150521
-7.98008e-06
-0.000141646
-8.87526e-06
-0.000132022
-9.62418e-06
-0.000121851
-1.0171e-05
-0.000111176
-1.06751e-05
-0.000100024
-1.11517e-05
-8.85005e-05
-1.15238e-05
-7.66381e-05
-1.18624e-05
-6.45861e-05
-1.2052e-05
-5.24424e-05
-1.21437e-05
-4.02507e-05
-1.21917e-05
-2.81567e-05
-1.20942e-05
-1.62308e-05
-1.1926e-05
-4.58402e-06
-1.16469e-05
6.33114e-06
-1.09153e-05
1.66944e-05
-1.03633e-05
2.69515e-05
-1.02571e-05
3.67687e-05
-9.81722e-06
4.61222e-05
-9.35345e-06
5.49927e-05
-8.87041e-06
6.32504e-05
-8.25763e-06
7.09066e-05
-7.6561e-06
7.79603e-05
-7.05366e-06
8.43992e-05
-6.43895e-06
9.01857e-05
-5.78649e-06
9.54373e-05
-5.25149e-06
0.000100086
-4.64848e-06
0.000103984
-3.89745e-06
0.000107016
-3.03177e-06
0.000109275
-2.25891e-06
0.000110776
-1.5001e-06
0.000111679
-9.03075e-07
0.000112105
-4.25603e-07
0.000111776
3.30209e-07
0.000110562
1.21427e-06
0.000108294
2.26793e-06
0.0001048
3.49501e-06
0.000100289
4.5114e-06
9.5357e-05
4.93224e-06
9.00093e-05
5.34817e-06
8.37478e-05
6.26189e-06
7.6561e-05
7.18732e-06
6.82274e-05
8.33414e-06
5.89439e-05
9.28411e-06
4.89126e-05
1.00318e-05
3.82285e-05
1.06847e-05
2.67187e-05
1.15102e-05
1.42426e-05
1.24766e-05
8.93539e-07
1.33495e-05
-1.33643e-05
1.42583e-05
-2.84758e-05
1.51119e-05
-4.435e-05
1.58747e-05
-6.0751e-05
1.64015e-05
-7.80522e-05
1.73017e-05
-9.63193e-05
1.82676e-05
-0.000115523
1.92046e-05
-0.000135592
2.0069e-05
-0.000156465
2.0873e-05
-0.000178165
2.17007e-05
-0.000200445
2.22797e-05
-0.000223562
2.31173e-05
-0.000247284
2.37223e-05
-0.000271508
2.42238e-05
-0.000296387
2.48793e-05
-0.000322113
2.5726e-05
-0.000348299
2.61858e-05
-0.00037501
2.67108e-05
-0.000402019
2.70083e-05
-0.000428751
2.6732e-05
-0.000455267
2.65149e-05
-0.00048168
2.64129e-05
-0.000508242
2.65622e-05
-0.000534547
2.63046e-05
-0.000560347
2.58007e-05
-0.000585065
2.47181e-05
-0.000608791
2.37259e-05
-0.00063144
2.26495e-05
-0.000653041
2.16015e-05
-0.000673413
2.03714e-05
-0.000692159
1.87455e-05
-0.000709305
1.71454e-05
-0.000724586
1.528e-05
-0.000737274
1.26867e-05
-0.000747718
1.04417e-05
-0.00075608
8.36013e-06
-0.000762237
6.15478e-06
-0.0007658
3.56121e-06
-0.000766668
8.66426e-07
-0.000764802
-1.86697e-06
-0.000760027
-4.77736e-06
-0.000752605
-7.42299e-06
-0.000742508
-1.00982e-05
-0.000729776
-1.27333e-05
-0.000714105
-1.56723e-05
-0.000695421
-1.86855e-05
-0.000673863
-2.15595e-05
-0.000649565
-2.42986e-05
-0.000622945
-2.66208e-05
-0.000594052
-2.88934e-05
-0.000563091
-3.09612e-05
-0.000529653
-3.34379e-05
-0.000494029
-3.5623e-05
-0.000456466
-3.7563e-05
-0.000417421
-3.90451e-05
-0.000376974
-4.04483e-05
-0.000335524
-4.14511e-05
-0.000293023
-4.25017e-05
-0.000249738
-4.32848e-05
-0.000205758
-4.39801e-05
-0.000161239
-4.45203e-05
-0.000116693
-4.45466e-05
-7.26249e-05
-4.40687e-05
-2.91569e-05
-4.3468e-05
1.35438e-05
-4.27004e-05
5.52321e-05
-4.16883e-05
9.56219e-05
-4.03902e-05
0.000134567
-3.89464e-05
0.000171933
-3.73663e-05
0.000207347
-3.54147e-05
0.000240374
-3.30274e-05
0.000270955
-3.05816e-05
0.000298901
-2.79468e-05
0.000324056
-2.51555e-05
0.000346162
-2.21061e-05
0.000364966
-1.88036e-05
0.000380568
-1.56021e-05
0.000392788
-1.22199e-05
0.000401496
-8.70729e-06
0.000406399
-4.9018e-06
0.000407253
-8.52828e-07
0.000404345
2.9088e-06
0.000397313
7.03333e-06
0.000386405
1.09091e-05
0.000371383
1.50227e-05
0.000352461
1.89241e-05
0.000329374
2.30893e-05
0.000302564
2.68127e-05
0.000271568
3.09983e-05
0.000236925
3.46447e-05
0.000198254
3.86744e-05
0.000156004
4.22523e-05
0.000110149
4.58576e-05
6.07388e-05
4.94106e-05
7.96942e-06
5.27695e-05
-4.77331e-05
5.5703e-05
-0.000106664
5.89321e-05
-0.000168543
6.18797e-05
-0.000233057
6.45125e-05
-0.000300028
6.6971e-05
-0.000369399
6.93713e-05
-0.000441104
7.17054e-05
-0.000514974
7.38708e-05
-0.000590697
7.57235e-05
-0.000668093
7.73975e-05
-0.000747039
7.89474e-05
-0.000827308
8.02698e-05
-0.000908671
8.13648e-05
-0.00099086
8.21908e-05
-0.00107373
8.28693e-05
-0.0011571
8.33797e-05
-0.00124079
8.36903e-05
-0.00132459
8.38008e-05
-0.0014082
8.36093e-05
-0.00149137
8.31718e-05
-0.00157389
8.25237e-05
-0.00165549
8.15974e-05
-0.00173591
8.04175e-05
-0.00181487
7.89613e-05
-0.00189218
7.73042e-05
-0.00196765
7.54691e-05
-0.00204102
7.33674e-05
-0.00211207
7.1053e-05
-0.00218062
6.85459e-05
-0.00224646
6.58456e-05
-0.00230944
6.29801e-05
-0.00236942
5.99744e-05
-0.00242635
5.69261e-05
-0.00248014
5.37983e-05
-0.00253069
5.05462e-05
-0.00257786
4.71689e-05
-0.00262162
4.37526e-05
-0.00266193
4.03172e-05
-0.00269881
3.68763e-05
-0.00273232
3.35095e-05
-0.00276247
3.01544e-05
-0.00278913
2.66562e-05
-0.00281233
2.32064e-05
-0.00283209
1.97616e-05
-0.00284843
1.63344e-05
-0.00286135
1.29158e-05
-0.00287079
9.44752e-06
-0.00287675
5.96389e-06
-0.0028792
2.45127e-06
-0.00287803
-1.16955e-06
-0.0028734
-4.63616e-06
-0.00286529
-8.11118e-06
-0.0028538
-1.14851e-05
-0.00283893
-1.48655e-05
-0.00282074
-1.81909e-05
-0.00279939
-2.13438e-05
-0.00277484
-2.45504e-05
-0.00274707
-2.7769e-05
-0.00271639
-3.06857e-05
-0.00268289
-3.34917e-05
-0.00264664
-3.62501e-05
-0.00260792
-3.87229e-05
-0.00256674
-4.11866e-05
-0.00252324
-4.35028e-05
-0.00247764
-4.55979e-05
-0.00243004
-4.75961e-05
-0.00238061
-4.94363e-05
-0.00232954
-5.10637e-05
-0.00227697
-5.2573e-05
-0.0022232
-5.3777e-05
-0.00216824
-5.49563e-05
-0.00211231
-5.59253e-05
-0.00205566
-5.66504e-05
-0.00199845
-5.72081e-05
-0.00194075
-5.77073e-05
-0.00188284
-5.79144e-05
-0.00182496
-5.78773e-05
-0.00176719
-5.77679e-05
-0.00170968
-5.75163e-05
-0.00165266
-5.70189e-05
-0.00159631
-5.6347e-05
-0.00154093
-5.53829e-05
-0.00148656
-5.43676e-05
-0.00143349
-5.30699e-05
-0.00138183
-5.1667e-05
-0.00133175
-5.00766e-05
-0.00128351
-4.82486e-05
-0.00123709
-4.64222e-05
-0.00119296
-4.41271e-05
-0.00115123
-4.17305e-05
-0.00111204
-3.91964e-05
-0.0010755
-3.65432e-05
-0.00104181
-3.3689e-05
-0.00101122
-3.05879e-05
-0.000983947
-2.72768e-05
-0.000960119
-2.38301e-05
-0.000939921
-2.02011e-05
-0.000923537
-1.63852e-05
-0.00091114
-1.23985e-05
-0.000902883
-8.25792e-06
-0.000898909
-3.974e-06
-0.000899333
4.24179e-07
-0.000904295
4.96457e-06
-0.000913929
9.63574e-06
-0.000928338
1.44114e-05
-0.000947618
1.92805e-05
-0.000971836
2.42182e-05
-0.00100105
2.9213e-05
-0.00103528
3.42297e-05
-0.00107454
3.92596e-05
-0.00111884
4.42956e-05
-0.00116814
4.93093e-05
-0.00122239
5.42458e-05
-0.00128148
5.90872e-05
-0.00134528
6.38083e-05
-0.0014137
6.84248e-05
-0.0014866
7.29003e-05
-0.00156381
7.7213e-05
-0.00164516
8.1344e-05
-0.00173041
8.52574e-05
-0.00181937
8.89533e-05
-0.00191176
9.23889e-05
-0.00200733
9.55749e-05
-0.00210582
9.84858e-05
-0.00220694
0.000101117
-0.0023104
0.000103461
-0.00241594
0.000105531
-0.00252324
0.000107307
-0.00263204
0.000108792
-0.002742
0.000109964
-0.00285284
0.000110839
-0.00296425
0.00011141
-0.00307593
0.00011169
-0.00318762
0.000111694
-0.00329903
0.000111415
-0.0034099
0.000110871
-0.00351996
0.000110065
-0.00362897
0.000109019
-0.0037367
0.000107736
-0.00384291
0.000106213
-0.00394737
0.000104465
-0.00404989
0.000102522
-0.00415026
0.000100364
-0.00424829
9.80367e-05
-0.00434383
9.55419e-05
-0.00443668
9.28499e-05
-0.00452669
9.00156e-05
-0.00461376
8.7071e-05
-0.00469778
8.40193e-05
-0.00477858
8.0803e-05
-0.00485607
7.74892e-05
-0.00493015
7.4087e-05
-0.00500072
7.05687e-05
-0.00506771
6.69868e-05
-0.00513103
6.3321e-05
-0.00519063
5.96003e-05
-0.00524645
5.58211e-05
-0.00529844
5.19806e-05
-0.00534654
4.80976e-05
-0.00539075
4.42115e-05
-0.00543104
4.0291e-05
-0.00546736
3.63228e-05
-0.00549968
3.23233e-05
-0.00552803
2.83454e-05
-0.00555237
2.43445e-05
-0.00557274
2.03616e-05
-0.0055891
1.63636e-05
-0.00560148
1.2377e-05
-0.00560987
8.39649e-06
-0.00561433
4.46228e-06
-0.00561478
4.5135e-07
-0.00561128
-3.5059e-06
-0.00560387
-7.40315e-06
-0.00559261
-1.12571e-05
-0.00557753
-1.50863e-05
-0.00555862
-1.89088e-05
-0.00553591
-2.27043e-05
-0.00550946
-2.64529e-05
-0.00547929
-3.01725e-05
-0.00544544
-3.38469e-05
-0.00540798
-3.7462e-05
-0.00536691
-4.10662e-05
-0.0053223
-4.46146e-05
-0.00527422
-4.80744e-05
-0.00522268
-5.15388e-05
-0.00516774
-5.49393e-05
-0.00510943
-5.83104e-05
-0.00504783
-6.16043e-05
-0.00498298
-6.48458e-05
-0.00491492
-6.80582e-05
-0.00484371
-7.12164e-05
-0.0047694
-7.43038e-05
-0.00469208
-7.73258e-05
-0.00461178
-8.02977e-05
-0.00452853
-8.32502e-05
-0.00444243
-8.61038e-05
-0.00435352
-8.89119e-05
-0.00426187
-9.16455e-05
-0.00416754
-9.43319e-05
-0.00407058
-9.69584e-05
-0.00397107
-9.95099e-05
-0.00386906
-0.00010202
-0.0037646
-0.000104456
-0.00365781
-0.000106792
-0.00354872
-0.000109096
-0.00343737
-0.000111348
-0.00332388
-0.000113492
-0.00320832
-0.000115561
-0.00309072
-0.000117595
-0.00297118
-0.000119545
-0.00284976
-0.000121418
-0.00272655
-0.000123217
-0.0026016
-0.000124949
-0.00247499
-0.000126614
-0.00234679
-0.000128202
-0.0022171
-0.000129691
-0.00208601
-0.000131085
-0.00195357
-0.000132447
-0.00181984
-0.000133726
-0.00168494
-0.000134906
-0.00154894
-0.000135995
-0.00141194
-0.000137001
-0.00127401
-0.000137933
-0.00113521
-0.000138791
-0.000995779
-0.000139435
-0.000856251
-0.000139529
-0.000717301
-0.000138953
-0.000576342
-0.000140962
-0.000429909
-0.000146435
-0.000285337
-0.00014457
-0.000143963
-0.000141371
-0.000143962
7.31382e-05
-0.000142532
0.000142096
-0.000138867
0.000210479
-0.000138583
0.000279203
-0.000140077
0.000349171
-0.000140385
0.000419576
-0.000140241
0.000489844
-0.000140227
0.000559999
-0.000140202
0.000630062
-0.000140134
0.000700066
-0.000140048
0.000770053
-0.000139955
0.000839981
-0.000139821
0.000909818
-0.000139658
0.00097956
-0.000139473
0.0010492
-0.000139258
0.00111872
-0.000139018
0.00118812
-0.00013876
0.00125738
-0.000138484
0.00132649
-0.00013819
0.00139544
-0.000137877
0.00146423
-0.000137542
0.00153284
-0.000137187
0.00160126
-0.000136812
0.00166948
-0.000136415
0.00173749
-0.000136001
0.00180529
-0.000135564
0.00187286
-0.000135106
0.00194019
-0.000134626
0.00200728
-0.00013413
0.0020741
-0.000133609
0.00214065
-0.000133064
0.00220692
-0.0001325
0.00227289
-0.000131911
0.00233856
-0.0001313
0.00240391
-0.000130666
0.00246894
-0.000130017
0.00253363
-0.000129339
0.00259796
-0.000128638
0.00266194
-0.000127916
0.00272554
-0.000127171
0.00278876
-0.000126406
0.00285159
-0.000125616
0.00291401
-0.000124806
0.00297602
-0.000123972
0.0030376
-0.000123118
0.00309873
-0.000122231
0.00315942
-0.00012133
0.00321964
-0.00012041
0.00327939
-0.000119463
0.00333866
-0.000118493
0.00339743
-0.000117501
0.00345569
-0.000116488
0.00351344
-0.000115456
0.00357066
-0.000114396
0.00362734
-0.000113316
0.00368347
-0.000112215
0.00373903
-0.000111089
0.00379403
-0.000109942
0.00384843
-0.000108772
0.00390225
-0.000107581
0.00395545
-0.000106366
0.00400804
-0.00010513
0.00406
-0.000103871
0.00411131
-0.00010259
0.00416198
-0.000101288
0.00421198
-9.99615e-05
0.00426131
-9.86138e-05
0.00430996
-9.7243e-05
0.00435791
-9.58508e-05
0.00440515
-9.44339e-05
0.00445167
-9.2996e-05
0.00449746
-9.15408e-05
0.00454252
-9.00572e-05
0.00458682
-8.85557e-05
0.00463036
-8.70329e-05
0.00467312
-8.54739e-05
0.0047151
-8.39124e-05
0.00475629
-8.23203e-05
0.00479667
-8.07096e-05
0.00483623
-7.90684e-05
0.00487496
-7.74124e-05
0.00491285
-7.57278e-05
0.00494989
-7.40281e-05
0.00498607
-7.23047e-05
0.00502138
-7.05593e-05
0.00505581
-6.87986e-05
0.00508935
-6.70105e-05
0.00512196
-6.51711e-05
0.00515365
-6.33424e-05
0.00518442
-6.14909e-05
0.00521425
-5.96146e-05
0.00524314
-5.77158e-05
0.00527107
-5.57919e-05
0.00529802
-5.38445e-05
0.00532398
-5.1876e-05
0.00534895
-4.98857e-05
0.00537293
-4.78861e-05
0.00539588
-4.58486e-05
0.00541781
-4.37943e-05
0.0054387
-4.17192e-05
0.00545854
-3.96264e-05
0.00547732
-3.75027e-05
0.00549503
-3.5362e-05
0.00551166
-3.32029e-05
0.0055272
-3.1018e-05
0.00554165
-2.88202e-05
0.00555497
-2.65911e-05
0.00556718
-2.4351e-05
0.00557825
-2.20818e-05
0.00558817
-1.97873e-05
0.00559694
-1.74757e-05
0.00560456
-1.51682e-05
0.005611
-1.28191e-05
0.00561625
-1.04504e-05
0.00562031
-8.06724e-06
0.00562317
-5.66415e-06
0.00562483
-3.24039e-06
0.00562525
-8.02842e-07
0.00562446
1.69022e-06
0.00562242
4.16244e-06
0.00561914
6.63184e-06
0.00561459
9.15049e-06
0.00560879
1.16612e-05
0.00560171
1.42027e-05
0.00559337
1.67507e-05
0.00558373
1.93299e-05
0.0055728
2.19038e-05
0.00556056
2.45159e-05
0.00554703
2.71083e-05
0.00553219
2.97239e-05
0.00551605
3.23376e-05
0.00549859
3.49698e-05
0.0054798
3.76344e-05
0.00545967
4.02811e-05
0.0054382
4.29503e-05
0.00541542
4.55992e-05
0.0053913
4.82644e-05
0.00536585
5.09391e-05
0.00533906
5.35985e-05
0.00531094
5.62684e-05
0.00528148
5.89359e-05
0.00525068
6.1602e-05
0.00521856
6.4257e-05
0.0051851
6.69208e-05
0.00515033
6.95522e-05
0.00511424
7.21843e-05
0.00507683
7.48156e-05
0.00503812
7.74141e-05
0.00499811
8.00031e-05
0.00495681
8.25771e-05
0.00491424
8.51264e-05
0.0048704
8.76589e-05
0.0048253
9.01622e-05
0.00477897
9.26308e-05
0.0047314
9.50921e-05
0.00468264
9.74812e-05
0.00463269
9.9856e-05
0.00458155
0.000102211
0.00452927
0.000104489
0.00447587
0.000106739
0.00442135
0.000108938
0.00436575
0.000111099
0.00430912
0.000113173
0.00425147
0.000115211
0.00419282
0.000117185
0.00413322
0.000119092
0.00407269
0.000120938
0.00401128
0.000122696
0.00394902
0.000124378
0.00388596
0.00012599
0.00382213
0.000127507
0.00375758
0.000128943
0.00369236
0.00013028
0.00362651
0.000131524
0.00356008
0.000132675
0.00349314
0.000133698
0.00342574
0.00013462
0.00335792
0.000135438
0.00328975
0.000136143
0.00322128
0.000136724
0.00315258
0.00013718
0.00308371
0.00013752
0.00301472
0.00013773
0.00294571
0.000137781
0.00287675
0.000137702
0.00280788
0.000137488
0.00273919
0.000137133
0.00267076
0.000136632
0.00260265
0.000135978
0.00253493
0.000135178
0.00246768
0.000134238
0.002401
0.00013312
0.00233494
0.000131861
0.00226959
0.00013045
0.00220502
0.000128882
0.00214132
0.000127158
0.00207854
0.000125299
0.00201679
0.000123257
0.00195614
0.000121078
0.00189665
0.000118757
0.00183839
0.000116286
0.00178143
0.000113686
0.00172587
0.000110919
0.00167176
0.000108034
0.00161915
0.000105019
0.0015681
0.000101893
0.00151871
9.86122e-05
0.00147101
9.52382e-05