/*--------------------------------*- C++ -*----------------------------------*\
| =========                 |                                                 |
| \\      /  F ield         | OpenFOAM: The Open Source CFD Toolbox           |
|  \\    /   O peration     | Version:  2412                                  |
|   \\  /    A nd           | Website:  www.openfoam.com                      |
|    \\/     M anipulation  |                                                 |
\*---------------------------------------------------------------------------*/
FoamFile
{
    version     2.0;
    format      ascii;
    arch        "LSB;label=32;scalar=64";
    class       volScalarField;
    location    "7.2";
    object      p_rgh;
}
// * * * * * * * * * * * * * * * * * * * * * * * * * * * * * * * * * * * * * //

dimensions      [1 -1 -2 0 0 0 0];

internalField   nonuniform List<scalar> 
6400
(
15785.5
15782.8
15779
15773.9
15768.3
15762.8
15757.8
15753.5
15750
15747.4
15745.7
15744.9
15745
15745.9
15747.8
15750.7
15754.5
15759.4
15765.4
15772.7
15781.4
15791.5
15803.2
15816.7
15831.9
15849
15867.9
15888.6
15910.9
15934.5
15958.9
15983.8
16008.4
16032.1
16054.2
16074
16090.8
16104.1
16113.3
16118.1
16118.3
16114
16105.3
16092.5
16076.1
16056.6
16034.7
16011.1
15986.5
15961.7
15937.2
15913.6
15891.2
15870.4
15851.3
15834.1
15818.8
15805.2
15793.4
15783.3
15774.6
15767.3
15761.2
15756.3
15752.5
15749.6
15747.7
15746.7
15746.5
15747.3
15749
15751.6
15755.1
15759.4
15764.5
15770
15775.7
15780.9
15784.7
15786.5
15786.9
15784.4
15781.2
15776.9
15772.2
15767.5
15763.2
15759.6
15756.6
15754.4
15753.1
15752.6
15752.9
15754.2
15756.3
15759.3
15763.3
15768.3
15774.4
15781.7
15790.2
15800
15811.2
15824
15838.2
15854.1
15871.5
15890.3
15910.4
15931.5
15953.2
15975.2
15996.8
16017.6
16036.9
16054.1
16068.6
16080.1
16088
16092.2
16092.5
16088.8
16081.3
16070.2
16056
16039.1
16020
15999.4
15977.8
15955.9
15934.1
15913
15892.8
15873.8
15856.4
15840.4
15826
15813.2
15801.9
15792
15783.5
15776.2
15770.1
15765.1
15761.1
15758
15755.8
15754.6
15754.2
15754.7
15756
15758.1
15761.1
15764.8
15769.1
15773.9
15778.7
15783.1
15786.5
15788.9
15791.5
15788.6
15785.3
15781.5
15777.4
15773.4
15769.8
15766.6
15764.1
15762.4
15761.3
15761.1
15761.7
15763.2
15765.5
15768.6
15772.7
15777.8
15783.8
15790.9
15799.2
15808.5
15819.2
15831.1
15844.3
15858.8
15874.5
15891.4
15909.3
15927.9
15947
15966.1
15984.9
16002.8
16019.3
16034.1
16046.5
16056.3
16063.1
16066.7
16066.9
16063.8
16057.4
16048
16035.9
16021.4
16005
15987.3
15968.6
15949.5
15930.5
15911.8
15893.8
15876.9
15861
15846.4
15833.1
15821.2
15810.5
15801
15792.8
15785.7
15779.6
15774.5
15770.4
15767.2
15764.9
15763.4
15762.8
15763
15764
15765.8
15768.3
15771.4
15775.1
15779.2
15783.3
15787.2
15790.6
15793.6
15797.6
15793.9
15790.2
15786.4
15782.5
15778.9
15775.6
15772.9
15770.8
15769.3
15768.6
15768.7
15769.5
15771.1
15773.6
15776.9
15781
15786
15792
15798.8
15806.7
15815.6
15825.6
15836.7
15848.9
15862.1
15876.4
15891.6
15907.6
15924.2
15941.1
15958
15974.5
15990.2
16004.7
16017.6
16028.4
16036.9
16042.8
16046
16046.2
16043.5
16038
16029.8
16019.3
16006.7
15992.4
15976.9
15960.5
15943.6
15926.7
15910.1
15894
15878.7
15864.4
15851
15838.8
15827.6
15817.6
15808.6
15800.7
15793.8
15787.9
15782.8
15778.7
15775.4
15772.9
15771.2
15770.4
15770.3
15771
15772.4
15774.6
15777.4
15780.6
15784.3
15788.2
15792.1
15795.9
15799.6
15804.1
15799.6
15795.3
15791.3
15787.5
15784
15781
15778.6
15776.8
15775.6
15775.2
15775.5
15776.6
15778.4
15781
15784.4
15788.5
15793.5
15799.3
15805.9
15813.4
15821.8
15831.1
15841.3
15852.5
15864.5
15877.5
15891.2
15905.5
15920.3
15935.4
15950.4
15965.1
15979
15991.8
16003.2
16012.8
16020.3
16025.6
16028.3
16028.6
16026.2
16021.4
16014.2
16004.9
15993.8
15981.2
15967.4
15952.9
15937.9
15922.9
15908
15893.6
15879.8
15866.8
15854.7
15843.4
15833.1
15823.8
15815.3
15807.8
15801.1
15795.3
15790.3
15786.2
15782.8
15780.2
15778.3
15777.2
15776.9
15777.3
15778.5
15780.3
15782.8
15785.8
15789.3
15793.1
15797.2
15801.6
15806.1
15810.4
15805.2
15800.3
15796
15792.2
15788.8
15786
15783.8
15782.3
15781.4
15781.3
15781.8
15783.1
15785.2
15787.9
15791.4
15795.5
15800.4
15806
15812.4
15819.4
15827.2
15835.8
15845.2
15855.3
15866.3
15877.9
15890.2
15903
15916.3
15929.7
15943.1
15956.2
15968.7
15980.2
15990.4
15999
16005.8
16010.5
16013
16013.2
16011.1
16006.8
16000.5
15992.2
15982.3
15971
15958.7
15945.7
15932.4
15918.9
15905.6
15892.7
15880.4
15868.6
15857.6
15847.4
15838
15829.3
15821.4
15814.3
15807.9
15802.3
15797.3
15793.2
15789.7
15786.9
15784.9
15783.6
15783
15783.2
15784
15785.6
15787.8
15790.6
15794
15797.8
15802.2
15807.2
15812.5
15816.2
15810.4
15804.9
15800.4
15796.5
15793.3
15790.6
15788.6
15787.3
15786.7
15786.8
15787.7
15789.2
15791.5
15794.4
15797.9
15802.1
15806.9
15812.3
15818.3
15824.9
15832.2
15840
15848.5
15857.6
15867.4
15877.8
15888.7
15900.2
15912
15924
15936.1
15947.9
15959.2
15969.6
15978.9
15986.8
15993
15997.3
15999.6
15999.8
15998
15994.1
15988.3
15980.8
15971.8
15961.6
15950.5
15938.8
15926.8
15914.8
15902.9
15891.4
15880.3
15869.9
15860
15850.8
15842.2
15834.3
15827
15820.3
15814.2
15808.7
15803.9
15799.7
15796.1
15793.2
15791
15789.4
15788.6
15788.5
15789
15790.3
15792.3
15795
15798.3
15802.3
15806.8
15812.4
15818.3
15821.3
15814.9
15809.1
15804.4
15800.4
15797.2
15794.6
15792.8
15791.8
15791.5
15791.9
15793.1
15794.9
15797.3
15800.4
15804.1
15808.3
15813
15818.2
15823.9
15830.1
15836.7
15843.8
15851.3
15859.4
15868
15877.1
15886.8
15896.9
15907.4
15918.2
15929.1
15939.9
15950.2
15959.9
15968.5
15975.8
15981.6
15985.6
15987.8
15988.1
15986.4
15982.9
15977.5
15970.6
15962.3
15952.9
15942.7
15932
15921.2
15910.4
15899.8
15889.5
15879.8
15870.6
15861.8
15853.7
15846
15838.8
15832.1
15825.9
15820.1
15814.8
15810.1
15805.8
15802.2
15799.1
15796.6
15794.8
15793.6
15793.2
15793.5
15794.6
15796.4
15798.9
15802.2
15806.2
15811
15816.9
15823.3
15825.3
15818.7
15812.6
15807.7
15803.7
15800.5
15798.1
15796.5
15795.7
15795.7
15796.5
15798
15800.1
15802.8
15806.1
15810
15814.2
15818.9
15823.9
15829.3
15835
15840.9
15847.2
15853.8
15860.8
15868.2
15876
15884.3
15893.1
15902.4
15912
15922
15931.9
15941.7
15950.8
15959
15965.9
15971.4
15975.3
15977.4
15977.8
15976.2
15973
15967.9
15961.4
15953.4
15944.6
15935
15925.2
15915.3
15905.6
15896.2
15887.2
15878.8
15870.8
15863.3
15856.2
15849.4
15843
15837
15831.2
15825.8
15820.7
15816
15811.7
15807.9
15804.5
15801.8
15799.7
15798.2
15797.4
15797.4
15798.2
15799.8
15802.2
15805.4
15809.4
15814.4
15820.6
15827.3
15828.5
15821.6
15815.3
15810.3
15806.2
15803.1
15800.9
15799.5
15799.1
15799.4
15800.6
15802.4
15804.9
15808
15811.6
15815.6
15820
15824.6
15829.5
15834.6
15839.7
15845
15850.4
15856
15861.8
15867.9
15874.3
15881.2
15888.7
15896.8
15905.4
15914.5
15923.9
15933.2
15942.1
15950.1
15956.9
15962.3
15966.1
15968.2
15968.6
15967.3
15964.1
15959.3
15952.9
15945.2
15936.4
15927.3
15917.9
15908.9
15900.2
15892
15884.3
15877.2
15870.6
15864.3
15858.4
15852.7
15847.1
15841.7
15836.4
15831.3
15826.4
15821.7
15817.3
15813.3
15809.7
15806.6
15804.1
15802.2
15801.1
15800.7
15801.2
15802.5
15804.8
15807.9
15812
15817.1
15823.5
15830.4
15830.7
15823.7
15817.2
15812.1
15808
15805
15802.9
15801.9
15801.8
15802.6
15804.2
15806.5
15809.4
15812.9
15816.9
15821.2
15825.7
15830.4
15835.2
15839.9
15844.6
15849.2
15853.7
15858.1
15862.6
15867.2
15872.1
15877.5
15883.6
15890.4
15898
15906.5
15915.5
15924.7
15933.6
15941.8
15948.6
15954
15957.7
15959.8
15960.4
15959.2
15956.3
15951.5
15945.2
15937.2
15928.5
15919.2
15910.2
15901.7
15894
15887
15880.8
15875.1
15870
15865.1
15860.5
15855.9
15851.2
15846.5
15841.7
15836.9
15832.1
15827.4
15822.8
15818.5
15814.6
15811.1
15808.1
15805.8
15804.2
15803.4
15803.5
15804.5
15806.6
15809.6
15813.7
15818.9
15825.5
15832.5
15832.1
15825
15818.3
15813.1
15809
15806
15804.2
15803.5
15803.9
15805.1
15807.3
15810.2
15813.7
15817.7
15822.1
15826.8
15831.6
15836.4
15841.1
15845.6
15849.8
15853.6
15857.1
15860.3
15863.3
15866.3
15869.5
15873.1
15877.6
15883
15889.7
15897.5
15906.5
15916
15925.4
15933.9
15941
15946.4
15950.1
15952.2
15952.7
15951.8
15949.1
15944.5
15937.8
15929.6
15920.2
15910.7
15901.6
15893.6
15886.7
15881.1
15876.4
15872.5
15869
15865.8
15862.6
15859.2
15855.6
15851.6
15847.3
15842.8
15838
15833.2
15828.3
15823.6
15819.2
15815.2
15811.7
15808.8
15806.7
15805.4
15805
15805.7
15807.5
15810.5
15814.6
15819.9
15826.7
15833.9
15832.8
15825.4
15818.5
15813.1
15808.9
15806.1
15804.6
15804.3
15805.2
15807.1
15809.9
15813.4
15817.6
15822.3
15827.3
15832.5
15837.7
15842.7
15847.4
15851.7
15855.5
15858.6
15861
15862.8
15864.1
15865.2
15866.3
15867.9
15870.4
15874.3
15879.9
15887.4
15896.5
15906.9
15917.3
15926.8
15934.2
15939.5
15943
15945
15945.7
15945
15942.7
15938.1
15931.3
15922
15911.6
15901
15891.7
15883.9
15878.1
15873.9
15871.1
15869.2
15867.8
15866.5
15865
15863
15860.4
15857.2
15853.4
15849
15844.2
15839.2
15834
15828.8
15823.8
15819.1
15814.9
15811.3
15808.5
15806.6
15805.7
15806
15807.5
15810.4
15814.5
15820.1
15827.1
15834.5
15833
15825.2
15817.8
15812
15807.7
15805
15803.9
15804.1
15805.6
15808.3
15811.9
15816.3
15821.3
15826.8
15832.5
15838.4
15844.1
15849.5
15854.5
15858.7
15862
15864.3
15865.6
15865.9
15865.2
15864
15862.6
15861.6
15861.8
15863.8
15868.2
15875.3
15885.4
15897.3
15909.8
15920.6
15928.6
15933.7
15936.7
15938.4
15939.2
15939.2
15937.4
15933.4
15925.8
15915.1
15902.3
15890.1
15879.7
15872.2
15867.4
15865.2
15864.7
15865.4
15866.5
15867.5
15867.9
15867.5
15866.1
15863.6
15860.2
15856
15851
15845.6
15839.8
15833.9
15828.2
15822.7
15817.7
15813.3
15809.7
15807
15805.5
15805.2
15806.4
15809.1
15813.4
15819.3
15826.9
15834.7
15833
15824.3
15815.9
15809.5
15805.1
15802.5
15801.8
15802.7
15805.1
15808.6
15813.2
15818.6
15824.6
15831.1
15837.8
15844.5
15851
15857
15862.3
15866.6
15869.6
15871.2
15871.3
15869.8
15866.9
15862.9
15858.5
15854.3
15851.4
15850.9
15853.7
15860.7
15872.1
15887.1
15903
15916.7
15925.4
15930
15932
15933.1
15934.3
15935.2
15934.8
15931.2
15923.1
15909.3
15893
15877.2
15865.3
15857.7
15854.4
15854.5
15857.1
15861
15865.2
15868.9
15871.6
15873
15872.8
15871.1
15868
15863.7
15858.4
15852.3
15845.8
15839.1
15832.4
15825.9
15819.9
15814.5
15809.9
15806.3
15804
15803.1
15803.8
15806.4
15810.8
15817.3
15825.9
15834.7
15833.1
15822.5
15812.5
15805.2
15800.5
15798.2
15798.1
15799.8
15803.2
15807.8
15813.5
15820.1
15827.3
15835
15842.8
15850.6
15858.1
15865
15870.9
15875.4
15878.4
15879.4
15878.3
15874.9
15869.5
15862.2
15854
15845.6
15838.7
15834.7
15835.5
15842.2
15856
15875.8
15898.1
15916.1
15926
15928.7
15928.2
15927.5
15928.7
15931.8
15934.1
15932.8
15923.8
15906.2
15883.2
15862.4
15847.4
15839.9
15838.4
15841.8
15848.2
15856.2
15864.2
15871.2
15876.5
15879.7
15880.8
15879.7
15876.7
15872.1
15866.2
15859.3
15851.9
15844.1
15836.2
15828.6
15821.3
15814.7
15809
15804.3
15801
15799.2
15799.4
15801.7
15806.4
15813.8
15824
15834.7
15834.3
15820.6
15807.5
15798.9
15793.9
15792.1
15792.8
15795.7
15800.3
15806.3
15813.5
15821.5
15830.2
15839.3
15848.6
15857.8
15866.6
15874.7
15881.6
15886.9
15890.1
15890.8
15888.5
15883.2
15874.7
15863.4
15850.2
15836.4
15823.8
15814.8
15811.9
15818
15835.1
15863.8
15897.4
15922.6
15928.5
15920.7
15909.2
15901.3
15902
15910.9
15924.2
15933.8
15930.5
15907
15873.5
15843.1
15824.3
15816.8
15818.7
15826.9
15839
15852.3
15865.2
15876.2
15884.5
15889.8
15892
15891.3
15888.1
15882.8
15875.9
15867.8
15858.9
15849.7
15840.4
15831.3
15822.6
15814.5
15807.3
15801.3
15796.6
15793.7
15793
15794.9
15799.9
15808.7
15821.8
15835.6
15841.2
15819.7
15801.1
15790.6
15785.7
15784.8
15787
15791.7
15798.3
15806.3
15815.5
15825.6
15836.3
15847.6
15859
15870.4
15881.3
15891.4
15900.1
15906.7
15910.7
15911.4
15908
15900.2
15887.6
15870.6
15850.1
15827.6
15805.6
15787.5
15777.7
15780.9
15803.5
15850.1
15909.9
15947.7
15935.4
15894.6
15856.8
15835.2
15834.8
15856.5
15895.2
15939
15955.5
15921.2
15861.7
15812.7
15787.4
15782.4
15791
15808.3
15829.7
15852
15872.3
15889.2
15901.6
15909.4
15912.8
15912.1
15908.1
15901.4
15892.7
15882.5
15871.5
15860.1
15848.6
15837.4
15826.6
15816.4
15807.2
15799.1
15792.5
15787.8
15785.5
15786.5
15791.5
15802
15820.6
15842.1
15851.5
15810.7
15785.8
15774.8
15771.2
15772.3
15776.9
15784.1
15793
15803.3
15814.7
15827
15840
15853.4
15867.2
15881
15894.4
15907
15918.1
15926.8
15932.3
15933.6
15929.6
15919.4
15902.4
15878.6
15848.7
15814.4
15778.9
15746.9
15724.3
15719.9
15747
15823.3
15931.1
16009.6
16016.4
15999.1
15996.7
16000.4
16003.3
16005
16012
16032.6
16028.1
15949.8
15839.7
15757.3
15725.9
15727.8
15749
15780.3
15815.6
15849.8
15879.8
15903.7
15920.8
15931.1
15935.1
15933.9
15928.3
15919.5
15908.4
15895.8
15882.2
15868.4
15854.5
15841
15827.9
15815.6
15804.1
15793.7
15784.8
15777.6
15773
15771.8
15775.5
15786.5
15811.5
15852.4
15788.7
15747.4
15732.4
15728.2
15728.2
15730.8
15735.3
15741
15747.6
15755
15763
15771.6
15780.6
15790.1
15800
15810.2
15820.5
15830.5
15839.8
15847.9
15854.1
15857.4
15857
15851.9
15841.2
15824.4
15801.6
15773.6
15742.6
15712.1
15687.1
15674.3
15674.6
15657
15556.1
15317
14437.2
13211.1
12351.8
11843.3
11835.2
12346.2
13198.7
14434.9
15322
15560.7
15664.4
15679.6
15677.6
15688.9
15713.1
15743.3
15774
15802
15824.9
15841.8
15852.5
15857.7
15858.1
15854.8
15848.7
15840.5
15831.2
15821.1
15810.8
15800.6
15790.7
15781.1
15772
15763.4
15755.4
15748
15741.3
15735.5
15731.1
15728.4
15728.4
15732.7
15747.7
15789.2
69.597
111.212
142.52
167.42
187.222
203.939
219.167
234.091
249.605
266.398
285.018
305.918
329.496
356.121
386.151
419.944
457.857
500.243
547.436
599.724
657.315
720.271
788.422
861.242
937.666
1015.86
1092.83
1164.01
1222.51
1257.78
1254.14
1188.54
1045.11
830.036
509.705
283.578
797.503
1401.85
1911.71
2250.12
2268.05
1958.71
1451.69
839.774
292.485
499.059
821.454
1040.55
1186.64
1255
1260.29
1225.94
1167.86
1096.8
1019.76
941.398
864.741
791.66
723.241
660.022
602.183
549.664
502.263
459.688
421.605
387.661
357.497
330.754
307.072
286.08
267.379
250.513
234.934
219.95
204.661
187.88
168.004
143.01
111.582
69.8068
-0.00353214
-0.00375654
-0.00377838
-0.00383997
-0.00389987
-0.00396878
-0.00405131
-0.00415139
-0.00427367
-0.00442295
-0.00460352
-0.00481878
-0.00507068
-0.00535931
-0.00568249
-0.00603549
-0.00641073
-0.00679802
-0.00718614
-0.00756767
-0.0079558
-0.00840597
-0.00904385
-0.0100766
-0.0117951
-0.0152855
-0.0202669
-0.0240518
-0.0227283
-0.0156541
-0.00598205
0.00134257
0.0222045
0.0606511
0.163565
57.6091
974.98
3812.97
5696.2
5727.79
5735.76
5741.43
3916.08
1063.77
67.5492
0.185413
0.045572
0.0156403
0.0104842
0.00236303
-0.00833587
-0.0178106
-0.021743
-0.0201484
-0.0164772
-0.0132028
-0.0112412
-0.00998283
-0.00929217
-0.00873982
-0.00823058
-0.0077283
-0.00722385
-0.00672826
-0.00625597
-0.0058178
-0.0054199
-0.00506464
-0.00475236
-0.00448205
-0.00425143
-0.00405687
-0.00389391
-0.00375788
-0.00364501
-0.00355372
-0.00348249
-0.00342267
-0.00340536
-0.00313634
-0.00407558
-0.00399383
-0.00401656
-0.00407534
-0.004148
-0.00423771
-0.0043491
-0.00448648
-0.00465394
-0.00485569
-0.00509615
-0.00537981
-0.00571083
-0.00609289
-0.00652913
-0.00702194
-0.00757245
-0.00817948
-0.00883796
-0.00953849
-0.0102714
-0.0110397
-0.0118942
-0.0129413
-0.0148125
-0.0179056
-0.0213505
-0.0229558
-0.020812
-0.0142016
-0.00429725
0.00929275
0.020752
0.0142745
-0.057388
-0.160038
433.03
5842.98
7826.18
7876.31
7880.34
7845.1
6143.48
521.319
-0.196236
-0.0779685
0.000932666
0.0173998
0.0152773
0.00422025
-0.00773037
-0.0161985
-0.0204737
-0.0206498
-0.0186798
-0.0160599
-0.0141324
-0.0128631
-0.0119719
-0.0111105
-0.0102579
-0.00942844
-0.00864294
-0.00791811
-0.00726299
-0.00667907
-0.00616371
-0.00571245
-0.00531997
-0.0049808
-0.00468977
-0.00444206
-0.00423326
-0.00405941
-0.00391735
-0.00380477
-0.00371912
-0.00365794
-0.00363126
-0.00367384
-0.00394836
-0.00403449
-0.00404868
-0.00409919
-0.0041655
-0.004249
-0.00435226
-0.0044787
-0.00463199
-0.00481577
-0.00503346
-0.00528806
-0.00558189
-0.00591629
-0.00629143
-0.00670619
-0.00715803
-0.00764332
-0.00815715
-0.00869431
-0.00926528
-0.00991206
-0.0107187
-0.0120903
-0.0142475
-0.0179208
-0.0222473
-0.0247229
-0.022693
-0.0162822
-0.00715659
-0.00798526
0.00157446
0.391591
0.555652
-0.0677792
-0.25111
1785.47
7969.26
8018.36
8022.63
7990.23
2105.01
-0.300256
-0.129276
0.518381
0.324574
0.00606951
0.0017962
-0.00211192
-0.00951429
-0.0173859
-0.0224473
-0.0222605
-0.018996
-0.0156912
-0.0134005
-0.0119034
-0.0109007
-0.010103
-0.00939282
-0.00872697
-0.00809248
-0.0074963
-0.00694578
-0.0064444
-0.00599314
-0.00559087
-0.00523556
-0.00492484
-0.00465599
-0.00442585
-0.00423103
-0.00406827
-0.00393477
-0.00382819
-0.00374617
-0.00368361
-0.00364549
-0.00353403
-0.00402453
-0.00405752
-0.00408378
-0.0041307
-0.0041956
-0.00427843
-0.00438094
-0.00450578
-0.00465607
-0.00483503
-0.00504566
-0.00529048
-0.00557129
-0.00588899
-0.00624361
-0.00663441
-0.00706011
-0.00751991
-0.00801615
-0.00855883
-0.00917039
-0.00988363
-0.0107198
-0.0116869
-0.0134084
-0.0166397
-0.0212132
-0.0242572
-0.0254
-0.0279315
-0.0340471
0.0472949
0.126667
0.134366
0.0475624
0.000239361
-0.0757925
358.449
7520.46
8089.11
8106.65
7668.12
489.769
-0.141144
-0.00995303
0.112078
0.237284
0.223202
0.115076
-0.0325756
-0.0251666
-0.0229653
-0.0232311
-0.0217896
-0.0178542
-0.0147907
-0.0130238
-0.0119584
-0.0109471
-0.0100521
-0.00926605
-0.00857045
-0.00794321
-0.00737098
-0.00684814
-0.00637317
-0.00594503
-0.00556226
-0.00522295
-0.00492487
-0.00466554
-0.00444212
-0.00425162
-0.00409103
-0.00395751
-0.00384882
-0.00376401
-0.00370318
-0.00366555
-0.00362942
-0.00405241
-0.0040778
-0.00411012
-0.00415614
-0.00421874
-0.00429912
-0.00439891
-0.0045204
-0.00466633
-0.0048396
-0.00504288
-0.00527838
-0.00554757
-0.00585114
-0.006189
-0.00656029
-0.00696346
-0.00739624
-0.00785548
-0.00833532
-0.00882153
-0.00928409
-0.0096947
-0.0101219
-0.010983
-0.013474
-0.0189841
-0.0258508
-0.024309
-0.0277343
-0.049942
-0.0465307
-0.00221772
0.0290659
0.0264925
0.00947559
0.0505919
36.5316
1088.38
2053.32
2124.08
1305.8
53.1805
0.0281732
0.00951731
0.0343078
0.0319132
-0.010568
-0.0391764
-0.0325691
-0.006356
-0.0235196
-0.0306956
-0.0232196
-0.0163768
-0.0130447
-0.011704
-0.0109421
-0.0103009
-0.00965507
-0.00900463
-0.00837881
-0.00779265
-0.00725066
-0.00675371
-0.00630151
-0.00589316
-0.00552735
-0.00520241
-0.00491631
-0.00466676
-0.0044512
-0.00426701
-0.0041116
-0.00398246
-0.00387721
-0.00379418
-0.00373382
-0.00369676
-0.00367419
-0.0040826
-0.00409942
-0.0041309
-0.00417668
-0.0042378
-0.00431588
-0.0044127
-0.00453047
-0.00467171
-0.00483911
-0.00503515
-0.00526184
-0.00552057
-0.00581202
-0.00613624
-0.00649258
-0.00687942
-0.00729353
-0.00772902
-0.00817533
-0.00861423
-0.00901997
-0.0093857
-0.00976281
-0.0103171
-0.0122395
-0.0188674
-0.0302286
-0.038557
-0.0456879
-0.0496983
-0.0477645
-0.0276942
-0.00744544
-0.00316175
-0.0177057
0.0341571
5.80299
0.118152
0.149489
0.156781
0.117537
1.33782
-0.0412236
-0.0300253
0.0014586
0.00334268
-0.0116233
-0.0302571
-0.0495586
-0.0540347
-0.0462562
-0.0384554
-0.0255658
-0.0161938
-0.0127362
-0.0114739
-0.0106751
-0.0100261
-0.00941227
-0.00880435
-0.00821514
-0.00765742
-0.00713866
-0.0066621
-0.00622836
-0.00583674
-0.00548591
-0.00517415
-0.00489942
-0.00465944
-0.0044517
-0.00427372
-0.00412321
-0.00399824
-0.00389703
-0.00381759
-0.00375879
-0.00372258
-0.00370588
-0.00410857
-0.00412217
-0.00415107
-0.00419515
-0.00425445
-0.00433014
-0.00442388
-0.00453777
-0.00467425
-0.00483587
-0.005025
-0.00524361
-0.00549317
-0.0057746
-0.00608843
-0.00643483
-0.00681339
-0.00722252
-0.00765875
-0.00811634
-0.00858763
-0.00906595
-0.00956946
-0.010196
-0.0111905
-0.0136298
-0.0208001
-0.0349194
-0.0534598
-0.0723683
-0.0853472
-0.0781955
-0.0570303
-0.0424544
-0.0489617
-0.0398369
-0.0210792
0.0961819
0.131476
0.133803
0.131997
0.129827
0.0769074
-0.0513228
-0.0426512
-0.0288659
-0.0358337
-0.0538678
-0.0719461
-0.073912
-0.060363
-0.0471443
-0.037479
-0.0254915
-0.0168206
-0.0133898
-0.0118113
-0.0107868
-0.0100057
-0.00932195
-0.00868695
-0.00809372
-0.00754289
-0.00703593
-0.00657322
-0.00615397
-0.00577665
-0.00543938
-0.00514007
-0.00487648
-0.0046462
-0.0044467
-0.00427546
-0.00413026
-0.00400938
-0.0039117
-0.00383591
-0.00377985
-0.00374501
-0.00373088
-0.0041262
-0.00413816
-0.00416603
-0.00420824
-0.00426535
-0.00433834
-0.00442874
-0.00453858
-0.00467022
-0.00482617
-0.00500881
-0.00522023
-0.00546212
-0.00573589
-0.00604285
-0.00638442
-0.00676222
-0.00717806
-0.00763405
-0.00813375
-0.0086858
-0.00931134
-0.0100661
-0.0110998
-0.0127701
-0.0160387
-0.0234033
-0.0379641
-0.0579858
-0.077097
-0.0873083
-0.0813457
-0.0618944
-0.0460947
-0.0490191
-0.044896
0.0011884
0.0602408
0.0974004
0.117363
0.116409
0.0927263
0.0449255
-0.0067473
-0.0268994
-0.0356091
-0.0504128
-0.0696985
-0.0843831
-0.0829602
-0.0709988
-0.0564553
-0.0403935
-0.026273
-0.0182399
-0.0144671
-0.0124154
-0.0110888
-0.0101129
-0.00931482
-0.00862117
-0.00800214
-0.00744422
-0.00694043
-0.00648623
-0.00607808
-0.00571291
-0.00538788
-0.00510032
-0.00484761
-0.00462712
-0.00443622
-0.00427236
-0.00413321
-0.00401697
-0.00392276
-0.00385016
-0.00379707
-0.00376391
-0.00375094
-0.00414033
-0.00415149
-0.00417827
-0.00421884
-0.0042738
-0.00434408
-0.00443116
-0.00453701
-0.00466396
-0.00481452
-0.00499115
-0.00519611
-0.00543147
-0.00569928
-0.00600185
-0.00634211
-0.00672396
-0.00715286
-0.00763686
-0.00818895
-0.00883256
-0.00961183
-0.0106112
-0.0119997
-0.0141245
-0.0177075
-0.0241339
-0.0355962
-0.0511551
-0.0660343
-0.0735573
-0.0692165
-0.0543249
-0.0406726
-0.0335934
-0.0229542
0.00375284
0.0364904
0.0665931
0.0844401
0.0814249
0.0574804
0.0244178
-0.00658792
-0.0275316
-0.0396804
-0.0520313
-0.0662422
-0.0752038
-0.0753571
-0.0662864
-0.0531554
-0.0380734
-0.0258303
-0.0192453
-0.0153166
-0.0129597
-0.0113868
-0.0102364
-0.00932931
-0.008574
-0.00792377
-0.00735348
-0.00684863
-0.00639981
-0.00600054
-0.00564592
-0.00533203
-0.00505543
-0.00481301
-0.0046019
-0.00441941
-0.00426305
-0.00413049
-0.00401973
-0.0039296
-0.00386015
-0.0038099
-0.00377855
-0.00376632
-0.00414697
-0.00415843
-0.00418388
-0.00422272
-0.00427536
-0.00434274
-0.00442633
-0.00452809
-0.00465035
-0.00479564
-0.00496654
-0.00516553
-0.00539506
-0.00565784
-0.00595719
-0.00629754
-0.00668495
-0.00712802
-0.00763936
-0.00823815
-0.00895585
-0.0098465
-0.0110012
-0.012574
-0.0148259
-0.0181407
-0.0232999
-0.0309169
-0.0406644
-0.050176
-0.0555296
-0.0535124
-0.0459989
-0.0389135
-0.0348941
-0.0281581
-0.0144183
0.00507176
0.0283177
0.0452533
0.0422536
0.0196863
-0.00499078
-0.0238898
-0.0342374
-0.0403306
-0.0468378
-0.0540843
-0.0583703
-0.0573242
-0.0508445
-0.0417138
-0.0319568
-0.0241281
-0.0189504
-0.0154896
-0.013163
-0.0115125
-0.0102747
-0.00930136
-0.00850455
-0.00783238
-0.00725366
-0.00674924
-0.00630629
-0.00591605
-0.00557205
-0.00526935
-0.00500382
-0.00477187
-0.00457029
-0.00439626
-0.00424739
-0.00412153
-0.00401668
-0.00393133
-0.00386535
-0.00381787
-0.00378832
-0.00377673
-0.0041487
-0.0041601
-0.00418442
-0.00422147
-0.00427169
-0.00433606
-0.00441604
-0.00451358
-0.00463103
-0.00477096
-0.00493607
-0.00512904
-0.00535269
-0.00561024
-0.00590576
-0.00624477
-0.00663494
-0.00708701
-0.00761653
-0.00824569
-0.00900712
-0.00995232
-0.0111607
-0.0127534
-0.0149045
-0.0178496
-0.0218733
-0.0270807
-0.0332018
-0.0391826
-0.0431373
-0.0434151
-0.0406382
-0.0379849
-0.0391925
-0.0390435
-0.0337425
-0.0219153
-0.00394057
0.011766
0.0113626
-0.00769256
-0.0236227
-0.0333641
-0.0356502
-0.0375347
-0.0402253
-0.0434356
-0.0447386
-0.0429335
-0.0384529
-0.0326978
-0.0268476
-0.0218722
-0.0180192
-0.0151297
-0.0129958
-0.0114129
-0.0101772
-0.00919211
-0.00838561
-0.00770963
-0.00713281
-0.00663466
-0.00620091
-0.00582162
-0.00548936
-0.00519851
-0.00494447
-0.00472334
-0.00453166
-0.00436646
-0.0042253
-0.00410622
-0.00400742
-0.00392722
-0.00386512
-0.0038205
-0.00379276
-0.00378175
-0.00414568
-0.00415658
-0.00417983
-0.00421505
-0.00426279
-0.00432406
-0.00440032
-0.00449354
-0.00460602
-0.00474038
-0.00489938
-0.00508591
-0.00530304
-0.00555434
-0.00584429
-0.00617896
-0.00656658
-0.00701847
-0.00755123
-0.00818769
-0.00895881
-0.009907
-0.011095
-0.0126125
-0.0145709
-0.0170956
-0.0203012
-0.0241896
-0.0285291
-0.0327571
-0.0359919
-0.0375134
-0.0376888
-0.0384894
-0.0424641
-0.0468274
-0.0461706
-0.0390492
-0.025318
-0.0106421
-0.00773944
-0.01824
-0.0276808
-0.0319222
-0.0324502
-0.0326313
-0.0337303
-0.0351524
-0.0353821
-0.033842
-0.0308442
-0.0270702
-0.0231889
-0.0196859
-0.0167614
-0.0144105
-0.0125557
-0.0110971
-0.00993268
-0.00898678
-0.00820349
-0.00754434
-0.00698266
-0.00649909
-0.00607974
-0.0057146
-0.00539608
-0.00511828
-0.00487644
-0.00466656
-0.00448516
-0.00432921
-0.00419618
-0.00408417
-0.00399156
-0.00391673
-0.00385882
-0.00381722
-0.00379132
-0.00378086
-0.00413587
-0.00414637
-0.00416839
-0.00420163
-0.00424673
-0.00430473
-0.0043771
-0.00446576
-0.00457301
-0.0047014
-0.00485369
-0.00503301
-0.00524247
-0.0054858
-0.00576763
-0.00609413
-0.00647333
-0.00691545
-0.00743638
-0.00805473
-0.00880368
-0.00971629
-0.0108366
-0.0122195
-0.0139337
-0.0160472
-0.0186017
-0.0215747
-0.0247944
-0.0279315
-0.0305832
-0.0325099
-0.0340213
-0.0363048
-0.0410058
-0.0470928
-0.0490261
-0.0445318
-0.0333646
-0.0197365
-0.0128429
-0.016434
-0.0213141
-0.0236377
-0.0246616
-0.0256
-0.026803
-0.0278262
-0.0279641
-0.02702
-0.0251567
-0.022706
-0.0200622
-0.0175458
-0.0153296
-0.0134544
-0.0118983
-0.010619
-0.00956443
-0.00868802
-0.00795478
-0.00733147
-0.0067982
-0.00633811
-0.00593917
-0.0055922
-0.00529006
-0.00502709
-0.00479855
-0.00460063
-0.00442999
-0.00428371
-0.00415929
-0.00405477
-0.00396862
-0.00389933
-0.00384586
-0.00380744
-0.00378344
-0.00377353
-0.00411854
-0.00412875
-0.00414935
-0.00418042
-0.00422268
-0.00427716
-0.00434534
-0.00442913
-0.00453075
-0.0046526
-0.00479717
-0.00496824
-0.00516852
-0.00540159
-0.00567198
-0.00598571
-0.00635015
-0.00677224
-0.00727054
-0.00785696
-0.00855619
-0.00939668
-0.0104099
-0.0116265
-0.0130827
-0.0148119
-0.016819
-0.0190662
-0.0214344
-0.0237361
-0.0257791
-0.0274999
-0.0291355
-0.0314009
-0.0352822
-0.0403889
-0.0430931
-0.0398329
-0.0304061
-0.0182079
-0.00881757
-0.00775887
-0.0105781
-0.0132812
-0.0157711
-0.0180427
-0.0199541
-0.0212588
-0.0217461
-0.0214263
-0.0204129
-0.0189145
-0.0171849
-0.0154362
-0.0138056
-0.0123529
-0.0110918
-0.0100129
-0.00909496
-0.00831349
-0.00764605
-0.00707244
-0.00657892
-0.00615041
-0.00577758
-0.0054528
-0.00516982
-0.00492377
-0.00470988
-0.00452481
-0.00436557
-0.00422944
-0.00411405
-0.00401745
-0.0039381
-0.00387458
-0.00382571
-0.00379063
-0.0037686
-0.00375926
-0.00409373
-0.00410351
-0.00412259
-0.00415135
-0.00419054
-0.00424124
-0.00430492
-0.00438349
-0.00447912
-0.00459398
-0.00472898
-0.00489086
-0.00508046
-0.00530072
-0.00555604
-0.00585204
-0.00619477
-0.00659252
-0.00705633
-0.00759691
-0.00823014
-0.00897658
-0.00985865
-0.010892
-0.012091
-0.0134685
-0.0150142
-0.0166839
-0.0183883
-0.0200112
-0.0214429
-0.0226495
-0.0237625
-0.0251647
-0.0273744
-0.030246
-0.0316794
-0.0288284
-0.0208191
-0.0105266
-0.000722651
0.00237792
-8.25495e-05
-0.00394236
-0.00794404
-0.0113074
-0.0138946
-0.0156339
-0.0165667
-0.016797
-0.016432
-0.0156334
-0.0145811
-0.0134235
-0.0122705
-0.0111853
-0.0101991
-0.00932166
-0.00855039
-0.00787641
-0.00728876
-0.0067761
-0.00632871
-0.00593747
-0.00559531
-0.00529643
-0.00503491
-0.00480812
-0.00461006
-0.00443873
-0.00429161
-0.00416614
-0.00406019
-0.00397187
-0.00389964
-0.00384212
-0.003798
-0.00376635
-0.00374635
-0.0037376
-0.00406107
-0.00407028
-0.00408776
-0.00411406
-0.00414997
-0.00419662
-0.00425548
-0.00432845
-0.00441784
-0.00452668
-0.0046472
-0.00480043
-0.00497804
-0.00518382
-0.00542161
-0.00569587
-0.00601174
-0.00637615
-0.00679717
-0.00728232
-0.00784062
-0.00848403
-0.00922687
-0.0100749
-0.0110278
-0.0120852
-0.0132325
-0.0144278
-0.0155965
-0.0166518
-0.0175122
-0.0181313
-0.0185408
-0.0188848
-0.0193551
-0.0198748
-0.0193518
-0.0160946
-0.00927554
-0.000833225
0.00727427
0.0106349
0.00790722
0.00308425
-0.00186069
-0.00588439
-0.00889692
-0.0109697
-0.0122813
-0.0129504
-0.0130799
-0.0128036
-0.0122573
-0.0115544
-0.0107858
-0.0100124
-0.00927185
-0.00858446
-0.00795872
-0.00739618
-0.00689426
-0.00644828
-0.00605319
-0.00570385
-0.00539562
-0.00512413
-0.00488484
-0.0046813
-0.00449925
-0.00434232
-0.00420813
-0.00409381
-0.00399764
-0.00391788
-0.00385302
-0.00380172
-0.00376247
-0.0037343
-0.00371637
-0.00370822
-0.00402004
-0.00402867
-0.00404441
-0.0040681
-0.0041005
-0.0041428
-0.0041965
-0.0042632
-0.00434492
-0.00444352
-0.00455943
-0.00469881
-0.00486205
-0.00505118
-0.00526895
-0.00551864
-0.0058039
-0.00612958
-0.00650157
-0.00692483
-0.00740365
-0.00794289
-0.00854938
-0.00922234
-0.00995172
-0.0107261
-0.0115289
-0.0123241
-0.0130481
-0.0136271
-0.0139887
-0.0140709
-0.0138422
-0.0133067
-0.0124613
-0.0112086
-0.00904612
-0.00517284
0.000784111
0.00742254
0.0134521
0.0159904
0.0128828
0.00762985
0.00240079
-0.00181041
-0.00497048
-0.0071964
-0.0087938
-0.00977803
-0.0102661
-0.0103725
-0.0102041
-0.00985099
-0.00938965
-0.00887587
-0.00834875
-0.00783347
-0.00734489
-0.00689115
-0.00647542
-0.00609806
-0.0057579
-0.00545293
-0.00518091
-0.00493941
-0.00472619
-0.00454031
-0.00437712
-0.00423549
-0.00411565
-0.00401269
-0.00392657
-0.00385552
-0.0037981
-0.00375341
-0.003719
-0.0036943
-0.00367847
-0.00367089
-0.00397057
-0.00397857
-0.00399244
-0.00401337
-0.00404215
-0.00407992
-0.00412813
-0.00418832
-0.00426225
-0.00435174
-0.00445836
-0.00458486
-0.0047328
-0.00490377
-0.00509968
-0.00532269
-0.00557509
-0.00585955
-0.00617947
-0.00653776
-0.00693565
-0.00737317
-0.00785124
-0.00836492
-0.00889867
-0.00943282
-0.00994685
-0.0104097
-0.010768
-0.0109572
-0.0109108
-0.0105609
-0.00984946
-0.00872007
-0.00708204
-0.00480718
-0.00167498
0.00259189
0.00788974
0.01304
0.0170376
0.0187099
0.0152601
0.0101013
0.00510444
0.00105826
-0.00205352
-0.00441538
-0.00604741
-0.00720387
-0.0079294
-0.00830507