/*--------------------------------*- C++ -*----------------------------------*\
| =========                 |                                                 |
| \\      /  F ield         | OpenFOAM: The Open Source CFD Toolbox           |
|  \\    /   O peration     | Version:  2412                                  |
|   \\  /    A nd           | Website:  www.openfoam.com                      |
|    \\/     M anipulation  |                                                 |
\*---------------------------------------------------------------------------*/
FoamFile
{
    version     2.0;
    format      ascii;
    arch        "LSB;label=32;scalar=64";
    class       volScalarField;
    location    "6.1";
    object      p;
}
// * * * * * * * * * * * * * * * * * * * * * * * * * * * * * * * * * * * * * //

dimensions      [1 -1 -2 0 0 0 0];

internalField   nonuniform List<scalar> 
6400
(
12128.2
12128.3
12128.6
12128.9
12129.2
12129.4
12129.5
12129.5
12129.5
12129.2
12128.9
12128.4
12127.7
12126.9
12125.9
12124.7
12123.2
12121.6
12119.7
12117.6
12115.1
12112.4
12109.4
12106.1
12102.5
12098.5
12094.2
12089.7
12084.9
12080
12074.9
12069.9
12064.9
12060.1
12055.7
12051.8
12048.5
12046
12044.3
12043.5
12043.6
12044.7
12046.7
12049.5
12053
12057
12061.6
12066.4
12071.4
12076.5
12081.5
12086.4
12091.1
12095.5
12099.7
12103.5
12107.1
12110.3
12113.2
12115.8
12118.2
12120.3
12122.1
12123.7
12125.1
12126.3
12127.3
12128.1
12128.7
12129.3
12129.6
12129.9
12130
12130
12129.9
12129.7
12129.4
12129.2
12128.9
12128.7
11510
11510.1
11510.4
11510.6
11510.8
11511
11511
11511
11510.8
11510.5
11510.1
11509.5
11508.8
11507.9
11506.8
11505.6
11504.1
11502.4
11500.5
11498.3
11495.9
11493.2
11490.3
11487
11483.5
11479.7
11475.6
11471.3
11466.8
11462.2
11457.5
11452.8
11448.2
11443.8
11439.8
11436.3
11433.3
11431
11429.5
11428.7
11428.9
11429.8
11431.6
11434.1
11437.3
11441
11445.1
11449.6
11454.2
11458.9
11463.6
11468.1
11472.6
11476.8
11480.8
11484.5
11488
11491.1
11494
11496.6
11499
11501.1
11503
11504.6
11506.1
11507.3
11508.3
11509.2
11510
11510.5
11511
11511.3
11511.4
11511.5
11511.5
11511.3
11511.2
11510.9
11510.7
11510.5
10891.7
10891.9
10892.1
10892.3
10892.4
10892.5
10892.5
10892.4
10892.2
10891.8
10891.4
10890.7
10889.9
10889
10887.9
10886.5
10885
10883.3
10881.4
10879.2
10876.8
10874.1
10871.2
10868
10864.6
10861
10857.1
10853
10848.8
10844.4
10840
10835.7
10831.5
10827.5
10823.8
10820.6
10817.9
10815.8
10814.4
10813.7
10813.9
10814.7
10816.3
10818.6
10821.5
10824.9
10828.7
10832.7
10837
10841.3
10845.7
10850
10854.2
10858.2
10862
10865.6
10868.9
10872
10874.9
10877.5
10879.9
10882
10883.9
10885.6
10887
10888.3
10889.5
10890.4
10891.2
10891.8
10892.3
10892.7
10892.9
10893
10893.1
10893
10892.9
10892.7
10892.5
10892.3
10273.3
10273.6
10273.9
10274
10274.2
10274.2
10274.2
10274
10273.7
10273.3
10272.8
10272.1
10271.3
10270.3
10269.1
10267.8
10266.2
10264.5
10262.5
10260.4
10258
10255.3
10252.5
10249.4
10246
10242.5
10238.8
10234.9
10230.8
10226.7
10222.5
10218.4
10214.4
10210.7
10207.2
10204.2
10201.6
10199.7
10198.4
10197.7
10197.9
10198.7
10200.2
10202.3
10205
10208.2
10211.8
10215.6
10219.6
10223.8
10227.9
10232
10236
10239.9
10243.5
10247
10250.3
10253.3
10256.1
10258.7
10261
10263.2
10265.1
10266.8
10268.3
10269.6
10270.8
10271.8
10272.6
10273.3
10273.8
10274.2
10274.5
10274.7
10274.8
10274.7
10274.6
10274.4
10274.2
10273.9
9655.05
9655.38
9655.67
9655.86
9655.97
9656
9655.92
9655.73
9655.43
9655
9654.42
9653.71
9652.83
9651.8
9650.6
9649.21
9647.65
9645.89
9643.92
9641.76
9639.38
9636.78
9633.97
9630.94
9627.7
9624.27
9620.65
9616.87
9612.97
9608.99
9604.99
9601.02
9597.18
9593.54
9590.19
9587.24
9584.77
9582.86
9581.59
9580.99
9581.1
9581.9
9583.37
9585.46
9588.08
9591.15
9594.59
9598.29
9602.17
9606.14
9610.14
9614.1
9617.96
9621.69
9625.26
9628.64
9631.82
9634.79
9637.55
9640.09
9642.43
9644.56
9646.48
9648.21
9649.76
9651.12
9652.31
9653.34
9654.2
9654.92
9655.5
9655.94
9656.26
9656.46
9656.55
9656.55
9656.46
9656.28
9656
9655.7
9036.87
9037.23
9037.56
9037.76
9037.87
9037.88
9037.78
9037.57
9037.24
9036.78
9036.18
9035.43
9034.53
9033.47
9032.24
9030.84
9029.25
9027.49
9025.53
9023.37
9021.01
9018.46
9015.69
9012.72
9009.56
9006.21
9002.68
8999
8995.2
8991.31
8987.39
8983.5
8979.71
8976.11
8972.78
8969.84
8967.36
8965.44
8964.16
8963.56
8963.67
8964.48
8965.96
8968.04
8970.67
8973.73
8977.14
8980.79
8984.61
8988.5
8992.41
8996.27
9000.04
9003.68
9007.16
9010.46
9013.57
9016.49
9019.21
9021.72
9024.04
9026.16
9028.09
9029.83
9031.39
9032.77
9033.99
9035.05
9035.94
9036.69
9037.3
9037.77
9038.12
9038.34
9038.45
9038.46
9038.37
9038.19
9037.89
9037.54
8418.8
8419.2
8419.54
8419.75
8419.86
8419.86
8419.75
8419.53
8419.18
8418.7
8418.07
8417.3
8416.38
8415.3
8414.05
8412.63
8411.04
8409.27
8407.32
8405.18
8402.85
8400.33
8397.61
8394.7
8391.6
8388.31
8384.86
8381.25
8377.5
8373.66
8369.76
8365.87
8362.06
8358.4
8355.01
8351.97
8349.41
8347.42
8346.08
8345.45
8345.56
8346.4
8347.94
8350.11
8352.82
8355.97
8359.44
8363.13
8366.96
8370.85
8374.72
8378.54
8382.24
8385.81
8389.23
8392.47
8395.52
8398.39
8401.06
8403.54
8405.84
8407.95
8409.87
8411.62
8413.19
8414.6
8415.83
8416.91
8417.83
8418.61
8419.23
8419.73
8420.09
8420.33
8420.45
8420.47
8420.39
8420.2
8419.87
8419.5
7800.87
7801.28
7801.63
7801.85
7801.96
7801.96
7801.84
7801.61
7801.25
7800.75
7800.11
7799.32
7798.38
7797.29
7796.03
7794.6
7793.01
7791.24
7789.3
7787.18
7784.87
7782.39
7779.72
7776.86
7773.82
7770.59
7767.18
7763.61
7759.9
7756.05
7752.13
7748.16
7744.24
7740.44
7736.87
7733.65
7730.91
7728.76
7727.31
7726.62
7726.74
7727.65
7729.32
7731.66
7734.55
7737.88
7741.52
7745.35
7749.28
7753.21
7757.11
7760.91
7764.58
7768.11
7771.47
7774.65
7777.65
7780.47
7783.1
7785.55
7787.82
7789.92
7791.84
7793.58
7795.16
7796.58
7797.83
7798.92
7799.86
7800.66
7801.3
7801.81
7802.18
7802.43
7802.56
7802.58
7802.5
7802.3
7801.98
7801.59
7183.07
7183.48
7183.83
7184.06
7184.17
7184.17
7184.06
7183.82
7183.45
7182.95
7182.3
7181.5
7180.54
7179.43
7178.16
7176.73
7175.14
7173.37
7171.45
7169.35
7167.08
7164.63
7162
7159.2
7156.21
7153.03
7149.67
7146.12
7142.4
7138.52
7134.51
7130.41
7126.29
7122.24
7118.38
7114.86
7111.83
7109.43
7107.81
7107.03
7107.17
7108.19
7110.06
7112.66
7115.86
7119.49
7123.41
7127.48
7131.58
7135.64
7139.59
7143.41
7147.08
7150.57
7153.88
7157.01
7159.96
7162.73
7165.32
7167.74
7169.98
7172.05
7173.96
7175.71
7177.29
7178.71
7179.98
7181.09
7182.04
7182.84
7183.5
7184.02
7184.4
7184.65
7184.78
7184.8
7184.71
7184.52
7184.2
7183.82
6565.41
6565.8
6566.15
6566.37
6566.49
6566.5
6566.39
6566.16
6565.8
6565.29
6564.63
6563.82
6562.86
6561.74
6560.46
6559.02
6557.43
6555.68
6553.76
6551.69
6549.45
6547.04
6544.47
6541.72
6538.78
6535.66
6532.33
6528.8
6525.06
6521.11
6516.96
6512.66
6508.25
6503.83
6499.55
6495.58
6492.12
6489.36
6487.47
6486.57
6486.73
6487.92
6490.09
6493.08
6496.72
6500.81
6505.15
6509.56
6513.93
6518.16
6522.23
6526.09
6529.76
6533.22
6536.49
6539.56
6542.46
6545.17
6547.72
6550.09
6552.31
6554.36
6556.26
6558
6559.58
6561.01
6562.28
6563.4
6564.36
6565.18
6565.84
6566.36
6566.74
6566.98
6567.11
6567.12
6567.03
6566.84
6566.53
6566.17
5947.88
5948.24
5948.56
5948.78
5948.92
5948.95
5948.86
5948.65
5948.29
5947.79
5947.13
5946.31
5945.34
5944.21
5942.92
5941.48
5939.89
5938.15
5936.25
5934.2
5932
5929.64
5927.12
5924.42
5921.55
5918.48
5915.2
5911.68
5907.92
5903.88
5899.56
5894.99
5890.19
5885.27
5880.38
5875.77
5871.69
5868.4
5866.13
5865.06
5865.25
5866.7
5869.29
5872.84
5877.11
5881.83
5886.74
5891.64
5896.36
5900.84
5905.04
5908.97
5912.64
5916.08
5919.29
5922.31
5925.14
5927.8
5930.29
5932.62
5934.8
5936.84
5938.72
5940.45
5942.03
5943.47
5944.75
5945.88
5946.85
5947.67
5948.33
5948.84
5949.21
5949.44
5949.55
5949.55
5949.44
5949.26
5948.97
5948.66
5330.45
5330.76
5331.06
5331.29
5331.45
5331.52
5331.47
5331.29
5330.95
5330.46
5329.8
5328.98
5328
5326.86
5325.57
5324.12
5322.53
5320.79
5318.92
5316.89
5314.73
5312.42
5309.96
5307.34
5304.54
5301.54
5298.31
5294.83
5291.04
5286.92
5282.41
5277.5
5272.21
5266.61
5260.9
5255.38
5250.41
5246.37
5243.57
5242.24
5242.49
5244.29
5247.5
5251.84
5256.99
5262.58
5268.26
5273.78
5278.95
5283.72
5288.09
5292.09
5295.76
5299.15
5302.3
5305.25
5308.01
5310.6
5313.04
5315.33
5317.47
5319.48
5321.35
5323.08
5324.66
5326.1
5327.39
5328.53
5329.51
5330.33
5331
5331.5
5331.85
5332.05
5332.13
5332.09
5331.96
5331.77
5331.51
5331.25
4713.09
4713.34
4713.61
4713.87
4714.08
4714.21
4714.22
4714.08
4713.78
4713.31
4712.66
4711.84
4710.85
4709.7
4708.39
4706.94
4705.35
4703.62
4701.75
4699.76
4697.64
4695.39
4693
4690.46
4687.75
4684.85
4681.71
4678.29
4674.53
4670.34
4665.65
4660.38
4654.47
4648
4641.16
4634.38
4628.16
4623.04
4619.48
4617.8
4618.14
4620.46
4624.53
4629.99
4636.36
4643.14
4649.84
4656.13
4661.83
4666.92
4671.45
4675.49
4679.13
4682.45
4685.52
4688.37
4691.05
4693.57
4695.94
4698.19
4700.3
4702.29
4704.15
4705.87
4707.47
4708.92
4710.22
4711.37
4712.36
4713.19
4713.85
4714.33
4714.65
4714.81
4714.83
4714.74
4714.56
4714.35
4714.13
4713.93
4095.75
4095.92
4096.18
4096.49
4096.78
4097
4097.09
4097.02
4096.76
4096.32
4095.68
4094.86
4093.86
4092.69
4091.37
4089.91
4088.31
4086.58
4084.73
4082.77
4080.7
4078.51
4076.2
4073.77
4071.18
4068.41
4065.41
4062.13
4058.46
4054.29
4049.47
4043.84
4037.25
4029.66
4021.32
4012.8
4004.83
3998.19
3993.56
3991.38
3991.86
3994.93
4000.25
4007.28
4015.35
4023.73
4031.76
4038.98
4045.24
4050.61
4055.23
4059.25
4062.8
4066
4068.94
4071.67
4074.24
4076.68
4078.99
4081.18
4083.26
4085.23
4087.08
4088.81
4090.42
4091.89
4093.21
4094.38
4095.39
4096.22
4096.87
4097.33
4097.61
4097.71
4097.66
4097.47
4097.22
4096.95
4096.75
4096.62
3478.31
3478.43
3478.7
3479.11
3479.55
3479.9
3480.09
3480.1
3479.89
3479.46
3478.83
3478
3476.97
3475.78
3474.44
3472.95
3471.34
3469.61
3467.77
3465.84
3463.82
3461.7
3459.5
3457.19
3454.76
3452.18
3449.39
3446.34
3442.89
3438.88
3434.08
3428.2
3420.92
3411.98
3401.66
3390.79
3380.4
3371.65
3365.53
3362.66
3363.34
3367.47
3374.55
3383.79
3394.24
3404.78
3414.5
3422.79
3429.55
3435.06
3439.62
3443.48
3446.83
3449.81
3452.55
3455.11
3457.55
3459.88
3462.11
3464.24
3466.29
3468.23
3470.08
3471.82
3473.45
3474.95
3476.3
3477.5
3478.53
3479.38
3480.03
3480.47
3480.7
3480.73
3480.56
3480.25
3479.85
3479.48
3479.27
3479.21
2860.62
2860.73
2861.1
2861.72
2862.37
2862.9
2863.23
2863.32
2863.15
2862.74
2862.08
2861.22
2860.15
2858.92
2857.53
2856
2854.36
2852.61
2850.78
2848.87
2846.9
2844.86
2842.77
2840.62
2838.39
2836.06
2833.58
2830.88
2827.83
2824.2
2819.68
2813.82
2805.96
2795.47
2782.57
2768.53
2754.79
2743.06
2734.84
2730.92
2731.83
2737.47
2747.05
2759.47
2773.28
2786.8
2798.71
2808.16
2815.21
2820.58
2824.82
2828.28
2831.24
2833.88
2836.33
2838.66
2840.91
2843.11
2845.24
2847.3
2849.3
2851.23
2853.08
2854.84
2856.49
2858.03
2859.42
2860.67
2861.74
2862.62
2863.28
2863.71
2863.9
2863.83
2863.52
2863.02
2862.4
2861.83
2861.54
2861.49
2242.42
2242.65
2243.27
2244.26
2245.25
2246.04
2246.53
2246.71
2246.57
2246.14
2245.44
2244.51
2243.38
2242.08
2240.62
2239.04
2237.35
2235.58
2233.74
2231.85
2229.93
2227.98
2226.03
2224.06
2222.07
2220.05
2217.99
2215.82
2213.42
2210.53
2206.78
2201.55
2193.62
2181.3
2164.61
2145.83
2126.94
2110.65
2099.25
2093.58
2094.67
2102.5
2115.83
2133.11
2152.23
2170.39
2185.54
2196.21
2202.98
2207.61
2211.07
2213.82
2216.15
2218.26
2220.28
2222.3
2224.33
2226.37
2228.38
2230.36
2232.3
2234.21
2236.05
2237.83
2239.52
2241.11
2242.57
2243.87
2245
2245.93
2246.63
2247.06
2247.2
2247.03
2246.54
2245.77
2244.81
2243.89
2243.37
2243.23
1623.23
1623.8
1624.94
1626.56
1628.1
1629.27
1629.99
1630.27
1630.15
1629.69
1628.93
1627.92
1626.71
1625.33
1623.81
1622.18
1620.46
1618.67
1616.85
1615
1613.16
1611.35
1609.58
1607.86
1606.19
1604.57
1603.07
1601.69
1600.36
1598.84
1596.89
1593.98
1587.63
1572.91
1549.17
1522.1
1494.9
1471.77
1456.09
1447.87
1449.04
1459.98
1478.62
1503.12
1531.11
1557.53
1578.39
1590.01
1594.66
1597.13
1598.99
1600.52
1601.88
1603.22
1604.66
1606.27
1608.04
1609.9
1611.75
1613.61
1615.47
1617.32
1619.15
1620.93
1622.65
1624.28
1625.8
1627.18
1628.38
1629.38
1630.13
1630.58
1630.69
1630.39
1629.67
1628.51
1627.01
1625.47
1624.48
1624.02
1001.33
1003.43
1006.12
1009
1011.43
1013.13
1014.12
1014.49
1014.36
1013.82
1012.96
1011.85
1010.53
1009.05
1007.45
1005.75
1003.97
1002.16
1000.31
998.481
996.691
994.968
993.343
991.836
990.423
989.125
988.114
987.582
987.514
987.812
988.663
990.264
988.292
971.782
938.254
901.919
867.654
845.028
835.836
829.832
830.351
838.55
852.686
878.332
914.675
950.771
977.935
989.309
988.979
987.559
987.184
987.199
987.478
988.028
988.888
990.155
991.802
993.598
995.367
997.125
998.923
1000.76
1002.6
1004.42
1006.2
1007.9
1009.51
1010.98
1012.3
1013.4
1014.25
1014.77
1014.88
1014.49
1013.49
1011.79
1009.4
1006.61
1004.08
1002.19
372.253
382.147
390.09
395.915
399.967
402.55
404.018
404.66
404.689
404.262
403.491
402.46
401.232
399.855
398.372
396.814
395.211
393.585
391.956
390.353
388.805
387.325
385.94
384.663
383.431
382.207
381.122
380.419
380.13
380.305
381.459
384.687
386.565
385.99
400.038
423.642
434.541
444.94
457.635
461.055
460.347
456.6
446.527
436.302
420.832
392.78
381.529
385.747
382.668
380.179
379.744
379.915
380.381
381.04
381.916
383.128
384.638
386.185
387.637
389.077
390.594
392.183
393.805
395.432
397.039
398.599
400.083
401.455
402.677
403.7
404.459
404.872
404.826
404.168
402.686
400.097
396.053
390.266
382.439
372.854
22.84
31.3023
37.1624
41.1097
43.6774
45.2589
46.1675
46.6082
46.7129
46.5694
46.2398
45.7665
45.1829
44.5155
43.7867
43.0155
42.2191
41.4101
40.5991
39.7927
38.9838
38.1942
37.4294
36.6817
35.9845
35.3769
34.6028
33.5312
32.4309
31.4043
30.6748
30.7441
31.3058
49.9738
123.533
208.917
261.046
296.806
319.706
329.17
328.074
316.777
291.652
251.059
189.756
97.5193
37.7715
30.8847
30.6857
30.7969
31.5673
32.5114
33.5188
34.5494
35.6015
36.5212
37.118
37.6273
38.2917
39.0335
39.8112
40.6178
41.4292
42.2392
43.0346
43.8018
44.5269
45.1895
45.7681
46.2361
46.5599
46.6961
46.5842
46.1353
45.2182
43.6298
41.0575
37.1107
31.2703
22.8957
-10.5456
-10.545
-10.545
-10.5449
-10.5449
-10.5448
-10.5447
-10.5445
-10.5442
-10.5439
-10.5436
-10.543
-10.5424
-10.5417
-10.5407
-10.5387
-10.5353
-10.5312
-10.5241
-10.5178
-10.5373
-10.5473
-10.544
-10.5417
-10.4414
-10.1226
-9.90042
-10.0288
-10.1502
-10.1003
-9.71599
-8.59492
-6.72403
1.68834
28.4158
89.4541
139.342
170.674
189.525
193.61
192.935
187.317
166.749
131.348
73.3787
18.0509
-2.39315
-7.09407
-8.57766
-9.63788
-10.1154
-10.2786
-10.254
-10.0741
-9.78091
-9.68293
-10.0569
-10.4573
-10.5662
-10.5664
-10.5611
-10.5473
-10.5427
-10.5402
-10.5402
-10.5422
-10.5431
-10.5432
-10.5431
-10.5429
-10.5428
-10.5428
-10.5428
-10.5428
-10.5429
-10.5429
-10.543
-10.543
-10.543
-10.5435
-11.0353
-11.0353
-11.0353
-11.0353
-11.0352
-11.0352
-11.035
-11.0348
-11.0346
-11.0343
-11.0339
-11.0333
-11.0325
-11.0315
-11.03
-11.028
-11.0245
-11.0198
-11.0189
-11.0232
-11.0313
-11.0335
-11.031
-11.0325
-11.0259
-10.935
-10.7437
-10.6601
-10.6652
-10.6432
-10.4647
-9.94471
-9.27848
-8.54951
-4.93065
10.195
22.9679
32.4539
44.3811
39.1709
38.7042
42.5452
32.4432
23.0678
6.32266
-7.64456
-8.68695
-9.30406
-9.91732
-10.5125
-10.7189
-10.7547
-10.7258
-10.658
-10.6003
-10.695
-10.9325
-11.0372
-11.0503
-11.0436
-11.0438
-11.038
-11.0328
-11.0314
-11.033
-11.0337
-11.0337
-11.0336
-11.0334
-11.0333
-11.0332
-11.0332
-11.0332
-11.0333
-11.0333
-11.0333
-11.0333
-11.0333
-11.0333
-11.0333
-11.526
-11.5259
-11.5258
-11.5258
-11.5257
-11.5256
-11.5255
-11.5254
-11.5251
-11.5249
-11.5245
-11.524
-11.5235
-11.5228
-11.5217
-11.5198
-11.5167
-11.5128
-11.5123
-11.5169
-11.5232
-11.5263
-11.5253
-11.5237
-11.5257
-11.4998
-11.4313
-11.3334
-11.298
-11.2818
-11.2996
-11.1971
-11.1085
-11.1924
-11.4281
-11.4161
-11.4469
-11.4679
-6.47066
-9.7257
-9.92867
-7.76032
-11.5118
-11.5114
-11.51
-11.4849
-11.1188
-11.0214
-11.1188
-11.3255
-11.3539
-11.3225
-11.3265
-11.3058
-11.3268
-11.4175
-11.5141
-11.5536
-11.5501
-11.5477
-11.5454
-11.5339
-11.526
-11.522
-11.5213
-11.523
-11.5241
-11.5244
-11.5241
-11.5238
-11.5237
-11.5237
-11.5237
-11.5237
-11.5237
-11.5238
-11.5238
-11.5238
-11.5239
-11.524
-12.0164
-12.0164
-12.0163
-12.0163
-12.0162
-12.0162
-12.0161
-12.016
-12.0158
-12.0156
-12.0153
-12.0149
-12.0144
-12.0137
-12.0131
-12.0122
-12.0107
-12.0092
-12.0098
-12.0113
-12.0163
-12.0157
-12.0112
-12.0124
-12.0162
-12.0199
-12.0174
-11.9829
-11.9659
-11.9625
-11.9889
-12.0017
-12.0343
-12.0808
-12.0131
-11.9392
-11.93
-11.9557
-12.0109
-12.0013
-11.9983
-12.0022
-12.0015
-12.0013
-12.0008
-12.0016
-12.067
-12.0164
-11.9991
-11.9856
-11.9724
-11.9594
-11.9794
-11.966
-11.9746
-12.0175
-12.0446
-12.0442
-12.0433
-12.0428
-12.0393
-12.0312
-12.0249
-12.0174
-12.015
-12.0152
-12.0154
-12.0151
-12.0146
-12.0144
-12.0143
-12.0142
-12.0142
-12.0142
-12.0142
-12.0143
-12.0143
-12.0144
-12.0144
-12.0145
-12.5069
-12.5069
-12.5068
-12.5068
-12.5068
-12.5068
-12.5067
-12.5066
-12.5065
-12.5064
-12.5061
-12.5059
-12.5055
-12.505
-12.5045
-12.5044
-12.5052
-12.5067
-12.5043
-12.5042
-12.5113
-12.5032
-12.4932
-12.4996
-12.5086
-12.5163
-12.5181
-12.509
-12.5011
-12.5002
-12.498
-12.4947
-12.4965
-12.5
-12.4969
-12.4847
-12.4781
-12.4813
-12.4924
-12.4896
-12.4916
-12.4923
-12.4929
-12.4925
-12.4916
-12.4892
-12.4919
-12.4961
-12.49
-12.4924
-12.4989
-12.5021
-12.5056
-12.5129
-12.5252
-12.5337
-12.5341
-12.5356
-12.5382
-12.5404
-12.529
-12.5209
-12.5217
-12.5184
-12.5103
-12.5065
-12.5064
-12.5063
-12.5056
-12.505
-12.5048
-12.5048
-12.5048
-12.5048
-12.5048
-12.5049
-12.5049
-12.505
-12.505
-12.505
-12.9974
-12.9974
-12.9974
-12.9974
-12.9974
-12.9974
-12.9974
-12.9974
-12.9973
-12.9973
-12.9972
-12.9971
-12.9969
-12.9966
-12.9963
-12.9963
-12.9967
-12.9965
-12.9978
-13.0039
-13.0004
-12.9904
-12.9908
-12.9974
-13.0018
-13.0038
-13.0017
-12.9972
-12.9931
-12.9906
-12.9891
-12.9883
-12.9882
-12.989
-12.9897
-12.9908
-12.9943
-12.9874
-12.9849
-12.9837
-12.9835
-12.9849
-12.9851
-12.9843
-12.9831
-12.9821
-12.9814
-12.9814
-12.9806
-12.9782
-12.9824
-12.9974
-13.0073
-13.0121
-13.0188
-13.0262
-13.0285
-13.027
-13.0209
-13.0093
-13.0026
-13.0073
-13.0089
-13.0144
-13.0092
-13.0009
-12.998
-12.9977
-12.9969
-12.996
-12.9957
-12.9956
-12.9955
-12.9955
-12.9956
-12.9956
-12.9956
-12.9957
-12.9957
-12.9957
-13.4879
-13.4879
-13.488
-13.488
-13.488
-13.488
-13.4881
-13.4881
-13.4882
-13.4883
-13.4884
-13.4885
-13.4886
-13.4887
-13.4886
-13.4885
-13.4878
-13.4861
-13.4875
-13.496
-13.5028
-13.5026
-13.5047
-13.5058
-13.5043
-13.5003
-13.4944
-13.4887
-13.4847
-13.4821
-13.4803
-13.4793
-13.4793
-13.4794
-13.4791
-13.4792
-13.4798
-13.48
-13.4785
-13.4771
-13.4762
-13.4767
-13.476
-13.4752
-13.4742
-13.4724
-13.4717
-13.4719
-13.4722
-13.4731
-13.4769
-13.4844
-13.4926
-13.5015
-13.5134
-13.5265
-13.5359
-13.5381
-13.5315
-13.5179
-13.5033
-13.4886
-13.4851
-13.5004
-13.5054
-13.4958
-13.4904
-13.4891
-13.4883
-13.4872
-13.4867
-13.4865
-13.4864
-13.4864
-13.4864
-13.4864
-13.4864
-13.4864
-13.4864
-13.4865
-13.9785
-13.9785
-13.9785
-13.9786
-13.9786
-13.9787
-13.9788
-13.9789
-13.9791
-13.9793
-13.9796
-13.98
-13.9805
-13.981
-13.9816
-13.982
-13.9812
-13.9784
-13.9804
-13.9947
-14.0134
-14.0245
-14.0274
-14.0229
-14.0132
-14.0018
-13.9914
-13.9837
-13.9784
-13.975
-13.9728
-13.9715
-13.971
-13.9707
-13.9706
-13.9706
-13.9705
-13.9703
-13.97
-13.969
-13.968
-13.9678
-13.9671
-13.9665
-13.9657
-13.9646
-13.964
-13.9641
-13.9649
-13.9664
-13.9701
-13.9773
-13.9885
-14.0032
-14.0221
-14.0425
-14.0581
-14.0626
-14.0537
-14.0328
-14.0046
-13.9785
-13.9711
-13.982
-13.9966
-13.9897
-13.9831
-13.9805
-13.9796
-13.9785
-13.9778
-13.9775
-13.9774
-13.9773
-13.9772
-13.9772
-13.9772
-13.9772
-13.9773
-13.9773
-14.4691
-14.4691
-14.4691
-14.4692
-14.4692
-14.4693
-14.4695
-14.4697
-14.47
-14.4703
-14.4708
-14.4715
-14.4723
-14.4734
-14.4748
-14.4768
-14.4773
-14.4762
-14.4836
-14.5086
-14.541
-14.5619
-14.5651
-14.5532
-14.5322
-14.5099
-14.4921
-14.4804
-14.4731
-14.4685
-14.4656
-14.4638
-14.4627
-14.462
-14.4616
-14.4615
-14.4614
-14.4613
-14.4611
-14.4605
-14.4595
-14.4591
-14.4585
-14.4579
-14.4572
-14.4566
-14.4564
-14.4568
-14.4581
-14.4605
-14.4651
-14.4736
-14.4876
-14.5084
-14.5367
-14.5682
-14.5923
-14.5995
-14.587
-14.5573
-14.5182
-14.4803
-14.4629
-14.471
-14.4875
-14.4817
-14.4743
-14.4715
-14.4707
-14.4697
-14.469
-14.4686
-14.4684
-14.4683
-14.4682
-14.4682
-14.4681
-14.4681
-14.4681
-14.4681
-14.9596
-14.9596
-14.9597
-14.9597
-14.9598
-14.96
-14.9601
-14.9604
-14.9607
-14.9612
-14.9618
-14.9627
-14.9639
-14.9655
-14.9678
-14.971
-14.9741
-14.978
-14.996
-15.0361
-15.0815
-15.1094
-15.1114
-15.0909
-15.0572
-15.0224
-14.9953
-14.9785
-14.9686
-14.9625
-14.9587
-14.9563
-14.9548
-14.9537
-14.953
-14.9525
-14.9522
-14.9522
-14.9522
-14.9518
-14.9509
-14.9505
-14.95
-14.9495
-14.9492
-14.949
-14.9493
-14.9501
-14.9519
-14.9551
-14.961
-14.9716
-14.9894
-15.0177
-15.058
-15.1031
-15.1369
-15.1467
-15.1295
-15.0906
-15.0416
-14.9923
-14.9651
-14.9688
-14.9781
-14.9722
-14.9654
-14.9624
-14.9616
-14.9608
-14.9601
-14.9597
-14.9595
-14.9593
-14.9592
-14.9591
-14.9591
-14.959
-14.959
-14.959
-15.4502
-15.4502
-15.4502
-15.4503
-15.4504
-15.4506
-15.4508
-15.451
-15.4514
-15.4519
-15.4526
-15.4536
-15.455
-15.457
-15.46
-15.4637
-15.4682
-15.4785
-15.5088
-15.5633
-15.6193
-15.6522
-15.6529
-15.6243
-15.5788
-15.5333
-15.4979
-15.4759
-15.4637
-15.4563
-15.4517
-15.4488
-15.4468
-15.4454
-15.4445
-15.4438
-15.4435
-15.4434
-15.4434
-15.4431
-15.4423
-15.442
-15.4416
-15.4413
-15.4413
-15.4415
-15.4422
-15.4435
-15.4458
-15.4497
-15.4568
-15.4692
-15.4904
-15.5253
-15.5762
-15.6331
-15.6746
-15.686
-15.6649
-15.6189
-15.5622
-15.5057
-15.475
-15.472
-15.4657
-15.4605
-15.4569
-15.4539
-15.4528
-15.452
-15.4513
-15.4509
-15.4506
-15.4503
-15.4502
-15.4501
-15.45
-15.45
-15.4499
-15.4499
-15.9407
-15.9407
-15.9408
-15.9408
-15.941
-15.9411
-15.9413
-15.9416
-15.942
-15.9425
-15.9432
-15.9441
-15.9455
-15.9476
-15.9509
-15.9543
-15.9581
-15.9725
-16.0118
-16.0754
-16.1382
-16.1742
-16.1743
-16.14
-16.0862
-16.0353
-15.9959
-15.9709
-15.9574
-15.9494
-15.9443
-15.941
-15.9387
-15.9372
-15.936
-15.9352
-15.9347
-15.9346
-15.9346
-15.9344
-15.9338
-15.9336
-15.9333
-15.9332
-15.9334
-15.934
-15.9349
-15.9366
-15.9393
-15.9437
-15.9513
-15.9644
-15.9867
-16.0242
-16.0801
-16.1431
-16.1876
-16.1993
-16.1764
-16.1275
-16.0666
-16.0056
-15.9758
-15.9676
-15.9551
-15.9507
-15.9491
-15.9459
-15.9443
-15.9433
-15.9426
-15.9421
-15.9417
-15.9414
-15.9412
-15.9411
-15.941
-15.9409
-15.9409
-15.9408
-16.4312
-16.4312
-16.4313
-16.4314
-16.4315
-16.4316
-16.4318
-16.432
-16.4324
-16.4328
-16.4334
-16.4342
-16.4353
-16.437
-16.4398
-16.4429
-16.4463
-16.4597
-16.4999
-16.5642
-16.6293
-16.6651
-16.6652
-16.6297
-16.5741
-16.5242
-16.4865
-16.4626
-16.4493
-16.4414
-16.4363
-16.4328
-16.4305
-16.4288
-16.4276
-16.4267
-16.4261
-16.4259
-16.4259
-16.4257
-16.4253
-16.4251
-16.425
-16.4251
-16.4255
-16.4262
-16.4274
-16.4293
-16.4322
-16.4367
-16.4442
-16.4564
-16.4765
-16.5112
-16.564
-16.6248
-16.6681
-16.6794
-16.6571
-16.6096
-16.5483
-16.4866
-16.4609
-16.4539
-16.4471
-16.4439
-16.4413
-16.438
-16.436
-16.4347
-16.4338
-16.4332
-16.4328
-16.4324
-16.4322
-16.432
-16.4319
-16.4318
-16.4318
-16.4317
-16.9217
-16.9218
-16.9218
-16.9219
-16.922
-16.9221
-16.9222
-16.9225
-16.9227
-16.9231
-16.9235
-16.9241
-16.9249
-16.9259
-16.9275
-16.9302
-16.9349
-16.9441
-16.9758
-17.0318
-17.0895
-17.1225
-17.1222
-17.0916
-17.0446
-17.0021
-16.971
-16.951
-16.9394
-16.9324
-16.9276
-16.9243
-16.922
-16.9203
-16.9191
-16.9181
-16.9175
-16.9172
-16.9172
-16.917
-16.9168
-16.9167
-16.9166
-16.9168
-16.9174
-16.9183
-16.9196
-16.9216
-16.9244
-16.9288
-16.9355
-16.9458
-16.962
-16.9891
-17.0305
-17.0795
-17.1164
-17.1269
-17.1077
-17.0651
-17.01
-16.9625
-16.944
-16.9404
-16.9384
-16.9363
-16.9327
-16.9294
-16.9273
-16.9259
-16.925
-16.9243
-16.9238
-16.9234
-16.9232
-16.923
-16.9228
-16.9227
-16.9227
-16.9226
-17.4122
-17.4123
-17.4123
-17.4123
-17.4124
-17.4125
-17.4126
-17.4128
-17.413
-17.4133
-17.4136
-17.414
-17.4144
-17.4149
-17.4155
-17.4174
-17.4221
-17.4279
-17.447
-17.4848
-17.527
-17.5528
-17.5544
-17.5355
-17.5043
-17.4743
-17.452
-17.4372
-17.4283
-17.4225
-17.4183
-17.4153
-17.4132
-17.4116
-17.4104
-17.4095
-17.4088
-17.4085
-17.4084
-17.4083
-17.4081
-17.4081
-17.4081
-17.4085
-17.4091
-17.4101
-17.4114
-17.4134
-17.4161
-17.42
-17.4257
-17.4339
-17.4459
-17.4641
-17.4901
-17.5205
-17.544
-17.5498
-17.5361
-17.5053
-17.4684
-17.4416
-17.4331
-17.4301
-17.4287
-17.426
-17.4228
-17.4201
-17.4183
-17.417
-17.416
-17.4153
-17.4148
-17.4144
-17.4141
-17.4139
-17.4137
-17.4136
-17.4135
-17.4135
-17.9027
-17.9027
-17.9028
-17.9028
-17.9029
-17.9029
-17.903
-17.9032
-17.9033
-17.9035
-17.9036
-17.9038
-17.9041
-17.9043
-17.9045
-17.9052
-17.9078
-17.9127
-17.9223
-17.9424
-17.9678
-17.9858
-17.9905
-17.9823
-17.9649
-17.9466
-17.9326
-17.923
-17.9166
-17.912
-17.9086
-17.906
-17.9041
-17.9027
-17.9016
-17.9007
-17.9001
-17.8997
-17.8996
-17.8995
-17.8994
-17.8995
-17.8995
-17.8999
-17.9006
-17.9016
-17.9029
-17.9048
-17.9073
-17.9107
-17.9154
-17.9218
-17.9306
-17.9423
-17.957
-17.9721
-17.9823
-17.9826
-17.9736
-17.9568
-17.9392
-17.9268
-17.9233
-17.9203
-17.9178
-17.9151
-17.9126
-17.9106
-17.909
-17.9078
-17.9069
-17.9062
-17.9057
-17.9053
-17.905
-17.9048
-17.9046
-17.9045
-17.9044
-17.9043
-18.3932
-18.3932
-18.3932
-18.3933
-18.3933
-18.3934
-18.3934
-18.3935
-18.3936
-18.3937
-18.3938
-18.3938
-18.3939
-18.3939
-18.394
-18.3941
-18.3951
-18.3982
-18.4037
-18.4138
-18.4273
-18.439
-18.4438
-18.4406
-18.4321
-18.4228
-18.4151
-18.4092
-18.4047
-18.4013
-18.3986
-18.3965
-18.3948
-18.3936
-18.3926
-18.3918
-18.3912
-18.3909
-18.3907
-18.3906
-18.3906
-18.3907
-18.3908
-18.3912
-18.3919
-18.3929
-18.3942
-18.3959
-18.3981
-18.401
-18.4048
-18.4098
-18.4161
-18.4241
-18.4331
-18.4411
-18.4453
-18.4439
-18.4381
-18.4295
-18.4212
-18.4154
-18.4124
-18.4095
-18.4069
-18.4046
-18.4026
-18.4009
-18.3996
-18.3985
-18.3977
-18.397
-18.3965
-18.3961
-18.3958
-18.3956
-18.3954
-18.3953
-18.3952
-18.3951
-18.8837
-18.8837
-18.8837
-18.8837
-18.8837
-18.8838
-18.8838
-18.8838
-18.8839
-18.8839
-18.8839
-18.8839
-18.8839
-18.8839
-18.8838
-18.8839
-18.8843
-18.8858
-18.889
-18.8945
-18.9017
-18.9081
-18.9114
-18.9111
-18.9081
-18.904
-18.8998
-18.8962
-18.8931
-18.8905
-18.8884
-18.8867
-18.8854
-18.8843
-18.8834
-18.8828
-18.8823
-18.8819
-18.8818
-18.8816
-18.8817
-18.8818
-18.8819
-18.8824
-18.8831
-18.884
-18.8852
-18.8867
-18.8886
-18.8911
-18.8941
-18.8979
-18.9025
-18.9079
-18.9136
-18.9186
-18.9215
-18.9214
-18.9179
-18.9127
-18.9076
-18.9038
-18.9009
-18.8983
-18.8961
-18.8942
-18.8926
-18.8912
-18.89
-18.8891
-18.8883
-18.8877
-18.8872
-18.8868
-18.8865
-18.8863
-18.8861
-18.886
-18.8859
-18.8859
-19.3741
-19.3741
-19.3741
-19.3742
-19.3742
-19.3742
-19.3742
-19.3742
-19.3742
-19.3742
-19.3742
-19.3741
-19.3741
-19.374
-19.374
-19.3741
-19.3744
-19.3752
-19.377
-19.3801
-19.3839
-19.3877
-19.3902
-19.3914
-19.3905
-19.3885
-19.3861
-19.3838
-19.3817
-19.3798
-19.3782
-19.3769
-19.3758
-19.3749
-19.3742
-19.3736
-19.3732
-19.3729
-19.3727
-19.3726
-19.3727
-19.3728
-19.373
-19.3735
-19.3741
-19.3749
-19.376
-19.3773
-19.379
-19.381
-19.3835
-19.3864
-19.3897
-19.3933
-19.397
-19.4
-19.4017
-19.4017
-19.4002
-19.3974
-19.3943
-19.3915
-19.3892
-19.3872
-19.3855
-19.3839
-19.3826
-19.3814
-19.3804
-19.3796
-19.3789
-19.3783
-19.3779
-19.3775
-19.3772
-19.377
-19.3769
-19.3767
-19.3767
-19.3766
-19.8646
-19.8646
-19.8646
-19.8646
-19.8646
-19.8646
-19.8646
-19.8646
-19.8646
-19.8645
-19.8645
-19.8644
-19.8644
-19.8643
-19.8643
-19.8643
-19.8646
-19.8653
-19.8665
-19.8683
-19.8708
-19.8733
-19.8752
-19.8759
-19.8757
-19.8747
-19.8734
-19.8719
-19.8705
-19.8692
-19.868
-19.867
-19.8662
-19.8654
-19.8648
-19.8644
-19.864
-19.8638
-19.8636
-19.8635
-19.8636
-19.8637
-19.8639
-19.8644
-19.865
-19.8658
-19.8667
-19.8679
-19.8693
-19.871
-19.8729
-19.8751
-19.8776
-19.8802
-19.8826
-19.8845
-19.8856
-19.8856
-19.8846
-19.8831
-19.8812
-19.8794
-19.8777
-19.8763
-19.8749
-19.8737
-19.8725
-19.8716
-19.8707
-19.87
-19.8694
-19.8689
-19.8685
-19.8682
-19.8679
-19.8677
-19.8675
-19.8674
-19.8673
-19.8673
-20.355
-20.355
-20.355
-20.355
-20.355
-20.355
-20.355
-20.355
-20.3549
-20.3549
-20.3548
-20.3548
-20.3547
-20.3547
-20.3546
-20.3547
-20.355
-20.3555
-20.3563
-20.3576
-20.3591
-20.3607
-20.362
-20.3626
-20.3627
-20.3623
-20.3615
-20.3606
-20.3597
-20.3588
-20.3579
-20.3572
-20.3565
-20.3559
-20.3554
-20.355
-20.3548
-20.3545
-20.3544
-20.3543
-20.3545
-20.3546
-20.3548
-20.3552
-20.3558
-20.3565
-20.3573
-20.3583
-20.3595
-20.3609
-20.3625
-20.3642
-20.366
-20.3679
-20.3695
-20.3709
-20.3716
-20.3717
-20.3712
-20.3702
-20.3691
-20.3678
-20.3666
-20.3655
-20.3644
-20.3634
-20.3625
-20.3617
-20.361
-20.3604
-20.3599
-20.3594
-20.359
-20.3587
-20.3585
-20.3583
-20.3581
-20.358
-20.358
-20.3579
-20.8455
-20.8455
-20.8455
-20.8455
-20.8455
-20.8455
-20.8454
-20.8454
-20.8454
-20.8453
-20.8452
-20.8452
-20.8451
-20.8451
-20.8451
-20.8452
-20.8453
-20.8457
-20.8463
-20.8472
-20.8482
-20.8492
-20.8501
-20.8506
-20.8508
-20.8507
-20.8503
-20.8497
-20.8491
-20.8485
-20.8479
-20.8473
-20.8468
-20.8464
-20.846
-20.8457
-20.8454
-20.8453
-20.8452
-20.8451
-20.8452
-20.8454
-20.8456
-20.846
-20.8465
-20.8471
-20.8479
-20.8487
-20.8497
-20.8509
-20.8521
-20.8535
-20.8549
-20.8562
-20.8574
-20.8584
-20.8589
-20.8591
-20.8588
-20.8583
-20.8575
-20.8567
-20.8558
-20.8549
-20.8541
-20.8533
-20.8525
-20.8519
-20.8513
-20.8507
-20.8503
-20.8499
-20.8496
-20.8493
-20.849
-20.8489
-20.8487
-20.8486
-20.8486
-20.8485
-21.336
-21.336
-21.336
-21.3359
-21.3359
-21.3359
-21.3359
-21.3358
-21.3358
-21.3357
-21.3357
-21.3356
-21.3356
-21.3355
-21.3355
-21.3356
-21.3358
-21.3361
-21.3365
-21.3371
-21.3378
-21.3385
-21.3391
-21.3395
-21.3397
-21.3397
-21.3395
-21.3391
-21.3387
-21.3383
-21.3379
-21.3375
-21.3371
-21.3368