/*--------------------------------*- C++ -*----------------------------------*\
| =========                 |                                                 |
| \\      /  F ield         | OpenFOAM: The Open Source CFD Toolbox           |
|  \\    /   O peration     | Version:  2412                                  |
|   \\  /    A nd           | Website:  www.openfoam.com                      |
|    \\/     M anipulation  |                                                 |
\*---------------------------------------------------------------------------*/
FoamFile
{
    version     2.0;
    format      ascii;
    arch        "LSB;label=32;scalar=64";
    class       volScalarField;
    location    "0.25";
    object      p;
}
// * * * * * * * * * * * * * * * * * * * * * * * * * * * * * * * * * * * * * //

dimensions      [1 -1 -2 0 0 0 0];

internalField   nonuniform List<scalar> 
6400
(
9555.99
9555.99
9555.99
9555.99
9555.99
9555.99
9556
9556
9556.01
9556.01
9556.02
9556.02
9556.03
9556.04
9556.04
9556.05
9556.06
9556.07
9556.08
9556.09
9556.1
9556.11
9556.12
9556.13
9556.14
9556.15
9556.16
9556.17
9556.18
9556.19
9556.2
9556.21
9556.21
9556.22
9556.23
9556.23
9556.24
9556.24
9556.25
9556.25
9556.25
9556.25
9556.25
9556.25
9556.25
9556.25
9556.25
9556.24
9556.24
9556.23
9556.23
9556.22
9556.21
9556.21
9556.2
9556.19
9556.19
9556.18
9556.17
9556.16
9556.16
9556.15
9556.14
9556.13
9556.13
9556.12
9556.12
9556.11
9556.11
9556.1
9556.1
9556.09
9556.09
9556.09
9556.09
9556.08
9556.08
9556.08
9556.08
9556.08
9065.48
9065.49
9065.49
9065.49
9065.49
9065.49
9065.5
9065.5
9065.51
9065.51
9065.52
9065.52
9065.53
9065.54
9065.54
9065.55
9065.56
9065.57
9065.58
9065.59
9065.6
9065.61
9065.62
9065.63
9065.64
9065.65
9065.66
9065.67
9065.68
9065.69
9065.7
9065.71
9065.72
9065.72
9065.73
9065.73
9065.74
9065.74
9065.75
9065.75
9065.75
9065.75
9065.75
9065.75
9065.75
9065.75
9065.75
9065.74
9065.74
9065.73
9065.73
9065.72
9065.71
9065.71
9065.7
9065.69
9065.69
9065.68
9065.67
9065.66
9065.66
9065.65
9065.64
9065.63
9065.63
9065.62
9065.62
9065.61
9065.61
9065.6
9065.6
9065.59
9065.59
9065.59
9065.59
9065.58
9065.58
9065.58
9065.58
9065.58
8574.98
8574.98
8574.99
8574.99
8574.99
8574.99
8575
8575
8575
8575.01
8575.01
8575.02
8575.03
8575.03
8575.04
8575.05
8575.06
8575.07
8575.08
8575.09
8575.1
8575.11
8575.12
8575.13
8575.14
8575.15
8575.16
8575.17
8575.18
8575.19
8575.2
8575.21
8575.22
8575.22
8575.23
8575.24
8575.24
8575.24
8575.25
8575.25
8575.25
8575.25
8575.25
8575.25
8575.25
8575.25
8575.25
8575.24
8575.24
8575.23
8575.23
8575.22
8575.22
8575.21
8575.2
8575.19
8575.19
8575.18
8575.17
8575.16
8575.16
8575.15
8575.14
8575.13
8575.13
8575.12
8575.12
8575.11
8575.11
8575.1
8575.1
8575.09
8575.09
8575.09
8575.08
8575.08
8575.08
8575.08
8575.08
8575.08
8084.48
8084.48
8084.48
8084.49
8084.49
8084.49
8084.49
8084.5
8084.5
8084.51
8084.51
8084.52
8084.53
8084.53
8084.54
8084.55
8084.56
8084.57
8084.58
8084.59
8084.6
8084.61
8084.62
8084.63
8084.64
8084.65
8084.66
8084.67
8084.68
8084.69
8084.7
8084.71
8084.72
8084.72
8084.73
8084.74
8084.74
8084.75
8084.75
8084.75
8084.75
8084.76
8084.76
8084.76
8084.75
8084.75
8084.75
8084.74
8084.74
8084.74
8084.73
8084.72
8084.72
8084.71
8084.7
8084.69
8084.69
8084.68
8084.67
8084.66
8084.66
8084.65
8084.64
8084.63
8084.63
8084.62
8084.62
8084.61
8084.6
8084.6
8084.6
8084.59
8084.59
8084.59
8084.58
8084.58
8084.58
8084.58
8084.58
8084.58
7593.98
7593.98
7593.98
7593.98
7593.99
7593.99
7593.99
7594
7594
7594.01
7594.01
7594.02
7594.02
7594.03
7594.04
7594.05
7594.06
7594.07
7594.08
7594.09
7594.1
7594.11
7594.12
7594.13
7594.14
7594.15
7594.16
7594.17
7594.18
7594.19
7594.2
7594.21
7594.22
7594.23
7594.23
7594.24
7594.24
7594.25
7594.25
7594.26
7594.26
7594.26
7594.26
7594.26
7594.26
7594.25
7594.25
7594.25
7594.24
7594.24
7594.23
7594.22
7594.22
7594.21
7594.2
7594.2
7594.19
7594.18
7594.17
7594.16
7594.16
7594.15
7594.14
7594.13
7594.13
7594.12
7594.11
7594.11
7594.1
7594.1
7594.1
7594.09
7594.09
7594.08
7594.08
7594.08
7594.08
7594.08
7594.08
7594.08
7103.48
7103.48
7103.48
7103.48
7103.48
7103.49
7103.49
7103.49
7103.5
7103.5
7103.51
7103.52
7103.52
7103.53
7103.54
7103.55
7103.56
7103.57
7103.58
7103.59
7103.6
7103.61
7103.62
7103.63
7103.64
7103.65
7103.66
7103.67
7103.68
7103.69
7103.7
7103.71
7103.72
7103.73
7103.73
7103.74
7103.75
7103.75
7103.76
7103.76
7103.76
7103.76
7103.76
7103.76
7103.76
7103.76
7103.75
7103.75
7103.74
7103.74
7103.73
7103.73
7103.72
7103.71
7103.7
7103.7
7103.69
7103.68
7103.67
7103.66
7103.66
7103.65
7103.64
7103.63
7103.63
7103.62
7103.61
7103.61
7103.6
7103.6
7103.59
7103.59
7103.59
7103.58
7103.58
7103.58
7103.58
7103.58
7103.57
7103.57
6612.97
6612.97
6612.97
6612.98
6612.98
6612.98
6612.99
6612.99
6613
6613
6613.01
6613.01
6613.02
6613.03
6613.04
6613.05
6613.05
6613.06
6613.07
6613.09
6613.1
6613.11
6613.12
6613.13
6613.14
6613.15
6613.16
6613.17
6613.18
6613.19
6613.2
6613.21
6613.22
6613.23
6613.24
6613.24
6613.25
6613.25
6613.26
6613.26
6613.26
6613.27
6613.27
6613.26
6613.26
6613.26
6613.26
6613.25
6613.25
6613.24
6613.24
6613.23
6613.22
6613.21
6613.21
6613.2
6613.19
6613.18
6613.17
6613.16
6613.16
6613.15
6613.14
6613.13
6613.13
6613.12
6613.11
6613.11
6613.1
6613.1
6613.09
6613.09
6613.08
6613.08
6613.08
6613.08
6613.07
6613.07
6613.07
6613.07
6122.47
6122.47
6122.47
6122.47
6122.48
6122.48
6122.48
6122.49
6122.49
6122.5
6122.5
6122.51
6122.52
6122.53
6122.53
6122.54
6122.55
6122.56
6122.57
6122.58
6122.59
6122.61
6122.62
6122.63
6122.64
6122.65
6122.66
6122.67
6122.69
6122.7
6122.71
6122.72
6122.72
6122.73
6122.74
6122.75
6122.75
6122.76
6122.76
6122.77
6122.77
6122.77
6122.77
6122.77
6122.77
6122.76
6122.76
6122.76
6122.75
6122.75
6122.74
6122.73
6122.72
6122.72
6122.71
6122.7
6122.69
6122.68
6122.67
6122.67
6122.66
6122.65
6122.64
6122.63
6122.63
6122.62
6122.61
6122.61
6122.6
6122.59
6122.59
6122.58
6122.58
6122.58
6122.57
6122.57
6122.57
6122.57
6122.57
6122.57
5631.96
5631.96
5631.97
5631.97
5631.97
5631.97
5631.98
5631.98
5631.99
5631.99
5632
5632.01
5632.01
5632.02
5632.03
5632.04
5632.05
5632.06
5632.07
5632.08
5632.09
5632.1
5632.12
5632.13
5632.14
5632.15
5632.16
5632.18
5632.19
5632.2
5632.21
5632.22
5632.23
5632.24
5632.24
5632.25
5632.26
5632.26
5632.27
5632.27
5632.27
5632.27
5632.28
5632.27
5632.27
5632.27
5632.27
5632.26
5632.26
5632.25
5632.24
5632.23
5632.23
5632.22
5632.21
5632.2
5632.19
5632.18
5632.17
5632.17
5632.16
5632.15
5632.14
5632.13
5632.12
5632.12
5632.11
5632.1
5632.1
5632.09
5632.09
5632.08
5632.08
5632.07
5632.07
5632.07
5632.07
5632.06
5632.06
5632.06
5141.46
5141.46
5141.46
5141.46
5141.47
5141.47
5141.47
5141.48
5141.48
5141.49
5141.49
5141.5
5141.51
5141.52
5141.53
5141.54
5141.55
5141.56
5141.57
5141.58
5141.59
5141.6
5141.62
5141.63
5141.64
5141.65
5141.67
5141.68
5141.69
5141.7
5141.71
5141.72
5141.73
5141.74
5141.75
5141.76
5141.76
5141.77
5141.77
5141.78
5141.78
5141.78
5141.78
5141.78
5141.78
5141.77
5141.77
5141.77
5141.76
5141.75
5141.75
5141.74
5141.73
5141.72
5141.71
5141.7
5141.69
5141.68
5141.68
5141.67
5141.66
5141.65
5141.64
5141.63
5141.62
5141.62
5141.61
5141.6
5141.59
5141.59
5141.58
5141.58
5141.57
5141.57
5141.57
5141.56
5141.56
5141.56
5141.56
5141.56
4650.95
4650.95
4650.95
4650.96
4650.96
4650.96
4650.97
4650.97
4650.98
4650.98
4650.99
4651
4651
4651.01
4651.02
4651.03
4651.04
4651.05
4651.06
4651.08
4651.09
4651.1
4651.11
4651.13
4651.14
4651.15
4651.17
4651.18
4651.19
4651.2
4651.22
4651.23
4651.24
4651.25
4651.26
4651.26
4651.27
4651.28
4651.28
4651.28
4651.29
4651.29
4651.29
4651.29
4651.28
4651.28
4651.28
4651.27
4651.27
4651.26
4651.25
4651.24
4651.23
4651.22
4651.22
4651.21
4651.2
4651.19
4651.18
4651.17
4651.16
4651.15
4651.14
4651.13
4651.12
4651.11
4651.1
4651.1
4651.09
4651.08
4651.08
4651.07
4651.07
4651.07
4651.06
4651.06
4651.06
4651.06
4651.05
4651.05
4160.44
4160.45
4160.45
4160.45
4160.45
4160.46
4160.46
4160.46
4160.47
4160.48
4160.48
4160.49
4160.5
4160.51
4160.52
4160.53
4160.54
4160.55
4160.56
4160.57
4160.59
4160.6
4160.61
4160.63
4160.64
4160.65
4160.67
4160.68
4160.69
4160.71
4160.72
4160.73
4160.74
4160.75
4160.76
4160.77
4160.78
4160.78
4160.79
4160.79
4160.79
4160.8
4160.8
4160.79
4160.79
4160.79
4160.78
4160.78
4160.77
4160.76
4160.76
4160.75
4160.74
4160.73
4160.72
4160.71
4160.7
4160.69
4160.68
4160.67
4160.66
4160.65
4160.64
4160.63
4160.62
4160.61
4160.6
4160.59
4160.59
4160.58
4160.57
4160.57
4160.56
4160.56
4160.56
4160.55
4160.55
4160.55
4160.55
4160.55
3669.94
3669.94
3669.94
3669.94
3669.94
3669.95
3669.95
3669.96
3669.96
3669.97
3669.98
3669.98
3669.99
3670
3670.01
3670.02
3670.03
3670.05
3670.06
3670.07
3670.08
3670.1
3670.11
3670.13
3670.14
3670.16
3670.17
3670.18
3670.2
3670.21
3670.22
3670.24
3670.25
3670.26
3670.27
3670.28
3670.28
3670.29
3670.3
3670.3
3670.3
3670.3
3670.3
3670.3
3670.3
3670.3
3670.29
3670.29
3670.28
3670.27
3670.26
3670.25
3670.24
3670.23
3670.22
3670.21
3670.2
3670.19
3670.18
3670.17
3670.16
3670.15
3670.13
3670.13
3670.12
3670.11
3670.1
3670.09
3670.08
3670.08
3670.07
3670.06
3670.06
3670.05
3670.05
3670.05
3670.04
3670.04
3670.04
3670.04
3179.43
3179.43
3179.43
3179.43
3179.43
3179.44
3179.44
3179.45
3179.45
3179.46
3179.47
3179.48
3179.49
3179.5
3179.51
3179.52
3179.53
3179.54
3179.55
3179.57
3179.58
3179.6
3179.61
3179.63
3179.64
3179.66
3179.67
3179.69
3179.7
3179.72
3179.73
3179.74
3179.75
3179.77
3179.78
3179.79
3179.79
3179.8
3179.81
3179.81
3179.81
3179.81
3179.81
3179.81
3179.81
3179.81
3179.8
3179.79
3179.79
3179.78
3179.77
3179.76
3179.75
3179.74
3179.73
3179.71
3179.7
3179.69
3179.68
3179.67
3179.65
3179.64
3179.63
3179.62
3179.61
3179.6
3179.59
3179.59
3179.58
3179.57
3179.56
3179.56
3179.55
3179.55
3179.54
3179.54
3179.54
3179.54
3179.53
3179.53
2688.92
2688.92
2688.92
2688.92
2688.92
2688.93
2688.93
2688.94
2688.95
2688.95
2688.96
2688.97
2688.98
2688.99
2689
2689.01
2689.02
2689.04
2689.05
2689.06
2689.08
2689.09
2689.11
2689.13
2689.14
2689.16
2689.17
2689.19
2689.2
2689.22
2689.23
2689.25
2689.26
2689.27
2689.29
2689.3
2689.3
2689.31
2689.32
2689.32
2689.32
2689.33
2689.33
2689.32
2689.32
2689.32
2689.31
2689.3
2689.3
2689.29
2689.28
2689.27
2689.25
2689.24
2689.23
2689.22
2689.2
2689.19
2689.18
2689.17
2689.15
2689.14
2689.13
2689.12
2689.11
2689.1
2689.09
2689.08
2689.07
2689.06
2689.06
2689.05
2689.04
2689.04
2689.04
2689.03
2689.03
2689.03
2689.03
2689.03
2198.41
2198.41
2198.41
2198.41
2198.41
2198.42
2198.42
2198.43
2198.43
2198.44
2198.45
2198.46
2198.47
2198.48
2198.49
2198.5
2198.52
2198.53
2198.54
2198.56
2198.57
2198.59
2198.61
2198.62
2198.64
2198.66
2198.68
2198.69
2198.71
2198.73
2198.74
2198.76
2198.77
2198.78
2198.8
2198.81
2198.82
2198.82
2198.83
2198.83
2198.84
2198.84
2198.84
2198.84
2198.83
2198.83
2198.82
2198.81
2198.8
2198.79
2198.78
2198.77
2198.76
2198.75
2198.73
2198.72
2198.71
2198.69
2198.68
2198.67
2198.65
2198.64
2198.63
2198.62
2198.6
2198.59
2198.58
2198.57
2198.57
2198.56
2198.55
2198.54
2198.54
2198.53
2198.53
2198.52
2198.52
2198.52
2198.52
2198.52
1707.89
1707.89
1707.9
1707.9
1707.9
1707.91
1707.91
1707.92
1707.92
1707.93
1707.94
1707.95
1707.96
1707.97
1707.98
1707.99
1708.01
1708.02
1708.04
1708.05
1708.07
1708.09
1708.11
1708.12
1708.14
1708.16
1708.18
1708.2
1708.21
1708.23
1708.25
1708.26
1708.28
1708.29
1708.31
1708.32
1708.33
1708.34
1708.34
1708.35
1708.35
1708.35
1708.35
1708.35
1708.35
1708.34
1708.33
1708.33
1708.32
1708.3
1708.29
1708.28
1708.27
1708.25
1708.24
1708.22
1708.21
1708.19
1708.18
1708.17
1708.15
1708.14
1708.12
1708.11
1708.1
1708.09
1708.08
1708.07
1708.06
1708.05
1708.04
1708.03
1708.03
1708.02
1708.02
1708.01
1708.01
1708.01
1708.01
1708.01
1217.38
1217.38
1217.38
1217.39
1217.39
1217.39
1217.4
1217.4
1217.41
1217.42
1217.43
1217.44
1217.45
1217.46
1217.47
1217.49
1217.5
1217.52
1217.53
1217.55
1217.57
1217.58
1217.6
1217.62
1217.64
1217.66
1217.68
1217.7
1217.72
1217.74
1217.76
1217.77
1217.79
1217.81
1217.82
1217.83
1217.84
1217.85
1217.86
1217.87
1217.87
1217.87
1217.87
1217.87
1217.86
1217.86
1217.85
1217.84
1217.83
1217.82
1217.8
1217.79
1217.77
1217.76
1217.74
1217.73
1217.71
1217.7
1217.68
1217.66
1217.65
1217.63
1217.62
1217.61
1217.59
1217.58
1217.57
1217.56
1217.55
1217.54
1217.53
1217.52
1217.52
1217.51
1217.51
1217.5
1217.5
1217.5
1217.5
1217.49
726.866
726.867
726.869
726.871
726.875
726.879
726.885
726.891
726.898
726.907
726.916
726.926
726.938
726.95
726.963
726.977
726.992
727.008
727.025
727.042
727.061
727.08
727.1
727.12
727.14
727.161
727.182
727.203
727.223
727.244
727.264
727.283
727.301
727.318
727.334
727.347
727.359
727.37
727.378
727.383
727.387
727.388
727.388
727.384
727.379
727.372
727.363
727.353
727.34
727.327
727.312
727.297
727.281
727.264
727.248
727.231
727.214
727.197
727.18
727.163
727.147
727.131
727.116
727.102
727.088
727.075
727.063
727.052
727.041
727.032
727.023
727.015
727.008
727.002
726.996
726.992
726.988
726.986
726.984
726.983
236.347
236.348
236.35
236.353
236.356
236.361
236.367
236.374
236.381
236.39
236.4
236.411
236.423
236.436
236.45
236.465
236.481
236.498
236.516
236.535
236.554
236.575
236.598
236.621
236.645
236.67
236.695
236.72
236.745
236.769
236.793
236.816
236.838
236.859
236.878
236.894
236.909
236.921
236.931
236.937
236.941
236.943
236.941
236.936
236.929
236.92
236.908
236.894
236.879
236.862
236.843
236.824
236.804
236.783
236.762
236.742
236.721
236.7
236.68
236.661
236.643
236.626
236.61
236.595
236.58
236.566
236.553
236.541
236.529
236.519
236.509
236.501
236.493
236.486
236.481
236.476
236.473
236.47
236.468
236.467
-9.16866
-9.16764
-9.1655
-9.16257
-9.15862
-9.15354
-9.1473
-9.13994
-9.13145
-9.12182
-9.11105
-9.09913
-9.08607
-9.0719
-9.05663
-9.04027
-9.02284
-9.00434
-8.98475
-8.96408
-8.94233
-8.91951
-8.89547
-8.87032
-8.84438
-8.81791
-8.79113
-8.76424
-8.73747
-8.71108
-8.68534
-8.66056
-8.63706
-8.61514
-8.5951
-8.57721
-8.56173
-8.54888
-8.53885
-8.53179
-8.52779
-8.52688
-8.52901
-8.53407
-8.5419
-8.55235
-8.56521
-8.58027
-8.59732
-8.61608
-8.63618
-8.65733
-8.67928
-8.7017
-8.72441
-8.74723
-8.76988
-8.7922
-8.81384
-8.83432
-8.85407
-8.87292
-8.89091
-8.90802
-8.92418
-8.9395
-8.95394
-8.9674
-8.97992
-8.99145
-9.00191
-9.01132
-9.01963
-9.02678
-9.03283
-9.0379
-9.04197
-9.04499
-9.04692
-9.04789
-9.6818
-9.6809
-9.67858
-9.67527
-9.67092
-9.66541
-9.65868
-9.65073
-9.64154
-9.63112
-9.61946
-9.60657
-9.59244
-9.57711
-9.56057
-9.54286
-9.52396
-9.50388
-9.48262
-9.46023
-9.43678
-9.41239
-9.38733
-9.36167
-9.33542
-9.3087
-9.28167
-9.25452
-9.22747
-9.20077
-9.17472
-9.14963
-9.12581
-9.10359
-9.08326
-9.06512
-9.04941
-9.03637
-9.0262
-9.01906
-9.01503
-9.01414
-9.01634
-9.02152
-9.02951
-9.04018
-9.05332
-9.06868
-9.08603
-9.10512
-9.12554
-9.14694
-9.16912
-9.19181
-9.21478
-9.23789
-9.26082
-9.28347
-9.3058
-9.3276
-9.34891
-9.36946
-9.38914
-9.40785
-9.4255
-9.44221
-9.45798
-9.47268
-9.4863
-9.49881
-9.51014
-9.5203
-9.52931
-9.53714
-9.54379
-9.54932
-9.55377
-9.55713
-9.55933
-9.56025
-10.1742
-10.1733
-10.1712
-10.1679
-10.1635
-10.158
-10.1513
-10.1433
-10.1342
-10.1238
-10.1122
-10.0994
-10.0853
-10.07
-10.0535
-10.0358
-10.0169
-9.99676
-9.97544
-9.95297
-9.92942
-9.90491
-9.8796
-9.85359
-9.82697
-9.79986
-9.7724
-9.74479
-9.71723
-9.69
-9.66337
-9.63769
-9.61328
-9.59049
-9.56963
-9.551
-9.53486
-9.52146
-9.51099
-9.50365
-9.49952
-9.49865
-9.501
-9.50645
-9.51483
-9.52594
-9.5396
-9.55554
-9.57345
-9.59305
-9.61401
-9.63593
-9.65858
-9.68175
-9.70519
-9.72874
-9.75212
-9.77513
-9.79773
-9.81981
-9.84127
-9.86186
-9.8816
-9.90036
-9.91807
-9.93483
-9.9506
-9.96525
-9.97881
-9.9913
-10.0026
-10.0128
-10.0218
-10.0296
-10.0362
-10.0418
-10.0462
-10.0495
-10.0518
-10.0528
-10.6679
-10.6669
-10.6648
-10.6616
-10.6572
-10.6517
-10.645
-10.6372
-10.6281
-10.6178
-10.6062
-10.5934
-10.5794
-10.5642
-10.5477
-10.5299
-10.511
-10.4908
-10.4693
-10.4467
-10.423
-10.3982
-10.3726
-10.3461
-10.319
-10.2914
-10.2633
-10.235
-10.2067
-10.1786
-10.1511
-10.1245
-10.0992
-10.0756
-10.0539
-10.0345
-10.0177
-10.0036
-9.99271
-9.98504
-9.98079
-9.97999
-9.9826
-9.98849
-9.99745
-10.0093
-10.0237
-10.0405
-10.0592
-10.0796
-10.1014
-10.1242
-10.1476
-10.1715
-10.1956
-10.2198
-10.2437
-10.2672
-10.2902
-10.3126
-10.3343
-10.3552
-10.375
-10.3939
-10.4117
-10.4285
-10.4443
-10.459
-10.4725
-10.485
-10.4963
-10.5064
-10.5154
-10.5232
-10.5299
-10.5354
-10.5398
-10.5431
-10.5453
-10.5464
-11.1629
-11.1618
-11.1597
-11.1565
-11.1522
-11.1467
-11.14
-11.1322
-11.1232
-11.1129
-11.1015
-11.0887
-11.0748
-11.0595
-11.043
-11.0253
-11.0063
-10.9859
-10.9644
-10.9416
-10.9176
-10.8925
-10.8664
-10.8394
-10.8117
-10.7833
-10.7544
-10.7252
-10.6958
-10.6666
-10.638
-10.6102
-10.5837
-10.5588
-10.536
-10.5155
-10.4976
-10.4828
-10.4712
-10.4631
-10.4587
-10.458
-10.461
-10.4675
-10.4773
-10.49
-10.5055
-10.5234
-10.5433
-10.5649
-10.5878
-10.6117
-10.6362
-10.661
-10.6861
-10.711
-10.7356
-10.7597
-10.7833
-10.8061
-10.8281
-10.8493
-10.8694
-10.8884
-10.9064
-10.9234
-10.9392
-10.9539
-10.9674
-10.9798
-10.9911
-11.0012
-11.0101
-11.0179
-11.0246
-11.0302
-11.0346
-11.0379
-11.04
-11.0411
-11.659
-11.6579
-11.6558
-11.6526
-11.6483
-11.6429
-11.6363
-11.6285
-11.6195
-11.6093
-11.5979
-11.5852
-11.5713
-11.5561
-11.5396
-11.5218
-11.5027
-11.4823
-11.4606
-11.4375
-11.4132
-11.3877
-11.3611
-11.3335
-11.305
-11.2757
-11.2458
-11.2154
-11.1848
-11.1542
-11.1241
-11.0947
-11.0666
-11.0402
-11.0158
-10.9938
-10.9746
-10.9586
-10.9461
-10.9375
-10.933
-10.9325
-10.936
-10.9432
-10.954
-10.968
-10.9849
-11.0043
-11.0258
-11.0489
-11.0733
-11.0986
-11.1244
-11.1505
-11.1766
-11.2026
-11.228
-11.2529
-11.277
-11.3005
-11.3229
-11.3444
-11.3648
-11.3841
-11.4022
-11.4193
-11.4352
-11.4498
-11.4634
-11.4759
-11.4871
-11.4972
-11.5062
-11.5139
-11.5206
-11.5261
-11.5305
-11.5337
-11.5359
-11.5369
-12.1562
-12.1551
-12.153
-12.1499
-12.1456
-12.1403
-12.1337
-12.126
-12.1171
-12.1069
-12.0956
-12.0829
-12.0691
-12.0539
-12.0374
-12.0196
-12.0005
-11.9799
-11.958
-11.9347
-11.91
-11.884
-11.8568
-11.8285
-11.7991
-11.7688
-11.7377
-11.7059
-11.6737
-11.6414
-11.6094
-11.5782
-11.5481
-11.5196
-11.4931
-11.4692
-11.4483
-11.4308
-11.4173
-11.408
-11.4033
-11.403
-11.4071
-11.4154
-11.4275
-11.4431
-11.4618
-11.4831
-11.5065
-11.5316
-11.5579
-11.5849
-11.6124
-11.64
-11.6675
-11.6946
-11.721
-11.7468
-11.7717
-11.7957
-11.8187
-11.8405
-11.8612
-11.8808
-11.8992
-11.9164
-11.9323
-11.9471
-11.9606
-11.9731
-11.9843
-11.9944
-12.0034
-12.0111
-12.0177
-12.0232
-12.0276
-12.0308
-12.0329
-12.0339
-12.6546
-12.6535
-12.6515
-12.6484
-12.6442
-12.6389
-12.6324
-12.6247
-12.6158
-12.6057
-12.5944
-12.5819
-12.5681
-12.5529
-12.5365
-12.5187
-12.4995
-12.4789
-12.4567
-12.4331
-12.4081
-12.3816
-12.3537
-12.3246
-12.2942
-12.2627
-12.2302
-12.1967
-12.1627
-12.1284
-12.0942
-12.0606
-12.0279
-11.9969
-11.9679
-11.9415
-11.9184
-11.8992
-11.8842
-11.8741
-11.869
-11.869
-11.8739
-11.8836
-11.8974
-11.9151
-11.9361
-11.9598
-11.9857
-12.0131
-12.0416
-12.0708
-12.1003
-12.1297
-12.1587
-12.1872
-12.2148
-12.2416
-12.2673
-12.292
-12.3156
-12.3379
-12.3589
-12.3787
-12.3972
-12.4146
-12.4307
-12.4455
-12.4591
-12.4715
-12.4828
-12.4928
-12.5017
-12.5095
-12.516
-12.5214
-12.5257
-12.5289
-12.531
-12.5321
-13.1541
-13.1531
-13.1511
-13.148
-13.1439
-13.1386
-13.1322
-13.1246
-13.1158
-13.1058
-13.0946
-13.0821
-13.0684
-13.0533
-13.037
-13.0192
-13
-12.9792
-12.9569
-12.933
-12.9075
-12.8805
-12.852
-12.8219
-12.7904
-12.7576
-12.7234
-12.6882
-12.652
-12.6153
-12.5784
-12.5419
-12.5062
-12.472
-12.4398
-12.4105
-12.3847
-12.3631
-12.3464
-12.3351
-12.3296
-12.33
-12.336
-12.3473
-12.3635
-12.3838
-12.4076
-12.4343
-12.4631
-12.4934
-12.5247
-12.5564
-12.5882
-12.6197
-12.6505
-12.6805
-12.7095
-12.7374
-12.7641
-12.7895
-12.8135
-12.8364
-12.8579
-12.878
-12.8968
-12.9142
-12.9303
-12.9451
-12.9587
-12.9711
-12.9823
-12.9923
-13.0011
-13.0088
-13.0153
-13.0207
-13.025
-13.0282
-13.0303
-13.0313
-13.6548
-13.6538
-13.6518
-13.6488
-13.6447
-13.6395
-13.6332
-13.6257
-13.617
-13.6071
-13.596
-13.5837
-13.5701
-13.5551
-13.5389
-13.5212
-13.5019
-13.4811
-13.4586
-13.4344
-13.4086
-13.381
-13.3517
-13.3207
-13.288
-13.2537
-13.2178
-13.1804
-13.1418
-13.1023
-13.0623
-13.0223
-12.9829
-12.9448
-12.9088
-12.8757
-12.8464
-12.8219
-12.803
-12.7903
-12.7844
-12.7852
-12.7926
-12.806
-12.825
-12.8486
-12.876
-12.9063
-12.9388
-12.9727
-13.0073
-13.0419
-13.0764
-13.1103
-13.1432
-13.1749
-13.2052
-13.2343
-13.2621
-13.2885
-13.3132
-13.3364
-13.3582
-13.3785
-13.3975
-13.415
-13.4311
-13.4459
-13.4595
-13.4719
-13.483
-13.493
-13.5017
-13.5093
-13.5157
-13.5212
-13.5254
-13.5285
-13.5306
-13.5317
-14.1565
-14.1556
-14.1536
-14.1506
-14.1466
-14.1415
-14.1353
-14.1279
-14.1194
-14.1097
-14.0987
-14.0866
-14.0732
-14.0584
-14.0423
-14.0247
-14.0055
-13.9846
-13.962
-13.9375
-13.9113
-13.8831
-13.8531
-13.8211
-13.7872
-13.7513
-13.7135
-13.6738
-13.6324
-13.5897
-13.546
-13.5019
-13.4581
-13.4153
-13.3745
-13.3367
-13.3031
-13.2749
-13.2531
-13.2387
-13.2321
-13.2335
-13.2427
-13.2589
-13.2813
-13.3091
-13.341
-13.376
-13.4129
-13.4509
-13.4894
-13.5277
-13.5652
-13.6016
-13.6368
-13.6705
-13.7026
-13.7329
-13.7616
-13.7886
-13.814
-13.8378
-13.86
-13.8805
-13.8996
-13.9173
-13.9334
-13.9482
-13.9618
-13.974
-13.985
-13.9948
-14.0035
-14.011
-14.0174
-14.0227
-14.0269
-14.03
-14.0321
-14.0332
-14.6593
-14.6584
-14.6564
-14.6535
-14.6496
-14.6446
-14.6385
-14.6313
-14.623
-14.6135
-14.6028
-14.5909
-14.5777
-14.5632
-14.5472
-14.5297
-14.5106
-14.4898
-14.4671
-14.4425
-14.4159
-14.3872
-14.3565
-14.3235
-14.2883
-14.2508
-14.2109
-14.1687
-14.1243
-14.0779
-14.03
-13.9811
-13.9319
-13.8834
-13.8367
-13.793
-13.754
-13.721
-13.6956
-13.6788
-13.6715
-13.6737
-13.6851
-13.7049
-13.732
-13.7649
-13.8024
-13.843
-13.8854
-13.9284
-13.9714
-14.0138
-14.0549
-14.0943
-14.1319
-14.1676
-14.2012
-14.233
-14.2628
-14.2907
-14.3167
-14.3409
-14.3633
-14.3841
-14.4033
-14.421
-14.4371
-14.4518
-14.4651
-14.4772
-14.4881
-14.4978
-14.5064
-14.5138
-14.5201
-14.5253
-14.5295
-14.5326
-14.5347
-14.5357
-15.1631
-15.1621
-15.1603
-15.1574
-15.1536
-15.1487
-15.1429
-15.1359
-15.1279
-15.1186
-15.1082
-15.0966
-15.0837
-15.0694
-15.0537
-15.0364
-15.0175
-14.9967
-14.974
-14.9493
-14.9225
-14.8935
-14.8621
-14.8283
-14.7918
-14.7526
-14.7105
-14.6656
-14.6178
-14.5673
-14.5146
-14.4601
-14.4046
-14.3491
-14.2951
-14.2441
-14.1981
-14.1591
-14.1289
-14.1092
-14.1009
-14.1042
-14.1186
-14.1431
-14.176
-14.2155
-14.2598
-14.3072
-14.3562
-14.4053
-14.4537
-14.5006
-14.5457
-14.5885
-14.6288
-14.6667
-14.7021
-14.7352
-14.766
-14.7946
-14.8212
-14.8457
-14.8684
-14.8893
-14.9084
-14.926
-14.9421
-14.9566
-14.9699
-14.9818
-14.9926
-15.0021
-15.0105
-15.0177
-15.0239
-15.0291
-15.0332
-15.0363
-15.0384
-15.0393
-15.6678
-15.6669
-15.6651
-15.6623
-15.6586
-15.654
-15.6483
-15.6417
-15.6339
-15.625
-15.6149
-15.6036
-15.5911
-15.5772
-15.5617
-15.5448
-15.526
-15.5055
-15.483
-15.4584
-15.4315
-15.4022
-15.3703
-15.3356
-15.298
-15.2571
-15.2128
-15.165
-15.1136
-15.0586
-15.0004
-14.9394
-14.8765
-14.8127
-14.7496
-14.6895
-14.6346
-14.5877
-14.5513
-14.5277
-14.5183
-14.5232
-14.5417
-14.5722
-14.6126
-14.6604
-14.7132
-14.7689
-14.8256
-14.8818
-14.9364
-14.9888
-15.0382
-15.0846
-15.1279
-15.1681
-15.2052
-15.2396
-15.2714
-15.3007
-15.3277
-15.3524
-15.3752
-15.3961
-15.4152
-15.4326
-15.4486
-15.4631
-15.4761
-15.4878
-15.4983
-15.5077
-15.5158
-15.5229
-15.529
-15.534
-15.538
-15.541
-15.543
-15.5439
-16.1735
-16.1726
-16.1709
-16.1682
-16.1647
-16.1603
-16.1549
-16.1485
-16.1411
-16.1326
-16.1229
-16.112
-16.0999
-16.0864
-16.0714
-16.0548
-16.0364
-16.0162
-15.9941
-15.9697
-15.9429
-15.9135
-15.8813
-15.846
-15.8072
-15.7648
-15.7183
-15.6676
-15.6124
-15.5526
-15.4883
-15.42
-15.3483
-15.2745
-15.2004
-15.1287
-15.0624
-15.0052
-14.9607
-14.9321
-14.9213
-14.9285
-14.9527
-14.9913
-15.0414
-15.0997
-15.163
-15.2286
-15.2944
-15.3587
-15.4204
-15.4786
-15.533
-15.5833
-15.6296
-15.6721
-15.711
-15.7466
-15.7793
-15.8091
-15.8363
-15.8611
-15.8839
-15.9047
-15.9238
-15.941
-15.9566
-15.9709
-15.9836
-15.995
-16.0052
-16.0143
-16.0223
-16.0292
-16.0351
-16.0401
-16.0439
-16.0467
-16.0486
-16.0495
-16.6801
-16.6792
-16.6776
-16.6751
-16.6718
-16.6676
-16.6625
-16.6565
-16.6494
-16.6413
-16.6321
-16.6217
-16.61
-16.597
-16.5826
-16.5665
-16.5487
-16.529
-16.5073
-16.4834
-16.457
-16.4278
-16.3955
-16.3597
-16.3201
-16.2762
-16.2277
-16.1742
-16.1151
-16.0502
-15.9794
-15.9028
-15.8211
-15.7355
-15.648
-15.5617
-15.4807
-15.41
-15.3546
-15.3193
-15.3068
-15.3176
-15.3497
-15.3996
-15.4626
-15.534
-15.6101
-15.6874
-15.7637
-15.8371
-15.9064
-15.9711
-16.0307
-16.085
-16.1345
-16.1793
-16.2199
-16.2565
-16.2898
-16.3199
-16.3472
-16.3721
-16.3947
-16.4153
-16.434
-16.451
-16.4662
-16.48
-16.4924
-16.5035
-16.5134
-16.5222
-16.5299
-16.5367
-16.5423
-16.547
-16.5507
-16.5534
-16.5552
-16.556
-17.1876
-17.1868
-17.1852
-17.1829
-17.1798
-17.1759
-17.1711
-17.1654
-17.1588
-17.1511
-17.1424
-17.1326
-17.1215
-17.1091
-17.0953
-17.0799
-17.0629
-17.0439
-17.0229
-16.9996
-16.9738
-16.945
-16.9129
-16.8771
-16.8369
-16.792
-16.7416
-16.6853
-16.6227
-16.5527
-16.4751
-16.3897
-16.2967
-16.1972
-16.0935
-15.989
-15.889
-15.8001
-15.7299
-15.6853
-15.6708
-15.687
-15.7308
-15.7963
-15.8765
-15.9651
-16.0566
-16.1476
-16.2355
-16.3186
-16.3961
-16.4674
-16.5323
-16.5907
-16.6432
-16.6902
-16.7322
-16.7696
-16.8033
-16.8336
-16.8608
-16.8854
-16.9077
-16.9279
-16.9461
-16.9625
-16.9773
-16.9906
-17.0025
-17.0133
-17.0229
-17.0313
-17.0387
-17.0451
-17.0505
-17.0549
-17.0584
-17.061
-17.0627
-17.0636
-17.6959
-17.6952
-17.6938
-17.6916
-17.6888
-17.6851
-17.6807
-17.6753
-17.6691
-17.662
-17.6539
-17.6447
-17.6343
-17.6227
-17.6096
-17.5951
-17.5789
-17.5609
-17.5408
-17.5185
-17.4935
-17.4655
-17.434
-17.3984
-17.3582
-17.3127
-17.261
-17.2026
-17.1367
-17.0618
-16.9774
-16.8827
-16.7775
-16.6624
-16.5394
-16.4123
-16.2874
-16.1736
-16.0822
-16.0242
-16.007
-16.0318
-16.0929
-16.1807
-16.2846
-16.3952
-16.5058
-16.6123
-16.7127
-16.8058
-16.8913
-16.969
-17.0388
-17.1011
-17.1564
-17.2052
-17.2483
-17.2864
-17.3202
-17.3503
-17.3771
-17.4012
-17.4229
-17.4424
-17.4599
-17.4757
-17.49
-17.5027
-17.5141
-17.5243
-17.5334
-17.5415
-17.5484
-17.5545
-17.5596
-17.5638
-17.5671
-17.5695
-17.5712
-17.572
-18.205
-18.2044
-18.2031
-18.2011
-18.1985
-18.1952
-18.1911
-18.1862
-18.1805
-18.1739
-18.1665
-18.158
-18.1484
-18.1376
-18.1255
-18.112
-18.0968
-18.0799
-18.061
-18.0398
-18.016
-17.9892
-17.9587
-17.924
-17.8843
-17.8388
-17.7866
-17.7266
-17.6577
-17.5791
-17.4886
-17.3851
-17.2674
-17.1353
-16.9899
-16.8348
-16.677
-16.5283
-16.4053
-16.3265
-16.3054
-16.3439
-16.4316
-16.552
-16.6886
-16.828
-16.9617
-17.0857
-17.199
-17.3017
-17.3944
-17.4777
-17.5515
-17.6171
-17.6747
-17.725
-17.7687
-17.8069
-17.8404
-17.8699
-17.896
-17.9193
-17.9401
-17.9589
-17.9756
-17.9907
-18.0042
-18.0162
-18.027
-18.0365
-18.0451
-18.0526
-18.0591
-18.0648
-18.0696
-18.0736
-18.0767
-18.079
-18.0805
-18.0812
-18.7149
-18.7143
-18.7131
-18.7114
-18.709
-18.706
-18.7023
-18.6979
-18.6927
-18.6868
-18.68
-18.6723
-18.6636
-18.6538
-18.6428
-18.6304
-18.6165
-18.6009
-18.5835
-18.5638
-18.5415
-18.5163
-18.4873
-18.454
-18.4155
-18.3709
-18.319
-18.2587
-18.1885
-18.1069
-18.0118
-17.9007
-17.7713
-17.622
-17.4518
-17.2628
-17.0615
-16.8625
-16.6903
-16.5775
-16.5501
-16.6115
-16.7413
-16.9098
-17.0914
-17.2682
-17.43
-17.5733
-17.6992
-17.81
-17.9079
-17.9946
-18.0719
-18.1398
-18.1988
-18.2497
-18.2935
-18.3312
-18.3639
-18.3925
-18.4176
-18.4399
-18.4597
-18.4774
-18.4932
-18.5072
-18.5198
-18.531
-18.541
-18.5499
-18.5578
-18.5647
-18.5708
-18.5761
-18.5806
-18.5842
-18.5871
-18.5892
-18.5906
-18.5912
-19.2254
-19.2249
-19.2238
-19.2223
-19.2202
-19.2175
-19.2142
-19.2103
-19.2058
-19.2005
-19.1945
-19.1877
-19.1799
-19.1712
-19.1614
-19.1503
-19.1379
-19.1239
-19.1081
-19.0902
-19.0699
-19.0466
-19.0197
-18.9885
-18.9521
-18.9092
-18.8589
-18.7995
-18.7296
-18.6473
-18.5502
-18.4343
-18.2961
-18.1312
-17.9356
-17.7071
-17.449
-17.1765
-16.9252
-16.7537
-16.7163
-16.8181
-17.0168
-17.2573
-17.5001
-17.7236
-17.9179
-18.0815
-18.2184
-18.3347
-18.4351
-18.5233
-18.6014
-18.6699
-18.7292
-18.7798
-18.8229
-18.8596
-18.8911
-18.9183
-18.942
-18.9629
-18.9813
-18.9977
-19.0123
-19.0253
-19.0367
-19.047
-19.0561
-19.0643
-19.0716
-19.078
-19.0835
-19.0883
-19.0923
-19.0956
-19.0982
-19.1001
-19.1014
-19.102
-19.7364
-19.736
-19.7351
-19.7338
-19.7319
-19.7296
-19.7268
-19.7235
-19.7196
-19.7151
-19.7098
-19.7039
-19.6973
-19.6897
-19.6812
-19.6716
-19.6608
-19.6486
-19.6348
-19.619
-19.601
-19.5802
-19.5559
-19.5274
-19.4938
-19.4538
-19.4063
-19.3498
-19.2824
-19.2022
-19.1061
-18.9911
-18.8495
-18.6746
-18.4569
-18.1866
-17.8575
-17.4788
-17.0968
-16.8165
-16.7642
-16.9424
-17.2575
-17.607
-17.9303
-18.2073
-18.4352
-18.6176
-18.7626
-18.8799
-18.9786
-19.0648
-19.1411
-19.2083
-19.2663
-19.3156
-19.3571
-19.3921
-19.4218
-19.4471
-19.469
-19.4881
-19.5049
-19.5197
-19.5329
-19.5446
-19.5549
-19.5641
-19.5724
-19.5798
-19.5863
-19.5921
-19.5971
-19.6013
-19.6048
-19.6077
-19.61
-19.6118
-19.6129
-19.6136
-20.248
-20.2476
-20.2469
-20.2457
-20.2442
-20.2423
-20.24
-20.2373
-20.234
-20.2303
-20.2259
-20.221
-20.2155
-20.2092
-20.2021
-20.1941
-20.1851
-20.1749
-20.1633
-20.15
-20.1346
-20.1166
-20.0955
-20.0705
-20.0405
-20.0045
-19.9613
-19.9094
-19.8474
-19.7733
-19.6839
-19.575
-19.4402
-19.2663
-19.0374
-18.7322
-18.3248
-17.7998
-17.1998
-16.7092
-16.6356
-16.9641
-17.4786
-17.9895
-18.413
-18.7425
-18.9963
-19.19
-19.3366
-19.4493
-19.5411
-19.6207
-19.6919
-19.7553
-19.8103
-19.857
-19.896
-19.9286
-19.9558
-19.9788
-19.9984
-20.0154
-20.0302
-20.0433
-20.0549
-20.0652
-20.0744
-20.0825
-20.0898
-20.0962
-20.102
-20.107
-20.1113
-20.115
-20.118
-20.1206
-20.1226
-20.1242
-20.1252
-20.1258
-20.76
-20.7597
-20.7591
-20.7582
-20.757
-20.7555
-20.7537
-20.7516
-20.749
-20.746
-20.7426
-20.7388
-20.7344
-20.7295
-20.7239
-20.7177
-20.7106
-20.7026