/*--------------------------------*- C++ -*----------------------------------*\
| =========                 |                                                 |
| \\      /  F ield         | OpenFOAM: The Open Source CFD Toolbox           |
|  \\    /   O peration     | Version:  2412                                  |
|   \\  /    A nd           | Website:  www.openfoam.com                      |
|    \\/     M anipulation  |                                                 |
\*---------------------------------------------------------------------------*/
FoamFile
{
    version     2.0;
    format      ascii;
    arch        "LSB;label=32;scalar=64";
    class       surfaceScalarField;
    location    "4.15";
    object      alphaPhi0.lava;
}
// * * * * * * * * * * * * * * * * * * * * * * * * * * * * * * * * * * * * * //

dimensions      [0 3 -1 0 0 0 0];

oriented        oriented;

internalField   nonuniform List<scalar> 
12640
(
-1.39411e-08
1.40083e-08
-1.55054e-08
2.47678e-08
7.94285e-09
1.32371e-09
3.54592e-08
-2.99461e-08
4.48548e-08
-5.07744e-08
2.07034e-08
-4.20348e-08
-2.77588e-08
-5.401e-10
-6.97668e-08
5.3012e-08
-7.31282e-08
8.4478e-08
-2.78803e-08
6.8469e-08
4.34079e-08
7.37233e-09
9.73346e-08
-6.64854e-08
9.69101e-08
-1.08728e-07
3.67982e-08
-9.04466e-08
-5.0628e-08
-1.78535e-08
-1.13545e-07
6.9266e-08
-1.12474e-07
1.20299e-07
-4.54822e-08
1.04269e-07
4.94929e-08
2.90372e-08
1.1705e-07
-6.27947e-08
1.17677e-07
-1.18915e-07
5.14895e-08
-1.08066e-07
-4.23405e-08
-3.79403e-08
-1.09501e-07
5.03058e-08
-1.1289e-07
1.06863e-07
-5.35477e-08
1.02135e-07
3.18067e-08
4.24575e-08
9.39382e-08
-3.57337e-08
1.00061e-07
-8.84648e-08
5.13142e-08
-8.93643e-08
-2.07167e-08
-4.27847e-08
-7.44992e-08
2.15515e-08
-8.27873e-08
6.74745e-08
-4.62313e-08
7.28115e-08
1.02351e-08
3.97186e-08
5.40981e-08
-9.6122e-09
6.39825e-08
-4.74954e-08
3.95833e-08
-5.61493e-08
-1.39859e-09
-3.54484e-08
-3.55472e-08
-1.20759e-10
-4.69137e-08
3.02286e-08
-3.37736e-08
4.16969e-08
-6.64931e-09
3.17314e-08
1.94033e-08
8.12259e-09
3.28509e-08
-1.65359e-08
2.99528e-08
-3.11804e-08
1.43761e-08
-3.04684e-08
-6.02663e-09
-1.58764e-08
-2.27899e-08
5.6796e-09
-2.94267e-08
2.46487e-08
-2.30825e-08
3.23236e-08
-5.63697e-09
2.43585e-08
1.60874e-08
3.26603e-09
3.20469e-08
-2.15789e-08
3.31079e-08
-3.74374e-08
1.62927e-08
-3.44544e-08
-1.19253e-08
-1.17762e-08
-3.72305e-08
2.03105e-08
-4.44601e-08
4.45208e-08
-2.6735e-08
4.57774e-08
8.82677e-09
2.06065e-08
4.32966e-08
-1.91767e-08
5.59583e-08
-5.17159e-08
3.69227e-08
-5.7206e-08
-5.51941e-09
-3.00877e-08
-4.81347e-08
1.6335e-08
-6.56773e-08
5.63965e-08
-4.61697e-08
6.65972e-08
9.69526e-10
3.96974e-08
4.9491e-08
-1.03429e-08
7.14091e-08
-5.59591e-08
5.36357e-08
-7.1874e-08
5.97448e-09
-4.96932e-08
-4.44401e-08
-2.29999e-09
-6.91823e-08
4.48479e-08
-5.53571e-08
6.9423e-08
-1.36063e-08
6.4645e-08
2.8807e-08
3.76768e-08
3.53751e-08
7.83075e-09
-2.90608e-08
1.59117e-08
-2.23286e-08
-9.05043e-09
4.87601e-09
-1.36023e-08
3.42406e-09
-8.45404e-09
-4.04096e-09
3.93967e-09
-9.17763e-09
1.3538e-08
-6.88795e-09
1.31203e-08
4.10462e-09
2.85225e-09
1.76939e-08
-9.86477e-09
2.34625e-08
-1.56658e-08
1.43728e-08
-1.00091e-08
-6.97166e-09
3.4432e-09
-2.84754e-08
1.527e-08
-3.57111e-08
1.68667e-08
-2.16595e-08
6.55822e-09
7.59345e-09
-9.04295e-09
3.54689e-08
-1.94123e-08
4.46782e-08
-1.72475e-08
2.82124e-08
-3.49661e-09
-5.62803e-09
1.31339e-08
-3.76451e-08
2.18479e-08
-4.90867e-08
1.68414e-08
-3.29827e-08
1.11164e-09
1.56514e-09
-1.54933e-08
3.47713e-08
-2.26316e-08
4.78792e-08
-1.60244e-08
3.40877e-08
4.36331e-12
2.11968e-09
1.54839e-08
-2.94233e-08
2.11544e-08
-4.31668e-08
1.41025e-08
-3.2746e-08
-8.03386e-10
-5.64344e-09
-1.43272e-08
2.20632e-08
-1.87164e-08
3.53777e-08
-1.22132e-08
2.85979e-08
4.27701e-10
7.50453e-09
1.1371e-08
-1.508e-08
1.46268e-08
-2.71026e-08
9.33628e-09
-2.3681e-08
-3.69969e-10
-8.719e-09
-8.44764e-09
8.4542e-09
-1.07234e-08
1.88238e-08
-7.00394e-09
1.82996e-08
-4.86325e-10
8.92246e-09
4.7383e-09
-3.31321e-09
6.23891e-09
-1.21691e-08
4.26888e-09
-1.41549e-08
9.20498e-10
-9.50248e-09
-1.65717e-09
-1.22113e-09
-2.59735e-09
6.73309e-09
-2.39514e-09
1.11126e-08
-1.96131e-09
1.0347e-08
-1.61999e-09
4.86322e-09
-9.17533e-10
-3.07328e-09
6.65991e-10
-9.99761e-09
2.81714e-09
-1.24668e-08
4.21094e-09
-8.68086e-09
3.3792e-09
2.05408e-10
3.19028e-11
1.00306e-08
-4.25751e-09
1.53619e-08
-6.7443e-09
1.24604e-08
-5.31909e-09
1.87329e-09
-2.14317e-10
-1.11436e-08
5.71904e-09
-1.91039e-08
8.60849e-09
-1.66053e-08
6.14714e-09
-3.96809e-09
-5.83083e-10
1.22412e-08
-7.46208e-09
2.25835e-08
-9.8569e-09
2.03171e-08
-5.79285e-09
5.84307e-09
2.37833e-09
-1.29375e-08
9.1285e-09
-2.49508e-08
9.264e-09
-2.2623e-08
1.88393e-09
-6.86826e-09
-7.76531e-09
1.29545e-08
-1.0109e-08
2.4528e-08
2.06334e-09
2.03577e-08
2.52435e-08
1.1461e-09
3.6759e-08
-2.62643e-08
-4.13591e-09
-4.04077e-08
-2.05489e-08
3.44585e-08
-3.14066e-08
3.06018e-09
-5.18288e-09
-5.58041e-09
4.23242e-09
-8.31853e-09
4.66728e-09
-4.92664e-09
2.16335e-09
1.31906e-09
-2.42861e-09
5.51074e-09
-5.20887e-09
4.23422e-09
-3.17396e-09
-1.56959e-09
2.61794e-09
-7.0157e-09
7.72744e-09
-7.06364e-09
7.71209e-09
-6.45179e-10
1.63927e-09
8.13268e-09
-6.87553e-09
1.27066e-08
-1.19489e-08
8.82601e-09
-9.50631e-09
-2.04702e-09
-3.37689e-10
-1.32517e-08
1.00638e-08
-1.71857e-08
1.49162e-08
-1.04936e-08
1.06269e-08
3.38003e-09
-6.74737e-10
1.60892e-08
-1.22886e-08
1.95995e-08
-1.70858e-08
1.13679e-08
-1.19854e-08
-3.90266e-09
8.4061e-11
-1.71052e-08
1.19702e-08
-2.03679e-08
1.66846e-08
-1.18826e-08
1.16292e-08
3.10818e-09
3.25737e-11
1.56663e-08
-1.11873e-08
1.86361e-08
-1.56705e-08
1.0816e-08
-1.12971e-08
-2.65875e-09
-1.1387e-09
-1.37332e-08
8.69386e-09
-1.6355e-08
1.27999e-08
-9.82992e-09
9.5022e-09
1.26716e-09
1.41401e-09
1.02561e-08
-6.51608e-09
1.24122e-08
-1.0059e-08
7.43736e-09
-7.95546e-09
-9.35464e-10
-2.17455e-09
-7.61561e-09
3.67656e-09
-9.24335e-09
6.59244e-09
-5.81616e-09
5.67385e-09
-1.16944e-10
2.17117e-09
4.3658e-09
-1.65995e-09
5.53915e-09
-3.97455e-09
3.57833e-09
-4.15139e-09
2.93357e-10
-2.70218e-09
-2.30939e-09
-6.14804e-10
-3.20521e-09
1.27364e-09
-2.5989e-09
2.49483e-09
-1.33344e-09
2.81694e-09
-1.07731e-10
2.09856e-09
8.67545e-10
3.82408e-10
1.63186e-09
-1.8514e-09
2.04084e-09
-3.61501e-09
1.66067e-09
-3.7969e-09
1.75393e-10
-1.89368e-09
-2.04338e-09
1.40484e-09
-3.79889e-09
4.32734e-09
-3.68815e-09
4.96325e-09
-1.17443e-09
2.54262e-09
2.68127e-09
-1.81608e-09
5.53879e-09
-5.54108e-09
5.177e-09
-6.12745e-09
1.16019e-09
-2.84491e-09
-4.43086e-09
2.52651e-09
-7.95629e-09
6.59579e-09
-6.52275e-09
6.49235e-09
-2.66499e-10
1.91125e-09
7.03065e-09
-4.36382e-09
9.87431e-09
-8.02674e-09
4.89211e-09
-6.08636e-09
-5.42535e-09
8.09695e-10
-1.23428e-08
8.40525e-09
-6.33803e-09
1.11099e-08
1.13914e-08
3.96091e-09
2.06759e-08
-1.54844e-08
-2.67399e-08
-2.79038e-08
1.51729e-08
2.62105e-08
-1.39177e-08
3.25836e-09
-1.25619e-08
6.35307e-10
4.35013e-10
-2.4082e-10
5.85117e-09
-9.88175e-10
6.55064e-09
-1.17799e-10
2.39031e-10
7.36167e-10
-9.23311e-09
-1.11472e-09
-1.4532e-08
-5.82181e-09
-1.05607e-08
-9.76077e-09
1.53244e-09
-8.2045e-09
1.45809e-08
3.6214e-10
1.98781e-08
1.19778e-08
1.3052e-08
1.90867e-08
-2.65349e-09
1.55807e-08
-1.80189e-08
1.55194e-09
-2.34886e-08
-1.57523e-08
-1.52642e-08
-2.58676e-08
2.11284e-09
-2.16959e-08
1.8404e-08
-4.45275e-09
2.39234e-08
1.64605e-08
1.5452e-08
2.88311e-08
-1.88837e-09
2.50436e-08
-1.78647e-08
6.88214e-09
-2.33435e-08
-1.53492e-08
-1.56389e-08
-2.89048e-08
2.05724e-10
-2.61783e-08
1.47639e-08
-9.11405e-09
1.99672e-08
1.21762e-08
1.36515e-08
2.55716e-08
3.14306e-10
2.40266e-08
-1.20391e-08
9.3419e-09
-1.67533e-08
-9.42147e-09
-1.21143e-08
-2.16049e-08
-1.73678e-09
-2.11182e-08
8.09743e-09
-9.47053e-09
1.22577e-08
5.81571e-09
9.39508e-09
1.6039e-08
2.08157e-09
1.62925e-08
-5.22472e-09
7.72497e-09
-8.86745e-09
-3.87465e-09
-7.72827e-09
-1.18882e-08
-3.25504e-09
-1.26044e-08
1.84013e-09
-6.788e-09
5.18707e-09
1.46044e-09
5.72942e-09
7.46899e-09
3.77366e-09
8.56546e-09
4.43835e-10
5.08285e-09
-2.92053e-09
-4.27176e-10
-5.1268e-09
-4.95002e-09
-5.32328e-09
-6.56699e-09
-3.23336e-09
-5.06443e-09
5.50671e-10
-1.58054e-09
4.4873e-09
2.20019e-09
6.55178e-09
4.75852e-09
5.25709e-09
5.13573e-09
7.261e-10
3.11505e-09
-4.95596e-09
-6.66177e-10
-8.59737e-09
-4.72111e-09
-7.69584e-09
-7.07748e-09
-2.16138e-09
-6.12392e-09
5.23095e-09
-1.65971e-09
1.01911e-08
4.51932e-09
9.44894e-09
9.13065e-09
2.95002e-09
9.06487e-09
-5.78361e-09
3.41286e-09
-1.15681e-08
-5.41182e-09
-1.072e-08
-1.24664e-08
-3.50774e-09
-1.29547e-08
5.78142e-09
-5.44556e-09
1.13915e-08
6.4269e-09
9.7695e-09
1.53605e-08
1.9988e-09
1.48436e-08
-6.71381e-09
4.31986e-09
-1.03177e-08
-8.7005e-09
-5.99088e-09
-1.36939e-08
3.49405e-09
-8.6994e-09
9.70133e-09
-7.2939e-09
3.35518e-09
-4.84189e-08
-3.65029e-09
4.54042e-08
-6.06991e-09
2.30645e-08
-3.91895e-09
-1.24848e-08
3.89341e-09
-5.51807e-09
7.98248e-09
8.8599e-10
5.20769e-09
4.37881e-09
1.39887e-09
2.24357e-09
-9.47578e-10
-4.72065e-09
-2.69514e-09
-1.16587e-08
-5.28356e-09
-1.26677e-08
-8.08451e-09
-5.23936e-09
-8.33957e-09
7.26319e-09
-3.63681e-09
1.71783e-08
5.29289e-09
1.74552e-08
1.39512e-08
6.62792e-09
1.64813e-08
-9.63872e-09
9.69625e-09
-2.16809e-08
-4.06756e-09
-2.17906e-08
-1.75146e-08
-9.22516e-09
-2.24546e-08
9.02378e-09
-1.50012e-08
2.22992e-08
1.5147e-09
2.27359e-08
1.80344e-08
1.00435e-08
2.49678e-08
-8.3584e-09
1.79811e-08
-2.18503e-08
7.73396e-10
-2.29261e-08
-1.69551e-08
-1.14695e-08
-2.51744e-08
5.49215e-09
-1.94181e-08
1.81954e-08
-3.30634e-09
1.99056e-08
1.37684e-08
1.05369e-08
2.22592e-08
-3.83223e-09
1.79396e-08
-1.49221e-08
4.0243e-09
-1.70829e-08
-1.11236e-08
-1.0148e-08
-1.90837e-08
1.10492e-09
-1.61345e-08
1.01821e-08
-4.94235e-09
1.26361e-08
7.53459e-09
8.16693e-09
1.43614e-08
1.3584e-10
1.24827e-08
-6.8223e-09
3.97385e-09
-9.43878e-09
-5.72106e-09
-7.21801e-09
-1.12101e-08
-2.10964e-09
-1.01049e-08
2.98845e-09
-3.91241e-09
5.81938e-09
3.34029e-09
5.60728e-09
7.65125e-09
2.9708e-09
7.17755e-09
-7.05736e-10
2.86349e-09
-3.92715e-09
-2.51398e-09
-5.50777e-09
-6.08028e-09
-4.81484e-09
-6.31459e-09
-1.97799e-09
-3.53625e-09
1.97119e-09
5.89228e-10
5.26874e-09
4.0391e-09
6.09161e-09
5.33483e-09
3.57296e-09
4.01915e-09
-1.41363e-09
6.89538e-10
-6.35243e-09
-3.27016e-09
-8.28722e-09
-6.13533e-09
-5.59728e-09
-6.43381e-09
7.23504e-10
-3.61698e-09
7.26689e-09
1.43937e-09
1.003e-08
6.48169e-09
6.90358e-09
8.72319e-09
-7.40144e-10
6.30508e-09
-8.53692e-09
-3.3797e-10
-1.16314e-08
-8.11608e-09
-7.76399e-09
-1.25411e-08
1.02363e-09
-1.02856e-08
9.35078e-09
-1.67715e-09
1.17616e-08
8.73196e-09
6.3571e-09
1.45639e-08
-3.60569e-09
1.20797e-08
-1.14554e-08
3.36572e-09
-1.1431e-08
-5.57312e-09
-3.07323e-09
-1.28981e-08
7.0152e-09
-2.34051e-08
9.70069e-09
-5.4175e-08
7.94957e-09
4.99572e-08
-4.61593e-08
5.46116e-08
-1.39373e-08
-3.19375e-09
1.68692e-09
-5.88961e-09
1.11704e-08
-1.74643e-09
1.10862e-08
4.64202e-10
7.01027e-09
9.94282e-10
2.75201e-09
-9.84648e-10
-5.19026e-10
-5.00205e-09
-3.44983e-09
-8.1482e-09
-6.59089e-09
-7.14054e-09
-8.91894e-09
-1.19727e-09
-8.19229e-09
6.74641e-09
-2.92987e-09
1.16062e-08
5.61533e-09
9.56818e-09
1.32757e-08
9.6268e-10
1.51163e-08
-9.49853e-09
8.72131e-09
-1.54426e-08
-3.60428e-09
-1.28423e-08
-1.54685e-08
-2.73438e-09
-1.98683e-08
9.17457e-09
-1.35386e-08
1.58706e-08
6.54585e-10
1.3319e-08
1.50043e-08
2.94963e-09
2.13307e-08
-9.21565e-09
1.58411e-08
-1.61966e-08
1.49476e-09
-1.41792e-08
-1.3633e-08
-4.64177e-09
-2.10531e-08
6.71748e-09
-1.68111e-08
1.34728e-08
-3.68652e-09
1.22056e-08
1.06246e-08
4.24345e-09
1.812e-08
-5.47325e-09
1.50708e-08
-1.14944e-08
3.89461e-09
-1.09543e-08
-8.61844e-09
-4.8865e-09
-1.54615e-08
2.80127e-09
-1.33838e-08
7.83339e-09
-4.40119e-09
7.95263e-09
5.82901e-09
3.84663e-09
1.15381e-08
-1.68994e-09
1.00876e-08
-5.60514e-09
3.10474e-09
-6.24183e-09
-4.90356e-09
-3.91672e-09
-9.39433e-09
-3.33097e-10
-8.31732e-09
2.59228e-09
-2.94632e-09
3.7063e-09
3.24034e-09
2.93472e-09
6.75266e-09
9.81542e-10
5.99474e-09
-1.2029e-09
1.87578e-09
-2.81464e-09
-3.01765e-09
-3.34028e-09
-6.01906e-09
-2.58432e-09
-5.77253e-09
-7.34786e-10
-2.72412e-09
1.55223e-09
1.36621e-09
3.23868e-09
4.45454e-09
3.31526e-09
5.17441e-09
1.42406e-09
3.31733e-09
-1.7005e-09
-2.3656e-10
-4.39191e-09
-3.95497e-09
-4.90474e-09
-6.21947e-09
-2.54539e-09
-5.88745e-09
1.64979e-09
-2.77891e-09
5.27846e-09
2.05086e-09
5.93971e-09
6.47875e-09
2.84139e-09
8.08766e-09
-2.4315e-09
5.40939e-09
-6.65008e-09
-9.41136e-10
-6.89899e-09
-8.03426e-09
-2.59156e-09
-1.18552e-08
3.81965e-09
-9.64598e-09
8.13404e-09
-1.96083e-09
7.09984e-09
7.25687e-09
8.40014e-10
1.30224e-08
-6.80503e-09
1.24625e-08
-1.06964e-08
5.69544e-09
-8.22772e-09
-7.01336e-09
-1.47856e-09
-2.34276e-08
4.91879e-09
-3.81162e-08
6.18299e-09
2.65442e-08
-6.62998e-08
5.39451e-08
-1.78606e-08
8.72602e-09
-4.46942e-09
1.91444e-10
5.18799e-09
1.63651e-09
1.03867e-08
-1.74865e-10
1.16554e-08
-1.38037e-09
9.64304e-09
-1.65053e-09
5.53453e-09
-2.40964e-09
4.26142e-10
-3.84393e-09
-4.91464e-09
-4.644e-09
-9.4197e-09
-3.31008e-09
-1.13049e-08
3.04306e-10
-8.7832e-09
4.4486e-09
-1.61074e-09
6.42824e-09
7.79416e-09
4.47332e-09
1.48822e-08
-8.24427e-10
1.52708e-08
-6.59116e-09
7.57774e-09
-9.32088e-09
-5.0855e-09
-7.08007e-09
-1.62441e-08
-8.57891e-10
-1.95155e-08
5.86663e-09
-1.24791e-08
9.15616e-09
1.52316e-09
7.02144e-09
1.49774e-08
6.57878e-10
2.03903e-08
-6.27052e-09
1.46492e-08
-9.82513e-09
9.13964e-10
-8.10049e-09
-1.31458e-08
-2.26763e-09
-1.97644e-08
4.22395e-09
-1.55349e-08
7.74128e-09
-3.24499e-09
6.56378e-09
9.93158e-09
1.72784e-09
1.66927e-08
-3.78671e-09
1.37439e-08
-6.91273e-09
3.4084e-09
-6.22119e-09
-8.04397e-09
-2.53553e-09
-1.42134e-08
1.79014e-09
-1.21754e-08
4.36807e-09
-3.83695e-09
4.09927e-09
5.56229e-09
1.58482e-09
1.06946e-08
-1.47605e-09
9.14053e-09
-3.3991e-09
2.4613e-09
-3.4208e-09
-5.07011e-09
-1.92116e-09
-9.13556e-09
2.55989e-11
-7.79303e-09
1.37707e-09
-2.32308e-09
1.65028e-09
3.8103e-09
1.00398e-09
7.10371e-09
-4.24849e-11
5.95501e-09
-9.75106e-10
1.35379e-09
-1.49249e-09
-3.91516e-09
-1.50431e-09
-6.94822e-09
-1.04196e-09
-6.27197e-09
-2.26193e-10
-2.46146e-09
6.85734e-10
2.36239e-09
1.28722e-09
5.74272e-09
1.16909e-09
6.09683e-09
2.04519e-10
3.35493e-09
-1.2266e-09
-1.15645e-09
-2.30967e-09
-5.39046e-09
-2.23018e-09
-7.43746e-09
-7.56153e-10
-6.25997e-09
1.43191e-09
-2.1278e-09
2.99365e-09
3.35246e-09
2.73451e-09
7.71037e-09
4.98379e-10
8.58598e-09
-2.49673e-09
4.95585e-09
-4.24854e-09
-1.98781e-09
-3.24813e-09
-8.99088e-09
3.4047e-10
-1.2238e-08
4.46892e-09
-9.56542e-09
6.32809e-09
-1.9652e-09
4.24352e-09
6.77895e-09
-9.73431e-10
1.20531e-08
-6.45996e-09
1.05787e-08
-9.30167e-09
1.43821e-09
-7.86233e-09
-1.02493e-08
-1.81772e-09
-5.61629e-09
-6.84804e-10
-9.15829e-09
-4.7011e-08
1.36639e-08
-8.95839e-09
1.34002e-08
-9.08022e-09
6.80767e-09
-7.64304e-09
7.77909e-09
1.20086e-10
4.16226e-09
8.8479e-09
-1.19544e-10
1.36812e-08
-3.09409e-09
1.28942e-08
-4.54514e-09
7.52988e-09
-4.61151e-09
-1.39423e-10
-3.4877e-09
-7.57048e-09
-1.46903e-09
-1.23319e-08
9.51532e-10
-1.25126e-08
3.00302e-09
-7.48369e-09
3.77707e-09
1.3314e-09
2.6634e-09
1.04311e-08
-1.38348e-10
1.54638e-08
-3.46841e-09
1.33821e-08
-5.66128e-09
4.40087e-09
-5.42779e-09
-7.53991e-09
-2.65505e-09
-1.64255e-08
1.37483e-09
-1.73122e-08
4.56708e-09
-9.27371e-09
5.1501e-09
3.74059e-09
2.73004e-09
1.48525e-08
-1.42155e-09
1.80204e-08
-5.05864e-09
1.14813e-08
-6.2253e-09
-1.17437e-09
-4.34882e-09
-1.29849e-08
-5.37165e-10
-1.7549e-08
3.07914e-09
-1.26321e-08
4.5719e-09
-1.32475e-09
3.28645e-09
9.87331e-09
1.34424e-10
1.48383e-08
-3.02251e-09
1.1239e-08
-4.48101e-09
1.63296e-09
-3.62691e-09
-8.24981e-09
-1.17295e-09
-1.29234e-08
1.36696e-09
-1.0208e-08
2.60484e-09
-2.22335e-09
2.04114e-09
6.11933e-09
2.40434e-10
1.00904e-08
-1.61758e-09
7.79518e-09
-2.4831e-09
1.03134e-09
-2.01428e-09
-5.99977e-09
-6.76267e-10
-9.24557e-09
6.34526e-10
-7.08625e-09
1.1635e-09
-1.08836e-09
7.12063e-10
5.0894e-09
-3.24166e-10
7.89294e-09
-1.26195e-09
5.86648e-09
-1.55689e-09
3.45077e-10
-1.09001e-09
-5.44927e-09
-1.75858e-10
-8.29322e-09
6.64906e-10
-6.71993e-09
1.00151e-09
-1.70104e-09
6.88836e-10
4.01775e-09
-1.0826e-10
7.46045e-09
-1.0218e-09
6.9498e-09
-1.63796e-09
2.84549e-09
-1.64457e-09
-2.78293e-09
-9.46024e-10
-7.24939e-09
2.65982e-10
-8.49082e-09
1.51553e-09
-5.91555e-09
2.16828e-09
-6.01713e-10
1.70908e-09
5.13969e-09
9.55192e-11
8.6746e-09
-2.02696e-09
8.16446e-09
-3.48326e-09
3.51602e-09
-3.1531e-09
-3.33716e-09
-7.24003e-10
-9.1693e-09
2.86957e-09
-1.10789e-08
5.73323e-09
-8.12757e-09
6.038e-09
-1.94489e-09
3.19302e-09
4.12657e-09
-1.72739e-09
7.03039e-09
-6.56292e-09
6.42151e-09
-8.31709e-09
6.74826e-09
-4.32222e-09
2.69265e-08
-4.53917e-09
-3.5479e-08
6.12051e-09
-4.4638e-08
1.02506e-08
6.17643e-09
-6.97886e-09
6.76145e-09
-1.85606e-08
9.39534e-09
-1.46384e-08
9.73505e-09
-2.60044e-09
6.52307e-09
9.40576e-09
4.92705e-10
1.58787e-08
-5.67138e-09
1.50261e-08
-8.9374e-09
8.18214e-09
-7.76539e-09
-1.38769e-09
-2.96458e-09
-9.82334e-09
2.84406e-09
-1.39452e-08
6.69345e-09
-1.22432e-08
6.78582e-09
-5.38837e-09
3.29721e-09
3.87612e-09
-1.85951e-09
1.16334e-08
-6.08186e-09
1.43331e-08
-7.40017e-09
1.04417e-08
-5.39798e-09
1.41003e-09
-1.29429e-09
-8.68529e-09
2.79393e-09
-1.49101e-08
4.94312e-09
-1.39533e-08
4.30842e-09
-6.0473e-09
1.42164e-09
4.90251e-09
-2.1634e-09
1.32361e-08
-4.69e-09
1.45519e-08
-5.05274e-09
8.15275e-09
-3.26869e-09
-2.49768e-09
-3.68763e-10
-1.16405e-08
2.17499e-09
-1.44023e-08
3.1786e-09
-9.49846e-09
2.28875e-09
1.13091e-10
1.02426e-10
8.98568e-09
-2.1848e-09
1.22956e-08
-3.40827e-09
8.51356e-09
-3.01687e-09
1.23894e-10
-1.32081e-09
-7.9394e-09
7.07924e-10
-1.11805e-08
1.96506e-09
-8.05688e-09
1.80413e-09
-7.12235e-10
3.7553e-10
6.41815e-09
-1.46624e-09
9.24092e-09
-2.64316e-09
6.32753e-09
-2.46168e-09
-3.7935e-10
-1.01365e-09
-6.81623e-09
8.61934e-10
-9.21462e-09
2.04738e-09
-6.26578e-09
1.79286e-09
1.96109e-10
1.73952e-10
6.33522e-09
-1.91284e-09
8.57319e-09
-3.23668e-09
5.64027e-09
-2.93967e-09
-7.47339e-10
-1.06384e-09
-6.93327e-09
1.42155e-09
-9.43632e-09
3.13194e-09
-6.89768e-09
3.04375e-09
-7.63339e-10
1.09465e-09
5.60852e-09
-1.74055e-09
8.84487e-09
-3.95134e-09
7.3502e-09
-4.30143e-09
2.03561e-09
-2.50719e-09
-4.31486e-09
5.8843e-10
-8.5707e-09
3.44146e-09
-8.78778e-09
4.59542e-09
-5.0151e-09
3.41276e-09
8.836e-10
3.94269e-10
6.17531e-09
-3.04247e-09
8.5e-09
-5.21192e-09
6.89896e-09
-4.94791e-09
2.2143e-09
-2.18672e-09
-3.36842e-09
1.93428e-09
-7.46857e-09
5.54911e-09
-8.74343e-09
6.93409e-09
-7.39557e-09
5.37577e-09
-4.57095e-09
1.54497e-09
-8.41301e-10
-2.7812e-09
5.59424e-09
-4.93357e-09
1.70745e-08
-2.71066e-09
4.26763e-08
-3.03108e-09
-3.8898e-08
6.27474e-08
-8.24158e-08
2.79459e-08
-7.86154e-09
2.00105e-09
-1.83088e-09
-1.85443e-08
1.58983e-09
-2.34539e-08
9.74831e-09
-1.645e-08
1.40191e-08
-3.20641e-09
1.01654e-08
9.78688e-09
3.24071e-10
1.71173e-08
-9.75083e-09
1.62787e-08
-1.43408e-08
8.4119e-09
-1.10047e-08
-2.47167e-09
-1.83732e-09
-1.1449e-08
7.86633e-09
-1.48502e-08
1.27181e-08
-1.16445e-08
1.02477e-08
-3.60367e-09
2.12921e-09
5.60281e-09
-6.98042e-09
1.19804e-08
-1.21668e-08
1.28355e-08
-1.09639e-08
7.87005e-09
-4.52471e-09
-6.74184e-10
3.30146e-09
-8.91798e-09
8.30096e-09
-1.302e-08
8.18644e-09
-1.09803e-08
3.595e-09
-3.73226e-09
-2.59341e-09
5.17501e-09
-7.02648e-09
1.12761e-08
-7.6832e-09
1.14699e-08
-4.73951e-09
5.68824e-09
-1.65248e-10
-3.00623e-09
3.54821e-09
-1.00016e-08
4.71494e-09
-1.16202e-08
3.15065e-09
-7.13109e-09
9.07297e-12
8.59602e-10
-2.98303e-09
7.8797e-09
-4.42274e-09
1.00972e-08
-3.81764e-09
6.44811e-09
-1.66842e-09
-8.19829e-10
8.8241e-10
-7.47495e-09
2.61038e-09
-9.74089e-09
2.73202e-09
-6.44185e-09
1.22142e-09
3.65134e-10
-1.18037e-09
6.62452e-09
-3.27426e-09
8.65627e-09
-3.94387e-09
5.29435e-09
-2.72119e-09
-1.44418e-09
-1.05777e-10
-7.54887e-09
2.58257e-09
-9.36895e-09
3.82798e-09
-5.76471e-09
2.75449e-09
1.20717e-09
-2.80198e-10
7.47834e-09
-3.72959e-09
9.34376e-09
-5.61648e-09
5.6337e-09
-4.65103e-09
-1.59003e-09
-1.07944e-09
-8.22695e-09
3.29376e-09
-1.05093e-08
6.01809e-09
-7.15099e-09
5.38678e-09
-3.60439e-11
1.50181e-09
6.91293e-09
-3.65277e-09
9.97505e-09
-7.2406e-09
7.65861e-09
-7.15987e-09
1.38909e-09
-3.2809e-09
-5.43855e-09
2.40845e-09
-9.38519e-09
6.87062e-09
-8.72645e-09
7.69641e-09
-4.14604e-09
4.42858e-09
1.85936e-09
-1.20368e-09
6.4047e-09
-6.24262e-09
7.66903e-09
-8.09801e-09
5.63338e-09
-5.90156e-09
1.75743e-09
-9.02021e-10
-2.16732e-09
4.2871e-09
-5.15495e-09
7.14129e-09
-7.21444e-09
6.56776e-09
-8.29986e-09
3.42127e-09
-6.80048e-09
-8.78702e-11
1.08277e-09
-1.67042e-09
1.60726e-08
-6.09219e-10
3.51398e-08
8.86485e-10
-2.14006e-08
8.65872e-08
-7.10542e-08
3.06662e-08
-1.74661e-08
1.20329e-08
-1.32378e-08
-5.55251e-09
-1.30066e-08
-1.8186e-08
2.49578e-10
-2.281e-08
1.43631e-08
-1.74397e-08
1.95938e-08
-4.53215e-09
1.31873e-08
9.58651e-09
-9.47488e-10
1.81398e-08
-1.46366e-08
1.74414e-08
-2.00548e-08
8.5681e-09
-1.4222e-08
-3.56904e-09
-6.84146e-10
-1.30084e-08
1.26639e-08
-1.56896e-08
1.82748e-08
-1.1087e-08
1.32753e-08
-1.98358e-09
9.1014e-10
7.15414e-09
-1.16185e-08
1.23071e-08
-1.74368e-08
1.15573e-08
-1.38478e-08
5.67291e-09
-3.54868e-09
-2.45167e-09
7.30431e-09
-9.13393e-09
1.28302e-08
-1.14676e-08
1.06361e-08
-8.53904e-09
2.75251e-09
-1.83529e-09
-5.98191e-09
5.41353e-09
-1.08686e-08
9.72364e-09
-9.85502e-09
9.02936e-09
-4.26944e-09
3.73435e-09
2.37093e-09
-3.43581e-09
6.54137e-09
-8.77342e-09
6.53082e-09
-9.50938e-09
3.00216e-09
-5.31109e-09
-1.76676e-09
1.49604e-09
-5.28796e-09
7.15992e-09
-6.08323e-09
8.55465e-09
-4.16652e-09
4.93347e-09
-7.50668e-10
-1.6196e-09
2.48162e-09
-7.33228e-09
4.12386e-09
-8.88239e-09
3.53908e-09
-5.328e-09
1.03278e-09
1.29275e-09
-2.27695e-09
7.08836e-09
-4.85758e-09
8.56291e-09
-5.3743e-09
4.70127e-09
-3.34485e-09
-2.34773e-09
4.65375e-10
-8.45039e-09
4.21696e-09
-9.89138e-09
5.81688e-09
-5.61255e-09
4.07004e-09
2.06394e-09
-4.64983e-10
8.70904e-09
-5.51961e-09
1.03615e-08
-8.20533e-09
5.89041e-09
-6.65802e-09
-2.27248e-09
-1.29604e-09
-9.50669e-09
5.15626e-09
-1.16831e-08
9.05386e-09
-7.55522e-09
7.9262e-09
5.48539e-10
2.05109e-09
8.11523e-09
-5.50331e-09
1.10587e-08
-1.05104e-08
7.99082e-09
-1.00041e-08
8.5414e-10
-4.0673e-09
-6.3638e-09
4.11748e-09
-9.96594e-09
1.00466e-08
-8.50909e-09
1.04706e-08
-3.32851e-09
5.23856e-09
2.53163e-09
-2.66494e-09
6.2163e-09
-8.88523e-09
6.59815e-09
-1.02029e-08
4.52545e-09
-6.3009e-09
1.69818e-09
2.24029e-10
-8.81873e-10
5.57505e-09
-3.41792e-09
7.12165e-09
-6.08491e-09
4.9651e-09
-7.1656e-09
1.62119e-09
-2.85674e-09
-3.46318e-10
6.89338e-09
-6.70733e-10
1.16391e-08
2.82668e-09
3.05196e-09
6.03989e-08
-1.39622e-08
1.34907e-08
-1.41636e-08
1.51934e-08
-1.81126e-08
1.29892e-08
-2.48156e-08
2.44591e-10
-1.52966e-08
-1.5298e-08
2.91448e-09
-2.36684e-08
1.92016e-08
-1.97554e-08
2.45418e-08
-5.99048e-09
1.5675e-08
9.89051e-09
-2.55238e-09
1.95624e-08
-1.96872e-08
1.85986e-08
-2.58246e-08
8.43442e-09
-1.75162e-08
-4.97599e-09
2.28427e-10
-1.47156e-08
1.70377e-08
-1.64876e-08
2.3404e-08
-1.03777e-08
1.61634e-08
-1.96719e-10
3.31215e-11
8.83664e-09
-1.55196e-08
1.2728e-08
-2.1948e-08
1.03471e-08
-1.64075e-08
3.50258e-09
-2.9305e-09
-4.28365e-09
1.04174e-08
-9.51114e-09
1.64274e-08
-1.01478e-08
1.2659e-08
-6.29643e-09
2.25804e-09
2.35095e-11
-8.4319e-09
5.83977e-09
-1.3718e-08
8.52728e-09
-1.15481e-08
6.94213e-09
-4.09447e-09
1.93339e-09
4.03713e-09
-4.01958e-09
8.61699e-09
-7.94531e-09
7.91374e-09
-7.83641e-09
3.12628e-09
-3.7225e-09
-2.76894e-09
2.24551e-09
-6.80309e-09
6.84475e-09
-7.39736e-09
7.48977e-09
-4.7749e-09
3.70936e-09
-4.88277e-10
-2.4694e-09
3.45843e-09
-7.54048e-09
5.42083e-09
-8.47021e-09
4.63185e-09
-4.50732e-09
1.41471e-09
2.23001e-09
-2.8916e-09
7.8372e-09
-6.33664e-09
8.85384e-09
-7.112e-09
4.37821e-09
-4.46454e-09
-3.22314e-09
6.74275e-10
-9.54576e-09
5.84001e-09
-1.0692e-08
8.13244e-09
-5.66156e-09
5.83538e-09
2.88702e-09
-3.47609e-10
1.00541e-08
-7.31302e-09
1.15446e-08
-1.10682e-08
6.26298e-09
-9.02696e-09
-2.93034e-09
-1.75957e-09
-1.08238e-08
6.99117e-09
-1.28945e-08
1.225e-08
-7.95946e-09
1.07e-08
1.15315e-09
2.80257e-09
9.30281e-09
-7.22592e-09
1.20548e-08
-1.37158e-08
8.19038e-09
-1.28392e-08
2.34547e-10
-4.93148e-09
-7.22868e-09
5.61396e-09
-1.03279e-08
1.2884e-08
-8.02783e-09
1.29051e-08
-2.3824e-09
5.92351e-09
3.09108e-09
-3.85589e-09
5.74824e-09
-1.08811e-08
5.27076e-09
-1.15822e-08
3.26709e-09
-6.35925e-09
1.46301e-09
9.78942e-10
1.85485e-10
5.92411e-09
-1.28246e-09
6.30466e-09
-2.9483e-09
3.44475e-09
-3.44031e-09
9.57994e-11
-3.08451e-09
-2.41852e-09
-1.2619e-08
9.26685e-10
1.91479e-08
-1.06138e-09
5.34664e-08
-1.49799e-08
5.55044e-10
7.5747e-09
-1.07934e-08
2.47811e-08
-2.37512e-08
2.13149e-08
-2.68944e-08
3.59607e-09
-1.6267e-08
-1.60236e-08
4.18516e-09
-2.61362e-08
2.32487e-08
-2.18471e-08
2.9331e-08
-6.47817e-09
1.81908e-08
1.10132e-08
-4.03687e-09
2.12686e-08
-2.44575e-08
1.95657e-08
-3.12085e-08
7.91628e-09
-2.05531e-08
-6.68402e-09
1.02651e-09
-1.64963e-08
2.08984e-08
-1.71492e-08
2.78859e-08
-9.44436e-09
1.8681e-08
1.76992e-09
-6.54421e-10
1.05912e-08
-1.87272e-08
1.31346e-08
-2.56506e-08
9.09908e-09
-1.85341e-08
1.31359e-09
-2.53438e-09
-6.12455e-09
1.27724e-08
-9.93117e-09
1.91821e-08
-8.92712e-09
1.42622e-08
-4.17317e-09
2.01633e-09
1.82687e-09
-1.01171e-08
6.34771e-09
-1.57548e-08
7.54737e-09
-1.28578e-08
5.10794e-09
-4.16542e-09
2.76371e-10
5.01271e-09
-4.67159e-09
9.99561e-09
-7.38319e-09
9.00718e-09
-6.48856e-09
3.50902e-09
-2.33147e-09
-3.16153e-09
3.04897e-09
-7.74935e-09
6.81684e-09
-8.5176e-09
6.79042e-09
-5.64369e-09
2.72644e-09
-7.37664e-10
-3.33353e-09
4.00943e-09
-8.00194e-09
6.63254e-09
-8.39911e-09
6.00235e-09
-3.92218e-09
2.23503e-09
3.15891e-09
-3.18961e-09
8.79011e-09
-7.80218e-09
9.43018e-09
-9.1174e-09
4.26107e-09
-5.94135e-09
-4.0675e-09
6.63262e-10
-1.07685e-08
7.4993e-09
-1.16781e-08
1.0692e-08
-5.84204e-09
7.88772e-09
3.68513e-09
-6.29297e-11
1.14549e-08
-9.12281e-09
1.27957e-08
-1.40771e-08
6.66465e-09
-1.15613e-08
-3.59401e-09
-2.32617e-09
-1.21335e-08
8.7941e-09
-1.40435e-08
1.5445e-08
-8.2596e-09
1.34768e-08
1.82906e-09
3.58819e-09
1.04425e-08
-8.82433e-09
1.28611e-08
-1.66879e-08
8.14269e-09
-1.54126e-08
-5.32277e-10
-5.67172e-09
-8.01549e-09
6.94687e-09
-1.04007e-08
1.52669e-08
-7.21772e-09
1.4796e-08
-1.28688e-09
6.30156e-09
3.52062e-09
-4.86885e-09
4.96716e-09
-1.22436e-08
3.64498e-09
-1.22152e-08
1.87573e-09
-5.99924e-09
1.39025e-09
1.64715e-09
1.92168e-09
5.96773e-09
1.73686e-09
5.34721e-09
-1.19448e-09
1.36359e-09
-7.97538e-09
-3.38979e-09
-2.47553e-08
-2.99629e-09
2.00209e-08
-6.01299e-08
8.75719e-08
-3.72635e-08
1.58117e-08
-7.08305e-09
5.74038e-09
2.12544e-08
-6.92148e-09
3.14626e-08
-2.44383e-08
2.31568e-08
-3.13234e-08
2.81726e-09
-1.97769e-08
-1.80137e-08
4.54256e-09
-2.82338e-08
2.71395e-08
-2.29833e-08
3.41271e-08
-6.04379e-09
2.09321e-08
1.27021e-08
-4.88611e-09
2.309e-08
-2.82546e-08
2.02951e-08
-3.56798e-08
7.02683e-09
-2.3232e-08
-8.67063e-09
1.37706e-09
-1.83384e-08
2.37022e-08
-1.7676e-08
3.12699e-08
-8.30392e-09
2.06827e-08
3.88552e-09
-9.71117e-10
1.23826e-08
-2.08793e-08
1.35046e-08
-2.82115e-08
7.82094e-09
-2.00759e-08
-8.53651e-10
-2.4205e-09
-7.91859e-09
1.41741e-08
-1.0348e-08
2.08863e-08
-7.79412e-09
1.53193e-08
-2.19824e-09
2.01215e-09
3.52048e-09
-1.09671e-08
6.88498e-09
-1.68738e-08
6.75788e-09
-1.36904e-08
3.53672e-09
-4.42883e-09
-1.19897e-09
5.30066e-09
-5.34557e-09
1.06337e-08
-7.05093e-09
9.73928e-09
-5.45223e-09
4.08199e-09
-1.14806e-09
-2.97571e-09
3.87871e-09
-8.10073e-09
7.04039e-09
-9.37149e-09
6.42336e-09
-6.69591e-09
1.9645e-09
-1.4697e-09
-4.21027e-09
4.08747e-09
-8.69018e-09
7.65474e-09
-8.62417e-09
7.55396e-09
-3.52694e-09
3.47626e-09
4.10339e-09
-3.07883e-09
9.93309e-09
-9.09138e-09
1.02406e-08
-1.12515e-08
4.28233e-09
-7.75662e-09
-4.93063e-09
2.95622e-10
-1.21231e-08
8.96089e-09
-1.28014e-08
1.32923e-08
-6.07752e-09
1.01822e-08
4.52207e-09
5.49198e-10
1.29251e-08
-1.06529e-08
1.40675e-08
-1.69558e-08
7.01147e-09
-1.41619e-08
-4.33709e-09
-3.14184e-09
-1.34572e-08
1.02389e-08
-1.5088e-08
1.83e-08
-8.37807e-09
1.60837e-08
2.64099e-09
4.49377e-09
1.15509e-08
-9.99755e-09
1.34478e-08
-1.90652e-08
7.80516e-09
-1.74834e-08
-1.46891e-09
-6.27761e-09
-8.72777e-09
7.91224e-09
-1.02032e-08
1.69024e-08
-6.14212e-09
1.59187e-08
-1.29172e-10
6.31273e-09
3.78597e-09
-5.61385e-09
3.99084e-09
-1.28236e-08
2.07107e-09
-1.19628e-08
9.28408e-10
-5.07202e-09
1.91823e-09
2.40128e-09
3.33104e-09
5.65422e-09
1.10658e-09
3.43524e-09
-6.86501e-09
-1.92351e-09
-2.14869e-08
-5.45531e-09
9.74661e-09
-8.17127e-08
6.72725e-08
-3.84295e-08
1.94551e-08
-1.93312e-08
2.13726e-08
3.94333e-09
1.80056e-08
2.32875e-08
-5.41049e-09
3.09981e-08
-3.00884e-08
2.24044e-08
-3.82161e-08
1.6708e-09
-2.39207e-08
-1.96857e-08
4.80797e-09
-2.97553e-08
3.10597e-08
-2.33627e-08
3.92025e-08
-4.87726e-09
2.43387e-08
1.47998e-08
-4.78563e-09
2.48359e-08
-3.11481e-08
2.05691e-08
-3.96894e-08
5.60575e-09
-2.61311e-08
-1.09575e-08
9.01298e-10
-2.01139e-08
2.54661e-08
-1.78712e-08
3.3928e-08
-6.80443e-09
2.26598e-08
6.17537e-09
-5.82562e-10
1.41065e-08
-2.19641e-08
1.36749e-08
-2.99132e-08
6.38599e-09
-2.14234e-08
-3.02425e-09
-2.86244e-09
-9.58561e-09
1.46022e-08
-1.06301e-08
2.17551e-08
-6.63761e-09
1.61398e-08
-3.333e-10
2.47427e-09
5.05953e-09
-1.09469e-08
7.35309e-09
-1.72327e-08
6.05556e-09
-1.42966e-08
2.16564e-09
-5.09186e-09
-2.49046e-09
4.83897e-09
-5.97636e-09
1.06374e-08
-6.84778e-09
1.03233e-08
-4.63272e-09
5.05798e-09
-1.26985e-10
-2.10345e-09
4.70366e-09
-7.90876e-09
7.41309e-09
-1.01501e-08
6.25642e-09
-8.17387e-09
1.32553e-09
-2.85829e-09
-5.1071e-09
3.68215e-09
-9.5057e-09
8.66149e-09
-8.98059e-09
9.57014e-09
-3.17523e-09
5.39097e-09
5.10672e-09
-2.47618e-09
1.11702e-08
-1.03508e-08
1.10896e-08
-1.383e-08
4.24752e-09
-1.02356e-08
-5.89787e-09
-5.86523e-10
-1.35313e-08
1.03299e-08
-1.38573e-08
1.62563e-08
-6.14648e-09
1.30914e-08
5.51154e-09
1.71111e-09
1.4404e-08
-1.19519e-08
1.51567e-08
-1.9996e-08
7.07079e-09
-1.72031e-08
-5.29242e-09
-4.46351e-09