/*--------------------------------*- C++ -*----------------------------------*\
| =========                 |                                                 |
| \\      /  F ield         | OpenFOAM: The Open Source CFD Toolbox           |
|  \\    /   O peration     | Version:  2412                                  |
|   \\  /    A nd           | Website:  www.openfoam.com                      |
|    \\/     M anipulation  |                                                 |
\*---------------------------------------------------------------------------*/
FoamFile
{
    version     2.0;
    format      ascii;
    arch        "LSB;label=32;scalar=64";
    class       volVectorField;
    location    "4.15";
    object      U;
}
// * * * * * * * * * * * * * * * * * * * * * * * * * * * * * * * * * * * * * //

dimensions      [0 1 -1 0 0 0 0];

internalField   nonuniform List<vector> 
6400
(
(6.74341e-07 -8.2735e-07 0)
(2.98418e-06 1.17296e-07 0)
(-1.18231e-07 2.56487e-06 0)
(-4.93625e-06 2.87819e-06 0)
(-7.38591e-06 5.73981e-07 0)
(-4.63878e-06 -3.32441e-06 0)
(2.77325e-06 -6.3237e-06 0)
(1.03714e-05 -5.88835e-06 0)
(1.25774e-05 -1.39934e-06 0)
(6.71011e-06 4.99566e-06 0)
(-4.64754e-06 9.43039e-06 0)
(-1.47692e-05 8.72955e-06 0)
(-1.69155e-05 2.63386e-06 0)
(-8.85054e-06 -5.70031e-06 0)
(5.30275e-06 -1.14091e-05 0)
(1.72702e-05 -1.08672e-05 0)
(1.96439e-05 -4.02472e-06 0)
(1.05693e-05 5.38465e-06 0)
(-4.91415e-06 1.19725e-05 0)
(-1.7802e-05 1.18922e-05 0)
(-2.05423e-05 5.15057e-06 0)
(-1.15816e-05 -4.38747e-06 0)
(3.75791e-06 -1.12957e-05 0)
(1.65539e-05 -1.17734e-05 0)
(1.96229e-05 -5.79054e-06 0)
(1.16479e-05 3.04059e-06 0)
(-2.32185e-06 9.69658e-06 0)
(-1.41236e-05 1.06663e-05 0)
(-1.73529e-05 5.83102e-06 0)
(-1.08887e-05 -1.71758e-06 0)
(8.89829e-07 -7.66257e-06 0)
(1.10538e-05 -8.9655e-06 0)
(1.42481e-05 -5.41331e-06 0)
(9.50806e-06 5.67849e-07 0)
(2.97941e-07 5.53573e-06 0)
(-7.92895e-06 7.01524e-06 0)
(-1.0963e-05 4.69745e-06 0)
(-7.94062e-06 3.00355e-07 0)
(-1.30778e-06 -3.63521e-06 0)
(5.00224e-06 -5.19508e-06 0)
(7.87429e-06 -3.96721e-06 0)
(6.46082e-06 -9.8545e-07 0)
(2.1684e-06 2.04469e-06 0)
(-2.49495e-06 3.69081e-06 0)
(-5.34468e-06 3.40223e-06 0)
(-5.4279e-06 1.57672e-06 0)
(-3.12894e-06 -7.95174e-07 0)
(3.04917e-07 -2.63319e-06 0)
(3.39552e-06 -3.18405e-06 0)
(4.93297e-06 -2.25257e-06 0)
(4.29452e-06 -2.44966e-07 0)
(1.64487e-06 1.96211e-06 0)
(-2.00387e-06 3.32752e-06 0)
(-5.02056e-06 3.08584e-06 0)
(-5.77877e-06 1.17395e-06 0)
(-3.52338e-06 -1.59564e-06 0)
(9.79986e-07 -3.80745e-06 0)
(5.53383e-06 -4.13564e-06 0)
(7.51793e-06 -2.13648e-06 0)
(5.40129e-06 1.33592e-06 0)
(-1.23331e-07 4.43549e-06 0)
(-6.20792e-06 5.29424e-06 0)
(-9.29483e-06 3.15349e-06 0)
(-7.22257e-06 -1.03758e-06 0)
(-7.23029e-07 -5.00641e-06 0)
(6.7283e-06 -6.40204e-06 0)
(1.07939e-05 -4.20834e-06 0)
(8.85423e-06 5.41245e-07 0)
(1.71136e-06 5.24582e-06 0)
(-6.71494e-06 7.19613e-06 0)
(-1.16145e-05 5.16986e-06 0)
(-1.01234e-05 1.98446e-07 0)
(-3.03786e-06 -4.97381e-06 0)
(5.67278e-06 -7.45631e-06 0)
(1.11888e-05 -5.87775e-06 0)
(1.06919e-05 -1.24089e-06 0)
(4.60771e-06 3.70343e-06 0)
(-3.33612e-06 6.11704e-06 0)
(-8.05928e-06 5.14584e-06 0)
(-4.32812e-06 4.12292e-06 0)
(-1.38397e-06 1.42589e-06 0)
(1.26835e-07 -1.54752e-06 0)
(1.11242e-06 4.61604e-07 0)
(-1.59249e-08 2.52398e-06 0)
(-6.67851e-07 2.84457e-06 0)
(-4.06339e-07 6.03725e-07 0)
(6.64258e-07 -3.4381e-06 0)
(1.59916e-06 -6.72062e-06 0)
(1.38267e-06 -6.47088e-06 0)
(-1.85466e-07 -1.83835e-06 0)
(-2.19653e-06 5.05631e-06 0)
(-3.17856e-06 1.00952e-05 0)
(-2.14729e-06 9.70673e-06 0)
(5.76149e-07 3.35554e-06 0)
(3.41068e-06 -5.74163e-06 0)
(4.4689e-06 -1.23135e-05 0)
(2.82672e-06 -1.22087e-05 0)
(-7.59482e-07 -5.06269e-06 0)
(-4.21074e-06 5.27223e-06 0)
(-5.38377e-06 1.29019e-05 0)
(-3.43241e-06 1.33753e-05 0)
(6.04034e-07 6.35848e-06 0)
(4.38501e-06 -4.14911e-06 0)
(5.67592e-06 -1.21792e-05 0)
(3.70996e-06 -1.32967e-05 0)
(-3.52366e-07 -7.11623e-06 0)
(-4.1379e-06 2.62231e-06 0)
(-5.49367e-06 1.03714e-05 0)
(-3.74373e-06 1.20115e-05 0)
(-2.27376e-08 7.07866e-06 0)
(3.47154e-06 -1.23831e-06 0)
(4.80491e-06 -8.16239e-06 0)
(3.39867e-06 -1.01126e-05 0)
(2.55972e-07 -6.55674e-06 0)
(-2.74049e-06 1.74076e-08 0)
(-3.97221e-06 5.79596e-06 0)
(-2.96419e-06 7.85587e-06 0)
(-5.2229e-07 5.6128e-06 0)
(1.86703e-06 8.07549e-07 0)
(2.94196e-06 -3.74847e-06 0)
(2.32436e-06 -5.79829e-06 0)
(5.93231e-07 -4.70258e-06 0)
(-1.17953e-06 -1.48169e-06 0)
(-2.08402e-06 1.98721e-06 0)
(-1.82063e-06 4.03148e-06 0)
(-7.34343e-07 3.91951e-06 0)
(4.9759e-07 2.00033e-06 0)
(1.27624e-06 -6.55295e-07 0)
(1.34611e-06 -2.81704e-06 0)
(8.17739e-07 -3.58573e-06 0)
(1.44188e-08 -2.68068e-06 0)
(-7.14166e-07 -5.07282e-07 0)
(-1.10967e-06 1.97975e-06 0)
(-1.04427e-06 3.61291e-06 0)
(-5.31536e-07 3.49992e-06 0)
(2.59505e-07 1.50554e-06 0)
(1.01159e-06 -1.53322e-06 0)
(1.34695e-06 -4.07621e-06 0)
(1.00769e-06 -4.62277e-06 0)
(4.97575e-08 -2.59364e-06 0)
(-1.09407e-06 1.16784e-06 0)
(-1.7814e-06 4.67648e-06 0)
(-1.51788e-06 5.83677e-06 0)
(-3.04454e-07 3.70006e-06 0)
(1.26518e-06 -8.15975e-07 0)
(2.27978e-06 -5.27322e-06 0)
(2.04121e-06 -7.03928e-06 0)
(5.38747e-07 -4.8654e-06 0)
(-1.45846e-06 2.458e-07 0)
(-2.79482e-06 5.48549e-06 0)
(-2.5984e-06 7.81439e-06 0)
(-8.25864e-07 5.7772e-06 0)
(1.66746e-06 4.37125e-07 0)
(3.49811e-06 -5.15868e-06 0)
(3.4337e-06 -7.84333e-06 0)
(7.49767e-07 -6.20919e-06 0)
(-4.04458e-06 -1.51507e-06 0)
(-9.45186e-06 4.0221e-06 0)
(-5.99673e-06 6.48808e-06 0)
(-4.77964e-06 6.8711e-06 0)
(-4.35283e-07 5.15602e-06 0)
(-1.55053e-06 1.09941e-06 0)
(5.6614e-07 1.53674e-06 0)
(-1.31307e-06 1.9225e-06 0)
(-2.08996e-06 4.43017e-07 0)
(-1.14918e-06 -2.3635e-06 0)
(1.23257e-06 -4.96848e-06 0)
(3.59204e-06 -5.48635e-06 0)
(4.1441e-06 -2.85825e-06 0)
(2.0476e-06 2.09482e-06 0)
(-1.81489e-06 6.77743e-06 0)
(-5.18765e-06 8.23455e-06 0)
(-5.8114e-06 5.0595e-06 0)
(-2.94652e-06 -1.46223e-06 0)
(1.97957e-06 -7.83416e-06 0)
(6.11194e-06 -1.03039e-05 0)
(6.88501e-06 -7.1465e-06 0)
(3.65615e-06 1.45327e-07 0)
(-1.81333e-06 7.58732e-06 0)
(-6.3635e-06 1.09687e-05 0)
(-7.33111e-06 8.32432e-06 0)
(-4.15191e-06 1.10762e-06 0)
(1.30844e-06 -6.6403e-06 0)
(5.88963e-06 -1.06319e-05 0)
(7.01846e-06 -8.77889e-06 0)
(4.19385e-06 -2.3158e-06 0)
(-8.09244e-07 5.02355e-06 0)
(-5.07574e-06 9.21424e-06 0)
(-6.28945e-06 8.20011e-06 0)
(-4.00973e-06 2.9033e-06 0)
(2.21381e-07 -3.50146e-06 0)
(3.91523e-06 -7.51009e-06 0)
(5.11661e-06 -7.22713e-06 0)
(3.44081e-06 -3.23925e-06 0)
(1.14754e-07 1.96124e-06 0)
(-2.88734e-06 5.52433e-06 0)
(-4.01816e-06 5.80182e-06 0)
(-2.93833e-06 3.06486e-06 0)
(-5.24895e-07 -8.94144e-07 0)
(1.78243e-06 -3.90387e-06 0)
(2.82976e-06 -4.58149e-06 0)
(2.29777e-06 -2.91239e-06 0)
(7.09804e-07 -4.19482e-08 0)
(-9.9409e-07 2.47079e-06 0)
(-1.99829e-06 3.46606e-06 0)
(-1.96359e-06 2.65851e-06 0)
(-1.06775e-06 6.28198e-07 0)
(1.89632e-07 -1.56312e-06 0)
(1.25079e-06 -2.88747e-06 0)
(1.70216e-06 -2.77513e-06 0)
(1.38102e-06 -1.31621e-06 0)
(4.10019e-07 7.95602e-07 0)
(-8.23928e-07 2.54983e-06 0)
(-1.77185e-06 3.05105e-06 0)
(-1.92769e-06 1.95134e-06 0)
(-1.09264e-06 -3.12241e-07 0)
(4.38813e-07 -2.63622e-06 0)
(1.92486e-06 -3.748e-06 0)
(2.51166e-06 -2.88578e-06 0)
(1.72246e-06 -3.06953e-07 0)
(-1.7874e-07 2.7148e-06 0)
(-2.22017e-06 4.49178e-06 0)
(-3.20686e-06 3.86137e-06 0)
(-2.42534e-06 9.35499e-07 0)
(-1.43883e-07 -2.82041e-06 0)
(2.436e-06 -5.31311e-06 0)
(3.81558e-06 -4.99637e-06 0)
(3.07809e-06 -1.83013e-06 0)
(4.85978e-07 2.57836e-06 0)
(-2.59447e-06 5.79516e-06 0)
(-4.42263e-06 5.92056e-06 0)
(-3.84343e-06 2.70643e-06 0)
(-9.64178e-07 -2.20883e-06 0)
(2.83611e-06 -6.17545e-06 0)
(5.37199e-06 -6.95396e-06 0)
(4.71028e-06 -4.08232e-06 0)
(-1.6437e-08 1.36924e-06 0)
(-6.78622e-06 7.34109e-06 0)
(-4.24189e-06 9.83366e-06 0)
(-5.90725e-06 2.2654e-06 0)
(2.51251e-06 3.13166e-06 0)
(-2.08242e-07 6.66733e-07 0)
(2.02034e-06 5.47395e-07 0)
(-1.16563e-06 2.33557e-06 0)
(-3.81338e-06 3.19733e-06 0)
(-4.2989e-06 2.27291e-06 0)
(-1.80396e-06 -5.18254e-07 0)
(2.72681e-06 -3.96219e-06 0)
(6.64833e-06 -5.95988e-06 0)
(7.1497e-06 -4.86207e-06 0)
(3.24233e-06 -7.37735e-07 0)
(-3.26285e-06 4.36735e-06 0)
(-8.60116e-06 7.49098e-06 0)
(-9.32792e-06 6.54943e-06 0)
(-4.57845e-06 1.73642e-06 0)
(3.17919e-06 -4.40712e-06 0)
(9.48621e-06 -8.39314e-06 0)
(1.0551e-05 -7.83967e-06 0)
(5.59519e-06 -2.94002e-06 0)
(-2.60811e-06 3.59182e-06 0)
(-9.35237e-06 8.08059e-06 0)
(-1.0795e-05 8.0326e-06 0)
(-6.20821e-06 3.56043e-06 0)
(1.65569e-06 -2.73248e-06 0)
(8.26589e-06 -7.3119e-06 0)
(9.99126e-06 -7.74865e-06 0)
(6.14287e-06 -4.03843e-06 0)
(-8.01275e-07 1.53531e-06 0)
(-6.8055e-06 5.82313e-06 0)
(-8.66787e-06 6.62308e-06 0)
(-5.74406e-06 3.81587e-06 0)
(-7.58688e-08 -7.56373e-07 0)
(5.00546e-06 -4.48766e-06 0)
(6.84958e-06 -5.50048e-06 0)
(4.86083e-06 -3.5774e-06 0)
(5.67433e-07 -7.69011e-08 0)
(-3.4821e-06 2.98906e-06 0)
(-5.22537e-06 4.10386e-06 0)
(-4.10357e-06 2.96569e-06 0)
(-1.11497e-06 4.62103e-07 0)
(1.96163e-06 -1.96647e-06 0)
(3.60506e-06 -3.13499e-06 0)
(3.25638e-06 -2.65198e-06 0)
(1.39765e-06 -9.71356e-07 0)
(-8.86213e-07 9.62988e-07 0)
(-2.51652e-06 2.2243e-06 0)
(-2.87121e-06 2.30146e-06 0)
(-1.93456e-06 1.25313e-06 0)
(-1.94796e-07 -3.82799e-07 0)
(1.58625e-06 -1.83962e-06 0)
(2.63993e-06 -2.43529e-06 0)
(2.45942e-06 -1.85509e-06 0)
(1.02863e-06 -3.15131e-07 0)
(-1.08119e-06 1.4799e-06 0)
(-2.86647e-06 2.61571e-06 0)
(-3.32394e-06 2.41079e-06 0)
(-2.00929e-06 8.21019e-07 0)
(5.9147e-07 -1.43227e-06 0)
(3.16647e-06 -3.15376e-06 0)
(4.21531e-06 -3.29402e-06 0)
(2.92403e-06 -1.58704e-06 0)
(-2.33595e-07 1.1877e-06 0)
(-3.60632e-06 3.53516e-06 0)
(-5.22202e-06 4.05187e-06 0)
(-3.95314e-06 2.26897e-06 0)
(-2.86516e-07 -9.78072e-07 0)
(3.82078e-06 -3.93111e-06 0)
(5.99786e-06 -4.8724e-06 0)
(4.84172e-06 -3.13705e-06 0)
(8.09223e-07 4.3644e-07 0)
(-3.94099e-06 3.91319e-06 0)
(-6.70398e-06 5.33428e-06 0)
(-5.7361e-06 3.82079e-06 0)
(-1.37244e-06 1.15302e-07 0)
(3.98321e-06 -3.88571e-06 0)
(6.85386e-06 -6.04638e-06 0)
(5.05444e-06 -4.98615e-06 0)
(-8.08789e-07 -2.33041e-07 0)
(5.6968e-07 3.6156e-06 0)
(-3.87001e-06 -4.36766e-06 0)
(4.56433e-06 -2.47715e-06 0)
(2.55476e-06 -2.14882e-07 0)
(3.48682e-06 -1.1357e-06 0)
(7.83475e-07 7.43385e-07 0)
(-2.83723e-06 3.55638e-06 0)
(-5.53552e-06 5.36537e-06 0)
(-5.36707e-06 4.38008e-06 0)
(-1.57238e-06 3.32798e-07 0)
(4.16432e-06 -4.93908e-06 0)
(8.39578e-06 -8.35473e-06 0)
(8.08289e-06 -7.47349e-06 0)
(2.76685e-06 -2.20345e-06 0)
(-4.81263e-06 4.83294e-06 0)
(-1.01935e-05 9.65742e-06 0)
(-9.92798e-06 9.28622e-06 0)
(-3.82718e-06 3.61968e-06 0)
(4.74915e-06 -4.33246e-06 0)
(1.08271e-05 -1.01192e-05 0)
(1.07992e-05 -1.04303e-05 0)
(4.62572e-06 -5.05891e-06 0)
(-4.12939e-06 2.9671e-06 0)
(-1.04305e-05 9.14954e-06 0)
(-1.07607e-05 1.01264e-05 0)
(-5.13178e-06 5.54888e-06 0)
(3.04527e-06 -1.82921e-06 0)
(9.07846e-06 -7.84408e-06 0)
(9.7466e-06 -9.3229e-06 0)
(5.04763e-06 -5.7905e-06 0)
(-2.02778e-06 4.62602e-07 0)
(-7.41385e-06 5.85998e-06 0)
(-8.34314e-06 7.61353e-06 0)
(-4.76213e-06 5.16407e-06 0)
(9.18599e-07 2.54383e-07 0)
(5.42626e-06 -4.26461e-06 0)
(6.51541e-06 -6.08671e-06 0)
(4.05549e-06 -4.60717e-06 0)
(-1.8998e-07 -1.01431e-06 0)
(-3.77855e-06 2.57916e-06 0)
(-4.98108e-06 4.36101e-06 0)
(-3.56102e-06 3.69442e-06 0)
(-6.33946e-07 1.25115e-06 0)
(2.14162e-06 -1.53214e-06 0)
(3.47828e-06 -3.27071e-06 0)
(2.99034e-06 -3.27222e-06 0)
(1.17479e-06 -1.73746e-06 0)
(-9.94343e-07 4.67081e-07 0)
(-2.55709e-06 2.27223e-06 0)
(-2.91741e-06 2.87112e-06 0)
(-1.98699e-06 2.02532e-06 0)
(-1.6882e-07 1.38406e-07 0)
(1.77372e-06 -1.90678e-06 0)
(2.95912e-06 -3.10781e-06 0)
(2.73648e-06 -2.79285e-06 0)
(1.04137e-06 -9.89811e-07 0)
(-1.43483e-06 1.4898e-06 0)
(-3.4526e-06 3.3653e-06 0)
(-3.81263e-06 3.52289e-06 0)
(-2.06981e-06 1.67021e-06 0)
(1.06011e-06 -1.3725e-06 0)
(3.93082e-06 -3.99434e-06 0)
(4.82071e-06 -4.63365e-06 0)
(2.97125e-06 -2.70893e-06 0)
(-8.21225e-07 9.2301e-07 0)
(-4.50836e-06 4.31947e-06 0)
(-5.9022e-06 5.49902e-06 0)
(-3.99159e-06 3.60854e-06 0)
(3.49288e-07 -4.83303e-07 0)
(4.74295e-06 -4.57723e-06 0)
(6.62993e-06 -6.34514e-06 0)
(4.77515e-06 -4.67703e-06 0)
(7.14528e-08 -3.72229e-07 0)
(-4.8692e-06 4.24799e-06 0)
(-7.17117e-06 6.62857e-06 0)
(-5.38935e-06 5.39041e-06 0)
(-5.80677e-07 1.15556e-06 0)
(4.22531e-06 -3.81004e-06 0)
(5.94146e-06 -6.42978e-06 0)
(3.96771e-06 -4.72938e-06 0)
(4.6576e-06 -1.28838e-06 0)
(5.18331e-07 -8.5635e-06 0)
(3.9456e-06 -8.22174e-06 0)
(4.79294e-06 -1.10161e-06 0)
(3.54682e-06 -2.79364e-06 0)
(3.32281e-06 -2.46365e-06 0)
(5.34307e-07 8.17831e-07 0)
(-3.74656e-06 4.99779e-06 0)
(-7.01201e-06 7.24062e-06 0)
(-6.54488e-06 5.53847e-06 0)
(-1.75783e-06 1.06101e-07 0)
(4.97851e-06 -6.36783e-06 0)
(9.60911e-06 -1.009e-05 0)
(8.94781e-06 -8.46534e-06 0)
(2.87297e-06 -1.89309e-06 0)
(-5.34503e-06 6.19051e-06 0)
(-1.089e-05 1.11831e-05 0)
(-1.03362e-05 1.00463e-05 0)
(-3.80956e-06 3.19962e-06 0)
(4.99184e-06 -5.60617e-06 0)
(1.09802e-05 -1.14289e-05 0)
(1.07089e-05 -1.10014e-05 0)
(4.41351e-06 -4.62962e-06 0)
(-4.18973e-06 4.02958e-06 0)
(-1.01631e-05 1.01283e-05 0)
(-1.02646e-05 1.04259e-05 0)
(-4.73935e-06 5.04708e-06 0)
(3.00302e-06 -2.75424e-06 0)
(8.53063e-06 -8.59799e-06 0)
(8.97027e-06 -9.48163e-06 0)
(4.51082e-06 -5.33928e-06 0)
(-1.96947e-06 1.16925e-06 0)
(-6.76129e-06 6.3591e-06 0)
(-7.4702e-06 7.62754e-06 0)
(-4.18758e-06 4.74174e-06 0)
(8.55503e-07 -3.06514e-07 0)
(4.77594e-06 -4.63358e-06 0)
(5.67919e-06 -6.10083e-06 0)
(3.52792e-06 -4.33451e-06 0)
(-1.27466e-07 -6.66363e-07 0)
(-3.21677e-06 2.80184e-06 0)
(-4.30191e-06 4.37891e-06 0)
(-3.1802e-06 3.55539e-06 0)
(-7.41452e-07 1.05634e-06 0)
(1.67874e-06 -1.70898e-06 0)
(2.99983e-06 -3.40872e-06 0)
(2.80365e-06 -3.36975e-06 0)
(1.35674e-06 -1.76824e-06 0)
(-6.26679e-07 5.53773e-07 0)
(-2.29863e-06 2.4977e-06 0)
(-2.9605e-06 3.16623e-06 0)
(-2.28947e-06 2.22815e-06 0)
(-4.92731e-07 7.78954e-08 0)
(1.68572e-06 -2.28398e-06 0)
(3.19508e-06 -3.6588e-06 0)
(3.14699e-06 -3.223e-06 0)
(1.33897e-06 -1.01722e-06 0)
(-1.47673e-06 1.94383e-06 0)
(-3.83913e-06 4.08868e-06 0)
(-4.31579e-06 4.10565e-06 0)
(-2.37547e-06 1.74005e-06 0)
(1.14628e-06 -1.91097e-06 0)
(4.35642e-06 -4.87416e-06 0)
(5.32281e-06 -5.36261e-06 0)
(3.24773e-06 -2.85865e-06 0)
(-9.21126e-07 1.45217e-06 0)
(-4.90021e-06 5.22616e-06 0)
(-6.33699e-06 6.25494e-06 0)
(-4.2255e-06 3.77488e-06 0)
(4.03749e-07 -9.92619e-07 0)
(4.9794e-06 -5.44975e-06 0)
(6.84277e-06 -7.0684e-06 0)
(4.82153e-06 -4.85695e-06 0)
(-8.45164e-09 2.71168e-08 0)
(-4.87411e-06 4.88707e-06 0)
(-6.94745e-06 7.02574e-06 0)
(-5.08951e-06 5.28085e-06 0)
(-6.50357e-07 8.17427e-07 0)
(3.73184e-06 -3.50961e-06 0)
(5.98899e-06 -4.88216e-06 0)
(6.23088e-06 -3.43665e-06 0)
(4.47934e-06 -7.93985e-06 0)
(1.92584e-07 -9.48193e-06 0)
(4.29711e-06 -1.1714e-06 0)
(1.34965e-06 -3.22845e-06 0)
(4.70014e-06 -5.43585e-06 0)
(4.67724e-06 -3.74382e-06 0)
(8.26282e-07 9.39881e-07 0)
(-4.89698e-06 6.10031e-06 0)
(-8.76569e-06 8.62556e-06 0)
(-7.77534e-06 6.45699e-06 0)
(-1.80094e-06 1.5601e-07 0)
(6.00759e-06 -7.03911e-06 0)
(1.09912e-05 -1.09451e-05 0)
(9.85849e-06 -8.96624e-06 0)
(2.878e-06 -1.84399e-06 0)
(-6.09335e-06 6.57631e-06 0)
(-1.18352e-05 1.15037e-05 0)
(-1.09175e-05 1.00367e-05 0)
(-3.79786e-06 2.91634e-06 0)
(5.42129e-06 -5.8605e-06 0)
(1.14449e-05 -1.13697e-05 0)
(1.09119e-05 -1.0605e-05 0)
(4.32255e-06 -4.17215e-06 0)
(-4.38218e-06 4.16804e-06 0)
(-1.02352e-05 9.75071e-06 0)
(-1.01521e-05 9.68695e-06 0)
(-4.57337e-06 4.37647e-06 0)
(3.02173e-06 -2.9276e-06 0)
(8.31224e-06 -8.13576e-06 0)
(8.62558e-06 -8.64139e-06 0)
(4.28005e-06 -4.62197e-06 0)
(-1.89555e-06 1.33083e-06 0)
(-6.3927e-06 5.86785e-06 0)
(-7.02707e-06 6.77528e-06 0)
(-3.95644e-06 4.02012e-06 0)
(7.18043e-07 -5.09357e-07 0)
(4.35382e-06 -4.25689e-06 0)
(5.24326e-06 -5.42155e-06 0)
(3.35415e-06 -3.77287e-06 0)
(5.7547e-08 -5.23173e-07 0)
(-2.81646e-06 2.50792e-06 0)
(-3.96646e-06 3.88343e-06 0)
(-3.13199e-06 3.16816e-06 0)
(-9.94008e-07 9.60576e-07 0)
(1.32458e-06 -1.54762e-06 0)
(2.81135e-06 -3.17818e-06 0)
(2.92413e-06 -3.25524e-06 0)
(1.70034e-06 -1.82158e-06 0)
(-3.18095e-07 4.299e-07 0)
(-2.27333e-06 2.45095e-06 0)
(-3.2746e-06 3.2635e-06 0)
(-2.75273e-06 2.39455e-06 0)
(-7.86449e-07 1.51771e-07 0)
(1.79309e-06 -2.42112e-06 0)
(3.67889e-06 -3.97648e-06 0)
(3.72303e-06 -3.54249e-06 0)
(1.63611e-06 -1.12571e-06 0)
(-1.6753e-06 2.14301e-06 0)
(-4.44512e-06 4.49621e-06 0)
(-4.97828e-06 4.4785e-06 0)
(-2.69539e-06 1.84496e-06 0)
(1.36632e-06 -2.14486e-06 0)
(4.98702e-06 -5.30836e-06 0)
(5.98856e-06 -5.74028e-06 0)
(3.56017e-06 -2.97207e-06 0)
(-1.12713e-06 1.63236e-06 0)
(-5.47625e-06 5.546e-06 0)
(-6.92807e-06 6.49649e-06 0)
(-4.50045e-06 3.8113e-06 0)
(5.48513e-07 -1.11711e-06 0)
(5.37143e-06 -5.57295e-06 0)
(7.17274e-06 -7.05781e-06 0)
(4.87979e-06 -4.74583e-06 0)
(-1.67094e-07 2.72383e-08 0)
(-4.97871e-06 4.53978e-06 0)
(-6.76471e-06 6.34683e-06 0)
(-4.6086e-06 4.73786e-06 0)
(1.10842e-07 1.10362e-06 0)
(4.92753e-06 -2.31166e-06 0)
(4.44542e-06 -2.99902e-06 0)
(5.81005e-06 -3.2832e-06 0)
(-4.81889e-06 -4.11607e-06 0)
(3.26471e-07 -8.80985e-09 0)
(-2.51631e-06 -1.57132e-06 0)
(3.55901e-06 -5.71301e-06 0)
(7.1295e-06 -7.11873e-06 0)
(6.0548e-06 -4.70354e-06 0)
(6.11726e-07 8.83799e-07 0)
(-6.24753e-06 6.9453e-06 0)
(-1.02759e-05 9.87052e-06 0)
(-8.54147e-06 7.41916e-06 0)
(-1.48684e-06 4.05475e-07 0)
(7.04413e-06 -7.47174e-06 0)
(1.19987e-05 -1.1683e-05 0)
(1.02071e-05 -9.5807e-06 0)
(2.44623e-06 -2.11142e-06 0)
(-6.90266e-06 6.61244e-06 0)
(-1.24242e-05 1.16598e-05 0)
(-1.09183e-05 1.01743e-05 0)
(-3.29817e-06 3.03383e-06 0)
(5.98637e-06 -5.68346e-06 0)
(1.16329e-05 -1.11069e-05 0)
(1.05908e-05 -1.03667e-05 0)
(3.74762e-06 -4.1543e-06 0)
(-4.77187e-06 3.83816e-06 0)
(-1.0141e-05 9.15157e-06 0)
(-9.62804e-06 9.10499e-06 0)
(-3.98192e-06 4.14958e-06 0)
(3.26814e-06 -2.62995e-06 0)
(8.03783e-06 -7.44574e-06 0)
(8.00733e-06 -7.93842e-06 0)
(3.72054e-06 -4.3134e-06 0)
(-2.04264e-06 1.05808e-06 0)
(-6.05293e-06 5.16483e-06 0)
(-6.43998e-06 6.04048e-06 0)
(-3.50209e-06 3.65762e-06 0)
(7.73342e-07 -3.29996e-07 0)
(4.01962e-06 -3.68989e-06 0)
(4.77412e-06 -4.8333e-06 0)
(3.06031e-06 -3.50751e-06 0)
(9.57022e-08 -6.97751e-07 0)
(-2.53021e-06 2.05274e-06 0)
(-3.67192e-06 3.45673e-06 0)
(-3.04011e-06 3.01892e-06 0)
(-1.13812e-06 1.12523e-06 0)
(1.09812e-06 -1.24592e-06 0)
(2.7136e-06 -2.98877e-06 0)
(3.05467e-06 -3.32069e-06 0)
(1.96549e-06 -2.0832e-06 0)
(-1.38728e-07 1.80836e-07 0)
(-2.35868e-06 2.41688e-06 0)
(-3.61543e-06 3.49015e-06 0)
(-3.13694e-06 2.73193e-06 0)
(-9.35937e-07 3.53464e-07 0)
(2.02493e-06 -2.5276e-06 0)
(4.18719e-06 -4.36534e-06 0)
(4.20064e-06 -3.99626e-06 0)
(1.76764e-06 -1.37087e-06 0)
(-2.00034e-06 2.26102e-06 0)
(-5.04668e-06 4.9131e-06 0)
(-5.49114e-06 4.95156e-06 0)
(-2.80197e-06 2.10428e-06 0)
(1.72947e-06 -2.23387e-06 0)
(5.58671e-06 -5.6754e-06 0)
(6.44719e-06 -6.17033e-06 0)
(3.60193e-06 -3.24706e-06 0)
(-1.4989e-06 1.60928e-06 0)
(-5.98927e-06 5.72103e-06 0)
(-7.23223e-06 6.73756e-06 0)
(-4.41364e-06 4.01643e-06 0)
(9.07512e-07 -9.61504e-07 0)
(5.66284e-06 -5.4284e-06 0)
(7.09325e-06 -6.93196e-06 0)
(4.43078e-06 -4.76099e-06 0)
(-6.04059e-07 -3.07175e-07 0)
(-4.8618e-06 3.8543e-06 0)
(-5.76642e-06 5.59555e-06 0)
(-2.92549e-06 4.26137e-06 0)
(1.71603e-06 7.70907e-07 0)
(6.3867e-07 -1.22374e-06 0)
(4.02534e-06 2.5203e-06 0)
(-7.82286e-06 5.29923e-06 0)
(-5.21524e-06 1.71792e-06 0)
(-6.01658e-06 1.58236e-06 0)
(-1.67125e-08 -2.34214e-06 0)
(5.93657e-06 -6.63104e-06 0)
(8.79658e-06 -8.40202e-06 0)
(6.70032e-06 -5.70849e-06 0)
(1.72865e-07 7.60493e-07 0)
(-7.34458e-06 7.65722e-06 0)
(-1.12928e-05 1.08655e-05 0)
(-8.89062e-06 8.09103e-06 0)
(-1.08956e-06 4.64633e-07 0)
(7.76199e-06 -7.89724e-06 0)
(1.24575e-05 -1.22249e-05 0)
(1.00979e-05 -9.91685e-06 0)
(1.92551e-06 -2.15941e-06 0)
(-7.36964e-06 6.70982e-06 0)
(-1.2435e-05 1.17068e-05 0)
(-1.04413e-05 1.01014e-05 0)
(-2.69452e-06 2.94475e-06 0)
(6.23262e-06 -5.62257e-06 0)
(1.12772e-05 -1.08364e-05 0)
(9.81955e-06 -1.00189e-05 0)
(3.0626e-06 -3.98081e-06 0)
(-4.89569e-06 3.64929e-06 0)
(-9.58527e-06 8.63382e-06 0)
(-8.72107e-06 8.52372e-06 0)
(-3.28855e-06 3.84629e-06 0)
(3.31345e-06 -2.45923e-06 0)
(7.40958e-06 -6.88805e-06 0)
(7.09817e-06 -7.3207e-06 0)
(3.08275e-06 -4.00252e-06 0)
(-2.04716e-06 8.8248e-07 0)
(-5.46588e-06 4.61755e-06 0)
(-5.65486e-06 5.45088e-06 0)
(-2.99648e-06 3.35905e-06 0)
(7.37225e-07 -2.03181e-07 0)
(3.53454e-06 -3.26934e-06 0)
(4.19234e-06 -4.41293e-06 0)
(2.74437e-06 -3.34546e-06 0)
(1.89388e-07 -8.57481e-07 0)
(-2.1646e-06 1.722e-06 0)
(-3.32533e-06 3.19737e-06 0)
(-2.94133e-06 2.99165e-06 0)
(-1.30449e-06 1.30503e-06 0)
(8.47379e-07 -1.03744e-06 0)
(2.60404e-06 -2.94368e-06 0)
(3.18128e-06 -3.49974e-06 0)
(2.2237e-06 -2.36827e-06 0)
(3.04972e-08 3.18785e-09 0)
(-2.44269e-06 2.49994e-06 0)
(-3.92806e-06 3.80883e-06 0)
(-3.47032e-06 3.08703e-06 0)
(-1.04265e-06 4.98941e-07 0)
(2.2517e-06 -2.71837e-06 0)
(4.62612e-06 -4.80749e-06 0)
(4.57452e-06 -4.43932e-06 0)
(1.82868e-06 -1.55494e-06 0)
(-2.2987e-06 2.44136e-06 0)
(-5.5135e-06 5.34411e-06 0)
(-5.82476e-06 5.37633e-06 0)
(-2.79477e-06 2.28574e-06 0)
(2.05115e-06 -2.37118e-06 0)
(5.98503e-06 -6.01628e-06 0)
(6.64387e-06 -6.50285e-06 0)
(3.478e-06 -3.40793e-06 0)
(-1.81601e-06 1.64166e-06 0)
(-6.21936e-06 5.84571e-06 0)
(-7.15882e-06 6.83936e-06 0)
(-4.07387e-06 4.07263e-06 0)
(1.20922e-06 -8.65953e-07 0)
(5.5619e-06 -5.19864e-06 0)
(6.48383e-06 -6.59926e-06 0)
(3.67122e-06 -4.52886e-06 0)
(-8.14719e-07 -4.26886e-07 0)
(-3.96809e-06 3.26948e-06 0)
(-4.03106e-06 4.4757e-06 0)
(-1.66067e-06 2.55062e-06 0)
(-2.84463e-06 5.22678e-07 0)
(4.95825e-07 6.13056e-06 0)
(-6.37742e-06 1.26981e-05 0)
(-8.72629e-06 2.58163e-06 0)
(-6.79901e-06 4.28985e-06 0)
(-4.26033e-06 3.06347e-06 0)
(1.16923e-06 -1.97855e-06 0)
(6.95486e-06 -7.49367e-06 0)
(9.74074e-06 -9.64625e-06 0)
(7.08012e-06 -6.50446e-06 0)
(-2.09391e-07 7.14726e-07 0)
(-8.13967e-06 8.13457e-06 0)
(-1.19062e-05 1.13995e-05 0)
(-8.94706e-06 8.32753e-06 0)
(-6.80784e-07 3.62685e-07 0)
(8.20236e-06 -8.11419e-06 0)
(1.2522e-05 -1.23002e-05 0)
(9.72268e-06 -9.78276e-06 0)
(1.42842e-06 -1.98524e-06 0)
(-7.54719e-06 6.67133e-06 0)
(-1.2079e-05 1.1347e-05 0)
(-9.74771e-06 9.57792e-06 0)
(-2.14712e-06 2.59617e-06 0)
(6.20334e-06 -5.51352e-06 0)
(1.0612e-05 -1.02638e-05 0)
(8.89736e-06 -9.29375e-06 0)
(2.46388e-06 -3.5507e-06 0)
(-4.77145e-06 3.48754e-06 0)
(-8.78899e-06 7.93563e-06 0)
(-7.72951e-06 7.67564e-06 0)
(-2.70243e-06 3.33218e-06 0)
(3.14834e-06 -2.35484e-06 0)
(6.6126e-06 -6.25027e-06 0)
(6.16531e-06 -6.54307e-06 0)
(2.56631e-06 -3.53902e-06 0)
(-1.87819e-06 7.90389e-07 0)
(-4.7701e-06 4.06883e-06 0)
(-4.88905e-06 4.79769e-06 0)
(-2.61252e-06 2.97382e-06 0)
(5.6632e-07 -1.51051e-07 0)
(2.9903e-06 -2.89009e-06 0)
(3.6582e-06 -3.99284e-06 0)
(2.54216e-06 -3.1462e-06 0)
(3.84191e-07 -9.56259e-07 0)
(-1.77241e-06 1.45323e-06 0)
(-3.03369e-06 2.97501e-06 0)
(-2.93318e-06 2.95853e-06 0)
(-1.53477e-06 1.43824e-06 0)
(5.95258e-07 -8.91255e-07 0)
(2.5448e-06 -2.93994e-06 0)
(3.36683e-06 -3.67256e-06 0)
(2.50916e-06 -2.60186e-06 0)
(1.86536e-07 -1.10996e-07 0)
(-2.55557e-06 2.61355e-06 0)
(-4.25139e-06 4.09914e-06 0)
(-3.78382e-06 3.36932e-06 0)
(-1.11968e-06 5.77723e-07 0)
(2.48096e-06 -2.9143e-06 0)
(5.02052e-06 -5.17304e-06 0)
(4.87732e-06 -4.76033e-06 0)
(1.84529e-06 -1.64902e-06 0)
(-2.56581e-06 2.60824e-06 0)
(-5.8696e-06 5.64396e-06 0)
(-6.02386e-06 5.61531e-06 0)
(-2.71658e-06 2.33835e-06 0)
(2.31722e-06 -2.48596e-06 0)
(6.21102e-06 -6.16977e-06 0)
(6.64167e-06 -6.57123e-06 0)
(3.25436e-06 -3.37663e-06 0)
(-2.04821e-06 1.66879e-06 0)
(-6.19892e-06 5.74481e-06 0)
(-6.80267e-06 6.60044e-06 0)
(-3.60207e-06 3.85748e-06 0)
(1.37995e-06 -8.08547e-07 0)
(5.13571e-06 -4.7243e-06 0)
(5.6116e-06 -5.83418e-06 0)
(2.98663e-06 -3.87443e-06 0)
(-6.38314e-07 -3.90835e-07 0)
(-3.03425e-06 2.25689e-06 0)
(-3.53588e-06 2.45951e-06 0)
(-4.18708e-06 1.30579e-06 0)
(-2.63645e-06 5.88435e-06 0)
(-7.99321e-07 1.26436e-05 0)
(-7.34732e-06 1.51883e-06 0)
(-3.83951e-06 4.55111e-06 0)
(-6.65816e-06 7.17587e-06 0)
(-4.78754e-06 4.266e-06 0)
(1.10183e-06 -2.1609e-06 0)
(7.66629e-06 -8.29385e-06 0)
(1.05062e-05 -1.0438e-05 0)
(7.26683e-06 -6.91461e-06 0)
(-6.3384e-07 7.15469e-07 0)
(-8.71895e-06 8.30944e-06 0)
(-1.21377e-05 1.14754e-05 0)
(-8.67901e-06 8.22024e-06 0)
(-1.95075e-07 2.25105e-07 0)
(8.44157e-06 -8.04716e-06 0)
(1.22462e-05 -1.19434e-05 0)
(9.07809e-06 -9.31778e-06 0)
(8.80243e-07 -1.7616e-06 0)
(-7.55528e-06 6.39066e-06 0)
(-1.14609e-05 1.0609e-05 0)
(-8.86445e-06 8.76053e-06 0)
(-1.57897e-06 2.19167e-06 0)
(6.0469e-06 -5.21727e-06 0)
(9.77925e-06 -9.39191e-06 0)
(7.87948e-06 -8.33454e-06 0)
(1.88543e-06 -3.06839e-06 0)
(-4.55256e-06 3.19807e-06 0)
(-7.90837e-06 7.03201e-06 0)
(-6.72544e-06 6.67247e-06 0)
(-2.17278e-06 2.78934e-06 0)
(2.91511e-06 -2.16356e-06 0)
(5.79878e-06 -5.48457e-06 0)
(5.28625e-06 -5.67824e-06 0)
(2.13615e-06 -3.06766e-06 0)
(-1.65646e-06 6.45177e-07 0)
(-4.09928e-06 3.45707e-06 0)
(-4.21488e-06 4.11529e-06 0)
(-2.32727e-06 2.60296e-06 0)
(3.56777e-07 -6.38011e-08 0)
(2.4957e-06 -2.48688e-06 0)
(3.23176e-06 -3.5759e-06 0)
(2.43744e-06 -2.96858e-06 0)
(6.05653e-07 -1.07321e-06 0)
(-1.43764e-06 1.18526e-06 0)
(-2.84224e-06 2.76979e-06 0)
(-3.00133e-06 2.94282e-06 0)
(-1.77063e-06 1.57528e-06 0)
(4.05089e-07 -7.53594e-07 0)
(2.56674e-06 -2.94211e-06 0)
(3.59492e-06 -3.83473e-06 0)
(2.77228e-06 -2.81089e-06 0)
(2.78555e-07 -2.08185e-07 0)
(-2.71958e-06 2.71195e-06 0)
(-4.56832e-06 4.33733e-06 0)
(-4.03348e-06 3.58985e-06 0)
(-1.12303e-06 6.32234e-07 0)
(2.73176e-06 -3.06205e-06 0)
(5.35475e-06 -5.42636e-06 0)
(5.06817e-06 -4.96286e-06 0)
(1.77338e-06 -1.69648e-06 0)
(-2.82639e-06 2.70159e-06 0)
(-6.10849e-06 5.77121e-06 0)
(-6.05461e-06 5.67262e-06 0)
(-2.52309e-06 2.3124e-06 0)
(2.56118e-06 -2.51016e-06 0)
(6.27243e-06 -6.09234e-06 0)
(6.42084e-06 -6.38711e-06 0)
(2.89416e-06 -3.21845e-06 0)
(-2.23612e-06 1.60749e-06 0)
(-5.96515e-06 5.36813e-06 0)
(-6.19288e-06 6.03898e-06 0)
(-2.99854e-06 3.45282e-06 0)
(1.49502e-06 -6.92995e-07 0)
(4.56783e-06 -3.97307e-06 0)
(4.68108e-06 -4.75774e-06 0)
(2.29069e-06 -3.13662e-06 0)
(-8.91239e-07 -6.30056e-07 0)
(-3.37254e-06 1.06775e-06 0)
(-3.16387e-06 1.0294e-06 0)
(-3.80618e-06 2.59333e-06 0)
(5.74237e-06 4.43411e-06 0)
(-1.21291e-06 -1.16713e-06 0)
(1.62834e-06 1.82958e-06 0)
(-5.57497e-06 7.17764e-06 0)
(-8.55255e-06 8.22774e-06 0)
(-5.64989e-06 4.48183e-06 0)
(1.43885e-06 -2.32468e-06 0)
(8.43645e-06 -8.63134e-06 0)
(1.09295e-05 -1.07071e-05 0)
(7.06842e-06 -6.9838e-06 0)
(-1.16543e-06 7.50722e-07 0)
(-9.05473e-06 8.23317e-06 0)
(-1.19421e-05 1.11748e-05 0)
(-8.06557e-06 7.82615e-06 0)
(3.61785e-07 4.0066e-08 0)
(8.46255e-06 -7.78508e-06 0)
(1.16151e-05 -1.1283e-05 0)
(8.15545e-06 -8.62237e-06 0)
(2.76186e-07 -1.49887e-06 0)
(-7.39672e-06 5.96481e-06 0)
(-1.05794e-05 9.6542e-06 0)
(-7.78143e-06 7.79137e-06 0)
(-9.71197e-07 1.77588e-06 0)
(5.78339e-06 -4.8138e-06 0)
(8.78768e-06 -8.38378e-06 0)
(6.75431e-06 -7.29931e-06 0)
(1.29787e-06 -2.60224e-06 0)
(-4.27084e-06 2.83621e-06 0)
(-6.95778e-06 6.06735e-06 0)
(-5.69434e-06 5.66624e-06 0)
(-1.66208e-06 2.29642e-06 0)
(2.6531e-06 -1.91604e-06 0)
(4.98523e-06 -4.70537e-06 0)
(4.44414e-06 -4.85631e-06 0)
(1.75023e-06 -2.66456e-06 0)
(-1.42455e-06 4.58028e-07 0)
(-3.4707e-06 2.86364e-06 0)
(-3.61338e-06 3.5031e-06 0)
(-2.09636e-06 2.3095e-06 0)
(1.51972e-07 5.82881e-08 0)
(2.06708e-06 -2.11227e-06 0)
(2.89234e-06 -3.22984e-06 0)
(2.38462e-06 -2.85686e-06 0)
(8.10303e-07 -1.2105e-06 0)
(-1.17577e-06 9.5001e-07 0)
(-2.72905e-06 2.6226e-06 0)
(-3.0992e-06 2.9696e-06 0)
(-1.96834e-06 1.71521e-06 0)
(2.91643e-07 -6.4422e-07 0)
(2.64627e-06 -2.97205e-06 0)
(3.81668e-06 -3.99591e-06 0)
(2.96703e-06 -2.98922e-06 0)
(2.90209e-07 -2.73622e-07 0)
(-2.91156e-06 2.8072e-06 0)
(-4.82927e-06 4.52511e-06 0)
(-4.17185e-06 3.73983e-06 0)
(-1.03483e-06 6.4908e-07 0)
(2.98197e-06 -3.17228e-06 0)
(5.5792e-06 -5.57059e-06 0)
(5.09806e-06 -5.04156e-06 0)
(1.59198e-06 -1.68518e-06 0)
(-3.06245e-06 2.73727e-06 0)
(-6.18468e-06 5.74102e-06 0)
(-5.87095e-06 5.55654e-06 0)
(-2.19399e-06 2.20261e-06 0)
(2.76796e-06 -2.46652e-06 0)
(6.13149e-06 -5.82056e-06 0)
(5.94694e-06 -5.98753e-06 0)
(2.38573e-06 -2.95073e-06 0)
(-2.37131e-06 1.47849e-06 0)
(-5.50936e-06 4.77939e-06 0)
(-5.33051e-06 5.24254e-06 0)
(-2.25303e-06 2.92184e-06 0)
(1.59894e-06 -5.53513e-07 0)
(3.88104e-06 -3.15141e-06 0)
(3.50654e-06 -3.73405e-06 0)
(1.0867e-06 -2.5089e-06 0)
(-1.80771e-06 -5.08374e-07 0)
(-9.36495e-07 2.41345e-07 0)
(-2.84001e-06 -1.29392e-06 0)
(9.20109e-06 -6.98002e-06 0)
(6.2687e-06 -3.78767e-06 0)
(6.64557e-06 -2.37499e-06 0)
(-1.41582e-06 2.80367e-06 0)
(-7.89439e-06 7.35157e-06 0)
(-9.51505e-06 8.39955e-06 0)
(-5.48544e-06 4.65236e-06 0)
(2.10163e-06 -2.30144e-06 0)
(8.90634e-06 -8.6293e-06 0)
(1.08154e-05 -1.05562e-05 0)
(6.47978e-06 -6.72834e-06 0)
(-1.73766e-06 8.55889e-07 0)
(-9.10748e-06 7.94953e-06 0)
(-1.13399e-05 1.05221e-05 0)
(-7.16584e-06 7.13801e-06 0)
(9.36555e-07 -2.30359e-07 0)
(8.25476e-06 -7.38164e-06 0)
(1.06694e-05 -1.03626e-05 0)
(7.02299e-06 -7.70357e-06 0)
(-3.27949e-07 -1.15706e-06 0)
(-7.06064e-06 5.46593e-06 0)
(-9.47384e-06 8.55104e-06 0)
(-6.56452e-06 6.69726e-06 0)
(-3.77992e-07 1.31652e-06 0)
(5.39937e-06 -4.37903e-06 0)
(7.6685e-06 -7.31769e-06 0)
(5.57632e-06 -6.225e-06 0)
(7.47205e-07 -2.12747e-06 0)
(-3.91168e-06 2.47323e-06 0)
(-5.95652e-06 5.11771e-06 0)
(-4.67328e-06 4.6946e-06 0)
(-1.20266e-06 1.8334e-06 0)
(2.34988e-06 -1.67492e-06 0)
(4.1804e-06 -3.97897e-06 0)
(3.658e-06 -4.10874e-06 0)
(1.4254e-06 -2.311e-06 0)
(-1.17478e-06 2.82311e-07 0)
(-2.88483e-06 2.3416e-06 0)
(-3.08767e-06 2.98188e-06 0)
(-1.92144e-06 2.072e-06 0)
(-4.8774e-08 1.68422e-07 0)
(1.70095e-06 -1.80685e-06 0)
(2.63113e-06 -2.96328e-06 0)
(2.37205e-06 -2.78349e-06 0)
(9.90748e-07 -1.32352e-06 0)
(-9.82849e-07 7.796e-07 0)
(-2.67765e-06 2.53196e-06 0)
(-3.20511e-06 3.00433e-06 0)
(-2.11357e-06 1.81202e-06 0)
(2.51626e-07 -5.91617e-07 0)
(2.76174e-06 -3.02227e-06 0)