/*--------------------------------*- C++ -*----------------------------------*\
| =========                 |                                                 |
| \\      /  F ield         | OpenFOAM: The Open Source CFD Toolbox           |
|  \\    /   O peration     | Version:  2412                                  |
|   \\  /    A nd           | Website:  www.openfoam.com                      |
|    \\/     M anipulation  |                                                 |
\*---------------------------------------------------------------------------*/
FoamFile
{
    version     2.0;
    format      ascii;
    arch        "LSB;label=32;scalar=64";
    class       volScalarField;
    location    "1.8";
    object      p_rgh;
}
// * * * * * * * * * * * * * * * * * * * * * * * * * * * * * * * * * * * * * //

dimensions      [1 -1 -2 0 0 0 0];

internalField   nonuniform List<scalar> 
6400
(
15686.2
15686.2
15686.2
15686.2
15686.2
15686.2
15686.2
15686.2
15686.2
15686.2
15686.2
15686.2
15686.2
15686.2
15686.2
15686.2
15686.2
15686.2
15686.2
15686.2
15686.2
15686.2
15686.2
15686.2
15686.3
15686.3
15686.3
15686.3
15686.3
15686.2
15686.2
15686.2
15686.2
15686.2
15686.2
15686.2
15686.2
15686.2
15686.2
15686.2
15686.2
15686.2
15686.2
15686.2
15686.2
15686.2
15686.2
15686.2
15686.2
15686.2
15686.2
15686.2
15686.2
15686.2
15686.2
15686.2
15686.2
15686.2
15686.2
15686.2
15686.2
15686.2
15686.2
15686.2
15686.2
15686.2
15686.2
15686.2
15686.2
15686.2
15686.2
15686.2
15686.2
15686.2
15686.2
15686.3
15686.3
15686.3
15686.3
15686.3
15686.2
15686.2
15686.2
15686.2
15686.2
15686.2
15686.2
15686.2
15686.2
15686.2
15686.2
15686.2
15686.2
15686.2
15686.2
15686.2
15686.2
15686.2
15686.2
15686.2
15686.2
15686.2
15686.2
15686.2
15686.2
15686.3
15686.3
15686.3
15686.3
15686.2
15686.2
15686.2
15686.2
15686.2
15686.2
15686.2
15686.2
15686.2
15686.2
15686.2
15686.2
15686.2
15686.2
15686.2
15686.2
15686.2
15686.2
15686.2
15686.2
15686.2
15686.2
15686.2
15686.2
15686.2
15686.2
15686.2
15686.2
15686.2
15686.2
15686.2
15686.2
15686.2
15686.2
15686.2
15686.2
15686.2
15686.2
15686.2
15686.2
15686.2
15686.2
15686.2
15686.2
15686.2
15686.2
15686.3
15686.3
15686.3
15686.3
15686.3
15686.2
15686.2
15686.2
15686.2
15686.2
15686.2
15686.2
15686.2
15686.2
15686.2
15686.2
15686.2
15686.2
15686.2
15686.2
15686.2
15686.2
15686.2
15686.2
15686.2
15686.2
15686.2
15686.2
15686.2
15686.2
15686.3
15686.3
15686.3
15686.2
15686.2
15686.2
15686.2
15686.2
15686.2
15686.2
15686.2
15686.2
15686.2
15686.2
15686.2
15686.2
15686.2
15686.2
15686.2
15686.2
15686.2
15686.2
15686.2
15686.2
15686.2
15686.2
15686.2
15686.2
15686.2
15686.2
15686.2
15686.2
15686.2
15686.2
15686.2
15686.2
15686.2
15686.2
15686.2
15686.2
15686.2
15686.2
15686.2
15686.2
15686.2
15686.2
15686.2
15686.2
15686.2
15686.2
15686.2
15686.3
15686.3
15686.3
15686.3
15686.2
15686.2
15686.2
15686.2
15686.2
15686.2
15686.2
15686.2
15686.2
15686.2
15686.2
15686.2
15686.2
15686.2
15686.2
15686.2
15686.2
15686.2
15686.2
15686.2
15686.2
15686.2
15686.2
15686.2
15686.2
15686.2
15686.2
15686.2
15686.2
15686.2
15686.2
15686.2
15686.2
15686.2
15686.2
15686.2
15686.2
15686.2
15686.2
15686.2
15686.2
15686.2
15686.2
15686.2
15686.2
15686.2
15686.2
15686.2
15686.2
15686.2
15686.2
15686.2
15686.2
15686.2
15686.2
15686.2
15686.2
15686.2
15686.2
15686.2
15686.2
15686.2
15686.2
15686.2
15686.2
15686.2
15686.2
15686.2
15686.2
15686.2
15686.2
15686.2
15686.2
15686.2
15686.2
15686.2
15686.3
15686.3
15686.3
15686.3
15686.2
15686.2
15686.2
15686.2
15686.2
15686.2
15686.2
15686.2
15686.2
15686.2
15686.2
15686.2
15686.2
15686.2
15686.2
15686.2
15686.2
15686.2
15686.2
15686.2
15686.2
15686.2
15686.2
15686.2
15686.2
15686.2
15686.2
15686.2
15686.2
15686.2
15686.2
15686.2
15686.2
15686.2
15686.2
15686.2
15686.2
15686.2
15686.2
15686.2
15686.2
15686.2
15686.2
15686.2
15686.2
15686.2
15686.2
15686.2
15686.2
15686.2
15686.2
15686.2
15686.2
15686.2
15686.2
15686.2
15686.2
15686.2
15686.2
15686.2
15686.2
15686.2
15686.2
15686.2
15686.2
15686.2
15686.2
15686.2
15686.2
15686.2
15686.2
15686.2
15686.2
15686.2
15686.2
15686.2
15686.2
15686.3
15686.3
15686.3
15686.2
15686.2
15686.2
15686.2
15686.2
15686.2
15686.2
15686.2
15686.2
15686.2
15686.2
15686.2
15686.2
15686.2
15686.2
15686.2
15686.2
15686.2
15686.2
15686.2
15686.2
15686.2
15686.2
15686.2
15686.2
15686.2
15686.2
15686.2
15686.2
15686.2
15686.2
15686.2
15686.2
15686.2
15686.2
15686.2
15686.2
15686.2
15686.2
15686.2
15686.2
15686.2
15686.2
15686.2
15686.2
15686.2
15686.2
15686.2
15686.2
15686.2
15686.2
15686.2
15686.2
15686.2
15686.2
15686.2
15686.2
15686.2
15686.2
15686.2
15686.2
15686.2
15686.2
15686.2
15686.2
15686.2
15686.2
15686.2
15686.2
15686.2
15686.2
15686.2
15686.2
15686.2
15686.2
15686.2
15686.2
15686.2
15686.3
15686.3
15686.2
15686.2
15686.2
15686.2
15686.2
15686.2
15686.2
15686.2
15686.2
15686.2
15686.2
15686.2
15686.2
15686.2
15686.2
15686.2
15686.2
15686.2
15686.2
15686.2
15686.2
15686.2
15686.2
15686.2
15686.2
15686.2
15686.2
15686.2
15686.2
15686.2
15686.2
15686.2
15686.2
15686.2
15686.2
15686.2
15686.2
15686.2
15686.2
15686.2
15686.2
15686.2
15686.2
15686.2
15686.2
15686.2
15686.2
15686.2
15686.2
15686.2
15686.2
15686.2
15686.2
15686.2
15686.2
15686.2
15686.2
15686.2
15686.2
15686.2
15686.2
15686.2
15686.2
15686.2
15686.2
15686.2
15686.2
15686.2
15686.2
15686.2
15686.2
15686.2
15686.2
15686.2
15686.2
15686.2
15686.2
15686.2
15686.2
15686.2
15686.2
15686.2
15686.2
15686.2
15686.2
15686.2
15686.2
15686.2
15686.2
15686.2
15686.2
15686.2
15686.2
15686.2
15686.2
15686.2
15686.2
15686.2
15686.2
15686.2
15686.2
15686.2
15686.2
15686.2
15686.2
15686.2
15686.2
15686.2
15686.2
15686.2
15686.2
15686.2
15686.2
15686.2
15686.2
15686.2
15686.2
15686.2
15686.2
15686.2
15686.2
15686.2
15686.2
15686.2
15686.2
15686.2
15686.2
15686.2
15686.2
15686.2
15686.2
15686.2
15686.2
15686.2
15686.2
15686.2
15686.2
15686.2
15686.2
15686.2
15686.2
15686.2
15686.2
15686.2
15686.2
15686.2
15686.2
15686.2
15686.2
15686.2
15686.2
15686.2
15686.2
15686.2
15686.2
15686.2
15686.2
15686.2
15686.2
15686.2
15686.2
15686.2
15686.2
15686.2
15686.2
15686.2
15686.2
15686.2
15686.2
15686.2
15686.2
15686.2
15686.2
15686.2
15686.2
15686.2
15686.2
15686.2
15686.2
15686.2
15686.2
15686.2
15686.2
15686.2
15686.2
15686.2
15686.2
15686.2
15686.2
15686.2
15686.2
15686.2
15686.2
15686.2
15686.2
15686.2
15686.2
15686.2
15686.2
15686.2
15686.2
15686.2
15686.2
15686.2
15686.2
15686.2
15686.2
15686.2
15686.2
15686.2
15686.2
15686.2
15686.2
15686.2
15686.2
15686.2
15686.2
15686.2
15686.2
15686.2
15686.2
15686.2
15686.2
15686.2
15686.2
15686.2
15686.2
15686.2
15686.2
15686.2
15686.2
15686.2
15686.2
15686.2
15686.2
15686.2
15686.2
15686.2
15686.2
15686.2
15686.2
15686.2
15686.2
15686.2
15686.2
15686.2
15686.2
15686.2
15686.2
15686.2
15686.2
15686.2
15686.2
15686.2
15686.2
15686.2
15686.2
15686.2
15686.2
15686.2
15686.2
15686.2
15686.2
15686.2
15686.2
15686.2
15686.2
15686.2
15686.2
15686.2
15686.2
15686.2
15686.2
15686.2
15686.2
15686.2
15686.2
15686.2
15686.2
15686.2
15686.2
15686.2
15686.2
15686.2
15686.2
15686.2
15686.2
15686.2
15686.2
15686.2
15686.2
15686.2
15686.2
15686.2
15686.2
15686.2
15686.2
15686.2
15686.2
15686.2
15686.2
15686.2
15686.2
15686.2
15686.2
15686.2
15686.2
15686.2
15686.2
15686.2
15686.2
15686.2
15686.2
15686.2
15686.2
15686.2
15686.2
15686.2
15686.2
15686.2
15686.2
15686.2
15686.2
15686.2
15686.2
15686.2
15686.2
15686.2
15686.2
15686.2
15686.2
15686.2
15686.2
15686.2
15686.2
15686.2
15686.2
15686.2
15686.2
15686.2
15686.2
15686.2
15686.2
15686.2
15686.2
15686.2
15686.2
15686.2
15686.2
15686.2
15686.2
15686.2
15686.2
15686.2
15686.2
15686.2
15686.2
15686.2
15686.2
15686.2
15686.2
15686.2
15686.2
15686.2
15686.2
15686.2
15686.2
15686.2
15686.2
15686.2
15686.2
15686.2
15686.2
15686.2
15686.2
15686.2
15686.2
15686.2
15686.2
15686.2
15686.2
15686.2
15686.2
15686.2
15686.2
15686.2
15686.2
15686.2
15686.2
15686.2
15686.2
15686.2
15686.2
15686.2
15686.2
15686.2
15686.2
15686.2
15686.2
15686.2
15686.2
15686.2
15686.2
15686.2
15686.2
15686.2
15686.2
15686.2
15686.2
15686.2
15686.2
15686.2
15686.2
15686.2
15686.2
15686.2
15686.2
15686.2
15686.2
15686.2
15686.2
15686.2
15686.2
15686.2
15686.2
15686.2
15686.2
15686.2
15686.2
15686.2
15686.2
15686.2
15686.2
15686.2
15686.2
15686.2
15686.2
15686.2
15686.2
15686.2
15686.2
15686.2
15686.2
15686.2
15686.2
15686.2
15686.2
15686.2
15686.2
15686.2
15686.2
15686.2
15686.2
15686.2
15686.2
15686.2
15686.2
15686.2
15686.2
15686.2
15686.2
15686.2
15686.2
15686.2
15686.2
15686.2
15686.2
15686.2
15686.2
15686.2
15686.2
15686.2
15686.2
15686.2
15686.2
15686.2
15686.2
15686.2
15686.2
15686.2
15686.2
15686.2
15686.2
15686.2
15686.2
15686.2
15686.2
15686.2
15686.2
15686.2
15686.2
15686.2
15686.2
15686.2
15686.2
15686.2
15686.2
15686.2
15686.2
15686.2
15686.2
15686.2
15686.2
15686.2
15686.2
15686.2
15686.2
15686.2
15686.2
15686.2
15686.2
15686.2
15686.2
15686.2
15686.2
15686.2
15686.2
15686.2
15686.2
15686.2
15686.2
15686.2
15686.2
15686.2
15686.2
15686.2
15686.2
15686.2
15686.2
15686.2
15686.2
15686.2
15686.2
15686.2
15686.2
15686.2
15686.2
15686.2
15686.2
15686.2
15686.2
15686.2
15686.2
15686.2
15686.2
15686.2
15686.2
15686.2
15686.2
15686.2
15686.2
15686.2
15686.2
15686.2
15686.2
15686.2
15686.2
15686.2
15686.2
15686.2
15686.2
15686.2
15686.2
15686.2
15686.2
15686.2
15686.2
15686.2
15686.2
15686.2
15686.2
15686.2
15686.2
15686.2
15686.2
15686.2
15686.2
15686.2
15686.2
15686.2
15686.2
15686.2
15686.2
15686.2
15686.2
15686.2
15686.2
15686.2
15686.2
15686.2
15686.2
15686.2
15686.2
15686.2
15686.2
15686.2
15686.2
15686.2
15686.2
15686.2
15686.2
15686.2
15686.2
15686.2
15686.2
15686.2
15686.2
15686.2
15686.2
15686.2
15686.2
15686.2
15686.2
15686.2
15686.2
15686.2
15686.2
15686.2
15686.2
15686.2
15686.2
15686.2
15686.2
15686.2
15686.2
15686.2
15686.2
15686.2
15686.2
15686.2
15686.2
15686.2
15686.2
15686.2
15686.2
15686.2
15686.2
15686.2
15686.2
15686.2
15686.2
15686.2
15686.2
15686.2
15686.2
15686.2
15686.2
15686.2
15686.2
15686.2
15686.2
15686.2
15686.2
15686.2
15686.2
15686.2
15686.2
15686.2
15686.2
15686.2
15686.2
15686.2
15686.2
15686.2
15686.2
15686.2
15686.2
15686.2
15686.2
15686.2
15686.2
15686.2
15686.2
15686.2
15686.2
15686.2
15686.2
15686.2
15686.2
15686.2
15686.2
15686.2
15686.2
15686.2
15686.2
15686.2
15686.2
15686.2
15686.2
15686.2
15686.2
15686.2
15686.2
15686.2
15686.2
15686.2
15686.2
15686.2
15686.2
15686.2
15686.2
15686.2
15686.2
15686.2
15686.2
15686.2
15686.2
15686.2
15686.2
15686.2
15686.2
15686.2
15686.2
15686.2
15686.2
15686.2
15686.2
15686.2
15686.2
15686.2
15686.2
15686.2
15686.2
15686.2
15686.2
15686.2
15686.2
15686.2
15686.2
15686.2
15686.2
15686.2
15686.2
15686.2
15686.2
15686.2
15686.2
15686.2
15686.2
15686.2
15686.2
15686.2
15686.2
15686.2
15686.2
15686.2
15686.2
15686.2
15686.2
15686.2
15686.2
15686.2
15686.2
15686.2
15686.2
15686.2
15686.2
15686.2
15686.2
15686.2
15686.2
15686.2
15686.2
15686.2
15686.2
15686.2
15686.2
15686.2
15686.2
15686.2
15686.2
15686.2
15686.2
15686.2
15686.2
15686.2
15686.2
15686.2
15686.2
15686.2
15686.2
15686.2
15686.2
15686.2
15686.2
15686.2
15686.2
15686.2
15686.2
15686.2
15686.2
15686.2
15686.2
15686.2
15686.2
15686.2
15686.2
15686.2
15686.2
15686.2
15686.2
15686.2
15686.2
15686.2
15686.2
15686.2
15686.2
15686.2
15686.2
15686.2
15686.2
15686.2
15686.2
15686.2
15686.2
15686.2
15686.2
15686.2
15686.2
15686.2
15686.2
15686.2
15686.2
15686.2
15686.2
15686.2
15686.2
15686.2
15686.2
15686.2
15686.2
15686.2
15686.2
15686.2
15686.2
15686.2
15686.2
15686.2
15686.2
15686.2
15686.2
15686.2
15686.2
15686.2
15686.2
15686.2
15686.2
15686.2
15686.2
15686.2
15686.2
15686.2
15686.2
15686.2
15686.2
15686.2
15686.2
15686.2
15686.2
15686.2
15686.2
15686.2
15686.2
15686.2
15686.2
15686.2
15686.2
15686.2
15686.2
15686.2
15686.2
15686.2
15686.2
15686.2
15686.2
15686.2
15686.2
15686.2
15686.2
15686.2
15686.2
15686.2
15686.2
15686.2
15686.2
15686.2
15686.2
15686.2
15686.2
15686.2
15686.2
15686.2
15686.2
15686.2
15686.2
15686.2
15686.2
15686.2
15686.2
15686.2
15686.2
15686.2
15686.2
15686.2
15686.2
15686.2
15686.2
15686.2
15686.2
15686.2
15686.2
15686.2
15686.2
15686.2
15686.2
15686.2
15686.2
15686.2
15686.2
15686.2
15686.2
15686.2
15686.2
15686.2
15686.2
15686.2
15686.2
15686.2
15686.2
15686.2
15686.2
15686.2
15686.2
15686.2
15686.2
15686.2
15686.2
15686.2
15686.2
15686.2
15686.2
15686.2
15686.2
15686.2
15686.2
15686.2
15686.2
15686.2
15686.2
15686.2
15686.2
15686.2
15686.2
15686.2
15686.2
15686.2
15686.2
15686.2
15686.2
15686.2
15686.2
15686.2
15686.2
15686.2
15686.2
15686.2
15686.2
15686.2
15686.2
15686.2
15686.2
15686.2
15686.2
15686.2
15686.2
15686.2
15686.2
15686.2
15686.2
15686.2
15686.2
15686.2
15686.2
15686.2
15686.2
15686.2
15686.2
15686.2
15686.2
15686.2
15686.2
15686.2
15686.2
15686.2
15686.2
15686.2
15686.2
15686.2
15686.2
15686.2
15686.2
15686.2
15686.2
15686.2
15686.2
15686.2
15686.2
15686.2
15686.2
15686.2
15686.2
15686.2
15686.2
15686.2
15686.2
15686.2
15686.2
15686.2
15686.2
15686.2
15686.2
15686.2
15686.2
15686.2
15686.2
15686.2
15686.2
15686.2
15686.2
15686.2
15686.2
15686.2
15686.2
15686.2
15686.2
15686.2
15686.2
15686.2
15686.2
15686.2
15686.2
15686.2
15686.2
15686.2
15686.2
15686.2
15686.2
15686.2
15686.2
15686.2
15686.2
15686.2
15686.2
15686.2
15686.2
15686.2
15686.2
15686.2
15686.2
15686.2
15686.2
15686.2
15686.2
15686.2
15686.2
15686.2
15686.2
15686.2
15686.2
15686.2
15686.2
15686.2
15686.2
15686.2
15686.2
15686.2
15686.2
15686.2
15686.2
15686.2
15686.2
15686.2
15686.2
15686.2
15686.2
15686.2
15686.2
15686.2
15686.2
15686.2
15686.2
15686.2
15686.2
15686.2
15686.2
15686.2
15686.2
15686.2
15686.2
15686.2
15686.2
15686.2
15686.2
15686.2
15686.2
15686.2
15686.2
15686.2
15686.2
15686.2
15686.2
15686.2
15686.2
15686.2
15686.2
15686.2
15686.2
15686.2
15686.2
15686.2
0.0639244
0.0709254
0.0675613
0.0654613
0.0637964
0.0619894
0.0601596
0.0583366
0.0562974
0.0539831
0.051369
0.0487668
0.0466655
0.0453934
0.0443278
0.0429825
0.0418359
0.0405498
0.0390914
0.0374464
0.0360096
0.0345922
0.0334023
0.0324144
0.0318836
0.0327635
0.0335699
0.0343387
0.0350259
0.0354726
0.0357561
0.0359842
0.0360719
0.0360618
0.035771
0.0351851
0.0343086
0.0334593
0.0324648
0.0322523
0.0319305
0.0315407
0.0314192
0.0316239
0.0317288
0.03176
0.0320567
0.032197
0.0321899
0.0321135
0.0318603
0.0316557
0.0313096
0.0310629
0.0307195
0.0302855
0.0297779
0.029124
0.0284202
0.0279268
0.0273707
0.026746
0.026037
0.0251599
0.0242115
0.0239608
0.0249497
0.025831
0.0267866
0.0275224
0.0279661
0.0282306
0.0282273
0.0281531
0.028321
0.0285813
0.0282096
0.0276448
0.0269984
0.0200138
0.0104124
0.0104208
0.010434
0.0104523
0.0104762
0.0105059
0.0105417
0.0105837
0.0106322
0.0106875
0.0107495
0.0108183
0.0108939
0.0109766
0.0110669
0.0111645
0.0112692
0.0113811
0.0114997
0.0116242
0.0117541
0.0118889
0.0120276
0.012169
0.0123116
0.0124561
0.0126031
0.0127499
0.0128952
0.0130369
0.0131732
0.0133025
0.0134233
0.0135343
0.0136338
0.0137204
0.0137926
0.0138497
0.0138909
0.0139163
0.0139258
0.0139194
0.0138976
0.0138608
0.01381
0.0137462
0.0136708
0.0135847
0.0134899
0.0133882
0.0132813
0.013171
0.0130588
0.0129463
0.0128346
0.0127252
0.0126191
0.0125171
0.0124208
0.0123304
0.0122465
0.0121693
0.0120992
0.012037
0.0119831
0.0119372
0.0118957
0.0118571
0.0118227
0.0117925
0.0117667
0.011745
0.0117268
0.0117117
0.0116988
0.0116874
0.0116776
0.0116694
0.0116629
0.0116596
0.0104244
0.0104326
0.010445
0.0104628
0.0104863
0.0105156
0.0105508
0.0105922
0.01064
0.0106943
0.0107554
0.0108234
0.0108985
0.0109808
0.0110702
0.0111668
0.0112705
0.0113812
0.0114985
0.0116221
0.0117514
0.0118858
0.0120245
0.0121667
0.0123111
0.0124574
0.0126043
0.0127505
0.0128945
0.0130347
0.0131697
0.0132977
0.0134173
0.0135269
0.0136252
0.0137108
0.0137827
0.0138399
0.0138817
0.0139075
0.0139173
0.0139111
0.0138892
0.0138524
0.0138016
0.0137378
0.0136625
0.0135771
0.0134832
0.0133824
0.0132764
0.013167
0.0130555
0.0129438
0.012833
0.0127246
0.0126198
0.0125198
0.0124245
0.0123355
0.0122528
0.0121765
0.012107
0.0120438
0.0119874
0.0119373
0.0118933
0.011855
0.0118219
0.0117935
0.0117693
0.0117487
0.0117311
0.0117162
0.0117033
0.0116922
0.0116825
0.011674
0.0116663
0.0116588
0.0104072
0.0104149
0.0104273
0.0104452
0.0104688
0.0104983
0.0105339
0.0105757
0.010624
0.0106789
0.0107406
0.0108093
0.010885
0.010968
0.0110583
0.0111559
0.0112606
0.0113724
0.0114909
0.0116158
0.0117464
0.0118823
0.0120227
0.0121665
0.0123131
0.0124615
0.0126106
0.0127591
0.0129055
0.0130482
0.0131857
0.0133162
0.0134381
0.0135499
0.0136502
0.0137374
0.0138104
0.0138683
0.0139103
0.0139361
0.0139456
0.0139388
0.0139162
0.0138784
0.0138263
0.0137611
0.013684
0.0135966
0.0135004
0.0133972
0.0132887
0.0131767
0.0130627
0.0129484
0.0128352
0.0127243
0.0126168
0.0125141
0.0124173
0.0123261
0.0122413
0.0121634
0.0120925
0.0120287
0.011972
0.011922
0.0118776
0.0118387
0.011805
0.0117759
0.0117509
0.0117295
0.0117113
0.0116958
0.0116824
0.0116709
0.0116607
0.0116517
0.0116436
0.011636
0.0103819
0.0103896
0.0104019
0.0104198
0.0104435
0.0104732
0.0105091
0.0105512
0.0105999
0.0106553
0.0107176
0.0107871
0.0108637
0.0109477
0.0110391
0.0111379
0.0112441
0.0113575
0.0114778
0.0116047
0.0117376
0.011876
0.0120191
0.0121661
0.0123162
0.0124682
0.012621
0.0127732
0.0129234
0.0130698
0.013211
0.0133452
0.0134706
0.0135857
0.0136889
0.0137788
0.013854
0.0139137
0.013957
0.0139834
0.0139929
0.0139855
0.0139617
0.0139221
0.0138677
0.0137997
0.0137195
0.0136286
0.0135288
0.0134218
0.0133093
0.0131932
0.0130752
0.0129569
0.0128397
0.0127252
0.0126144
0.0125083
0.012408
0.0123138
0.0122264
0.012146
0.0120727
0.0120067
0.0119479
0.0118958
0.0118498
0.0118097
0.0117748
0.0117447
0.0117188
0.0116967
0.0116778
0.0116616
0.0116477
0.0116356
0.0116251
0.0116157
0.0116072
0.0115995
0.0103439
0.0103514
0.0103638
0.0103819
0.0104059
0.010436
0.0104724
0.0105152
0.0105646
0.0106209
0.0106842
0.0107547
0.0108327
0.0109182
0.0110112
0.011112
0.0112203
0.011336
0.011459
0.0115888
0.011725
0.0118671
0.0120142
0.0121656
0.0123203
0.0124773
0.0126353
0.0127928
0.0129485
0.0131005
0.0132471
0.0133866
0.0135172
0.0136372
0.0137447
0.0138385
0.013917
0.0139791
0.0140241
0.0140515
0.0140609
0.0140526
0.014027
0.0139848
0.0139271
0.0138551
0.0137704
0.0136745
0.0135694
0.0134568
0.0133386
0.0132167
0.0130929
0.0129688
0.0128461
0.012726
0.01261
0.012499
0.012394
0.0122956
0.0122043
0.0121203
0.0120438
0.0119748
0.0119132
0.0118585
0.0118104
0.0117683
0.0117318
0.0117002
0.0116731
0.0116498
0.0116299
0.0116129
0.0115983
0.0115856
0.0115745
0.0115647
0.011556
0.0115482
0.0102938
0.0103014
0.0103139
0.0103322
0.0103567
0.0103873
0.0104243
0.0104679
0.0105183
0.0105757
0.0106403
0.0107123
0.010792
0.0108794
0.0109747
0.0110778
0.0111889
0.0113077
0.0114341
0.0115678
0.0117082
0.0118549
0.0120072
0.0121641
0.0123249
0.0124882
0.0126529
0.0128174
0.0129801
0.0131394
0.0132933
0.0134399
0.0135773
0.0137036
0.0138171
0.0139159
0.0139987
0.0140642
0.0141114
0.0141399
0.0141492
0.0141397
0.0141117
0.014066
0.0140038
0.0139266
0.0138359
0.0137335
0.0136214
0.0135015
0.0133759
0.0132465
0.0131152
0.0129837
0.0128537
0.0127267
0.012604
0.0124867
0.0123758
0.0122718
0.0121753
0.0120866
0.0120059
0.011933
0.0118679
0.0118101
0.0117592
0.0117147
0.011676
0.0116425
0.0116137
0.0115891
0.0115679
0.0115498
0.0115343
0.0115209
0.0115092
0.0114991
0.0114901
0.0114823
0.0102321
0.0102396
0.0102523
0.010271
0.0102959
0.0103271
0.010365
0.0104095
0.0104611
0.0105198
0.010586
0.0106599
0.0107415
0.0108313
0.0109292
0.0110353
0.0111497
0.0112722
0.0114028
0.011541
0.0116866
0.011839
0.0119974
0.0121611
0.0123291
0.0125002
0.012673
0.0128461
0.0130176
0.0131858
0.0133487
0.0135042
0.0136501
0.0137845
0.0139053
0.0140106
0.0140988
0.0141684
0.0142185
0.0142482
0.0142575
0.0142462
0.0142151
0.0141651
0.0140973
0.0140134
0.0139152
0.0138047
0.0136839
0.013555
0.0134202
0.0132816
0.0131411
0.0130007
0.012862
0.0127266
0.0125959
0.0124709
0.0123527
0.012242
0.0121393
0.0120449
0.011959
0.0118814
0.0118121
0.0117505
0.0116962
0.0116487
0.0116074
0.0115717
0.011541
0.0115146
0.011492
0.0114727
0.0114561
0.0114418
0.0114295
0.0114189
0.0114098
0.011402
0.0101589
0.0101663
0.0101792
0.0101983
0.0102238
0.0102558
0.0102945
0.0103402
0.0103931
0.0104534
0.0105214
0.0105973
0.0106813
0.0107737
0.0108746
0.0109841
0.0111023
0.0112291
0.0113645
0.0115081
0.0116596
0.0118185
0.0119841
0.0121556
0.012332
0.0125122
0.0126946
0.0128778
0.0130598
0.0132387
0.0134123
0.0135785
0.0137348
0.0138789
0.0140087
0.0141219
0.0142166
0.0142914
0.0143448
0.0143762
0.0143852
0.0143719
0.0143369
0.0142814
0.0142067
0.0141146
0.0140073
0.0138868
0.0137556
0.013616
0.0134703
0.0133208
0.0131695
0.0130186
0.0128697
0.0127245
0.0125845
0.0124507
0.0123241
0.0122057
0.0120958
0.0119948
0.0119029
0.0118199
0.0117456
0.0116796
0.0116215
0.0115706
0.0115263
0.011488
0.0114549
0.0114266
0.0114023
0.0113816
0.0113639
0.0113487
0.0113357
0.0113247
0.0113153
0.0113075
0.0100745
0.0100819
0.010095
0.0101145
0.0101406
0.0101734
0.0102132
0.0102601
0.0103145
0.0103765
0.0104464
0.0105245
0.0106111
0.0107064
0.0108106
0.0109239
0.0110463
0.0111779
0.0113185
0.0114681
0.0116262
0.0117924
0.0119661
0.0121464
0.0123323
0.0125228
0.0127163
0.012911
0.0131052
0.0132965
0.0134828
0.0136615
0.0138301
0.0139859
0.0141264
0.0142491
0.0143518
0.0144327
0.0144902
0.0145235
0.0145321
0.0145162
0.0144765
0.0144143
0.0143312
0.0142294
0.014111
0.0139788
0.0138352
0.0136829
0.0135245
0.0133624
0.0131988
0.0130359
0.0128755
0.0127194
0.0125689
0.0124252
0.0122894
0.0121622
0.0120443
0.0119359
0.0118372
0.0117481
0.0116683
0.0115974
0.0115349
0.0114802
0.0114326
0.0113913
0.0113558
0.0113253
0.0112992
0.0112769
0.0112579
0.0112418
0.0112281
0.0112166
0.011207
0.0111993
0.00997922
0.00998661
0.00999998
0.0100199
0.0100467
0.0100804
0.0101212
0.0101694
0.0102253
0.010289
0.0103611
0.0104416
0.0105309
0.0106293
0.010737
0.0108543
0.0109812
0.0111179
0.0112642
0.0114202
0.0115855
0.0117596
0.0119421
0.0121322
0.0123289
0.0125306
0.0127363
0.0129441
0.013152
0.0133576
0.0135585
0.0137519
0.0139349
0.0141045
0.0142577
0.0143918
0.014504
0.0145922
0.0146547
0.0146902
0.0146983
0.0146793
0.0146339
0.0145635
0.0144703
0.0143567
0.0142253
0.0140791
0.013921
0.0137541
0.013581
0.0134046
0.0132271
0.0130508
0.0128777
0.0127095
0.0125476
0.0123931
0.0122473
0.0121107
0.0119841
0.0118676
0.0117616
0.0116658
0.01158
0.0115038
0.0114365
0.0113776
0.0113264
0.011282
0.0112437
0.0112109
0.0111829
0.011159
0.0111387
0.0111215
0.0111071
0.0110951
0.0110854
0.0110777
0.00987346
0.00988082
0.00989444
0.00991486
0.00994226
0.00997681
0.0100187
0.0100682
0.0101257
0.0101913
0.0102654
0.0103483
0.0104405
0.010542
0.0106534
0.0107748
0.0109063
0.0110483
0.0112006
0.0113633
0.0115361
0.0117186
0.0119105
0.0121109
0.0123189
0.0125331
0.0127523
0.0129747
0.013198
0.0134198
0.0136375
0.0138478
0.0140476
0.0142334
0.0144018
0.0145494
0.0146731
0.0147703
0.0148387
0.014877
0.0148845
0.0148616
0.0148092
0.0147291
0.0146237
0.014496
0.0143491
0.0141865
0.0140116
0.0138277
0.0136379
0.0134452
0.0132523
0.0130613
0.0128743
0.012693
0.0125188
0.012353
0.0121965
0.01205
0.0119141
0.0117893
0.0116754
0.0115726
0.0114804
0.0113985
0.0113263
0.0112629
0.0112078
0.0111601
0.011119
0.0110838
0.0110537
0.0110282
0.0110065
0.0109883
0.0109732
0.0109608
0.0109508
0.0109432
0.0097576
0.00976492
0.00977879
0.00979966
0.0098277
0.00986309
0.00990607
0.00995688
0.0100158
0.0100832
0.0101594
0.0102448
0.0103396
0.0104443
0.0105593
0.0106847
0.010821
0.0109682
0.0111265
0.011296
0.0114765
0.0116677
0.0118693
0.0120805
0.0123005
0.0125281
0.012762
0.0130002
0.0132407
0.0134808
0.0137174
0.0139473
0.0141668
0.0143718
0.0145582
0.0147222
0.0148598
0.0149678
0.0150435
0.0150852
0.0150921
0.0150644
0.0150035
0.0149116
0.0147916
0.014647
0.0144818
0.0142999
0.0141053
0.0139018
0.0136931
0.0134822
0.0132719
0.0130648
0.0128628
0.0126677
0.0124807
0.0123029
0.0121354
0.0119787
0.0118334
0.0116998
0.011578
0.0114679
0.0113692
0.0112814
0.011204
0.0111361
0.011077
0.0110259
0.0109819
0.0109442
0.0109121
0.0108848
0.0108619
0.0108427
0.0108268
0.010814
0.0108039
0.0107964
0.00963207
0.00963934
0.00965344
0.00967473
0.00970336
0.00973955
0.00978351
0.00983552
0.0098959
0.00996497
0.0100431
0.0101307
0.0102282
0.0103359
0.0104542
0.0105836
0.0107243
0.0108766
0.0110408
0.0112169
0.011405
0.0116049
0.0118163
0.0120386
0.0122711
0.0125126
0.0127622
0.0130177
0.0132771
0.0135376
0.013796
0.0140485
0.0142909
0.0145187
0.0147269
0.0149107
0.0150653
0.0151867
0.0152715
0.0153174
0.0153234
0.01529
0.0152186
0.0151123
0.0149745
0.0148097
0.0146227
0.0144181
0.0142006
0.0139747
0.0137443
0.013513
0.0132837
0.013059
0.0128409
0.0126312
0.0124308
0.0122409
0.0120622
0.0118952
0.0117405
0.0115982
0.0114685
0.0113511
0.0112459
0.0111522
0.0110696
0.0109971
0.0109341
0.0108795
0.0108326
0.0107925
0.0107583
0.0107294
0.0107052
0.010685
0.0106685
0.0106553
0.0106451
0.0106378
0.00949733
0.00950453
0.00951882
0.00954047
0.00956964
0.00960652
0.00965135
0.00970443
0.00976607
0.00983663
0.0099165
0.0100061
0.0101059
0.0102162
0.0103376
0.0104705
0.0106153
0.0107724
0.010942
0.0111244
0.0113197
0.0115279
0.0117489
0.0119824
0.0122276
0.0124839
0.0127496
0.0130237
0.0133039
0.0135872
0.0138703
0.0141491
0.0144186
0.0146736
0.0149082
0.0151162
0.015292
0.01543
0.0155261
0.0155773
0.0155824
0.0155417
0.0154574
0.0153331
0.0151737
0.0149845
0.0147713
0.0145399
0.0142958
0.0140441
0.0137893
0.0135351
0.0132848
0.0130411
0.012806
0.0125809
0.0123668
0.0121646
0.0119748
0.0117979
0.011634
0.0114833
0.0113459
0.0112215
0.0111099
0.0110106
0.0109228
0.0108459
0.010779
0.0107212
0.0106714
0.010629
0.0105929
0.0105625
0.010537
0.010516
0.0104989
0.0104853
0.0104751
0.0104679
0.00935384
0.00936096
0.0093754
0.00939734
0.00942693
0.00946437
0.00950992
0.00956385
0.00962652
0.00969829
0.00977958
0.00987082
0.00997249
0.0100851
0.010209
0.0103449
0.0104931
0.0106542
0.0108286
0.0110165
0.0112184
0.0114344
0.0116645
0.0119087
0.0121665
0.0124374
0.0127201
0.0130143
0.0133173
0.0136262
0.0139376
0.0142468
0.0145486
0.0148363
0.0151031
0.0153412
0.0155433
0.0157023
0.0158127
0.0158706
0.0158742
0.0158243
0.0157236
0.015577
0.0153906
0.0151715
0.0149269
0.0146638
0.0143888
0.0141075
0.0138251
0.0135456
0.0132724
0.0130083
0.0127552
0.0125142
0.0122863
0.0120719
0.0118714
0.0116848
0.0115123
0.0113538
0.0112092
0.0110783
0.0109608
0.0108561
0.0107637
0.0106826
0.010612
0.0105511
0.0104987
0.0104541
0.0104163
0.0103844
0.0103579
0.0103361
0.0103185
0.0103047
0.0102944
0.0102875
0.0092021
0.00920912
0.00922365
0.00924578
0.00927566
0.0093135
0.00935954
0.00941409
0.00947748
0.0095501
0.00963238
0.00972478
0.00982779
0.00994194
0.0100678
0.0102058
0.0103566
0.0105208
0.0106989
0.0108914
0.0110989
0.0113216
0.01156
0.0118142
0.0120843
0.0123698
0.0126693
0.0129854
0.0133131
0.0136506
0.0139942
0.0143391
0.0146792
0.0150068
0.0153132
0.0155888
0.0158241
0.0160098
0.0161384
0.0162046
0.0162063
0.0161442
0.0160224
0.0158472
0.015627
0.0153709
0.0150881
0.0147873
0.0144762
0.0141612
0.0138479
0.0135406
0.0132428
0.012957
0.0126853
0.0124282
0.0121865
0.0119603
0.0117495
0.0115541
0.0113738
0.0112083
0.0110574
0.0109207
0.0107979
0.0106885
0.0105918
0.010507
0.0104332
0.0103695
0.0103148
0.0102683
0.0102289
0.0101959
0.0101684
0.010146
0.010128
0.010114
0.0101038
0.0100971
0.00904262
0.00904951
0.00906407
0.00908628
0.00911629
0.00915431
0.00920059
0.00925542
0.00931915
0.00939218
0.00947493
0.00956788
0.00967154
0.00978647
0.00991324
0.0100525
0.0102048
0.0103709
0.0105514
0.0107471
0.0109587
0.0111868
0.0114322
0.0116955
0.0119771
0.0122776
0.0125977
0.0129329
0.0132867
0.0136558
0.0140363
0.0144229
0.0148087
0.0151848
0.0155403
0.0158632
0.0161407
0.0163607
0.0165127
0.0165897
0.0165885
0.0165104
0.0163609
0.0161487
0.0158853
0.0155827
0.015253
0.0149069
0.0145535
0.0142003
0.0138528
0.0135155
0.0131914
0.0128829
0.0125927
0.0123198
0.0120646
0.0118272
0.0116072
0.0114039
0.0112169
0.0110455
0.0108893
0.0107478
0.0106207
0.0105074
0.0104071
0.0103192
0.0102427
0.0101766
0.0101201
0.0100719
0.0100313
0.0099973
0.00996919
0.00994628
0.00992803
0.00991402
0.00990393
0.00989755
0.00887592
0.00888267
0.00889715
0.00891931
0.00894927
0.00898722
0.00903342
0.00908817
0.00915179
0.00922469
0.00930728
0.00940006
0.00950354
0.00961828
0.00974492
0.00988411
0.0100366
0.0102031
0.0103845
0.0105816
0.0107955
0.0110273
0.0112779
0.0115485
0.0118403
0.0121543
0.012491
0.0128494
0.013232
0.0136362
0.0140587
0.014494
0.0149345
0.0153698
0.0157865
0.0161693
0.0165012
0.0167657
0.0169485
0.0170395
0.0170344
0.016935
0.0167489
0.0164885
0.0161691
0.0158074
0.0154191
0.015018
0.0146149
0.0142181
0.0138331
0.0134638
0.013113
0.0127839
0.0124738
0.0121852
0.0119176
0.0116702
0.0114421
0.0112324
0.01104
0.010864
0.0107039
0.0105589
0.0104286
0.0103123
0.0102095
0.0101192
0.0100406
0.00997281
0.00991477
0.00986548
0.00982397
0.00978934
0.0097608
0.00973765
0.00971932
0.00970537
0.00969548
0.00968941
0.00870253
0.0087091
0.00872343
0.00874537
0.00877506
0.00881267
0.00885845
0.00891268
0.00897568
0.00904783
0.00912954
0.0092213
0.00932361
0.00943706
0.00956229
0.0097
0.00985099
0.0100161
0.0101964
0.010393
0.0106071
0.0108402
0.0110938
0.0113697
0.0116698
0.0119959
0.0123496
0.0127323
0.0131424
0.0135852
0.0140549
0.0145466
0.0150522
0.0155597
0.0160531
0.0165123
0.016915
0.0172384
0.0174623
0.0175723
0.0175623
0.0174349
0.0172007
0.0168768
0.0164848
0.016047
0.0155847
0.0151157
0.0146535
0.0142068
0.0137808
0.013378
0.0129987
0.0126489
0.0123223
0.0120201
0.0117418
0.0114862
0.0112519
0.0110375
0.0108415
0.0106628
0.0105003
0.0103533
0.0102212
0.0101032
0.00999868
0.00990697
0.00982715
0.0097583
0.00969941
0.00964946
0.00960749
0.00957258
0.0095439
0.00952074
0.00950252
0.00948877
0.00947916
0.00947343
0.00852298
0.00852933
0.0085434
0.00856497
0.00859414
0.00863111
0.00867607
0.0087293
0.0087911
0.00886181
0.00894184
0.00903163
0.00913168
0.00924257
0.00936495
0.00949956
0.00964724
0.009809
0.00998597
0.0101795
0.0103912
0.0106229
0.0108768
0.0111553
0.0114611
0.0117971
0.012166
0.01257
0.0130074
0.0134943