/*--------------------------------*- C++ -*----------------------------------*\
| =========                 |                                                 |
| \\      /  F ield         | OpenFOAM: The Open Source CFD Toolbox           |
|  \\    /   O peration     | Version:  2412                                  |
|   \\  /    A nd           | Website:  www.openfoam.com                      |
|    \\/     M anipulation  |                                                 |
\*---------------------------------------------------------------------------*/
FoamFile
{
    version     2.0;
    format      ascii;
    arch        "LSB;label=32;scalar=64";
    class       surfaceScalarField;
    location    "4.2";
    object      alphaPhi0.lava;
}
// * * * * * * * * * * * * * * * * * * * * * * * * * * * * * * * * * * * * * //

dimensions      [0 3 -1 0 0 0 0];

oriented        oriented;

internalField   nonuniform List<scalar> 
12640
(
2.98306e-08
-2.27261e-08
4.1643e-08
-8.32975e-08
1.43446e-08
-1.00514e-07
-4.61927e-08
-3.31861e-08
-1.0052e-07
1.00844e-07
-9.71657e-08
2.18616e-07
-1.88711e-08
2.25248e-07
9.67774e-08
8.34463e-08
1.75546e-07
-1.4648e-07
1.54963e-07
-3.30906e-07
3.09113e-08
-3.432e-07
-1.31377e-07
-1.5019e-07
-2.33133e-07
1.5439e-07
-2.03965e-07
3.97037e-07
-5.01188e-08
4.27348e-07
1.43907e-07
2.13391e-07
2.63867e-07
-1.31863e-07
2.35306e-07
-4.12957e-07
7.06358e-08
-4.66769e-07
-1.36494e-07
-2.60181e-07
-2.66531e-07
8.95089e-08
-2.45241e-07
3.8375e-07
-8.71624e-08
4.59146e-07
1.14623e-07
2.80753e-07
2.44953e-07
-4.21908e-08
2.3406e-07
-3.24585e-07
9.55818e-08
-4.14172e-07
-8.58585e-08
-2.75167e-07
-2.0729e-07
-2.93836e-10
-2.06928e-07
2.50736e-07
-9.55271e-08
3.45344e-07
5.60416e-08
2.48449e-07
1.62019e-07
3.17859e-08
1.70662e-07
-1.76759e-07
8.8757e-08
-2.68795e-07
-2.92296e-08
-2.11037e-07
-1.16819e-07
-5.29849e-08
-1.32792e-07
1.10785e-07
-7.92649e-08
1.96546e-07
6.26995e-09
1.72682e-07
7.62255e-08
6.70744e-08
9.88144e-08
-5.69169e-08
7.08121e-08
-1.37418e-07
1.34387e-08
-1.42835e-07
-4.2569e-08
-8.05832e-08
-7.26146e-08
1.32316e-08
-6.71784e-08
9.37202e-08
-3.23668e-08
1.26289e-07
1.51378e-08
9.86188e-08
5.50304e-08
2.38584e-08
7.01804e-08
-6.44901e-08
5.2642e-08
-1.24984e-07
7.89539e-09
-1.25531e-07
-4.50421e-08
-5.99843e-08
-7.99572e-08
4.43761e-08
-7.56637e-08
1.35499e-07
-2.89165e-08
1.61078e-07
3.997e-08
9.83698e-08
9.45326e-08
-2.772e-08
1.01134e-07
-1.51995e-07
4.9804e-08
-2.02009e-07
-3.61418e-08
-1.40463e-07
-1.09774e-07
8.11217e-09
-1.26319e-07
1.65219e-07
-7.07143e-08
2.40106e-07
3.02727e-08
1.82966e-07
1.20689e-07
1.784e-08
1.47075e-07
-1.66743e-07
9.08166e-08
-2.6646e-07
-1.90284e-08
-2.21586e-07
-1.214e-07
-5.29677e-08
-1.58836e-07
1.48654e-07
-1.1129e-07
2.74008e-07
-6.73255e-09
2.56294e-07
9.85194e-08
1.06093e-07
1.57388e-07
-9.87536e-08
1.57729e-07
-2.58486e-07
1.18481e-07
-3.0514e-07
6.19871e-08
-2.34218e-07
-7.4626e-08
3.67173e-09
2.29117e-08
6.51801e-08
-5.26769e-08
1.01146e-07
-1.32589e-07
6.2227e-08
-1.33561e-07
-5.07387e-08
-2.12972e-08
-1.63247e-07
1.53315e-07
-1.85597e-07
2.77237e-07
-7.99856e-08
2.47203e-07
1.03646e-07
4.77169e-08
2.51532e-07
-2.21811e-07
2.58534e-07
-3.98017e-07
1.01804e-07
-3.55621e-07
-1.35663e-07
-9.48747e-08
-3.11108e-07
2.46122e-07
-3.10714e-07
4.67976e-07
-1.24225e-07
4.30862e-07
1.4379e-07
1.44113e-07
3.35241e-07
-2.33417e-07
3.34831e-07
-4.85134e-07
1.41063e-07
-4.65262e-07
-1.32525e-07
-1.85616e-07
-3.26349e-07
1.92158e-07
-3.306e-07
4.53208e-07
-1.48874e-07
4.55282e-07
1.07912e-07
2.08109e-07
2.90891e-07
-1.38848e-07
3.01562e-07
-3.88638e-07
1.45514e-07
-4.11076e-07
-7.79608e-08
-2.11254e-07
-2.39712e-07
8.38121e-08
-2.565e-07
3.06284e-07
-1.33577e-07
3.44076e-07
4.73326e-08
1.96744e-07
1.81994e-07
-3.66525e-08
2.04002e-07
-2.22982e-07
1.16372e-07
-2.70953e-07
-1.96717e-08
-1.74133e-07
-1.26325e-07
-2.18697e-09
-1.5335e-07
1.47007e-07
-9.9864e-08
2.02232e-07
-5.84788e-09
1.50449e-07
7.61047e-08
3.29388e-08
1.09459e-07
-8.46781e-08
8.76439e-08
-1.47802e-07
2.99094e-08
-1.35278e-07
-3.34921e-08
-6.19803e-08
-7.61419e-08
3.38634e-08
-8.37441e-08
1.09103e-07
-5.57241e-08
1.31994e-07
-3.45081e-09
9.28103e-08
5.27466e-08
7.56642e-09
8.86022e-08
-8.63214e-08
8.4552e-08
-1.4344e-07
3.64498e-08
-1.3061e-07
-3.75987e-08
-4.61723e-08
-1.01269e-07
7.3037e-08
-1.16828e-07
1.65091e-07
-6.76438e-08
1.7419e-07
2.72055e-08
8.45148e-08
1.1804e-07
-6.40326e-08
1.50266e-07
-1.91612e-07
9.75717e-08
-2.21211e-07
-1.78729e-08
-1.25515e-07
-1.33322e-07
5.10814e-08
-1.79943e-07
2.12128e-07
-1.24713e-07
2.62608e-07
6.43676e-09
1.65998e-07
1.4053e-07
-3.01512e-08
1.99458e-07
-2.17984e-07
1.47001e-07
-2.90468e-07
1.14513e-08
-2.04e-07
-1.31266e-07
-4.59962e-09
-2.03449e-07
1.98494e-07
-1.70684e-07
2.95725e-07
-5.5398e-08
2.38794e-07
8.66596e-08
6.46346e-08
2.03492e-07
-1.30797e-07
2.50526e-07
-2.52237e-07
2.14903e-07
-2.55521e-07
-1.28311e-07
-7.99183e-08
6.25869e-08
-2.28728e-09
3.19461e-08
1.14507e-07
-7.8932e-08
1.79069e-07
-1.80314e-07
1.13533e-07
-1.81569e-07
-5.99578e-08
-4.83401e-08
-2.33834e-07
1.57978e-07
-2.8251e-07
3.07908e-07
-1.50073e-07
2.86527e-07
1.01333e-07
7.78338e-08
3.21161e-07
-2.10456e-07
3.63847e-07
-4.04985e-07
1.86025e-07
-3.74564e-07
-1.17913e-07
-1.18661e-07
-3.68505e-07
2.2316e-07
-4.11033e-07
4.50927e-07
-2.13147e-07
4.25376e-07
1.1227e-07
1.54981e-07
3.74386e-07
-2.06346e-07
4.19956e-07
-4.50331e-07
2.25212e-07
-4.38216e-07
-9.21184e-08
-1.81743e-07
-3.4625e-07
1.67011e-07
-3.95043e-07
4.08446e-07
-2.21189e-07
4.12659e-07
6.43102e-08
1.90627e-07
2.94045e-07
-1.20254e-07
3.44278e-07
-3.42471e-07
2.02222e-07
-3.61574e-07
-3.61957e-08
-1.85173e-07
-2.30789e-07
7.23953e-08
-2.80363e-07
2.64091e-07
-1.74888e-07
2.94723e-07
9.89326e-09
1.67103e-07
1.65204e-07
-3.16923e-08
2.13236e-07
-1.88401e-07
1.44677e-07
-2.27781e-07
1.28457e-08
-1.46628e-07
-1.0516e-07
-3.93644e-09
-1.52947e-07
1.19926e-07
-1.19581e-07
1.67526e-07
-3.54737e-08
1.28254e-07
5.16244e-08
3.40556e-08
1.02867e-07
-6.40411e-08
1.02865e-07
-1.22269e-07
5.94416e-08
-1.20551e-07
-5.43141e-09
-6.54318e-08
-6.56391e-08
1.66823e-08
-9.81575e-08
9.05034e-08
-8.86161e-08
1.23827e-07
-3.69699e-08
9.92271e-08
3.84834e-08
2.31669e-08
1.03882e-07
-7.23225e-08
1.22958e-07
-1.40101e-07
7.71052e-08
-1.3981e-07
-1.88088e-08
-6.19757e-08
-1.17466e-07
6.02523e-08
-1.61331e-07
1.62693e-07
-1.16448e-07
1.83238e-07
2.32039e-09
9.97405e-08
1.33004e-07
-5.07415e-08
1.98638e-07
-1.86717e-07
1.5331e-07
-2.26629e-07
1.40415e-08
-1.38476e-07
-1.43719e-07
3.60931e-08
-2.27723e-07
2.00945e-07
-1.84274e-07
2.5957e-07
-3.30569e-08
1.72982e-07
1.41736e-07
-1.4429e-08
2.40234e-07
-1.98403e-07
2.06012e-07
-2.75009e-07
5.87137e-08
-2.01416e-07
-1.19792e-07
-2.02887e-08
-2.3428e-07
1.66943e-07
-2.2709e-07
2.60678e-07
-9.94884e-08
2.198e-07
9.28564e-08
7.7896e-08
2.4524e-07
-8.5742e-08
2.73942e-07
-1.89516e-07
-1.49425e-07
-1.56417e-07
6.31219e-08
-1.21739e-07
1.20832e-07
1.87823e-08
5.61575e-08
1.87935e-07
-9.96243e-08
2.55079e-07
-2.46733e-07
1.48206e-07
-2.63554e-07
-8.97458e-08
-1.02276e-07
-3.14331e-07
1.6354e-07
-3.68236e-07
3.7343e-07
-1.9054e-07
3.80368e-07
1.30579e-07
1.52746e-07
4.03411e-07
-1.92439e-07
4.51413e-07
-4.52679e-07
2.29032e-07
-4.63312e-07
-1.42155e-07
-2.03579e-07
-4.43311e-07
1.83782e-07
-4.91893e-07
4.74624e-07
-2.5494e-07
4.9771e-07
1.29474e-07
2.38303e-07
4.35992e-07
-1.52953e-07
4.88143e-07
-4.5072e-07
2.62448e-07
-4.88658e-07
-1.02169e-07
-2.54694e-07
-3.92185e-07
1.07816e-07
-4.47603e-07
3.8992e-07
-2.51806e-07
4.40253e-07
6.8078e-08
2.47494e-07
3.24419e-07
-6.34294e-08
3.80983e-07
-3.12576e-07
2.25593e-07
-3.70572e-07
-3.50392e-08
-2.25638e-07
-2.47742e-07
2.22508e-08
-3.03492e-07
2.29008e-07
-1.92325e-07
2.90382e-07
4.36282e-09
1.93199e-07
1.71101e-07
9.70844e-09
2.25833e-07
-1.53424e-07
1.5823e-07
-2.16472e-07
2.25706e-08
-1.63342e-07
-1.02476e-07
-3.84515e-08
-1.58621e-07
8.66699e-08
-1.32244e-07
1.53248e-07
-5.04001e-08
1.3998e-07
4.16285e-08
6.44742e-08
1.0428e-07
-3.25238e-08
1.1719e-07
-1.07822e-07
8.07095e-08
-1.31727e-07
1.11572e-08
-9.61249e-08
-6.48316e-08
-1.58712e-08
-1.16386e-07
7.54493e-08
-1.17642e-07
1.36094e-07
-6.03515e-08
1.32892e-07
3.61124e-08
5.9253e-08
1.26781e-07
-5.5337e-08
1.60049e-07
-1.53718e-07
1.07122e-07
-1.78166e-07
-1.50106e-08
-1.04327e-07
-1.4466e-07
3.81899e-08
-2.05651e-07
1.74792e-07
-1.52539e-07
2.24472e-07
-3.57265e-09
1.48318e-07
1.62235e-07
-2.1553e-08
2.47135e-07
-1.93668e-07
1.9336e-07
-2.66993e-07
2.24764e-08
-1.91398e-07
-1.71733e-07
-1.75401e-09
-2.75982e-07
1.97719e-07
-2.25459e-07
2.92335e-07
-4.482e-08
2.24878e-07
1.64318e-07
3.0923e-08
2.82881e-07
-1.80869e-07
2.44109e-07
-2.92358e-07
7.12404e-08
-2.44555e-07
-1.38201e-07
-6.96322e-08
-2.67414e-07
1.32309e-07
-2.42205e-07
2.53953e-07
-7.17208e-08
2.3875e-07
1.28246e-07
1.03235e-07
2.24331e-07
-6.58392e-08
-1.30296e-07
-1.49297e-07
4.42889e-09
-2.04681e-07
1.36345e-07
-1.38859e-07
1.90214e-07
4.77973e-08
9.2337e-08
2.49743e-07
-1.23335e-07
3.19744e-07
-3.16918e-07
1.79758e-07
-3.40542e-07
-1.09282e-07
-1.42994e-07
-3.72046e-07
1.81527e-07
-4.2913e-07
4.39726e-07
-2.20189e-07
4.58381e-07
1.45526e-07
2.00868e-07
4.49428e-07
-1.97764e-07
4.99008e-07
-5.05196e-07
2.51918e-07
-5.32391e-07
-1.52225e-07
-2.52553e-07
-4.74534e-07
1.77639e-07
-5.22736e-07
5.09643e-07
-2.68641e-07
5.51548e-07
1.3588e-07
2.82093e-07
4.5292e-07
-1.39022e-07
5.02377e-07
-4.68875e-07
2.66532e-07
-5.25367e-07
-1.0642e-07
-2.90024e-07
-3.97478e-07
8.95121e-08
-4.48174e-07
3.93652e-07
-2.47989e-07
4.60411e-07
7.0951e-08
2.72641e-07
3.21322e-07
-4.45302e-08
3.72089e-07
-3.06618e-07
2.16751e-07
-3.78204e-07
-3.66664e-08
-2.42347e-07
-2.39466e-07
3.95041e-09
-2.89782e-07
2.16814e-07
-1.82149e-07
2.89411e-07
3.77415e-09
2.03805e-07
1.59604e-07
2.68822e-08
2.10864e-07
-1.38256e-07
1.49886e-07
-2.1148e-07
2.66115e-08
-1.71807e-07
-8.8805e-08
-5.63288e-08
-1.44907e-07
6.92428e-08
-1.28353e-07
1.46717e-07
-5.9502e-08
1.49084e-07
2.55867e-08
8.47189e-08
9.27042e-08
-1.30241e-08
1.19009e-07
-1.01628e-07
9.58667e-08
-1.442e-07
3.00225e-08
-1.21293e-07
-5.54022e-08
-3.90914e-08
-1.24152e-07
6.90581e-08
-1.39194e-07
1.52259e-07
-8.2565e-08
1.63733e-07
2.79413e-08
8.70292e-08
1.39239e-07
-4.79964e-08
1.86743e-07
-1.73039e-07
1.3212e-07
-2.14636e-07
-7.36161e-09
-1.3752e-07
-1.59753e-07
2.78477e-08
-2.34956e-07
1.94272e-07
-1.7876e-07
2.63589e-07
-1.13579e-08
1.85357e-07
1.76908e-07
-7.30815e-09
2.74862e-07
-2.10005e-07
2.17638e-07
-3.04558e-07
3.00641e-08
-2.29533e-07
-1.83201e-07
-2.05647e-08
-2.97708e-07
2.06477e-07
-2.44045e-07
3.21798e-07
-5.08829e-08
2.58433e-07
1.70936e-07
5.23391e-08
2.94083e-07
-1.78942e-07
2.49731e-07
-3.06213e-07
6.73487e-08
-2.63768e-07
-1.43288e-07
-8.45317e-08
-2.55754e-07
1.23916e-07
-2.05257e-07
2.42658e-07
-4.91368e-08
2.08546e-07
8.39854e-08
6.06969e-08
-6.80135e-08
-2.99985e-08
-8.31839e-08
-1.6545e-07
4.67537e-08
-2.44608e-07
2.16458e-07
-1.68277e-07
2.67342e-07
6.30883e-08
1.26424e-07
3.0718e-07
-1.43087e-07
3.86933e-07
-3.76285e-07
2.18448e-07
-4.07153e-07
-1.18511e-07
-1.82825e-07
-4.20251e-07
1.86014e-07
-4.8737e-07
4.81622e-07
-2.57917e-07
5.12659e-07
1.4393e-07
2.39768e-07
4.78877e-07
-1.90136e-07
5.40058e-07
-5.26952e-07
2.83526e-07
-5.68278e-07
-1.41887e-07
-2.84248e-07
-4.84729e-07
1.62201e-07
-5.44237e-07
5.12598e-07
-2.90707e-07
5.67399e-07
1.20444e-07
3.02572e-07
4.46824e-07
-1.21027e-07
5.05593e-07
-4.58045e-07
2.77858e-07
-5.24291e-07
-8.95584e-08
-2.99305e-07
-3.80088e-07
7.21417e-08
-4.37364e-07
3.74069e-07
-2.50017e-07
4.46922e-07
5.49325e-08
2.7234e-07
2.97664e-07
-3.01606e-08
3.52587e-07
-2.83813e-07
2.12457e-07
-3.58574e-07
-2.23387e-08
-2.36727e-07
-2.13687e-07
-7.98689e-09
-2.66884e-07
1.93715e-07
-1.75391e-07
2.68203e-07
-9.66599e-09
1.96596e-07
1.33927e-07
3.7491e-08
1.88366e-07
-1.16746e-07
1.44091e-07
-1.92532e-07
4.07652e-08
-1.67085e-07
-6.38372e-08
-6.83904e-08
-1.24995e-07
4.85463e-08
-1.26141e-07
1.31032e-07
-7.63713e-08
1.48766e-07
5.04399e-10
1.00063e-07
7.57237e-08
7.85764e-09
1.21496e-07
-8.9337e-08
1.16816e-07
-1.49445e-07
5.6404e-08
-1.41762e-07
-4.05866e-08
-6.22651e-08
-1.31081e-07
5.81983e-08
-1.64522e-07
1.61632e-07
-1.11157e-07
1.88771e-07
1.37865e-08
1.1305e-07
1.48773e-07
-3.69595e-08
2.1489e-07
-1.84402e-07
1.6244e-07
-2.4255e-07
7.31024e-09
-1.66241e-07
-1.69198e-07
1.45853e-08
-2.62777e-07
2.0371e-07
-2.08865e-07
2.90004e-07
-2.71541e-08
2.13907e-07
1.8294e-07
8.32711e-09
2.9766e-07
-2.14198e-07
2.43688e-07
-3.2449e-07
4.59333e-08
-2.53803e-07
-1.83507e-07
-3.76853e-08
-3.10753e-07
2.02151e-07
-2.60748e-07
3.28746e-07
-6.30157e-08
2.71147e-07
1.65838e-07
6.59743e-08
2.92608e-07
-1.6596e-07
2.47603e-07
-2.93291e-07
6.60006e-08
-2.51961e-07
-1.35909e-07
-8.05633e-08
-2.36414e-07
1.06901e-07
-1.96281e-07
1.9362e-07
-8.02366e-08
1.43217e-07
1.66709e-08
1.48643e-07
-1.37859e-07
4.20347e-09
-1.02553e-07
-2.03223e-07
9.06747e-08
-3.16758e-07
2.85676e-07
-2.07856e-07
3.32219e-07
7.94225e-08
1.61374e-07
3.6551e-07
-1.53248e-07
4.51125e-07
-4.25108e-07
2.53403e-07
-4.68797e-07
-1.27865e-07
-2.27252e-07
-4.63584e-07
1.77062e-07
-5.38166e-07
5.07361e-07
-2.90062e-07
5.56861e-07
1.4255e-07
2.81042e-07
5.02825e-07
-1.68005e-07
5.72931e-07
-5.29546e-07
3.08853e-07
-5.90993e-07
-1.32567e-07
-3.16396e-07
-4.90444e-07
1.32702e-07
-5.58592e-07
4.95732e-07
-3.07027e-07
5.68784e-07
1.06499e-07
3.21892e-07
4.37796e-07
-9.06821e-08
5.03706e-07
-4.28797e-07
2.84941e-07
-5.09255e-07
-7.41129e-08
-3.06513e-07
-3.61287e-07
4.46848e-08
-4.23838e-07
3.38807e-07
-2.49811e-07
4.21324e-07
3.9754e-08
2.69838e-07
2.73715e-07
-7.89592e-09
3.32542e-07
-2.48502e-07
2.07988e-07
-3.29283e-07
-7.9086e-09
-2.29293e-07
-1.88122e-07
-2.59636e-08
-2.44958e-07
1.61115e-07
-1.70117e-07
2.39802e-07
-2.42066e-08
1.88217e-07
1.08475e-07
5.27963e-08
1.67672e-07
-8.80921e-08
1.40914e-07
-1.68318e-07
5.69227e-08
-1.61676e-07
-3.87203e-08
-8.41513e-08
-1.07036e-07
2.23366e-08
-1.27006e-07
1.1124e-07
-9.57561e-08
1.47809e-07
-2.51188e-08
1.1823e-07
6.04712e-08
3.32599e-08
1.26971e-07
-7.32234e-08
1.4031e-07
-1.53366e-07
8.35131e-08
-1.63887e-07
-2.70917e-08
-8.92129e-08
-1.40383e-07
4.31462e-08
-1.91747e-07
1.68221e-07
-1.40113e-07
2.13722e-07
7.23436e-10
1.41958e-07
1.59794e-07
-2.10109e-08
2.437e-07
-1.90814e-07
1.9216e-07
-2.67835e-07
2.07963e-08
-1.96358e-07
-1.79138e-07
-4.11178e-09
-2.89557e-07
2.05754e-07
-2.36759e-07
3.10595e-07
-4.10776e-08
2.41544e-07
1.88826e-07
2.92304e-08
3.17659e-07
-2.08814e-07
2.65359e-07
-3.34988e-07
5.82617e-08
-2.73729e-07
-1.83985e-07
-5.83937e-08
-3.19427e-07
1.87243e-07
-2.69756e-07
3.22644e-07
-6.77098e-08
2.74469e-07
1.63543e-07
7.87721e-08
2.868e-07
-1.44114e-07
2.34894e-07
-2.65832e-07
4.97836e-08
-2.2851e-07
-1.47986e-07
-7.59814e-08
-2.3717e-07
8.19983e-08
-1.88678e-07
1.48287e-07
8.44574e-08
2.75365e-07
-1.09437e-07
2.13642e-07
-2.1117e-07
-1.3984e-08
-1.2237e-07
-2.80243e-07
1.06252e-07
-3.869e-07
3.35462e-07
-2.37796e-07
3.92307e-07
9.74821e-08
1.9986e-07
4.1508e-07
-1.54864e-07
5.02255e-07
-4.6232e-07
2.8012e-07
-5.20179e-07
-1.34282e-07
-2.68205e-07
-4.93123e-07
1.62156e-07
-5.71403e-07
5.20169e-07
-3.10806e-07
5.87692e-07
1.39515e-07
3.15522e-07
5.12466e-07
-1.42593e-07
5.86553e-07
-5.20769e-07
3.20627e-07
-6.00511e-07
-1.237e-07
-3.40466e-07
-4.8357e-07
1.02373e-07
-5.54622e-07
4.70336e-07
-3.09444e-07
5.59084e-07
9.48755e-08
3.33497e-07
4.19148e-07
-6.12352e-08
4.86391e-07
-3.94185e-07
2.79477e-07
-4.86286e-07
-6.20945e-08
-3.07596e-07
-3.3613e-07
1.89069e-08
-3.98773e-07
3.0094e-07
-2.39561e-07
3.91122e-07
2.82353e-08
2.63458e-07
2.46276e-07
1.28278e-08
3.04928e-07
-2.12431e-07
1.96463e-07
-2.98115e-07
3.38446e-09
-2.20163e-07
-1.61099e-07
-4.30752e-08
-2.18791e-07
1.28676e-07
-1.60575e-07
2.11336e-07
-3.64931e-08
1.79858e-07
8.27957e-08
6.81223e-08
1.4515e-07
-5.97097e-08
1.35651e-07
-1.44811e-07
7.17093e-08
-1.57185e-07
-1.39805e-08
-1.00571e-07
-8.8679e-08
-3.88296e-09
-1.27048e-07
9.21059e-08
-1.14178e-07
1.47809e-07
-4.991e-08
1.37163e-07
4.55674e-08
5.89635e-08
1.31979e-07
-5.71834e-08
1.62517e-07
-1.57441e-07
1.09104e-07
-1.86072e-07
-1.43096e-08
-1.16289e-07
-1.48726e-07
2.75208e-08
-2.16407e-07
1.73603e-07
-1.66207e-07
2.37214e-07
-1.11658e-08
1.70096e-07
1.68899e-07
-4.16511e-09
2.67889e-07
-1.94434e-07
2.1694e-07
-2.89446e-07
3.22513e-08
-2.23905e-07
-1.86151e-07
-2.32578e-08
-3.09204e-07
2.03776e-07
-2.56913e-07
3.25087e-07
-5.12914e-08
2.64079e-07
1.91448e-07
4.91334e-08
3.28192e-07
-1.99015e-07
2.75867e-07
-3.37172e-07
6.38385e-08
-2.85309e-07
-1.82298e-07
-7.51526e-08
-3.16802e-07
1.6924e-07
-2.6314e-07
3.07154e-07
-6.04574e-08
2.66188e-07
1.62147e-07
8.30788e-08
2.67732e-07
-1.24396e-07
1.97662e-07
-2.34922e-07
8.6313e-09
-1.97957e-07
-1.57465e-07
-5.79922e-08
-1.93964e-07
7.94104e-08
1.02161e-07
2.53012e-07
-5.95252e-10
3.2496e-07
-1.92661e-07
2.15449e-07
-2.82958e-07
-5.75427e-08
-1.69296e-07
-3.39172e-07
1.1038e-07
-4.37782e-07
3.79257e-07
-2.60141e-07
4.46514e-07
1.09862e-07
2.36939e-07
4.49896e-07
-1.48236e-07
5.38003e-07
-4.83054e-07
3.00033e-07
-5.54696e-07
-1.34174e-07
-3.01174e-07
-5.05751e-07
1.41434e-07
-5.86668e-07
5.15903e-07
-3.22838e-07
5.9899e-07
1.30809e-07
3.38249e-07
5.05266e-07
-1.15123e-07
5.81822e-07
-4.97561e-07
3.2287e-07
-5.91171e-07
-1.10577e-07
-3.51172e-07
-4.61739e-07
7.34421e-08
-5.33941e-07
4.34582e-07
-3.02714e-07
5.33539e-07
8.04978e-08
3.32277e-07
3.88532e-07
-3.55279e-08
4.55418e-07
-3.53475e-07
2.66274e-07
-4.51669e-07
-4.8504e-08
-2.97959e-07
-3.02276e-07
-2.10957e-09
-3.63665e-07
2.60575e-07
-2.23539e-07
3.53619e-07
1.58829e-08
2.49288e-07
2.13091e-07
2.89863e-08
2.70728e-07
-1.76264e-07
1.81227e-07
-2.63219e-07
1.51966e-08
-2.0613e-07
-1.30603e-07
-5.65214e-08
-1.88798e-07
9.73713e-08
-1.49013e-07
1.81579e-07
-4.91617e-08
1.68881e-07
5.52318e-08
8.08921e-08
1.20704e-07
-3.27595e-08
1.29445e-07
-1.21203e-07
8.66728e-08
-1.5134e-07
1.15664e-08
-1.15164e-07
-6.94463e-08
-2.87558e-08
-1.26412e-07
7.31216e-08
-1.32147e-07
1.46647e-07
-7.45445e-08
1.54254e-07
3.02655e-08
8.32906e-08
1.35816e-07
-4.09906e-08
1.83028e-07
-1.59555e-07
1.3337e-07
-2.05373e-07
-1.3182e-09
-1.41304e-07
-1.54752e-07
1.14736e-08
-2.37391e-07
1.75651e-07
-1.89287e-07
2.55854e-07
-2.29461e-08
1.94599e-07
1.7428e-07
1.28686e-08
2.85921e-07
-1.93273e-07
2.36472e-07
-3.03614e-07
4.28576e-08
-2.4528e-07
-1.88222e-07
-4.1371e-08
-3.20074e-07
1.96243e-07
-2.69054e-07
3.29628e-07
-5.90551e-08
2.7729e-07
1.8878e-07
6.56191e-08
3.27697e-07
-1.84158e-07
2.75084e-07
-3.2765e-07
6.417e-08
-2.84126e-07
-1.76075e-07
-8.46363e-08
-3.01199e-07
1.48981e-07
-2.41747e-07
2.80593e-07
-4.58786e-08
2.4309e-07
1.53775e-07
7.53208e-08
2.28956e-07
-1.09066e-07
1.43814e-07
-1.97369e-07
-1.06879e-08
-1.48191e-07
-1.05711e-07
-1.95347e-08
6.63851e-08
7.23445e-08
1.26507e-07
2.48331e-07
-4.25966e-08
3.34935e-07
-2.73481e-07
2.22121e-07
-3.58604e-07
-7.47953e-08
-2.05072e-07
-3.7711e-07
1.14915e-07
-4.75593e-07
4.105e-07
-2.78385e-07
4.86112e-07
1.15337e-07
2.6882e-07
4.69118e-07
-1.32779e-07
5.57447e-07
-4.8499e-07
3.12218e-07
-5.7041e-07
-1.2855e-07
-3.25496e-07
-5.02649e-07
1.14538e-07
-5.84966e-07
4.94075e-07
-3.26198e-07
5.90904e-07
1.18005e-07
3.50068e-07
4.84191e-07
-8.47431e-08
5.61778e-07
-4.59952e-07
3.16902e-07
-5.6424e-07
-9.47433e-08
-3.50466e-07
-4.28933e-07
4.44471e-08
-5.00988e-07
3.88535e-07
-2.8924e-07
4.93916e-07
6.45064e-08
3.20808e-07
3.5017e-07
-1.16163e-08
4.15815e-07
-3.06486e-07
2.48382e-07
-4.07124e-07
-3.39487e-08
-2.8025e-07
-2.63579e-07
-2.04957e-08
-3.23388e-07
2.17207e-07
-2.04921e-07
3.10098e-07
2.84634e-09
2.29592e-07
1.77318e-07
4.25675e-08
2.34131e-07
-1.39256e-07
1.65131e-07
-2.25293e-07
2.7634e-08
-1.88773e-07
-9.90099e-08
-6.78548e-08
-1.58229e-07
6.6389e-08
-1.37657e-07
1.50656e-07
-6.23312e-08
1.56054e-07
2.7514e-08
9.20145e-08
9.66398e-08
-6.57497e-09
1.23759e-07
-9.71876e-08
1.01719e-07
-1.44116e-07
3.65895e-08
-1.28087e-07
-5.08804e-08
-5.26131e-08
-1.25842e-07
5.37458e-08
-1.49231e-07
1.43633e-07
-9.78474e-08
1.68914e-07
1.56082e-08
1.06115e-07
1.38675e-07
-2.40741e-08
2.01077e-07
-1.58564e-07
1.55119e-07
-2.20582e-07
1.10501e-08
-1.63655e-07
-1.58403e-07
-5.4168e-09
-2.53786e-07
1.73043e-07
-2.08129e-07
2.68074e-07
-3.37728e-08
2.14498e-07
1.75975e-07
3.02514e-08
2.97053e-07
-1.86138e-07
2.49635e-07
-3.08779e-07
5.16251e-08
-2.59391e-07
-1.85823e-07
-5.83326e-08
-3.21976e-07
1.82383e-07
-2.7242e-07
3.23111e-07
-6.33142e-08
2.80342e-07
1.81808e-07
7.84227e-08
3.16797e-07
-1.64098e-07
2.63233e-07
-3.06275e-07
5.91481e-08
-2.70291e-07
-1.65975e-07
-8.70764e-08
-2.74745e-07
1.26633e-07
-2.10229e-07
2.44075e-07
-3.01713e-08
2.07576e-07
1.37088e-07
5.98398e-08
1.86612e-07
-9.06377e-08
1.17872e-07
-1.45927e-07
1.84084e-08
-9.07258e-08
4.49642e-09
-1.69794e-07
1.88262e-07
1.28109e-08
1.48763e-07
2.56265e-07
-8.78683e-08
3.80419e-07
-3.2723e-07
2.46606e-07
-3.99892e-07
-8.31937e-08
-2.29576e-07
-4.03686e-07
1.09268e-07
-4.99776e-07
4.2157e-07
-2.89521e-07
5.07477e-07
1.15031e-07
2.93669e-07
4.71773e-07
-1.09781e-07
5.58726e-07
-4.68954e-07
3.14905e-07
-5.67271e-07
-1.18649e-07
-3.39888e-07
-4.84362e-07
8.39156e-08
-5.6601e-07
4.57596e-07
-3.19698e-07
5.65593e-07
1.02968e-07
3.51185e-07
4.51123e-07
-5.36568e-08
5.274e-07
-4.11793e-07
3.0211e-07
-5.23424e-07
-7.83393e-08
-3.39956e-07
-3.87868e-07
1.6878e-08
-4.57627e-07
3.36161e-07
-2.68937e-07
4.44644e-07
4.90083e-08
3.01661e-07
3.07092e-07
9.8613e-09
3.69882e-07
-2.56667e-07
2.26067e-07
-3.57003e-07
-2.03115e-08
-2.57404e-07
-2.22959e-07
-3.63169e-08
-2.80228e-07
1.73468e-07
-1.84101e-07
2.64274e-07
-9.26458e-09
2.07127e-07
1.41517e-07
5.40444e-08
1.97118e-07
-1.03177e-07
1.48484e-07
-1.8712e-07
3.92969e-08
-1.70275e-07
-6.84581e-08
-7.76084e-08
-1.28633e-07
3.68357e-08
-1.26583e-07
1.20404e-07
-7.46807e-08
1.42788e-07
1.44333e-09
1.01779e-07
7.40821e-08
1.81033e-08
1.18359e-07
-7.38405e-08
1.15454e-07
-1.3615e-07
5.94512e-08
-1.39193e-07
-3.38078e-08
-7.47683e-08
-1.24814e-07
3.4599e-08
-1.63869e-07
1.38805e-07
-1.18175e-07
1.80529e-07
2.29848e-09
1.26578e-07
1.39855e-07
-6.93489e-09
2.14937e-07
-1.54215e-07
1.72592e-07
-2.30771e-07
2.20196e-08
-1.82235e-07
-1.59014e-07
-2.24798e-08
-2.63855e-07
1.65632e-07
-2.20877e-07
2.72971e-07
-4.26553e-08
2.28564e-07
1.73625e-07
4.6987e-08
2.99819e-07
-1.73379e-07
2.54632e-07
-3.04522e-07
5.73059e-08
-2.65218e-07
-1.79116e-07
-7.28605e-08
-3.14038e-07
1.63331e-07
-2.65624e-07
3.06122e-07
-6.28607e-08
2.72986e-07
1.71153e-07
8.63695e-08
2.95655e-07
-1.40737e-07
2.40425e-07
-2.75184e-07
4.88387e-08
-2.45476e-07
-1.52983e-07
-8.29109e-08
-2.4073e-07
1.03731e-07
-1.72972e-07
2.01784e-07
-1.23939e-08
1.66851e-07
1.26689e-07
4.51915e-08
1.64096e-07
-6.71267e-08
1.09683e-07
-9.9671e-08
-4.54247e-08
-3.27615e-07
1.37972e-07
-2.43326e-07
2.54627e-07
2.03113e-08
1.56328e-07
3.12908e-07
-8.97575e-08
4.2104e-07
-3.4095e-07
2.58087e-07
-4.22867e-07
-9.08127e-08
-2.52999e-07
-4.14745e-07
9.20867e-08
-5.05353e-07
4.13176e-07
-2.91541e-07
5.09785e-07
1.08791e-07
3.09039e-07
4.57195e-07
-8.20722e-08
5.41492e-07
-4.3687e-07
3.07987e-07
-5.45462e-07
-1.04804e-07
-3.42629e-07
-4.51701e-07
5.25842e-08
-5.30826e-07
4.09535e-07
-3.0392e-07
5.24748e-07
8.61337e-08
3.40988e-07
4.07509e-07
-2.46414e-08
4.80442e-07
-3.56751e-07
2.79526e-07
-4.71441e-07
-6.17493e-08
-3.19995e-07
-3.40209e-07
-7.02498e-09
-4.0587e-07
2.81122e-07
-2.42995e-07
3.88872e-07
3.4311e-08
2.75826e-07
2.60881e-07
2.73059e-08
3.19489e-07
-2.07225e-07
2.00402e-07
-3.04312e-07
-7.8675e-09
-2.30646e-07
-1.81752e-07
-4.85193e-08
-2.35667e-07
1.31898e-07
-1.61821e-07
2.18647e-07
-2.01129e-08
1.82995e-07
1.06742e-07
6.26927e-08
1.60691e-07
-6.99368e-08
1.31588e-07
-1.50553e-07
4.96754e-08
-1.51378e-07
-3.98191e-08
-8.51372e-08
-1.00572e-07
1.01641e-08
-1.15625e-07
9.20809e-08
-8.54303e-08
1.29368e-07
-2.21516e-08
1.09403e-07
5.32807e-08
4.00219e-08
1.12664e-07
-5.20146e-08
1.26773e-07
-1.27312e-07
7.92246e-08
-1.47437e-07
-1.83346e-08
-9.39195e-08
-1.22456e-07
1.63974e-08
-1.74667e-07
1.31799e-07
-1.34434e-07
1.87808e-07
-9.55297e-09
1.43181e-07
1.38367e-07
9.58466e-09
2.23058e-07
-1.4619e-07
1.8455e-07
-2.34591e-07
3.136e-08
-1.95355e-07
-1.55713e-07
-3.85539e-08
-2.66148e-07
1.53479e-07
-2.26313e-07
2.69486e-07
-4.92195e-08
2.35132e-07
1.6668e-07
6.15594e-08
2.93165e-07
-1.55726e-07
2.50539e-07
-2.90528e-07
5.95151e-08
-2.61542e-07
-1.67957e-07
-8.33023e-08
-2.9591e-07
1.4059e-07
-2.48521e-07
2.795e-07
-5.77929e-08
2.55098e-07
1.56896e-07
8.8286e-08
2.651e-07
-1.16148e-07
2.08226e-07
-2.36959e-07
3.44341e-08
-2.1202e-07
-1.37689e-07
-7.29812e-08
-2.00817e-07
8.24789e-08
-1.28548e-07
1.5956e-07
1.41431e-08
1.2717e-07
1.19731e-07
2.94963e-08
1.28471e-07
-5.42884e-08
-5.94815e-08
-3.02716e-07
1.98412e-09
-3.61941e-07
2.01368e-07
-2.25816e-07
2.9757e-07
6.4039e-08
1.9523e-07
3.4155e-07
-7.19346e-08
4.30251e-07
-3.40753e-07
2.56619e-07
-4.32523e-07
-9.10708e-08
-2.69643e-07
-4.06518e-07
6.85299e-08
-4.91864e-07
3.86904e-07
-2.84959e-07
4.91907e-07
9.69492e-08
3.12487e-07
4.2691e-07
-5.23312e-08
5.07622e-07
-3.90818e-07
2.9241e-07
-5.05801e-07
-8.78707e-08
-3.32938e-07
-4.07173e-07
2.26954e-08
-4.82348e-07
3.5255e-07
-2.80567e-07
4.70329e-07
6.81257e-08
3.19752e-07
3.561e-07
6.9346e-10
4.2431e-07
-2.97561e-07
2.51318e-07
-4.10779e-07
-4.52609e-08
-2.91523e-07
-2.88498e-07
-2.62228e-08
-3.49035e-07
2.25815e-07
-2.13642e-07
3.29022e-07
2.0425e-08
2.44478e-07
2.13599e-07
4.01322e-08
2.67436e-07
-1.60012e-07
1.73325e-07
-2.51033e-07
3.5099e-09
-2.00998e-07
-1.41459e-07
-5.67435e-08
-1.91781e-07
9.38211e-08
-1.39498e-07
1.74589e-07
-2.97882e-08
1.57805e-07
7.40303e-08
6.81243e-08
1.26195e-07
-4.04946e-08
1.15244e-07
-1.16385e-07
5.86617e-08
-1.32162e-07
-1.38411e-08
-8.97996e-08
-7.47988e-08
-1.27774e-08
-1.05004e-07
6.60803e-08
-9.41755e-08
1.15378e-07
-4.26145e-08
1.13865e-07
3.46026e-08
5.82058e-08
1.06434e-07
-3.19541e-08
1.3496e-07
-1.16848e-07
9.5199e-08
-1.51412e-07
-4.66096e-09
-1.08805e-07
-1.18274e-07
-5.04115e-10
-1.80707e-07
1.21784e-07
-1.45831e-07
1.89129e-07
-1.97539e-08
1.54366e-07
1.33699e-07
2.48259e-08
2.24539e-07
-1.33897e-07
1.90217e-07
-2.30515e-07
3.88053e-08
-2.01332e-07
-1.4821e-07
-5.26039e-08
-2.60082e-07
1.36545e-07
-2.23911e-07
2.56625e-07
-5.31852e-08
2.32764e-07
1.55215e-07
7.26886e-08
2.7714e-07
-1.33884e-07
2.37418e-07
-2.66785e-07
5.82276e-08
-2.4772e-07
-1.52738e-07
-8.85657e-08
-2.68527e-07
1.15514e-07
-2.22355e-07
2.44595e-07
-4.8974e-08
2.27567e-07
1.39411e-07
8.40297e-08
2.27099e-07
-9.196e-08
1.6952e-07
-1.94551e-07
1.84266e-08
-1.7298e-07
-1.1848e-07
-5.84633e-08
-1.53771e-07
6.46108e-08
-7.91996e-08
1.1929e-07
2.84143e-08
8.50266e-08
8.19953e-08
6.52991e-09
-3.98843e-08
-1.11672e-07
-1.3522e-07
-2.72658e-07
2.39482e-08
-3.29122e-07
2.4581e-07
-2.03303e-07
3.37947e-07
7.19756e-08
2.17395e-07
3.37223e-07
-5.60003e-08
4.19204e-07
-3.2407e-07
2.49188e-07
-4.2083e-07
-8.35465e-08
-2.74646e-07
-3.81575e-07
4.06113e-08
-4.61481e-07
3.43793e-07
-2.69808e-07
4.54476e-07
8.17158e-08
3.03784e-07
3.8426e-07
-2.2093e-08
4.5987e-07
-3.33351e-07
2.68806e-07
-4.50773e-07
-6.98492e-08
-3.11924e-07
-3.54507e-07
-4.72062e-09
-4.24093e-07
2.89454e-07
-2.5101e-07
4.05538e-07
5.05248e-08
2.89379e-07
3.00586e-07
2.19197e-08
3.6278e-07
-2.36735e-07
2.19261e-07
-3.44643e-07
-2.99874e-08
-2.56733e-07
-2.35982e-07
-4.08016e-08
-2.90598e-07
1.72138e-07
-1.82675e-07
2.67799e-07
8.0671e-09
2.09635e-07
1.6784e-07
4.87204e-08
2.16575e-07
-1.16239e-07
1.46357e-07
-1.99079e-07
1.33447e-08
-1.69962e-07
-1.0402e-07
-6.13909e-08
-1.50685e-07
5.9882e-08
-1.18208e-07
1.33176e-07
-3.78744e-08
1.32354e-07
4.48162e-08
7.05086e-08
9.50785e-08
-1.51667e-08
1.00043e-07
-8.49873e-08
6.5744e-08
-1.12703e-07
8.32513e-09
-9.13612e-08
-5.2292e-08
-3.17372e-08
-9.48997e-08
4.23218e-08
-1.00232e-07
1.00303e-07
-5.88846e-08
1.14475e-07
1.87798e-08
7.22562e-08
9.95992e-08
-1.34116e-08
1.39185e-07
-1.0389e-07
1.06292e-07
-1.50068e-07
6.52529e-09
-1.18777e-07
-1.12169e-07
-1.62548e-08
-1.81175e-07
1.07868e-07
-1.51303e-07
1.83328e-07
-2.75541e-08
1.59302e-07
1.25942e-07
3.86736e-08
2.18831e-07
-1.16762e-07
1.88725e-07
-2.17644e-07
4.35549e-08
-1.99383e-07
-1.36961e-07
-6.42202e-08
-2.45682e-07
1.14871e-07
-2.1331e-07
2.34202e-07
-5.39003e-08
2.21136e-07
1.40067e-07
7.98613e-08
2.52578e-07
-1.08634e-07
2.15849e-07
-2.3424e-07
5.33632e-08
-2.24468e-07
-1.34456e-07
-8.85401e-08
-2.33731e-07
8.93957e-08
-1.89182e-07
2.03649e-07
-3.76012e-08
1.92648e-07
1.19388e-07
7.45642e-08
1.84544e-07
-6.93801e-08
1.28657e-07
-1.51014e-07
5.00008e-09
-1.31743e-07
-9.4198e-08
-4.1787e-08
-1.07145e-07
4.78031e-08
-4.98073e-08
7.77608e-08
1.10812e-08
4.35212e-08
-7.80119e-09
1.25441e-07
-1.8843e-07
-4.0546e-08
-1.56864e-07
-2.36494e-07
4.88015e-08
-3.23484e-07
2.56074e-07
-2.02757e-07
3.33023e-07
6.53648e-08
2.20166e-07
3.17804e-07
-3.34685e-08
3.92663e-07
-2.87581e-07
2.33271e-07
-3.89115e-07
-7.23552e-08
-2.68754e-07
-3.42946e-07
1.08607e-08
-4.15247e-07
2.88782e-07
-2.4507e-07
4.02041e-07
6.56636e-08
2.84425e-07
3.3229e-07
6.13123e-09
4.00346e-07
-2.69723e-07
2.37268e-07
-3.85609e-07
-5.28303e-08
-2.81991e-07
-2.96977e-07
-2.80205e-08
-3.58809e-07
2.24963e-07
-2.1598e-07
3.35565e-07
3.50091e-08
2.52786e-07
2.44102e-07
3.82953e-08
2.98675e-07
-1.78015e-07
1.84344e-07
-2.7758e-07
-1.72141e-08
-2.18544e-07
-1.8535e-07
-5.07255e-08
-2.33045e-07
1.22712e-07
-1.51012e-07
2.08734e-07
-1.7635e-09
1.73813e-07
1.25739e-07
5.34467e-08
1.68826e-07
-7.75128e-08
1.20111e-07
-1.50884e-07
2.07505e-08
-1.39422e-07
-7.11046e-08
-6.29652e-08
-1.13715e-07
3.09271e-08
-9.81543e-08
9.58857e-08
-4.3422e-08
1.07872e-07
2.04913e-08
7.0268e-08
6.8227e-08
5.64669e-09
8.57839e-08
-5.71724e-08
6.97776e-08
-9.37058e-08
2.53447e-08
-9.00759e-08
-3.37002e-08
-4.64923e-08
-8.48264e-08
2.12768e-08
-1.02237e-07
8.45548e-08
-6.9535e-08
1.11363e-07
6.43095e-09
8.19718e-08
9.15694e-08
3.19819e-09
1.3796e-07
-8.88475e-08
1.10951e-07
-1.43579e-07
1.44755e-08
-1.23642e-07
-1.03689e-07
-3.03099e-08
-1.747e-07
9.07407e-08
-1.49317e-07
1.70898e-07
-3.20427e-08
1.57948e-07
1.15006e-07
5.04188e-08
2.05016e-07
-9.59536e-08
1.78859e-07
-1.97071e-07
4.46536e-08
-1.89881e-07
-1.22376e-07