/*--------------------------------*- C++ -*----------------------------------*\
| =========                 |                                                 |
| \\      /  F ield         | OpenFOAM: The Open Source CFD Toolbox           |
|  \\    /   O peration     | Version:  2412                                  |
|   \\  /    A nd           | Website:  www.openfoam.com                      |
|    \\/     M anipulation  |                                                 |
\*---------------------------------------------------------------------------*/
FoamFile
{
    version     2.0;
    format      ascii;
    arch        "LSB;label=32;scalar=64";
    class       volVectorField;
    location    "4.2";
    object      U;
}
// * * * * * * * * * * * * * * * * * * * * * * * * * * * * * * * * * * * * * //

dimensions      [0 1 -1 0 0 0 0];

internalField   nonuniform List<vector> 
6400
(
(-2.8515e-06 3.69279e-06 0)
(-8.28402e-06 9.82139e-06 0)
(-7.74407e-06 8.91815e-06 0)
(1.64091e-06 -1.28149e-06 0)
(1.53326e-05 -1.56769e-05 0)
(2.28198e-05 -2.43161e-05 0)
(1.5438e-05 -1.89176e-05 0)
(-5.7308e-06 4.52687e-07 0)
(-2.86812e-05 2.38208e-05 0)
(-3.75708e-05 3.66109e-05 0)
(-2.36145e-05 2.8941e-05 0)
(7.68871e-06 2.85424e-06 0)
(3.84959e-05 -2.76728e-05 0)
(4.92126e-05 -4.45627e-05 0)
(3.11935e-05 -3.67136e-05 0)
(-6.81162e-06 -7.33564e-06 0)
(-4.30764e-05 2.73135e-05 0)
(-5.58164e-05 4.73058e-05 0)
(-3.66479e-05 4.09039e-05 0)
(3.91759e-06 1.16342e-05 0)
(4.25195e-05 -2.37688e-05 0)
(5.6876e-05 -4.52641e-05 0)
(3.90208e-05 -4.11938e-05 0)
(-2.07814e-07 -1.47596e-05 0)
(-3.79631e-05 1.83786e-05 0)
(-5.30701e-05 3.96019e-05 0)
(-3.81872e-05 3.80322e-05 0)
(-3.3182e-06 1.61543e-05 0)
(3.09281e-05 -1.25472e-05 0)
(4.57546e-05 -3.19833e-05 0)
(3.46452e-05 -3.25962e-05 0)
(5.98444e-06 -1.59812e-05 0)
(-2.30024e-05 7.16016e-06 0)
(-3.66912e-05 2.38644e-05 0)
(-2.94918e-05 2.61708e-05 0)
(-7.72769e-06 1.47328e-05 0)
(1.52993e-05 -2.71155e-06 0)
(2.74128e-05 -1.64299e-05 0)
(2.38923e-05 -2.00439e-05 0)
(8.82045e-06 -1.32423e-05 0)
(-8.47489e-06 -9.06239e-07 0)
(-1.90986e-05 1.0205e-05 0)
(-1.89667e-05 1.50258e-05 0)
(-9.86875e-06 1.22046e-05 0)
(2.576e-06 4.00173e-06 0)
(1.22801e-05 -5.33137e-06 0)
(1.54055e-05 -1.15949e-05 0)
(1.14206e-05 -1.22361e-05 0)
(2.63599e-06 -7.1325e-06 0)
(-7.04431e-06 1.45045e-06 0)
(-1.35372e-05 9.65864e-06 0)
(-1.39225e-05 1.35052e-05 0)
(-7.60441e-06 1.06598e-05 0)
(3.05604e-06 1.87007e-06 0)
(1.32204e-05 -8.86856e-06 0)
(1.7484e-05 -1.5899e-05 0)
(1.26934e-05 -1.48015e-05 0)
(2.2646e-07 -5.16555e-06 0)
(-1.38999e-05 8.51968e-06 0)
(-2.17513e-05 1.87958e-05 0)
(-1.7933e-05 1.92867e-05 0)
(-3.26509e-06 8.66935e-06 0)
(1.48354e-05 -7.93793e-06 0)
(2.60363e-05 -2.13756e-05 0)
(2.30632e-05 -2.35626e-05 0)
(6.44992e-06 -1.24257e-05 0)
(-1.50788e-05 6.43469e-06 0)
(-2.92523e-05 2.26079e-05 0)
(-2.74232e-05 2.67786e-05 0)
(-9.94919e-06 1.6209e-05 0)
(1.36718e-05 -3.54471e-06 0)
(3.02333e-05 -2.17747e-05 0)
(3.05864e-05 -2.87018e-05 0)
(1.49327e-05 -2.08061e-05 0)
(-7.81386e-06 -2.27239e-06 0)
(-2.59428e-05 1.77904e-05 0)
(-3.22652e-05 3.03213e-05 0)
(-2.7579e-05 3.0509e-05 0)
(-1.76672e-05 1.98151e-05 0)
(-3.99909e-06 5.56122e-06 0)
(1.89653e-06 1.80139e-06 0)
(-5.77732e-06 1.61721e-05 0)
(-1.7383e-05 2.47002e-05 0)
(-1.75119e-05 1.43977e-05 0)
(-1.22076e-06 -1.36485e-05 0)
(2.27025e-05 -4.31589e-05 0)
(3.67409e-05 -5.22098e-05 0)
(2.75359e-05 -2.85404e-05 0)
(-3.19954e-06 1.9337e-05 0)
(-3.77994e-05 6.44347e-05 0)
(-5.3225e-05 7.70683e-05 0)
(-3.65367e-05 4.45605e-05 0)
(5.20271e-06 -1.83544e-05 0)
(4.78384e-05 -7.62952e-05 0)
(6.46797e-05 -9.3983e-05 0)
(4.35875e-05 -5.83209e-05 0)
(-4.54391e-06 1.23157e-05 0)
(-5.1719e-05 7.79878e-05 0)
(-6.9737e-05 0.00010065 0)
(-4.75144e-05 6.68926e-05 0)
(2.04379e-06 -3.98363e-06 0)
(4.98836e-05 -7.14507e-05 0)
(6.83776e-05 -9.76765e-05 0)
(4.76973e-05 -6.93417e-05 0)
(1.06786e-06 -4.45838e-06 0)
(-4.38847e-05 5.92717e-05 0)
(-6.18996e-05 8.68836e-05 0)
(-4.45609e-05 6.57183e-05 0)
(-4.04559e-06 1.09855e-05 0)
(3.53427e-05 -4.48789e-05 0)
(5.19794e-05 -7.16868e-05 0)
(3.89053e-05 -5.79453e-05 0)
(6.30344e-06 -1.52608e-05 0)
(-2.60139e-05 3.05189e-05 0)
(-4.07096e-05 5.49668e-05 0)
(-3.21714e-05 4.80143e-05 0)
(-8.02235e-06 1.73884e-05 0)
(1.68979e-05 -1.79857e-05 0)
(2.95983e-05 -3.95237e-05 0)
(2.5522e-05 -3.84731e-05 0)
(9.45135e-06 -1.86962e-05 0)
(-8.69908e-06 7.44207e-06 0)
(-1.98874e-05 2.65845e-05 0)
(-2.01586e-05 3.08179e-05 0)
(-1.13189e-05 2.02052e-05 0)
(1.28474e-06 1.26178e-06 0)
(1.18851e-05 -1.6853e-05 0)
(1.65512e-05 -2.62946e-05 0)
(1.40154e-05 -2.32918e-05 0)
(5.53031e-06 -9.27472e-06 0)
(-5.6291e-06 9.63485e-06 0)
(-1.49241e-05 2.4749e-05 0)
(-1.79033e-05 2.82963e-05 0)
(-1.21949e-05 1.72674e-05 0)
(6.57604e-07 -4.19689e-06 0)
(1.49121e-05 -2.57103e-05 0)
(2.28458e-05 -3.53064e-05 0)
(1.89045e-05 -2.60339e-05 0)
(3.56259e-06 -8.56496e-07 0)
(-1.5789e-05 2.75701e-05 0)
(-2.82063e-05 4.3071e-05 0)
(-2.54287e-05 3.52022e-05 0)
(-7.39222e-06 6.22732e-06 0)
(1.66957e-05 -2.88575e-05 0)
(3.30186e-05 -5.00971e-05 0)
(3.12305e-05 -4.41195e-05 0)
(1.11176e-05 -1.26248e-05 0)
(-1.65414e-05 2.76691e-05 0)
(-3.59063e-05 5.41365e-05 0)
(-3.54584e-05 5.12984e-05 0)
(-1.50587e-05 2.00147e-05 0)
(1.38591e-05 -2.2808e-05 0)
(3.52442e-05 -5.38925e-05 0)
(3.79891e-05 -5.67121e-05 0)
(2.19439e-05 -3.0386e-05 0)
(-3.73702e-06 1.07466e-05 0)
(-2.7472e-05 4.55888e-05 0)
(-4.23125e-05 5.86322e-05 0)
(-4.52048e-05 4.79915e-05 0)
(-1.7782e-05 2.03153e-05 0)
(1.18868e-05 -8.70705e-06 0)
(1.24297e-05 2.44463e-06 0)
(-1.01595e-05 2.25782e-05 0)
(-3.09439e-05 3.18804e-05 0)
(-3.16878e-05 1.90834e-05 0)
(-7.10667e-06 -1.26997e-05 0)
(2.95303e-05 -4.50892e-05 0)
(5.36834e-05 -5.49711e-05 0)
(4.5898e-05 -3.06602e-05 0)
(6.36347e-06 1.78171e-05 0)
(-4.29177e-05 6.2569e-05 0)
(-7.09182e-05 7.45219e-05 0)
(-5.75924e-05 4.25616e-05 0)
(-7.92011e-06 -1.76325e-05 0)
(4.97282e-05 -7.15974e-05 0)
(8.05034e-05 -8.66215e-05 0)
(6.47638e-05 -5.21153e-05 0)
(1.0721e-05 1.31315e-05 0)
(-5.01354e-05 7.1673e-05 0)
(-8.20624e-05 8.96646e-05 0)
(-6.66642e-05 5.70069e-05 0)
(-1.36945e-05 -6.91028e-06 0)
(4.53508e-05 -6.51178e-05 0)
(7.65012e-05 -8.50742e-05 0)
(6.33357e-05 -5.73108e-05 0)
(1.57099e-05 1.9432e-07 0)
(-3.74485e-05 5.37928e-05 0)
(-6.60465e-05 7.4261e-05 0)
(-5.61504e-05 5.29792e-05 0)
(-1.66019e-05 5.11964e-06 0)
(2.80366e-05 -4.09157e-05 0)
(5.28623e-05 -6.05278e-05 0)
(4.66114e-05 -4.60861e-05 0)
(1.63544e-05 -9.19754e-06 0)
(-1.86898e-05 2.79347e-05 0)
(-3.93128e-05 4.58588e-05 0)
(-3.67586e-05 3.78917e-05 0)
(-1.58332e-05 1.17758e-05 0)
(9.87811e-06 -1.66149e-05 0)
(2.66812e-05 -3.27872e-05 0)
(2.78486e-05 -3.07086e-05 0)
(1.55948e-05 -1.42246e-05 0)
(-1.9591e-06 6.70094e-06 0)
(-1.59943e-05 2.1834e-05 0)
(-2.11069e-05 2.52554e-05 0)
(-1.66402e-05 1.69433e-05 0)
(-5.63731e-06 1.62311e-06 0)
(7.09778e-06 -1.37582e-05 0)
(1.66554e-05 -2.26795e-05 0)
(1.9215e-05 -2.12266e-05 0)
(1.31682e-05 -9.58109e-06 0)
(2.00268e-07 7.57345e-06 0)
(-1.4439e-05 2.23473e-05 0)
(-2.34756e-05 2.6844e-05 0)
(-2.10517e-05 1.73046e-05 0)
(-6.55306e-06 -2.94967e-06 0)
(1.37113e-05 -2.40058e-05 0)
(2.88289e-05 -3.39397e-05 0)
(2.9119e-05 -2.55684e-05 0)
(1.23757e-05 -1.52653e-06 0)
(-1.35537e-05 2.58991e-05 0)
(-3.42132e-05 4.09488e-05 0)
(-3.66848e-05 3.35508e-05 0)
(-1.77852e-05 6.04896e-06 0)
(1.29893e-05 -2.70325e-05 0)
(3.82144e-05 -4.67498e-05 0)
(4.26482e-05 -4.08286e-05 0)
(2.26679e-05 -1.14197e-05 0)
(-1.0991e-05 2.54978e-05 0)
(-3.92445e-05 4.90933e-05 0)
(-4.59268e-05 4.5829e-05 0)
(-2.73128e-05 1.74075e-05 0)
(5.9957e-06 -2.02874e-05 0)
(3.58171e-05 -4.66416e-05 0)
(4.6753e-05 -4.81739e-05 0)
(3.38868e-05 -2.60022e-05 0)
(3.02661e-06 6.21036e-06 0)
(-3.23564e-05 3.17179e-05 0)
(-5.44227e-05 4.11579e-05 0)
(-2.75809e-05 2.77956e-05 0)
(1.73047e-05 -1.50334e-05 0)
(3.22222e-05 -1.67844e-05 0)
(1.25042e-05 2.856e-06 0)
(-2.11216e-05 2.99713e-05 0)
(-4.66625e-05 4.50424e-05 0)
(-4.34813e-05 3.25182e-05 0)
(-7.80191e-06 -5.97184e-06 0)
(4.10621e-05 -4.922e-05 0)
(7.11693e-05 -6.86983e-05 0)
(5.9111e-05 -4.76843e-05 0)
(7.32733e-06 5.77556e-06 0)
(-5.4963e-05 6.15821e-05 0)
(-8.90017e-05 8.52903e-05 0)
(-7.12462e-05 5.99367e-05 0)
(-9.46434e-06 -2.14318e-06 0)
(6.07361e-05 -6.5585e-05 0)
(9.7286e-05 -9.29642e-05 0)
(7.76051e-05 -6.75574e-05 0)
(1.27411e-05 -3.71238e-06 0)
(-5.92284e-05 6.16552e-05 0)
(-9.63142e-05 9.11225e-05 0)
(-7.77913e-05 6.87971e-05 0)
(-1.59793e-05 9.02931e-06 0)
(5.21247e-05 -5.29982e-05 0)
(8.75653e-05 -8.25063e-05 0)
(7.22084e-05 -6.50476e-05 0)
(1.80031e-05 -1.34913e-05 0)
(-4.19342e-05 4.11968e-05 0)
(-7.38746e-05 6.88339e-05 0)
(-6.27179e-05 5.68782e-05 0)
(-1.88099e-05 1.57467e-05 0)
(3.0443e-05 -2.93175e-05 0)
(5.77629e-05 -5.37941e-05 0)
(5.11352e-05 -4.72057e-05 0)
(1.84928e-05 -1.70056e-05 0)
(-1.93511e-05 1.78845e-05 0)
(-4.18753e-05 3.88201e-05 0)
(-3.98144e-05 3.72006e-05 0)
(-1.81709e-05 1.7274e-05 0)
(8.97326e-06 -8.27429e-06 0)
(2.74297e-05 -2.62126e-05 0)
(3.00138e-05 -2.92936e-05 0)
(1.84451e-05 -1.84266e-05 0)
(3.92827e-07 -5.32219e-07 0)
(-1.54149e-05 1.56931e-05 0)
(-2.29836e-05 2.35879e-05 0)
(-2.04301e-05 2.05596e-05 0)
(-9.51444e-06 8.35535e-06 0)
(5.43761e-06 -7.83057e-06 0)
(1.86293e-05 -2.10358e-05 0)
(2.42389e-05 -2.49357e-05 0)
(1.86334e-05 -1.66499e-05 0)
(2.78773e-06 1.14236e-06 0)
(-1.67426e-05 2.03337e-05 0)
(-2.98951e-05 3.06385e-05 0)
(-2.81395e-05 2.50172e-05 0)
(-1.00457e-05 4.45106e-06 0)
(1.6296e-05 -2.11792e-05 0)
(3.64606e-05 -3.75672e-05 0)
(3.75922e-05 -3.39903e-05 0)
(1.66756e-05 -1.03382e-05 0)
(-1.62153e-05 2.14944e-05 0)
(-4.25775e-05 4.35103e-05 0)
(-4.60506e-05 4.1952e-05 0)
(-2.27523e-05 1.60193e-05 0)
(1.52966e-05 -2.06671e-05 0)
(4.64381e-05 -4.73522e-05 0)
(5.20525e-05 -4.8217e-05 0)
(2.79878e-05 -2.20014e-05 0)
(-1.25049e-05 1.68689e-05 0)
(-4.64007e-05 4.6566e-05 0)
(-5.44916e-05 5.06361e-05 0)
(-3.24945e-05 2.7433e-05 0)
(6.85639e-06 -9.40802e-06 0)
(4.1558e-05 -3.96772e-05 0)
(5.23186e-05 -4.84367e-05 0)
(3.27162e-05 -3.38315e-05 0)
(-7.08853e-06 -4.9662e-06 0)
(-4.11401e-05 2.34272e-05 0)
(-2.67155e-05 2.84574e-05 0)
(1.18633e-05 -9.76875e-06 0)
(3.63625e-05 -2.76673e-05 0)
(3.58623e-05 -2.56042e-05 0)
(1.01645e-05 1.59188e-06 0)
(-3.03567e-05 3.93647e-05 0)
(-5.95224e-05 6.07507e-05 0)
(-5.30298e-05 4.56187e-05 0)
(-8.49119e-06 -3.27935e-06 0)
(4.93797e-05 -5.89849e-05 0)
(8.3214e-05 -8.59699e-05 0)
(6.77002e-05 -6.32594e-05 0)
(7.89122e-06 1.86964e-07 0)
(-6.18606e-05 6.876e-05 0)
(-9.85272e-05 0.000101087 0)
(-7.76684e-05 7.57543e-05 0)
(-9.67791e-06 5.47613e-06 0)
(6.57301e-05 -6.96196e-05 0)
(0.000103615 -0.000105809 0)
(8.13474e-05 -8.20244e-05 0)
(1.23419e-05 -1.23878e-05 0)
(-6.24393e-05 6.25494e-05 0)
(-9.95481e-05 0.000100153 0)
(-7.89386e-05 8.06193e-05 0)
(-1.49091e-05 1.754e-05 0)
(5.38696e-05 -5.1524e-05 0)
(8.82346e-05 -8.78981e-05 0)
(7.12552e-05 -7.38673e-05 0)
(1.64022e-05 -2.11563e-05 0)
(-4.2598e-05 3.8079e-05 0)
(-7.27591e-05 7.10739e-05 0)
(-6.04513e-05 6.27313e-05 0)
(-1.70475e-05 2.20822e-05 0)
(3.02758e-05 -2.54368e-05 0)
(5.55852e-05 -5.38666e-05 0)
(4.83402e-05 -5.08242e-05 0)
(1.69872e-05 -2.22266e-05 0)
(-1.85078e-05 1.3587e-05 0)
(-3.92472e-05 3.74242e-05 0)
(-3.72169e-05 3.92685e-05 0)
(-1.74032e-05 2.16939e-05 0)
(7.39977e-06 -3.79368e-06 0)
(2.46643e-05 -2.40518e-05 0)
(2.80661e-05 -3.07e-05 0)
(1.87588e-05 -2.27714e-05 0)
(2.79248e-06 -5.50898e-06 0)
(-1.26509e-05 1.29127e-05 0)
(-2.19404e-05 2.47767e-05 0)
(-2.20631e-05 2.53008e-05 0)
(-1.28866e-05 1.40808e-05 0)
(2.61563e-06 -4.51249e-06 0)
(1.84698e-05 -2.23773e-05 0)
(2.71719e-05 -3.05785e-05 0)
(2.2972e-05 -2.35981e-05 0)
(5.72457e-06 -3.0564e-06 0)
(-1.73092e-05 2.1633e-05 0)
(-3.39027e-05 3.71088e-05 0)
(-3.32702e-05 3.32176e-05 0)
(-1.31273e-05 9.67155e-06 0)
(1.72725e-05 -2.21886e-05 0)
(4.10172e-05 -4.45901e-05 0)
(4.30202e-05 -4.33118e-05 0)
(1.9726e-05 -1.67869e-05 0)
(-1.73012e-05 2.15888e-05 0)
(-4.70146e-05 5.01867e-05 0)
(-5.10934e-05 5.15834e-05 0)
(-2.54862e-05 2.33875e-05 0)
(1.61672e-05 -1.94308e-05 0)
(4.99527e-05 -5.26918e-05 0)
(5.5829e-05 -5.70954e-05 0)
(2.98584e-05 -2.97746e-05 0)
(-1.31767e-05 1.3865e-05 0)
(-4.85003e-05 4.923e-05 0)
(-5.60634e-05 5.7021e-05 0)
(-3.22016e-05 3.41403e-05 0)
(8.37049e-06 -5.30649e-06 0)
(4.13191e-05 -3.91868e-05 0)
(4.67715e-05 -4.98526e-05 0)
(2.29412e-05 -3.29215e-05 0)
(-9.86028e-06 3.69523e-07 0)
(-1.53302e-05 1.97125e-05 0)
(-3.96174e-06 6.4158e-06 0)
(1.52832e-05 -1.94075e-05 0)
(4.04833e-05 -4.31166e-05 0)
(4.33518e-05 -3.75439e-05 0)
(1.22043e-05 1.95151e-08 0)
(-3.75022e-05 4.81902e-05 0)
(-7.19702e-05 7.44379e-05 0)
(-6.34137e-05 5.63829e-05 0)
(-1.11535e-05 -1.18323e-06 0)
(5.52392e-05 -6.62399e-05 0)
(9.36566e-05 -9.81264e-05 0)
(7.68469e-05 -7.35743e-05 0)
(1.13881e-05 -3.15653e-06 0)
(-6.47805e-05 7.32783e-05 0)
(-0.000105301 0.000110135 0)
(-8.44017e-05 8.41205e-05 0)
(-1.34151e-05 9.11379e-06 0)
(6.5802e-05 -7.16602e-05 0)
(0.00010643 -0.000111458 0)
(8.51175e-05 -8.78804e-05 0)
(1.56282e-05 -1.57447e-05 0)
(-6.03502e-05 6.2525e-05 0)
(-9.88987e-05 0.000102548 0)
(-7.98431e-05 8.37721e-05 0)
(-1.73358e-05 2.00743e-05 0)
(5.04432e-05 -5.02305e-05 0)
(8.50363e-05 -8.78605e-05 0)
(6.98683e-05 -7.48623e-05 0)
(1.78801e-05 -2.29057e-05 0)
(-3.85938e-05 3.6e-05 0)
(-6.80977e-05 6.93553e-05 0)
(-5.7658e-05 6.21777e-05 0)
(-1.7835e-05 2.3155e-05 0)
(2.6158e-05 -2.30743e-05 0)
(5.03718e-05 -5.13807e-05 0)
(4.50165e-05 -4.9648e-05 0)
(1.75021e-05 -2.31757e-05 0)
(-1.447e-05 1.0937e-05 0)
(-3.41273e-05 3.46122e-05 0)
(-3.41123e-05 3.80531e-05 0)
(-1.81615e-05 2.29144e-05 0)
(3.33084e-06 -8.48009e-07 0)
(1.98934e-05 -2.12863e-05 0)
(2.56194e-05 -3.00277e-05 0)
(2.01689e-05 -2.48266e-05 0)
(7.12289e-06 -9.12141e-06 0)
(-8.21853e-06 1.00716e-05 0)
(-2.03145e-05 2.47198e-05 0)
(-2.43741e-05 2.83475e-05 0)
(-1.77321e-05 1.84998e-05 0)
(-1.68445e-06 -1.52886e-06 0)
(1.75305e-05 -2.29558e-05 0)
(3.03372e-05 -3.47246e-05 0)
(2.83947e-05 -2.90313e-05 0)
(1.00807e-05 -6.50686e-06 0)
(-1.67596e-05 2.24218e-05 0)
(-3.76019e-05 4.19147e-05 0)
(-3.90748e-05 3.9365e-05 0)
(-1.76209e-05 1.3581e-05 0)
(1.66986e-05 -2.28563e-05 0)
(4.46202e-05 -4.95209e-05 0)
(4.86358e-05 -4.97305e-05 0)
(2.41543e-05 -2.11247e-05 0)
(-1.63775e-05 2.16003e-05 0)
(-4.97816e-05 5.42812e-05 0)
(-5.57244e-05 5.72888e-05 0)
(-2.94148e-05 2.76166e-05 0)
(1.47212e-05 -1.85912e-05 0)
(5.11504e-05 -5.50941e-05 0)
(5.8461e-05 -6.09773e-05 0)
(3.23544e-05 -3.30862e-05 0)
(-1.17123e-05 1.22181e-05 0)
(-4.78826e-05 4.89997e-05 0)
(-5.55317e-05 5.72241e-05 0)
(-3.15582e-05 3.41522e-05 0)
(7.85533e-06 -4.78026e-06 0)
(3.78279e-05 -3.58551e-05 0)
(4.17886e-05 -4.10663e-05 0)
(2.40847e-05 -2.04997e-05 0)
(1.25665e-06 3.4305e-06 0)
(-2.15981e-05 2.353e-05 0)
(-2.30406e-05 6.1634e-06 0)
(1.73641e-05 -3.32786e-05 0)
(5.38834e-05 -5.86588e-05 0)
(5.55071e-05 -4.82431e-05 0)
(1.48747e-05 -2.0526e-06 0)
(-4.48626e-05 5.50013e-05 0)
(-8.41447e-05 8.61881e-05 0)
(-7.32806e-05 6.69374e-05 0)
(-1.37578e-05 3.1926e-06 0)
(6.03581e-05 -6.94106e-05 0)
(0.000102879 -0.000106386 0)
(8.50251e-05 -8.2459e-05 0)
(1.4795e-05 -8.69964e-06 0)
(-6.68166e-05 7.28088e-05 0)
(-0.000110719 0.000113977 0)
(-9.0091e-05 8.99746e-05 0)
(-1.69979e-05 1.44762e-05 0)
(6.51089e-05 -6.85501e-05 0)
(0.000108069 -0.000111316 0)
(8.80031e-05 -9.04951e-05 0)
(1.87828e-05 -2.01787e-05 0)
(-5.76766e-05 5.77708e-05 0)
(-9.74029e-05 9.92477e-05 0)
(-8.01801e-05 8.33998e-05 0)
(-1.97525e-05 2.3059e-05 0)
(4.65899e-05 -4.499e-05 0)
(8.13552e-05 -8.27477e-05 0)
(6.8289e-05 -7.24723e-05 0)
(1.95341e-05 -2.46325e-05 0)
(-3.42561e-05 3.08855e-05 0)
(-6.32579e-05 6.34793e-05 0)
(-5.50107e-05 5.86892e-05 0)
(-1.89936e-05 2.39408e-05 0)
(2.17339e-05 -1.8521e-05 0)
(4.51818e-05 -4.57105e-05 0)
(4.2088e-05 -4.61212e-05 0)
(1.85609e-05 -2.37428e-05 0)
(-1.00868e-05 6.77772e-06 0)
(-2.91036e-05 2.9476e-05 0)
(-3.15213e-05 3.50523e-05 0)
(-1.95655e-05 2.37558e-05 0)
(-1.14038e-06 3.12109e-06 0)
(1.52028e-05 -1.68331e-05 0)
(2.3696e-05 -2.79772e-05 0)
(2.22526e-05 -2.64875e-05 0)
(1.19057e-05 -1.34068e-05 0)
(-3.7902e-06 5.94721e-06 0)
(-1.91207e-05 2.34676e-05 0)
(-2.72838e-05 3.08698e-05 0)
(-2.3012e-05 2.32879e-05 0)
(-6.04619e-06 2.5207e-06 0)
(1.68825e-05 -2.22758e-05 0)
(3.39372e-05 -3.80151e-05 0)
(3.41437e-05 -3.4454e-05 0)
(1.45166e-05 -1.08795e-05 0)
(-1.63377e-05 2.17047e-05 0)
(-4.14824e-05 4.53204e-05 0)
(-4.4978e-05 4.4966e-05 0)
(-2.21143e-05 1.82273e-05 0)
(1.61245e-05 -2.16886e-05 0)
(4.81133e-05 -5.23354e-05 0)
(5.40312e-05 -5.48654e-05 0)
(2.8395e-05 -2.58443e-05 0)
(-1.54098e-05 1.95321e-05 0)
(-5.21709e-05 5.55068e-05 0)
(-5.97464e-05 6.0802e-05 0)
(-3.27949e-05 3.15982e-05 0)
(1.34157e-05 -1.57083e-05 0)
(5.18594e-05 -5.40083e-05 0)
(6.00328e-05 -6.15982e-05 0)
(3.36137e-05 -3.50411e-05 0)
(-1.10295e-05 9.17956e-06 0)
(-4.70267e-05 4.50738e-05 0)
(-5.36254e-05 5.30974e-05 0)
(-2.88192e-05 3.1618e-05 0)
(1.00857e-05 -2.96411e-06 0)
(3.90577e-05 -2.7927e-05 0)
(4.34517e-05 -3.008e-05 0)
(1.52858e-05 -1.30605e-05 0)
(-2.91146e-05 2.84137e-05 0)
(-5.546e-05 3.31863e-05 0)
(-2.28603e-05 2.0991e-06 0)
(2.99712e-05 -4.21367e-05 0)
(6.91082e-05 -7.03964e-05 0)
(6.57091e-05 -5.82479e-05 0)
(1.62386e-05 -5.36111e-06 0)
(-5.15044e-05 5.97925e-05 0)
(-9.41757e-05 9.61794e-05 0)
(-8.11277e-05 7.69599e-05 0)
(-1.59263e-05 8.73648e-06 0)
(6.38074e-05 -7.01496e-05 0)
(0.000109088 -0.000112193 0)
(9.0493e-05 -9.02406e-05 0)
(1.73681e-05 -1.51613e-05 0)
(-6.72556e-05 6.9873e-05 0)
(-0.000112937 0.000115179 0)
(-9.27332e-05 9.44896e-05 0)
(-1.93561e-05 2.05125e-05 0)
(6.31906e-05 -6.32082e-05 0)
(0.000106784 -0.000108708 0)
(8.79202e-05 -9.17978e-05 0)
(2.05129e-05 -2.51001e-05 0)
(-5.42435e-05 5.11543e-05 0)
(-9.35551e-05 9.38808e-05 0)
(-7.79649e-05 8.1936e-05 0)
(-2.07702e-05 2.64305e-05 0)
(4.23999e-05 -3.82817e-05 0)
(7.60108e-05 -7.60576e-05 0)
(6.47684e-05 -6.93101e-05 0)
(2.00023e-05 -2.67219e-05 0)
(-2.98783e-05 2.46498e-05 0)
(-5.7399e-05 5.64937e-05 0)
(-5.10684e-05 5.4759e-05 0)
(-1.92813e-05 2.51201e-05 0)
(1.74258e-05 -1.30952e-05 0)
(3.94816e-05 -3.92851e-05 0)
(3.8434e-05 -4.24038e-05 0)
(1.90858e-05 -2.47335e-05 0)
(-5.85198e-06 1.9077e-06 0)
(-2.38982e-05 2.38035e-05 0)
(-2.86126e-05 3.19963e-05 0)
(-2.07001e-05 2.50158e-05 0)
(-5.47718e-06 7.70511e-06 0)
(1.05181e-05 -1.19249e-05 0)
(2.16938e-05 -2.58613e-05 0)
(2.42109e-05 -2.84726e-05 0)
(1.65491e-05 -1.82128e-05 0)
(5.34795e-07 1.36505e-06 0)
(-1.79254e-05 2.20152e-05 0)
(-3.00448e-05 3.35122e-05 0)
(-2.80411e-05 2.84526e-05 0)
(-1.02038e-05 7.06113e-06 0)
(1.62119e-05 -2.11618e-05 0)
(3.72102e-05 -4.10904e-05 0)
(3.93896e-05 -3.99952e-05 0)
(1.85841e-05 -1.57216e-05 0)
(-1.58305e-05 2.02948e-05 0)
(-4.47313e-05 4.8082e-05 0)
(-4.99703e-05 5.03018e-05 0)
(-2.59517e-05 2.32135e-05 0)
(1.54546e-05 -1.96152e-05 0)
(5.06421e-05 -5.40356e-05 0)
(5.80129e-05 -5.9226e-05 0)
(3.1555e-05 -3.05994e-05 0)
(-1.44758e-05 1.65065e-05 0)
(-5.33469e-05 5.52182e-05 0)
(-6.18076e-05 6.29512e-05 0)
(-3.44636e-05 3.50771e-05 0)
(1.25758e-05 -1.21193e-05 0)
(5.13358e-05 -5.12284e-05 0)
(5.90835e-05 -6.02613e-05 0)
(3.22512e-05 -3.56835e-05 0)
(-1.1599e-05 6.17617e-06 0)
(-4.50099e-05 3.99902e-05 0)
(-4.81195e-05 4.7534e-05 0)
(-2.09958e-05 2.83219e-05 0)
(1.69259e-05 -2.17326e-06 0)
(3.96838e-05 -2.42046e-05 0)
(2.0424e-05 -2.14985e-05 0)
(-1.95841e-05 1.45571e-05 0)
(-5.84266e-05 4.17938e-05 0)
(-5.49885e-05 4.13996e-05 0)
(-1.68354e-05 5.69992e-06 0)
(3.96872e-05 -4.69186e-05 0)
(7.98705e-05 -8.07488e-05 0)
(7.31411e-05 -6.79605e-05 0)
(1.73724e-05 -9.54845e-06 0)
(-5.61311e-05 6.23753e-05 0)
(-0.000101211 0.000103378 0)
(-8.67562e-05 8.5002e-05 0)
(-1.80543e-05 1.42761e-05 0)
(6.49272e-05 -6.87701e-05 0)
(0.000111816 -0.00011479 0)
(9.32864e-05 -9.53857e-05 0)
(1.96153e-05 -2.09317e-05 0)
(-6.54736e-05 6.53615e-05 0)
(-0.000111657 0.000113427 0)
(-9.25815e-05 9.62549e-05 0)
(-2.11496e-05 2.53954e-05 0)
(5.94053e-05 -5.69551e-05 0)
(0.000102374 -0.000103762 0)
(8.5257e-05 -9.06503e-05 0)
(2.15644e-05 -2.86919e-05 0)
(-4.9403e-05 4.42277e-05 0)
(-8.71996e-05 8.69394e-05 0)
(-7.36223e-05 7.85875e-05 0)
(-2.11318e-05 2.85662e-05 0)
(3.72533e-05 -3.16821e-05 0)
(6.8855e-05 -6.85063e-05 0)
(5.96869e-05 -6.49097e-05 0)
(1.99453e-05 -2.78433e-05 0)
(-2.49058e-05 1.87368e-05 0)
(-5.03639e-05 4.91974e-05 0)
(-4.61137e-05 5.01796e-05 0)
(-1.92192e-05 2.56759e-05 0)
(1.27777e-05 -8.01805e-06 0)
(3.31052e-05 -3.28732e-05 0)
(3.42151e-05 -3.84557e-05 0)
(1.94257e-05 -2.54027e-05 0)
(-1.4355e-06 -2.68835e-06 0)
(-1.83511e-05 1.8274e-05 0)
(-2.5427e-05 2.89299e-05 0)
(-2.17344e-05 2.6144e-05 0)
(-9.8707e-06 1.21104e-05 0)
(5.70013e-06 -7.1487e-06 0)
(1.95463e-05 -2.37575e-05 0)
(2.60389e-05 -3.03421e-05 0)
(2.11004e-05 -2.28533e-05 0)
(4.85933e-06 -3.13292e-06 0)
(-1.65763e-05 2.04627e-05 0)
(-3.24985e-05 3.58818e-05 0)
(-3.27348e-05 3.33263e-05 0)
(-1.42205e-05 1.1519e-05 0)
(1.53006e-05 -1.97684e-05 0)
(3.98736e-05 -4.35812e-05 0)
(4.39406e-05 -4.49384e-05 0)
(2.23115e-05 -2.03451e-05 0)
(-1.49772e-05 1.84692e-05 0)
(-4.69864e-05 4.98828e-05 0)
(-5.37956e-05 5.4589e-05 0)
(-2.91412e-05 2.76776e-05 0)
(1.44105e-05 -1.71172e-05 0)
(5.1817e-05 -5.4432e-05 0)
(6.03068e-05 -6.19993e-05 0)
(3.36325e-05 -3.43337e-05 0)
(-1.33111e-05 1.32873e-05 0)
(-5.29394e-05 5.34666e-05 0)
(-6.1653e-05 6.29985e-05 0)
(-3.44413e-05 3.68512e-05 0)
(1.18975e-05 -8.92116e-06 0)
(4.91699e-05 -4.72261e-05 0)
(5.54279e-05 -5.65967e-05 0)
(2.86683e-05 -3.39438e-05 0)
(-1.22513e-05 4.61589e-06 0)
(-4.02564e-05 3.49693e-05 0)
(-3.82658e-05 4.05004e-05 0)
(-1.11272e-05 2.12381e-05 0)
(1.71776e-05 -7.11475e-06 0)
(1.51555e-05 -1.82685e-05 0)
(3.12526e-06 -1.17136e-05 0)
(-2.54382e-05 2.29474e-05 0)
(-5.60996e-05 5.73372e-05 0)
(-5.75336e-05 5.46017e-05 0)
(-1.72631e-05 1.00078e-05 0)
(4.46402e-05 -5.10751e-05 0)
(8.74087e-05 -8.92889e-05 0)
(7.88038e-05 -7.61837e-05 0)
(1.87268e-05 -1.41991e-05 0)
(-5.85193e-05 6.22981e-05 0)
(-0.00010504 0.000106957 0)
(-8.99726e-05 9.0398e-05 0)
(-1.99828e-05 1.96241e-05 0)
(6.3874e-05 -6.49642e-05 0)
(0.000111224 -0.000113611 0)
(9.34897e-05 -9.74069e-05 0)
(2.14199e-05 -2.58526e-05 0)
(-6.18423e-05 5.90638e-05 0)
(-0.000107392 0.000108309 0)
(-9.00258e-05 9.4911e-05 0)
(-2.23817e-05 2.90082e-05 0)
(5.42164e-05 -4.96352e-05 0)
(9.55754e-05 -9.61756e-05 0)
(8.06287e-05 -8.67897e-05 0)
(2.20722e-05 -3.08695e-05 0)
(-4.36087e-05 3.68767e-05 0)
(-7.91483e-05 7.82006e-05 0)
(-6.78768e-05 7.31585e-05 0)
(-2.10707e-05 2.93999e-05 0)
(3.15316e-05 -2.51073e-05 0)
(6.0658e-05 -5.99199e-05 0)
(5.3764e-05 -5.9106e-05 0)
(1.96405e-05 -2.79242e-05 0)
(-1.96252e-05 1.30957e-05 0)
(-4.28026e-05 4.14475e-05 0)
(-4.07732e-05 4.47891e-05 0)
(-1.90705e-05 2.55066e-05 0)
(7.99277e-06 -3.2811e-06 0)
(2.65537e-05 -2.63561e-05 0)
(2.99149e-05 -3.40994e-05 0)
(1.97802e-05 -2.55971e-05 0)
(3.0087e-06 -6.9596e-06 0)
(-1.28273e-05 1.27986e-05 0)
(-2.22954e-05 2.56529e-05 0)
(-2.27753e-05 2.69179e-05 0)
(-1.41762e-05 1.62064e-05 0)
(1.01487e-06 -2.45982e-06 0)
(1.7451e-05 -2.14443e-05 0)
(2.77426e-05 -3.1793e-05 0)
(2.53898e-05 -2.70984e-05 0)
(8.96893e-06 -7.52666e-06 0)
(-1.51796e-05 1.85819e-05 0)
(-3.45701e-05 3.75984e-05 0)
(-3.68875e-05 3.75706e-05 0)
(-1.78958e-05 1.57906e-05 0)
(1.42136e-05 -1.7885e-05 0)
(4.18146e-05 -4.50519e-05 0)
(4.75722e-05 -4.88462e-05 0)
(2.54922e-05 -2.45501e-05 0)
(-1.3855e-05 1.60706e-05 0)
(-4.81619e-05 5.02797e-05 0)
(-5.62578e-05 5.73284e-05 0)
(-3.14751e-05 3.13284e-05 0)
(1.31225e-05 -1.41266e-05 0)
(5.16449e-05 -5.31386e-05 0)
(6.08034e-05 -6.26861e-05 0)
(3.44475e-05 -3.66883e-05 0)
(-1.21002e-05 9.92964e-06 0)
(-5.108e-05 5.00088e-05 0)
(-5.93408e-05 6.05572e-05 0)
(-3.27324e-05 3.65905e-05 0)
(1.14267e-05 -6.26315e-06 0)
(4.55642e-05 -4.19803e-05 0)
(4.96461e-05 -5.05191e-05 0)
(2.39247e-05 -2.98101e-05 0)
(-1.1991e-05 4.19244e-06 0)
(-3.35053e-05 2.8878e-05 0)
(-2.93772e-05 2.98535e-05 0)
(-1.0004e-05 1.06735e-05 0)
(3.44334e-06 -6.63228e-06 0)
(2.58406e-05 -3.41349e-05 0)
(2.61705e-05 -1.33843e-05 0)
(-2.25003e-05 3.68622e-05 0)
(-6.50309e-05 7.09076e-05 0)
(-6.62258e-05 6.31537e-05 0)
(-1.9439e-05 1.29024e-05 0)
(4.8008e-05 -5.31066e-05 0)
(9.24304e-05 -9.43823e-05 0)
(8.23232e-05 -8.20729e-05 0)
(1.99231e-05 -1.90628e-05 0)
(-5.86736e-05 5.9516e-05 0)
(-0.000105399 0.000106762 0)
(-9.04408e-05 9.29544e-05 0)
(-2.14196e-05 2.45511e-05 0)
(6.08454e-05 -5.90055e-05 0)
(0.000107375 -0.000108935 0)
(9.09949e-05 -9.6481e-05 0)
(2.24977e-05 -2.98721e-05 0)
(-5.6744e-05 5.13111e-05 0)
(-0.00010046 0.000100337 0)
(-8.51492e-05 9.09159e-05 0)
(-2.28146e-05 3.15014e-05 0)
(4.80994e-05 -4.15244e-05 0)
(8.68676e-05 -8.65416e-05 0)
(7.42588e-05 -8.08289e-05 0)
(2.18633e-05 -3.19389e-05 0)
(-3.735e-05 2.92709e-05 0)
(-6.99426e-05 6.82194e-05 0)
(-6.10212e-05 6.62892e-05 0)
(-2.04707e-05 2.93178e-05 0)
(2.5685e-05 -1.86137e-05 0)
(5.19394e-05 -5.07375e-05 0)
(4.72947e-05 -5.24609e-05 0)
(1.90061e-05 -2.73468e-05 0)
(-1.44229e-05 7.70053e-06 0)
(-3.5163e-05 3.35414e-05 0)
(-3.52947e-05 3.90079e-05 0)
(-1.87582e-05 2.49198e-05 0)
(3.39788e-06 1.17343e-06 0)
(2.01873e-05 -1.99045e-05 0)
(2.57076e-05 -2.95931e-05 0)
(2.00477e-05 -2.55038e-05 0)
(7.18763e-06 -1.09417e-05 0)
(-7.61396e-06 7.46392e-06 0)
(-1.93168e-05 2.22768e-05 0)
(-2.36774e-05 2.73876e-05 0)
(-1.81037e-05 1.99641e-05 0)
(-3.29296e-06 2.08681e-06 0)
(1.5448e-05 -1.89284e-05 0)
(2.91269e-05 -3.27512e-05 0)
(2.9104e-05 -3.08327e-05 0)
(1.26248e-05 -1.17445e-05 0)
(-1.37494e-05 1.63307e-05 0)
(-3.60324e-05 3.85062e-05 0)
(-4.01587e-05 4.09937e-05 0)
(-2.09715e-05 1.97582e-05 0)
(1.29778e-05 -1.54799e-05 0)
(4.2812e-05 -4.53301e-05 0)
(4.99374e-05 -5.14923e-05 0)
(2.78393e-05 -2.81699e-05 0)
(-1.25437e-05 1.3129e-05 0)
(-4.80995e-05 4.91637e-05 0)
(-5.70511e-05 5.83328e-05 0)
(-3.26553e-05 3.39817e-05 0)
(1.17435e-05 -1.07633e-05 0)
(5.00797e-05 -5.0187e-05 0)
(5.93019e-05 -6.12333e-05 0)
(3.37553e-05 -3.75352e-05 0)
(-1.10261e-05 6.62573e-06 0)
(-4.78559e-05 4.50794e-05 0)
(-5.49114e-05 5.58539e-05 0)
(-2.93781e-05 3.44294e-05 0)
(1.12077e-05 -4.20513e-06 0)
(4.08784e-05 -3.58389e-05 0)
(4.24931e-05 -4.27472e-05 0)
(1.85692e-05 -2.44726e-05 0)
(-1.20754e-05 3.33783e-06 0)
(-2.94685e-05 2.0956e-05 0)
(-2.71349e-05 1.92747e-05 0)
(-7.79819e-06 5.75938e-06 0)
(3.44764e-05 -3.72845e-05 0)
(6.52121e-05 -4.37736e-05 0)
(2.61324e-05 -8.12629e-06 0)
(-3.34742e-05 4.21176e-05 0)
(-7.57136e-05 7.62324e-05 0)
(-7.16284e-05 6.83425e-05 0)
(-1.99027e-05 1.6484e-05 0)
(4.97998e-05 -5.19541e-05 0)
(9.40182e-05 -9.55859e-05 0)
(8.3048e-05 -8.52462e-05 0)
(2.0767e-05 -2.3708e-05 0)
(-5.65496e-05 5.43862e-05 0)
(-0.000102204 0.000102922 0)
(-8.80898e-05 9.24855e-05 0)
(-2.22613e-05 2.85889e-05 0)
(5.60172e-05 -5.14873e-05 0)
(0.000100484 -0.000101236 0)
(8.5946e-05 -9.27301e-05 0)
(2.28083e-05 -3.26638e-05 0)
(-5.04327e-05 4.27616e-05 0)
(-9.12281e-05 9.01965e-05 0)
(-7.8232e-05 8.46372e-05 0)
(-2.2472e-05 3.27208e-05 0)
(4.13217e-05 -3.32339e-05 0)
(7.66718e-05 -7.56165e-05 0)
(6.64855e-05 -7.32743e-05 0)
(2.10017e-05 -3.18957e-05 0)
(-3.08686e-05 2.1908e-05 0)
(-5.99819e-05 5.77043e-05 0)
(-5.33783e-05 5.85149e-05 0)
(-1.94013e-05 2.84124e-05 0)
(1.99152e-05 -1.25646e-05 0)
(4.30306e-05 -4.15446e-05 0)
(4.05351e-05 -4.54488e-05 0)
(1.80835e-05 -2.62347e-05 0)
(-9.46823e-06 2.80075e-06 0)
(-2.76941e-05 2.59169e-05 0)
(-2.98421e-05 3.3197e-05 0)
(-1.8269e-05 2.40118e-05 0)
(-8.48287e-07 5.16528e-06 0)
(1.41851e-05 -1.38264e-05 0)
(2.16641e-05 -2.51696e-05 0)
(2.01436e-05 -2.51508e-05 0)
(1.09252e-05 -1.44707e-05 0)
(-2.85038e-06 2.49354e-06 0)
(-1.64879e-05 1.89269e-05 0)
(-2.42842e-05 2.74987e-05 0)
(-2.14388e-05 2.31924e-05 0)
(-7.09223e-06 6.29749e-06 0)
(1.34884e-05 -1.62705e-05 0)
(2.99773e-05 -3.30945e-05 0)
(3.19833e-05 -3.38172e-05 0)
(1.56779e-05 -1.55735e-05 0)
(-1.22284e-05 1.37647e-05 0)
(-3.66472e-05 3.84607e-05 0)
(-4.2262e-05 4.33226e-05 0)
(-2.32739e-05 2.31641e-05 0)
(1.15608e-05 -1.26608e-05 0)
(4.26526e-05 -4.43167e-05 0)
(5.07643e-05 -5.26185e-05 0)
(2.91668e-05 -3.09081e-05 0)
(-1.10612e-05 9.84746e-06 0)
(-4.66648e-05 4.65592e-05 0)
(-5.59797e-05 5.74396e-05 0)
(-3.25271e-05 3.53512e-05 0)
(1.03325e-05 -7.33207e-06 0)
(4.70998e-05 -4.57912e-05 0)
(5.57602e-05 -5.76824e-05 0)
(3.15374e-05 -3.67136e-05 0)
(-1.01061e-05 3.71165e-06 0)
(-4.33688e-05 3.91126e-05 0)
(-4.86083e-05 4.93066e-05 0)
(-2.46682e-05 3.0623e-05 0)
(1.11503e-05 -2.83707e-06 0)
(3.53352e-05 -2.94338e-05 0)
(3.40941e-05 -3.45294e-05 0)
(1.16502e-05 -1.92633e-05 0)
(-1.46211e-05 2.47686e-06 0)
(-2.73315e-05 1.56032e-05 0)
(-1.29292e-05 1.21184e-05 0)
(2.36005e-05 -1.776e-05 0)
(6.73302e-05 -4.75024e-05 0)
(5.93783e-05 -4.80895e-05 0)
(1.69814e-05 -1.30188e-05 0)
(-4.03975e-05 4.04909e-05 0)
(-7.92063e-05 7.80788e-05 0)
(-7.23277e-05 7.19129e-05 0)
(-1.96832e-05 2.05377e-05 0)
(4.90009e-05 -4.80943e-05 0)
(9.17804e-05 -9.29318e-05 0)
(8.0941e-05 -8.53141e-05 0)
(2.12151e-05 -2.75739e-05 0)
(-5.23548e-05 4.7395e-05 0)
(-9.57604e-05 9.56689e-05 0)
(-8.31297e-05 8.88868e-05 0)
(-2.24479e-05 3.13281e-05 0)
(4.97552e-05 -4.29634e-05 0)
(9.10703e-05 -9.09727e-05 0)
(7.87427e-05 -8.62992e-05 0)
(2.23899e-05 -3.39748e-05 0)
(-4.32861e-05 3.39561e-05 0)
(-8.03018e-05 7.84544e-05 0)
(-6.97797e-05 7.63798e-05 0)
(-2.14739e-05 3.25552e-05 0)
(3.4216e-05 -2.52263e-05 0)
(6.5581e-05 -6.39636e-05 0)
(5.78268e-05 -6.44915e-05 0)
(1.96494e-05 -3.07273e-05 0)
(-2.44236e-05 1.51458e-05 0)
(-4.97712e-05 4.71404e-05 0)
(-4.54006e-05 5.01777e-05 0)
(-1.80206e-05 2.6714e-05 0)
(1.44097e-05 -7.22171e-06 0)
(3.43159e-05 -3.27145e-05 0)
(3.38262e-05 -3.83323e-05 0)
(1.69875e-05 -2.46068e-05 0)
(-4.89969e-06 -1.40308e-06 0)
(-2.06638e-05 1.88425e-05 0)
(-2.46326e-05 2.75181e-05 0)
(-1.76478e-05 2.27488e-05 0)
(-4.62295e-06 8.50897e-06 0)
(8.72783e-06 -8.31979e-06 0)
(1.78905e-05 -2.08999e-05 0)
(2.00333e-05 -2.44319e-05 0)
(1.40828e-05 -1.73335e-05 0)
(1.32958e-06 -1.93679e-06 0)
(-1.38359e-05 1.5617e-05 0)
(-2.44909e-05 2.70784e-05 0)
(-2.40111e-05 2.56265e-05 0)
(-1.02615e-05 9.97398e-06 0)
(1.15595e-05 -1.34748e-05 0)