/*--------------------------------*- C++ -*----------------------------------*\
| =========                 |                                                 |
| \\      /  F ield         | OpenFOAM: The Open Source CFD Toolbox           |
|  \\    /   O peration     | Version:  2412                                  |
|   \\  /    A nd           | Website:  www.openfoam.com                      |
|    \\/     M anipulation  |                                                 |
\*---------------------------------------------------------------------------*/
FoamFile
{
    version     2.0;
    format      ascii;
    arch        "LSB;label=32;scalar=64";
    class       surfaceScalarField;
    location    "3.75";
    object      alphaPhi0.honey;
}
// * * * * * * * * * * * * * * * * * * * * * * * * * * * * * * * * * * * * * //

dimensions      [0 3 -1 0 0 0 0];

oriented        oriented;

internalField   nonuniform List<scalar> 
12640
(
3.40746e-14
-3.4023e-14
1.4739e-13
2.21308e-13
1.15532e-14
4.55035e-13
-3.25413e-13
6.33345e-13
-8.18275e-13
7.8028e-13
-1.4376e-12
8.97682e-13
-2.15572e-12
9.85441e-13
-2.94755e-12
1.04632e-12
-3.78808e-12
1.08062e-12
-4.6565e-12
1.09251e-12
-5.53499e-12
1.08501e-12
-6.40868e-12
1.06091e-12
-7.2646e-12
1.02215e-12
-8.0913e-12
9.70162e-13
-8.8778e-12
9.05491e-13
-9.61593e-12
8.31033e-13
-1.02976e-11
7.47028e-13
-1.09164e-11
6.55192e-13
-1.14651e-11
5.554e-13
-1.19378e-11
4.48646e-13
-1.23275e-11
3.34583e-13
-1.26297e-11
2.16012e-13
-1.28394e-11
9.24572e-14
-1.29523e-11
-3.46976e-14
-1.29643e-11
-1.65353e-13
-1.28729e-11
-2.97262e-13
-1.26758e-11
-4.30289e-13
-1.23723e-11
-5.62303e-13
-1.19625e-11
-6.92574e-13
-1.14486e-11
-8.18715e-13
-1.08336e-11
-9.39946e-13
-1.01225e-11
-1.05422e-12
-9.32083e-12
-1.16074e-12
-8.43606e-12
-1.2578e-12
-7.47623e-12
-1.34478e-12
-6.45078e-12
-1.42036e-12
-5.36996e-12
-1.48379e-12
-4.24532e-12
-1.53387e-12
-3.0892e-12
-1.5699e-12
-1.9145e-12
-1.59142e-12
-7.3433e-13
-1.5983e-12
4.3849e-13
-1.59094e-12
1.59124e-12
-1.56949e-12
2.71198e-12
-1.53478e-12
3.78879e-12
-1.48691e-12
4.8109e-12
-1.42698e-12
5.76765e-12
-1.35518e-12
6.65021e-12
-1.27324e-12
7.45026e-12
-1.18171e-12
8.16183e-12
-1.08283e-12
8.77931e-12
-9.76935e-13
9.29932e-12
-8.66146e-13
9.71848e-12
-7.50418e-13
1.00359e-11
-6.32187e-13
1.0251e-11
-5.11574e-13
1.03656e-11
-3.91147e-13
1.03812e-11
-2.70379e-13
1.03013e-11
-1.5135e-13
1.01288e-11
-3.34777e-14
9.86936e-12
8.03634e-14
9.5282e-12
1.90357e-13
9.1127e-12
2.94307e-13
8.62816e-12
3.93885e-13
8.08136e-12
4.87409e-13
7.47838e-12
5.75116e-13
6.8286e-12
6.53394e-13
6.14095e-12
7.22242e-13
5.42578e-12
7.79933e-13
4.69193e-12
8.27518e-13
3.95117e-12
8.61872e-13
3.21676e-12
8.8117e-13
2.50605e-12
8.81228e-13
1.8374e-12
8.60829e-13
1.23148e-12
8.17691e-13
7.08359e-13
7.52287e-13
2.9035e-13
6.62321e-13
-1.3021e-15
5.48615e-13
-1.52042e-13
4.17585e-13
-1.47177e-13
2.68887e-13
1.1534e-13
1.67495e-14
2.83977e-13
-1.21509e-13
9.83895e-13
-7.11164e-13
1.63108e-12
-1.71049e-12
2.18674e-12
-3.05998e-12
2.66436e-12
-4.70621e-12
3.05706e-12
-6.58873e-12
3.35629e-12
-8.64687e-12
3.5648e-12
-1.08259e-11
3.68899e-12
-1.30747e-11
3.73647e-12
-1.53478e-11
3.71604e-12
-1.76048e-11
3.63523e-12
-1.98118e-11
3.50254e-12
-2.19397e-11
3.32434e-12
-2.39611e-11
3.10297e-12
-2.58512e-11
2.84425e-12
-2.75903e-11
2.55392e-12
-2.91585e-11
2.23401e-12
-3.05398e-11
1.88874e-12
-3.17171e-11
1.51869e-12
-3.26761e-11
1.12676e-12
-3.34024e-11
7.16437e-13
-3.38858e-11
2.9202e-13
-3.41151e-11
-1.45563e-13
-3.40826e-11
-5.92303e-13
-3.3781e-11
-1.04489e-12
-3.32078e-11
-1.49821e-12
-3.23614e-11
-1.94878e-12
-3.12447e-11
-2.39101e-12
-2.98625e-11
-2.82055e-12
-2.82244e-11
-3.23175e-12
-2.6342e-11
-3.62039e-12
-2.42312e-11
-3.98139e-12
-2.19102e-11
-4.31105e-12
-1.94006e-11
-4.60518e-12
-1.67263e-11
-4.86045e-12
-1.39143e-11
-5.07306e-12
-1.09939e-11
-5.23991e-12
-7.99622e-12
-5.3584e-12
-4.95377e-12
-5.42707e-12
-1.89922e-12
-5.44567e-12
1.1346e-12
-5.4146e-12
4.11609e-12
-5.33535e-12
7.01397e-12
-5.20915e-12
9.79911e-12
-5.03828e-12
1.2443e-11
-4.82446e-12
1.49205e-11
-4.57121e-12
1.72078e-11
-4.28163e-12
1.9286e-11
-3.96093e-12
2.11378e-11
-3.61288e-12
2.27508e-11
-3.24275e-12
2.41138e-11
-2.85357e-12
2.5221e-11
-2.45062e-12
2.60677e-11
-2.03732e-12
2.66552e-11
-1.61959e-12
2.69848e-11
-1.20021e-12
2.7063e-11
-7.8356e-13
2.68951e-11
-3.71024e-13
2.64922e-11
3.2543e-14
2.58646e-11
4.24245e-13
2.50281e-11
7.98906e-13
2.39959e-11
1.156e-12
2.27846e-11
1.49344e-12
2.14092e-11
1.81067e-12
1.98896e-11
2.10192e-12
1.82459e-11
2.36303e-12
1.6502e-11
2.58919e-12
1.46806e-11
2.77946e-12
1.28093e-11
2.92937e-12
1.09177e-11
3.03303e-12
9.04298e-12
3.08113e-12
7.22444e-12
3.06674e-12
5.50684e-12
2.98317e-12
3.93687e-12
2.82599e-12
2.56568e-12
2.59104e-12
1.44374e-12
2.27648e-12
6.12605e-13
1.89186e-12
1.05824e-13
1.45128e-12
-3.82223e-14
9.3397e-13
3.19597e-13
-1.13603e-13
7.16767e-13
-6.37721e-13
2.0937e-12
-1.76957e-12
3.31194e-12
-3.44596e-12
4.38317e-12
-5.59578e-12
5.3158e-12
-8.15224e-12
6.09451e-12
-1.10376e-11
6.69878e-12
-1.41668e-11
7.12436e-12
-1.74634e-11
7.38617e-12
-2.08568e-11
7.49786e-12
-2.42802e-11
7.47171e-12
-2.76758e-11
7.32421e-12
-3.09893e-11
7.06754e-12
-3.41779e-11
6.71935e-12
-3.72014e-11
6.28505e-12
-4.00245e-11
5.7756e-12
-4.26139e-11
5.19893e-12
-4.49411e-11
4.56261e-12
-4.69793e-11
3.87294e-12
-4.87064e-11
3.13587e-12
-5.00995e-11
2.35417e-12
-5.11394e-11
1.53529e-12
-5.18075e-11
6.85183e-13
-5.20909e-11
-1.89527e-13
-5.19769e-11
-1.08355e-12
-5.14586e-11
-1.98799e-12
-5.05305e-11
-2.89536e-12
-4.91935e-11
-3.79594e-12
-4.74511e-11
-4.6812e-12
-4.5313e-11
-5.54036e-12
-4.27923e-11
-6.36425e-12
-3.99085e-11
-7.14259e-12
-3.66842e-11
-7.86681e-12
-3.31479e-11
-8.52775e-12
-2.93316e-11
-9.11776e-12
-2.5272e-11
-9.62876e-12
-2.10095e-11
-1.00538e-11
-1.65879e-11
-1.03863e-11
-1.20535e-11
-1.06215e-11
-7.45406e-12
-1.07565e-11
-2.83834e-12
-1.07902e-11
1.74561e-12
-1.0724e-11
6.25003e-12
-1.05596e-11
1.06294e-11
-1.03006e-11
1.4839e-11
-9.95028e-12
1.88382e-11
-9.51405e-12
2.2588e-11
-8.9975e-12
2.60555e-11
-8.40929e-12
2.92101e-11
-7.75743e-12
3.20284e-11
-7.05209e-12
3.44889e-11
-6.30103e-12
3.65775e-11
-5.51412e-12
3.82827e-11
-4.6992e-12
3.96006e-11
-3.86718e-12
4.05293e-11
-3.02601e-12
4.10735e-11
-2.18503e-12
4.12387e-11
-1.3492e-12
4.10365e-11
-5.26172e-13
4.04791e-11
2.78338e-13
3.95851e-11
1.05494e-12
3.83726e-11
1.79868e-12
3.68641e-11
2.50429e-12
3.50807e-11
3.17035e-12
3.3049e-11
3.79048e-12
3.07959e-11
4.35794e-12
2.83529e-11
4.86309e-12
2.57519e-11
5.3005e-12
2.30298e-11
5.66318e-12
2.02266e-11
5.94326e-12
1.73892e-11
6.12737e-12
1.45689e-11
6.20156e-12
1.18238e-11
6.15177e-12
9.21544e-12
5.96754e-12
6.81175e-12
5.63813e-12
4.68517e-12
5.15431e-12
2.90083e-12
4.52128e-12
1.5118e-12
3.76018e-12
5.72796e-13
2.88316e-12
1.18741e-13
1.87034e-12
6.61824e-13
-2.76224e-13
1.28853e-12
-1.19369e-12
3.5627e-12
-2.87021e-12
5.50653e-12
-5.20302e-12
7.20666e-12
-8.10138e-12
8.68692e-12
-1.14805e-11
9.92632e-12
-1.52485e-11
1.08964e-11
-1.93073e-11
1.15868e-11
-2.3561e-11
1.20148e-11
-2.79224e-11
1.22027e-11
-3.23123e-11
1.21706e-11
-3.66579e-11
1.19416e-11
-4.08945e-11
1.15356e-11
-4.49626e-11
1.09758e-11
-4.88144e-11
1.02795e-11
-5.24051e-11
9.46075e-12
-5.5694e-11
8.53251e-12
-5.86426e-11
7.50452e-12
-6.1218e-11
6.38945e-12
-6.33893e-11
5.19596e-12
-6.51306e-11
3.93215e-12
-6.64154e-11
2.60558e-12
-6.72222e-11
1.2278e-12
-6.75318e-11
-1.91754e-13
-6.73317e-11
-1.64096e-12
-6.6611e-11
-3.10853e-12
-6.53658e-11
-4.57996e-12
-6.35955e-11
-6.04187e-12
-6.13071e-11
-7.47797e-12
-5.85119e-11
-8.87328e-12
-5.52287e-11
-1.0211e-11
-5.14807e-11
-1.14764e-11
-4.72988e-11
-1.26536e-11
-4.27185e-11
-1.37287e-11
-3.7782e-11
-1.46876e-11
-3.2536e-11
-1.55179e-11
-2.70327e-11
-1.62075e-11
-2.13278e-11
-1.67462e-11
-1.54804e-11
-1.71262e-11
-9.55146e-12
-1.73428e-11
-3.60253e-12
-1.73946e-11
2.30465e-12
-1.72828e-11
8.10997e-12
-1.70108e-11
1.37541e-11
-1.65832e-11
1.91815e-11
-1.60067e-11
2.43384e-11
-1.5289e-11
2.91776e-11
-1.44418e-11
3.3655e-11
-1.34772e-11
3.77342e-11
-1.24105e-11
4.13823e-11
-1.12557e-11
4.45749e-11
-1.00285e-11
4.72911e-11
-8.74243e-12
4.95191e-11
-7.41443e-12
5.12509e-11
-6.05885e-12
5.24869e-11
-4.69213e-12
5.32293e-11
-3.32536e-12
5.3488e-11
-1.97097e-12
5.32742e-11
-6.38019e-13
5.26067e-11
6.60032e-13
5.15051e-11
1.91299e-12
4.9995e-11
3.10979e-12
4.81011e-11
4.24557e-12
4.58541e-11
5.31281e-12
4.32848e-11
6.3043e-12
4.04295e-11
7.20745e-12
3.73246e-11
8.01186e-12
3.40125e-11
8.70557e-12
3.05389e-11
9.27771e-12
2.69563e-11
9.71294e-12
2.3321e-11
9.99387e-12
1.96964e-11
1.00987e-11
1.61528e-11
1.00066e-11
1.27669e-11
9.69995e-12
9.62265e-12
9.16101e-12
6.80565e-12
8.37818e-12
4.39156e-12
7.36626e-12
2.45419e-12
6.14786e-12
1.05927e-12
4.74255e-12
2.65527e-13
3.11861e-12
1.14113e-12
-4.25937e-13
2.00004e-12
-1.70915e-12
5.37562e-12
-3.89704e-12
8.19171e-12
-6.84286e-12
1.06229e-11
-1.04325e-11
1.27291e-11
-1.45593e-11
1.44854e-11
-1.91129e-11
1.58592e-11
-2.3986e-11
1.68433e-11
-2.90692e-11
1.74529e-11
-3.42606e-11
1.77178e-11
-3.94701e-11
1.76696e-11
-4.46153e-11
1.73395e-11
-4.96241e-11
1.67574e-11
-5.44284e-11
1.59508e-11
-5.89699e-11
1.49469e-11
-6.31981e-11
1.37681e-11
-6.70651e-11
1.24304e-11
-7.05287e-11
1.09496e-11
-7.35476e-11
9.34004e-12
-7.60867e-11
7.61707e-12
-7.81128e-11
5.79134e-12
-7.95977e-11
3.87592e-12
-8.0514e-11
1.88359e-12
-8.08407e-11
-1.69015e-13
-8.05601e-11
-2.26648e-12
-7.96619e-11
-4.38968e-12
-7.81392e-11
-6.52029e-12
-7.59939e-11
-8.63628e-12
-7.32324e-11
-1.07167e-11
-6.98699e-11
-1.27377e-11
-6.59268e-11
-1.46773e-11
-6.14328e-11
-1.65119e-11
-5.6423e-11
-1.82199e-11
-5.09411e-11
-1.97794e-11
-4.50363e-11
-2.11708e-11
-3.87653e-11
-2.23746e-11
-3.21894e-11
-2.33738e-11
-2.53756e-11
-2.41533e-11
-1.83936e-11
-2.47022e-11
-1.13157e-11
-2.50137e-11
-4.21503e-12
-2.50856e-11
2.83559e-12
-2.49194e-11
9.76373e-12
-2.4519e-11
1.64999e-11
-2.38919e-11
2.29764e-11
-2.30469e-11
2.91316e-11
-2.19975e-11
3.49075e-11
-2.07591e-11
4.02544e-11
-1.93519e-11
4.51269e-11
-1.77959e-11
4.94891e-11
-1.6114e-11
5.33091e-11
-1.43264e-11
5.65658e-11
-1.24569e-11
5.92424e-11
-1.0527e-11
6.13329e-11
-8.56141e-12
6.2834e-11
-6.57965e-12
6.37518e-11
-4.60176e-12
6.40944e-11
-2.64213e-12
6.38787e-11
-7.18726e-13
6.31235e-11
1.15322e-12
6.18552e-11
2.95589e-12
6.01002e-11
4.67823e-12
5.78912e-11
6.30889e-12
5.5261e-11
7.83978e-12
5.22488e-11
9.25744e-12
4.88934e-11
1.05489e-11
4.52391e-11
1.16979e-11
4.13332e-11
1.26889e-11
3.72303e-11
1.35031e-11
3.29891e-11
1.41209e-11
2.86746e-11
1.45176e-11
2.43584e-11
1.46648e-11
2.01208e-11
1.45323e-11
1.6051e-11
1.40932e-11
1.22446e-11
1.33233e-11
8.79497e-12
1.22125e-11
5.79641e-12
1.07742e-11
3.33921e-12
9.03463e-12
1.50334e-12
7.02297e-12
3.97471e-13
4.65977e-12
1.7418e-12
-5.55216e-13
2.83055e-12
-2.17268e-12
7.49854e-12
-4.83044e-12
1.13233e-11
-8.34621e-12
1.45863e-11
-1.25761e-11
1.73885e-11
-1.73899e-11
1.97085e-11
-2.26581e-11
2.15137e-11
-2.82588e-11
2.28044e-11
-3.40738e-11
2.35999e-11
-3.99905e-11
2.39355e-11
-4.59093e-11
2.38558e-11
-5.17391e-11
2.34003e-11
-5.74026e-11
2.26128e-11
-6.2828e-11
2.15268e-11
-6.79517e-11
2.01777e-11
-7.27153e-11
1.85936e-11
-7.70675e-11
1.67982e-11
-8.09606e-11
1.48113e-11
-8.43517e-11
1.26528e-11
-8.71986e-11
1.03394e-11
-8.94653e-11
7.88835e-12
-9.11174e-11
5.3148e-12
-9.21259e-11
2.63772e-12
-9.24641e-11
-1.23738e-13
-9.21136e-11
-2.94569e-12
-9.10596e-11
-5.80487e-12
-8.92966e-11
-8.67375e-12
-8.6824e-11
-1.15254e-11
-8.36509e-11
-1.43291e-11
-7.97921e-11
-1.70554e-11
-7.52728e-11
-1.96722e-11
-7.01247e-11
-2.21493e-11
-6.43896e-11
-2.44557e-11
-5.81156e-11
-2.65628e-11
-5.13602e-11
-2.84423e-11
-4.41871e-11
-3.00685e-11
-3.66674e-11
-3.14171e-11
-2.88768e-11
-3.24687e-11
-2.08952e-11
-3.32083e-11
-1.2805e-11
-3.36267e-11
-4.68937e-12
-3.37207e-11
3.36757e-12
-3.34913e-11
1.12837e-11
-3.29444e-11
1.89782e-11
-3.20885e-11
2.63753e-11
-3.09376e-11
3.34029e-11
-2.95091e-11
3.99975e-11
-2.78265e-11
4.61004e-11
-2.59154e-11
5.16633e-11
-2.38057e-11
5.66428e-11
-2.15253e-11
6.10066e-11
-1.91059e-11
6.47281e-11
-1.65764e-11
6.77925e-11
-1.39703e-11
7.01893e-11
-1.13169e-11
7.19192e-11
-8.64625e-12
7.29853e-11
-5.98119e-12
7.3401e-11
-3.34619e-12
7.31825e-11
-7.61819e-13
7.23553e-11
1.74745e-12
7.09458e-11
4.16303e-12
6.89874e-11
6.46678e-12
6.65138e-11
8.64719e-12
6.35651e-11
1.06896e-11
6.01815e-11
1.25804e-11
5.64082e-11
1.43013e-11
5.22921e-11
1.58339e-11
4.78871e-11
1.71556e-11
4.325e-11
1.82436e-11
3.84447e-11
1.9071e-11
3.35419e-11
1.9606e-11
2.86204e-11
1.98112e-11
2.37682e-11
1.96471e-11
1.90841e-11
1.90752e-11
1.46718e-11
1.80661e-11
1.06369e-11
1.66073e-11
7.09384e-12
1.47026e-11
4.14483e-12
1.23898e-11
1.90411e-12
9.68539e-12
5.14084e-13
6.46332e-12
2.44686e-12
-6.69566e-13
3.76286e-12
-2.5894e-12
9.89579e-12
-5.6852e-12
1.48659e-11
-9.73497e-12
1.90574e-11
-1.4566e-11
2.26229e-11
-2.00212e-11
2.55468e-11
-2.5954e-11
2.78067e-11
-3.2222e-11
2.94069e-11
-3.86974e-11
3.03816e-11
-4.526e-11
3.07739e-11
-5.18031e-11
3.06414e-11
-5.82313e-11
3.00354e-11
-6.446e-11
2.90104e-11
-7.04172e-11
2.76128e-11
-7.6036e-11
2.58835e-11
-8.12556e-11
2.38573e-11
-8.60196e-11
2.15626e-11
-9.02788e-11
1.90271e-11
-9.39856e-11
1.6273e-11
-9.70969e-11
1.33218e-11
-9.95698e-11
1.0192e-11
-1.01368e-10
6.90505e-12
-1.02455e-10
3.48216e-12
-1.02805e-10
-4.97648e-14
-1.02393e-10
-3.66319e-12
-1.01205e-10
-7.32533e-12
-9.92307e-11
-1.10037e-11
-9.6471e-11
-1.46608e-11
-9.29331e-11
-1.82601e-11
-8.86352e-11
-2.17609e-11
-8.36025e-11
-2.51244e-11
-7.78718e-11
-2.83093e-11
-7.14872e-11
-3.12773e-11
-6.45036e-11
-3.39894e-11
-5.69837e-11
-3.64096e-11
-4.89994e-11
-3.8503e-11
-4.06291e-11
-4.02392e-11
-3.19576e-11
-4.15924e-11
-2.30737e-11
-4.25435e-11
-1.40693e-11
-4.30806e-11
-5.03805e-12
-4.31983e-11
3.92656e-12
-4.28981e-11
1.27314e-11
-4.2186e-11
2.12872e-11
-4.10745e-11
2.95079e-11
-3.95808e-11
3.73155e-11
-3.77301e-11
4.46376e-11
-3.55517e-11
5.14121e-11
-3.30817e-11
5.75833e-11
-3.0356e-11
6.3107e-11
-2.74145e-11
6.79454e-11
-2.42949e-11
7.20733e-11
-2.10393e-11
7.54717e-11
-1.76869e-11
7.81336e-11
-1.42795e-11
8.00563e-11
-1.0851e-11
8.12483e-11
-7.43578e-12
8.17215e-11
-4.06155e-12
8.14989e-11
-7.59821e-13
8.06056e-11
2.44305e-12
7.90751e-11
5.52023e-12
7.69409e-11
8.45361e-12
7.42437e-11
1.12248e-11
7.10238e-11
1.38196e-11
6.73269e-11
1.6219e-11
6.31988e-11
1.84045e-11
5.86916e-11
2.03514e-11
5.38597e-11
2.20344e-11
4.87627e-11
2.3425e-11
4.3466e-11
2.44904e-11
3.80448e-11
2.5188e-11
3.25833e-11
2.5471e-11
2.71748e-11
2.52905e-11
2.19252e-11
2.45944e-11
1.69451e-11
2.33487e-11
1.23607e-11
2.15237e-11
8.29853e-12
1.91228e-11
4.88693e-12
1.61807e-11
2.27035e-12
1.26974e-11
6.1881e-13
8.50331e-12
3.24301e-12
-7.7188e-13
4.78284e-12
-2.97282e-12
1.25429e-11
-6.48388e-12
1.87938e-11
-1.10455e-11
2.40113e-11
-1.64503e-11
2.84022e-11
-2.25186e-11
3.19694e-11
-2.9079e-11
3.46985e-11
-3.59727e-11
3.66069e-11
-4.30568e-11
3.77442e-11
-5.02054e-11
3.81709e-11
-5.73057e-11
3.79576e-11
-6.42614e-11
3.71725e-11
-7.09856e-11
3.58793e-11
-7.74035e-11
3.41372e-11
-8.34483e-11
3.19955e-11
-8.90581e-11
2.9494e-11
-9.41771e-11
2.66682e-11
-9.87519e-11
2.35486e-11
-1.02734e-10
2.0163e-11
-1.06075e-10
1.65334e-11
-1.0873e-10
1.26834e-11
-1.10657e-10
8.63556e-12
-1.11818e-10
4.41824e-12
-1.12181e-10
6.10071e-14
-1.1172e-10
-4.39965e-12
-1.10414e-10
-8.92631e-12
-1.08255e-10
-1.34755e-11
-1.05239e-10
-1.80037e-11
-1.01375e-10
-2.24625e-11
-9.66813e-11
-2.6804e-11
-9.11852e-11
-3.09775e-11
-8.49242e-11
-3.49339e-11
-7.79478e-11
-3.86226e-11
-7.0314e-11
-4.19961e-11
-6.20925e-11
-4.50071e-11
-5.3361e-11
-4.76128e-11
-4.42061e-11
-4.9774e-11
-3.47203e-11
-5.14588e-11
-2.50014e-11
-5.26426e-11
-1.51511e-11
-5.33101e-11
-5.27256e-12
-5.34539e-11
4.52995e-12
-5.30744e-11
1.41545e-11
-5.21798e-11
2.35012e-11
-5.07847e-11
3.24774e-11
-4.89135e-11
4.09957e-11
-4.65966e-11
4.89798e-11
-4.38743e-11
5.63601e-11
-4.07894e-11
6.30794e-11
-3.73907e-11
6.90877e-11
-3.3725e-11
7.43483e-11
-2.98437e-11
7.88318e-11
-2.57961e-11
8.25224e-11
-2.16354e-11
8.541e-11
-1.74089e-11
8.74969e-11
-1.31635e-11
8.87898e-11
-8.9376e-12
8.93077e-11
-4.77153e-12
8.90731e-11
-6.99932e-13
8.81186e-11
3.2408e-12
8.64771e-11
7.02347e-12
8.41897e-11
1.06225e-11
8.12968e-11
1.40201e-11
7.78449e-11
1.71966e-11
7.3879e-11
2.01345e-11
6.94493e-11
2.28104e-11
6.46066e-11
2.51988e-11
5.94068e-11
2.72696e-11
5.39086e-11
2.8991e-11
4.81791e-11
3.03216e-11
4.22948e-11
3.12086e-11
3.63426e-11
3.15946e-11
3.04215e-11
3.14178e-11
2.4639e-11
3.06171e-11
1.91217e-11
2.91382e-11
1.40072e-11
2.69402e-11
9.4444e-12
2.40137e-11
5.58759e-12
2.03873e-11
2.61216e-12
1.6039e-11
7.11833e-13
1.07641e-11
4.11736e-12
-8.69113e-13
5.88379e-12
-3.33829e-12
1.54245e-11
-7.25437e-12
2.30943e-11
-1.23187e-11
2.94366e-11
-1.82889e-11
3.47158e-11
-2.4954e-11
3.8958e-11
-3.21185e-11
4.21641e-11
-3.96055e-11
4.437e-11
-4.72585e-11
4.56463e-11
-5.49444e-11
4.60766e-11
-6.25483e-11
4.575e-11
-6.99718e-11
4.47515e-11
-7.71305e-11
4.31588e-11
-8.39503e-11
4.10419e-11
-9.03641e-11
3.84577e-11
-9.6312e-11
3.54536e-11
-1.01738e-10
3.20695e-11
-1.06588e-10
2.834e-11
-1.10811e-10
2.42931e-11
-1.14357e-10
1.99551e-11
-1.17175e-10
1.53497e-11
-1.19223e-10
1.05047e-11
-1.20455e-10
5.44976e-12
-1.20836e-10
2.22192e-13
-1.20335e-10
-5.13784e-12
-1.1893e-10
-1.05821e-11
-1.16606e-10
-1.60612e-11
-1.13363e-10
-2.1519e-11
-1.09204e-10
-2.69001e-11
-1.0415e-10
-3.21439e-11
-9.82279e-11
-3.71912e-11
-9.14781e-11
-4.19797e-11
-8.39514e-11
-4.64495e-11
-7.57116e-11
-5.05399e-11
-6.68323e-11
-5.41942e-11
-5.73984e-11
-5.73578e-11
-4.75029e-11
-5.99835e-11
-3.72469e-11
-6.2031e-11
-2.67374e-11
-6.347e-11
-1.60855e-11
-6.42806e-11
-5.40519e-12
-6.44525e-11
5.18987e-12
-6.3986e-11
1.55866e-11
-6.289e-11
2.56776e-11
-6.11846e-11
3.53601e-11
-5.88987e-11
4.4542e-11
-5.60733e-11
5.31384e-11
-5.27561e-11
6.10779e-11
-4.90033e-11
6.82966e-11
-4.48714e-11
7.47453e-11
-4.04221e-11
8.03826e-11
-3.57149e-11
8.51825e-11
-3.08146e-11
8.91258e-11
-2.57817e-11
9.22078e-11
-2.0678e-11
9.44287e-11
-1.55558e-11
9.58026e-11
-1.04675e-11
9.63478e-11
-5.45773e-12
9.60949e-11
-5.73407e-13
9.5076e-11
4.14754e-12
9.33321e-11
8.66925e-12
9.0904e-11
1.29666e-11
8.78395e-11
1.70155e-11
8.41842e-11
2.07985e-11
7.99881e-11
2.42946e-11
7.52995e-11
2.74823e-11
7.01703e-11
3.0333e-11
6.46525e-11
3.28161e-11
5.88046e-11
3.4894e-11
5.26929e-11
3.6517e-11
4.63922e-11
3.76233e-11
3.99903e-11
3.81422e-11
3.3587e-11
3.7999e-11
2.72979e-11
3.71163e-11
2.12607e-11
3.54167e-11
1.56272e-11
3.28441e-11
1.05675e-11
2.93698e-11
6.27306e-12
2.49999e-11
2.94065e-12
1.97061e-11
8.01263e-13
1.32338e-11
5.06544e-12
-9.65386e-13
7.0634e-12
-3.70712e-12
1.85432e-11
-8.03001e-12
2.77677e-11
-1.36055e-11
3.53405e-11
-2.01468e-11
4.15682e-11
-2.74067e-11
4.65096e-11
-3.51606e-11
5.01877e-11
-4.3216e-11
5.26709e-11
-5.14031e-11
5.40527e-11
-5.9584e-11
5.44486e-11
-6.76428e-11
5.39702e-11
-7.54825e-11
5.27213e-11
-8.30215e-11
5.07957e-11
-9.0189e-11
4.82745e-11
-9.69218e-11
4.52227e-11
-1.03161e-10
4.1693e-11
-1.08853e-10
3.77304e-11
-1.13944e-10
3.33701e-11
-1.18381e-10
2.86422e-11
-1.2211e-10
2.35719e-11
-1.25081e-10
1.81864e-11
-1.27242e-10
1.25129e-11
-1.28547e-10
6.5864e-12
-1.28952e-10
4.46232e-13
-1.28424e-10
-5.8577e-12
-1.26934e-10
-1.22716e-11
-1.24468e-10
-1.87333e-11
-1.21019e-10
-2.51798e-11
-1.16594e-10
-3.1542e-11
-1.11208e-10
-3.77513e-11
-1.04891e-10
-4.37341e-11
-9.76831e-11
-4.94186e-11
-8.96389e-11
-5.473e-11
-8.08241e-11
-5.95968e-11
-7.1318e-11
-6.39482e-11
-6.12106e-11
-6.77194e-11
-5.06027e-11
-7.08514e-11
-3.96036e-11
-7.32956e-11
-2.83299e-11
-7.50141e-11
-1.69031e-11
-7.59813e-11
-5.44745e-12
-7.61843e-11
5.91174e-12
-7.5622e-11
1.70526e-11
-7.43063e-11
2.78566e-11
-7.22608e-11
3.82149e-11
-6.95236e-11
4.80259e-11
-6.61434e-11
5.72017e-11
-6.21813e-11
6.56631e-11
-5.77024e-11
7.33463e-11
-5.27789e-11
8.01967e-11
-4.74817e-11
8.61762e-11
-4.18874e-11
9.12551e-11
-3.60695e-11
9.54202e-11
-3.01054e-11
9.86645e-11
-2.40634e-11
1.00996e-10
-1.80113e-11
1.02427e-10
-1.2007e-11
1.02986e-10
-6.10925e-12
1.02702e-10
-3.68403e-13
1.01616e-10
5.16676e-12
9.97702e-11
1.04599e-11
9.72134e-11
1.54784e-11
9.39935e-11
2.02002e-11
9.0162e-11
2.46045e-11
8.57672e-11
2.86746e-11
8.08594e-11
3.23874e-11
7.54862e-11
3.57176e-11
6.96975e-11
3.86328e-11
6.35484e-11
4.10906e-11
5.71016e-11
4.30336e-11
5.04283e-11
4.43914e-11
4.36128e-11
4.50799e-11
3.67555e-11
4.50072e-11
2.99781e-11
4.40744e-11
2.3429e-11
4.21759e-11
1.72754e-11
3.92361e-11
1.17163e-11
3.51925e-11
6.96982e-12
3.00314e-11
3.27388e-12
2.37034e-11
8.90277e-13
1.59155e-11
6.08613e-12
-1.06773e-12
8.32685e-12
-4.09902e-12
2.19148e-11
-8.85621e-12
3.28406e-11
-1.49667e-11
4.17458e-11
-2.21003e-11
4.898e-11
-2.99625e-11
5.4631e-11
-3.83016e-11
5.87648e-11
-4.69024e-11
6.14864e-11
-5.55911e-11
6.29309e-11
-6.42247e-11
6.32451e-11
-7.269e-11
6.25706e-11
-8.08941e-11
6.10316e-11
-8.87606e-11
5.87392e-11
-9.6224e-11
5.57858e-11
-1.03226e-10
5.22445e-11
-1.09714e-10
4.8173e-11
-1.15635e-10
4.36173e-11
-1.20935e-10
3.86141e-11
-1.25561e-10
3.3191e-11
-1.29458e-10
2.73746e-11
-1.3257e-10
2.11892e-11
-1.34843e-10
1.46651e-11
-1.36222e-10
7.83613e-12
-1.36661e-10
7.4872e-13
-1.36116e-10
-6.5432e-12
-1.34559e-10
-1.39733e-11
-1.31969e-10
-2.14718e-11
-1.28338e-10
-2.8962e-11
-1.23669e-10
-3.63666e-11
-1.17978e-10
-4.36025e-11
-1.11292e-10
-5.05865e-11
-1.03653e-10
-5.72309e-11
-9.51155e-11
-6.34495e-11
-8.57495e-11
-6.91545e-11
-7.56372e-11
-7.42626e-11
-6.48752e-11
-7.86941e-11
-5.35711e-11
-8.23788e-11
-4.18436e-11
-8.52564e-11
-2.98191e-11
-8.72806e-11
-1.76301e-11
-8.84197e-11
-5.41286e-12
-8.86565e-11
6.6971e-12
-8.799e-11
1.85657e-11
-8.64336e-11
3.00666e-11
-8.40183e-11
4.10801e-11
-8.0789e-11
5.14999e-11
-7.68074e-11
6.12291e-11
-7.21444e-11
7.01872e-11
-6.68815e-11
7.8304e-11
-6.11014e-11
8.55272e-11
-5.48935e-11
9.18152e-11
-4.83449e-11
9.71444e-11
-4.15483e-11
1.01499e-10
-3.45894e-11
1.04881e-10
-2.75537e-11
1.07297e-10
-2.05152e-11
1.08768e-10
-1.35475e-11
1.09322e-10
-6.71453e-12
1.08997e-10
-7.99505e-14
1.07835e-10
6.30486e-12
1.05889e-10
1.23934e-11
1.03208e-10
1.81539e-11
9.98502e-11
2.35603e-11
9.58645e-11
2.85975e-11
9.13028e-11
3.32486e-11
8.62116e-11
3.74963e-11
8.06369e-11
4.13168e-11
7.46236e-11
4.46798e-11
6.82213e-11
4.75387e-11
6.1487e-11
4.98291e-11
5.44844e-11
5.14741e-11
4.72931e-11
5.23731e-11
4.00104e-11
5.24166e-11
3.27638e-11
5.14738e-11
2.57038e-11
4.94159e-11
1.90229e-11
4.61232e-11
1.2942e-11
4.1504e-11
7.71664e-12
3.55079e-11
3.62819e-12
2.80589e-11
9.85305e-13
1.88233e-11
7.18509e-12
-1.18085e-12
9.68431e-12
-4.54155e-12
2.55788e-11
-9.78485e-12
3.83644e-11
-1.64836e-11
4.87057e-11
-2.42427e-11
5.69844e-11
-3.27256e-11
6.3341e-11
-4.16448e-11
6.78908e-11
-5.07697e-11
7.07957e-11
-5.99202e-11
7.22422e-11
-6.89588e-11
7.24198e-11
-7.77761e-11
7.14983e-11
-8.62882e-11
6.96283e-11
-9.44264e-11
6.69362e-11
-1.02133e-10
6.3526e-11
-1.09356e-10
5.94783e-11
-1.16049e-10
5.48538e-11
-1.22161e-10
4.96987e-11
-1.2764e-10
4.40461e-11
-1.32433e-10
3.79231e-11
-1.36481e-10
3.13516e-11
-1.39726e-10
2.43563e-11
-1.42108e-10
1.69632e-11
-1.43567e-10
9.20901e-12
-1.44046e-10
1.14027e-12
-1.43499e-10
-7.17835e-12
-1.41889e-10
-1.56728e-11
-1.39194e-10
-2.42582e-11
-1.35401e-10
-3.28494e-11
-1.30513e-10
-4.13548e-11
-1.24541e-10
-4.96821e-11
-1.17512e-10
-5.77324e-11
-1.09465e-10
-6.54064e-11
-1.00457e-10
-7.26001e-11
-9.05577e-11
-7.92116e-11
-7.9855e-11
-8.51395e-11
-6.845e-11
-9.02899e-11
-5.64589e-11
-9.45768e-11
-4.40091e-11
-9.79281e-11
-3.12384e-11
-1.00287e-10
-1.82912e-11
-1.01614e-10
-5.31536e-12
-1.01888e-10
7.5403e-12
-1.01107e-10
2.01318e-11
-9.92888e-11
3.23203e-11
-9.64696e-11
4.39794e-11
-9.27063e-11
5.4992e-11
-8.80704e-11
6.52582e-11
-8.26496e-11
7.46895e-11
-7.65372e-11
8.32168e-11
-6.98358e-11
9.07836e-11
-6.26473e-11
9.73542e-11
-5.50803e-11
1.02903e-10
-4.72384e-11
1.07424e-10
-3.92264e-11
1.10916e-10
-3.11376e-11
1.13397e-10
-2.30626e-11
1.14887e-10
-1.50807e-11
1.15421e-10
-7.27131e-12
1.15041e-10
2.97285e-13
1.13799e-10
7.5598e-12
1.11749e-10
1.44678e-11
1.08954e-10
2.09824e-11
1.0547e-10
2.70832e-11
1.01354e-10
3.27558e-11
9.66534e-11
3.79915e-11
9.14162e-11
4.27762e-11
8.56828e-11
4.70934e-11
7.94937e-11
5.09142e-11
7.28902e-11
5.4192e-11
6.59184e-11
5.68588e-11
5.86364e-11
5.88259e-11
5.11113e-11
5.9984e-11
4.344e-11
6.01929e-11
3.57428e-11
5.92983e-11
2.81788e-11
5.71308e-11
2.09506e-11
5.35264e-11
1.43124e-11
4.83397e-11
8.5582e-12
4.14792e-11
4.03157e-12
3.28176e-11
1.0894e-12
2.19962e-11
8.37112e-12
-1.31945e-12
1.11611e-11
-5.074e-12
2.95997e-11
-1.08937e-11
4.44299e-11
-1.82592e-11
5.62994e-11
-2.66997e-11
6.5638e-11
-3.58206e-11
7.26577e-11
-4.53087e-11
7.75554e-11
-5.49217e-11
8.05644e-11
-6.44853e-11
8.19394e-11
-7.3868e-11
8.19132e-11
-8.29737e-11
8.06919e-11
-9.17292e-11
7.84489e-11
-1.00078e-10
7.5328e-11
-1.07971e-10
7.14417e-11
-1.15364e-10
6.68764e-11
-1.22216e-10
6.16944e-11
-1.2848e-10
5.59386e-11
-1.34107e-10
4.9639e-11
-1.39041e-10
4.28162e-11
-1.43224e-10
3.54903e-11
-1.46592e-10
2.76795e-11
-1.49081e-10
1.94084e-11
-1.50622e-10
1.0708e-11
-1.51152e-10
1.62992e-12
-1.50613e-10
-7.75593e-12
-1.48966e-10
-1.73585e-11
-1.46183e-10
-2.70825e-11
-1.42251e-10
-3.68274e-11
-1.37167e-10
-4.64941e-11
-1.30941e-10
-5.59755e-11
-1.23594e-10
-6.51621e-11
-1.15164e-10
-7.39363e-11
-1.05706e-10
-8.21793e-11
-9.52928e-11
-8.97686e-11
-8.40128e-11
-9.65858e-11
-7.19746e-11
-1.02517e-10
-5.93017e-11
-1.07461e-10
-4.61321e-11
-1.11329e-10
-3.26151e-11
-1.14053e-10
-1.89079e-11
-1.15585e-10
-5.17229e-12
-1.15899e-10
8.4309e-12
-1.14993e-10
2.17436e-11
-1.12888e-10
3.46177e-11
-1.0963e-10
4.69141e-11
-1.05284e-10
5.85102e-11
-9.99397e-11
6.92961e-11
-9.36962e-11
7.91826e-11
-8.66683e-11
8.80951e-11
-7.89733e-11
9.59823e-11
-7.07368e-11
1.02807e-10
-6.20815e-11
1.08551e-10
-5.31329e-11
1.1321e-10
-4.40058e-11
1.16793e-10
-3.48115e-11
1.19316e-10
-2.5647e-11
1.2081e-10
-1.66076e-11
1.2131e-10
-7.77755e-12
1.20866e-10
7.58298e-13
1.19536e-10
8.92825e-12
1.17386e-10
1.66711e-11
1.14482e-10
2.39511e-11
1.1089e-10
3.07479e-11
1.06663e-10
3.70563e-11
1.01857e-10
4.28714e-11
9.6512e-11
4.81904e-11
9.06666e-11
5.30036e-11
8.43532e-11
5.72882e-11
7.76042e-11
6.09993e-11
7.04545e-11
6.40677e-11
6.29493e-11
6.63952e-11
5.51476e-11
6.78589e-11
4.71321e-11
6.82954e-11
3.90165e-11
6.75181e-11
3.09553e-11
6.53162e-11
2.31642e-11
6.14628e-11
1.59168e-11
5.57525e-11
9.56544e-12
4.80137e-11
4.5179e-12
3.80621e-11
1.21835e-12
2.54922e-11
9.66916e-12
-1.50451e-12
1.28038e-11
-5.7721e-12
3.40974e-11
-1.23028e-11
5.11724e-11
-2.04469e-11
6.46396e-11
-2.96289e-11
7.5002e-11
-3.94e-11
8.25948e-11
-4.94238e-11
8.7727e-11
-5.94685e-11
9.07373e-11
-6.93711e-11
9.19499e-11
-7.90207e-11
9.16503e-11
-8.83367e-11
9.0075e-11
-9.72627e-11
8.74227e-11
-1.05754e-10
8.38489e-11
-1.13772e-10
7.94739e-11
-1.21281e-10
7.43864e-11
-1.28243e-10
6.86479e-11
-1.34618e-10
6.22978e-11
-1.40356e-10
5.53581e-11
-1.45403e-10
4.78438e-11
-1.49698e-10
3.97673e-11
-1.53176e-10
3.11445e-11
-1.55765e-10
2.19899e-11
-1.5739e-10
1.23309e-11
-1.57974e-10
2.21507e-12
-1.57453e-10
-8.27377e-12
-1.5578e-10
-1.90297e-11
-1.52928e-10
-2.99373e-11
-1.4888e-10
-4.08885e-11
-1.43629e-10
-5.17715e-11
-1.37177e-10
-6.24716e-11
-1.29543e-10
-7.28625e-11
-1.20758e-10
-8.28124e-11
-1.10876e-10
-9.21802e-11
-9.99682e-11
-1.00824e-10
-8.81275e-11
-1.08603e-10
-7.54668e-11
-1.15383e-10
-6.2119e-11
-1.2104e-10
-4.82324e-11
-1.25471e-10
-3.39692e-11
-1.28592e-10
-1.95007e-11
-1.30346e-10
-5.00253e-12
-1.30703e-10
9.34889e-12
-1.29659e-10
2.33834e-11
-1.27242e-10
3.69383e-11
-1.23503e-10
4.98657e-11
-1.18525e-10
6.20311e-11
-1.1241e-10
7.33214e-11
-1.05277e-10
8.364e-11
-9.72604e-11
9.29156e-11
-8.85014e-11
1.01095e-10
-7.91437e-11
1.08148e-10
-6.93352e-11
1.1406e-10
-5.92152e-11
1.18835e-10
-4.89191e-11
1.22485e-10
-3.85662e-11
1.25037e-10
-2.827e-11
1.26521e-10
-1.81294e-11
1.26981e-10
-8.24337e-12
1.26466e-10
1.29555e-12
1.25049e-10
1.03946e-11
1.22802e-10
1.89875e-11
1.19804e-10
2.70349e-11
1.16119e-10
3.45275e-11
1.11811e-10
4.14641e-11
1.0693e-10
4.78505e-11
1.01521e-10
5.36929e-11
9.56132e-11
5.89966e-11
8.92312e-11
6.37467e-11
8.23978e-11
6.79011e-11
7.51362e-11
7.13921e-11
6.74789e-11
7.41136e-11
5.94698e-11
7.59319e-11
5.11763e-11
7.66605e-11
4.26916e-11
7.60866e-11
3.41617e-11
7.39454e-11
2.57956e-11
6.99457e-11
1.78901e-11
6.37925e-11
1.08404e-11
5.52134e-11
5.15289e-12
4.39119e-11
1.38803e-12
2.94194e-11
1.11202e-11
-1.78668e-12
1.471e-11
-6.76593e-12
3.92709e-11
-1.42133e-11
5.87981e-11
-2.32686e-11
7.38601e-11
-3.32431e-11
8.51289e-11
-4.36396e-11
9.31285e-11
-5.41326e-11
9.83403e-11
-6.45125e-11
1.0122e-10
-7.46515e-11
1.02173e-10
-8.44648e-11
1.01529e-10
-9.38989e-11
9.95569e-11
-1.02912e-10
9.64675e-11
-1.11473e-10
9.2427e-11
-1.19551e-10
8.7558e-11
-1.27117e-10
8.195e-11
-1.34139e-10
7.56623e-11
-1.40578e-10
6.87281e-11
-1.46388e-10
6.11613e-11
-1.51511e-10
5.29646e-11
-1.55887e-10
4.41469e-11
-1.59448e-10
3.47178e-11
-1.62123e-10
2.46846e-11
-1.63824e-10
1.40578e-11
-1.64463e-10
2.88328e-12
-1.63961e-10
-8.74577e-12
-1.62272e-10
-2.0693e-11
-1.59366e-10
-3.28258e-11
-1.55227e-10
-4.50249e-11
-1.4984e-10
-5.71762e-11
-1.432e-10
-6.91529e-11
-1.35314e-10
-8.08174e-11
-1.26211e-10
-9.2016e-11
-1.15936e-10
-1.02588e-10
-1.04562e-10
-1.12365e-10
-9.2183e-11
-1.21182e-10
-7.89184e-11
-1.28878e-10
-6.49087e-11
-1.35309e-10
-5.03145e-11
-1.4035e-10
-3.53114e-11
-1.43901e-10
-2.00856e-11
-1.45895e-10
-4.82932e-12
-1.46295e-10
1.02665e-11
-1.45099e-10
2.50149e-11
-1.42337e-10
3.92415e-11
-1.38076e-10
5.2784e-11
-1.32408e-10
6.55014e-11
-1.25458e-10
7.7271e-11
-1.17364e-10
8.79972e-11
-1.08286e-10
9.76048e-11
-9.83873e-11
1.06048e-10
-8.78403e-11
1.13298e-10
-7.6811e-11
1.19351e-10
-6.54638e-11
1.24216e-10
-5.39457e-11
1.27917e-10
-4.2395e-11
1.30485e-10
-3.09293e-11
1.31959e-10
-1.96588e-11
1.32379e-10
-8.68258e-12
1.31801e-10
1.88653e-12
1.30302e-10
1.19375e-11
1.27974e-10
2.13849e-11
1.249e-10
3.01987e-11
1.21153e-10