/*--------------------------------*- C++ -*----------------------------------*\
| =========                 |                                                 |
| \\      /  F ield         | OpenFOAM: The Open Source CFD Toolbox           |
|  \\    /   O peration     | Version:  2412                                  |
|   \\  /    A nd           | Website:  www.openfoam.com                      |
|    \\/     M anipulation  |                                                 |
\*---------------------------------------------------------------------------*/
FoamFile
{
    version     2.0;
    format      ascii;
    arch        "LSB;label=32;scalar=64";
    class       volScalarField;
    location    "7.75";
    object      p;
}
// * * * * * * * * * * * * * * * * * * * * * * * * * * * * * * * * * * * * * //

dimensions      [1 -1 -2 0 0 0 0];

internalField   nonuniform List<scalar> 
6400
(
8163.26
8163.22
8163.15
8163.07
8162.99
8162.91
8162.84
8162.78
8162.74
8162.7
8162.67
8162.64
8162.61
8162.59
8162.57
8162.55
8162.53
8162.51
8162.48
8162.46
8162.44
8162.41
8162.39
8162.37
8162.34
8162.32
8162.3
8162.28
8162.26
8162.25
8162.23
8162.22
8162.21
8162.21
8162.2
8162.2
8162.19
8162.19
8162.19
8162.18
8162.18
8162.18
8162.17
8162.16
8162.16
8162.15
8162.15
8162.15
8162.15
8162.15
8162.15
8162.15
8162.16
8162.16
8162.17
8162.18
8162.19
8162.2
8162.22
8162.23
8162.24
8162.26
8162.27
8162.28
8162.3
8162.31
8162.33
8162.35
8162.37
8162.4
8162.43
8162.47
8162.52
8162.58
8162.65
8162.73
8162.82
8162.91
8162.97
8163.01
7746.37
7746.33
7746.27
7746.2
7746.13
7746.06
7745.99
7745.93
7745.88
7745.84
7745.8
7745.77
7745.74
7745.71
7745.68
7745.66
7745.63
7745.6
7745.57
7745.55
7745.52
7745.49
7745.46
7745.43
7745.4
7745.37
7745.34
7745.32
7745.29
7745.27
7745.25
7745.24
7745.22
7745.21
7745.2
7745.19
7745.19
7745.18
7745.18
7745.17
7745.17
7745.16
7745.16
7745.16
7745.16
7745.16
7745.16
7745.16
7745.16
7745.17
7745.17
7745.18
7745.19
7745.21
7745.22
7745.24
7745.26
7745.27
7745.29
7745.31
7745.33
7745.35
7745.37
7745.39
7745.41
7745.43
7745.45
7745.48
7745.5
7745.53
7745.57
7745.62
7745.67
7745.73
7745.8
7745.87
7745.95
7746.02
7746.09
7746.12
7329.52
7329.47
7329.41
7329.34
7329.28
7329.21
7329.14
7329.09
7329.03
7328.99
7328.94
7328.91
7328.87
7328.84
7328.8
7328.77
7328.73
7328.7
7328.67
7328.63
7328.6
7328.56
7328.52
7328.49
7328.45
7328.42
7328.38
7328.35
7328.32
7328.29
7328.27
7328.24
7328.22
7328.21
7328.19
7328.18
7328.17
7328.16
7328.15
7328.15
7328.14
7328.14
7328.14
7328.14
7328.14
7328.14
7328.15
7328.16
7328.17
7328.18
7328.19
7328.21
7328.23
7328.25
7328.27
7328.29
7328.31
7328.34
7328.36
7328.39
7328.42
7328.44
7328.47
7328.49
7328.52
7328.55
7328.58
7328.61
7328.64
7328.68
7328.72
7328.77
7328.82
7328.88
7328.95
7329.02
7329.09
7329.16
7329.22
7329.27
6912.68
6912.62
6912.56
6912.49
6912.42
6912.35
6912.29
6912.23
6912.17
6912.12
6912.08
6912.04
6912
6911.96
6911.92
6911.88
6911.84
6911.8
6911.76
6911.72
6911.68
6911.63
6911.59
6911.55
6911.5
6911.46
6911.42
6911.38
6911.35
6911.31
6911.28
6911.25
6911.23
6911.2
6911.18
6911.17
6911.15
6911.14
6911.13
6911.13
6911.12
6911.12
6911.12
6911.12
6911.13
6911.13
6911.14
6911.16
6911.17
6911.19
6911.21
6911.23
6911.26
6911.28
6911.31
6911.34
6911.37
6911.4
6911.44
6911.47
6911.5
6911.53
6911.57
6911.6
6911.63
6911.66
6911.7
6911.73
6911.77
6911.81
6911.86
6911.91
6911.96
6912.02
6912.09
6912.16
6912.23
6912.3
6912.37
6912.42
6495.84
6495.78
6495.7
6495.63
6495.55
6495.49
6495.42
6495.36
6495.31
6495.25
6495.21
6495.16
6495.12
6495.08
6495.03
6494.99
6494.95
6494.9
6494.85
6494.81
6494.76
6494.71
6494.66
6494.61
6494.56
6494.51
6494.46
6494.42
6494.37
6494.33
6494.29
6494.26
6494.23
6494.2
6494.18
6494.16
6494.14
6494.12
6494.11
6494.11
6494.1
6494.1
6494.1
6494.11
6494.11
6494.12
6494.14
6494.16
6494.18
6494.2
6494.23
6494.26
6494.29
6494.32
6494.36
6494.39
6494.43
6494.47
6494.51
6494.55
6494.59
6494.62
6494.66
6494.7
6494.74
6494.78
6494.81
6494.85
6494.9
6494.94
6494.99
6495.04
6495.1
6495.16
6495.22
6495.29
6495.36
6495.44
6495.51
6495.58
6079
6078.92
6078.84
6078.76
6078.68
6078.61
6078.55
6078.49
6078.43
6078.38
6078.33
6078.28
6078.23
6078.19
6078.14
6078.1
6078.05
6078
6077.95
6077.89
6077.84
6077.78
6077.73
6077.67
6077.61
6077.56
6077.5
6077.45
6077.4
6077.35
6077.31
6077.27
6077.23
6077.2
6077.17
6077.15
6077.13
6077.11
6077.1
6077.09
6077.09
6077.09
6077.09
6077.1
6077.11
6077.12
6077.14
6077.16
6077.18
6077.21
6077.25
6077.28
6077.32
6077.36
6077.4
6077.45
6077.49
6077.54
6077.58
6077.63
6077.67
6077.72
6077.76
6077.8
6077.85
6077.89
6077.93
6077.97
6078.02
6078.06
6078.11
6078.16
6078.22
6078.28
6078.35
6078.41
6078.49
6078.57
6078.65
6078.73
5662.15
5662.06
5661.97
5661.88
5661.8
5661.73
5661.66
5661.6
5661.54
5661.49
5661.44
5661.39
5661.34
5661.29
5661.25
5661.2
5661.15
5661.09
5661.04
5660.98
5660.92
5660.86
5660.79
5660.73
5660.67
5660.6
5660.54
5660.48
5660.43
5660.37
5660.32
5660.27
5660.23
5660.2
5660.16
5660.14
5660.12
5660.1
5660.09
5660.08
5660.07
5660.07
5660.08
5660.09
5660.1
5660.12
5660.14
5660.17
5660.2
5660.23
5660.27
5660.31
5660.36
5660.41
5660.46
5660.51
5660.56
5660.61
5660.66
5660.71
5660.76
5660.81
5660.86
5660.91
5660.95
5661
5661.04
5661.09
5661.13
5661.18
5661.23
5661.28
5661.33
5661.39
5661.46
5661.53
5661.6
5661.69
5661.78
5661.87
5245.29
5245.19
5245.09
5245
5244.91
5244.84
5244.77
5244.71
5244.65
5244.6
5244.55
5244.49
5244.45
5244.4
5244.35
5244.3
5244.24
5244.18
5244.12
5244.06
5244
5243.93
5243.86
5243.79
5243.72
5243.65
5243.58
5243.51
5243.45
5243.39
5243.33
5243.28
5243.23
5243.19
5243.16
5243.13
5243.11
5243.09
5243.07
5243.07
5243.06
5243.06
5243.07
5243.08
5243.1
5243.12
5243.14
5243.17
5243.21
5243.25
5243.3
5243.35
5243.4
5243.45
5243.51
5243.57
5243.63
5243.69
5243.75
5243.8
5243.86
5243.91
5243.96
5244.01
5244.06
5244.11
5244.15
5244.2
5244.24
5244.29
5244.34
5244.38
5244.44
5244.5
5244.56
5244.63
5244.71
5244.8
5244.9
5245
4828.42
4828.31
4828.2
4828.1
4828.02
4827.94
4827.88
4827.82
4827.76
4827.71
4827.66
4827.61
4827.56
4827.5
4827.45
4827.4
4827.34
4827.28
4827.21
4827.15
4827.08
4827
4826.93
4826.85
4826.77
4826.69
4826.62
4826.54
4826.47
4826.4
4826.34
4826.28
4826.23
4826.18
4826.14
4826.11
4826.09
4826.07
4826.05
4826.05
4826.04
4826.05
4826.05
4826.07
4826.08
4826.11
4826.14
4826.17
4826.22
4826.26
4826.32
4826.37
4826.44
4826.5
4826.56
4826.63
4826.7
4826.76
4826.83
4826.89
4826.95
4827.01
4827.07
4827.12
4827.17
4827.22
4827.27
4827.31
4827.35
4827.4
4827.44
4827.49
4827.54
4827.6
4827.66
4827.73
4827.81
4827.91
4828.02
4828.12
4411.54
4411.43
4411.3
4411.2
4411.12
4411.04
4410.98
4410.92
4410.87
4410.83
4410.78
4410.73
4410.68
4410.62
4410.57
4410.51
4410.45
4410.38
4410.31
4410.24
4410.16
4410.08
4410
4409.91
4409.82
4409.74
4409.65
4409.57
4409.48
4409.41
4409.34
4409.27
4409.21
4409.16
4409.12
4409.08
4409.06
4409.04
4409.02
4409.01
4409.01
4409.01
4409.02
4409.04
4409.06
4409.08
4409.12
4409.16
4409.21
4409.26
4409.32
4409.39
4409.46
4409.53
4409.61
4409.69
4409.76
4409.84
4409.91
4409.98
4410.05
4410.11
4410.17
4410.23
4410.28
4410.34
4410.38
4410.43
4410.47
4410.51
4410.55
4410.6
4410.64
4410.7
4410.76
4410.83
4410.91
4411.01
4411.13
4411.25
3994.66
3994.53
3994.4
3994.3
3994.21
3994.14
3994.08
3994.03
3993.99
3993.95
3993.91
3993.86
3993.81
3993.75
3993.7
3993.63
3993.57
3993.5
3993.42
3993.34
3993.25
3993.16
3993.07
3992.97
3992.87
3992.78
3992.68
3992.58
3992.49
3992.4
3992.32
3992.25
3992.18
3992.12
3992.08
3992.04
3992.01
3991.99
3991.97
3991.96
3991.96
3991.97
3991.98
3991.99
3992.01
3992.04
3992.08
3992.13
3992.18
3992.24
3992.32
3992.39
3992.47
3992.56
3992.65
3992.73
3992.82
3992.9
3992.99
3993.07
3993.14
3993.21
3993.28
3993.34
3993.4
3993.46
3993.5
3993.55
3993.59
3993.63
3993.67
3993.71
3993.75
3993.8
3993.85
3993.93
3994.01
3994.12
3994.25
3994.38
3577.77
3577.63
3577.49
3577.38
3577.29
3577.23
3577.18
3577.14
3577.1
3577.07
3577.03
3576.99
3576.95
3576.89
3576.83
3576.77
3576.69
3576.62
3576.53
3576.44
3576.35
3576.25
3576.14
3576.03
3575.92
3575.81
3575.7
3575.59
3575.49
3575.39
3575.29
3575.21
3575.13
3575.07
3575.02
3574.98
3574.95
3574.93
3574.91
3574.91
3574.9
3574.91
3574.92
3574.94
3574.96
3574.99
3575.03
3575.08
3575.15
3575.22
3575.3
3575.39
3575.48
3575.58
3575.68
3575.78
3575.88
3575.97
3576.07
3576.16
3576.24
3576.32
3576.39
3576.46
3576.52
3576.58
3576.63
3576.68
3576.72
3576.75
3576.78
3576.81
3576.85
3576.89
3576.94
3577.01
3577.1
3577.21
3577.35
3577.49
3160.87
3160.71
3160.55
3160.44
3160.36
3160.3
3160.26
3160.23
3160.21
3160.19
3160.16
3160.13
3160.08
3160.03
3159.97
3159.9
3159.82
3159.74
3159.65
3159.55
3159.44
3159.33
3159.21
3159.09
3158.97
3158.85
3158.72
3158.6
3158.48
3158.37
3158.26
3158.16
3158.08
3158.01
3157.96
3157.92
3157.89
3157.86
3157.85
3157.84
3157.84
3157.85
3157.86
3157.88
3157.9
3157.94
3157.98
3158.03
3158.1
3158.19
3158.28
3158.38
3158.49
3158.6
3158.72
3158.83
3158.94
3159.05
3159.15
3159.25
3159.35
3159.43
3159.51
3159.59
3159.65
3159.71
3159.77
3159.81
3159.85
3159.88
3159.9
3159.92
3159.94
3159.97
3160.01
3160.08
3160.16
3160.28
3160.43
3160.59
2743.95
2743.77
2743.6
2743.48
2743.4
2743.36
2743.34
2743.33
2743.32
2743.32
2743.3
2743.27
2743.23
2743.18
2743.11
2743.04
2742.96
2742.87
2742.77
2742.66
2742.54
2742.42
2742.29
2742.15
2742.02
2741.88
2741.74
2741.6
2741.47
2741.34
2741.21
2741.1
2741.01
2740.93
2740.88
2740.84
2740.81
2740.79
2740.78
2740.77
2740.77
2740.78
2740.79
2740.81
2740.84
2740.87
2740.91
2740.97
2741.05
2741.14
2741.25
2741.37
2741.5
2741.63
2741.76
2741.88
2742.01
2742.13
2742.24
2742.36
2742.46
2742.56
2742.64
2742.72
2742.79
2742.85
2742.91
2742.95
2742.98
2743.01
2743.02
2743.02
2743.03
2743.04
2743.07
2743.12
2743.2
2743.32
2743.49
2743.67
2327.02
2326.8
2326.6
2326.48
2326.42
2326.4
2326.4
2326.42
2326.44
2326.45
2326.45
2326.43
2326.39
2326.34
2326.27
2326.19
2326.1
2326.01
2325.9
2325.78
2325.65
2325.52
2325.37
2325.22
2325.07
2324.91
2324.76
2324.6
2324.45
2324.3
2324.15
2324.03
2323.92
2323.84
2323.78
2323.75
2323.72
2323.71
2323.69
2323.69
2323.69
2323.7
2323.71
2323.73
2323.76
2323.78
2323.82
2323.88
2323.97
2324.08
2324.21
2324.35
2324.5
2324.65
2324.8
2324.94
2325.08
2325.21
2325.34
2325.47
2325.58
2325.69
2325.78
2325.87
2325.94
2326.01
2326.06
2326.11
2326.13
2326.15
2326.14
2326.13
2326.11
2326.1
2326.1
2326.13
2326.2
2326.32
2326.52
2326.74
1910.05
1909.78
1909.56
1909.44
1909.4
1909.41
1909.46
1909.52
1909.58
1909.62
1909.63
1909.61
1909.57
1909.52
1909.45
1909.36
1909.26
1909.16
1909.05
1908.92
1908.78
1908.62
1908.45
1908.28
1908.12
1907.95
1907.77
1907.59
1907.41
1907.24
1907.07
1906.92
1906.8
1906.71
1906.66
1906.64
1906.62
1906.6
1906.59
1906.59
1906.59
1906.6
1906.62
1906.63
1906.66
1906.68
1906.71
1906.77
1906.86
1906.99
1907.15
1907.32
1907.49
1907.67
1907.84
1908
1908.15
1908.29
1908.44
1908.58
1908.72
1908.83
1908.93
1909.02
1909.1
1909.17
1909.23
1909.28
1909.31
1909.31
1909.29
1909.25
1909.2
1909.16
1909.13
1909.12
1909.16
1909.28
1909.51
1909.79
1493.05
1492.71
1492.44
1492.35
1492.35
1492.41
1492.52
1492.64
1492.75
1492.82
1492.84
1492.82
1492.78
1492.73
1492.65
1492.54
1492.44
1492.33
1492.21
1492.07
1491.91
1491.73
1491.53
1491.34
1491.16
1490.98
1490.78
1490.57
1490.37
1490.16
1489.96
1489.77
1489.62
1489.53
1489.5
1489.5
1489.49
1489.48
1489.47
1489.47
1489.47
1489.48
1489.5
1489.52
1489.54
1489.55
1489.56
1489.6
1489.71
1489.87
1490.06
1490.26
1490.47
1490.67
1490.87
1491.05
1491.21
1491.37
1491.54
1491.71
1491.86
1491.99
1492.1
1492.19
1492.27
1492.35
1492.43
1492.49
1492.51
1492.5
1492.46
1492.39
1492.31
1492.21
1492.13
1492.08
1492.08
1492.18
1492.45
1492.8
1076.07
1075.56
1075.23
1075.16
1075.23
1075.37
1075.55
1075.77
1075.97
1076.08
1076.1
1076.07
1076.02
1075.96
1075.87
1075.74
1075.61
1075.5
1075.39
1075.24
1075.06
1074.84
1074.6
1074.39
1074.19
1074
1073.78
1073.54
1073.3
1073.06
1072.81
1072.56
1072.36
1072.28
1072.3
1072.34
1072.36
1072.35
1072.34
1072.34
1072.35
1072.36
1072.38
1072.41
1072.42
1072.4
1072.35
1072.35
1072.47
1072.69
1072.92
1073.17
1073.42
1073.67
1073.9
1074.11
1074.27
1074.43
1074.62
1074.83
1075.02
1075.16
1075.27
1075.36
1075.44
1075.54
1075.65
1075.74
1075.76
1075.74
1075.66
1075.56
1075.42
1075.26
1075.11
1075
1074.92
1074.97
1075.3
1075.83
659.046
658.018
657.661
657.744
657.959
658.207
658.51
658.884
659.233
659.41
659.399
659.317
659.252
659.206
659.106
658.919
658.759
658.677
658.596
658.46
658.255
657.98
657.675
657.417
657.257
657.076
656.824
656.534
656.259
655.989
655.68
655.323
655.017
654.95
655.106
655.245
655.286
655.274
655.248
655.246
655.257
655.262
655.296
655.353
655.376
655.314
655.125
655.002
655.178
655.5
655.818
656.111
656.415
656.722
657.011
657.237
657.362
657.481
657.712
658.003
658.232
658.383
658.475
658.532
658.592
658.704
658.87
659.022
659.062
658.997
658.872
658.715
658.508
658.244
657.997
657.779
657.538
657.387
657.717
658.773
258.713
257.891
258.114
258.602
259.066
259.478
259.879
260.271
260.637
260.775
260.712
260.652
260.722
260.919
260.943
260.73
260.575
260.557
260.538
260.468
260.384
260.329
260.313
260.194
259.815
259.456
259.23
259.07
258.982
258.932
258.849
258.685
258.505
258.485
258.515
258.348
258.047
257.78
257.609
257.527
257.524
257.598
257.754
258.004
258.334
258.63
258.739
258.709
258.808
258.961
259.06
259.111
259.199
259.327
259.549
259.985
260.421
260.414
260.295
260.313
260.387
260.462
260.506
260.495
260.47
260.58
260.859
261.017
260.851
260.581
260.36
260.174
259.947
259.677
259.453
259.115
258.56
257.934
257.673
258.542
28.1117
28.3111
28.8138
29.3181
29.6906
30.0295
30.2338
30.265
30.2671
30.2325
30.4324
30.6778
30.885
31.0558
31.109
31.2599
31.3026
31.2649
31.2105
31.1667
31.1628
31.2185
31.3201
31.2624
31.0718
30.8572
30.7656
30.7615
30.7844
30.7708
30.8123
30.8864
30.9096
30.7747
30.3272
29.8855
29.5442
29.2973
29.1537
29.0719
29.0591
29.1385
29.2716
29.47
29.7767
30.1817
30.7405
31.1248
31.2104
31.1764
31.1528
31.1069
31.041
31.0067
31.0515
31.2238
31.44
31.6321
31.517
31.3818
31.3222
31.3217
31.3445
31.3568
31.3445
31.2989
31.1804
31.0108
30.8528
30.7252
30.6194
30.4948
30.3544
30.23
30.0335
29.6508
29.2452
28.7937
28.3217
28.1343
-10.1562
-10.1896
-10.1175
-9.91726
-9.82263
-9.68677
-9.68968
-9.81041
-9.95285
-10.0577
-9.67885
-9.37167
-9.20712
-9.23803
-9.25931
-8.76662
-8.60833
-8.65578
-8.73112
-8.79502
-8.85707
-8.94008
-9.04896
-9.28148
-8.96032
-8.88159
-8.90172
-8.93277
-9.0101
-9.21652
-9.33196
-9.37676
-9.44424
-9.69677
-10.2409
-10.465
-10.4867
-10.4815
-10.4788
-10.4767
-10.4751
-10.4748
-10.4752
-10.4752
-10.4738
-10.3804
-9.93825
-9.45021
-9.23077
-9.1195
-8.95395
-8.80801
-8.76083
-8.72645
-8.72246
-8.90186
-9.3672
-8.8553
-8.67577
-8.61094
-8.59388
-8.58785
-8.57615
-8.55146
-8.53983
-8.71189
-9.2399
-9.59431
-9.54722
-9.44428
-9.42629
-9.47875
-9.54445
-9.57533
-9.77922
-10.0399
-10.0809
-10.0912
-10.1098
-10.1111
-10.6182
-10.6381
-10.6142
-10.5334
-10.4399
-10.3696
-10.3615
-10.3756
-10.3914
-10.4174
-10.3715
-10.3097
-10.1835
-10.098
-10.0197
-9.86778
-9.85291
-9.91077
-9.97022
-10.0244
-10.0734
-10.1192
-10.183
-10.2636
-10.1851
-10.1911
-10.2141
-10.2343
-10.2789
-10.3866
-10.4497
-10.4906
-10.5603
-10.7328
-10.9321
-10.9761
-10.9715
-10.9659
-10.9647
-10.9635
-10.9623
-10.9614
-10.9607
-10.9635
-10.9708
-10.9559
-10.8386
-10.6032
-10.4486
-10.3677
-10.2702
-10.1829
-10.1514
-10.1282
-10.1018
-10.1187
-10.2626
-10.1012
-10.0173
-9.99694
-9.98873
-9.98519
-9.98354
-9.97715
-9.96852
-10.0258
-10.2125
-10.3398
-10.3886
-10.404
-10.4186
-10.4226
-10.4175
-10.4248
-10.5016
-10.5688
-10.59
-10.5958
-10.5998
-10.599
-11.1581
-11.1865
-11.1566
-11.0716
-10.9871
-10.9559
-10.9668
-10.9742
-10.963
-10.9832
-11.0821
-11.1583
-11.1251
-11.0264
-10.9622
-11.05
-11.1826
-11.2701
-11.3156
-11.3467
-11.3723
-11.3956
-11.4142
-11.3936
-11.4685
-11.4911
-11.4924
-11.49
-11.4894
-11.4875
-11.4891
-11.4917
-11.4918
-11.4879
-11.4786
-11.4742
-11.4701
-11.4645
-11.4615
-11.4593
-11.4577
-11.4572
-11.4574
-11.4576
-11.4568
-11.4559
-11.4651
-11.4776
-11.481
-11.4792
-11.4782
-11.4802
-11.4857
-11.4923
-11.4875
-11.4355
-11.3617
-11.4059
-11.3851
-11.3634
-11.3443
-11.3258
-11.3002
-11.2678
-11.2386
-11.1996
-11.1427
-11.1361
-11.1676
-11.1906
-11.1785
-11.1301
-11.0918
-11.0737
-11.0735
-11.0818
-11.0958
-11.1058
-11.1106
-11.1052
-11.6943
-11.7163
-11.6933
-11.6351
-11.5856
-11.5731
-11.5926
-11.6165
-11.6126
-11.6288
-11.7031
-11.7632
-11.8093
-11.819
-11.8233
-11.8601
-11.9078
-11.9403
-11.9583
-11.9681
-11.973
-11.9756
-11.979
-11.9824
-11.983
-11.9844
-11.9838
-11.9816
-11.9795
-11.9779
-11.9766
-11.9752
-11.9735
-11.9712
-11.9697
-11.9685
-11.964
-11.9588
-11.956
-11.9535
-11.9512
-11.9498
-11.9492
-11.9494
-11.9499
-11.9506
-11.9529
-11.9564
-11.9598
-11.9625
-11.9658
-11.9713
-11.9796
-11.9894
-11.9965
-11.9993
-11.9911
-11.9685
-11.9466
-11.9202
-11.8876
-11.8527
-11.8198
-11.7962
-11.7843
-11.7847
-11.7835
-11.7645
-11.7385
-11.7243
-11.7192
-11.6882
-11.6368
-11.6017
-11.5945
-11.5984
-11.6114
-11.6208
-11.6215
-11.6132
-12.2023
-12.2157
-12.2127
-12.1932
-12.184
-12.1947
-12.2267
-12.2623
-12.279
-12.2906
-12.3317
-12.3958
-12.4509
-12.4599
-12.4537
-12.45
-12.4482
-12.4511
-12.4561
-12.4607
-12.4647
-12.4681
-12.4709
-12.4725
-12.4732
-12.474
-12.4746
-12.4737
-12.4723
-12.4709
-12.4695
-12.4687
-12.4678
-12.4662
-12.465
-12.4629
-12.4575
-12.4531
-12.4507
-12.4484
-12.4464
-12.446
-12.4468
-12.4474
-12.4474
-12.4478
-12.4498
-12.4523
-12.4541
-12.4552
-12.4571
-12.4607
-12.4664
-12.4735
-12.4802
-12.4827
-12.4717
-12.4517
-12.43
-12.4084
-12.3864
-12.365
-12.3442
-12.3221
-12.3
-12.2799
-12.266
-12.2547
-12.2429
-12.2318
-12.2289
-12.2329
-12.2064
-12.1776
-12.1605
-12.1465
-12.1356
-12.1358
-12.1284
-12.1221
-12.6927
-12.7146
-12.7385
-12.7439
-12.7636
-12.7943
-12.8302
-12.8637
-12.8945
-12.9274
-12.9695
-13.0246
-13.0627
-13.0578
-13.02
-12.9802
-12.945
-12.9334
-12.9384
-12.946
-12.9519
-12.9567
-12.9603
-12.9632
-12.9648
-12.9656
-12.9655
-12.9644
-12.9629
-12.9613
-12.9597
-12.9586
-12.9572
-12.9551
-12.9551
-12.9542
-12.9507
-12.9478
-12.9456
-12.9435
-12.9419
-12.9413
-12.9412
-12.9404
-12.9398
-12.9396
-12.9397
-12.9404
-12.9419
-12.9437
-12.9458
-12.9485
-12.9519
-12.9561
-12.9614
-12.9664
-12.9646
-12.954
-12.9365
-12.9163
-12.8938
-12.8726
-12.8572
-12.8407
-12.8223
-12.8036
-12.7867
-12.7715
-12.7571
-12.7469
-12.7399
-12.7502
-12.7554
-12.7462
-12.7277
-12.7103
-12.6771
-12.6609
-12.656
-12.6519
-13.2062
-13.2347
-13.2661
-13.2789
-13.3175
-13.3606
-13.3963
-13.4285
-13.4657
-13.5026
-13.5425
-13.5745
-13.5926
-13.5924
-13.5593
-13.5104
-13.466
-13.4368
-13.4316
-13.4355
-13.4422
-13.4486
-13.4532
-13.4558
-13.4573
-13.4576
-13.4571
-13.4561
-13.4547
-13.4532
-13.4517
-13.4503
-13.449
-13.4478
-13.4474
-13.4461
-13.4441
-13.4422
-13.4402
-13.4381
-13.4365
-13.4355
-13.4348
-13.4338
-13.433
-13.4326
-13.4324
-13.4325
-13.433
-13.4339
-13.435
-13.4363
-13.4377
-13.4409
-13.4492
-13.4638
-13.4776
-13.4808
-13.4701
-13.4492
-13.4265
-13.411
-13.3997
-13.393
-13.3822
-13.3701
-13.3588
-13.3461
-13.3309
-13.3161
-13.2983
-13.2942
-13.3088
-13.3144
-13.2949
-13.2681
-13.2373
-13.208
-13.2073
-13.2055
-13.7529
-13.7606
-13.7695
-13.8037
-13.856
-13.9093
-13.9509
-13.9862
-14.019
-14.05
-14.0755
-14.0934
-14.1019
-14.0994
-14.0805
-14.041
-14.0035
-13.9616
-13.9381
-13.9325
-13.9371
-13.9436
-13.9477
-13.9498
-13.9506
-13.9505
-13.9497
-13.9484
-13.947
-13.9454
-13.9436
-13.9418
-13.9403
-13.94
-13.9402
-13.9395
-13.9382
-13.9366
-13.9347
-13.9326
-13.931
-13.9297
-13.9285
-13.9272
-13.926
-13.9254
-13.9253
-13.9254
-13.9256
-13.9259
-13.9268
-13.9281
-13.93
-13.9356
-13.9534
-13.986
-14.0178
-14.0332
-14.0315
-14.0146
-13.9955
-13.9784
-13.9612
-13.9445
-13.9295
-13.9203
-13.9181
-13.9178
-13.9125
-13.896
-13.8671
-13.8526
-13.8586
-13.8633
-13.848
-13.8232
-13.7984
-13.7673
-13.7607
-13.7568
-14.293
-14.2918
-14.2814
-14.3374
-14.3952
-14.444
-14.4794
-14.5109
-14.5414
-14.5711
-14.597
-14.614
-14.6203
-14.614
-14.5968
-14.5681
-14.5312
-14.4953
-14.456
-14.4395
-14.4386
-14.4431
-14.4456
-14.4453
-14.4447
-14.4438
-14.4425
-14.4409
-14.4394
-14.4378
-14.436
-14.4343
-14.4326
-14.4327
-14.4339
-14.4339
-14.4328
-14.4313
-14.4295
-14.4276
-14.4261
-14.4249
-14.4232
-14.4214
-14.4199
-14.4196
-14.4194
-14.4193
-14.4193
-14.4197
-14.4207
-14.4231
-14.4281
-14.4412
-14.4751
-14.5305
-14.5799
-14.6092
-14.6072
-14.5851
-14.561
-14.5326
-14.5031
-14.4748
-14.4579
-14.4528
-14.4563
-14.4624
-14.4628
-14.4509
-14.4252
-14.4002
-14.3897
-14.3768
-14.3676
-14.3603
-14.3527
-14.3245
-14.3115
-14.3071
-14.8143
-14.8321
-14.8183
-14.871
-14.9179
-14.9576
-14.9867
-15.014
-15.0418
-15.0698
-15.0968
-15.1193
-15.1326
-15.1319
-15.1142
-15.0875
-15.054
-15.0264
-14.9833
-14.9553
-14.9456
-14.9454
-14.9443
-14.9415
-14.939
-14.9372
-14.9356
-14.9339
-14.9323
-14.9306
-14.929
-14.9274
-14.9257
-14.9262
-14.9288
-14.9294
-14.9282
-14.9265
-14.9248
-14.9232
-14.9221
-14.9214
-14.9198
-14.9171
-14.9154
-14.9152
-14.9152
-14.915
-14.9152
-14.916
-14.9178
-14.922
-14.9314
-14.9545
-15.0059
-15.0842
-15.1533
-15.181
-15.1661
-15.137
-15.1048
-15.0691
-15.0354
-15.0096
-14.9926
-14.9864
-14.9885
-14.9917
-14.9886
-14.9778
-14.9574
-14.9252
-14.9017
-14.8847
-14.8806
-14.8948
-14.9117
-14.8897
-14.8673
-14.8588
-15.3391
-15.3639
-15.3587
-15.3944
-15.4302
-15.4626
-15.4877
-15.5126
-15.5396
-15.5677
-15.5953
-15.6193
-15.6373
-15.6442
-15.6305
-15.6026
-15.5741
-15.5505
-15.51
-15.4731
-15.4537
-15.4472
-15.4425
-15.4372
-15.4332
-15.4307
-15.4288
-15.4271
-15.4255
-15.4239
-15.4224
-15.4211
-15.4194
-15.4206
-15.4247
-15.4261
-15.4245
-15.4221
-15.4203
-15.419
-15.4186
-15.4188
-15.4177
-15.4142
-15.4122
-15.4122
-15.4123
-15.4124
-15.4131
-15.4147
-15.4179
-15.4243
-15.4382
-15.4699
-15.5334
-15.6256
-15.7042
-15.7228
-15.7041
-15.675
-15.6413
-15.6079
-15.575
-15.5468
-15.527
-15.5172
-15.5149
-15.5132
-15.5055
-15.4902
-15.4683
-15.4438
-15.4247
-15.4211
-15.4356
-15.4632
-15.4848
-15.4743
-15.4339
-15.4121
-15.876
-15.8907
-15.8911
-15.9098
-15.9392
-15.9635
-15.9873
-16.0103
-16.0374
-16.0673
-16.0967
-16.1221
-16.1416
-16.1523
-16.1447
-16.1184
-16.0901
-16.0682
-16.0306
-15.9872
-15.9583
-15.9458
-15.9385
-15.9318
-15.927
-15.9241
-15.9221
-15.9204
-15.9189
-15.9175
-15.9162
-15.9151
-15.914
-15.9156
-15.9207
-15.923
-15.9209
-15.9175
-15.9153
-15.9142
-15.9145
-15.9158
-15.9151
-15.9117
-15.91
-15.91
-15.9102
-15.9107
-15.9121
-15.9149
-15.9197
-15.9284
-15.9459
-15.9823
-16.0497
-16.1425
-16.2184
-16.2395
-16.2299
-16.2116
-16.1839
-16.1489
-16.1123
-16.0798
-16.0549
-16.04
-16.0323
-16.027
-16.0194
-16.0071
-15.9911
-15.9842
-15.9949
-16.0086
-16.0217
-16.0331
-16.0461
-16.0406
-15.985
-15.9449
-16.4054
-16.4102
-16.4145
-16.4231
-16.4456
-16.462
-16.4826
-16.5047
-16.5311
-16.562
-16.5937
-16.6216
-16.6431
-16.6561
-16.6534
-16.631
-16.6039
-16.5791
-16.5449
-16.4957
-16.4573
-16.4408
-16.4322
-16.4252
-16.4204
-16.4175
-16.4154
-16.4137
-16.4123
-16.4112
-16.4101
-16.4094
-16.4089
-16.4103
-16.4152
-16.4181
-16.4159
-16.4115
-16.4089
-16.408
-16.4087
-16.4106
-16.4106
-16.4083
-16.4077
-16.4082
-16.4085
-16.4093
-16.4116
-16.4156
-16.4221
-16.4329
-16.4524
-16.4896
-16.5546
-16.6412
-16.7155
-16.7502
-16.7581
-16.7495
-16.7266
-16.6906
-16.6492
-16.6105
-16.5786
-16.5566
-16.5443
-16.5366
-16.5301
-16.5245
-16.526
-16.5397
-16.553
-16.5601
-16.5593
-16.554
-16.5445
-16.5131
-16.4538
-16.4201
-16.9186
-16.9213
-16.9296
-16.9343
-16.9475
-16.9568
-16.973
-16.9947
-17.0185
-17.0478
-17.0799
-17.1098
-17.134
-17.1499
-17.1508
-17.1325
-17.1093
-17.0843
-17.0506
-16.9935
-16.9512
-16.9338
-16.9246
-16.918
-16.9136
-16.9108
-16.9087
-16.9071
-16.9058
-16.9048
-16.904
-16.9036
-16.9034
-16.9043
-16.9076
-16.9099
-16.9083
-16.9032
-16.9007
-16.9001
-16.901
-16.903
-16.9038
-16.9035
-16.9046
-16.9059
-16.9064
-16.9078
-16.9109
-16.9161
-16.9242
-16.9366
-16.9569
-16.9923
-17.0514
-17.131
-17.2065
-17.2534
-17.2755
-17.2776
-17.2622
-17.2275
-17.1818
-17.1364
-17.0977
-17.0685
-17.0522
-17.0407
-17.0316
-17.0265
-17.029
-17.0362
-17.0393
-17.0377
-17.026
-16.999
-16.9581
-16.9105
-16.8799
-16.8747
-17.4221
-17.4267
-17.4347
-17.438
-17.4452
-17.4519
-17.4619
-17.4801
-17.5007
-17.5254
-17.5547
-17.5847
-17.6108
-17.629
-17.6325
-17.6159
-17.5963
-17.5747
-17.5374
-17.4789
-17.4421
-17.4258
-17.4168
-17.4109
-17.4069
-17.4041
-17.4021
-17.4005
-17.3992
-17.3982
-17.3975
-17.3973
-17.3974
-17.3976
-17.3985
-17.3994
-17.3979
-17.3942
-17.392
-17.3916
-17.3924
-17.3943
-17.3958
-17.3974
-17.4004
-17.4025
-17.4035
-17.4056
-17.4096
-17.4159
-17.4251
-17.4386
-17.4589
-17.4913
-17.5424
-17.612
-17.6865
-17.7417
-17.7752
-17.7892
-17.7799
-17.749
-17.7029
-17.6535
-17.6099
-17.5767
-17.5586
-17.5452
-17.5327
-17.5217
-17.5149
-17.5104
-17.5063
-17.5016
-17.4848
-17.4434
-17.3874
-17.3441
-17.3304
-17.3443
-17.9227
-17.9249
-17.9319
-17.9345
-17.9417
-17.9471
-17.9504
-17.962
-17.9791
-17.9979
-18.0208
-18.0469
-18.0721
-18.0899
-18.0951
-18.083
-18.0645
-18.042
-18.0052
-17.9587
-17.931
-17.9173
-17.9092
-17.9039
-17.9002
-17.8975
-17.8954
-17.8937
-17.8924
-17.8914
-17.8907
-17.8904
-17.8906
-17.8904
-17.8894
-17.8888
-17.8876
-17.8851
-17.8836
-17.8835
-17.8843
-17.8861
-17.888
-17.8908
-17.8949
-17.898
-17.8998
-17.9026
-17.9075
-17.9145
-17.9244
-17.9383
-17.958
-17.9868
-18.0293
-18.0873
-18.1535
-18.211
-18.2511
-18.272
-18.2711
-18.2456
-18.2042
-18.1581
-18.1143
-18.0796
-18.0616
-18.0508
-18.0383
-18.0248
-18.0117
-18.0002
-17.9905
-17.9802
-17.9669
-17.9408
-17.8987
-17.8643
-17.8521
-17.8451
-18.4234
-18.4157
-18.4253
-18.4266
-18.4362
-18.4406
-18.4421
-18.4446
-18.4556
-18.469
-18.4844
-18.5028
-18.523
-18.5387
-18.5446
-18.5371
-18.5214
-18.4998
-18.4697
-18.4389
-18.4197
-18.4088
-18.4018
-18.397
-18.3934
-18.3907
-18.3885
-18.3868
-18.3854
-18.3844
-18.3836
-18.383
-18.383
-18.3824
-18.3809
-18.3797
-18.3788
-18.3772
-18.3764
-18.3764
-18.3773
-18.379
-18.3811
-18.3843
-18.3887
-18.3924
-18.3952
-18.3989
-18.4044
-18.4119
-18.422
-18.4357
-18.4543
-18.4793
-18.5138
-18.5594
-18.6133
-18.6655
-18.7065
-18.7305
-18.7326
-18.7168
-18.6835
-18.6462
-18.6095
-18.5778
-18.5595
-18.5518
-18.5415
-18.5277
-18.512
-18.4973
-18.4846
-18.4723
-18.462
-18.4524
-18.4392
-18.4253
-18.4139
-18.3935
-18.9201
-18.9036
-18.9165
-18.9198
-18.9263
-18.9339
-18.9361
-18.9336
-18.9347
-18.9419
-18.9511
-18.9626
-18.9755
-18.9872
-18.9927
-18.9892
-18.9783
-18.962
-18.9414
-18.9222
-18.9093
-18.9006
-18.8945
-18.89
-18.8865
-18.8838
-18.8816
-18.8798
-18.8783
-18.8772
-18.8763
-18.8755
-18.8751
-18.8744
-18.8731
-18.8721
-18.8714
-18.8705
-18.8702
-18.8703
-18.8712
-18.8729
-18.8751
-18.8781
-18.8823
-18.8864
-18.89
-18.8943
-18.9003
-18.9079
-18.9179
-18.9309
-18.9477
-18.9695
-18.9974
-19.0324
-19.0734
-19.1155
-19.1514
-19.1751
-19.182
-19.1729
-19.1491
-19.121
-19.0957
-19.0716
-19.0526
-19.0476
-19.0425
-19.0301
-19.0135
-18.9966
-18.9818
-18.9692
-18.9585
-18.9516
-18.9485
-18.9454
-18.9514
-18.9494
-19.4114
-19.3981
-19.4088
-19.4137
-19.4178
-19.4251
-19.4303
-19.4288
-19.4238
-19.4221
-19.4255
-19.4325
-19.4403
-19.4478
-19.4519
-19.4506
-19.4441
-19.4337
-19.4209
-19.4089
-19.3996
-19.3925
-19.3871
-19.3828
-19.3794
-19.3766
-19.3744
-19.3726
-19.3711
-19.3698
-19.3689
-19.368
-19.3673
-19.3666
-19.3657
-19.365
-19.3646
-19.3641
-19.3641
-19.3644
-19.3654
-19.3673
-19.3694
-19.3722
-19.376
-19.3801
-19.3842
-19.389
-19.3951
-19.4026
-19.4122
-19.4242
-19.4393
-19.4579
-19.4807
-19.5077
-19.5384
-19.5701
-19.5985
-19.6189
-19.6275
-19.6229
-19.6092
-19.591
-19.5764
-19.561
-19.5448
-19.5408
-19.5404
-19.5315
-19.5149
-19.4964
-19.4789
-19.4648
-19.4533
-19.444
-19.4377
-19.4363
-19.4383
-19.4536
-19.902
-19.8989
-19.9025
-19.9068
-19.9106
-19.9142
-19.9211
-19.9242
-19.9214
-19.916
-19.913
-19.9155
-19.9208
-19.9243
-19.9263
-19.9254
-19.9212
-19.9144
-19.9059
-19.8976
-19.8903
-19.8843
-19.8793
-19.8752
-19.8719
-19.8692
-19.867
-19.8651
-19.8636
-19.8623
-19.8613
-19.8604
-19.8597
-19.859
-19.8584
-19.858
-19.8578
-19.8576
-19.8577
-19.8583
-19.8594
-19.8614
-19.8635
-19.8661
-19.8696
-19.8736
-19.8778
-19.8828
-19.8888
-19.8961
-19.9051
-19.9161
-19.9294
-19.9454
-19.9641
-19.9855
-20.0088
-20.0326
-20.0543
-20.0709
-20.0799
-20.0799
-20.0728
-20.0622
-20.0553
-20.0482
-20.0386
-20.0325
-20.0348
-20.0294
-20.0149
-19.995
-19.9747
-19.9591
-19.9469
-19.9367
-19.9302
-19.9239
-19.909
-19.931
-20.3982
-20.3954
-20.3965
-20.3998
-20.403
-20.406
-20.4086
-20.4156
-20.4174
-20.4153
-20.4133
-20.4144
-20.4146
-20.4122
-20.4116
-20.4097
-20.4059
-20.4004
-20.3938
-20.3872
-20.3811
-20.3757
-20.3712
-20.3673
-20.3641
-20.3615
-20.3593
-20.3574
-20.3559
-20.3546
-20.3536
-20.3527
-20.352
-20.3514
-20.3509
-20.3507
-20.3506
-20.3507
-20.3509
-20.3518
-20.3529
-20.3551
-20.3571
-20.3596
-20.3628
-20.3666
-20.3709
-20.3758
-20.3816
-20.3886
-20.3969
-20.4068
-20.4185
-20.4322
-20.4478
-20.4651
-20.4835
-20.502
-20.5189
-20.5326
-20.5414
-20.5445
-20.5426
-20.5378
-20.5365
-20.5365
-20.5312
-20.5235
-20.528
-20.525
-20.5131
-20.4928
-20.4713
-20.4534
-20.4397
-20.4286
-20.4205
-20.4122
-20.3996
-20.4102
-20.8907
-20.8895
-20.8905
-20.8934
-20.8966
-20.8999
-20.9017
-20.9055
-20.9105
-20.9094
-20.9141
-20.9195
-20.9139
-20.9065
-20.9018
-20.8981
-20.8937
-20.8886
-20.8828
-20.8771
-20.8717
-20.8669
-20.8627
-20.8591
-20.856
-20.8535
-20.8513
-20.8495
-20.8479
-20.8467
-20.8457
-20.8448
-20.8441
-20.8436
-20.8433
-20.8431
-20.8432
-20.8435
-20.8438
-20.8449
-20.8461
-20.8482
-20.8502
-20.8526
-20.8557
-20.8592
-20.8633
-20.8681
-20.8736
-20.8802
-20.8878
-20.8967
-20.907
-20.9188
-20.9319
-20.9462
-20.9612
-20.976
-20.9898
-21.0016
-21.0104
-21.0156
-21.0178
-21.0181
-21.0212
-21.0266
-21.0232
-21.0177
-21.0219
-21.0212
-21.0103
-20.9904
-20.9681
-20.9474
-20.9314
-20.9193
-20.9102
-20.9025
-20.8963
-20.8946
-21.3807
-21.3815
-21.3839
-21.3875
-21.392
-21.3971
-21.4015
-21.402
-21.4038
-21.4013
-21.4048
-21.4112
-21.4074
-21.3996
-21.3923
-21.3875
-21.3826
-21.3775
-21.3722
-21.367
-21.3622
-21.3578