/*--------------------------------*- C++ -*----------------------------------*\
| =========                 |                                                 |
| \\      /  F ield         | OpenFOAM: The Open Source CFD Toolbox           |
|  \\    /   O peration     | Version:  2412                                  |
|   \\  /    A nd           | Website:  www.openfoam.com                      |
|    \\/     M anipulation  |                                                 |
\*---------------------------------------------------------------------------*/
FoamFile
{
    version     2.0;
    format      ascii;
    arch        "LSB;label=32;scalar=64";
    class       surfaceScalarField;
    location    "7.75";
    object      phi;
}
// * * * * * * * * * * * * * * * * * * * * * * * * * * * * * * * * * * * * * //

dimensions      [0 3 -1 0 0 0 0];

oriented        oriented;

internalField   nonuniform List<scalar> 
12640
(
2.26003e-08
-2.2504e-08
2.17972e-08
1.83791e-10
-1.93999e-08
4.07656e-08
-9.81351e-08
7.8335e-08
-2.0482e-07
1.05927e-07
-3.28192e-07
1.22752e-07
-4.5856e-07
1.29953e-07
-5.88692e-07
1.29788e-07
-7.1333e-07
1.24285e-07
-8.28997e-07
1.15317e-07
-9.3391e-07
1.046e-07
-1.02727e-06
9.30911e-08
-1.10895e-06
8.14263e-08
-1.17934e-06
7.01719e-08
-1.23891e-06
5.93617e-08
-1.28795e-06
4.88484e-08
-1.32685e-06
3.86839e-08
-1.3561e-06
2.89684e-08
-1.37611e-06
1.96817e-08
-1.38723e-06
1.07521e-08
-1.38967e-06
2.07045e-09
-1.38356e-06
-6.42665e-09
-1.36903e-06
-1.47803e-08
-1.34619e-06
-2.30007e-08
-1.3152e-06
-3.10759e-08
-1.27616e-06
-3.90455e-08
-1.22912e-06
-4.69858e-08
-1.17404e-06
-5.49714e-08
-1.11086e-06
-6.30088e-08
-1.03955e-06
-7.10794e-08
-9.60133e-07
-7.91277e-08
-8.72674e-07
-8.7099e-08
-7.77333e-07
-9.49176e-08
-6.74391e-07
-1.02458e-07
-5.64298e-07
-1.09552e-07
-4.4775e-07
-1.15955e-07
-3.25647e-07
-1.2146e-07
-1.99068e-07
-1.25891e-07
-6.92998e-08
-1.29041e-07
6.21533e-08
-1.30691e-07
1.93737e-07
-1.30794e-07
3.23914e-07
-1.29367e-07
4.51115e-07
-1.2638e-07
5.74004e-07
-1.22065e-07
6.91368e-07
-1.16545e-07
8.02074e-07
-1.09898e-07
9.05294e-07
-1.02428e-07
1.00043e-06
-9.43684e-08
1.08716e-06
-8.59851e-08
1.16534e-06
-7.74644e-08
1.23484e-06
-6.88191e-08
1.29562e-06
-6.01401e-08
1.34775e-06
-5.15191e-08
1.39121e-06
-4.28911e-08
1.42604e-06
-3.42889e-08
1.45223e-06
-2.56947e-08
1.46975e-06
-1.70747e-08
1.47855e-06
-8.39391e-09
1.47853e-06
3.78306e-10
1.46961e-06
9.21686e-09
1.45173e-06
1.81409e-08
1.42471e-06
2.72171e-08
1.38839e-06
3.64848e-08
1.34252e-06
4.59822e-08
1.28682e-06
5.57614e-08
1.22093e-06
6.59059e-08
1.1444e-06
7.64971e-08
1.05688e-06
8.74385e-08
9.58196e-07
9.85585e-08
8.4851e-07
1.09506e-07
7.28633e-07
1.19643e-07
6.00379e-07
1.27964e-07
4.67069e-07
1.32968e-07
3.33966e-07
1.32718e-07
2.08542e-07
1.25003e-07
1.00346e-07
1.07744e-07
2.02362e-08
7.96455e-08
-2.17226e-08
4.15447e-08
-2.21876e-08
2.22709e-10
-2.22495e-08
4.50836e-10
-2.3806e-08
-6.49108e-08
6.42202e-08
-2.19818e-07
1.94573e-07
-4.56189e-07
3.13995e-07
-7.54274e-07
4.03245e-07
-1.09053e-06
4.58417e-07
-1.44359e-06
4.82552e-07
-1.79623e-06
4.82002e-07
-2.13568e-06
4.63323e-07
-2.45331e-06
4.32585e-07
-2.7439e-06
3.94907e-07
-3.0047e-06
3.53681e-07
-3.23484e-06
3.11388e-07
-3.4347e-06
2.6983e-07
-3.60507e-06
2.2948e-07
-3.74661e-06
1.90079e-07
-3.85993e-06
1.51655e-07
-3.94577e-06
1.14415e-07
-4.00491e-06
7.83991e-08
-4.03808e-06
4.35007e-08
-4.04585e-06
9.46006e-09
-4.02862e-06
-2.39608e-08
-3.98668e-06
-5.693e-08
-3.92028e-06
-8.95162e-08
-3.82967e-06
-1.21707e-07
-3.71509e-06
-1.53559e-07
-3.57672e-06
-1.85214e-07
-3.41464e-06
-2.16824e-07
-3.22891e-06
-2.48437e-07
-3.01959e-06
-2.80013e-07
-2.78685e-06
-3.11389e-07
-2.53106e-06
-3.42332e-07
-2.25285e-06
-3.72471e-07
-1.95327e-06
-4.01314e-07
-1.63379e-06
-4.28225e-07
-1.29644e-06
-4.52427e-07
-9.43795e-07
-4.73161e-07
-5.78967e-07
-4.8972e-07
-2.05557e-07
-5.01405e-07
1.72409e-07
-5.07571e-07
5.50638e-07
-5.07909e-07
9.2484e-07
-5.02439e-07
1.29086e-06
-4.91262e-07
1.64489e-06
-4.74964e-07
1.98352e-06
-4.54067e-07
2.30378e-06
-4.29075e-07
2.60323e-06
-4.00829e-07
2.88004e-06
-3.70165e-07
3.13301e-06
-3.37984e-07
3.36143e-06
-3.04961e-07
3.56489e-06
-2.71412e-07
3.74318e-06
-2.37604e-07
3.89618e-06
-2.03749e-07
4.0239e-06
-1.69898e-07
4.12628e-06
-1.3602e-07
4.20326e-06
-1.02076e-07
4.25477e-06
-6.80578e-08
4.28071e-06
-3.38744e-08
4.28095e-06
5.33437e-10
4.25537e-06
3.51226e-08
4.20379e-06
6.99701e-08
4.12598e-06
1.05219e-07
4.02158e-06
1.41018e-07
3.89015e-06
1.77482e-07
3.73116e-06
2.14765e-07
3.544e-06
2.53035e-07
3.32795e-06
2.92447e-07
3.08257e-06
3.3266e-07
2.80797e-06
3.72941e-07
2.50525e-06
4.11937e-07
2.17713e-06
4.47416e-07
1.82873e-06
4.7595e-07
1.46857e-06
4.92663e-07
1.10928e-06
4.91527e-07
7.67911e-07
4.65866e-07
4.65544e-07
4.09624e-07
2.25275e-07
3.19505e-07
6.75198e-08
1.9904e-07
3.84223e-10
6.72234e-08
-2.142e-08
-4.01934e-08
1.57565e-08
-1.95327e-07
2.18761e-07
-4.73607e-07
4.72287e-07
-8.59402e-07
6.99438e-07
-1.3259e-06
8.69264e-07
-1.84231e-06
9.74488e-07
-2.38039e-06
1.02046e-06
-2.91691e-06
1.01843e-06
-3.43411e-06
9.80499e-07
-3.9197e-06
9.18232e-07
-4.36589e-06
8.41264e-07
-4.76816e-06
7.56218e-07
-5.12472e-06
6.68243e-07
-5.4356e-06
5.80984e-07
-5.70158e-06
4.95715e-07
-5.92344e-06
4.12205e-07
-6.10191e-06
3.30403e-07
-6.23774e-06
2.50528e-07
-6.33178e-06
1.72716e-07
-6.38492e-06
9.68721e-08
-6.39788e-06
2.26142e-08
-6.37119e-06
-5.04718e-08
-6.30525e-06
-1.22706e-07
-6.20038e-06
-1.94222e-07
-6.0569e-06
-2.65006e-07
-5.87517e-06
-3.35097e-07
-5.6555e-06
-4.04675e-07
-5.39818e-06
-4.73942e-07
-5.10339e-06
-5.43011e-07
-4.77136e-06
-6.11807e-07
-4.40248e-06
-6.80031e-07
-3.9974e-06
-7.47135e-07
-3.55727e-06
-8.12307e-07
-3.08379e-06
-8.7448e-07
-2.57937e-06
-9.32303e-07
-2.04722e-06
-9.84221e-07
-1.49136e-06
-1.02864e-06
-9.16705e-07
-1.06399e-06
-3.2887e-07
-1.08885e-06
2.6592e-07
-1.10196e-06
8.61085e-07
-1.10268e-06
1.44994e-06
-1.09091e-06
2.02607e-06
-1.06701e-06
2.58353e-06
-1.03207e-06
3.11698e-06
-9.87198e-07
3.62186e-06
-9.33664e-07
4.09439e-06
-8.73105e-07
4.53166e-06
-8.07228e-07
4.93167e-06
-7.37813e-07
5.29314e-06
-6.66294e-07
5.61534e-06
-5.93519e-07
5.89783e-06
-5.20054e-07
6.14035e-06
-4.46262e-07
6.34277e-06
-3.72354e-07
6.505e-06
-2.9832e-07
6.62694e-06
-2.24118e-07
6.70846e-06
-1.49715e-07
6.74947e-06
-7.50482e-08
6.74988e-06
-6.68411e-11
6.70955e-06
7.5229e-08
6.62833e-06
1.50955e-07
6.50595e-06
2.27353e-07
6.34204e-06
3.04679e-07
6.13615e-06
3.83134e-07
5.88771e-06
4.62977e-07
5.59609e-06
5.44446e-07
5.2607e-06
6.27648e-07
4.88133e-06
7.11852e-07
4.45864e-06
7.95455e-07
3.99476e-06
8.7564e-07
3.49408e-06
9.47929e-07
2.96427e-06
1.0056e-06
2.41741e-06
1.0394e-06
1.87077e-06
1.03808e-06
1.3472e-06
9.89382e-07
8.74477e-07
8.82354e-07
4.82957e-07
7.1118e-07
2.00138e-07
4.82318e-07
4.13669e-08
2.26563e-07
2.06153e-08
-7.93198e-08
9.45998e-08
-3.21541e-07
4.60543e-07
-7.15393e-07
8.65866e-07
-1.23474e-06
1.2187e-06
-1.84565e-06
1.47996e-06
-2.51204e-06
1.64081e-06
-3.20122e-06
1.70973e-06
-3.88616e-06
1.70355e-06
-4.54608e-06
1.64066e-06
-5.16644e-06
1.53892e-06
-5.73772e-06
1.41303e-06
-6.25417e-06
1.27331e-06
-6.71303e-06
1.12786e-06
-7.11388e-06
9.82598e-07
-7.45745e-06
8.40032e-07
-7.74474e-06
7.00225e-07
-7.97657e-06
5.62986e-07
-8.15359e-06
4.28325e-07
-8.27652e-06
2.96417e-07
-8.3462e-06
1.67262e-07
-8.36336e-06
4.04057e-08
-8.32863e-06
-8.4669e-08
-8.24248e-06
-2.08398e-07
-8.10533e-06
-3.30978e-07
-7.91761e-06
-4.52394e-07
-7.67974e-06
-5.72666e-07
-7.39218e-06
-6.91988e-07
-7.05532e-06
-8.10589e-07
-6.66957e-06
-9.286e-07
-6.23533e-06
-1.04592e-06
-5.75316e-06
-1.16212e-06
-5.22395e-06
-1.27629e-06
-4.64912e-06
-1.38709e-06
-4.03087e-06
-1.4927e-06
-3.37229e-06
-1.59088e-06
-2.67753e-06
-1.679e-06
-1.9519e-06
-1.75431e-06
-1.2018e-06
-1.81415e-06
-4.34587e-07
-1.85615e-06
3.41661e-07
-1.87833e-06
1.11841e-06
-1.87957e-06
1.88697e-06
-1.85964e-06
2.63888e-06
-1.81912e-06
3.3663e-06
-1.75973e-06
4.06227e-06
-1.68344e-06
4.72092e-06
-1.59262e-06
5.33744e-06
-1.48998e-06
5.90811e-06
-1.3783e-06
6.4303e-06
-1.26043e-06
6.90227e-06
-1.13875e-06
7.32305e-06
-1.01481e-06
7.69205e-06
-8.89612e-07
8.00896e-06
-7.63755e-07
8.2735e-06
-6.37512e-07
8.48554e-06
-5.10987e-07
8.64492e-06
-3.84156e-07
8.75152e-06
-2.56966e-07
8.80521e-06
-1.29387e-07
8.80589e-06
-1.39106e-09
8.75345e-06
1.27048e-07
8.64772e-06
2.56073e-07
8.48851e-06
3.85985e-07
8.27554e-06
5.17123e-07
8.0084e-06
6.49798e-07
7.68662e-06
7.84341e-07
7.30973e-06
9.21001e-07
6.8774e-06
1.0597e-06
6.38977e-06
1.19926e-06
5.848e-06
1.33705e-06
5.25499e-06
1.46852e-06
4.61627e-06
1.58658e-06
3.94117e-06
1.6807e-06
3.24396e-06
1.73671e-06
2.5448e-06
1.73746e-06
1.87013e-06
1.6644e-06
1.25207e-06
1.5009e-06
7.26303e-07
1.23766e-06
3.27176e-07
8.82429e-07
8.06503e-08
4.73871e-07
1.01667e-07
-1.11112e-07
2.05841e-07
-4.2736e-07
7.76634e-07
-9.20486e-07
1.35899e-06
-1.55334e-06
1.85166e-06
-2.28475e-06
2.2113e-06
-3.07387e-06
2.42995e-06
-3.88467e-06
2.52061e-06
-4.68756e-06
2.50652e-06
-5.45986e-06
2.41304e-06
-6.18579e-06
2.26498e-06
-6.85497e-06
2.0825e-06
-7.46081e-06
1.87965e-06
-7.9999e-06
1.66765e-06
-8.47128e-06
1.45477e-06
-8.87557e-06
1.2451e-06
-9.21396e-06
1.03933e-06
-9.48736e-06
8.37097e-07
-9.6964e-06
6.38067e-07
-9.84164e-06
4.42357e-07
-9.92375e-06
2.50031e-07
-9.94347e-06
6.07025e-08
-9.90148e-06
-1.26185e-07
-9.79839e-06
-3.11115e-07
-9.63474e-06
-4.9434e-07
-9.41106e-06
-6.75868e-07
-9.12787e-06
-8.557e-07
-8.78574e-06
-1.03403e-06
-8.3852e-06
-1.21107e-06
-7.92687e-06
-1.38694e-06
-7.41132e-06
-1.56153e-06
-6.83918e-06
-1.73435e-06
-6.2114e-06
-1.90421e-06
-5.5295e-06
-2.06915e-06
-4.79589e-06
-2.22649e-06
-4.01408e-06
-2.37289e-06
-3.18893e-06
-2.50437e-06
-2.32677e-06
-2.6167e-06
-1.43526e-06
-2.70592e-06
-5.23178e-07
-2.76851e-06
3.99814e-07
-2.80162e-06
1.32348e-06
-2.80356e-06
2.23739e-06
-2.77389e-06
3.13134e-06
-2.71342e-06
3.99582e-06
-2.62457e-06
4.82246e-06
-2.51046e-06
5.60428e-06
-2.37485e-06
6.33569e-06
-2.22183e-06
7.01244e-06
-2.05553e-06
7.63156e-06
-1.88005e-06
8.19113e-06
-1.69883e-06
8.69006e-06
-1.51426e-06
9.12776e-06
-1.32786e-06
9.5039e-06
-1.14046e-06
9.8182e-06
-9.52397e-07
1.00704e-05
-7.63799e-07
1.02603e-05
-5.74639e-07
1.03876e-05
-3.84872e-07
1.04522e-05
-1.94487e-07
1.04537e-05
-3.49567e-09
1.03922e-05
1.88066e-07
1.02674e-05
3.80344e-07
1.00793e-05
5.73659e-07
9.82759e-06
7.68414e-07
9.51207e-06
9.64958e-07
9.13248e-06
1.16364e-06
8.68858e-06
1.36468e-06
8.18029e-06
1.56785e-06
7.60801e-06
1.77145e-06
6.97328e-06
1.97175e-06
6.27947e-06
2.16238e-06
5.53272e-06
2.33345e-06
4.74327e-06
2.47036e-06
3.92673e-06
2.55356e-06
3.10509e-06
2.55948e-06
2.30731e-06
2.46262e-06
1.5689e-06
2.23976e-06
9.30123e-07
1.87701e-06
4.32168e-07
1.38106e-06
1.12384e-07
7.93805e-07
2.13718e-07
-1.35353e-07
3.41303e-07
-5.11036e-07
1.15181e-06
-1.0859e-06
1.93347e-06
-1.81287e-06
2.57825e-06
-2.64376e-06
3.04161e-06
-3.53315e-06
3.31877e-06
-4.44199e-06
3.4289e-06
-5.33881e-06
3.40267e-06
-6.19959e-06
3.27306e-06
-7.00791e-06
3.07251e-06
-7.7531e-06
2.827e-06
-8.42834e-06
2.55447e-06
-9.02974e-06
2.26897e-06
-9.55588e-06
1.9811e-06
-1.00071e-05
1.69666e-06
-1.03846e-05
1.4172e-06
-1.06895e-05
1.14226e-06
-1.09223e-05
8.71251e-07
-1.10836e-05
6.04134e-07
-1.1174e-05
3.40941e-07
-1.11943e-05
8.14261e-08
-1.11451e-05
-1.74905e-07
-1.10272e-05
-4.28532e-07
-1.08414e-05
-6.79745e-07
-1.05883e-05
-9.28579e-07
-1.02685e-05
-1.17501e-06
-9.88289e-06
-1.41922e-06
-9.43212e-06
-1.66139e-06
-8.917e-06
-1.9016e-06
-8.33822e-06
-2.13982e-06
-7.69644e-06
-2.37565e-06
-6.99249e-06
-2.60767e-06
-6.22776e-06
-2.83338e-06
-5.40459e-06
-3.04914e-06
-4.52668e-06
-3.25026e-06
-3.59932e-06
-3.43118e-06
-2.62954e-06
-3.58593e-06
-1.62601e-06
-3.7089e-06
-5.98733e-07
-3.79524e-06
4.41192e-07
-3.84101e-06
1.48203e-06
-3.84389e-06
2.51181e-06
-3.80317e-06
3.5188e-06
-3.71992e-06
4.49203e-06
-3.59735e-06
5.42191e-06
-3.4399e-06
6.30044e-06
-3.25297e-06
7.12148e-06
-3.04252e-06
7.8805e-06
-2.81425e-06
8.5745e-06
-2.57379e-06
9.2017e-06
-2.32581e-06
9.76118e-06
-2.07358e-06
1.02525e-05
-1.81906e-06
1.06753e-05
-1.56323e-06
1.10293e-05
-1.30642e-06
1.13142e-05
-1.0487e-06
1.15294e-05
-7.89978e-07
1.16745e-05
-5.30188e-07
1.17492e-05
-2.69354e-07
1.1753e-05
-7.58177e-09
1.16858e-05
2.55002e-07
1.15473e-05
5.18466e-07
1.13376e-05
7.83062e-07
1.10564e-05
1.04918e-06
1.07038e-05
1.31718e-06
1.02796e-05
1.58734e-06
9.784e-06
1.85987e-06
9.21702e-06
2.13436e-06
8.57937e-06
2.40861e-06
7.87267e-06
2.67793e-06
7.10047e-06
2.93406e-06
6.26919e-06
3.16425e-06
5.38956e-06
3.34957e-06
4.47803e-06
3.46477e-06
3.55792e-06
3.4793e-06
2.66018e-06
3.36004e-06
1.82332e-06
3.07623e-06
1.09195e-06
2.60795e-06
5.13982e-07
1.95846e-06
1.36642e-07
1.16985e-06
3.49082e-07
-1.53643e-07
4.94808e-07
-5.77033e-07
1.57397e-06
-1.21939e-06
2.57464e-06
-2.02529e-06
3.38288e-06
-2.94006e-06
3.95487e-06
-3.91363e-06
4.29079e-06
-4.90403e-06
4.41773e-06
-5.87797e-06
4.37486e-06
-6.81045e-06
4.20356e-06
-7.68468e-06
3.94459e-06
-8.49007e-06
3.63018e-06
-9.22008e-06
3.28246e-06
-9.8706e-06
2.91791e-06
-1.04399e-05
2.54924e-06
-1.09279e-05
2.18395e-06
-1.13356e-05
1.82445e-06
-1.16641e-05
1.47041e-06
-1.19142e-05
1.12107e-06
-1.20863e-05
7.76246e-07
-1.21813e-05
4.35964e-07
-1.21997e-05
1.00102e-07
-1.21425e-05
-2.31716e-07
-1.20106e-05
-5.5993e-07
-1.18049e-05
-8.8483e-07
-1.15263e-05
-1.20643e-06
-1.11757e-05
-1.52469e-06
-1.07543e-05
-1.83971e-06
-1.02629e-05
-2.15167e-06
-9.70257e-06
-2.46069e-06
-9.07419e-06
-2.76686e-06
-8.37835e-06
-3.07006e-06
-7.61564e-06
-3.36885e-06
-6.78711e-06
-3.6603e-06
-5.89475e-06
-3.93981e-06
-4.94207e-06
-4.20119e-06
-3.93448e-06
-4.43694e-06
-2.87949e-06
-4.63905e-06
-1.78658e-06
-4.7999e-06
-6.66905e-07
-4.91298e-06
4.67127e-07
-4.97311e-06
1.60238e-06
-4.97721e-06
2.72542e-06
-4.92431e-06
3.82319e-06
-4.8158e-06
4.88343e-06
-4.65571e-06
5.89536e-06
-4.44998e-06
6.85016e-06
-4.20596e-06
7.74118e-06
-3.93179e-06
8.56397e-06
-3.63538e-06
9.31584e-06
-3.32409e-06
9.99545e-06
-3.00394e-06
1.06023e-05
-2.67905e-06
1.11362e-05
-2.35172e-06
1.1597e-05
-2.02286e-06
1.19842e-05
-1.69258e-06
1.22972e-05
-1.36075e-06
1.25351e-05
-1.02715e-06
1.26972e-05
-6.9172e-07
1.27827e-05
-3.545e-07
1.27912e-05
-1.57577e-08
1.27221e-05
3.2422e-07
1.25751e-05
6.65377e-07
1.23503e-05
1.00779e-06
1.20474e-05
1.35175e-06
1.16666e-05
1.69747e-06
1.12081e-05
2.04514e-06
1.06723e-05
2.39492e-06
1.00594e-05
2.74621e-06
9.37041e-06
3.09652e-06
8.60681e-06
3.44027e-06
7.77205e-06
3.76743e-06
6.87267e-06
4.06215e-06
5.91971e-06
4.30103e-06
4.93023e-06
4.45274e-06
3.92866e-06
4.47931e-06
2.94774e-06
4.33923e-06
2.0288e-06
3.99325e-06
1.22082e-06
3.41385e-06
5.77971e-07
2.59888e-06
1.5495e-07
1.58978e-06
5.01882e-07
-1.68347e-07
6.62598e-07
-6.3223e-07
2.03568e-06
-1.33359e-06
3.27387e-06
-2.20965e-06
4.25675e-06
-3.19961e-06
4.94234e-06
-4.24858e-06
5.3372e-06
-5.31144e-06
5.47814e-06
-6.35291e-06
5.41379e-06
-7.34715e-06
5.19494e-06
-8.27721e-06
4.87141e-06
-9.1328e-06
4.48222e-06
-9.90791e-06
4.05396e-06
-1.05987e-05
3.6054e-06
-1.12033e-05
3.15103e-06
-1.17212e-05
2.69968e-06
-1.21532e-05
2.25468e-06
-1.25e-05
1.81586e-06
-1.27625e-05
1.38245e-06
-1.29412e-05
9.54217e-07
-1.3037e-05
5.31309e-07
-1.30509e-05
1.13768e-07
-1.29838e-05
-2.98668e-07
-1.28369e-05
-7.06382e-07
-1.26114e-05
-1.10963e-06
-1.23085e-05
-1.50837e-06
-1.19296e-05
-1.90243e-06
-1.1476e-05
-2.29182e-06
-1.09492e-05
-2.67671e-06
-1.03506e-05
-3.05732e-06
-9.68125e-06
-3.43402e-06
-8.94172e-06
-3.80719e-06
-8.13227e-06
-4.17573e-06
-7.25333e-06
-4.53649e-06
-6.30618e-06
-4.88405e-06
-5.29374e-06
-5.21058e-06
-4.22125e-06
-5.50628e-06
-3.09651e-06
-5.76053e-06
-1.92975e-06
-5.9633e-06
-7.33218e-07
-6.1061e-06
4.79426e-07
-6.18231e-06
1.69364e-06
-6.18796e-06
2.89465e-06
-6.12186e-06
4.06804e-06
-5.98575e-06
5.20036e-06
-5.78461e-06
6.27972e-06
-5.52594e-06
7.29658e-06
-5.21945e-06
8.24395e-06
-4.87586e-06
9.11769e-06
-4.50589e-06
9.9158e-06
-4.1191e-06
1.06378e-05
-3.72293e-06
1.12837e-05
-3.32222e-06
1.1854e-05
-2.91931e-06
1.23483e-05
-2.51473e-06
1.27661e-05
-2.10805e-06
1.31061e-05
-1.69871e-06
1.3367e-05
-1.28627e-06
1.35475e-05
-8.70709e-07
1.36465e-05
-4.5223e-07
1.3663e-05
-3.13003e-08
1.35963e-05
3.91601e-07
1.34459e-05
8.16184e-07
1.32115e-05
1.2423e-06
1.28931e-05
1.66999e-06
1.24909e-05
2.09918e-06
1.20054e-05
2.52985e-06
1.14371e-05
2.96203e-06
1.07869e-05
3.39506e-06
1.00554e-05
3.82632e-06
9.24424e-06
4.24947e-06
8.35662e-06
4.65281e-06
7.39903e-06
5.01731e-06
6.38264e-06
5.31483e-06
5.32503e-06
5.50762e-06
4.25166e-06
5.54975e-06
3.19704e-06
5.39061e-06
2.20541e-06
4.98128e-06
1.33026e-06
4.28518e-06
6.31192e-07
3.29369e-06
1.68794e-07
2.04758e-06
6.68011e-07
-1.8194e-07
8.43428e-07
-6.84329e-07
2.53507e-06
-1.44299e-06
4.02962e-06
-2.38787e-06
5.19884e-06
-3.45172e-06
6.00319e-06
-4.57452e-06
6.45682e-06
-5.70759e-06
6.60839e-06
-6.81336e-06
6.51701e-06
-7.86525e-06
6.2442e-06
-8.84637e-06
5.84949e-06
-9.74693e-06
5.37915e-06
-1.05617e-05
4.86463e-06
-1.12875e-05
4.32707e-06
-1.19226e-05
3.78231e-06
-1.24663e-05
3.24005e-06
-1.29187e-05
2.70427e-06
-1.32802e-05
2.17508e-06
-1.35515e-05
1.65185e-06
-1.37332e-05
1.13443e-06
-1.38263e-05
6.23341e-07
-1.38322e-05
1.18889e-07
-1.37521e-05
-3.79024e-07
-1.35876e-05
-8.70768e-07
-1.33402e-05
-1.35662e-06
-1.30113e-05
-1.83637e-06
-1.26029e-05
-2.30962e-06
-1.2117e-05
-2.77612e-06
-1.15558e-05
-3.23599e-06
-1.09213e-05
-3.68964e-06
-1.02148e-05
-4.13797e-06
-9.43709e-06
-4.58215e-06
-8.58792e-06
-5.02186e-06
-7.66681e-06
-5.45431e-06
-6.67387e-06
-5.87351e-06
-5.611e-06
-6.26978e-06
-4.48299e-06
-6.63046e-06
-3.29781e-06
-6.94172e-06
-2.06644e-06
-7.19058e-06
-8.02182e-07
-7.36616e-06
4.80008e-07
-7.46022e-06
1.76425e-06
-7.46788e-06
3.03433e-06
-7.38762e-06
4.27454e-06
-7.22163e-06
5.47014e-06
-6.97591e-06
6.60822e-06
-6.65971e-06
7.67848e-06
-6.28542e-06
8.67391e-06
-5.86703e-06
9.59084e-06
-5.41866e-06
1.04285e-05
-4.95266e-06
1.11875e-05
-4.47802e-06
1.1869e-05
-3.99999e-06
1.24737e-05
-3.52047e-06
1.30014e-05
-3.03909e-06
1.3451e-05
-2.55446e-06
1.38205e-05
-2.06528e-06
1.41076e-05
-1.5708e-06
1.43103e-05
-1.07109e-06
1.44269e-05
-5.66841e-07
1.4456e-05
-5.8818e-08
1.43965e-05
4.52288e-07
1.42476e-05
9.65903e-07
1.40087e-05
1.4816e-06
1.36798e-05
1.99903e-06
1.32611e-05
2.5176e-06
1.27533e-05
3.03689e-06
1.21576e-05
3.55669e-06
1.14747e-05
4.07642e-06
1.07057e-05
4.59348e-06
9.8519e-06
5.10108e-06
8.91622e-06
5.58595e-06
7.90487e-06
6.02584e-06
6.829e-06
6.38763e-06
5.70657e-06
6.62677e-06
4.564e-06
6.68873e-06
3.43775e-06
6.51284e-06
2.37526e-06
6.03934e-06
1.43455e-06
5.22123e-06
6.80518e-07
4.04277e-06
1.80118e-07
2.54305e-06
8.45885e-07
-1.968e-07
1.03862e-06
-7.41185e-07
3.07611e-06
-1.56251e-06
4.84776e-06
-2.58232e-06
6.21587e-06
-3.72575e-06
7.14399e-06
-4.92715e-06
7.65516e-06
-6.13368e-06
7.81233e-06
-7.30521e-06
7.68679e-06
-8.41462e-06
7.35244e-06
-9.44552e-06
6.87921e-06
-1.03891e-05
6.32105e-06
-1.1241e-05
5.71417e-06
-1.19992e-05
5.0824e-06
-1.26623e-05
4.44245e-06
-1.32293e-05
3.80433e-06
-1.36997e-05
3.1723e-06
-1.40734e-05
2.54672e-06
-1.43504e-05
1.92726e-06
-1.45315e-05
1.31425e-06
-1.4618e-05
7.0881e-07
-1.46116e-05
1.11777e-07
-1.45143e-05
-4.76718e-07
-1.4328e-05
-1.05716e-06
-1.40543e-05
-1.62998e-06
-1.36953e-05
-2.19479e-06
-1.32533e-05
-2.75066e-06
-1.27314e-05
-3.29677e-06
-1.21329e-05
-3.833e-06
-1.14607e-05
-4.36007e-06
-1.07169e-05
-4.87974e-06
-9.90243e-06
-5.39443e-06
-9.01656e-06
-5.9053e-06
-8.05751e-06
-6.41074e-06
-7.02366e-06
-6.90457e-06
-5.91542e-06
-7.37506e-06
-4.73682e-06
-7.80598e-06
-3.49592e-06
-8.17942e-06
-2.20446e-06
-8.47874e-06
-8.76959e-07
-8.69028e-06
4.70349e-07
-8.80407e-06
1.82026e-06
-8.81429e-06
3.15523e-06
-8.71909e-06
4.4582e-06
-8.52112e-06
5.71307e-06
-8.22734e-06
6.90578e-06
-7.849e-06
8.02527e-06
-7.4015e-06
9.06454e-06
-6.9029e-06
1.00209e-05
-6.37167e-06
1.08951e-05
-5.82362e-06
1.16897e-05
-5.26947e-06
1.24071e-05
-4.71433e-06
1.30484e-05
-4.15888e-06
1.36131e-05
-3.60113e-06
1.40994e-05
-3.03814e-06
1.45039e-05
-2.46747e-06
1.48232e-05
-1.88791e-06
1.5054e-05
-1.29992e-06
1.5194e-05
-7.05081e-07
1.52413e-05
-1.04725e-07
1.51945e-05
5.0012e-07
1.50523e-05
1.10875e-06
1.48139e-05
1.72045e-06
1.44787e-05
2.33427e-06
1.40472e-05
2.94888e-06
1.35204e-05
3.56307e-06
1.28999e-05
4.17627e-06
1.21871e-05
4.78796e-06
1.13831e-05
5.39599e-06
1.04889e-05
5.99351e-06
9.50685e-06
6.56594e-06
8.44257e-06
7.08785e-06
7.30684e-06
7.52091e-06
6.11771e-06
7.81326e-06
4.90257e-06
7.90097e-06
3.69991e-06
7.71226e-06
2.56073e-06
7.17495e-06
1.54801e-06
6.23034e-06
7.33178e-07
4.854e-06
1.92428e-07
3.08043e-06
1.03808e-06
-2.15342e-07
1.25214e-06
-8.10748e-07
3.66856e-06
-1.70703e-06
5.74119e-06
-2.8151e-06
7.32159e-06
-4.04987e-06
8.37735e-06
-5.33947e-06
8.9425e-06
-6.62616e-06
9.09685e-06
-7.8673e-06
8.92687e-06
-9.03561e-06
8.52108e-06
-1.01161e-05
7.96087e-06
-1.11018e-05
7.30794e-06
-1.19898e-05
6.6029e-06
-1.27791e-05
5.87185e-06
-1.34687e-05
5.13184e-06
-1.40575e-05
4.39282e-06
-1.45442e-05
3.65879e-06
-1.49277e-05
2.9302e-06
-1.52075e-05
2.20719e-06
-1.5384e-05
1.49111e-06
-1.5459e-05
7.84236e-07
-1.54351e-05
8.83126e-08
-1.53151e-05
-5.96281e-07
-1.51012e-05
-1.27044e-06
-1.47955e-05
-1.93505e-06
-1.43999e-05
-2.58955e-06
-1.39177e-05
-3.23198e-06
-1.33532e-05
-3.86036e-06
-1.27111e-05
-4.47403e-06
-1.19961e-05
-5.07394e-06
-1.12116e-05
-5.66316e-06
-1.03589e-05
-6.24601e-06
-9.43684e-06
-6.82627e-06
-8.44176e-06
-7.40466e-06
-7.36962e-06
-7.97552e-06
-6.21863e-06
-8.52486e-06
-4.99169e-06
-9.03172e-06
-3.69705e-06
-9.47285e-06
-2.34748e-06
-9.82712e-06
-9.58879e-07
-1.00777e-05
4.51253e-07
-1.0213e-05
1.86459e-06
-1.02265e-05
3.26251e-06
-1.01159e-05
4.62669e-06
-9.88427e-06
5.93964e-06
-9.53937e-06
7.18585e-06
-9.09437e-06
8.35324e-06
-8.5681e-06
9.43473e-06
-7.98365e-06
1.0429e-05
-7.36528e-06
1.13394e-05
-6.73339e-06
1.21708e-05
-6.10034e-06
1.29273e-05
-5.47032e-06
1.36104e-05
-4.84165e-06
1.42192e-05
-4.20962e-06
1.47501e-05
-3.5689e-06
1.51982e-05
-2.9155e-06
1.55581e-05
-2.24768e-06
1.58249e-05
-1.56667e-06
1.59954e-05
-8.7554e-07
1.60675e-05
-1.76948e-07
1.60397e-05
5.2769e-07
1.59102e-05
1.23787e-06
1.56773e-05
1.9528e-06
1.53402e-05
2.67073e-06
1.48992e-05
3.38912e-06
1.43559e-05
4.10542e-06
1.37128e-05
4.81834e-06
1.29722e-05
5.52756e-06
1.21351e-05
6.23194e-06
1.12021e-05
6.92533e-06
1.01745e-05
7.5923e-06
9.05673e-06
8.20438e-06
7.85866e-06
8.71776e-06
6.59797e-06
9.07272e-06
5.30265e-06
9.19503e-06
4.0132e-06
9.00034e-06
2.78452e-06
8.40221e-06
1.68574e-06
7.32796e-06
7.98027e-07
5.741e-06
2.10099e-07
3.66799e-06
1.25048e-06
-2.40124e-07
1.49061e-06
-9.01464e-07
4.32795e-06
-1.89204e-06
6.72985e-06
-3.1086e-06
8.53603e-06
-4.45145e-06
9.72022e-06
-5.84171e-06
1.03316e-05
-7.21615e-06
1.04693e-05
-8.53015e-06
1.02392e-05
-9.75724e-06
9.74792e-06
-1.08853e-05
9.09016e-06
-1.19106e-05
8.33512e-06
-1.28325e-05
7.52675e-06
-1.3651e-05
6.69201e-06
-1.43653e-05
5.84756e-06
-1.49742e-05
5.00277e-06
-1.54752e-05
4.161e-06
-1.58661e-05
3.32227e-06
-1.6145e-05
2.48744e-06
-1.63121e-05
1.65967e-06
-1.63698e-05
8.43405e-07
-1.63219e-05
4.18805e-08
-1.61726e-05
-7.44356e-07
-1.59245e-05
-1.51723e-06
-1.55797e-05
-2.27878e-06
-1.51399e-05
-3.02826e-06
-1.4609e-05
-3.7619e-06
-1.39929e-05
-4.47553e-06
-1.32987e-05
-5.16732e-06
-1.25335e-05
-5.83842e-06
-1.17025e-05
-6.49343e-06
-1.08084e-05
-7.13956e-06
-9.84948e-06
-7.78475e-06
-8.81983e-06
-8.43395e-06
-7.71168e-06
-9.08338e-06
-6.51996e-06
-9.71635e-06
-5.24619e-06
-1.03053e-05
-3.89927e-06
-1.08197e-05
-2.49354e-06
-1.12328e-05
-1.04644e-06
-1.15249e-05
4.23412e-07
-1.1683e-05
1.89701e-06
-1.17002e-05
3.35519e-06
-1.15742e-05
4.77882e-06
-1.13081e-05
6.14907e-06
-1.091e-05
7.44851e-06
-1.03943e-05
8.66334e-06
-9.78354e-06
9.7861e-06
-9.10712e-06
1.08174e-05
-8.39741e-06
1.17643e-05
-7.68114e-06
1.26352e-05
-6.9722e-06
1.3436e-05
-6.27227e-06
1.41688e-05
-5.57553e-06
1.4831e-05
-4.87318e-06
1.54173e-05
-4.15656e-06
1.59198e-05
-3.41951e-06
1.63305e-05
-2.65979e-06
1.66426e-05
-1.88006e-06
1.68518e-05
-1.08605e-06
1.69564e-05
-2.82811e-07
1.69549e-05
5.27877e-07
1.68451e-05
1.34646e-06
1.6624e-05
2.17257e-06
1.629e-05
3.00349e-06
1.58433e-05
3.8346e-06
1.52864e-05
4.66104e-06
1.46235e-05
5.48012e-06
1.38578e-05
6.29207e-06
1.2991e-05
7.0977e-06
1.20225e-05
7.89287e-06
1.09518e-05
8.66212e-06
9.78139e-06
9.37408e-06
8.51931e-06
9.97921e-06
7.18198e-06
1.04095e-05
5.7972e-06
1.05793e-05
4.40709e-06
1.039e-05
3.07065e-06
9.73837e-06
1.86515e-06
8.53364e-06
8.85661e-07
6.72138e-06
2.35828e-07
4.31922e-06
1.48796e-06
-2.74153e-07
1.76353e-06
-1.02361e-06
5.07652e-06
-2.13566e-06
7.84135e-06
-3.48726e-06
9.88503e-06
-4.95852e-06
1.11922e-05
-6.46213e-06
1.1835e-05
-7.92929e-06
1.19345e-05
-9.3148e-06
1.16217e-05
-1.05952e-05
1.10255e-05
-1.17636e-05
1.02568e-05
-1.28214e-05
9.39201e-06
-1.37713e-05
8.47611e-06
-1.46145e-05
7.53458e-06
-1.535e-05
6.58224e-06
-1.59757e-05
5.62753e-06
-1.64882e-05
4.67269e-06
-1.68831e-05
3.7165e-06
-1.71565e-05
2.76049e-06
-1.7308e-05
1.81111e-06
-1.73411e-05
8.7667e-07
-1.72617e-05
-3.71526e-08
-1.70757e-05
-9.29896e-07
-1.67867e-05
-1.80579e-06
-1.63957e-05
-2.66938e-06
-1.59035e-05
-3.5199e-06
-1.53145e-05
-4.3503e-06
-1.46367e-05
-5.15253e-06
-1.38805e-05
-5.92268e-06
-1.3056e-05
-6.66207e-06
-1.21715e-05
-7.37696e-06
-1.12319e-05
-8.07816e-06
-1.02357e-05
-8.77988e-06
-9.17404e-06
-9.49455e-06
-8.03357e-06
-1.02227e-05
-6.8044e-06
-1.09443e-05
-5.48662e-06
-1.16218e-05
-4.09069e-06
-1.22142e-05
-2.63347e-06
-1.26886e-05
-1.13415e-06
-1.30227e-05
3.88016e-07
-1.32036e-05
1.9142e-06
-1.32247e-05
3.42577e-06
-1.30841e-05
4.90368e-06
-1.27843e-05
6.32809e-06
-1.23327e-05
7.67908e-06
-1.17437e-05
8.93986e-06
-1.10428e-05
1.01017e-05
-1.02675e-05
1.11678e-05
-9.46216e-06
1.21508e-05
-8.66281e-06
1.30641e-05
-7.88435e-06
1.39158e-05
-7.12302e-06
1.47073e-05
-6.36614e-06
1.54343e-05
-5.59937e-06
1.6088e-05
-4.80982e-06
1.66573e-05
-3.98849e-06
1.71301e-05
-3.13254e-06
1.74971e-05
-2.2471e-06
1.77537e-05
-1.34268e-06
1.78991e-05
-4.2831e-07
1.79327e-05
4.94131e-07
1.78512e-05
1.42766e-06
1.765e-05
2.3733e-06
1.73258e-05
3.32718e-06
1.68786e-05
4.28125e-06
1.63124e-05
5.22656e-06
1.56338e-05
6.15792e-06
1.48486e-05
7.07638e-06
1.39588e-05
7.98656e-06
1.29621e-05
8.88849e-06
1.18552e-05
9.76794e-06
1.06374e-05
1.05908e-05
9.31376e-06
1.13016e-05
7.89826e-06
1.18237e-05
6.41689e-06
1.20592e-05
4.9121e-06
1.18932e-05
3.44667e-06
1.12022e-05
2.10793e-06
9.87114e-06
1.00817e-06
7.82043e-06
2.70406e-07
5.05663e-06
1.75517e-06
-3.21923e-07
2.08467e-06
-1.1923e-06
5.94632e-06
-2.46299e-06
9.1129e-06
-3.98065e-06
1.13994e-05
-5.60089e-06
1.2813e-05
-7.22592e-06
1.34606e-05
-8.78351e-06
1.34911e-05
-1.02299e-05
1.30655e-05
-1.15482e-05
1.23406e-05
-1.27407e-05
1.14462e-05
-1.38171e-05
1.04657e-05
-1.47843e-05
9.44092e-06
-1.56437e-05
8.39161e-06
-1.6393e-05
7.3292e-06
-1.70295e-05
6.26151e-06
-1.75486e-05
5.18931e-06
-1.79427e-05
4.10843e-06
-1.82047e-05
3.02053e-06
-1.83329e-05
1.93772e-06
-1.83326e-05
8.75129e-07
-1.8213e-05
-1.57552e-07
-1.79831e-05
-1.1604e-06
-1.7647e-05
-2.14227e-06
-1.72038e-05
-3.11286e-06
-1.66519e-05
-4.07189e-06
-1.59958e-05
-5.00631e-06
-1.52465e-05
-5.9014e-06
-1.44183e-05
-6.75034e-06
-1.3525e-05
-7.55458e-06
-1.2579e-05
-8.32185e-06
-1.15895e-05
-9.06647e-06
-1.05567e-05
-9.81126e-06
-9.46815e-06
-1.05815e-05
-8.3022e-06
-1.13869e-05
-7.04173e-06
-1.22029e-05
-5.68574e-06
-1.29757e-05
-4.24817e-06
-1.36495e-05
-2.74986e-06
-1.41845e-05
-1.21201e-06
-1.4558e-05
3.46676e-07
-1.47596e-05
1.90919e-06
-1.47845e-05
3.4591e-06
-1.4631e-05
4.97917e-06
-1.43013e-05
6.44945e-06
-1.37998e-05
7.84685e-06
-1.3138e-05
9.14954e-06
-1.23424e-05
1.03456e-05
-1.14606e-05
1.14414e-05
-1.0555e-05
1.24582e-05
-9.67675e-06
1.34165e-05
-8.83983e-06
1.43261e-05
-8.02987e-06
1.51862e-05
-7.22362e-06
1.59893e-05
-6.39994e-06
1.67231e-05
-5.54125e-06
1.73716e-05
-4.63498e-06
1.7918e-05
-3.67728e-06
1.83494e-05
-2.67703e-06
1.86611e-05
-1.65306e-06
1.88553e-05
-6.21401e-07
1.89334e-05
4.16911e-07
1.8891e-05
1.47081e-06
1.87202e-05
2.5446e-06
1.84149e-05
3.63282e-06
1.79744e-05
4.72183e-06
1.74051e-05
5.7958e-06
1.67178e-05
6.84492e-06
1.59223e-05
7.8714e-06
1.50215e-05
8.88672e-06
1.40104e-05
9.89873e-06
1.28812e-05
1.08961e-05
1.16289e-05
1.18418e-05
1.02545e-05
1.26745e-05
8.76765e-06
1.33088e-05
7.19006e-06
1.36348e-05
5.56179e-06
1.35191e-05
3.9474e-06
1.28141e-05
2.44348e-06
1.13728e-05
1.18185e-06
9.08003e-06
3.17326e-07
5.91827e-06
2.06804e-06
-3.92318e-07
2.4766e-06
-1.43336e-06
6.98622e-06
-2.91304e-06
1.05938e-05
-4.62817e-06
1.31114e-05
-6.41025e-06
1.45949e-05
-8.15202e-06
1.52034e-05
-9.7833e-06
1.51231e-05
-1.12654e-05
1.45477e-05
-1.25921e-05
1.36669e-05
-1.37807e-05
1.26345e-05
-1.48535e-05
1.15385e-05
-1.58219e-05
1.04094e-05
-1.66848e-05
9.25455e-06
-1.74364e-05
8.08099e-06
-1.80736e-05
6.89854e-06
-1.85916e-05
5.70698e-06
-1.89787e-05
4.49515e-06
-1.92217e-05
3.26333e-06
-1.93172e-05
2.03298e-06
-1.92731e-05
8.30963e-07
-1.9104e-05
-3.26589e-07
-1.88233e-05
-1.44085e-06
-1.84363e-05
-2.52902e-06
-1.7938e-05
-3.61097e-06
-1.73215e-05
-4.68813e-06
-1.65912e-05
-5.7363e-06
-1.57625e-05
-6.72973e-06
-1.4854e-05
-7.65848e-06
-1.38831e-05
-8.52498e-06
-1.28675e-05
-9.33688e-06
-1.18231e-05
-1.01102e-05
-1.07553e-05
-1.08784e-05
-9.64834e-06
-1.16878e-05
-8.46794e-06
-1.25666e-05
-7.18595e-06
-1.34842e-05
-5.80167e-06
-1.43593e-05
-4.33616e-06
-1.51144e-05
-2.81636e-06
-1.57037e-05
-1.26512e-06
-1.61087e-05
3.01474e-07
-1.63258e-05
1.87093e-06
-1.63536e-05
3.4314e-06
-1.61911e-05
4.97041e-06
-1.58399e-05
6.47e-06
-1.5299e-05
7.90343e-06
-1.4571e-05
9.24066e-06
-1.36793e-05
1.04625e-05
-1.26821e-05
1.15792e-05
-1.16713e-05
1.26257e-05
-1.0723e-05
1.36318e-05
-9.84555e-06
1.46069e-05
-9.00462e-06
1.55456e-05
-8.16174e-06
1.64355e-05
-7.28923e-06
1.72603e-05
-6.36543e-06
1.79994e-05
-5.37356e-06
1.86296e-05
-4.30706e-06
1.91324e-05
-3.17968e-06
1.95041e-05
-2.02469e-06
1.97534e-05
-8.70647e-07
1.98859e-05
2.84425e-07
1.9895e-05
1.46154e-06
1.97677e-05