/*--------------------------------*- C++ -*----------------------------------*\
| =========                 |                                                 |
| \\      /  F ield         | OpenFOAM: The Open Source CFD Toolbox           |
|  \\    /   O peration     | Version:  2412                                  |
|   \\  /    A nd           | Website:  www.openfoam.com                      |
|    \\/     M anipulation  |                                                 |
\*---------------------------------------------------------------------------*/
FoamFile
{
    version     2.0;
    format      ascii;
    arch        "LSB;label=32;scalar=64";
    class       volScalarField;
    location    "8.3";
    object      alpha.water;
}
// * * * * * * * * * * * * * * * * * * * * * * * * * * * * * * * * * * * * * //

dimensions      [0 0 0 0 0 0 0];

internalField   nonuniform List<scalar> 
6400
(
1
1.00001
1
1
1
1
1
1
1
1
1
1
1
1
1
1
1
1
1
1
1
1
1
1
1
1
1
1
1
1
1
1
1
1
1
1
1
1
0.999999
0.999999
0.999999
1
1
1
1
1
1
1
1
1
1
1
1
1
1
1
1
1
1
1
1
1
1
1
1
1
1
1
1
0.999999
0.999999
1
1
1
0.999999
0.999999
1
1
1
1
0.999994
1
1
1
1
1
1
1
1
1
1
1
1
1
1
1
1
1
1
1
1
1
1
1
1
1
1
1
1
1
1
1
1
1
1
1
0.999999
1
1
1
1
1
1
1
1
1
1
1
1
1
1
1
1
1
1
1
1
1
1
1
1
0.999999
0.999999
0.999999
1
1
0.999999
0.999999
0.999999
0.999999
1
1
1
0.999999
0.999998
1
1
0.999999
0.999999
0.999997
0.999999
1
1
1
1
1
1
1
1
1
1
1
1
1
1
1
1
1
1
1
1
0.999999
0.999999
1
1
1
1
1
1
1
1
1
1
1
1
1
1
1
1
1
1
0.999999
0.999999
0.999999
1
1
1
1
1
0.999999
0.999999
0.999999
0.999999
0.999999
1
0.999999
0.999999
0.999999
0.999998
0.999998
0.999998
0.999999
1
1
1
1
1
1
0.999999
0.999999
1
1
0.999999
0.999998
0.999999
0.999999
0.999997
0.999998
0.999999
0.999999
1
1
1
1
1
1
1
1
1
1
1
1
1
0.999999
1
1
1
1
1
1
1
1
1
1
1
1
1
1
1
1
1
1
1
1
1
1
1
1
1
1
1
1
1
1
0.999999
1
1
1
1
1
1
1
1
1
1
1
1
1
1
1
1
1
1
1
1
1
0.999999
0.999999
0.999999
1
1
0.999999
0.999998
0.999998
0.999999
0.999999
0.999999
0.999999
1
1
1
1
1
1
1
1
1
1
1
1
1
1
1
1
1
1
1
1
1
1
1
1
1
1
1
1
1
1
1
1
1
1
1
1
1
1
1
1
1
1
1
1
1
1
1
1
1
1
1
1
1
1
1
1
1
1
1
1
1
1
1
1
1
1
1
1
1
1
1
1
1
1
1
1
1
0.999999
1
1
1
1
1
1
1
1
1
1
1
1
1
1
1
1
1
1
1
1
0.999999
0.999999
0.999999
0.999999
0.999999
0.999999
0.999999
1
1
1
1
1
1
1
1
1
1
1
1
1
1
1
1
1
1
1
1
1
1
1
1
1
1
1
1
1
1
1
1
1
1
1
0.999999
0.999998
0.999998
1
1
1
1
1
1
1
1
1
0.999999
1
1
1
1
1
0.999999
1
0.999999
1
1
1
1
1
1
1
1
1
1
1
0.999999
1
1
1
0.999999
0.999999
0.999999
0.999999
0.999998
0.999998
0.999998
0.999999
1
1
1
1
1
1
0.999999
0.999999
1
1
1
1
1
1
1
1
1
1
1
1
1
1
1
1
1
1
1
1
0.999999
0.999998
0.999998
0.999998
0.999999
0.999999
0.999999
0.999999
0.999999
1
1
0.999999
0.999998
0.999998
0.999997
0.999997
0.999997
0.999998
0.999999
0.999999
0.999999
1
1
1
0.999999
1
0.999999
1
0.999999
1
1
1
1
1
1
1
0.999999
0.999999
0.999999
1
1
1
0.999999
1
1
1
1
1
1
1
0.999999
0.999998
0.999998
0.999998
0.999999
0.999999
0.999999
1
1
1
1
1
1
1
1
1
1
1
1
1
1
1
1
1
1
1
1
1
1
1
1
1
1
1
1
1
1
1
1
1
1
0.999999
0.999999
0.999999
1
1
1
1
1
1
1
1
1
1
1
1
1
0.999999
1
1
1
1
1
1
1
0.999999
0.999999
0.999999
1
1
1
1
1
1
1
1
1
1
1
1
0.999998
0.999998
0.999998
0.999999
1
1
1
1
1
1
1
1
1
1
1
1
1
1
1
1
1
1
1
1
1
1
1
1
1
1
1
1
1
1
1
1
1
1
1
1
1
1
1
1
1
1
1
1
1
1
1
1
1
1
1
1
1
1
1
0.999999
1
1
1
0.999999
0.999999
0.999999
0.999999
0.999999
1
1
1
1
1
1
1
0.999999
0.999999
0.999999
0.999999
1
1
1
1
1
1
1
1
1
1
1
1
1
1
1
1
1
1
1
1
1
1
1
1
1
1
1
1
1
1
1
1
1
1
1
0.999999
0.999999
0.999999
1
1
1
1
1
1
1
1
1
1
1
1
1
1
1
1
1
1
1
0.999999
1
0.999999
1
0.999999
0.999988
0.999999
0.999999
0.999999
1
1
1
1
1
0.999999
0.999999
0.999999
0.999999
1
1
1
1
1
1
1
1
1
1
1
1
1
1
1
1
1
1
1
1
1
1
1
1
1
1
1
1
1
1
1
1
1
0.999999
0.999999
0.999998
0.999998
0.999998
0.999999
1
1
1
1
1
1
1
1
1
1
1
1
1
1
1
1
1
1
0.999998
0.999997
0.999998
1
0.999999
1
1
1
1
0.999926
0.999383
0.999992
0.999999
1
1
0.999999
0.999999
0.999999
1
1
1
1
1
1
1
1
1
1
1
1
1
1
1
1
1
1
1
0.999999
1
0.999999
1
1
1
1
1
1
1
1
1
1
1
1
1
1
1
1
1
1
1
0.999999
1
1
1
1
1
1
1
1
1
1
1
1
1
1
1
1
0.999999
0.999999
1
1
0.999998
0.999982
0.999958
0.999973
0.999998
1
1
0.999972
0.999979
0.999806
0.999198
0.999622
0.999999
1
0.999999
0.999999
1
1
1
1
1
1
1
1
1
1
1
1
1
1
1
1
1
1
1
1
1
1
1
1
1
1
1
1
1
1
1
1
1
1
1
1
1
1
1
1
1
1
1
1
1
1
1
1
1
1
1
1
1
1
1
1
1
1
1
1
1
1
1
1
1
0.999991
0.999943
0.999938
0.999978
1
0.999974
0.99951
0.999833
0.998867
0.999139
0.999209
0.999988
1
1
1
1
1
1
1
1
1
1
1
1
1
1
1
1
1
1
1
1
1
1
1
1
1
1
1
1
1
1
1
1
1
1
1
1
1
1
1
1
1
1
1
1
1
1
0.999999
1
1
1
1
1
1
1
1
1
1
1
1
1
1
1
1
1
1
1
1
1
1
1
0.999939
0.999977
0.999985
0.999805
0.999766
0.99929
0.997001
0.994296
0.998816
1
1
0.999991
0.999988
1
1
1
1
1
1
1
1
1
1
1
1
1
1
1
1
1
1
1
1
1
1
1
1
1
1
1
1
1
1
1
1
1
1
1
1
1
1
1
0.999999
0.999999
0.999999
0.999999
1
1
1
1
1
1
1
1
1
1
1
1
1
1
1
1
1
1
1
1
1
1
1
1
0.999989
0.999974
0.999989
0.999372
0.994346
0.99661
0.996861
0.99219
0.99685
0.999997
0.999997
0.999963
0.999969
1
1
1
1
1
1
1
1
1
1
1
1
1
1
1
0.999999
0.999999
0.999999
0.999999
1
1
1
1
1
1
1
1
1
0.999999
0.999999
0.999999
0.999999
0.999999
0.999999
0.999999
0.999999
0.999999
0.999999
0.999999
0.999999
0.999999
1
1
1
1
1
1
1
1
1
1
1
1
1
1
1
1
1
1
1
1
1
1
1
1
1
1
0.999996
0.999984
0.999989
0.998891
0.992016
0.994846
0.997688
0.992162
0.992167
0.999265
0.999997
0.999965
0.999965
1
1
1
1
1
1
1
1
1
1
1
1
1
1
1
0.999999
0.999999
0.999999
0.999999
1
1
1
1
1
1
1
1
0.999999
0.999999
0.999999
0.999999
1
1
1
1
1
0.999999
0.999999
0.999999
0.999999
1
1
1
1
1
1
1
1
1
1
1
1
1
1
1
1
1
1
1
1
1
1
1
1
1
1
1
0.999995
0.999995
0.999936
0.993723
0.992016
0.995835
0.99874
0.993254
0.992232
0.999634
0.999988
0.999978
0.999973
0.999997
0.999998
0.999999
1
1
1
1
1
1
1
1
1
1
1
1
1
1
1
1
1
1
1
1
1
1
1
1
1
1
1
0.999999
1
1
1
1
1
1
1
1
1
1
1
1
1
1
1
1
1
1
1
1
1
1
1
1
1
1
1
1
1
0.999999
0.999999
0.999999
0.999998
0.999996
0.999998
0.999999
0.999996
0.999995
0.999884
0.993147
0.992048
0.998229
0.998773
0.999026
0.999261
0.999728
0.999978
0.999974
0.999955
0.999961
0.999958
0.999976
0.999991
0.999999
0.999998
0.999534
0.99951
1
1
1
1
1
1
1
1
1
1
1
1
1
1
1
1
1
1
1
1
1
0.999999
0.999997
0.999996
0.999998
1
1
1
1
1
1
1
1
1
1
1
1
1
1
1
1
1
1
1
1
1
0.996568
0.991403
0.986579
0.983075
0.982038
0.983812
0.988813
0.995485
0.999668
0.999953
0.999922
0.999938
0.999971
0.999988
0.999992
0.999907
0.998888
0.998842
0.999321
0.998351
0.99859
0.999185
0.999587
0.99968
0.990591
0.968031
0.925997
0.864539
0.79364
0.723539
0.659691
0.58898
0.536182
0.514806
0.518321
0.541421
0.577394
0.62534
0.674867
0.716732
0.757157
0.794884
0.82845
0.856672
0.880357
0.901223
0.915889
0.923369
0.927142
0.931928
0.939452
0.947868
0.954459
0.956248
0.953136
0.948774
0.95045
0.960726
0.975133
0.98867
0.996221
0.998256
0.999294
0.999864
1
1
0.999781
0.996066
0.989556
0.979185
0.964095
0.943629
0.91745
0.88533
0.847907
0.803351
0.745859
0.671035
0.587358
0.513003
0.455979
0.412644
0.383601
0.37133
0.378426
0.409008
0.463074
0.532914
0.6106
0.706892
0.824466
0.919848
0.96937
0.996968
0.99987
0.999874
0.999356
0.998953
0.999321
0.849507
0.850689
0.813313
0.736765
0.602867
0.442744
0.304442
0.200339
0.122822
0.0705828
0.0355012
0.0158531
0.00526861
0.00135748
0.000327618
8.13462e-05
4.00981e-05
0.000308051
0.0039653
0.0152851
0.0326027
0.0556772
0.081957
0.10858
0.134403
0.158932
0.180397
0.197306
0.211132
0.224421
0.237003
0.249257
0.263735
0.280074
0.297047
0.311312
0.31799
0.320692
0.32255
0.326938
0.335761
0.347758
0.360604
0.376828
0.394033
0.409266
0.418798
0.419754
0.409222
0.383813
0.347356
0.305016
0.259751
0.211751
0.16224
0.115358
0.074382
0.0414747
0.0189179
0.00399187
0.000211008
9.98171e-08
3.87305e-07
1.66765e-06
6.22418e-06
0.000215637
0.000496236
0.00163495
0.0050663
0.015014
0.0383388
0.0859517
0.167943
0.302018
0.514165
0.745174
0.884899
0.953438
0.98616
0.977599
0.184812
0.146132
0.10627
0.0555986
0.0111122
0.00014365
9.24706e-05
7.34982e-05
4.68043e-05
4.67106e-05
0.000102771
6.64361e-05
8.41547e-05
5.54142e-05
4.1196e-05
3.96284e-05
4.03188e-05
3.86973e-05
4.03743e-05
2.52757e-05
1.12674e-05
9.99983e-06
1.28074e-05
1.91353e-05
2.91149e-05
6.12919e-05
0.000126485
0.000205018
0.000150351
6.92011e-05
1.93764e-05
7.34909e-07
-3.09226e-10
-3.51951e-08
-1.01426e-07
-6.56774e-08
-5.06525e-08
0
1.44323e-11
1.82076e-10
1.71744e-09
1.36778e-08
9.0166e-08
6.40067e-08
1.75247e-07
7.99316e-07
0.000872194
0.000783189
0.000409401
0.000109251
0.000147117
0.000171946
0.00017671
0.00015647
0.000111101
5.95721e-05
1.6229e-05
7.01138e-06
2.1645e-05
2.68707e-05
9.62901e-08
9.98171e-08
3.8989e-07
1.0447e-06
1.93974e-06
6.22417e-06
2.83563e-05
6.37625e-05
3.29298e-05
1.18103e-05
1.16697e-05
1.18103e-05
1.37015e-05
5.0467e-05
7.98598e-05
0.0239369
0.136224
0.272487
0.408362
0.512074
2.19043e-05
2.17379e-05
2.17625e-05
2.1759e-05
2.40826e-05
4.37905e-05
7.40162e-05
5.75374e-05
4.5936e-05
4.76199e-05
4.06202e-05
3.55553e-05
3.56983e-05
3.57764e-05
4.19675e-05
4.77458e-05
0.000103564
0.000102932
9.9144e-05
2.17118e-05
9.75825e-06
7.91238e-06
8.55135e-06
1.27959e-05
1.89684e-05
5.87468e-05
7.39694e-05
0.000128939
4.91193e-05
5.73919e-06
7.10279e-07
-2.99259e-10
9.80935e-10
1.30031e-09
1.57557e-09
2.28319e-09
2.1593e-09
1.98866e-10
1.82076e-10
1.64144e-07
1.7806e-06
1.96995e-06
1.38635e-06
1.76354e-08
4.20125e-09
5.40362e-09
9.67554e-09
4.64099e-06
-3.88197e-08
-3.45887e-08
1.18482e-06
7.53599e-07
1.79308e-06
1.87151e-06
2.14283e-06
1.47715e-06
2.77179e-06
5.42742e-06
6.56286e-06
2.88853e-06
1.04836e-07
9.98166e-08
1.04836e-07
1.39036e-05
4.69274e-05
5.46173e-05
5.22079e-05
7.35656e-05
7.24337e-05
1.96444e-05
1.16697e-05
2.28973e-05
0.000101256
7.98598e-05
7.73018e-05
7.57913e-05
7.61256e-05
7.61256e-05
7.87212e-05
0.0136927
5.82539e-05
2.62094e-05
2.17379e-05
2.19686e-05
2.50468e-05
3.18255e-05
6.26063e-05
0.000119231
0.000121649
0.000123186
7.53143e-05
3.55585e-05
3.54762e-05
3.47189e-05
4.6533e-05
0.000103793
0.000103793
0.000103793
6.70736e-05
9.75826e-06
8.13865e-06
5.63689e-06
8.0838e-06
6.06333e-05
0.000126113
0.000154212
0.000156437
0.00012119
2.68581e-05
5.10254e-07
1.14539e-08
1.02439e-09
9.99732e-10
1.04768e-09
1.38367e-09
1.31454e-09
1.53895e-09
2.12119e-09
1.4163e-08
4.35886e-08
5.97582e-08
4.96661e-08
3.57515e-08
2.86898e-08
3.52356e-09
4.20124e-09
5.25014e-09
2.6803e-09
1.27925e-08
9.70054e-08
-1.33563e-08
-2.30098e-08
-3.16577e-08
-2.30234e-09
4.88357e-08
3.41529e-07
2.57756e-06
4.58507e-06
6.22919e-06
2.74983e-06
2.6634e-07
1.02175e-07
1.07015e-07
6.29698e-06
6.34833e-05
0.000101133
8.4426e-05
0.000151607
0.000235388
0.000180701
1.74237e-05
4.78549e-05
0.000210272
0.000264704
0.000152558
9.67876e-05
7.61256e-05
7.78856e-05
7.98193e-05
8.06548e-05
8.37301e-05
3.15473e-05
2.19686e-05
6.30113e-05
6.92856e-05
4.57444e-05
3.92186e-05
4.0798e-05
0.000118904
0.000123186
0.000123291
0.000121853
7.95287e-05
3.39686e-05
3.2232e-05
3.13817e-05
7.60758e-05
9.89524e-05
2.93357e-05
8.7447e-06
6.37994e-06
4.60465e-06
2.98697e-06
1.9678e-06
1.32726e-06
5.6406e-05
0.000124854
7.84819e-05
5.42361e-07
4.39374e-08
1.40577e-09
1.00229e-09
9.93359e-10
9.95679e-10
8.57526e-10
7.55196e-10
8.11499e-10
1.07544e-09
1.36507e-09
1.40011e-09
1.45478e-09
1.82187e-09
1.82187e-09
1.85385e-09
2.35036e-09
3.87548e-09
3.05802e-09
2.02055e-09
1.74218e-09
1.70675e-09
1.64526e-09
1.56325e-09
1.32678e-09
2.70152e-09
1.40508e-08
5.18076e-08
2.2303e-06
2.66596e-05
3.13349e-05
2.79195e-05
1.63993e-06
1.04699e-07
1.04536e-07
5.28505e-07
1.96109e-06
6.4964e-06
6.6135e-06
0.000101811
0.000265435
0.000268938
0.000157916
7.64618e-05
0.000122328
0.000289099
0.000291774
0.00029107
0.000158576
7.98037e-05
8.408e-05
0.000168681
8.37313e-05
2.55408e-05
5.3491e-05
7.06086e-05
7.0343e-05
6.92856e-05
4.40043e-05
6.06801e-06
2.71891e-05
3.3193e-05
3.37351e-05
6.10223e-05
9.89027e-05
9.93065e-05
7.2071e-05
2.472e-05
2.47201e-05
2.47134e-05
2.50555e-05
3.43532e-05
3.47412e-05
6.66311e-06
1.9678e-06
1.32726e-06
1.10471e-06
8.66824e-07
5.3109e-06
1.35491e-05
2.11512e-06
4.29777e-09
1.05601e-09
1.02372e-09
1.01633e-09
1.01876e-09
7.6609e-10
7.36655e-10
7.36643e-10
7.41204e-10
7.60222e-10
8.10129e-10
9.63424e-10
2.99169e-09
8.80646e-09
7.33847e-09
3.87589e-09
6.16978e-09
5.3611e-09
3.06053e-09
1.90813e-09
1.62516e-09
1.56543e-09
1.42557e-09
9.24021e-10
5.934e-10
5.53131e-10
6.29193e-10
3.53355e-07
1.88768e-05
3.13209e-05
3.13349e-05
2.99464e-05
1.87064e-05
2.28203e-05
2.32492e-05
2.10687e-05
2.78914e-05
0.000112502
0.000263196
0.000268938
0.000269616
0.000269559
0.000267328
0.000102676
0.000109444
0.00028989
0.000292569
0.000294332
9.19601e-05
8.68885e-05
0.000168681
7.5185e-05
2.39757e-05
5.52216e-05
7.06086e-05
7.07422e-05
7.0343e-05
3.95536e-05
2.12895e-06
3.9848e-05
4.54955e-05
4.5722e-05
3.64923e-05
3.34547e-05
4.32714e-05
5.86422e-05
2.98593e-05
2.46455e-05
2.50555e-05
6.65031e-05
0.00015798
0.000157731
6.95742e-05
2.81327e-05
1.21961e-06
8.66824e-07
8.21929e-07
6.56939e-07
1.26431e-07
6.61886e-07
3.79315e-08
1.02295e-09
1.00795e-09
1.31775e-09
1.10665e-09
7.87511e-10
7.36655e-10
7.41112e-10
7.57467e-10
8.0022e-10
9.7007e-10
1.2837e-09
1.11668e-08
2.69928e-07
3.82207e-07
2.34202e-07
2.3459e-07
5.91545e-08
2.73712e-08
9.54532e-09
3.79679e-09
1.85736e-09
8.14375e-10
5.84608e-10
5.52902e-10
4.93997e-10
2.69535e-10
2.05644e-10
1.99037e-10
4.59785e-08
8.18471e-06
4.42862e-05
5.34387e-05
5.34387e-05
5.34387e-05
2.6871e-05
2.6412e-05
0.000255017
0.000267133
0.000269022
0.000269559
0.000269618
0.000269559
9.64378e-05
9.96336e-05
0.000257207
0.000294332
0.00029488
0.000126524
8.80671e-05
0.000162301
2.15244e-05
1.99111e-05
1.85086e-05
6.90152e-05
7.0343e-05
4.21622e-05
4.47726e-06
1.88932e-06
1.77074e-06
1.36982e-06
1.96938e-06
7.54981e-06
3.23375e-05
4.96681e-05
2.45198e-05
2.3805e-05
2.42501e-05
5.68201e-05
0.000157973
0.000157969
0.000157978
0.000157731
0.000156549
5.1071e-05
1.0743e-06
8.29617e-07
4.70776e-07
5.05641e-08
2.53204e-08
1.97641e-08
9.74113e-10
9.35573e-10
1.34323e-09
1.31647e-09
9.67024e-10
7.56735e-10
7.75551e-10
9.06313e-10
1.41592e-09
3.48229e-09
1.23868e-08
5.11971e-08
3.49973e-07
9.90484e-06
3.03038e-05
4.15944e-05
2.73255e-05
6.68946e-06
4.7952e-07
4.638e-08
1.52368e-08
2.48453e-09
8.16043e-10
4.77583e-10
2.64441e-10
2.05624e-10
1.99344e-10
1.99192e-10
1.99192e-10
1.99192e-10
1.99192e-10
9.26231e-06
2.77976e-05
1.21588e-05
6.34853e-08
7.81919e-07
0.000144944
0.0002639
0.000267133
0.000269022
0.000269559
0.000191368
1.91457e-05
0.000168636
0.000293463
0.000295316
0.000294465
0.000150219
0.000118506
5.71537e-05
9.36875e-06
5.02112e-05
1.19469e-05
1.241e-05
2.0949e-05
3.40941e-06
5.34537e-06
1.09955e-05
7.19026e-06
1.28191e-06
1.28191e-06
1.28191e-06
5.98115e-06
4.92806e-05
4.91138e-05
2.36963e-05
2.3805e-05
5.82997e-05
0.00015793
0.000157981
0.00015793
0.000157332
0.000155191
0.000152333
3.0206e-05
3.73746e-07
4.4461e-07
2.60535e-08
1.39455e-08
9.38404e-09
7.88747e-09
9.22087e-10
9.34344e-10
1.01658e-09
9.80567e-10
8.40097e-10
1.16614e-09
2.66621e-09
8.90794e-09
3.40895e-08
1.31401e-07
4.96122e-07
5.93284e-06
4.99004e-05
6.73305e-05
6.72657e-05
6.71368e-05
6.68066e-05
3.48111e-05
5.94928e-06
6.53435e-07
3.43795e-08
4.86552e-09
1.46214e-09
5.84556e-10
2.65156e-10
2.01783e-10
1.99181e-10
1.99191e-10
1.99192e-10
1.99206e-10
1.99481e-10
1.99593e-10
2.01952e-10
6.56373e-10
6.34853e-08
0.000138936
0.000266119
0.0002639
0.000268373
0.000199194
2.30594e-05
1.25832e-05
0.000110492
0.000291602
0.000293463
0.000288006
7.93105e-05
0.000173302
3.6421e-05
8.36723e-06
5.50749e-05
2.98818e-05
4.03433e-06
2.81467e-06
2.62947e-06
3.16858e-06
1.09561e-05
1.09958e-05
4.6673e-06
2.01512e-06
1.29194e-06
1.30019e-06
2.4092e-05
4.82343e-05
2.37598e-05
2.37102e-05
2.38338e-05
0.000115086
0.00015793
0.000157426
0.000130573
0.000152323
0.000145199
0.000100642
2.14148e-07
2.0994e-07
2.81807e-07
8.25579e-07
5.43877e-07
9.25375e-10
9.25375e-10
9.2311e-10
9.30268e-10
9.77277e-10
1.1623e-09
2.1995e-09
6.72707e-09
3.18894e-08
1.11954e-07
4.59746e-07
3.25714e-06
4.38584e-05
6.73424e-05
6.73591e-05
6.73305e-05
6.72657e-05
6.71368e-05
6.69434e-05
6.66558e-05
3.14037e-05
4.22663e-07
5.7234e-08
1.57871e-08
4.9559e-09
1.1974e-09
2.08528e-10
1.9903e-10
1.99196e-10
1.99567e-10
2.03828e-10
1.99711e-10
2.00804e-10
2.23229e-10
4.49812e-09
3.29606e-05
0.000257157
0.000259142
0.000261951
0.000161766
1.45742e-05
7.36831e-06
1.00805e-05
1.25832e-05
0.000264604
0.000291602
0.000290378
5.1292e-05
0.000173302
2.81427e-05
2.68571e-06
5.74353e-05
5.98141e-05
1.35203e-05
2.62947e-06
2.61191e-06
2.61153e-06
9.00713e-06
7.89179e-06
1.72811e-06
1.92001e-06
2.11281e-06
1.56045e-06
2.32487e-07
1.16274e-05
6.4455e-05
6.22217e-05
8.83614e-05
0.000146128
0.000145448
7.75361e-05
4.26212e-06
4.32328e-05
0.000138786
0.000130761
1.16943e-05
2.0639e-07
4.89781e-07
1.2865e-06
1.26369e-06
2.64768e-07
9.25375e-10
9.31097e-10
9.81195e-10
1.13091e-09
2.10798e-09
6.73734e-09
2.74062e-08
2.93339e-06
2.74775e-06
1.4245e-06
4.40637e-06
4.67102e-05
6.73424e-05
6.73305e-05
6.72657e-05
6.71368e-05
6.68066e-05
6.73872e-05
6.67437e-05
6.6265e-05
2.89651e-05
5.57904e-07
1.62164e-07
5.25852e-08
1.07562e-08
5.49414e-10
1.83684e-10
1.99261e-10
2.00566e-10
2.28919e-10
2.00894e-10
2.09089e-10
3.44809e-10
3.31931e-08
0.000188534
0.000257824
0.000258629
0.000259572
2.76875e-05
6.01847e-06
6.58708e-06
7.63764e-06
1.04528e-05
0.000120202
0.000290408
0.000276827
4.99755e-05
0.000173276
2.31678e-05
4.51636e-07
5.85057e-05
5.98141e-05
5.98141e-05
6.69574e-06
2.61151e-06
2.61191e-06
9.24859e-06
5.71813e-06
3.52252e-07
8.05972e-08
6.0584e-07
5.82358e-07
8.43952e-08
1.83779e-07
3.78652e-05
0.000144187
0.000146128
0.000146265
0.000146256
4.8855e-05
3.22924e-06
1.61195e-06
7.41894e-05
0.000125856
7.18668e-05
2.0994e-07
4.34572e-07
1.27979e-06
1.2881e-06
9.87776e-07
6.18088e-10
3.93351e-10
1.5222e-09
4.40597e-09
9.38257e-05
0.000200365
0.000110799
4.23772e-06
1.01591e-06
1.1197e-06
1.78606e-06
6.64248e-06
1.66958e-05
4.16103e-05
6.1356e-05
6.27831e-05
6.18681e-05
6.6605e-05
6.62449e-05
6.53443e-05
5.29922e-05
1.60768e-05
1.25317e-06
4.36602e-07
1.02282e-07
2.1722e-09
1.75938e-10
1.99991e-10
2.01104e-10
2.5791e-10
2.07684e-10
2.69113e-10
1.11075e-09
2.04389e-07
0.000246026
0.000256902
0.000257777
8.1292e-05
5.48325e-06
5.7204e-06
6.19073e-06
0.000102976
7.21598e-05
2.48563e-05
0.000221002
0.000132084
4.42624e-05
6.55823e-05
2.32202e-05
4.03048e-07
1.86742e-05
5.98141e-05
5.43036e-05
5.87332e-06
2.84481e-06
6.85527e-06
9.80266e-06
5.95252e-06
2.06337e-07
7.28016e-08
7.32326e-08
9.70327e-08
7.62197e-08
8.44225e-08
1.8378e-07
0.000108242
0.00014605
0.000146256
0.000146261
6.96025e-05
1.61195e-06
1.3639e-06
1.70272e-05
0.000121125
0.000113252
1.47156e-07
7.54862e-08
1.19084e-06
1.28263e-06
1.15883e-06
6.98134e-08
3.8909e-07
3.11076e-06
0.000106025
0.000222108
0.000215419
0.000132592
1.01591e-06
9.85973e-07
1.01591e-06
1.11374e-06
1.34892e-06
1.68868e-06
1.93909e-06
2.12634e-06
2.80112e-06
4.83532e-06
3.08722e-05
4.60975e-05
5.48798e-05
0.000137957
0.000124
3.29583e-05
1.10421e-05
7.80359e-07
2.23484e-08
1.72782e-10
2.03015e-10
2.01689e-10
3.03035e-10
2.4651e-10
5.3575e-10
6.98112e-09
8.69417e-05
0.000243654
0.000251894
0.000257201
3.04534e-05
5.48325e-06
5.47289e-06
1.64945e-05
0.000111438
7.83252e-05
1.82483e-05
2.57711e-05
1.88537e-05
1.90458e-05
1.95534e-05
2.84393e-05
3.99522e-07
4.03048e-07
1.45312e-05
1.1036e-05
7.84755e-06
7.98225e-06
9.85581e-06
9.7567e-06
3.58413e-06
2.49156e-07
7.48123e-08
7.27796e-08
7.43621e-08
7.65647e-08
7.65647e-08
8.5381e-08
2.05391e-06
0.000131381
0.00014605
0.000146256
3.28239e-05
1.3639e-06
1.32551e-06
1.39969e-06
7.03835e-05
0.000130806
2.17159e-05
2.80839e-08
3.23063e-07
1.11205e-06
6.30012e-07
5.3212e-07
1.73958e-06
3.99155e-05
0.000229302
0.00022792
0.000222729
6.14256e-05
9.87341e-07
9.91521e-07
9.87301e-07
1.03231e-06
1.2253e-06
4.77484e-06
7.15283e-06
3.16549e-06
4.83562e-06
8.43221e-06
1.35969e-05
2.08809e-05
5.65326e-05
0.000180826
0.000181065
0.000125428
6.2408e-05
2.2264e-05
1.46965e-07
3.43392e-10
2.18664e-10
2.05069e-10
4.69863e-10
1.54321e-09
2.01929e-09
1.63126e-06
0.000212284
0.000230104
0.000231438
0.000171312
1.74183e-05
5.42113e-06
5.58794e-06
6.25989e-05
0.000111438
3.59485e-05
1.78008e-05
1.76967e-05
1.72888e-05
1.72484e-05
1.7604e-05
1.752e-05
3.98551e-07
3.99522e-07
7.43398e-07
2.2115e-06
9.76786e-06
9.87647e-06
9.84591e-06
6.38231e-06
2.06828e-06
4.93036e-07
8.28281e-08
9.61603e-08
9.02496e-08
5.92711e-07
7.71604e-08
7.68158e-08
1.00755e-07
2.76636e-05
8.32674e-05
5.35862e-05
5.49709e-06
1.32551e-06
1.32233e-06
1.33831e-06
7.22116e-05
0.000134593
4.41155e-05
1.78658e-08
2.80837e-08
1.39577e-07
2.19339e-07
5.64748e-07
2.95272e-06
0.000108651
0.000231779
0.000230714
0.000228414
0.00021538
5.44027e-05
1.22516e-06
1.21366e-06
3.39892e-06
8.07355e-05
0.000140411
0.000116876
1.89625e-05
3.00444e-05
4.75474e-05
5.95501e-05
6.77541e-05
0.000169386
0.000182838
0.000182534
0.000181299
8.87404e-05
5.12547e-05
2.57923e-05
2.0875e-09
3.0847e-10
2.20283e-10
7.90731e-10
9.17021e-09
9.89029e-09
3.54911e-05
0.00020262
0.000114745
2.01158e-05
6.47279e-05
1.65508e-05
5.58794e-06
5.68628e-06
6.03589e-05
7.9344e-05
2.14148e-05
1.75832e-05
1.709e-05
1.7018e-05
1.70565e-05
1.71324e-05
1.70811e-05
3.99349e-07
3.98724e-07
4.45712e-07
1.93444e-06
9.87647e-06
9.87811e-06
9.76874e-06
1.69635e-06
2.19571e-06
4.24469e-07
8.6533e-08
2.60046e-06
5.08872e-05
8.12582e-05
6.64264e-05
4.2762e-05
4.09726e-05
1.80733e-05
4.25272e-06
2.31932e-06
2.03961e-06
1.99328e-06
1.32551e-06
1.32984e-06
7.29007e-05
0.000137798
5.55688e-05
1.47641e-08
1.78662e-08
3.3165e-08
9.7337e-08
4.31122e-07
8.70818e-06
0.000168035
0.00023238
0.000231776
0.000230734
0.00022851
0.000226062
0.000219378
7.78546e-05
4.01471e-05
0.000140411
0.000140411
0.000139669
0.000100747
0.000167852
0.000177948
0.000181488
0.000182915
0.000182915
0.00018296
0.000182827
0.000181985
7.84977e-05
8.0542e-05
7.15099e-05
1.26404e-08
7.62183e-10
3.05376e-10
1.00094e-09
5.84259e-09
5.09578e-07
4.87091e-05
0.00017105
4.34778e-06
3.98635e-06
6.04422e-06
3.27889e-05
1.13021e-05
4.01153e-06
1.81407e-05
4.33698e-05
4.33197e-05
2.08348e-05
1.69893e-05
1.69864e-05
1.7018e-05
1.70554e-05
1.71324e-05
1.84592e-05
1.48421e-05
5.38335e-07
7.10821e-07
8.17731e-06
9.87754e-06
2.34144e-06
1.30171e-06
2.81645e-06
3.46942e-07
2.27726e-07
5.35482e-05
0.000116706
0.000116711
0.000116706
0.000116611
4.7157e-05
1.80643e-05
1.78174e-05
4.58765e-05
3.11722e-05
3.11229e-06
1.32246e-06
1.54325e-06
8.46623e-05
0.000140467
6.93196e-05
1.40394e-08
1.45278e-08
2.00675e-08
5.29158e-08
2.96193e-07
1.264e-05
0.000210915
0.000232473
0.00023238
0.000231621
0.000228447
0.000105949
2.42731e-05
2.45618e-05
4.04319e-05
0.000100215
7.86258e-05
1.85456e-05
1.34421e-05
3.7855e-05
0.00017345
0.000182695
0.000182874
0.000182967
0.000182874
0.0001825
0.000182134
8.06085e-05
9.05874e-05
8.41603e-05
3.69709e-05
2.85703e-09
7.85668e-10
2.4693e-09
6.28046e-09
1.69787e-06
2.71615e-05
1.06201e-05
3.98635e-06
3.79004e-06
5.04721e-06
2.02112e-05
9.31331e-06
3.99338e-06
4.01153e-06
1.23195e-05
4.28917e-05
4.17374e-05
1.69867e-05
1.69893e-05
1.69893e-05
1.86016e-05
2.6189e-05
5.33409e-05
5.43455e-05
5.90953e-07
5.84293e-07
8.67629e-07
2.83445e-06
7.26616e-07
1.61522e-06
2.86876e-06
3.8739e-07
1.3178e-06
8.17522e-05
0.00011671
0.000116706
0.000116611
8.47941e-05
1.50558e-05
3.20459e-05
4.7655e-05
4.7655e-05
2.82786e-05
1.43195e-06
1.35063e-06
2.27663e-06
9.93658e-05
0.000141718
0.000101707
1.4009e-08
1.31873e-08
1.50168e-08
2.81264e-08
1.44292e-07
8.22995e-06
0.000172877
0.000232433
0.000232527
0.000232184
0.000223761
3.45206e-05
1.44462e-05
1.3459e-05
1.33867e-05
1.33729e-05
1.33967e-05
1.33929e-05
1.34023e-05
1.34419e-05
1.3616e-05
0.000181862
0.000182695
0.000182874
0.0001825
0.000182337
0.000181079
0.000171961
7.70788e-05
8.13116e-05
8.23713e-05
1.62691e-08
3.22337e-09
7.55833e-09
1.54206e-08
2.79394e-06
3.24283e-05
3.71349e-05
3.79003e-06
3.74479e-06
3.74479e-06
3.88288e-06
3.93672e-06
3.99083e-06
4.14945e-06
5.26625e-06
9.47904e-06
1.84529e-05
2.06503e-05
1.69884e-05
3.33111e-05
5.58396e-05
5.61403e-05
5.4388e-05
5.69993e-05
3.05116e-05
6.80463e-07
7.64166e-07
7.26616e-07
7.26616e-07
1.2127e-06
2.86876e-06
4.10309e-07
6.10734e-07
6.82458e-05
0.000116684
0.000115267
2.53397e-05
9.62362e-06
8.28091e-06
3.68327e-05
4.7655e-05
3.89793e-05
1.48878e-06
1.48878e-06
1.43195e-06
1.74849e-06
8.53556e-05
0.000141984
0.000139441
5.65286e-06
1.28088e-08
1.31873e-08
1.6824e-08
1.58331e-07
5.26706e-06
7.75652e-05
0.000232452
0.000232391
0.000232483
0.000231948
0.000195131
2.41703e-05
1.33867e-05
1.33739e-05
1.33739e-05
1.33739e-05
1.33967e-05
1.34421e-05
1.3616e-05
1.41537e-05
0.000116696
0.000181959
0.000182464
0.00018228
0.000180848
0.000180926
0.000180199
7.71868e-05
7.26088e-05
8.29463e-05
5.13132e-07
1.62688e-08
1.66036e-08
2.75495e-08
6.82857e-07
8.67785e-05
0.000151505
4.92648e-05
3.79004e-06
3.74479e-06
3.84809e-06
4.18193e-06
4.01149e-06
5.19211e-05
0.000146513
7.54671e-05
2.02785e-05
3.42748e-05
3.30877e-05
5.58849e-05
5.61403e-05
5.61403e-05
1.09004e-05
5.71442e-05
5.74751e-05
3.79181e-05
3.48786e-05
5.94764e-06
7.26616e-07
7.57866e-07
2.86437e-06
1.14742e-06
1.04844e-06
4.61096e-05
0.000116223
3.27643e-05
2.17585e-06
2.16238e-06
2.28435e-06
2.55462e-06
3.52104e-06
1.3194e-05
1.96223e-05
1.90683e-05
5.12904e-06
4.28701e-06
7.80751e-05
0.000142095
0.000141984
2.06497e-05
1.28088e-08
1.28088e-08
1.34523e-08
4.3345e-08
8.56365e-07
2.0343e-06
0.000111657
0.000232382
0.000231945
0.00023208
0.000231447
0.000225323
3.77458e-05
1.23314e-05
1.33672e-05
1.34368e-05
1.36495e-05
1.37569e-05
1.41531e-05
1.60826e-05
0.00012524
0.000179065
0.000181457
0.000168879
0.000166951
0.000180506
0.000180331
0.000113572
6.96111e-05
8.29463e-05
7.0996e-06
3.22602e-08
2.78661e-08
3.37087e-08
6.8248e-07
8.31017e-05
0.000155839
0.000150083
4.43551e-06
3.93553e-06
4.18193e-06
1.43969e-05
7.43759e-05
0.000220497
0.000270625
0.000271162
4.13317e-05
2.45435e-05
5.56893e-05
5.5749e-05
5.58849e-05
4.09934e-05
4.09485e-07
5.74751e-05
5.76515e-05
5.78583e-05
5.78879e-05
4.44999e-05
1.65862e-06
7.79366e-07
2.85616e-06
2.83987e-06
1.37993e-06
4.0747e-05
0.000108748
2.17585e-06
2.16238e-06
2.16238e-06
2.16238e-06
4.2665e-06
3.34722e-06
2.63531e-07
3.81017e-07
5.24611e-06
2.31721e-05
4.73124e-05
0.000117396
0.000142064
0.00014207
2.28717e-05
1.28079e-08
2.58544e-06
1.72063e-08
1.91542e-08
4.0321e-08
3.71599e-07
3.2626e-06
7.67716e-05
0.000193261
0.000231453
0.000228603
0.000227321
7.66289e-05
8.9774e-06
1.21653e-05
1.93699e-05
5.06004e-05
3.98695e-05
4.10789e-05
0.000114943
0.000176418
0.000180869
0.000177253
3.42245e-05
2.2077e-05
0.000165473
0.000179988
0.000100703
6.93583e-05
8.28222e-05
7.37703e-05
2.71055e-06
3.37087e-08
2.87018e-08
6.52496e-08
1.70933e-05
0.000160419
0.000176841
0.000112047
3.22591e-05
8.15474e-05
0.000199205
0.000266103
0.000269991
0.000271193
0.000270352
0.000144044
8.88749e-06
5.54914e-05
5.56893e-05
4.11139e-05
2.2443e-05
1.8614e-08
2.51702e-05
5.78583e-05
5.78887e-05
5.78869e-05
4.6407e-05
2.03882e-06
6.9495e-07
2.77937e-06
2.53128e-06
1.26413e-06
4.15441e-05
0.00010576
9.49516e-06
2.17585e-06
2.74754e-06
8.32792e-05
0.000133041
7.9157e-05
8.67786e-08
2.29893e-08
4.70537e-08
1.03946e-05
3.76452e-05
5.22717e-05
7.12659e-05
6.20337e-05
2.8432e-05
5.10314e-05
6.14809e-05
1.7739e-05
4.21105e-08
1.78299e-07
2.80869e-07
8.83999e-07
3.46996e-06
1.39941e-05
5.65053e-05
0.000109119
7.69944e-05
1.45223e-05
7.31076e-06
8.9774e-06
0.000130921
0.000165203
0.000167239
0.000167288
0.000167004
0.000169355
0.000176433
4.53596e-05
1.37258e-06
4.35789e-07
4.31297e-05
0.000177342
7.12476e-05
6.96111e-05
7.11678e-05
0.000104183
2.32288e-05
4.14561e-08
2.49058e-08
7.98488e-09
1.34972e-07
2.94424e-05
0.000185844
0.000200412
0.000204613
0.000207514
0.000213329
0.000216357
0.000203161
0.00021778
0.000128098
5.16248e-05
7.59143e-06
2.616e-05
3.49859e-05
3.64045e-05
6.73322e-05
8.68296e-09
4.93612e-08
2.29234e-05
5.27366e-05
4.66245e-05
1.60463e-05
2.95625e-06
5.92003e-07
4.59777e-07
3.1149e-07
2.19005e-08
2.75065e-05
0.000102469
7.90715e-05
2.50875e-06
1.10165e-05
0.000133203
0.000133231
0.000133071
7.60057e-05
1.76392e-08
1.23046e-08
2.30276e-07
1.6451e-06
1.57695e-07
4.58494e-07
6.09072e-07
1.85471e-05
6.4262e-05
6.47551e-05
6.45563e-05
4.04953e-05
1.31834e-05
8.84009e-07
2.00889e-06
2.6119e-06
4.07204e-06
6.62884e-06
7.06547e-06
6.53263e-06
6.34726e-06
7.0628e-06
5.85287e-05
0.000165346
0.000167239
0.000167288
0.000167288
0.000167288
0.000167004
8.47911e-05
2.01153e-06
4.35789e-07
1.55781e-07
9.32608e-08
9.17843e-05
0.000115157
7.0924e-05
7.63534e-05
0.00010767
4.50713e-05
2.1681e-08
1.57868e-08
1.50651e-09
8.12472e-09
4.45671e-07
5.1538e-05
0.000131024
9.48849e-05
8.06588e-05
7.79113e-05
8.21106e-06
3.43919e-06
3.56806e-06
3.97569e-06
4.92148e-06
6.63577e-06
7.59065e-06
3.1152e-05
6.62662e-05
6.73322e-05
5.83226e-09
7.9207e-09
2.9924e-07
4.97438e-06
3.81021e-06
6.62866e-07
1.95823e-06
7.13236e-07
1.98965e-08
6.43341e-09
3.47399e-09
2.82037e-06
4.13944e-05
9.67938e-05
8.73533e-05
9.43841e-05
0.000133231
0.000133231
0.000133231
0.000132171
6.35296e-06
1.06263e-08
8.24331e-09
5.97939e-09
1.13371e-08
3.31083e-08
7.11959e-08
1.73028e-06
5.31672e-05
6.45563e-05
6.47551e-05
6.45563e-05
6.41208e-05
5.57555e-05
4.07317e-05
1.05944e-05
6.62703e-06
7.06547e-06
6.53263e-06
6.36354e-06
6.38515e-06
6.60057e-06
0.000130945
0.000163391
0.000165808
0.000167239
0.000167288
0.000165865
7.8621e-05
9.04706e-07
3.86745e-07
1.55781e-07
9.32608e-08
8.65998e-08
2.20427e-05
0.000162147
0.000164259
0.000169726
0.000110276
4.29259e-05
1.39166e-08
1.76605e-09
7.72872e-10
9.39675e-07
5.51528e-06
3.48998e-06
3.20514e-06
3.20316e-06
3.20514e-06
3.20147e-06
3.20607e-06
3.2793e-06
3.43919e-06
3.56791e-06
3.97426e-06
6.38728e-06
3.70877e-05
5.29349e-05
5.28081e-05
1.09259e-05
4.95767e-09
5.8493e-08
9.85075e-08
1.949e-07
2.17817e-07
3.40735e-07
8.4377e-08
1.89074e-07
1.41178e-08
1.13209e-09
5.40712e-10
2.73567e-09
3.22058e-07
4.79293e-05
0.000102549
0.000133103
0.00013323
0.000133231
0.00013323
5.15686e-05
1.99197e-06
8.2433e-09
6.56985e-09
2.03189e-09
1.23896e-09
2.81809e-09
7.39198e-09
3.41811e-08
7.79236e-06
3.5145e-05
4.54432e-05
6.41208e-05