/*--------------------------------*- C++ -*----------------------------------*\
| =========                 |                                                 |
| \\      /  F ield         | OpenFOAM: The Open Source CFD Toolbox           |
|  \\    /   O peration     | Version:  2412                                  |
|   \\  /    A nd           | Website:  www.openfoam.com                      |
|    \\/     M anipulation  |                                                 |
\*---------------------------------------------------------------------------*/
FoamFile
{
    version     2.0;
    format      ascii;
    arch        "LSB;label=32;scalar=64";
    class       surfaceScalarField;
    location    "7.53";
    object      phi;
}
// * * * * * * * * * * * * * * * * * * * * * * * * * * * * * * * * * * * * * //

dimensions      [0 3 -1 0 0 0 0];

oriented        oriented;

internalField   nonuniform List<scalar> 
158920
(
-3.31235e-06
3.31235e-06
-5.56376e-06
2.13144e-06
-7.54622e-06
1.87823e-06
-8.61536e-06
9.90369e-07
-9.6218e-06
9.49152e-07
-1.06796e-05
1.01711e-06
-1.17334e-05
1.02554e-06
-1.27597e-05
1.00688e-06
-1.37227e-05
9.49783e-07
-1.46568e-05
9.25217e-07
-1.55448e-05
8.82104e-07
-1.63608e-05
8.12142e-07
-1.71025e-05
7.39254e-07
-1.77699e-05
6.65863e-07
-1.83603e-05
5.89566e-07
-1.8852e-05
4.91321e-07
-1.92352e-05
3.83145e-07
-1.95071e-05
2.71989e-07
-1.96559e-05
1.49128e-07
-1.96738e-05
1.8323e-08
-1.95532e-05
-1.20026e-07
-1.92857e-05
-2.66867e-07
-1.88649e-05
-4.20222e-07
-1.82825e-05
-5.81652e-07
-1.75312e-05
-7.50581e-07
-1.66041e-05
-9.26373e-07
-1.54928e-05
-1.11049e-06
-1.41911e-05
-1.30087e-06
-1.26932e-05
-1.49713e-06
-1.09924e-05
-1.69995e-06
-9.08202e-06
-1.90953e-06
-6.95633e-06
-2.12481e-06
-4.60882e-06
-2.34661e-06
-2.0337e-06
-2.57419e-06
7.74976e-07
-2.80773e-06
3.82328e-06
-3.04733e-06
7.12075e-06
-3.29649e-06
1.06672e-05
-3.54548e-06
1.44716e-05
-3.8034e-06
1.85396e-05
-4.06699e-06
2.28764e-05
-4.33574e-06
2.74885e-05
-4.61101e-06
3.23844e-05
-4.8949e-06
3.75597e-05
-5.17425e-06
4.30225e-05
-5.46173e-06
4.87904e-05
-5.76689e-06
5.48559e-05
-6.06454e-06
6.12308e-05
-6.37403e-06
6.79119e-05
-6.68025e-06
7.49087e-05
-6.99594e-06
8.22266e-05
-7.31714e-06
8.98679e-05
-7.64049e-06
9.78404e-05
-7.97179e-06
0.000106145
-8.30339e-06
0.000114786
-8.64004e-06
0.000123774
-8.98721e-06
0.000133099
-9.32472e-06
0.000142772
-9.6725e-06
0.000152801
-1.00276e-05
0.000163187
-1.03856e-05
0.000173932
-1.07444e-05
0.000185034
-1.11015e-05
0.000196501
-1.14665e-05
0.000208338
-1.18358e-05
0.000220544
-1.22057e-05
0.000233117
-1.25729e-05
0.000246064
-1.29467e-05
0.000259387
-1.33225e-05
0.000273096
-1.37077e-05
0.000287175
-1.40794e-05
0.000301642
-1.44656e-05
0.000316486
-1.48444e-05
0.000331719
-1.52325e-05
0.000347331
-1.56116e-05
0.000363334
-1.60025e-05
0.000379721
-1.63871e-05
0.000396493
-1.67714e-05
0.000413653
-1.71597e-05
0.000431203
-1.75499e-05
0.000449141
-1.79371e-05
0.000467465
-1.83239e-05
0.000486175
-1.87097e-05
0.00050527
-1.90946e-05
0.00052475
-1.94794e-05
0.000544613
-1.98625e-05
0.000564856
-2.02426e-05
0.000585471
-2.06152e-05
0.000606487
-2.10159e-05
0.000627874
-2.1386e-05
0.000649634
-2.17595e-05
0.000671767
-2.21329e-05
0.000694276
-2.25084e-05
0.000717152
-2.28751e-05
0.000740393
-2.32405e-05
0.000763997
-2.36036e-05
0.000787963
-2.39647e-05
0.000812287
-2.43232e-05
0.000836964
-2.46766e-05
0.00086199
-2.50254e-05
0.000887363
-2.5372e-05
0.000913078
-2.57137e-05
0.000939129
-2.60498e-05
0.000965512
-2.63822e-05
0.000992224
-2.67104e-05
0.00101926
-2.70346e-05
0.00104661
-2.73535e-05
0.00107428
-2.76663e-05
0.00110226
-2.79749e-05
0.00113054
-2.82774e-05
0.00115911
-2.85744e-05
0.00118798
-2.88639e-05
0.00121713
-2.91531e-05
0.00124657
-2.94311e-05
0.00127627
-2.97016e-05
0.00130624
-2.99662e-05
0.00133646
-3.02242e-05
0.00136694
-3.04751e-05
0.00139766
-3.07185e-05
0.00142861
-3.09537e-05
0.00145979
-3.11807e-05
0.0014912
-3.14e-05
0.00152281
-3.16176e-05
0.00155463
-3.18195e-05
0.00158665
-3.20129e-05
0.00161885
-3.21983e-05
0.00165122
-3.23745e-05
0.00168377
-3.25512e-05
0.00171648
-3.27071e-05
0.00174934
-3.28556e-05
0.00178233
-3.29927e-05
0.00181546
-3.31276e-05
0.00184871
-3.32465e-05
0.00188206
-3.33512e-05
0.00191552
-3.3465e-05
0.00194907
-3.35479e-05
0.00198269
-3.36221e-05
0.00201638
-3.36904e-05
0.00205013
-3.37453e-05
0.00208391
-3.3789e-05
0.00211773
-3.38201e-05
0.00215157
-3.38398e-05
0.00218542
-3.38489e-05
0.00221926
-3.38431e-05
0.00225309
-3.38278e-05
0.00228689
-3.37961e-05
0.00232064
-3.37547e-05
0.00235434
-3.36973e-05
0.00238796
-3.36285e-05
0.00242151
-3.35459e-05
0.00245495
-3.34472e-05
0.00248829
-3.33364e-05
0.0025215
-3.3209e-05
0.00255457
-3.30712e-05
0.00258748
-3.29151e-05
0.00262023
-3.2744e-05
0.00265278
-3.25583e-05
0.00268514
-3.23566e-05
0.00271728
-3.21393e-05
0.00274919
-3.19119e-05
0.00278085
-3.16602e-05
0.00281224
-3.1394e-05
0.00284336
-3.1112e-05
0.00287417
-3.08144e-05
0.00290467
-3.04982e-05
0.00293483
-3.01642e-05
0.00296465
-2.98136e-05
0.00299409
-2.94453e-05
0.00302315
-2.90602e-05
0.00305181
-2.86552e-05
0.00308004
-2.82303e-05
0.00310783
-2.77882e-05
0.00313515
-2.73267e-05
0.003162
-2.68455e-05
0.00318834
-2.63445e-05
0.00321417
-2.58264e-05
0.00323945
-2.52838e-05
0.00326418
-2.47254e-05
0.00328833
-2.41488e-05
0.00331188
-2.3547e-05
0.0033348
-2.29197e-05
0.00335708
-2.22778e-05
0.0033787
-2.16216e-05
0.00339964
-2.09339e-05
0.00341986
-2.0223e-05
0.00343935
-1.94928e-05
0.00345809
-1.87421e-05
0.00347606
-1.79699e-05
0.00349324
-1.71733e-05
0.00350959
-1.63539e-05
0.0035251
-1.55128e-05
0.00353975
-1.46478e-05
0.00355351
-1.37601e-05
0.00356636
-1.28503e-05
0.00357828
-1.19165e-05
0.00358924
-1.09591e-05
0.00359921
-9.97775e-06
0.00360819
-8.97448e-06
0.00361614
-7.94632e-06
0.00362303
-6.8948e-06
0.00362885
-5.82188e-06
0.00363358
-4.72416e-06
0.00363718
-3.60306e-06
0.00363965
-2.46328e-06
0.00364095
-1.30111e-06
0.00364106
-1.12533e-07
0.0036399
1.16061e-06
0.00363754
2.3577e-06
0.00363393
3.60758e-06
0.00362902
4.9066e-06
0.00362283
6.19369e-06
0.00361532
7.50699e-06
0.00360645
8.8635e-06
0.00359622
1.0231e-05
0.00358463
1.15971e-05
0.00357162
1.30083e-05
0.00355719
1.44333e-05
0.00354133
1.58547e-05
0.00352401
1.73168e-05
0.00350523
1.87842e-05
0.00348497
2.02599e-05
0.0034632
2.17676e-05
0.00343994
2.32628e-05
0.00341515
2.47871e-05
0.00338883
2.6319e-05
0.00336098
2.78447e-05
0.00333159
2.93944e-05
0.00330065
3.094e-05
0.00326817
3.24793e-05
0.00323413
3.40392e-05
0.00319855
3.55857e-05
0.00316142
3.71326e-05
0.00312275
3.86702e-05
0.00308255
4.0201e-05
0.00304082
4.17253e-05
0.00299759
4.32309e-05
0.00295286
4.47261e-05
0.00290666
4.62005e-05
0.002859
4.76524e-05
0.00280991
4.90884e-05
0.00275943
5.04851e-05
0.00270757
5.18624e-05
0.00265436
5.32042e-05
0.00259985
5.45069e-05
0.00254408
5.57752e-05
0.00248709
5.69911e-05
0.00242892
5.81673e-05
0.00236963
5.92914e-05
0.00230927
6.03632e-05
0.00224789
6.13785e-05
0.00218556
6.23253e-05
0.00212234
6.32206e-05
0.00205829
6.40479e-05
0.00199349
6.48031e-05
0.00192799
6.54914e-05
0.0018619
6.60952e-05
0.00179527
6.66256e-05
0.00172819
6.70799e-05
0.00166074
6.74516e-05
0.001593
6.77388e-05
0.00152506
6.79408e-05
0.00145702
6.804e-05
0.00138897
6.8055e-05
0.00132098
6.79904e-05
0.00125315
6.78272e-05
0.00118559
6.75654e-05
0.00111837
6.72137e-05
0.00105161
6.67688e-05
0.000985375
6.62309e-05
0.00091977
6.56056e-05
0.000854875
6.48941e-05
0.000790783
6.40918e-05
0.000727591
6.3191e-05
0.000665387
6.22027e-05
0.000604243
6.11421e-05
0.000544231
6.00096e-05
0.000485438
5.87911e-05
0.00042796
5.74758e-05
0.000371858
5.61e-05
0.0003172
5.46566e-05
0.000264035
5.31622e-05
0.00021244
5.15928e-05
0.0001625
4.99383e-05
0.000114242
4.82574e-05
6.77047e-05
4.65383e-05
2.29157e-05
4.47897e-05
-2.00675e-05
4.29836e-05
-6.11701e-05
4.11028e-05
-0.000100378
3.92087e-05
-0.000137723
3.73454e-05
-0.000173121
3.53982e-05
-0.000206577
3.34555e-05
-0.000237924
3.13466e-05
-0.00026731
2.9386e-05
-0.000294719
2.74096e-05
-0.000320133
2.54148e-05
-0.000343538
2.34057e-05
-0.00036487
2.13313e-05
-0.000384123
1.92513e-05
-0.000401471
1.73466e-05
-0.000416844
1.5371e-05
-0.000430271
1.34277e-05
-0.000441732
1.14642e-05
-0.000451192
9.46596e-06
-0.000458709
7.52174e-06
-0.000464332
5.62476e-06
-0.000468078
3.74367e-06
-0.00047007
1.98576e-06
-0.00047024
1.66988e-07
-0.000468605
-1.6324e-06
-0.000465193
-3.40432e-06
-0.000460007
-5.17929e-06
-0.000453184
-6.82035e-06
-0.000444686
-8.49984e-06
-0.000434526
-1.01608e-05
-0.000422771
-1.17534e-05
-0.000409445
-1.33205e-05
-0.000394658
-1.47826e-05
-0.000378387
-1.62705e-05
-0.00036062
-1.77717e-05
-0.00034139
-1.92378e-05
-0.000320764
-2.06315e-05
-0.000298825
-2.1942e-05
-0.000275548
-2.32772e-05
-0.000250985
-2.45651e-05
-0.000225132
-2.58574e-05
-0.000197948
-2.71918e-05
-0.000169591
-2.83634e-05
-0.000140038
-2.95574e-05
-0.000109301
-3.07373e-05
-7.73809e-05
-3.19177e-05
-4.43177e-05
-3.3061e-05
-1.01621e-05
-3.41553e-05
2.505e-05
-3.5214e-05
6.13226e-05
-3.62754e-05
9.86487e-05
-3.73277e-05
0.000137027
-3.8377e-05
0.000176431
-3.94008e-05
0.000216731
-4.02961e-05
0.000257879
-4.11436e-05
0.000299935
-4.20538e-05
0.000342931
-4.29978e-05
0.000386721
-4.37941e-05
0.000431271
-4.45549e-05
0.000476532
-4.52666e-05
0.000522473
-4.59447e-05
0.000569025
-4.65539e-05
0.000616159
-4.71341e-05
0.000663867
-4.77074e-05
0.000712121
-4.82523e-05
0.000760725
-4.86012e-05
0.000809581
-4.88523e-05
0.000858653
-4.90689e-05
0.000908031
-4.9377e-05
0.000957578
-4.95492e-05
0.00100715
-4.95721e-05
0.00105666
-4.95134e-05
0.00110605
-4.93943e-05
0.00115523
-4.91805e-05
0.00120408
-4.88438e-05
0.00125257
-4.84909e-05
0.00130061
-4.80431e-05
0.00134805
-4.74432e-05
0.00139478
-4.67294e-05
0.00144066
-4.58824e-05
0.00148568
-4.50233e-05
0.00152976
-4.40751e-05
0.00157274
-4.29799e-05
0.00161448
-4.1734e-05
0.0016549
-4.04173e-05
0.00169395
-3.90539e-05
0.00173153
-3.75722e-05
0.00176749
-3.5961e-05
0.00180178
-3.42895e-05
0.00183421
-3.24282e-05
0.00186477
-3.05581e-05
0.00189342
-2.86579e-05
0.00192013
-2.67082e-05
0.00194479
-2.466e-05
0.0019673
-2.25092e-05
0.00198749
-2.01986e-05
0.0020054
-1.79093e-05
0.00202105
-1.56426e-05
0.00203437
-1.33203e-05
0.00204525
-1.08861e-05
0.00205369
-8.43733e-06
0.00205969
-5.99717e-06
0.00206323
-3.54883e-06
0.00206429
-1.05379e-06
0.00206277
1.51815e-06
0.0020587
4.06945e-06
0.00205217
6.53705e-06
0.00204309
9.08142e-06
0.00203153
1.15596e-05
0.00201739
1.41388e-05
0.00200082
1.65663e-05
0.00198179
1.9025e-05
0.00196035
2.14449e-05
0.00193656
2.37874e-05
0.00191041
2.61497e-05
0.00188193
2.84787e-05
0.0018512
3.07314e-05
0.00181835
3.28512e-05
0.00178337
3.49769e-05
0.0017463
3.70718e-05
0.00170723
3.90737e-05
0.00166619
4.10397e-05
0.00162336
4.28345e-05
0.00157876
4.45974e-05
0.00153249
4.62675e-05
0.00148459
4.78998e-05
0.00143523
4.93571e-05
0.0013845
5.0726e-05
0.00133247
5.2036e-05
0.00127923
5.32367e-05
0.00122493
5.43046e-05
0.00116967
5.52552e-05
0.00111352
5.61547e-05
0.00105666
5.68546e-05
0.00099923
5.74338e-05
0.000941252
5.79781e-05
0.000882895
5.83573e-05
0.000824214
5.86812e-05
0.000765387
5.88267e-05
0.000706554
5.88333e-05
0.000647739
5.88141e-05
0.000589112
5.86272e-05
0.000530704
5.84071e-05
0.000472742
5.79619e-05
0.00041538
5.73627e-05
0.000358632
5.67474e-05
0.000302693
5.59394e-05
0.000247537
5.51555e-05
0.00019339
5.41474e-05
0.000140327
5.30639e-05
8.84336e-05
5.18934e-05
3.78653e-05
5.0569e-05
-1.13782e-05
4.92441e-05
-5.91594e-05
4.77815e-05
-0.000105487
4.63273e-05
-0.000150091
4.46039e-05
-0.000193074
4.29833e-05
-0.000234168
4.10939e-05
-0.000273284
3.91155e-05
-0.000310458
3.71743e-05
-0.000345591
3.51322e-05
-0.000378566
3.29757e-05
-0.000409396
3.08314e-05
-0.00043813
2.87347e-05
-0.000464542
2.64132e-05
-0.000488567
2.40244e-05
-0.000510141
2.1574e-05
-0.000529322
1.91797e-05
-0.000546147
1.6825e-05
-0.00056052
1.43734e-05
-0.000572415
1.18959e-05
-0.000581852
9.43647e-06
-0.00058876
6.90634e-06
-0.000593061
4.29994e-06
-0.000594937
1.87601e-06
-0.000594387
-5.51105e-07
-0.000591277
-3.11088e-06
-0.000585822
-5.45599e-06
-0.00057803
-7.79383e-06
-0.00056795
-1.00813e-05
-0.00055555
-1.24007e-05
-0.000540968
-1.4583e-05
-0.000524236
-1.67327e-05
-0.000505504
-1.87338e-05
-0.00048483
-2.06763e-05
-0.000462318
-2.25132e-05
-0.000438082
-2.42363e-05
-0.000412203
-2.58787e-05
-0.000384769
-2.74331e-05
-0.000356012
-2.87572e-05
-0.000326043
-2.99689e-05
-0.000294972
-3.10724e-05
-0.000262978
-3.1994e-05
-0.00023022
-3.27587e-05
-0.0001968
-3.34192e-05
-0.000162906
-3.38934e-05
-0.000128728
-3.41771e-05
-9.44031e-05
-3.43248e-05
-6.00392e-05
-3.43633e-05
-2.58322e-05
-3.42061e-05
8.05829e-06
-3.38891e-05
4.15455e-05
-3.34856e-05
7.42923e-05
-3.27452e-05
0.00010631
-3.20162e-05
0.000137477
-3.11657e-05
0.000167585
-3.01069e-05
0.000196549
-2.89618e-05
0.000224275
-2.77251e-05
0.000250602
-2.6325e-05
0.000275468
-2.4865e-05
0.000298797
-2.33276e-05
0.000320476
-2.16769e-05
0.000340452
-1.99749e-05
0.000358721
-1.82684e-05
0.000375242
-1.65198e-05
0.000389932
-1.46908e-05
0.000402799
-1.28662e-05
0.000413828
-1.10294e-05
0.000423151
-9.32358e-06
0.000430653
-7.502e-06
0.000436357
-5.7046e-06
0.000440294
-3.93876e-06
0.000442648
-2.35535e-06
0.00044336
-7.12723e-07
0.000442544
8.15178e-07
0.000440254
2.28943e-06
0.000436469
3.78379e-06
0.000431416
5.05227e-06
0.000425094
6.31899e-06
0.000417658
7.43406e-06
0.000409131
8.5254e-06
0.000399632
9.49906e-06
0.000389283
1.03488e-05
0.000378175
1.11078e-05
0.000366519
1.16548e-05
0.000354334
1.21836e-05
0.000341762
1.25695e-05
0.00032892
1.28407e-05
0.000315914
1.30053e-05
0.000302845
1.30696e-05
0.000289864
1.29807e-05
0.000277065
1.27987e-05
0.000264428
1.26357e-05
0.000252224
1.22033e-05
0.000240359
1.1864e-05
0.000229037
1.13218e-05
0.000218241
1.0795e-05
0.000208036
1.02054e-05
0.000198512
9.52368e-06
0.000189614
8.89829e-06
0.000181473
8.14114e-06
0.000173981
7.49143e-06
0.000167154
6.82791e-06
0.000161005
6.14951e-06
0.000155477
5.52877e-06
0.000150573
4.90527e-06
0.000146339
4.23462e-06
0.000142721
3.61827e-06
0.000139818
2.90355e-06
0.000137526
2.29213e-06
0.000135898
1.62896e-06
0.00013482
1.07879e-06
0.000134307
5.13232e-07
0.000134248
5.93794e-08
0.000134758
-5.09226e-07
0.000135814
-1.05648e-06
0.000137342
-1.52778e-06
0.000139281
-1.93956e-06
0.000141577
-2.29598e-06
0.00014416
-2.58342e-06
0.000146863
-2.70361e-06
0.00014958
-2.71697e-06
0.000152216
-2.63555e-06
0.000154857
-2.64122e-06
0.000157557
-2.69912e-06
0.000160194
-2.63716e-06
0.000162688
-2.49423e-06
0.000164931
-2.24268e-06
0.000166738
-1.80701e-06
0.000168156
-1.41802e-06
0.00016912
-9.62698e-07
0.00016957
-4.4967e-07
0.000169412
1.58321e-07
0.000168727
6.85791e-07
0.000167411
1.31669e-06
0.000165348
2.06309e-06
0.000162512
2.83545e-06
0.000158863
3.65015e-06
0.000154244
4.61873e-06
0.000148689
5.55564e-06
0.000142204
6.48504e-06
0.000134515
7.68878e-06
0.000125469
9.04591e-06
0.000114236
1.12334e-05
0.000101736
1.25008e-05
8.61422e-05
1.55937e-05
6.72461e-05
1.88964e-05
5.90847e-05
8.16151e-06
6.93319e-05
-1.02471e-05
7.12133e-05
-1.88137e-06
5.80946e-05
1.31186e-05
3.85194e-05
1.95752e-05
2.87703e-05
9.74922e-06
3.88294e-05
-1.00589e-05
3.98935e-05
-1.06398e-06
2.20067e-05
1.78868e-05
2.35545e-06
1.96513e-05
-1.39661e-05
1.63215e-05
-2.88596e-05
1.48934e-05
-4.21076e-05
1.3248e-05
-5.41193e-05
1.20118e-05
-6.51007e-05
1.09816e-05
-7.51975e-05
1.0097e-05
-8.45829e-05
9.38554e-06
-9.33303e-05
8.74751e-06
-0.000101511
8.18097e-06
-0.000109157
7.64567e-06
-0.000116184
7.02778e-06
-0.000122586
6.40211e-06
-0.000128397
5.81115e-06
-0.000133482
5.08523e-06
-0.000138101
4.61946e-06
-0.000142078
3.97725e-06
-0.000145395
3.31708e-06
-0.000148141
2.7463e-06
-0.000150264
2.12388e-06
-0.000151912
1.6484e-06
-0.000153128
1.21639e-06
-0.000153905
7.77066e-07
-0.000154319
4.14461e-07
-0.000154338
1.97745e-08
-0.000154101
-2.37126e-07
-0.000153792
-3.09182e-07
-0.000153436
-3.55519e-07
-0.000153073
-3.62771e-07
-0.000152677
-3.95651e-07
-0.000152285
-3.91759e-07
-0.000152065
-2.20217e-07
-0.000152161
9.58213e-08
-0.00015274
5.7925e-07
-0.000153609
8.68906e-07
-0.000154749
1.14001e-06
-0.000156229
1.48062e-06
-0.000158205
1.97543e-06
-0.000160712
2.50747e-06
-0.000163735
3.0229e-06
-0.000167343
3.60701e-06
-0.000171493
4.14995e-06
-0.000176311
4.81782e-06
-0.000181799
5.48732e-06
-0.000187954
6.15537e-06
-0.000194804
6.84904e-06
-0.000202367
7.56277e-06
-0.000210548
8.18127e-06
-0.000219671
9.122e-06
-0.00022951
9.83915e-06
-0.00023964
1.01291e-05
-0.000250214
1.05734e-05
-0.000261007
1.07929e-05
-0.000271959
1.0951e-05
-0.000283076
1.11169e-05
-0.000294181
1.1104e-05
-0.000305172
1.09906e-05
-0.000315919
1.07468e-05
-0.000326375
1.04557e-05
-0.000336215
9.83967e-06
-0.000345375
9.16017e-06
-0.00035383
8.4551e-06
-0.000361607
7.7768e-06
-0.00036845
6.84269e-06
-0.000374291
5.84123e-06
-0.000378934
4.64333e-06
-0.000382075
3.14123e-06
-0.000383746
1.67082e-06
-0.000384003
2.56357e-07
-0.000382806
-1.19665e-06
-0.000380262
-2.54366e-06
-0.000376252
-4.0094e-06
-0.000370247
-6.00491e-06
-0.000362062
-8.18457e-06
-0.000351992
-1.00694e-05
-0.00033995
-1.20413e-05
-0.000326304
-1.36447e-05
-0.000310693
-1.5611e-05
-0.000293089
-1.76029e-05
-0.000273457
-1.9631e-05
-0.000251955
-2.15009e-05
-0.000228505
-2.345e-05
-0.000203358
-2.51458e-05
-0.000176476
-2.68809e-05
-0.000148024
-2.84516e-05
-0.000118003
-3.00204e-05
-8.6372e-05
-3.16297e-05
-5.34631e-05
-3.2908e-05
-1.95425e-05
-3.39196e-05
1.51758e-05
-3.47173e-05
5.06035e-05
-3.54267e-05
8.6447e-05
-3.58426e-05
0.000122504
-3.60557e-05
0.000158712
-3.62082e-05
0.000194796
-3.60827e-05
0.000230436
-3.56402e-05
0.000265444
-3.50071e-05
0.000299769
-3.4325e-05
0.000332618
-3.28494e-05
0.000364145
-3.15265e-05
0.000393944
-2.9798e-05
0.000421784
-2.78403e-05
0.000447809
-2.60245e-05
0.000471737
-2.39274e-05
0.000493259
-2.15219e-05
0.000512075
-1.88157e-05
0.000528016
-1.594e-05
0.000540868
-1.28522e-05
0.000550917
-1.00486e-05
0.000557902
-6.98469e-06
0.00056169
-3.7876e-06
0.000562063
-3.73252e-07
0.000558873
3.19007e-06
0.000552308
6.56477e-06
0.000542239
1.00689e-05
0.000528516
1.37224e-05
0.000511908
1.66075e-05
0.000491792
2.01152e-05
0.000468197
2.35939e-05
0.00044102
2.71764e-05
0.000410495
3.05233e-05
0.00037667
3.38249e-05
0.00033964
3.7029e-05
0.000299718
3.99215e-05
0.000256528
4.31902e-05
0.000210256
4.62722e-05
0.000161062
4.91947e-05
0.000109123
5.1939e-05
5.47031e-05
5.44208e-05
-1.9175e-06
5.66214e-05
-6.09675e-05
5.90511e-05
-0.000122476
6.15093e-05
-0.000186175
6.36992e-05
-0.000251775
6.56005e-05
-0.000319033
6.72578e-05
-0.000387846
6.88125e-05
-0.000457979
7.01325e-05
-0.000529375
7.1394e-05
-0.000601765
7.2389e-05
-0.000675053
7.32861e-05
-0.000748916
7.38624e-05
-0.000823013
7.40956e-05
-0.000897044
7.40306e-05
-0.000970746
7.3701e-05
-0.00104409
7.33406e-05
-0.00111684
7.27555e-05
-0.00118878
7.19416e-05
-0.00125947
7.06911e-05
-0.00132868
6.92037e-05
-0.00139631
6.7634e-05
-0.00146186
6.55565e-05
-0.00152518
6.33169e-05
-0.00158605
6.08674e-05
-0.00164446
5.84198e-05
-0.00170009
5.56303e-05
-0.00175266
5.25696e-05
-0.00180202
4.93597e-05
-0.00184809
4.60708e-05
-0.00189061
4.25174e-05
-0.00192961
3.90052e-05
-0.00196487
3.52599e-05
-0.00199616
3.12865e-05
-0.00202359
2.74339e-05
-0.00204708
2.3483e-05
-0.00206661
1.95346e-05
-0.00208219
1.55694e-05
-0.00209372
1.15274e-05
-0.00210117
7.45316e-06
-0.00210463
3.46191e-06
-0.00210405
-5.82908e-07
-0.00209949
-4.5618e-06
-0.00209102
-8.47399e-06
-0.00207869
-1.23304e-05
-0.00206262
-1.60719e-05
-0.00204293
-1.9693e-05
-0.00201963
-2.33022e-05
-0.00199288
-2.67504e-05
-0.00196278
-3.01015e-05
-0.00192954
-3.3238e-05
-0.00189332
-3.62201e-05
-0.0018542
-3.91246e-05
-0.00181237
-4.18334e-05
-0.00176801
-4.43517e-05
-0.00172125
-4.67647e-05
-0.00167209
-4.91585e-05
-0.00162081
-5.1288e-05
-0.00156771
-5.30913e-05
-0.00151296
-5.47576e-05
-0.00145667
-5.62855e-05
-0.00139896
-5.77089e-05
-0.00134005
-5.89042e-05
-0.00128009
-5.99649e-05
-0.00121914
-6.09441e-05
-0.00115744
-6.171e-05
-0.00109499
-6.24459e-05
-0.00103193
-6.30553e-05
-0.000968517
-6.34164e-05
-0.000904802
-6.3715e-05
-0.000840897
-6.39047e-05
-0.000776898
-6.39982e-05
-0.000712952
-6.39445e-05
-0.000649191
-6.37604e-05
-0.000585695
-6.34951e-05
-0.000522509
-6.31851e-05
-0.00045985
-6.26587e-05
-0.000397845
-6.20053e-05
-0.000336651
-6.11943e-05
-0.000276369
-6.02822e-05
-0.000217205
-5.91644e-05
-0.000159305
-5.79004e-05
-0.00010282
-5.64846e-05
-4.78911e-05
-5.49285e-05
5.38393e-06
-5.3274e-05
5.67653e-05
-5.13799e-05
0.00010618
-4.94136e-05
0.000153409
-4.72267e-05
0.000198331
-4.49209e-05
0.000240814
-4.24822e-05
0.000280647
-3.98323e-05
0.000317668
-3.70208e-05
0.00035176
-3.40918e-05
0.000382759
-3.09997e-05
0.000410492
-2.77346e-05
0.000434798
-2.43063e-05
0.000455542
-2.07448e-05
0.000472585
-1.70437e-05
0.000485796
-1.32114e-05
0.000495266
-9.47038e-06
0.000500553
-5.28738e-06
0.000501649
-1.09511e-06
0.000498449
3.20014e-06
0.000490849
7.59927e-06
0.000479038
1.181e-05
0.000462492
1.65461e-05
0.000441289
2.12023e-05
0.000415768
2.55201e-05
0.000385422
3.03438e-05
0.000350421
3.49985e-05
0.000311113
3.93058e-05
0.000266924
4.41869e-05
0.000218344
4.85791e-05
0.000165233
5.31102e-05
0.000107825
5.74075e-05
4.61364e-05
6.16886e-05
-1.95375e-05
6.56761e-05
-8.91533e-05
6.962e-05
-0.000162547
7.33976e-05
-0.000239501
7.69563e-05
-0.000319817
8.03168e-05
-0.000403334
8.35176e-05
-0.000489811
8.64765e-05
-0.000578993
8.91819e-05
-0.000670608
9.16117e-05
-0.000764389
9.37762e-05
-0.000860083
9.5688e-05
-0.000957383
9.7295e-05
-0.00105599
9.85989e-05
-0.00115558
9.95934e-05
-0.00125589
0.000100311
-0.00135664
0.000100743
-0.00145752
0.000100879
-0.00155823
0.000100719
-0.00165849
0.000100261
-0.001758
9.95094e-05
-0.00185647
9.8479e-05
-0.00195364
9.71704e-05
-0.00204926
9.56252e-05
-0.00214314
9.38811e-05
-0.00223505
9.191e-05
-0.00232475
8.97069e-05
-0.0024121
8.73493e-05
-0.00249689
8.47931e-05
-0.002579
8.21128e-05
-0.0026583
7.92963e-05
-0.00273465
7.63555e-05
-0.00280797
7.33138e-05
-0.00287816
7.01947e-05
-0.00294519
6.70336e-05
-0.00300902
6.38298e-05
-0.00306962
6.0602e-05
-0.00312695
5.73409e-05
-0.00318098
5.40275e-05
-0.00323166
5.06821e-05
-0.00327902
4.73558e-05
-0.00332307
4.4054e-05
-0.00336385
4.07818e-05
-0.00340139
3.755e-05
-0.00343567
3.42809e-05
-0.0034667
3.10195e-05
-0.00349449
2.77902e-05
-0.00351908
2.45959e-05
-0.00354054
2.14584e-05
-0.00355887
1.83302e-05
-0.00357413
1.52704e-05
-0.00358631
1.21767e-05
-0.00359545
9.13316e-06
-0.00360156
6.10968e-06
-0.00360473
3.17021e-06
-0.00360495
2.27973e-07
-0.00360232
-2.62513e-06
-0.00359693
-5.39741e-06
-0.00358878
-8.15193e-06
-0.00357794
-1.08452e-05
-0.00356445
-1.34889e-05
-0.00354839
-1.60517e-05
-0.00352985
-1.8539e-05
-0.00350887
-2.09866e-05
-0.00348549
-2.33712e-05
-0.0034598
-2.56897e-05
-0.00343189
-2.79165e-05
-0.00340185
-3.00343e-05
-0.00336976
-3.20927e-05
-0.00333569
-3.40699e-05
-0.00329972
-3.59708e-05
-0.00326192
-3.78017e-05
-0.00322235
-3.95693e-05
-0.00318107
-4.1275e-05
-0.00313823
-4.28395e-05
-0.00309391
-4.43224e-05
-0.00304814
-4.57761e-05
-0.00300103
-4.71142e-05
-0.00295266
-4.83657e-05
-0.00290311
-4.95502e-05
-0.00285243
-5.06798e-05
-0.0028007
-5.17267e-05
-0.00274803
-5.2676e-05
-0.00269449
-5.35333e-05
-0.00264022
-5.42767e-05
-0.00258519
-5.50258e-05
-0.00252948
-5.57155e-05
-0.00247318
-5.62979e-05
-0.00241641
-5.67686e-05
-0.00235921
-5.72068e-05
-0.0023017
-5.75029e-05
-0.00224389
-5.78112e-05
-0.00218586
-5.80361e-05
-0.00212767
-5.8184e-05
-0.00206943
-5.82464e-05
-0.00201115
-5.8276e-05
-0.00195296
-5.81954e-05
-0.00189485
-5.81097e-05
-0.00183691
-5.79373e-05
-0.00177919
-5.77234e-05
-0.00172182
-5.73653e-05
-0.00166483
-5.6992e-05
-0.0016082
-5.66242e-05
-0.00155204
-5.6161e-05
-0.00149641
-5.5633e-05
-0.00144134
-5.50715e-05
-0.00138688
-5.44584e-05
-0.00133309
-5.37898e-05
-0.00128003
-5.30614e-05
-0.00122774
-5.22866e-05
-0.00117623
-5.15088e-05
-0.00112556
-5.06725e-05
-0.00107576
-4.97966e-05
-0.0010269
-4.88581e-05
-0.000979005
-4.78972e-05
-0.000932068
-4.69367e-05
-0.000886199
-4.58696e-05
-0.000841304
-4.48951e-05
-0.000797608
-4.36956e-05
-0.000754956
-4.26522e-05
-0.000713471
-4.14859e-05
-0.000673113
-4.03582e-05
-0.000633887
-3.92265e-05
-0.000595948
-3.79396e-05
-0.000559172
-3.67766e-05
-0.000523594
-3.55786e-05
-0.000489225
-3.43682e-05
-0.000456206
-3.30195e-05
-0.000424385
-3.18216e-05
-0.000393812
-3.05743e-05
-0.000364496
-2.93162e-05
-0.000336446
-2.80501e-05
-0.000309639
-2.68069e-05
-0.000284095
-2.55439e-05
-0.000259798
-2.42966e-05
-0.000236738
-2.30592e-05
-0.000214901
-2.18379e-05
-0.000194237
-2.06642e-05
-0.000174862
-1.93736e-05
-0.000156642
-1.8219e-05
-0.00013958
-1.70617e-05
-0.000123634
-1.59446e-05
-0.000108824
-1.48093e-05
-9.5111e-05
-1.37128e-05
-8.24557e-05
-1.26543e-05
-7.08489e-05
-1.16056e-05
-6.02382e-05
-1.06093e-05
-5.06006e-05
-9.63622e-06
-4.19049e-05
-8.69436e-06
-3.41123e-05
-7.79151e-06
-2.71584e-05
-6.95306e-06
-2.1039e-05
-6.11865e-06
-1.56943e-05
-5.34354e-06
-1.10887e-05
-4.60407e-06
-7.16661e-06
-3.92055e-06
-3.89502e-06
-3.27042e-06
-1.22509e-06
-2.66927e-06
8.98885e-07
-2.12354e-06
2.54317e-06
-1.64363e-06
3.76902e-06
-1.22483e-06
4.63899e-06
-8.68732e-07
5.23267e-06
-5.92473e-07
5.88399e-06
-6.50346e-07
6.45275e-06
-5.6809e-07
4.8428e-06
1.61039e-06
2.09077e-06
2.75244e-06
2.09139e-06
-8.98177e-08
3.51679e-06
-2.10921e-06
4.31869e-06
-4.15788e-06
4.05801e-06
-5.96951e-06
2.90302e-06
-7.50611e-06
2.56183e-06
-8.80329e-06
2.3704e-06
-9.96674e-06
2.22977e-06
-1.10831e-05
2.15262e-06
-1.21707e-05
2.05839e-06
-1.31759e-05
1.94542e-06
-1.41052e-05
1.82227e-06
-1.49725e-05
1.68731e-06
-1.5773e-05
1.54545e-06
-1.64907e-05
1.38788e-06
-1.71176e-05
1.21985e-06
-1.76496e-05
1.02596e-06
-1.80807e-05
8.16413e-07
-1.83972e-05
5.90364e-07
-1.85919e-05
3.45505e-07
-1.86572e-05
8.52661e-08
-1.85873e-05
-1.88453e-07
-1.83724e-05
-4.80322e-07
-1.80039e-05
-7.87269e-07
-1.74737e-05
-1.11043e-06
-1.67747e-05
-1.44824e-06
-1.59001e-05
-1.79955e-06
-1.48421e-05
-2.16705e-06
-1.35957e-05
-2.54587e-06
-1.21527e-05
-2.93869e-06
-1.05082e-05
-3.34306e-06
-8.65545e-06
-3.76078e-06
-6.58767e-06
-4.19113e-06
-4.29829e-06
-4.63451e-06
-1.78114e-06
-5.08984e-06
9.70015e-07
-5.55737e-06
3.96141e-06
-6.0372e-06
7.19636e-06
-6.5299e-06
1.0686e-05
-7.03353e-06
1.4433e-05
-7.54888e-06
1.84441e-05
-8.07657e-06
2.27248e-05
-8.61488e-06
2.72795e-05
-9.16417e-06
3.2111e-05
-9.72497e-06
3.72336e-05
-1.02953e-05
4.26531e-05
-1.08798e-05
4.83507e-05
-1.14631e-05
5.43564e-05
-1.20689e-05
6.06674e-05
-1.26837e-05
6.7293e-05
-1.33046e-05
7.42344e-05
-1.3936e-05
8.14948e-05
-1.45763e-05
8.90821e-05
-1.52265e-05
9.69987e-05
-1.58871e-05
0.000105248
-1.6551e-05
0.000113835
-1.72264e-05
0.000122759
-1.791e-05
0.000132036
-1.85997e-05
0.000141661
-1.92966e-05
0.000151637
-2.0002e-05
0.000161966
-2.07143e-05
0.000172653
-2.14304e-05
0.000183706
-2.21535e-05
0.000195123
-2.2882e-05
0.000206905
-2.3617e-05
0.000219058
-2.43573e-05
0.000231586
-2.51004e-05
0.000244488
-2.58479e-05
0.000257768
-2.66016e-05
0.000271421
-2.73595e-05
0.00028546
-2.81172e-05
0.000299876
-2.88813e-05
0.000314679
-2.9646e-05
0.000329863
-3.04156e-05
0.000345436
-3.11841e-05
0.000361398
-3.19637e-05
0.00037774
-3.27286e-05
0.000394473
-3.35031e-05
0.000411596
-3.42828e-05
0.000429108
-3.50602e-05
0.000447005
-3.58336e-05
0.00046529
-3.66086e-05
0.000483963
-3.73813e-05
0.000503022
-3.81529e-05
0.000522468
-3.89245e-05
0.000542299
-3.96931e-05
0.000562521
-4.04637e-05
0.000583141
-4.12341e-05
0.000604093
-4.19677e-05
0.000625441
-4.27329e-05
0.000647172
-4.3489e-05
0.000669279
-4.42396e-05
0.000691758
-4.49865e-05
0.000714608
-4.57236e-05
0.000737825
-4.64561e-05
0.000761406
-4.71832e-05
0.000785345
-4.7903e-05
0.000809653
-4.8629e-05
0.000834308
-4.93302e-05
0.000859313
-5.00294e-05
0.000884665
-5.0722e-05
0.000910365
-5.14129e-05
0.000936399
-5.20814e-05
0.000962767
-5.27486e-05
0.000989464
-5.34064e-05
0.00101649
-5.40559e-05
0.00104383
-5.46988e-05
0.00107149
-5.53212e-05
0.00109946
-5.59435e-05
0.00112773
-5.65459e-05
0.00115629
-5.71358e-05
0.00118514
-5.77092e-05
0.00121429
-5.83038e-05
0.00124372
-5.88549e-05
0.00127342
-5.93979e-05
0.00130338
-5.99291e-05
0.0013336
-6.04449e-05
0.00136408
-6.0947e-05
0.0013948
-6.14349e-05
0.00142575
-6.19089e-05
0.00145694
-6.23642e-05
0.00148835
-6.28077e-05
0.00151996
-6.32277e-05
0.00155178
-6.36394e-05
0.0015838
-6.40321e-05
0.00161601
-6.44067e-05
0.0016484
-6.47664e-05
0.00168094
-6.50945e-05
0.00171365
-6.54175e-05
0.00174652
-6.57163e-05
0.00177951
-6.59888e-05
0.00181266
-6.62777e-05
0.00184594
-6.65188e-05
0.00187932
-6.6738e-05
0.00191276
-6.6908e-05
0.00194631
-6.70967e-05
0.00197995
-6.72544e-05
0.00201365
-6.73955e-05
0.00204741
-6.75052e-05
0.00208121
-6.75917e-05
0.00211505
-6.76558e-05
0.00214891
-6.76991e-05
0.00218277
-6.77139e-05
0.00221663
-6.77058e-05
0.00225048
-6.76752e-05
0.00228429
-6.76108e-05
0.00231807
-6.75334e-05
0.00235179
-6.74127e-05
0.00238544
-6.72849e-05
0.00241901
-6.71139e-05
0.00245248
-6.69209e-05
0.00248584
-6.66964e-05
0.00251908
-6.64468e-05
0.00255217
-6.61669e-05
0.00258512
-6.58632e-05
0.00261789
-6.55158e-05
0.00265049
-6.515e-05
0.00268288
-6.47467e-05
0.00271506
-6.43192e-05
0.00274699
-6.3845e-05
0.00277868
-6.33508e-05
0.00281011
-6.2824e-05
0.00284126
-6.22604e-05
0.00287211
-6.16685e-05
0.00290264
-6.10326e-05
0.00293285
-6.03691e-05
0.0029627
-5.96694e-05
0.00299219
-5.89334e-05
0.0030213
-5.81631e-05
0.00304999
-5.73524e-05
0.00307827
-5.6505e-05
0.00310611
-5.56282e-05
0.00313348
-5.47005e-05
0.00316038
-5.37415e-05
0.00318678
-5.27437e-05
0.00321265
-5.1703e-05
0.00323799
-5.06221e-05
0.00326279
-4.95259e-05
0.003287
-4.83542e-05
0.0033106
-4.71488e-05
0.00333359
-4.59072e-05
0.00335594
-4.46285e-05
0.0033776
-4.32777e-05
0.00339858
-4.19177e-05
0.00341887
-4.05115e-05
0.00343843
-3.90532e-05
0.00345724
-3.75522e-05
0.00347527
-3.60067e-05
0.00349251
-3.44156e-05
0.00350895
-3.27855e-05
0.00352453
-3.10969e-05
0.00353925
-2.93687e-05