/*--------------------------------*- C++ -*----------------------------------*\
| =========                 |                                                 |
| \\      /  F ield         | OpenFOAM: The Open Source CFD Toolbox           |
|  \\    /   O peration     | Version:  2412                                  |
|   \\  /    A nd           | Website:  www.openfoam.com                      |
|    \\/     M anipulation  |                                                 |
\*---------------------------------------------------------------------------*/
FoamFile
{
    version     2.0;
    format      ascii;
    arch        "LSB;label=32;scalar=64";
    class       volScalarField;
    location    "6.35";
    object      p;
}
// * * * * * * * * * * * * * * * * * * * * * * * * * * * * * * * * * * * * * //

dimensions      [1 -1 -2 0 0 0 0];

internalField   nonuniform List<scalar> 
6400
(
7628.95
7628.83
7628.5
7627.93
7627.13
7626.09
7624.86
7623.43
7621.85
7620.12
7618.27
7616.3
7614.22
7612.02
7609.71
7607.27
7604.7
7601.98
7599.1
7596.04
7592.79
7589.36
7585.73
7581.91
7577.91
7573.77
7569.5
7565.14
7560.75
7556.38
7552.1
7547.97
7544.06
7540.44
7537.19
7534.37
7532.03
7530.23
7529
7528.37
7528.35
7528.95
7530.14
7531.9
7534.2
7536.98
7540.19
7543.75
7547.59
7551.66
7555.87
7560.16
7564.42
7568.68
7572.84
7576.87
7580.74
7584.43
7587.93
7591.24
7594.35
7597.28
7600.04
7602.65
7605.11
7607.45
7609.68
7611.81
7613.83
7615.75
7617.57
7619.27
7620.84
7622.25
7623.48
7624.51
7625.31
7625.88
7626.21
7626.32
7242.06
7241.94
7241.61
7241.03
7240.22
7239.18
7237.94
7236.51
7234.92
7233.2
7231.35
7229.39
7227.32
7225.14
7222.85
7220.43
7217.88
7215.19
7212.33
7209.28
7206.05
7202.62
7198.99
7195.16
7191.14
7186.96
7182.65
7178.24
7173.78
7169.34
7164.98
7160.76
7156.77
7153.07
7149.74
7146.85
7144.45
7142.6
7141.34
7140.7
7140.68
7141.29
7142.51
7144.33
7146.68
7149.53
7152.81
7156.46
7160.39
7164.54
7168.83
7173.19
7177.54
7181.83
7186.04
7190.1
7194
7197.7
7201.2
7204.49
7207.59
7210.5
7213.24
7215.82
7218.26
7220.58
7222.79
7224.9
7226.91
7228.82
7230.64
7232.33
7233.9
7235.32
7236.56
7237.59
7238.4
7238.98
7239.3
7239.42
6855.35
6855.23
6854.89
6854.31
6853.48
6852.42
6851.15
6849.71
6848.1
6846.37
6844.52
6842.57
6840.52
6838.37
6836.11
6833.73
6831.22
6828.56
6825.73
6822.72
6819.51
6816.09
6812.45
6808.6
6804.54
6800.29
6795.9
6791.39
6786.81
6782.23
6777.72
6773.35
6769.2
6765.34
6761.86
6758.84
6756.32
6754.38
6753.06
6752.38
6752.36
6753.01
6754.3
6756.2
6758.67
6761.65
6765.08
6768.89
6772.98
6777.29
6781.73
6786.23
6790.71
6795.09
6799.39
6803.51
6807.45
6811.17
6814.67
6817.95
6821.02
6823.9
6826.6
6829.14
6831.54
6833.82
6835.99
6838.07
6840.07
6841.97
6843.79
6845.5
6847.08
6848.52
6849.79
6850.84
6851.67
6852.25
6852.59
6852.7
6468.85
6468.73
6468.39
6467.79
6466.92
6465.83
6464.52
6463.03
6461.4
6459.64
6457.79
6455.84
6453.81
6451.69
6449.47
6447.14
6444.68
6442.08
6439.3
6436.33
6433.16
6429.75
6426.1
6422.22
6418.1
6413.77
6409.25
6404.59
6399.84
6395.06
6390.32
6385.72
6381.33
6377.24
6373.54
6370.31
6367.62
6365.55
6364.13
6363.4
6363.38
6364.07
6365.46
6367.5
6370.14
6373.33
6376.99
6381.03
6385.36
6389.91
6394.57
6399.27
6403.93
6408.48
6412.89
6417.1
6421.08
6424.83
6428.33
6431.6
6434.63
6437.46
6440.1
6442.58
6444.92
6447.15
6449.28
6451.33
6453.3
6455.21
6457.03
6458.76
6460.39
6461.87
6463.18
6464.28
6465.14
6465.74
6466.08
6466.19
6082.57
6082.45
6082.1
6081.46
6080.55
6079.39
6078.02
6076.47
6074.79
6073
6071.13
6069.19
6067.18
6065.09
6062.93
6060.66
6058.28
6055.75
6053.04
6050.14
6047
6043.62
6039.97
6036.05
6031.86
6027.41
6022.73
6017.87
6012.88
6007.83
6002.8
5997.87
5993.16
5988.75
5984.74
5981.23
5978.31
5976.04
5974.49
5973.7
5973.68
5974.44
5975.95
5978.18
5981.07
5984.54
5988.5
5992.87
5997.54
6002.4
6007.37
6012.34
6017.24
6022
6026.56
6030.88
6034.94
6038.72
6042.22
6045.45
6048.43
6051.18
6053.74
6056.14
6058.41
6060.56
6062.64
6064.65
6066.6
6068.5
6070.34
6072.12
6073.79
6075.34
6076.72
6077.89
6078.8
6079.44
6079.79
6079.9
5696.51
5696.4
5696.02
5695.33
5694.35
5693.1
5691.64
5690
5688.25
5686.42
5684.52
5682.58
5680.6
5678.57
5676.47
5674.29
5672
5669.57
5666.96
5664.14
5661.08
5657.74
5654.09
5650.13
5645.85
5641.25
5636.38
5631.27
5625.97
5620.57
5615.15
5609.82
5604.68
5599.85
5595.44
5591.57
5588.33
5585.81
5584.09
5583.21
5583.19
5584.03
5585.72
5588.2
5591.4
5595.24
5599.61
5604.4
5609.5
5614.79
5620.15
5625.48
5630.68
5635.7
5640.46
5644.92
5649.06
5652.87
5656.35
5659.53
5662.42
5665.08
5667.53
5669.82
5671.98
5674.05
5676.05
5678.01
5679.93
5681.83
5683.7
5685.53
5687.28
5688.93
5690.41
5691.67
5692.66
5693.34
5693.72
5693.83
5310.68
5310.57
5310.16
5309.41
5308.33
5306.95
5305.35
5303.6
5301.76
5299.86
5297.94
5296.01
5294.06
5292.09
5290.08
5288.02
5285.85
5283.55
5281.07
5278.37
5275.4
5272.12
5268.49
5264.49
5260.11
5255.35
5250.24
5244.82
5239.15
5233.31
5227.4
5221.55
5215.87
5210.51
5205.59
5201.25
5197.61
5194.78
5192.83
5191.84
5191.82
5192.77
5194.68
5197.48
5201.09
5205.4
5210.28
5215.62
5221.26
5227.08
5232.93
5238.71
5244.3
5249.62
5254.62
5259.24
5263.47
5267.3
5270.76
5273.85
5276.64
5279.16
5281.47
5283.61
5285.64
5287.58
5289.49
5291.38
5293.27
5295.17
5297.08
5298.98
5300.83
5302.6
5304.22
5305.62
5306.72
5307.47
5307.87
5307.98
4925.08
4924.98
4924.54
4923.69
4922.46
4920.9
4919.13
4917.23
4915.27
4913.3
4911.35
4909.42
4907.52
4905.63
4903.74
4901.81
4899.81
4897.68
4895.37
4892.83
4890
4886.81
4883.22
4879.2
4874.72
4869.77
4864.38
4858.59
4852.46
4846.09
4839.58
4833.09
4826.74
4820.71
4815.15
4810.22
4806.08
4802.84
4800.62
4799.47
4799.45
4800.55
4802.74
4805.94
4810.05
4814.96
4820.49
4826.51
4832.83
4839.3
4845.77
4852.09
4858.14
4863.84
4869.11
4873.92
4878.24
4882.08
4885.48
4888.46
4891.09
4893.43
4895.55
4897.5
4899.35
4901.14
4902.93
4904.74
4906.58
4908.48
4910.43
4912.41
4914.39
4916.33
4918.14
4919.73
4920.98
4921.84
4922.28
4922.37
4539.73
4539.67
4539.17
4538.17
4536.71
4534.91
4532.91
4530.83
4528.74
4526.69
4524.7
4522.78
4520.94
4519.15
4517.4
4515.65
4513.86
4511.95
4509.87
4507.54
4504.89
4501.84
4498.33
4494.31
4489.72
4484.57
4478.86
4472.63
4465.96
4458.95
4451.72
4444.43
4437.26
4430.41
4424.05
4418.39
4413.61
4409.87
4407.29
4405.97
4405.95
4407.22
4409.76
4413.46
4418.21
4423.86
4430.2
4437.06
4444.22
4451.5
4458.71
4465.68
4472.29
4478.43
4484.02
4489.02
4493.43
4497.26
4500.56
4503.37
4505.79
4507.89
4509.75
4511.46
4513.08
4514.69
4516.32
4518.02
4519.82
4521.71
4523.7
4525.78
4527.91
4530.04
4532.1
4533.95
4535.44
4536.45
4536.96
4537
4154.65
4154.66
4154.04
4152.77
4150.97
4148.84
4146.58
4144.32
4142.1
4139.96
4137.93
4136.04
4134.27
4132.61
4131.04
4129.51
4127.97
4126.35
4124.56
4122.52
4120.12
4117.27
4113.89
4109.89
4105.22
4099.84
4093.78
4087.05
4079.74
4071.96
4063.85
4055.6
4047.43
4039.55
4032.21
4025.64
4020.08
4015.7
4012.69
4011.14
4011.11
4012.61
4015.58
4019.91
4025.46
4032.02
4039.37
4047.26
4055.45
4063.71
4071.82
4079.58
4086.85
4093.49
4099.43
4104.65
4109.12
4112.9
4116.04
4118.62
4120.75
4122.53
4124.07
4125.46
4126.8
4128.17
4129.62
4131.19
4132.91
4134.8
4136.84
4139.02
4141.3
4143.63
4145.96
4148.16
4150.01
4151.31
4151.93
4151.9
3769.86
3769.93
3769.03
3767.24
3764.91
3762.42
3759.98
3757.6
3755.28
3753.07
3751.01
3749.14
3747.45
3745.95
3744.59
3743.34
3742.12
3740.86
3739.44
3737.77
3735.71
3733.14
3729.95
3726.03
3721.3
3715.7
3709.24
3701.94
3693.88
3685.18
3676.03
3666.62
3657.21
3648.08
3639.53
3631.84
3625.29
3620.13
3616.56
3614.73
3614.69
3616.47
3619.99
3625.11
3631.65
3639.35
3647.94
3657.1
3666.56
3676.01
3685.19
3693.89
3701.92
3709.14
3715.47
3720.89
3725.41
3729.07
3731.97
3734.23
3735.97
3737.33
3738.45
3739.45
3740.45
3741.52
3742.75
3744.17
3745.82
3747.69
3749.78
3752.05
3754.44
3756.91
3759.44
3762.02
3764.43
3766.28
3767.2
3767.1
3385.48
3385.41
3383.91
3381.25
3378.26
3375.48
3372.99
3370.62
3368.27
3365.98
3363.88
3362.02
3360.42
3359.09
3357.99
3357.07
3356.25
3355.43
3354.49
3353.3
3351.69
3349.51
3346.61
3342.84
3338.08
3332.27
3325.39
3317.44
3308.5
3298.73
3288.31
3277.5
3266.6
3255.93
3245.87
3236.78
3229.01
3222.87
3218.61
3216.41
3216.38
3218.5
3222.71
3228.82
3236.59
3245.71
3255.83
3266.58
3277.57
3288.47
3298.95
3308.75
3317.67
3325.54
3332.29
3337.9
3342.39
3345.85
3348.41
3350.21
3351.44
3352.26
3352.86
3353.37
3353.94
3354.67
3355.63
3356.89
3358.45
3360.33
3362.49
3364.85
3367.3
3369.77
3372.36
3375.27
3378.38
3381.12
3382.65
3382.7
3001.68
3001.12
2998.7
2995.01
2991.34
2988.32
2985.86
2983.52
2981.11
2978.71
2976.51
2974.62
2973.1
2971.96
2971.16
2970.63
2970.29
2970.02
2969.68
2969.1
2968.09
2966.44
2963.95
2960.43
2955.73
2949.73
2942.39
2933.71
2923.77
2912.72
2900.8
2888.29
2875.56
2863.01
2851.09
2840.26
2830.95
2823.56
2818.42
2815.77
2815.72
2818.28
2823.35
2830.71
2840.04
2850.93
2862.96
2875.65
2888.54
2901.19
2913.23
2924.34
2934.29
2942.89
2950.07
2955.83
2960.21
2963.35
2965.41
2966.6
2967.15
2967.29
2967.22
2967.13
2967.18
2967.5
2968.16
2969.24
2970.76
2972.69
2974.97
2977.48
2980.02
2982.49
2985.1
2988.28
2992.09
2995.87
2998.32
2998.87
2618.79
2617.44
2614.04
2609.46
2605.2
2601.84
2599.15
2596.58
2593.91
2591.25
2588.83
2586.85
2585.37
2584.42
2583.95
2583.89
2584.13
2584.54
2584.94
2585.15
2584.92
2583.98
2582.08
2578.96
2574.41
2568.26
2560.46
2550.97
2539.88
2527.34
2513.62
2499.07
2484.11
2469.24
2455
2441.97
2430.72
2421.75
2415.48
2412.23
2412.16
2415.27
2421.44
2430.37
2441.65
2454.77
2469.18
2484.28
2499.48
2514.28
2528.2
2540.87
2552
2561.42
2569.04
2574.89
2579.05
2581.69
2583.06
2583.43
2583.09
2582.35
2581.45
2580.62
2580.05
2579.88
2580.22
2581.12
2582.62
2584.69
2587.23
2590.06
2592.91
2595.67
2598.58
2602.15
2606.56
2611.2
2614.58
2615.9
2237.16
2235.08
2230.88
2225.59
2220.67
2216.61
2213.2
2209.94
2206.66
2203.5
2200.72
2198.53
2197.06
2196.32
2196.23
2196.72
2197.65
2198.87
2200.2
2201.41
2202.19
2202.21
2201.13
2198.6
2194.35
2188.11
2179.87
2169.5
2157.09
2142.8
2126.94
2109.92
2092.24
2074.48
2057.36
2041.57
2027.85
2016.85
2009.12
2005.1
2004.99
2008.81
2016.37
2027.3
2041.05
2056.97
2074.33
2092.41
2110.47
2127.86
2144.04
2158.57
2171.09
2181.42
2189.48
2195.33
2199.1
2201.04
2201.46
2200.73
2199.25
2197.38
2195.45
2193.73
2192.41
2191.67
2191.63
2192.38
2193.91
2196.22
2199.19
2202.59
2206.12
2209.65
2213.34
2217.62
2222.7
2228.01
2232.11
2234.14
1857.14
1854.64
1849.73
1843.65
1837.75
1832.51
1827.85
1823.41
1819.16
1815.24
1811.93
1809.47
1807.98
1807.48
1807.86
1809
1810.74
1812.95
1815.41
1817.85
1819.94
1821.24
1821.27
1819.58
1815.79
1809.62
1800.93
1789.61
1775.67
1759.31
1740.88
1720.87
1699.88
1678.59
1657.87
1638.62
1621.76
1608.19
1598.65
1593.67
1593.5
1598.17
1607.47
1620.93
1637.8
1657.22
1678.26
1700
1721.52
1742.07
1760.99
1777.73
1791.89
1803.23
1811.73
1817.47
1820.67
1821.62
1820.76
1818.58
1815.62
1812.35
1809.16
1806.34
1804.13
1802.72
1802.24
1802.77
1804.39
1807.06
1810.63
1814.87
1819.46
1824.24
1829.26
1834.69
1840.74
1846.85
1851.51
1853.97
1478.9
1476.09
1470.56
1463.51
1456.18
1449.21
1442.75
1436.69
1431.1
1426.19
1422.24
1419.48
1418.04
1417.88
1418.84
1420.76
1423.46
1426.8
1430.61
1434.58
1438.32
1441.25
1442.72
1442.12
1438.95
1432.92
1423.8
1411.44
1395.78
1376.97
1355.43
1331.82
1306.85
1281.28
1256.03
1232.4
1211.61
1194.77
1182.88
1176.65
1176.38
1182.15
1193.69
1210.34
1231.13
1254.96
1280.64
1306.89
1332.61
1356.96
1379.21
1398.61
1414.65
1427.11
1436.03
1441.58
1443.99
1443.65
1441.12
1437.1
1432.29
1427.29
1422.56
1418.44
1415.17
1412.96
1411.97
1412.25
1413.92
1416.99
1421.31
1426.64
1432.68
1439.14
1445.99
1453.19
1460.6
1467.58
1472.92
1475.64
1102.43
1099.18
1092.88
1084.63
1075.54
1066.39
1057.62
1049.46
1042.17
1036.03
1031.33
1028.28
1027
1027.41
1029.2
1032.11
1035.86
1040.5
1045.86
1051.69
1057.51
1062.59
1065.95
1066.73
1064.37
1058.52
1048.94
1035.38
1017.6
995.672
970.235
942.265
912.608
881.871
850.996
821.662
795.411
773.808
758.351
750.162
749.729
757.172
772.115
793.479
819.705
849.214
880.659
912.495
943.251
972.221
998.65
1021.47
1039.85
1053.59
1062.95
1068.2
1069.62
1067.62
1062.9
1056.47
1049.31
1042.21
1035.67
1030.05
1025.57
1022.4
1020.74
1020.6
1022.23
1025.74
1030.97
1037.67
1045.53
1054.2
1063.37
1072.72
1081.82
1089.94
1096.03
1099.15
728.501
724.477
717.016
707.12
695.783
683.902
672.188
661.298
651.834
644.193
638.652
635.382
634.488
635.637
638.334
642.531
647.736
653.896
661.101
669.255
677.807
685.77
691.722
694.289
692.843
687.16
677.072
662.232
642.024
616.207
585.629
552.057
517.04
479.907
441.11
404.124
371.973
346.419
328.647
319.461
318.79
326.9
344.013
369.249
401.221
438.175
477.609
516.643
553.11
587.986
620.047
647.305
668.429
683.515
693.328
698.273
698.489
694.26
686.567
676.937
666.782
657.076
648.339
640.933
635.003
630.657
628.058
627.417
628.848
632.804
639.086
647.508
657.727
669.246
681.406
693.486
704.727
714.328
721.471
725.305
360.324
355.15
346.375
335.032
322.084
308.275
294.441
281.78
271.318
263.325
257.785
254.524
253.547
254.665
257.847
262.86
268.77
276.006
284.653
294.51
304.759
314.728
322.691
326.554
325.789
320.817
311.616
297.967
278.957
254.077
224.385
192.336
160.988
132.515
107.007
86.6213
70.3231
58.2424
50.4332
46.7407
46.4113
49.6008
57.0574
68.8814
84.837
104.812
130.309
159.723
192.284
225.917
258.094
285.265
305.549
319.509
328.56
332.811
332.084
326.218
316.147
304.231
292.056
280.543
270.448
261.929
255.101
250.166
247.203
246.642
248.381
252.526
258.905
267.771
279.103
292.501
306.855
320.837
333.544
344.463
352.777
357.662
88.4075
84.6161
79.2667
72.5299
65.0618
57.3602
49.9552
43.5744
38.6634
35.0616
32.6226
31.0809
30.2988
30.0967
31.006
33.1598
36.4271
40.2955
44.9463
50.3905
56.0361
61.7661
66.523
68.7772
68.3527
65.8772
61.3816
55.0851
46.5158
35.4101
22.5405
9.63385
-0.593469
-6.48069
-8.44999
-8.81523
-8.81502
-8.64641
-8.45647
-8.31738
-8.24902
-8.2758
-8.37315
-8.477
-8.52529
-8.36004
-6.82158
-1.01076
9.05743
22.6529
37.3229
50.2035
59.5222
65.7758
70.1842
72.2511
71.7474
68.0996
61.9596
55.3044
48.8439
42.9112
37.9105
33.6917
29.9791
27.7904
26.7693
27.1237
28.3336
30.3815
33.1805
37.1403
42.4898
49.3038
57.0846
64.9814
72.2488
78.7473
83.8712
87.3844
-9.75943
-9.78473
-9.88619
-9.98044
-10.0009
-9.97091
-9.90235
-9.81803
-9.73438
-9.67384
-9.66633
-9.65565
-9.6114
-9.58284
-9.67272
-9.77464
-9.78718
-9.67551
-9.47172
-9.15869
-8.67416
-8.22385
-8.07323
-8.00588
-8.08455
-8.4046
-8.88195
-9.36078
-9.73148
-9.82142
-9.85516
-9.9012
-9.77392
-9.49908
-9.33157
-9.42257
-9.38324
-9.21114
-9.01006
-8.87078
-8.80988
-8.82972
-8.90654
-9.00252
-9.10302
-9.21004
-9.4644
-9.60906
-9.61231
-9.56709
-9.54417
-9.45566
-9.27759
-9.03559
-8.83561
-8.81815
-8.99621
-9.24617
-9.40823
-9.48784
-9.53822
-9.55177
-9.53736
-9.5201
-9.5149
-9.52561
-9.54834
-9.58644
-9.62502
-9.66216
-9.68472
-9.73048
-9.80402
-9.88446
-9.93543
-9.93009
-9.906
-9.87164
-9.83713
-9.80925
-10.3482
-10.3656
-10.3961
-10.4357
-10.4383
-10.4117
-10.379
-10.3492
-10.2901
-10.2004
-10.1692
-10.1739
-10.1606
-10.151
-10.2096
-10.2716
-10.2698
-10.2382
-10.1612
-9.94726
-9.55418
-9.18543
-9.05372
-9.06444
-9.19745
-9.46398
-9.83559
-10.2213
-10.5041
-10.6067
-10.5216
-10.4082
-10.3005
-10.1278
-9.96625
-9.93921
-9.85785
-9.67855
-9.50032
-9.38974
-9.34812
-9.36635
-9.44481
-9.54231
-9.63442
-9.75018
-9.93663
-10.0707
-10.1131
-10.1737
-10.2473
-10.2411
-10.174
-10.0979
-10.0437
-10.0538
-10.1163
-10.1669
-10.1514
-10.1397
-10.1397
-10.1306
-10.1067
-10.0767
-10.055
-10.0487
-10.0612
-10.0872
-10.1218
-10.1605
-10.1991
-10.2483
-10.3024
-10.3435
-10.3633
-10.3646
-10.3577
-10.3456
-10.341
-10.3327
-10.9354
-10.9333
-10.9173
-10.9172
-10.9336
-10.9392
-10.9323
-10.9175
-10.8682
-10.7548
-10.707
-10.7174
-10.7126
-10.7103
-10.7529
-10.8181
-10.8492
-10.8442
-10.802
-10.6408
-10.3248
-9.93488
-9.69961
-9.70844
-9.84468
-10.0741
-10.3768
-10.6977
-10.9465
-11.104
-11.1533
-11.0104
-10.8566
-10.7365
-10.6149
-10.5022
-10.3421
-10.1658
-10.021
-9.92055
-9.88597
-9.91487
-9.99501
-10.0892
-10.1526
-10.2218
-10.3567
-10.5064
-10.5973
-10.6488
-10.6889
-10.6905
-10.6524
-10.6064
-10.5904
-10.6083
-10.6428
-10.6612
-10.6418
-10.6379
-10.6505
-10.6518
-10.6301
-10.5961
-10.567
-10.5577
-10.5708
-10.6032
-10.6495
-10.6985
-10.7481
-10.7864
-10.8219
-10.8556
-10.8684
-10.8648
-10.8506
-10.8447
-10.8582
-10.8659
-11.5272
-11.5098
-11.4796
-11.4793
-11.5043
-11.524
-11.5098
-11.4677
-11.4053
-11.3144
-11.2305
-11.2247
-11.2168
-11.2183
-11.274
-11.38
-11.4907
-11.5463
-11.5102
-11.3806
-11.1365
-10.8257
-10.5471
-10.5059
-10.617
-10.8059
-11.0385
-11.2846
-11.5118
-11.6989
-11.7792
-11.6668
-11.4811
-11.3617
-11.2765
-11.1702
-10.9892
-10.7828
-10.6214
-10.5208
-10.4928
-10.5229
-10.5826
-10.6654
-10.7088
-10.742
-10.858
-11.0287
-11.1761
-11.2333
-11.2349
-11.2163
-11.1899
-11.165
-11.1644
-11.1652
-11.1551
-11.1292
-11.1173
-11.1358
-11.1698
-11.1798
-11.1531
-11.1059
-11.0652
-11.0519
-11.07
-11.1062
-11.1521
-11.2163
-11.2777
-11.317
-11.3572
-11.4115
-11.4562
-11.4573
-11.4303
-11.4046
-11.3917
-11.4086
-12.0648
-12.0591
-12.0722
-12.1063
-12.143
-12.1592
-12.141
-12.0779
-11.9914
-11.8942
-11.793
-11.7511
-11.735
-11.7418
-11.8339
-12.0083
-12.1684
-12.2342
-12.2035
-12.0833
-11.868
-11.588
-11.3676
-11.3235
-11.4055
-11.5543
-11.7368
-11.9293
-12.1106
-12.2465
-12.3046
-12.2676
-12.1397
-12.0346
-11.9554
-11.8363
-11.6549
-11.4448
-11.2871
-11.1968
-11.1601
-11.1714
-11.206
-11.2707
-11.31
-11.3584
-11.4337
-11.5923
-11.7524
-11.8209
-11.8124
-11.7868
-11.7599
-11.7284
-11.7025
-11.6751
-11.6263
-11.5757
-11.5787
-11.6245
-11.6845
-11.7085
-11.6929
-11.6466
-11.5935
-11.5673
-11.5877
-11.6397
-11.697
-11.756
-11.8109
-11.8573
-11.9054
-11.9633
-12.0341
-12.0767
-12.0537
-12.009
-11.966
-11.9735
-12.5836
-12.6121
-12.6676
-12.7315
-12.7884
-12.8183
-12.7977
-12.7332
-12.6259
-12.4998
-12.3828
-12.3173
-12.2948
-12.3198
-12.4521
-12.6673
-12.8308
-12.913
-12.8923
-12.7632
-12.5559
-12.3088
-12.1467
-12.1099
-12.1759
-12.3043
-12.4682
-12.6406
-12.7858
-12.8688
-12.8809
-12.8491
-12.7694
-12.6871
-12.6173
-12.4945
-12.3171
-12.1223
-11.9786
-11.8911
-11.8418
-11.8346
-11.8494
-11.9058
-11.9499
-12.0041
-12.0632
-12.1717
-12.2813
-12.3584
-12.3599
-12.3333
-12.2935
-12.2343
-12.1629
-12.1004
-12.04
-11.9892
-12.0044
-12.0801
-12.1664
-12.2301
-12.2498
-12.221
-12.1705
-12.1391
-12.1527
-12.2034
-12.2593
-12.3143
-12.3664
-12.4124
-12.4567
-12.5079
-12.5756
-12.6307
-12.639
-12.6046
-12.5368
-12.4944
-13.1193
-13.1796
-13.2437
-13.3063
-13.3607
-13.3891
-13.3781
-13.3445
-13.2648
-13.1279
-13.0007
-12.9287
-12.8945
-12.9387
-13.0935
-13.3065
-13.4678
-13.5544
-13.5258
-13.3926
-13.1972
-13.0166
-12.9132
-12.9041
-12.9789
-13.1101
-13.2677
-13.4175
-13.5268
-13.5667
-13.5392
-13.4658
-13.4022
-13.3398
-13.2832
-13.1632
-12.9759
-12.7881
-12.6509
-12.5623
-12.5089
-12.4918
-12.4969
-12.5395
-12.5864
-12.6201
-12.6709
-12.7115
-12.7657
-12.8291
-12.8413
-12.8187
-12.7714
-12.7094
-12.6296
-12.5531
-12.4949
-12.4466
-12.4523
-12.5179
-12.6164
-12.7116
-12.7698
-12.7787
-12.761
-12.7553
-12.7709
-12.8031
-12.8505
-12.9003
-12.9448
-12.9819
-13.015
-13.0491
-13.0859
-13.1184
-13.1364
-13.1198
-13.0495
-12.984
-13.6619
-13.7471
-13.8065
-13.8603
-13.9021
-13.9192
-13.9166
-13.9119
-13.8598
-13.7392
-13.6338
-13.555
-13.5164
-13.5617
-13.7061
-13.8933
-14.0586
-14.1269
-14.0973
-13.9651
-13.8142
-13.7039
-13.6598
-13.6904
-13.7863
-13.9311
-14.0911
-14.2232
-14.2929
-14.2926
-14.2252
-14.1133
-14.0281
-13.9899
-13.9484
-13.8168
-13.6092
-13.4216
-13.287
-13.1991
-13.1459
-13.1245
-13.1253
-13.1562
-13.211
-13.2157
-13.2174
-13.2074
-13.2365
-13.2664
-13.2709
-13.2477
-13.2043
-13.1531
-13.0955
-13.0357
-12.9906
-12.9565
-12.9389
-12.9641
-13.0367
-13.1305
-13.2162
-13.2825
-13.3323
-13.3688
-13.395
-13.4224
-13.4667
-13.5132
-13.5476
-13.5697
-13.5834
-13.5917
-13.5959
-13.5948
-13.5831
-13.562
-13.5205
-13.4615
-14.2073
-14.3034
-14.3535
-14.4047
-14.4475
-14.4663
-14.4812
-14.497
-14.4608
-14.3582
-14.2694
-14.1757
-14.1217
-14.1431
-14.2564
-14.4306
-14.5836
-14.6464
-14.5966
-14.4949
-14.4085
-14.3626
-14.3732
-14.4387
-14.5507
-14.6999
-14.8551
-14.9671
-15.0036
-14.9757
-14.8806
-14.7408
-14.643
-14.6288
-14.5749
-14.41
-14.1956
-14.0137
-13.8837
-13.7985
-13.7464
-13.7223
-13.7211
-13.7415
-13.7929
-13.7988
-13.7721
-13.7328
-13.7199
-13.725
-13.7048
-13.6626
-13.6213
-13.5952
-13.5656
-13.5157
-13.4694
-13.4375
-13.4223
-13.4311
-13.4756
-13.5558
-13.6595
-13.7716
-13.8803
-13.9594
-14.0096
-14.0588
-14.1141
-14.1586
-14.1791
-14.1798
-14.1677
-14.1455
-14.1166
-14.0832
-14.0436
-14.0039
-13.9716
-13.939
-14.7467
-14.8289
-14.8684
-14.9245
-14.9784
-15.0096
-15.0477
-15.0861
-15.0639
-14.9715
-14.8736
-14.753
-14.6631
-14.6512
-14.7253
-14.9179
-15.0486
-15.1047
-15.0556
-15.0021
-14.9738
-14.9846
-15.0345
-15.1201
-15.2387
-15.3791
-15.5038
-15.5799
-15.5992
-15.563
-15.4612
-15.3271
-15.2573
-15.2337
-15.1312
-14.9407
-14.735
-14.5655
-14.4447
-14.3649
-14.3148
-14.2887
-14.2836
-14.2929
-14.3242
-14.3441
-14.3274
-14.2774
-14.2383
-14.2151
-14.1843
-14.137
-14.1041
-14.0918
-14.068
-14.0083
-13.9654
-13.9375
-13.9203
-13.9168
-13.9457
-14.0199
-14.1375
-14.2855
-14.4452
-14.5849
-14.6855
-14.7633
-14.831
-14.8684
-14.8622
-14.8302
-14.7823
-14.7216
-14.6554
-14.5899
-14.5257
-14.4682
-14.4277
-14.4115
-15.2492
-15.3033
-15.3462
-15.4066
-15.4704
-15.5187
-15.576
-15.6262
-15.6107
-15.5222
-15.4007
-15.2428
-15.1319
-15.0995
-15.1802
-15.3505
-15.4768
-15.5187
-15.5018
-15.4911
-15.5137
-15.5644
-15.6367
-15.7298
-15.8431
-15.9534
-16.0357
-16.0877
-16.0998
-16.0602
-15.9781
-15.8877
-15.8425
-15.7716
-15.6201
-15.4239
-15.236
-15.0861
-14.9798
-14.908
-14.8614
-14.8341
-14.8238
-14.8243
-14.836
-14.8455
-14.8392
-14.8104
-14.7617
-14.7238
-14.7074
-14.6956
-14.6647
-14.6295
-14.5892
-14.5293
-14.4858
-14.4569
-14.4311
-14.4135
-14.4367
-14.5186
-14.6687
-14.8979
-15.17
-15.4233
-15.6146
-15.7195
-15.744
-15.7059
-15.6301
-15.5463
-15.4452
-15.3314
-15.2185
-15.1164
-15.0276
-14.9539
-14.9033
-14.8852
-15.7049
-15.7418
-15.7858
-15.8493
-15.9218
-15.9844
-16.0509
-16.0997
-16.0843
-15.9946
-15.8417
-15.6711
-15.558
-15.5458
-15.6642
-15.8086
-15.9154
-15.9396
-15.9486
-15.9743
-16.0308
-16.1032
-16.1835
-16.2727
-16.3622
-16.4357
-16.4942
-16.5439
-16.5618
-16.5256
-16.4706
-16.4196
-16.3567
-16.2328
-16.059
-15.874
-15.7116
-15.5869
-15.4978
-15.4363
-15.3953
-15.3697
-15.3561
-15.3502
-15.3481
-15.3417
-15.3266
-15.3064
-15.2804
-15.2529
-15.2462
-15.2829
-15.2546
-15.1817
-15.1266
-15.0634
-15.0164
-14.9855
-14.9507
-14.9279
-14.9658
-15.0889
-15.3277
-15.7048
-16.1389
-16.5319
-16.8236
-16.9638
-16.9404
-16.7984
-16.5982
-16.3798
-16.1817
-15.9942
-15.8192
-15.6691
-15.5498
-15.4582
-15.3958
-15.3747
-16.1273
-16.1618
-16.1978
-16.2613
-16.3373
-16.4056
-16.4716
-16.5156
-16.4996
-16.4091
-16.2515
-16.0994
-16.0192
-16.0484
-16.1675
-16.2914
-16.3553
-16.3783
-16.4065
-16.4559
-16.5278
-16.6074
-16.6816
-16.7518
-16.8104
-16.861
-16.9147
-16.9616
-16.9813
-16.963
-16.9246
-16.872
-16.777
-16.629
-16.4614
-16.304
-16.1742
-16.0761
-16.0048
-15.9554
-15.9225
-15.9012
-15.8874
-15.8782
-15.868
-15.8467
-15.8152
-15.7878
-15.7786
-15.7768
-15.7915
-15.8214
-15.7992
-15.7158
-15.6493
-15.5895
-15.54
-15.502
-15.4688
-15.4694
-15.5624
-15.7452
-16.0788
-16.6009
-17.1649
-17.6601
-18.0298
-18.2285
-18.2234
-18.0465
-17.7497
-17.3747
-17.0121
-16.7216
-16.4684
-16.2557
-16.0956
-15.9808
-15.9041
-15.8761
-16.5354
-16.5664
-16.5972
-16.6598
-16.7303
-16.8008
-16.8652
-16.9099
-16.9051
-16.8341
-16.7092
-16.5938
-16.5502
-16.5904
-16.6842
-16.7635
-16.8005
-16.829
-16.8696
-16.931
-17.0028
-17.0723
-17.1346
-17.1852
-17.2239
-17.2627
-17.3038
-17.3377
-17.3507
-17.336
-17.297
-17.2283
-17.1212
-16.9873
-16.8519
-16.7318
-16.6348
-16.5611
-16.5075
-16.4706
-16.4462
-16.4296
-16.4175
-16.4086
-16.3995
-16.3741
-16.3399
-16.3134
-16.2931
-16.2798
-16.2915
-16.31
-16.2872
-16.2177
-16.1419
-16.0856
-16.0451
-16.0084
-15.9862
-16.0473
-16.1926
-16.4089
-16.8138
-17.4311
-18.0709
-18.6293
-19.0517
-19.2835
-19.3085
-19.151
-18.8305
-18.3973
-17.9141
-17.492
-17.1544
-16.8729
-16.6641
-16.5212
-16.428
-16.3848
-16.9463
-16.9669
-17.0009
-17.0629
-17.1354
-17.2057
-17.2732
-17.3263
-17.3431
-17.3075
-17.235
-17.1616
-17.1268
-17.1527
-17.2037
-17.2417
-17.2712
-17.2965
-17.3339
-17.3935
-17.456
-17.5123
-17.5628
-17.6024
-17.6325
-17.6597
-17.6824
-17.6955
-17.6916
-17.6656
-17.6171
-17.5483
-17.457
-17.356
-17.2589
-17.1732
-17.1038
-17.0508
-17.013
-16.9873
-16.9702
-16.9584
-16.9496
-16.9458
-16.9553
-16.9598
-16.9548
-16.9345
-16.8874
-16.8346
-16.8086
-16.7998
-16.7603
-16.6823
-16.6141
-16.5649
-16.539
-16.5158
-16.5255
-16.6362
-16.7915
-17.0368
-17.5009
-18.1486
-18.8067
-19.3818
-19.8219
-20.0576
-20.1115
-19.9933
-19.7014
-19.2785
-18.7768
-18.2587
-17.8449
-17.5002
-17.2446
-17.0758
-16.9728
-16.9226
-17.3796
-17.3863
-17.4294
-17.4951
-17.5652
-17.641
-17.7209
-17.7899
-17.8296
-17.8277
-17.7919
-17.7475
-17.7228
-17.7165
-17.725
-17.7434
-17.76
-17.778
-17.8086
-17.8547
-17.905
-17.9524
-17.9934
-18.0252
-18.0491
-18.0661
-18.0743
-18.0714
-18.0538
-18.0191
-17.9675
-17.9061
-17.836
-17.7643
-17.6972
-17.6377
-17.5891
-17.5524
-17.5269
-17.5102
-17.4998
-17.4932
-17.4895
-17.4953
-17.5319
-17.597
-17.6321
-17.6116
-17.5473
-17.4576
-17.3837
-17.339
-17.2643
-17.1575
-17.0815
-17.0575
-17.0435
-17.0421
-17.0943
-17.223
-17.3789
-17.6567
-18.1412
-18.759
-19.3923
-19.9571
-20.3876
-20.63
-20.6914
-20.6008
-20.349
-19.9788
-19.5087
-18.9756
-18.5005
-18.1082
-17.8171
-17.6299
-17.5246
-17.4791
-17.8542
-17.8502
-17.9002
-17.9721
-18.0551
-18.1322
-18.2092
-18.2855
-18.3492
-18.3791
-18.3669
-18.333
-18.295
-18.2625
-18.2504
-18.2518
-18.2572
-18.2687
-18.2926
-18.3264
-18.3645
-18.4015
-18.4338
-18.4593
-18.4779
-18.4883
-18.489
-18.4785
-18.455
-18.4187
-18.3729
-18.3195
-18.2664
-18.2147
-18.167
-18.1256
-18.0918
-18.0672
-18.0513
-18.0423
-18.0381
-18.0369
-18.0387
-18.0514
-18.0962
-18.1833
-18.2372
-18.2161
-18.1438
-18.0542
-17.9754
-17.9112
-17.8105
-17.6783
-17.5969
-17.5887
-17.5834
-17.6068
-17.6895
-17.8229
-18.0009
-18.291
-18.7342
-19.2785
-19.8478
-20.3775
-20.7993
-21.0595
-21.137
-21.0606
-20.8544
-20.5273
-20.1053
-19.6093
-19.0979
-18.669
-18.3599
-18.1597
-18.0527
-18.0229
-18.3787
-18.3754
-18.4102
-18.5147
-18.6276
-18.7061
-18.7702
-18.8377
-18.9031
-18.9342
-18.9228
-18.8799
-18.8281
-18.7872
-18.7656
-18.7569
-18.7562
-18.7629
-18.7807
-18.8056
-18.8338
-18.8617
-18.8865
-18.9066
-18.9205
-18.9268
-18.9243
-18.9118
-18.8885
-18.8561
-18.8182
-18.7775
-18.7353
-18.6947
-18.6581
-18.6282
-18.6062
-18.5924
-18.5853
-18.5834
-18.5857
-18.5905
-18.5974
-18.6097
-18.6372
-18.6862
-18.7173
-18.6918
-18.6269
-18.5651
-18.5203
-18.4771
-18.3732
-18.2376
-18.1622
-18.164
-18.1673
-18.2116
-18.3141
-18.4559
-18.6531
-18.9252
-19.2949
-19.7436
-20.2167
-20.6762
-21.0812
-21.3584
-21.4662
-21.4175
-21.2408
-20.9548
-20.5815
-20.1281
-19.6152
-19.1659
-18.8569
-18.6491
-18.5392
-18.5491
-18.9476
-18.9556
-18.9345
-19.0916
-19.25
-19.3424
-19.4014
-19.4408
-19.4692
-19.469
-19.4378
-19.3861
-19.3346
-19.2926
-19.2668
-19.255
-19.2523
-19.2578
-19.2709
-19.2891
-19.3099
-19.3309
-19.35
-19.3655
-19.3758
-19.3796
-19.3758
-19.3637
-19.3432
-19.3165
-19.286
-19.2536
-19.2203
-19.1871
-19.1593
-19.1395
-19.1291
-19.127
-19.1299
-19.1347
-19.1412
-19.1503
-19.1616
-19.1714
-19.1768
-19.1762
-19.1585
-19.1169
-19.0709
-19.0403
-19.0258
-19.0088
-18.9224
-18.8083
-18.7638
-18.7717
-18.7894
-18.8502
-18.9679
-19.1322
-19.3304
-19.5688
-19.864
-20.2035
-20.5599
-20.9108
-21.2384
-21.4934
-21.64
-21.6388
-21.501
-21.2584
-20.9278
-20.4981
-19.9957
-19.5777
-19.2989
-19.1134
-19.017
-19.0656
-19.5565
-19.5554
-19.5299
-19.6564
-19.8201
-19.9412
-20.0003
-20.0152
-19.9959
-19.9591
-19.9135
-19.8684
-19.8224
-19.7831
-19.759
-19.7483
-19.7464
-19.7511
-19.7609
-19.7745
-19.7901
-19.8062
-19.821
-19.8331
-19.841
-19.8434
-19.8396
-19.8292
-19.8125
-19.791
-19.7661
-19.7396
-19.7132
-19.6861
-19.669
-19.661
-19.6642
-19.6765
-19.6931
-19.7083
-19.7176
-19.7246
-19.7338
-19.7387
-19.7277
-19.6939
-19.6393
-19.5761
-19.5454
-19.5376
-19.5315
-19.5203
-19.458
-19.3796
-19.3755
-19.3876
-19.4313
-19.5147
-19.6567
-19.8366
-20.0259
-20.2281
-20.4516
-20.6882
-20.9211
-21.1388
-21.3329
-21.4952
-21.6053
-21.626
-21.5424
-21.3498
-21.053
-20.6679
-20.2449
-19.9158
-19.6994
-19.5754
-19.5414
-19.5919
-20.167
-20.1621
-20.1686
-20.1992
-20.2957
-20.4105
-20.4681
-20.4736
-20.4417
-20.4025
-20.3662
-20.3321
-20.2969
-20.2655
-20.2467
-20.2392
-20.2385
-20.2425
-20.2501
-20.2606
-20.2728
-20.2855
-20.2974
-20.3072
-20.3136
-20.3156
-20.3126
-20.3046
-20.292
-20.275
-20.2549
-20.2335
-20.2125
-20.1971
-20.1921
-20.1989
-20.2178
-20.2465
-20.2808
-20.313
-20.3276
-20.3325
-20.3354
-20.3269
-20.295
-20.2396
-20.1669
-20.1003
-20.0812
-20.0724
-20.0591
-20.0402
-19.9885
-19.9536
-19.9722
-20.0037
-20.0781
-20.1895
-20.3561
-20.5472
-20.7288
-20.9004
-21.062
-21.2053
-21.3186
-21.4034
-21.4611
-21.4911
-21.4943
-21.4686
-21.3891
-21.236
-21.0009
-20.7169
-20.4337
-20.2269
-20.1056
-20.0637
-20.0931
-20.1103
-20.7255
-20.7278
-20.7365
-20.737
-20.7646
-20.8012
-20.839
-20.8583
-20.8564
-20.8393
-20.8178
-20.7941
-20.7681
-20.7458
-20.7332
-20.7287
-20.729
-20.7324
-20.7387
-20.7473
-20.7573
-20.7679
-20.7777
-20.786
-20.7916
-20.7938
-20.7921
-20.7869
-20.7784
-20.7657
-20.7501
-20.7338
-20.7213
-20.7193
-20.7306
-20.7554
-20.7895
-20.8365
-20.8911
-20.9443
-20.9735
-20.9853
-20.9825
-20.9588
-20.8939
-20.8127
-20.7228
-20.671
-20.6516
-20.6308
-20.5993
-20.5637
-20.5211
-20.5165
-20.5504
-20.6156
-20.7127
-20.8485
-21.0333
-21.2367
-21.4161
-21.5636
-21.6772
-21.7452
-21.7584
-21.7292
-21.6741
-21.5959
-21.508
-21.4184
-21.306
-21.1614
-20.994
-20.8251
-20.6841
-20.5985
-20.567
-20.5808
-20.6099
-20.6018
-21.232
-21.2419
-21.2465
-21.2484
-21.2443
-21.2349
-21.2519
-21.2798
-21.2949
-21.291
-21.2768
-21.2593
-21.2411
-21.2271
-21.2198
-21.2175
-21.2184
-21.2217