/*--------------------------------*- C++ -*----------------------------------*\
| =========                 |                                                 |
| \\      /  F ield         | OpenFOAM: The Open Source CFD Toolbox           |
|  \\    /   O peration     | Version:  2412                                  |
|   \\  /    A nd           | Website:  www.openfoam.com                      |
|    \\/     M anipulation  |                                                 |
\*---------------------------------------------------------------------------*/
FoamFile
{
    version     2.0;
    format      ascii;
    arch        "LSB;label=32;scalar=64";
    class       volVectorField;
    location    "9.75";
    object      U;
}
// * * * * * * * * * * * * * * * * * * * * * * * * * * * * * * * * * * * * * //

dimensions      [0 1 -1 0 0 0 0];

internalField   nonuniform List<vector> 
6400
(
(0.000937273 -0.00093721 0)
(0.00319249 -0.00106523 0)
(0.00558803 -0.00109125 0)
(0.00815249 -0.00110915 0)
(0.0107849 -0.00110171 0)
(0.0133735 -0.00106491 0)
(0.0158153 -0.00100537 0)
(0.0180289 -0.000927966 0)
(0.0199674 -0.000837641 0)
(0.0216064 -0.000736265 0)
(0.0229324 -0.00062748 0)
(0.0239476 -0.000514893 0)
(0.0246611 -0.000398521 0)
(0.0250758 -0.000276737 0)
(0.0251919 -0.000145416 0)
(0.0250187 -1.48373e-05 0)
(0.0245683 0.000113676 0)
(0.023854 0.000240931 0)
(0.0228888 0.000365452 0)
(0.0216899 0.000482496 0)
(0.0202829 0.000586909 0)
(0.0187013 0.000676241 0)
(0.0169823 0.000750888 0)
(0.0151645 0.000808654 0)
(0.0132882 0.000845871 0)
(0.0113938 0.00086496 0)
(0.0095212 0.000865664 0)
(0.00771123 0.000846994 0)
(0.00600126 0.000808498 0)
(0.00442403 0.000756391 0)
(0.00300943 0.000693633 0)
(0.00177445 0.000622045 0)
(0.000728651 0.00054472 0)
(-0.000120166 0.000463506 0)
(-0.000774365 0.000383373 0)
(-0.00124481 0.000308463 0)
(-0.00154643 0.000243774 0)
(-0.00170039 0.000186687 0)
(-0.00174149 0.000136732 0)
(-0.00170249 0.000103503 0)
(-0.00161348 8.8257e-05 0)
(-0.00151261 9.03218e-05 0)
(-0.00144159 0.000108872 0)
(-0.00143095 0.000144606 0)
(-0.00152154 0.000186951 0)
(-0.00174242 0.000244244 0)
(-0.00210813 0.00030929 0)
(-0.00264956 0.000378434 0)
(-0.0033719 0.000451477 0)
(-0.00426806 0.000522118 0)
(-0.00532832 0.000586446 0)
(-0.00654788 0.000636952 0)
(-0.00791166 0.000682472 0)
(-0.00938636 0.000715833 0)
(-0.0109447 0.000732334 0)
(-0.0125547 0.00073218 0)
(-0.0141808 0.000714483 0)
(-0.0157863 0.000678509 0)
(-0.0173332 0.000625358 0)
(-0.0187832 0.000555991 0)
(-0.0200999 0.000471013 0)
(-0.02125 0.000372477 0)
(-0.0222045 0.000263965 0)
(-0.0229388 0.000148649 0)
(-0.023434 2.90643e-05 0)
(-0.0236761 -9.28259e-05 0)
(-0.0236539 -0.000216047 0)
(-0.0233544 -0.000337094 0)
(-0.0227673 -0.000455102 0)
(-0.0218843 -0.000567369 0)
(-0.0206994 -0.000677009 0)
(-0.0192107 -0.000780261 0)
(-0.0174183 -0.000877069 0)
(-0.0153456 -0.000959007 0)
(-0.0130439 -0.00102664 0)
(-0.0105845 -0.0010672 0)
(-0.00805879 -0.00108573 0)
(-0.00556352 -0.00108537 0)
(-0.00319802 -0.00107324 0)
(-0.000946336 -0.000946351 0)
(0.00103336 -0.0031545 0)
(0.00377966 -0.00384785 0)
(0.00674211 -0.00405418 0)
(0.0100592 -0.00424397 0)
(0.0135428 -0.00426736 0)
(0.0169826 -0.00409818 0)
(0.0201852 -0.0037673 0)
(0.0230048 -0.00332546 0)
(0.0253671 -0.00282063 0)
(0.0272491 -0.00228734 0)
(0.0286428 -0.00175077 0)
(0.0295667 -0.00123393 0)
(0.0300597 -0.000736587 0)
(0.0301567 -0.000248605 0)
(0.0298696 0.000233285 0)
(0.0292157 0.000694011 0)
(0.0282317 0.00112352 0)
(0.0269508 0.00152427 0)
(0.025405 0.0018981 0)
(0.0236218 0.00223651 0)
(0.0216336 0.00252394 0)
(0.0194839 0.00275074 0)
(0.0172215 0.00291575 0)
(0.0148937 0.00301653 0)
(0.0125543 0.00305163 0)
(0.010254 0.00302087 0)
(0.00803528 0.00292814 0)
(0.00594202 0.00277186 0)
(0.00401865 0.00255838 0)
(0.00230092 0.00230075 0)
(0.000814992 0.00201074 0)
(-0.00042118 0.00169939 0)
(-0.0014005 0.00137687 0)
(-0.00212157 0.00105066 0)
(-0.00259031 0.000736235 0)
(-0.00282061 0.00044637 0)
(-0.0028389 0.000193591 0)
(-0.00267934 -1.80159e-05 0)
(-0.00237276 -0.000185691 0)
(-0.00195937 -0.000297516 0)
(-0.00148852 -0.000344642 0)
(-0.00100971 -0.000324698 0)
(-0.000575731 -0.0002406 0)
(-0.000236461 -9.74791e-05 0)
(-3.50041e-05 8.88133e-05 0)
(-4.38757e-06 0.000323501 0)
(-0.000173604 0.000594261 0)
(-0.00056639 0.000885902 0)
(-0.00119714 0.00118359 0)
(-0.0020633 0.00147748 0)
(-0.00315531 0.00175422 0)
(-0.00446621 0.00199874 0)
(-0.00597884 0.00222126 0)
(-0.0076675 0.00240623 0)
(-0.00950028 0.00253882 0)
(-0.0114395 0.00261632 0)
(-0.0134446 0.00263545 0)
(-0.015474 0.00259356 0)
(-0.0174828 0.00249059 0)
(-0.0194251 0.00232743 0)
(-0.0212571 0.00210566 0)
(-0.0229369 0.00183089 0)
(-0.0244263 0.00151108 0)
(-0.0256902 0.00115421 0)
(-0.026696 0.000766452 0)
(-0.0274131 0.000351018 0)
(-0.0278092 -8.98651e-05 0)
(-0.0278562 -0.000552063 0)
(-0.0275278 -0.00103228 0)
(-0.026794 -0.0015313 0)
(-0.025615 -0.00204681 0)
(-0.0239624 -0.00257289 0)
(-0.0218231 -0.00308109 0)
(-0.0192259 -0.00352477 0)
(-0.0162608 -0.00386702 0)
(-0.0130532 -0.004057 0)
(-0.00976814 -0.00407945 0)
(-0.00660298 -0.00395551 0)
(-0.00374818 -0.00380708 0)
(-0.00104584 -0.00316441 0)
(0.00106076 -0.00546867 0)
(0.00402281 -0.00680252 0)
(0.00738415 -0.00735242 0)
(0.0112288 -0.00783706 0)
(0.0152957 -0.00794824 0)
(0.0193126 -0.00763985 0)
(0.0230351 -0.00697758 0)
(0.0262817 -0.00607915 0)
(0.0289638 -0.00505549 0)
(0.0310699 -0.00399203 0)
(0.0326043 -0.0029398 0)
(0.0335912 -0.0019411 0)
(0.0340832 -0.00100375 0)
(0.0341288 -0.00010679 0)
(0.0337576 0.000756199 0)
(0.032993 0.00157535 0)
(0.031866 0.00232937 0)
(0.0304131 0.00301615 0)
(0.0286753 0.00364258 0)
(0.0266881 0.00420474 0)
(0.0244852 0.00467953 0)
(0.0221102 0.0050474 0)
(0.0196136 0.00530103 0)
(0.0170496 0.00543768 0)
(0.0144724 0.00546037 0)
(0.0119381 0.00536527 0)
(0.00949587 0.00516221 0)
(0.00719276 0.00484696 0)
(0.00507368 0.00444457 0)
(0.00317194 0.00395851 0)
(0.00151935 0.00341973 0)
(0.000139511 0.0028434 0)
(-0.000961176 0.00225004 0)
(-0.0017843 0.0016586 0)
(-0.00233465 0.00108869 0)
(-0.00262534 0.000561855 0)
(-0.00267927 9.82761e-05 0)
(-0.00253035 -0.000286711 0)
(-0.00222007 -0.000581825 0)
(-0.00179458 -0.000776756 0)
(-0.00130692 -0.00085687 0)
(-0.000813331 -0.000815385 0)
(-0.00037116 -0.000657681 0)
(-3.33007e-05 -0.000397186 0)
(0.000155573 -4.81636e-05 0)
(0.000158506 0.000379308 0)
(-5.45034e-05 0.000872697 0)
(-0.000503972 0.00140483 0)
(-0.0012065 0.00194289 0)
(-0.00216836 0.00247895 0)
(-0.00338277 0.00298904 0)
(-0.00483436 0.00345083 0)
(-0.00650131 0.00386876 0)
(-0.00836091 0.00421986 0)
(-0.0103786 0.00448361 0)
(-0.012512 0.00465288 0)
(-0.0147191 0.00472094 0)
(-0.0169559 0.00468457 0)
(-0.0191754 0.00454181 0)
(-0.02133 0.0042942 0)
(-0.0233746 0.00394423 0)
(-0.0252659 0.00350174 0)
(-0.0269643 0.0029774 0)
(-0.0284308 0.00238035 0)
(-0.0296279 0.00171742 0)
(-0.0305182 0.000992591 0)
(-0.0310623 0.000209725 0)
(-0.0312223 -0.000627902 0)
(-0.030965 -0.0015217 0)
(-0.0302425 -0.0024823 0)
(-0.0289903 -0.00349364 0)
(-0.0271687 -0.00455035 0)
(-0.0247651 -0.0055732 0)
(-0.0218044 -0.00647045 0)
(-0.0183772 -0.00714767 0)
(-0.014635 -0.0075065 0)
(-0.0108053 -0.00747908 0)
(-0.00716787 -0.00709484 0)
(-0.00396747 -0.00665419 0)
(-0.00107509 -0.00546889 0)
(0.00108549 -0.0079904 0)
(0.00436691 -0.010219 0)
(0.00824329 -0.0112579 0)
(0.0127053 -0.0121032 0)
(0.0174096 -0.0123008 0)
(0.0220111 -0.011794 0)
(0.0262255 -0.0107115 0)
(0.0298554 -0.00925262 0)
(0.0328168 -0.0076087 0)
(0.0351184 -0.00592897 0)
(0.0367927 -0.00428717 0)
(0.0378756 -0.00273638 0)
(0.0384208 -0.00130081 0)
(0.0384843 4.42892e-05 0)
(0.0381084 0.00132666 0)
(0.0373187 0.00254237 0)
(0.0361326 0.00366557 0)
(0.0345773 0.00468131 0)
(0.0326982 0.00559367 0)
(0.0305402 0.00640272 0)
(0.0281445 0.00708497 0)
(0.025556 0.00761325 0)
(0.0228248 0.00797274 0)
(0.0200096 0.00815655 0)
(0.0171691 0.00816824 0)
(0.014369 0.00800429 0)
(0.0116591 0.00768129 0)
(0.00909956 0.00720186 0)
(0.00673325 0.00659336 0)
(0.00459177 0.00586381 0)
(0.00271499 0.00505433 0)
(0.00112581 0.00419627 0)
(-0.000154245 0.0033012 0)
(-0.00113336 0.00242272 0)
(-0.00181911 0.00157182 0)
(-0.00221893 0.000780305 0)
(-0.00235717 8.27347e-05 0)
(-0.00226992 -0.000498444 0)
(-0.00200583 -0.000941007 0)
(-0.00161974 -0.00122608 0)
(-0.00116857 -0.00133967 0)
(-0.000711728 -0.00127386 0)
(-0.000309537 -0.00103426 0)
(-1.8447e-05 -0.000640884 0)
(0.00011263 -0.000115529 0)
(4.31731e-05 0.000523066 0)
(-0.000256303 0.00125596 0)
(-0.000807709 0.00204591 0)
(-0.00162745 0.00285564 0)
(-0.00273102 0.00365506 0)
(-0.00412291 0.00441702 0)
(-0.00577093 0.00511925 0)
(-0.00764865 0.00575859 0)
(-0.00973767 0.00628708 0)
(-0.0119936 0.00669353 0)
(-0.0143712 0.00696141 0)
(-0.0168251 0.00708056 0)
(-0.0193056 0.00704831 0)
(-0.0217603 0.00685885 0)
(-0.0241398 0.00651608 0)
(-0.0263962 0.00602467 0)
(-0.028482 0.00539837 0)
(-0.0303562 0.00465011 0)
(-0.0319767 0.00378869 0)
(-0.0333015 0.00282057 0)
(-0.0342912 0.00175174 0)
(-0.0349064 0.00058646 0)
(-0.0351108 -0.000673551 0)
(-0.0348627 -0.00203686 0)
(-0.0340987 -0.00352339 0)
(-0.0327533 -0.00512059 0)
(-0.030779 -0.00679731 0)
(-0.0281441 -0.00843589 0)
(-0.0248471 -0.00989412 0)
(-0.0209569 -0.0110052 0)
(-0.016651 -0.0115919 0)
(-0.0122166 -0.0115076 0)
(-0.00799893 -0.0107958 0)
(-0.00430202 -0.00993702 0)
(-0.0010992 -0.00797711 0)
(0.00110305 -0.0106833 0)
(0.00474419 -0.0140783 0)
(0.00922728 -0.0157615 0)
(0.0144111 -0.0170238 0)
(0.0198214 -0.0172694 0)
(0.0250036 -0.0164612 0)
(0.0296275 -0.0148341 0)
(0.0335122 -0.0126965 0)
(0.0366101 -0.0103384 0)
(0.0389677 -0.00798159 0)
(0.0406603 -0.00571743 0)
(0.0417545 -0.00358917 0)
(0.0423061 -0.0016268 0)
(0.0423622 0.000189699 0)
(0.0419654 0.00190664 0)
(0.0411435 0.00354024 0)
(0.0399065 0.00506633 0)
(0.0382699 0.00645162 0)
(0.0362701 0.00768758 0)
(0.0339531 0.0087723 0)
(0.0313707 0.00968726 0)
(0.0285722 0.0103997 0)
(0.0256081 0.0108853 0)
(0.02254 0.0111306 0)
(0.019429 0.0111386 0)
(0.0163552 0.0109152 0)
(0.013377 0.0104625 0)
(0.0105533 0.00981692 0)
(0.00793505 0.00898764 0)
(0.00555908 0.00800038 0)
(0.003473 0.00690234 0)
(0.00168552 0.00573222 0)
(0.000244512 0.00452363 0)
(-0.000850263 0.00332528 0)
(-0.00163237 0.00216703 0)
(-0.00209663 0.00108715 0)
(-0.00227506 0.00012843 0)
(-0.00220892 -0.000667733 0)
(-0.00194783 -0.00126833 0)
(-0.00155365 -0.00165024 0)
(-0.00108929 -0.00179962 0)
(-0.000617147 -0.00170825 0)
(-0.000203929 -0.00138272 0)
(8.83452e-05 -0.000846686 0)
(0.000207311 -0.000130898 0)
(0.000107441 0.000735743 0)
(-0.000243621 0.00172267 0)
(-0.000868152 0.00278679 0)
(-0.00178796 0.00389631 0)
(-0.00302052 0.00498605 0)
(-0.00456664 0.00602913 0)
(-0.00639099 0.00699706 0)
(-0.00848434 0.00787003 0)
(-0.0108134 0.0085937 0)
(-0.0133122 0.00915115 0)
(-0.015944 0.00952273 0)
(-0.0186526 0.00968987 0)
(-0.0213842 0.00965747 0)
(-0.0240815 0.00940979 0)
(-0.0266906 0.0089545 0)
(-0.0291616 0.00830466 0)
(-0.0314422 0.00747532 0)
(-0.0334887 0.00647905 0)
(-0.035255 0.00532635 0)
(-0.0366965 0.00402483 0)
(-0.0377759 0.00258502 0)
(-0.0384614 0.00101211 0)
(-0.0387194 -0.000697245 0)
(-0.0385056 -0.00256054 0)
(-0.0377644 -0.00460418 0)
(-0.0364294 -0.00682997 0)
(-0.0344303 -0.00918187 0)
(-0.0316957 -0.0115275 0)
(-0.0281684 -0.0136758 0)
(-0.0238803 -0.0153573 0)
(-0.0190152 -0.0162664 0)
(-0.0139054 -0.0161569 0)
(-0.00898135 -0.0150803 0)
(-0.00467784 -0.0136628 0)
(-0.00111942 -0.0106606 0)
(0.00111681 -0.0135711 0)
(0.00522931 -0.018487 0)
(0.0105253 -0.0209985 0)
(0.0166432 -0.0227175 0)
(0.0229005 -0.0229081 0)
(0.0286914 -0.0216054 0)
(0.0336356 -0.0192267 0)
(0.037601 -0.016248 0)
(0.0406321 -0.0130732 0)
(0.0428574 -0.00999049 0)
(0.0444096 -0.00710043 0)
(0.0453933 -0.00440899 0)
(0.045871 -0.00192648 0)
(0.04587 0.000366028 0)
(0.0454157 0.00252417 0)
(0.0445309 0.00458662 0)
(0.0432217 0.00653371 0)
(0.0414929 0.00831918 0)
(0.0393676 0.00991676 0)
(0.0368859 0.0113138 0)
(0.0341017 0.0124905 0)
(0.0310706 0.0134125 0)
(0.0278492 0.0140462 0)
(0.0245032 0.0143708 0)
(0.0211068 0.014389 0)
(0.0177315 0.0141085 0)
(0.0144564 0.0135252 0)
(0.0113538 0.01269 0)
(0.00846609 0.0116214 0)
(0.00585897 0.0103615 0)
(0.00357378 0.00894778 0)
(0.00162482 0.00742653 0)
(5.84802e-05 0.00587284 0)
(-0.0011236 0.0043149 0)
(-0.00194327 0.00281395 0)
(-0.00241421 0.00141658 0)
(-0.0025695 0.000174798 0)
(-0.00245305 -0.000856293 0)
(-0.00212145 -0.00163095 0)
(-0.00164075 -0.00212076 0)
(-0.00108001 -0.00231077 0)
(-0.000510377 -0.00219315 0)
(-5.22174e-06 -0.00177528 0)
(0.000367502 -0.00108395 0)
(0.000547574 -0.000157853 0)
(0.000481892 0.000961786 0)
(0.000131713 0.00222879 0)
(-0.000521532 0.00359845 0)
(-0.00150826 0.00502561 0)
(-0.00284499 0.00644882 0)
(-0.00453166 0.00780841 0)
(-0.00653532 0.0090788 0)
(-0.00883878 0.0101979 0)
(-0.0114056 0.0111412 0)
(-0.0141569 0.011865 0)
(-0.017057 0.0123427 0)
(-0.0200366 0.01256 0)
(-0.0230368 0.0125162 0)
(-0.0260006 0.0122011 0)
(-0.028859 0.0116206 0)
(-0.0315604 0.010794 0)
(-0.0340503 0.00973941 0)
(-0.0362793 0.00846916 0)
(-0.0381995 0.00699665 0)
(-0.0397668 0.00533348 0)
(-0.0409496 0.00350264 0)
(-0.0417285 0.00151123 0)
(-0.042085 -0.000648973 0)
(-0.0419847 -0.00301036 0)
(-0.0413829 -0.00561303 0)
(-0.0402126 -0.00847223 0)
(-0.038369 -0.0115448 0)
(-0.0357162 -0.0147048 0)
(-0.032107 -0.0177125 0)
(-0.0274969 -0.0201717 0)
(-0.0220362 -0.0215846 0)
(-0.0160958 -0.0215578 0)
(-0.0102542 -0.0200949 0)
(-0.00516528 -0.0179381 0)
(-0.00114769 -0.013537 0)
(0.00114084 -0.0167294 0)
(0.00593822 -0.0236686 0)
(0.0123679 -0.0272409 0)
(0.0197079 -0.029407 0)
(0.026982 -0.0293221 0)
(0.0334031 -0.0271901 0)
(0.0385557 -0.0237395 0)
(0.0423995 -0.0196987 0)
(0.0451316 -0.0156009 0)
(0.0470155 -0.0117725 0)
(0.048267 -0.00828631 0)
(0.0490267 -0.00508846 0)
(0.0493566 -0.00213082 0)
(0.0492575 0.000617568 0)
(0.0487203 0.00321734 0)
(0.0477477 0.00571416 0)
(0.0463378 0.00809444 0)
(0.0444864 0.010306 0)
(0.042205 0.0123038 0)
(0.0395246 0.0140566 0)
(0.0364971 0.0155298 0)
(0.0331854 0.0166893 0)
(0.0296527 0.0174936 0)
(0.0259788 0.0179212 0)
(0.0222454 0.0179624 0)
(0.0185231 0.0176203 0)
(0.0149083 0.0168987 0)
(0.0114879 0.0158505 0)
(0.00832084 0.0145117 0)
(0.00547179 0.0129415 0)
(0.00298416 0.0111712 0)
(0.000894848 0.00926737 0)
(-0.000767073 0.00730349 0)
(-0.00199981 0.00534132 0)
(-0.00281211 0.00345303 0)
(-0.00322606 0.00170234 0)
(-0.00328438 0.000144103 0)
(-0.00303885 -0.00115003 0)
(-0.00254879 -0.00212338 0)
(-0.00188745 -0.00273743 0)
(-0.00113298 -0.00297525 0)
(-0.00036769 -0.00282949 0)
(0.000325343 -0.00230807 0)
(0.000870048 -0.00144059 0)
(0.00119651 -0.000275699 0)
(0.00124041 0.00113134 0)
(0.000955339 0.00272318 0)
(0.00031056 0.00444642 0)
(-0.000711867 0.00623379 0)
(-0.00213559 0.00802403 0)
(-0.00395264 0.00974531 0)
(-0.00613661 0.0113503 0)
(-0.00866453 0.012761 0)
(-0.0114754 0.0139484 0)
(-0.0145104 0.0148544 0)
(-0.017715 0.0154497 0)
(-0.0210084 0.0157235 0)
(-0.0243232 0.0156593 0)
(-0.0275931 0.0152674 0)
(-0.0307449 0.0145483 0)
(-0.0337151 0.0135204 0)
(-0.0364412 0.0122103 0)
(-0.0388721 0.010637 0)
(-0.0409622 0.00881589 0)
(-0.0426722 0.0067667 0)
(-0.0439807 0.00453246 0)
(-0.0448846 0.0021277 0)
(-0.045388 -0.000462312 0)
(-0.0454851 -0.00328088 0)
(-0.0451508 -0.00639586 0)
(-0.0443128 -0.0098613 0)
(-0.0428258 -0.0136875 0)
(-0.0404641 -0.0177889 0)
(-0.0369555 -0.0218855 0)
(-0.0321188 -0.0254308 0)
(-0.0260141 -0.0276701 0)
(-0.0190598 -0.0279401 0)
(-0.0120327 -0.0260881 0)
(-0.00586618 -0.0229589 0)
(-0.00118649 -0.0166845 0)
(0.00118199 -0.0202849 0)
(0.0069155 -0.0299374 0)
(0.0148016 -0.034831 0)
(0.0235998 -0.0373378 0)
(0.0319744 -0.0366033 0)
(0.0389738 -0.0331607 0)
(0.0442 -0.0282111 0)
(0.04775 -0.0228308 0)
(0.0500042 -0.0177042 0)
(0.0513981 -0.0131533 0)
(0.0522488 -0.00915176 0)
(0.0527274 -0.00554533 0)
(0.0528845 -0.00219703 0)
(0.0526849 0.000963225 0)
(0.0520731 0.00399851 0)
(0.0510153 0.00693993 0)
(0.0494917 0.00977656 0)
(0.0474881 0.012448 0)
(0.0450076 0.0148875 0)
(0.0420732 0.017044 0)
(0.0387415 0.0188669 0)
(0.0350818 0.0203002 0)
(0.0311675 0.0212983 0)
(0.0270887 0.0218434 0)
(0.0229414 0.0219124 0)
(0.0188064 0.021504 0)
(0.0147993 0.020634 0)
(0.011019 0.0193395 0)
(0.00753065 0.0176856 0)
(0.00441881 0.0157431 0)
(0.00173327 0.0135646 0)
(-0.000491487 0.0112237 0)
(-0.00223122 0.00878975 0)
(-0.00347623 0.00636186 0)
(-0.00423222 0.00403 0)
(-0.0045364 0.00186832 0)
(-0.00443198 -4.8488e-05 0)
(-0.00396967 -0.00164043 0)
(-0.00322474 -0.00283994 0)
(-0.00227938 -0.00359738 0)
(-0.00122571 -0.00389185 0)
(-0.000160816 -0.00371351 0)
(0.000820909 -0.00307347 0)
(0.00163014 -0.0020044 0)
(0.0021818 -0.000565949 0)
(0.00240628 0.00117504 0)
(0.0022482 0.00314778 0)
(0.00166387 0.00527996 0)
(0.000631764 0.00749499 0)
(-0.000857563 0.00970629 0)
(-0.00280033 0.0118456 0)
(-0.00517553 0.0138239 0)
(-0.007943 0.0155777 0)
(-0.0110422 0.0170459 0)
(-0.0144056 0.0181609 0)
(-0.0179655 0.0188974 0)
(-0.0216402 0.0192325 0)
(-0.0253374 0.0191505 0)
(-0.0289762 0.0186695 0)
(-0.0324828 0.0177835 0)
(-0.0357757 0.0165218 0)
(-0.0387809 0.0149161 0)
(-0.0414447 0.0130009 0)
(-0.0437231 0.0107981 0)
(-0.0455886 0.00834253 0)
(-0.0470362 0.00569671 0)
(-0.0480808 0.00289561 0)
(-0.0487519 -7.80762e-05 0)
(-0.049086 -0.00327954 0)
(-0.0490942 -0.00681531 0)
(-0.0487055 -0.0108191 0)
(-0.0477316 -0.0154076 0)
(-0.0458414 -0.0205801 0)
(-0.0426052 -0.0260504 0)
(-0.037661 -0.0311015 0)
(-0.0309354 -0.0346387 0)
(-0.0228611 -0.0355478 0)
(-0.0144035 -0.0333673 0)
(-0.00683829 -0.0290091 0)
(-0.00124548 -0.0202383 0)
(0.00124864 -0.0243709 0)
(0.00809762 -0.0375672 0)
(0.0175316 -0.0439905 0)
(0.0277075 -0.0465935 0)
(0.0369913 -0.0447113 0)
(0.0443819 -0.039416 0)
(0.0495711 -0.0325274 0)
(0.0528048 -0.0255339 0)
(0.0546118 -0.0192879 0)
(0.0555696 -0.014068 0)
(0.0560891 -0.00967347 0)
(0.0563647 -0.00578299 0)
(0.0564301 -0.0021459 0)
(0.0562037 0.00137385 0)
(0.0555747 0.00483929 0)
(0.0544709 0.00825636 0)
(0.0528451 0.0115949 0)
(0.0506717 0.0147804 0)
(0.047955 0.0177198 0)
(0.0447188 0.0203396 0)
(0.0410148 0.02257 0)
(0.0369212 0.0243256 0)
(0.0325332 0.025551 0)
(0.0279532 0.0262202 0)
(0.0233005 0.0263199 0)
(0.018682 0.0258295 0)
(0.0142063 0.024779 0)
(0.00999476 0.0231979 0)
(0.00614303 0.0211726 0)
(0.00273494 0.0187963 0)
(-0.00016435 0.0161357 0)
(-0.00252469 0.0132746 0)
(-0.00432564 0.0103035 0)
(-0.00554979 0.00734106 0)
(-0.00621013 0.00449528 0)
(-0.00633984 0.00185227 0)
(-0.00598984 -0.000475301 0)
(-0.00522817 -0.00241306 0)
(-0.00413405 -0.00387484 0)
(-0.00280398 -0.00480066 0)
(-0.00134632 -0.0051612 0)
(0.000122942 -0.00494488 0)
(0.00149153 -0.00416284 0)
(0.00265559 -0.00285859 0)
(0.00351613 -0.00109964 0)
(0.00399231 0.00103585 0)
(0.00401811 0.00345371 0)
(0.00354378 0.00606263 0)
(0.00254073 0.00877492 0)
(0.000999594 0.0114894 0)
(-0.00107486 0.0141083 0)
(-0.00365534 0.0165334 0)
(-0.00669233 0.0186848 0)
(-0.0101307 0.0204797 0)
(-0.0138878 0.0218498 0)
(-0.0178781 0.0227517 0)
(-0.0220117 0.0231599 0)
(-0.0261681 0.0230634 0)
(-0.0302592 0.0224735 0)
(-0.0341949 0.0213902 0)
(-0.0378717 0.0198537 0)
(-0.0412148 0.0179035 0)
(-0.0441563 0.0155892 0)
(-0.0466469 0.0129558 0)
(-0.0486725 0.0100641 0)
(-0.0502452 0.00699709 0)
(-0.0513959 0.00381005 0)
(-0.0521853 0.000504007 0)
(-0.0526991 -0.0029884 0)
(-0.0529929 -0.0068264 0)
(-0.0530106 -0.0112689 0)
(-0.052533 -0.0165924 0)
(-0.05114 -0.0229404 0)
(-0.0482534 -0.0300742 0)
(-0.0433291 -0.0370982 0)
(-0.0361498 -0.0424812 0)
(-0.027094 -0.044492 0)
(-0.017201 -0.0421769 0)
(-0.00806118 -0.0363833 0)
(-0.00133457 -0.0243448 0)
(0.00133293 -0.029055 0)
(0.00924636 -0.0465977 0)
(0.01985 -0.0545529 0)
(0.0307981 -0.0568554 0)
(0.0404045 -0.0533378 0)
(0.0478333 -0.0457838 0)
(0.0529404 -0.0366888 0)
(0.0560714 -0.0279445 0)
(0.0577961 -0.0205508 0)
(0.0587181 -0.0147127 0)
(0.0592671 -0.0100327 0)
(0.0596331 -0.00596346 0)
(0.0598322 -0.00210669 0)
(0.0597438 0.00174858 0)
(0.059216 0.00566789 0)
(0.0581411 0.00962275 0)
(0.0564518 0.013541 0)
(0.0541171 0.0173207 0)
(0.0511413 0.0208446 0)
(0.0475539 0.0240089 0)
(0.043409 0.0267129 0)
(0.0387993 0.0288503 0)
(0.033839 0.0303487 0)
(0.0286495 0.0311601 0)
(0.023381 0.0312844 0)
(0.0181697 0.0306922 0)
(0.0131407 0.0294072 0)
(0.00842986 0.0274894 0)
(0.00415338 0.0250287 0)
(0.00040606 0.022131 0)
(-0.00274057 0.0188931 0)
(-0.00524279 0.0154185 0)
(-0.00708174 0.0118257 0)
(-0.00825021 0.00824526 0)
(-0.00876528 0.00479959 0)
(-0.00865282 0.00161817 0)
(-0.00797931 -0.0012094 0)
(-0.00682986 -0.00355991 0)
(-0.00528638 -0.00533417 0)
(-0.00346559 -0.00646086 0)
(-0.00149465 -0.00689531 0)
(0.000490233 -0.00662922 0)
(0.00235349 -0.00567819 0)
(0.00397084 -0.00409547 0)
(0.00522949 -0.00195811 0)
(0.00602959 0.000636868 0)
(0.0062954 0.00357862 0)
(0.00597931 0.00675717 0)
(0.00504342 0.010053 0)
(0.0034674 0.0133588 0)
(0.00125843 0.0165496 0)
(-0.00154919 0.0195104 0)
(-0.00490638 0.0221313 0)
(-0.00874674 0.0243194 0)
(-0.0129724 0.0259943 0)
(-0.0174811 0.0270966 0)
(-0.0221594 0.0275974 0)
(-0.0268686 0.027483 0)
(-0.0315038 0.0267631 0)
(-0.0359516 0.0254469 0)
(-0.0400873 0.0235839 0)
(-0.0438306 0.0212255 0)
(-0.0470993 0.0184398 0)
(-0.049832 0.0153026 0)
(-0.0520141 0.0119117 0)
(-0.0536582 0.00837937 0)
(-0.0548099 0.00478302 0)
(-0.0555658 0.00116628 0)
(-0.0560469 -0.00254211 0)
(-0.0563558 -0.00657616 0)
(-0.0564789 -0.0113532 0)
(-0.0561932 -0.017349 0)
(-0.0550414 -0.0249213 0)
(-0.0523764 -0.0339076 0)
(-0.0475587 -0.0432428 0)
(-0.0402661 -0.0509294 0)
(-0.0307289 -0.0545499 0)
(-0.0198518 -0.0524916 0)
(-0.00934951 -0.0452338 0)
(-0.00144832 -0.0291033 0)
(0.00141046 -0.0342799 0)
(0.00999166 -0.0565968 0)
(0.0208511 -0.0657323 0)
(0.0314694 -0.0672486 0)
(0.0405062 -0.0618285 0)
(0.0475272 -0.0520044 0)
(0.0525881 -0.0408255 0)
(0.0560298 -0.0304841 0)
(0.0583148 -0.0220511 0)
(0.059904 -0.0156396 0)
(0.0611165 -0.0106893 0)
(0.0620834 -0.00644583 0)
(0.0627901 -0.0023449 0)
(0.0631043 0.00190182 0)
(0.0628577 0.00636078 0)
(0.0619243 0.0109609 0)
(0.0602334 0.0155757 0)
(0.0577579 0.0200645 0)
(0.0545064 0.0242865 0)
(0.0505166 0.0280982 0)
(0.0458533 0.0313713 0)
(0.0406363 0.0339717 0)
(0.0349985 0.0357971 0)
(0.0290847 0.0367854 0)
(0.0230827 0.0369188 0)
(0.0171621 0.0361932 0)
(0.0114818 0.0346284 0)
(0.00619684 0.0322939 0)
(0.00143379 0.0293045 0)
(-0.0026935 0.02578 0)
(-0.00610136 0.0218534 0)
(-0.00874304 0.0176565 0)
(-0.0105985 0.0133317 0)
(-0.0116684 0.0090252 0)
(-0.0119597 0.00488734 0)
(-0.011536 0.0010514 0)
(-0.010463 -0.0023535 0)
(-0.00880791 -0.00518225 0)
(-0.00669822 -0.00732275 0)
(-0.0042634 -0.00868381 0)
(-0.00165336 -0.0092084 0)
(0.000965104 -0.00888275 0)
(0.00343606 -0.00773056 0)
(0.00561716 -0.00581033 0)
(0.00737246 -0.00322465 0)
(0.00858572 -8.94784e-05 0)
(0.00917403 0.00346775 0)
(0.00906896 0.00731661 0)
(0.00823395 0.0113119 0)
(0.00664844 0.0153123 0)
(0.00430718 0.0191852 0)
(0.00124645 0.0227865 0)
(-0.00247366 0.0259761 0)
(-0.00677948 0.0286414 0)
(-0.0115607 0.0306843 0)
(-0.0166827 0.0320353 0)
(-0.0220101 0.032651 0)
(-0.0273775 0.0325145 0)
(-0.0326633 0.0316326 0)
(-0.037726 0.0300377 0)
(-0.0424105 0.027783 0)
(-0.0466239 0.0249381 0)
(-0.0502666 0.0215906 0)
(-0.0532627 0.01785 0)
(-0.0555756 0.0138468 0)
(-0.0572022 0.0097332 0)
(-0.05819 0.0056407 0)
(-0.0586523 0.00165681 0)
(-0.0587381 -0.0022801 0)
(-0.0585896 -0.0064827 0)
(-0.0582384 -0.0115304 0)
(-0.0575188 -0.0181246 0)
(-0.0560347 -0.0268564 0)
(-0.053218 -0.0376339 0)
(-0.0485113 -0.049269 0)
(-0.0415637 -0.0593974 0)
(-0.0323725 -0.0650023 0)
(-0.0214674 -0.063732 0)
(-0.0103436 -0.0552906 0)
(-0.00155782 -0.0344871 0)
(0.00145991 -0.0397339 0)
(0.00995175 -0.0666186 0)
(0.0198095 -0.0762466 0)
(0.0288566 -0.0765726 0)
(0.0364374 -0.0693907 0)
(0.0426559 -0.057834 0)
(0.0477512 -0.0451832 0)
(0.0519491 -0.033731 0)
(0.0554627 -0.0245368 0)
(0.0584715 -0.0176192 0)
(0.0610581 -0.0123219 0)
(0.0632204 -0.0077567 0)
(0.0648905 -0.00324448 0)
(0.0659251 0.00157129 0)
(0.0661695 0.00674369 0)
(0.0655112 0.0121572 0)
(0.0638902 0.0176413 0)
(0.0612942 0.0230079 0)
(0.0577416 0.0280816 0)
(0.053288 0.032682 0)
(0.0480218 0.0366435 0)
(0.0420819 0.0397996 0)
(0.0356398 0.0420168 0)
(0.0288759 0.0432083 0)
(0.0220272 0.0433525 0)
(0.0153037 0.042442 0)
(0.00888147 0.0405214 0)
(0.00295587 0.0376767 0)
(-0.002324 0.0340404 0)
(-0.00683906 0.0297666 0)
(-0.0104983 0.0250193 0)
(-0.0132485 0.0199653 0)
(-0.0150682 0.0147727 0)
(-0.0159597 0.00961015 0)
(-0.0159606 0.00465325 0)
(-0.0151193 4.91941e-05 0)
(-0.0134973 -0.00401857 0)
(-0.0112089 -0.00740764 0)
(-0.00839137 -0.00997508 0)
(-0.00519586 -0.0116036 0)
(-0.00179835 -0.0122297 0)
(0.00160484 -0.0118294 0)
(0.0048305 -0.0104334 0)
(0.00770391 -0.00811282 0)
(0.0100671 -0.00499594 0)
(0.0117959 -0.00121872 0)
(0.012797 0.00306102 0)
(0.012993 0.00768862 0)
(0.0123216 0.0125035 0)
(0.0107648 0.0173342 0)
(0.00832107 0.0220205 0)
(0.00500856 0.026395 0)
(0.000892299 0.0302828 0)
(-0.00393644 0.0335273 0)
(-0.00934578 0.0360202 0)
(-0.01518 0.0376818 0)
(-0.0212732 0.0384323 0)
(-0.0274335 0.0382684 0)
(-0.0334983 0.0371974 0)
(-0.0392937 0.0352664 0)
(-0.0446411 0.0325365 0)
(-0.0494161 0.0290989 0)
(-0.0534903 0.0250692 0)
(-0.0567605 0.0205802 0)
(-0.0591638 0.0157937 0)
(-0.0606666 0.0109125 0)
(-0.0613004 0.00613878 0)
(-0.0611648 0.00160881 0)
(-0.0604108 -0.00271374 0)
(-0.0592116 -0.00720015 0)
(-0.0576533 -0.0125486 0)
(-0.0557029 -0.0196744 0)
(-0.0531555 -0.0293213 0)
(-0.04969 -0.0414752 0)
(-0.0450003 -0.0549113 0)
(-0.0387954 -0.0671179 0)
(-0.0308353 -0.0747365 0)
(-0.0211436 -0.0747405 0)
(-0.010629 -0.0657334 0)
(-0.00164472 -0.0402598 0)
(0.0014046 -0.0449056 0)
(0.00887442 -0.075501 0)
(0.0165584 -0.0847988 0)
(0.0230726 -0.0838097 0)
(0.0286043 -0.0754573 0)
(0.0337936 -0.0631546 0)
(0.0389936 -0.0500201 0)
(0.0442346 -0.038195 0)
(0.0493973 -0.028653 0)
(0.054299 -0.0213321 0)
(0.0587516 -0.0155598 0)
(0.0625703 -0.0104242 0)
(0.0655864 -0.00518709 0)
(0.0676313 0.000489655 0)
(0.0685607 0.00664677 0)
(0.068307 0.0131158 0)
(0.0668282 0.0196978 0)
(0.0641205 0.0261601 0)
(0.060228 0.0322841 0)
(0.055227 0.0378532 0)
(0.0492368 0.0426447 0)
(0.0424398 0.0464654 0)
(0.0350527 0.0491395 0)
(0.0273248 0.0505589 0)
(0.0195281 0.0506932 0)
(0.0119039 0.0495308 0)
(0.00469179 0.0471502 0)
(-0.00189334 0.04367 0)
(-0.0076842 0.0392462 0)
(-0.0125491 0.0340719 0)
(-0.0163936 0.0283497 0)
(-0.0191648 0.0222838 0)
(-0.0208465 0.0160719 0)
(-0.0214472 0.00990782 0)
(-0.0210069 0.00398517 0)
(-0.0195856 -0.00149148 0)
(-0.0172613 -0.00634613 0)
(-0.0141551 -0.0103928 0)
(-0.0104238 -0.0134564 0)
(-0.00625701 -0.0153971 0)
(-0.00186795 -0.0161304 0)
(0.00251336 -0.0156299 0)
(0.00667004 -0.0139362 0)
(0.0104 -0.0111466 0)
(0.0135293 -0.00740284 0)
(0.0159184 -0.00287248 0)
(0.0174608 0.00226107 0)
(0.0180704 0.00779188 0)
(0.0176766 0.0135544 0)
(0.0162431 0.0193692 0)
(0.0137583 0.0250335 0)
(0.0102326 0.0303366 0)
(0.00571827 0.0350731 0)
(0.000331748 0.0390443 0)
(-0.00575982 0.0421006 0)
(-0.0124039 0.0441355 0)
(-0.0193946 0.045073 0)
(-0.0264803 0.0448956 0)
(-0.0334786 0.0436098 0)
(-0.0401712 0.0412755 0)
(-0.0463302 0.0379702 0)
(-0.0517821 0.0338032 0)
(-0.0563631 0.0289161 0)
(-0.0599382 0.0234698 0)
(-0.0624004 0.0176696 0)
(-0.0636841 0.0117621 0)
(-0.0637887 0.0060157 0)
(-0.0627698 0.000627009 0)
(-0.0607705 -0.00436883 0)
(-0.0579874 -0.00938404 0)
(-0.0545961 -0.0151705 0)
(-0.0507469 -0.0227548 0)
(-0.0465225 -0.0329179 0)
(-0.0419829 -0.0457326 0)
(-0.0371513 -0.0600437 0)
(-0.0318886 -0.0734612 0)
(-0.0258106 -0.0826402 0)
(-0.0184581 -0.0841398 0)
(-0.00989219 -0.0753807 0)
(-0.00165999 -0.045966 0)
(0.00118236 -0.0492295 0)
(0.00678683 -0.0822216 0)
(0.0114778 -0.0905069 0)
(0.0149655 -0.0884349 0)
(0.018254 -0.079828 0)
(0.0223602 -0.0679693 0)
(0.0276306 -0.0554836 0)
(0.0338925 -0.0441194 0)
(0.040729 -0.0346816 0)
(0.0475966 -0.027123 0)
(0.0540201 -0.020758 0)
(0.0596732 -0.0147372 0)
(0.0642439 -0.00844861 0)
(0.0674831 -0.00157108 0)
(0.0692522 0.00590008 0)
(0.069502 0.0137389 0)
(0.0682165 0.0217164 0)
(0.0653909 0.0295378 0)
(0.0610949 0.0369664 0)
(0.0554302 0.0437206 0)
(0.0485726 0.0495198 0)
(0.04076 0.0541302 0)
(0.0322743 0.0573126 0)
(0.0234458 0.0589631 0)
(0.0145931 0.0590228 0)
(0.00601132 0.0575147 0)
(-0.0020125 0.0545399 0)
(-0.00923719 0.0502569 0)
(-0.0154766 0.0448698 0)
(-0.0205896 0.0386139 0)
(-0.0244861 0.0317375 0)
(-0.0271196 0.0244834 0)
(-0.0284845 0.0170836 0)
(-0.0286011 0.00976151 0)
(-0.0275091 0.00273222 0)
(-0.0252813 -0.00377903 0)
(-0.0220095 -0.00955347 0)
(-0.017824 -0.0143684 0)
(-0.0129104 -0.0180125 0)
(-0.00749199 -0.0203132 0)
(-0.00182495 -0.0211609 0)
(0.00380913 -0.0205241 0)
(0.00915088 -0.0184637 0)
(0.0139768 -0.0151029 0)
(0.0180975 -0.0106198 0)
(0.0213585 -0.00522169 0)
(0.0236222 0.000882754 0)
(0.0248111 0.00747049 0)
(0.0248668 0.0143464 0)
(0.023713 0.0213122 0)
(0.0213026 0.0281413 0)
(0.0176374 0.0345697 0)
(0.0127723 0.0403455 0)
(0.00682393 0.0452188 0)
(-1.81143e-05 0.0489872 0)
(-0.00755461 0.0515037 0)
(-0.0155503 0.0527137 0)
(-0.0237362 0.0525655 0)
(-0.0318586 0.0510488 0)
(-0.0396377 0.0482436 0)
(-0.0467927 0.04424 0)
(-0.0530825 0.0391746 0)
(-0.0582858 0.0332073 0)
(-0.0622107 0.0265489 0)
(-0.0647176 0.0194374 0)
(-0.0657141 0.0121731 0)
(-0.0651614 0.00508982 0)
(-0.0630443 -0.0015223 0)
(-0.059527 -0.00764248 0)
(-0.0548867 -0.0135422 0)
(-0.049386 -0.0199469 0)
(-0.0433484 -0.0278594 0)
(-0.0371886 -0.0380915 0)
(-0.0313712 -0.0507173 0)
(-0.0262513 -0.0647764 0)
(-0.0219052 -0.0781927 0)
(-0.0179689 -0.0880089 0)
(-0.0136252 -0.0907891 0)
(-0.00803096 -0.0830368 0)
(-0.00152006 -0.0510196 0)
(0.000802684 -0.0522574 0)
(0.00393089 -0.0861546 0)
(0.00517328 -0.0930114 0)
(0.0055246 -0.0903675 0)
(0.0066131 -0.0825459 0)
(0.00963826 -0.0722959 0)
(0.0148421 -0.0614897 0)