/*--------------------------------*- C++ -*----------------------------------*\
| =========                 |                                                 |
| \\      /  F ield         | OpenFOAM: The Open Source CFD Toolbox           |
|  \\    /   O peration     | Version:  2412                                  |
|   \\  /    A nd           | Website:  www.openfoam.com                      |
|    \\/     M anipulation  |                                                 |
\*---------------------------------------------------------------------------*/
FoamFile
{
    version     2.0;
    format      ascii;
    arch        "LSB;label=32;scalar=64";
    class       surfaceScalarField;
    location    "6.35";
    object      phi;
}
// * * * * * * * * * * * * * * * * * * * * * * * * * * * * * * * * * * * * * //

dimensions      [0 3 -1 0 0 0 0];

oriented        oriented;

internalField   nonuniform List<scalar> 
12640
(
-1.09008e-10
1.08985e-10
-2.72754e-10
2.27849e-10
-4.92369e-10
2.74204e-10
-7.32082e-10
2.95003e-10
-9.78991e-10
3.07029e-10
-1.23089e-09
3.16181e-10
-1.48843e-09
3.24104e-10
-1.75296e-09
3.31239e-10
-2.02587e-09
3.37799e-10
-2.30822e-09
3.44072e-10
-2.60052e-09
3.50514e-10
-2.90274e-09
3.57706e-10
-3.2144e-09
3.66171e-10
-3.53476e-09
3.76164e-10
-3.86286e-09
3.87458e-10
-4.19764e-09
3.99267e-10
-4.53782e-09
4.10311e-10
-4.88178e-09
4.19042e-10
-5.22737e-09
4.2389e-10
-5.57171e-09
4.23474e-10
-5.91092e-09
4.16708e-10
-6.23998e-09
4.02779e-10
-6.55245e-09
3.80987e-10
-6.8403e-09
3.50546e-10
-7.09375e-09
3.10444e-10
-7.30127e-09
2.59439e-10
-7.44977e-09
1.96217e-10
-7.52501e-09
1.19664e-10
-7.51234e-09
2.92764e-11
-7.39761e-09
-7.46434e-11
-7.16826e-09
-1.90648e-10
-6.81452e-09
-3.16132e-10
-6.33046e-09
-4.47387e-10
-5.71488e-09
-5.7979e-10
-4.97201e-09
-7.08074e-10
-4.11175e-09
-8.26644e-10
-3.14961e-09
-9.2991e-10
-2.10633e-09
-1.01264e-09
-1.00703e-09
-1.07033e-09
1.19914e-10
-1.09958e-09
1.24431e-09
-1.0984e-09
2.33589e-09
-1.0665e-09
3.36629e-09
-1.00579e-09
4.31069e-09
-9.20095e-10
5.14843e-09
-8.13349e-10
5.86445e-09
-6.89974e-10
6.45166e-09
-5.58703e-10
6.90804e-09
-4.28375e-10
7.23397e-09
-2.98942e-10
7.4374e-09
-1.69925e-10
7.5308e-09
-5.19367e-11
7.52562e-09
4.38859e-11
7.43673e-09
1.22822e-10
7.27831e-09
1.98576e-10
7.06175e-09
2.69428e-10
6.79968e-09
3.20381e-10
6.5055e-09
3.48881e-10
6.19001e-09
3.70007e-10
5.85712e-09
3.93492e-10
5.50918e-09
4.11876e-10
5.15601e-09
4.16039e-10
4.80992e-09
4.10046e-10
4.47413e-09
4.04458e-10
4.14394e-09
4.02725e-10
3.81763e-09
4.00293e-10
3.49998e-09
3.93324e-10
3.19542e-09
3.83263e-10
2.90223e-09
3.73501e-10
2.61487e-09
3.64976e-10
2.3298e-09
3.56019e-10
2.04771e-09
3.45145e-10
1.77104e-09
3.32819e-10
1.50096e-09
3.20845e-10
1.23688e-09
3.10741e-10
9.78191e-10
3.02769e-10
7.26084e-10
2.95833e-10
4.84768e-10
2.87139e-10
2.63409e-10
2.70843e-10
8.24071e-11
2.3423e-10
1.35522e-10
-1.96484e-10
3.54322e-10
-5.23106e-10
6.61642e-10
-9.32213e-10
7.85641e-10
-1.37764e-09
8.47638e-10
-1.841e-09
8.84652e-10
-2.31794e-09
9.11778e-10
-2.80957e-09
9.35094e-10
-3.31881e-09
9.57114e-10
-3.8487e-09
9.79234e-10
-4.40136e-09
1.00251e-09
-4.97752e-09
1.02788e-09
-5.57647e-09
1.05613e-09
-6.19637e-09
1.0876e-09
-6.83481e-09
1.12191e-09
-7.48931e-09
1.15774e-09
-8.15768e-09
1.19283e-09
-8.83795e-09
1.22416e-09
-9.52801e-09
1.24825e-09
-1.02249e-08
1.26153e-09
-1.09238e-08
1.26061e-09
-1.16175e-08
1.24236e-09
-1.22953e-08
1.20384e-09
-1.29431e-08
1.14208e-09
-1.35429e-08
1.05388e-09
-1.40731e-08
9.3574e-10
-1.45093e-08
7.84e-10
-1.48247e-08
5.95206e-10
-1.49912e-08
3.66695e-10
-1.49802e-08
9.73015e-11
-1.47644e-08
-2.11958e-10
-1.43194e-08
-5.57259e-10
-1.36256e-08
-9.31566e-10
-1.26703e-08
-1.32451e-09
-1.14498e-08
-1.72264e-09
-9.97106e-09
-2.10999e-09
-8.25301e-09
-2.4691e-09
-6.32651e-09
-2.78222e-09
-4.23372e-09
-3.03266e-09
-2.02638e-09
-3.20625e-09
2.36861e-10
-3.2927e-09
2.49382e-09
-3.28661e-09
4.68258e-09
-3.18793e-09
6.74556e-09
-3.00251e-09
8.63286e-09
-2.74209e-09
1.03036e-08
-2.42131e-09
1.17286e-08
-2.05507e-09
1.28939e-08
-1.66207e-09
1.37956e-08
-1.26348e-09
1.4434e-08
-8.73921e-10
1.48261e-08
-5.02629e-10
1.50011e-08
-1.58381e-10
1.49801e-08
1.47549e-10
1.47829e-08
4.08282e-10
1.44392e-08
6.27479e-10
1.39854e-08
8.09881e-10
1.34491e-08
9.54496e-10
1.28429e-08
1.06072e-09
1.21822e-08
1.13541e-09
1.14912e-08
1.18835e-09
1.07895e-08
1.22359e-09
1.00857e-08
1.24014e-09
9.38449e-09
1.23969e-09
8.693e-09
1.22838e-09
8.0192e-09
1.21139e-09
7.36812e-09
1.18961e-09
6.74079e-09
1.16223e-09
6.13547e-09
1.1301e-09
5.54933e-09
1.0958e-09
4.97947e-09
1.06135e-09
4.42335e-09
1.02726e-09
3.87899e-09
9.93372e-10
3.34526e-09
9.60149e-10
2.82236e-09
9.28908e-10
2.31217e-09
9.00944e-10
1.81811e-09
8.7629e-10
1.34511e-09
8.52422e-10
9.00898e-10
8.22256e-10
5.00765e-10
7.70139e-10
1.79885e-10
6.59114e-10
3.63799e-10
-2.28644e-10
6.37875e-10
-6.28259e-10
1.16593e-09
-1.12156e-09
1.37904e-09
-1.65783e-09
1.48889e-09
-2.21814e-09
1.55635e-09
-2.7977e-09
1.60649e-09
-3.39737e-09
1.65035e-09
-4.01993e-09
1.6929e-09
-4.66839e-09
1.73684e-09
-5.34492e-09
1.78397e-09
-6.05043e-09
1.83555e-09
-6.78453e-09
1.89223e-09
-7.54582e-09
1.95385e-09
-8.33239e-09
2.01916e-09
-9.14219e-09
2.08561e-09
-9.97323e-09
2.14948e-09
-1.08234e-08
2.20607e-09
-1.16901e-08
2.25007e-09
-1.2569e-08
2.2759e-09
-1.34538e-08
2.27789e-09
-1.43349e-08
2.25029e-09
-1.51985e-08
2.18717e-09
-1.6027e-08
2.08223e-09
-1.67979e-08
1.92869e-09
-1.74847e-08
1.71938e-09
-1.80569e-08
1.44712e-09
-1.8481e-08
1.10542e-09
-1.87211e-08
6.89353e-10
-1.87406e-08
1.96753e-10
-1.85036e-08
-3.70626e-10
-1.79776e-08
-1.00597e-09
-1.71358e-08
-1.69655e-09
-1.59602e-08
-2.42334e-09
-1.44444e-08
-3.16133e-09
-1.25962e-08
-3.88063e-09
-1.04389e-08
-4.54832e-09
-8.01169e-09
-5.1309e-09
-5.36869e-09
-5.59692e-09
-2.5768e-09
-5.91967e-09
2.8795e-10
-6.07981e-09
3.14478e-09
-6.06742e-09
5.91314e-09
-5.88287e-09
8.51822e-09
-5.53718e-09
1.08959e-08
-5.05165e-09
1.29944e-08
-4.45379e-09
1.47751e-08
-3.77354e-09
1.62205e-08
-3.04657e-09
1.73295e-08
-2.30844e-09
1.81054e-08
-1.58377e-09
1.85666e-08
-8.95354e-10
1.87474e-08
-2.65574e-10
1.86835e-08
2.88885e-10
1.84092e-08
7.63808e-10
1.79565e-08
1.16541e-09
1.73602e-08
1.49526e-09
1.6657e-08
1.75132e-09
1.58757e-08
1.9397e-09
1.50394e-08
2.07529e-09
1.41682e-08
2.17065e-09
1.32791e-08
2.2295e-09
1.23867e-08
2.25279e-09
1.1504e-08
2.24663e-09
1.06407e-08
2.22119e-09
9.80186e-09
2.18394e-09
8.99032e-09
2.13716e-09
8.2078e-09
2.08135e-09
7.45451e-09
2.01873e-09
6.7284e-09
1.9531e-09
6.02575e-09
1.88756e-09
5.34275e-09
1.82347e-09
4.67677e-09
1.76133e-09
4.02688e-09
1.70197e-09
3.39371e-09
1.64679e-09
2.77933e-09
1.59679e-09
2.18696e-09
1.55098e-09
1.62122e-09
1.50442e-09
1.09014e-09
1.44486e-09
6.10676e-10
1.3459e-09
2.21924e-10
1.14483e-09
6.2872e-10
-2.42057e-10
9.28515e-10
-6.75547e-10
1.69382e-09
-1.20976e-09
2.00375e-09
-1.79043e-09
2.16484e-09
-2.39819e-09
2.26552e-09
-3.0281e-09
2.34168e-09
-3.68075e-09
2.40934e-09
-4.3586e-09
2.47585e-09
-5.06438e-09
2.5452e-09
-5.80027e-09
2.61984e-09
-6.56755e-09
2.70131e-09
-7.36657e-09
2.79014e-09
-8.19694e-09
2.88567e-09
-9.05783e-09
2.98582e-09
-9.94815e-09
3.08696e-09
-1.08666e-08
3.18405e-09
-1.18111e-08
3.27084e-09
-1.27789e-08
3.34022e-09
-1.37652e-08
3.38453e-09
-1.47627e-08
3.3956e-09
-1.57606e-08
3.36475e-09
-1.67443e-08
3.2826e-09
-1.76946e-08
3.13892e-09
-1.85875e-08
2.92261e-09
-1.93938e-08
2.622e-09
-2.00798e-08
2.22538e-09
-2.06073e-08
1.72209e-09
-2.09348e-08
1.10381e-09
-2.10187e-08
3.66367e-10
-2.08155e-08
-4.88447e-10
-2.02844e-08
-1.45097e-09
-1.9391e-08
-2.50221e-09
-1.8111e-08
-3.61316e-09
-1.64336e-08
-4.74519e-09
-1.4365e-08
-5.85178e-09
-1.19304e-08
-6.88147e-09
-9.17446e-09
-7.78178e-09
-6.16029e-09
-8.50332e-09
-2.96694e-09
-9.00397e-09
3.1477e-10
-9.25288e-09
3.5879e-09
-9.23405e-09
6.75553e-09
-8.94791e-09
9.72752e-09
-8.4117e-09
1.24277e-08
-7.65943e-09
1.4796e-08
-6.73519e-09
1.67883e-08
-5.68519e-09
1.83849e-08
-4.56406e-09
1.9587e-08
-3.42973e-09
2.04029e-08
-2.32535e-09
2.0861e-08
-1.2844e-09
2.10031e-08
-3.33273e-10
2.08699e-08
5.05148e-10
2.05026e-08
1.21715e-09
1.99421e-08
1.80749e-09
1.92318e-08
2.2867e-09
1.84113e-08
2.66254e-09
1.7509e-08
2.94291e-09
1.655e-08
3.13935e-09
1.55591e-08
3.26616e-09
1.45566e-08
3.33621e-09
1.35573e-08
3.35952e-09
1.2573e-08
3.3453e-09
1.16126e-08
3.30263e-09
1.06818e-08
3.23905e-09
9.78384e-09
3.15991e-09
8.92061e-09
3.06967e-09
8.09157e-09
2.97274e-09
7.29383e-09
2.87305e-09
6.52339e-09
2.77339e-09
5.7767e-09
2.67562e-09
5.05156e-09
2.58144e-09
4.34711e-09
2.49278e-09
3.6636e-09
2.41134e-09
3.00225e-09
2.33746e-09
2.3653e-09
2.26858e-09
1.75648e-09
2.19706e-09
1.18335e-09
2.1054e-09
6.63444e-10
1.95621e-09
2.39523e-10
1.65891e-09
9.07515e-10
-2.45432e-10
1.21826e-09
-6.91535e-10
2.22673e-09
-1.24198e-09
2.63757e-09
-1.84114e-09
2.85204e-09
-2.46916e-09
2.98763e-09
-3.12091e-09
3.09169e-09
-3.79667e-09
3.18536e-09
-4.49862e-09
3.27833e-09
-5.22932e-09
3.37576e-09
-5.99111e-09
3.48073e-09
-6.78582e-09
3.59495e-09
-7.61475e-09
3.71883e-09
-8.47873e-09
3.8513e-09
-9.37824e-09
3.98959e-09
-1.03134e-08
4.12922e-09
-1.12837e-08
4.26409e-09
-1.22879e-08
4.38663e-09
-1.33233e-08
4.48817e-09
-1.43853e-08
4.559e-09
-1.54667e-08
4.58841e-09
-1.65568e-08
4.56454e-09
-1.7641e-08
4.47421e-09
-1.87001e-08
4.30271e-09
-1.97092e-08
4.03396e-09
-2.06382e-08
3.65076e-09
-2.14507e-08
3.13573e-09
-2.21045e-08
2.47257e-09
-2.25525e-08
1.64803e-09
-2.27437e-08
6.54362e-10
-2.26257e-08
-5.07873e-10
-2.21478e-08
-1.82701e-09
-2.12654e-08
-3.27797e-09
-1.99448e-08
-4.82097e-09
-1.8168e-08
-6.40189e-09
-1.59371e-08
-7.95461e-09
-1.32774e-08
-9.40531e-09
-1.02382e-08
-1.06782e-08
-6.89158e-09
-1.17015e-08
-3.33025e-09
-1.24133e-08
3.37817e-10
-1.27677e-08
3.99641e-09
-1.27404e-08
7.52923e-09
-1.23322e-08
1.08285e-08
-1.15681e-08
1.3805e-08
-1.04981e-08
1.63902e-08
-9.1895e-09
1.85336e-08
-7.71153e-09
2.02168e-08
-6.14006e-09
2.14506e-08
-4.55479e-09
2.22501e-08
-3.02214e-09
2.2649e-08
-1.59277e-09
2.26968e-08
-2.99314e-10
2.24488e-08
8.35335e-10
2.19614e-08
1.79606e-09
2.12778e-08
2.58557e-09
2.04404e-08
3.21702e-09
1.9494e-08
3.70415e-09
1.84757e-08
4.06116e-09
1.74143e-08
4.30472e-09
1.63309e-08
4.4544e-09
1.52418e-08
4.52872e-09
1.41628e-08
4.54237e-09
1.31075e-08
4.5079e-09
1.20845e-08
4.43718e-09
1.10974e-08
4.34042e-09
1.01482e-08
4.22529e-09
9.23799e-09
4.09759e-09
8.36659e-09
3.96231e-09
7.53113e-09
3.82386e-09
6.72727e-09
3.68595e-09
5.95105e-09
3.5517e-09
5.19996e-09
3.42391e-09
4.47291e-09
3.30498e-09
3.76968e-09
3.19628e-09
3.09071e-09
3.09719e-09
2.4372e-09
3.00369e-09
1.8119e-09
2.90552e-09
1.22175e-09
2.78005e-09
6.84689e-10
2.57859e-09
2.46185e-10
2.18145e-09
1.18882e-09
-2.43058e-10
1.50211e-09
-6.89573e-10
2.75312e-09
-1.24164e-09
3.26644e-09
-1.84392e-09
3.5356e-09
-2.47637e-09
3.70735e-09
-3.13355e-09
3.84078e-09
-3.81541e-09
3.96225e-09
-4.52379e-09
4.08377e-09
-5.2612e-09
4.2116e-09
-6.03023e-09
4.34933e-09
-6.83347e-09
4.49884e-09
-7.67336e-09
4.66043e-09
-8.55214e-09
4.83273e-09
-9.47178e-09
5.01254e-09
-1.04338e-08
5.19484e-09
-1.14389e-08
5.37282e-09
-1.24868e-08
5.53799e-09
-1.35757e-08
5.68035e-09
-1.47018e-08
5.78833e-09
-1.58588e-08
5.8487e-09
-1.7037e-08
5.84635e-09
-1.82229e-08
5.76395e-09
-1.93979e-08
5.58187e-09
-2.05377e-08
5.27818e-09
-2.16114e-08
4.82912e-09
-2.25804e-08
4.21006e-09
-2.33988e-08
3.39726e-09
-2.40129e-08
2.37037e-09
-2.4363e-08
1.11579e-09
-2.43852e-08
-3.69435e-10
-2.40156e-08
-2.07355e-09
-2.31954e-08
-3.96642e-09
-2.18771e-08
-5.99718e-09
-2.00312e-08
-8.09401e-09
-1.7653e-08
-1.0167e-08
-1.4766e-08
-1.21143e-08
-1.14246e-08
-1.38304e-08
-7.71194e-09
-1.5215e-08
-3.73791e-09
-1.61804e-08
3.66933e-10
-1.66602e-08
4.46069e-09
-1.66193e-08
8.40135e-09
-1.60599e-08
1.20578e-08
-1.50188e-08
1.53244e-08
-1.35668e-08
1.81257e-08
-1.18002e-08
2.04052e-08
-9.81948e-09
2.2143e-08
-7.72905e-09
2.33605e-08
-5.63186e-09
2.40878e-08
-3.61993e-09
2.43753e-08
-1.76223e-09
2.42807e-08
-9.92665e-11
2.38686e-08
1.34501e-09
2.32108e-08
2.55689e-09
2.23624e-08
3.5389e-09
2.13721e-08
4.30927e-09
2.02857e-08
4.8907e-09
1.91412e-08
5.30603e-09
1.79687e-08
5.57922e-09
1.67894e-08
5.73587e-09
1.56189e-08
5.79979e-09
1.44713e-08
5.79032e-09
1.33582e-08
5.72386e-09
1.22857e-08
5.61533e-09
1.12563e-08
5.47716e-09
1.02712e-08
5.31851e-09
9.33154e-09
5.14633e-09
8.43634e-09
4.96666e-09
7.58197e-09
4.78506e-09
6.76342e-09
4.60636e-09
5.97631e-09
4.43449e-09
5.21783e-09
4.27257e-09
4.48642e-09
4.12276e-09
3.78114e-09
3.98581e-09
3.10143e-09
3.86021e-09
2.44745e-09
3.74056e-09
1.82103e-09
3.6142e-09
1.22862e-09
3.45332e-09
6.88394e-10
3.19788e-09
2.47164e-10
2.69909e-09
1.46635e-09
-2.37405e-10
1.77696e-09
-6.76917e-10
3.2657e-09
-1.22148e-09
3.88134e-09
-1.8172e-09
4.20584e-09
-2.44416e-09
4.41468e-09
-3.0966e-09
4.57872e-09
-3.77408e-09
4.72952e-09
-4.47818e-09
4.88141e-09
-5.21134e-09
5.04166e-09
-5.97656e-09
5.21433e-09
-6.77726e-09
5.40145e-09
-7.61712e-09
5.60331e-09
-8.49989e-09
5.81843e-09
-9.42915e-09
6.04349e-09
-1.0408e-08
6.27332e-09
-1.14387e-08
6.50082e-09
-1.25223e-08
6.717e-09
-1.36586e-08
6.91087e-09
-1.48453e-08
7.06929e-09
-1.60778e-08
7.17667e-09
-1.73485e-08
7.21462e-09
-1.86456e-08
7.16156e-09
-1.99526e-08
6.99245e-09
-2.12463e-08
6.67876e-09
-2.2496e-08
6.18887e-09
-2.36616e-08
5.48917e-09
-2.4693e-08
4.54609e-09
-2.55293e-08
3.32925e-09
-2.61e-08
1.8157e-09
-2.63265e-08
-4.80609e-12
-2.61271e-08
-2.12387e-09
-2.54227e-08
-4.50859e-09
-2.41458e-08
-7.09698e-09
-2.225e-08
-9.79646e-09
-1.97194e-08
-1.24871e-08
-1.65747e-08
-1.50306e-08
-1.28758e-08
-1.72833e-08
-8.71993e-09
-1.91085e-08
-4.23896e-09
-2.03854e-08
4.06053e-10
-2.10196e-08
5.03769e-09
-2.09597e-08
9.47912e-09
-2.02102e-08
1.35678e-08
-1.88266e-08
1.7175e-08
-1.69078e-08
2.02162e-08
-1.45865e-08
2.26315e-08
-1.20032e-08
2.4402e-08
-9.3011e-09
2.55615e-08
-6.61022e-09
2.6159e-08
-4.05203e-09
2.62688e-08
-1.71796e-09
2.59672e-08
3.41388e-10
2.5333e-08
2.10116e-09
2.44539e-08
3.55529e-09
2.33958e-08
4.71258e-09
2.22141e-08
5.59969e-09
2.09579e-08
6.25102e-09
1.9666e-08
6.69964e-09
1.83677e-08
6.97845e-09
1.7083e-08
7.12058e-09
1.58258e-08
7.15528e-09
1.46085e-08
7.10588e-09
1.344e-08
6.99221e-09
1.23239e-08
6.83209e-09
1.12604e-08
6.6403e-09
1.02496e-08
6.42788e-09
9.29109e-09
6.20331e-09
8.38279e-09
5.97384e-09
7.52018e-09
5.74586e-09
6.69781e-09
5.52466e-09
5.91101e-09
5.31422e-09
5.15648e-09
5.11736e-09
4.43187e-09
4.93571e-09
3.73521e-09
4.76933e-09
3.06488e-09
4.61585e-09
2.42002e-09
4.46858e-09
1.80173e-09
4.31247e-09
1.2161e-09
4.11466e-09
6.81409e-10
3.80383e-09
2.44617e-10
3.20326e-09
1.73619e-09
-2.29423e-10
2.04054e-09
-6.5668e-10
3.75942e-09
-1.18721e-09
4.47586e-09
-1.76935e-09
4.85575e-09
-2.38362e-09
5.10226e-09
-3.02399e-09
5.2978e-09
-3.68967e-09
5.47914e-09
-4.38197e-09
5.66286e-09
-5.10338e-09
5.85723e-09
-5.85728e-09
6.06673e-09
-6.64795e-09
6.29361e-09
-7.4803e-09
6.53829e-09
-8.35961e-09
6.79945e-09
-9.2911e-09
7.07398e-09
-1.02796e-08
7.35698e-09
-1.13293e-08
7.64153e-09
-1.24431e-08
7.91856e-09
-1.36228e-08
8.17656e-09
-1.48687e-08
8.40119e-09
-1.61787e-08
8.57486e-09
-1.75481e-08
8.67612e-09
-1.89685e-08
8.67916e-09
-2.04264e-08
8.55328e-09
-2.19011e-08
8.26264e-09
-2.33633e-08
7.76649e-09
-2.47723e-08
7.02022e-09
-2.60742e-08
5.9775e-09
-2.72003e-08
4.59384e-09
-2.80669e-08
2.83181e-09
-2.85771e-08
6.68081e-10
-2.86249e-08
-1.89789e-09
-2.81034e-08
-4.83428e-09
-2.69161e-08
-8.06853e-09
-2.49915e-08
-1.14832e-08
-2.2297e-08
-1.49197e-08
-1.88483e-08
-1.81921e-08
-1.4712e-08
-2.11072e-08
-1.00018e-08
-2.34831e-08
-4.87712e-09
-2.51558e-08
4.59741e-10
-2.59902e-08
5.78005e-09
-2.59079e-08
1.08573e-08
-2.49155e-08
1.54871e-08
-2.30978e-08
1.95098e-08
-2.05947e-08
2.28284e-08
-1.75843e-08
2.53831e-08
-1.42595e-08
2.71588e-08
-1.08172e-08
2.82056e-08
-7.42689e-09
2.86015e-08
-4.24207e-09
2.84536e-08
-1.37898e-09
2.78661e-08
1.10179e-09
2.6938e-08
3.17796e-09
2.5773e-08
4.85751e-09
2.44507e-08
6.16461e-09
2.30335e-08
7.13819e-09
2.15727e-08
7.82686e-09
2.01081e-08
8.2761e-09
1.86669e-08
8.52868e-09
1.72654e-08
8.62622e-09
1.59153e-08
8.60432e-09
1.46261e-08
8.49092e-09
1.34034e-08
8.30952e-09
1.22474e-08
8.08089e-09
1.11556e-08
7.82203e-09
1.01258e-08
7.54567e-09
9.15582e-09
7.26146e-09
8.24203e-09
6.97729e-09
7.37909e-09
6.69974e-09
6.56107e-09
6.43389e-09
5.78284e-09
6.18329e-09
5.04033e-09
5.95017e-09
4.33017e-09
5.73546e-09
3.64926e-09
5.53843e-09
2.99493e-09
5.35575e-09
2.36552e-09
5.1794e-09
1.7616e-09
4.99203e-09
1.18904e-09
4.75589e-09
6.66055e-10
4.38882e-09
2.39017e-10
3.68774e-09
1.99541e-09
-2.19349e-10
2.29094e-09
-6.30057e-10
4.23038e-09
-1.14123e-09
5.045e-09
-1.70403e-09
5.47962e-09
-2.29965e-09
5.76393e-09
-2.92191e-09
5.99143e-09
-3.5697e-09
6.20402e-09
-4.24413e-09
6.42056e-09
-4.94775e-09
6.65028e-09
-5.68435e-09
6.89817e-09
-6.45893e-09
7.16678e-09
-7.27756e-09
7.45685e-09
-8.14691e-09
7.7675e-09
-9.07389e-09
8.09623e-09
-1.00652e-08
8.43876e-09
-1.11271e-08
8.78884e-09
-1.22651e-08
9.13781e-09
-1.34835e-08
9.47417e-09
-1.47859e-08
9.78297e-09
-1.61738e-08
1.00451e-08
-1.7647e-08
1.02367e-08
-1.92015e-08
1.0328e-08
-2.08285e-08
1.02827e-08
-2.25121e-08
1.00572e-08
-2.42259e-08
9.60052e-09
-2.59304e-08
8.85489e-09
-2.7569e-08
7.7576e-09
-2.90655e-08
6.24473e-09
-3.03213e-08
4.25724e-09
-3.12166e-08
1.75028e-09
-3.16137e-08
-1.29413e-09
-3.13668e-08
-4.85189e-09
-3.03379e-08
-8.84215e-09
-2.84181e-08
-1.31183e-08
-2.55496e-08
-1.74716e-08
-2.174e-08
-2.16521e-08
-1.70635e-08
-2.54025e-08
-1.16528e-08
-2.84847e-08
-5.70039e-09
-3.06773e-08
5.35619e-10
-3.17827e-08
6.75006e-09
-3.16744e-08
1.26431e-08
-3.03599e-08
1.79553e-08
-2.79742e-08
2.24884e-08
-2.47221e-08
2.61271e-08
-2.08398e-08
2.88152e-08
-1.65864e-08
3.05546e-08
-1.22301e-08
3.14149e-08
-8.00439e-09
3.15144e-08
-4.0984e-09
3.10043e-08
-6.49005e-10
3.00298e-08
2.27579e-09
2.87196e-08
4.66284e-09
2.71918e-08
6.54033e-09
2.55412e-08
7.95887e-09
2.38384e-08
8.97646e-09
2.21364e-08
9.65732e-09
2.04735e-08
1.00623e-08
1.8873e-08
1.02466e-08
1.7346e-08
1.02612e-08
1.58996e-08
1.01489e-08
1.45389e-08
9.9428e-09
1.32645e-08
9.67058e-09
1.20727e-08
9.35558e-09
1.09578e-08
9.01626e-09
9.91523e-09
8.66611e-09
8.94068e-09
8.31511e-09
8.02884e-09
7.97109e-09
7.1732e-09
7.64025e-09
6.36708e-09
7.32705e-09
5.60455e-09
7.0343e-09
4.88061e-09
6.76338e-09
4.19077e-09
6.51433e-09
3.53086e-09
6.28543e-09
2.89736e-09
6.07226e-09
2.28808e-09
5.86549e-09
1.70334e-09
5.64558e-09
1.1489e-09
5.37019e-09
6.42783e-10
4.94685e-09
2.30181e-10
4.14789e-09
2.24147e-09
-2.07196e-10
2.52633e-09
-5.97539e-10
4.67521e-09
-1.08471e-09
5.58443e-09
-1.62308e-09
6.07244e-09
-2.19472e-09
6.39407e-09
-2.79346e-09
6.65341e-09
-3.41789e-09
6.89732e-09
-4.06897e-09
7.14701e-09
-4.7493e-09
7.41279e-09
-5.46302e-09
7.70019e-09
-6.21577e-09
8.01224e-09
-7.01451e-09
8.35023e-09
-7.86721e-09
8.714e-09
-8.78237e-09
9.10194e-09
-9.76865e-09
9.51086e-09
-1.08346e-08
9.93559e-09
-1.19886e-08
1.03684e-08
-1.32384e-08
1.07985e-08
-1.45915e-08
1.12111e-08
-1.60543e-08
1.15864e-08
-1.76322e-08
1.18989e-08
-1.93276e-08
1.21157e-08
-2.11388e-08
1.21956e-08
-2.30566e-08
1.20872e-08
-2.50611e-08
1.17287e-08
-2.71166e-08
1.1047e-08
-2.91668e-08
9.95901e-09
-3.11294e-08
8.37475e-09
-3.28906e-08
6.20428e-09
-3.43032e-08
3.36939e-09
-3.51883e-08
-1.78469e-10
-3.53466e-08
-4.43499e-09
-3.45796e-08
-9.31793e-09
-3.27219e-08
-1.46483e-08
-2.96766e-08
-2.01505e-08
-2.54397e-08
-2.54843e-08
-2.00963e-08
-3.03054e-08
-1.37986e-08
-3.43102e-08
-6.77506e-09
-3.72027e-08
6.41253e-10
-3.86866e-08
8.02815e-09
-3.85473e-08
1.49728e-08
-3.67909e-08
2.11439e-08
-3.36414e-08
2.63036e-08
-2.9411e-08
3.03136e-08
-2.44139e-08
3.3113e-08
-1.89854e-08
3.47416e-08
-1.34832e-08
3.53076e-08
-8.23898e-09
3.49821e-08
-3.49469e-09
3.39734e-08
6.01442e-10
3.24789e-08
3.98604e-09
3.06748e-08
6.66603e-09
2.86963e-08
8.69647e-09
2.66477e-08
1.01643e-08
2.46071e-08
1.11603e-08
2.26278e-08
1.17701e-08
2.07439e-08
1.20721e-08
1.89709e-08
1.21365e-08
1.73129e-08
1.20247e-08
1.57701e-08
1.17858e-08
1.43412e-08
1.14577e-08
1.30205e-08
1.10714e-08
1.17994e-08
1.0652e-08
1.06689e-08
1.02184e-08
9.62168e-09
9.78395e-09
8.65096e-09
9.35832e-09
7.74946e-09
8.94868e-09
6.9092e-09
8.56035e-09
6.12243e-09
8.1968e-09
5.38223e-09
7.85973e-09
4.68256e-09
7.54939e-09
4.01788e-09
7.26466e-09
3.38321e-09
7.00268e-09
2.77446e-09
6.75791e-09
2.18925e-09
6.51975e-09
1.6279e-09
6.26662e-09
1.09617e-09
5.9519e-09
6.11683e-10
5.47332e-09
2.17996e-10
4.58031e-09
2.47217e-09
-1.9293e-10
2.74497e-09
-5.59437e-10
5.09081e-09
-1.0185e-09
6.0902e-09
-1.52785e-09
6.62957e-09
-2.0706e-09
6.98735e-09
-2.64072e-09
7.27772e-09
-3.23658e-09
7.55226e-09
-3.85899e-09
7.83467e-09
-4.51057e-09
8.13651e-09
-5.19572e-09
8.46402e-09
-5.92052e-09
8.82088e-09
-6.69268e-09
9.20912e-09
-7.52119e-09
9.62956e-09
-8.41601e-09
1.00818e-08
-9.38773e-09
1.0564e-08
-1.04474e-08
1.10727e-08
-1.16064e-08
1.16015e-08
-1.28766e-08
1.21411e-08
-1.427e-08
1.26778e-08
-1.57993e-08
1.31924e-08
-1.74768e-08
1.36591e-08
-1.93136e-08
1.40433e-08
-2.13175e-08
1.42999e-08
-2.34896e-08
1.43712e-08
-2.58203e-08
1.41843e-08
-2.82832e-08
1.36494e-08
-3.08273e-08
1.2659e-08
-3.33687e-08
1.10899e-08
-3.57799e-08
8.80971e-09
-3.78831e-08
5.69029e-09
-3.94477e-08
1.63175e-09
-4.02004e-08
-3.40338e-09
-3.98538e-08
-9.34772e-09
-3.81547e-08
-1.59894e-08
-3.49452e-08
-2.29594e-08
-3.02064e-08
-2.97796e-08
-2.40443e-08
-3.59834e-08
-1.66265e-08
-4.1207e-08
-8.20912e-09
-4.50672e-08
7.79347e-10
-4.71047e-08
9.7302e-09
-4.69321e-08
1.8046e-08
-4.45503e-08
2.52983e-08
-4.03488e-08
3.12183e-08
-3.48169e-08
3.5659e-08
-2.83772e-08
3.85336e-08
-2.14435e-08
3.99251e-08
-1.44896e-08
4.00216e-08
-7.97945e-09
3.90809e-08
-2.24282e-09
3.73921e-08
2.55984e-09
3.52116e-08
6.39519e-09
3.27714e-08
9.31689e-09
3.02376e-08
1.14265e-08
2.77194e-08
1.28547e-08
2.52926e-08
1.37372e-08
2.30056e-08
1.41923e-08
2.08833e-08
1.43194e-08
1.89306e-08
1.42037e-08
1.71413e-08
1.39161e-08
1.55068e-08
1.35112e-08
1.40172e-08
1.30302e-08
1.26596e-08
1.25058e-08
1.14197e-08
1.19633e-08
1.02846e-08
1.14211e-08
9.24365e-09
1.08916e-08
8.28731e-09
1.03833e-08
7.40592e-09
9.9022e-09
6.58983e-09
9.45217e-09
5.83002e-09
9.03522e-09
5.11854e-09
8.65158e-09
4.44839e-09
8.30008e-09
3.81326e-09
7.9783e-09
3.20763e-09
7.68223e-09
2.62729e-09
7.40523e-09
2.06991e-09
7.1355e-09
1.53605e-09
6.84951e-09
1.0315e-09
6.4965e-09
5.73214e-10
5.96486e-09
2.02697e-10
4.98265e-09
2.68567e-09
-1.76584e-10
2.94504e-09
-5.16156e-10
5.47413e-09
-9.4359e-10
6.55856e-09
-1.41987e-09
7.14657e-09
-1.92922e-09
7.53856e-09
-2.46584e-09
7.85831e-09
-3.02797e-09
8.16202e-09
-3.61631e-09
8.47591e-09
-4.23343e-09
8.81305e-09
-4.88385e-09
9.18063e-09
-5.57397e-09
9.58311e-09
-6.31196e-09
1.00235e-08
-7.10762e-09
1.05038e-08
-7.97214e-09
1.1025e-08
-8.91788e-09
1.1587e-08
-9.95833e-09
1.21881e-08
-1.11081e-08
1.28243e-08
-1.23833e-08
1.34885e-08
-1.38014e-08
1.41693e-08
-1.53821e-08
1.48496e-08
-1.71462e-08
1.5505e-08
-1.91156e-08
1.61015e-08
-2.13106e-08
1.65928e-08
-2.37471e-08
1.69165e-08
-2.64319e-08
1.69906e-08
-2.93551e-08
1.67085e-08
-3.24801e-08
1.5936e-08
-3.57295e-08
1.45096e-08
-3.89689e-08
1.22405e-08
-4.19901e-08
8.92832e-09
-4.45004e-08
4.38953e-09
-4.61266e-08
-1.49378e-09
-4.64485e-08
-8.70246e-09
-4.50721e-08
-1.6999e-08
-4.17389e-08
-2.58789e-08
-3.64162e-08
-3.46388e-08
-2.92585e-08
-4.26286e-08
-2.04316e-08
-4.9479e-08
-1.01804e-08
-5.47283e-08
9.53321e-10
-5.76285e-08
1.20438e-08
-5.74227e-08
2.21766e-08
-5.41051e-08
3.0797e-08
-4.84134e-08
3.76239e-08
-4.11252e-08
4.25355e-08
-3.27956e-08
4.54164e-08
-2.38935e-08
4.63804e-08
-1.50797e-08
4.57403e-08
-6.99908e-09
4.38956e-08
-9.17945e-11
4.12667e-08
5.46617e-09
3.81957e-08
9.70049e-09
3.49573e-08
1.27544e-08
3.17463e-08
1.48193e-08
2.86793e-08
1.60877e-08
2.58216e-08
1.67418e-08
2.32058e-08
1.69394e-08
2.08386e-08
1.68056e-08
1.87084e-08
1.64409e-08
1.67962e-08
1.59236e-08
1.50823e-08
1.5311e-08
1.35463e-08
1.46455e-08
1.21669e-08
1.39592e-08
1.09235e-08
1.32759e-08
9.79868e-09
1.2612e-08
8.77791e-09
1.19777e-08
7.84847e-09
1.13797e-08
6.9982e-09
1.08219e-08
6.21566e-09
1.03064e-08
5.49065e-09
9.83317e-09
4.8143e-09
9.40073e-09
4.17891e-09
9.0064e-09
3.57773e-09
8.64648e-09
3.00516e-09
8.31587e-09
2.4571e-09
8.00695e-09
1.93153e-09
7.70669e-09
1.42933e-09
7.38951e-09
9.56269e-10
7.00051e-09
5.2844e-10
6.41906e-09
1.84903e-10
5.35317e-09
2.88042e-09
-1.58346e-10
3.12474e-09
-4.68439e-10
5.82213e-09
-8.61464e-10
6.98588e-09
-1.30133e-09
7.61916e-09
-1.77324e-09
8.04254e-09
-2.27164e-09
8.38913e-09
-2.79483e-09
8.71968e-09
-3.34341e-09
9.06303e-09
-3.91995e-09
9.43391e-09
-4.52894e-09
9.84074e-09
-5.17689e-09
1.0289e-08
-5.87221e-09
1.07827e-08
-6.62523e-09
1.13251e-08
-7.44806e-09
1.19188e-08
-8.35455e-09
1.25657e-08
-9.36038e-09
1.32664e-08
-1.04833e-08
1.40197e-08
-1.17437e-08
1.48216e-08
-1.31649e-08
1.56643e-08
-1.4774e-08
1.65348e-08
-1.6602e-08
1.74127e-08
-1.86831e-08
1.82675e-08
-2.10537e-08
1.90552e-08
-2.37498e-08
1.97132e-08
-2.68022e-08
2.0154e-08
-3.02281e-08
2.02577e-08
-3.40185e-08
1.98637e-08
-3.81184e-08
1.87633e-08
-4.2401e-08
1.66974e-08
-4.66373e-08
1.33645e-08
-5.04671e-08
8.44961e-09
-5.3386e-08
1.69019e-09
-5.47741e-08
-7.00979e-09
-5.40034e-08
-1.74194e-08
-5.06392e-08
-2.88386e-08
-4.46403e-08
-4.01721e-08
-3.62883e-08
-5.0455e-08
-2.56963e-08
-5.94984e-08
-1.29881e-08
-6.68274e-08
1.17743e-09
-7.11623e-08
1.52912e-08
-7.09166e-08
2.78603e-08
-6.60821e-08
3.82004e-08
-5.81897e-08
4.61128e-08
-4.85328e-08
5.15194e-08
-3.77473e-08
5.42492e-08
-2.62165e-08
5.44644e-08
-1.49417e-08
5.26849e-08
-4.90394e-09
4.95322e-08
3.33367e-09
4.56002e-08
9.63929e-09
4.1359e-08
1.41588e-08
3.71322e-08
1.7168e-08
3.31216e-08
1.89898e-08
2.94322e-08
1.99173e-08
2.61064e-08
2.01931e-08
2.31506e-08
2.00105e-08
2.05446e-08
1.95183e-08
1.82534e-08
1.8829e-08
1.62399e-08
1.80244e-08
1.44696e-08
1.71616e-08
1.29099e-08
1.62806e-08
1.15302e-08
1.54104e-08
1.03033e-08
1.45707e-08
9.20672e-09
1.3774e-08
8.22211e-09
1.30273e-08
7.33335e-09
1.23341e-08
6.52585e-09
1.16957e-08
5.78661e-09
1.11117e-08
5.10443e-09
1.05798e-08
4.46985e-09
1.00967e-08
3.87482e-09
9.65838e-09
3.31256e-09
9.25999e-09
2.77763e-09
8.8955e-09
2.26631e-09
8.55629e-09
1.7769e-09
8.22798e-09
1.31053e-09
7.88271e-09
8.72867e-10
7.4612e-09
4.79048e-10
6.83404e-09
1.65465e-10
5.69036e-09
3.05496e-09
-1.38735e-10
3.28238e-09
-4.17691e-10
6.13212e-09
-7.74612e-10
7.36885e-09
-1.17555e-09
8.04329e-09
-1.60652e-09
8.49432e-09
-2.06218e-09
8.8641e-09
-2.54107e-09
9.21826e-09
-3.04391e-09
9.58827e-09
-3.57327e-09
9.99065e-09
-4.13359e-09
1.04351e-08
-4.73126e-09
1.09282e-08
-5.37471e-09
1.14752e-08
-6.07445e-09
1.20806e-08
-6.84312e-09
1.27487e-08
-7.69562e-09
1.34835e-08
-8.64939e-09
1.42881e-08
-9.72491e-09
1.51649e-08
-1.09465e-08
1.61139e-08
-1.23431e-08
1.71326e-08
-1.39496e-08
1.82137e-08
-1.58074e-08
1.93441e-08
-1.79648e-08
2.05008e-08
-2.04775e-08
2.16472e-08
-2.34071e-08
2.27271e-08
-2.68174e-08
2.36551e-08
-3.07667e-08
2.43059e-08
-3.5293e-08
2.44989e-08
-4.03886e-08
2.39815e-08
-4.59644e-08
2.24136e-08
-5.17982e-08
1.93608e-08
-5.74735e-08
1.43134e-08
-6.2324e-08
6.75968e-09
-6.54333e-08
-3.64364e-09
-6.5778e-08
-1.67691e-08
-6.25866e-08
-3.16622e-08
-5.58086e-08
-4.65083e-08
-4.60506e-08
-5.9694e-08
-3.32658e-08
-7.17014e-08
-1.71872e-08
-8.22691e-08
1.47046e-09
-8.91446e-08
2.00625e-08
-8.88567e-08
3.59885e-08
-8.141e-08
4.84567e-08
-7.00967e-08
5.7616e-08
-5.7177e-08
6.35244e-08
-4.32201e-08
6.58078e-08
-2.81454e-08
6.47203e-08
-1.35628e-08
6.11373e-08
-1.05436e-09
5.60641e-08
8.64669e-09
5.03456e-08
1.55572e-08
4.45879e-08
2.00882e-08
3.91496e-08
2.27575e-08
3.42125e-08
2.40584e-08
2.98427e-08
2.44003e-08
2.6037e-08
2.40991e-08
2.27553e-08
2.3385e-08
1.99375e-08
2.24224e-08
1.75186e-08
2.13275e-08
1.54389e-08
2.01782e-08
1.36459e-08
1.90253e-08
1.20935e-08
1.79019e-08
1.07409e-08
1.68299e-08
9.55452e-09
1.58222e-08
8.50693e-09
1.48854e-08
7.57582e-09
1.40214e-08
6.74214e-09
1.32299e-08
5.98933e-09
1.25086e-08
5.30327e-09
1.18541e-08
4.6722e-09
1.12622e-08
4.08646e-09
1.07277e-08
3.53805e-09
1.02455e-08
3.02045e-09
9.80964e-09
2.52861e-09
9.41335e-09
2.05914e-09
9.04696e-09
1.61057e-09
8.69455e-09
1.18399e-09
8.32566e-09
7.84836e-10
7.87624e-09
4.27319e-10
7.20815e-09
1.45325e-10
5.99262e-09
3.20769e-09
-1.19e-10
3.41695e-09
-3.66691e-10
6.40283e-09
-6.87383e-10
7.70542e-09
-1.04783e-09
8.4155e-09
-1.43479e-09
8.8892e-09
-1.84334e-09
9.2775e-09
-2.27249e-09
9.65111e-09
-2.72336e-09
1.00443e-08
-3.19868e-09
1.04752e-08
-3.70281e-09
1.09549e-08
-4.24189e-09
1.14909e-08
-4.82408e-09
1.20897e-08
-5.4597e-09
1.2757e-08
-6.16145e-09
1.34988e-08
-6.94468e-09
1.43213e-08
-7.82794e-09
1.52306e-08
-8.83369e-09
1.62327e-08
-9.98942e-09
1.7333e-08
-1.1329e-08
1.85353e-08
-1.28941e-08
1.98408e-08
-1.47362e-08
2.12465e-08
-1.69186e-08
2.27418e-08
-1.95181e-08
2.43047e-08
-2.26271e-08
2.58939e-08
-2.6352e-08
2.74389e-08
-3.08083e-08
2.88236e-08
-3.61062e-08
2.98635e-08
-4.23247e-08
3.02755e-08
-4.94647e-08
2.96411e-08
-5.73719e-08
2.73702e-08
-6.56221e-08
2.26836e-08
-7.33848e-08
1.46658e-08
-7.93333e-08
2.48197e-09
-8.17634e-08
-1.41142e-08
-7.92059e-08
-3.3932e-08
-7.15694e-08
-5.37743e-08
-6.02445e-08
-7.05422e-08
-4.46908e-08
-8.66706e-08
-2.37946e-08
-1.02454e-07
1.90436e-09
-1.14034e-07
2.74853e-08
-1.13661e-07
4.81842e-08
-1.01434e-07
6.33122e-08
-8.4628e-08
7.37736e-08
-6.70881e-08
8.01035e-08
-4.90959e-08
8.1335e-08
-2.90893e-08
7.79249e-08
-9.99224e-09
7.14518e-08
5.54739e-09
6.35419e-08
1.66885e-08
5.53746e-08
2.38457e-08
4.76741e-08
2.78931e-08
4.07899e-08
2.97318e-08
3.48264e-08
3.00989e-08
2.97561e-08
2.95362e-08
2.5494e-08
2.84205e-08
2.19317e-08
2.7004e-08
1.89561e-08
2.54527e-08
1.64644e-08
2.38722e-08
1.43694e-08
2.23259e-08
1.25987e-08
2.08501e-08
1.10918e-08
1.94648e-08
9.79879e-09
1.818e-08
8.67967e-09
1.69986e-08
7.70292e-09
1.5919e-08
6.843e-09
1.49368e-08
6.0787e-09
1.40468e-08
5.39226e-09
1.32426e-08
4.76913e-09
1.25182e-08
4.19753e-09
1.18668e-08
3.66806e-09
1.1282e-08
3.17312e-09
1.07576e-08
2.70669e-09