/*--------------------------------*- C++ -*----------------------------------*\
| =========                 |                                                 |
| \\      /  F ield         | OpenFOAM: The Open Source CFD Toolbox           |
|  \\    /   O peration     | Version:  2412                                  |
|   \\  /    A nd           | Website:  www.openfoam.com                      |
|    \\/     M anipulation  |                                                 |
\*---------------------------------------------------------------------------*/
FoamFile
{
    version     2.0;
    format      ascii;
    arch        "LSB;label=32;scalar=64";
    class       volVectorField;
    location    "6.35";
    object      U;
}
// * * * * * * * * * * * * * * * * * * * * * * * * * * * * * * * * * * * * * //

dimensions      [0 1 -1 0 0 0 0];

internalField   nonuniform List<vector> 
6400
(
(-8.89089e-09 9.06471e-09 0)
(-3.72749e-08 1.75483e-08 0)
(-7.56595e-08 2.03063e-08 0)
(-1.21948e-07 2.13649e-08 0)
(-1.70886e-07 2.19711e-08 0)
(-2.2077e-07 2.24968e-08 0)
(-2.71598e-07 2.29946e-08 0)
(-3.23663e-07 2.34403e-08 0)
(-3.77295e-07 2.38061e-08 0)
(-4.32773e-07 2.40737e-08 0)
(-4.90272e-07 2.42592e-08 0)
(-5.49832e-07 2.44057e-08 0)
(-6.11374e-07 2.45799e-08 0)
(-6.74732e-07 2.48407e-08 0)
(-7.39696e-07 2.52214e-08 0)
(-8.06035e-07 2.57011e-08 0)
(-8.73513e-07 2.62073e-08 0)
(-9.41866e-07 2.66203e-08 0)
(-1.01076e-06 2.68027e-08 0)
(-1.07976e-06 2.66204e-08 0)
(-1.14822e-06 2.59741e-08 0)
(-1.21528e-06 2.48081e-08 0)
(-1.27979e-06 2.31101e-08 0)
(-1.34028e-06 2.08875e-08 0)
(-1.39491e-06 1.81441e-08 0)
(-1.44151e-06 1.48566e-08 0)
(-1.4776e-06 1.097e-08 0)
(-1.50041e-06 6.40565e-09 0)
(-1.50707e-06 1.08816e-09 0)
(-1.49469e-06 -5.01414e-09 0)
(-1.46061e-06 -1.18595e-08 0)
(-1.40257e-06 -1.93115e-08 0)
(-1.31896e-06 -2.71356e-08 0)
(-1.20903e-06 -3.50195e-08 0)
(-1.07302e-06 -4.26061e-08 0)
(-9.12317e-07 -4.95328e-08 0)
(-7.29451e-07 -5.54669e-08 0)
(-5.28071e-07 -6.01308e-08 0)
(-3.12814e-07 -6.33168e-08 0)
(-8.90977e-08 -6.48901e-08 0)
(1.37141e-07 -6.47823e-08 0)
(3.59774e-07 -6.29972e-08 0)
(5.72876e-07 -5.965e-08 0)
(7.71115e-07 -5.49442e-08 0)
(9.49919e-07 -4.89986e-08 0)
(1.10561e-06 -4.19325e-08 0)
(1.23599e-06 -3.43508e-08 0)
(1.34043e-06 -2.69239e-08 0)
(1.41869e-06 -1.93487e-08 0)
(1.47115e-06 -1.1317e-08 0)
(1.50012e-06 -3.95193e-09 0)
(1.50873e-06 1.49372e-09 0)
(1.49934e-06 5.71919e-09 0)
(1.47401e-06 1.04512e-08 0)
(1.43556e-06 1.53853e-08 0)
(1.3873e-06 1.8416e-08 0)
(1.33175e-06 1.92683e-08 0)
(1.2704e-06 2.02511e-08 0)
(1.20476e-06 2.28032e-08 0)
(1.13643e-06 2.54467e-08 0)
(1.06676e-06 2.61576e-08 0)
(9.96945e-07 2.52236e-08 0)
(9.28148e-07 2.45455e-08 0)
(8.60981e-07 2.50677e-08 0)
(7.95432e-07 2.60142e-08 0)
(7.31477e-07 2.63066e-08 0)
(6.694e-07 2.58254e-08 0)
(6.094e-07 2.52052e-08 0)
(5.51174e-07 2.49055e-08 0)
(4.94102e-07 2.48042e-08 0)
(4.37741e-07 2.45104e-08 0)
(3.82057e-07 2.38422e-08 0)
(3.27252e-07 2.29477e-08 0)
(2.73505e-07 2.2112e-08 0)
(2.20915e-07 2.15107e-08 0)
(1.69644e-07 2.11267e-08 0)
(1.20094e-07 2.07709e-08 0)
(7.35589e-08 2.00601e-08 0)
(3.35262e-08 1.82962e-08 0)
(6.12705e-09 1.16786e-08 0)
(-1.41372e-08 4.48083e-08 0)
(-6.97044e-08 8.5534e-08 0)
(-1.43504e-07 1.01707e-07 0)
(-2.2983e-07 1.09504e-07 0)
(-3.21251e-07 1.14082e-07 0)
(-4.15287e-07 1.1749e-07 0)
(-5.11931e-07 1.20461e-07 0)
(-6.11761e-07 1.23255e-07 0)
(-7.15472e-07 1.25991e-07 0)
(-8.23644e-07 1.28773e-07 0)
(-9.3659e-07 1.31715e-07 0)
(-1.0543e-06 1.34951e-07 0)
(-1.17645e-06 1.38582e-07 0)
(-1.30254e-06 1.42635e-07 0)
(-1.43203e-06 1.46999e-07 0)
(-1.56441e-06 1.51417e-07 0)
(-1.69925e-06 1.55485e-07 0)
(-1.83621e-06 1.58712e-07 0)
(-1.97487e-06 1.6057e-07 0)
(-2.11455e-06 1.60562e-07 0)
(-2.25413e-06 1.58249e-07 0)
(-2.39185e-06 1.53261e-07 0)
(-2.52521e-06 1.45263e-07 0)
(-2.65094e-06 1.33919e-07 0)
(-2.76503e-06 1.18853e-07 0)
(-2.8628e-06 9.96446e-08 0)
(-2.93908e-06 7.58616e-08 0)
(-2.98834e-06 4.7141e-08 0)
(-3.00492e-06 1.32876e-08 0)
(-2.9832e-06 -2.56026e-08 0)
(-2.91799e-06 -6.90538e-08 0)
(-2.80479e-06 -1.16149e-07 0)
(-2.64028e-06 -1.65528e-07 0)
(-2.42271e-06 -2.15439e-07 0)
(-2.15233e-06 -2.63846e-07 0)
(-1.83167e-06 -3.08567e-07 0)
(-1.46571e-06 -3.47436e-07 0)
(-1.06181e-06 -3.78459e-07 0)
(-6.29477e-07 -3.99968e-07 0)
(-1.79891e-07 -4.10756e-07 0)
(2.747e-07 -4.10175e-07 0)
(7.21692e-07 -3.98202e-07 0)
(1.14901e-06 -3.75529e-07 0)
(1.5459e-06 -3.43513e-07 0)
(1.90316e-06 -3.03756e-07 0)
(2.2134e-06 -2.5805e-07 0)
(2.47263e-06 -2.09039e-07 0)
(2.67985e-06 -1.59415e-07 0)
(2.83377e-06 -1.10354e-07 0)
(2.9351e-06 -6.28735e-08 0)
(2.99033e-06 -1.9196e-08 0)
(3.00596e-06 1.84749e-08 0)
(2.98391e-06 5.02871e-08 0)
(2.92739e-06 7.80978e-08 0)
(2.84521e-06 1.02063e-07 0)
(2.74627e-06 1.20519e-07 0)
(2.63287e-06 1.33317e-07 0)
(2.50479e-06 1.42739e-07 0)
(2.36708e-06 1.50526e-07 0)
(2.22729e-06 1.55982e-07 0)
(2.088e-06 1.57914e-07 0)
(1.94776e-06 1.57016e-07 0)
(1.80708e-06 1.55231e-07 0)
(1.66935e-06 1.53539e-07 0)
(1.53712e-06 1.51447e-07 0)
(1.41016e-06 1.48298e-07 0)
(1.28715e-06 1.44294e-07 0)
(1.16758e-06 1.40132e-07 0)
(1.05169e-06 1.36191e-07 0)
(9.39437e-07 1.32298e-07 0)
(8.30026e-07 1.28171e-07 0)
(7.22527e-07 1.23832e-07 0)
(6.16604e-07 1.19623e-07 0)
(5.12701e-07 1.15905e-07 0)
(4.11733e-07 1.12777e-07 0)
(3.14662e-07 1.09908e-07 0)
(2.22514e-07 1.06326e-07 0)
(1.37597e-07 9.99918e-08 0)
(6.57489e-08 8.61801e-08 0)
(1.24202e-08 4.8667e-08 0)
(-1.53814e-08 9.8105e-08 0)
(-8.26244e-08 1.80379e-07 0)
(-1.72349e-07 2.13467e-07 0)
(-2.76403e-07 2.30342e-07 0)
(-3.86695e-07 2.4058e-07 0)
(-5.00702e-07 2.48132e-07 0)
(-6.18415e-07 2.54684e-07 0)
(-7.4039e-07 2.60963e-07 0)
(-8.673e-07 2.67368e-07 0)
(-9.99722e-07 2.74171e-07 0)
(-1.13798e-06 2.81604e-07 0)
(-1.28212e-06 2.89815e-07 0)
(-1.43189e-06 2.98848e-07 0)
(-1.58689e-06 3.08554e-07 0)
(-1.74668e-06 3.18567e-07 0)
(-1.91083e-06 3.28282e-07 0)
(-2.07896e-06 3.36915e-07 0)
(-2.25065e-06 3.43561e-07 0)
(-2.42529e-06 3.4729e-07 0)
(-2.60192e-06 3.47192e-07 0)
(-2.77897e-06 3.42413e-07 0)
(-2.95416e-06 3.32119e-07 0)
(-3.12433e-06 3.15462e-07 0)
(-3.28542e-06 2.91513e-07 0)
(-3.43249e-06 2.59263e-07 0)
(-3.55981e-06 2.17642e-07 0)
(-3.66093e-06 1.65648e-07 0)
(-3.72887e-06 1.025e-07 0)
(-3.75635e-06 2.78523e-08 0)
(-3.73604e-06 -5.80022e-08 0)
(-3.66101e-06 -1.53955e-07 0)
(-3.5252e-06 -2.57982e-07 0)
(-3.32399e-06 -3.67125e-07 0)
(-3.05482e-06 -4.77588e-07 0)
(-2.71776e-06 -5.8493e-07 0)
(-2.31586e-06 -6.84341e-07 0)
(-1.8554e-06 -7.70974e-07 0)
(-1.34578e-06 -8.40301e-07 0)
(-7.99252e-07 -8.88472e-07 0)
(-2.30255e-07 -9.12659e-07 0)
(3.45345e-07 -9.11337e-07 0)
(9.11161e-07 -8.84428e-07 0)
(1.45138e-06 -8.33433e-07 0)
(1.95216e-06 -7.61443e-07 0)
(2.40195e-06 -6.72419e-07 0)
(2.791e-06 -5.70591e-07 0)
(3.11349e-06 -4.61312e-07 0)
(3.36912e-06 -3.50376e-07 0)
(3.55807e-06 -2.41591e-07 0)
(3.68026e-06 -1.37844e-07 0)
(3.74172e-06 -4.24658e-08 0)
(3.75217e-06 4.13182e-08 0)
(3.71816e-06 1.12717e-07 0)
(3.64391e-06 1.7346e-07 0)
(3.53629e-06 2.2429e-07 0)
(3.40501e-06 2.64269e-07 0)
(3.2568e-06 2.93553e-07 0)
(3.09428e-06 3.14583e-07 0)
(2.92139e-06 3.29707e-07 0)
(2.74419e-06 3.39304e-07 0)
(2.56644e-06 3.43123e-07 0)
(2.38907e-06 3.42219e-07 0)
(2.2135e-06 3.38548e-07 0)
(2.04236e-06 3.33348e-07 0)
(1.87742e-06 3.26711e-07 0)
(1.71863e-06 3.18551e-07 0)
(1.56527e-06 3.09296e-07 0)
(1.41708e-06 2.99666e-07 0)
(1.27406e-06 2.90089e-07 0)
(1.13582e-06 2.8061e-07 0)
(1.00145e-06 2.71193e-07 0)
(8.70104e-07 2.62037e-07 0)
(7.41557e-07 2.53504e-07 0)
(6.16271e-07 2.45871e-07 0)
(4.95082e-07 2.39016e-07 0)
(3.78889e-07 2.32159e-07 0)
(2.68648e-07 2.23374e-07 0)
(1.66949e-07 2.08517e-07 0)
(8.03708e-08 1.77895e-07 0)
(1.49108e-08 9.81554e-08 0)
(-1.5815e-08 1.5624e-07 0)
(-8.82098e-08 2.85064e-07 0)
(-1.85575e-07 3.371e-07 0)
(-2.98269e-07 3.64054e-07 0)
(-4.17777e-07 3.8076e-07 0)
(-5.41583e-07 3.93277e-07 0)
(-6.69667e-07 4.0428e-07 0)
(-8.02513e-07 4.15009e-07 0)
(-9.40717e-07 4.26128e-07 0)
(-1.08481e-06 4.3809e-07 0)
(-1.23516e-06 4.51181e-07 0)
(-1.39189e-06 4.65551e-07 0)
(-1.55496e-06 4.81119e-07 0)
(-1.72421e-06 4.97557e-07 0)
(-1.89942e-06 5.14218e-07 0)
(-2.08034e-06 5.30196e-07 0)
(-2.26668e-06 5.44344e-07 0)
(-2.45802e-06 5.554e-07 0)
(-2.65362e-06 5.62022e-07 0)
(-2.85235e-06 5.62865e-07 0)
(-3.05242e-06 5.5654e-07 0)
(-3.25133e-06 5.41597e-07 0)
(-3.44568e-06 5.16449e-07 0)
(-3.63117e-06 4.79356e-07 0)
(-3.80246e-06 4.28434e-07 0)
(-3.95329e-06 3.61785e-07 0)
(-4.07642e-06 2.7767e-07 0)
(-4.16383e-06 1.74783e-07 0)
(-4.20692e-06 5.25466e-08 0)
(-4.19686e-06 -8.85793e-08 0)
(-4.12506e-06 -2.46838e-07 0)
(-3.98385e-06 -4.18986e-07 0)
(-3.76721e-06 -6.00237e-07 0)
(-3.47148e-06 -7.84348e-07 0)
(-3.09614e-06 -9.63897e-07 0)
(-2.64429e-06 -1.13072e-06 0)
(-2.12292e-06 -1.27648e-06 0)
(-1.54288e-06 -1.39332e-06 0)
(-9.18531e-07 -1.47448e-06 0)
(-2.67026e-07 -1.51498e-06 0)
(3.92655e-07 -1.51219e-06 0)
(1.04083e-06 -1.46609e-06 0)
(1.65835e-06 -1.37938e-06 0)
(2.2285e-06 -1.25743e-06 0)
(2.7379e-06 -1.10731e-06 0)
(3.17547e-06 -9.36655e-07 0)
(3.53418e-06 -7.54392e-07 0)
(3.81384e-06 -5.69616e-07 0)
(4.01569e-06 -3.89019e-07 0)
(4.14132e-06 -2.1831e-07 0)
(4.19848e-06 -6.20549e-08 0)
(4.19775e-06 7.61859e-08 0)
(4.14688e-06 1.94433e-07 0)
(4.05211e-06 2.9324e-07 0)
(3.9223e-06 3.73722e-07 0)
(3.76806e-06 4.3688e-07 0)
(3.59595e-06 4.84108e-07 0)
(3.40863e-06 5.17391e-07 0)
(3.21111e-06 5.39125e-07 0)
(3.01059e-06 5.51535e-07 0)
(2.81106e-06 5.56354e-07 0)
(2.61301e-06 5.54992e-07 0)
(2.41748e-06 5.4877e-07 0)
(2.22722e-06 5.38868e-07 0)
(2.04434e-06 5.26281e-07 0)
(1.86895e-06 5.11842e-07 0)
(1.70013e-06 4.96273e-07 0)
(1.53729e-06 4.80122e-07 0)
(1.38026e-06 4.63801e-07 0)
(1.22874e-06 4.47641e-07 0)
(1.08202e-06 4.32022e-07 0)
(9.39335e-07 4.17328e-07 0)
(8.00384e-07 4.03865e-07 0)
(6.65431e-07 3.91669e-07 0)
(5.35118e-07 3.80324e-07 0)
(4.10159e-07 3.68572e-07 0)
(2.91397e-07 3.53496e-07 0)
(1.81356e-07 3.28816e-07 0)
(8.71095e-08 2.79259e-07 0)
(1.58608e-08 1.53105e-07 0)
(-1.58029e-08 2.14665e-07 0)
(-8.98638e-08 3.91952e-07 0)
(-1.90187e-07 4.63923e-07 0)
(-3.06411e-07 5.01408e-07 0)
(-4.29815e-07 5.24973e-07 0)
(-5.57865e-07 5.42907e-07 0)
(-6.90497e-07 5.58924e-07 0)
(-8.28117e-07 5.74722e-07 0)
(-9.71258e-07 5.91235e-07 0)
(-1.12043e-06 6.09024e-07 0)
(-1.27605e-06 6.28445e-07 0)
(-1.43841e-06 6.49592e-07 0)
(-1.60772e-06 6.72307e-07 0)
(-1.78407e-06 6.96079e-07 0)
(-1.96755e-06 7.20074e-07 0)
(-2.15813e-06 7.4312e-07 0)
(-2.35567e-06 7.63805e-07 0)
(-2.55981e-06 7.80517e-07 0)
(-2.76983e-06 7.91532e-07 0)
(-2.98456e-06 7.94993e-07 0)
(-3.20224e-06 7.88907e-07 0)
(-3.42035e-06 7.71067e-07 0)
(-3.63556e-06 7.39026e-07 0)
(-3.84351e-06 6.90071e-07 0)
(-4.03876e-06 6.21321e-07 0)
(-4.21466e-06 5.29871e-07 0)
(-4.36334e-06 4.13069e-07 0)
(-4.4758e-06 2.68855e-07 0)
(-4.54209e-06 9.61665e-08 0)
(-4.55172e-06 -1.04626e-07 0)
(-4.49419e-06 -3.31299e-07 0)
(-4.35979e-06 -5.79443e-07 0)
(-4.14052e-06 -8.42271e-07 0)
(-3.83103e-06 -1.11068e-06 0)
(-3.42961e-06 -1.37363e-06 0)
(-2.93895e-06 -1.6188e-06 0)
(-2.36646e-06 -1.83353e-06 0)
(-1.72435e-06 -2.00584e-06 0)
(-1.02925e-06 -2.12542e-06 0)
(-3.01457e-07 -2.18471e-06 0)
(4.36333e-07 -2.17976e-06 0)
(1.16049e-06 -2.11076e-06 0)
(1.84797e-06 -1.98197e-06 0)
(2.47885e-06 -1.8018e-06 0)
(3.03794e-06 -1.58114e-06 0)
(3.51251e-06 -1.33133e-06 0)
(3.89448e-06 -1.06535e-06 0)
(4.1854e-06 -7.96828e-07 0)
(4.38873e-06 -5.35995e-07 0)
(4.50674e-06 -2.90771e-07 0)
(4.54805e-06 -6.72418e-08 0)
(4.5256e-06 1.2956e-07 0)
(4.45084e-06 2.96562e-07 0)
(4.33192e-06 4.3465e-07 0)
(4.17699e-06 5.4596e-07 0)
(3.99688e-06 6.32148e-07 0)
(3.8001e-06 6.95369e-07 0)
(3.59098e-06 7.38926e-07 0)
(3.37436e-06 7.66689e-07 0)
(3.15625e-06 7.81816e-07 0)
(2.94005e-06 7.86399e-07 0)
(2.7267e-06 7.82284e-07 0)
(2.51771e-06 7.71511e-07 0)
(2.31565e-06 7.55964e-07 0)
(2.12213e-06 7.3698e-07 0)
(1.93695e-06 7.15515e-07 0)
(1.75919e-06 6.92425e-07 0)
(1.58833e-06 6.68597e-07 0)
(1.4242e-06 6.44804e-07 0)
(1.26639e-06 6.21663e-07 0)
(1.11412e-06 5.99621e-07 0)
(9.6659e-07 5.7904e-07 0)
(8.2342e-07 5.60133e-07 0)
(6.84769e-07 5.42856e-07 0)
(5.51096e-07 5.26586e-07 0)
(4.22913e-07 5.09613e-07 0)
(3.00837e-07 4.8797e-07 0)
(1.87354e-07 4.53057e-07 0)
(8.97271e-08 3.83829e-07 0)
(1.62628e-08 2.09584e-07 0)
(-1.55055e-08 2.72212e-07 0)
(-8.9279e-08 4.98298e-07 0)
(-1.89815e-07 5.90708e-07 0)
(-3.06529e-07 6.39038e-07 0)
(-4.30708e-07 6.6972e-07 0)
(-5.59793e-07 6.93396e-07 0)
(-6.93638e-07 7.14797e-07 0)
(-8.32568e-07 7.36116e-07 0)
(-9.77048e-07 7.5849e-07 0)
(-1.12759e-06 7.8262e-07 0)
(-1.28471e-06 8.08868e-07 0)
(-1.44891e-06 8.37326e-07 0)
(-1.62065e-06 8.67725e-07 0)
(-1.80038e-06 8.99464e-07 0)
(-1.98848e-06 9.31535e-07 0)
(-2.18521e-06 9.62616e-07 0)
(-2.39063e-06 9.91058e-07 0)
(-2.60454e-06 1.01499e-06 0)
(-2.82635e-06 1.03228e-06 0)
(-3.05503e-06 1.04058e-06 0)
(-3.28901e-06 1.0372e-06 0)
(-3.52601e-06 1.01915e-06 0)
(-3.7629e-06 9.82973e-07 0)
(-3.99549e-06 9.2489e-07 0)
(-4.21832e-06 8.40826e-07 0)
(-4.42449e-06 7.26654e-07 0)
(-4.60552e-06 5.78491e-07 0)
(-4.75139e-06 3.93143e-07 0)
(-4.85061e-06 1.68633e-07 0)
(-4.89068e-06 -9.51597e-08 0)
(-4.85862e-06 -3.95851e-07 0)
(-4.74194e-06 -7.27952e-07 0)
(-4.52971e-06 -1.08249e-06 0)
(-4.21401e-06 -1.447e-06 0)
(-3.79118e-06 -1.80603e-06 0)
(-3.26298e-06 -2.14218e-06 0)
(-2.63716e-06 -2.43752e-06 0)
(-1.92753e-06 -2.67506e-06 0)
(-1.15358e-06 -2.84012e-06 0)
(-3.39692e-07 -2.92182e-06 0)
(4.86482e-07 -2.91454e-06 0)
(1.29612e-06 -2.81868e-06 0)
(2.06094e-06 -2.64037e-06 0)
(2.75679e-06 -2.3916e-06 0)
(3.36669e-06 -2.08838e-06 0)
(3.8769e-06 -1.74697e-06 0)
(4.27774e-06 -1.3848e-06 0)
(4.57156e-06 -1.02017e-06 0)
(4.76527e-06 -6.68858e-07 0)
(4.86467e-06 -3.42429e-07 0)
(4.8806e-06 -4.7936e-08 0)
(4.82693e-06 2.09756e-07 0)
(4.71768e-06 4.27047e-07 0)
(4.5647e-06 6.04073e-07 0)
(4.37799e-06 7.44198e-07 0)
(4.16859e-06 8.51371e-07 0)
(3.94508e-06 9.29412e-07 0)
(3.71217e-06 9.82198e-07 0)
(3.47505e-06 1.01397e-06 0)
(3.23945e-06 1.02882e-06 0)
(3.0083e-06 1.03017e-06 0)
(2.78222e-06 1.0209e-06 0)
(2.56251e-06 1.00366e-06 0)
(2.35135e-06 9.80645e-07 0)
(2.15005e-06 9.53541e-07 0)
(1.95832e-06 9.23665e-07 0)
(1.77525e-06 8.92233e-07 0)
(1.60019e-06 8.60325e-07 0)
(1.43277e-06 8.28837e-07 0)
(1.27242e-06 7.98415e-07 0)
(1.11828e-06 7.69583e-07 0)
(9.69524e-07 7.42731e-07 0)
(8.25722e-07 7.18106e-07 0)
(6.86874e-07 6.95554e-07 0)
(5.53212e-07 6.74224e-07 0)
(4.24984e-07 6.51854e-07 0)
(3.02622e-07 6.23391e-07 0)
(1.88529e-07 5.77903e-07 0)
(9.01024e-08 4.88446e-07 0)
(1.63407e-08 2.65771e-07 0)
(-1.50416e-08 3.28195e-07 0)
(-8.73913e-08 6.02452e-07 0)
(-1.86439e-07 7.15416e-07 0)
(-3.01733e-07 7.74775e-07 0)
(-4.24724e-07 8.12797e-07 0)
(-5.52838e-07 8.42473e-07 0)
(-6.85839e-07 8.69606e-07 0)
(-8.23954e-07 8.96823e-07 0)
(-9.676e-07 9.25506e-07 0)
(-1.1173e-06 9.56419e-07 0)
(-1.2737e-06 9.89983e-07 0)
(-1.43751e-06 1.02624e-06 0)
(-1.60952e-06 1.0649e-06 0)
(-1.7905e-06 1.10528e-06 0)
(-1.98118e-06 1.14632e-06 0)
(-2.18212e-06 1.1866e-06 0)
(-2.39367e-06 1.22434e-06 0)
(-2.61588e-06 1.25744e-06 0)
(-2.84844e-06 1.28344e-06 0)
(-3.09066e-06 1.29944e-06 0)
(-3.34133e-06 1.30211e-06 0)
(-3.5986e-06 1.28753e-06 0)
(-3.85974e-06 1.25125e-06 0)
(-4.12088e-06 1.18822e-06 0)
(-4.37674e-06 1.09299e-06 0)
(-4.62027e-06 9.59873e-07 0)
(-4.84246e-06 7.83323e-07 0)
(-5.03218e-06 5.58449e-07 0)
(-5.17621e-06 2.81754e-07 0)
(-5.2595e-06 -4.79693e-08 0)
(-5.26579e-06 -4.28626e-07 0)
(-5.17868e-06 -8.53855e-07 0)
(-4.9831e-06 -1.31234e-06 0)
(-4.66724e-06 -1.78771e-06 0)
(-4.2245e-06 -2.25915e-06 0)
(-3.65519e-06 -2.70298e-06 0)
(-2.96735e-06 -3.09472e-06 0)
(-2.17677e-06 -3.41112e-06 0)
(-1.30652e-06 -3.63189e-06 0)
(-3.86418e-07 -3.74145e-06 0)
(5.4907e-07 -3.73158e-06 0)
(1.46407e-06 -3.60295e-06 0)
(2.32347e-06 -3.36434e-06 0)
(3.09709e-06 -3.03221e-06 0)
(3.7651e-06 -2.62902e-06 0)
(4.31311e-06 -2.17821e-06 0)
(4.73085e-06 -1.70374e-06 0)
(5.0214e-06 -1.22868e-06 0)
(5.19497e-06 -7.74775e-07 0)
(5.26257e-06 -3.58127e-07 0)
(5.23959e-06 1.22646e-08 0)
(5.14255e-06 3.31725e-07 0)
(4.98804e-06 5.98242e-07 0)
(4.79132e-06 8.1266e-07 0)
(4.56457e-06 9.79487e-07 0)
(4.31924e-06 1.10438e-06 0)
(4.06395e-06 1.19268e-06 0)
(3.80362e-06 1.24978e-06 0)
(3.54349e-06 1.28129e-06 0)
(3.28887e-06 1.29236e-06 0)
(3.04209e-06 1.28727e-06 0)
(2.80347e-06 1.26976e-06 0)
(2.57393e-06 1.24319e-06 0)
(2.35519e-06 1.21044e-06 0)
(2.14803e-06 1.1736e-06 0)
(1.95188e-06 1.13427e-06 0)
(1.76563e-06 1.09373e-06 0)
(1.58848e-06 1.05313e-06 0)
(1.41989e-06 1.01338e-06 0)
(1.25916e-06 9.75251e-07 0)
(1.10538e-06 9.39318e-07 0)
(9.5768e-07 9.06045e-07 0)
(8.15488e-07 8.75591e-07 0)
(6.78588e-07 8.47661e-07 0)
(5.46934e-07 8.21068e-07 0)
(4.20538e-07 7.93024e-07 0)
(2.99676e-07 7.5739e-07 0)
(1.86708e-07 7.00953e-07 0)
(8.90659e-08 5.91051e-07 0)
(1.6157e-08 3.20695e-07 0)
(-1.44587e-08 3.82108e-07 0)
(-8.45845e-08 7.03256e-07 0)
(-1.80934e-07 8.36583e-07 0)
(-2.93432e-07 9.07047e-07 0)
(-4.13807e-07 9.52558e-07 0)
(-5.39498e-07 9.8847e-07 0)
(-6.70172e-07 1.02161e-06 0)
(-8.05973e-07 1.05508e-06 0)
(-9.47267e-07 1.09043e-06 0)
(-1.09462e-06 1.12856e-06 0)
(-1.2488e-06 1.16986e-06 0)
(-1.41075e-06 1.21443e-06 0)
(-1.58154e-06 1.26194e-06 0)
(-1.76231e-06 1.31175e-06 0)
(-1.95411e-06 1.36281e-06 0)
(-2.15786e-06 1.41369e-06 0)
(-2.37426e-06 1.46258e-06 0)
(-2.60375e-06 1.50721e-06 0)
(-2.84646e-06 1.54482e-06 0)
(-3.10221e-06 1.57207e-06 0)
(-3.37038e-06 1.58493e-06 0)
(-3.64975e-06 1.57863e-06 0)
(-3.93822e-06 1.54757e-06 0)
(-4.23249e-06 1.48539e-06 0)
(-4.52766e-06 1.38494e-06 0)
(-4.81682e-06 1.23859e-06 0)
(-5.09055e-06 1.03853e-06 0)
(-5.33668e-06 7.7745e-07 0)
(-5.53995e-06 4.49499e-07 0)
(-5.68219e-06 5.15366e-08 0)
(-5.74281e-06 -4.15391e-07 0)
(-5.70006e-06 -9.44539e-07 0)
(-5.53299e-06 -1.52229e-06 0)
(-5.22417e-06 -2.12775e-06 0)
(-4.76265e-06 -2.73352e-06 0)
(-4.1465e-06 -3.30784e-06 0)
(-3.38399e-06 -3.81778e-06 0)
(-2.49322e-06 -4.23204e-06 0)
(-1.50158e-06 -4.52275e-06 0)
(-4.45807e-07 -4.66758e-06 0)
(6.29906e-07 -4.65406e-06 0)
(1.67938e-06 -4.48325e-06 0)
(2.65829e-06 -4.16838e-06 0)
(3.52855e-06 -3.73244e-06 0)
(4.26604e-06 -3.206e-06 0)
(4.85544e-06 -2.622e-06 0)
(5.28744e-06 -2.01388e-06 0)
(5.5666e-06 -1.41065e-06 0)
(5.70682e-06 -8.40078e-07 0)
(5.72666e-06 -3.23289e-07 0)
(5.6484e-06 1.2881e-07 0)
(5.49291e-06 5.11739e-07 0)
(5.27978e-06 8.25881e-07 0)
(5.02741e-06 1.07395e-06 0)
(4.7507e-06 1.26199e-06 0)
(4.46159e-06 1.39815e-06 0)
(4.16848e-06 1.49003e-06 0)
(3.87642e-06 1.54492e-06 0)
(3.59047e-06 1.57022e-06 0)
(3.31512e-06 1.57246e-06 0)
(3.05192e-06 1.55687e-06 0)
(2.80071e-06 1.52789e-06 0)
(2.56198e-06 1.48952e-06 0)
(2.3367e-06 1.44499e-06 0)
(2.12499e-06 1.39672e-06 0)
(1.9258e-06 1.34642e-06 0)
(1.73781e-06 1.29551e-06 0)
(1.56006e-06 1.24522e-06 0)
(1.39187e-06 1.19656e-06 0)
(1.23242e-06 1.15034e-06 0)
(1.08069e-06 1.10717e-06 0)
(9.35674e-07 1.06739e-06 0)
(7.96626e-07 1.03103e-06 0)
(6.63061e-07 9.9752e-07 0)
(5.34685e-07 9.65371e-07 0)
(4.1132e-07 9.31268e-07 0)
(2.93171e-07 8.88088e-07 0)
(1.82548e-07 8.20407e-07 0)
(8.68807e-08 6.90158e-07 0)
(1.57094e-08 3.7369e-07 0)
(-1.37608e-08 4.33553e-07 0)
(-8.09859e-08 7.99843e-07 0)
(-1.73661e-07 9.5312e-07 0)
(-2.82234e-07 1.03462e-06 0)
(-3.98814e-07 1.08771e-06 0)
(-5.20872e-07 1.12999e-06 0)
(-6.47999e-07 1.16935e-06 0)
(-7.80254e-07 1.20932e-06 0)
(-9.17982e-07 1.25167e-06 0)
(-1.06179e-06 1.29734e-06 0)
(-1.21256e-06 1.34681e-06 0)
(-1.37144e-06 1.40018e-06 0)
(-1.53978e-06 1.45722e-06 0)
(-1.71902e-06 1.51734e-06 0)
(-1.91057e-06 1.57962e-06 0)
(-2.11574e-06 1.64272e-06 0)
(-2.33565e-06 1.70486e-06 0)
(-2.57126e-06 1.76372e-06 0)
(-2.82332e-06 1.81633e-06 0)
(-3.09236e-06 1.85895e-06 0)
(-3.37855e-06 1.887e-06 0)
(-3.68155e-06 1.89485e-06 0)
(-4.0002e-06 1.87582e-06 0)
(-4.3321e-06 1.82201e-06 0)
(-4.67316e-06 1.72436e-06 0)
(-5.01696e-06 1.57278e-06 0)
(-5.35407e-06 1.35653e-06 0)
(-5.67137e-06 1.06495e-06 0)
(-5.95145e-06 6.88706e-07 0)
(-6.17237e-06 2.21438e-07 0)
(-6.30802e-06 -3.38153e-07 0)
(-6.32945e-06 -9.83981e-07 0)
(-6.20748e-06 -1.7005e-06 0)
(-5.91647e-06 -2.46159e-06 0)
(-5.43887e-06 -3.23132e-06 0)
(-4.76928e-06 -3.96712e-06 0)
(-3.91609e-06 -4.62477e-06 0)
(-2.90012e-06 -5.16271e-06 0)
(-1.7536e-06 -5.54302e-06 0)
(-5.22047e-07 -5.73353e-06 0)
(7.36367e-07 -5.71483e-06 0)
(1.95974e-06 -5.48843e-06 0)
(3.09075e-06 -5.07517e-06 0)
(4.08167e-06 -4.50811e-06 0)
(4.90263e-06 -3.828e-06 0)
(5.53647e-06 -3.07947e-06 0)
(5.977e-06 -2.30894e-06 0)
(6.23314e-06 -1.55499e-06 0)
(6.32307e-06 -8.50777e-07 0)
(6.27469e-06 -2.22126e-07 0)
(6.11999e-06 3.17665e-07 0)
(5.88674e-06 7.6453e-07 0)
(5.59865e-06 1.12199e-06 0)
(5.27665e-06 1.39718e-06 0)
(4.93833e-06 1.5989e-06 0)
(4.59671e-06 1.73806e-06 0)
(4.25958e-06 1.82533e-06 0)
(3.93172e-06 1.87051e-06 0)
(3.61763e-06 1.88296e-06 0)
(3.32051e-06 1.87065e-06 0)
(3.04068e-06 1.83979e-06 0)
(2.77724e-06 1.79551e-06 0)
(2.53e-06 1.74217e-06 0)
(2.29913e-06 1.68328e-06 0)
(2.08397e-06 1.62138e-06 0)
(1.883e-06 1.55837e-06 0)
(1.69467e-06 1.49578e-06 0)
(1.51783e-06 1.43495e-06 0)
(1.35158e-06 1.37689e-06 0)
(1.19494e-06 1.32237e-06 0)
(1.04669e-06 1.27184e-06 0)
(9.05656e-07 1.22546e-06 0)
(7.70858e-07 1.18298e-06 0)
(6.41598e-07 1.1436e-06 0)
(5.17385e-07 1.10552e-06 0)
(3.97946e-07 1.06499e-06 0)
(2.8347e-07 1.01394e-06 0)
(1.76231e-07 9.34894e-07 0)
(8.35893e-08 7.84694e-07 0)
(1.49906e-08 4.24224e-07 0)
(-1.29379e-08 4.82166e-07 0)
(-7.66359e-08 8.91512e-07 0)
(-1.64784e-07 1.06411e-06 0)
(-2.68448e-07 1.15646e-06 0)
(-3.80177e-07 1.21709e-06 0)
(-4.9752e-07 1.2658e-06 0)
(-6.1999e-07 1.31146e-06 0)
(-7.47594e-07 1.35808e-06 0)
(-8.80647e-07 1.40761e-06 0)
(-1.01981e-06 1.4611e-06 0)
(-1.16606e-06 1.5191e-06 0)
(-1.32072e-06 1.58179e-06 0)
(-1.48535e-06 1.64905e-06 0)
(-1.66168e-06 1.72049e-06 0)
(-1.85145e-06 1.79531e-06 0)
(-2.05639e-06 1.87241e-06 0)
(-2.27813e-06 1.95011e-06 0)
(-2.51827e-06 2.02615e-06 0)
(-2.77832e-06 2.0975e-06 0)
(-3.05971e-06 2.1602e-06 0)
(-3.36366e-06 2.2092e-06 0)
(-3.691e-06 2.23822e-06 0)
(-4.04187e-06 2.23945e-06 0)
(-4.4153e-06 2.20346e-06 0)
(-4.80856e-06 2.119e-06 0)
(-5.21636e-06 1.97305e-06 0)
(-5.62984e-06 1.75116e-06 0)
(-6.0354e-06 1.43824e-06 0)
(-6.41357e-06 1.01989e-06 0)
(-6.73821e-06 4.84552e-07 0)
(-6.97641e-06 -1.73578e-07 0)
(-7.0897e-06 -9.50968e-07 0)
(-7.03718e-06 -1.83103e-06 0)
(-6.78093e-06 -2.78154e-06 0)
(-6.29319e-06 -3.75504e-06 0)
(-5.56325e-06 -4.6938e-06 0)
(-4.59989e-06 -5.53865e-06 0)
(-3.42729e-06 -6.23575e-06 0)
(-2.08249e-06 -6.73437e-06 0)
(-6.21311e-07 -6.98725e-06 0)
(8.7778e-07 -6.96252e-06 0)
(2.32783e-06 -6.66175e-06 0)
(3.65248e-06 -6.11873e-06 0)
(4.79335e-06 -5.38299e-06 0)
(5.7147e-06 -4.50848e-06 0)
(6.39589e-06 -3.55347e-06 0)
(6.83415e-06 -2.57965e-06 0)
(7.04779e-06 -1.64273e-06 0)
(7.06374e-06 -7.84024e-07 0)
(6.92046e-06 -3.18703e-08 0)
(6.66189e-06 5.99592e-07 0)
(6.32557e-06 1.10843e-06 0)
(5.94212e-06 1.50166e-06 0)
(5.53515e-06 1.79314e-06 0)
(5.12323e-06 1.99759e-06 0)
(4.72019e-06 2.12945e-06 0)
(4.33329e-06 2.20253e-06 0)
(3.96627e-06 2.22946e-06 0)
(3.6224e-06 2.22163e-06 0)
(3.30306e-06 2.18829e-06 0)
(3.00698e-06 2.13657e-06 0)
(2.73222e-06 2.07222e-06 0)
(2.47767e-06 2.00002e-06 0)
(2.24256e-06 1.92364e-06 0)
(2.02544e-06 1.84576e-06 0)
(1.82432e-06 1.76835e-06 0)
(1.63735e-06 1.693e-06 0)
(1.46313e-06 1.62095e-06 0)
(1.30047e-06 1.55315e-06 0)
(1.1481e-06 1.4901e-06 0)
(1.0046e-06 1.43203e-06 0)
(8.68575e-07 1.3788e-06 0)
(7.38891e-07 1.32993e-06 0)
(6.14679e-07 1.28433e-06 0)
(4.95354e-07 1.23999e-06 0)
(3.80614e-07 1.19274e-06 0)
(2.70701e-07 1.1337e-06 0)
(1.67833e-07 1.04338e-06 0)
(7.92244e-08 8.73904e-07 0)
(1.40197e-08 4.71851e-07 0)
(-1.19763e-08 5.27597e-07 0)
(-7.15528e-08 9.77629e-07 0)
(-1.54417e-07 1.16874e-06 0)
(-2.52293e-07 1.2716e-06 0)
(-3.58215e-07 1.33963e-06 0)
(-4.69822e-07 1.39466e-06 0)
(-5.86595e-07 1.44658e-06 0)
(-7.08476e-07 1.49983e-06 0)
(-8.35781e-07 1.55663e-06 0)
(-9.69185e-07 1.61811e-06 0)
(-1.10977e-06 1.68496e-06 0)
(-1.25896e-06 1.75746e-06 0)
(-1.4185e-06 1.83569e-06 0)
(-1.59031e-06 1.91944e-06 0)
(-1.77649e-06 2.00823e-06 0)
(-1.97917e-06 2.10115e-06 0)
(-2.20058e-06 2.19683e-06 0)
(-2.44301e-06 2.29318e-06 0)
(-2.7089e-06 2.38727e-06 0)
(-3.00072e-06 2.47514e-06 0)
(-3.32098e-06 2.55156e-06 0)
(-3.67205e-06 2.60971e-06 0)
(-4.05587e-06 2.64091e-06 0)
(-4.47349e-06 2.63421e-06 0)
(-4.92435e-06 2.57605e-06 0)
(-5.40521e-06 2.45013e-06 0)
(-5.90877e-06 2.23754e-06 0)
(-6.42191e-06 1.91735e-06 0)
(-6.9238e-06 1.46801e-06 0)
(-7.38414e-06 8.69888e-07 0)
(-7.76203e-06 1.09239e-07 0)
(-8.00646e-06 -8.16177e-07 0)
(-8.05974e-06 -1.89062e-06 0)
(-7.86508e-06 -3.07491e-06 0)
(-7.37864e-06 -4.30571e-06 0)
(-6.58183e-06 -5.50336e-06 0)
(-5.48547e-06 -6.58855e-06 0)
(-4.11815e-06 -7.49467e-06 0)
(-2.5194e-06 -8.155e-06 0)
(-7.55036e-07 -8.49768e-06 0)
(1.06662e-06 -8.46684e-06 0)
(2.81691e-06 -8.06315e-06 0)
(4.3895e-06 -7.34384e-06 0)
(5.71553e-06 -6.38506e-06 0)
(6.75617e-06 -5.25927e-06 0)
(7.48741e-06 -4.04147e-06 0)
(7.90706e-06 -2.81136e-06 0)
(8.04569e-06 -1.64734e-06 0)
(7.94947e-06 -6.06277e-07 0)
(7.67358e-06 2.8094e-07 0)
(7.27617e-06 1.0035e-06 0)
(6.8058e-06 1.56692e-06 0)
(6.30167e-06 1.9851e-06 0)
(5.7922e-06 2.27856e-06 0)
(5.29543e-06 2.47019e-06 0)
(4.82337e-06 2.58048e-06 0)
(4.382e-06 2.6269e-06 0)
(3.97363e-06 2.62488e-06 0)
(3.59942e-06 2.58763e-06 0)
(3.25832e-06 2.52555e-06 0)
(2.94717e-06 2.4465e-06 0)
(2.66278e-06 2.35683e-06 0)
(2.40292e-06 2.26158e-06 0)
(2.16571e-06 2.16456e-06 0)
(1.94883e-06 2.06843e-06 0)
(1.74976e-06 1.97509e-06 0)
(1.56625e-06 1.88597e-06 0)
(1.39657e-06 1.80212e-06 0)
(1.23918e-06 1.72411e-06 0)
(1.0925e-06 1.6522e-06 0)
(9.54879e-07 1.58623e-06 0)
(8.24788e-07 1.52582e-06 0)
(7.00966e-07 1.47019e-06 0)
(5.82493e-07 1.41812e-06 0)
(4.68753e-07 1.36732e-06 0)
(3.59497e-07 1.31332e-06 0)
(2.55024e-07 1.24637e-06 0)
(1.57502e-07 1.14513e-06 0)
(7.38848e-08 9.57276e-07 0)
(1.2849e-08 5.16204e-07 0)
(-1.08686e-08 5.69495e-07 0)
(-6.57691e-08 1.05759e-06 0)
(-1.427e-07 1.26625e-06 0)
(-2.34032e-07 1.37916e-06 0)
(-3.33281e-07 1.45425e-06 0)
(-4.382e-07 1.51539e-06 0)
(-5.48247e-07 1.57333e-06 0)
(-6.63344e-07 1.63307e-06 0)
(-7.83781e-07 1.69704e-06 0)
(-9.10272e-07 1.76659e-06 0)
(-1.04392e-06 1.84249e-06 0)
(-1.18624e-06 1.92525e-06 0)
(-1.33907e-06 2.01513e-06 0)
(-1.50452e-06 2.11222e-06 0)
(-1.68496e-06 2.21631e-06 0)
(-1.88295e-06 2.32689e-06 0)
(-2.10129e-06 2.44291e-06 0)
(-2.34307e-06 2.56266e-06 0)
(-2.61165e-06 2.68356e-06 0)
(-2.91075e-06 2.80192e-06 0)
(-3.2444e-06 2.91261e-06 0)
(-3.61686e-06 3.00869e-06 0)
(-4.0324e-06 3.08088e-06 0)
(-4.49488e-06 3.11699e-06 0)
(-5.0069e-06 3.10134e-06 0)
(-5.5686e-06 3.01421e-06 0)
(-6.17579e-06 2.83154e-06 0)
(-6.81767e-06 2.52504e-06 0)
(-7.47374e-06 2.06335e-06 0)
(-8.11055e-06 1.41474e-06 0)
(-8.67845e-06 5.52405e-07 0)
(-9.11028e-06 -5.37195e-07 0)
(-9.32423e-06 -1.84331e-06 0)
(-9.23443e-06 -3.32004e-06 0)
(-8.77058e-06 -4.88168e-06 0)
(-7.90224e-06 -6.41478e-06 0)
(-6.64703e-06 -7.81115e-06 0)
(-5.03985e-06 -8.99568e-06 0)
(-3.11463e-06 -9.88367e-06 0)
(-9.4216e-07 -1.0361e-05 0)
(1.32343e-06 -1.03233e-05 0)
(3.48006e-06 -9.77032e-06 0)
(5.37346e-06 -8.80558e-06 0)
(6.92715e-06 -7.54944e-06 0)
(8.10555e-06 -6.09585e-06 0)
(8.88316e-06 -4.53619e-06 0)
(9.25776e-06 -2.98082e-06 0)
(9.27365e-06 -1.53679e-06 0)
(9.00684e-06 -2.80371e-07 0)
(8.54184e-06 7.54574e-07 0)
(7.95838e-06 1.56462e-06 0)
(7.31793e-06 2.16722e-06 0)
(6.6655e-06 2.59115e-06 0)
(6.03321e-06 2.86747e-06 0)
(5.4394e-06 3.02703e-06 0)
(4.89233e-06 3.09746e-06 0)
(4.3941e-06 3.10118e-06 0)
(3.94418e-06 3.05678e-06 0)
(3.54078e-06 2.97919e-06 0)
(3.17994e-06 2.87964e-06 0)
(2.85637e-06 2.76653e-06 0)
(2.56533e-06 2.64642e-06 0)
(2.30326e-06 2.52438e-06 0)
(2.067e-06 2.404e-06 0)
(1.85329e-06 2.28772e-06 0)
(1.65896e-06 2.17714e-06 0)
(1.48135e-06 2.07336e-06 0)
(1.3183e-06 1.97698e-06 0)
(1.1679e-06 1.88823e-06 0)
(1.02829e-06 1.80692e-06 0)
(8.97655e-07 1.73262e-06 0)
(7.74392e-07 1.66464e-06 0)
(6.5723e-07 1.60205e-06 0)
(5.45241e-07 1.54339e-06 0)
(4.3787e-07 1.48624e-06 0)
(3.3492e-07 1.42568e-06 0)
(2.36774e-07 1.35122e-06 0)
(1.45519e-07 1.23962e-06 0)
(6.77526e-08 1.03447e-06 0)
(1.15514e-08 5.56977e-07 0)
(-9.62088e-09 6.07504e-07 0)
(-5.93625e-08 1.13079e-06 0)
(-1.29856e-07 1.35592e-06 0)
(-2.14036e-07 1.47823e-06 0)
(-3.05869e-07 1.55995e-06 0)
(-4.03206e-07 1.62675e-06 0)
(-5.05523e-07 1.69035e-06 0)
(-6.12731e-07 1.75622e-06 0)
(-7.25133e-07 1.82715e-06 0)
(-8.4343e-07 1.90466e-06 0)
(-9.68756e-07 1.98974e-06 0)
(-1.10262e-06 2.08306e-06 0)
(-1.24693e-06 2.18518e-06 0)
(-1.40391e-06 2.29644e-06 0)
(-1.57615e-06 2.41705e-06 0)
(-1.76659e-06 2.54688e-06 0)
(-1.9786e-06 2.68539e-06 0)
(-2.21597e-06 2.83141e-06 0)
(-2.48309e-06 2.98299e-06 0)
(-2.78495e-06 3.13702e-06 0)
(-3.1273e-06 3.28893e-06 0)
(-3.51662e-06 3.43213e-06 0)
(-3.96009e-06 3.55735e-06 0)
(-4.46517e-06 3.65179e-06 0)
(-5.03887e-06 3.6982e-06 0)
(-5.68641e-06 3.67371e-06 0)
(-6.4092e-06 3.54881e-06 0)
(-7.20172e-06 3.28646e-06 0)
(-8.04717e-06 2.84245e-06 0)
(-8.91163e-06 2.16777e-06 0)
(-9.73747e-06 1.21493e-06 0)
(-1.0438e-05 -5.04261e-08 0)
(-1.08977e-05 -1.63163e-06 0)
(-1.09847e-05 -3.47904e-06 0)
(-1.05831e-05 -5.47544e-06 0)
(-9.64222e-06 -7.45022e-06 0)
(-8.19902e-06 -9.24941e-06 0)
(-6.29963e-06 -1.08071e-05 0)
(-3.95154e-06 -1.20267e-05 0)
(-1.21367e-06 -1.27189e-05 0)
(1.68468e-06 -1.26743e-05 0)
(4.40476e-06 -1.18915e-05 0)
(6.71442e-06 -1.0573e-05 0)
(8.54482e-06 -8.91391e-06 0)
(9.88242e-06 -7.03473e-06 0)
(1.06935e-05 -5.02501e-06 0)
(1.09712e-05 -3.04633e-06 0)
(1.07883e-05 -1.25331e-06 0)
(1.02671e-05 2.54061e-07 0)
(9.53548e-06 1.442e-06 0)
(8.701e-06 2.32558e-06 0)
(7.84269e-06 2.94257e-06 0)
(7.01207e-06 3.34174e-06 0)
(6.23883e-06 3.57101e-06 0)
(5.5371e-06 3.67228e-06 0)
(4.91026e-06 3.68037e-06 0)
(4.35506e-06 3.62277e-06 0)
(3.86626e-06 3.52107e-06 0)
(3.43759e-06 3.39154e-06 0)