/*--------------------------------*- C++ -*----------------------------------*\
| =========                 |                                                 |
| \\      /  F ield         | OpenFOAM: The Open Source CFD Toolbox           |
|  \\    /   O peration     | Version:  2412                                  |
|   \\  /    A nd           | Website:  www.openfoam.com                      |
|    \\/     M anipulation  |                                                 |
\*---------------------------------------------------------------------------*/
FoamFile
{
    version     2.0;
    format      ascii;
    arch        "LSB;label=32;scalar=64";
    class       volScalarField;
    location    "6.65";
    object      p_rgh;
}
// * * * * * * * * * * * * * * * * * * * * * * * * * * * * * * * * * * * * * //

dimensions      [1 -1 -2 0 0 0 0];

internalField   nonuniform List<scalar> 
6400
(
24633.7
24272.3
23720.9
23487.1
23984.2
25185.7
26429.9
26783.5
25709.7
23575.3
21582.4
21078.8
22650.7
25607.7
28267.2
28936.8
27005.3
23431.4
20263.5
19434.5
21559.7
25497.7
28979.9
29949.4
27800.2
23755.5
20151.1
19055.9
21064.1
24975.1
28530.4
29743.2
28022.3
24447.3
21077.5
19747.3
21062
24148.3
27238.1
28693.4
27870.8
25372.6
22616.7
21026.7
21309
23173.2
25577.7
27310
27579.5
26348.6
24286.9
22414.9
21619.9
22257.7
24001.3
25995.1
27254.7
27140.1
25685.1
23609.5
21978.7
21660.5
22852.2
24945.5
26827.9
27478.9
26537.7
24515.1
22516.8
21626.9
22304.3
24142.4
26125
27214.8
26917.4
25486.5
23670.5
22202.4
21402
21092.6
24859.5
25071.2
24672.4
23880
23200.7
23286.4
24343.9
25864.7
26861.5
26510.3
24778.8
22582.6
21292.8
21865.8
24156.4
26897.8
28420.7
27691.5
25010.9
21902.3
20221.5
21024.7
23898
27178.2
28940.5
28150.9
25280.7
22012.7
20231.4
20917.3
23604.5
26702.9
28458.8
27960.3
25605.3
22796.2
21090.3
21330.6
23243.7
25686
27336
27407.9
26004.5
23966.6
22366.2
21950.9
22819.7
24451.3
26015.3
26780.7
26433.5
25183.8
23645
22550.4
22423.3
23333.8
24850.3
26225.7
26752.9
26130.8
24648.7
23067.9
22234.8
22619.2
24035.6
25723.4
26758.6
26572.8
25277.8
23599.5
22458.7
22448.5
23520.3
25056.8
26261.3
26596.7
25992
24731.1
23242.4
21581.8
24389.6
25350.5
25585.1
24936.3
23606.8
22465.2
22458.2
23901.8
26115.4
27729.8
27545.8
25397
22404.8
20382.8
20713
23404.8
26976.5
29293.6
28873.9
25845.5
21931.8
19443.2
19882.2
23023.1
27035.6
29579.6
29197.3
26159.2
22267
19760.4
20006.1
22750.2
26342
28746.7
28712.9
26416
23255.2
20987.5
20745.4
22488.2
25140.7
27262.6
27828.5
26698.7
24583.8
22598.6
21684
22189.9
23780.1
25648
26910
26995.8
25886.9
24118.2
22540.6
21933.7
22625.8
24304.4
26134.5
27161.1
26811.9
25231.7
23242.6
21919.7
21998.5
23449.6
25478.3
26965.8
27102.7
25843.2
23913.2
22375.8
22027
22982.3
24676.4
26221.3
26861.2
26277
24746.9
22542.2
23605.7
24974.2
25998.2
26159.4
25052.5
23144.6
21646.4
21757.6
23768.1
26675.7
28682.9
28328.5
25526.7
21783.9
19368.5
19905.2
23282
27606.4
30296.3
29657.2
25961.8
21337.7
18508.9
19155.9
22903.3
27551.5
30399.6
29845.2
26294.4
21861.7
19083.6
19444.3
22584.8
26613.3
29265.4
29190.4
26624.7
23129.4
20627.4
20342.5
22226.1
25120.1
27474.4
28170.2
27019
24740.9
22516.1
21389.3
21813.6
23505.7
25625.2
27169.5
27417.7
26250.8
24219
22308.4
21484.7
22206.2
24152.7
26340.9
27610.6
27248.7
25408.6
23065.8
21500.3
21581.3
23265.6
25613.1
27321.5
27468.8
26025
23836.8
22116
21752.5
22853.9
24740.7
26343.1
26768.7
25873.8
23936.7
23079.5
24012.1
25409.2
26638.7
26728.4
25219.2
22778.1
20939.7
21125.2
23586.5
27046.6
29373.3
28920.7
25678.3
21430.9
18748.8
19397
23168.4
27915.2
30807.2
30056.9
26038.4
21092.4
18126.1
18869
22851.6
27716.4
30646.5
30025.9
26335.3
21785.9
18967
19352.6
22538.2
26597.4
29266.1
29215
26690.6
23231.8
20721.1
20361.1
22130.9
24942.2
27311
28129.9
27147
24977.3
22722.9
21433.8
21656.2
23232.7
25400.1
27131.9
27593.6
26534.4
24438.5
22333.7
21307
21939.5
23958.2
26326.2
27768.1
27470.6
25562.1
23075.6
21384.9
21426.6
23160.8
25597.5
27373.3
27536.5
26070.7
23862.8
22157.6
21840.5
22959.5
24738.4
26065.9
26278.8
25374
23413.2
23063.5
23940.7
25696.5
27293.4
27382.2
25468.4
22460
20234.3
20438.5
23302.6
27304.8
30000.4
29549.1
25967.5
21255.6
18247.7
18868.3
22888.7
27994.6
31155.6
30463.3
26299.9
21112.2
17937.1
18587.8
22607.5
27597.5
30681
30189.2
26564.9
21996
19069.4
19289.3
22317.4
26308.3
29050.9
29199.6
26906.8
23582.8
21020.1
20432.3
21916.8
24549.1
26957.6
28023
27356.6
25389.3
23101.8
21560.3
21457.7
22826.4
25022
26996.3
27768.6
26908.1
24791.9
22472.6
21170.7
21624.2
23648.8
26184.4
27847.4
27702.3
25810.9
23220.7
21377.9
21297.7
22985.2
25448.9
27294.8
27537.5
26142.7
23995.9
22340
22031.9
23067.2
24659.4
25864.9
26289
24691.4
22885.3
22458.7
23639.8
26005.4
28006.1
28059.7
25714
22143.8
19554.2
19789.5
23040.2
27546.2
30575.7
30120.3
26231.5
21106.9
17812.1
18404.5
22632.4
28040.1
31433
30805.8
26543.9
21171.3
17818.5
18364
22373.1
27437
30650.9
30305.9
26792.7
22246.6
19226.4
19260.2
22091.7
25982.6
28793.5
29162.6
27132.3
23963.6
21347.8
20513.9
21692.1
24135.4
26588.8
27914.1
27574.8
25810.9
23483.3
21682.8
21255.5
22422.8
24652.4
26867.2
27939.8
27266.3
25127.1
22604.4
21046.8
21336.3
23365.1
26048.6
27905.6
27895.8
26026.6
23359.7
21398.8
21219.1
22856.1
25315.4
27184.6
27466.2
26130.8
24073.5
22524.1
22294.1
23338.2
24886.4
26300.1
26268.4
23817.9
22049.8
21725.7
23423.6
26353
28680.5
28670.2
25930.8
21878.3
18991.9
19262.6
22827.3
27722.5
30996.8
30532.4
26426.8
21027
17549.3
18120.1
22457.1
28018.8
31533.3
30963
26701.2
21290.1
17868.6
18318.9
22226.4
27228.3
30470.9
30259.6
26934.9
22529.8
19507.1
19372.1
21948.1
25643
28443.1
29009.2
27279
24337.5
21735.8
20686.9
21544.1
23750.4
26192.1
27737
27716.5
26181.4
23862.2
21853.3
21131.4
22091.3
24312.5
26706.9
28030.3
27533.5
25409.6
22753.5
21005.5
21154.3
23152.7
25907.5
27881.3
27972.2
26154.5
23489.7
21498.2
21268
22836.9
25213.2
27002.6
27248
25968.5
24080.6
22778.2
22777.8
23871.5
25487.1
27099.7
25430.5
23212
21341.5
21171.4
23259.9
26640.3
29238.6
29180.8
26130.6
21703.2
18587.1
18871.7
22642.5
27791.2
31228.5
30781.9
26584.9
21062.9
17491.5
18010.8
22324
27881.7
31427.9
30944.8
26813.6
21516.7
18112.3
18439.8
22126.2
26927.4
30119.7
30063.3
27028.5
22883.9
19929.4
19614.1
21856.1
25258
27984.5
28746.4
27368.8
24728.3
22197.5
20949.8
21460
23377.7
25754.8
27486.9
27785.2
26511
24251.3
22082.8
21089.9
21826.9
23988.7
26499
28029.4
27711.4
25654
22940.5
21061.8
21078.6
22996.5
25739
27757.8
27930
26208.7
23632.6
21692.9
21445.9
22911.8
25116.6
26730.7
26895.5
25715.9
24119.4
23183.2
23338.7
24358.7
26454.9
26714.7
25380.7
22964.9
20840.7
20693.1
23079.9
26833.9
29656.2
29572.2
26304.9
21621.8
18349.4
18625.6
22491.9
27758
31278.8
30876.3
26706.5
21202.7
17616.4
18055.2
22226.7
27645.5
31150.5
30783.4
26891.8
21830.7
18507.7
18687.2
22059.1
26556.4
29643.6
29760.1
27088.3
23286.1
20446.3
19943
21801
24849.6
27462.3
28415
27416.2
25116.8
22693.1
21265.8
21426.3
23032.6
25310.4
27195.6
27794.2
26789.3
24624.6
22344.6
21117.1
21633.8
23699
26265
27952
27802.4
25850.1
23147.6
21198.3
21100
22899.8
25558
27555.3
27785
26192.5
23776.3
21959.3
21726.1
23061.5
25027
26406.2
26487.5
25466.9
24203.9
23493
23531.3
24512.9
26755.1
27213
25703.7
22810.6
20401.4
20282.9
22915.6
26942.1
29913
29815.2
26434
21631.4
18290.7
18543.7
22394.3
27635.4
31149.7
30806.4
26773.1
21425.1
17909
18253.3
22183.1
27338.9
30726.4
30486.3
26918.7
22198
19021.6
19048.1
22041.4
26153
29080.7
29366.9
27099.3
23697.7
21017.4
20339.8
21796.4
24455.6
26916.8
28034.8
27409.3
25467.7
23184.3
21615.3
21452.1
22746.4
24893.5
26882.2
27737.8
26990.8
24951.9
22620.2
21214.8
21531
23468.5
26023.5
27801.8
27795.1
25978.2
23356.2
21405.8
21222.1
22877.1
25383.4
27289.1
27542.4
26099.1
23903.8
22274.4
22086.7
23276.5
24962.4
26080
26077.7
25191
24129.9
23361.2
22359.8
25409.8
27489.7
27829.6
25885.6
22637.6
20085
20021.4
22804
26960.7
29986.2
29887.9
26506.5
21732.5
18418.9
18636
22358.5
27429
30843.3
30569.7
26777.3
21718.9
18358.8
18601.5
22200.4
26978.2
30173.3
30061.7
26886.9
22598
19631.6
19511.6
22081
25740.4
28456.2
28895.6
27052.6
24094
21616.8
20792.6
21851.4
24100.5
26373.2
27616.8
27339.2
25757.8
23647.9
21988.4
21545.4
22539.4
24524.5
26555.4
27609.6
27098.9
25216.5
22901.5
21386
21529.8
23309.8
25782.2
27579.4
27683.8
26029.4
23558
21679.2
21444.2
22932.5
25223.4
26969.5
27212.1
25933.1
24009.9
22621.9
22505.9
23542.6
24924.5
25752.2
25619
24808.7
23780.7
21321
23473.9
25992.6
27969.2
28087.7
25933.9
22555
19973
19942.9
22750.8
26885.2
29870.2
29785.4
26517.5
21918.4
18726.3
18897.1
22385.9
27149.6
30376.1
30179.8
26720
22069.6
18942.6
19080.7
22276.1
26580.7
29518.8
29531.5
26799
23011.9
20308.1
20054.9
22175.7
25338.1
27799.6
28368.1
26950.1
24456.3
22217
21281.9
21964.8
23801.3
25855.3
27177.7
27206.7
25973.3
24064.5
22371.3
21705
22421.6
24217.8
26226.5
27412.6
27108.6
25409
23179.5
21625.8
21630.1
23227.6
25549
27293
27474.5
26004.5
23746.9
22006.6
21753.8
23058.9
25081.6
26612
26815.8
25712.5
24098
22985.8
22952.6
23822
24871.5
25382.1
25156.3
24420.9
22068.9
22164.6
23689.9
26084.3
28052.1
28142.5
25960.5
22597.6
20064.5
20044.3
22762.2
26728
29575.6
29510.2
26457.8
22170.7
19193
19315.8
22481.9
26818.9
29776
29655.1
26598.7
22453
19626.7
19667.5
22411.1
26172.2
28799.5
28921.8
26655.3
23413.7
21014
20651.4
22324.5
24970.7
27145.9
27809.7
26793.1
24762.6
22786.5
21784.4
22134.5
23576.2
25390.2
26738.1
27015.4
26100.5
24412.6
22746.5
21925.5
22400.9
23989.2
25910.4
27154.6
27018
25519.9
23441.3
21923.1
21827
23225.1
25334.2
26956.9
27178.9
25906.7
23914.8
22370.9
22131.4
23244.4
24961.4
26236.7
26383
25462
24173.4
23343.3
23378.9
24058.6
24780.6
25079.4
24894.1
24149.5
22275.7
22057.5
23490.4
25984.8
27977.4
28061.6
25942.2
22730.8
20344
20329.9
22852.5
26503.9
29111.4
29062
26317.9
22473.3
19802.5
19884.3
22653.2
26456.7
29066.6
29009.6
26408.2
22845.8
20382.3
20343.8
22609.8
25777.9
28047
28252.3
26451.7
23777.8
21717.5
21281.8
22531.5
24662.8
26525.5
27238.5
26578
24990.6
23297.9
22284
22363.4
23444
25001
26312
26763.9
26125.3
24673.8
23101.5
22205.6
22485.9
23851.3
25617.9
26840.2
26825.2
25542.4
23677.9
22269.5
22115.6
23303
25145.6
26583.6
26809.7
25742.3
24056.5
22755.1
22555.1
23473.4
24863.6
25863.5
25944.8
25206.6
24236.2
23663.7
23742.3
24249.3
24755.5
25024
26292.7
23625.1
22024
21875
23442.2
25882
27741.5
27797.5
25850.1
22944.5
20805.4
20790.2
23012
26211.4
28488.8
28459.9
26112.4
22825.6
20537.8
20578.7
22884.7
26067.3
28269.6
28269.2
26162
23240.6
21185.6
21084.9
22861.5
25407.3
27284.6
27545
26195.6
24093.9
22397.8
21928.2
22792.3
24424.6
25955.4
26667.6
26306.6
25131.8
23739.3
22772.5
22651.2
23410.6
24694.5
25903.3
26452.1
26045.5
24846.6
23435.7
22544.3
22674
23800.8
25347.5
26472.9
26537.9
25484.3
23891.6
22658.3
22482.3
23448.9
24980.4
26183.8
26386.4
25528.7
24175.5
23144.7
22999
23723
24783.4
25510
25530.4
24966.8
24284.9
23933.6
24054.4
24451.4
24884.7
27293.2
25214.1
23332.5
22054.6
22101.7
23561.3
25713.9
27327.8
27370.6
25695.2
23214.2
21396.3
21374.2
23222.4
25877.6
27766.9
27761.8
25864.1
23201.1
21338.1
21339.1
23152.1
25675.6
27443.8
27491.9
25884.6
23616
21983.7
21837.4
23142.3
25076.9
26556.9
26846.4
25910.7
24352
23020.3
22551.8
23083.9
24258.4
25459.3
26128.1
26002
25191.5
24097.5
23226.1
22974.4
23463
24473.6
25529.7
26104.6
25881.4
24936.9
23736.8
22916.1
22939
23824.5
25107.3
26078.8
26187.4
25364.8
24078
23063.2
22893.1
23639.8
24839.7
25782.8
25944.7
25292.2
24274.2
23517.1
23428.2
23966.4
24715.8
25193.1
25164.7
24761
24331.1
24172.4
24327.4
24670.9
26817.9
25990.7
24811
23443.7
22500.2
22577.2
23780.7
25521.6
26792.9
26782.6
25416.1
23454.1
22058.5
22084.8
23545.9
25589.8
27009.9
26973.4
25517.9
23515
22135.4
22151.8
23501.7
25361.1
26657.5
26698.4
25539.7
23900.7
22710.2
22575
23477.5
24847.8
25926.9
26188.3
25582.6
24502.2
23526.9
23116.6
23409.4
24203.1
25090.1
25659.6
25671.4
25142.2
24325.8
23602.3
23316
23617.3
24378.8
25234.6
25746.2
25627.3
24911.8
23962
23289.9
23276.6
23946.7
24937.1
25693
25786.5
25169.3
24203.8
23449
23327.6
23878.6
24747.1
25412.6
25510.5
25041.3
24341.4
23847.5
23816.6
24187.4
24660.5
24925.6
24867.4
24611.2
24395.5
24369.9
24532.9
25548.5
25623.9
25354
24667.7
23782.3
23185.4
23297.6
24143.4
25276.4
26026.6
25914.6
24967
23723.8
22921
23043.7
24027.5
25293.7
26099.2
25981.6
25028
23809.6
23031.9
23119.1
23982
25096.5
25828.1
25797.8
25075.4
24104.6
23426.6
23376.4
23923.6
24728.3
25353.7
25502.8
25149.9
24518.1
23938.4
23679.8
23834.9
24300.4
24843.8
25213.3
25245.2
24929.3
24413.6
23942
23747
23936.4
24430
24984
25307.7
25217.4
24745.9
24139.3
23729.6
23749.3
24193.2
24813.7
25260.3
25282.5
24877
24287.8
23857.4
23822.2
24175.9
24686.1
25046.7
25067.4
24778.9
24391.9
24147.3
24162.1
24373.2
24606
24709
24653.8
24533.7
24464.7
24499.5
24583.5
24688.7
24755
24715.5
24541.6
24314.3
24178.6
24234.2
24460.3
24724.3
24873.4
24813.6
24570.8
24279.8
24120.2
24189.8
24444.9
24728.2
24881.4
24820.2
24584.4
24309.1
24158.2
24213.1
24430.9
24675.1
24814.3
24781.2
24606.8
24392
24257.5
24267.9
24404.1
24580.8
24706.3
24725.1
24639.7
24500.3
24376.4
24325.9
24366.6
24474.2
24594.6
24673.3
24675.3
24600
24480.5
24372.3
24332.2
24384.8
24506.4
24632.4
24697.8
24665.5
24549.6
24408.2
24322.2
24342.4
24458.1
24599.3
24688
24676.6
24575
24440.9
24354.6
24364.3
24456.9
24568
24633.6
24623
24553.4
24472.4
24431.6
24448.2
24498.4
24539.7
24548.6
24530.5
24509.6
24511
4.99655
8.0316
8.11653
6.08279
4.78879
8.38749
10.4204
7.42944
4.14792
8.45096
11.1033
7.99064
4.07074
8.4594
10.8086
7.71375
3.5068
7.56091
10.0774
7.46592
3.22645
6.68009
8.78957
6.74967
2.92238
5.53995
7.54741
6.20601
2.78494
4.3654
6.0318
5.47088
3.01224
3.36147
4.82657
5.02397
3.49568
2.3508
3.6229
4.37691
3.93627
2.43245
2.75057
4.02171
4.51696
3.34266
2.34162
3.97016
5.09798
4.26637
2.36724
4.00781
5.61129
4.99303
2.61101
4.12929
6.00208
5.46724
2.81897
4.14123
6.19833
5.81302
3.11827
4.31001
6.20872
5.68328
3.01387
3.85131
5.30314
4.67841
2.46115
3.23651
4.0557
3.22402
1.64162
2.22565
2.26658
1.50208
1.41035
1.27673
6.71422e-06
9.79572e-05
0.000291947
0.000431703
0.000380288
0.000137619
-0.000121971
-0.000239659
-0.000134169
0.00014232
0.000415376
0.00052612
0.00040644
0.0001192
-0.000159282
-0.000264472
-0.000139845
0.000144183
0.000409368
0.000505049
0.000386679
0.000126295
-0.000114507
-0.000201863
-9.9964e-05
0.000126605
0.000339293
0.000426307
0.000354098
0.00017146
-3.82412e-06
-8.82268e-05
-4.56423e-05
9.1806e-05
0.000235036
0.000329546
0.000329268
0.000242365
0.000123996
2.51232e-05
-1.28511e-05
2.65406e-05
0.000124966
0.000227248
0.000301341
0.000302829
0.000222499
0.000103865
-2.75807e-06
-3.85934e-05
1.90781e-05
0.000143919
0.000268492
0.000322631
0.0002719
0.000138091
1.96503e-06
-6.38944e-05
-2.21221e-05
0.000107167
0.000238368
0.000302096
0.000261296
0.000142066
2.1873e-05
-3.24569e-05
7.48047e-06
0.000110362
0.000204287
0.000236199
0.00019355
0.000116978
6.02411e-05
5.60567e-05
9.70518e-05
0.000139702
0.000152705
0.000132992
0.000110108
0.000113004
6.81436e-05
0.000121403
0.00018858
0.000234321
0.000220041
0.000139299
4.64905e-05
2.63832e-06
3.38185e-05
0.00013054
0.000228401
0.000267589
0.000231708
0.000131897
3.29748e-05
-5.53302e-06
3.14163e-05
0.000130716
0.000224832
0.000258615
0.000223391
0.000133842
4.9584e-05
1.93505e-05
5.11369e-05
0.000129372
0.000204008
0.000235556
0.000215538
0.000155776
9.44407e-05
6.5878e-05
7.9342e-05
0.000123581
0.000175436
0.000210234
0.000213308
0.000186569
0.000144915
0.000107886
9.2499e-05
0.000104706
0.000136345
0.000173861
0.000200752
0.000202514
0.000176009
0.0001316
9.11571e-05
7.58809e-05
9.26658e-05
0.000134976
0.000178836
0.00019794
0.00018188
0.000134768
8.51714e-05
6.11779e-05
7.28937e-05
0.000115827
0.000161981
0.000183739
0.000171399
0.000131398
8.90741e-05
6.91766e-05
8.08622e-05
0.000115621
0.000149218
0.000160732
0.000146453
0.000120586
0.00010116
9.93694e-05
0.000112628
0.000127506
0.00013185
0.000125348
0.000117606
0.000116585
0.000100004
7.89228e-05
8.5964e-05
0.000120541
0.000164944
0.000190414
0.000175414
0.000131419
8.62068e-05
6.48769e-05
8.75077e-05
0.000132376
0.00017604
0.000195813
0.000171179
0.000125602
8.4065e-05
6.69681e-05
9.34851e-05
0.000135965
0.00017305
0.000188093
0.000165478
0.000128812
9.96335e-05
8.82832e-05
0.00010714
0.000138965
0.000168969
0.000183962
0.000175282
0.000153081
0.000129822
0.00011666
0.000119167
0.000136222
0.000158582
0.000176218
0.00018175
0.000174083
0.000157423
0.000138433
0.000125469
0.000123998
0.000135168
0.000153777
0.000170067
0.00017392
0.000161866
0.000139213
0.000116206
0.000103845
0.000111056
0.000130771
0.000150781
0.000159748
0.000148517
0.000126533
0.000105472
9.37759e-05
0.000101227
0.000120005
0.000139298
0.000149256
0.000141858
0.000122898
0.000104729
9.73329e-05
0.000105206
0.000120626
0.000133039
0.000134865
0.000126873
0.000116595
0.000112164
0.000115756
0.000122453
0.000125238
0.000122682
0.0001191
0.000143816
0.000120899
0.000105733
0.000102622
0.000114365
0.000137493
0.000155262
0.000155887
0.000141092
0.000115245
9.90979e-05
0.000102972
0.000118254
0.00014418
0.000160249
0.000154982
0.00013805
0.000112502
9.87168e-05
0.000106332
0.000123256
0.000147283
0.000159974
0.000153424
0.000140675
0.00012436
0.000115734
0.000121163
0.000132498
0.000148252
0.000159135
0.000160569
0.000156834
0.000150049
0.000142808
0.000139405
0.000141332
0.000147668
0.000155708
0.00016175
0.000163363
0.000159891
0.000152949
0.000144429
0.000138036
0.00013675
0.000141275
0.000148812
0.000153628
0.000152107
0.000144258
0.000131613
0.000120916
0.00011915
0.000124806
0.000135917
0.000142805
0.000139258
0.000130708
0.00011845
0.000109933
0.000110165
0.000115213
0.000123495
0.000130019
0.000130321
0.000125094
0.000117214
0.000112382
0.000113128
0.00011783
0.000122843
0.000124911
0.00012298
0.000119439
0.000117603
0.000118774
0.000120941
0.000121476
0.000119736
0.000138805
0.000134987
0.000127172
0.000119067
0.000114487
0.000118004
0.000127656
0.000137017
0.000142356
0.000137899
0.000127028
0.000118445
0.000113885
0.000118883
0.000129954
0.000138484
0.0001427
0.000137272
0.000126374
0.000119372
0.000117341
0.000124309
0.0001366
0.000144839
0.000146818
0.000143214
0.000137223
0.000133895
0.000133047
0.000136898
0.000143567
0.000149138
0.000152939
0.00015447
0.000153315
0.000151004
0.000149159
0.000148673
0.00015006
0.000152532
0.00015493
0.000156297
0.000155965
0.000153278
0.000148925
0.000144302
0.000140979
0.000140516
0.000142053
0.000143877
0.000144283
0.000141034
0.000134422
0.000127946
0.000123458
0.000124078
0.000128433
0.000131217
0.000131409
0.000128409
0.000122912
0.000118477
0.000115884
0.000116325
0.000119275
0.00012217
0.000123529
0.000122126
0.000119214
0.000116891
0.000116339
0.000117664
0.000119755
0.000120897
0.000120438
0.00011913
0.000118406
0.000118789
0.000119511
0.00011899
0.000125671
0.000127713
0.000127953
0.00012656
0.000123786
0.000121947
0.000122718
0.000125171
0.000129023
0.000131324
0.000130259
0.000127787
0.000123956
0.000121856
0.00012342
0.000126461
0.000130779
0.000133168
0.000131983
0.000129691
0.00012675
0.000126023
0.000129403
0.000134608
0.00013884
0.000140913
0.000140836
0.000140517
0.000140178
0.000140996
0.000143395
0.000146166
0.000148818
0.000151158
0.000152565
0.000153098
0.00015317
0.000153038
0.000153074
0.000153233
0.000153304
0.000153247
0.00015301
0.000152211
0.00015071
0.000148535
0.000145815
0.00014327
0.000141258
0.000139891
0.000139259
0.000138419
0.000136236
0.000133098
0.000129152
0.000126121
0.000125298
0.00012554
0.000125763
0.000125448
0.000123877
0.000121913
0.000119812
0.000118258
0.000117917
0.000118355
0.000119164
0.000119496
0.000119061
0.0001182
0.000117346
0.000117023
0.000117452
0.000118201
0.000118635
0.000118418
0.00011786
0.00011756
0.000117817
0.000117693
0.000121814
0.000121896
0.000122854
0.000123792
0.000124166
0.000123991
0.000123958
0.000123784
0.000124149
0.000124974
0.0001254
0.00012592
0.000125733
0.000125034
0.000124974
0.000125076
0.000126051
0.000127601
0.000128709
0.000129819
0.000130281
0.000130297
0.000131162
0.000133068
0.000135615
0.000137935
0.000139498
0.000140884
0.000142185
0.000143598
0.000145406
0.000147287
0.000149018
0.000150686
0.000152085
0.000153115
0.00015387
0.000154376
0.000154718
0.000154843
0.000154586
0.000153943
0.000153018
0.000151809
0.00015038
0.000148837
0.000147105
0.000145189
0.000143051
0.000140679
0.000138473
0.000136633
0.000134823
0.000133098
0.000131047
0.000128625
0.000126594
0.00012526
0.000124101
0.00012312
0.000122023
0.000121017
0.000120035
0.000119019
0.00011824
0.000117667
0.000117352
0.000117194
0.00011706
0.000116925
0.000116696
0.000116414
0.000116266
0.000116343
0.000116556
0.00011666
0.000116501
0.000116205
0.000116181
0.000116107
0.0001216
0.00012089
0.000120861
0.000121109
0.000121526
0.000121942
0.00012255
0.000122914
0.00012303
0.000123101
0.000122947
0.000123111
0.000123491
0.000123814
0.000124439
0.00012495
0.000125446
0.000126165
0.000126889
0.000128071
0.000129526
0.000130828
0.000132166
0.00013365
0.000135478
0.000137474
0.000139244
0.000140894
0.000142545
0.000144232
0.00014607
0.000147961
0.000149723
0.000151366
0.000152802
0.000153915
0.000154703
0.000155192
0.000155459
0.000155555
0.000155386
0.000154907
0.000154069
0.000152818
0.000151165
0.00014928
0.00014732
0.000145391
0.000143482
0.000141398
0.000139136
0.000136873
0.000134585
0.000132516
0.000130676
0.000128785
0.000126939
0.000125395
0.000123959
0.000122619
0.000121281
0.00012009
0.000119116
0.000118254
0.00011755
0.000116933
0.000116373
0.00011588
0.00011548
0.00011524
0.000115112
0.000114991
0.000114844
0.00011471
0.000114661
0.000114686
0.000114665
0.0001145
0.000114396
0.000114304
0.000119536
0.000119548
0.00011957
0.000119533
0.000119518
0.000119551
0.000119917
0.000120498
0.000121062
0.000121534
0.000121651
0.000121644
0.000121738
0.000121936
0.000122553
0.000123457
0.00012445
0.000125508
0.000126406
0.000127389
0.000128658
0.000130101
0.000131718
0.000133409
0.000135262
0.000137303
0.000139304
0.000141177
0.000142972
0.000144728
0.000146532
0.0001484
0.00015023
0.00015198
0.000153575
0.000154889
0.000155844
0.000156411
0.000156625
0.000156571
0.00015628
0.000155751
0.000154962
0.000153837
0.000152285
0.000150337
0.000148125
0.00014583
0.00014363
0.000141504
0.000139364
0.000137205
0.000134913
0.000132591
0.000130439
0.000128434
0.000126537
0.000124894
0.000123439
0.000122109
0.000120788
0.00011949
0.000118313
0.000117262
0.000116393
0.000115693
0.0001151
0.000114555
0.000114045
0.000113625
0.000113333
0.000113147
0.000113006
0.000112858
0.000112721
0.000112639
0.0001126
0.000112502
0.000112396
0.000112296
0.0001168
0.000117222
0.000117502
0.000117667
0.000117711
0.000117638
0.000117685
0.000117987
0.000118485
0.000119124
0.000119652
0.000120002
0.000120272
0.000120505
0.000120968
0.00012179
0.000122905
0.000124253
0.000125581
0.000126836
0.000128145
0.000129565
0.000131183
0.000132943
0.000134846
0.000136931
0.000139095
0.000141214
0.000143254
0.000145216
0.000147139
0.000149064
0.000150952
0.000152763
0.000154445
0.000155902
0.000157043
0.000157801
0.000158149
0.000158117
0.000157749
0.000157076
0.000156131
0.000154914
0.000153369
0.000151466
0.000149239
0.000146784
0.000144277
0.000141833
0.000139472
0.000137216
0.000134954
0.000132628
0.000130342
0.000128177
0.000126128
0.000124291
0.000122671
0.000121248
0.000119924
0.000118634
0.000117397
0.000116226
0.000115174
0.000114291
0.000113568
0.000112954
0.0001124
0.0001119
0.000111479
0.000111161
0.000110938
0.000110762
0.000110602
0.000110468
0.000110381
0.000110293
0.000110198
0.000110102
0.000114348
0.000114647
0.000114915
0.000115182
0.0001154
0.000115506
0.000115575
0.000115743
0.000116062
0.000116575
0.000117184
0.000117786
0.000118372
0.000118913
0.000119521
0.000120341
0.000121415
0.000122773
0.000124287
0.000125825
0.00012737
0.000128946
0.000130647
0.000132483
0.000134446
0.000136565
0.000138811
0.000141099
0.000143374
0.000145602
0.000147773
0.000149898
0.000151953
0.000153897
0.000155689
0.000157261
0.00015854
0.000159459
0.000159969
0.000160053
0.000159724
0.000158996
0.000157906
0.0001565
0.000154792
0.000152782
0.000150495
0.000147963
0.000145283
0.000142566
0.000139883
0.000137316
0.000134855
0.000132435
0.000130063
0.000127794
0.00012564
0.000123647
0.000121841
0.000120235
0.000118785
0.000117433
0.000116156
0.000114938
0.000113799
0.000112777
0.000111901
0.000111161
0.000110523
0.00010996
0.000109467
0.000109054
0.000108737
0.000108498
0.000108307
0.000108146
0.000108024
0.000107924
0.000107836
0.000107752
0.00011196
0.000112066
0.000112214
0.000112425
0.000112675
0.000112908
0.000113115
0.000113352
0.000113659
0.000114097
0.000114673
0.000115347
0.00011611
0.000116921
0.000117789
0.000118779
0.000119927
0.000121285
0.000122838
0.000124511
0.000126252
0.000128036
0.000129906
0.000131891
0.00013399
0.000136216
0.000138572
0.000141019
0.000143511
0.000146006
0.00014847
0.00015088
0.000153201
0.000155384
0.00015738
0.000159129
0.000160566
0.000161634
0.00016228
0.000162474
0.000162205
0.000161475
0.000160303
0.000158734
0.000156815
0.000154586
0.000152097
0.000149386
0.000146515
0.000143563
0.00014059
0.000137681
0.000134896
0.00013223
0.000129673
0.000127245
0.000124962
0.000122834
0.000120873
0.000119093
0.00011748
0.000116003
0.000114638
0.00011336
0.000112165
0.000111063
0.000110076
0.000109217
0.000108474
0.000107833
0.000107278
0.000106802
0.000106414
0.000106112
0.000105878
0.000105692
0.000105547
0.000105434
0.000105347
0.000105275
0.000109392
0.00010942
0.0001095
0.000109641
0.000109849
0.000110102
0.000110383
0.000110707
0.000111087
0.000111559
0.000112152
0.000112866
0.000113712
0.000114675
0.00011574
0.000116921
0.000118224
0.000119672
0.000121282
0.000123038
0.00012491
0.00012687
0.000128927
0.000131098
0.000133389
0.000135805
0.000138352
0.000141012
0.000143756
0.000146545
0.000149336
0.000152085
0.000154744
0.000157251
0.000159542
0.000161553
0.000163216
0.000164469
0.000165261
0.000165554
0.00016533
0.000164589
0.000163341
0.000161624
0.000159491
0.000157
0.000154222
0.000151218
0.000148051
0.000144803
0.000141522
0.000138272
0.000135133
0.000132138
0.000129299
0.000126627
0.00012414
0.000121837
0.000119712
0.000117772
0.000116002
0.000114386
0.000112909
0.000111544
0.000110282
0.000109119
0.000108059
0.000107112
0.00010628
0.00010556
0.000104941
0.000104414
0.000103975
0.000103624
0.000103349
0.000103136
0.000102974
0.000102853
0.000102765
0.000102705
0.000106587
0.0001066
0.000106668
0.000106788
0.000106968
0.000107212
0.000107519
0.000107895
0.000108347
0.00010889
0.000109546
0.000110324
0.00011124
0.000112296
0.000113485
0.000114807
0.000116255
0.000117831
0.000119544
0.000121398
0.000123388
0.000125503
0.000127741
0.000130116
0.000132633
0.000135294
0.000138106
0.000141055
0.000144119
0.000147261
0.000150435
0.000153587
0.000156652
0.000159559
0.000162227
0.000164579
0.000166536
0.000168029
0.000169
0.000169406
0.000169222
0.000168449
0.000167098
0.000165208
0.000162834
0.000160042
0.000156921
0.000153546
0.000149991
0.000146354
0.000142693
0.000139064
0.000135541
0.00013217
0.000128988
0.000126006
0.000123249
0.000120712
0.000118384
0.000116268
0.000114342
0.000112589
0.000110995
0.000109537
0.000108198
0.000106973
0.000105855
0.000104845
0.000103949
0.000103164
0.000102489
0.000101916
0.000101438
0.00010105
0.000100744
0.000100509
0.000100333
0.000100207
0.000100121
0.000100071
0.000103661
0.000103675
0.000103748
0.000103868
0.000104044
0.000104288
0.000104607
0.000105013
0.000105515
0.00010612
0.000106843
0.000107693
0.000108681
0.000109813
0.000111089
0.000112509
0.000114068
0.000115762
0.000117591
0.000119561
0.000121679
0.000123949
0.000126375
0.000128968
0.000131739
0.00013469
0.000137826
0.000141134
0.000144593
0.000148164
0.000151795
0.000155424
0.000158975
0.000162359
0.000165483
0.000168253
0.000170575
0.000172366
0.000173556
0.000174096
0.000173956
0.000173134
0.000171646
0.00016954
0.000166876
0.000163727
0.000160199
0.000156385
0.000152368
0.000148261
0.000144137
0.000140063
0.000136107
0.000132319
0.000128746
0.000125406
0.000122327
0.000119508
0.000116938
0.000114617
0.00011252
0.000110624
0.000108912
0.000107362
0.000105947
0.000104661
0.000103493
0.000102439
0.000101496
0.000100667
9.9949e-05
9.93387e-05
9.88297e-05
9.84146e-05
9.8086e-05
9.78338e-05
9.76458e-05
9.75149e-05
9.74344e-05
9.73928e-05
0.000100687
0.000100704
0.000100783
0.00010091
0.000101092
0.000101344
0.000101678
0.000102106
0.000102642
0.000103294
0.000104073
0.000104984
0.000106034
0.000107231
0.000108575
0.000110068
0.000111709
0.000113497
0.000115433
0.000117523
0.000119778
0.000122211
0.000124836
0.000127668
0.000130722
0.000134007
0.000137517
0.000141249
0.000145176
0.000149255
0.000153427
0.000157617
0.000161737
0.000165684
0.000169348
0.000172614
0.000175371
0.000177518
0.000178971
0.00017967
0.000179578
0.000178694
0.000177035
0.000174659
0.000171644
0.00016807
0.000164061
0.000159729
0.000155176
0.000150523
0.000145862
0.000141272
0.000136827
0.000132575
0.000128573
0.000124834
0.000121393
0.000118254
0.000115412
0.000112857
0.00011057
0.000108522
0.000106688
0.000105044
0.000103561
0.000102218
0.000101007
9.99177e-05
9.89431e-05
9.80846e-05
9.73396e-05
9.67042e-05
9.61738e-05
9.57398e-05
9.53942e-05
9.51307e-05
9.49359e-05
9.48011e-05
9.47215e-05
9.46883e-05
9.77057e-05
9.77266e-05
9.78083e-05
9.79433e-05
9.81351e-05
9.83987e-05
9.87477e-05
9.91954e-05
9.97567e-05
0.000100442
0.000101259
0.000102214
0.000103312
0.000104557
0.000105952
0.0001075
0.000109203
0.000111065
0.000113093
0.000115296
0.000117691
0.000120298
0.000123137
0.00012623
0.000129596
0.000133248
0.000137185
0.000141403
0.000145867
0.000150531
0.000155326
0.000160165
0.000164945
0.000169545
0.000173836
0.000177681
0.000180949
0.000183515
0.000185277
0.000186163
0.000186124
0.000185161
0.000183295
0.000180593
0.000177152
0.000173074
0.000168498
0.000163563
0.000158387
0.000153114
0.000147845
0.000142673
0.000137682
0.000132921
0.000128448
0.000124277
0.000120451
0.000116967
0.000113828
0.000111022
0.000108525
0.000106316
0.000104354
0.000102613
0.000101062
9.96705e-05