/*--------------------------------*- C++ -*----------------------------------*\
| =========                 |                                                 |
| \\      /  F ield         | OpenFOAM: The Open Source CFD Toolbox           |
|  \\    /   O peration     | Version:  2412                                  |
|   \\  /    A nd           | Website:  www.openfoam.com                      |
|    \\/     M anipulation  |                                                 |
\*---------------------------------------------------------------------------*/
FoamFile
{
    version     2.0;
    format      ascii;
    arch        "LSB;label=32;scalar=64";
    class       surfaceScalarField;
    location    "8.5";
    object      phi;
}
// * * * * * * * * * * * * * * * * * * * * * * * * * * * * * * * * * * * * * //

dimensions      [0 3 -1 0 0 0 0];

oriented        oriented;

internalField   nonuniform List<scalar> 
12640
(
1.45683e-05
-1.45683e-05
3.32956e-05
-1.87274e-05
5.30239e-05
-1.97279e-05
7.28692e-05
-1.98454e-05
9.16971e-05
-1.8828e-05
0.000108374
-1.66766e-05
0.000122033
-1.36579e-05
0.000132221
-1.01876e-05
0.00013885
-6.62969e-06
0.000142108
-3.25786e-06
0.000142285
-1.77668e-07
0.000139763
2.52218e-06
0.000134963
4.79824e-06
0.000128316
6.64664e-06
0.000120207
8.10821e-06
0.000110989
9.21638e-06
0.000100997
9.98982e-06
9.05339e-05
1.04632e-05
7.98783e-05
1.0656e-05
6.92866e-05
1.05908e-05
5.89566e-05
1.03288e-05
4.9092e-05
9.86533e-06
3.98299e-05
9.2637e-06
3.12909e-05
8.54012e-06
2.35636e-05
7.72826e-06
1.66976e-05
6.86685e-06
1.0724e-05
5.97397e-06
5.65298e-06
5.07121e-06
1.45823e-06
4.19446e-06
-1.88972e-06
3.34737e-06
-4.41985e-06
2.52948e-06
-6.29088e-06
1.87011e-06
-7.45325e-06
1.16142e-06
-8.05638e-06
6.02534e-07
-8.10982e-06
5.30374e-08
-7.7653e-06
-3.4487e-07
-7.00347e-06
-7.61666e-07
-5.96256e-06
-1.03985e-06
-4.69041e-06
-1.2706e-06
-3.29597e-06
-1.39309e-06
-1.87353e-06
-1.42166e-06
-5.03729e-07
-1.36959e-06
6.97054e-07
-1.20099e-06
1.63793e-06
-9.41271e-07
2.2283e-06
-5.90766e-07
2.45197e-06
-2.23967e-07
2.20277e-06
2.49024e-07
1.35361e-06
8.49134e-07
-1.72696e-07
1.52651e-06
-2.46057e-06
2.28831e-06
-5.5797e-06
3.11974e-06
-9.57323e-06
3.99423e-06
-1.44838e-05
4.91142e-06
-2.03468e-05
5.86388e-06
-2.71498e-05
6.80399e-06
-3.48684e-05
7.71943e-06
-4.34479e-05
8.57987e-06
-5.28057e-05
9.35745e-06
-6.28066e-05
1.00002e-05
-7.32873e-05
1.048e-05
-8.40626e-05
1.0775e-05
-9.49033e-05
1.08409e-05
-0.000105569
1.06662e-05
-0.000115772
1.02016e-05
-0.000125192
9.41841e-06
-0.00013348
8.28703e-06
-0.000140245
6.76445e-06
-0.000145083
4.83865e-06
-0.000147561
2.47919e-06
-0.000147281
-2.79372e-07
-0.000143833
-3.44948e-06
-0.000136879
-6.95455e-06
-0.000126249
-1.06303e-05
-0.000112051
-1.41965e-05
-9.47475e-05
-1.73029e-05
-7.52558e-05
-1.94901e-05
-5.47329e-05
-2.05224e-05
-3.43436e-05
-2.03913e-05
-1.49899e-05
-1.93538e-05
-1.49896e-05
1.85648e-05
-3.31302e-05
4.36722e-05
-4.38341e-05
7.10282e-05
-4.70845e-05
9.94096e-05
-4.82271e-05
0.00012698
-4.63974e-05
0.000151845
-4.15405e-05
0.000172554
-3.43656e-05
0.000188342
-2.59767e-05
0.00019904
-1.73285e-05
0.000204902
-9.12055e-06
0.000206464
-1.74202e-06
0.000204344
4.64309e-06
0.000199195
9.9434e-06
0.000191605
1.42335e-05
0.000182102
1.76111e-05
0.000171166
2.01529e-05
0.000159206
2.19484e-05
0.00014658
2.3086e-05
0.00013362
2.3616e-05
0.000120604
2.36083e-05
0.000107792
2.31408e-05
9.53764e-05
2.22801e-05
8.35473e-05
2.10921e-05
7.24162e-05
1.96711e-05
6.20718e-05
1.8072e-05
5.25713e-05
1.63659e-05
4.39448e-05
1.45982e-05
3.61938e-05
1.28198e-05
2.93043e-05
1.10818e-05
2.32354e-05
9.4139e-06
1.79299e-05
7.83299e-06
1.34378e-05
6.36098e-06
9.58807e-06
5.01086e-06
6.37304e-06
3.8181e-06
3.68799e-06
2.73952e-06
1.53498e-06
1.8104e-06
-2.20505e-07
9.96442e-07
-1.62825e-06
3.70168e-07
-2.80705e-06
-9.05135e-08
-3.8452e-06
-3.54855e-07
-4.84963e-06
-4.1814e-07
-5.93879e-06
-2.81876e-07
-7.20032e-06
5.90254e-08
-8.73229e-06
5.89433e-07
-1.06132e-05
1.28927e-06
-1.29738e-05
2.13611e-06
-1.58716e-05
3.14682e-06
-1.93722e-05
4.35022e-06
-2.35872e-05
5.74244e-06
-2.85659e-05
7.26818e-06
-3.43684e-05
8.92357e-06
-4.10458e-05
1.0673e-05
-4.86442e-05
1.25112e-05
-5.71681e-05
1.43891e-05
-6.66262e-05
1.6263e-05
-7.69988e-05
1.80923e-05
-8.82297e-05
1.981e-05
-0.000100218
2.1344e-05
-0.00011283
2.26116e-05
-0.000125874
2.35239e-05
-0.000139145
2.40452e-05
-0.000152398
2.40946e-05
-0.000165344
2.36103e-05
-0.000177637
2.24927e-05
-0.000188893
2.06729e-05
-0.000198638
1.80319e-05
-0.000206406
1.45342e-05
-0.000211651
1.00848e-05
-0.000213765
4.59307e-06
-0.000212073
-1.97273e-06
-0.000205927
-9.59686e-06
-0.000194778
-1.81025e-05
-0.000178354
-2.70531e-05
-0.000156858
-3.56913e-05
-0.000131136
-4.30236e-05
-0.000102641
-4.79857e-05
-7.33327e-05
-4.98334e-05
-4.50638e-05
-4.86604e-05
-1.91204e-05
-4.5295e-05
-3.41115e-05
2.02486e-05
-5.33783e-05
4.8341e-05
-7.1926e-05
7.97708e-05
-7.85142e-05
0.00011284
-8.12952e-05
0.000145096
-7.86524e-05
0.000174167
-7.06111e-05
0.000198298
-5.84965e-05
0.000216518
-4.41994e-05
0.000228675
-2.94876e-05
0.00023516
-1.56054e-05
0.000236652
-3.23531e-06
0.000233929
7.36526e-06
0.00022777
1.61022e-05
0.000218919
2.30832e-05
0.000207977
2.85495e-05
0.000195495
3.26356e-05
0.00018193
3.55154e-05
0.000167686
3.73286e-05
0.000153118
3.818e-05
0.000138531
3.81903e-05
0.000124188
3.74804e-05
0.000110304
3.61594e-05
9.70539e-05
3.43386e-05
8.45696e-05
3.21512e-05
7.2935e-05
2.97033e-05
6.22219e-05
2.70766e-05
5.2445e-05
2.43739e-05
4.36087e-05
2.16558e-05
3.56965e-05
1.89939e-05
2.86828e-05
1.64281e-05
2.25292e-05
1.39878e-05
1.71914e-05
1.17007e-05
1.2599e-05
9.6056e-06
8.69203e-06
7.72773e-06
5.41297e-06
6.0208e-06
2.68873e-06
4.53573e-06
4.37476e-07
3.24781e-06
-1.41404e-06
2.22115e-06
-2.99479e-06
1.48913e-06
-4.41707e-06
1.0658e-06
-5.80605e-06
9.6904e-07
-7.28765e-06
1.19812e-06
-8.98266e-06
1.75286e-06
-1.09941e-05
2.60015e-06
-1.34237e-05
3.7187e-06
-1.6378e-05
5.09069e-06
-1.99526e-05
6.72196e-06
-2.42087e-05
8.60713e-06
-2.92145e-05
1.0749e-05
-3.50575e-05
1.31117e-05
-4.17971e-05
1.56637e-05
-4.94872e-05
1.83634e-05
-5.81523e-05
2.11766e-05
-6.78158e-05
2.40528e-05
-7.84859e-05
2.6933e-05
-9.01421e-05
2.97479e-05
-0.000102715
3.23817e-05
-0.000116116
3.47446e-05
-0.000130194
3.66887e-05
-0.000144775
3.81052e-05
-0.00015963
3.89009e-05
-0.000174481
3.89462e-05
-0.000189027
3.8156e-05
-0.000202903
3.63669e-05
-0.000215673
3.34428e-05
-0.000226869
2.92282e-05
-0.000235927
2.35938e-05
-0.000242169
1.63273e-05
-0.000244904
7.32586e-06
-0.000243264
-3.61348e-06
-0.000236452
-1.64098e-05
-0.00022376
-3.07942e-05
-0.000204811
-4.60016e-05
-0.000179791
-6.07121e-05
-0.000149697
-7.31167e-05
-0.000116346
-8.13383e-05
-8.22187e-05
-8.39613e-05
-4.98063e-05
-8.10673e-05
-2.08608e-05
-7.42455e-05
-5.49701e-05
2.19236e-05
-7.53018e-05
5.31355e-05
-0.000103137
8.88129e-05
-0.000114191
0.000126658
-0.00011914
0.00016354
-0.000115534
0.000196446
-0.000103518
0.000223249
-8.5302e-05
0.000242969
-6.39198e-05
0.000255636
-4.21567e-05
0.00026189
-2.18602e-05
0.00026266
-4.00497e-06
0.000258929
1.10942e-05
0.000251617
2.34108e-05
0.000241466
3.32363e-05
0.00022916
4.0856e-05
0.000215276
4.65171e-05
0.0002003
5.04896e-05
0.000184656
5.29713e-05
0.000168718
5.41182e-05
0.000152809
5.40998e-05
0.000137205
5.3085e-05
0.000122129
5.12377e-05
0.00010775
4.8721e-05
9.42059e-05
4.56987e-05
8.15899e-05
4.23237e-05
6.99482e-05
3.87219e-05
5.93076e-05
3.50171e-05
4.96624e-05
3.1303e-05
4.09886e-05
2.76697e-05
3.3278e-05
2.41405e-05
2.64486e-05
2.08183e-05
2.04701e-05
1.76795e-05
1.52752e-05
1.47999e-05
1.0791e-05
1.22111e-05
6.95641e-06
9.85471e-06
3.74683e-06
7.74513e-06
1.05004e-06
5.94479e-06
-1.2288e-06
4.5003e-06
-3.2065e-06
3.46708e-06
-5.01048e-06
2.87004e-06
-6.77586e-06
2.73479e-06
-8.64274e-06
3.06554e-06
-1.07427e-05
3.85353e-06
-1.31881e-05
5.04632e-06
-1.60837e-05
6.61524e-06
-1.95507e-05
8.55866e-06
-2.36557e-05
1.08278e-05
-2.84746e-05
1.34265e-05
-3.40947e-05
1.63695e-05
-4.05906e-05
1.96076e-05
-4.80147e-05
2.30876e-05
-5.64245e-05
2.67729e-05
-6.5865e-05
3.06169e-05
-7.63611e-05
3.45486e-05
-8.79246e-05
3.84963e-05
-0.000100532
4.23544e-05
-0.000114153
4.60029e-05
-0.000128678
4.92692e-05
-0.000143951
5.19623e-05
-0.000159791
5.39468e-05
-0.000175943
5.50535e-05
-0.000192148
5.51519e-05
-0.000208072
5.40797e-05
-0.000223336
5.16307e-05
-0.000237516
4.76244e-05
-0.000250108
4.18207e-05
-0.000260467
3.39534e-05
-0.000267947
2.38059e-05
-0.000271713
1.10913e-05
-0.000270784
-4.54275e-06
-0.000264192
-2.3e-05
-0.000250979
-4.4008e-05
-0.000230473
-6.65076e-05
-0.00020265
-8.85355e-05
-0.00016855
-0.000107217
-0.000130427
-0.000119462
-9.13736e-05
-0.00012301
-5.46723e-05
-0.000117773
-2.25403e-05
-0.000106377
-7.75098e-05
2.38652e-05
-9.91667e-05
5.89786e-05
-0.000138251
0.000100105
-0.000155317
0.000144038
-0.000163071
0.000186409
-0.000157905
0.000223177
-0.000140287
0.000251883
-0.00011401
0.00027181
-8.38471e-05
0.000283515
-5.38605e-05
0.000288166
-2.65133e-05
0.000287061
-2.90169e-06
0.000281449
1.67062e-05
0.000272323
3.25342e-05
0.000260441
4.5116e-05
0.000246538
5.47587e-05
0.000231128
6.19314e-05
0.000214704
6.69171e-05
0.000197711
6.9969e-05
0.000180514
7.13206e-05
0.000163454
7.11653e-05
0.000146791
6.97521e-05
0.000130755
6.72764e-05
0.000115522
6.39546e-05
0.000101214
6.00063e-05
8.79126e-05
5.56238e-05
7.56651e-05
5.09682e-05
6.44783e-05
4.62039e-05
5.43387e-05
4.14432e-05
4.52043e-05
3.68043e-05
3.70104e-05
3.23335e-05
2.97465e-05
2.80799e-05
2.33134e-05
2.41094e-05
1.76551e-05
2.04552e-05
1.27408e-05
1.71233e-05
8.48706e-06
1.41067e-05
4.8438e-06
1.13867e-05
1.72802e-06
9.05895e-06
-9.66866e-07
7.19384e-06
-3.31399e-06
5.81325e-06
-5.46795e-06
5.02345e-06
-7.57736e-06
4.84401e-06
-9.78909e-06
5.27746e-06
-1.22547e-05
6.31979e-06
-1.50745e-05
7.86726e-06
-1.83724e-05
9.91457e-06
-2.2219e-05
1.24067e-05
-2.67123e-05
1.53222e-05
-3.19342e-05
1.86492e-05
-3.79522e-05
2.23876e-05
-4.48443e-05
2.64993e-05
-5.26872e-05
3.09297e-05
-6.15411e-05
3.56259e-05
-7.14547e-05
4.05294e-05
-8.24625e-05
4.55556e-05
-9.46016e-05
5.06349e-05
-0.000107885
5.5638e-05
-0.000122248
6.03655e-05
-0.000137609
6.46307e-05
-0.000153848
6.82023e-05
-0.000170748
7.08474e-05
-0.000188077
7.23837e-05
-0.000205557
7.26335e-05
-0.000222854
7.13772e-05
-0.000239592
6.83705e-05
-0.00025533
6.33633e-05
-0.000269595
5.60863e-05
-0.000281747
4.61047e-05
-0.000291083
3.31406e-05
-0.000296769
1.67775e-05
-0.000297815
-3.49488e-06
-0.000292908
-2.79063e-05
-0.000280708
-5.62103e-05
-0.000259987
-8.72299e-05
-0.000230174
-0.000118349
-0.000192049
-0.000145344
-0.00014822
-0.000163291
-0.00010291
-0.000168319
-6.05934e-05
-0.000160094
-2.44593e-05
-0.000142506
-0.000101972
2.65802e-05
-0.000125747
6.77603e-05
-0.000179431
0.000117448
-0.000205005
0.000170424
-0.000216046
0.000219943
-0.000207424
0.000260458
-0.000180801
0.000289486
-0.000143039
0.000307286
-0.000101649
0.000315633
-6.2206e-05
0.000316593
-2.74735e-05
0.000311904
1.78469e-06
0.000303131
2.54767e-05
0.000291213
4.44543e-05
0.000276945
5.93874e-05
0.000260853
7.08519e-05
0.00024348
7.93048e-05
0.000225299
8.50997e-05
0.000206732
8.85352e-05
0.000188132
8.99169e-05
0.000169846
8.94471e-05
0.000152115
8.74796e-05
0.000135175
8.42141e-05
0.000119196
7.99322e-05
0.000104279
7.49223e-05
9.05145e-05
6.93877e-05
7.79022e-05
6.35796e-05
6.64406e-05
5.76646e-05
5.60785e-05
5.18047e-05
4.6777e-05
4.61046e-05
3.84489e-05
4.06607e-05
3.09927e-05
3.55359e-05
2.43662e-05
3.07358e-05
1.85354e-05
2.62853e-05
1.34264e-05
2.22307e-05
8.98759e-06
1.85429e-05
5.14185e-06
1.52292e-05
1.81902e-06
1.23786e-05
-1.02644e-06
1.00367e-05
-3.53383e-06
8.31873e-06
-5.82603e-06
7.31442e-06
-8.05668e-06
7.07416e-06
-1.03994e-05
7.62044e-06
-1.2975e-05
8.89617e-06
-1.59346e-05
1.08281e-05
-1.93651e-05
1.33462e-05
-2.33411e-05
1.63836e-05
-2.7964e-05
1.99453e-05
-3.32893e-05
2.39743e-05
-3.94131e-05
2.85106e-05
-4.64166e-05
3.35015e-05
-5.4372e-05
3.88837e-05
-6.33497e-05
4.4602e-05
-7.34236e-05
5.06022e-05
-8.47059e-05
5.68372e-05
-9.72038e-05
6.31328e-05
-0.000110943
6.93777e-05
-0.000125907
7.53305e-05
-0.000142012
8.07376e-05
-0.00015915
8.53406e-05
-0.000177141
8.88399e-05
-0.000195752
9.09959e-05
-0.000214696
9.15786e-05
-0.000233637
9.03198e-05
-0.000252196
8.69309e-05
-0.000269949
8.11164e-05
-0.000286404
7.25393e-05
-0.000301086
6.07851e-05
-0.000313362
4.54152e-05
-0.000322389
2.58062e-05
-0.000327166
1.28251e-06
-0.000326132
-2.89416e-05
-0.000317456
-6.4889e-05
-0.000298968
-0.000105718
-0.000268828
-0.000148491
-0.000226789
-0.000187384
-0.000175489
-0.000214588
-0.000120759
-0.000223054
-6.95491e-05
-0.000211301
-2.71857e-05
-0.000184871
-0.000129158
3.10276e-05
-0.000156775
8.29077e-05
-0.000231311
0.000146856
-0.000268951
0.000213585
-0.000282774
0.000272244
-0.000266083
0.000315536
-0.000224092
0.000341812
-0.000169313
0.000353607
-0.000113444
0.000354929
-6.35285e-05
0.000349264
-2.18079e-05
0.000338996
1.20545e-05
0.000325555
3.89183e-05
0.000309789
6.02194e-05
0.000292263
7.69123e-05
0.000273375
8.97363e-05
0.000253539
9.91365e-05
0.000233161
0.000105474
0.000212637
0.000109057
0.00019234
0.000110215
0.000172573
0.000109215
0.000153634
0.000106421
0.000135717
0.000102133
0.000118997
9.66542e-05
0.000103545
9.03749e-05
8.94195e-05
8.35145e-05
7.6611e-05
7.63896e-05
6.5074e-05
6.92039e-05
5.4744e-05
6.21383e-05
4.55201e-05
5.53328e-05
3.72779e-05
4.89072e-05
2.99696e-05
4.28477e-05
2.34708e-05
3.72366e-05
1.77121e-05
3.20446e-05
1.2636e-05
2.73063e-05
8.22254e-06
2.29556e-05
4.40132e-06
1.90498e-05
1.15953e-06
1.56203e-05
-1.59764e-06
1.27942e-05
-3.98609e-06
1.07078e-05
-6.13409e-06
9.46322e-06
-8.21194e-06
9.15297e-06
-1.03945e-05
9.80417e-06
-1.28306e-05
1.13334e-05
-1.56448e-05
1.36434e-05
-1.89411e-05
1.66433e-05
-2.28136e-05
2.02564e-05
-2.72926e-05
2.44242e-05
-3.24669e-05
2.91482e-05
-3.83977e-05
3.44406e-05
-4.5194e-05
4.0297e-05
-5.29712e-05
4.66599e-05
-6.18162e-05
5.34462e-05
-7.18314e-05
6.06171e-05
-8.31254e-05
6.81317e-05
-9.58089e-05
7.58175e-05
-0.00010992
8.34901e-05
-0.000125432
9.0844e-05
-0.000142316
9.76228e-05
-0.000160471
0.000103495
-0.000179729
0.000108098
-0.000199858
0.000111126
-0.000220578
0.0001123
-0.000241558
0.000111301
-0.000262412
0.000107785
-0.000282737
0.00010144
-0.00030212
9.19202e-05
-0.000320169
7.88324e-05
-0.000336411
6.16582e-05
-0.000350274
3.96711e-05
-0.000361032
1.20404e-05
-0.000366931
-2.30447e-05
-0.000365619
-6.62018e-05
-0.000353396
-0.000117939
-0.000326062
-0.000175826
-0.000281009
-0.000232435
-0.0002201
-0.000275496
-0.00015105
-0.000292108
-8.50758e-05
-0.000277269
-3.17025e-05
-0.000238247
-0.000160858
3.86148e-05
-0.00019539
0.000108341
-0.000301035
0.000193703
-0.000354311
0.000278343
-0.000367413
0.000346866
-0.000334608
0.0003909
-0.000268127
0.000410605
-0.000189015
0.000411933
-0.000114766
0.000402143
-5.37351e-05
0.000386719
-6.38564e-06
0.000368731
3.00395e-05
0.000349284
5.8364e-05
0.000328797
8.07091e-05
0.000307376
9.83349e-05
0.000285125
0.000111989
0.000262339
0.000121926
0.00023931
0.000128508
0.000216418
0.000131952
0.000194056
0.000132578
0.000172539
0.000130733
0.000152172
0.000126787
0.00013316
0.000121143
0.000115634
0.000114179
9.96553e-05
0.000106354
8.52606e-05
9.79103e-05
7.23916e-05
8.92611e-05
6.09667e-05
8.06317e-05
5.08666e-05
7.22405e-05
4.19422e-05
6.42582e-05
3.40949e-05
5.67547e-05
2.71331e-05
4.9809e-05
2.09479e-05
4.3421e-05
1.54625e-05
3.75291e-05
1.06657e-05
3.21022e-05
6.48002e-06
2.71402e-05
2.91123e-06
2.26176e-05
-9.68524e-08
1.86274e-05
-2.57766e-06
1.52742e-05
-4.64684e-06
1.27764e-05
-6.43584e-06
1.1252e-05
-8.13481e-06
1.08522e-05
-9.95192e-06
1.16219e-05
-1.20404e-05
1.34226e-05
-1.45428e-05
1.61464e-05
-1.7522e-05
1.96227e-05
-2.10506e-05
2.3785e-05
-2.51453e-05
2.85188e-05
-2.9899e-05
3.39017e-05
-3.54079e-05
3.99493e-05
-4.17574e-05
4.66462e-05
-4.90717e-05
5.39739e-05
-5.75303e-05
6.19047e-05
-6.72593e-05
7.03463e-05
-7.8432e-05
7.93056e-05
-9.11753e-05
8.85625e-05
-0.000105562
9.78779e-05
-0.000121629
0.000106912
-0.000139375
0.000115368
-0.000158704
0.000122824
-0.000179456
0.00012885
-0.000201401
0.000133072
-0.000224259
0.000135158
-0.000247698
0.000134741
-0.000271307
0.000131394
-0.000294706
0.000124837
-0.000317561
0.000114774
-0.00033966
0.000100931
-0.000360856
8.28549e-05
-0.000381068
5.98834e-05
-0.000399775
3.07451e-05
-0.000415931
-6.8908e-06
-0.000426148
-5.59821e-05
-0.000424632
-0.000119453
-0.000403789
-0.000196671
-0.000357628
-0.000278595
-0.00028636
-0.000346769
-0.000198874
-0.00037959
-0.000111018
-0.000365128
-3.93833e-05
-0.000309882
-0.000200241
5.05607e-05
-0.000245949
0.000145147
-0.00039562
0.000255252
-0.000464416
0.000356679
-0.000468839
0.000432117
-0.000410043
0.000474387
-0.000310396
0.000485805
-0.000200433
0.000475182
-0.000104143
0.000452797
-3.13484e-05
0.000426334
2.00806e-05
0.000399693
5.66853e-05
0.000373761
8.42959e-05
0.000348198
0.000106275
0.000322583
0.000123953
0.000296671
0.000137901
0.000270502
0.000148093
0.000244399
0.000154608
0.000218747
0.000157601
0.00019397
0.000157353
0.000170424
0.000154277
0.000148427
0.000148783
0.000128176
0.000141394
0.000109779
0.000132577
9.32903e-05
0.000122843
7.86968e-05
0.000112502
6.59104e-05
0.000102044
5.47756e-05
9.17632e-05
4.51337e-05
8.18791e-05
3.67668e-05
7.26225e-05
2.94823e-05
6.40374e-05
2.30808e-05
5.62091e-05
1.7445e-05
4.90552e-05
1.24492e-05
4.25231e-05
8.01705e-06
3.65322e-05
4.16771e-06
3.09875e-05
9.06397e-07
2.58772e-05
-1.77812e-06
2.13108e-05
-3.87373e-06
1.73692e-05
-5.47442e-06
1.43768e-05
-6.76399e-06
1.25416e-05
-7.95637e-06
1.20448e-05
-9.26701e-06
1.29327e-05
-1.089e-05
1.50456e-05
-1.2955e-05
1.8211e-05
-1.54852e-05
2.21522e-05
-1.85226e-05
2.68216e-05
-2.2113e-05
3.21088e-05
-2.62712e-05
3.80601e-05
-3.10803e-05
4.47589e-05
-3.67337e-05
5.23004e-05
-4.33535e-05
6.05944e-05
-5.11616e-05
6.97135e-05
-6.04196e-05
7.96055e-05
-7.12895e-05
9.0177e-05
-8.39652e-05
0.00010124
-9.85864e-05
0.0001125
-0.000115233
0.000123559
-0.000133901
0.000134036
-0.00015453
0.00014345
-0.000177002
0.000151321
-0.000201081
0.000157151
-0.000226443
0.000160521
-0.00025269
0.000160986
-0.000279476
0.000158179
-0.000306333
0.000151693
-0.000333012
0.000141452
-0.00035947
0.00012739
-0.000385942
0.000109327
-0.000412931
8.68703e-05
-0.000440684
5.84964e-05
-0.000468178
2.06045e-05
-0.000491163
-3.29947e-05
-0.000501452
-0.000109166
-0.000488513
-0.000209612
-0.000443735
-0.000323373
-0.000365328
-0.00042518
-0.000260935
-0.00048398
-0.000148129
-0.000477938
-5.13797e-05
-0.000406632
-0.000251622
6.68222e-05
-0.00031277
0.000187291
-0.000516088
0.000315677
-0.000592805
0.000424202
-0.000577365
0.000499244
-0.000485084
0.000537669
-0.000348818
0.000543588
-0.000206349
0.000525944
-8.64999e-05
0.000495704
-1.11098e-06
0.000461667
5.41161e-05
0.000428525
8.98283e-05
0.000397325
0.000115496
0.000367395
0.000136201
0.000337814
0.000153531
0.000308101
0.000167612
0.000278301
0.000177892
0.000248739
0.00018417
0.000219927
0.000186414
0.000192378
0.000184904
0.000166534
0.000180122
0.000142697
0.000172621
0.00012109
0.000163
0.000101808
0.000151857
8.48565e-05
0.000139793
7.01868e-05
0.000127171
5.76253e-05
0.000114606
4.70003e-05
0.000102391
3.8026e-05
9.08564e-05
3.04749e-05
8.01762e-05
2.4018e-05
7.04961e-05
1.84555e-05
6.17725e-05
1.35344e-05
5.39769e-05
9.11786e-06
4.69402e-05
5.20151e-06
4.04492e-05
1.77557e-06
3.44141e-05
-1.15725e-06
2.88107e-05
-3.45354e-06
2.36076e-05
-5.16121e-06
1.90772e-05
-6.3329e-06
1.55487e-05
-7.13426e-06
1.33431e-05
-7.8192e-06
1.27296e-05
-8.64354e-06
1.37567e-05
-9.79738e-06
1.61987e-05
-1.13517e-05
1.97643e-05
-1.34094e-05
2.42089e-05
-1.58406e-05
2.92522e-05
-1.8739e-05
3.50075e-05
-2.2112e-05
4.14343e-05
-2.60629e-05
4.87116e-05
-3.07195e-05
5.69588e-05
-3.6399e-05
6.62754e-05
-4.33339e-05
7.66497e-05
-5.18305e-05
8.81034e-05
-6.21689e-05
0.000100517
-7.46041e-05
0.000113676
-8.93543e-05
0.000127251
-0.000106533
0.000140737
-0.000126192
0.000153693
-0.000148289
0.000165546
-0.000172682
0.000175712
-0.000199173
0.000183642
-0.000227385
0.000188733
-0.000256882
0.000190482
-0.000287148
0.000188444
-0.000317743
0.000182289
-0.000348324
0.000172033
-0.000378869
0.000157936
-0.000409915
0.000140373
-0.000442294
0.000119248
-0.000476709
9.29115e-05
-0.000511751
5.56492e-05
-0.00054228
-2.46614e-06
-0.000559107
-9.23413e-05
-0.000551266
-0.000217451
-0.000510302
-0.000364337
-0.000432544
-0.000502934
-0.000321353
-0.000595171
-0.000190397
-0.000608893
-6.76494e-05
-0.000529378
-0.000319272
8.45543e-05
-0.000397324
0.00022132
-0.000652853
0.000351603
-0.000723089
0.000452576
-0.000678339
0.000519089
-0.000551599
0.000553252
-0.000382982
0.000559741
-0.000212838
0.000545145
-7.19046e-05
0.000517623
2.641e-05
0.00048465
8.70895e-05
0.000451033
0.000123443
0.000418159
0.000148371
0.000385677
0.000168683
0.000352889
0.000186318
0.000319499
0.000200999
0.000285807
0.000211581
0.000252367
0.000217607
0.00021995
0.000218829
0.000189238
0.000215615
0.000160773
0.000208587
0.000134908
0.000198487
0.000111864
0.000186044
9.1698e-05
0.000172026
7.43964e-05
0.000157098
5.98325e-05
0.000141739
4.77699e-05
0.000126674
3.79331e-05
0.000112232
2.99802e-05
9.88119e-05
2.35403e-05
8.66173e-05
1.82506e-05
7.57865e-05
1.37707e-05
6.62528e-05
9.81436e-06
5.79334e-05
6.21961e-06
5.0535e-05
2.85657e-06
4.3812e-05
-1.90135e-07
3.74604e-05
-2.76503e-06
3.1385e-05
-4.81011e-06
2.56521e-05
-6.2353e-06
2.05018e-05
-7.1065e-06
1.64195e-05
-7.56952e-06
1.38057e-05
-7.89937e-06
1.30589e-05
-8.36334e-06
1.42197e-05
-9.11277e-06
1.69468e-05
-1.02518e-05
2.09018e-05
-1.17245e-05
2.56804e-05
-1.35749e-05
3.11024e-05
-1.56632e-05
3.70967e-05
-1.80428e-05
4.38158e-05
-2.08257e-05
5.14968e-05
-2.42534e-05
6.03886e-05
-2.86085e-05
7.06319e-05
-3.43093e-05
8.23515e-05
-4.17186e-05
9.55133e-05
-5.12333e-05
0.000110032
-6.31757e-05
0.000125619
-7.78765e-05
0.000141952
-9.5503e-05
0.000158363
-0.00011617
0.000174359
-0.000139844
0.000189219
-0.000166421
0.000202289
-0.000195609
0.000212829
-0.000227046
0.00022017
-0.000260191
0.000223627
-0.000294367
0.00022262
-0.000328941
0.000216864
-0.000363231
0.000206325
-0.000397076
0.00019178
-0.000430743
0.00017404
-0.000464879
0.000153384
-0.000499592
0.000127627
-0.000533223
8.9282e-05
-0.000560543
2.48544e-05
-0.000573962
-7.89212e-05
-0.000565692
-0.000225715
-0.000529573
-0.000400456
-0.000460995
-0.000571509
-0.000357713
-0.000698457
-0.000224817
-0.00074179
-8.54638e-05
-0.000668732
-0.000404731
9.84162e-05
-0.000495741
0.000233748
-0.000788185
0.000347971
-0.000837314
0.000430438
-0.000760806
0.000484675
-0.000605835
0.000516534
-0.000414843
0.000530124
-0.000226429
0.000528363
-7.01448e-05
0.0005144
4.03717e-05
0.000492486
0.000109005
0.000465497
0.000150433
0.000435467
0.000178402
0.000402782
0.000201367
0.000367695
0.000221403
0.000330712
0.00023798
0.000292716
0.000249575
0.000254759
0.000255564
0.000218208
0.00025538
0.000183878
0.000249945
0.000152492
0.000239974
0.000124389
0.000226592
9.98944e-05
0.000210541
7.89086e-05
0.000193014
6.145e-05
0.000174559
4.7289e-05
0.000155902
3.60855e-05
0.000137878
2.74796e-05
0.000120838
2.09986e-05
0.000105294
1.61579e-05
9.14589e-05
1.24889e-05
7.94564e-05
9.51039e-06
6.92323e-05
6.83165e-06
6.06131e-05
4.22897e-06
5.31385e-05
1.62084e-06
4.64207e-05
-9.94133e-07
4.00757e-05
-3.36301e-06
3.37541e-05
-5.38282e-06
2.7672e-05
-6.82235e-06
2.19413e-05
-7.67572e-06
1.72727e-05
-8.10659e-06
1.42361e-05
-8.36144e-06
1.33129e-05
-8.68644e-06
1.45434e-05
-9.26341e-06
1.75222e-05
-1.01362e-05
2.17732e-05
-1.11895e-05
2.6733e-05
-1.23234e-05
3.22367e-05
-1.34437e-05
3.82186e-05
-1.45772e-05
4.49517e-05
-1.58681e-05
5.27902e-05
-1.76026e-05
6.21249e-05
-2.02049e-05
7.32353e-05
-2.41656e-05
8.63125e-05
-3.00005e-05
0.000101348
-3.82332e-05
0.000118265
-4.92898e-05
0.000136676
-6.36146e-05
0.000156277
-8.15151e-05
0.000176264
-0.000103155
0.000195999
-0.000128475
0.00021454
-0.000157428
0.000231242
-0.000189664
0.000245065
-0.000224809
0.000255314
-0.000262178
0.000260997
-0.000300853
0.000261296
-0.00033975
0.000255762
-0.000377768
0.000244344
-0.000413949
0.000227961
-0.000447877
0.000207968
-0.000478957
0.000184466
-0.000506753
0.000155425
-0.000529033
0.000111561
-0.000542673
3.8494e-05
-0.000543554
-7.80391e-05
-0.000528982
-0.000240288
-0.000496128
-0.000433313
-0.000440591
-0.00062705
-0.00035599
-0.000783053
-0.00023863
-0.000859148
-9.97277e-05
-0.000807636
-0.000504461
0.000104045
-0.000599787
0.000221822
-0.000905965
0.00031066
-0.000926155
0.000373135
-0.00082328
0.000417854
-0.000650553
0.00045129
-0.000448278
0.000476392
-0.000251533
0.000492291
-8.60453e-05
0.000497226
3.54402e-05
0.000491417
0.000114815
0.000475467
0.000166383
0.000450805
0.000203064
0.000419002
0.000233171
0.000381574
0.000258831
0.000340359
0.000279195
0.000297083
0.00029285
0.000253975
0.000298671
0.000212468
0.000296886
0.000174017
0.000288395
0.000139352
0.000274639
0.000109039
0.000256903
8.31003e-05
0.000236478
6.16152e-05
0.000214499
4.44232e-05
0.00019175
3.12086e-05
0.000169115
2.14977e-05
0.000147589
1.4819e-05
0.000127517
1.05112e-05
0.000109602
8.00592e-06
9.39649e-05
6.60633e-06
8.08569e-05
5.71585e-06
7.0124e-05
4.84417e-06
6.14861e-05
3.57894e-06
5.44048e-05
1.82547e-06
4.8175e-05
-3.19282e-07
4.22211e-05
-2.71804e-06
3.61534e-05
-4.86753e-06
2.98218e-05
-6.68175e-06
2.37557e-05
-7.97871e-06
1.85694e-05
-8.81665e-06
1.50735e-05
-9.41034e-06
1.39057e-05
-9.99116e-06
1.5123e-05
-1.06917e-05
1.82215e-05
-1.14306e-05
2.25113e-05
-1.21349e-05
2.74373e-05
-1.25025e-05
3.26051e-05
-1.24517e-05
3.81695e-05
-1.19763e-05
4.44783e-05
-1.12203e-05
5.2036e-05
-1.06305e-05
6.15361e-05
-1.07508e-05
7.33557e-05
-1.22069e-05
8.77684e-05
-1.57149e-05
0.000104856
-2.18875e-05
0.000124438
-3.13729e-05
0.000146162
-4.47598e-05
0.000169665
-6.25159e-05
0.000194021
-8.48465e-05
0.000218331
-0.000111877
0.000241572
-0.000143256
0.000262622
-0.000178973
0.000280781
-0.000218334
0.000294674
-0.000260678
0.000303341
-0.000304791
0.000305409
-0.000348949
0.00029992
-0.000391385
0.000286778
-0.000430028
0.000266603
-0.0004629
0.00024084
-0.000488646
0.000210212
-0.000505328
0.000172105
-0.000511453
0.000117683
-0.000506486
3.35258e-05
-0.000490359
-9.41651e-05
-0.00046542
-0.000265231
-0.000431891
-0.00046684
-0.000386434
-0.000672507
-0.000321885
-0.000847602
-0.00022915
-0.000951885
-0.000106254
-0.000930528
-0.000610714
0.000101843
-0.000701632
0.00019634
-0.00100046
0.000262342
-0.000992157
0.000311352
-0.00087229
0.000352793
-0.000691997
0.000391929
-0.000487416
0.000429326
-0.000288928
0.000461984
-0.000118705
0.00048414
1.32852e-05
0.000492438
0.000106517
0.000485844
0.000172978
0.000464831
0.000224078
0.000432341
0.000265662
0.000390868
0.000300305
0.000343605
0.000326458
0.00029375
0.000342704
0.000244059
0.00034836
0.000196864
0.000344079
0.000153815
0.000331441
0.000115869
0.000312582
8.33586e-05
0.000289412
5.6531e-05
0.000263305
3.52097e-05
0.000235819
1.91551e-05
0.000207804
7.91285e-06
0.000180357
8.47832e-07
0.000154653
-2.719e-06
0.000131083
-3.67791e-06
0.00011056
-2.73233e-06
9.30195e-05
-7.2855e-07
7.88538e-05
1.51589e-06
6.78806e-05
3.20453e-06
5.97986e-05
3.85186e-06
5.37587e-05
3.24024e-06
4.87877e-05
1.5533e-06
4.3909e-05
-8.63382e-07
3.85708e-05
-3.64508e-06
3.26039e-05
-6.25399e-06
2.63646e-05
-8.31185e-06
2.0627e-05
-9.79276e-06
1.65538e-05
-1.09219e-05
1.50342e-05
-1.19822e-05
1.61827e-05
-1.3046e-05
1.92848e-05
-1.39241e-05
2.33893e-05
-1.42569e-05
2.77706e-05
-1.37819e-05
3.21311e-05
-1.22415e-05
3.66304e-05
-9.52066e-06
4.17586e-05
-5.89477e-06
4.84109e-05
-1.87574e-06
5.75172e-05
1.69339e-06
6.97863e-05
3.91767e-06
8.55437e-05
4.04512e-06
0.000104728
1.19001e-06
0.000127294
-5.48581e-06
0.00015284
-1.67543e-05
0.000180936
-3.33768e-05
0.000210646
-5.58762e-05
0.000240833
-8.40808e-05
0.000269777
-0.000117993
0.000296534
-0.000157232
0.000320019
-0.000201474
0.000338915
-0.000249788
0.000351655
-0.000300636
0.000356256
-0.000351831
0.000351114
-0.000400493
0.000335437
-0.000443437
0.000309545
-0.000477476
0.000274879
-0.000499527
0.000232262
-0.000506918
0.000179493
-0.000499158
0.000109923
-0.000477442
1.18113e-05
-0.000445565
-0.00012604
-0.000408533
-0.000302266
-0.000369898
-0.000505477
-0.000327826
-0.000714575
-0.000276659
-0.000898769
-0.000206265
-0.00102228
-0.000105301
-0.0010315
-0.000716015
9.71657e-05
-0.0007988
0.000174242
-0.00107754
0.000226138
-0.00104405
0.000269826
-0.000915979
0.000313968
-0.00073614
0.000361583
-0.000535031
0.000410558
-0.000337902
0.000454346
-0.000162489
0.000486403
-1.87697e-05
0.000500254
9.26672e-05
0.000495097
0.000178136
0.000472382
0.000246795
0.000434512
0.000303533
0.000385684
0.000349133
0.000330047
0.000382095
0.000271708
0.000401043
0.000214274
0.000405794
0.000160671
0.000397683
0.000112955
0.000379158
7.20225e-05
0.000353516
3.79164e-05
0.00032352
1.13601e-05
0.000289863
-8.30041e-06
0.00025548
-2.1547e-05
0.00022105
-2.89944e-05
0.000187804
-3.15369e-05
0.000157196
-3.03578e-05
0.000129904
-2.61349e-05
0.000106338
-2.01456e-05
8.70303e-05
-1.30694e-05
7.17782e-05
-6.08817e-06
6.09003e-05
-3.97203e-07
5.41089e-05
3.1201e-06
5.02427e-05
4.22051e-06
4.76887e-05
3.15323e-06
4.49775e-05
5.37342e-07
4.11875e-05
-2.92936e-06
3.6071e-05
-6.37725e-06
2.98125e-05
-9.13867e-06
2.33883e-05
-1.1035e-05
1.84501e-05
-1.24174e-05
1.64168e-05
-1.37693e-05
1.75351e-05
-1.51186e-05
2.06349e-05
-1.60832e-05
2.43547e-05
-1.60525e-05
2.77407e-05
-1.44691e-05
3.05483e-05
-1.07805e-05
3.29421e-05
-4.76857e-06
3.57467e-05
3.3226e-06
4.03194e-05
1.24989e-05
4.83405e-05
2.1626e-05
6.06588e-05
2.95961e-05
7.75734e-05
3.53068e-05
9.90183e-05
3.76052e-05
0.000124996
3.55053e-05
0.000154941
2.78324e-05
0.00018861
1.36039e-05
0.000224876
-6.75156e-06
0.000261189
-3.5069e-05
0.000298095
-7.0709e-05
0.000332173
-0.000113463
0.000362772
-0.000162858
0.000388308
-0.000218179
0.000406976
-0.000277356
0.000415432
-0.000337858
0.000411615
-0.000395624
0.000393203
-0.000446873
0.000360796
-0.000486456
0.000314463
-0.000510712
0.000256518
-0.00051671
0.000185492