/*--------------------------------*- C++ -*----------------------------------*\
| =========                 |                                                 |
| \\      /  F ield         | OpenFOAM: The Open Source CFD Toolbox           |
|  \\    /   O peration     | Version:  2412                                  |
|   \\  /    A nd           | Website:  www.openfoam.com                      |
|    \\/     M anipulation  |                                                 |
\*---------------------------------------------------------------------------*/
FoamFile
{
    version     2.0;
    format      ascii;
    arch        "LSB;label=32;scalar=64";
    class       surfaceScalarField;
    location    "5.6";
    object      phi;
}
// * * * * * * * * * * * * * * * * * * * * * * * * * * * * * * * * * * * * * //

dimensions      [0 3 -1 0 0 0 0];

oriented        oriented;

internalField   nonuniform List<scalar> 
12640
(
7.4835e-10
-7.44887e-10
1.0934e-08
-9.36508e-09
2.9244e-08
-1.75603e-08
5.31837e-08
-2.32803e-08
8.07306e-08
-2.69515e-08
1.10622e-07
-2.93612e-08
1.42319e-07
-3.12317e-08
1.75848e-07
-3.31257e-08
2.11629e-07
-3.54346e-08
2.50319e-07
-3.83987e-08
2.927e-07
-4.21375e-08
3.39575e-07
-4.66773e-08
3.91709e-07
-5.19732e-08
4.49763e-07
-5.79252e-08
5.14255e-07
-6.43871e-08
5.85516e-07
-7.11739e-08
6.63655e-07
-7.80613e-08
7.48512e-07
-8.4787e-08
8.39626e-07
-9.10459e-08
9.36185e-07
-9.64914e-08
1.03699e-06
-1.00731e-07
1.14039e-06
-1.03329e-07
1.24428e-06
-1.03813e-07
1.34604e-06
-1.01682e-07
1.44254e-06
-9.64208e-08
1.53016e-06
-8.75333e-08
1.60481e-06
-7.4568e-08
1.66208e-06
-5.71747e-08
1.69731e-06
-3.51508e-08
1.70591e-06
-8.51748e-09
1.68356e-06
2.24288e-08
1.62658e-06
5.70436e-08
1.53232e-06
9.43161e-08
1.39952e-06
1.3285e-07
1.22863e-06
1.70933e-07
1.02205e-06
2.06609e-07
7.84214e-07
2.37859e-07
5.21471e-07
2.62758e-07
2.41791e-07
2.79693e-07
-4.57176e-08
2.87514e-07
-3.31409e-07
2.85691e-07
-6.05769e-07
2.74348e-07
-8.60066e-07
2.54274e-07
-1.08691e-06
2.26806e-07
-1.28066e-06
1.9371e-07
-1.43766e-06
1.56958e-07
-1.55626e-06
1.18568e-07
-1.63667e-06
8.03995e-08
-1.68071e-06
4.40574e-08
-1.69147e-06
1.07787e-08
-1.67288e-06
-1.85651e-08
-1.6294e-06
-4.34744e-08
-1.56567e-06
-6.37466e-08
-1.48626e-06
-7.94522e-08
-1.39547e-06
-9.08514e-08
-1.2972e-06
-9.8336e-08
-1.19489e-06
-1.02367e-07
-1.09148e-06
-1.0345e-07
-9.89412e-07
-1.02095e-07
-8.9062e-07
-9.87992e-08
-7.96598e-07
-9.40164e-08
-7.08422e-07
-8.81623e-08
-6.26794e-07
-8.16062e-08
-5.52082e-07
-7.46835e-08
-4.84358e-07
-6.76839e-08
-4.23443e-07
-6.08601e-08
-3.68941e-07
-5.44231e-08
-3.20282e-07
-4.85511e-08
-2.76754e-07
-4.33839e-08
-2.37546e-07
-3.90213e-08
-2.01803e-07
-3.55069e-08
-1.68697e-07
-3.28159e-08
-1.37517e-07
-3.08288e-08
-1.07796e-07
-2.93062e-08
-7.94595e-08
-2.78553e-08
-5.30042e-08
-2.59073e-08
-2.96733e-08
-2.27196e-08
-1.15608e-08
-1.74486e-08
-1.34802e-09
-9.52189e-09
-7.48644e-10
1.0302e-08
-1.04143e-08
4.09243e-08
-3.86119e-08
8.81361e-08
-6.34766e-08
1.47597e-07
-8.15185e-08
2.15711e-07
-9.38776e-08
2.90228e-07
-1.02725e-07
3.70278e-07
-1.10168e-07
4.56138e-07
-1.17918e-07
5.48928e-07
-1.27209e-07
6.50307e-07
-1.38818e-07
7.62206e-07
-1.53138e-07
8.86618e-07
-1.70253e-07
1.02541e-06
-1.89998e-07
1.1802e-06
-2.12006e-07
1.35221e-06
-2.35746e-07
1.54215e-06
-2.60532e-07
1.75015e-06
-2.85538e-07
1.97562e-06
-3.0979e-07
2.21715e-06
-3.32168e-07
2.47241e-06
-3.51398e-07
2.73802e-06
-3.66055e-07
3.00948e-06
-3.74568e-07
3.28108e-06
-3.7525e-07
3.54583e-06
-3.66323e-07
3.79544e-06
-3.45999e-07
4.02044e-06
-3.12556e-07
4.21027e-06
-2.64478e-07
4.35355e-06
-2.00605e-07
4.43853e-06
-1.20342e-07
4.45362e-06
-2.3865e-08
4.38808e-06
8.76469e-08
4.23291e-06
2.11837e-07
3.98177e-06
3.45044e-07
3.63184e-06
4.82323e-07
3.18468e-06
6.17606e-07
2.64671e-06
7.44066e-07
2.0294e-06
8.54624e-07
1.34901e-06
9.426e-07
6.25778e-07
1.00236e-06
-1.17231e-07
1.02996e-06
-8.55629e-07
1.02351e-06
-1.56535e-06
9.83492e-07
-2.22425e-06
9.12603e-07
-2.81352e-06
8.1552e-07
-3.3187e-06
6.98341e-07
-3.73021e-06
5.67973e-07
-4.04354e-06
4.31437e-07
-4.25884e-06
2.95307e-07
-4.38034e-06
1.65223e-07
-4.41548e-06
4.56428e-08
-4.37399e-06
-6.02895e-08
-4.26698e-06
-1.50674e-07
-4.10616e-06
-2.24721e-07
-3.90319e-06
-2.82543e-07
-3.66914e-06
-3.24975e-07
-3.41417e-06
-3.53314e-07
-3.14732e-06
-3.69156e-07
-2.87639e-06
-3.74237e-07
-2.60792e-06
-3.70347e-07
-2.34719e-06
-3.5923e-07
-2.09831e-06
-3.42525e-07
-1.86432e-06
-3.21729e-07
-1.64724e-06
-2.98201e-07
-1.44822e-06
-2.73156e-07
-1.26764e-06
-2.47675e-07
-1.10516e-06
-2.22687e-07
-9.59881e-07
-1.98988e-07
-8.30434e-07
-1.77232e-07
-7.15064e-07
-1.57933e-07
-6.11764e-07
-1.41445e-07
-5.18414e-07
-1.2793e-07
-4.32953e-07
-1.17301e-07
-3.53598e-07
-1.09166e-07
-2.79108e-07
-1.02738e-07
-2.09097e-07
-9.67745e-08
-1.4435e-07
-8.95303e-08
-8.70872e-08
-7.88254e-08
-4.09959e-08
-6.23434e-08
-1.06337e-08
-3.86885e-08
-1.08771e-08
1.92905e-08
-2.90717e-08
6.73194e-08
-8.53258e-08
1.36457e-07
-1.31375e-07
2.21213e-07
-1.65116e-07
3.17644e-07
-1.89196e-07
4.2352e-07
-2.07535e-07
5.38282e-07
-2.23916e-07
6.62761e-07
-2.41436e-07
7.98813e-07
-2.62355e-07
9.48952e-07
-2.88108e-07
1.11601e-06
-3.1941e-07
1.30287e-06
-3.56382e-07
1.51219e-06
-3.98651e-07
1.74622e-06
-4.45441e-07
2.00665e-06
-4.95628e-07
2.29438e-06
-5.4777e-07
2.6094e-06
-6.00128e-07
2.95065e-06
-6.50659e-07
3.31583e-06
-6.97015e-07
3.70126e-06
-7.36537e-07
4.1017e-06
-7.66261e-07
4.51026e-06
-7.82943e-07
4.91824e-06
-7.831e-07
5.31511e-06
-7.63106e-07
5.68845e-06
-7.1931e-07
6.02411e-06
-6.48237e-07
6.30639e-06
-5.46834e-07
6.51847e-06
-4.12813e-07
6.64298e-06
-2.45028e-07
6.66282e-06
-4.39361e-08
6.56222e-06
1.87976e-07
6.32794e-06
4.45794e-07
5.95066e-06
7.2196e-07
5.42632e-06
1.00627e-06
4.75727e-06
1.28623e-06
3.95311e-06
1.54777e-06
3.03094e-06
1.77634e-06
2.01492e-06
1.95816e-06
9.35168e-07
2.08166e-06
-1.73979e-07
2.13867e-06
-1.27623e-06
2.12535e-06
-2.33578e-06
2.04264e-06
-3.31969e-06
1.89614e-06
-4.19997e-06
1.69543e-06
-4.9551e-06
1.45311e-06
-5.57085e-06
1.18338e-06
-6.04044e-06
9.00725e-07
-6.36407e-06
6.18666e-07
-6.5479e-06
3.4885e-07
-6.60285e-06
1.00456e-07
-6.54322e-06
-1.19989e-07
-6.38538e-06
-3.08541e-07
-6.1466e-06
-4.63495e-07
-5.8441e-06
-5.85023e-07
-5.49433e-06
-6.74727e-07
-5.1124e-06
-7.35203e-07
-4.71184e-06
-7.69656e-07
-4.30437e-06
-7.81613e-07
-3.89988e-06
-7.74702e-07
-3.50642e-06
-7.525e-07
-3.13032e-06
-7.18384e-07
-2.77629e-06
-6.75471e-07
-2.44756e-06
-6.26592e-07
-2.14603e-06
-5.74293e-07
-1.87243e-06
-5.2083e-07
-1.62646e-06
-4.68168e-07
-1.40692e-06
-4.17977e-07
-1.2119e-06
-3.71638e-07
-1.03893e-06
-3.30232e-07
-8.85129e-07
-2.94512e-07
-7.47428e-07
-2.64833e-07
-6.228e-07
-2.4107e-07
-5.08549e-07
-2.22498e-07
-4.02649e-07
-2.07665e-07
-3.04119e-07
-1.94278e-07
-2.13409e-07
-1.79168e-07
-1.32704e-07
-1.58416e-07
-6.60381e-08
-1.27855e-07
-1.91399e-08
-8.44404e-08
-2.9528e-08
2.52895e-08
-5.37168e-08
8.51112e-08
-1.43845e-07
1.68554e-07
-2.13572e-07
2.69122e-07
-2.64519e-07
3.82976e-07
-3.01933e-07
5.08442e-07
-3.31938e-07
6.45707e-07
-3.60174e-07
7.96419e-07
-3.91198e-07
9.63262e-07
-4.28304e-07
1.14955e-06
-4.73559e-07
1.35887e-06
-5.27949e-07
1.59476e-06
-5.91547e-07
1.86044e-06
-6.63668e-07
2.15858e-06
-7.42984e-07
2.4911e-06
-8.27608e-07
2.85894e-06
-9.15137e-07
3.26192e-06
-1.00268e-06
3.69848e-06
-1.08684e-06
4.16553e-06
-1.16375e-06
4.65826e-06
-1.229e-06
5.16994e-06
-1.27771e-06
5.69174e-06
-1.30457e-06
6.21263e-06
-1.30386e-06
6.71926e-06
-1.26966e-06
7.19599e-06
-1.19602e-06
7.62497e-06
-1.07726e-06
7.98646e-06
-9.08409e-07
8.25922e-06
-6.85717e-07
8.42129e-06
-4.07298e-07
8.45095e-06
-7.38485e-08
8.32801e-06
3.10603e-07
8.0354e-06
7.38059e-07
7.56084e-06
1.19611e-06
6.89871e-06
1.66796e-06
6.05154e-06
2.13291e-06
5.03121e-06
2.56759e-06
3.85932e-06
2.9477e-06
2.56672e-06
3.25023e-06
1.19206e-06
3.45579e-06
-2.20451e-07
3.55068e-06
-1.62404e-06
3.52848e-06
-2.97256e-06
3.39075e-06
-4.22366e-06
3.14686e-06
-5.34148e-06
2.81292e-06
-6.29866e-06
2.40996e-06
-7.07734e-06
1.96174e-06
-7.66932e-06
1.49239e-06
-8.07529e-06
1.02437e-06
-8.30357e-06
5.76927e-07
-8.36839e-06
1.65166e-07
-8.28814e-06
-2.00258e-07
-8.08368e-06
-5.12926e-07
-7.77692e-06
-7.70133e-07
-7.38961e-06
-9.72186e-07
-6.94247e-06
-1.12172e-06
-6.45457e-06
-1.22296e-06
-5.94295e-06
-1.28114e-06
-5.42243e-06
-1.302e-06
-4.90551e-06
-1.29147e-06
-4.40246e-06
-1.25536e-06
-3.92138e-06
-1.19924e-06
-3.46837e-06
-1.12821e-06
-3.04767e-06
-1.04698e-06
-2.66186e-06
-9.59739e-07
-2.31206e-06
-8.70229e-07
-1.99807e-06
-7.81705e-07
-1.71859e-06
-6.96952e-07
-1.47139e-06
-6.18272e-07
-1.25353e-06
-5.47483e-07
-1.06149e-06
-4.85867e-07
-8.91495e-07
-4.34083e-07
-7.39717e-07
-3.9204e-07
-6.02612e-07
-3.58732e-07
-4.77286e-07
-3.32058e-07
-3.61909e-07
-3.08664e-07
-2.56155e-07
-2.83876e-07
-1.61629e-07
-2.51848e-07
-8.22339e-08
-2.06115e-07
-2.46484e-08
-1.40899e-07
-5.3658e-08
2.82768e-08
-8.12953e-08
9.3663e-08
-2.07908e-07
1.83374e-07
-3.02001e-07
2.90456e-07
-3.70398e-07
4.11555e-07
-4.21881e-07
5.45917e-07
-4.65204e-07
6.94768e-07
-5.07988e-07
8.60757e-07
-5.56208e-07
1.04746e-06
-6.1408e-07
1.25894e-06
-6.8417e-07
1.49942e-06
-7.67593e-07
1.77289e-06
-8.64247e-07
2.08295e-06
-9.73e-07
2.43247e-06
-1.09184e-06
2.82346e-06
-1.21798e-06
3.25679e-06
-1.34791e-06
3.732e-06
-1.4774e-06
4.24712e-06
-1.60152e-06
4.79841e-06
-1.71464e-06
5.38014e-06
-1.81039e-06
5.98442e-06
-1.88171e-06
6.60099e-06
-1.9209e-06
7.21705e-06
-1.91974e-06
7.81717e-06
-1.86965e-06
8.38323e-06
-1.76202e-06
8.89459e-06
-1.58861e-06
9.32827e-06
-1.34214e-06
9.65946e-06
-1.01703e-06
9.86228e-06
-6.10306e-07
9.91085e-06
-1.22675e-07
9.78076e-06
4.4036e-07
9.45094e-06
1.06748e-06
8.90575e-06
1.74084e-06
8.13724e-06
2.43593e-06
7.14726e-06
3.12229e-06
5.94902e-06
3.76516e-06
4.56775e-06
4.32825e-06
3.04024e-06
4.77698e-06
1.41312e-06
5.08213e-06
-2.60006e-07
5.22303e-06
-1.92224e-06
5.18998e-06
-3.51748e-06
4.98533e-06
-4.99446e-06
4.62324e-06
-6.31011e-06
4.12802e-06
-7.432e-06
3.53135e-06
-8.33958e-06
2.86883e-06
-9.02415e-06
2.17647e-06
-9.48778e-06
1.48754e-06
-9.74155e-06
8.30302e-07
-9.80332e-06
2.26658e-07
-9.69558e-06
-3.08131e-07
-9.44339e-06
-7.65104e-07
-9.07271e-06
-1.14067e-06
-8.6091e-06
-1.43559e-06
-8.07671e-06
-1.65385e-06
-7.4977e-06
-1.80171e-06
-6.8918e-06
-1.88678e-06
-6.27614e-06
-1.91741e-06
-5.66522e-06
-1.90213e-06
-5.07094e-06
-1.84936e-06
-4.50277e-06
-1.76709e-06
-3.96787e-06
-1.66276e-06
-3.4713e-06
-1.54315e-06
-3.01624e-06
-1.41436e-06
-2.60417e-06
-1.28182e-06
-2.23508e-06
-1.15027e-06
-1.90769e-06
-1.02377e-06
-1.61965e-06
-9.05694e-07
-1.36772e-06
-7.98738e-07
-1.14802e-06
-7.04842e-07
-9.56218e-07
-6.25095e-07
-7.87838e-07
-5.59571e-07
-6.38542e-07
-5.07119e-07
-5.04507e-07
-4.65125e-07
-3.82864e-07
-4.29282e-07
-2.72209e-07
-3.93451e-07
-1.73187e-07
-3.49746e-07
-8.9159e-08
-2.88989e-07
-2.71546e-08
-2.01769e-07
-8.02457e-08
2.85812e-08
-1.09112e-07
9.35396e-08
-2.71516e-07
1.81646e-07
-3.8878e-07
2.86309e-07
-4.73811e-07
4.05181e-07
-5.39556e-07
5.38787e-07
-5.97672e-07
6.89632e-07
-6.57759e-07
8.61491e-07
-7.27051e-07
1.05884e-06
-8.10466e-07
1.28643e-06
-9.10835e-07
1.54893e-06
-1.0292e-06
1.85065e-06
-1.16512e-06
2.19533e-06
-1.31686e-06
2.58589e-06
-1.48163e-06
3.02424e-06
-1.65561e-06
3.5111e-06
-1.83409e-06
4.04572e-06
-2.01139e-06
4.62573e-06
-2.18095e-06
5.24687e-06
-2.33524e-06
5.90276e-06
-2.46579e-06
6.58468e-06
-2.5632e-06
7.28138e-06
-2.61722e-06
7.97884e-06
-2.61688e-06
8.6602e-06
-2.55075e-06
9.30563e-06
-2.40726e-06
9.89241e-06
-2.17527e-06
1.03951e-05
-1.84481e-06
1.0786e-05
-1.40797e-06
1.10358e-05
-8.6021e-07
1.11146e-05
-2.01746e-07
1.09939e-05
5.6084e-07
1.06478e-05
1.41308e-06
1.00568e-05
2.3314e-06
9.20929e-06
3.28278e-06
8.1054e-06
4.22542e-06
6.75861e-06
5.11109e-06
5.19702e-06
5.88885e-06
3.46299e-06
6.50991e-06
1.61112e-06
6.93281e-06
-2.95242e-07
7.12818e-06
-2.18864e-06
7.08216e-06
-4.00263e-06
6.79816e-06
-5.67678e-06
6.29635e-06
-7.16096e-06
5.61125e-06
-8.41821e-06
4.78773e-06
-9.42617e-06
3.87595e-06
-1.01768e-05
2.92623e-06
-1.06746e-05
1.98456e-06
-1.09345e-05
1.08944e-06
-1.09787e-05
2.70215e-07
-1.08341e-05
-4.53195e-07
-1.05299e-05
-1.06953e-06
-1.00959e-05
-1.57479e-06
-9.56063e-06
-1.97068e-06
-8.95117e-06
-2.26305e-06
-8.29193e-06
-2.46062e-06
-7.60457e-06
-2.57377e-06
-6.90785e-06
-2.61374e-06
-6.21762e-06
-2.59194e-06
-5.54693e-06
-2.51959e-06
-4.9062e-06
-2.40733e-06
-4.30335e-06
-2.26507e-06
-3.74407e-06
-2.10185e-06
-3.23202e-06
-1.9258e-06
-2.76902e-06
-1.74416e-06
-2.35532e-06
-1.56327e-06
-1.98978e-06
-1.38857e-06
-1.67008e-06
-1.22462e-06
-1.3929e-06
-1.07509e-06
-1.15419e-06
-9.42695e-07
-9.49269e-07
-8.29097e-07
-7.73166e-07
-7.3471e-07
-6.20824e-07
-6.58445e-07
-4.8748e-07
-5.97404e-07
-3.69095e-07
-5.46552e-07
-2.62937e-07
-4.98451e-07
-1.68306e-07
-4.43185e-07
-8.74834e-08
-3.68608e-07
-2.70146e-08
-2.61072e-07
-1.06619e-07
2.65359e-08
-1.34811e-07
8.55416e-08
-3.2914e-07
1.64646e-07
-4.66506e-07
2.58565e-07
-5.66424e-07
3.66602e-07
-6.46342e-07
4.90977e-07
-7.2086e-07
6.35701e-07
-8.01367e-07
8.05743e-07
-8.96043e-07
1.00644e-06
-1.01016e-06
1.24306e-06
-1.14651e-06
1.52058e-06
-1.30579e-06
1.84337e-06
-1.48701e-06
2.21512e-06
-1.68773e-06
2.63859e-06
-1.90424e-06
3.11548e-06
-2.13167e-06
3.64621e-06
-2.36402e-06
4.22974e-06
-2.59417e-06
4.86334e-06
-2.81384e-06
5.54235e-06
-3.01359e-06
6.25996e-06
-3.18278e-06
7.00694e-06
-3.30962e-06
7.77147e-06
-3.38123e-06
8.53885e-06
-3.38381e-06
9.2914e-06
-3.30291e-06
1.00083e-05
-3.12381e-06
1.06654e-05
-2.8322e-06
1.12357e-05
-2.41495e-06
1.16892e-05
-1.86133e-06
1.19934e-05
-1.16451e-06
1.2115e-05
-3.23417e-07
1.20204e-05
6.55104e-07
1.16791e-05
1.75403e-06
1.10657e-05
2.94429e-06
1.0164e-05
4.18373e-06
8.9708e-06
5.4178e-06
7.49855e-06
6.58234e-06
5.77752e-06
7.60871e-06
3.85554e-06
8.43056e-06
1.79564e-06
8.99121e-06
-3.28169e-07
9.25037e-06
-2.4367e-06
9.18903e-06
-4.45206e-06
8.81188e-06
-6.3039e-06
8.14666e-06
-7.93475e-06
7.24072e-06
-9.30353e-06
6.15526e-06
-1.0387e-05
4.95825e-06
-1.11791e-05
3.71716e-06
-1.16884e-05
2.49275e-06
-1.1935e-05
1.33488e-06
-1.19465e-05
2.80549e-07
-1.17546e-05
-6.46013e-07
-1.13928e-05
-1.43196e-06
-1.08943e-05
-2.0737e-06
-1.02905e-05
-2.57466e-06
-9.61026e-06
-2.9432e-06
-8.87963e-06
-3.19099e-06
-8.12147e-06
-3.33154e-06
-7.35551e-06
-3.37924e-06
-6.59836e-06
-3.34855e-06
-5.86375e-06
-3.25361e-06
-5.16263e-06
-3.10779e-06
-4.50343e-06
-2.92355e-06
-3.89229e-06
-2.71222e-06
-3.33322e-06
-2.48404e-06
-2.82841e-06
-2.2481e-06
-2.37839e-06
-2.01238e-06
-1.98228e-06
-1.78374e-06
-1.63795e-06
-1.56797e-06
-1.34224e-06
-1.36979e-06
-1.0911e-06
-1.19278e-06
-8.79775e-07
-1.03934e-06
-7.02955e-07
-9.10404e-07
-5.55019e-07
-8.05216e-07
-4.30301e-07
-7.20916e-07
-3.23515e-07
-6.52093e-07
-2.30357e-07
-5.90332e-07
-1.4836e-07
-5.23883e-07
-7.80618e-08
-4.37612e-07
-2.45768e-08
-3.13321e-07
-1.30446e-07
2.23966e-08
-1.56297e-07
7.03745e-08
-3.757e-07
1.33634e-07
-5.28324e-07
2.09228e-07
-6.40645e-07
2.98862e-07
-7.34657e-07
4.06903e-07
-8.27656e-07
5.39076e-07
-9.32379e-07
7.01553e-07
-1.05744e-06
9.00386e-07
-1.20799e-06
1.14118e-06
-1.38635e-06
1.4289e-06
-1.5926e-06
1.76778e-06
-1.825e-06
2.16117e-06
-2.08026e-06
2.61148e-06
-2.35371e-06
3.12003e-06
-2.63939e-06
3.68685e-06
-2.93005e-06
4.31056e-06
-3.21712e-06
4.9881e-06
-3.49065e-06
5.71452e-06
-3.73933e-06
6.48275e-06
-3.95039e-06
7.28338e-06
-4.10967e-06
8.10438e-06
-4.20171e-06
8.93089e-06
-4.20986e-06
9.745e-06
-4.11662e-06
1.05256e-05
-3.90404e-06
1.1248e-05
-3.55436e-06
1.18842e-05
-3.05098e-06
1.24026e-05
-2.3797e-06
1.27686e-05
-1.53051e-06
1.29449e-05
-4.99929e-07
1.28936e-05
7.06214e-07
1.25776e-05
2.06958e-06
1.19651e-05
3.55633e-06
1.1033e-05
5.11511e-06
9.7729e-06
6.67715e-06
8.19471e-06
8.15962e-06
6.32999e-06
9.47237e-06
4.23205e-06
1.05273e-05
1.97324e-06
1.12486e-05
-3.60278e-07
1.15823e-05
-2.67584e-06
1.15029e-05
-4.88238e-06
1.10167e-05
-6.89841e-06
1.0161e-05
-8.65858e-06
8.99943e-06
-1.0118e-05
7.61344e-06
-1.12538e-05
6.09291e-06
-1.20636e-05
4.52586e-06
-1.2562e-05
2.99006e-06
-1.2776e-05
1.54759e-06
-1.27396e-05
2.42846e-07
-1.24902e-05
-8.96606e-07
-1.20657e-05
-1.85758e-06
-1.15021e-05
-2.63812e-06
-1.08329e-05
-3.2444e-06
-1.00883e-05
-3.6881e-06
-9.29493e-06
-3.98433e-06
-8.47619e-06
-4.15008e-06
-7.65208e-06
-4.20301e-06
-6.83943e-06
-4.16074e-06
-6.05217e-06
-4.04031e-06
-5.30148e-06
-3.85784e-06
-4.59603e-06
-3.62826e-06
-3.94222e-06
-3.36522e-06
-3.34438e-06
-3.081e-06
-2.80501e-06
-2.78652e-06
-2.32503e-06
-2.49137e-06
-1.90391e-06
-2.20382e-06
-1.53991e-06
-1.93088e-06
-1.23022e-06
-1.67835e-06
-9.71078e-07
-1.45076e-06
-7.57879e-07
-1.25134e-06
-5.85273e-07
-1.08177e-06
-4.47272e-07
-9.41938e-07
-3.37439e-07
-8.2943e-07
-2.49222e-07
-7.38953e-07
-1.76526e-07
-6.61634e-07
-1.14644e-07
-5.84348e-07
-6.16152e-08
-4.89233e-07
-2.00957e-08
-3.53502e-07
-1.49667e-07
1.63014e-08
-1.71609e-07
4.84726e-08
-4.06406e-07
8.95326e-08
-5.67864e-07
1.40014e-07
-6.89667e-07
2.0486e-07
-7.98098e-07
2.91059e-07
-9.12534e-07
4.06195e-07
-1.0463e-06
5.57548e-07
-1.20769e-06
7.51642e-07
-1.40108e-06
9.94074e-07
-1.62787e-06
1.2895e-06
-1.88719e-06
1.64162e-06
-2.17635e-06
2.05323e-06
-2.49114e-06
2.52613e-06
-2.82593e-06
3.06108e-06
-3.1737e-06
3.65763e-06
-3.52601e-06
4.31398e-06
-3.87291e-06
5.02675e-06
-4.20292e-06
5.79079e-06
-4.50293e-06
6.59895e-06
-4.75816e-06
7.44183e-06
-4.95224e-06
8.30758e-06
-5.06721e-06
9.18162e-06
-5.08372e-06
1.00464e-05
-4.98129e-06
1.08812e-05
-4.73877e-06
1.16616e-05
-4.33487e-06
1.23597e-05
-3.74919e-06
1.29433e-05
-2.96347e-06
1.33761e-05
-1.96357e-06
1.3618e-05
-7.42099e-07
1.36258e-05
6.97956e-07
1.3356e-05
2.33892e-06
1.2768e-05
4.14382e-06
1.18299e-05
6.05262e-06
1.05254e-05
7.98113e-06
8.85996e-06
9.82461e-06
6.86524e-06
1.14667e-05
4.60011e-06
1.2792e-05
2.14743e-06
1.37008e-05
-3.9255e-07
1.41216e-05
-2.91136e-06
1.40208e-05
-5.30258e-06
1.34069e-05
-7.47193e-06
1.23294e-05
-9.34553e-06
1.08722e-05
-1.08751e-05
9.14243e-06
-1.20396e-05
7.25704e-06
-1.28427e-05
5.32869e-06
-1.33075e-05
3.45451e-06
-1.34698e-05
1.7093e-06
-1.33716e-05
1.43833e-07
-1.30565e-05
-1.2128e-06
-1.25662e-05
-2.349e-06
-1.19393e-05
-3.26611e-06
-1.12102e-05
-3.97432e-06
-1.04095e-05
-4.48944e-06
-9.56368e-06
-4.83053e-06
-8.69573e-06
-5.01822e-06
-7.82525e-06
-5.07352e-06
-6.96879e-06
-5.0171e-06
-6.14006e-06
-4.86883e-06
-5.35016e-06
-4.64741e-06
-4.60781e-06
-4.37019e-06
-3.91954e-06
-4.05296e-06
-3.28995e-06
-3.70997e-06
-2.72188e-06
-3.35388e-06
-2.21666e-06
-2.9958e-06
-1.77429e-06
-2.64533e-06
-1.39358e-06
-2.31066e-06
-1.07232e-06
-1.99862e-06
-8.07316e-07
-1.71471e-06
-5.94459e-07
-1.46308e-06
-4.28687e-07
-1.24637e-06
-3.03974e-07
-1.06542e-06
-2.13352e-07
-9.18752e-07
-1.49086e-07
-8.01853e-07
-1.03135e-07
-7.06157e-07
-6.80609e-08
-6.17942e-07
-3.8561e-08
-5.1724e-07
-1.36929e-08
-3.76942e-07
-1.62381e-07
8.23168e-09
-1.78765e-07
1.98675e-08
-4.16523e-07
3.26929e-08
-5.79079e-07
5.20596e-08
-7.07475e-07
8.70732e-08
-8.31604e-07
1.47782e-07
-9.71824e-07
2.43649e-07
-1.14087e-06
3.82803e-07
-1.34568e-06
5.71826e-07
-1.58909e-06
8.15856e-07
-1.87104e-06
1.11878e-06
-2.18939e-06
1.48341e-06
-2.54039e-06
1.91165e-06
-2.91889e-06
2.40444e-06
-3.31833e-06
2.96181e-06
-3.73076e-06
3.58268e-06
-4.14665e-06
4.26477e-06
-4.55485e-06
5.00437e-06
-4.94247e-06
5.79617e-06
-5.29476e-06
6.63303e-06
-5.59515e-06
7.50578e-06
-5.82522e-06
8.403e-06
-5.96475e-06
9.31081e-06
-5.99192e-06
1.02126e-05
-5.88354e-06
1.10886e-05
-5.61538e-06
1.19159e-05
-5.16279e-06
1.26675e-05
-4.50144e-06
1.33118e-05
-3.60857e-06
1.38124e-05
-2.46489e-06
1.4127e-05
-1.05745e-06
1.42081e-05
6.16047e-07
1.40048e-05
2.54156e-06
1.34662e-05
4.68182e-06
1.25486e-05
6.96974e-06
1.12247e-05
9.30488e-06
9.4927e-06
1.15568e-05
7.38292e-06
1.3577e-05
4.95984e-06
1.52159e-05
2.31819e-06
1.63435e-05
-4.25379e-07
1.68662e-05
-3.14388e-06
1.67401e-05
-5.71297e-06
1.59764e-05
-8.02372e-06
1.46404e-05
-9.99297e-06
1.28418e-05
-1.15698e-05
1.07199e-05
-1.2737e-05
8.42515e-06
-1.35071e-05
6.10006e-06
-1.3915e-05
3.86359e-06
-1.40078e-05
1.80294e-06
-1.38366e-05
-2.69742e-08
-1.34511e-05
-1.59844e-06
-1.28964e-05
-2.90418e-06
-1.22124e-05
-3.95091e-06
-1.14333e-05
-4.75423e-06
-1.05887e-05
-5.33482e-06
-9.70391e-06
-5.71599e-06
-8.8007e-06
-5.92204e-06
-7.8976e-06
-5.97713e-06
-7.01037e-06
-5.90477e-06
-6.15219e-06
-5.72738e-06
-5.33384e-06
-5.46605e-06
-4.56392e-06
-5.14029e-06
-3.84905e-06
-4.76792e-06
-3.19404e-06
-4.36497e-06
-2.60211e-06
-3.94569e-06
-2.07511e-06
-3.52257e-06
-1.61367e-06
-3.10644e-06
-1.21737e-06
-2.70653e-06
-8.84845e-07
-2.33061e-06
-6.13804e-07
-1.98511e-06
-4.01012e-07
-1.67513e-06
-2.42142e-07
-1.40439e-06
-1.31586e-07
-1.17501e-06
-6.22508e-08
-9.87006e-07
-2.54703e-08
-8.37431e-07
-1.12186e-08
-7.19087e-07
-8.88179e-09
-6.18851e-07
-8.87621e-09
-5.1576e-07
-5.32454e-09
-3.79052e-07
-1.66697e-07
-2.04421e-09
-1.75549e-07
-1.59705e-08
-4.01029e-07
-3.7324e-08
-5.56033e-07
-5.4288e-08
-6.88867e-07
-5.25844e-08
-8.31703e-07
-1.87953e-08
-1.00409e-06
5.82155e-08
-1.21647e-06
1.86913e-07
-1.47312e-06
3.73319e-07
-1.7744e-06
6.21492e-07
-2.1183e-06
9.34018e-07
-2.50119e-06
1.31239e-06
-2.91823e-06
1.75725e-06
-3.36339e-06
2.26847e-06
-3.82935e-06
2.84513e-06
-4.30735e-06
3.48542e-06
-4.787e-06
4.18648e-06
-5.25611e-06
4.94423e-06
-5.70054e-06
5.75319e-06
-6.10417e-06
6.60628e-06
-6.44883e-06
7.49467e-06
-6.71431e-06
8.40757e-06
-6.87848e-06
9.33208e-06
-6.91736e-06
1.02529e-05
-6.80543e-06
1.11523e-05
-6.51583e-06
1.20091e-05
-6.02088e-06
1.2799e-05
-5.29257e-06
1.34926e-05
-4.30352e-06
1.4055e-05
-3.02855e-06
1.44437e-05
-1.44744e-06
1.46081e-05
4.50368e-07
1.44901e-05
2.65854e-06
1.40269e-05
5.14413e-06
1.31599e-05
7.83635e-06
1.18462e-05
1.06185e-05
1.00735e-05
1.33301e-05
7.86876e-06
1.57829e-05
5.30188e-06
1.77846e-05
2.48099e-06
1.91666e-05
-4.5843e-07
1.9808e-05
-3.36803e-06
1.96518e-05
-6.10289e-06
1.8713e-05
-8.5376e-06
1.70763e-05
-1.05791e-05
1.48843e-05
-1.2175e-05
1.23169e-05
-1.33144e-05
9.56634e-06
-1.40229e-05
6.81088e-06
-1.43506e-05
4.19387e-06
-1.43587e-05
1.81339e-06
-1.41081e-05
-2.75593e-07
-1.3654e-05
-2.05122e-06
-1.30435e-05
-3.5141e-06
-1.23156e-05
-4.6787e-06
-1.15028e-05
-5.56728e-06
-1.06322e-05
-6.20589e-06
-9.72673e-06
-6.62207e-06
-8.80605e-06
-6.84341e-06
-7.88708e-06
-6.89683e-06
-6.9844e-06
-6.8082e-06
-6.11041e-06
-6.60214e-06
-5.27543e-06
-6.30178e-06
-4.4879e-06
-5.92855e-06
-3.75445e-06
-5.50203e-06
-3.08015e-06
-5.03985e-06
-2.46866e-06
-4.55766e-06
-1.92241e-06
-4.06919e-06
-1.44283e-06
-3.58628e-06
-1.03043e-06
-3.11906e-06
-6.84956e-07
-2.67609e-06
-4.0537e-07
-2.26456e-06
-1.89748e-07
-1.89047e-06
-3.50401e-08
-1.55866e-06
6.33297e-08
-1.27279e-06
1.11956e-07
-1.03487e-06
1.1993e-07
-8.44465e-07
9.90655e-08
-6.97106e-07
6.34815e-08
-5.81994e-07
2.80581e-08
-4.7897e-07
5.2694e-09
-3.54934e-07
-1.60492e-07
-1.50806e-08
-1.59197e-07
-6.03659e-08
-3.54164e-07
-1.22012e-07
-4.92666e-07
-1.79633e-07
-6.29583e-07
-2.12759e-07
-7.96936e-07
-2.04565e-07
-1.01068e-06
-1.42843e-07
-1.27666e-06
-1.96511e-08
-1.59486e-06
1.69583e-07
-1.9623e-06
4.27069e-07
-2.37458e-06
7.5348e-07
-2.82657e-06
1.14853e-06
-3.31243e-06
1.6113e-06
-3.82548e-06
2.14033e-06
-4.35787e-06
2.73361e-06
-4.90028e-06
3.38848e-06
-5.44164e-06
4.1014e-06
-5.96893e-06
4.86785e-06
-6.46702e-06
5.68212e-06
-6.9186e-06
6.53718e-06
-7.30418e-06
7.42452e-06
-7.60208e-06
8.33406e-06
-7.78858e-06
9.25403e-06
-7.83803e-06
1.01708e-05
-7.72306e-06
1.10689e-05
-7.41484e-06
1.19303e-05
-6.88333e-06
1.27341e-05
-6.0976e-06
1.34554e-05
-5.02613e-06
1.40631e-05
-3.63767e-06
1.45176e-05
-1.90339e-06
1.47679e-05
1.98645e-07
1.47499e-05
2.67516e-06
1.43883e-05
5.50446e-06
1.36055e-05
8.61824e-06
1.23383e-05
1.18849e-05
1.05592e-05
1.51089e-05
8.28916e-06
1.80529e-05
5.6034e-06
2.04709e-05
2.62478e-06
2.21463e-05
-4.90374e-07
2.29246e-05
-3.57e-06
2.27327e-05
-6.44644e-06
2.159e-05
-8.97644e-06
1.96062e-05
-1.1057e-05
1.69643e-05
-1.26353e-05
1.38948e-05
-1.37108e-05
1.0642e-05
-1.43266e-05
7.4278e-06
-1.45526e-05
4.42195e-06
-1.44665e-05
1.72976e-06
-1.41389e-05
-6.00598e-07
-1.36284e-05
-2.55956e-06
-1.29809e-05
-4.15994e-06
-1.22323e-05
-5.42622e-06
-1.14108e-05
-6.38809e-06
-1.05395e-05
-7.07688e-06
-9.63763e-06
-7.52378e-06
-8.72209e-06
-7.75895e-06
-7.80777e-06
-7.81127e-06
-6.90787e-06
-7.70834e-06
-6.0339e-06
-7.47642e-06
-5.19574e-06
-7.14031e-06
-4.40163e-06
-6.72306e-06
-3.6583e-06
-6.24577e-06
-2.9711e-06
-5.72743e-06
-2.3442e-06
-5.18491e-06
-1.78073e-06
-4.63294e-06
-1.28301e-06
-4.08421e-06
-8.52683e-07
-3.54951e-06
-4.90815e-07
-3.03797e-06
-1.97943e-07
-2.55734e-06
2.60775e-08
-2.11427e-06
1.82408e-07
-1.71464e-06
2.73809e-07
-1.36368e-06
3.05482e-07
-1.06587e-06
2.86077e-07
-8.2421e-07
2.28603e-07
-6.38613e-07
1.50732e-07
-5.02966e-07
7.36825e-08
-4.00709e-07
1.86654e-08
-2.98799e-07
-1.41031e-07
-3.19623e-08
-1.25875e-07
-1.15837e-07
-2.68791e-07
-2.24262e-07
-3.82596e-07
-3.25621e-07
-5.26675e-07
-3.92412e-07
-7.28594e-07
-4.04936e-07
-9.96576e-07
-3.51112e-07
-1.32884e-06
-2.24867e-07
-1.71939e-06
-2.42396e-08
-2.16114e-06
2.50239e-07
-2.64724e-06
5.96713e-07
-3.17123e-06
1.01271e-06
-3.72664e-06
1.49548e-06
-4.30652e-06
2.0421e-06
-4.9028e-06
2.64934e-06
-5.50589e-06
3.31356e-06
-6.10427e-06
4.0305e-06
-6.68431e-06
4.79506e-06
-7.23007e-06
5.60121e-06
-7.72329e-06
6.44184e-06
-8.1434e-06
7.30867e-06
-8.46759e-06
8.19222e-06
-8.67092e-06
9.08181e-06
-8.72653e-06
9.96553e-06
-8.60585e-06
1.08303e-05
-8.27885e-06
1.16617e-05
-7.71424e-06
1.24437e-05
-6.87939e-06
1.31575e-05
-5.74005e-06
1.37792e-05
-4.25986e-06
1.42761e-05
-2.40106e-06
1.46015e-05
-1.27736e-07
1.46892e-05
2.58604e-06
1.4452e-05
5.73986e-06
1.37895e-05
9.27849e-06
1.26122e-05
1.30592e-05
1.08722e-05
1.68451e-05
8.58189e-06
2.03387e-05
5.82116e-06
2.32269e-05
2.72851e-06
2.52345e-05
-5.18385e-07
2.61675e-05
-3.72318e-06
2.59337e-05
-6.69493e-06
2.45575e-05
-9.27263e-06
2.21788e-05
-1.13439e-05
1.90296e-05
-1.28577e-05
1.54026e-05
-1.38274e-05
1.16064e-05
-1.43191e-05
7.91561e-06
-1.44277e-05
4.52863e-06
-1.42492e-05
1.55086e-06
-1.38616e-05
-9.87516e-07
-1.33222e-05
-3.09775e-06
-1.26713e-05
-4.80934e-06
-1.19379e-05
-6.15816e-06
-1.11434e-05
-7.18104e-06
-1.03052e-05
-7.91354e-06
-9.43816e-06
-8.38926e-06
-8.55577e-06
-8.63971e-06
-7.6708e-06
-8.69459e-06
-6.79513e-06
-8.58236e-06
-5.93954e-06
-8.3304e-06
-5.11356e-06
-7.96474e-06
-4.32536e-06
-7.50976e-06
-3.58187e-06
-6.98782e-06
-2.88882e-06
-6.41909e-06
-2.25098e-06
-5.82142e-06
-1.67227e-06
-5.21037e-06
-1.15599e-06
-4.59925e-06
-7.04999e-07
-3.99929e-06
-3.2189e-07
-3.4199e-06
-9.02112e-09
-2.86904e-06
2.31563e-07
-2.35369e-06
3.98498e-07
-1.8804e-06
4.91819e-07
-1.4558e-06
5.14148e-07
-1.08696e-06
4.72338e-07
-7.81115e-07
3.79385e-07
-5.44345e-07
2.56e-07
-3.78279e-07
1.30624e-07
-2.74147e-07
3.59616e-08
-2.03215e-07
-1.04371e-07
-5.47198e-08
-6.97419e-08
-1.86759e-07
-1.35469e-07
-3.48804e-07
-2.19085e-07
-4.94841e-07
-3.79334e-07
-5.90179e-07
-6.31941e-07
-6.13819e-07
-9.7149e-07
-5.55908e-07
-1.38508e-06
-4.14114e-07
-1.85921e-06
-1.90486e-07
-2.38245e-06
1.10814e-07
-2.94589e-06
4.84885e-07
-3.54235e-06
9.26812e-07
-4.16538e-06
1.43191e-06
-4.80822e-06
1.99571e-06
-5.46301e-06
2.61374e-06
-6.12016e-06
3.28133e-06
-6.76793e-06
3.99338e-06
-7.39226e-06
4.74411e-06
-7.97656e-06
5.52698e-06
-8.50182e-06
6.33461e-06
-8.94661e-06
7.15871e-06
-9.28725e-06
7.99015e-06
-9.49795e-06
8.819e-06
-9.55109e-06
9.63475e-06
-9.41749e-06
1.04265e-05
-9.06677e-06
1.11832e-05
-8.46761e-06
1.18944e-05
-7.58765e-06
1.25489e-05
-6.39228e-06
1.31332e-05
-4.8426e-06
1.36266e-05
-2.8937e-06
1.39939e-05
-4.95072e-07
1.41746e-05
2.40419e-06
1.40735e-05
5.83844e-06
1.35645e-05
9.78305e-06
1.25252e-05
1.40916e-05
1.08835e-05
1.84772e-05
8.64025e-06
2.25696e-05
5.87962e-06
2.59732e-05
2.75534e-06
2.8344e-05
-5.37035e-07
2.94462e-05
-3.78043e-06
2.91647e-05
-6.76378e-06
2.7529e-05
-9.31181e-06
2.47145e-05
-1.1305e-05
2.10095e-05
-1.2696e-05
1.67797e-05
-1.35152e-05
1.24122e-05
-1.38574e-05
8.24586e-06
-1.38474e-05
4.50933e-06
-1.3599e-05
1.29606e-06
-1.31913e-05
-1.39907e-06
-1.26723e-05
-3.61852e-06
-1.20706e-05
-5.41145e-06
-1.14036e-05
-6.82435e-06
-1.0684e-05
-7.89898e-06
-9.92212e-06
-8.67289e-06
-9.12804e-06
-9.18014e-06
-8.31211e-06
-9.45186e-06
-7.48526e-06
-9.51724e-06
-6.65846e-06
-9.40465e-06
-5.84214e-06
-9.14201e-06
-5.04574e-06
-8.75635e-06
-4.27761e-06
-8.2731e-06
-3.545e-06
-7.71569e-06
-2.85419e-06
-7.10526e-06
-2.21062e-06
-6.46049e-06
-1.61908e-06
-5.79759e-06
-1.08392e-06
-5.13029e-06
-6.09278e-07
-4.47004e-06
-1.99282e-07
-3.82623e-06
1.41746e-07
-3.20664e-06
4.09301e-07
-2.61806e-06
5.98957e-07
-2.0671e-06
7.07098e-07
-1.5612e-06
7.32335e-07
-1.10965e-06
6.77805e-07
-7.24253e-07
5.5438e-07
-4.18823e-07
3.8425e-07
-2.06348e-07
2.0333e-07
-9.18313e-08
5.91877e-08
-5.8191e-08
-4.4393e-08
-8.71428e-08
1.8846e-08
-2.80417e-07
5.87398e-08
-5.02609e-07
4.42224e-09
-6.90218e-07
-1.90601e-07
-8.02949e-07
-5.18136e-07
-8.21856e-07
-9.5136e-07
-7.4254e-07
-1.46285e-06
-5.68772e-07
-2.03095e-06
-3.08005e-07
-2.64063e-06
3.12861e-08
-3.282e-06
4.40944e-07
-3.94827e-06
9.1362e-07
-4.6338e-06
1.44279e-06
-5.33268e-06
2.02253e-06
-6.03761e-06
2.64717e-06
-6.73926e-06
3.311e-06
-7.42587e-06
4.00797e-06
-8.08299e-06
4.73149e-06
-8.69355e-06
5.47431e-06
-9.23785e-06
6.22845e-06
-9.69379e-06
6.98531e-06
-1.0037e-05
7.73564e-06
-1.02412e-05
8.46976e-06
-1.02782e-05
9.17778e-06
-1.01187e-05
9.85006e-06
-9.73266e-06
1.04781e-05
-9.08981e-06
1.10559e-05
-8.16023e-06
1.15803e-05
-6.91241e-06
1.20504e-05
-5.30936e-06
1.24628e-05
-3.30396e-06
1.28033e-05
-8.34775e-07
1.30301e-05
2.17639e-06
1.30503e-05
5.81489e-06
1.27124e-05
1.01143e-05
1.1856e-05
1.49372e-05
1.03849e-05
1.99326e-05
8.28767e-06
2.46464e-05
5.65197e-06
2.8585e-05
2.64375e-06
3.13271e-05
-5.35894e-07
3.26031e-05
-3.66099e-06
3.22708e-05
-6.51084e-06
3.03627e-05
-8.90634e-06
2.70948e-05
-1.0726e-05
2.28131e-05
-1.19274e-05
1.79635e-05
-1.25592e-05
1.30257e-05
-1.27463e-05
8.4154e-06
-1.26461e-05
4.39378e-06