/*--------------------------------*- C++ -*----------------------------------*\
| =========                 |                                                 |
| \\      /  F ield         | OpenFOAM: The Open Source CFD Toolbox           |
|  \\    /   O peration     | Version:  2412                                  |
|   \\  /    A nd           | Website:  www.openfoam.com                      |
|    \\/     M anipulation  |                                                 |
\*---------------------------------------------------------------------------*/
FoamFile
{
    version     2.0;
    format      ascii;
    arch        "LSB;label=32;scalar=64";
    class       volScalarField;
    location    "38";
    object      p;
}
// * * * * * * * * * * * * * * * * * * * * * * * * * * * * * * * * * * * * * //

dimensions      [1 -1 -2 0 0 0 0];

internalField   nonuniform List<scalar> 
6400
(
53992.9
53931.6
53854.8
53752.1
53604.7
53459
53296.7
53061
52773.1
52386.3
51877.1
51274.8
50585.5
49764.9
48780.8
47652.5
46425.3
45126.6
43755.6
42296.7
40738.7
39087
37365
35607
33847.8
32115.4
30431.2
28813.3
27280.5
25853.5
24554
23403.7
22422.2
21626.1
21027.2
20632.3
20441.7
20449.1
20641.3
20999
21497.5
22108.2
22800.5
23543.6
24307.5
25064.1
25787.5
26453.7
27040.1
27525.9
27891.7
28119.7
28194.4
28102.6
27834.4
27383.9
26749.7
25935.5
24950
23807.1
22525.3
21127.1
19637.6
18084.1
16493.9
14893.5
13307.3
11756.6
10260.2
8834.49
7494.86
6256.28
5133.37
4139.97
3288.27
2588.45
2047.72
1669.72
1451.71
1359.31
52821.7
52780.6
52722.8
52647.6
52516.9
52357.4
52191.9
51958.1
51648.4
51254.3
50760.1
50164
49452.8
48607
47618.6
46503.6
45285.8
43978.6
42580.9
41085.4
39490.2
37806.6
36060.3
34285
32513.4
30772.4
29082.1
27460.1
25924.2
24494.4
23192.5
22040.3
21058.4
20263.6
19668.6
19280
19097.9
19115.7
19319.7
19690
20201.2
20824.2
21528.3
22282.3
23056.3
23822.3
24554.1
25227.6
25820.2
26311.2
26681.5
26913.8
26992.6
26904.8
26640.4
26192.9
25560.6
24746.8
23760.5
22615.7
21331.2
19930.1
18438.3
16883.3
15292.9
13693.7
12109.5
10561.3
9067.28
7643.6
6305.65
5068.54
3947.04
2954.92
2104.56
1406.46
869.516
498.629
287.294
190.432
51587.5
51570.6
51546.3
51498.7
51381.3
51227.4
51052
50817.7
50522
50137.9
49651.3
49057.4
48345.7
47501.6
46524.5
45425.2
44212.7
42888.2
41452.3
39910.5
38275.3
36565.4
34804.7
33020.7
31240.8
29489.3
27787.3
26154.1
24608.7
23171.4
21863.6
20707
19721.6
18924.6
18328.4
17939.7
17758.8
17779.4
17987.9
18364.2
18882.8
19514.1
20226.9
20989.6
21772.2
22546.1
23284.9
23964.2
24561.7
25056.6
25430.3
25665.8
25747.8
25663.5
25402.5
24958.5
24329.4
23518.7
22535.2
21393.3
20112
18714.8
17228
15679.4
14097
12506.8
10932.4
9394.16
7909.88
6495.73
5167.1
3938.8
2825.2
1839.96
995.994
304.969
-223.524
-583.737
-784.516
-874.7
50305.6
50325.6
50322
50297.4
50168.3
50021.6
49857.8
49638
49346.4
48961.6
48478
47900.5
47213.2
46389
45416.5
44307.3
43078
41735.2
40280
38718.4
37065.9
35344.9
33580.2
31796.2
30015.6
28259.9
26550.1
24906.9
23351.5
21905.8
20591.9
19431.4
18444
17645.4
17047.1
16655.1
16469.9
16485.5
16689
17061.1
17576.4
18205.8
18917.7
19680.7
20464.1
21239.1
21979.2
22659.7
23257.8
23753.1
24126.9
24362.1
24443.8
24359.3
24098.7
23656.2
23030.3
22224.8
21248.9
20117
18848.4
17466.3
15996.9
14467.7
12906.2
11337.8
9785.44
8268.89
6805.88
5412.79
4105.02
2897.21
1802.92
835.332
7.4529
-668.81
-1184.13
-1532.17
-1721.72
-1804.95
48936.8
49004.3
49031.6
49017.7
48886.1
48746.7
48593.4
48380.7
48087.2
47701.6
47231.6
46675.3
46009.3
45199.7
44233.2
43122.1
41886.5
40537.7
39079.3
37517.8
35868.4
34153
32394.9
30616.2
28837.6
27079.8
25364.1
23712.9
22149.5
20697.2
19378.9
18215.8
17226.1
16424.2
15820.4
15420.4
15224.7
15228.2
15418.9
15778.4
16281.9
16900.5
17603
18357.7
19134.1
19903.1
20638
21313.9
21907.9
22399.1
22768.7
22999.8
23077.7
22990.1
22728.2
22286.9
21665.7
20868.8
19906
18791.8
17545.3
16189.4
14749.6
13252.7
11725.3
10191.8
8674.1
7191.73
5762.37
4402.45
3127.41
1951.18
886.614
-53.9796
-857.799
-1513.34
-2012.14
-2346.84
-2525.77
-2603.62
47575.5
47685.7
47740.8
47728.1
47593.8
47448.4
47290
47076.8
46771.8
46373.4
45902.8
45360.2
44712.2
43915.4
42950.4
41832.7
40591.3
39244.4
37795.8
36247.2
34608.9
32901.3
31148.6
29373.7
27597.6
25840.5
24123.7
22470.6
20905.6
19453.2
18136.5
16976
15988.7
15187.7
14582
14177
13973.4
13966.4
14145
14491.3
14981.3
15586.6
16276.5
17019.7
17785.9
18546.4
19274.4
19944.6
20533.9
21020.9
21386.4
21613.2
21687.1
21596.6
21333.7
20894.7
20279.9
19494.9
18549.6
17458.9
16241.6
14920.1
13518.9
12063.8
10579.8
9090.28
7616.19
6176.57
4789.11
3470.58
2236.2
1099.47
72.1679
-833.923
-1607.12
-2236.87
-2715.07
-3034.86
-3201.58
-3272.78
46189.6
46354.2
46423.9
46416.5
46273.8
46107
45926.7
45706.3
45392.2
44981.2
44498.6
43946.4
43296.1
42506.4
41553
40444.1
39207.4
37865.2
36424.6
34885.9
33256.3
31554.1
29804
28030.7
26256.7
24503
22791.1
21144.2
19586.5
18142.4
16834.5
15682.9
14703.5
13908.6
13306.5
12902.1
12695.8
12683
12852.9
13188
13665
14256.3
14932.1
15662.1
16416.6
17167.3
17887.4
18551.6
19136.2
19619.2
19981
20204.6
20276
20184.6
19923.3
19489.6
18885.3
18116.5
17194.3
16133.5
14952.8
13673.8
12319.9
10915.4
9483.88
8047.12
6625.18
5236.56
3898.95
2629.09
1442.3
351.28
-632.906
-1499.55
-2237.67
-2837.93
-3291.73
-3593.72
-3746.5
-3808.58
44715.5
44915
45009.3
45010.8
44861.1
44668.5
44461.2
44229.1
43907.5
43490.6
42998.5
42428.5
41760.1
40965.8
40025
38937
37718.4
36387
34951.7
33416.1
31789.1
30089.6
28342.8
26574.5
24808.1
23064.9
21366.2
19734.2
18192.4
16764.6
15473.1
14337.2
13372.6
12590.7
11999
11601.6
11398.3
11384
11547.8
11872.8
12336.4
12912.1
13571.6
14285.8
15025.9
15764.5
16474.7
17131.1
17709.6
18187.9
18546.2
18767.5
18838.1
18748.2
18492.1
18068.1
17479.4
16733.3
15841.4
14818.8
13683.8
12456.9
11160.3
9816.34
8446.93
7072.46
5711.91
4383.22
3103.62
1889.62
756.182
-283.924
-1220.1
-2042.27
-2741.32
-3308.89
-3735.76
-4017.24
-4154.4
-4206.12
43082
43297.7
43427.3
43441.4
43285.6
43075.5
42843.1
42597.2
42265.8
41846.9
41350.2
40762.8
40067.9
39255.8
38317.5
37249
36054.4
34741.4
33316.2
31785.7
30163.2
28470.3
26733.9
24980.1
23232.4
21511.6
19838
18233
16719.2
15319.7
14056.1
12947.3
12008.1
11248.9
10676.2
10293
10098.1
10086
10245.8
10561
11010.2
11568.7
12209.6
12905.2
13628.2
14351.4
15048.5
15693.9
16263.4
16734.4
17087.3
17305.4
17375.8
17289.4
17041.6
16632.1
16065.1
15349
14495.7
13520.4
12440.6
11275.7
10046.1
8772.5
7474.78
6171.94
4882.06
3622.49
2409.93
1259.96
186.809
-797.191
-1680.91
-2454.7
-3111.12
-3643.15
-4041.4
-4300.29
-4421.06
-4462.03
41221.8
41457.5
41630
41650.8
41499.5
41282.1
41035.7
40772.5
40427.7
40004.8
39507.6
38908.5
38189.6
37354.3
36408.4
35350.8
34177.9
32887.4
31480.5
29964.5
28356.2
26680.8
24966.8
23240.8
21525.7
19841.4
18207.3
16643.5
15172
13815.1
12593.8
11525.7
10624.4
9898.85
9354.1
8991.78
8810
8802.79
8959.46
9264.47
9697.93
10236.8
10856
11529.5
12231.2
12934.8
13614.1
14243.8
14799.8
15259.8
15604.6
15818.2
15888.5
15807.8
15572.3
15183
14645
13967.2
13161.8
12243.4
11228.8
10135.7
8983.07
7789.49
6573.1
5351.39
4141.46
2960.04
1823.1
745.235
-260.693
-1182.96
-2010.21
-2732.45
-3343.66
-3837.77
-4205.79
-4441.04
-4545.28
-4576.45
39102.7
39371.7
39574.7
39601
39460.6
39247.7
38996.7
38716
38351.4
37918.7
37417.3
36811.6
36078.6
35227.3
34273.4
33221.4
32065.7
30798.3
29416.1
27926
26346.4
24704.4
23029.5
21348.3
19682.8
18051.9
16473.8
14968
13555.6
12258
11095
10082.7
9232.66
8551.96
8044
7709.17
7544.88
7545.05
7699.51
7993.88
8409.95
8926.58
9520.66
10167.9
10843.4
11521.8
12177.6
12786
13323.5
13768.5
14102.5
14310.6
14381.9
14309.6
14091.2
13728.4
13227
12596.2
11847.8
10995.7
10055.4
9043.36
7976.56
6871.89
5745.75
4614.15
3493.01
2398.05
1344.32
345.383
-587.037
-1442.12
-2208.49
-2875.92
-3439.37
-3893.34
-4229.78
-4440.91
-4530.03
-4553.19
36704.6
36991.2
37209.1
37232.4
37112.1
36901.4
36657.8
36359.4
35977.2
35530.1
35017.8
34403.2
33665.3
32812.6
31863
30823.1
29687.8
28448
27099.6
25649.6
24117.1
22529.4
20915.4
19300.7
17705.9
16149
14647.3
13219.5
11885.9
10666.7
9579.74
8639
7853.59
7228.51
6765.57
6464.14
6321.23
6330.95
6483.94
6767.14
7164.11
7655.65
8220.63
8836.5
9479.77
10126.3
10751.8
11332.3
11845.5
12270.9
12591.2
12792.8
12865.9
12804.7
12607.5
12276.8
11818.7
11242.2
10558.7
9780.98
8923.13
7999.97
7026.75
6018.65
4990.53
3957.05
2932.79
1932.04
968.451
54.5559
-798.674
-1581
-2281.3
-2889.81
-3402.11
-3813.97
-4117.72
-4305.57
-4381.45
-4398.77
33963.2
34231.6
34440.1
34455.7
34356
34148.9
33914.3
33610.4
33220.3
32770.5
32250.3
31629.2
30893.4
30054.8
29128.5
28118.9
27020.3
25824.2
24527.8
23139.5
21678.7
20171.5
18645
17122.8
15624.1
14165.6
12764.1
11437.4
10204.5
9083.79
8090.57
7236.02
6526.77
5965.87
5553.88
5289.61
5170.06
5189.86
5340.62
5610.7
5985.36
6447.35
6977.44
7554.93
8158.02
8764.18
9350.66
9895.17
10376.8
10776.8
11079.3
11272.1
11346.5
11297.7
11124.7
10830.3
10420.5
9904.12
9291.66
8594.86
7826.3
6999.11
6126.65
5222.21
4299.1
3370.8
2450.68
1551.42
684.86
-137.722
-905.869
-1609.4
-2237.88
-2782.32
-3240.04
-3607.47
-3878.67
-4044.08
-4108.89
-4120.6
30786.1
30991.5
31171.8
31161.5
31088.3
30887
30666.2
30370.6
29997.6
29563.2
29055.7
28445.6
27730.7
26926.1
26046.3
25092.3
24056.7
22931.8
21716.6
20420.4
19062.7
17667.5
16259.5
14859.8
13486
12153.7
10878.9
9678.11
8568.48
7565.64
6681.98
5925.69
5301.11
4809.8
4451.64
4225.42
4128.56
4156.47
4301.86
4554.47
4901.22
5326.7
5813.62
6343.24
6895.77
7450.71
7987.38
8485.62
8926.54
9293.39
9572.15
9751.99
9825.48
9788.64
9640.98
9385.34
9027.48
8575.43
8038.76
7428.01
6754.39
6029.41
5264.45
4470.68
3659.55
2843.24
2034.06
1243.24
480.783
-243.658
-920.096
-1538.64
-2089.22
-2565.03
-2964.46
-3286.25
-3524.24
-3668.44
-3722.33
-3728.07
27100
27212.5
27338.9
27294
27230.6
27057.2
26839.5
26573.2
26246.6
25860.2
25390
24820.4
24155.8
23415.9
22612.5
21745.3
20805.9
19786.9
18688.7
17521.2
16302.5
15054.5
13798.8
12554
11336.2
10159.8
9039.06
7988.97
7023.92
6156.37
5395.45
4746.67
4212.54
3793.73
3490.09
3300.82
3224.11
3256.27
3391.15
3619.85
3930.93
4310.78
4744.13
5214.44
5704.23
6195.48
6670.08
7110.44
7500.2
7824.86
8072.44
8233.76
8302.64
8275.91
8153.41
7937.83
7634.31
7249.86
6792.79
6272.34
5698.37
5080.91
4429.47
3753.02
3060.84
2363.49
1672.14
996.791
345.605
-273.422
-851.394
-1378.63
-1846.51
-2249.58
-2588.69
-2862.63
-3066.86
-3188.72
-3231.94
-3232.26
22891.2
22896.2
22947.2
22862.1
22787
22660.1
22465.8
22224.6
21957
21637
21234.7
20736.5
20157.5
19516.5
18824.2
18077.9
17269.9
16393.9
15451
14450.7
13409.1
12345.2
11277.2
10221.4
9191.72
8200.88
7261.38
6385.55
5584.65
4867.77
4241.01
3707.67
3269.04
2925.51
2677.24
2524.09
2465.06
2497.41
2616.14
2813.74
3080.46
3404.66
3773.29
4172.28
4586.84
5001.82
5402.09
5773.03
6101.12
6374.46
6583.27
6720.14
6780.18
6760.99
6662.62
6487.44
6239.8
5925.49
5551.35
5125.02
4654.87
4149.41
3616.5
3063.08
2496.22
1924.58
1357.96
805.05
272.29
-234.456
-707.539
-1138.5
-1519.51
-1847.66
-2123.74
-2348.07
-2515.33
-2614.21
-2647.15
-2645.79
18188.6
18092.1
18043.9
17943.1
17833.6
17723.3
17571.1
17388.5
17181.2
16932.9
16612.1
16214.2
15751.4
15241.5
14691.2
14097.9
13454.5
12756.5
12005.4
11209.4
10382
9538.2
8692.95
7859.32
7048.79
6271.85
5538.49
4858.02
4238.42
3685.61
3203.19
2792.86
2455.28
2190.88
2000.23
1883.79
1841.19
1870.59
1968.11
2127.77
2341.72
2600.55
2893.77
3210.11
3537.82
3865
4179.8
4470.91
4727.88
4941.65
5104.86
5211.99
5259.42
5245.37
5169.98
5035.17
4844.46
4602.42
4314.26
3985.77
3623.39
3233.97
2823.84
2398.29
1962.46
1522.88
1087.5
663.481
255.382
-133.057
-496.346
-826.871
-1118.46
-1368.79
-1579.87
-1750.89
-1879.07
-1953.44
-1979.13
-1977.22
13007.9
12854.3
12695.2
12611.5
12532.2
12422.3
12293.6
12164.9
12032
11863
11639.9
11359.1
11034.2
10675.8
10288.9
9870.89
9417.08
8924.28
8393.96
7832.3
7248.93
6654.8
6060.6
5475.89
4909.1
4367.85
3859.11
3389.02
2962.46
2582.72
2251.59
1969.82
1737.79
1556.04
1425.37
1346.52
1319.57
1343.38
1415.26
1530.91
1684.61
1869.53
2078.06
2302.12
2533.39
2763.49
2984.17
3187.57
3366.55
3514.99
3628.04
3702.1
3734.79
3724.87
3672.39
3578.75
3446.54
3279.06
3079.98
2853.21
2603.1
2334.33
2051.34
1757.9
1457.73
1155.61
857.224
567.187
287.92
21.2702
-228.61
-455.953
-655.401
-826.347
-970.168
-1087.54
-1176.4
-1226.5
-1242.73
-1231.63
7349.5
7250.69
7120.7
7043.61
6979.9
6900.12
6819.13
6753.11
6686.59
6598.96
6476.68
6323.5
6145.72
5950.47
5739.13
5510.51
5261.68
4991.12
4699.74
4391.18
4070.91
3745.14
3419.96
3100.81
2792.52
2499.29
2224.8
1972.08
1743.32
1539.84
1362.27
1210.88
1085.99
988.158
918.155
876.681
863.983
879.515
921.739
988.133
1075.35
1179.43
1296.02
1420.55
1548.42
1675.04
1795.93
1906.86
2004.06
2084.35
2145.28
2185.07
2202.44
2196.71
2167.95
2116.97
2045.21
1954.43
1846.6
1723.92
1588.92
1444.23
1292.04
1134.07
972.411
810.328
651.419
497.488
348.218
204.299
69.2716
-52.2874
-158.398
-249.632
-327.11
-391.449
-444.833
-475.403
-477.435
-433.084
1537.91
1700.15
1673.82
1653.11
1627.08
1596.37
1576.81
1569.47
1562.94
1547.92
1524.27
1493.03
1457.41
1418.37
1376.63
1331.52
1282.36
1228.54
1170.17
1108.06
1043.47
977.834
912.48
848.612
787.218
729.144
675.07
625.482
580.791
541.063
506.235
476.366
451.597
432.179
418.424
410.603
408.84
413.025
422.769
437.44
456.227
478.208
502.414
527.88
553.672
578.908
602.722
624.325
643.076
658.474
670.054
677.525
680.705
679.483
673.756
663.675
649.559
631.806
610.851
587.17
561.158
533.316
504.145
474.013
443.237
412.445
382.576
353.965
325.856
297.869
271.685
249.03
229.576
211.549
195.364
181.439
166.195
154.798
163.711
272.267
-11.3891
-3.87552
-5.71493
-5.76164
-6.04176
-5.99457
-5.6159
-5.14376
-4.80716
-4.61151
-4.50196
-4.40399
-4.32356
-4.24462
-4.18196
-4.1239
-4.06085
-4.02534
-4.04924
-4.11266
-4.19395
-4.27645
-4.36769
-4.46317
-4.57058
-4.68105
-4.79541
-4.91366
-5.16187
-5.48133
-5.77869
-6.05224
-6.29937
-6.51714
-6.70351
-6.85876
-6.98644
-7.09364
-7.18991
-7.25804
-7.32173
-7.39806
-7.4933
-7.60912
-7.74909
-7.91007
-8.08159
-8.26884
-8.49839
-8.79205
-9.06958
-9.31961
-9.4429
-9.35918
-9.22747
-9.09034
-8.95679
-8.82301
-8.73399
-8.73121
-8.73868
-8.754
-8.7833
-8.82453
-8.86631
-8.89446
-8.91044
-8.92719
-8.94304
-8.93812
-8.91723
-8.88827
-8.85838
-8.82298
-8.78243
-8.73881
-8.69822
-8.64869
-8.61853
-8.79547
-10.5431
-10.5435
-10.5439
-10.5442
-10.5442
-10.5442
-10.5442
-10.5442
-10.5442
-10.5442
-10.5442
-10.5441
-10.5441
-10.5441
-10.5441
-10.5441
-10.5441
-10.5441
-10.5441
-10.5441
-10.5441
-10.5441
-10.5441
-10.5441
-10.5441
-10.5441
-10.5441
-10.5441
-10.5441
-10.5441
-10.5441
-10.5441
-10.5441
-10.5441
-10.5441
-10.5441
-10.544
-10.544
-10.544
-10.544
-10.544
-10.544
-10.544
-10.544
-10.544
-10.544
-10.544
-10.544
-10.544
-10.5439
-10.5439
-10.5439
-10.5439
-10.5439
-10.5439
-10.5439
-10.5439
-10.5439
-10.5439
-10.5439
-10.5439
-10.5439
-10.5439
-10.5439
-10.5439
-10.5439
-10.5439
-10.5439
-10.5439
-10.5439
-10.5439
-10.5439
-10.5439
-10.5439
-10.544
-10.5442
-10.5442
-10.5434
-10.5413
-10.5411
-11.0344
-11.0347
-11.0346
-11.0346
-11.0347
-11.0347
-11.0347
-11.0347
-11.0347
-11.0347
-11.0347
-11.0347
-11.0347
-11.0347
-11.0346
-11.0346
-11.0346
-11.0346
-11.0346
-11.0346
-11.0346
-11.0346
-11.0346
-11.0346
-11.0346
-11.0346
-11.0346
-11.0346
-11.0346
-11.0346
-11.0346
-11.0346
-11.0346
-11.0346
-11.0346
-11.0346
-11.0345
-11.0345
-11.0345
-11.0345
-11.0345
-11.0345
-11.0345
-11.0345
-11.0345
-11.0345
-11.0345
-11.0345
-11.0345
-11.0344
-11.0344
-11.0344
-11.0344
-11.0344
-11.0344
-11.0344
-11.0344
-11.0344
-11.0344
-11.0344
-11.0344
-11.0344
-11.0344
-11.0344
-11.0344
-11.0344
-11.0344
-11.0344
-11.0344
-11.0344
-11.0344
-11.0345
-11.0345
-11.0344
-11.0344
-11.0345
-11.0351
-11.0353
-11.0341
-11.0332
-11.5249
-11.5252
-11.5251
-11.5251
-11.5252
-11.5252
-11.5252
-11.5252
-11.5252
-11.5252
-11.5252
-11.5252
-11.5252
-11.5252
-11.5252
-11.5251
-11.5251
-11.5251
-11.5251
-11.5251
-11.5251
-11.5251
-11.5251
-11.5251
-11.5251
-11.5251
-11.5251
-11.5251
-11.5251
-11.5251
-11.5251
-11.5251
-11.5251
-11.5251
-11.5251
-11.525
-11.525
-11.525
-11.525
-11.525
-11.525
-11.525
-11.525
-11.525
-11.525
-11.525
-11.525
-11.525
-11.525
-11.5249
-11.5249
-11.5249
-11.5249
-11.5249
-11.5249
-11.5249
-11.5249
-11.5249
-11.5249
-11.5249
-11.5249
-11.5249
-11.5249
-11.5249
-11.5249
-11.5249
-11.5249
-11.5249
-11.5249
-11.5249
-11.5249
-11.5249
-11.525
-11.5249
-11.5249
-11.5248
-11.5251
-11.5249
-11.5246
-11.5247
-12.0159
-12.0158
-12.0157
-12.0157
-12.0157
-12.0157
-12.0157
-12.0157
-12.0157
-12.0157
-12.0157
-12.0157
-12.0157
-12.0157
-12.0157
-12.0157
-12.0157
-12.0157
-12.0157
-12.0157
-12.0156
-12.0156
-12.0156
-12.0156
-12.0156
-12.0156
-12.0156
-12.0156
-12.0156
-12.0156
-12.0156
-12.0156
-12.0156
-12.0156
-12.0156
-12.0155
-12.0155
-12.0155
-12.0155
-12.0155
-12.0155
-12.0155
-12.0155
-12.0155
-12.0155
-12.0155
-12.0155
-12.0155
-12.0155
-12.0154
-12.0154
-12.0154
-12.0154
-12.0154
-12.0154
-12.0154
-12.0154
-12.0154
-12.0154
-12.0154
-12.0154
-12.0154
-12.0154
-12.0154
-12.0154
-12.0154
-12.0154
-12.0154
-12.0154
-12.0154
-12.0154
-12.0155
-12.0155
-12.0155
-12.0155
-12.0155
-12.0159
-12.0164
-12.0162
-12.016
-12.5063
-12.5063
-12.5062
-12.5062
-12.5062
-12.5062
-12.5062
-12.5062
-12.5062
-12.5062
-12.5062
-12.5062
-12.5062
-12.5062
-12.5062
-12.5062
-12.5062
-12.5062
-12.5062
-12.5062
-12.5062
-12.5061
-12.5061
-12.5061
-12.5061
-12.5061
-12.5061
-12.5061
-12.5061
-12.5061
-12.5061
-12.5061
-12.5061
-12.5061
-12.5061
-12.506
-12.506
-12.506
-12.506
-12.506
-12.506
-12.506
-12.506
-12.506
-12.506
-12.506
-12.506
-12.506
-12.506
-12.5059
-12.5059
-12.5059
-12.5059
-12.5059
-12.5059
-12.5059
-12.5059
-12.5059
-12.5059
-12.5059
-12.5059
-12.5059
-12.5059
-12.5059
-12.5059
-12.5059
-12.5059
-12.5059
-12.5059
-12.5059
-12.5059
-12.5059
-12.5059
-12.5058
-12.5059
-12.5058
-12.506
-12.5064
-12.5064
-12.5065
-12.9966
-12.9967
-12.9967
-12.9967
-12.9967
-12.9967
-12.9967
-12.9967
-12.9967
-12.9967
-12.9967
-12.9967
-12.9967
-12.9967
-12.9967
-12.9967
-12.9967
-12.9967
-12.9967
-12.9967
-12.9967
-12.9966
-12.9966
-12.9966
-12.9966
-12.9966
-12.9966
-12.9966
-12.9966
-12.9966
-12.9966
-12.9966
-12.9966
-12.9966
-12.9966
-12.9965
-12.9965
-12.9965
-12.9965
-12.9965
-12.9965
-12.9965
-12.9965
-12.9965
-12.9965
-12.9965
-12.9965
-12.9965
-12.9965
-12.9965
-12.9964
-12.9964
-12.9964
-12.9964
-12.9964
-12.9964
-12.9964
-12.9964
-12.9964
-12.9964
-12.9964
-12.9964
-12.9964
-12.9964
-12.9964
-12.9964
-12.9964
-12.9964
-12.9964
-12.9964
-12.9964
-12.9965
-12.9965
-12.9965
-12.9965
-12.9965
-12.9965
-12.9966
-12.9965
-12.9967
-13.4871
-13.4872
-13.4872
-13.4872
-13.4872
-13.4872
-13.4872
-13.4872
-13.4872
-13.4872
-13.4872
-13.4872
-13.4872
-13.4872
-13.4872
-13.4872
-13.4872
-13.4872
-13.4872
-13.4872
-13.4872
-13.4871
-13.4871
-13.4871
-13.4871
-13.4871
-13.4871
-13.4871
-13.4871
-13.4871
-13.4871
-13.4871
-13.4871
-13.4871
-13.4871
-13.4871
-13.487
-13.487
-13.487
-13.487
-13.487
-13.487
-13.487
-13.487
-13.487
-13.487
-13.487
-13.487
-13.487
-13.487
-13.4869
-13.4869
-13.4869
-13.4869
-13.4869
-13.4869
-13.4869
-13.4869
-13.4869
-13.4869
-13.4869
-13.4869
-13.4869
-13.4869
-13.4869
-13.4869
-13.4869
-13.4869
-13.4869
-13.4869
-13.4869
-13.4869
-13.4868
-13.4869
-13.4869
-13.487
-13.487
-13.487
-13.4869
-13.487
-13.9777
-13.9777
-13.9777
-13.9777
-13.9777
-13.9777
-13.9777
-13.9777
-13.9777
-13.9777
-13.9777
-13.9777
-13.9777
-13.9777
-13.9777
-13.9777
-13.9777
-13.9777
-13.9777
-13.9777
-13.9777
-13.9777
-13.9776
-13.9776
-13.9776
-13.9776
-13.9776
-13.9776
-13.9776
-13.9776
-13.9776
-13.9776
-13.9776
-13.9776
-13.9776
-13.9776
-13.9775
-13.9775
-13.9775
-13.9775
-13.9775
-13.9775
-13.9775
-13.9775
-13.9775
-13.9775
-13.9775
-13.9775
-13.9775
-13.9775
-13.9775
-13.9774
-13.9774
-13.9774
-13.9774
-13.9774
-13.9774
-13.9774
-13.9774
-13.9774
-13.9774
-13.9774
-13.9774
-13.9774
-13.9774
-13.9774
-13.9774
-13.9774
-13.9774
-13.9774
-13.9775
-13.9775
-13.9775
-13.9774
-13.9774
-13.9774
-13.9774
-13.9775
-13.9775
-13.9775
-14.4682
-14.4682
-14.4682
-14.4682
-14.4682
-14.4682
-14.4682
-14.4682
-14.4682
-14.4682
-14.4682
-14.4682
-14.4682
-14.4682
-14.4682
-14.4682
-14.4682
-14.4682
-14.4682
-14.4682
-14.4682
-14.4682
-14.4682
-14.4681
-14.4681
-14.4681
-14.4681
-14.4681
-14.4681
-14.4681
-14.4681
-14.4681
-14.4681
-14.4681
-14.4681
-14.4681
-14.4681
-14.468
-14.468
-14.468
-14.468
-14.468
-14.468
-14.468
-14.468
-14.468
-14.468
-14.468
-14.468
-14.468
-14.468
-14.468
-14.468
-14.4679
-14.4679
-14.4679
-14.4679
-14.4679
-14.4679
-14.4679
-14.4679
-14.4679
-14.4679
-14.4679
-14.4679
-14.4679
-14.4679
-14.4679
-14.4678
-14.4678
-14.4678
-14.4679
-14.468
-14.468
-14.4679
-14.468
-14.4679
-14.468
-14.468
-14.468
-14.9587
-14.9587
-14.9587
-14.9587
-14.9587
-14.9587
-14.9587
-14.9587
-14.9587
-14.9587
-14.9587
-14.9587
-14.9587
-14.9587
-14.9587
-14.9587
-14.9587
-14.9587
-14.9587
-14.9587
-14.9587
-14.9587
-14.9587
-14.9587
-14.9586
-14.9586
-14.9586
-14.9586
-14.9586
-14.9586
-14.9586
-14.9586
-14.9586
-14.9586
-14.9586
-14.9586
-14.9586
-14.9586
-14.9586
-14.9585
-14.9585
-14.9585
-14.9585
-14.9585
-14.9585
-14.9585
-14.9585
-14.9585
-14.9585
-14.9585
-14.9585
-14.9585
-14.9585
-14.9585
-14.9585
-14.9585
-14.9585
-14.9585
-14.9584
-14.9584
-14.9584
-14.9584
-14.9584
-14.9584
-14.9584
-14.9584
-14.9584
-14.9584
-14.9584
-14.9584
-14.9583
-14.9583
-14.9584
-14.9585
-14.9585
-14.9585
-14.9585
-14.9585
-14.9585
-14.9585
-15.4492
-15.4492
-15.4492
-15.4492
-15.4492
-15.4492
-15.4492
-15.4492
-15.4492
-15.4492
-15.4492
-15.4492
-15.4492
-15.4492
-15.4492
-15.4492
-15.4492
-15.4492
-15.4492
-15.4492
-15.4492
-15.4492
-15.4492
-15.4492
-15.4492
-15.4492
-15.4491
-15.4491
-15.4491
-15.4491
-15.4491
-15.4491
-15.4491
-15.4491
-15.4491
-15.4491
-15.4491
-15.4491
-15.4491
-15.4491
-15.4491
-15.449
-15.449
-15.449
-15.449
-15.449
-15.449
-15.449
-15.449
-15.449
-15.449
-15.449
-15.449
-15.449
-15.449
-15.449
-15.449
-15.449
-15.449
-15.449
-15.4489
-15.4489
-15.4489
-15.4489
-15.4489
-15.4489
-15.4489
-15.4489
-15.449
-15.449
-15.4489
-15.4489
-15.4489
-15.449
-15.4489
-15.449
-15.4489
-15.4489
-15.4489
-15.4489
-15.9397
-15.9397
-15.9397
-15.9397
-15.9397
-15.9397
-15.9397
-15.9397
-15.9397
-15.9397
-15.9397
-15.9397
-15.9397
-15.9397
-15.9397
-15.9397
-15.9397
-15.9397
-15.9397
-15.9397
-15.9397
-15.9397
-15.9397
-15.9397
-15.9397
-15.9397
-15.9397
-15.9397
-15.9396
-15.9396
-15.9396
-15.9396
-15.9396
-15.9396
-15.9396
-15.9396
-15.9396
-15.9396
-15.9396
-15.9396
-15.9396
-15.9396
-15.9396
-15.9395
-15.9395
-15.9395
-15.9395
-15.9395
-15.9395
-15.9395
-15.9395
-15.9395
-15.9395
-15.9395
-15.9395
-15.9395
-15.9395
-15.9395
-15.9395
-15.9395
-15.9395
-15.9394
-15.9394
-15.9394
-15.9394
-15.9394
-15.9394
-15.9394
-15.9394
-15.9395
-15.9394
-15.9394
-15.9394
-15.9394
-15.9394
-15.9394
-15.9394
-15.9394
-15.9394
-15.9395
-16.4302
-16.4302
-16.4302
-16.4302
-16.4302
-16.4302
-16.4302
-16.4302
-16.4302
-16.4302
-16.4302
-16.4302
-16.4302
-16.4302
-16.4302
-16.4302
-16.4302
-16.4302
-16.4302
-16.4302
-16.4302
-16.4302
-16.4302
-16.4302
-16.4302
-16.4302
-16.4302
-16.4302
-16.4302
-16.4302
-16.4301
-16.4301
-16.4301
-16.4301
-16.4301
-16.4301
-16.4301
-16.4301
-16.4301
-16.4301
-16.4301
-16.4301
-16.4301
-16.4301
-16.43
-16.43
-16.43
-16.43
-16.43
-16.43
-16.43
-16.43
-16.43
-16.43
-16.43
-16.43
-16.43
-16.43
-16.43
-16.43
-16.43
-16.43
-16.4299
-16.4299
-16.4299
-16.43
-16.4299
-16.4299
-16.4299
-16.43
-16.43
-16.4299
-16.4299
-16.4299
-16.4299
-16.4299
-16.43
-16.43
-16.43
-16.43
-16.9208
-16.9208
-16.9208
-16.9207
-16.9207
-16.9207
-16.9207
-16.9207
-16.9207
-16.9207
-16.9207
-16.9208
-16.9208
-16.9207
-16.9207
-16.9207
-16.9207
-16.9207
-16.9207
-16.9207
-16.9207
-16.9207
-16.9207
-16.9207
-16.9207
-16.9207
-16.9207
-16.9207
-16.9207
-16.9207
-16.9207
-16.9206
-16.9206
-16.9206
-16.9206
-16.9206
-16.9206
-16.9206
-16.9206
-16.9206
-16.9206
-16.9206
-16.9206
-16.9206
-16.9206
-16.9206
-16.9205
-16.9205
-16.9205
-16.9205
-16.9205
-16.9205
-16.9205
-16.9205
-16.9205
-16.9205
-16.9205
-16.9205
-16.9205
-16.9205
-16.9205
-16.9205
-16.9205
-16.9204
-16.9205
-16.9205
-16.9205
-16.9205
-16.9205
-16.9205
-16.9205
-16.9205
-16.9205
-16.9205
-16.9205
-16.9205
-16.9205
-16.9205
-16.9205
-16.9205
-17.4113
-17.4113
-17.4113
-17.4113
-17.4113
-17.4113
-17.4113
-17.4113
-17.4113
-17.4113
-17.4113
-17.4113
-17.4113
-17.4113
-17.4113
-17.4113
-17.4113
-17.4112
-17.4112
-17.4112
-17.4112
-17.4112
-17.4112
-17.4112
-17.4112
-17.4112
-17.4112
-17.4112
-17.4112
-17.4112
-17.4112
-17.4112
-17.4112
-17.4111
-17.4111
-17.4111
-17.4111
-17.4111
-17.4111
-17.4111
-17.4111
-17.4111
-17.4111
-17.4111
-17.4111
-17.4111
-17.4111
-17.4111
-17.4111
-17.411
-17.411
-17.411
-17.411
-17.411
-17.411
-17.411
-17.411
-17.411
-17.411
-17.411
-17.411
-17.411
-17.411
-17.4109
-17.4109
-17.411
-17.411
-17.411
-17.411
-17.411
-17.411
-17.411
-17.411
-17.411
-17.411
-17.411
-17.411
-17.411
-17.411
-17.411
-17.9018
-17.9018
-17.9018
-17.9018
-17.9018
-17.9018
-17.9018
-17.9018
-17.9018
-17.9018
-17.9018
-17.9018
-17.9018
-17.9018
-17.9018
-17.9018
-17.9018
-17.9018
-17.9018
-17.9018
-17.9017
-17.9017
-17.9017
-17.9017
-17.9017
-17.9017
-17.9017
-17.9017
-17.9017
-17.9017
-17.9017
-17.9017
-17.9017
-17.9017
-17.9017
-17.9016
-17.9016
-17.9016
-17.9016
-17.9016
-17.9016
-17.9016
-17.9016
-17.9016
-17.9016
-17.9016
-17.9016
-17.9016
-17.9016
-17.9016
-17.9016
-17.9016
-17.9015
-17.9015
-17.9015
-17.9015
-17.9015
-17.9015
-17.9015
-17.9015
-17.9016
-17.9016
-17.9015
-17.9015
-17.9014
-17.9014
-17.9015
-17.9015
-17.9015
-17.9015
-17.9015
-17.9015
-17.9015
-17.9015
-17.9015
-17.9015
-17.9015
-17.9015
-17.9015
-17.9015
-18.3923
-18.3923
-18.3923
-18.3923
-18.3923
-18.3923
-18.3923
-18.3923
-18.3923
-18.3923
-18.3923
-18.3923
-18.3923
-18.3923
-18.3923
-18.3923
-18.3923
-18.3923
-18.3923
-18.3923
-18.3923
-18.3923
-18.3923
-18.3922
-18.3922
-18.3922
-18.3922
-18.3922
-18.3922
-18.3922
-18.3922
-18.3922
-18.3922
-18.3922
-18.3922
-18.3922
-18.3921
-18.3921
-18.3921
-18.3921
-18.3921
-18.3921
-18.3921
-18.3921
-18.3921
-18.3921
-18.3921
-18.3921
-18.3921
-18.3921
-18.3921
-18.3921
-18.3921
-18.3921
-18.392
-18.392
-18.392
-18.392
-18.392
-18.392
-18.3921
-18.3921
-18.3921
-18.392
-18.392
-18.392
-18.392
-18.392
-18.392
-18.392
-18.392
-18.392
-18.392
-18.392
-18.392
-18.392
-18.392
-18.392
-18.392
-18.392
-18.8828
-18.8828
-18.8828
-18.8828
-18.8828
-18.8828
-18.8828
-18.8828
-18.8828
-18.8828
-18.8828
-18.8828
-18.8828
-18.8828
-18.8828
-18.8828
-18.8828
-18.8828
-18.8828
-18.8828
-18.8828
-18.8828
-18.8828
-18.8828
-18.8828
-18.8827
-18.8827
-18.8827
-18.8827
-18.8827
-18.8827
-18.8827
-18.8827
-18.8827
-18.8827
-18.8827
-18.8827
-18.8827
-18.8826
-18.8826
-18.8826
-18.8826
-18.8826
-18.8826
-18.8826
-18.8826
-18.8826
-18.8826
-18.8826
-18.8826
-18.8826
-18.8826
-18.8826
-18.8826
-18.8826
-18.8826
-18.8825
-18.8825
-18.8825
-18.8825
-18.8826
-18.8826
-18.8826
-18.8826
-18.8826
-18.8825
-18.8825
-18.8825
-18.8825
-18.8825
-18.8825
-18.8825
-18.8825
-18.8825
-18.8825
-18.8825
-18.8825
-18.8825
-18.8825
-18.8825
-19.3733
-19.3733
-19.3733
-19.3733
-19.3733
-19.3733
-19.3733
-19.3733
-19.3733
-19.3733
-19.3733
-19.3733
-19.3733
-19.3733
-19.3733
-19.3733
-19.3733
-19.3733
-19.3733
-19.3733
-19.3733
-19.3733
-19.3733
-19.3733
-19.3733
-19.3733
-19.3733
-19.3732
-19.3732
-19.3732
-19.3732
-19.3732
-19.3732
-19.3732
-19.3732
-19.3732
-19.3732
-19.3732
-19.3732
-19.3732
-19.3732
-19.3731
-19.3731
-19.3731
-19.3731
-19.3731
-19.3731
-19.3731
-19.3731
-19.3731
-19.3731
-19.3731
-19.3731
-19.3731
-19.3731
-19.3731
-19.3731
-19.3731
-19.3731
-19.373
-19.3731
-19.3731
-19.3731
-19.3731
-19.3731
-19.3731
-19.3731
-19.373
-19.373
-19.373
-19.373
-19.373
-19.373
-19.373
-19.373
-19.373
-19.373
-19.373
-19.373
-19.373
-19.8639
-19.8639
-19.8639
-19.8639
-19.8639
-19.8639
-19.8639
-19.8639
-19.8639
-19.8639
-19.8639
-19.8639
-19.8638
-19.8638
-19.8638
-19.8638
-19.8638
-19.8638
-19.8638
-19.8638
-19.8638
-19.8638
-19.8638
-19.8638
-19.8638
-19.8638
-19.8638
-19.8638
-19.8638
-19.8638
-19.8637
-19.8637
-19.8637
-19.8637
-19.8637
-19.8637
-19.8637
-19.8637
-19.8637
-19.8637
-19.8637
-19.8637
-19.8637
-19.8637
-19.8636
-19.8636
-19.8636
-19.8636
-19.8636
-19.8636
-19.8636
-19.8636
-19.8636
-19.8636
-19.8636
-19.8636
-19.8636
-19.8636
-19.8636
-19.8636
-19.8636
-19.8636
-19.8636
-19.8636
-19.8636
-19.8636
-19.8636
-19.8636
-19.8636
-19.8636
-19.8636
-19.8636
-19.8636
-19.8636
-19.8636
-19.8636
-19.8636
-19.8636
-19.8636
-19.8636
-20.3544
-20.3544
-20.3544
-20.3544
-20.3544
-20.3544
-20.3544
-20.3544
-20.3544
-20.3544
-20.3544
-20.3544
-20.3544
-20.3544
-20.3544
-20.3544
-20.3544
-20.3544
-20.3543
-20.3543
-20.3543
-20.3543
-20.3543
-20.3543
-20.3543
-20.3543
-20.3543
-20.3543
-20.3543
-20.3543
-20.3543
-20.3543
-20.3542
-20.3542
-20.3542
-20.3542
-20.3542
-20.3542
-20.3542
-20.3542
-20.3542
-20.3542
-20.3542
-20.3542
-20.3542
-20.3542
-20.3542
-20.3542
-20.3542
-20.3542
-20.3542
-20.3542
-20.3542
-20.3542
-20.3542
-20.3541
-20.3541
-20.3541
-20.3541
-20.3541
-20.3541
-20.3541
-20.3541
-20.3541
-20.3541
-20.3542
-20.3542
-20.3541
-20.3541
-20.3541
-20.3541
-20.3541
-20.3541
-20.3541
-20.3541
-20.3541
-20.3541
-20.3541
-20.3541
-20.3541
-20.8449
-20.8449
-20.8449
-20.8449
-20.8449
-20.8449
-20.8449
-20.8449
-20.8449
-20.8449
-20.8449
-20.8449
-20.8449
-20.8449
-20.8449
-20.8449
-20.8449
-20.8449
-20.8449
-20.8449
-20.8449
-20.8449
-20.8448
-20.8448
-20.8448
-20.8448
-20.8448
-20.8448
-20.8448
-20.8448
-20.8448
-20.8448
-20.8448
-20.8448
-20.8448
-20.8448
-20.8447
-20.8447
-20.8447
-20.8447
-20.8447
-20.8447
-20.8447
-20.8447
-20.8447
-20.8447
-20.8447
-20.8447
-20.8447
-20.8447
-20.8447
-20.8447
-20.8447
-20.8447
-20.8447
-20.8447
-20.8447
-20.8447
-20.8446
-20.8446
-20.8446
-20.8446
-20.8446
-20.8446
-20.8446
-20.8447
-20.8447
-20.8447
-20.8447
-20.8447
-20.8447
-20.8447
-20.8447
-20.8447
-20.8447
-20.8447
-20.8447
-20.8447
-20.8447
-20.8447
-21.3354
-21.3354
-21.3354
-21.3354
-21.3354
-21.3354
-21.3354
-21.3354
-21.3354