/*--------------------------------*- C++ -*----------------------------------*\
| =========                 |                                                 |
| \\      /  F ield         | OpenFOAM: The Open Source CFD Toolbox           |
|  \\    /   O peration     | Version:  2412                                  |
|   \\  /    A nd           | Website:  www.openfoam.com                      |
|    \\/     M anipulation  |                                                 |
\*---------------------------------------------------------------------------*/
FoamFile
{
    version     2.0;
    format      ascii;
    arch        "LSB;label=32;scalar=64";
    class       volVectorField;
    location    "6.3";
    object      U;
}
// * * * * * * * * * * * * * * * * * * * * * * * * * * * * * * * * * * * * * //

dimensions      [0 1 -1 0 0 0 0];

internalField   nonuniform List<vector> 
6400
(
(-5.61068e-07 5.66092e-07 0)
(-1.19177e-06 4.49421e-07 0)
(-1.93326e-07 4.96061e-08 0)
(2.69753e-06 -3.60379e-07 0)
(7.48746e-06 -7.13176e-07 0)
(1.40103e-05 -1.00924e-06 0)
(2.20789e-05 -1.25955e-06 0)
(3.15356e-05 -1.47591e-06 0)
(4.22585e-05 -1.66849e-06 0)
(5.41575e-05 -1.84506e-06 0)
(6.71661e-05 -2.01109e-06 0)
(8.12341e-05 -2.17017e-06 0)
(9.63206e-05 -2.3244e-06 0)
(0.000112387 -2.47466e-06 0)
(0.00012939 -2.62076e-06 0)
(0.000147276 -2.76144e-06 0)
(0.000165974 -2.89431e-06 0)
(0.00018539 -3.0157e-06 0)
(0.000205395 -3.12043e-06 0)
(0.000225822 -3.20168e-06 0)
(0.00024645 -3.25079e-06 0)
(0.000267004 -3.25719e-06 0)
(0.000287136 -3.20838e-06 0)
(0.000306422 -3.09005e-06 0)
(0.000324357 -2.88649e-06 0)
(0.000340349 -2.58126e-06 0)
(0.00035372 -2.15832e-06 0)
(0.000363723 -1.60354e-06 0)
(0.000369558 -9.06809e-07 0)
(0.000370403 -6.44575e-08 0)
(0.000365464 9.18137e-07 0)
(0.000354028 2.02414e-06 0)
(0.000335536 3.22348e-06 0)
(0.000309648 4.47256e-06 0)
(0.000276316 5.71541e-06 0)
(0.000235839 6.88718e-06 0)
(0.000188885 7.9193e-06 0)
(0.000136501 8.74602e-06 0)
(8.00648e-05 9.31141e-06 0)
(2.12174e-05 9.57564e-06 0)
(-3.82399e-05 9.51972e-06 0)
(-9.64662e-05 9.14782e-06 0)
(-0.000151705 8.48675e-06 0)
(-0.0002024 7.58285e-06 0)
(-0.000247283 6.49659e-06 0)
(-0.000285442 5.29571e-06 0)
(-0.000316336 4.04795e-06 0)
(-0.000339792 2.81518e-06 0)
(-0.000355964 1.64866e-06 0)
(-0.000365274 5.86592e-07 0)
(-0.000368339 -3.4654e-07 0)
(-0.000365905 -1.13817e-06 0)
(-0.000358781 -1.78566e-06 0)
(-0.000347782 -2.29443e-06 0)
(-0.000333691 -2.6762e-06 0)
(-0.00031723 -2.94507e-06 0)
(-0.000299041 -3.11695e-06 0)
(-0.000279686 -3.20811e-06 0)
(-0.00025964 -3.23445e-06 0)
(-0.000239298 -3.21034e-06 0)
(-0.000218982 -3.14791e-06 0)
(-0.000198948 -3.05676e-06 0)
(-0.000179398 -2.94489e-06 0)
(-0.000160485 -2.81868e-06 0)
(-0.000142321 -2.68301e-06 0)
(-0.000124991 -2.54113e-06 0)
(-0.000108552 -2.39518e-06 0)
(-9.30495e-05 -2.24625e-06 0)
(-7.85154e-05 -2.09465e-06 0)
(-6.49791e-05 -1.93966e-06 0)
(-5.2472e-05 -1.77937e-06 0)
(-4.10338e-05 -1.61028e-06 0)
(-3.07202e-05 -1.42701e-06 0)
(-2.16112e-05 -1.22182e-06 0)
(-1.38186e-05 -9.8459e-07 0)
(-7.49139e-06 -7.03456e-07 0)
(-2.81213e-06 -3.67156e-07 0)
(4.13439e-08 2.82899e-08 0)
(1.04583e-06 4.31042e-07 0)
(4.99968e-07 5.76274e-07 0)
(-3.47671e-07 1.264e-06 0)
(8.14843e-07 -4.81885e-07 0)
(5.9499e-06 -3.94173e-06 0)
(1.55466e-05 -7.6922e-06 0)
(2.96185e-05 -1.12487e-05 0)
(4.79272e-05 -1.4486e-05 0)
(7.0161e-05 -1.74111e-05 0)
(9.60247e-05 -2.00755e-05 0)
(0.000125269 -2.25378e-05 0)
(0.000157693 -2.48479e-05 0)
(0.000193135 -2.70423e-05 0)
(0.000231458 -2.9144e-05 0)
(0.00027254 -3.11625e-05 0)
(0.000316254 -3.30946e-05 0)
(0.000362455 -3.49248e-05 0)
(0.000410965 -3.66246e-05 0)
(0.000461554 -3.81518e-05 0)
(0.000513925 -3.94493e-05 0)
(0.000567689 -4.04435e-05 0)
(0.000622348 -4.10436e-05 0)
(0.000677274 -4.11401e-05 0)
(0.000731681 -4.06057e-05 0)
(0.00078461 -3.92958e-05 0)
(0.000834908 -3.7052e-05 0)
(0.000881216 -3.37078e-05 0)
(0.000921966 -2.90976e-05 0)
(0.000955394 -2.30695e-05 0)
(0.00097957 -1.55034e-05 0)
(0.000992453 -6.3314e-06 0)
(0.000991975 4.43638e-06 0)
(0.000976159 1.66883e-05 0)
(0.00094326 3.01888e-05 0)
(0.000891934 4.45655e-05 0)
(0.000821413 5.93092e-05 0)
(0.000731671 7.37918e-05 0)
(0.00062355 8.73028e-05 0)
(0.00049883 9.9105e-05 0)
(0.000360224 0.0001085 0)
(0.000211277 0.0001149 0)
(5.61836e-05 0.000117889 0)
(-0.000100464 0.00011727 0)
(-0.000253974 0.000113086 0)
(-0.000399865 0.000105618 0)
(-0.00053415 9.53486e-05 0)
(-0.000653564 8.29139e-05 0)
(-0.000755719 6.90318e-05 0)
(-0.000839166 5.4435e-05 0)
(-0.000903376 3.98064e-05 0)
(-0.000948647 2.57329e-05 0)
(-0.00097596 1.26736e-05 0)
(-0.00098681 9.50469e-07 0)
(-0.000983034 -9.24684e-06 0)
(-0.000966649 -1.78412e-05 0)
(-0.000939719 -2.48504e-05 0)
(-0.000904247 -3.03625e-05 0)
(-0.000862102 -3.45098e-05 0)
(-0.000814975 -3.7448e-05 0)
(-0.000764357 -3.93437e-05 0)
(-0.000711531 -4.03619e-05 0)
(-0.000657579 -4.06587e-05 0)
(-0.000603396 -4.0373e-05 0)
(-0.00054971 -3.96249e-05 0)
(-0.000497102 -3.85171e-05 0)
(-0.000446028 -3.71361e-05 0)
(-0.000396837 -3.55522e-05 0)
(-0.000349795 -3.38199e-05 0)
(-0.000305097 -3.19791e-05 0)
(-0.000262894 -3.00566e-05 0)
(-0.000223302 -2.80676e-05 0)
(-0.000186421 -2.60154e-05 0)
(-0.000152346 -2.38909e-05 0)
(-0.000121188 -2.16717e-05 0)
(-9.30808e-05 -1.93209e-05 0)
(-6.81998e-05 -1.67877e-05 0)
(-4.67708e-05 -1.40113e-05 0)
(-2.907e-05 -1.09352e-05 0)
(-1.53991e-05 -7.542e-06 0)
(-6.00935e-06 -3.93579e-06 0)
(-9.29976e-07 -5.6189e-07 0)
(3.06452e-07 1.21659e-06 0)
(1.08124e-07 3.53554e-07 0)
(4.44714e-06 -5.37726e-06 0)
(1.47833e-05 -1.39532e-05 0)
(3.1478e-05 -2.3118e-05 0)
(5.44391e-05 -3.19771e-05 0)
(8.34333e-05 -4.02385e-05 0)
(0.000118146 -4.787e-05 0)
(0.000158252 -5.4944e-05 0)
(0.000203455 -6.15604e-05 0)
(0.000253497 -6.78105e-05 0)
(0.000308151 -7.37625e-05 0)
(0.000367212 -7.94559e-05 0)
(0.000430476 -8.49011e-05 0)
(0.000497726 -9.00778e-05 0)
(0.00056871 -9.49348e-05 0)
(0.00064312 -9.93877e-05 0)
(0.000720565 -0.000103317 0)
(0.000800549 -0.000106565 0)
(0.000882441 -0.000108932 0)
(0.000965444 -0.000110175 0)
(0.00104857 -0.000110006 0)
(0.00113059 -0.00010809 0)
(0.00121005 -0.000104056 0)
(0.00128518 -9.74995e-05 0)
(0.00135393 -8.79992e-05 0)
(0.00141397 -7.51431e-05 0)
(0.00146266 -5.85603e-05 0)
(0.00149716 -3.79655e-05 0)
(0.00151445 -1.3214e-05 0)
(0.0015115 1.5638e-05 0)
(0.0014854 4.82709e-05 0)
(0.00143361 8.40497e-05 0)
(0.00135417 0.000121991 0)
(0.00124598 0.000160766 0)
(0.00110902 0.000198744 0)
(0.000944588 0.000234095 0)
(0.000755348 0.000264919 0)
(0.000545362 0.000289426 0)
(0.000319928 0.000306106 0)
(8.53165e-05 0.000313896 0)
(-0.000151614 0.00031229 0)
(-0.000383856 0.0003014 0)
(-0.000604715 0.000281942 0)
(-0.000808232 0.000255154 0)
(-0.000989529 0.000222665 0)
(-0.00114503 0.00018632 0)
(-0.00127255 0.000148006 0)
(-0.00137129 0.000109492 0)
(-0.00144164 7.23006e-05 0)
(-0.00148503 3.76381e-05 0)
(-0.00150363 6.35911e-06 0)
(-0.00150014 -2.10172e-05 0)
(-0.00147751 -4.42658e-05 0)
(-0.00143878 -6.34021e-05 0)
(-0.00138689 -7.86256e-05 0)
(-0.00132463 -9.02535e-05 0)
(-0.00125452 -9.86724e-05 0)
(-0.00117879 -0.000104296 0)
(-0.00109938 -0.000107543 0)
(-0.00101794 -0.000108808 0)
(-0.000935848 -0.000108453 0)
(-0.000854243 -0.000106793 0)
(-0.00077404 -0.000104102 0)
(-0.000695973 -0.000100611 0)
(-0.000620615 -9.6512e-05 0)
(-0.00054841 -9.19556e-05 0)
(-0.0004797 -8.70566e-05 0)
(-0.000414747 -8.18948e-05 0)
(-0.000353761 -7.65195e-05 0)
(-0.000296917 -7.09502e-05 0)
(-0.000244377 -6.51771e-05 0)
(-0.000196307 -5.91604e-05 0)
(-0.000152893 -5.28305e-05 0)
(-0.000114356 -4.60926e-05 0)
(-8.09588e-05 -3.88394e-05 0)
(-5.30008e-05 -3.09854e-05 0)
(-3.07827e-05 -2.25386e-05 0)
(-1.4548e-05 -1.37499e-05 0)
(-4.43335e-06 -5.44872e-06 0)
(-1.20388e-07 2.22906e-07 0)
(5.3806e-07 -2.55246e-06 0)
(8.21026e-06 -1.48188e-05 0)
(2.38216e-05 -3.03761e-05 0)
(4.73969e-05 -4.66207e-05 0)
(7.86056e-05 -6.24118e-05 0)
(0.000117194 -7.73298e-05 0)
(0.00016287 -9.12992e-05 0)
(0.000215321 -0.000104397 0)
(0.000274244 -0.000116747 0)
(0.000339351 -0.000128468 0)
(0.000410372 -0.000139647 0)
(0.000487038 -0.000150329 0)
(0.000569069 -0.000160511 0)
(0.000656157 -0.000170142 0)
(0.000747943 -0.000179112 0)
(0.00084399 -0.000187258 0)
(0.00094376 -0.000194351 0)
(0.00104658 -0.000200093 0)
(0.0011516 -0.000204115 0)
(0.00125778 -0.000205968 0)
(0.00136383 -0.000205122 0)
(0.00146819 -0.000200973 0)
(0.00156899 -0.000192844 0)
(0.00166401 -0.000180008 0)
(0.00175066 -0.000161708 0)
(0.00182602 -0.000137208 0)
(0.0018868 -0.000105848 0)
(0.00192942 -6.71249e-05 0)
(0.0019501 -2.07899e-05 0)
(0.00194501 3.304e-05 0)
(0.00191048 9.37705e-05 0)
(0.00184324 0.000160231 0)
(0.00174076 0.000230615 0)
(0.00160156 0.000302478 0)
(0.00142555 0.000372823 0)
(0.0012143 0.000438275 0)
(0.000971176 0.000495333 0)
(0.000701353 0.000540692 0)
(0.000411626 0.000571566 0)
(0.000110063 0.000585986 0)
(-0.000194488 0.00058302 0)
(-0.000492985 0.000562872 0)
(-0.000776798 0.000526865 0)
(-0.00103827 0.000477287 0)
(-0.00127115 0.000417143 0)
(-0.00147091 0.000349841 0)
(-0.00163482 0.000278861 0)
(-0.00176192 0.00020746 0)
(-0.00185281 0.000138443 0)
(-0.00190935 7.40253e-05 0)
(-0.00193436 1.57794e-05 0)
(-0.00193125 -3.53397e-05 0)
(-0.00190377 -7.89112e-05 0)
(-0.00185573 -0.000114952 0)
(-0.00179085 -0.000143808 0)
(-0.0017126 -0.000166041 0)
(-0.00162414 -0.000182338 0)
(-0.00152827 -0.000193443 0)
(-0.00142744 -0.000200101 0)
(-0.00132374 -0.000203027 0)
(-0.00121892 -0.000202874 0)
(-0.00111445 -0.000200221 0)
(-0.00101152 -0.00019557 0)
(-0.000911094 -0.00018935 0)
(-0.00081395 -0.000181917 0)
(-0.000720693 -0.000173556 0)
(-0.000631802 -0.000164486 0)
(-0.000547656 -0.000154864 0)
(-0.000468559 -0.000144794 0)
(-0.000394766 -0.000134326 0)
(-0.000326504 -0.000123463 0)
(-0.000263988 -0.000112158 0)
(-0.000207441 -0.00010032 0)
(-0.000157102 -8.78244e-05 0)
(-0.000113233 -7.4532e-05 0)
(-7.61157e-05 -6.03425e-05 0)
(-4.6021e-05 -4.52913e-05 0)
(-2.3208e-05 -2.97352e-05 0)
(-8.04093e-06 -1.47201e-05 0)
(-5.32872e-07 -2.68703e-06 0)
(8.88809e-07 -7.34417e-06 0)
(1.15371e-05 -2.85563e-05 0)
(3.19321e-05 -5.27277e-05 0)
(6.17164e-05 -7.73582e-05 0)
(0.00010027 -0.000101285 0)
(0.000147284 -0.000124055 0)
(0.000202477 -0.000145574 0)
(0.000265553 -0.000165917 0)
(0.000336207 -0.000185213 0)
(0.00041413 -0.000203587 0)
(0.000499007 -0.000221125 0)
(0.000590505 -0.00023786 0)
(0.000688267 -0.00025376 0)
(0.00079189 -0.000268726 0)
(0.000900909 -0.000282578 0)
(0.00101477 -0.00029505 0)
(0.0011328 -0.000305785 0)
(0.00125417 -0.000314323 0)
(0.00137787 -0.000320092 0)
(0.00150266 -0.000322405 0)
(0.00162704 -0.000320457 0)
(0.0017492 -0.000313327 0)
(0.00186697 -0.000299988 0)
(0.00197783 -0.000279334 0)
(0.00207881 -0.000250221 0)
(0.00216657 -0.000211524 0)
(0.00223733 -0.000162233 0)
(0.00228696 -0.00010157 0)
(0.00231107 -2.91365e-05 0)
(0.00230515 5.4915e-05 0)
(0.00226481 0.0001497 0)
(0.00218608 0.000253443 0)
(0.00206576 0.000363372 0)
(0.0019019 0.000475708 0)
(0.00169415 0.00058578 0)
(0.00144417 0.000688293 0)
(0.00115583 0.00077774 0)
(0.000835242 0.000848899 0)
(0.000490549 0.000897358 0)
(0.000131502 0.00092 0)
(-0.000231169 0.00091534 0)
(-0.000586482 0.000883708 0)
(-0.000923981 0.000827198 0)
(-0.00123443 0.000749436 0)
(-0.00151039 0.000655177 0)
(-0.00174654 0.000549797 0)
(-0.00193981 0.00043877 0)
(-0.00208928 0.000327192 0)
(-0.0021959 0.000219427 0)
(-0.00226207 0.000118893 0)
(-0.00229129 2.79916e-05 0)
(-0.00228768 -5.18363e-05 0)
(-0.00225569 -0.00011998 0)
(-0.00219979 -0.000176489 0)
(-0.00212428 -0.000221905 0)
(-0.00203316 -0.000257095 0)
(-0.00193005 -0.000283112 0)
(-0.00181817 -0.000301081 0)
(-0.00170031 -0.000312134 0)
(-0.00157886 -0.00031735 0)
(-0.00145586 -0.000317724 0)
(-0.00133299 -0.000314137 0)
(-0.00121168 -0.00030736 0)
(-0.00109306 -0.000298048 0)
(-0.000978064 -0.000286751 0)
(-0.000867447 -0.000273911 0)
(-0.000761813 -0.000259872 0)
(-0.000661651 -0.000244889 0)
(-0.000567361 -0.000229134 0)
(-0.000479284 -0.000212704 0)
(-0.000397714 -0.000195628 0)
(-0.000322924 -0.000177871 0)
(-0.000255171 -0.000159341 0)
(-0.000194708 -0.000139902 0)
(-0.000141791 -0.000119402 0)
(-9.66758e-05 -9.7733e-05 0)
(-5.96155e-05 -7.49326e-05 0)
(-3.09141e-05 -5.13706e-05 0)
(-1.12062e-05 -2.80876e-05 0)
(-8.70083e-07 -7.38872e-06 0)
(1.1565e-06 -1.3693e-05 0)
(1.42259e-05 -4.59665e-05 0)
(3.8627e-05 -8.02195e-05 0)
(7.36787e-05 -0.000114377 0)
(0.0001185 -0.000147452 0)
(0.000172713 -0.000179056 0)
(0.000236035 -0.000209111 0)
(0.000308167 -0.000237688 0)
(0.000388788 -0.000264905 0)
(0.000477553 -0.000290868 0)
(0.000574087 -0.000315645 0)
(0.000677983 -0.000339238 0)
(0.000788793 -0.000361574 0)
(0.000906015 -0.000382494 0)
(0.00102908 -0.000401736 0)
(0.00115732 -0.000418926 0)
(0.00128995 -0.000433565 0)
(0.00142602 -0.000445018 0)
(0.0015644 -0.000452501 0)
(0.00170372 -0.000455071 0)
(0.00184233 -0.00045163 0)
(0.00197828 -0.000440917 0)
(0.00210923 -0.00042153 0)
(0.00223248 -0.000391952 0)
(0.00234486 -0.000350603 0)
(0.00244274 -0.000295921 0)
(0.00252206 -0.000226479 0)
(0.00257827 -0.000141148 0)
(0.0026065 -3.92985e-05 0)
(0.00260164 7.89525e-05 0)
(0.00255861 0.000212481 0)
(0.00247265 0.000358907 0)
(0.00233979 0.000514421 0)
(0.00215737 0.000673731 0)
(0.00192457 0.000830212 0)
(0.00164291 0.000976277 0)
(0.00131654 0.00110397 0)
(0.000952391 0.00120571 0)
(0.000559886 0.00127506 0)
(0.000150453 0.00130748 0)
(-0.000263251 0.0013008 0)
(-0.000668259 0.00125549 0)
(-0.00105226 0.00117461 0)
(-0.00140446 0.00106347 0)
(-0.00171632 0.000928987 0)
(-0.00198189 0.000778947 0)
(-0.00219797 0.00062124 0)
(-0.00236394 0.000463144 0)
(-0.0024813 0.000310825 0)
(-0.00255321 0.000169038 0)
(-0.00258394 4.1064e-05 0)
(-0.00257835 -7.11953e-05 0)
(-0.00254154 -0.000166996 0)
(-0.00247854 -0.000246503 0)
(-0.00239411 -0.000310531 0)
(-0.00229261 -0.000360325 0)
(-0.00217796 -0.000397361 0)
(-0.00205361 -0.000423202 0)
(-0.00192255 -0.0004394 0)
(-0.00178736 -0.000447432 0)
(-0.00165023 -0.000448654 0)
(-0.001513 -0.000444275 0)
(-0.00137722 -0.000435347 0)
(-0.00124414 -0.000422772 0)
(-0.00111484 -0.000407303 0)
(-0.00099018 -0.000389552 0)
(-0.000870871 -0.000370002 0)
(-0.000757511 -0.000349011 0)
(-0.000650601 -0.000326831 0)
(-0.000550573 -0.00030362 0)
(-0.000457806 -0.000279446 0)
(-0.00037264 -0.000254302 0)
(-0.000295384 -0.000228115 0)
(-0.000226322 -0.000200762 0)
(-0.000165716 -0.000172097 0)
(-0.000113814 -0.000142005 0)
(-7.08591e-05 -0.000110493 0)
(-3.721e-05 -7.78488e-05 0)
(-1.37383e-05 -4.49152e-05 0)
(-1.12635e-06 -1.35546e-05 0)
(1.34475e-06 -2.12313e-05 0)
(1.62229e-05 -6.62896e-05 0)
(4.3733e-05 -0.000111895 0)
(8.29877e-05 -0.000156603 0)
(0.000132927 -0.000199741 0)
(0.000193123 -0.000241057 0)
(0.000263275 -0.000280513 0)
(0.000343059 -0.000318168 0)
(0.00043211 -0.000354109 0)
(0.000530013 -0.000388406 0)
(0.000636306 -0.000421086 0)
(0.000750482 -0.000452111 0)
(0.000871985 -0.000481358 0)
(0.00100021 -0.000508604 0)
(0.00113446 -0.000533502 0)
(0.00127399 -0.000555571 0)
(0.00141791 -0.000574172 0)
(0.00156517 -0.000588496 0)
(0.00171457 -0.000597546 0)
(0.00186466 -0.000600129 0)
(0.00201374 -0.000594851 0)
(0.0021598 -0.000580112 0)
(0.00230047 -0.000554125 0)
(0.00243299 -0.000514945 0)
(0.00255413 -0.000460528 0)
(0.0026602 -0.000388826 0)
(0.00274694 -0.000297924 0)
(0.00280962 -0.000186242 0)
(0.00284297 -5.28002e-05 0)
(0.00284138 0.000102457 0)
(0.00279904 0.000278292 0)
(0.00271034 0.000471805 0)
(0.00257033 0.000678148 0)
(0.00237538 0.000890396 0)
(0.00212387 0.0010997 0)
(0.00181687 0.00129576 0)
(0.00145864 0.00146768 0)
(0.00105679 0.00160497 0)
(0.000622013 0.0016987 0)
(0.000167522 0.00174254 0)
(-0.000291942 0.00173346 0)
(-0.000741249 0.00167214 0)
(-0.00116609 0.00156285 0)
(-0.00155406 0.00141296 0)
(-0.00189553 0.00123206 0)
(-0.00218411 0.0010309 0)
(-0.00241673 0.000820241 0)
(-0.00259333 0.000609918 0)
(-0.00271632 0.000408106 0)
(-0.00278984 0.000220979 0)
(-0.00281908 5.26572e-05 0)
(-0.00280972 -9.4592e-05 0)
(-0.00276749 -0.000220028 0)
(-0.00269788 -0.000324059 0)
(-0.00260595 -0.000407894 0)
(-0.00249625 -0.00047324 0)
(-0.00237285 -0.000522064 0)
(-0.00223925 -0.000556403 0)
(-0.00209852 -0.000578256 0)
(-0.00195327 -0.000589509 0)
(-0.00180574 -0.000591886 0)
(-0.00165784 -0.000586919 0)
(-0.00151115 -0.000575946 0)
(-0.00136704 -0.00056011 0)
(-0.00122665 -0.000540372 0)
(-0.00109092 -0.00051751 0)
(-0.000960673 -0.000492143 0)
(-0.000836607 -0.000464738 0)
(-0.000719327 -0.000435629 0)
(-0.00060937 -0.000405036 0)
(-0.000507218 -0.000373078 0)
(-0.000413308 -0.000339791 0)
(-0.00032803 -0.000305139 0)
(-0.000251726 -0.000269034 0)
(-0.000184696 -0.000231356 0)
(-0.000127199 -0.000191992 0)
(-7.94841e-05 -0.000150898 0)
(-4.19386e-05 -0.00010821 0)
(-1.55882e-05 -6.44401e-05 0)
(-1.30384e-06 -2.0817e-05 0)
(1.45967e-06 -2.95964e-05 0)
(1.75343e-05 -8.87307e-05 0)
(4.72318e-05 -0.000146737 0)
(8.96061e-05 -0.000202916 0)
(0.000143534 -0.000256984 0)
(0.000208576 -0.000308853 0)
(0.000284407 -0.000358518 0)
(0.000370644 -0.000406008 0)
(0.000466833 -0.000451352 0)
(0.000572445 -0.000494564 0)
(0.00068689 -0.000535619 0)
(0.000809526 -0.000574428 0)
(0.000939667 -0.000610821 0)
(0.00107658 -0.000644515 0)
(0.00121947 -0.000675089 0)
(0.00136747 -0.000701961 0)
(0.00151961 -0.000724368 0)
(0.00167481 -0.00074134 0)
(0.00183179 -0.000751686 0)
(0.00198911 -0.000753981 0)
(0.00214508 -0.000746551 0)
(0.00229772 -0.000727475 0)
(0.00244474 -0.000694596 0)
(0.00258346 -0.000645544 0)
(0.00271076 -0.000577799 0)
(0.00282302 -0.000488784 0)
(0.00291604 -0.000376023 0)
(0.00298501 -0.000237369 0)
(0.00302448 -7.13235e-05 0)
(0.00302838 0.000122546 0)
(0.00299023 0.000343107 0)
(0.00290342 0.000587135 0)
(0.00276181 0.000848843 0)
(0.00256043 0.00111962 0)
(0.00229647 0.00138812 0)
(0.0019702 0.00164088 0)
(0.0015857 0.00186341 0)
(0.00115114 0.00204167 0)
(0.000678552 0.00216363 0)
(0.000183108 0.00222071 0)
(-0.000318099 0.00220882 0)
(-0.000807488 0.00212888 0)
(-0.0012685 0.0019867 0)
(-0.001687 0.00179223 0)
(-0.00205228 0.00155837 0)
(-0.00235767 0.00129948 0)
(-0.00260054 0.00102978 0)
(-0.00278182 0.000762029 0)
(-0.00290516 0.000506603 0)
(-0.00297601 0.000271086 0)
(-0.0030007 6.03091e-05 0)
(-0.00298578 -0.000123304 0)
(-0.00293756 -0.000279226 0)
(-0.00286186 -0.000408306 0)
(-0.00276389 -0.000512291 0)
(-0.00264822 -0.000593462 0)
(-0.00251883 -0.00065433 0)
(-0.00237916 -0.000697442 0)
(-0.00223217 -0.000725247 0)
(-0.0020804 -0.000740032 0)
(-0.00192602 -0.00074387 0)
(-0.00177092 -0.000738603 0)
(-0.00161669 -0.000725832 0)
(-0.00146471 -0.000706929 0)
(-0.00131616 -0.00068304 0)
(-0.00117208 -0.000655105 0)
(-0.00103335 -0.000623863 0)
(-0.000900779 -0.00058988 0)
(-0.000775083 -0.000553568 0)
(-0.000656922 -0.000515206 0)
(-0.00054691 -0.000474964 0)
(-0.000445613 -0.000432928 0)
(-0.000353544 -0.000389116 0)
(-0.000271153 -0.000343497 0)
(-0.000198816 -0.000296005 0)
(-0.000136836 -0.00024655 0)
(-8.54666e-05 -0.000195045 0)
(-4.50887e-05 -0.000141453 0)
(-1.67636e-05 -8.58824e-05 0)
(-1.4054e-06 -2.88231e-05 0)
(1.50563e-06 -3.84407e-05 0)
(1.8181e-05 -0.000112508 0)
(4.91664e-05 -0.000183741 0)
(9.3627e-05 -0.000252236 0)
(0.000150514 -0.000318102 0)
(0.00021942 -0.000381383 0)
(0.000299983 -0.000442066 0)
(0.000391721 -0.000500104 0)
(0.00049403 -0.000555437 0)
(0.000606208 -0.000608001 0)
(0.000727484 -0.000657712 0)
(0.00085704 -0.000704436 0)
(0.000994028 -0.000747965 0)
(0.00113757 -0.000787971 0)
(0.00128676 -0.000823977 0)
(0.00144063 -0.000855325 0)
(0.00159814 -0.000881148 0)
(0.00175817 -0.000900343 0)
(0.00191943 -0.000911557 0)
(0.00208052 -0.000913162 0)
(0.00223981 -0.000903246 0)
(0.00239547 -0.000879603 0)
(0.00254535 -0.00083974 0)
(0.00268701 -0.000780892 0)
(0.00281757 -0.000700069 0)
(0.0029337 -0.00059415 0)
(0.00303144 -0.000460029 0)
(0.00310614 -0.00029486 0)
(0.00315234 -9.64238e-05 0)
(0.00316371 0.000136371 0)
(0.00313312 0.000402831 0)
(0.00305291 0.000699735 0)
(0.00291544 0.0010206 0)
(0.00271402 0.00135516 0)
(0.00244413 0.00168935 0)
(0.00210475 0.00200597 0)
(0.00169945 0.0022862 0)
(0.00123683 0.00251157 0)
(0.000730353 0.00266615 0)
(0.000197398 0.00273856 0)
(-0.000342227 0.00272337 0)
(-0.000868094 0.00262182 0)
(-0.00136108 0.00244163 0)
(-0.00180509 0.00219604 0)
(-0.00218839 0.00190208 0)
(-0.00250423 0.00157854 0)
(-0.0027508 0.00124376 0)
(-0.00293051 0.000913879 0)
(-0.00304878 0.000601597 0)
(-0.00311271 0.00031579 0)
(-0.00312996 6.17165e-05 0)
(-0.00310798 -0.000158368 0)
(-0.00305358 -0.000344467 0)
(-0.00297273 -0.000498115 0)
(-0.00287057 -0.000621783 0)
(-0.00275147 -0.000718424 0)
(-0.00261913 -0.000791154 0)
(-0.00247674 -0.000843029 0)
(-0.002327 -0.000876935 0)
(-0.00217225 -0.000895524 0)
(-0.00201454 -0.000901185 0)
(-0.00185563 -0.000896027 0)
(-0.00169707 -0.000881883 0)
(-0.00154022 -0.000860317 0)
(-0.00138628 -0.000832642 0)
(-0.00123633 -0.000799924 0)
(-0.00109135 -0.000763011 0)
(-0.00095222 -0.000722545 0)
(-0.000819796 -0.000678998 0)
(-0.00069488 -0.000632695 0)
(-0.000578246 -0.00058385 0)
(-0.000470635 -0.000532597 0)
(-0.000372736 -0.000479017 0)
(-0.000285163 -0.000423159 0)
(-0.000208428 -0.000365044 0)
(-0.000142918 -0.000304654 0)
(-8.89027e-05 -0.000241907 0)
(-4.67053e-05 -0.00017662 0)
(-1.72867e-05 -0.000108502 0)
(-1.43325e-06 -3.72534e-05 0)
(1.48192e-06 -4.74286e-05 0)
(1.81695e-05 -0.000136869 0)
(4.95835e-05 -0.000221963 0)
(9.51923e-05 -0.000303591 0)
(0.00015417 -0.000382177 0)
(0.000226183 -0.000457802 0)
(0.000310806 -0.000530351 0)
(0.000407387 -0.000599632 0)
(0.0005151 -0.000665456 0)
(0.000632993 -0.000727664 0)
(0.000760053 -0.000786116 0)
(0.000895241 -0.000840651 0)
(0.00103752 -0.000891043 0)
(0.00118584 -0.000936948 0)
(0.00133918 -0.000977863 0)
(0.00149646 -0.00101308 0)
(0.0016566 -0.00104166 0)
(0.00181843 -0.00106242 0)
(0.00198071 -0.00107386 0)
(0.00214207 -0.00107422 0)
(0.00230104 -0.00106139 0)
(0.00245594 -0.00103294 0)
(0.00260491 -0.00098611 0)
(0.00274583 -0.000917784 0)
(0.00287624 -0.000824552 0)
(0.00299325 -0.000702759 0)
(0.00309339 -0.000548627 0)
(0.00317245 -0.000358494 0)
(0.00322524 -0.000129185 0)
(0.00324542 0.000141399 0)
(0.00322536 0.000453468 0)
(0.00315634 0.000804314 0)
(0.00302898 0.0011872 0)
(0.00283436 0.00159041 0)
(0.00256561 0.00199693 0)
(0.00221982 0.0023852 0)
(0.00179957 0.0027311 0)
(0.00131377 0.00301062 0)
(0.000777382 0.00320294 0)
(0.00021033 0.00329312 0)
(-0.000364419 0.00327405 0)
(-0.00092313 0.00314736 0)
(-0.00144371 0.00292325 0)
(-0.00190792 0.00261908 0)
(-0.00230296 0.00225708 0)
(-0.00262229 0.00186152 0)
(-0.00286548 0.00145573 0)
(-0.00303704 0.00105966 0)
(-0.00314471 0.00068839 0)
(-0.00319768 0.000351774 0)
(-0.0032051 5.50343e-05 0)
(-0.00317527 -0.000200238 0)
(-0.00311528 -0.000414985 0)
(-0.003031 -0.000591733 0)
(-0.00292723 -0.000733861 0)
(-0.00280786 -0.000845094 0)
(-0.00267612 -0.000929164 0)
(-0.00253473 -0.000989619 0)
(-0.00238601 -0.00102973 0)
(-0.00223201 -0.00105244 0)
(-0.00207454 -0.00106041 0)
(-0.00191522 -0.00105596 0)
(-0.0017555 -0.00104108 0)
(-0.00159669 -0.00101752 0)
(-0.00143999 -0.00098669 0)
(-0.00128652 -0.000949769 0)
(-0.00113731 -0.000907673 0)
(-0.000993377 -0.000861098 0)
(-0.000855685 -0.000810546 0)
(-0.000725208 -0.000756366 0)
(-0.000602916 -0.000698793 0)
(-0.000489769 -0.000637996 0)
(-0.000386696 -0.000574117 0)
(-0.00029455 -0.000507304 0)
(-0.000214054 -0.000437711 0)
(-0.000145743 -0.000365465 0)
(-8.99277e-05 -0.000290581 0)
(-4.68323e-05 -0.000212835 0)
(-1.7167e-05 -0.00013161 0)
(-1.38969e-06 -4.58127e-05 0)
(1.37967e-06 -5.62195e-05 0)
(1.7471e-05 -0.00016108 0)
(4.84957e-05 -0.000260533 0)
(9.44477e-05 -0.000356155 0)
(0.000154876 -0.00044851 0)
(0.000229539 -0.000537532 0)
(0.000317882 -0.000622857 0)
(0.000418991 -0.000704058 0)
(0.000531711 -0.000780772 0)
(0.000654759 -0.000852743 0)
(0.00078681 -0.000919794 0)
(0.000926557 -0.000981769 0)
(0.00107274 -0.00103846 0)
(0.00122415 -0.00108955 0)
(0.0013796 -0.00113454 0)
(0.00153794 -0.00117271 0)
(0.00169803 -0.0012031 0)
(0.00185867 -0.00122446 0)
(0.00201866 -0.00123524 0)
(0.00217673 -0.00123356 0)
(0.00233152 -0.00121721 0)
(0.00248162 -0.00118361 0)
(0.00262548 -0.00112979 0)
(0.00276139 -0.0010524 0)
(0.00288744 -0.000947701 0)
(0.00300138 -0.000811551 0)
(0.00310049 -0.00063952 0)
(0.0031813 -0.000427043 0)
(0.00323927 -0.000169773 0)
(0.00326844 0.000135806 0)
(0.00326105 0.000491399 0)
(0.0032074 0.00089556 0)
(0.00309624 0.00134202 0)
(0.00291582 0.00181807 0)
(0.00265614 0.00230361 0)
(0.00231158 0.00277199 0)
(0.0018832 0.00319251 0)
(0.00137995 0.00353427 0)
(0.000818456 0.00377023 0)
(0.000221527 0.00388101 0)
(-0.000384243 0.00385734 0)
(-0.000971301 0.0037014 0)
(-0.00151418 0.00342651 0)
(-0.00199225 0.00305525 0)
(-0.00239172 0.0026164 0)
(-0.00270665 0.00214107 0)
(-0.00293862 0.0016586 0)
(-0.00309504 0.00119326 0)
(-0.00318672 0.00076237 0)
(-0.00322531 0.000376207 0)
(-0.0032215 3.91949e-05 0)
(-0.00318421 -0.00024841 0)
(-0.00312048 -0.000489008 0)
(-0.00303571 -0.00068644 0)
(-0.00293397 -0.000845161 0)
(-0.0028184 -0.000969711 0)
(-0.0026915 -0.00106442 0)
(-0.00255536 -0.00113323 0)
(-0.00241181 -0.00117972 0)
(-0.00226253 -0.00120704 0)
(-0.00210904 -0.00121801 0)
(-0.00195277 -0.00121509 0)
(-0.00179507 -0.00120042 0)
(-0.00163717 -0.00117581 0)
(-0.00148028 -0.00114277 0)
(-0.00132552 -0.00110254 0)
(-0.00117401 -0.00105606 0)
(-0.00102686 -0.00100406 0)
(-0.000885176 -0.000947028 0)
(-0.000750116 -0.0008853 0)
(-0.000622873 -0.000819098 0)
(-0.000504676 -0.000748595 0)
(-0.000396761 -0.00067398 0)
(-0.000300305 -0.000595506 0)
(-0.000216346 -0.000513505 0)
(-0.000145662 -0.000428347 0)
(-8.86682e-05 -0.000340299 0)
(-4.5472e-05 -0.000249281 0)
(-1.63772e-05 -0.00015452 0)
(-1.27586e-06 -5.41911e-05 0)
(1.17782e-06 -6.44395e-05 0)
(1.60015e-05 -0.000184402 0)
(4.58597e-05 -0.000298666 0)
(9.15313e-05 -0.000409297 0)
(0.000153081 -0.00051668 0)
(0.000230321 -0.000620313 0)
(0.000322448 -0.000719385 0)
(0.000428143 -0.000813129 0)
(0.000545799 -0.000900979 0)
(0.000673701 -0.000982602 0)
(0.000810153 -0.00105783 0)
(0.000953544 -0.00112656 0)
(0.00110237 -0.00118865 0)
(0.00125525 -0.00124387 0)
(0.00141086 -0.00129175 0)
(0.00156795 -0.00133163 0)
(0.00172532 -0.00136254 0)
(0.00188177 -0.00138323 0)
(0.00203612 -0.00139213 0)
(0.00218718 -0.00138732 0)
(0.00233375 -0.00136655 0)
(0.00247466 -0.00132719 0)
(0.0026087 -0.00126619 0)
(0.00273465 -0.00118008 0)
(0.00285121 -0.0010649 0)
(0.00295693 -0.00091619 0)
(0.00305008 -0.000728952 0)
(0.00312828 -0.000497728 0)
(0.00318816 -0.000216835 0)
(0.00322469 0.000119058 0)
(0.00323052 0.000513872 0)
(0.00319545 0.000968428 0)
(0.00310631 0.00147808 0)
(0.002948 0.00202995 0)
(0.00270635 0.00260094 0)
(0.00237202 0.00315833 0)
(0.00194388 0.00366337 0)
(0.00143066 0.00407643 0)
(0.000850744 0.00436271 0)
(0.000230139 0.00449725 0)
(-0.0004005 0.00446814 0)
(-0.00100938 0.0042782 0)
(-0.00156729 0.0039447 0)
(-0.00205106 0.0034968 0)
(-0.00244603 0.00297152 0)
(-0.00274734 0.00240849 0)
(-0.00295939 0.00184434 0)
(-0.00309352 0.00130819 0)
(-0.00316438 0.000819224 0)
(-0.00318643 0.000387101 0)
(-0.0031717 1.43533e-05 0)
(-0.00312924 -0.000300997 0)
(-0.00306548 -0.000563373 0)
(-0.00298479 -0.000778237 0)
(-0.00289011 -0.000951208 0)
(-0.0027835 -0.00108761 0)
(-0.00266652 -0.00119225 0)
(-0.00254051 -0.00126934 0)
(-0.00240672 -0.0013226 0)
(-0.0022664 -0.00135527 0)
(-0.0021208 -0.00137023 0)
(-0.00197116 -0.00137 0)
(-0.0018187 -0.00135676 0)
(-0.0016646 -0.00133238 0)
(-0.00151004 -0.00129841 0)
(-0.00135619 -0.0012561 0)
(-0.00120422 -0.00120639 0)
(-0.00105535 -0.00114998 0)
(-0.000910831 -0.00108731 0)
(-0.000772004 -0.00101867 0)
(-0.000640307 -0.000944216 0)
(-0.000517276 -0.000864064 0)
(-0.000404516 -0.000778411 0)
(-0.000303631 -0.0006876 0)
(-0.000216096 -0.000592181 0)
(-0.000143079 -0.000492877 0)
(-8.52242e-05 -0.000390415 0)
(-4.25555e-05 -0.00028515 0)
(-1.4824e-05 -0.000176472 0)
(-1.08253e-06 -6.19967e-05 0)
(8.35321e-07 -7.16365e-05 0)
(1.35971e-05 -0.00020606 0)
(4.15696e-05 -0.000335692 0)
(8.6608e-05 -0.000462656 0)
(0.000149379 -0.000586638 0)
(0.000229617 -0.000706286 0)
(0.00032606 -0.0008201 0)
(0.000436787 -0.000926879 0)
(0.000559594 -0.00102587 0)
(0.000692248 -0.00111671 0)
(0.000832633 -0.00119932 0)
(0.000978822 -0.00127374 0)
(0.00112908 -0.00133998 0)
(0.00128183 -0.00139789 0)
(0.00143564 -0.00144714 0)
(0.00158918 -0.00148711 0)
(0.00174117 -0.0015169 0)
(0.0018904 -0.00153527 0)
(0.00203569 -0.00154069 0)
(0.00217593 -0.00153128 0)
(0.00231005 -0.00150482 0)
(0.00243708 -0.00145871 0)
(0.00255614 -0.00138997 0)
(0.00266647 -0.00129514 0)
(0.00276741 -0.00117026 0)
(0.00285841 -0.00101074 0)
(0.00293886 -0.000811246 0)
(0.00300789 -0.000565582 0)
(0.00306378 -0.000266723 0)
(0.00310322 9.27857e-05 0)
(0.00312022 0.000519827 0)
(0.00310491 0.0010188 0)
(0.00304259 0.00158837 0)
(0.00291432 0.00221702 0)
(0.00270057 0.00287891 0)
(0.00238714 0.00353419 0)
(0.00196992 0.00413411 0)
(0.00145708 0.00462816 0)
(0.000868841 0.00497187 0)
(0.000234603 0.00513356 0)
(-0.000410807 0.00509802 0)
(-0.00103115 0.00486889 0)
(-0.00159338 0.00446827 0)
(-0.0020718 0.0039335 0)
(-0.00245109 0.00331182 0)
(-0.00272803 0.00265353 0)
(-0.00291085 0.00200413 0)
(-0.00301591 0.00139807 0)
(-0.00306262 0.000855585 0)
(-0.00306833 0.000384087 0)
(-0.00304577 -1.73859e-05 0)
(-0.00300322 -0.000354105 0)
(-0.00294561 -0.000633076 0)
(-0.00287565 -0.00086154 0)
(-0.00279469 -0.00104624 0)
(-0.00270344 -0.00119311 0)
(-0.00260235 -0.00130723 0)
(-0.00249194 -0.00139286 0)
(-0.00237287 -0.00145365 0)
(-0.00224601 -0.00149278 0)
(-0.00211237 -0.00151308 0)
(-0.001973 -0.00151704 0)
(-0.00182905 -0.00150683 0)
(-0.00168164 -0.00148432 0)
(-0.00153196 -0.00145103 0)
(-0.00138121 -0.0014082 0)
(-0.00123062 -0.00135675 0)
(-0.00108151 -0.0012973 0)
(-0.000935267 -0.00123022 0)
(-0.000793413 -0.00115566 0)