/*--------------------------------*- C++ -*----------------------------------*\
| =========                 |                                                 |
| \\      /  F ield         | OpenFOAM: The Open Source CFD Toolbox           |
|  \\    /   O peration     | Version:  2412                                  |
|   \\  /    A nd           | Website:  www.openfoam.com                      |
|    \\/     M anipulation  |                                                 |
\*---------------------------------------------------------------------------*/
FoamFile
{
    version     2.0;
    format      ascii;
    arch        "LSB;label=32;scalar=64";
    class       volScalarField;
    location    "6.5";
    object      p_rgh;
}
// * * * * * * * * * * * * * * * * * * * * * * * * * * * * * * * * * * * * * //

dimensions      [1 -1 -2 0 0 0 0];

internalField   nonuniform List<scalar> 
6400
(
133353
133358
133365
133376
133388
133402
133418
133434
133451
133468
133483
133498
133510
133518
133522
133522
133514
133501
133479
133449
133411
133363
133306
133240
133166
133084
132995
132901
132803
132702
132602
132503
132409
132321
132241
132171
132113
132069
132039
132024
132025
132041
132073
132119
132178
132248
132328
132415
132509
132605
132704
132801
132896
132988
133074
133153
133225
133288
133344
133391
133430
133462
133486
133503
133515
133522
133525
133525
133522
133517
133511
133505
133498
133491
133484
133478
133472
133466
133462
133459
133347
133353
133361
133371
133384
133399
133415
133432
133450
133467
133484
133499
133512
133522
133527
133528
133522
133509
133488
133459
133420
133373
133315
133249
133174
133091
133001
132905
132805
132703
132601
132500
132404
132313
132231
132160
132101
132055
132025
132010
132011
132028
132060
132107
132167
132239
132321
132411
132506
132605
132705
132804
132901
132994
133081
133161
133233
133297
133353
133400
133439
133469
133493
133510
133520
133526
133528
133527
133523
133518
133511
133504
133496
133489
133482
133475
133469
133463
133459
133455
133339
133344
133353
133364
133378
133393
133411
133429
133448
133467
133486
133503
133518
133530
133538
133540
133536
133524
133505
133476
133439
133391
133334
133267
133190
133105
133013
132914
132810
132704
132598
132493
132392
132298
132212
132137
132075
132027
131995
131980
131981
131999
132033
132082
132146
132221
132307
132401
132500
132603
132707
132810
132910
133006
133095
133177
133250
133315
133370
133417
133455
133484
133506
133521
133530
133534
133534
133531
133526
133519
133511
133503
133494
133486
133478
133471
133464
133459
133454
133450
133327
133333
133342
133354
133369
133386
133405
133425
133446
133468
133489
133510
133528
133542
133553
133558
133557
133548
133531
133504
133467
133420
133362
133293
133215
133127
133030
132927
132818
132706
132593
132482
132374
132273
132182
132102
132035
131984
131949
131933
131934
131954
131990
132044
132112
132193
132285
132385
132491
132600
132710
132819
132924
133024
133116
133200
133276
133341
133396
133442
133479
133506
133526
133538
133545
133546
133544
133538
133530
133521
133511
133501
133491
133482
133474
133466
133459
133452
133447
133443
133311
133317
133328
133341
133357
133376
133397
133420
133444
133469
133494
133518
133540
133559
133574
133583
133586
133580
133566
133541
133506
133459
133400
133330
133249
133156
133055
132945
132829
132708
132587
132466
132350
132240
132140
132052
131979
131923
131885
131867
131869
131891
131931
131990
132065
132154
132254
132363
132478
132596
132715
132831
132943
133048
133146
133233
133310
133377
133432
133477
133511
133536
133552
133561
133564
133562
133555
133546
133535
133523
133511
133499
133488
133477
133468
133459
133451
133445
133439
133435
133291
133298
133310
133324
133342
133363
133387
133413
133441
133470
133499
133528
133556
133580
133600
133615
133622
133621
133611
133589
133556
133510
133450
133378
133293
133195
133087
132969
132843
132712
132579
132446
132318
132196
132085
131988
131907
131844
131802
131782
131784
131808
131854
131920
132003
132102
132214
132335
132462
132592
132722
132848
132969
133081
133184
133276
133356
133423
133478
133521
133553
133574
133586
133591
133588
133581
133570
133556
133542
133526
133511
133496
133483
133471
133460
133451
133442
133435
133429
133424
133266
133274
133287
133304
133324
133347
133374
133403
133436
133470
133505
133540
133574
133605
133632
133653
133667
133672
133666
133649
133618
133573
133514
133439
133349
133245
133128
133000
132862
132718
132570
132423
132279
132142
132017
131907
131816
131745
131697
131674
131677
131705
131757
131832
131927
132039
132165
132301
132443
132588
132731
132870
133002
133124
133234
133331
133414
133482
133536
133577
133605
133621
133628
133626
133618
133604
133587
133568
133548
133528
133509
133492
133476
133462
133450
133440
133431
133424
133417
133411
133235
133245
133259
133278
133300
133326
133357
133390
133428
133468
133510
133553
133594
133634
133669
133699
133721
133733
133734
133722
133695
133652
133592
133514
133420
133308
133181
133040
132888
132727
132562
132395
132232
132077
131934
131808
131703
131622
131567
131541
131545
131577
131638
131724
131833
131962
132106
132260
132422
132585
132745
132900
133045
133178
133297
133400
133486
133555
133608
133646
133669
133679
133678
133669
133652
133631
133607
133581
133555
133529
133506
133485
133466
133451
133438
133427
133418
133410
133402
133396
133198
133210
133226
133246
133271
133300
133334
133374
133417
133464
133515
133566
133617
133667
133712
133752
133784
133806
133815
133809
133787
133747
133687
133607
133507
133387
133248
133092
132922
132741
132554
132364
132178
131999
131834
131689
131566
131472
131409
131379
131383
131421
131492
131593
131720
131869
132035
132213
132398
132583
132765
132939
133100
133246
133375
133485
133575
133645
133696
133728
133745
133747
133737
133718
133692
133661
133627
133593
133560
133528
133499
133475
133453
133436
133422
133411
133402
133394
133385
133378
133154
133167
133186
133208
133235
133267
133306
133351
133402
133458
133517
133579
133642
133703
133761
133814
133858
133891
133910
133913
133897
133861
133802
133720
133614
133484
133331
133158
132967
132762
132548
132330
132114
131907
131715
131545
131402
131291
131217
131181
131187
131232
131316
131435
131584
131759
131953
132160
132373
132586
132793
132989
133170
133332
133472
133590
133683
133753
133800
133827
133835
133827
133805
133774
133736
133693
133648
133604
133562
133523
133489
133460
133436
133416
133402
133391
133382
133374
133365
133357
133101
133117
133136
133160
133189
133225
133270
133322
133381
133447
133517
133591
133668
133743
133816
133883
133942
133989
134021
134035
134028
133997
133941
133856
133744
133603
133434
133241
133025
132791
132545
132293
132042
131800
131575
131374
131205
131074
130986
130944
130950
131005
131105
131246
131423
131629
131857
132099
132347
132594
132832
133055
133259
133439
133592
133718
133815
133883
133926
133944
133941
133919
133884
133837
133784
133727
133669
133613
133561
133514
133474
133439
133411
133390
133374
133364
133357
133350
133342
133333
133039
133056
133076
133100
133130
133171
133223
133284
133353
133430
133513
133602
133693
133786
133876
133961
134038
134102
134150
134178
134182
134159
134106
134021
133902
133749
133563
133346
133101
132833
132549
132255
131961
131676
131410
131171
130969
130813
130708
130658
130666
130732
130852
131021
131233
131478
131748
132032
132323
132609
132884
133140
133370
133571
133740
133874
133974
134040
134076
134082
134065
134027
133973
133908
133836
133762
133688
133619
133555
133499
133451
133411
133379
133355
133338
133328
133324
133321
133315
133305
132968
132985
133003
133026
133059
133105
133165
133236
133317
133406
133504
133608
133718
133829
133941
134047
134146
134232
134299
134345
134364
134351
134304
134219
134094
133929
133723
133478
133199
132891
132561
132217
131871
131533
131216
130930
130689
130501
130374
130315
130325
130405
130550
130754
131008
131301
131622
131960
132302
132637
132956
133249
133511
133736
133921
134064
134166
134228
134253
134245
134209
134149
134072
133984
133890
133795
133703
133618
133541
133475
133419
133373
133337
133310
133293
133284
133283
133285
133282
133274
132887
132901
132918
132940
132977
133029
133098
133179
133271
133375
133488
133610
133740
133874
134010
134142
134267
134378
134471
134539
134576
134577
134539
134456
134326
134148
133920
133645
133326
132970
132585
132182
131772
131370
130990
130646
130355
130127
129974
129902
129915
130013
130190
130438
130744
131097
131481
131883
132288
132681
133052
133391
133689
133941
134144
134296
134398
134453
134463
134436
134375
134289
134183
134066
133945
133825
133711
133608
133517
133440
133377
133327
133287
133259
133241
133234
133237
133244
133247
133243
132798
132808
132824
132848
132888
132947
133022
133113
133217
133333
133463
133605
133757
133917
134082
134245
134401
134544
134667
134762
134823
134843
134817
134739
134607
134415
134164
133854
133489
133077
132628
132152
131665
131184
130726
130311
129956
129679
129492
129404
129420
129540
129759
130061
130433
130860
131322
131803
132284
132747
133180
133571
133911
134194
134416
134577
134677
134721
134712
134659
134567
134447
134306
134154
133999
133848
133709
133585
133479
133392
133323
133270
133229
133202
133187
133184
133191
133203
133211
133212
132700
132708
132724
132751
132795
132857
132938
133037
133151
133281
133428
133591
133768
133958
134155
134354
134549
134730
134890
135020
135111
135155
135146
135078
134945
134742
134467
134118
133699
133222
132696
132134
131553
130974
130419
129914
129481
129140
128909
128801
128821
128969
129245
129614
130067
130586
131146
131723
132296
132844
133350
133802
134190
134507
134750
134918
135013
135040
135006
134919
134789
134625
134440
134244
134048
133862
133693
133546
133424
133328
133255
133201
133164
133142
133134
133138
133151
133167
133180
133186
132592
132598
132614
132645
132692
132758
132844
132949
133074
133218
133381
133566
133771
133994
134229
134471
134710
134938
135142
135318
135445
135519
135533
135478
135350
135141
134842
134452
133966
133414
132800
132135
131438
130739
130064
129445
128912
128489
128202
128067
128092
128275
128627
129081
129637
130270
130950
131647
132334
132982
133574
134097
134539
134893
135157
135330
135416
135420
135352
135223
135044
134826
134585
134335
134090
133860
133656
133485
133347
133245
133170
133120
133091
133078
133080
133094
133114
133137
133154
133164
132474
132473
132489
132521
132572
132642
132734
132848
132983
133141
133320
133526
133761
134022
134301
134591
134884
135168
135430
135654
135829
135942
135985
135951
135834
135626
135307
134864
134310
133667
132953
132167
131326
130480
129655
128902
128257
127745
127394
127229
127261
127492
127904
128459
129136
129909
130739
131583
132410
133174
133867
134471
134974
135370
135656
135831
135899
135871
135759
135577
135339
135048
134740
134425
134119
133836
133591
133393
133241
133139
133067
133024
133005
133006
133022
133047
133077
133108
133131
133148
132351
132322
132334
132368
132422
132497
132596
132720
132870
133045
133244
133467
133734
134038
134366
134712
135071
135423
135753
136041
136271
136432
136511
136500
136406
136220
135890
135382
134735
133977
133156
132247
131232
130212
128110
123978
118369
112652
108213
105991
106460
109506
114509
120345
125630
129142
130522
131546
132536
133439
134249
134944
135515
135956
136264
136435
136478
136406
136237
135987
135671
135304
134907
134507
134128
133781
133491
133271
133141
133017
132937
132900
132896
132917
132954
132997
133042
133082
133116
133150
111183
108249
108496
108909
109409
110114
111168
112620
114472
116690
119130
121827
124921
127849
130461
132853
135073
135700
136121
136493
136791
137005
137119
137114
137015
136837
136494
135983
135318
133127
126560
115042
96750.3
75597.3
53324.4
37741
27141.5
20233.9
16191.4
14438.8
14780.1
17324.9
22278.9
30267.6
42110.1
58904.3
81497.2
101716
117654
127626
134167
135581
136198
136679
137006
137167
137172
137043
136805
136478
136073
135600
134522
131931
128951
125408
121712
118599
116324
114915
114311
114371
114806
115356
116008
116817
117711
118457
118964
120838
13933.5
13860.7
13796
13959.5
14362.8
14982
15798.6
16767.3
17852.3
19110.3
20649
23009.8
26891.7
32034.6
38175.5
45494.6
54065.9
64886.4
75362.9
84930.8
93335
100600
106529
110326
111310
108710
101187
87953.3
69649
48375
28937.8
13519.3
4264.05
143.607
3.94361
3.38398
4.16243
7.27479
11.6303
13.1756
12.1247
9.49659
7.53008
6.21829
8.40151
90.0478
1642.23
7544.55
18938.7
35753.3
55346
76537.7
93711.7
105319
111086
112039
109412
103885
96237.8
86914.1
75990.4
63559.6
50772.4
40589.9
32342.3
26011.5
21731.6
19149.1
17778
17211.9
17246.8
17771.9
18633.1
19702.2
20860.7
21950
22885.3
23662.3
24319.4
24992.9
3.44021
4.04948
4.00515
3.95016
3.9293
3.85701
3.85352
4.12443
4.17658
3.87082
3.58983
5.25376
7.95225
10.1427
12.1782
16.0206
27.01
416.758
1558.92
3376.56
5724.68
8447.46
11188.9
13120.1
13525.3
11304
7475.27
3363.9
394.33
1.53144
1.30731
1.38049
2.34339
3.24575
3.3588
3.25315
3.30847
4.13733
5.9791
4.79817
4.30087
4.24796
5.48059
6.11672
6.47369
7.87823
4.52779
3.74223
3.12282
3.37662
109.661
2001.43
5687.52
10372.5
13772.6
14439.4
12738
9715.63
6488.9
3687.93
1594.31
313.199
12.684
7.93933
7.42643
7.55951
7.73371
6.0309
4.34279
4.19103
3.87645
3.73145
3.75231
3.83595
3.79006
3.75998
3.75325
3.76103
4.24698
3.80032
4.80547
6.6274
6.57222
6.46627
5.16939
3.86817
3.93459
8.22025
9.15136
7.7258
3.59811
3.61474
3.75684
4.05026
3.47435
3.73848
4.46671
5.03197
4.20753
3.85625
2.89008
1.91912
1.67767
1.48557
1.25749
1.1081
1.0606
1.38095
1.80511
1.62435
1.85129
2.32748
7.65959
2.991
3.8386
3.05844
3.14643
4.85188
7.72303
5.00683
3.82138
3.40522
8.45081
13.6982
13.8399
11.414
3.61705
4.08225
3.8454
4.85663
2.07166
1.81317
1.37315
1.11421
1.07844
1.13354
1.13062
1.19637
2.01
2.97771
3.91125
4.85926
4.91652
4.92206
4.8762
4.93284
5.98844
6.7681
6.87732
5.81808
4.18031
3.72453
3.75434
4.23575
4.03621
3.82735
3.88909
4.04853
5.07296
5.25687
10.1017
10.7816
11.0015
11.1355
11.2264
7.2489
4.51152
9.32092
9.23584
7.44981
3.64015
3.57777
3.99961
4.08749
3.20564
3.17447
3.19111
3.19989
3.20515
3.15007
2.88035
2.68312
2.52707
2.14013
1.75109
1.6621
1.54248
1.547
1.62238
1.59188
1.73728
1.94381
2.15088
2.53904
3.79471
2.87248
3.09921
7.47916
9.3563
9.01581
3.66216
3.07625
3.13987
2.92534
2.91117
2.94766
3.38021
4.9687
7.25138
7.63014
6.99876
2.48294
1.72248
1.62892
1.58674
1.5979
1.70393
1.73968
1.81267
2.1521
2.65686
3.33546
4.2802
4.72157
4.83315
4.90277
5.69845
7.16414
8.35531
7.87652
4.85342
3.6917
4.17174
5.26312
4.46149
3.75245
4.13297
5.76513
5.81718
5.84938
10.1311
7.21829
2.85093
2.86151
4.92062
7.20762
4.48713
7.74101
9.32008
5.16389
3.6046
4.59017
6.40226
3.41409
3.14684
3.11318
3.11578
3.15046
3.23091
3.22981
3.13666
2.931
2.78769
2.37143
2.02036
1.70753
1.49824
1.42857
1.5111
1.59681
1.68302
1.78558
1.93708
2.17005
2.84164
2.78663
2.95503
7.21542
9.33767
9.53223
6.63341
2.84501
2.80583
2.74942
2.73537
4.75301
8.34581
8.08816
7.83254
7.68268
6.64718
1.66621
1.65458
1.62733
1.59681
1.60149
1.65815
1.77776
1.9421
2.20302
2.56154
3.15749
4.6318
6.59659
6.334
4.96426
5.02535
5.78635
8.24067
8.26208
7.67505
3.77963
4.55532
5.27034
3.9203
3.72206
3.69911
3.93234
4.38515
5.34179
6.46595
2.49484
2.58302
2.69768
2.79225
7.18236
4.45708
6.62143
9.49292
4.57913
4.42649
8.85151
8.7097
6.94388
3.12504
3.09072
3.0916
5.85173
8.1824
7.87763
5.28926
6.63797
7.55724
6.20836
5.10928
3.55033
2.09305
1.40157
1.41727
1.5518
1.59943
1.67325
1.80556
1.94951
2.14224
2.58852
2.53163
3.56792
8.64994
9.63975
9.34117
3.39365
2.60185
2.59133
5.45782
7.65348
7.91247
6.45314
6.898
7.10602
3.03642
1.63529
1.72242
1.75754
1.76552
1.76678
1.80908
1.90718
2.0365
2.18796
2.44254
5.33726
10.0399
10.219
10.3494
10.1576
4.97095
6.54358
8.0886
8.14405
8.22902
7.80314
4.72758
5.03685
3.97851
3.73056
3.63709
3.5703
3.62545
3.72006
2.42195
2.41294
2.25832
2.3432
2.52126
6.88093
4.35697
6.41036
10.2112
4.58005
7.01946
8.6197
8.52658
8.58758
8.6398
8.53931
8.4245
8.27389
8.14488
8.02026
7.96062
7.98624
7.97955
7.92637
7.85029
7.7556
5.77038
1.92363
1.31163
1.48396
1.54749
1.61683
1.71272
1.79829
1.91355
2.1614
2.21357
2.43214
7.85853
9.75323
9.71266
6.4886
2.45401
2.46406
5.08635
7.42208
3.17148
1.67981
1.45986
1.34621
1.86599
1.69025
1.77487
1.83818
1.86962
1.88591
1.92176
2.01026
2.15323
2.57234
7.26967
9.94772
10.104
10.2694
10.3539
10.3069
10.0706
5.37048
4.48962
7.87003
8.13432
8.21138
7.82134
5.65384
4.98075
3.76115
3.72389
3.716
3.75418
3.813
2.60641
2.41489
1.77197
1.83125
2.14113
3.72456
4.23362
8.96093
10.6877
7.9886
3.87193
4.22864
7.54287
8.52071
8.58221
8.51108
8.35973
6.80012
4.99418
5.60512
7.13535
7.94373
7.99291
7.94358
7.87036
7.73972
6.64447
1.93568
1.22645
1.40183
1.4876
1.5631
1.64536
1.73336
1.81769
1.89495
1.93672
2.33037
8.53002
9.8385
9.83387
9.76971
9.35988
6.44077
2.17988
1.86105
1.6973
1.54416
1.35933
1.39931
1.55975
1.74317
1.86925
1.94685
1.98201
1.97467
2.70646
8.11617
9.8906
9.92096
9.93588
10.0321
10.171
10.2887
8.37153
5.34853
2.89896
2.35885
2.41406
2.53611
4.81895
7.90305
8.5074
8.73567
6.93493
4.04987
3.79915
3.80752
3.85685
3.96427
2.36943
1.54134
1.3135
1.43699
1.82322
2.19051
6.03135
10.993
10.7943
10.5159
3.39134
2.77554
2.97726
7.56431
8.55159
6.08433
1.99633
1.41772
1.78464
1.74499
1.65906
3.94971
7.31295
6.63088
4.53219
3.02132
1.54427
1.70122
1.18947
1.32575
1.41934
1.50283
1.60335
1.71021
1.7709
1.77844
1.75257
2.02934
8.21991
9.91652
9.91351
9.78261
9.47876
5.64759
1.68034
1.34911
2.26634
3.61581
2.83687
1.58077
1.69538
1.86242
2.02076
2.11062
2.14182
3.08206
9.69024
9.87024
9.92582
9.97949
9.99005
10.0819
9.02472
4.38673
2.19491
2.25229
2.27685
2.28353
2.30504
2.37094
2.46136
2.63997
6.84207
8.77656
9.08156
7.23514
3.89146
3.89122
3.94868
4.4903
2.17651
1.25829
1.1695
1.29119
1.66964
2.36628
10.0244
11.09
10.9055
10.2047
2.63745
2.6442
3.12452
6.09641
3.0633
1.39045
1.37456
1.38339
1.74656
1.69451
1.59867
1.35672
2.8436
3.13368
2.74832
1.20856
1.22047
1.30668
1.47721
1.26516
1.35266
1.43054
1.76497
2.46246
1.73134
1.67546
1.61145
1.60689
5.973
9.98375
9.95654
9.65091
3.21906
1.731
1.21594
1.30902
3.1074
3.29264
3.65607
4.1379
4.45089
2.94661
3.05669
2.67031
2.46947
2.53892
3.07667
7.88298
10.0795
8.95485
7.04244
4.22869
1.81854
1.97942
2.09723
2.15831
2.18762
2.20818
2.24332
2.30565
2.38214
2.4512
2.49961
6.44255
9.12424
9.46762
7.76911
3.98622
4.01881
4.5761
1.75999
1.32761
1.26489
1.36827
1.68724
3.48671
11.7375
11.3543
10.8275
3.26021
2.49859
2.81143
3.88841
3.40901
1.34206
1.33648
1.31136
1.27546
1.20146
1.1481
1.09652
1.27305
5.18964
6.19337
6.17405
4.21312
1.109
1.29756
1.71363
1.22311
1.29223
1.35638
2.3309
3.32089
2.76298
1.54238
1.47861
1.41641
2.66244
9.43391
9.89411
7.00244
2.24849
1.58918
2.70735
2.43896
1.07476
1.24549
1.64132
3.61521
5.00001
5.594
5.87878
6.02778
5.78772
5.58922
6.05151
5.06341
2.99436
1.67533
1.60526
1.65748
1.77273
1.8902
1.98238
2.04176
2.07922
2.11179
2.15417
2.21259
2.27731
2.33242
2.37298
2.45315
8.18969
9.51498
9.79293
6.73211
4.08094
4.46435
1.6722
1.5489
1.47283
1.53387
1.77408
4.72046
12.0151
11.7049
4.10802
2.56989
2.44206
2.75205
3.95958
2.59359
1.66029
1.50792
1.2161
1.19594
1.161
1.11349
1.05692
0.979761
2.21186
6.23392
6.17235
5.4616
0.993753
1.33455
1.94862
1.35164
1.24806
1.31212
2.82334
3.18713
3.20721
1.63282
1.3536
1.32226
1.36098
6.34017
9.68227
3.63148
2.18516
2.6666
3.99176
3.74598
2.1604
1.10254
1.48441
1.94681
2.40939
3.12689
5.70339
5.9265
6.04824
6.07341
6.03011
5.96383
5.92641
3.15699
1.65515
1.636
1.69578
1.77804
1.85178
1.90827
1.95259
1.99448
2.0416
2.09632
2.15088
2.19353
2.23207
2.30909
6.38314
9.51371
9.85198
10.0481
4.62062
4.47741
1.90091
1.80411
1.70741
1.69687
2.50196
11.9893
12.2916
12.0755
4.19674
2.55563
2.41716
2.23218
2.22176
1.7531
1.76002
1.51091
1.16318
1.14678
1.11956
1.07854
1.02079
0.937328
1.01197
4.72299
6.22737
2.5733
0.93273
1.40039
1.94391
1.94928
1.26698
1.42733
3.05497
3.0063
3.02109
2.85462
1.25542
1.25999
1.23206
2.50469
8.08555
2.43009
1.98136
3.71215
3.9142
3.70168
1.74606
1.09987
1.52734
2.90962
3.14944
2.96308
2.96685
4.66062
5.82832
5.92518
5.94756
5.93407
5.79591
4.37029
1.77261
1.5767
1.59838
1.65153
1.70983
1.76237
1.80915
1.85525
1.90495
1.95803
2.00561
2.03752
2.06935
2.15481
6.07764
9.47685
9.83571
10.0522
5.78737
4.40156
2.11059
2.02202
1.88797
1.79914
5.67561
12.5154
12.471
12.4109
12.3434
6.82176
3.14879
1.97137
1.29907
1.45825
1.41141
1.12402
1.11339
1.1006
1.07896
1.04667
1.00179
0.934836
0.838689
0.726473
0.873873
0.889669
0.930627
1.06697
1.62705
2.0265
2.1705
2.66872
2.92191
2.84164
2.85859
2.93433
1.5324
1.2107
1.28673
7.34551
8.46888
2.41131
2.03529
1.63536
2.0052
1.98304
2.1508
3.66757
6.88282
6.83595
6.94003
5.39041
1.82298
1.85203
1.99231
3.12418
5.05085
4.11756
1.99497
1.52535
1.47687
1.45501
1.46396
1.49911
1.54581
1.59596
1.64474
1.69308
1.74446
1.79821
1.84348
1.87306
1.91685
2.00712
5.65105
9.40119
9.74579
9.93712
5.6009
4.24102
2.68524
2.1155
1.9525
2.84259
12.6869
12.5708
12.5426
12.5692
12.6319
12.6424
11.1519
3.08478
1.1731
1.13478
1.06485
1.06525
1.05876
1.05393
1.04325
1.01549
0.993781
0.953166
0.882977
0.827438
0.826532
0.879943
0.944158
1.04405
1.26165
1.7833
2.30368
2.68191
2.86265
2.78057
2.80298
2.86004
1.27216
1.15551
2.77287
10.7924
10.303
2.50334
2.27492
1.99777
2.7418
4.11793
7.09679
7.38276
7.30967
7.2007
6.2647
3.5407
1.53592
1.63494
1.71112
1.76677
1.82136
1.90748
1.90286
1.89451
1.62197
1.4243
1.40953
1.36388
1.352
1.40312
1.45511
1.50752
1.56171
1.61749
1.66506
1.7017
2.27526
2.10449
4.80296
9.23738
9.55928
9.67143
4.60358
4.61359
2.75628
2.0994
1.89738
2.51187
10.4304
12.5999
12.5814
12.6592
12.7526
12.8105
12.7435
6.21751
1.06543
1.06741
0.981876
0.992991
0.989639
0.980546
1.05314
1.13499
1.30367
1.48701
0.959928
0.880142
0.873784
0.901814
1.12833
1.90099
1.95162
1.98699
1.61956
1.43814
1.57422
2.86597
2.87739
1.49935
1.2975
1.30416
10.9561
10.9362
10.8828
9.23976
6.42442
9.52733
9.89971
9.626
9.42524
7.89179
4.23742
1.1393
1.13802
1.26058
1.38408
1.47594
1.55854
1.64861
1.73362
2.20302
3.36603
7.21966
7.85188
5.26904
2.05567
1.10301
1.12078
1.18471
1.24527
1.31496
1.36665
1.42258
1.47617
1.52509
3.44066
4.76472
3.5413
7.34791
9.28849
8.73166
3.77068
3.49019
2.66755
1.97733
1.78579
2.22384
2.34683
3.23712
7.81195
12.8063
12.8919
12.9438
12.9141
3.68314
0.947028
0.958171
0.982501
0.90396
0.899595
0.887602
0.904158
1.95864
5.47759
6.67984
3.53311
1.09329
0.859918
0.882921
0.926585
1.2079
1.98048
2.02377
1.92032
1.57752
1.53404
1.53602
1.64514
1.6286
1.396
5.67707
11.1177
10.9811
10.9436
10.9457
10.8208
10.5325
10.2331
7.76776
1.23724
0.637072
0.932608
1.04724
1.12792
1.20142
1.26948
1.35456
1.47364
2.85728
4.76061
10.3707
10.4522
10.4392
10.4225
10.4772
5.48332
1.03849
0.886013
0.948332
1.03043
1.10296
1.15811
1.22341
1.28661
1.53002
4.64521
4.74049
2.90411
5.45506
8.87115
8.64193
3.30929
2.67049
2.55586
1.83941
1.62252
1.48942
1.24634
1.37328
10.3403
13.0521
13.0742
13.0746
10.8293
0.843953
0.848864
1.44603
0.853204
0.793782
0.782874
0.760524
0.929426
4.6659
6.66672
6.69267
6.69475
5.61576
0.791398
0.833338
0.906416
0.988135
1.17459
1.97828
2.11841
2.12005
1.79754
1.83378
1.84761
1.79557
4.2896
11.4754
11.1884
11.0252
10.9703
10.9703
10.9107
8.29352
0.43586
0.329454
0.492919
0.630803
1.14237
1.20534
1.12523
1.15906
1.22433
2.08005
5.53145
9.55116
9.87849
10.0613
10.1844
10.1955
10.1508
10.1669
9.776
2.36532
0.624298
0.676922
0.783056
0.870509
0.949777
1.02581
1.09966
2.34054
4.57414
4.5485
2.15541
4.04628
8.31973
8.22433
2.81949
2.25643
2.19663
1.7218
1.52815
1.32057
1.16848
3.78385
13.4195
13.3182
13.26
12.6914
1.35014
0.894226
1.96898
1.98417
0.659873
0.661512
0.63881
0.597322
1.20615
6.33629
6.60392
6.63658
6.6352
6.62269
4.60512
0.762877
0.879955
0.999425
1.10818
1.21035
1.63114
2.11542
2.29829
2.58572
2.7207
2.61975
7.88101
11.6873
11.3627
11.1824
11.1222
10.3596
1.3045
0.286381
0.361606
0.423839
0.648725
2.32697
4.5088
4.53711
2.76535
2.05113
4.0048
6.92567
7.55446
7.61072
8.03557
8.27509
9.74099
9.87817
9.91133
9.94611
10.0585
4.35239
0.314782
0.399463
0.542389
0.654307
0.747787
0.834137
0.917447
3.62035
4.34304
3.81071
1.06737
3.78076
7.80808
6.66401
1.88699
1.95163
2.54743
1.63707
1.44704
1.28154
1.1826
13.5766
13.689
13.5479
11.8347
2.23789
1.37425
2.42643
2.64776
1.79335
0.519806
0.517896
0.482935
0.415478
1.0384
6.16781
6.53366
6.56698
6.54007
6.43596
6.39838
2.48076
0.857706
1.01849
1.15934
1.28405
1.4003
1.5925
2.06945
2.39188
2.49339
2.73009
3.80826
5.99452
7.52762
5.96069
2.42746
0.283288
0.354473
0.413039
0.435562
0.617655
4.11823
4.64504
4.62217
4.59554
4.5794
4.52015
4.33832
2.54597
1.3934
0.0781634
-0.268219
-0.157717
1.12164
7.50534
9.64914
9.7682
9.81128
6.35944
0.215962
0.149147
0.320723
0.45197
0.556218
0.651658
1.54802
4.08576
4.10556
1.60324
0.688491
4.07783
7.48561
2.22098
1.52949
1.88284
3.60979
1.55855
1.35519
1.50638
10.0487
14.0239
13.8802
11.5475
1.46852
0.971737
1.93879
2.52197
2.57515
1.52709
0.391135
0.383673
0.33804
0.249792
0.278799
3.37102
6.44865
6.44572
5.38886
5.51938
6.07684
5.60462
0.968951
1.0527
1.22062
1.36167
1.49174
1.61439
1.7145
1.78195
1.78428
1.74761
1.43025
1.11284
0.847041
0.682109
0.555357
0.538433
0.537274
0.564176
1.27007
4.31231
4.44585
4.64389
4.69659
4.65879
4.11493
2.46759
0.220069
-0.0454647
-0.143079
-0.247378
-0.362093
-0.49669
-0.673437
-0.274818
7.15611
9.58247
9.80329
6.89322
0.0186535
-0.0584842
0.133857
0.274265
0.382363
0.480265
2.74775
3.73508
2.23371
0.479527
0.457709
4.83894
5.99624
1.10211
1.3466
2.08594
3.57003
1.52271
1.25064
1.33875
14.1251
14.0228
12.999
1.31145
0.912949
0.826218
0.924454
2.38536
2.44225
1.27574
0.286746
0.271478
0.217358
0.123422
0.0310582
0.493491
1.58938
1.58548
0.0492612
0.259801
3.61535
5.46753
4.48117
1.24179
1.93313
2.38065
2.69299
2.05502
1.77999
1.79808
1.78802
1.69521
1.52563
1.3103
1.09219
0.91087
0.793072
0.733702
0.703282
2.8444
3.96739
4.18285
2.97084
1.80256
1.74664
1.00988
0.172513
0.0719591
-0.0120246
-0.104077
-0.208616
-0.319481
-0.429148
-0.540285
-0.674154
-0.818896
-0.131908
5.72797
5.58514
1.89203
-0.294169
-0.208382
-0.00681192
0.126582
0.22846
0.779359
2.69161
2.38783
0.602248
0.296703
0.325465
4.7716
2.51443
1.00352
1.21029
1.53864
2.84723
1.43326
1.15414
3.58339
14.1293
14.0301
11.7727
0.96524
0.838875
0.726314
0.661152
0.709033
1.18884
1.47515
0.208145
0.180445
0.117057
0.0268753
-0.0682876
-0.140444
-0.147759
-0.0991054
-0.0415312
0.0414088
0.198807
0.584736
2.18679
4.8005
5.19549
5.1457
5.04086
5.07406
4.41838
4.23964
3.42177
2.79391
2.3931
2.30179
2.35978
1.84411
1.11253
1.13133
3.84595
3.754
3.30924
1.01199
0.621506
0.51589
0.420959
0.333122
0.222541
0.0994864
-0.0342654
-0.153823
-0.272489
-0.390494
-0.490309
-0.550004
0.00484799
-0.634645
-0.815262
-0.914231
-0.873128
-0.72724
-0.505641
-0.268116
-0.087441
0.0156992
0.0959225
0.472044
1.93533
0.755684
0.216582
0.188556
0.216808
3.70371
2.8285
0.928784
1.10879
1.19207
1.98662
1.35117
1.00816
12.0951
14.1651
14.0628
14.0498
5.56367
0.783792
0.667818
0.613271
0.6399
0.738722
1.17752
0.179607
0.100662
0.0242976
-0.0703609
-0.169541
-0.240617
-0.258044
-0.238981
-0.200084
-0.103004
0.0843004
0.362148
0.899026
4.58134
5.80173
3.8694
4.06002
5.04358
6.0947
6.51262
6.59454
6.72709
6.82287
6.74437
6.60181
5.6538
5.06005
5.48867
5.33467
3.30295
0.854228
0.855702
0.79483
0.708985
0.577344
0.436476
0.455314
0.505045
0.0504178
-0.195931
-0.333018
-0.468334
-0.571964
-0.436005
1.16716
1.26044
-0.576336
-0.670221
-0.642764
-0.564981
-0.424169
0.49914
0.454243
0.122234
-0.0232996
0.0851145
1.31019
0.918972
0.116686
0.100424
0.127596
1.46251
3.43998
0.942325
0.991281
2.9407
8.79612
1.45195
0.83427
6.67036
14.1647
14.0749
14.099
14.2555
0.755187
0.648916
0.620233
0.66095
0.81773
1.55073
0.281085
0.0184928
-0.072954
-0.177962
-0.284598
-0.370497
-0.421491
-0.445798
-0.422462
-0.283089
-0.0272743
0.324278
0.989544
4.72576
5.97836
2.83657
1.54887
1.5563
1.55887
1.56391
1.5042
1.71188
2.18279
3.82625
6.41556
6.26014
6.0962
5.57405
1.36164
0.812284
0.851481
0.946018
1.24047
1.15035
1.04482
0.93205
0.791739
0.580633
0.0996659
-0.209044
-0.347802
-0.528986
-0.688875
-0.644236
0.822695
3.07598
1.20226
-0.424511
-0.453584
-0.447614
3.92678
16.3698
13.4422
1.17514
-0.139275
-0.00737616
1.80709
1.58042
0.0602721
0.00382686
0.0396534
1.7388
3.42122
0.820715
1.00296
5.70169
8.66619
1.3445
0.649855
0.244862
8.58062
14.1777
14.1746
14.3404
5.63668
1.21472
1.16243
2.3419
6.44055
3.40697
0.1034
-0.0720737
-0.18116
-0.300545
-0.425739
-0.543517
-0.651386
-0.705368
0.0497692
1.39383
1.80302
1.50511
2.46472
5.4379
6.0603
6.46093
3.65292
1.53638
1.52045
1.48516
1.44618
1.38746
1.30403
1.21463
1.12373
2.12211
1.69427
0.808491
0.807698
0.819772
1.41977
1.40128
1.30474
1.20021
1.07394
0.7318
0.329182
0.00940715
-0.0726965
0.0839764
2.97122
1.7123
-0.644097
-0.846592
-0.814646
0.871562
10.1084
9.0093
6.75198
12.2582
16.5734
16.5772
16.728
9.40134
-0.169136
-0.120068
2.4042
3.19016
0.206877
-0.11631
-0.0631003
2.34787
3.37758
0.518695
1.30359
5.65219
8.51853
7.26338
0.610884
0.457048
0.585471
3.88045
9.64057
14.477
10.4451
5.18671
5.37304
6.45972
6.62324
6.51327
0.412635
-0.183215
-0.302972
-0.434644
-0.58456
-0.746068
-0.922221
-0.729365
2.34191
3.00957
3.3902
3.81704
4.31379
3.47862
4.96665
6.50109
6.72308
1.57892
1.48165
1.41834
1.42125
1.38683
1.25082
1.25225
1.2982
1.07104
0.868336
0.826191
0.901116
1.59204
1.52436
1.44071
1.33564
0.868756
0.328839
0.163772
0.0335816
-0.116832
-0.0850251
4.73696
6.40696
5.05217
-0.769395
-0.9881
-0.932837
-0.899624
15.8283
16.524
16.5191
16.472
16.4007
16.3838
16.5206
8.3774
-0.307067
-0.193536
3.15008
3.10377
0.23913
-0.254486
-0.183365
1.45493
3.18323
0.185194
1.72958
5.58382
8.32598
8.26162
2.35819
0.655418
0.768894
0.964316
1.45429
3.37753
7.88454
7.69864
7.0818
6.79629
6.6562
6.6695
0.433973
-0.30671
-0.422314
-0.567814
-0.745605
-0.953635
-1.18852
0.819156
2.47296
2.76155
2.95822
3.91057
4.39947
3.44086
3.77013
6.02572
6.76753
3.0491
1.49387
1.28788
1.22035
1.31085
1.11871
1.03602
1.08506
0.964921
0.853658
0.819421
1.36441