/*--------------------------------*- C++ -*----------------------------------*\
| =========                 |                                                 |
| \\      /  F ield         | OpenFOAM: The Open Source CFD Toolbox           |
|  \\    /   O peration     | Version:  2412                                  |
|   \\  /    A nd           | Website:  www.openfoam.com                      |
|    \\/     M anipulation  |                                                 |
\*---------------------------------------------------------------------------*/
FoamFile
{
    version     2.0;
    format      ascii;
    arch        "LSB;label=32;scalar=64";
    class       volScalarField;
    location    "7.15";
    object      p;
}
// * * * * * * * * * * * * * * * * * * * * * * * * * * * * * * * * * * * * * //

dimensions      [1 -1 -2 0 0 0 0];

internalField   nonuniform List<scalar> 
6400
(
129588
129583
129573
129560
129543
129523
129501
129479
129458
129438
129421
129409
129402
129403
129411
129428
129454
129490
129536
129591
129656
129730
129812
129902
129997
130098
130201
130307
130412
130516
130617
130712
130802
130883
130955
131017
131068
131106
131132
131145
131145
131133
131107
131069
131020
130960
130891
130813
130728
130638
130544
130447
130350
130253
130158
130066
129979
129898
129823
129756
129696
129645
129602
129568
129541
129523
129511
129506
129506
129511
129520
129532
129545
129560
129574
129587
129599
129608
129615
129618
122954
122949
122939
122925
122907
122886
122863
122840
122817
122796
122778
122765
122758
122757
122765
122781
122807
122843
122888
122944
123010
123084
123167
123258
123355
123457
123562
123669
123776
123881
123983
124080
124171
124253
124326
124389
124440
124479
124505
124519
124518
124505
124479
124441
124391
124330
124260
124181
124095
124004
123908
123810
123711
123613
123516
123423
123335
123253
123178
123110
123050
122999
122956
122922
122895
122877
122866
122862
122863
122869
122879
122892
122906
122921
122937
122951
122963
122973
122980
122984
116325
116319
116309
116293
116274
116251
116226
116200
116175
116151
116131
116116
116106
116104
116109
116125
116150
116185
116231
116287
116354
116430
116515
116608
116708
116812
116920
117031
117141
117250
117355
117454
117547
117632
117707
117771
117824
117864
117891
117904
117904
117890
117863
117824
117772
117709
117637
117556
117467
117373
117275
117174
117072
116970
116872
116776
116686
116602
116525
116456
116396
116344
116301
116267
116242
116225
116215
116212
116215
116223
116235
116250
116266
116283
116300
116316
116329
116340
116348
116352
109702
109695
109683
109666
109644
109618
109590
109560
109531
109503
109479
109460
109447
109441
109445
109458
109482
109517
109563
109620
109689
109767
109855
109952
110056
110165
110277
110393
110508
110622
110731
110836
110933
111021
111099
111166
111220
111262
111290
111303
111303
111288
111260
111218
111164
111099
111023
110938
110845
110747
110644
110539
110432
110326
110223
110124
110031
109944
109865
109794
109732
109680
109638
109604
109580
109565
109557
109557
109562
109573
109588
109606
109625
109646
109665
109683
109698
109711
109720
109724
103084
103077
103063
103043
103017
102987
102954
102919
102884
102852
102822
102798
102780
102771
102771
102781
102803
102837
102884
102942
103013
103095
103187
103289
103398
103513
103633
103754
103876
103997
104113
104224
104326
104420
104502
104573
104630
104674
104703
104717
104716
104700
104670
104625
104568
104498
104418
104327
104229
104125
104016
103904
103791
103679
103571
103467
103369
103278
103196
103123
103060
103007
102965
102932
102910
102897
102892
102895
102905
102919
102939
102961
102984
103008
103031
103052
103071
103085
103095
103101
96474.3
96466
96449.7
96425.8
96395.4
96359.6
96320
96278.4
96236.5
96196.4
96159.8
96128.8
96105
96090.2
96085.7
96092.9
96112.6
96145.6
96192.3
96252.5
96326
96412.1
96509.8
96617.7
96734.1
96857.3
96985.3
97115.7
97246.6
97376.1
97501.4
97619.5
97729.3
97829.1
97917.2
97992.3
98053.4
98099.6
98130.2
98144.9
98143.5
98126.2
98093.3
98045.5
97983.5
97908.6
97822
97725.1
97619.7
97507.6
97390.7
97270.9
97148.8
97029.7
96914
96803.4
96699.5
96603.9
96517.7
96441.8
96376.9
96323.4
96281.2
96250.3
96230.2
96220.2
96219.4
96226.8
96241.2
96261.4
96285.9
96313.4
96342.4
96371.6
96399.5
96424.9
96446.6
96463.8
96476
96482.2
89872.6
89862.8
89843.3
89814.9
89778.4
89735.5
89687.9
89637.6
89586.7
89537.5
89492
89452.5
89421
89399.3
89389.1
89391.9
89408.6
89440.3
89487.1
89549.3
89626.4
89717.7
89822
89938
90063.6
90196.8
90335.4
90476.9
90618.8
90760.1
90895.6
91023.5
91142.2
91250
91345.1
91426
91491.6
91541.1
91573.6
91589
91587
91567.8
91531.8
91479.6
91412.2
91330.7
91236.5
91131.1
91016.6
90894.8
90767.9
90638.2
90505.5
90376.9
90252.1
90133.2
90022.1
89920.3
89829.2
89749.8
89682.7
89628.4
89586.8
89557.6
89540.4
89534.5
89538.4
89551.4
89572.1
89598.9
89630.2
89664.6
89700.5
89736.1
89770
89800.8
89827
89847.7
89862.1
89869.5
83280.7
83269.2
83245.9
83211.6
83167.7
83115.8
83058.2
82997.2
82935.2
82874.7
82818.3
82768.3
82727.1
82696.9
82679.6
82676.8
82689.8
82719.6
82766.7
82831.1
82912.5
83010.2
83122.7
83248.5
83385.4
83531
83682.7
83837.5
83992.4
84149.5
84296.6
84436.3
84566
84683.4
84786.9
84874.8
84945.9
84999.2
85034.2
85050.3
85047.5
85026
84986.3
84928.8
84854.8
84765.3
84661.9
84546.4
84420.7
84287
84147.8
84005.5
83861.2
83720.4
83584.3
83455.2
83335.2
83226
83129
83045.4
82975.8
82920.6
82879.8
82852.9
82839.3
82838.1
82848.3
82868.4
82896.7
82931.7
82971.5
83014.4
83058.6
83102.2
83143.6
83181
83212.9
83237.9
83255.1
83263.9
76701
76687.2
76659.2
76617.7
76564.3
76501.4
76431.6
76357.5
76282
76207.8
76137.9
76075.2
76022.2
75981.5
75955.4
75945.8
75954.1
75981.6
76028.7
76095.8
76182.4
76287.6
76410.1
76547.8
76698.4
76859
77026.6
77198.1
77370.8
77541.6
77704.8
77859
78001.7
78130.7
78244.1
78340.2
78417.7
78475.6
78513.2
78530.2
78526.6
78502.4
78458.1
78394.5
78312.5
78213.6
78099.3
77971.5
77832.5
77684.6
77530.6
77373.2
77214.6
77059.1
76909.5
76768.2
76637.4
76519.3
76415.4
76326.9
76254.5
76198.4
76158.7
76134.8
76125.8
76130.8
76148.4
76176.9
76214.6
76259.5
76309.6
76362.8
76417.1
76470.4
76520.8
76566.4
76605.3
76635.7
76656.5
76667
70136.1
70119.5
70085.5
70034.8
69969.7
69893.3
69808.7
69719
69627.2
69536.6
69450.5
69372.2
69304.9
69251.5
69214.7
69196.7
69199.3
69223.7
69270.9
69340.9
69433.5
69547.8
69682
69834.1
70001.1
70179.8
70366.6
70557.8
70751.3
70940.1
71121.6
71292.8
71450.9
71593.4
71718.3
71823.9
71908.7
71971.8
72012.6
72030.6
72025.9
71998.4
71948.9
71878.1
71786.9
71677
71549.9
71407.7
71252.9
71088.2
70916.6
70741.2
70565.2
70392.1
70226.3
70070.4
69927
69798.4
69686.4
69592.2
69516.7
69459.9
69421.8
69401.6
69398.3
69410.8
69437.5
69476.3
69525.3
69582.2
69644.6
69710
69776.3
69841.1
69902.3
69958
70005.6
70042.9
70068.3
70080.8
63589.2
63569.2
63527.3
63464.8
63385.1
63292.5
63190.4
63082.2
62971.1
62860.8
62755.1
62658.2
62573.6
62504.9
62455.2
62427
62422.5
62443.1
62489.9
62563.3
62662.9
62787.7
62936
63105.1
63291.7
63492.2
63702
63917
64134
64345.2
64548.2
64739.3
64915.2
65073.4
65211.5
65327.8
65421
65490.1
65534.3
65553.4
65547.3
65516.2
65460.7
65381.5
65279.8
65157
65015.1
64856.1
64682.9
64498.3
64305.9
64109.3
63912.5
63717.9
63533.1
63359.9
63201.6
63060.7
62939.4
62838.9
62760
62702.7
62666.8
62651.3
62655.1
62676.7
62714.3
62765.5
62828.1
62899.3
62976.2
63056.2
63136.6
63214.7
63288.7
63356.4
63415.1
63461.4
63492.6
63507.7
57064.5
57039.8
56987.6
56910
56812.5
56700.6
56578.1
56448.1
56314.1
56180.2
56051.2
55931.8
55826.5
55739.4
55674.1
55633.7
55620.4
55636.2
55682.4
55759.3
55866.8
56003.9
56168.6
56358
56568.2
56794.6
57032
57275.6
57519.6
57757.8
57986
58200.1
58396.6
58572.6
58725.7
58854.2
58956.9
59032.5
59080.6
59100.8
59093.2
59057.9
58995.5
58906.8
58793
58655.6
58496.6
58318.3
58123.6
57915.8
57698.8
57477.2
57256.2
57034.5
56827.8
56634.3
56458.4
56303.3
56171.3
56063.8
55981.5
55924.1
55891.1
55881.6
55894
55926.6
55977.3
56043.4
56122.1
56210.3
56304.7
56401.9
56498.6
56592.3
56681.1
56763.2
56835.4
56893.3
56932.5
56950.8
50567.3
50536.2
50470.9
50375.1
50256.1
50121.2
49974.2
49818.1
49656.8
49494.7
49337.6
49191.3
49061.1
48952.1
48868.2
48813.1
48789.4
48799
48843.8
48924.4
49040.8
49192.1
49376.2
49589.6
49827.8
50085.1
50355.4
50632.9
50909.3
51179.1
51436.7
51677.4
51897.3
52093.5
52263.6
52405.8
52518.8
52601.7
52654
52675.4
52665.9
52625.9
52555.9
52456.6
52329.1
52175.1
51996.6
51796.1
51576.5
51341.5
51095.6
50843.8
50591.7
50343.6
50108.6
49890.6
49693.9
49522.3
49378.3
49263.3
49177.6
49120.8
49092
49089.7
49112.5
49158.4
49224.7
49308.6
49406.6
49515.1
49630.2
49747.7
49863.9
49976
50082.3
50181.3
50269.9
50342.4
50391.6
50413.9
44103.5
44064.3
43983.8
43866.9
43722.1
43559.4
43382.3
43193.9
43000.2
42803.6
42612.8
42434.5
42274.6
42139.5
42033.6
41961
41924.7
41926.7
41969.3
42053.5
42179.6
42347.2
42553.9
42795.8
43067.4
43361.7
43671.4
43988.6
44304
44610.8
44902.5
45173.6
45420.1
45639.1
45827.9
45985.2
46109.6
46200.3
46257
46279.6
46268.1
46222.9
46144.4
46033.3
45890.6
45718
45517.4
45291.5
45043.4
44776.9
44496.8
44209.4
43921.3
43639.4
43371.7
43124.6
42903.6
42713
42555.7
42433
42344.5
42289.3
42265.8
42272.4
42307.7
42369.5
42454.4
42559.2
42680.1
42812.7
42952.3
43094.2
43234
43368.6
43496.4
43616.1
43723.5
43813.5
43875.5
43900.9
37679.2
37630.7
37532.7
37391.3
37217.4
37020.1
36805.4
36577.7
36342.3
36105.2
35874.5
35658.4
35463
35297.5
35165.9
35073
35021.9
35014.9
35053.5
35140.9
35277.4
35463.1
35696.2
35971.9
36283.3
36621.7
36978.8
37342.9
37704.7
38055
38386
38691.6
38967.8
39212.2
39421.6
39595.2
39731.9
39831
39892.5
39916.2
39902.5
39851.6
39763.8
39639.7
39480.3
39287
39061.8
38807.2
38526.5
38223.5
37903.5
37573.7
37242.8
36919.7
36613.1
36331.7
36082.2
35870.1
35698.4
35568.1
35478.1
35425.9
35409.2
35426.3
35475.9
35557
35663.5
35792.7
35940.3
36101.2
36270.1
36441.3
36609.9
36772.6
36927.3
37072.8
37203.1
37310.5
37384.9
37420.8
31300.8
31242
31124.2
30954.6
30744.8
30505.5
30244.7
29968.8
29684
29397.9
29119.5
28858.3
28622.8
28421.5
28260.2
28144.1
28076.5
28058.2
28090.3
28180.9
28327.4
28533.2
28796.6
29112.5
29471.8
29863.4
30275.7
30696.3
31113.1
31514.5
31890.5
32234.4
32543.3
32816.5
33047.3
33238.6
33388.3
33496
33562.1
33586.8
33570.6
33513.7
33416.1
33278.2
33100.6
32884.5
32632
32345.5
32028.2
31683.3
31316.3
30936.2
30554.1
30181.2
29828.5
29506.3
29223.5
28987.1
28800.3
28663.7
28574.5
28527.8
28519.6
28548.3
28612.5
28718.9
28848.4
29005.4
29184
29378
29581.2
29787.5
29991.1
30188.8
30375.7
30553.6
30710.7
30838.6
30927.2
30971.3
24974.9
24904.4
24763.7
24560.6
24307.6
24017.3
23700.8
23367.3
23023.7
22678.9
22343.7
22029.5
21746.6
21504.6
21310.5
21169.6
21085.1
21055.7
21074.7
21168.3
21321.8
21548.9
21847.2
22211.5
22628.3
23083.5
23562.2
24049.8
24531.6
24992.7
25419.9
25805.3
26148
26447.9
26706.5
26917.2
27080.5
27197.1
27267.8
27293.4
27274.5
27211.2
27103.1
26950.4
26753.2
26512.4
26229.8
25908.3
25550.4
25158.3
24736.3
24296.3
23852.9
23420.6
23012.6
22641.5
22319.5
22056
21853.7
21713.7
21630.2
21593.4
21594.9
21636
21719.1
21843.6
22002.4
22191.9
22406.2
22638.7
22882.4
23130.8
23378.2
23619
23850.3
24061
24248.3
24399.8
24504.4
24556.5
18707.8
18625.1
18456.6
18212.6
17907.5
17555.9
17172.8
16772
16358
15942.5
15539.2
15162.2
14823.9
14535.9
14304.9
14137.8
14039.2
14010.3
14048.6
14103.6
14247.4
14496.2
14838.1
15260.4
15746.5
16277.7
16835.2
17401.9
17960.6
18492.8
18978.8
19407.3
19784.7
20119.3
20404.3
20635.1
20811.9
20936.4
21010.6
21036.2
21014.6
20945.3
20827.3
20659.4
20441.2
20172.8
19856.5
19496.6
19095.4
18651.3
18163
17650.1
17133.4
16630.4
16156.7
15727.2
15357.2
15064.7
14846.3
14708.8
14642.6
14622.6
14631.3
14681.3
14779.6
14926.9
15116.8
15342.8
15598.3
15875.7
16167.2
16465.3
16763.4
17055.1
17333.8
17590.2
17814.9
17994.9
18118
18177.5
12515.5
12420.9
12220.7
11927.1
11558.3
11131.8
10659.3
10183.5
9685.67
9182.77
8694
8238.77
7829.55
7485.68
7212.99
7017.26
6905.95
6880.69
6924.92
6963.53
7076.97
7348.48
7746.88
8246.48
8823.78
9452.66
10107.7
10768.8
11415.8
12028.5
12577.9
13045.1
13452.3
13830.7
14140.8
14385.3
14568.5
14695.3
14769.5
14793.9
14769.7
14696
14570.4
14390.9
14156.1
13864.4
13514.1
13100
12665.2
12172.2
11608.5
11011.3
10407.3
9817.28
9260.48
8755.1
8325.28
7991.48
7758.17
7635.93
7649.83
7614.32
7609.46
7658.34
7773.4
7951.68
8178.98
8448.52
8753.27
9083.68
9430.92
9786.93
10145
10500.5
10840
11151.2
11421.1
11635
11778.6
11842.9
6412.82
6313.66
6097.26
5777.32
5383.03
4943.61
4481.93
3998.68
3535.1
3099.67
2704.4
2360.09
2070.31
1880.24
1725.98
1610.3
1533.47
1494.86
1493.12
1525.47
1602.66
1748.64
1986.64
2321.03
2750.54
3259.05
3820.54
4419.85
5037.81
5657.53
6252.66
6760.39
7172.32
7593.52
7927.61
8189.24
8385
8519.98
8599.09
8626.37
8602.16
8523.77
8387.01
8188.25
7927.1
7605.74
7224.29
6778.5
6319.04
5771.12
5187.8
4601.7
4039.27
3517.32
3050.45
2647.19
2330.72
2108.17
1966.24
1895.05
1882.54
1896.66
1929.48
1979.28
2052.85
2160.8
2323.68
2521.68
2753.56
3014.27
3300.8
3611.04
3939.69
4280.47
4618.17
4934.91
5211.5
5431.9
5576.88
5641.3
1782.05
1724.42
1591.73
1400.24
1184.17
960.129
739.221
534.372
359.546
219.84
114.699
38.6741
-6.06877
-7.48805
-7.53593
-7.34996
-7.30211
-7.31707
-7.41272
-7.34489
-5.85233
1.02542
21.5317
67.3879
150.817
279.579
453.482
672.139
929.241
1224.21
1577.15
1910.94
2206.26
2475.84
2707.25
2887.48
3016.49
3100.27
3146.01
3161.47
3145.87
3097.68
3009.57
2874.71
2693.96
2470.5
2204.5
1910.39
1608.72
1272.21
983.511
732.484
518.869
346.163
213.858
118.328
58.3028
23.8148
4.18286
-4.62216
-5.83024
-6.0322
-6.24446
-6.53162
-6.21507
-3.82851
27.8021
70.58
126.186
195.729
281.058
385.111
509.552
652.225
805.938
957.178
1092.22
1203.29
1276.33
1306.58
26.3821
15.0214
4.87825
-4.90752
-7.3725
-7.8857
-7.96054
-8.02809
-8.11678
-8.15822
-8.08207
-7.89222
-7.5628
-7.7728
-7.85372
-7.87123
-7.86051
-7.86288
-7.87802
-7.8471
-7.80493
-7.763
-7.71822
-7.67907
-7.59234
-7.41241
-7.3163
-7.25156
-7.3085
-6.65628
7.86938
49.0913
86.6028
124.715
166.09
206.631
238.874
260.553
273.149
278.067
273.071
259.309
234.157
196.329
151.129
107.207
72.3459
45.9572
16.6411
-5.13854
-6.5216
-6.57766
-6.62357
-6.37266
-5.91129
-5.57255
-5.56483
-5.74036
-5.94762
-6.10712
-6.27771
-6.44244
-6.59213
-6.70736
-6.61666
-6.5105
-6.74259
-7.00429
-7.35494
-7.75255
-7.96563
-8.04581
-8.11409
-8.16464
-8.09526
-7.94506
-7.73611
-7.42815
-7.31634
-5.45254
-8.52913
-8.70317
-8.66197
-8.43198
-8.32119
-8.37036
-8.37996
-8.41503
-8.48148
-8.53753
-8.53272
-8.48632
-8.3984
-8.44184
-8.50324
-8.45552
-8.41788
-8.42339
-8.4842
-8.53434
-8.50846
-8.50319
-8.55879
-8.59625
-8.58611
-8.51866
-8.48397
-8.47189
-8.52063
-8.706
-9.02104
-9.07446
-8.67614
-8.68496
-9.05158
-9.39536
-9.56606
-9.60723
-9.63766
-9.68593
-9.77141
-9.85656
-9.99504
-10.2848
-10.7544
-11.0081
-10.1037
-9.04217
-9.04024
-8.47924
-8.201
-8.02977
-7.75067
-7.4936
-7.18095
-6.83235
-6.62272
-6.59781
-6.6703
-6.81326
-6.9847
-7.13015
-7.22172
-7.31523
-7.33917
-7.36442
-7.50791
-7.71823
-8.03366
-8.30841
-8.43467
-8.4757
-8.52829
-8.59749
-8.64896
-8.6764
-8.72274
-8.68917
-8.75744
-8.69608
-9.23207
-9.23248
-9.17788
-9.04059
-8.96181
-8.89843
-8.85533
-8.89784
-9.0192
-9.1327
-9.16621
-9.16299
-9.15999
-9.20874
-9.18388
-9.09614
-9.05332
-9.06102
-9.13305
-9.25376
-9.30806
-9.25764
-9.30074
-9.3549
-9.35362
-9.27132
-9.19669
-9.17873
-9.18787
-9.35462
-9.62616
-9.65236
-9.49332
-9.52749
-9.7543
-9.88916
-9.81388
-9.79441
-9.87077
-9.93264
-10.0151
-10.1212
-10.2465
-10.4392
-10.6995
-10.8442
-10.6212
-10.0314
-9.55943
-9.2355
-9.00909
-8.77044
-8.49213
-8.27234
-8.08437
-7.83564
-7.5818
-7.47126
-7.50375
-7.66732
-7.82624
-7.91721
-7.93457
-8.0049
-8.10314
-8.15893
-8.23222
-8.39692
-8.65131
-8.86531
-8.9997
-9.05867
-9.09251
-9.11289
-9.13094
-9.14215
-9.15726
-9.15876
-9.1749
-9.15193
-9.81471
-9.79698
-9.75723
-9.7012
-9.61013
-9.49597
-9.43095
-9.4713
-9.60211
-9.70968
-9.72955
-9.73373
-9.73412
-9.72975
-9.70591
-9.67517
-9.6817
-9.72328
-9.79885
-9.92488
-10.0341
-10.0476
-10.0498
-10.0681
-10.0639
-10.01
-9.90454
-9.83531
-9.81498
-9.89766
-10.0751
-10.2042
-10.3037
-10.4005
-10.5828
-10.608
-10.5493
-10.5451
-10.5935
-10.6076
-10.6247
-10.6963
-10.8214
-10.9904
-11.0853
-10.9192
-10.5441
-10.1774
-9.92538
-9.79866
-9.7161
-9.55068
-9.30702
-9.10729
-8.99649
-8.85768
-8.61314
-8.44235
-8.46455
-8.5862
-8.71271
-8.77901
-8.74716
-8.71013
-8.77485
-8.81695
-8.88418
-9.02809
-9.22304
-9.39054
-9.49066
-9.5696
-9.61983
-9.63321
-9.63151
-9.63639
-9.63713
-9.63784
-9.63944
-9.62007
-10.4504
-10.4235
-10.3805
-10.3667
-10.3145
-10.234
-10.1369
-10.1283
-10.2493
-10.2821
-10.305
-10.3313
-10.3546
-10.3399
-10.3111
-10.3424
-10.4025
-10.4744
-10.543
-10.6499
-10.7276
-10.7369
-10.7068
-10.6861
-10.6726
-10.6253
-10.5417
-10.4497
-10.3822
-10.4087
-10.5169
-10.6759
-10.8686
-10.9869
-11.0945
-11.0798
-11.0346
-11.0639
-11.0853
-11.1228
-11.174
-11.2356
-11.3003
-11.3442
-11.3029
-11.112
-10.7504
-10.4222
-10.2588
-10.2361
-10.2246
-10.151
-10.0005
-9.82947
-9.72618
-9.6669
-9.55084
-9.42402
-9.39822
-9.42146
-9.4606
-9.49797
-9.4917
-9.46221
-9.48141
-9.51085
-9.56998
-9.68594
-9.82617
-9.96476
-10.0642
-10.1435
-10.1904
-10.1716
-10.1477
-10.1392
-10.121
-10.1288
-10.1498
-10.1352
-11.0381
-11.0212
-11.0092
-11.0652
-11.1234
-11.078
-10.9074
-10.7972
-10.9039
-10.8938
-10.9103
-10.9449
-10.9838
-11.002
-11.0349
-11.1052
-11.1766
-11.2309
-11.2731
-11.3188
-11.3415
-11.3441
-11.3345
-11.3367
-11.3237
-11.2356
-11.1614
-11.0614
-10.9209
-10.8839
-10.9421
-11.1706
-11.397
-11.5078
-11.5853
-11.624
-11.6795
-11.7648
-11.8159
-11.8611
-11.942
-12.0117
-12.0284
-11.9559
-11.7688
-11.4556
-11.1021
-10.8267
-10.7053
-10.6948
-10.7043
-10.6614
-10.5664
-10.4528
-10.3615
-10.3155
-10.2763
-10.2094
-10.1434
-10.098
-10.0902
-10.1131
-10.1393
-10.1562
-10.1728
-10.2115
-10.2675
-10.3654
-10.4723
-10.5906
-10.6595
-10.7227
-10.7439
-10.6996
-10.6419
-10.5995
-10.5686
-10.6019
-10.6458
-10.6329
-11.5463
-11.543
-11.5748
-11.6829
-11.7964
-11.7911
-11.5991
-11.4359
-11.4831
-11.4804
-11.495
-11.515
-11.5413
-11.5942
-11.6864
-11.7962
-11.861
-11.88
-11.8896
-11.9077
-11.9327
-11.9654
-12.0184
-12.0826
-12.0593
-11.9181
-11.8408
-11.6969
-11.4824
-11.4082
-11.5105
-11.8071
-11.9956
-12.0755
-12.1339
-12.2023
-12.3023
-12.4331
-12.5755
-12.7297
-12.8596
-12.9191
-12.8657
-12.692
-12.4066
-12.0196
-11.6227
-11.3672
-11.2899
-11.2819
-11.2822
-11.2546
-11.195
-11.1161
-11.0365
-10.9713
-10.9114
-10.8456
-10.7747
-10.7227
-10.7061
-10.7209
-10.7491
-10.7706
-10.8012
-10.8678
-10.9541
-11.043
-11.1331
-11.21
-11.2575
-11.2802
-11.2276
-11.1919
-11.1203
-11.0648
-11.0955
-11.2163
-11.2638
-11.1848
-12.0515
-12.0663
-12.1128
-12.2193
-12.3184
-12.3318
-12.2
-12.0459
-12.0081
-12.0192
-12.0406
-12.0642
-12.0908
-12.1823
-12.3205
-12.4466
-12.495
-12.4828
-12.4827
-12.4974
-12.5492
-12.641
-12.7587
-12.8231
-12.7736
-12.632
-12.5202
-12.3441
-12.1123
-12.0396
-12.1838
-12.4686
-12.6277
-12.6596
-12.7041
-12.7962
-12.9483
-13.161
-13.4458
-13.7317
-13.925
-13.9752
-13.8833
-13.6577
-13.3228
-12.8884
-12.4084
-12.0888
-11.999
-11.9672
-11.9399
-11.9088
-11.8625
-11.7999
-11.7247
-11.6367
-11.5558
-11.4817
-11.4146
-11.3696
-11.3536
-11.3589
-11.3752
-11.3989
-11.4386
-11.5043
-11.5994
-11.6791
-11.7418
-11.8075
-11.8673
-11.8686
-11.8591
-11.862
-11.8528
-11.8248
-11.8246
-11.9001
-11.8646
-11.7547
-12.6262
-12.6761
-12.705
-12.7352
-12.8042
-12.838
-12.7671
-12.6057
-12.514
-12.558
-12.5852
-12.623
-12.7012
-12.8465
-13.024
-13.1331
-13.1327
-13.0806
-13.0757
-13.0994
-13.1977
-13.3308
-13.4206
-13.4446
-13.3885
-13.2654
-13.1381
-12.977
-12.7889
-12.7369
-12.8713
-13.1002
-13.211
-13.2198
-13.2675
-13.3863
-13.6157
-13.9801
-14.438
-14.8272
-15.0159
-15.0057
-14.8322
-14.5471
-14.2039
-13.8073
-13.2874
-12.86
-12.6913
-12.6305
-12.5737
-12.531
-12.4896
-12.4385
-12.3702
-12.2843
-12.2075
-12.1455
-12.0952
-12.0622
-12.0441
-12.0368
-12.0349
-12.0451
-12.0774
-12.133
-12.2055
-12.2751
-12.3286
-12.3836
-12.4399
-12.4794
-12.5235
-12.5475
-12.5893
-12.5911
-12.5241
-12.431
-12.279
-12.2641
-13.234
-13.3552
-13.3281
-13.2609
-13.3291
-13.4296
-13.3331
-13.1317
-13.0333
-13.0984
-13.1275
-13.1999
-13.3492
-13.5205
-13.7241
-13.8039
-13.7425
-13.6777
-13.6707
-13.7245
-13.8341
-13.9178
-13.9537
-13.9515
-13.8949
-13.7887
-13.6862
-13.5918
-13.4691
-13.4329
-13.5254
-13.6736
-13.7262
-13.7362
-13.7978
-13.9607
-14.3014
-14.837
-15.4415
-15.8425
-15.951
-15.853
-15.6076
-15.2728
-14.9131
-14.5574
-14.0991
-13.6187
-13.3447
-13.2576
-13.1874
-13.1357
-13.0965
-13.0524
-12.9972
-12.937
-12.885
-12.8436
-12.8061
-12.7717
-12.742
-12.7214
-12.7112
-12.7082
-12.7181
-12.7563
-12.8075
-12.8618
-12.9125
-12.9582
-12.9914
-13.011
-13.0268
-13.0391
-13.07
-13.0671
-12.9916
-12.8765
-12.7189
-12.7076
-13.7446
-13.904
-13.8413
-13.7105
-13.8203
-14.025
-13.8614
-13.6407
-13.6064
-13.6447
-13.671
-13.7902
-13.9837
-14.178
-14.3596
-14.3921
-14.3101
-14.2554
-14.2639
-14.3197
-14.3837
-14.4212
-14.4328
-14.4124
-14.3459
-14.2514
-14.1942
-14.187
-14.1541
-14.1216
-14.1418
-14.1904
-14.1888
-14.199
-14.2798
-14.5012
-14.9528
-15.6261
-16.3017
-16.6878
-16.7307
-16.5476
-16.2532
-15.8892
-15.508
-15.1623
-14.7998
-14.3674
-14.0551
-13.9112
-13.8257
-13.7671
-13.7274
-13.6887
-13.6453
-13.602
-13.5647
-13.526
-13.4876
-13.4532
-13.4242
-13.3982
-13.3744
-13.3622
-13.3568
-13.3727
-13.4103
-13.4558
-13.5054
-13.5472
-13.5454
-13.5174
-13.4904
-13.4772
-13.4688
-13.4345
-13.3662
-13.2892
-13.2008
-13.1298
-14.1135
-14.2219
-14.1666
-14.0479
-14.1544
-14.441
-14.3285
-14.1729
-14.213
-14.1963
-14.2219
-14.384
-14.5981
-14.7945
-14.9267
-14.9134
-14.8492
-14.8209
-14.8328
-14.8679
-14.9014
-14.9161
-14.9082
-14.8675
-14.7883
-14.6995
-14.6694
-14.7254
-14.7969
-14.7845
-14.7265
-14.6694
-14.5966
-14.6035
-14.7084
-14.9811
-15.4968
-16.2062
-16.8719
-17.2627
-17.3019
-17.1071
-16.7665
-16.3858
-16.0185
-15.6844
-15.3944
-15.0577
-14.782
-14.5934
-14.4826
-14.4131
-14.3683
-14.3312
-14.2954
-14.2558
-14.2137
-14.1712
-14.1296
-14.0948
-14.0708
-14.0508
-14.0296
-14.0072
-13.9921
-13.9885
-14.0149
-14.0589
-14.1236
-14.1953
-14.2006
-14.1524
-14.0644
-13.9775
-13.9135
-13.8614
-13.7788
-13.6974
-13.6514
-13.5556
-14.3881
-14.4735
-14.4031
-14.3045
-14.4263
-14.7684
-14.8131
-14.7668
-14.837
-14.7628
-14.7935
-14.9782
-15.1968
-15.3701
-15.4322
-15.4139
-15.3828
-15.3781
-15.3927
-15.4153
-15.4281
-15.4244
-15.3966
-15.3364
-15.2427
-15.1458
-15.1087
-15.1736
-15.2919
-15.3263
-15.2618
-15.1411
-15.0022
-14.9748
-15.0959
-15.4026
-15.9241
-16.5901
-17.1981
-17.5774
-17.6353
-17.4538
-17.1183
-16.7606
-16.4393
-16.1468
-15.8979
-15.6463
-15.4316
-15.2622
-15.1411
-15.0601
-15.0037
-14.9643
-14.9312
-14.8945
-14.8527
-14.8106
-14.7698
-14.7339
-14.7055
-14.6854
-14.673
-14.6589
-14.6446
-14.6307
-14.641
-14.6843
-14.7748
-14.8943
-14.9751
-14.9106
-14.7538
-14.5875
-14.4482
-14.3474
-14.2482
-14.1365
-14.0711
-14.0154
-14.7399
-14.8222
-14.7459
-14.708
-14.939
-15.3304
-15.4161
-15.4251
-15.4422
-15.3501
-15.3967
-15.5747
-15.7792
-15.8953
-15.9224
-15.9204
-15.9188
-15.9331
-15.9565
-15.9743
-15.9727
-15.95
-15.9028
-15.8246
-15.7136
-15.596
-15.5246
-15.5486
-15.6482
-15.7182
-15.6906
-15.5976
-15.475
-15.4052
-15.4995
-15.7989
-16.2877
-16.8924
-17.411
-17.7252
-17.7672
-17.6085
-17.3384
-17.0812
-16.8423
-16.6087
-16.3758
-16.1802
-16.0084
-15.8731
-15.7664
-15.6859
-15.6295
-15.5944
-15.5662
-15.5355
-15.5005
-15.4625
-15.4246
-15.3908
-15.3612
-15.3358
-15.3198
-15.3191
-15.3207
-15.3204
-15.3229
-15.3528
-15.4347
-15.5483
-15.6453
-15.5921
-15.4163
-15.215
-15.0427
-14.8919
-14.7693
-14.6321
-14.5424
-14.5192
-15.2588
-15.3376
-15.2821
-15.3456
-15.6878
-15.9667
-16.0283
-16.046
-16.0154
-15.9513
-16.0103
-16.1613
-16.3127
-16.3848
-16.4205
-16.4421
-16.466
-16.4988
-16.5326
-16.5525
-16.547
-16.5095
-16.4421
-16.3411
-16.2084
-16.066
-15.9554
-15.9223
-15.9693
-16.0386
-16.0557
-16.0095
-15.9426
-15.9061
-15.974
-16.2278
-16.6572
-17.1483
-17.557
-17.7817
-17.8071
-17.7213
-17.5871
-17.4517
-17.2894
-17.0871
-16.8717
-16.6987
-16.5551
-16.4388
-16.35
-16.2864
-16.2511
-16.2333
-16.2171
-16.1946
-16.1678
-16.1363
-16.1051
-16.0807
-16.0566
-16.0326
-16.0106
-16.0045
-16.0222
-16.0384
-16.048
-16.068
-16.1094
-16.167
-16.1967
-16.1428
-16.0024
-15.8157
-15.6381
-15.474
-15.3312
-15.1878
-15.0905
-15.0723
-15.9024
-15.9548
-15.9968
-16.1062
-16.3614
-16.483
-16.5416
-16.5634
-16.558
-16.5388
-16.5933
-16.7064
-16.8032
-16.877
-16.933
-16.9792
-17.0258
-17.074
-17.1181
-17.1439
-17.1388
-17.0974
-17.0154
-16.8915
-16.735
-16.5708
-16.4324
-16.3546
-16.3481
-16.3832
-16.41
-16.406
-16.3885
-16.3972
-16.4785
-16.6919
-17.0408
-17.4145
-17.7088
-17.8908
-18.0025
-18.0419
-18.0266
-17.9317
-17.7604
-17.5576
-17.361
-17.2015
-17.0789
-16.9803
-16.9116
-16.8832
-16.8839
-16.8921
-16.8921
-16.8795
-16.8644
-16.8517
-16.8522
-16.8616
-16.8693
-16.8604
-16.8266
-16.7844
-16.7746
-16.7825
-16.7842
-16.7934
-16.8113
-16.8209
-16.7918
-16.697
-16.5605
-16.4123
-16.2366
-16.0698
-15.9186
-15.78
-15.6821
-15.6592
-16.6137
-16.6738
-16.7667
-16.8831
-17.0147
-17.0238
-17.0052
-17.0585
-17.0867
-17.0921
-17.129
-17.2088
-17.3003
-17.3872
-17.4613
-17.5271
-17.5904
-17.653
-17.7115
-17.7505
-17.7565
-17.7204
-17.6349
-17.5024
-17.339
-17.1661
-17.0075
-16.8924
-16.8328
-16.8156
-16.8223
-16.8285
-16.8425
-16.8794
-16.9777
-17.1607
-17.4511
-17.7727
-18.0594
-18.3173
-18.5344
-18.657
-18.6251
-18.4355
-18.2085
-17.9985
-17.82
-17.6829
-17.5785
-17.5008
-17.4702
-17.5011
-17.5518
-17.5831
-17.5932
-17.5976
-17.614
-17.6441
-17.6883
-17.7437
-17.7915
-17.7965
-17.747
-17.6507
-17.5914
-17.593
-17.6005
-17.5864
-17.5621
-17.5331
-17.4649
-17.3349
-17.1679
-17.0181
-16.8499
-16.6817
-16.5293
-16.3917
-16.2903
-16.2637
-17.3567
-17.4365
-17.5387
-17.6609
-17.7261
-17.6614
-17.5714
-17.6261
-17.6278
-17.627
-17.6421
-17.7168
-17.8183
-17.9181
-18.0049
-18.0833
-18.1588
-18.2387
-18.3204
-18.3881
-18.421
-18.4057
-18.3291
-18.1974
-18.0363
-17.8625
-17.6942
-17.5425
-17.4266
-17.3541
-17.3181
-17.3079
-17.3236
-17.3709
-17.4731
-17.6442
-17.9143
-18.3073
-18.7346
-19.08
-19.3122
-19.3538
-19.1701
-18.8736
-18.6059
-18.389
-18.2338
-18.1276
-18.0481
-18.0064
-18.0394
-18.1605
-18.2767
-18.3232
-18.3364
-18.3627
-18.404
-18.456
-18.5135
-18.5739
-18.6231
-18.6347
-18.5846
-18.4968
-18.4806
-18.5275
-18.5627
-18.5177
-18.4253
-18.3247
-18.2077
-18.0437
-17.8376
-17.6545
-17.4959
-17.3191
-17.1609
-17.0182
-16.9056
-16.877
-18.0868
-18.1789
-18.2594
-18.3536
-18.3822
-18.3526
-18.2697
-18.2186
-18.1974
-18.1697
-18.1866
-18.2605
-18.3666
-18.4733
-18.57
-18.6602
-18.7644
-18.8837
-19.006
-19.1154
-19.1982
-19.2241
-19.1626
-19.0236
-18.84
-18.6389
-18.443
-18.2607
-18.0991
-17.969
-17.8745
-17.8226
-17.8163
-17.864
-17.9672
-18.1408
-18.419
-18.8577
-19.3468
-19.7085
-19.8924
-19.817
-19.5093
-19.1812
-18.9051
-18.7118
-18.5975
-18.5283
-18.4917
-18.5262
-18.6877
-18.9113
-19.0382
-19.0772
-19.0953
-19.1233
-19.1531
-19.1856
-19.2245
-19.2672
-19.3068
-19.3157
-19.267
-19.2222
-19.2585
-19.4005
-19.5166
-19.5089
-19.3869
-19.223
-19.0351
-18.8182
-18.5654
-18.3424
-18.1666
-17.9776
-17.8106
-17.6623
-17.5388
-17.5
-18.7747
-18.8831
-18.9039
-18.9313
-18.958
-19.0157
-18.9973
-18.8729
-18.8129
-18.7356
-18.7561
-18.8355
-18.9428
-19.0526
-19.1626
-19.2893
-19.4411
-19.6123
-19.79
-19.9577
-20.0905
-20.1538
-20.1174
-19.979
-19.7561
-19.4955
-19.2428
-19.0228
-18.8249
-18.6479
-18.4951
-18.3933
-18.3483
-18.3742
-18.4722
-18.641
-18.9004
-19.2684
-19.6579
-19.9493
-20.0376
-19.919
-19.6284
-19.3328
-19.1147
-18.9841
-18.9245
-18.8968
-18.9311
-19.0878
-19.3978
-19.703
-19.7531
-19.754
-19.7655
-19.7841
-19.8026
-19.8226
-19.8452
-19.8798
-19.9185
-19.9447
-19.9561
-19.9764
-19.9898
-20.1397
-20.3229
-20.3777
-20.29
-20.1295
-19.9041
-19.6232
-19.3249
-19.0646
-18.8474
-18.6477
-18.4763
-18.3298
-18.2082
-18.163
-19.3897
-19.6031
-19.5597
-19.5157
-19.5444
-19.6384
-19.7306
-19.6218
-19.4622
-19.3455
-19.3644
-19.4439
-19.5432
-19.6631
-19.8046
-19.9704
-20.1561
-20.371
-20.5942
-20.8079
-20.9814
-21.0824
-21.0725
-20.9394
-20.6814
-20.3634
-20.0582
-19.7959
-19.5659
-19.3659
-19.184
-19.0425
-18.9622
-18.9611
-19.0428
-19.2011
-19.4142
-19.6605
-19.884
-20.0252
-20.0314
-19.8987
-19.6732
-19.4619
-19.3276
-19.2626
-19.2461
-19.2621
-19.3962
-19.6532
-20.0566
-20.351
-20.3592
-20.3463
-20.3495
-20.3666
-20.3904
-20.418
-20.4516
-20.4949
-20.5279
-20.5943
-20.7318
-20.8082
-20.797
-20.9297
-21.0696
-21.0855
-21.0133
-20.8854
-20.6732
-20.3746
-20.0665
-19.795
-19.5535
-19.3451
-19.1628
-19.0229
-18.9156
-18.8781
-19.8901
-20.3321
-20.3203
-20.2106
-20.1209
-20.189
-20.3181
-20.2857
-20.0836
-19.9864
-20.0085
-20.0794
-20.1784
-20.3185
-20.4848
-20.6624
-20.8606
-21.0948
-21.3465
-21.5988
-21.824
-21.9792
-22.0095
-21.872
-21.5885
-21.2228
-20.867
-20.5642
-20.3031
-20.088
-19.9041
-19.7478
-19.6527
-19.6312
-19.7038
-19.8427
-19.998
-20.1491
-20.2546
-20.2781
-20.2033
-20.0451
-19.8679
-19.7196
-19.6326
-19.6034
-19.6063
-19.6854
-19.8976
-20.1971
-20.6635
-20.8631
-20.8786
-20.8846
-20.9034
-20.9367
-20.9817
-21.0343
-21.0853
-21.134
-21.165
-21.2346
-21.4042
-21.5119
-21.5025
-21.6619
-21.7334
-21.6801
-21.591
-21.482
-21.2979
-21.0346
-20.7594
-20.5051
-20.3009
-20.0882
-19.8892
-19.7441
-19.6394
-19.606
-20.2727
-20.7987
-21.003
-20.865
-20.6278
-20.5828
-20.6757
-20.7111
-20.6122
-20.606
-20.6545
-20.7316
-20.8448
-20.9912
-21.1546
-21.3308
-21.5199
-21.7366
-22.0014
-22.2869
-22.5529
-22.7503
-22.8145
-22.7093
-22.4314
-22.0521
-21.6664
-21.3271
-21.038
-20.8027
-20.6156
-20.4589
-20.3738
-20.3591
-20.4212
-20.5259
-20.6307
-20.7044
-20.7468
-20.7192
-20.6072
-20.4422
-20.2685
-20.1317
-20.0506
-20.0304
-20.0402
-20.2025
-20.448
-20.7959
-21.2074
-21.3327
-21.3733
-21.4028
-21.4467
-21.5061
-21.5823
-21.6662
-21.7319
-21.7758
-21.8118
-21.8611
-21.9602
-22.0268
-22.041
-22.1747
-22.2201
-22.1618
-22.0856
-22.0014
-21.857