/*--------------------------------*- C++ -*----------------------------------*\
| =========                 |                                                 |
| \\      /  F ield         | OpenFOAM: The Open Source CFD Toolbox           |
|  \\    /   O peration     | Version:  2412                                  |
|   \\  /    A nd           | Website:  www.openfoam.com                      |
|    \\/     M anipulation  |                                                 |
\*---------------------------------------------------------------------------*/
FoamFile
{
    version     2.0;
    format      ascii;
    arch        "LSB;label=32;scalar=64";
    class       surfaceScalarField;
    location    "7.9";
    object      alphaPhi0.oil;
}
// * * * * * * * * * * * * * * * * * * * * * * * * * * * * * * * * * * * * * //

dimensions      [0 3 -1 0 0 0 0];

oriented        oriented;

internalField   nonuniform List<scalar> 
12640
(
2.8599e-08
-2.85096e-08
5.72178e-08
-2.64549e-08
6.00242e-08
-8.66539e-10
3.23324e-08
2.97833e-08
-2.14556e-08
5.60581e-08
-9.4339e-08
7.48605e-08
-1.78112e-07
8.57683e-08
-2.65963e-07
8.99873e-08
-3.52659e-07
8.8865e-08
-4.34482e-07
8.39309e-08
-5.09239e-07
7.67967e-08
-5.7572e-07
6.84442e-08
-6.33486e-07
5.96123e-08
-6.8276e-07
5.09974e-08
-7.23896e-07
4.27359e-08
-7.57241e-07
3.47518e-08
-7.833e-07
2.71723e-08
-8.02673e-07
2.01786e-08
-8.15878e-07
1.38003e-08
-8.23324e-07
7.95144e-09
-8.25335e-07
2.45838e-09
-8.22199e-07
-2.81422e-09
-8.14156e-07
-7.95012e-09
-8.01388e-07
-1.29678e-08
-7.84025e-07
-1.7849e-08
-7.62105e-07
-2.26373e-08
-7.35566e-07
-2.7433e-08
-7.04263e-07
-3.23474e-08
-6.68034e-07
-3.74226e-08
-6.26706e-07
-4.26714e-08
-5.80127e-07
-4.80669e-08
-5.28178e-07
-5.35812e-08
-4.70789e-07
-5.916e-08
-4.07997e-07
-6.46933e-08
-3.39977e-07
-7.00263e-08
-2.67128e-07
-7.49311e-08
-1.90043e-07
-7.92209e-08
-1.09482e-07
-8.27377e-08
-2.64109e-08
-8.52898e-08
5.79946e-08
-8.66671e-08
1.42516e-07
-8.68228e-08
2.25958e-07
-8.57724e-08
3.07094e-07
-8.3478e-08
3.84927e-07
-8.01662e-08
4.58568e-07
-7.59488e-08
5.27193e-07
-7.0893e-08
5.90266e-07
-6.52896e-08
6.47461e-07
-5.93539e-08
6.98693e-07
-5.33295e-08
7.44048e-07
-4.73776e-08
7.83604e-07
-4.14867e-08
8.17507e-07
-3.5724e-08
8.45968e-07
-3.0159e-08
8.69097e-07
-2.47015e-08
8.87013e-07
-1.93565e-08
8.99789e-07
-1.40757e-08
9.07434e-07
-8.79142e-09
9.09896e-07
-3.43953e-09
9.07055e-07
2.04524e-09
8.98782e-07
7.66011e-09
8.84901e-07
1.34599e-08
8.65141e-07
1.9533e-08
8.39171e-07
2.5936e-08
8.06614e-07
3.27144e-08
7.67058e-07
3.99111e-08
7.20044e-07
4.75777e-08
6.65097e-07
5.57323e-08
6.01931e-07
6.41823e-08
5.30533e-07
7.26349e-08
4.51357e-07
8.06122e-08
3.65601e-07
8.73705e-08
2.75512e-07
9.1866e-08
1.84761e-07
9.26877e-08
9.86547e-08
8.82084e-08
2.40667e-08
7.68663e-08
-3.11819e-08
5.77155e-08
-5.97657e-08
3.12527e-08
-5.74109e-08
5.26015e-10
-2.91484e-08
-2.52177e-08
-2.63367e-08
2.82026e-08
-5.45178e-08
3.48793e-08
-2.92021e-08
-1.989e-08
5.77785e-08
-1.42741e-07
1.56312e-07
-3.24291e-07
2.41456e-07
-5.48732e-07
3.03058e-07
-7.98347e-07
3.39194e-07
-1.05726e-06
3.52762e-07
-1.31282e-06
3.48216e-07
-1.55579e-06
3.3055e-07
-1.78001e-06
3.04517e-07
-1.98175e-06
2.7356e-07
-2.1594e-06
2.40435e-07
-2.31285e-06
2.07317e-07
-2.44268e-06
1.75065e-07
-2.54953e-06
1.43764e-07
-2.63423e-06
1.13704e-07
-2.69781e-06
8.52477e-08
-2.74136e-06
5.84791e-08
-2.76594e-06
3.32475e-08
-2.7724e-06
9.21346e-09
-2.76142e-06
-1.39377e-08
-2.73351e-06
-3.64352e-08
-2.68907e-06
-5.84041e-08
-2.62836e-06
-7.99036e-08
-2.55158e-06
-1.01087e-07
-2.45875e-06
-1.2221e-07
-2.34979e-06
-1.43541e-07
-2.2245e-06
-1.65235e-07
-2.08262e-06
-1.87342e-07
-1.92397e-06
-2.09787e-07
-1.74844e-06
-2.32411e-07
-1.55617e-06
-2.54921e-07
-1.34764e-06
-2.76894e-07
-1.12369e-06
-2.9777e-07
-8.85679e-07
-3.16842e-07
-6.35474e-07
-3.33419e-07
-3.75434e-07
-3.46849e-07
-1.0839e-07
-3.56472e-07
1.62417e-07
-3.61666e-07
4.33494e-07
-3.62126e-07
7.01356e-07
-3.57868e-07
9.62646e-07
-3.48983e-07
1.21434e-06
-3.36035e-07
1.4538e-06
-3.19514e-07
1.67876e-06
-2.9988e-07
1.88746e-06
-2.77917e-07
2.07868e-06
-2.54389e-07
2.25181e-06
-2.3012e-07
2.40663e-06
-2.05702e-07
2.5432e-06
-1.81368e-07
2.66167e-06
-1.57298e-07
2.76224e-06
-1.33614e-07
2.84519e-06
-1.10269e-07
2.91063e-06
-8.7136e-08
2.95856e-06
-6.40732e-08
2.989e-06
-4.09649e-08
3.00176e-06
-1.76204e-08
2.9966e-06
6.13492e-09
2.9732e-06
3.03318e-08
2.93112e-06
5.51662e-08
2.8698e-06
8.08509e-08
2.78851e-06
1.07587e-07
2.68649e-06
1.35495e-07
2.56289e-06
1.64667e-07
2.4169e-06
1.95126e-07
2.24779e-06
2.26788e-07
2.05531e-06
2.5898e-07
1.84005e-06
2.90577e-07
1.60384e-06
3.19823e-07
1.35036e-06
3.44167e-07
1.08576e-06
3.60096e-07
8.1932e-07
3.63075e-07
5.63682e-07
3.48131e-07
3.34512e-07
3.10668e-07
1.49107e-07
2.48062e-07
2.35268e-08
1.61997e-07
-3.30555e-08
6.23591e-08
-2.7484e-08
-2.58353e-08
-5.19834e-08
3.81535e-09
-5.61232e-08
-5.00354e-08
2.77778e-08
-1.9386e-07
2.04603e-07
-4.30107e-07
3.9562e-07
-7.44755e-07
5.59246e-07
-1.11617e-06
6.77337e-07
-1.52058e-06
7.46405e-07
-1.93643e-06
7.71393e-07
-2.346e-06
7.60486e-07
-2.73612e-06
7.23222e-07
-3.09767e-06
6.68506e-07
-3.42479e-06
6.03056e-07
-3.71457e-06
5.3255e-07
-3.96633e-06
4.61331e-07
-4.18048e-06
3.91374e-07
-4.35778e-06
3.23055e-07
-4.4992e-06
2.56816e-07
-4.60594e-06
1.93218e-07
-4.67933e-06
1.32587e-07
-4.72069e-06
7.48674e-08
-4.73116e-06
1.96001e-08
-4.71166e-06
-3.37703e-08
-4.66292e-06
-8.57342e-08
-4.58552e-06
-1.36607e-07
-4.47991e-06
-1.86562e-07
-4.34646e-06
-2.35846e-07
-4.18539e-06
-2.84852e-07
-3.99675e-06
-3.33996e-07
-3.78044e-06
-3.83585e-07
-3.53632e-06
-4.33725e-07
-3.26426e-06
-4.84289e-07
-2.96436e-06
-5.34901e-07
-2.63709e-06
-5.84916e-07
-2.2834e-06
-6.33428e-07
-1.90489e-06
-6.79238e-07
-1.50384e-06
-7.20935e-07
-1.08332e-06
-7.57054e-07
-6.47206e-07
-7.86127e-07
-2.00057e-07
-8.06816e-07
2.52988e-07
-8.17921e-07
7.06445e-07
-8.188e-07
1.15473e-06
-8.0937e-07
1.59251e-06
-7.8996e-07
2.01492e-06
-7.61609e-07
2.41766e-06
-7.25358e-07
2.79712e-06
-6.82385e-07
3.15046e-06
-6.34204e-07
3.47559e-06
-5.82378e-07
3.77126e-06
-5.28525e-07
4.03686e-06
-4.73906e-07
4.27223e-06
-4.19191e-07
4.47741e-06
-3.64763e-07
4.65252e-06
-3.108e-07
4.79771e-06
-2.57323e-07
4.91307e-06
-2.04125e-07
4.99857e-06
-1.50962e-07
5.05404e-06
-9.75914e-08
5.07927e-06
-4.37412e-08
5.07391e-06
1.08614e-08
5.03752e-06
6.63762e-08
4.9695e-06
1.23132e-07
4.86911e-06
1.81496e-07
4.73546e-06
2.41797e-07
4.5676e-06
3.04218e-07
4.36454e-06
3.68867e-07
4.1254e-06
4.35677e-07
3.84959e-06
5.04272e-07
3.53724e-06
5.73267e-07
3.18971e-06
6.40286e-07
2.81023e-06
7.01729e-07
2.40455e-06
7.52512e-07
1.98178e-06
7.85765e-07
1.55507e-06
7.92926e-07
1.14183e-06
7.64756e-07
7.63229e-07
6.92908e-07
4.42498e-07
5.72663e-07
2.01471e-07
4.07051e-07
5.42275e-08
2.13622e-07
-2.31534e-09
3.40342e-08
-5.33076e-08
-2.64395e-08
-2.80364e-08
-1.50813e-07
1.54554e-07
-3.91893e-07
4.47664e-07
-7.43931e-07
7.49674e-07
-1.18698e-06
1.00431e-06
-1.69447e-06
1.1865e-06
-2.23817e-06
1.29168e-06
-2.79255e-06
1.32731e-06
-3.33659e-06
1.30596e-06
-3.85456e-06
1.24247e-06
-4.33535e-06
1.15048e-06
-4.77153e-06
1.04046e-06
-5.15904e-06
9.21369e-07
-5.49656e-06
8.00188e-07
-5.78435e-06
6.80508e-07
-6.02335e-06
5.63354e-07
-6.21465e-06
4.49307e-07
-6.35941e-06
3.38946e-07
-6.45893e-06
2.32788e-07
-6.51463e-06
1.30951e-07
-6.52776e-06
3.29088e-08
-6.49945e-06
-6.20623e-08
-6.43061e-06
-1.5468e-07
-6.32202e-06
-2.45453e-07
-6.17434e-06
-3.34683e-07
-5.9881e-06
-4.22718e-07
-5.7637e-06
-5.10078e-07
-5.50136e-06
-5.97318e-07
-5.20119e-06
-6.84887e-07
-4.86322e-06
-7.72975e-07
-4.48747e-06
-8.61436e-07
-4.07422e-06
-9.49656e-07
-3.62417e-06
-1.03656e-06
-3.13867e-06
-1.12061e-06
-2.61988e-06
-1.1998e-06
-2.07091e-06
-1.27175e-06
-1.49597e-06
-1.33391e-06
-9.00266e-07
-1.38378e-06
-2.89919e-07
-1.41915e-06
3.28253e-07
-1.43809e-06
9.46992e-07
-1.43954e-06
1.55888e-06
-1.42327e-06
2.15671e-06
-1.3898e-06
2.7339e-06
-1.34079e-06
3.28465e-06
-1.27809e-06
3.80423e-06
-1.2039e-06
4.28888e-06
-1.12073e-06
4.73581e-06
-1.03114e-06
5.14322e-06
-9.37687e-07
5.51012e-06
-8.42473e-07
5.83613e-06
-7.46766e-07
6.12117e-06
-6.51267e-07
6.3653e-06
-5.56262e-07
6.56851e-06
-4.61725e-07
6.73078e-06
-3.67445e-07
6.85199e-06
-2.73074e-07
6.93187e-06
-1.78227e-07
6.97008e-06
-8.2541e-08
6.96617e-06
1.43498e-08
6.91955e-06
1.12749e-07
6.82953e-06
2.13092e-07
6.6953e-06
3.15868e-07
6.51592e-06
4.21505e-07
6.29041e-06
5.30257e-07
6.01779e-06
6.42192e-07
5.69727e-06
7.5705e-07
5.32858e-06
8.73976e-07
4.91227e-06
9.90742e-07
4.45038e-06
1.1035e-06
3.94713e-06
1.20646e-06
3.40973e-06
1.29156e-06
2.84927e-06
1.34803e-06
2.28146e-06
1.36267e-06
1.72688e-06
1.32138e-06
1.21047e-06
1.21143e-06
7.59823e-07
1.02548e-06
4.01713e-07
7.67381e-07
1.5598e-07
4.61406e-07
2.79923e-08
1.63803e-07
-2.51995e-08
-5.46448e-08
2.76793e-08
-2.46444e-07
3.47741e-07
-5.80357e-07
7.82452e-07
-1.04103e-06
1.21123e-06
-1.60177e-06
1.56586e-06
-2.231e-06
1.81618e-06
-2.89672e-06
1.95771e-06
-3.57034e-06
2.00119e-06
-4.22851e-06
1.96425e-06
-4.85393e-06
1.86776e-06
-5.43446e-06
1.73061e-06
-5.96165e-06
1.56724e-06
-6.43068e-06
1.39008e-06
-6.83961e-06
1.20894e-06
-7.18848e-06
1.02941e-06
-7.47844e-06
8.53507e-07
-7.71062e-06
6.81925e-07
-7.88629e-06
5.15093e-07
-8.00663e-06
3.53618e-07
-8.07299e-06
1.97753e-07
-8.08676e-06
4.7053e-08
-8.0492e-06
-9.9284e-08
-7.96146e-06
-2.42114e-07
-7.82454e-06
-3.82121e-07
-7.63926e-06
-5.19765e-07
-7.40635e-06
-6.55505e-07
-7.12639e-06
-7.89988e-07
-6.79982e-06
-9.2389e-07
-6.42698e-06
-1.05776e-06
-6.00811e-06
-1.19194e-06
-5.54336e-06
-1.32633e-06
-5.03305e-06
-1.46016e-06
-4.47796e-06
-1.59189e-06
-3.87964e-06
-1.7192e-06
-3.24063e-06
-1.83913e-06
-2.56471e-06
-1.94805e-06
-1.85702e-06
-2.04202e-06
-1.12394e-06
-2.11732e-06
-3.72941e-07
-2.17062e-06
3.87686e-07
-2.1992e-06
1.14907e-06
-2.20143e-06
1.90217e-06
-2.17687e-06
2.6381e-06
-2.12625e-06
3.34869e-06
-2.0519e-06
4.02684e-06
-1.95673e-06
4.66677e-06
-1.84431e-06
5.26398e-06
-1.7184e-06
5.81521e-06
-1.58279e-06
6.31835e-06
-1.44122e-06
6.7722e-06
-1.29669e-06
7.17626e-06
-1.15117e-06
7.53043e-06
-1.00574e-06
7.83469e-06
-8.60794e-07
8.08898e-06
-7.16246e-07
8.29312e-06
-5.71772e-07
8.44679e-06
-4.26892e-07
8.54955e-06
-2.811e-07
8.60083e-06
-1.33918e-07
8.60003e-06
1.50964e-08
8.54643e-06
1.66319e-07
8.43928e-06
3.20262e-07
8.27771e-06
4.77499e-07
8.06079e-06
6.38538e-07
7.7876e-06
8.03617e-07
7.45731e-06
9.72694e-07
7.06935e-06
1.14525e-06
6.62364e-06
1.31995e-06
6.12106e-06
1.49362e-06
5.56408e-06
1.66081e-06
4.95757e-06
1.81339e-06
4.3095e-06
1.94008e-06
3.63218e-06
2.02587e-06
2.94297e-06
2.05241e-06
2.26477e-06
2.00008e-06
1.6255e-06
1.85108e-06
1.05659e-06
1.59463e-06
5.896e-07
1.23453e-06
2.50816e-07
8.00075e-07
5.59853e-08
3.58722e-07
2.96543e-08
-7.84455e-08
1.06728e-07
-3.29745e-07
5.99287e-07
-7.47e-07
1.19947e-06
-1.30548e-06
1.76947e-06
-1.97137e-06
2.2314e-06
-2.7079e-06
2.55196e-06
-3.4794e-06
2.72831e-06
-4.2547e-06
2.77555e-06
-5.00861e-06
2.71708e-06
-5.72291e-06
2.58063e-06
-6.38501e-06
2.39086e-06
-6.98629e-06
2.16642e-06
-7.52141e-06
1.92313e-06
-7.98802e-06
1.67362e-06
-8.38597e-06
1.42568e-06
-8.7163e-06
1.18252e-06
-8.98031e-06
9.4499e-07
-9.17932e-06
7.13474e-07
-9.31461e-06
4.88512e-07
-9.38749e-06
2.70399e-07
-9.3994e-06
5.88512e-08
-9.35179e-06
-1.469e-07
-9.24601e-06
-3.47772e-07
-9.0833e-06
-5.44598e-07
-8.86471e-06
-7.38e-07
-8.5912e-06
-9.28557e-07
-8.26362e-06
-1.11703e-06
-7.88267e-06
-1.30421e-06
-7.44893e-06
-1.49076e-06
-6.96283e-06
-1.67721e-06
-6.42457e-06
-1.86371e-06
-5.8344e-06
-2.04938e-06
-5.19301e-06
-2.23227e-06
-4.50189e-06
-2.40925e-06
-3.76375e-06
-2.57616e-06
-2.98279e-06
-2.72787e-06
-2.16481e-06
-2.85883e-06
-1.31719e-06
-2.96376e-06
-4.4857e-07
-3.03805e-06
4.31388e-07
-3.07794e-06
1.31237e-06
-3.08117e-06
2.18382e-06
-3.04705e-06
3.03539e-06
-2.97653e-06
3.8575e-06
-2.87269e-06
4.64185e-06
-2.73973e-06
5.38165e-06
-2.58272e-06
6.07191e-06
-2.40724e-06
6.70909e-06
-2.21852e-06
7.29101e-06
-2.02167e-06
7.81659e-06
-1.8208e-06
8.28548e-06
-1.6186e-06
8.69762e-06
-1.41645e-06
9.05298e-06
-1.21476e-06
9.35135e-06
-1.01328e-06
9.59237e-06
-8.11498e-07
9.77544e-06
-6.08732e-07
9.89981e-06
-4.04334e-07
9.96465e-06
-1.9773e-07
9.96912e-06
1.15486e-08
9.91232e-06
2.23914e-07
9.79336e-06
4.39883e-07
9.61138e-06
6.60026e-07
9.36547e-06
8.84858e-07
9.05482e-06
1.11457e-06
8.67877e-06
1.34892e-06
8.23691e-06
1.58716e-06
7.72934e-06
1.82742e-06
7.15716e-06
2.06559e-06
6.52297e-06
2.2947e-06
5.83173e-06
2.5042e-06
5.09185e-06
2.67945e-06
4.31628e-06
2.80079e-06
3.52353e-06
2.84433e-06
2.7383e-06
2.78425e-06
1.9912e-06
2.59684e-06
1.31738e-06
2.26688e-06
7.53336e-07
1.7968e-06
3.32351e-07
1.21893e-06
7.96808e-08
6.09557e-07
1.06975e-07
-9.8115e-08
2.04833e-07
-4.00987e-07
9.01374e-07
-8.92231e-07
1.68955e-06
-1.53853e-06
2.41466e-06
-2.29885e-06
2.99057e-06
-3.13085e-06
3.38246e-06
-3.99517e-06
3.59103e-06
-4.85816e-06
3.63698e-06
-5.693e-06
3.55045e-06
-6.48088e-06
3.36681e-06
-7.20932e-06
3.11704e-06
-7.87011e-06
2.82449e-06
-8.45792e-06
2.50801e-06
-8.97021e-06
2.18298e-06
-9.4066e-06
1.85931e-06
-9.768e-06
1.54146e-06
-1.00557e-05
1.23066e-06
-1.02712e-05
9.27259e-07
-1.04157e-05
6.31732e-07
-1.04908e-05
3.44428e-07
-1.0498e-05
6.51994e-08
-1.04389e-05
-2.06619e-07
-1.0315e-05
-4.71964e-07
-1.0128e-05
-7.31761e-07
-9.87911e-06
-9.86749e-07
-9.56966e-06
-1.23762e-06
-9.20086e-06
-1.48524e-06
-8.77375e-06
-1.7305e-06
-8.28921e-06
-1.97426e-06
-7.74784e-06
-2.21734e-06
-7.14986e-06
-2.46028e-06
-6.49535e-06
-2.70234e-06
-5.78468e-06
-2.94124e-06
-5.01901e-06
-3.17308e-06
-4.20088e-06
-3.39231e-06
-3.3346e-06
-3.59205e-06
-2.42645e-06
-3.7648e-06
-1.48459e-06
-3.90337e-06
-5.18756e-07
-4.00157e-06
4.60097e-07
-4.05441e-06
1.44029e-06
-4.05892e-06
2.40987e-06
-4.01413e-06
3.35717e-06
-3.92131e-06
4.27134e-06
-3.7843e-06
5.14293e-06
-3.60869e-06
5.96434e-06
-3.40147e-06
6.73008e-06
-3.17026e-06
7.43666e-06
-2.92237e-06
8.08222e-06
-2.66447e-06
8.66606e-06
-2.40188e-06
9.1882e-06
-2.13799e-06
9.6488e-06
-1.87437e-06
1.00479e-05
-1.61119e-06
1.03849e-05
-1.34784e-06
1.06594e-05
-1.08345e-06
1.08701e-05
-8.17111e-07
1.1016e-05
-5.48032e-07
1.10959e-05
-2.75556e-07
1.11085e-05
7.41038e-10
1.10529e-05
2.81221e-07
1.09278e-05
5.66365e-07
1.07323e-05
8.56635e-07
1.04656e-05
1.15247e-06
1.0127e-05
1.4539e-06
9.71583e-06
1.76047e-06
9.23201e-06
2.07117e-06
8.67575e-06
2.3836e-06
8.04811e-06
2.69293e-06
7.3515e-06
2.99077e-06
6.59076e-06
3.2642e-06
5.7743e-06
3.49495e-06
4.91541e-06
3.65846e-06
4.03344e-06
3.72474e-06
3.15462e-06
3.66109e-06
2.31213e-06
3.437e-06
1.5449e-06
3.03156e-06
8.94665e-07
2.44423e-06
4.01796e-07
1.70857e-06
9.90072e-08
9.09203e-07
2.03807e-07
-1.15125e-07
3.19298e-07
-4.64271e-07
1.24912e-06
-1.02368e-06
2.24734e-06
-1.75185e-06
3.14136e-06
-2.60021e-06
3.83764e-06
-3.52026e-06
4.30109e-06
-4.46889e-06
4.53818e-06
-5.40982e-06
4.57667e-06
-6.31487e-06
4.45475e-06
-7.16481e-06
4.21624e-06
-7.94764e-06
3.89905e-06
-8.65608e-06
3.53156e-06
-9.28545e-06
3.13558e-06
-9.83337e-06
2.72884e-06
-1.02993e-05
2.32314e-06
-1.06839e-05
1.92415e-06
-1.09885e-05
1.53353e-06
-1.12143e-05
1.15173e-06
-1.13628e-05
7.79228e-07
-1.14357e-05
4.16513e-07
-1.14347e-05
6.36111e-08
-1.13617e-05
-2.8004e-07
-1.12186e-05
-6.15356e-07
-1.10072e-05
-9.4331e-07
-1.07291e-05
-1.26468e-06
-1.03862e-05
-1.58021e-06
-9.98006e-06
-1.8908e-06
-9.51234e-06
-2.19752e-06
-8.98427e-06
-2.50145e-06
-8.39669e-06
-2.80385e-06
-7.74988e-06
-3.1059e-06
-7.0436e-06
-3.40731e-06
-6.27766e-06
-3.70577e-06
-5.45253e-06
-3.99667e-06
-4.57017e-06
-4.27301e-06
-3.6347e-06
-4.52577e-06
-2.65266e-06
-4.74501e-06
-1.63292e-06
-4.92123e-06
-5.86264e-07
-5.0463e-06
4.75126e-07
-5.11384e-06
1.53823e-06
-5.12002e-06
2.58977e-06
-5.0636e-06
3.61679e-06
-4.94627e-06
4.60731e-06
-4.77272e-06
5.55074e-06
-4.55008e-06
6.43882e-06
-4.28751e-06
7.26573e-06
-3.99508e-06
8.02826e-06
-3.68278e-06
8.72524e-06
-3.35933e-06
9.35676e-06
-3.03127e-06
9.92345e-06
-2.70256e-06
1.04258e-05
-2.37467e-06
1.08639e-05
-2.04723e-06
1.12369e-05
-1.71889e-06
1.15436e-05
-1.38824e-06
1.17823e-05
-1.05399e-06
1.19514e-05
-7.1529e-07
1.20491e-05
-3.71555e-07
1.20738e-05
-2.24713e-08
1.20242e-05
3.32232e-07
1.18989e-05
6.9288e-07
1.16967e-05
1.05978e-06
1.14167e-05
1.43316e-06
1.10584e-05
1.81277e-06
1.06213e-05
2.19787e-06
1.01054e-05
2.58713e-06
9.51108e-06
2.97785e-06
8.83908e-06
3.36461e-06
8.0916e-06
3.73777e-06
7.27297e-06
4.08218e-06
6.39133e-06
4.37577e-06
5.45997e-06
4.58877e-06
4.4988e-06
4.68455e-06
3.53543e-06
4.62276e-06
2.60552e-06
4.36496e-06
1.75201e-06
3.8831e-06
1.0223e-06
3.17183e-06
4.63509e-07
2.2649e-06
1.14864e-07
1.25548e-06
3.18951e-07
-1.31366e-07
4.49622e-07
-5.25837e-07
1.64227e-06
-1.15313e-06
2.87326e-06
-1.96307e-06
3.95016e-06
-2.89875e-06
4.77263e-06
-3.90458e-06
5.30645e-06
-4.93342e-06
5.56651e-06
-5.94643e-06
5.58944e-06
-6.91444e-06
5.42335e-06
-7.81817e-06
5.12147e-06
-8.64635e-06
4.72905e-06
-9.393e-06
4.27975e-06
-1.00548e-05
3.79837e-06
-1.063e-05
3.30457e-06
-1.11181e-05
2.81138e-06
-1.15194e-05
2.32549e-06
-1.18347e-05
1.84903e-06
-1.20655e-05
1.3827e-06
-1.2213e-05
9.27111e-07
-1.22791e-05
4.83092e-07
-1.22659e-05
5.09312e-08
-1.21756e-05
-3.69781e-07
-1.20105e-05
-7.79963e-07
-1.17728e-05
-1.18065e-06
-1.14645e-05
-1.57256e-06
-1.1088e-05
-1.95631e-06
-1.06457e-05
-2.33274e-06
-1.01399e-05
-2.70301e-06
-9.57233e-06
-3.0686e-06
-8.94441e-06
-3.43141e-06
-8.2564e-06
-3.79358e-06
-7.50772e-06
-4.1557e-06
-6.69727e-06
-4.51599e-06
-5.82436e-06
-4.86938e-06
-4.88995e-06
-5.20723e-06
-3.89764e-06
-5.51789e-06
-2.8541e-06
-5.78836e-06
-1.76884e-06
-6.00632e-06
-6.53692e-07
-6.16133e-06
4.77969e-07
-6.24543e-06
1.61184e-06
-6.25386e-06
2.73329e-06
-6.18511e-06
3.82814e-06
-6.04122e-06
4.88313e-06
-5.82789e-06
5.88675e-06
-5.55392e-06
6.83002e-06
-5.23106e-06
7.70712e-06
-4.87248e-06
8.51537e-06
-4.49137e-06
9.25473e-06
-4.09902e-06
9.92651e-06
-3.70337e-06
1.05322e-05
-3.30861e-06
1.10729e-05
-2.91562e-06
1.15483e-05
-2.52299e-06
1.19574e-05
-2.12824e-06
1.22978e-05
-1.72901e-06
1.25672e-05
-1.32357e-06
1.27628e-05
-9.11074e-07
1.28824e-05
-4.91334e-07
1.29241e-05
-6.42745e-08
1.28861e-05
3.70217e-07
1.27666e-05
8.12267e-07
1.25643e-05
1.26196e-06
1.22781e-05
1.7192e-06
1.19074e-05
2.18325e-06
1.14521e-05
2.65297e-06
1.09122e-05
3.12671e-06
1.02882e-05
3.60158e-06
9.58072e-06
4.07185e-06
8.79127e-06
4.52698e-06
7.92353e-06
4.9497e-06
6.98492e-06
5.31418e-06
5.98832e-06
5.58514e-06
4.95383e-06
5.71874e-06
3.91012e-06
5.66605e-06
2.89542e-06
5.37929e-06
1.95694e-06
4.82149e-06
1.1481e-06
3.98068e-06
5.23106e-07
2.88982e-06
1.29552e-07
1.64992e-06
4.51684e-07
-1.49014e-07
5.97659e-07
-5.93301e-07
2.08595e-06
-1.29483e-06
3.57433e-06
-2.19297e-06
4.84806e-06
-3.22122e-06
5.80105e-06
-4.31542e-06
6.40152e-06
-5.4239e-06
6.67569e-06
-6.50562e-06
6.67165e-06
-7.53118e-06
6.44997e-06
-8.48203e-06
6.07453e-06
-9.34826e-06
5.59845e-06
-1.01255e-05
5.0604e-06
-1.08121e-05
4.48818e-06
-1.14075e-05
3.90251e-06
-1.19113e-05
3.31711e-06
-1.23235e-05
2.73916e-06
-1.26443e-05
2.17121e-06
-1.28746e-05
1.61433e-06
-1.30159e-05
1.06964e-06
-1.30702e-05
5.38531e-07
-1.30399e-05
2.18001e-08
-1.2928e-05
-4.80747e-07
-1.27369e-05
-9.70152e-07
-1.24694e-05
-1.44762e-06
-1.21279e-05
-1.91373e-06
-1.17153e-05
-2.36872e-06
-1.1235e-05
-2.81299e-06
-1.06905e-05
-3.2477e-06
-1.00846e-05
-3.6748e-06
-9.41915e-06
-4.09725e-06
-8.6947e-06
-4.51857e-06
-7.91022e-06
-4.94098e-06
-7.06328e-06
-5.36385e-06
-6.1515e-06
-5.78221e-06
-5.17437e-06
-6.18559e-06
-4.13462e-06
-6.55895e-06
-3.0389e-06
-6.88547e-06
-1.89738e-06
-7.14929e-06
-7.2295e-07
-7.33728e-06
4.69783e-07
-7.43975e-06
1.66529e-06
-7.45099e-06
2.84771e-06
-7.36917e-06
4.00161e-06
-7.19679e-06
5.1125e-06
-6.9405e-06
6.16781e-06
-6.61101e-06
7.15788e-06
-6.22297e-06
8.07695e-06
-5.79346e-06
8.92337e-06
-5.33974e-06
9.69871e-06
-4.87631e-06
1.0406e-05
-4.41264e-06
1.10481e-05
-3.95264e-06
1.16264e-05
-3.49585e-06
1.21406e-05
-3.03908e-06
1.25886e-05
-2.57812e-06
1.2967e-05
-2.10927e-06
1.32718e-05
-1.63015e-06
1.34992e-05
-1.1402e-06
1.36464e-05
-6.40024e-07
1.37109e-05
-1.30105e-07
1.36906e-05
3.89359e-07
1.35834e-05
9.18407e-07
1.33876e-05
1.4569e-06
1.31018e-05
2.00422e-06
1.27254e-05
2.55897e-06
1.22586e-05
3.1193e-06
1.17018e-05
3.68319e-06
1.10555e-05
4.24768e-06
1.03201e-05
4.80721e-06
9.4964e-06
5.35084e-06
8.58689e-06
5.85954e-06
7.59774e-06
6.30385e-06
6.54078e-06
6.64275e-06
5.43566e-06
6.82461e-06
4.31177e-06
6.7908e-06
3.20961e-06
6.48256e-06
2.18095e-06
5.85172e-06
1.28592e-06
4.87756e-06
5.87761e-07
3.59012e-06
1.46629e-07
2.0953e-06
6.0123e-07
-1.70716e-07
7.67872e-07
-6.75528e-07
2.5911e-06
-1.46499e-06
4.36438e-06
-2.46439e-06
5.84817e-06
-3.59568e-06
6.93275e-06
-4.78461e-06
7.59195e-06
-5.97415e-06
7.86637e-06
-7.1217e-06
7.81928e-06
-8.19886e-06
7.52681e-06
-9.18936e-06
7.06528e-06
-1.00859e-05
6.4962e-06
-1.08862e-05
5.86277e-06
-1.15907e-05
5.19488e-06
-1.21997e-05
4.51344e-06
-1.27133e-05
3.83203e-06
-1.31308e-05
3.15763e-06
-1.34518e-05
2.49294e-06
-1.36764e-05
1.83956e-06
-1.38059e-05
1.19961e-06
-1.38425e-05
5.75627e-07
-1.37895e-05
-3.07074e-08
-1.36504e-05
-6.19337e-07
-1.34284e-05
-1.19172e-06
-1.31262e-05
-1.74953e-06
-1.27467e-05
-2.29322e-06
-1.22934e-05
-2.82207e-06
-1.17711e-05
-3.33553e-06
-1.11847e-05
-3.83443e-06
-1.05388e-05
-4.32121e-06
-9.83625e-06
-4.80034e-06
-9.07809e-06
-5.27737e-06
-8.26264e-06
-5.75721e-06
-7.38576e-06
-6.24164e-06
-6.44265e-06
-6.72634e-06
-5.43052e-06
-7.1988e-06
-4.35094e-06
-7.63965e-06
-3.21056e-06
-8.02698e-06
-2.02037e-06
-8.34059e-06
-7.94509e-07
-8.56423e-06
4.51292e-07
-8.68662e-06
1.70049e-06
-8.70123e-06
2.93625e-06
-8.60591e-06
4.14204e-06
-8.40349e-06
5.30211e-06
-8.10144e-06
6.40261e-06
-7.71238e-06
7.433e-06
-7.25427e-06
8.38757e-06
-6.74899e-06
9.2661e-06
-6.21927e-06
1.00727e-05
-5.68389e-06
1.08127e-05
-5.15371e-06
1.14906e-05
-4.63164e-06
1.21085e-05
-4.11481e-06
1.26654e-05
-3.59713e-06
1.31579e-05
-3.07179e-06
1.35807e-05
-2.53332e-06
1.39279e-05
-1.97858e-06
1.4194e-05
-1.40763e-06
1.43754e-05
-8.22525e-07
1.44693e-05
-2.25029e-07
1.44736e-05
3.84266e-07
1.43857e-05
1.00558e-06
1.42033e-05
1.63872e-06
1.39247e-05
2.28237e-06
1.35493e-05
2.9341e-06
1.30775e-05
3.59089e-06
1.25106e-05
4.25011e-06
1.18493e-05
4.90897e-06
1.1094e-05
5.56273e-06
1.02442e-05
6.2009e-06
9.30075e-06
6.80341e-06
8.26769e-06
7.33744e-06
7.15492e-06
7.75616e-06
5.98071e-06
7.99953e-06
4.77423e-06
7.99806e-06
3.57774e-06
7.67999e-06
2.44761e-06
6.98323e-06
1.45201e-06
5.87489e-06
6.67066e-07
4.37732e-06
1.68982e-07
2.59738e-06
7.69059e-07
-1.99796e-07
9.67821e-07
-7.82989e-07
3.17516e-06
-1.68221e-06
5.26452e-06
-2.80248e-06
6.96966e-06
-4.051e-06
8.18086e-06
-5.3427e-06
8.8845e-06
-6.61437e-06
9.13889e-06
-7.82283e-06
9.02706e-06
-8.94243e-06
8.64442e-06
-9.96158e-06
8.08204e-06
-1.08774e-05
7.41016e-06
-1.16913e-05
6.67563e-06
-1.24055e-05
5.90857e-06
-1.30212e-05
5.12875e-06
-1.35382e-05
4.34855e-06
-1.39555e-05
3.57418e-06
-1.42712e-05
2.80789e-06
-1.44843e-05
2.05193e-06
-1.45955e-05
1.31016e-06
-1.46078e-05
5.87265e-07
-1.45255e-05
-1.13535e-07
-1.43531e-05
-7.91937e-07
-1.40945e-05
-1.45042e-06
-1.37521e-05
-2.09185e-06
-1.33288e-05
-2.71652e-06
-1.28289e-05
-3.32198e-06
-1.22587e-05
-3.90571e-06
-1.16255e-05
-4.46763e-06
-1.0936e-05
-5.01069e-06
-1.0195e-05
-5.54118e-06
-9.4045e-06
-6.06767e-06
-8.5623e-06
-6.59918e-06
-7.66195e-06
-7.14173e-06
-6.69505e-06
-7.69293e-06
-5.65552e-06
-8.238e-06
-4.54342e-06
-8.75139e-06
-3.36579e-06
-9.20419e-06
-2.13495e-06
-9.57091e-06
-8.66333e-07
-9.83223e-06
4.23346e-07
-9.97562e-06
1.71699e-06
-9.99412e-06
2.99735e-06
-9.88543e-06
4.24726e-06
-9.65246e-06
5.4498e-06
-9.30297e-06
6.58943e-06
-8.85095e-06
7.65408e-06
-8.31787e-06
8.63787e-06
-7.73174e-06
9.54256e-06
-7.12298e-06
1.03758e-05
-6.51622e-06
1.11467e-05
-5.92361e-06
1.18616e-05
-5.34563e-06
1.25228e-05
-4.77516e-06
1.31285e-05
-4.20199e-06
1.36731e-05
-3.6157e-06
1.41487e-05
-3.00831e-06
1.45466e-05
-2.37598e-06
1.48593e-05
-1.72005e-06
1.50822e-05
-1.04519e-06
1.52129e-05
-3.55503e-07
1.52493e-05
3.4803e-07
1.51887e-05
1.0665e-06
1.50275e-05
1.8001e-06
1.47635e-05
2.54665e-06
1.4396e-05
3.30192e-06
1.39262e-05
4.06094e-06
1.33565e-05
4.81992e-06
1.2689e-05
5.57668e-06
1.19234e-05
6.3283e-06
1.10581e-05
7.06619e-06
1.00911e-05
7.77028e-06
9.02347e-06
8.40499e-06
7.86184e-06
8.91762e-06
6.62163e-06
9.23951e-06
5.33028e-06
9.28901e-06
4.0307e-06
8.97915e-06
2.78341e-06
8.2304e-06
1.66644e-06
6.9921e-06
7.73172e-07
5.27109e-06
1.97929e-07
3.17221e-06
9.6278e-07
-2.40829e-07
1.20926e-06
-9.29223e-07
3.86412e-06
-1.96898e-06
6.30446e-06
-3.2359e-06
8.23772e-06
-4.6173e-06
9.56084e-06
-6.01784e-06
1.02849e-05
-7.36859e-06
1.04905e-05
-8.62744e-06
1.02861e-05
-9.77413e-06
9.79001e-06
-1.08047e-05
9.11058e-06
-1.17236e-05
8.32708e-06
-1.25374e-05
7.48775e-06
-1.32503e-05
6.62029e-06
-1.38636e-05
5.74111e-06
-1.43768e-05
4.86071e-06
-1.47875e-05
3.98381e-06
-1.5092e-05
3.11138e-06
-1.52873e-05
2.24619e-06
-1.53731e-05
1.39513e-06
-1.53533e-05
5.66676e-07
-1.52343e-05
-2.33367e-07
-1.50222e-05
-1.00452e-06
-1.47215e-05
-1.75147e-06
-1.43338e-05
-2.47963e-06
-1.38609e-05
-3.18934e-06
-1.33079e-05
-3.87496e-06
-1.26832e-05
-4.53025e-06
-1.19972e-05
-5.15347e-06
-1.12594e-05
-5.74814e-06
-1.04775e-05
-6.3226e-06
-9.65539e-06
-6.88913e-06
-8.79091e-06
-7.46291e-06
-7.87467e-06
-8.05715e-06
-6.89294e-06
-8.67376e-06
-5.83483e-06
-9.29513e-06
-4.69878e-06
-9.88646e-06
-3.49303e-06
-1.04089e-05
-2.23211e-06
-1.08308e-05
-9.32959e-07
-1.11303e-05
3.87282e-07
-1.12947e-05
1.71183e-06
-1.13176e-05
3.02407e-06
-1.11966e-05
4.30709e-06
-1.09343e-05
5.54316e-06
-1.05378e-05
6.7145e-06
-1.00211e-05
7.80637e-06
-9.40851e-06
8.81191e-06
-8.73606e-06
9.73553e-06
-8.04539e-06
1.05904e-05
-7.36982e-06
1.13902e-05
-6.72229e-06
1.21439e-05
-6.09803e-06
1.28534e-05
-5.48337e-06
1.35151e-05
-4.86232e-06
1.41206e-05
-4.21982e-06
1.46583e-05
-3.54469e-06
1.51158e-05
-2.83222e-06
1.54829e-05
-2.08618e-06
1.57546e-05
-1.31599e-06
1.59296e-05
-5.29696e-07
1.60068e-05
2.71674e-07
1.59824e-05
1.09159e-06
1.58516e-05
1.93146e-06
1.56107e-05
2.78806e-06
1.5259e-05
3.65413e-06
1.47991e-05
4.52125e-06
1.42357e-05
5.38359e-06
1.35726e-05
6.2399e-06
1.281e-05
7.09089e-06
1.19439e-05
7.93211e-06
1.09688e-05
8.74514e-06
9.88119e-06
9.49224e-06
8.6832e-06
1.01152e-05
7.38533e-06
1.05368e-05
6.01101e-06
1.06626e-05
4.60142e-06
1.0388e-05
3.21991e-06
9.61147e-06
1.95529e-06
8.25653e-06
9.21256e-07
6.30429e-06
2.37134e-07
3.85222e-06
1.19836e-06
-3.01042e-07
1.51084e-06
-1.13435e-06
4.69716e-06
-2.3555e-06
7.52476e-06
-3.79892e-06
9.68178e-06
-5.32622e-06
1.10868e-05
-6.83387e-06
1.17919e-05
-8.25127e-06
1.1909e-05
-9.53997e-06
1.15764e-05
-1.06886e-05
1.09397e-05
-1.17046e-05
1.0127e-05
-1.26038e-05
9.2263e-06
-1.33991e-05
8.28324e-06
-1.40963e-05
7.31788e-06
-1.46957e-05
6.34097e-06
-1.51954e-05
5.36087e-06
-1.5592e-05
4.38062e-06
-1.58788e-05
3.39831e-06
-1.60491e-05
2.41667e-06
-1.61016e-05
1.44769e-06
-1.60412e-05
5.06378e-07
-1.58774e-05
-3.97194e-07
-1.56196e-05
-1.2625e-06
-1.52725e-05
-2.09859e-06
-1.48359e-05
-2.91616e-06
-1.4309e-05
-3.71607e-06
-1.36971e-05
-4.48671e-06
-1.30117e-05
-5.21546e-06
-1.22669e-05
-5.89811e-06
-1.14759e-05
-6.53895e-06
-1.06499e-05
-7.14834e-06
-9.79636e-06
-7.74222e-06
-8.9148e-06
-8.34402e-06
-7.99233e-06
-8.97917e-06
-7.00734e-06
-9.65831e-06
-5.94183e-06
-1.03602e-05
-4.7928e-06
-1.10352e-05
-3.57151e-06
-1.16301e-05
-2.29607e-06
-1.21062e-05
-9.85171e-07
-1.24412e-05
3.44757e-07
-1.26248e-05
1.6789e-06
-1.2652e-05
3.00297e-06
-1.2521e-05
4.30194e-06
-1.22337e-05
5.55816e-06
-1.17945e-05
6.75095e-06
-1.12143e-05
7.86095e-06
-1.05189e-05
8.8785e-06
-9.75399e-06
9.81139e-06
-8.97862e-06
1.06811e-05
-8.2398e-06
1.1508e-05
-7.54941e-06
1.23027e-05
-6.89287e-06
1.30659e-05
-6.24651e-06
1.3791e-05
-5.5873e-06
1.44662e-05
-4.89475e-06
1.50754e-05
-4.15345e-06
1.56011e-05
-3.35744e-06
1.60297e-05
-2.5143e-06
1.63561e-05
-1.64202e-06
1.65822e-05
-7.55409e-07
1.67087e-05
1.4548e-07
1.67309e-05
1.06968e-06
1.66412e-05
2.02139e-06
1.64336e-05
2.99586e-06
1.61069e-05
3.9809e-06
1.56662e-05
4.96218e-06
1.51199e-05
5.93009e-06
1.44751e-05
6.88472e-06
1.3733e-05
7.83309e-06
1.28866e-05
8.77845e-06
1.19255e-05
9.7062e-06
1.08406e-05
1.05771e-05
9.62781e-06
1.13281e-05
8.29057e-06
1.1874e-05
6.84475e-06
1.21084e-05
5.32598e-06
1.19069e-05
3.79673e-06
1.11414e-05
2.35393e-06
9.69993e-06
1.13303e-06
7.52401e-06
2.97396e-07
4.68529e-06
1.49903e-06
-3.93487e-07
1.9043e-06
-1.43169e-06
5.73443e-06
-2.88645e-06
8.97904e-06
-4.53474e-06
1.13297e-05
-6.21022e-06
1.27613e-05
-7.80731e-06
1.33882e-05
-9.26255e-06
1.3364e-05
-1.05459e-05
1.28599e-05
-1.16581e-05
1.20519e-05
-1.26232e-05
1.10919e-05
-1.34727e-05
1.00759e-05
-1.42274e-05
9.03826e-06
-1.4892e-05
7.98309e-06
-1.5463e-05
6.91268e-06
-1.59371e-05
5.83564e-06
-1.63102e-05
4.75437e-06
-1.65719e-05
3.66044e-06
-1.67097e-05
2.55497e-06
-1.67199e-05
1.45837e-06
-1.66097e-05
3.96701e-07
-1.63932e-05
-6.13157e-07
-1.60845e-05
-1.57079e-06
-1.56897e-05
-2.49319e-06
-1.5204e-05
-3.40148e-06
-1.46212e-05
-4.29826e-06
-1.39468e-05
-5.16062e-06
-1.31964e-05
-5.96523e-06
-1.23887e-05
-6.70536e-06
-1.154e-05
-7.38717e-06
-1.06659e-05
-8.02178e-06
-9.78033e-06
-8.62726e-06
-8.88701e-06
-9.23678e-06
-7.97024e-06
-9.8954e-06
-6.99666e-06
-1.06314e-05
-5.93749e-06
-1.1419e-05
-4.78941e-06
-1.2183e-05
-3.5701e-06
-1.28493e-05
-2.30336e-06
-1.33729e-05
-1.00938e-06
-1.37352e-05
2.98141e-07
-1.39324e-05
1.60901e-06
-1.3963e-05
2.91366e-06
-1.38259e-05
4.20183e-06
-1.35221e-05
5.45796e-06
-1.30509e-05
6.65794e-06
-1.24145e-05
7.77469e-06
-1.16359e-05
8.79207e-06
-1.07716e-05
9.72187e-06
-9.90862e-06
1.05987e-05
-9.11678e-06
1.14513e-05
-8.40218e-06
1.22904e-05
-7.73213e-06
1.31127e-05
-7.06904e-06
1.3908e-05
-6.38271e-06
1.46604e-05
-5.64725e-06
1.53491e-05
-4.84211e-06
1.59501e-05
-3.95819e-06
1.64443e-05
-3.00839e-06
1.68281e-05
-2.02561e-06
1.71097e-05
-1.03688e-06
1.72938e-05
-3.85684e-08
1.73738e-05