/*--------------------------------*- C++ -*----------------------------------*\
| =========                 |                                                 |
| \\      /  F ield         | OpenFOAM: The Open Source CFD Toolbox           |
|  \\    /   O peration     | Version:  2412                                  |
|   \\  /    A nd           | Website:  www.openfoam.com                      |
|    \\/     M anipulation  |                                                 |
\*---------------------------------------------------------------------------*/
FoamFile
{
    version     2.0;
    format      ascii;
    arch        "LSB;label=32;scalar=64";
    class       volScalarField;
    location    "3.13";
    object      p_rgh;
}
// * * * * * * * * * * * * * * * * * * * * * * * * * * * * * * * * * * * * * //

dimensions      [1 -1 -2 0 0 0 0];

internalField   nonuniform List<scalar> 
80000
(
29409.4
29409.4
29409.3
29409.4
29409.4
29409.4
29409.4
29409.5
29409.5
29409.5
29409.6
29409.6
29409.6
29409.7
29409.7
29409.8
29409.8
29409.9
29410
29410
29410.1
29410.2
29410.2
29410.3
29410.4
29410.5
29410.6
29410.7
29410.8
29410.9
29411
29411.1
29411.2
29411.3
29411.4
29411.6
29411.7
29411.8
29412
29412.1
29412.2
29412.4
29412.5
29412.7
29412.9
29413
29413.2
29413.4
29413.6
29413.8
29414
29414.2
29414.4
29414.6
29414.8
29415
29415.2
29415.5
29415.7
29415.9
29416.2
29416.4
29416.7
29417
29417.3
29417.5
29417.8
29418.1
29418.4
29418.7
29419
29419.4
29419.7
29420
29420.4
29420.7
29421.1
29421.4
29421.8
29422.2
29422.6
29423
29423.4
29423.8
29424.2
29424.7
29425.1
29425.6
29426
29426.5
29427
29427.5
29428
29428.5
29429
29429.5
29430.1
29430.6
29431.2
29431.8
29432.4
29433
29433.6
29434.2
29434.9
29435.5
29436.2
29436.9
29437.6
29438.3
29439
29439.7
29440.5
29441.3
29442.1
29442.9
29443.7
29444.5
29445.3
29446.2
29447.1
29448
29448.9
29449.9
29450.8
29451.8
29452.8
29453.8
29454.8
29455.9
29456.9
29458
29459.2
29460.3
29461.5
29462.6
29463.8
29465.1
29466.3
29467.6
29468.9
29470.2
29471.6
29473
29474.4
29475.8
29477.3
29478.8
29480.3
29481.9
29483.4
29485
29486.7
29488.4
29490.1
29491.8
29493.6
29495.4
29497.2
29499.1
29501
29502.9
29504.9
29507
29509
29511.1
29513.3
29515.4
29517.7
29519.9
29522.2
29524.6
29527
29529.4
29531.9
29534.4
29537
29539.6
29542.3
29545.1
29547.8
29550.7
29553.5
29556.5
29559.5
29562.5
29565.6
29568.8
29572
29575.3
29578.6
29582
29585.5
29589
29592.6
29596.3
29600
29603.8
29607.6
29611.6
29615.6
29619.6
29623.8
29628
29632.3
29636.7
29641.2
29645.7
29650.3
29655
29659.8
29664.7
29669.6
29674.6
29679.8
29685
29690.3
29695.7
29701.2
29706.8
29712.5
29718.3
29724.2
29730.2
29736.3
29742.5
29748.8
29755.2
29761.7
29768.4
29775.1
29782
29789
29796.1
29803.3
29810.6
29818.1
29825.6
29833.4
29841.2
29849.2
29857.2
29865.5
29873.8
29882.3
29891
29899.7
29908.6
29917.7
29926.9
29936.2
29945.7
29955.4
29965.1
29975.1
29985.2
29995.4
30005.8
30016.4
30027.1
30038
30049.1
30060.3
30071.6
30083.2
30094.9
30106.8
30118.8
30131.1
30143.5
30156
30168.8
30181.7
30194.8
30208.1
30221.6
30235.3
30249.1
30263.1
30277.3
30291.7
30306.3
30321.1
30336
30351.1
30366.5
30382
30397.7
30413.6
30429.7
30445.9
30462.4
30479
30495.9
30512.9
30530.1
30547.5
30565
30582.8
30600.7
30618.9
30637.2
30655.7
30674.3
30693.1
30712.2
30731.3
30750.7
30770.2
30789.9
30809.7
30829.7
30849.8
30870.1
30890.5
30911.1
30931.8
30952.7
30973.6
30994.7
31015.9
31037.3
31058.7
31080.2
31101.8
31123.5
31145.3
31167.2
31189.1
31211.1
31233.1
31255.2
31277.3
31299.4
31321.5
31343.6
31365.8
31387.8
31409.9
31431.9
31453.9
31475.8
31497.6
31519.3
31541
31562.4
31583.8
31605
31626
31646.9
31667.5
31688
31708.2
31728.1
31747.8
31767.2
31786.3
31805
31823.4
31841.4
31859.1
31876.3
31893.1
31909.4
31925.3
31940.6
31955.4
31969.7
31983.3
31996.4
32008.8
32020.6
32031.7
32042.1
32051.8
32060.7
32068.8
32076
32082.5
32088
32092.7
32096.4
32099.2
32101
32101.7
32101.5
32100.2
32097.8
32094.3
32089.6
32083.8
32076.8
32068.7
32059.3
32048.6
32036.7
32023.6
32009.1
31993.4
31976.3
31957.9
31938.1
31917.1
31894.6
31870.9
31845.7
31819.2
31791.3
31762.1
31731.5
31699.5
31666.1
31631.4
31595.4
31558
31519.3
31479.2
31437.8
31395.2
31351.2
31305.9
31259.4
31211.6
31162.5
31112.2
31060.7
31008
30954.1
30899.1
30842.9
30785.5
30727.1
30667.6
30607
30545.4
30482.7
30419.1
30354.5
30288.9
30222.5
30155.2
30087.1
30018.1
29948.3
29877.9
29806.9
29735.3
29663
29590.3
29517.1
29443.6
29369.8
29295.7
29221.3
29146.8
29072.3
28997.9
28923.5
28849.3
28775.5
28702
28628.9
28556.4
28484.6
28413.5
28343.2
28273.8
28205.5
28138.2
28072.2
28007.5
27944.2
27882.3
27822.1
27763.5
27706.7
27651.8
27598.8
27547.8
27499
27452.4
27408.1
27366.2
27326.8
27289.9
27255.7
27224.2
27195.5
27169.6
27146.6
27126.7
27109.8
27096
27085.3
27077.9
27073.7
27072.8
27075.2
27081.1
27090.4
27103.1
27119.2
27138.6
27161.5
27187.8
27217.4
27250.4
27286.6
27326.1
27368.8
27414.6
27463.5
27515.3
27569.9
27627.2
27687.2
27749.5
27814.3
27881.2
27950
28020.8
28093.2
28167
28242.2
28318.4
28395.6
28473.4
28551.7
28630.4
28709.1
28787.8
28866.2
28944.1
29021.4
29097.8
29173.3
29247.6
29320.8
29392.6
29462.6
29531.1
29597.8
29662.6
29725.4
29786.3
29845.2
29902
29956.7
30009.2
30059.7
30107.9
30154.1
30198.1
30240.1
30279.9
30317.8
30353.7
30387.7
30419.9
30450.3
30478.9
30505.9
30531.3
30555.2
30577.6
30598.6
30618.3
30636.7
30653.9
30670
30685
30698.9
30711.8
30723.7
30734.6
30744.5
30753.5
30761.6
30768.7
30774.9
30780.1
30784.3
30787.7
30790
30791.4
30791.8
30791.2
30789.6
30786.9
30783.3
30778.7
30773
30766.3
30758.5
30749.7
30739.8
30728.9
30716.8
30703.5
30689.1
30673.5
30656.6
30638.4
30618.8
30597.8
30575.2
30551.1
30525.4
30497.8
30468.5
30437.3
30404.2
30369
30331.8
30292.4
30250.8
30206.9
30160.7
30112.2
30061.2
30007.9
29952.2
29894.1
29833.6
29770.8
29705.8
29638.5
29569
29497.3
29423.8
29348.3
29271
29192.2
29112.1
29030.7
28948.3
28865.1
28781.3
28697.1
28612.7
28528.4
28444.4
28361.1
28278.5
28197.1
28117
28038.4
27961.7
27887.1
27814.7
27744.9
27677.8
27613.6
27552.5
27494.7
27440.4
27389.7
27342.7
27299.6
27260.4
27225.2
27194.2
27167.4
27144.7
27126.4
27112.3
27102.5
27097
27095.7
27098.7
27105.9
27117.3
27132.7
27152.2
27175.6
27202.9
27233.9
27268.7
27307
27348.8
27394
27442.4
27494
27548.6
27606
27666.3
27729.1
27794.5
27862.2
27932.2
28004.2
28078.2
28154.1
28231.6
28310.7
28391.1
28472.9
28555.7
28639.6
28724.3
28809.7
28895.7
28982.2
29068.9
29155.9
29242.9
29329.8
29416.4
29502.8
29589
29674.5
29759.4
29843.6
29926.9
30009.5
30091.2
30171.7
30251
30329.1
30406
30481.5
30555.7
30628.4
30699.7
30769.4
30837.6
30904.1
30969.1
31032.4
31093.9
31153.8
31211.9
31268.3
31322.9
31375.6
31426.6
31475.7
31522.9
31568.2
31611.7
31653.3
31692.9
31730.7
31766.5
31800.3
31832.2
31862.2
31890.3
31916.4
31940.5
31962.7
31983
32001.4
32017.8
32032.4
32045.1
32055.9
32064.9
32072.1
32077.6
32081.3
32083.2
32083.5
32082.2
32079.3
32074.8
32068.8
32061.4
32052.5
32042.2
32030.7
32017.8
32003.8
31988.5
31972.1
31954.7
31936.2
31916.7
31896.2
31874.9
31852.7
31829.8
31806
31781.6
31756.4
31730.6
31704.3
31677.4
31649.9
31622
31593.7
31565
31535.9
31506.5
31476.8
31446.8
31416.6
31386.3
31355.7
31325.1
31294.4
31263.6
31232.8
31202
31171.2
31140.4
31109.8
31079.2
31048.8
31018.4
30988.3
30958.3
30928.6
30899
30869.7
30840.7
30811.8
30783.3
30755.1
30727.1
30699.5
30672.1
30645.1
30618.5
30592.1
30566.2
30540.5
30515.3
30490.3
30465.8
30441.6
30417.8
30394.4
30371.3
30348.6
30326.3
30304.4
30282.8
30261.7
30240.9
30220.4
30200.4
30180.7
30161.4
30142.5
30123.9
30105.7
30087.9
30070.4
30053.2
30036.5
30020
30004
29988.2
29972.8
29957.7
29943
29928.5
29914.4
29900.6
29887.2
29874
29861.1
29848.6
29836.3
29824.3
29812.6
29801.1
29790
29779.1
29768.5
29758.1
29748
29738.1
29728.5
29719.1
29710
29701.1
29692.4
29683.9
29675.7
29667.6
29659.8
29652.2
29644.8
29637.5
29630.5
29623.7
29617
29610.5
29604.2
29598.1
29592.1
29586.3
29580.6
29575.1
29569.8
29564.6
29559.6
29554.7
29549.9
29545.3
29540.8
29536.4
29532.1
29528
29524
29520.1
29516.4
29512.7
29509.1
29505.7
29502.3
29499.1
29495.9
29492.9
29489.9
29487
29484.2
29481.5
29478.9
29476.4
29473.9
29471.5
29469.2
29466.9
29464.8
29462.6
29460.6
29458.6
29456.7
29454.9
29453.1
29451.3
29449.6
29448
29446.4
29444.9
29443.4
29442
29440.6
29439.3
29438
29436.8
29435.5
29434.4
29433.3
29432.2
29431.1
29430.1
29429.1
29428.2
29427.3
29426.4
29425.5
29424.7
29423.9
29423.2
29422.4
29421.7
29421
29420.4
29419.8
29419.1
29418.6
29418
29417.5
29417
29416.5
29416
29415.5
29415.1
29414.7
29414.3
29413.9
29413.6
29413.2
29412.9
29412.6
29412.3
29412
29411.7
29411.5
29411.3
29411.1
29410.9
29410.7
29410.5
29410.3
29410.2
29410.1
29409.9
29409.8
29409.7
29409.7
29409.6
29409.5
29409.5
29409.5
29409.5
29409.4
29409.4
29409.4
29409.4
29409.4
29409.4
29409.5
29409.5
29409.5
29409.5
29409.6
29409.6
29409.7
29409.7
29409.7
29409.8
29409.8
29409.9
29410
29410
29410.1
29410.2
29410.2
29410.3
29410.4
29410.5
29410.6
29410.7
29410.8
29410.9
29411
29411.1
29411.2
29411.3
29411.4
29411.5
29411.7
29411.8
29411.9
29412.1
29412.2
29412.4
29412.5
29412.7
29412.9
29413
29413.2
29413.4
29413.6
29413.8
29414
29414.1
29414.4
29414.6
29414.8
29415
29415.2
29415.5
29415.7
29415.9
29416.2
29416.4
29416.7
29417
29417.2
29417.5
29417.8
29418.1
29418.4
29418.7
29419
29419.3
29419.7
29420
29420.3
29420.7
29421.1
29421.4
29421.8
29422.2
29422.6
29423
29423.4
29423.8
29424.2
29424.6
29425.1
29425.5
29426
29426.5
29427
29427.4
29428
29428.5
29429
29429.5
29430.1
29430.6
29431.2
29431.8
29432.4
29433
29433.6
29434.2
29434.9
29435.5
29436.2
29436.9
29437.6
29438.3
29439
29439.7
29440.5
29441.2
29442
29442.8
29443.6
29444.5
29445.3
29446.2
29447.1
29448
29448.9
29449.8
29450.8
29451.7
29452.7
29453.8
29454.8
29455.8
29456.9
29458
29459.1
29460.3
29461.4
29462.6
29463.8
29465
29466.3
29467.6
29468.9
29470.2
29471.6
29472.9
29474.3
29475.8
29477.2
29478.7
29480.3
29481.8
29483.4
29485
29486.6
29488.3
29490
29491.7
29493.5
29495.3
29497.2
29499
29500.9
29502.9
29504.9
29506.9
29509
29511.1
29513.2
29515.4
29517.6
29519.9
29522.2
29524.5
29526.9
29529.3
29531.8
29534.4
29536.9
29539.6
29542.2
29545
29547.7
29550.6
29553.5
29556.4
29559.4
29562.4
29565.5
29568.7
29571.9
29575.2
29578.5
29581.9
29585.4
29588.9
29592.5
29596.2
29599.9
29603.7
29607.5
29611.5
29615.5
29619.5
29623.7
29627.9
29632.2
29636.6
29641
29645.6
29650.2
29654.9
29659.7
29664.5
29669.5
29674.5
29679.6
29684.9
29690.2
29695.6
29701.1
29706.7
29712.4
29718.1
29724
29730
29736.1
29742.3
29748.6
29755
29761.6
29768.2
29774.9
29781.8
29788.8
29795.9
29803.1
29810.4
29817.9
29825.5
29833.2
29841
29849
29857.1
29865.3
29873.6
29882.1
29890.8
29899.5
29908.4
29917.5
29926.7
29936
29945.5
29955.1
29964.9
29974.9
29985
29995.2
30005.6
30016.2
30026.9
30037.8
30048.8
30060
30071.4
30082.9
30094.7
30106.5
30118.6
30130.8
30143.2
30155.8
30168.5
30181.5
30194.6
30207.9
30221.3
30235
30248.8
30262.9
30277.1
30291.4
30306
30320.8
30335.7
30350.9
30366.2
30381.7
30397.4
30413.3
30429.4
30445.6
30462.1
30478.7
30495.6
30512.6
30529.8
30547.2
30564.8
30582.5
30600.5
30618.6
30636.9
30655.4
30674.1
30692.9
30711.9
30731.1
30750.4
30769.9
30789.6
30809.5
30829.4
30849.6
30869.9
30890.3
30910.9
30931.6
30952.5
30973.4
30994.5
31015.8
31037.1
31058.5
31080.1
31101.7
31123.4
31145.2
31167.1
31189
31211
31233
31255.1
31277.2
31299.3
31321.5
31343.6
31365.7
31387.9
31409.9
31432
31454
31475.9
31497.7
31519.4
31541.1
31562.6
31584
31605.2
31626.2
31647.1
31667.8
31688.3
31708.5
31728.4
31748.1
31767.6
31786.7
31805.4
31823.9
31841.9
31859.6
31876.8
31893.6
31910
31925.9
31941.3
31956.1
31970.4
31984.1
31997.2
32009.7
32021.5
32032.6
32043
32052.7
32061.6
32069.8
32077.1
32083.5
32089.1
32093.8
32097.6
32100.4
32102.2
32103
32102.8
32101.5
32099.1
32095.6
32091
32085.2
32078.3
32070.1
32060.7
32050.1
32038.2
32025.1
32010.6
31994.9
31977.8
31959.4
31939.7
31918.6
31896.2
31872.4
31847.2
31820.7
31792.8
31763.5
31732.9
31700.9
31667.6
31632.9
31596.8
31559.4
31520.6
31480.5
31439.1
31396.4
31352.4
31307.1
31260.5
31212.7
31163.6
31113.3
31061.7
31009
30955.1
30900
30843.8
30786.4
30727.9
30668.3
30607.7
30546
30483.3
30419.7
30355
30289.4
30222.9
30155.6
30087.4
30018.4
29948.6
29878.1
29807
29735.3
29663
29590.2
29517
29443.4
29369.4
29295.2
29220.8
29146.2
29071.6
28997.1
28922.6
28848.4
28774.4
28700.8
28627.7
28555.1
28483.1
28411.9
28341.5
28272.1
28203.6
28136.3
28070.2
28005.4
27942
27880.1
27819.7
27761.1
27704.2
27649.2
27596.1
27545.1
27496.2
27449.6
27405.2
27363.3
27323.8
27286.9
27252.6
27221
27192.2
27166.3
27143.3
27123.3
27106.4
27092.6
27081.9
27074.4
27070.3
27069.4
27071.8
27077.7
27086.9
27099.5
27115.6
27135
27157.9
27184.2
27213.8
27246.8
27283.1
27322.7
27365.4
27411.3
27460.2
27512.1
27566.8
27624.2
27684.2
27746.7
27811.6
27878.6
27947.6
28018.5
28091
28165
28240.4
28316.8
28394.1
28472.1
28550.6
28629.5
28708.4
28787.3
28865.8
28943.9
29021.4
29098
29173.7
29248.2
29321.5
29393.3
29463.5
29532.1
29598.9
29663.9
29726.8
29787.8
29846.8
29903.7
29958.4
30011
30061.5
30109.8
30156
30200
30241.9
30281.8
30319.7
30355.6
30389.5
30421.6
30451.9
30480.5
30507.4
30532.7
30556.5
30578.9
30599.8
30619.4
30637.8
30655
30671
30685.9
30699.7
30712.5
30724.4
30735.2
30745.1
30754.1
30762.1
30769.2
30775.4
30780.6
30784.9
30788.2
30790.5
30791.9
30792.3
30791.7
30790.1
30787.5
30783.9
30779.3
30773.6
30766.9
30759.2
30750.4
30740.6
30729.7
30717.6
30704.4
30690.1
30674.5
30657.7
30639.6
30620
30599.1
30576.6
30552.5
30526.8
30499.4
30470.2
30439
30406
30370.8
30333.6
30294.3
30252.6
30208.8
30162.6
30114
30063.1
30009.7
29953.9
29895.8
29835.2
29772.3
29707.1
29639.7
29570.1
29498.3
29424.5
29348.9
29271.5
29192.6
29112.3
29030.7
28948.1
28864.7
28780.7
28696.3
28611.7
28527.2
28443.1
28359.5
28276.8
28195.1
28114.9
28036.2
27959.3
27884.5
27812
27742
27674.8
27610.5
27549.4
27491.5
27437.1
27386.3
27339.2
27296.1
27256.8
27221.7
27190.6
27163.8
27141.1
27122.8
27108.7
27098.9
27093.5
27092.2
27095.3
27102.5
27113.9
27129.4
27148.9
27172.3
27199.7
27230.8
27265.6
27304
27345.8
27391.1
27439.6
27491.2
27545.9
27603.4
27663.7
27726.7
27792.1
27860
27930
28002.2
28076.3
28152.2
28229.8
28309
28389.6
28471.4
28554.4
28638.3
28723.2
28808.7
28894.8
28981.3
29068.2
29155.3
29242.4
29329.4
29416.2
29502.7
29588.9
29674.5
29759.5
29843.8
29927.2
30009.9
30091.5
30172.1
30251.5
30329.7
30406.6
30482.2
30556.4
30629.2
30700.5
30770.3
30838.5
30905.1
30970.1
31033.4
31095
31154.9
31213.1
31269.5
31324.1
31376.8
31427.8
31476.9
31524.2
31569.5
31613
31654.6
31694.3
31732
31767.8
31801.7
31833.6
31863.6
31891.7
31917.8
31941.9
31964.1
31984.4
32002.7
32019.2
32033.8
32046.4
32057.3
32066.2
32073.4
32078.8
32082.5
32084.4
32084.7
32083.4
32080.4
32075.9
32069.9
32062.4
32053.5
32043.2
32031.6
32018.7
32004.6
31989.3
31972.9
31955.4
31936.8
31917.3
31896.8
31875.5
31853.3
31830.3
31806.5
31782
31756.8
31731
31704.6
31677.7
31650.2
31622.3
31593.9
31565.2
31536
31506.6
31476.9
31446.9
31416.7
31386.3
31355.8
31325.1
31294.4
31263.6
31232.7
31201.9
31171.1
31140.3
31109.6
31079.1
31048.6
31018.3
30988.1
30958.1
30928.4
30898.8
30869.5
30840.4
30811.6
30783.1
30754.8
30726.9
30699.2
30671.9
30644.9
30618.2
30591.9
30565.9
30540.3
30515
30490.1
30465.5
30441.3
30417.5
30394.1
30371
30348.3
30326
30304.1
30282.6
30261.4
30240.6
30220.2
30200.1
30180.5
30161.1
30142.2
30123.7
30105.5
30087.6
30070.1
30053
30036.2
30019.8
30003.7
29988
29972.6
29957.5
29942.7
29928.3
29914.2
29900.4
29887
29873.8
29860.9
29848.4
29836.1
29824.1
29812.4
29801
29789.8
29778.9
29768.3
29757.9
29747.8
29737.9
29728.3
29719
29709.8
29700.9
29692.2
29683.8
29675.5
29667.5
29659.7
29652
29644.6
29637.4
29630.4
29623.5
29616.9
29610.4
29604.1
29598
29592
29586.2
29580.5
29575
29569.7
29564.5
29559.5
29554.6
29549.8
29545.2
29540.7
29536.3
29532.1
29528
29524
29520.1
29516.3
29512.6
29509.1
29505.6
29502.3
29499
29495.9
29492.8
29489.8
29487
29484.2
29481.5
29478.9
29476.3
29473.8
29471.5
29469.1
29466.9
29464.7
29462.6
29460.6
29458.6
29456.7
29454.8
29453
29451.3
29449.6
29448
29446.4
29444.9
29443.4
29442
29440.6
29439.3
29438
29436.7
29435.5
29434.4
29433.2
29432.1
29431.1
29430.1
29429.1
29428.2
29427.2
29426.4
29425.5
29424.7
29423.9
29423.1
29422.4
29421.7
29421
29420.4
29419.7
29419.1
29418.6
29418
29417.5
29416.9
29416.4
29416
29415.5
29415.1
29414.7
29414.3
29413.9
29413.5
29413.2
29412.9
29412.6
29412.3
29412
29411.7
29411.5
29411.3
29411
29410.8
29410.7
29410.5
29410.3
29410.2
29410
29409.9
29409.8
29409.7
29409.7
29409.6
29409.5
29409.5
29409.5
29409.5
29409.4
29409.4
29409.4
29409.4
29409.4
29409.4
29409.5
29409.5
29409.5
29409.5
29409.6
29409.6
29409.6
29409.7
29409.7
29409.8
29409.8
29409.9
29410
29410
29410.1
29410.2
29410.2
29410.3
29410.4
29410.5
29410.6
29410.7
29410.7
29410.8
29411
29411.1
29411.2
29411.3
29411.4
29411.5
29411.7
29411.8
29411.9
29412.1
29412.2
29412.4
29412.5
29412.7
29412.8
29413
29413.2
29413.4
29413.5
29413.7
29413.9
29414.1
29414.3
29414.5
29414.8
29415
29415.2
29415.4
29415.7
29415.9
29416.2
29416.4
29416.7
29416.9
29417.2
29417.5
29417.8
29418.1
29418.4
29418.7
29419
29419.3
29419.6
29420
29420.3
29420.7
29421
29421.4
29421.8
29422.1
29422.5
29422.9
29423.3
29423.8
29424.2
29424.6
29425.1
29425.5
29426
29426.4
29426.9
29427.4
29427.9
29428.4
29428.9
29429.5
29430
29430.6
29431.1
29431.7
29432.3
29432.9
29433.5
29434.2
29434.8
29435.5
29436.1
29436.8
29437.5
29438.2
29438.9
29439.7
29440.4
29441.2
29442
29442.8
29443.6
29444.4
29445.3
29446.1
29447
29447.9
29448.8
29449.8
29450.7
29451.7
29452.7
29453.7
29454.7
29455.8
29456.8
29457.9
29459
29460.2
29461.3
29462.5
29463.7
29465
29466.2
29467.5
29468.8
29470.1
29471.5
29472.8
29474.3
29475.7
29477.1
29478.6
29480.2
29481.7
29483.3
29484.9
29486.5
29488.2
29489.9
29491.6
29493.4
29495.2
29497
29498.9
29500.8
29502.8
29504.8
29506.8
29508.8
29510.9
29513.1
29515.2
29517.5
29519.7
29522
29524.4
29526.8
29529.2
29531.7
29534.2
29536.8
29539.4
29542.1
29544.8
29547.6
29550.4
29553.3
29556.2
29559.2
29562.3
29565.4
29568.5
29571.7
29575
29578.3
29581.7
29585.2
29588.7
29592.3
29596
29599.7
29603.5
29607.3
29611.2
29615.2
29619.3
29623.5
29627.7
29632
29636.3
29640.8
29645.3
29649.9
29654.6
29659.4
29664.3
29669.2
29674.2
29679.4
29684.6
29689.9
29695.3
29700.8
29706.4
29712.1
29717.8
29723.7
29729.7
29735.8
29742
29748.3
29754.7
29761.2
29767.9
29774.6
29781.5
29788.4
29795.5
29802.7
29810.1
29817.5
29825.1
29832.8
29840.6
29848.6
29856.7
29864.9
29873.2
29881.7
29890.4
29899.1
29908
29917.1
29926.3
29935.6
29945.1
29954.7
29964.5
29974.4
29984.5
29994.7
30005.1
30015.7
30026.4
30037.3
30048.3
30059.5
30070.9
30082.5
30094.2
30106
30118.1
30130.3
30142.7
30155.3
30168
30181
30194.1
30207.4
30220.8
30234.5
30248.3
30262.3
30276.5
30290.9
30305.5
30320.2
30335.2
30350.3
30365.7
30381.2
30396.9
30412.8
30428.8
30445.1
30461.6
30478.2
30495
30512.1
30529.3
30546.7
30564.2
30582
30600
30618.1
30636.4
30654.9
30673.5
30692.4
30711.4
30730.6
30749.9
30769.5
30789.1
30809
30829
30849.1
30869.4
30889.9
30910.5
30931.2
30952.1
30973.1
30994.2
31015.4
31036.8
31058.2
31079.8
31101.4
31123.1
31145
31166.8
31188.8
31210.8
31232.9
31255
31277.1
31299.2
31321.4
31343.6
31365.7
31387.9
31410
31432.1
31454.1
31476
31497.9
31519.7
31541.3
31562.9
31584.3
31605.6
31626.7
31647.6
31668.3
31688.8
31709.1
31729.1
31748.8
31768.3
31787.4
31806.3
31824.7
31842.9
31860.6
31877.9
31894.8
31911.2
31927.1
31942.6
31957.5
31971.8
31985.6
31998.7
32011.3
32023.2
32034.4
32044.9
32054.6
32063.6
32071.8
32079.2
32085.7
32091.4
32096.1
32099.9
32102.8
32104.7
32105.5
32105.3
32104.1
32101.8
32098.4
32093.8
32088.1
32081.2
32073
32063.7
32053.1
32041.2
32028.1
32013.7
31997.9
31980.9
31962.5
31942.8
31921.7
31899.2
31875.4
31850.3
31823.7
31795.8
31766.5
31735.8
31703.8
31670.4
31635.7
31599.6
31562.1
31523.3
31483.2
31441.7
31398.9
31354.9
31309.5
31262.9
31215
31165.8
31115.4
31063.8
31011
30957
30901.9
30845.5
30788.1
30729.5
30669.9
30609.2
30547.4
30484.6
30420.9
30356.1
30290.4
30223.8
30156.4
30088.1
30018.9
29949.1
29878.5
29807.3
29735.4
29663
29590
29516.6
29442.8
29368.7
29294.3
29219.7
29145
29070.2
28995.5
28920.9
28846.4
28772.3
28698.5
28625.2
28552.4
28480.2
28408.8
28338.3
28268.6
28200
28132.5
28066.2
28001.2
27937.7
27875.6
27815.1
27756.3
27699.3
27644.1
27590.9
27539.7
27490.7
27444
27399.5
27357.4
27317.8
27280.8
27246.4
27214.8
27185.9
27159.9
27136.8
27116.7
27099.7
27085.8
27075.1
27067.6
27063.3
27062.4
27064.9
27070.6
27079.8
27092.4
27108.5
27127.9
27150.8
27177.1
27206.8
27239.8
27276.2
27315.8
27358.6
27404.6
27453.6
27505.6
27560.5
27618.1
27678.3
27741
27806.1
27873.4
27942.7
28013.8
28086.7
28161
28236.7
28313.4
28391.1
28469.5
28548.4
28627.6
28706.9
28786.1
28865.1
28943.5
29021.4
29098.3
29174.3
29249.2
29322.8
29394.9
29465.4
29534.3
29601.3
29666.5
29729.7
29790.9
29850
29907.1
29961.9
30014.6
30065.2
30113.5
30159.7
30203.8
30245.7
30285.6
30323.4
30359.2
30393.1
30425.1
30455.3
30483.7
30510.5
30535.7
30559.3
30581.5
30602.3
30621.8
30640
30657
30672.9
30687.7
30701.4
30714.1
30725.8
30736.6
30746.4
30755.3
30763.3
30770.3
30776.5
30781.6
30785.9
30789.1
30791.5
30792.9
30793.3
30792.7
30791.1
30788.6
30785
30780.4
30774.8
30768.2
30760.5
30751.8
30742.1
30731.2
30719.3
30706.3
30692
30676.6
30659.9
30641.9
30622.5
30601.7
30579.4
30555.5
30529.9
30502.6
30473.5
30442.5
30409.5
30374.4
30337.3
30298
30256.4
30212.5
30166.3
30117.7
30066.7
30013.2
29957.4
29899.1
29838.3
29775.3
29709.8
29642.2
29572.2
29500.2
29426.2
29350.2
29272.5
29193.3
29112.6
29030.6
28947.7
28863.9
28779.4
28694.6
28609.7
28524.8
28440.2
28356.3
28273.2
28191.2
28110.6
28031.5
27954.4
27879.3
27806.5
27736.3
27668.8
27604.3
27543
27484.9
27430.4
27379.5
27332.3
27289
27249.8
27214.5
27183.5
27156.6
27134
27115.6
27101.6
27091.8
27086.4
27085.3
27088.3
27095.6
27107.1
27122.7
27142.3
27165.8
27193.3
27224.5
27259.4
27297.9
27340
27385.3
27434
27485.8
27540.6
27598.3
27658.7
27721.9
27787.5
27855.5
27925.7
27998
28072.3
28148.5
28226.3
28305.7
28386.5
28468.5
28551.7
28635.9
28720.9
28806.6
28893
28979.7
29066.8
29154.1
29241.4
29328.6
29415.6
29502.4
29588.7
29674.6
29759.6
29844.1
29927.8
30010.5
30092.3
30173
30252.5
30330.9
30407.9
30483.6
30557.9
30630.8
30702.2
30772.1
30840.3
30907
30972.1
31035.5
31097.2
31157.1
31215.3
31271.8
31326.4
31379.3
31430.3
31479.4
31526.7
31572.1
31615.7
31657.3
31697
31734.7
31770.6
31804.5
31836.4
31866.4
31894.5
31920.6
31944.7
31966.9
31987.2
32005.5
32022
32036.5
32049.1
32059.9
32068.9
32076
32081.4
32085
32086.9
32087.1
32085.7
32082.6
32078.1
32072
32064.4
32055.4
32045.1
32033.4
32020.4
32006.2
31990.9
31974.4
31956.8
31938.2
31918.6
31898
31876.6
31854.3
31831.2
31807.4
31782.8
31757.6
31731.7
31705.3
31678.3
31650.8
31622.8
31594.4
31565.5
31536.4
31506.9
31477.1
31447.1
31416.8
31386.4
31355.8
31325.1
31294.3
31263.5
31232.6
31201.7
31170.9
31140.1
31109.4
31078.8
31048.3
31017.9
30987.8
30957.8
30928
30898.4
30869.1
30840
30811.1
30782.6
30754.3
30726.3
30698.7
30671.4
30644.3
30617.7
30591.3
30565.3
30539.7
30514.4
30489.5
30465
30440.8
30417
30393.5
30370.5
30347.8
30325.5
30303.6
30282
30260.8
30240
30219.6
30199.6
30179.9
30160.6
30141.7
30123.1
30104.9
30087.1
30069.6
30052.5
30035.7
30019.3
30003.3
29987.5
29972.1
29957
29942.3
29927.9
29913.8
29900
29886.6
29873.4
29860.5
29848
29835.7
29823.7
29812
29800.6
29789.4
29778.6
29767.9
29757.6
29747.5
29737.6
29728
29718.7
29709.5
29700.6
29691.9
29683.5
29675.2
29667.2
29659.4
29651.8
29644.4
29637.2
29630.1
29623.3
29616.6
29610.2
29603.9
29597.7
29591.8
29586
29580.3
29574.9
29569.5
29564.3
29559.3
29554.4
29549.6
29545
29540.5
29536.2
29531.9
29527.8
29523.8
29519.9
29516.2
29512.5
29508.9
29505.5
29502.2
29498.9
29495.8
29492.7
29489.7
29486.9
29484.1
29481.4
29478.8
29476.2
29473.8
29471.4
29469.1
29466.8
29464.6
29462.5
29460.5
29458.5
29456.6
29454.8
29453
29451.2
29449.5
29447.9
29446.3
29444.8
29443.3
29441.9
29440.5
29439.2
29437.9
29436.7
29435.5
29434.3
29433.2
29432.1
29431.1
29430
29429.1
29428.1
29427.2
29426.3
29425.5
29424.7
29423.9
29423.1
29422.4
29421.7
29421
29420.3
29419.7
29419.1
29418.5
29418
29417.4
29416.9
29416.4
29416
29415.5
29415.1
29414.7
29414.3
29413.9
29413.5
29413.2
29412.9
29412.5
29412.3
29412
29411.7
29411.5
29411.2
29411
29410.8
29410.6
29410.5
29410.3
29410.2
29410
29409.9
29409.8
29409.7
29409.6
29409.6
29409.5
29409.5
29409.5
29409.4
29409.3
29409.4
29409.4
29409.4
29409.4
29409.4
29409.4
29409.5
29409.5
29409.5
29409.5
29409.6
29409.6
29409.7
29409.7
29409.7
29409.8
29409.9
29409.9
29410
29410
29410.1
29410.2
29410.3
29410.4
29410.4
29410.5
29410.6
29410.7
29410.8
29410.9
29411
29411.1
29411.3
29411.4
29411.5
29411.6
29411.8
29411.9
29412
29412.2
29412.3
29412.5
29412.7
29412.8
29413
29413.2
29413.3
29413.5
29413.7
29413.9
29414.1
29414.3
29414.5
29414.7
29414.9
29415.2
29415.4
29415.6
29415.9
29416.1
29416.4
29416.6
29416.9
29417.2
29417.5
29417.7
29418
29418.3
29418.6
29419
29419.3
29419.6
29419.9
29420.3
29420.6
29421
29421.3
29421.7
29422.1
29422.5
29422.9
29423.3
29423.7
29424.1
29424.6
29425
29425.5
29425.9
29426.4
29426.9
29427.4
29427.9
29428.4
29428.9
29429.4
29430
29430.5
29431.1
29431.7
29432.3
29432.9
29433.5
29434.1
29434.7
29435.4
29436.1
29436.7
29437.4
29438.1
29438.9
29439.6
29440.3
29441.1
29441.9
29442.7
29443.5
29444.3
29445.2
29446
29446.9
29447.8
29448.7
29449.7
29450.6
29451.6
29452.6
29453.6
29454.6
29455.7
29456.7
29457.8
29458.9
29460.1
29461.2
29462.4
29463.6
29464.8
29466.1
29467.4
29468.7
29470
29471.3
29472.7
29474.1
29475.5
29477
29478.5
29480
29481.6
29483.1
29484.7
29486.4
29488
29489.7
29491.5
29493.2
29495
29496.9
29498.7
29500.6
29502.6
29504.6
29506.6
29508.6
29510.7
29512.9
29515
29517.3
29519.5
29521.8
29524.2
29526.5
29529
29531.5
29534
29536.6
29539.2
29541.8
29544.6
29547.3
29550.2
29553
29556
29559
29562
29565.1
29568.2
29571.5
29574.7
29578.1
29581.4
29584.9
29588.4
29592
29595.6
29599.4
29603.1
29607
29610.9
29614.9
29619
29623.1
29627.3
29631.6
29636
29640.4
29644.9
29649.6
29654.2
29659
29663.9
29668.8
29673.8
29679
29684.2
29689.5
29694.9
29700.3
29705.9
29711.6
29717.4
29723.3
29729.2
29735.3
29741.5
29747.8
29754.2
29760.7
29767.4
29774.1
29780.9
29787.9
29795
29802.2
29809.5
29817
29824.5
29832.2
29840.1
29848
29856.1
29864.3
29872.6
29881.1
29889.7
29898.5
29907.4
29916.4
29925.6
29934.9
29944.4
29954
29963.8
29973.8
29983.8
29994.1
30004.5
30015
30025.7
30036.6
30047.6
30058.8
30070.2
30081.7
30093.4
30105.3
30117.3
30129.6
30142
30154.5
30167.3
30180.2
30193.3
30206.6
30220
30233.7
30247.5
30261.5
30275.7
30290.1
30304.7
30319.4
30334.4
30349.5
30364.8
30380.3
30396.1
30411.9
30428
30444.3
30460.7
30477.4
30494.2
30511.3
30528.5
30545.9
30563.4
30581.2
30599.2
30617.3
30635.6
30654.1
30672.8
30691.6
30710.7
30729.8
30749.2
30768.7
30788.4
30808.3
30828.3
30848.5
30868.8
30889.3
30909.9
30930.6
30951.5
30972.5
30993.6
31014.9
31036.3
31057.7
31079.3
31101
31122.7
31144.6
31166.5
31188.5
31210.5
31232.6
31254.7
31276.9
31299.1
31321.3
31343.5
31365.7
31387.9
31410
31432.2
31454.2
31476.2
31498.1
31520
31541.7
31563.3
31584.8
31606.1
31627.3
31648.2
31669
31689.6
31709.9
31730
31749.8
31769.4
31788.6
31807.5
31826.1
31844.3
31862.1
31879.5
31896.4
31912.9
31929
31944.5
31959.5
31973.9
31987.8
32001.1
32013.7
32025.7
32037
32047.6
32057.4
32066.5
32074.8
32082.3
32088.9
32094.7
32099.5
32103.5
32106.4
32108.4
32109.4
32109.3
32108.1
32105.9
32102.5
32098
32092.3
32085.5
32077.4
32068.1
32057.6
32045.7
32032.6
32018.2
32002.5
31985.5
31967.1
31947.4
31926.3
31903.8
31880
31854.8
31828.2
31800.3
31771
31740.2
31708.2
31674.7
31639.9
31603.7
31566.2
31527.3
31487.1
31445.6
31402.7
31358.5
31313.1
31266.4
31218.4
31169.1
31118.6
31066.9
31014
30959.9
30904.6
30848.2
30790.6
30732
30672.2
30611.4
30549.5
30486.6
30422.6
30357.8
30291.9
30225.2
30157.6
30089.1
30019.8
29949.8
29879
29807.6
29735.5
29662.9
29589.7
29516.1
29442
29367.7
29293
29218.2
29143.2
29068.2
28993.1
28918.2
28843.5
28769.1
28695
28621.4
28548.3
28475.9
28404.2
28333.4
28263.5
28194.6
28126.8
28060.3
27995
27931.2
27868.9
27808.1
27749.1
27691.8
27636.5
27583
27531.7
27482.5
27435.5
27390.9
27348.6
27308.9
27271.7
27237.1
27205.3
27176.3
27150.2
27127
27106.8
27089.7
27075.7
27064.8
27057.2
27052.9
27051.9
27054.3
27060
27069.2
27081.7
27097.8
27117.2
27140.1
27166.4
27196.1
27229.3
27265.7
27305.4
27348.4
27394.5
27443.7
27495.9
27551
27608.9
27669.4
27732.5
27797.9
27865.6
27935.3
28006.9
28080.2
28155
28231.1
28308.4
28386.6
28465.5
28545
28624.7
28704.6
28784.4
28863.9
28942.9
29021.3
29098.8
29175.3
29250.7
29324.7
29397.3
29468.3
29537.5
29605
29670.5
29734
29795.5
29854.9
29912.1
29967.2
30020.1
30070.7
30119.1
30165.4
30209.4
30251.4
30291.2
30328.9
30364.6
30398.4
30430.2
30460.2
30488.5
30515.1
30540.1
30563.5
30585.5
30606
30625.3
30643.3
30660.1
30675.7
30690.3
30703.8
30716.4
30727.9
30738.6
30748.3
30757.1
30765
30771.9
30778
30783.1
30787.3
30790.6
30793
30794.4
30794.8
30794.2
30792.7
30790.2
30786.7
30782.1
30776.6
30770.1
30762.5
30753.9
30744.3
30733.6
30721.9
30709
30694.9
30679.7
30663.2
30645.4
30626.3
30605.7
30583.6
30559.9
30534.5
30507.4
30478.4
30447.6
30414.7
30379.8
30342.8
30303.5
30262
30218.1
30171.9
30123.2
30072.1
30018.5
29962.5
29904
29843
29779.7
29713.9
29645.9
29575.6
29503.1
29428.7
29352.3
29274.1
29194.3
29113
29030.5
28947
28862.6
28777.6
28692.2
28606.6
28521.1
28436
28351.5
28267.8
28185.3
28104.1
28024.6
27946.9
27871.4
27798.2
27727.6
27659.8
27595
27533.4
27475.1
27420.3
27369.2
27321.9
27278.5
27239.1
27203.8
27172.7
27145.8
27123.2
27104.8
27090.8
27081.2
27075.8
27074.7
27077.9
27085.4
27096.9
27112.6
27132.4
27156.1
27183.7
27215.1
27250.2
27288.9
27331.1
27376.7
27425.6
27477.6
27532.6
27590.5
27651.2
27714.6
27780.5
27848.8
27919.3
27991.9
28066.5
28142.9
28221
28300.7
28381.8
28464.2
28547.7
28632.2
28717.5
28803.6
28890.2
28977.3
29064.7
29152.3
29239.9
29327.4
29414.8
29501.8
29588.5
29674.6
29759.9
29844.6
29928.5
30011.5
30093.5
30174.4
30254.1
30332.6
30409.8
30485.7
30560.2
30633.2
30704.7
30774.7
30843.1
30910
30975.1
31038.6