/*--------------------------------*- C++ -*----------------------------------*\
| =========                 |                                                 |
| \\      /  F ield         | OpenFOAM: The Open Source CFD Toolbox           |
|  \\    /   O peration     | Version:  2412                                  |
|   \\  /    A nd           | Website:  www.openfoam.com                      |
|    \\/     M anipulation  |                                                 |
\*---------------------------------------------------------------------------*/
FoamFile
{
    version     2.0;
    format      ascii;
    arch        "LSB;label=32;scalar=64";
    class       surfaceScalarField;
    location    "1.25";
    object      phi;
}
// * * * * * * * * * * * * * * * * * * * * * * * * * * * * * * * * * * * * * //

dimensions      [0 3 -1 0 0 0 0];

oriented        oriented;

internalField   nonuniform List<scalar> 
12640
(
1.70546e-11
-7.36996e-11
-2.13195e-10
-3.44871e-10
-3.84939e-10
-4.69345e-10
-5.30735e-10
-4.71702e-10
-6.37418e-10
-4.66303e-10
-7.13736e-10
-4.9221e-10
-7.69061e-10
-5.28631e-10
-7.93137e-10
-5.48516e-10
-7.64192e-10
-5.50655e-10
-6.82495e-10
-5.39947e-10
-5.74793e-10
-5.10653e-10
-4.63021e-10
-4.5387e-10
-3.30955e-10
-3.93661e-10
-1.56168e-10
-3.72666e-10
5.3133e-11
-4.06277e-10
2.61339e-10
-4.56969e-10
4.48904e-10
-4.68093e-10
6.33063e-10
-4.10133e-10
8.46326e-10
-2.9927e-10
1.09997e-09
-1.75794e-10
1.37025e-09
-7.5159e-11
1.61251e-09
-1.25558e-11
1.78594e-09
1.28997e-11
1.86897e-09
8.44698e-12
1.86e-09
-1.86166e-11
1.76989e-09
-6.12893e-11
1.61432e-09
-1.12192e-10
1.40881e-09
-1.64249e-10
1.16546e-09
-2.12648e-10
8.90728e-10
-2.56011e-10
5.85131e-10
-2.95995e-10
2.45761e-10
-3.35613e-10
-1.29353e-10
-3.77243e-10
-5.37004e-10
-4.21022e-10
-9.66542e-10
-4.64157e-10
-1.40038e-09
-5.0137e-10
-1.81696e-09
-5.26376e-10
-2.195e-09
-5.33867e-10
-2.51762e-09
-5.21219e-10
-2.77491e-09
-4.89245e-10
-2.96403e-09
-4.4172e-10
-3.08718e-09
-3.83975e-10
-3.14826e-09
-3.21145e-10
-3.14989e-09
-2.56773e-10
-3.09186e-09
-1.92216e-10
-2.97172e-09
-1.26936e-10
-2.78705e-09
-5.94684e-11
-2.53841e-09
1.13608e-11
-2.2315e-09
8.5369e-11
-1.87759e-09
1.60462e-10
-1.49195e-09
2.32763e-10
-1.0907e-09
2.97393e-10
-6.87501e-10
3.49642e-10
-2.91039e-10
3.86113e-10
9.54574e-11
4.05432e-10
4.72702e-10
4.08245e-10
8.42293e-10
3.96603e-10
1.20331e-09
3.72997e-10
1.54984e-09
3.39471e-10
1.87043e-09
2.97084e-10
2.14985e-09
2.45798e-10
2.37257e-09
1.8476e-10
2.52703e-09
1.12871e-10
2.60906e-09
2.97077e-11
2.62344e-09
-6.37736e-11
2.58274e-09
-1.64933e-10
2.50432e-09
-2.70713e-10
2.4058e-09
-3.78842e-10
2.3008e-09
-4.88931e-10
2.19516e-09
-6.00788e-10
2.08695e-09
-7.13673e-10
1.96849e-09
-8.25417e-10
1.83016e-09
-9.34817e-10
1.66308e-09
-1.04202e-09
1.46603e-09
-1.14884e-09
1.25193e-09
-1.24967e-09
1.03894e-09
-1.30756e-09
8.04786e-10
-1.23183e-09
4.64082e-10
-9.4775e-10
-4.90472e-10
-2.41444e-10
-2.50563e-10
-6.19e-10
-6.88977e-10
-9.57093e-10
-9.19307e-10
-1.3137e-09
-9.49231e-10
-1.62979e-09
-8.92794e-10
-1.85262e-09
-8.44453e-10
-1.98229e-09
-8.13087e-10
-2.01858e-09
-7.72832e-10
-1.94181e-09
-7.10628e-10
-1.74059e-09
-6.39424e-10
-1.45601e-09
-5.57597e-10
-1.14625e-09
-4.47017e-10
-8.17902e-10
-3.09661e-10
-4.23877e-10
-1.90982e-10
6.48009e-11
-1.35472e-10
6.21347e-10
-1.40362e-10
1.19551e-09
-1.56498e-10
1.76632e-09
-1.36935e-10
2.34425e-09
-7.37643e-11
2.93507e-09
2.82886e-12
3.50852e-09
5.38474e-11
4.00351e-09
5.57265e-11
4.35701e-09
6.04516e-12
4.53083e-09
-8.52497e-11
4.51898e-09
-2.0559e-10
4.33898e-09
-3.44597e-10
4.01779e-09
-4.94215e-10
3.58081e-09
-6.47785e-10
3.04552e-09
-7.99627e-10
2.41937e-09
-9.45135e-10
1.70203e-09
-1.08063e-09
8.91595e-10
-1.20286e-09
-7.41485e-12
-1.30845e-09
-9.77789e-10
-1.39352e-09
-1.98786e-09
-1.45373e-09
-2.99493e-09
-1.48465e-09
-3.95243e-09
-1.4825e-09
-4.81819e-09
-1.44504e-09
-5.5609e-09
-1.37241e-09
-6.1629e-09
-1.26748e-09
-6.61875e-09
-1.13551e-09
-6.93042e-09
-9.83184e-10
-7.10149e-09
-8.1735e-10
-7.1325e-09
-6.43874e-10
-7.01952e-09
-4.6704e-10
-6.75619e-09
-2.89597e-10
-6.33854e-09
-1.13367e-10
-5.77021e-09
5.98645e-11
-5.06601e-09
2.27536e-10
-4.25204e-09
3.85835e-10
-3.36206e-09
5.29745e-10
-2.43147e-09
6.53597e-10
-1.4909e-09
7.51966e-10
-5.61902e-10
8.20614e-10
3.4379e-10
8.57193e-10
1.22135e-09
8.615e-10
2.06743e-09
8.35269e-10
2.87451e-09
7.8169e-10
3.62717e-09
7.0486e-10
4.30189e-09
6.09301e-10
4.87076e-09
4.99505e-10
5.30803e-09
3.79398e-10
5.59737e-09
2.51871e-10
5.7371e-09
1.1847e-10
5.74112e-09
-2.03604e-11
5.63555e-09
-1.65073e-10
5.45208e-09
-3.16554e-10
5.22153e-09
-4.76228e-10
4.96702e-09
-6.44844e-10
4.69988e-09
-8.21254e-10
4.41744e-09
-1.0001e-09
4.1076e-09
-1.17339e-09
3.75412e-09
-1.33458e-09
3.34636e-09
-1.48666e-09
2.89291e-09
-1.64437e-09
2.43797e-09
-1.82007e-09
2.03194e-09
-1.97684e-09
1.59782e-09
-1.97883e-09
8.65443e-10
-1.62221e-09
-7.61407e-10
-4.53961e-10
-3.38701e-10
-9.04348e-10
-8.92566e-10
-1.29002e-09
-1.21346e-09
-1.73449e-09
-1.30433e-09
-2.16875e-09
-1.25833e-09
-2.48701e-09
-1.1778e-09
-2.65506e-09
-1.10655e-09
-2.68781e-09
-1.02798e-09
-2.57956e-09
-9.29991e-10
-2.31091e-09
-8.28409e-10
-1.90719e-09
-7.34181e-10
-1.45142e-09
-6.18867e-10
-9.87233e-10
-4.53812e-10
-4.72629e-10
-2.61449e-10
1.61433e-10
-1.07419e-10
9.22209e-10
-3.64747e-11
1.752e-09
-3.55153e-11
2.58457e-09
-5.49657e-11
3.38692e-09
-5.8614e-11
4.14723e-09
-4.72428e-11
4.84299e-09
-4.71118e-11
5.42751e-09
-8.39035e-11
5.84571e-09
-1.6782e-10
6.05813e-09
-2.9437e-10
6.05331e-09
-4.52963e-10
5.84346e-09
-6.33425e-10
5.45224e-09
-8.27704e-10
4.90344e-09
-1.02873e-09
4.21426e-09
-1.22935e-09
3.39357e-09
-1.42235e-09
2.4448e-09
-1.60096e-09
1.37233e-09
-1.75923e-09
1.89145e-10
-1.89207e-09
-1.07758e-09
-1.99503e-09
-2.3858e-09
-2.06414e-09
-3.68308e-09
-2.09595e-09
-4.91466e-09
-2.08773e-09
-6.03198e-09
-2.03799e-09
-6.99899e-09
-1.94715e-09
-7.79422e-09
-1.81794e-09
-8.40859e-09
-1.65543e-09
-8.84023e-09
-1.46641e-09
-9.08869e-09
-1.25836e-09
-9.15084e-09
-1.03834e-09
-9.02017e-09
-8.12087e-10
-8.68947e-09
-5.83766e-10
-8.15601e-09
-3.56322e-10
-7.42679e-09
-1.32302e-10
-6.52184e-09
8.51836e-11
-5.47387e-09
2.91756e-10
-4.32414e-09
4.81578e-10
-3.11597e-09
6.4778e-10
-1.88809e-09
7.83385e-10
-6.70151e-10
8.82489e-10
5.18146e-10
9.41316e-10
1.66429e-09
9.58868e-10
2.75793e-09
9.36971e-10
3.78565e-09
8.79786e-10
4.72769e-09
7.9297e-10
5.55793e-09
6.82756e-10
6.24742e-09
5.55097e-10
6.77065e-09
4.15001e-10
7.11254e-09
2.65992e-10
7.27341e-09
1.09864e-10
7.2697e-09
-5.34929e-11
7.12981e-09
-2.25625e-10
6.88797e-09
-4.08838e-10
6.57749e-09
-6.04574e-10
6.22605e-09
-8.12508e-10
5.84978e-09
-1.02864e-09
5.45065e-09
-1.24434e-09
5.01575e-09
-1.44545e-09
4.52449e-09
-1.61856e-09
3.9604e-09
-1.76181e-09
3.33976e-09
-1.895e-09
2.73993e-09
-2.04653e-09
2.26335e-09
-2.2023e-09
1.82124e-09
-2.22873e-09
1.05554e-09
-1.86191e-09
-8.53962e-10
-5.61684e-10
-4.5369e-10
-1.06563e-09
-1.09516e-09
-1.45209e-09
-1.4712e-09
-1.89179e-09
-1.62784e-09
-2.35569e-09
-1.63935e-09
-2.71111e-09
-1.58925e-09
-2.89411e-09
-1.52408e-09
-2.91719e-09
-1.44416e-09
-2.80034e-09
-1.33402e-09
-2.51107e-09
-1.21682e-09
-2.04478e-09
-1.12375e-09
-1.4815e-09
-1.04121e-09
-9.14564e-10
-9.13196e-10
-3.39611e-10
-7.16788e-10
3.25275e-10
-4.98229e-10
1.13646e-09
-3.33766e-10
2.06214e-09
-2.61128e-10
3.01857e-09
-2.60748e-10
3.93209e-09
-2.88343e-10
4.76416e-09
-3.16633e-10
5.49224e-09
-3.47642e-10
6.08681e-09
-3.99211e-10
6.50919e-09
-4.8608e-10
6.72645e-09
-6.11598e-10
6.72415e-09
-7.70035e-10
6.50755e-09
-9.52442e-10
6.09377e-09
-1.15021e-09
5.50244e-09
-1.35566e-09
4.74946e-09
-1.56151e-09
3.84525e-09
-1.76068e-09
2.7972e-09
-1.94656e-09
1.61528e-09
-2.1132e-09
3.18491e-10
-2.2552e-09
-1.06094e-09
-2.36753e-09
-2.4776e-09
-2.44543e-09
-3.87756e-09
-2.48462e-09
-5.20596e-09
-2.48176e-09
-6.41474e-09
-2.43504e-09
-7.46792e-09
-2.34477e-09
-8.34293e-09
-2.21368e-09
-9.02813e-09
-2.04684e-09
-9.51793e-09
-1.85094e-09
-9.80779e-09
-1.63329e-09
-9.89115e-09
-1.40063e-09
-9.75949e-09
-1.15836e-09
-9.4055e-09
-9.10271e-10
-8.82803e-09
-6.59044e-10
-8.0368e-09
-4.07242e-10
-7.05494e-09
-1.58379e-10
-5.91802e-09
8.2303e-11
-4.66975e-09
3.07697e-10
-3.35563e-09
5.09376e-10
-2.01676e-09
6.78711e-10
-6.85758e-10
8.08235e-10
6.13876e-10
8.92902e-10
1.86529e-09
9.30872e-10
3.05388e-09
9.23642e-10
4.163e-09
8.75449e-10
5.17137e-09
7.92172e-10
6.0533e-09
6.8002e-10
6.78166e-09
5.44428e-10
7.33326e-09
3.89453e-10
7.69456e-09
2.17795e-10
7.86605e-09
3.09651e-11
7.8627e-09
-1.70558e-10
7.71111e-09
-3.87433e-10
7.44382e-09
-6.20484e-10
7.09457e-09
-8.69538e-10
6.69287e-09
-1.13172e-09
6.26024e-09
-1.40154e-09
5.80338e-09
-1.66868e-09
5.31146e-09
-1.91679e-09
4.75624e-09
-2.12439e-09
4.10948e-09
-2.27723e-09
3.3801e-09
-2.38136e-09
2.66604e-09
-2.46333e-09
2.11795e-09
-2.52682e-09
1.68981e-09
-2.47061e-09
1.00877e-09
-2.03079e-09
-9.07912e-10
-5.78416e-10
-6.53146e-10
-1.13287e-09
-1.40605e-09
-1.52686e-09
-1.79317e-09
-1.94032e-09
-1.96714e-09
-2.37923e-09
-2.03323e-09
-2.73131e-09
-2.04432e-09
-2.90791e-09
-2.03279e-09
-2.91949e-09
-1.99253e-09
-2.80647e-09
-1.90275e-09
-2.54213e-09
-1.77788e-09
-2.07461e-09
-1.67695e-09
-1.45198e-09
-1.62559e-09
-7.95373e-10
-1.57645e-09
-1.67479e-10
-1.45967e-09
4.86295e-10
-1.26669e-09
1.25263e-09
-1.05795e-09
2.15121e-09
-9.05027e-10
3.11834e-09
-8.34282e-10
4.06399e-09
-8.25418e-10
4.9211e-09
-8.4491e-10
5.65312e-09
-8.75566e-10
6.23507e-09
-9.20742e-10
6.64126e-09
-9.9201e-10
6.8482e-09
-1.09655e-09
6.84323e-09
-1.23306e-09
6.62793e-09
-1.39438e-09
6.21445e-09
-1.57153e-09
5.61873e-09
-1.75619e-09
4.8551e-09
-1.9414e-09
3.93444e-09
-2.12147e-09
2.86624e-09
-2.29155e-09
1.66362e-09
-2.4471e-09
3.48663e-10
-2.58321e-09
-1.04424e-09
-2.69427e-09
-2.46918e-09
-2.77413e-09
-3.87344e-09
-2.81686e-09
-5.20456e-09
-2.81768e-09
-6.41724e-09
-2.77388e-09
-7.47766e-09
-2.68546e-09
-8.3641e-09
-2.5552e-09
-9.06413e-09
-2.38827e-09
-9.56994e-09
-2.19124e-09
-9.87397e-09
-1.97092e-09
-9.96671e-09
-1.73324e-09
-9.83768e-09
-1.48255e-09
-9.47902e-09
-1.22174e-09
-8.89052e-09
-9.52946e-10
-8.08386e-09
-6.78749e-10
-7.08443e-09
-4.03281e-10
-5.92967e-09
-1.32882e-10
-4.66431e-09
1.2397e-10
-3.33404e-09
3.57443e-10
-1.97957e-09
5.57582e-10
-6.33018e-10
7.15709e-10
6.82293e-10
8.25611e-10
1.94919e-09
8.84345e-10
3.15234e-09
8.92431e-10
4.27427e-09
8.53425e-10
5.29315e-09
7.72818e-10
6.18332e-09
6.56506e-10
6.91843e-09
5.09257e-10
7.4763e-09
3.33903e-10
7.84416e-09
1.31567e-10
8.02185e-09
-9.73184e-11
8.02254e-09
-3.52248e-10
7.87018e-09
-6.3212e-10
7.59599e-09
-9.35031e-10
7.23277e-09
-1.25697e-09
6.81116e-09
-1.59173e-09
6.35432e-09
-1.93047e-09
5.8748e-09
-2.26259e-09
5.36528e-09
-2.57191e-09
4.79675e-09
-2.83629e-09
4.12751e-09
-3.03079e-09
3.34938e-09
-3.14238e-09
2.55042e-09
-3.17458e-09
1.90797e-09
-3.12554e-09
1.43733e-09
-2.91181e-09
8.34193e-10
-2.30188e-09
-9.97308e-10
-5.29745e-10
-8.77188e-10
-1.11655e-09
-1.79003e-09
-1.54175e-09
-2.18243e-09
-1.95303e-09
-2.336e-09
-2.36748e-09
-2.41215e-09
-2.69746e-09
-2.46958e-09
-2.8571e-09
-2.51721e-09
-2.84208e-09
-2.54357e-09
-2.72657e-09
-2.5073e-09
-2.50848e-09
-2.39797e-09
-2.10679e-09
-2.27406e-09
-1.49843e-09
-2.21348e-09
-7.893e-10
-2.21704e-09
-9.57085e-11
-2.20969e-09
5.69131e-10
-2.12284e-09
1.28093e-09
-1.9615e-09
2.09858e-09
-1.78652e-09
3.00383e-09
-1.65618e-09
3.9204e-09
-1.58858e-09
4.76786e-09
-1.56933e-09
5.49062e-09
-1.57832e-09
6.05624e-09
-1.6073e-09
6.44333e-09
-1.65946e-09
6.63642e-09
-1.74004e-09
6.62766e-09
-1.84954e-09
6.41865e-09
-1.98256e-09
6.01872e-09
-2.13075e-09
5.44058e-09
-2.28579e-09
4.69626e-09
-2.44133e-09
3.79577e-09
-2.59317e-09
2.74913e-09
-2.73844e-09
1.57093e-09
-2.87419e-09
2.84944e-10
-2.99611e-09
-1.07351e-09
-3.098e-09
-2.45893e-09
-3.17225e-09
-3.82052e-09
-3.21114e-09
-5.10892e-09
-3.20836e-09
-6.2823e-09
-3.16028e-09
-7.30991e-09
-3.0666e-09
-8.17196e-09
-2.93019e-09
-8.85636e-09
-2.75629e-09
-9.35414e-09
-2.55124e-09
-9.6555e-09
-2.32119e-09
-9.74838e-09
-2.0711e-09
-9.62025e-09
-1.80435e-09
-9.26236e-09
-1.52316e-09
-8.67495e-09
-1.22959e-09
-7.8712e-09
-9.26838e-10
-6.87837e-09
-6.20277e-10
-5.73547e-09
-3.1779e-10
-4.48787e-09
-2.93134e-11
-3.18081e-09
2.34239e-10
-1.85355e-09
4.62339e-10
-5.36147e-10
6.46027e-10
7.5039e-10
7.78752e-10
1.99103e-09
8.56807e-10
3.1721e-09
8.79495e-10
4.27705e-09
8.48966e-10
5.28408e-09
7.6958e-10
6.16674e-09
6.4661e-10
6.89754e-09
4.84607e-10
7.45354e-09
2.86175e-10
7.82159e-09
5.18994e-11
8.00134e-09
-2.18585e-10
8.00496e-09
-5.25043e-10
7.85554e-09
-8.65603e-10
7.58309e-09
-1.23598e-09
7.22031e-09
-1.62955e-09
6.79575e-09
-2.03656e-09
6.33195e-09
-2.44484e-09
5.8416e-09
-2.83895e-09
5.32489e-09
-3.20161e-09
4.7586e-09
-3.51114e-09
4.10247e-09
-3.74507e-09
3.32911e-09
-3.88245e-09
2.50028e-09
-3.91007e-09
1.78324e-09
-3.79966e-09
1.24629e-09
-3.45851e-09
6.82604e-10
-2.66831e-09
-1.15205e-09
-4.62324e-10
-1.08444e-09
-1.04545e-09
-2.19466e-09
-1.49804e-09
-2.62995e-09
-1.93422e-09
-2.76224e-09
-2.34469e-09
-2.8186e-09
-2.66687e-09
-2.87833e-09
-2.81213e-09
-2.95613e-09
-2.76552e-09
-3.03776e-09
-2.6173e-09
-3.07956e-09
-2.42916e-09
-3.02639e-09
-2.12539e-09
-2.89977e-09
-1.61614e-09
-2.7917e-09
-9.3208e-10
-2.77158e-09
-1.97505e-10
-2.81124e-09
5.09094e-10
-2.82799e-09
1.20724e-09
-2.76812e-09
1.95743e-09
-2.64571e-09
2.77836e-09
-2.51238e-09
3.62769e-09
-2.4111e-09
4.4331e-09
-2.35547e-09
5.12957e-09
-2.33888e-09
5.67382e-09
-2.35178e-09
6.04171e-09
-2.39012e-09
6.22156e-09
-2.4539e-09
6.21025e-09
-2.54223e-09
6.01136e-09
-2.65103e-09
5.63299e-09
-2.77356e-09
5.08486e-09
-2.90289e-09
4.37596e-09
-3.03359e-09
3.51435e-09
-3.1624e-09
2.50967e-09
-3.28729e-09
1.37746e-09
-3.40587e-09
1.42871e-10
-3.51387e-09
-1.15801e-09
-3.60455e-09
-2.48036e-09
-3.66929e-09
-3.77571e-09
-3.69922e-09
-4.99827e-09
-3.68704e-09
-6.11025e-09
-3.6285e-09
-7.08449e-09
-3.52302e-09
-7.90359e-09
-3.37337e-09
-8.55626e-09
-3.18456e-09
-9.03273e-09
-2.96251e-09
-9.32128e-09
-2.71266e-09
-9.40758e-09
-2.43925e-09
-9.27722e-09
-2.1452e-09
-8.92068e-09
-1.83277e-09
-8.33865e-09
-1.50472e-09
-7.54573e-09
-1.16554e-09
-6.57083e-09
-8.22262e-10
-5.45409e-09
-4.84499e-10
-4.24097e-09
-1.6359e-10
-2.97558e-09
1.2881e-10
-1.69508e-09
3.82169e-10
-4.26875e-10
5.88058e-10
8.10874e-10
7.40432e-10
2.00595e-09
8.35506e-10
3.14725e-09
8.71571e-10
4.22015e-09
8.49032e-10
5.2036e-09
7.70373e-10
6.07042e-09
6.39583e-10
6.79125e-09
4.60975e-10
7.34104e-09
2.37848e-10
7.70532e-09
-2.81206e-11
7.8832e-09
-3.36503e-10
7.88714e-09
-6.867e-10
7.74003e-09
-1.0761e-09
7.47226e-09
-1.4991e-09
7.11553e-09
-1.94711e-09
6.69799e-09
-2.40981e-09
6.23819e-09
-2.87319e-09
5.7474e-09
-3.31838e-09
5.22575e-09
-3.71955e-09
4.6615e-09
-4.0517e-09
4.02302e-09
-4.29539e-09
3.28143e-09
-4.44219e-09
2.47037e-09
-4.47953e-09
1.73367e-09
-4.36204e-09
1.16143e-09
-3.96532e-09
6.22087e-10
-3.05761e-09
-1.35206e-09
-4.22455e-10
-1.26695e-09
-9.67497e-10
-2.58175e-09
-1.42147e-09
-3.09771e-09
-1.86894e-09
-3.24415e-09
-2.28888e-09
-3.28242e-09
-2.61896e-09
-3.32375e-09
-2.77964e-09
-3.39012e-09
-2.71884e-09
-3.49223e-09
-2.52384e-09
-3.60188e-09
-2.31354e-09
-3.64686e-09
-2.08103e-09
-3.57987e-09
-1.70776e-09
-3.45374e-09
-1.13754e-09
-3.36576e-09
-4.35867e-10
-3.36067e-09
2.92838e-10
-3.39757e-09
1.00733e-09
-3.40876e-09
1.72909e-09
-3.36164e-09
2.48408e-09
-3.27286e-09
3.25808e-09
-3.18012e-09
4.00089e-09
-3.11224e-09
4.65273e-09
-3.07975e-09
5.16605e-09
-3.08089e-09
5.51247e-09
-3.11091e-09
5.68007e-09
-3.16571e-09
5.66799e-09
-3.24186e-09
5.48145e-09
-3.33517e-09
5.12812e-09
-3.44064e-09
4.61534e-09
-3.55319e-09
3.94916e-09
-3.66877e-09
3.13536e-09
-3.7845e-09
2.18287e-09
-3.898e-09
1.10789e-09
-4.00609e-09
-6.31659e-11
-4.10365e-09
-1.29356e-09
-4.18325e-09
-2.53932e-09
-4.23589e-09
-3.75462e-09
-4.25247e-09
-4.89764e-09
-4.22562e-09
-5.93506e-09
-4.15099e-09
-6.84361e-09
-4.02787e-09
-7.60845e-09
-3.85869e-09
-8.2192e-09
-3.64798e-09
-8.66545e-09
-3.40099e-09
-8.93384e-09
-3.12256e-09
-9.00809e-09
-2.81663e-09
-8.87242e-09
-2.48634e-09
-8.51688e-09
-2.13483e-09
-7.9429e-09
-1.76626e-09
-7.16649e-09
-1.38681e-09
-6.21799e-09
-1.00521e-09
-5.13809e-09
-6.32496e-10
-3.97153e-09
-2.80941e-10
-2.76036e-09
3.74978e-11
-1.53894e-09
3.12706e-10
-3.31715e-10
5.37208e-10
8.45845e-10
7.06049e-10
1.98394e-09
8.15976e-10
3.0738e-09
8.64706e-10
4.10296e-09
8.50811e-10
5.05189e-09
7.7417e-10
5.89361e-09
6.36436e-10
6.59753e-09
4.40856e-10
7.13658e-09
1.91565e-10
7.49426e-09
-1.07661e-10
7.66877e-09
-4.54132e-10
7.6725e-09
-8.46006e-10
7.52915e-09
-1.28008e-09
7.26828e-09
-1.74923e-09
6.92099e-09
-2.24238e-09
6.51332e-09
-2.74651e-09
6.06486e-09
-3.24838e-09
5.5841e-09
-3.72862e-09
5.07129e-09
-4.15829e-09
4.51318e-09
-4.50145e-09
3.8898e-09
-4.73782e-09
3.17635e-09
-4.86909e-09
2.40415e-09
-4.90276e-09
1.69115e-09
-4.79055e-09
1.13436e-09
-4.38624e-09
6.215e-10
-3.42413e-09
-1.56146e-09
-4.24382e-10
-1.4519e-09
-9.2939e-10
-2.94994e-09
-1.34922e-09
-3.5597e-09
-1.77448e-09
-3.74897e-09
-2.17973e-09
-3.80541e-09
-2.52208e-09
-3.8426e-09
-2.72244e-09
-3.89262e-09
-2.70021e-09
-3.97753e-09
-2.48331e-09
-4.1161e-09
-2.22055e-09
-4.25379e-09
-1.98685e-09
-4.30594e-09
-1.71291e-09
-4.2466e-09
-1.28839e-09
-4.14107e-09
-6.99195e-10
-4.06821e-09
-1.45429e-11
-4.0514e-09
6.94317e-10
-4.05675e-09
1.40428e-09
-4.04236e-09
2.11863e-09
-3.99438e-09
2.83054e-09
-3.92769e-09
3.50797e-09
-3.867e-09
4.10465e-09
-3.82997e-09
4.57761e-09
-3.82353e-09
4.89798e-09
-3.84648e-09
5.05285e-09
-3.89459e-09
5.04107e-09
-3.96269e-09
4.86797e-09
-4.04608e-09
4.54045e-09
-4.14038e-09
4.06422e-09
-4.24197e-09
3.44317e-09
-4.34775e-09
2.68146e-09
-4.45491e-09
1.78742e-09
-4.56007e-09
7.7767e-10
-4.65848e-09
-3.20676e-10
-4.74358e-09
-1.4708e-09
-4.80711e-09
-2.63003e-09
-4.84007e-09
-3.75547e-09
-4.83396e-09
-4.80943e-09
-4.78221e-09
-5.76309e-09
-4.68116e-09
-6.59707e-09
-4.53033e-09
-7.29911e-09
-4.33196e-09
-7.85981e-09
-4.08999e-09
-8.26838e-09
-3.80897e-09
-8.51025e-09
-3.49331e-09
-8.56784e-09
-3.147e-09
-8.42454e-09
-2.77399e-09
-8.07047e-09
-2.37891e-09
-7.50786e-09
-1.96779e-09
-6.75402e-09
-1.54869e-09
-5.84023e-09
-1.13178e-09
-4.80713e-09
-7.28867e-10
-3.6979e-09
-3.52391e-10
-2.5517e-09
-1.39246e-11
-1.39935e-09
2.77195e-10
-2.62018e-10
5.14631e-10
8.47186e-10
6.94704e-10
1.92004e-09
8.15179e-10
2.94914e-09
8.73846e-10
3.92376e-09
8.67803e-10
4.82626e-09
7.93943e-10
5.63125e-09
6.50248e-10
6.30868e-09
4.37426e-10
6.83056e-09
1.59399e-10
7.17847e-09
-1.77481e-10
7.34865e-09
-5.67173e-10
7.35326e-09
-1.00561e-09
7.21677e-09
-1.48987e-09
6.96949e-09
-2.01346e-09
6.63887e-09
-2.56264e-09
6.24793e-09
-3.11836e-09
5.81395e-09
-3.66108e-09
5.35117e-09
-4.17236e-09
4.85965e-09
-4.62491e-09
4.32489e-09
-4.98281e-09
3.72034e-09
-5.21653e-09
3.03179e-09
-5.33161e-09
2.29618e-09
-5.34597e-09
1.6271e-09
-5.22876e-09
1.10734e-09
-4.82101e-09
6.18827e-10
-3.82505e-09
-1.79087e-09
-4.47502e-10
-1.66533e-09
-9.34555e-10
-3.33507e-09
-1.31392e-09
-4.02303e-09
-1.68289e-09
-4.27167e-09
-2.04393e-09
-4.37798e-09
-2.36765e-09
-4.4591e-09
-2.61234e-09
-4.52189e-09
-2.66954e-09
-4.58999e-09
-2.50071e-09
-4.70836e-09
-2.20927e-09
-4.88357e-09
-1.9319e-09
-5.04099e-09
-1.67748e-09
-5.10595e-09
-1.35723e-09
-5.07134e-09
-9.00191e-10
-4.99374e-09
-3.18736e-10
-4.92691e-09
3.33123e-10
-4.8845e-09
1.00935e-09
-4.84971e-09
1.68688e-09
-4.80503e-09
2.34809e-09
-4.74957e-09
2.9665e-09
-4.69516e-09
3.50691e-09
-4.65679e-09
3.93467e-09
-4.64364e-09
4.22485e-09
-4.65829e-09
4.36499e-09
-4.69775e-09
4.35333e-09
-4.75711e-09
4.19387e-09
-4.83101e-09
3.89223e-09
-4.91515e-09
3.45265e-09
-5.00609e-09
2.87787e-09
-5.10098e-09
2.17132e-09
-5.19656e-09
1.34122e-09
-5.28833e-09
4.04318e-10
-5.37001e-09
-6.1235e-10
-5.43365e-09
-1.67287e-09
-5.47037e-09
-2.73666e-09
-5.47145e-09
-3.76413e-09
-5.42947e-09
-4.72172e-09
-5.33928e-09
-5.58483e-09
-5.19849e-09
-6.33766e-09
-5.00736e-09
-6.97033e-09
-4.76824e-09
-7.47447e-09
-4.48472e-09
-7.83926e-09
-4.16085e-09
-8.04958e-09
-3.80078e-09
-8.08734e-09
-3.40882e-09
-7.93579e-09
-2.99e-09
-7.58542e-09
-2.55061e-09
-7.03923e-09
-2.09864e-09
-6.31523e-09
-1.64385e-09
-5.44495e-09
-1.19741e-09
-4.46817e-09
-7.71298e-10
-3.42588e-09
-3.7732e-10
-2.35378e-09
-2.60693e-11
-1.27863e-09
2.74163e-10
-2.18075e-10
5.18007e-10
8.16999e-10
7.0283e-10
1.81912e-09
8.27531e-10
2.78093e-09
8.90716e-10
3.6921e-09
8.89111e-10
4.53669e-09
8.17074e-10
5.29209e-09
6.68216e-10
5.93133e-09
4.38392e-10
6.42785e-09
1.29213e-10
6.76197e-09
-2.51533e-10
6.92658e-09
-6.92487e-10
6.93126e-09
-1.18462e-09
6.80191e-09
-1.72361e-09
6.57159e-09
-2.30682e-09
6.26849e-09
-2.92408e-09
5.9079e-09
-3.55236e-09
5.50156e-09
-4.16121e-09
5.06186e-09
-4.72141e-09
4.59953e-09
-5.20787e-09
4.09868e-09
-5.58892e-09
3.52988e-09
-5.83707e-09
2.87333e-09
-5.94845e-09
2.17973e-09
-5.94744e-09
1.55737e-09
-5.81532e-09
1.07448e-09
-5.39987e-09
5.94685e-10
-4.35447e-09
-2.09254e-09
-4.54009e-10
-1.91305e-09
-9.62734e-10
-3.76432e-09
-1.31693e-09
-4.52357e-09
-1.63354e-09
-4.82173e-09
-1.92456e-09
-4.99663e-09
-2.19611e-09
-5.15569e-09
-2.44361e-09
-5.28676e-09
-2.58603e-09
-5.37106e-09
-2.51864e-09
-5.45924e-09
-2.27423e-09
-5.60172e-09
-1.9744e-09
-5.78528e-09
-1.69756e-09
-5.93682e-09
-1.41033e-09
-6.00252e-09
-1.04558e-09
-5.98416e-09
-5.72962e-10
-5.92092e-09
-1.28626e-11
-5.84762e-09
5.96537e-10
-5.77705e-09
1.21992e-09
-5.70907e-09
1.82748e-09
-5.64291e-09
2.38956e-09
-5.58452e-09
2.8752e-09
-5.54229e-09
3.25681e-09
-5.52382e-09
3.51439e-09
-5.53145e-09
3.63794e-09
-5.56361e-09
3.62536e-09
-5.61545e-09
3.47942e-09
-5.68167e-09
3.20395e-09
-5.75721e-09
2.80194e-09
-5.83816e-09
2.27538e-09
-5.92087e-09
1.62773e-09
-6.00128e-09
8.67369e-10
-6.07382e-09
1.09865e-11
-6.13114e-09
-9.15252e-10
-6.1645e-09
-1.87735e-09
-6.16482e-09
-2.83771e-09
-6.12396e-09
-3.7605e-09
-6.03578e-09
-4.61625e-09
-5.8968e-09
-5.38421e-09
-5.70617e-09
-6.05166e-09
-5.46528e-09
-6.61073e-09
-5.17698e-09
-7.05408e-09
-4.84485e-09
-7.37125e-09
-4.47275e-09
-7.54722e-09
-4.06481e-09
-7.56416e-09
-3.62583e-09
-7.40581e-09
-3.16188e-09
-7.06326e-09
-2.6808e-09
-6.53997e-09
-2.19231e-09
-5.85394e-09
-1.70751e-09
-5.03596e-09
-1.23816e-09
-4.12418e-09
-7.95798e-10
-3.15688e-09
-3.90937e-10
-2.16613e-09
-3.25813e-11
-1.17452e-09
2.72167e-10
-1.95927e-10
5.18395e-10
7.61177e-10
7.03404e-10
1.68978e-09
8.26237e-10
2.5813e-09
8.86403e-10
3.42386e-09
8.81784e-10
4.20144e-09
8.06865e-10
4.89452e-09
6.52486e-10
5.48167e-09
4.09197e-10
5.9421e-09
7.22514e-11
6.25779e-09
-3.53237e-10
6.41775e-09
-8.53109e-10
6.4247e-09
-1.40943e-09
6.30084e-09
-2.01019e-09
6.08373e-09
-2.65186e-09
5.80788e-09
-3.33233e-09
5.4897e-09
-4.03558e-09
5.12829e-09
-4.72578e-09
4.72806e-09
-5.3595e-09
4.29893e-09
-5.89928e-09
3.83999e-09
-6.31784e-09
3.31918e-09
-6.58896e-09
2.71722e-09
-6.70983e-09
2.07587e-09
-6.69983e-09
1.50731e-09
-6.55836e-09
1.05444e-09
-6.13343e-09
5.75709e-10
-5.02599e-09
-2.4784e-09
-4.30806e-10
-2.17218e-09
-9.82674e-10
-4.24347e-09
-1.34801e-09
-5.07395e-09
-1.63325e-09
-5.40613e-09
-1.86723e-09
-5.62159e-09
-2.05591e-09
-5.8608e-09
-2.25677e-09
-6.08818e-09
-2.42937e-09
-6.24827e-09
-2.46913e-09
-6.34501e-09
-2.32709e-09
-6.4453e-09
-2.07518e-09
-6.58425e-09
-1.79636e-09
-6.73733e-09
-1.51291e-09
-6.84873e-09
-1.18978e-09
-6.88676e-09
-7.94988e-10
-6.85758e-09
-3.24264e-10
-6.78677e-09
2.01746e-10
-6.69923e-09
7.52176e-10
-6.60959e-09
1.29404e-09
-6.52773e-09
1.79448e-09
-6.46034e-09
2.22401e-09
-6.41456e-09
2.55852e-09
-6.39437e-09
2.78245e-09
-6.40133e-09
2.88798e-09
-6.43275e-09
2.87374e-09
-6.48404e-09
2.74131e-09
-6.54908e-09
2.49313e-09
-6.62216e-09
2.13083e-09
-6.6979e-09
1.65597e-09
-6.77144e-09
1.07204e-09
-6.8374e-09
3.87692e-10
-6.88931e-09
-3.80788e-10
-6.91921e-09
-1.20868e-09
-6.91828e-09
-2.06472e-09
-6.87779e-09
-2.91501e-09
-6.79048e-09
-3.72793e-09
-6.65153e-09
-4.4781e-09
-6.45903e-09
-5.14825e-09
-6.21368e-09
-5.72821e-09
-5.9181e-09
-6.21176e-09
-5.57594e-09
-6.59252e-09
-5.19121e-09
-6.86063e-09
-4.76798e-09
-7.00178e-09
-4.31067e-09
-6.99899e-09
-3.82468e-09
-6.83699e-09
-3.31702e-09
-6.5076e-09
-2.79681e-09
-6.01435e-09
-2.27513e-09
-5.37436e-09
-1.7642e-09
-4.61665e-09
-1.27619e-09
-3.77686e-09
-8.21982e-10
-2.89029e-09
-4.10392e-10
-1.98563e-09
-4.81691e-11
-1.08194e-09
2.59444e-10
-1.89598e-10
5.07988e-10
6.85772e-10
6.93547e-10
1.53842e-09
8.13102e-10
2.35884e-09
8.64844e-10
3.1322e-09
8.47537e-10
3.83979e-09
7.5822e-10
4.46233e-09
5.9021e-10
4.9841e-09
3.32753e-10
5.39347e-09
-2.43306e-11
5.68071e-09
-4.84549e-10
5.83547e-09
-1.03803e-09
5.85222e-09
-1.66357e-09
5.74147e-09
-2.3366e-09
5.53628e-09
-3.04318e-09
5.2803e-09
-3.78098e-09
4.99991e-09
-4.54559e-09
4.69394e-09
-5.3098e-09
4.34834e-09
-6.0225e-09
3.96694e-09
-6.6311e-09
3.55459e-09
-7.09595e-09
3.09638e-09
-7.39514e-09
2.56457e-09
-7.52507e-09
1.99138e-09
-7.51351e-09
1.47534e-09
-7.36431e-09
1.05317e-09
-6.93163e-09
5.71964e-10
-5.74933e-09
-2.89392e-09
-3.8244e-10
-2.41406e-09
-9.80928e-10
-4.74022e-09
-1.36866e-09
-5.66941e-09
-1.65988e-09
-6.01053e-09
-1.86332e-09
-6.22405e-09
-1.98683e-09
-6.48724e-09
-2.10246e-09
-6.79529e-09
-2.24386e-09
-7.05493e-09
-2.33229e-09
-7.22511e-09
-2.29555e-09
-7.33408e-09
-2.13572e-09
-7.43724e-09
-1.90923e-09
-7.54881e-09
-1.64932e-09
-7.6449e-09
-1.35597e-09
-7.69425e-09
-1.01336e-09
-7.68482e-09
-6.1518e-10
-7.62717e-09
-1.70574e-10
-7.54018e-09
2.99082e-10
-7.44475e-09
7.64569e-10
-7.35573e-09
1.19558e-09
-7.28553e-09
1.56397e-09
-7.24073e-09
1.84908e-09
-7.22551e-09
2.03769e-09
-7.23903e-09
2.12434e-09
-7.27827e-09
2.10791e-09
-7.3372e-09
1.98969e-09
-7.40921e-09
1.77072e-09
-7.48698e-09
1.45167e-09
-7.56375e-09
1.03335e-09
-7.6328e-09
5.19154e-10
-7.68742e-09
-8.24571e-11
-7.72016e-09
-7.55937e-10
-7.7229e-09
-1.47853e-09
-7.68711e-09
-2.22216e-09
-7.60496e-09
-2.95709e-09
-7.47031e-09
-3.65616e-09
-7.27968e-09
-4.2981e-09
-7.03252e-09
-4.86885e-09
-6.73082e-09
-5.36048e-09
-6.37836e-09
-5.76809e-09
-5.9797e-09
-6.08615e-09
-5.53955e-09
-6.3056e-09
-5.0626e-09
-6.41315e-09
-4.55388e-09
-6.39314e-09
-4.01946e-09
-6.23161e-09
-3.46725e-09
-5.92117e-09
-2.90735e-09
-5.46507e-09
-2.35188e-09
-4.87882e-09
-1.81402e-09
-4.18853e-09
-1.30644e-09
-3.42628e-09
-8.3973e-10
-2.62384e-09
-4.21354e-10
-1.80701e-09
-5.57285e-11
-9.92681e-10
2.54436e-10
-1.89248e-10
5.06197e-10
5.99868e-10
6.9496e-10
1.3713e-09
8.14632e-10
2.11681e-09
8.59411e-10
2.82056e-09
8.25514e-10
3.46028e-09
7.11531e-10
4.01366e-09
5.15771e-10
4.46562e-09
2.33582e-10
4.8123e-09
-1.44508e-10
5.05569e-09
-6.27795e-10
5.19552e-09
-1.21829e-09
5.22485e-09
-1.90117e-09
5.14055e-09
-2.64837e-09
4.95949e-09
-3.42989e-09
4.72229e-09
-4.23139e-09
4.47028e-09
-5.0495e-09
4.2124e-09
-5.87018e-09
3.93031e-09
-6.64987e-09
3.60841e-09
-7.32464e-09
3.2577e-09
-7.84085e-09
2.86889e-09
-8.16631e-09
2.42152e-09
-8.30721e-09
1.91773e-09
-8.29174e-09
1.45142e-09
-8.13423e-09
1.05006e-09
-7.67876e-09
5.65576e-10
-6.40918e-09
-3.25611e-09
-3.32756e-10
-2.6132e-09
-9.45762e-10
-5.22418e-09
-1.34802e-09
-6.27915e-09
-1.64902e-09
-6.63858e-09
-1.86412e-09
-6.80708e-09
-1.96105e-09
-7.03522e-09
-2.01456e-09
-7.35154e-09
-2.08677e-09
-7.68086e-09
-2.16619e-09
-7.93822e-09
-2.1838e-09
-8.11104e-09
-2.11324e-09
-8.22896e-09
-1.96522e-09
-8.3218e-09
-1.76341e-09
-8.3919e-09
-1.51725e-09
-8.4263e-09
-1.22774e-09
-8.417e-09
-8.9569e-10
-8.36586e-09
-5.27821e-10
-8.28745e-09
-1.40518e-10
-8.19781e-09
2.43986e-10
-8.11523e-09
5.9922e-10
-8.05181e-09
9.02081e-10
-8.0171e-09
1.13433e-09
-8.01357e-09
1.28605e-09
-8.0409e-09
1.35274e-09
-8.09412e-09
1.33435e-09
-8.16698e-09
1.23149e-09
-8.25121e-09
1.04463e-09
-8.33858e-09
7.73204e-10
-8.42047e-09
4.17319e-10
-8.4887e-09
-2.03696e-11
-8.53499e-09
-5.32094e-10
-8.55115e-09
-1.1037e-09
-8.52883e-09
-1.71477e-09
-8.46019e-09
-2.34071e-09
-8.33843e-09
-2.95609e-09
-8.15877e-09
-3.53823e-09
-7.919e-09
-4.06988e-09
-7.6197e-09
-4.54009e-09
-7.26387e-09
-4.94294e-09
-6.85612e-09
-5.27474e-09
-6.40181e-09
-5.53078e-09
-5.90645e-09
-5.70287e-09
-5.37551e-09
-5.77893e-09
-4.81484e-09
-5.74482e-09
-4.23133e-09
-5.58803e-09
-3.6337e-09
-5.30202e-09
-3.0328e-09
-4.88962e-09
-2.44144e-09
-4.36421e-09
-1.87338e-09
-3.74816e-09
-1.34184e-09
-3.0688e-09
-8.57789e-10
-2.35338e-09
-4.28614e-10
-1.62466e-09
-5.78185e-11
-8.98454e-10
2.53797e-10
-1.83507e-10
5.05656e-10
5.16664e-10
6.94765e-10
1.20022e-09
8.14507e-10
1.86225e-09
8.55703e-10
2.48993e-09
8.09928e-10
3.06167e-09
6.72475e-10
3.55196e-09
4.43809e-10
3.94197e-09
1.26096e-10
4.22716e-09
-2.80941e-10
4.41774e-09
-7.84518e-10
4.52686e-09
-1.39281e-09
4.55885e-09
-2.10609e-09
4.50588e-09
-2.90419e-09
4.36575e-09
-3.75359e-09
4.1615e-09
-4.62203e-09
3.93611e-09
-5.49486e-09
3.7168e-09
-6.36062e-09
3.49117e-09
-7.18715e-09
3.23823e-09
-7.91412e-09
2.95764e-09
-8.47419e-09
2.6492e-09
-8.82922e-09
2.28531e-09
-8.98138e-09
1.85391e-09
-8.96764e-09
1.41882e-09
-8.7901e-09
1.02283e-09
-8.29089e-09
5.2279e-10
-6.91657e-09
-3.50374e-09
-2.89006e-10
-2.76243e-09
-8.90987e-10
-5.64726e-09
-1.26273e-09
-6.86823e-09
-1.55968e-09
-7.26651e-09
-1.78941e-09
-7.40445e-09
-1.91153e-09
-7.56156e-09
-1.94823e-09
-7.82934e-09
-1.97696e-09
-8.1533e-09
-2.01858e-09
-8.45613e-09
-2.04846e-09
-8.68839e-09
-2.03052e-09
-8.85163e-09
-1.95542e-09
-8.96185e-09
-1.82486e-09
-9.02939e-09
-1.64541e-09
-9.05745e-09
-1.42291e-09
-9.04558e-09
-1.16259e-09
-9.00128e-09
-8.73969e-10
-8.93388e-09
-5.69589e-10
-8.86022e-09
-2.68872e-10
-8.7938e-09
8.47923e-12
-8.74899e-09
2.42793e-10
-8.73257e-09
4.20907e-10
-8.74871e-09
5.34523e-10
-8.79484e-09
5.81482e-10
-8.86648e-09
5.61691e-10
-8.95562e-09
4.76134e-10
-9.05386e-09
3.24345e-10
-9.15156e-09
1.05127e-10
-9.23942e-09
-1.82595e-10
-9.3079e-09
-5.37167e-10
-9.34785e-09
-9.52315e-10
-9.35024e-09
-1.41584e-09
-9.30668e-09
-1.91017e-09
-9.20973e-09
-2.41439e-09
-9.05361e-09
-2.90729e-09
-8.83473e-09
-3.3705e-09
-8.55208e-09
-3.79059e-09
-8.20718e-09
-4.15955e-09
-7.80374e-09
-4.47341e-09
-7.34692e-09
-4.72971e-09
-6.84259e-09
-4.92461e-09
-6.29683e-09
-5.05089e-09
-5.7158e-09
-5.09774e-09
-5.10613e-09
-5.05255e-09
-4.47561e-09