/*--------------------------------*- C++ -*----------------------------------*\
| =========                 |                                                 |
| \\      /  F ield         | OpenFOAM: The Open Source CFD Toolbox           |
|  \\    /   O peration     | Version:  2412                                  |
|   \\  /    A nd           | Website:  www.openfoam.com                      |
|    \\/     M anipulation  |                                                 |
\*---------------------------------------------------------------------------*/
FoamFile
{
    version     2.0;
    format      ascii;
    arch        "LSB;label=32;scalar=64";
    class       surfaceScalarField;
    location    "9.15";
    object      alphaPhi0.molasses;
}
// * * * * * * * * * * * * * * * * * * * * * * * * * * * * * * * * * * * * * //

dimensions      [0 3 -1 0 0 0 0];

oriented        oriented;

internalField   nonuniform List<scalar> 
12640
(
6.16014e-09
-5.2853e-09
2.15608e-08
-8.98823e-09
2.85411e-08
-8.95869e-09
3.70091e-08
-7.35673e-09
3.60112e-08
-2.10366e-09
3.52876e-08
4.06603e-09
2.60831e-08
8.7642e-09
9.91792e-09
1.44089e-08
-8.88907e-09
2.05421e-08
-3.27872e-08
2.53437e-08
-6.25981e-08
2.93032e-08
-9.60795e-08
3.33485e-08
-1.32067e-07
3.72353e-08
-1.70973e-07
4.02638e-08
-2.1292e-07
4.23758e-08
-2.56984e-07
4.38579e-08
-3.02082e-07
4.49237e-08
-3.4747e-07
4.53704e-08
-3.92669e-07
4.50266e-08
-4.36934e-07
4.37124e-08
-4.79302e-07
4.15478e-08
-5.18582e-07
3.85181e-08
-5.53761e-07
3.476e-08
-5.83853e-07
3.01115e-08
-6.08116e-07
2.46312e-08
-6.25667e-07
1.81396e-08
-6.3575e-07
1.08438e-08
-6.3744e-07
2.70515e-09
-6.30113e-07
-5.91431e-09
-6.1317e-07
-1.50125e-08
-5.86502e-07
-2.41922e-08
-5.50075e-07
-3.34662e-08
-5.04351e-07
-4.24162e-08
-4.49814e-07
-5.10482e-08
-3.8739e-07
-5.89271e-08
-3.17978e-07
-6.60509e-08
-2.42861e-07
-7.20017e-08
-1.63266e-07
-7.67927e-08
-8.07482e-08
-8.0075e-08
3.22611e-09
-8.19073e-08
8.69742e-08
-8.20652e-08
1.68955e-07
-8.06752e-08
2.4755e-07
-7.76429e-08
3.21362e-07
-7.31467e-08
3.89055e-07
-6.72324e-08
4.49507e-07
-6.01296e-08
5.01749e-07
-5.19786e-08
5.45146e-07
-4.30521e-08
5.7933e-07
-3.367e-08
6.04119e-07
-2.41621e-08
6.19585e-07
-1.48208e-08
6.25992e-07
-5.83029e-09
6.23791e-07
2.63316e-09
6.13689e-07
1.05366e-08
5.96664e-07
1.77816e-08
5.73569e-07
2.44168e-08
5.45318e-07
3.0368e-08
5.12831e-07
3.55193e-08
4.76865e-07
3.95117e-08
4.37802e-07
4.21941e-08
3.9607e-07
4.36052e-08
3.52423e-07
4.41029e-08
3.07997e-07
4.3941e-08
2.63883e-07
4.32995e-08
2.20981e-07
4.21788e-08
1.79966e-07
4.06465e-08
1.41427e-07
3.87213e-08
1.05817e-07
3.64237e-08
7.34974e-08
3.3647e-08
4.47671e-08
3.02936e-08
1.99947e-08
2.62801e-08
-3.75443e-10
2.16397e-08
-1.58457e-08
1.64641e-08
-2.59904e-08
1.09426e-08
-3.05903e-08
5.33289e-09
-2.98257e-08
-3.88643e-11
-2.44176e-08
-4.8145e-09
-1.57047e-08
-8.39687e-09
-6.10447e-09
-9.50517e-09
-6.30491e-09
1.96797e-09
-1.3826e-08
1.67632e-08
-2.09e-08
1.78309e-08
-1.4597e-08
1.84527e-08
-1.09818e-09
-9.42738e-10
1.27458e-08
-2.7965e-08
3.08275e-08
-6.84952e-08
5.0567e-08
-1.23852e-07
6.90257e-08
-1.89867e-07
8.61394e-08
-2.66603e-07
1.02281e-07
-3.53887e-07
1.17091e-07
-4.49614e-07
1.29935e-07
-5.5203e-07
1.40451e-07
-6.60337e-07
1.4879e-07
-7.73417e-07
1.5512e-07
-8.89594e-07
1.59462e-07
-1.00697e-06
1.61519e-07
-1.12395e-06
1.61086e-07
-1.23883e-06
1.57946e-07
-1.34974e-06
1.5214e-07
-1.45427e-06
1.43534e-07
-1.55009e-06
1.32128e-07
-1.63468e-06
1.17635e-07
-1.70589e-06
1.00039e-07
-1.76136e-06
7.91381e-08
-1.79908e-06
5.51895e-08
-1.81672e-06
2.82435e-08
-1.81247e-06
-1.16355e-09
-1.78444e-06
-3.28018e-08
-1.73162e-06
-6.59272e-08
-1.65312e-06
-1.00142e-07
-1.54915e-06
-1.34489e-07
-1.42011e-06
-1.68394e-07
-1.26755e-06
-2.00739e-07
-1.09318e-06
-2.30858e-07
-8.99759e-07
-2.57625e-07
-6.90156e-07
-2.80438e-07
-4.68118e-07
-2.98364e-07
-2.37383e-07
-3.11025e-07
-2.32515e-09
-3.17834e-07
2.32876e-07
-3.18709e-07
4.63744e-07
-3.13463e-07
6.86157e-07
-3.02324e-07
8.96052e-07
-2.85506e-07
1.08991e-06
-2.63559e-07
1.26455e-06
-2.37111e-07
1.41735e-06
-2.06982e-07
1.54633e-06
-1.74095e-07
1.65029e-06
-1.39429e-07
1.72872e-06
-1.04072e-07
1.7817e-06
-6.89383e-08
1.80996e-06
-3.48417e-08
1.81456e-06
-2.23503e-09
1.79723e-06
2.83165e-08
1.76006e-06
5.64059e-08
1.70532e-06
8.14808e-08
1.63512e-06
1.032e-07
1.55185e-06
1.21166e-07
1.45773e-06
1.35401e-07
1.35484e-06
1.46052e-07
1.24496e-06
1.53589e-07
1.13009e-06
1.58332e-07
1.01234e-06
1.60663e-07
8.93937e-07
1.60785e-07
7.76849e-07
1.58943e-07
6.62885e-07
1.55183e-07
5.53575e-07
1.49506e-07
4.50322e-07
1.41758e-07
3.54353e-07
1.31862e-07
2.66916e-07
1.19777e-07
1.89239e-07
1.05624e-07
1.22568e-07
8.95703e-08
6.80258e-08
7.19302e-08
2.6498e-08
5.31826e-08
-1.70592e-09
3.41135e-08
-1.7061e-08
1.58033e-08
-2.0754e-08
-3.42748e-10
-1.5165e-08
-1.26768e-08
-5.93159e-09
-1.85037e-08
-1.0987e-08
1.83646e-09
-1.68585e-08
1.36509e-08
-2.43463e-08
9.25243e-09
-1.22669e-08
-5.05843e-09
1.42273e-08
-3.98001e-08
4.69668e-08
-8.92913e-08
8.35429e-08
-1.60352e-07
1.2171e-07
-2.51671e-07
1.59329e-07
-3.58719e-07
1.95058e-07
-4.8198e-07
2.27925e-07
-6.21171e-07
2.57278e-07
-7.73224e-07
2.82637e-07
-9.35308e-07
3.03787e-07
-1.10569e-06
3.20599e-07
-1.28274e-06
3.33026e-07
-1.46397e-06
3.40818e-07
-1.64667e-06
3.43784e-07
-1.82799e-06
3.41604e-07
-2.00523e-06
3.34158e-07
-2.17524e-06
3.2111e-07
-2.33481e-06
3.0226e-07
-2.48027e-06
2.77115e-07
-2.60815e-06
2.45502e-07
-2.71477e-06
2.07083e-07
-2.79684e-06
1.62057e-07
-2.85077e-06
1.1046e-07
-2.87358e-06
5.29383e-08
-2.8621e-06
-1.01011e-08
-2.81414e-06
-7.75622e-08
-2.72766e-06
-1.48619e-07
-2.60193e-06
-2.21672e-07
-2.43664e-06
-2.95427e-07
-2.23299e-06
-3.67825e-07
-1.99266e-06
-4.37224e-07
-1.71884e-06
-5.0137e-07
-1.41519e-06
-5.58608e-07
-1.08668e-06
-6.06925e-07
-7.38578e-07
-6.45058e-07
-3.77152e-07
-6.71606e-07
-8.71048e-09
-6.85934e-07
3.59909e-07
-6.87427e-07
7.22132e-07
-6.76143e-07
1.07134e-06
-6.52281e-07
1.40143e-06
-6.16597e-07
1.70681e-06
-5.70106e-07
1.98262e-06
-5.14192e-07
2.2248e-06
-4.50516e-07
2.43022e-06
-3.80915e-07
2.59697e-06
-3.07492e-07
2.72414e-06
-2.32219e-07
2.81205e-06
-1.5721e-07
2.86168e-06
-8.41374e-08
2.8747e-06
-1.46136e-08
2.8533e-06
5.02173e-08
2.8006e-06
1.09217e-07
2.71969e-06
1.61915e-07
2.61408e-06
2.07829e-07
2.4874e-06
2.46815e-07
2.3435e-06
2.78601e-07
2.18564e-06
3.0344e-07
2.01689e-06
3.21685e-07
1.84014e-06
3.34054e-07
1.65864e-06
3.41043e-07
1.47547e-06
3.43165e-07
1.29359e-06
3.40613e-07
1.11554e-06
3.33564e-07
9.43774e-07
3.21985e-07
7.80495e-07
3.0593e-07
6.27886e-07
2.85407e-07
4.87975e-07
2.60584e-07
3.62723e-07
2.31658e-07
2.53904e-07
1.9902e-07
1.63124e-07
1.63248e-07
9.15472e-08
1.25292e-07
3.95345e-08
8.6494e-08
6.35703e-09
4.89015e-08
-9.62097e-09
1.54587e-08
-1.16097e-08
-1.07275e-08
-5.41369e-09
-2.45129e-08
-1.59133e-08
7.19201e-10
-1.95096e-08
8.21965e-10
-2.6856e-08
-1.27723e-08
2.26268e-09
-4.45226e-08
4.68394e-08
-1.01488e-07
1.01318e-07
-1.77781e-07
1.61718e-07
-2.8049e-07
2.24087e-07
-4.07996e-07
2.8545e-07
-5.55552e-07
3.4358e-07
-7.23356e-07
3.96843e-07
-9.1061e-07
4.44238e-07
-1.11371e-06
4.8521e-07
-1.32907e-06
5.19248e-07
-1.55442e-06
5.46046e-07
-1.78741e-06
5.65296e-07
-2.02498e-06
5.7682e-07
-2.26342e-06
5.80225e-07
-2.49917e-06
5.75204e-07
-2.72847e-06
5.61176e-07
-2.9476e-06
5.3773e-07
-3.15221e-06
5.04162e-07
-3.33798e-06
4.60108e-07
-3.50012e-06
4.0499e-07
-3.63421e-06
3.38804e-07
-3.73559e-06
2.61386e-07
-3.80016e-06
1.73317e-07
-3.82363e-06
7.50053e-08
-3.80262e-06
-3.22539e-08
-3.73378e-06
-1.47342e-07
-3.61517e-06
-2.68115e-07
-3.44523e-06
-3.92612e-07
-3.22419e-06
-5.17797e-07
-2.95289e-06
-6.40931e-07
-2.63412e-06
-7.58369e-07
-2.27138e-06
-8.67052e-07
-1.87e-06
-9.63402e-07
-1.43589e-06
-1.04477e-06
-9.76467e-07
-1.10841e-06
-4.99414e-07
-1.15266e-06
-1.33668e-08
-1.17599e-06
4.73128e-07
-1.1779e-06
9.51243e-07
-1.15817e-06
1.41257e-06
-1.11744e-06
1.84902e-06
-1.0568e-06
2.25337e-06
-9.78081e-07
2.61932e-06
-8.83654e-07
2.94149e-06
-7.76221e-07
3.21588e-06
-6.58919e-07
3.43983e-06
-5.34952e-07
3.61224e-06
-4.07926e-07
3.73326e-06
-2.81164e-07
3.80445e-06
-1.57928e-07
3.82761e-06
-4.0505e-08
3.80579e-06
6.89245e-08
3.74276e-06
1.68919e-07
3.64276e-06
2.58235e-07
3.50985e-06
3.36526e-07
3.34883e-06
4.03431e-07
3.16449e-06
4.59105e-07
2.96152e-06
5.03594e-07
2.74384e-06
5.37473e-07
2.5154e-06
5.61231e-07
2.28003e-06
5.75642e-07
2.04166e-06
5.8119e-07
1.80383e-06
5.78433e-07
1.56992e-06
5.67625e-07
1.34302e-06
5.49083e-07
1.12618e-06
5.22957e-07
9.22213e-07
4.89542e-07
7.33853e-07
4.49088e-07
5.63557e-07
4.02028e-07
4.13632e-07
3.48939e-07
2.86038e-07
2.90858e-07
1.82223e-07
2.29282e-07
1.02777e-07
1.66303e-07
4.73758e-08
1.04918e-07
1.40235e-08
4.94417e-08
-5.89865e-10
3.52009e-09
-2.69389e-09
-2.34944e-08
-1.86294e-08
-3.46277e-09
-1.52031e-08
-1.40425e-08
-1.44049e-08
-4.61486e-08
3.33038e-08
-9.94872e-08
1.01942e-07
-1.82824e-07
1.82924e-07
-2.89672e-07
2.71133e-07
-4.26449e-07
3.61422e-07
-5.91222e-07
4.49766e-07
-7.79083e-07
5.33201e-07
-9.89613e-07
6.09389e-07
-1.2216e-06
6.76995e-07
-1.47103e-06
7.35204e-07
-1.7339e-06
7.8342e-07
-2.00726e-06
8.21032e-07
-2.2883e-06
8.47679e-07
-2.57327e-06
8.62887e-07
-2.85804e-06
8.66245e-07
-3.13827e-06
8.56985e-07
-3.40981e-06
8.34458e-07
-3.668e-06
7.97707e-07
-3.90812e-06
7.46106e-07
-4.12473e-06
6.78775e-07
-4.31266e-06
5.95401e-07
-4.46628e-06
4.95483e-07
-4.58063e-06
3.79336e-07
-4.65044e-06
2.47145e-07
-4.67128e-06
1.00142e-07
-4.63862e-06
-6.05251e-08
-4.54921e-06
-2.3244e-07
-4.40006e-06
-4.13227e-07
-4.18998e-06
-5.99086e-07
-3.91841e-06
-7.86309e-07
-3.587e-06
-9.69866e-07
-3.19827e-06
-1.14514e-06
-2.75706e-06
-1.30668e-06
-2.2691e-06
-1.44999e-06
-1.74214e-06
-1.57039e-06
-1.18451e-06
-1.6646e-06
-6.05968e-07
-1.7296e-06
-1.64287e-08
-1.76379e-06
5.73522e-07
-1.76601e-06
1.1536e-06
-1.73637e-06
1.71355e-06
-1.67558e-06
2.24374e-06
-1.58537e-06
2.73545e-06
-1.46837e-06
3.18114e-06
-1.32805e-06
3.57456e-06
-1.16868e-06
3.9107e-06
-9.94755e-07
4.18644e-06
-8.11231e-07
4.40006e-06
-6.22826e-07
4.55211e-06
-4.34702e-07
4.64431e-06
-2.51263e-07
4.67922e-06
-7.65296e-08
4.65998e-06
8.67185e-08
4.59145e-06
2.3591e-07
4.47834e-06
3.69748e-07
4.32577e-06
4.87272e-07
4.1389e-06
5.88483e-07
3.92353e-06
6.73241e-07
3.68491e-06
7.41973e-07
3.42803e-06
7.94944e-07
3.15731e-06
8.32963e-07
2.8774e-06
8.56689e-07
2.59262e-06
8.67087e-07
2.30723e-06
8.64805e-07
2.02506e-06
8.50584e-07
1.74989e-06
8.24851e-07
1.48528e-06
7.88118e-07
1.23468e-06
7.40729e-07
1.00123e-06
6.83179e-07
7.87924e-07
6.15984e-07
5.97509e-07
5.40048e-07
4.32405e-07
4.56698e-07
2.9425e-07
3.67977e-07
1.84095e-07
2.76706e-07
1.02392e-07
1.86997e-07
4.63112e-08
1.04437e-07
1.56932e-08
3.49058e-08
1.4547e-09
-1.12239e-08
-1.64414e-08
-8.82637e-09
-8.85125e-09
-3.14455e-08
9.91029e-09
-8.38593e-08
8.16074e-08
-1.61326e-07
1.79688e-07
-2.73352e-07
2.91448e-07
-4.12568e-07
4.10957e-07
-5.84321e-07
5.32013e-07
-7.86255e-07
6.49623e-07
-1.01319e-06
7.6003e-07
-1.26408e-06
8.60375e-07
-1.5371e-06
9.48906e-07
-1.82807e-06
1.02473e-06
-2.13257e-06
1.08703e-06
-2.44729e-06
1.13513e-06
-2.76878e-06
1.16831e-06
-3.09308e-06
1.18606e-06
-3.41551e-06
1.18758e-06
-3.73155e-06
1.17208e-06
-4.03632e-06
1.13836e-06
-4.325e-06
1.08549e-06
-4.59197e-06
1.01222e-06
-4.83167e-06
9.17855e-07
-5.03792e-06
8.01454e-07
-5.20507e-06
6.62921e-07
-5.32708e-06
5.0202e-07
-5.39875e-06
3.19657e-07
-5.41455e-06
1.16707e-07
-5.37013e-06
-1.045e-07
-5.26109e-06
-3.41548e-07
-5.08473e-06
-5.90275e-07
-4.83876e-06
-8.46378e-07
-4.52317e-06
-1.10375e-06
-4.13884e-06
-1.35638e-06
-3.68933e-06
-1.59691e-06
-3.17931e-06
-1.81875e-06
-2.61611e-06
-2.01482e-06
-2.00792e-06
-2.17963e-06
-1.36498e-06
-2.30797e-06
-6.97916e-07
-2.39654e-06
-1.85267e-08
-2.44263e-06
6.6148e-07
-2.4452e-06
1.33012e-06
-2.40403e-06
1.9759e-06
-2.32032e-06
2.58768e-06
-2.19628e-06
3.15538e-06
-2.03541e-06
3.67051e-06
-1.84261e-06
4.12587e-06
-1.62362e-06
4.51616e-06
-1.38513e-06
4.83748e-06
-1.13359e-06
5.08805e-06
-8.75819e-07
5.26803e-06
-6.1801e-07
5.38006e-06
-3.6652e-07
5.42678e-06
-1.26112e-07
5.41223e-06
9.88881e-08
5.3415e-06
3.05549e-07
5.22047e-06
4.91276e-07
5.05441e-06
6.55045e-07
4.84927e-06
7.96119e-07
4.61087e-06
9.14798e-07
4.34531e-06
1.01126e-06
4.05781e-06
1.08637e-06
3.75366e-06
1.14085e-06
3.43775e-06
1.17593e-06
3.11508e-06
1.19261e-06
2.7901e-06
1.19209e-06
2.46722e-06
1.17519e-06
2.1505e-06
1.14278e-06
1.84403e-06
1.09545e-06
1.55157e-06
1.03384e-06
1.27673e-06
9.5846e-07
1.02287e-06
8.70103e-07
7.93242e-07
7.69845e-07
5.90652e-07
6.59444e-07
4.17171e-07
5.41318e-07
2.74456e-07
4.19174e-07
1.64071e-07
2.98327e-07
8.34321e-08
1.84528e-07
3.40092e-08
8.59746e-08
6.08388e-09
1.41385e-08
-8.58228e-09
-1.28619e-08
3.72752e-09
-5.08377e-08
4.73634e-08
-1.23161e-07
1.51195e-07
-2.26392e-07
2.83934e-07
-3.68416e-07
4.30501e-07
-5.40771e-07
5.84375e-07
-7.4765e-07
7.38322e-07
-9.85972e-07
8.86437e-07
-1.25032e-06
1.02447e-06
-1.53876e-06
1.14909e-06
-1.84894e-06
1.25839e-06
-2.17643e-06
1.35126e-06
-2.51676e-06
1.42693e-06
-2.8661e-06
1.48444e-06
-3.22081e-06
1.52303e-06
-3.57646e-06
1.54178e-06
-3.92842e-06
1.53984e-06
-4.2717e-06
1.51593e-06
-4.60145e-06
1.46888e-06
-4.91218e-06
1.3971e-06
-5.19835e-06
1.29947e-06
-5.45362e-06
1.1746e-06
-5.67199e-06
1.02187e-06
-5.84695e-06
8.40482e-07
-5.97273e-06
6.30798e-07
-6.04316e-06
3.93143e-07
-6.05307e-06
1.294e-07
-5.99694e-06
-1.58399e-07
-5.87074e-06
-4.66236e-07
-5.67044e-06
-7.8977e-07
-5.39416e-06
-1.1224e-06
-5.04067e-06
-1.45727e-06
-4.61159e-06
-1.78547e-06
-4.10974e-06
-2.09843e-06
-3.54112e-06
-2.3865e-06
-2.91299e-06
-2.64143e-06
-2.23535e-06
-2.85516e-06
-1.5189e-06
-3.02188e-06
-7.7607e-07
-3.13657e-06
-1.94122e-08
-3.19642e-06
7.37736e-07
-3.19959e-06
1.48242e-06
-3.14614e-06
2.20179e-06
-3.03732e-06
2.88349e-06
-2.87598e-06
3.51626e-06
-2.66662e-06
4.09044e-06
-2.41535e-06
4.59847e-06
-2.13013e-06
5.03444e-06
-1.81957e-06
5.39479e-06
-1.49292e-06
5.677e-06
-1.15845e-06
5.88172e-06
-8.24589e-07
6.01159e-06
-4.98576e-07
6.0703e-06
-1.87076e-07
6.06167e-06
1.05264e-07
5.99178e-06
3.74127e-07
5.86658e-06
6.16799e-07
5.69238e-06
8.31049e-07
5.47496e-06
1.01638e-06
5.22086e-06
1.1725e-06
4.93595e-06
1.30026e-06
4.62619e-06
1.40035e-06
4.29687e-06
1.47419e-06
3.95353e-06
1.52294e-06
3.60112e-06
1.54824e-06
3.24459e-06
1.55129e-06
2.88835e-06
1.53346e-06
2.53692e-06
1.49569e-06
2.19448e-06
1.43897e-06
1.86519e-06
1.36395e-06
1.55286e-06
1.2714e-06
1.26135e-06
1.16211e-06
9.94302e-07
1.03743e-06
7.54981e-07
8.99237e-07
5.46093e-07
7.50282e-07
3.70325e-07
5.94746e-07
2.29205e-07
4.39189e-07
1.22861e-07
2.90039e-07
5.25867e-08
1.56715e-07
1.11131e-08
5.26947e-08
3.37872e-09
-1.75545e-08
2.15166e-08
-7.03793e-08
9.90307e-08
-1.63287e-07
2.42471e-07
-2.93545e-07
4.14994e-07
-4.66225e-07
6.00345e-07
-6.72067e-07
7.91311e-07
-9.13756e-07
9.79545e-07
-1.1873e-06
1.15859e-06
-1.48687e-06
1.32389e-06
-1.80973e-06
1.47202e-06
-2.15282e-06
1.6009e-06
-2.51165e-06
1.70947e-06
-2.88166e-06
1.79677e-06
-3.25895e-06
1.86194e-06
-3.63943e-06
1.90389e-06
-4.01874e-06
1.92168e-06
-4.39198e-06
1.91399e-06
-4.75439e-06
1.87956e-06
-5.1007e-06
1.81658e-06
-5.4257e-06
1.7236e-06
-5.72327e-06
1.59876e-06
-5.98747e-06
1.44091e-06
-6.21164e-06
1.24865e-06
-6.38978e-06
1.02167e-06
-6.51536e-06
7.59576e-07
-6.58276e-06
4.63527e-07
-6.5858e-06
1.34818e-07
-6.51948e-06
-2.23168e-07
-6.37838e-06
-6.06645e-07
-6.1589e-06
-1.00926e-06
-5.8576e-06
-1.4241e-06
-5.47373e-06
-1.84155e-06
-5.00757e-06
-2.25173e-06
-4.4629e-06
-2.64271e-06
-3.84506e-06
-3.0034e-06
-3.16293e-06
-3.32224e-06
-2.42656e-06
-3.59004e-06
-1.64844e-06
-3.79856e-06
-8.41402e-07
-3.9424e-06
-1.96115e-08
-4.01738e-06
8.02882e-07
-4.02169e-06
1.61176e-06
-3.95497e-06
2.39328e-06
-3.81893e-06
3.13399e-06
-3.61703e-06
3.82123e-06
-3.35463e-06
4.44459e-06
-3.03956e-06
4.99553e-06
-2.68149e-06
5.46866e-06
-2.29221e-06
5.86021e-06
-1.88328e-06
6.16844e-06
-1.46618e-06
6.39338e-06
-1.05053e-06
6.53891e-06
-6.45869e-07
6.60861e-06
-2.59324e-07
6.6072e-06
1.02895e-07
6.54023e-06
4.36812e-07
6.41473e-06
7.38643e-07
6.23679e-06
1.00642e-06
6.01305e-06
1.23865e-06
5.74964e-06
1.43555e-06
5.45301e-06
1.59741e-06
5.12872e-06
1.72564e-06
4.7826e-06
1.82145e-06
4.41992e-06
1.88675e-06
4.04607e-06
1.92309e-06
3.66574e-06
1.93235e-06
3.2837e-06
1.91587e-06
2.90432e-06
1.87509e-06
2.53209e-06
1.81096e-06
2.17113e-06
1.72447e-06
1.82562e-06
1.61628e-06
1.49967e-06
1.48737e-06
1.19742e-06
1.33902e-06
9.224e-07
1.17324e-06
6.78283e-07
9.92857e-07
4.69275e-07
8.02559e-07
2.96497e-07
6.09482e-07
1.63313e-07
4.21168e-07
7.12946e-08
2.47597e-07
1.60462e-08
1.04828e-07
1.86728e-08
-2.33296e-08
4.2195e-08
-8.96011e-08
1.64612e-07
-2.04456e-07
3.54611e-07
-3.62524e-07
5.72408e-07
-5.66212e-07
8.00544e-07
-8.05622e-07
1.03081e-06
-1.08151e-06
1.25403e-06
-1.38858e-06
1.46349e-06
-1.72074e-06
1.65475e-06
-2.07433e-06
1.82447e-06
-2.44576e-06
1.97074e-06
-2.8304e-06
2.09246e-06
-3.22387e-06
2.18886e-06
-3.62207e-06
2.25889e-06
-4.02099e-06
2.30161e-06
-4.41603e-06
2.31572e-06
-4.80264e-06
2.29993e-06
-5.17585e-06
2.25238e-06
-5.53085e-06
2.17138e-06
-5.86207e-06
2.05471e-06
-6.16398e-06
1.90074e-06
-6.43017e-06
1.70749e-06
-6.65475e-06
1.47398e-06
-6.83115e-06
1.19903e-06
-6.95369e-06
8.82958e-07
-7.01593e-06
5.26105e-07
-7.01247e-06
1.30887e-07
-6.93708e-06
-2.99943e-07
-6.78494e-06
-7.60963e-07
-6.55074e-06
-1.2461e-06
-6.23145e-06
-1.74611e-06
-5.82443e-06
-2.25099e-06
-5.33048e-06
-2.74759e-06
-4.75197e-06
-3.22267e-06
-4.09542e-06
-3.66111e-06
-3.36919e-06
-4.04962e-06
-2.58509e-06
-4.37554e-06
-1.75573e-06
-4.62975e-06
-8.95625e-07
-4.80478e-06
-1.9332e-08
-4.89634e-06
8.57603e-07
-4.90163e-06
1.72002e-06
-4.82054e-06
2.55314e-06
-4.65496e-06
3.34244e-06
-4.40909e-06
4.07433e-06
-4.08959e-06
4.73691e-06
-3.70551e-06
5.32144e-06
-3.26932e-06
5.82208e-06
-2.79509e-06
6.23661e-06
-2.29835e-06
6.56339e-06
-1.79282e-06
6.8035e-06
-1.29118e-06
6.96071e-06
-8.03709e-07
7.04014e-06
-3.39567e-07
7.04601e-06
9.51408e-08
6.98455e-06
4.95272e-07
6.86198e-06
8.57918e-07
6.68531e-06
1.18022e-06
6.46063e-06
1.46122e-06
6.1947e-06
1.7003e-06
5.89327e-06
1.89841e-06
5.56236e-06
2.05647e-06
5.20725e-06
2.17652e-06
4.83357e-06
2.2603e-06
4.4462e-06
2.31014e-06
4.05009e-06
2.32782e-06
3.6496e-06
2.31529e-06
3.24934e-06
2.2739e-06
2.85352e-06
2.20503e-06
2.46644e-06
2.10949e-06
2.09227e-06
1.9882e-06
1.73554e-06
1.84193e-06
1.40059e-06
1.67203e-06
1.09144e-06
1.48018e-06
8.12766e-07
1.26919e-06
5.70531e-07
1.04382e-06
3.65764e-07
8.11346e-07
2.04712e-07
5.80121e-07
9.08808e-08
3.61067e-07
2.03928e-08
1.71825e-07
3.9462e-08
-2.86747e-08
6.80846e-08
-1.09196e-07
2.45992e-07
-2.47102e-07
4.89872e-07
-4.33665e-07
7.58791e-07
-6.68709e-07
1.03333e-06
-9.41705e-07
1.30433e-06
-1.2508e-06
1.5622e-06
-1.58934e-06
1.80057e-06
-1.95086e-06
2.01537e-06
-2.33105e-06
2.20381e-06
-2.72572e-06
2.36421e-06
-3.13039e-06
2.49583e-06
-3.54068e-06
2.59792e-06
-3.95273e-06
2.66971e-06
-4.36235e-06
2.71005e-06
-4.76534e-06
2.71777e-06
-5.15707e-06
2.69112e-06
-5.53318e-06
2.62834e-06
-5.88869e-06
2.52701e-06
-6.21874e-06
2.38512e-06
-6.51755e-06
2.20021e-06
-6.77965e-06
1.97066e-06
-6.9988e-06
1.69458e-06
-7.16954e-06
1.37142e-06
-7.28562e-06
1.00055e-06
-7.34175e-06
5.83264e-07
-7.33155e-06
1.21054e-07
-7.24974e-06
-3.82036e-07
-7.08995e-06
-9.21443e-07
-6.84744e-06
-1.48935e-06
-6.51702e-06
-2.07699e-06
-6.09626e-06
-2.67171e-06
-5.58367e-06
-3.25973e-06
-4.98206e-06
-3.82361e-06
-4.29647e-06
-4.34611e-06
-3.53674e-06
-4.80912e-06
-2.71439e-06
-5.19816e-06
-1.8439e-06
-5.50105e-06
-9.39944e-07
-5.70991e-06
-1.87282e-08
-5.81885e-06
9.03493e-07
-5.82524e-06
1.81002e-06
-5.7285e-06
2.68506e-06
-5.53108e-06
3.51333e-06
-5.23808e-06
4.27989e-06
-4.85726e-06
4.97217e-06
-4.39987e-06
5.58016e-06
-3.88041e-06
6.09888e-06
-3.31692e-06
6.52659e-06
-2.7277e-06
6.86414e-06
-2.13056e-06
7.11248e-06
-1.5396e-06
7.27721e-06
-9.67692e-07
7.36331e-06
-4.23883e-07
7.37644e-06
8.40874e-08
7.32177e-06
5.51662e-07
7.20592e-06
9.74961e-07
7.03477e-06
1.35228e-06
6.81509e-06
1.6819e-06
6.5527e-06
1.96404e-06
6.2538e-06
2.19899e-06
5.92357e-06
2.3885e-06
5.56764e-06
2.53421e-06
5.19087e-06
2.63869e-06
4.7983e-06
2.70407e-06
4.3942e-06
2.73282e-06
3.98307e-06
2.72676e-06
3.569e-06
2.68778e-06
3.15628e-06
2.61708e-06
2.74892e-06
2.5158e-06
2.35127e-06
2.38455e-06
1.96792e-06
2.22414e-06
1.60347e-06
2.0355e-06
1.26218e-06
1.82006e-06
9.50117e-07
1.58001e-06
6.74692e-07
1.31985e-06
4.37585e-07
1.04643e-06
2.47772e-07
7.68601e-07
1.11574e-07
4.98571e-07
2.51009e-08
2.54177e-07
6.65998e-08
-3.35215e-08
1.00694e-07
-1.30125e-07
3.44428e-07
-2.92026e-07
6.50408e-07
-5.08208e-07
9.76061e-07
-7.75318e-07
1.29981e-06
-1.08179e-06
1.61186e-06
-1.42276e-06
1.9029e-06
-1.79014e-06
2.16743e-06
-2.17727e-06
2.40222e-06
-2.57926e-06
2.60526e-06
-2.99165e-06
2.77566e-06
-3.40995e-06
2.91294e-06
-3.83023e-06
3.01679e-06
-4.24856e-06
3.08646e-06
-4.66118e-06
3.12109e-06
-5.06391e-06
3.1192e-06
-5.45281e-06
3.07915e-06
-5.82351e-06
2.99857e-06
-6.17187e-06
2.87524e-06
-6.49294e-06
2.70634e-06
-6.78196e-06
2.48975e-06
-7.03332e-06
2.22298e-06
-7.24207e-06
1.9047e-06
-7.40247e-06
1.5334e-06
-7.50972e-06
1.10932e-06
-7.5579e-06
6.32684e-07
-7.54206e-06
1.06063e-07
-7.45575e-06
-4.67752e-07
-7.29363e-06
-1.08297e-06
-7.04899e-06
-1.73314e-06
-6.7169e-06
-2.40781e-06
-6.29203e-06
-3.09496e-06
-5.77254e-06
-3.77744e-06
-5.15829e-06
-4.43623e-06
-4.45486e-06
-5.04837e-06
-3.67087e-06
-5.59252e-06
-2.81982e-06
-6.0492e-06
-1.91611e-06
-6.40519e-06
-9.76409e-07
-6.65025e-06
-1.74312e-08
-6.77841e-06
9.42587e-07
-6.78587e-06
1.88549e-06
-6.6723e-06
2.79408e-06
-6.44046e-06
3.65189e-06
-6.09631e-06
4.44354e-06
-5.64937e-06
5.15488e-06
-5.11256e-06
5.7762e-06
-4.5045e-06
6.30191e-06
-3.84659e-06
6.73305e-06
-3.16228e-06
7.07179e-06
-2.47152e-06
7.32152e-06
-1.79155e-06
7.48805e-06
-1.13536e-06
7.57821e-06
-5.13823e-07
7.59693e-06
6.63763e-08
7.55041e-06
5.99567e-07
7.44368e-06
1.08294e-06
7.28283e-06
1.51398e-06
7.07325e-06
1.89225e-06
6.82112e-06
2.21722e-06
6.53146e-06
2.49009e-06
6.20975e-06
2.71197e-06
5.86064e-06
2.88534e-06
5.48912e-06
3.01238e-06
5.09928e-06
3.09598e-06
4.69542e-06
3.1384e-06
4.28131e-06
3.14206e-06
3.86105e-06
3.10869e-06
3.43836e-06
3.03992e-06
3.01721e-06
2.93662e-06
2.60172e-06
2.79948e-06
2.19668e-06
2.62883e-06
1.80648e-06
2.42532e-06
1.43571e-06
2.1896e-06
1.09167e-06
1.92311e-06
7.83198e-07
1.62931e-06
5.13047e-07
1.3143e-06
2.93586e-07
9.86785e-07
1.32893e-07
6.59872e-07
3.1152e-08
3.5234e-07
9.83942e-08
-3.90037e-08
1.39623e-07
-1.53413e-07
4.60911e-07
-3.41035e-07
8.38032e-07
-5.88875e-07
1.2257e-06
-8.89067e-07
1.60046e-06
-1.22877e-06
1.95263e-06
-1.59969e-06
2.27399e-06
-1.99274e-06
2.56064e-06
-2.40094e-06
2.81058e-06
-2.8193e-06
3.02311e-06
-3.24313e-06
3.19829e-06
-3.66832e-06
3.33648e-06
-4.0911e-06
3.43757e-06
-4.50805e-06
3.50126e-06
-4.91549e-06
3.5265e-06
-5.30996e-06
3.51201e-06
-5.68765e-06
3.45565e-06
-6.04512e-06
3.35521e-06
-6.37825e-06
3.20779e-06
-6.68317e-06
3.01089e-06
-6.95511e-06
2.76159e-06
-7.18986e-06
2.45795e-06
-7.38239e-06
2.09774e-06
-7.52865e-06
1.68031e-06
-7.62357e-06
1.20483e-06
-7.66307e-06
6.72582e-07
-7.64156e-06
8.47642e-08
-7.55429e-06
-5.54851e-07
-7.39455e-06
-1.24241e-06
-7.15654e-06
-1.97063e-06
-6.8325e-06
-2.73117e-06
-6.4165e-06
-3.51031e-06
-5.90237e-06
-4.29126e-06
-5.28881e-06
-5.05009e-06
-4.57811e-06
-5.76013e-06
-3.78016e-06
-6.39233e-06
-2.90797e-06
-6.92395e-06
-1.97816e-06
-7.33806e-06
-1.00769e-06
-7.62401e-06
-1.57529e-08
-7.77347e-06
9.77708e-07
-7.7824e-06
1.95168e-06
-7.64986e-06
2.88703e-06
-7.37947e-06
3.76623e-06
-6.97867e-06
4.57269e-06
-6.45802e-06
5.29215e-06
-5.83363e-06
5.91407e-06
-5.12799e-06
6.43474e-06
-4.36947e-06
6.85691e-06
-3.58598e-06
7.18726e-06
-2.8023e-06
7.42967e-06
-2.03569e-06
7.59277e-06
-1.30021e-06
7.68306e-06
-6.05072e-07
7.70683e-06
4.20985e-08
7.66872e-06
6.37449e-07
7.57423e-06
1.17728e-06
7.42748e-06
1.66026e-06
7.2339e-06
2.08503e-06
6.99797e-06
2.45225e-06
6.72488e-06
2.76236e-06
6.41884e-06
3.01742e-06
6.08463e-06
3.2193e-06
5.72609e-06
3.37099e-06
5.34731e-06
3.47491e-06
4.95156e-06
3.53401e-06
4.54258e-06
3.55049e-06
4.12373e-06
3.52661e-06
3.69859e-06
3.4638e-06
3.27049e-06
3.36318e-06
2.84355e-06
3.22498e-06
2.42231e-06
3.04932e-06
2.01102e-06
2.83602e-06
1.61404e-06
2.58498e-06
1.2399e-06
2.29621e-06
8.98631e-07
1.97171e-06
5.94513e-07
1.61601e-06
3.43596e-07
1.23707e-06
1.55839e-07
8.47335e-07
3.74446e-08
4.69015e-07
1.36063e-07
-4.59741e-08
1.85475e-07
-1.80525e-07
5.98316e-07
-3.97335e-07
1.05612e-06
-6.79925e-07
1.51042e-06
-1.01449e-06
1.9367e-06
-1.38668e-06
2.32619e-06
-1.78495e-06
2.67327e-06
-2.19958e-06
2.97626e-06
-2.62363e-06
3.2354e-06
-3.05194e-06
3.45155e-06
-3.48024e-06
3.62605e-06
-3.90476e-06
3.75988e-06
-4.32232e-06
3.85362e-06
-4.72971e-06
3.90699e-06
-5.12398e-06
3.91928e-06
-5.50187e-06
3.88881e-06
-5.86051e-06
3.81363e-06
-6.19658e-06
3.69093e-06
-6.50708e-06
3.51809e-06
-6.78819e-06
3.29193e-06
-7.03656e-06
3.01007e-06
-7.24802e-06
2.66977e-06
-7.41935e-06
2.26968e-06
-7.54648e-06
1.80819e-06
-7.62646e-06
1.28562e-06
-7.65507e-06
7.01991e-07
-7.62904e-06
5.9572e-08
-7.54309e-06
-6.39843e-07
-7.39249e-06
-1.39189e-06
-7.16956e-06
-2.19232e-06
-6.86677e-06
-3.03277e-06
-6.47362e-06
-3.9026e-06
-5.98154e-06
-4.78308e-06
-5.38297e-06
-5.64918e-06
-4.6786e-06
-6.46584e-06
-3.87604e-06
-7.19691e-06
-2.99066e-06
-7.81174e-06
-2.03856e-06
-8.29269e-06
-1.03924e-06
-8.62574e-06
-1.38452e-08
-8.80081e-06
1.01327e-06
-8.811e-06
2.01701e-06
-8.65582e-06
2.97518e-06
-8.34023e-06
3.86851e-06
-7.8744e-06
4.68009e-06
-7.27108e-06
5.39422e-06
-6.54794e-06
6.00234e-06
-5.73528e-06
6.50146e-06
-4.86907e-06
6.90014e-06
-3.9849e-06
7.20881e-06
-3.10942e-06
7.43545e-06
-2.26228e-06
7.58843e-06
-1.45424e-06
7.67619e-06
-6.93798e-07
7.70369e-06
1.41969e-08
7.67593e-06
6.65108e-07
7.59601e-06
1.25708e-06
7.46813e-06
1.78779e-06
7.29549e-06
2.25712e-06
7.08252e-06
2.66461e-06
6.8326e-06
3.01172e-06
6.55001e-06
3.29967e-06
6.23814e-06
3.53121e-06
5.90079e-06
3.7087e-06
5.54083e-06
3.83534e-06
5.16148e-06
3.91362e-06
4.76556e-06
3.94636e-06
4.3563e-06
3.93558e-06
3.93643e-06
3.88315e-06
3.50901e-06
3.78986e-06
3.07758e-06
3.656e-06
2.64661e-06
3.48098e-06
2.21966e-06
3.26401e-06
1.80072e-06
3.00365e-06
1.39894e-06
2.69837e-06
1.02551e-06
2.3478e-06
6.86283e-07
1.95413e-06
4.00556e-07
1.52317e-06
1.83387e-07
1.06589e-06
4.38505e-08
6.06473e-07
1.82043e-07
-5.50317e-08
2.40644e-07
-2.14429e-07
7.61689e-07
-4.66005e-07
1.30994e-06
-7.87483e-07
1.83387e-06
-1.15786e-06
2.30976e-06
-1.56099e-06
2.73115e-06
-1.9829e-06
3.09694e-06
-2.41374e-06
3.40893e-06
-2.847e-06
3.66987e-06
-3.27801e-06
3.88285e-06
-3.70295e-06
4.05044e-06
-4.11884e-06
4.17457e-06
-4.52292e-06
4.25607e-06
-4.91271e-06
4.29508e-06
-5.28552e-06
4.29063e-06
-5.63901e-06
4.24126e-06
-5.97052e-06
4.14449e-06
-6.27779e-06
3.99778e-06
-6.55792e-06
3.7979e-06
-6.80842e-06
3.54221e-06
-7.02606e-06
3.22765e-06
-7.20844e-06
2.85235e-06
-7.35247e-06
2.4142e-06
-7.4563e-06
1.91279e-06
-7.51713e-06
1.34746e-06
-7.53345e-06
7.19558e-07
-7.50215e-06
2.97779e-08
-7.42097e-06
-7.19246e-07
-7.28477e-06
-1.52612e-06
-7.08791e-06
-2.38714e-06
-6.8199e-06
-3.29885e-06
-6.4687e-06
-4.25218e-06
-6.01797e-06
-5.23273e-06
-5.45472e-06
-6.21203e-06
-4.77189e-06
-7.14882e-06
-3.97717e-06
-7.99198e-06
-3.08496e-06
-8.70396e-06
-2.11237e-06
-9.26463e-06
-1.07904e-06
-9.65812e-06
-1.21002e-08
-9.86607e-06
1.05722e-06
-9.87807e-06
2.09589e-06
-9.69296e-06
3.07588e-06
-9.31988e-06
3.97737e-06
-8.77635e-06
4.78232e-06
-8.07785e-06
5.47527e-06
-7.24313e-06
6.04916e-06
-6.30999e-06
6.50714e-06
-5.32957e-06
6.86312e-06
-4.34444e-06
7.13545e-06
-3.38318e-06
7.33501e-06
-2.46246e-06
7.47273e-06
-1.59197e-06
7.55476e-06
-7.7538e-07
7.58653e-06
-1.65628e-08
7.57039e-06
6.82839e-07
7.50914e-06
1.32e-06
7.4042e-06
1.89417e-06
7.25857e-06
2.40392e-06
7.07434e-06
2.84986e-06
6.85484e-06
3.23226e-06
6.60261e-06
3.55321e-06
6.32098e-06
3.81455e-06
6.01229e-06
4.0194e-06
5.67932e-06
4.17031e-06
5.32416e-06
4.27045e-06
4.94958e-06
4.32224e-06
4.55794e-06
4.32828e-06
4.15167e-06
4.29016e-06
3.73292e-06
4.20904e-06
3.30496e-06
4.08475e-06
2.87158e-06
3.9165e-06
2.43569e-06
3.70245e-06
2.00019e-06
3.43996e-06
1.5744e-06
3.12543e-06
1.17009e-06
2.75579e-06
7.9459e-07
2.32941e-06
4.69751e-07
1.84807e-06
2.18215e-07
1.32074e-06
5.31577e-08
7.68842e-07
2.37161e-07
-6.79133e-08
3.09482e-07
-2.60831e-07
9.58898e-07
-5.55422e-07
1.60717e-06
-9.20454e-07
2.20034e-06
-1.32781e-06
2.71975e-06
-1.75869e-06
3.16417e-06
-2.19871e-06
3.53898e-06
-2.63869e-06
3.85069e-06
-3.07313e-06
4.10538e-06
-3.49824e-06
4.3081e-06
-3.91128e-06
4.46279e-06
-4.30993e-06
4.57188e-06
-4.69225e-06
4.63671e-06
-5.05612e-06
4.65726e-06
-5.39969e-06
4.63277e-06
-5.72088e-06
4.56131e-06
-6.01798e-06
4.44066e-06
-6.28887e-06
4.26774e-06
-6.53184e-06
4.03983e-06
-6.74451e-06
3.75374e-06
-6.92528e-06
3.40726e-06
-7.07191e-06
2.99792e-06
-7.18347e-06
2.52484e-06
-7.25835e-06
1.98695e-06
-7.29652e-06
1.38511e-06
-7.29696e-06
7.19676e-07
-7.26013e-06
-7.18373e-09
-7.1845e-06
-7.94871e-07
-7.06885e-06
-1.64172e-06
-6.90729e-06
-2.54874e-06
-6.69113e-06
-3.51533e-06
-6.40314e-06
-4.54095e-06
-6.02143e-06
-5.61581e-06
-5.51945e-06
-6.71586e-06
-4.88156e-06
-7.78862e-06
-4.10988e-06
-8.76504e-06
-3.22022e-06
-9.59384e-06
-2.22395e-06
-1.02599e-05
-1.14228e-06
-1.07382e-05
-1.07594e-08
-1.09961e-05
1.12331e-06
-1.10108e-05
2.21225e-06
-1.07806e-05
3.21752e-06
-1.03245e-05
4.11862e-06
-9.67553e-06
4.90221e-06
-8.85975e-06
5.55116e-06
-7.8919e-06
6.06404e-06
-6.8212e-06
6.45288e-06
-5.71737e-06
6.74551e-06
-4.63583e-06
6.96438e-06
-3.60121e-06
7.12684e-06
-2.62464e-06
7.24263e-06
-1.70742e-06
7.31791e-06
-8.50421e-07
7.35421e-06
-5.27486e-08
7.35306e-06
6.83887e-07
7.31379e-06
1.35877e-06
7.23734e-06
1.96959e-06
7.12381e-06
2.51599e-06
6.97504e-06
2.99695e-06
6.79215e-06
3.41354e-06
6.57761e-06
3.76658e-06
6.33305e-06
4.05858e-06
6.06072e-06
4.29169e-06
5.76201e-06
4.46911e-06
5.439e-06