/*--------------------------------*- C++ -*----------------------------------*\
| =========                 |                                                 |
| \\      /  F ield         | OpenFOAM: The Open Source CFD Toolbox           |
|  \\    /   O peration     | Version:  2412                                  |
|   \\  /    A nd           | Website:  www.openfoam.com                      |
|    \\/     M anipulation  |                                                 |
\*---------------------------------------------------------------------------*/
FoamFile
{
    version     2.0;
    format      ascii;
    arch        "LSB;label=32;scalar=64";
    class       volVectorField;
    location    "1.45";
    object      U;
}
// * * * * * * * * * * * * * * * * * * * * * * * * * * * * * * * * * * * * * //

dimensions      [0 1 -1 0 0 0 0];

internalField   nonuniform List<vector> 
6400
(
(0.00223494 -0.00224528 0)
(0.00674483 -0.00229238 0)
(0.0113243 -0.00232197 0)
(0.0159986 -0.00237907 0)
(0.020817 -0.00245545 0)
(0.0257967 -0.00254848 0)
(0.0309635 -0.00264154 0)
(0.0363383 -0.00275605 0)
(0.041922 -0.00285429 0)
(0.0476981 -0.00295356 0)
(0.0536517 -0.00303313 0)
(0.0597573 -0.00309196 0)
(0.0659552 -0.00312728 0)
(0.0721782 -0.00311895 0)
(0.0783524 -0.0030831 0)
(0.0844095 -0.00297599 0)
(0.0902325 -0.002835 0)
(0.0957064 -0.0026212 0)
(0.100717 -0.00237179 0)
(0.105144 -0.00203061 0)
(0.108849 -0.00163447 0)
(0.111696 -0.00118167 0)
(0.113587 -0.000674141 0)
(0.114428 -0.000119308 0)
(0.114138 0.00047562 0)
(0.112641 0.00109418 0)
(0.109928 0.00171368 0)
(0.10602 0.00230301 0)
(0.100978 0.00284282 0)
(0.0949168 0.00332054 0)
(0.0879636 0.003745 0)
(0.0802222 0.00412902 0)
(0.0717118 0.0044567 0)
(0.0626556 0.00468616 0)
(0.0532611 0.00480401 0)
(0.0436796 0.004836 0)
(0.0340678 0.00480796 0)
(0.0244942 0.00472431 0)
(0.0149797 0.00463928 0)
(0.0055771 0.00457882 0)
(-0.00375692 0.00455502 0)
(-0.0130901 0.0045838 0)
(-0.0224838 0.00464615 0)
(-0.0319582 0.00472296 0)
(-0.0414933 0.00477987 0)
(-0.0510321 0.00478669 0)
(-0.0604641 0.00472165 0)
(-0.0696335 0.00455733 0)
(-0.078357 0.00427019 0)
(-0.0863988 0.00387929 0)
(-0.0935782 0.00343591 0)
(-0.0998741 0.00296267 0)
(-0.105161 0.00243268 0)
(-0.109332 0.00184563 0)
(-0.112294 0.00122366 0)
(-0.114014 0.000588254 0)
(-0.114495 -2.68258e-05 0)
(-0.11381 -0.000600083 0)
(-0.112044 -0.00112353 0)
(-0.109298 -0.00159009 0)
(-0.105691 -0.001994 0)
(-0.101342 -0.00233045 0)
(-0.0963617 -0.00259987 0)
(-0.0909254 -0.00281736 0)
(-0.0851482 -0.00295388 0)
(-0.0791227 -0.00306235 0)
(-0.0729687 -0.00311307 0)
(-0.0667621 -0.00311812 0)
(-0.060572 -0.00308992 0)
(-0.0544649 -0.00304511 0)
(-0.0484996 -0.00296119 0)
(-0.042692 -0.00287506 0)
(-0.037067 -0.00278251 0)
(-0.0316338 -0.00268301 0)
(-0.026386 -0.00259091 0)
(-0.0213189 -0.00250858 0)
(-0.0164059 -0.00243328 0)
(-0.0116197 -0.00237281 0)
(-0.00692435 -0.00234122 0)
(-0.00229675 -0.00231514 0)
(0.00220114 -0.00668707 0)
(0.00663096 -0.00680313 0)
(0.0111309 -0.00691055 0)
(0.0157392 -0.00709037 0)
(0.0204938 -0.00732511 0)
(0.0254275 -0.00760334 0)
(0.0305452 -0.00790482 0)
(0.0358901 -0.00822356 0)
(0.0414646 -0.00853492 0)
(0.0472354 -0.00882942 0)
(0.0531997 -0.00907732 0)
(0.0593136 -0.00926172 0)
(0.0655406 -0.00937938 0)
(0.0717968 -0.00937216 0)
(0.0780322 -0.00925318 0)
(0.0841564 -0.0089683 0)
(0.0900505 -0.00853231 0)
(0.0955992 -0.00791758 0)
(0.100711 -0.00713327 0)
(0.105259 -0.00613394 0)
(0.109062 -0.00495704 0)
(0.112015 -0.00360197 0)
(0.114017 -0.00208691 0)
(0.114971 -0.000439266 0)
(0.114807 0.00130624 0)
(0.113511 0.00310318 0)
(0.111064 0.00489521 0)
(0.10748 0.00663019 0)
(0.102796 0.00825422 0)
(0.0970523 0.00972606 0)
(0.0903855 0.0110267 0)
(0.0829029 0.0121284 0)
(0.0747989 0.013036 0)
(0.066202 0.013725 0)
(0.0571427 0.0141894 0)
(0.0476532 0.0144611 0)
(0.0377965 0.0146022 0)
(0.0276114 0.0146036 0)
(0.0171717 0.0145597 0)
(0.00657354 0.0145121 0)
(-0.0040923 0.0144676 0)
(-0.0147264 0.0144836 0)
(-0.0252349 0.0145118 0)
(-0.0355228 0.014509 0)
(-0.0455135 0.0144313 0)
(-0.055141 0.0142276 0)
(-0.0643424 0.0138534 0)
(-0.0730585 0.0132714 0)
(-0.0812424 0.0124495 0)
(-0.0888622 0.0113812 0)
(-0.0957979 0.0100988 0)
(-0.10181 0.0086495 0)
(-0.106783 0.00702874 0)
(-0.110621 0.00527881 0)
(-0.113291 0.00345515 0)
(-0.11478 0.00160946 0)
(-0.115106 -0.000187007 0)
(-0.114291 -0.00188131 0)
(-0.112399 -0.00343989 0)
(-0.109528 -0.00483004 0)
(-0.105801 -0.00603486 0)
(-0.101334 -0.00703924 0)
(-0.096258 -0.00784089 0)
(-0.0907207 -0.00847532 0)
(-0.0848682 -0.008912 0)
(-0.0787937 -0.00919396 0)
(-0.0725759 -0.00933672 0)
(-0.0663284 -0.00935157 0)
(-0.060127 -0.00925826 0)
(-0.054004 -0.00909846 0)
(-0.0480317 -0.0088699 0)
(-0.0422427 -0.00859132 0)
(-0.036631 -0.00831028 0)
(-0.0312257 -0.00800429 0)
(-0.0260243 -0.00772779 0)
(-0.0210051 -0.00747205 0)
(-0.0161463 -0.0072481 0)
(-0.0114311 -0.00707293 0)
(-0.00681625 -0.00697146 0)
(-0.00226315 -0.00688369 0)
(0.00216935 -0.0110648 0)
(0.00653209 -0.0112279 0)
(0.0109664 -0.0114286 0)
(0.0155164 -0.0117402 0)
(0.0202242 -0.0121475 0)
(0.0251233 -0.0126207 0)
(0.030236 -0.013143 0)
(0.0355892 -0.0136893 0)
(0.0411863 -0.0142307 0)
(0.0470151 -0.0147361 0)
(0.053065 -0.0151816 0)
(0.0592833 -0.0155194 0)
(0.0656544 -0.015718 0)
(0.0720948 -0.0157434 0)
(0.0785304 -0.0155394 0)
(0.0848862 -0.0151119 0)
(0.0910231 -0.014399 0)
(0.0968298 -0.0133943 0)
(0.102214 -0.0120632 0)
(0.107023 -0.0104195 0)
(0.111079 -0.00845335 0)
(0.114262 -0.00617843 0)
(0.116452 -0.00363306 0)
(0.117538 -0.000865953 0)
(0.11743 0.00205763 0)
(0.116068 0.0050575 0)
(0.113443 0.00805515 0)
(0.109573 0.0109669 0)
(0.10451 0.0137065 0)
(0.0983569 0.0162017 0)
(0.0912434 0.0183889 0)
(0.0833123 0.0202054 0)
(0.0747187 0.0216631 0)
(0.0656293 0.0227969 0)
(0.0561748 0.023627 0)
(0.0464701 0.0242136 0)
(0.0365744 0.0245792 0)
(0.0265245 0.0247672 0)
(0.0164036 0.0248626 0)
(0.00620861 0.0248713 0)
(-0.00398264 0.0248398 0)
(-0.0141391 0.0248046 0)
(-0.0242745 0.0247318 0)
(-0.0343213 0.0245478 0)
(-0.0442409 0.0242361 0)
(-0.0539962 0.0237527 0)
(-0.0635154 0.0230243 0)
(-0.0727054 0.0220043 0)
(-0.0814636 0.020658 0)
(-0.0896365 0.0189498 0)
(-0.0970146 0.0168555 0)
(-0.103449 0.0144015 0)
(-0.108812 0.0116531 0)
(-0.11297 0.0086987 0)
(-0.115855 0.00562953 0)
(-0.117435 0.00254988 0)
(-0.117719 -0.000460287 0)
(-0.116776 -0.00330855 0)
(-0.114695 -0.00592357 0)
(-0.111591 -0.00825241 0)
(-0.107601 -0.0102645 0)
(-0.102856 -0.0119359 0)
(-0.0975132 -0.0132668 0)
(-0.0917249 -0.0142936 0)
(-0.0856117 -0.0150268 0)
(-0.0793101 -0.0154641 0)
(-0.0729071 -0.0156669 0)
(-0.0664825 -0.0156682 0)
(-0.0601371 -0.0155002 0)
(-0.0539143 -0.0151918 0)
(-0.0478453 -0.0147965 0)
(-0.0419961 -0.0143274 0)
(-0.0363569 -0.0138245 0)
(-0.0309415 -0.0133232 0)
(-0.0257591 -0.012827 0)
(-0.0207614 -0.0123862 0)
(-0.0159442 -0.0120101 0)
(-0.011279 -0.011708 0)
(-0.00672072 -0.0115311 0)
(-0.00223091 -0.0113758 0)
(0.00209978 -0.0153603 0)
(0.0063288 -0.0155688 0)
(0.0106456 -0.01586 0)
(0.015082 -0.0163157 0)
(0.0196911 -0.0169186 0)
(0.0245257 -0.0176074 0)
(0.0295857 -0.0183736 0)
(0.0349258 -0.0191791 0)
(0.0405548 -0.0199834 0)
(0.0464356 -0.020732 0)
(0.0525841 -0.0214081 0)
(0.0589631 -0.0219374 0)
(0.0655225 -0.0222537 0)
(0.072201 -0.0223381 0)
(0.0789101 -0.0221057 0)
(0.0855645 -0.0215386 0)
(0.0920543 -0.0205826 0)
(0.0982404 -0.0191996 0)
(0.104008 -0.017335 0)
(0.109206 -0.0150372 0)
(0.11365 -0.0122563 0)
(0.117187 -0.00902215 0)
(0.119679 -0.00538663 0)
(0.121 -0.00142191 0)
(0.121039 0.00278419 0)
(0.119731 0.0071125 0)
(0.117053 0.0114445 0)
(0.113015 0.0156356 0)
(0.107688 0.0195681 0)
(0.101186 0.0231267 0)
(0.0936588 0.0262242 0)
(0.0852775 0.0287987 0)
(0.076227 0.0308394 0)
(0.0666886 0.032368 0)
(0.0568371 0.0334664 0)
(0.04679 0.0341975 0)
(0.0366231 0.0346125 0)
(0.0264423 0.0348336 0)
(0.016272 0.0349314 0)
(0.00609856 0.0349272 0)
(-0.00400058 0.0348935 0)
(-0.0140735 0.034838 0)
(-0.0242055 0.0347389 0)
(-0.0343451 0.0345501 0)
(-0.0444375 0.034197 0)
(-0.0544811 0.033603 0)
(-0.0643943 0.0326659 0)
(-0.07404 0.0313217 0)
(-0.0832772 0.0294685 0)
(-0.0919215 0.0270647 0)
(-0.0997584 0.0240991 0)
(-0.106602 0.0205958 0)
(-0.112282 0.0166511 0)
(-0.116649 0.0123861 0)
(-0.119608 0.00793974 0)
(-0.121148 0.0034767 0)
(-0.12129 -0.000856738 0)
(-0.120098 -0.00494627 0)
(-0.117696 -0.00868175 0)
(-0.114223 -0.0119943 0)
(-0.109831 -0.0148321 0)
(-0.104672 -0.0171709 0)
(-0.098933 -0.0190387 0)
(-0.0927788 -0.0204368 0)
(-0.0863184 -0.021414 0)
(-0.0796941 -0.0219937 0)
(-0.0730208 -0.0222284 0)
(-0.0663796 -0.0221835 0)
(-0.0598486 -0.0218943 0)
(-0.0534798 -0.0214152 0)
(-0.0473258 -0.0208104 0)
(-0.0414122 -0.0201194 0)
(-0.0357543 -0.0193629 0)
(-0.0303414 -0.0186295 0)
(-0.0251859 -0.0179053 0)
(-0.0202718 -0.0172557 0)
(-0.0155332 -0.0167048 0)
(-0.010971 -0.0162746 0)
(-0.00653579 -0.0160017 0)
(-0.00216774 -0.0157848 0)
(0.00201369 -0.0194823 0)
(0.00605888 -0.0197648 0)
(0.0101955 -0.0201498 0)
(0.0144624 -0.020785 0)
(0.018938 -0.0215833 0)
(0.0236749 -0.0225258 0)
(0.0286728 -0.0235697 0)
(0.03399 -0.0246637 0)
(0.0396457 -0.0257755 0)
(0.0456036 -0.0268245 0)
(0.0518747 -0.0277649 0)
(0.0584537 -0.0285305 0)
(0.0652705 -0.0290373 0)
(0.0722613 -0.029228 0)
(0.0793484 -0.0290273 0)
(0.0864292 -0.0283681 0)
(0.0933841 -0.0271946 0)
(0.100101 -0.0254502 0)
(0.106402 -0.0230891 0)
(0.112132 -0.0201051 0)
(0.117126 -0.0164987 0)
(0.121167 -0.0122625 0)
(0.12409 -0.00746662 0)
(0.125749 -0.00221451 0)
(0.126007 0.00337651 0)
(0.124778 0.00915902 0)
(0.122022 0.0149441 0)
(0.117758 0.0205401 0)
(0.112067 0.0257787 0)
(0.10508 0.0304978 0)
(0.096982 0.0345726 0)
(0.0879878 0.0379198 0)
(0.0783265 0.0405261 0)
(0.0682409 0.0424293 0)
(0.0579151 0.0437171 0)
(0.0474635 0.044478 0)
(0.0370116 0.0448606 0)
(0.0266449 0.0450054 0)
(0.0163437 0.0449796 0)
(0.00608651 0.0449447 0)
(-0.00405771 0.0448727 0)
(-0.0141873 0.0448362 0)
(-0.024382 0.0447839 0)
(-0.0346501 0.0446874 0)
(-0.0449843 0.0444008 0)
(-0.0553777 0.0438173 0)
(-0.0657207 0.0427697 0)
(-0.0759009 0.0411413 0)
(-0.0857658 0.0388432 0)
(-0.0950662 0.0357455 0)
(-0.103545 0.0318404 0)
(-0.110956 0.0271795 0)
(-0.11708 0.0219075 0)
(-0.121737 0.016198 0)
(-0.124815 0.0102586 0)
(-0.126277 0.004285 0)
(-0.126187 -0.00149853 0)
(-0.124644 -0.00692803 0)
(-0.121782 -0.0118591 0)
(-0.117779 -0.0162029 0)
(-0.112815 -0.0198835 0)
(-0.107094 -0.0228799 0)
(-0.100804 -0.0252669 0)
(-0.0941219 -0.0270134 0)
(-0.0871908 -0.0281929 0)
(-0.080147 -0.0288577 0)
(-0.0731167 -0.0290881 0)
(-0.0661641 -0.0289391 0)
(-0.0593849 -0.0284665 0)
(-0.0528474 -0.0277756 0)
(-0.0465643 -0.0269177 0)
(-0.0405621 -0.0259405 0)
(-0.0348778 -0.0249118 0)
(-0.0294931 -0.0238842 0)
(-0.0243943 -0.0229143 0)
(-0.0195691 -0.02203 0)
(-0.0149679 -0.0212752 0)
(-0.0105437 -0.0206983 0)
(-0.00626411 -0.0203215 0)
(-0.00208085 -0.0200477 0)
(0.00188133 -0.0233768 0)
(0.00569098 -0.0237352 0)
(0.00959188 -0.0242625 0)
(0.0136512 -0.025074 0)
(0.017954 -0.0260924 0)
(0.0225445 -0.0273354 0)
(0.027455 -0.0286976 0)
(0.0327289 -0.0301534 0)
(0.0384053 -0.0316158 0)
(0.0444592 -0.0330288 0)
(0.0508932 -0.0343161 0)
(0.0577079 -0.0353737 0)
(0.0648431 -0.0361374 0)
(0.0722313 -0.036509 0)
(0.0797922 -0.0363961 0)
(0.0874215 -0.0357123 0)
(0.095 -0.0343871 0)
(0.102379 -0.0323101 0)
(0.109389 -0.0294806 0)
(0.115837 -0.0258077 0)
(0.12154 -0.0213358 0)
(0.126271 -0.0160483 0)
(0.129785 -0.0100024 0)
(0.131907 -0.00333547 0)
(0.132482 0.00380049 0)
(0.131376 0.0112094 0)
(0.128521 0.0186173 0)
(0.123948 0.0258186 0)
(0.117755 0.03252 0)
(0.110102 0.0385138 0)
(0.101217 0.0436334 0)
(0.0913771 0.0477734 0)
(0.0808964 0.0508981 0)
(0.070052 0.0531014 0)
(0.0590674 0.0544596 0)
(0.0481201 0.0551484 0)
(0.0373344 0.0553743 0)
(0.0267309 0.0553459 0)
(0.0163384 0.055136 0)
(0.00605731 0.0549783 0)
(-0.00412071 0.0548424 0)
(-0.0142502 0.0548664 0)
(-0.0244861 0.0549422 0)
(-0.0348873 0.0550051 0)
(-0.0454733 0.0548933 0)
(-0.0562743 0.0544561 0)
(-0.0672144 0.0534731 0)
(-0.0781095 0.0517093 0)
(-0.0888147 0.0490063 0)
(-0.099055 0.0452265 0)
(-0.108443 0.0403375 0)
(-0.116639 0.0344156 0)
(-0.123358 0.0276483 0)
(-0.128385 0.0202861 0)
(-0.131602 0.012621 0)
(-0.132979 0.00494042 0)
(-0.132573 -0.0024892 0)
(-0.130525 -0.00939619 0)
(-0.12703 -0.0156207 0)
(-0.1223 -0.0210424 0)
(-0.116559 -0.0255926 0)
(-0.110097 -0.0292605 0)
(-0.103101 -0.0321088 0)
(-0.0957353 -0.0341608 0)
(-0.0881916 -0.0354912 0)
(-0.0806162 -0.0361729 0)
(-0.0731232 -0.0363223 0)
(-0.0657752 -0.0359973 0)
(-0.058704 -0.0352909 0)
(-0.0519507 -0.0343163 0)
(-0.0455067 -0.0331308 0)
(-0.0394182 -0.031822 0)
(-0.0337069 -0.0304614 0)
(-0.0283512 -0.0291135 0)
(-0.0233392 -0.0278248 0)
(-0.0186389 -0.0266812 0)
(-0.0142049 -0.0257105 0)
(-0.0099785 -0.0249287 0)
(-0.005923 -0.0244634 0)
(-0.00197193 -0.0241141 0)
(0.00172576 -0.0270079 0)
(0.00520708 -0.0274292 0)
(0.00882104 -0.028098 0)
(0.0126353 -0.0291229 0)
(0.0166817 -0.0304529 0)
(0.0210777 -0.0319993 0)
(0.0258642 -0.0337604 0)
(0.0310836 -0.0356213 0)
(0.0367839 -0.0375145 0)
(0.0429198 -0.0393779 0)
(0.04955 -0.0410746 0)
(0.0566557 -0.0425266 0)
(0.0641608 -0.0436339 0)
(0.0720303 -0.0442736 0)
(0.0801754 -0.0443384 0)
(0.0884726 -0.0437055 0)
(0.096826 -0.042303 0)
(0.105053 -0.0399774 0)
(0.112958 -0.0366821 0)
(0.120334 -0.0323525 0)
(0.126952 -0.026959 0)
(0.132576 -0.0205594 0)
(0.136887 -0.0131546 0)
(0.139646 -0.00491252 0)
(0.140656 0.00397618 0)
(0.13971 0.0132172 0)
(0.136761 0.0225253 0)
(0.131807 0.0315479 0)
(0.124925 0.0399532 0)
(0.116372 0.0474143 0)
(0.106438 0.0536825 0)
(0.0954617 0.0586328 0)
(0.0838696 0.0622394 0)
(0.0720196 0.0645871 0)
(0.0601879 0.0658534 0)
(0.0486148 0.0662963 0)
(0.0374369 0.066199 0)
(0.0266229 0.0657978 0)
(0.0161511 0.0653061 0)
(0.00590139 0.0649431 0)
(-0.00417692 0.064724 0)
(-0.014194 0.0648456 0)
(-0.0244073 0.0651146 0)
(-0.0349005 0.0654651 0)
(-0.0457435 0.0657332 0)
(-0.0570012 0.065645 0)
(-0.0686636 0.0649132 0)
(-0.0805595 0.0631997 0)
(-0.0924402 0.0602 0)
(-0.10392 0.0557744 0)
(-0.11453 0.0498463 0)
(-0.123805 0.042518 0)
(-0.131356 0.0340295 0)
(-0.136898 0.0247128 0)
(-0.140279 0.0149793 0)
(-0.141494 0.0052898 0)
(-0.140625 -0.00397985 0)
(-0.137869 -0.0125377 0)
(-0.133514 -0.0201762 0)
(-0.127825 -0.0267299 0)
(-0.121099 -0.0321617 0)
(-0.113666 -0.0364908 0)
(-0.105755 -0.039747 0)
(-0.0975495 -0.0420381 0)
(-0.0892428 -0.0434272 0)
(-0.0810118 -0.0440491 0)
(-0.0729687 -0.0440103 0)
(-0.0651581 -0.0434334 0)
(-0.0577301 -0.042425 0)
(-0.0507125 -0.0410583 0)
(-0.0440893 -0.0394795 0)
(-0.0379069 -0.0377584 0)
(-0.0321811 -0.0359929 0)
(-0.0268676 -0.0342532 0)
(-0.0219712 -0.0326151 0)
(-0.0174621 -0.0311527 0)
(-0.0132206 -0.0299156 0)
(-0.00925624 -0.0289544 0)
(-0.00549105 -0.0283268 0)
(-0.00181486 -0.0279098 0)
(0.00152849 -0.0302794 0)
(0.00463406 -0.0307789 0)
(0.00786424 -0.0316274 0)
(0.0113004 -0.0328997 0)
(0.0150847 -0.0345557 0)
(0.0192466 -0.0364889 0)
(0.023845 -0.0387002 0)
(0.0289896 -0.0410533 0)
(0.0346659 -0.0434791 0)
(0.0409199 -0.0458699 0)
(0.0477701 -0.0480802 0)
(0.0551795 -0.0500439 0)
(0.0631295 -0.0515987 0)
(0.0715627 -0.0526168 0)
(0.0804002 -0.0529761 0)
(0.0895022 -0.0525124 0)
(0.0987821 -0.0510918 0)
(0.108061 -0.0486231 0)
(0.117087 -0.0449285 0)
(0.125643 -0.0399563 0)
(0.133425 -0.0336429 0)
(0.14018 -0.026011 0)
(0.145546 -0.0171326 0)
(0.149171 -0.00711806 0)
(0.150759 0.00377721 0)
(0.150092 0.0151967 0)
(0.147041 0.0267557 0)
(0.141587 0.0379504 0)
(0.133861 0.0483236 0)
(0.124096 0.0574524 0)
(0.112727 0.065026 0)
(0.100243 0.0708276 0)
(0.0871545 0.0748323 0)
(0.073973 0.0771711 0)
(0.0610915 0.0780925 0)
(0.0487711 0.0780204 0)
(0.0371238 0.0773395 0)
(0.0261177 0.0763157 0)
(0.0157117 0.0753444 0)
(0.00560995 0.074687 0)
(-0.00421023 0.0743131 0)
(-0.01397 0.0746041 0)
(-0.0240339 0.0752069 0)
(-0.0344901 0.0760792 0)
(-0.0455575 0.0769784 0)
(-0.0573651 0.0775308 0)
(-0.0699202 0.0773595 0)
(-0.0830866 0.0759478 0)
(-0.0965192 0.0728595 0)
(-0.109689 0.0678384 0)
(-0.121958 0.0607635 0)
(-0.132692 0.051727 0)
(-0.141378 0.0411138 0)
(-0.147627 0.0294559 0)
(-0.151193 0.017336 0)
(-0.152087 0.00529074 0)
(-0.150538 -0.0061517 0)
(-0.146843 -0.0166018 0)
(-0.141331 -0.0257768 0)
(-0.134382 -0.0335225 0)
(-0.126404 -0.0398548 0)
(-0.117757 -0.0447784 0)
(-0.108713 -0.0483899 0)
(-0.0994721 -0.0508043 0)
(-0.0902519 -0.0521255 0)
(-0.0812426 -0.0525857 0)
(-0.0725446 -0.0522498 0)
(-0.0642239 -0.0512986 0)
(-0.0563624 -0.0498604 0)
(-0.0490326 -0.0480421 0)
(-0.0422284 -0.0459693 0)
(-0.0359494 -0.0437406 0)
(-0.0302178 -0.0414929 0)
(-0.0249879 -0.0392977 0)
(-0.0202498 -0.0372432 0)
(-0.0159484 -0.0354151 0)
(-0.0120121 -0.0338491 0)
(-0.0083518 -0.0326607 0)
(-0.00491981 -0.0318694 0)
(-0.0016354 -0.0313751 0)
(0.0012843 -0.0331 0)
(0.00388721 -0.0337009 0)
(0.00667281 -0.0347601 0)
(0.00971314 -0.0363387 0)
(0.0131021 -0.0383462 0)
(0.0169459 -0.0407689 0)
(0.0213163 -0.0434715 0)
(0.0263235 -0.0464309 0)
(0.0319892 -0.0494803 0)
(0.0383452 -0.0525025 0)
(0.0454083 -0.0553892 0)
(0.0531764 -0.0579648 0)
(0.0616308 -0.0601044 0)
(0.0707004 -0.0616304 0)
(0.0803336 -0.0624289 0)
(0.0904187 -0.0622681 0)
(0.100788 -0.0609624 0)
(0.111303 -0.0584508 0)
(0.121724 -0.0544545 0)
(0.131738 -0.0489 0)
(0.141029 -0.0416704 0)
(0.149232 -0.0327213 0)
(0.155943 -0.0221845 0)
(0.160738 -0.0101634 0)
(0.163181 0.00306177 0)
(0.162934 0.0170913 0)
(0.159789 0.0313416 0)
(0.153687 0.0451723 0)
(0.14478 0.0579463 0)
(0.133459 0.0690786 0)
(0.120236 0.0781251 0)
(0.105724 0.0847891 0)
(0.0906668 0.089063 0)
(0.0757411 0.0911546 0)
(0.0615014 0.0914264 0)
(0.048286 0.0904351 0)
(0.0361454 0.0887582 0)
(0.0250187 0.0868414 0)
(0.0148522 0.0851416 0)
(0.0050552 0.0840764 0)
(-0.00423365 0.0836176 0)
(-0.0134454 0.0840058 0)
(-0.0231712 0.0850716 0)
(-0.0334268 0.0867223 0)
(-0.0446353 0.0885812 0)
(-0.0570018 0.0902015 0)
(-0.0706517 0.091046 0)
(-0.0854664 0.0903799 0)
(-0.100963 0.0874989 0)
(-0.116433 0.0819432 0)
(-0.131021 0.0735614 0)
(-0.143794 0.0625358 0)
(-0.153929 0.0493275 0)
(-0.160944 0.0347339 0)
(-0.164679 0.0195861 0)
(-0.165185 0.00467723 0)
(-0.162692 -0.00931093 0)
(-0.157647 -0.0218927 0)
(-0.150571 -0.0327425 0)
(-0.142022 -0.0417596 0)
(-0.132463 -0.0489548 0)
(-0.122295 -0.0544006 0)
(-0.111859 -0.0582304 0)
(-0.101358 -0.0606062 0)
(-0.0910855 -0.0617651 0)
(-0.0811897 -0.0618877 0)
(-0.0717287 -0.061121 0)
(-0.0628129 -0.0596673 0)
(-0.0545139 -0.057672 0)
(-0.0468519 -0.0552838 0)
(-0.0398138 -0.0526029 0)
(-0.033453 -0.0497898 0)
(-0.0277587 -0.046966 0)
(-0.0226351 -0.0442064 0)
(-0.0181019 -0.0416407 0)
(-0.0140791 -0.0393806 0)
(-0.010473 -0.037458 0)
(-0.00724342 -0.0359737 0)
(-0.00424232 -0.0349948 0)
(-0.00139235 -0.0344228 0)
(0.00096966 -0.0354222 0)
(0.00299443 -0.0360956 0)
(0.00520817 -0.0373707 0)
(0.00772336 -0.0392974 0)
(0.0106676 -0.041756 0)
(0.0141382 -0.0447038 0)
(0.0182026 -0.0480542 0)
(0.0230048 -0.0517023 0)
(0.0286225 -0.0554977 0)
(0.0350442 -0.0593111 0)
(0.0423485 -0.0629936 0)
(0.050513 -0.0663339 0)
(0.0595208 -0.0692408 0)
(0.0693016 -0.0714365 0)
(0.0798363 -0.0727986 0)
(0.0910526 -0.0731141 0)
(0.102698 -0.0721629 0)
(0.114688 -0.0697028 0)
(0.126773 -0.0655391 0)
(0.13859 -0.0594992 0)
(0.14979 -0.0513667 0)
(0.159871 -0.0410923 0)
(0.168334 -0.0286895 0)
(0.174674 -0.0143489 0)
(0.178313 0.00162815 0)
(0.178719 0.0187601 0)
(0.175521 0.0363379 0)
(0.168645 0.0534214 0)
(0.158273 0.0691732 0)
(0.144841 0.0827825 0)
(0.12906 0.0935374 0)
(0.111851 0.101102 0)
(0.0942056 0.105477 0)
(0.0770261 0.106926 0)
(0.0610564 0.106031 0)
(0.0467501 0.103569 0)
(0.0341644 0.100385 0)
(0.023069 0.0971919 0)
(0.0133753 0.0944605 0)
(0.00431544 0.0927322 0)
(-0.00426045 0.0917238 0)
(-0.0127376 0.0926942 0)
(-0.0216824 0.0944393 0)
(-0.0314406 0.0971492 0)
(-0.0425811 0.100441 0)
(-0.0554474 0.103776 0)
(-0.0703582 0.106325 0)
(-0.0872751 0.106979 0)
(-0.105601 0.104717 0)
(-0.124247 0.0988354 0)
(-0.141926 0.088984 0)
(-0.15743 0.0754526 0)
(-0.169627 0.0589986 0)
(-0.177756 0.0406498 0)
(-0.181574 0.0216717 0)
(-0.181255 0.00320105 0)
(-0.177337 -0.0138328 0)
(-0.170476 -0.0288314 0)
(-0.16138 -0.0415306 0)
(-0.15076 -0.0518555 0)
(-0.139189 -0.0598249 0)
(-0.127151 -0.0656312 0)
(-0.115021 -0.0694977 0)
(-0.103095 -0.0716561 0)
(-0.091609 -0.0724695 0)
(-0.0806626 -0.0720665 0)
(-0.0703788 -0.0706862 0)
(-0.0608269 -0.0685855 0)
(-0.0520262 -0.0659061 0)
(-0.0440019 -0.062789 0)
(-0.0367665 -0.0594023 0)
(-0.0303384 -0.0558826 0)
(-0.0246587 -0.0523381 0)
(-0.0196825 -0.0489388 0)
(-0.0154398 -0.0457631 0)
(-0.0117781 -0.0429695 0)
(-0.00861335 -0.0406507 0)
(-0.00586402 -0.0388454 0)
(-0.00339732 -0.0375966 0)
(-0.00111963 -0.0369499 0)
(0.000633614 -0.0370579 0)
(0.00195025 -0.0378421 0)
(0.00346477 -0.0393897 0)
(0.00534003 -0.0416845 0)
(0.00771177 -0.0446609 0)
(0.0106679 -0.048241 0)
(0.0143428 -0.0523423 0)
(0.0189114 -0.0568167 0)
(0.0244181 -0.0615454 0)
(0.030894 -0.0663048 0)
(0.038438 -0.0709173 0)
(0.0469908 -0.0752354 0)
(0.0566057 -0.0790365 0)
(0.0672289 -0.0820915 0)
(0.0787562 -0.08426 0)
(0.0911726 -0.0852355 0)
(0.104336 -0.0848516 0)
(0.118087 -0.0826857 0)
(0.132117 -0.0785656 0)
(0.146135 -0.0721422 0)
(0.159701 -0.0631869 0)
(0.172213 -0.0515456 0)
(0.183021 -0.0371623 0)
(0.191431 -0.0201592 0)
(0.196724 -0.000884298 0)
(0.198149 0.0200308 0)
(0.195032 0.0417057 0)
(0.187183 0.0630057 0)
(0.174879 0.0825413 0)
(0.158648 0.0991794 0)
(0.139465 0.112035 0)
(0.118654 0.120583 0)
(0.0975321 0.124771 0)
(0.0773618 0.124999 0)
(0.0591885 0.122159 0)
(0.0436211 0.117452 0)
(0.0306986 0.112123 0)
(0.0198849 0.107176 0)
(0.0109756 0.102966 0)
(0.00283696 0.100329 0)
(-0.0040388 0.0994708 0)
(-0.0111461 0.100381 0)
(-0.0192663 0.102938 0)
(-0.028123 0.107096 0)
(-0.0388148 0.11233 0)
(-0.0520091 0.118205 0)
(-0.0684244 0.123429 0)
(-0.0880594 0.126379 0)
(-0.110087 0.125511 0)
(-0.133111 0.119614 0)
(-0.155254 0.10808 0)
(-0.17452 0.0912795 0)
(-0.189377 0.0703469 0)
(-0.198833 0.0470831 0)
(-0.202601 0.0232513 0)
(-0.201076 0.000425124 0)
(-0.19506 -0.0202482 0)
(-0.185647 -0.038041 0)
(-0.173866 -0.052727 0)
(-0.160556 -0.064271 0)
(-0.146437 -0.0728696 0)
(-0.132126 -0.0788188 0)
(-0.118018 -0.0824487 0)
(-0.104439 -0.0841887 0)
(-0.0915887 -0.0843287 0)
(-0.0794848 -0.0831872 0)
(-0.0683138 -0.0810437 0)
(-0.0580933 -0.0781063 0)
(-0.0487689 -0.074537 0)
(-0.0403892 -0.0705725 0)
(-0.0329424 -0.0663216 0)
(-0.0264182 -0.0619376 0)
(-0.0208409 -0.057551 0)
(-0.0160835 -0.0533991 0)
(-0.012152 -0.0495765 0)
(-0.00898116 -0.0461744 0)
(-0.00635877 -0.0433455 0)
(-0.00417571 -0.0411413 0)
(-0.00236564 -0.0396633 0)
(-0.000782888 -0.0388698 0)
(0.000191381 -0.0378779 0)
(0.000667135 -0.0388337 0)
(0.00137152 -0.0407072 0)
(0.00246826 -0.0434418 0)
(0.00413239 -0.0469972 0)
(0.00648272 -0.0513018 0)
(0.00965938 -0.0562704 0)
(0.0138408 -0.0617179 0)
(0.0191826 -0.067526 0)
(0.0257297 -0.0734205 0)
(0.0334847 -0.0791776 0)
(0.0424728 -0.0846482 0)
(0.0527634 -0.0895386 0)
(0.0641972 -0.0937144 0)
(0.0768312 -0.0968791 0)
(0.0906177 -0.098819 0)
(0.105436 -0.0992193 0)
(0.121197 -0.0976971 0)
(0.137589 -0.0938769 0)
(0.154292 -0.087301 0)
(0.170775 -0.0776569 0)
(0.186357 -0.0646651 0)
(0.200252 -0.0481835 0)
(0.211529 -0.0282165 0)
(0.21913 -0.00504016 0)
(0.222011 0.0206624 0)
(0.219273 0.0476222 0)
(0.21036 0.0742467 0)
(0.195449 0.0987476 0)
(0.175484 0.119418 0)
(0.151795 0.134909 0)
(0.126093 0.144443 0)
(0.100244 0.147936 0)
(0.0760761 0.146088 0)
(0.0551615 0.140191 0)
(0.0383047 0.132046 0)
(0.0253198 0.12358 0)
(0.0150631 0.116186 0)
(0.00731136 0.1103 0)
(0.000846778 0.106331 0)
(-0.00356422 0.104705 0)
(-0.00874729 0.106848 0)
(-0.0155522 0.110242 0)
(-0.0230581 0.11586 0)
(-0.032771 0.123728 0)
(-0.0458411 0.133347 0)
(-0.0637803 0.142823 0)
(-0.0868157 0.149649 0)
(-0.113942 0.151368 0)
(-0.14306 0.145896 0)
(-0.171401 0.132282 0)
(-0.196088 0.111064 0)
(-0.214592 0.0841637 0)
(-0.225528 0.0542351 0)
(-0.228848 0.0239112 0)
(-0.225326 -0.00448813 0)
(-0.21634 -0.0294565 0)
(-0.203448 -0.0503562 0)
(-0.188045 -0.0670029 0)
(-0.171266 -0.0795983 0)
(-0.154025 -0.0885361 0)
(-0.136964 -0.0943141 0)
(-0.120577 -0.0973624 0)
(-0.105126 -0.0983244 0)
(-0.0907339 -0.0974937 0)
(-0.0774816 -0.0953701 0)
(-0.0653882 -0.0922084 0)
(-0.0543991 -0.088274 0)
(-0.044554 -0.0836467 0)
(-0.0358368 -0.0786552 0)
(-0.0281725 -0.0733662 0)
(-0.0216031 -0.0679679 0)
(-0.0161508 -0.0626198 0)
(-0.0117331 -0.0575211 0)
(-0.00823574 -0.0528835 0)
(-0.00556268 -0.0487861 0)
(-0.00359171 -0.0453761 0)
(-0.00218019 -0.0427359 0)
(-0.00113534 -0.0409642 0)
(-0.000342638 -0.0400424 0)
(-0.000326629 -0.0377766 0)
(-0.00087777 -0.0389072 0)
(-0.00112867 -0.0411461 0)
(-0.000929972 -0.0443805 0)
(-0.000122723 -0.0486026 0)
(0.00142627 -0.0537491 0)
(0.00396744 -0.0597112 0)
(0.00770339 -0.0663171 0)
(0.0127732 -0.0733565 0)
(0.0193144 -0.0806022 0)
(0.0272964 -0.0877622 0)
(0.0367324 -0.0945711 0)
(0.0476657 -0.100819 0)
(0.0600456 -0.106335 0)
(0.0738399 -0.110754 0)
(0.0890538 -0.11396 0)
(0.105723 -0.115548 0)
(0.123751 -0.115049 0)
(0.142904 -0.111923 0)
(0.162823 -0.105602 0)
(0.182889 -0.0955381 0)
(0.202306 -0.0813299 0)
(0.220129 -0.0627053 0)
(0.235209 -0.039518 0)
(0.246176 -0.0118425 0)
(0.251378 0.0197456 0)
(0.249257 0.0536281 0)
(0.239083 0.0874717 0)
(0.221004 0.11852 0)
(0.196031 0.144344 0)
(0.166094 0.163214 0)
(0.133731 0.173913 0)
(0.101617 0.176276 0)
(0.0722397 0.171166 0)
(0.0478007 0.160484 0)
(0.0296091 0.147476 0)
(0.0171913 0.13518 0)
(0.00857309 0.12471 0)
(0.00242215 0.116105 0)
(-0.00141429 0.10975 0)
(-0.00313387 0.107412 0)
(-0.00613263 0.111391 0)
(-0.0110561 0.116321 0)
(-0.0163247 0.123974 0)
(-0.0235948 0.134858 0)
(-0.0354578 0.149211 0)
(-0.0547168 0.164821 0)
(-0.0820272 0.177638 0)
(-0.116015 0.18346 0)
(-0.15382 0.179231 0)
(-0.191315 0.163272 0)
(-0.223645 0.136098 0)
(-0.247006 0.100749 0)
(-0.259648 0.061474 0)
(-0.261771 0.022784 0)
(-0.254916 -0.0126924 0)
(-0.241484 -0.0427474 0)
(-0.223816 -0.0669034 0)
(-0.203709 -0.085357 0)
(-0.182615 -0.0986831 0)
(-0.161585 -0.107471 0)
(-0.141308 -0.112518 0)
(-0.122307 -0.114528 0)
(-0.1048 -0.114167 0)
(-0.0888206 -0.112057 0)
(-0.0743554 -0.108622 0)
(-0.0613497 -0.104202 0)
(-0.0496423 -0.0990218 0)
(-0.039236 -0.093235 0)
(-0.0301806 -0.0870249 0)
(-0.0223144 -0.0805338 0)
(-0.0157214 -0.0739456 0)
(-0.0104356 -0.0674755 0)
(-0.0063781 -0.0612862 0)
(-0.00344033 -0.0556318 0)
(-0.0014904 -0.0506974 0)
(-0.000322434 -0.0466339 0)
(0.000227017 -0.0434991 0)
(0.000325951 -0.0413514 0)
(0.000139365 -0.0402908 0)
(-0.0009439 -0.0365825 0)
(-0.00269968 -0.0378964 0)
(-0.00408438 -0.0405162 0)
(-0.00496523 -0.044322 0)
(-0.00520592 -0.0492813 0)
(-0.00458769 -0.0553941 0)
(-0.00286079 -0.0625315 0)
(0.000255666 -0.0705209 0)
(0.00497321 -0.0790797 0)
(0.0114185 -0.0878965 0)
(0.0196319 -0.0967002 0)
(0.0295554 -0.105074 0)
(0.0411667 -0.112877 0)
(0.054473 -0.119972 0)
(0.0694678 -0.126038 0)
(0.0861404 -0.130866 0)
(0.104717 -0.134108 0)
(0.125243 -0.135249 0)
(0.14751 -0.133467 0)
(0.171178 -0.127906 0)
(0.195521 -0.117741 0)
(0.219594 -0.102476 0)
(0.242406 -0.0816835 0)
(0.262793 -0.0548715 0)
(0.279034 -0.0218329 0)
(0.288518 0.0170405 0)
(0.288602 0.0602863 0)
(0.277464 0.103815 0)
(0.254927 0.143477 0)
(0.222786 0.176191 0)
(0.183811 0.199495 0)
(0.141682 0.211255 0)
(0.100446 0.211133 0)
(0.0639718 0.200444 0)
(0.0356737 0.181731 0)
(0.0168977 0.160233 0)
(0.00581414 0.141717 0)
(-0.00109227 0.128292 0)
(-0.00541783 0.118649 0)
(-0.00488638 0.110258 0)
(-0.00341349 0.108178 0)
(-0.0027551 0.113329 0)
(-0.00452274 0.11833 0)
(-0.0069067 0.12588 0)
(-0.010553 0.139743 0)
(-0.0195646 0.162055 0)
(-0.0391041 0.188739 0)
(-0.0713543 0.212405 0)
(-0.115287 0.22651 0)
(-0.167025 0.226053 0)
(-0.219666 0.207216 0)
(-0.26429 0.17066 0)
(-0.294048 0.122248 0)
(-0.306801 0.0696944 0)
(-0.304854 0.0190524 0)
(-0.291621 -0.0252749 0)
(-0.270793 -0.0613076 0)
(-0.246249 -0.0889055 0)
(-0.220132 -0.108855 0)
(-0.193813 -0.122394 0)
(-0.168333 -0.130442 0)
(-0.144461 -0.134049 0)
(-0.122607 -0.134271 0)
(-0.102976 -0.131983 0)
(-0.0854614 -0.128001 0)
(-0.0698577 -0.122872 0)
(-0.0559818 -0.116969 0)
(-0.0435897 -0.110334 0)
(-0.0326814 -0.10322 0)
(-0.0232409 -0.0956479 0)
(-0.0151813 -0.087784 0)
(-0.00861618 -0.0798477 0)
(-0.00354867 -0.0720204 0)
(6.82908e-05 -0.0645436 0)
(0.00232102 -0.0577206 0)
(0.00341179 -0.0518003 0)
(0.00358884 -0.0469634 0)
(0.00308943 -0.0432681 0)
(0.00207267 -0.0407531 0)
(0.000722513 -0.0394382 0)
(-0.00164496 -0.033978 0)
(-0.00480837 -0.035627 0)
(-0.00753626 -0.0386975 0)
(-0.00967078 -0.0430995 0)
(-0.0111625 -0.0488038 0)
(-0.0117797 -0.0559439 0)
(-0.0111001 -0.064499 0)
(-0.00876667 -0.0741979 0)
(-0.00449897 -0.0846911 0)
(0.00182668 -0.0954647 0)
(0.0102853 -0.106088 0)
(0.0207536 -0.116277 0)
(0.0329992 -0.125848 0)
(0.0471506 -0.134758 0)
(0.0632395 -0.142664 0)
(0.0812795 -0.149513 0)
(0.101617 -0.154857 0)
(0.124623 -0.158124 0)
(0.150425 -0.158171 0)
(0.178731 -0.153797 0)
(0.208717 -0.143884 0)
(0.239408 -0.127993 0)
(0.270234 -0.105535 0)
(0.300077 -0.0752758 0)
(0.326226 -0.036588 0)
(0.344507 0.0110519 0)
(0.349128 0.0672021 0)
(0.336733 0.124802 0)
(0.308114 0.177338 0)
(0.265558 0.220531 0)
(0.212095 0.250462 0)
(0.153199 0.263586 0)
(0.0957613 0.259551 0)
(0.0468848 0.24051 0)
(0.0135525 0.211081 0)
(-0.00190748 0.180081 0)
(-0.00681468 0.155516 0)
(-0.00978805 0.136716 0)
(-0.0119497 0.120568 0)
(-0.00867802 0.107521 0)
(-0.00571022 0.105366 0)
(-0.000684691 0.112279 0)
(0.000963357 0.120725 0)
(0.00172385 0.131652 0)
(0.00507782 0.149668 0)
(0.0056695 0.179153 0)
(-0.00998086 0.217791 0)
(-0.0500392 0.256097 0)
(-0.11267 0.282124 0)
(-0.189485 0.288039 0)
(-0.266966 0.266496 0)
(-0.329579 0.216477 0)
(-0.367662 0.147463 0)
(-0.380122 0.0744187 0)
(-0.370357 0.00796377 0)
(-0.344518 -0.0460734 0)
(-0.310339 -0.087387 0)