/*--------------------------------*- C++ -*----------------------------------*\
| =========                 |                                                 |
| \\      /  F ield         | OpenFOAM: The Open Source CFD Toolbox           |
|  \\    /   O peration     | Version:  2412                                  |
|   \\  /    A nd           | Website:  www.openfoam.com                      |
|    \\/     M anipulation  |                                                 |
\*---------------------------------------------------------------------------*/
FoamFile
{
    version     2.0;
    format      ascii;
    arch        "LSB;label=32;scalar=64";
    class       surfaceScalarField;
    location    "4.64";
    object      phi;
}
// * * * * * * * * * * * * * * * * * * * * * * * * * * * * * * * * * * * * * //

dimensions      [0 3 -1 0 0 0 0];

oriented        oriented;

internalField   nonuniform List<scalar> 
158920
(
-4.83818e-06
4.83818e-06
-9.39761e-06
4.5356e-06
-1.38163e-05
4.39801e-06
-1.82508e-05
4.41877e-06
-2.26964e-05
4.43403e-06
-2.71419e-05
4.43724e-06
-3.15876e-05
4.43981e-06
-3.60378e-05
4.44603e-06
-4.04976e-05
4.4568e-06
-4.49711e-05
4.47135e-06
-4.94629e-05
4.49013e-06
-5.39738e-05
4.50973e-06
-5.85046e-05
4.52984e-06
-6.30572e-05
4.55187e-06
-6.76331e-05
4.57527e-06
-7.22319e-05
4.59827e-06
-7.68535e-05
4.6212e-06
-8.14979e-05
4.644e-06
-8.6166e-05
4.66767e-06
-9.08559e-05
4.6896e-06
-9.55694e-05
4.7131e-06
-0.000100306
4.73677e-06
-0.000105067
4.76064e-06
-0.000109853
4.78534e-06
-0.000114664
4.81071e-06
-0.000119501
4.83643e-06
-0.000124365
4.86358e-06
-0.000129257
4.89195e-06
-0.000134178
4.92027e-06
-0.000139128
4.95026e-06
-0.00014411
4.98136e-06
-0.000149124
5.01354e-06
-0.000154171
5.04685e-06
-0.000159253
5.08132e-06
-0.00016437
5.11696e-06
-0.000169524
5.1538e-06
-0.000174716
5.19181e-06
-0.000179947
5.231e-06
-0.000185219
5.27136e-06
-0.000190532
5.31288e-06
-0.000195888
5.35556e-06
-0.000201288
5.39936e-06
-0.000206733
5.44431e-06
-0.000212224
5.4904e-06
-0.000217762
5.53762e-06
-0.000223348
5.58598e-06
-0.000228984
5.63547e-06
-0.00023467
5.68609e-06
-0.000240409
5.73785e-06
-0.0002462
5.79074e-06
-0.000252045
5.84478e-06
-0.000257945
5.89997e-06
-0.000263902
5.95632e-06
-0.000269917
6.01384e-06
-0.000275989
6.07253e-06
-0.000282122
6.13241e-06
-0.000288316
6.19348e-06
-0.000294572
6.25574e-06
-0.000300892
6.31923e-06
-0.000307277
6.38394e-06
-0.000313727
6.44988e-06
-0.000320244
6.51706e-06
-0.00032683
6.58549e-06
-0.000333486
6.65516e-06
-0.000340213
6.72609e-06
-0.000347011
6.79828e-06
-0.000353883
6.87174e-06
-0.00036083
6.94647e-06
-0.000367853
7.02249e-06
-0.000374954
7.0998e-06
-0.000382133
7.1784e-06
-0.000389391
7.25831e-06
-0.000396731
7.33953e-06
-0.000404154
7.42206e-06
-0.00041166
7.5059e-06
-0.000419252
7.59107e-06
-0.00042693
7.67757e-06
-0.000434696
7.76541e-06
-0.000442551
7.8546e-06
-0.000450497
7.94514e-06
-0.000458534
8.03703e-06
-0.000466665
8.13028e-06
-0.00047489
8.22488e-06
-0.000483212
8.32085e-06
-0.00049163
8.41818e-06
-0.000500148
8.51687e-06
-0.000508765
8.61694e-06
-0.000517484
8.71837e-06
-0.000526306
8.82119e-06
-0.000535232
8.92539e-06
-0.000544263
9.03097e-06
-0.000553402
9.13793e-06
-0.000562649
9.24628e-06
-0.000572005
9.35601e-06
-0.000581473
9.46713e-06
-0.000591053
9.57963e-06
-0.000600747
9.69351e-06
-0.000610557
9.80878e-06
-0.000620483
9.92542e-06
-0.000630527
1.00434e-05
-0.00064069
1.01628e-05
-0.000650974
1.02836e-05
-0.000661381
1.04057e-05
-0.00067191
1.05292e-05
-0.000682565
1.06541e-05
-0.000693346
1.07803e-05
-0.000704255
1.09079e-05
-0.000715292
1.10368e-05
-0.000726459
1.1167e-05
-0.000737759
1.12985e-05
-0.000749191
1.14314e-05
-0.000760757
1.15656e-05
-0.000772459
1.1701e-05
-0.000784297
1.18378e-05
-0.000796273
1.19758e-05
-0.000808389
1.21151e-05
-0.000820645
1.22556e-05
-0.000833043
1.23973e-05
-0.000845584
1.25403e-05
-0.00085827
1.26845e-05
-0.0008711
1.28298e-05
-0.000884077
1.29763e-05
-0.000897201
1.31239e-05
-0.000910475
1.32727e-05
-0.000923898
1.34225e-05
-0.000937472
1.35734e-05
-0.000951198
1.37254e-05
-0.000965077
1.38784e-05
-0.00097911
1.40323e-05
-0.000993298
1.41873e-05
-0.00100764
1.43432e-05
-0.00102214
1.45e-05
-0.0010368
1.46577e-05
-0.00105162
1.48162e-05
-0.00106659
1.49756e-05
-0.00108173
1.51357e-05
-0.00109703
1.52965e-05
-0.00111249
1.5458e-05
-0.00112811
1.56202e-05
-0.00114389
1.57831e-05
-0.00115984
1.59464e-05
-0.00117595
1.61104e-05
-0.00119222
1.62748e-05
-0.00120866
1.64396e-05
-0.00122527
1.66048e-05
-0.00124204
1.67704e-05
-0.00125898
1.69362e-05
-0.00127608
1.71022e-05
-0.00129335
1.72685e-05
-0.00131079
1.74348e-05
-0.00132839
1.76012e-05
-0.00134616
1.77676e-05
-0.00136409
1.79339e-05
-0.00138219
1.81e-05
-0.00140046
1.82659e-05
-0.00141889
1.84316e-05
-0.00143749
1.85968e-05
-0.00145625
1.87617e-05
-0.00147518
1.8926e-05
-0.00149427
1.90898e-05
-0.00151352
1.92529e-05
-0.00153294
1.94152e-05
-0.00155251
1.95767e-05
-0.00157225
1.97373e-05
-0.00159215
1.98968e-05
-0.00161221
2.00553e-05
-0.00163242
2.02125e-05
-0.00165279
2.03684e-05
-0.00167331
2.05229e-05
-0.00169399
2.06758e-05
-0.00171481
2.08272e-05
-0.00173579
2.09768e-05
-0.00175692
2.11246e-05
-0.00177819
2.12704e-05
-0.0017996
2.14141e-05
-0.00182116
2.15557e-05
-0.00184285
2.16949e-05
-0.00186469
2.18317e-05
-0.00188665
2.19659e-05
-0.00190875
2.20974e-05
-0.00193098
2.22261e-05
-0.00195333
2.23518e-05
-0.00197581
2.24744e-05
-0.0019984
2.25937e-05
-0.00202111
2.27097e-05
-0.00204393
2.28221e-05
-0.00206686
2.29309e-05
-0.0020899
2.30358e-05
-0.00211304
2.31367e-05
-0.00213627
2.32335e-05
-0.0021596
2.33259e-05
-0.00218301
2.34139e-05
-0.00220651
2.34973e-05
-0.00223009
2.35759e-05
-0.00225374
2.36494e-05
-0.00227745
2.37179e-05
-0.00230124
2.37811e-05
-0.00232507
2.38387e-05
-0.00234897
2.38907e-05
-0.0023729
2.39369e-05
-0.00239688
2.3977e-05
-0.00242089
2.40108e-05
-0.00244493
2.40383e-05
-0.00246899
2.40592e-05
-0.00249306
2.40732e-05
-0.00251714
2.40803e-05
-0.00254122
2.40802e-05
-0.0025653
2.40728e-05
-0.00258936
2.40577e-05
-0.00261339
2.40349e-05
-0.0026374
2.4004e-05
-0.00266136
2.3965e-05
-0.00268528
2.39175e-05
-0.00270914
2.38614e-05
-0.00273294
2.37965e-05
-0.00275666
2.37225e-05
-0.0027803
2.36392e-05
-0.00280384
2.35465e-05
-0.00282729
2.3444e-05
-0.00285062
2.33316e-05
-0.00287383
2.32091e-05
-0.00289691
2.30762e-05
-0.00291984
2.29328e-05
-0.00294262
2.27785e-05
-0.00296523
2.26133e-05
-0.00298767
2.24367e-05
-0.00300992
2.22488e-05
-0.00303196
2.20491e-05
-0.0030538
2.18375e-05
-0.00307541
2.16138e-05
-0.00309679
2.13777e-05
-0.00311792
2.1129e-05
-0.00313879
2.08676e-05
-0.00315938
2.05931e-05
-0.00317969
2.03054e-05
-0.00319969
2.00042e-05
-0.00321938
1.96894e-05
-0.00323874
1.93607e-05
-0.00325776
1.90179e-05
-0.00327642
1.86607e-05
-0.00329471
1.82891e-05
-0.00331261
1.79027e-05
-0.00333011
1.75013e-05
-0.0033472
1.70848e-05
-0.00336385
1.6653e-05
-0.00338006
1.62056e-05
-0.0033958
1.57425e-05
-0.00341106
1.52634e-05
-0.00342583
1.47681e-05
-0.00344008
1.42565e-05
-0.00345381
1.37283e-05
-0.003467
1.31833e-05
-0.00347962
1.26214e-05
-0.00349166
1.20424e-05
-0.00350311
1.14461e-05
-0.00351394
1.08324e-05
-0.00352414
1.0201e-05
-0.00353369
9.55177e-06
-0.00354257
8.88458e-06
-0.00355077
8.19927e-06
-0.00355827
7.49569e-06
-0.00356504
6.77369e-06
-0.00357108
6.03315e-06
-0.00357635
5.27395e-06
-0.00358085
4.49598e-06
-0.00358454
3.6992e-06
-0.00358743
2.88362e-06
-0.00358948
2.04936e-06
-0.00359067
1.19683e-06
-0.003591
3.27082e-07
-0.00359042
-5.78188e-07
-0.00358892
-1.50713e-06
-0.0035865
-2.41895e-06
-0.00358313
-3.36798e-06
-0.00357878
-4.35196e-06
-0.00357345
-5.32723e-06
-0.0035671
-6.34975e-06
-0.00355973
-7.37025e-06
-0.00355131
-8.42163e-06
-0.00354181
-9.49459e-06
-0.00353123
-1.05789e-05
-0.00351954
-1.16966e-05
-0.00350672
-1.28165e-05
-0.00349275
-1.39718e-05
-0.00347761
-1.51339e-05
-0.00346129
-1.63214e-05
-0.00344376
-1.75289e-05
-0.00342501
-1.87515e-05
-0.00340501
-2.00013e-05
-0.00338375
-2.12581e-05
-0.00336121
-2.25428e-05
-0.00333737
-2.38367e-05
-0.00331221
-2.51567e-05
-0.00328573
-2.64864e-05
-0.00325789
-2.78399e-05
-0.00322868
-2.9204e-05
-0.00319809
-3.0588e-05
-0.00316611
-3.19857e-05
-0.00313271
-3.34003e-05
-0.00309788
-3.48285e-05
-0.0030616
-3.6272e-05
-0.00302387
-3.77284e-05
-0.00298468
-3.91987e-05
-0.00294399
-4.06805e-05
-0.00290182
-4.21749e-05
-0.00285814
-4.36788e-05
-0.00281294
-4.51942e-05
-0.00276623
-4.67161e-05
-0.00271798
-4.82488e-05
-0.00266819
-4.97844e-05
-0.00261686
-5.13285e-05
-0.00256399
-5.28738e-05
-0.00250956
-5.44246e-05
-0.00245359
-5.59743e-05
-0.00239606
-5.75249e-05
-0.00233698
-5.90735e-05
-0.00227637
-6.0617e-05
-0.00221421
-6.21583e-05
-0.00215052
-6.36883e-05
-0.0020853
-6.52125e-05
-0.00201858
-6.67214e-05
-0.00195036
-6.82172e-05
-0.00188066
-6.96977e-05
-0.0018095
-7.11562e-05
-0.00173691
-7.25972e-05
-0.0016629
-7.40085e-05
-0.0015875
-7.53938e-05
-0.00151075
-7.67509e-05
-0.00143267
-7.80703e-05
-0.00135332
-7.93567e-05
-0.00127271
-8.06012e-05
-0.00119091
-8.18022e-05
-0.00110794
-8.29609e-05
-0.00102388
-8.40653e-05
-0.000938757
-8.51193e-05
-0.000852634
-8.61204e-05
-0.000765574
-8.70581e-05
-0.000677636
-8.7937e-05
-0.000588881
-8.87531e-05
-0.000499384
-8.94944e-05
-0.000409225
-9.01579e-05
-0.000318472
-9.07508e-05
-0.000227142
-9.13277e-05
-0.000135275
-9.18657e-05
-4.29716e-05
-9.23012e-05
4.96773e-05
-9.26472e-05
0.000142598
-9.29188e-05
0.000235729
-9.31299e-05
0.000329032
-9.3303e-05
0.000422425
-9.33918e-05
0.000515767
-9.33425e-05
0.000608968
-9.32008e-05
0.000701995
-9.30274e-05
0.000794828
-9.28345e-05
0.000887342
-9.25151e-05
0.000979488
-9.21469e-05
0.00107121
-9.17242e-05
0.00116245
-9.12436e-05
0.00125316
-9.07096e-05
0.00134329
-9.01271e-05
0.00143278
-8.94964e-05
0.0015216
-8.88171e-05
0.00160969
-8.80926e-05
0.00169702
-8.73286e-05
0.00178355
-8.65255e-05
0.00186923
-8.56854e-05
0.00195404
-8.48076e-05
0.00203794
-8.38953e-05
0.00212089
-8.29504e-05
0.00220286
-8.19738e-05
0.00228383
-8.09666e-05
0.00236376
-7.99251e-05
0.00244261
-7.88528e-05
0.00252036
-7.77512e-05
0.00259698
-7.66191e-05
0.00267244
-7.54569e-05
0.0027467
-7.42612e-05
0.00281973
-7.30316e-05
0.0028915
-7.17712e-05
0.00296198
-7.04799e-05
0.00303114
-6.91561e-05
0.00309893
-6.77965e-05
0.00316533
-6.63991e-05
0.0032303
-6.49649e-05
0.00329379
-6.34941e-05
0.00335577
-6.19837e-05
0.0034162
-6.04328e-05
0.00347504
-5.88374e-05
0.00353223
-5.71952e-05
0.00358774
-5.55051e-05
0.0036415
-5.3765e-05
0.00369348
-5.19725e-05
0.0037436
-5.01237e-05
0.00379181
-4.8213e-05
0.00383805
-4.62414e-05
0.00388226
-4.42044e-05
0.00392435
-4.20964e-05
0.00396427
-3.99169e-05
0.00400193
-3.76647e-05
0.00403727
-3.53336e-05
0.00407019
-3.29221e-05
0.00410063
-3.04391e-05
0.0041285
-2.78689e-05
0.00415371
-2.52132e-05
0.00417618
-2.2469e-05
0.00419583
-1.9644e-05
0.00421257
-1.67383e-05
0.00422632
-1.37495e-05
0.004237
-1.06784e-05
0.00424453
-7.52977e-06
0.00424884
-4.31134e-06
0.00424986
-1.02383e-06
0.00424744
2.42004e-06
0.00424155
5.89141e-06
0.00423221
9.33336e-06
0.0042193
1.292e-05
0.00420279
1.65049e-05
0.00418262
2.01756e-05
0.00415876
2.38629e-05
0.00413118
2.75831e-05
0.00409982
3.13606e-05
0.0040647
3.5118e-05
0.00402579
3.89099e-05
0.00398308
4.27106e-05
0.0039366
4.64805e-05
0.00388632
5.02822e-05
0.00383228
5.40383e-05
0.0037745
5.77837e-05
0.003713
6.14999e-05
0.00364784
6.51597e-05
0.00357904
6.87964e-05
0.00350669
7.23543e-05
0.00343082
7.58676e-05
0.00335151
7.93121e-05
0.00326886
8.26507e-05
0.00318294
8.59244e-05
0.00309384
8.91044e-05
0.00300166
9.21718e-05
0.00290654
9.5123e-05
0.00280859
9.79493e-05
0.00270795
0.000100644
0.00260476
0.000103185
0.00249917
0.000105597
0.00239133
0.000107838
0.00228144
0.000109887
0.00216968
0.000111766
0.00205623
0.000113445
0.00194134
0.000114895
0.00182519
0.00011615
0.00170802
0.000117174
0.00159004
0.000117978
0.00147152
0.000118517
0.0013527
0.000118824
0.00123382
0.000118875
0.00111517
0.000118649
0.000997031
0.000118138
0.000879681
0.00011735
0.000763382
0.000116299
0.000648389
0.000114993
0.000534959
0.000113432
0.000423393
0.000111567
0.000313973
0.000109421
0.000206896
0.000107079
0.000102389
0.000104508
7.3102e-07
0.000101658
-9.78223e-05
9.85534e-05
-0.000193055
9.52323e-05
-0.000284738
9.16829e-05
-0.000372515
8.77748e-05
-0.00045657
8.40523e-05
-0.000536296
7.97243e-05
-0.000611629
7.53302e-05
-0.000682557
7.0926e-05
-0.000748745
6.61848e-05
-0.000810199
6.14514e-05
-0.00086673
5.65301e-05
-0.000918618
5.18873e-05
-0.000965347
4.67278e-05
-0.00100704
4.16898e-05
-0.0010437
3.66587e-05
-0.00107528
3.15732e-05
-0.00110184
2.65682e-05
-0.00112345
2.16031e-05
-0.00114
1.6541e-05
-0.00115153
1.15211e-05
-0.00115813
6.60149e-06
-0.00116016
2.03564e-06
-0.00115734
-2.81857e-06
-0.00114991
-7.4352e-06
-0.00113814
-1.17809e-05
-0.00112183
-1.6315e-05
-0.00110133
-2.04905e-05
-0.00107667
-2.46567e-05
-0.00104807
-2.85837e-05
-0.00101563
-3.24304e-05
-0.000979569
-3.60652e-05
-0.000940018
-3.95507e-05
-0.000897181
-4.28337e-05
-0.000851197
-4.59794e-05
-0.000802259
-4.89387e-05
-0.00075065
-5.16163e-05
-0.000696414
-5.4246e-05
-0.000639849
-5.6573e-05
-0.000581152
-5.86983e-05
-0.000520582
-6.05663e-05
-0.000458182
-6.23987e-05
-0.000394327
-6.38577e-05
-0.000329174
-6.51558e-05
-0.00026298
-6.61946e-05
-0.000195929
-6.7048e-05
-0.000128131
-6.77955e-05
-5.98572e-05
-6.8278e-05
8.65357e-06
-6.8519e-05
7.71093e-05
-6.84626e-05
0.000145373
-6.82647e-05
0.000213378
-6.79991e-05
0.00028083
-6.74461e-05
0.000347726
-6.68958e-05
0.000413574
-6.58531e-05
0.000478328
-6.47621e-05
0.00054185
-6.35266e-05
0.000603985
-6.21333e-05
0.000664465
-6.0474e-05
0.000723271
-5.88001e-05
0.000780284
-5.70121e-05
0.000835313
-5.50318e-05
0.000888395
-5.30874e-05
0.000939187
-5.0797e-05
0.000987678
-4.84908e-05
0.00103381
-4.61297e-05
0.00107717
-4.33523e-05
0.00111808
-4.09028e-05
0.00115628
-3.82017e-05
0.00119155
-3.52815e-05
0.00122396
-3.2417e-05
0.00125333
-2.93667e-05
0.00127965
-2.63277e-05
0.0013028
-2.31377e-05
0.00132284
-2.00362e-05
0.00133975
-1.69118e-05
0.00135356
-1.3809e-05
0.00136421
-1.0653e-05
0.00137172
-7.51622e-06
0.00137608
-4.36347e-06
0.00137763
-1.5555e-06
0.00137605
1.57841e-06
0.0013716
4.4469e-06
0.00136438
7.21791e-06
0.00135438
1.00122e-05
0.00134188
1.24952e-05
0.00132696
1.49265e-05
0.00130952
1.74355e-05
0.00128991
1.96107e-05
0.00126803
2.1882e-05
0.00124388
2.41473e-05
0.00121779
2.60796e-05
0.00118979
2.80032e-05
0.00116005
2.97398e-05
0.00112879
3.12595e-05
0.00109606
3.27294e-05
0.00106198
3.40793e-05
0.00102651
3.54717e-05
0.000989869
3.66444e-05
0.00095218
3.76913e-05
0.000913507
3.86746e-05
0.000873997
3.95112e-05
0.000833623
4.03739e-05
0.00079275
4.0872e-05
0.000751113
4.16354e-05
0.000708817
4.22943e-05
0.000665936
4.28794e-05
0.00062244
4.34944e-05
0.000578223
4.42168e-05
0.000533459
4.47631e-05
0.00048799
4.5469e-05
0.000441467
4.65222e-05
0.000393739
4.77288e-05
0.000344029
4.97099e-05
0.00029293
5.10999e-05
0.000238198
5.47327e-05
0.000181907
5.62924e-05
0.000144093
3.78145e-05
0.000120557
2.35368e-05
8.02624e-05
4.0296e-05
2.61079e-05
5.41559e-05
-3.05943e-05
5.67033e-05
-7.59264e-05
4.53325e-05
-0.000101869
2.59426e-05
-0.00013795
3.60807e-05
-0.000194484
5.65339e-05
-0.000251801
5.73157e-05
-0.000305653
5.38519e-05
-0.000358227
5.2574e-05
-0.000409087
5.08606e-05
-0.000458864
4.9779e-05
-0.000507663
4.87987e-05
-0.000555651
4.79883e-05
-0.000603048
4.73969e-05
-0.000649682
4.66336e-05
-0.000695682
4.60011e-05
-0.000741097
4.54146e-05
-0.000785788
4.46911e-05
-0.000829779
4.3991e-05
-0.000872912
4.31335e-05
-0.000914983
4.20707e-05
-0.000956143
4.11582e-05
-0.000996341
4.01953e-05
-0.0010352
3.88556e-05
-0.00107275
3.75539e-05
-0.00110881
3.60573e-05
-0.00114326
3.44534e-05
-0.00117615
3.28977e-05
-0.00120721
3.10532e-05
-0.00123632
2.91193e-05
-0.00126332
2.70006e-05
-0.00128798
2.46597e-05
-0.00131032
2.2332e-05
-0.00133026
1.99369e-05
-0.00134768
1.74244e-05
-0.00136218
1.44997e-05
-0.00137378
1.15965e-05
-0.00138248
8.69237e-06
-0.00138787
5.39464e-06
-0.00139005
2.17669e-06
-0.00138886
-1.18946e-06
-0.00138423
-4.63158e-06
-0.00137604
-8.19045e-06
-0.00136415
-1.18809e-05
-0.00134857
-1.55841e-05
-0.00132936
-1.9209e-05
-0.0013064
-2.29607e-05
-0.00127961
-2.67849e-05
-0.00124918
-3.04354e-05
-0.00121513
-3.40487e-05
-0.00117737
-3.77623e-05
-0.00113619
-4.11806e-05
-0.00109176
-4.44253e-05
-0.00104403
-4.77344e-05
-0.000992972
-5.10576e-05
-0.000939268
-5.37043e-05
-0.000882575
-5.66927e-05
-0.000823149
-5.94269e-05
-0.000761486
-6.16623e-05
-0.000697048
-6.44382e-05
-0.000630503
-6.65462e-05
-0.00056184
-6.8665e-05
-0.000491303
-7.05388e-05
-0.000419011
-7.2293e-05
-0.000345388
-7.36229e-05
-0.000270317
-7.50722e-05
-0.000194355
-7.59627e-05
-0.000117774
-7.6583e-05
-4.06005e-05
-7.71739e-05
3.66769e-05
-7.72767e-05
0.000113882
-7.72039e-05
0.000190641
-7.67595e-05
0.000266676
-7.60354e-05
0.000341612
-7.4938e-05
0.00041562
-7.40089e-05
0.000487939
-7.23209e-05
0.000558399
-7.04614e-05
0.000626458
-6.80616e-05
0.000692083
-6.56264e-05
0.00075485
-6.27666e-05
0.000814557
-5.97071e-05
0.000870962
-5.64047e-05
0.000923675
-5.2712e-05
0.000972346
-4.8672e-05
0.00101671
-4.43643e-05
0.00105651
-3.98053e-05
0.0010916
-3.50923e-05
0.00112168
-3.00747e-05
0.00114653
-2.48572e-05
0.0011659
-1.93735e-05
0.00117954
-1.36316e-05
0.00118733
-7.79114e-06
0.00118896
-1.62707e-06
0.00118472
4.23365e-06
0.00117423
1.04917e-05
0.00115708
1.71531e-05
0.00113328
2.38021e-05
0.00110274
3.05381e-05
0.00106574
3.69933e-05
0.00102173
4.40174e-05
0.000970838
5.08869e-05
0.000913751
5.70862e-05
0.000849682
6.407e-05
0.000779139
7.05454e-05
0.000701991
7.71508e-05
0.000618333
8.36609e-05
0.000528981
8.93543e-05
0.000433369
9.56141e-05
0.000332023
0.000101349
0.000225434
0.000106591
0.000113808
0.000111627
-2.40013e-06
0.000116208
-0.000123025
0.000120625
-0.000247672
0.000124649
-0.000375831
0.000128159
-0.000507136
0.000131305
-0.000641219
0.000134083
-0.000777626
0.000136409
-0.000915959
0.000138334
-0.00105578
0.000139824
-0.00119662
0.00014084
-0.00133802
0.000141399
-0.00147952
0.0001415
-0.00162064
0.000141119
-0.00176093
0.000140293
-0.00189997
0.000139031
-0.00203739
0.000137421
-0.00217282
0.000135431
-0.00230591
0.000133092
-0.00243626
0.000130354
-0.00256351
0.000127243
-0.00268732
0.000123817
-0.0028075
0.000120176
-0.00292372
0.000116218
-0.00303571
0.000111999
-0.00314329
0.000107578
-0.00324622
0.000102927
-0.00334426
9.80444e-05
-0.00343728
9.30135e-05
-0.00352517
8.78893e-05
-0.0036078
8.2633e-05
-0.00368506
7.72669e-05
-0.00375692
7.1852e-05
-0.00382321
6.62938e-05
-0.00388388
6.06686e-05
-0.00393894
5.50645e-05
-0.00398839
4.9449e-05
-0.00403223
4.38322e-05
-0.00407044
3.82173e-05
-0.0041031
3.26613e-05
-0.00413024
2.71398e-05
-0.00415185
2.16124e-05
-0.00416801
1.61586e-05
-0.00417882
1.08144e-05
-0.0041844
5.57491e-06
-0.00418475
3.55622e-07
-0.00418006
-4.69976e-06
-0.00417045
-9.60884e-06
-0.00415605
-1.43975e-05
-0.00413691
-1.91383e-05
-0.00411315
-2.37537e-05
-0.00408497
-2.81833e-05
-0.00405244
-3.25311e-05
-0.00401568
-3.67604e-05
-0.00397484
-4.08347e-05
-0.00393007
-4.47634e-05
-0.00388146
-4.86082e-05
-0.00382912
-5.2345e-05
-0.00377316
-5.59559e-05
-0.00371373
-5.94312e-05
-0.00365092
-6.2813e-05
-0.00358481
-6.61e-05
-0.00351554
-6.92734e-05
-0.0034432
-7.23368e-05
-0.00336787
-7.53298e-05
-0.00328968
-7.81931e-05
-0.00320874
-8.09344e-05
-0.00312518
-8.35612e-05
-0.0030391
-8.60775e-05
-0.00295059
-8.85113e-05
-0.00285976
-9.08281e-05
-0.0027667
-9.30653e-05
-0.00267151
-9.51866e-05
-0.00257437
-9.71371e-05
-0.00247536
-9.90104e-05
-0.00237456
-0.000100801
-0.00227209
-0.000102465
-0.0021681
-0.000103995
-0.00206269
-0.000105408
-0.00195595
-0.00010674
-0.00184802
-0.000107929
-0.00173905
-0.000108973
-0.00162904
-0.000110002
-0.00151814
-0.000110903
-0.00140645
-0.000111695
-0.00129403
-0.000112418
-0.00118095
-0.00011308
-0.00106728
-0.000113663
-0.000953167
-0.000114117
-0.000838731
-0.000114436
-0.000723987
-0.000114745
-0.000609016
-0.000114971
-0.000493863
-0.000115155
-0.000378663
-0.0001152
-0.000263605
-0.000115058
-0.000148739
-0.000114866
-3.42206e-05
-0.000114519
8.0005e-05
-0.000114226
0.000193824
-0.000113819
0.000307089
-0.000113266
0.000419632
-0.000112544
0.000531459
-0.000111828
0.000642568
-0.00011111
0.000752815
-0.00011025
0.000862086
-0.000109273
0.000970278
-0.000108194
0.00107728
-0.000107001
0.00118296
-0.000105682
0.00128721
-0.000104251
0.00138993
-0.000102724
0.00149103
-0.000101105
0.00159041
-9.9376e-05
0.00168794
-9.75372e-05
0.00178353
-9.55855e-05
0.00187707
-9.35461e-05
0.0019685
-9.14268e-05
0.00205773
-8.92395e-05
0.00214471
-8.69732e-05
0.00222933
-8.46293e-05
0.00231155
-8.22213e-05
0.0023913
-7.97464e-05
0.00246852
-7.72259e-05
0.00254319
-7.46654e-05
0.00261525
-7.20687e-05
0.00268469
-6.94341e-05
0.00275147
-6.67815e-05
0.00281559
-6.4124e-05
0.00287704
-6.14508e-05
0.00293582
-5.8784e-05
0.00299193
-5.61089e-05
0.00304537
-5.34384e-05
0.00309614
-5.07672e-05
0.00314425
-4.8112e-05
0.00318973
-4.54749e-05
0.00323257
-4.28423e-05
0.00327281
-4.02363e-05
0.00331045
-3.76408e-05
0.00334551
-3.50672e-05
0.00337802
-3.25036e-05
0.00340798
-2.99644e-05
0.00343545
-2.74595e-05
0.0034604
-2.4957e-05
0.0034829
-2.24914e-05
0.00350295
-2.00528e-05
0.00352059
-1.764e-05
0.00353586
-1.52671e-05
0.00354876
-1.29007e-05
0.00355935
-1.05851e-05
0.00356766
-8.31761e-06
0.00357372
-6.0574e-06
0.00357759
-3.86177e-06
0.00357931
-1.72876e-06
0.0035789
4.12051e-07
0.00357644
2.46409e-06
0.00357197
4.46528e-06
0.00356556
6.41893e-06
0.00355724
8.31892e-06
0.00354708
1.01618e-05
0.00353513
1.19476e-05
0.00352146
1.36714e-05
0.00350613
1.53331e-05
0.00348919
1.6938e-05
0.00347071
1.84787e-05
0.00345075
1.9956e-05
0.00342938
2.13745e-05
0.00340665
2.27322e-05
0.00338262
2.40269e-05
0.00335736
2.52611e-05
0.00333092
2.64406e-05
0.00330337
2.75554e-05
0.00327476
2.86069e-05
0.00324515
2.96061e-05
0.00321461
3.05486e-05
0.00318318
3.1434e-05
0.00315091
3.22672e-05
0.00311786
3.30445e-05
0.00308409
3.37664e-05
0.00304966
3.44385e-05
0.00301459
3.50641e-05
0.00297896
3.56407e-05
0.00294279
3.6169e-05
0.00290614
3.66517e-05
0.00286905
3.70884e-05
0.00283156
3.74821e-05
0.00279373
3.78355e-05
0.00275558
3.81481e-05
0.00271716
3.84206e-05
0.00267851
3.86549e-05
0.00263966
3.88508e-05
0.00260065
3.90098e-05
0.00256151
3.91347e-05
0.00252229
3.92273e-05
0.002483
3.92886e-05
0.00244368
3.93193e-05
0.00240436
3.93201e-05
0.00236507
3.92922e-05
0.00232583
3.9236e-05
0.00228668
3.91533e-05
0.00224763
3.90456e-05
0.00220872
3.89141e-05
0.00216996
3.876e-05
0.00213138
3.85844e-05
0.00209299
3.8388e-05
0.00205482
3.81715e-05
0.00201688
3.79358e-05
0.0019792
3.7682e-05
0.00194179
3.74112e-05
0.00190466
3.71245e-05
0.00186784
3.6823e-05
0.00183133
3.65074e-05
0.00179516
3.61785e-05
0.00175932
3.58372e-05
0.00172383
3.54844e-05
0.00168871
3.51209e-05
0.00165397
3.47472e-05
0.0016196
3.43641e-05
0.00158563
3.39723e-05
0.00155206
3.35727e-05
0.00151889
3.31661e-05
0.00148614
3.27531e-05
0.0014538
3.23344e-05
0.00142189
3.19105e-05
0.00139041
3.14821e-05
0.00135936
3.105e-05
0.00132875
3.06147e-05
0.00129857
3.01766e-05
0.00126884
2.97363e-05
0.00123954
2.92944e-05
0.00121069
2.88512e-05
0.00118228
2.84073e-05
0.00115432
2.79631e-05
0.0011268
2.75191e-05
0.00109973
2.70758e-05
0.00107309
2.66334e-05
0.0010469
2.61923e-05
0.00102115
2.5753e-05
0.000995832
2.53158e-05
0.000970951
2.4881e-05
0.000946503
2.44491e-05
0.000922483
2.40202e-05
0.000898888
2.35947e-05
0.000875716
2.31727e-05
0.000852961
2.27547e-05
0.000830621
2.23409e-05
0.00080869
2.19314e-05
0.000787164
2.15265e-05
0.000766037
2.11264e-05
0.000745306
2.07313e-05
0.000724965
2.03413e-05
0.000705009
1.99567e-05
0.000685431
1.95776e-05
0.000666227
1.92042e-05
0.000647391
1.88365e-05
0.000628916
1.84748e-05
0.000610797
1.81191e-05
0.000593028
1.77696e-05
0.000575602
1.74264e-05
0.000558513
1.70895e-05
0.000541754
1.6759e-05
0.000525319
1.6435e-05
0.000509201
1.61176e-05
0.000493395
1.58069e-05
0.000477892
1.55029e-05
0.000462686
1.52056e-05
0.000447771
1.49151e-05
0.00043314
1.46315e-05
0.000418785
1.43547e-05
0.0004047
1.40849e-05
0.000390879
1.3822e-05
0.000377313
1.35661e-05
0.000363995
1.33171e-05
0.00035092
1.30752e-05
0.00033808
1.28402e-05
0.000325468
1.26123e-05
0.000313076
1.23914e-05
0.000300899
1.21776e-05
0.000288928
1.19708e-05
0.000277157
1.1771e-05
0.000265579
1.15783e-05
0.000254186
1.13927e-05
0.000242972
1.12141e-05
0.00023193
1.10425e-05
0.000221052
1.0878e-05
0.000210331
1.07206e-05
0.000199761
1.05702e-05
0.000189334
1.04268e-05
0.000179043
1.02905e-05
0.000168882
1.01613e-05
0.000158843
1.00391e-05
0.000148919
9.92399e-06
0.000139103
9.81591e-06
0.000129388
9.7149e-06
0.000119767
9.62095e-06
0.000110233
9.53407e-06
0.000100779
9.45423e-06
9.13972e-05
9.38147e-06
8.20813e-05
9.3158e-06
7.28241e-05
9.25726e-06
6.36183e-05
9.20582e-06
5.44568e-05
9.1614e-06
4.5333e-05
9.12367e-06
3.62416e-05
9.09133e-06
2.71721e-05
9.06938e-06
1.81095e-05
9.0626e-06
9.05342e-06
9.05615e-06
9.05337e-06
-3.78509e-06
8.64492e-06
-8.49177e-06
9.2738e-06
-1.32402e-05
9.171e-06
-1.78735e-05
9.0708e-06
-2.24303e-05
9.00473e-06
-2.69393e-05
8.95632e-06
-3.14293e-05
8.93694e-06
-3.59152e-05
8.93684e-06
-4.04063e-05
8.95116e-06
-4.49074e-05
8.97453e-06
-4.94215e-05
9.00548e-06
-5.39502e-05
9.03913e-06
-5.84947e-05
9.07469e-06
-6.30558e-05
9.11298e-06
-6.76349e-05
9.15418e-06
-7.22329e-05
9.19594e-06
-7.68508e-05
9.23874e-06
-8.14895e-05
9.28226e-06
-8.615e-05
9.32767e-06
-9.08327e-05
9.37181e-06
-9.55386e-05
9.41849e-06
-0.000100268
9.466e-06
-0.000105022
9.51401e-06
-0.000109802
9.56454e-06
-0.000114608
9.61595e-06
-0.000119441
9.66854e-06
-0.000124301
9.72347e-06
-0.00012919
9.78063e-06
-0.000134109
9.83856e-06
-0.000139059
9.89916e-06
-0.00014404
9.96188e-06
-0.000149054
1.00267e-05
-0.000154101
1.00937e-05
-0.000159183
1.0163e-05
-0.000164301
1.02345e-05
-0.000169456
1.03082e-05
-0.000174649
1.03842e-05
-0.000179882
1.04625e-05
-0.000185154
1.05431e-05
-0.000190468
1.06259e-05
-0.000195824
1.07111e-05
-0.000201224
1.07986e-05
-0.000206668
1.08883e-05
-0.000212159
1.09803e-05
-0.000217697
1.10746e-05
-0.000223282
1.11711e-05
-0.000228918
1.127e-05
-0.000234603
1.13711e-05
-0.000240341
1.14745e-05
-0.000246131
1.15802e-05
-0.000251975
1.16882e-05
-0.000257874
1.17985e-05
-0.000263829
1.19111e-05
-0.000269842
1.20261e-05
-0.000275914
1.21434e-05
-0.000282045
1.22632e-05
-0.000288238
1.23853e-05
-0.000294493
1.25098e-05
-0.000300811
1.26368e-05
-0.000307194
1.27662e-05
-0.000313643
1.2898e-05
-0.000320159
1.30324e-05
-0.000326743
1.31692e-05
-0.000333397
1.33085e-05
-0.000340122
1.34504e-05
-0.00034692
1.35947e-05
-0.00035379
1.37416e-05
-0.000360736
1.38911e-05
-0.000367757
1.40431e-05
-0.000374856
1.41977e-05
-0.000382033
1.43549e-05
-0.00038929
1.45147e-05
-0.000396629
1.46771e-05
-0.00040405
1.48422e-05
-0.000411554
1.50099e-05
-0.000419144
1.51802e-05
-0.000426821
1.53532e-05
-0.000434585
1.55289e-05
-0.000442439
1.57073e-05
-0.000450383
1.58883e-05
-0.000458418
1.60721e-05
-0.000466548
1.62586e-05
-0.000474771
1.64478e-05
-0.000483091
1.66397e-05
-0.000491508
1.68343e-05
-0.000500024
1.70317e-05
-0.000508639
1.72318e-05
-0.000517357
1.74347e-05
-0.000526177
1.76403e-05
-0.000535101
1.78487e-05
-0.00054413
1.80598e-05
-0.000553267
1.82738e-05
-0.000562512
1.84904e-05
-0.000571867
1.87099e-05
-0.000581333
1.89321e-05
-0.000590911
1.91571e-05
-0.000600604
1.93849e-05
-0.000610411
1.96154e-05
-0.000620335
1.98486e-05
-0.000630378
2.00847e-05
-0.000640539
2.03235e-05
-0.000650821
2.0565e-05
-0.000661226
2.08092e-05
-0.000671754
2.10562e-05
-0.000682407
2.13059e-05
-0.000693186
2.15584e-05
-0.000704093
2.18135e-05
-0.000715128
2.20713e-05
-0.000726294
2.23317e-05
-0.000737591
2.25948e-05
-0.000749021
2.28606e-05
-0.000760586
2.31289e-05
-0.000772285
2.33998e-05
-0.000784122
2.36733e-05
-0.000796097
2.39493e-05
-0.00080821
2.42279e-05
-0.000820465
2.45089e-05
-0.000832861
2.47924e-05
-0.0008454
2.50783e-05
-0.000858083
2.53667e-05
-0.000870912
2.56573e-05
-0.000883887
2.59503e-05
-0.00089701
2.62456e-05
-0.000910281
2.65431e-05
-0.000923703
2.68427e-05
-0.000937275
2.71446e-05
-0.000950999
2.74485e-05
-0.000964877
2.77545e-05
-0.000978908
2.80625e-05
-0.000993094
2.83724e-05
-0.00100744
2.86842e-05
-0.00102194
2.89979e-05
-0.00103659
2.93132e-05
-0.00105141
2.96303e-05
-0.00106638
2.9949e-05
-0.00108152
3.02692e-05
-0.00109681
3.05909e-05
-0.00111227
3.0914e-05
-0.00112789
3.12384e-05
-0.00114367
3.15641e-05
-0.00115962
3.18909e-05
-0.00117573
3.22188e-05
-0.001192
3.25476e-05
-0.00120844
3.28773e-05
-0.00122504
3.32078e-05
-0.00124181
3.35389e-05
-0.00125875
3.38706e-05
-0.00127585
3.42028e-05
-0.00129312
3.45353e-05
-0.00131055
3.4868e-05
-0.00132815
3.52008e-05
-0.00134592
3.55336e-05
-0.00136385
3.58663e-05
-0.00138195
3.61986e-05
-0.00140022
3.65305e-05
-0.00141865
3.68619e-05
-0.00143725
3.71925e-05
-0.00145601
3.75223e-05
-0.00147494
3.78511e-05
-0.00149403
3.81787e-05
-0.00151328
3.85049e-05
-0.0015327
3.88297e-05
-0.00155227
3.91528e-05
-0.00157201
3.9474e-05
-0.00159191
3.97932e-05
-0.00161196
4.01102e-05
-0.00163218
4.04247e-05
-0.00165255
4.07366e-05
-0.00167307
4.10457e-05
-0.00169375
4.13518e-05
-0.00171458
4.16546e-05
-0.00173556
4.1954e-05
-0.00175668
4.22497e-05
-0.00177795
4.25415e-05
-0.00179937
4.28292e-05
-0.00182093
4.31124e-05
-0.00184263
4.33911e-05
-0.00186446
4.36648e-05
-0.00188643
4.39334e-05
-0.00190853
4.41966e-05
-0.00193076
4.44542e-05
-0.00195311
4.47058e-05
-0.00197559
4.49512e-05
-0.00199819
4.51902e-05
-0.0020209
4.54223e-05
-0.00204373
4.56475e-05
-0.00206667
4.58652e-05
-0.00208971
4.60753e-05
-0.00211285
4.62774e-05
-0.00213609
4.64712e-05
-0.00215942
4.66565e-05
-0.00218284
4.68328e-05
-0.00220634
4.69998e-05
-0.00222992
4.71573e-05
-0.00225358
4.73049e-05
-0.00227731
4.74422e-05
-0.0023011
4.75688e-05
-0.00232494
4.76845e-05
-0.00234884
4.77889e-05
-0.00237279
4.78816e-05
-0.00239677
4.79622e-05
-0.00242079
4.80304e-05
-0.00244484
4.80858e-05
-0.00246891
4.8128e-05
-0.002493
4.81567e-05