/*--------------------------------*- C++ -*----------------------------------*\
| =========                 |                                                 |
| \\      /  F ield         | OpenFOAM: The Open Source CFD Toolbox           |
|  \\    /   O peration     | Version:  2412                                  |
|   \\  /    A nd           | Website:  www.openfoam.com                      |
|    \\/     M anipulation  |                                                 |
\*---------------------------------------------------------------------------*/
FoamFile
{
    version     2.0;
    format      ascii;
    arch        "LSB;label=32;scalar=64";
    class       volVectorField;
    location    "5.25";
    object      U;
}
// * * * * * * * * * * * * * * * * * * * * * * * * * * * * * * * * * * * * * //

dimensions      [0 1 -1 0 0 0 0];

internalField   nonuniform List<vector> 
6400
(
(-0.00026478 0.000227523 0)
(0.000461681 -8.35793e-05 0)
(0.00180021 -0.000185383 0)
(0.00329598 -0.000233685 0)
(0.00485662 -0.000252693 0)
(0.00638275 -0.00024957 0)
(0.00780253 -0.000233243 0)
(0.00907495 -0.000210573 0)
(0.0101805 -0.00018436 0)
(0.0111094 -0.000154449 0)
(0.0118541 -0.000120302 0)
(0.0124079 -8.05292e-05 0)
(0.012762 -3.17674e-05 0)
(0.012902 2.63718e-05 0)
(0.0128114 9.10298e-05 0)
(0.0124892 0.000161071 0)
(0.0119325 0.000234738 0)
(0.01114 0.000312104 0)
(0.0101167 0.000389766 0)
(0.00887697 0.00046353 0)
(0.00744347 0.000528268 0)
(0.00584793 0.000580782 0)
(0.00412976 0.000616308 0)
(0.00233706 0.000631946 0)
(0.000524762 0.000622244 0)
(-0.00124928 0.000587338 0)
(-0.00292285 0.00052734 0)
(-0.00443451 0.000442073 0)
(-0.0057243 0.000334259 0)
(-0.00672979 0.000201417 0)
(-0.00741091 4.89208e-05 0)
(-0.00773193 -0.000123913 0)
(-0.00766914 -0.00029946 0)
(-0.00722745 -0.000468629 0)
(-0.00640321 -0.000623085 0)
(-0.00523263 -0.000766123 0)
(-0.00377793 -0.000881849 0)
(-0.00208486 -0.000968348 0)
(-0.000222455 -0.00102475 0)
(0.00172289 -0.00103944 0)
(0.00366914 -0.00101826 0)
(0.00553651 -0.00095987 0)
(0.00724447 -0.000865864 0)
(0.0087159 -0.00073812 0)
(0.00989328 -0.000587858 0)
(0.0107154 -0.00041953 0)
(0.0111424 -0.000236726 0)
(0.0111598 -4.93452e-05 0)
(0.0107698 0.000132747 0)
(0.00998949 0.000308985 0)
(0.00884107 0.000456155 0)
(0.00737336 0.000581347 0)
(0.00564713 0.000676695 0)
(0.00372338 0.00074034 0)
(0.00167165 0.000777139 0)
(-0.000437222 0.000784427 0)
(-0.00253822 0.000762896 0)
(-0.00456909 0.000715116 0)
(-0.00647354 0.000645782 0)
(-0.00820338 0.000560616 0)
(-0.00971695 0.0004648 0)
(-0.0109867 0.000362207 0)
(-0.0119956 0.000259271 0)
(-0.0127341 0.000159998 0)
(-0.0132035 6.79399e-05 0)
(-0.0134129 -1.36131e-05 0)
(-0.013375 -8.32962e-05 0)
(-0.013104 -0.000140739 0)
(-0.0126202 -0.000186583 0)
(-0.0119445 -0.00021814 0)
(-0.011092 -0.000238952 0)
(-0.0100751 -0.000253871 0)
(-0.00890392 -0.000263009 0)
(-0.00759051 -0.000268275 0)
(-0.00615452 -0.000267583 0)
(-0.00463492 -0.000255458 0)
(-0.00310103 -0.000222553 0)
(-0.0016495 -0.00016267 0)
(-0.000355448 -5.24773e-05 0)
(0.000313823 0.000267632 0)
(-4.02179e-05 -0.000397347 0)
(0.00207266 -0.00229169 0)
(0.00492527 -0.00281114 0)
(0.00806623 -0.00300618 0)
(0.0112818 -0.0030122 0)
(0.0143902 -0.00285918 0)
(0.0172632 -0.00260353 0)
(0.0198268 -0.00229495 0)
(0.0220468 -0.0019615 0)
(0.0239097 -0.00161368 0)
(0.0254096 -0.0012552 0)
(0.0265448 -0.000886413 0)
(0.0273117 -0.000501748 0)
(0.0277089 -9.88852e-05 0)
(0.0277356 0.000317123 0)
(0.027381 0.000737923 0)
(0.0266462 0.00115784 0)
(0.0255399 0.00157234 0)
(0.0240751 0.0019684 0)
(0.0222779 0.00233047 0)
(0.0201862 0.00264252 0)
(0.0178479 0.00289302 0)
(0.0153202 0.00306813 0)
(0.0126666 0.00315572 0)
(0.00995953 0.00314474 0)
(0.00728095 0.00303144 0)
(0.00471227 0.00281463 0)
(0.00233353 0.00249703 0)
(0.000215417 0.00208728 0)
(-0.0015698 0.00159822 0)
(-0.00297807 0.00104339 0)
(-0.00395573 0.00044166 0)
(-0.00446796 -0.000189719 0)
(-0.00453916 -0.000805802 0)
(-0.00417096 -0.00138093 0)
(-0.00339093 -0.00190353 0)
(-0.00226508 -0.0023346 0)
(-0.000856824 -0.00266448 0)
(0.000765462 -0.00287175 0)
(0.00249793 -0.00294962 0)
(0.00424117 -0.00289579 0)
(0.0059081 -0.00270772 0)
(0.00740435 -0.00238996 0)
(0.00863259 -0.00196019 0)
(0.00952621 -0.00143722 0)
(0.0100187 -0.000846056 0)
(0.0100579 -0.000198006 0)
(0.00962966 0.00046747 0)
(0.0087364 0.00111706 0)
(0.00737476 0.00173405 0)
(0.00556693 0.00229207 0)
(0.00337345 0.002766 0)
(0.000848171 0.00313785 0)
(-0.00191951 0.00340856 0)
(-0.00484931 0.00357348 0)
(-0.00786428 0.00362564 0)
(-0.0108791 0.00356756 0)
(-0.0138108 0.0034077 0)
(-0.0165847 0.00315753 0)
(-0.0191334 0.00283163 0)
(-0.0213969 0.0024458 0)
(-0.0233303 0.00201658 0)
(-0.0249009 0.00156143 0)
(-0.026084 0.0010943 0)
(-0.0268674 0.000629404 0)
(-0.0272497 0.000178443 0)
(-0.0272336 -0.000252087 0)
(-0.0268332 -0.000656937 0)
(-0.0260659 -0.00103627 0)
(-0.0249331 -0.0013908 0)
(-0.0234368 -0.00172599 0)
(-0.0215839 -0.00204782 0)
(-0.0193818 -0.00235052 0)
(-0.0168474 -0.00262651 0)
(-0.0140165 -0.00285011 0)
(-0.010962 -0.0029745 0)
(-0.00781088 -0.00294333 0)
(-0.00474336 -0.00273073 0)
(-0.00195762 -0.0022095 0)
(9.21228e-05 -0.000284473 0)
(1.88041e-06 -0.00143539 0)
(0.00248289 -0.00505918 0)
(0.00581112 -0.00606043 0)
(0.00952535 -0.0064474 0)
(0.013333 -0.00644539 0)
(0.0170081 -0.00610892 0)
(0.0203992 -0.00555657 0)
(0.0234238 -0.00489442 0)
(0.0260482 -0.00418489 0)
(0.0282634 -0.00345465 0)
(0.0300688 -0.0027123 0)
(0.031468 -0.0019588 0)
(0.0324598 -0.00119004 0)
(0.0330417 -0.000402242 0)
(0.0332152 0.000402688 0)
(0.0329711 0.00121636 0)
(0.0323101 0.00202764 0)
(0.0312409 0.00282327 0)
(0.0297763 0.00358097 0)
(0.02794 0.00427409 0)
(0.0257681 0.00487786 0)
(0.0233061 0.00536986 0)
(0.0206097 0.00572597 0)
(0.0177462 0.00592359 0)
(0.0147939 0.0059462 0)
(0.0118391 0.00578381 0)
(0.00896829 0.00543283 0)
(0.00626563 0.00489757 0)
(0.00381127 0.00419348 0)
(0.00168011 0.00335048 0)
(-7.4873e-05 0.00239336 0)
(-0.00140431 0.00137101 0)
(-0.00225013 0.000293093 0)
(-0.0026164 -0.000776374 0)
(-0.00253367 -0.00178082 0)
(-0.00201805 -0.00268635 0)
(-0.00112986 -0.00343941 0)
(6.77703e-05 -0.00402337 0)
(0.00148817 -0.00439244 0)
(0.00301669 -0.00454358 0)
(0.00456549 -0.00446231 0)
(0.00603933 -0.00414684 0)
(0.00733375 -0.00361078 0)
(0.00835194 -0.00288048 0)
(0.00902259 -0.00198127 0)
(0.0092796 -0.000957382 0)
(0.00906528 0.000146281 0)
(0.00834685 0.00128597 0)
(0.0071414 0.00240698 0)
(0.00546505 0.00346894 0)
(0.00332592 0.00444092 0)
(0.000776999 0.00526193 0)
(-0.00209262 0.00591679 0)
(-0.00518773 0.00639366 0)
(-0.00843529 0.00667426 0)
(-0.0117493 0.00675373 0)
(-0.0150361 0.00663867 0)
(-0.018209 0.00634245 0)
(-0.0211906 0.00588337 0)
(-0.0239103 0.00528472 0)
(-0.0263063 0.0045742 0)
(-0.0283341 0.00378203 0)
(-0.0299628 0.00293585 0)
(-0.0311674 0.00206187 0)
(-0.0319353 0.00118294 0)
(-0.0322665 0.000319031 0)
(-0.0321612 -0.000515588 0)
(-0.03163 -0.00131473 0)
(-0.0306865 -0.00208048 0)
(-0.0293305 -0.00281895 0)
(-0.0275619 -0.00353594 0)
(-0.0253858 -0.00423518 0)
(-0.0228061 -0.00490546 0)
(-0.0198352 -0.0055228 0)
(-0.0165085 -0.00603011 0)
(-0.0129096 -0.00632499 0)
(-0.00918944 -0.00629031 0)
(-0.00557067 -0.0058824 0)
(-0.00233028 -0.00489163 0)
(6.27719e-05 -0.0012204 0)
(-9.81242e-06 -0.0026082 0)
(0.00270221 -0.00821243 0)
(0.00640786 -0.00982389 0)
(0.0105559 -0.01044 0)
(0.0147917 -0.0104157 0)
(0.0188566 -0.0098545 0)
(0.022587 -0.00895386 0)
(0.0259028 -0.0078874 0)
(0.028781 -0.00675728 0)
(0.0312244 -0.00560655 0)
(0.0332414 -0.00444696 0)
(0.0348392 -0.00327754 0)
(0.0360164 -0.00209076 0)
(0.0367668 -0.000880464 0)
(0.0370881 0.000350221 0)
(0.0369679 0.00159538 0)
(0.0363985 0.00283752 0)
(0.0353852 0.00405528 0)
(0.0339392 0.00521882 0)
(0.0320808 0.00629291 0)
(0.0298413 0.0072392 0)
(0.0272627 0.00802154 0)
(0.0244027 0.00860445 0)
(0.0213349 0.0089536 0)
(0.0181448 0.00904191 0)
(0.0149256 0.0088544 0)
(0.0117701 0.00838781 0)
(0.00876912 0.00764966 0)
(0.00601272 0.00666042 0)
(0.00358426 0.00545357 0)
(0.00155211 0.00407282 0)
(-3.83703e-05 0.00258176 0)
(-0.00112674 0.00102372 0)
(-0.00168949 -0.000517087 0)
(-0.00176832 -0.00197887 0)
(-0.00138508 -0.00330003 0)
(-0.000601086 -0.00440572 0)
(0.000522603 -0.0052622 0)
(0.00189189 -0.00581813 0)
(0.00337146 -0.00604805 0)
(0.00487492 -0.00593749 0)
(0.00629674 -0.00548522 0)
(0.00752745 -0.00471591 0)
(0.00846812 -0.00365624 0)
(0.00903615 -0.00235397 0)
(0.00914374 -0.000862325 0)
(0.0087472 0.000734804 0)
(0.00782462 0.00238647 0)
(0.0063798 0.00401649 0)
(0.00442502 0.0055606 0)
(0.00196505 0.00695831 0)
(-0.000919485 0.00814436 0)
(-0.00412411 0.00908833 0)
(-0.00755767 0.00976047 0)
(-0.0111358 0.0101389 0)
(-0.014759 0.0102202 0)
(-0.0183248 0.0100144 0)
(-0.0217392 0.00953986 0)
(-0.0249183 0.00882472 0)
(-0.0277871 0.00790413 0)
(-0.0302816 0.00682039 0)
(-0.0323594 0.00561473 0)
(-0.0339926 0.00432944 0)
(-0.0351596 0.00300372 0)
(-0.0358523 0.00166837 0)
(-0.0360736 0.000350546 0)
(-0.0358295 -0.000929581 0)
(-0.0351341 -0.00216467 0)
(-0.0340034 -0.00335738 0)
(-0.0324446 -0.00451629 0)
(-0.0304629 -0.0056506 0)
(-0.0280588 -0.00676515 0)
(-0.0252262 -0.00784815 0)
(-0.0219647 -0.00885805 0)
(-0.0182996 -0.00970009 0)
(-0.0143137 -0.0102058 0)
(-0.0101702 -0.0101815 0)
(-0.00612209 -0.00954162 0)
(-0.00250945 -0.00794502 0)
(9.46406e-05 -0.00226316 0)
(-5.02085e-05 -0.00384659 0)
(0.00286343 -0.0116553 0)
(0.00695388 -0.0139744 0)
(0.0115258 -0.0148322 0)
(0.016156 -0.0147515 0)
(0.0205481 -0.01391 0)
(0.0245296 -0.0126058 0)
(0.0280348 -0.0110919 0)
(0.0310643 -0.00951451 0)
(0.033642 -0.00793041 0)
(0.0357893 -0.00634772 0)
(0.0375193 -0.00475828 0)
(0.038831 -0.00314742 0)
(0.0397122 -0.00150277 0)
(0.0401554 0.000172766 0)
(0.0401393 0.00187486 0)
(0.0396435 0.00357809 0)
(0.038665 0.0052549 0)
(0.0372104 0.00686898 0)
(0.0352941 0.00837228 0)
(0.0329425 0.00970981 0)
(0.0302002 0.0108313 0)
(0.0271267 0.0116867 0)
(0.0237981 0.0122266 0)
(0.0203078 0.0124133 0)
(0.0167613 0.0122251 0)
(0.0132655 0.0116546 0)
(0.00992553 0.0107137 0)
(0.00684346 0.00942967 0)
(0.00411434 0.00784308 0)
(0.00181845 0.00601149 0)
(4.3299e-06 0.00400091 0)
(-0.00124186 0.00192572 0)
(-0.0019002 -0.000127773 0)
(-0.00203289 -0.00208423 0)
(-0.00164609 -0.00386088 0)
(-0.000807364 -0.00537007 0)
(0.000411442 -0.00651896 0)
(0.00190751 -0.00728222 0)
(0.00353214 -0.00759379 0)
(0.00518702 -0.00744871 0)
(0.00674877 -0.00684897 0)
(0.00809753 -0.00581592 0)
(0.00912461 -0.00439597 0)
(0.00973652 -0.00264691 0)
(0.0098319 -0.000666916 0)
(0.00936274 0.00147819 0)
(0.00830934 0.00369913 0)
(0.00667026 0.00587533 0)
(0.00446669 0.00793693 0)
(0.00170725 0.00978663 0)
(-0.00152151 0.011378 0)
(-0.00509836 0.012618 0)
(-0.00891963 0.0134831 0)
(-0.0128848 0.0139481 0)
(-0.0168756 0.0140063 0)
(-0.0207777 0.0136713 0)
(-0.0244869 0.0129726 0)
(-0.0279091 0.0119501 0)
(-0.0309621 0.0106542 0)
(-0.0335818 0.00914285 0)
(-0.035727 0.00747144 0)
(-0.0373709 0.00570052 0)
(-0.0384988 0.00388174 0)
(-0.0391099 0.0020549 0)
(-0.0392145 0.000253898 0)
(-0.0388285 -0.00149376 0)
(-0.0379785 -0.00318216 0)
(-0.0366924 -0.0048097 0)
(-0.0349834 -0.00639171 0)
(-0.0328571 -0.00794592 0)
(-0.0303093 -0.00948579 0)
(-0.0273188 -0.0110053 0)
(-0.0238621 -0.0124498 0)
(-0.0199413 -0.0136813 0)
(-0.0156255 -0.0144504 0)
(-0.0110863 -0.0144701 0)
(-0.00661361 -0.0135843 0)
(-0.00261709 -0.0112766 0)
(0.000164551 -0.00333812 0)
(-0.000118165 -0.00511707 0)
(0.00300997 -0.0154011 0)
(0.00756179 -0.0185375 0)
(0.0126284 -0.0196345 0)
(0.017688 -0.0194317 0)
(0.0223918 -0.0182199 0)
(0.0265659 -0.0164304 0)
(0.0301768 -0.0144137 0)
(0.033266 -0.0123623 0)
(0.0358924 -0.0103405 0)
(0.0380985 -0.00834236 0)
(0.0399031 -0.00634052 0)
(0.0413028 -0.00430996 0)
(0.0422759 -0.00222891 0)
(0.0428087 -9.10919e-05 0)
(0.0428674 0.00208711 0)
(0.0424146 0.00428456 0)
(0.0414398 0.00646253 0)
(0.0399377 0.00857634 0)
(0.0379138 0.0105607 0)
(0.0353921 0.012345 0)
(0.0324172 0.0138622 0)
(0.0290495 0.0150422 0)
(0.0253717 0.0158187 0)
(0.0214881 0.0161389 0)
(0.0175177 0.0159694 0)
(0.0135886 0.0152981 0)
(0.00983087 0.0141392 0)
(0.00636411 0.0125292 0)
(0.00329669 0.010519 0)
(0.0007128 0.00816824 0)
(-0.00129312 0.0055877 0)
(-0.00263659 0.00293282 0)
(-0.00331677 0.00027372 0)
(-0.00338027 -0.00224781 0)
(-0.00285565 -0.00454211 0)
(-0.00178648 -0.00649011 0)
(-0.000279916 -0.00798768 0)
(0.00154652 -0.00898739 0)
(0.00354395 -0.00940201 0)
(0.00556702 -0.00922342 0)
(0.00748936 -0.00845702 0)
(0.00916494 -0.00712965 0)
(0.0104688 -0.00529584 0)
(0.0112731 -0.00304589 0)
(0.0114841 -0.000489057 0)
(0.0110701 0.00227394 0)
(0.0099559 0.00513389 0)
(0.00816218 0.00793259 0)
(0.00571858 0.0105794 0)
(0.00265223 0.0129498 0)
(-0.000953124 0.0149796 0)
(-0.00497672 0.0165533 0)
(-0.00925983 0.0176253 0)
(-0.0136958 0.0181712 0)
(-0.0181456 0.0181832 0)
(-0.0224737 0.017681 0)
(-0.02656 0.0167068 0)
(-0.0302995 0.0153188 0)
(-0.0336015 0.0135848 0)
(-0.0363994 0.0115797 0)
(-0.0386513 0.00938074 0)
(-0.0403334 0.00706753 0)
(-0.0414424 0.00470683 0)
(-0.0419873 0.00234816 0)
(-0.0419854 3.51245e-05 0)
(-0.0414749 -0.00219681 0)
(-0.0404979 -0.00433974 0)
(-0.0390913 -0.00639356 0)
(-0.0372828 -0.00838097 0)
(-0.0350796 -0.0103409 0)
(-0.0324702 -0.0123066 0)
(-0.0294111 -0.0142863 0)
(-0.0258421 -0.0162201 0)
(-0.0217214 -0.0179231 0)
(-0.0170865 -0.0190448 0)
(-0.0121141 -0.0191711 0)
(-0.00714741 -0.0180384 0)
(-0.00269228 -0.0148997 0)
(0.000272064 -0.00439737 0)
(-0.000221036 -0.00640391 0)
(0.0031809 -0.0195337 0)
(0.00837148 -0.0236326 0)
(0.014099 -0.0249412 0)
(0.0196821 -0.0244944 0)
(0.0247045 -0.0227633 0)
(0.0290117 -0.0203647 0)
(0.0326374 -0.0177727 0)
(0.0356942 -0.0152232 0)
(0.0382939 -0.0127705 0)
(0.0405068 -0.0103786 0)
(0.0423542 -0.0079887 0)
(0.0438243 -0.00555478 0)
(0.0448872 -0.0030421 0)
(0.0455021 -0.000435289 0)
(0.0456237 0.00224554 0)
(0.0452067 0.00497633 0)
(0.0442192 0.0077069 0)
(0.0426436 0.0103794 0)
(0.040472 0.0129112 0)
(0.0377222 0.015214 0)
(0.0344355 0.0171984 0)
(0.0306764 0.0187698 0)
(0.0265383 0.0198414 0)
(0.0221397 0.0203362 0)
(0.0176204 0.0202035 0)
(0.0131356 0.0194262 0)
(0.00884488 0.0180205 0)
(0.0048931 0.016031 0)
(0.00139954 0.0135142 0)
(-0.00150732 0.0105658 0)
(-0.00370058 0.00734563 0)
(-0.00513611 0.00398484 0)
(-0.00578671 0.000618142 0)
(-0.00568604 -0.00257578 0)
(-0.00488337 -0.00548084 0)
(-0.00343868 -0.0079491 0)
(-0.00148685 -0.00987488 0)
(0.000861553 -0.0111396 0)
(0.0034305 -0.0116927 0)
(0.00603799 -0.0114847 0)
(0.00852543 -0.0105216 0)
(0.0107259 -0.00884882 0)
(0.0124759 -0.00653964 0)
(0.0136334 -0.0036967 0)
(0.0140875 -0.000453209 0)
(0.0137932 0.00304501 0)
(0.0126703 0.00664749 0)
(0.0107313 0.010187 0)
(0.0080291 0.0135119 0)
(0.00459802 0.0165116 0)
(0.000534083 0.0190253 0)
(-0.00402816 0.0209967 0)
(-0.0088954 0.0223003 0)
(-0.0139251 0.0229227 0)
(-0.0189569 0.0228626 0)
(-0.0238311 0.0221495 0)
(-0.0284035 0.0208394 0)
(-0.0325527 0.0190137 0)
(-0.0361808 0.0167625 0)
(-0.039216 0.0141839 0)
(-0.0416145 0.0113808 0)
(-0.0433589 0.00845404 0)
(-0.0444586 0.0054885 0)
(-0.044935 0.00255195 0)
(-0.0448192 -0.000299713 0)
(-0.0441734 -0.00303157 0)
(-0.0430642 -0.00562049 0)
(-0.0415456 -0.0080743 0)
(-0.0396654 -0.0104356 0)
(-0.0374393 -0.0127714 0)
(-0.0348434 -0.0151518 0)
(-0.0318048 -0.0176168 0)
(-0.0282081 -0.0201141 0)
(-0.0239387 -0.0224101 0)
(-0.0189705 -0.0240302 0)
(-0.01347 -0.0243767 0)
(-0.00785171 -0.0230159 0)
(-0.00277015 -0.0188868 0)
(0.000425467 -0.00541097 0)
(-0.000375206 -0.00770261 0)
(0.00342694 -0.0242169 0)
(0.00959587 -0.0294836 0)
(0.0162759 -0.0309202 0)
(0.0225083 -0.0300017 0)
(0.0278124 -0.0275073 0)
(0.0321215 -0.0243211 0)
(0.0356096 -0.0210685 0)
(0.0385091 -0.0180118 0)
(0.0410013 -0.0151635 0)
(0.0431806 -0.0124281 0)
(0.0450628 -0.00969597 0)
(0.0466173 -0.00688811 0)
(0.0477925 -0.00395194 0)
(0.0485243 -0.000871719 0)
(0.0487432 0.00233971 0)
(0.0483809 0.00564426 0)
(0.0473882 0.00899061 0)
(0.0457291 0.0123005 0)
(0.0433823 0.0154693 0)
(0.0403556 0.0183853 0)
(0.0366813 0.0209301 0)
(0.0324283 0.0229806 0)
(0.0277049 0.0244215 0)
(0.0226506 0.0251433 0)
(0.0174325 0.0250722 0)
(0.0122385 0.0241824 0)
(0.00726456 0.0224899 0)
(0.00268117 0.020044 0)
(-0.0013402 0.0169104 0)
(-0.00462028 0.013277 0)
(-0.00705757 0.00927162 0)
(-0.00860049 0.00505606 0)
(-0.00918022 0.000846802 0)
(-0.008849 -0.00317996 0)
(-0.00767601 -0.00682283 0)
(-0.00572954 -0.00993734 0)
(-0.00314905 -0.0123619 0)
(-9.95143e-05 -0.0139645 0)
(0.00322064 -0.0146781 0)
(0.00661954 -0.0144353 0)
(0.0098743 -0.0132366 0)
(0.0127708 -0.0111419 0)
(0.0151332 -0.00825516 0)
(0.0167801 -0.00470167 0)
(0.0175741 -0.000646161 0)
(0.0174659 0.00373607 0)
(0.0163556 0.00823589 0)
(0.0142549 0.012659 0)
(0.0112492 0.0168167 0)
(0.00735818 0.0205401 0)
(0.00272009 0.0236476 0)
(-0.0025104 0.0260686 0)
(-0.00813028 0.0276407 0)
(-0.0139107 0.028345 0)
(-0.0196771 0.0281838 0)
(-0.0252408 0.0272032 0)
(-0.0304251 0.0254806 0)
(-0.0350873 0.0231231 0)
(-0.0391192 0.0202522 0)
(-0.0424423 0.0169992 0)
(-0.0450149 0.0134968 0)
(-0.0468282 0.0098705 0)
(-0.047901 0.00622642 0)
(-0.0482731 0.00265461 0)
(-0.0480066 -0.000773547 0)
(-0.0471866 -0.00401128 0)
(-0.0459031 -0.00703023 0)
(-0.0442462 -0.00984874 0)
(-0.0422944 -0.0125299 0)
(-0.0400813 -0.0151829 0)
(-0.0375823 -0.0179384 0)
(-0.0346892 -0.0208968 0)
(-0.0312078 -0.0240455 0)
(-0.0269048 -0.0271129 0)
(-0.0216225 -0.0294685 0)
(-0.0154571 -0.030246 0)
(-0.00890398 -0.0287242 0)
(-0.00288041 -0.0233828 0)
(0.000645556 -0.00635463 0)
(-0.000595822 -0.00903901 0)
(0.00393205 -0.0297774 0)
(0.011774 -0.0365024 0)
(0.0198986 -0.0378186 0)
(0.0268565 -0.0359718 0)
(0.0322047 -0.0323106 0)
(0.0361697 -0.028104 0)
(0.0392142 -0.0241267 0)
(0.0417497 -0.0206086 0)
(0.0440275 -0.0174573 0)
(0.0461431 -0.0144756 0)
(0.0480796 -0.0114789 0)
(0.0497683 -0.0083439 0)
(0.0511176 -0.00500449 0)
(0.0520244 -0.00143679 0)
(0.052392 0.0023391 0)
(0.0521346 0.00627385 0)
(0.0511763 0.0103077 0)
(0.0494487 0.0143441 0)
(0.0469158 0.0182615 0)
(0.0435728 0.0219148 0)
(0.0394397 0.0251442 0)
(0.0345872 0.027792 0)
(0.0291403 0.029698 0)
(0.0232659 0.0307144 0)
(0.0171692 0.0307396 0)
(0.0110782 0.0297314 0)
(0.00522961 0.0277067 0)
(-0.000168148 0.0246958 0)
(-0.00483974 0.0208478 0)
(-0.00859249 0.0163712 0)
(-0.0113582 0.0113903 0)
(-0.0130198 0.00616192 0)
(-0.0135234 0.00090072 0)
(-0.0129033 -0.00412426 0)
(-0.011241 -0.00866689 0)
(-0.00864947 -0.0125546 0)
(-0.00528605 -0.015593 0)
(-0.00135417 -0.0176353 0)
(0.00292973 -0.0185406 0)
(0.00732722 -0.0182508 0)
(0.0115551 -0.0167863 0)
(0.0153442 -0.0142017 0)
(0.0184706 -0.0106032 0)
(0.0207383 -0.00618304 0)
(0.0219839 -0.00113082 0)
(0.0221136 0.00431779 0)
(0.0210246 0.00990298 0)
(0.018742 0.0154064 0)
(0.0153426 0.0205673 0)
(0.0108692 0.0251578 0)
(0.00551475 0.0289889 0)
(-0.000564991 0.0319323 0)
(-0.00711946 0.0338198 0)
(-0.01385 0.034608 0)
(-0.0205441 0.0343083 0)
(-0.0269678 0.0329851 0)
(-0.0329075 0.0307471 0)
(-0.0381936 0.0277348 0)
(-0.0427028 0.0241139 0)
(-0.0463523 0.0200549 0)
(-0.049107 0.0157279 0)
(-0.0509723 0.0112856 0)
(-0.0519831 0.00686712 0)
(-0.0522001 0.00259082 0)
(-0.0517102 -0.00145782 0)
(-0.0506313 -0.00520847 0)
(-0.0490962 -0.00863231 0)
(-0.0472354 -0.0117555 0)
(-0.0451767 -0.0146626 0)
(-0.0430031 -0.0175185 0)
(-0.0407121 -0.0205442 0)
(-0.0381796 -0.0239505 0)
(-0.0351182 -0.0278297 0)
(-0.0310951 -0.031917 0)
(-0.0256752 -0.0354028 0)
(-0.018717 -0.0370311 0)
(-0.0107442 -0.0355494 0)
(-0.00314916 -0.028676 0)
(0.000958667 -0.00721611 0)
(-0.000871589 -0.0105729 0)
(0.00522913 -0.0369301 0)
(0.0160579 -0.0454428 0)
(0.0263624 -0.0459085 0)
(0.0339211 -0.0421765 0)
(0.0386411 -0.0367016 0)
(0.0414933 -0.031246 0)
(0.0435104 -0.0266072 0)
(0.0453497 -0.0228233 0)
(0.0472798 -0.0195814 0)
(0.0493227 -0.0165262 0)
(0.0513742 -0.0133869 0)
(0.0532848 -0.00999406 0)
(0.0549058 -0.00627283 0)
(0.0560896 -0.00221534 0)
(0.0566947 0.00215974 0)
(0.0566105 0.00679269 0)
(0.055738 0.011605 0)
(0.053984 0.0164875 0)
(0.0512853 0.0212972 0)
(0.0476043 0.0258475 0)
(0.0429469 0.0299292 0)
(0.0373798 0.0333299 0)
(0.0310429 0.0358335 0)
(0.0241454 0.0372406 0)
(0.0169443 0.0374111 0)
(0.0097271 0.0362781 0)
(0.0027581 0.033853 0)
(-0.00365144 0.0301776 0)
(-0.00913068 0.0254795 0)
(-0.013518 0.0199404 0)
(-0.0166844 0.0137722 0)
(-0.0185101 0.00729112 0)
(-0.0189179 0.000758482 0)
(-0.0179162 -0.00546868 0)
(-0.0156657 -0.0111329 0)
(-0.0122926 -0.0159828 0)
(-0.00797546 -0.0197794 0)
(-0.00293723 -0.0223428 0)
(0.00255648 -0.0234963 0)
(0.0081671 -0.0231802 0)
(0.0135735 -0.0213875 0)
(0.0184825 -0.0181892 0)
(0.022589 -0.0137523 0)
(0.0256333 -0.00826495 0)
(0.0274276 -0.0019947 0)
(0.0278454 0.00475049 0)
(0.0267984 0.0116682 0)
(0.0242885 0.0184884 0)
(0.0203894 0.0248611 0)
(0.01519 0.0305399 0)
(0.00893055 0.0352441 0)
(0.00179098 0.0388107 0)
(-0.00594165 0.0410689 0)
(-0.0138693 0.0419332 0)
(-0.0217228 0.0414362 0)
(-0.02921 0.0396653 0)
(-0.0360694 0.0367704 0)
(-0.0420983 0.0329392 0)
(-0.0471588 0.0283952 0)
(-0.0511679 0.0233658 0)
(-0.0541023 0.0180577 0)
(-0.0559833 0.0126629 0)
(-0.0568609 0.00735997 0)
(-0.0568318 0.00228604 0)
(-0.0560144 -0.00243969 0)
(-0.054557 -0.00672309 0)
(-0.0526401 -0.0105213 0)
(-0.0504566 -0.0138572 0)
(-0.0482134 -0.0168438 0)
(-0.0460856 -0.0197004 0)
(-0.0441587 -0.0227665 0)
(-0.0423515 -0.0264383 0)
(-0.0402899 -0.0310276 0)
(-0.0372328 -0.0364215 0)
(-0.0321931 -0.0416985 0)
(-0.0244281 -0.0450542 0)
(-0.0143003 -0.0441947 0)
(-0.00398458 -0.0353716 0)
(0.00136402 -0.00807647 0)
(-0.00108365 -0.0128402 0)
(0.00817172 -0.0471107 0)
(0.0235042 -0.0574851 0)
(0.0365838 -0.0553832 0)
(0.044329 -0.0479392 0)
(0.0473976 -0.0396631 0)
(0.0480559 -0.0328553 0)
(0.0482748 -0.0279409 0)
(0.0490354 -0.0243901 0)
(0.0505278 -0.021478 0)
(0.0525685 -0.0186373 0)
(0.0548752 -0.0155219 0)
(0.0571717 -0.0119563 0)
(0.0592085 -0.00787868 0)
(0.0607907 -0.003305 0)
(0.0617562 0.00172187 0)
(0.0619579 0.0071363 0)
(0.0612701 0.0128407 0)
(0.0595673 0.018712 0)
(0.056741 0.0245814 0)
(0.0527119 0.0302263 0)
(0.0474595 0.0353815 0)
(0.0410437 0.0397504 0)
(0.0336192 0.0430335 0)
(0.0254416 0.0449657 0)
(0.0168457 0.0453495 0)
(0.00819954 0.044089 0)
(-0.000164378 0.0411747 0)
(-0.00782258 0.0367276 0)
(-0.0143442 0.0309754 0)
(-0.0195466 0.0241183 0)
(-0.0232283 0.0164902 0)
(-0.0252483 0.00843893 0)
(-0.0255205 0.000371158 0)
(-0.0240858 -0.00736055 0)
(-0.021121 -0.01439 0)
(-0.0167635 -0.0204117 0)
(-0.0112567 -0.0251352 0)
(-0.00487637 -0.0283234 0)
(0.00205437 -0.0298203 0)
(0.00915133 -0.0294919 0)
(0.0160326 -0.027297 0)
(0.0222824 -0.0233464 0)
(0.0275715 -0.0178534 0)
(0.0316007 -0.0110774 0)
(0.0340772 -0.00334551 0)
(0.0348563 0.00498771 0)
(0.0338638 0.0135544 0)
(0.0310675 0.021986 0)
(0.0265621 0.0298648 0)
(0.0204567 0.0368673 0)
(0.0130311 0.042648 0)
(0.00456234 0.0469579 0)
(-0.00464178 0.0496539 0)
(-0.0140812 0.0505888 0)
(-0.0233808 0.0498114 0)
(-0.0321786 0.0474471 0)
(-0.0401536 0.0437035 0)
(-0.0470614 0.0388396 0)
(-0.0527416 0.0331523 0)
(-0.0571286 0.0269411 0)
(-0.0602208 0.0204615 0)
(-0.0620533 0.0139519 0)
(-0.0627158 0.00762376 0)
(-0.0623273 0.00163605 0)
(-0.0610242 -0.00384545 0)
(-0.0590038 -0.00869946 0)
(-0.0565032 -0.0128431 0)
(-0.0538022 -0.0162827 0)
(-0.0512194 -0.019127 0)
(-0.0490813 -0.021644 0)
(-0.0476593 -0.0243028 0)
(-0.0470121 -0.0277719 0)
(-0.0467125 -0.0327998 0)
(-0.0455631 -0.0397654 0)
(-0.0416581 -0.0478925 0)
(-0.0332535 -0.0546346 0)
(-0.020346 -0.0557557 0)
(-0.00604667 -0.0446596 0)
(0.00175918 -0.00929946 0)
(-0.000880504 -0.0169083 0)
(0.0128787 -0.0621476 0)
(0.0323762 -0.0736971 0)
(0.0475294 -0.0663609 0)
(0.054941 -0.0526478 0)
(0.0559464 -0.0402389 0)
(0.0540651 -0.0320602 0)
(0.052309 -0.0275933 0)
(0.0520303 -0.0251183 0)
(0.0532891 -0.0231807 0)
(0.0556138 -0.0209494 0)
(0.0584682 -0.0180587 0)
(0.0614061 -0.0144032 0)
(0.064088 -0.0099879 0)
(0.0662669 -0.00485758 0)
(0.0677557 0.000896202 0)
(0.0683855 0.00719928 0)
(0.0679994 0.013921 0)
(0.0664422 0.0209381 0)
(0.0635543 0.0280725 0)
(0.0591937 0.0350641 0)
(0.0532801 0.0415823 0)
(0.0458454 0.0472194 0)
(0.0370763 0.0515481 0)
(0.027299 0.0541957 0)
(0.016945 0.0548863 0)
(0.00648406 0.0534955 0)
(-0.0036218 0.0499984 0)
(-0.0128226 0.0446164 0)
(-0.0206787 0.037556 0)
(-0.0269119 0.0290778 0)
(-0.0312392 0.0196278 0)
(-0.0334874 0.00964237 0)
(-0.033584 -0.000349458 0)
(-0.0315953 -0.0099149 0)
(-0.0277193 -0.0186006 0)
(-0.0221648 -0.0260206 0)
(-0.0152045 -0.0318644 0)
(-0.0072164 -0.0358649 0)
(0.00143038 -0.0377809 0)
(0.0103229 -0.0374275 0)
(0.0189634 -0.0347652 0)
(0.0268647 -0.0299359 0)
(0.033598 -0.0231769 0)
(0.0387807 -0.014834 0)
(0.0421042 -0.00529717 0)
(0.0433727 0.00499057 0)
(0.0424672 0.0155794 0)
(0.039326 0.026011 0)
(0.0340586 0.0357467 0)
(0.0268247 0.0443551 0)
(0.0179327 0.0514652 0)
(0.00778641 0.0567171 0)
(-0.00324947 0.0599078 0)
(-0.0145978 0.0609077 0)
(-0.0257095 0.0597335 0)
(-0.0361301 0.0565751 0)
(-0.0454587 0.0517201 0)
(-0.053402 0.0455384 0)
(-0.0597839 0.038425 0)
(-0.0645623 0.0307622 0)
(-0.0677715 0.0228784 0)
(-0.0694758 0.0150578 0)
(-0.069801 0.00752056 0)
(-0.0688854 0.000474252 0)
(-0.0668887 -0.00586563 0)
(-0.0640451 -0.0113527 0)
(-0.0606569 -0.0158505 0)
(-0.0571058 -0.0192741 0)
(-0.0538564 -0.0216831 0)
(-0.051449 -0.0233559 0)
(-0.0504007 -0.0248996 0)
(-0.0509608 -0.0273856 0)
(-0.052616 -0.0323638 0)
(-0.0535741 -0.0412317 0)
(-0.0509417 -0.0536706 0)
(-0.0421764 -0.0660509 0)
(-0.0271113 -0.0711677 0)
(-0.00930585 -0.0579726 0)
(0.00186304 -0.0116503 0)
(0.000161863 -0.0237735 0)
(0.0169034 -0.0818052 0)
(0.0362321 -0.0927388 0)
(0.050499 -0.0781017 0)
(0.0571471 -0.0564996 0)
(0.0573885 -0.039024 0)
(0.0547966 -0.0294153 0)
(0.0527034 -0.0260148 0)
(0.0526217 -0.0254298 0)
(0.0545358 -0.0251139 0)
(0.0577994 -0.0238745 0)
(0.0617037 -0.0213786 0)
(0.0656829 -0.0176562 0)
(0.0693418 -0.0128454 0)
(0.0723938 -0.00707953 0)
(0.0746443 -0.00050496 0)
(0.0758997 0.00678794 0)
(0.0759774 0.0146708 0)
(0.0747135 0.0230307 0)
(0.0718676 0.0316992 0)
(0.0672073 0.040393 0)
(0.0605658 0.0486786 0)
(0.0519188 0.0559852 0)
(0.0414825 0.0617114 0)
(0.0296837 0.0653226 0)
(0.0171072 0.0664462 0)
(0.00436057 0.0649159 0)
(-0.007895 0.0607408 0)
(-0.0190069 0.0541715 0)
(-0.0285317 0.0454587 0)
(-0.0360306 0.0349889 0)
(-0.0411317 0.0232832 0)
(-0.0436247 0.0109026 0)
(-0.0434433 -0.00147258 0)
(-0.0407155 -0.013266 0)
(-0.0356673 -0.0239729 0)
(-0.0285948 -0.0331154 0)
(-0.0198983 -0.0403093 0)
(-0.00997317 -0.045269 0)
(0.000754769 -0.0476668 0)
(0.0117629 -0.0472825 0)
(0.0224721 -0.0440798 0)
(0.0323107 -0.0382038 0)
(0.0407835 -0.0299478 0)
(0.0474313 -0.0197374 0)
(0.0518261 -0.0080127 0)
(0.0537023 0.00469037 0)
(0.0529383 0.0177835 0)
(0.0493987 0.0306644 0)
(0.0431867 0.0427131 0)
(0.0345722 0.0533384 0)
(0.0238976 0.0620853 0)
(0.0116254 0.0685157 0)
(-0.00171134 0.0723192 0)
(-0.0154401 0.0733102 0)
(-0.0288357 0.0715801 0)
(-0.0412781 0.0673439 0)
(-0.0522622 0.0610304 0)
(-0.061429 0.0531467 0)
(-0.0686007 0.044241 0)
(-0.0737685 0.0348044 0)
(-0.0770184 0.0252279 0)
(-0.0784845 0.0158342 0)
(-0.0783177 0.00686483 0)
(-0.0766368 -0.00143801 0)
(-0.0736503 -0.00881231 0)
(-0.0696368 -0.0150743 0)
(-0.0649068 -0.0199529 0)
(-0.059948 -0.0232593 0)
(-0.0554115 -0.0249409 0)
(-0.0520307 -0.0252291 0)
(-0.0504873 -0.0249125 0)
(-0.0510744 -0.0256958 0)
(-0.0530999 -0.0303407 0)
(-0.0543686 -0.0415769 0)
(-0.0517499 -0.0593972 0)
(-0.0431007 -0.0786438 0)
(-0.0287684 -0.089014 0)
(-0.0115472 -0.074768 0)
(0.0013725 -0.0157485 0)
(0.00169713 -0.0326752 0)
(0.0156687 -0.100715 0)
(0.027965 -0.108705 0)
(0.0372163 -0.0875656 0)
(0.0425885 -0.059801 0)
(0.0443452 -0.0384146 0)
(0.0445395 -0.027784 0)
(0.0454085 -0.025558 0)
(0.0479622 -0.0269624 0)
(0.0521049 -0.0283677 0)
(0.0573059 -0.028163 0)
(0.0629727 -0.0260372 0)
(0.0685706 -0.0221678 0)
(0.0736876 -0.0168268 0)
(0.0780156 -0.0102826 0)
(0.0813625 -0.00274028 0)
(0.0835494 0.00568108 0)
(0.0843714 0.0149154 0)
(0.0836268 0.0248522 0)
(0.0810005 0.0353745 0)
(0.0761233 0.0462197 0)
(0.0686794 0.056817 0)
(0.0585817 0.0663425 0)
(0.0461002 0.0739398 0)
(0.0318036 0.0788593 0)
(0.0164731 0.080561 0)
(0.000927325 0.0788855 0)
(-0.0139447 0.0738596 0)
(-0.0274018 0.0657626 0)
(-0.0388748 0.0550141 0)
(-0.0478028 0.0420536 0)
(-0.0537529 0.0275233 0)
(-0.0564233 0.0121366 0)
(-0.0557463 -0.00318705 0)
(-0.0519701 -0.0177291 0)
(-0.0454023 -0.0308529 0)
(-0.0363946 -0.0420227 0)
(-0.0254686 -0.050832 0)
(-0.0131441 -0.05688 0)
(9.06541e-05 -0.0598486 0)
(0.0136119 -0.0594516 0)
(0.026766 -0.0556278 0)
(0.0389405 -0.0485265 0)
(0.049507 -0.0384988 0)
(0.0579256 -0.0260318 0)
(0.0637199 -0.0116665 0)
(0.0664638 0.00398142 0)
(0.0659116 0.0201577 0)
(0.0619623 0.0360647 0)
(0.0546945 0.0509964 0)
(0.0444155 0.0641477 0)
(0.0315815 0.0749361 0)
(0.0167376 0.0828449 0)
(0.000510003 0.087444 0)
(-0.0161837 0.0883769 0)
(-0.0324009 0.0858454 0)
(-0.0473452 0.0801667 0)
(-0.0603324 0.0719223 0)
(-0.070932 0.0618383 0)
(-0.0789567 0.0506565 0)
(-0.0844828 0.0390275 0)
(-0.0876731 0.0274198 0)
(-0.0887133 0.0161527 0)
(-0.0877873 0.00547929 0)
(-0.0850069 -0.00430989 0)
(-0.0806105 -0.0130365 0)
(-0.0748637 -0.0203254 0)
(-0.0681202 -0.0257439 0)
(-0.0609983 -0.0289375 0)
(-0.0542307 -0.0297423 0)
(-0.0486 -0.0284005 0)
(-0.0447123 -0.025993 0)
(-0.0427072 -0.0250261 0)
(-0.0418499 -0.0294644 0)
(-0.0403206 -0.0429457 0)
(-0.0361151 -0.0651424 0)
(-0.0287849 -0.0893868 0)
(-0.0195162 -0.103753 0)
(-0.00911819 -0.090078 0)
(0.000591489 -0.0206581 0)
(0.00224557 -0.0399233 0)
(0.00678182 -0.110612 0)
(0.00718503 -0.114939 0)
(0.0085839 -0.091633 0)
(0.0117212 -0.0627309 0)
(0.0159078 -0.0409783 0)
(0.0210341 -0.0307268 0)
(0.0271929 -0.0294749 0)
(0.0342499 -0.032073 0)
(0.0419035 -0.0345069 0)
(0.0499063 -0.0349022 0)
(0.0580275 -0.0328612 0)