/*--------------------------------*- C++ -*----------------------------------*\
| =========                 |                                                 |
| \\      /  F ield         | OpenFOAM: The Open Source CFD Toolbox           |
|  \\    /   O peration     | Version:  2412                                  |
|   \\  /    A nd           | Website:  www.openfoam.com                      |
|    \\/     M anipulation  |                                                 |
\*---------------------------------------------------------------------------*/
FoamFile
{
    version     2.0;
    format      ascii;
    arch        "LSB;label=32;scalar=64";
    class       volScalarField;
    location    "8.95";
    object      p_rgh;
}
// * * * * * * * * * * * * * * * * * * * * * * * * * * * * * * * * * * * * * //

dimensions      [1 -1 -2 0 0 0 0];

internalField   nonuniform List<scalar> 
6400
(
24417.8
24634.6
25066.4
25335
25058.4
24177.6
23154
22726.6
23398.7
24995.1
26638.1
27234.2
26199.2
23940.7
21728.9
20968
22296.5
25096.9
27774.4
28684.5
27157.2
23972.9
20958.4
19917.7
21535.7
24931
28148.1
29305.1
27710.9
24278.2
20986.6
19721
21179.2
24489.1
27743.5
29115.8
27894.6
24844.7
21719.3
20239.5
21142.5
23827.1
26755.6
28342.9
27813.1
25563.8
22878
21189.4
21321.7
23102.7
25519.5
27293.8
27550.5
26236.9
24100.7
22269.8
21663.7
22540.7
24394.3
26238.9
27127.3
26634.4
25061.4
23260.8
22178
22352.8
23645.6
25332.4
26510.1
26586.8
25585
24095.4
22923.1
22637.6
23288.8
24444.1
25506
26089.7
26200.6
26113.4
24310.2
24076.6
24305.4
24904.8
25490.4
25528.1
24795.4
23620.7
22749.9
22874.5
24116.5
25841.7
26983.3
26710.1
25016.3
22818.9
21452.8
21845.5
23892
26447.8
27983.3
27515.4
25240
22455.8
20806.9
21295.3
23666.6
26548.8
28262.4
27814.8
25479.3
22620
20880.2
21224.9
23405
26138.7
27877.9
27693.5
25768.6
23240.5
21519.6
21498.2
23095.3
25363.3
27055.5
27311.6
26084.8
24107.2
22451.5
21952.8
22798
24476.8
26087.1
26814
26332.7
24944.3
23393.2
22475.2
22635.1
23753.4
25224
26276.4
26377.5
25504.2
24144.9
23030.5
22739
23389.8
24594.4
25687.2
26100.6
25668.8
24688.5
23713.1
23218.9
23359.2
23958
24715.2
25399.1
26088
24683.8
23927.8
23657
24069.7
25067.7
26013.4
26152.5
25161.4
23476.8
22125.4
22092.3
23622.2
25943.1
27656.1
27594
25611.9
22776.2
20779.9
20912.6
23223.6
26422.6
28617
28452.3
25956.3
22557
20246.7
20394.4
22925.6
26367
28722.1
28647.7
26225.5
22884.4
20540.6
20484.9
22670.8
25794.9
28087.8
28324.9
26476.9
23656.7
21440.8
20983.9
22425.7
24887.5
27011.3
27708
26705
24625.6
22603.7
21669.9
22237.8
23937.3
25848.4
26992.4
26823.3
25480.9
23693.4
22390.1
22224.2
23245.8
24889.7
26281
26699.7
25958
24488.5
23096.6
22515.2
23010.5
24258.4
25552.7
26215.6
25962.6
25015.2
23917.3
23204.1
23152.8
23736.2
24671.5
25832.3
25258.4
24289.9
23466.7
23202.5
23908
25331.6
26595.9
26728.6
25370.3
23156
21433.2
21429.5
23393.4
26304.8
28410.9
28301.6
25851.7
22401.7
20008.4
20195.9
22978
26784
29366
29150.8
26208.3
22235.4
19555.2
19736.1
22664.9
26626.6
29330
29251.7
26500
22704.9
20035
19943.7
22379.1
25884.5
28483
28801.4
26788.4
23659.9
21156.1
20571
22095.5
24797.4
27193.8
28061.8
27049.4
24789.9
22510
21370.6
21888.7
23718.5
25871.5
27242
27164.4
25731.3
23722
22188.1
21907.8
22989.7
24828.3
26435.8
26973.2
26195.6
24568.3
22993.4
22303.4
22811.4
24168.1
25596.8
26348.3
26101.5
25085.8
23894.6
23150
23215.6
23986.2
25226.3
25566
25043.5
24063.3
23022.7
22734.2
23689.6
25521.5
27109.7
27273.4
25623.1
22964.7
20910.8
20884.2
23141.8
26484.1
28903.6
28813.7
26092
22249.9
19574.2
19740.5
22754.7
26896.1
29722.6
29536.7
26415.3
22174.5
19289.4
19426.1
22471.7
26629.4
29500.6
29487.1
26684.1
22763.1
19957.5
19777.7
22201.2
25769.3
28477.5
28908
26962.5
23823.8
21230.3
20513.1
21926.6
24599
27069.7
28082.7
27209.8
25006.2
22664.4
21377.2
21743.9
23503.8
25706.9
27216
27285.2
25925.2
23880
22229.3
21822
22834.9
24691
26380.7
27013.8
26297.4
24676.8
23064.3
22318.3
22774.7
24097.2
25511.4
26265.3
26034.5
25055.5
23950.6
23369.2
23562.9
24379.1
25178.7
25671.1
25219.1
23926.8
22548.5
22191.9
23408.2
25681.5
27629.7
27859.1
25942.7
22842.3
20424.4
20314.2
22805
26554.8
29323.6
29337.8
26434
22240.8
19243.7
19284.6
22417.4
26838.7
29950.3
29912.5
26743.5
22301.5
19171
19136.2
22156.2
26435.6
29512.5
29693.2
26985.2
23017.2
20043.1
19650.1
21917.8
25467.5
28310.5
28967.2
27225.1
24157.6
21459.3
20511.5
21690.5
24253.1
26801.3
28038.6
27413.1
25343.7
22950
21457.2
21581.7
23196.5
25426
27109.7
27398.6
26183.6
24138.5
22356.2
21766.1
22642.5
24469.7
26238
27005.6
26411.4
24849.9
23219
22395.7
22753.5
23992.1
25360
26111.7
25923.7
25037.7
24072.4
23582.8
23643
24130.6
25625.6
26192.7
25515.2
23756.2
22030.1
21632.8
23130.9
25842.8
28133.3
28415.8
26240.6
22725.4
19974.3
19793.2
22500.2
26617.5
29695.9
29800.3
26737.5
22241.3
18967.8
18896.8
22121.3
26770.5
30121
30218.8
27030.6
22439.4
19108.2
18913.1
21880.3
26232.9
29474.6
29838.7
27249.4
23276.6
20169.8
19574.3
21668.5
25166.1
28113.8
28984.8
27456
24483.8
21705.6
20541.3
21484.6
23923
26528.7
27972.8
27587.3
25657.2
23227.9
21550.3
21448.5
22920.8
25163.2
26997.1
27482.8
26404
24370.8
22484
21739.3
22492.5
24281
26099.3
26969.5
26479
24982.2
23360.4
22497.5
22785.8
23946.9
25247.6
25959.8
25774.9
24938
24040.1
23380.1
23005.5
24763.6
26214.4
26756.7
25744.1
23568.7
21545.3
21121.9
22873.8
25969.5
28554.3
28883.8
26499.1
22651.7
19636
19393.2
22253.1
26633.7
29936.9
30118.8
26969
22288.1
18834
18667.1
21907.4
26659.6
30147.4
30361.8
27228.9
22612.8
19183.4
18850.8
21697.4
26005.5
29312.3
29832.4
27418.4
23546.3
20401.2
19636.5
21515.5
24871.2
27836
28881.3
27590.4
24785.4
22007.1
20673.8
21374.9
23635.6
26226.7
27823.1
27666.2
25911.3
23510.9
21709.4
21408.5
22718.3
24916.5
26835.2
27477.6
26541.3
24569.5
22645.5
21795.8
22431.5
24140.3
25943
26859.3
26454.1
25050.2
23498.3
22659.6
22915.8
23992.1
25175.6
25769.3
25501.6
24684.5
23697.6
22600.6
23538.6
25084.6
26691.9
27206.6
25954.8
23432
21141.8
20680.4
22631.9
26037.4
28866
29251.9
26729.9
22648
19432.5
19116.8
22043
26572.3
30025.5
30297.7
27156.8
22416
18861.1
18585.3
21742.2
26469.9
30013.6
30356
27374.5
22857.5
19410.1
18932.4
21570.8
25719.6
29014.3
29691.5
27526.8
23857.5
20747.5
19821.1
21427.8
24554.9
27467.5
28669.2
27654.3
25087.1
22374
20900.5
21340.6
23369.2
25884
27593.2
27665.6
26125.3
23812.1
21935.5
21450.6
22571.7
24670.9
26618.9
27390.5
26611.5
24751
22848.5
21930.5
22444.5
24031.5
25760.4
26678.7
26350.4
25070.5
23644
22881.9
23127.2
24092.8
25089
25485
25157
24367
23354.7
22755.3
23418.6
25183
27056
27620.3
26178
23354.1
20833
20327.6
22418.9
26048.8
29060.3
29507.4
26921.2
22706.4
19360.9
18966.4
21877.7
26446
29975.7
30345
27297.1
22607.8
19025.8
18634.2
21626
26221.6
29750.4
30225.7
27470.1
23150.7
19751.5
19128.2
21495.7
25399.1
28620.6
29449.2
27581.7
24186.6
21167.5
20093.2
21396.4
24238.8
27048.1
28383.7
27658.9
25370.6
22770.1
21187.8
21368.8
23137.5
25531.9
27314.6
27600.6
26291.3
24106.3
22199.8
21557.3
22482.6
24445.3
26374.2
27241.2
26619
24902.4
23069.6
22121.5
22522
23961.6
25571.9
26451.5
26185.1
25047.5
23786.8
23137.2
23375.4
24194.8
24963.8
25221.8
24985.7
24956
23011.8
22289.7
23113.8
25260.4
27385.8
27976.5
26374
23324.4
20637.4
20091.4
22255.1
26006.9
29124.8
29629.6
27054.2
22817.7
19425.1
18956.7
21776.5
26270
29791.8
30251.9
27370.8
22842.9
19315.8
18816.9
21577.2
25940.3
29377.2
29973
27497.9
23463.4
20183
19431.8
21488.7
25075.2
28159.8
29115.4
27568.1
24501.9
21630.8
20440.4
21434.1
23953.6
26608.6
28038.8
27594.2
25608
23165.4
21520.2
21465.8
22964.3
25197.8
27003.4
27468.6
26390.5
24369.4
22485.7
21726.9
22463.9
24259.9
26118.1
27035.9
26556.6
25007.7
23291.8
22358.3
22664.3
23941.2
25393.1
26193.1
25968.9
24982.9
23912.9
23392.6
23622.2
24300.1
24909.2
25240
26464.1
24233.3
22483.3
21827.6
22945
25350.2
27615.2
28209.8
26514.9
23347.1
20574.3
19992.2
22152.2
25912.2
29050.6
29606.2
27119
22978.3
19627.6
19094.5
21747.5
26051.1
29477.2
30016.4
27370.9
23111.1
19722.2
19131.2
21602.6
25639.2
28907.3
29603.5
27451.6
23779.9
20688
19835.4
21555.7
24764.9
27650.4
28699.4
27480.7
24786.3
22118.1
20852.6
21545.4
23715.3
26167.5
27644.8
27456.8
25785.3
23543.5
21887.7
21633.2
22860.5
24895.6
26669.2
27270.3
26415.6
24590.4
22784
21956
22519
24122.5
25859.3
26780.7
26425.8
25062.6
23507
22632
22864.7
23968.5
25229.5
25915.9
25716.2
24883.5
24015.1
23638.1
23887.3
24465.7
25079.6
26913.6
25671.1
23909.9
22177.1
21624.7
22861.6
25370
27694.4
28300.7
26596.1
23423.8
20648.5
20036.2
22117
25770.4
28841.5
29437.7
27111.8
23180
19958.6
19373.1
21791.7
25799.7
29047
29650.7
27298.1
23399.9
20225.2
19560.9
21699.7
25332.1
28363.4
29135.7
27334.6
24085.9
21242.3
20318.9
21692.5
24482
27116.3
28221
27324.2
25027.4
22607.6
21310.9
21724.7
23533.9
25743.8
27219.1
27253.7
25895.9
23889.1
22274.8
21862.9
22828.7
24636.4
26325.5
27015.5
26368.3
24762.7
23083.1
22233.4
22642
24035.4
25607.8
26488.8
26236.6
25069.8
23708.2
22928.3
23107.7
24034.3
25083.3
25633.5
25445.6
24766.1
24111.4
23900.5
24165.9
24696.5
25985.7
26405.8
25641
23899.3
22116.3
21550.7
22800.9
25316.5
27634.1
28250.6
26608.1
23541.5
20851.6
20224.3
22159.1
25596.4
28511
29129.8
27026.1
23405.9
20398.3
19780.3
21912.9
25534.8
28526.7
29171.9
27151
23688.7
20795.9
20085.3
21868.3
25040.2
27776.4
28592.7
27148.8
24361
21815.1
20858.7
21895.6
24244.8
26586.5
27703.9
27103.9
25210
23073.1
21792.8
21964.8
23420.3
25359.3
26782.3
26993.7
25933.6
24185
22663
22143.8
22870.1
24431.9
25988.5
26717.1
26252.6
24879.8
23369.2
22544.3
22824.1
24000
25374.4
26175.9
26002.7
25034
23888.5
23230.8
23374.1
24125.2
24954.3
25360.5
25183.8
24663.8
24225.1
24135.6
24355.2
24246.5
25997.4
26567.7
25807.7
23960.2
22150
21589.1
22803.5
25224.1
27443.9
28049.9
26534.1
23686.1
21177.7
20560.2
22290.1
25404.4
28070.1
28684.6
26853.3
23639.2
20929.7
20308.2
22117.5
25275.5
27937.9
28592.3
26924.6
23957
21409.4
20689.1
22111.9
24784.3
27172.8
27991.7
26892.2
24585.3
22379.9
21436.8
22165.6
24071.4
26086
27165.8
26821.1
25319.5
23492.7
22281.5
22262.5
23385.3
25032.2
26349.9
26682.3
25892.2
24417.9
23038.4
22468.1
22985.6
24290.9
25670.5
26385.4
26072.5
24937.9
23632.1
22876.4
23056
24014.6
25166.8
25856
25738.7
24963.2
24044.2
23524.3
23643.7
24226.8
24843.4
25116.7
24960.5
24589.7
24306.3
24215.6
22754.7
24792.6
26198
26677.2
25808.9
24013.2
22313.6
21786.9
22890.5
25094
27120.1
27699
26378.5
23861.3
21624.9
21035.7
22500.6
25191.3
27525.6
28115.5
26604.5
23880.9
21541.8
20940.5
22394.3
25023.3
27294.5
27929.8
26629.5
24201.5
22050.2
21354.3
22421
24568.9
26567.9
27349.4
26573
24754.4
22923.2
22038.7
22495.2
23965.1
25626
26618.8
26482.6
25354.3
23858.7
22767.7
22611.1
23427.6
24766.3
25928.9
26326.7
25776.4
24587.5
23395.9
22827.6
23167.5
24209.9
25375
26030.1
25839.3
24943.8
23869.6
23218.6
23323.2
24069.1
24985.5
25541.5
25462.4
24870.9
24176.2
23795.9
23897.3
24326.5
24753.9
24915.7
24776.7
24510.5
24268
22316.7
23646.4
24981.2
26142.9
26483.1
25704.3
24123.7
22610.2
22110.8
23036.1
24933.2
26700.9
27245
26169.4
24057.8
22149.8
21597.6
22758.6
24966.4
26923.8
27479.2
26313.6
24122
22188.1
21619.9
22708.6
24785.3
26640.7
27239.4
26300.4
24418
22679.3
22030.4
22761.9
24394.3
25994.1
26710.6
26224.2
24872.8
23420.6
22626.1
22852.7
23916.2
25221.8
26094.2
26118.7
25329.4
24163.9
23226.4
22981.2
23527.4
24561
25537.8
25955
25609.6
24700.9
23722.4
23195.7
23389.8
24177.3
25110.6
25675.4
25580
24912.5
24077
23549.4
23599.3
24146.6
24831.7
25250.2
25197.9
24773.8
24285.5
24032.4
24118.3
24415
24682.8
24748.4
24618.7
24396.8
22943.9
23267
23905.7
24905.3
25850.8
26166.6
25539.5
24219.9
22949.8
22525.4
23279.2
24827.7
26267.8
26717.9
25867.4
24188.2
22665.9
22209.2
23098.9
24816.7
26354.7
26817.9
25951.8
24279.6
22778.6
22300
23082.1
24637.6
26063.2
26570.7
25924.3
24540.4
23216
22665.8
23138
24314.5
25524.3
26128.1
25851.7
24899.3
23808.2
23146.5
23223.1
23952.6
24927.7
25643.3
25752.6
25229.3
24364.4
23609
23343.5
23688.8
24450
25221.7
25600.6
25397.2
24734.4
23978.6
23538.1
23639.9
24207.2
24909.3
25354.2
25312
24839
24231.4
23840.6
23864.6
24243.8
24718.3
25003.1
24963.5
24680
24368.5
24223.8
24296.2
24481.8
24616.9
24612.9
24493.6
23941.1
23725.8
23712.8
24087.4
24797.6
25466.5
25650.9
25162.5
24232.3
23399.2
23185.5
23762
24818.8
25736.2
25956.7
25328.8
24209.2
23254.6
23028.9
23666.3
24791.1
25745.8
25981.8
25377.8
24299.3
23373
23116.8
23649.5
24640.2
25518
25804.8
25375
24503.1
23686.4
23359.6
23665.4
24400.5
25150.1
25522.5
25350.4
24758.9
24077.9
23659.4
23699.5
24151.6
24765.7
25224.1
25302.6
24977.1
24427.6
23942.1
23767.5
23985.5
24472.3
24966
25206.1
25072.6
24648.1
24170.5
23899.7
23973.7
24335.2
24769.7
25033.6
24993.5
24697.1
24333.6
24113.8
24144.2
24373.9
24642
24787.5
24748.9
24588
24430.9
24375.2
24428.5
24516.5
24556.4
24523.5
24497.1
24393.7
24297.3
24287.4
24421.7
24630.2
24789.1
24792.2
24619.4
24353.1
24162
24172.9
24385.8
24666.3
24859.3
24850.5
24639.1
24335.2
24128.7
24145.6
24373.1
24663.3
24858.4
24852
24652.3
24367.8
24170.3
24171.3
24361.8
24616.9
24798.5
24814.8
24667.5
24439.7
24260.3
24225.3
24344.6
24541.8
24705.9
24759.3
24683.1
24524.5
24364.5
24286.8
24327.5
24460.7
24610.9
24701.1
24691.3
24591.4
24453
24344
24324.3
24404.1
24538.2
24648.1
24680.7
24623
24509
24395.4
24348.7
24394.1
24501.7
24601.1
24641.5
24607.9
24526.3
24442.1
24406.6
24436.4
24504.5
24560.6
24576.4
24552.3
24512.2
24483.7
24485.8
24507.8
24522.7
24517.4
6.79394
11.534
12.5392
10.2125
6.70659
12.2398
17.0381
13.364
6.28414
12.8138
17.9626
14.1067
6.39075
13.2678
18.9071
14.7316
5.84857
12.2459
17.3255
13.8665
5.64024
11.2359
16.3832
13.4673
5.23929
9.45696
13.828
12.034
5.23395
7.66759
11.7978
11.1567
5.55527
5.72757
9.23594
9.8537
6.36446
3.96266
7.17876
8.85965
7.12029
3.5174
5.30751
7.79932
7.93798
4.89879
4.31611
7.39032
8.80874
6.34361
3.65651
6.90843
9.29726
7.63508
3.801
6.80389
9.73922
8.32733
3.7564
6.38214
9.54472
8.61856
4.14745
6.26486
9.18675
8.13434
3.76162
5.31128
7.54836
6.51351
3.03557
4.29778
5.5174
4.19959
1.8181
2.81957
2.88766
1.71238
1.56298
1.38055
0.000241211
0.000232023
5.01036e-05
-0.000103702
-0.000112549
3.98364e-05
0.000251832
0.000410975
0.000407505
0.000228629
-1.0013e-05
-0.000176737
-0.000161037
3.5718e-05
0.000290934
0.000464148
0.000446673
0.000242519
-1.22245e-05
-0.000178583
-0.000153513
4.69654e-05
0.000295143
0.000459025
0.000443972
0.000263574
4.07281e-05
-0.000111564
-0.000105575
4.92884e-05
0.000261152
0.000415913
0.000427468
0.000302859
0.00012462
-1.38678e-05
-4.37176e-05
5.34404e-05
0.000208523
0.000349611
0.000398216
0.000336043
0.000207573
7.94406e-05
1.11233e-05
3.67846e-05
0.000139364
0.000261539
0.00034366
0.000339158
0.000254327
0.000137346
4.20944e-05
1.91444e-05
7.88988e-05
0.000183455
0.000276481
0.000303597
0.000251924
0.000153964
6.00306e-05
2.26519e-05
5.93422e-05
0.000139554
0.000217319
0.000246789
0.000210576
0.000140164
7.44494e-05
5.39087e-05
8.33549e-05
0.00013331
0.000169505
0.000171031
0.000143829
0.00011443
0.00010358
0.000115436
0.000130517
0.000128002
0.000180854
0.000172906
0.000109129
4.76732e-05
3.66619e-05
8.46916e-05
0.0001618
0.000226317
0.000235133
0.000179431
9.23803e-05
2.67762e-05
2.42336e-05
8.69232e-05
0.00017958
0.000248757
0.000252853
0.000189745
9.79785e-05
3.44703e-05
3.72313e-05
0.000102281
0.000192031
0.000255212
0.000258349
0.000205459
0.000129848
7.32369e-05
6.84008e-05
0.00011526
0.000190617
0.000252107
0.000265445
0.000230157
0.000172012
0.000121705
0.00010328
0.000131634
0.00018547
0.000239679
0.000263614
0.000247451
0.000203565
0.000158498
0.00012836
0.000130221
0.000160838
0.000205354
0.000238289
0.000240464
0.000212943
0.000171093
0.000132431
0.000117588
0.000131473
0.000166367
0.000199367
0.000209878
0.000194837
0.000160336
0.000124768
0.000106861
0.000114005
0.000138975
0.000164094
0.000176203
0.000165562
0.000140773
0.00011529
0.000105054
0.000113012
0.000129517
0.00014142
0.00014185
0.000132574
0.000121972
0.000118135
0.000121849
0.000126424
0.000126574
0.00012893
0.000166618
0.000175741
0.000148615
0.000104744
7.31613e-05
7.47616e-05
0.000106764
0.000154473
0.000188536
0.000186541
0.000151603
0.000102318
7.04753e-05
7.70604e-05
0.000117924
0.00016802
0.000202298
0.000195713
0.000156835
0.000113051
8.83355e-05
0.000101446
0.000141282
0.000184439
0.000212971
0.000211092
0.000183451
0.000147689
0.000121628
0.000122293
0.000151777
0.000192751
0.000222037
0.000228402
0.000210489
0.000180714
0.000151368
0.000143408
0.000159308
0.000188755
0.000216479
0.000229481
0.00022111
0.000199334
0.000171884
0.000153501
0.00015333
0.00017059
0.000193354
0.000208339
0.000208373
0.000192837
0.000168334
0.000147669
0.000140365
0.000149977
0.000164957
0.00017662
0.000180275
0.000169578
0.000149752
0.000131091
0.000122109
0.000127037
0.000139386
0.00015242
0.000155207
0.000146088
0.000130991
0.000119547
0.000116956
0.000122525
0.000130197
0.000133193
0.000129654
0.000123668
0.000120905
0.000122439
0.000124647
0.000102226
0.00012069
0.000137986
0.000149412
0.000146617
0.000131105
0.000112
0.000104152
0.000111077
0.000132095
0.000153297
0.000160056
0.000153051
0.000133266
0.000113297
0.000109893
0.000124187
0.000149076
0.000171445
0.000175552
0.000161711
0.000139374
0.000123048
0.000125744
0.000141748
0.000163394
0.000181404
0.000186589
0.000180927
0.000170076
0.000158729
0.000155634
0.000161608
0.000174818
0.000189469
0.000199572
0.00020211
0.000195863
0.000185768
0.000177553
0.000176271
0.000181728
0.000191191
0.000199132
0.000202895
0.000199761
0.000191058
0.000180366
0.00017322
0.000172561
0.000177102
0.000183297
0.000186258
0.000182318
0.000171453
0.000157943
0.000151268
0.000152207
0.000156239
0.000161188
0.000162025
0.000158771
0.000151729
0.000142641
0.000135485
0.000132355
0.000134035
0.000137855
0.000140071
0.000137681
0.000132178
0.00012659
0.000123858
0.000124586
0.000126911
0.000127851
0.000126148
0.000123647
0.000122825
0.000123898
0.000121362
0.000114193
0.000116969
0.00012558
0.000135358
0.000141797
0.000139327
0.000130228
0.000120141
0.000116344
0.00012254
0.000132971
0.00014454
0.00015093
0.000147135
0.000137205
0.000128533
0.000126752
0.000135783
0.000147948
0.0001583
0.000161521
0.000155423
0.000148764
0.000146051
0.000146833
0.000153616
0.00016376
0.000173325
0.000180029
0.000180111
0.000177266
0.000174305
0.000173135
0.00017548
0.000181432
0.000189045
0.000195292
0.000196973
0.000194683
0.000190856
0.000187318
0.000185583
0.000186458
0.000189791
0.000193801
0.00019535
0.000192444
0.000186888
0.000180794
0.000175505
0.000172974
0.000173761
0.000175739
0.000176286
0.000171883
0.000164574
0.000158656
0.00015374
0.000151203
0.000150801
0.000150903
0.000150612
0.000148506
0.000144288
0.000139059
0.000134654
0.000132782
0.000133053
0.00013348
0.000132752
0.000130544
0.000127674
0.000125539
0.000124982
0.000125423
0.000125422
0.000124465
0.000123494
0.000123691
0.000135932
0.000127878
0.000123393
0.000122205
0.000124655
0.000130354
0.00013553
0.000137212
0.000134396
0.000129158
0.00012616
0.0001264
0.000131035
0.000138847
0.000144915
0.000146325
0.000143116
0.000137465
0.000135412
0.000138128
0.000145049
0.000153629
0.000158181
0.000158631
0.00015787
0.00015607
0.000155837
0.000158474
0.000163657
0.000170627
0.000176134
0.000179689
0.000181497
0.00018162
0.000181181
0.000181666
0.000183858
0.000187743
0.000191458
0.000193882
0.000194757
0.000193991
0.000191946
0.000189614
0.000188101
0.000188223
0.000189219
0.000189427
0.000188313
0.000185777
0.000181617
0.000176832
0.000173053
0.000171074
0.000171084
0.000170442
0.000167408
0.000163514
0.000158843
0.000154246
0.00015073
0.000148162
0.000146669
0.000145647
0.00014412
0.00014157
0.0001381
0.000134838
0.000132657
0.000131509
0.000130881
0.000130074
0.00012865
0.000126841
0.000125385
0.000124767
0.000124652
0.000124371
0.000123799
0.0001237
0.000133547
0.000131759
0.000129549
0.000127113
0.000125422
0.000125915
0.00012843
0.000131796
0.000134168
0.000134283
0.000133184
0.000131546
0.000130926
0.000132945
0.00013683
0.000141096
0.000143987
0.000144061
0.000142959
0.000142157
0.000143156
0.000147281
0.000152398
0.000156504
0.00015922
0.000160902
0.000161997
0.000163187
0.000165112
0.000168529
0.000172568
0.000176712
0.000180642
0.000183642
0.000185409
0.000186292
0.000186928
0.000188154
0.000189877
0.000191764
0.000193509
0.000194638
0.000194671
0.000193545
0.00019163
0.000189766
0.000188435
0.000187401
0.000186447
0.000185325
0.000183369
0.000180285
0.000176437
0.000172476
0.00016966
0.000167833
0.000165671
0.000162979
0.000159897
0.000156382
0.000152833
0.000149353
0.000146344
0.000144044
0.000142243
0.000140531
0.000138435
0.000136015
0.000133657
0.000131671
0.000130206
0.000129148
0.000128157
0.000126989
0.000125756
0.000124823
0.00012435
0.000124118
0.000123801
0.00012367
0.000129148
0.00012982
0.000129972
0.000129368
0.00012822
0.000127388
0.000127515
0.000128875
0.000131
0.000132825
0.000134043
0.000134337
0.000133952
0.000134027
0.000135137
0.000137487
0.000140624
0.000143241
0.000144974
0.000145798
0.000146121
0.000147465
0.000150215
0.000153852
0.000157352
0.000160618
0.000163494
0.00016593
0.00016807
0.000170527
0.000173358
0.000176524
0.000180009
0.000183429
0.000186312
0.000188422
0.00018979
0.000190837
0.000191806
0.000192792
0.000193816
0.000194729
0.0001952
0.00019494
0.000193843
0.000192167
0.000190289
0.000188369
0.000186518
0.000184832
0.00018306
0.000180855
0.000178001
0.000174414
0.000170744
0.000167597
0.000164825
0.000162067
0.000159302
0.00015639
0.000153377
0.000150211
0.000147047
0.000144155
0.000141685
0.000139623
0.000137726
0.000135813
0.000133863
0.000131951
0.000130223
0.000128806
0.000127675
0.000126681
0.000125721
0.000124861
0.000124249
0.000123919
0.000123678
0.000123568
0.000127369
0.000127868
0.000128398
0.000128663
0.00012858
0.000128374
0.000128333
0.000128796
0.000129886
0.000131258
0.000132697
0.000133908
0.000134638
0.000135199
0.000135924
0.000137187
0.000139212
0.000141597
0.000144012
0.000146146
0.000147677
0.000149094
0.000150986
0.000153764
0.000156941
0.000160276
0.000163593
0.000166733
0.000169585
0.000172361
0.000175182
0.000178083
0.000181136
0.00018424
0.000187147
0.00018963
0.00019155
0.000192998
0.000194097
0.000194939
0.000195593
0.000196062
0.000196237
0.000195964
0.000195125
0.000193753
0.000192004
0.00018999
0.000187799
0.000185562
0.000183292
0.000180906
0.000178289
0.000175216
0.000171772
0.000168335
0.00016512
0.000162038
0.000159056
0.0001561
0.000153169
0.000150209
0.000147234
0.000144352
0.000141688
0.000139328
0.000137239
0.000135327
0.000133525
0.000131789
0.00013014
0.000128656
0.000127402
0.000126369
0.000125495
0.000124736
0.000124126
0.000123736
0.000123498
0.000123401
0.000126891
0.000127086
0.000127375
0.000127685
0.000127932
0.000128154
0.00012843
0.000128886
0.000129646
0.000130625
0.000131756
0.000132961
0.000134066
0.000135114
0.000136197
0.000137457
0.000139089
0.00014104
0.000143225
0.00014556
0.000147776
0.000149851
0.000151983
0.000154555
0.000157513
0.000160722
0.000164047
0.000167376
0.000170585
0.000173703
0.000176781
0.000179819
0.00018284
0.000185814
0.00018863
0.000191154
0.000193264
0.00019494
0.000196213
0.000197123
0.000197702
0.000197969
0.000197898
0.000197434
0.00019652
0.000195156
0.000193423
0.000191395
0.000189119
0.000186664
0.000184069
0.00018135
0.000178526
0.000175515
0.000172254
0.000168861
0.000165521
0.00016227
0.000159109
0.00015601
0.000152976
0.000149999
0.000147083
0.000144269
0.000141612
0.00013917
0.000136959
0.000134949
0.000133115
0.000131425
0.000129858
0.000128427
0.000127165
0.000126098
0.000125222
0.000124504
0.000123923
0.000123517
0.000123271
0.000123175
0.000126342
0.000126487
0.000126674
0.000126957
0.000127278
0.000127633
0.000128047
0.000128571
0.000129279
0.000130152
0.000131156
0.000132277
0.000133439
0.000134645
0.000135936
0.000137359
0.00013901
0.000140888
0.00014296
0.000145242
0.000147649
0.000150108
0.000152603
0.0001553
0.000158259
0.000161449
0.000164793
0.000168215
0.000171622
0.000174976
0.000178277
0.0001815
0.00018463
0.000187639
0.000190467
0.000193032
0.000195243
0.000197047
0.000198427
0.000199385
0.000199931
0.000200082
0.000199844
0.000199211
0.000198164
0.000196702
0.00019487
0.000192728
0.000190324
0.000187712
0.000184926
0.000181989
0.000178945
0.000175807
0.000172544
0.00016917
0.00016578
0.000162435
0.000159163
0.000155964
0.000152841
0.000149805
0.000146868
0.000144057
0.000141404
0.00013894
0.00013668
0.000134616
0.000132735
0.000131028
0.000129483
0.000128094
0.000126863
0.0001258
0.000124917
0.000124205
0.000123642
0.000123235
0.000122986
0.000122889
0.000125688
0.000125794
0.000125954
0.000126238
0.000126611
0.000127042
0.000127523
0.000128076
0.000128756
0.000129584
0.000130553
0.000131663
0.000132875
0.000134169
0.000135561
0.000137079
0.000138786
0.000140704
0.000142813
0.000145119
0.000147611
0.00015026
0.000153014
0.000155902
0.000158964
0.000162211
0.000165616
0.000169135
0.000172701
0.000176257
0.000179767
0.00018319
0.000186485
0.000189615
0.000192533
0.000195182
0.000197493
0.000199404
0.000200869
0.000201865
0.000202384
0.000202436
0.000202041
0.000201224
0.000200001
0.000198384
0.000196401
0.000194096
0.000191515
0.000188715
0.000185739
0.000182621
0.000179399
0.000176108
0.000172758
0.000169343
0.000165909
0.000162495
0.000159138
0.000155861
0.000152674
0.000149591
0.000146626
0.000143796
0.000141126
0.000138636
0.000136344
0.000134248
0.00013234
0.000130614
0.000129065
0.000127688
0.000126479
0.000125435
0.000124554
0.000123843
0.000123287
0.000122883
0.000122634
0.000122535
0.000125056
0.000125114
0.00012525
0.000125515
0.000125901
0.000126374
0.000126911
0.000127507
0.000128189
0.000128993
0.000129936
0.000131036
0.000132282
0.000133652
0.000135138
0.000136745
0.000138512
0.000140478
0.000142648
0.000145021
0.000147594
0.00015036
0.000153286
0.000156354
0.000159564
0.000162924
0.000166431
0.000170062
0.000173778
0.000177524
0.000181251
0.000184903
0.000188422
0.000191754
0.000194845
0.000197641
0.00020008
0.000202098
0.000203642
0.00020467
0.000205163
0.00020512
0.000204564
0.000203535
0.000202077
0.000200227
0.000198024
0.000195506
0.000192711
0.000189699
0.000186515
0.000183203
0.000179806
0.000176356
0.000172884
0.000169389
0.000165897
0.000162429
0.000159011
0.000155675
0.000152436
0.000149313
0.000146322
0.000143473
0.000140783
0.00013827
0.000135948
0.000133823
0.000131893
0.000130153
0.000128596
0.00012722
0.000126019
0.000124987
0.000124116
0.000123408
0.000122856
0.000122456
0.000122206
0.000122105
0.000124365
0.000124412
0.000124543
0.000124788
0.000125156
0.000125633
0.000126199
0.000126838
0.000127555
0.000128373
0.000129314
0.000130405
0.00013166
0.000133071
0.000134629
0.000136327
0.000138175
0.000140205
0.000142437
0.00014488
0.000147529
0.000150383
0.000153426
0.000156636
0.000159998
0.000163505
0.000167155
0.000170937
0.000174826
0.00017878
0.000182748
0.000186669
0.000190475
0.000194092
0.000197452
0.000200482
0.000203114
0.000205276
0.000206908
0.000207963
0.000208412
0.000208254
0.00020751
0.00020623
0.000204475
0.000202307
0.000199792
0.000196981
0.000193913
0.000190651
0.000187235
0.000183712
0.000180127
0.00017651
0.000172896
0.000169295
0.000165729
0.000162206
0.000158742
0.000155367
0.000152093
0.00014894
0.000145926
0.00014306
0.000140354
0.000137823
0.000135479
0.000133329
0.000131378
0.000129623
0.000128059
0.000126679
0.000125479
0.000124453
0.000123591
0.000122888
0.000122341
0.000121945
0.000121695
0.00012159
0.000123582
0.000123646
0.000123791
0.000124032
0.000124383
0.000124845
0.00012541
0.00012607
0.00012682
0.00012767
0.000128635
0.000129738
0.000131001
0.000132432
0.000134033
0.000135799
0.000137727
0.000139832
0.000142132
0.00014464
0.000147358
0.000150286
0.000153417
0.000156739
0.000160238
0.000163902
0.000167726
0.000171701
0.00017581
0.000180021
0.000184286
0.000188543
0.000192713
0.000196711
0.000200444
0.000203817
0.000206736
0.000209114
0.000210876
0.000211965
0.000212349
0.000212029
0.000211034
0.000209429
0.000207293
0.000204709
0.000201777
0.00019857
0.000195144
0.000191564
0.000187873
0.00018411
0.000180319
0.000176525
0.000172762
0.000169042
0.000165386
0.000161803
0.000158299
0.000154896
0.000151603
0.000148434
0.000145405
0.00014253
0.000139814
0.000137271
0.000134913
0.000132747
0.000130778
0.00012901
0.000127436
0.000126052
0.000124851
0.000123827
0.00012297
0.000122273
0.00012173
0.000121337
0.00012109
0.000120982
0.000122702
0.000122786
0.000122948
0.000123196
0.000123541
0.00012399
0.000124547
0.000125209
0.000125976
0.000126852
0.000127848
0.000128977
0.000130259
0.00013171
0.000133339
0.000135149
0.000137138
0.00013931
0.000141674
0.000144242
0.00014702
0.000150012
0.000153217
0.000156633
0.000160256
0.000164079
0.000168099
0.00017231
0.0001767
0.00018124
0.000185887
0.000190576
0.000195222
0.000199722
0.000203958
0.000207806
0.000211137
0.000213835
0.000215796
0.000216948
0.000217252
0.000216714
0.000215376
0.000213325
0.000210677
0.000207543
0.000204056
0.000200325
0.000196426
0.000192438
0.000188404
0.000184359
0.000180336
0.000176352
0.000172436
0.000168593
0.000164843
0.000161194
0.000157652
0.000154226
0.000150925
0.000147755
0.000144726
0.000141851
0.000139136
0.000136591
0.000134228
0.000132054
0.000130074
0.000128295
0.000126714
0.000125325
0.000124124
0.0001231
0.000122247
0.000121556
0.000121018
0.000120627
0.00012038
0.000120271
0.00012172
0.000121817
0.000121988
0.000122244
0.000122589
0.000123033
0.000123583
0.000124241
0.000125014
0.000125905
0.000126924
0.00012808
0.000129388
0.000130862
0.000132515
0.000134355
0.000136383
0.000138601
0.000141014
0.000143629
0.000146455
0.000149499
0.000152769
0.000156272
0.000160014
0.000164002
0.000168238
0.00017273
0.000177466
0.000182424
0.000187562
0.000192813
0.000198083
0.000203246
0.000208158
0.000212654
0.000216563
0.000219722
0.000221989
0.000223261
0.000223483
0.000222665
0.000220866
0.000218209
0.000214858
0.000210977
0.000206744
0.000202311
0.000197787
0.000193269
0.000188804
0.000184416
0.000180127
0.000175937
0.00017186
0.000167894
0.000164056
0.000160345
0.000156768
0.000153327
0.000150024
0.000146866
0.000143852
0.000140991
0.00013829
0.000135756