/*--------------------------------*- C++ -*----------------------------------*\
| =========                 |                                                 |
| \\      /  F ield         | OpenFOAM: The Open Source CFD Toolbox           |
|  \\    /   O peration     | Version:  2412                                  |
|   \\  /    A nd           | Website:  www.openfoam.com                      |
|    \\/     M anipulation  |                                                 |
\*---------------------------------------------------------------------------*/
FoamFile
{
    version     2.0;
    format      ascii;
    arch        "LSB;label=32;scalar=64";
    class       volScalarField;
    location    "5.25";
    object      p;
}
// * * * * * * * * * * * * * * * * * * * * * * * * * * * * * * * * * * * * * //

dimensions      [1 -1 -2 0 0 0 0];

internalField   nonuniform List<scalar> 
6400
(
7506.54
7507.43
7508.99
7511.25
7514.17
7517.7
7521.79
7526.38
7531.41
7536.8
7542.47
7548.35
7554.35
7560.4
7566.41
7572.31
7578.05
7583.57
7588.83
7593.8
7598.45
7602.79
7606.8
7610.5
7613.9
7617.03
7619.9
7622.55
7625
7627.25
7629.33
7631.24
7632.98
7634.57
7635.99
7637.23
7638.27
7639.1
7639.72
7640.1
7640.25
7640.16
7639.84
7639.28
7638.5
7637.51
7636.32
7634.92
7633.36
7631.6
7629.64
7627.49
7625.13
7622.55
7619.73
7616.64
7613.28
7609.61
7605.63
7601.33
7596.72
7591.81
7586.63
7581.21
7575.59
7569.82
7563.97
7558.1
7552.3
7546.62
7541.17
7536
7531.18
7526.8
7522.9
7519.54
7516.76
7514.61
7513.12
7512.28
7118.7
7119.59
7121.19
7123.49
7126.46
7130.05
7134.21
7138.88
7143.99
7149.46
7155.23
7161.2
7167.29
7173.42
7179.51
7185.49
7191.29
7196.86
7202.16
7207.16
7211.83
7216.17
7220.18
7223.86
7227.25
7230.35
7233.19
7235.8
7238.24
7240.47
7242.52
7244.41
7246.15
7247.73
7249.14
7250.38
7251.42
7252.26
7252.88
7253.27
7253.42
7253.33
7253
7252.45
7251.67
7250.69
7249.5
7248.13
7246.56
7244.82
7242.88
7240.75
7238.41
7235.86
7233.06
7230
7226.64
7222.98
7219
7214.7
7210.07
7205.13
7199.9
7194.43
7188.74
7182.9
7176.97
7171.03
7165.13
7159.37
7153.83
7148.58
7143.69
7139.23
7135.27
7131.86
7129.04
7126.85
7125.33
7124.48
6730.09
6731.01
6732.66
6735.04
6738.1
6741.8
6746.09
6750.91
6756.18
6761.83
6767.77
6773.92
6780.19
6786.48
6792.72
6798.83
6804.75
6810.42
6815.79
6820.83
6825.53
6829.88
6833.87
6837.53
6840.87
6843.93
6846.72
6849.29
6851.66
6853.85
6855.88
6857.75
6859.48
6861.05
6862.47
6863.71
6864.76
6865.61
6866.24
6866.64
6866.79
6866.7
6866.38
6865.82
6865.03
6864.05
6862.86
6861.5
6859.95
6858.23
6856.3
6854.21
6851.92
6849.41
6846.66
6843.64
6840.32
6836.68
6832.7
6828.38
6823.72
6818.73
6813.42
6807.85
6802.04
6796.07
6789.99
6783.89
6777.83
6771.9
6766.19
6760.78
6755.74
6751.15
6747.07
6743.55
6740.64
6738.38
6736.82
6735.95
6340.67
6341.63
6343.36
6345.86
6349.06
6352.94
6357.43
6362.47
6367.98
6373.89
6380.1
6386.51
6393.04
6399.58
6406.05
6412.36
6418.45
6424.25
6429.72
6434.84
6439.57
6443.91
6447.88
6451.49
6454.77
6457.74
6460.46
6462.95
6465.26
6467.39
6469.38
6471.23
6472.95
6474.53
6475.96
6477.23
6478.31
6479.18
6479.83
6480.24
6480.4
6480.31
6479.97
6479.4
6478.6
6477.6
6476.41
6475.04
6473.51
6471.84
6469.87
6467.86
6465.64
6463.2
6460.52
6457.56
6454.29
6450.69
6446.72
6442.39
6437.68
6432.61
6427.2
6421.48
6415.51
6409.33
6403.03
6396.69
6390.38
6384.2
6378.23
6372.58
6367.32
6362.53
6358.27
6354.59
6351.56
6349.2
6347.55
6346.64
5950.39
5951.42
5953.26
5955.91
5959.31
5963.42
5968.18
5973.52
5979.37
5985.63
5992.2
5998.98
6005.86
6012.75
6019.51
6026.09
6032.41
6038.39
6044
6049.2
6053.97
6058.3
6062.23
6065.76
6068.94
6071.81
6074.41
6076.8
6079.01
6081.08
6083.02
6084.84
6086.56
6088.15
6089.62
6090.93
6092.05
6092.97
6093.65
6094.08
6094.25
6094.16
6093.8
6093.2
6092.38
6091.34
6090.12
6088.74
6087.22
6085.56
6083.66
6081.7
6079.56
6077.22
6074.63
6071.77
6068.58
6065.03
6061.1
6056.76
6052
6046.83
6041.27
6035.36
6029.15
6022.71
6016.11
6009.44
6002.79
5996.26
5989.96
5983.98
5978.41
5973.34
5968.83
5964.95
5961.74
5959.24
5957.5
5956.53
5559.2
5560.32
5562.3
5565.15
5568.8
5573.2
5578.31
5584.04
5590.32
5597.04
5604.08
5611.33
5618.66
5625.96
5633.14
5640.07
5646.68
5652.9
5658.67
5663.97
5668.77
5673.09
5676.94
5680.35
5683.39
5686.11
5688.56
5690.8
5692.89
5694.87
5696.75
5698.55
5700.28
5701.91
5703.43
5704.8
5706
5706.98
5707.71
5708.17
5708.35
5708.25
5707.87
5707.22
5706.34
5705.26
5704
5702.59
5701.05
5699.4
5697.61
5695.72
5693.68
5691.46
5689.01
5686.27
5683.2
5679.74
5675.86
5671.52
5666.7
5661.41
5655.68
5649.53
5643.02
5636.23
5629.25
5622.15
5615.06
5608.08
5601.33
5594.93
5588.97
5583.54
5578.73
5574.58
5571.15
5568.48
5566.61
5565.55
5167.01
5168.25
5170.41
5173.5
5177.45
5182.22
5187.76
5193.98
5200.8
5208.1
5215.74
5223.58
5231.49
5239.33
5247
5254.36
5261.33
5267.83
5273.8
5279.2
5284.04
5288.3
5292.04
5295.3
5298.14
5300.65
5302.89
5304.94
5306.87
5308.73
5310.54
5312.32
5314.07
5315.77
5317.38
5318.85
5320.15
5321.22
5322.02
5322.53
5322.73
5322.61
5322.18
5321.47
5320.51
5319.34
5318
5316.54
5314.98
5313.35
5311.64
5309.85
5307.95
5305.9
5303.63
5301.08
5298.18
5294.85
5291.05
5286.73
5281.85
5276.43
5270.48
5264.03
5257.16
5249.93
5242.46
5234.84
5227.2
5219.66
5212.35
5205.41
5198.95
5193.08
5187.88
5183.41
5179.72
5176.83
5174.81
5173.64
4773.73
4775.14
4777.51
4780.88
4785.19
4790.4
4796.46
4803.29
4810.78
4818.79
4827.17
4835.74
4844.37
4852.88
4861.14
4869.03
4876.43
4883.26
4889.45
4894.98
4899.83
4904.01
4907.59
4910.62
4913.19
4915.4
4917.36
4919.16
4920.89
4922.6
4924.33
4926.1
4927.9
4929.69
4931.43
4933.06
4934.51
4935.71
4936.62
4937.19
4937.4
4937.25
4936.76
4935.94
4934.86
4933.56
4932.11
4930.56
4928.96
4927.34
4925.71
4924.06
4922.34
4920.52
4918.5
4916.21
4913.54
4910.4
4906.73
4902.45
4897.53
4891.96
4885.75
4878.95
4871.63
4863.87
4855.79
4847.53
4839.21
4830.98
4822.98
4815.38
4808.31
4801.89
4796.23
4791.37
4787.37
4784.24
4782.02
4780.71
4379.23
4380.87
4383.49
4387.19
4391.9
4397.62
4404.31
4411.89
4420.21
4429.1
4438.37
4447.84
4457.33
4466.64
4475.64
4484.15
4492.07
4499.29
4505.74
4511.39
4516.22
4520.28
4523.62
4526.33
4528.53
4530.36
4531.95
4533.41
4534.87
4536.4
4538.04
4539.81
4541.7
4543.64
4545.58
4547.42
4549.08
4550.47
4551.52
4552.18
4552.41
4552.22
4551.62
4550.66
4549.4
4547.91
4546.29
4544.61
4542.93
4541.3
4539.75
4538.26
4536.79
4535.27
4533.59
4531.64
4529.3
4526.44
4522.96
4518.77
4513.81
4508.08
4501.58
4494.37
4486.51
4478.12
4469.32
4460.27
4451.12
4442.04
4433.2
4424.78
4416.96
4409.87
4403.65
4398.36
4394
4390.59
4388.16
4386.64
3983.38
3985.3
3988.22
3992.26
3997.41
4003.73
4011.2
4019.69
4029.03
4038.99
4049.36
4059.91
4070.43
4080.71
4090.58
4099.84
4108.36
4116.04
4122.78
4128.55
4133.34
4137.19
4140.19
4142.47
4144.17
4145.48
4146.56
4147.59
4148.7
4150.01
4151.55
4153.36
4155.38
4157.56
4159.77
4161.92
4163.88
4165.53
4166.78
4167.56
4167.82
4167.56
4166.81
4165.64
4164.12
4162.36
4160.49
4158.6
4156.79
4155.13
4153.66
4152.38
4151.22
4150.09
4148.87
4147.39
4145.5
4143.02
4139.81
4135.77
4130.81
4124.91
4118.08
4110.38
4101.9
4092.75
4083.09
4073.09
4062.94
4052.83
4042.97
4033.56
4024.81
4016.9
4010
4004.19
3999.49
3995.8
3993.1
3991.32
3586.04
3588.28
3591.49
3595.78
3601.36
3608.42
3616.9
3626.58
3637.18
3648.46
3660.15
3671.99
3683.75
3695.18
3706.08
3716.22
3725.46
3733.66
3740.72
3746.6
3751.29
3754.85
3757.39
3759.06
3760.09
3760.69
3761.11
3761.57
3762.24
3763.27
3764.72
3766.6
3768.84
3771.34
3773.97
3776.55
3778.93
3780.94
3782.46
3783.4
3783.69
3783.34
3782.38
3780.9
3779.02
3776.88
3774.63
3772.44
3770.42
3768.7
3767.31
3766.27
3765.51
3764.9
3764.29
3763.44
3762.15
3760.2
3757.39
3753.57
3748.65
3742.58
3735.38
3727.11
3717.89
3707.85
3697.17
3686.05
3674.7
3663.37
3652.27
3641.65
3631.74
3622.77
3614.97
3608.54
3603.5
3599.65
3596.72
3594.64
3187.14
3189.56
3192.8
3197.03
3203.05
3211.18
3221.13
3232.4
3244.62
3257.49
3270.76
3284.14
3297.37
3310.16
3322.28
3333.46
3343.53
3352.34
3359.76
3365.73
3370.25
3373.39
3375.28
3376.15
3376.26
3375.93
3375.46
3375.16
3375.27
3375.97
3377.33
3379.34
3381.91
3384.9
3388.09
3391.28
3394.23
3396.74
3398.64
3399.78
3400.12
3399.64
3398.39
3396.49
3394.1
3391.41
3388.64
3386
3383.67
3381.8
3380.49
3379.75
3379.49
3379.58
3379.76
3379.77
3379.3
3378.07
3375.81
3372.32
3367.48
3361.24
3353.63
3344.71
3334.62
3323.54
3311.64
3299.19
3286.44
3273.65
3261.08
3248.98
3237.59
3227.17
3218.05
3210.69
3205.34
3201.65
3198.79
3196.55
2786.7
2788.91
2791.6
2795.51
2802.13
2811.77
2823.74
2837.11
2851.33
2866.12
2881.24
2896.43
2911.37
2925.75
2939.29
2951.71
2962.77
2972.28
2980.1
2986.15
2990.42
2992.98
2994
2993.78
2992.66
2991.07
2989.42
2988.14
2987.53
2987.81
2989.1
2991.34
2994.41
2998.08
3002.07
3006.09
3009.83
3013.01
3015.4
3016.84
3017.23
3016.56
3014.92
3012.44
3009.35
3005.9
3002.39
2999.1
2996.3
2994.21
2992.95
2992.56
2992.95
2993.93
2995.2
2996.35
2996.99
2996.73
2995.21
2992.19
2987.5
2981.1
2973.01
2963.33
2952.23
2939.93
2926.6
2912.59
2898.2
2883.7
2869.39
2855.53
2842.32
2829.98
2819.02
2810.32
2804.53
2801.29
2799.07
2797.09
2384.72
2386.37
2388.27
2391.99
2399.44
2410.86
2425.09
2440.85
2457.39
2474.39
2491.65
2508.91
2525.84
2542.08
2557.28
2571.16
2583.38
2593.71
2602
2608.12
2612.03
2613.82
2613.69
2612
2609.23
2605.96
2602.73
2600.16
2598.63
2598.43
2599.66
2602.28
2606.07
2610.7
2615.8
2620.95
2625.76
2629.84
2632.89
2634.69
2635.14
2634.23
2632.04
2628.78
2624.73
2620.23
2615.7
2611.5
2608.01
2605.54
2604.3
2604.34
2605.57
2607.72
2610.45
2613.14
2615.28
2616.34
2615.84
2613.44
2608.98
2602.39
2593.75
2583.18
2570.87
2557.03
2542.11
2526.31
2510
2493.54
2477.24
2461.36
2446.05
2431.57
2418.6
2408.35
2401.9
2398.97
2397.64
2396.3
1981.03
1982.2
1983.86
1987.81
1996.28
2009.45
2025.77
2043.84
2062.84
2082.28
2101.97
2121.61
2140.85
2159.26
2176.44
2192.01
2205.58
2216.89
2225.73
2231.92
2235.39
2236.17
2234.52
2230.88
2225.9
2220.37
2215.06
2210.78
2208.07
2207.28
2208.55
2211.76
2216.58
2222.55
2229.16
2235.85
2242.08
2247.35
2251.26
2253.54
2254.05
2252.79
2249.87
2245.55
2240.2
2234.27
2228.32
2222.85
2218.37
2215.33
2214.03
2214.59
2216.9
2220.64
2225.27
2230.08
2234.27
2237.11
2237.97
2236.42
2232.25
2225.45
2216.14
2204.52
2190.81
2175.25
2158.32
2140.38
2121.84
2103.12
2084.57
2066.47
2048.99
2032.51
2017.78
2006.11
1998.87
1995.82
1994.86
1994.09
1575.14
1576.31
1578.58
1583.47
1592.91
1607.24
1625.32
1645.68
1667.38
1689.58
1712.08
1734.52
1756.49
1777.48
1797
1814.54
1829.78
1842.22
1851.72
1858.03
1860.95
1860.46
1856.81
1850.56
1842.58
1833.97
1825.89
1819.34
1815.1
1813.62
1815.03
1819.15
1825.46
1833.3
1841.98
1850.76
1858.89
1865.72
1870.77
1873.66
1874.23
1872.48
1868.57
1862.83
1855.71
1847.84
1839.92
1832.67
1826.77
1822.85
1821.37
1822.55
1826.27
1832.12
1839.38
1847.08
1854.09
1859.4
1862.1
1861.64
1857.83
1850.74
1840.61
1827.75
1812.37
1794.65
1775.34
1754.86
1733.68
1712.31
1691.12
1670.52
1650.73
1632.32
1616.22
1603.74
1595.83
1592.11
1590.74
1590.1
1166.28
1168.26
1171.81
1177.81
1188.13
1203.46
1223.1
1245.73
1270.21
1295.68
1321.63
1347.53
1372.89
1397.09
1419.46
1439.41
1456.48
1470.29
1480.62
1487.17
1489.49
1487.38
1481.05
1471.22
1459.07
1446.2
1434.32
1424.75
1418.55
1416.25
1417.99
1423.48
1431.97
1442.4
1453.93
1465.57
1476.29
1485.27
1491.84
1495.55
1496.19
1493.77
1488.48
1480.78
1471.25
1460.68
1450
1440.22
1432.25
1427.03
1425.21
1427.12
1432.66
1441.34
1452.22
1463.92
1474.9
1483.69
1488.9
1489.88
1486.46
1478.89
1467.68
1453.29
1435.57
1415.59
1393.48
1369.87
1345.41
1320.74
1296.29
1272.74
1250.52
1230.35
1213.2
1200.16
1191.73
1187.21
1184.86
1183.73
752.524
755.632
761.129
768.643
780.054
796.445
817.673
842.725
870.44
899.85
930.012
960.295
990.053
1018.45
1044.63
1067.72
1087.18
1102.46
1113.83
1120.91
1122.69
1118.51
1108.52
1093.65
1075.32
1056.53
1039.11
1025.24
1016.41
1013.2
1015.62
1023.23
1035
1048.7
1064.08
1079.64
1093.82
1105.55
1114.1
1118.86
1119.55
1116.21
1109.13
1098.89
1086.18
1071.91
1057.49
1044.46
1033.46
1026.26
1023.72
1026.4
1034.33
1047.02
1063.14
1080.61
1097.31
1111.29
1119.99
1122.81
1119.68
1111.21
1098.6
1082.93
1062.31
1038.99
1013.11
985.402
956.655
927.748
899.353
872.161
847.143
825.212
807.175
793.703
784.676
779.023
775.219
773.624
334.733
344.01
350.558
357.653
368.331
384.658
407.206
435.16
467.577
502.497
538.063
573.726
608.984
642.661
673.684
700.566
722.604
739.391
752.217
760.76
762.501
755.886
740.913
718.656
691.891
664.097
638.554
618.628
606.443
602.389
605.56
615.526
632.358
649.861
671.115
692.205
710.74
725.809
736.9
743.113
743.807
739.08
729.589
716.255
699.598
680.304
660.135
642.337
627.306
618.038
614.804
618.332
629.32
647.59
671.36
697.305
721.999
744.307
757.449
762.447
759.068
748.576
733.438
714.884
692.706
665.858
635.337
602.439
568.215
533.947
500.38
468.093
438.835
414.802
396.187
383.074
374.709
369.292
364.817
361.528
52.6509
57.8899
61.414
64.7506
69.7906
78.4501
91.0522
106.853
127.537
154.212
182.582
212.758
245.139
278.722
311.309
340.793
365.448
381.651
395.883
407.824
410.295
400.099
377.922
347.623
312.56
277.863
247.585
225.159
212.107
207.794
209.675
218.922
237.446
259.472
285.674
311.781
334.867
354.67
369.912
378.502
379.002
371.835
358.333
340.424
319.278
295.267
270.197
248.622
230.052
220.342
218.113
222.539
234.603
255.653
284.538
317.515
351.184
380.709
401.369
409.941
405.827
391.6
373.44
355.778
330.801
301.742
270.168
237.977
207.051
178.393
152.152
127.88
108.931
95.5055
85.0579
77.8002
73.4357
70.9196
68.8274
64.3946
-8.07192
-8.02442
-8.29704
-8.52572
-8.67257
-8.76121
-8.8571
-8.78658
-7.11802
-1.00283
7.02602
17.4087
30.876
47.3779
64.9116
81.3341
95.7118
107.957
117.369
124.176
124.599
115.882
98.2486
77.765
57.5535
40.4914
27.4215
18.562
13.7924
11.8525
11.056
12.8595
19.3279
29.676
43.8876
60.0023
74.6041
87.7506
98.1336
103.862
103.699
98.8636
89.5914
77.444
63.9729
49.0916
34.6699
23.7532
16.4142
13.9842
14.5729
16.8727
21.36
29.9677
43.0331
59.5529
79.637
99.8301
116.402
123.685
121.696
113.036
101.766
89.1718
74.7847
59.2337
43.0953
28.1199
15.9536
6.59228
-0.340632
-5.51403
-7.0109
-7.2547
-7.36527
-7.30644
-7.12449
-7.13063
-7.19225
-7.23536
-8.72555
-8.79264
-8.96802
-9.11301
-9.20839
-9.27576
-9.33454
-9.36205
-9.39261
-9.5099
-9.62204
-9.72242
-9.81894
-9.90481
-9.96458
-9.95636
-9.70917
-8.3764
-6.63806
-5.04466
-4.26402
-5.22178
-7.11517
-8.40019
-8.81909
-9.01732
-9.19774
-9.37986
-9.57715
-9.78074
-9.94872
-10.1329
-10.3587
-10.4242
-10.4066
-10.43
-10.4468
-10.331
-9.97636
-9.72355
-9.78069
-9.94179
-10.2169
-10.2982
-10.2803
-10.2004
-10.1161
-10.0949
-10.0014
-9.78205
-9.59617
-9.46393
-9.28119
-9.09459
-8.9534
-8.77141
-8.25016
-6.83407
-5.07478
-4.54826
-5.75306
-7.57382
-9.20471
-9.73716
-9.64089
-9.36479
-9.03477
-8.70724
-8.41035
-8.16491
-7.9604
-7.77647
-7.73622
-7.79543
-7.88011
-7.90435
-7.84655
-7.79204
-7.80247
-7.78513
-9.39299
-9.45689
-9.55805
-9.63573
-9.71207
-9.81089
-9.89315
-9.95705
-10.0359
-10.0574
-10.0955
-10.1708
-10.2441
-10.2886
-10.3228
-10.3471
-10.3422
-10.4311
-10.4949
-10.5344
-10.5499
-10.5106
-10.3938
-10.2328
-10.152
-10.149
-10.1803
-10.2416
-10.3349
-10.4599
-10.5873
-10.6963
-10.7613
-10.724
-10.6322
-10.602
-10.6152
-10.5937
-10.4814
-10.3654
-10.3568
-10.392
-10.45
-10.504
-10.5192
-10.4871
-10.4631
-10.4827
-10.4843
-10.4347
-10.3526
-10.2741
-10.1973
-10.1432
-10.1451
-10.2
-10.3171
-10.4579
-10.5181
-10.5157
-10.4743
-10.4137
-10.3553
-10.289
-10.1359
-9.88621
-9.58113
-9.2668
-8.97607
-8.74031
-8.55398
-8.38735
-8.24693
-8.27834
-8.4205
-8.54875
-8.52179
-8.39518
-8.36402
-8.3455
-10.0902
-10.1381
-10.1751
-10.2128
-10.293
-10.3914
-10.4584
-10.5026
-10.5345
-10.5698
-10.6392
-10.7235
-10.7955
-10.8435
-10.8737
-10.8762
-10.8698
-10.9094
-10.9563
-10.9817
-10.9667
-10.9359
-10.867
-10.7732
-10.7059
-10.6837
-10.6978
-10.7435
-10.8128
-10.8993
-10.9877
-11.0676
-11.1289
-11.1616
-11.162
-11.1302
-11.1103
-11.0823
-10.9951
-10.89
-10.8425
-10.8692
-10.9237
-10.9695
-10.9721
-10.938
-10.8988
-10.8738
-10.8667
-10.8558
-10.8315
-10.7925
-10.7336
-10.6905
-10.72
-10.7906
-10.9024
-11.0132
-11.06
-11.0554
-11.0555
-11.0493
-11.0005
-10.9301
-10.7944
-10.5631
-10.2658
-9.95639
-9.67748
-9.45549
-9.29545
-9.16685
-9.05725
-9.02582
-9.10318
-9.20539
-9.16095
-9.04151
-8.9706
-8.93417
-10.7689
-10.8023
-10.7747
-10.8091
-10.9101
-11.0053
-11.0484
-11.0853
-11.1036
-11.168
-11.2604
-11.3551
-11.4132
-11.4335
-11.4266
-11.3849
-11.3592
-11.3664
-11.3811
-11.3972
-11.395
-11.3656
-11.3094
-11.2416
-11.2001
-11.1881
-11.2031
-11.2408
-11.2971
-11.3671
-11.4461
-11.5291
-11.5905
-11.6238
-11.6214
-11.5976
-11.5734
-11.566
-11.543
-11.4351
-11.3352
-11.3482
-11.4015
-11.4425
-11.4315
-11.3835
-11.3413
-11.3228
-11.3227
-11.326
-11.3233
-11.3118
-11.2624
-11.2164
-11.2575
-11.3431
-11.4654
-11.5972
-11.665
-11.6659
-11.6532
-11.6516
-11.6626
-11.6408
-11.5486
-11.3553
-11.0773
-10.7878
-10.517
-10.3039
-10.1677
-10.0726
-10.0003
-9.93277
-9.86637
-9.81808
-9.72421
-9.62239
-9.57452
-9.55681
-11.4324
-11.4631
-11.4475
-11.4797
-11.5816
-11.6391
-11.6402
-11.6593
-11.686
-11.7698
-11.8737
-11.9498
-11.9924
-12.0041
-11.9696
-11.8958
-11.8514
-11.839
-11.8399
-11.8422
-11.8315
-11.8036
-11.7647
-11.7263
-11.7024
-11.6996
-11.7162
-11.7499
-11.7978
-11.8563
-11.9219
-11.9874
-12.0409
-12.073
-12.0876
-12.0824
-12.0736
-12.0768
-12.0798
-11.9921
-11.8747
-11.8449
-11.9062
-11.9406
-11.9259
-11.8712
-11.8258
-11.8045
-11.8163
-11.8259
-11.8334
-11.8433
-11.8112
-11.782
-11.8201
-11.9181
-12.0765
-12.2587
-12.348
-12.3369
-12.3072
-12.3056
-12.3105
-12.3057
-12.257
-12.1146
-11.89
-11.6407
-11.4067
-11.2136
-11.1
-11.0281
-10.9572
-10.8648
-10.7209
-10.5456
-10.3659
-10.2445
-10.2207
-10.2216
-12.0542
-12.0746
-12.0988
-12.1389
-12.23
-12.2413
-12.2151
-12.2075
-12.2677
-12.3394
-12.4098
-12.4674
-12.4912
-12.4916
-12.4553
-12.3951
-12.3502
-12.3255
-12.3127
-12.3016
-12.2849
-12.2621
-12.2382
-12.2199
-12.2137
-12.2199
-12.2395
-12.2713
-12.3133
-12.3636
-12.4193
-12.4752
-12.5228
-12.5563
-12.5778
-12.5891
-12.5953
-12.6005
-12.5921
-12.5459
-12.4642
-12.4121
-12.4339
-12.476
-12.4686
-12.4021
-12.3277
-12.3059
-12.3186
-12.3282
-12.343
-12.3685
-12.3839
-12.3941
-12.4354
-12.5218
-12.6992
-12.9328
-13.0514
-13.0117
-12.9469
-12.8951
-12.8694
-12.8802
-12.8732
-12.7968
-12.6555
-12.4815
-12.3083
-12.1363
-12.0302
-11.9805
-11.9218
-11.8146
-11.6383
-11.3895
-11.1279
-10.9578
-10.9392
-10.9499
-12.6526
-12.6323
-12.673
-12.7368
-12.8014
-12.7882
-12.7695
-12.7624
-12.846
-12.8905
-12.9345
-12.9845
-13.0115
-13.0062
-12.9674
-12.9116
-12.8597
-12.8212
-12.7959
-12.7763
-12.7574
-12.7405
-12.7288
-12.7244
-12.7289
-12.7428
-12.7658
-12.7971
-12.836
-12.8817
-12.9324
-12.9843
-13.0304
-13.0659
-13.0926
-13.1156
-13.1368
-13.151
-13.1469
-13.1124
-13.0551
-13.0135
-13.026
-13.0638
-13.0515
-12.9702
-12.8419
-12.8067
-12.8072
-12.8215
-12.8435
-12.8718
-12.9446
-13.0148
-13.0657
-13.1256
-13.3051
-13.5907
-13.7577
-13.6984
-13.5568
-13.4474
-13.4079
-13.4209
-13.4392
-13.4206
-13.3582
-13.2681
-13.1574
-13.0293
-12.9493
-12.9166
-12.8763
-12.7741
-12.5777
-12.2988
-11.9744
-11.7364
-11.7064
-11.7355
-13.2347
-13.1898
-13.2155
-13.2877
-13.3182
-13.3102
-13.3079
-13.3535
-13.4212
-13.455
-13.5056
-13.5558
-13.5818
-13.5692
-13.5196
-13.4501
-13.384
-13.332
-13.2957
-13.269
-13.2465
-13.2336
-13.2306
-13.2365
-13.2497
-13.2698
-13.2962
-13.3286
-13.3665
-13.4101
-13.459
-13.5111
-13.5612
-13.605
-13.6435
-13.6797
-13.7136
-13.7399
-13.7476
-13.7251
-13.6765
-13.6324
-13.6324
-13.6471
-13.6145
-13.5102
-13.3668
-13.2897
-13.2812
-13.3018
-13.3305
-13.3746
-13.4748
-13.5631
-13.6068
-13.6619
-13.8357
-14.1316
-14.3481
-14.3104
-14.1127
-13.9885
-13.9392
-13.9463
-13.9734
-13.9931
-13.9921
-13.9731
-13.9389
-13.8924
-13.877
-13.8798
-13.852
-13.7488
-13.5339
-13.2376
-12.8767
-12.5806
-12.5321
-12.5467
-13.788
-13.7744
-13.759
-13.8104
-13.8206
-13.8207
-13.8523
-13.9467
-14.0137
-14.0606
-14.1248
-14.1794
-14.2022
-14.178
-14.1111
-14.0243
-13.9384
-13.8666
-13.8163
-13.7825
-13.7534
-13.7412
-13.7439
-13.7573
-13.7783
-13.8043
-13.8344
-13.8682
-13.9058
-13.948
-13.996
-14.0498
-14.1064
-14.1625
-14.2187
-14.274
-14.3226
-14.357
-14.3708
-14.3529
-14.3055
-14.248
-14.2063
-14.1753
-14.115
-14.0034
-13.8555
-13.7561
-13.7401
-13.7699
-13.8025
-13.8715
-13.9601
-14.021
-14.059
-14.103
-14.247
-14.4878
-14.6901
-14.697
-14.5611
-14.4595
-14.4292
-14.4481
-14.4922
-14.5493
-14.6089
-14.658
-14.6988
-14.751
-14.8196
-14.879
-14.8686
-14.7545
-14.5111
-14.1885
-13.8237
-13.5032
-13.4175
-13.3757
-14.34
-14.3554
-14.3256
-14.3386
-14.3317
-14.329
-14.3914
-14.5286
-14.6195
-14.6974
-14.7898
-14.8663
-14.9081
-14.9068
-14.8449
-14.7273
-14.5836
-14.4571
-14.3714
-14.3213
-14.2796
-14.2631
-14.2688
-14.2881
-14.316
-14.3479
-14.3817
-14.417
-14.4542
-14.495
-14.5422
-14.598
-14.6609
-14.7293
-14.8026
-14.8755
-14.9379
-14.979
-14.9929
-14.9722
-14.9174
-14.8479
-14.7782
-14.696
-14.5862
-14.4587
-14.3125
-14.2109
-14.1947
-14.2339
-14.2712
-14.3558
-14.4136
-14.4585
-14.4841
-14.5093
-14.5967
-14.7475
-14.8897
-14.9273
-14.8856
-14.8535
-14.8718
-14.9272
-15.0068
-15.1097
-15.2301
-15.3418
-15.4534
-15.6172
-15.7835
-15.9012
-15.9008
-15.7686
-15.5074
-15.1565
-14.7882
-14.4549
-14.3234
-14.258
-14.9007
-14.9376
-14.944
-14.917
-14.8682
-14.8488
-14.9268
-15.0817
-15.2211
-15.3657
-15.5287
-15.7051
-15.8496
-15.9018
-15.8396
-15.6648
-15.4234
-15.1783
-14.9886
-14.889
-14.8251
-14.7969
-14.8038
-14.8287
-14.863
-14.8997
-14.9365
-14.9733
-15.0104
-15.0503
-15.098
-15.156
-15.2233
-15.2999
-15.3815
-15.4578
-15.523
-15.57
-15.5853
-15.5602
-15.4927
-15.4225
-15.3598
-15.2626
-15.1081
-14.932
-14.7799
-14.6754
-14.6605
-14.7054
-14.7573
-14.8376
-14.8852
-14.9211
-14.9365
-14.9401
-14.9846
-15.0717
-15.1588
-15.1979
-15.2063
-15.2379
-15.3079
-15.4061
-15.5283
-15.6825
-15.8621
-16.032
-16.2283
-16.5016
-16.7423
-16.893
-16.8998
-16.7546
-16.4809
-16.1129
-15.7297
-15.3817
-15.2003
-15.1288
-15.4904
-15.5873
-15.6099
-15.534
-15.4352
-15.3957
-15.4702
-15.617
-15.8213
-16.075
-16.3919
-16.7298
-16.9846
-17.0609
-16.9671
-16.7252
-16.4007
-16.0478
-15.7163
-15.4972
-15.3869
-15.3401
-15.3474
-15.3788
-15.418
-15.4579
-15.4964
-15.5342
-15.5717
-15.6126
-15.6624
-15.723
-15.7928
-15.8724
-15.9513
-16.0128
-16.063
-16.1061
-16.1301
-16.111
-16.0256
-15.962
-15.9392
-15.8704
-15.7022
-15.4793
-15.2897
-15.1726
-15.1534
-15.194
-15.2632
-15.3385
-15.385
-15.4132
-15.4194
-15.4168
-15.4524
-15.5153
-15.5567
-15.5629
-15.5863
-15.6575
-15.7641
-15.8998
-16.0642
-16.2714
-16.5059
-16.7328
-17.0345
-17.3974
-17.6743
-17.8329
-17.8507
-17.6943
-17.396
-17.0116
-16.5985
-16.2181
-15.9729
-15.8862
-16.0779
-16.2277
-16.2463
-16.1267
-16.0078
-15.9774
-16.0333
-16.1799
-16.4539
-16.8457
-17.3155
-17.7499
-18.0425
-18.1292
-18.0162
-17.7177
-17.3321
-16.9341
-16.5342
-16.1856
-15.9948
-15.9018
-15.9012
-15.9394
-15.9809
-16.0207
-16.059
-16.0965
-16.1349
-16.1782
-16.2314
-16.2958
-16.3687
-16.45
-16.5215
-16.5625
-16.6061
-16.6592
-16.7035
-16.6958
-16.6317
-16.5588
-16.539
-16.5126
-16.3603
-16.1038
-15.8656
-15.725
-15.6907
-15.7148
-15.798
-15.8673
-15.9113
-15.9321
-15.9406
-15.9686
-16.0194
-16.0459
-16.0188
-16.006
-16.0453
-16.1267
-16.2522
-16.4176
-16.6184
-16.8744
-17.1603
-17.4543
-17.8624
-18.2986
-18.5995
-18.7609
-18.7566
-18.5725
-18.2413
-17.84
-17.3866
-16.937
-16.6178
-16.5037
-16.5676
-16.7054
-16.7317
-16.6199
-16.5157
-16.5371
-16.5974
-16.7546
-17.0874
-17.581
-18.1241
-18.6017
-18.9212
-19.0369
-18.9254
-18.5858
-18.1436
-17.7141
-17.3176
-16.9252
-16.6622
-16.5151
-16.4768
-16.5124
-16.5521
-16.5865
-16.6216
-16.6578
-16.6971
-16.7427
-16.8009
-16.8712
-16.9509
-17.0391
-17.1087
-17.1456
-17.2135
-17.305
-17.3747
-17.413
-17.4635
-17.4279
-17.3406
-17.2602
-17.0971
-16.8052
-16.5156
-16.3387
-16.2826
-16.2905
-16.3612
-16.4285
-16.466
-16.4856
-16.5223
-16.5757
-16.6167
-16.5997
-16.5395
-16.5201
-16.5553
-16.6409
-16.7775
-16.9598
-17.1865
-17.4818
-17.8173
-18.1843
-18.6781
-19.1712
-19.4953
-19.6772
-19.6172
-19.3762
-19.0016
-18.5966
-18.0997
-17.5481
-17.1521
-17.0016
-16.9554
-17.0427
-17.0746
-16.9977
-16.9163
-16.9702
-17.0834
-17.2702
-17.6294
-18.1589
-18.7351
-19.2333
-19.5744
-19.7157
-19.6333
-19.2923
-18.8037
-18.3626
-17.9796
-17.6213
-17.3306
-17.1638
-17.0926
-17.1013
-17.1293
-17.1531
-17.1817
-17.215
-17.2542
-17.3025
-17.367
-17.4456
-17.5366
-17.6398
-17.7229
-17.7947
-17.9329
-18.0945
-18.254
-18.4219
-18.5264
-18.5378
-18.4391
-18.2251
-17.9547
-17.585
-17.2343
-17.0123
-16.924
-16.9021
-16.9632
-17.016
-17.045
-17.0748
-17.1383
-17.1844
-17.1864
-17.1456
-17.0998
-17.0855
-17.1135
-17.1958
-17.332
-17.5176
-17.7572
-18.0764
-18.4488
-18.8613
-19.4212
-19.9418
-20.3136
-20.52
-20.4288
-20.1045
-19.687
-19.2802
-18.719
-18.052
-17.5969
-17.4292
-17.3116
-17.3659
-17.3907
-17.3483
-17.284
-17.2984
-17.4372
-17.6668
-18.0352
-18.5674
-19.1571
-19.6655
-20.0141
-20.1739
-20.1205
-19.811
-19.3232
-18.8845
-18.5237
-18.2097
-17.9447
-17.7895
-17.7263
-17.7066
-17.7068
-17.7162
-17.7369
-17.766
-17.8036
-17.8548
-17.9256
-18.0122
-18.1159
-18.238
-18.344
-18.4618
-18.6837
-18.9204
-19.1638
-19.4126
-19.5801
-19.6852
-19.6269
-19.32
-18.8926
-18.4178
-18.0049
-17.737
-17.6038
-17.5396
-17.5892
-17.619
-17.6432
-17.6882
-17.7474
-17.7649
-17.7496
-17.7197
-17.6907
-17.679
-17.7022
-17.7757
-17.9014
-18.077
-18.3138
-18.6384
-19.0234
-19.4528
-20.0521
-20.5917
-21.0283
-21.244
-21.1571
-20.7884
-20.3436
-19.8938
-19.2376
-18.4571
-17.9719
-17.8223
-17.7202
-17.759
-17.7792
-17.7739
-17.7353
-17.6981
-17.766
-17.956
-18.3074
-18.8212
-19.4018
-19.913
-20.2669
-20.4248
-20.3815
-20.1084
-19.675
-19.2598
-18.9484
-18.6958
-18.4896
-18.3705
-18.3305
-18.3021
-18.2742
-18.2705
-18.2844
-18.3094
-18.3453
-18.3985
-18.474
-18.5661
-18.6791
-18.815
-18.936
-19.0771
-19.3145
-19.6054
-19.9119
-20.2222
-20.534
-20.7583
-20.7366
-20.3843
-19.8193
-19.2488
-18.7945
-18.4915
-18.3144
-18.2097
-18.2244
-18.2329
-18.2561
-18.306
-18.3427
-18.3456
-18.3327
-18.3119
-18.293
-18.2856
-18.3027
-18.3621
-18.468
-18.6221
-18.8406
-19.1503
-19.5248
-19.9623
-20.5561
-21.1152
-21.5889
-21.8324
-21.7555
-21.3973
-20.9381
-20.3934
-19.6192
-18.7896
-18.3307
-18.2262
-18.1964
-18.2332
-18.252
-18.2607
-18.2569
-18.2166
-18.2211
-18.3267
-18.6027
-19.0398
-19.5576
-20.0291
-20.3546
-20.4828
-20.4221
-20.1804
-19.8357
-19.5121
-19.2938
-19.1141
-18.9729
-18.9044
-18.889
-18.8543
-18.8205
-18.8124
-18.8224
-18.8447
-18.8792
-18.9337
-19.0117
-19.1069
-19.2256
-19.3688
-19.4987
-19.6522
-19.8634
-20.1581
-20.5178
-20.9211
-21.3358
-21.6187
-21.6285
-21.2514
-20.6017
-20.0041
-19.5545
-19.2485
-19.0442
-18.9202
-18.8761
-18.8593
-18.8829
-18.9279
-18.9418
-18.9382
-18.9227
-18.9047
-18.8924
-18.8888
-18.8974
-18.9379
-19.0173
-19.1402
-19.3257
-19.599
-19.9421
-20.361
-20.8933
-21.4398
-21.9479
-22.2253
-22.1749
-21.8357
-21.3399
-20.6915
-19.8583
-19.0997
-18.7425
-18.6956
-18.7322
-18.7731
-18.7914
-18.7826
-18.7847
-18.7753
-18.78
-18.8455
-19.0565
-19.4163
-19.8486
-20.2114
-20.424
-20.4735
-20.3753
-20.1734
-19.9297
-19.7316
-19.6102
-19.5058
-19.4299
-19.4121
-19.4041
-19.3708
-19.347
-19.3415
-19.3506
-19.3715
-19.4051
-19.4599
-19.5381
-19.6343
-19.7572
-19.9091
-20.054
-20.2177
-20.3994
-20.6519
-20.9828
-21.3962
-21.8123
-22.1036
-22.1197
-21.7411
-21.1395
-20.6193
-20.2325
-19.966
-19.7791
-19.6649
-19.5829
-19.5335
-19.5323
-19.5523
-19.5483
-19.5366
-19.5117
-19.4893
-19.4806
-19.4799
-19.4778
-19.4941
-19.541
-19.6246
-19.7639
-19.9823
-20.2743
-20.634
-21.0574
-21.5266
-21.9936
-22.2828
-22.2819
-21.9837
-21.4602
-20.7839
-20.0303
-19.4561
-19.2419
-19.2419
-19.319
-19.3618
-19.3874
-19.3834
-19.3991
-19.4406
-19.4632
-19.5121
-19.6834
-19.9928
-20.3229
-20.5823
-20.6924
-20.6514
-20.4992
-20.3123
-20.1361
-20.0163
-19.9442
-19.9107
-19.8963
-19.9072
-19.8946
-19.8748
-19.8621
-19.8607
-19.8705
-19.8907
-19.9232
-19.9767
-20.0523
-20.1456
-20.2682
-20.434
-20.5984
-20.767
-20.9424
-21.13
-21.364
-21.6791
-22.0099
-22.2266
-22.2131
-21.9014
-21.4589
-21.0829
-20.8001
-20.6081
-20.4909
-20.4209
-20.3395
-20.2634
-20.2182
-20.1897
-20.1673
-20.1437
-20.1113
-20.081
-20.0671
-20.0652
-20.047
-20.0299
-20.0377
-20.0758
-20.1606
-20.3151
-20.5413
-20.8129
-21.1101
-21.4495
-21.7952
-22.0308
-22.0548
-21.8286
-21.3951
-20.8296
-20.2632
-19.8932
-19.7852
-19.8135
-19.916
-19.9364
-19.9736
-19.995
-20.0205
-20.0697
-20.1333
-20.2185
-20.3831
-20.6354
-20.8944
-21.075
-21.1095
-20.999
-20.8066
-20.6155
-20.475
-20.3892
-20.3416
-20.3542
-20.3849
-20.3944
-20.3849
-20.3761
-20.3712
-20.3732
-20.3839
-20.4034
-20.4344
-20.485
-20.5553
-20.6416
-20.7602
-20.9239
-21.1063
-21.2851
-21.4729
-21.6349
-21.7899
-21.9572
-22.1147
-22.2212
-22.1712
-21.9566
-21.6819
-21.449
-21.2769
-21.1676
-21.1421
-21.1466
-21.0911
-21.0003
-20.9354
-20.8769
-20.8425
-20.8203
-20.795
-20.7474
-20.6876
-20.656
-20.608
-20.5466
-20.5092
-20.5001
-20.5311
-20.6224
-20.7779
-20.9618
-21.148
-21.3634
-21.5926
-21.7624
-21.7903
-21.6586
-21.389
-21.0131
-20.6349
-20.4034
-20.3444
-20.3726
-20.4788
-20.4737
-20.4958
-20.5262
-20.5581
-20.6027
-20.6834
-20.8293
-21.0396
-21.2734
-21.4853
-21.6039
-21.5759
-21.426
-21.2116
-21.0191
-20.8917
-20.8231
-20.819
-20.8555
-20.8901
-20.8885
-20.8827
-20.8788
-20.8777
-20.8818
-20.8928
-20.9112
-20.9397
-20.9869
-21.049
-21.1249
-21.2299
-21.3802
-21.5647
-21.7561
-21.9456
-22.1267
-22.2676
-22.3587
-22.3998
-22.3734
-22.2681
-22.1061
-21.9328
-21.7959
-21.7048
-21.6633
-21.7092
-21.7991
-21.7985
-21.7038
-21.6253
-21.5865
-21.5505
-21.5462
-21.5386
-21.4732
-21.3508
-21.2443
-21.1497
-21.0404
-20.958
-20.9071
-20.8928
-20.9286
-21.0191
-21.137
-21.2522
-21.3829
-21.5277
-21.6529
-21.7167
-21.7007
-21.5918
-21.3852
-21.1409
-20.9781
-20.9283
-20.9372
-21.0222
-21.0179
-21.037
-21.0625
-21.0916
-21.1282
-21.2014
-21.366
-21.6028
-21.8377
-22.0311
-22.116
-22.0522
-21.8656
-21.6426
-21.4647
-21.357
-21.3301
-21.3592
-21.3938
-21.3981
-21.3912
-21.3858
-21.3828
-21.383
-21.3879
-21.3985
-21.4154