/*--------------------------------*- C++ -*----------------------------------*\
| =========                 |                                                 |
| \\      /  F ield         | OpenFOAM: The Open Source CFD Toolbox           |
|  \\    /   O peration     | Version:  2412                                  |
|   \\  /    A nd           | Website:  www.openfoam.com                      |
|    \\/     M anipulation  |                                                 |
\*---------------------------------------------------------------------------*/
FoamFile
{
    version     2.0;
    format      ascii;
    arch        "LSB;label=32;scalar=64";
    class       volScalarField;
    location    "1.5";
    object      alpha.oil;
}
// * * * * * * * * * * * * * * * * * * * * * * * * * * * * * * * * * * * * * //

dimensions      [0 0 0 0 0 0 0];

internalField   nonuniform List<scalar> 
6400
(
1
1
1
1
1
1
1
1
1
1
1
1
1
1
1
1
1
1
1
1
1
1
1
1
1
1
1
1
1
1
1
1
1
1
1
1
1
1
1
1
1
1
1
1
1
1
1
1
1
1
1
1
1
1
1
1
1
1
1
1
1
1
1
1
1
1
1
1
1
1
1
1
1
1
1
1
1
1
1
1
1
1
1
1
1
1
1
1
1
1
1
1
1
1
1
1
1
1
1
1
1
1
1
1
1
1
1
1
1
1
1
0.999999
0.999999
1
1
1
1
1
1
1
1
1
1
1
1
1
1
1
1
1
1
1
1
1
1
1
1
1
1
1
1
1
1
1
1
1
1
1
1
1
1
1
1
1
1
0.999999
0.999999
0.999999
0.999999
1
1
1
1
1
1
1
1
1
1
1
1
1
1
1
1
1
1
1
1
1
1
1
1
1
1
1
1
1
1
1
1
1
1
1
1
1
1
1
1
1
1
1
1
1
1
1
1
1
1
1
1
1
1
1
1
1
1
1
1
0.999999
1
1
1
0.999999
0.999999
1
1
1
1
1
1
0.999999
0.999999
0.999999
0.999999
1
1
1
0.999999
1
1
1
1
1
1
1
1
1
1
1
1
1
1
1
1
1
1
1
1
1
1
1
1
1
1
1
1
1
1
1
1
1
1
1
1
0.999999
0.999999
1
1
1
1
1
1
1
1
1
1
1
1
1
1
1
1
1
1
1
1
1
1
1
1
0.999999
1
1
1
1
1
0.999999
0.999999
1
1
1
1
1
1
1
1
1
1
1
1
1
1
1
1
1
1
1
1
1
1
1
1
1
1
1
1
1
1
1
1
1
1
1
1
1
1
1
1
1
1
1
1
1
1
1
1
1
1
1
0.999999
1
0.999999
1
1
1
1
1
1
1
1
1
1
1
1
1
1
1
1
1
1
1
1
1
1
0.999999
1
1
1
1
1
1
1
1
0.999999
0.999999
1
1
1
1
1
1
1
1
1
1
1
1
1
1
1
1
1
1
1
1
1
1
1
1
1
1
1
1
1
1
1
1
1
1
1
1
1
1
1
1
1
1
1
0.999999
1
1
1
1
1
1
1
1
1
1
1
1
1
1
1
1
1
1
1
1
1
1
1
1
1
1
1
1
1
1
1
1
1
1
1
1
1
1
1
1
1
1
1
1
1
1
1
1
1
1
1
1
1
1
1
1
1
1
1
1
1
1
1
1
1
1
1
1
1
1
1
1
1
1
1
1
1
1
1
1
1
1
1
1
1
1
1
1
1
1
1
1
1
1
1
1
1
1
1
1
1
1
1
1
1
1
1
1
1
1
1
1
1
1
1
1
1
1
1
1
1
1
1
1
1
1
1
1
1
1
1
1
1
1
1
1
1
1
1
1
1
1
1
1
1
1
1
1
1
1
1
1
1
1
1
1
1
1
1
1
1
1
1
0.999999
0.999999
0.999999
0.999999
1
1
1
1
1
1
1
1
1
1
1
1
1
1
1
1
1
1
1
1
1
1
1
1
1
1
1
1
1
1
1
1
1
1
1
1
1
1
1
1
1
1
1
1
1
1
1
1
1
1
1
1
1
1
1
1
1
1
1
1
1
1
1
1
1
1
1
1
1
1
1
1
0.999999
0.999999
0.999999
0.999999
0.999999
0.999999
1
1
1
1
1
0.999999
1
1
1
1
1
1
1
0.999999
0.999999
1
1
1
1
1
1
1
1
1
1
1
1
1
1
1
1
1
1
1
1
1
1
1
1
1
1
1
1
1
1
1
1
1
1
1
1
1
1
1
1
1
1
1
1
1
1
1
1
1
1
1
1
1
1
1
1
1
0.999999
0.999999
0.999999
0.999999
1
1
1
1
1
1
1
1
1
1
1
1
1
1
0.999999
0.999999
0.999999
1
1
1
1
1
1
1
1
1
1
1
1
1
1
1
1
1
1
1
1
1
1
1
1
1
1
1
1
1
1
1
1
1
1
1
1
1
1
1
1
1
1
1
1
1
1
1
1
1
1
1
1
1
1
1
1
1
1
1
1
1
1
1
1
1
1
1
1
1
1
0.999999
1
1
1
1
1
1
1
1
1
1
1
1
1
1
1
0.999999
0.999999
0.999999
0.999999
0.999999
1
1
1
1
1
1
1
1
1
1
1
1
1
1
1
1
1
1
1
1
1
1
1
1
1
1
1
1
1
1
1
1
1
1
1
0.999999
0.999999
0.999999
1
1
1
1
1
1
1
1
1
1
1
1
1
1
1
1
1
1
1
1
1
1
1
1
1
1
1
1
1
1
1
1
1
1
1
1
1
1
1
1
1
1
1
1
1
1
1
1
1
1
1
1
1
1
1
1
1
1
1
1
1
1
1
1
1
1
1
1
1
1
1
1
1
1
1
1
0.999999
0.999999
0.999999
1
1
1
1
1
1
1
1
1
1
1
1
1
1
1
1
1
1
1
1
1
1
1
1
1
1
1
1
1
0.999999
1
1
1
1
1
1
1
1
1
1
1
1
1
1
1
1
1
1
1
1
1
1
1
1
1
1
1
1
1
1
1
1
1
1
1
1
1
1
1
1
1
1
1
1
1
1
1
1
1
1
1
1
1
1
1
1
1
1
1
1
1
1
1
1
1
1
1
1
1
1
1
0.999999
0.999999
0.999999
1
1
1
1
1
1
1
1
1
1
0.999999
0.999999
1
1
1
1
1
1
1
1
1
1
1
1
1
0.999999
1
1
1
1
1
1
1
1
1
1
1
1
1
1
1
1
1
1
1
1
1
1
1
1
1
1
1
1
1
1
1
1
1
1
1
1
1
1
1
1
1
1
1
1
1
1
1
1
1
1
1
1
1
1
1
1
1
1
1
1
1
1
1
1
1
1
1
1
1
1
1
1
1
1
1
1
1
1
0.999999
1
1
0.999999
1
1
1
1
1
1
1
1
1
1
1
1
1
1
1
1
1
1
1
1
1
1
1
1
1
1
1
1
1
1
1
1
1
1
1
1
1
1
1
1
1
1
1
1
1
1
1
1
1
1
1
1
1
1
1
1
1
1
1
1
1
1
1
1
1
1
1
1
1
1
1
1
1
1
1
0.999999
0.999999
1
0.999999
0.999999
0.999999
1
1
1
1
1
1
1
1
1
1
1
1
1
1
1
1
1
1
1
1
1
1
1
1
1
1
1
1
1
1
1
1
1
1
1
1
1
1
1
1
1
1
1
1
1
1
1
1
1
1
1
1
1
1
1
1
1
1
1
1
1
1
1
1
1
1
1
1
1
1
1
1
1
1
0.999999
0.999999
0.999999
0.999999
0.999999
0.999999
1
1
1
1
1
1
1
1
1
1
1
1
1
1
1
1
1
1
1
1
1
1
1
1
1
1
0.999999
0.999999
0.999999
0.999999
0.999999
0.999999
1
1
1
1
1
1
1
1
1
1
1
1
1
1
1
1
1
1
1
0.999999
0.999999
0.999999
0.999999
0.999999
0.999999
1
1
1
1
1
1
1
1
1
1
1
1
1
1
1
1
1
1
1
0.999999
0.999999
0.999999
0.999999
1
1
1
1
1
1
1
1
1
1
1
1
1
1
1
1
1
1
1
1
0.999999
0.999997
0.999995
0.999991
0.999985
0.999977
0.999968
0.999957
0.999949
0.999946
0.99995
0.999923
0.999587
0.997218
0.996837
1
1
1
1
1
1
1
1
1
1
1
1
1
0.993747
0.9988
0.999715
0.999954
0.999945
0.999945
0.999951
0.999961
0.999971
0.999981
0.999988
0.999993
0.999996
0.999998
0.999999
1
1
1
1
1
1
1
1
1
1
1
1
1
1
1
0.999999
0.999999
1
1
1
1
1
1
1
1
1
1
1
1
1
1
1
0.999719
0.998633
0.996581
0.993498
0.98914
0.983063
0.974696
0.963361
0.948059
0.927869
0.901438
0.867065
0.823505
0.773983
0.719657
0.657945
0.613687
0.603767
0.565579
0.526448
0.551333
0.556295
0.56215
0.594796
0.61406
0.63515
0.642201
0.619822
0.599462
0.582436
0.557137
0.570312
0.547979
0.521823
0.591853
0.60481
0.627275
0.681711
0.743172
0.795276
0.843027
0.883352
0.9145
0.938205
0.956161
0.969752
0.979749
0.986975
0.992116
0.995687
0.998066
0.999437
0.999986
1
1
1
1
1
1
1
1
1
1
1
1
1
0.195681
0.254768
0.286117
0.306307
0.320042
0.330304
0.338752
0.346198
0.353009
0.359286
0.364955
0.369808
0.373522
0.375663
0.376027
0.374402
0.370013
0.362143
0.350659
0.335236
0.31502
0.288506
0.256678
0.222282
0.184763
0.145551
0.109671
0.0860465
0.0636298
0.0477389
0.053442
0.0828493
0.0943642
0.0614837
0.059066
0.0590157
0.0574696
0.0594538
0.0768403
0.0818252
0.076906
0.0878382
0.0770422
0.0553579
0.059337
0.0499881
0.0529158
0.0862718
0.100904
0.0708796
0.049453
0.0544163
0.0750494
0.0980064
0.125266
0.16411
0.204242
0.241527
0.275646
0.307256
0.334062
0.354049
0.368768
0.379208
0.385724
0.388919
0.38963
0.388417
0.385358
0.380924
0.375494
0.369315
0.362487
0.354922
0.346253
0.335645
0.321375
0.300341
0.267562
0.205465
1.90947e-05
6.11295e-06
8.97976e-06
1.01512e-05
1.05697e-05
1.044e-05
9.812e-06
8.75232e-06
7.33712e-06
5.67184e-06
3.96693e-06
2.81145e-06
4.49131e-06
7.02276e-06
9.47002e-06
9.46947e-06
1.01038e-05
1.27919e-05
1.92784e-05
2.49053e-05
2.60994e-05
2.64864e-05
4.02514e-05
0.000138434
0.000299366
0.000404672
0.000459416
0.00113199
0.0063854
0.020024
0.0280484
0.0287772
0.0429392
0.0662419
0.0561267
0.0135765
6.00768e-05
5.86772e-05
6.58635e-05
6.80976e-05
6.58944e-05
6.75197e-05
0.00024901
0.00107584
0.00219502
0.0186714
0.0628417
0.0635884
0.0342305
0.0287865
0.0270123
0.0169806
0.00481126
0.000825353
0.000605805
0.000533478
0.000394643
0.000209842
6.4273e-05
2.43628e-05
2.13042e-05
1.86623e-05
1.4119e-05
1.17171e-05
9.71815e-06
8.20524e-06
7.07466e-06
5.29091e-06
3.03115e-06
3.83646e-06
5.67443e-06
7.59625e-06
9.28629e-06
1.05972e-05
1.14283e-05
1.1697e-05
1.13416e-05
1.01104e-05
6.92531e-06
2.1222e-05
7.31218e-07
6.3328e-08
1.41156e-07
1.80309e-07
2.00253e-07
2.0622e-07
2.01376e-07
1.89679e-07
1.76428e-07
1.75883e-07
2.48495e-07
8.33685e-07
3.28535e-06
4.49299e-06
7.02089e-06
7.67504e-05
0.000539776
0.000953225
0.000799662
0.000172814
2.64864e-05
0.00129729
0.00826199
0.0100661
0.00684176
0.00425305
0.0188933
0.0340649
0.0340957
0.0320297
0.0120467
4.95238e-07
4.92653e-07
3.59571e-05
0.000541995
5.41268e-06
3.22697e-06
5.46519e-06
7.69796e-06
4.02551e-06
2.34882e-06
2.34068e-06
4.78222e-06
5.65452e-06
5.83665e-06
0.000630658
0.000103942
5.14999e-06
5.17052e-06
0.00236547
0.0215022
0.0355723
0.0356886
0.0355595
0.0124531
0.00463636
0.00981931
0.0115466
0.0112364
0.00393917
2.57114e-05
2.91289e-05
0.00047116
0.000414804
0.000171834
1.43211e-05
5.30001e-06
4.1759e-06
1.30335e-06
3.56308e-07
2.04426e-07
1.91286e-07
2.03865e-07
2.20218e-07
2.29972e-07
2.2731e-07
2.08052e-07
1.65458e-07
7.4469e-08
8.51849e-07
1.93355e-08
1.82784e-09
3.31114e-09
4.14272e-09
4.63482e-09
4.85818e-09
4.85952e-09
4.81312e-09
5.53812e-09
1.50347e-08
8.94848e-08
2.46911e-07
5.60138e-07
2.62525e-06
1.52595e-05
0.000393794
0.00285515
0.00323743
0.00324896
0.00209197
8.71788e-05
0.00282264
0.0099923
0.0101002
0.010064
0.00966901
0.00111042
1.0129e-07
1.02338e-07
1.0129e-07
1.14231e-07
3.35554e-06
7.6391e-06
6.13181e-06
1.57846e-08
7.59415e-08
2.78176e-07
2.34324e-06
6.09656e-06
4.07835e-06
2.33183e-06
1.23761e-06
2.48542e-06
3.22336e-06
2.0692e-06
9.41146e-07
8.11516e-06
2.05264e-05
1.98333e-05
1.60816e-06
1.49211e-06
1.51133e-06
1.52123e-06
1.70482e-06
0.00405418
0.0113212
0.0114803
0.0115604
0.0113295
0.00655597
0.000893918
0.00161023
0.00289753
0.00292528
0.00113272
2.62098e-05
4.67309e-06
9.08221e-07
3.3065e-07
1.71057e-07
2.99382e-08
7.48609e-09
5.59386e-09
5.62923e-09
5.75309e-09
5.60673e-09
5.11049e-09
4.14182e-09
2.30911e-09
2.4087e-08
6.74422e-10
5.64442e-11
1.00553e-10
1.26413e-10
1.44214e-10
1.55621e-10
1.64287e-10
1.98444e-10
5.71888e-10
3.75508e-09
1.24763e-08
6.80592e-08
5.05851e-07
3.72322e-06
2.97717e-05
0.00156215
0.00318704
0.00325224
0.00318704
0.0019546
3.4211e-05
7.91667e-08
7.85863e-08
1.18954e-07
2.8234e-06
4.99664e-08
4.34738e-08
2.88474e-07
3.17656e-07
2.54409e-07
2.79173e-07
4.72271e-07
2.18852e-07
8.8381e-10
1.01729e-09
1.67329e-09
4.19226e-08
2.91964e-06
6.16427e-06
5.96208e-06
1.07169e-06
1.06741e-06
2.59043e-06
3.37579e-06
3.16114e-06
7.53657e-07
6.72691e-09
1.46511e-06
1.25336e-05
1.89817e-05
1.9322e-05
1.93156e-05
1.93156e-05
5.1124e-06
7.83135e-07
4.78602e-07
4.71556e-06
5.17089e-07
5.37716e-07
5.75902e-07
0.000667297
0.00289753
0.00292711
0.00292528
0.00249085
0.000196141
6.86692e-06
9.73442e-07
1.32519e-07
2.29488e-08
7.59461e-09
1.31644e-09
3.27342e-10
2.22654e-10
2.08185e-10
1.94624e-10
1.71968e-10
1.37209e-10
7.71254e-11
8.89784e-10
3.75246e-11
3.63634e-12
5.9622e-12
7.15331e-12
8.4446e-12
9.56133e-12
1.09488e-11
1.81327e-11
9.04042e-11
4.98374e-10
2.96316e-09
2.43668e-08
1.94782e-07
2.798e-06
3.64471e-05
0.00021647
0.0010858
0.00204795
0.000572619
8.36704e-08
8.25804e-08
7.91668e-08
8.3251e-08
1.22515e-07
4.99631e-08
4.95046e-08
3.57955e-08
3.41012e-08
2.41389e-08
9.16189e-09
4.38014e-09
6.49572e-10
7.89032e-10
8.35472e-10
8.8381e-10
1.01729e-09
2.13183e-09
5.50314e-09
1.07272e-06
5.78284e-06
1.15206e-06
1.05238e-06
3.08871e-07
1.6829e-08
1.09472e-08
7.77504e-09
6.34934e-09
2.7793e-09
2.36134e-09
1.88545e-07
8.53858e-07
1.35739e-06
1.55404e-06
2.35609e-06
1.75306e-06
1.68918e-07
1.93839e-07
3.29883e-07
4.86586e-07
6.18164e-07
5.75902e-07
2.41184e-05
0.00165987
0.00151231
0.000351254
6.60453e-05
7.99805e-06
4.39281e-07
5.35281e-08
6.81907e-09
1.17433e-09
3.44382e-10
5.85201e-11
1.92501e-11
1.44722e-11
1.25844e-11
1.06382e-11
8.74377e-12
5.48904e-12
5.16563e-11
2.70979e-12
1.06334e-12
9.26439e-13
5.95302e-13
7.70182e-13
9.78341e-13
1.25988e-12
2.25277e-12
1.16558e-11
6.56767e-11
5.72063e-10
5.32133e-09
4.49871e-08
5.2773e-07
6.42652e-06
6.44328e-05
0.000128894
3.68782e-06
3.43022e-06
3.81388e-06
2.48427e-07
8.3251e-08
8.36354e-08
8.74776e-08
7.47864e-08
4.42925e-08
1.96548e-08
6.22476e-09
3.15225e-09
5.18806e-10
4.71673e-10
6.88659e-10
7.59329e-10
8.19239e-10
1.29681e-09
9.51547e-09
2.26912e-08
9.72722e-09
1.06146e-08
2.49943e-06
6.10799e-07
8.97004e-08
2.09798e-08
1.50404e-08
1.4104e-08
1.71442e-08
1.77601e-08
1.41311e-08
1.73284e-09
8.39673e-10
1.25627e-09
4.82051e-09
1.19613e-08
1.85745e-08
5.88166e-08
1.28801e-07
1.69041e-07
2.44101e-07
4.65907e-07
7.16876e-07
1.20175e-06
1.17096e-06
1.23918e-06
0.000118871
0.000118559
1.50375e-05
1.94149e-06
1.84797e-07
1.96065e-08
2.30242e-09
3.25862e-10
5.93613e-11
1.70101e-11
3.83968e-12
1.94707e-12
1.42222e-12
1.06383e-12
1.33206e-12
1.70929e-12
4.17748e-12
8.01552e-13
1.65195e-13
2.40225e-13
2.99774e-13
4.10689e-13
5.58866e-13
7.41263e-13
8.87409e-13
2.01632e-12
1.26249e-11
1.38149e-10
1.51931e-09
1.50484e-08
1.34267e-07
1.11732e-06
0.000122766
0.000386417
0.000382982
7.472e-05
3.54222e-07
1.92224e-07
8.57717e-08
8.74611e-08
8.33033e-07
8.81566e-07
1.00892e-07
9.71456e-08
1.83708e-08
6.23417e-09
1.60178e-08
4.09053e-10
6.82463e-10
8.49246e-10
6.64596e-10
9.79031e-10
1.68287e-08
4.55303e-08
1.0096e-08
1.0087e-08
5.90733e-08
8.95354e-08
4.34414e-08
3.84868e-07
5.03137e-08
1.31121e-08
2.17071e-08
1.48756e-08
2.33758e-09
3.44353e-10
4.91667e-10
4.44279e-08
6.81385e-08
1.85745e-08
5.10062e-08
1.2228e-07
4.2352e-07
3.32545e-07
1.00046e-06
1.50007e-06
8.29501e-07
1.09054e-06
1.23918e-06
0.000218238
0.000437728
0.000290561
9.1256e-06
4.59063e-07
6.01484e-08
7.21479e-09
8.98004e-10
1.304e-10
3.4345e-11
8.68721e-12
2.25666e-12
1.23134e-12
8.48755e-13
5.96087e-13
4.53564e-13
3.17744e-13
1.30518e-12
1.10197e-13
1.38592e-14
2.96237e-14
5.54125e-14
8.81917e-14
1.3822e-13
2.12677e-13
3.30312e-13
7.50524e-13
4.2863e-12
5.40868e-11
7.07086e-10
8.22517e-09
8.59994e-08
8.30219e-07
9.80182e-05
0.000386417
0.000419415
9.63804e-05
6.89029e-07
3.54209e-07
1.92211e-07
2.81141e-07
3.93922e-06
3.93185e-05
5.01699e-05
1.66847e-05
7.39737e-08
6.05566e-08
2.31098e-07
3.23967e-10
3.06e-10
6.17248e-10
4.5423e-10
2.40065e-09
3.01684e-08
4.56125e-08
6.19618e-09
7.84929e-07
8.00026e-07
5.1417e-08
4.25435e-08
3.94556e-07
3.41614e-08
4.27401e-09
1.94451e-08
2.54845e-09
3.44353e-10
3.31116e-10
7.68946e-10
1.18457e-07
1.03503e-07
1.37347e-07
1.99315e-07
1.67345e-05
1.23242e-05
2.47768e-06
1.02201e-06
1.28367e-05
4.00898e-06
1.30696e-06
1.42518e-06
0.00019816
0.000505665
0.000260725
6.94633e-06
3.81913e-07
4.31103e-08
4.40755e-09
4.72577e-10
6.31187e-11
2.03646e-11
4.00777e-12
8.33447e-13
3.88327e-13
2.28962e-13
1.37488e-13
7.22099e-14
3.23692e-14
2.08506e-13
8.4105e-15
1.04271e-15
2.38784e-15
4.76786e-15
9.02121e-15
1.68363e-14
3.10346e-14
5.46384e-14
1.53746e-13
1.53432e-12
1.68325e-11
2.37234e-10
3.03532e-09
3.42947e-08
3.6761e-07
4.7288e-06
0.000146155
0.000441053
4.12791e-05
1.23021e-06
7.71823e-06
1.88541e-05
1.43106e-05
1.14379e-05
0.000102292
0.000128906
0.000121422
2.35797e-06
9.85636e-08
2.39086e-07
3.01789e-10
2.80741e-10
3.41787e-10
3.32201e-10
4.38521e-09
4.35415e-08
4.43249e-08
1.6118e-09
4.50156e-06
4.55411e-06
2.65047e-07
3.13367e-08
3.94556e-07
1.9434e-08
1.56954e-09
9.34755e-10
6.32122e-10
3.41574e-10
3.2676e-10
5.69191e-09
8.6606e-08
2.78159e-08
4.28542e-08
5.61686e-05
0.000161361
0.000127576
2.3103e-05
2.4289e-05
0.000138317
0.00012531
1.0291e-05
3.29643e-06
0.000118473
0.000526811
0.000143975
2.01496e-06
2.33684e-07
2.5437e-08
2.4037e-09
2.55776e-10
3.18291e-11
1.1831e-11
1.64098e-12
2.01164e-13
6.36029e-14
2.97411e-14
1.47481e-14
6.83583e-15
2.79057e-15
1.87624e-14
6.31344e-16
8.63901e-17
1.99493e-16
3.93749e-16
8.0805e-16
1.70299e-15
3.10335e-15
1.39002e-15
1.20925e-14
1.76219e-13
3.23942e-12
5.56392e-11
8.58175e-10
1.17643e-08
1.44732e-07
1.59041e-06
0.000185534
0.000698042
3.43076e-05
2.68614e-06
1.61149e-05
0.000113796
0.000125219
0.000127248
0.000129513
0.000129616
0.000128906
2.13741e-05
4.88568e-08
1.67318e-07
2.75365e-10
2.75878e-10
2.98102e-10
3.11573e-10
2.84899e-09
3.37455e-08
1.12443e-08
1.59647e-09
4.55419e-06
4.55404e-06
9.788e-07
3.94211e-09
7.16762e-08
2.35341e-08
3.65345e-09
3.76962e-10
3.60373e-10
3.68145e-10
3.32917e-10
2.57413e-10
2.65438e-10
6.81487e-10
2.07626e-08
0.000159709
0.000162825
0.000163192
0.000163685
0.000163076
0.000158178
0.000152908
2.26561e-05
8.17342e-06
0.00013201
0.000898612
0.000191965
1.65911e-06
1.54833e-07
1.35069e-08
1.18194e-09
1.25555e-10
2.53679e-11
6.32403e-12
5.55211e-13
4.23049e-14
8.1332e-15
3.06784e-15
1.37414e-15
6.35708e-16
2.58229e-16
1.58632e-15
5.28638e-17
7.64908e-18
1.81093e-17
3.68042e-17
7.95436e-17
1.77973e-16
2.99306e-16
1.3377e-16
1.39002e-15
2.52794e-14
5.6163e-13
1.19237e-11
2.35079e-10
4.29064e-09
7.39562e-08
1.79629e-06
0.000426199
0.000862929
0.000425464
5.04028e-06
9.74154e-06
2.95449e-05
5.15682e-05
0.000129275
0.000129616
0.000129275
7.32129e-05
5.78729e-07
2.36558e-09
2.91486e-10
2.36106e-10
2.21967e-10
2.59407e-10
3.73252e-10
1.77074e-09
6.40423e-09
1.56919e-09
1.57361e-09
4.42745e-06
4.55456e-06
2.94987e-06
3.15868e-09
3.95607e-09
6.92925e-08
4.75849e-08
6.72995e-10
3.51835e-10
3.61446e-10
2.55887e-10
2.1637e-10
2.42638e-10
1.81608e-09
4.52754e-06
6.87549e-05
0.000163192
0.000163685
0.000163685
0.000163685
0.000142275
3.75077e-05
2.10183e-05
1.35501e-05
0.000685587
0.000929887
0.000418694
1.37796e-06
9.51396e-08
6.42676e-09
4.66694e-10
5.12768e-11
2.06264e-11
2.98721e-12
1.68534e-13
9.24614e-15
1.09259e-15
3.35915e-16
1.41956e-16
6.4375e-17
2.5587e-17
1.47568e-16
4.67484e-18
6.94316e-19
1.69459e-18
3.59924e-18
8.23507e-18
1.9305e-17
3.0397e-17
1.10033e-17
1.3377e-16
2.74296e-15
6.98975e-14
1.74169e-12
4.11999e-11
9.26868e-10
8.62346e-08
3.89774e-06
0.000424481
0.000867676
0.000873414
0.000455023
2.59365e-05
3.1888e-05
3.78498e-05
6.41798e-05
0.000129275
0.000103777
2.20056e-06
3.8814e-08
3.72419e-09
3.13104e-10
1.73135e-10
1.81799e-10
2.14683e-10
3.78038e-10
4.08182e-09
1.56919e-09
1.55427e-09
1.56919e-09
3.91897e-06
4.54915e-06
4.05033e-06
2.8428e-09
1.83157e-08
6.93052e-08
6.93052e-08
6.02933e-10
3.50069e-10
3.50277e-10
1.99016e-10
1.03383e-10
1.65154e-10
2.97902e-09
4.97139e-08
1.27491e-06
0.000118699
0.000163192
0.000163685
0.000115326
4.58093e-05
4.56778e-05
9.25257e-05
0.00070155
0.000938418
0.000929824
0.000365704
3.11777e-06
1.20413e-07
3.25746e-09
1.45243e-10
5.33056e-11
1.16814e-11
8.97937e-13
4.35429e-14
1.99635e-15
1.59538e-16
3.94179e-17
1.55431e-17
6.75815e-18
2.60238e-18
1.45402e-17
4.20089e-19
6.34176e-20
1.58944e-19
3.50971e-19
8.45524e-19
2.09197e-18
3.38168e-18
9.42244e-19
1.10033e-17
2.16747e-16
5.6876e-15
1.50118e-13
3.79935e-12
9.28577e-11
5.2735e-08
1.39858e-07
0.000197316
0.000853837
0.000873414
0.000873414
0.000842322
0.000707697
0.000374625
4.51585e-05
1.50723e-06
2.5848e-07
6.94065e-08
5.28314e-09
6.27371e-10
1.57907e-10
1.22912e-10
1.61198e-10
1.83068e-10
3.61477e-10
5.00198e-09
3.54001e-09
1.53913e-09
1.54993e-09
4.24312e-06
4.48958e-06
1.24015e-06
2.67387e-09
3.65834e-08
6.93052e-08
4.80103e-08
3.4543e-10
3.44498e-10
3.41307e-10
1.71244e-10
5.8206e-11
6.12258e-11
2.58788e-10
4.58536e-09
4.76419e-08
2.62804e-07
2.0333e-05
3.83698e-05
4.10505e-05
0.000118356
0.000582071
0.000914277
0.000938418
0.0009316
0.000702396
0.000122087
1.44344e-06
1.20731e-07
4.57946e-09
2.01733e-10
3.85039e-11
3.49058e-12
1.90921e-13
8.79497e-15
3.65353e-16
2.27414e-17
4.63419e-18
1.70147e-18
7.09148e-19
2.65476e-19
1.45729e-18
3.77882e-20
5.77266e-21
1.47824e-20
3.36729e-20
8.42904e-20
2.2155e-19
4.12283e-19
9.90677e-20
9.42244e-19
1.74771e-17
4.658e-16
1.36056e-14
3.68885e-13
-2.13574e-12
2.87316e-10
1.59478e-08
4.39073e-06
0.000122535
0.000589854
0.000860379
0.000847345
0.000847345
0.00055217
8.99718e-05
1.64591e-06
2.3863e-07
3.64447e-08
3.56832e-09
5.22372e-10
7.5894e-11
5.96505e-11
1.17128e-10
1.65744e-10
2.46016e-10
5.01672e-09
5.12041e-09
1.47376e-09
1.50229e-09
2.47899e-06
1.14749e-06
2.67387e-09
2.5772e-09
2.0896e-08
4.91411e-08
1.32989e-09
3.47123e-10
3.49209e-10
3.30161e-10
1.45221e-10
4.31597e-11
3.33282e-11
-2.85758e-11
9.55617e-10
7.14914e-09
4.46799e-08
2.33567e-07
1.31912e-06
4.15523e-05
0.000284218
0.000864544
0.000903969
0.000824494
0.000447427
4.3082e-05
8.31517e-07
7.20944e-08
8.4115e-09
9.3672e-10
1.08005e-10
1.11781e-11
6.15743e-13
3.01108e-14
1.31536e-15
5.17254e-17
2.89051e-18
5.25556e-19
1.82439e-19
7.33672e-20
2.68707e-20
1.45919e-19
3.37301e-21
5.19245e-22
1.35271e-21
3.15819e-21
8.11999e-21
2.23389e-20
4.89482e-20
2.19712e-20
2.2233e-19
1.42907e-17
6.78935e-16
2.1648e-14
3.86695e-13
7.25439e-13
1.2503e-11
3.25774e-10
6.58145e-08
1.97112e-06
2.04546e-05
0.00010773
0.0002741
0.000216982
9.96985e-05
3.66817e-05
2.95254e-06
6.91164e-09
1.16185e-09
1.82699e-10
-2.68189e-10
2.03985e-11
3.39237e-11
8.39788e-11
1.5886e-10
1.59075e-10
3.19613e-09
5.03668e-09
1.41958e-09
8.58324e-08
3.43068e-09
2.76347e-09
2.54662e-09
2.56869e-09
1.03601e-09
3.7968e-10
3.65575e-10
3.66185e-10
3.52821e-10
3.0558e-10
1.22626e-10
2.97299e-11
6.55424e-12
3.6055e-12
-6.0735e-11
3.65201e-10
2.02341e-09
1.19943e-08
1.40831e-05
5.22902e-05
9.49137e-05
0.000153376
0.000206975
6.07403e-05
6.3877e-06
1.39082e-06
7.52543e-08
2.36741e-09
1.55379e-10
1.8741e-11
1.90771e-11
1.45299e-12
7.23142e-14
3.46277e-15
1.45834e-16
5.6151e-18
3.15754e-19
5.6613e-20
1.89971e-20
7.42657e-21
2.67621e-21
1.44593e-20
2.95241e-22
4.68677e-23
1.20741e-22
2.87783e-22
7.56007e-22
2.15389e-21
5.29816e-21
7.0435e-21
8.87907e-20
3.85746e-18
2.33669e-16
8.1378e-15
1.95956e-13
1.07636e-13
-1.66684e-11
6.3983e-11
8.08141e-09
2.47884e-07
5.18801e-07
6.22253e-07
5.21667e-07
6.10676e-07
5.18706e-07
1.19091e-08
2.30087e-09
4.24929e-10
9.07083e-11
2.83835e-11
1.62585e-11
1.83159e-11
3.14578e-11
5.81511e-11
1.416e-10
2.16626e-10
9.14964e-10
2.61009e-09
1.39385e-09
2.21489e-08
2.97293e-09
3.17953e-09
2.48374e-09
2.46237e-09
1.13317e-09
6.92056e-10
5.07129e-10
3.96606e-10
3.04784e-10
2.57007e-10
9.32007e-11
2.73232e-11
1.03759e-11
4.6482e-12
5.53861e-12
1.38712e-11
6.9815e-11
5.23145e-10
1.8727e-09
1.79151e-08
5.62459e-07
3.0315e-07
6.40992e-07
6.3674e-07
4.41994e-07
1.84654e-07
1.04426e-08
2.00597e-10
4.86635e-12
3.41569e-12
2.3565e-12
1.46287e-13
7.35378e-15
3.42754e-16
1.37807e-17
5.16133e-19
3.04485e-20
5.73926e-21
1.90329e-21
7.29292e-22
2.66751e-22
1.40004e-21
2.50858e-23
4.25318e-24
1.04423e-23
2.53293e-23
6.7671e-23
1.9773e-22
5.17354e-22
9.59672e-22
1.29427e-20
4.02247e-19
2.01991e-17
7.74547e-16
2.66446e-14
5.5279e-14
4.49366e-13
4.32849e-11
1.32997e-09
2.39775e-08
4.66826e-08
4.64055e-08
2.82126e-08
6.69586e-08
6.90944e-08
8.18493e-10
1.01083e-10
5.80249e-11
3.94798e-11
2.09049e-11
1.49247e-11
1.76099e-11
2.20611e-11
3.96075e-11
1.23142e-10
3.03442e-10
4.27971e-10
8.25745e-10
1.35205e-09
1.3034e-09
1.3034e-09
1.84422e-07
2.62921e-09
2.48374e-09
3.46768e-09
3.86972e-09
2.07608e-09
3.84613e-10
2.18305e-10
1.951e-10
6.54925e-11
2.19468e-11
8.66068e-12
5.09303e-12
3.54581e-12
4.67544e-12
8.19811e-12
-3.65696e-11
1.40501e-10
5.82597e-09
5.04409e-08
2.16413e-08
4.05728e-08
5.1871e-08
4.47605e-08
1.62435e-08
1.60477e-09
6.32087e-11
3.19096e-12
1.34203e-12
2.32019e-13
1.41623e-14
7.22019e-16
3.26812e-17
1.27154e-18
4.67227e-20
2.8544e-21
5.56263e-22
1.83269e-22
6.91844e-23
2.6571e-23
1.31174e-22
2.05598e-24
3.78409e-25
8.71991e-25
2.14274e-24
5.79326e-24
1.72273e-23
4.67724e-23
8.97923e-23
1.12623e-21
3.43555e-20
1.42687e-18
5.49634e-17
1.83416e-15
3.5033e-14
1.12287e-13
4.64994e-12
1.47438e-10
2.14553e-09
3.42223e-09
2.93973e-09
1.32629e-09
3.32169e-09
2.36314e-09
4.41516e-10
4.83447e-11
4.00809e-11
4.28203e-11
3.003e-11
9.46742e-12
6.67404e-12
1.184e-11
2.95066e-11
1.16954e-10
3.20234e-10
3.70343e-10
1.68262e-09
2.1174e-09
1.29992e-09
3.03845e-08
1.5139e-06
7.14265e-08
2.62921e-09
3.69365e-09
5.22285e-09
3.90038e-09
3.42434e-10
1.6547e-10
1.49605e-10
5.02039e-11
1.54422e-11
5.76778e-12
3.52626e-12
3.48043e-12
5.25055e-12
6.82651e-12
8.87003e-12
1.45708e-11
5.60228e-10
2.08931e-09
9.2778e-10
2.20742e-09
3.75565e-09
2.79606e-09
1.81844e-09
1.70512e-10
7.24636e-12
4.8563e-13
2.32512e-13
2.07285e-14
1.30003e-15
6.62366e-17
2.95827e-18
1.134e-19
4.13809e-21
2.5948e-22
5.15944e-23
1.69272e-23
6.32552e-24
2.58767e-24
1.1816e-23
1.61605e-25
3.24572e-26
7.00781e-26
1.73521e-25
4.72612e-25
1.42118e-24
3.96319e-24
7.69085e-24
8.63952e-23
2.63451e-21
1.04614e-19
3.8296e-18
1.19479e-16
4.48875e-15
1.83944e-14
6.41866e-13
1.76729e-11
1.49503e-10
2.32667e-10
2.07751e-10
9.54042e-11
1.77511e-10
1.53465e-10
9.06723e-11
5.32041e-11
2.63522e-11
8.839e-12
2.05511e-12
1.63036e-12
3.20772e-12
9.38023e-12
2.68854e-11
1.1781e-10
2.05806e-10
4.68786e-10
6.58712e-09
3.42029e-09
1.32301e-09
8.52838e-07
1.53763e-06
8.65636e-07
1.25351e-08
1.90057e-09
5.16125e-09
4.13505e-09
3.34736e-10
1.50327e-10
1.24654e-10
4.35365e-11
1.22692e-11
3.76489e-12
1.39912e-12
9.45032e-13
1.15645e-12
3.44227e-12
9.46068e-12
1.86868e-11
4.4694e-11
7.52079e-11
3.04126e-11
1.0748e-10
1.57419e-10
2.46922e-10
1.37573e-10
1.64764e-11
1.06194e-12
9.98787e-14
1.89645e-14
1.70351e-15
1.08849e-16
5.58144e-18
2.49057e-19
9.50279e-21
3.47179e-22
2.24115e-23
4.55404e-24
1.49325e-24
5.55343e-25
2.42616e-25
1.01737e-24
1.21219e-26
2.66475e-27
5.40121e-27
1.34038e-26
3.66337e-26
1.10793e-25
3.15017e-25
6.22931e-25
6.36269e-24
1.89226e-22
7.40801e-21
2.59119e-19
7.57086e-18
1.65407e-16
1.7571e-15
5.38849e-14
1.58827e-12
1.36304e-11
1.96441e-11
1.5197e-11
1.17697e-11
2.66293e-11
2.60757e-11
1.70793e-11
7.9996e-12
2.5689e-12
5.31914e-13
3.44783e-13
6.9057e-13
2.5831e-12
8.75395e-12
2.67315e-11
1.23494e-10
1.28583e-10
1.63178e-09
8.1555e-09
2.58378e-09
1.54785e-09
1.53503e-06
1.53817e-06
1.53661e-06
1.34389e-07
1.69204e-09
2.70826e-09
3.44613e-09
4.65799e-10
1.4798e-10
1.08106e-10
4.23777e-11
1.11545e-11
2.94822e-12
8.29655e-13
3.16843e-13
2.46737e-13
5.93577e-13
1.92617e-12
4.49496e-12
7.93274e-12
1.03809e-11
7.81986e-12
5.82176e-12
1.13367e-11
1.41966e-11
1.41726e-11
2.20921e-12
1.11221e-13
9.96173e-15
1.24294e-15
1.25998e-16
8.25274e-18
4.31182e-19
1.94212e-20
7.44093e-22
2.74245e-23
1.831e-24
3.81155e-25
1.2533e-25
4.66437e-26
2.17378e-26
8.33132e-26
8.64203e-28
2.08537e-28
3.97899e-28
9.84515e-28
2.69081e-27
8.1464e-27
2.34558e-26
4.7247e-26
4.43437e-25
1.26926e-23
4.81102e-22
1.60779e-20
4.35548e-19
7.13309e-18
1.17284e-16
3.92344e-15
1.11558e-13
7.41246e-13
1.01355e-12
3.38377e-12
5.38983e-12
4.78367e-12
3.08039e-12
1.44119e-12
4.57043e-13
8.95872e-14
5.81146e-14
1.32591e-13
5.73374e-13
2.50454e-12
9.32692e-12
3.27045e-11
1.27237e-10
1.27089e-10
2.63144e-09
8.15963e-09
4.71346e-10
5.05621e-08
1.5251e-06
1.53661e-06
8.91006e-07
3.18061e-07
1.63106e-09
1.60067e-09
3.3702e-09
1.13438e-09
1.62123e-10
9.8529e-11
5.10294e-11
1.1404e-11
2.72367e-12
6.63801e-13
1.56801e-13
5.19066e-14
4.28122e-14
1.62255e-13
5.78553e-13
1.39492e-12
2.54753e-12
3.43962e-12
3.27803e-12
1.06229e-12
1.29385e-12
8.65169e-13
1.69126e-13
8.83701e-15
6.67949e-16
7.78813e-17
8.37218e-18
5.6923e-19
3.06222e-20
1.40442e-21
5.44522e-23
2.03803e-24
1.41227e-25
3.01694e-26
9.97757e-27
3.73561e-27
1.85294e-27
6.46384e-27
5.83591e-29
1.55011e-29
2.79282e-29
6.85645e-29
1.86831e-28
5.63953e-28
1.63428e-27
3.3313e-27
2.87727e-26
7.865e-25
2.84571e-23
8.96446e-22
2.20034e-20
3.31341e-19
7.57112e-18
2.53055e-16
6.80075e-15
4.29677e-14
1.8228e-13
3.6037e-13
4.9909e-13
3.40305e-13
1.52155e-13
4.63603e-14
9.36154e-15
7.85206e-15
2.24641e-14
1.21537e-13
5.95743e-13
3.0759e-12
1.5272e-11
4.37483e-11
1.44703e-10
1.34129e-10
2.47016e-09
7.55952e-09
3.61491e-10
1.27129e-07
1.50921e-06
3.99904e-07
8.03967e-08
4.0144e-07
2.52377e-09
1.50456e-09
3.66414e-09
2.40348e-09
1.73392e-10
9.65987e-11
6.73526e-11
1.55644e-11
2.84682e-12
6.48309e-13
1.39791e-13
2.53757e-14
6.46653e-15
4.97793e-15
1.97357e-14
7.08305e-14
1.79627e-13
3.35599e-13
4.25864e-13
2.98926e-13
2.13525e-13
4.93479e-14
1.1369e-14
6.24514e-16
4.08838e-17
4.38735e-18
5.02413e-19
3.58536e-20
2.00364e-21
9.42891e-23
3.7247e-24
1.42369e-25
1.02658e-26
2.25329e-27
7.51461e-28
2.84414e-28
1.49725e-28
4.73615e-28
3.72185e-30
1.09099e-30
1.86216e-30
4.51614e-30
1.22357e-29
3.66985e-29
1.06472e-28
2.1812e-28
1.73293e-27
4.49249e-26
1.53816e-24
4.49699e-23
9.64846e-22
2.0216e-20
4.62319e-19
1.45271e-17
3.66241e-16
1.90541e-15
1.04568e-14
1.50576e-14
1.39042e-14
9.38723e-15
3.83306e-15
9.12922e-16
9.65022e-16
3.59255e-15
2.63196e-14
1.55626e-13
7.56745e-13
4.84201e-12
2.42545e-11
5.11469e-11
1.50548e-10
4.0608e-10
1.48702e-09
2.04157e-09
3.3719e-10
2.99628e-08
1.36376e-06
7.28006e-08
7.72704e-08
4.0187e-07
6.76379e-09
1.2299e-09
3.66414e-09
2.66362e-09
1.96253e-10
9.68018e-11
7.42144e-11
2.04429e-11
3.87974e-12
7.53432e-13
1.58552e-13
2.64172e-14
3.76328e-15
7.78056e-16
5.14986e-16
1.72962e-15
5.72063e-15
1.15795e-14
1.62462e-14
1.92947e-14
1.32562e-14
2.38057e-15
6.04675e-16
3.64109e-17
2.31555e-18
2.19609e-19
2.73401e-20
2.06718e-21
1.20961e-22
5.88038e-24
2.38066e-25
9.33763e-27
7.02023e-28
1.58481e-28
5.34189e-29
2.05282e-29
1.14336e-29
3.26835e-29
2.23593e-31
7.25092e-32
1.17631e-31
2.80713e-31
7.54383e-31
2.24162e-30
6.48158e-30
1.32698e-29
9.69869e-29
2.36919e-27
7.61542e-26
2.03515e-24
3.77452e-23
1.16229e-21
2.51997e-20
7.24379e-19
1.63823e-17
7.14188e-17
2.81692e-16
4.45496e-16
3.61788e-16
2.07427e-16
7.74978e-17
1.08173e-16
6.18362e-16
5.11661e-15
3.68135e-14
1.94009e-13
9.51368e-13
6.06023e-12
2.83839e-11
5.2616e-11
1.50568e-10
6.5902e-10
9.64189e-10
3.41989e-10
3.3719e-10
3.3719e-10
1.45807e-07
7.24289e-08
7.86913e-08
3.92298e-07
1.22258e-09
1.19945e-09
2.36749e-09
1.35525e-09
2.22459e-10
1.01005e-10
6.46913e-11
2.24738e-11
4.99648e-12
9.3539e-13
1.93939e-13
3.5701e-14
5.02256e-15
6.19267e-16
9.45769e-17
5.05564e-17
1.2594e-16
3.10573e-16
4.58496e-16
5.68882e-16
4.26455e-16
9.75395e-17
2.54958e-17
1.70798e-18
1.17254e-19
1.08721e-20
1.35012e-21
1.09336e-22
6.74617e-24
3.40784e-25
1.42112e-26
5.74344e-28
4.50921e-29
1.04776e-29
3.57679e-30
1.40102e-30
8.22989e-31
2.11919e-30
1.2626e-32
4.54053e-33
7.02266e-33
1.64336e-32
4.37116e-32
1.2836e-31
3.68457e-31
7.50341e-31
5.04807e-30
1.15531e-28
3.4595e-27
8.30199e-26
1.94702e-24
5.57517e-23
1.23704e-21
2.73555e-20
5.35457e-19
2.52607e-18
7.39743e-18
1.19911e-17
8.64209e-18
5.14095e-18
1.07774e-17
8.52622e-17
7.87153e-16
6.2519e-15
4.2319e-14
2.11677e-13
1.03751e-12
6.19206e-12
2.50005e-11
4.69567e-11
1.32713e-10
6.22951e-10
6.9438e-10
4.37644e-10
3.40335e-10
3.60111e-10
3.93031e-10
1.21722e-08
2.79426e-08
3.52391e-08
1.32203e-09
1.07951e-09
2.44876e-10
3.62336e-10
1.92024e-10
1.16754e-10
4.83466e-11
1.87529e-11
5.45996e-12
1.02936e-12
2.10677e-13
4.11323e-14
6.15678e-15
7.89651e-16
8.72139e-17
1.04648e-17
4.20794e-18
6.45995e-18
1.25653e-17
1.69016e-17
1.28963e-17
3.71306e-18
9.46663e-19
7.10257e-20
5.35372e-21
5.31641e-22
6.20547e-23
5.31611e-24
3.48002e-25
1.83581e-26
7.9197e-28
3.30949e-29
2.7165e-30
6.50069e-31
2.25162e-31
9.0203e-32
5.57188e-32
1.28849e-31
6.68937e-34
2.67392e-34
3.95357e-34
9.04504e-34
2.37674e-33
6.88257e-33
1.95471e-32
3.9436e-32
2.44436e-31
5.21525e-30
1.4446e-28
3.02477e-27
9.61783e-26
2.23135e-24
5.2033e-23
8.92795e-22
1.50778e-20
7.82643e-20
1.84141e-19
2.68867e-19