/*--------------------------------*- C++ -*----------------------------------*\
| =========                 |                                                 |
| \\      /  F ield         | OpenFOAM: The Open Source CFD Toolbox           |
|  \\    /   O peration     | Version:  2412                                  |
|   \\  /    A nd           | Website:  www.openfoam.com                      |
|    \\/     M anipulation  |                                                 |
\*---------------------------------------------------------------------------*/
FoamFile
{
    version     2.0;
    format      ascii;
    arch        "LSB;label=32;scalar=64";
    class       volScalarField;
    location    "26";
    object      alpha.lava;
}
// * * * * * * * * * * * * * * * * * * * * * * * * * * * * * * * * * * * * * //

dimensions      [0 0 0 0 0 0 0];

internalField   nonuniform List<scalar> 
6400
(
0.999993
0.999897
0.999896
0.999894
0.999904
0.999905
0.999911
0.999918
0.99993
0.999933
0.999936
0.999941
0.999944
0.999947
0.99995
0.999955
0.999956
0.99995
0.999945
0.999943
0.999943
0.999947
0.999953
0.999958
0.999963
0.999967
0.999969
0.999971
0.999973
0.999976
0.999979
0.999981
0.999983
0.999983
0.999981
0.99998
0.999979
0.99998
0.999981
0.999983
0.999987
0.999992
0.999997
1
1.00001
1.00001
1.00002
1.00003
1.00003
1.00004
1.00004
1.00005
1.00005
1.00005
1.00005
1.00005
1.00005
1.00005
1.00005
1.00005
1.00005
1.00005
1.00005
1.00006
1.00006
1.00006
1.00006
1.00006
1.00007
1.00007
1.00006
1.00006
1.00006
1.00006
1.00005
1.00005
1.00005
1.00005
1.00005
1.00005
0.999894
0.999801
0.999823
0.999829
0.999844
0.999844
0.999855
0.99986
0.999873
0.999882
0.999889
0.999894
0.999897
0.999902
0.9999
0.999895
0.999893
0.999891
0.999891
0.999892
0.999892
0.999893
0.9999
0.999909
0.999917
0.999924
0.999928
0.999932
0.999937
0.999943
0.99995
0.999955
0.999957
0.999958
0.999959
0.99996
0.999962
0.999965
0.999972
0.99998
0.99999
1
1.00001
1.00002
1.00004
1.00005
1.00006
1.00007
1.00009
1.0001
1.0001
1.00011
1.00011
1.00011
1.00011
1.00011
1.00011
1.00011
1.00011
1.00011
1.00011
1.00011
1.00011
1.00011
1.00011
1.00012
1.00012
1.00012
1.00012
1.00012
1.00011
1.00011
1.0001
1.0001
1.0001
1.0001
1.0001
1.0001
1.00009
1.00004
0.99991
0.99983
0.999843
0.99985
0.999867
0.999866
0.999873
0.999881
0.999888
0.99989
0.999898
0.999904
0.999906
0.999902
0.9999
0.9999
0.999901
0.999898
0.999894
0.999892
0.999893
0.999898
0.999905
0.999912
0.999918
0.999922
0.999926
0.99993
0.999936
0.999943
0.999949
0.999953
0.999956
0.999957
0.999957
0.999958
0.999961
0.999965
0.999972
0.999981
0.999991
1
1.00001
1.00003
1.00004
1.00005
1.00007
1.00008
1.00009
1.0001
1.0001
1.00011
1.00011
1.00011
1.00011
1.00011
1.00011
1.00011
1.00011
1.00011
1.00011
1.00011
1.00011
1.00011
1.00011
1.00011
1.00012
1.00012
1.00012
1.00011
1.00011
1.0001
1.00009
1.00009
1.00009
1.00009
1.00009
1.00009
1.00008
1.00003
0.999914
0.999841
0.999854
0.999856
0.999867
0.999876
0.999881
0.999884
0.999891
0.999895
0.999902
0.999904
0.999909
0.999907
0.999905
0.999903
0.9999
0.999898
0.999896
0.999895
0.999897
0.999902
0.999907
0.999913
0.999918
0.999922
0.999927
0.999932
0.999938
0.999944
0.999949
0.999953
0.999956
0.999957
0.999957
0.999959
0.999962
0.999967
0.999974
0.999982
0.999991
1
1.00001
1.00003
1.00004
1.00005
1.00007
1.00008
1.00009
1.00009
1.0001
1.0001
1.00011
1.00011
1.00011
1.00011
1.00011
1.0001
1.0001
1.0001
1.0001
1.0001
1.0001
1.0001
1.00011
1.00011
1.00011
1.00011
1.00011
1.0001
1.0001
1.00009
1.00009
1.00009
1.00008
1.00008
1.00008
1.00008
1.00007
1.00002
0.999926
0.999853
0.999866
0.999867
0.99987
0.999879
0.999885
0.99989
0.999897
0.999899
0.999907
0.999906
0.999909
0.999908
0.999905
0.999901
0.999896
0.999892
0.999892
0.999893
0.999897
0.9999
0.999904
0.999909
0.999914
0.99992
0.999925
0.999931
0.999937
0.999943
0.999947
0.999951
0.999953
0.999953
0.999954
0.999956
0.99996
0.999965
0.999972
0.99998
0.999989
1
1.00001
1.00003
1.00004
1.00005
1.00007
1.00007
1.00008
1.00009
1.00009
1.0001
1.0001
1.0001
1.0001
1.0001
1.0001
1.0001
1.0001
1.0001
1.0001
1.0001
1.0001
1.0001
1.0001
1.0001
1.0001
1.0001
1.0001
1.0001
1.00009
1.00009
1.00009
1.00008
1.00008
1.00008
1.00008
1.00007
1.00006
1.00002
0.999923
0.999853
0.999863
0.999868
0.999874
0.999883
0.999891
0.999898
0.999905
0.999906
0.999913
0.999912
0.999913
0.999913
0.999908
0.999905
0.999902
0.999898
0.999896
0.999895
0.999896
0.999899
0.999904
0.999911
0.999917
0.999923
0.999929
0.999935
0.99994
0.999945
0.99995
0.999953
0.999954
0.999955
0.999956
0.999959
0.999963
0.999968
0.999974
0.999981
0.99999
1
1.00001
1.00003
1.00004
1.00006
1.00007
1.00008
1.00008
1.00009
1.0001
1.0001
1.0001
1.00011
1.0001
1.0001
1.0001
1.0001
1.0001
1.0001
1.0001
1.0001
1.0001
1.0001
1.0001
1.0001
1.0001
1.0001
1.0001
1.0001
1.00009
1.00009
1.00009
1.00008
1.00008
1.00008
1.00007
1.00007
1.00006
1.00002
0.999932
0.999861
0.999864
0.999871
0.999881
0.999891
0.999902
0.999911
0.999918
0.999919
0.999919
0.99992
0.99992
0.999921
0.999919
0.999914
0.999909
0.999904
0.9999
0.999898
0.999899
0.999902
0.999908
0.999915
0.999921
0.999928
0.999933
0.999939
0.999945
0.99995
0.999955
0.999958
0.99996
0.999961
0.999963
0.999965
0.999969
0.999973
0.999978
0.999985
0.999992
1
1.00001
1.00003
1.00004
1.00005
1.00007
1.00007
1.00008
1.00009
1.0001
1.0001
1.0001
1.0001
1.0001
1.0001
1.0001
1.0001
1.0001
1.0001
1.0001
1.0001
1.0001
1.0001
1.0001
1.0001
1.0001
1.0001
1.0001
1.0001
1.00009
1.00009
1.00009
1.00008
1.00008
1.00007
1.00007
1.00006
1.00006
1.00003
0.999937
0.999865
0.999871
0.99988
0.999891
0.999901
0.999911
0.999922
0.999928
0.999934
0.999927
0.999924
0.99992
0.999919
0.999918
0.999916
0.999911
0.999905
0.9999
0.999898
0.999898
0.999902
0.999908
0.999916
0.999922
0.999929
0.999935
0.999941
0.999948
0.999954
0.999958
0.999962
0.999964
0.999966
0.999969
0.999972
0.999975
0.99998
0.999984
0.999989
0.999996
1.00001
1.00002
1.00003
1.00004
1.00006
1.00007
1.00008
1.00008
1.00009
1.0001
1.0001
1.0001
1.0001
1.0001
1.0001
1.00009
1.00009
1.00009
1.00009
1.00009
1.00009
1.00009
1.00009
1.00009
1.00009
1.00009
1.00009
1.00009
1.00009
1.00009
1.00008
1.00008
1.00008
1.00007
1.00007
1.00006
1.00006
1.00006
1.00003
0.999943
0.999873
0.999882
0.999892
0.999902
0.999912
0.999921
0.999933
0.999932
0.99994
0.999933
0.999926
0.999921
0.999917
0.999914
0.999911
0.999907
0.999903
0.999899
0.999896
0.999897
0.999901
0.999907
0.999915
0.999922
0.999929
0.999935
0.999941
0.999948
0.999954
0.999958
0.999962
0.999964
0.999966
0.999969
0.999972
0.999975
0.999979
0.999983
0.999988
0.999995
1
1.00001
1.00003
1.00004
1.00005
1.00006
1.00007
1.00008
1.00008
1.00009
1.0001
1.0001
1.0001
1.00009
1.00009
1.00009
1.00009
1.00009
1.00009
1.00009
1.00009
1.00009
1.00008
1.00008
1.00009
1.00009
1.00009
1.00009
1.00008
1.00008
1.00008
1.00007
1.00007
1.00006
1.00006
1.00006
1.00005
1.00005
1.00002
0.999948
0.999888
0.999897
0.999905
0.999915
0.999924
0.99993
0.999943
0.999939
0.999945
0.999942
0.999932
0.999924
0.99992
0.999917
0.999914
0.99991
0.999906
0.999902
0.9999
0.999901
0.999905
0.999911
0.999918
0.999926
0.999932
0.999939
0.999945
0.999951
0.999956
0.999961
0.999964
0.999966
0.999968
0.99997
0.999973
0.999976
0.99998
0.999984
0.999989
0.999995
1
1.00001
1.00002
1.00004
1.00005
1.00006
1.00006
1.00007
1.00008
1.00009
1.00009
1.00009
1.00009
1.00009
1.00009
1.00009
1.00009
1.00009
1.00009
1.00009
1.00008
1.00008
1.00008
1.00008
1.00008
1.00008
1.00008
1.00008
1.00008
1.00007
1.00007
1.00006
1.00006
1.00005
1.00005
1.00005
1.00005
1.00004
1.00002
0.999953
0.999904
0.999912
0.999918
0.999928
0.999936
0.999938
0.999948
0.999946
0.999946
0.999946
0.999942
0.999935
0.99993
0.999926
0.999923
0.99992
0.999917
0.999914
0.999912
0.999914
0.999918
0.999924
0.999932
0.999939
0.999945
0.999951
0.999957
0.999963
0.999968
0.999973
0.999975
0.999977
0.999978
0.99998
0.999983
0.999986
0.99999
0.999994
0.999999
1
1.00001
1.00002
1.00003
1.00004
1.00005
1.00006
1.00007
1.00007
1.00008
1.00008
1.00009
1.00009
1.00009
1.00009
1.00009
1.00009
1.00009
1.00009
1.00008
1.00008
1.00008
1.00008
1.00008
1.00008
1.00008
1.00008
1.00008
1.00007
1.00007
1.00006
1.00006
1.00005
1.00005
1.00005
1.00005
1.00004
1.00004
1.00003
1.00002
0.999962
0.999922
0.999926
0.999932
0.999942
0.999947
0.999949
0.999949
0.999954
0.99995
0.999946
0.999944
0.999942
0.999939
0.999935
0.999931
0.999928
0.999925
0.999923
0.999923
0.999926
0.999931
0.999938
0.999945
0.999951
0.999956
0.999961
0.999967
0.999972
0.999978
0.999981
0.999984
0.999985
0.999986
0.999987
0.99999
0.999994
0.999998
1
1.00001
1.00001
1.00002
1.00002
1.00003
1.00004
1.00005
1.00006
1.00006
1.00007
1.00007
1.00008
1.00008
1.00008
1.00008
1.00008
1.00008
1.00008
1.00008
1.00008
1.00008
1.00008
1.00008
1.00007
1.00007
1.00007
1.00007
1.00007
1.00007
1.00006
1.00006
1.00006
1.00005
1.00005
1.00004
1.00004
1.00004
1.00003
1.00003
1.00003
1.00002
0.999974
0.999938
0.99994
0.999942
0.999953
0.999954
0.999963
0.999954
0.999954
0.999954
0.999951
0.999949
0.999948
0.999945
0.999942
0.999938
0.999935
0.999932
0.999931
0.999932
0.999935
0.999941
0.999947
0.999952
0.999957
0.999961
0.999966
0.999971
0.999977
0.999982
0.999986
0.999987
0.999988
0.999989
0.999991
0.999994
0.999998
1
1
1.00001
1.00001
1.00002
1.00002
1.00003
1.00004
1.00005
1.00005
1.00005
1.00006
1.00006
1.00007
1.00007
1.00007
1.00007
1.00007
1.00007
1.00007
1.00007
1.00007
1.00007
1.00007
1.00006
1.00006
1.00006
1.00006
1.00006
1.00006
1.00006
1.00005
1.00005
1.00005
1.00004
1.00004
1.00004
1.00003
1.00003
1.00003
1.00002
1.00003
1.00002
0.999984
0.999947
0.999952
0.999951
0.999964
0.999958
0.999968
0.999966
0.999961
0.999957
0.999955
0.999956
0.999958
0.999957
0.999955
0.999951
0.999948
0.999946
0.999945
0.999947
0.999951
0.999955
0.99996
0.999964
0.999967
0.999971
0.999975
0.99998
0.999986
0.999991
0.999994
0.999995
0.999996
0.999997
0.999998
1
1
1.00001
1.00001
1.00001
1.00002
1.00002
1.00002
1.00003
1.00004
1.00004
1.00004
1.00005
1.00005
1.00005
1.00005
1.00006
1.00006
1.00006
1.00006
1.00006
1.00006
1.00006
1.00005
1.00005
1.00005
1.00005
1.00005
1.00005
1.00005
1.00005
1.00005
1.00005
1.00004
1.00004
1.00004
1.00004
1.00004
1.00004
1.00003
1.00003
1.00002
1.00002
1.00003
1.00002
0.999989
0.999955
0.999964
0.999963
0.99997
0.999972
0.999968
0.999967
0.999967
0.999966
0.999966
0.999967
0.999969
0.99997
0.999969
0.999967
0.999964
0.999962
0.999962
0.999963
0.999966
0.99997
0.999974
0.999977
0.999979
0.999982
0.999985
0.99999
0.999995
1
1
1
1
1
1.00001
1.00001
1.00001
1.00001
1.00001
1.00001
1.00002
1.00002
1.00002
1.00003
1.00003
1.00003
1.00004
1.00004
1.00004
1.00004
1.00004
1.00005
1.00005
1.00005
1.00005
1.00005
1.00005
1.00004
1.00004
1.00004
1.00004
1.00004
1.00004
1.00004
1.00004
1.00004
1.00004
1.00004
1.00004
1.00004
1.00004
1.00004
1.00004
1.00003
1.00003
1.00003
1.00002
1.00002
1.00002
1.00002
0.999989
0.999967
0.999979
0.999981
0.999972
0.999982
0.999986
0.999985
0.999983
0.999981
0.999983
0.999986
0.999988
0.999989
0.999989
0.999987
0.999985
0.999983
0.999982
0.999984
0.999986
0.99999
0.999992
0.999994
0.999996
0.999998
1
1.00001
1.00001
1.00001
1.00002
1.00002
1.00002
1.00002
1.00002
1.00002
1.00002
1.00002
1.00002
1.00002
1.00002
1.00002
1.00002
1.00002
1.00003
1.00003
1.00003
1.00003
1.00003
1.00003
1.00003
1.00003
1.00003
1.00003
1.00003
1.00003
1.00003
1.00003
1.00003
1.00003
1.00003
1.00003
1.00003
1.00003
1.00003
1.00003
1.00003
1.00003
1.00003
1.00003
1.00003
1.00003
1.00003
1.00003
1.00003
1.00003
1.00002
1.00002
1.00002
1.00001
0.999989
0.999988
0.999996
1
1.00001
1.00001
1.00001
1.00001
1.00001
1.00001
1.00001
1.00002
1.00002
1.00002
1.00002
1.00002
1.00002
1.00002
1.00002
1.00002
1.00002
1.00002
1.00003
1.00003
1.00003
1.00003
1.00003
1.00004
1.00004
1.00004
1.00004
1.00004
1.00004
1.00004
1.00004
1.00004
1.00003
1.00003
1.00003
1.00003
1.00003
1.00003
1.00003
1.00003
1.00003
1.00002
1.00002
1.00002
1.00002
1.00002
1.00002
1.00002
1.00002
1.00002
1.00002
1.00001
1.00001
1.00001
1.00001
1.00001
1.00001
1.00001
1.00002
1.00002
1.00002
1.00002
1.00003
1.00003
1.00003
1.00003
1.00003
1.00003
1.00003
1.00003
1.00003
1.00003
1.00003
1.00002
1.00003
1.00001
0.999997
1.00001
1.00004
1.00003
1.00003
1.00004
1.00004
1.00004
1.00005
1.00005
1.00005
1.00006
1.00006
1.00006
1.00007
1.00007
1.00007
1.00007
1.00007
1.00007
1.00008
1.00008
1.00008
1.00008
1.00008
1.00008
1.00009
1.00009
1.00009
1.00009
1.00009
1.00008
1.00008
1.00008
1.00007
1.00007
1.00006
1.00006
1.00005
1.00005
1.00004
1.00004
1.00004
1.00003
1.00003
1.00003
1.00003
1.00002
1.00002
1.00002
1.00002
1.00001
1.00001
1.00001
1
1
1
1
1
1
1
1.00001
1.00001
1.00001
1.00002
1.00002
1.00002
1.00002
1.00003
1.00003
1.00004
1.00004
1.00004
1.00004
1.00003
1.00003
1.00004
1.00003
1.00003
1.00001
1
1.00004
1.00005
1.00005
1.00006
1.00006
1.00006
1.00007
1.00007
1.00008
1.00008
1.00009
1.00009
1.00009
1.0001
1.0001
1.0001
1.0001
1.00011
1.00011
1.00011
1.00011
1.00012
1.00012
1.00012
1.00012
1.00012
1.00012
1.00012
1.00012
1.00011
1.00011
1.0001
1.0001
1.00009
1.00008
1.00008
1.00007
1.00006
1.00006
1.00005
1.00005
1.00004
1.00004
1.00003
1.00003
1.00002
1.00002
1.00002
1.00001
1.00001
1.00001
1.00001
1
1
0.999999
0.999997
0.999997
0.999997
0.999999
1
1.00001
1.00001
1.00001
1.00001
1.00002
1.00002
1.00002
1.00003
1.00003
1.00004
1.00004
1.00004
1.00004
1.00004
1.00004
1.00004
1.00004
1.00004
1.00001
0.99976
0.999703
0.999661
0.999668
0.999705
0.999747
0.999781
0.999801
0.999817
0.99983
0.99984
0.999847
0.99985
0.999839
0.99982
0.999797
0.999772
0.999746
0.999719
0.999692
0.999663
0.999634
0.999604
0.999574
0.999545
0.999516
0.999488
0.999462
0.999437
0.999414
0.999393
0.999374
0.999357
0.99934
0.999324
0.999308
0.999293
0.999279
0.999264
0.999249
0.999233
0.999216
0.999198
0.99918
0.999162
0.999141
0.999117
0.999094
0.999072
0.999053
0.999036
0.999021
0.999008
0.998997
0.998988
0.998979
0.998968
0.998942
0.998915
0.998889
0.998864
0.998842
0.998821
0.998804
0.998788
0.998777
0.99877
0.998767
0.998766
0.998768
0.998772
0.998783
0.9988
0.998826
0.998868
0.998923
0.999009
0.999146
0.999337
0.999592
0.000436212
0.00065024
0.000803356
0.000916548
0.000990356
0.00104168
0.00108207
0.00111707
0.00113843
0.00114914
0.00115008
0.00114384
0.0011353
0.00113537
0.00113884
0.0011417
0.00114254
0.0011408
0.00113526
0.00112625
0.00111467
0.00110057
0.00108441
0.00106654
0.00104626
0.00102342
0.000997847
0.000969781
0.000939694
0.000908089
0.000875299
0.000841444
0.000806501
0.000770565
0.000734513
0.000697419
0.000659073
0.000619633
0.000579146
0.000537873
0.000496295
0.000454933
0.000413665
0.000373026
0.000333778
0.000298325
0.000268745
0.000239778
0.000211705
0.000184464
0.000158189
0.000133186
0.000109441
8.6905e-05
6.57486e-05
4.70498e-05
3.26065e-05
3.49475e-05
3.79378e-05
4.13566e-05
4.42043e-05
4.65891e-05
4.85753e-05
5.05735e-05
5.25467e-05
5.4318e-05
5.61e-05
6.049e-05
6.73442e-05
7.79487e-05
9.54706e-05
0.000115254
0.000136351
0.000156619
0.000175288
0.000191197
0.00019688
0.000186032
0.000158808
0.000106701
1.60993e-10
6.01714e-11
2.0227e-12
3.19571e-13
1.08188e-13
1.12299e-13
9.83571e-14
5.70402e-14
3.66416e-14
3.90497e-14
5.31433e-14
5.91541e-14
5.37384e-14
4.2644e-14
3.82431e-14
5.96485e-14
9.45829e-14
1.25253e-13
1.41187e-13
1.59376e-13
1.71728e-13
1.34149e-13
5.28641e-14
6.29688e-17
1.12041e-16
1.16322e-16
8.86786e-17
8.29884e-17
7.63365e-17
5.44988e-17
1.8416e-17
1.98212e-38
5.40519e-18
1.0227e-17
4.8003e-18
2.36895e-18
9.90391e-19
7.44635e-19
6.8686e-19
5.10037e-19
1.70159e-19
1.30197e-22
0
-8.45851e-23
-2.76058e-22
0
8.38928e-24
1.43541e-23
4.78314e-24
0
-5.37519e-23
-1.24722e-22
2.63388e-66
6.32668e-26
9.10414e-25
2.28815e-24
4.06138e-20
1.54273e-19
2.64421e-19
3.61951e-19
5.25984e-19
6.74601e-19
6.28441e-19
4.29005e-19
2.82368e-19
2.22779e-19
2.01573e-19
2.01574e-19
2.01573e-19
2.0296e-19
7.63435e-18
7.40731e-17
3.05969e-16
9.05589e-15
2.00823e-14
4.53509e-15
6.77283e-15
1.15808e-14
3.00183e-14
4.29388e-14
2.05344e-10
1.16658e-10
3.47669e-12
2.52869e-13
3.02904e-14
2.77634e-14
1.64862e-14
1.43476e-15
2.06375e-16
1.12448e-16
1.71347e-16
2.44423e-16
1.89929e-17
-4.19461e-16
-2.16036e-16
1.0478e-16
1.42689e-16
3.22738e-16
-8.10938e-16
-2.42043e-15
-2.84106e-15
-1.45284e-15
-8.80097e-16
3.81949e-17
7.42406e-17
9.38772e-17
8.5525e-17
8.04881e-17
7.1326e-17
3.65274e-17
1.2735e-18
-1.77957e-17
-1.03197e-24
6.05814e-18
6.04793e-18
7.09947e-18
5.12478e-18
1.64637e-18
1.75918e-18
9.94497e-19
7.75275e-19
3.30008e-18
1.48229e-17
-7.12546e-18
-1.3535e-17
1.53408e-18
1.32301e-18
1.98672e-19
4.80919e-19
1.00061e-18
-1.52857e-18
-3.50551e-18
1.9429e-21
8.6192e-20
3.50864e-19
3.19894e-19
1.70097e-18
3.91446e-17
1.80427e-16
2.85265e-16
4.27745e-16
3.04498e-17
8.58667e-19
1.02122e-18
2.33545e-18
1.32441e-17
4.05538e-19
3.2452e-19
7.04355e-19
1.04969e-17
1.05883e-17
1.28354e-17
3.83105e-17
1.46062e-14
1.83793e-14
3.28956e-17
4.43433e-17
1.64428e-15
1.57733e-14
2.71337e-14
1.20171e-10
1.95259e-11
4.83557e-13
1.62985e-14
3.07308e-14
2.82673e-14
1.63726e-14
1.33664e-15
1.46927e-16
3.18281e-17
4.58476e-17
8.8888e-17
1.09241e-17
6.44092e-18
7.87203e-18
6.3428e-18
8.04003e-18
1.93214e-16
3.42701e-17
7.10136e-18
3.08878e-18
2.99611e-18
8.13103e-18
3.87077e-17
7.47172e-17
9.7459e-17
9.68081e-17
8.37002e-17
7.37482e-17
6.09275e-17
3.39963e-17
1.50004e-17
9.55063e-18
8.182e-18
6.93604e-18
5.33534e-18
2.92619e-18
1.55768e-18
1.21273e-18
5.09786e-19
3.8021e-19
2.92989e-19
2.32874e-19
1.41906e-19
5.69636e-20
4.21088e-20
9.19792e-20
1.3169e-19
7.26522e-20
2.83956e-20
2.21714e-21
2.54314e-20
6.12786e-19
2.79475e-18
6.14875e-19
4.78275e-19
3.85439e-18
7.26594e-17
3.84002e-16
7.54243e-16
7.71715e-16
5.49071e-17
7.44124e-19
2.62648e-18
7.50884e-17
3.24038e-16
2.59395e-17
2.60031e-19
1.2092e-19
4.92591e-18
1.19671e-16
3.2862e-16
5.37392e-17
4.91172e-16
1.34582e-15
2.74249e-17
1.12343e-17
3.11689e-15
5.37484e-14
2.71795e-14
3.33799e-11
2.99037e-12
3.79079e-13
1.12411e-14
4.37318e-14
1.00916e-14
1.44922e-15
1.20795e-16
2.80403e-17
9.90572e-18
8.97137e-18
3.23968e-17
1.42512e-17
6.24918e-18
9.02296e-18
6.18638e-18
9.77177e-18
3.04222e-17
1.51127e-17
4.81756e-18
3.58869e-18
3.33189e-18
3.45258e-18
4.38024e-18
5.09724e-18
5.46435e-18
5.09091e-18
4.20001e-18
3.53962e-18
2.9567e-18
2.34598e-18
1.89337e-18
1.49871e-18
1.2664e-18
1.0753e-18
8.10956e-19
5.06288e-19
2.7831e-19
1.65789e-19
1.35128e-19
7.0683e-20
3.92571e-20
1.26342e-20
3.28853e-21
1.76593e-21
1.10609e-21
1.3462e-20
4.17807e-20
5.4323e-20
2.03867e-20
7.25912e-21
5.83057e-21
3.16491e-20
1.22823e-19
4.65388e-20
3.26074e-19
7.06777e-18
2.4544e-17
2.4817e-17
7.77745e-17
5.29484e-17
3.62087e-18
4.27786e-20
2.17526e-19
6.00622e-18
2.58874e-17
1.83987e-18
1.88753e-20
5.05011e-21
4.24768e-19
8.61845e-18
2.08856e-17
1.57386e-18
2.18969e-18
9.85706e-18
2.47294e-17
5.848e-18
6.10411e-16
4.22345e-15
1.59001e-15
3.79958e-12
2.34124e-13
1.59315e-14
1.95646e-15
6.80615e-15
4.14172e-16
8.14997e-18
1.02715e-18
5.63301e-19
4.1692e-19
1.76327e-19
5.24467e-19
4.92932e-19
2.03749e-19
2.34989e-19
1.1564e-19
8.85064e-20
1.8295e-19
1.80386e-19
6.8939e-20
5.59869e-20
6.14064e-20
7.22308e-20
5.73388e-20
5.19331e-20
4.79247e-20
4.23103e-20
3.62082e-20
3.08648e-20
2.78935e-20
2.60244e-20
2.3991e-20
1.95024e-20
1.64063e-20
1.32139e-20
9.55304e-21
6.16524e-21
3.48915e-21
2.12397e-21
1.88074e-21
1.35708e-21
7.3171e-22
2.13061e-22
4.389e-23
1.83687e-23
6.2851e-23
3.47235e-22
4.08229e-22
7.25445e-22
7.24354e-22
6.23076e-22
1.51614e-22
2.5306e-22
9.6386e-22
9.29886e-22
2.32308e-20
4.07123e-19
1.04136e-18
1.78063e-19
3.66453e-19
1.11429e-19
5.9129e-21
1.01888e-23
9.34793e-22
3.47125e-20
8.60909e-20
4.90443e-21
7.80771e-23
5.17563e-24
2.97502e-21
3.59109e-20
6.04804e-20
1.65476e-20
3.93445e-20
9.18129e-20
1.09299e-18
1.45717e-19
7.89881e-18
1.92744e-17
7.62352e-18
1.37732e-13
1.69572e-14
2.64167e-16
3.05228e-17
7.61799e-17
2.62615e-18
3.24927e-20
3.82923e-21
3.09494e-21
3.05121e-21
1.04809e-21
1.32132e-21
9.50783e-22
5.94574e-22
6.67659e-22
5.30576e-22
4.81958e-22
8.23449e-22
8.05716e-22
7.62427e-22
7.76553e-22
7.8463e-22
7.88966e-22
7.98095e-22
7.50788e-22
7.02132e-22
6.44284e-22
5.85606e-22
5.24472e-22
4.636e-22
3.79358e-22
2.87095e-22
2.25579e-22
1.79817e-22
1.3471e-22
9.44197e-23
6.35246e-23
4.04698e-23
2.65735e-23
1.75735e-23
9.90273e-24
4.3749e-24
1.66365e-24
5.5697e-25
3.26243e-25
3.06893e-25
2.87169e-25
2.64431e-25
8.7126e-25
7.19851e-24
1.57171e-23
1.74217e-24
5.06895e-24
1.70621e-23
8.16993e-25
2.06573e-22
2.00227e-21
2.58017e-21
1.32317e-22
1.14103e-22
7.55769e-23
6.69518e-24
1.85458e-25
1.42342e-24
4.30618e-23
4.61197e-23
2.50974e-24
2.86493e-25
8.26382e-26
1.3676e-24
4.8114e-23
1.6874e-22
4.03863e-22
1.40836e-21
1.52111e-21
1.72484e-21
6.98902e-23
9.62398e-21
1.21494e-19
3.35896e-20
1.87061e-15
1.32792e-16
1.57704e-18
1.05169e-19
3.72837e-19
2.74037e-20
6.32907e-22
7.13633e-23
3.68559e-23
2.63458e-23
1.19919e-23
2.18848e-23
1.36646e-23
9.23134e-24
1.22039e-23
1.10178e-23
1.00658e-23
1.75946e-23
1.75939e-23
1.77355e-23
1.84752e-23
1.84869e-23
1.85613e-23
1.91684e-23
1.86972e-23
1.71763e-23
1.50292e-23
1.3411e-23
1.22225e-23
1.06948e-23
8.27361e-24
6.0627e-24
4.82397e-24
3.91219e-24
2.87504e-24
1.94569e-24
1.28547e-24
8.23009e-25
5.36764e-25
3.51408e-25
1.96678e-25
9.04594e-26
3.7424e-26
1.44022e-26
7.64815e-27
2.67338e-27
3.39946e-27
2.80238e-27
1.47612e-26
1.70854e-25
4.46341e-25
4.69865e-26
1.13446e-25
4.34988e-25
2.25138e-26
9.27965e-26
2.66507e-24
1.68676e-24
6.20082e-25
2.21429e-24
1.3578e-24
6.70025e-26
4.25269e-27
2.86125e-26
3.89618e-25
1.91925e-24
2.51288e-25
9.81801e-27
1.57884e-27
2.72992e-26
1.18413e-24
5.69314e-24
8.95599e-24
3.90368e-23
6.34587e-23
2.6141e-23
1.61641e-24
1.4081e-22
2.35158e-21
7.2769e-22
3.60047e-17
2.08641e-18
3.7498e-20
1.57485e-21
6.86185e-21
6.30395e-22
2.80543e-23
2.05297e-24
9.73625e-25
7.3083e-25
3.59655e-25
7.15196e-25
4.30463e-25
2.77201e-25
3.71973e-25
3.35041e-25
3.19684e-25
5.57004e-25
5.32024e-25
5.06905e-25
5.25407e-25
5.28444e-25
5.20863e-25
5.25288e-25
5.1654e-25
4.78492e-25
4.11718e-25
3.50693e-25
3.11282e-25
2.75971e-25
2.16533e-25
1.56328e-25
1.22233e-25
1.00331e-25
7.50624e-26
5.06057e-26
3.27192e-26
2.07726e-26
1.35699e-26
8.94553e-27
5.2356e-27
2.57249e-27
1.10781e-27
4.74691e-28
2.38215e-28
1.23111e-28
1.72047e-28
1.61159e-28
4.73265e-28
5.57694e-27
1.44725e-26
1.48116e-27
3.2702e-27
1.40059e-26
2.68728e-27
1.98716e-27
3.70134e-26
6.20367e-26
1.8434e-26
1.18031e-25
1.65744e-25
1.50445e-26
1.21273e-28
6.5611e-28
2.10141e-26
1.52887e-25
1.05415e-26
4.00362e-28
3.75187e-29
6.86186e-28
4.13935e-26
2.10103e-25
3.45135e-25
1.06737e-24
1.95262e-24
1.21307e-24
4.48709e-26
4.82239e-24
6.61575e-23
2.29559e-23
1.19748e-18
6.35757e-20
1.03372e-21
6.20826e-23
2.31349e-22
1.69872e-23
9.19446e-25
7.29102e-26
3.4272e-26
2.60356e-26
1.28991e-26
2.5864e-26
1.53089e-26
9.60786e-27
1.28115e-26
1.15286e-26
1.13293e-26
2.01539e-26
1.84822e-26
1.6683e-26
1.6917e-26
1.71099e-26
1.6801e-26
1.65479e-26
1.56905e-26
1.43063e-26
1.24391e-26
1.0487e-26
9.031e-27
7.90147e-27
6.3542e-27
4.68306e-27
3.62278e-27
2.93943e-27
2.23001e-27
1.5347e-27
9.90989e-28
6.27745e-28
4.16544e-28
2.75939e-28
1.62754e-28
8.20109e-29
3.69093e-29
1.71546e-29
8.49882e-30
4.94997e-30
7.24236e-30
7.61909e-30
2.0865e-29
2.25395e-28
5.24642e-28
5.04028e-29
1.02542e-28
4.62824e-28
2.11913e-28
5.63769e-29
2.36438e-27
1.0581e-26
1.81044e-27
1.07202e-26
1.00654e-26
7.19218e-28
4.65425e-30
1.83147e-29
9.20231e-28
7.18623e-27
4.74084e-28
1.68953e-29
1.1277e-30
2.18776e-29
1.82557e-27
8.40802e-27
1.61341e-26
4.39588e-26
6.23782e-26
4.41843e-26
1.4893e-27
1.88428e-25
2.38678e-24
8.30134e-25
3.96841e-20
1.98784e-21
3.76225e-23
2.04455e-24
9.58519e-24
6.45925e-25
3.00037e-26
2.87825e-27
1.37056e-27
1.02106e-27
5.0174e-28
1.00695e-27
5.96939e-28
3.72714e-28
4.96783e-28
4.45253e-28
4.43082e-28
8.04664e-28
7.26974e-28
6.28725e-28
6.15615e-28
6.08316e-28
5.96562e-28
5.87289e-28
5.41487e-28
4.78512e-28
4.12946e-28
3.53616e-28
3.06044e-28
2.64225e-28
2.1151e-28
1.58737e-28
1.23931e-28
9.90852e-29
7.41385e-29
5.1424e-29
3.33177e-29
2.08908e-29
1.40799e-29
9.53948e-30
5.66336e-30
2.94117e-30
1.39585e-30
7.05819e-31
3.42971e-31
2.11372e-31
3.43245e-31
3.67274e-31
7.62752e-31
7.99944e-30
1.86918e-29
1.74738e-30
5.4758e-30
2.19108e-29
1.43903e-29
2.04193e-30
1.70761e-28
6.10649e-28
1.21251e-28
6.19075e-28
4.7924e-28
3.50903e-29
9.61878e-31
6.307e-31
4.59062e-29
3.22622e-28
2.20967e-29
7.61467e-31
4.06772e-32
8.3764e-31
8.76535e-29
3.53099e-28
7.31238e-28
2.12079e-27
2.66715e-27
1.74874e-27
5.60959e-29
8.31058e-27
9.77178e-26
3.41322e-26
1.5677e-21
7.53731e-23
1.67798e-24
8.91015e-26
4.43486e-25
2.9797e-26
1.26597e-27
1.26445e-28
6.0433e-29
4.3762e-29
2.10528e-29
4.24515e-29
2.53522e-29
1.59263e-29
2.1396e-29
1.92482e-29
1.92621e-29
3.52265e-29
3.13306e-29
2.63834e-29
2.52628e-29
2.42121e-29
2.32054e-29
2.26604e-29
2.08834e-29
1.82318e-29
1.54787e-29
1.32909e-29
1.172e-29
1.02028e-29
8.10808e-30
6.0664e-30
4.77285e-30
3.81539e-30
2.80214e-30
1.92593e-30
1.25002e-30
7.6046e-31
4.79989e-31
3.19087e-31
1.83147e-31
9.79677e-32
5.4583e-32
3.20933e-32
1.52835e-32
9.9403e-33
1.81683e-32
1.95354e-32
2.7013e-32
3.08053e-31
8.24064e-31
7.73181e-32
2.41096e-31
1.02002e-30
9.15647e-31
9.90668e-32
1.09327e-29
3.30321e-29
8.52649e-30
3.35349e-29
2.40265e-29
1.75818e-30
7.09364e-32
2.61581e-32
2.88527e-30
1.55382e-29
1.05065e-30
3.57841e-32
1.76155e-33
3.81289e-32
4.53317e-30
1.65827e-29
3.27268e-29
1.05586e-28
1.34073e-28
8.06251e-29
2.22115e-30
4.10402e-28
4.39202e-27
1.57099e-27
7.23471e-23
3.42452e-24
8.27217e-26
4.74953e-27
2.27896e-26
1.53027e-27
6.26004e-29
6.10556e-30
2.88016e-30
2.04162e-30
9.67785e-31
1.95905e-30
1.18098e-30
7.46672e-31
1.00595e-30
9.09427e-31
9.18908e-31
1.67867e-30
1.45589e-30
1.19268e-30
1.13475e-30
1.07754e-30
1.01821e-30
9.78537e-31
8.96795e-31
7.85715e-31
6.66404e-31
5.68301e-31
5.00835e-31
4.39477e-31
3.48454e-31
2.56322e-31
1.99789e-31
1.60831e-31
1.16953e-31
7.33154e-32
4.20891e-32
4.49768e-32
7.33033e-32
7.74798e-32
7.51176e-32
3.30686e-32
3.45082e-33
1.51631e-33
7.49268e-34
5.00434e-34
9.25696e-34
1.02581e-33
1.27458e-33
1.49312e-32
4.25617e-32
3.84531e-33
1.08871e-32
4.96805e-32
5.06567e-32
1.42245e-32
6.69669e-31
1.90326e-30
5.24197e-31
1.89643e-30
1.32029e-30
9.47763e-32
4.34712e-33
1.28667e-33
1.697e-31
8.58818e-31
5.66242e-32
1.83411e-33
8.91625e-35
1.76154e-33
2.57507e-31
8.9745e-31
1.64398e-30
5.35822e-30
7.34908e-30
4.25326e-30
9.45848e-32
2.11821e-29
2.21891e-28
8.14531e-29
3.72733e-24
1.78452e-25
4.48383e-27
2.79577e-28
1.27309e-27
8.46801e-29
3.36044e-30
3.18447e-31
1.47469e-31
1.03154e-31
4.85655e-32
9.92889e-32
6.04843e-32
3.82784e-32
5.1445e-32
4.63143e-32
4.68728e-32
8.53556e-32
7.2899e-32
5.82707e-32
5.48389e-32
5.21588e-32
4.96221e-32
4.78045e-32
4.34223e-32
3.79183e-32
3.23731e-32
2.76525e-32
2.41503e-32
2.09813e-32
1.65925e-32
1.20569e-32
9.10079e-33
6.85266e-33
4.79916e-33
6.24077e-33
2.0439e-32
4.4356e-32
8.6122e-32
7.81514e-32
8.27647e-32
9.67053e-32
4.20097e-33
1.04224e-34
5.29127e-35
2.824e-35
5.01649e-35
5.83265e-35
6.84314e-35
7.23194e-34
2.16843e-33
1.9743e-34
5.53894e-34
2.68824e-33
2.90172e-33
1.50367e-33
4.22714e-32
1.18072e-31
3.26468e-32
1.13115e-31
7.88442e-32
5.63064e-33
2.73364e-34
7.46206e-35
1.10864e-32
5.35037e-32
3.6528e-33
1.06548e-34
5.24009e-36
8.91625e-35
1.50909e-32
5.23294e-32
9.56112e-32
3.01861e-31
4.24852e-31
2.48102e-31
4.66464e-33
1.16754e-30
1.25745e-29
4.75877e-30
2.11569e-25
1.02698e-26
2.64074e-28
1.73711e-29
7.55885e-29
4.95159e-30
1.91417e-31
1.77702e-32
8.12699e-33
5.66809e-33
2.66936e-33
5.51427e-33
3.38074e-33
2.13201e-33
2.84875e-33
2.5424e-33
2.54385e-33
4.58258e-33
3.88356e-33
3.0921e-33
2.90507e-33
2.75608e-33
2.63789e-33
2.57702e-33
2.34047e-33
2.02106e-33
1.7114e-33
1.46153e-33
1.27145e-33
1.08868e-33
8.4843e-34
5.97618e-34
4.40102e-34
4.99635e-34
1.35446e-33
5.62738e-33
7.98725e-32
6.49596e-31
1.84332e-30
1.2844e-30
1.76864e-30
2.34433e-30
8.56899e-32
7.64772e-35
6.82405e-36
4.12621e-36
3.89046e-36
3.23471e-36
3.9696e-36
3.94058e-35
1.18071e-34
1.08947e-35
2.96846e-35
1.54729e-34
1.73905e-34
1.07682e-34
2.74042e-33
7.78825e-33
2.15022e-33
7.18054e-33
5.05734e-33
3.63623e-34
1.79928e-35
4.8715e-36
7.3898e-34
3.52832e-33
2.4459e-34
6.95619e-36
3.27229e-37
8.48148e-36
9.71954e-34
3.22984e-33
5.95486e-33
1.88979e-32
2.65307e-32
1.584e-32
2.6435e-34
7.72673e-32
7.98069e-31
3.03519e-31
1.3005e-26
6.45035e-28
1.6655e-29
1.11577e-30
4.70664e-30
3.02513e-31
1.15156e-32
1.06014e-33
4.83272e-34
3.39057e-34
1.60498e-34
3.35255e-34
2.05482e-34
1.27946e-34
1.68666e-34
1.48302e-34
1.4659e-34
2.60883e-34
2.18684e-34
1.75113e-34
1.67037e-34
1.59863e-34
1.53157e-34
1.50259e-34
1.3709e-34
1.17594e-34
9.76815e-35
8.18842e-35
7.00392e-35
5.92638e-35
4.99634e-35
5.49223e-35
8.75375e-35
5.67101e-34
4.15275e-33
7.94342e-32
1.91157e-30
1.61802e-29
4.58438e-29
3.19883e-29
4.34157e-29
5.70747e-29
2.12224e-30
1.64975e-33
5.96098e-35
3.63703e-36
1.00771e-36
2.83355e-37
2.43246e-37
2.29781e-36
6.9409e-36
6.41548e-37
1.70067e-36
9.57786e-36
1.10953e-35
7.1205e-36
1.8491e-34
5.36424e-34
1.47504e-34
4.89138e-34
3.47689e-34
2.54232e-35
1.23974e-36
3.56025e-37
5.36033e-35
2.45599e-34
1.57969e-35
4.68287e-37
2.14199e-38
6.94788e-37
6.68642e-35
2.1702e-34
3.90366e-34
1.26679e-33
1.8013e-33
1.0979e-33
1.6865e-35
5.47324e-33
5.5495e-32
2.06685e-32
8.49646e-28
4.32919e-29
1.10268e-30
7.4597e-32
3.0527e-31
1.93438e-32
7.31605e-34
6.75712e-35
3.09895e-35
2.19493e-35
1.0432e-35
2.20602e-35
1.35008e-35
8.27154e-36
1.06607e-35
9.12712e-36
8.91495e-36
1.58385e-35
1.31927e-35
1.05715e-35
1.01923e-35
9.91303e-36
9.53104e-36
9.30178e-36
8.44067e-36
7.21438e-36
5.88548e-36
4.94106e-36
4.61352e-36
5.20611e-36
1.03679e-35
8.84922e-35
7.45607e-34
7.53572e-33
8.33782e-32
1.71449e-30
4.27457e-29
3.62307e-28
1.03196e-27
7.25727e-28
9.74536e-28
1.28428e-27
4.8476e-29
4.32237e-32
1.44828e-33
4.79364e-35
1.71159e-36
1.20991e-37
7.44443e-38
1.41724e-37
4.20883e-37
3.92638e-38
1.06886e-37
6.33873e-37
7.50173e-37
4.90773e-37
1.32657e-35
3.83091e-35
1.07391e-35
3.60038e-35
2.56223e-35
1.93967e-36
9.22272e-38
2.80709e-38
3.8824e-36
1.76683e-35