/*--------------------------------*- C++ -*----------------------------------*\
| =========                 |                                                 |
| \\      /  F ield         | OpenFOAM: The Open Source CFD Toolbox           |
|  \\    /   O peration     | Version:  2412                                  |
|   \\  /    A nd           | Website:  www.openfoam.com                      |
|    \\/     M anipulation  |                                                 |
\*---------------------------------------------------------------------------*/
FoamFile
{
    version     2.0;
    format      ascii;
    arch        "LSB;label=32;scalar=64";
    class       surfaceScalarField;
    location    "0.3";
    object      alphaPhi0.soap;
}
// * * * * * * * * * * * * * * * * * * * * * * * * * * * * * * * * * * * * * //

dimensions      [0 3 -1 0 0 0 0];

oriented        oriented;

internalField   nonuniform List<scalar> 
12640
(
-1.10346e-08
1.10346e-08
-2.11819e-08
1.08998e-08
-3.15573e-08
1.07751e-08
-4.18422e-08
1.06181e-08
-5.19327e-08
1.04281e-08
-6.17739e-08
1.01777e-08
-7.13418e-08
9.88362e-09
-8.05918e-08
9.53198e-09
-8.94787e-08
9.12876e-09
-9.79556e-08
8.67572e-09
-1.05974e-07
8.17228e-09
-1.13484e-07
7.61863e-09
-1.20435e-07
7.01632e-09
-1.26776e-07
6.36927e-09
-1.3245e-07
5.6772e-09
-1.37407e-07
4.94636e-09
-1.416e-07
4.17867e-09
-1.44986e-07
3.38111e-09
-1.47526e-07
2.5533e-09
-1.49187e-07
1.69978e-09
-1.49967e-07
8.40709e-10
-1.49847e-07
-3.99999e-11
-1.4882e-07
-9.36168e-10
-1.46881e-07
-1.845e-09
-1.44039e-07
-2.7556e-09
-1.40303e-07
-3.66435e-09
-1.35683e-07
-4.56506e-09
-1.30193e-07
-5.45141e-09
-1.23847e-07
-6.31465e-09
-1.16668e-07
-7.1457e-09
-1.08679e-07
-7.93649e-09
-9.99135e-08
-8.6793e-09
-9.04124e-08
-9.36635e-09
-8.02287e-08
-9.98966e-09
-6.94275e-08
-1.05426e-08
-5.8087e-08
-1.10195e-08
-4.62982e-08
-1.14156e-08
-3.41644e-08
-1.17259e-08
-2.17996e-08
-1.19457e-08
-9.32583e-09
-1.20702e-08
3.13175e-09
-1.20969e-08
1.54522e-08
-1.20261e-08
2.75248e-08
-1.18606e-08
3.92541e-08
-1.16053e-08
5.05627e-08
-1.12663e-08
6.139e-08
-1.08492e-08
7.16879e-08
-1.03583e-08
8.14131e-08
-9.79572e-09
9.0519e-08
-9.16191e-09
9.89518e-08
-8.45913e-09
1.06652e-07
-7.69418e-09
1.13562e-07
-6.87951e-09
1.19639e-07
-6.0349e-09
1.24857e-07
-5.17496e-09
1.29203e-07
-4.30291e-09
1.32672e-07
-3.41524e-09
1.35253e-07
-2.50028e-09
1.36919e-07
-1.54616e-09
1.37629e-07
-5.59108e-10
1.37372e-07
4.14213e-10
1.36155e-07
1.34699e-09
1.34062e-07
2.17195e-09
1.31196e-07
2.8897e-09
1.27642e-07
3.55611e-09
1.23433e-07
4.251e-09
1.18537e-07
5.01908e-09
1.12889e-07
5.82737e-09
1.06492e-07
6.56441e-09
9.94867e-08
7.1317e-09
9.20503e-08
7.54895e-09
8.4251e-08
7.94296e-09
7.60604e-08
8.40115e-09
6.74666e-08
8.88532e-09
5.85048e-08
9.28671e-09
4.92068e-08
9.56378e-09
3.96311e-08
9.77716e-09
2.99007e-08
9.99304e-09
2.00869e-08
1.01816e-08
1.01327e-08
1.0294e-08
1.05539e-08
-1.09166e-08
2.22094e-08
-2.12855e-08
2.20334e-08
-3.17208e-08
2.19003e-08
-4.20475e-08
2.15779e-08
-5.21967e-08
2.11554e-08
-6.21157e-08
2.06226e-08
-7.17478e-08
1.99857e-08
-8.10522e-08
1.92428e-08
-8.99842e-08
1.83956e-08
-9.84978e-08
1.74482e-08
-1.06545e-07
1.64049e-08
-1.14078e-07
1.52701e-08
-1.21046e-07
1.40474e-08
-1.274e-07
1.27445e-08
-1.33091e-07
1.13676e-08
-1.38067e-07
9.92134e-09
-1.4229e-07
8.41414e-09
-1.45704e-07
6.83296e-09
-1.48292e-07
5.20994e-09
-1.50032e-07
3.53916e-09
-1.50867e-07
1.80202e-09
-1.50788e-07
2.07814e-11
-1.49789e-07
-1.79446e-09
-1.47876e-07
-3.62827e-09
-1.45044e-07
-5.47494e-09
-1.41296e-07
-7.31868e-09
-1.36645e-07
-9.13754e-09
-1.31106e-07
-1.09151e-08
-1.24699e-07
-1.26316e-08
-1.17447e-07
-1.42706e-08
-1.0938e-07
-1.58185e-08
-1.00534e-07
-1.72621e-08
-9.09521e-08
-1.85919e-08
-8.06895e-08
-1.97985e-08
-6.98116e-08
-2.08746e-08
-5.83963e-08
-2.18136e-08
-4.65346e-08
-2.26082e-08
-3.43302e-08
-2.32496e-08
-2.18976e-08
-2.37266e-08
-9.35836e-09
-2.40275e-08
3.16452e-09
-2.4142e-08
1.55525e-08
-2.40635e-08
2.76974e-08
-2.37893e-08
3.95059e-08
-2.3321e-08
5.09013e-08
-2.2665e-08
6.18227e-08
-2.18311e-08
7.22187e-08
-2.08303e-08
8.204e-08
-1.96728e-08
9.12326e-08
-1.83693e-08
9.97376e-08
-1.69348e-08
1.07494e-07
-1.53899e-08
1.14444e-07
-1.37562e-08
1.20542e-07
-1.2061e-08
1.25761e-07
-1.03241e-08
1.30097e-07
-8.55502e-09
1.33548e-07
-6.74682e-09
1.36104e-07
-4.88864e-09
1.37751e-07
-2.98431e-09
1.38455e-07
-1.0503e-09
1.38188e-07
8.46963e-10
1.36982e-07
2.63498e-09
1.34913e-07
4.25177e-09
1.32065e-07
5.73468e-09
1.28477e-07
7.1914e-09
1.24167e-07
8.69996e-09
1.19147e-07
1.02726e-08
1.13426e-07
1.18184e-08
1.07026e-07
1.31793e-08
1.00023e-07
1.42676e-08
9.25573e-08
1.51906e-08
8.47206e-08
1.61483e-08
7.64967e-08
1.7164e-08
6.78279e-08
1.8059e-08
5.87237e-08
1.87297e-08
4.93151e-08
1.92918e-08
3.97724e-08
1.9872e-08
3.01092e-08
2.03873e-08
2.02127e-08
2.06676e-08
1.02775e-08
2.08396e-08
2.10711e-08
-1.08296e-08
3.34387e-08
-2.14659e-08
3.32327e-08
-3.20435e-08
3.29902e-08
-4.24976e-08
3.25203e-08
-5.27638e-08
3.18764e-08
-6.27936e-08
3.10672e-08
-7.25348e-08
3.00974e-08
-8.19392e-08
2.89705e-08
-9.09597e-08
2.76893e-08
-9.95502e-08
2.62592e-08
-1.07664e-07
2.46877e-08
-1.15254e-07
2.29827e-08
-1.22273e-07
2.11515e-08
-1.28677e-07
1.9201e-08
-1.34423e-07
1.71432e-08
-1.39462e-07
1.49788e-08
-1.43752e-07
1.27213e-08
-1.47253e-07
1.03559e-08
-1.49924e-07
7.91158e-09
-1.51722e-07
5.38063e-09
-1.52634e-07
2.77119e-09
-1.52625e-07
7.96028e-11
-1.51678e-07
-2.66313e-09
-1.4979e-07
-5.43302e-09
-1.46948e-07
-8.23143e-09
-1.43165e-07
-1.1016e-08
-1.38451e-07
-1.37639e-08
-1.32827e-07
-1.64486e-08
-1.26316e-07
-1.90429e-08
-1.18947e-07
-2.15213e-08
-1.10755e-07
-2.38629e-08
-1.01781e-07
-2.60488e-08
-9.20696e-08
-2.8063e-08
-8.16772e-08
-2.98911e-08
-7.06683e-08
-3.15211e-08
-5.91199e-08
-3.29415e-08
-4.71217e-08
-3.41404e-08
-3.47761e-08
-3.51037e-08
-2.21963e-08
-3.58161e-08
-9.50227e-09
-3.62615e-08
3.18435e-09
-3.64265e-08
1.5745e-08
-3.63011e-08
2.80713e-08
-3.58819e-08
4.00686e-08
-3.51713e-08
5.16575e-08
-3.4178e-08
6.27718e-08
-3.29159e-08
7.33528e-08
-3.14012e-08
8.33436e-08
-2.96512e-08
9.26844e-08
-2.7685e-08
1.0131e-07
-2.55266e-08
1.09156e-07
-2.32064e-08
1.16168e-07
-2.07587e-08
1.22305e-07
-1.82165e-08
1.27542e-07
-1.55999e-08
1.31879e-07
-1.29281e-08
1.35317e-07
-1.01974e-08
1.37852e-07
-7.4013e-09
1.39469e-07
-4.55627e-09
1.4015e-07
-1.69955e-09
1.3988e-07
1.09206e-09
1.3869e-07
3.72119e-09
1.3661e-07
6.16995e-09
1.33705e-07
8.48517e-09
1.3002e-07
1.07923e-08
1.25586e-07
1.31399e-08
1.20439e-07
1.54786e-08
1.14626e-07
1.76766e-08
1.08179e-07
1.96123e-08
1.01139e-07
2.1277e-08
9.359e-08
2.2812e-08
8.5628e-08
2.43568e-08
7.72736e-08
2.5847e-08
6.8472e-08
2.71069e-08
5.92374e-08
2.81209e-08
4.97563e-08
2.9038e-08
4.01908e-08
2.99037e-08
3.04231e-08
3.05682e-08
2.03876e-08
3.09585e-08
1.03371e-08
3.1402e-08
3.15535e-08
-1.09246e-08
4.4752e-08
-2.17628e-08
4.45445e-08
-3.25266e-08
4.41697e-08
-4.31484e-08
4.35384e-08
-5.35801e-08
4.26805e-08
-6.37706e-08
4.16004e-08
-7.36676e-08
4.03043e-08
-8.32213e-08
3.88002e-08
-9.23814e-08
3.70933e-08
-1.01099e-07
3.51884e-08
-1.0933e-07
3.30959e-08
-1.1703e-07
3.08273e-08
-1.24155e-07
2.83916e-08
-1.30661e-07
2.57937e-08
-1.36506e-07
2.30449e-08
-1.41656e-07
2.01578e-08
-1.46051e-07
1.71256e-08
-1.4966e-07
1.39608e-08
-1.52436e-07
1.06743e-08
-1.5434e-07
7.27245e-09
-1.55332e-07
3.761e-09
-1.55386e-07
1.47993e-10
-1.54483e-07
-3.52856e-09
-1.52595e-07
-7.25938e-09
-1.49733e-07
-1.10114e-08
-1.45898e-07
-1.4752e-08
-1.41106e-07
-1.84486e-08
-1.35379e-07
-2.20663e-08
-1.28746e-07
-2.55694e-08
-1.21239e-07
-2.89245e-08
-1.12895e-07
-3.21012e-08
-1.03755e-07
-3.50711e-08
-9.38662e-08
-3.78088e-08
-8.32835e-08
-4.02917e-08
-7.20712e-08
-4.25e-08
-6.03062e-08
-4.44157e-08
-4.80785e-08
-4.60219e-08
-3.54909e-08
-4.73012e-08
-2.26573e-08
-4.82356e-08
-9.69912e-09
-4.88077e-08
3.26013e-09
-4.90034e-08
1.61009e-08
-4.88132e-08
2.87122e-08
-4.82339e-08
4.0996e-08
-4.72692e-08
5.2868e-08
-4.59296e-08
6.42552e-08
-4.4232e-08
7.50918e-08
-4.21969e-08
8.53137e-08
-3.98475e-08
9.48548e-08
-3.72104e-08
1.03648e-07
-3.43188e-08
1.11628e-07
-3.12123e-08
1.18742e-07
-2.79336e-08
1.2495e-07
-2.45216e-08
1.30237e-07
-2.10045e-08
1.34591e-07
-1.73966e-08
1.38033e-07
-1.3726e-08
1.40553e-07
-9.97788e-09
1.42143e-07
-6.18895e-09
1.42791e-07
-2.41633e-09
1.42494e-07
1.25717e-09
1.41257e-07
4.75521e-09
1.39109e-07
8.07757e-09
1.36111e-07
1.1275e-08
1.32308e-07
1.44626e-08
1.27737e-07
1.76477e-08
1.22457e-07
2.07192e-08
1.1653e-07
2.35397e-08
1.09968e-07
2.60589e-08
1.0279e-07
2.83522e-08
9.5094e-08
3.05524e-08
8.69965e-08
3.26924e-08
7.84814e-08
3.4637e-08
6.94681e-08
3.62629e-08
6.00558e-08
3.76457e-08
5.05007e-08
3.89294e-08
4.08331e-08
4.00692e-08
3.0837e-08
4.09264e-08
2.07684e-08
4.15422e-08
1.0469e-08
4.20916e-08
4.21158e-08
-1.10969e-08
5.61583e-08
-2.2168e-08
5.59878e-08
-3.31511e-08
5.54722e-08
-4.39901e-08
5.46781e-08
-5.46345e-08
5.36075e-08
-6.50329e-08
5.2263e-08
-7.51336e-08
5.065e-08
-8.48855e-08
4.87784e-08
-9.4237e-08
4.66563e-08
-1.03136e-07
4.42879e-08
-1.11541e-07
4.16837e-08
-1.1941e-07
3.88578e-08
-1.26698e-07
3.58161e-08
-1.33364e-07
3.2569e-08
-1.39366e-07
2.91195e-08
-1.44662e-07
2.54855e-08
-1.49207e-07
2.16643e-08
-1.52954e-07
1.76732e-08
-1.55855e-07
1.35226e-08
-1.57865e-07
9.22559e-09
-1.58942e-07
4.79073e-09
-1.59058e-07
2.42592e-10
-1.58181e-07
-4.39447e-09
-1.56299e-07
-9.09316e-09
-1.53412e-07
-1.38185e-08
-1.49524e-07
-1.85378e-08
-1.44652e-07
-2.32105e-08
-1.38819e-07
-2.7794e-08
-1.32054e-07
-3.22447e-08
-1.24387e-07
-3.65191e-08
-1.15856e-07
-4.0575e-08
-1.06502e-07
-4.4372e-08
-9.63706e-08
-4.78729e-08
-8.5519e-08
-5.10447e-08
-7.40138e-08
-5.38585e-08
-6.19343e-08
-5.62899e-08
-4.93735e-08
-5.83174e-08
-3.64379e-08
-5.99211e-08
-2.32447e-08
-6.10816e-08
-9.91807e-09
-6.17815e-08
3.4161e-09
-6.20074e-08
1.66361e-08
-6.17503e-08
2.96282e-08
-6.10068e-08
4.22899e-08
-5.97805e-08
5.4531e-08
-5.80826e-08
6.62712e-08
-5.59317e-08
7.74364e-08
-5.3352e-08
8.79549e-08
-5.03728e-08
9.77552e-08
-4.70292e-08
1.06767e-07
-4.33642e-08
1.14926e-07
-3.94271e-08
1.22179e-07
-3.52688e-08
1.2849e-07
-3.09353e-08
1.3385e-07
-2.64699e-08
1.38255e-07
-2.18884e-08
1.41706e-07
-1.72297e-08
1.44212e-07
-1.25065e-08
1.45766e-07
-7.7631e-09
1.46367e-07
-3.07032e-09
1.46011e-07
1.49877e-09
1.44698e-07
5.88863e-09
1.42432e-07
1.01439e-08
1.39307e-07
1.42508e-08
1.35365e-07
1.83349e-08
1.30641e-07
2.23328e-08
1.25191e-07
2.60979e-08
1.19101e-07
2.95293e-08
1.12385e-07
3.26839e-08
1.05027e-07
3.56821e-08
9.7123e-08
3.8559e-08
8.88112e-08
4.12391e-08
8.0083e-08
4.36158e-08
7.08647e-08
4.56618e-08
6.128e-08
4.74676e-08
5.15593e-08
4.90849e-08
4.16427e-08
5.04632e-08
3.1468e-08
5.1544e-08
2.12256e-08
5.22982e-08
1.06323e-08
5.28522e-08
5.29203e-08
-1.13258e-08
6.7706e-08
-2.26706e-08
6.7584e-08
-3.39149e-08
6.69331e-08
-4.50125e-08
6.59769e-08
-5.59139e-08
6.4697e-08
-6.65681e-08
6.30958e-08
-7.6921e-08
6.11771e-08
-8.69207e-08
5.89486e-08
-9.65182e-08
5.64223e-08
-1.05661e-07
5.36038e-08
-1.143e-07
5.04978e-08
-1.22399e-07
4.71179e-08
-1.29916e-07
4.34702e-08
-1.36799e-07
3.95623e-08
-1.43012e-07
3.54053e-08
-1.48502e-07
3.10035e-08
-1.53227e-07
2.63733e-08
-1.57136e-07
2.15299e-08
-1.60176e-07
1.64914e-08
-1.62298e-07
1.12733e-08
-1.63463e-07
5.89428e-09
-1.63644e-07
3.87778e-10
-1.62807e-07
-5.23244e-09
-1.60936e-07
-1.09303e-08
-1.58034e-07
-1.66561e-08
-1.54105e-07
-2.23854e-08
-1.49161e-07
-2.80695e-08
-1.4322e-07
-3.3658e-08
-1.36307e-07
-3.90979e-08
-1.28449e-07
-4.43343e-08
-1.19682e-07
-4.93123e-08
-1.10046e-07
-5.39786e-08
-9.95919e-08
-5.82838e-08
-8.83794e-08
-6.21837e-08
-7.64815e-08
-6.56409e-08
-6.39839e-08
-6.86242e-08
-5.0986e-08
-7.11072e-08
-3.75997e-08
-7.30663e-08
-2.39463e-08
-7.44799e-08
-1.01524e-08
-7.53297e-08
3.65478e-09
-7.56011e-08
1.73515e-08
-7.52837e-08
3.08209e-08
-7.43721e-08
4.39554e-08
-7.28682e-08
5.6657e-08
-7.07834e-08
6.88362e-08
-6.81387e-08
8.04093e-08
-6.49638e-08
9.12962e-08
-6.12967e-08
1.0142e-07
-5.71837e-08
1.10707e-07
-5.26794e-08
1.19093e-07
-4.78443e-08
1.26528e-07
-4.27394e-08
1.32978e-07
-3.74207e-08
1.38428e-07
-3.19413e-08
1.42885e-07
-2.63378e-08
1.46356e-07
-2.06584e-08
1.48846e-07
-1.4936e-08
1.50352e-07
-9.22425e-09
1.50885e-07
-3.60156e-09
1.50437e-07
1.89122e-09
1.49005e-07
7.21625e-09
1.46604e-07
1.24245e-08
1.43304e-07
1.74787e-08
1.39199e-07
2.24406e-08
1.34316e-07
2.72155e-08
1.2867e-07
3.16597e-08
1.22343e-07
3.5728e-08
1.154e-07
3.95682e-08
1.0785e-07
4.32963e-08
9.97338e-08
4.682e-08
9.11308e-08
4.99915e-08
8.20833e-08
5.27836e-08
7.26378e-08
5.52733e-08
6.29222e-08
5.74995e-08
5.29515e-08
5.94098e-08
4.264e-08
6.09468e-08
3.22204e-08
6.22213e-08
2.16154e-08
6.30901e-08
1.08813e-08
6.37306e-08
6.39907e-08
-1.16209e-08
7.94712e-08
-2.32712e-08
7.93589e-08
-3.48139e-08
7.85867e-08
-4.62101e-08
7.74749e-08
-5.74117e-08
7.59916e-08
-6.83685e-08
7.41418e-08
-7.90246e-08
7.19292e-08
-8.93251e-08
6.93559e-08
-9.92237e-08
6.64338e-08
-1.08671e-07
6.31739e-08
-1.17615e-07
5.95795e-08
-1.26008e-07
5.56469e-08
-1.33811e-07
5.13894e-08
-1.40975e-07
4.68159e-08
-1.47447e-07
4.19365e-08
-1.53176e-07
3.67569e-08
-1.58113e-07
3.12993e-08
-1.62204e-07
2.55817e-08
-1.65399e-07
1.9631e-08
-1.6765e-07
1.34673e-08
-1.68919e-07
7.11733e-09
-1.69181e-07
6.22332e-10
-1.684e-07
-6.01925e-09
-1.66569e-07
-1.27458e-08
-1.63675e-07
-1.95177e-08
-1.5972e-07
-2.62997e-08
-1.54707e-07
-3.30383e-08
-1.48647e-07
-3.96756e-08
-1.41557e-07
-4.61488e-08
-1.33461e-07
-5.23915e-08
-1.24393e-07
-5.83369e-08
-1.14398e-07
-6.39196e-08
-1.03532e-07
-6.90786e-08
-9.18639e-08
-7.37596e-08
-7.94755e-08
-7.79155e-08
-6.64615e-08
-8.15069e-08
-5.29286e-08
-8.44994e-08
-3.89941e-08
-8.68625e-08
-2.47819e-08
-8.85696e-08
-1.04195e-08
-8.95983e-08
3.96503e-09
-8.99302e-08
1.82455e-08
-8.95509e-08
3.23005e-08
-8.84527e-08
4.60146e-08
-8.66365e-08
5.92793e-08
-8.41159e-08
7.19932e-08
-8.09177e-08
8.4061e-08
-7.70812e-08
9.53931e-08
-7.26566e-08
1.05906e-07
-6.77042e-08
1.15524e-07
-6.22923e-08
1.24184e-07
-5.64932e-08
1.31836e-07
-5.03788e-08
1.3845e-07
-4.4017e-08
1.44012e-07
-3.74719e-08
1.4853e-07
-3.08052e-08
1.52016e-07
-2.40766e-08
1.54484e-07
-1.73361e-08
1.55931e-07
-1.0639e-08
1.56359e-07
-4.05263e-09
1.55785e-07
2.39739e-09
1.54208e-07
8.70201e-09
1.51644e-07
1.48901e-08
1.48136e-07
2.09171e-08
1.43825e-07
2.67313e-08
1.38755e-07
3.22468e-08
1.32887e-07
3.73771e-08
1.26267e-07
4.21439e-08
1.19021e-07
4.67153e-08
1.11229e-07
5.11426e-08
1.0288e-07
5.52471e-08
9.39547e-08
5.8877e-08
8.45312e-08
6.20881e-08
7.4799e-08
6.49969e-08
6.48694e-08
6.75655e-08
5.45417e-08
6.9747e-08
4.38134e-08
7.14955e-08
3.30972e-08
7.29877e-08
2.2048e-08
7.40012e-08
1.12526e-08
7.48138e-08
7.52091e-08
-1.19593e-08
9.1505e-08
-2.39584e-08
9.13616e-08
-3.58433e-08
9.04787e-08
-4.75821e-08
8.92184e-08
-5.91276e-08
8.75384e-08
-7.04335e-08
8.54463e-08
-8.14461e-08
8.29504e-08
-9.21032e-08
8.0045e-08
-1.0236e-07
7.67361e-08
-1.12173e-07
7.30389e-08
-1.21487e-07
6.89605e-08
-1.30241e-07
6.44832e-08
-1.3839e-07
5.96135e-08
-1.45885e-07
5.43697e-08
-1.52665e-07
4.87568e-08
-1.58673e-07
4.27922e-08
-1.63855e-07
3.64962e-08
-1.68159e-07
2.98895e-08
-1.71537e-07
2.30051e-08
-1.73947e-07
1.58712e-08
-1.75354e-07
8.51975e-09
-1.75728e-07
9.92174e-10
-1.75041e-07
-6.71017e-09
-1.73276e-07
-1.45145e-08
-1.70411e-07
-2.23839e-08
-1.66438e-07
-3.02705e-08
-1.61349e-07
-3.81159e-08
-1.55144e-07
-4.58544e-08
-1.47834e-07
-5.34135e-08
-1.39443e-07
-6.0717e-08
-1.30005e-07
-6.76874e-08
-1.19574e-07
-7.42489e-08
-1.08214e-07
-8.03296e-08
-9.6005e-08
-8.58632e-08
-8.30377e-08
-9.07906e-08
-6.94157e-08
-9.50592e-08
-5.52523e-08
-9.86224e-08
-4.06679e-08
-1.01439e-07
-2.57878e-08
-1.03474e-07
-1.07406e-08
-1.04698e-07
4.34357e-09
-1.05089e-07
1.93332e-08
-1.04628e-07
3.40986e-08
-1.03307e-07
4.85127e-08
-1.0113e-07
6.2453e-08
-9.81178e-08
7.58037e-08
-9.43065e-08
8.8456e-08
-8.97485e-08
1.0031e-07
-8.45089e-08
1.11277e-07
-7.86624e-08
1.21279e-07
-7.22904e-08
1.30253e-07
-6.54758e-08
1.38154e-07
-5.83019e-08
1.44957e-07
-5.085e-08
1.50646e-07
-4.31922e-08
1.55232e-07
-3.5424e-08
1.58729e-07
-2.76095e-08
1.61161e-07
-1.98189e-08
1.62531e-07
-1.20987e-08
1.62833e-07
-4.49607e-09
1.62092e-07
2.97709e-09
1.60334e-07
1.03146e-08
1.57569e-07
1.75203e-08
1.53834e-07
2.45189e-08
1.49273e-07
3.11759e-08
1.43954e-07
3.7427e-08
1.37809e-07
4.32831e-08
1.3085e-07
4.88173e-08
1.23255e-07
5.41404e-08
1.15159e-07
5.92132e-08
1.06507e-07
6.3831e-08
9.72074e-08
6.79033e-08
8.73764e-08
7.15727e-08
7.73249e-08
7.49036e-08
6.70611e-08
7.78482e-08
5.63307e-08
8.03363e-08
4.52375e-08
8.23881e-08
3.41394e-08
8.4037e-08
2.2695e-08
8.52262e-08
1.16418e-08
8.61447e-08
8.65342e-08
-1.23406e-08
1.03855e-07
-2.473e-08
1.03642e-07
-3.70019e-08
1.02658e-07
-4.91316e-08
1.01257e-07
-6.10688e-08
9.93891e-08
-7.27689e-08
9.70588e-08
-8.41905e-08
9.42855e-08
-9.52677e-08
9.10631e-08
-1.05939e-07
8.73767e-08
-1.16176e-07
8.32464e-08
-1.25916e-07
7.8679e-08
-1.35091e-07
7.36587e-08
-1.43644e-07
6.81855e-08
-1.51515e-07
6.22677e-08
-1.58646e-07
5.59201e-08
-1.64976e-07
4.91641e-08
-1.70447e-07
4.20244e-08
-1.75008e-07
3.4518e-08
-1.78616e-07
2.66835e-08
-1.81234e-07
1.85539e-08
-1.82824e-07
1.01605e-08
-1.83371e-07
1.57212e-09
-1.82809e-07
-7.26149e-09
-1.81134e-07
-1.61956e-08
-1.78311e-07
-2.52204e-08
-1.74316e-07
-3.42748e-08
-1.69129e-07
-4.32925e-08
-1.62744e-07
-5.21996e-08
-1.55168e-07
-6.09153e-08
-1.46427e-07
-6.93546e-08
-1.36561e-07
-7.74308e-08
-1.2563e-07
-8.5057e-08
-1.13708e-07
-9.21476e-08
-1.00882e-07
-9.86206e-08
-8.72513e-08
-1.044e-07
-7.29267e-08
-1.09414e-07
-5.80254e-08
-1.13601e-07
-4.26709e-08
-1.16906e-07
-2.69914e-08
-1.19284e-07
-1.11193e-08
-1.20702e-07
4.80871e-09
-1.21134e-07
2.06503e-08
-1.20559e-07
3.62638e-08
-1.18977e-07
5.1506e-08
-1.16396e-07
6.62383e-08
-1.12847e-07
8.03285e-08
-1.08379e-07
9.3654e-08
-1.03057e-07
1.06105e-07
-9.69607e-08
1.17588e-07
-9.01767e-08
1.28025e-07
-8.27974e-08
1.37355e-07
-7.49151e-08
1.45537e-07
-6.66237e-08
1.52548e-07
-5.802e-08
1.58389e-07
-4.92008e-08
1.63048e-07
-4.02597e-08
1.66549e-07
-3.12993e-08
1.68929e-07
-2.23967e-08
1.702e-07
-1.35862e-08
1.70349e-07
-4.88759e-09
1.69404e-07
3.68813e-09
1.67414e-07
1.21298e-08
1.64422e-07
2.03703e-08
1.60427e-07
2.83415e-08
1.55562e-07
3.5845e-08
1.49913e-07
4.28677e-08
1.43417e-07
4.95177e-08
1.3608e-07
5.58703e-08
1.28096e-07
6.19393e-08
1.19618e-07
6.76235e-08
1.10582e-07
7.27486e-08
1.00873e-07
7.73246e-08
9.06512e-08
8.1513e-08
8.02276e-08
8.52889e-08
6.95226e-08
8.86293e-08
5.83696e-08
9.14215e-08
4.69387e-08
9.37949e-08
3.53439e-08
9.54898e-08
2.3594e-08
9.69081e-08
1.19544e-08
9.77285e-08
9.8132e-08
-1.27648e-08
1.16565e-07
-2.55887e-08
1.16254e-07
-3.82921e-08
1.15176e-07
-5.08636e-08
1.1364e-07
-6.32484e-08
1.11598e-07
-7.5391e-08
1.09038e-07
-8.72675e-08
1.05986e-07
-9.88254e-08
1.02456e-07
-1.09976e-07
9.84061e-08
-1.20683e-07
9.3848e-08
-1.30896e-07
8.87855e-08
-1.40542e-07
8.3218e-08
-1.49549e-07
7.71456e-08
-1.57847e-07
7.05619e-08
-1.65377e-07
6.34851e-08
-1.7208e-07
5.5939e-08
-1.77897e-07
4.79502e-08
-1.8278e-07
3.95368e-08
-1.86684e-07
3.07356e-08
-1.89579e-07
2.15884e-08
-1.91419e-07
1.21178e-08
-1.92159e-07
2.39584e-09
-1.91765e-07
-7.60506e-09
-1.90202e-07
-1.77337e-08
-1.87421e-07
-2.79856e-08
-1.83389e-07
-3.82845e-08
-1.78081e-07
-4.85571e-08
-1.71485e-07
-5.87219e-08
-1.63611e-07
-6.86899e-08
-1.54484e-07
-7.83676e-08
-1.44149e-07
-8.76565e-08
-1.3267e-07
-9.64547e-08
-1.20124e-07
-1.04658e-07
-1.06605e-07
-1.12163e-07
-9.22172e-08
-1.1887e-07
-7.70765e-08
-1.24689e-07
-6.13054e-08
-1.29539e-07
-4.50338e-08
-1.33355e-07
-2.83978e-08
-1.36083e-07
-1.15398e-08
-1.37688e-07
5.39007e-09
-1.38143e-07
2.22386e-08
-1.37435e-07
3.88438e-08
-1.35563e-07
5.50454e-08
-1.32548e-07
7.06873e-08
-1.2843e-07
8.56209e-08
-1.23269e-07
9.97099e-08
-1.1714e-07
1.12835e-07
-1.10134e-07
1.249e-07
-1.02349e-07
1.35827e-07
-9.38888e-08
1.4556e-07
-8.48561e-08
1.54059e-07
-7.5357e-08
1.61305e-07
-6.5509e-08
1.67307e-07
-5.54418e-08
1.72046e-07
-4.52388e-08
1.75545e-07
-3.50473e-08
1.77849e-07
-2.49455e-08
1.78991e-07
-1.4959e-08
1.78953e-07
-5.07546e-09
1.77752e-07
4.68962e-09
1.75506e-07
1.42561e-08
1.72236e-07
2.35686e-08
1.67942e-07
3.2499e-08
1.62707e-07
4.08707e-08
1.56632e-07
4.8732e-08
1.49712e-07
5.62491e-08
1.41978e-07
6.34462e-08
1.33582e-07
7.02455e-08
1.24644e-07
7.65245e-08
1.15133e-07
8.21745e-08
1.04982e-07
8.73097e-08
9.43978e-08
9.20013e-08
8.35256e-08
9.62181e-08
7.22783e-08
9.98928e-08
6.06636e-08
1.02931e-07
4.88413e-08
1.05587e-07
3.66898e-08
1.07318e-07
2.46379e-08
1.09018e-07
1.22462e-08
1.09607e-07
1.10185e-07
-1.32305e-08
1.2968e-07
-2.65407e-08
1.2925e-07
-3.97226e-08
1.28088e-07
-5.27831e-08
1.26419e-07
-6.56766e-08
1.24219e-07
-7.83219e-08
1.21449e-07
-9.0694e-08
1.18118e-07
-1.02773e-07
1.1427e-07
-1.14464e-07
1.09871e-07
-1.25696e-07
1.04899e-07
-1.36418e-07
9.93432e-08
-1.46575e-07
9.32269e-08
-1.56081e-07
8.655e-08
-1.64862e-07
7.93096e-08
-1.72852e-07
7.15152e-08
-1.79994e-07
6.31867e-08
-1.86231e-07
5.43464e-08
-1.91514e-07
4.50167e-08
-1.95795e-07
3.52312e-08
-1.9903e-07
2.50324e-08
-2.01164e-07
1.44388e-08
-2.02171e-07
3.55618e-09
-2.01971e-07
-7.68247e-09
-2.00521e-07
-1.90867e-08
-1.97778e-07
-3.06424e-08
-1.93701e-07
-4.22754e-08
-1.88261e-07
-5.39041e-08
-1.81447e-07
-6.54385e-08
-1.73263e-07
-7.678e-08
-1.63733e-07
-8.78223e-08
-1.52901e-07
-9.84503e-08
-1.40828e-07
-1.0854e-07
-1.27591e-07
-1.17964e-07
-1.13287e-07
-1.26592e-07
-9.80249e-08
-1.34303e-07
-8.19275e-08
-1.40984e-07
-6.51281e-08
-1.4654e-07
-4.77692e-08
-1.50895e-07
-3.00011e-08
-1.53993e-07
-1.19827e-08
-1.55797e-07
6.11965e-09
-1.56279e-07
2.41323e-08
-1.5543e-07
4.18771e-08
-1.53253e-07
5.91754e-08
-1.49775e-07
7.5852e-08
-1.45043e-07
9.17411e-08
-1.39126e-07
1.06693e-07
-1.32111e-07
1.20579e-07
-1.24098e-07
1.33298e-07
-1.15202e-07
1.44778e-07
-1.05542e-07
1.54965e-07
-9.52366e-08
1.6382e-07
-8.44091e-08
1.71326e-07
-7.32013e-08
1.77478e-07
-6.17636e-08
1.82298e-07
-5.02241e-08
1.85782e-07
-3.87099e-08
1.87977e-07
-2.73164e-08
1.88948e-07
-1.60688e-08
1.88694e-07
-4.93105e-09
1.87207e-07
6.08635e-09
1.84625e-07
1.68151e-08
1.81031e-07
2.71858e-08
1.76392e-07
3.70774e-08
1.70728e-07
4.6361e-08
1.64147e-07
5.51376e-08
1.56738e-07
6.35661e-08
1.48581e-07
7.15875e-08
1.39751e-07
7.90682e-08
1.30288e-07
8.59105e-08
1.20191e-07
9.21025e-08
1.09557e-07
9.77654e-08
9.85617e-08
1.02905e-07
8.71762e-08
1.07509e-07
7.53225e-08
1.11455e-07
6.31804e-08
1.14705e-07
5.08701e-08
1.17573e-07
3.8192e-08
1.19487e-07
2.57128e-08
1.21409e-07
1.26653e-08
1.21926e-07
1.22717e-07
-1.37346e-08
1.43239e-07
-2.75924e-08
1.42688e-07
-4.13086e-08
1.41461e-07
-5.48974e-08
1.39653e-07
-6.83527e-08
1.37298e-07
-8.15695e-08
1.34348e-07
-9.44844e-08
1.3076e-07
-1.07112e-07
1.26578e-07
-1.19383e-07
1.21822e-07
-1.31191e-07
1.16445e-07
-1.42474e-07
1.1042e-07
-1.53177e-07
1.03762e-07
-1.63229e-07
9.6482e-08
-1.72553e-07
8.85868e-08
-1.8108e-07
8.00818e-08
-1.88746e-07
7.09766e-08
-1.95492e-07
6.12847e-08
-2.01263e-07
5.10273e-08
-2.06001e-07
4.02341e-08
-2.09646e-07
2.89476e-08
-2.12151e-07
1.72038e-08
-2.13414e-07
5.06013e-09
-2.13429e-07
-7.44898e-09
-2.12115e-07
-2.02043e-08
-2.09426e-07
-3.31559e-08
-2.0532e-07
-4.62273e-08
-1.99768e-07
-5.93302e-08
-1.92751e-07
-7.2364e-08
-1.84266e-07
-8.52166e-08
-1.74327e-07
-9.7763e-08
-1.62968e-07
-1.09865e-07
-1.50243e-07
-1.21372e-07
-1.36228e-07
-1.32128e-07
-1.21022e-07
-1.41979e-07
-1.04743e-07
-1.5078e-07
-8.7526e-08
-1.58401e-07
-6.95223e-08
-1.64733e-07
-5.08929e-08
-1.69691e-07
-3.18081e-08
-1.73212e-07
-1.24466e-08
-1.75251e-07
7.00526e-09
-1.7578e-07
2.63542e-08
-1.74786e-07
4.54028e-08
-1.72274e-07
6.39517e-08
-1.68275e-07
8.18045e-08
-1.62843e-07
9.87761e-08
-1.56058e-07
1.14702e-07
-1.48024e-07
1.29446e-07
-1.38862e-07
1.42901e-07
-1.28706e-07
1.54995e-07
-1.17698e-07
1.65678e-07
-1.05979e-07
1.74916e-07
-9.36952e-08
1.82688e-07
-8.10123e-08
1.89e-07
-6.81097e-08
1.93876e-07
-5.51401e-08
1.9732e-07
-4.22248e-08
1.99366e-07
-2.94508e-08
2.00112e-07
-1.68584e-08
1.99595e-07
-4.40384e-09
1.978e-07
7.89936e-09
1.94839e-07
1.98263e-08
1.90851e-07
3.12578e-08
1.85794e-07
4.21337e-08
1.79644e-07
5.23828e-08
1.72509e-07
6.21316e-08
1.64555e-07
7.1479e-08
1.5591e-07
8.02751e-08
1.46588e-07
8.83664e-08
1.36532e-07
9.57486e-08
1.25764e-07
1.0251e-07
1.14577e-07
1.08638e-07
1.03071e-07
1.14194e-07
9.11048e-08
1.19146e-07
7.86465e-08
1.23338e-07
6.59042e-08
1.26851e-07
5.30211e-08
1.29823e-07
3.98716e-08
1.32116e-07
2.67967e-08
1.34064e-07
1.32392e-08
1.34916e-07
1.35716e-07
-1.42775e-08
1.57287e-07
-2.87427e-08
1.56624e-07
-4.30653e-08
1.55363e-07
-5.72183e-08
1.53419e-07
-7.1259e-08
1.50887e-07
-8.51198e-08
1.47779e-07
-9.86432e-08
1.43976e-07
-1.1185e-07
1.39478e-07
-1.24716e-07
1.34342e-07
-1.37141e-07
1.28549e-07
-1.4904e-07
1.22071e-07
-1.60347e-07
1.14896e-07
-1.71003e-07
1.07031e-07
-1.80939e-07
9.84873e-08
-1.90085e-07
8.92725e-08
-1.98368e-07
7.93876e-08
-2.05719e-07
6.8837e-08
-2.12068e-07
5.76345e-08
-2.17341e-07
4.58036e-08
-2.2146e-07
3.33877e-08
-2.24343e-07
2.04187e-08
-2.2594e-07
6.98663e-09
-2.26194e-07
-6.87857e-09
-2.25047e-07
-2.1061e-08
-2.22453e-07
-3.55017e-08
-2.18365e-07
-5.01217e-08
-2.12744e-07
-6.48239e-08
-2.05557e-07
-7.94941e-08
-1.96783e-07
-9.40007e-08
-1.86421e-07
-1.08194e-07
-1.74489e-07
-1.21909e-07
-1.61035e-07
-1.34967e-07
-1.46133e-07
-1.47185e-07
-1.29889e-07
-1.58386e-07
-1.12436e-07
-1.68401e-07
-9.39277e-08
-1.77083e-07
-7.45362e-08
-1.84305e-07
-5.44452e-08
-1.89966e-07
-3.38477e-08
-1.93989e-07
-1.29445e-08
-1.96314e-07
8.05649e-09
-1.96903e-07
2.89389e-08
-1.95737e-07
4.94811e-08
-1.92824e-07
6.94579e-08
-1.88202e-07
8.86477e-08
-1.81939e-07
1.06844e-07
-1.74138e-07
1.23866e-07
-1.64928e-07
1.39568e-07
-1.54457e-07
1.53838e-07
-1.42886e-07
1.66602e-07
-1.30382e-07
1.77817e-07
-1.17115e-07
1.87456e-07
-1.03255e-07
1.95495e-07
-8.89875e-08
2.01947e-07
-7.45206e-08
2.06853e-07
-6.00271e-08
2.10223e-07
-4.56125e-08
2.12081e-07
-3.13586e-08
2.12549e-07
-1.73242e-08
2.11721e-07
-3.48556e-09
2.09575e-07
1.01468e-08
2.06212e-07
2.32845e-08
2.01745e-07
3.58291e-08
1.96168e-07
4.77433e-08
1.89466e-07
5.90122e-08
1.81743e-07
6.97592e-08
1.73188e-07
8.0012e-08
1.63959e-07
8.95381e-08
1.5405e-07
9.82005e-08
1.43314e-07
1.06164e-07
1.31852e-07
1.13512e-07
1.20022e-07
1.20108e-07
1.07909e-07
1.26054e-07
9.52976e-08
1.31364e-07
8.2243e-08
1.35815e-07
6.88468e-08
1.39684e-07
5.53368e-08
1.42656e-07
4.1699e-08
1.45419e-07
2.79216e-08
1.47237e-07
1.38543e-08
1.4869e-07
1.49317e-07
-1.48704e-08
1.71885e-07
-2.99754e-08
1.7111e-07
-4.49837e-08
1.69847e-07
-5.97687e-08
1.67813e-07
-7.43928e-08
1.65074e-07
-8.89269e-08
1.61784e-07
-1.03137e-07
1.57797e-07
-1.16982e-07
1.53039e-07
-1.30464e-07
1.47536e-07
-1.43531e-07
1.41317e-07
-1.56096e-07
1.34379e-07
-1.68078e-07
1.26701e-07
-1.79416e-07
1.18275e-07
-1.90049e-07
1.091e-07
-1.99901e-07
9.91787e-08
-2.08894e-07
8.85055e-08
-2.16941e-07
7.70787e-08
-2.23951e-07
6.49034e-08
-2.29827e-07
5.19935e-08
-2.3447e-07
3.83876e-08
-2.378e-07
2.41363e-08
-2.39785e-07
9.36911e-09
-2.40325e-07
-5.95457e-09
-2.39411e-07
-2.16323e-08
-2.36985e-07
-3.76506e-08
-2.32987e-07
-5.39264e-08
-2.27354e-07
-7.03519e-08
-2.20031e-07
-8.67944e-08
-2.10973e-07
-1.03099e-07
-2.00156e-07
-1.19089e-07
-1.87588e-07
-1.3457e-07
-1.73311e-07
-1.49337e-07
-1.57403e-07
-1.63183e-07
-1.39982e-07
-1.75904e-07
-1.21197e-07
-1.87307e-07
-1.01222e-07
-1.97217e-07
-8.02511e-08
-2.05479e-07
-5.84919e-08
-2.11965e-07
-3.61614e-08
-2.16571e-07
-1.34862e-08
-2.19219e-07
9.29737e-09
-2.19857e-07
3.19432e-08
-2.18464e-07
5.41962e-08
-2.15056e-07
7.57994e-08
-2.09688e-07
9.65022e-08
-2.02456e-07
1.16074e-07
-1.9349e-07
1.34318e-07
-1.82953e-07
1.5108e-07
-1.71024e-07
1.66244e-07
-1.5789e-07
1.79734e-07
-1.43744e-07
1.91512e-07
-1.28786e-07
2.01566e-07
-1.13214e-07
2.09871e-07
-9.72264e-08
2.16436e-07
-8.1058e-08
2.21325e-07
-6.4905e-08
2.24575e-07
-4.8867e-08
2.26206e-07
-3.30168e-08
2.26347e-07
-1.74351e-08
2.25148e-07
-2.13866e-09
2.22622e-07
1.28432e-08
2.18783e-07
2.72489e-08
2.1375e-07
4.09578e-08
2.07537e-07
5.39891e-08
2.00196e-07
6.63312e-08
1.91846e-07
7.80735e-08
1.82629e-07
8.92091e-08
1.72707e-07
9.94452e-08
1.6208e-07
1.08699e-07
1.50598e-07
1.17319e-07
1.38451e-07
1.25253e-07
1.25932e-07
1.32342e-07
1.13107e-07
1.38666e-07
9.98001e-08
1.44332e-07
8.60971e-08
1.49101e-07
7.20234e-08
1.53359e-07
5.78426e-08
1.56333e-07
4.3618e-08
1.59457e-07
2.91086e-08
1.61242e-07
1.44141e-08
1.63125e-07
1.63642e-07
-1.55375e-08
1.87113e-07
-3.1275e-08
1.86216e-07
-4.70152e-08
1.84936e-07
-6.25473e-08
1.82907e-07
-7.77787e-08
1.7999e-07
-9.29539e-08
1.76451e-07
-1.07895e-07
1.72252e-07
-1.22459e-07
1.67275e-07
-1.36622e-07
1.61472e-07
-1.5037e-07
1.54862e-07
-1.63646e-07
1.47468e-07
-1.76374e-07
1.39288e-07
-1.88484e-07
1.30308e-07
-1.99904e-07
1.20513e-07
-2.10556e-07
1.09887e-07
-2.20347e-07
9.84164e-08
-2.29175e-07
8.60911e-08
-2.36926e-07
7.29056e-08
-2.43482e-07
5.88666e-08
-2.48731e-07
4.40091e-08
-2.52598e-07
2.84125e-08
-2.54975e-07
1.21651e-08
-2.55907e-07
-4.62726e-09
-2.55326e-07
-2.18743e-08
-2.53168e-07
-3.95494e-08
-2.49344e-07
-5.75811e-08
-2.4376e-07
-7.58506e-08
-2.36326e-07
-9.42042e-08
-2.26973e-07
-1.12461e-07
-2.15662e-07
-1.30416e-07
-2.0239e-07
-1.47849e-07
-1.87199e-07
-1.64528e-07
-1.70174e-07
-1.80216e-07
-1.51441e-07
-1.94676e-07
-1.31165e-07
-2.0768e-07
-1.09538e-07
-2.19011e-07
-8.67748e-08
-2.28474e-07
-6.31085e-08
-2.35902e-07
-3.87859e-08
-2.41162e-07
-1.40684e-08
-2.44154e-07
1.07685e-08
-2.44819e-07
3.54365e-08
-2.4314e-07
5.96398e-08
-2.3915e-07
8.30846e-08
-2.32932e-07
1.0549e-07
-2.2461e-07
1.26601e-07
-2.14348e-07
1.46203e-07
-2.02339e-07
1.64136e-07
-1.88794e-07
1.80282e-07
-1.73927e-07
1.94562e-07
-1.57954e-07
2.0694e-07
-1.41112e-07
2.17416e-07
-1.23636e-07
2.2598e-07
-1.05746e-07
2.32619e-07
-8.76853e-08
2.37428e-07
-6.97071e-08
2.40485e-07
-5.19013e-08
2.41831e-07
-3.43505e-08
2.41599e-07
-1.71487e-08
2.3998e-07
-3.52114e-10
2.36977e-07
1.60329e-08
2.32591e-07
3.17502e-08