/*--------------------------------*- C++ -*----------------------------------*\
| =========                 |                                                 |
| \\      /  F ield         | OpenFOAM: The Open Source CFD Toolbox           |
|  \\    /   O peration     | Version:  2412                                  |
|   \\  /    A nd           | Website:  www.openfoam.com                      |
|    \\/     M anipulation  |                                                 |
\*---------------------------------------------------------------------------*/
FoamFile
{
    version     2.0;
    format      ascii;
    arch        "LSB;label=32;scalar=64";
    class       volScalarField;
    location    "0.3";
    object      alpha.soap;
}
// * * * * * * * * * * * * * * * * * * * * * * * * * * * * * * * * * * * * * //

dimensions      [0 0 0 0 0 0 0];

internalField   nonuniform List<scalar> 
6400
(
1
1
1
1
1
1
1
1
1
1
1
1
1
1
1
1
1
1
1
1
1
1
1
1
1
1
1
1
1
1
1
1
1
1
1
1
1
1
1
1
1
1
1
1
1
1
1
1
1
1
1
1
1
1
1
1
1
1
1
1
1
1
1
1
1
1
1
1
1
1
1
1
1
1
1
1
1
1
1
1
1
1
1
1
1
1
1
1
1
1
1
1
1
1
1
1
1
1
1
1
1
1
1
1
1
1
1
1
1
1
1
1
1
1
1
1
1
1
1
1
1
1
1
1
1
1
1
1
1
1
1
1
1
1
1
1
1
1
1
1
1
1
1
1
1
1
1
1
1
1
1
1
1
1
1
1
1
1
1
1
1
1
1
1
1
1
1
1
1
1
1
1
1
1
1
1
1
1
1
1
1
1
1
1
1
1
1
1
1
1
1
1
1
1
1
1
1
1
1
1
1
1
1
1
1
1
1
1
1
1
1
1
1
1
1
1
1
1
1
1
1
1
1
1
1
1
1
1
1
1
1
1
1
1
1
1
1
1
1
1
1
1
1
1
1
1
1
1
1
1
1
1
1
1
1
1
1
1
1
1
1
1
1
1
1
1
1
1
1
1
1
1
1
1
1
1
1
1
1
1
1
1
1
1
1
1
1
1
1
1
1
1
1
1
1
1
1
1
1
1
1
1
1
1
1
1
1
1
1
1
1
1
1
1
1
1
1
1
1
1
1
1
1
1
1
1
1
1
1
1
1
1
1
1
1
1
1
1
1
1
1
1
1
1
1
1
1
1
1
1
1
1
1
1
1
1
1
1
1
1
1
1
1
1
1
1
1
1
1
1
1
1
1
1
1
1
1
1
1
1
1
1
1
1
1
1
1
1
1
1
1
1
1
1
1
1
1
1
1
1
1
1
1
1
1
1
1
1
1
1
1
1
1
1
1
1
1
1
1
1
1
1
1
1
1
1
1
1
1
1
1
1
1
1
1
1
1
1
1
1
1
1
1
1
1
1
1
1
1
1
1
1
1
1
1
1
1
1
1
1
1
1
1
1
1
1
1
1
1
1
1
1
1
1
1
1
1
1
1
1
1
1
1
1
1
1
1
1
1
1
1
1
1
1
1
1
1
1
1
1
1
1
1
1
1
1
1
1
1
1
1
1
1
1
1
1
1
1
1
1
1
1
1
1
1
1
1
1
1
1
1
1
1
1
1
1
1
1
1
1
1
1
1
1
1
1
1
1
1
1
1
1
1
1
1
1
1
1
1
1
1
1
1
1
1
1
1
1
1
1
1
1
1
1
1
1
1
1
1
1
1
1
1
1
1
1
1
1
1
1
1
1
1
1
1
1
1
1
1
1
1
1
1
1
1
1
1
1
1
1
1
1
1
1
1
1
1
1
1
1
1
1
1
1
1
1
1
1
1
1
1
1
1
1
1
1
1
1
1
1
1
1
1
1
1
1
1
1
1
1
1
1
1
1
1
1
1
1
1
1
1
1
1
1
1
1
1
1
1
1
1
1
1
1
1
1
1
1
1
1
1
1
1
1
1
1
1
1
1
1
1
1
1
1
1
1
1
1
1
1
1
1
1
1
1
1
1
1
1
1
1
1
1
1
1
1
1
1
1
1
1
1
1
1
1
1
1
1
1
1
1
1
1
1
1
1
1
1
1
1
1
1
1
1
1
1
1
1
1
1
1
1
1
1
1
1
1
1
1
1
1
1
1
1
1
1
1
1
1
1
1
1
1
1
1
1
1
1
1
1
1
1
1
1
1
1
1
1
1
1
1
1
1
1
1
1
1
1
1
1
1
1
1
1
1
1
1
1
1
1
1
1
1
1
1
1
1
1
1
1
1
1
1
1
1
1
1
1
1
1
1
1
1
1
1
1
1
1
1
1
1
1
1
1
1
1
1
1
1
1
1
1
1
1
1
1
1
1
1
1
1
1
1
1
1
1
1
1
1
1
1
1
1
1
1
1
1
1
1
1
1
1
1
1
1
1
1
1
1
1
1
1
1
1
1
1
1
1
1
1
1
1
1
1
1
1
1
1
1
1
1
1
1
1
1
1
1
1
1
1
1
1
1
1
1
1
1
1
1
1
1
1
1
1
1
1
1
1
1
1
1
1
1
1
1
1
1
1
1
1
1
1
1
1
1
1
1
1
1
1
1
1
1
1
1
1
1
1
1
1
1
1
1
1
1
1
1
1
1
1
1
1
1
1
1
1
1
1
1
1
1
1
1
1
1
1
1
1
1
1
1
1
1
1
1
1
1
1
1
1
1
1
1
1
1
1
1
1
1
1
1
1
1
1
1
1
1
1
1
1
1
1
1
1
1
1
1
1
1
1
1
1
1
1
1
1
1
1
1
1
1
1
1
1
1
1
1
1
1
1
1
1
1
1
1
1
1
1
1
1
1
1
1
1
1
1
1
1
1
1
1
1
1
1
1
1
1
1
1
1
1
1
1
1
1
1
1
1
1
1
1
1
1
1
1
1
1
1
1
1
1
1
1
1
1
1
1
1
1
1
1
1
1
1
1
1
1
1
1
1
1
1
1
1
1
1
1
1
1
1
1
1
1
1
1
1
1
1
1
1
1
1
1
1
1
1
1
1
1
1
1
1
1
1
1
1
1
1
1
1
1
1
1
1
1
1
1
1
1
1
1
1
1
1
1
1
1
1
1
1
1
1
1
1
1
1
1
1
1
1
1
1
1
1
1
1
1
1
1
1
1
1
1
1
1
1
1
1
1
1
1
1
1
1
1
1
1
1
1
1
1
1
1
1
1
1
1
1
1
1
1
1
1
1
1
1
1
1
1
1
1
1
1
1
1
1
1
1
1
1
1
1
1
1
1
1
1
1
1
1
1
1
1
1
1
1
1
1
1
1
1
1
1
1
1
1
1
1
1
1
1
1
1
1
1
1
1
1
1
1
1
1
1
1
1
1
1
1
1
1
1
1
1
1
1
1
1
1
1
1
1
1
1
1
1
1
1
1
1
1
1
1
1
1
1
1
1
1
1
1
1
1
1
1
1
1
1
1
1
1
1
1
1
1
1
1
1
1
1
1
1
1
1
1
1
1
1
1
1
1
1
1
1
1
1
1
1
1
1
1
1
1
1
1
1
1
1
1
1
1
1
1
1
1
1
1
1
1
1
1
1
1
1
1
1
1
1
1
1
1
1
1
1
1
1
1
1
1
1
1
1
1
1
1
1
1
1
1
1
1
1
1
1
1
1
1
1
1
1
1
1
1
1
1
1
1
1
1
1
1
1
1
1
1
1
1
1
1
1
1
1
1
1
1
1
1
1
1
1
1
1
1
1
1
1
1
1
1
1
1
1
1
1
1
1
1
1
1
1
1
1
1
1
1
1
1
1
1
1
1
1
1
1
1
1
1
1
1
1
1
1
1
1
1
1
1
1
1
1
1
1
1
1
1
1
1
1
1
1
1
1
1
1
1
1
1
1
1
1
1
1
1
0.999995
0.999984
0.99997
0.999956
0.999943
0.999929
0.999915
0.999901
0.999887
0.999874
0.999862
0.999851
0.999841
0.999832
0.999825
0.999819
0.999815
0.999812
0.999812
0.999813
0.999816
0.999821
0.999828
0.999836
0.999846
0.999856
0.999868
0.99988
0.999893
0.999907
0.99992
0.999934
0.999948
0.999962
0.999975
0.999988
0.999999
1
1
1
1
1
1
1
1
1
1
1
1
1
1
1
1
1
1
1
1
1
0.000137767
0.000137432
0.000136255
0.000134623
0.000132609
0.00013005
0.000126916
0.000123201
0.000118909
0.000114045
0.000108596
0.000102539
9.58641e-05
8.85635e-05
8.06245e-05
7.20363e-05
6.27873e-05
5.28912e-05
4.23997e-05
3.14121e-05
2.00838e-05
9.14222e-06
1.33779e-06
2.96318e-56
2.96318e-56
7.51575e-55
3.73135e-53
1.81689e-51
8.05795e-50
3.24814e-48
1.18429e-46
3.8776e-45
1.12954e-43
2.89374e-42
6.42768e-41
1.21605e-39
1.91566e-38
2.43995e-37
2.41506e-36
1.75523e-35
3.17293e-35
4.42763e-36
2.34862e-37
7.02948e-39
1.5106e-40
2.6536e-42
4.09222e-44
5.89914e-46
8.41509e-48
1.2354e-49
1.89665e-51
3.04367e-53
5.06425e-55
8.62878e-57
1.52851e-58
2.8988e-60
0
-3.56096e-40
2.11176e-06
1.21002e-05
2.3099e-05
3.40758e-05
4.47683e-05
5.48705e-05
6.42332e-05
7.30048e-05
8.12106e-05
8.87343e-05
9.55458e-05
0.000101691
0.000107266
0.000112115
0.000116417
0.000120494
0.000124207
0.000126977
0.000129204
0.000130441
0.000131809
0.000132014
1.27943e-10
1.27337e-10
1.32074e-10
1.29928e-10
1.26758e-10
1.23686e-10
1.20533e-10
1.16793e-10
1.12227e-10
1.06713e-10
1.00265e-10
9.29392e-11
8.47105e-11
7.56342e-11
6.58608e-11
5.56245e-11
4.52727e-11
3.51844e-11
2.57767e-11
1.73782e-11
1.01323e-11
3.99407e-12
-1.022e-16
9.1814e-54
9.6207e-54
9.53884e-52
4.49944e-50
1.927e-48
7.45294e-47
2.58343e-45
7.95071e-44
2.14773e-42
5.02111e-41
1.00631e-39
1.68682e-38
2.29212e-37
2.43247e-36
1.92065e-35
1.16608e-34
2.88114e-34
3.95007e-34
1.75506e-34
2.9191e-35
2.34862e-37
7.02948e-39
1.5106e-40
2.6536e-42
4.09222e-44
5.89914e-46
8.41509e-48
1.2354e-49
1.89665e-51
3.04367e-53
5.06425e-55
8.58403e-57
1.52851e-58
3.68329e-59
-2.0568e-43
-1.68829e-16
5.42433e-12
1.14658e-11
1.86108e-11
2.67445e-11
3.59449e-11
4.57708e-11
5.53723e-11
6.46593e-11
7.39384e-11
8.24056e-11
8.98724e-11
9.62191e-11
1.0311e-10
1.08605e-10
1.12629e-10
1.15642e-10
1.18374e-10
1.21643e-10
1.25335e-10
1.22771e-10
1.26059e-10
4.39727e-13
4.38541e-13
4.48521e-13
4.3917e-13
4.27663e-13
4.15639e-13
4.02258e-13
3.86097e-13
3.66611e-13
3.43537e-13
3.1704e-13
2.87475e-13
2.55046e-13
2.20336e-13
1.84289e-13
1.49082e-13
1.15808e-13
8.49321e-14
5.78773e-14
3.55957e-14
1.82517e-14
5.92069e-15
-3.4825e-17
2.60754e-51
2.71413e-51
2.67156e-49
1.26288e-47
5.42118e-46
2.10161e-44
7.30378e-43
2.25528e-41
6.12076e-40
1.44084e-38
2.89435e-37
4.86138e-36
6.65188e-35
7.1633e-34
5.83777e-33
3.60439e-32
1.06658e-31
1.59709e-31
5.67039e-32
9.18683e-33
1.03207e-34
3.24473e-36
7.34073e-38
1.36082e-39
2.21421e-41
3.35316e-43
4.98543e-45
7.56923e-47
1.19725e-48
1.97874e-50
3.39695e-52
6.0008e-54
1.10156e-55
1.49271e-56
-2.57238e-46
-6.76221e-17
8.59465e-15
2.14493e-14
3.90351e-14
6.08957e-14
8.7423e-14
1.17486e-13
1.48381e-13
1.80123e-13
2.13947e-13
2.45951e-13
2.75286e-13
3.01499e-13
3.28779e-13
3.5065e-13
3.67205e-13
3.80357e-13
3.91523e-13
4.04887e-13
4.18676e-13
4.12628e-13
4.20908e-13
2.67204e-15
2.66012e-15
2.72397e-15
2.66538e-15
2.59016e-15
2.51014e-15
2.42041e-15
2.31187e-15
2.18085e-15
2.02573e-15
1.84806e-15
1.65097e-15
1.43735e-15
1.21262e-15
9.84478e-16
7.62799e-16
5.58208e-16
3.80314e-16
2.36415e-16
1.29333e-16
5.70603e-17
1.49766e-17
-1.65574e-30
5.06437e-49
5.19848e-49
5.09469e-47
2.38676e-45
1.01479e-43
3.89398e-42
1.33873e-40
4.08741e-39
1.09657e-37
2.55192e-36
5.071e-35
8.43791e-34
1.14691e-32
1.23248e-31
1.00845e-30
6.24944e-30
1.97615e-29
3.0373e-29
1.00423e-29
1.61862e-30
2.31091e-32
7.57201e-34
1.79798e-35
3.51458e-37
6.0384e-39
9.62281e-41
1.4936e-42
2.34311e-44
3.79412e-46
6.37998e-48
1.10982e-49
1.9818e-51
3.68604e-53
3.91862e-54
-3.70078e-49
8.93877e-26
2.33654e-17
6.96612e-17
1.44643e-16
2.51595e-16
3.93455e-16
5.65728e-16
7.5523e-16
9.56098e-16
1.16843e-15
1.37437e-15
1.56633e-15
1.73946e-15
1.91924e-15
2.06664e-15
2.17935e-15
2.26865e-15
2.3453e-15
2.43397e-15
2.5242e-15
2.48758e-15
2.53719e-15
3.12336e-17
3.13467e-17
3.06012e-17
2.96252e-17
2.8577e-17
2.72523e-17
2.55497e-17
2.34642e-17
2.10102e-17
1.82362e-17
1.52298e-17
1.20552e-17
9.01233e-18
6.30347e-18
4.53681e-18
3.34249e-18
2.3268e-18
1.49198e-18
8.59121e-19
4.26091e-19
1.65323e-19
3.67162e-20
-7.70619e-33
7.53061e-47
7.57999e-47
7.39064e-45
3.42233e-43
1.43694e-41
5.441e-40
1.84457e-38
5.55031e-37
1.46696e-35
3.36331e-34
6.58807e-33
1.082e-31
1.45491e-30
1.55229e-29
1.26706e-28
7.83429e-28
2.57481e-27
4.01204e-27
1.276e-27
2.05461e-28
3.41045e-30
1.16628e-31
2.91276e-33
6.02265e-35
1.09786e-36
1.85379e-38
3.0315e-40
4.96878e-42
8.33146e-44
1.44039e-45
2.56443e-47
4.67068e-49
8.91473e-51
6.66523e-52
6.49429e-52
5.60158e-29
6.08927e-20
2.1055e-19
4.89469e-19
9.29359e-19
1.55738e-18
2.36627e-18
3.31793e-18
4.47137e-18
6.53083e-18
9.27049e-18
1.22917e-17
1.50344e-17
1.75061e-17
2.04292e-17
2.26287e-17
2.43202e-17
2.57406e-17
2.68281e-17
2.81045e-17
2.87521e-17
2.87599e-17
3.07507e-19
3.07893e-19
3.06554e-19
2.94902e-19
2.81768e-19
2.66364e-19
2.47933e-19
2.26045e-19
2.009e-19
1.73081e-19
1.4362e-19
1.13512e-19
8.41283e-20
5.73263e-20
3.55661e-20
1.84512e-20
1.18547e-20
7.17172e-21
3.83577e-21
1.73052e-21
5.93373e-22
1.12261e-22
-6.35806e-35
2.66056e-46
8.9865e-45
8.64639e-43
3.93797e-41
1.62859e-39
6.06818e-38
2.02273e-36
5.9808e-35
1.55284e-33
3.49775e-32
6.73537e-31
1.0888e-29
1.4439e-28
1.52385e-27
1.23526e-26
7.5904e-26
2.55163e-25
4.00534e-25
1.24721e-25
2.01261e-26
3.71676e-28
1.32878e-29
3.4984e-31
7.67414e-33
1.49041e-34
2.68213e-36
4.65578e-38
8.04594e-40
1.41149e-41
2.5339e-43
4.65791e-45
8.72638e-47
1.73188e-48
1.15925e-49
8.7137e-50
-1.66719e-34
1.97537e-22
7.87511e-22
2.04127e-21
4.21691e-21
7.5551e-21
1.21277e-20
2.15104e-20
3.73776e-20
5.76958e-20
8.32091e-20
1.09809e-19
1.35602e-19
1.61712e-19
1.88742e-19
2.10216e-19
2.27718e-19
2.42661e-19
2.57006e-19
2.72052e-19
2.74353e-19
2.77808e-19
2.23167e-21
2.23502e-21
2.22967e-21
2.14336e-21
2.044e-21
1.92762e-21
1.78927e-21
1.62562e-21
1.43832e-21
1.23206e-21
1.01493e-21
7.95369e-22
5.83609e-22
3.92971e-22
2.39249e-22
1.22737e-22
7.21053e-23
4.12371e-23
2.05618e-23
8.47846e-24
2.58626e-24
4.20594e-25
-1.11066e-35
2.88421e-44
9.05818e-43
8.44338e-41
3.75612e-39
1.52636e-37
5.5824e-36
1.82508e-34
5.28999e-33
1.34618e-31
2.97266e-30
5.61543e-29
8.91511e-28
1.16312e-26
1.2107e-25
9.71357e-25
5.91556e-24
2.01339e-23
3.17235e-23
9.77748e-24
1.59691e-24
3.17592e-26
1.18928e-27
3.30868e-29
7.72161e-31
1.60344e-32
3.0907e-34
5.73235e-36
1.05253e-37
1.94871e-39
3.66743e-41
7.02198e-43
1.36299e-44
2.84793e-46
1.77635e-47
5.42344e-49
-1.48905e-36
7.83096e-25
3.57142e-24
1.02692e-23
2.29736e-23
4.3807e-23
7.39789e-23
1.40797e-22
2.48951e-22
3.91031e-22
5.68363e-22
7.57489e-22
9.45342e-22
1.13827e-21
1.33339e-21
1.49235e-21
1.6244e-21
1.73667e-21
1.84613e-21
1.95732e-21
1.97273e-21
1.9989e-21
1.84426e-23
1.84745e-23
1.84447e-23
1.77255e-23
1.68827e-23
1.58924e-23
1.47171e-23
1.33291e-23
1.17438e-23
1.00039e-23
8.18141e-24
6.35459e-24
4.61557e-24
3.07347e-24
1.84217e-24
9.37158e-25
5.13323e-25
2.78628e-25
1.30113e-25
4.93207e-26
1.34909e-26
1.90614e-27
-6.52915e-37
1.77369e-42
1.5815e-40
6.98696e-39
3.02759e-37
1.2067e-35
4.32299e-34
1.38342e-32
3.9235e-31
9.76899e-30
2.11125e-28
3.90565e-27
6.07849e-26
7.78616e-25
7.97555e-24
6.31756e-23
3.8059e-22
1.30251e-21
2.0553e-21
6.31769e-22
1.04445e-22
2.2054e-24
8.66846e-26
2.55486e-27
6.36156e-29
1.41721e-30
2.93862e-32
5.85764e-34
1.15082e-35
2.26515e-37
4.50317e-39
9.05418e-41
1.83498e-42
1.73227e-43
2.8104e-45
7.5792e-47
-3.59513e-37
3.73862e-27
1.92926e-26
6.10874e-26
1.47349e-25
2.98026e-25
5.27325e-25
1.05704e-24
1.89728e-24
3.02862e-24
4.44109e-24
5.97824e-24
7.53073e-24
9.14068e-24
1.07571e-23
1.20984e-23
1.3227e-23
1.41855e-23
1.51141e-23
1.60427e-23
1.61737e-23
1.63882e-23
1.73105e-25
1.73477e-25
1.73338e-25
1.66557e-25
1.58496e-25
1.48995e-25
1.37724e-25
1.24419e-25
1.09238e-25
9.26151e-26
7.52702e-26
5.80081e-26
4.1745e-26
2.75072e-26
1.62493e-26
8.17832e-27
4.21745e-27
2.1828e-27
9.59608e-28
3.36622e-28
8.33022e-29
1.03468e-29
-9.49349e-38
1.222e-40
1.1781e-38
4.96267e-37
2.08779e-35
8.14869e-34
2.85472e-32
8.92841e-31
2.47414e-29
6.01915e-28
1.27138e-26
2.29998e-25
3.50382e-24
4.39977e-23
4.42757e-22
3.45649e-21
2.05713e-20
7.04348e-20
1.11118e-19
3.42493e-20
5.73187e-21
1.27325e-22
5.2657e-24
1.6488e-25
4.39416e-27
1.05388e-28
2.36005e-30
5.08e-32
1.07435e-33
2.26347e-35
4.78451e-37
1.01616e-38
2.16425e-40
2.62659e-41
7.04947e-43
3.18079e-45
-2.50459e-38
2.12281e-29
1.22842e-28
4.24888e-28
1.09804e-27
2.34628e-27
4.33329e-27
9.08911e-27
1.65631e-26
2.6827e-26
3.96949e-26
5.39215e-26
6.84924e-26
8.37209e-26
9.89135e-26
1.11693e-25
1.22518e-25
1.31749e-25
1.40641e-25
1.49404e-25
1.5064e-25
1.52588e-25
1.8141e-27
1.81938e-27
1.8194e-27
1.74854e-27
1.66325e-27
1.5624e-27
1.44262e-27
1.30108e-27
1.13951e-27
9.627e-28
7.78629e-28
5.96342e-28
4.25931e-28
2.78232e-28
1.62436e-28
8.10267e-29
3.95611e-29
1.96214e-29
8.16711e-30
2.6706e-30
6.03599e-31
6.66793e-32
4.00661e-37
7.69998e-39
7.61908e-37
3.05114e-35
1.24236e-33
4.73679e-32
1.62065e-30
4.94802e-29
1.33822e-27
3.17753e-26
6.55235e-25
1.15791e-23
1.72484e-22
2.12101e-21
2.09445e-20
1.60941e-19
9.45317e-19
3.22558e-18
5.08085e-18
1.57661e-18
2.67123e-19
6.20364e-21
2.70738e-22
9.0362e-24
2.58632e-25
6.7019e-27
1.62713e-28
3.79771e-30
8.6852e-32
1.96928e-33
4.45336e-35
1.00503e-36
2.32129e-38
2.8352e-39
7.83392e-41
6.91748e-43
-3.55251e-39
1.42187e-31
9.12879e-31
3.42224e-30
9.41491e-30
2.11352e-29
4.05951e-29
8.86624e-29
1.63693e-28
2.68198e-28
4.00031e-28
5.47606e-28
7.00341e-28
8.60849e-28
1.02022e-27
1.15566e-27
1.27064e-27
1.36884e-27
1.46316e-27
1.55489e-27
1.56771e-27
1.58698e-27
2.10065e-29
2.10906e-29
2.11095e-29
2.02981e-29
1.93109e-29
1.8139e-29
1.67437e-29
1.50906e-29
1.31996e-29
1.11279e-29
8.97166e-30
6.84164e-30
4.86017e-30
3.15463e-30
1.82568e-30
9.04969e-31
4.20005e-31
2.00746e-31
7.95679e-32
2.44405e-32
5.05674e-33
5.12267e-34
2.39043e-35
4.35321e-37
4.39229e-35
1.69214e-33
6.47537e-32
2.37927e-30
7.94682e-29
2.36625e-27
6.24038e-26
1.44497e-24
2.90672e-23
5.01436e-22
7.29942e-21
8.78426e-20
8.50482e-19
6.4267e-18
3.72454e-17
1.26656e-16
1.99734e-16
6.21982e-17
1.06585e-17
2.57627e-19
1.19063e-20
4.25231e-22
1.31207e-23
3.68659e-25
9.73906e-27
2.47451e-28
6.14502e-30
1.50607e-31
3.66086e-33
8.82476e-35
5.54919e-36
2.82069e-37
7.18148e-39
6.32148e-41
3.68547e-39
1.11512e-33
7.85946e-33
3.16602e-32
9.21023e-32
2.15967e-31
4.29278e-31
9.74274e-31
1.8179e-30
3.00115e-30
4.50262e-30
6.19924e-30
7.96892e-30
9.83568e-30
1.16819e-29
1.32606e-29
1.46012e-29
1.57427e-29
1.68381e-29
1.78938e-29
1.80393e-29
1.82476e-29
2.66442e-31
2.6786e-31
2.68372e-31
2.58294e-31
2.45908e-31
2.31139e-31
2.13492e-31
1.92494e-31
1.68376e-31
1.4187e-31
1.14225e-31
8.69121e-32
6.15519e-32
3.98006e-32
2.29065e-32
1.13189e-32
5.01295e-33
2.31954e-33
8.80729e-34
2.52143e-34
9.05741e-35
8.39417e-35
6.54764e-35
2.39335e-35
2.19002e-33
8.14739e-32
2.92488e-30
1.03524e-28
3.37215e-27
9.78616e-26
2.51501e-24
5.676e-23
1.11342e-21
1.87453e-20
2.6659e-19
3.13852e-18
2.97802e-17
2.21482e-16
1.28324e-15
4.33472e-15
6.61239e-15
2.19478e-15
3.67259e-16
9.17717e-18
4.50989e-19
1.73132e-20
5.78403e-22
1.76923e-23
5.10399e-25
1.41669e-26
3.83375e-28
1.0192e-29
2.67098e-31
6.9021e-33
8.19815e-34
2.60311e-35
6.16483e-37
5.30372e-39
3.57255e-37
1.03144e-35
7.70185e-35
3.34078e-34
1.02073e-33
2.4847e-33
5.18101e-33
1.19715e-32
2.24936e-32
3.73158e-32
5.61888e-32
7.76465e-32
1.00133e-31
1.23884e-31
1.47267e-31
1.67287e-31
1.84281e-31
1.98687e-31
2.12503e-31
2.2575e-31
2.27534e-31
2.2996e-31
3.67364e-33
3.69878e-33
3.71019e-33
3.57562e-33
3.40863e-33
3.20856e-33
2.96828e-33
2.68059e-33
2.3481e-33
1.98063e-33
1.59561e-33
1.21406e-33
8.59323e-34
5.5508e-34
3.18756e-34
1.57552e-34
6.68059e-35
2.9752e-35
1.14352e-35
8.74418e-36
5.29753e-35
9.05741e-35
8.39417e-35
2.50711e-33
9.73156e-32
3.44456e-30
1.16651e-28
3.92335e-27
1.23748e-25
3.50047e-24
8.76338e-23
1.9273e-21
3.68651e-20
6.05705e-19
8.41553e-18
9.69343e-17
9.03485e-16
6.93746e-15
3.61073e-14
1.02397e-13
1.42734e-13
5.69802e-14
1.13215e-14
2.81425e-16
1.47788e-17
6.13078e-19
2.22881e-20
7.45493e-22
2.35735e-23
7.16976e-25
2.1198e-26
6.12889e-28
1.73625e-29
5.08118e-31
6.15415e-32
1.98143e-33
4.8171e-35
3.95233e-37
1.4385e-36
1.98407e-36
1.79784e-36
3.84681e-36
1.26596e-35
3.19838e-35
7.0705e-35
1.6339e-34
3.08056e-34
5.12236e-34
7.7241e-34
1.06889e-33
1.37984e-33
1.70777e-33
2.02882e-33
2.30312e-33
2.5354e-33
2.73163e-33
2.91968e-33
3.09963e-33
3.12273e-33
3.15238e-33
5.46918e-35
5.51603e-35
5.54049e-35
5.34891e-35
5.109e-35
4.82003e-35
4.47067e-35
4.04877e-35
3.55688e-35
3.00872e-35
2.43009e-35
1.85322e-35
1.31437e-35
8.5063e-36
4.8945e-36
2.41776e-36
9.64388e-37
8.62609e-37
1.78868e-36
5.72946e-36
8.74418e-36
6.47575e-35
2.70509e-33
1.04309e-31
3.77086e-30
1.28544e-28
4.15207e-27
1.29672e-25
3.92297e-24
1.08102e-22
2.63627e-21
5.6502e-20
1.05398e-18
1.69035e-17
2.29563e-16
2.59702e-15
2.49443e-14
1.51821e-13
5.76678e-13
1.25475e-12
2.00171e-12
6.65194e-13
2.29208e-13
7.44064e-15
4.20026e-16
1.8947e-17
7.53885e-19
2.77092e-20
9.64313e-22
3.22419e-23
1.04411e-24
3.28941e-26
1.0097e-27
1.22764e-28
4.52695e-30
1.2274e-31
3.37145e-33
8.57398e-35
2.16922e-36
1.79789e-36
1.02153e-36
2.45181e-37
2.65067e-37
4.4987e-37
1.07388e-36
2.46342e-36
4.6435e-36
7.71548e-36
1.16203e-35
1.60633e-35
2.07102e-35
2.5592e-35
3.0338e-35
3.43748e-35
3.77769e-35
4.06417e-35
4.3386e-35
4.6012e-35
4.63232e-35
4.66927e-35
8.73947e-37
8.83112e-37
8.88396e-37
8.59567e-37
8.23142e-37
7.79002e-37
7.25173e-37
6.59425e-37
5.81862e-37
4.94439e-37
4.01194e-37
3.07365e-37
2.19015e-37
1.4246e-37
8.03533e-38
3.96837e-38
6.35309e-38
4.66562e-37
8.62609e-37
1.78868e-36
5.25342e-35
2.36584e-33
9.56901e-32
3.59893e-30
1.26391e-28
4.15899e-27
1.28466e-25
3.75693e-24
1.07645e-22
2.86891e-21
6.8245e-20
1.42571e-18
2.5943e-17
4.06456e-16
5.42458e-15
6.4085e-14
4.45916e-13
1.35711e-12
6.64201e-12
2.34865e-11
3.8318e-11
1.0579e-11
1.98993e-12
1.69574e-13
1.03627e-14
5.12021e-16
2.24446e-17
9.11483e-19
3.50622e-20
1.29302e-21
4.59802e-23
1.58117e-24
9.04308e-26
7.18729e-27
2.50731e-28
7.30728e-30
2.07875e-31
5.531e-33
1.36753e-34
3.04742e-36
2.45182e-37
2.21474e-37
1.08067e-37
1.83703e-38
1.65988e-38
3.99887e-38
7.66127e-38
1.26785e-37
1.90174e-37
2.61944e-37
3.36573e-37
4.14518e-37
4.89624e-37
5.53075e-37
6.06146e-37
6.50625e-37
6.93229e-37
7.34011e-37
7.38261e-37
7.4282e-37
1.4909e-38
1.5097e-38
1.52141e-38
1.47596e-38
1.41803e-38
1.34732e-38
1.26012e-38
1.15201e-38
1.0225e-38
8.74368e-39
7.14193e-39
5.51009e-39
3.94735e-39
2.48368e-39
2.21635e-39
1.25183e-38
3.96837e-38
6.35309e-38
9.55811e-37
4.17088e-35
1.73297e-33
7.2364e-32
2.8977e-30
1.0706e-28
3.66765e-27
1.16875e-25
3.47466e-24
9.66701e-23
2.55576e-21
6.52685e-20
1.51146e-18
3.08035e-17
5.47269e-16
8.43065e-15
1.16825e-13
9.53053e-13
3.40466e-12
2.09947e-11
1.08223e-10
4.19483e-10
6.8077e-10
1.80263e-10
3.48924e-11
3.32521e-12
2.21811e-13
1.2105e-14
5.88902e-16
2.65776e-17
1.13482e-18
4.62844e-20
1.81038e-21
6.81006e-23
9.07673e-24
3.89835e-25
1.21102e-26
3.79778e-28
1.11203e-29
3.02129e-31
7.58295e-33
1.74909e-34
3.62776e-36
1.08064e-37
1.83702e-38
1.1593e-38
2.91956e-39
1.02335e-39
1.31846e-39
2.2547e-39
3.3688e-39
4.61187e-39
5.8931e-39
7.22065e-39
8.48575e-39
9.54396e-39
1.04201e-38
1.11485e-38
1.18469e-38
1.25159e-38
1.25715e-38
1.26244e-38
2.70199e-40
2.74234e-40
2.76914e-40
2.69487e-40
2.59928e-40
2.4816e-40
2.33434e-40
2.14816e-40
1.92072e-40
1.65572e-40
1.3646e-40
1.04805e-40
6.55322e-41
1.37971e-40
1.21006e-39
2.21635e-39
1.25183e-38
5.70595e-37
2.74048e-35
1.21543e-33
4.97106e-32
1.89633e-30
7.41723e-29
2.7094e-27
9.10409e-26
2.82508e-24
8.1148e-23
2.16213e-21
5.37909e-20
1.27769e-18
2.84498e-17
5.65703e-16
9.88415e-15
1.55778e-13
1.48965e-12
6.66914e-12
4.73122e-11
3.13047e-10
1.66718e-09
6.36008e-09
1.02539e-08
2.7563e-09
5.45904e-10
5.59238e-11
4.11116e-12
2.50146e-13
1.36134e-14
6.86772e-16
3.26711e-17
1.47659e-18
6.3566e-20
8.66485e-21
4.28053e-22
1.50257e-23
5.22549e-25
1.69213e-26
5.06629e-28
1.39658e-29
3.5283e-31
8.10744e-33
1.77296e-34
4.3103e-36
1.01289e-37
2.91952e-39
1.02334e-39
5.54972e-40
6.48881e-41
3.80762e-41
6.31847e-41
8.72793e-41
1.10638e-40
1.34619e-40
1.57164e-40
1.75759e-40
1.90956e-40
2.03453e-40
2.15465e-40
2.27008e-40
2.27636e-40
2.28106e-40
5.17894e-42
5.26922e-42
5.33277e-42
5.20854e-42
5.04696e-42
4.84581e-42
4.58911e-42
4.25613e-42
3.83919e-42
3.34278e-42
2.72705e-42
2.33793e-42
2.13813e-41
5.62288e-41
1.37971e-40
4.63552e-39
2.6089e-37
1.36531e-35
6.56117e-34
2.90242e-32
1.1835e-30
4.43874e-29
1.55867e-27
5.68588e-26
1.88674e-24
5.73557e-23
1.60205e-21
4.12434e-20
9.77697e-19
2.15384e-17
4.53525e-16
8.79009e-15
1.5361e-13
1.70629e-12
9.96539e-12
8.19905e-11
6.34639e-10
4.19222e-09
2.16732e-08
8.10977e-08
1.29725e-07
3.54838e-08
7.23001e-09
8.02708e-10
6.5741e-11
4.50617e-12
2.76634e-13
1.56901e-14
8.34348e-16
4.18373e-17
4.48217e-18
3.22508e-19
1.38436e-20
5.32038e-22
1.91597e-23
6.34975e-25
1.9294e-26
5.3529e-28
1.34358e-29
3.49344e-31
9.26325e-33
2.28332e-34
4.91743e-36
9.54636e-38
1.72679e-39
6.48881e-41
3.57736e-41
1.50055e-41
1.55577e-42
1.70384e-42
2.21699e-42
2.67428e-42
3.09664e-42
3.4386e-42
3.71347e-42
3.9365e-42
4.15187e-42
4.36035e-42
4.36411e-42
4.36291e-42
1.04542e-43
1.06646e-43
1.08204e-43
1.06117e-43
1.03366e-43
9.9891e-44
9.53338e-44
8.92194e-44
8.12137e-44
6.7225e-44
9.31452e-44
1.17936e-42
2.33793e-42
2.13813e-41
1.35558e-39
8.54805e-38
4.93364e-36
2.6035e-34
1.25898e-32
5.58758e-31
2.27861e-29
8.5365e-28
2.93992e-26
9.69065e-25
3.21166e-23
9.64482e-22
2.64043e-20
6.60529e-19
1.51097e-17
3.16988e-16
6.17954e-15
1.13947e-13
1.42199e-12
1.07228e-11
1.08314e-10
9.57452e-10
7.42613e-09
4.71127e-08
2.35207e-07
8.59896e-07
1.36227e-06
3.80536e-07
8.01778e-08
9.75894e-09
9.01651e-10
7.04082e-11
4.9178e-12
3.15292e-13
1.87857e-14
2.06951e-15
1.77734e-16
8.89812e-18
3.85491e-19
1.55328e-20
5.72696e-22
1.92462e-23
5.87394e-25
1.66423e-26
5.18387e-28
1.43922e-29
3.57795e-31
8.18735e-33
1.7229e-34
3.32311e-36
5.86292e-38
9.44803e-40
1.50055e-41
1.55577e-42
8.03862e-43
8.7863e-44
3.94646e-44
5.59706e-44
6.46391e-44
7.1168e-44
7.63128e-44
8.04213e-44
8.44207e-44
8.83343e-44
8.82219e-44
8.79726e-44
2.2137e-45
2.2646e-45
2.30408e-45
2.26996e-45
2.22416e-45
2.16502e-45
2.0844e-45
1.96679e-45
1.64064e-45
4.9229e-45
3.16211e-44
9.38152e-44
3.45474e-42
2.66141e-40
1.89189e-38
1.22057e-36
7.16737e-35
3.8401e-33
1.88053e-31
8.42787e-30
3.4595e-28
1.30135e-26
4.47796e-25
1.41607e-23
4.38119e-22
1.31392e-20
3.55559e-19
8.72185e-18
1.9432e-16
3.97569e-15
7.19086e-14
9.11335e-13
8.21941e-12
8.73169e-11
9.96228e-10
9.82559e-09
7.26383e-08
4.3951e-07
2.10394e-06
7.4752e-06
1.16937e-05
3.35452e-06
7.36093e-07
9.95585e-08
1.05163e-08
9.45907e-10
7.57399e-11
5.5101e-12
5.31349e-13
6.26377e-14
3.9027e-15
1.8904e-16
8.57859e-18
3.53966e-19
1.32244e-20
4.45053e-22
1.483e-23
4.76672e-25
1.40764e-26
3.80317e-28
9.41953e-30
2.13847e-31
4.45607e-33
8.48908e-35
1.47592e-36
2.33647e-38
3.35798e-40
4.39865e-42
8.7863e-44
2.73985e-44
8.65783e-45
1.10355e-45
1.41161e-45
1.55217e-45
1.65077e-45
1.72807e-45
1.80437e-45
1.88017e-45
1.87316e-45
1.86263e-45
4.89895e-47
5.0264e-47
5.1295e-47
5.07897e-47
5.00871e-47
4.91487e-47
4.76203e-47
4.21742e-47
2.10676e-46
8.87491e-46
4.9229e-45
3.61063e-43
3.24405e-41
2.63024e-39
1.9233e-37
1.27386e-35
7.66473e-34
4.19869e-32
2.09715e-30
9.56e-29
3.97962e-27
1.51316e-25
5.25502e-24
1.66087e-22
4.83323e-21
1.40713e-19
3.80077e-18
9.23522e-17
2.04121e-15
3.93973e-14
5.43493e-13
5.54511e-12
6.4893e-11
7.51976e-10
7.78729e-09
7.23152e-08
5.77928e-07
3.72796e-06
1.52792e-05
5.23586e-05
8.04662e-05
2.39183e-05
5.66114e-06
8.2018e-07
9.95944e-08
1.04742e-08
9.89915e-10
8.18311e-11
6.60969e-12
6.85576e-13
5.57616e-14
3.0241e-15
1.38033e-16
5.75969e-18
2.15735e-19
7.67915e-21
2.69437e-22
8.67758e-24
2.54555e-25
6.82325e-27
1.67146e-28
3.74146e-30
7.6486e-32
1.42644e-33
2.42641e-35
3.75285e-37
5.25951e-39
6.65444e-41
7.57422e-43
8.65783e-45
1.07628e-45
5.38442e-46
3.07284e-47
3.5225e-47
3.74484e-47
3.89099e-47
4.03867e-47
4.18886e-47
4.16159e-47
4.12566e-47
1.12901e-48
1.16183e-48
1.18983e-48
1.18431e-48
1.17628e-48
1.16231e-48
1.12534e-48
5.15234e-48
2.21368e-47
2.10676e-46
2.12905e-44
2.23871e-42
2.09891e-40
1.76451e-38
1.3366e-36
9.15597e-35
5.68767e-33
3.21021e-31
1.64832e-29
7.70479e-28
3.27966e-26
1.27128e-24
4.48617e-23
1.43892e-21
4.19084e-20
1.15226e-18
3.12674e-17
7.62267e-16
1.6249e-14
2.58621e-13
3.24557e-12
3.98443e-11
4.956e-10
5.45891e-09
5.26765e-08
4.41357e-07
3.20125e-06
2.85284e-05
0.00012394
0.000289561
0.000433186
0.000224791
4.70132e-05
5.09834e-06
7.16971e-07
8.88596e-08
9.52516e-09
8.90927e-10
7.34615e-11
5.64173e-12
4.11497e-13
2.99346e-14
1.49952e-15
6.19809e-17
2.31857e-18
8.73542e-20
3.06632e-21
9.75743e-23
2.8252e-24
7.45168e-26
1.79106e-27
3.92334e-29
7.82926e-31
1.42217e-32
2.34848e-34
3.51856e-36
4.76986e-38
5.83008e-40
6.39481e-42
6.2456e-44
5.78156e-46
2.99299e-47
1.37618e-47
8.23672e-49
8.83199e-49
9.14569e-49
9.43164e-49
9.73271e-49
9.63979e-49
9.52623e-49
2.70038e-50
2.78753e-50
2.86522e-50
2.8682e-50
2.8673e-50
2.845e-50
6.23537e-50
5.23693e-49
5.09045e-48
6.16147e-46
7.68741e-44
8.46434e-42
8.29987e-40
7.291e-38
5.76383e-36
4.11496e-34
2.66035e-32
1.55991e-30
8.30325e-29
4.01418e-27
1.76275e-25
7.02949e-24
2.54337e-22
8.32565e-21
2.50794e-19
7.41022e-18
1.98936e-16
4.77185e-15
9.02522e-14
1.26069e-12
1.79038e-11
2.33564e-10
2.85577e-09
3.05952e-08
2.83733e-07
2.23925e-06
1.47192e-05
0.000152508
0.000750524
0.00123932
0.0017815
0.00106209
0.000242729
2.43909e-05
3.92948e-06
5.23936e-07
5.90578e-08
5.71448e-09
4.81111e-10
3.56247e-11
2.59563e-12
1.73399e-13
1.01947e-14
4.46867e-16
1.68732e-17
5.86741e-19
2.01167e-20
6.29955e-22
1.78435e-23
4.59102e-25
1.07366e-26
2.28284e-28
4.41219e-30
7.74686e-32
1.23428e-33
1.78133e-35
2.32314e-37
2.72918e-39
2.87456e-41
2.69828e-43
2.23167e-45
1.72274e-47
7.27059e-49
2.02804e-49
2.27579e-50
2.23308e-50
2.28953e-50
2.35025e-50
2.32017e-50
2.2854e-50
6.68163e-52
6.91958e-52
7.13973e-52
7.1857e-52
7.20529e-52
1.25114e-51
1.20999e-50
6.15595e-50
1.20566e-47
1.77357e-45
2.26962e-43
2.57661e-41
2.61412e-39
2.38343e-37
1.9624e-35
1.46157e-33
9.58546e-32
5.69356e-30
3.09672e-28
1.54089e-26
7.00609e-25
2.90532e-23
1.09782e-21
3.8015e-20
1.20112e-18
3.44359e-17
9.01363e-16
2.06088e-14
3.29823e-13
4.00669e-12
5.23295e-11
7.04195e-10
8.61997e-09
9.21442e-08
8.47518e-07
6.55518e-06
4.14105e-05
0.000587902
0.0031995
0.00344545
0.00496933
0.00514595
0.00104719
7.4719e-05
1.27286e-05
1.74458e-06
1.98702e-07
1.92523e-08
1.61476e-09
1.18896e-10
9.0212e-12
5.55072e-13
4.45695e-14
2.16875e-15
8.3057e-17
2.94957e-18
9.56634e-20
2.84403e-21
7.69732e-23
1.89553e-24
4.25437e-26
8.71404e-28
1.63073e-29
2.78999e-31
4.36494e-33
6.24448e-35
8.0369e-37
9.01575e-39
9.07907e-41
8.17552e-43
6.5259e-45
4.53118e-47
1.96808e-49
1.27762e-50
2.24461e-51
5.71284e-52
5.75736e-52
5.87919e-52
5.78425e-52
5.67871e-52
1.70497e-53
1.77161e-53
1.83477e-53
1.86e-53
2.43168e-53
1.08437e-52
1.23886e-51
2.03936e-49
3.25715e-47
4.49723e-45
5.47891e-43
5.94505e-41
5.78405e-39
5.07185e-37
4.02151e-35
2.89335e-33
1.9508e-31
1.20764e-29
6.79554e-28
3.47856e-26
1.61919e-24
6.84592e-23
2.62557e-21
9.1194e-20
2.86134e-18
8.11457e-17
2.10826e-15
4.91485e-14
7.2328e-13
5.97753e-12
7.68408e-11
8.54108e-10
1.04751e-08
1.12838e-07
1.05138e-06
8.29331e-06
5.35954e-05
0.00127634
0.00870832
0.00658749
0.010303
0.0168002
0.00278762
0.000109616
1.83903e-05
2.47421e-06
2.76515e-07
2.63692e-08
2.18483e-09
1.67393e-10
1.46757e-11
1.1391e-12
1.08964e-13
5.49035e-15
2.10297e-16
7.55147e-18
2.4607e-19
7.25119e-21
1.93643e-22
4.69453e-24
1.03437e-25
2.0731e-27
3.78115e-29
6.27597e-31
9.4715e-33
1.29733e-34
1.63244e-36
1.92353e-38
2.04388e-40
1.94758e-42
1.65441e-44
1.24191e-46
8.0702e-49
3.89855e-51
2.72499e-52
4.1288e-53
1.49409e-53
1.51839e-53
1.48915e-53
1.45702e-53
4.47338e-55
4.66418e-55
4.85001e-55
4.95344e-55
2.15888e-54
1.1718e-53
1.3321e-51
2.78353e-49
4.68797e-47
6.81656e-45
8.68595e-43
9.79811e-41
9.88623e-39
8.99533e-37
7.38944e-35
5.49961e-33
3.69056e-31
2.24611e-29
1.24445e-27
6.27214e-26
2.87488e-24
1.1973e-22
4.52422e-21
1.5467e-19
4.7689e-18
1.3398e-16
3.52139e-15
8.44177e-14
1.18882e-12
7.35669e-12
7.09236e-11
6.98406e-10
7.84919e-09
8.60485e-08
8.24574e-07
5.48748e-06
2.62018e-05
0.00164873
0.0110498
0.00944536
0.0184423
0.0212648
0.00356102
4.55021e-05
1.2946e-05
2.12951e-06
2.21702e-07
2.07787e-08
1.72977e-09
1.60425e-10
1.35845e-11
2.21984e-12
1.93775e-13
8.92286e-15
3.43798e-16
1.24042e-17
4.10494e-19
1.22858e-20
3.33354e-22
8.22207e-24
1.84604e-25
3.77605e-27
7.03926e-29
1.19621e-30
1.85831e-32
2.62131e-34
3.33658e-36
3.8187e-38
3.94185e-40
3.64546e-42
2.99556e-44
2.16461e-46
1.35669e-48
7.07695e-51
3.68171e-53
2.36898e-54
5.32965e-55
4.04578e-55
3.94592e-55
3.84871e-55
1.20331e-56
1.25883e-56
1.31605e-56
2.29677e-56
2.13702e-55
1.18164e-53
2.75603e-51
5.51901e-49
9.39361e-47
1.38733e-44
1.80185e-42
2.07833e-40
2.13961e-38
1.97441e-36
1.64375e-34
1.23783e-32
8.43641e-31
5.13124e-29
2.7465e-27
1.35214e-25
6.10459e-24
2.5199e-22
9.47608e-21
3.23239e-19
9.96727e-18
2.79789e-16
7.22589e-15
1.53956e-13
1.92144e-12
1.16106e-11
6.24822e-11
5.96855e-10
5.89357e-09
5.95616e-08
9.5778e-07
6.75524e-06
2.87459e-05
0.00103605
0.00544095
0.149952
0.19475
0.0125114
0.00202073
4.6878e-05
1.56034e-05
2.42562e-06
1.58176e-07
1.32774e-08
1.3339e-09
1.3247e-10
1.86288e-11
3.65826e-12
3.29622e-13
1.6283e-14
6.61334e-16
2.41336e-17
7.9881e-19
2.38949e-20
6.4694e-22
1.59121e-23
3.56618e-25
7.29945e-27
1.36711e-28
2.34572e-30
3.67778e-32
5.30226e-34
7.03416e-36
7.96436e-38
7.96458e-40
7.10972e-42
5.62128e-44
3.89878e-46
2.34225e-48
1.19651e-50
4.92131e-53
2.61462e-55
4.64338e-56
1.10749e-56
1.07349e-56
1.04359e-56