/*--------------------------------*- C++ -*----------------------------------*\
| =========                 |                                                 |
| \\      /  F ield         | OpenFOAM: The Open Source CFD Toolbox           |
|  \\    /   O peration     | Version:  2412                                  |
|   \\  /    A nd           | Website:  www.openfoam.com                      |
|    \\/     M anipulation  |                                                 |
\*---------------------------------------------------------------------------*/
FoamFile
{
    version     2.0;
    format      ascii;
    arch        "LSB;label=32;scalar=64";
    class       surfaceScalarField;
    location    "9.5";
    object      alphaPhi0.soap;
}
// * * * * * * * * * * * * * * * * * * * * * * * * * * * * * * * * * * * * * //

dimensions      [0 3 -1 0 0 0 0];

oriented        oriented;

internalField   nonuniform List<scalar> 
12640
(
3.93107e-06
-3.93107e-06
1.17793e-05
-7.84689e-06
1.79246e-05
-6.14418e-06
2.25804e-05
-4.65478e-06
2.61451e-05
-3.56382e-06
2.85807e-05
-2.43461e-06
2.97705e-05
-1.1888e-06
2.9552e-05
2.19593e-07
2.78915e-05
1.66126e-06
2.4779e-05
3.11302e-06
2.01927e-05
4.58662e-06
1.43374e-05
5.85573e-06
7.13154e-06
7.20633e-06
-1.31029e-06
8.44178e-06
-1.07097e-05
9.4e-06
-2.06988e-05
9.9895e-06
-3.09999e-05
1.03015e-05
-4.13001e-05
1.03008e-05
-5.1335e-05
1.00348e-05
-6.08516e-05
9.51647e-06
-6.96342e-05
8.78304e-06
-7.75096e-05
7.87548e-06
-8.43619e-05
6.85222e-06
-9.01327e-05
5.77084e-06
-9.47765e-05
4.64383e-06
-9.82412e-05
3.46456e-06
-0.000100418
2.17646e-06
-0.000101124
7.06363e-07
-0.000100265
-8.59886e-07
-9.78095e-05
-2.4561e-06
-9.38429e-05
-3.96689e-06
-8.8509e-05
-5.33383e-06
-8.19315e-05
-6.57746e-06
-7.39798e-05
-7.95165e-06
-6.45494e-05
-9.43052e-06
-5.36012e-05
-1.09486e-05
-4.1232e-05
-1.23697e-05
-2.75963e-05
-1.3636e-05
-1.29561e-05
-1.46406e-05
2.38217e-06
-1.53386e-05
1.80539e-05
-1.56721e-05
3.37434e-05
-1.56899e-05
4.90521e-05
-1.53091e-05
6.36043e-05
-1.45524e-05
7.70551e-05
-1.34505e-05
8.90901e-05
-1.20348e-05
9.94496e-05
-1.03594e-05
0.000108051
-8.60076e-06
0.000114948
-6.8961e-06
0.000120191
-5.2432e-06
0.000123666
-3.47392e-06
0.000125294
-1.62814e-06
0.000125004
2.90097e-07
0.000122943
2.06245e-06
0.000119214
3.72947e-06
0.000113909
5.30416e-06
0.000107059
6.84964e-06
9.86149e-05
8.44311e-06
8.86115e-05
1.00025e-05
7.71625e-05
1.14488e-05
6.44295e-05
1.27335e-05
5.06311e-05
1.37986e-05
3.60378e-05
1.45926e-05
2.10237e-05
1.5013e-05
6.05922e-06
1.49638e-05
-8.26213e-06
1.43221e-05
-2.15324e-05
1.32716e-05
-3.33793e-05
1.18474e-05
-4.34176e-05
1.00375e-05
-5.12162e-05
7.79761e-06
-5.63544e-05
5.13797e-06
-5.88649e-05
2.51072e-06
-5.85711e-05
-2.94584e-07
-5.57739e-05
-2.79744e-06
-5.06586e-05
-5.11383e-06
-4.33994e-05
-7.25821e-06
-3.42188e-05
-9.18308e-06
-2.28375e-05
-1.13827e-05
-9.31077e-06
-1.35256e-05
-9.31399e-06
1.93226e-06
-5.86207e-06
7.97725e-06
-1.38898e-05
1.23758e-05
-1.05408e-05
1.58075e-05
-8.08481e-06
1.8809e-05
-6.56383e-06
2.12405e-05
-4.86452e-06
2.29331e-05
-2.8799e-06
2.37706e-05
-6.16533e-07
2.34465e-05
1.98621e-06
2.16924e-05
4.86787e-06
1.8437e-05
7.8424e-06
1.35678e-05
1.07256e-05
7.26999e-06
1.35054e-05
-2.96151e-07
1.60083e-05
-8.85672e-06
1.79612e-05
-1.82405e-05
1.93737e-05
-2.81461e-05
2.02076e-05
-3.8233e-05
2.03885e-05
-4.81805e-05
1.99825e-05
-5.76513e-05
1.8987e-05
-6.63023e-05
1.74343e-05
-7.38529e-05
1.54263e-05
-8.00513e-05
1.30503e-05
-8.46793e-05
1.03986e-05
-8.75913e-05
7.55594e-06
-8.87383e-05
4.61141e-06
-8.81979e-05
1.63543e-06
-8.61364e-05
-1.35575e-06
-8.27888e-05
-4.20755e-06
-7.83404e-05
-6.90419e-06
-7.29066e-05
-9.40053e-06
-6.64957e-05
-1.17447e-05
-5.92468e-05
-1.38265e-05
-5.13016e-05
-1.58973e-05
-4.28353e-05
-1.78973e-05
-3.40006e-05
-1.97839e-05
-2.48686e-05
-2.15025e-05
-1.55243e-05
-2.29812e-05
-5.9599e-06
-2.42061e-05
3.82293e-06
-2.51227e-05
1.37782e-05
-2.56284e-05
2.38503e-05
-2.57627e-05
3.40626e-05
-2.55217e-05
4.43437e-05
-2.48335e-05
5.46076e-05
-2.37142e-05
6.47995e-05
-2.22257e-05
7.47141e-05
-2.02725e-05
8.40883e-05
-1.79735e-05
9.25134e-05
-1.53201e-05
9.97703e-05
-1.24992e-05
0.000105663
-9.36572e-06
0.000110049
-6.01346e-06
0.000112728
-2.38882e-06
0.00011342
1.37076e-06
0.000111939
5.21029e-06
0.000108222
9.02045e-06
0.000102301
1.27692e-05
9.43001e-05
1.64422e-05
8.44267e-05
1.98756e-05
7.29357e-05
2.29404e-05
6.01179e-05
2.55517e-05
4.6319e-05
2.75968e-05
3.19418e-05
2.89683e-05
1.74327e-05
2.95215e-05
3.14163e-06
2.9256e-05
-1.05128e-05
2.79783e-05
-2.30826e-05
2.58419e-05
-3.41691e-05
2.29326e-05
-4.32763e-05
1.91431e-05
-5.00998e-05
1.46211e-05
-5.44804e-05
9.51905e-06
-5.61614e-05
4.19117e-06
-5.53293e-05
-1.12698e-06
-5.19448e-05
-6.17964e-06
-4.64487e-05
-1.06087e-05
-3.94926e-05
-1.42175e-05
-3.09858e-05
-1.76919e-05
-2.05191e-05
-2.18478e-05
-7.80434e-06
-2.62461e-05
-1.71152e-05
3.139e-06
-8.99998e-06
1.03858e-05
-2.11348e-05
1.58562e-05
-1.601e-05
2.00711e-05
-1.22987e-05
2.36503e-05
-1.0142e-05
2.67156e-05
-7.92879e-06
2.8883e-05
-5.04644e-06
2.96361e-05
-1.36881e-06
2.89956e-05
2.62743e-06
2.68741e-05
6.99026e-06
2.3049e-05
1.16684e-05
1.75348e-05
1.62402e-05
1.03627e-05
2.06783e-05
1.98052e-06
2.43914e-05
-7.51577e-06
2.74584e-05
-1.78142e-05
2.96723e-05
-2.85715e-05
3.0965e-05
-3.94128e-05
3.12307e-05
-5.00035e-05
3.05741e-05
-6.00215e-05
2.90046e-05
-6.91562e-05
2.65686e-05
-7.71463e-05
2.34165e-05
-8.37843e-05
1.96887e-05
-8.89218e-05
1.55359e-05
-9.24441e-05
1.10776e-05
-9.43319e-05
6.49907e-06
-9.45572e-05
1.86149e-06
-9.32735e-05
-2.6381e-06
-9.05657e-05
-6.91446e-06
-8.6585e-05
-1.08845e-05
-8.14112e-05
-1.45742e-05
-7.51508e-05
-1.80051e-05
-6.77486e-05
-2.1229e-05
-5.94094e-05
-2.42369e-05
-5.03386e-05
-2.69693e-05
-4.06446e-05
-2.94795e-05
-3.0421e-05
-3.17278e-05
-1.96907e-05
-3.37127e-05
-8.52451e-06
-3.53733e-05
2.97065e-06
-3.66184e-05
1.46981e-05
-3.73563e-05
2.65139e-05
-3.75791e-05
3.83199e-05
-3.73278e-05
4.99591e-05
-3.64721e-05
6.1289e-05
-3.5043e-05
7.2239e-05
-3.31748e-05
8.26387e-05
-3.06717e-05
9.22045e-05
-2.7539e-05
0.00010062
-2.37356e-05
0.000107685
-1.95643e-05
0.000113165
-1.48453e-05
0.000116984
-9.8329e-06
0.000119067
-4.47125e-06
0.000119238
1.2001e-06
0.000117355
7.09317e-06
0.00011332
1.30544e-05
0.000107115
1.89738e-05
9.88631e-05
2.46939e-05
8.86904e-05
3.00491e-05
7.68082e-05
3.48236e-05
6.34876e-05
3.88726e-05
4.90368e-05
4.20466e-05
3.38454e-05
4.41586e-05
1.82526e-05
4.51143e-05
2.75523e-06
4.47546e-05
-1.22457e-05
4.29803e-05
-2.63075e-05
3.99034e-05
-3.87564e-05
3.53806e-05
-4.90957e-05
2.94828e-05
-5.70471e-05
2.25736e-05
-6.21133e-05
1.45855e-05
-6.41891e-05
6.26651e-06
-6.3163e-05
-2.15202e-06
-5.93856e-05
-9.95497e-06
-5.32085e-05
-1.67874e-05
-4.50415e-05
-2.23866e-05
-3.52691e-05
-2.74607e-05
-2.3284e-05
-3.38359e-05
-9.00503e-06
-4.05221e-05
-2.61199e-05
3.80283e-06
-1.28018e-05
1.20527e-05
-2.93834e-05
1.83532e-05
-2.23097e-05
2.31718e-05
-1.71166e-05
2.72801e-05
-1.42495e-05
3.06069e-05
-1.12546e-05
3.2956e-05
-7.39475e-06
3.42479e-05
-2.6599e-06
3.39821e-05
2.89395e-06
3.18166e-05
9.15663e-06
2.78782e-05
1.56079e-05
2.18625e-05
2.22569e-05
1.43299e-05
2.82112e-05
5.13656e-06
3.35851e-05
-5.26771e-06
3.78638e-05
-1.66214e-05
4.10272e-05
-2.84325e-05
4.27767e-05
-4.03578e-05
4.31564e-05
-5.19645e-05
4.21811e-05
-6.28813e-05
3.9922e-05
-7.28029e-05
3.64907e-05
-8.14556e-05
3.20685e-05
-8.86439e-05
2.6876e-05
-9.42162e-05
2.11079e-05
-9.81212e-05
1.49829e-05
-0.000100324
8.70214e-06
-0.000100871
2.40955e-06
-9.97983e-05
-3.71061e-06
-9.71926e-05
-9.51999e-06
-9.32087e-05
-1.48683e-05
-8.79475e-05
-1.98356e-05
-8.15878e-05
-2.43655e-05
-7.4235e-05
-2.85827e-05
-6.59476e-05
-3.25251e-05
-5.67488e-05
-3.61683e-05
-4.66899e-05
-3.95381e-05
-3.57159e-05
-4.27013e-05
-2.39421e-05
-4.54862e-05
-1.13868e-05
-4.79288e-05
1.72878e-06
-4.97347e-05
1.52709e-05
-5.0899e-05
2.88692e-05
-5.11783e-05
4.22659e-05
-5.07256e-05
5.52674e-05
-4.9475e-05
6.76808e-05
-4.74579e-05
7.93251e-05
-4.48204e-05
9.01533e-05
-4.15007e-05
9.99436e-05
-3.73302e-05
0.000108632
-3.24253e-05
0.000115853
-2.67855e-05
0.000121454
-2.04472e-05
0.00012524
-1.36185e-05
0.000127115
-6.34546e-06
0.000126977
1.33898e-06
0.000124711
9.35926e-06
0.000120288
1.74775e-05
0.000113647
2.56145e-05
0.000104846
3.34964e-05
9.40132e-05
4.08824e-05
8.13343e-05
4.75032e-05
6.70567e-05
5.31499e-05
5.15028e-05
5.75998e-05
3.50412e-05
6.062e-05
1.80447e-05
6.21116e-05
9.6907e-07
6.1831e-05
-1.56342e-05
5.9583e-05
-3.11058e-05
5.53731e-05
-4.48914e-05
4.91653e-05
-5.64079e-05
4.1e-05
-6.51386e-05
3.13046e-05
-7.08902e-05
2.03354e-05
-7.30321e-05
8.40712e-06
-7.1714e-05
-3.46882e-06
-6.69827e-05
-1.46864e-05
-5.9616e-05
-2.41561e-05
-5.02943e-05
-3.1705e-05
-3.92435e-05
-3.85103e-05
-2.57145e-05
-4.73664e-05
-1.01664e-05
-5.60676e-05
-3.62875e-05
4.34998e-06
-1.71511e-05
1.33874e-05
-3.84199e-05
2.04568e-05
-2.93784e-05
2.58418e-05
-2.2501e-05
3.05984e-05
-1.90051e-05
3.47926e-05
-1.54477e-05
3.80416e-05
-1.06428e-05
4.0003e-05
-4.62053e-06
4.01931e-05
2.70468e-06
3.84466e-05
1.0904e-05
3.42429e-05
1.98125e-05
2.81571e-05
2.83443e-05
1.98041e-05
3.65653e-05
9.6543e-06
4.37358e-05
-1.96441e-06
4.94834e-05
-1.46256e-05
5.3689e-05
-2.78507e-05
5.60033e-05
-4.11577e-05
5.64649e-05
-5.40741e-05
5.50981e-05
-6.61541e-05
5.20016e-05
-7.70692e-05
4.74059e-05
-8.65283e-05
4.15275e-05
-9.42948e-05
3.46426e-05
-0.000100257
2.70694e-05
-0.000104343
1.90678e-05
-0.000106498
1.08559e-05
-0.000106818
2.72834e-06
-0.000105399
-5.12959e-06
-0.000102403
-1.25169e-05
-9.79743e-05
-1.92967e-05
-9.23411e-05
-2.54682e-05
-8.56663e-05
-3.10391e-05
-7.80134e-05
-3.62342e-05
-6.95487e-05
-4.09885e-05
-6.02028e-05
-4.55136e-05
-4.99293e-05
-4.98116e-05
-3.87468e-05
-5.38845e-05
-2.65428e-05
-5.76907e-05
-1.34314e-05
-6.10401e-05
4.53071e-07
-6.36186e-05
1.48571e-05
-6.53027e-05
2.93847e-05
-6.57059e-05
4.36587e-05
-6.50001e-05
5.74305e-05
-6.32472e-05
7.05865e-05
-6.06143e-05
8.29627e-05
-5.71972e-05
9.44592e-05
-5.29982e-05
0.000104935
-4.78072e-05
0.000114246
-4.17374e-05
0.000122093
-3.46342e-05
0.000128355
-2.67098e-05
0.000132699
-1.79627e-05
0.000134999
-8.64473e-06
0.000135097
1.2413e-06
0.000132948
1.15092e-05
0.000128378
2.20479e-05
0.000121389
3.26046e-05
0.000112026
4.28605e-05
0.000100408
5.25013e-05
8.67346e-05
6.11769e-05
7.12458e-05
6.86385e-05
5.42664e-05
7.45789e-05
3.6169e-05
7.87176e-05
1.73642e-05
8.09167e-05
-1.63164e-06
8.08264e-05
-2.01718e-05
7.81209e-05
-3.75643e-05
7.27643e-05
-5.31571e-05
6.47575e-05
-6.63333e-05
5.41768e-05
-7.65062e-05
4.14764e-05
-8.2763e-05
2.65897e-05
-8.4886e-05
1.05301e-05
-8.25697e-05
-5.78498e-06
-7.66424e-05
-2.06162e-05
-6.78092e-05
-3.29891e-05
-5.68132e-05
-4.26976e-05
-4.40823e-05
-5.12463e-05
-2.88728e-05
-6.25738e-05
-1.14943e-05
-7.34465e-05
-4.77804e-05
5.14985e-06
-2.23005e-05
1.51887e-05
-4.84579e-05
2.31039e-05
-3.72926e-05
2.90914e-05
-2.84871e-05
3.45237e-05
-2.44361e-05
3.97348e-05
-2.06577e-05
4.43611e-05
-1.5268e-05
4.75899e-05
-7.84824e-06
4.87416e-05
1.55423e-06
4.71885e-05
1.24587e-05
4.32173e-05
2.37846e-05
3.63782e-05
3.51846e-05
2.70785e-05
4.58659e-05
1.56149e-05
5.52005e-05
2.36844e-06
6.27315e-05
-1.20975e-05
6.81555e-05
-2.71624e-05
7.10685e-05
-4.22563e-05
7.15596e-05
-5.6847e-05
6.9689e-05
-7.042e-05
6.55745e-05
-8.25623e-05
5.95478e-05
-9.29729e-05
5.19375e-05
-0.000101447
4.31156e-05
-0.00010783
3.34515e-05
-0.000112048
2.32852e-05
-0.000114135
1.29422e-05
-0.00011416
2.75314e-06
-0.000112277
-7.01276e-06
-0.000108691
-1.61018e-05
-0.00010364
-2.43475e-05
-9.74563e-05
-3.16518e-05
-9.01839e-05
-3.83123e-05
-8.20978e-05
-4.43213e-05
-7.3271e-05
-4.98166e-05
-6.37228e-05
-5.50629e-05
-5.33008e-05
-6.02343e-05
-4.18775e-05
-6.53073e-05
-2.93828e-05
-7.01844e-05
-1.5721e-05
-7.47013e-05
-1.08849e-06
-7.82509e-05
1.41581e-05
-8.05496e-05
2.95309e-05
-8.10793e-05
4.46346e-05
-8.01043e-05
5.92395e-05
-7.78525e-05
7.32432e-05
-7.46185e-05
8.64675e-05
-7.0422e-05
9.8868e-05
-6.53992e-05
0.000110316
-5.92553e-05
0.000120551
-5.19734e-05
0.000129304
-4.33874e-05
0.000136369
-3.37746e-05
0.000141501
-2.30933e-05
0.000144443
-1.15858e-05
0.000144985
7.00218e-07
0.000143044
1.34512e-05
0.000138432
2.66599e-05
0.000131131
3.99051e-05
0.000121155
5.28369e-05
0.000108629
6.50279e-05
9.37296e-05
7.60759e-05
7.67062e-05
8.56617e-05
5.78848e-05
9.34006e-05
3.76606e-05
9.89426e-05
1.65985e-05
0.000101979
-4.78873e-06
0.000102212
-2.5808e-05
9.91384e-05
-4.57567e-05
9.27122e-05
-6.39199e-05
8.29222e-05
-7.94532e-05
6.97108e-05
-9.13423e-05
5.33642e-05
-9.88757e-05
3.41225e-05
-0.000101041
1.26969e-05
-9.78176e-05
-9.01009e-06
-8.96362e-05
-2.87998e-05
-7.82219e-05
-4.44003e-05
-6.48505e-05
-5.60728e-05
-4.99997e-05
-6.6098e-05
-3.27237e-05
-7.98449e-05
-1.31175e-05
-9.30535e-05
-6.08959e-05
6.31496e-06
-2.86148e-05
1.76948e-05
-5.98363e-05
2.64983e-05
-4.60947e-05
3.29437e-05
-3.49307e-05
3.95028e-05
-3.09934e-05
4.61209e-05
-2.72746e-05
5.23503e-05
-2.14962e-05
5.71558e-05
-1.26522e-05
5.93437e-05
-6.32336e-07
5.87837e-05
1.30204e-05
5.46397e-05
2.79298e-05
4.72199e-05
4.26053e-05
3.66227e-05
5.64633e-05
2.33465e-05
6.84771e-05
7.96994e-06
7.81083e-05
-8.88074e-06
8.50062e-05
-2.63815e-05
8.8569e-05
-4.3819e-05
8.89969e-05
-6.05648e-05
8.64348e-05
-7.60014e-05
8.10118e-05
-8.9713e-05
7.32599e-05
-0.000101346
6.35706e-05
-0.000110675
5.24452e-05
-0.000117534
4.03105e-05
-0.000121882
2.76337e-05
-0.000123765
1.48262e-05
-0.000123303
2.29173e-06
-0.000120725
-9.59105e-06
-0.00011633
-2.04979e-05
-0.000110492
-3.01867e-05
-0.00010338
-3.87645e-05
-9.54876e-05
-4.62057e-05
-8.69573e-05
-5.28527e-05
-7.7865e-05
-5.89097e-05
-6.81303e-05
-6.4798e-05
-5.76171e-05
-7.0748e-05
-4.60367e-05
-7.68882e-05
-3.31064e-05
-8.31151e-05
-1.87872e-05
-8.90207e-05
-3.24342e-06
-9.3794e-05
1.31732e-05
-9.69651e-05
2.97501e-05
-9.76551e-05
4.59982e-05
-9.63517e-05
6.15687e-05
-9.34228e-05
7.65207e-05
-8.95701e-05
9.08463e-05
-8.47471e-05
0.000104342
-7.88942e-05
0.000116879
-7.17927e-05
0.000128275
-6.3369e-05
0.000138208
-5.33208e-05
0.000146352
-4.19183e-05
0.000152438
-2.91782e-05
0.000156179
-1.5326e-05
0.000157353
-4.72625e-07
0.000155669
1.51354e-05
0.000151056
3.12728e-05
0.000143414
4.75469e-05
0.000132717
6.35342e-05
0.000119107
7.86375e-05
0.000102732
9.24508e-05
8.38378e-05
0.000104556
6.27777e-05
0.000114461
4.001e-05
0.00012171
1.60816e-05
0.000125907
-8.35123e-06
0.000126644
-3.261e-05
0.000123398
-5.59931e-05
0.000116098
-7.75281e-05
0.00010446
-9.62565e-05
8.8439e-05
-0.00011095
6.80554e-05
-0.000120145
4.33175e-05
-0.000122445
1.49976e-05
-0.000117524
-1.39326e-05
-0.000106043
-4.02809e-05
-9.06924e-05
-5.97488e-05
-7.41938e-05
-7.25759e-05
-5.70692e-05
-8.3217e-05
-3.76458e-05
-9.92714e-05
-1.53168e-05
-0.000115383
-7.62171e-05
8.11818e-06
-3.6732e-05
2.12521e-05
-7.29682e-05
3.07269e-05
-5.55682e-05
3.72419e-05
-4.14439e-05
4.47233e-05
-3.8473e-05
5.32111e-05
-3.57608e-05
6.18938e-05
-3.01776e-05
6.93018e-05
-2.00585e-05
7.35826e-05
-4.91191e-06
7.3705e-05
1.2899e-05
6.95059e-05
3.21295e-05
6.11474e-05
5.09647e-05
4.89047e-05
6.87055e-05
3.32234e-05
8.41591e-05
1.4902e-05
9.64297e-05
-4.92574e-06
0.000104834
-2.55462e-05
0.00010919
-4.59943e-05
0.000109446
-6.54153e-05
0.000105856
-8.32055e-05
9.8803e-05
-9.88332e-05
8.88882e-05
-0.000111937
7.6675e-05
-0.00012222
6.27292e-05
-0.000129571
4.76627e-05
-0.000133969
3.2031e-05
-0.000135492
1.63494e-05
-0.000134343
1.1425e-06
-0.000130832
-1.31025e-05
-0.000125328
-2.60029e-05
-0.000118251
-3.72635e-05
-0.000110125
-4.68912e-05
-0.000101347
-5.49838e-05
-9.23124e-05
-6.18873e-05
-8.2964e-05
-6.82582e-05
-7.32115e-05
-7.45509e-05
-6.27568e-05
-8.12028e-05
-5.11411e-05
-8.85031e-05
-3.78739e-05
-9.63807e-05
-2.2873e-05
-0.00010402
-6.10015e-06
-0.000110565
1.18143e-05
-0.000114879
2.99683e-05
-0.000115809
4.75382e-05
-0.000113922
6.43089e-05
-0.000110194
8.03797e-05
-0.000105641
9.57954e-05
-0.000100162
0.000110586
-9.36841e-05
0.00012459
-8.57964e-05
0.000137414
-7.61924e-05
0.000148868
-6.4775e-05
0.000158465
-5.15145e-05
0.000165768
-3.64806e-05
0.000170493
-2.00508e-05
0.000172345
-2.32386e-06
0.000171082
1.63978e-05
0.0001665
3.58538e-05
0.000158556
5.54908e-05
0.000147118
7.49708e-05
0.000132261
9.34935e-05
0.000114137
0.000110574
9.3008e-05
0.000125684
6.92731e-05
0.000138196
4.3425e-05
0.000147559
1.6048e-05
0.000153284
-1.21833e-05
0.000154876
-4.05576e-05
0.000151773
-6.82813e-05
0.000143822
-9.4281e-05
0.000130459
-0.000117359
0.000111515
-0.000135949
8.66456e-05
-0.000147893
5.52641e-05
-0.000150919
1.80232e-05
-0.000143443
-2.14114e-05
-0.000127249
-5.64716e-05
-0.000106436
-8.05661e-05
-8.53602e-05
-9.36506e-05
-6.55243e-05
-0.000103052
-4.32082e-05
-0.000121592
-1.78758e-05
-0.000140713
-9.40928e-05
9.81119e-06
-4.65422e-05
2.41521e-05
-8.7307e-05
3.56506e-05
-6.7065e-05
4.23366e-05
-4.81285e-05
5.02147e-05
-4.63495e-05
6.08277e-05
-4.63722e-05
7.33151e-05
-4.26636e-05
8.46233e-05
-3.13655e-05
9.13386e-05
-1.16263e-05
9.26225e-05
1.16156e-05
8.88376e-05
3.59147e-05
7.94592e-05
6.03446e-05
6.50295e-05
8.31355e-05
4.62697e-05
0.000102919
2.43089e-05
0.000118391
3.28347e-07
0.000128814
-2.43773e-05
0.000133896
-4.86497e-05
0.000133718
-7.14998e-05
0.000128706
-9.2183e-05
0.000119487
-0.000110137
0.000106842
-0.000124948
9.14849e-05
-0.000136368
7.41481e-05
-0.00014427
5.55634e-05
-0.000148651
3.6412e-05
-0.000149653
1.7351e-05
-0.000147565
-9.45098e-07
-0.000142633
-1.80348e-05
-0.000135408
-3.32269e-05
-0.00012662
-4.60508e-05
-0.000117069
-5.64421e-05
-0.0001073
-6.47533e-05
-9.76101e-05
-7.15778e-05
-8.80887e-05
-7.77802e-05
-7.85734e-05
-8.40666e-05
-6.84415e-05
-9.13344e-05
-5.72546e-05
-9.96898e-05
-4.43448e-05
-0.000109291
-2.87927e-05
-0.000119572
-9.91871e-06
-0.00012944
1.08014e-05
-0.000135599
3.08919e-05
-0.0001359
4.95427e-05
-0.000132572
6.72949e-05
-0.000127945
8.43973e-05
-0.000122742
0.000101085
-0.000116849
0.000117369
-0.000109967
0.000133074
-0.000101501
0.00014776
-9.08781e-05
0.000160914
-7.79294e-05
0.000172195
-6.2796e-05
0.000181199
-4.54847e-05
0.000187355
-2.62079e-05
0.000190314
-5.28253e-06
0.0001897
1.70103e-05
0.000185299
4.0254e-05
0.000177035
6.37538e-05
0.000164773
8.72318e-05
0.000148461
0.000109805
0.000128296
0.000130739
0.000104557
0.000149424
7.76754e-05
0.000165078
4.81437e-05
0.00017709
1.65767e-05
0.000184849
-1.63169e-05
0.000187768
-4.98075e-05
0.000185264
-8.29015e-05
0.000176917
-0.000114466
0.000162023
-0.000143103
0.000140151
-0.000167075
0.000110619
-0.000183499
7.16904e-05
-0.00018825
2.27729e-05
-0.000177333
-3.23276e-05
-0.000152312
-8.1489e-05
-0.000123
-0.000109883
-9.60853e-05
-0.000120559
-7.21997e-05
-0.000126943
-4.6264e-05
-0.000147528
-1.91614e-05
-0.000167822
-0.000113256
1.28375e-05
-5.9379e-05
2.31084e-05
-9.75761e-05
3.64914e-05
-8.0446e-05
4.53255e-05
-5.69615e-05
5.42565e-05
-5.52798e-05
6.82983e-05
-6.04131e-05
8.80375e-05
-6.24016e-05
0.000105991
-4.93183e-05
0.000115998
-2.16317e-05
0.000117717
9.89699e-06
0.000113135
4.04971e-05
0.000102459
7.10215e-05
8.53259e-05
0.00010027
6.24479e-05
0.000125798
3.561e-05
0.000145229
6.62666e-06
0.000157798
-2.29176e-05
0.00016344
-5.17803e-05
0.00016258
-7.87567e-05
0.000155682
-0.000102948
0.000143678
-0.000123706
0.000127599
-0.000140581
0.00010836
-0.000153336
8.69042e-05
-0.000161824
6.40516e-05
-0.000166091
4.06785e-05
-0.000166419
1.76791e-05
-0.000162848
-4.51611e-06
-0.000155955
-2.49273e-05
-0.000146475
-4.27076e-05
-0.000135383
-5.71435e-05
-0.000123737
-6.80888e-05
-0.000112491
-7.59996e-05
-0.000102139
-8.19303e-05
-9.25938e-05
-8.73248e-05
-8.36593e-05
-9.30012e-05
-7.50937e-05
-9.99003e-05
-6.62077e-05
-0.000108576
-5.50949e-05
-0.000120403
-3.88465e-05
-0.00013582
-1.54588e-05
-0.000152827
1.10951e-05
-0.000162153
3.47592e-05
-0.000159564
5.40128e-05
-0.000151826
7.12464e-05
-0.000145179
8.83473e-05
-0.000139843
0.00010597
-0.000134471
0.000124054
-0.000128052
0.000141791
-0.000119237
0.000158792
-0.000107879
0.000174388
-9.35262e-05
0.000187822
-7.62305e-05
0.0001987
-5.63631e-05
0.000206558
-3.40659e-05
0.000210973
-9.69793e-06
0.00021157
1.6413e-05
0.000207751
4.40722e-05
0.000199103
7.2402e-05
0.000185818
0.000100518
0.00016782
0.000127803
0.000145294
0.000153264
0.000118521
0.000176197
8.79782e-05
0.00019562
5.41836e-05
0.000210884
1.78028e-05
0.00022123
-2.04172e-05
0.000225989
-5.98583e-05
0.000224706
-9.93046e-05
0.000216364
-0.000137482
0.000200199
-0.000173362
0.000176031
-0.000206378
0.000143638
-0.000234189
9.95003e-05
-0.000246393
3.49741e-05
-0.00022928
-4.94384e-05
-0.00018436
-0.000126411
-0.000134876
-0.000159367
-9.71071e-05
-0.000158328
-6.73819e-05
-0.000156671
-3.9135e-05
-0.00017577
-1.70753e-05
-0.000189879
-0.000130328
1.94988e-05
-7.8877e-05
1.81467e-05
-9.6219e-05
2.86967e-05
-9.09931e-05
4.01251e-05
-6.8389e-05
4.88909e-05
-6.40446e-05
6.84564e-05
-7.99776e-05
0.000100056
-9.40003e-05
0.000132687
-8.19494e-05
0.000151518
-4.04618e-05
0.000152809
8.60614e-06
0.000143392
4.99156e-05
0.000128067
8.63466e-05
0.000105937
0.000122401
7.77234e-05
0.000154012
4.49702e-05
0.000177983
1.04692e-05
0.000192299
-2.41206e-05
0.00019803
-5.76078e-05
0.000196067
-8.89853e-05
0.00018706
-0.000117052
0.000171745
-0.000140968
0.000151515
-0.000160078
0.00012747
-0.000174039
0.000100864
-0.00018293
7.29419e-05
-0.000187052
4.48001e-05
-0.000186274
1.69e-05
-0.000180969
-9.82198e-06
-0.000171451
-3.44461e-05
-0.000158688
-5.54717e-05
-0.000144095
-7.17365e-05
-0.000129479
-8.27042e-05
-0.000116068
-8.941e-05
-0.000104626
-9.33721e-05
-9.55932e-05
-9.63572e-05
-8.87859e-05
-9.98079e-05
-8.43024e-05
-0.000104383
-8.00834e-05
-0.000112794
-7.12731e-05
-0.000129213
-5.2662e-05
-0.00015443
-2.30324e-05
-0.000182457
1.13873e-05
-0.000196573
4.14354e-05
-0.000189613
6.27995e-05
-0.000173191
7.81875e-05
-0.000160568
9.3066e-05
-0.000154722
0.000110436
-0.00015184
0.000129793
-0.000147408
0.000150268
-0.000139712
0.000170181
-0.000127793
0.000188688
-0.000112034
0.000204997
-9.25402e-05
0.000218434
-6.98006e-05
0.000228356
-4.39879e-05
0.000234613
-1.59545e-05
0.000236475
1.45512e-05
0.000233517
4.70307e-05
0.000225163
8.07567e-05
0.000210911
0.000114771
0.000191071
0.000147643
0.000165893
0.000178443
0.00013584
0.000206251
0.000101511
0.00022995
6.35924e-05
0.000248804
2.26181e-05
0.000262205
-2.10332e-05
0.000269641
-6.66102e-05
0.000270283
-0.000113349
0.000263101
-0.000160374
0.000247222
-0.000208891
0.000224549
-0.000261618
0.000196364
-0.000312207
0.000150087
-0.000336941
5.97114e-05
-0.000310452
-7.59045e-05
-0.000237678
-0.000199172
-0.000148294
-0.000248732
-8.2366e-05
-0.000224258
-4.28829e-05
-0.000196149
-1.93761e-05
-0.000199279
-1.13021e-05
-0.000197954
-0.00014163
2.53438e-05
-0.000104221
1.96798e-05
-9.05581e-05
1.55426e-05
-8.68468e-05
2.18516e-05
-7.46973e-05
2.53982e-05
-6.759e-05
4.18196e-05
-9.63973e-05
7.83779e-05
-0.000130558
0.000126572
-0.000130143
0.000169857
-8.37467e-05
0.00019147
-1.3006e-05
0.000186458
5.4928e-05
0.0001641
0.000108706
0.000132652
0.000153849
9.39731e-05
0.000192691
5.16564e-05
0.000220299
8.75645e-06
0.000235198
-3.24229e-05
0.000239209
-7.13012e-05
0.000234945
-0.000107452
0.00022321
-0.000139886
0.000204179
-0.000167102
0.00017873
-0.000188133
0.0001485
-0.000202726
0.000115457
-0.000211356
8.15719e-05
-0.000214644
4.80869e-05
-0.000212845
1.51008e-05
-0.000205723
-1.69446e-05
-0.000192857
-4.73119e-05
-0.000175198
-7.31301e-05
-0.00015503
-9.19049e-05
-0.000135033
-0.000102701
-0.000117867
-0.000106576
-0.000104961
-0.000106277
-9.71818e-05
-0.000104135
-9.46749e-05
-0.000102315
-9.53718e-05
-0.000103685
-9.40354e-05
-0.00011413
-8.36389e-05
-0.000139609
-6.12539e-05
-0.000176816
-2.92858e-05
-0.000214425
7.65489e-06
-0.000233515
4.31755e-05
-0.000225134
6.98638e-05
-0.00019988
8.64022e-05
-0.000177107
9.92824e-05
-0.000167602
0.000114713
-0.000167271
0.00013479
-0.000167485
0.000157813
-0.000162734
0.000181727
-0.000151707
0.000204579
-0.000134887
0.000224831
-0.000112793
0.000241568
-8.65372e-05
0.000254571
-5.69904e-05
0.000263225
-2.46081e-05
0.000267232
1.05447e-05
0.000265899
4.83645e-05
0.000258447
8.82099e-05
0.00024435
0.000128868
0.000222873
0.000169121
0.000194957
0.00020636
0.000161493
0.000239714
0.000123593
0.00026785
8.18379e-05
0.000290558
3.61372e-05
0.000307905
-1.37114e-05
0.000319489
-6.72828e-05
0.000323853
-0.000123638
0.000319454
-0.000183755
0.000307339
-0.000249571
0.000290366
-0.00031786
0.000264652
-0.000372571
0.000204796
-0.000388728
7.59098e-05
-0.000356996
-0.000107646
-0.000284264
-0.000271913
-0.000177248
-0.000355755
-7.45173e-05
-0.000326974
-1.5394e-05
-0.000255271
-2.96045e-06
-0.000211714
-1.09001e-05
-0.000190012
-0.000152532
4.61548e-05
-0.000150376
5.14039e-05
-9.58124e-05
1.79503e-05
-5.33977e-05
-9.22391e-07
-5.5823e-05
-2.07709e-05
-4.77402e-05
-3.42478e-05
-8.29192e-05
-2.56222e-05
-0.000139183
1.7804e-05
-0.000173568
9.53759e-05
-0.000161318
0.000175915
-9.35436e-05
0.000225657
5.18672e-06
0.000230543
0.00010382
0.0001977
0.000186692
0.00014194
0.000248451
7.82219e-05
0.000284016
1.60331e-05
0.000297387
-4.04235e-05
0.000295665
-9.05661e-05
0.000285086
-0.000134825
0.000267468
-0.000172925
0.000242278
-0.000203948
0.000209754
-0.00022702
0.000171573
-0.000242076
0.000130514
-0.000249991
8.94867e-05
-0.00025216
5.02563e-05
-0.000248428
1.13695e-05
-0.00023697
-2.84019e-05
-0.000217431
-6.68501e-05
-0.000191715
-9.88455e-05
-0.000163907
-0.000119713
-0.000138239
-0.000128368
-0.00011754
-0.000127274
-0.000103255
-0.000120562
-9.68065e-05
-0.000110584
-9.67434e-05
-0.000102378
-9.83533e-05
-0.000102075
-9.39417e-05
-0.000118542
-7.94321e-05
-0.000154119
-5.73889e-05
-0.000198859
-3.08403e-05
-0.000240974
-1.4135e-06
-0.000262942
3.08276e-05
-0.000257376
6.10074e-05
-0.00023006
8.26301e-05
-0.000198729
9.85455e-05
-0.000183517
0.000115763
-0.000184488
0.000137839
-0.00018956
0.000164639
-0.000189534
0.000194139
-0.000181207
0.000223466
-0.000164214
0.000250168
-0.000139494
0.000272268
-0.000108636
0.000289345
-7.40664e-05
0.000301202
-3.64647e-05
0.000307989
3.75864e-06
0.000309362
4.69925e-05
0.000304053
9.35182e-05
0.000290315
0.000142606
0.000267638
0.000191797
0.00023638
0.000237617
0.000198373
0.00027772
0.000154697
0.000311525
0.000105167
0.000340087
4.94699e-05
0.000363601
-1.2509e-05
0.000381467
-7.90585e-05
0.000390401
-0.000149092
0.000389487
-0.000219659
0.000377906
-0.000282974
0.000353683
-0.000324439
0.000306115
-0.000326329
0.000206688
-0.000294619
4.42046e-05
-0.000252856
-0.00014941
-0.000212548
-0.000312231
-0.000158208
-0.000410104
-7.86385e-05
-0.000406551
-2.33197e-05
-0.000310595
-2.8064e-05
-0.000206969
-3.53866e-05
-0.000182689
-0.00018792
0.000104491
-0.000254688
0.000148221
-0.000139249
8.47946e-05
1.00438e-05
1.03726e-05
1.86005e-05
-5.45876e-05
1.72214e-05
-0.000120976
-1.65291e-05
-0.000160715
-9.94425e-05
-0.000142283
-0.000191998
-5.88526e-05
-0.000244747
6.78786e-05
-0.000220274
0.000191989
-0.000118923
0.000273258
2.25511e-05
0.000289344
0.000170605
0.000242487
0.000295307
0.000157041
0.000369461
6.27499e-05
0.000391677
-2.3175e-05
0.000381589
-9.54839e-05
0.000357395
-0.000153972
0.000325956
-0.000199998
0.000288303
-0.000235196
0.000244952
-0.000260586
0.000196964
-0.000277335
0.000147263
-0.000286073
9.82247e-05
-0.000286526
5.07098e-05
-0.000277753
2.59687e-06
-0.000256631
-4.95246e-05
-0.000224217
-9.9264e-05
-0.000185944
-0.000137119
-0.000148749
-0.000156908
-0.000119404
-0.000157713
-0.000100747
-0.000145931
-9.08042e-05
-0.000130505
-8.64334e-05
-0.000114955
-8.53601e-05
-0.000103451
-8.24727e-05
-0.000104963
-7.40207e-05
-0.000126994
-6.19474e-05
-0.000166192
-4.87702e-05
-0.000212036
-3.08161e-05
-0.000258928
-1.30066e-05
-0.000280751
4.5465e-06
-0.000274928
2.71538e-05
-0.000252666
5.06434e-05
-0.000222218
7.28307e-05
-0.000205704
9.79395e-05
-0.000209596
0.000129753
-0.000221373
0.000166872
-0.000226652
0.000206153
-0.000220488
0.000244638
-0.000202698
0.000278756
-0.000173611
0.000306368
-0.000136248
0.000326579
-9.42762e-05
0.000340531
-5.04168e-05
0.000349169
-4.87859e-06
0.000351559
4.4602e-05
0.000346647
9.8431e-05
0.000332079
0.000157173
0.000306846
0.000217029
0.000271363
0.000273098
0.000226682
0.0003224
0.000172282
0.000365925
0.000107286
0.000405083
3.21887e-05
0.000438698
-5.12699e-05
0.000464925
-0.000137539
0.00047667
-0.000217473
0.000469421
-0.000276499
0.000436935
-0.000297203
0.000374385
-0.000263025
0.000271934
-0.000181105
0.000124767
-8.73893e-05
-4.95099e-05
-2.19732e-05
-0.00021483
-1.18059e-05
-0.000322397
-4.45324e-05
-0.0003774
-6.71702e-05
-0.000383948
-8.25605e-05
-0.000295209
-0.00011735
-0.000172066
-8.71869e-05
-0.000212222
-0.000274986
0.000176306
-0.000430881
0.000298401
-0.000261306
0.000228192
8.09664e-05
9.90517e-05
0.000147742
-3.4587e-06
0.000119733
-9.7665e-05
7.76777e-05
-0.000155995
-4.11113e-05
-0.000158941
-0.000189053
-9.11642e-05
-0.000312522
1.84659e-05
-0.000329904
0.000134427
-0.000234885
0.000241619
-8.46402e-05
0.000309406
0.000102818
0.000309896
0.000294815
0.000241289
0.000438069
0.00013468
0.000498286
2.31672e-05
0.000493102
-7.36414e-05
0.000454203
-0.00014841
0.000400725
-0.000202592
0.000342485
-0.000241338
0.000283699
-0.000269669
0.000225296
-0.000289664
0.000167258
-0.000301474
0.000110035
-0.000302509
5.17448e-05
-0.000288518
-1.13953e-05
-0.00025823
-7.98129e-05
-0.000215973
-0.000141521
-0.000166667
-0.000186425
-0.000114077
-0.000209497
-7.10496e-05
-0.000200738
-4.94816e-05
-0.000167498
-4.61204e-05
-0.000133865
-4.88718e-05
-0.000112203
-4.98868e-05
-0.000102435
-4.72723e-05
-0.000107577
-4.3731e-05
-0.000130535
-4.47184e-05
-0.000165205
-4.33343e-05
-0.00021342
-3.35789e-05
-0.000268682
-2.52389e-05
-0.00028909
-2.73761e-05
-0.00027279
-2.62251e-05
-0.000253817
-1.35923e-05
-0.00023485
1.02446e-05
-0.00022954
4.68406e-05
-0.000246191
9.55792e-05
-0.000270111
0.000149225
-0.000280298
0.000200895
-0.000272157
0.000247589
-0.000249392
0.000286999
-0.000213021
0.000317505
-0.000166755
0.000338649
-0.000115419
0.000352704
-6.44723e-05
0.000360717
-1.28905e-05
0.000362299
4.30197e-05
0.000355277