/*--------------------------------*- C++ -*----------------------------------*\
| =========                 |                                                 |
| \\      /  F ield         | OpenFOAM: The Open Source CFD Toolbox           |
|  \\    /   O peration     | Version:  2412                                  |
|   \\  /    A nd           | Website:  www.openfoam.com                      |
|    \\/     M anipulation  |                                                 |
\*---------------------------------------------------------------------------*/
FoamFile
{
    version     2.0;
    format      ascii;
    arch        "LSB;label=32;scalar=64";
    class       volScalarField;
    location    "7.95";
    object      alpha.molasses;
}
// * * * * * * * * * * * * * * * * * * * * * * * * * * * * * * * * * * * * * //

dimensions      [0 0 0 0 0 0 0];

internalField   nonuniform List<scalar> 
6400
(
1
1
1
1
1
1
1
1
1
1
1
1
1
1
1
1
1
0.999999
0.999999
0.999999
0.999999
0.999999
0.999999
0.999999
0.999999
0.999999
0.999998
0.999998
0.999998
0.999998
0.999998
0.999998
0.999998
0.999998
0.999997
0.999997
0.999997
0.999997
0.999998
0.999998
0.999998
0.999998
0.999998
0.999998
0.999998
0.999998
0.999998
0.999998
0.999998
0.999998
0.999998
0.999998
0.999998
0.999998
0.999998
0.999999
0.999999
0.999999
0.999999
0.999999
0.999998
0.999998
0.999998
0.999998
0.999998
0.999999
0.999999
1
1
0.999999
0.999999
0.999999
1
1
1
1
1
1
1
1
0.999999
1
0.999999
1
0.999999
0.999999
0.999999
0.999999
0.999999
0.999999
0.999999
0.999999
0.999999
0.999998
0.999998
0.999998
0.999998
0.999998
0.999998
0.999997
0.999997
0.999997
0.999997
0.999997
0.999996
0.999996
0.999996
0.999996
0.999996
0.999996
0.999996
0.999996
0.999996
0.999996
0.999996
0.999996
0.999996
0.999996
0.999996
0.999996
0.999996
0.999996
0.999996
0.999996
0.999996
0.999996
0.999996
0.999996
0.999996
0.999996
0.999996
0.999996
0.999996
0.999997
0.999997
0.999997
0.999997
0.999997
0.999996
0.999996
0.999996
0.999996
0.999996
0.999997
0.999998
0.999998
0.999998
0.999998
0.999998
0.999998
0.999998
0.999998
0.999999
0.999999
0.999999
1
1
1
1
1
1
1
0.999999
0.999999
0.999999
0.999999
0.999999
0.999999
0.999999
0.999999
0.999999
0.999999
0.999999
0.999999
0.999999
0.999999
0.999998
0.999998
0.999998
0.999997
0.999997
0.999997
0.999997
0.999997
0.999997
0.999997
0.999997
0.999997
0.999996
0.999996
0.999996
0.999996
0.999996
0.999996
0.999996
0.999997
0.999997
0.999997
0.999997
0.999997
0.999997
0.999997
0.999997
0.999997
0.999997
0.999997
0.999997
0.999997
0.999997
0.999997
0.999997
0.999997
0.999998
0.999998
0.999997
0.999997
0.999997
0.999997
0.999997
0.999998
0.999998
0.999998
0.999998
0.999998
0.999998
0.999998
0.999998
0.999998
0.999998
0.999998
0.999998
0.999998
0.999999
0.999999
0.999999
1
1
1
1
1
1
1
0.999999
0.999999
0.999999
0.999999
0.999999
0.999999
0.999999
0.999999
0.999999
0.999999
0.999999
0.999999
0.999999
0.999998
0.999998
0.999998
0.999997
0.999997
0.999997
0.999997
0.999996
0.999996
0.999996
0.999996
0.999996
0.999996
0.999996
0.999996
0.999996
0.999996
0.999996
0.999996
0.999997
0.999997
0.999997
0.999997
0.999997
0.999996
0.999996
0.999996
0.999996
0.999996
0.999996
0.999996
0.999996
0.999996
0.999997
0.999997
0.999997
0.999997
0.999997
0.999997
0.999996
0.999996
0.999997
0.999997
0.999998
0.999998
0.999998
0.999998
0.999998
0.999997
0.999997
0.999998
0.999998
0.999998
0.999998
0.999998
0.999998
0.999998
0.999998
0.999999
0.999999
0.999999
1
1
1
1
1
1
0.999999
0.999999
0.999999
0.999999
0.999999
0.999999
0.999999
0.999999
0.999999
0.999999
0.999999
0.999999
0.999999
0.999999
0.999998
0.999998
0.999998
0.999997
0.999997
0.999997
0.999997
0.999997
0.999997
0.999997
0.999997
0.999997
0.999997
0.999997
0.999997
0.999997
0.999997
0.999997
0.999997
0.999997
0.999997
0.999997
0.999996
0.999996
0.999996
0.999996
0.999996
0.999996
0.999996
0.999996
0.999996
0.999996
0.999996
0.999997
0.999996
0.999997
0.999996
0.999996
0.999996
0.999997
0.999997
0.999997
0.999998
0.999998
0.999998
0.999998
0.999998
0.999998
0.999998
0.999998
0.999998
0.999998
0.999998
0.999998
0.999998
0.999999
0.999999
0.999999
0.999999
0.999999
1
1
1
1
0.999999
1
0.999999
0.999999
0.999999
0.999999
0.999999
0.999999
0.999999
0.999999
0.999999
0.999999
0.999999
0.999999
0.999999
0.999999
0.999998
0.999998
0.999998
0.999997
0.999997
0.999997
0.999997
0.999997
0.999997
0.999997
0.999997
0.999997
0.999997
0.999998
0.999998
0.999998
0.999998
0.999997
0.999997
0.999997
0.999997
0.999996
0.999996
0.999996
0.999996
0.999996
0.999996
0.999996
0.999996
0.999996
0.999996
0.999996
0.999996
0.999996
0.999996
0.999996
0.999997
0.999996
0.999996
0.999996
0.999996
0.999996
0.999997
0.999997
0.999998
0.999998
0.999998
0.999998
0.999998
0.999998
0.999999
0.999999
0.999999
0.999999
0.999999
0.999999
0.999999
0.999999
1
1
1
1
1
1
1
1
1
1
0.999999
0.999999
0.999999
0.999999
0.999999
0.999999
0.999999
0.999999
0.999999
0.999999
0.999999
0.999998
0.999998
0.999998
0.999998
0.999997
0.999997
0.999997
0.999997
0.999997
0.999997
0.999997
0.999998
0.999998
0.999998
0.999998
0.999998
0.999998
0.999997
0.999997
0.999997
0.999997
0.999997
0.999997
0.999997
0.999997
0.999997
0.999997
0.999997
0.999997
0.999997
0.999997
0.999997
0.999997
0.999997
0.999997
0.999997
0.999998
0.999997
0.999997
0.999997
0.999997
0.999996
0.999996
0.999997
0.999997
0.999998
0.999998
0.999998
0.999999
0.999999
0.999999
0.999999
0.999999
0.999999
0.999999
0.999999
0.999999
0.999999
1
1
1
1
1
1
1
1
1
1
1
1
1
0.999999
0.999999
0.999999
0.999999
0.999999
0.999999
0.999999
0.999998
0.999998
0.999998
0.999998
0.999997
0.999997
0.999997
0.999997
0.999997
0.999997
0.999997
0.999997
0.999997
0.999997
0.999997
0.999997
0.999997
0.999997
0.999997
0.999997
0.999996
0.999996
0.999997
0.999997
0.999998
0.999998
0.999998
0.999999
0.999998
0.999998
0.999998
0.999998
0.999998
0.999998
0.999998
0.999999
0.999998
0.999999
0.999999
0.999999
0.999998
0.999998
0.999997
0.999997
0.999996
0.999996
0.999997
0.999998
0.999998
0.999998
0.999998
0.999999
0.999999
0.999999
0.999999
0.999999
0.999999
0.999999
0.999999
0.999999
0.999999
1
1
1
1
1
0.999999
1
1
1
1
1
1
0.999999
0.999999
0.999999
0.999999
0.999999
0.999999
0.999999
0.999998
0.999998
0.999998
0.999997
0.999997
0.999997
0.999997
0.999997
0.999996
0.999996
0.999996
0.999997
0.999997
0.999997
0.999997
0.999997
0.999997
0.999996
0.999996
0.999996
0.999996
0.999997
0.999997
0.999998
0.999999
0.999999
0.999999
0.999999
0.999999
0.999999
0.999999
0.999998
0.999998
0.999998
0.999998
0.999998
0.999998
0.999998
0.999999
0.999999
0.999999
0.999998
0.999997
0.999997
0.999997
0.999996
0.999997
0.999997
0.999998
0.999998
0.999998
0.999998
0.999998
0.999998
0.999998
0.999999
0.999999
0.999999
0.999999
0.999999
0.999999
0.999999
0.999999
1
1
1
0.999999
1
1
1
1
1
1
1
0.999999
0.999999
0.999999
0.999999
0.999999
0.999999
0.999999
0.999998
0.999998
0.999998
0.999997
0.999997
0.999997
0.999997
0.999997
0.999997
0.999997
0.999997
0.999997
0.999997
0.999997
0.999997
0.999997
0.999996
0.999996
0.999996
0.999997
0.999998
0.999998
0.999998
0.999998
0.999998
0.999998
0.999998
0.999998
0.999998
0.999998
0.999997
0.999997
0.999997
0.999996
0.999997
0.999997
0.999997
0.999997
0.999998
0.999998
0.999998
0.999997
0.999997
0.999997
0.999997
0.999997
0.999997
0.999998
0.999998
0.999998
0.999998
0.999999
0.999999
0.999999
0.999999
0.999999
0.999999
0.999999
1
1
1
1
1
1
1
1
1
1
1
1
1
1
1
1
1
0.999999
0.999999
0.999999
0.999999
0.999999
0.999999
0.999999
0.999998
0.999998
0.999998
0.999997
0.999997
0.999997
0.999997
0.999997
0.999997
0.999997
0.999997
0.999997
0.999997
0.999997
0.999997
0.999997
0.999997
0.999998
0.999998
0.999998
0.999997
0.999997
0.999996
0.999996
0.999996
0.999995
0.999995
0.999996
0.999995
0.999995
0.999995
0.999995
0.999995
0.999996
0.999996
0.999996
0.999997
0.999997
0.999997
0.999997
0.999997
0.999996
0.999996
0.999997
0.999997
0.999998
0.999998
0.999999
0.999999
0.999999
1
1
1
1
1
1
1
1
1
1
1
1
1
1
1
1
1
1
1
1
1
1
1
1
1
1
1
0.999999
0.999999
0.999999
0.999998
0.999998
0.999998
0.999997
0.999997
0.999997
0.999997
0.999997
0.999997
0.999997
0.999997
0.999997
0.999997
0.999997
0.999997
0.999997
0.999997
0.999997
0.999996
0.999996
0.999995
0.999994
0.999993
0.999992
0.999992
0.999992
0.999992
0.999993
0.999993
0.999994
0.999994
0.999994
0.999996
0.999996
0.999996
0.999996
0.999997
0.999997
0.999998
0.999998
0.999997
0.999997
0.999997
0.999997
0.999998
0.999998
0.999999
0.999999
0.999999
1
1
1
1
1
1
1
1
1
1
1
1
1
1
1
1
1
1
1
1
1
1
1
1
1
1
1
1
0.999999
0.999999
0.999999
0.999998
0.999998
0.999998
0.999997
0.999997
0.999997
0.999997
0.999997
0.999997
0.999997
0.999997
0.999996
0.999996
0.999996
0.999996
0.999996
0.999996
0.999995
0.999994
0.999993
0.999992
0.99999
0.99999
0.999989
0.999988
0.999989
0.999989
0.99999
0.999992
0.999993
0.999993
0.999992
0.999994
0.999995
0.999995
0.999996
0.999996
0.999997
0.999997
0.999998
0.999997
0.999997
0.999997
0.999997
0.999997
0.999998
0.999998
0.999999
0.999999
0.999999
1
1
1
1
1
1
1
1
1
1
1
1
1
1
1
1
1
1
1
1
1
1
1
1
1
1
1
1
0.999999
0.999999
0.999999
0.999998
0.999998
0.999998
0.999997
0.999997
0.999997
0.999997
0.999997
0.999997
0.999997
0.999997
0.999997
0.999997
0.999996
0.999996
0.999995
0.999994
0.999993
0.999991
0.99999
0.999988
0.999987
0.999987
0.999987
0.999987
0.999987
0.999988
0.999989
0.99999
0.999991
0.99999
0.999991
0.999992
0.999993
0.999994
0.999995
0.999996
0.999997
0.999997
0.999997
0.999997
0.999997
0.999997
0.999998
0.999998
0.999999
0.999999
0.999999
1
1
1
1
1
1
1
1
1
1
1
1
1
1
1
1
1
1
1
1
1
1
1
1
1
1
1
1
1
1
0.999999
0.999999
0.999999
0.999998
0.999998
0.999998
0.999998
0.999998
0.999998
0.999998
0.999998
0.999998
0.999998
0.999998
0.999998
0.999998
0.999997
0.999996
0.999994
0.999993
0.999992
0.999992
0.999991
0.999991
0.99999
0.999989
0.99999
0.999989
0.999989
0.999991
0.999993
0.999996
0.999994
0.999993
0.999994
0.999995
0.999997
0.999997
0.999997
0.999998
0.999998
0.999998
0.999998
0.999997
0.999998
0.999998
0.999999
0.999999
1
1
1
1
1
1
1
1
1
1
1
1
1
1
1
1
1
1
1
1
1
1
1
1
1
1
1
1
1
1
0.999999
0.999999
0.999998
0.999998
0.999998
0.999997
0.999997
0.999997
0.999997
0.999996
0.999997
0.999996
0.999996
0.999996
0.999996
0.999996
0.999996
0.999996
0.999996
0.999995
0.999994
0.999994
0.999994
0.999994
0.999994
0.999995
0.999994
0.999992
0.999992
0.999993
0.999992
0.999992
0.999994
0.999997
0.999996
0.999994
0.999993
0.999993
0.999994
0.999995
0.999996
0.999997
0.999997
0.999997
0.999997
0.999997
0.999997
0.999997
0.999998
0.999998
0.999998
0.999999
0.999999
0.999999
0.999999
1
1
1
1
1
1
1
1
1
1
1
1
1
1
1
1
1
1
1
1
1
1
1
1
0.999999
0.999999
0.999999
0.999998
0.999998
0.999998
0.999997
0.999997
0.999997
0.999997
0.999997
0.999996
0.999996
0.999996
0.999996
0.999996
0.999996
0.999995
0.999995
0.999995
0.999995
0.999995
0.999996
0.999996
0.999996
0.999995
0.999995
0.999995
0.999994
0.999994
0.999997
1
0.999999
1
1
1
1
0.999999
0.999998
0.999997
0.999997
0.999997
0.999997
0.999997
0.999996
0.999996
0.999996
0.999997
0.999997
0.999997
0.999997
0.999998
0.999998
0.999999
0.999999
0.999999
0.999999
0.999999
1
1
1
1
1
1
1
1
1
1
1
1
1
1
1
1
1
1
1
1
1
1
1
1
1
0.999999
0.999999
0.999999
0.999999
0.999999
0.999999
0.999999
0.999998
0.999998
0.999997
0.999997
0.999997
0.999996
0.999995
0.999995
0.999994
0.999994
0.999995
0.999996
0.999996
0.999996
0.999996
0.999995
0.999995
0.999995
0.999995
0.999997
0.999999
1
1
0.999992
0.999993
0.999994
0.999994
0.999995
0.999996
0.999997
0.999998
0.999998
0.999998
0.999998
0.999998
0.999998
0.999998
0.999998
0.999998
0.999999
0.999999
0.999999
0.999999
0.999999
0.999999
0.999999
1
1
1
1
1
1
1
1
1
1
1
1
1
1
1
1
1
1
1
1
1
1
1
1
1
1
1
1
1
1
1
1
1
1
1
1
1
1
1
1
1
1
1
0.999998
0.999996
0.999996
0.999996
0.999996
0.999995
0.999994
0.999222
0.996802
0.99669
0.999096
0.999997
0.999999
1
0.999996
0.999993
0.999994
0.999995
0.999997
0.999997
0.999997
0.999998
0.999999
0.999999
1
1
1
1
1
1
1
1
1
1
1
1
1
1
1
1
1
1
1
1
1
1
1
1
1
1
1
1
1
1
1
1
1
1
1
1
1
1
1
1
1
1
1
1
1
1
1
1
1
1
1
1
1
0.999878
0.998047
0.993547
0.98556
0.972791
0.952801
0.922118
0.858217
0.759808
0.646997
0.558419
0.512677
0.511269
0.55499
0.641056
0.754286
0.85394
0.920362
0.951649
0.972109
0.985156
0.993321
0.997943
0.999855
1
1
1
1
1
1
1
1
1
1
1
1
1
1
1
1
1
1
1
1
1
1
1
1
1
1
1
1
0.0135622
0.0211437
0.0267691
0.0314537
0.0353177
0.0386198
0.041564
0.0442978
0.0469341
0.0495603
0.0522432
0.0550334
0.0579672
0.0610689
0.0643507
0.0678133
0.0714444
0.0752179
0.0790901
0.0829981
0.0868535
0.0905382
0.0938966
0.0967283
0.0987769
0.0997123
0.099137
0.0965337
0.0913799
0.0844338
0.075522
0.0639767
0.0492082
0.0302561
0.00649416
1.96587e-06
2.55751e-06
0.00417061
0.0109237
0.0125613
0.0128099
0.0111389
0.00329312
3.17174e-06
2.47943e-06
0.00554007
0.0293754
0.048626
0.0635896
0.0753005
0.0843439
0.0913944
0.0966568
0.0993555
0.0999964
0.0991049
0.0970836
0.0942667
0.0909133
0.0872262
0.0833639
0.0794457
0.0755612
0.0717744
0.0681294
0.0646527
0.061357
0.0582418
0.0552948
0.0524921
0.0497969
0.0471587
0.0445102
0.0417637
0.0388058
0.035488
0.0316057
0.0268976
0.0212447
0.0136255
6.52375e-09
2.43696e-09
5.80905e-09
9.45579e-09
1.31959e-08
1.69819e-08
2.07539e-08
2.44949e-08
2.82093e-08
3.19023e-08
3.55706e-08
3.91932e-08
4.2725e-08
4.60846e-08
4.91522e-08
5.17536e-08
5.36737e-08
5.46376e-08
5.436e-08
5.25267e-08
4.89111e-08
4.3364e-08
3.5998e-08
2.71862e-08
1.80146e-08
9.32418e-09
2.72376e-09
8.19805e-11
1.62837e-10
2.06833e-10
2.43363e-10
3.18752e-10
7.29434e-10
2.81393e-09
6.50669e-09
6.24474e-07
0.0519037
0.219926
0.324402
0.323155
0.323747
0.326588
0.227242
0.0574955
8.2023e-07
6.42725e-09
2.84806e-09
9.19379e-10
4.95066e-10
3.75084e-10
3.20192e-10
2.72394e-10
2.06424e-10
2.64859e-09
9.30983e-09
1.81588e-08
2.7534e-08
3.64978e-08
4.39977e-08
4.96732e-08
5.33907e-08
5.52909e-08
5.56077e-08
5.46571e-08
5.27303e-08
5.01057e-08
4.69994e-08
4.35879e-08
3.9993e-08
3.62982e-08
3.25503e-08
2.87743e-08
2.49767e-08
2.11519e-08
1.72979e-08
1.3432e-08
9.61319e-09
5.91422e-09
2.47706e-09
6.65564e-09
1.26402e-11
1.98191e-12
6.08004e-12
1.12378e-11
1.70312e-11
2.32937e-11
2.97495e-11
3.66564e-11
4.39431e-11
5.1453e-11
5.90366e-11
6.6425e-11
7.32783e-11
7.89985e-11
8.26739e-11
8.30396e-11
7.85415e-11
6.75054e-11
4.8602e-11
2.01159e-11
-1.46771e-11
-1.2831e-11
-1.97486e-11
-1.84547e-11
5.0146e-13
6.97695e-13
1.37821e-11
3.59702e-11
5.86673e-10
5.50066e-10
5.63164e-09
5.52994e-07
2.52742e-06
3.42503e-06
1.22526e-06
4.77419e-07
0.0252875
0.314149
0.40158
0.40158
0.40158
0.40158
0.335751
0.0316925
5.22481e-07
1.61317e-06
3.17878e-06
2.16937e-06
4.37131e-07
1.24255e-08
2.00978e-08
3.43847e-09
1.51739e-10
2.48439e-11
1.00545e-12
4.67527e-13
-6.56756e-13
-3.80914e-12
1.02339e-13
9.40159e-14
3.66191e-11
7.18524e-11
1.05762e-10
1.23876e-10
1.30015e-10
1.27925e-10
1.20534e-10
1.09935e-10
9.77749e-11
8.5347e-11
7.33675e-11
6.20703e-11
5.14888e-11
4.11649e-11
3.10968e-11
1.95986e-11
1.19829e-11
6.52837e-12
2.15195e-12
1.7013e-11
3.31913e-14
3.17697e-15
1.02576e-14
1.94965e-14
3.0969e-14
4.48944e-14
6.11792e-14
8.00592e-14
1.01823e-13
1.26683e-13
1.54645e-13
1.85271e-13
2.17455e-13
2.48856e-13
2.75163e-13
2.89619e-13
2.82963e-13
2.44836e-13
1.69448e-13
1.4286e-15
6.0855e-14
6.30311e-14
1.05144e-13
2.13298e-13
5.40179e-13
5.83071e-13
7.32587e-13
1.3807e-11
3.7792e-11
4.28882e-10
7.0056e-07
3.55564e-06
1.79073e-05
2.35359e-05
1.64491e-05
3.86378e-07
4.77419e-07
0.0585713
0.401579
0.40158
0.40158
0.40158
0.0757068
5.22481e-07
3.66785e-07
1.4981e-05
2.23703e-05
2.02674e-05
6.95539e-06
2.32736e-06
6.43138e-08
1.18421e-10
2.72909e-11
1.16803e-12
4.76832e-13
4.46791e-13
2.90099e-13
1.74118e-13
9.91327e-14
9.40159e-14
8.86608e-14
4.21222e-13
5.46663e-13
5.83092e-13
5.6408e-13
5.15504e-13
4.53436e-13
3.88105e-13
3.25409e-13
2.68967e-13
2.19842e-13
1.77501e-13
1.41009e-13
1.09488e-13
8.21883e-14
5.85576e-14
3.6475e-14
1.81808e-14
5.23319e-15
4.43111e-14
1.0355e-16
6.84426e-18
2.26218e-17
4.40794e-17
7.28056e-17
1.10826e-16
1.60019e-16
2.23046e-16
3.03546e-16
4.05859e-16
5.34613e-16
6.93776e-16
8.85124e-16
1.10428e-15
1.33376e-15
1.53304e-15
1.63108e-15
1.52641e-15
1.22928e-15
3.76405e-15
5.98795e-14
6.13162e-13
9.03515e-12
2.34039e-11
3.6565e-12
7.47635e-13
8.04992e-11
1.44615e-09
4.28882e-10
5.95245e-08
3.91284e-06
5.89057e-06
5.67837e-06
3.15634e-06
3.45492e-07
3.73311e-07
3.86378e-07
0.00836338
0.303447
0.354598
0.357559
0.32046
0.0140832
3.66785e-07
3.51179e-07
1.39284e-07
6.02001e-06
1.0682e-05
1.084e-05
9.31687e-06
1.06562e-06
2.10553e-09
2.57367e-09
2.49442e-11
1.17068e-12
4.76864e-13
1.58109e-11
1.02577e-11
1.37719e-12
9.76419e-14
8.78696e-15
7.13439e-15
7.42271e-15
6.61909e-15
5.36027e-15
4.22443e-15
3.27584e-15
2.50404e-15
1.89178e-15
1.41864e-15
1.05821e-15
7.83385e-16
5.72468e-16
4.09703e-16
2.83731e-16
1.86545e-16
1.12926e-16
5.80136e-17
1.73484e-17
1.25889e-16
4.1391e-18
2.86564e-20
1.08989e-19
1.76604e-19
2.3103e-19
3.30119e-19
5.04229e-19
7.49082e-19
1.093e-18
1.57537e-18
2.24929e-18
3.1832e-18
4.45073e-18
6.11271e-18
8.15866e-18
1.03917e-17
1.22637e-17
1.35479e-17
6.44795e-17
2.40085e-15
2.58944e-14
5.23081e-13
2.16307e-12
1.50457e-11
4.79069e-09
1.76427e-07
2.82904e-07
2.84402e-07
2.14439e-07
1.09378e-10
1.11169e-10
5.61499e-10
5.54248e-10
7.13351e-10
7.67739e-08
6.24183e-07
6.59509e-07
0.000833392
1.23832e-11
0.0101367
0.0115224
0.00165287
0.000971618
5.58191e-07
5.64974e-07
1.3662e-07
2.22581e-09
2.0422e-09
2.06763e-09
1.88708e-09
1.50912e-09
1.27144e-06
1.4347e-06
1.43323e-06
2.50901e-07
2.23995e-12
9.664e-12
3.89095e-12
9.05375e-13
5.10145e-14
4.67339e-15
4.064e-15
3.54572e-15
2.60282e-15
1.66036e-15
1.0483e-15
6.66503e-16
4.25058e-16
2.71674e-16
1.74368e-16
1.12844e-16
7.36045e-17
4.81111e-17
3.1239e-17
1.99028e-17
1.22021e-17
6.97457e-18
3.43515e-18
9.75447e-19
5.16632e-18
1.61031e-20
1.8091e-22
1.4367e-21
1.53813e-21
1.29784e-21
1.95838e-21
2.84957e-21
4.05401e-21
5.69933e-21
7.97107e-21
1.11362e-20
1.72375e-20
2.65621e-20
4.04578e-20
6.02611e-20
8.59516e-20
1.16659e-19
3.18328e-19
1.97384e-17
4.15374e-16
2.18678e-14
4.87068e-13
2.81933e-12
6.60776e-11
2.61289e-08
2.69424e-07
2.84402e-07
5.57888e-08
1.04874e-10
1.05961e-10
2.27548e-10
3.48836e-10
9.23034e-10
1.05407e-07
6.5255e-07
1.83115e-06
7.13644e-06
6.29077e-05
1.23832e-11
1.23832e-11
1.24612e-11
1.26057e-11
1.28781e-11
4.35852e-07
5.63941e-07
5.62929e-07
2.28086e-07
2.22581e-09
7.21421e-09
8.70958e-09
1.3613e-09
8.05446e-10
1.18288e-07
5.9999e-07
2.92472e-07
8.16685e-10
3.13698e-11
2.63776e-12
7.0038e-13
3.71309e-14
9.42591e-16
3.07964e-16
1.95809e-16
1.08487e-16
5.26227e-17
2.57195e-17
1.299e-17
6.7286e-18
3.55986e-18
1.92392e-18
1.06529e-18
6.03421e-19
3.47228e-19
2.01038e-19
1.15667e-19
6.48943e-20
3.44383e-20
1.5992e-20
4.38102e-21
2.168e-20
4.93339e-23
1.71195e-24
9.46947e-24
1.4112e-23
1.40973e-23
1.09713e-23
1.43908e-23
2.25406e-23
3.54305e-23
5.60982e-23
8.98354e-23
1.45843e-22
2.40355e-22
4.02426e-22
6.74707e-22
9.28716e-22
1.6115e-21
1.28074e-20
3.19082e-19
4.00026e-17
3.04469e-15
7.40492e-14
1.55967e-12
4.70871e-11
3.43786e-08
1.75688e-07
1.29583e-07
8.45829e-11
1.00815e-10
1.11154e-10
2.29764e-10
3.07037e-10
1.05761e-08
3.42524e-07
5.05017e-07
2.10809e-07
5.11327e-08
1.25454e-11
1.42855e-11
3.12262e-11
4.25155e-11
7.49477e-11
3.26057e-10
3.2905e-10
3.55661e-10
5.14202e-10
3.55614e-10
9.76603e-09
2.53701e-08
2.54781e-08
2.00499e-08
1.52116e-09
1.29524e-10
8.36281e-08
1.47215e-07
2.46025e-08
2.80719e-11
1.4487e-12
4.51326e-13
1.88607e-14
2.52455e-16
8.82652e-18
2.53413e-18
1.11221e-18
4.73681e-19
1.99354e-19
8.82101e-20
4.08526e-20
1.96085e-20
9.72714e-21
4.98606e-21
2.63203e-21
1.42037e-21
7.76276e-22
4.24545e-22
2.28176e-22
1.17e-22
5.2837e-23
1.43169e-23
7.17614e-23
1.893e-25
1.0829e-26
5.21953e-26
9.2885e-26
1.2374e-25
1.3566e-25
1.2942e-25
1.28038e-25
2.18763e-25
3.81385e-25
6.78922e-25
1.2333e-24
2.28836e-24
4.33796e-24
8.15568e-24
1.28341e-23
1.66697e-23
1.99753e-22
1.2684e-20
9.58521e-19
7.10824e-17
4.44923e-15
2.30961e-13
3.08429e-10
1.41578e-08
2.34328e-08
3.88675e-10
5.86603e-11
1.00332e-10
2.46475e-10
3.17189e-10
3.70298e-10
3.38029e-10
9.08433e-11
3.89499e-11
2.46315e-11
2.2694e-11
2.1947e-11
3.322e-11
5.88223e-11
1.46301e-10
2.23789e-10
6.38886e-10
1.05548e-09
1.13853e-09
9.25287e-10
3.35905e-10
2.10805e-10
2.06111e-10
2.18225e-10
9.27269e-10
5.79406e-10
4.12059e-11
3.22316e-09
3.59223e-08
1.39322e-08
9.77401e-11
1.27237e-12
1.83321e-13
4.48623e-15
5.90471e-17
7.111e-19
4.44975e-20
1.46725e-20
5.74416e-21
2.1864e-21
8.59892e-22
3.56545e-22
1.54387e-22
6.95899e-23
3.26479e-23
1.58908e-23
7.9687e-24
4.08019e-24
2.10863e-24
1.08069e-24
5.33395e-25
2.33824e-25
6.21996e-26
2.9818e-25
7.91741e-28
6.10455e-29
2.79773e-28
5.52412e-28
8.80979e-28
1.24213e-27
1.54959e-27
1.88613e-27
2.12465e-27
2.69917e-27
5.20976e-27
1.04675e-26
2.16404e-26
4.60511e-26
9.87408e-26
1.73795e-25
2.04391e-25
8.67926e-25
7.36458e-23
1.01926e-20
1.38395e-18
1.65573e-16
1.30145e-14
9.5231e-11
1.36766e-09
8.9315e-11
4.9514e-11
5.09848e-11
6.58342e-11
7.91163e-11
8.54677e-11
5.3752e-10
1.99419e-09
2.78463e-09
2.03006e-09
5.90392e-10
4.85117e-11
2.32684e-11
2.77857e-11
6.01975e-11
2.02901e-10
3.04296e-10
5.11306e-10
1.06418e-09
1.15077e-09
9.69047e-10
4.16421e-10
2.12203e-10
2.05084e-10
2.04137e-10
1.97991e-10
1.39684e-10
3.41689e-11
3.01394e-11
4.37666e-10
2.34338e-09
1.15181e-10
8.46911e-13
2.29229e-14
4.11882e-16
5.97588e-18
6.55859e-20
1.292e-21
2.51651e-22
8.37983e-23
2.82581e-23
9.73962e-24
3.56599e-24
1.37797e-24
5.59709e-25
2.38866e-25
1.06742e-25
4.9595e-26
2.37451e-26
1.15816e-26
5.65526e-27
2.68481e-27
1.1419e-27
2.97883e-28
1.35616e-27
3.52167e-30
3.39393e-31
1.52434e-30
3.23137e-30
5.7668e-30
9.5986e-30
1.50372e-29
2.23176e-29
3.29835e-29
5.02051e-29
7.72836e-29
1.35057e-28
2.73798e-28
6.59194e-28
2.04945e-27
6.14328e-27
3.60292e-27
7.34242e-27
1.94773e-25
2.36126e-23
2.61593e-21
2.52874e-19
1.967e-16
4.8706e-12
2.7172e-11
1.01866e-11
2.17222e-11
4.23997e-11
5.13222e-11
5.03068e-11
4.88796e-11
5.41367e-11
1.89761e-10
3.84326e-09
4.97201e-09
4.36772e-09
1.20622e-09
5.88441e-11
2.83433e-11
3.93973e-11
2.1139e-10
3.23357e-10
2.90897e-10
3.12416e-10
2.69898e-10
2.69754e-10
2.53014e-10
1.29783e-10
8.24594e-11
7.81331e-11
6.32667e-11
4.08669e-11
2.79537e-11
1.18674e-11
9.93307e-12
7.51981e-11
1.18035e-11
9.09946e-14
1.12557e-15
1.8053e-17
2.58399e-19
3.05171e-21
4.13753e-23
4.52572e-24
1.25938e-24
3.7418e-25
1.13871e-25
3.70333e-26
1.28343e-26
4.71876e-27
1.83926e-27
7.57313e-28
3.2707e-28
1.46847e-28
6.77659e-29
3.15909e-29
1.44485e-29
5.96956e-30
1.52836e-30
6.58509e-30
1.64625e-32
1.91148e-33
8.51577e-33
1.90916e-32
3.69687e-32
6.88348e-32
1.25971e-31
2.27509e-31
4.10123e-31
7.40298e-31
1.46969e-30
3.16108e-30
7.54727e-30
2.06765e-29
6.72942e-29
2.68484e-28
8.59231e-28
2.90473e-28
2.28315e-27
1.94773e-25
2.36126e-23
2.61593e-21
2.52874e-19
7.12482e-14
1.41254e-12
4.08916e-12
6.51276e-12
1.93006e-11
2.77518e-11
2.5761e-11
2.43451e-11
2.85337e-11
5.7027e-11
6.03036e-11
2.86102e-09
4.54613e-09
3.55386e-09
4.75406e-10
3.18911e-11
2.28058e-11
1.57208e-10
3.10999e-10
2.30133e-10
1.66027e-10
2.13598e-10
2.14799e-10
9.19715e-11
3.6841e-11
2.32676e-11
1.8465e-11
1.62153e-11
1.46919e-11
1.3328e-11
5.49511e-12
4.0161e-12
2.04891e-12
1.55403e-13
1.82645e-15
2.67939e-17
4.33551e-19
6.25804e-21
7.76665e-23
1.05207e-24
7.99133e-26
1.88128e-26
4.93923e-27
1.34138e-27
3.91276e-28
1.22547e-28
4.10437e-29
1.46897e-29
5.59846e-30
2.25627e-30
9.53149e-31
4.17342e-31
1.86175e-31
8.21804e-32
3.30294e-32
8.30715e-33
3.37522e-32
7.99974e-35
1.09624e-35
4.87547e-35
1.14661e-34
2.37301e-34
4.81283e-34
9.83571e-34
2.05377e-33
4.3956e-33
9.73503e-33
2.3071e-32
5.84996e-32
1.62869e-31
5.15474e-31
1.89829e-30
8.31675e-30
4.83354e-29
1.78322e-28
5.31479e-29
2.28315e-27
3.39952e-25
4.05462e-22
3.21842e-18
1.35788e-15
5.44358e-14
3.85261e-13
8.73519e-13
2.95807e-12
5.40688e-12
5.57409e-12
6.08535e-12
9.58225e-12
2.67892e-11
5.39911e-11
1.69996e-10
9.12802e-10
2.5686e-09
8.85668e-10
6.058e-11
1.46971e-11
9.61945e-11
2.46162e-10
2.05932e-10
1.45993e-10
1.51783e-10
1.10589e-10
3.56313e-11
1.16073e-11
5.41254e-12
3.63817e-12
3.32668e-12
3.46368e-12
2.76981e-12
1.03189e-12
4.16694e-13
7.2264e-14
2.27476e-15
3.05348e-17
4.84883e-19
8.00242e-21
1.1426e-22
1.42942e-24
2.0166e-26
1.33669e-27
2.74004e-28
6.40478e-29
1.56812e-29
4.1441e-30
1.18264e-30
3.63317e-31
1.20103e-31
4.25811e-32
1.60827e-32
6.41606e-33
2.67385e-33
1.14435e-33
4.88496e-34
1.91281e-34
4.73054e-35
1.80691e-34
4.00146e-37
6.39371e-38
2.84991e-37
6.99487e-37
1.53377e-36
3.34217e-36
7.4577e-36
1.73365e-35
4.23879e-35
1.09922e-34
3.05316e-34
9.16947e-34
3.02071e-33
1.11047e-32
4.60105e-32
2.1589e-31
1.20016e-30
1.14961e-29
1.49221e-29
5.93013e-28
1.22464e-25
2.2417e-23
2.5153e-19
2.82631e-17
1.28303e-15
9.00023e-15
3.44823e-14
1.03073e-13
2.33106e-13
3.55084e-13
7.68127e-13
2.59114e-12
1.05126e-11
3.94059e-11
6.97823e-11
6.02901e-11
2.74117e-10
2.53099e-10
7.12291e-11
1.30657e-11
5.52597e-11
1.88936e-10
1.80628e-10
9.20797e-11
8.75628e-11
5.29011e-11
1.37266e-11
3.44231e-12
9.85839e-13
4.13896e-13
3.16615e-13
3.1847e-13
1.89733e-13
3.96862e-14
1.18767e-14
1.68869e-15
4.58201e-17
6.16581e-19
9.20542e-21
1.33726e-22
1.76943e-24
2.13477e-26
3.11401e-28
2.07194e-29
3.82241e-30
8.04074e-31
1.79405e-31
4.33992e-32
1.13839e-32
3.23182e-33
9.93113e-34
3.29346e-34
1.17127e-34
4.43043e-35
1.76328e-35
7.26014e-36
3.00375e-36
1.14781e-36
2.79415e-37
1.0007e-36
2.04148e-39
3.77777e-40
1.69176e-39
4.31784e-39
9.97326e-39
2.31564e-38
5.57311e-38
1.41523e-37
3.83413e-37
1.11661e-36
3.53148e-36
1.2181e-35
4.609e-35
1.92306e-34
8.85637e-34
4.48973e-33
2.5235e-32
1.75428e-31
1.72704e-30
1.89074e-29
3.59739e-27
4.38819e-25
1.9151e-21
4.53362e-19
2.09865e-17
1.34977e-16
4.81265e-16
1.12723e-15
3.25309e-15
1.66828e-14
1.28973e-13
7.8024e-13
3.67168e-12
1.70573e-11
4.37977e-11
5.60086e-11
3.80858e-11
2.41265e-11
2.12776e-11
1.29935e-11
3.087e-11
1.57935e-10
1.715e-10
6.64502e-11
4.73095e-11
2.59081e-11
5.90481e-12
1.40444e-12
2.96194e-13
5.15798e-14
1.17428e-14
6.03521e-15
2.5992e-15
3.55966e-16
1.70917e-16
2.81164e-17
7.92697e-19
1.08913e-20
1.5882e-22
2.17592e-24
2.62643e-26
2.82814e-28
4.16455e-30
2.94903e-31
5.03392e-32
9.65335e-33
1.98582e-33
4.44314e-34
1.08092e-34
2.85786e-35
8.21855e-36
2.56427e-36
8.62976e-37
3.1083e-37
1.18569e-37
4.71072e-38
1.89341e-38
7.07317e-39
1.69667e-39
5.68396e-39
1.05341e-41
2.25031e-42
1.01379e-41
2.6832e-41
6.50113e-41
1.59918e-40
4.11917e-40
1.13063e-39
3.34194e-39
1.07105e-38
3.7545e-38
1.44136e-37
6.07519e-37
2.81665e-36
1.41085e-35
7.57861e-35
4.37927e-34
2.78648e-33
2.60799e-32
9.48525e-31
1.36552e-28
1.52382e-26
2.12322e-23
5.09144e-21
2.40719e-19
1.84605e-18
5.87491e-18
2.00062e-17
2.20413e-16
3.33184e-15
3.79742e-14
2.70885e-13
1.27444e-12
5.40314e-12
1.83557e-11
3.7511e-11
3.93879e-11
3.64941e-11
2.62271e-11
1.29732e-11
1.86002e-11
1.27764e-10
1.57228e-10
5.8973e-11
2.92336e-11
1.5569e-11
3.17008e-12
7.39233e-13
1.45895e-13
1.91976e-14
1.76133e-15
1.32977e-16
8.22797e-18
1.93667e-18
2.17533e-18
3.59617e-19
1.06742e-20
1.58198e-22
2.34678e-24
3.16042e-26
3.65154e-28
3.72066e-30
5.28029e-32
3.80149e-33
6.15423e-34
1.09761e-34
2.10714e-35
4.40564e-36
1.00315e-36
2.48951e-37
6.74621e-38
1.99223e-38
6.3776e-39
2.19706e-39
8.06282e-40
3.10059e-40
1.21368e-40
4.44047e-41
1.05074e-41
3.28539e-41
5.45473e-44
1.34546e-44
6.09563e-44
1.66922e-43
4.22813e-43
1.0971e-42
3.00743e-42
8.86013e-42
2.83294e-41
9.8924e-41
3.76888e-40
1.55682e-39
6.951e-39
3.3591e-38
1.7538e-37
9.85953e-37
5.96213e-36
4.13771e-35
8.78473e-34
1.27588e-31
2.19506e-29
1.98496e-27
2.60908e-25
2.92518e-23
2.03245e-21
2.10608e-20
1.62709e-19
2.73307e-18
5.69798e-17
1.05951e-15
1.32969e-14
1.04126e-13
4.97925e-13
1.97948e-12
6.92777e-12
1.8134e-11
2.67234e-11
2.55673e-11
2.12411e-11
1.20546e-11
1.42803e-11
1.00553e-10
1.27595e-10
5.89568e-11
2.01369e-11
1.09694e-11
1.98961e-12
4.22194e-13
7.65122e-14
8.91314e-15
7.02657e-16
4.08558e-17
1.9903e-18
9.39605e-20
2.09738e-20
3.48219e-21
1.10274e-22
1.91982e-24
3.01916e-26
4.10726e-28
4.67811e-30
4.64203e-32
6.42511e-34
4.52347e-35
6.98075e-36
1.1756e-36
2.12827e-37
4.19875e-38
9.02803e-39
2.11994e-39
5.45105e-40
1.53284e-40
4.69231e-41
1.55307e-41
5.50421e-42
2.05526e-42
7.8545e-43
2.81972e-43
6.58924e-44
1.91877e-43
2.80955e-46
8.12099e-47
3.65145e-46
1.03344e-45
2.72608e-45
7.40417e-45
2.13483e-44
6.62161e-44
2.22445e-43
8.1112e-43
3.22205e-42
1.39136e-41
6.50945e-41
3.29819e-40
1.80274e-39
1.06006e-38
6.77138e-38
9.48214e-37
9.25774e-35
1.6327e-32
2.23148e-30
1.88236e-28
1.0022e-26
2.92296e-25
2.81128e-23
9.65542e-22
2.96008e-20
7.71487e-19
1.75498e-17
3.48639e-16
4.93318e-15
4.30293e-14
2.19497e-13
8.88476e-13
3.10539e-12
8.83061e-12
1.68927e-11
1.85084e-11
1.63041e-11
9.78541e-12
1.32477e-11
8.2561e-11
9.91154e-11
3.97477e-11
1.40061e-11
7.65e-12
1.3028e-12
2.51555e-13
4.10117e-14
4.17343e-15
2.85042e-16
1.52496e-17
6.91618e-19
2.70635e-20
8.29754e-22
4.11868e-23
1.24221e-24
2.72404e-26
4.57937e-28
6.32205e-30
7.20968e-32
7.06141e-34
8.68936e-36
5.03912e-37
7.30668e-38
1.17523e-38
2.03314e-39
3.82816e-40
7.83228e-41
1.7532e-41
4.30704e-42
1.16022e-42
3.41446e-43
1.09077e-43
3.74773e-44
1.36314e-44
5.09896e-45
1.79947e-45
4.15754e-46
1.12494e-45
1.43111e-48
4.73038e-49
2.11118e-48
6.12162e-48
1.6575e-47
4.63814e-47
1.38121e-46
4.43816e-46
1.54895e-45
5.88425e-45
2.43862e-44
1.09981e-43
5.38533e-43
2.86146e-42
1.64181e-41
1.00715e-40
8.61781e-40
6.0653e-38
1.25808e-35
2.01679e-33
2.33033e-31
2.19729e-29
1.69805e-27
9.96155e-26
5.26589e-24
2.48845e-22
8.64075e-21
2.42635e-19
5.62467e-18
1.22012e-16
2.01152e-15
1.97457e-14
1.098e-13
4.68315e-13
1.68002e-12
4.96875e-12
1.12261e-11
1.41246e-11
1.21486e-11
7.7601e-12
1.28395e-11
7.16151e-11
8.62037e-11
2.3147e-11
9.28957e-12
4.18221e-12
7.94896e-13
1.56521e-13
2.20026e-14
1.98672e-15
1.146e-16
5.46505e-18
2.31931e-19
8.19978e-21
2.35284e-22
5.50319e-24
1.15845e-25
2.04227e-27
2.96874e-29
3.65199e-31
3.83915e-33
3.46388e-35
2.91094e-37
6.36415e-39
7.14085e-40
1.09648e-40
1.82316e-41
3.29586e-42
6.48414e-43
1.39712e-43
3.30779e-44
8.59174e-45
2.44294e-45
7.56685e-46