/*--------------------------------*- C++ -*----------------------------------*\
| =========                 |                                                 |
| \\      /  F ield         | OpenFOAM: The Open Source CFD Toolbox           |
|  \\    /   O peration     | Version:  2412                                  |
|   \\  /    A nd           | Website:  www.openfoam.com                      |
|    \\/     M anipulation  |                                                 |
\*---------------------------------------------------------------------------*/
FoamFile
{
    version     2.0;
    format      ascii;
    arch        "LSB;label=32;scalar=64";
    class       surfaceScalarField;
    location    "0.8";
    object      alphaPhi0.oil;
}
// * * * * * * * * * * * * * * * * * * * * * * * * * * * * * * * * * * * * * //

dimensions      [0 3 -1 0 0 0 0];

oriented        oriented;

internalField   nonuniform List<scalar> 
12640
(
-7.18351e-09
7.18352e-09
-2.39829e-08
1.68773e-08
-4.68593e-08
2.29431e-08
-7.31991e-08
2.63933e-08
-1.01543e-07
2.8387e-08
-1.31099e-07
2.95989e-08
-1.61454e-07
3.0404e-08
-1.92403e-07
3.10075e-08
-2.23852e-07
3.15138e-08
-2.5576e-07
3.19689e-08
-2.88097e-07
3.23872e-08
-3.20822e-07
3.27665e-08
-3.53875e-07
3.30931e-08
-3.8717e-07
3.33437e-08
-4.20596e-07
3.34845e-08
-4.54008e-07
3.3473e-08
-4.87211e-07
3.3259e-08
-5.19956e-07
3.27885e-08
-5.51923e-07
3.20041e-08
-5.82729e-07
3.08442e-08
-6.11921e-07
2.92408e-08
-6.3898e-07
2.71187e-08
-6.63314e-07
2.43968e-08
-6.84256e-07
2.09951e-08
-7.0106e-07
1.68409e-08
-7.12913e-07
1.18736e-08
-7.18957e-07
6.05247e-09
-7.18303e-07
-6.52664e-10
-7.10092e-07
-8.21735e-09
-6.93514e-07
-1.65977e-08
-6.67861e-07
-2.56873e-08
-6.32588e-07
-3.53215e-08
-5.87371e-07
-4.52747e-08
-5.32175e-07
-5.52638e-08
-4.67299e-07
-6.49552e-08
-3.9342e-07
-7.39761e-08
-3.11592e-07
-8.19362e-08
-2.23242e-07
-8.84585e-08
-1.30122e-07
-9.32138e-08
-3.42413e-08
-9.59523e-08
6.22367e-08
-9.65316e-08
1.57118e-07
-9.49307e-08
2.48298e-07
-9.12442e-08
3.33874e-07
-8.56648e-08
4.12252e-07
-7.84729e-08
4.82179e-07
-7.00163e-08
5.42783e-07
-6.06782e-08
5.93547e-07
-5.08351e-08
6.34332e-07
-4.08398e-08
6.65301e-07
-3.10162e-08
6.86867e-07
-2.16102e-08
6.99675e-07
-1.28277e-08
7.04479e-07
-4.80263e-09
7.02199e-07
2.36335e-09
6.93583e-07
8.61152e-09
6.79751e-07
1.40068e-08
6.61446e-07
1.84798e-08
6.39244e-07
2.2094e-08
6.14035e-07
2.50391e-08
5.86463e-07
2.74331e-08
5.57045e-07
2.93334e-08
5.26263e-07
3.07523e-08
4.9434e-07
3.17626e-08
4.61663e-07
3.25126e-08
4.28613e-07
3.3078e-08
3.95343e-07
3.34325e-08
3.62017e-07
3.35647e-08
3.28722e-07
3.35066e-08
2.95588e-07
3.33137e-08
2.6269e-07
3.30077e-08
2.30074e-07
3.26309e-08
1.97867e-07
3.22361e-08
1.66176e-07
3.17979e-08
1.35074e-07
3.12212e-08
1.0475e-07
3.04035e-08
7.56385e-08
2.91865e-08
4.85378e-08
2.71984e-08
2.49206e-08
2.37036e-08
7.4738e-09
1.74924e-08
7.47811e-09
-1.67126e-08
2.39696e-08
-5.17261e-08
5.20239e-08
-9.80056e-08
6.93308e-08
-1.51245e-07
7.97244e-08
-2.08751e-07
8.59828e-08
-2.68913e-07
8.98594e-08
-3.30792e-07
9.2395e-08
-3.93859e-07
9.41924e-08
-4.5782e-07
9.55859e-08
-5.22502e-07
9.67471e-08
-5.87781e-07
9.77482e-08
-6.53532e-07
9.85989e-08
-7.19613e-07
9.92652e-08
-7.85844e-07
9.96791e-08
-8.51997e-07
9.97454e-08
-9.17771e-07
9.93477e-08
-9.82778e-07
9.83518e-08
-1.04652e-06
9.66062e-08
-1.10837e-06
9.39412e-08
-1.1676e-06
9.01662e-08
-1.22332e-06
8.50727e-08
-1.27453e-06
7.84393e-08
-1.32009e-06
7.00408e-08
-1.3587e-06
5.96601e-08
-1.38892e-06
4.70998e-08
-1.40923e-06
3.21932e-08
-1.418e-06
1.48226e-08
-1.41361e-06
-5.0642e-09
-1.39446e-06
-2.74124e-08
-1.35907e-06
-5.20511e-08
-1.30619e-06
-7.86592e-08
-1.23486e-06
-1.06755e-07
-1.14457e-06
-1.35686e-07
-1.03534e-06
-1.64637e-07
-9.07828e-07
-1.92644e-07
-7.63352e-07
-2.18639e-07
-6.03958e-07
-2.41516e-07
-4.3236e-07
-2.60216e-07
-2.51874e-07
-2.73829e-07
-6.62769e-08
-2.81668e-07
1.20387e-07
-2.8333e-07
3.04026e-07
-2.7873e-07
4.80725e-07
-2.68119e-07
6.46927e-07
-2.5205e-07
7.99616e-07
-2.31332e-07
9.36409e-07
-2.06961e-07
1.05563e-06
-1.80025e-07
1.15628e-06
-1.5161e-07
1.23803e-06
-1.22704e-07
1.30113e-06
-9.42029e-08
1.34629e-06
-6.68255e-08
1.37463e-06
-4.11501e-08
1.38742e-06
-1.76247e-08
1.3863e-06
3.58056e-09
1.37272e-06
2.21787e-08
1.3484e-06
3.81561e-08
1.3149e-06
5.17776e-08
1.27359e-06
6.3252e-08
1.22595e-06
7.27614e-08
1.17315e-06
8.0408e-08
1.11622e-06
8.63769e-08
1.05616e-06
9.09899e-08
9.93686e-07
9.44804e-08
9.29482e-07
9.69778e-08
8.64165e-07
9.86149e-08
7.98137e-07
9.95212e-08
7.31797e-07
9.9904e-08
6.65392e-07
9.98974e-08
5.99125e-07
9.95896e-08
5.33162e-07
9.90625e-08
4.67638e-07
9.83532e-08
4.02713e-07
9.74179e-08
3.38583e-07
9.61621e-08
2.75563e-07
9.44471e-08
2.14214e-07
9.19834e-08
1.55473e-07
8.81537e-08
1.00939e-07
8.18575e-08
5.33719e-08
7.13022e-08
1.72472e-08
5.36458e-08
2.47979e-08
-2.25582e-08
4.65945e-08
-6.85017e-08
9.80971e-08
-1.28192e-07
1.2913e-07
-1.96431e-07
1.4806e-07
-2.70057e-07
1.59703e-07
-3.47112e-07
1.67016e-07
-4.26402e-07
1.71792e-07
-5.07206e-07
1.75102e-07
-5.89091e-07
1.77566e-07
-6.71782e-07
1.79519e-07
-7.55073e-07
1.81112e-07
-8.38777e-07
1.82378e-07
-9.22694e-07
1.83265e-07
-1.00658e-06
1.83659e-07
-1.09014e-06
1.83395e-07
-1.17297e-06
1.82273e-07
-1.25459e-06
1.80056e-07
-1.33436e-06
1.7647e-07
-1.41153e-06
1.71205e-07
-1.48519e-06
1.63915e-07
-1.55425e-06
1.54225e-07
-1.61748e-06
1.41745e-07
-1.67347e-06
1.26078e-07
-1.72061e-06
1.0684e-07
-1.75716e-06
8.36752e-08
-1.78124e-06
5.62813e-08
-1.79086e-06
2.44443e-08
-1.78402e-06
-1.19193e-08
-1.75874e-06
-5.27145e-08
-1.71321e-06
-9.76273e-08
-1.64583e-06
-1.46085e-07
-1.55543e-06
-1.97224e-07
-1.44134e-06
-2.49871e-07
-1.30356e-06
-3.02546e-07
-1.14284e-06
-3.53496e-07
-9.60828e-07
-4.00786e-07
-7.60063e-07
-4.42412e-07
-5.43954e-07
-4.7646e-07
-3.1667e-07
-5.01262e-07
-8.29614e-08
-5.15548e-07
1.5208e-07
-5.18562e-07
3.83298e-07
-5.10144e-07
6.05763e-07
-4.90758e-07
8.15e-07
-4.61444e-07
1.00721e-06
-4.23705e-07
1.17944e-06
-3.7936e-07
1.3296e-06
-3.30367e-07
1.45652e-06
-2.78691e-07
1.55979e-06
-2.26136e-07
1.63981e-06
-1.74312e-07
1.69744e-06
-1.24574e-07
1.73404e-06
-7.79151e-08
1.75135e-06
-3.51028e-08
1.75109e-06
3.45257e-09
1.73527e-06
3.76227e-08
1.70611e-06
6.74631e-08
1.66543e-06
9.30432e-08
1.61487e-06
1.14436e-07
1.55611e-06
1.32022e-07
1.49066e-06
1.46259e-07
1.4199e-06
1.5753e-07
1.34502e-06
1.66211e-07
1.26679e-06
1.72625e-07
1.18613e-06
1.7722e-07
1.10381e-06
1.8047e-07
1.02045e-06
1.82624e-07
9.36487e-07
1.83831e-07
8.52249e-07
1.84256e-07
7.68021e-07
1.8407e-07
6.84004e-07
1.83371e-07
6.00372e-07
1.82198e-07
5.17381e-07
1.80563e-07
4.3538e-07
1.78361e-07
3.54822e-07
1.75249e-07
2.76403e-07
1.7059e-07
2.01311e-07
1.63324e-07
1.31563e-07
1.51661e-07
7.04368e-08
1.32565e-07
2.32281e-08
1.00963e-07
4.81024e-08
-2.56683e-08
7.23317e-08
-7.80286e-08
1.50594e-07
-1.45693e-07
1.96911e-07
-2.2272e-07
2.25192e-07
-3.05651e-07
2.42733e-07
-3.92371e-07
2.53835e-07
-4.81575e-07
2.61095e-07
-5.72457e-07
2.66079e-07
-6.64518e-07
2.69711e-07
-7.57429e-07
2.72504e-07
-8.50947e-07
2.747e-07
-9.44858e-07
2.7636e-07
-1.03894e-06
2.77419e-07
-1.13291e-06
2.77718e-07
-1.22645e-06
2.77026e-07
-1.31913e-06
2.75051e-07
-1.41042e-06
2.71442e-07
-1.49964e-06
2.65792e-07
-1.58598e-06
2.57638e-07
-1.66846e-06
2.46468e-07
-1.74591e-06
2.31732e-07
-1.81697e-06
2.12852e-07
-1.88009e-06
1.89236e-07
-1.93352e-06
1.60301e-07
-1.97532e-06
1.25501e-07
-2.00339e-06
8.43651e-08
-2.01549e-06
3.65539e-08
-2.00934e-06
-1.80793e-08
-1.98263e-06
-7.94237e-08
-1.93322e-06
-1.47046e-07
-1.85921e-06
-2.20126e-07
-1.7591e-06
-2.97394e-07
-1.63195e-06
-3.771e-07
-1.47758e-06
-4.57006e-07
-1.29672e-06
-5.34456e-07
-1.09111e-06
-6.0649e-07
-8.63605e-07
-6.7003e-07
-6.1812e-07
-7.22097e-07
-3.59503e-07
-7.6007e-07
-9.33167e-08
-7.81935e-07
1.7444e-07
-7.86506e-07
4.37675e-07
-7.73546e-07
6.90569e-07
-7.43804e-07
9.27897e-07
-6.98924e-07
1.14527e-06
-6.41247e-07
1.33935e-06
-5.73591e-07
1.50784e-06
-4.9899e-07
1.64957e-06
-4.20468e-07
1.76421e-06
-3.40851e-07
1.85238e-06
-2.62537e-07
1.91525e-06
-1.87513e-07
1.95446e-06
-1.17311e-07
1.97215e-06
-5.28281e-08
1.9704e-06
5.34996e-09
1.95152e-06
5.68045e-08
1.91781e-06
1.01396e-07
1.87126e-06
1.39433e-07
1.81394e-06
1.71447e-07
1.74773e-06
1.98005e-07
1.67419e-06
2.19584e-07
1.5948e-06
2.36666e-07
1.51082e-06
2.49964e-07
1.42324e-06
2.60117e-07
1.33311e-06
2.67629e-07
1.24109e-06
2.72876e-07
1.14776e-06
2.76248e-07
1.05366e-06
2.78154e-07
9.59211e-07
2.78903e-07
8.64694e-07
2.78707e-07
7.70324e-07
2.77754e-07
6.76379e-07
2.76167e-07
5.83175e-07
2.73885e-07
4.91042e-07
2.70634e-07
4.00469e-07
2.65914e-07
3.12284e-07
2.58857e-07
2.27824e-07
2.47909e-07
1.49252e-07
2.30412e-07
8.00744e-08
2.01902e-07
2.63878e-08
1.54797e-07
7.45839e-08
-2.71993e-08
9.96077e-08
-8.31189e-08
2.06655e-07
-1.55428e-07
2.69339e-07
-2.3763e-07
3.07496e-07
-3.26013e-07
3.31207e-07
-4.18353e-07
3.46262e-07
-5.13291e-07
3.56118e-07
-6.0999e-07
3.62862e-07
-7.07933e-07
3.67734e-07
-8.06783e-07
3.71429e-07
-9.06299e-07
3.74284e-07
-1.00627e-06
3.76397e-07
-1.10647e-06
3.77694e-07
-1.20665e-06
3.77976e-07
-1.30648e-06
3.76944e-07
-1.40553e-06
3.74213e-07
-1.5033e-06
3.69314e-07
-1.59911e-06
3.617e-07
-1.69215e-06
3.50754e-07
-1.78142e-06
3.35793e-07
-1.86572e-06
3.16077e-07
-1.94364e-06
2.9082e-07
-2.01358e-06
2.59208e-07
-2.07366e-06
2.20423e-07
-2.12183e-06
1.73688e-07
-2.15577e-06
1.1832e-07
-2.17302e-06
5.3805e-08
-2.17096e-06
-2.0127e-08
-2.14697e-06
-1.03411e-07
-2.09847e-06
-1.95549e-07
-2.02312e-06
-2.95506e-07
-1.91896e-06
-4.01613e-07
-1.78463e-06
-5.11506e-07
-1.61959e-06
-6.22124e-07
-1.42435e-06
-7.29774e-07
-1.20064e-06
-8.30284e-07
-9.51544e-07
-9.19247e-07
-6.81445e-07
-9.92349e-07
-3.95927e-07
-1.04576e-06
-1.015e-07
-1.07652e-06
1.94762e-07
-1.0829e-06
4.85662e-07
-1.06457e-06
7.64359e-07
-1.02264e-06
1.02481e-06
-9.59493e-07
1.26202e-06
-8.78555e-07
1.47231e-06
-7.83915e-07
1.65329e-06
-6.79985e-07
1.80387e-06
-5.71038e-07
1.92409e-06
-4.6103e-07
2.01489e-06
-3.5331e-07
2.07791e-06
-2.50487e-07
2.1154e-06
-1.54567e-07
2.12981e-06
-6.69745e-08
2.12343e-06
1.14347e-08
2.09889e-06
8.05694e-08
2.05897e-06
1.40691e-07
2.00594e-06
1.92099e-07
1.94199e-06
2.35286e-07
1.86895e-06
2.7092e-07
1.78843e-06
2.99894e-07
1.70224e-06
3.23077e-07
1.61159e-06
3.41174e-07
1.51742e-06
3.54791e-07
1.4207e-06
3.64692e-07
1.32215e-06
3.71594e-07
1.22244e-06
3.7609e-07
1.12203e-06
3.78649e-07
1.02132e-06
3.7968e-07
9.20644e-07
3.79504e-07
8.20212e-07
3.78329e-07
7.20259e-07
3.76237e-07
6.21076e-07
3.73149e-07
5.23035e-07
3.68765e-07
4.26677e-07
3.62422e-07
3.3284e-07
3.52881e-07
2.4288e-07
3.38028e-07
1.59077e-07
3.14358e-07
8.52087e-08
2.75907e-07
2.79441e-08
2.12228e-07
1.0262e-07
-2.7835e-08
1.27524e-07
-8.55683e-08
2.64519e-07
-1.60449e-07
3.44325e-07
-2.45621e-07
3.92753e-07
-3.37169e-07
4.22828e-07
-4.32775e-07
4.41937e-07
-5.3104e-07
4.54457e-07
-6.31124e-07
4.63025e-07
-7.32518e-07
4.69209e-07
-8.34908e-07
4.73897e-07
-9.38081e-07
4.77527e-07
-1.04186e-06
4.80238e-07
-1.14605e-06
4.81954e-07
-1.25044e-06
4.82441e-07
-1.35474e-06
4.81333e-07
-1.45857e-06
4.78149e-07
-1.56147e-06
4.72305e-07
-1.6628e-06
4.63115e-07
-1.76178e-06
4.49805e-07
-1.85745e-06
4.31514e-07
-1.94862e-06
4.07296e-07
-2.03388e-06
3.76136e-07
-2.11158e-06
3.36959e-07
-2.1798e-06
2.88675e-07
-2.23633e-06
2.30227e-07
-2.27867e-06
1.60662e-07
-2.30408e-06
7.92137e-08
-2.30959e-06
-1.46059e-08
-2.29214e-06
-1.20871e-07
-2.24861e-06
-2.39105e-07
-2.17604e-06
-3.68129e-07
-2.07181e-06
-5.05914e-07
-1.9339e-06
-6.49486e-07
-1.76121e-06
-7.94884e-07
-1.55384e-06
-9.37218e-07
-1.31336e-06
-1.07084e-06
-1.04302e-06
-1.18968e-06
-7.47742e-07
-1.28772e-06
-4.34032e-07
-1.35955e-06
-1.0965e-07
-1.40099e-06
2.16905e-07
-1.40956e-06
5.36983e-07
-1.38477e-06
8.42414e-07
-1.32818e-06
1.12609e-06
-1.24323e-06
1.38231e-06
-1.1348e-06
1.60698e-06
-1.00865e-06
1.79781e-06
-8.70868e-07
1.95392e-06
-7.27311e-07
2.0759e-06
-5.83168e-07
2.16538e-06
-4.42779e-07
2.22456e-06
-3.09731e-07
2.25625e-06
-1.86502e-07
2.26347e-06
-7.44853e-08
2.24928e-06
2.55757e-08
2.21667e-06
1.13404e-07
2.16851e-06
1.89222e-07
2.10724e-06
2.53542e-07
2.03529e-06
3.07372e-07
1.95475e-06
3.51772e-07
1.86721e-06
3.87662e-07
1.77438e-06
4.1608e-07
1.67741e-06
4.38059e-07
1.57741e-06
4.54602e-07
1.47534e-06
4.66687e-07
1.37184e-06
4.75098e-07
1.26747e-06
4.80505e-07
1.16267e-06
4.83511e-07
1.05783e-06
4.84648e-07
9.53203e-07
4.84289e-07
8.4897e-07
4.8268e-07
7.45347e-07
4.79947e-07
6.42618e-07
4.76007e-07
5.41124e-07
4.70446e-07
4.41371e-07
4.62373e-07
3.44186e-07
4.5021e-07
2.50993e-07
4.31326e-07
1.64168e-07
4.01296e-07
8.7704e-08
3.52519e-07
2.86064e-08
2.71491e-07
1.31286e-07
-2.79595e-08
1.55559e-07
-8.64528e-08
3.23117e-07
-1.62616e-07
4.20566e-07
-2.49391e-07
4.79585e-07
-3.42709e-07
5.16195e-07
-4.40164e-07
5.39446e-07
-5.4033e-07
5.54689e-07
-6.42369e-07
5.65145e-07
-7.45801e-07
5.72729e-07
-8.50356e-07
5.78532e-07
-9.55868e-07
5.83107e-07
-1.06221e-06
5.86641e-07
-1.16926e-06
5.89063e-07
-1.27686e-06
5.90106e-07
-1.38478e-06
5.89339e-07
-1.49273e-06
5.86192e-07
-1.6003e-06
5.79964e-07
-1.70695e-06
5.69838e-07
-1.81196e-06
5.54879e-07
-1.91442e-06
5.34039e-07
-2.0132e-06
5.06151e-07
-2.10693e-06
4.69938e-07
-2.19395e-06
4.24038e-07
-2.2723e-06
3.67042e-07
-2.33963e-06
2.97557e-07
-2.39325e-06
2.14272e-07
-2.4301e-06
1.16065e-07
-2.44683e-06
2.10744e-09
-2.43978e-06
-1.27944e-07
-2.40516e-06
-2.73771e-07
-2.33918e-06
-4.34174e-07
-2.2383e-06
-6.06864e-07
-2.09957e-06
-7.88287e-07
-1.92102e-06
-9.73511e-07
-1.70206e-06
-1.15624e-06
-1.44392e-06
-1.32903e-06
-1.14993e-06
-1.48368e-06
-8.25693e-07
-1.61196e-06
-4.78912e-07
-1.70636e-06
-1.19024e-07
-1.76096e-06
2.43516e-07
-1.77221e-06
5.98057e-07
-1.7394e-06
9.34586e-07
-1.66481e-06
1.24454e-06
-1.55328e-06
1.52134e-06
-1.41172e-06
1.76051e-06
-1.24807e-06
1.95995e-06
-1.07052e-06
2.11936e-06
-8.86873e-07
2.2401e-06
-7.04053e-07
2.32452e-06
-5.27526e-07
2.37588e-06
-3.61377e-07
2.39804e-06
-2.08451e-07
2.39467e-06
-7.06214e-08
2.36928e-06
5.13368e-08
2.32538e-06
1.57496e-07
2.26616e-06
2.48544e-07
2.19454e-06
3.25424e-07
2.11302e-06
3.89218e-07
2.02359e-06
4.4129e-07
1.92796e-06
4.83034e-07
1.82787e-06
5.15948e-07
1.72446e-06
5.41311e-07
1.61883e-06
5.60275e-07
1.51178e-06
5.73888e-07
1.40386e-06
5.83122e-07
1.29557e-06
5.88854e-07
1.18731e-06
5.91824e-07
1.07938e-06
5.92646e-07
9.71963e-07
5.91774e-07
8.65212e-07
5.89514e-07
7.59292e-07
5.85988e-07
6.54404e-07
5.81056e-07
5.50836e-07
5.74188e-07
4.4907e-07
5.64289e-07
3.49941e-07
5.49442e-07
2.54912e-07
5.26445e-07
1.66435e-07
4.89883e-07
8.86446e-08
4.30434e-07
2.87514e-08
3.31504e-07
1.60062e-07
-2.77904e-08
1.8341e-07
-8.64121e-08
3.81807e-07
-1.63068e-07
4.97268e-07
-2.50598e-07
5.67147e-07
-3.44817e-07
6.10446e-07
-4.43247e-07
6.37923e-07
-5.44435e-07
6.55946e-07
-6.47557e-07
6.68353e-07
-7.52174e-07
6.77435e-07
-8.5807e-07
6.84506e-07
-9.65146e-07
6.90245e-07
-1.07335e-06
6.94898e-07
-1.18264e-06
6.98405e-07
-1.29293e-06
7.00467e-07
-1.40412e-06
7.00596e-07
-1.51598e-06
6.98136e-07
-1.62822e-06
6.9228e-07
-1.74039e-06
6.82079e-07
-1.85187e-06
6.6644e-07
-1.96186e-06
6.44116e-07
-2.06932e-06
6.13705e-07
-2.17296e-06
5.7365e-07
-2.27115e-06
5.22269e-07
-2.36189e-06
4.57787e-07
-2.44275e-06
3.78395e-07
-2.51082e-06
2.82325e-07
-2.56274e-06
1.67962e-07
-2.59465e-06
3.39931e-08
-2.60224e-06
-1.20389e-07
-2.58085e-06
-2.95215e-07
-2.5256e-06
-4.89475e-07
-2.43174e-06
-7.00791e-07
-2.29499e-06
-9.25111e-07
-2.11209e-06
-1.15648e-06
-1.88139e-06
-1.38699e-06
-1.60346e-06
-1.60696e-06
-1.28163e-06
-1.8055e-06
-9.22272e-07
-1.97133e-06
-5.34664e-07
-2.09401e-06
-1.30518e-07
-2.16519e-06
2.7696e-07
-2.17978e-06
6.74281e-07
-2.13679e-06
1.04889e-06
-2.03949e-06
1.39025e-06
-1.8948e-06
1.69068e-06
-1.71227e-06
1.94547e-06
-1.50291e-06
2.15279e-06
-1.27788e-06
2.31318e-06
-1.04742e-06
2.42935e-06
-8.20161e-07
2.50498e-06
-6.02979e-07
2.54453e-06
-4.00856e-07
2.55282e-06
-2.16839e-07
2.53458e-06
-5.25528e-08
2.49417e-06
9.15543e-08
2.43572e-06
2.1594e-07
2.36269e-06
3.21512e-07
2.27817e-06
4.09783e-07
2.18492e-06
4.82421e-07
2.08498e-06
5.41207e-07
1.98019e-06
5.87916e-07
1.87209e-06
6.243e-07
1.76171e-06
6.51837e-07
1.65007e-06
6.72006e-07
1.53789e-06
6.86141e-07
1.42565e-06
6.95395e-07
1.31372e-06
7.00766e-07
1.20242e-06
7.03117e-07
1.09196e-06
7.03149e-07
9.82431e-07
7.01385e-07
8.73915e-07
6.98162e-07
7.6648e-07
6.93582e-07
6.60241e-07
6.87448e-07
5.55435e-07
6.79128e-07
4.52514e-07
6.67317e-07
3.52313e-07
6.4973e-07
2.56302e-07
6.22533e-07
1.67008e-07
5.79268e-07
8.8664e-08
5.08858e-07
2.85962e-08
3.91637e-07
1.8867e-07
-2.745e-08
2.10898e-07
-8.5829e-08
4.40222e-07
-1.62509e-07
5.73969e-07
-2.5028e-07
6.54935e-07
-3.44863e-07
7.05056e-07
-4.43712e-07
7.36821e-07
-5.45352e-07
7.57659e-07
-6.48984e-07
7.7207e-07
-7.54219e-07
7.82753e-07
-8.60914e-07
7.91269e-07
-9.69049e-07
7.98436e-07
-1.07867e-06
8.04567e-07
-1.18982e-06
8.09616e-07
-1.30255e-06
8.13261e-07
-1.41685e-06
8.14958e-07
-1.53262e-06
8.13977e-07
-1.64969e-06
8.09413e-07
-1.76773e-06
8.00194e-07
-1.88627e-06
7.85068e-07
-2.00465e-06
7.62593e-07
-2.12199e-06
7.31121e-07
-2.23709e-06
6.88807e-07
-2.34842e-06
6.33616e-07
-2.45399e-06
5.63349e-07
-2.55131e-06
4.75694e-07
-2.63732e-06
3.68305e-07
-2.70832e-06
2.38927e-07
-2.75993e-06
8.55713e-08
-2.78706e-06
-9.32876e-08
-2.78399e-06
-2.98311e-07
-2.74451e-06
-5.28993e-07
-2.66223e-06
-7.83141e-07
-2.53102e-06
-1.05639e-06
-2.34578e-06
-1.34179e-06
-2.10319e-06
-1.62961e-06
-1.80272e-06
-1.90743e-06
-1.44746e-06
-2.16078e-06
-1.0446e-06
-2.37424e-06
-6.05482e-07
-2.53319e-06
-1.4498e-07
-2.62575e-06
3.198e-07
-2.64463e-06
7.71319e-07
-2.58838e-06
1.19352e-06
-2.46168e-06
1.57329e-06
-2.27449e-06
1.90147e-06
-2.04035e-06
2.17314e-06
-1.77446e-06
2.38725e-06
-1.4918e-06
2.5459e-06
-1.2059e-06
2.65338e-06
-9.27669e-07
2.71522e-06
-6.65161e-07
2.73779e-06
-4.23739e-07
2.72732e-06
-2.06617e-07
2.68968e-06
-1.51083e-08
2.63017e-06
1.50816e-07
2.55334e-06
2.92411e-07
2.4633e-06
4.11373e-07
2.3633e-06
5.09697e-07
2.25623e-06
5.89682e-07
2.14411e-06
6.53548e-07
2.0288e-06
7.03494e-07
1.91157e-06
7.41675e-07
1.79347e-06
7.69984e-07
1.67538e-06
7.90167e-07
1.55785e-06
8.03765e-07
1.44123e-06
8.12092e-07
1.32577e-06
8.16272e-07
1.21165e-06
8.17287e-07
1.09897e-06
8.15916e-07
9.87731e-07
8.12734e-07
8.77899e-07
8.08113e-07
7.69437e-07
8.02153e-07
6.62379e-07
7.94611e-07
5.56899e-07
7.84721e-07
4.53389e-07
7.70927e-07
3.5266e-07
7.50538e-07
2.5619e-07
7.19055e-07
1.66573e-07
6.68944e-07
8.81454e-08
5.87355e-07
2.82738e-08
4.51563e-07
2.1696e-07
-2.70096e-08
2.37927e-07
-8.49524e-08
4.9818e-07
-1.61418e-07
6.50444e-07
-2.49153e-07
7.42685e-07
-3.43778e-07
7.99712e-07
-4.4268e-07
8.35775e-07
-5.44373e-07
8.59421e-07
-6.48089e-07
8.75861e-07
-7.53512e-07
8.88244e-07
-8.60584e-07
8.98398e-07
-9.6939e-07
9.07294e-07
-1.08008e-06
9.15316e-07
-1.19284e-06
9.22434e-07
-1.30782e-06
9.28307e-07
-1.42514e-06
9.32346e-07
-1.54486e-06
9.33756e-07
-1.66693e-06
9.31548e-07
-1.79121e-06
9.24539e-07
-1.91739e-06
9.11332e-07
-2.04502e-06
8.90297e-07
-2.1734e-06
8.59555e-07
-2.30152e-06
8.16961e-07
-2.42799e-06
7.60096e-07
-2.55092e-06
6.86279e-07
-2.66785e-06
5.92604e-07
-2.77559e-06
4.76022e-07
-2.87017e-06
3.33473e-07
-2.94668e-06
1.62057e-07
-2.99918e-06
-4.07859e-08
-3.02075e-06
-2.76752e-07
-3.00348e-06
-5.46279e-07
-2.93886e-06
-8.47807e-07
-2.81828e-06
-1.17703e-06
-2.63392e-06
-1.52619e-06
-2.38e-06
-1.88358e-06
-2.05408e-06
-2.2334e-06
-1.65849e-06
-2.55643e-06
-1.20128e-06
-2.8315e-06
-6.9652e-07
-3.038e-06
-1.63485e-07
-3.15882e-06
3.75193e-07
-3.18332e-06
8.962e-07
-3.1094e-06
1.37843e-06
-2.94391e-06
1.80531e-06
-2.70128e-06
2.16599e-06
-2.40097e-06
2.45561e-06
-2.06414e-06
2.67441e-06
-1.71099e-06
2.82693e-06
-1.35872e-06
2.92015e-06
-1.02087e-06
2.96215e-06
-7.07086e-07
2.96144e-06
-4.23026e-07
2.92619e-06
-1.71372e-07
2.86362e-06
4.74839e-08
2.78025e-06
2.3454e-07
2.68108e-06
3.91727e-07
2.57058e-06
5.21899e-07
2.45231e-06
6.2793e-07
2.32912e-06
7.12849e-07
2.20299e-06
7.79508e-07
2.07574e-06
8.307e-07
1.94844e-06
8.68917e-07
1.82195e-06
8.96435e-07
1.69696e-06
9.15255e-07
1.57382e-06
9.27077e-07
1.45271e-06
9.33363e-07
1.33374e-06
9.35363e-07
1.21693e-06
9.34171e-07
1.10224e-06
9.30656e-07
9.89586e-07
9.25461e-07
8.78788e-07
9.18984e-07
7.69693e-07
9.11314e-07
6.62235e-07
9.02141e-07
5.56491e-07
8.90546e-07
4.52785e-07
8.74704e-07
3.51875e-07
8.51497e-07
2.5527e-07
8.15717e-07
1.65611e-07
7.58674e-07
8.7341e-08
6.65713e-07
2.78562e-08
5.11115e-07
2.44836e-07
-2.65244e-08
2.6446e-07
-8.39914e-08
5.55656e-07
-1.60204e-07
7.26667e-07
-2.47821e-07
8.30322e-07
-3.42329e-07
8.94254e-07
-4.41038e-07
9.34534e-07
-5.42464e-07
9.60904e-07
-6.45898e-07
9.79351e-07
-7.51119e-07
9.93514e-07
-8.58182e-07
1.00551e-06
-9.67298e-07
1.01647e-06
-1.07875e-06
1.02684e-06
-1.19285e-06
1.03661e-06
-1.30989e-06
1.04542e-06
-1.43015e-06
1.05266e-06
-1.55381e-06
1.05747e-06
-1.68102e-06
1.0588e-06
-1.81181e-06
1.05538e-06
-1.94612e-06
1.04569e-06
-2.08372e-06
1.02795e-06
-2.22419e-06
1.00006e-06
-2.36678e-06
9.59576e-07
-2.51034e-06
9.03679e-07
-2.65321e-06
8.29151e-07
-2.79303e-06
7.32409e-07
-2.92662e-06
6.09585e-07
-3.04979e-06
4.56625e-07
-3.15723e-06
2.69491e-07
-3.24213e-06
4.41304e-08
-3.29622e-06
-2.22649e-07
-3.30961e-06
-5.32897e-07
-3.27103e-06
-8.86393e-07
-3.16852e-06
-1.27956e-06
-2.99048e-06
-1.70428e-06
-2.72726e-06
-2.14685e-06
-2.3733e-06
-2.58744e-06
-1.92926e-06
-3.00054e-06
-1.4039e-06
-3.35692e-06
-8.14798e-07
-3.62716e-06
-1.87444e-07
-3.78627e-06
4.47504e-07
-3.81834e-06
1.05835e-06
-3.72026e-06
1.6168e-06
-3.50244e-06
2.10142e-06
-3.18624e-06
2.49957e-06
-2.79956e-06
2.80709e-06
-2.37194e-06
3.02694e-06
-1.9308e-06
3.16704e-06
-1.49861e-06
3.23803e-06
-1.09175e-06
3.25176e-06
-7.20625e-07
3.21974e-06
-3.90653e-07
3.15248e-06
-1.03528e-07
3.05865e-06
1.41554e-07
2.94574e-06
3.4745e-07
2.81968e-06
5.17692e-07
2.68506e-06
6.56283e-07
2.54561e-06
7.67173e-07
2.40405e-06
8.54232e-07
2.26228e-06
9.21056e-07
2.12184e-06
9.71082e-07
1.98359e-06
1.00722e-06
1.84812e-06
1.03201e-06
1.71583e-06
1.04771e-06
1.58684e-06
1.05621e-06
1.46114e-06
1.05913e-06
1.33869e-06
1.05786e-06
1.21932e-06
1.05355e-06
1.10286e-06
1.04713e-06
9.89067e-07
1.03931e-06
8.77635e-07
1.03048e-06
7.68271e-07
1.02072e-06
6.60785e-07
1.00966e-06
5.55133e-07
9.96233e-07
4.51548e-07
9.78341e-07
3.5071e-07
9.52384e-07
2.54134e-07
9.12382e-07
1.64527e-07
8.48397e-07
8.64504e-08
7.43895e-07
2.73877e-08
5.70242e-07
2.72237e-07
-2.60656e-08
2.90532e-07
-8.32056e-08
6.12807e-07
-1.59358e-07
8.02832e-07
-2.46977e-07
9.17963e-07
-3.41346e-07
9.88654e-07
-4.3969e-07
1.03292e-06
-5.40555e-07
1.06181e-06
-6.43341e-07
1.08217e-06
-7.4796e-07
1.09817e-06
-8.5462e-07
1.11222e-06
-9.63681e-07
1.1256e-06
-1.07557e-06
1.13881e-06
-1.19075e-06
1.15186e-06
-1.30965e-06
1.16438e-06
-1.43269e-06
1.17573e-06
-1.56022e-06
1.18503e-06
-1.69258e-06
1.19118e-06
-1.83004e-06
1.19285e-06
-1.97278e-06
1.18846e-06
-2.1209e-06
1.17609e-06
-2.27429e-06
1.15349e-06
-2.4326e-06
1.11793e-06
-2.59507e-06
1.06618e-06
-2.76037e-06
9.94461e-07
-2.92643e-06
8.9845e-07
-3.09022e-06
7.73348e-07
-3.24757e-06
6.13954e-07
-3.3928e-06
4.14731e-07
-3.51856e-06
1.69909e-07
-3.61509e-06
-1.26109e-07
-3.67021e-06
-4.77764e-07
-3.6693e-06
-8.87293e-07
-3.59591e-06
-1.35296e-06
-3.43304e-06
-1.8672e-06
-3.16526e-06
-2.4147e-06
-2.78176e-06
-2.97099e-06
-2.27999e-06
-3.50237e-06
-1.66885e-06
-3.96813e-06
-9.70371e-07
-4.32571e-06
-2.18796e-07
-4.53792e-06
5.43255e-07
-4.58058e-06
1.27148e-06
-4.44878e-06
1.92727e-06
-4.15839e-06
2.48277e-06
-3.74167e-06
2.92348e-06
-3.23976e-06
3.24689e-06
-2.69507e-06
3.46047e-06
-2.14446e-06
3.57791e-06
-1.61614e-06
3.61551e-06
-1.12934e-06
3.58989e-06
-6.94987e-07
3.51624e-06
-3.17345e-07
3.40767e-06
4.45558e-09
3.27511e-06
2.73896e-07
3.12669e-06
4.95819e-07
2.96892e-06
6.75651e-07
2.80643e-06
8.18805e-07
2.64291e-06
9.30722e-07
2.48083e-06
1.01633e-06
2.32196e-06
1.08008e-06
2.16728e-06
1.12591e-06
2.01732e-06
1.15726e-06
1.87237e-06
1.17702e-06
1.73249e-06
1.18766e-06
1.59752e-06
1.19122e-06
1.46725e-06
1.18944e-06
1.34141e-06
1.18374e-06
1.21966e-06
1.17533e-06
1.10167e-06
1.16517e-06
9.8703e-07
1.15401e-06
8.75296e-07
1.14226e-06
7.66032e-07
1.12999e-06
6.58906e-07
1.11679e-06
5.53719e-07
1.10144e-06
4.5055e-07
1.08156e-06
3.49974e-07
1.05304e-06
2.53458e-07
1.00901e-06
1.63789e-07
9.38194e-07
8.57129e-08
8.22065e-07
2.69312e-08
6.29063e-07
2.9917e-07
-2.57607e-08
3.163e-07
-8.30189e-08
6.70071e-07
-1.59626e-07
8.79447e-07
-2.47607e-07
1.00596e-06
-3.41941e-07
1.08301e-06
-4.39783e-07
1.13078e-06
-5.3978e-07
1.16182e-06
-6.41516e-07
1.18393e-06
-7.45111e-07
1.2018e-06
-8.50964e-07
1.21812e-06
-9.59608e-07
1.23431e-06
-1.07163e-06
1.25091e-06
-1.18762e-06
1.26792e-06
-1.30816e-06
1.28496e-06
-1.4338e-06
1.30139e-06
-1.56507e-06
1.31631e-06
-1.7025e-06
1.32861e-06
-1.84661e-06
1.33697e-06
-1.99789e-06
1.33975e-06
-2.15679e-06
1.33503e-06
-2.32366e-06
1.32042e-06
-2.49866e-06
1.29298e-06
-2.68156e-06
1.24912e-06
-2.87159e-06
1.18449e-06
-3.06716e-06
1.09399e-06
-3.26564e-06
9.71791e-07
-3.46311e-06
8.11414e-07
-3.65405e-06
6.05667e-07
-3.83063e-06
3.465e-07
-3.98196e-06
2.5238e-08
-4.09337e-06
-3.66333e-07
-4.14623e-06
-8.34438e-07
-4.11822e-06
-1.381e-06
-3.98478e-06
-2.0007e-06
-3.72172e-06
-2.67781e-06
-3.30971e-06
-3.38303e-06
-2.74001e-06
-4.07208e-06
-2.0203e-06
-4.68788e-06
-1.17816e-06
-5.16793e-06
-2.60433e-07
-5.45566e-06
6.72287e-07
-5.51317e-06
1.55651e-06
-5.33269e-06
2.33806e-06
-4.93952e-06
2.98026e-06
-4.38372e-06
3.46685e-06
-3.72664e-06
3.79995e-06
-3.02862e-06
3.99501e-06
-2.33979e-06
4.07432e-06
-1.69579e-06
4.06225e-06
-1.1178e-06
3.9819e-06
-6.1525e-07
3.85356e-06
-1.89119e-07
3.69317e-06
1.64949e-07
3.51323e-06
4.54117e-07
3.32258e-06
6.86504e-07
3.12785e-06
8.70369e-07
2.93373e-06
1.01297e-06
2.74347e-06
1.12108e-06
2.55907e-06
1.20075e-06
2.38179e-06
1.25742e-06
2.2121e-06
1.29566e-06
2.04998e-06
1.31934e-06
1.89531e-06
1.33166e-06
1.74774e-06
1.33525e-06
1.60681e-06
1.33221e-06
1.47204e-06
1.32428e-06
1.34293e-06
1.31291e-06
1.21897e-06
1.29933e-06
1.09967e-06
1.28452e-06
9.84475e-07
1.26925e-06
8.72779e-07
1.25397e-06
7.64011e-07
1.23875e-06
6.57665e-07
1.22314e-06
5.5335e-07
1.20579e-06
4.50909e-07
1.18406e-06
3.50741e-07
1.15329e-06
2.54195e-07
1.10565e-06
1.64117e-07
1.02837e-06
8.55398e-08
9.00705e-07
2.66219e-08
6.87997e-07
3.25788e-07
-2.58708e-08
3.42177e-07
-8.42038e-08
7.28394e-07
-1.62264e-07
9.575e-07
-2.5126e-07
1.09495e-06
-3.45764e-07
1.17752e-06
-4.4295e-07
1.22797e-06
-5.41714e-07
1.2606e-06
-6.41958e-07
1.28418e-06
-7.44096e-07
1.30396e-06
-8.48769e-07
1.32284e-06
-9.56698e-07
1.34229e-06
-1.06862e-06
1.36288e-06
-1.18524e-06
1.38459e-06
-1.30727e-06
1.40702e-06
-1.43538e-06
1.42951e-06
-1.57027e-06
1.4512e-06
-1.71266e-06
1.471e-06
-1.86331e-06
1.48763e-06
-2.02303e-06
1.49951e-06
-2.19272e-06
1.50477e-06
-2.37326e-06
1.50103e-06
-2.56549e-06
1.48525e-06
-2.76993e-06
1.45359e-06
-2.98661e-06
1.40116e-06
-3.21469e-06
1.32205e-06
-3.45225e-06
1.20933e-06
-3.69608e-06
1.05523e-06
-3.94132e-06
8.50889e-07
-4.18042e-06
5.85602e-07
-4.40184e-06
2.46663e-07
-4.5886e-06
-1.79581e-07
-4.71748e-06
-7.05577e-07
-4.75878e-06
-1.33972e-06
-4.67746e-06
-2.08202e-06
-4.4362e-06
-2.91906e-06
-4.00167e-06
-3.81756e-06
-3.35366e-06
-4.72005e-06
-2.49557e-06
-5.54586e-06
-1.46153e-06
-6.20186e-06
-3.16702e-07
-6.60041e-06
8.50184e-07
-6.68012e-06
1.94524e-06
-6.42798e-06
2.89065e-06
-5.8855e-06
3.63822e-06
-5.13153e-06
4.17163e-06
-4.25989e-06
4.50179e-06
-3.35864e-06
4.65752e-06
-2.49546e-06
4.67505e-06
-1.71322e-06
4.59046e-06
-1.03276e-06
4.43543e-06
-4.59662e-07
4.23557e-06
1.1036e-08
4.01008e-06
3.90285e-07
3.7727e-06
6.91201e-07
3.5327e-06
9.26463e-07
3.2959e-06
1.10705e-06
3.06654e-06
1.24234e-06
2.84712e-06
1.34049e-06
2.63899e-06
1.40884e-06
2.44252e-06
1.45379e-06
2.25744e-06
1.48065e-06
2.08307e-06
1.49361e-06
1.91868e-06
1.49602e-06
1.76346e-06
1.4905e-06
1.6166e-06
1.47912e-06
1.47737e-06
1.46356e-06
1.34505e-06
1.44526e-06
1.21897e-06
1.42541e-06
1.09851e-06
1.40502e-06
9.82977e-07
1.38485e-06
8.71611e-07
1.36536e-06
7.63708e-07
1.34667e-06
6.5857e-07
1.32829e-06
5.5556e-07
1.30883e-06
4.5422e-07
1.28543e-06
3.54623e-07
1.25294e-06
2.57864e-07
1.20248e-06
1.66747e-07
1.11954e-06
8.67041e-08
9.80771e-07
2.67302e-08
7.47971e-07
3.52518e-07
-2.69696e-08
3.69143e-07
-8.82345e-08
7.89628e-07
-1.69447e-07
1.03869e-06
-2.6041e-07
1.18591e-06
-3.55291e-07
1.2724e-06
-4.51547e-07
1.32423e-06
-5.48606e-07
1.35765e-06
-6.46884e-07
1.38246e-06
-7.47192e-07
1.40427e-06
-8.50447e-07
1.42611e-06
-9.57551e-07
1.44942e-06
-1.06936e-06
1.47471e-06
-1.18668e-06
1.50193e-06
-1.3103e-06
1.53065e-06
-1.441e-06
1.56023e-06
-1.57961e-06
1.58982e-06
-1.727e-06
1.61842e-06
-1.88417e-06
1.64482e-06
-2.05224e-06
1.66764e-06
-2.23254e-06
1.68514e-06
-2.42661e-06
1.69516e-06
-2.63611e-06
1.69478e-06
-2.86258e-06
1.68007e-06
-3.10719e-06
1.64576e-06
-3.37024e-06
1.58509e-06
-3.65091e-06
1.48999e-06
-3.94719e-06
1.35149e-06
-4.25578e-06
1.15947e-06
-4.57071e-06
9.00521e-07
-4.8809e-06
5.56831e-07
-5.16788e-06
1.07366e-07
-5.40372e-06
-4.69777e-07
-5.54974e-06
-1.19373e-06
-5.55689e-06
-2.07484e-06
-5.36809e-06
-3.10779e-06
-4.92685e-06
-4.25873e-06
-4.19188e-06
-5.45502e-06
-3.15596e-06
-6.58185e-06
-1.86004e-06
-7.49789e-06
-3.96078e-07
-8.06448e-06
1.10178e-06
-8.1781e-06
2.48938e-06
-7.81552e-06
3.65273e-06
-7.04847e-06
4.52762e-06
-6.00603e-06
5.10166e-06
-4.83367e-06
5.40373e-06
-3.66047e-06
5.48592e-06
-2.57732e-06
5.40609e-06
-1.63301e-06
5.21621e-06
-8.42736e-07
4.959e-06
-2.02652e-07
4.66646e-06
3.03375e-07
4.36064e-06
6.96168e-07
4.05522e-06
9.96618e-07
3.75836e-06
1.22344e-06
3.4745e-06
1.39094e-06
3.20664e-06
1.51022e-06
2.95622e-06
1.59081e-06
2.72345e-06
1.64149e-06
2.50756e-06
1.66961e-06
2.30713e-06
1.68105e-06
2.12061e-06
1.68013e-06
1.94654e-06
1.67012e-06
1.7836e-06
1.65345e-06
1.63069e-06
1.63203e-06
1.48683e-06
1.60743e-06
1.35112e-06
1.58095e-06
1.22278e-06
1.55376e-06
1.10106e-06