/*--------------------------------*- C++ -*----------------------------------*\
| =========                 |                                                 |
| \\      /  F ield         | OpenFOAM: The Open Source CFD Toolbox           |
|  \\    /   O peration     | Version:  2412                                  |
|   \\  /    A nd           | Website:  www.openfoam.com                      |
|    \\/     M anipulation  |                                                 |
\*---------------------------------------------------------------------------*/
FoamFile
{
    version     2.0;
    format      ascii;
    arch        "LSB;label=32;scalar=64";
    class       surfaceScalarField;
    location    "8.2";
    object      phi;
}
// * * * * * * * * * * * * * * * * * * * * * * * * * * * * * * * * * * * * * //

dimensions      [0 3 -1 0 0 0 0];

oriented        oriented;

internalField   nonuniform List<scalar> 
12640
(
8.69988e-06
-8.69988e-06
2.14716e-05
-1.27709e-05
3.2978e-05
-1.15057e-05
4.36905e-05
-1.07117e-05
5.42258e-05
-1.05345e-05
6.46746e-05
-1.0448e-05
7.49381e-05
-1.02627e-05
8.48446e-05
-9.90579e-06
9.43844e-05
-9.53912e-06
0.000103311
-8.92598e-06
0.000111504
-8.19196e-06
0.000118896
-7.39202e-06
0.000125352
-6.45548e-06
0.000130591
-5.23789e-06
0.000134606
-4.01488e-06
0.000137425
-2.81834e-06
0.000139109
-1.68317e-06
0.000139631
-5.22035e-07
0.000139025
6.06814e-07
0.000137323
1.70347e-06
0.000134568
2.75527e-06
0.000130837
3.73087e-06
0.000126165
4.67296e-06
0.000120578
5.58816e-06
0.000114152
6.42753e-06
0.000106982
7.17068e-06
9.92657e-05
7.71655e-06
9.13278e-05
7.93841e-06
8.33525e-05
7.97609e-06
7.56252e-05
7.72808e-06
6.81855e-05
7.44015e-06
6.09365e-05
7.24923e-06
5.39805e-05
6.95582e-06
4.74607e-05
6.5196e-06
4.15915e-05
5.86882e-06
3.64498e-05
5.14106e-06
3.20627e-05
4.38633e-06
2.82314e-05
3.83068e-06
2.47596e-05
3.47096e-06
2.13199e-05
3.43817e-06
1.75948e-05
3.72293e-06
1.32939e-05
4.29828e-06
8.04421e-06
5.24707e-06
1.68117e-06
6.36084e-06
-5.98333e-06
7.66284e-06
-1.51341e-05
9.14967e-06
-2.56721e-05
1.05373e-05
-3.73829e-05
1.17103e-05
-4.98492e-05
1.24658e-05
-6.28182e-05
1.29686e-05
-7.60765e-05
1.3258e-05
-8.93402e-05
1.32636e-05
-0.00010232
1.29801e-05
-0.000114625
1.23046e-05
-0.000125895
1.12697e-05
-0.000135845
9.94926e-06
-0.000144305
8.45919e-06
-0.000151296
6.99101e-06
-0.000156819
5.52183e-06
-0.000160846
4.02636e-06
-0.00016339
2.5435e-06
-0.000164489
1.09757e-06
-0.000164157
-3.33766e-07
-0.000162417
-1.74165e-06
-0.000159219
-3.19974e-06
-0.000154545
-4.67614e-06
-0.000148397
-6.14919e-06
-0.00014085
-7.54854e-06
-0.000132292
-8.55782e-06
-0.00012268
-9.61216e-06
-0.000112111
-1.05689e-05
-0.000100673
-1.14383e-05
-8.8777e-05
-1.18966e-05
-7.63085e-05
-1.24681e-05
-6.3706e-05
-1.26015e-05
-5.10739e-05
-1.26314e-05
-3.83882e-05
-1.26862e-05
-2.5052e-05
-1.33373e-05
-1.05647e-05
-1.44869e-05
-1.05633e-05
6.92609e-06
-1.56251e-05
1.80766e-05
-2.39199e-05
2.79914e-05
-2.14191e-05
3.76957e-05
-2.04147e-05
4.77902e-05
-2.06277e-05
5.82579e-05
-2.09144e-05
6.90582e-05
-2.10618e-05
7.99165e-05
-2.0763e-05
9.05225e-05
-2.01441e-05
0.000100682
-1.90843e-05
0.000110083
-1.75921e-05
0.000118514
-1.58215e-05
0.000125657
-1.35976e-05
0.000131636
-1.12158e-05
0.000136409
-8.78645e-06
0.000139855
-6.26318e-06
0.000141889
-3.71663e-06
0.000142696
-1.32817e-06
0.000142296
1.00824e-06
0.000140779
3.22132e-06
0.000138316
5.21984e-06
0.000135031
7.01675e-06
0.000131141
8.56475e-06
0.000126821
9.90942e-06
0.000122234
1.10151e-05
0.000117503
1.19025e-05
0.000112666
1.25549e-05
0.000107665
1.29401e-05
0.000102405
1.32361e-05
9.67983e-05
1.33352e-05
9.07868e-05
1.34513e-05
8.46889e-05
1.33467e-05
7.83272e-05
1.33171e-05
7.17989e-05
1.30474e-05
6.48905e-05
1.27768e-05
5.75617e-05
1.24692e-05
4.96908e-05
1.22563e-05
4.1327e-05
1.21932e-05
3.24072e-05
1.23893e-05
2.30405e-05
1.28033e-05
1.31922e-05
1.35699e-05
2.90183e-06
1.45875e-05
-7.6535e-06
1.58017e-05
-1.85255e-05
1.72324e-05
-2.95726e-05
1.87095e-05
-4.06191e-05
2.01954e-05
-5.16492e-05
2.15665e-05
-6.26826e-05
2.27428e-05
-7.38543e-05
2.36366e-05
-8.4992e-05
2.41057e-05
-9.58221e-05
2.40876e-05
-0.000106329
2.37703e-05
-0.000116331
2.29808e-05
-0.000125827
2.18004e-05
-0.000134755
2.01963e-05
-0.00014297
1.81626e-05
-0.000150327
1.58153e-05
-0.000156632
1.32947e-05
-0.000161677
1.05657e-05
-0.000165342
7.6891e-06
-0.000167544
4.74396e-06
-0.000168203
1.75434e-06
-0.000167296
-1.24202e-06
-0.000164821
-4.21792e-06
-0.000160847
-7.17482e-06
-0.00015543
-1.00944e-05
-0.000148728
-1.28505e-05
-0.00014082
-1.54564e-05
-0.000131433
-1.79442e-05
-0.000120904
-2.01405e-05
-0.000109431
-2.20426e-05
-9.72957e-05
-2.35736e-05
-8.44817e-05
-2.471e-05
-7.1672e-05
-2.52759e-05
-5.89598e-05
-2.53118e-05
-4.66702e-05
-2.49212e-05
-3.46519e-05
-2.47061e-05
-2.2381e-05
-2.56081e-05
-9.00086e-06
-2.78648e-05
-1.9566e-05
7.5444e-06
-2.31688e-05
1.92795e-05
-3.56539e-05
2.98034e-05
-3.19419e-05
3.98608e-05
-3.04711e-05
5.02777e-05
-3.10436e-05
6.11096e-05
-3.17453e-05
7.21016e-05
-3.20528e-05
8.30872e-05
-3.17476e-05
9.37704e-05
-3.08262e-05
0.000103887
-2.91998e-05
0.000113279
-2.6983e-05
0.000121516
-2.40577e-05
0.000128619
-2.06995e-05
0.00013448
-1.70753e-05
0.000139045
-1.33503e-05
0.000142301
-9.51836e-06
0.00014421
-5.62553e-06
0.000144869
-1.98632e-06
0.000144313
1.56478e-06
0.000142626
4.90999e-06
0.000139918
7.92768e-06
0.000136315
1.06202e-05
0.000131962
1.2917e-05
0.000126986
1.48863e-05
0.000121541
1.646e-05
0.00011573
1.77133e-05
0.000109694
1.85903e-05
0.000103458
1.91758e-05
9.71177e-05
1.95756e-05
9.06331e-05
1.98197e-05
8.42144e-05
1.98702e-05
7.77889e-05
1.97727e-05
7.15202e-05
1.95865e-05
6.52629e-05
1.93058e-05
5.89702e-05
1.90709e-05
5.24641e-05
1.89771e-05
4.57501e-05
1.89726e-05
3.87243e-05
1.92222e-05
3.13486e-05
1.97692e-05
2.35721e-05
2.05844e-05
1.53465e-05
2.17998e-05
6.62049e-06
2.33168e-05
-2.61437e-06
2.50386e-05
-1.24183e-05
2.7037e-05
-2.26976e-05
2.89885e-05
-3.33596e-05
3.08568e-05
-4.43849e-05
3.25911e-05
-5.57394e-05
3.40968e-05
-6.74711e-05
3.53677e-05
-7.94325e-05
3.60664e-05
-9.15401e-05
3.61944e-05
-0.000103362
3.55908e-05
-0.000114749
3.43667e-05
-0.000125491
3.25411e-05
-0.000135424
3.01279e-05
-0.000144391
2.71294e-05
-0.000152319
2.37416e-05
-0.000158961
1.9937e-05
-0.000164222
1.58269e-05
-0.000168004
1.14721e-05
-0.000170248
6.98909e-06
-0.00017096
2.46916e-06
-0.000170094
-2.10596e-06
-0.000167705
-6.60507e-06
-0.000163859
-1.10179e-05
-0.000158638
-1.53128e-05
-0.00015204
-1.94469e-05
-0.000144093
-2.34012e-05
-0.000134852
-2.71841e-05
-0.000124279
-3.07132e-05
-0.00011279
-3.35316e-05
-0.000100409
-3.59537e-05
-8.74036e-05
-3.77129e-05
-7.41624e-05
-3.85148e-05
-6.09834e-05
-3.84908e-05
-4.81975e-05
-3.77093e-05
-3.57935e-05
-3.71114e-05
-2.29588e-05
-3.84416e-05
-9.13504e-06
-4.169e-05
-2.87026e-05
7.4389e-06
-3.06071e-05
1.93767e-05
-4.75906e-05
2.99953e-05
-4.25596e-05
4.00731e-05
-4.0548e-05
5.05477e-05
-4.15173e-05
6.15425e-05
-4.27393e-05
7.29491e-05
-4.34585e-05
8.44739e-05
-4.32714e-05
9.58253e-05
-4.21765e-05
0.000106587
-3.99599e-05
0.000116273
-3.66684e-05
0.000124942
-3.27248e-05
0.000132313
-2.80699e-05
0.000138356
-2.31174e-05
0.000142949
-1.79425e-05
0.000146064
-1.26325e-05
0.000147843
-7.40436e-06
0.000148178
-2.32164e-06
0.000147271
2.4728e-06
0.000145218
6.96388e-06
0.000142103
1.10437e-05
0.000138078
1.46451e-05
0.000133238
1.77569e-05
0.000127763
2.03611e-05
0.000121764
2.24585e-05
0.000115329
2.41487e-05
0.000108605
2.53142e-05
0.00010172
2.60612e-05
9.48059e-05
2.64895e-05
8.78829e-05
2.6743e-05
8.10787e-05
2.66749e-05
7.43381e-05
2.65139e-05
6.76802e-05
2.62452e-05
6.12019e-05
2.57854e-05
5.4841e-05
2.54336e-05
4.85916e-05
2.52284e-05
4.25616e-05
2.50043e-05
3.65804e-05
2.5205e-05
3.0599e-05
2.57521e-05
2.43823e-05
2.68023e-05
1.77982e-05
2.83843e-05
1.0584e-05
3.05309e-05
2.55828e-06
3.3064e-05
-6.42541e-06
3.60206e-05
-1.6265e-05
3.88282e-05
-2.70464e-05
4.16385e-05
-3.85409e-05
4.40859e-05
-5.0675e-05
4.62309e-05
-6.31841e-05
4.78763e-05
-7.60512e-05
4.89327e-05
-8.90994e-05
4.92414e-05
-0.000101948
4.84378e-05
-0.000114417
4.68345e-05
-0.000126243
4.43667e-05
-0.000137131
4.10148e-05
-0.000146895
3.68928e-05
-0.000155396
3.22425e-05
-0.0001625
2.70414e-05
-0.000168115
2.14421e-05
-0.00017213
1.54888e-05
-0.000174529
9.38917e-06
-0.000175288
3.22957e-06
-0.000174469
-2.92338e-06
-0.000172124
-8.94916e-06
-0.00016828
-1.48605e-05
-0.000163001
-2.05911e-05
-0.000156219
-2.62281e-05
-0.000148012
-3.16079e-05
-0.00013847
-3.67255e-05
-0.000127721
-4.14617e-05
-0.000115549
-4.5703e-05
-0.000102449
-4.90533e-05
-8.87387e-05
-5.14223e-05
-7.47748e-05
-5.24787e-05
-6.10532e-05
-5.2214e-05
-4.79206e-05
-5.08428e-05
-3.54799e-05
-4.95506e-05
-2.24921e-05
-5.14288e-05
-8.73519e-06
-5.54482e-05
-3.74375e-05
6.89484e-06
-3.75014e-05
1.88526e-05
-5.95474e-05
2.93191e-05
-5.30253e-05
3.91058e-05
-5.0334e-05
4.97057e-05
-5.21165e-05
6.11369e-05
-5.41696e-05
7.33187e-05
-5.56393e-05
8.59278e-05
-5.58795e-05
9.82262e-05
-5.44738e-05
0.000109837
-5.15696e-05
0.000120424
-4.72551e-05
0.000129644
-4.1944e-05
0.000137466
-3.58917e-05
0.000143742
-2.93927e-05
0.000148416
-2.26156e-05
0.00015151
-1.57252e-05
0.000153063
-8.9567e-06
0.000153169
-2.42633e-06
0.000151916
3.72631e-06
0.00014946
9.42118e-06
0.000145865
1.46398e-05
0.000141309
1.92027e-05
0.000135978
2.30891e-05
0.000129958
2.63817e-05
0.000123396
2.90215e-05
0.000116609
3.09366e-05
0.000109584
3.23402e-05
0.000102433
3.32124e-05
9.52755e-05
3.36472e-05
8.81783e-05
3.38408e-05
8.11517e-05
3.3702e-05
7.4163e-05
3.3503e-05
6.74328e-05
3.29756e-05
6.07988e-05
3.24194e-05
5.43362e-05
3.18958e-05
4.82802e-05
3.12831e-05
4.24636e-05
3.08185e-05
3.68579e-05
3.08073e-05
3.14144e-05
3.11917e-05
2.58403e-05
3.23726e-05
1.9916e-05
3.43053e-05
1.32332e-05
3.7211e-05
5.52551e-06
4.07697e-05
-3.1734e-06
4.47181e-05
-1.32304e-05
4.88842e-05
-2.42538e-05
5.26611e-05
-3.62519e-05
5.60833e-05
-4.90251e-05
5.90032e-05
-6.238e-05
6.12302e-05
-7.60454e-05
6.25971e-05
-8.97597e-05
6.29549e-05
-0.000103594
6.22715e-05
-0.000116884
6.01236e-05
-0.000129541
5.70236e-05
-0.000141156
5.26284e-05
-0.000151688
4.74237e-05
-0.000160804
4.13579e-05
-0.000168368
3.46044e-05
-0.000174288
2.73606e-05
-0.000178481
1.96807e-05
-0.000180953
1.18587e-05
-0.000181712
3.98557e-06
-0.000180819
-3.81939e-06
-0.000178331
-1.14396e-05
-0.000174352
-1.8842e-05
-0.000168838
-2.6107e-05
-0.000161794
-3.32727e-05
-0.000153221
-4.01813e-05
-0.000143248
-4.66984e-05
-0.00013184
-5.28704e-05
-0.000119041
-5.85024e-05
-0.00010498
-6.31133e-05
-8.99443e-05
-6.64577e-05
-7.47606e-05
-6.76627e-05
-6.02511e-05
-6.6724e-05
-4.66965e-05
-6.43957e-05
-3.41511e-05
-6.20932e-05
-2.14488e-05
-6.41313e-05
-8.06482e-06
-6.88316e-05
-4.55002e-05
6.38939e-06
-4.38902e-05
1.79214e-05
-7.10785e-05
2.81074e-05
-6.32105e-05
3.7624e-05
-5.98499e-05
4.81847e-05
-6.26764e-05
6.02605e-05
-6.62447e-05
7.35625e-05
-6.89407e-05
8.75337e-05
-6.98499e-05
0.000101298
-6.82375e-05
0.000114249
-6.45203e-05
0.000125873
-5.88786e-05
0.000135921
-5.1992e-05
0.000144164
-4.41336e-05
0.0001507
-3.59288e-05
0.00015543
-2.73443e-05
0.000158426
-1.87207e-05
0.00015978
-1.03087e-05
0.000159588
-2.23394e-06
0.000157914
5.40177e-06
0.000154917
1.24201e-05
0.000150805
1.87527e-05
0.000145702
2.43074e-05
0.000139709
2.90832e-05
0.000133049
3.30431e-05
0.000125934
3.61374e-05
0.000118483
3.83888e-05
0.00011092
3.99049e-05
0.000103428
4.0705e-05
9.59084e-05
4.11672e-05
8.85993e-05
4.11503e-05
8.13817e-05
4.09199e-05
7.44322e-05
4.04522e-05
6.7624e-05
3.9783e-05
6.08901e-05
3.91522e-05
5.45528e-05
3.82319e-05
4.86363e-05
3.7198e-05
4.30387e-05
3.64141e-05
3.77986e-05
3.6045e-05
3.28503e-05
3.61378e-05
2.78447e-05
3.73761e-05
2.25026e-05
3.96456e-05
1.62505e-05
4.34616e-05
8.82418e-06
4.81947e-05
5.33218e-08
5.34878e-05
-1.01902e-05
5.91264e-05
-2.15925e-05
6.40621e-05
-3.41516e-05
6.86412e-05
-4.75629e-05
7.24136e-05
-6.16817e-05
7.53484e-05
-7.64251e-05
7.73403e-05
-9.13533e-05
7.78829e-05
-0.000106055
7.69726e-05
-0.000120549
7.4618e-05
-0.000134225
7.06987e-05
-0.000146896
6.52979e-05
-0.000158223
5.87485e-05
-0.000168055
5.11886e-05
-0.000176098
4.26453e-05
-0.00018234
3.35995e-05
-0.000186739
2.40767e-05
-0.000189266
1.43824e-05
-0.000189978
4.69374e-06
-0.000188962
-4.83829e-06
-0.000186294
-1.41104e-05
-0.000182062
-2.3076e-05
-0.000176302
-3.18684e-05
-0.000169031
-4.0544e-05
-0.000160205
-4.90075e-05
-0.000149774
-5.71291e-05
-0.000137643
-6.50012e-05
-0.000123774
-7.23706e-05
-0.000108136
-7.87501e-05
-9.15447e-05
-8.30486e-05
-7.4696e-05
-8.45116e-05
-5.86448e-05
-8.27738e-05
-4.4455e-05
-7.85824e-05
-3.20187e-05
-7.45285e-05
-1.9684e-05
-7.64662e-05
-6.98847e-06
-8.15256e-05
-5.24865e-05
5.9781e-06
-4.98678e-05
1.67725e-05
-8.18718e-05
2.63966e-05
-7.28339e-05
3.49917e-05
-6.84443e-05
4.55532e-05
-7.32371e-05
5.84828e-05
-7.91736e-05
7.33804e-05
-8.38377e-05
8.94919e-05
-8.59609e-05
0.000105352
-8.40973e-05
0.000120018
-7.91861e-05
0.000132965
-7.18247e-05
0.00014387
-6.28967e-05
0.000152852
-5.3115e-05
0.000159558
-4.26345e-05
0.000164308
-3.20945e-05
0.000167146
-2.1558e-05
0.00016815
-1.13114e-05
0.000167499
-1.58204e-06
0.000165269
7.63236e-06
0.000161702
1.59871e-05
0.000156869
2.3587e-05
0.000150929
3.02477e-05
0.000144102
3.59105e-05
0.000136631
4.05158e-05
0.000128697
4.40726e-05
0.000120555
4.65315e-05
0.000112382
4.80786e-05
0.000104303
4.87854e-05
9.66008e-05
4.88688e-05
8.89581e-05
4.87929e-05
8.16729e-05
4.82049e-05
7.44856e-05
4.76393e-05
6.74854e-05
4.67831e-05
6.08669e-05
4.5771e-05
5.45377e-05
4.45623e-05
4.85825e-05
4.31554e-05
4.32059e-05
4.17931e-05
3.86022e-05
4.06513e-05
3.44743e-05
4.02683e-05
3.04443e-05
4.14086e-05
2.58942e-05
4.41977e-05
2.03282e-05
4.9029e-05
1.32843e-05
5.52395e-05
4.5457e-06
6.22266e-05
-5.6666e-06
6.93386e-05
-1.75778e-05
7.5973e-05
-3.08609e-05
8.19242e-05
-4.53713e-05
8.69241e-05
-6.0769e-05
9.07464e-05
-7.66785e-05
9.32502e-05
-9.29523e-05
9.41569e-05
-0.000109255
9.32753e-05
-0.000125066
9.04285e-05
-0.00014011
8.57425e-05
-0.000154022
7.92095e-05
-0.000166403
7.11284e-05
-0.000177002
6.17868e-05
-0.000185798
5.1441e-05
-0.000192445
4.02469e-05
-0.000197008
2.86396e-05
-0.000199533
1.69076e-05
-0.000200118
5.27902e-06
-0.000198873
-6.08228e-06
-0.000195938
-1.70444e-05
-0.000191385
-2.76275e-05
-0.000185309
-3.79439e-05
-0.000177714
-4.81377e-05
-0.000168613
-5.81074e-05
-0.000157865
-6.78768e-05
-0.000145158
-7.77063e-05
-0.000130262
-8.72657e-05
-0.000112991
-9.60207e-05
-9.34394e-05
-0.0001026
-7.35023e-05
-0.000104448
-5.55874e-05
-0.000100686
-4.06098e-05
-9.35582e-05
-2.87239e-05
-8.64162e-05
-1.71253e-05
-8.80643e-05
-5.3888e-06
-9.32608e-05
-5.78767e-05
6.01069e-06
-5.58779e-05
1.60026e-05
-9.18628e-05
2.40812e-05
-8.09116e-05
3.08927e-05
-7.5255e-05
4.12531e-05
-8.35968e-05
5.50322e-05
-9.29519e-05
7.2323e-05
-0.000101128
9.1638e-05
-0.000105275
0.000110497
-0.000102956
0.000127422
-9.6111e-05
0.000141973
-8.63758e-05
0.000153985
-7.4908e-05
0.000163374
-6.25043e-05
0.000170413
-4.96736e-05
0.000175138
-3.68193e-05
0.000177719
-2.41393e-05
0.000178298
-1.18911e-05
0.000177043
-3.27421e-07
0.000174189
1.0486e-05
0.000169811
2.03649e-05
0.000164115
2.92834e-05
0.000157189
3.71737e-05
0.000149338
4.37627e-05
0.000140791
4.90624e-05
0.000131868
5.29972e-05
0.000122886
5.55139e-05
0.00011405
5.69153e-05
0.000105461
5.7375e-05
9.71094e-05
5.72213e-05
8.93709e-05
5.65323e-05
8.16778e-05
5.58994e-05
7.44178e-05
5.4901e-05
6.72443e-05
5.39587e-05
6.03996e-05
5.26181e-05
5.39526e-05
5.10123e-05
4.81305e-05
4.89807e-05
4.31842e-05
4.67424e-05
3.92504e-05
4.45879e-05
3.60875e-05
4.34333e-05
3.33192e-05
4.41785e-05
3.01968e-05
4.73208e-05
2.56765e-05
5.35494e-05
1.91571e-05
6.17586e-05
1.04673e-05
7.09158e-05
-1.07949e-07
7.99132e-05
-1.27571e-05
8.86217e-05
-2.69461e-05
9.6113e-05
-4.25084e-05
0.000102486
-5.91986e-05
0.000107437
-7.6754e-05
0.000110806
-9.48022e-05
0.000112205
-0.000112873
0.000111346
-0.00013058
0.000108136
-0.000147395
0.000102558
-0.000162857
9.46719e-05
-0.000176596
8.48685e-05
-0.000188286
7.34789e-05
-0.000197692
6.08494e-05
-0.000204734
4.72913e-05
-0.000209448
3.33553e-05
-0.000211889
1.93518e-05
-0.000212219
5.61175e-06
-0.000210603
-7.69575e-06
-0.000207244
-2.04017e-05
-0.000202325
-3.25445e-05
-0.000195932
-4.43364e-05
-0.000188214
-5.5856e-05
-0.000178995
-6.73269e-05
-0.000168032
-7.88398e-05
-0.000154845
-9.08927e-05
-0.00013887
-0.00010324
-0.000119111
-0.000115781
-9.58906e-05
-0.000125821
-7.14244e-05
-0.000128914
-5.02727e-05
-0.000121837
-3.42782e-05
-0.000109554
-2.34609e-05
-9.72346e-05
-1.36288e-05
-9.78949e-05
-3.83616e-06
-0.000103052
-6.1715e-05
5.81883e-06
-6.16962e-05
1.35464e-05
-9.95895e-05
2.07249e-05
-8.80893e-05
2.50895e-05
-7.96188e-05
3.41305e-05
-9.26368e-05
4.91013e-05
-0.000107922
7.00358e-05
-0.000122061
9.42387e-05
-0.000129477
0.000117371
-0.000126087
0.000137502
-0.000116241
0.000153999
-0.000102873
0.000167034
-8.79431e-05
0.000177004
-7.24743e-05
0.000184123
-5.67928e-05
0.000188597
-4.1294e-05
0.000190727
-2.627e-05
0.000190696
-1.186e-05
0.000188706
1.66214e-06
0.000185021
1.41711e-05
0.000179695
2.5691e-05
0.000172857
3.61215e-05
0.00016473
4.53012e-05
0.000155538
5.29552e-05
0.000145636
5.89648e-05
0.000135563
6.3071e-05
0.000125386
6.56922e-05
0.00011557
6.67331e-05
0.000106385
6.65618e-05
9.78943e-05
6.57139e-05
8.9684e-05
6.47452e-05
8.20271e-05
6.35589e-05
7.4301e-05
6.26292e-05
6.68299e-05
6.14309e-05
5.96339e-05
5.98145e-05
5.29864e-05
5.76594e-05
4.73069e-05
5.46592e-05
4.26801e-05
5.13677e-05
3.94066e-05
4.78595e-05
3.74669e-05
4.53708e-05
3.6752e-05
4.48912e-05
3.57579e-05
4.83125e-05
3.27643e-05
5.65408e-05
2.68797e-05
6.76411e-05
1.82573e-05
7.95366e-05
7.02435e-06
9.11447e-05
-6.38392e-06
0.000102029
-2.17588e-05
0.000111487
-3.87036e-05
0.000119431
-5.72134e-05
0.000125946
-7.6699e-05
0.000130291
-9.68475e-05
0.000132354
-0.000117224
0.000131723
-0.000137206
0.000128118
-0.000156116
0.00012147
-0.000173719
0.000112275
-0.00018904
0.000100191
-0.000201892
8.63315e-05
-0.000212119
7.10763e-05
-0.000219621
5.47931e-05
-0.000224453
3.81859e-05
-0.000226632
2.15306e-05
-0.000226455
5.4335e-06
-0.000224296
-9.8548e-06
-0.000220419
-2.42803e-05
-0.000215068
-3.78964e-05
-0.00020851
-5.08959e-05
-0.00020084
-6.3528e-05
-0.00019193
-7.62393e-05
-0.00018111
-8.96599e-05
-0.000167909
-0.000104095
-0.000150776
-0.000120376
-0.000128182
-0.000138377
-9.92079e-05
-0.000154796
-6.75791e-05
-0.000160542
-4.14802e-05
-0.000147936
-2.4336e-05
-0.0001267
-1.58063e-05
-0.000105761
-7.55525e-06
-0.000106143
-4.71963e-07
-0.000110133
-6.21821e-05
5.17875e-06
-6.68744e-05
5.46917e-06
-9.98789e-05
1.1882e-05
-9.45011e-05
1.52756e-05
-8.30113e-05
2.27014e-05
-0.000100061
3.92164e-05
-0.000124436
6.58391e-05
-0.000148683
9.79732e-05
-0.000161611
0.000126998
-0.000155112
0.00015069
-0.000139934
0.000169327
-0.00012151
0.000183396
-0.000102013
0.000193513
-8.25899e-05
0.000200482
-6.37624e-05
0.000204672
-4.54831e-05
0.000206382
-2.79803e-05
0.000205787
-1.12645e-05
0.000203055
4.39502e-06
0.000198398
1.88296e-05
0.000191931
3.21586e-05
0.000183735
4.43185e-05
0.000174005
5.50323e-05
0.00016302
6.39401e-05
0.00015155
7.04352e-05
0.000139746
7.48751e-05
0.000128151
7.72875e-05
0.000117259
7.76258e-05
0.000107395
7.64265e-05
9.83908e-05
7.47178e-05
9.0309e-05
7.28265e-05
8.24424e-05
7.14247e-05
7.48725e-05
7.01978e-05
6.71127e-05
6.91886e-05
5.95591e-05
6.73656e-05
5.24266e-05
6.47894e-05
4.60006e-05
6.10831e-05
4.06861e-05
5.66804e-05
3.71914e-05
5.13528e-05
3.69017e-05
4.56594e-05
4.0724e-05
4.10683e-05
4.45537e-05
4.44822e-05
4.39138e-05
5.71802e-05
3.79038e-05
7.36507e-05
2.82008e-05
8.92393e-05
1.57966e-05
0.000103548
1.25631e-06
0.000116569
-1.53668e-05
0.00012811
-3.41179e-05
0.000138181
-5.46471e-05
0.000146475
-7.63818e-05
0.000152025
-9.93306e-05
0.000155302
-0.000122555
0.000154946
-0.000145483
0.000151047
-0.000167283
0.000143269
-0.000187073
0.000132064
-0.00020431
0.000117427
-0.000218693
0.000100712
-0.000229943
8.23238e-05
-0.000237929
6.27755e-05
-0.000242702
4.29562e-05
-0.000244469
2.32937e-05
-0.000243577
4.53907e-06
-0.000240521
-1.29123e-05
-0.000235737
-2.90649e-05
-0.00022968
-4.39552e-05
-0.000222642
-5.79352e-05
-0.000214728
-7.14426e-05
-0.000205848
-8.51198e-05
-0.000195586
-9.99221e-05
-0.000183132
-0.000116549
-0.000166859
-0.000136649
-0.000141913
-0.000163324
-0.000103428
-0.000193281
-5.83745e-05
-0.000205595
-2.4942e-05
-0.000181369
-6.4696e-06
-0.000145171
1.53156e-06
-0.000113759
8.26991e-06
-0.00011288
5.98187e-06
-0.000107847
-5.61981e-05
1.41784e-05
-8.10522e-05
-1.03836e-05
-7.53158e-05
-1.07263e-05
-9.41573e-05
-6.02913e-06
-8.77073e-05
-5.68651e-07
-0.000105521
1.82927e-05
-0.000143296
5.62659e-05
-0.000186656
0.000104805
-0.00021015
0.000143572
-0.000193878
0.000168554
-0.000164915
0.000186423
-0.000139379
0.000199818
-0.000115407
0.000209178
-9.19495e-05
0.000215417
-7.00003e-05
0.000219479
-4.95444e-05
0.000221454
-2.99545e-05
0.000221311
-1.11214e-05
0.000218766
6.94115e-06
0.000213733
2.38623e-05
0.000206279
3.96128e-05
0.000196597
5.40001e-05
0.00018501
6.66196e-05
0.00017222
7.67304e-05
0.000158491
8.41642e-05
0.000144403
8.8963e-05
0.00013099
9.07002e-05
0.000118602
9.00141e-05
0.000108012
8.70156e-05
9.92053e-05
8.35233e-05
9.13222e-05
8.07086e-05
8.38339e-05
7.89125e-05
7.59628e-05
7.80692e-05
6.80013e-05
7.71505e-05
5.96513e-05
7.5716e-05
5.10604e-05
7.33808e-05
4.18624e-05
7.02815e-05
3.37009e-05
6.48421e-05
2.97513e-05
5.53025e-05
3.32153e-05
4.21955e-05
4.46648e-05
2.96188e-05
5.6985e-05
3.21621e-05
6.14839e-05
5.26815e-05
5.56039e-05
7.95307e-05
4.27068e-05
0.000102137
2.70347e-05
0.00011922
1.00045e-05
0.000133599
-8.52169e-06
0.000146636
-2.90138e-05
0.000158673
-5.15211e-05
0.000168982
-7.62658e-05
0.00017677
-0.000102201
0.000181238
-0.000129175
0.000181919
-0.000155877
0.000177749
-0.00018105
0.000168441
-0.000203668
0.000154681
-0.000223476
0.000137234
-0.000239498
0.000116733
-0.000251729
9.45545e-05
-0.000260248
7.12939e-05
-0.000264777
4.74852e-05
-0.000265678
2.41955e-05
-0.000263063
1.92488e-06
-0.000257816
-1.8158e-05
-0.000250611
-3.62692e-05
-0.0002425
-5.2066e-05
-0.000234159
-6.62767e-05
-0.000226001
-7.96003e-05
-0.000218196
-9.29245e-05
-0.000210726
-0.000107392
-0.000204639
-0.000122637
-0.000197778
-0.000143512
-0.000175538
-0.000185565
-0.000117356
-0.000251462
-3.93326e-05
-0.000283619
1.28676e-05
-0.000233571
3.12437e-05
-0.000163545
3.8759e-05
-0.000121275
3.81877e-05
-0.000112311
1.4134e-05
-8.37917e-05
-4.20704e-05
2.35703e-05
-0.000104622
-1.50145e-05
-3.67298e-05
-4.36243e-05
-6.55464e-05
-4.52792e-05
-8.60515e-05
-4.62407e-05
-0.000104559
-2.70518e-05
-0.000162485
2.94165e-05
-0.000243124
0.000106415
-0.000287148
0.000168719
-0.000256183
0.000198539
-0.000194734
0.000210671
-0.000151511
0.000218347
-0.000123084
0.00022451
-9.81126e-05
0.000228763
-7.42539e-05
0.000231283
-5.20638e-05
0.000232589
-3.1261e-05
0.000232764
-1.12965e-05
0.000231089
8.61514e-06
0.000226457
2.84944e-05
0.000218535
4.75349e-05
0.000207455
6.50811e-05
0.00019461
7.94653e-05
0.00018008
9.1261e-05
0.000164345
9.99003e-05
0.000147976
0.000105333
0.000131852
0.000106826
0.000117454
0.000104413
0.000106026
9.8445e-05
9.744e-05
9.21113e-05
9.10519e-05
8.70983e-05
8.5322e-05
8.46437e-05
7.84844e-05
8.49082e-05
7.02674e-05
8.53685e-05
6.00059e-05
8.5978e-05
4.75081e-05
8.58787e-05
3.41405e-05
8.36489e-05
2.42264e-05
7.47558e-05
2.26013e-05
5.69272e-05
3.23523e-05
3.24442e-05
5.05935e-05
1.13775e-05
6.99437e-05
1.28118e-05
8.08663e-05
4.17586e-05
7.83912e-05
8.20056e-05
6.38991e-05
0.000116629
4.34976e-05
0.000139622
2.16208e-05
0.000155476
-3.75729e-07
0.000168632
-2.34619e-05
0.00018176
-4.83338e-05
0.000193854
-7.5547e-05
0.000203983
-0.000105206
0.000210897
-0.00013627
0.000212984
-0.00016743
0.000208909
-0.00019715
0.000198162
-0.000223481
0.000181015
-0.000245645
0.0001594
-0.000262809
0.000133899
-0.000275479
0.000107226
-0.000283642
7.94584e-05
-0.000287371
5.12157e-05
-0.000286286
2.31117e-05
-0.00028036
-3.9998e-06
-0.000270901
-2.76174e-05
-0.00026005
-4.71209e-05
-0.000249867
-6.22498e-05
-0.00024122
-7.49243e-05
-0.000234439
-8.63826e-05
-0.000230644
-9.67193e-05
-0.000232674
-0.000105363
-0.000242108
-0.000113204
-0.000249369
-0.000136252
-0.000225837
-0.000209095
-0.000149501
-0.000327796
-3.00368e-05
-0.000403083
6.77901e-05
-0.000331397
0.000100146
-0.000195899
9.95303e-05
-0.000120658
7.58534e-05
-8.86331e-05
2.02535e-05
-2.81823e-05
-2.18138e-05
3.33878e-05
-0.000138009
1.18308e-05
-1.51714e-05
-6.66902e-05
1.29756e-05
-0.000102168
-5.05729e-05
-0.000114298
-9.2429e-05
-0.000105089
-0.000171693
-4.81979e-05
-0.000300015
4.99526e-05
-0.000385299
0.000157126
-0.000363355
0.000227635
-0.000265244
0.000256985
-0.000180861
0.000267559
-0.000133659
0.000271843
-0.000102397
0.000270937
-7.33479e-05
0.000265136
-4.62618e-05
0.000257025
-2.31498e-05
0.000249582
-3.85262e-06
0.000243411
1.47863e-05
0.000236795
3.51117e-05
0.000227434
5.68966e-05
0.000215146
7.73688e-05
0.000200089
9.45235e-05
0.000183286
0.000108064
0.000164939
0.000118247
0.000145206
0.000125067
0.000125878
0.000126154
0.000109277
0.000121015
9.7453e-05
0.000110269
9.12655e-05
9.82989e-05
8.77633e-05
9.06006e-05
8.45503e-05
8.7857e-05
7.96916e-05
8.97675e-05
7.11651e-05
9.38956e-05
5.86577e-05
9.8486e-05
4.36309e-05
0.000100906
3.07576e-05
9.65231e-05
2.56263e-05
7.98879e-05
3.17441e-05
5.081e-05
4.55605e-05
1.86285e-05
6.26987e-05
-5.76018e-06
7.88942e-05
-3.38322e-06
9.13339e-05
2.93195e-05
9.34988e-05
7.98413e-05
8.202e-05
0.000128108
6.06066e-05
0.000161036
3.53304e-05
0.000180752
9.62586e-06
0.000194337
-1.5867e-05
0.000207253
-4.24733e-05
0.000220461
-7.16188e-05
0.000233129
-0.000103943
0.000243222
-0.000139425
0.000248467
-0.000176293
0.000245779
-0.000211587
0.000233457
-0.000242379
0.000211807
-0.00026693
0.00018395
-0.000284704
0.000151672
-0.000296941
0.000119462
-0.000304597
8.71127e-05
-0.000306882
5.35001e-05
-0.000303371
1.96001e-05
-0.000295122
-1.22486e-05
-0.000284991
-3.77487e-05
-0.000276538
-5.55752e-05
-0.000272023
-6.67649e-05
-0.00027043
-7.65184e-05
-0.000269502
-8.73112e-05
-0.000269367
-9.68543e-05
-0.000270629
-0.000104102
-0.0002676
-0.000116234
-0.00024276
-0.000161093
-0.000181501
-0.000270354
-9.78121e-05
-0.000411485
2.08011e-08
-0.000500917
0.000110075
-0.000441451
0.000170548
-0.000256373
0.000162118
-0.00011223
8.7537e-05
-1.40544e-05
8.47325e-06
5.0873e-05
-1.33418e-05
0.00010919
-0.000247198
0.000128888
-3.48684e-05
6.99368e-06
0.000134871
-0.000108756
6.51771e-05
-0.000169003
-3.21814e-05
-0.000201092
-0.000139604
-0.000183221
-0.000317886
-9.68302e-05
-0.00047169
3.79031e-05
-0.000498089
0.000174128
-0.000401469
0.000275787
-0.00028252
0.000340002
-0.000197873
0.000372316
-0.00013471
0.000375885
-7.6917e-05
0.000358212
-2.85884e-05
0.000330726
4.33625e-06
0.000303195
2.36791e-05
0.000281633
3.63489e-05
0.000266391
5.03529e-05
0.000253318
6.99698e-05
0.000238132
9.25545e-05
0.000218865
0.00011379
0.000195793
0.000131136
0.000170922
0.000143118
0.00014578
0.00015021
0.000123128
0.000148806
0.000106939
0.000137205
9.97345e-05
0.000117475
9.85875e-05
9.94468e-05
9.88462e-05
9.03417e-05
9.5504e-05
9.11986e-05
8.78837e-05
9.73869e-05
7.6535e-05
0.000105243
6.318e-05
0.00011184
5.11752e-05
0.00011291
4.56518e-05
0.000102045
4.96461e-05
7.58927e-05
5.9891e-05
4.05643e-05
7.1728e-05
6.79106e-06
8.11833e-05
-1.52157e-05
8.50978e-05
-7.29792e-06
8.66922e-05
2.77251e-05
8.61584e-05
8.03755e-05
7.79581e-05
0.000136308
6.09209e-05
0.000178074
3.93085e-05
0.000202365
1.61366e-05
0.00021751
-7.59024e-06
0.00023098
-3.39429e-05
0.000246814
-6.43885e-05
0.000263576
-0.000100774
0.000279607
-0.000143272
0.000290964
-0.000189286
0.000291792
-0.000233886
0.000278056
-0.000271745
0.000249665
-0.000300741
0.000212944
-0.00032121
0.00017214
-0.000334999
0.000133249
-0.000342782
9.4895e-05
-0.00034405
5.47679e-05
-0.000339961
1.55101e-05
-0.000334746
-1.74636e-05
-0.000332619
-3.98764e-05
-0.000337226
-5.09689e-05
-0.000346081
-5.79107e-05
-0.000353737
-6.8864e-05
-0.000351161
-8.98879e-05
-0.00032845
-0.000119567
-0.000276781
-0.000155774
-0.000190724
-0.000202292
-7.45639e-05
-0.000277255
4.33231e-05
-0.000388243
0.000123881
-0.000492048
0.000158304
-0.000535343
0.000186328
-0.000469476
0.000203458
-0.000273507
0.000141049
-4.98218e-05
7.76783e-06
0.000119237
-4.69701e-05
0.000105611
-6.0311e-05
0.000219983
-0.00046718
0.000318606
-0.00013349
0.000178514
0.000274963
-1.81538e-05
0.000261846
-0.000151472
0.000101137
-0.000236298
-5.47774e-05
-0.000270645
-0.000283539
-0.000227725
-0.000514608
-0.000118415
-0.000607398
2.30026e-05
-0.000542886
0.000171258
-0.000430775
0.000308061
-0.000334676
0.000410239
-0.000236888
0.000459529
-0.000126207
0.000460279
-2.93386e-05
0.000432861
3.17544e-05
0.000395224
6.13154e-05
0.000362386
6.91878e-05
0.000340473
7.22657e-05
0.000325069
8.53743e-05
0.000307478
0.000110146
0.000282104
0.000139165
0.000249122
0.000164119
0.000211917
0.000180324
0.000176886
0.000185242
0.000150159
0.000175534
0.000137044
0.00015032
0.000136578
0.000117942
0.000143581
9.24443e-05
0.000149207
8.47146e-05
0.000144656
9.57489e-05
0.000128909
0.000113134
0.000108473
0.000125679
9.09119e-05
0.0001294
8.15193e-05
0.000122302
8.12435e-05
0.000102321
8.60106e-05
7.11253e-05
9.12518e-05
3.53228e-05
9.84893e-05
-4.46668e-07
0.000104565
-2.12917e-05
9.70138e-05
2.53758e-07
7.70951e-05
4.76444e-05
5.82333e-05
9.92379e-05
4.23652e-05
0.000152177
2.74889e-05
0.00019295
1.51064e-05
0.000214748
3.75914e-06
0.000228858
-1.28272e-05
0.000247566
-3.82989e-05
0.000272285
-7.45652e-05
0.000299842
-0.000121933
0.000326975
-0.000179407
0.000348438
-0.000241297
0.000353683
-0.00029972
0.00033648
-0.000348816
0.000298762
-0.000386232
0.000250361
-0.00041447
0.000200379
-0.000433106
0.000151886
-0.000441507
0.000103295
-0.000440539
5.37998e-05
-0.000433898
8.86927e-06
-0.000427073
-2.42891e-05
-0.000424239
-4.2711e-05
-0.000423659
-5.15491e-05
-0.000419327
-6.22446e-05
-0.000398541
-8.96502e-05
-0.000346019