/*--------------------------------*- C++ -*----------------------------------*\
| =========                 |                                                 |
| \\      /  F ield         | OpenFOAM: The Open Source CFD Toolbox           |
|  \\    /   O peration     | Version:  2412                                  |
|   \\  /    A nd           | Website:  www.openfoam.com                      |
|    \\/     M anipulation  |                                                 |
\*---------------------------------------------------------------------------*/
FoamFile
{
    version     2.0;
    format      ascii;
    arch        "LSB;label=32;scalar=64";
    class       volScalarField;
    location    "5.5";
    object      alpha.honey;
}
// * * * * * * * * * * * * * * * * * * * * * * * * * * * * * * * * * * * * * //

dimensions      [0 0 0 0 0 0 0];

internalField   nonuniform List<scalar> 
6400
(
1
1
1
1
1
1
1
1
1
1
1
1
1
1
1
1
1
1
1
1
1
1
1
1
1
1
1
1
1
1
1
1
1
1
1
1
1
1
1
1
1
1
1
1
1
1
1
1
1
1
1
1
1
1
1
1
1
1
1
1
1
1
1
1
1
1
1
1
1
1
1
1
1
1
1
1
1
1
1
1
1
1
1
1
1
1
1
1
1
1
1
1
1
1
1
1
1
1
1
1
1
1
1
1
1
1
1
1
1
1
1
1
1
1
1
1
1
1
1
1
1
1
1
1
1
1
1
1
1
1
1
1
1
1
1
1
1
1
1
1
1
1
1
1
1
1
1
1
1
1
1
1
1
1
1
1
1
1
1
1
1
1
1
1
1
1
1
1
1
1
1
1
1
1
1
1
1
1
1
1
1
1
1
1
1
1
1
1
1
1
1
1
1
1
1
1
1
1
1
1
1
1
1
1
1
1
1
1
1
1
1
1
1
1
1
1
1
1
1
1
1
1
1
1
1
1
1
1
1
1
1
1
1
1
1
1
1
1
1
1
1
1
1
1
1
1
1
1
1
1
1
1
1
1
1
1
1
1
1
1
1
1
1
1
1
1
1
1
1
1
1
1
1
1
1
1
1
1
1
1
1
1
1
1
1
1
1
1
1
1
1
1
1
1
1
1
1
1
1
1
1
1
1
1
1
1
1
1
1
1
1
1
1
1
1
1
1
1
1
1
1
1
1
1
1
1
1
1
1
1
1
1
1
1
1
1
1
1
1
1
1
1
1
1
1
1
1
1
1
1
1
1
1
1
1
1
1
1
1
1
1
1
1
1
1
1
1
1
1
1
1
1
1
1
1
1
1
1
1
1
1
1
1
1
1
1
1
1
1
1
1
1
1
1
1
1
1
1
1
1
1
1
1
1
1
1
1
1
1
1
1
1
1
1
1
1
1
1
1
1
1
1
1
1
1
1
1
1
1
1
1
1
1
1
1
1
1
1
1
1
1
1
1
1
1
1
1
1
1
1
1
1
1
1
1
1
1
1
1
1
1
1
1
1
1
1
1
1
1
1
1
1
1
1
1
1
1
1
1
1
1
1
1
1
1
1
1
1
1
1
1
1
1
1
1
1
1
1
1
1
1
1
1
1
1
1
1
1
1
1
1
1
1
1
1
1
1
1
1
1
1
1
1
1
1
1
1
1
1
1
1
1
1
1
1
1
1
1
1
1
1
1
1
1
1
1
1
1
1
1
1
1
1
1
1
1
1
1
1
1
1
1
1
1
1
1
1
1
1
1
1
1
1
1
1
1
1
1
1
1
1
1
1
1
1
1
1
1
1
1
1
1
1
1
1
1
1
1
1
1
1
1
1
1
1
1
1
1
1
1
1
1
1
1
1
1
1
1
1
1
1
1
1
1
1
1
1
1
1
1
1
1
1
1
1
1
1
1
1
1
1
1
1
1
1
1
1
1
1
1
1
1
1
1
1
1
1
1
1
1
1
1
1
1
1
1
1
1
1
1
1
1
1
1
1
1
1
1
1
1
1
1
1
1
1
1
1
1
1
1
1
1
1
1
1
1
1
1
1
1
1
1
1
1
1
1
1
1
1
1
1
1
1
1
1
1
1
1
1
1
1
1
1
1
1
1
1
1
1
1
1
1
1
1
1
1
1
1
1
1
1
1
1
1
1
1
1
1
1
1
1
1
1
1
1
1
1
1
1
1
1
1
1
1
1
1
1
1
1
1
1
1
1
1
1
1
1
1
1
1
1
1
1
1
1
1
1
1
1
1
1
1
1
1
1
1
1
1
1
1
1
1
1
1
1
1
1
1
1
1
1
1
1
1
1
1
1
1
1
1
1
1
1
1
1
1
1
1
1
1
1
1
1
1
1
1
1
1
1
1
1
1
1
1
1
1
1
1
1
1
1
1
1
1
1
1
1
1
1
1
1
1
1
1
1
1
1
1
1
1
1
1
1
1
1
1
1
1
1
1
1
1
1
1
1
1
1
1
1
1
1
1
1
1
1
1
1
1
1
1
1
1
1
1
1
1
1
1
1
1
1
1
1
1
1
1
1
1
1
1
1
1
1
1
1
1
1
1
1
1
1
1
1
1
1
1
1
1
1
1
1
1
1
1
1
1
1
1
1
1
1
1
1
1
1
1
1
1
1
1
1
1
1
1
1
1
1
1
1
1
1
1
1
1
1
1
1
1
1
1
1
1
1
1
1
1
1
1
1
1
1
1
1
1
1
1
1
1
1
1
1
1
1
1
1
1
1
1
1
1
1
1
1
1
1
1
1
1
1
1
1
1
1
1
1
1
1
1
1
1
1
1
1
1
1
1
1
1
1
1
1
1
1
1
1
1
1
1
1
1
1
1
1
1
1
1
1
1
1
1
1
1
1
1
1
1
1
1
1
1
1
1
1
1
1
1
1
1
1
1
1
1
1
1
1
1
1
1
1
1
1
1
1
1
1
1
1
1
1
1
1
1
1
1
1
1
1
1
1
1
1
1
1
1
1
1
1
1
1
1
1
1
1
1
1
1
1
1
1
1
1
1
1
1
1
1
1
1
1
1
1
1
1
1
1
1
1
1
1
1
1
1
1
1
1
1
1
1
1
1
1
1
1
1
1
1
1
1
1
1
1
1
1
1
1
1
1
1
1
1
1
1
1
1
1
1
1
1
1
1
1
1
1
1
1
1
1
1
1
1
1
1
1
1
1
1
1
1
1
1
1
1
1
1
1
1
1
1
1
1
1
1
1
1
1
1
1
1
1
1
1
1
1
1
1
1
1
1
1
1
1
1
1
1
1
1
1
1
1
1
1
1
1
1
1
1
1
1
1
1
1
1
1
1
1
1
1
1
1
1
1
1
1
1
1
1
1
1
1
1
1
1
1
1
1
1
1
1
1
1
1
1
1
1
1
1
1
1
1
1
1
1
1
1
1
1
1
1
1
1
1
1
1
1
1
1
1
1
1
1
1
1
1
1
1
1
1
1
1
1
1
1
1
1
1
1
1
1
1
1
1
1
1
1
1
1
1
1
1
1
1
1
1
1
1
1
1
1
1
1
1
1
1
1
1
1
1
1
1
1
1
1
1
1
1
1
1
1
1
1
1
1
1
1
1
1
1
1
1
1
1
1
1
1
1
1
1
1
1
1
1
1
1
1
1
1
1
1
1
1
1
1
1
1
1
1
1
1
1
1
1
1
1
1
1
1
1
1
1
1
1
1
1
1
1
1
1
1
1
1
1
1
1
1
1
1
1
1
1
1
1
1
1
1
1
1
1
1
1
1
1
1
1
1
1
1
1
1
1
1
1
1
1
1
1
1
1
1
1
1
1
1
1
1
1
1
1
1
1
1
1
1
1
1
1
1
1
1
1
1
1
1
1
1
1
1
1
1
1
1
1
1
1
1
1
1
1
1
1
1
0.999999
0.999999
0.999999
1
1
1
1
1
1
1
1
1
1
1
1
0.999999
0.999999
0.999999
0.999999
0.999999
0.999999
0.999999
0.999999
0.999999
0.999999
0.999999
0.999999
0.999998
0.999998
0.999998
0.999997
0.999997
0.999996
0.999996
0.999995
0.999995
0.999994
0.999994
0.999993
0.999993
0.999993
0.999993
0.999993
0.999993
0.999994
0.999994
0.999995
0.999996
0.999996
0.999996
0.999997
0.999997
0.999998
0.999998
0.999998
0.999998
0.999999
0.999999
0.999999
0.999999
1
1
1
1
1
1
1
1
1
1
1
1
1
1
1
1
1
1
1
1
2.37413e-06
3.11447e-06
3.36602e-06
3.62644e-06
3.80094e-06
3.92961e-06
4.04045e-06
4.11389e-06
4.14951e-06
4.15324e-06
4.16141e-06
4.20198e-06
4.22439e-06
4.22312e-06
4.21556e-06
4.18342e-06
4.13204e-06
4.05272e-06
3.94019e-06
3.79335e-06
3.63008e-06
3.46669e-06
3.26952e-06
3.04201e-06
2.80102e-06
2.55561e-06
2.2789e-06
1.98567e-06
1.71804e-06
1.49813e-06
1.32443e-06
1.1625e-06
9.77852e-07
7.72367e-07
5.50865e-07
3.19679e-07
8.75738e-08
4.42902e-20
4.42902e-20
1.06671e-19
1.31035e-19
2.17392e-20
1.05656e-21
4.60335e-23
1.68049e-23
1.60105e-23
1.59802e-23
1.59802e-23
1.13957e-07
2.749e-07
4.24602e-07
5.64089e-07
7.02306e-07
8.65035e-07
1.04458e-06
1.23362e-06
1.40801e-06
1.58774e-06
1.77124e-06
1.92967e-06
2.06628e-06
2.18415e-06
2.34821e-06
2.59742e-06
2.87074e-06
3.11744e-06
3.33433e-06
3.51743e-06
3.66459e-06
3.77168e-06
3.83591e-06
3.85502e-06
3.82408e-06
3.74055e-06
3.5979e-06
3.38572e-06
3.15229e-06
2.90073e-06
2.63949e-06
1.93615e-06
1.4983e-18
9.40374e-19
1.18297e-18
1.46838e-18
1.85127e-18
2.24337e-18
2.72089e-18
3.36357e-18
4.12677e-18
4.82808e-18
5.41733e-18
6.26763e-18
7.50244e-18
8.97717e-18
1.09351e-17
1.35855e-17
1.71059e-17
2.16141e-17
2.70129e-17
3.3394e-17
4.15758e-17
5.21384e-17
6.31769e-17
7.32606e-17
8.28445e-17
9.0133e-17
8.81897e-17
7.20804e-17
4.21195e-17
1.48694e-22
1.49603e-22
5.83491e-24
1.49603e-22
6.11006e-21
2.07474e-19
6.08122e-18
1.62278e-16
1.08763e-14
9.50676e-15
1.08528e-14
1.13634e-14
9.05707e-15
1.93246e-14
1.01992e-21
4.50213e-23
1.68049e-23
1.18453e-20
7.69036e-22
0
-7.29668e-23
-4.91797e-22
3.64403e-38
-2.40741e-23
3.95962e-17
5.76487e-17
6.9197e-17
7.31701e-17
7.30359e-17
7.07554e-17
6.34749e-17
5.30202e-17
4.41276e-17
3.89688e-17
3.44001e-17
2.8652e-17
2.22281e-17
1.67416e-17
1.25735e-17
9.51785e-18
7.28576e-18
5.64669e-18
4.4231e-18
3.5166e-18
2.81754e-18
2.2391e-18
1.77036e-18
1.44135e-18
1.22189e-18
9.94009e-19
1.55894e-18
1.8172e-21
9.59377e-22
1.0387e-21
1.32527e-21
1.72552e-21
1.9516e-21
2.23962e-21
2.58132e-21
3.31577e-21
3.83017e-21
3.77607e-21
3.99198e-21
6.09515e-21
1.03434e-20
1.32364e-20
1.60504e-20
2.31335e-20
3.16989e-20
4.12355e-20
5.37484e-20
7.3632e-20
1.064e-19
1.4659e-19
1.75968e-19
1.84355e-19
2.13942e-19
2.67959e-19
3.40233e-19
4.75767e-19
1.49481e-19
1.64537e-20
4.46824e-19
6.51718e-18
9.59192e-17
1.64903e-15
2.5539e-14
2.91039e-13
1.12729e-12
3.49251e-13
4.49062e-13
4.98321e-13
4.81345e-13
1.01729e-12
4.46419e-15
1.58488e-16
5.48081e-18
2.97696e-19
4.7183e-19
7.38234e-20
2.24127e-21
5.40166e-22
1.85796e-19
2.31148e-19
4.08492e-19
5.58142e-19
3.85979e-19
1.87929e-19
2.1422e-19
2.44565e-19
1.89848e-19
1.06152e-19
5.56156e-20
4.81028e-20
4.83611e-20
4.18303e-20
3.04859e-20
2.04476e-20
1.35727e-20
9.56844e-21
6.9603e-21
5.10693e-21
3.98171e-21
3.35425e-21
2.79271e-21
2.23344e-21
1.88706e-21
1.5033e-21
1.26157e-21
1.11194e-21
2.03704e-21
1.36167e-22
1.90946e-22
6.26865e-23
8.81588e-23
1.17475e-22
1.55314e-22
2.13578e-22
2.93912e-22
3.71292e-22
4.34646e-22
5.64957e-22
7.9743e-22
1.10264e-21
1.58815e-21
2.38909e-21
3.63047e-21
5.40967e-21
7.6662e-21
1.05902e-20
1.53199e-20
2.23627e-20
2.83482e-20
3.20374e-20
3.80627e-20
4.43242e-20
3.36902e-20
2.11354e-20
1.30696e-19
6.22672e-19
6.3036e-19
1.18559e-18
2.76335e-17
4.03314e-16
6.03053e-15
1.11957e-13
1.36823e-12
4.22029e-12
5.92433e-12
2.08201e-11
2.16894e-11
2.30758e-11
2.44299e-11
5.7722e-12
3.81861e-13
1.69939e-14
7.67313e-16
4.55041e-17
2.9586e-17
3.34445e-18
1.36177e-19
3.67969e-20
2.77022e-20
2.02102e-20
1.13391e-20
1.40874e-20
2.32593e-20
2.7682e-20
2.71283e-20
2.61952e-20
2.9576e-20
2.93992e-20
2.31042e-20
1.70731e-20
1.59602e-20
1.42373e-20
1.05163e-20
6.59167e-21
3.83195e-21
2.39996e-21
1.6754e-21
1.19587e-21
8.58339e-22
6.27822e-22
4.82994e-22
3.79232e-22
3.03881e-22
2.50034e-22
2.18198e-22
2.69277e-22
2.21531e-22
4.41084e-25
9.15244e-25
1.91425e-25
2.17491e-25
3.00785e-25
4.14181e-25
5.94883e-25
8.62081e-25
1.16628e-24
1.48736e-24
2.06667e-24
3.10402e-24
4.64147e-24
7.2603e-24
1.19306e-23
1.99317e-23
3.26918e-23
5.1023e-23
7.80355e-23
1.24887e-22
1.99187e-22
2.76758e-22
3.47467e-22
4.07811e-22
5.49695e-22
3.70671e-21
1.04176e-20
2.19975e-20
2.04818e-19
3.09908e-18
5.36802e-17
8.64043e-16
1.31026e-14
2.15848e-13
3.19975e-12
1.66012e-11
3.01506e-11
1.78059e-10
6.92405e-10
6.58985e-10
6.85873e-10
7.75293e-10
1.75437e-10
1.44778e-11
7.63082e-13
3.82216e-14
6.56292e-15
1.50091e-15
1.29239e-16
6.44004e-18
3.45661e-19
2.51805e-20
1.13391e-20
7.3291e-21
1.10167e-21
3.65065e-22
4.28228e-22
3.91752e-22
3.29162e-22
3.10519e-22
2.98418e-22
2.40693e-22
1.70667e-22
1.44687e-22
1.25214e-22
8.63283e-23
4.65743e-23
2.18793e-23
1.17196e-23
7.68288e-24
5.25621e-24
3.60558e-24
2.58333e-24
1.97336e-24
1.56596e-24
1.28329e-24
1.05162e-24
9.80034e-25
1.81892e-24
9.21548e-25
9.49731e-28
1.22613e-27
7.11403e-28
7.68799e-28
9.56545e-28
1.35183e-27
1.98325e-27
2.97227e-27
4.29294e-27
5.95723e-27
8.68549e-27
1.3523e-26
2.14294e-26
3.52921e-26
6.08846e-26
1.0773e-25
1.90161e-25
3.27194e-25
5.58288e-25
9.80159e-25
1.68841e-24
2.45575e-24
4.35048e-24
3.78182e-23
8.37905e-23
4.55619e-22
7.68355e-21
1.47609e-19
3.09832e-18
6.06785e-17
1.09247e-15
1.85374e-14
3.03764e-13
2.91622e-12
1.31559e-11
1.15279e-10
6.33945e-10
3.84052e-09
1.40267e-08
1.21605e-08
1.25226e-08
1.5192e-08
3.60648e-09
3.49885e-10
2.27236e-11
1.34115e-12
5.42243e-13
6.8776e-14
4.06289e-15
2.20931e-16
1.15695e-17
5.70338e-19
2.70558e-20
1.74883e-21
1.88357e-22
8.97602e-23
2.13857e-23
5.11704e-24
4.13947e-24
3.20819e-24
2.28539e-24
1.54339e-24
1.0015e-24
6.74673e-25
4.70002e-25
2.97821e-25
1.59294e-25
7.75867e-26
3.95171e-26
2.28781e-26
1.41788e-26
8.9672e-27
5.88953e-27
4.07977e-27
2.93543e-27
2.17927e-27
1.66792e-27
1.41072e-27
1.83363e-27
1.30179e-27
3.50264e-30
4.3307e-30
2.99799e-30
3.45543e-30
4.29205e-30
5.91777e-30
8.99908e-30
1.40778e-29
2.15273e-29
3.19247e-29
4.93506e-29
8.14458e-29
1.38185e-28
2.44035e-28
4.52656e-28
8.65733e-28
1.66202e-27
3.13703e-27
5.87621e-27
1.06782e-26
2.13669e-26
1.78385e-25
4.78381e-25
5.89155e-24
1.13495e-22
2.92534e-21
7.79575e-20
1.89532e-18
4.19639e-17
8.55356e-16
1.67204e-14
2.71719e-13
2.48613e-12
1.77052e-11
1.28686e-10
1.88472e-09
9.23755e-08
1.65212e-07
1.94437e-07
1.55305e-07
1.5793e-07
2.03817e-07
1.00354e-07
5.74403e-09
4.72922e-10
3.68982e-11
4.78876e-12
1.1142e-12
1.08643e-13
5.35496e-15
2.63482e-16
1.2418e-17
5.41555e-19
2.1643e-20
8.21902e-22
3.81613e-23
2.34073e-24
6.66041e-25
1.35351e-25
4.01575e-26
2.70362e-26
1.63216e-26
9.55758e-27
5.76875e-27
3.55385e-27
2.06004e-27
1.04216e-27
4.85318e-28
2.32238e-28
1.24095e-28
7.16376e-29
4.26176e-29
2.63776e-29
1.72785e-29
1.17996e-29
8.36587e-30
6.20733e-30
5.05796e-30
5.69588e-30
4.51776e-30
1.55789e-32
1.96073e-32
1.42559e-32
1.68715e-32
2.22057e-32
3.13717e-32
4.83707e-32
7.91337e-32
1.27877e-31
2.01892e-31
3.31511e-31
5.82279e-31
1.05935e-30
2.01177e-30
4.02725e-30
8.35797e-30
1.75083e-29
3.53043e-29
6.57303e-29
2.177e-28
1.58673e-27
2.43828e-26
6.51913e-25
2.16969e-23
7.4918e-22
2.29045e-20
6.35687e-19
1.61156e-17
3.74902e-16
8.1889e-15
1.56857e-13
1.84204e-12
1.43955e-11
1.46544e-10
1.288e-09
1.17372e-08
8.53576e-07
2.73482e-06
1.93926e-06
1.45098e-06
1.45406e-06
1.95759e-06
9.55675e-07
8.50411e-08
6.64398e-09
7.35539e-10
8.35591e-11
7.87032e-12
8.79203e-13
6.49084e-14
3.15913e-15
1.39894e-16
5.83482e-18
2.24456e-19
7.93302e-21
2.53997e-22
7.53762e-24
2.83184e-25
1.29853e-26
3.2613e-27
4.10889e-28
2.04642e-28
1.15237e-28
6.35581e-29
3.54196e-29
1.87031e-29
8.74792e-30
3.78417e-30
1.68509e-30
8.369e-31
4.519e-31
2.53374e-31
1.48685e-31
9.27563e-32
6.06695e-32
4.14572e-32
2.98663e-32
2.37789e-32
2.62026e-32
2.04832e-32
7.96417e-35
1.01196e-34
7.68487e-35
9.41279e-35
1.29113e-34
1.89675e-34
3.01359e-34
5.11689e-34
8.7254e-34
1.46303e-33
2.55225e-33
4.77653e-33
9.31754e-33
1.90341e-32
4.11859e-32
9.24762e-32
1.99084e-31
4.16718e-31
2.68444e-30
2.20722e-29
8.33477e-28
3.20748e-26
1.4231e-24
5.56309e-23
1.95664e-21
6.24746e-20
1.80992e-18
4.76171e-17
1.15061e-15
2.63126e-14
5.19335e-13
4.77848e-12
1.96629e-11
1.90554e-10
1.2901e-09
1.08846e-08
9.56596e-07
1.12866e-05
1.5094e-05
1.04002e-05
1.03151e-05
1.58221e-05
8.96942e-06
1.58212e-06
1.78268e-08
2.01682e-09
2.40074e-10
2.46829e-11
3.40256e-12
3.38431e-13
1.7753e-14
7.38241e-16
2.91519e-17
1.0671e-18
3.5862e-20
1.10384e-21
3.09277e-23
7.71669e-25
1.81772e-26
5.3955e-28
2.88028e-29
3.35314e-30
1.46645e-30
7.91945e-31
4.08337e-31
1.9682e-31
8.4977e-32
3.41094e-32
1.41267e-32
6.53311e-33
3.30121e-33
1.74524e-33
9.71199e-34
5.77262e-34
3.61799e-34
2.38368e-34
1.66711e-34
1.29593e-34
1.40092e-34
1.07741e-34
4.61187e-37
5.9301e-37
4.6572e-37
5.89306e-37
8.37383e-37
1.278e-36
2.11165e-36
3.72857e-36
6.68634e-36
1.18884e-35
2.2025e-35
4.39243e-35
9.18357e-35
2.01992e-34
4.68579e-34
1.05685e-33
2.48616e-33
1.98057e-32
2.52609e-31
1.26895e-29
6.84822e-28
3.44393e-26
1.54698e-24
6.30332e-23
2.33873e-21
7.87103e-20
2.39983e-18
6.60702e-17
1.68115e-15
4.14162e-14
7.94381e-13
7.50397e-12
3.24535e-11
1.20493e-10
8.93757e-10
5.32461e-09
3.40046e-07
2.09005e-05
5.15027e-05
6.28157e-05
6.223e-05
0.000104474
0.000108978
4.2696e-06
1.05916e-08
1.4443e-09
2.11812e-10
2.50716e-11
6.78224e-12
7.63544e-13
3.76588e-14
1.52165e-15
5.78239e-17
2.02356e-18
6.43587e-20
1.86424e-21
4.94813e-23
1.19599e-24
2.6291e-26
5.20474e-28
1.11066e-29
2.96666e-31
2.61349e-32
1.0214e-32
5.13506e-33
2.32932e-33
9.29509e-34
3.46212e-34
1.33466e-34
5.75714e-35
2.72661e-35
1.36049e-35
7.18549e-36
4.07368e-36
2.44911e-36
1.55744e-36
1.05846e-36
8.03882e-37
8.52335e-37
6.44493e-37
2.97219e-39
3.89086e-39
3.13186e-39
4.07111e-39
5.97425e-39
9.45844e-39
1.62679e-38
3.00058e-38
5.65366e-38
1.06274e-37
2.08998e-37
4.44083e-37
9.95234e-37
2.33507e-36
5.43619e-36
1.349e-35
9.00117e-35
1.70488e-33
1.08303e-31
7.84287e-30
4.76857e-28
2.55203e-26
1.22431e-24
5.33096e-23
2.10008e-21
7.48502e-20
2.4001e-18
6.94488e-17
1.89286e-15
4.9043e-14
9.1463e-13
8.69877e-12
3.3771e-11
6.10763e-11
4.1556e-10
3.0941e-09
8.30742e-07
0.000261751
0.000200575
0.000349545
0.000347778
0.00025589
0.00033064
3.78872e-06
3.38791e-09
3.59003e-10
1.0094e-10
4.67812e-11
1.0472e-11
9.94213e-13
5.08404e-14
1.93818e-15
7.01927e-17
2.37283e-18
7.28187e-20
2.02755e-21
5.13264e-23
1.18734e-24
2.50558e-26
4.78211e-28
7.8672e-30
1.25029e-31
2.47204e-33
1.85845e-34
6.63829e-35
2.93597e-35
1.11862e-35
3.8745e-36
1.39084e-36
5.60541e-37
2.49283e-37
1.17545e-37
5.89956e-38
3.19468e-38
1.84493e-38
1.13395e-38
7.49722e-39
5.5713e-39
5.805e-39
4.30132e-39
2.09689e-41
2.8081e-41
2.30379e-41
3.06499e-41
4.631e-41
7.58993e-41
1.35773e-40
2.6182e-40
5.18387e-40
1.02924e-39
2.14567e-39
4.85777e-39
1.15934e-38
2.77086e-38
6.85506e-38
2.88107e-37
7.01791e-36
5.70781e-34
5.36633e-32
3.96982e-30
2.56833e-28
1.48745e-26
7.79978e-25
3.69874e-23
1.58357e-21
6.09837e-20
2.09974e-18
6.50435e-17
1.90576e-15
5.32347e-14
1.04047e-12
9.37258e-12
3.41239e-11
5.37689e-11
3.88835e-11
1.63056e-10
8.95676e-07
0.00123114
0.000730015
0.00188732
0.00179543
0.000367514
0.000418038
1.14804e-06
4.75903e-10
5.38586e-11
8.12017e-11
4.70873e-11
1.11135e-11
1.09308e-12
5.36226e-14
1.93467e-15
6.67164e-17
2.15949e-18
6.30748e-20
1.66043e-21
3.96216e-23
8.59105e-25
1.698e-26
3.05786e-28
4.93616e-30
6.97631e-32
8.71695e-34
1.43687e-35
1.14801e-36
3.73563e-37
1.4143e-37
4.68879e-38
1.57075e-38
5.92225e-39
2.47755e-39
1.10561e-39
5.28071e-40
2.73539e-40
1.51958e-40
9.03932e-41
5.82106e-41
4.2388e-41
4.34825e-41
3.14752e-41
1.59661e-43
2.19477e-43
1.8288e-43
2.48365e-43
3.85527e-43
6.52869e-43
1.21301e-42
2.44301e-42
5.08105e-42
1.06518e-41
2.35133e-41
5.65415e-41
1.40113e-40
3.42658e-40
1.09202e-39
1.52141e-38
1.61022e-36
2.13196e-34
1.9973e-32
1.59095e-30
1.13298e-28
7.28152e-27
4.2246e-25
2.20923e-23
1.03923e-21
4.37636e-20
1.63889e-18
5.49753e-17
1.75102e-15
5.34314e-14
1.10517e-12
9.85327e-12
3.29284e-11
4.61453e-11
3.25558e-12
5.02523e-12
1.63056e-10
0.00159385
0.150535
0.0676053
0.0675267
0.136321
0.000374089
1.87766e-09
5.31199e-11
3.51394e-11
6.48939e-11
3.8572e-11
9.86313e-12
1.016e-12
4.90178e-14
1.66976e-15
5.41677e-17
1.65485e-18
4.54312e-20
1.11801e-21
2.48332e-23
5.00415e-25
9.1766e-27
1.53423e-28
2.34157e-30
3.20536e-32
3.81306e-34
3.83285e-36
5.90097e-38
5.92941e-39
1.78096e-39
5.93508e-40
1.89313e-40
6.69001e-41
2.63681e-41
1.11537e-41
5.07754e-42
2.5198e-42
1.34848e-42
7.77392e-43
4.8818e-43
3.48827e-43
3.52821e-43
2.48886e-43
1.2959e-45
1.83344e-45
1.54774e-45
2.14128e-45
3.40898e-45
5.95572e-45
1.14767e-44
2.41087e-44
5.26212e-44
1.16356e-43
2.71725e-43
6.85914e-43
1.71392e-42
4.81599e-42
3.68279e-41
1.81608e-39
4.6433e-37
5.92749e-35
6.01173e-33
5.38806e-31
4.32289e-29
3.11485e-27
2.01621e-25
1.17247e-23
6.11091e-22
2.83937e-20
1.1666e-18
4.27747e-17
1.5003e-15
5.1489e-14
1.15371e-12
1.00519e-11
3.04287e-11
3.83686e-11
1.0042e-12
6.81752e-13
3.89825e-12
0.00175981
0.438488
0.400855
0.401094
0.438505
0.000270043
1.00181e-10
2.35278e-11
3.50838e-11
4.99322e-11
2.97805e-11
7.8797e-12
8.36145e-13
3.93976e-14
1.2596e-15
3.82267e-17
1.09372e-18
2.802e-20
6.40393e-22
1.31683e-23
2.45078e-25
4.14253e-27
6.37833e-29
8.96555e-31
1.15135e-32
1.32866e-34
1.30435e-36
1.07285e-38
1.97749e-40
2.60555e-41
7.51023e-42
2.3817e-42
7.97834e-43
2.96742e-43
1.19169e-43
5.17915e-44
2.46634e-44
1.27334e-44
7.12366e-45
4.36729e-45
3.06595e-45
3.06172e-45
2.10083e-45
1.10915e-47
1.61856e-47
1.38161e-47
1.94391e-47
3.16947e-47
5.70484e-47
1.13861e-46
2.49135e-46
5.69893e-46
1.32749e-45
3.26612e-45
8.50818e-45
2.27282e-44
4.03726e-44
5.95084e-43
4.17233e-40
9.85855e-38
1.36333e-35
1.5967e-33
1.64025e-31
1.49428e-29
1.21325e-27
8.80208e-26
5.70776e-24
3.3036e-22
1.69919e-20
7.70307e-19
3.10901e-17
1.19246e-15
4.37732e-14
1.02596e-12
9.16959e-12
2.69896e-11
3.23249e-11
6.27104e-13
3.10558e-13
7.51827e-12
0.00205104
0.438815
0.438814
0.438815
0.438814
0.000238797
2.08904e-11
1.34273e-11
3.51418e-11
3.62236e-11
2.21088e-11
6.19598e-12
6.59898e-13
2.90726e-14
8.55264e-16
2.41999e-17
6.44551e-19
1.52939e-20
3.22405e-22
6.09672e-24
1.04075e-25
1.61113e-27
2.26915e-29
2.91465e-31
3.42413e-33
3.68035e-35
3.54699e-37
2.80046e-39
1.99704e-41
5.31304e-43
1.02287e-43
3.04862e-44
9.89986e-45
3.49275e-45
1.33383e-45
5.54373e-46
2.5375e-46
1.26582e-46
6.88136e-47
4.12336e-47
2.84726e-47
2.81041e-47
1.87303e-47
9.91644e-50
1.49509e-49
1.28861e-49
1.84115e-49
3.07027e-49
5.68614e-49
1.17386e-48
2.67144e-48
6.39457e-48
1.56647e-47
4.05555e-47
1.08131e-46
2.57393e-46
3.90478e-46
1.55463e-44
7.32506e-42
6.21957e-39
1.61441e-36
2.69449e-34
3.4826e-32
3.78582e-30
3.57419e-28
2.97394e-26
2.19084e-24
1.42897e-22
8.23448e-21
4.17521e-19
1.88389e-17
7.93598e-16
3.02633e-14
7.32376e-13
7.08597e-12
2.23383e-11
2.7033e-11
8.10307e-13
3.10558e-13
3.09677e-13
0.00222175
0.438488
0.438815
0.438814
0.438505
0.000357543
1.36918e-11
1.32012e-11
6.33832e-11
4.25461e-11
2.02843e-11
4.9526e-12
4.95985e-13
1.97571e-14
5.38268e-16
1.42587e-17
3.5065e-19
7.6295e-21
1.47125e-22
2.53824e-24
3.94317e-26
5.54453e-28
7.08345e-30
8.24802e-32
8.77527e-34
8.55846e-36
7.65112e-38
6.07263e-40
3.71631e-42
2.63623e-44
1.59688e-45
3.97641e-46
1.26041e-46
4.25496e-47
1.54907e-47
6.16821e-48
2.71852e-48
1.31235e-48
6.94218e-49
4.07051e-49
2.76759e-49
2.70286e-49
1.74766e-49
9.18375e-52
1.43248e-51
1.24512e-51
1.80433e-51
3.07339e-51
5.84904e-51
1.24721e-50
2.94767e-50
7.37133e-50
1.89633e-49
5.20262e-49
1.39633e-48
9.18653e-49
6.59686e-48
3.90478e-46
5.53835e-44
9.58129e-42
1.09026e-38
5.58864e-36
1.90499e-33
3.62508e-31
5.01085e-29
5.49796e-27
4.99076e-25
3.90516e-23
2.64351e-21
1.55946e-19
8.35255e-18
4.21218e-16
1.65467e-14
3.89899e-13
4.22608e-12
1.59613e-11
2.10208e-11
1.8118e-12
2.53206e-13
2.95724e-08
0.0022749
0.421982
0.436279
0.436268
0.42138
0.000496465
1.32195e-11
1.26945e-11
3.38677e-11
4.54942e-11
2.4625e-11
5.22116e-12
3.50171e-13
1.10211e-14
2.91951e-16
7.36208e-18
1.65371e-19
3.25445e-21
5.66386e-23
8.80243e-25
1.23067e-26
1.55564e-28
1.78633e-30
1.87052e-32
1.79076e-34
1.57062e-36
1.26771e-38
9.42073e-41
6.00077e-43
2.80758e-45
3.45653e-47
5.53707e-48
1.62357e-48
5.31147e-49
1.8507e-49
7.074e-50
3.00746e-50
1.40726e-50
7.25399e-51
4.16699e-51
2.7925e-51
2.70078e-51
1.6927e-51
8.74389e-54
1.41259e-53
1.23695e-53
1.81591e-53
3.15549e-53
6.16285e-53
1.35539e-52
3.32129e-52
8.66313e-52
2.33793e-51
6.69605e-51
1.76124e-50
5.90504e-51
8.42494e-50
6.59686e-48
1.11165e-45
2.17718e-43
3.8919e-41
6.36936e-39
5.90276e-36
4.1554e-33
1.54199e-30
3.31033e-28
5.40084e-26
5.9633e-24
5.27153e-22
3.91225e-20
2.72059e-18
2.14238e-16
1.02997e-14
1.74509e-13
1.71195e-12
8.60444e-12
1.36762e-11
2.10503e-12
1.8988e-13
8.42084e-13
0.00179906
0.109101
0.214959
0.214199
0.107594
0.000522823
-3.91175e-12
1.09597e-11
1.69111e-11
4.54942e-11
2.57964e-11
4.72241e-12
2.13732e-13
4.94304e-15
1.18296e-16
2.73042e-18
5.50801e-20
9.69506e-22
1.51097e-23
2.10114e-25
2.61668e-27
2.94053e-29
3.00823e-31
2.81651e-33
2.42159e-35
1.91471e-37
1.39558e-39
9.43042e-42
5.8659e-44
2.9017e-46
1.35314e-48
8.2538e-50
2.13296e-50
6.73664e-51
2.25628e-51
8.29894e-52
3.40997e-52
1.54923e-52
7.79303e-53
4.39106e-53
2.90332e-53
2.78307e-53
1.68941e-53
8.50021e-56
1.42366e-55
1.25475e-55
1.86406e-55
3.30029e-55
6.60564e-55
1.4961e-54
3.79457e-54
1.03041e-53
2.91048e-53
8.72669e-53
2.36635e-52
8.25144e-53
1.03469e-51
8.42494e-50
1.51195e-47
3.32276e-45
6.63636e-43
1.20637e-40
2.01139e-38
1.11032e-35
9.73693e-33
5.16206e-30
2.08717e-27
5.79219e-25
8.31224e-23
8.76697e-21
8.50008e-19
1.14967e-16
7.67635e-15
1.03121e-13
5.2781e-13
2.92142e-12
6.06928e-12
1.0911e-12
1.80694e-13
1.09825e-07
0.000797057
1.08119e-12
8.87023e-13
6.19932e-13
4.65639e-12
0.000487873
2.76429e-08
1.05348e-11
2.21807e-11
3.99098e-11
2.17991e-11
3.2498e-12
1.1587e-13
2.33184e-15
4.55025e-17
9.00919e-19
1.63723e-20
2.60065e-22
3.6359e-24
4.56542e-26
5.24378e-28
5.46854e-30
5.1406e-32
4.37879e-34
3.39865e-36
2.41291e-38
1.57213e-40
9.42904e-43
5.241e-45
2.63304e-47
1.04252e-49
1.46e-51
2.88175e-52
8.6127e-53
2.78663e-53
9.89075e-54
3.93584e-54
1.73922e-54
8.55036e-55
4.73153e-55
3.08972e-55
2.93777e-55
1.72602e-55
8.38426e-58
1.45712e-57
1.29153e-57
1.93951e-57
3.49413e-57
7.15686e-57
1.66657e-56
4.36716e-56
1.23206e-55
3.63168e-55
1.14259e-54
3.40251e-54
1.33283e-54
1.3539e-53
1.03469e-51
1.86229e-49
4.46473e-47
9.73387e-45
2.0525e-42
1.76342e-39
1.35033e-36
4.25862e-34
1.11092e-31
4.18656e-29
2.86606e-26
9.59725e-24
1.78914e-21
2.53553e-19
5.48464e-17
5.36837e-15
7.6515e-14
2.45252e-13
6.67876e-13
1.55703e-12
4.75889e-13
1.7714e-13
5.98328e-08
1.35649e-12
9.19853e-13
6.52769e-13
6.1994e-13
1.75864e-10
4.2193e-05
1.63904e-08
1.01116e-11
2.54712e-11
3.14486e-11
1.37589e-11
1.69963e-12
7.10289e-14
1.79896e-15
3.5738e-17
6.73785e-19
1.17821e-20
1.80203e-22
2.39413e-24
2.80337e-26
2.93738e-28
2.77876e-30
2.38205e-32
1.84951e-34
1.30145e-36
8.32441e-39
4.84183e-41
2.56524e-43
1.23936e-45
5.46589e-48
2.10048e-50
7.60167e-53
4.07519e-54
1.10254e-54
3.46232e-55
1.18994e-55
4.59594e-56
1.97893e-56
9.52292e-57
5.18192e-57
3.34534e-57
3.1574e-57
1.79431e-57
8.34239e-60
1.50574e-59
1.34116e-59
2.03366e-59
3.72304e-59
7.79185e-59
1.86227e-58
5.03204e-58
1.47181e-57
4.51641e-57
1.48634e-56
4.89022e-56
4.25066e-56
2.14573e-55
1.3539e-53
2.57682e-51
6.97238e-48
4.72344e-45
1.59268e-42
4.21389e-40
9.92243e-38
2.12148e-35
4.56361e-33
1.25065e-30
7.2502e-28
5.09061e-25
2.07519e-22
5.08278e-20
1.92007e-17
3.07117e-15
5.36955e-14
1.85873e-13
2.54109e-13
3.62531e-13
2.36736e-13
1.76799e-13
1.51146e-08
2.20202e-12
2.48812e-12
1.55663e-12
6.2016e-13
6.74198e-13
1.0139e-12
9.03909e-09
9.55581e-12
2.60076e-11
2.59838e-11
7.70024e-12
9.13627e-13
5.00543e-14
1.49478e-15
3.07275e-17
5.74131e-19
9.82363e-21
1.46185e-22
1.87974e-24
2.10989e-26
2.08064e-28
1.82465e-30
1.43869e-32
1.02295e-34
6.57371e-37
3.828e-39
2.01999e-41
9.67123e-44
4.20199e-46
1.66001e-48
5.91681e-51
1.66308e-53
8.71139e-56
1.43147e-56
4.29632e-57
1.43662e-57
5.39878e-58
2.26938e-58
1.07065e-58
5.73629e-59
3.66482e-59
3.43595e-59
1.88749e-59
8.32839e-62
1.56253e-61
1.39751e-61
2.13736e-61
3.97078e-61
8.47768e-61
2.07571e-60
5.77123e-60
1.74594e-59
5.56429e-59
1.91003e-58
6.80723e-58
1.64298e-57
2.14512e-56
6.40048e-54
2.58659e-51
8.42067e-49
2.68025e-46
8.33978e-44
2.18603e-41
4.22056e-39
4.82111e-37
9.53174e-35
2.09116e-32
7.63985e-30
6.70727e-27
6.38125e-24
3.61873e-21
4.80074e-18
1.47555e-15
3.54639e-14
1.61731e-13
2.30597e-13
2.45723e-13
2.10512e-13
1.76799e-13
1.76799e-13
4.36984e-12
1.8241e-11
9.17823e-12
8.98671e-13
2.33699e-12
1.62735e-11
2.29655e-09
9.26361e-12
2.49076e-11
2.14215e-11
4.60523e-12
5.58351e-13
3.45358e-14
1.10091e-15
2.32191e-17
4.31341e-19
7.1331e-21
1.01046e-22
1.22908e-24
1.29747e-26
1.19407e-28
9.68461e-31
7.00228e-33
4.53919e-35
2.64961e-37
1.397e-39
6.67462e-42
2.8939e-44
1.13927e-46
4.0705e-49
1.32499e-51
3.72079e-54
7.96377e-57
1.9575e-58
5.32146e-59
1.73124e-59
6.34636e-60
2.60943e-60
1.20889e-60
6.38569e-61
4.04152e-61
3.7666e-61
1.99887e-61
8.30389e-64
1.61974e-63
1.45445e-63
2.23993e-63
4.21711e-63
9.16938e-63
2.29564e-62
6.55296e-62
2.04399e-61
6.74257e-61
2.40277e-60
9.0237e-60
3.25204e-59
7.86416e-58
2.57744e-55
1.1481e-52
3.41374e-50
9.0763e-48
2.25507e-45
5.63962e-43
1.25474e-39
5.44363e-34
1.13202e-31
1.22439e-29
1.1195e-27
9.58099e-26
8.81349e-24
1.26846e-21
1.7144e-18
6.72395e-16
2.42127e-14
1.82244e-13
2.66328e-13
2.70815e-13
2.42651e-13
1.79798e-13
1.79985e-13
1.66152e-11
4.57529e-11
2.40447e-11
2.87438e-12
1.73314e-11
1.84724e-10
5.49178e-10
9.16402e-12
2.1024e-11
1.62351e-11
2.66897e-12
3.32159e-13
2.08276e-14
6.42285e-16
1.34997e-17
2.46748e-19
3.87338e-21
5.10943e-23
5.74483e-25
5.58566e-27
4.7354e-29
3.52922e-31
2.33057e-33
1.37413e-35
7.26895e-38
3.46565e-40
1.49475e-42
5.84141e-45
2.06885e-47
6.64676e-50
1.94546e-52
5.26279e-55
1.11431e-57
3.86724e-60
6.59261e-61
2.07328e-61
7.42931e-62
2.99402e-62
1.36436e-62
7.11497e-63
4.46551e-63
4.13995e-63
2.12096e-63
8.23836e-66
1.66835e-65
1.50583e-65
2.32876e-65
4.43684e-65
9.8019e-65
2.50155e-64
7.30109e-64
2.33699e-63
7.93854e-63
2.91945e-62
1.13934e-61
4.63461e-61
1.62471e-59
6.01308e-57
1.96144e-54
6.10793e-52
1.86355e-49
5.34773e-47
5.71578e-44
4.64333e-38
5.85366e-34
2.25183e-31
4.39604e-29
5.92157e-27
6.04817e-25
4.79016e-23
3.81149e-21
1.13058e-18
2.98837e-16
1.66265e-14
1.73898e-13
4.81072e-13
4.7965e-13
4.45873e-13
3.37896e-13
3.74529e-13
2.1176e-11
6.10299e-11
4.0517e-11
5.9693e-12
6.36238e-11
4.64779e-10
5.12086e-10
7.53363e-12
1.40405e-11
9.94193e-12
1.35336e-12
1.76622e-13
1.0294e-14
2.79421e-16
5.61786e-18
9.91385e-20
1.46314e-21
1.79159e-23
1.8581e-25
1.6594e-27
1.29129e-29
8.82511e-32
5.33003e-34
2.86446e-36
1.37754e-38
5.95785e-41
2.32668e-43
8.21936e-46
2.62919e-48
7.62279e-51
2.00444e-53
4.84596e-56
1.05549e-58
1.85586e-61
8.15864e-63
2.4584e-63
8.62174e-64
3.41256e-64
1.53221e-64
7.89853e-65
4.92361e-65
4.5404e-65
2.24644e-65
8.09003e-68
1.70107e-67
1.54283e-67
2.39159e-67
4.60265e-67
1.03076e-66
2.67483e-66
7.96216e-66
2.60831e-65
9.09458e-65
3.43955e-64
1.38515e-63
5.86005e-63
2.47524e-61
9.6173e-59
3.32833e-56
1.12669e-53
3.41734e-51
1.15895e-48
9.6052e-45
3.76081e-38
2.39181e-34
1.57822e-31
3.81976e-29
5.94341e-27
7.06609e-25
6.65716e-23
5.57043e-21
7.93553e-19
1.22613e-16
9.65142e-15
1.41316e-13
6.43853e-13
1.15982e-12
1.42979e-12
1.41112e-12
1.115e-12
2.09225e-11
6.27579e-11
5.05723e-11
9.47764e-12
1.46375e-10
6.51315e-10
5.85566e-10
6.11795e-12
7.8632e-12
3.72316e-12
6.2072e-13
8.16764e-14
4.0301e-15
9.21994e-17
1.75288e-18
2.9515e-20
4.10121e-22
4.71194e-24
4.56473e-26
3.78316e-28
2.7173e-30
1.70667e-32
9.44302e-35
4.63179e-37
2.02792e-39
7.95299e-42
2.80854e-44
8.95737e-47
2.58502e-49
6.75992e-52
1.60102e-54
3.43106e-57
6.80084e-60
1.12691e-62
1.0727e-64
2.87327e-65
9.88472e-66
3.84966e-66
1.70568e-66
8.70149e-67
5.39614e-67
4.94816e-67
2.36601e-67
7.8282e-70
1.71075e-69
1.55794e-69
2.41768e-69
4.69291e-69
1.06334e-68
2.79966e-68
8.47899e-68
2.83505e-67
1.01144e-66
3.92061e-66
1.62084e-65
7.06725e-65
3.24491e-63
1.21163e-60
4.62989e-58
1.89653e-55
9.053e-53
3.37888e-50
5.86306e-46
8.13627e-39
1.7973e-35
3.60814e-32
1.32661e-29
2.78032e-27
4.21279e-25
4.65129e-23
4.23136e-21
4.28299e-19
4.35139e-17
3.68558e-15
8.03342e-14
5.55352e-13
1.79879e-12
2.57773e-12
2.57753e-12
1.77996e-12
1.70809e-11
6.20925e-11
5.40565e-11
1.1812e-11
2.10906e-10
6.91259e-10
5.99256e-10
5.94637e-12
5.93959e-12
1.38792e-12
3.17117e-13
3.28335e-14
1.26865e-15
2.58315e-17
4.76998e-19
7.59715e-21
9.87744e-23
1.05942e-24
9.52856e-27
7.27551e-29
4.7789e-31
2.72565e-33
1.36216e-35
6.01755e-38
2.37057e-40
8.34873e-43
2.64485e-45
7.56457e-48
1.9618e-50
4.61894e-53
9.87698e-56
1.90932e-58
3.3357e-61
5.27637e-64
1.69849e-66
3.2977e-67
1.11524e-67
4.28191e-68
1.87515e-68
9.47865e-69
5.85462e-69
5.34088e-69
2.46705e-69
7.43352e-72
1.69085e-71
1.54446e-71
2.3968e-71
4.68541e-71
1.07227e-70
2.85813e-70
8.78551e-70
2.98953e-69
1.08775e-68
4.3058e-68
1.80533e-67
8.25335e-67
8.25216e-65
3.07668e-62
1.5554e-59
9.38006e-57
6.905e-54
5.5514e-50
1.81216e-46
2.29772e-40
1.67025e-37
1.3885e-33
9.21501e-31
2.97185e-28
7.15921e-26
1.15723e-23
1.36192e-21
1.2907e-19
1.42122e-17
7.9701e-16
2.32216e-14
3.19186e-13
1.65483e-12
2.65129e-12
2.70563e-12
1.93453e-12
1.52705e-11
6.0247e-11
5.46105e-11
1.26568e-11
2.27353e-10
6.79193e-10
5.24431e-10
6.10402e-12
7.8174e-12
1.12168e-12
1.88882e-13
1.20463e-14
3.40123e-16
6.74719e-18
1.21098e-19
1.78626e-21
2.13332e-23
2.10178e-25
1.73424e-27
1.21406e-29
7.30736e-32
3.81549e-34
1.74596e-36
7.07238e-39
2.55848e-41
8.30657e-44
2.42896e-46
6.406e-49
1.53125e-51
3.32025e-54
6.51548e-57
1.15575e-59
1.83388e-62
2.62104e-65
4.28525e-68
3.71576e-69
1.23396e-69
4.67955e-70
2.02874e-70