/*--------------------------------*- C++ -*----------------------------------*\
| =========                 |                                                 |
| \\      /  F ield         | OpenFOAM: The Open Source CFD Toolbox           |
|  \\    /   O peration     | Version:  2412                                  |
|   \\  /    A nd           | Website:  www.openfoam.com                      |
|    \\/     M anipulation  |                                                 |
\*---------------------------------------------------------------------------*/
FoamFile
{
    version     2.0;
    format      ascii;
    arch        "LSB;label=32;scalar=64";
    class       surfaceScalarField;
    location    "5.5";
    object      phi;
}
// * * * * * * * * * * * * * * * * * * * * * * * * * * * * * * * * * * * * * //

dimensions      [0 3 -1 0 0 0 0];

oriented        oriented;

internalField   nonuniform List<scalar> 
12640
(
3.90999e-13
-3.90765e-13
-2.19698e-13
6.64016e-13
-1.40184e-12
1.23093e-12
-3.48445e-12
2.12527e-12
-6.15114e-12
2.70835e-12
-9.36477e-12
3.25174e-12
-1.30025e-11
3.67429e-12
-1.69237e-11
3.953e-12
-2.10354e-11
4.14111e-12
-2.52927e-11
4.28105e-12
-2.96295e-11
4.35756e-12
-3.39944e-11
4.37967e-12
-3.83383e-11
4.35547e-12
-4.26312e-11
4.29881e-12
-4.68359e-11
4.20716e-12
-5.09327e-11
4.09397e-12
-5.48996e-11
3.96044e-12
-5.87229e-11
3.81135e-12
-6.23734e-11
3.634e-12
-6.58147e-11
3.41826e-12
-6.8993e-11
3.14895e-12
-7.18529e-11
2.8221e-12
-7.43316e-11
2.43174e-12
-7.63677e-11
1.9777e-12
-7.78963e-11
1.45758e-12
-7.88534e-11
8.71175e-13
-7.9172e-11
2.16285e-13
-7.87863e-11
-5.06342e-13
-7.76326e-11
-1.294e-12
-7.56545e-11
-2.13956e-12
-7.28055e-11
-3.03231e-12
-6.90543e-11
-3.95704e-12
-6.43881e-11
-4.89481e-12
-5.88158e-11
-5.8234e-12
-5.23705e-11
-6.71836e-12
-4.51108e-11
-7.55394e-12
-3.71208e-11
-8.30417e-12
-2.85093e-11
-8.9443e-12
-1.94067e-11
-9.45231e-12
-9.96116e-12
-9.81034e-12
-3.32868e-13
-1.0006e-11
9.31176e-12
-1.00329e-11
1.88068e-11
-9.8912e-12
2.79931e-11
-9.58719e-12
3.67238e-11
-9.1331e-12
4.48692e-11
-8.54571e-12
5.23208e-11
-7.84579e-12
5.89928e-11
-7.05616e-12
6.48234e-11
-6.20094e-12
6.97744e-11
-5.30344e-12
7.38283e-11
-4.38548e-12
7.69869e-11
-3.46617e-12
7.92667e-11
-2.56174e-12
8.06981e-11
-1.68591e-12
8.13192e-11
-8.48847e-13
8.11777e-11
-5.92029e-14
8.03218e-11
6.79343e-13
7.88065e-11
1.36196e-12
7.66815e-11
1.98979e-12
7.40055e-11
2.55793e-12
7.08268e-11
3.07091e-12
6.72074e-11
3.52233e-12
6.31916e-11
3.9216e-12
5.88447e-11
4.25832e-12
5.42088e-11
4.54441e-12
4.93588e-11
4.76167e-12
4.43371e-11
4.92699e-12
3.92276e-11
5.018e-12
3.40703e-11
5.05874e-12
2.89572e-11
5.01958e-12
2.39324e-11
4.92543e-12
1.91034e-11
4.73701e-12
1.45328e-11
4.47516e-12
1.03545e-11
4.09169e-12
6.66415e-12
3.60231e-12
3.62395e-12
2.96077e-12
1.35924e-12
2.18573e-12
1.89408e-14
1.26809e-12
-3.48366e-13
2.94864e-13
-4.19608e-13
-2.84405e-13
-5.39143e-14
-2.264e-12
2.7461e-12
-6.08962e-12
5.15124e-12
-1.17021e-11
7.8275e-12
-1.88224e-11
9.91203e-12
-2.7201e-11
1.1711e-11
-3.66026e-11
1.31477e-11
-4.6758e-11
1.41756e-11
-5.74633e-11
1.49028e-11
-6.85357e-11
1.54042e-11
-7.98363e-11
1.56975e-11
-9.12165e-11
1.57935e-11
-1.02574e-10
1.57357e-11
-1.13805e-10
1.55464e-11
-1.24836e-10
1.52445e-11
-1.35585e-10
1.48431e-11
-1.45993e-10
1.43581e-11
-1.55983e-10
1.37809e-11
-1.65476e-10
1.30926e-11
-1.74361e-10
1.22561e-11
-1.8252e-10
1.12408e-11
-1.89808e-10
1.00222e-11
-1.96077e-10
8.58672e-12
-2.01167e-10
6.9225e-12
-2.04913e-10
5.02317e-12
-2.07145e-10
2.88367e-12
-2.07697e-10
5.02932e-13
-2.06401e-10
-2.11455e-12
-2.03106e-10
-4.95398e-12
-1.97676e-10
-7.98838e-12
-1.90005e-10
-1.11772e-11
-1.80026e-10
-1.44661e-11
-1.67717e-10
-1.77885e-11
-1.53111e-10
-2.10669e-11
-1.36301e-10
-2.42166e-11
-1.17441e-10
-2.71482e-11
-9.67489e-11
-2.97726e-11
-7.4501e-11
-3.20049e-11
-5.10269e-11
-3.37698e-11
-2.6698e-11
-3.50066e-11
-1.91578e-12
-3.56727e-11
2.29042e-11
-3.57469e-11
4.73469e-11
-3.52297e-11
7.10139e-11
-3.41434e-11
9.35363e-11
-3.253e-11
1.14588e-10
-3.04486e-11
1.33892e-10
-2.79704e-11
1.5123e-10
-2.51758e-11
1.66441e-10
-2.21475e-11
1.79419e-10
-1.89675e-11
1.90115e-10
-1.57112e-11
1.98522e-10
-1.24467e-11
2.04678e-10
-9.23149e-12
2.08648e-10
-6.11393e-12
2.10528e-10
-3.13171e-12
2.10428e-10
-3.12849e-13
2.08475e-10
2.32404e-12
2.04796e-10
4.76791e-12
1.99534e-10
7.01098e-12
1.9282e-10
9.0506e-12
1.84808e-10
1.08827e-11
1.75623e-10
1.25118e-11
1.65424e-10
1.39346e-11
1.54334e-10
1.51578e-11
1.42524e-10
1.61686e-11
1.30117e-10
1.69722e-11
1.17303e-10
1.755e-11
1.04203e-10
1.79146e-11
9.10253e-11
1.80417e-11
7.78979e-11
1.79417e-11
6.50576e-11
1.75747e-11
5.2654e-11
1.69413e-11
4.09671e-11
1.59802e-11
3.01966e-11
1.46741e-11
2.0673e-11
1.29546e-11
1.26418e-11
1.08164e-11
6.43139e-12
8.23579e-12
2.25626e-12
5.28428e-12
2.27834e-13
2.18063e-12
-2.56371e-13
-1.19926e-12
1.19404e-12
-4.87036e-12
6.50769e-12
-1.12448e-11
1.16117e-11
-2.00503e-11
1.67111e-11
-3.09392e-11
2.08764e-11
-4.3612e-11
2.44523e-11
-5.77306e-11
2.7331e-11
-7.29631e-11
2.94635e-11
-8.90034e-11
3.09935e-11
-1.05616e-10
3.2057e-11
-1.22567e-10
3.26831e-11
-1.39669e-10
3.29193e-11
-1.5674e-10
3.28258e-11
-1.73654e-10
3.24681e-11
-1.90276e-10
3.18686e-11
-2.06496e-10
3.10547e-11
-2.22186e-10
3.00316e-11
-2.37226e-10
2.87914e-11
-2.51469e-10
2.72947e-11
-2.64761e-10
2.54911e-11
-2.76916e-10
2.33217e-11
-2.87733e-10
2.07433e-11
-2.96988e-10
1.77214e-11
-3.04448e-10
1.42319e-11
-3.09863e-10
1.02563e-11
-3.12983e-10
5.78531e-12
-3.13557e-10
8.1866e-13
-3.11343e-10
-4.62918e-12
-3.06117e-10
-1.05237e-11
-2.97689e-10
-1.68059e-11
-2.85911e-10
-2.33902e-11
-2.70692e-10
-3.01646e-11
-2.52011e-10
-3.69923e-11
-2.29925e-10
-4.37161e-11
-2.0458e-10
-5.01635e-11
-1.76212e-10
-5.61536e-11
-1.45148e-10
-6.15057e-11
-1.11801e-10
-6.60485e-11
-7.66614e-11
-6.96303e-11
-4.02794e-11
-7.21287e-11
-3.24893e-12
-7.34584e-11
3.38152e-11
-7.35769e-11
7.03006e-11
-7.24863e-11
1.05619e-10
-7.02328e-11
1.39226e-10
-6.69029e-11
1.7064e-10
-6.26168e-11
1.99455e-10
-5.75215e-11
2.25348e-10
-5.17795e-11
2.48081e-10
-4.55606e-11
2.67501e-10
-3.903e-11
2.8353e-10
-3.23427e-11
2.96162e-10
-2.56355e-11
3.05449e-10
-1.90275e-11
3.1149e-10
-1.26157e-11
3.14423e-10
-6.47817e-12
3.14413e-10
-6.70736e-13
3.11644e-10
4.76725e-12
3.06313e-10
9.81133e-12
2.9862e-10
1.4446e-11
2.88779e-10
1.86617e-11
2.76993e-10
2.24564e-11
2.63482e-10
2.58282e-11
2.48443e-10
2.87832e-11
2.32109e-10
3.13131e-11
2.14675e-10
3.34193e-11
1.96391e-10
3.50813e-11
1.77453e-10
3.63037e-11
1.58133e-10
3.70596e-11
1.38635e-10
3.73548e-11
1.1926e-10
3.71442e-11
1.00234e-10
3.6421e-11
8.18983e-11
3.51111e-11
6.45257e-11
3.3182e-11
4.85153e-11
3.05296e-11
3.41967e-11
2.71143e-11
2.19885e-11
2.28797e-11
1.22101e-11
1.78677e-11
5.22265e-12
1.21363e-11
1.1625e-12
6.10335e-12
8.47101e-13
-1.97293e-12
3.21246e-12
-7.40255e-12
1.20213e-11
-1.61415e-11
2.0429e-11
-2.7801e-11
2.84442e-11
-4.19913e-11
3.51339e-11
-5.83152e-11
4.08407e-11
-7.64049e-11
4.5477e-11
-9.58679e-11
4.89788e-11
-1.16356e-10
5.15246e-11
-1.37551e-10
5.32895e-11
-1.59195e-10
5.43552e-11
-1.81035e-10
5.47824e-11
-2.02873e-10
5.4676e-11
-2.24516e-10
5.41187e-11
-2.45817e-10
5.31659e-11
-2.66608e-10
5.1835e-11
-2.86731e-10
5.01325e-11
-3.06003e-10
4.80303e-11
-3.2424e-10
4.5482e-11
-3.41226e-10
4.24125e-11
-3.56734e-10
3.87442e-11
-3.70503e-10
3.4404e-11
-3.82254e-10
2.93362e-11
-3.91684e-10
2.34952e-11
-3.98479e-10
1.68499e-11
-4.02314e-10
9.38284e-12
-4.02869e-10
1.09637e-12
-3.99835e-10
-7.9812e-12
-3.9293e-10
-1.7788e-11
-3.81914e-10
-2.82223e-11
-3.66605e-10
-3.91407e-11
-3.46891e-10
-5.03566e-11
-3.22754e-10
-6.16443e-11
-2.94272e-10
-7.27447e-11
-2.61637e-10
-8.33741e-11
-2.25156e-10
-9.32355e-11
-1.85254e-10
-1.02032e-10
-1.42463e-10
-1.09482e-10
-9.74161e-11
-1.15337e-10
-5.08215e-11
-1.19397e-10
-3.44327e-12
-1.21523e-10
4.39295e-11
-1.21645e-10
9.05111e-11
-1.19771e-10
1.35549e-10
-1.15978e-10
1.7835e-10
-1.10412e-10
2.18304e-10
-1.03275e-10
2.54899e-10
-9.4812e-11
2.8773e-10
-8.52935e-11
3.16505e-10
-7.49995e-11
3.4104e-10
-6.42043e-11
3.61251e-10
-5.31608e-11
3.77138e-10
-4.2096e-11
3.8878e-10
-3.12023e-11
3.96313e-10
-2.06402e-11
3.9992e-10
-1.05327e-11
3.99815e-10
-9.72547e-13
3.9624e-10
7.97899e-12
3.89445e-10
1.628e-11
3.79694e-10
2.39062e-11
3.67249e-10
3.08435e-11
3.52383e-10
3.70867e-11
3.35351e-10
4.26389e-11
3.16435e-10
4.74982e-11
2.95884e-10
5.16666e-11
2.73992e-10
5.51276e-11
2.51006e-10
5.78789e-11
2.27242e-10
5.98919e-11
2.02953e-10
6.11652e-11
1.78483e-10
6.1654e-11
1.54099e-10
6.13482e-11
1.30186e-10
6.01702e-11
1.07047e-10
5.8079e-11
8.51198e-11
5.49536e-11
6.4766e-11
5.07225e-11
4.64718e-11
4.5263e-11
3.06269e-11
3.8575e-11
1.77033e-11
3.06559e-11
8.06523e-12
2.16385e-11
2.0566e-12
1.19822e-11
2.84414e-12
-2.61257e-12
5.87013e-12
-9.56978e-12
1.90557e-11
-2.04379e-11
3.1373e-11
-3.46676e-11
4.27421e-11
-5.17611e-11
5.22933e-11
-7.12753e-11
6.04136e-11
-9.27776e-11
6.70349e-11
-1.15865e-10
7.21134e-11
-1.4012e-10
7.58224e-11
-1.65202e-10
7.84047e-11
-1.908e-10
7.99831e-11
-2.16661e-10
8.06622e-11
-2.42532e-10
8.0561e-11
-2.6821e-10
7.98003e-11
-2.93493e-10
7.8445e-11
-3.182e-10
7.65263e-11
-3.42123e-10
7.40297e-11
-3.65054e-10
7.09198e-11
-3.86753e-10
6.71236e-11
-4.0697e-10
6.25516e-11
-4.25424e-10
5.70969e-11
-4.4181e-10
5.06617e-11
-4.55792e-10
4.31586e-11
-4.6701e-10
3.45195e-11
-4.75083e-10
2.46938e-11
-4.79625e-10
1.36554e-11
-4.80246e-10
1.40874e-12
-4.76575e-10
-1.20011e-11
-4.68271e-10
-2.64787e-11
-4.55047e-10
-4.18716e-11
-4.36681e-10
-5.79654e-11
-4.13042e-10
-7.44846e-11
-3.84105e-10
-9.10963e-11
-3.49967e-10
-1.07419e-10
-3.1086e-10
-1.23035e-10
-2.67157e-10
-1.37508e-10
-2.19371e-10
-1.50398e-10
-1.68152e-10
-1.61291e-10
-1.14268e-10
-1.69819e-10
-5.85814e-11
-1.75689e-10
-2.02232e-12
-1.78695e-10
5.445e-11
-1.78739e-10
1.09884e-10
-1.75835e-10
1.6337e-10
-1.70104e-10
2.14078e-10
-1.61768e-10
2.6128e-10
-1.51134e-10
3.04377e-10
-1.38568e-10
3.42902e-10
-1.24478e-10
3.7653e-10
-1.09281e-10
4.05065e-10
-9.33809e-11
4.28434e-10
-7.71536e-11
4.46667e-10
-6.09278e-11
4.59882e-10
-4.49861e-11
4.68264e-10
-2.95551e-11
4.72048e-10
-1.48133e-11
4.71509e-10
-8.87087e-13
4.66939e-10
1.21341e-11
4.58651e-10
2.41964e-11
4.46956e-10
3.52647e-11
4.32176e-10
4.53244e-11
4.14617e-10
5.43718e-11
3.94603e-10
6.24097e-11
3.72429e-10
6.94441e-11
3.48421e-10
7.54686e-11
3.22866e-10
8.04815e-11
2.96103e-10
8.44579e-11
2.68418e-10
8.73904e-11
2.40176e-10
8.92347e-11
2.11675e-10
8.99774e-11
1.83315e-10
8.95461e-11
1.55416e-10
8.78999e-11
1.2843e-10
8.49115e-11
1.02727e-10
8.04953e-11
7.88183e-11
7.44869e-11
5.71192e-11
6.68111e-11
3.81808e-11
5.73757e-11
2.24722e-11
4.62238e-11
1.05144e-11
3.34679e-11
2.79812e-12
1.95658e-11
5.58574e-12
-3.11578e-12
9.02905e-12
-1.14053e-11
2.74185e-11
-2.41444e-11
4.41823e-11
-4.06514e-11
5.93156e-11
-6.03418e-11
7.20441e-11
-8.26767e-11
8.2807e-11
-1.07194e-10
9.16037e-11
-1.33435e-10
9.84026e-11
-1.60972e-10
1.034e-10
-1.89405e-10
1.06873e-10
-2.18428e-10
1.09033e-10
-2.47748e-10
1.10004e-10
-2.77118e-10
1.09944e-10
-3.0629e-10
1.08978e-10
-3.35055e-10
1.07203e-10
-3.63187e-10
1.04642e-10
-3.90469e-10
1.01279e-10
-4.16649e-10
9.70517e-11
-4.41466e-10
9.18708e-11
-4.64621e-10
8.56141e-11
-4.85797e-10
7.81519e-11
-5.04638e-10
6.93504e-11
-5.20758e-10
5.90918e-11
-5.33739e-10
4.72759e-11
-5.43139e-10
3.38304e-11
-5.48503e-10
1.8716e-11
-5.49376e-10
1.93802e-12
-5.45317e-10
-1.64403e-11
-5.35923e-10
-3.62867e-11
-5.20849e-10
-5.73894e-11
-4.9983e-10
-7.94533e-11
-4.72704e-10
-1.02099e-10
-4.39432e-10
-1.24868e-10
-4.00123e-10
-1.47236e-10
-3.5504e-10
-1.68627e-10
-3.04619e-10
-1.88437e-10
-2.49461e-10
-2.0606e-10
-1.90335e-10
-2.20918e-10
-1.28149e-10
-2.32503e-10
-6.39306e-11
-2.40403e-10
1.21441e-12
-2.44339e-10
6.61465e-11
-2.44177e-10
1.29738e-10
-2.39943e-10
1.90918e-10
-2.31816e-10
2.48718e-10
-2.20118e-10
3.02299e-10
-2.05284e-10
3.50982e-10
-1.8784e-10
3.94257e-10
-1.68357e-10
4.31781e-10
-1.47422e-10
4.63373e-10
-1.25597e-10
4.88995e-10
-1.03396e-10
5.08726e-10
-8.12718e-11
5.22746e-10
-5.95994e-11
5.31304e-10
-3.86839e-11
5.34706e-10
-1.87527e-11
5.33289e-10
2.72017e-14
5.27413e-10
1.75493e-11
5.17443e-10
3.37434e-11
5.03753e-10
4.8576e-11
4.86702e-10
6.20317e-11
4.66655e-10
7.41149e-11
4.43952e-10
8.4836e-11
4.18949e-10
9.42035e-11
3.91965e-10
1.02224e-10
3.63357e-10
1.08887e-10
3.33433e-10
1.14186e-10
3.02565e-10
1.18082e-10
2.71061e-10
1.2056e-10
2.39326e-10
1.21553e-10
2.07683e-10
1.21024e-10
1.76583e-10
1.18851e-10
1.4639e-10
1.14948e-10
1.17619e-10
1.09126e-10
9.06879e-11
1.0127e-10
6.61593e-11
9.12056e-11
4.45352e-11
7.88591e-11
2.64601e-11
6.417e-11
1.25055e-11
4.72916e-11
3.38968e-12
2.85553e-11
8.91967e-12
-3.52764e-12
1.25987e-11
-1.29573e-11
3.69141e-11
-2.7362e-11
5.86544e-11
-4.59218e-11
7.79359e-11
-6.79559e-11
9.41373e-11
-9.28542e-11
1.07759e-10
-1.20076e-10
1.18877e-10
-1.49146e-10
1.27517e-10
-1.79588e-10
1.33883e-10
-2.10997e-10
1.38316e-10
-2.43024e-10
1.4109e-10
-2.75398e-10
1.42399e-10
-3.0784e-10
1.42401e-10
-3.40114e-10
1.41256e-10
-3.71972e-10
1.39055e-10
-4.03189e-10
1.35837e-10
-4.33511e-10
1.31564e-10
-4.62679e-10
1.26161e-10
-4.90394e-10
1.19504e-10
-5.16336e-10
1.11445e-10
-5.4014e-10
1.01813e-10
-5.6141e-10
9.0441e-11
-5.79705e-10
7.71699e-11
-5.94551e-10
6.18647e-11
-6.05441e-10
4.44225e-11
-6.11849e-10
2.47861e-11
-6.13243e-10
2.95824e-12
-6.09108e-10
-2.09817e-11
-5.98965e-10
-4.68616e-11
-5.824e-10
-7.44057e-11
-5.59088e-10
-1.03227e-10
-5.28824e-10
-1.32828e-10
-4.91543e-10
-1.62607e-10
-4.47352e-10
-1.91875e-10
-3.96542e-10
-2.19868e-10
-3.39603e-10
-2.45786e-10
-2.77231e-10
-2.6882e-10
-2.10316e-10
-2.882e-10
-1.39928e-10
-3.03241e-10
-6.72767e-11
-3.13393e-10
6.33249e-12
-3.18282e-10
7.95539e-11
-3.17736e-10
1.51062e-10
-3.11801e-10
2.19607e-10
-3.00733e-10
2.8407e-10
-2.84981e-10
3.435e-10
-2.65148e-10
3.97144e-10
-2.41955e-10
4.44459e-10
-2.16181e-10
4.85111e-10
-1.88617e-10
5.18956e-10
-1.60013e-10
5.46019e-10
-1.3105e-10
5.66456e-10
-1.02309e-10
5.80532e-10
-7.42761e-11
5.88584e-10
-4.7325e-11
5.91002e-10
-2.17401e-11
5.88204e-10
2.28708e-12
5.80619e-10
2.46282e-11
5.68683e-10
4.52161e-11
5.52817e-10
6.40163e-11
5.3344e-10
8.10301e-11
5.1094e-10
9.62714e-11
4.8571e-10
1.09766e-10
4.58103e-10
1.21538e-10
4.28494e-10
1.31597e-10
3.97208e-10
1.39953e-10
3.64619e-10
1.46583e-10
3.31041e-10
1.51474e-10
2.96866e-10
1.54572e-10
2.62411e-10
1.55844e-10
2.28107e-10
1.55182e-10
1.94305e-10
1.52502e-10
1.615e-10
1.47618e-10
1.301e-10
1.40384e-10
1.00668e-10
1.30574e-10
7.36903e-11
1.18047e-10
4.98223e-11
1.02602e-10
2.97015e-11
8.41597e-11
1.41056e-11
6.27665e-11
3.83902e-12
3.86945e-11
1.27069e-11
-3.88759e-12
1.65253e-11
-1.43118e-11
4.74001e-11
-3.02239e-11
7.46269e-11
-5.06653e-11
9.84357e-11
-7.48826e-11
1.18408e-10
-1.02151e-10
1.35079e-10
-1.31875e-10
1.48648e-10
-1.63516e-10
1.59203e-10
-1.96602e-10
1.67007e-10
-2.30683e-10
1.72434e-10
-2.65418e-10
1.75853e-10
-3.00509e-10
1.77513e-10
-3.35712e-10
1.77617e-10
-3.70767e-10
1.76315e-10
-4.05441e-10
1.73719e-10
-4.39482e-10
1.69852e-10
-4.7264e-10
1.64676e-10
-5.04628e-10
1.5808e-10
-5.35138e-10
1.49915e-10
-5.63811e-10
1.39989e-10
-5.90258e-10
1.28093e-10
-6.14033e-10
1.1401e-10
-6.34648e-10
9.75378e-11
-6.51566e-10
7.84941e-11
-6.64211e-10
5.67384e-11
-6.71976e-10
3.21867e-11
-6.74246e-10
4.8318e-12
-6.70413e-10
-2.52338e-11
-6.59908e-10
-5.78001e-11
-6.42228e-10
-9.25222e-11
-6.16971e-10
-1.28914e-10
-5.83867e-10
-1.66345e-10
-5.42809e-10
-2.04051e-10
-4.93886e-10
-2.4115e-10
-4.37403e-10
-2.76663e-10
-3.73904e-10
-3.09554e-10
-3.0418e-10
-3.38772e-10
-2.2926e-10
-3.63308e-10
-1.50395e-10
-3.82262e-10
-6.90114e-11
-3.94909e-10
1.33472e-11
-4.0076e-10
9.50912e-11
-3.99599e-10
1.7466e-10
-3.91502e-10
2.50598e-10
-3.7683e-10
3.21614e-10
-3.56194e-10
3.86636e-10
-3.30417e-10
4.4484e-10
-3.00463e-10
4.95666e-10
-2.67372e-10
5.38811e-10
-2.32185e-10
5.74199e-10
-1.9588e-10
6.0195e-10
-1.59324e-10
6.22332e-10
-1.2325e-10
6.35723e-10
-8.82453e-11
6.42574e-10
-5.47623e-11
6.43377e-10
-2.3122e-11
6.38645e-10
6.45544e-12
6.28895e-10
3.38457e-11
6.14629e-10
5.89816e-11
5.96333e-10
8.18546e-11
5.74465e-10
1.0248e-10
5.49463e-10
1.20904e-10
5.21727e-10
1.37169e-10
4.91656e-10
1.51321e-10
4.596e-10
1.63393e-10
4.25935e-10
1.73396e-10
3.90977e-10
1.81334e-10
3.55104e-10
1.87171e-10
3.18619e-10
1.90886e-10
2.81924e-10
1.92392e-10
2.45341e-10
1.91615e-10
2.09328e-10
1.88384e-10
1.74261e-10
1.82548e-10
1.4068e-10
1.73843e-10
1.09049e-10
1.62073e-10
8.00178e-11
1.46959e-10
5.41797e-11
1.28312e-10
3.23584e-11
1.05863e-10
1.53632e-11
7.96403e-11
4.18442e-12
4.97535e-11
1.68412e-11
-4.20508e-12
2.07673e-11
-1.55398e-11
5.87888e-11
-3.28512e-11
9.19955e-11
-5.50861e-11
1.20722e-10
-8.13837e-11
1.44757e-10
-1.10921e-10
1.64663e-10
-1.42993e-10
1.80767e-10
-1.77035e-10
1.93287e-10
-2.12535e-10
2.02547e-10
-2.49067e-10
2.08999e-10
-2.86253e-10
2.13069e-10
-3.2382e-10
2.15101e-10
-3.61512e-10
2.15323e-10
-3.99111e-10
2.13914e-10
-4.3637e-10
2.10966e-10
-4.73057e-10
2.06507e-10
-5.08903e-10
2.00468e-10
-5.43626e-10
1.9272e-10
-5.7689e-10
1.83067e-10
-6.08328e-10
1.71276e-10
-6.37509e-10
1.57084e-10
-6.63954e-10
1.40224e-10
-6.87119e-10
1.2043e-10
-7.06407e-10
9.74672e-11
-7.21162e-10
7.11428e-11
-7.30691e-10
4.13343e-11
-7.34276e-10
8.01469e-12
-7.31202e-10
-2.87206e-11
-7.20787e-10
-6.86264e-11
-7.02415e-10
-1.1129e-10
-6.75579e-10
-1.56116e-10
-6.3992e-10
-2.0233e-10
-5.95265e-10
-2.48982e-10
-5.41662e-10
-2.94968e-10
-4.79419e-10
-3.39059e-10
-4.09123e-10
-3.79938e-10
-3.31662e-10
-4.16259e-10
-2.48225e-10
-4.46716e-10
-1.60275e-10
-4.70135e-10
-6.95018e-11
-4.85571e-10
2.22595e-11
-4.92388e-10
1.13119e-10
-4.9032e-10
2.01234e-10
-4.7949e-10
2.84897e-10
-4.60395e-10
3.6262e-10
-4.33866e-10
4.33192e-10
-4.01001e-10
4.95723e-10
-3.63081e-10
5.49651e-10
-3.2147e-10
5.94732e-10
-2.77524e-10
6.30999e-10
-2.32489e-10
6.58709e-10
-1.87451e-10
6.78278e-10
-1.43298e-10
6.90233e-10
-1.00727e-10
6.95164e-10
-6.02474e-11
6.93691e-10
-2.22182e-11
6.8644e-10
1.31441e-11
6.7402e-10
4.57171e-11
6.57014e-10
7.54696e-11
6.35969e-10
1.02415e-10
6.11394e-10
1.26617e-10
5.83751e-10
1.48147e-10
5.53481e-10
1.67091e-10
5.20969e-10
1.8352e-10
4.86602e-10
1.97493e-10
4.50709e-10
2.09048e-10
4.13652e-10
2.18189e-10
3.75722e-10
2.24913e-10
3.37286e-10
2.29164e-10
2.98635e-10
2.3089e-10
2.60175e-10
2.29945e-10
2.22231e-10
2.26194e-10
1.85291e-10
2.19371e-10
1.49768e-10
2.09241e-10
1.16283e-10
1.95447e-10
8.53933e-11
1.77728e-10
5.78789e-11
1.55716e-10
3.45433e-11
1.29081e-10
1.63861e-11
9.76876e-11
4.44238e-12
6.15793e-11
2.12384e-11
-4.49951e-12
2.53e-11
-1.66975e-11
7.1037e-11
-3.53871e-11
1.10735e-10
-5.93867e-11
1.44771e-10
-8.77469e-11
1.73162e-10
-1.1949e-10
1.96452e-10
-1.5383e-10
2.15147e-10
-1.90125e-10
2.29624e-10
-2.27873e-10
2.40331e-10
-2.66631e-10
2.47793e-10
-3.06063e-10
2.52529e-10
-3.45875e-10
2.54936e-10
-3.85853e-10
2.55313e-10
-4.25779e-10
2.5384e-10
-4.65451e-10
2.5062e-10
-5.04629e-10
2.45649e-10
-5.4307e-10
2.38845e-10
-5.80474e-10
2.30032e-10
-6.16514e-10
2.18977e-10
-6.50793e-10
2.05388e-10
-6.82864e-10
1.88947e-10
-7.12206e-10
1.69315e-10
-7.38227e-10
1.46159e-10
-7.60259e-10
1.1917e-10
-7.77567e-10
8.80911e-11
-7.89356e-10
5.27435e-11
-7.94793e-10
1.30628e-11
-7.9303e-10
-3.08652e-11
-7.83245e-10
-7.87723e-11
-7.64679e-10
-1.30178e-10
-7.36688e-10
-1.84377e-10
-6.98789e-10
-2.40432e-10
-6.50711e-10
-2.97188e-10
-5.92435e-10
-3.5329e-10
-5.24244e-10
-4.07211e-10
-4.46757e-10
-4.57302e-10
-3.60963e-10
-5.01853e-10
-2.68228e-10
-5.39184e-10
-1.70273e-10
-5.67766e-10
-6.91118e-11
-5.86363e-10
3.30539e-11
-5.94157e-10
1.33962e-10
-5.90821e-10
2.31417e-10
-5.76545e-10
3.23408e-10
-5.52014e-10
4.0821e-10
-5.18345e-10
4.84459e-10
-4.76997e-10
5.51195e-10
-4.29651e-10
6.07878e-10
-3.78092e-10
6.54363e-10
-3.24058e-10
6.90844e-10
-2.69131e-10
7.17763e-10
-2.14638e-10
7.35736e-10
-1.61633e-10
7.45474e-10
-1.10903e-10
7.47741e-10
-6.30087e-11
7.43303e-10
-1.83081e-11
7.32916e-10
2.29872e-11
7.17293e-10
6.08012e-11
6.97104e-10
9.5135e-11
6.72959e-10
1.26069e-10
6.45412e-10
1.53707e-10
6.14964e-10
1.78185e-10
5.82059e-10
1.99625e-10
5.47111e-10
2.18148e-10
5.10474e-10
2.33845e-10
4.72504e-10
2.46779e-10
4.33491e-10
2.56987e-10
3.93766e-10
2.64461e-10
3.53589e-10
2.69176e-10
3.1331e-10
2.71031e-10
2.73199e-10
2.6992e-10
2.3367e-10
2.65609e-10
1.95059e-10
2.57863e-10
1.57907e-10
2.46289e-10
1.22711e-10
2.3053e-10
9.02069e-11
2.1013e-10
6.1122e-11
1.84689e-10
3.64584e-11
1.53642e-10
1.7233e-11
1.16806e-10
4.65041e-12
7.40541e-11
2.58471e-11
-4.78868e-12
3.01197e-11
-1.78695e-11
8.41609e-11
-3.7995e-11
1.30908e-10
-6.38199e-11
1.70639e-10
-9.42601e-11
2.03646e-10
-1.28219e-10
2.30451e-10
-1.64755e-10
2.51725e-10
-2.03202e-10
2.68108e-10
-2.43021e-10
2.80187e-10
-2.83815e-10
2.8862e-10
-3.25256e-10
2.93999e-10
-3.67106e-10
2.96807e-10
-4.09151e-10
2.97371e-10
-4.51225e-10
2.95911e-10
-4.93135e-10
2.9251e-10
-5.34687e-10
2.87157e-10
-5.75635e-10
2.79722e-10
-6.15705e-10
2.69998e-10
-6.54556e-10
2.57688e-10
-6.91794e-10
2.42446e-10
-7.26946e-10
2.23877e-10
-7.59462e-10
2.01567e-10
-7.88698e-10
1.75095e-10
-8.13922e-10
1.44063e-10
-8.34308e-10
1.08127e-10
-8.48952e-10
6.70293e-11
-8.56884e-10
2.06455e-11
-8.57101e-10
-3.09722e-11
-8.48605e-10
-8.75468e-11
-8.30457e-10
-1.48542e-10
-8.01834e-10
-2.13138e-10
-7.62089e-10
-2.80227e-10
-7.10807e-10
-3.48422e-10
-6.47864e-10
-4.16084e-10
-5.73485e-10
-4.81343e-10
-4.88297e-10
-5.4215e-10
-3.93384e-10
-5.96344e-10
-2.90313e-10
-6.41761e-10
-1.81121e-10
-6.76405e-10
-6.8231e-11
-6.98656e-10
4.56924e-11
-7.07454e-10
1.57914e-10
-7.024e-10
2.65799e-10
-6.83788e-10
3.66965e-10
-6.52558e-10
4.59405e-10
-6.10204e-10
5.41575e-10
-5.58651e-10
6.12454e-10
-5.00104e-10
6.71551e-10
-4.36874e-10
7.18878e-10
-3.71198e-10
7.54853e-10
-3.05053e-10
7.80178e-10
-2.40046e-10
7.9572e-10
-1.77382e-10
8.02423e-10
-1.17922e-10
8.01246e-10
-6.22311e-11
7.93132e-10
-1.06555e-11
7.78972e-10
3.66518e-11
7.596e-10
7.96616e-11
7.35769e-10
1.18463e-10
7.08158e-10
1.53194e-10
6.77365e-10
1.8405e-10
6.43916e-10
2.11217e-10
6.08277e-10
2.34896e-10
5.70845e-10
2.55248e-10
5.3199e-10
2.72419e-10
4.92012e-10
2.86507e-10
4.51221e-10
2.97572e-10
4.09855e-10
3.0564e-10
3.68209e-10
3.10671e-10
3.26499e-10
3.12598e-10
2.85055e-10
3.11248e-10
2.44128e-10
3.06418e-10
2.04151e-10
2.97741e-10
1.65506e-10
2.84828e-10
1.28829e-10
2.67114e-10
9.47627e-11
2.44095e-10
6.42389e-11
2.1512e-10
3.82436e-11
1.79537e-10
1.80204e-11
1.36936e-10
4.81129e-12
8.71614e-11
3.06229e-11
-5.09233e-12
3.52394e-11
-1.91612e-11
9.82705e-11
-4.0898e-11
1.52687e-10
-6.86944e-11
1.98477e-10
-1.01291e-10
2.36282e-10
-1.37472e-10
2.66671e-10
-1.7617e-10
2.9046e-10
-2.16632e-10
3.08608e-10
-2.58355e-10
3.21944e-10
-3.00952e-10
3.3125e-10
-3.44168e-10
3.37242e-10
-3.87794e-10
3.40455e-10
-4.31687e-10
3.41274e-10
-4.75695e-10
3.39916e-10
-5.19684e-10
3.36476e-10
-5.63473e-10
3.30899e-10
-6.06857e-10
3.23031e-10
-6.49568e-10
3.126e-10
-6.91286e-10
2.99259e-10
-7.31609e-10
2.82583e-10
-7.70059e-10
2.621e-10
-8.06055e-10
2.373e-10
-8.38915e-10
2.07661e-10
-8.6784e-10
1.72674e-10
-8.91914e-10
1.31879e-10
-9.1011e-10
8.49133e-11
-9.21305e-10
3.15568e-11
-9.24311e-10
-2.82015e-11
-9.17918e-10
-9.4107e-11
-9.00959e-10
-1.65582e-10
-8.7238e-10
-2.41698e-10
-8.31314e-10
-3.21164e-10
-7.7715e-10
-4.02347e-10
-7.09603e-10
-4.83282e-10
-6.2879e-10
-5.61707e-10
-5.35309e-10
-6.35094e-10
-4.3032e-10
-7.00722e-10
-3.15618e-10
-7.55794e-10
-1.93627e-10
-7.97681e-10
-6.72972e-11
-8.24237e-10
6.01082e-11
-8.34086e-10
1.85251e-10
-8.26754e-10
3.04947e-10
-8.02687e-10
4.16358e-10
-7.63175e-10
5.1714e-10
-7.10213e-10
6.05552e-10
-6.46333e-10
6.80513e-10
-5.74407e-10
7.4163e-10
-4.97434e-10
7.89142e-10
-4.1828e-10
8.23793e-10
-3.3942e-10
8.46629e-10
-2.62751e-10
8.5884e-10
-1.89614e-10
8.61639e-10
-1.20879e-10
8.56218e-10
-5.70845e-11
8.43699e-10
1.50181e-12
8.25133e-10
5.47942e-11
8.01465e-10
1.02875e-10
7.73545e-10
1.45915e-10
7.4211e-10
1.84174e-10
7.07802e-10
2.1792e-10
6.71171e-10
2.4745e-10
6.32683e-10
2.73017e-10
5.92742e-10
2.94871e-10
5.51679e-10
3.13197e-10
5.09803e-10
3.28147e-10
4.67345e-10
3.39818e-10
4.24561e-10
3.48254e-10
3.81624e-10
3.53453e-10
3.38783e-10
3.55316e-10
2.96204e-10
3.53708e-10
2.54199e-10
3.48327e-10
2.13019e-10
3.38822e-10
1.73143e-10
3.24619e-10
1.35049e-10
3.05116e-10
9.95442e-11
2.79518e-10
6.75063e-11
2.47068e-10
4.01652e-11
2.06795e-10
1.88298e-11
1.58184e-10
4.97462e-12
1.00928e-10
3.55674e-11
-5.46164e-12
4.0727e-11
-2.07372e-11
1.13581e-10
-4.43876e-11
1.76378e-10
-7.44529e-11
2.28579e-10
-1.09325e-10
2.71193e-10
-1.47717e-10
3.05101e-10
-1.88469e-10
3.3125e-10
-2.30784e-10
3.50959e-10
-2.7416e-10
3.65357e-10
-3.18298e-10
3.75421e-10
-3.62986e-10
3.8196e-10
-4.08111e-10
3.85601e-10
-4.53569e-10
3.86743e-10
-4.99285e-10
3.85628e-10
-5.45147e-10
3.82315e-10
-5.91032e-10
3.76736e-10
-6.36752e-10
3.68674e-10
-6.82079e-10
3.57815e-10
-7.26701e-10
3.43733e-10
-7.70237e-10
3.25933e-10
-8.12201e-10
3.03843e-10
-8.52004e-10
2.76851e-10
-8.88926e-10
2.4431e-10
-9.22113e-10
2.05578e-10
-9.50559e-10
1.60052e-10
-9.73112e-10
1.07221e-10
-9.88478e-10
4.67286e-11
-9.95253e-10
-2.15495e-11
-9.91971e-10
-9.74201e-11
-9.77179e-10
-1.80298e-10
-9.49529e-10
-2.69154e-10
-9.07866e-10
-3.62514e-10
-8.51311e-10
-4.58472e-10
-7.79347e-10
-5.54714e-10
-6.9191e-10
-6.48526e-10
-5.89501e-10
-7.36821e-10
-4.73324e-10
-8.16173e-10
-3.45417e-10
-8.8295e-10
-2.08698e-10
-9.33634e-10
-6.68054e-11
-9.65357e-10
7.62136e-11
-9.76325e-10
2.16245e-10
-9.65994e-10
3.49416e-10
-9.35049e-10
4.72335e-10
-8.85264e-10
5.82269e-10
-8.193e-10
6.77254e-10
-7.40473e-10
7.56175e-10
-6.52515e-10
8.18787e-10
-5.59299e-10
8.65673e-10
-4.64523e-10
8.98029e-10
-3.7127e-10
9.17369e-10
-2.81744e-10
9.25273e-10
-1.97335e-10
9.23272e-10
-1.18857e-10
9.12793e-10
-4.6726e-11
8.95161e-10
1.88941e-11
8.71573e-10
7.80598e-11
8.43103e-10
1.30965e-10
8.10677e-10
1.77937e-10
7.75099e-10
2.19339e-10
7.3704e-10
2.55583e-10
6.97068e-10
2.87045e-10
6.5565e-10
3.14098e-10
6.13172e-10
3.37042e-10
5.69958e-10
3.56149e-10
5.26261e-10
3.7161e-10
4.82315e-10
3.83574e-10
4.38275e-10
3.92123e-10
3.9433e-10
3.97264e-10
3.50574e-10
3.98948e-10
3.07206e-10
3.9698e-10
2.64341e-10
3.91096e-10
2.22288e-10
3.80799e-10
1.81315e-10
3.6551e-10
1.42003e-10
3.44359e-10
1.05013e-10
3.16431e-10
7.14245e-11
2.80587e-10
4.24955e-11
2.35649e-10
1.98647e-11
1.80745e-10
5.1817e-12
1.15532e-10
4.07256e-11
-6.00167e-12
4.6752e-11
-2.28875e-11
1.305e-10
-4.89085e-11
2.02435e-10
-8.16563e-11
2.61364e-10
-1.19031e-10
3.08604e-10
-1.59552e-10
3.45661e-10
-2.02142e-10
3.73877e-10
-2.46004e-10
3.94859e-10
-2.90703e-10
4.10091e-10
-3.36004e-10
4.20757e-10
-3.81816e-10
4.27801e-10
-4.28084e-10
4.31893e-10
-4.74803e-10
4.33475e-10
-5.21937e-10
4.32761e-10
-5.69448e-10
4.29803e-10
-6.17237e-10
4.24478e-10
-6.65172e-10
4.16533e-10
-7.13046e-10
4.0558e-10
-7.60588e-10
3.91132e-10
-8.07431e-10
3.72598e-10
-8.53109e-10
3.49313e-10
-8.97029e-10
3.20541e-10
-9.38457e-10
2.85497e-10
-9.76492e-10
2.43378e-10
-1.01005e-09
1.93402e-10
-1.03786e-09
1.34868e-10
-1.05845e-09
6.7223e-11
-1.07016e-09
-9.83351e-12
-1.07122e-09
-9.62396e-11
-1.05984e-09
-1.91445e-10
-1.03428e-09
-2.9435e-10
-9.93016e-10
-4.03291e-10
-9.34815e-10
-5.16084e-10
-8.58826e-10
-6.30035e-10
-7.647e-10
-7.41935e-10
-6.52743e-10
-8.48041e-10
-5.2412e-10
-9.44066e-10
-3.8113e-10
-1.02524e-09
-2.27322e-10
-1.08678e-09
-6.72662e-11
-1.12478e-09
9.39488e-11
-1.13693e-09
2.51209e-10
-1.12264e-09
3.99777e-10
-1.08298e-09
5.35607e-10
-1.02041e-09
6.55523e-10
-9.38463e-10
7.57344e-10
-8.41479e-10
8.39945e-10
-7.34265e-10
9.03316e-10
-6.21825e-10
9.48525e-10
-5.08943e-10
9.77425e-10
-3.99486e-10
9.92136e-10
-2.95914e-10
9.94711e-10
-1.99537e-10
9.87008e-10
-1.1095e-10
9.70702e-10
-3.03805e-11
9.47298e-10
4.21989e-11
9.18151e-10
1.06995e-10
8.84435e-10
1.64396e-10
8.47168e-10
2.1487e-10
8.07189e-10
2.58968e-10
7.65207e-10
2.97212e-10
7.21786e-10
3.30134e-10
6.77394e-10
3.58177e-10
6.32399e-10
3.81762e-10
5.87095e-10
4.01204e-10
5.41721e-10
4.16777e-10
4.96439e-10
4.28672e-10
4.514e-10
4.37016e-10
4.06671e-10
4.41862e-10
3.62358e-10
4.43161e-10
3.18475e-10
4.40769e-10
2.75159e-10
4.3434e-10
2.32483e-10
4.23402e-10
1.90755e-10
4.0718e-10
1.5032e-10
3.84731e-10
1.11935e-10
3.54762e-10
7.65742e-11
3.15887e-10
4.57761e-11
2.66393e-10
2.13878e-11
2.05076e-10
5.55263e-12
1.31304e-10
4.62623e-11
-6.90361e-12
5.36791e-11
-2.61517e-11
1.49776e-10
-5.52094e-11
2.31531e-10
-9.10826e-11
2.9727e-10
-1.31171e-10
3.48731e-10
-1.73727e-10
3.88256e-10
-2.17774e-10
4.17965e-10
-2.62721e-10
4.39845e-10
-3.08239e-10
4.55648e-10
-3.54237e-10
4.66791e-10
-4.00711e-10
4.74309e-10
-4.47728e-10
4.78934e-10
-4.95333e-10
4.81095e-10
-5.43576e-10
4.81002e-10
-5.9245e-10
4.78657e-10
-6.41921e-10
4.73904e-10
-6.91887e-10
4.66426e-10
-7.42196e-10
4.55783e-10
-7.92606e-10
4.41406e-10
-8.42793e-10
4.22618e-10
-8.92316e-10
3.98646e-10
-9.40606e-10
3.68626e-10
-9.86932e-10
3.3162e-10
-1.03038e-09
2.86638e-10
-1.0698e-09
2.32684e-10
-1.10382e-09
1.68811e-10
-1.13078e-09
9.4207e-11
-1.14878e-09
8.29595e-12
-1.15569e-09
-8.90819e-11
-1.14925e-09
-1.97494e-10
-1.12729e-09
-3.15802e-10
-1.08779e-09
-4.42173e-10
-1.02905e-09
-5.74138e-10
-9.49731e-10
-7.0862e-10
-8.49071e-10
-8.41868e-10
-7.27016e-10
-9.69415e-10
-5.8456e-10
-1.08592e-09
-4.24242e-10
-1.18505e-09
-2.50467e-10
-1.26015e-09
-6.9084e-11
-1.30585e-09
1.13412e-10
-1.31917e-09
2.90606e-10
-1.2996e-09
4.56695e-10
-1.24881e-09
6.06857e-10
-1.17023e-09
7.37468e-10
-1.0686e-09
8.46161e-10
-9.49559e-10
9.3188e-10
-8.19245e-10
9.94937e-10
-6.84063e-10
1.03711e-09
-5.50276e-10
1.06117e-09
-4.22754e-10
1.07004e-09
-3.04097e-10
1.06627e-09
-1.95238e-10
1.05205e-09
-9.63664e-11
1.02924e-09
-7.38615e-12
9.99538e-10
7.19334e-11
9.64409e-10
1.42026e-10
9.2514e-10
2.03467e-10
8.82796e-10
2.56957e-10
8.38272e-10
3.03199e-10
7.9227e-10
3.42915e-10
7.45372e-10
3.76735e-10
6.98022e-10
4.05257e-10
6.50576e-10
4.28955e-10
6.03303e-10
4.4826e-10
5.564e-10
4.63485e-10
5.10012e-10
4.74902e-10
4.64205e-10
4.82682e-10