/*--------------------------------*- C++ -*----------------------------------*\
| =========                 |                                                 |
| \\      /  F ield         | OpenFOAM: The Open Source CFD Toolbox           |
|  \\    /   O peration     | Version:  2412                                  |
|   \\  /    A nd           | Website:  www.openfoam.com                      |
|    \\/     M anipulation  |                                                 |
\*---------------------------------------------------------------------------*/
FoamFile
{
    version     2.0;
    format      ascii;
    arch        "LSB;label=32;scalar=64";
    class       volVectorField;
    location    "5.5";
    object      U;
}
// * * * * * * * * * * * * * * * * * * * * * * * * * * * * * * * * * * * * * //

dimensions      [0 1 -1 0 0 0 0];

internalField   nonuniform List<vector> 
6400
(
(5.19597e-11 -5.3835e-11 0)
(5.1569e-11 1.59467e-11 0)
(-1.2715e-10 2.91454e-11 0)
(-4.59368e-10 7.30254e-11 0)
(-9.37648e-10 9.37842e-11 0)
(-1.53133e-09 1.14299e-10 0)
(-2.22088e-09 1.32076e-10 0)
(-2.98117e-09 1.39054e-10 0)
(-3.78807e-09 1.45642e-10 0)
(-4.62793e-09 1.48663e-10 0)
(-5.48973e-09 1.52389e-10 0)
(-6.36209e-09 1.50965e-10 0)
(-7.23484e-09 1.50825e-10 0)
(-8.09998e-09 1.47005e-10 0)
(-8.95107e-09 1.44373e-10 0)
(-9.78222e-09 1.38962e-10 0)
(-1.05898e-08 1.35396e-10 0)
(-1.13699e-08 1.30097e-10 0)
(-1.2119e-08 1.25783e-10 0)
(-1.283e-08 1.18762e-10 0)
(-1.34944e-08 1.10758e-10 0)
(-1.41007e-08 9.94799e-11 0)
(-1.46374e-08 8.65562e-11 0)
(-1.50916e-08 7.05751e-11 0)
(-1.54511e-08 5.27117e-11 0)
(-1.57026e-08 3.20002e-11 0)
(-1.58332e-08 9.02753e-12 0)
(-1.58292e-08 -1.68649e-11 0)
(-1.56779e-08 -4.52228e-11 0)
(-1.53668e-08 -7.61701e-11 0)
(-1.48858e-08 -1.09106e-10 0)
(-1.42266e-08 -1.43638e-10 0)
(-1.33849e-08 -1.78918e-10 0)
(-1.23599e-08 -2.14153e-10 0)
(-1.11561e-08 -2.48319e-10 0)
(-9.78236e-09 -2.80425e-10 0)
(-8.25314e-09 -3.09393e-10 0)
(-6.58764e-09 -3.34238e-10 0)
(-4.81013e-09 -3.54026e-10 0)
(-2.94847e-09 -3.68058e-10 0)
(-1.03395e-09 -3.75782e-10 0)
(9.00704e-10 -3.76986e-10 0)
(2.82179e-09 -3.71622e-10 0)
(4.69673e-09 -3.60008e-10 0)
(6.49449e-09 -3.4258e-10 0)
(8.18748e-09 -3.2008e-10 0)
(9.75147e-09 -2.93296e-10 0)
(1.11673e-08 -2.63189e-10 0)
(1.24198e-08 -2.30736e-10 0)
(1.34994e-08 -1.96825e-10 0)
(1.44003e-08 -1.62454e-10 0)
(1.51214e-08 -1.28118e-10 0)
(1.56642e-08 -9.48269e-11 0)
(1.60341e-08 -6.24757e-11 0)
(1.62373e-08 -3.23288e-11 0)
(1.62835e-08 -3.41644e-12 0)
(1.61811e-08 2.2425e-11 0)
(1.59421e-08 4.74365e-11 0)
(1.55752e-08 6.86151e-11 0)
(1.50931e-08 8.98366e-11 0)
(1.45046e-08 1.06152e-10 0)
(1.3823e-08 1.23792e-10 0)
(1.30562e-08 1.35224e-10 0)
(1.22182e-08 1.49752e-10 0)
(1.13164e-08 1.5628e-10 0)
(1.03661e-08 1.6761e-10 0)
(9.37521e-09 1.68702e-10 0)
(8.36014e-09 1.76539e-10 0)
(7.32964e-09 1.72304e-10 0)
(6.30024e-09 1.76609e-10 0)
(5.28232e-09 1.67175e-10 0)
(4.2937e-09 1.66896e-10 0)
(3.34892e-09 1.51438e-10 0)
(2.4694e-09 1.43742e-10 0)
(1.6769e-09 1.19756e-10 0)
(9.98256e-10 9.98792e-11 0)
(4.62416e-10 6.36116e-11 0)
(9.84978e-11 2.72978e-11 0)
(-7.03888e-11 -2.15977e-11 0)
(-5.03572e-11 -5.61579e-11 0)
(2.39868e-11 -7.63232e-11 0)
(-1.71828e-10 2.62465e-10 0)
(-7.49503e-10 5.22193e-10 0)
(-1.70136e-09 8.47133e-10 0)
(-2.98722e-09 1.08287e-09 0)
(-4.54818e-09 1.29403e-09 0)
(-6.33854e-09 1.45624e-09 0)
(-8.30499e-09 1.57214e-09 0)
(-1.04005e-08 1.64746e-09 0)
(-1.25857e-08 1.70522e-09 0)
(-1.483e-08 1.73364e-09 0)
(-1.7104e-08 1.74551e-09 0)
(-1.93827e-08 1.73464e-09 0)
(-2.16459e-08 1.7148e-09 0)
(-2.38754e-08 1.67758e-09 0)
(-2.60572e-08 1.63475e-09 0)
(-2.81761e-08 1.58003e-09 0)
(-3.02202e-08 1.52056e-09 0)
(-3.21725e-08 1.44674e-09 0)
(-3.40162e-08 1.35953e-09 0)
(-3.57264e-08 1.24962e-09 0)
(-3.72784e-08 1.11854e-09 0)
(-3.86411e-08 9.6123e-10 0)
(-3.97852e-08 7.79557e-10 0)
(-4.06763e-08 5.70579e-10 0)
(-4.12825e-08 3.35651e-10 0)
(-4.15685e-08 7.29603e-11 0)
(-4.1502e-08 -2.16121e-10 0)
(-4.10495e-08 -5.31051e-10 0)
(-4.01828e-08 -8.68369e-10 0)
(-3.88765e-08 -1.2241e-09 0)
(-3.71138e-08 -1.59189e-09 0)
(-3.48844e-08 -1.96442e-09 0)
(-3.21901e-08 -2.33279e-09 0)
(-2.90424e-08 -2.68744e-09 0)
(-2.54666e-08 -3.01814e-09 0)
(-2.14995e-08 -3.31475e-09 0)
(-1.71913e-08 -3.5675e-09 0)
(-1.26023e-08 -3.76782e-09 0)
(-7.80381e-09 -3.90865e-09 0)
(-2.87318e-09 -3.98521e-09 0)
(2.1066e-09 -3.99491e-09 0)
(7.05234e-09 -3.93791e-09 0)
(1.18814e-08 -3.81662e-09 0)
(1.6517e-08 -3.63592e-09 0)
(2.08885e-08 -3.40235e-09 0)
(2.49362e-08 -3.12416e-09 0)
(2.86093e-08 -2.81034e-09 0)
(3.18708e-08 -2.47038e-09 0)
(3.46932e-08 -2.11363e-09 0)
(3.70624e-08 -1.74846e-09 0)
(3.89717e-08 -1.38293e-09 0)
(4.04263e-08 -1.02284e-09 0)
(4.14345e-08 -6.74711e-10 0)
(4.20155e-08 -3.41142e-10 0)
(4.2187e-08 -2.7624e-11 0)
(4.19768e-08 2.67122e-10 0)
(4.14058e-08 5.37449e-10 0)
(4.05067e-08 7.88598e-10 0)
(3.93007e-08 1.01243e-09 0)
(3.78233e-08 1.21864e-09 0)
(3.60945e-08 1.395e-09 0)
(3.41517e-08 1.55718e-09 0)
(3.20133e-08 1.68656e-09 0)
(2.97189e-08 1.80505e-09 0)
(2.7287e-08 1.88553e-09 0)
(2.47602e-08 1.95787e-09 0)
(2.21582e-08 1.98712e-09 0)
(1.9525e-08 2.01153e-09 0)
(1.68835e-08 1.98765e-09 0)
(1.42796e-08 1.95902e-09 0)
(1.17432e-08 1.87489e-09 0)
(9.32421e-09 1.77984e-09 0)
(7.06499e-09 1.61906e-09 0)
(5.02275e-09 1.43412e-09 0)
(3.25369e-09 1.17534e-09 0)
(1.81652e-09 8.81472e-10 0)
(7.69638e-10 5.23926e-10 0)
(1.54196e-10 1.61229e-10 0)
(-3.02801e-11 -1.03661e-10 0)
(-2.09002e-11 8.0885e-11 0)
(-4.903e-10 8.4102e-10 0)
(-1.48743e-09 1.55537e-09 0)
(-3.01885e-09 2.30025e-09 0)
(-5.00468e-09 2.90236e-09 0)
(-7.37772e-09 3.41401e-09 0)
(-1.00721e-08 3.83081e-09 0)
(-1.30231e-08 4.12694e-09 0)
(-1.61633e-08 4.34513e-09 0)
(-1.94404e-08 4.48852e-09 0)
(-2.28067e-08 4.57947e-09 0)
(-2.62208e-08 4.60541e-09 0)
(-2.96458e-08 4.59406e-09 0)
(-3.30505e-08 4.5372e-09 0)
(-3.64103e-08 4.45457e-09 0)
(-3.96998e-08 4.3358e-09 0)
(-4.28974e-08 4.19637e-09 0)
(-4.59762e-08 4.02308e-09 0)
(-4.89125e-08 3.82053e-09 0)
(-5.16735e-08 3.57097e-09 0)
(-5.42283e-08 3.27324e-09 0)
(-5.65352e-08 2.9143e-09 0)
(-5.85542e-08 2.49505e-09 0)
(-6.02367e-08 2.0077e-09 0)
(-6.15369e-08 1.45357e-09 0)
(-6.24021e-08 8.28452e-10 0)
(-6.2784e-08 1.34371e-10 0)
(-6.26307e-08 -6.28699e-10 0)
(-6.18972e-08 -1.45495e-09 0)
(-6.05396e-08 -2.33726e-09 0)
(-5.8525e-08 -3.26308e-09 0)
(-5.58277e-08 -4.21712e-09 0)
(-5.24371e-08 -5.17977e-09 0)
(-4.83552e-08 -6.12894e-09 0)
(-4.36033e-08 -7.04003e-09 0)
(-3.82181e-08 -7.88746e-09 0)
(-3.22572e-08 -8.64548e-09 0)
(-2.57939e-08 -9.28978e-09 0)
(-1.89203e-08 -9.7987e-09 0)
(-1.17401e-08 -1.01549e-08 0)
(-4.36975e-09 -1.03461e-08 0)
(3.06972e-09 -1.03663e-08 0)
(1.04535e-08 -1.02155e-08 0)
(1.76616e-08 -9.90042e-09 0)
(2.45787e-08 -9.43295e-09 0)
(3.11027e-08 -8.83024e-09 0)
(3.7143e-08 -8.11275e-09 0)
(4.26279e-08 -7.30365e-09 0)
(4.74996e-08 -6.42683e-09 0)
(5.1721e-08 -5.5057e-09 0)
(5.52673e-08 -4.56242e-09 0)
(5.81333e-08 -3.61588e-09 0)
(6.03206e-08 -2.68392e-09 0)
(6.18489e-08 -1.77876e-09 0)
(6.27377e-08 -9.13905e-10 0)
(6.30233e-08 -9.3816e-11 0)
(6.27344e-08 6.7103e-10 0)
(6.19168e-08 1.38403e-09 0)
(6.0602e-08 2.03396e-09 0)
(5.88413e-08 2.63142e-09 0)
(5.66652e-08 3.16068e-09 0)
(5.41287e-08 3.64116e-09 0)
(5.12595e-08 4.04935e-09 0)
(4.8116e-08 4.41415e-09 0)
(4.47239e-08 4.69953e-09 0)
(4.11458e-08 4.94518e-09 0)
(3.74076e-08 5.10196e-09 0)
(3.35749e-08 5.22303e-09 0)
(2.96764e-08 5.24568e-09 0)
(2.57805e-08 5.2335e-09 0)
(2.19229e-08 5.11007e-09 0)
(1.8175e-08 4.94379e-09 0)
(1.45854e-08 4.64777e-09 0)
(1.12313e-08 4.28761e-09 0)
(8.17925e-09 3.77681e-09 0)
(5.50867e-09 3.18013e-09 0)
(3.29261e-09 2.43539e-09 0)
(1.60173e-09 1.61079e-09 0)
(5.04872e-10 7.30878e-10 0)
(1.31658e-11 2.33626e-11 0)
(-5.53985e-11 4.09564e-10 0)
(-7.89389e-10 1.77719e-09 0)
(-2.20005e-09 3.09223e-09 0)
(-4.25842e-09 4.38264e-09 0)
(-6.86547e-09 5.44405e-09 0)
(-9.93502e-09 6.36071e-09 0)
(-1.3396e-08 7.09277e-09 0)
(-1.71686e-08 7.6506e-09 0)
(-2.11807e-08 8.04291e-09 0)
(-2.53627e-08 8.32541e-09 0)
(-2.96593e-08 8.48389e-09 0)
(-3.40186e-08 8.55356e-09 0)
(-3.83957e-08 8.52694e-09 0)
(-4.27526e-08 8.44173e-09 0)
(-4.70542e-08 8.28424e-09 0)
(-5.12719e-08 8.0788e-09 0)
(-5.53708e-08 7.80879e-09 0)
(-5.93202e-08 7.48682e-09 0)
(-6.30799e-08 7.09032e-09 0)
(-6.66139e-08 6.61904e-09 0)
(-6.98743e-08 6.04895e-09 0)
(-7.28163e-08 5.37739e-09 0)
(-7.53816e-08 4.58824e-09 0)
(-7.75156e-08 3.68078e-09 0)
(-7.91528e-08 2.64541e-09 0)
(-8.02324e-08 1.48338e-09 0)
(-8.0686e-08 1.9188e-10 0)
(-8.04532e-08 -1.2227e-09 0)
(-7.94714e-08 -2.75275e-09 0)
(-7.76903e-08 -4.38144e-09 0)
(-7.50644e-08 -6.08737e-09 0)
(-7.15658e-08 -7.84086e-09 0)
(-6.71788e-08 -9.60701e-09 0)
(-6.19107e-08 -1.1345e-08 0)
(-5.57865e-08 -1.30104e-08 0)
(-4.88575e-08 -1.45567e-08 0)
(-4.11954e-08 -1.59374e-08 0)
(-3.2898e-08 -1.71083e-08 0)
(-2.40811e-08 -1.80305e-08 0)
(-1.48812e-08 -1.86724e-08 0)
(-5.44562e-09 -1.90124e-08 0)
(4.06768e-09 -1.90393e-08 0)
(1.35011e-08 -1.8754e-08 0)
(2.26981e-08 -1.81683e-08 0)
(3.15143e-08 -1.73049e-08 0)
(3.98168e-08 -1.61947e-08 0)
(4.74945e-08 -1.48759e-08 0)
(5.44534e-08 -1.33903e-08 0)
(6.06264e-08 -1.17818e-08 0)
(6.59634e-08 -1.00932e-08 0)
(7.04409e-08 -8.36385e-09 0)
(7.40478e-08 -6.63007e-09 0)
(7.67969e-08 -4.921e-09 0)
(7.87051e-08 -3.26401e-09 0)
(7.98112e-08 -1.67562e-09 0)
(8.01483e-08 -1.75194e-10 0)
(7.97709e-08 1.23397e-09 0)
(7.87184e-08 2.53619e-09 0)
(7.70544e-08 3.73967e-09 0)
(7.48179e-08 4.82598e-09 0)
(7.20782e-08 5.81496e-09 0)
(6.88704e-08 6.68056e-09 0)
(6.5268e-08 7.45558e-09 0)
(6.13021e-08 8.09962e-09 0)
(5.70507e-08 8.65886e-09 0)
(5.25428e-08 9.07453e-09 0)
(4.78605e-08 9.40985e-09 0)
(4.30341e-08 9.58717e-09 0)
(3.81494e-08 9.68649e-09 0)
(3.32423e-08 9.61028e-09 0)
(2.84011e-08 9.44926e-09 0)
(2.36731e-08 9.0877e-09 0)
(1.91505e-08 8.61748e-09 0)
(1.48991e-08 7.91365e-09 0)
(1.10146e-08 7.06445e-09 0)
(7.57817e-09 5.96663e-09 0)
(4.6793e-09 4.7129e-09 0)
(2.40352e-09 3.24899e-09 0)
(8.43721e-10 1.72596e-09 0)
(5.37826e-11 3.33473e-10 0)
(-7.96796e-11 8.82754e-10 0)
(-1.04059e-09 3.03935e-09 0)
(-2.81899e-09 5.08476e-09 0)
(-5.35534e-09 6.99755e-09 0)
(-8.51197e-09 8.61033e-09 0)
(-1.2196e-08 9.97376e-09 0)
(-1.63173e-08 1.1096e-08 0)
(-2.07975e-08 1.19379e-08 0)
(-2.55495e-08 1.25645e-08 0)
(-3.04998e-08 1.29864e-08 0)
(-3.55815e-08 1.32552e-08 0)
(-4.07399e-08 1.33557e-08 0)
(-4.59243e-08 1.33411e-08 0)
(-5.10887e-08 1.32026e-08 0)
(-5.61949e-08 1.29797e-08 0)
(-6.12025e-08 1.26522e-08 0)
(-6.60766e-08 1.22421e-08 0)
(-7.07719e-08 1.17228e-08 0)
(-7.5248e-08 1.11006e-08 0)
(-7.94514e-08 1.03436e-08 0)
(-8.33342e-08 9.44668e-09 0)
(-8.68327e-08 8.38185e-09 0)
(-8.98878e-08 7.14426e-09 0)
(-9.24247e-08 5.71522e-09 0)
(-9.43737e-08 4.09285e-09 0)
(-9.56533e-08 2.26812e-09 0)
(-9.61891e-08 2.45474e-10 0)
(-9.59007e-08 -1.97068e-09 0)
(-9.47195e-08 -4.36274e-09 0)
(-9.25785e-08 -6.90726e-09 0)
(-8.94288e-08 -9.56791e-09 0)
(-8.52315e-08 -1.22999e-08 0)
(-7.99728e-08 -1.50479e-08 0)
(-7.36567e-08 -1.77491e-08 0)
(-6.6318e-08 -2.03343e-08 0)
(-5.80149e-08 -2.27315e-08 0)
(-4.88379e-08 -2.48684e-08 0)
(-3.89023e-08 -2.66766e-08 0)
(-2.83523e-08 -2.80956e-08 0)
(-1.73507e-08 -2.90769e-08 0)
(-6.08017e-09 -2.95866e-08 0)
(5.27041e-09 -2.96084e-08 0)
(1.65063e-08 -2.91438e-08 0)
(2.74415e-08 -2.82125e-08 0)
(3.78986e-08 -2.68499e-08 0)
(4.77228e-08 -2.5106e-08 0)
(5.67783e-08 -2.30402e-08 0)
(6.49606e-08 -2.07192e-08 0)
(7.21878e-08 -1.82112e-08 0)
(7.84116e-08 -1.55826e-08 0)
(8.3602e-08 -1.28958e-08 0)
(8.776e-08 -1.02046e-08 0)
(9.08958e-08 -7.55752e-09 0)
(9.30471e-08 -4.9904e-09 0)
(9.42491e-08 -2.5372e-09 0)
(9.45626e-08 -2.13952e-10 0)
(9.40338e-08 1.95599e-09 0)
(9.27365e-08 3.97427e-09 0)
(9.07183e-08 5.81956e-09 0)
(8.80603e-08 7.50889e-09 0)
(8.48054e-08 9.01521e-09 0)
(8.10393e-08 1.03719e-08 0)
(7.67983e-08 1.15381e-08 0)
(7.21725e-08 1.25636e-08 0)
(6.71928e-08 1.33858e-08 0)
(6.19539e-08 1.40737e-08 0)
(5.64846e-08 1.454e-08 0)
(5.08842e-08 1.48758e-08 0)
(4.51847e-08 1.49679e-08 0)
(3.94884e-08 1.49262e-08 0)
(3.38365e-08 1.46118e-08 0)
(2.83338e-08 1.41419e-08 0)
(2.30383e-08 1.3358e-08 0)
(1.80581e-08 1.23746e-08 0)
(1.34707e-08 1.10381e-08 0)
(9.38341e-09 9.46609e-09 0)
(5.89102e-09 7.55033e-09 0)
(3.09706e-09 5.41405e-09 0)
(1.13213e-09 3.07587e-09 0)
(8.32837e-11 8.15737e-10 0)
(-9.70693e-11 1.4678e-09 0)
(-1.24492e-09 4.59067e-09 0)
(-3.3493e-09 7.46742e-09 0)
(-6.30489e-09 1.01026e-08 0)
(-9.95594e-09 1.23089e-08 0)
(-1.41823e-08 1.41935e-08 0)
(-1.88918e-08 1.57182e-08 0)
(-2.39884e-08 1.69085e-08 0)
(-2.93875e-08 1.77645e-08 0)
(-3.50013e-08 1.83762e-08 0)
(-4.07622e-08 1.87377e-08 0)
(-4.66096e-08 1.89101e-08 0)
(-5.24905e-08 1.88837e-08 0)
(-5.83564e-08 1.87189e-08 0)
(-6.416e-08 1.83989e-08 0)
(-6.98615e-08 1.79595e-08 0)
(-7.54133e-08 1.73703e-08 0)
(-8.07733e-08 1.66462e-08 0)
(-8.58854e-08 1.57496e-08 0)
(-9.06991e-08 1.46783e-08 0)
(-9.51474e-08 1.33928e-08 0)
(-9.91687e-08 1.18838e-08 0)
(-1.02683e-07 1.01197e-08 0)
(-1.05616e-07 8.09326e-09 0)
(-1.07875e-07 5.78503e-09 0)
(-1.09375e-07 3.19447e-09 0)
(-1.10019e-07 3.18235e-10 0)
(-1.09722e-07 -2.82947e-09 0)
(-1.08394e-07 -6.22853e-09 0)
(-1.05964e-07 -9.84107e-09 0)
(-1.02364e-07 -1.36179e-08 0)
(-9.75553e-08 -1.74933e-08 0)
(-9.15131e-08 -2.13898e-08 0)
(-8.42466e-08 -2.52174e-08 0)
(-7.57898e-08 -2.88784e-08 0)
(-6.62145e-08 -3.22696e-08 0)
(-5.56224e-08 -3.52884e-08 0)
(-4.41533e-08 -3.78369e-08 0)
(-3.19738e-08 -3.98289e-08 0)
(-1.92814e-08 -4.11949e-08 0)
(-6.2892e-09 -4.18872e-08 0)
(6.77392e-09 -4.18828e-08 0)
(1.9681e-08 -4.11855e-08 0)
(3.22078e-08 -3.98241e-08 0)
(4.41509e-08 -3.78524e-08 0)
(5.53256e-08 -3.53423e-08 0)
(6.5582e-08 -3.2382e-08 0)
(7.47978e-08 -2.90671e-08 0)
(8.28914e-08 -2.54965e-08 0)
(8.98072e-08 -2.17657e-08 0)
(9.5529e-08 -1.79619e-08 0)
(1.00056e-07 -1.41635e-08 0)
(1.03423e-07 -1.04341e-08 0)
(1.05665e-07 -6.82968e-09 0)
(1.06848e-07 -3.3862e-09 0)
(1.07026e-07 -1.40008e-10 0)
(1.06283e-07 2.89888e-09 0)
(1.04676e-07 5.70419e-09 0)
(1.02297e-07 8.28708e-09 0)
(9.91994e-08 1.062e-08 0)
(9.54792e-08 1.27341e-08 0)
(9.11794e-08 1.45904e-08 0)
(8.64007e-08 1.62402e-08 0)
(8.1176e-08 1.76217e-08 0)
(7.56103e-08 1.88078e-08 0)
(6.973e-08 1.9707e-08 0)
(6.36445e-08 2.04174e-08 0)
(5.73793e-08 2.08154e-08 0)
(5.10477e-08 2.10248e-08 0)
(4.4681e-08 2.08896e-08 0)
(3.83955e-08 2.05502e-08 0)
(3.22368e-08 1.98203e-08 0)
(2.63239e-08 1.88424e-08 0)
(2.0724e-08 1.74187e-08 0)
(1.55555e-08 1.56901e-08 0)
(1.09093e-08 1.34857e-08 0)
(6.90809e-09 1.09452e-08 0)
(3.67042e-09 7.97735e-09 0)
(1.36147e-09 4.75743e-09 0)
(1.06176e-10 1.42515e-09 0)
(-1.08864e-10 2.14499e-09 0)
(-1.41523e-09 6.38067e-09 0)
(-3.80155e-09 1.02094e-08 0)
(-7.13761e-09 1.36251e-08 0)
(-1.12302e-08 1.65112e-08 0)
(-1.59538e-08 1.89301e-08 0)
(-2.11898e-08 2.09247e-08 0)
(-2.68439e-08 2.24527e-08 0)
(-3.28155e-08 2.35967e-08 0)
(-3.90201e-08 2.43733e-08 0)
(-4.53788e-08 2.48762e-08 0)
(-5.18325e-08 2.50917e-08 0)
(-5.83269e-08 2.5095e-08 0)
(-6.48099e-08 2.4873e-08 0)
(-7.12355e-08 2.4484e-08 0)
(-7.75537e-08 2.3898e-08 0)
(-8.37215e-08 2.31427e-08 0)
(-8.96828e-08 2.21753e-08 0)
(-9.5388e-08 2.10002e-08 0)
(-1.00769e-07 1.95686e-08 0)
(-1.05764e-07 1.78697e-08 0)
(-1.1029e-07 1.58578e-08 0)
(-1.14271e-07 1.35187e-08 0)
(-1.17607e-07 1.08186e-08 0)
(-1.20208e-07 7.74895e-09 0)
(-1.21962e-07 4.2936e-09 0)
(-1.22769e-07 4.58876e-10 0)
(-1.22519e-07 -3.74478e-09 0)
(-1.21114e-07 -8.28408e-09 0)
(-1.1846e-07 -1.31126e-08 0)
(-1.14487e-07 -1.81611e-08 0)
(-1.09135e-07 -2.33436e-08 0)
(-1.0238e-07 -2.85546e-08 0)
(-9.42229e-08 -3.36739e-08 0)
(-8.47043e-08 -3.85693e-08 0)
(-7.38997e-08 -4.31018e-08 0)
(-6.19302e-08 -4.71316e-08 0)
(-4.89526e-08 -5.05261e-08 0)
(-3.51667e-08 -5.31675e-08 0)
(-2.08e-08 -5.49614e-08 0)
(-6.10899e-09 -5.58427e-08 0)
(8.6407e-09 -5.5782e-08 0)
(2.31766e-08 -5.47852e-08 0)
(3.72411e-08 -5.28955e-08 0)
(5.05923e-08 -5.01874e-08 0)
(6.30243e-08 -4.6764e-08 0)
(7.43625e-08 -4.27464e-08 0)
(8.44808e-08 -3.82685e-08 0)
(9.32879e-08 -3.34651e-08 0)
(1.00742e-07 -2.84664e-08 0)
(1.06826e-07 -2.33906e-08 0)
(1.11568e-07 -1.83396e-08 0)
(1.15002e-07 -1.3401e-08 0)
(1.172e-07 -8.63947e-09 0)
(1.18224e-07 -4.11165e-09 0)
(1.18169e-07 1.54156e-10 0)
(1.17105e-07 4.12271e-09 0)
(1.15138e-07 7.7955e-09 0)
(1.12331e-07 1.11439e-08 0)
(1.08794e-07 1.41944e-08 0)
(1.04579e-07 1.69115e-08 0)
(9.97966e-08 1.93454e-08 0)
(9.44847e-08 2.144e-08 0)
(8.87569e-08 2.32695e-08 0)
(8.26382e-08 2.47453e-08 0)
(7.62462e-08 2.59689e-08 0)
(6.95994e-08 2.68132e-08 0)
(6.28194e-08 2.74106e-08 0)
(5.59253e-08 2.75942e-08 0)
(4.9042e-08 2.75222e-08 0)
(4.21996e-08 2.69881e-08 0)
(3.55263e-08 2.61614e-08 0)
(2.90733e-08 2.48064e-08 0)
(2.29708e-08 2.30927e-08 0)
(1.72963e-08 2.07913e-08 0)
(1.21831e-08 1.80623e-08 0)
(7.74431e-09 1.47251e-08 0)
(4.13237e-09 1.0944e-08 0)
(1.54125e-09 6.66783e-09 0)
(1.20975e-10 2.14686e-09 0)
(-1.19942e-10 2.89568e-09 0)
(-1.5605e-09 8.38739e-09 0)
(-4.20177e-09 1.32544e-08 0)
(-7.87945e-09 1.7551e-08 0)
(-1.23868e-08 2.1145e-08 0)
(-1.75666e-08 2.41752e-08 0)
(-2.32958e-08 2.66265e-08 0)
(-2.94561e-08 2.85552e-08 0)
(-3.59525e-08 2.99569e-08 0)
(-4.26876e-08 3.09547e-08 0)
(-4.95858e-08 3.15597e-08 0)
(-5.65819e-08 3.18683e-08 0)
(-6.36234e-08 3.18655e-08 0)
(-7.06617e-08 3.16305e-08 0)
(-7.76457e-08 3.11388e-08 0)
(-8.45308e-08 3.04382e-08 0)
(-9.12625e-08 2.94837e-08 0)
(-9.77935e-08 2.82908e-08 0)
(-1.04058e-07 2.68028e-08 0)
(-1.09996e-07 2.50113e-08 0)
(-1.15527e-07 2.28574e-08 0)
(-1.20574e-07 2.03211e-08 0)
(-1.25036e-07 1.73517e-08 0)
(-1.28819e-07 1.39303e-08 0)
(-1.31803e-07 1.00231e-08 0)
(-1.33875e-07 5.62434e-09 0)
(-1.34907e-07 7.28043e-10 0)
(-1.34781e-07 -4.64391e-09 0)
(-1.33373e-07 -1.04564e-08 0)
(-1.30578e-07 -1.66452e-08 0)
(-1.263e-07 -2.3125e-08 0)
(-1.20474e-07 -2.97827e-08 0)
(-1.13057e-07 -3.64834e-08 0)
(-1.04051e-07 -4.30707e-08 0)
(-9.34885e-08 -4.93727e-08 0)
(-8.14584e-08 -5.52073e-08 0)
(-6.80907e-08 -6.0391e-08 0)
(-5.35707e-08 -6.47483e-08 0)
(-3.81254e-08 -6.81231e-08 0)
(-2.20277e-08 -7.03897e-08 0)
(-5.57517e-09 -7.14633e-08 0)
(1.09124e-08 -7.1305e-08 0)
(2.71191e-08 -6.99271e-08 0)
(4.2737e-08 -6.73889e-08 0)
(5.74916e-08 -6.37953e-08 0)
(7.11411e-08 -5.92853e-08 0)
(8.34985e-08 -5.40253e-08 0)
(9.44214e-08 -4.81936e-08 0)
(1.03829e-07 -4.19713e-08 0)
(1.11679e-07 -3.55291e-08 0)
(1.17985e-07 -2.902e-08 0)
(1.2278e-07 -2.25759e-08 0)
(1.2614e-07 -1.63017e-08 0)
(1.28138e-07 -1.02842e-08 0)
(1.28883e-07 -4.57836e-09 0)
(1.2846e-07 7.65138e-10 0)
(1.26992e-07 5.73307e-09 0)
(1.2456e-07 1.02936e-08 0)
(1.21288e-07 1.44658e-08 0)
(1.17242e-07 1.82187e-08 0)
(1.12544e-07 2.15995e-08 0)
(1.07239e-07 2.4561e-08 0)
(1.01452e-07 2.7177e-08 0)
(9.52085e-08 2.93684e-08 0)
(8.86332e-08 3.12377e-08 0)
(8.17389e-08 3.26623e-08 0)
(7.46542e-08 3.37784e-08 0)
(6.73855e-08 3.44161e-08 0)
(6.00647e-08 3.47459e-08 0)
(5.27032e-08 3.45481e-08 0)
(4.54364e-08 3.40152e-08 0)
(3.82936e-08 3.28839e-08 0)
(3.14142e-08 3.13505e-08 0)
(2.4857e-08 2.91358e-08 0)
(1.87665e-08 2.64305e-08 0)
(1.32392e-08 2.29786e-08 0)
(8.43322e-09 1.89428e-08 0)
(4.50278e-09 1.41641e-08 0)
(1.679e-09 8.81288e-09 0)
(1.31842e-10 2.93733e-09 0)
(-1.27875e-10 3.71517e-09 0)
(-1.69167e-09 1.05738e-08 0)
(-4.56321e-09 1.65979e-08 0)
(-8.56892e-09 2.1824e-08 0)
(-1.34655e-08 2.62206e-08 0)
(-1.90888e-08 2.98577e-08 0)
(-2.52796e-08 3.28343e-08 0)
(-3.19196e-08 3.51261e-08 0)
(-3.88956e-08 3.6847e-08 0)
(-4.61194e-08 3.80195e-08 0)
(-5.35065e-08 3.87829e-08 0)
(-6.09953e-08 3.91369e-08 0)
(-6.85333e-08 3.91819e-08 0)
(-7.60732e-08 3.88957e-08 0)
(-8.35717e-08 3.83503e-08 0)
(-9.09774e-08 3.75038e-08 0)
(-9.82459e-08 3.63885e-08 0)
(-1.05316e-07 3.49428e-08 0)
(-1.12134e-07 3.31658e-08 0)
(-1.18622e-07 3.09865e-08 0)
(-1.24708e-07 2.83829e-08 0)
(-1.30294e-07 2.52863e-08 0)
(-1.35285e-07 2.16675e-08 0)
(-1.39559e-07 1.74718e-08 0)
(-1.42999e-07 1.26773e-08 0)
(-1.4546e-07 7.25572e-09 0)
(-1.46808e-07 1.2107e-09 0)
(-1.46892e-07 -5.44328e-09 0)
(-1.45577e-07 -1.26568e-08 0)
(-1.42724e-07 -2.03567e-08 0)
(-1.38226e-07 -2.84333e-08 0)
(-1.31989e-07 -3.6748e-08 0)
(-1.23962e-07 -4.51298e-08 0)
(-1.14127e-07 -5.3382e-08 0)
(-1.02521e-07 -6.12855e-08 0)
(-8.92304e-08 -6.86077e-08 0)
(-7.44045e-08 -7.51116e-08 0)
(-5.82485e-08 -8.05692e-08 0)
(-4.10325e-08 -8.47762e-08 0)
(-2.30721e-08 -8.75683e-08 0)
(-4.72689e-09 -8.88344e-08 0)
(1.36286e-08 -8.85274e-08 0)
(3.16134e-08 -8.66656e-08 0)
(4.88712e-08 -8.33334e-08 0)
(6.50756e-08 -7.86716e-08 0)
(7.99578e-08 -7.28696e-08 0)
(9.33025e-08 -6.6147e-08 0)
(1.04969e-07 -5.87418e-08 0)
(1.14873e-07 -5.08891e-08 0)
(1.23002e-07 -4.28097e-08 0)
(1.29381e-07 -3.46972e-08 0)
(1.34088e-07 -2.67125e-08 0)
(1.3721e-07 -1.89861e-08 0)
(1.38872e-07 -1.16111e-08 0)
(1.39183e-07 -4.66254e-09 0)
(1.38286e-07 1.82455e-09 0)
(1.36283e-07 7.81069e-09 0)
(1.33321e-07 1.33047e-08 0)
(1.29481e-07 1.82793e-08 0)
(1.24905e-07 2.27776e-08 0)
(1.1965e-07 2.67635e-08 0)
(1.13851e-07 3.03098e-08 0)
(1.0754e-07 3.33514e-08 0)
(1.0085e-07 3.59915e-08 0)
(9.37901e-08 3.81198e-08 0)
(8.64961e-08 3.98736e-08 0)
(7.89631e-08 4.10884e-08 0)
(7.13284e-08 4.1941e-08 0)
(6.35846e-08 4.22088e-08 0)
(5.58724e-08 4.21006e-08 0)
(4.81959e-08 4.13363e-08 0)
(4.06996e-08 4.01386e-08 0)
(3.34152e-08 3.81855e-08 0)
(2.64958e-08 3.56968e-08 0)
(2.00165e-08 3.23528e-08 0)
(1.41429e-08 2.83499e-08 0)
(9.00564e-09 2.34029e-08 0)
(4.80619e-09 1.76949e-08 0)
(1.78604e-09 1.10887e-08 0)
(1.38118e-10 3.79974e-09 0)
(-1.3572e-10 4.59161e-09 0)
(-1.81104e-09 1.2942e-08 0)
(-4.91116e-09 2.02009e-08 0)
(-9.23381e-09 2.64664e-08 0)
(-1.45232e-08 3.16844e-08 0)
(-2.0575e-08 3.601e-08 0)
(-2.72211e-08 3.94731e-08 0)
(-3.43112e-08 4.21898e-08 0)
(-4.17404e-08 4.41716e-08 0)
(-4.94089e-08 4.55813e-08 0)
(-5.7244e-08 4.64455e-08 0)
(-6.51807e-08 4.6905e-08 0)
(-7.31703e-08 4.69477e-08 0)
(-8.11719e-08 4.66709e-08 0)
(-8.91414e-08 4.60368e-08 0)
(-9.70398e-08 4.51007e-08 0)
(-1.04813e-07 4.38003e-08 0)
(-1.12415e-07 4.21478e-08 0)
(-1.19776e-07 4.00635e-08 0)
(-1.2683e-07 3.75275e-08 0)
(-1.33487e-07 3.44549e-08 0)
(-1.39658e-07 3.08082e-08 0)
(-1.45223e-07 2.651e-08 0)
(-1.50065e-07 2.15215e-08 0)
(-1.54034e-07 1.57867e-08 0)
(-1.56986e-07 9.28587e-09 0)
(-1.58748e-07 2.00359e-09 0)
(-1.59158e-07 -6.03582e-09 0)
(-1.58041e-07 -1.47842e-08 0)
(-1.55242e-07 -2.41494e-08 0)
(-1.50613e-07 -3.40033e-08 0)
(-1.44044e-07 -4.41743e-08 0)
(-1.35453e-07 -5.44536e-08 0)
(-1.24812e-07 -6.45966e-08 0)
(-1.12143e-07 -7.43303e-08 0)
(-9.75367e-08 -8.33609e-08 0)
(-8.115e-08 -9.13865e-08 0)
(-6.32215e-08 -9.8113e-08 0)
(-4.40592e-08 -1.03275e-07 0)
(-2.40437e-08 -1.06657e-07 0)
(-3.59937e-09 -1.08118e-07 0)
(1.68182e-08 -1.07597e-07 0)
(3.67597e-08 -1.05125e-07 0)
(5.57962e-08 -1.00817e-07 0)
(7.35529e-08 -9.48649e-08 0)
(8.97143e-08 -8.75187e-08 0)
(1.04051e-07 -7.90712e-08 0)
(1.16407e-07 -6.98307e-08 0)
(1.26724e-07 -6.01037e-08 0)
(1.35002e-07 -5.01691e-08 0)
(1.41317e-07 -4.02667e-08 0)
(1.45771e-07 -3.05916e-08 0)
(1.48509e-07 -2.12905e-08 0)
(1.49668e-07 -1.24756e-08 0)
(1.49419e-07 -4.21333e-09 0)
(1.47894e-07 3.4422e-09 0)
(1.45267e-07 1.04849e-08 0)
(1.41646e-07 1.68893e-08 0)
(1.37194e-07 2.26931e-08 0)
(1.31988e-07 2.78728e-08 0)
(1.26178e-07 3.25e-08 0)
(1.19807e-07 3.6528e-08 0)
(1.13019e-07 4.00601e-08 0)
(1.05825e-07 4.30057e-08 0)
(9.83673e-08 4.55025e-08 0)
(9.06335e-08 4.7401e-08 0)
(8.27658e-08 4.88798e-08 0)
(7.47393e-08 4.97231e-08 0)
(6.66992e-08 5.01499e-08 0)
(5.86232e-08 4.98754e-08 0)
(5.06595e-08 4.91442e-08 0)
(4.28065e-08 4.76086e-08 0)
(3.52198e-08 4.55143e-08 0)
(2.79416e-08 4.24814e-08 0)
(2.11457e-08 3.87422e-08 0)
(1.49356e-08 3.39362e-08 0)
(9.51291e-09 2.82325e-08 0)
(5.06245e-09 2.13803e-08 0)
(1.87278e-09 1.35437e-08 0)
(1.42093e-10 4.69457e-09 0)
(-1.40983e-10 5.52772e-09 0)
(-1.93171e-09 1.54711e-08 0)
(-5.26354e-09 2.40952e-08 0)
(-9.92403e-09 3.14423e-08 0)
(-1.56068e-08 3.75837e-08 0)
(-2.20985e-08 4.25738e-08 0)
(-2.91859e-08 4.6588e-08 0)
(-3.67166e-08 4.96601e-08 0)
(-4.45644e-08 5.19617e-08 0)
(-5.26448e-08 5.35356e-08 0)
(-6.08814e-08 5.45671e-08 0)
(-6.92217e-08 5.50701e-08 0)
(-7.76209e-08 5.51789e-08 0)
(-8.6041e-08 5.48656e-08 0)
(-9.44503e-08 5.42125e-08 0)
(-1.02806e-07 5.316e-08 0)
(-1.11071e-07 5.17398e-08 0)
(-1.19185e-07 4.98674e-08 0)
(-1.27098e-07 4.75309e-08 0)
(-1.34726e-07 4.46318e-08 0)
(-1.41993e-07 4.11292e-08 0)
(-1.48786e-07 3.69235e-08 0)
(-1.54998e-07 3.19606e-08 0)
(-1.60479e-07 2.61545e-08 0)
(-1.65085e-07 1.9459e-08 0)
(-1.68632e-07 1.18217e-08 0)
(-1.7094e-07 3.23269e-09 0)
(-1.71802e-07 -6.29849e-09 0)
(-1.71024e-07 -1.67123e-08 0)
(-1.68402e-07 -2.79093e-08 0)
(-1.63763e-07 -3.97351e-08 0)
(-1.56951e-07 -5.19868e-08 0)
(-1.47863e-07 -6.4411e-08 0)
(-1.36438e-07 -7.67099e-08 0)
(-1.22686e-07 -8.85468e-08 0)
(-1.06687e-07 -9.95551e-08 0)
(-8.86128e-08 -1.09353e-07 0)
(-6.87246e-08 -1.17561e-07 0)
(-4.73884e-08 -1.23834e-07 0)
(-2.50529e-08 -1.27892e-07 0)
(-2.23785e-09 -1.29549e-07 0)
(2.0511e-08 -1.28735e-07 0)
(4.26457e-08 -1.25494e-07 0)
(6.36607e-08 -1.19987e-07 0)
(8.31084e-08 -1.12468e-07 0)
(1.00634e-07 -1.03271e-07 0)
(1.15974e-07 -9.27763e-08 0)
(1.28984e-07 -8.13896e-08 0)
(1.39613e-07 -6.95009e-08 0)
(1.47917e-07 -5.74634e-08 0)
(1.54005e-07 -4.55685e-08 0)
(1.58049e-07 -3.40425e-08 0)
(1.60223e-07 -2.30533e-08 0)
(1.60734e-07 -1.27116e-08 0)
(1.59754e-07 -3.09621e-09 0)
(1.57491e-07 5.76538e-09 0)
(1.54092e-07 1.38455e-08 0)
(1.49746e-07 2.11742e-08 0)
(1.44559e-07 2.77411e-08 0)
(1.38704e-07 3.36171e-08 0)
(1.32241e-07 3.87779e-08 0)
(1.25327e-07 4.33271e-08 0)
(1.17983e-07 4.72006e-08 0)
(1.10358e-07 5.05361e-08 0)
(1.02438e-07 5.3209e-08 0)
(9.43703e-08 5.53971e-08 0)
(8.61175e-08 5.69031e-08 0)
(7.78279e-08 5.79502e-08 0)
(6.94545e-08 5.82608e-08 0)
(6.11481e-08 5.80957e-08 0)
(5.2872e-08 5.70977e-08 0)
(4.47818e-08 5.55399e-08 0)
(3.68765e-08 5.30001e-08 0)
(2.93282e-08 4.97344e-08 0)
(2.22024e-08 4.53099e-08 0)
(1.57051e-08 3.99427e-08 0)
(9.9869e-09 3.32246e-08 0)
(5.30503e-09 2.53439e-08 0)
(1.94587e-09 1.60773e-08 0)
(1.4331e-10 5.64161e-09 0)
(-1.46554e-10 6.51705e-09 0)
(-2.05971e-09 1.81922e-08 0)
(-5.65975e-09 2.82708e-08 0)
(-1.06857e-08 3.68149e-08 0)
(-1.6795e-08 4.38754e-08 0)
(-2.37254e-08 4.9612e-08 0)
(-3.12598e-08 5.4105e-08 0)
(-3.92054e-08 5.75848e-08 0)
(-4.74477e-08 6.01134e-08 0)
(-5.5894e-08 6.1913e-08 0)
(-6.44874e-08 6.30321e-08 0)
(-7.318e-08 6.36533e-08 0)
(-8.19388e-08 6.37697e-08 0)
(-9.0737e-08 6.34999e-08 0)
(-9.95432e-08 6.27924e-08 0)
(-1.08332e-07 6.17046e-08 0)
(-1.17059e-07 6.0151e-08 0)
(-1.25686e-07 5.81349e-08 0)
(-1.34144e-07 5.5548e-08 0)
(-1.42373e-07 5.23516e-08 0)
(-1.50273e-07 4.84275e-08 0)
(-1.57751e-07 4.37106e-08 0)
(-1.64671e-07 3.80856e-08 0)
(-1.70894e-07 3.14807e-08 0)
(-1.76239e-07 2.3803e-08 0)
(-1.80521e-07 1.50026e-08 0)
(-1.83514e-07 5.03902e-09 0)
(-1.84996e-07 -6.07591e-09 0)
(-1.84714e-07 -1.82916e-08 0)
(-1.82435e-07 -3.14928e-08 0)
(-1.77928e-07 -4.55059e-08 0)
(-1.71002e-07 -6.00907e-08 0)
(-1.615e-07 -7.49466e-08 0)
(-1.49335e-07 -8.97148e-08 0)
(-1.34482e-07 -1.03985e-07 0)
(-1.17011e-07 -1.17303e-07 0)
(-9.70903e-08 -1.29188e-07 0)
(-7.50178e-08 -1.39151e-07 0)
(-5.12142e-08 -1.4674e-07 0)
(-2.6228e-08 -1.51585e-07 0)
(-6.89333e-10 -1.53447e-07 0)
(2.47274e-08 -1.52239e-07 0)
(4.93619e-08 -1.48033e-07 0)
(7.26006e-08 -1.41044e-07 0)
(9.39222e-08 -1.31617e-07 0)
(1.1291e-07 -1.20187e-07 0)
(1.29285e-07 -1.07256e-07 0)
(1.42893e-07 -9.33455e-08 0)
(1.53732e-07 -7.89592e-08 0)
(1.61901e-07 -6.45362e-08 0)
(1.67596e-07 -5.0427e-08 0)
(1.71038e-07 -3.68882e-08 0)
(1.72483e-07 -2.40943e-08 0)
(1.72159e-07 -1.2162e-08 0)
(1.70318e-07 -1.14854e-09 0)
(1.67154e-07 8.9097e-09 0)
(1.62895e-07 1.80325e-08 0)
(1.57688e-07 2.6221e-08 0)
(1.5173e-07 3.35463e-08 0)
(1.45113e-07 4.00091e-08 0)
(1.3801e-07 4.5716e-08 0)
(1.30459e-07 5.06345e-08 0)
(1.22618e-07 5.49038e-08 0)
(1.14479e-07 5.84326e-08 0)
(1.06197e-07 6.13977e-08 0)
(9.77247e-08 6.3631e-08 0)
(8.92171e-08 6.5356e-08 0)
(8.06067e-08 6.63165e-08 0)
(7.20462e-08 6.67815e-08 0)
(6.34654e-08 6.64018e-08 0)
(5.50187e-08 6.54727e-08 0)
(4.66588e-08 6.35553e-08 0)
(3.85506e-08 6.09344e-08 0)
(3.07041e-08 5.71109e-08 0)
(2.33177e-08 5.23321e-08 0)
(1.64991e-08 4.6106e-08 0)
(1.05026e-08 3.85934e-08 0)
(5.55609e-09 2.94306e-08 0)
(2.02268e-09 1.8787e-08 0)
(1.42275e-10 6.6026e-09 0)
(-1.50871e-10 7.57413e-09 0)
(-2.22046e-09 2.11139e-08 0)
(-6.13826e-09 3.28097e-08 0)
(-1.16032e-08 4.25811e-08 0)
(-1.81738e-08 5.06377e-08 0)
(-2.55635e-08 5.70593e-08 0)
(-3.3521e-08 6.20848e-08 0)
(-4.1862e-08 6.58609e-08 0)
(-5.04493e-08 6.86661e-08 0)
(-5.92145e-08 7.05874e-08 0)
(-6.81042e-08 7.18653e-08 0)
(-7.70911e-08 7.25282e-08 0)
(-8.61543e-08 7.27403e-08 0)
(-9.52753e-08 7.2467e-08 0)
(-1.04441e-07 7.17993e-08 0)
(-1.13621e-07 7.06566e-08 0)
(-1.22795e-07 6.9064e-08 0)
(-1.3191e-07 6.69081e-08 0)
(-1.40925e-07 6.416e-08 0)
(-1.49759e-07 6.06868e-08 0)
(-1.58339e-07 5.64196e-08 0)
(-1.66544e-07 5.12178e-08 0)
(-1.74258e-07 4.49889e-08 0)
(-1.81312e-07 3.76003e-08 0)
(-1.8753e-07 2.89621e-08 0)
(-1.92688e-07 1.89775e-08 0)
(-1.96548e-07 7.6e-09 0)
(-1.98831e-07 -5.18762e-09 0)
(-1.99254e-07 -1.93337e-08 0)
(-1.97515e-07 -3.47231e-08 0)
(-1.93335e-07 -5.11575e-08 0)
(-1.86453e-07 -6.83615e-08 0)
(-1.76668e-07 -8.59814e-08 0)
(-1.6383e-07 -1.03591e-07 0)
(-1.47881e-07 -1.20696e-07 0)
(-1.28855e-07 -1.36739e-07 0)
(-1.06918e-07 -1.51113e-07 0)
(-8.23863e-08 -1.63186e-07 0)
(-5.5761e-08 -1.72359e-07 0)
(-2.77075e-08 -1.78141e-07 0)
(9.86938e-10 -1.80219e-07 0)
(2.94915e-08 -1.78494e-07 0)
(5.6992e-08 -1.7307e-07 0)
(8.27538e-08 -1.64249e-07 0)
(1.06155e-07 -1.52484e-07 0)
(1.26724e-07 -1.38354e-07 0)
(1.44146e-07 -1.22505e-07 0)
(1.58291e-07 -1.05618e-07 0)
(1.69193e-07 -8.83358e-08 0)
(1.77051e-07 -7.12101e-08 0)
(1.8214e-07 -5.465e-08 0)
(1.84791e-07 -3.89333e-08 0)
(1.85304e-07 -2.42345e-08 0)
(1.83993e-07 -1.06499e-08 0)
(1.81114e-07 1.76835e-09 0)