/*--------------------------------*- C++ -*----------------------------------*\
| =========                 |                                                 |
| \\      /  F ield         | OpenFOAM: The Open Source CFD Toolbox           |
|  \\    /   O peration     | Version:  2412                                  |
|   \\  /    A nd           | Website:  www.openfoam.com                      |
|    \\/     M anipulation  |                                                 |
\*---------------------------------------------------------------------------*/
FoamFile
{
    version     2.0;
    format      ascii;
    arch        "LSB;label=32;scalar=64";
    class       volVectorField;
    location    "3.04";
    object      U;
}
// * * * * * * * * * * * * * * * * * * * * * * * * * * * * * * * * * * * * * //

dimensions      [0 1 -1 0 0 0 0];

internalField   nonuniform List<vector> 
80000
(
(-2.27321e-05 5.5352e-05 0)
(-5.79381e-05 1.12662e-05 0)
(-7.43762e-05 3.36687e-06 0)
(-8.91075e-05 8.67788e-06 0)
(-0.000107795 1.11235e-05 0)
(-0.000125043 1.23278e-05 0)
(-0.000142858 1.25578e-05 0)
(-0.000159948 1.25879e-05 0)
(-0.000177077 1.24932e-05 0)
(-0.000194266 1.24354e-05 0)
(-0.000211747 1.2454e-05 0)
(-0.000229604 1.2552e-05 0)
(-0.000247927 1.27085e-05 0)
(-0.000266748 1.29401e-05 0)
(-0.000286082 1.31822e-05 0)
(-0.000305914 1.34327e-05 0)
(-0.000326217 1.36779e-05 0)
(-0.00034695 1.3912e-05 0)
(-0.000368066 1.41297e-05 0)
(-0.000389512 1.43349e-05 0)
(-0.000411248 1.45139e-05 0)
(-0.000433229 1.47019e-05 0)
(-0.000455434 1.49473e-05 0)
(-0.000477822 1.50296e-05 0)
(-0.000500358 1.51896e-05 0)
(-0.000523047 1.53569e-05 0)
(-0.000545887 1.55211e-05 0)
(-0.000568878 1.56868e-05 0)
(-0.000592027 1.58559e-05 0)
(-0.00061534 1.60299e-05 0)
(-0.000638831 1.62098e-05 0)
(-0.000662514 1.6397e-05 0)
(-0.000686404 1.65918e-05 0)
(-0.000710519 1.67955e-05 0)
(-0.000734877 1.70076e-05 0)
(-0.000759496 1.72284e-05 0)
(-0.000784396 1.74578e-05 0)
(-0.000809597 1.76945e-05 0)
(-0.000835117 1.79396e-05 0)
(-0.000860975 1.81922e-05 0)
(-0.000887187 1.84519e-05 0)
(-0.00091377 1.87187e-05 0)
(-0.000940739 1.89922e-05 0)
(-0.000968108 1.92726e-05 0)
(-0.000995891 1.95594e-05 0)
(-0.0010241 1.98528e-05 0)
(-0.00105275 2.01528e-05 0)
(-0.00108184 2.04589e-05 0)
(-0.0011114 2.07722e-05 0)
(-0.00114142 2.10916e-05 0)
(-0.00117193 2.1418e-05 0)
(-0.00120293 2.17512e-05 0)
(-0.00123444 2.20916e-05 0)
(-0.00126646 2.24392e-05 0)
(-0.00129901 2.27946e-05 0)
(-0.00133209 2.31581e-05 0)
(-0.00136573 2.35299e-05 0)
(-0.00139993 2.39103e-05 0)
(-0.00143471 2.42997e-05 0)
(-0.00147008 2.46982e-05 0)
(-0.00150606 2.51061e-05 0)
(-0.00154266 2.55236e-05 0)
(-0.0015799 2.5951e-05 0)
(-0.00161779 2.63883e-05 0)
(-0.00165634 2.68359e-05 0)
(-0.00169558 2.72938e-05 0)
(-0.00173552 2.77622e-05 0)
(-0.00177617 2.82413e-05 0)
(-0.00181755 2.87312e-05 0)
(-0.00185969 2.92322e-05 0)
(-0.00190259 2.97445e-05 0)
(-0.00194627 3.02683e-05 0)
(-0.00199075 3.08039e-05 0)
(-0.00203606 3.13515e-05 0)
(-0.00208221 3.19113e-05 0)
(-0.00212921 3.24835e-05 0)
(-0.00217709 3.30685e-05 0)
(-0.00222587 3.36667e-05 0)
(-0.00227557 3.42781e-05 0)
(-0.0023262 3.49032e-05 0)
(-0.0023778 3.5542e-05 0)
(-0.00243038 3.61948e-05 0)
(-0.00248397 3.68617e-05 0)
(-0.00253858 3.75429e-05 0)
(-0.00259424 3.82385e-05 0)
(-0.00265097 3.89489e-05 0)
(-0.0027088 3.96743e-05 0)
(-0.00276775 4.04151e-05 0)
(-0.00282784 4.11716e-05 0)
(-0.0028891 4.19442e-05 0)
(-0.00295155 4.27331e-05 0)
(-0.00301523 4.35387e-05 0)
(-0.00308015 4.43613e-05 0)
(-0.00314634 4.52011e-05 0)
(-0.00321384 4.60584e-05 0)
(-0.00328266 4.69335e-05 0)
(-0.00335284 4.78268e-05 0)
(-0.00342441 4.87385e-05 0)
(-0.00349739 4.9669e-05 0)
(-0.00357182 5.06187e-05 0)
(-0.00364773 5.15879e-05 0)
(-0.00372514 5.25771e-05 0)
(-0.0038041 5.35867e-05 0)
(-0.00388463 5.4617e-05 0)
(-0.00396676 5.56685e-05 0)
(-0.00405053 5.67415e-05 0)
(-0.00413598 5.78365e-05 0)
(-0.00422314 5.89538e-05 0)
(-0.00431205 6.00937e-05 0)
(-0.00440274 6.12566e-05 0)
(-0.00449524 6.24429e-05 0)
(-0.00458961 6.36532e-05 0)
(-0.00468587 6.48877e-05 0)
(-0.00478407 6.6147e-05 0)
(-0.00488424 6.74318e-05 0)
(-0.00498643 6.87423e-05 0)
(-0.00509068 7.00794e-05 0)
(-0.00519703 7.14433e-05 0)
(-0.00530552 7.28346e-05 0)
(-0.00541621 7.42538e-05 0)
(-0.00552913 7.57012e-05 0)
(-0.00564433 7.71774e-05 0)
(-0.00576186 7.86828e-05 0)
(-0.00588177 8.02181e-05 0)
(-0.0060041 8.17836e-05 0)
(-0.0061289 8.33802e-05 0)
(-0.00625623 8.50084e-05 0)
(-0.00638614 8.66689e-05 0)
(-0.00651868 8.83623e-05 0)
(-0.0066539 9.00892e-05 0)
(-0.00679185 9.18503e-05 0)
(-0.00693261 9.36461e-05 0)
(-0.00707621 9.54773e-05 0)
(-0.00722272 9.73443e-05 0)
(-0.00737221 9.92478e-05 0)
(-0.00752472 0.000101189 0)
(-0.00768032 0.000103167 0)
(-0.00783907 0.000105184 0)
(-0.00800104 0.000107241 0)
(-0.00816628 0.000109337 0)
(-0.00833488 0.000111475 0)
(-0.00850689 0.000113654 0)
(-0.00868239 0.000115875 0)
(-0.00886143 0.00011814 0)
(-0.00904411 0.000120448 0)
(-0.00923048 0.000122802 0)
(-0.00942062 0.0001252 0)
(-0.00961461 0.000127645 0)
(-0.00981253 0.000130137 0)
(-0.0100144 0.000132678 0)
(-0.0102204 0.000135267 0)
(-0.0104306 0.000137905 0)
(-0.010645 0.000140595 0)
(-0.0108638 0.000143335 0)
(-0.0110869 0.000146128 0)
(-0.0113146 0.000148975 0)
(-0.0115469 0.000151875 0)
(-0.0117838 0.000154831 0)
(-0.0120255 0.000157843 0)
(-0.0122721 0.000160913 0)
(-0.0125237 0.000164041 0)
(-0.0127803 0.000167229 0)
(-0.0130421 0.000170477 0)
(-0.0133092 0.000173787 0)
(-0.0135816 0.00017716 0)
(-0.0138595 0.000180596 0)
(-0.014143 0.000184096 0)
(-0.0144322 0.000187662 0)
(-0.0147272 0.000191294 0)
(-0.0150281 0.000194995 0)
(-0.0153351 0.000198764 0)
(-0.0156482 0.000202605 0)
(-0.0159675 0.000206517 0)
(-0.0162933 0.000210503 0)
(-0.0166255 0.000214563 0)
(-0.0169645 0.000218698 0)
(-0.0173101 0.000222911 0)
(-0.0176627 0.000227201 0)
(-0.0180223 0.000231571 0)
(-0.0183891 0.00023602 0)
(-0.0187631 0.000240552 0)
(-0.0191446 0.000245167 0)
(-0.0195337 0.000249867 0)
(-0.0199306 0.000254652 0)
(-0.0203353 0.000259526 0)
(-0.020748 0.000264488 0)
(-0.0211689 0.000269541 0)
(-0.0215981 0.000274687 0)
(-0.0220359 0.000279925 0)
(-0.0224822 0.000285258 0)
(-0.0229374 0.000290688 0)
(-0.0234016 0.000296216 0)
(-0.0238749 0.000301843 0)
(-0.0243576 0.000307571 0)
(-0.0248497 0.000313402 0)
(-0.0253515 0.000319338 0)
(-0.0258632 0.000325379 0)
(-0.0263848 0.000331528 0)
(-0.0269168 0.000337787 0)
(-0.0274591 0.000344156 0)
(-0.028012 0.000350639 0)
(-0.0285757 0.000357236 0)
(-0.0291504 0.000363949 0)
(-0.0297363 0.00037078 0)
(-0.0303336 0.000377731 0)
(-0.0309425 0.000384803 0)
(-0.0315633 0.000391998 0)
(-0.032196 0.000399318 0)
(-0.032841 0.000406765 0)
(-0.0334985 0.000414341 0)
(-0.0341687 0.000422048 0)
(-0.0348518 0.000429887 0)
(-0.0355481 0.00043786 0)
(-0.0362577 0.00044597 0)
(-0.036981 0.000454218 0)
(-0.0377182 0.000462605 0)
(-0.0384695 0.000471135 0)
(-0.0392351 0.000479809 0)
(-0.0400154 0.000488629 0)
(-0.0408105 0.000497596 0)
(-0.0416208 0.000506713 0)
(-0.0424465 0.000515982 0)
(-0.0432878 0.000525405 0)
(-0.0441451 0.000534983 0)
(-0.0450186 0.000544719 0)
(-0.0459086 0.000554614 0)
(-0.0468153 0.00056467 0)
(-0.0477391 0.00057489 0)
(-0.0486803 0.000585276 0)
(-0.0496391 0.000595829 0)
(-0.0506158 0.000606551 0)
(-0.0516108 0.000617445 0)
(-0.0526243 0.000628512 0)
(-0.0536567 0.000639754 0)
(-0.0547082 0.000651173 0)
(-0.0557793 0.000662771 0)
(-0.0568701 0.00067455 0)
(-0.057981 0.000686512 0)
(-0.0591124 0.000698658 0)
(-0.0602646 0.00071099 0)
(-0.0614379 0.00072351 0)
(-0.0626326 0.00073622 0)
(-0.0638492 0.000749121 0)
(-0.0650878 0.000762216 0)
(-0.066349 0.000775505 0)
(-0.067633 0.000788991 0)
(-0.0689401 0.000802675 0)
(-0.0702708 0.000816559 0)
(-0.0716255 0.000830644 0)
(-0.0730044 0.00084493 0)
(-0.0744079 0.00085942 0)
(-0.0758364 0.000874115 0)
(-0.0772904 0.000889016 0)
(-0.07877 0.000904124 0)
(-0.0802758 0.000919441 0)
(-0.0818081 0.000934967 0)
(-0.0833673 0.000950703 0)
(-0.0849538 0.000966651 0)
(-0.086568 0.00098281 0)
(-0.0882101 0.000999181 0)
(-0.0898808 0.00101576 0)
(-0.0915802 0.00103256 0)
(-0.0933089 0.00104957 0)
(-0.0950672 0.00106679 0)
(-0.0968555 0.00108423 0)
(-0.0986742 0.00110188 0)
(-0.100524 0.00111975 0)
(-0.102404 0.00113783 0)
(-0.104317 0.00115612 0)
(-0.106261 0.00117462 0)
(-0.108238 0.00119333 0)
(-0.110247 0.00121225 0)
(-0.11229 0.00123139 0)
(-0.114366 0.00125072 0)
(-0.116476 0.00127027 0)
(-0.118621 0.00129001 0)
(-0.1208 0.00130996 0)
(-0.123014 0.00133011 0)
(-0.125264 0.00135045 0)
(-0.12755 0.00137099 0)
(-0.129871 0.00139172 0)
(-0.13223 0.00141264 0)
(-0.134625 0.00143374 0)
(-0.137058 0.00145502 0)
(-0.139529 0.00147648 0)
(-0.142037 0.00149811 0)
(-0.144584 0.00151991 0)
(-0.147169 0.00154187 0)
(-0.149794 0.00156399 0)
(-0.152457 0.00158626 0)
(-0.155161 0.00160867 0)
(-0.157904 0.00163122 0)
(-0.160687 0.00165391 0)
(-0.163511 0.00167671 0)
(-0.166376 0.00169964 0)
(-0.169281 0.00172267 0)
(-0.172228 0.00174581 0)
(-0.175216 0.00176903 0)
(-0.178246 0.00179234 0)
(-0.181318 0.00181573 0)
(-0.184431 0.00183918 0)
(-0.187587 0.00186268 0)
(-0.190785 0.00188622 0)
(-0.194025 0.00190978 0)
(-0.197308 0.00193337 0)
(-0.200633 0.00195696 0)
(-0.204001 0.00198053 0)
(-0.207412 0.00200408 0)
(-0.210865 0.00202759 0)
(-0.214361 0.00205104 0)
(-0.217899 0.00207441 0)
(-0.22148 0.00209769 0)
(-0.225103 0.00212086 0)
(-0.228769 0.00214391 0)
(-0.232476 0.00216681 0)
(-0.236225 0.00218953 0)
(-0.240016 0.00221207 0)
(-0.243848 0.0022344 0)
(-0.247721 0.0022565 0)
(-0.251634 0.00227833 0)
(-0.255588 0.00229989 0)
(-0.259581 0.00232113 0)
(-0.263614 0.00234203 0)
(-0.267685 0.00236257 0)
(-0.271794 0.00238271 0)
(-0.275941 0.00240242 0)
(-0.280124 0.00242167 0)
(-0.284343 0.00244042 0)
(-0.288597 0.00245865 0)
(-0.292885 0.00247631 0)
(-0.297207 0.00249337 0)
(-0.301561 0.00250978 0)
(-0.305945 0.00252552 0)
(-0.31036 0.00254053 0)
(-0.314803 0.00255478 0)
(-0.319274 0.00256822 0)
(-0.32377 0.00258079 0)
(-0.328291 0.00259247 0)
(-0.332834 0.00260318 0)
(-0.337399 0.00261287 0)
(-0.341983 0.0026215 0)
(-0.346585 0.00262901 0)
(-0.351202 0.00263534 0)
(-0.355832 0.00264044 0)
(-0.360474 0.00264425 0)
(-0.365124 0.0026467 0)
(-0.369781 0.00264774 0)
(-0.374442 0.00264731 0)
(-0.379105 0.00264535 0)
(-0.383766 0.00264177 0)
(-0.388422 0.0026365 0)
(-0.393072 0.00262947 0)
(-0.397711 0.00262059 0)
(-0.402336 0.00260978 0)
(-0.406944 0.00259695 0)
(-0.411531 0.00258202 0)
(-0.416093 0.0025649 0)
(-0.420627 0.00254549 0)
(-0.425128 0.00252373 0)
(-0.429591 0.00249952 0)
(-0.434014 0.00247278 0)
(-0.43839 0.00244344 0)
(-0.442715 0.00241142 0)
(-0.446984 0.00237663 0)
(-0.451193 0.00233898 0)
(-0.455335 0.00229838 0)
(-0.459406 0.00225474 0)
(-0.4634 0.00220797 0)
(-0.467312 0.00215796 0)
(-0.471134 0.00210462 0)
(-0.474862 0.00204787 0)
(-0.478489 0.0019876 0)
(-0.482008 0.00192374 0)
(-0.485413 0.0018562 0)
(-0.488697 0.00178493 0)
(-0.491854 0.00170984 0)
(-0.494875 0.00163089 0)
(-0.497754 0.00154802 0)
(-0.500484 0.0014612 0)
(-0.503058 0.00137038 0)
(-0.505467 0.00127555 0)
(-0.507705 0.00117671 0)
(-0.509764 0.00107384 0)
(-0.511636 0.000966975 0)
(-0.513314 0.000856131 0)
(-0.514791 0.00074135 0)
(-0.51606 0.000622692 0)
(-0.517112 0.00050024 0)
(-0.517941 0.000374109 0)
(-0.51854 0.000244489 0)
(-0.518901 0.000111934 0)
(-0.519021 -1.90335e-05 0)
(-0.518885 -0.00016185 0)
(-0.518494 -0.000305628 0)
(-0.517841 -0.000452689 0)
(-0.516921 -0.000601837 0)
(-0.515726 -0.000752604 0)
(-0.514252 -0.000906348 0)
(-0.512495 -0.00106372 0)
(-0.510451 -0.00122309 0)
(-0.508115 -0.0013835 0)
(-0.505484 -0.00154475 0)
(-0.502553 -0.00170775 0)
(-0.499321 -0.00187279 0)
(-0.495786 -0.00203875 0)
(-0.491945 -0.00220473 0)
(-0.487797 -0.00237079 0)
(-0.48334 -0.00253755 0)
(-0.478575 -0.0027049 0)
(-0.4735 -0.00287183 0)
(-0.468115 -0.00303791 0)
(-0.462422 -0.00320336 0)
(-0.45642 -0.00336853 0)
(-0.45011 -0.00353317 0)
(-0.443495 -0.0036966 0)
(-0.436574 -0.0038586 0)
(-0.42935 -0.00401937 0)
(-0.421824 -0.00417921 0)
(-0.413999 -0.00433795 0)
(-0.405876 -0.0044951 0)
(-0.397458 -0.00465046 0)
(-0.388747 -0.0048043 0)
(-0.379745 -0.00495685 0)
(-0.370455 -0.00510784 0)
(-0.36088 -0.00525699 0)
(-0.351022 -0.0054045 0)
(-0.340884 -0.0055505 0)
(-0.330469 -0.00569481 0)
(-0.319779 -0.00583737 0)
(-0.308816 -0.00597837 0)
(-0.297585 -0.00611768 0)
(-0.286086 -0.00625519 0)
(-0.274324 -0.00639102 0)
(-0.2623 -0.00652504 0)
(-0.25002 -0.00665707 0)
(-0.237484 -0.0067872 0)
(-0.224698 -0.00691527 0)
(-0.211664 -0.00704114 0)
(-0.198386 -0.00716482 0)
(-0.184868 -0.00728605 0)
(-0.171116 -0.00740466 0)
(-0.157132 -0.00752063 0)
(-0.142923 -0.00763364 0)
(-0.128494 -0.00774353 0)
(-0.113849 -0.00785041 0)
(-0.0989961 -0.00795349 0)
(-0.0839407 -0.00805243 0)
(-0.0686826 -0.00814537 0)
(-0.0532704 -0.00823876 0)
(-0.0376459 -0.0083353 0)
(-0.0218222 -0.00842629 0)
(-0.00583404 -0.00850927 0)
(0.0103174 -0.00858675 0)
(0.0266217 -0.00865987 0)
(0.0430656 -0.00872813 0)
(0.0596573 -0.00880688 0)
(0.0764237 -0.00886185 0)
(0.0932596 -0.00890654 0)
(0.110194 -0.00894705 0)
(0.127213 -0.0089834 0)
(0.14431 -0.00901189 0)
(0.161465 -0.00903299 0)
(0.178664 -0.00904726 0)
(0.195899 -0.00905311 0)
(0.213148 -0.00905027 0)
(0.230393 -0.0090376 0)
(0.24762 -0.00901479 0)
(0.264807 -0.00898193 0)
(0.281932 -0.00893771 0)
(0.298978 -0.00888169 0)
(0.315921 -0.00881319 0)
(0.332735 -0.00873392 0)
(0.349397 -0.00864028 0)
(0.365881 -0.0085322 0)
(0.382161 -0.00840984 0)
(0.398209 -0.00827307 0)
(0.413996 -0.00812162 0)
(0.429495 -0.00795508 0)
(0.444674 -0.00777302 0)
(0.459504 -0.00757518 0)
(0.473955 -0.0073616 0)
(0.487995 -0.0071328 0)
(0.501593 -0.00688896 0)
(0.514718 -0.00662935 0)
(0.527341 -0.00635381 0)
(0.539433 -0.0060631 0)
(0.550963 -0.00575739 0)
(0.561903 -0.00543711 0)
(0.572223 -0.00510416 0)
(0.581902 -0.00476076 0)
(0.590913 -0.00440463 0)
(0.599228 -0.0040339 0)
(0.606822 -0.00365079 0)
(0.613673 -0.00325751 0)
(0.619762 -0.00285485 0)
(0.625067 -0.00244304 0)
(0.629571 -0.00202248 0)
(0.633258 -0.00159483 0)
(0.636109 -0.00116022 0)
(0.638114 -0.00072132 0)
(0.63926 -0.000284599 0)
(0.639547 0.000127738 0)
(0.63893 0.000605937 0)
(0.637444 0.00105846 0)
(0.635066 0.00151642 0)
(0.631798 0.0019753 0)
(0.62764 0.00243237 0)
(0.622587 0.0028848 0)
(0.616645 0.00333718 0)
(0.609821 0.00378617 0)
(0.602115 0.00423037 0)
(0.59354 0.0046669 0)
(0.584106 0.00509621 0)
(0.573827 0.00551727 0)
(0.562718 0.00592977 0)
(0.550794 0.00633262 0)
(0.538076 0.00672293 0)
(0.524586 0.00709997 0)
(0.510351 0.00746274 0)
(0.495397 0.00780931 0)
(0.479756 0.00813901 0)
(0.46346 0.00844905 0)
(0.446547 0.00873595 0)
(0.429054 0.00900177 0)
(0.411021 0.00924721 0)
(0.392494 0.00946688 0)
(0.373521 0.00966023 0)
(0.354154 0.00983009 0)
(0.334436 0.00997561 0)
(0.314414 0.0100948 0)
(0.294144 0.010189 0)
(0.273678 0.010258 0)
(0.253065 0.0103015 0)
(0.23236 0.0103187 0)
(0.211617 0.0103108 0)
(0.190893 0.010276 0)
(0.170239 0.0102157 0)
(0.149714 0.010128 0)
(0.129376 0.0100135 0)
(0.109279 0.00987125 0)
(0.0894838 0.00970192 0)
(0.0700347 0.00950649 0)
(0.0510288 0.00928505 0)
(0.0324677 0.00904083 0)
(0.0144042 0.00876853 0)
(-0.00308229 0.00847343 0)
(-0.0199456 0.00816639 0)
(-0.0361402 0.00783297 0)
(-0.051644 0.00747689 0)
(-0.066337 0.00709584 0)
(-0.080214 0.00669883 0)
(-0.093256 0.00627862 0)
(-0.105416 0.00585442 0)
(-0.116655 0.00540495 0)
(-0.126974 0.00493057 0)
(-0.136353 0.00444381 0)
(-0.144754 0.00396117 0)
(-0.152171 0.00346384 0)
(-0.158577 0.00294327 0)
(-0.16395 0.00244909 0)
(-0.168325 0.00195106 0)
(-0.171666 0.00143051 0)
(-0.173976 0.000933081 0)
(-0.175287 0.000442248 0)
(-0.175574 -3.02956e-05 0)
(-0.174867 -0.000537421 0)
(-0.173137 -0.00098318 0)
(-0.170401 -0.00146036 0)
(-0.166736 -0.00196381 0)
(-0.162095 -0.0024077 0)
(-0.15653 -0.00284845 0)
(-0.150095 -0.003266 0)
(-0.142824 -0.00366054 0)
(-0.134758 -0.00403275 0)
(-0.125943 -0.00436683 0)
(-0.116469 -0.00466236 0)
(-0.10637 -0.0048478 0)
(-0.0957946 -0.00498848 0)
(-0.0848252 -0.00495503 0)
(-0.0735696 -0.00513753 0)
(-0.0630526 -0.00585944 0)
(-0.0505586 -0.00725027 0)
(-0.0343233 -0.00881796 0)
(-0.0175453 -0.00698834 0)
(-0.00627209 -0.00580907 0)
(0.00749791 -0.00578697 0)
(0.0188589 -0.00685786 0)
(0.0349683 -0.00867847 0)
(0.0515746 -0.00739881 0)
(0.0644275 -0.0059674 0)
(0.0751628 -0.00524119 0)
(0.0864684 -0.00499194 0)
(0.0975765 -0.00496989 0)
(0.108235 -0.00487564 0)
(0.118448 -0.004664 0)
(0.128061 -0.00434911 0)
(0.136986 -0.00401618 0)
(0.145163 -0.00364269 0)
(0.15252 -0.00323336 0)
(0.159003 -0.00279996 0)
(0.164595 -0.00234627 0)
(0.169203 -0.00188846 0)
(0.172788 -0.0013925 0)
(0.175394 -0.000918222 0)
(0.176954 -0.00038656 0)
(0.177447 0.000101293 0)
(0.176868 0.000594496 0)
(0.175205 0.00111573 0)
(0.172475 0.00163619 0)
(0.168638 0.00214191 0)
(0.163676 0.0026616 0)
(0.157642 0.00318349 0)
(0.15052 0.00371159 0)
(0.142326 0.00423235 0)
(0.133052 0.00472548 0)
(0.122718 0.00523895 0)
(0.111363 0.00570691 0)
(0.0989849 0.00616652 0)
(0.0856307 0.00659684 0)
(0.0713225 0.00701872 0)
(0.0560974 0.00741722 0)
(0.0399752 0.00778947 0)
(0.0230584 0.00813221 0)
(0.00536899 0.00845077 0)
(-0.0130412 0.00875521 0)
(-0.0321102 0.0090283 0)
(-0.0517594 0.00926835 0)
(-0.0718984 0.00949251 0)
(-0.0925465 0.00969465 0)
(-0.113606 0.00986671 0)
(-0.135015 0.010009 0)
(-0.156703 0.0101186 0)
(-0.178603 0.0101972 0)
(-0.200646 0.0102451 0)
(-0.222765 0.0102634 0)
(-0.244896 0.0102542 0)
(-0.266974 0.0102163 0)
(-0.288934 0.0101511 0)
(-0.310711 0.0100575 0)
(-0.332244 0.00993647 0)
(-0.353469 0.00978586 0)
(-0.374324 0.0096052 0)
(-0.394746 0.00939554 0)
(-0.41467 0.00915642 0)
(-0.434035 0.00888822 0)
(-0.45278 0.00859231 0)
(-0.470848 0.00827005 0)
(-0.488187 0.00792296 0)
(-0.50475 0.00755296 0)
(-0.520494 0.00716254 0)
(-0.535378 0.00675415 0)
(-0.549362 0.00632869 0)
(-0.562413 0.00588801 0)
(-0.574503 0.00543518 0)
(-0.585603 0.00497146 0)
(-0.595689 0.00449486 0)
(-0.604736 0.00400673 0)
(-0.612726 0.003512 0)
(-0.619647 0.00301599 0)
(-0.62549 0.00251606 0)
(-0.630242 0.00200916 0)
(-0.633892 0.00150218 0)
(-0.63644 0.000995019 0)
(-0.63789 0.000485549 0)
(-0.638237 -2.99919e-05 0)
(-0.63748 -0.000507339 0)
(-0.635642 -0.00100265 0)
(-0.632716 -0.00149428 0)
(-0.628713 -0.00198063 0)
(-0.623652 -0.00246086 0)
(-0.617554 -0.00293129 0)
(-0.61044 -0.0033898 0)
(-0.60233 -0.00383812 0)
(-0.593249 -0.00427271 0)
(-0.583223 -0.0046947 0)
(-0.572282 -0.00510234 0)
(-0.560458 -0.00549452 0)
(-0.54779 -0.00586958 0)
(-0.534312 -0.00622634 0)
(-0.520064 -0.00656417 0)
(-0.505087 -0.00688282 0)
(-0.489423 -0.00718196 0)
(-0.473113 -0.00746144 0)
(-0.456203 -0.00772011 0)
(-0.438739 -0.00795675 0)
(-0.42077 -0.00817167 0)
(-0.402341 -0.00836547 0)
(-0.383497 -0.00853788 0)
(-0.36429 -0.00868691 0)
(-0.344766 -0.00881666 0)
(-0.324965 -0.00892646 0)
(-0.304935 -0.00901653 0)
(-0.284715 -0.00908793 0)
(-0.264346 -0.00914243 0)
(-0.243862 -0.00917966 0)
(-0.223308 -0.00919033 0)
(-0.202729 -0.00919311 0)
(-0.182152 -0.00917878 0)
(-0.161608 -0.00915203 0)
(-0.141121 -0.00911401 0)
(-0.120722 -0.0090627 0)
(-0.100446 -0.00900407 0)
(-0.0802704 -0.00893108 0)
(-0.060262 -0.00883487 0)
(-0.0405193 -0.00872678 0)
(-0.0209787 -0.00862147 0)
(-0.00166839 -0.00850976 0)
(0.0174006 -0.00839566 0)
(0.036214 -0.00827015 0)
(0.0547594 -0.00813235 0)
(0.0729466 -0.00799426 0)
(0.0908773 -0.00786172 0)
(0.108514 -0.0077224 0)
(0.125831 -0.00757692 0)
(0.142826 -0.00742815 0)
(0.159492 -0.00727604 0)
(0.175816 -0.00711877 0)
(0.191786 -0.00695732 0)
(0.207395 -0.00679341 0)
(0.222638 -0.00662705 0)
(0.237508 -0.00645815 0)
(0.252002 -0.00628776 0)
(0.266112 -0.00611514 0)
(0.279834 -0.00594111 0)
(0.293165 -0.0057652 0)
(0.306101 -0.00558855 0)
(0.318642 -0.00541162 0)
(0.330785 -0.00523322 0)
(0.342526 -0.00505323 0)
(0.353859 -0.00487316 0)
(0.364787 -0.00469245 0)
(0.375308 -0.00451149 0)
(0.385419 -0.0043303 0)
(0.395119 -0.00414937 0)
(0.40441 -0.00396823 0)
(0.413288 -0.00378665 0)
(0.421753 -0.00360425 0)
(0.429804 -0.00342209 0)
(0.437441 -0.00324009 0)
(0.444663 -0.00305765 0)
(0.45147 -0.00287595 0)
(0.457862 -0.00269483 0)
(0.463839 -0.00251329 0)
(0.469399 -0.00233208 0)
(0.474543 -0.00215111 0)
(0.479272 -0.00197095 0)
(0.483588 -0.00179083 0)
(0.487492 -0.00161294 0)
(0.490985 -0.0014349 0)
(0.49407 -0.00125916 0)
(0.496749 -0.00108369 0)
(0.499026 -0.000911247 0)
(0.500904 -0.00073947 0)
(0.502389 -0.000571419 0)
(0.503486 -0.000405867 0)
(0.504203 -0.000243797 0)
(0.504551 -8.19497e-05 0)
(0.504526 6.98037e-05 0)
(0.504145 0.000219986 0)
(0.503413 0.000367469 0)
(0.502341 0.000510781 0)
(0.500939 0.0006497 0)
(0.499217 0.000783621 0)
(0.497187 0.000912686 0)
(0.49486 0.00103654 0)
(0.492249 0.00115513 0)
(0.489364 0.00126864 0)
(0.486217 0.00137698 0)
(0.482821 0.00148016 0)
(0.479187 0.00157818 0)
(0.475326 0.00167094 0)
(0.471252 0.00175827 0)
(0.466977 0.00184048 0)
(0.462511 0.00191779 0)
(0.457866 0.00199007 0)
(0.453055 0.0020575 0)
(0.448087 0.00212009 0)
(0.442975 0.00217807 0)
(0.437727 0.0022316 0)
(0.432355 0.00228081 0)
(0.426868 0.00232586 0)
(0.421276 0.00236676 0)
(0.415588 0.00240363 0)
(0.409815 0.00243657 0)
(0.403964 0.00246571 0)
(0.398045 0.00249119 0)
(0.392066 0.00251313 0)
(0.386036 0.00253158 0)
(0.379962 0.00254663 0)
(0.373851 0.00255846 0)
(0.367713 0.00256727 0)
(0.361553 0.00257314 0)
(0.355379 0.00257607 0)
(0.349198 0.00257607 0)
(0.343016 0.00257334 0)
(0.336839 0.00256815 0)
(0.330673 0.0025607 0)
(0.324524 0.002551 0)
(0.318398 0.00253904 0)
(0.312298 0.00252493 0)
(0.306231 0.00250882 0)
(0.300201 0.00249089 0)
(0.294212 0.00247125 0)
(0.288268 0.00244996 0)
(0.282374 0.00242716 0)
(0.276533 0.00240298 0)
(0.270748 0.00237757 0)
(0.265021 0.00235103 0)
(0.259356 0.00232348 0)
(0.253755 0.00229498 0)
(0.248221 0.0022656 0)
(0.242755 0.00223542 0)
(0.237359 0.00220451 0)
(0.232035 0.00217297 0)
(0.226785 0.0021409 0)
(0.22161 0.00210841 0)
(0.216511 0.00207552 0)
(0.211489 0.00204227 0)
(0.206545 0.00200872 0)
(0.20168 0.00197497 0)
(0.196894 0.00194107 0)
(0.192187 0.00190709 0)
(0.187561 0.00187308 0)
(0.183014 0.00183905 0)
(0.178548 0.00180505 0)
(0.174162 0.00177107 0)
(0.169856 0.00173716 0)
(0.16563 0.00170338 0)
(0.161483 0.00166979 0)
(0.157416 0.00163644 0)
(0.153429 0.00160331 0)
(0.149519 0.00157041 0)
(0.145688 0.00153775 0)
(0.141934 0.00150539 0)
(0.138257 0.00147336 0)
(0.134656 0.00144169 0)
(0.13113 0.00141035 0)
(0.127679 0.00137935 0)
(0.124302 0.00134868 0)
(0.120998 0.0013184 0)
(0.117765 0.00128854 0)
(0.114605 0.0012591 0)
(0.111514 0.00123008 0)
(0.108493 0.00120147 0)
(0.105541 0.00117328 0)
(0.102656 0.00114552 0)
(0.0998371 0.0011182 0)
(0.097084 0.00109133 0)
(0.0943954 0.00106491 0)
(0.0917704 0.00103894 0)
(0.0892077 0.00101341 0)
(0.0867065 0.000988333 0)
(0.0842656 0.00096371 0)
(0.0818839 0.000939542 0)
(0.0795606 0.000915828 0)
(0.0772945 0.000892567 0)
(0.0750845 0.000869758 0)
(0.0729297 0.000847397 0)
(0.0708289 0.000825479 0)
(0.0687811 0.000804 0)
(0.0667854 0.000782958 0)
(0.0648406 0.00076235 0)
(0.0629459 0.000742176 0)
(0.0611001 0.000722431 0)
(0.0593022 0.00070311 0)
(0.0575514 0.000684209 0)
(0.0558465 0.000665722 0)
(0.0541867 0.000647644 0)
(0.0525708 0.00062997 0)
(0.0509981 0.000612695 0)
(0.0494675 0.000595814 0)
(0.0479781 0.000579321 0)
(0.046529 0.000563212 0)
(0.0451192 0.000547482 0)
(0.043748 0.000532124 0)
(0.0424144 0.000517133 0)
(0.0411176 0.000502502 0)
(0.0398566 0.000488224 0)
(0.0386307 0.000474294 0)
(0.0374389 0.000460706 0)
(0.0362806 0.000447453 0)
(0.0351548 0.00043453 0)
(0.0340609 0.000421931 0)
(0.0329979 0.00040965 0)
(0.0319653 0.000397679 0)
(0.0309622 0.000386015 0)
(0.0299878 0.000374651 0)
(0.0290416 0.000363581 0)
(0.0281227 0.000352799 0)
(0.0272304 0.0003423 0)
(0.0263642 0.000332076 0)
(0.0255233 0.000322123 0)
(0.0247071 0.000312436 0)
(0.0239149 0.000303009 0)
(0.0231461 0.000293837 0)
(0.0224 0.000284912 0)
(0.0216762 0.000276229 0)
(0.020974 0.000267783 0)
(0.0202928 0.00025957 0)
(0.0196321 0.000251584 0)
(0.0189913 0.00024382 0)
(0.0183698 0.000236273 0)
(0.0177672 0.000228936 0)
(0.017183 0.000221806 0)
(0.0166165 0.000214878 0)
(0.0160674 0.000208148 0)
(0.0155351 0.000201609 0)
(0.0150193 0.000195258 0)
(0.0145193 0.00018909 0)
(0.0140348 0.000183099 0)
(0.0135654 0.000177284 0)
(0.0131106 0.000171638 0)
(0.0126699 0.000166158 0)
(0.0122431 0.000160839 0)
(0.0118296 0.000155677 0)
(0.0114292 0.000150668 0)
(0.0110414 0.000145808 0)
(0.0106658 0.000141094 0)
(0.0103022 0.000136522 0)
(0.0099501 0.000132088 0)
(0.00960922 0.000127788 0)
(0.00927921 0.000123618 0)
(0.00895976 0.000119576 0)
(0.00865056 0.000115658 0)
(0.00835128 0.000111861 0)
(0.00806164 0.000108181 0)
(0.00778134 0.000104614 0)
(0.00751011 0.000101159 0)
(0.00724766 9.78118e-05 0)
(0.00699372 9.45703e-05 0)
(0.00674803 9.1431e-05 0)
(0.00651034 8.83909e-05 0)
(0.0062804 8.54468e-05 0)
(0.00605797 8.25963e-05 0)
(0.00584281 7.98373e-05 0)
(0.0056347 7.71676e-05 0)
(0.00543342 7.45846e-05 0)
(0.00523873 7.20855e-05 0)
(0.00505045 6.96677e-05 0)
(0.00486835 6.73287e-05 0)
(0.00469225 6.50664e-05 0)
(0.00452195 6.2879e-05 0)
(0.00435727 6.07644e-05 0)
(0.00419801 5.87204e-05 0)
(0.004044 5.67447e-05 0)
(0.00389506 5.48352e-05 0)
(0.00375104 5.29902e-05 0)
(0.00361177 5.12081e-05 0)
(0.00347709 4.94873e-05 0)
(0.00334684 4.7826e-05 0)
(0.00322087 4.62223e-05 0)
(0.00309904 4.46743e-05 0)
(0.0029812 4.31803e-05 0)
(0.00286723 4.1739e-05 0)
(0.00275697 4.03492e-05 0)
(0.00265031 3.90095e-05 0)
(0.00254711 3.77187e-05 0)
(0.00244725 3.64748e-05 0)
(0.00235061 3.52762e-05 0)
(0.00225708 3.41214e-05 0)
(0.00216654 3.30096e-05 0)
(0.00207888 3.19398e-05 0)
(0.00199399 3.0911e-05 0)
(0.00191177 2.99222e-05 0)
(0.00183212 2.8972e-05 0)
(0.00175493 2.80592e-05 0)
(0.00168011 2.71828e-05 0)
(0.00160757 2.63421e-05 0)
(0.00153721 2.55363e-05 0)
(0.00146894 2.47646e-05 0)
(0.00140267 2.40257e-05 0)
(0.00133833 2.33186e-05 0)
(0.00127582 2.26421e-05 0)
(0.00121507 2.19961e-05 0)
(0.00115599 2.13798e-05 0)
(0.00109852 2.07927e-05 0)
(0.00104257 2.02339e-05 0)
(0.00098806 1.97035e-05 0)
(0.000934928 1.92004e-05 0)
(0.000883098 1.87239e-05 0)
(0.000832501 1.82727e-05 0)
(0.000783069 1.7847e-05 0)
(0.000734733 1.74466e-05 0)
(0.000687428 1.70711e-05 0)
(0.000641087 1.67196e-05 0)
(0.000595645 1.6392e-05 0)
(0.000551039 1.6088e-05 0)
(0.000507206 1.5807e-05 0)
(0.000464085 1.55483e-05 0)
(0.000421616 1.5312e-05 0)
(0.000379737 1.50978e-05 0)
(0.000338389 1.49056e-05 0)
(0.000297512 1.47353e-05 0)
(0.000257047 1.45867e-05 0)
(0.000216935 1.44597e-05 0)
(0.000177116 1.43538e-05 0)
(0.000137534 1.42693e-05 0)
(9.81282e-05 1.42056e-05 0)
(5.88404e-05 1.41622e-05 0)
(1.96097e-05 1.41453e-05 0)
(1.6949e-05 5.21382e-05 0)
(2.30545e-06 6.88619e-05 0)
(-3.92048e-05 5.54941e-05 0)
(-6.56553e-05 4.94483e-05 0)
(-9.22284e-05 4.57471e-05 0)
(-0.000113639 4.15409e-05 0)
(-0.000134726 3.8888e-05 0)
(-0.000154264 3.73269e-05 0)
(-0.000173637 3.67387e-05 0)
(-0.000192687 3.68247e-05 0)
(-0.000211724 3.73726e-05 0)
(-0.0002308 3.82068e-05 0)
(-0.000249998 3.92123e-05 0)
(-0.000269353 4.0311e-05 0)
(-0.000288892 4.14319e-05 0)
(-0.000308657 4.25251e-05 0)
(-0.000328669 4.35572e-05 0)
(-0.000348945 4.44995e-05 0)
(-0.000369498 4.53386e-05 0)
(-0.00039033 4.60651e-05 0)
(-0.000411433 4.66863e-05 0)
(-0.000432813 4.72145e-05 0)
(-0.000454417 4.76333e-05 0)
(-0.000476268 4.80228e-05 0)
(-0.000498399 4.83318e-05 0)
(-0.00052075 4.86287e-05 0)
(-0.000543328 4.8912e-05 0)
(-0.000566128 4.91962e-05 0)
(-0.000589156 4.94892e-05 0)
(-0.000612413 4.98056e-05 0)
(-0.000635904 5.01451e-05 0)
(-0.000659637 5.05196e-05 0)
(-0.000683619 5.09291e-05 0)
(-0.000707858 5.13777e-05 0)
(-0.000732366 5.18663e-05 0)
(-0.000757151 5.23959e-05 0)
(-0.000782227 5.29657e-05 0)
(-0.000807606 5.35749e-05 0)
(-0.000833298 5.4222e-05 0)
(-0.00085932 5.49054e-05 0)
(-0.000885683 5.56225e-05 0)
(-0.000912402 5.63715e-05 0)
(-0.00093949 5.71506e-05 0)
(-0.000966962 5.79575e-05 0)
(-0.000994831 5.87906e-05 0)
(-0.00102311 5.96482e-05 0)
(-0.00105181 6.05296e-05 0)
(-0.00108095 6.14336e-05 0)
(-0.00111053 6.23602e-05 0)
(-0.00114058 6.33085e-05 0)
(-0.00117109 6.42788e-05 0)
(-0.0012021 6.5271e-05 0)
(-0.0012336 6.62856e-05 0)
(-0.00126561 6.73233e-05 0)
(-0.00129815 6.83851e-05 0)
(-0.00133122 6.94715e-05 0)
(-0.00136485 7.05835e-05 0)
(-0.00139903 7.17217e-05 0)
(-0.0014338 7.28871e-05 0)
(-0.00146915 7.40805e-05 0)
(-0.00150511 7.53024e-05 0)
(-0.00154169 7.65536e-05 0)
(-0.0015789 7.78345e-05 0)
(-0.00161677 7.91456e-05 0)
(-0.0016553 8.04875e-05 0)
(-0.00169452 8.18605e-05 0)
(-0.00173443 8.32651e-05 0)
(-0.00177506 8.47018e-05 0)
(-0.00181642 8.61712e-05 0)
(-0.00185852 8.76738e-05 0)
(-0.0019014 8.92104e-05 0)
(-0.00194505 9.07816e-05 0)
(-0.00198951 9.2388e-05 0)
(-0.00203479 9.40304e-05 0)
(-0.00208091 9.57095e-05 0)
(-0.00212789 9.74261e-05 0)
(-0.00217574 9.9181e-05 0)
(-0.00222449 0.000100975 0)
(-0.00227416 0.000102809 0)
(-0.00232477 0.000104684 0)
(-0.00237634 0.0001066 0)
(-0.00242889 0.000108557 0)
(-0.00248245 0.000110557 0)
(-0.00253703 0.0001126 0)
(-0.00259266 0.000114686 0)
(-0.00264936 0.000116817 0)
(-0.00270715 0.000118993 0)
(-0.00276607 0.000121215 0)
(-0.00282612 0.000123484 0)
(-0.00288735 0.000125801 0)
(-0.00294977 0.000128167 0)
(-0.00301341 0.000130583 0)
(-0.00307829 0.00013305 0)
(-0.00314445 0.000135569 0)
(-0.00321191 0.00013814 0)
(-0.00328069 0.000140765 0)
(-0.00335083 0.000143444 0)
(-0.00342236 0.000146179 0)
(-0.0034953 0.000148969 0)
(-0.00356969 0.000151818 0)
(-0.00364556 0.000154725 0)
(-0.00372293 0.000157692 0)
(-0.00380184 0.00016072 0)
(-0.00388233 0.00016381 0)
(-0.00396442 0.000166964 0)
(-0.00404815 0.000170182 0)
(-0.00413355 0.000173466 0)
(-0.00422066 0.000176817 0)
(-0.00430952 0.000180236 0)
(-0.00440016 0.000183724 0)
(-0.00449261 0.000187282 0)
(-0.00458693 0.000190911 0)
(-0.00468314 0.000194614 0)
(-0.00478128 0.000198391 0)
(-0.0048814 0.000202244 0)
(-0.00498354 0.000206175 0)
(-0.00508773 0.000210185 0)