/*--------------------------------*- C++ -*----------------------------------*\
| =========                 |                                                 |
| \\      /  F ield         | OpenFOAM: The Open Source CFD Toolbox           |
|  \\    /   O peration     | Version:  2412                                  |
|   \\  /    A nd           | Website:  www.openfoam.com                      |
|    \\/     M anipulation  |                                                 |
\*---------------------------------------------------------------------------*/
FoamFile
{
    version     2.0;
    format      ascii;
    arch        "LSB;label=32;scalar=64";
    class       volVectorField;
    location    "43";
    object      U;
}
// * * * * * * * * * * * * * * * * * * * * * * * * * * * * * * * * * * * * * //

dimensions      [0 1 -1 0 0 0 0];

internalField   nonuniform List<vector> 
6400
(
(-4.37033e-07 4.01407e-07 0)
(-3.46828e-07 -1.17297e-07 0)
(2.0748e-06 -9.12514e-07 0)
(6.72837e-06 -1.13463e-06 0)
(1.34449e-05 -1.66554e-06 0)
(2.08516e-05 -1.4803e-06 0)
(2.88178e-05 -1.76397e-06 0)
(3.59703e-05 -1.32219e-06 0)
(4.23416e-05 -1.36404e-06 0)
(4.68305e-05 -8.16744e-07 0)
(4.9646e-05 -6.81373e-07 0)
(5.01069e-05 -1.58019e-07 0)
(4.85728e-05 5.10006e-08 0)
(4.47907e-05 4.56165e-07 0)
(3.92089e-05 6.35447e-07 0)
(3.18976e-05 8.79945e-07 0)
(2.3325e-05 9.95332e-07 0)
(1.3747e-05 1.12101e-06 0)
(3.61497e-06 1.16324e-06 0)
(-6.76059e-06 1.1707e-06 0)
(-1.70333e-05 1.11286e-06 0)
(-2.69731e-05 1.01971e-06 0)
(-3.63738e-05 8.97063e-07 0)
(-4.51094e-05 7.66709e-07 0)
(-5.30859e-05 6.36661e-07 0)
(-6.02647e-05 5.152e-07 0)
(-6.66453e-05 4.05988e-07 0)
(-7.22732e-05 3.1e-07 0)
(-7.72207e-05 2.29635e-07 0)
(-8.15852e-05 1.63523e-07 0)
(-8.54723e-05 1.16594e-07 0)
(-8.89949e-05 8.56225e-08 0)
(-9.22593e-05 7.46613e-08 0)
(-9.53682e-05 7.72737e-08 0)
(-9.84081e-05 9.52895e-08 0)
(-0.000101457 1.2074e-07 0)
(-0.000104576 1.54016e-07 0)
(-0.000107813 1.9033e-07 0)
(-0.000111203 2.32252e-07 0)
(-0.000114775 2.72454e-07 0)
(-0.000118542 3.06795e-07 0)
(-0.000122496 3.40616e-07 0)
(-0.000126641 3.76962e-07 0)
(-0.000130948 4.03797e-07 0)
(-0.000135384 4.22235e-07 0)
(-0.000139904 4.3324e-07 0)
(-0.000144452 4.35579e-07 0)
(-0.000148962 4.29653e-07 0)
(-0.000153361 4.12387e-07 0)
(-0.000157572 3.8604e-07 0)
(-0.000161511 3.46579e-07 0)
(-0.000165097 2.97869e-07 0)
(-0.000168248 2.35504e-07 0)
(-0.000170882 1.64597e-07 0)
(-0.000172923 8.14112e-08 0)
(-0.000174292 -9.38111e-09 0)
(-0.000174917 -1.1125e-07 0)
(-0.000174725 -2.19946e-07 0)
(-0.000173647 -3.38629e-07 0)
(-0.000171615 -4.62221e-07 0)
(-0.000168565 -5.95471e-07 0)
(-0.000164438 -7.25402e-07 0)
(-0.000159182 -8.6532e-07 0)
(-0.000152755 -1.00894e-06 0)
(-0.000145119 -1.17656e-06 0)
(-0.00013628 -1.29716e-06 0)
(-0.000126282 -1.44412e-06 0)
(-0.000115181 -1.54698e-06 0)
(-0.000103094 -1.68706e-06 0)
(-9.02031e-05 -1.72564e-06 0)
(-7.67314e-05 -1.81197e-06 0)
(-6.30076e-05 -1.74702e-06 0)
(-4.93718e-05 -1.73331e-06 0)
(-3.63166e-05 -1.51491e-06 0)
(-2.43092e-05 -1.32711e-06 0)
(-1.39976e-05 -8.91238e-07 0)
(-5.93851e-06 -4.46205e-07 0)
(-7.57903e-07 2.20854e-07 0)
(1.35777e-06 8.1717e-07 0)
(7.44775e-07 1.03324e-06 0)
(-2.23381e-07 -1.86312e-08 0)
(2.96499e-06 -4.20957e-06 0)
(1.07969e-05 -8.53532e-06 0)
(2.42574e-05 -1.28861e-05 0)
(4.05973e-05 -1.47694e-05 0)
(5.97919e-05 -1.6526e-05 0)
(7.82235e-05 -1.54695e-05 0)
(9.62252e-05 -1.45512e-05 0)
(0.000110318 -1.12265e-05 0)
(0.000121218 -8.30747e-06 0)
(0.000126326 -3.80523e-06 0)
(0.000126687 7.15574e-08 0)
(0.000120857 4.61722e-06 0)
(0.000110121 8.33297e-06 0)
(9.41183e-05 1.19527e-05 0)
(7.41997e-05 1.46737e-05 0)
(5.07e-05 1.69158e-05 0)
(2.48765e-05 1.83423e-05 0)
(-2.58373e-06 1.91774e-05 0)
(-3.06143e-05 1.93304e-05 0)
(-5.85221e-05 1.89426e-05 0)
(-8.55565e-05 1.8063e-05 0)
(-0.000111245 1.68426e-05 0)
(-0.000135192 1.53932e-05 0)
(-0.000157187 1.38404e-05 0)
(-0.000177113 1.228e-05 0)
(-0.000194988 1.07909e-05 0)
(-0.000210907 9.43026e-06 0)
(-0.000225059 8.2346e-06 0)
(-0.000237673 7.23586e-06 0)
(-0.000249022 6.44252e-06 0)
(-0.00025938 5.86618e-06 0)
(-0.000269029 5.48965e-06 0)
(-0.00027822 5.30593e-06 0)
(-0.000287193 5.28008e-06 0)
(-0.00029614 5.3938e-06 0)
(-0.000305235 5.60994e-06 0)
(-0.000314597 5.90877e-06 0)
(-0.000324335 6.25413e-06 0)
(-0.000334503 6.62907e-06 0)
(-0.000345141 7.01195e-06 0)
(-0.000356235 7.37792e-06 0)
(-0.000367773 7.69732e-06 0)
(-0.000379678 7.95918e-06 0)
(-0.000391857 8.13314e-06 0)
(-0.000404183 8.20147e-06 0)
(-0.0004165 8.14779e-06 0)
(-0.000428631 7.95579e-06 0)
(-0.000440375 7.61945e-06 0)
(-0.000451523 7.12601e-06 0)
(-0.000461851 6.4798e-06 0)
(-0.000471141 5.67122e-06 0)
(-0.000479164 4.71112e-06 0)
(-0.000485704 3.59402e-06 0)
(-0.000490545 2.33538e-06 0)
(-0.000493483 9.30381e-07 0)
(-0.000494317 -6.06242e-07 0)
(-0.000492857 -2.27685e-06 0)
(-0.000488923 -4.06429e-06 0)
(-0.000482342 -5.97286e-06 0)
(-0.000472957 -7.97686e-06 0)
(-0.000460626 -1.00875e-05 0)
(-0.000445231 -1.22584e-05 0)
(-0.000426697 -1.45202e-05 0)
(-0.000404977 -1.67369e-05 0)
(-0.000380135 -1.89549e-05 0)
(-0.000352295 -2.09738e-05 0)
(-0.000321686 -2.29255e-05 0)
(-0.000288661 -2.44295e-05 0)
(-0.000253716 -2.57152e-05 0)
(-0.000217509 -2.62435e-05 0)
(-0.000180802 -2.63822e-05 0)
(-0.0001446 -2.54254e-05 0)
(-0.000109908 -2.38774e-05 0)
(-7.80453e-05 -2.09559e-05 0)
(-5.01659e-05 -1.72639e-05 0)
(-2.77014e-05 -1.2188e-05 0)
(-1.15548e-05 -6.60334e-06 0)
(-2.40659e-06 -9.22522e-07 0)
(3.32636e-07 2.05952e-06 0)
(3.46503e-07 -3.16803e-06 0)
(6.99548e-06 -1.31097e-05 0)
(2.12813e-05 -2.43921e-05 0)
(4.1023e-05 -3.21257e-05 0)
(6.64367e-05 -3.8739e-05 0)
(9.23545e-05 -3.96606e-05 0)
(0.000119647 -3.95389e-05 0)
(0.000142615 -3.38747e-05 0)
(0.000162636 -2.78219e-05 0)
(0.000174818 -1.76871e-05 0)
(0.000180995 -7.99886e-06 0)
(0.000177882 3.76593e-06 0)
(0.000167595 1.42695e-05 0)
(0.000148649 2.49582e-05 0)
(0.000123282 3.3744e-05 0)
(9.14345e-05 4.14056e-05 0)
(5.51885e-05 4.69512e-05 0)
(1.52604e-05 5.08714e-05 0)
(-2.65873e-05 5.28791e-05 0)
(-6.9363e-05 5.33301e-05 0)
(-0.000111703 5.22886e-05 0)
(-0.000152753 5.00797e-05 0)
(-0.000191678 4.69486e-05 0)
(-0.000227997 4.32234e-05 0)
(-0.000261361 3.91765e-05 0)
(-0.00029166 3.50739e-05 0)
(-0.000318908 3.11227e-05 0)
(-0.000343281 2.74868e-05 0)
(-0.000365043 2.42852e-05 0)
(-0.00038455 2.15855e-05 0)
(-0.000402186 1.94381e-05 0)
(-0.00041837 1.78377e-05 0)
(-0.000433499 1.67772e-05 0)
(-0.000447963 1.61966e-05 0)
(-0.000462092 1.60514e-05 0)
(-0.000476195 1.62558e-05 0)
(-0.000490504 1.6753e-05 0)
(-0.000505225 1.74569e-05 0)
(-0.000520484 1.83095e-05 0)
(-0.000536382 1.92341e-05 0)
(-0.000552947 2.01811e-05 0)
(-0.000570189 2.10744e-05 0)
(-0.000588033 2.18539e-05 0)
(-0.000606383 2.24569e-05 0)
(-0.000625079 2.28308e-05 0)
(-0.000643925 2.29179e-05 0)
(-0.000662676 2.26699e-05 0)
(-0.000681052 2.20472e-05 0)
(-0.000698743 2.10178e-05 0)
(-0.000715421 1.95744e-05 0)
(-0.000730752 1.76937e-05 0)
(-0.000744377 1.53843e-05 0)
(-0.000755955 1.26383e-05 0)
(-0.00076514 9.47996e-06 0)
(-0.000771603 5.90639e-06 0)
(-0.000775019 1.94937e-06 0)
(-0.000775086 -2.38483e-06 0)
(-0.000771519 -7.05686e-06 0)
(-0.000764059 -1.20632e-05 0)
(-0.000752458 -1.73591e-05 0)
(-0.000736502 -2.29438e-05 0)
(-0.000716004 -2.8732e-05 0)
(-0.000690845 -3.47286e-05 0)
(-0.000660943 -4.07498e-05 0)
(-0.00062635 -4.68177e-05 0)
(-0.000587159 -5.25743e-05 0)
(-0.000543685 -5.81308e-05 0)
(-0.000496273 -6.2886e-05 0)
(-0.000445591 -6.70861e-05 0)
(-0.000392349 -6.98104e-05 0)
(-0.00033758 -7.15498e-05 0)
(-0.000282412 -7.10695e-05 0)
(-0.000228192 -6.91529e-05 0)
(-0.000176435 -6.43504e-05 0)
(-0.00012866 -5.77302e-05 0)
(-8.6606e-05 -4.79411e-05 0)
(-5.16708e-05 -3.63972e-05 0)
(-2.53001e-05 -2.26676e-05 0)
(-8.20375e-06 -9.35854e-06 0)
(-4.30147e-07 2.6597e-07 0)
(6.10141e-07 -8.20501e-06 0)
(1.12454e-05 -2.78952e-05 0)
(2.95257e-05 -4.50472e-05 0)
(5.65214e-05 -6.04492e-05 0)
(8.59836e-05 -6.75844e-05 0)
(0.000119202 -7.19707e-05 0)
(0.000148664 -6.68639e-05 0)
(0.000176628 -5.96945e-05 0)
(0.000195765 -4.45703e-05 0)
(0.000208979 -2.88727e-05 0)
(0.000210659 -8.34512e-06 0)
(0.00020405 1.10266e-05 0)
(0.000185855 3.18293e-05 0)
(0.000159358 4.99599e-05 0)
(0.00012347 6.67647e-05 0)
(8.12731e-05 7.99528e-05 0)
(3.31241e-05 9.03063e-05 0)
(-1.84031e-05 9.69552e-05 0)
(-7.23063e-05 0.000100526 0)
(-0.000126606 0.00010098 0)
(-0.000180211 9.89083e-05 0)
(-0.000231778 9.46746e-05 0)
(-0.000280547 8.88658e-05 0)
(-0.000325837 8.19668e-05 0)
(-0.000367354 7.4505e-05 0)
(-0.000404948 6.69224e-05 0)
(-0.00043873 5.9622e-05 0)
(-0.000468931 5.29019e-05 0)
(-0.000495932 4.69776e-05 0)
(-0.000520169 4.19954e-05 0)
(-0.000542157 3.80145e-05 0)
(-0.000562398 3.50578e-05 0)
(-0.000581411 3.3065e-05 0)
(-0.00059965 3.19775e-05 0)
(-0.000617558 3.16651e-05 0)
(-0.000635483 3.2022e-05 0)
(-0.000653741 3.2896e-05 0)
(-0.000672549 3.41733e-05 0)
(-0.000692093 3.57057e-05 0)
(-0.000712455 3.73871e-05 0)
(-0.000733694 3.90826e-05 0)
(-0.000755769 4.06855e-05 0)
(-0.000778604 4.20604e-05 0)
(-0.000802038 4.31038e-05 0)
(-0.00082587 4.3696e-05 0)
(-0.000849828 4.3745e-05 0)
(-0.000873594 4.31577e-05 0)
(-0.000896803 4.18603e-05 0)
(-0.000919054 3.97968e-05 0)
(-0.000939907 3.69094e-05 0)
(-0.000958898 3.31972e-05 0)
(-0.000975572 2.86427e-05 0)
(-0.000989457 2.32697e-05 0)
(-0.00100011 1.70853e-05 0)
(-0.0010071 1.01436e-05 0)
(-0.00101001 2.45949e-06 0)
(-0.00100846 -5.91179e-06 0)
(-0.00100209 -1.4954e-05 0)
(-0.000990555 -2.45837e-05 0)
(-0.000973593 -3.47665e-05 0)
(-0.000950954 -4.53864e-05 0)
(-0.000922486 -5.64153e-05 0)
(-0.00088806 -6.76206e-05 0)
(-0.000847738 -7.89838e-05 0)
(-0.000801557 -9.00432e-05 0)
(-0.000749889 -0.00010084 0)
(-0.000693012 -0.000110577 0)
(-0.000631727 -0.000119479 0)
(-0.000566638 -0.000126276 0)
(-0.000499015 -0.000131524 0)
(-0.000429825 -0.000133456 0)
(-0.000360739 -0.000133117 0)
(-0.000293105 -0.000128291 0)
(-0.000228794 -0.000120572 0)
(-0.000169394 -0.000107646 0)
(-0.000116685 -9.16176e-05 0)
(-7.22418e-05 -7.08159e-05 0)
(-3.73999e-05 -4.80938e-05 0)
(-1.35301e-05 -2.41838e-05 0)
(-1.05543e-06 -4.67374e-06 0)
(1.11701e-06 -1.56024e-05 0)
(1.36004e-05 -4.52179e-05 0)
(3.70449e-05 -7.28766e-05 0)
(6.61106e-05 -9.08099e-05 0)
(0.000101661 -0.000104248 0)
(0.000134712 -0.000104148 0)
(0.00016839 -9.98245e-05 0)
(0.000193015 -8.25815e-05 0)
(0.000212809 -6.29554e-05 0)
(0.000219436 -3.4183e-05 0)
(0.000217704 -5.73244e-06 0)
(0.000201928 2.67681e-05 0)
(0.000176873 5.62878e-05 0)
(0.000139693 8.52379e-05 0)
(9.47544e-05 0.000109253 0)
(4.15124e-05 0.000129611 0)
(-1.63686e-05 0.000144227 0)
(-7.81782e-05 0.00015402 0)
(-0.000141171 0.000158519 0)
(-0.000204269 0.00015863 0)
(-0.000265602 0.000154737 0)
(-0.000324238 0.000147765 0)
(-0.000379109 0.000138416 0)
(-0.000429735 0.000127553 0)
(-0.000475753 0.000115892 0)
(-0.000517177 0.000104143 0)
(-0.000554166 9.28627e-05 0)
(-0.000587096 8.252e-05 0)
(-0.000616422 7.34366e-05 0)
(-0.000642721 6.58169e-05 0)
(-0.000666573 5.97717e-05 0)
(-0.000688601 5.52932e-05 0)
(-0.00070937 5.23285e-05 0)
(-0.00072944 5.07254e-05 0)
(-0.000749271 5.03386e-05 0)
(-0.000769292 5.095e-05 0)
(-0.000789816 5.23797e-05 0)
(-0.000811119 5.43973e-05 0)
(-0.000833358 5.68235e-05 0)
(-0.000856658 5.94411e-05 0)
(-0.000881024 6.2082e-05 0)
(-0.000906426 6.45352e-05 0)
(-0.000932726 6.66333e-05 0)
(-0.000959746 6.81782e-05 0)
(-0.000987214 6.90126e-05 0)
(-0.0010148 6.89678e-05 0)
(-0.00104213 6.79097e-05 0)
(-0.00106874 6.56984e-05 0)
(-0.00109414 6.2247e-05 0)
(-0.00111779 5.75101e-05 0)
(-0.00113914 5.14282e-05 0)
(-0.00115763 4.40117e-05 0)
(-0.00117268 3.52602e-05 0)
(-0.00118376 2.52362e-05 0)
(-0.00119033 1.39703e-05 0)
(-0.00119191 1.53941e-06 0)
(-0.00118802 -1.20071e-05 0)
(-0.00117826 -2.65333e-05 0)
(-0.00116228 -4.19745e-05 0)
(-0.00113978 -5.81827e-05 0)
(-0.00111057 -7.50774e-05 0)
(-0.00107447 -9.23783e-05 0)
(-0.00103155 -0.000110008 0)
(-0.000981793 -0.000127441 0)
(-0.000925639 -0.000144644 0)
(-0.000863273 -0.000160673 0)
(-0.000795623 -0.000175689 0)
(-0.000723129 -0.000188151 0)
(-0.000647303 -0.000198631 0)
(-0.000568832 -0.000204881 0)
(-0.000489735 -0.000208185 0)
(-0.000410951 -0.000205544 0)
(-0.0003348 -0.000199123 0)
(-0.000262368 -0.0001855 0)
(-0.000195912 -0.000167681 0)
(-0.000136553 -0.00014248 0)
(-8.61391e-05 -0.000113576 0)
(-4.57654e-05 -7.93575e-05 0)
(-1.72194e-05 -4.45572e-05 0)
(-1.51752e-06 -1.18878e-05 0)
(9.76011e-07 -2.36065e-05 0)
(1.61265e-05 -6.7283e-05 0)
(3.99456e-05 -0.000100837 0)
(7.38078e-05 -0.000128085 0)
(0.000107376 -0.000138275 0)
(0.000144099 -0.000141812 0)
(0.000172196 -0.000126906 0)
(0.000197307 -0.000107248 0)
(0.000208087 -7.26746e-05 0)
(0.000211262 -3.68137e-05 0)
(0.000198131 7.43256e-06 0)
(0.000175583 4.89799e-05 0)
(0.000138328 9.20448e-05 0)
(9.2566e-05 0.000129164 0)
(3.61097e-05 0.000162616 0)
(-2.58887e-05 0.000188337 0)
(-9.349e-05 0.000207711 0)
(-0.000162814 0.000219271 0)
(-0.000233044 0.000224269 0)
(-0.000301618 0.00022285 0)
(-0.000367635 0.000216322 0)
(-0.000429604 0.000205557 0)
(-0.000486955 0.000191822 0)
(-0.000539079 0.000176136 0)
(-0.00058591 0.000159593 0)
(-0.000627506 0.000143072 0)
(-0.00066423 0.000127374 0)
(-0.000696549 0.000113076 0)
(-0.00072509 0.000100613 0)
(-0.000750504 9.02439e-05 0)
(-0.000773506 8.20847e-05 0)
(-0.000794759 7.61412e-05 0)
(-0.000814936 7.22829e-05 0)
(-0.000834602 7.0343e-05 0)
(-0.000854294 7.00522e-05 0)
(-0.000874418 7.11646e-05 0)
(-0.000895348 7.33639e-05 0)
(-0.000917317 7.63898e-05 0)
(-0.000940524 7.99286e-05 0)
(-0.000965033 8.37329e-05 0)
(-0.000990873 8.75045e-05 0)
(-0.00101794 9.1004e-05 0)
(-0.00104611 9.39434e-05 0)
(-0.00107512 9.60943e-05 0)
(-0.00110467 9.71908e-05 0)
(-0.00113437 9.70255e-05 0)
(-0.00116376 9.53827e-05 0)
(-0.00119232 9.20931e-05 0)
(-0.00121946 8.7003e-05 0)
(-0.00124459 8.00231e-05 0)
(-0.00126705 7.11207e-05 0)
(-0.0012862 6.02671e-05 0)
(-0.00130137 4.7507e-05 0)
(-0.00131194 3.28774e-05 0)
(-0.00131727 1.64806e-05 0)
(-0.00131682 -1.59798e-06 0)
(-0.00131006 -2.1192e-05 0)
(-0.00129655 -4.21948e-05 0)
(-0.00127594 -6.43896e-05 0)
(-0.00124797 -8.76349e-05 0)
(-0.00121244 -0.000111602 0)
(-0.00116938 -0.000136138 0)
(-0.00111874 -0.000160665 0)
(-0.00106101 -0.000185067 0)
(-0.00099628 -0.000208313 0)
(-0.000925611 -0.000230466 0)
(-0.000849274 -0.000249799 0)
(-0.000769026 -0.00026685 0)
(-0.00068524 -0.000278974 0)
(-0.000600347 -0.000287629 0)
(-0.000514769 -0.000289122 0)
(-0.000431408 -0.00028616 0)
(-0.000350611 -0.000274188 0)
(-0.00027532 -0.000257265 0)
(-0.000205783 -0.000230531 0)
(-0.000144522 -0.000199034 0)
(-9.17683e-05 -0.000158754 0)
(-4.951e-05 -0.000115187 0)
(-1.89071e-05 -6.71127e-05 0)
(-1.75039e-06 -2.07302e-05 0)
(1.39944e-06 -3.32397e-05 0)
(1.59264e-05 -8.81911e-05 0)
(4.28466e-05 -0.000134332 0)
(7.34199e-05 -0.000160792 0)
(0.000110174 -0.000177853 0)
(0.000139513 -0.000170916 0)
(0.000168274 -0.00015644 0)
(0.000182064 -0.000120166 0)
(0.000189769 -8.03688e-05 0)
(0.000178995 -2.59959e-05 0)
(0.000159304 2.66796e-05 0)
(0.000122153 8.47308e-05 0)
(7.64158e-05 0.000136237 0)
(1.74669e-05 0.00018523 0)
(-4.7388e-05 0.000224596 0)
(-0.000119726 0.000256678 0)
(-0.000194037 0.000278272 0)
(-0.000270152 0.000291145 0)
(-0.000344419 0.000294738 0)
(-0.000416186 0.000290791 0)
(-0.000483376 0.000280152 0)
(-0.00054549 0.000264567 0)
(-0.00060163 0.000245351 0)
(-0.000651734 0.000224066 0)
(-0.00069574 0.000201946 0)
(-0.000734033 0.000180206 0)
(-0.000767084 0.000159748 0)
(-0.000795586 0.000141335 0)
(-0.000820266 0.000125448 0)
(-0.000841939 0.000112395 0)
(-0.000861375 0.000102291 0)
(-0.000879352 9.50848e-05 0)
(-0.000896551 9.06221e-05 0)
(-0.000913615 8.8616e-05 0)
(-0.000931044 8.8764e-05 0)
(-0.000949305 9.06713e-05 0)
(-0.00096871 9.39901e-05 0)
(-0.000989535 9.83084e-05 0)
(-0.00101191 0.000103285 0)
(-0.00103592 0.000108522 0)
(-0.00106152 0.000113697 0)
(-0.00108863 0.000118428 0)
(-0.00111702 0.000122405 0)
(-0.00114643 0.000125262 0)
(-0.0011765 0.00012671 0)
(-0.00120679 0.00012642 0)
(-0.00123677 0.000124143 0)
(-0.00126586 0.000119629 0)
(-0.00129343 0.000112702 0)
(-0.00131878 0.000103227 0)
(-0.0013412 9.11263e-05 0)
(-0.00135994 7.6398e-05 0)
(-0.00137427 5.90634e-05 0)
(-0.00138346 3.92328e-05 0)
(-0.00138686 1.70095e-05 0)
(-0.00138382 -7.41847e-06 0)
(-0.00137383 -3.38791e-05 0)
(-0.0013564 -6.20951e-05 0)
(-0.00133123 -9.18485e-05 0)
(-0.00129802 -0.000122749 0)
(-0.00125678 -0.000154552 0)
(-0.00120742 -0.00018663 0)
(-0.00115041 -0.000218755 0)
(-0.00108581 -0.000249852 0)
(-0.00101475 -0.000279853 0)
(-0.000937367 -0.000306936 0)
(-0.000855623 -0.000331525 0)
(-0.000769637 -0.000350729 0)
(-0.000682239 -0.000366029 0)
(-0.000593345 -0.000373203 0)
(-0.000506539 -0.000375363 0)
(-0.000421364 -0.000366945 0)
(-0.000341662 -0.000353053 0)
(-0.000266561 -0.000327157 0)
(-0.000199568 -0.000296031 0)
(-0.000139593 -0.000253171 0)
(-8.93575e-05 -0.000205976 0)
(-4.81704e-05 -0.000149664 0)
(-1.87379e-05 -9.10822e-05 0)
(-1.7781e-06 -2.95264e-05 0)
(8.81912e-07 -4.18617e-05 0)
(1.68431e-05 -0.00011259 0)
(3.9919e-05 -0.000162103 0)
(7.30021e-05 -0.000198858 0)
(0.000101153 -0.000206636 0)
(0.000131563 -0.000203589 0)
(0.000147059 -0.000171184 0)
(0.000158715 -0.000132468 0)
(0.000150004 -7.12929e-05 0)
(0.000133582 -1.01161e-05 0)
(9.66017e-05 6.24427e-05 0)
(5.14397e-05 0.000128456 0)
(-9.97019e-06 0.000194811 0)
(-7.71295e-05 0.000249796 0)
(-0.000153997 0.00029745 0)
(-0.000232697 0.000331787 0)
(-0.000314406 0.000355515 0)
(-0.000393803 0.000366744 0)
(-0.000470813 0.000367814 0)
(-0.000542391 0.000359208 0)
(-0.000608291 0.000343208 0)
(-0.000667171 0.000321322 0)
(-0.000719093 0.000295665 0)
(-0.000763848 0.000267857 0)
(-0.000801909 0.000239612 0)
(-0.000833754 0.000212218 0)
(-0.000860175 0.00018685 0)
(-0.00088199 0.000164284 0)
(-0.000900136 0.000145111 0)
(-0.000915513 0.000129606 0)
(-0.000929023 0.000117866 0)
(-0.000941468 0.000109787 0)
(-0.000953604 0.000105103 0)
(-0.000966041 0.000103475 0)
(-0.000979338 0.000104453 0)
(-0.000993892 0.0001076 0)
(-0.00101006 0.000112403 0)
(-0.00102802 0.00011842 0)
(-0.00104794 0.000125145 0)
(-0.00106982 0.000132162 0)
(-0.00109362 0.000138987 0)
(-0.00111917 0.000145225 0)
(-0.00114626 0.000150408 0)
(-0.00117456 0.000154161 0)
(-0.00120367 0.000156041 0)
(-0.00123309 0.000155707 0)
(-0.00126227 0.000152783 0)
(-0.00129058 0.000146997 0)
(-0.00131729 0.000138098 0)
(-0.00134168 0.000125923 0)
(-0.00136294 0.000110372 0)
(-0.00138028 9.14141e-05 0)
(-0.00139288 6.91175e-05 0)
(-0.00139999 4.35873e-05 0)
(-0.00140086 1.50304e-05 0)
(-0.00139487 -1.63403e-05 0)
(-0.00138142 -5.01971e-05 0)
(-0.0013601 -8.62395e-05 0)
(-0.00133053 -0.000124006 0)
(-0.00129265 -0.000163139 0)
(-0.00124629 -0.000202957 0)
(-0.00119188 -0.000243094 0)
(-0.00112944 -0.000282447 0)
(-0.00106009 -0.000320779 0)
(-0.000983912 -0.000356247 0)
(-0.000902972 -0.000389076 0)
(-0.000817202 -0.000416276 0)
(-0.000729761 -0.000439187 0)
(-0.000640155 -0.000453275 0)
(-0.000552636 -0.000461801 0)
(-0.00046601 -0.000458424 0)
(-0.000385168 -0.000449081 0)
(-0.000308067 -0.000425757 0)
(-0.000239526 -0.000397025 0)
(-0.000176849 -0.000353952 0)
(-0.000124042 -0.000306582 0)
(-7.84012e-05 -0.000246611 0)
(-4.28642e-05 -0.000183451 0)
(-1.64496e-05 -0.000111709 0)
(-1.71763e-06 -3.81224e-05 0)
(1.39118e-06 -5.16774e-05 0)
(1.42691e-05 -0.000131636 0)
(3.89638e-05 -0.000194493 0)
(6.30132e-05 -0.00022471 0)
(9.26075e-05 -0.000240187 0)
(0.000108367 -0.000218752 0)
(0.000123123 -0.00018755 0)
(0.000116171 -0.000124578 0)
(0.000103563 -5.92471e-05 0)
(6.7226e-05 2.57417e-05 0)
(2.3699e-05 0.000104862 0)
(-3.9868e-05 0.000189466 0)
(-0.000108719 0.000261356 0)
(-0.000190292 0.000327305 0)
(-0.000273166 0.000376971 0)
(-0.000360788 0.000414668 0)
(-0.000445363 0.000436215 0)
(-0.000527996 0.000444929 0)
(-0.000604084 0.000440458 0)
(-0.000673913 0.000425779 0)
(-0.000735344 0.000402381 0)
(-0.000788713 0.000373012 0)
(-0.000833527 0.000339661 0)
(-0.000870438 0.000304634 0)
(-0.000899909 0.000269653 0)
(-0.000922893 0.000236396 0)
(-0.000940311 0.000206005 0)
(-0.000953254 0.000179447 0)
(-0.000962771 0.000157226 0)
(-0.000969917 0.000139651 0)
(-0.000975641 0.000126716 0)
(-0.000980837 0.000118243 0)
(-0.000986238 0.00011387 0)
(-0.000992514 0.000113113 0)
(-0.00100015 0.000115449 0)
(-0.00100958 0.000120278 0)
(-0.00102107 0.000127043 0)
(-0.00103481 0.00013513 0)
(-0.00105087 0.000144014 0)
(-0.00106927 0.000153105 0)
(-0.00108987 0.000161915 0)
(-0.00111252 0.000169876 0)
(-0.00113692 0.000176525 0)
(-0.00116275 0.000181313 0)
(-0.00118953 0.000183803 0)
(-0.00121677 0.000183491 0)
(-0.00124385 0.000179999 0)
(-0.00127009 0.00017293 0)
(-0.00129476 0.000162014 0)
(-0.00131704 0.000147022 0)
(-0.00133611 0.000127837 0)
(-0.00135111 0.000104436 0)
(-0.0013612 7.68832e-05 0)
(-0.00136556 4.5359e-05 0)
(-0.00136346 1.00948e-05 0)
(-0.00135419 -2.85533e-05 0)
(-0.00133724 -7.02149e-05 0)
(-0.00131211 -0.000114363 0)
(-0.00127865 -0.000160522 0)
(-0.00123657 -0.000207943 0)
(-0.00118625 -0.000256105 0)
(-0.00112761 -0.000303877 0)
(-0.00106174 -0.000350819 0)
(-0.000988633 -0.00039511 0)
(-0.000910382 -0.000436704 0)
(-0.000826797 -0.000472633 0)
(-0.000741228 -0.000503934 0)
(-0.000652894 -0.000525969 0)
(-0.00056658 -0.000541857 0)
(-0.00048051 -0.00054479 0)
(-0.000400612 -0.000541116 0)
(-0.000323793 -0.000521685 0)
(-0.00025641 -0.000496581 0)
(-0.000194117 -0.000454714 0)
(-0.000142686 -0.000409018 0)
(-9.71961e-05 -0.000347783 0)
(-6.19951e-05 -0.000284253 0)
(-3.28999e-05 -0.000208379 0)
(-1.31462e-05 -0.000130342 0)
(-1.34847e-06 -4.44843e-05 0)
(5.09213e-07 -5.8882e-05 0)
(1.42333e-05 -0.000153876 0)
(3.07576e-05 -0.000214693 0)
(5.62922e-05 -0.000256098 0)
(7.0578e-05 -0.000254159 0)
(8.7102e-05 -0.000238247 0)
(8.15148e-05 -0.000180467 0)
(7.31267e-05 -0.000117095 0)
(3.81325e-05 -2.35731e-05 0)
(-2.15478e-06 6.55627e-05 0)
(-6.67782e-05 0.000167971 0)
(-0.000135767 0.000256911 0)
(-0.000221653 0.000343488 0)
(-0.000308117 0.000410894 0)
(-0.000402058 0.000466016 0)
(-0.000491982 0.000500882 0)
(-0.000581068 0.000520348 0)
(-0.0006623 0.000522441 0)
(-0.000737022 0.000511178 0)
(-0.000801735 0.000487712 0)
(-0.000857277 0.000455586 0)
(-0.000902566 0.000417068 0)
(-0.000938556 0.000375161 0)
(-0.00096557 0.000332055 0)
(-0.000984782 0.000290019 0)
(-0.0009972 0.000250641 0)
(-0.00100412 0.000215357 0)
(-0.00100676 0.000184986 0)
(-0.00100636 0.00016014 0)
(-0.00100405 0.000140956 0)
(-0.0010009 0.000127386 0)
(-0.000997774 0.000119088 0)
(-0.000995476 0.000115586 0)
(-0.000994603 0.000116277 0)
(-0.000995668 0.000120482 0)
(-0.000999002 0.000127521 0)
(-0.00100487 0.000136667 0)
(-0.00101339 0.000147272 0)
(-0.0010246 0.000158635 0)
(-0.00103844 0.000170163 0)
(-0.00105478 0.00018119 0)
(-0.00107338 0.000191165 0)
(-0.00109396 0.000199439 0)
(-0.00111611 0.000205485 0)
(-0.00113938 0.000208683 0)
(-0.00116321 0.000208545 0)
(-0.00118698 0.000204531 0)
(-0.00120999 0.000196245 0)
(-0.00123145 0.000183304 0)
(-0.00125056 0.000165471 0)
(-0.00126643 0.00014259 0)
(-0.00127822 0.000114635 0)
(-0.00128503 8.17089e-05 0)
(-0.00128607 4.40156e-05 0)
(-0.00128054 1.90203e-06 0)
(-0.00126783 -4.42207e-05 0)
(-0.00124733 -9.37832e-05 0)
(-0.00121876 -0.000146206 0)
(-0.00118175 -0.000200676 0)
(-0.00113652 -0.000256508 0)
(-0.00108293 -0.000312538 0)
(-0.00102193 -0.0003681 0)
(-0.000953466 -0.000421413 0)
(-0.000879511 -0.000472116 0)
(-0.000799816 -0.000517347 0)
(-0.000717742 -0.000557698 0)
(-0.000632344 -0.000588631 0)
(-0.000548717 -0.000612799 0)
(-0.000464676 -0.000623282 0)
(-0.000387001 -0.000626301 0)
(-0.000311764 -0.000612032 0)
(-0.000246875 -0.000591434 0)
(-0.000186514 -0.000551755 0)
(-0.00013857 -0.000508491 0)
(-9.5864e-05 -0.000446881 0)
(-6.49629e-05 -0.00038456 0)
(-3.86632e-05 -0.000306915 0)
(-2.13217e-05 -0.000229405 0)
(-7.8608e-06 -0.000140756 0)
(-1.13581e-06 -4.95603e-05 0)
(1.27843e-06 -6.73321e-05 0)
(9.46545e-06 -0.0001663 0)
(2.71662e-05 -0.00024028 0)
(3.77362e-05 -0.000267024 0)
(5.385e-05 -0.00027492 0)
(4.88826e-05 -0.000231361 0)
(4.4644e-05 -0.000178019 0)
(1.17184e-05 -8.22228e-05 0)
(-2.36721e-05 1.17145e-05 0)
(-8.77582e-05 0.000129661 0)
(-0.000154379 0.000234223 0)
(-0.000243039 0.000342862 0)
(-0.000331274 0.000429842 0)
(-0.000431135 0.000506022 0)
(-0.000525929 0.000557581 0)
(-0.000622139 0.000591724 0)
(-0.000709093 0.000603553 0)
(-0.000789991 0.000598586 0)
(-0.000859153 0.000577079 0)
(-0.000918338 0.000543649 0)
(-0.00096537 0.00050068 0)
(-0.00100167 0.000452035 0)
(-0.00102719 0.000400407 0)
(-0.0010434 0.000348793 0)
(-0.00105132 0.000299293 0)
(-0.00105248 0.0002539 0)
(-0.00104827 0.00021383 0)
(-0.00104016 0.000180086 0)
(-0.00102945 0.00015303 0)
(-0.00101741 0.000132822 0)
(-0.00100509 0.000119179 0)
(-0.000993424 0.000111672 0)
(-0.000983146 0.000109637 0)
(-0.00097487 0.000112325 0)
(-0.000969007 0.00011893 0)
(-0.00096589 0.000128612 0)
(-0.000965669 0.000140579 0)
(-0.000968451 0.000154014 0)
(-0.000974186 0.000168205 0)
(-0.0009828 0.000182384 0)
(-0.000994085 0.000195902 0)
(-0.0010078 0.000208025 0)
(-0.00102361 0.000218139 0)
(-0.00104111 0.000225525 0)
(-0.00105981 0.000229598 0)
(-0.00107916 0.000229684 0)
(-0.00109852 0.000225266 0)
(-0.00111717 0.000215799 0)
(-0.00113436 0.000200904 0)
(-0.00114924 0.000180258 0)
(-0.00116097 0.000153709 0)
(-0.00116867 0.000121225 0)
(-0.00117149 8.29296e-05 0)
(-0.00116861 3.91025e-05 0)
(-0.00115932 -9.85091e-06 0)
(-0.00114294 -6.33573e-05 0)
(-0.00111906 -0.000120769 0)
(-0.00108723 -0.000181227 0)
(-0.00104751 -0.000243901 0)
(-0.000999681 -0.00030759 0)
(-0.000944498 -0.000371402 0)
(-0.00088186 -0.000433594 0)
(-0.000813522 -0.000493465 0)
(-0.0007392 -0.000548325 0)
(-0.000662086 -0.00059822 0)
(-0.000581166 -0.000638881 0)
(-0.000501562 -0.000672234 0)
(-0.000420876 -0.000691562 0)
(-0.000346388 -0.000702407 0)
(-0.000273606 -0.000694795 0)
(-0.000211734 -0.000679695 0)
(-0.00015378 -0.000643361 0)
(-0.000109839 -0.000602956 0)
(-7.06894e-05 -0.000541332 0)
(-4.56654e-05 -0.000480207 0)
(-2.45751e-05 -0.000400813 0)
(-1.4379e-05 -0.000324887 0)
(-5.90221e-06 -0.000235354 0)
(-2.89856e-06 -0.000147806 0)
(-4.20264e-07 -5.07427e-05 0)
(-3.78874e-08 -7.14707e-05 0)
(8.91805e-06 -0.000182745 0)
(1.37545e-05 -0.000246561 0)
(2.6313e-05 -0.000286087 0)
(2.03636e-05 -0.00026705 0)
(1.89724e-05 -0.000233336 0)
(-1.16281e-05 -0.000144386 0)
(-4.07637e-05 -5.34184e-05 0)
(-0.000102434 7.52581e-05 0)
(-0.000163844 0.000191895 0)
(-0.00025296 0.000322438 0)
(-0.000339892 0.000429612 0)
(-0.000443976 0.000530163 0)
(-0.000541757 0.000601853 0)
(-0.000644805 0.000655389 0)
(-0.000737212 0.000681006 0)
(-0.000825195 0.000686339 0)
(-0.000899699 0.000669771 0)
(-0.000964105 0.000637392 0)
(-0.0010144 0.000591388 0)
(-0.00105282 0.000536738 0)
(-0.00107852 0.000476606 0)
(-0.00109343 0.000414855 0)
(-0.00109835 0.000354194 0)
(-0.00109512 0.000297304 0)
(-0.00108521 0.000245903 0)
(-0.00107031 0.000201487 0)
(-0.00105194 0.000164727 0)
(-0.00103152 0.000136078 0)
(-0.00101033 0.000115376 0)
(-0.000989442 0.000102296 0)
(-0.000969757 9.6133e-05 0)
(-0.000951993 9.61086e-05 0)
(-0.00093667 0.000101288 0)
(-0.000924186 0.000110713 0)
(-0.000914756 0.000123433 0)
(-0.000908521 0.000138503 0)
(-0.000905467 0.000155064 0)
(-0.000905544 0.000172237 0)
(-0.000908578 0.000189269 0)
(-0.000914366 0.000205341 0)
(-0.000922607 0.000219759 0)
(-0.000932961 0.00023172 0)
(-0.000945003 0.000240563 0)
(-0.000958256 0.000245509 0)
(-0.000972164 0.000245924 0)
(-0.000986103 0.000241116 0)
(-0.000999386 0.000230565 0)
(-0.00101125 0.000213767 0)
(-0.00102092 0.000190414 0)
(-0.00102755 0.000160301 0)
(-0.00103033 0.000123419 0)
(-0.00102842 7.99224e-05 0)
(-0.00102109 3.01461e-05 0)
(-0.00100762 -2.53885e-05 0)
(-0.000987517 -8.60159e-05 0)
(-0.000960254 -0.000150869 0)
(-0.000925744 -0.000219015 0)
(-0.000883702 -0.000289225 0)
(-0.000834669 -0.000360409 0)
(-0.000778495 -0.000430858 0)
(-0.000716658 -0.000499541 0)
(-0.000648856 -0.000563943 0)
(-0.00057796 -0.000623572 0)
(-0.000502965 -0.000674511 0)
(-0.00042871 -0.000717811 0)
(-0.000352766 -0.000747231 0)
(-0.000282485 -0.000767166 0)
(-0.000213089 -0.000767991 0)
(-0.000154597 -0.000759766 0)
(-9.92018e-05 -0.000728519 0)
(-5.89184e-05 -0.000691787 0)
(-2.28741e-05 -0.00063095 0)
(-3.3899e-06 -0.000570662 0)
(1.24753e-05 -0.00048879 0)
(1.43006e-05 -0.000413229 0)
(1.50129e-05 -0.000321422 0)
(8.09065e-06 -0.000237446 0)
(4.02717e-06 -0.00014302 0)
(-2.25253e-07 -5.04475e-05 0)
(1.08758e-06 -7.71903e-05 0)
(1.45697e-06 -0.000184191 0)
(7.62598e-06 -0.000260556 0)
(-1.33405e-06 -0.000275753 0)
(-2.89122e-06 -0.000271128 0)
(-3.23327e-05 -0.000200393 0)
(-5.56046e-05 -0.000122803 0)
(-0.000113661 8.02244e-06 0)
(-0.000167209 0.000130078 0)
(-0.000253896 0.000279839 0)
(-0.000335543 0.000406015 0)
(-0.000440935 0.000533326 0)
(-0.000538257 0.000627984 0)
(-0.000646367 0.000705831 0)
(-0.000742304 0.000749861 0)
(-0.000837057 0.000770736 0)
(-0.000916707 0.000763394 0)
(-0.000987346 0.000735842 0)
(-0.00104206 0.00068942 0)
(-0.00108446 0.000630515 0)
(-0.00111227 0.000562657 0)
(-0.00112808 0.000490798 0)
(-0.00113218 0.000418342 0)
(-0.00112677 0.000348802 0)
(-0.00111321 0.000284522 0)
(-0.00109348 0.000227607 0)
(-0.00106918 0.000179162 0)
(-0.00104196 0.000140031 0)
(-0.00101326 0.000110256 0)
(-0.000984322 8.96911e-05 0)
(-0.000956201 7.76507e-05 0)
(-0.000929744 7.33606e-05 0)
(-0.000905589 7.57644e-05 0)
(-0.000884214 8.38047e-05 0)
(-0.0008659 9.63535e-05 0)
(-0.000850833 0.000112321 0)
(-0.000839032 0.000130678 0)
(-0.000830473 0.000150425 0)
(-0.000825003 0.000170674 0)
(-0.000822445 0.000190519 0)
(-0.000822529 0.000209178 0)
(-0.00082496 0.000225789 0)
(-0.000829373 0.000239617 0)
(-0.00083535 0.000249805 0)
(-0.000842426 0.000255632 0)
(-0.000850067 0.000256294 0)
(-0.000857688 0.000251146 0)
(-0.000864638 0.000239517 0)
(-0.000870231 0.000220926 0)