/*--------------------------------*- C++ -*----------------------------------*\
| =========                 |                                                 |
| \\      /  F ield         | OpenFOAM: The Open Source CFD Toolbox           |
|  \\    /   O peration     | Version:  2412                                  |
|   \\  /    A nd           | Website:  www.openfoam.com                      |
|    \\/     M anipulation  |                                                 |
\*---------------------------------------------------------------------------*/
FoamFile
{
    version     2.0;
    format      ascii;
    arch        "LSB;label=32;scalar=64";
    class       volVectorField;
    location    "2.05";
    object      U;
}
// * * * * * * * * * * * * * * * * * * * * * * * * * * * * * * * * * * * * * //

dimensions      [0 1 -1 0 0 0 0];

internalField   nonuniform List<vector> 
6400
(
(-0.000487 0.000383319 0)
(0.00029763 -0.000139069 0)
(0.00166578 -8.92161e-05 0)
(0.00278385 -1.69684e-05 0)
(0.00370831 5.58334e-05 0)
(0.00444313 0.000137174 0)
(0.00497478 0.00022728 0)
(0.0052953 0.000312386 0)
(0.00540463 0.000389909 0)
(0.00533395 0.000454186 0)
(0.00511314 0.000493059 0)
(0.00477113 0.000511556 0)
(0.00435097 0.000501733 0)
(0.00390163 0.000469374 0)
(0.00347708 0.000412266 0)
(0.00312351 0.000331113 0)
(0.00288423 0.000232963 0)
(0.00279476 0.000118035 0)
(0.0028754 -4.26453e-06 0)
(0.0031391 -0.000125549 0)
(0.00358519 -0.000243487 0)
(0.00419465 -0.000353725 0)
(0.00494001 -0.000446386 0)
(0.00578345 -0.00051818 0)
(0.00667323 -0.000566235 0)
(0.00755843 -0.000584298 0)
(0.00838994 -0.000579309 0)
(0.00911196 -0.000554493 0)
(0.00968382 -0.000507941 0)
(0.0100314 -0.000444934 0)
(0.0101591 -0.000326025 0)
(0.0100647 -0.000200075 0)
(0.00965264 -8.77101e-05 0)
(0.00897483 4.71972e-06 0)
(0.00804715 3.85148e-05 0)
(0.00693158 6.09143e-05 0)
(0.00570656 4.35488e-05 0)
(0.00437448 1.75158e-05 0)
(0.00297673 -9.61466e-06 0)
(0.0015483 -1.56786e-05 0)
(9.94831e-05 -7.53632e-06 0)
(-0.00137732 1.60677e-05 0)
(-0.00285116 5.79013e-05 0)
(-0.00430351 9.87742e-05 0)
(-0.00568784 0.000134464 0)
(-0.00698424 0.000139333 0)
(-0.00811695 0.00011866 0)
(-0.00904892 3.44404e-05 0)
(-0.00972227 -6.68556e-05 0)
(-0.0100684 -0.000195067 0)
(-0.0101778 -0.000321464 0)
(-0.0100558 -0.000396346 0)
(-0.00969293 -0.000452871 0)
(-0.0091537 -0.000486999 0)
(-0.00847922 -0.000504132 0)
(-0.00772288 -0.000498114 0)
(-0.00693121 -0.000467762 0)
(-0.00615615 -0.00041334 0)
(-0.00544616 -0.000336411 0)
(-0.0048399 -0.000241802 0)
(-0.00436699 -0.000138512 0)
(-0.00405048 -2.89253e-05 0)
(-0.0038945 8.22542e-05 0)
(-0.00388894 0.000188308 0)
(-0.00401641 0.000279659 0)
(-0.00424886 0.000352762 0)
(-0.00454681 0.000408477 0)
(-0.00486745 0.000442131 0)
(-0.00516132 0.000452 0)
(-0.00538325 0.000436995 0)
(-0.00550419 0.000399416 0)
(-0.00549067 0.000344501 0)
(-0.00531018 0.00027607 0)
(-0.0049398 0.000200607 0)
(-0.00437556 0.000120744 0)
(-0.00362532 4.64669e-05 0)
(-0.00270497 -1.84223e-05 0)
(-0.00160917 -8.16776e-05 0)
(-0.000282105 -0.00012343 0)
(0.00047804 0.000377288 0)
(-0.000216546 -9.34595e-05 0)
(0.0019723 -0.00261766 0)
(0.0045914 -0.00246816 0)
(0.00695012 -0.00215339 0)
(0.0090586 -0.00185343 0)
(0.0109241 -0.00152391 0)
(0.0125276 -0.00116531 0)
(0.0138586 -0.000805837 0)
(0.0149152 -0.000467388 0)
(0.015714 -0.000165371 0)
(0.0162937 7.62099e-05 0)
(0.0166883 0.000250251 0)
(0.0169516 0.000353384 0)
(0.0171486 0.000381289 0)
(0.0173252 0.000335313 0)
(0.0175294 0.000225365 0)
(0.0177956 6.14305e-05 0)
(0.018149 -0.000143912 0)
(0.0186082 -0.000372755 0)
(0.0191699 -0.000605025 0)
(0.0198258 -0.000823234 0)
(0.0205642 -0.00101009 0)
(0.0213567 -0.00114843 0)
(0.0221641 -0.00122511 0)
(0.0229446 -0.00122899 0)
(0.0236443 -0.00115079 0)
(0.0242039 -0.000995052 0)
(0.0245719 -0.000768572 0)
(0.0246883 -0.00047014 0)
(0.0244956 -0.000108564 0)
(0.0239619 0.000333284 0)
(0.0230766 0.000801975 0)
(0.021828 0.00126544 0)
(0.0202005 0.00170754 0)
(0.0181624 0.00207013 0)
(0.0157095 0.00239648 0)
(0.0128903 0.00264854 0)
(0.00974531 0.00283372 0)
(0.0063364 0.00296078 0)
(0.00276475 0.00304019 0)
(-0.000892721 0.00307589 0)
(-0.00453857 0.00305652 0)
(-0.00806314 0.00299589 0)
(-0.0113751 0.00287315 0)
(-0.0143977 0.00267507 0)
(-0.0170844 0.00240567 0)
(-0.0193745 0.00207089 0)
(-0.0212652 0.00164596 0)
(-0.0227725 0.00119604 0)
(-0.0239151 0.000718833 0)
(-0.0247088 0.000257333 0)
(-0.0251447 -0.000130653 0)
(-0.0252448 -0.000468953 0)
(-0.0250612 -0.000733219 0)
(-0.0246535 -0.000930596 0)
(-0.0240736 -0.00105479 0)
(-0.0233782 -0.00110397 0)
(-0.0226188 -0.00107969 0)
(-0.0218406 -0.00099046 0)
(-0.0210843 -0.000850862 0)
(-0.0203803 -0.000676745 0)
(-0.0197457 -0.000480184 0)
(-0.0191917 -0.000281269 0)
(-0.0187239 -9.92593e-05 0)
(-0.0183326 4.57173e-05 0)
(-0.0179919 0.000144525 0)
(-0.0176731 0.000187353 0)
(-0.0173458 0.000162124 0)
(-0.016954 7.02544e-05 0)
(-0.016438 -8.92399e-05 0)
(-0.0157543 -0.000312405 0)
(-0.014869 -0.000587688 0)
(-0.01375 -0.000895995 0)
(-0.012378 -0.00122347 0)
(-0.0107551 -0.00155064 0)
(-0.00889252 -0.00185247 0)
(-0.0068082 -0.00212425 0)
(-0.00449037 -0.00241339 0)
(-0.00192126 -0.00254667 0)
(0.000220907 -8.50754e-05 0)
(-0.000148946 -0.000869297 0)
(0.00222154 -0.00525538 0)
(0.00497409 -0.00492421 0)
(0.00747267 -0.0043466 0)
(0.00970369 -0.00380922 0)
(0.0116696 -0.00321958 0)
(0.0133485 -0.0025865 0)
(0.0147249 -0.00194952 0)
(0.0158036 -0.00135135 0)
(0.0166074 -0.000820221 0)
(0.0171728 -0.000383878 0)
(0.0175466 -6.70003e-05 0)
(0.0177837 0.000122143 0)
(0.0179462 0.000183195 0)
(0.0180981 0.000121743 0)
(0.0182886 -4.64875e-05 0)
(0.0185575 -0.00030752 0)
(0.0189375 -0.000629591 0)
(0.0194486 -0.00098451 0)
(0.0200936 -0.00134376 0)
(0.0208642 -0.00167298 0)
(0.0217402 -0.0019416 0)
(0.0226869 -0.0021235 0)
(0.0236606 -0.00219613 0)
(0.0246077 -0.00213913 0)
(0.0254632 -0.0019427 0)
(0.0261575 -0.00160218 0)
(0.0266326 -0.00112423 0)
(0.0268287 -0.000513729 0)
(0.0266707 0.000209418 0)
(0.0261142 0.00101832 0)
(0.0251456 0.00187708 0)
(0.0237483 0.00275713 0)
(0.0219121 0.00364086 0)
(0.019637 0.00448933 0)
(0.0169483 0.00528462 0)
(0.0138772 0.00598398 0)
(0.0104771 0.00655059 0)
(0.00680941 0.00696858 0)
(0.00296929 0.00720386 0)
(-0.000962964 0.00726992 0)
(-0.00488006 0.00716037 0)
(-0.0086621 0.00687189 0)
(-0.0122494 0.00641884 0)
(-0.0155419 0.00580374 0)
(-0.018483 0.00508544 0)
(-0.0210342 0.00427372 0)
(-0.0231558 0.00340854 0)
(-0.0248392 0.0025315 0)
(-0.026089 0.00165987 0)
(-0.0269168 0.000819213 0)
(-0.0273363 4.84695e-05 0)
(-0.0273684 -0.000623088 0)
(-0.0270762 -0.00117651 0)
(-0.026539 -0.00159216 0)
(-0.025809 -0.00187141 0)
(-0.0249485 -0.00201343 0)
(-0.0240206 -0.00202657 0)
(-0.0230833 -0.00192634 0)
(-0.0221839 -0.00173494 0)
(-0.0213572 -0.00147697 0)
(-0.0206282 -0.00118108 0)
(-0.0200113 -0.000878461 0)
(-0.0195103 -0.000599159 0)
(-0.0191078 -0.000368751 0)
(-0.0187715 -0.000212003 0)
(-0.0184715 -0.000154802 0)
(-0.0181646 -0.000209598 0)
(-0.0177897 -0.000376372 0)
(-0.0172875 -0.000663742 0)
(-0.0166116 -0.00105996 0)
(-0.0157189 -0.00154657 0)
(-0.0145745 -0.00209312 0)
(-0.0131569 -0.00267557 0)
(-0.0114623 -0.00325443 0)
(-0.00950306 -0.00379251 0)
(-0.00729955 -0.00428535 0)
(-0.00484542 -0.00482392 0)
(-0.0021483 -0.00513019 0)
(0.000161339 -0.000831029 0)
(-0.000108761 -0.00177218 0)
(0.0024502 -0.00813019 0)
(0.00540191 -0.00762661 0)
(0.00806337 -0.00675679 0)
(0.0104138 -0.00594551 0)
(0.0124553 -0.00505691 0)
(0.0141638 -0.00410309 0)
(0.0155221 -0.00314351 0)
(0.01654 -0.0022412 0)
(0.0172471 -0.00144005 0)
(0.0176866 -0.000780285 0)
(0.0179101 -0.000296331 0)
(0.0179901 -7.34227e-06 0)
(0.0180004 9.1428e-05 0)
(0.0180029 1.23277e-05 0)
(0.0180573 -0.000228498 0)
(0.0182177 -0.000599397 0)
(0.0185259 -0.00105972 0)
(0.0190006 -0.00156783 0)
(0.0196465 -0.00207969 0)
(0.020456 -0.00254495 0)
(0.0214069 -0.00292052 0)
(0.0224606 -0.00316575 0)
(0.0235673 -0.00324712 0)
(0.0246662 -0.00313179 0)
(0.0256807 -0.0028121 0)
(0.0265305 -0.00227246 0)
(0.0271517 -0.00152395 0)
(0.027471 -0.000592351 0)
(0.0274161 0.000506513 0)
(0.0269407 0.00173558 0)
(0.0260062 0.00304912 0)
(0.0245913 0.00439706 0)
(0.0226885 0.0057382 0)
(0.0203082 0.00703211 0)
(0.0174956 0.00823572 0)
(0.0143 0.00927565 0)
(0.0107899 0.0101264 0)
(0.00701404 0.0107376 0)
(0.00307713 0.0110993 0)
(-0.000928796 0.0111983 0)
(-0.00493467 0.011041 0)
(-0.00883198 0.0106039 0)
(-0.0125495 0.00991715 0)
(-0.0159775 0.00900309 0)
(-0.0190677 0.0079062 0)
(-0.0217567 0.00667286 0)
(-0.0239722 0.00535652 0)
(-0.0257036 0.00400738 0)
(-0.0269463 0.00267066 0)
(-0.0277166 0.00138731 0)
(-0.028042 0.000210188 0)
(-0.0279667 -0.000807797 0)
(-0.0275459 -0.00166673 0)
(-0.0268567 -0.00231699 0)
(-0.0259739 -0.00276226 0)
(-0.024965 -0.00299913 0)
(-0.0239035 -0.00304245 0)
(-0.0228544 -0.00291491 0)
(-0.0218732 -0.00264882 0)
(-0.0210015 -0.00228349 0)
(-0.0202628 -0.00186069 0)
(-0.0196695 -0.00142643 0)
(-0.0192239 -0.00102696 0)
(-0.0189089 -0.000698605 0)
(-0.0186918 -0.000480235 0)
(-0.0185259 -0.000406105 0)
(-0.0183556 -0.00049184 0)
(-0.018122 -0.000749453 0)
(-0.0177571 -0.00118636 0)
(-0.0171983 -0.00178595 0)
(-0.0163964 -0.00251795 0)
(-0.0153085 -0.00334406 0)
(-0.013907 -0.00422187 0)
(-0.0121854 -0.00509536 0)
(-0.0101575 -0.00590796 0)
(-0.00784324 -0.00665474 0)
(-0.00523867 -0.00746708 0)
(-0.00236298 -0.00793278 0)
(0.000121508 -0.00169073 0)
(-6.01309e-05 -0.00280759 0)
(0.00275971 -0.0112452 0)
(0.00600901 -0.0105344 0)
(0.0089095 -0.00932183 0)
(0.0114298 -0.00818752 0)
(0.0135786 -0.00694597 0)
(0.0153296 -0.00561395 0)
(0.0166586 -0.00427725 0)
(0.0175844 -0.00301764 0)
(0.01815 -0.00190442 0)
(0.0184024 -0.000991161 0)
(0.0184094 -0.000326814 0)
(0.0182608 6.51647e-05 0)
(0.0180513 0.000194251 0)
(0.0178556 7.52874e-05 0)
(0.017743 -0.000264248 0)
(0.0177776 -0.000778613 0)
(0.0180022 -0.00141931 0)
(0.0184426 -0.00212628 0)
(0.019112 -0.00283926 0)
(0.0200007 -0.00348852 0)
(0.0210777 -0.00401029 0)
(0.0222995 -0.00435338 0)
(0.0236141 -0.00445142 0)
(0.0249418 -0.00429499 0)
(0.0262 -0.00386011 0)
(0.0273005 -0.00314349 0)
(0.028144 -0.00211436 0)
(0.0286678 -0.00083148 0)
(0.0287915 0.000673913 0)
(0.0284434 0.00236598 0)
(0.0275824 0.00418191 0)
(0.0261778 0.0060378 0)
(0.0242316 0.00791853 0)
(0.0217634 0.00970819 0)
(0.0187963 0.011368 0)
(0.0153907 0.0127989 0)
(0.0116272 0.0139606 0)
(0.00757481 0.0147934 0)
(0.00335127 0.0152885 0)
(-0.000963839 0.0154239 0)
(-0.00527837 0.0152008 0)
(-0.00947435 0.0146105 0)
(-0.013466 0.0136695 0)
(-0.0171359 0.0124147 0)
(-0.0204139 0.0108837 0)
(-0.0232351 0.0091737 0)
(-0.0255369 0.00734747 0)
(-0.0272899 0.00547319 0)
(-0.0284907 0.00361718 0)
(-0.0291618 0.00184555 0)
(-0.0293305 0.00022618 0)
(-0.0290716 -0.00117933 0)
(-0.0284412 -0.00233454 0)
(-0.0275155 -0.00323287 0)
(-0.0263949 -0.00384057 0)
(-0.0251553 -0.00415527 0)
(-0.0238852 -0.00420853 0)
(-0.0226594 -0.00402041 0)
(-0.0215422 -0.00364366 0)
(-0.0205788 -0.00312971 0)
(-0.0197997 -0.00253399 0)
(-0.0192233 -0.00192102 0)
(-0.0188441 -0.00135399 0)
(-0.0186364 -0.000893396 0)
(-0.0185657 -0.000584728 0)
(-0.0185769 -0.000470637 0)
(-0.0186048 -0.00058339 0)
(-0.0185785 -0.00093368 0)
(-0.0184121 -0.00153389 0)
(-0.018026 -0.00236466 0)
(-0.0173567 -0.00338126 0)
(-0.0163539 -0.00453498 0)
(-0.0149796 -0.0057596 0)
(-0.0132194 -0.0069824 0)
(-0.0110911 -0.00812461 0)
(-0.00862234 -0.00916781 0)
(-0.00580119 -0.0102994 0)
(-0.00265028 -0.0109561 0)
(7.8674e-05 -0.0026745 0)
(4.61441e-06 -0.00402916 0)
(0.00318157 -0.0147161 0)
(0.00683792 -0.0137521 0)
(0.010061 -0.0121202 0)
(0.0128149 -0.0105881 0)
(0.0151105 -0.00891381 0)
(0.0169146 -0.00712467 0)
(0.0182046 -0.00533494 0)
(0.0190032 -0.00365077 0)
(0.0193667 -0.00217054 0)
(0.019359 -0.000970688 0)
(0.0190622 -0.000112578 0)
(0.0186071 0.000392273 0)
(0.0181093 0.000544167 0)
(0.017646 0.000357156 0)
(0.0173074 -0.000123471 0)
(0.0171685 -0.000839802 0)
(0.0172847 -0.00172329 0)
(0.0176869 -0.00269615 0)
(0.0183916 -0.00366928 0)
(0.0193939 -0.00455866 0)
(0.0206508 -0.00528222 0)
(0.0221262 -0.00575765 0)
(0.0237284 -0.00593932 0)
(0.0253567 -0.00577401 0)
(0.0269305 -0.00522683 0)
(0.0283759 -0.00429507 0)
(0.0295657 -0.00299457 0)
(0.0303646 -0.00133119 0)
(0.0307244 0.000636066 0)
(0.0305668 0.00284543 0)
(0.0298007 0.00522204 0)
(0.0284487 0.0076788 0)
(0.0264722 0.0101752 0)
(0.0238621 0.0125446 0)
(0.0206853 0.0147126 0)
(0.0169883 0.0166109 0)
(0.0128687 0.0181129 0)
(0.0084051 0.0192079 0)
(0.00373704 0.0198337 0)
(-0.00103602 0.0200137 0)
(-0.00580152 0.0197318 0)
(-0.0104354 0.0189568 0)
(-0.0148269 0.0177451 0)
(-0.0188443 0.0160936 0)
(-0.0223933 0.0140749 0)
(-0.0253836 0.0118036 0)
(-0.0277734 0.0093765 0)
(-0.0295401 0.00688306 0)
(-0.0306753 0.0044557 0)
(-0.0312002 0.00213174 0)
(-0.0311558 1.17043e-05 0)
(-0.0306177 -0.00182699 0)
(-0.0296934 -0.00330834 0)
(-0.0284591 -0.00443859 0)
(-0.0269943 -0.00517725 0)
(-0.0254354 -0.00555684 0)
(-0.023877 -0.00558634 0)
(-0.022402 -0.00531438 0)
(-0.0210962 -0.00477645 0)
(-0.0200053 -0.00405676 0)
(-0.0191672 -0.00323353 0)
(-0.0186019 -0.0023857 0)
(-0.0183061 -0.00159897 0)
(-0.0182463 -0.000947962 0)
(-0.0183741 -0.000504709 0)
(-0.0186295 -0.000324444 0)
(-0.018924 -0.000440222 0)
(-0.019177 -0.000879127 0)
(-0.0192879 -0.00166668 0)
(-0.0191418 -0.00276026 0)
(-0.0186594 -0.00411207 0)
(-0.0177756 -0.00565449 0)
(-0.0164412 -0.00729661 0)
(-0.0146357 -0.00894066 0)
(-0.0123705 -0.0104835 0)
(-0.00968453 -0.0118983 0)
(-0.00656696 -0.013418 0)
(-0.00303915 -0.0143099 0)
(2.07719e-05 -0.00383503 0)
(8.62962e-05 -0.0054918 0)
(0.00373465 -0.0186601 0)
(0.00794105 -0.0173899 0)
(0.0115983 -0.0152366 0)
(0.0146619 -0.0132054 0)
(0.0171462 -0.0109904 0)
(0.0190138 -0.00863432 0)
(0.0202429 -0.00628433 0)
(0.0208648 -0.00408578 0)
(0.0209502 -0.00216365 0)
(0.0205835 -0.000620516 0)
(0.0198962 0.000459717 0)
(0.019044 0.00108089 0)
(0.0181483 0.00123044 0)
(0.0173253 0.000930345 0)
(0.0166876 0.000245342 0)
(0.0163241 -0.000744967 0)
(0.0162979 -0.00195012 0)
(0.0166548 -0.00327005 0)
(0.0174144 -0.00459045 0)
(0.0185607 -0.00580046 0)
(0.02006 -0.00680473 0)
(0.0218307 -0.00748373 0)
(0.0237912 -0.00780194 0)
(0.0258538 -0.0076564 0)
(0.0278884 -0.00701602 0)
(0.0297559 -0.00585795 0)
(0.0313466 -0.00423737 0)
(0.0325523 -0.00215436 0)
(0.0332382 0.000339269 0)
(0.0333128 0.00312122 0)
(0.0327054 0.00618065 0)
(0.0314212 0.00935747 0)
(0.0293888 0.0125454 0)
(0.0265928 0.0155811 0)
(0.0231526 0.0183612 0)
(0.0190716 0.0207973 0)
(0.0144636 0.0227206 0)
(0.00946795 0.0241059 0)
(0.0042329 0.0249156 0)
(-0.00111071 0.0251588 0)
(-0.00648347 0.0247992 0)
(-0.0116766 0.0238097 0)
(-0.0165842 0.0222541 0)
(-0.021075 0.0201233 0)
(-0.0249748 0.0175368 0)
(-0.0281986 0.0146049 0)
(-0.03072 0.0114819 0)
(-0.0324736 0.00825627 0)
(-0.0334996 0.00513635 0)
(-0.0338499 0.0021935 0)
(-0.0335208 -0.000486528 0)
(-0.0326128 -0.0027749 0)
(-0.0312653 -0.00465511 0)
(-0.0295885 -0.00602831 0)
(-0.0277075 -0.00692168 0)
(-0.025753 -0.00733661 0)
(-0.0238288 -0.00729203 0)
(-0.0220315 -0.00685844 0)
(-0.0204594 -0.00609995 0)
(-0.0192037 -0.00509737 0)
(-0.0182909 -0.00395974 0)
(-0.0177439 -0.00279583 0)
(-0.0175539 -0.00171237 0)
(-0.0176845 -0.000804936 0)
(-0.0180809 -0.000169315 0)
(-0.0186488 0.000120841 0)
(-0.0192946 1.74191e-05 0)
(-0.0199387 -0.000521367 0)
(-0.0204225 -0.00150202 0)
(-0.0205952 -0.00290408 0)
(-0.0203689 -0.00465942 0)
(-0.0196508 -0.00667379 0)
(-0.0183758 -0.00883227 0)
(-0.0165141 -0.0109967 0)
(-0.0140786 -0.0130346 0)
(-0.0111062 -0.0149135 0)
(-0.00758435 -0.0169228 0)
(-0.00355097 -0.0181023 0)
(-5.52578e-05 -0.00520855 0)
(0.000186185 -0.00726551 0)
(0.00444464 -0.0232351 0)
(0.00938055 -0.0215833 0)
(0.0136148 -0.0187705 0)
(0.0170871 -0.0161026 0)
(0.019814 -0.0132069 0)
(0.021755 -0.0101369 0)
(0.0228927 -0.00708787 0)
(0.0232715 -0.00425049 0)
(0.0229856 -0.00178693 0)
(0.0221413 0.000158273 0)
(0.0209259 0.00150034 0)
(0.0195452 0.00222825 0)
(0.018133 0.00233513 0)
(0.0168416 0.00187255 0)
(0.0158181 0.000913026 0)
(0.0151656 -0.000440199 0)
(0.0149614 -0.00206893 0)
(0.0152588 -0.00384186 0)
(0.0160826 -0.00561979 0)
(0.0174105 -0.00725457 0)
(0.0192095 -0.00861963 0)
(0.021381 -0.00961534 0)
(0.0238177 -0.0101056 0)
(0.026417 -0.0099981 0)
(0.0290195 -0.00928175 0)
(0.0314648 -0.00793683 0)
(0.0336017 -0.00594573 0)
(0.0352961 -0.00338701 0)
(0.0363771 -0.000316291 0)
(0.0368008 0.00318615 0)
(0.0364338 0.00702443 0)
(0.0352092 0.0110478 0)
(0.0330925 0.015049 0)
(0.0300734 0.0188926 0)
(0.0262858 0.0224098 0)
(0.0217078 0.0254488 0)
(0.016483 0.0278846 0)
(0.0108231 0.0296428 0)
(0.00489077 0.0306754 0)
(-0.00120161 0.0309677 0)
(-0.00732966 0.0305364 0)
(-0.0132464 0.0293233 0)
(-0.0188379 0.0273261 0)
(-0.0239153 0.0246264 0)
(-0.0282744 0.0213406 0)
(-0.0317974 0.0176181 0)
(-0.0344784 0.013657 0)
(-0.0362457 0.00958717 0)
(-0.0370977 0.00563582 0)
(-0.0371694 0.0019602 0)
(-0.0364529 -0.00133021 0)
(-0.0350962 -0.00417308 0)
(-0.0332393 -0.00644468 0)
(-0.0310025 -0.00812639 0)
(-0.0285642 -0.00918218 0)
(-0.026056 -0.00959559 0)
(-0.0236414 -0.00942987 0)
(-0.0214442 -0.00874644 0)
(-0.0195599 -0.00766451 0)
(-0.0180819 -0.00627653 0)
(-0.0170756 -0.00471875 0)
(-0.0165548 -0.00313072 0)
(-0.0165056 -0.00164666 0)
(-0.0168861 -0.000395235 0)
(-0.0176254 0.000513101 0)
(-0.0186159 0.000975287 0)
(-0.0197361 0.0009011 0)
(-0.0208632 0.000258493 0)
(-0.0218324 -0.000929162 0)
(-0.0224535 -0.00270421 0)
(-0.0225753 -0.00495304 0)
(-0.022087 -0.00755311 0)
(-0.0208995 -0.0103546 0)
(-0.018971 -0.0131789 0)
(-0.016317 -0.0158467 0)
(-0.0129725 -0.0183105 0)
(-0.00891574 -0.0209405 0)
(-0.00420001 -0.0224785 0)
(-0.000139619 -0.00686083 0)
(0.000301952 -0.00942354 0)
(0.00534613 -0.0286471 0)
(0.0112506 -0.0265195 0)
(0.0162471 -0.0228478 0)
(0.020247 -0.019354 0)
(0.0232794 -0.0155916 0)
(0.0253031 -0.0116151 0)
(0.0263067 -0.00768416 0)
(0.0263542 -0.00404756 0)
(0.0255564 -0.000911295 0)
(0.0240755 0.00149928 0)
(0.0221781 0.00316276 0)
(0.0200994 0.00399591 0)
(0.0180215 0.00401801 0)
(0.0161406 0.00330585 0)
(0.0146203 0.00196131 0)
(0.0135967 0.000118128 0)
(0.0131641 -0.00206688 0)
(0.0133867 -0.00442691 0)
(0.0142974 -0.00679262 0)
(0.0158688 -0.00898401 0)
(0.0180191 -0.010836 0)
(0.0206776 -0.0122184 0)
(0.0237568 -0.0129395 0)
(0.0270456 -0.012961 0)
(0.0303423 -0.0121984 0)
(0.0335118 -0.0106178 0)
(0.0363468 -0.00824328 0)
(0.0386655 -0.00512822 0)
(0.0403236 -0.00141598 0)
(0.0411849 0.0029437 0)
(0.0411023 0.00769736 0)
(0.0399818 0.0127067 0)
(0.0377671 0.0176942 0)
(0.0344834 0.0225493 0)
(0.0302097 0.0269668 0)
(0.0250069 0.0307682 0)
(0.0190567 0.0338103 0)
(0.0125532 0.0359718 0)
(0.00569924 0.0372429 0)
(-0.00129344 0.0376004 0)
(-0.00834022 0.0370836 0)
(-0.0152121 0.0356047 0)
(-0.0216846 0.0331267 0)
(-0.0275194 0.0297302 0)
(-0.0324719 0.0256081 0)
(-0.0363776 0.0209036 0)
(-0.0392425 0.0159119 0)
(-0.0409912 0.0108193 0)
(-0.0416217 0.00589086 0)
(-0.0412921 0.00129572 0)
(-0.0401058 -0.00270981 0)
(-0.0381501 -0.00615485 0)
(-0.0356135 -0.00888599 0)
(-0.0326943 -0.0108294 0)
(-0.0295212 -0.0119802 0)
(-0.0263246 -0.0123758 0)
(-0.0232882 -0.0120542 0)
(-0.0205643 -0.0110495 0)
(-0.0182788 -0.00953116 0)
(-0.0165375 -0.00763054 0)
(-0.015413 -0.00553079 0)
(-0.0149251 -0.0033936 0)
(-0.0150588 -0.00138105 0)
(-0.0157558 0.000341339 0)
(-0.0169327 0.00161743 0)
(-0.0184756 0.0023216 0)
(-0.0202196 0.00234552 0)
(-0.0219709 0.00162877 0)
(-0.0235808 0.000157222 0)
(-0.024806 -0.00204525 0)
(-0.0253948 -0.00489981 0)
(-0.02522 -0.00823394 0)
(-0.0241645 -0.0118496 0)
(-0.0221662 -0.0155159 0)
(-0.0192316 -0.0189893 0)
(-0.0154014 -0.0222146 0)
(-0.0106409 -0.0256448 0)
(-0.00501804 -0.0276291 0)
(-0.000231794 -0.00886142 0)
(0.000415496 -0.0120476 0)
(0.00646821 -0.0351519 0)
(0.0136755 -0.0324384 0)
(0.0196792 -0.0276469 0)
(0.0243524 -0.0230762 0)
(0.0277635 -0.0181913 0)
(0.0298767 -0.013052 0)
(0.0306844 -0.00799611 0)
(0.030284 -0.00335807 0)
(0.0287861 0.000564852 0)
(0.0264793 0.0036013 0)
(0.023698 0.00562135 0)
(0.0206904 0.00656193 0)
(0.0177459 0.00644499 0)
(0.015099 0.00536746 0)
(0.0129553 0.00349382 0)
(0.0114751 0.00100581 0)
(0.0107705 -0.00190166 0)
(0.0109067 -0.00501996 0)
(0.0119185 -0.00813599 0)
(0.0137779 -0.0110643 0)
(0.016402 -0.0135692 0)
(0.019721 -0.0154415 0)
(0.0235378 -0.0165362 0)
(0.0276472 -0.0167214 0)
(0.0318867 -0.0159095 0)
(0.0359853 -0.0141022 0)
(0.0397026 -0.0113185 0)
(0.0427788 -0.00760078 0)
(0.0451413 -0.00304769 0)
(0.0466346 0.00229203 0)
(0.0469352 0.00814836 0)
(0.045946 0.0143155 0)
(0.0436696 0.020565 0)
(0.0400809 0.0266052 0)
(0.0351898 0.032082 0)
(0.0291782 0.0368469 0)
(0.0222391 0.0406569 0)
(0.0146662 0.0432794 0)
(0.00672298 0.044865 0)
(-0.00139638 0.0453449 0)
(-0.00959476 0.0447679 0)
(-0.0176361 0.042956 0)
(-0.0252521 0.0398921 0)
(-0.0320535 0.0356104 0)
(-0.0377858 0.0304367 0)
(-0.0422028 0.0245268 0)
(-0.0452655 0.0182334 0)
(-0.0469628 0.0118991 0)
(-0.0473075 0.00579398 0)
(-0.0464271 0.000129739 0)
(-0.0445243 -0.00480698 0)
(-0.041846 -0.00888836 0)
(-0.0384429 -0.0121213 0)
(-0.0345855 -0.0143596 0)
(-0.0305633 -0.015612 0)
(-0.0265541 -0.0159041 0)
(-0.0227187 -0.0152685 0)
(-0.0193108 -0.0138482 0)
(-0.0165181 -0.0117429 0)
(-0.0144429 -0.00919757 0)
(-0.0131791 -0.00639233 0)
(-0.0127243 -0.00353394 0)
(-0.013074 -0.000828279 0)
(-0.014178 0.00151348 0)
(-0.0159228 0.00329463 0)
(-0.0181529 0.00434833 0)
(-0.0206823 0.00452967 0)
(-0.0232941 0.00374179 0)
(-0.0257392 0.00194564 0)
(-0.0277343 -0.000766315 0)
(-0.0289763 -0.00437799 0)
(-0.0292368 -0.00864453 0)
(-0.0283736 -0.0133036 0)
(-0.026299 -0.0180449 0)
(-0.023015 -0.0225611 0)
(-0.0185605 -0.026784 0)
(-0.0128681 -0.0312589 0)
(-0.00603189 -0.0337911 0)
(-0.00031938 -0.0112693 0)
(0.000503194 -0.0152037 0)
(0.00784552 -0.0430782 0)
(0.0168068 -0.0396635 0)
(0.0241465 -0.033388 0)
(0.029691 -0.0273934 0)
(0.0335717 -0.0210483 0)
(0.0357715 -0.014411 0)
(0.0362852 -0.00791096 0)
(0.0352205 -0.00198304 0)
(0.0328402 0.00297178 0)
(0.0294707 0.00672609 0)
(0.0254928 0.00913096 0)
(0.0212968 0.0101178 0)
(0.0172201 0.00975353 0)
(0.0136004 0.00818331 0)
(0.0106886 0.00561364 0)
(0.00865137 0.00229042 0)
(0.00761131 -0.00154137 0)
(0.00764934 -0.00563695 0)
(0.00877596 -0.00971894 0)
(0.0109867 -0.0135832 0)
(0.0142175 -0.0169178 0)
(0.018307 -0.0194724 0)
(0.0230969 -0.0210571 0)
(0.0283272 -0.0214928 0)
(0.0336671 -0.0206739 0)
(0.0388693 -0.0186314 0)
(0.0436757 -0.0153803 0)
(0.0478221 -0.0109542 0)
(0.0511594 -0.00534376 0)
(0.0533789 0.00109196 0)
(0.0541746 0.00823471 0)
(0.0534553 0.0158859 0)
(0.0511198 0.0236338 0)
(0.0470658 0.0312007 0)
(0.0414504 0.0380829 0)
(0.0344926 0.0439697 0)
(0.0262664 0.0485994 0)
(0.0173099 0.0518492 0)
(0.0080348 0.0536818 0)
(-0.00138646 0.0543446 0)
(-0.0110704 0.0537924 0)
(-0.0206982 0.0516361 0)
(-0.0298093 0.0478232 0)
(-0.0378746 0.0425193 0)
(-0.0445524 0.0360101 0)
(-0.0496148 0.0285035 0)
(-0.0528923 0.0206426 0)
(-0.0544362 0.0127237 0)
(-0.0543609 0.00521161 0)
(-0.0528076 -0.00163409 0)
(-0.0499815 -0.00770025 0)
(-0.0462596 -0.0125937 0)
(-0.0418142 -0.0163334 0)
(-0.0368511 -0.0188976 0)
(-0.0316794 -0.0202344 0)
(-0.0265572 -0.0203619 0)
(-0.0217809 -0.0193517 0)
(-0.0175676 -0.0173349 0)
(-0.0141343 -0.014472 0)
(-0.011664 -0.0110568 0)
(-0.010197 -0.00732354 0)
(-0.0097823 -0.00353258 0)
(-0.0104082 6.04708e-05 0)
(-0.0120078 0.00320628 0)
(-0.0144553 0.00568428 0)
(-0.0175793 0.00724781 0)
(-0.0211433 0.00769136 0)
(-0.0248536 0.00686769 0)
(-0.0283739 0.00472474 0)
(-0.0314043 0.00130216 0)
(-0.0335313 -0.00323278 0)
(-0.0343866 -0.00868549 0)
(-0.0337979 -0.0146799 0)
(-0.0316506 -0.0208078 0)
(-0.027937 -0.0266768 0)
(-0.0226758 -0.0322262 0)
(-0.0157432 -0.0380873 0)
(-0.00727273 -0.0412837 0)
(-0.000376672 -0.0141361 0)
(0.000493404 -0.0189584 0)
(0.00943188 -0.0528644 0)
(0.0207922 -0.0486055 0)
(0.02995 -0.0403327 0)
(0.036629 -0.0324266 0)
(0.0410859 -0.0241744 0)
(0.0433641 -0.0156109 0)
(0.0434766 -0.00726594 0)
(0.0415593 0.000294176 0)
(0.0379118 0.00657969 0)
(0.0330764 0.011262 0)
(0.0275501 0.0141041 0)
(0.021797 0.0150488 0)
(0.0163204 0.0142485 0)
(0.0114989 0.0119564 0)
(0.00763293 0.00844169 0)
(0.00492134 0.00402956 0)
(0.00347694 -0.000962005 0)
(0.00339629 -0.00628076 0)
(0.00467574 -0.0115722 0)
(0.00732296 -0.0165697 0)
(0.0112963 -0.0210236 0)
(0.0163999 -0.0244979 0)
(0.0223698 -0.0267161 0)
(0.0289276 -0.0274521 0)
(0.0357063 -0.0267344 0)
(0.0423157 -0.0244408 0)
(0.0485015 -0.0206694 0)
(0.054021 -0.0153809 0)
(0.0584789 -0.00873166 0)
(0.061612 -0.000933192 0)
(0.0632331 0.00785963 0)
(0.0629043 0.0172589 0)
(0.0605899 0.0268693 0)
(0.0561355 0.0363287 0)
(0.049496 0.0449605 0)
(0.0410707 0.0523481 0)
(0.0312479 0.0580784 0)
(0.0205105 0.061996 0)
(0.00956338 0.0640136 0)
(-0.00126019 0.0648846 0)
(-0.0127162 0.0646222 0)
(-0.0244615 0.0620861 0)
(-0.0355368 0.057307 0)
(-0.0452458 0.0505417 0)
(-0.0533327 0.0423182 0)
(-0.0591413 0.0328814 0)
(-0.0625751 0.0230188 0)
(-0.0638624 0.0131978 0)
(-0.0630372 0.00393792 0)
(-0.0606032 -0.00442276 0)
(-0.0566592 -0.0116247 0)
(-0.0515735 -0.0174832 0)
(-0.0457587 -0.0218368 0)
(-0.0394206 -0.0246802 0)
(-0.0329008 -0.0260447 0)
(-0.0264969 -0.0259713 0)
(-0.0204763 -0.0244521 0)
(-0.0151773 -0.0216496 0)
(-0.0109433 -0.0178138 0)
(-0.00795326 -0.0132459 0)
(-0.00627115 -0.00834082 0)
(-0.00591786 -0.00338918 0)
(-0.00687611 0.00134413 0)
(-0.00906205 0.00553714 0)
(-0.012362 0.00892522 0)
(-0.0165994 0.0111923 0)
(-0.0214873 0.012043 0)
(-0.0266598 0.0112677 0)
(-0.0316818 0.00874385 0)
(-0.0360492 0.004526 0)
(-0.0392983 -0.00120079 0)
(-0.0409916 -0.00819263 0)
(-0.0407915 -0.0159064 0)
(-0.0385827 -0.0238244 0)
(-0.0343443 -0.0314576 0)
(-0.0280399 -0.0387888 0)
(-0.0194229 -0.0465191 0)
(-0.00871204 -0.0505187 0)
(-0.000333654 -0.0175324 0)
(0.000131231 -0.023229 0)
(0.0109325 -0.0652031 0)
(0.0256517 -0.0601101 0)
(0.0373233 -0.0490848 0)
(0.0454932 -0.0385209 0)
(0.0506514 -0.0277255 0)
(0.052988 -0.0166484 0)
(0.0525424 -0.00589384 0)
(0.0494843 0.0038024 0)
(0.044279 0.0118059 0)
(0.0375146 0.0176098 0)
(0.0298443 0.0208945 0)
(0.0220482 0.0217099 0)
(0.014773 0.0202531 0)
(0.00847891 0.0169166 0)
(0.00348729 0.0121264 0)
(1.59358e-05 0.00628726 0)
(-0.00188436 -0.000143589 0)
(-0.00209773 -0.00698808 0)
(-0.000596923 -0.0137254 0)
(0.00250556 -0.0201858 0)
(0.00731263 -0.0260785 0)
(0.0136859 -0.0307045 0)
(0.0212534 -0.0337005 0)
(0.0294582 -0.0348673 0)
(0.0378815 -0.0341547 0)
(0.046208 -0.0316418 0)
(0.0541132 -0.0273663 0)
(0.0612484 -0.0210886 0)
(0.0672349 -0.0130882 0)
(0.0718107 -0.00361153 0)
(0.0744449 0.00698154 0)
(0.0747529 0.018507 0)
(0.0726067 0.0307326 0)
(0.0675997 0.0428802 0)
(0.0598217 0.0536428 0)
(0.0496697 0.0627163 0)
(0.0375538 0.0697293 0)
(0.0245084 0.0741709 0)
(0.0117585 0.0760713 0)
(-0.0009807 0.0771503 0)
(-0.0146525 0.0775918 0)
(-0.0291618 0.0749788 0)
(-0.0430179 0.0693112 0)
(-0.0549673 0.0608721 0)
(-0.0645839 0.0504009 0)
(-0.0713097 0.038159 0)
(-0.0748561 0.0254374 0)
(-0.0755806 0.0132209 0)
(-0.0738013 0.00187623 0)
(-0.0699581 -0.00813954 0)
(-0.064474 -0.016817 0)
(-0.0578029 -0.0238509 0)
(-0.0502655 -0.0288448 0)
(-0.0422564 -0.0319421 0)
(-0.034123 -0.0332855 0)
(-0.0260757 -0.032893 0)
(-0.0185205 -0.0307688 0)
(-0.0119343 -0.0269884 0)
(-0.00667752 -0.0218308 0)
(-0.00307791 -0.0157895 0)
(-0.0011686 -0.00943864 0)
(-0.000873135 -0.00307118 0)
(-0.00220884 0.00313023 0)
(-0.00510696 0.00866016 0)
(-0.00943779 0.0132641 0)
(-0.0150561 0.0165162 0)
(-0.0216206 0.018014 0)
(-0.0286671 0.0174149 0)
(-0.0355907 0.0144984 0)
(-0.0417756 0.00924807 0)
(-0.0466173 0.00190754 0)
(-0.0493916 -0.00702652 0)
(-0.0496882 -0.0169771 0)
(-0.0474237 -0.0272274 0)
(-0.0425479 -0.037212 0)
(-0.0348759 -0.0470145 0)
(-0.0239237 -0.0573319 0)
(-0.0100778 -0.0621259 0)
(4.6018e-05 -0.0213834 0)
(-0.0008197 -0.0275904 0)
(0.012705 -0.0808268 0)
(0.0323144 -0.0753571 0)
(0.0472886 -0.0605015 0)
(0.057114 -0.0461447 0)
(0.062902 -0.0319428 0)
(0.0651616 -0.017604 0)
(0.0639408 -0.00368176 0)
(0.0593893 0.00887982 0)
(0.0519696 0.0191555 0)
(0.042521 0.0263116 0)
(0.0320987 0.030078 0)
(0.0216938 0.0305045 0)
(0.012141 0.0280279 0)
(0.00405022 0.0232426 0)
(-0.00225852 0.0167172 0)
(-0.00654929 0.00913709 0)
(-0.00893716 0.000932916 0)
(-0.00926237 -0.0075276 0)
(-0.00753544 -0.0161964 0)
(-0.00398354 -0.0246126 0)
(0.00187316 -0.0323208 0)
(0.00991027 -0.0385332 0)
(0.0193672 -0.0426511 0)
(0.0296688 -0.0444205 0)
(0.0402032 -0.0437726 0)
(0.0505229 -0.0411328 0)
(0.0606968 -0.0362907 0)
(0.0701602 -0.0290422 0)
(0.0780449 -0.019821 0)
(0.0840375 -0.00880409 0)
(0.0881072 0.00393895 0)
(0.0898827 0.0181043 0)
(0.0885591 0.0331574 0)
(0.0829194 0.0482163 0)
(0.0731655 0.0625762 0)
(0.06051 0.0746933 0)
(0.0455928 0.0836038 0)
(0.029767 0.0885118 0)
(0.014555 0.0902245 0)
(-0.00113718 0.09185 0)
(-0.0173426 0.0934222 0)
(-0.0349172 0.0908511 0)
(-0.052275 0.0834133 0)
(-0.0675283 0.07209 0)
(-0.0797351 0.058013 0)
(-0.0876534 0.0421896 0)
(-0.0907413 0.0261996 0)
(-0.0902104 0.0111266 0)
(-0.0868368 -0.00261063 0)
(-0.081485 -0.0143776 0)
(-0.0743286 -0.0243565 0)
(-0.0653028 -0.03238 0)
(-0.0553114 -0.0380125 0)
(-0.0451577 -0.0412207 0)
(-0.0350555 -0.0424646 0)
(-0.025135 -0.0417341 0)
(-0.0156899 -0.0388305 0)
(-0.00731852 -0.0336604 0)
(-0.000776912 -0.0266474 0)
(0.00346526 -0.0187193 0)
(0.00553945 -0.0105797 0)
(0.00580775 -0.00245758 0)
(0.00407707 0.00533467 0)
(0.000357822 0.0125966 0)
(-0.00515447 0.0188806 0)
(-0.0124296 0.0235293 0)
(-0.0210979 0.026048 0)
(-0.0306048 0.0258527 0)
(-0.0401862 0.0225471 0)
(-0.0488609 0.0160065 0)
(-0.0556653 0.00655026 0)
(-0.0598478 -0.00504981 0)
(-0.0609166 -0.0179607 0)
(-0.058724 -0.0312426 0)
(-0.0532708 -0.0443845 0)
(-0.0440541 -0.0577395 0)
(-0.0299955 -0.0717014 0)
(-0.011635 -0.0768351 0)
(0.000981356 -0.025233 0)