/*--------------------------------*- C++ -*----------------------------------*\
| =========                 |                                                 |
| \\      /  F ield         | OpenFOAM: The Open Source CFD Toolbox           |
|  \\    /   O peration     | Version:  2412                                  |
|   \\  /    A nd           | Website:  www.openfoam.com                      |
|    \\/     M anipulation  |                                                 |
\*---------------------------------------------------------------------------*/
FoamFile
{
    version     2.0;
    format      ascii;
    arch        "LSB;label=32;scalar=64";
    class       volScalarField;
    location    "0.7";
    object      p;
}
// * * * * * * * * * * * * * * * * * * * * * * * * * * * * * * * * * * * * * //

dimensions      [1 -1 -2 0 0 0 0];

internalField   nonuniform List<scalar> 
6400
(
132117
132130
132156
132198
132254
132324
132410
132511
132628
132761
132910
133076
133259
133460
133680
133917
134173
134448
134742
135055
135387
135736
136103
136485
136883
137292
137711
138137
138566
138993
139414
139822
140212
140576
140908
141200
141446
141638
141772
141844
141851
141794
141674
141494
141260
140977
140653
140293
139907
139500
139079
138650
138219
137789
137366
136951
136549
136161
135789
135434
135098
134780
134482
134203
133942
133701
133479
133275
133089
132921
132770
132635
132516
132414
132327
132255
132199
132157
132130
132117
125465
125478
125505
125546
125602
125672
125758
125859
125975
126107
126256
126422
126605
126806
127024
127262
127518
127793
128087
128400
128732
129082
129450
129834
130233
130645
131067
131496
131929
132361
132786
133200
133595
133966
134303
134601
134852
135048
135185
135259
135266
135208
135085
134902
134663
134374
134044
133679
133287
132874
132448
132015
131579
131146
130719
130302
129898
129508
129135
128779
128442
128125
127826
127547
127287
127046
126824
126620
126435
126267
126116
125982
125863
125761
125674
125603
125547
125505
125478
125465
118800
118813
118839
118880
118936
119005
119090
119190
119306
119438
119586
119751
119933
120133
120351
120588
120843
121118
121412
121726
122059
122411
122781
123169
123571
123988
124416
124852
125293
125734
126170
126595
127002
127385
127735
128045
128307
128512
128656
128734
128742
128681
128552
128361
128111
127811
127468
127091
126686
126262
125825
125381
124937
124496
124063
123641
123232
122840
122464
122106
121768
121450
121151
120872
120612
120372
120151
119948
119763
119596
119446
119312
119195
119093
119007
118936
118881
118839
118813
118800
112120
112133
112159
112200
112254
112324
112407
112507
112621
112752
112898
113062
113243
113441
113658
113894
114149
114424
114718
115033
115367
115722
116095
116487
116896
117320
117757
118204
118657
119112
119564
120007
120433
120836
121206
121535
121814
122035
122190
122273
122282
122217
122079
121874
121608
121289
120926
120529
120104
119662
119208
118749
118291
117839
117396
116966
116551
116153
115774
115414
115074
114754
114455
114177
113918
113678
113458
113257
113073
112907
112759
112626
112510
112410
112325
112255
112199
112159
112132
112119
105427
105439
105465
105505
105558
105627
105709
105807
105920
106049
106194
106355
106534
106731
106946
107181
107435
107709
108003
108319
108655
109013
109390
109788
110205
110639
111088
111549
112019
112494
112968
113434
113887
114317
114715
115072
115376
115618
115789
115882
115892
115820
115669
115444
115154
114809
114418
113992
113541
113072
112595
112116
111640
111172
110716
110275
109852
109448
109064
108701
108359
108038
107739
107461
107203
106965
106747
106547
106365
106201
106055
105924
105810
105711
105627
105558
105504
105464
105438
105425
98718.9
98731.1
98756.4
98795.4
98848.1
98914.9
98996
99091.9
99202.8
99329.3
99471.9
99631.2
99807.7
100002
100215
100448
100700
100973
101267
101584
101922
102283
102666
103070
103496
103942
104406
104885
105376
105876
106377
106875
107362
107828
108263
108656
108995
109267
109460
109565
109578
109497
109326
109074
108752
108371
107943
107480
106993
106492
105983
105479
104980
104493
104021
103567
103134
102722
102333
101966
101622
101301
101002
100725
100468
100233
100016
99818.9
99639.8
99478.4
99334.1
99206.1
99093.9
98996.9
98914.7
98847.1
98793.7
98754.4
98728.9
98716.6
91997.6
92009.5
92034.1
92072.1
92123.5
92188.7
92267.9
92361.4
92469.9
92593.6
92733.3
92889.4
93062.8
93254.1
93464.2
93693.9
93944.2
94215.7
94509.4
94825.9
95165.9
95529.9
95918.2
96330.9
96767.4
97227
97708.2
98208.7
98725.4
99254.2
99790.1
100326
100855
101367
101850
102290
102674
102986
103209
103332
103347
103254
103057
102770
102404
101976
101500
100990
100459
99917.5
99375.4
98835.7
98308.8
97798.3
97307.5
96838.9
96393.8
95973.5
95578.1
95207.8
94862.2
94540.7
94242.6
93967
93713
93479.8
93266.5
93072.3
92896.5
92738.4
92597.1
92472
92362.3
92267.6
92187.5
92121.6
92069.6
92031.3
92006.4
91994.5
85263
85274.5
85298.4
85335.2
85385
85448.2
85525.1
85615.9
85721.3
85841.8
85977.8
86130.2
86299.6
86487.1
86693.4
86919.6
87166.7
87435.8
87727.9
88044
88385.2
88752.3
89146.1
89567
90015.1
90489.9
90990.6
91515.3
92061.3
92624.8
93201.1
93783.2
94363.1
94930.5
95472.7
95974.4
96417.7
96782.2
97047.1
97194.2
97212.6
97101.7
96870.2
96533.9
96111.9
95623.6
95087.5
94519.5
93934
93342.8
92755.7
92179.2
91620.3
91083.3
90571.1
90085.8
89628.5
89199.3
88798.2
88424.6
88077.8
87756.6
87460.1
87187
86936.2
86706.7
86497.4
86307.3
86135.5
85981.3
85843.7
85722
85615.5
85523.6
85445.9
85382
85331.7
85294.6
85270.6
85259
78515.6
78526.6
78549.6
78585
78633
78693.9
78768
78855.7
78957.5
79074
79205.7
79353.6
79518.3
79700.9
79902.4
80124
80366.9
80632.4
80921.8
81236.5
81578
81947.4
82346.1
82775.1
83235
83726.1
84248
84799.4
85378.3
85981.4
86603.9
87239.4
87879.7
88514
89128.9
89707.1
90227.1
90662.8
90984.9
91166.1
91188.7
91052.9
90772.9
90372.2
89877.1
89312.9
88702
88063.1
87412.2
86761.7
86123.8
85504
84908.8
84342.3
83807
83304.1
82834
82396.2
81989.9
81614
81266.9
80947.3
80653.5
80384.2
80137.9
79913.2
79708.9
79523.8
79357
79207.5
79074.3
78956.7
78853.8
78765.2
78690.3
78628.8
78580.4
78544.8
78521.7
78510.5
71755.7
71766.3
71788.3
71822.1
71868
71926.2
71997.2
72081.2
72178.8
72290.7
72417.4
72559.7
72718.7
72895.4
73091
73306.8
73544.1
73804.6
74089.8
74401.7
74741.9
75112.4
75515
75951.3
76422.6
76930.2
77474.2
78054.4
78669.3
79316.1
79990.2
80686.8
81396.6
82109.3
82811.2
83483.9
84102.6
84634.1
85036.9
85267.2
85294.5
85122.2
84774.4
84287.5
83698.3
83039.2
82337
81613.4
80885.8
80168.8
79471.4
78802.5
78167.2
77568.9
77009.2
76488.5
76006.1
75560.7
75150.5
74773.5
74427.9
74111.4
73822.1
73558.1
73317.6
73099
72900.9
72722
72561.1
72417.1
72289.1
72176.2
72077.7
71992.8
71921.3
71862.6
71816.4
71782.3
71760.2
71749.6
64984
64994
65014.9
65046.9
65090.5
65145.7
65213
65292.9
65385.7
65492.2
65613
65749
65901.3
66070.9
66259.1
66467.5
66697.6
66951.3
67230.6
67537.6
67874.7
68244.3
68648.9
69090.8
69572.5
70095.9
70662.3
71272.3
71925.4
72619.5
73351.3
74114.5
74902.1
75704.2
76507.5
77294.3
78038.3
78699.6
79218.7
79522.9
79553.7
79325.9
78881.4
78278.9
77569.8
76794.2
75982.9
75159.8
74342.6
73549.4
72787.2
72064.6
71386.4
70755
70170.9
69633.1
69139.9
68688.6
68276.6
67901
67558.9
67247.6
66964.7
66707.9
66475
66264.1
66073.5
65901.9
65748
65610.6
65488.6
65381.2
65287.6
65207.2
65139.3
65083.7
65040
65007.8
64986.9
64976.8
58201.2
58210.6
58230.1
58260.2
58301.1
58353
58416.2
58491.3
58578.7
58679.1
58793.2
58921.9
59066.2
59227.3
59406.7
59606
59827
60071.8
60342.8
60642.6
60973.9
61339.9
61743.8
62188.9
62678.7
63216.2
63804
64443.8
65136.2
65880
66672.4
67507.7
68380.8
69280.7
70197.7
71117
72016.2
72853.4
73545.7
73967.1
73995.3
73679.3
73094.2
72337.2
71478.5
70563.5
69624.6
68687.9
67772.9
66892.1
66058.5
65278.4
64555.6
63891.1
63283.9
62731.3
62229.9
61775.9
61365.1
60993.7
60658.1
60354.8
60080.8
59833.2
59609.8
59408.3
59226.9
59063.9
58918.2
58788.3
58673.4
58572.3
58484.3
58408.7
58345.1
58293
58252
58221.8
58202.2
58192.7
51407.8
51416.6
51434.7
51462.6
51500.5
51548.7
51607.5
51677.3
51758.6
51852.1
51958.5
52078.8
52213.9
52365.1
52534
52722.2
52931.9
53165.4
53425.4
53714.9
54037.2
54396
54795.5
55240.1
55734.4
56282.9
56889.7
57558
58289.6
59084.3
59939.6
60851.1
61811.7
62814.1
63850.6
64913.4
65993.8
67065.3
68028.4
68658.6
68661.1
68187.4
67394.6
66436.4
65398.9
64323.7
63239.3
62175.7
61151.3
60178.1
59268.6
58429.2
57662.1
56966.5
56339.3
55775.7
55270.5
54818
54412.7
54049.6
53724
53431.9
53169.6
52933.9
52722.2
52531.9
52361.3
52208.5
52072.2
51951
51844
51750
51668.3
51598.3
51539.4
51491.1
51453.1
51425.1
51407
51398.2
44604.9
44612.8
44629.4
44655
44689.7
44733.8
44787.6
44851.5
44926.1
45011.9
45109.8
45220.5
45345.1
45484.9
45641.4
45816.4
46012.3
46231.7
46477.5
46753.1
47062.3
47409.6
47799.9
48238.8
48732.5
49287.1
49908.6
50602.2
51371.3
52216.6
53135.6
54122.7
55170.3
56272.6
57422.3
58618.6
59877.7
61236.6
62619.7
63558.2
63522
62799.3
61710
60516.7
59287.2
58040.6
56793.2
55602
54458.6
53386.6
52398.3
51499.5
50690.7
49968.5
49327
48758.6
48255.8
47810.8
47416.5
47066.6
46755.5
46478.3
46231
46010
45812.3
45635.4
45477.3
45336.2
45210.7
45099.4
45001.3
44915.3
44840.6
44776.7
44722.9
44678.8
44644.2
44618.6
44602
44594
37793
37800.2
37815.2
37838.2
37869.4
37909
37957.4
38014.9
38082.1
38159.5
38247.9
38348.1
38460.9
38587.5
38729.6
38889.1
39068.5
39270.7
39498.7
39756.3
40047.6
40377.8
40752.8
41179.3
41665.2
42218.7
42848.2
43561.6
44364.4
45258.7
46241.1
47302.4
48431.2
49618.2
50854.5
52130
53500.3
55174
57229.6
58789.2
58521.6
57402
55901.5
54465.1
53073.5
51672.8
50290.8
48937.4
47666.3
46490.9
45423.2
44468.1
43623.9
42883.2
42236.3
41672.2
41180.2
40750.4
40373.9
40043.1
39751.6
39493.9
39265.3
39062
38881
38719.6
38575.8
38448
38334.7
38234.4
38146.2
38069
38002.1
37944.8
37896.6
37857.2
37826.1
37803.2
37788.3
37781.1
30973.3
30979.7
30993
31013.2
31040.7
31075.4
31117.9
31168.5
31227.6
31295.9
31374.1
31462.6
31562.4
31674.3
31799.8
31941.2
32101.1
32282.7
32489.1
32724
32992
33298.7
33650.7
34056.2
34524.7
35066.9
35694.5
36418.6
37248.7
38188.7
39233.9
40367.5
41564.1
42807.2
44072.9
45338.1
46623.9
48367
51613.4
56031.3
54528.4
51633.8
49638.6
48107.5
46648.1
45132
43606.7
42127.1
40734.9
39456.7
38313
37309.9
36441.6
35695.4
35056.1
34508.6
34038.5
33633.6
33283.2
32978.6
32712.6
32479.1
32273.2
32090.9
31929.2
31785.5
31658
31545.1
31445.2
31357.1
31279.8
31212.2
31153.7
31103.6
31061.6
31027.1
30999.9
30979.9
30966.7
30960.4
24146.7
24152.3
24163.8
24181.1
24204.5
24234.1
24270.2
24313.3
24363.8
24422.4
24489.5
24565.8
24651.4
24746.9
24853.6
24974
25111.3
25268.8
25449.5
25657
25895.6
26171.3
26491.4
26865.2
27303.9
27820.9
28431.9
29153.2
30000.2
30981.9
32094.2
33308.6
34569.5
35842.4
37110.8
38209.1
38698.7
39140.5
43844.6
51241.2
50554.5
43684.7
41669.2
41087.4
39910.8
38385.2
36756
35150.9
33630.6
32246.2
31032.8
29995.7
29121.6
28389.2
27776.1
27261.5
26827.4
26458.9
26144.1
25873.5
25639.4
25435.5
25256.5
25098.6
24958.7
24834.8
24725.3
24628.8
24543.7
24468.9
24403.3
24346.1
24296.7
24254.4
24218.9
24189.7
24166.7
24149.6
24138.4
24132.9
17314.1
17319.1
17328.7
17343.1
17362.1
17386.2
17415.5
17450.6
17491.9
17540
17595.8
17659.3
17730.2
17807.9
17893
17988.9
18100.2
18230.3
18381.3
18556.1
18758.8
18995.1
19272.6
19601.3
19993.8
20466.1
21037.9
21732.5
22574.5
23583.2
24759.3
26055.2
27349.2
28577.4
29744.2
30080.4
28748.7
27604.2
32548.8
39068.2
40159.3
32971.3
31376.3
33007.3
32812.1
31326.3
29594.1
27899.4
26264.1
24782.8
23521.5
22480.8
21633.4
20945.2
20384.4
19924.3
19543.4
19225.3
18957
18729
18533.9
18365.1
18217.5
18087.1
17971.4
17869.2
17779.4
17700.7
17631.6
17571.1
17518.2
17472.2
17432.4
17398.4
17369.8
17346.4
17327.8
17313.8
17304.4
17299.6
10483.9
10488.5
10497.1
10508.6
10523.4
10541.8
10564.2
10591.1
10623
10660.6
10705.2
10757
10814.3
10874.2
10934.4
11001.8
11084.8
11186.5
11306.3
11445.9
11608.4
11799.1
12026
12298.8
12630.8
13040.3
13551.4
14196.3
15015.7
16051.4
17324.5
18767.1
20136.1
21339.4
22637.4
22680.2
17463.7
14959.2
19875.4
25987
28092
24664.7
21961
23845.9
25004.6
24028.6
22280.4
20508.3
18731.4
17124.6
15820
14802.5
14015.3
13402.1
12918.8
12532.8
12220.1
11963.3
11749.4
11570
11419.1
11289.9
11176.9
11076
10984.9
10904.5
10834.8
10774.5
10722
10676.2
10636.1
10601.4
10571.4
10545.7
10524.2
10506.5
10492.3
10481.2
10473
10468.5
3581.25
3586.5
3593.18
3600.01
3608.4
3618.82
3631.56
3646.91
3665.35
3687.76
3716.95
3755.11
3799.37
3842
3868.1
3891.25
3932.09
3993.95
4069.64
4160.07
4265.88
4391.13
4544.35
4732.92
4969.34
5272.31
5668.08
6198.09
6930.7
7967.34
9406.29
11155.5
12640.9
13664.4
14771.8
13481.9
4764.01
3995.6
6949.42
13304.8
17359.3
17195.4
13650.3
14614.5
17102.4
16201.5
14527.5
12719.2
10648.5
8808.1
7483.21
6571.07
5930.76
5464.55
5115.26
4847.95
4639
4472.62
4336.88
4227.67
4141.55
4067.21
3999.31
3934.64
3871.49
3818.13
3776.21
3741.66
3711.9
3686.03
3663.54
3644.09
3627.39
3613.22
3601.37
3591.65
3583.81
3577.42
3571.14
3566.16
112.436
115.239
117.988
120.827
124.32
128.668
133.963
140.283
147.734
156.6
167.184
174.607
180.246
198.198
214.293
231.613
250.594
267.995
294.099
326.01
363.155
406.773
457.784
518.456
592.756
685.967
803.258
952.855
1166.42
1563.27
2470.91
4097.05
5006.79
5176.43
5600.65
3712.93
616.292
645.443
1046.05
4235.2
9198.33
8279.94
4033.59
3414.33
8439.72
7821.01
6295.63
4991.71
3251.03
1890.94
1290.53
1020.95
850.881
721.793
620.973
541.551
477.2
424.004
383.086
350.872
323.075
295.93
265.436
238.192
217.995
202.379
188.208
175.401
163.884
153.672
144.693
136.856
130.078
124.286
119.417
115.411
112.187
109.563
106.991
104.34
-8.98556
-9.05731
-8.98262
-8.89819
-8.78872
-8.64957
-8.47626
-8.26151
-7.99359
-7.5249
-6.02617
-3.81152
-3.52123
-10.1201
-26.011
-28.4694
-23.3248
-23.4559
-23.3173
-21.0711
-18.4376
-15.1602
-12.6226
-10.7025
-8.70694
-6.996
-6.49677
-7.39592
-1.14649
49.0558
246.52
770.308
777.11
219.619
481.738
401.138
182.943
197.689
254.616
604.704
3775.72
1265.02
544.588
269.459
1141.43
1619.96
880.158
836.015
483.118
130.88
10.2563
-12.2305
-13.7164
-13.7718
-14.643
-16.473
-19.6527
-22.3849
-20.3601
-16.7608
-13.3806
-12.0484
-14.0276
-14.0789
-13.5032
-12.4363
-11.6028
-11.2527
-11.2052
-11.2393
-11.2904
-11.34
-11.3832
-11.4191
-11.4484
-11.4721
-11.4921
-11.5104
-11.5457
-11.4576
-9.4925
-9.47195
-9.41755
-9.33141
-9.20992
-9.04861
-8.84173
-8.58284
-8.28619
-7.94105
-7.3133
-6.66142
-7.23889
-10.0429
-14.9771
-18.4969
-22.1505
-25.5832
-25.7456
-23.3713
-20.2395
-17.132
-14.7626
-12.9036
-11.1653
-9.89483
-9.59636
-9.58613
-5.52113
10.1059
40.1757
83.3654
354.341
864.174
659.592
229.7
180.359
166.098
163.479
192.696
1384.19
182.318
216.992
222.284
220.796
574.679
628.907
172.431
38.3124
14.8804
-9.4986
-16.8121
-17.2473
-17.2195
-17.6993
-18.6234
-20.5234
-23.0321
-23.2516
-20.7572
-16.6222
-12.1797
-9.88313
-10.2507
-11.2286
-11.5814
-11.5777
-11.5764
-11.6337
-11.7016
-11.7644
-11.8197
-11.8662
-11.9043
-11.9347
-11.9584
-11.9763
-11.989
-11.9966
-11.9932
-10.0404
-10.0205
-9.97016
-9.89141
-9.78093
-9.63457
-9.44687
-9.21174
-8.93247
-8.59923
-8.2129
-8.60248
-11.5244
-16.7906
-22.9913
-27.9433
-29.0068
-28.5891
-27.0138
-23.9526
-20.4136
-17.3083
-14.8939
-13.0197
-11.489
-10.3734
-9.88375
-9.73454
-8.25643
-4.34979
3.34852
-21.6362
-41.0849
105.894
315.559
283.864
202.613
173.532
200.288
138.818
321.576
193.032
184.035
216.301
239.795
112.666
-43.1274
-63.5111
-24.7592
-13.5255
-15.1689
-17.0213
-17.5011
-17.8533
-18.5776
-19.6562
-21.15
-22.8028
-23.5866
-22.922
-21.0855
-17.958
-14.5148
-12.4269
-11.7559
-11.8705
-12.0448
-12.1255
-12.1985
-12.2658
-12.3219
-12.3689
-12.4077
-12.4392
-12.4643
-12.4839
-12.4988
-12.5097
-12.5168
-12.5156
-10.6219
-10.6032
-10.562
-10.4979
-10.4091
-10.2945
-10.1542
-9.99194
-9.82568
-9.69392
-9.69
-10.3778
-13.095
-17.9531
-23.3516
-27.5473
-29.8473
-30.4901
-29.0588
-25.5492
-21.5925
-18.22
-15.5733
-13.5473
-11.9789
-10.7673
-10.0376
-10.1198
-11.8945
-16.1499
-20.741
-28.2316
-23.2768
46.2757
166.535
212.545
186.92
144.536
165.587
76.8523
15.4805
35.0838
96.7207
159.451
176.422
47.197
-24.6352
-32.5439
-24.3159
-20.9478
-18.8039
-17.8139
-17.6507
-18.0564
-18.8835
-20.2035
-22.0478
-24.1488
-25.1625
-24.6514
-22.6019
-19.6151
-16.3756
-13.939
-12.8723
-12.7125
-12.7352
-12.7677
-12.8141
-12.8602
-12.8999
-12.9334
-12.9613
-12.9841
-13.0023
-13.0166
-13.0276
-13.0357
-13.0408
-13.0418
-11.2331
-11.2186
-11.1893
-11.1448
-11.0856
-11.0144
-10.9375
-10.8692
-10.8396
-10.9113
-11.2091
-12.0267
-13.9344
-17.221
-21.2366
-24.9114
-27.4444
-28.1737
-26.8531
-24.316
-20.9594
-18.1952
-15.9336
-14.1729
-12.8193
-11.8649
-11.501
-12.3757
-15.476
-20.1697
-26.0085
-30.4167
-27.8556
-13.1551
26.3763
105.151
134.039
61.1924
22.3308
14.5423
11.0807
11.2603
18.5415
38.7923
31.0507
-12.5877
-29.8982
-31.2798
-26.8707
-23.1825
-20.7324
-19.1478
-18.5989
-18.7329
-19.3548
-20.3549
-21.6034
-22.7756
-23.7094
-23.3211
-21.5607
-19.0952
-16.5657
-14.8617
-14.018
-13.6837
-13.5494
-13.4994
-13.489
-13.4945
-13.5057
-13.5184
-13.5306
-13.5415
-13.5506
-13.5581
-13.5642
-13.5689
-13.5719
-13.5731
-11.8675
-11.8592
-11.8431
-11.8199
-11.7924
-11.7662
-11.7522
-11.7694
-11.8512
-12.0551
-12.4807
-13.2944
-14.7007
-16.8207
-19.4537
-22.0511
-23.9671
-24.6385
-23.9242
-22.415
-20.3151
-18.2927
-16.5514
-15.1558
-14.1141
-13.4643
-13.4187
-14.3904
-16.8945
-20.8449
-25.7133
-29.0405
-27.8386
-21.8974
-10.3757
13.2236
29.357
8.07324
-13.4854
4.07265
7.40753
9.04576
10.8702
5.59086
-14.3956
-25.4276
-31.272
-31.2861
-27.9405
-24.6247
-22.1326
-20.4804
-19.687
-19.5414
-19.8315
-20.418
-21.1553
-21.7907
-22.057
-21.542
-20.2298
-18.5303
-16.9129
-15.7435
-15.0168
-14.6068
-14.3825
-14.2578
-14.1882
-14.1496
-14.1284
-14.1171
-14.1112
-14.1082
-14.1069
-14.1067
-14.1072
-14.108
-14.1087
-14.109
-12.5167
-12.5146
-12.5114
-12.5086
-12.51
-12.5233
-12.5608
-12.6421
-12.7969
-13.07
-13.5266
-14.2534
-15.341
-16.8074
-18.5224
-20.1806
-21.4223
-21.9635
-21.7283
-20.904
-19.6685
-18.3765
-17.1799
-16.1991
-15.5052
-15.1666
-15.3347
-16.2015
-17.9583
-20.6805
-23.974
-26.2015
-25.5884
-22.3516
-18.6315
-14.9994
-11.6226
0.40694
-1.39904
2.31655
4.40119
5.67818
6.88346
1.25571
-23.9339
-30.1945
-30.1436
-29.1252
-26.919
-24.7124
-22.8689
-21.5376
-20.7535
-20.4247
-20.419
-20.6222
-20.9029
-21.093
-21.0137
-20.5105
-19.6
-18.4769
-17.3828
-16.4966
-15.8612
-15.4428
-15.1722
-14.996
-14.8809
-14.8051
-14.7545
-14.7202
-14.6964
-14.6795
-14.6676
-14.6595
-14.6541
-14.6508
-14.6489
-14.6479
-13.1725
-13.176
-13.1838
-13.1983
-13.2238
-13.2678
-13.3428
-13.4659
-13.6612
-13.9606
-14.4053
-15.0247
-15.8816
-16.9467
-18.1264
-19.2414
-20.0934
-20.5306
-20.5017
-20.0744
-19.3752
-18.5318
-17.7444
-17.1016
-16.6704
-16.5268
-16.7591
-17.449
-18.6227
-20.1958
-21.8553
-22.8275
-22.3628
-20.4753
-18.7617
-18.3313
-6.69195
3.35603
1.34002
0.788417
1.10012
1.17113
0.791499
-6.97605
-17.932
-28.977
-27.6181
-26.9339
-25.6901
-24.4064
-23.1935
-22.1969
-21.5223
-21.101
-20.9142
-20.875
-20.8838
-20.8303
-20.6081
-20.1447
-19.4559
-18.6416
-17.8324
-17.1346
-16.5895
-16.1889
-15.9013
-15.6968
-15.5517
-15.4485
-15.3743
-15.3204
-15.2806
-15.2511
-15.2293
-15.2136
-15.2025
-15.1951
-15.1906
-15.1883
-13.8275
-13.8353
-13.8521
-13.8799
-13.9234
-13.9893
-14.0885
-14.2352
-14.4468
-14.7445
-15.1494
-15.6858
-16.3639
-17.1602
-18.0098
-18.8065
-19.431
-19.7893
-19.845
-19.6295
-19.2186
-18.7065
-18.2077
-17.8035
-17.5538
-17.513
-17.7292
-18.2249
-18.9678
-19.8274
-20.5553
-20.7792
-20.1107
-18.5424
-17.0955
-16.1637
-9.44922
-1.65032
-2.31346
-2.17496
-2.51034
-3.18793
-4.68828
-9.17343
-13.22
-25.5168
-25.3415
-25.3169
-24.829
-24.1016
-23.2959
-22.5558
-21.9706
-21.5459
-21.2742
-21.1024
-20.9624
-20.783
-20.4993
-20.073
-19.5156
-18.8856
-18.2583
-17.6954
-17.2268
-16.8559
-16.571
-16.3554
-16.1937
-16.0724
-15.9812
-15.9121
-15.8594
-15.8192
-15.7889
-15.7664
-15.7501
-15.7389
-15.7319
-15.7284
-14.4757
-14.4868
-14.5102
-14.5476
-14.603
-14.6827
-14.7951
-14.9516
-15.1628
-15.4444
-15.8079
-16.2624
-16.8056
-17.4163
-18.0497
-18.6397
-19.1125
-19.4093
-19.5064
-19.42
-19.1965
-18.8998
-18.6004
-18.3601
-18.2275
-18.2393
-18.4201
-18.7673
-19.238
-19.7285
-20.0637
-20.0187
-19.3446
-17.9149
-16.2328
-12.8806
-10.8863
-7.32391
-6.25211
-5.95523
-6.15561
-7.18009
-9.27331
-12.6466
-16.9144
-21.0854
-24.3523
-24.6735
-24.3687
-23.8937
-23.327
-22.7496
-22.2472
-21.8438
-21.5379
-21.2978
-21.079
-20.836
-20.53
-20.1408
-19.6761
-19.1695
-18.6648
-18.1994
-17.795
-17.4588
-17.1875
-16.9727
-16.8045
-16.6734
-16.5712
-16.4915
-16.4292
-16.3808
-16.3435
-16.3155
-16.2948
-16.2803
-16.2711
-16.2666
-15.1129
-15.1265
-15.154
-15.1972
-15.2599
-15.3465
-15.4633
-15.6201
-15.8234
-16.0819
-16.4015
-16.7842
-17.2237
-17.7021
-18.1882
-18.6391
-19.0082
-19.2593
-19.3772
-19.3701
-19.2664
-19.1083
-18.9431
-18.8142
-18.7579
-18.7994
-18.9521
-19.2071
-19.5289
-19.8473
-20.0514
-20.0126
-19.5969
-18.6805
-17.7723
-14.0181
-12.5445
-11.5099
-10.3252
-9.88837
-10.0675
-11.4376
-13.8221
-16.8052
-19.4278
-21.9645
-24.4896
-24.7643
-24.2558
-23.8351
-23.3803
-22.8839
-22.4393
-22.0612
-21.7467
-21.4759
-21.2203
-20.9511
-20.6448
-20.2906
-19.8935
-19.4729
-19.0548
-18.6628
-18.3126
-18.0113
-17.7593
-17.5525
-17.3851
-17.2505
-17.1427
-17.0565
-16.9879
-16.9337
-16.8914
-16.8591
-16.8349
-16.8178
-16.8067
-16.8013
-15.7365
-15.7519
-15.7823
-15.8267
-15.8932
-15.982
-16.0985
-16.2491
-16.4385
-16.6711
-16.9493
-17.2716
-17.6309
-18.013
-18.3956
-18.7504
-19.0479
-19.2646
-19.39
-19.429
-19.3999
-19.3302
-19.2531
-19.1985
-19.1925
-19.2536
-19.39
-19.5948
-19.8454
-20.102
-20.307
-20.4116
-20.404
-20.2349
-20.6481
-17.3668
-15.8733
-15.5242
-14.5951
-14.0375
-14.1841
-15.6887
-18.1341
-20.8183
-22.6301
-24.2443
-25.4304
-25.3226
-24.4413
-23.9393
-23.4536
-22.9948
-22.5864
-22.2306
-21.9204
-21.6413
-21.3745
-21.1014
-20.8077
-20.4868
-20.1422
-19.7854
-19.4322
-19.0977
-18.793
-18.5248
-18.2943
-18.0999
-17.9381
-17.8047
-17.6954
-17.6063
-17.5344
-17.4767
-17.4312
-17.3958
-17.3691
-17.35
-17.3376
-17.3315
-16.3454
-16.3613
-16.3923
-16.4391
-16.5051
-16.5921
-16.7041
-16.8449
-17.0176
-17.2244
-17.4654
-17.7374
-18.0339
-18.344
-18.6516
-18.9376
-19.1827
-19.3718
-19.4975
-19.5625
-19.5789
-19.5651
-19.5446
-19.5386
-19.5653
-19.6392
-19.7673
-19.9473
-20.1702
-20.4214
-20.686
-20.9729
-21.3627
-21.8751
-23.7064
-21.1379
-19.5201
-19.4886
-18.7125
-18.0934
-18.0975
-19.5029
-21.8825
-24.3212
-25.7726
-26.8454
-27.3599
-26.0666
-24.8173
-24.1101
-23.551
-23.0935
-22.7042
-22.3668
-22.0681
-21.795
-21.5334
-21.2705
-20.997
-20.7088
-20.408
-20.1016
-19.7995
-19.5117
-19.2461
-19.0077
-18.7997
-18.6195
-18.4664
-18.3376
-18.2301
-18.1412
-18.0683
-18.0092
-17.9619
-17.9248
-17.8965
-17.876
-17.8627
-17.8561
-16.9393
-16.9553
-16.9856
-17.0321
-17.0958
-17.1788
-17.2838
-17.4131
-17.5685
-17.7508
-17.9587
-18.1887
-18.4354
-18.6903
-18.9419
-19.1771
-19.3826
-19.5485
-19.67
-19.7487
-19.7919
-19.8126
-19.8271
-19.8509
-19.8973
-19.9782
-20.1007
-20.2681
-20.4819
-20.7451
-21.0713
-21.5029
-22.1624
-23.094
-25.3674
-24.9907
-23.0105
-23.2865
-22.3896
-21.6091
-21.3276
-22.5293
-24.7106
-26.8175
-28.09
-28.7929
-28.4088
-26.5267
-25.0542
-24.2202
-23.6175
-23.1635
-22.7923
-22.4758
-22.1961
-21.9394
-21.6938
-21.45
-21.2014
-20.9453
-20.6828
-20.4183
-20.1584
-19.9098
-19.6783
-19.4677
-19.2802
-19.1157
-18.9732
-18.8514
-18.7481
-18.6616
-18.5898
-18.5308
-18.4832
-18.4454
-18.4163
-18.3952
-18.3814
-18.3745
-17.5182
-17.5338
-17.5628
-17.6074
-17.6674
-17.7449
-17.8415
-17.9587
-18.0973
-18.2571
-18.4362
-18.6312
-18.8377
-19.0492
-19.2578
-19.4541
-19.6286
-19.7744
-19.8885
-19.9722
-20.0296
-20.0698
-20.1042
-20.1444
-20.2008
-20.2833
-20.3992
-20.5552
-20.7598
-21.0265
-21.3821
-21.8809
-22.6463
-23.7638
-25.8916
-27.3801
-25.8389
-26.5672
-25.3496
-24.2478
-23.5763
-24.4227
-26.2131
-27.961
-29.0882
-29.3911
-28.3757
-26.3647
-24.9915
-24.1827
-23.6064
-23.1844
-22.8454
-22.5598
-22.3079
-22.0761
-21.8543
-21.6355
-21.4146
-21.1899
-20.962
-20.734
-20.5103
-20.2957
-20.0943
-19.909
-19.7415
-19.5924
-19.4613
-19.3486
-19.251
-19.1686
-19.0993
-19.0419
-18.995
-18.9575
-18.9284
-18.9071
-18.8932
-18.8864
-18.0833
-18.0977
-18.1253
-18.1668
-18.2225
-18.2936
-18.3812
-18.4862
-18.6088
-18.7483
-18.9024
-19.0682
-19.2418
-19.4186
-19.5929
-19.758
-19.9072
-20.0349
-20.1393
-20.2217
-20.2844
-20.3339
-20.3779
-20.425
-20.4835
-20.5616
-20.6664
-20.8062
-20.9915
-21.2403
-21.5823
-22.0701
-22.8109
-23.925
-25.9415
-27.7881
-27.8739
-28.3565
-27.0923
-25.5734
-24.5312
-24.8997
-26.2555
-27.6493
-28.6164
-28.5767
-27.3866
-25.7043
-24.6485
-23.9843
-23.5042
-23.1498
-22.8635
-22.6214
-22.4064
-22.2068
-22.0146
-21.8245
-21.6332
-21.4393
-21.2437
-21.0484
-20.8568
-20.6722
-20.4976
-20.3354
-20.187
-20.0534
-19.9346
-19.8304
-19.7398
-19.6635
-19.5977
-19.5427
-19.4975
-19.4611
-19.4327
-19.4118
-19.3981
-19.3913
-18.6352
-18.6483
-18.6738
-18.7118
-18.7627
-18.8271
-18.9057
-18.999
-19.1068
-19.228
-19.3604
-19.5013
-19.6477
-19.7961
-19.9423
-20.0816
-20.2091
-20.3204
-20.414
-20.491
-20.5528
-20.6041
-20.6503
-20.6969
-20.7508
-20.8184
-20.9063
-21.022
-21.1757
-21.3838
-21.672
-22.0824
-22.6967
-23.6021
-25.2142
-27.2003
-28.1556
-28.2055
-27.0411
-25.3219
-24.0857
-23.9575
-24.9954
-26.1101
-26.915
-26.79
-25.874
-24.7907
-24.1298
-23.6729
-23.3324
-23.0719
-22.8552
-22.6676
-22.4967
-22.3346
-22.1759
-22.0171
-21.8561
-21.6926
-21.5273
-21.362
-21.1992
-21.0414
-20.891
-20.75
-20.6198
-20.5012
-20.3947
-20.3004
-20.2178
-20.1466
-20.0855
-20.0338
-19.9912
-19.9564
-19.9293
-19.9092
-19.8961
-19.8894
-19.1745
-19.1864
-19.2095
-19.2438
-19.2898
-19.3474
-19.4173
-19.4997
-19.5941
-19.699
-19.8123
-19.9318
-20.0554
-20.1802
-20.3031
-20.4207
-20.5291
-20.6251
-20.7074
-20.7763
-20.833
-20.8806
-20.923
-20.9637
-21.0076
-21.0597
-21.1251
-21.2098
-21.3213
-21.4713
-21.6768
-21.9637
-22.3819
-22.9701
-23.9392
-25.4517
-26.4315
-26.2543
-25.1982
-23.6686
-22.5012
-22.1469
-22.9651
-23.9174
-24.6679
-24.7379
-24.3196
-23.8501
-23.556
-23.3194
-23.1311
-22.975
-22.836
-22.7084
-22.5857
-22.4641
-22.341
-22.2145
-22.0841
-21.95
-21.8133
-21.6756
-21.5389
-21.4054
-21.2771
-21.1556
-21.0424
-20.9384
-20.8441
-20.7598
-20.6853
-20.6203
-20.5641
-20.5163
-20.4765
-20.444
-20.4185
-20.3996
-20.3872
-20.3808
-19.7031
-19.7137
-19.7343
-19.765
-19.8058
-19.857
-19.9186
-19.9909
-20.073
-20.1634
-20.26
-20.3613
-20.4655
-20.5705
-20.6737
-20.7725
-20.8638
-20.945
-21.0155
-21.0749
-21.1237
-21.164
-21.1985
-21.2295
-21.2598
-21.293
-21.3323
-21.3813
-21.4443
-21.5276
-21.6391
-21.7884
-21.9956
-22.2727
-22.653
-23.3349
-23.797
-23.5123
-22.5813
-21.3809
-20.491
-20.2254
-20.8911
-21.7883
-22.5944
-22.9761
-23.0481
-23.0433
-23.0324
-22.9906
-22.9417
-22.8859
-22.8235
-22.7557
-22.6817
-22.601
-22.5135
-22.4192
-22.3186
-22.2126
-22.1026
-21.9902
-21.8773
-21.7659
-21.6578
-21.5545
-21.4573
-21.3672
-21.2848
-21.2104
-21.1439
-21.0854
-21.0345
-20.9909
-20.9543
-20.9244
-20.9009
-20.8834
-20.8719
-20.8658
-20.2222
-20.2315
-20.2497
-20.277
-20.3129
-20.3579
-20.4119
-20.4748
-20.5458
-20.6231
-20.7052
-20.7907
-20.8783
-20.9663
-21.0525
-21.1348
-21.2105
-21.2778
-21.3361
-21.3851
-21.4245
-21.4556
-21.4799
-21.4986
-21.5133
-21.5256
-21.5374
-21.5498
-21.5639
-21.5812
-21.6036
-21.6301
-21.652
-21.6771
-21.6676
-21.6658
-21.6462
-21.1757
-20.2935
-19.356
-18.7782
-18.7379
-19.3044
-20.1983
-21.093
-21.738
-22.159
-22.4435
-22.6256
-22.7331
-22.7969
-22.8275
-22.8336
-22.821
-22.7927
-22.751
-22.6977
-22.6341
-22.5616
-22.4818
-22.3963
-22.3071
-22.2159
-22.1247
-22.0352
-21.9488
-21.8666
-21.7896
-21.7185
-21.6536
-21.5952
-21.5432
-21.4977
-21.4585
-21.4255
-21.3983
-21.3769
-21.361
-21.3505
-21.3448
-20.7326
-20.7406
-20.7566
-20.7804
-20.8119
-20.8513
-20.8983
-20.9527
-21.0137
-21.0794
-21.1485
-21.2203
-21.2936
-21.3669
-21.4383
-21.506
-21.5677
-21.6219
-21.6682
-21.7064
-21.7357
-21.7565
-21.7693
-21.7747
-21.7729
-21.7645
-21.7496
-21.7277
-21.698
-21.6556
-21.5994
-21.5215
-21.425
-21.2891
-21.0774
-20.7791
-20.3814
-19.7189
-18.8361
-18.0627
-17.7197
-17.8571
-18.4005
-19.285
-20.2311
-21.0224
-21.6261
-22.0611
-22.3615
-22.5709
-22.7174
-22.8159
-22.8787
-22.9136
-22.9258
-22.9193
-22.8971
-22.8615
-22.8147
-22.7588
-22.6958
-22.6276
-22.5563
-22.4836
-22.4111
-22.3402
-22.2719
-22.2072
-22.1467
-22.0909
-22.0402
-21.9948
-21.9547
-21.92
-21.8906
-21.8665
-21.8473
-21.833
-21.8235
-21.8183
-21.2354
-21.2424
-21.2561
-21.2766
-21.304
-21.3382
-21.3789
-21.4258
-21.4777
-21.5331
-21.5908
-21.6505
-21.7115
-21.7721
-21.8305
-21.8853
-21.9345
-21.9767
-22.0116
-22.039
-22.0579
-22.068
-22.0693
-22.0612
-22.0436
-22.0159
-21.9771
-21.9248
-21.8564
-21.7713
-21.6607
-21.5171
-21.3337
-21.099
-20.7839
-20.357
-19.7917
-19.0355
-18.1862
-17.5402
-17.3377
-17.5601
-18.1232
-18.968
-19.8987
-20.7227
-21.3839
-21.8776
-22.2399
-22.5108
-22.7126
-22.8606
-22.967
-23.0401
-23.086
-23.1096
-23.1144
-23.1035
-23.0796
-23.045
-23.0023
-22.9532
-22.9
-22.8441
-22.7871
-22.7303
-22.6748
-22.6213
-22.5707
-22.5235
-22.4803
-22.4412
-22.4065
-22.3764
-22.3507
-22.3294
-22.3125
-22.2999
-22.2914
-22.2868
-21.7322
-21.738
-21.7498
-21.7671
-21.7908
-21.8202
-21.8551
-21.8952
-21.9391
-21.9852
-22.0328
-22.0821
-22.1322
-22.1818
-22.2289
-22.2722
-22.3102
-22.3415
-22.3659
-22.383
-22.3918
-22.3916
-22.3817
-22.3612
-22.3292
-22.2848
-22.2258
-22.1504
-22.0553
-21.9368
-21.7888
-21.6028
-21.3705
-21.0853
-20.7293
-20.2705
-19.6765
-18.9342
-18.1635
-17.6279
-17.5171
-17.7688
-18.3199
-19.0895
-19.9455
-20.724
-21.3662
-21.8635
-22.2482
-22.5497
-22.7842
-22.9647
-23.102
-23.2038
-23.2762
-23.3241
-23.3514
-23.3615
-23.3575
-23.3419
-23.3171
-23.2853
-23.2482
-23.2074
-23.1644
-23.1203
-23.0763
-23.0332
-22.9917
-22.9527
-22.9165
-22.8836
-22.8541
-22.8284
-22.8063
-22.7879
-22.7732
-22.7622
-22.7548
-22.7506
-22.2239
-22.2287
-22.2386
-22.2533
-22.2736
-22.2986
-22.3283
-22.3622
-22.3987
-22.4367
-22.4756