/*--------------------------------*- C++ -*----------------------------------*\
| =========                 |                                                 |
| \\      /  F ield         | OpenFOAM: The Open Source CFD Toolbox           |
|  \\    /   O peration     | Version:  2412                                  |
|   \\  /    A nd           | Website:  www.openfoam.com                      |
|    \\/     M anipulation  |                                                 |
\*---------------------------------------------------------------------------*/
FoamFile
{
    version     2.0;
    format      ascii;
    arch        "LSB;label=32;scalar=64";
    class       volScalarField;
    location    "4.65";
    object      p;
}
// * * * * * * * * * * * * * * * * * * * * * * * * * * * * * * * * * * * * * //

dimensions      [1 -1 -2 0 0 0 0];

internalField   nonuniform List<scalar> 
6400
(
131015
131004
130982
130950
130907
130856
130797
130732
130661
130588
130512
130436
130360
130287
130217
130150
130087
130029
129975
129926
129881
129839
129800
129763
129728
129694
129662
129630
129598
129568
129538
129509
129482
129456
129434
129414
129398
129386
129378
129374
129375
129380
129389
129402
129418
129436
129456
129477
129499
129521
129543
129564
129584
129604
129624
129644
129664
129686
129711
129738
129770
129807
129849
129897
129951
130010
130075
130144
130217
130292
130368
130443
130515
130584
130646
130700
130745
130780
130804
130816
124388
124376
124354
124321
124277
124225
124165
124098
124026
123951
123874
123796
123720
123645
123574
123506
123443
123385
123332
123282
123237
123196
123158
123122
123087
123054
123022
122991
122960
122929
122899
122870
122842
122817
122794
122774
122758
122745
122737
122734
122734
122740
122749
122762
122778
122797
122817
122839
122861
122884
122905
122926
122946
122966
122984
123003
123023
123044
123068
123095
123126
123162
123204
123252
123306
123366
123431
123502
123576
123653
123730
123807
123881
123951
124015
124070
124117
124153
124177
124189
117771
117760
117736
117702
117656
117601
117538
117469
117394
117316
117236
117155
117076
117000
116927
116858
116795
116736
116683
116634
116590
116550
116513
116478
116445
116413
116382
116351
116320
116290
116259
116230
116201
116175
116151
116131
116113
116101
116092
116089
116090
116095
116106
116120
116137
116157
116178
116201
116224
116247
116268
116289
116309
116327
116345
116362
116380
116399
116421
116446
116476
116511
116552
116600
116654
116715
116783
116855
116932
117012
117093
117173
117251
117324
117391
117450
117499
117536
117562
117575
111168
111155
111130
111093
111044
110986
110919
110845
110765
110682
110598
110513
110431
110351
110276
110205
110141
110082
110029
109982
109939
109901
109866
109833
109802
109772
109742
109711
109681
109650
109619
109588
109558
109531
109505
109483
109465
109451
109442
109438
109440
109446
109458
109473
109492
109514
109538
109562
109586
109610
109633
109653
109672
109689
109705
109720
109735
109752
109771
109793
109821
109854
109894
109941
109996
110059
110129
110205
110286
110370
110456
110542
110625
110704
110776
110839
110892
110932
110960
110974
104577
104563
104536
104495
104443
104379
104306
104226
104140
104051
103960
103870
103782
103698
103619
103547
103481
103422
103370
103324
103284
103248
103216
103186
103158
103130
103101
103071
103041
103009
102977
102945
102913
102883
102855
102831
102811
102796
102786
102782
102785
102792
102805
102823
102845
102869
102896
102923
102949
102975
102998
103019
103037
103053
103066
103078
103089
103102
103117
103135
103159
103190
103228
103275
103331
103396
103469
103549
103636
103727
103820
103914
104004
104091
104169
104239
104297
104341
104372
104387
97999.8
97984.8
97954.7
97910
97851.7
97781.4
97700.9
97612.3
97518
97420.2
97321.3
97223.6
97129
97039.5
96956.5
96881.1
96813.9
96755.1
96704.3
96660.9
96624
96592.1
96563.8
96537.9
96512.8
96487.4
96460.7
96432.3
96401.8
96369.3
96335.4
96300.6
96266
96232.7
96201.8
96174.5
96151.9
96134.9
96124.1
96120.1
96122.8
96132.2
96147.8
96168.7
96194
96222.5
96252.8
96283.5
96313.4
96341.3
96366.1
96387.3
96404.6
96418
96428
96435.6
96442.1
96449.1
96458.3
96471.6
96490.8
96517.8
96553.7
96599.8
96656.5
96723.8
96801.3
96887.9
96981.9
97081.5
97184.2
97287.4
97388.3
97484.1
97572.1
97649.7
97714.5
97764.6
97798.6
97815.7
91438.7
91422
91388.2
91338
91272.6
91193.7
91103.6
91004.7
90899.6
90791.1
90681.8
90574.4
90471.3
90374.8
90286.4
90207.4
90138.5
90079.9
90031
89991
89958.5
89931.7
89908.9
89888.1
89867.7
89846.1
89822.1
89795
89764.3
89730.5
89694
89655.8
89617.1
89579.3
89544
89512.6
89486.5
89466.8
89454.5
89450.1
89453.8
89465.3
89484.2
89509.3
89539.5
89573.3
89608.9
89644.7
89679
89710.3
89737.3
89759.2
89775.5
89786.3
89792.1
89794.2
89794.1
89793.8
89795.6
89801.8
89814.7
89836.6
89869.2
89913.9
89971.4
90041.9
90124.8
90218.9
90322.4
90432.8
90547.6
90663.5
90777.2
90885.6
90985.3
91073.4
91147.1
91204
91242.7
91262.1
84895.2
84876.3
84837.9
84780.9
84706.7
84617.2
84515.1
84403.3
84284.7
84162.7
84040.4
83921
83807.3
83701.9
83606.8
83523.5
83452.8
83394.8
83348.7
83313.4
83286.9
83267.1
83251.5
83237.7
83223.4
83206.7
83186
83160.5
83129.6
83093.8
83053.8
83010.8
82966.6
82922.8
82881.5
82844.5
82813.7
82790.5
82776.1
82771.2
82776
82790.3
82813.4
82844.1
82880.8
82921.6
82964.3
83006.9
83047.2
83083.1
83113.2
83136.2
83151.5
83159
83159.6
83154.6
83145.9
83136.2
83128.1
83124.9
83129.4
83144.4
83172.4
83215
83273.4
83347.7
83437.2
83540.6
83655.8
83780
83909.9
84041.7
84171.5
84295.6
84410.1
84511.3
84596.1
84661.7
84706.2
84728.4
78371.6
78350
78306.2
78240.8
78155.7
78053.2
77936.3
77808.5
77673.3
77534.7
77396.3
77261.9
77135
77018.7
76915.4
76827
76754.4
76697.5
76655.4
76626.5
76608.2
76597.7
76591.8
76587.2
76581
76570.6
76554.3
76530.7
76499.2
76460.5
76415.7
76366.3
76314.6
76262.9
76213.6
76169.3
76132.3
76104.4
76087.1
76081.4
76087.7
76105.5
76134.1
76171.9
76217
76267
76319.1
76370.6
76418.8
76461.2
76495.5
76520.3
76534.5
76538.1
76532
76517.9
76498.3
76476.2
76455.4
76439.8
76433.2
76439.1
76460.8
76500.4
76559.4
76638.1
76735.7
76850.7
76980.5
77121.7
77270.4
77421.8
77571.4
77715.1
77847.8
77965.4
78064
78140.3
78192
78217.7
71870.7
71846.1
71795.5
71720
71621.6
71503.1
71368.2
71220.9
71065.4
70906.5
70748.3
70595.4
70452.2
70322.5
70209.3
70114.7
70040
69985
69948.6
69928.5
69921.2
69923.2
69930
69937.6
69941.9
69939.8
69928.8
69907.6
69874.9
69832.3
69780.9
69723
69661.4
69599.1
69539.4
69485.5
69440.3
69406.2
69385.1
69378.4
69386.3
69408.6
69444.2
69491.3
69547.2
69609
69673.3
69736.6
69795.3
69846.3
69886.5
69914
69927.2
69926.1
69911.7
69886
69852.2
69814.3
69777
69745.2
69724
69717.9
69731
69766.4
69825.8
69909.7
70016.7
70146
70293.9
70456.3
70628.3
70803.7
70977.3
71145.2
71300.4
71438.2
71553.8
71643.3
71703.8
71733.7
65396.1
65368.1
65309.3
65221.4
65106.7
64968.9
64812.2
64641.4
64460.7
64277.6
64095.2
63919.4
63756
63609.7
63484.3
63382.5
63305.6
63253.7
63225.1
63216.7
63224.3
63242.7
63266.5
63290
63308.2
63316.8
63312.4
63293
63259.5
63211.5
63151.3
63082
63007.2
62931
62857.6
62791.2
62735.3
62693.1
62667.1
62658.9
62668.9
62696.8
62741.3
62800
62869.8
62946.9
63027
63105.6
63178.2
63240.5
63288.9
63320.5
63332.8
63326.1
63301.3
63261
63209.2
63150.9
63092.2
63039.4
62999
62977.1
62978.8
63008.2
63067.8
63158.1
63275.7
63422.8
63593.4
63782.7
63982.4
64187.6
64392.1
64587.7
64769.9
64932.4
65069
65174.7
65246.1
65280.9
58951.7
58920
58851.1
58747.5
58613.1
58452.3
58269.8
58071.3
57862.8
57648.2
57435.9
57231.4
57042.8
56876
56735.7
56625
56546.2
56498.5
56480.5
56487.8
56515.1
56555.4
56601.5
56646.1
56682.4
56704.8
56709.2
56693.1
56656.7
56600.9
56528.8
56444.2
56352.2
56257.9
56166.7
56083.9
56014.2
55961.6
55929.2
55918.8
55931.4
55966.3
56022
56095.6
56183
56279.6
56380
56478.4
56569.1
56646.6
56706.1
56743.7
56755.5
56742.2
56704.6
56645.8
56570.9
56486.4
56400
56320
56254.7
56211.9
56198.5
56219.9
56278.4
56375.5
56509.1
56676.9
56876
57096.6
57330.9
57572
57812.1
58043.3
58258.1
58450.6
58613
58739.2
58824.2
58864.9
52542.7
52506.2
52423.6
52299.9
52142.1
51954.9
51742.8
51510.7
51266.1
51015.9
50767.9
50528.6
50308.1
50116
49956.9
49835.2
49755.1
49713.1
49709
49737.3
49790.7
49859.9
49935.4
50007.6
50067.7
50108.1
50123.4
50110.8
50070.3
50004
49915.8
49811.2
49696.5
49578.6
49464.5
49360.6
49273.2
49207.1
49166.2
49153.1
49168.7
49212.5
49282.3
49374.5
49484.4
49605.9
49732.2
49856.1
49970.3
50067.8
50142.2
50189
50200.6
50179.5
50126.1
50044
49939.6
49821.3
49699.2
49583.8
49486.1
49416.2
49382.7
49393.4
49450.9
49556.5
49708.4
49901.2
50135.8
50394.9
50672
50956.6
51240.1
51513.3
51767.8
51995.3
52188.9
52341.4
52444.4
52492.7
46175.4
46130.4
46028.2
45879.1
45695
45478.7
45232.4
44961.4
44674.4
44380.9
44090.6
43804.7
43547.1
43323.4
43140.8
43005.8
42921.9
42888.1
42902.7
42958.6
43046.7
43153.9
43268.1
43376.7
43467.9
43531.6
43560.7
43551.9
43505.4
43424.7
43315.2
43184.3
43040.2
42891.8
42748
42617.2
42507
42423.7
42372.1
42355.3
42374.6
42429.3
42516.8
42632.6
42770.8
42923.8
43083.1
43239.9
43384.6
43508.2
43602
43657.9
43674.2
43644.9
43571.8
43460.1
43317.8
43156.1
42987.7
42826.7
42686.9
42581.3
42522.8
42519
42574.6
42691.3
42867.4
43101.7
43371.2
43675.3
44004
44341.2
44676.6
44999.3
45299.1
45568.7
45799.2
45985.8
46113.5
46173.1
39859.6
39800.1
39672
39492.7
39279.5
39029.5
38743.7
38426.2
38087.8
37741.6
37395
37063.8
36761.2
36490.3
36276.5
36124
36036
36012.7
36050.3
36142.4
36278.1
36434.7
36599.5
36756
36888.1
36982.1
37028.8
37023.9
36968.4
36867.9
36730.4
36565.2
36383.2
36195.7
36013.9
35848.6
35709.4
35604.1
35538.7
35517.2
35540.9
35609.2
35718.9
35864.4
36038.2
36231
36432.4
36631
36815.3
36973.5
37094.4
37167.9
37187.3
37147.6
37049.8
36900
36709
36491.1
36263.1
36042.9
35848.6
35696.8
35605.2
35582.8
35636.1
35766.5
35970.1
36246.9
36571.1
36933.7
37322
37725.6
38123
38505.1
38858.5
39176.1
39452.8
39682.4
39842.9
39919.6
33608.3
33532.9
33376.4
33162.7
32910.1
32619.8
32285.1
31910.5
31507.7
31096.5
30686.6
30292.2
29927.6
29605.4
29347.7
29171.3
29078
29068.4
29137.2
29271.7
29480.2
29699
29931.3
30151.8
30338
30471.8
30540.2
30537.9
30468.4
30341
30166.2
29956.4
29725.5
29488
29257.9
29048.7
28872.5
28739.2
28656.3
28628.5
28657.6
28742.8
28880.2
29063
29281.7
29524.6
29778.9
30030.9
30266.2
30470
30627.6
30724.8
30751.9
30700.4
30571.4
30372.7
30118.6
29827.9
29522.2
29224.5
28958.7
28747.6
28611.4
28564.6
28615.4
28765.3
29014.4
29340.7
29729.9
30164.5
30628.5
31107
31582.3
32039
32460
32837.3
33172.9
33453.5
33651.6
33748.3
27432.8
27350.1
27163.6
26912.7
26613
26264.3
25864
25418
24940.5
24449.1
23959
23484.3
23041
22649.8
22322.7
22119.1
22020
22027.8
22138.5
22340.5
22618
22933.1
23260.4
23569.7
23830.9
24019.3
24116.7
24115.1
24022.5
23857.1
23632
23363.3
23069.2
22767.1
22474.8
22209.3
21985.8
21816.7
21711.3
21675.3
21710.9
21817.1
21989.4
22219.1
22494.6
22801.1
23122.3
23441.8
23742.9
24007.2
24215.3
24348.6
24388.1
24322.5
24152.6
23889
23551
23163.5
22755.2
22355.6
21995.8
21707.3
21515.2
21438.1
21484.7
21653
21962.4
22361.5
22835.8
23359.9
23916
24488.7
25060.1
25610.1
26121
26581.2
26984.5
27321.4
27561.3
27675.9
21349
21253.8
21047.2
20755.9
20394.6
19974.9
19492.6
18956.7
18383.6
17791.8
17201.5
16625
16076.6
15578.2
15146.6
14945.1
14822.9
14835.1
14992.6
15281.5
15675.2
16121.1
16578
17010.1
17375.2
17641.6
17782.6
17781.1
17644
17431.8
17139.9
16793.4
16417.5
16033.4
15662.4
15326.2
15043.8
14830.4
14696.9
14650.2
14693.3
14825
15039.7
15327.2
15673
16058.2
16462.4
16866.5
17251.9
17596.1
17873
18062.1
18120.7
18035.6
17809
17456.8
17005.9
16488.4
15943.7
15404.8
14914.3
14520.7
14261.1
14161.4
14226.9
14418.1
14784
15288
15872.4
16505.4
17173.2
17864
18558.4
19229.5
19856.5
20419.5
20904.4
21299.7
21582.9
21721.8
15343.4
15248.9
15022.4
14695.5
14261.3
13764.9
13184.2
12539.5
11853.6
11139.8
10434.7
9740.61
9062.08
8435
8000.76
7644.06
7394.69
7375.34
7590.82
8022.48
8616.15
9263.44
9912.15
10516.9
11030.8
11402.1
11598.4
11586.6
11352
11099.3
10716.3
10263.6
9780.17
9287.8
8811
8377.93
8014.37
7739.06
7566.29
7504.16
7556.9
7723.65
7997.56
8364.87
8806.13
9295.19
9805.32
10315.9
10809.8
11259.8
11624.3
11901.9
11995.1
11891.5
11593.5
11125.9
10523.4
9829.36
9094.08
8348.05
7640.78
7098.26
6762.35
6658.81
6805.68
7042.21
7460.92
8123.91
8854.31
9615.08
10411
11243.6
12089.6
12908.1
13682.6
14369.5
14936.9
15385
15730.5
15894.7
9410.5
9319.11
9039.38
8569.28
8193.75
7653.97
6948.32
6159.01
5363.63
4648.68
4012.74
3419.47
2837.32
2271.16
1786.72
1550.97
1475.62
1544.31
1726.64
2021.71
2529.15
3106.28
3722.51
4357.67
4973.48
5484.94
5755.61
5755.2
5511.94
5108.61
4630.14
4147.89
3676.12
3225.16
2813.16
2465.33
2196.45
2006.21
1893.47
1852.96
1884.36
1991.1
2178.02
2448.2
2800.45
3218.09
3675.83
4159.05
4663.26
5179.12
5665.09
6003.41
6149.99
6034.63
5656.93
5053.04
4369.47
3656.62
2996.39
2362.36
1844.46
1508.36
1279.16
1168.09
1197.87
1343.7
1671.64
2171.45
2709.47
3287.68
3941.52
4714.01
5631.16
6631.05
7611.45
8443.28
9055.11
9521.57
9976.58
10208.4
3980.48
3937
3754.46
3494.12
3127.73
2620.06
2041.98
1491.72
1027.4
733.249
512.105
332.079
176.302
59.9985
2.93885
-4.87668
-5.32714
-5.44437
-5.35897
-4.04148
65.0568
227.569
451.137
748.831
1092.37
1402.13
1583.48
1589.33
1417.12
1097.8
837.402
621.898
441.463
296.995
187.088
111.967
65.8509
39.8302
27.3166
23.353
26.4738
38.4809
63.9723
110.053
185.476
295.677
439.49
616.864
832.498
1094.3
1433.31
1737.41
1852.64
1766.15
1506.91
1130.9
747.369
430.839
196.158
23.2632
-8.35471
-8.37653
-8.08083
-7.77944
-7.65924
-6.93674
3.61377
53.3527
145.042
276.247
459.277
725.302
1157.59
1807.36
2576.53
3332.26
3910.35
4338.43
4651.35
4881.64
665.85
650.349
604.892
511.608
366.414
203.172
73.655
7.01258
-6.47632
-7.09549
-6.838
-6.55638
-6.49755
-6.38536
-5.97358
-5.85173
-5.92054
-5.91192
-5.74406
-5.45296
-5.74876
-6.03467
-5.96609
-5.99675
-6.65027
-7.00695
18.1636
54.6765
35.0694
1.63289
-1.06082
-2.28183
-4.45804
-4.88496
-4.73284
-4.63651
-4.41118
-4.04535
-3.80782
-3.75922
-3.76459
-3.58421
-3.2993
-3.02807
-2.91283
-3.09562
-3.55533
-4.03757
-4.42832
-3.37613
24.0352
68.9884
69.7103
21.4833
-10.3561
-10.741
-10.0332
-9.65157
-9.16266
-8.63988
-8.61011
-8.68703
-8.53785
-8.39626
-8.26449
-8.10956
-7.99425
-7.98386
-8.25757
-8.22799
-7.84811
-6.93405
-3.08693
47.1563
206.029
475.683
781.011
1031.6
1197.96
1290.7
-9.27091
-8.84975
-8.87075
-9.28497
-9.67201
-9.71065
-9.41856
-9.13062
-8.6931
-7.89349
-7.41359
-7.17796
-7.01906
-6.96658
-6.81467
-6.64929
-6.61722
-6.56911
-6.42649
-6.15847
-6.07281
-6.15968
-6.25479
-6.57396
-7.39419
-8.5038
-9.45004
-9.1651
-9.27607
-7.25978
-5.37127
-5.40856
-5.95644
-5.98377
-5.81088
-5.66318
-5.4176
-5.05497
-4.80662
-4.77674
-4.74207
-4.54726
-4.30304
-4.06856
-3.95809
-4.10032
-4.49589
-5.07139
-5.89235
-7.41852
-9.98187
-11.6156
-12.489
-12.2794
-11.2839
-10.8291
-10.3709
-9.9471
-9.58799
-9.40142
-9.29887
-9.30055
-9.21425
-9.07582
-8.92071
-8.73915
-8.7539
-8.7502
-8.68652
-8.54992
-8.40202
-8.32996
-8.68284
-10.031
-10.1673
-10.3571
-10.36
-9.8399
-9.61883
-10.0224
-9.56726
-9.50294
-9.51913
-9.67811
-9.85974
-9.93235
-9.8713
-9.9249
-9.82528
-9.10504
-8.36039
-7.97485
-7.68563
-7.53025
-7.44116
-7.37352
-7.35243
-7.37665
-7.49038
-7.77375
-8.10292
-8.1697
-7.88919
-7.73357
-8.06179
-8.71485
-9.19921
-9.31249
-9.09717
-8.56726
-7.62401
-6.72144
-6.50834
-6.54234
-6.44334
-6.30453
-6.11597
-5.8504
-5.66505
-5.61373
-5.49218
-5.21833
-4.89518
-4.64355
-4.59463
-4.80034
-5.26489
-5.99654
-7.01849
-8.46609
-10.2991
-11.8596
-12.4749
-12.3332
-11.8447
-11.3775
-10.9771
-10.607
-10.2472
-10.0093
-9.89675
-9.86173
-9.83241
-9.77722
-9.68198
-9.5442
-9.44321
-9.39662
-9.37323
-9.36645
-9.35063
-9.41149
-9.71455
-10.0316
-10.0313
-10.1382
-10.2324
-10.2573
-10.1852
-10.2228
-10.0952
-10.1217
-10.3
-10.5691
-10.8229
-11.0021
-11.0127
-10.998
-10.9506
-10.5857
-9.72853
-9.00151
-8.53744
-8.27421
-8.169
-8.12102
-8.15681
-8.32307
-8.72118
-9.38227
-9.86707
-9.91404
-9.5541
-9.05936
-8.9192
-9.06194
-9.1448
-9.28061
-9.31188
-9.17232
-8.66097
-7.73458
-7.01656
-6.87454
-6.93644
-6.95795
-6.89963
-6.74047
-6.63449
-6.54687
-6.35053
-6.0942
-5.85322
-5.69396
-5.6698
-5.8732
-6.38702
-7.2309
-8.35975
-9.68665
-11.0722
-12.1938
-12.7128
-12.6771
-12.2598
-11.7701
-11.3977
-11.1161
-10.8502
-10.6155
-10.4897
-10.4419
-10.4257
-10.413
-10.3656
-10.2714
-10.1788
-10.1352
-10.1182
-10.1052
-10.12
-10.2003
-10.3361
-10.5349
-10.7101
-10.9698
-11.3464
-11.4681
-11.287
-11.0553
-10.6471
-10.8526
-11.2755
-11.6532
-11.953
-12.166
-12.2394
-12.1807
-12.1213
-11.9586
-11.3404
-10.3841
-9.63676
-9.19057
-8.97267
-8.94347
-9.04164
-9.29372
-9.7503
-10.289
-10.6411
-10.6748
-10.4171
-10.0645
-9.93293
-9.95723
-9.85235
-9.67177
-9.60402
-9.51466
-9.19701
-8.54298
-7.72072
-7.32402
-7.50971
-7.6751
-7.72711
-7.6918
-7.72939
-7.70896
-7.53738
-7.40285
-7.3231
-7.28718
-7.29756
-7.51206
-8.09927
-9.0233
-10.1553
-11.2839
-12.3415
-13.272
-13.7224
-13.5196
-12.8943
-12.243
-11.8255
-11.5968
-11.4004
-11.2067
-11.0935
-11.0461
-11.0304
-11.0284
-11.0283
-10.9683
-10.8738
-10.8332
-10.8307
-10.8246
-10.8368
-10.9022
-11.021
-11.1978
-11.4136
-11.6783
-12.0373
-12.2425
-12.1361
-11.7654
-11.3278
-11.7749
-12.2668
-12.6031
-12.8455
-12.9801
-13.0102
-13.0032
-12.9785
-12.8177
-12.3206
-11.4536
-10.6357
-10.0902
-9.76944
-9.73138
-9.8406
-10.0487
-10.4083
-10.7963
-11.0319
-11.012
-10.7594
-10.5456
-10.5002
-10.4515
-10.2785
-10.0911
-10.0028
-9.93628
-9.77088
-9.32715
-8.64756
-8.21213
-8.29652
-8.47544
-8.60536
-8.71539
-8.90649
-9.0664
-9.12705
-9.2196
-9.24303
-9.1641
-9.19593
-9.55167
-10.278
-11.2808
-12.3655
-13.284
-14.031
-14.7524
-15.1065
-14.7169
-13.7905
-12.8754
-12.2953
-12.0079
-11.8669
-11.7745
-11.7323
-11.7087
-11.6687
-11.6711
-11.7068
-11.6817
-11.5953
-11.5358
-11.5191
-11.5289
-11.5405
-11.5835
-11.6854
-11.8289
-12.001
-12.1944
-12.4387
-12.5688
-12.4922
-12.2
-12.0458
-12.6376
-13.0406
-13.3094
-13.4622
-13.5287
-13.5498
-13.5471
-13.5063
-13.3232
-12.8504
-12.0949
-11.3352
-10.7769
-10.4226
-10.3608
-10.4644
-10.6131
-10.8771
-11.171
-11.3476
-11.3196
-11.0775
-10.8681
-10.8683
-10.8671
-10.7162
-10.5528
-10.5106
-10.4673
-10.3509
-10.0781
-9.57326
-9.23608
-9.10653
-9.28221
-9.52138
-9.81039
-10.1762
-10.5258
-10.8027
-10.9666
-10.9056
-10.775
-10.8595
-11.377
-12.2299
-13.2403
-14.2223
-15.0203
-15.6668
-16.3019
-16.5775
-16.0197
-14.692
-13.5254
-12.8077
-12.4833
-12.3613
-12.3484
-12.3569
-12.3224
-12.263
-12.27
-12.3261
-12.3352
-12.2873
-12.2368
-12.2127
-12.2268
-12.2457
-12.2676
-12.3188
-12.4118
-12.5103
-12.593
-12.6775
-12.6804
-12.5553
-12.405
-12.5623
-13.1036
-13.493
-13.7881
-13.9529
-14.0106
-14.0208
-13.9874
-13.8847
-13.6383
-13.1578
-12.4732
-11.7682
-11.2037
-10.8436
-10.7892
-10.9232
-11.0802
-11.2908
-11.5223
-11.6606
-11.6857
-11.5214
-11.3527
-11.3827
-11.4416
-11.3289
-11.1245
-11.0511
-11.0595
-10.9589
-10.7375
-10.31
-9.94215
-9.71358
-9.98197
-10.4217
-10.9154
-11.4417
-11.9188
-12.2783
-12.3718
-12.231
-12.0879
-12.227
-12.837
-13.711
-14.6382
-15.5084
-16.259
-17.0262
-17.7607
-17.9549
-17.0735
-15.4123
-14.1317
-13.3963
-13.0822
-12.9617
-12.9281
-12.9112
-12.8562
-12.7965
-12.8028
-12.8677
-12.9235
-12.9431
-12.9384
-12.9354
-12.9495
-12.9693
-12.9572
-12.9604
-12.9993
-13.0342
-13.0363
-13.012
-12.9247
-12.7583
-12.6125
-12.7331
-13.1462
-13.6124
-14.0197
-14.2974
-14.4201
-14.4392
-14.3811
-14.2323
-13.9236
-13.4143
-12.7418
-12.0274
-11.427
-11.0785
-11.0642
-11.266
-11.4963
-11.7164
-11.924
-12.0765
-12.1789
-12.1127
-11.9589
-11.9939
-12.0907
-11.9716
-11.6395
-11.422
-11.4413
-11.4037
-11.144
-10.7656
-10.454
-10.2514
-10.5878
-11.3149
-11.9966
-12.6515
-13.1928
-13.5362
-13.6013
-13.5007
-13.36
-13.5018
-14.0836
-14.8735
-15.6414
-16.3641
-17.0615
-17.866
-18.6986
-18.6816
-17.4654
-15.8346
-14.6701
-14.0188
-13.7018
-13.5574
-13.4948
-13.4313
-13.362
-13.3173
-13.3298
-13.4082
-13.5262
-13.6304
-13.6784
-13.7034
-13.725
-13.7358
-13.6977
-13.6461
-13.6242
-13.6102
-13.5647
-13.4901
-13.3666
-13.1656
-13.0035
-12.6032
-12.9766
-13.4918
-14.0143
-14.424
-14.698
-14.8247
-14.8125
-14.6523
-14.2942
-13.7316
-13.026
-12.2743
-11.6462
-11.323
-11.3553
-11.6443
-11.9441
-12.1756
-12.3912
-12.6313
-12.8084
-12.7633
-12.6133
-12.6202
-12.7016
-12.5992
-12.2123
-11.8931
-11.8929
-12.0006
-11.7658
-11.3188
-11.1216
-11.0746
-11.2746
-12.3693
-13.1013
-13.8369
-14.3849
-14.685
-14.793
-14.7406
-14.619
-14.7197
-15.1569
-15.7426
-16.2929
-16.8049
-17.361
-17.9813
-18.4658
-18.204
-17.1732
-15.9407
-15.077
-14.5669
-14.2785
-14.1209
-14.0337
-13.9658
-13.908
-13.8805
-13.9058
-14.0159
-14.2011
-14.3563
-14.4274
-14.4724
-14.5253
-14.5455
-14.5051
-14.4175
-14.3235
-14.2301
-14.1424
-14.0544
-13.9348
-13.7556
-13.5928
-12.4384
-12.8031
-13.3489
-13.9494
-14.5158
-14.9729
-15.2538
-15.3291
-15.1827
-14.7969
-14.2004
-13.4699
-12.7069
-12.0787
-11.7767
-11.848
-12.1123
-12.4622
-12.7123
-12.9712
-13.2927
-13.4649
-13.3989
-13.291
-13.2744
-13.2956
-13.2176
-12.9252
-12.6776
-12.6381
-12.9941
-13.0639
-12.5491
-12.3273
-12.4977
-12.6829
-13.6316
-14.3098
-15.0663
-15.5782
-15.8089
-15.9399
-15.9216
-15.8184
-15.8247
-16.0699
-16.3902
-16.7252
-17.0163
-17.3444
-17.6645
-17.7372
-17.3413
-16.6657
-15.9447
-15.4065
-15.0467
-14.8171
-14.677
-14.5897
-14.5261
-14.4806
-14.4746
-14.5237
-14.6799
-14.9009
-15.0474
-15.1057
-15.1608
-15.2604
-15.322
-15.3153
-15.2433
-15.1076
-14.9266
-14.7706
-14.6636
-14.5637
-14.4476
-14.3319
-12.3952
-12.7684
-13.3597
-14.065
-14.7717
-15.3962
-15.8316
-16.0362
-15.9787
-15.6489
-15.069
-14.3166
-13.5411
-12.9061
-12.5725
-12.6023
-12.8725
-13.2119
-13.4597
-13.6877
-13.9306
-14.0772
-14.0431
-13.9687
-13.9351
-13.9319
-13.9044
-13.806
-13.6735
-13.6704
-13.9979
-14.2981
-13.9892
-13.9566
-14.4049
-14.642
-15.0003
-15.6224
-16.358
-16.8201
-16.9524
-17.022
-17.0094
-16.8973
-16.7885
-16.8599
-16.9876
-17.1392
-17.2695
-17.3949
-17.4689
-17.3532
-17.0003
-16.5451
-16.1197
-15.783
-15.5313
-15.3563
-15.24
-15.1617
-15.1089
-15.0752
-15.0936
-15.1769
-15.3551
-15.5553
-15.6635
-15.7119
-15.7802
-15.8928
-16.0015
-16.0595
-16.0387
-15.9077
-15.6818
-15.4553
-15.3051
-15.2219
-15.1553
-15.0751
-12.579
-12.9755
-13.6635
-14.4913
-15.357
-16.1551
-16.779
-17.1524
-17.2147
-16.9615
-16.4083
-15.6644
-14.8654
-14.1667
-13.7261
-13.6452
-13.8978
-14.198
-14.3715
-14.5168
-14.6481
-14.7459
-14.7545
-14.71
-14.6736
-14.652
-14.6638
-14.6555
-14.6282
-14.6666
-14.84
-15.0931
-15.112
-15.2895
-15.7727
-16.0079
-16.0253
-16.6984
-17.5315
-18.0036
-18.07
-18.009
-17.9479
-17.8045
-17.6176
-17.5657
-17.586
-17.5927
-17.6276
-17.63
-17.5685
-17.3893
-17.0997
-16.774
-16.4757
-16.2302
-16.0399
-15.9019
-15.8053
-15.7385
-15.697
-15.685
-15.723
-15.8348
-15.9955
-16.1567
-16.227
-16.2838
-16.3693
-16.4788
-16.6065
-16.7123
-16.7428
-16.6421
-16.4094
-16.148
-15.9589
-15.877
-15.8335
-15.7886
-13.1127
-13.5467
-14.3289
-15.2986
-16.367
-17.3635
-18.1425
-18.6141
-18.7195
-18.4644
-17.9198
-17.1651
-16.3502
-15.6255
-15.0995
-14.8703
-15.0099
-15.1345
-15.2076
-15.2957
-15.3844
-15.4504
-15.4675
-15.4325
-15.4086
-15.3949
-15.3907
-15.381
-15.3902
-15.4507
-15.5607
-15.7323
-15.8405
-16.0386
-16.3568
-16.5897
-16.5164
-17.2277
-18.1874
-18.8132
-18.9088
-18.7729
-18.6444
-18.4941
-18.3103
-18.1924
-18.1511
-18.0755
-18.0487
-17.9815
-17.851
-17.6518
-17.4032
-17.1442
-16.9082
-16.7123
-16.5597
-16.4469
-16.3669
-16.3139
-16.2873
-16.2917
-16.3437
-16.4532
-16.5927
-16.7152
-16.7709
-16.8432
-16.9422
-17.0464
-17.1537
-17.2617
-17.3261
-17.2588
-17.0502
-16.7815
-16.5817
-16.4922
-16.4508
-16.4445
-14.0738
-14.5635
-15.401
-16.5024
-17.7587
-18.9017
-19.7315
-20.1929
-20.2765
-20.0021
-19.4331
-18.6411
-17.7841
-17.016
-16.4211
-16.0394
-15.9727
-15.9404
-15.9407
-15.9824
-16.0512
-16.101
-16.1144
-16.0876
-16.0677
-16.0751
-16.0762
-16.0719
-16.0869
-16.1437
-16.2474
-16.3632
-16.43
-16.5247
-16.6841
-16.7149
-16.6612
-17.2684
-18.1959
-18.9635
-19.2683
-19.2307
-19.0855
-18.9785
-18.8767
-18.7692
-18.7161
-18.619
-18.5216
-18.4047
-18.237
-18.0308
-17.8066
-17.5845
-17.3839
-17.2172
-17.087
-16.9907
-16.9242
-16.8846
-16.8708
-16.8865
-16.9426
-17.0347
-17.1638
-17.2505
-17.3151
-17.4027
-17.5077
-17.5942
-17.6613
-17.7346
-17.794
-17.7399
-17.5736
-17.3397
-17.1729
-17.0784
-17.0101
-17.0496
-15.4188
-15.9245
-16.8032
-17.9948
-19.3581
-20.5231
-21.3431
-21.7695
-21.8521
-21.6167
-21.0395
-20.1752
-19.2115
-18.3085
-17.5872
-17.086
-16.8135
-16.7092
-16.6676
-16.6653
-16.6899
-16.7111
-16.7127
-16.7022
-16.7011
-16.7147
-16.7301
-16.7496
-16.7726
-16.8226
-16.9106
-16.9887
-17.0318
-17.1224
-17.107
-16.8888
-16.8242
-17.2089
-18.0008
-18.8513
-19.3165
-19.4023
-19.3583
-19.353
-19.3976
-19.3802
-19.3372
-19.2359
-19.0571
-18.8879
-18.6942
-18.4845
-18.273
-18.0705
-17.8897
-17.7395
-17.6221
-17.5361
-17.4789
-17.4483
-17.4427
-17.4636
-17.5162
-17.5977
-17.7184
-17.7842
-17.8665
-17.9741
-18.0865
-18.1556
-18.1827
-18.1978
-18.2083
-18.1544
-18.0315
-17.8584
-17.777
-17.6903
-17.5746
-17.6278
-16.957
-17.4423
-18.3323
-19.5604
-20.9181
-22.0621
-22.8624
-23.284
-23.3834
-23.1694
-22.5859
-21.643
-20.537
-19.4847
-18.5988
-17.9953
-17.6297
-17.4773
-17.4044
-17.3689
-17.3611
-17.3619
-17.358
-17.3506
-17.3496
-17.3587
-17.3733
-17.3941
-17.4156
-17.4532
-17.5209
-17.5997
-17.6469
-17.7213
-17.7486
-17.5462
-17.4246
-17.6566
-18.2593
-19.0097
-19.4855
-19.593
-19.6565
-19.7851
-19.9778
-20.0837
-20.0787
-19.9564
-19.71
-19.443
-19.2068
-18.9896
-18.7814
-18.586
-18.4148
-18.2731
-18.1626
-18.0821
-18.0298
-18.0034
-18.0011
-18.0225
-18.0704
-18.1475
-18.2523
-18.3205
-18.425
-18.5603
-18.687
-18.7448
-18.7384
-18.7026
-18.6643
-18.5959
-18.5032
-18.3747
-18.3649
-18.3042
-18.1435
-18.1632
-18.4317
-18.9183
-19.7962
-21.0014
-22.2935
-23.4045
-24.1827
-24.5901
-24.6717
-24.4528
-23.8695
-22.889
-21.6555
-20.4629
-19.4409
-18.7651
-18.4195
-18.2401
-18.1427
-18.0856
-18.0605
-18.0524
-18.0462
-18.0363
-18.0256
-18.0188
-18.0187
-18.0233
-18.0303
-18.0487
-18.1065
-18.2077
-18.2914
-18.3729
-18.4783
-18.5272
-18.5686
-18.7753
-19.0993
-19.5987
-20.0172
-20.0955
-20.203
-20.4215
-20.6875
-20.8991
-20.9771
-20.8456
-20.5367
-20.1259
-19.7857
-19.5357
-19.3215
-19.1211
-18.9509
-18.8114
-18.7031
-18.6246
-18.5734
-18.5474
-18.5445
-18.5637
-18.6071
-18.6784
-18.769
-18.86
-18.9807
-19.1447
-19.2866
-19.3414
-19.3155
-19.2412
-19.1671
-19.0835
-18.9859
-18.9186
-18.9143
-18.8413
-18.6677
-18.6418
-19.6436
-20.1965
-21.0486
-22.1729
-23.389
-24.4541
-25.1969
-25.5575
-25.5831
-25.3258
-24.7452
-23.767
-22.5217
-21.2575
-20.1669
-19.4658
-19.1508
-18.9752
-18.8621
-18.7945
-18.763
-18.7523
-18.7452
-18.7322
-18.7121
-18.6875
-18.6735
-18.6642
-18.6613
-18.6728
-18.731
-18.8611
-19.0046
-19.0884
-19.1887
-19.381
-19.6197
-19.8052
-20.0164
-20.3755
-20.7918
-20.8919
-20.976
-21.2105
-21.5035
-21.78
-21.9202
-21.8649
-21.5354
-20.9984
-20.4688
-20.1224
-19.8844
-19.6669
-19.4896
-19.3477
-19.2379
-19.1584
-19.1058
-19.0776
-19.0715
-19.0866
-19.1244
-19.1887
-19.2753
-19.3771
-19.5107
-19.6979
-19.8467
-19.9071
-19.8696
-19.7752
-19.6748
-19.5748
-19.4594
-19.442
-19.4059
-19.2968
-19.1771
-19.1352
-20.436
-21.2046
-22.0034
-23.0211
-24.1397
-25.1319
-25.8325
-26.1425
-26.1119
-25.8061
-25.2088
-24.2565
-23.0891
-21.858
-20.7993
-20.1435
-19.8332
-19.663
-19.5443
-19.4724
-19.4384
-19.4252
-19.4151
-19.3985
-19.3743
-19.349
-19.3207
-19.3046
-19.3025
-19.3231
-19.388
-19.5309
-19.7176
-19.8351
-19.9241
-20.0872
-20.3643
-20.5928
-20.8134
-21.1467
-21.5261
-21.6551
-21.7116
-21.9595
-22.2658
-22.5643
-22.7609
-22.8041
-22.5846
-22.0127
-21.2893
-20.7527
-20.4522
-20.2142
-20.023
-19.8757
-19.7617
-19.6794
-19.6235
-19.5913
-19.5803
-19.5895
-19.6203
-19.6768
-19.7593
-19.8619
-20.0058
-20.1956
-20.3464
-20.4032
-20.3714
-20.2733
-20.1555
-20.0383
-19.9185
-19.8877
-19.8034
-19.6817
-19.627
-19.6003
-20.909
-21.8161
-22.6511
-23.5848
-24.5469
-25.4201
-26.055
-26.3215
-26.2593
-25.9227
-25.3011
-24.3962
-23.3418
-22.2313
-21.2926
-20.7575
-20.4668
-20.2967
-20.1777
-20.1037
-20.0652
-20.045
-20.0273
-20.0047
-19.9764
-19.9476
-19.9246
-19.9172
-19.925
-19.9623
-20.0383
-20.1734
-20.3633
-20.5267
-20.6439
-20.7771
-20.9665
-21.2088
-21.4811
-21.8051
-22.0635
-22.1801
-22.2917
-22.5654
-22.8804
-23.1891
-23.4223
-23.5186
-23.4181
-22.9829
-22.1965
-21.4428
-21.0171
-20.7541
-20.5444
-20.3894
-20.2702
-20.184
-20.1241
-20.0869
-20.0698
-20.0715
-20.0932
-20.1389
-20.2114
-20.3079
-20.4499
-20.6322
-20.7782
-20.8354
-20.812
-20.7219
-20.6003
-20.4738
-20.3564
-20.2928
-20.1797
-20.0816
-20.0598
-20.0458
-21.2262
-22.0764
-23.0442
-23.9067
-24.6758
-25.3721
-25.8988
-26.1324
-26.0851
-25.7649
-25.1554
-24.3241
-23.3847
-22.4401
-21.6924
-21.2772
-21.0355
-20.8759
-20.762
-20.6881
-20.6441
-20.6156
-20.5902
-20.5632
-20.5329
-20.5054
-20.4863
-20.4848
-20.5157
-20.578
-20.6763
-20.8162
-20.9946
-21.1728
-21.3123
-21.4474
-21.6024
-21.7812
-22.0174
-22.2749
-22.4751
-22.5897
-22.7292
-23.002
-23.319
-23.6171
-23.8642
-23.9947
-23.9575
-23.6993
-23.0291
-22.1649
-21.5824
-21.2721
-21.0472
-20.8841
-20.761
-20.6709
-20.6069
-20.5644
-20.5402
-20.5332
-20.5436
-20.5748
-20.6303
-20.7127
-20.838
-21.0043
-21.1439
-21.2065
-21.1982
-21.1263
-21.0157
-20.8986
-20.801
-20.7236
-20.6179
-20.5552
-20.545
-20.5218
-21.5898
-22.2017
-23.243
-24.0608
-24.6815
-25.2062
-25.6004
-25.795
-25.748
-25.4338
-24.8627
-24.134
-23.33
-22.5707
-22.0492
-21.743
-21.5518
-21.4121
-21.309
-21.2386
-21.1931
-21.1603
-21.1326
-21.1067
-21.0824
-21.0624
-21.0536
-21.0656
-21.1097
-21.1916
-21.3122
-21.4696
-21.6525
-21.8266
-21.9664
-22.1136
-22.2563
-22.3613
-22.4672
-22.6872
-22.8635
-22.9359
-23.043
-23.2926
-23.6005
-23.8794
-24.1097
-24.2617
-24.2752
-24.1224
-23.6597
-22.8434
-22.143
-21.7583
-21.5267
-21.3578
-21.2331
-21.1403
-21.0729
-21.0252
-20.9938
-20.9769
-20.9744
-20.9882
-21.0218
-21.0806
-21.1762
-21.3158
-21.4461
-21.5179
-21.5314
-21.489
-21.406
-21.315
-21.2545
-21.1834
-21.1036
-21.0687
-21.059
-21.0364