/*--------------------------------*- C++ -*----------------------------------*\
| =========                 |                                                 |
| \\      /  F ield         | OpenFOAM: The Open Source CFD Toolbox           |
|  \\    /   O peration     | Version:  2412                                  |
|   \\  /    A nd           | Website:  www.openfoam.com                      |
|    \\/     M anipulation  |                                                 |
\*---------------------------------------------------------------------------*/
FoamFile
{
    version     2.0;
    format      ascii;
    arch        "LSB;label=32;scalar=64";
    class       volVectorField;
    location    "4.65";
    object      U;
}
// * * * * * * * * * * * * * * * * * * * * * * * * * * * * * * * * * * * * * //

dimensions      [0 1 -1 0 0 0 0];

internalField   nonuniform List<vector> 
6400
(
(0.000668269 -0.000676332 0)
(0.00146953 -0.000574717 0)
(0.0022353 -0.000567653 0)
(0.00313413 -0.000557652 0)
(0.00406788 -0.000526597 0)
(0.00495951 -0.000486527 0)
(0.00578142 -0.000447203 0)
(0.00653758 -0.000413876 0)
(0.00725013 -0.000389759 0)
(0.00795018 -0.000377922 0)
(0.00866714 -0.000380627 0)
(0.00943441 -0.000399591 0)
(0.0102811 -0.00042771 0)
(0.0112213 -0.000470123 0)
(0.0122856 -0.000507644 0)
(0.0134785 -0.000555496 0)
(0.0147857 -0.000604826 0)
(0.0161978 -0.000644151 0)
(0.0176887 -0.000672261 0)
(0.0192316 -0.00068387 0)
(0.0207767 -0.000679108 0)
(0.0222776 -0.000647217 0)
(0.0236735 -0.000595723 0)
(0.0249086 -0.000506264 0)
(0.0259266 -0.000402502 0)
(0.0266705 -0.000268339 0)
(0.0271049 -0.000109515 0)
(0.0271819 6.87073e-05 0)
(0.0268643 0.000259653 0)
(0.0261427 0.000458534 0)
(0.0250112 0.000660353 0)
(0.0234742 0.000858663 0)
(0.0215492 0.00104945 0)
(0.0192645 0.00122455 0)
(0.0166568 0.00138094 0)
(0.0137699 0.00151567 0)
(0.0106523 0.00162339 0)
(0.00735901 0.00170117 0)
(0.00395037 0.00174837 0)
(0.000486893 0.00176458 0)
(-0.00297189 0.00174755 0)
(-0.00636645 0.00169914 0)
(-0.0096381 0.00162134 0)
(-0.012731 0.0015143 0)
(-0.0155939 0.00138033 0)
(-0.0181772 0.00122499 0)
(-0.0204388 0.00104896 0)
(-0.0223467 0.000857828 0)
(-0.0238648 0.000661765 0)
(-0.0249755 0.000456356 0)
(-0.0256766 0.000253396 0)
(-0.0259678 5.76679e-05 0)
(-0.0258592 -0.000125803 0)
(-0.0253767 -0.000294516 0)
(-0.0245686 -0.000434594 0)
(-0.0234827 -0.000548342 0)
(-0.022167 -0.000635784 0)
(-0.0206765 -0.000698852 0)
(-0.0190737 -0.000733617 0)
(-0.0174232 -0.000742711 0)
(-0.0157658 -0.000723476 0)
(-0.014153 -0.000691687 0)
(-0.0126383 -0.000643423 0)
(-0.0112424 -0.000584951 0)
(-0.00999053 -0.000524322 0)
(-0.00889737 -0.000460409 0)
(-0.00796051 -0.0004034 0)
(-0.00716328 -0.000348662 0)
(-0.0065062 -0.000311633 0)
(-0.00596014 -0.000285261 0)
(-0.00547592 -0.00027444 0)
(-0.00502978 -0.000281785 0)
(-0.00458438 -0.000304104 0)
(-0.00410622 -0.000338013 0)
(-0.00356738 -0.000379074 0)
(-0.00295899 -0.000425094 0)
(-0.00230253 -0.000459138 0)
(-0.00167555 -0.000476112 0)
(-0.00117526 -0.000488337 0)
(-0.000610982 -0.000619728 0)
(0.000571187 -0.001478 0)
(0.000871856 -0.000929998 0)
(0.00143287 -0.00112963 0)
(0.0023125 -0.00130151 0)
(0.0033196 -0.00131262 0)
(0.00430463 -0.0012326 0)
(0.00520876 -0.00113355 0)
(0.00602913 -0.00105803 0)
(0.0067907 -0.0010238 0)
(0.00753342 -0.00103871 0)
(0.00829609 -0.0011085 0)
(0.00912872 -0.00123424 0)
(0.0100606 -0.00139542 0)
(0.0111256 -0.00158785 0)
(0.0123517 -0.00178982 0)
(0.0137266 -0.00200091 0)
(0.0152571 -0.00219541 0)
(0.0169212 -0.00235271 0)
(0.0186798 -0.00246056 0)
(0.0204971 -0.00250416 0)
(0.0223175 -0.0024753 0)
(0.0240785 -0.00235329 0)
(0.0257181 -0.00214445 0)
(0.0271541 -0.00183856 0)
(0.0283218 -0.00145377 0)
(0.0291776 -0.000983808 0)
(0.0296653 -0.00044598 0)
(0.0297449 0.00014327 0)
(0.0293987 0.000766599 0)
(0.0286047 0.00140634 0)
(0.0273587 0.00204667 0)
(0.0256725 0.00266593 0)
(0.0235703 0.0032502 0)
(0.021087 0.00377865 0)
(0.0182679 0.00424266 0)
(0.0151613 0.00463601 0)
(0.0118212 0.00494811 0)
(0.00830715 0.00517011 0)
(0.00468191 0.00529817 0)
(0.00100723 0.00533581 0)
(-0.00265689 0.00527973 0)
(-0.00625048 0.00513454 0)
(-0.00971759 0.00490322 0)
(-0.0130028 0.00458849 0)
(-0.0160495 0.00419463 0)
(-0.0188073 0.00373109 0)
(-0.0212341 0.00320396 0)
(-0.0232863 0.00262614 0)
(-0.0249293 0.00201468 0)
(-0.0261364 0.00136967 0)
(-0.0268949 0.000723049 0)
(-0.0272111 9.02926e-05 0)
(-0.0271086 -0.000510897 0)
(-0.026594 -0.00106682 0)
(-0.0256952 -0.00154939 0)
(-0.0244782 -0.00195702 0)
(-0.022995 -0.00228164 0)
(-0.0213001 -0.00251303 0)
(-0.0194646 -0.00265024 0)
(-0.0175628 -0.00269672 0)
(-0.0156506 -0.00265365 0)
(-0.0137906 -0.00254044 0)
(-0.0120401 -0.00236271 0)
(-0.0104357 -0.00213913 0)
(-0.00900298 -0.0018913 0)
(-0.00776756 -0.00162177 0)
(-0.00672825 -0.00136026 0)
(-0.00586795 -0.0011194 0)
(-0.00518337 -0.000911043 0)
(-0.00463338 -0.000749056 0)
(-0.00416677 -0.000641699 0)
(-0.00374458 -0.000598771 0)
(-0.00332073 -0.000610927 0)
(-0.00285607 -0.000672569 0)
(-0.00232435 -0.000761664 0)
(-0.00171524 -0.000837452 0)
(-0.00108578 -0.000832363 0)
(-0.000588412 -0.000668237 0)
(-0.00040592 -0.000484613 0)
(-0.000485209 -0.00118236 0)
(0.000601509 -0.00223134 0)
(0.00108828 -0.00146834 0)
(0.00203637 -0.00205555 0)
(0.00334788 -0.00248691 0)
(0.00478726 -0.00254478 0)
(0.00616672 -0.00238808 0)
(0.00740976 -0.00217119 0)
(0.00851405 -0.00198627 0)
(0.00951051 -0.00187598 0)
(0.0104418 -0.00186006 0)
(0.011353 -0.00194316 0)
(0.0123109 -0.00212103 0)
(0.0133552 -0.00237704 0)
(0.0145159 -0.00269254 0)
(0.0158302 -0.00304571 0)
(0.0173003 -0.00340703 0)
(0.0189266 -0.00374355 0)
(0.0206886 -0.00402353 0)
(0.0225524 -0.00421503 0)
(0.0244755 -0.00429503 0)
(0.0263998 -0.00424363 0)
(0.0282549 -0.00403069 0)
(0.0299632 -0.00365913 0)
(0.0314494 -0.0031326 0)
(0.0326488 -0.00245068 0)
(0.0335024 -0.00163157 0)
(0.0339499 -0.000694899 0)
(0.0339437 0.000323279 0)
(0.0334587 0.00139766 0)
(0.0324839 0.00249644 0)
(0.0310157 0.00359026 0)
(0.029071 0.00464365 0)
(0.0266801 0.00563057 0)
(0.023879 0.00652387 0)
(0.0207175 0.00730256 0)
(0.0172499 0.0079566 0)
(0.0135361 0.00847345 0)
(0.00963943 0.00883994 0)
(0.00562673 0.00904769 0)
(0.00156212 0.00910368 0)
(-0.00249107 0.00900606 0)
(-0.0064693 0.00876089 0)
(-0.0103131 0.00837014 0)
(-0.0139617 0.00784194 0)
(-0.0173567 0.00718307 0)
(-0.0204455 0.00640408 0)
(-0.0231797 0.0055186 0)
(-0.0255156 0.00454576 0)
(-0.0274238 0.00350699 0)
(-0.0288677 0.00242307 0)
(-0.0298278 0.00132358 0)
(-0.0303169 0.000246677 0)
(-0.0303525 -0.000779491 0)
(-0.0299326 -0.00171896 0)
(-0.0290982 -0.00255437 0)
(-0.0279228 -0.00326419 0)
(-0.0264507 -0.00382326 0)
(-0.0247467 -0.00421892 0)
(-0.0228917 -0.00445314 0)
(-0.0209584 -0.00453007 0)
(-0.0190065 -0.00446289 0)
(-0.0171037 -0.00425622 0)
(-0.0153133 -0.00394665 0)
(-0.0136752 -0.00355831 0)
(-0.0122055 -0.00312363 0)
(-0.0109329 -0.00266913 0)
(-0.00986593 -0.00222931 0)
(-0.00895947 -0.00183618 0)
(-0.00820745 -0.00150933 0)
(-0.00757129 -0.00127171 0)
(-0.00698251 -0.00113266 0)
(-0.006395 -0.00110847 0)
(-0.00575793 -0.0011835 0)
(-0.00502717 -0.00134227 0)
(-0.00416376 -0.00154226 0)
(-0.00317315 -0.00169029 0)
(-0.00212 -0.0016402 0)
(-0.00120012 -0.0012186 0)
(-0.0006263 -0.000645974 0)
(-0.000513412 -0.00165813 0)
(0.000650192 -0.0031918 0)
(0.00137284 -0.00236846 0)
(0.00267627 -0.00339742 0)
(0.00434403 -0.00408043 0)
(0.00611016 -0.00414818 0)
(0.00776204 -0.00386741 0)
(0.00921986 -0.00348232 0)
(0.0104862 -0.00314539 0)
(0.0116007 -0.00292595 0)
(0.012622 -0.00285333 0)
(0.0136128 -0.00293631 0)
(0.0146439 -0.00316859 0)
(0.0157593 -0.00352394 0)
(0.0170082 -0.00397386 0)
(0.0184361 -0.00448994 0)
(0.0200393 -0.0050194 0)
(0.0218211 -0.00551561 0)
(0.0237691 -0.00592978 0)
(0.0258452 -0.00621269 0)
(0.0279921 -0.00632484 0)
(0.0301514 -0.00623881 0)
(0.0322358 -0.00591962 0)
(0.0341545 -0.00535827 0)
(0.035832 -0.00455977 0)
(0.037189 -0.00354087 0)
(0.0381609 -0.00232046 0)
(0.0386728 -0.000932092 0)
(0.0386663 0.000587588 0)
(0.0381179 0.00218567 0)
(0.0370128 0.00381219 0)
(0.0353459 0.00542255 0)
(0.0331362 0.00697311 0)
(0.0304235 0.00842257 0)
(0.0272444 0.00973243 0)
(0.0236519 0.0108724 0)
(0.0197138 0.0118226 0)
(0.0155013 0.0125691 0)
(0.0110843 0.0130958 0)
(0.00653465 0.0133972 0)
(0.00192472 0.0134768 0)
(-0.00267304 0.013335 0)
(-0.00718749 0.0129765 0)
(-0.0115514 0.0124087 0)
(-0.0156951 0.0116399 0)
(-0.019556 0.0106804 0)
(-0.0230766 0.0095451 0)
(-0.0261987 0.00825712 0)
(-0.0288704 0.00683728 0)
(-0.0310578 0.00531813 0)
(-0.0327344 0.00373984 0)
(-0.0338709 0.00213604 0)
(-0.0344712 0.000554426 0)
(-0.0345549 -0.000958813 0)
(-0.0341324 -0.00234553 0)
(-0.0332557 -0.00358534 0)
(-0.0319836 -0.00464388 0)
(-0.0303737 -0.0054759 0)
(-0.0285063 -0.00607449 0)
(-0.0264687 -0.0064343 0)
(-0.0243441 -0.00656007 0)
(-0.0221903 -0.00646632 0)
(-0.0200954 -0.00617463 0)
(-0.0181356 -0.00572802 0)
(-0.0163436 -0.00516477 0)
(-0.0147474 -0.00452928 0)
(-0.0133737 -0.00387828 0)
(-0.012223 -0.00324775 0)
(-0.0112553 -0.00268962 0)
(-0.01045 -0.00224085 0)
(-0.0097524 -0.00192943 0)
(-0.00910351 -0.00177771 0)
(-0.00844439 -0.00179444 0)
(-0.0077032 -0.0019715 0)
(-0.00682563 -0.00227253 0)
(-0.00575927 -0.00263062 0)
(-0.00450177 -0.0029063 0)
(-0.00312841 -0.0028461 0)
(-0.0018525 -0.0021798 0)
(-0.000913584 -0.00116211 0)
(-0.000564181 -0.00234376 0)
(0.000697199 -0.0042965 0)
(0.00159801 -0.00352005 0)
(0.00318423 -0.00503996 0)
(0.00511699 -0.00595657 0)
(0.00709589 -0.00598165 0)
(0.00888311 -0.00550737 0)
(0.0103944 -0.00489443 0)
(0.0116489 -0.00435551 0)
(0.0127151 -0.0039936 0)
(0.0136642 -0.00384704 0)
(0.0145715 -0.00392482 0)
(0.0155346 -0.0042215 0)
(0.0166144 -0.00470008 0)
(0.0178498 -0.00530816 0)
(0.0193064 -0.00602287 0)
(0.0210024 -0.00676196 0)
(0.022926 -0.00746217 0)
(0.0250624 -0.00804576 0)
(0.0273777 -0.00845442 0)
(0.029803 -0.00862267 0)
(0.0322652 -0.00851428 0)
(0.0346745 -0.0080853 0)
(0.036918 -0.00732095 0)
(0.0388931 -0.00623238 0)
(0.0405147 -0.00483518 0)
(0.0417026 -0.00315851 0)
(0.0423788 -0.00125476 0)
(0.0424747 0.000826839 0)
(0.0419473 0.00302196 0)
(0.0407885 0.00525237 0)
(0.0389955 0.00745265 0)
(0.0365863 0.00956812 0)
(0.0336038 0.011544 0)
(0.0300987 0.0133275 0)
(0.0261303 0.0148755 0)
(0.0217709 0.0161594 0)
(0.0171044 0.0171632 0)
(0.0122139 0.0178688 0)
(0.00717948 0.0182735 0)
(0.00207959 0.0183791 0)
(-0.00300661 0.0181882 0)
(-0.00799829 0.0177045 0)
(-0.0128235 0.016939 0)
(-0.0174085 0.0159022 0)
(-0.0216815 0.0146086 0)
(-0.0255736 0.0130774 0)
(-0.0290224 0.0113363 0)
(-0.031971 0.00941554 0)
(-0.0343728 0.00735735 0)
(-0.0361983 0.00521292 0)
(-0.037422 0.00304023 0)
(-0.0380411 0.00089046 0)
(-0.038068 -0.00116731 0)
(-0.0375299 -0.00306976 0)
(-0.0364912 -0.00476708 0)
(-0.0349974 -0.00620804 0)
(-0.0331199 -0.00735623 0)
(-0.0309647 -0.00818138 0)
(-0.0286264 -0.00867514 0)
(-0.0261986 -0.00884967 0)
(-0.0237609 -0.0087098 0)
(-0.021413 -0.00831474 0)
(-0.0192359 -0.00769447 0)
(-0.0172731 -0.00691706 0)
(-0.0155599 -0.00604378 0)
(-0.014117 -0.00514932 0)
(-0.0129466 -0.00429802 0)
(-0.012002 -0.00355508 0)
(-0.0112505 -0.00296195 0)
(-0.0106384 -0.00257056 0)
(-0.0100828 -0.00241144 0)
(-0.00951323 -0.00248412 0)
(-0.00883998 -0.00279068 0)
(-0.00798122 -0.00328472 0)
(-0.00687188 -0.00386978 0)
(-0.00549238 -0.00433722 0)
(-0.00391271 -0.0043279 0)
(-0.00237164 -0.00343703 0)
(-0.00113995 -0.00193775 0)
(-0.000612175 -0.00318781 0)
(0.000757006 -0.00553419 0)
(0.00183245 -0.00489052 0)
(0.00371479 -0.00693733 0)
(0.00591717 -0.00805074 0)
(0.0080815 -0.00794683 0)
(0.00992986 -0.0071858 0)
(0.0113867 -0.00626416 0)
(0.0125033 -0.0054587 0)
(0.0133746 -0.00491584 0)
(0.0141078 -0.00468954 0)
(0.0148014 -0.00477312 0)
(0.0155684 -0.00514257 0)
(0.0164978 -0.00578324 0)
(0.0176293 -0.00661254 0)
(0.0190431 -0.00757738 0)
(0.0207772 -0.00859071 0)
(0.0228219 -0.00955552 0)
(0.0251565 -0.0103794 0)
(0.0277414 -0.0109681 0)
(0.0304986 -0.0112409 0)
(0.0333389 -0.0111408 0)
(0.0361538 -0.0106124 0)
(0.0388011 -0.00964809 0)
(0.0411685 -0.00824524 0)
(0.0431494 -0.00642485 0)
(0.0446396 -0.00423773 0)
(0.0455464 -0.00174821 0)
(0.0458037 0.000966865 0)
(0.0453581 0.00383683 0)
(0.0441878 0.00675308 0)
(0.0422996 0.0096239 0)
(0.0397159 0.0123754 0)
(0.0364852 0.014937 0)
(0.0326688 0.0172491 0)
(0.0283408 0.0192544 0)
(0.0235836 0.0209104 0)
(0.0184868 0.0221954 0)
(0.013146 0.0230974 0)
(0.00765522 0.0236116 0)
(0.00210022 0.0237423 0)
(-0.00343587 0.0234939 0)
(-0.00886801 0.0228729 0)
(-0.014119 0.02189 0)
(-0.019108 0.0205599 0)
(-0.0237571 0.018898 0)
(-0.0279914 0.016929 0)
(-0.0317368 0.0146848 0)
(-0.0349265 0.0122065 0)
(-0.0375067 0.00954378 0)
(-0.0394387 0.00676517 0)
(-0.0406949 0.00394651 0)
(-0.041267 0.00116053 0)
(-0.0411708 -0.00150947 0)
(-0.0404406 -0.00398993 0)
(-0.0391346 -0.00620247 0)
(-0.0373231 -0.00807519 0)
(-0.0350878 -0.00956807 0)
(-0.032539 -0.0106411 0)
(-0.0298075 -0.0112675 0)
(-0.0269923 -0.0114637 0)
(-0.0242006 -0.0112565 0)
(-0.0215488 -0.0107045 0)
(-0.0191217 -0.00985481 0)
(-0.016984 -0.00879652 0)
(-0.0151699 -0.00762715 0)
(-0.013708 -0.00643276 0)
(-0.0125907 -0.00530013 0)
(-0.0117575 -0.00431177 0)
(-0.0111728 -0.00355277 0)
(-0.0107713 -0.00305092 0)
(-0.0104454 -0.00286844 0)
(-0.0101102 -0.00301268 0)
(-0.00965364 -0.00348464 0)
(-0.00895671 -0.0042303 0)
(-0.00791611 -0.00513548 0)
(-0.00648468 -0.0058962 0)
(-0.0047283 -0.0060238 0)
(-0.00291442 -0.00495702 0)
(-0.00138246 -0.00294944 0)
(-0.000681959 -0.00418043 0)
(0.000833421 -0.00693466 0)
(0.00215305 -0.00653151 0)
(0.00444417 -0.00915066 0)
(0.00699713 -0.0103892 0)
(0.00937033 -0.0100223 0)
(0.0112369 -0.00882751 0)
(0.0125541 -0.00747633 0)
(0.0134159 -0.00633297 0)
(0.0139568 -0.00557129 0)
(0.0143409 -0.0052444 0)
(0.01471 -0.00534495 0)
(0.015169 -0.00583436 0)
(0.0158368 -0.00668936 0)
(0.0167926 -0.00780459 0)
(0.0181112 -0.00910579 0)
(0.0198585 -0.0104791 0)
(0.0220216 -0.0118051 0)
(0.0245788 -0.0129602 0)
(0.0274935 -0.0138031 0)
(0.0306616 -0.0142525 0)
(0.0339734 -0.0142037 0)
(0.037289 -0.0136049 0)
(0.0404503 -0.012434 0)
(0.043323 -0.0106783 0)
(0.0457604 -0.00839078 0)
(0.047634 -0.0056245 0)
(0.0488417 -0.00247664 0)
(0.0493128 0.000965814 0)
(0.0489789 0.00459839 0)
(0.0478119 0.00829305 0)
(0.0458293 0.0119256 0)
(0.0430532 0.0153949 0)
(0.0395456 0.0186195 0)
(0.0353887 0.0215171 0)
(0.030663 0.0240236 0)
(0.0254622 0.0260869 0)
(0.0198953 0.0276779 0)
(0.0140687 0.0287864 0)
(0.00808501 0.0294123 0)
(0.00204245 0.0295637 0)
(-0.003971 0.0292481 0)
(-0.00986799 0.0284758 0)
(-0.0155686 0.0272585 0)
(-0.0209878 0.0256119 0)
(-0.0260391 0.0235506 0)
(-0.030634 0.0211018 0)
(-0.0346901 0.0183022 0)
(-0.0381367 0.0152005 0)
(-0.0409032 0.0118662 0)
(-0.0429358 0.00837923 0)
(-0.0442048 0.0048318 0)
(-0.0446977 0.00132113 0)
(-0.0444321 -0.00204935 0)
(-0.0434428 -0.00517776 0)
(-0.0417914 -0.00797079 0)
(-0.0395636 -0.0103455 0)
(-0.036866 -0.0122121 0)
(-0.0338196 -0.0135489 0)
(-0.0305737 -0.0143014 0)
(-0.0272764 -0.014489 0)
(-0.0240522 -0.0141632 0)
(-0.0210227 -0.0133848 0)
(-0.018298 -0.012231 0)
(-0.015969 -0.0108089 0)
(-0.0140662 -0.00924272 0)
(-0.0126011 -0.00766268 0)
(-0.0115757 -0.00617084 0)
(-0.0109497 -0.00488457 0)
(-0.010634 -0.00389208 0)
(-0.0105471 -0.00324692 0)
(-0.0105888 -0.00302027 0)
(-0.0106259 -0.00324344 0)
(-0.0105119 -0.00393399 0)
(-0.0100974 -0.00502701 0)
(-0.0092231 -0.00636523 0)
(-0.00777974 -0.00756276 0)
(-0.00582346 -0.00796859 0)
(-0.00367282 -0.00680019 0)
(-0.00172599 -0.00423341 0)
(-0.00077072 -0.00535401 0)
(0.000932098 -0.00857325 0)
(0.00261903 -0.00855848 0)
(0.00553582 -0.0118153 0)
(0.00860368 -0.0130604 0)
(0.0112424 -0.0122198 0)
(0.0130759 -0.0103836 0)
(0.0141236 -0.00843347 0)
(0.0145814 -0.00684832 0)
(0.0146539 -0.0058236 0)
(0.0145525 -0.00539036 0)
(0.014452 -0.00553099 0)
(0.0144832 -0.00619322 0)
(0.0148026 -0.00731918 0)
(0.0155018 -0.00881074 0)
(0.0166752 -0.0105431 0)
(0.0184092 -0.0124073 0)
(0.0206983 -0.0142278 0)
(0.0235378 -0.0158213 0)
(0.0268559 -0.0170358 0)
(0.0305397 -0.0177478 0)
(0.0344555 -0.0178226 0)
(0.0384104 -0.017187 0)
(0.0422332 -0.0157981 0)
(0.0457435 -0.0136522 0)
(0.0487619 -0.0108313 0)
(0.0511286 -0.00741145 0)
(0.0527144 -0.00349915 0)
(0.0534491 0.000780528 0)
(0.0532535 0.00528986 0)
(0.0520957 0.00987849 0)
(0.049995 0.0143842 0)
(0.0469898 0.018673 0)
(0.0431471 0.0226411 0)
(0.0385653 0.0261963 0)
(0.0333557 0.0292527 0)
(0.0276262 0.0317583 0)
(0.0214992 0.0336798 0)
(0.0150969 0.0350039 0)
(0.00853713 0.0357388 0)
(0.00192908 0.0359016 0)
(-0.00463455 0.0355071 0)
(-0.0110662 0.0345692 0)
(-0.0172847 0.0330997 0)
(-0.0232013 0.0311116 0)
(-0.0287209 0.0286187 0)
(-0.0337449 0.0256464 0)
(-0.0381777 0.0222324 0)
(-0.041925 0.0184396 0)
(-0.0449073 0.0143495 0)
(-0.047065 0.0100582 0)
(-0.0483523 0.00567875 0)
(-0.0487478 0.00133405 0)
(-0.0482642 -0.00284219 0)
(-0.0469441 -0.00672117 0)
(-0.0448635 -0.0101829 0)
(-0.0421051 -0.0131121 0)
(-0.0388164 -0.0154091 0)
(-0.03514 -0.0170188 0)
(-0.0312438 -0.0178913 0)
(-0.0273328 -0.0180476 0)
(-0.0235568 -0.0175287 0)
(-0.0200594 -0.0164311 0)
(-0.0169706 -0.0148634 0)
(-0.0143967 -0.012968 0)
(-0.0123895 -0.0108851 0)
(-0.0109625 -0.00879876 0)
(-0.010103 -0.00686051 0)
(-0.00974787 -0.00518908 0)
(-0.00979237 -0.00388029 0)
(-0.0101437 -0.00303397 0)
(-0.010673 -0.00273478 0)
(-0.0112372 -0.00304746 0)
(-0.0116355 -0.00400402 0)
(-0.0116431 -0.00554568 0)
(-0.0110428 -0.00747409 0)
(-0.00964823 -0.00932966 0)
(-0.00743952 -0.0102305 0)
(-0.00478216 -0.00908708 0)
(-0.0022291 -0.00589867 0)
(-0.000901999 -0.00677746 0)
(0.0010756 -0.0105703 0)
(0.0033489 -0.0112228 0)
(0.00725004 -0.0151646 0)
(0.0110923 -0.0162033 0)
(0.0140336 -0.0145327 0)
(0.015714 -0.0117406 0)
(0.0163032 -0.00898696 0)
(0.0161357 -0.00685717 0)
(0.0155342 -0.00551226 0)
(0.0147743 -0.00497982 0)
(0.0140606 -0.00520823 0)
(0.0135432 -0.00610705 0)
(0.0133892 -0.00758868 0)
(0.0137457 -0.0095584 0)
(0.0147044 -0.0118686 0)
(0.0163828 -0.0143678 0)
(0.0188353 -0.0168546 0)
(0.0220143 -0.0190532 0)
(0.0258329 -0.0207921 0)
(0.0301715 -0.0218786 0)
(0.0348551 -0.0221483 0)
(0.0396447 -0.0215107 0)
(0.0443223 -0.019895 0)
(0.0486482 -0.0173296 0)
(0.0523908 -0.01389 0)
(0.0553784 -0.00970165 0)
(0.0574501 -0.00489462 0)
(0.0585083 0.000365836 0)
(0.0584793 0.00590561 0)
(0.0573231 0.0115284 0)
(0.0550651 0.0170412 0)
(0.0517602 0.0222744 0)
(0.0474999 0.0270856 0)
(0.0423986 0.0313716 0)
(0.0365868 0.035044 0)
(0.0302062 0.038035 0)
(0.0233953 0.0403097 0)
(0.016295 0.0418572 0)
(0.00904257 0.0426945 0)
(0.00176068 0.0428513 0)
(-0.00545478 0.0423593 0)
(-0.0125186 0.0412397 0)
(-0.0193519 0.0394995 0)
(-0.0258636 0.0371438 0)
(-0.0319478 0.0341798 0)
(-0.0374926 0.030629 0)
(-0.0423821 0.0265339 0)
(-0.0465073 0.0219687 0)
(-0.0497692 0.0170214 0)
(-0.0520855 0.0118093 0)
(-0.0534007 0.00647331 0)
(-0.0536817 0.00116913 0)
(-0.0529364 -0.00394306 0)
(-0.0512082 -0.00870251 0)
(-0.0485757 -0.0129447 0)
(-0.0451597 -0.0165179 0)
(-0.0411314 -0.0193117 0)
(-0.0366516 -0.0212136 0)
(-0.0319423 -0.0222027 0)
(-0.0272414 -0.0222671 0)
(-0.0227499 -0.0214749 0)
(-0.0186581 -0.0199392 0)
(-0.0151206 -0.0178191 0)
(-0.0122559 -0.0152922 0)
(-0.0101323 -0.0125423 0)
(-0.00877895 -0.00982096 0)
(-0.00814434 -0.0072961 0)
(-0.00813951 -0.00511564 0)
(-0.00864891 -0.0033987 0)
(-0.00956849 -0.00227777 0)
(-0.0107575 -0.00186838 0)
(-0.012026 -0.00227488 0)
(-0.0131228 -0.00350116 0)
(-0.0137685 -0.00561058 0)
(-0.0136624 -0.00837033 0)
(-0.012437 -0.0111943 0)
(-0.00991365 -0.0129251 0)
(-0.00650068 -0.01203 0)
(-0.00299066 -0.00820251 0)
(-0.00107683 -0.00859139 0)
(0.00127245 -0.0130997 0)
(0.00461639 -0.0148987 0)
(0.0102097 -0.0195946 0)
(0.0151982 -0.0199797 0)
(0.0183773 -0.0168823 0)
(0.0195511 -0.0126749 0)
(0.0192744 -0.00886621 0)
(0.0181706 -0.0060902 0)
(0.0166538 -0.00443589 0)
(0.0150063 -0.00382694 0)
(0.0134894 -0.00420171 0)
(0.0122766 -0.0054205 0)
(0.0115328 -0.00738207 0)
(0.0114141 -0.00996924 0)
(0.012074 -0.0130518 0)
(0.0136534 -0.0163543 0)
(0.0162645 -0.0197252 0)
(0.019872 -0.0227477 0)
(0.0243313 -0.0252017 0)
(0.0295213 -0.0268187 0)
(0.0351936 -0.0273879 0)
(0.0410507 -0.0267841 0)
(0.0468082 -0.0249312 0)
(0.0521631 -0.0218864 0)
(0.0568373 -0.0177266 0)
(0.0606019 -0.012615 0)
(0.0632748 -0.00673851 0)
(0.0647413 -0.000314174 0)
(0.0649059 0.00643274 0)
(0.0637295 0.0132647 0)
(0.0612609 0.0199508 0)
(0.0575725 0.0262734 0)
(0.0527764 0.0320625 0)
(0.0470271 0.037178 0)
(0.0404807 0.0415361 0)
(0.0332977 0.0450577 0)
(0.0256496 0.0477079 0)
(0.0177016 0.0494821 0)
(0.00961357 0.050407 0)
(0.00152363 0.050532 0)
(-0.00646591 0.0499174 0)
(-0.0142796 0.0485949 0)
(-0.0218459 0.0465647 0)
(-0.0290707 0.0438168 0)
(-0.0358382 0.0403434 0)
(-0.0420181 0.036158 0)
(-0.04747 0.0313057 0)
(-0.052062 0.0258627 0)
(-0.0556759 0.0199367 0)
(-0.0582031 0.0136682 0)
(-0.0595641 0.00722354 0)
(-0.0597176 0.00079382 0)
(-0.0586635 -0.0054203 0)
(-0.0564365 -0.0112129 0)
(-0.0531317 -0.0163793 0)
(-0.0489007 -0.0207286 0)
(-0.0439289 -0.0241011 0)
(-0.0384336 -0.026336 0)
(-0.0326841 -0.0274157 0)
(-0.0269725 -0.0273246 0)
(-0.0215763 -0.0261472 0)
(-0.0167295 -0.0240232 0)
(-0.0126268 -0.0211613 0)
(-0.00939742 -0.0177937 0)
(-0.00716549 -0.0141843 0)
(-0.00593404 -0.0106558 0)
(-0.00559717 -0.00737522 0)
(-0.00604312 -0.00454957 0)
(-0.00714485 -0.00231276 0)
(-0.00879416 -0.000841026 0)
(-0.010826 -0.000260056 0)
(-0.0129845 -0.00066374 0)
(-0.0150659 -0.00219559 0)
(-0.0167507 -0.00498137 0)
(-0.0174937 -0.0088456 0)
(-0.0167015 -0.0131083 0)
(-0.013883 -0.0162619 0)
(-0.00935145 -0.0160287 0)
(-0.00424254 -0.0114918 0)
(-0.00131112 -0.0109776 0)
(0.00161543 -0.0165163 0)
(0.00712723 -0.0203624 0)
(0.0157665 -0.0258025 0)
(0.0223982 -0.0245046 0)
(0.0253497 -0.0188984 0)
(0.0251899 -0.0126568 0)
(0.0233252 -0.00760123 0)
(0.0207428 -0.00420701 0)
(0.0179695 -0.00236458 0)
(0.0152184 -0.00180959 0)
(0.0127057 -0.00237007 0)
(0.0106215 -0.00398411 0)
(0.00911583 -0.00656205 0)
(0.00837326 -0.00994909 0)
(0.00864248 -0.0139592 0)
(0.0100638 -0.018335 0)
(0.012827 -0.0228473 0)
(0.0169537 -0.0269848 0)
(0.0222228 -0.0304158 0)
(0.0284968 -0.0327771 0)
(0.0354453 -0.033791 0)
(0.0426842 -0.0332826 0)
(0.0498174 -0.0311746 0)
(0.0564698 -0.0275494 0)
(0.0623074 -0.0225233 0)
(0.0670469 -0.0163112 0)
(0.0704643 -0.00915619 0)
(0.072412 -0.00131935 0)
(0.072798 0.00686622 0)
(0.0715867 0.0151377 0)
(0.0688344 0.0232029 0)
(0.0646497 0.0307929 0)
(0.0591821 0.0377005 0)
(0.0526233 0.0437681 0)
(0.0451679 0.0488885 0)
(0.0370056 0.0529906 0)
(0.0283436 0.0560413 0)
(0.0193717 0.0580383 0)
(0.0102739 0.0590259 0)
(0.00121259 0.0590855 0)
(-0.00770495 0.0583157 0)
(-0.0164161 0.0567646 0)
(-0.0248571 0.0544236 0)
(-0.0329349 0.0512592 0)
(-0.0405235 0.0472352 0)
(-0.0474707 0.0423526 0)
(-0.0536128 0.0366531 0)
(-0.0587902 0.0302141 0)
(-0.0628469 0.023171 0)
(-0.0656483 0.0156816 0)
(-0.0670937 0.00793938 0)
(-0.0671132 0.000173925 0)
(-0.0656913 -0.00735003 0)
(-0.0628681 -0.0143824 0)
(-0.0587512 -0.0206607 0)
(-0.0535138 -0.0259322 0)
(-0.047352 -0.0299931 0)
(-0.0405557 -0.0326275 0)
(-0.0334914 -0.0337877 0)
(-0.0265005 -0.0334578 0)
(-0.0199433 -0.0317429 0)
(-0.0141339 -0.028816 0)
(-0.0093189 -0.0249697 0)
(-0.00567247 -0.0204693 0)
(-0.00335541 -0.0158 0)
(-0.0022973 -0.0112335 0)
(-0.00233929 -0.00701789 0)
(-0.00336034 -0.00337701 0)
(-0.00520786 -0.000494206 0)
(-0.00775735 0.00144905 0)
(-0.0107816 0.00235095 0)
(-0.0141113 0.00207045 0)
(-0.0175925 0.000311407 0)
(-0.0208251 -0.00315477 0)
(-0.0231354 -0.00839721 0)
(-0.0234833 -0.0148077 0)
(-0.0206267 -0.0204409 0)
(-0.0144025 -0.0217696 0)
(-0.00650894 -0.0164687 0)
(-0.00168217 -0.014319 0)
(0.00227244 -0.0219039 0)
(0.0121053 -0.0293927 0)
(0.0257398 -0.0348868 0)
(0.0344054 -0.0296308 0)
(0.0360932 -0.0195905 0)
(0.0330912 -0.01061 0)
(0.028451 -0.00436825 0)
(0.0237181 -0.000666946 0)
(0.0193395 0.00110563 0)
(0.0153553 0.00142266 0)
(0.0117372 0.000496622 0)
(0.00857043 -0.00161984 0)
(0.00611123 -0.00494113 0)
(0.00461584 -0.00932065 0)
(0.00434119 -0.0145168 0)
(0.00547191 -0.0202931 0)
(0.00836396 -0.0262498 0)
(0.0130904 -0.0319323 0)
(0.0193793 -0.0366809 0)
(0.0270375 -0.0400564 0)
(0.03562 -0.0416867 0)
(0.0446193 -0.0413303 0)
(0.053502 -0.0389357 0)
(0.0617871 -0.0346034 0)
(0.0690714 -0.0285198 0)
(0.0750047 -0.0209733 0)
(0.0793482 -0.0122716 0)
(0.0818854 -0.00275457 0)
(0.0825122 0.00720454 0)
(0.0812328 0.0172153 0)
(0.0781009 0.0269136 0)
(0.0732723 0.0359815 0)
(0.0669581 0.0441729 0)
(0.0594005 0.0513123 0)
(0.0508365 0.0572828 0)
(0.0414976 0.0620243 0)
(0.0316146 0.0655018 0)
(0.0214075 0.0677179 0)
(0.0110937 0.068737 0)
(0.000853633 0.068689 0)
(-0.0091982 0.0677217 0)
(-0.0190057 0.0659126 0)
(-0.0285072 0.0632377 0)
(-0.0376156 0.0596223 0)
(-0.0461962 0.0550036 0)
(-0.0540708 0.049353 0)
(-0.0610537 0.0427041 0)
(-0.0669427 0.035144 0)
(-0.0715529 0.0268171 0)
(-0.074725 0.0179014 0)
(-0.0763126 0.00863581 0)
(-0.076199 -0.000713687 0)
(-0.0743579 -0.00981093 0)
(-0.0708296 -0.018349 0)
(-0.0657186 -0.0259781 0)
(-0.0592354 -0.0323802 0)
(-0.051599 -0.0372714 0)
(-0.0431763 -0.0403975 0)
(-0.034432 -0.0416452 0)
(-0.0258103 -0.0409721 0)
(-0.0177843 -0.0385152 0)
(-0.0107733 -0.0345172 0)
(-0.00506377 -0.0293482 0)
(-0.000978465 -0.0234073 0)
(0.00136265 -0.017368 0)
(0.00219342 -0.0114732 0)
(0.00166128 -0.00609624 0)
(-5.52985e-05 -0.00146947 0)
(-0.00279149 0.00215415 0)
(-0.00635261 0.0047734 0)
(-0.0105403 0.00624096 0)
(-0.0152953 0.00631535 0)
(-0.0205904 0.004623 0)
(-0.0261428 0.000690897 0)
(-0.0311416 -0.00607157 0)
(-0.0338278 -0.0155181 0)
(-0.0316048 -0.0254697 0)
(-0.0231531 -0.0302658 0)
(-0.0107931 -0.0245313 0)
(-0.00237751 -0.0193294 0)
(0.00359263 -0.03096 0)
(0.0202784 -0.0444276 0)
(0.0393841 -0.0478918 0)
(0.0496039 -0.0347735 0)
(0.0490218 -0.0174321 0)
(0.0420055 -0.00495333 0)
(0.0337905 0.00187549 0)
(0.0265227 0.0050563 0)
(0.0204462 0.00619191 0)
(0.0151529 0.005927 0)
(0.0103788 0.0044423 0)
(0.00607106 0.00173547 0)
(0.00246304 -0.0023766 0)
(-1.78849e-05 -0.00790091 0)
(-0.00103611 -0.0146041 0)
(-0.00028835 -0.0221609 0)
(0.00262372 -0.0299839 0)
(0.00798193 -0.0376805 0)
(0.0155741 -0.0442367 0)
(0.0249641 -0.0490037 0)
(0.0356172 -0.0514781 0)
(0.0468325 -0.0513457 0)
(0.0578948 -0.0485858 0)
(0.0682143 -0.043378 0)
(0.0772859 -0.0360156 0)
(0.0847 -0.0268379 0)
(0.0901611 -0.0162335 0)
(0.0934444 -0.00464498 0)
(0.0943985 0.00744847 0)
(0.0929935 0.0195503 0)
(0.08936 0.0311981 0)
(0.0837222 0.0420054 0)
(0.0763627 0.0516712 0)
(0.067592 0.0600168 0)
(0.05771 0.0669369 0)
(0.0469804 0.0723776 0)
(0.0356556 0.0763074 0)
(0.0239824 0.0787458 0)
(0.0122067 0.079777 0)
(0.000527598 0.0795795 0)
(-0.0109326 0.0783704 0)
(-0.0221082 0.0762634 0)
(-0.0329327 0.0732153 0)
(-0.0433066 0.0691044 0)
(-0.053088 0.0638308 0)
(-0.0620845 0.0573295 0)
(-0.0700783 0.0496184 0)
(-0.0768436 0.0407884 0)
(-0.0821579 0.0309819 0)
(-0.0858029 0.02042 0)
(-0.0875931 0.00936793 0)
(-0.0873565 -0.00184011 0)
(-0.0850369 -0.0128622 0)
(-0.0806654 -0.0232471 0)
(-0.0743479 -0.0325557 0)
(-0.0663234 -0.0403692 0)
(-0.0568588 -0.0462955 0)
(-0.0464182 -0.0500267 0)
(-0.0355654 -0.0513437 0)
(-0.0248901 -0.050213 0)
(-0.0150288 -0.0467483 0)
(-0.00651763 -0.041322 0)
(0.000235087 -0.0343255 0)
(0.00477209 -0.0266321 0)
(0.00710993 -0.0187688 0)
(0.0076042 -0.0112168 0)
(0.00643137 -0.00445944 0)
(0.00382747 0.00121937 0)
(0.000159037 0.00578225 0)
(-0.00436064 0.00921475 0)
(-0.0097699 0.011496 0)
(-0.0161101 0.0123336 0)
(-0.0234765 0.0113234 0)
(-0.0318292 0.00755796 0)
(-0.0403236 -0.00051358 0)
(-0.0462701 -0.0141085 0)
(-0.0453773 -0.0311603 0)
(-0.0349648 -0.0426343 0)
(-0.017503 -0.0377621 0)
(-0.00353205 -0.0276328 0)
(0.00586195 -0.045675 0)
(0.0286446 -0.0667678 0)
(0.0491288 -0.0645692 0)
(0.0587055 -0.0394089 0)
(0.0561309 -0.0121452 0)
(0.046391 0.00439003 0)
(0.0359185 0.0110878 0)
(0.0271506 0.0128465 0)
(0.0199687 0.0127627 0)
(0.0136631 0.0117845 0)
(0.00785448 0.00972534 0)
(0.00231683 0.00631989 0)
(-0.00271437 0.00134957 0)
(-0.00657975 -0.0053902 0)
(-0.00870064 -0.0138751 0)
(-0.00855232 -0.0236785 0)
(-0.00570488 -0.0340704 0)
(0.000293203 -0.044313 0)
(0.00942674 -0.0533967 0)
(0.0210224 -0.0600883 0)
(0.0343049 -0.0637095 0)
(0.0483444 -0.063869 0)
(0.0621713 -0.0606253 0)
(0.0750353 -0.0543302 0)
(0.0863733 -0.0453907 0)
(0.095707 -0.0342212 0)
(0.102658 -0.0213018 0)
(0.1069 -0.00715488 0)
(0.10827 0.00756919 0)
(0.106781 0.0222271 0)
(0.102587 0.0362198 0)
(0.0959905 0.0490649 0)
(0.0873913 0.0604161 0)
(0.0772146 0.0701207 0)
(0.0658161 0.0780801 0)
(0.0534956 0.0842744 0)
(0.0405342 0.0886944 0)
(0.0271962 0.0913687 0)
(0.0137326 0.0924154 0)
(0.000352528 0.0920566 0)
(-0.0128094 0.0905766 0)
(-0.0256677 0.0881236 0)
(-0.0381237 0.084641 0)
(-0.0500541 0.0799635 0)
(-0.0613048 0.0739516 0)
(-0.071663 0.0664924 0)
(-0.0808816 0.0575846 0)
(-0.0887052 0.047306 0)
(-0.0948566 0.0358123 0)
(-0.0990713 0.023332 0)
(-0.101097 0.0101485 0)
(-0.100744 -0.0033394 0)
(-0.0978801 -0.0166873 0)
(-0.0924544 -0.0293281 0)
(-0.0846152 -0.0407003 0)
(-0.0746284 -0.0502578 0)
(-0.0628533 -0.0574987 0)
(-0.0498515 -0.0619935 0)
(-0.0363346 -0.0633981 0)
(-0.0230633 -0.0616315 0)
(-0.0108673 -0.0568 0)
(-0.0004104 -0.0493552 0)
(0.00753401 -0.0401141 0)
(0.0125522 -0.0300633 0)
(0.0149033 -0.0198422 0)
(0.0148453 -0.010253 0)
(0.0127276 -0.00188714 0)
(0.00914038 0.004958 0)
(0.0044915 0.0105572 0)
(-0.00103695 0.014916 0)
(-0.00752477 0.018208 0)
(-0.0151411 0.0202559 0)
(-0.024059 0.0205003 0)
(-0.0344289 0.0175412 0)
(-0.045303 0.00825197 0)
(-0.0533816 -0.01055 0)
(-0.0535574 -0.0371249 0)
(-0.0432683 -0.0586399 0)
(-0.0244557 -0.0571236 0)
(-0.00549217 -0.040577 0)
(0.00865524 -0.0652342 0)
(0.0296867 -0.0907465 0)
(0.0435843 -0.0793301 0)
(0.0494402 -0.0417177 0)
(0.0467653 -0.00579012 0)
(0.038726 0.0141866 0)