/*--------------------------------*- C++ -*----------------------------------*\
| =========                 |                                                 |
| \\      /  F ield         | OpenFOAM: The Open Source CFD Toolbox           |
|  \\    /   O peration     | Version:  2412                                  |
|   \\  /    A nd           | Website:  www.openfoam.com                      |
|    \\/     M anipulation  |                                                 |
\*---------------------------------------------------------------------------*/
FoamFile
{
    version     2.0;
    format      ascii;
    arch        "LSB;label=32;scalar=64";
    class       surfaceScalarField;
    location    "6.25";
    object      alphaPhi0.honey;
}
// * * * * * * * * * * * * * * * * * * * * * * * * * * * * * * * * * * * * * //

dimensions      [0 3 -1 0 0 0 0];

oriented        oriented;

internalField   nonuniform List<scalar> 
12640
(
-7.77561e-12
7.75699e-12
-2.97397e-11
1.67049e-11
-5.54519e-11
2.15306e-11
-8.44254e-11
2.52477e-11
-1.15943e-10
2.78032e-11
-1.49631e-10
2.98625e-11
-1.85298e-10
3.16434e-11
-2.22874e-10
3.32578e-11
-2.62404e-10
3.48245e-11
-3.0398e-10
3.63842e-11
-3.4769e-10
3.79264e-11
-3.93592e-10
3.94296e-11
-4.41717e-10
4.08868e-11
-4.92033e-10
4.22631e-11
-5.4443e-10
4.35223e-11
-5.98698e-10
4.4615e-11
-6.54511e-10
4.54946e-11
-7.11405e-10
4.60919e-11
-7.68763e-10
4.63294e-11
-8.258e-10
4.61036e-11
-8.81576e-10
4.53032e-11
-9.35e-10
4.37929e-11
-9.8484e-10
4.14182e-11
-1.02973e-09
3.79914e-11
-1.0682e-09
3.33012e-11
-1.09865e-09
2.71119e-11
-1.1194e-09
1.91863e-11
-1.12871e-09
9.3071e-12
-1.1248e-09
-2.68076e-12
-1.106e-09
-1.68384e-11
-1.07074e-09
-3.30842e-11
-1.01778e-09
-5.1164e-11
-9.46265e-10
-7.06272e-11
-8.5594e-10
-9.08296e-11
-7.47251e-10
-1.10957e-10
-6.2145e-10
-1.30079e-10
-4.80636e-10
-1.47218e-10
-3.27732e-10
-1.61437e-10
-1.66383e-10
-1.71921e-10
-7.74591e-13
-1.78055e-10
1.64594e-10
-1.79486e-10
3.25192e-10
-1.76147e-10
4.76742e-10
-1.68261e-10
6.15488e-10
-1.56303e-10
7.38413e-10
-1.4095e-10
8.43369e-10
-1.22983e-10
9.29121e-10
-1.03197e-10
9.95356e-10
-8.23468e-11
1.04268e-09
-6.11665e-11
1.07253e-09
-4.04053e-11
1.08695e-09
-2.08117e-11
1.08818e-09
-3.04931e-12
1.07838e-09
1.23694e-11
1.05945e-09
2.51167e-11
1.03298e-09
3.5037e-11
1.0002e-09
4.2166e-11
9.62031e-10
4.67182e-11
9.19099e-10
4.90849e-11
8.71925e-10
4.97528e-11
8.21063e-10
4.92496e-11
7.67241e-10
4.80322e-11
7.11361e-10
4.6472e-11
6.5445e-10
4.47964e-11
5.9752e-10
4.31541e-11
5.41486e-10
4.15909e-11
4.87076e-10
4.01425e-11
4.34841e-10
3.87887e-11
3.85119e-10
3.75367e-11
3.38096e-10
3.63469e-11
2.93796e-10
3.52147e-11
2.52154e-10
3.4088e-11
2.13019e-10
3.29536e-11
1.76235e-10
3.17509e-11
1.41651e-10
3.04494e-11
1.09214e-10
2.89514e-11
7.90356e-11
2.71195e-11
5.15534e-11
2.46601e-11
2.76738e-11
2.11381e-11
9.14029e-12
1.57354e-11
6.3897e-12
-1.96033e-11
2.41423e-11
-6.16545e-11
5.06189e-11
-1.13153e-10
6.61198e-11
-1.72013e-10
7.75915e-11
-2.36786e-10
8.58951e-11
-3.06527e-10
9.25381e-11
-3.80759e-10
9.82507e-11
-4.59283e-10
1.0341e-10
-5.42063e-10
1.08294e-10
-6.29169e-10
1.13053e-10
-7.20687e-10
1.17708e-10
-8.16691e-10
1.22262e-10
-9.1719e-10
1.26706e-10
-1.02211e-09
1.31002e-10
-1.13123e-09
1.35065e-10
-1.24415e-09
1.38798e-10
-1.36024e-09
1.4205e-10
-1.47859e-09
1.44625e-10
-1.598e-09
1.46246e-10
-1.71696e-09
1.46565e-10
-1.8336e-09
1.4515e-10
-1.94573e-09
1.41489e-10
-2.05085e-09
1.34977e-10
-2.14615e-09
1.24922e-10
-2.22849e-09
1.10559e-10
-2.29449e-09
9.10927e-11
-2.34052e-09
6.57561e-11
-2.36282e-09
3.39064e-11
-2.35754e-09
-4.87007e-12
-2.32099e-09
-5.06355e-11
-2.24979e-09
-1.0299e-10
-2.14119e-09
-1.60977e-10
-1.99337e-09
-2.23045e-10
-1.80575e-09
-2.87061e-10
-1.57925e-09
-3.50411e-10
-1.31653e-09
-4.10164e-10
-1.02205e-09
-4.63296e-10
-7.01979e-10
-5.0694e-10
-3.64003e-10
-5.38641e-10
-1.6924e-11
-5.56567e-10
3.29827e-10
-5.59686e-10
6.66773e-10
-5.47843e-10
9.84978e-10
-5.2175e-10
1.2766e-09
-4.82884e-10
1.53532e-09
-4.33329e-10
1.75668e-09
-3.75564e-10
1.93815e-09
-3.12225e-10
2.07907e-09
-2.45954e-10
2.18058e-09
-1.79365e-10
2.24535e-09
-1.15028e-10
2.27718e-09
-5.53171e-11
2.28043e-09
-2.17365e-12
2.25941e-09
4.30716e-11
2.21808e-09
7.97203e-11
2.15992e-09
1.07671e-10
2.08783e-09
1.2738e-10
2.00416e-09
1.39823e-10
1.91077e-09
1.46355e-10
1.80925e-09
1.48509e-10
1.70114e-09
1.47733e-10
1.58812e-09
1.45237e-10
1.47199e-09
1.41877e-10
1.35462e-09
1.38201e-10
1.23779e-09
1.34488e-10
1.12305e-09
1.30866e-10
1.01164e-09
1.27343e-10
9.04462e-10
1.23906e-10
8.02101e-10
1.20489e-10
7.04845e-10
1.17049e-10
6.1279e-10
1.13501e-10
5.25837e-10
1.09796e-10
4.43843e-10
1.0584e-10
3.66616e-10
1.01563e-10
2.94069e-10
9.68179e-11
2.26255e-10
9.14029e-11
1.63573e-10
8.48791e-11
1.06953e-10
7.64711e-11
5.80579e-11
6.50078e-11
1.93533e-11
4.89411e-11
2.30665e-11
-2.60087e-11
4.62623e-11
-7.87832e-11
9.48639e-11
-1.44028e-10
1.24061e-10
-2.18945e-10
1.45555e-10
-3.01734e-10
1.61556e-10
-3.91216e-10
1.74517e-10
-4.86763e-10
1.85749e-10
-5.88058e-10
1.95928e-10
-6.94991e-10
2.0554e-10
-8.07561e-10
2.14851e-10
-9.25814e-10
2.23944e-10
-1.04977e-09
2.32839e-10
-1.17942e-09
2.41542e-10
-1.31464e-09
2.49995e-10
-1.45514e-09
2.58063e-10
-1.60044e-09
2.65541e-10
-1.74977e-09
2.72146e-10
-1.90203e-09
2.77475e-10
-2.0558e-09
2.81e-10
-2.20925e-09
2.82032e-10
-2.36014e-09
2.79731e-10
-2.5058e-09
2.73085e-10
-2.64313e-09
2.6092e-10
-2.76861e-09
2.41899e-10
-2.87824e-09
2.14573e-10
-2.96762e-09
1.77454e-10
-3.03198e-09
1.29146e-10
-3.06623e-09
6.85023e-11
-3.06515e-09
-5.16952e-12
-3.02361e-09
-9.18902e-11
-2.93686e-09
-1.90805e-10
-2.80092e-09
-3.00025e-10
-2.61306e-09
-4.16549e-10
-2.37222e-09
-5.36312e-10
-2.07942e-09
-6.5437e-10
-1.73803e-09
-7.65221e-10
-1.3539e-09
-8.63231e-10
-9.3525e-10
-9.43101e-10
-4.92326e-10
-1.00033e-09
-3.69166e-11
-1.03162e-09
4.18364e-10
-1.03519e-09
8.6087e-10
-1.01094e-09
1.27871e-09
-9.604e-10
1.66147e-09
-8.86528e-10
2.00081e-09
-7.93419e-10
2.29081e-09
-6.85909e-10
2.52815e-09
-5.69103e-10
2.7119e-09
-4.47979e-10
2.8433e-09
-3.27226e-10
2.92566e-09
-2.11217e-10
2.96384e-09
-1.03851e-10
2.96366e-09
-8.22727e-12
2.93102e-09
7.35939e-11
2.8715e-09
1.40601e-10
2.79009e-09
1.92711e-10
2.69112e-09
2.30694e-10
2.57816e-09
2.56084e-10
2.45402e-09
2.71021e-10
2.32096e-09
2.77923e-10
2.18091e-09
2.7915e-10
2.03579e-09
2.76697e-10
1.88758e-09
2.72078e-10
1.73832e-09
2.66294e-10
1.58995e-09
2.59958e-10
1.44419e-09
2.53368e-10
1.30243e-09
2.46666e-10
1.16571e-09
2.39864e-10
1.0347e-09
2.32949e-10
9.09822e-10
2.25841e-10
7.91204e-10
2.1848e-10
6.78865e-10
2.10748e-10
5.72708e-10
2.0255e-10
4.72666e-10
1.93713e-10
3.78729e-10
1.84029e-10
2.91106e-10
1.73093e-10
2.10327e-10
1.60198e-10
1.37534e-10
1.43984e-10
7.46458e-11
1.22481e-10
2.47952e-11
9.30243e-11
4.52882e-11
-2.92756e-11
7.16269e-11
-8.8756e-11
1.45882e-10
-1.62594e-10
1.90629e-10
-2.47456e-10
2.23486e-10
-3.41354e-10
2.48351e-10
-4.42995e-10
2.68687e-10
-5.5169e-10
2.86439e-10
-6.6709e-10
3.02617e-10
-7.8902e-10
3.17883e-10
-9.17438e-10
3.32645e-10
-1.05235e-09
3.47052e-10
-1.19375e-09
3.61169e-10
-1.3416e-09
3.75004e-10
-1.49576e-09
3.88495e-10
-1.65592e-09
4.01445e-10
-1.82155e-09
4.13544e-10
-1.99184e-09
4.24333e-10
-2.16567e-09
4.33191e-10
-2.34151e-09
4.39283e-10
-2.51747e-09
4.41545e-10
-2.69118e-09
4.3865e-10
-2.85982e-09
4.2901e-10
-3.02005e-09
4.1077e-10
-3.16798e-09
3.81837e-10
-3.29917e-09
3.39944e-10
-3.40856e-09
2.82786e-10
-3.49055e-09
2.082e-10
-3.53901e-09
1.14432e-10
-3.54751e-09
4.37445e-13
-3.50955e-09
-1.33779e-10
-3.41895e-09
-2.86851e-10
-3.27037e-09
-4.55796e-10
-3.05992e-09
-6.35897e-10
-2.78573e-09
-8.20774e-10
-2.44856e-09
-1.00268e-09
-2.05213e-09
-1.17301e-09
-1.60334e-09
-1.323e-09
-1.11206e-09
-1.44444e-09
-5.90809e-10
-1.53041e-09
-5.40178e-11
-1.57591e-09
4.8283e-10
-1.57836e-09
1.00426e-09
-1.53788e-09
1.49581e-09
-1.45718e-09
1.94489e-09
-1.34121e-09
2.34147e-09
-1.19663e-09
2.67862e-09
-1.03122e-09
2.95258e-09
-8.53167e-10
3.16245e-09
-6.70205e-10
3.30983e-09
-4.89273e-10
3.39859e-09
-3.16472e-10
3.43468e-09
-1.57032e-10
3.4253e-09
-1.49989e-11
3.37794e-09
1.07039e-10
3.29967e-09
2.07915e-10
3.19688e-09
2.87646e-10
3.07517e-09
3.47253e-10
2.93917e-09
3.88686e-10
2.79246e-09
4.14659e-10
2.63765e-09
4.28342e-10
2.47674e-09
4.32919e-10
2.31149e-09
4.31226e-10
2.14369e-09
4.25502e-10
1.9752e-09
4.1736e-10
1.80788e-09
4.0783e-10
1.64342e-09
3.97534e-10
1.48327e-09
3.86776e-10
1.32849e-09
3.75705e-10
1.17987e-09
3.64328e-10
1.03786e-09
3.52622e-10
9.02707e-10
3.40482e-10
7.74483e-10
3.27805e-10
6.53204e-10
3.14404e-10
5.38854e-10
3.00077e-10
4.31533e-10
2.84469e-10
3.3149e-10
2.67035e-10
2.39353e-10
2.46718e-10
1.56344e-10
2.21591e-10
8.45808e-11
1.88729e-10
2.78331e-11
1.43885e-10
7.05586e-11
-3.10059e-11
9.87268e-11
-9.45703e-11
2.01098e-10
-1.73994e-10
2.62874e-10
-2.65412e-10
3.08053e-10
-3.66638e-10
3.42553e-10
-4.76295e-10
3.70955e-10
-5.93667e-10
3.95897e-10
-7.18384e-10
4.1873e-10
-8.50248e-10
4.40302e-10
-9.89184e-10
4.61148e-10
-1.1352e-09
4.8153e-10
-1.28828e-09
5.01549e-10
-1.44841e-09
5.21246e-10
-1.61542e-09
5.40537e-10
-1.78903e-09
5.59188e-10
-1.96876e-09
5.76772e-10
-2.15382e-09
5.92669e-10
-2.34315e-09
6.06005e-10
-2.53529e-09
6.15631e-10
-2.72841e-09
6.20057e-10
-2.92024e-09
6.1743e-10
-3.10798e-09
6.05506e-10
-3.28829e-09
5.81662e-10
-3.45715e-09
5.42926e-10
-3.60985e-09
4.86084e-10
-3.74084e-09
4.07853e-10
-3.84377e-09
3.05151e-10
-3.91149e-09
1.75453e-10
-3.93623e-09
1.72267e-11
-3.9099e-09
-1.69599e-10
-3.82454e-09
-3.83169e-10
-3.67303e-09
-6.19332e-10
-3.44984e-09
-8.71441e-10
-3.15188e-09
-1.13044e-09
-2.77929e-09
-1.38527e-09
-2.33597e-09
-1.62367e-09
-1.82977e-09
-1.8331e-09
-1.27235e-09
-2.0019e-09
-6.78697e-10
-2.12022e-09
-6.62856e-11
-2.18099e-09
5.46119e-10
-2.1807e-09
1.13984e-09
-2.11983e-09
1.6976e-09
-2.00273e-09
2.20455e-09
-1.83686e-09
2.64902e-09
-1.63209e-09
3.02317e-09
-1.39984e-09
3.32323e-09
-1.15205e-09
3.54888e-09
-8.99873e-10
3.70255e-09
-6.52849e-10
3.78901e-09
-4.18826e-10
3.81541e-09
-2.04153e-10
3.79054e-09
-1.35314e-11
3.7236e-09
1.50247e-10
3.6232e-09
2.86188e-10
3.49707e-09
3.94663e-10
3.35199e-09
4.77088e-10
3.19364e-09
5.35799e-10
3.0263e-09
5.73977e-10
2.85289e-09
5.95374e-10
2.67532e-09
6.03906e-10
2.49502e-09
6.03184e-10
2.31332e-09
5.96221e-10
2.1317e-09
5.85279e-10
1.95173e-09
5.7193e-10
1.77494e-09
5.57156e-10
1.60267e-09
5.41539e-10
1.43603e-09
5.25355e-10
1.27577e-09
5.08727e-10
1.12243e-09
4.91628e-10
9.76299e-10
4.73991e-10
8.37528e-10
4.55644e-10
7.06168e-10
4.36387e-10
5.82299e-10
4.15895e-10
4.66035e-10
3.93737e-10
3.57699e-10
3.69148e-10
2.57951e-10
3.40745e-10
1.6814e-10
3.05919e-10
9.055e-11
2.60734e-10
2.95094e-11
1.98945e-10
9.75211e-11
-3.18177e-11
1.26699e-10
-9.77001e-11
2.58831e-10
-1.80583e-10
3.38743e-10
-2.76255e-10
3.97028e-10
-3.82338e-10
4.41765e-10
-4.97364e-10
4.7875e-10
-6.20568e-10
5.11359e-10
-7.51569e-10
5.41328e-10
-8.90154e-10
5.69684e-10
-1.03625e-09
5.97122e-10
-1.18985e-09
6.24022e-10
-1.35102e-09
6.50563e-10
-1.51972e-09
6.76808e-10
-1.69587e-09
7.02683e-10
-1.87924e-09
7.27907e-10
-2.06943e-09
7.5197e-10
-2.26581e-09
7.74076e-10
-2.46744e-09
7.93119e-10
-2.67308e-09
8.07606e-10
-2.88113e-09
8.15606e-10
-3.08955e-09
8.14693e-10
-3.29576e-09
8.01916e-10
-3.49659e-09
7.73792e-10
-3.68808e-09
7.26364e-10
-3.86533e-09
6.55321e-10
-4.0224e-09
5.56234e-10
-4.15217e-09
4.24894e-10
-4.2463e-09
2.57781e-10
-4.29541e-09
5.26358e-11
-4.28939e-09
-1.90907e-10
-4.21798e-09
-4.70672e-10
-4.0716e-09
-7.8139e-10
-3.84247e-09
-1.11437e-09
-3.5257e-09
-1.45753e-09
-3.12043e-09
-1.79595e-09
-2.63055e-09
-2.11293e-09
-2.06501e-09
-2.39141e-09
-1.4376e-09
-2.61546e-09
-7.66384e-10
-2.77156e-09
-7.26552e-11
-2.84991e-09
6.20583e-10
-2.84566e-09
1.29056e-09
-2.75975e-09
1.91656e-09
-2.59865e-09
2.48116e-09
-2.37317e-09
2.97089e-09
-2.09718e-09
3.37707e-09
-1.78655e-09
3.69627e-09
-1.45795e-09
3.92952e-09
-1.12688e-09
4.08089e-09
-8.0616e-10
4.15669e-09
-5.05624e-10
4.16557e-09
-2.32569e-10
4.11814e-09
8.01723e-12
4.02556e-09
2.13595e-10
3.89808e-09
3.83839e-10
3.74472e-09
5.19965e-10
3.57335e-09
6.24154e-10
3.39062e-09
6.99345e-10
3.20156e-09
7.49199e-10
3.00943e-09
7.77969e-10
2.81607e-09
7.90143e-10
2.62244e-09
7.90009e-10
2.42934e-09
7.81267e-10
2.23764e-09
7.6685e-10
2.04845e-09
7.48872e-10
1.86299e-09
7.28765e-10
1.6824e-09
7.07393e-10
1.50766e-09
6.85257e-10
1.33954e-09
6.62559e-10
1.17853e-09
6.39358e-10
1.02499e-09
6.15549e-10
8.79061e-10
5.90966e-10
7.40888e-10
5.65302e-10
6.10551e-10
5.38177e-10
4.88238e-10
5.08992e-10
3.74277e-10
4.76815e-10
2.69425e-10
4.39825e-10
1.75114e-10
3.94727e-10
9.38516e-11
3.36408e-10
3.03203e-11
2.56498e-10
1.25334e-10
-3.20199e-11
1.54958e-10
-9.89249e-11
3.17842e-10
-1.83723e-10
4.16738e-10
-2.8196e-10
4.88762e-10
-3.91121e-10
5.44249e-10
-5.09627e-10
5.90227e-10
-6.36662e-10
6.3087e-10
-7.71811e-10
6.68326e-10
-9.14865e-10
7.03847e-10
-1.06574e-09
7.38281e-10
-1.22449e-09
7.72174e-10
-1.39119e-09
8.05804e-10
-1.56591e-09
8.39288e-10
-1.74864e-09
8.72562e-10
-1.93928e-09
9.05334e-10
-2.13758e-09
9.37009e-10
-2.34311e-09
9.66655e-10
-2.55523e-09
9.92928e-10
-2.77302e-09
1.01401e-09
-2.99524e-09
1.02751e-09
-3.22026e-09
1.03041e-09
-3.44593e-09
1.01901e-09
-3.66939e-09
9.88902e-10
-3.88688e-09
9.35036e-10
-4.09349e-09
8.51864e-10
-4.28287e-09
7.33609e-10
-4.44707e-09
5.74676e-10
-4.57638e-09
3.70227e-10
-4.65946e-09
1.16888e-10
-4.68361e-09
-1.86421e-10
-4.63558e-09
-5.37601e-10
-4.50251e-09
-9.30554e-10
-4.27347e-09
-1.35459e-09
-3.941e-09
-1.7943e-09
-3.50271e-09
-2.23022e-09
-2.96232e-09
-2.6402e-09
-2.33003e-09
-3.00152e-09
-1.62225e-09
-3.29278e-09
-8.60945e-10
-3.49561e-09
-7.24123e-11
-3.5963e-09
7.14657e-10
-3.58783e-09
1.47197e-09
-3.4715e-09
2.17434e-09
-3.25668e-09
2.80126e-09
-2.9587e-09
3.33731e-09
-2.59664e-09
3.77293e-09
-2.192e-09
4.10535e-09
-1.76737e-09
4.33789e-09
-1.34393e-09
4.47756e-09
-9.38864e-10
4.5332e-09
-5.64471e-10
4.51552e-09
-2.28892e-10
4.43735e-09
6.30657e-11
4.31203e-09
3.09716e-10
4.1516e-09
5.12053e-10
3.96629e-09
6.72797e-10
3.76486e-09
7.95499e-10
3.55476e-09
8.84149e-10
3.3417e-09
9.43143e-10
3.12935e-09
9.77269e-10
2.91947e-09
9.91506e-10
2.71265e-09
9.90659e-10
2.50898e-09
9.79003e-10
2.30868e-09
9.60028e-10
2.11221e-09
9.36387e-10
1.92035e-09
9.09922e-10
1.73389e-09
8.81848e-10
1.55366e-09
8.52856e-10
1.38026e-09
8.23313e-10
1.21418e-09
7.933e-10
1.05572e-09
7.62751e-10
9.05084e-10
7.31414e-10
7.62387e-10
6.98941e-10
6.27781e-10
6.64795e-10
5.01453e-10
6.28266e-10
3.83823e-10
5.88138e-10
2.75679e-10
5.42198e-10
1.786e-10
4.86333e-10
9.52466e-11
4.14233e-10
3.05335e-11
3.15314e-10
1.53435e-10
-3.17886e-11
1.83094e-10
-9.87435e-11
3.77218e-10
-1.84263e-10
4.95721e-10
-2.83767e-10
5.82009e-10
-3.94632e-10
6.48682e-10
-5.15175e-10
7.03995e-10
-6.44495e-10
7.52943e-10
-7.82147e-10
7.98145e-10
-9.27916e-10
8.41109e-10
-1.08175e-09
8.82876e-10
-1.24371e-09
9.24165e-10
-1.41396e-09
9.65412e-10
-1.59268e-09
1.00681e-09
-1.78e-09
1.04834e-09
-1.97597e-09
1.0897e-09
-2.1806e-09
1.13027e-09
-2.39375e-09
1.16899e-09
-2.61514e-09
1.20431e-09
-2.84433e-09
1.23411e-09
-3.08062e-09
1.25557e-09
-3.32296e-09
1.26508e-09
-3.56979e-09
1.25817e-09
-3.81878e-09
1.22949e-09
-4.06655e-09
1.17281e-09
-4.30829e-09
1.08121e-09
-4.53735e-09
9.47347e-10
-4.74489e-09
7.63909e-10
-4.91965e-09
5.24279e-10
-5.04796e-09
2.23363e-10
-5.11398e-09
-1.41364e-10
-5.10055e-09
-5.68665e-10
-4.99052e-09
-1.05229e-09
-4.76859e-09
-1.57989e-09
-4.42362e-09
-2.13252e-09
-3.95088e-09
-2.68518e-09
-3.35359e-09
-3.20883e-09
-2.64336e-09
-3.6733e-09
-1.83975e-09
-4.05009e-09
-9.69548e-10
-4.314e-09
-6.56733e-11
-4.44539e-09
8.35367e-10
-4.43354e-09
1.69756e-09
-4.27988e-09
2.48966e-09
-3.9979e-09
3.18737e-09
-3.60938e-09
3.77322e-09
-3.14059e-09
4.23671e-09
-2.62034e-09
4.57607e-09
-2.07891e-09
4.79799e-09
-1.54484e-09
4.91414e-09
-1.04107e-09
4.93757e-09
-5.83067e-10
4.88207e-09
-1.79665e-10
4.76309e-09
1.65223e-10
4.59651e-09
4.51636e-10
4.39631e-09
6.82732e-10
4.17379e-09
8.63504e-10
3.93829e-09
9.99594e-10
3.69772e-09
1.09665e-09
3.45826e-09
1.16024e-09
3.22388e-09
1.19591e-09
2.99631e-09
1.20914e-09
2.77574e-09
1.20515e-09
2.56162e-09
1.18862e-09
2.35339e-09
1.16348e-09
2.15084e-09
1.13278e-09
1.95409e-09
1.09877e-09
1.76358e-09
1.06292e-09
1.57975e-09
1.02617e-09
1.4031e-09
9.8898e-10
1.23394e-09
9.51529e-10
1.07255e-09
9.13698e-10
9.19088e-10
8.75216e-10
7.73692e-10
8.35589e-10
6.36496e-10
7.9418e-10
5.07768e-10
7.50043e-10
3.87954e-10
7.0172e-10
2.77956e-10
6.46504e-10
1.7944e-10
5.79482e-10
9.52196e-11
4.93061e-10
3.02963e-11
3.74509e-10
1.81416e-10
-3.12033e-11
2.10783e-10
-9.74479e-11
4.3627e-10
-1.82742e-10
5.74807e-10
-2.82476e-10
6.75792e-10
-3.93947e-10
7.54027e-10
-5.15345e-10
8.18936e-10
-6.45676e-10
8.76372e-10
-7.84441e-10
9.29471e-10
-9.31432e-10
9.80061e-10
-1.08662e-09
1.0294e-09
-1.25013e-09
1.07843e-09
-1.42221e-09
1.12776e-09
-1.60316e-09
1.17771e-09
-1.79329e-09
1.22834e-09
-1.9929e-09
1.2794e-09
-2.20227e-09
1.33023e-09
-2.42166e-09
1.37971e-09
-2.65129e-09
1.42616e-09
-2.8913e-09
1.46717e-09
-3.14169e-09
1.49957e-09
-3.40218e-09
1.5192e-09
-3.67201e-09
1.52089e-09
-3.94963e-09
1.49832e-09
-4.23225e-09
1.44408e-09
-4.51536e-09
1.34975e-09
-4.79216e-09
1.20621e-09
-5.05301e-09
1.004e-09
-5.28506e-09
7.34107e-10
-5.47198e-09
3.88787e-10
-5.59424e-09
-3.71148e-11
-5.62984e-09
-5.44592e-10
-5.55588e-09
-1.12854e-09
-5.35103e-09
-1.77579e-09
-4.99876e-09
-2.46366e-09
-4.49067e-09
-3.16028e-09
-3.82891e-09
-3.82725e-09
-3.02652e-09
-4.42441e-09
-2.10658e-09
-4.91368e-09
-1.10178e-09
-5.26025e-09
-5.37828e-11
-5.43509e-09
9.89851e-10
-5.42107e-09
1.98204e-09
-5.2196e-09
2.88303e-09
-4.85062e-09
3.66373e-09
-4.34552e-09
4.30458e-09
-3.74064e-09
4.7944e-09
-3.07479e-09
5.13285e-09
-2.38854e-09
5.33122e-09
-1.72008e-09
5.40814e-09
-1.09964e-09
5.38336e-09
-5.4651e-10
5.27534e-09
-6.9807e-11
5.10285e-09
3.28671e-10
4.88457e-09
6.52121e-10
4.63649e-09
9.07057e-10
4.37085e-09
1.10166e-09
4.09716e-09
1.24437e-09
3.82329e-09
1.34311e-09
3.55544e-09
1.40508e-09
3.29761e-09
1.43687e-09
3.0514e-09
1.44462e-09
2.8166e-09
1.4339e-09
2.59201e-09
1.40969e-09
2.37632e-09
1.37616e-09
2.16853e-09
1.33665e-09
1.96814e-09
1.29365e-09
1.775e-09
1.24887e-09
1.58923e-09
1.20341e-09
1.411e-09
1.15784e-09
1.24051e-09
1.11234e-09
1.07787e-09
1.0668e-09
9.23232e-10
1.02083e-09
7.76659e-10
9.7385e-10
6.3833e-10
9.24996e-10
5.08518e-10
8.73122e-10
3.87774e-10
8.16416e-10
2.77065e-10
7.51699e-10
1.78201e-10
6.73172e-10
9.40685e-11
5.72023e-10
2.97115e-11
4.33393e-10
2.08963e-10
-3.03169e-11
2.3776e-10
-9.52308e-11
4.94446e-10
-1.79559e-10
6.53314e-10
-2.78699e-10
7.69342e-10
-3.8987e-10
8.59436e-10
-5.11127e-10
9.34115e-10
-6.4135e-10
1.0001e-09
-7.7999e-10
1.06113e-09
-9.2683e-10
1.1194e-09
-1.0819e-09
1.17646e-09
-1.24538e-09
1.23347e-09
-1.41764e-09
1.29127e-09
-1.59911e-09
1.35034e-09
-1.79033e-09
1.41089e-09
-1.99186e-09
1.47271e-09
-2.20436e-09
1.53522e-09
-2.42855e-09
1.59727e-09
-2.66523e-09
1.65709e-09
-2.91526e-09
1.71213e-09
-3.17951e-09
1.75892e-09
-3.45867e-09
1.79292e-09
-3.75303e-09
1.80831e-09
-4.06203e-09
1.79795e-09
-4.3838e-09
1.75327e-09
-4.71444e-09
1.66431e-09
-5.04733e-09
1.5199e-09
-5.37233e-09
1.308e-09
-5.67513e-09
1.01631e-09
-5.93679e-09
6.33156e-10
-6.13358e-09
1.48936e-10
-6.23764e-09
-4.41775e-10
-6.21849e-09
-1.13727e-09
-6.04623e-09
-1.92512e-09
-5.69614e-09
-2.77894e-09
-5.154e-09
-3.65768e-09
-4.41984e-09
-4.50963e-09
-3.50808e-09
-5.28063e-09
-2.44534e-09
-5.92024e-09
-1.27108e-09
-6.3801e-09
-3.88137e-11
-6.61613e-09
1.18761e-09
-6.59992e-09
2.3447e-09
-6.33313e-09
3.38087e-09
-5.8471e-09
4.2608e-09
-5.18799e-09
4.96296e-09
-4.40604e-09
5.47607e-09
-3.55343e-09
5.80226e-09
-2.68512e-09
5.9593e-09
-1.85234e-09
5.97565e-09
-1.09425e-09
5.88112e-09
-4.34098e-10
5.70135e-09
1.19797e-10
5.45937e-09
5.69763e-10
5.17678e-09
9.24382e-10
4.87141e-09
1.19535e-09
4.55608e-09
1.39521e-09
4.24e-09
1.5359e-09
3.93037e-09
1.62806e-09
3.63281e-09
1.68086e-09
3.35087e-09
1.7022e-09
3.08577e-09
1.69894e-09
2.83678e-09
1.67703e-09
2.60206e-09
1.6416e-09
2.37953e-09
1.59696e-09
2.16744e-09
1.54653e-09
1.96457e-09
1.49293e-09
1.77021e-09
1.43797e-09
1.584e-09
1.38285e-09
1.4058e-09
1.32817e-09
1.23556e-09
1.27412e-09
1.07328e-09
1.2205e-09
9.18947e-10
1.16686e-09
7.72625e-10
1.1124e-09
6.34439e-10
1.05608e-09
5.04732e-10
9.9642e-10
3.84096e-10
9.31283e-10
2.73649e-10
8.56897e-10
1.75287e-10
7.66633e-10
9.20175e-11
6.50419e-10
2.88341e-11
4.9143e-10
2.35804e-10
-2.91653e-11
2.63796e-10
-9.22776e-11
5.51326e-10
-1.75101e-10
7.30753e-10
-2.73017e-10
8.62075e-10
-3.83153e-10
9.64219e-10
-5.03413e-10
1.04872e-09
-6.32527e-10
1.12318e-09
-7.69877e-10
1.19202e-09
-9.15256e-10
1.25787e-09
-1.06874e-09
1.32263e-09
-1.23063e-09
1.38775e-09
-1.40138e-09
1.45429e-09
-1.58164e-09
1.52297e-09
-1.77214e-09
1.59414e-09
-1.97377e-09
1.66775e-09
-2.18759e-09
1.74329e-09
-2.41485e-09
1.8197e-09
-2.65703e-09
1.89524e-09
-2.91582e-09
1.96732e-09
-3.19309e-09
2.03237e-09
-3.49071e-09
2.08561e-09
-3.81023e-09
2.12083e-09
-4.15244e-09
2.13024e-09
-4.51677e-09
2.10426e-09
-4.90042e-09
2.03142e-09
-5.29751e-09
1.89834e-09
-5.69805e-09
1.68985e-09
-6.08692e-09
1.38932e-09
-6.44291e-09
9.79411e-10
-6.73806e-09
4.43553e-10
-6.93755e-09
-2.31441e-10
-7.00093e-09
-1.05094e-09
-6.88581e-09
-2.00613e-09
-6.55466e-09
-3.06724e-09
-5.98368e-09
-4.18048e-09
-5.16933e-09
-5.274e-09
-4.12741e-09
-6.27377e-09
-2.88732e-09
-7.11479e-09
-1.49548e-09
-7.73068e-09
-2.17522e-11
-8.05248e-09
1.44447e-09
-8.03114e-09
2.81442e-09
-7.66967e-09
4.02037e-09
-7.02149e-09
5.0199e-09
-6.15652e-09
5.78964e-09
-5.14273e-09
6.319e-09
-4.04857e-09
6.61484e-09
-2.94958e-09
6.70478e-09
-1.9155e-09
6.63117e-09
-9.96538e-10
6.43815e-09
-2.1879e-10
6.16177e-09
4.12697e-10
5.83069e-09
9.07478e-10
5.46925e-09
1.28266e-09
5.09633e-09
1.55759e-09
4.72457e-09
1.75073e-09
4.36214e-09
1.87829e-09
4.01488e-09
1.9539e-09
3.68712e-09
1.98882e-09
3.3814e-09
1.99226e-09
3.09812e-09
1.9718e-09
2.83583e-09
1.93368e-09
2.59196e-09
1.8831e-09
2.3637e-09
1.8243e-09
2.14853e-09
1.76066e-09
1.94454e-09
1.69473e-09
1.75042e-09
1.62834e-09
1.56534e-09
1.56263e-09
1.38876e-09
1.49821e-09
1.22038e-09
1.43518e-09
1.05998e-09
1.37328e-09
9.07433e-10
1.31186e-09
7.62691e-10
1.24996e-09
6.25881e-10
1.18626e-09
4.97321e-10
1.11897e-09
3.7772e-10
1.04547e-09
2.6829e-10
9.61413e-10
1.71098e-10
8.59257e-10
8.9246e-11
7.27747e-10
2.77129e-11
5.48192e-10
2.617e-10
-2.77897e-11
2.88695e-10
-8.88142e-11
6.06649e-10
-1.69834e-10
8.06851e-10
-2.66131e-10
9.53624e-10
-3.74651e-10
1.06783e-09
-4.93174e-10
1.16205e-09
-6.20245e-10
1.24471e-09
-7.55178e-10
1.32102e-09
-8.97782e-10
1.39417e-09
-1.04821e-09
1.46646e-09
-1.20688e-09
1.53964e-09
-1.3744e-09
1.61507e-09
-1.55158e-09
1.69368e-09
-1.73942e-09
1.77604e-09
-1.93913e-09
1.86229e-09
-2.15218e-09
1.9521e-09
-2.3804e-09
2.04456e-09
-2.62598e-09
2.13811e-09
-2.89153e-09
2.23031e-09
-3.18006e-09
2.31771e-09
-3.49474e-09
2.39556e-09
-3.83868e-09
2.45759e-09
-4.21438e-09
2.49568e-09
-4.62305e-09
2.49955e-09
-5.06374e-09
2.45639e-09
-5.53223e-09
2.35055e-09
-6.01982e-09
2.16326e-09
-6.51184e-09
1.87246e-09
-6.98604e-09
1.4531e-09
-7.41081e-09
8.78358e-10
-7.74355e-09
1.2257e-10
-7.93067e-09
-8.32509e-10
-7.91128e-09
-1.98699e-09
-7.62726e-09
-3.30932e-09
-7.03864e-09
-4.72747e-09
-6.13648e-09
-6.13757e-09
-4.9392e-09
-7.43672e-09
-3.47642e-09
-8.54746e-09
-1.7991e-09
-9.38156e-09
6.7408e-16
-9.8272e-09
1.78851e-09
-9.79428e-09
3.43653e-09
-9.28982e-09
4.85571e-09
-8.41233e-09
5.99833e-09
-7.2714e-09
6.84006e-09
-5.95512e-09
7.37087e-09
-4.54773e-09
7.60638e-09
-3.15488e-09
7.59047e-09
-1.87404e-09
7.38602e-09
-7.69532e-10
7.05665e-09
1.3261e-10
6.65243e-09
8.35948e-10
6.20907e-09
1.36235e-09
5.75292e-09
1.7415e-09
5.30232e-09
2.00329e-09
4.8682e-09
2.17378e-09
4.45652e-09
2.27422e-09
4.07089e-09
2.32139e-09
3.71362e-09
2.32851e-09
3.38559e-09
2.30588e-09
3.08595e-09
2.26158e-09
2.81223e-09
2.20199e-09
2.56103e-09
2.13214e-09
2.32876e-09
2.05606e-09
2.11219e-09
1.97686e-09
1.90875e-09
1.89692e-09
1.71655e-09
1.81788e-09
1.53426e-09
1.74078e-09
1.36099e-09
1.66608e-09
1.19609e-09
1.59379e-09
1.03914e-09
1.52349e-09
8.89826e-10
1.45437e-09
7.48019e-10
1.38522e-09
6.13737e-10
1.31444e-09
4.87326e-10
1.23983e-09
3.69517e-10
1.15827e-09
2.61693e-10
1.0647e-09
1.66077e-10
9.50676e-10
8.59833e-11
8.03696e-10
2.63927e-11
6.03411e-10
2.86456e-10
-2.62685e-11
3.12328e-10
-8.51687e-11
6.60366e-10
-1.64396e-10
8.81619e-10
-2.58981e-10
1.0439e-09
-3.655e-10
1.16987e-09
-4.81592e-10
1.2734e-09
-6.05702e-10
1.36376e-09
-7.37068e-10
1.44699e-09
-8.75549e-10
1.52696e-09
-1.0214e-09
1.6064e-09
-1.17517e-09
1.68744e-09
-1.33762e-09
1.7717e-09
-1.50978e-09
1.8604e-09
-1.69286e-09
1.95432e-09
-1.88839e-09
2.05385e-09
-2.09826e-09
2.15891e-09
-2.32484e-09
2.26888e-09
-2.57107e-09
2.38251e-09
-2.84048e-09
2.49775e-09
-3.13726e-09
2.61154e-09
-3.46606e-09
2.71956e-09
-3.83175e-09
2.81591e-09
-4.23894e-09
2.89263e-09
-4.6913e-09
2.93923e-09
-5.19065e-09
2.94199e-09
-5.73583e-09
2.88321e-09
-6.32124e-09
2.74028e-09
-6.9349e-09
2.48483e-09
-7.55589e-09
2.08213e-09
-8.1508e-09
1.49135e-09
-8.6694e-09
6.68125e-10
-9.04125e-09
-4.27761e-10
-9.17795e-09
-1.81541e-09
-8.98736e-09
-3.46683e-09
-8.40166e-09
-5.28441e-09
-7.40456e-09
-7.11083e-09
-6.02247e-09
-8.79855e-09
-4.27832e-09
-1.02727e-08
-2.21805e-09
-1.14237e-08
3.39073e-11
-1.20615e-08
2.26798e-09
-1.20076e-08
4.28293e-09
-1.12784e-08
5.96723e-09
-1.00687e-08
7.27705e-09
-8.55605e-09
8.19063e-09
-6.84557e-09
8.69477e-09
-5.02764e-09
8.8204e-09
-3.25635e-09
8.63948e-09
-1.67289e-09
8.24664e-09
-3.59111e-10
7.73178e-09
6.65399e-10
7.1619e-09
1.4231e-09
6.58013e-09
1.95697e-09
6.01318e-09
2.31494e-09
5.47614e-09
2.54033e-09
4.97574e-09
2.66802e-09
4.51401e-09
2.72452e-09
4.09116e-09
2.72957e-09
3.70671e-09
2.69789e-09
3.35931e-09
2.64046e-09
3.04638e-09
2.56548e-09
2.76419e-09
2.47909e-09
2.50836e-09
2.38592e-09
2.27451e-09
2.28953e-09
2.05874e-09
2.19259e-09
1.85788e-09
2.09707e-09
1.6695e-09
2.00433e-09
1.49185e-09
1.91514e-09
1.32362e-09
1.82979e-09
1.1639e-09
1.7481e-09
1.012e-09
1.66947e-09
8.67437e-10
1.59286e-09
7.29899e-10
1.51685e-09
5.9933e-10
1.43946e-09
4.75982e-10
1.35811e-09
3.60642e-10
1.26903e-09
2.5478e-10
1.16643e-09
1.60884e-10
1.04076e-09
8.25505e-11
8.78274e-10
2.49735e-11
6.57024e-10
3.09971e-10
-2.47608e-11
3.34709e-10
-8.19073e-11
7.12777e-10
-1.59755e-10
9.55431e-10
-2.52876e-10
1.13313e-09
-3.5724e-10
1.27018e-09
-4.70246e-10
1.3821e-09
-5.90389e-10
1.4793e-09
-7.16952e-10
1.56866e-09
-8.49874e-10
1.65473e-09
-9.89556e-10
1.74079e-09
-1.13669e-09
1.8293e-09
-1.29222e-09
1.92219e-09
-1.45731e-09
2.02091e-09
-1.63342e-09
2.12652e-09
-1.82233e-09
2.23968e-09
-2.02631e-09
2.36063e-09
-2.2482e-09
2.48917e-09
-2.4916e-09
2.62452e-09
-2.76094e-09
2.76527e-09
-3.06156e-09
2.90911e-09
-3.39962e-09
3.05259e-09
-3.78195e-09
3.19075e-09
-4.21567e-09
3.31649e-09
-4.70764e-09
3.41985e-09
-5.26369e-09
3.48698e-09
-5.88755e-09
3.49879e-09
-6.57932e-09
3.4293e-09
-7.33314e-09
3.24365e-09
-8.13353e-09
2.89619e-09
-8.94952e-09
2.3288e-09
-9.72572e-09
1.4709e-09
-1.03719e-08
2.46431e-10
-1.07597e-08
-1.40182e-09
-1.07408e-08
-3.46425e-09
-1.01968e-08
-5.81154e-09
-9.10063e-09
-8.19316e-09
-7.5027e-09
-1.03826e-08
-5.40379e-09
-1.23542e-08
-2.81754e-09
-1.39909e-08
9.07446e-11
-1.49543e-08
2.96495e-09
-1.48664e-08
5.47184e-09
-1.3763e-08
7.48153e-09
-1.20538e-08
8.97958e-09
-1.00343e-08
9.95556e-09
-7.80737e-09
1.03809e-08
-5.43773e-09
1.03137e-08
-3.16956e-09
9.87648e-09
-1.21735e-09
9.21316e-09
3.20374e-10
8.44926e-09
1.44572e-09
7.66971e-09
2.21862e-09
6.92232e-09
2.71733e-09
6.23009e-09
3.01568e-09
5.60073e-09
3.17302e-09
5.03339e-09
3.23296e-09
4.52389e-09
3.22618e-09
4.06765e-09
3.17421e-09
3.66056e-09
3.0923e-09
3.29849e-09
2.99134e-09
2.97679e-09
2.87905e-09
2.69023e-09
2.76089e-09
2.43337e-09
2.64073e-09
2.20106e-09
2.52136e-09
1.9888e-09
2.4048e-09
1.7929e-09
2.29245e-09
1.61049e-09
2.1852e-09
1.43942e-09
2.08348e-09
1.27808e-09
1.98728e-09
1.12526e-09
1.8962e-09
9.8007e-10
1.80942e-09
8.41784e-10
1.72572e-09
7.09938e-10
1.64337e-09
5.84273e-10
1.56011e-09
4.64947e-10
1.47283e-09
3.52645e-10
1.37717e-09
2.48937e-10
1.26638e-09
1.56532e-10
1.12971e-09
7.95333e-11
9.51878e-10
2.36191e-11
7.09364e-10
3.32282e-10
-2.35907e-11
3.56163e-10
-8.00775e-11
7.64804e-10
-1.57549e-10
1.02915e-09
-2.49722e-10
1.22169e-09
-3.51902e-10
1.36859e-09
-4.61184e-10
1.48738e-09
-5.76238e-10
1.59008e-09
-6.96604e-10
1.68449e-09
-8.22436e-10
1.77583e-09
-9.54307e-10
1.86783e-09
-1.09308e-09
1.96331e-09
-1.23983e-09
2.06444e-09
-1.39587e-09
2.17293e-09
-1.56279e-09
2.29008e-09
-1.74258e-09
2.41686e-09
-1.93775e-09
2.55389e-09
-2.15153e-09
2.70147e-09
-2.38801e-09
2.85952e-09
-2.65237e-09
3.02746e-09
-2.95093e-09
3.20414e-09
-3.29132e-09
3.3875e-09
-3.68238e-09
3.57416e-09
-4.13406e-09
3.75879e-09
-4.65719e-09
3.93305e-09
-5.26294e-09
4.08421e-09
-5.96218e-09
4.19327e-09
-6.7641e-09
4.23234e-09
-7.67371e-09
4.16145e-09
-8.68747e-09
3.92478e-09
-9.785e-09
3.44574e-09
-1.09137e-08
2.6204e-09
-1.19655e-08
1.31735e-09
-1.27582e-08
-5.93181e-10
-1.30509e-08
-3.15853e-09
-1.26278e-08
-6.22236e-09
-1.14437e-08
-9.36341e-09
-9.60768e-09
-1.22011e-08
-7.05692e-09
-1.48803e-08
-3.72434e-09
-1.72968e-08
1.83459e-10
-1.88467e-08
4.02548e-09
-1.87034e-08
7.21224e-09
-1.69396e-08
9.62346e-09
-1.44493e-08
1.13175e-08
-1.17172e-08
1.2324e-08
-8.81026e-09
1.25708e-08
-5.67823e-09
1.21657e-08
-2.74545e-09
1.1327e-08
-3.56047e-10
1.02756e-08
1.39149e-09
9.18111e-09
2.55797e-09
8.14299e-09
3.27208e-09
7.20513e-09
3.66707e-09
6.37825e-09
3.8507e-09
5.65612e-09
3.89909e-09
5.02608e-09
3.86196e-09
4.47517e-09
3.77099e-09
3.99268e-09
3.64692e-09
3.57011e-09
3.50382e-09
3.20009e-09
3.35134e-09
2.87566e-09
3.19595e-09
2.58999e-09
3.04188e-09
2.33656e-09
2.89181e-09
2.10953e-09
2.74749e-09
1.90388e-09
2.61001e-09
1.71557e-09
2.48002e-09
1.54138e-09
2.35784e-09
1.3789e-09
2.24342e-09
1.22627e-09
2.13641e-09
1.08209e-09
2.03612e-09
9.45226e-10
1.94154e-09
8.14799e-10
1.85121e-09