/*--------------------------------*- C++ -*----------------------------------*\
| =========                 |                                                 |
| \\      /  F ield         | OpenFOAM: The Open Source CFD Toolbox           |
|  \\    /   O peration     | Version:  2412                                  |
|   \\  /    A nd           | Website:  www.openfoam.com                      |
|    \\/     M anipulation  |                                                 |
\*---------------------------------------------------------------------------*/
FoamFile
{
    version     2.0;
    format      ascii;
    arch        "LSB;label=32;scalar=64";
    class       volScalarField;
    location    "70";
    object      alpha.lava;
}
// * * * * * * * * * * * * * * * * * * * * * * * * * * * * * * * * * * * * * //

dimensions      [0 0 0 0 0 0 0];

internalField   nonuniform List<scalar> 
6400
(
0.997506
0.988872
0.98493
0.984054
0.985204
0.985338
0.984981
0.984173
0.983946
0.983945
0.983606
0.982801
0.982032
0.980902
0.979631
0.979001
0.97797
0.976866
0.976395
0.974244
0.973098
0.971168
0.970373
0.970374
0.97077
0.969534
0.964046
0.963961
0.963961
0.963961
0.966085
0.968682
0.968683
0.962499
0.957505
0.964416
0.965167
0.965167
0.959127
0.964972
0.965864
0.965864
0.965833
0.965344
0.966556
0.96697
0.967009
0.967267
0.967752
0.968169
0.968482
0.968891
0.969297
0.969407
0.969407
0.969282
0.969222
0.971089
0.971181
0.971181
0.971175
0.971124
0.969485
0.967733
0.968022
0.970708
0.970545
0.970003
0.970003
0.97008
0.970174
0.970487
0.970874
0.97125
0.971519
0.972094
0.974531
0.978872
0.98681
0.999989
1.00294
0.994625
0.988985
0.984414
0.983701
0.984654
0.984359
0.983562
0.982603
0.982931
0.983777
0.982771
0.981235
0.980657
0.977914
0.977914
0.978029
0.980542
0.980301
0.972855
0.971328
0.971322
0.973758
0.978476
0.970901
0.964333
0.964055
0.96413
0.963961
0.963961
0.967327
0.968683
0.968683
0.968683
0.960882
0.951983
0.965008
0.960753
0.952209
0.962169
0.965864
0.963727
0.954714
0.962038
0.966293
0.962834
0.961467
0.962899
0.963804
0.964361
0.964595
0.964654
0.96548
0.966718
0.964451
0.964274
0.96568
0.971076
0.971181
0.971181
0.971064
0.968862
0.967292
0.967731
0.969368
0.975369
0.970276
0.970003
0.9707
0.974682
0.975306
0.975863
0.976739
0.977514
0.979058
0.981525
0.984662
0.989739
0.998236
1.01151
1.00485
0.996518
0.990753
0.986709
0.984369
0.983144
0.982532
0.982448
0.981749
0.980923
0.98298
0.982979
0.981309
0.978179
0.977914
0.979158
0.980648
0.980641
0.980572
0.972134
0.971343
0.972439
0.978578
0.978568
0.969065
0.964136
0.964123
0.974291
0.971562
0.963961
0.967267
0.968682
0.968683
0.968682
0.962669
0.951953
0.951952
0.951952
0.951953
0.965246
0.965861
0.956894
0.954643
0.954764
0.958618
0.959781
0.957556
0.958271
0.961135
0.960657
0.959209
0.960879
0.962539
0.961046
0.960261
0.965811
0.965821
0.965264
0.965914
0.965103
0.962435
0.962435
0.967277
0.971212
0.97439
0.975369
0.975128
0.973229
0.977387
0.979788
0.980872
0.981587
0.982066
0.983325
0.985743
0.989091
0.993247
0.998718
1.00536
1.01713
1.00594
0.99721
0.990771
0.986119
0.983967
0.982605
0.981822
0.980295
0.978654
0.9811
0.982979
0.980665
0.976471
0.977364
0.9807
0.980701
0.980687
0.980572
0.975399
0.972149
0.975494
0.978603
0.978595
0.978578
0.978453
0.965618
0.965525
0.974307
0.974307
0.969735
0.965657
0.965657
0.967136
0.968682
0.966611
0.951952
0.951952
0.951952
0.959219
0.965242
0.963234
0.963214
0.959226
0.942925
0.942921
0.942917
0.949741
0.951028
0.947603
0.953017
0.956815
0.958458
0.957706
0.947008
0.96026
0.965635
0.959936
0.950339
0.950321
0.95083
0.963525
0.967279
0.975089
0.976715
0.973105
0.973755
0.980979
0.980587
0.980154
0.982982
0.985014
0.986405
0.987434
0.98858
0.990477
0.993451
0.99777
1.00198
1.00996
1.01889
1.00689
0.997387
0.989375
0.985104
0.98206
0.980468
0.979713
0.97859
0.977451
0.979776
0.981213
0.976457
0.976462
0.980264
0.9807
0.980701
0.975707
0.975135
0.976258
0.978764
0.978761
0.978751
0.978001
0.978299
0.978431
0.978404
0.973031
0.973035
0.974305
0.974301
0.966289
0.965657
0.966343
0.968675
0.968645
0.968091
0.968077
0.964034
0.960753
0.943845
0.943019
0.956202
0.959244
0.954456
0.942917
0.942917
0.942917
0.942917
0.942917
0.942917
0.948647
0.943105
0.943177
0.943189
0.943202
0.949972
0.950681
0.950256
0.950284
0.958911
0.969835
0.967274
0.96756
0.97675
0.979911
0.974886
0.980982
0.984789
0.984531
0.985681
0.987873
0.989714
0.991276
0.992707
0.994359
0.997054
1.00006
1.00507
1.01225
1.01915
1.00755
0.996897
0.987366
0.983201
0.979721
0.977793
0.97692
0.976401
0.975595
0.976296
0.973997
0.971288
0.980164
0.9807
0.9807
0.97518
0.974346
0.975128
0.978766
0.978766
0.978765
0.977595
0.972314
0.975869
0.978404
0.978403
0.978402
0.978402
0.966397
0.973182
0.973275
0.973276
0.973276
0.964883
0.968171
0.968141
0.956019
0.943288
0.943248
0.942993
0.943005
0.955137
0.955054
0.942917
0.942917
0.942917
0.942917
0.942917
0.942916
0.942916
0.942917
0.94292
0.942921
0.951458
0.957539
0.949974
0.949979
0.950241
0.950306
0.960554
0.971822
0.975756
0.967582
0.97369
0.981607
0.982818
0.981168
0.984959
0.987741
0.989656
0.991292
0.992592
0.994064
0.995529
0.997547
0.999822
1.0024
1.00728
1.01297
1.01855
1.00819
0.996534
0.98669
0.9804
0.977019
0.974892
0.973988
0.973722
0.972559
0.97124
0.971245
0.97128
0.980693
0.9807
0.977271
0.967081
0.975026
0.978772
0.978769
0.976562
0.972313
0.972313
0.972313
0.974661
0.978402
0.978402
0.978402
0.977989
0.962668
0.970071
0.973277
0.973277
0.973277
0.957202
0.949968
0.967491
0.943215
0.94294
0.942925
0.942983
0.943101
0.942978
0.942917
0.942917
0.942917
0.942917
0.942917
0.942916
0.942916
0.942916
0.942916
0.942917
0.944265
0.961481
0.961488
0.950042
0.949979
0.950543
0.964926
0.960932
0.961298
0.975784
0.980025
0.976863
0.98056
0.985247
0.986078
0.987155
0.990237
0.992965
0.994908
0.99612
0.997
0.998347
0.999839
1.00156
1.00477
1.00844
1.01296
1.01741
1.00848
0.995117
0.985286
0.977787
0.97409
0.971695
0.970662
0.970462
0.96811
0.965105
0.974084
0.975888
0.97591
0.969339
0.967082
0.967082
0.977983
0.978772
0.975273
0.972321
0.972317
0.974356
0.976307
0.976304
0.973198
0.977778
0.978402
0.978399
0.963872
0.957809
0.973152
0.973277
0.964229
0.949968
0.949967
0.951443
0.954322
0.943416
0.942919
0.942918
0.942918
0.942917
0.942917
0.942917
0.943184
0.94383
0.943616
0.942925
0.943003
0.943554
0.942917
0.942918
0.943336
0.952499
0.961488
0.960571
0.94998
0.94998
0.965249
0.97796
0.967332
0.96808
0.981522
0.984495
0.984812
0.986928
0.989162
0.991194
0.993695
0.995927
0.997792
0.999246
0.999866
1.00054
1.00179
1.00393
1.00651
1.00916
1.01309
1.01636
1.00909
0.994832
0.982632
0.975078
0.971159
0.967355
0.962165
0.960295
0.958109
0.965126
0.974078
0.972819
0.967183
0.967088
0.967084
0.97037
0.978761
0.978772
0.978761
0.972408
0.976306
0.976311
0.976311
0.976309
0.957339
0.957084
0.976992
0.978399
0.95841
0.957807
0.957807
0.971314
0.949968
0.949967
0.949967
0.949967
0.961909
0.953174
0.942922
0.942918
0.942917
0.942917
0.942917
0.943366
0.943832
0.943832
0.943832
0.943832
0.943831
0.943829
0.94293
0.942919
0.942923
0.943294
0.960752
0.964814
0.962815
0.950179
0.951233
0.978263
0.982522
0.975129
0.979663
0.986922
0.98914
0.990447
0.992656
0.995146
0.997305
0.999032
1.00002
1.00091
1.00199
1.00308
1.00449
1.00608
1.00797
1.01023
1.01336
1.01537
1.00885
0.994247
0.979968
0.971789
0.966419
0.953591
0.950821
0.950821
0.950822
0.953533
0.957317
0.950821
0.9639
0.973409
0.973411
0.973411
0.969615
0.966302
0.975197
0.976279
0.976295
0.976292
0.973366
0.957063
0.957074
0.957084
0.970014
0.959993
0.957818
0.957807
0.957807
0.957807
0.977356
0.953344
0.949967
0.957379
0.9768
0.968312
0.942936
0.942922
0.948961
0.943318
0.942917
0.942919
0.942928
0.942973
0.943079
0.943135
0.943013
0.942945
0.942929
0.942923
0.942933
0.942964
0.943689
0.964837
0.971782
0.971792
0.951251
0.968729
0.983107
0.985408
0.983906
0.988353
0.991706
0.993758
0.99611
0.998516
0.999821
1.00078
1.00214
1.00337
1.00455
1.00579
1.00693
1.008
1.00953
1.01142
1.0132
1.01361
1.00897
0.992717
0.978687
0.969763
0.951743
0.950821
0.950821
0.950821
0.950821
0.950821
0.950821
0.95082
0.950818
0.967843
0.973411
0.964207
0.950764
0.950768
0.952681
0.975295
0.965579
0.950896
0.950952
0.950969
0.968135
0.966399
0.959657
0.959665
0.97895
0.982616
0.958057
0.957807
0.979522
0.98039
0.971516
0.978595
0.977756
0.963674
0.949459
0.951761
0.970572
0.970367
0.949441
0.942921
0.942936
0.942987
0.943127
0.943157
0.943065
0.942957
0.942933
0.951842
0.952641
0.943413
0.94345
0.943554
0.965617
0.975332
0.974902
0.968638
0.977659
0.987274
0.989461
0.991773
0.995024
0.997714
0.99947
1.00033
1.00163
1.0032
1.00493
1.00638
1.00752
1.00858
1.00938
1.01008
1.0113
1.01215
1.0126
1.01133
1.00938
0.992289
0.97799
0.959021
0.950821
0.950821
0.950821
0.950821
0.950821
0.950821
0.95082
0.950818
0.950816
0.950812
0.950818
0.950764
0.950764
0.950764
0.950769
0.950785
0.950806
0.950837
0.955582
0.974262
0.986162
0.986588
0.977961
0.976994
0.980192
0.986873
0.985329
0.983188
0.980923
0.980374
0.981114
0.980592
0.974952
0.974515
0.976285
0.97681
0.978011
0.975983
0.971472
0.962789
0.95514
0.950975
0.953891
0.958627
0.951021
0.948278
0.95457
0.963817
0.968486
0.965146
0.956046
0.95412
0.956573
0.972601
0.985005
0.981763
0.983093
0.989221
0.993188
0.996097
0.998955
1.00003
1.0012
1.00284
1.00467
1.00645
1.00826
1.00961
1.01064
1.01129
1.01182
1.0122
1.01282
1.01234
1.01156
1.00955
1.00849
0.992738
0.975964
0.950887
0.950822
0.950821
0.950821
0.950821
0.95082
0.950822
0.950821
0.95082
0.950818
0.950816
0.950796
0.950764
0.950872
0.954286
0.959489
0.961281
0.969001
0.98547
0.991569
0.989243
0.986038
0.988848
0.99298
0.99263
0.991022
0.990098
0.990396
0.990485
0.989627
0.987997
0.987892
0.987307
0.986437
0.986866
0.987278
0.987203
0.986167
0.984704
0.98413
0.982602
0.980064
0.977939
0.978278
0.978907
0.977046
0.976324
0.977391
0.977921
0.978426
0.980773
0.981448
0.981239
0.97905
0.980515
0.987972
0.991361
0.993092
0.995771
0.998322
0.99969
1.00084
1.00268
1.00476
1.00661
1.00826
1.01
1.01166
1.0127
1.01339
1.01366
1.01398
1.01401
1.01371
1.01243
1.01047
1.00792
1.00771
0.994235
0.977836
0.97362
0.958366
0.951667
0.951461
0.951396
0.951413
0.951614
0.95233
0.955311
0.959945
0.961831
0.966939
0.982076
0.993708
0.997213
0.997865
0.998621
0.998218
0.996865
0.997041
0.998402
0.998846
0.99892
0.998987
0.999242
0.999161
0.998856
0.998585
0.998348
0.997941
0.997601
0.997501
0.997538
0.997693
0.997607
0.997459
0.997354
0.997089
0.996685
0.996055
0.995065
0.99398
0.993206
0.992728
0.992375
0.992667
0.99232
0.991421
0.991318
0.991308
0.992629
0.99487
0.996746
0.997526
0.997095
0.997738
0.999128
0.999463
0.999632
1.00067
1.00289
1.00524
1.00736
1.00922
1.01076
1.01213
1.01358
1.01487
1.01537
1.01574
1.01575
1.01597
1.01553
1.01446
1.01267
1.01003
1.00623
1.00801
0.99958
0.995489
0.996092
0.997185
0.994694
0.99166
0.990259
0.992134
0.99462
0.997636
1.00008
1.00044
1.0009
1.00122
1.00131
1.00136
1.00149
1.00171
1.00195
1.00221
1.00245
1.0027
1.00297
1.00321
1.00335
1.00338
1.00341
1.00341
1.00326
1.00289
1.00231
1.00161
1.00109
1.00072
1.00042
1.00017
1.00008
0.999894
0.999554
0.999217
0.99908
0.999005
0.998955
0.998926
0.998896
0.998853
0.99881
0.998818
0.998814
0.998801
0.99884
0.998905
0.99899
0.999117
0.999231
0.9994
1
1.00093
1.00226
1.00332
1.00461
1.00655
1.00883
1.01089
1.01256
1.01394
1.01505
1.01595
1.01695
1.01759
1.01759
1.01775
1.01767
1.01766
1.01667
1.01536
1.01277
1.00972
1.00514
1.00877
1.00535
1.00492
1.00496
1.0049
1.00506
1.00488
1.00498
1.00517
1.00536
1.00564
1.00597
1.00644
1.00705
1.00763
1.00812
1.00855
1.00891
1.00922
1.00956
1.00988
1.01019
1.01051
1.01086
1.01131
1.01176
1.01216
1.01247
1.01265
1.01267
1.01247
1.01205
1.01144
1.01082
1.01014
1.00941
1.00864
1.00781
1.007
1.0062
1.0053
1.00432
1.00351
1.00296
1.00257
1.00229
1.0021
1.00199
1.00191
1.00185
1.00184
1.00198
1.0023
1.00277
1.00329
1.00391
1.00488
1.00628
1.00795
1.00949
1.01087
1.01241
1.0142
1.0159
1.01724
1.0182
1.01896
1.01935
1.0195
1.01974
1.01964
1.01917
1.01917
1.01887
1.01854
1.01714
1.01586
1.01295
1.00895
1.00462
1.01126
1.01527
1.01653
1.01634
1.01622
1.01587
1.01542
1.01517
1.01508
1.01508
1.01521
1.01548
1.01584
1.01624
1.01664
1.01702
1.0174
1.0178
1.01825
1.01873
1.01922
1.01975
1.02037
1.02109
1.02188
1.02267
1.02342
1.02407
1.02457
1.02488
1.02494
1.02473
1.02425
1.02356
1.02269
1.02172
1.02068
1.01959
1.01847
1.01728
1.01601
1.01463
1.01331
1.0122
1.01135
1.01075
1.01039
1.01016
1.00998
1.00984
1.00983
1.0101
1.01074
1.01165
1.01263
1.01365
1.01484
1.01635
1.01807
1.01958
1.02074
1.02181
1.0229
1.02381
1.02404
1.02378
1.02318
1.02218
1.02104
1.02019
1.01913
1.01814
1.01781
1.01724
1.01702
1.01609
1.01493
1.01284
1.00866
1.00416
1.01687
1.0243
1.02557
1.02424
1.02279
1.02123
1.02
1.01915
1.01863
1.01835
1.0182
1.01812
1.01803
1.01798
1.01797
1.01801
1.01811
1.0183
1.01858
1.01897
1.01948
1.02015
1.02103
1.02213
1.02344
1.02499
1.0268
1.02885
1.03104
1.03303
1.03469
1.03594
1.03672
1.03654
1.0358
1.03481
1.03372
1.03256
1.03134
1.03004
1.02864
1.02715
1.02568
1.02437
1.02333
1.02262
1.02217
1.02188
1.02162
1.02142
1.0214
1.02178
1.02257
1.02358
1.02449
1.02526
1.02615
1.02734
1.02862
1.0294
1.02951
1.02943
1.02946
1.02932
1.02732
1.0237
1.02055
1.01763
1.01502
1.01256
1.00996
1.00791
1.00711
1.00683
1.00793
1.00928
1.00974
1.00941
1.00736
1.00421
1.01341
1.00659
1
1
1
1
1
1
1
1
1
1
1
1
1
1
1
1
1
1
1
1
1
1
1
1
1
1.0007
1.00824
1.01625
1.02367
1.02995
1.03445
1.03638
1.037
1.03714
1.03707
1.03685
1.03649
1.03595
1.03522
1.03432
1.03335
1.03244
1.03171
1.03122
1.03089
1.0306
1.03026
1.02994
1.02974
1.02985
1.03009
1.03022
1.02984
1.0291
1.02877
1.02859
1.02791
1.02701
1.02558
1.02409
1.02262
1.02041
1.00962
1.00186
1
0.999957
0.998511
0.991793
0.982623
0.975128
0.97192
0.973632
0.980472
0.990105
0.998706
0.999975
1
1
0.918674
0.874119
0.83921
0.795797
0.756926
0.728136
0.710427
0.702604
0.702248
0.706225
0.712357
0.719172
0.725552
0.730571
0.733988
0.735627
0.736322
0.736853
0.737509
0.739198
0.742914
0.749522
0.759716
0.774123
0.793157
0.816842
0.844906
0.875829
0.902267
0.92958
0.957181
0.98389
1
1.00192
1.00697
1.01106
1.01436
1.01719
1.01954
1.02141
1.02281
1.0238
1.02449
1.02495
1.0253
1.02557
1.02575
1.02573
1.02551
1.02511
1.02464
1.02421
1.02344
1.02218
1.02047
1.01844
1.0167
1.01477
1.01209
1.0091
1.00561
1.00181
0.990458
0.939264
0.876005
0.796514
0.696755
0.587353
0.490415
0.417742
0.366094
0.333219
0.320849
0.326883
0.355564
0.408914
0.488761
0.593906
0.709468
0.830017
0.0868756
0.0842652
0.0699586
0.0488501
0.0319787
0.0217541
0.0166097
0.0151001
0.0158353
0.0185877
0.0225345
0.0266063
0.0302583
0.033095
0.0350203
0.0360113
0.0364185
0.0366969
0.0369046
0.0374672
0.0388723
0.0414979
0.0458073
0.0523485
0.0618487
0.0751923
0.0932882
0.11745
0.149009
0.189517
0.2408
0.304415
0.389493
0.495208
0.598672
0.693788
0.777451
0.848152
0.905701
0.950845
0.985344
1.00029
1.00351
1.00452
1.00588
1.00674
1.00743
1.00758
1.00753
1.00694
1.00597
1.00496
1.00266
1.00068
0.982612
0.945135
0.893987
0.826291
0.739861
0.632183
0.504061
0.361064
0.225896
0.133526
0.0663105
0.0215006
0.00256911
3.56184e-09
1.64126e-09
1.5656e-09
1.37428e-09
1.2327e-09
1.08638e-09
8.91677e-10
6.15642e-10
4.27793e-10
2.15615e-10
1.82794e-12
1.90516e-12
0.000196461
9.24972e-08
8.55587e-08
7.61435e-08
6.60355e-08
5.55247e-08
4.46895e-08
3.39087e-08
2.39005e-08
1.68324e-08
1.35992e-08
1.20818e-08
9.13919e-09
4.18432e-09
1.52986e-09
1.36052e-09
1.3448e-09
1.32126e-09
1.29853e-09
1.28276e-09
1.2692e-09
1.28276e-09
1.31483e-09
1.41662e-09
1.55035e-09
1.64626e-09
1.74842e-09
1.93307e-09
2.27967e-09
3.10235e-09
5.45703e-09
1.17964e-08
2.40644e-08
4.08401e-08
0.00228953
0.0142729
0.0377608
0.0737716
0.121924
0.180437
0.246461
0.31649
0.396441
0.475429
0.540902
0.59054
0.625583
0.646479
0.653071
0.64752
0.628281
0.594396
0.544871
0.479785
0.397065
0.315141
0.240818
0.169578
0.106681
0.0566563
0.0217884
0.0034484
6.96952e-07
2.16606e-07
5.05802e-08
3.31988e-08
1.33212e-08
1.31848e-08
1.33493e-08
4.03413e-08
1.68247e-08
1.91633e-07
9.49541e-08
5.5745e-09
1.47755e-09
1.29629e-09
1.83839e-09
1.77233e-09
1.82322e-12
1.82786e-12
1.90516e-12
3.14429e-07
1.71267e-06
3.31712e-06
3.53592e-06
3.75436e-06
3.75582e-06
3.75195e-06
3.29022e-06
2.43261e-06
1.03812e-06
4.64519e-07
6.27141e-07
1.36539e-06
9.38373e-07
5.23169e-08
1.36052e-09
4.57682e-09
4.60921e-09
2.78372e-09
1.26112e-09
9.86792e-09
3.72552e-08
4.36465e-08
3.13081e-08
4.30091e-08
9.17143e-08
2.08433e-07
4.76812e-07
9.52226e-07
2.72973e-06
7.53814e-06
4.70667e-06
1.86163e-06
3.51598e-08
2.23137e-08
9.9482e-08
3.03874e-07
7.24983e-07
1.45201e-06
2.55298e-06
4.05264e-06
6.94698e-06
0.00201729
0.00705794
0.0137255
0.0202991
0.025068
0.0267824
0.0253753
0.0210022
0.0145474
0.00760773
0.00234093
7.61945e-06
5.1686e-06
3.35708e-06
1.94687e-06
9.77716e-07
4.05328e-07
1.20552e-07
1.64931e-08
1.62782e-09
2.00108e-09
2.01669e-09
5.83287e-07
4.53487e-08
1.30907e-08
3.96405e-08
4.19248e-08
1.66976e-08
1.02212e-08
5.12939e-09
1.27648e-08
1.51436e-09
1.30062e-09
1.87686e-09
1.90522e-09
1.81679e-12
3.43714e-11
2.00113e-08
2.32441e-13
2.3259e-13
2.32441e-13
2.33638e-13
2.57645e-13
8.19077e-13
4.81516e-13
2.9611e-13
2.97936e-13
4.87942e-08
3.56282e-13
1.01369e-06
1.63065e-06
1.42692e-06
8.87526e-08
2.48215e-09
6.54689e-09
6.8393e-09
3.40512e-09
3.82928e-10
1.68531e-08
6.50576e-08
6.58288e-08
2.90238e-08
4.74642e-11
9.42168e-16
0
-2.95256e-17
5.26083e-09
3.66701e-08
1.41686e-07
2.45601e-07
1.17772e-07
3.24284e-08
1.114e-09
1.28855e-09
4.17694e-09
1.27403e-08
2.79843e-08
5.17577e-08
8.72008e-08
1.1329e-07
8.06834e-08
1.92331e-07
3.56656e-07
5.34732e-07
6.76055e-07
7.36872e-07
7.06219e-07
5.88469e-07
4.14685e-07
2.3524e-07
1.07411e-07
1.60044e-07
1.07482e-07
6.10089e-08
2.77833e-08
1.15417e-08
7.9158e-09
3.95064e-09
1.90121e-10
5.43396e-12
1.52296e-09
1.9055e-09
4.64175e-09
5.18264e-10
3.63019e-11
2.2636e-11
9.17371e-11
1.66927e-11
5.50717e-15
7.06099e-12
3.1928e-10
8.30754e-10
9.45132e-10
5.53564e-15
1.35871e-14
1.36587e-14
4.77969e-10
9.10259e-09
2.05032e-12
2.4042e-13
6.95594e-13
3.74185e-13
1.11837e-10
5.23936e-10
4.29513e-10
7.36491e-11
8.04188e-13
2.69928e-13
2.69145e-13
2.94085e-13
7.95192e-08
4.09841e-17
2.92641e-09
3.72973e-09
4.9396e-09
2.82739e-09
1.0101e-09
3.82026e-10
1.7424e-15
6.05441e-16
6.89476e-12
6.04158e-16
6.52141e-16
8.19521e-15
1.22128e-14
-1.05893e-14
-3.1854e-13
2.61603e-31
1.43415e-15
6.355e-09
1.56523e-09
9.19696e-10
1.02615e-09
7.08194e-10
2.20291e-09
7.36235e-09
1.58137e-08
2.79997e-08
4.58669e-08
6.63773e-08
3.91002e-09
7.04072e-09
1.22612e-08
1.73806e-08
2.09567e-08
2.25971e-08
2.19337e-08
1.87264e-08
1.36023e-08
8.03505e-09
5.39034e-09
7.43989e-08
5.79305e-08
3.39446e-08
1.51288e-08
6.97892e-09
6.97265e-09
4.23497e-09
2.40048e-10
1.34071e-13
1.84466e-12
9.84947e-12
1.42239e-13
8.30483e-11
5.59013e-12
2.98892e-13
1.60433e-13
1.61527e-13
5.50365e-15
4.02383e-16
9.67529e-15
5.78382e-12
5.77939e-13
5.53564e-15
1.32483e-14
8.65325e-14
8.65398e-14
9.02676e-14
1.99054e-12
2.17299e-13
8.92815e-14
2.86215e-13
4.05657e-11
2.59876e-11
2.49307e-12
4.3273e-13
1.24781e-15
7.26389e-13
3.0293e-11
3.41989e-12
3.80657e-19
6.69097e-18
8.16389e-18
8.07245e-18
8.16595e-18
9.97805e-15
2.00606e-14
6.50968e-12
1.63991e-15
6.02128e-16
6.02115e-16
6.02115e-16
8.67953e-16
1.3385e-14
3.66003e-14
2.62543e-14
5.10326e-16
1.54784e-12
5.81468e-11
2.88139e-16
3.67269e-15
5.22306e-15
7.88211e-12
7.78619e-12
1.51012e-11
8.18587e-11
2.49025e-10
5.44809e-10
1.02395e-09
1.7664e-09
2.97227e-09
4.73021e-09
7.93619e-09
1.06849e-08
1.23486e-08
1.31687e-08
1.29533e-08
1.16207e-08
9.03328e-09
5.81985e-09
4.49794e-09
3.13003e-09
2.403e-09
1.2291e-09
1.90404e-10
4.26389e-12
1.01914e-11
5.0951e-11
1.12991e-11
1.69487e-13
1.96032e-15
3.02687e-14
1.40895e-13
5.7155e-13
1.74319e-13
2.07228e-13
1.60443e-13
2.86139e-14
1.60079e-14
4.2548e-16
3.47899e-16
1.52341e-14
9.56989e-14
6.4791e-14
2.29205e-14
2.16139e-13
1.83508e-12
3.11148e-12
3.96316e-12
3.5826e-13
7.73744e-14
1.51857e-13
9.11495e-13
2.89999e-15
1.92673e-18
1.87583e-18
4.01859e-16
1.0102e-13
1.662e-12
3.79703e-15
2.91805e-19
3.64539e-17
7.87321e-16
7.97468e-18
8.21926e-18
1.96905e-14
1.40225e-13
3.78844e-13
6.61116e-14
2.30526e-15
7.05261e-16
1.60402e-15
1.75447e-15
1.09135e-15
4.89321e-16
3.9674e-16
1.00781e-16
3.32671e-17
2.2604e-17
2.30129e-16
8.63246e-17
2.63377e-15
7.05515e-14
4.74324e-14
1.90551e-13
9.04424e-13
2.47145e-12
4.69892e-12
7.82512e-12
1.60948e-11
5.25134e-11
1.13718e-10
2.21411e-10
3.12056e-10
3.92074e-10
4.46576e-10
4.45618e-10
4.07425e-10
3.21682e-10
1.87376e-10
1.0758e-10
6.65264e-11
6.97633e-11
5.90786e-11
7.21067e-12
6.89063e-14
5.93043e-14
1.16578e-14
6.48525e-14
2.36786e-14
1.84344e-15
8.4693e-15
1.81908e-14
3.41668e-14
7.66091e-14
8.17983e-14
5.81427e-14
1.82488e-14
2.90536e-15
1.88583e-16
3.47765e-16
1.24679e-14
6.99109e-14
5.51249e-14
1.4824e-14
5.87224e-16
3.31507e-14
7.71318e-13
5.03036e-12
2.03074e-12
1.1784e-13
9.6386e-15
1.20305e-16
3.90045e-18
1.27623e-17
1.85809e-18
2.15372e-17
2.00836e-16
4.01919e-16
3.48112e-17
2.8974e-19
1.46691e-18
5.44907e-18
7.92283e-18
2.39856e-17
1.26952e-16
1.1517e-15
2.87679e-15
2.69418e-15
7.27276e-16
4.47518e-16
1.2022e-15
1.40249e-15
1.10074e-15
6.24597e-16
6.69615e-16
3.87022e-16
3.869e-17
1.45806e-17
6.27814e-17
7.91725e-17
1.39069e-15
1.98626e-16
6.86762e-16
3.02521e-15
1.29769e-14
4.43138e-14
1.08318e-13
2.33828e-13
4.94827e-13
1.02513e-12
2.22989e-12
4.60122e-12
7.02073e-12
8.93555e-12
1.01206e-11
1.01841e-11
9.32308e-12
7.63532e-12
5.0973e-12
3.07124e-12
1.70098e-12
1.0992e-12
1.49241e-12
2.92641e-13
3.3585e-14
5.96061e-14
1.12666e-14
6.10405e-15
3.09145e-15
2.07594e-16
3.96927e-16
1.82206e-15
6.14946e-15
6.50033e-15
4.2004e-15
1.82419e-15
5.3039e-16
2.00353e-17
1.73192e-18
7.84144e-17
6.03151e-15
1.97346e-14
1.09344e-14
1.73876e-15
4.83407e-17
1.75379e-17
8.97089e-16
3.05579e-12
2.85281e-12
9.05473e-13
6.12507e-14
1.13987e-16
7.839e-19
1.02468e-18
3.37818e-20
2.21441e-19
2.83277e-19
1.0391e-18
1.10338e-19
4.13886e-20
5.15554e-20
1.08319e-19
1.73609e-19
3.02826e-19
1.05493e-18
1.10606e-17
2.69261e-17
1.63296e-17
3.43802e-18
8.74852e-19
8.67717e-19
1.31044e-18
1.96556e-18
1.67734e-18
1.43629e-18
1.03919e-18
2.85741e-19
2.69314e-20
1.79194e-19
6.59498e-19
1.11587e-17
7.54115e-17
7.5557e-16
2.98179e-15
6.71622e-15
1.28958e-14
2.27239e-14
2.74942e-14
1.99327e-14
2.57547e-14
4.06955e-14
1.01861e-13
1.89332e-13
2.6152e-13
3.01621e-13
2.98464e-13
2.51479e-13
2.05196e-13
1.61995e-13
1.43539e-13
1.24021e-13
7.75791e-14
9.2154e-14
8.49636e-14
1.29596e-14
4.78363e-15
9.21922e-16
2.20091e-16
3.08889e-17
1.31885e-18
1.76767e-18
1.12404e-17
1.23382e-16
5.64875e-17
2.14342e-17
6.16351e-18
1.6363e-18
1.84524e-19
6.06361e-21
1.33469e-18
7.48513e-16
7.69029e-16
2.25094e-16
1.70386e-17
2.72052e-19
1.16104e-22
1.68868e-25
8.55262e-13
2.44728e-13
6.02127e-13
1.42155e-13
2.09329e-15
4.4889e-19
2.09682e-21
8.80328e-23
2.44605e-22
2.71491e-22
1.20929e-21
5.54414e-22
4.67388e-22
5.50319e-22
9.45502e-22
7.15463e-22
1.61486e-21
1.75859e-21
5.68528e-21
1.91049e-20
1.87961e-20
8.84423e-22
8.70899e-23
1.31324e-22
2.22787e-22
2.63669e-22
2.36758e-22
1.70741e-22
1.04739e-22
7.48506e-23
9.60634e-23
8.01512e-22
4.04243e-21
2.30437e-20
7.24523e-19
1.21076e-17
5.64756e-17
1.96996e-16
7.69905e-16
1.6397e-15
2.96259e-15
4.74489e-15
6.68089e-15
8.6383e-15
1.22666e-14
1.95265e-14
2.54267e-14
2.79418e-14
2.76208e-14
2.49374e-14
2.36491e-14
2.13287e-14
2.19859e-14
1.85115e-14
1.00773e-14
5.91559e-15
3.4053e-15
5.79246e-16
5.94865e-17
1.38519e-17
1.51387e-18
1.69438e-19
8.46587e-21
2.6138e-21
7.31776e-21
1.9173e-19
1.63701e-19
7.93126e-20
2.41951e-20
5.61619e-21
1.22927e-21
7.10612e-23
9.58823e-22
8.76221e-18
2.75738e-18
3.37834e-19
1.84118e-20
5.64514e-22
2.70271e-24
1.66814e-25
1.10627e-13
7.11978e-15
1.60825e-13
2.14443e-14
3.91767e-16
9.8369e-20
1.3671e-22
4.23162e-25
1.16844e-24
7.52923e-25
1.44867e-24
3.69448e-25
3.76263e-25
4.56904e-25
7.2891e-25
7.10827e-25
9.43683e-25
9.09498e-25
3.52265e-24
5.51934e-24
4.05038e-25
2.87459e-25
3.32134e-25
6.1611e-25
1.05287e-24
1.2435e-24
1.20619e-24
8.57844e-25
7.37806e-25
5.52524e-25
3.98483e-25
3.55032e-24
2.51404e-23
3.40217e-22
5.14286e-21
4.73742e-20
3.22492e-19
1.79804e-18
6.9225e-18
1.67758e-17
3.67267e-17
8.35502e-17
1.48935e-16
2.67866e-16
5.70703e-16
1.02324e-15
1.41699e-15
1.58339e-15
1.54187e-15
1.39993e-15
1.28063e-15
7.03209e-16
6.06597e-16
4.82243e-16
2.49415e-16
9.41299e-17
2.90963e-17
4.95225e-18
6.79903e-19
9.8659e-20
1.39211e-20
1.78462e-21
9.67586e-23
2.79221e-23
1.1166e-22
7.10688e-22
1.34246e-21
7.97573e-22
2.25256e-22
4.94844e-23
1.61906e-23
2.05018e-24
7.58707e-25
5.51841e-21
4.71279e-21
1.052e-21
1.33491e-22
6.81888e-24
4.50154e-26
5.41724e-27
2.60734e-15
2.20003e-16
7.33243e-15
7.363e-17
2.60097e-18
2.25799e-21
8.10984e-25
3.38092e-27
1.19427e-26
3.47314e-27
5.6744e-27
2.70456e-27
1.91623e-27
2.20179e-27
3.67514e-27
4.30748e-27
3.59078e-27
2.06517e-27
4.74518e-27
8.23252e-27
1.40316e-27
1.23887e-27
1.82238e-27
3.72077e-27
7.57623e-27
1.0057e-26
1.04168e-26
7.44245e-27
5.59337e-27
2.83e-27
1.27146e-27
1.97492e-26
9.57587e-26
1.5614e-24
3.18793e-23
3.73897e-22
2.95627e-21
1.61039e-20
5.54256e-20
1.39726e-19
3.12002e-19
6.59271e-19
1.3333e-18
2.75206e-18
6.18636e-18
1.19212e-17
1.76264e-17
2.09762e-17
2.07539e-17
2.01314e-17
1.9098e-17
9.83445e-18
7.02093e-18
4.9921e-18
2.90433e-18
1.27534e-18
3.56092e-19
5.79107e-20
8.62332e-21
1.30296e-21
1.89568e-22
2.26082e-23
1.31666e-24
3.45334e-25
2.368e-24
9.28752e-24
1.72566e-23
1.05335e-23
2.4808e-24
5.5971e-25
2.29386e-25
3.45548e-26
7.43035e-27
8.12066e-24
2.16631e-23
6.59213e-24
1.05428e-24
3.74001e-26
8.86201e-28
4.34358e-28
3.56928e-18
1.43594e-18
2.70434e-17
1.8517e-18
3.01165e-21
1.7388e-26
1.02266e-26
6.93803e-29
1.53712e-28
5.34764e-29
7.06917e-29
3.58067e-29
2.79721e-29
3.37201e-29
5.48634e-29
6.59049e-29
5.88524e-29
4.03807e-29
2.72328e-29
1.96943e-29
1.10114e-29
9.14703e-30
1.25385e-29
2.36437e-29
4.11564e-29
5.15469e-29
5.32552e-29
4.8969e-29
5.11673e-29
2.86836e-29
1.14187e-29
2.11465e-28
1.09306e-27
1.92899e-26
4.14884e-25
4.83275e-24
3.68082e-23
1.89675e-22
6.41861e-22
1.64996e-21
3.81061e-21
8.32152e-21
1.74101e-20
3.5568e-20
7.079e-20
1.26537e-19
1.88706e-19
2.32834e-19
2.27329e-19
2.38216e-19
2.43015e-19
1.60675e-19
1.12888e-19
7.34378e-20
4.20438e-20
2.097e-20
6.33788e-21
1.00969e-21
1.37141e-22
1.95919e-23
2.82366e-24
3.2843e-25
1.99869e-26
4.35452e-27
4.53255e-26
1.44964e-25
2.48882e-25
1.585e-25
3.47221e-26
8.95085e-27
3.65252e-27
5.44924e-28
7.5512e-29
6.22536e-26
1.61392e-25
6.37623e-26
8.67187e-27
1.56615e-28
5.83349e-29
3.35998e-29
9.02145e-21
1.10986e-21
1.74296e-20
4.65659e-21
2.37024e-23
2.21523e-26
1.41184e-28
1.28111e-30
2.56831e-30
1.07654e-30
1.22519e-30
7.01785e-31
5.19582e-31
6.09586e-31
9.7293e-31
1.17272e-30
1.05301e-30
7.54722e-31
4.53914e-31
2.35998e-31
1.28861e-31
9.14515e-32
8.9876e-32
1.22978e-31
1.88899e-31
2.63986e-31
3.26084e-31
5.46569e-31
6.76864e-31
4.18621e-31
1.84166e-31
2.33298e-30
6.7471e-30
1.57902e-28
4.14673e-27
4.98809e-26
3.91311e-25
2.00273e-24
6.57889e-24
1.61892e-23
3.64317e-23
8.29659e-23
1.84779e-22
3.98622e-22
8.65239e-22
1.65875e-21
2.66669e-21
3.40495e-21
3.21569e-21
3.42848e-21
3.50887e-21
2.75989e-21
2.06896e-21
1.29011e-21
6.70115e-22
3.18763e-22
1.05771e-22
1.78253e-23
2.31332e-24
3.08931e-25
4.24314e-26
4.81459e-27
3.11323e-28
5.64185e-29
7.41202e-28
2.36621e-27
3.89492e-27
2.42012e-27
4.53457e-28
1.50465e-28
6.04759e-29
8.38273e-30
1.27567e-30
6.96536e-28
1.66488e-27
7.6263e-28
8.30505e-29
1.4341e-30
4.58075e-30
2.70008e-30
1.38131e-22
1.73816e-23
2.74626e-23
7.9281e-24
3.40531e-26
4.53258e-28
1.71865e-30
3.10966e-32
4.88618e-32
2.39256e-32
2.4393e-32
1.54083e-32
1.14369e-32
1.2387e-32
1.83404e-32
2.15932e-32
1.99551e-32
1.54163e-32
1.02415e-32
6.07033e-33
3.93055e-33
3.22783e-33
3.13482e-33
3.27343e-33
3.61934e-33
4.47042e-33
5.73533e-33
1.04756e-32
1.38071e-32
1.38435e-32
1.50428e-32
1.24028e-31
1.5544e-30
2.21173e-29
2.9812e-28
3.71273e-27
4.05866e-26
3.75251e-25
2.58167e-24
1.03583e-23
1.77339e-23
3.9008e-24
1.60808e-24
4.35487e-24
1.02649e-23
2.01264e-23
3.49088e-23
4.71099e-23
4.66156e-23
5.03109e-23
4.9428e-23
4.06135e-23
3.32631e-23
2.31011e-23
1.1949e-23
5.2472e-24
1.72506e-24
3.1467e-25
4.14076e-26
5.35319e-27
7.1233e-28
8.0615e-29
5.45795e-30
7.98243e-31
1.23139e-29
3.95067e-29
6.54619e-29
4.22321e-29
7.55874e-30
2.6483e-30
9.98687e-31
1.29058e-31
2.54098e-32
9.92584e-30
2.27468e-29
1.04668e-29
8.62826e-31
5.75517e-32
3.9562e-31
2.19957e-31
1.70503e-24
1.91996e-25
9.61943e-26
3.73262e-26
1.60727e-28
2.20203e-30
3.52496e-32
1.04202e-33
1.18468e-33
6.35381e-34
5.79333e-34
4.39948e-34
3.15263e-34
2.95342e-34
4.10462e-34
4.84376e-34
4.78969e-34
4.22907e-34
3.23912e-34
2.38324e-34
2.0095e-34
1.96556e-34
2.0236e-34
2.08199e-34
2.04047e-34
2.03604e-34
2.10638e-34
3.17547e-34
1.008e-33
1.23552e-32
2.29021e-31
4.07999e-30
6.80612e-29
1.03561e-27
1.43033e-26
1.7219e-25
1.69754e-24
1.22357e-23
3.46696e-23
5.31698e-23
2.38524e-22
4.26069e-22
7.44039e-25
8.68565e-26
6.65033e-26
1.82029e-25
4.225e-25
6.04884e-25
6.59009e-25
7.58466e-25
7.48715e-25
6.18014e-25
4.90821e-25
3.67516e-25
2.05894e-25
9.11195e-26
2.92474e-26
5.46644e-27
7.27648e-28
9.10602e-29
1.17737e-29
1.35242e-30
9.6689e-32
1.25591e-32
2.24072e-31
6.98461e-31
1.19366e-30
7.49695e-31
1.26486e-31
4.6009e-32
1.70361e-32
2.2243e-33
8.43327e-34
1.52895e-31
3.62351e-31
1.60427e-31
1.05894e-32
4.56972e-33
3.53187e-32
1.81361e-32
3.38249e-26
2.3161e-27
8.42168e-28
1.94272e-28
8.60329e-31
4.03226e-32
1.93118e-33
6.17742e-35
3.97525e-35
2.29189e-35
1.87414e-35
1.80397e-35
1.3366e-35
1.06793e-35
1.35551e-35
1.55169e-35
1.65374e-35
1.76311e-35
1.5609e-35
1.34651e-35
1.32041e-35
1.43613e-35
1.54076e-35
1.61147e-35
1.59106e-35
1.80951e-35
8.40538e-35
1.46733e-33
2.85098e-32
5.43185e-31
9.92936e-30
1.75428e-28
2.96324e-27
4.67494e-26
6.92485e-25
9.4131e-24
1.06714e-22
8.69887e-22
3.01544e-21
6.04178e-21
2.8803e-20
4.66624e-20
3.10268e-23
9.18216e-26
4.2304e-26
3.44635e-26
5.13772e-27
5.62508e-27
8.61661e-27
1.09571e-26
1.16525e-26