/*--------------------------------*- C++ -*----------------------------------*\
| =========                 |                                                 |
| \\      /  F ield         | OpenFOAM: The Open Source CFD Toolbox           |
|  \\    /   O peration     | Version:  2412                                  |
|   \\  /    A nd           | Website:  www.openfoam.com                      |
|    \\/     M anipulation  |                                                 |
\*---------------------------------------------------------------------------*/
FoamFile
{
    version     2.0;
    format      ascii;
    arch        "LSB;label=32;scalar=64";
    class       volScalarField;
    location    "70";
    object      p_rgh;
}
// * * * * * * * * * * * * * * * * * * * * * * * * * * * * * * * * * * * * * //

dimensions      [1 -1 -2 0 0 0 0];

internalField   nonuniform List<scalar> 
6400
(
19801.8
19849.6
20065.3
20456.3
20986.5
21618.6
22322.3
23074.8
23855.1
24645
25426.5
26172.9
26868
27500.8
28063.6
28548.9
28956.8
29287.7
29530.7
29632.7
29611.1
29504.2
29339.4
29124.8
28772.7
28218.6
27551.3
26857.8
26097.9
25214.1
24253
23258.8
22232.2
21197.3
20115.1
18893.6
17678.7
16547.4
15370.2
14280.7
13364.6
12538.3
11739.7
11027.8
10476.3
10057.5
9759.01
9603.7
9606.94
9762.63
10069.7
10521.1
11114.8
11836.9
12676.4
13622.2
14673
15794.9
16964.1
18156.1
19357.3
20543.2
21703
22794.5
23809.3
24703.3
25481.4
26132.5
26649.3
26992.4
27174.9
27191.8
27069.7
26805.3
26431.1
25956.7
25432
24906.6
24481.5
24248.8
19760
19800.5
19989.9
20330.5
20801
21365.8
21997.5
22674.5
23377.6
24094.6
24805.5
25486.2
26120.4
26704
27222.9
27682.4
28071.5
28393.8
28617.7
28713.3
28715.5
28650.6
28532.9
28349.3
28003.2
27493.3
26903.9
26314.6
25676
24908.7
24048.3
23133.1
22174.7
21228.4
20284.6
19239.1
18153.9
17066.2
16028.6
15123.7
14295.4
13520.7
12805.1
12208.3
11701.2
11306.4
11037.9
10908
10913.8
11054.7
11327.3
11736.9
12271.8
12929.7
13674.1
14519
15447.4
16464.2
17510.3
18582
19647.7
20709
21724.3
22684.4
23557.9
24367.9
25043.3
25620.5
26059.3
26375.9
26529.1
26556.4
26443.4
26225.6
25897.9
25502.1
25052.6
24613.4
24240.9
24016.7
19538.5
19591.9
19777
20092.2
20514.2
21019.6
21587.3
22198.1
22832.3
23478.8
24131.2
24749.6
25326.9
25855.5
26349.3
26788.9
27163.1
27458.2
27658.4
27746.1
27795.4
27787.4
27710.5
27500.6
27176.9
26777.6
26302.1
25816.6
25242.3
24572.2
23838.8
23016.4
22154.1
21281
20420.5
19542.6
18614.5
17659.3
16813
16062
15256.2
14504.4
13931.9
13429.4
12963.9
12591.9
12355
12255
12272.1
12392.3
12635.4
13005.7
13486.8
14054.9
14715.6
15463.5
16275.2
17153.5
18089.5
19029.3
19961.8
20870.3
21766.7
22589.7
23358.1
24051.4
24658.5
25124.4
25511.1
25768.3
25912.4
25921.6
25828.5
25627.1
25352
25004.7
24623.6
24229.9
23861.8
23595.1
19143.7
19228.9
19428.9
19738.4
20142.7
20618.1
21147.3
21708.7
22291.5
22906.9
23512.9
24073.8
24601
25122.2
25608.1
26019.4
26364.7
26639.3
26811.9
26939.5
27046.1
27075.8
26980.1
26777.6
26517.3
26180.1
25839.9
25426.5
24866.4
24274.3
23634.9
22924.8
22175.2
21382.4
20572.9
19782.5
19062.2
18301.8
17609.4
16871.5
16044.2
15364.4
14859.3
14384.3
13988.2
13648.9
13460.5
13374
13372.2
13508.7
13743
14077.9
14498.3
14954
15585.9
16273.3
16988.6
17742.6
18560.1
19392
20251.1
21057.7
21858.9
22600
23237.7
23842.4
24385.6
24799.7
25098.3
25328.2
25438.1
25447.4
25343.9
25159
24891.7
24572.5
24208.9
23818.2
23419.5
23075.8
18619.6
18744.4
18971.7
19294.9
19693.5
20155.3
20664.9
21201.2
21757.8
22342.8
22913.5
23424.3
23954.5
24477.9
24928
25305.8
25611.4
25884.5
26110.2
26289.4
26393.9
26414.3
26334.9
26173.1
25952.6
25715.3
25435.6
25080.3
24573.5
24016.7
23441.8
22871.7
22262.3
21568
20816.1
20173.3
19574.4
18869.6
18160.7
17372.1
16683.4
16156.6
15699.3
15300.3
14919
14651.5
14461.4
14366.5
14381
14481.3
14709.1
14968.8
15348.8
15782.6
16295.3
16935.9
17624.6
18333.7
19052.2
19809.5
20584.9
21262.3
21946.3
22643.1
23248.3
23717.1
24192
24564.2
24828.6
24995.5
25086.3
25068.9
24967.8
24773.9
24514.8
24193.1
23826.5
23422.8
22972.6
22554.8
18001.3
18171.6
18429.8
18778.7
19184.5
19645.4
20147.1
20675
21215.1
21772.3
22298.5
22805.7
23379.7
23867
24285.6
24608.2
24938.2
25250.6
25513.4
25683.5
25786.2
25812.4
25741.2
25661.3
25505.7
25294.9
25075.3
24795.7
24285.9
23825.6
23359.9
22903
22400
21738.9
21069.6
20464.6
19810.3
19105.9
18483.1
17908.3
17389.8
16958.1
16490.6
16055.3
15786.8
15572.2
15415.1
15341.5
15355
15451.3
15629.2
15905.9
16247.6
16692.3
17173.8
17664.3
18278.6
18920.5
19536.9
20215.6
20924.3
21592
22118.5
22716.8
23276.9
23729.7
24077.9
24407.2
24635.4
24780.2
24824.9
24790.9
24665.2
24469.5
24200.3
23874.3
23492.1
23067
22566.7
22082.4
17320.3
17534.4
17838.7
18203.2
18630.3
19099.7
19605.6
20132.6
20660.6
21192.5
21730.1
22253.3
22832.9
23297.7
23666.4
23944.7
24360.3
24709.7
24955.3
25107.5
25190.5
25251.1
25268.5
25239.3
25127.6
24939.9
24759.4
24519.2
24069.4
23713.5
23320.2
22921.2
22462.9
21797.1
21152
20693.9
19968.5
19493.6
18996.3
18502.5
18046.4
17586.4
17161.8
16847.4
16622.7
16440.5
16314.3
16255
16273.4
16363.9
16537.3
16798.2
17120.7
17597.1
17992.5
18378.1
18919.4
19482.5
20153.8
20642.4
21196
21875
22441.9
22883.9
23354.7
23768.1
24092.8
24336.9
24534.5
24638.8
24666.1
24597.1
24455.8
24237.5
23957.2
23611.9
23221.8
22768
22222.7
21695
16593.2
16845
17200
17593.2
18045
18533.2
19054.4
19591.1
20104
20616.6
21233.4
21768.3
22266.1
22666.9
23044
23415.4
23862
24169.7
24382.7
24551.3
24698.5
24822.1
24894.8
24888.4
24761.9
24643
24504
24315.9
23923.4
23562
23336.7
22955.5
22440.1
21844.8
21377.5
20849.1
20406.1
19953.3
19536.5
19073.4
18636.6
18242.8
17900.8
17635.3
17427.1
17269
17155.1
17102.5
17121.1
17214.2
17362.8
17596.4
17882.8
18280.8
18723.7
19144.6
19516.8
20010
20648.8
21257.4
21625.9
22118
22705.6
23161.4
23531.8
23879.8
24156.5
24374.7
24515.6
24591.6
24579.1
24495.4
24321.9
24084.2
23780.9
23426.8
23016.3
22535.4
21968.4
21403
15843
16137.5
16524.3
16961.2
17450.5
17963
18472.8
19009.5
19533.2
20150.7
20772.6
21254.2
21676.9
22144.3
22564.3
22968.8
23383.2
23660.4
23909
24081.5
24306.7
24438.6
24529.9
24547.8
24318.2
24247.9
24354
24178.6
23746.4
23538.9
23247.6
22988.5
22394.4
22048.7
21651.2
21193.7
20917.8
20511.4
20043.1
19604.3
19200
18871.4
18600.8
18371.1
18181.3
18028.1
17926.5
17883
17906.9
17986
18111.7
18300.3
18561.4
18861.5
19392.6
19832.1
20238.4
20532.9
20978.3
21706.9
22194.9
22531.2
22985
23429.6
23785
24066.1
24309.2
24480.9
24593.2
24621.6
24579.2
24454.5
24266.9
24005.9
23687.8
23309.9
22878.5
22385.2
21797
21217.3
15064.8
15410.7
15833.1
16315.1
16843.5
17300.2
17868.1
18453.6
19020.4
19606.1
20172.8
20582.1
21204.2
21778.4
22205
22583.9
22866.6
23113.1
23479.3
23753.3
23968.9
24117.2
24174.7
24033.5
24078.9
24124.9
24193.6
23877.7
23675.6
23553.9
23333
22977.8
22873.3
22326.5
21980.5
21713.2
21566
21120.4
20493.4
20121.8
19837.9
19505.1
19270.6
19049.6
18859.1
18713.6
18612.5
18573.7
18601.6
18683
18796.4
18959.3
19185.3
19475
19807.4
20425.2
20901.5
21313.3
21448.3
22044.1
22613.6
23034.5
23365.4
23747.7
24065.9
24327
24523.6
24670.9
24730.8
24727.2
24649
24505.2
24285.5
24005.4
23660.3
23259.4
22813.5
22306.5
21711.2
21113.6
14271
14658.2
15149.7
15685.8
16112.6
16752.3
17386.1
17996.5
18585.1
19155.3
19693.3
20187.7
20666.8
21354.8
21862.6
22126.2
22300.5
22618.3
22949.9
23501.8
23582.9
23537.3
23641.4
23737.1
24042.2
24071.9
23938.1
23821.4
23954.5
23882
23401.1
23181.7
23187.7
22934.9
22584
22396.6
22030
21503.5
21063
20824.3
20751.9
20479.8
20008.1
19733.4
19549
19397.5
19296.8
19259.3
19292.9
19375.5
19488.5
19746.2
19965.6
20108.3
20402.3
20714.9
21362.2
21873.3
22245.3
22504.1
22986.6
23460.4
23817.2
24129.8
24424.1
24651.1
24820.6
24908.1
24945.1
24907.6
24808.8
24629.7
24384.4
24071.8
23700
23276
22811.1
22291.7
21682.8
21091.9
13453
13905.3
14477.3
14952.5
15556.3
16247
16914.4
17551.7
18160.7
18744.1
19295.3
19812.2
20317.9
20798.6
21235
21630.8
21994.6
22331.2
22644.7
22894.4
23081.1
23245.3
23460.2
23850.2
24105.4
24151.9
24042.1
24015.2
24009.5
23998.1
23862.3
23715.2
23496.8
23261.9
23058.7
22808.2
22432.9
22159.3
21985.6
21786.6
21533.6
21240.8
20981
20707.8
20461.4
20280.9
20222
20249.6
20176.7
20226.4
20414.7
20673.2
20921.4
21120.1
21249.8
21489.9
21810.9
22376.1
22902.6
23195.5
23532.6
23938.7
24283.7
24589
24842.6
25032.2
25157.2
25235.1
25239.9
25181
25044.4
24836.1
24553.3
24206.1
23802.1
23347
22860.1
22310.1
21709.1
21130.6
12560.7
13141.2
13796.3
14247.7
15019.9
15769.3
16479.5
17145
17772.1
18363.5
18918.5
19438.9
19935
20405.7
20831.4
21211.4
21561.2
21941.3
22325.6
22620.8
22958
23408.6
23692.8
23818.9
23902.2
24036.8
24172.4
24219.9
24216
24167.1
24105.4
24025.6
23889.7
23706
23530.2
23319.7
23089.4
22895.6
22722.1
22522.3
22277.1
22044.1
21883
21740.5
21604.2
21487.8
21424.4
21398.8
21399
21456.1
21558.6
21671.9
21845.9
22099.8
22353.1
22588.6
22803.5
23093.3
23517.2
23875.6
24203.1
24523.1
24833.8
25086.2
25304.1
25474
25597.8
25644.7
25626.2
25530.1
25364.8
25113.5
24791.6
24401
23955.3
23463.9
22928.1
22360.4
21746.9
21206.3
11562.8
12327.6
13128.8
13998.5
14583
15259.7
15994.8
16678.9
17313
17904.3
18462.3
19021.4
19572.7
20042.6
20533.4
21164.8
21711.8
22100.5
22425.1
22737.6
23008.2
23244.1
23491.1
23744.5
23954.4
24120
24249.6
24357.9
24430.3
24459.1
24448.9
24407.8
24326.6
24215.4
24082.3
23927.6
23760.2
23588
23412.4
23229.6
23036.2
22862.4
22720.9
22606.3
22511.8
22439.1
22379.4
22351.5
22382.2
22437.1
22493.3
22591.7
22735.1
22956.6
23216.9
23487.6
23735.1
23976.9
24249.3
24560.7
24841.7
25116.6
25378.4
25639.8
25854.2
26022.9
26118.4
26146.9
26092.1
25967.8
25759.4
25464.4
25094.4
24652.5
24160.8
23605.9
23021.8
22403.2
21793.1
21248.1
10439.4
11491.1
12672.4
13738.4
14679.3
15452.9
16140.3
16794.2
17453.8
18078.9
18673.1
19222
19702.4
20155.6
20583.9
20987.2
21368.8
21734.2
22088.6
22431.5
22765.6
23088
23391.6
23672
23928.8
24155
24350
24511.9
24640.8
24727.4
24771.3
24771.8
24731.5
24657.9
24556.4
24427.4
24280.1
24122.3
23956.9
23782.8
23611.3
23457
23329
23226.2
23149.4
23089.8
23048.8
23032.5
23058.5
23111.5
23190.9
23295.7
23442.6
23622
23838.8
24069.9
24323
24583.7
24868
25163.8
25463.4
25747.1
26030.1
26281.1
26496.3
26644.4
26729
26727.3
26646.5
26481.4
26229.4
25882.6
25459.3
24963.6
24400.9
23780.2
23111.4
22436
21765.4
21218.7
9215.6
10647.7
12149.7
13366.8
14364.8
15223.1
15967.8
16641.7
17262
17840
18383.5
18897.2
19385.5
19851.2
20299.8
20735.4
21151.1
21545.6
21925.6
22296.9
22660.6
23017.1
23362.1
23693.8
24007.5
24299.6
24562.5
24793.4
24985.3
25134.4
25235.2
25288.7
25293.3
25256.3
25178.7
25067.6
24928.2
24770
24599.3
24423.6
24246.2
24078.9
23931.6
23812.4
23717.4
23648.4
23602.2
23588
23605.5
23658.9
23740
23858.7
24010.1
24202.4
24420
24671.1
24941.1
25239.4
25544.5
25862
26167.5
26471.9
26751.4
27007.5
27209.8
27357
27422.7
27401.8
27284
27080.1
26777.2
26374.2
25894
25321.6
24685.6
23957.7
23209.3
22398.9
21635.6
21011.4
7868.12
9860.71
11789.4
13195.1
14270.9
15134.9
15867.2
16520.5
17126.2
17695.8
18235
18745.9
19229.5
19689.5
20131.4
20560.2
20976.8
21383.8
21786.3
22187.6
22589.1
22990.7
23391.2
23786.2
24170.3
24535
24874.2
25179.5
25445.1
25661.6
25825.3
25931.7
25982.3
25977.8
25924.2
25826.8
25696.9
25540.9
25368.7
25185
24999.6
24818.4
24654.2
24512
24398.7
24312.9
24260.2
24238
24253
24299.9
24386.2
24508
24676.4
24879.1
25120.2
25382.8
25675.8
25983.6
26313.7
26639.2
26964.3
27269.1
27563.3
27822.8
28040.7
28188.4
28253.3
28207
28056.8
27808.9
27448.7
26982.8
26418.1
25757.5
25007.2
24180.2
23261.6
22301.4
21271.5
20474.3
6138.7
9055.41
11577.3
13160.2
14212.1
14995.4
15653.1
16254.8
16829.3
17383.7
17914.6
18417.4
18891.5
19341.8
19775
20197.1
20614.6
21033
21457.7
21892.4
22339.4
22798.9
23268.5
23743.5
24215.8
24677.4
25119.1
25532.1
25905.9
26225
26479.6
26665.3
26778
26809.3
26769.4
26676.5
26543
26381.4
26198.6
26004
25804.2
25610.8
25430.5
25273.9
25144.4
25049.3
24986.5
24960.9
24967.8
25014.5
25097.3
25228.3
25400.2
25617.8
25862.3
26139.3
26436.9
26767.3
27110.1
27463
27799.4
28132.9
28450.2
28757.9
28994
29148.4
29208.3
29136
28935.8
28615.7
28169.8
27603
26945.6
26176.1
25342.6
24399.1
23332.3
22068.7
20600.8
19167.1
4568.29
9171.61
12142.4
13812.8
14793.4
15462
16015.8
16531.3
17030.2
17514.8
17978.9
18418.1
18831.9
19226.7
19608.2
19984.7
20362.8
20749.7
21148.9
21564.2
21997.3
22448.2
22914.4
23391.1
23871.4
24346
24804.5
25250.5
25811.5
26334
26784.8
27140.8
27380
27475
27461.6
27374.1
27239.1
27070.2
26878.7
26671.3
26459.6
26252.6
26062.4
25893.9
25757.1
25653
25586.3
25552.1
25555.7
25594.1
25677.2
25802.2
25975.2
26181.5
26422.6
26685.3
26994.4
27329.4
27687.3
28058.3
28431.1
28777.7
29094.5
29341.3
29349.3
29342.3
29312.5
29124.1
28762.5
28206.4
27523.9
26820.7
26153.3
25551
24986.6
24387.1
23559.8
22222.6
20143.3
17254.4
8638.87
13248.3
14559.9
14507.9
14171.9
13867
13734.4
13791.7
13995.4
14277.9
14595.8
14921
15232.4
15512.2
15758.5
15969
16166
16368.7
16585.1
16836.8
17148.9
17543.2
18038.3
18650.8
19392.2
20263.3
21256.1
22328.1
23293.4
24272.8
25240
26153.6
26763.7
26955.3
27122.3
27181.9
27161
27083.1
26958.2
26797.3
26611
26414.7
26224.9
26055.4
25914.6
25809.9
25738.7
25703.3
25701
25738.8
25815.1
25941.9
26104.2
26307
26531.7
26778.5
27044.5
27322.2
27580.7
27826.6
28001.6
28058.9
27786.6
26440.2
24698.6
22476.3
19719.7
16737.1
14069.3
12020.1
10510
9478.66
8973.75
8926.98
9431.67
10486.3
12054.9
13982.4
15559.2
15710
-188.558
1319.28
1255.41
872.018
553.624
366.775
279.761
260.506
283.008
345.629
434.93
529.905
618.594
691.716
746.282
781.149
803.874
824.852
845.303
875.447
927.592
1012.16
1142.27
1333.93
1608.2
1990.54
2506.82
3192.95
4083.93
5218.83
6642.62
8391.4
10697.3
13530.8
16292.2
18804.7
20975
22755.9
24141.8
25155.3
25852.2
26024.7
25895.3
25728.1
25602.1
25499.2
25432.5
25390.6
25388
25412.7
25475.4
25580
25701.5
25862.7
25640.1
24915
23809.7
22228
20108.5
17370.1
14033.9
10253.3
6608.86
4038.15
2093.77
720.863
90.4742
-0.00715419
-0.00700964
-0.0069659
-0.00479106
-0.00571806
-0.00714362
-0.00745528
-0.00750766
-0.00756139
-0.00764821
-0.00787852
-0.0104283
0.216712
-0.212255
0.0834776
-0.0588833
-0.0539711
-0.0557084
-0.0606085
-0.0609281
-0.0506242
-0.0358376
-0.0200975
-0.0130423
-0.0128275
-0.0127174
-0.00893556
-0.00728014
-0.00790549
-0.00832838
-0.00839351
-0.00819549
-0.00795854
-0.00799646
-0.0077508
-0.00771625
-0.00783297
-0.00771199
-0.00719896
-0.00601352
-0.00323819
0.00330993
0.016676
0.0412091
0.0241649
0.0131693
69.8429
424.619
1096.1
2097.24
3406.55
4968.33
6702.09
8513.28
10560.3
12558.6
14187
15397.6
16236.6
16724.7
16866
16718.9
16245.1
15413.6
14193.5
12573.1
10484.3
8399.86
6493.74
4638.49
2973.17
1619.24
645.739
107.276
0.0146595
-0.000547562
-0.00625032
-3.46267e-05
-0.00362622
-0.00679451
-0.00724736
-0.00655622
-0.00724871
-0.00274871
-0.00520164
-0.00739559
-0.00747414
-0.00749294
-0.00751524
-0.00759159
-0.00781946
-0.0081536
-0.00909811
-0.0106783
0.043216
0.0804187
0.0941295
0.105688
0.10811
0.108349
0.0939745
0.0665873
0.0235106
0.00633749
0.0131439
0.0371118
0.022633
-0.00587407
-0.00784658
-0.00792115
-0.00794732
-0.00799484
-0.00803995
-0.0079211
-0.00700803
-0.00671213
-0.0070883
-0.00676904
-0.00536921
-0.00206398
0.00556051
0.0188433
0.066474
0.196528
0.119919
0.0457088
-0.00619366
-0.0078049
-0.00541824
0.000627076
0.0126604
0.0327183
0.0621007
0.100709
0.174453
52.4909
181.277
349.706
514.502
633.115
674.564
638.11
527.765
365.764
191.781
59.4901
0.186243
0.127027
0.0820278
0.0456907
0.0197856
0.00398023
-0.00422496
-0.00747468
-0.00799184
-0.00786218
-0.00802373
0.00722365
-0.00665184
-0.0074661
-0.00653882
-0.00643958
-0.0071504
-0.00733188
-0.00745473
-0.00722256
-0.00751853
-0.0075128
-0.00751054
-0.00752891
-0.00769088
-0.00819342
-0.00678428
-0.008275
-0.00848455
-0.00798733
-0.00875322
-0.00868493
-0.00840307
-0.00835857
-0.00825439
-0.00831576
-0.00695511
-0.0081779
0.0209811
0.0394911
0.0335445
-0.00555735
-0.00809769
-0.00794644
-0.00788373
-0.007863
-0.00775979
-0.00752602
-0.00615149
-0.00610718
-0.00719524
-0.00800905
-0.00805873
-0.00813516
-0.0082091
-0.00814406
-0.00709763
-0.00365429
-0.00107418
-0.00492192
-0.00753678
-0.00851394
-0.00849205
-0.00840389
-0.00818091
-0.00784046
-0.00733372
-0.00659381
-0.00617386
-0.00700282
-0.00437104
-0.000693522
0.0032024
0.00624401
0.00750776
0.00680549
0.0042522
0.000485304
-0.00344831
-0.00638258
-0.00507887
-0.00604927
-0.00694797
-0.00761772
-0.00791999
-0.00790965
-0.00798383
-0.00808261
-0.00807183
-0.00798231
-0.00791686
-0.00781037
-0.00792385
-0.00794099
-0.00791684
-0.00783656
-0.00779505
-0.00773588
-0.00769764
-0.0076848
-0.007643
-0.0075986
-0.00761118
-0.007562
-0.00757134
-0.00776022
-0.00738367
-0.00781832
-0.0103202
-0.00828297
-0.00795562
-0.00823231
-0.00834104
-0.00843218
-0.00839553
-0.0083606
-0.00828321
-0.00823931
-0.00821471
-0.00583419
-0.00825044
-0.00807942
-0.00813984
-0.00814271
-0.00821915
-0.00816825
-0.00801568
-0.00804111
-0.00811067
-0.0081278
-0.00808954
-0.00810649
-0.00814571
-0.0081816
-0.00824038
-0.00834768
-0.00817341
-0.00760875
-0.00802994
-0.00852331
-0.00852209
-0.00851383
-0.00852317
-0.00848791
-0.00836138
-0.00814388
-0.00780538
-0.00729156
-0.00672933
-0.0086472
-0.00862443
-0.00852606
-0.0084582
-0.00841571
-0.00838579
-0.0083711
-0.00837901
-0.00841693
-0.00849407
-0.00846152
-0.00631339
-0.00670179
-0.00736256
-0.00787144
-0.00804948
-0.00799116
-0.00804038
-0.00812667
-0.00808147
-0.00802693
-0.00799241
-0.00801083
-0.00800726
-0.00796657
-0.00793194
-0.00790124
-0.00781871
-0.00775161
-0.00770275
-0.00767081
-0.00766601
-0.0076256
-0.00763519
-0.00761537
-0.00760929
-0.00766049
-0.0076451
-0.00764027
-0.00861475
-0.00846781
-0.00870055
-0.00852953
-0.00834844
-0.00838543
-0.0083013
-0.00835534
-0.00831077
-0.00826754
-0.00826806
-0.00825766
-0.00824881
-0.00816132
-0.0081535
-0.00818155
-0.0081926
-0.00818587
-0.00810516
-0.00809
-0.00811499
-0.00812265
-0.00812931
-0.00813718
-0.0081695
-0.00821494
-0.00826479
-0.00830644
-0.00829983
-0.00835022
-0.00844938
-0.00843533
-0.00849644
-0.00853735
-0.00857441
-0.00860194
-0.00860424
-0.00858986
-0.00856955
-0.00855205
-0.00856845
-0.00856678
-0.00851954
-0.00841869
-0.00833399
-0.00827904
-0.00824274
-0.00823074
-0.0082457
-0.00829507
-0.00835971
-0.00834288
-0.00832155
-0.0082702
-0.00827318
-0.0082772
-0.00824646
-0.00820801
-0.00817055
-0.00814178
-0.00810382
-0.00806107
-0.00801389
-0.00797988
-0.00795179
-0.00791911
-0.00788399
-0.00784736
-0.00780865
-0.00778088
-0.00773932
-0.0077055
-0.00767921
-0.00765077
-0.00765667
-0.00762612
-0.00760825
-0.00762027
-0.00763919
-0.00797878
-0.00895665
-0.0081124
-0.00846458
-0.00846446
-0.00834269
-0.00839128
-0.00831154
-0.00831457
-0.00829043
-0.00825809
-0.00824342
-0.00825609
-0.00829588
-0.00824588
-0.00821203
-0.00818036
-0.00814161
-0.00815717
-0.00815532
-0.00811097
-0.00811092
-0.00811347
-0.00811982
-0.0081388
-0.00816719
-0.00819258
-0.00821809
-0.00824996
-0.00827729
-0.00830849
-0.00835084
-0.00841641
-0.00844382
-0.00846775
-0.00849724
-0.00852635
-0.00855502
-0.00858029
-0.00860214
-0.00862303
-0.00864267
-0.0086473
-0.0086407
-0.00862472
-0.00860579
-0.00858808
-0.0085717
-0.00855795
-0.00854752
-0.00853683
-0.00851454
-0.00847312
-0.00841956
-0.00835895
-0.0083072
-0.00826482
-0.00822876
-0.00817895
-0.00813369
-0.00810971
-0.00807002
-0.00803434
-0.00800555
-0.00799141
-0.00797564
-0.00793806
-0.00789825
-0.00785187
-0.00780914
-0.007769
-0.00773274
-0.00770923
-0.00768077
-0.00765711
-0.00765474
-0.00763114
-0.00761696
-0.00760899
-0.00761724
-0.0085231
-0.00844674
-0.00841289
-0.00842004
-0.00842483
-0.00836995
-0.00838166
-0.00832457
-0.00830999
-0.00829421
-0.00826348
-0.00823737
-0.00819079
-0.0082137
-0.00823714
-0.00824407
-0.0082135
-0.00813558
-0.00811357
-0.00810379
-0.00809826
-0.00810253
-0.00811226
-0.00812566
-0.00814216
-0.00816953
-0.00820697
-0.00824064
-0.00826588
-0.0082815
-0.00830413
-0.00834574
-0.00839414
-0.00843591
-0.00846335
-0.00848153
-0.0085007
-0.00852439
-0.00854931
-0.00857001
-0.00858683
-0.00860012
-0.00860469
-0.00860147
-0.00859212
-0.0085807
-0.0085688
-0.00855465
-0.00853736
-0.00851998
-0.00850208
-0.00847729
-0.00844276
-0.00839633
-0.0083463
-0.00830047
-0.00825752
-0.0082216
-0.00818109
-0.00813756
-0.00809705
-0.00806529
-0.00802926
-0.00799319
-0.00795984
-0.00792725
-0.00789743
-0.00786764
-0.00783228
-0.00779364
-0.00776206
-0.00772708
-0.00770087
-0.00767451
-0.00765196
-0.00764109
-0.00761337
-0.00760377
-0.00759454
-0.00759826
-0.008453
-0.00839486
-0.00841201
-0.00838057
-0.00842332
-0.00836619
-0.00835403
-0.0083227
-0.00829576
-0.00828509
-0.00826109
-0.00825554
-0.00819603
-0.00818053
-0.00816928
-0.0081766
-0.00818886
-0.00814839
-0.00812922
-0.00811855
-0.00810602
-0.00810402
-0.00810972
-0.00812082
-0.00813524
-0.00815315
-0.00818006
-0.00820953
-0.00823705
-0.00826363
-0.00828942
-0.00832117
-0.00835374
-0.00838553
-0.00841546
-0.00844043
-0.00846177
-0.00848219
-0.00850335
-0.0085215
-0.00853486
-0.00854496
-0.00854935
-0.00854885
-0.00854445
-0.00853607
-0.00852453
-0.00851003
-0.00849214
-0.00847171
-0.00844976
-0.0084233
-0.00839255
-0.00835359
-0.00830798
-0.00825687
-0.00821323
-0.00818181
-0.00814881
-0.0081139
-0.00808028
-0.008046
-0.00801359
-0.00797985
-0.00795247
-0.00791968
-0.00788395
-0.00785259
-0.00782065
-0.00778396
-0.00775363
-0.00771878
-0.00769018
-0.00766091
-0.00763999
-0.00762238
-0.00760128
-0.00759114
-0.00757801
-0.0075784
-0.00835833
-0.0084081
-0.00839287
-0.00834583
-0.00836665
-0.00833722
-0.00832596
-0.00830578
-0.00827385
-0.00825529
-0.00822945
-0.00823705
-0.00820384
-0.00818328
-0.00815414
-0.00814163
-0.00813891
-0.00812522
-0.00810822
-0.00809815
-0.00809192
-0.00809235
-0.00809711
-0.00810409
-0.00811577
-0.00813521
-0.00816373
-0.00819558
-0.00822413
-0.00825132
-0.00827831
-0.00830704
-0.00833472
-0.0083588
-0.00837993
-0.00840086
-0.0084208
-0.00843805
-0.0084538
-0.0084683
-0.00847932
-0.00848764
-0.00849186
-0.0084919
-0.00848876
-0.00848178
-0.00847091
-0.00845749
-0.00844073
-0.00842029
-0.00839595
-0.0083679
-0.00833904
-0.00830528
-0.00826724
-0.00822274
-0.00817898
-0.00814174
-0.00811203
-0.00808101
-0.00804967
-0.00801708
-0.00798511
-0.00795233
-0.00792481
-0.00789198
-0.00785788
-0.00782672
-0.00779667
-0.00776122
-0.00773151
-0.00769964
-0.00767333
-0.00764327
-0.00762078
-0.00760075
-0.00758252
-0.00757177
-0.00755904
-0.00755858
-0.00835087
-0.00835151
-0.00833343
-0.0083054
-0.00831063
-0.00828965
-0.0082808
-0.00827231
-0.00824492
-0.0082281
-0.0081906
-0.00819264
-0.00817013
-0.00815604
-0.00813191
-0.00810794
-0.00809626
-0.0080886
-0.00807874
-0.00807157
-0.00806814
-0.00807161
-0.00808195
-0.00809845
-0.00811712
-0.00813952
-0.00816553
-0.00818664
-0.00820777
-0.00822824
-0.00825055
-0.00827507
-0.00829968
-0.00832271
-0.00834394
-0.00836436
-0.00838434
-0.00840133
-0.00841422
-0.00842508
-0.00843268
-0.00843841
-0.00844151
-0.0084413
-0.00843856
-0.00843209
-0.00842093
-0.00840652
-0.00838975
-0.00837022
-0.00834636
-0.00831942
-0.00828952
-0.00825606
-0.00822147
-0.00818556
-0.00814822
-0.00811005
-0.00807473
-0.00804241
-0.00801259
-0.00798215
-0.00794884
-0.00791573
-0.00788771
-0.00785827
-0.00782541
-0.00779417
-0.0077649
-0.00773216
-0.00770061
-0.00767035
-0.00764339
-0.00761537
-0.00759276
-0.00757135
-0.00755112
-0.00754076
-0.00753034
-0.00752749
-0.00824461
-0.00826617
-0.00827761
-0.00826434
-0.0082718
-0.00824348
-0.00822677
-0.00822249
-0.00819675
-0.00819447
-0.00815465
-0.00814832
-0.00812682
-0.00811473
-0.00809717
-0.00807771
-0.00806284
-0.00805297
-0.00804459
-0.00804006
-0.00803901
-0.00804264
-0.00805278
-0.00806804
-0.00808315
-0.00810015
-0.00811685
-0.00814132
-0.00816939
-0.0081941
-0.00821635
-0.00823694
-0.00825655
-0.00827577
-0.00829413
-0.00831105
-0.00832778
-0.00834393
-0.0083578
-0.00836916
-0.00837709
-0.00838253
-0.00838511
-0.00838444
-0.00838182
-0.0083765
-0.00836651
-0.00835304
-0.00833628
-0.00831727
-0.00829458
-0.00826702
-0.00823625
-0.00820364
-0.00816759
-0.00813269
-0.00809953
-0.00806418
-0.00802941
-0.00799521
-0.00796529
-0.00793715
-0.0079075
-0.00787584
-0.00784739
-0.0078191
-0.00778866
-0.00775812
-0.00772862
-0.00769867
-0.00766477
-0.00763489
-0.00760744
-0.00758113
-0.00755825
-0.00753891
-0.00752387
-0.00750834
-0.00749727
-0.00749263
-0.00819174
-0.00819411
-0.0081957
-0.00819458
-0.00817952
-0.00818487
-0.00816269
-0.00816378
-0.00813635
-0.00814043
-0.00811074
-0.00810004
-0.00807808
-0.00806381
-0.00804851
-0.00803319
-0.00801895
-0.00800828
-0.00800079
-0.00799831
-0.00799984
-0.0080034
-0.00801645
-0.00802739
-0.00804347
-0.00806511
-0.00808996
-0.00811476
-0.00813772
-0.00815939
-0.00818116
-0.00820196
-0.00822128
-0.00823966
-0.00825762
-0.00827371
-0.00828679
-0.00829856
-0.0083082
-0.00831662
-0.00832277
-0.00832674
-0.00832875
-0.00832749
-0.00832423
-0.00831981
-0.008311
-0.00829791
-0.00828035
-0.00826014
-0.00823832
-0.00821186
-0.00818138
-0.0081496
-0.00811339
-0.00807901
-0.00804755
-0.00801425
-0.00798105
-0.00794744
-0.00791488
-0.00788544
-0.0078579
-0.00782708
-0.00779779
-0.00776964
-0.00774015
-0.00770956
-0.00767989
-0.00765197
-0.00761918
-0.00759083
-0.00756235
-0.00753799
-0.00751569
-0.00749625
-0.00747997
-0.00746611
-0.007456
-0.00745093
-0.00812514
-0.00812379
-0.00811914
-0.008121
-0.00811337
-0.00811668
-0.00809349
-0.0080984
-0.00806742
-0.00807009
-0.00804613
-0.00803623
-0.00801591
-0.00800066
-0.00798619
-0.0079733
-0.00796144
-0.00795237
-0.00794592
-0.0079435
-0.00794405
-0.00794865
-0.00795743
-0.00797725
-0.00799913
-0.00802208
-0.0080463
-0.00807107
-0.00809477
-0.00811643
-0.00813723
-0.00815781
-0.00817711
-0.00819445
-0.00821003
-0.00822459
-0.00823697
-0.00824796
-0.00825585
-0.00826229
-0.00826733
-0.00826997
-0.00827148
-0.00827037
-0.00826603
-0.00826069
-0.00825216
-0.00823908
-0.00822222
-0.0082006
-0.00817851
-0.00815274
-0.00812339
-0.00809335
-0.00805929
-0.00802364
-0.00799071
-0.00795836
-0.00792599
-0.00789442
-0.00786163
-0.00782998
-0.00780125
-0.0077717
-0.00774212
-0.00771369
-0.00768499
-0.00765523
-0.00762607
-0.00759899
-0.00756785
-0.00754072
-0.00751164
-0.00748782
-0.00746594
-0.00744653
-0.00743024
-0.00741653
-0.00740712
-0.00740202
-0.00803487
-0.00804375
-0.00803665
-0.00804239
-0.00802998
-0.00803981
-0.00801564
-0.00802387
-0.00799498
-0.00799437
-0.00797519
-0.00796582
-0.00794955
-0.00793524
-0.00792231
-0.00791152
-0.00790274
-0.00789643
-0.00789341
-0.00789529
-0.00789665
-0.00790547
-0.00791573
-0.00793297
-0.00795571
-0.0079795
-0.00800398
-0.008029
-0.00805423
-0.00807733
-0.00809887
-0.00811967
-0.00813928
-0.0081566
-0.00817071
-0.00818401
-0.00819527
-0.00820456
-0.00820922
-0.00821157
-0.00821578
-0.0082166
-0.00821725
-0.00821524
-0.00821236
-0.00820558
-0.00819594
-0.00818107
-0.00816495
-0.00814296
-0.00811986
-0.00809282
-0.00806233
-0.0080339
-0.00800051
-0.00796516
-0.00793031
-0.00789648
-0.00786352
-0.00783302
-0.00780159
-0.00776926
-0.00773871
-0.00770901
-0.00767913
-0.00765043
-0.00762207
-0.00759237
-0.00756452
-0.00753651
-0.00750743
-0.00748128
-0.00745334
-0.0074298
-0.00740817
-0.00738907
-0.00737319
-0.00735978
-0.00735046
-0.00734568
-0.00794647
-0.00795442
-0.00794823
-0.00795458
-0.00793936
-0.0079508
-0.0079292
-0.00793875
-0.00791278
-0.00790976
-0.00789246
-0.00788255
-0.00786797
-0.0078546
-0.00784242
-0.00783284
-0.00782678
-0.00782273
-0.00782054
-0.00782013
-0.00782889
-0.00784217
-0.00785785
-0.00787677
-0.00789948
-0.00792525
-0.00795173
-0.00797874
-0.00800617
-0.00803203
-0.00805584
-0.00807782
-0.00809788
-0.00811551
-0.00812969
-0.00814145
-0.00815187
-0.00816273
-0.00816642
-0.00817014
-0.00816908
-0.00816634
-0.0081661
-0.00816152
-0.00815845
-0.00814847
-0.00813943
-0.00812303
-0.00810586
-0.00808471
-0.00805938
-0.00803226
-0.00800176
-0.00797155
-0.00793783
-0.00790225
-0.00786651
-0.00783102
-0.00779607
-0.00776445
-0.00773364
-0.00770182
-0.00767034
-0.00763969
-0.00760913
-0.00757959
-0.00755166
-0.00752215
-0.00749574
-0.00746722
-0.00743957
-0.00741332
-0.00738704
-0.0073637
-0.00734242
-0.00732359
-0.00730814
-0.00729523
-0.00728596
-0.00728157
-0.00785331
-0.00785732
-0.00785299
-0.0078604
-0.0078446
-0.00785455
-0.00783308
-0.00784131
-0.00782065
-0.00781701
-0.00780173
-0.00779155
-0.00777901
-0.00776737
-0.00775662
-0.00774787
-0.00774392
-0.00774309
-0.00774319
-0.00774746
-0.00775729
-0.00777347
-0.0077935
-0.00781546
-0.00784063
-0.0078686
-0.00789773
-0.00792731
-0.00795713
-0.00798572
-0.00801216
-0.00803629
-0.00805754
-0.00807541
-0.00809006
-0.00810049
-0.00810745
-0.00811013
-0.00811533
-0.00811681
-0.00811434
-0.0081057
-0.00810382
-0.00809757
-0.00810188
-0.00808501
-0.00807994
-0.00806038
-0.00804661
-0.00802339
-0.00799429
-0.0079651
-0.00793505
-0.00790422
-0.00786968
-0.00783439
-0.00779857
-0.00776219
-0.00772523
-0.00769137
-0.00765984
-0.00762822
-0.00759634
-0.00756464
-0.00753316
-0.00750277
-0.00747435
-0.00744468
-0.00741843
-0.00739028
-0.00736392
-0.00733774
-0.00731249
-0.00728968
-0.00726893
-0.00725042
-0.00723537
-0.00722294
-0.00721389
-0.00720926
-0.00775291
-0.00775559
-0.00775147
-0.00775864
-0.0077444
-0.00775171
-0.00773334
-0.00773693
-0.00772238
-0.00771719
-0.00770519
-0.00769549
-0.0076852
-0.00767571
-0.00766713
-0.00765805
-0.00765684
-0.00765618
-0.00766117
-0.00767088
-0.00768435
-0.0077031
-0.00772686
-0.00775293
-0.00778173
-0.00781305
-0.00784546
-0.00787817
-0.00791107
-0.00794283
-0.00797202
-0.00799832
-0.00802136
-0.00804027
-0.00805549
-0.00806558
-0.0080718
-0.00807361
-0.00807323
-0.00807144
-0.00807188
-0.00805617
-0.00806518
-0.00804541
-0.00805806
-0.00802564
-0.00801954
-0.00799702
-0.00798174
-0.00796235
-0.00793379
-0.00789997
-0.00786621
-0.00783165
-0.00779585
-0.00775962
-0.00772373
-0.0076876
-0.00764991
-0.00761367
-0.00758053
-0.0075487
-0.00751654
-0.00748389
-0.00745146
-0.0074202
-0.00739017
-0.00736037
-0.00733372
-0.00730576
-0.00728019
-0.00725454
-0.00722998
-0.00720778
-0.0071876
-0.00716962
-0.00715483
-0.0071428
-0.00713394
-0.00712916
-0.00764726
-0.00764977