/*--------------------------------*- C++ -*----------------------------------*\
| =========                 |                                                 |
| \\      /  F ield         | OpenFOAM: The Open Source CFD Toolbox           |
|  \\    /   O peration     | Version:  2412                                  |
|   \\  /    A nd           | Website:  www.openfoam.com                      |
|    \\/     M anipulation  |                                                 |
\*---------------------------------------------------------------------------*/
FoamFile
{
    version     2.0;
    format      ascii;
    arch        "LSB;label=32;scalar=64";
    class       volVectorField;
    location    "6.7";
    object      U;
}
// * * * * * * * * * * * * * * * * * * * * * * * * * * * * * * * * * * * * * //

dimensions      [0 1 -1 0 0 0 0];

internalField   nonuniform List<vector> 
6400
(
(-6.62855e-07 6.66977e-07 0)
(-1.89596e-06 6.62377e-07 0)
(-1.74379e-06 2.9199e-07 0)
(3.19552e-07 -1.45704e-07 0)
(4.50218e-06 -5.50437e-07 0)
(1.07163e-05 -9.0539e-07 0)
(1.8781e-05 -1.21068e-06 0)
(2.85012e-05 -1.47167e-06 0)
(3.96915e-05 -1.69532e-06 0)
(5.21838e-05 -1.88833e-06 0)
(6.58296e-05 -2.0565e-06 0)
(8.04982e-05 -2.20463e-06 0)
(9.60751e-05 -2.33662e-06 0)
(0.000112457 -2.45549e-06 0)
(0.00012955 -2.56333e-06 0)
(0.000147261 -2.66128e-06 0)
(0.000165495 -2.74936e-06 0)
(0.000184146 -2.82628e-06 0)
(0.00020309 -2.88919e-06 0)
(0.000222178 -2.93349e-06 0)
(0.000241223 -2.95266e-06 0)
(0.000259993 -2.93805e-06 0)
(0.000278197 -2.87888e-06 0)
(0.00029548 -2.76231e-06 0)
(0.00031141 -2.57371e-06 0)
(0.000325474 -2.29735e-06 0)
(0.00033708 -1.91738e-06 0)
(0.000345564 -1.41941e-06 0)
(0.000350205 -7.92449e-07 0)
(0.000350255 -3.14454e-08 0)
(0.000344984 8.60255e-07 0)
(0.000333728 1.86838e-06 0)
(0.00031596 2.96606e-06 0)
(0.000291355 4.11332e-06 0)
(0.000259855 5.25833e-06 0)
(0.000221724 6.34053e-06 0)
(0.000177576 7.29573e-06 0)
(0.000128373 8.06219e-06 0)
(7.53937e-05 8.58741e-06 0)
(2.01613e-05 8.83388e-06 0)
(-3.56493e-05 8.78379e-06 0)
(-9.03258e-05 8.44093e-06 0)
(-0.000142235 7.83047e-06 0)
(-0.000189929 6.99572e-06 0)
(-0.000232235 5.99335e-06 0)
(-0.000268307 4.88666e-06 0)
(-0.000297652 3.73899e-06 0)
(-0.000320118 2.60792e-06 0)
(-0.000335857 1.54102e-06 0)
(-0.000345268 5.7323e-07 0)
(-0.000348928 -2.73516e-07 0)
(-0.000347526 -9.8896e-07 0)
(-0.000341802 -1.57198e-06 0)
(-0.000332494 -2.0293e-06 0)
(-0.000320303 -2.37339e-06 0)
(-0.000305866 -2.61872e-06 0)
(-0.000289745 -2.7809e-06 0)
(-0.000272422 -2.87547e-06 0)
(-0.000254301 -2.91708e-06 0)
(-0.000235714 -2.91853e-06 0)
(-0.00021693 -2.89001e-06 0)
(-0.000198162 -2.83912e-06 0)
(-0.000179584 -2.77164e-06 0)
(-0.000161334 -2.69178e-06 0)
(-0.000143523 -2.60209e-06 0)
(-0.000126248 -2.50358e-06 0)
(-0.000109596 -2.39602e-06 0)
(-9.36511e-05 -2.27821e-06 0)
(-7.85017e-05 -2.1482e-06 0)
(-6.42433e-05 -2.00321e-06 0)
(-5.09829e-05 -1.83953e-06 0)
(-3.88425e-05 -1.65247e-06 0)
(-2.79625e-05 -1.43625e-06 0)
(-1.85022e-05 -1.18419e-06 0)
(-1.06392e-05 -8.89325e-07 0)
(-4.56179e-06 -5.46234e-07 0)
(-4.48278e-07 -1.54469e-07 0)
(1.60173e-06 2.72302e-07 0)
(1.76838e-06 6.47717e-07 0)
(6.10408e-07 6.8028e-07 0)
(-5.72975e-07 1.96378e-06 0)
(-6.72887e-07 9.63641e-07 0)
(2.90313e-06 -2.3525e-06 0)
(1.11196e-05 -6.38308e-06 0)
(2.4362e-05 -1.04468e-05 0)
(4.2544e-05 -1.42674e-05 0)
(6.53616e-05 -1.77463e-05 0)
(9.24301e-05 -2.08667e-05 0)
(0.000123348 -2.3647e-05 0)
(0.000157724 -2.61182e-05 0)
(0.000195192 -2.83137e-05 0)
(0.000235416 -3.02643e-05 0)
(0.000278083 -3.19953e-05 0)
(0.000322902 -3.35251e-05 0)
(0.000369593 -3.48628e-05 0)
(0.000417874 -3.6007e-05 0)
(0.00046745 -3.69439e-05 0)
(0.000517993 -3.76452e-05 0)
(0.000569123 -3.8066e-05 0)
(0.000620389 -3.81433e-05 0)
(0.000671243 -3.77941e-05 0)
(0.000721017 -3.69154e-05 0)
(0.000768899 -3.53843e-05 0)
(0.000813908 -3.30604e-05 0)
(0.000854879 -2.97908e-05 0)
(0.000890455 -2.54184e-05 0)
(0.000919087 -1.97943e-05 0)
(0.000939062 -1.27947e-05 0)
(0.000948547 -4.34193e-06 0)
(0.000945665 5.57084e-06 0)
(0.0009286 1.68556e-05 0)
(0.000895738 2.9307e-05 0)
(0.000845818 4.25893e-05 0)
(0.000778108 5.62352e-05 0)
(0.000692556 6.96625e-05 0)
(0.000589922 8.22086e-05 0)
(0.00047184 9.31836e-05 0)
(0.000340817 0.000101933 0)
(0.000200144 0.000107904 0)
(5.37211e-05 0.000110705 0)
(-9.41782e-05 0.000110151 0)
(-0.000239186 0.000106282 0)
(-0.000377129 9.93597e-05 0)
(-0.000504298 8.98374e-05 0)
(-0.00061766 7.83095e-05 0)
(-0.000715003 6.54482e-05 0)
(-0.000794993 5.19377e-05 0)
(-0.000857154 3.84142e-05 0)
(-0.000901779 2.5421e-05 0)
(-0.00092979 1.33791e-05 0)
(-0.000942575 2.57727e-06 0)
(-0.000941825 -6.82103e-06 0)
(-0.00092938 -1.47594e-05 0)
(-0.000907105 -2.12694e-05 0)
(-0.000876788 -2.64474e-05 0)
(-0.000840083 -3.04264e-05 0)
(-0.000798465 -3.33581e-05 0)
(-0.000753219 -3.53981e-05 0)
(-0.000705443 -3.66968e-05 0)
(-0.000656053 -3.73909e-05 0)
(-0.000605807 -3.7597e-05 0)
(-0.000555325 -3.74103e-05 0)
(-0.000505117 -3.69069e-05 0)
(-0.0004556 -3.61459e-05 0)
(-0.000407124 -3.51692e-05 0)
(-0.000359991 -3.40031e-05 0)
(-0.000314473 -3.26597e-05 0)
(-0.000270828 -3.11394e-05 0)
(-0.000229317 -2.94327e-05 0)
(-0.00019021 -2.75222e-05 0)
(-0.000153796 -2.53833e-05 0)
(-0.000120393 -2.29858e-05 0)
(-9.03448e-05 -2.0296e-05 0)
(-6.40199e-05 -1.7282e-05 0)
(-4.1802e-05 -1.39231e-05 0)
(-2.40608e-05 -1.02315e-05 0)
(-1.10942e-05 -6.2964e-06 0)
(-3.0024e-06 -2.3755e-06 0)
(5.59149e-07 8.8328e-07 0)
(5.37132e-07 1.92727e-06 0)
(-1.60468e-07 1.91268e-06 0)
(2.76724e-06 -2.37874e-06 0)
(1.15668e-05 -1.08533e-05 0)
(2.71531e-05 -2.08117e-05 0)
(4.98503e-05 -3.09487e-05 0)
(7.95823e-05 -4.06454e-05 0)
(0.000116016 -4.96287e-05 0)
(0.000158684 -5.78069e-05 0)
(0.000207063 -6.51791e-05 0)
(0.000260618 -7.17862e-05 0)
(0.000318826 -7.76843e-05 0)
(0.000381185 -8.29301e-05 0)
(0.000447216 -8.7572e-05 0)
(0.000516459 -9.16429e-05 0)
(0.00058846 -9.51546e-05 0)
(0.000662758 -9.8093e-05 0)
(0.000738863 -0.000100413 0)
(0.000816236 -0.000102031 0)
(0.000894256 -0.000102826 0)
(0.000972196 -0.000102627 0)
(0.00104919 -0.000101216 0)
(0.00112419 -9.83258e-05 0)
(0.00119594 -9.36404e-05 0)
(0.00126296 -8.68032e-05 0)
(0.00132348 -7.74304e-05 0)
(0.00137547 -6.51319e-05 0)
(0.00141664 -4.95444e-05 0)
(0.00144446 -3.03734e-05 0)
(0.00145623 -7.4475e-06 0)
(0.00144919 1.92215e-05 0)
(0.00142071 4.93766e-05 0)
(0.00136841 8.2462e-05 0)
(0.00129047 0.00011759 0)
(0.00118585 0.000153541 0)
(0.00105449 0.000188804 0)
(0.00089757 0.000221672 0)
(0.000717537 0.000250369 0)
(0.000518153 0.000273214 0)
(0.000304341 0.000288791 0)
(8.19347e-05 0.0002961 0)
(-0.000142677 0.000294664 0)
(-0.000362965 0.000284586 0)
(-0.000572692 0.000266535 0)
(-0.000766308 0.000241673 0)
(-0.000939278 0.000211522 0)
(-0.00108828 0.000177809 0)
(-0.00121131 0.000142297 0)
(-0.00130762 0.00010663 0)
(-0.00137762 7.22204e-05 0)
(-0.00142262 4.01713e-05 0)
(-0.00144465 1.12521e-05 0)
(-0.00144618 -1.40883e-05 0)
(-0.00142989 -3.56782e-05 0)
(-0.00139852 -5.35704e-05 0)
(-0.0013547 -6.79838e-05 0)
(-0.0013009 -7.92397e-05 0)
(-0.00123928 -8.77113e-05 0)
(-0.0011718 -9.37859e-05 0)
(-0.0011001 -9.78407e-05 0)
(-0.00102558 -0.000100222 0)
(-0.000949421 -0.00010123 0)
(-0.000872592 -0.000101115 0)
(-0.000795905 -0.00010008 0)
(-0.000720037 -9.82835e-05 0)
(-0.000645562 -9.58412e-05 0)
(-0.000572981 -9.28299e-05 0)
(-0.000502747 -8.92914e-05 0)
(-0.000435288 -8.52369e-05 0)
(-0.000371022 -8.06535e-05 0)
(-0.00031038 -7.55087e-05 0)
(-0.000253807 -6.97554e-05 0)
(-0.000201772 -6.33374e-05 0)
(-0.000154767 -5.61976e-05 0)
(-0.000113295 -4.82916e-05 0)
(-7.78538e-05 -3.96136e-05 0)
(-4.88894e-05 -3.02432e-05 0)
(-2.6726e-05 -2.04319e-05 0)
(-1.14515e-05 -1.07632e-05 0)
(-2.78569e-06 -2.48712e-06 0)
(1.48437e-07 1.79054e-06 0)
(2.85875e-07 -1.23755e-07 0)
(6.79739e-06 -1.04291e-05 0)
(2.14418e-05 -2.61907e-05 0)
(4.48005e-05 -4.40352e-05 0)
(7.69268e-05 -6.21636e-05 0)
(0.000117678 -7.96284e-05 0)
(0.000166688 -9.59571e-05 0)
(0.000223435 -0.000110949 0)
(0.000287315 -0.000124556 0)
(0.000357687 -0.000136807 0)
(0.000433906 -0.000147767 0)
(0.000515333 -0.000157511 0)
(0.000601346 -0.000166104 0)
(0.000691333 -0.000173589 0)
(0.000784684 -0.000179973 0)
(0.000880774 -0.00018522 0)
(0.000978941 -0.000189235 0)
(0.00107846 -0.000191864 0)
(0.0011785 -0.000192876 0)
(0.00127811 -0.00019196 0)
(0.00137617 -0.000188718 0)
(0.00147133 -0.000182666 0)
(0.001562 -0.000173236 0)
(0.0016463 -0.000159788 0)
(0.00172204 -0.000141634 0)
(0.00178668 -0.000118081 0)
(0.00183734 -8.84805e-05 0)
(0.00187089 -5.23136e-05 0)
(0.00188393 -9.28182e-06 0)
(0.00187302 4.05805e-05 0)
(0.00183478 9.67944e-05 0)
(0.00176621 0.000158336 0)
(0.00166494 0.000223576 0)
(0.00152956 0.00029027 0)
(0.00135997 0.000355642 0)
(0.00115756 0.000416543 0)
(0.000925439 0.0004697 0)
(0.000668403 0.000512011 0)
(0.000392765 0.000540861 0)
(0.000106039 0.000554399 0)
(-0.00018353 0.000551745 0)
(-0.000467513 0.00053309 0)
(-0.000737865 0.000499671 0)
(-0.000987452 0.00045363 0)
(-0.00121046 0.000397781 0)
(-0.00140269 0.000335311 0)
(-0.00156162 0.000269469 0)
(-0.00168637 0.000203287 0)
(-0.00177752 0.000139359 0)
(-0.00183682 7.97138e-05 0)
(-0.00186686 2.57652e-05 0)
(-0.00187078 -2.16604e-05 0)
(-0.00185199 -6.22414e-05 0)
(-0.00181391 -9.60623e-05 0)
(-0.00175984 -0.000123504 0)
(-0.00169284 -0.000145136 0)
(-0.00161565 -0.000161623 0)
(-0.00153067 -0.000173656 0)
(-0.00143998 -0.000181907 0)
(-0.00134535 -0.000186997 0)
(-0.00124827 -0.000189468 0)
(-0.00114999 -0.000189776 0)
(-0.00105158 -0.000188294 0)
(-0.000953924 -0.000185311 0)
(-0.000857789 -0.000181045 0)
(-0.000763857 -0.000175643 0)
(-0.000672743 -0.00016919 0)
(-0.000585029 -0.000161719 0)
(-0.000501284 -0.000153219 0)
(-0.000422077 -0.000143648 0)
(-0.000347989 -0.000132943 0)
(-0.000279616 -0.000121027 0)
(-0.000217565 -0.000107835 0)
(-0.000162436 -9.33286e-05 0)
(-0.0001148 -7.75453e-05 0)
(-7.51539e-05 -6.06635e-05 0)
(-4.38492e-05 -4.31204e-05 0)
(-2.10358e-05 -2.58088e-05 0)
(-6.6965e-06 -1.04469e-05 0)
(-2.84744e-07 -2.71261e-07 0)
(6.83652e-07 -4.26751e-06 0)
(1.07061e-05 -2.33977e-05 0)
(3.11183e-05 -4.84457e-05 0)
(6.20609e-05 -7.58013e-05 0)
(0.000103203 -0.000103382 0)
(0.000154259 -0.000129998 0)
(0.00021479 -0.000154999 0)
(0.000284205 -0.000178067 0)
(0.000361819 -0.000199085 0)
(0.000446898 -0.000218054 0)
(0.000538681 -0.000235031 0)
(0.000636409 -0.000250099 0)
(0.000739326 -0.00026333 0)
(0.000846684 -0.00027477 0)
(0.000957735 -0.000284418 0)
(0.00107171 -0.000292205 0)
(0.0011878 -0.000297985 0)
(0.00130513 -0.000301514 0)
(0.00142271 -0.00030244 0)
(0.00153942 -0.000300291 0)
(0.00165395 -0.000294467 0)
(0.00176476 -0.000284236 0)
(0.00187004 -0.00026874 0)
(0.00196765 -0.000247013 0)
(0.00205509 -0.000218016 0)
(0.0021295 -0.000180692 0)
(0.0021876 -0.000134053 0)
(0.00222578 -7.7291e-05 0)
(0.00224012 -9.93155e-06 0)
(0.00222656 6.80011e-05 0)
(0.00218109 0.000155803 0)
(0.00210004 0.000251928 0)
(0.00198043 0.000353878 0)
(0.00182039 0.000458186 0)
(0.00161956 0.000560523 0)
(0.0013794 0.000655953 0)
(0.00110349 0.000739321 0)
(0.000797479 0.000805726 0)
(0.000468938 0.000851027 0)
(0.000126946 0.000872291 0)
(-0.000218492 0.000868121 0)
(-0.000557139 0.000838821 0)
(-0.000879246 0.000786352 0)
(-0.00117621 0.00071411 0)
(-0.00144111 0.000626549 0)
(-0.00166901 0.000528698 0)
(-0.00185709 0.000425668 0)
(-0.00200451 0.000322201 0)
(-0.00211218 0.000222333 0)
(-0.00218238 0.000129189 0)
(-0.00221832 4.49267e-05 0)
(-0.00222378 -2.92156e-05 0)
(-0.00220282 -9.27784e-05 0)
(-0.00215942 -0.000145916 0)
(-0.0020974 -0.000189227 0)
(-0.00202026 -0.000223588 0)
(-0.00193111 -0.000250013 0)
(-0.00183269 -0.000269552 0)
(-0.00172734 -0.000283218 0)
(-0.00161708 -0.000291946 0)
(-0.00150362 -0.000296554 0)
(-0.0013884 -0.000297734 0)
(-0.00127265 -0.000296049 0)
(-0.00115743 -0.000291942 0)
(-0.00104366 -0.000285744 0)
(-0.00093217 -0.000277685 0)
(-0.000823712 -0.000267902 0)
(-0.000719008 -0.000256455 0)
(-0.000618757 -0.000243342 0)
(-0.000523661 -0.000228518 0)
(-0.000434423 -0.000211909 0)
(-0.000351758 -0.000193434 0)
(-0.000276375 -0.000173031 0)
(-0.000208966 -0.000150689 0)
(-0.000150175 -0.000126507 0)
(-0.00010056 -0.00010077 0)
(-6.05379e-05 -7.40795e-05 0)
(-3.03937e-05 -4.75529e-05 0)
(-1.04783e-05 -2.3167e-05 0)
(-6.72838e-07 -4.3644e-06 0)
(1.01624e-06 -1.03265e-05 0)
(1.41892e-05 -4.09685e-05 0)
(3.99018e-05 -7.7228e-05 0)
(7.7861e-05 -0.000115588 0)
(0.000127325 -0.00015388 0)
(0.000187818 -0.000190774 0)
(0.000258781 -0.00022548 0)
(0.000339522 -0.000257571 0)
(0.000429254 -0.000286857 0)
(0.000527131 -0.000313294 0)
(0.000632273 -0.000336923 0)
(0.000743794 -0.000357824 0)
(0.000860811 -0.000376076 0)
(0.00098245 -0.000391725 0)
(0.00110783 -0.000404758 0)
(0.00123607 -0.000415078 0)
(0.00136625 -0.000422481 0)
(0.00149736 -0.000426637 0)
(0.00162832 -0.00042707 0)
(0.0017579 -0.000423141 0)
(0.00188469 -0.000414041 0)
(0.00200705 -0.000398779 0)
(0.00212306 -0.000376191 0)
(0.00223047 -0.000344959 0)
(0.00232664 -0.000303654 0)
(0.00240851 -0.00025081 0)
(0.0024726 -0.000185028 0)
(0.00251496 -0.000105142 0)
(0.00253126 -1.04118e-05 0)
(0.00251693 9.92283e-05 0)
(0.0024673 0.000222908 0)
(0.00237799 0.000358573 0)
(0.00224529 0.000502797 0)
(0.00206663 0.000650731 0)
(0.00184118 0.000796237 0)
(0.00157026 0.000932235 0)
(0.00125768 0.00105128 0)
(0.000909851 0.00114624 0)
(0.000535524 0.00121109 0)
(0.000145341 0.00124154 0)
(-0.000248902 0.00123555 0)
(-0.000635115 0.00119357 0)
(-0.00100182 0.00111847 0)
(-0.00133898 0.00101519 0)
(-0.00163863 0.000890242 0)
(-0.00189529 0.000750907 0)
(-0.00210603 0.000604552 0)
(-0.00227029 0.000457953 0)
(-0.00238956 0.000316806 0)
(-0.00246679 0.000185458 0)
(-0.00250593 6.68387e-05 0)
(-0.00251147 -3.74299e-05 0)
(-0.00248802 -0.00012682 0)
(-0.00244007 -0.000201641 0)
(-0.00237182 -0.00026279 0)
(-0.00228704 -0.000311522 0)
(-0.00218907 -0.000349264 0)
(-0.0020808 -0.000377465 0)
(-0.00196471 -0.000397514 0)
(-0.00184292 -0.00041068 0)
(-0.00171726 -0.000418072 0)
(-0.00158926 -0.000420627 0)
(-0.00146025 -0.000419106 0)
(-0.0013314 -0.000414109 0)
(-0.00120374 -0.000406084 0)
(-0.0010782 -0.000395345 0)
(-0.00095566 -0.00038208 0)
(-0.000836953 -0.000366378 0)
(-0.000722904 -0.000348249 0)
(-0.000614335 -0.000327645 0)
(-0.000512076 -0.000304488 0)
(-0.000416959 -0.000278699 0)
(-0.00032981 -0.000250232 0)
(-0.000251424 -0.000219116 0)
(-0.000182541 -0.000185519 0)
(-0.000123812 -0.000149828 0)
(-7.57635e-05 -0.000112769 0)
(-3.88574e-05 -7.55835e-05 0)
(-1.38355e-05 -4.03148e-05 0)
(-9.97233e-07 -1.02946e-05 0)
(1.28031e-06 -1.80184e-05 0)
(1.71273e-05 -6.25977e-05 0)
(4.74771e-05 -0.000111878 0)
(9.16769e-05 -0.000162651 0)
(0.00014861 -0.000212809 0)
(0.000217588 -0.000260963 0)
(0.000297897 -0.000306224 0)
(0.000388703 -0.000348067 0)
(0.000489074 -0.000386226 0)
(0.000598024 -0.000420611 0)
(0.000714531 -0.000451242 0)
(0.000837571 -0.000478199 0)
(0.000966128 -0.000501567 0)
(0.0010992 -0.000521399 0)
(0.0012358 -0.000537678 0)
(0.00137494 -0.000550285 0)
(0.0015156 -0.000558971 0)
(0.00165671 -0.000563326 0)
(0.00179714 -0.000562761 0)
(0.00193561 -0.000556485 0)
(0.00207069 -0.000543485 0)
(0.00220075 -0.00052252 0)
(0.00232387 -0.000492122 0)
(0.00243783 -0.00045061 0)
(0.00253999 -0.000396145 0)
(0.00262731 -0.0003268 0)
(0.00269621 -0.000240704 0)
(0.0027426 -0.000136223 0)
(0.00276186 -1.22314e-05 0)
(0.00274896 0.000131571 0)
(0.00269861 0.000294285 0)
(0.00260559 0.000473439 0)
(0.00246524 0.000664697 0)
(0.00227408 0.000861721 0)
(0.00203047 0.00105631 0)
(0.00173529 0.00123885 0)
(0.0013924 0.00139912 0)
(0.00100883 0.00152727 0)
(0.000594505 0.00161492 0)
(0.000161728 0.0016561 0)
(-0.00027577 0.00164796 0)
(-0.000703886 0.00159114 0)
(-0.00110928 0.00148963 0)
(-0.00148043 0.00135034 0)
(-0.00180838 0.00118227 0)
(-0.00208724 0.000995484 0)
(-0.00231423 0.000800048 0)
(-0.0024894 0.000605108 0)
(-0.00261505 0.000418222 0)
(-0.00269511 0.000245017 0)
(-0.00273443 8.91535e-05 0)
(-0.00273822 -4.74766e-05 0)
(-0.00271168 -0.000164416 0)
(-0.00265968 -0.000262268 0)
(-0.00258665 -0.000342347 0)
(-0.00249649 -0.000406377 0)
(-0.00239258 -0.000456255 0)
(-0.0022778 -0.000493872 0)
(-0.00215464 -0.000521007 0)
(-0.0020252 -0.000539268 0)
(-0.00189127 -0.000550051 0)
(-0.00175441 -0.000554528 0)
(-0.00161599 -0.00055365 0)
(-0.0014772 -0.000548162 0)
(-0.00133914 -0.000538622 0)
(-0.00120282 -0.000525413 0)
(-0.00106921 -0.000508773 0)
(-0.000939241 -0.00048881 0)
(-0.000813858 -0.000465538 0)
(-0.000694003 -0.000438904 0)
(-0.000580636 -0.000408826 0)
(-0.000474726 -0.000375225 0)
(-0.000377235 -0.000338076 0)
(-0.000289093 -0.000297455 0)
(-0.000211175 -0.000253601 0)
(-0.000144263 -0.00020699 0)
(-8.90278e-05 -0.000158439 0)
(-4.61262e-05 -0.000109233 0)
(-1.66526e-05 -6.134e-05 0)
(-1.25255e-06 -1.77774e-05 0)
(1.47832e-06 -2.70408e-05 0)
(1.94898e-05 -8.76524e-05 0)
(5.3738e-05 -0.000151605 0)
(0.000103321 -0.000216124 0)
(0.000166819 -0.000279241 0)
(0.000243333 -0.000339557 0)
(0.000331961 -0.000396103 0)
(0.000431676 -0.000448263 0)
(0.000541359 -0.000495695 0)
(0.000659835 -0.000538268 0)
(0.000785913 -0.00057599 0)
(0.000918404 -0.000608946 0)
(0.00105615 -0.000637243 0)
(0.00119803 -0.000660954 0)
(0.00134294 -0.000680076 0)
(0.00148981 -0.000694484 0)
(0.00163756 -0.000703901 0)
(0.00178509 -0.000707863 0)
(0.00193124 -0.000705691 0)
(0.00207477 -0.000696463 0)
(0.0022143 -0.000678994 0)
(0.00234829 -0.000651818 0)
(0.00247496 -0.000613181 0)
(0.00259223 -0.000561054 0)
(0.00269766 -0.000493175 0)
(0.00278835 -0.000407128 0)
(0.00286085 -0.000300487 0)
(0.0029111 -0.000171039 0)
(0.00293434 -1.70932e-05 0)
(0.00292518 0.000162094 0)
(0.00287769 0.000365822 0)
(0.00278574 0.00059141 0)
(0.00264347 0.000833721 0)
(0.00244612 0.00108488 0)
(0.00219088 0.00133439 0)
(0.0018778 0.00156964 0)
(0.00151054 0.00177707 0)
(0.00109663 0.00194345 0)
(0.000647225 0.00205748 0)
(0.000176437 0.00211109 0)
(-0.000299814 0.00210043 0)
(-0.000765146 0.00202635 0)
(-0.00120414 0.00189429 0)
(-0.00160364 0.00171359 0)
(-0.00195374 0.00149635 0)
(-0.00224831 0.00125605 0)
(-0.00248503 0.00100597 0)
(-0.0026649 0.000758022 0)
(-0.0027915 0.000521778 0)
(-0.00286998 0.000304134 0)
(-0.00290629 0.000109334 0)
(-0.00290647 -6.06724e-05 0)
(-0.00287622 -0.000205721 0)
(-0.0028207 -0.000326911 0)
(-0.0027444 -0.000426125 0)
(-0.00265115 -0.000505665 0)
(-0.00254419 -0.000567956 0)
(-0.00242624 -0.000615356 0)
(-0.00229962 -0.000650034 0)
(-0.00216627 -0.000673923 0)
(-0.00202789 -0.000688679 0)
(-0.00188595 -0.000695683 0)
(-0.00174177 -0.000696049 0)
(-0.00159655 -0.000690645 0)
(-0.00145139 -0.000680112 0)
(-0.00130735 -0.000664891 0)
(-0.00116547 -0.000645243 0)
(-0.00102678 -0.000621285 0)
(-0.000892313 -0.000593019 0)
(-0.000763151 -0.000560376 0)
(-0.000640393 -0.000523254 0)
(-0.000525168 -0.000481572 0)
(-0.000418606 -0.00043532 0)
(-0.00032182 -0.000384617 0)
(-0.000235861 -0.000329773 0)
(-0.000161693 -0.000271352 0)
(-0.000100156 -0.000210241 0)
(-5.21005e-05 -0.000147728 0)
(-1.89002e-05 -8.56232e-05 0)
(-1.43752e-06 -2.65201e-05 0)
(1.61351e-06 -3.70937e-05 0)
(2.12821e-05 -0.000115483 0)
(5.86859e-05 -0.000195593 0)
(0.000112805 -0.000275126 0)
(0.000182004 -0.000352272 0)
(0.000265188 -0.000425615 0)
(0.000361226 -0.000494101 0)
(0.000468847 -0.000557014 0)
(0.000586682 -0.000613944 0)
(0.000713323 -0.000664726 0)
(0.00084736 -0.000709372 0)
(0.000987422 -0.000748 0)
(0.00113219 -0.000780757 0)
(0.00128042 -0.000807765 0)
(0.0014309 -0.000829054 0)
(0.0015825 -0.000844526 0)
(0.00173409 -0.000853901 0)
(0.00188457 -0.000856693 0)
(0.0020328 -0.000852168 0)
(0.00217762 -0.000839315 0)
(0.00231778 -0.00081682 0)
(0.0024519 -0.000783035 0)
(0.00257843 -0.000735967 0)
(0.0026956 -0.000673272 0)
(0.0028013 -0.000592281 0)
(0.00289296 -0.000490072 0)
(0.00296749 -0.000363602 0)
(0.00302106 -0.000209937 0)
(0.00304899 -2.66173e-05 0)
(0.00304567 0.000187837 0)
(0.00300461 0.000433269 0)
(0.00291863 0.000707127 0)
(0.00278047 0.00100372 0)
(0.00258362 0.0013137 0)
(0.00232359 0.00162402 0)
(0.00199917 0.00191858 0)
(0.00161347 0.0021797 0)
(0.00117438 0.00239001 0)
(0.000694375 0.00253451 0)
(0.000189616 0.00260251 0)
(-0.000321456 0.00258888 0)
(-0.000819815 0.00249477 0)
(-0.00128766 0.00232742 0)
(-0.00171003 0.00209925 0)
(-0.00207605 0.00182627 0)
(-0.00237958 0.00152609 0)
(-0.00261914 0.00121594 0)
(-0.0027972 0.000910836 0)
(-0.00291903 0.000622531 0)
(-0.00299145 0.000359048 0)
(-0.00302168 0.000124931 0)
(-0.00301661 -7.81537e-05 0)
(-0.00298239 -0.000250659 0)
(-0.00292424 -0.000394436 0)
(-0.00284653 -0.000512126 0)
(-0.00275279 -0.000606714 0)
(-0.00264592 -0.000681208 0)
(-0.00252831 -0.000738431 0)
(-0.00240192 -0.000780924 0)
(-0.00226846 -0.000810898 0)
(-0.00212941 -0.000830228 0)
(-0.00198609 -0.000840457 0)
(-0.00183971 -0.00084282 0)
(-0.00169142 -0.000838268 0)
(-0.00154231 -0.000827497 0)
(-0.00139346 -0.000810972 0)
(-0.00124595 -0.000788957 0)
(-0.00110088 -0.000761549 0)
(-0.000959408 -0.000728718 0)
(-0.000822732 -0.000690352 0)
(-0.000692115 -0.000646315 0)
(-0.000568869 -0.000596497 0)
(-0.00045434 -0.000540889 0)
(-0.000349868 -0.000479647 0)
(-0.000256744 -0.000413152 0)
(-0.00017616 -0.000342061 0)
(-0.000109165 -0.000267345 0)
(-5.67856e-05 -0.000190296 0)
(-2.05866e-05 -0.000112559 0)
(-1.55355e-06 -3.62529e-05 0)
(1.686e-06 -4.78867e-05 0)
(2.25146e-05 -0.000145459 0)
(6.23681e-05 -0.000243062 0)
(0.000120251 -0.000338845 0)
(0.000194411 -0.000431099 0)
(0.000283553 -0.000518332 0)
(0.000386275 -0.000599362 0)
(0.000500989 -0.000673356 0)
(0.00062601 -0.000739837 0)
(0.00075963 -0.000798631 0)
(0.000900188 -0.000849784 0)
(0.0010461 -0.000893478 0)
(0.00119587 -0.000929943 0)
(0.00134813 -0.000959377 0)
(0.00150159 -0.000981883 0)
(0.00165503 -0.000997416 0)
(0.00180732 -0.00100573 0)
(0.00195736 -0.00100637 0)
(0.00210408 -0.000998571 0)
(0.00224642 -0.000981298 0)
(0.00238329 -0.000953164 0)
(0.00251358 -0.000912407 0)
(0.00263606 -0.00085686 0)
(0.00274934 -0.00078393 0)
(0.00285181 -0.000690593 0)
(0.00294145 -0.000573433 0)
(0.00301573 -0.00042875 0)
(0.00307134 -0.000252767 0)
(0.00310397 -4.20135e-05 0)
(0.00310804 0.00020609 0)
(0.00307663 0.000492404 0)
(0.00300153 0.000815029 0)
(0.00287376 0.00116817 0)
(0.00268461 0.00154121 0)
(0.00242727 0.00191834 0)
(0.00209861 0.00227937 0)
(0.00170079 0.00260156 0)
(0.00124193 0.00286232 0)
(0.000735893 0.00304205 0)
(0.000201204 0.0031267 0)
(-0.000340766 0.00310957 0)
(-0.000867916 0.00299218 0)
(-0.00135968 0.00278407 0)
(-0.00179909 0.00250154 0)
(-0.00217433 0.00216548 0)
(-0.00247948 0.00179871 0)
(-0.00271442 0.00142315 0)
(-0.0028837 0.00105743 0)
(-0.00299492 0.000715486 0)
(-0.00305693 0.000406182 0)
(-0.00307841 0.000133879 0)
(-0.00306708 -0.000100541 0)
(-0.0030293 -0.000298574 0)
(-0.00297016 -0.00046314 0)
(-0.00289356 -0.000597833 0)
(-0.00280252 -0.000706424 0)
(-0.00269935 -0.000792519 0)
(-0.00258589 -0.000859383 0)
(-0.00246367 -0.000909865 0)
(-0.00233402 -0.000946389 0)
(-0.00219812 -0.000970976 0)
(-0.0020571 -0.00098527 0)
(-0.00191203 -0.00099057 0)
(-0.00176396 -0.000987864 0)
(-0.00161394 -0.000977858 0)
(-0.00146305 -0.000961008 0)
(-0.00131241 -0.000937548 0)
(-0.00116318 -0.000907524 0)
(-0.00101662 -0.000870843 0)
(-0.000874065 -0.000827321 0)
(-0.000736948 -0.000776746 0)
(-0.000606798 -0.000718954 0)
(-0.000485213 -0.000653907 0)
(-0.000373821 -0.000581776 0)
(-0.000274223 -0.000503013 0)
(-0.000187907 -0.000418391 0)
(-0.000116176 -0.000329008 0)
(-6.02303e-05 -0.000236227 0)
(-2.1729e-05 -0.000141581 0)
(-1.60558e-06 -4.67292e-05 0)
(1.68991e-06 -5.91315e-05 0)
(2.3183e-05 -0.000176979 0)
(6.48423e-05 -0.000293303 0)
(0.000125851 -0.000406591 0)
(0.000204425 -0.000515083 0)
(0.000299047 -0.000617088 0)
(0.000407963 -0.000711216 0)
(0.000529181 -0.000796494 0)
(0.000660615 -0.000872391 0)
(0.000800202 -0.000938759 0)
(0.000945984 -0.000995729 0)
(0.00109614 -0.0010436 0)
(0.00124902 -0.00108272 0)
(0.0014031 -0.00111342 0)
(0.00155702 -0.0011359 0)
(0.00170952 -0.00115022 0)
(0.00185943 -0.00115621 0)
(0.0020057 -0.00115345 0)
(0.00214732 -0.00114125 0)
(0.00228337 -0.00111858 0)
(0.00241297 -0.00108406 0)
(0.00253525 -0.00103589 0)
(0.00264939 -0.000971843 0)
(0.0027545 -0.000889158 0)
(0.00284956 -0.000784555 0)
(0.0029333 -0.000654196 0)
(0.00300402 -0.000493732 0)
(0.00305924 -0.000298459 0)
(0.00309539 -6.36605e-05 0)
(0.00310735 0.000214762 0)
(0.00308806 0.000539301 0)
(0.00302841 0.000909467 0)
(0.0029175 0.0013201 0)
(0.00274386 0.00175974 0)
(0.0024975 0.00220972 0)
(0.00217264 0.00264498 0)
(0.00176992 0.00303656 0)
(0.00129747 0.00335528 0)
(0.000770719 0.00357572 0)
(0.000210859 0.00367964 0)
(-0.000357358 0.00365837 0)
(-0.000908286 0.00351389 0)
(-0.00141821 0.00325866 0)
(-0.00186793 0.00291388 0)
(-0.00224469 0.00250662 0)
(-0.0025432 0.00206617 0)
(-0.0027653 0.00162016 0)
(-0.00291843 0.00119133 0)
(-0.00301322 0.000795691 0)
(-0.00306098 0.000442378 0)
(-0.00307195 0.000134822 0)
(-0.00305443 -0.000127573 0)
(-0.00301471 -0.000347881 0)
(-0.00295731 -0.00053043 0)
(-0.00288534 -0.00067995 0)
(-0.00280097 -0.000801046 0)
(-0.00270571 -0.000897899 0)
(-0.00260069 -0.000974133 0)
(-0.00248687 -0.0010328 0)
(-0.00236512 -0.00107645 0)
(-0.00223629 -0.00110713 0)
(-0.00210128 -0.00112653 0)
(-0.00196098 -0.00113593 0)
(-0.00181635 -0.00113631 0)
(-0.00166838 -0.00112834 0)
(-0.00151814 -0.00111242 0)
(-0.00136677 -0.00108873 0)
(-0.0012155 -0.00105722 0)
(-0.00106566 -0.00101771 0)
(-0.00091874 -0.000969885 0)
(-0.000776341 -0.000913425 0)
(-0.00064023 -0.000848058 0)
(-0.0005123 -0.00077367 0)
(-0.000394529 -0.000690416 0)
(-0.000288904 -0.000598807 0)
(-0.000197307 -0.000499765 0)
(-0.000121369 -0.000394598 0)
(-6.24884e-05 -0.000284867 0)
(-2.23289e-05 -0.000172139 0)
(-1.60079e-06 -5.76911e-05 0)
(1.61043e-06 -7.05239e-05 0)
(2.32552e-05 -0.000209467 0)
(6.61668e-05 -0.000345712 0)
(0.000129865 -0.00047785 0)
(0.000212583 -0.000603804 0)
(0.000312509 -0.000721482 0)
(0.000427415 -0.000829183 0)
(0.000554785 -0.000925776 0)
(0.000692042 -0.00101071 0)
(0.000836712 -0.00108393 0)
(0.000986515 -0.00114572 0)
(0.0011394 -0.00119656 0)
(0.00129353 -0.00123698 0)
(0.00144728 -0.00126748 0)
(0.00159922 -0.00128841 0)
(0.00174804 -0.00129996 0)
(0.00189258 -0.00130208 0)
(0.00203181 -0.00129443 0)
(0.00216479 -0.00127644 0)
(0.00229072 -0.00124715 0)
(0.00240891 -0.00120527 0)
(0.00251881 -0.00114907 0)
(0.00261997 -0.00107636 0)
(0.00271204 -0.000984358 0)
(0.00279471 -0.000869677 0)
(0.00286759 -0.000728195 0)
(0.00293005 -0.000555018 0)
(0.00298083 -0.000344511 0)
(0.00301758 -9.05392e-05 0)
(0.00303617 0.00021294 0)
(0.00303003 0.000570792 0)
(0.0029895 0.000984969 0)
(0.00290176 0.0014521 0)
(0.00275192 0.00196072 0)
(0.00252587 0.00248934 0)
(0.00221412 0.00300709 0)
(0.00181513 0.00347727 0)
(0.00133684 0.0038624 0)
(0.000796336 0.00412976 0)
(0.000217828 0.00425592 0)
(-0.000370168 0.00422972 0)
(-0.000938055 0.00405376 0)
(-0.00145863 0.00374415 0)
(-0.00191027 0.00332825 0)
(-0.0022794 0.00284089 0)
(-0.00256176 0.00231949 0)
(-0.00276199 0.00179864 0)
(-0.00289138 0.00130571 0)
(-0.00296441 0.000858446 0)
(-0.00299526 0.000465263 0)
(-0.00299553 0.000127549 0)
(-0.00297368 -0.000157686 0)
(-0.00293534 -0.000395694 0)
(-0.00288393 -0.000592536 0)
(-0.00282137 -0.000754179 0)
(-0.00274865 -0.000886041 0)
(-0.00266624 -0.000992763 0)
(-0.00257444 -0.00107818 0)
(-0.00247354 -0.0011454 0)
(-0.00236394 -0.00119694 0)
(-0.00224617 -0.0012348 0)
(-0.00212086 -0.00126058 0)
(-0.00198877 -0.0012755 0)
(-0.00185074 -0.00128047 0)
(-0.00170772 -0.00127607 0)
(-0.00156076 -0.00126263 0)
(-0.00141101 -0.0012402 0)
(-0.00125974 -0.00120864 0)
(-0.00110839 -0.00116761 0)
(-0.000958532 -0.00111665 0)
(-0.000811971 -0.00105526 0)
(-0.000670706 -0.000982986 0)
(-0.000536952 -0.000899583 0)
(-0.000413095 -0.000805124 0)
(-0.000301603 -0.000700152 0)
(-0.000204866 -0.000585762 0)
(-0.000124974 -0.000463584 0)
(-6.35972e-05 -0.000335582 0)
(-2.23477e-05 -0.000203623 0)
(-1.53889e-06 -6.88073e-05 0)
(1.41889e-06 -8.1716e-05 0)
(2.26645e-05 -0.000242373 0)
(6.64176e-05 -0.000399841 0)
(0.000132671 -0.000552368 0)
(0.000219653 -0.000697138 0)
(0.000325088 -0.000831385 0)
(0.000446091 -0.000952988 0)
(0.000579476 -0.00106067 0)
(0.000722092 -0.00115394 0)
(0.000871017 -0.00123293 0)
(0.00102365 -0.00129818 0)
(0.00117772 -0.00135044 0)
(0.00133125 -0.00139049 0)
(0.00148254 -0.00141903 0)
(0.00163009 -0.00143662 0)
(0.00177257 -0.00144357 0)
(0.00190882 -0.00143999 0)
(0.00203781 -0.0014257 0)
(0.00215866 -0.00140023 0)
(0.00227069 -0.00136281 0)
(0.00237335 -0.00131229 0)
(0.00246635 -0.00124711 0)
(0.00254959 -0.00116526 0)
(0.00262324 -0.00106411 0)
(0.0026877 -0.000940355 0)
(0.00274355 -0.000789827 0)
(0.00279141 -0.00060731 0)
(0.0028316 -0.000386388 0)
(0.00286352 -0.000119484 0)
(0.00288485 0.000201725 0)
(0.00289037 0.000585261 0)
(0.00287074 0.00103687 0)
(0.00281152 0.00155669 0)
(0.0026939 0.00213472 0)
(0.00249838 0.00274691 0)
(0.00221059 0.00335549 0)
(0.00182603 0.00391406 0)
(0.00135217 0.0043747 0)
(0.000807931 0.00469562 0)
(0.000220715 0.00484716 0)
(-0.000377072 0.00481514 0)
(-0.000951692 0.00460285 0)
(-0.00147232 0.00423093 0)
(-0.00191492 0.00373431 0)
(-0.00226521 0.00315753 0)
(-0.00252053 0.00254821 0)
(-0.00268925 0.00194944 0)
(-0.00278763 0.00139376 0)
(-0.00283496 0.000899907 0)
(-0.00284842 0.000473973 0)
(-0.00284046 0.000113695 0)
(-0.00281877 -0.000187424 0)
(-0.00278748 -0.000437403 0)
(-0.00274827 -0.000644228 0)
(-0.00270138 -0.000815078 0)
(-0.00264634 -0.000956014 0)
(-0.00258245 -0.00107193 0)
(-0.00250907 -0.00116664 0)
(-0.00242584 -0.0012431 0)
(-0.00233274 -0.00130362 0)
(-0.00222999 -0.00135002 0)
(-0.00211804 -0.00138373 0)
(-0.0019975 -0.00140586 0)
(-0.00186916 -0.00141717 0)
(-0.00173391 -0.00141813 0)
(-0.00159279 -0.00140896 0)
(-0.00144697 -0.00138957 0)
(-0.00129776 -0.00135967 0)