/*--------------------------------*- C++ -*----------------------------------*\
| =========                 |                                                 |
| \\      /  F ield         | OpenFOAM: The Open Source CFD Toolbox           |
|  \\    /   O peration     | Version:  2412                                  |
|   \\  /    A nd           | Website:  www.openfoam.com                      |
|    \\/     M anipulation  |                                                 |
\*---------------------------------------------------------------------------*/
FoamFile
{
    version     2.0;
    format      ascii;
    arch        "LSB;label=32;scalar=64";
    class       surfaceScalarField;
    location    "4.3";
    object      alphaPhi0.lava;
}
// * * * * * * * * * * * * * * * * * * * * * * * * * * * * * * * * * * * * * //

dimensions      [0 3 -1 0 0 0 0];

oriented        oriented;

internalField   nonuniform List<scalar> 
12640
(
2.67373e-08
-2.64669e-08
4.16067e-08
-7.4599e-08
1.93412e-08
-7.83428e-08
-3.86058e-08
-9.62456e-09
-9.2131e-08
1.02653e-07
-9.12407e-08
1.8308e-07
-1.94727e-08
1.60212e-07
8.70482e-08
2.23154e-08
1.58298e-07
-1.62008e-07
1.37084e-07
-2.78773e-07
2.21302e-08
-2.40814e-07
-1.23918e-07
-5.04926e-08
-2.10125e-07
1.91489e-07
-1.75368e-07
3.41769e-07
-3.09097e-08
3.02188e-07
1.4189e-07
8.44015e-08
2.39406e-07
-1.9146e-07
1.99775e-07
-3.65982e-07
4.26139e-08
-3.35704e-07
-1.41371e-07
-1.16062e-07
-2.44678e-07
1.67167e-07
-2.07688e-07
3.52466e-07
-5.37854e-08
3.37482e-07
1.26037e-07
1.36928e-07
2.28574e-07
-1.29798e-07
1.99125e-07
-3.11486e-07
6.10522e-08
-3.12828e-07
-1.0191e-07
-1.4503e-07
-1.97429e-07
8.77298e-08
-1.77827e-07
2.537e-07
-6.35444e-08
2.69211e-07
7.42367e-08
1.40478e-07
1.58311e-07
-4.87896e-08
1.49037e-07
-1.91493e-07
6.20728e-08
-2.1794e-07
-4.68739e-08
-1.28668e-07
-1.17561e-07
1.51205e-08
-1.18335e-07
1.32378e-07
-5.87993e-08
1.67413e-07
2.17665e-08
1.14504e-07
7.98204e-08
1.25181e-08
9.05262e-08
-8.20359e-08
5.65355e-08
-1.25421e-07
1.08508e-09
-1.04693e-07
-4.72851e-08
-3.7678e-08
-6.85793e-08
4.04081e-08
-5.76334e-08
9.43304e-08
-2.26597e-08
1.02379e-07
2.03589e-08
6.28278e-08
5.38123e-08
-6.573e-09
6.37681e-08
-7.50309e-08
4.45794e-08
-1.10095e-07
2.29338e-09
-9.16815e-08
-4.535e-08
-2.36798e-08
-7.47105e-08
6.37229e-08
-6.74186e-08
1.25449e-07
-2.20066e-08
1.24041e-07
4.14848e-08
5.24747e-08
8.91188e-08
-5.67907e-08
9.10428e-08
-1.45065e-07
4.03884e-08
-1.58796e-07
-3.90766e-08
-8.23362e-08
-1.03397e-07
4.82522e-08
-1.12996e-07
1.61481e-07
-5.74125e-08
1.90094e-07
3.55296e-08
1.11693e-07
1.1358e-07
-3.47244e-08
1.30151e-07
-1.68386e-07
7.28789e-08
-2.12576e-07
-2.74441e-08
-1.39796e-07
-1.1409e-07
1.13252e-08
-1.37989e-07
1.58047e-07
-8.69852e-08
2.21156e-07
7.84763e-09
1.68774e-07
9.33039e-08
3.07288e-08
1.29004e-07
-1.22511e-07
1.12406e-07
-2.1992e-07
6.91099e-08
-2.23887e-07
2.4122e-08
-1.48858e-07
-3.57076e-08
-4.97309e-09
1.74203e-08
5.3937e-08
-4.35127e-08
8.72964e-08
-1.07471e-07
4.97288e-08
-1.02738e-07
-4.94269e-08
-8.14248e-09
-1.41162e-07
1.28976e-07
-1.50491e-07
2.15933e-07
-5.26189e-08
1.76142e-07
1.01769e-07
9.2758e-09
2.1388e-07
-1.95681e-07
2.01427e-07
-3.0975e-07
5.74758e-08
-2.46989e-07
-1.3798e-07
-2.66317e-08
-2.64574e-07
2.29661e-07
-2.37838e-07
3.68007e-07
-6.56221e-08
2.97598e-07
1.52958e-07
5.05111e-08
2.86989e-07
-2.33324e-07
2.54465e-07
-3.88582e-07
7.33128e-08
-3.23867e-07
-1.49389e-07
-7.67106e-08
-2.82896e-07
2.09378e-07
-2.51614e-07
3.70976e-07
-7.86963e-08
3.20675e-07
1.31101e-07
9.52639e-08
2.56457e-07
-1.70821e-07
2.31183e-07
-3.27462e-07
7.93616e-08
-2.95319e-07
-1.04666e-07
-1.05967e-07
-2.15785e-07
1.24296e-07
-1.99004e-07
2.667e-07
-7.60075e-08
2.52799e-07
7.47981e-08
1.06306e-07
1.68413e-07
-7.99719e-08
1.6133e-07
-2.02764e-07
7.03081e-08
-2.05526e-07
-4.50486e-08
-1.02526e-07
-1.20942e-07
3.87907e-08
-1.24304e-07
1.41197e-07
-6.51061e-08
1.59159e-07
1.66884e-08
9.65595e-08
7.74459e-08
-4.10004e-09
9.2373e-08
-8.95243e-08
6.3126e-08
-1.22664e-07
1.04918e-08
-9.60165e-08
-3.96624e-08
-2.87974e-08
-6.79707e-08
4.59662e-08
-6.63639e-08
9.61203e-08
-3.75064e-08
1.01493e-07
7.52586e-09
5.99429e-08
5.16768e-08
-1.1633e-08
7.57924e-08
-8.20118e-08
6.56369e-08
-1.16844e-07
2.0532e-08
-9.43893e-08
-4.18015e-08
-1.92783e-08
-9.00201e-08
7.45981e-08
-9.43571e-08
1.37484e-07
-4.52465e-08
1.29709e-07
3.64952e-08
4.686e-08
1.06938e-07
-7.20045e-08
1.22619e-07
-1.61582e-07
6.77693e-08
-1.66363e-07
-3.21726e-08
-7.54179e-08
-1.21603e-07
6.62338e-08
-1.46207e-07
1.79605e-07
-8.67152e-08
1.96612e-07
2.65709e-08
1.01828e-07
1.29327e-07
-5.52599e-08
1.60955e-07
-1.86753e-07
1.01658e-07
-2.1714e-07
-1.48119e-08
-1.27922e-07
-1.21742e-07
3.13787e-08
-1.60553e-07
1.72533e-07
-1.15586e-07
2.1993e-07
-1.88074e-08
1.52427e-07
7.88393e-08
1.20783e-08
1.43971e-07
-1.23016e-07
1.60679e-07
-1.86666e-07
1.33553e-07
-1.64816e-07
-7.9374e-08
-7.90061e-08
5.92187e-08
-6.19497e-09
3.29063e-08
9.74825e-08
-6.12838e-08
1.49266e-07
-1.47568e-07
8.90579e-08
-1.49727e-07
-5.75479e-08
-3.98703e-08
-1.97022e-07
1.29073e-07
-2.26597e-07
2.48448e-07
-1.07295e-07
2.25398e-07
1.00847e-07
5.17866e-08
2.70157e-07
-1.79497e-07
2.86117e-07
-3.26598e-07
1.24993e-07
-2.88336e-07
-1.24534e-07
-7.33495e-08
-3.12629e-07
1.98315e-07
-3.21281e-07
3.6527e-07
-1.3956e-07
3.2378e-07
1.27237e-07
9.32554e-08
3.21192e-07
-1.93404e-07
3.28054e-07
-3.6936e-07
1.46051e-07
-3.33822e-07
-1.14934e-07
-1.11099e-07
-3.01774e-07
1.66491e-07
-3.10224e-07
3.39504e-07
-1.44149e-07
3.15214e-07
9.23342e-08
1.18029e-07
2.61285e-07
-1.31245e-07
2.72949e-07
-2.90678e-07
1.33659e-07
-2.79426e-07
-6.58352e-08
-1.18443e-07
-2.09748e-07
9.03836e-08
-2.25145e-07
2.29041e-07
-1.18222e-07
2.30552e-07
3.85141e-08
1.10077e-07
1.5479e-07
-5.3494e-08
1.74569e-07
-1.68667e-07
1.01523e-07
-1.82253e-07
-1.2353e-08
-1.01864e-07
-1.02571e-07
1.78052e-08
-1.28177e-07
1.11204e-07
-8.81399e-08
1.3702e-07
-1.33775e-08
9.38618e-08
5.55642e-08
1.27585e-08
8.96837e-08
-6.40044e-08
8.10238e-08
-1.03746e-07
3.98165e-08
-9.44657e-08
-1.43622e-08
-4.48748e-08
-6.06663e-08
2.23007e-08
-8.19588e-08
7.90845e-08
-6.8508e-08
1.01094e-07
-2.22179e-08
7.61947e-08
4.03409e-08
1.14039e-08
9.07248e-08
-6.60835e-08
1.00097e-07
-1.17809e-07
5.59073e-08
-1.12219e-07
-2.6055e-08
-4.41198e-08
-1.04469e-07
5.67891e-08
-1.32658e-07
1.36953e-07
-8.67365e-08
1.47107e-07
1.5558e-08
7.28913e-08
1.19648e-07
-5.14312e-08
1.63291e-07
-1.57672e-07
1.14501e-07
-1.81505e-07
-5.35982e-09
-1.0211e-07
-1.30001e-07
4.12818e-08
-1.85663e-07
1.68635e-07
-1.3603e-07
2.04892e-07
-6.32585e-09
1.25444e-07
1.29831e-07
-2.72097e-08
1.94026e-07
-1.67042e-07
1.50135e-07
-2.14923e-07
2.50271e-08
-1.45154e-07
-1.10093e-07
5.18214e-10
-1.83827e-07
1.39446e-07
-1.63422e-07
1.98066e-07
-6.29353e-08
1.53911e-07
7.57896e-08
4.378e-08
1.81692e-07
-6.80602e-08
1.99429e-07
-1.32236e-07
-1.07127e-07
-1.30204e-07
6.15541e-08
-1.02316e-07
1.06548e-07
1.45238e-08
5.41448e-08
1.53668e-07
-7.73772e-08
2.0582e-07
-2.02116e-07
1.14834e-07
-2.16774e-07
-7.97792e-08
-8.21766e-08
-2.56656e-07
1.37277e-07
-2.89452e-07
3.06091e-07
-1.36129e-07
3.04072e-07
1.23332e-07
1.10488e-07
3.30714e-07
-1.72217e-07
3.49251e-07
-3.75337e-07
1.54569e-07
-3.68092e-07
-1.43979e-07
-1.42905e-07
-3.67752e-07
1.74342e-07
-3.79175e-07
3.97855e-07
-1.67913e-07
3.94407e-07
1.41692e-07
1.64594e-07
3.66683e-07
-1.57353e-07
3.76709e-07
-3.8481e-07
1.71187e-07
-3.90048e-07
-1.24033e-07
-1.77601e-07
-3.35838e-07
1.2319e-07
-3.47742e-07
3.38835e-07
-1.64909e-07
3.53975e-07
9.64455e-08
1.73878e-07
2.83911e-07
-8.70907e-08
2.9925e-07
-2.78726e-07
1.49792e-07
-3.02669e-07
-6.57157e-08
-1.62535e-07
-2.22317e-07
4.8562e-08
-2.41815e-07
2.09432e-07
-1.30706e-07
2.40618e-07
3.4475e-08
1.42306e-07
1.58899e-07
-1.67446e-08
1.837e-07
-1.45916e-07
1.11765e-07
-1.83902e-07
-4.54002e-09
-1.25652e-07
-9.9961e-08
-1.4961e-08
-1.32268e-07
8.65667e-08
-9.8171e-08
1.32896e-07
-2.55835e-08
1.11738e-07
4.71799e-08
4.25702e-08
9.05787e-08
-3.86428e-08
9.25103e-08
-9.69295e-08
5.70366e-08
-1.10367e-07
-8.52759e-10
-7.51707e-08
-5.98106e-08
-5.70602e-09
-9.63152e-08
6.94413e-08
-9.14521e-08
1.16154e-07
-4.07133e-08
1.0842e-07
3.83274e-08
4.29084e-08
1.08401e-07
-5.38182e-08
1.28727e-07
-1.33248e-07
7.90211e-08
-1.48266e-07
-2.3054e-08
-8.13348e-08
-1.25002e-07
3.9601e-08
-1.65976e-07
1.50583e-07
-1.13647e-07
1.85249e-07
1.13373e-08
1.15069e-07
1.41394e-07
-2.86811e-08
1.98875e-07
-1.67604e-07
1.43436e-07
-2.19552e-07
3.3876e-10
-1.48279e-07
-1.50393e-07
1.13918e-08
-2.19912e-07
1.70529e-07
-1.64594e-07
2.37094e-07
-1.40255e-08
1.70921e-07
1.45536e-07
8.57177e-09
2.22806e-07
-1.5784e-07
1.75553e-07
-2.35319e-07
3.35161e-08
-1.84325e-07
-1.22362e-07
-3.94129e-08
-2.07232e-07
1.15281e-07
-1.74946e-07
1.98324e-07
-3.71874e-08
1.75545e-07
1.1919e-07
6.90101e-08
1.89266e-07
-5.93627e-08
-1.05732e-07
-1.02145e-07
6.04048e-09
-1.59521e-07
1.10461e-07
-1.16651e-07
1.61433e-07
3.33958e-08
8.31728e-08
1.98743e-07
-9.46262e-08
2.56138e-07
-2.5504e-07
1.41971e-07
-2.75214e-07
-9.11514e-08
-1.13907e-07
-2.98596e-07
1.49114e-07
-3.36889e-07
3.5411e-07
-1.62944e-07
3.61443e-07
1.29248e-07
1.46494e-07
3.62242e-07
-1.75202e-07
3.86485e-07
-4.13166e-07
1.77612e-07
-4.1872e-07
-1.44193e-07
-1.79633e-07
-3.86536e-07
1.68405e-07
-4.03395e-07
4.22122e-07
-1.84878e-07
4.33245e-07
1.37671e-07
1.97248e-07
3.73381e-07
-1.45661e-07
3.87791e-07
-3.96573e-07
1.8107e-07
-4.16346e-07
-1.1768e-07
-2.0435e-07
-3.32869e-07
1.07795e-07
-3.47727e-07
3.39528e-07
-1.68322e-07
3.67829e-07
8.91575e-08
1.93088e-07
2.74238e-07
-7.11896e-08
2.91294e-07
-2.72282e-07
1.48432e-07
-3.07493e-07
-5.82381e-08
-1.75931e-07
-2.08848e-07
3.26007e-08
-2.29539e-07
1.97938e-07
-1.27119e-07
2.38801e-07
2.64817e-08
1.51078e-07
1.43457e-07
-1.62427e-09
1.69934e-07
-1.32228e-07
1.08265e-07
-1.792e-07
4.68903e-09
-1.3306e-07
-8.35803e-08
-3.0949e-08
-1.19107e-07
7.07725e-08
-9.68501e-08
1.26597e-07
-3.72917e-08
1.19213e-07
2.97469e-08
6.00252e-08
7.87591e-08
-2.14372e-08
9.43989e-08
-9.08546e-08
7.20378e-08
-1.20246e-07
1.79943e-08
-9.62608e-08
-4.93707e-08
-2.58823e-08
-1.01659e-07
6.27053e-08
-1.10071e-07
1.28018e-07
-6.14095e-08
1.32934e-07
2.86028e-08
6.59265e-08
1.16295e-07
-4.64669e-08
1.50078e-07
-1.47097e-07
1.01194e-07
-1.76406e-07
-1.34542e-08
-1.08035e-07
-1.33872e-07
2.97925e-08
-1.88123e-07
1.6366e-07
-1.3608e-07
2.14069e-07
1.40086e-09
1.43459e-07
1.48943e-07
-1.65119e-08
2.18622e-07
-1.78047e-07
1.63694e-07
-2.46321e-07
1.03628e-08
-1.76591e-07
-1.54412e-07
-3.93101e-09
-2.33741e-07
1.74599e-07
-1.7971e-07
2.5633e-07
-2.31354e-08
1.94205e-07
1.44783e-07
2.48378e-08
2.27549e-07
-1.53952e-07
1.80297e-07
-2.42128e-07
3.43981e-08
-1.95892e-07
-1.22575e-07
-4.99427e-08
-1.96819e-07
1.07676e-07
-1.41884e-07
1.88569e-07
-4.84671e-09
1.51078e-07
1.01892e-07
2.84605e-08
-6.35392e-08
1.21613e-08
-7.62226e-08
-1.14428e-07
2.5307e-08
-1.98966e-07
1.71415e-07
-1.45337e-07
2.20224e-07
4.24184e-08
1.11198e-07
2.43133e-07
-1.06712e-07
3.09801e-07
-2.99034e-07
1.74414e-07
-3.28084e-07
-9.62117e-08
-1.49306e-07
-3.35787e-07
1.47022e-07
-3.84474e-07
3.83315e-07
-1.96172e-07
4.04945e-07
1.24973e-07
1.82506e-07
3.85357e-07
-1.62129e-07
4.22478e-07
-4.25909e-07
2.08206e-07
-4.48389e-07
-1.31725e-07
-2.1157e-07
-3.94643e-07
1.47417e-07
-4.25362e-07
4.18895e-07
-2.09712e-07
4.46891e-07
1.19942e-07
2.20848e-07
3.6839e-07
-1.21886e-07
3.95993e-07
-3.8186e-07
1.98522e-07
-4.16399e-07
-9.78001e-08
-2.19244e-07
-3.18301e-07
8.40712e-08
-3.44629e-07
3.1719e-07
-1.78614e-07
3.57151e-07
6.93925e-08
1.99461e-07
2.53877e-07
-5.04879e-08
2.80401e-07
-2.4743e-07
1.53076e-07
-2.913e-07
-3.98101e-08
-1.77061e-07
-1.86007e-07
1.46199e-08
-2.14617e-07
1.72818e-07
-1.28552e-07
2.20296e-07
9.24454e-09
1.49241e-07
1.2006e-07
1.37441e-08
1.53806e-07
-1.09011e-07
1.08806e-07
-1.61932e-07
2.15725e-08
-1.3184e-07
-6.0429e-08
-4.61845e-08
-1.03641e-07
4.85651e-08
-9.8522e-08
1.11027e-07
-5.52218e-08
1.19722e-07
6.42708e-09
7.61053e-08
6.44272e-08
3.17677e-11
9.81619e-08
-7.763e-08
9.19997e-08
-1.23941e-07
4.21765e-08
-1.15146e-07
-3.58691e-08
-4.87212e-08
-1.07543e-07
4.98869e-08
-1.32361e-07
1.33391e-07
-8.70281e-08
1.53768e-07
1.50276e-08
9.00758e-08
1.23138e-07
-3.33628e-08
1.7361e-07
-1.53068e-07
1.27798e-07
-1.98412e-07
8.64957e-10
-1.33829e-07
-1.39872e-07
1.44482e-08
-2.10658e-07
1.66844e-07
-1.62186e-07
2.33434e-07
-1.39937e-08
1.68118e-07
1.51729e-07
5.24688e-10
2.36677e-07
-1.76552e-07
1.86382e-07
-2.5977e-07
2.59937e-08
-1.97351e-07
-1.52266e-07
-2.2251e-08
-2.4379e-07
1.65631e-07
-1.95096e-07
2.58445e-07
-3.61808e-08
2.04819e-07
1.38202e-07
3.96467e-08
2.26446e-07
-1.38714e-07
1.80961e-07
-2.28987e-07
3.57959e-08
-1.86979e-07
-1.15207e-07
-4.89915e-08
-1.77884e-07
9.32474e-08
-1.23992e-07
1.50313e-07
-2.15519e-08
9.87039e-08
6.66751e-09
1.52274e-07
-1.25364e-07
2.77646e-08
-1.01023e-07
-1.56385e-07
5.54556e-08
-2.5996e-07
2.2041e-07
-1.77264e-07
2.7033e-07
5.38821e-08
1.41673e-07
2.86966e-07
-1.11022e-07
3.59314e-07
-3.35576e-07
2.03176e-07
-3.77857e-07
-1.00721e-07
-1.88129e-07
-3.67438e-07
1.35918e-07
-4.2419e-07
4.02205e-07
-2.23653e-07
4.42473e-07
1.20775e-07
2.20606e-07
4.0244e-07
-1.39581e-07
4.49397e-07
-4.26787e-07
2.31569e-07
-4.7038e-07
-1.20719e-07
-2.44338e-07
-3.97715e-07
1.17586e-07
-4.3864e-07
4.03872e-07
-2.26929e-07
4.52421e-07
1.04833e-07
2.44367e-07
3.60007e-07
-9.0521e-08
3.97029e-07
-3.56555e-07
2.09056e-07
-4.08935e-07
-8.11173e-08
-2.33619e-07
-3.02061e-07
5.41942e-08
-3.36481e-07
2.86088e-07
-1.83464e-07
3.40255e-07
5.27539e-08
2.05368e-07
2.33238e-07
-2.48827e-08
2.66625e-07
-2.15687e-07
1.5412e-07
-2.7035e-07
-2.38795e-08
-1.77991e-07
-1.63706e-07
-7.25576e-09
-1.98558e-07
1.42446e-07
-1.28133e-07
1.98359e-07
-6.39357e-09
1.47541e-07
9.74926e-08
3.2322e-08
1.37734e-07
-8.16903e-08
1.08907e-07
-1.42096e-07
3.78018e-08
-1.3088e-07
-3.79773e-08
-6.40937e-08
-8.88062e-08
2.2959e-08
-1.00605e-07
9.32342e-08
-7.31519e-08
1.20279e-07
-1.63979e-08
9.43289e-08
5.09173e-08
2.45396e-08
1.02661e-07
-6.19975e-08
1.12176e-07
-1.2697e-07
6.59038e-08
-1.35362e-07
-2.31822e-08
-7.4264e-08
-1.1399e-07
3.41773e-08
-1.54472e-07
1.36948e-07
-1.11772e-07
1.74722e-07
2.36786e-09
1.16393e-07
1.30077e-07
-1.67958e-08
1.96017e-07
-1.55705e-07
1.52554e-07
-2.18796e-07
1.38629e-08
-1.60739e-07
-1.45445e-07
-4.6166e-09
-2.30753e-07
1.65169e-07
-1.84956e-07
2.4909e-07
-2.71795e-08
1.92269e-07
1.5387e-07
2.0944e-08
2.50991e-07
-1.69011e-07
2.03855e-07
-2.67247e-07
3.77201e-08
-2.15191e-07
-1.50217e-07
-4.24079e-08
-2.49303e-07
1.50535e-07
-2.02811e-07
2.52615e-07
-4.19063e-08
2.09056e-07
1.34548e-07
5.25511e-08
2.21598e-07
-1.19633e-07
1.72639e-07
-2.07485e-07
2.64465e-08
-1.6967e-07
-1.20661e-07
-4.61936e-08
-1.73382e-07
7.32608e-08
-1.21665e-07
1.16002e-07
6.82643e-08
2.2335e-07
-9.52419e-08
1.84084e-07
-1.79558e-07
3.69897e-09
-1.21202e-07
-2.16363e-07
6.12493e-08
-3.11711e-07
2.56828e-07
-2.01134e-07
3.18476e-07
6.44277e-08
1.74926e-07
3.22085e-07
-1.08493e-07
3.98456e-07
-3.62202e-07
2.26897e-07
-4.18552e-07
-1.00918e-07
-2.23577e-07
-3.86835e-07
1.20013e-07
-4.50124e-07
4.09973e-07
-2.43715e-07
4.6804e-07
1.12955e-07
2.52089e-07
4.06384e-07
-1.14836e-07
4.60741e-07
-4.17835e-07
2.45557e-07
-4.80093e-07
-1.07707e-07
-2.68716e-07
-3.88655e-07
8.81883e-08
-4.3655e-07
3.81575e-07
-2.34013e-07
4.47162e-07
8.94084e-08
2.59256e-07
3.41669e-07
-6.15411e-08
3.84494e-07
-3.26859e-07
2.0993e-07
-3.93222e-07
-6.54231e-08
-2.40373e-07
-2.78508e-07
2.77264e-08
-3.17494e-07
2.5317e-07
-1.80049e-07
3.17996e-07
3.78418e-08
2.05476e-07
2.07816e-07
-2.73162e-09
2.45007e-07
-1.83887e-07
1.4879e-07
-2.46532e-07
-9.83144e-09
-1.75097e-07
-1.38626e-07
-2.62557e-08
-1.77329e-07
1.12938e-07
-1.23225e-07
1.75345e-07
-2.03401e-08
1.43732e-07
7.35555e-08
4.89098e-08
1.18561e-07
-5.54022e-08
1.06065e-07
-1.22093e-07
5.26347e-08
-1.28881e-07
-1.50398e-08
-8.07404e-08
-7.22034e-08
-1.80758e-09
-1.00657e-07
7.54913e-08
-8.97047e-08
1.20153e-07
-3.90063e-08
1.11586e-07
3.64306e-08
4.84248e-08
1.05386e-07
-4.61623e-08
1.30511e-07
-1.28942e-07
8.86161e-08
-1.54193e-07
-9.97381e-09
-9.8975e-08
-1.18287e-07
1.79939e-08
-1.73619e-07
1.3863e-07
-1.34287e-07
1.93203e-07
-1.03414e-08
1.41061e-07
1.34135e-07
2.29317e-10
2.13787e-07
-1.55488e-07
1.73361e-07
-2.35056e-07
2.61577e-08
-1.84421e-07
-1.47396e-07
-2.34356e-08
-2.44271e-07
1.60027e-07
-2.01585e-07
2.58874e-07
-3.83043e-08
2.11051e-07
1.52237e-07
3.95661e-08
2.57064e-07
-1.58184e-07
2.12637e-07
-2.67424e-07
4.49461e-08
-2.25064e-07
-1.45613e-07
-5.79869e-08
-2.45705e-07
1.3391e-07
-1.98737e-07
2.39291e-07
-3.88563e-08
2.03004e-07
1.3174e-07
5.71157e-08
2.07921e-07
-1.0333e-07
1.4758e-07
-1.8328e-07
-3.24733e-09
-1.47165e-07
-1.30489e-07
-3.47826e-08
-1.51786e-07
7.15022e-08
8.77962e-08
1.62803e-07
7.614e-09
2.45699e-07
-1.4422e-07
1.85148e-07
-2.3808e-07
-2.3834e-08
-1.61052e-07
-2.55542e-07
6.20464e-08
-3.49832e-07
2.89288e-07
-2.21591e-07
3.60929e-07
6.91262e-08
2.06871e-07
3.45556e-07
-9.8698e-08
4.2637e-07
-3.7506e-07
2.46353e-07
-4.45848e-07
-9.53726e-08
-2.53425e-07
-3.93184e-07
9.83555e-08
-4.62906e-07
4.03197e-07
-2.58059e-07
4.77735e-07
1.00062e-07
2.74712e-07
3.97335e-07
-8.73245e-08
4.58574e-07
-3.96125e-07
2.53062e-07
-4.73966e-07
-9.08365e-08
-2.82489e-07
-3.68065e-07
5.89711e-08
-4.22081e-07
3.49593e-07
-2.34712e-07
4.28015e-07
7.14058e-08
2.63463e-07
3.14055e-07
-3.49277e-08
3.61724e-07
-2.90858e-07
2.05252e-07
-3.66637e-07
-4.8202e-08
-2.37634e-07
-2.48135e-07
4.85943e-09
-2.90823e-07
2.16992e-07
-1.72323e-07
2.88207e-07
2.21309e-08
1.98088e-07
1.7781e-07
1.55802e-08
2.18157e-07
-1.51022e-07
1.40479e-07
-2.18078e-07
4.60809e-09
-1.66817e-07
-1.10697e-07
-4.17971e-08
-1.52828e-07
8.36757e-08
-1.16416e-07
1.49818e-07
-3.44124e-08
1.36319e-07
4.80207e-08
6.26936e-08
9.74706e-08
-2.99006e-08
1.01982e-07
-1.00755e-07
6.72992e-08
-1.24327e-07
8.62766e-09
-9.5004e-08
-5.4425e-08
-2.55765e-08
-9.95493e-08
5.68725e-08
-1.05491e-07
1.17742e-07
-6.15479e-08
1.26374e-07
2.11252e-08
7.10761e-08
1.0652e-07
-2.94449e-08
1.47066e-07
-1.28128e-07
1.10317e-07
-1.69695e-07
3.87298e-09
-1.21727e-07
-1.20145e-07
9.58146e-10
-1.89487e-07
1.36629e-07
-1.54482e-07
2.06847e-07
-2.33807e-08
1.62418e-07
1.34783e-07
1.77132e-08
2.26485e-07
-1.5065e-07
1.90174e-07
-2.44533e-07
3.81266e-08
-2.02724e-07
-1.45215e-07
-4.15397e-08
-2.50953e-07
1.49921e-07
-2.12235e-07
2.60089e-07
-4.77751e-08
2.21973e-07
1.46559e-07
5.5376e-08
2.55032e-07
-1.43156e-07
2.1321e-07
-2.58018e-07
4.82093e-08
-2.24538e-07
-1.38177e-07
-6.7564e-08
-2.3321e-07
1.15738e-07
-1.8386e-07
2.17464e-07
-2.92819e-08
1.85494e-07
1.25774e-07
5.23558e-08
1.8033e-07
-9.07737e-08
1.05067e-07
-1.55674e-07
-2.66135e-08
-1.11857e-07
-1.04058e-07
-5.69507e-09
5.87214e-08
-8.11223e-09
1.21114e-07
1.56694e-07
-6.07346e-09
2.65072e-07
-2.06158e-07
2.0073e-07
-2.94126e-07
-3.0046e-08
-1.89216e-07
-2.82047e-07
6.17506e-08
-3.79863e-07
3.09893e-07
-2.39427e-07
3.91338e-07
6.83879e-08
2.35155e-07
3.57035e-07
-8.14901e-08
4.41849e-07
-3.73072e-07
2.60005e-07
-4.58667e-07
-8.55016e-08
-2.76908e-07
-3.87424e-07
7.15245e-08
-4.62612e-07
3.82529e-07
-2.65603e-07
4.72315e-07
8.42158e-08
2.88973e-07
3.77706e-07
-5.73343e-08
4.44434e-07
-3.62974e-07
2.53766e-07
-4.53955e-07
-7.24122e-08
-2.87284e-07
-3.39255e-07
2.96436e-08
-3.97861e-07
3.09363e-07
-2.29477e-07
3.97559e-07
5.29393e-08
2.59387e-07
2.80804e-07
-9.78744e-09
3.31939e-07
-2.49715e-07
1.96058e-07
-3.31804e-07
-3.11629e-08
-2.28087e-07
-2.14416e-07
-1.57157e-08
-2.59771e-07
1.78271e-07
-1.61626e-07
2.53135e-07
6.87148e-09
1.85714e-07
1.46218e-07
3.14975e-08
1.89061e-07
-1.17353e-07
1.30537e-07
-1.86628e-07
1.85619e-08
-1.55149e-07
-8.23285e-08
-5.51704e-08
-1.27502e-07
5.4613e-08
-1.0884e-07
1.22771e-07
-4.79494e-08
1.26617e-07
2.27557e-08
7.4576e-08
7.63284e-08
-5.03823e-09
9.74447e-08
-7.85347e-08
8.11727e-08
-1.17827e-07
3.15234e-08
-1.07258e-07
-3.68556e-08
-4.83868e-08
-9.77173e-08
3.74938e-08
-1.19808e-07
1.13067e-07
-8.2699e-08
1.38528e-07
6.08582e-09
9.22866e-08
1.06242e-07
-1.18391e-08
1.61026e-07
-1.2417e-07
1.29713e-07
-1.81276e-07
1.73579e-08
-1.42028e-07
-1.19687e-07
-1.68667e-08
-2.01258e-07
1.3048e-07
-1.71057e-07
2.14881e-07
-3.56609e-08
1.79782e-07
1.32347e-07
3.5414e-08
2.33517e-07
-1.40906e-07
2.01774e-07
-2.46602e-07
4.84795e-08
-2.14998e-07
-1.39684e-07
-5.84979e-08
-2.50713e-07
1.34991e-07
-2.15941e-07
2.52645e-07
-5.41354e-08
2.24758e-07
1.38148e-07
6.78957e-08
2.45481e-07
-1.24633e-07
2.05258e-07
-2.3988e-07
4.66286e-08
-2.1431e-07
-1.28872e-07
-7.12378e-08
-2.1295e-07
9.68809e-08
-1.60453e-07
1.88951e-07
-1.73671e-08
1.58865e-07
1.12959e-07
4.09742e-08
1.44369e-07
-7.75234e-08
7.51841e-08
-1.17838e-07
-1.28023e-08
-6.78293e-08
4.27027e-09
-1.89723e-07
1.6764e-07
-3.8881e-08
1.47105e-07
1.81801e-07
-3.7539e-08
3.09525e-07
-2.39918e-07
2.22992e-07
-3.2387e-07
-3.41121e-08
-2.12019e-07
-3.00549e-07
5.16513e-08
-3.98794e-07
3.1443e-07
-2.51486e-07
4.07698e-07
6.31273e-08
2.58062e-07
3.55629e-07
-5.84049e-08
4.43282e-07
-3.57006e-07
2.66326e-07
-4.56533e-07
-7.23303e-08
-2.92271e-07
-3.69872e-07
4.20683e-08
-4.48777e-07
3.50377e-07
-2.65204e-07
4.52978e-07
6.68856e-08
2.9416e-07
3.48726e-07
-2.73775e-08
4.1873e-07
-3.21652e-07
2.46961e-07
-4.22521e-07
-5.40385e-08
-2.83453e-07
-3.03991e-07
2.26306e-09
-3.64904e-07
2.64384e-07
-2.17985e-07
3.58961e-07
3.5553e-08
2.4821e-07
2.43879e-07
1.24722e-08
2.96449e-07
-2.06641e-07
1.8229e-07
-2.92012e-07
-1.56839e-08
-2.13359e-07
-1.79263e-07
-3.32189e-08
-2.25681e-07
1.39619e-07
-1.48016e-07
2.15715e-07
-6.74431e-09
1.70039e-07
1.14727e-07
4.46916e-08
1.589e-07
-8.48199e-08
1.1899e-07
-1.54507e-07
3.09694e-08
-1.41512e-07
-5.4964e-08
-6.62444e-08
-1.02295e-07
2.71295e-08
-1.00396e-07
9.58747e-08
-5.99277e-08
1.15602e-07
-9.67989e-10
8.43873e-08
5.58507e-08
1.81555e-08
9.21757e-08
-5.6559e-08
9.3166e-08
-1.09879e-07
5.24269e-08
-1.17121e-07
-2.00824e-08
-6.93105e-08
-9.47337e-08
1.81657e-08
-1.31449e-07
1.06268e-07
-1.01184e-07
1.47415e-07
-8.11297e-09
1.11047e-07
1.04059e-07
5.90386e-09
1.71083e-07
-1.17078e-07
1.45411e-07
-1.88157e-07
2.97925e-08
-1.58718e-07
-1.16512e-07
-3.45631e-08
-2.07659e-07
1.20365e-07
-1.82555e-07
2.16634e-07
-4.63021e-08
1.91939e-07
1.26699e-07
5.21275e-08
2.33854e-07
-1.26908e-07
2.06766e-07
-2.41059e-07
5.61359e-08
-2.20234e-07
-1.31096e-07
-7.28605e-08
-2.42981e-07
1.16564e-07
-2.11628e-07
2.37191e-07
-5.63486e-08
2.19049e-07
1.27575e-07
7.578e-08
2.28492e-07
-1.04541e-07
1.88742e-07
-2.1486e-07
4.03153e-08
-1.95499e-07
-1.17947e-07
-6.89713e-08
-1.8682e-07
7.86744e-08
-1.32438e-07
1.56459e-07
-5.33048e-09
1.27596e-07
1.01332e-07
2.94345e-08
1.20437e-07
-5.92609e-08
6.80794e-08
-8.14631e-08
-4.05438e-08
-2.67641e-07
1.10019e-07
-2.20383e-07
2.1038e-07
-1.65272e-08
1.57188e-07
2.28493e-07
-3.05759e-08
3.37864e-07
-2.47316e-07
2.31853e-07
-3.43363e-07
-3.66348e-08
-2.34379e-07
-3.05767e-07
3.32897e-08
-4.02877e-07
3.04227e-07
-2.56441e-07
4.09139e-07
5.34196e-08
2.73242e-07
3.41122e-07
-3.19341e-08
4.30444e-07
-3.28386e-07
2.64941e-07
-4.39393e-07
-5.65547e-08
-2.97887e-07
-3.41476e-07
1.25375e-08
-4.2223e-07
3.09127e-07
-2.57073e-07
4.20844e-07
4.87688e-08
2.89542e-07
3.11813e-07
2.46454e-10
3.82929e-07
-2.74942e-07
2.33348e-07
-3.81544e-07
-3.62351e-08
-2.7102e-07
-2.63799e-07
-2.13257e-08
-3.24931e-07
2.17399e-07
-2.01196e-07
3.14417e-07
1.95732e-08
2.30466e-07
2.04675e-07
3.05197e-08
2.56904e-07
-1.64025e-07
1.64909e-07
-2.49375e-07
-1.96508e-09
-1.942e-07
-1.43814e-07
-4.67532e-08
-1.89899e-07
1.0294e-07
-1.32254e-07
1.77727e-07
-1.85366e-08
1.51764e-07
8.42261e-08
5.45361e-08
1.28643e-07
-5.48672e-08
1.06284e-07
-1.23056e-07
4.15496e-08
-1.26384e-07
-2.93294e-08
-7.4465e-08
-7.78308e-08
2.35778e-09
-9.11779e-08
7.00817e-08
-6.98683e-08
1.03462e-07
-2.24612e-08
9.14876e-08
3.64272e-08
3.86684e-08
8.59546e-08
-3.55377e-08
1.02553e-07
-1.0042e-07
7.05665e-08
-1.23778e-07
-4.40163e-09
-8.72729e-08
-9.01769e-08
-4.40772e-10
-1.39481e-07
9.71746e-08
-1.16103e-07
1.52078e-07
-2.11519e-08
1.26127e-07
9.94953e-08
2.2966e-08
1.76219e-07
-1.06786e-07
1.56419e-07
-1.89393e-07
4.07499e-08
-1.7044e-07
-1.10274e-07
-5.10456e-08
-2.07801e-07
1.06558e-07
-1.88034e-07
2.11433e-07
-5.47723e-08
1.97582e-07
1.17775e-07
6.65027e-08
2.2697e-07
-1.0946e-07
2.04486e-07
-2.27824e-07
6.05816e-08
-2.17495e-07
-1.19688e-07
-8.32023e-08
-2.27792e-07
9.602e-08
-1.99268e-07
2.14546e-07
-5.43659e-08
2.04807e-07
1.15094e-07
7.8107e-08
2.04844e-07
-8.44719e-08
1.64971e-07
-1.84855e-07
3.03331e-08
-1.69833e-07
-1.05875e-07
-6.1638e-08
-1.56966e-07
6.20866e-08
-1.00321e-07
1.23748e-07
1.31017e-08
9.72699e-08
9.50308e-08
1.8697e-08
9.8417e-08
-4.80303e-08
-5.28363e-08
-1.91302e-07
-1.8473e-08
-2.7186e-07
1.38195e-07
-2.02057e-07
2.46298e-07
1.20288e-08
1.90502e-07
2.42707e-07
-1.57821e-08
3.42328e-07
-2.46593e-07
2.33164e-07
-3.51061e-07
-3.22898e-08
-2.49611e-07
-2.96028e-07
1.10696e-08
-3.92312e-07
2.80458e-07
-2.54376e-07
3.94512e-07
4.00613e-08
2.78267e-07
3.14911e-07
-4.79708e-09
4.04528e-07
-2.8927e-07
2.56038e-07
-4.07893e-07
-3.93293e-08
-2.92743e-07
-3.0434e-07
-1.48018e-08
-3.85006e-07
2.61315e-07
-2.42046e-07
3.77568e-07
3.08111e-08
2.75108e-07
2.69303e-07
2.38615e-08
3.39535e-07
-2.25366e-07
2.14238e-07
-3.33154e-07
-1.96297e-08
-2.50657e-07
-2.2089e-07
-4.00649e-08
-2.80491e-07
1.70575e-07
-1.80598e-07
2.66041e-07
5.32921e-09
2.07134e-07
1.65041e-07
4.37942e-08
2.15544e-07
-1.23536e-07
1.45303e-07
-2.0568e-07
9.85822e-09
-1.71566e-07
-1.09477e-07
-5.60371e-08
-1.54178e-07
6.94323e-08
-1.15429e-07
1.40502e-07
-2.842e-08
1.31589e-07
5.57425e-08
6.07954e-08
9.95213e-08
-2.83797e-08
9.31069e-08
-9.31694e-08
5.01261e-08
-1.10097e-07
-6.20989e-09
-7.94363e-08
-5.49114e-08
-1.89084e-08
-8.14751e-08
4.60077e-08
-7.7415e-08
9.01878e-08
-4.10282e-08
9.52142e-08
1.85801e-08
5.56002e-08
7.87596e-08
-1.60114e-08
1.08776e-07
-8.92306e-08
8.52166e-08
-1.26303e-07
9.77157e-09
-1.01145e-07
-8.38733e-08
-1.76532e-08
-1.43235e-07
8.55731e-08
-1.26686e-07
1.51474e-07
-3.26039e-08
1.36185e-07
9.24045e-08
3.84138e-08
1.7582e-07
-9.33223e-08
1.61997e-07
-1.84081e-07
4.97292e-08
-1.75809e-07
-1.01047e-07
-6.51093e-08
-2.01368e-07
8.95364e-08
-1.86978e-07
1.98848e-07
-6.05543e-08
1.95595e-07
1.05964e-07
7.72241e-08
2.13066e-07
-8.95668e-08
1.94905e-07
-2.07244e-07
6.1517e-08
-2.06372e-07
-1.0607e-07
-8.84884e-08
-2.05999e-07
7.47305e-08
-1.7973e-07
1.86038e-07
-4.8649e-08
1.82878e-07
1.01139e-07
7.48308e-08
1.76024e-07
-6.56325e-08
1.35954e-07
-1.52115e-07
1.81938e-08
-1.39807e-07
-9.20269e-08
-5.05121e-08
-1.22363e-07
4.83252e-08
-6.2186e-08
9.32788e-08
2.79063e-08
6.62484e-08
7.33588e-08
2.05788e-09
-3.41666e-08
-9.98243e-09
-1.34886e-07
-1.63429e-07
-2.00085e-08
-2.56909e-07
1.73108e-07
-1.95347e-07
2.72776e-07
1.03035e-08
2.04214e-07
2.36276e-07
-2.42562e-09
3.34317e-07
-2.30519e-07
2.30333e-07
-3.39933e-07
-2.27211e-08
-2.54091e-07
-2.7411e-07
-1.33816e-08
-3.6865e-07
2.43754e-07
-2.44871e-07
3.63592e-07
2.5096e-08
2.71996e-07
2.7964e-07
2.11565e-08
3.67475e-07
-2.41629e-07
2.39817e-07
-3.63329e-07
-2.24125e-08
-2.76831e-07
-2.6137e-07
-3.85226e-08
-3.39666e-07
2.09215e-07
-2.20949e-07
3.25213e-07
1.43999e-08
2.5168e-07
2.2406e-07
4.2604e-08
2.91339e-07
-1.75045e-07
1.90819e-07
-2.79628e-07
-5.21103e-09
-2.23635e-07
-1.77792e-07
-5.36026e-08
-2.34194e-07
1.25613e-07
-1.57465e-07
2.15904e-07
-6.53783e-09
1.79551e-07
1.2701e-07
5.22782e-08
1.74553e-07
-8.63733e-08
1.24603e-07
-1.62521e-07
1.93716e-08
-1.46538e-07
-7.77896e-08
-6.11435e-08
-1.20184e-07
3.98887e-08
-9.83896e-08
1.05081e-07
-3.60668e-08
1.10152e-07
3.04275e-08
6.34038e-08
7.27292e-08
-5.92832e-09
7.99868e-08
-6.5421e-08
5.63367e-08
-9.27851e-08
1.34651e-08
-8.07816e-08
-3.44001e-08
-3.60946e-08
-7.15526e-08
2.39487e-08
-8.21118e-08
7.5505e-08
-5.58187e-08
9.48291e-08
3.0049e-09
6.82046e-08
7.07034e-08
1.77977e-09
1.11303e-07
-7.58094e-08
9.55235e-08
-1.23676e-07
2.17564e-08
-1.0994e-07
-7.59529e-08
-3.30885e-08
-1.42232e-07
7.09992e-08
-1.32113e-07
1.4452e-07
-4.17358e-08
1.40078e-07
8.30869e-08
5.16172e-08
1.6964e-07
-7.65268e-08
1.6149e-07
-1.71402e-07
5.5958e-08
-1.73762e-07
-8.94179e-08
-7.59105e-08
-1.88554e-07
6.96458e-08
-1.7912e-07
1.78687e-07
-6.29918e-08
1.8538e-07
9.21205e-08
8.34657e-08
1.92924e-07
-6.81072e-08
1.7844e-07
-1.80052e-07
5.8754e-08
-1.87194e-07
-9.11128e-08
-8.8373e-08
-1.79004e-07
5.38387e-08
-1.54483e-07
1.53395e-07
-4.00407e-08
1.54942e-07
8.61229e-08
6.67066e-08
1.43877e-07
-4.88304e-08
1.04524e-07
-1.18849e-07
6.91921e-09
-1.07917e-07
-7.43598e-08
-3.71553e-08
-8.51351e-08
3.6297e-08
-3.40532e-08
6.23685e-08
1.99716e-08
3.46002e-08
-4.40333e-09
1.61848e-07
-1.64958e-07
2.81694e-08
-1.54405e-07
-1.5664e-07
-1.79737e-09
-2.63455e-07
1.70647e-07
-1.97825e-07
2.62103e-07
4.78913e-09
2.06059e-07
2.21063e-07
1.8643e-08
3.14184e-07
-1.97512e-07
2.19524e-07
-3.11859e-07
-1.19949e-08
-2.48823e-07
-2.42676e-07
-3.87616e-08
-3.32606e-07
1.97038e-07
-2.26727e-07
3.19277e-07
1.10559e-08
2.55666e-07
2.3807e-07
4.47255e-08
3.20997e-07
-1.88588e-07
2.16107e-07
-3.09172e-07
-7.81868e-09
-2.52097e-07
-2.15425e-07
-5.79979e-08
-2.88441e-07
1.55691e-07
-1.94231e-07
2.67323e-07
1.07087e-09
2.21578e-07
1.78733e-07
5.63978e-08
2.40646e-07
-1.26281e-07
1.63849e-07
-2.24133e-07
5.92106e-09
-1.92262e-07
-1.36737e-07
-6.22664e-08
-1.88111e-07
8.41269e-08
-1.32601e-07
1.66498e-07
-1.52552e-08
1.49694e-07
9.23405e-08
5.64985e-08
1.35593e-07
-5.35023e-08
1.0346e-07
-1.2161e-07
2.59699e-08
-1.20567e-07
-5.01242e-08
-6.25879e-08
-8.9172e-08
1.4791e-08
-8.15493e-08
7.24701e-08
-4.08862e-08
8.83395e-08
9.42783e-09
6.2714e-08
4.92201e-08
1.22838e-08
6.71002e-08
-4.02848e-08
5.94967e-08
-7.48447e-08
2.85974e-08
-7.86273e-08
-1.71184e-08
-4.90901e-08
-6.14428e-08
4.07676e-09
-8.31659e-08
5.94887e-08
-6.56766e-08
9.02719e-08
-9.45769e-09
7.636e-08
6.18104e-08
1.77586e-08
1.0931e-07
-6.01353e-08
1.00257e-07
-1.15793e-07
3.05872e-08
-1.13524e-07
-6.66034e-08
-4.66181e-08
-1.35796e-07
5.35683e-08
-1.31211e-07
1.31295e-07
-4.74713e-08
1.37781e-07
7.20151e-08
6.23548e-08
1.57369e-07
-5.68368e-08
1.54006e-07
-1.51867e-07
5.83792e-08