/*--------------------------------*- C++ -*----------------------------------*\
| =========                 |                                                 |
| \\      /  F ield         | OpenFOAM: The Open Source CFD Toolbox           |
|  \\    /   O peration     | Version:  2412                                  |
|   \\  /    A nd           | Website:  www.openfoam.com                      |
|    \\/     M anipulation  |                                                 |
\*---------------------------------------------------------------------------*/
FoamFile
{
    version     2.0;
    format      ascii;
    arch        "LSB;label=32;scalar=64";
    class       volVectorField;
    location    "8.2";
    object      U;
}
// * * * * * * * * * * * * * * * * * * * * * * * * * * * * * * * * * * * * * //

dimensions      [0 1 -1 0 0 0 0];

internalField   nonuniform List<vector> 
6400
(
(4.13423e-07 -4.18255e-07 0)
(2.21887e-06 -8.26048e-07 0)
(4.28648e-06 -8.82284e-07 0)
(5.94914e-06 -7.13629e-07 0)
(6.54941e-06 -4.63931e-07 0)
(5.79534e-06 -1.88225e-07 0)
(3.59371e-06 8.64187e-08 0)
(-5.18684e-08 3.46488e-07 0)
(-5.08349e-06 5.84591e-07 0)
(-1.14094e-05 7.98515e-07 0)
(-1.8933e-05 9.91892e-07 0)
(-2.75582e-05 1.168e-06 0)
(-3.72023e-05 1.32921e-06 0)
(-4.77813e-05 1.47525e-06 0)
(-5.92266e-05 1.60928e-06 0)
(-7.14575e-05 1.73203e-06 0)
(-8.44074e-05 1.84677e-06 0)
(-9.7973e-05 1.94841e-06 0)
(-0.000112058 2.03572e-06 0)
(-0.00012649 2.09625e-06 0)
(-0.000141107 2.12825e-06 0)
(-0.00015563 2.11535e-06 0)
(-0.00016981 2.06022e-06 0)
(-0.000183249 1.94302e-06 0)
(-0.000195615 1.77261e-06 0)
(-0.000206399 1.52436e-06 0)
(-0.000215223 1.21662e-06 0)
(-0.00022151 8.21619e-07 0)
(-0.00022491 3.72803e-07 0)
(-0.000224858 -1.58608e-07 0)
(-0.000221144 -7.2074e-07 0)
(-0.000213321 -1.3437e-06 0)
(-0.000201429 -1.95766e-06 0)
(-0.00018523 -2.59603e-06 0)
(-0.000165093 -3.17498e-06 0)
(-0.000141046 -3.73427e-06 0)
(-0.0001138 -4.18332e-06 0)
(-8.36355e-05 -4.57145e-06 0)
(-5.15494e-05 -4.81028e-06 0)
(-1.80008e-05 -4.96043e-06 0)
(1.58508e-05 -4.94371e-06 0)
(4.94816e-05 -4.83076e-06 0)
(8.17233e-05 -4.55853e-06 0)
(0.000112118 -4.2042e-06 0)
(0.000139644 -3.72251e-06 0)
(0.000164027 -3.1923e-06 0)
(0.00018452 -2.58349e-06 0)
(0.000201102 -1.9688e-06 0)
(0.00021337 -1.32942e-06 0)
(0.000221574 -7.28177e-07 0)
(0.000225638 -1.51698e-07 0)
(0.000226023 3.55123e-07 0)
(0.000222908 8.07338e-07 0)
(0.000216872 1.17638e-06 0)
(0.000208239 1.47776e-06 0)
(0.0001976 1.69849e-06 0)
(0.000185314 1.85741e-06 0)
(0.000171908 1.95156e-06 0)
(0.000157706 1.99677e-06 0)
(0.000143123 1.99409e-06 0)
(0.000128406 1.95774e-06 0)
(0.000113847 1.89259e-06 0)
(9.9618e-05 1.81028e-06 0)
(8.59071e-05 1.71448e-06 0)
(7.28163e-05 1.61106e-06 0)
(6.04576e-05 1.49956e-06 0)
(4.88933e-05 1.37957e-06 0)
(3.82026e-05 1.2466e-06 0)
(2.8447e-05 1.09693e-06 0)
(1.97088e-05 9.2653e-07 0)
(1.20684e-05 7.3405e-07 0)
(5.62313e-06 5.19365e-07 0)
(4.68182e-07 2.83819e-07 0)
(-3.3025e-06 2.95244e-08 0)
(-5.62187e-06 -2.38414e-07 0)
(-6.47184e-06 -5.07821e-07 0)
(-5.93121e-06 -7.54565e-07 0)
(-4.26854e-06 -9.29456e-07 0)
(-2.13091e-06 -9.15878e-07 0)
(-3.41838e-07 -5.54022e-07 0)
(5.99221e-07 -2.35837e-06 0)
(3.72695e-06 -4.33154e-06 0)
(6.73498e-06 -4.09012e-06 0)
(8.27085e-06 -2.42219e-06 0)
(7.09498e-06 1.47149e-08 0)
(2.57229e-06 2.80143e-06 0)
(-5.54874e-06 5.68274e-06 0)
(-1.7304e-05 8.50664e-06 0)
(-3.25877e-05 1.1189e-05 0)
(-5.12218e-05 1.3692e-05 0)
(-7.29819e-05 1.60053e-05 0)
(-9.765e-05 1.81389e-05 0)
(-0.000124997 2.01045e-05 0)
(-0.00015483 2.19182e-05 0)
(-0.000186925 2.35809e-05 0)
(-0.000221095 2.50906e-05 0)
(-0.000257072 2.64156e-05 0)
(-0.000294611 2.75244e-05 0)
(-0.000333309 2.83446e-05 0)
(-0.000372788 2.88176e-05 0)
(-0.00041241 2.88331e-05 0)
(-0.000451595 2.832e-05 0)
(-0.000489404 2.71431e-05 0)
(-0.000525045 2.52466e-05 0)
(-0.000557269 2.24946e-05 0)
(-0.000585131 1.88845e-05 0)
(-0.000607146 1.431e-05 0)
(-0.000622376 8.86196e-06 0)
(-0.000629263 2.49138e-06 0)
(-0.000627122 -4.58571e-06 0)
(-0.000614566 -1.23466e-05 0)
(-0.000591452 -2.04418e-05 0)
(-0.000556819 -2.87866e-05 0)
(-0.000511316 -3.69242e-05 0)
(-0.000454602 -4.4747e-05 0)
(-0.000388243 -5.17515e-05 0)
(-0.000312574 -5.78661e-05 0)
(-0.000230013 -6.26185e-05 0)
(-0.00014146 -6.60298e-05 0)
(-4.99436e-05 -6.77292e-05 0)
(4.33186e-05 -6.78646e-05 0)
(0.000135061 -6.62113e-05 0)
(0.000224069 -6.30492e-05 0)
(0.000307262 -5.83132e-05 0)
(0.00038375 -5.2392e-05 0)
(0.000451022 -4.5359e-05 0)
(0.000508766 -3.76595e-05 0)
(0.000555304 -2.94502e-05 0)
(0.000591014 -2.11642e-05 0)
(0.000615135 -1.29737e-05 0)
(0.000628679 -5.23227e-06 0)
(0.000631682 1.93788e-06 0)
(0.000625587 8.30594e-06 0)
(0.000610991 1.38289e-05 0)
(0.00058951 1.84014e-05 0)
(0.000562011 2.20615e-05 0)
(0.000530035 2.48098e-05 0)
(0.000494481 2.67407e-05 0)
(0.000456656 2.79174e-05 0)
(0.000417331 2.84569e-05 0)
(0.000377496 2.84483e-05 0)
(0.000337725 2.8003e-05 0)
(0.000298701 2.72018e-05 0)
(0.000260805 2.61254e-05 0)
(0.000224477 2.48262e-05 0)
(0.000189958 2.33479e-05 0)
(0.000157531 2.17102e-05 0)
(0.000127372 1.99224e-05 0)
(9.97069e-05 1.79767e-05 0)
(7.47211e-05 1.58602e-05 0)
(5.26449e-05 1.35565e-05 0)
(3.36942e-05 1.10577e-05 0)
(1.8101e-05 8.37212e-06 0)
(6.05451e-06 5.53811e-06 0)
(-2.31967e-06 2.64005e-06 0)
(-7.03903e-06 -1.69786e-07 0)
(-8.34111e-06 -2.63604e-06 0)
(-6.8501e-06 -4.34438e-06 0)
(-3.80833e-06 -4.64313e-06 0)
(-6.23942e-07 -2.65289e-06 0)
(5.60803e-07 -4.73934e-06 0)
(3.31265e-06 -7.90351e-06 0)
(5.01101e-06 -6.39441e-06 0)
(4.02586e-06 -1.87927e-06 0)
(-1.09213e-06 4.36462e-06 0)
(-1.11239e-05 1.14648e-05 0)
(-2.64103e-05 1.88462e-05 0)
(-4.70058e-05 2.61398e-05 0)
(-7.27877e-05 3.3128e-05 0)
(-0.000103508 3.96974e-05 0)
(-0.000138878 4.58108e-05 0)
(-0.000178565 5.1467e-05 0)
(-0.000222264 5.66899e-05 0)
(-0.000269639 6.14906e-05 0)
(-0.0003204 6.58741e-05 0)
(-0.000374164 6.97954e-05 0)
(-0.000430594 7.31929e-05 0)
(-0.000489154 7.59298e-05 0)
(-0.00054935 7.78669e-05 0)
(-0.000610355 7.87726e-05 0)
(-0.000671419 7.84498e-05 0)
(-0.000731299 7.65958e-05 0)
(-0.000788936 7.30077e-05 0)
(-0.000842616 6.73649e-05 0)
(-0.000891017 5.95415e-05 0)
(-0.000932003 4.92758e-05 0)
(-0.000964163 3.66183e-05 0)
(-0.000985116 2.14485e-05 0)
(-0.000993674 4.08541e-06 0)
(-0.000987518 -1.53887e-05 0)
(-0.000966094 -3.63347e-05 0)
(-0.000927522 -5.84567e-05 0)
(-0.000872298 -8.08188e-05 0)
(-0.000799327 -0.000102978 0)
(-0.000710448 -0.000123816 0)
(-0.000605545 -0.000142882 0)
(-0.000487851 -0.000159063 0)
(-0.000358191 -0.000172065 0)
(-0.000220947 -0.000180972 0)
(-7.7609e-05 -0.000185782 0)
(6.67734e-05 -0.000185918 0)
(0.000210475 -0.000181733 0)
(0.000348403 -0.000173055 0)
(0.00047908 -0.000160577 0)
(0.000598 -0.000144511 0)
(0.000704369 -0.000125799 0)
(0.000794784 -0.000104933 0)
(0.000869414 -8.29449e-05 0)
(0.000926226 -6.04294e-05 0)
(0.000966397 -3.8327e-05 0)
(0.00098925 -1.71574e-05 0)
(0.000996763 2.38309e-06 0)
(0.000989328 1.99783e-05 0)
(0.000969372 3.52423e-05 0)
(0.000937954 4.80966e-05 0)
(0.000897562 5.84458e-05 0)
(0.00084951 6.64176e-05 0)
(0.000796032 7.21295e-05 0)
(0.00073839 7.58312e-05 0)
(0.000678388 7.77477e-05 0)
(0.000617051 7.81627e-05 0)
(0.000555696 7.73185e-05 0)
(0.000495059 7.54623e-05 0)
(0.000436026 7.27864e-05 0)
(0.000379086 6.94571e-05 0)
(0.000324813 6.55859e-05 0)
(0.000273537 6.12494e-05 0)
(0.00022566 5.64796e-05 0)
(0.00018146 5.12809e-05 0)
(0.000141288 4.56353e-05 0)
(0.000105441 3.95231e-05 0)
(7.42627e-05 3.29408e-05 0)
(4.80479e-05 2.59279e-05 0)
(2.70633e-05 1.85962e-05 0)
(1.14485e-05 1.11649e-05 0)
(1.16754e-06 4.00473e-06 0)
(-4.11471e-06 -2.30317e-06 0)
(-5.17914e-06 -6.87455e-06 0)
(-3.47592e-06 -8.40365e-06 0)
(-6.40357e-07 -5.07977e-06 0)
(4.19237e-07 -6.58027e-06 0)
(1.72952e-06 -9.84805e-06 0)
(6.7688e-07 -5.86266e-06 0)
(-4.42065e-06 2.8388e-06 0)
(-1.49809e-05 1.43349e-05 0)
(-3.17932e-05 2.72657e-05 0)
(-5.5191e-05 4.06901e-05 0)
(-8.52144e-05 5.39855e-05 0)
(-0.000121685 6.67643e-05 0)
(-0.000164316 7.8822e-05 0)
(-0.000212724 9.00702e-05 0)
(-0.000266533 0.000100502 0)
(-0.000325316 0.000110127 0)
(-0.0003887 0.000118967 0)
(-0.000456223 0.000126986 0)
(-0.000527486 0.000134118 0)
(-0.000601887 0.00014019 0)
(-0.00067889 0.000144999 0)
(-0.000757593 0.000148202 0)
(-0.000837192 0.000149463 0)
(-0.000916316 0.000148292 0)
(-0.000993799 0.000144288 0)
(-0.00106769 0.000136884 0)
(-0.00113645 0.000125739 0)
(-0.00119755 0.000110335 0)
(-0.00124925 9.05539e-05 0)
(-0.00128855 6.60852e-05 0)
(-0.00131381 3.72126e-05 0)
(-0.0013219 3.97085e-06 0)
(-0.00131175 -3.28168e-05 0)
(-0.00128052 -7.26936e-05 0)
(-0.00122827 -0.000114267 0)
(-0.00115292 -0.000156706 0)
(-0.00105614 -0.000198179 0)
(-0.000936986 -0.000237677 0)
(-0.000798965 -0.00027322 0)
(-0.000642365 -0.000303924 0)
(-0.000472416 -0.000328021 0)
(-0.000290436 -0.000345053 0)
(-0.000102874 -0.000353773 0)
(8.83794e-05 -0.000354337 0)
(0.000276397 -0.000346209 0)
(0.0004593 -0.00033021 0)
(0.000630518 -0.000306547 0)
(0.000788771 -0.000276616 0)
(0.000928617 -0.000241245 0)
(0.00104984 -0.000202182 0)
(0.00114867 -0.000160603 0)
(0.00122615 -0.000118275 0)
(0.00128035 -7.63779e-05 0)
(0.00131349 -3.63767e-05 0)
(0.00132526 8.41116e-07 0)
(0.00131867 3.4323e-05 0)
(0.00129458 6.36283e-05 0)
(0.00125629 8.83562e-05 0)
(0.00120528 0.000108504 0)
(0.0011447 0.000124131 0)
(0.00107617 0.000135562 0)
(0.00100237 0.000143147 0)
(0.000924749 0.000147369 0)
(0.000845376 0.000148688 0)
(0.000765374 0.000147593 0)
(0.000686196 0.00014451 0)
(0.000608626 0.000139828 0)
(0.00053363 0.000133848 0)
(0.000461732 0.000126802 0)
(0.000393573 0.000118838 0)
(0.000329545 0.000110039 0)
(0.000270134 0.000100427 0)
(0.000215706 8.99933e-05 0)
(0.000166706 7.87195e-05 0)
(0.000123512 6.66183e-05 0)
(8.65242e-05 5.37752e-05 0)
(5.60414e-05 4.03979e-05 0)
(3.22617e-05 2.68731e-05 0)
(1.51567e-05 1.38289e-05 0)
(4.39798e-06 2.21821e-06 0)
(-8.10289e-07 -6.57231e-06 0)
(-1.88911e-06 -1.05646e-05 0)
(-4.94555e-07 -7.03603e-06 0)
(2.31499e-07 -7.33881e-06 0)
(-5.08882e-07 -9.05157e-06 0)
(-5.23865e-06 -1.15713e-06 0)
(-1.55213e-05 1.30663e-05 0)
(-3.25808e-05 3.10937e-05 0)
(-5.70867e-05 5.10826e-05 0)
(-8.9295e-05 7.1732e-05 0)
(-0.000129152 9.21535e-05 0)
(-0.000176419 0.000111791 0)
(-0.000230709 0.000130333 0)
(-0.000291602 0.000147652 0)
(-0.000358611 0.000163709 0)
(-0.000431298 0.000178526 0)
(-0.00050914 0.000192086 0)
(-0.000591695 0.00020435 0)
(-0.000678337 0.000215152 0)
(-0.000768527 0.000224269 0)
(-0.00086137 0.000231292 0)
(-0.000956082 0.000235782 0)
(-0.0010513 0.00023708 0)
(-0.00114586 0.000234586 0)
(-0.00123776 0.00022747 0)
(-0.00132542 0.000215114 0)
(-0.00140611 0.000196675 0)
(-0.00147792 0.000171747 0)
(-0.00153747 0.000139693 0)
(-0.00158279 0.000100592 0)
(-0.00161009 5.42557e-05 0)
(-0.00161783 1.49899e-06 0)
(-0.00160225 -5.72344e-05 0)
(-0.00156287 -0.000120251 0)
(-0.00149649 -0.000186438 0)
(-0.00140433 -0.000253297 0)
(-0.00128431 -0.000319239 0)
(-0.00113979 -0.000381292 0)
(-0.000970114 -0.000437806 0)
(-0.00078088 -0.000485877 0)
(-0.000572798 -0.00052429 0)
(-0.000353294 -0.000550758 0)
(-0.000124029 -0.000564897 0)
(0.000106514 -0.000565419 0)
(0.000336348 -0.000552964 0)
(0.000556911 -0.000527408 0)
(0.000766579 -0.000490392 0)
(0.000957705 -0.000442883 0)
(0.00112965 -0.00038728 0)
(0.00127653 -0.000325335 0)
(0.00139909 -0.000259769 0)
(0.00149366 -0.0001926 0)
(0.00156245 -0.000126333 0)
(0.00160395 -6.2721e-05 0)
(0.00162153 -3.62109e-06 0)
(0.00161542 4.98403e-05 0)
(0.00158958 9.66556e-05 0)
(0.00154532 0.000136428 0)
(0.00148665 0.000168943 0)
(0.00141537 0.000194424 0)
(0.00133505 0.000213244 0)
(0.00124746 0.000226022 0)
(0.00115548 0.000233434 0)
(0.00106063 0.000236237 0)
(0.000965029 0.000235158 0)
(0.00086978 0.000230888 0)
(0.000776342 0.00022402 0)
(0.000685472 0.000215049 0)
(0.000598128 0.000204343 0)
(0.000514837 0.000192154 0)
(0.000436265 0.000178627 0)
(0.000362846 0.000163818 0)
(0.000295128 0.000147732 0)
(0.00023355 0.000130359 0)
(0.000178621 0.000111733 0)
(0.000130767 9.19873e-05 0)
(9.03935e-05 7.14323e-05 0)
(5.77519e-05 5.06255e-05 0)
(3.291e-05 3.046e-05 0)
(1.56129e-05 1.2258e-05 0)
(5.18312e-06 -2.09942e-06 0)
(3.88529e-07 -1.00075e-05 0)
(-2.92335e-07 -7.94605e-06 0)
(3.04428e-08 -6.7943e-06 0)
(-3.0854e-06 -4.9307e-06 0)
(-1.20636e-05 8.51359e-06 0)
(-2.82511e-05 2.96627e-05 0)
(-5.25405e-05 5.5445e-05 0)
(-8.53943e-05 8.35744e-05 0)
(-0.00012689 0.000112404 0)
(-0.000176844 0.000140806 0)
(-0.000234875 0.000168059 0)
(-0.000300528 0.000193771 0)
(-0.000373263 0.000217761 0)
(-0.00045258 0.000239997 0)
(-0.000537911 0.00026047 0)
(-0.000628774 0.000279179 0)
(-0.000724538 0.000296001 0)
(-0.000824677 0.000310749 0)
(-0.000928349 0.00032301 0)
(-0.00103484 0.000332304 0)
(-0.00114287 0.000337865 0)
(-0.00125138 0.000338936 0)
(-0.00135846 0.000334448 0)
(-0.00146259 0.000323508 0)
(-0.00156105 0.000304911 0)
(-0.00165191 0.00027789 0)
(-0.00173163 0.000241377 0)
(-0.00179806 0.000195088 0)
(-0.00184701 0.000138425 0)
(-0.00187653 7.1968e-05 0)
(-0.00188213 -4.09206e-06 0)
(-0.00186273 -8.80159e-05 0)
(-0.0018141 -0.000178644 0)
(-0.00173677 -0.000273005 0)
(-0.00162741 -0.000369064 0)
(-0.00148884 -0.000462904 0)
(-0.00131917 -0.000552053 0)
(-0.0011239 -0.000632299 0)
(-0.00090273 -0.000701432 0)
(-0.000663613 -0.000755768 0)
(-0.000407575 -0.000794027 0)
(-0.000144307 -0.000813727 0)
(0.000124458 -0.000814933 0)
(0.000388351 -0.000796742 0)
(0.000645664 -0.00076068 0)
(0.000886516 -0.000707489 0)
(0.00110997 -0.00063998 0)
(0.00130771 -0.000560271 0)
(0.00148019 -0.00047199 0)
(0.00162149 -0.000378029 0)
(0.00173372 -0.000282113 0)
(0.00181361 -0.000187102 0)
(0.00186475 -9.60749e-05 0)
(0.00188623 -1.11992e-05 0)
(0.00188256 6.55469e-05 0)
(0.0018545 0.000133023 0)
(0.00180683 0.000190436 0)
(0.00174124 0.00023764 0)
(0.00166219 0.000274817 0)
(0.00157163 0.000302562 0)
(0.00147333 0.000321679 0)
(0.00136907 0.000333149 0)
(0.00126175 0.000338016 0)
(0.00115278 0.000337312 0)
(0.00104422 0.000332009 0)
(0.000937064 0.000322951 0)
(0.000832685 0.000310848 0)
(0.000731768 0.00029623 0)
(0.000635215 0.000279476 0)
(0.000543539 0.000260802 0)
(0.00045741 0.000240314 0)
(0.000377303 0.000218027 0)
(0.000303819 0.000193946 0)
(0.000237458 0.000168111 0)
(0.000178785 0.000140703 0)
(0.000128261 0.000112116 0)
(8.62865e-05 8.3068e-05 0)
(5.30508e-05 5.46948e-05 0)
(2.84835e-05 2.86698e-05 0)
(1.21082e-05 7.33399e-06 0)
(3.01995e-06 -6.13597e-06 0)
(-7.07249e-08 -7.5602e-06 0)
(-1.64887e-07 -4.8578e-06 0)
(-5.81374e-06 2.83068e-06 0)
(-1.93928e-05 2.36431e-05 0)
(-4.19628e-05 5.32012e-05 0)
(-7.40001e-05 8.79508e-05 0)
(-0.000115652 0.000125196 0)
(-0.000166761 0.000162991 0)
(-0.000226919 0.000199992 0)
(-0.000295603 0.000235363 0)
(-0.000372196 0.000268634 0)
(-0.000456114 0.000299625 0)
(-0.000546728 0.000328283 0)
(-0.000643507 0.000354635 0)
(-0.000745815 0.000378625 0)
(-0.000853137 0.000400142 0)
(-0.0009647 0.000418838 0)
(-0.00107987 0.000434265 0)
(-0.00119753 0.000445636 0)
(-0.00131675 0.000452113 0)
(-0.0014358 0.000452462 0)
(-0.00155333 0.000445558 0)
(-0.0016668 0.000429863 0)
(-0.00177438 0.000404231 0)
(-0.00187259 0.000367115 0)
(-0.00195926 0.000317754 0)
(-0.00203002 0.000254997 0)
(-0.00208272 0.00017897 0)
(-0.00211234 8.93637e-05 0)
(-0.00211732 -1.23393e-05 0)
(-0.00209252 -0.000125245 0)
(-0.00203773 -0.000246236 0)
(-0.00194836 -0.000373119 0)
(-0.00182645 -0.000501251 0)
(-0.00166864 -0.000627474 0)
(-0.0014799 -0.000746257 0)
(-0.00125857 -0.000854281 0)
(-0.00101267 -0.00094619 0)
(-0.000742195 -0.0010195 0)
(-0.000457639 -0.00107007 0)
(-0.000160085 -0.001097 0)
(0.000138558 -0.00109808 0)
(0.000436852 -0.00107427 0)
(0.000722767 -0.00102558 0)
(0.000995297 -0.000954842 0)
(0.0012436 -0.00086413 0)
(0.00146785 -0.000757738 0)
(0.00165954 -0.000639253 0)
(0.00182055 -0.000513629 0)
(0.0019454 -0.000384964 0)
(0.00203775 -0.000257817 0)
(0.00209505 -0.000135718 0)
(0.00212226 -2.19936e-05 0)
(0.00211915 8.10682e-05 0)
(0.00209122 0.000171718 0)
(0.0020397 0.000249078 0)
(0.00196992 0.00031285 0)
(0.0018838 0.000363337 0)
(0.00178599 0.000401289 0)
(0.00167846 0.000427769 0)
(0.00156492 0.000444078 0)
(0.00144705 0.000451572 0)
(0.00132757 0.000451642 0)
(0.00120774 0.000445543 0)
(0.00108942 0.000434427 0)
(0.000973465 0.000419212 0)
(0.000861099 0.000400638 0)
(0.000752917 0.000379201 0)
(0.000649752 0.000355223 0)
(0.000552103 0.00032884 0)
(0.000460648 0.000300098 0)
(0.000375917 0.000268985 0)
(0.000298568 0.000235551 0)
(0.000229191 0.000199983 0)
(0.00016842 0.000162743 0)
(0.000116784 0.000124666 0)
(7.47074e-05 8.71034e-05 0)
(4.235e-05 5.20369e-05 0)
(1.95512e-05 2.22317e-05 0)
(5.81241e-06 1.37982e-06 0)
(1.54755e-07 -5.77311e-06 0)
(-3.50428e-07 -1.50012e-06 0)
(-8.60733e-06 1.44078e-05 0)
(-2.70229e-05 4.45498e-05 0)
(-5.63318e-05 8.4082e-05 0)
(-9.65018e-05 0.000129 0)
(-0.000147296 0.00017625 0)
(-0.000208212 0.000223625 0)
(-0.000278595 0.000269638 0)
(-0.000357684 0.000313361 0)
(-0.000444749 0.000354327 0)
(-0.000539048 0.000392347 0)
(-0.000639963 0.000427431 0)
(-0.000746824 0.000459585 0)
(-0.00085911 0.000488804 0)
(-0.000976107 0.000514862 0)
(-0.00109727 0.000537419 0)
(-0.00122162 0.000555758 0)
(-0.00134841 0.000569058 0)
(-0.00147615 0.000576024 0)
(-0.00160372 0.000575388 0)
(-0.00172884 0.000565364 0)
(-0.00184992 0.000544468 0)
(-0.0019637 0.000510695 0)
(-0.00206816 0.000462771 0)
(-0.002159 0.00039891 0)
(-0.00223401 0.000318629 0)
(-0.00228799 0.000220912 0)
(-0.00231902 0.000106694 0)
(-0.00232132 -2.37289e-05 0)
(-0.00229405 -0.000167488 0)
(-0.00223147 -0.000322636 0)
(-0.0021347 -0.0004842 0)
(-0.00199887 -0.000648671 0)
(-0.00182802 -0.000809409 0)
(-0.00161887 -0.000962071 0)
(-0.001379 -0.00109951 0)
(-0.00110697 -0.0012178 0)
(-0.000813641 -0.00131079 0)
(-0.000499061 -0.00137617 0)
(-0.000176321 -0.00140991 0)
(0.000153794 -0.00141195 0)
(0.000477311 -0.00138094 0)
(0.000793491 -0.00131925 0)
(0.00108896 -0.00122834 0)
(0.00136381 -0.00111272 0)
(0.00160669 -0.000976275 0)
(0.00181926 -0.000824966 0)
(0.00199334 -0.00066404 0)
(0.00213256 -0.000499667 0)
(0.00223224 -0.00033699 0)
(0.00229769 -0.00018103 0)
(0.00232724 -3.56329e-05 0)
(0.00232706 9.60786e-05 0)
(0.00229755 0.000212061 0)
(0.00224491 0.000311165 0)
(0.00217069 0.000393047 0)
(0.00208049 0.000458138 0)
(0.00197626 0.000507335 0)
(0.00186258 0.000542054 0)
(0.00174129 0.000563856 0)
(0.00161587 0.000574533 0)
(0.00148776 0.000575759 0)
(0.00135942 0.000569198 0)
(0.00123187 0.000556239 0)
(0.00110674 0.000538109 0)
(0.000984704 0.000515702 0)
(0.000866824 0.0004897 0)
(0.000753617 0.000460484 0)
(0.000645851 0.000428265 0)
(0.000544038 0.000393073 0)
(0.000448887 0.000354893 0)
(0.000361019 0.000313731 0)
(0.0002812 0.000269764 0)
(0.000210159 0.000223459 0)
(0.000148675 0.000175732 0)
(9.74114e-05 0.000128086 0)
(5.6881e-05 8.27696e-05 0)
(2.72999e-05 4.29236e-05 0)
(8.6738e-06 1.2728e-05 0)
(3.70566e-07 -2.54438e-06 0)
(-5.25719e-07 3.28577e-06 0)
(-1.14522e-05 2.99207e-05 0)
(-3.49242e-05 7.14842e-05 0)
(-7.12992e-05 0.000122623 0)
(-0.000119963 0.0001789 0)
(-0.000180179 0.000236939 0)
(-0.00025105 0.000294349 0)
(-0.000331567 0.000349548 0)
(-0.000420756 0.000401622 0)
(-0.000517672 0.000450124 0)
(-0.000621527 0.000494965 0)
(-0.000731558 0.000536175 0)
(-0.000847186 0.000573861 0)
(-0.000967729 0.000607957 0)
(-0.00109269 0.000638296 0)
(-0.00122125 0.000664324 0)
(-0.00135281 0.000685339 0)
(-0.00148615 0.000700106 0)
(-0.00162038 0.000707333 0)
(-0.00175357 0.000705108 0)
(-0.00188442 0.000691712 0)
(-0.00201005 0.000664769 0)
(-0.00212869 0.000622532 0)
(-0.00223634 0.00056259 0)
(-0.00233092 0.000483778 0)
(-0.0024073 0.000384257 0)
(-0.00246346 0.000264192 0)
(-0.00249334 0.000122998 0)
(-0.00249559 -3.70958e-05 0)
(-0.00246368 -0.000214831 0)
(-0.00239783 -0.000405419 0)
(-0.00229175 -0.000605512 0)
(-0.00214835 -0.000807827 0)
(-0.00196252 -0.00100734 0)
(-0.00174087 -0.00119524 0)
(-0.00148019 -0.00136613 0)
(-0.00119116 -0.00151152 0)
(-0.000872413 -0.0016274 0)
(-0.000537797 -0.00170738 0)
(-0.000187067 -0.00174991 0)
(0.00016416 -0.00175169 0)
(0.000515806 -0.00171408 0)
(0.000852074 -0.00163723 0)
(0.00117333 -0.00152534 0)
(0.00146524 -0.0013819 0)
(0.00172942 -0.00121345 0)
(0.00195449 -0.001026 0)
(0.00214404 -0.000827249 0)
(0.00229071 -0.000624029 0)
(0.0024001 -0.000423334 0)
(0.00246861 -0.000230945 0)
(0.00250308 -5.17785e-05 0)
(0.00250268 0.000110485 0)
(0.00247449 0.000253419 0)
(0.00241939 0.000375592 0)
(0.00234391 0.000476777 0)
(0.00224972 0.000557371 0)
(0.00214234 0.000618676 0)
(0.0020236 0.000662247 0)
(0.00189779 0.000690169 0)
(0.00176648 0.000704457 0)
(0.00163276 0.000707308 0)
(0.00149783 0.000700613 0)
(0.00136374 0.000686188 0)
(0.00123131 0.000665433 0)
(0.00110187 0.000639533 0)
(0.000975966 0.000609254 0)
(0.000854484 0.000575127 0)
(0.0007379 0.000537358 0)
(0.000626948 0.000496003 0)
(0.000522201 0.000450975 0)
(0.000424456 0.000402234 0)
(0.000334495 0.000349871 0)
(0.000253284 0.000294317 0)
(0.000181802 0.000236482 0)
(0.000121077 0.000177961 0)
(7.20101e-05 0.000121196 0)
(3.53195e-05 6.96707e-05 0)
(1.15829e-05 2.8039e-05 0)
(5.67238e-07 2.13608e-06 0)
(-6.92753e-07 9.5132e-06 0)
(-1.43993e-05 4.9517e-05 0)
(-4.32157e-05 0.000104724 0)
(-8.70667e-05 0.000169166 0)
(-0.000144627 0.000237952 0)
(-0.000214573 0.000307445 0)
(-0.000295493 0.000375134 0)
(-0.000386017 0.000439467 0)
(-0.000484861 0.000499598 0)
(-0.000590955 0.000555234 0)
(-0.000703339 0.000606373 0)
(-0.0008213 0.000653206 0)
(-0.00094412 0.000695845 0)
(-0.00107131 0.000734341 0)
(-0.00120216 0.000768382 0)
(-0.0013362 0.000797482 0)
(-0.00147244 0.00082059 0)
(-0.00161025 0.00083652 0)
(-0.00174806 0.000843382 0)
(-0.00188486 0.000839363 0)
(-0.00201825 0.000821861 0)
(-0.00214677 0.000788765 0)
(-0.00226692 0.000737134 0)
(-0.00237687 0.000665151 0)
(-0.00247186 0.000570144 0)
(-0.00254995 0.000451397 0)
(-0.00260518 0.00030727 0)
(-0.00263597 0.000139046 0)
(-0.0026354 -5.30945e-05 0)
(-0.00260301 -0.00026508 0)
(-0.00253145 -0.00049432 0)
(-0.00242244 -0.000733558 0)
(-0.00226907 -0.000977726 0)
(-0.00207657 -0.00121684 0)
(-0.00183959 -0.0014443 0)
(-0.00156794 -0.00164919 0)
(-0.00125846 -0.00182554 0)
(-0.000925246 -0.00196413 0)
(-0.000566662 -0.00206153 0)
(-0.000199577 -0.00211183 0)
(0.000176966 -0.00211489 0)
(0.00054499 -0.00206883 0)
(0.000905529 -0.00197693 0)
(0.00124129 -0.00184151 0)
(0.00155414 -0.00166903 0)
(0.00182927 -0.00146556 0)
(0.00207021 -0.00123989 0)
(0.00226628 -0.00100037 0)
(0.00242338 -0.000756091 0)
(0.00253541 -0.000515066 0)
(0.00260995 -0.000284415 0)
(0.00264451 -6.99282e-05 0)
(0.00264713 0.000124242 0)
(0.00261764 0.000295089 0)
(0.00256358 0.000441319 0)
(0.00248604 0.000562406 0)
(0.0023915 0.000659246 0)
(0.00228153 0.000733077 0)
(0.00216131 0.000786104 0)
(0.00203237 0.000820499 0)
(0.00189855 0.000838934 0)
(0.00176107 0.000843761 0)
(0.00162256 0.000837439 0)
(0.00148391 0.000821935 0)
(0.0013468 0.00079907 0)
(0.00121181 0.000770121 0)
(0.00108002 0.000736109 0)
(0.000951845 0.000697574 0)
(0.000828064 0.000654816 0)
(0.000709148 0.000607814 0)
(0.000595859 0.000556449 0)
(0.000488903 0.000500535 0)
(0.000389261 0.000440059 0)
(0.000298004 0.000375304 0)
(0.000216436 0.000307107 0)
(0.000145939 0.000237039 0)
(8.79367e-05 0.000167668 0)
(4.37228e-05 0.000102761 0)
(1.45891e-05 4.74679e-05 0)
(7.4752e-07 8.28003e-06 0)
(-8.62102e-07 1.72381e-05 0)
(-1.7561e-05 7.34446e-05 0)
(-5.21839e-05 0.000144676 0)
(-0.000104084 0.000224161 0)
(-0.000171082 0.000306534 0)
(-0.000251106 0.000387955 0)
(-0.000342181 0.000465936 0)
(-0.000442477 0.000539047 0)
(-0.000550466 0.000606676 0)
(-0.00066486 0.000668714 0)
(-0.000784698 0.000725408 0)
(-0.000909137 0.00077704 0)
(-0.00103762 0.00082391 0)
(-0.00116949 0.000866001 0)
(-0.00130434 0.000903128 0)
(-0.00144142 0.000934532 0)
(-0.00158025 0.000959264 0)
(-0.00171964 0.00097561 0)
(-0.00185887 0.000981821 0)
(-0.001996 0.000975249 0)
(-0.00212996 0.000953579 0)
(-0.0022578 0.000913511 0)
(-0.00237806 0.000852692 0)
(-0.00248655 0.000767719 0)
(-0.0025816 0.000657007 0)
(-0.00265768 0.000517835 0)
(-0.00271326 0.000350369 0)
(-0.00274149 0.000153469 0)
(-0.00274159 -6.99406e-05 0)
(-0.00270565 -0.000318569 0)
(-0.00263446 -0.000585925 0)
(-0.00251968 -0.00086772 0)
(-0.00236495 -0.00115367 0)
(-0.00216263 -0.00143671 0)
(-0.00192087 -0.00170387 0)
(-0.00163422 -0.0019472 0)
(-0.00131626 -0.0021542 0)
(-0.000963672 -0.00231915 0)
(-0.000594065 -0.00243297 0)
(-0.000205101 -0.00249352 0)
(0.000183397 -0.00249617 0)
(0.000573486 -0.0024427 0)
(0.000945079 -0.00233346 0)
(0.00130069 -0.00217412 0)
(0.00162201 -0.00196985 0)
(0.00191272 -0.00172976 0)
(0.00215827 -0.00146304 0)
(0.00236468 -0.00118074 0)
(0.00252279 -0.000893269 0)
(0.00264096 -0.000610313 0)
(0.00271463 -0.000340251 0)
(0.00275297 -8.94187e-05 0)
(0.0027544 0.000137094 0)
(0.00272759 0.00033651 0)
(0.0026727 0.000506903 0)
(0.00259724 0.000648401 0)
(0.00250224 0.000761537 0)
(0.00239377 0.000848381 0)
(0.00227313 0.000910994 0)
(0.00214491 0.00095239 0)
(0.00201028 0.000975238 0)
(0.0018725 0.000982628 0)
(0.00173243 0.000977086 0)
(0.00159222 0.000961154 0)
(0.00145244 0.000936715 0)
(0.00131443 0.000905436 0)
(0.00117858 0.000868345 0)
(0.00104573 0.000826183 0)
(0.000916264 0.000779181 0)
(0.000790875 0.000727343 0)
(0.000670108 0.00067039 0)
(0.000554839 0.000608023 0)
(0.000446018 0.000539992 0)
(0.000344961 0.000466384 0)
(0.0002532 0.000387808 0)
(0.000172588 0.00030571 0)
(0.000105102 0.000222645 0)
(5.27938e-05 0.000142607 0)
(1.78015e-05 7.12675e-05 0)
(9.27842e-07 1.59433e-05 0)
(-1.04996e-06 2.65921e-05 0)
(-2.1139e-05 0.000102139 0)
(-6.2303e-05 0.000191976 0)
(-0.000123112 0.000288266 0)
(-0.000200262 0.000385147 0)
(-0.000290806 0.000478714 0)
(-0.000392082 0.000566656 0)
(-0.000501844 0.000647876 0)
(-0.00061826 0.000722082 0)
(-0.000739978 0.00078954 0)
(-0.000865916 0.00085071 0)
(-0.00099536 0.000906156 0)
(-0.00112763 0.000956201 0)
(-0.00126234 0.00100102 0)
(-0.00139887 0.00104024 0)
(-0.00153688 0.00107326 0)
(-0.00167549 0.00109868 0)
(-0.00181421 0.00111498 0)
(-0.00195157 0.00111964 0)
(-0.00208683 0.00111034 0)
(-0.00221763 0.00108364 0)
(-0.00234291 0.00103683 0)
(-0.00245918 0.000965971 0)
(-0.00256515 0.000868734 0)
(-0.00265596 0.000741431 0)
(-0.00273037 0.000583105 0)
(-0.00278206 0.000391246 0)
(-0.00281022 0.000167394 0)
(-0.00280709 -8.88e-05 0)
(-0.00277293 -0.000372226 0)
(-0.0026987 -0.00068016 0)
(-0.00258668 -0.0010031 0)
(-0.00242725 -0.00133466 0)
(-0.00222636 -0.00166094 0)
(-0.00197564 -0.00197262 0)
(-0.00168701 -0.00225382 0)
(-0.00135499 -0.002496 0)
(-0.000997289 -0.00268621 0)
(-0.000609906 -0.00281996 0)
(-0.000213977 -0.00288908 0)
(0.000193884 -0.00289337 0)
(0.000590967 -0.00283029 0)
(0.000980748 -0.00270414 0)
(0.00134146 -0.00251828 0)
(0.00167746 -0.00228122 0)
(0.00197 -0.00200174 0)
(0.00222513 -0.00169208 0)
(0.00242972 -0.00136487 0)
(0.00259295 -0.0010327 0)
(0.00270775 -0.000707024 0)
(0.00278472 -0.000396876 0)
(0.00282059 -0.000109941 0)
(0.00282539 0.000149107 0)
(0.00279801 0.000376471 0)
(0.00274709 0.000571146 0)
(0.00267278 0.000732512 0)
(0.00258206 0.000862198 0)
(0.00247571 0.000961788 0)
(0.0023591 0.00103443 0)
(0.00223315 0.00108287 0)
(0.00210172 0.00111075 0)
(0.00196562 0.00112104 0)
(0.00182745 0.00111703 0)
(0.00168779 0.00110124 0)
(0.00154828 0.00107609 0)
(0.00140927 0.00104322 0)
(0.00127178 0.00100401 0)
(0.00113607 0.000959114 0)
(0.00100283 0.000908903 0)
(0.000872418 0.000853228 0)
(0.000745557 0.000791755 0)
(0.00062294 0.000723923 0)
(0.000505678 0.000649251 0)
(0.000395122 0.000567463 0)
(0.00029313 0.000478834 0)
(0.000201951 0.00038448 0)
(0.000124265 0.000286787 0)
(6.29998e-05 0.000189846 0)
(2.14216e-05 9.98695e-05 0)
(1.12495e-06 2.5256e-05 0)
(-1.28643e-06 3.7833e-05 0)
(-2.54624e-05 0.000136333 0)
(-7.43399e-05 0.000247606 0)
(-0.00014529 0.000362421 0)
(-0.00023355 0.000474462 0)
(-0.000335074 0.000579983 0)
(-0.000446526 0.000677139 0)
(-0.000565217 0.000765361 0)
(-0.000689174 0.000844911 0)
(-0.000816927 0.000916446 0)
(-0.000947512 0.000980833 0)
(-0.00108015 0.00103878 0)
(-0.0012144 0.00109088 0)
(-0.00134972 0.0011372 0)
(-0.00148584 0.00117758 0)
(-0.0016221 0.00121105 0)
(-0.0017582 0.00123645 0)
(-0.00189306 0.00125158 0)
(-0.0020262 0.00125431 0)
(-0.00215583 0.00124125 0)
(-0.00228126 0.00120958 0)
(-0.00239969 0.00115508 0)
(-0.00251027 0.00107489 0)
(-0.00260897 0.000964572 0)
(-0.00269493 0.00082219 0)
(-0.00276269 0.000644 0)
(-0.00281173 0.000430138 0)
(-0.00283498 0.000178556 0)
(-0.00283268 -0.000107342 0)
(-0.002796 -0.000426886 0)
(-0.00272649 -0.000772275 0)
(-0.00261355 -0.00113905 0)
(-0.00246103 -0.00151403 0)
(-0.00225764 -0.00188818 0)
(-0.00201218 -0.00224326 0)
(-0.0017159 -0.00256774 0)
(-0.0013855 -0.00284383 0)
(-0.0010151 -0.003064 0)
(-0.000626391 -0.003216 0)
(-0.00021425 -0.00329704 0)
(0.000196366 -0.00330073 0)
(0.000609948 -0.00322938 0)
(0.0010011 -0.0030836 0)
(0.00137515 -0.00287081 0)
(0.00170941 -0.00259818 0)
(0.0020103 -0.00227756 0)
(0.00225978 -0.00192256 0)
(0.0024674 -0.00154873 0)
(0.002623 -0.00117122 0)
(0.002739 -0.000802417 0)
(0.00281037 -0.000453211 0)
(0.00284891 -0.000130576 0)
(0.00285204 0.000159385 0)
(0.00282967 0.000414232 0)
(0.00278071 0.000631763 0)
(0.00271311 0.000812854 0)
(0.00262673 0.000958191 0)
(0.00252771 0.00107078 0)
(0.00241642 0.00115313 0)
(0.00229737 0.00120921 0)
(0.00217107 0.00124227 0)
(0.00204065 0.0012563 0)
(0.00190656 0.00125435 0)
(0.00177082 0.00123969 0)
(0.00163372 0.00121461 0)
(0.00149652 0.00118127 0)
(0.0013594 0.00114091 0)
(0.00122313 0.00109448 0)
(0.0010879 0.0010422 0)
(0.000954326 0.000983986 0)
(0.000822807 0.000919262 0)
(0.000694159 0.000847302 0)
(0.000569334 0.000767232 0)
(0.000449831 0.000678369 0)
(0.000337622 0.000580435 0)
(0.000235417 0.000474009 0)
(0.000146564 0.000361028 0)
(7.51088e-05 0.000245458 0)