/*--------------------------------*- C++ -*----------------------------------*\
| =========                 |                                                 |
| \\      /  F ield         | OpenFOAM: The Open Source CFD Toolbox           |
|  \\    /   O peration     | Version:  2412                                  |
|   \\  /    A nd           | Website:  www.openfoam.com                      |
|    \\/     M anipulation  |                                                 |
\*---------------------------------------------------------------------------*/
FoamFile
{
    version     2.0;
    format      ascii;
    arch        "LSB;label=32;scalar=64";
    class       volVectorField;
    location    "1.65";
    object      U;
}
// * * * * * * * * * * * * * * * * * * * * * * * * * * * * * * * * * * * * * //

dimensions      [0 1 -1 0 0 0 0];

internalField   nonuniform List<vector> 
6400
(
(0.00299806 -0.00300213 0)
(0.010221 -0.00336028 0)
(0.0176248 -0.0032829 0)
(0.0249096 -0.00317587 0)
(0.0319605 -0.00303872 0)
(0.0387295 -0.00286868 0)
(0.0451518 -0.00266432 0)
(0.0511551 -0.0024246 0)
(0.0566801 -0.00215268 0)
(0.0616596 -0.0018467 0)
(0.0660235 -0.00151356 0)
(0.0697128 -0.00115029 0)
(0.0726661 -0.000762698 0)
(0.0748257 -0.000353498 0)
(0.076153 7.41739e-05 0)
(0.0766167 0.000514817 0)
(0.0761937 0.00095371 0)
(0.0748676 0.00137541 0)
(0.0726451 0.00177441 0)
(0.0695654 0.00214488 0)
(0.0656937 0.00247501 0)
(0.061108 0.00275006 0)
(0.0559021 0.00295997 0)
(0.0501993 0.00310075 0)
(0.0441392 0.00316171 0)
(0.0378715 0.00313647 0)
(0.0315602 0.00302565 0)
(0.0253725 0.00282961 0)
(0.0194703 0.00255395 0)
(0.0140085 0.00220793 0)
(0.00911632 0.00180355 0)
(0.0048892 0.00135344 0)
(0.00141422 0.000867611 0)
(-0.00127125 0.000352546 0)
(-0.00310185 -0.00015586 0)
(-0.00408534 -0.000662185 0)
(-0.0042833 -0.00111922 0)
(-0.00380307 -0.00151145 0)
(-0.00283185 -0.00178696 0)
(-0.00150336 -0.00192492 0)
(-2.62455e-05 -0.00193607 0)
(0.00134332 -0.00181313 0)
(0.00239656 -0.00156077 0)
(0.00298153 -0.00119098 0)
(0.00289318 -0.000746098 0)
(0.00203947 -0.000233938 0)
(0.000384458 0.000277337 0)
(-0.0021251 0.000790649 0)
(-0.00543657 0.00127583 0)
(-0.00950193 0.00172571 0)
(-0.0142308 0.00213177 0)
(-0.0195342 0.0024802 0)
(-0.0252863 0.00276025 0)
(-0.0313363 0.00296226 0)
(-0.0375206 0.00307919 0)
(-0.0436739 0.00311076 0)
(-0.0496316 0.00305647 0)
(-0.0552431 0.0029217 0)
(-0.0603683 0.00271642 0)
(-0.0648859 0.00244586 0)
(-0.0687024 0.00212238 0)
(-0.0717392 0.00175873 0)
(-0.0739286 0.00136589 0)
(-0.0752319 0.00094782 0)
(-0.0756467 0.000512817 0)
(-0.0751871 7.75565e-05 0)
(-0.0738714 -0.000343757 0)
(-0.071734 -0.000748213 0)
(-0.0688156 -0.00113065 0)
(-0.0651675 -0.00148933 0)
(-0.0608556 -0.00182306 0)
(-0.055941 -0.00212434 0)
(-0.0504852 -0.00239271 0)
(-0.0445559 -0.00262746 0)
(-0.0382164 -0.00282929 0)
(-0.0315365 -0.00299898 0)
(-0.0245776 -0.0031337 0)
(-0.0173898 -0.00323897 0)
(-0.0100871 -0.00331317 0)
(-0.00295965 -0.00296354 0)
(0.00332492 -0.0101884 0)
(0.0119795 -0.0120797 0)
(0.020569 -0.0118358 0)
(0.0290493 -0.0115108 0)
(0.0373061 -0.0111309 0)
(0.0453028 -0.0106596 0)
(0.0529847 -0.0100926 0)
(0.0602745 -0.00942528 0)
(0.0671194 -0.0086529 0)
(0.0734472 -0.00777909 0)
(0.0791831 -0.00680437 0)
(0.0842663 -0.0057345 0)
(0.0886207 -0.00457225 0)
(0.0921765 -0.00332708 0)
(0.0948869 -0.0020087 0)
(0.0966992 -0.000638364 0)
(0.0975729 0.000760092 0)
(0.0974985 0.00215697 0)
(0.0964667 0.0035257 0)
(0.0944817 0.00483855 0)
(0.091574 0.00606107 0)
(0.0878004 0.00715878 0)
(0.0832394 0.00809894 0)
(0.0779872 0.00885391 0)
(0.0721607 0.00939567 0)
(0.0658963 0.0097034 0)
(0.0593407 0.00976791 0)
(0.0526483 0.00958363 0)
(0.045973 0.00915754 0)
(0.0394716 0.00851084 0)
(0.0332809 0.00767467 0)
(0.0275216 0.0066852 0)
(0.0222982 0.00557877 0)
(0.0176506 0.00439571 0)
(0.0135837 0.00321339 0)
(0.0100739 0.00205942 0)
(0.00708307 0.00102583 0)
(0.0045289 0.000152202 0)
(0.00227617 -0.00047872 0)
(0.000219266 -0.000813063 0)
(-0.00175007 -0.000842785 0)
(-0.00377467 -0.000560802 0)
(-0.0059702 1.16131e-05 0)
(-0.00843295 0.000838704 0)
(-0.0113055 0.00183299 0)
(-0.0146814 0.0029762 0)
(-0.0185857 0.00415152 0)
(-0.0230548 0.00532608 0)
(-0.028092 0.00642947 0)
(-0.033666 0.00742024 0)
(-0.0396831 0.00826304 0)
(-0.0460182 0.00892003 0)
(-0.0525353 0.00935991 0)
(-0.0590793 0.00956144 0)
(-0.0654965 0.0095158 0)
(-0.0716333 0.00922661 0)
(-0.0773451 0.00870332 0)
(-0.0824955 0.0079659 0)
(-0.0869669 0.00704287 0)
(-0.0906628 0.00596181 0)
(-0.0935058 0.00475789 0)
(-0.0954417 0.00346748 0)
(-0.0964374 0.00211647 0)
(-0.0964855 0.000736643 0)
(-0.0955986 -0.000645976 0)
(-0.0937865 -0.00199857 0)
(-0.0910851 -0.00329666 0)
(-0.0875527 -0.00452656 0)
(-0.083238 -0.00567254 0)
(-0.0782036 -0.00672815 0)
(-0.0725247 -0.00769114 0)
(-0.0662681 -0.00855131 0)
(-0.0595016 -0.00931037 0)
(-0.0522947 -0.00996624 0)
(-0.0447108 -0.0105231 0)
(-0.0368167 -0.0109868 0)
(-0.0286654 -0.0113593 0)
(-0.0202976 -0.0116777 0)
(-0.0118217 -0.0119162 0)
(-0.00328089 -0.0100571 0)
(0.00341345 -0.0176634 0)
(0.0121883 -0.020803 0)
(0.0208451 -0.0203439 0)
(0.0294141 -0.0198056 0)
(0.0377782 -0.0192 0)
(0.0458926 -0.0184472 0)
(0.0537019 -0.0175408 0)
(0.0611408 -0.0164701 0)
(0.0681474 -0.0152248 0)
(0.0746494 -0.0138115 0)
(0.0805697 -0.0122233 0)
(0.0858451 -0.0104693 0)
(0.0904018 -0.00855746 0)
(0.0941633 -0.00650428 0)
(0.097072 -0.00432261 0)
(0.0990725 -0.00205001 0)
(0.100121 0.000284046 0)
(0.100194 0.00263984 0)
(0.0992792 0.00496473 0)
(0.0973818 0.0072152 0)
(0.0945344 0.00932809 0)
(0.0907929 0.0112506 0)
(0.0862309 0.0129305 0)
(0.0809471 0.0143145 0)
(0.0750626 0.0153593 0)
(0.0687167 0.0160316 0)
(0.0620575 0.0163095 0)
(0.055241 0.0161882 0)
(0.0484274 0.0156771 0)
(0.0417756 0.0148031 0)
(0.0354206 0.0136064 0)
(0.0294754 0.0121508 0)
(0.0240431 0.0105171 0)
(0.0191778 0.00879609 0)
(0.0148881 0.00708759 0)
(0.0111552 0.00547797 0)
(0.00793432 0.00406262 0)
(0.00513601 0.00289854 0)
(0.0026438 0.00205649 0)
(0.000351957 0.00159753 0)
(-0.0018575 0.00155708 0)
(-0.00412034 0.00193366 0)
(-0.00655014 0.00269323 0)
(-0.00925805 0.00379072 0)
(-0.0123626 0.00514518 0)
(-0.0159549 0.00671006 0)
(-0.0200839 0.0083877 0)
(-0.0247758 0.0100884 0)
(-0.0300274 0.0117151 0)
(-0.0357931 0.0131747 0)
(-0.0419772 0.0143838 0)
(-0.048465 0.0152774 0)
(-0.055121 0.0158133 0)
(-0.0617882 0.0159624 0)
(-0.0683096 0.0157138 0)
(-0.07453 0.015069 0)
(-0.0803013 0.0140514 0)
(-0.0854823 0.0126985 0)
(-0.0899532 0.0110496 0)
(-0.0936168 0.00915752 0)
(-0.0963947 0.00707395 0)
(-0.0982408 0.00485379 0)
(-0.0991187 0.0025632 0)
(-0.0990169 0.000240271 0)
(-0.0979538 -0.00206524 0)
(-0.09595 -0.00430696 0)
(-0.0930514 -0.00645812 0)
(-0.0893144 -0.0084862 0)
(-0.0847962 -0.0103694 0)
(-0.0795686 -0.0120961 0)
(-0.0737053 -0.0136581 0)
(-0.0672756 -0.0150488 0)
(-0.0603501 -0.0162704 0)
(-0.0529979 -0.0173229 0)
(-0.0452863 -0.018211 0)
(-0.0372772 -0.018948 0)
(-0.0290221 -0.0195433 0)
(-0.020567 -0.0200725 0)
(-0.0120255 -0.0205252 0)
(-0.00336792 -0.0174333 0)
(0.00351908 -0.0253835 0)
(0.0124618 -0.0297637 0)
(0.0212652 -0.029104 0)
(0.0299859 -0.0283641 0)
(0.038516 -0.0275386 0)
(0.0468046 -0.0265149 0)
(0.0547951 -0.0252732 0)
(0.0624261 -0.023804 0)
(0.0696299 -0.0220913 0)
(0.0763326 -0.020136 0)
(0.0824565 -0.0179322 0)
(0.0879278 -0.0154831 0)
(0.0926636 -0.0128051 0)
(0.0965897 -0.00991337 0)
(0.0996385 -0.00683385 0)
(0.101743 -0.00360675 0)
(0.102852 -0.00027907 0)
(0.102929 0.00309461 0)
(0.101963 0.00643263 0)
(0.0999486 0.00967752 0)
(0.0969089 0.01276 0)
(0.092909 0.0155787 0)
(0.0880253 0.0180588 0)
(0.0823607 0.02013 0)
(0.0760469 0.0217251 0)
(0.0692357 0.022794 0)
(0.0620964 0.023304 0)
(0.0548063 0.0232465 0)
(0.0475413 0.0226313 0)
(0.0404791 0.0214999 0)
(0.0337789 0.0199096 0)
(0.0275701 0.0179486 0)
(0.0219605 0.0157295 0)
(0.017018 0.0133817 0)
(0.0127644 0.0110402 0)
(0.00918782 0.0088331 0)
(0.00623688 0.00688241 0)
(0.00381131 0.00528686 0)
(0.00178774 0.00414505 0)
(2.95256e-05 0.00352027 0)
(-0.00162432 0.00346522 0)
(-0.00335235 0.00397431 0)
(-0.00530468 0.00500509 0)
(-0.00762339 0.00649975 0)
(-0.0104428 0.00836466 0)
(-0.013863 0.0105032 0)
(-0.0179412 0.0127988 0)
(-0.0227 0.0151193 0)
(-0.0281219 0.01733 0)
(-0.0341455 0.0192994 0)
(-0.0406662 0.0209097 0)
(-0.0475556 0.0220692 0)
(-0.0546583 0.0227167 0)
(-0.0617987 0.0228091 0)
(-0.0688022 0.0223354 0)
(-0.0754897 0.0213081 0)
(-0.0816863 0.0197576 0)
(-0.087245 0.0177302 0)
(-0.0920388 0.0152926 0)
(-0.0959619 0.0125175 0)
(-0.0989356 0.00948454 0)
(-0.100892 0.00627815 0)
(-0.101815 0.00298353 0)
(-0.101713 -0.000344421 0)
(-0.10059 -0.00363046 0)
(-0.0984834 -0.00681428 0)
(-0.0954477 -0.00985256 0)
(-0.0915444 -0.0127035 0)
(-0.0868443 -0.0153408 0)
(-0.0814233 -0.0177489 0)
(-0.0753599 -0.0199163 0)
(-0.0687309 -0.0218383 0)
(-0.0616108 -0.0235179 0)
(-0.0540693 -0.0249597 0)
(-0.0461792 -0.0261764 0)
(-0.0380013 -0.0271782 0)
(-0.0295845 -0.0279884 0)
(-0.0209797 -0.0287164 0)
(-0.0122953 -0.0293655 0)
(-0.00347342 -0.0250485 0)
(0.00366051 -0.0333298 0)
(0.0128345 -0.0389195 0)
(0.0218519 -0.0380594 0)
(0.030791 -0.0371207 0)
(0.0395546 -0.03608 0)
(0.0480903 -0.0347947 0)
(0.056335 -0.0332263 0)
(0.0642356 -0.0313699 0)
(0.0717206 -0.0291927 0)
(0.0787079 -0.0266978 0)
(0.0851178 -0.0238712 0)
(0.0908646 -0.0207179 0)
(0.0958632 -0.0172553 0)
(0.100027 -0.0134959 0)
(0.103275 -0.00947861 0)
(0.10553 -0.00525102 0)
(0.106733 -0.000873576 0)
(0.106823 0.0035731 0)
(0.105784 0.00801904 0)
(0.103634 0.0123457 0)
(0.100361 0.0164624 0)
(0.0960153 0.0202621 0)
(0.0907009 0.0236222 0)
(0.084525 0.0264419 0)
(0.0776289 0.0286375 0)
(0.0701873 0.0301351 0)
(0.0623911 0.0308873 0)
(0.0544393 0.0308727 0)
(0.0465438 0.0301118 0)
(0.0389145 0.0286573 0)
(0.031732 0.0265841 0)
(0.0251518 0.0240126 0)
(0.0193044 0.0210904 0)
(0.0142738 0.0179854 0)
(0.0100854 0.0148757 0)
(0.00672329 0.0119305 0)
(0.00412752 0.0093142 0)
(0.0021834 0.0071775 0)
(0.000739477 0.0056538 0)
(-0.00037224 0.00481434 0)
(-0.00135483 0.00474432 0)
(-0.00243468 0.00542382 0)
(-0.00379356 0.00680488 0)
(-0.00561627 0.00880687 0)
(-0.00806184 0.0113054 0)
(-0.0112422 0.0141593 0)
(-0.0152311 0.0172101 0)
(-0.0200573 0.0202857 0)
(-0.0256982 0.0232028 0)
(-0.0320783 0.0257874 0)
(-0.0390728 0.0278882 0)
(-0.0465266 0.029381 0)
(-0.0542577 0.0301832 0)
(-0.0620569 0.0302442 0)
(-0.0697102 0.0295417 0)
(-0.0770194 0.0280988 0)
(-0.0838005 0.0259601 0)
(-0.089876 0.0231971 0)
(-0.0951003 0.0198947 0)
(-0.0993632 0.0161578 0)
(-0.102572 0.0120986 0)
(-0.104676 0.00782928 0)
(-0.105668 0.00343679 0)
(-0.105547 -0.000959029 0)
(-0.10433 -0.00528267 0)
(-0.102074 -0.00945633 0)
(-0.0988387 -0.0134192 0)
(-0.094699 -0.0171228 0)
(-0.0897384 -0.0205316 0)
(-0.0840426 -0.023632 0)
(-0.0776959 -0.0264104 0)
(-0.0707841 -0.0288608 0)
(-0.0633871 -0.0309952 0)
(-0.0555818 -0.0328178 0)
(-0.0474397 -0.0343545 0)
(-0.039018 -0.0356111 0)
(-0.0303743 -0.0366279 0)
(-0.0215563 -0.0375465 0)
(-0.0126616 -0.0383945 0)
(-0.00361285 -0.0328889 0)
(0.00383149 -0.0415625 0)
(0.013284 -0.0483184 0)
(0.0225717 -0.0472528 0)
(0.0317868 -0.0461309 0)
(0.0408353 -0.0448911 0)
(0.049676 -0.0433589 0)
(0.058241 -0.0414829 0)
(0.0664842 -0.0392469 0)
(0.074329 -0.0366163 0)
(0.081685 -0.033587 0)
(0.0884706 -0.0301355 0)
(0.0945814 -0.0262637 0)
(0.0999275 -0.0219916 0)
(0.104412 -0.0173342 0)
(0.107934 -0.0123312 0)
(0.110403 -0.00704174 0)
(0.111735 -0.00153786 0)
(0.111883 0.00407966 0)
(0.110801 0.00972591 0)
(0.108462 0.0152475 0)
(0.1049 0.0205078 0)
(0.100147 0.0253825 0)
(0.0942853 0.0297236 0)
(0.0874568 0.0333826 0)
(0.0798204 0.0362421 0)
(0.0715652 0.0382085 0)
(0.0629133 0.0392138 0)
(0.0541088 0.0392316 0)
(0.0454023 0.0382787 0)
(0.0370269 0.0364116 0)
(0.0292087 0.033737 0)
(0.0221472 0.0304091 0)
(0.0159964 0.0266171 0)
(0.0108569 0.0225796 0)
(0.00675542 0.0185326 0)
(0.00366843 0.0146867 0)
(0.00152748 0.0112591 0)
(0.00019105 0.00846474 0)
(-0.000541837 0.00647684 0)
(-0.000862266 0.00540305 0)
(-0.00102482 0.00530652 0)
(-0.00131677 0.00619234 0)
(-0.00194716 0.00800097 0)
(-0.00314937 0.0106135 0)
(-0.00511615 0.0138839 0)
(-0.0079875 0.0176152 0)
(-0.0118537 0.021594 0)
(-0.0167583 0.0255994 0)
(-0.0226823 0.0293885 0)
(-0.029529 0.0327373 0)
(-0.0371448 0.0354497 0)
(-0.0453359 0.0373654 0)
(-0.0538742 0.03838 0)
(-0.0625227 0.0384292 0)
(-0.0710322 0.0374926 0)
(-0.0791575 0.0355888 0)
(-0.0866756 0.0327934 0)
(-0.0933986 0.0292045 0)
(-0.0991651 0.024936 0)
(-0.103843 0.0201321 0)
(-0.107346 0.0149376 0)
(-0.10963 0.00949001 0)
(-0.110674 0.00391117 0)
(-0.110496 -0.00164538 0)
(-0.109146 -0.00708189 0)
(-0.106676 -0.0123046 0)
(-0.103167 -0.0172409 0)
(-0.0987059 -0.0218306 0)
(-0.0933987 -0.0260325 0)
(-0.0873419 -0.02984 0)
(-0.080623 -0.0332309 0)
(-0.073346 -0.0362037 0)
(-0.0655954 -0.0387815 0)
(-0.0574531 -0.0409723 0)
(-0.0489933 -0.0428082 0)
(-0.0402698 -0.0443068 0)
(-0.0313458 -0.0455202 0)
(-0.0222616 -0.046615 0)
(-0.0131071 -0.0476659 0)
(-0.00378373 -0.0410151 0)
(0.00403869 -0.0501415 0)
(0.0138157 -0.0580107 0)
(0.0234076 -0.0567332 0)
(0.0329409 -0.0554438 0)
(0.0423295 -0.0540279 0)
(0.0515334 -0.0522715 0)
(0.0604885 -0.0501138 0)
(0.0691496 -0.047514 0)
(0.0774329 -0.04445 0)
(0.0852481 -0.0408921 0)
(0.092507 -0.0368175 0)
(0.0990815 -0.0322188 0)
(0.104873 -0.0271108 0)
(0.109775 -0.021513 0)
(0.113663 -0.0154668 0)
(0.116425 -0.00903871 0)
(0.117963 -0.00231541 0)
(0.118203 0.00459315 0)
(0.117075 0.0115426 0)
(0.114548 0.018396 0)
(0.110639 0.0249615 0)
(0.105384 0.0310528 0)
(0.0988635 0.0364997 0)
(0.0912168 0.0411236 0)
(0.0826393 0.0447462 0)
(0.0733562 0.0472393 0)
(0.0636261 0.04852 0)
(0.053733 0.0485503 0)
(0.0439689 0.0473365 0)
(0.0346312 0.0449495 0)
(0.025999 0.0415267 0)
(0.0183084 0.0372565 0)
(0.0117556 0.0323848 0)
(0.00647507 0.0271775 0)
(0.00248369 0.0219723 0)
(-0.000259845 0.0169852 0)
(-0.00181731 0.0125999 0)
(-0.00236458 0.00902328 0)
(-0.0021566 0.00646951 0)
(-0.00147245 0.00511341 0)
(-0.00061058 0.00498005 0)
(0.000118091 0.00612137 0)
(0.000420361 0.00844316 0)
(1.66419e-05 0.0117831 0)
(-0.00132765 0.0160061 0)
(-0.00380338 0.0208129 0)
(-0.00751423 0.0259385 0)
(-0.0125246 0.0311131 0)
(-0.0188202 0.0359903 0)
(-0.0262751 0.0403 0)
(-0.034695 0.0437832 0)
(-0.0438361 0.0462403 0)
(-0.0534219 0.0475318 0)
(-0.0631592 0.0475779 0)
(-0.0727531 0.0463757 0)
(-0.0819094 0.0439651 0)
(-0.0903652 0.0404276 0)
(-0.0979042 0.0358891 0)
(-0.104334 0.0305248 0)
(-0.109513 0.0245104 0)
(-0.113356 0.0180285 0)
(-0.115834 0.0112467 0)
(-0.116926 0.0043797 0)
(-0.116655 -0.00244724 0)
(-0.115098 -0.00908934 0)
(-0.112335 -0.0154357 0)
(-0.10846 -0.0214013 0)
(-0.10358 -0.0269177 0)
(-0.097829 -0.0319414 0)
(-0.0913137 -0.0364626 0)
(-0.0841244 -0.0404631 0)
(-0.0763922 -0.0439532 0)
(-0.068207 -0.0469523 0)
(-0.0596538 -0.0494938 0)
(-0.0508123 -0.0516018 0)
(-0.0417355 -0.0533172 0)
(-0.0324773 -0.0547043 0)
(-0.0230798 -0.0559691 0)
(-0.0136311 -0.05723 0)
(-0.00399014 -0.0494842 0)
(0.00427697 -0.0591192 0)
(0.0144157 -0.0680378 0)
(0.024351 -0.0665484 0)
(0.0342416 -0.0651096 0)
(0.0440129 -0.0635454 0)
(0.0536338 -0.0615938 0)
(0.0630508 -0.0591861 0)
(0.0722075 -0.0562585 0)
(0.0810178 -0.052786 0)
(0.0893929 -0.0487124 0)
(0.0972287 -0.0440178 0)
(0.104383 -0.0386879 0)
(0.110738 -0.0327202 0)
(0.116171 -0.0261352 0)
(0.120533 -0.0189803 0)
(0.123689 -0.0113261 0)
(0.125514 -0.00327329 0)
(0.1259 0.00505121 0)
(0.124772 0.0134714 0)
(0.122063 0.0218244 0)
(0.117753 0.0298804 0)
(0.111896 0.0373838 0)
(0.104582 0.0441113 0)
(0.095946 0.0498339 0)
(0.0861974 0.0543449 0)
(0.0756218 0.0574664 0)
(0.0645312 0.0590654 0)
(0.0532572 0.05908 0)
(0.0421573 0.0575273 0)
(0.0315953 0.0544893 0)
(0.0219128 0.0501266 0)
(0.0134122 0.0446692 0)
(0.00632843 0.0384542 0)
(0.000863633 0.0317275 0)
(-0.00301098 0.025087 0)
(-0.005287 0.01874 0)
(-0.00604666 0.0131964 0)
(-0.00561587 0.00866482 0)
(-0.00422399 0.00542288 0)
(-0.0022545 0.00368599 0)
(-7.08704e-05 0.00352193 0)
(0.00195989 0.00496966 0)
(0.00343183 0.00793344 0)
(0.00406329 0.0121955 0)
(0.00352915 0.0175261 0)
(0.00155035 0.0236397 0)
(-0.0019436 0.0302004 0)
(-0.00709013 0.0369026 0)
(-0.0138784 0.0431452 0)
(-0.022116 0.0486639 0)
(-0.0315707 0.0531126 0)
(-0.0419348 0.0562426 0)
(-0.0528641 0.0578897 0)
(-0.0639845 0.0579693 0)
(-0.0749287 0.0564671 0)
(-0.0853683 0.0534545 0)
(-0.0949958 0.0490419 0)
(-0.10353 0.0434113 0)
(-0.110757 0.0367737 0)
(-0.116539 0.0293512 0)
(-0.120796 0.0213804 0)
(-0.123453 0.0131232 0)
(-0.124531 0.00480103 0)
(-0.124118 -0.00342541 0)
(-0.122277 -0.0113854 0)
(-0.11912 -0.0189434 0)
(-0.11477 -0.0260019 0)
(-0.109358 -0.0324896 0)
(-0.103045 -0.0383627 0)
(-0.0959547 -0.0436006 0)
(-0.0881948 -0.0482048 0)
(-0.0799076 -0.052195 0)
(-0.0711997 -0.0555896 0)
(-0.0621588 -0.0584458 0)
(-0.0528637 -0.0607951 0)
(-0.0433818 -0.0626992 0)
(-0.0337552 -0.0642286 0)
(-0.0240111 -0.0656416 0)
(-0.0142223 -0.0671131 0)
(-0.00422446 -0.0583463 0)
(0.00454565 -0.0685485 0)
(0.0150755 -0.0784371 0)
(0.0253799 -0.0767302 0)
(0.0356574 -0.0751703 0)
(0.0458546 -0.0734903 0)
(0.0559454 -0.0713838 0)
(0.0658873 -0.0687644 0)
(0.0756219 -0.0655609 0)
(0.0850617 -0.0617139 0)
(0.0941093 -0.0571575 0)
(0.102637 -0.0518571 0)
(0.110498 -0.0457943 0)
(0.117559 -0.0389412 0)
(0.123662 -0.0313225 0)
(0.128633 -0.0229877 0)
(0.132308 -0.0140084 0)
(0.134534 -0.00449429 0)
(0.135158 0.00541687 0)
(0.134076 0.0155007 0)
(0.131203 0.0255519 0)
(0.126464 0.0353071 0)
(0.1199 0.0444822 0)
(0.111621 0.0527488 0)
(0.101781 0.059784 0)
(0.0906294 0.065339 0)
(0.078466 0.0691816 0)
(0.0656636 0.0711415 0)
(0.0526534 0.0711342 0)
(0.0398709 0.0691524 0)
(0.0277548 0.0652929 0)
(0.0167297 0.0597471 0)
(0.00720017 0.0527846 0)
(-0.000619044 0.0448189 0)
(-0.00631902 0.0362918 0)
(-0.00993 0.0278379 0)
(-0.0116011 0.0198438 0)
(-0.0113911 0.012829 0)
(-0.00971795 0.00710317 0)
(-0.00683839 0.00301352 0)
(-0.00324413 0.000826726 0)
(0.000618232 0.000637383 0)
(0.00430601 0.00244311 0)
(0.00729381 0.0062024 0)
(0.00915943 0.0116248 0)
(0.0096041 0.0183095 0)
(0.00833069 0.0260625 0)
(0.00520768 0.0344142 0)
(-0.000116494 0.042957 0)
(-0.00759588 0.050971 0)
(-0.016837 0.0580252 0)
(-0.0276223 0.0636868 0)
(-0.0395371 0.0676663 0)
(-0.0521432 0.0697674 0)
(-0.0649985 0.0699006 0)
(-0.0776511 0.0680594 0)
(-0.0896836 0.0643262 0)
(-0.100728 0.0588817 0)
(-0.110468 0.0519496 0)
(-0.118668 0.0437889 0)
(-0.125163 0.0347199 0)
(-0.129825 0.0250593 0)
(-0.132639 0.0151159 0)
(-0.133684 0.00513313 0)
(-0.133035 -0.00466706 0)
(-0.130794 -0.0140763 0)
(-0.127114 -0.0229449 0)
(-0.122155 -0.0311665 0)
(-0.116076 -0.0386711 0)
(-0.109062 -0.0454177 0)
(-0.101264 -0.0513741 0)
(-0.092815 -0.0565663 0)
(-0.0838622 -0.0610207 0)
(-0.0745324 -0.0647736 0)
(-0.0649253 -0.0678924 0)
(-0.0551208 -0.0704487 0)
(-0.045182 -0.0724976 0)
(-0.0351419 -0.0741399 0)
(-0.025022 -0.0756722 0)
(-0.0148732 -0.077354 0)
(-0.00449129 -0.0676554 0)
(0.00483986 -0.0784737 0)
(0.0157837 -0.0892109 0)
(0.0264778 -0.0872931 0)
(0.0371607 -0.0856575 0)
(0.0478141 -0.083907 0)
(0.0584228 -0.0817005 0)
(0.0689499 -0.0789391 0)
(0.079346 -0.0755133 0)
(0.0895219 -0.071346 0)
(0.0993639 -0.0663573 0)
(0.108723 -0.0604845 0)
(0.117449 -0.0536816 0)
(0.125379 -0.0459227 0)
(0.132313 -0.037228 0)
(0.138056 -0.027637 0)
(0.142411 -0.0172224 0)
(0.145191 -0.00610428 0)
(0.146173 0.00554531 0)
(0.145213 0.0175588 0)
(0.142203 0.0296055 0)
(0.137043 0.0413636 0)
(0.129724 0.0524924 0)
(0.120302 0.062571 0)
(0.108991 0.0712194 0)
(0.0960892 0.0780522 0)
(0.0819606 0.0827697 0)
(0.0670674 0.085162 0)
(0.0519011 0.0851024 0)
(0.0369961 0.0825903 0)
(0.022916 0.0777211 0)
(0.0101704 0.0707169 0)
(-0.000727089 0.061786 0)
(-0.00936883 0.0516578 0)
(-0.0153202 0.0408864 0)
(-0.018671 0.030167 0)
(-0.0195479 0.0200806 0)
(-0.0181056 0.0112172 0)
(-0.0148578 0.00403181 0)
(-0.0100995 -0.000982259 0)
(-0.00445385 -0.00380374 0)
(0.00148958 -0.00402747 0)
(0.00723585 -0.00165447 0)
(0.0121367 0.00296627 0)
(0.0155587 0.00974589 0)
(0.01726 0.0181863 0)
(0.0168899 0.0280131 0)
(0.0141727 0.0386175 0)
(0.00869756 0.0493853 0)
(0.000428275 0.0596149 0)
(-0.010144 0.0686996 0)
(-0.0226354 0.0758829 0)
(-0.0365167 0.080916 0)
(-0.0512451 0.0835651 0)
(-0.066258 0.083746 0)
(-0.0810196 0.0814824 0)
(-0.0950145 0.0768941 0)
(-0.107797 0.0701939 0)
(-0.119012 0.0616773 0)
(-0.12835 0.0517247 0)
(-0.135609 0.0407212 0)
(-0.140717 0.0290724 0)
(-0.143669 0.0171262 0)
(-0.144578 0.00522143 0)
(-0.143567 -0.0063055 0)
(-0.140773 -0.0173025 0)
(-0.136409 -0.0275896 0)
(-0.130677 -0.0370499 0)
(-0.123771 -0.0456134 0)
(-0.115892 -0.0532454 0)
(-0.107229 -0.0599189 0)
(-0.0979509 -0.0656681 0)
(-0.0882111 -0.0705366 0)
(-0.0781565 -0.0745871 0)
(-0.0679084 -0.0779181 0)
(-0.0575322 -0.0806098 0)
(-0.0470885 -0.082752 0)
(-0.0366158 -0.0844627 0)
(-0.026099 -0.0860704 0)
(-0.0155679 -0.0879628 0)
(-0.00478479 -0.0774586 0)
(0.00516831 -0.0889236 0)
(0.0165306 -0.100373 0)
(0.0275966 -0.0982565 0)
(0.0386925 -0.0965746 0)
(0.0498328 -0.0948207 0)
(0.0609886 -0.0925968 0)
(0.0721662 -0.0897783 0)
(0.0833213 -0.0862187 0)
(0.0943406 -0.0818115 0)
(0.105112 -0.0764487 0)
(0.115476 -0.0700424 0)
(0.125248 -0.0625171 0)
(0.134226 -0.0538483 0)
(0.142188 -0.0440376 0)
(0.148907 -0.0331126 0)
(0.154139 -0.0211424 0)
(0.157633 -0.00824648 0)
(0.15919 0.00538637 0)
(0.158544 0.0195722 0)
(0.155459 0.0339577 0)
(0.149845 0.0481131 0)
(0.141642 0.0615814 0)
(0.130922 0.0738581 0)
(0.117885 0.0844408 0)
(0.102857 0.0928339 0)
(0.0863149 0.0986309 0)
(0.0688045 0.101558 0)
(0.0509564 0.101451 0)
(0.0334298 0.0982805 0)
(0.016891 0.0921481 0)
(0.00187017 0.0832626 0)
(-0.0107323 0.072057 0)
(-0.0203733 0.0591609 0)
(-0.02666 0.0455019 0)
(-0.029603 0.0318939 0)
(-0.0294736 0.0191747 0)
(-0.026459 0.00806644 0)
(-0.0211023 -0.00082397 0)
(-0.0141213 -0.00715045 0)
(-0.00604623 -0.01064 0)
(0.00270622 -0.0109151 0)
(0.0109 -0.00795831 0)
(0.018003 -0.00213402 0)
(0.0234806 0.00625751 0)
(0.0268307 0.0168524 0)
(0.0276392 0.029251 0)
(0.0254394 0.0427352 0)
(0.0197545 0.0563904 0)
(0.010608 0.0694522 0)
(-0.0016333 0.0809214 0)
(-0.0164027 0.0900759 0)
(-0.032781 0.0964203 0)
(-0.0501708 0.0997612 0)
(-0.0678662 0.10001 0)
(-0.0852159 0.0972175 0)
(-0.101621 0.0915647 0)
(-0.116536 0.0833193 0)
(-0.129483 0.0728877 0)
(-0.140134 0.0607495 0)
(-0.148285 0.0474 0)
(-0.153845 0.0333481 0)
(-0.15687 0.0190759 0)
(-0.157457 0.00501618 0)
(-0.155864 -0.00848519 0)
(-0.152353 -0.021242 0)
(-0.147109 -0.0330666 0)
(-0.1404 -0.0438424 0)
(-0.132467 -0.0535046 0)
(-0.123537 -0.0620222 0)
(-0.113833 -0.0693935 0)
(-0.103559 -0.0756541 0)
(-0.092892 -0.0808729 0)
(-0.0820103 -0.0851472 0)
(-0.0710321 -0.0885921 0)
(-0.0600248 -0.0913265 0)
(-0.0490513 -0.0934844 0)
(-0.0381123 -0.095197 0)
(-0.027197 -0.096844 0)
(-0.0163068 -0.0989465 0)
(-0.00511525 -0.0877773 0)
(0.00551873 -0.0999392 0)
(0.0172889 -0.111942 0)
(0.0287272 -0.109628 0)
(0.0402191 -0.107939 0)
(0.0518221 -0.10625 0)
(0.0635537 -0.104117 0)
(0.0754373 -0.10135 0)
(0.087442 -0.0977814 0)
(0.0994433 -0.0932453 0)
(0.111309 -0.087589 0)
(0.122857 -0.0807019 0)
(0.133877 -0.0724998 0)
(0.144128 -0.062928 0)
(0.153356 -0.0519669 0)
(0.161297 -0.0396347 0)
(0.167665 -0.0259894 0)
(0.172154 -0.0111327 0)
(0.174476 0.00475675 0)
(0.174323 0.0213966 0)
(0.171342 0.0384613 0)
(0.165328 0.0554917 0)
(0.156195 0.0718564 0)
(0.143949 0.086884 0)
(0.128815 0.0998802 0)
(0.111198 0.110203 0)
(0.0916802 0.117344 0)
(0.0709687 0.120945 0)
(0.0498053 0.12081 0)
(0.0289734 0.11686 0)
(0.00927983 0.109174 0)
(-0.00842022 0.0979082 0)
(-0.0232143 0.0838132 0)
(-0.0342409 0.0674669 0)
(-0.0408683 0.0501462 0)
(-0.0432941 0.0327896 0)
(-0.0417434 0.016778 0)
(-0.0366295 0.00291752 0)
(-0.0288625 -0.00812517 0)
(-0.0190898 -0.0161688 0)
(-0.00785598 -0.0205805 0)
(0.00403954 -0.020883 0)
(0.0153979 -0.0169513 0)
(0.0253141 -0.00963173 0)
(0.0331954 0.000735547 0)
(0.0386863 0.0139335 0)
(0.0410845 0.0295202 0)
(0.0396008 0.046657 0)
(0.0337349 0.0641152 0)
(0.0233354 0.0807484 0)
(0.00896855 0.0952492 0)
(-0.00851781 0.106902 0)
(-0.0281022 0.114835 0)
(-0.0488301 0.118963 0)
(-0.0698831 0.119253 0)
(-0.0904576 0.115805 0)
(-0.109826 0.108818 0)
(-0.127321 0.0986656 0)
(-0.142369 0.085839 0)
(-0.154559 0.07095 0)
(-0.16366 0.0547001 0)
(-0.16962 0.0377925 0)
(-0.172515 0.0208443 0)
(-0.172597 0.0043289 0)
(-0.170232 -0.0114237 0)
(-0.165716 -0.0261211 0)
(-0.159331 -0.0396003 0)
(-0.151399 -0.0517636 0)
(-0.142198 -0.0625568 0)
(-0.131992 -0.0719557 0)
(-0.121042 -0.0799892 0)
(-0.109587 -0.0867007 0)
(-0.0978394 -0.0921802 0)
(-0.0859904 -0.0965676 0)
(-0.0741846 -0.0999908 0)
(-0.0625019 -0.102651 0)
(-0.0509787 -0.104716 0)
(-0.0395972 -0.106356 0)
(-0.0283079 -0.108015 0)
(-0.0170587 -0.110325 0)
(-0.00546377 -0.0986566 0)
(0.00589325 -0.111548 0)
(0.0180536 -0.123892 0)
(0.0298266 -0.121339 0)
(0.0416712 -0.119722 0)
(0.0536952 -0.118207 0)
(0.0659939 -0.116296 0)
(0.0786332 -0.113758 0)
(0.0915849 -0.110328 0)
(0.104721 -0.105798 0)
(0.117876 -0.099969 0)
(0.130819 -0.0926888 0)
(0.143312 -0.0838702 0)
(0.155089 -0.0734195 0)
(0.165856 -0.0612975 0)
(0.175303 -0.0475046 0)
(0.183108 -0.0320822 0)
(0.188899 -0.0151073 0)
(0.192303 0.00326463 0)
(0.192904 0.0227835 0)
(0.190286 0.0430474 0)
(0.184057 0.063534 0)
(0.173942 0.0834503 0)
(0.159945 0.101894 0)
(0.142288 0.117929 0)
(0.121497 0.130716 0)
(0.0983389 0.139564 0)
(0.0736809 0.143997 0)
(0.0484291 0.143813 0)
(0.0234977 0.138963 0)
(-0.000198679 0.129455 0)
(-0.021436 0.115379 0)
(-0.0389115 0.0975408 0)
(-0.051591 0.0767705 0)
(-0.0587618 0.054695 0)
(-0.0603658 0.0326541 0)
(-0.0568069 0.0126348 0)
(-0.0490598 -0.00444127 0)
(-0.0382842 -0.0181763 0)
(-0.0251877 -0.0282348 0)
(-0.0100729 -0.0340904 0)
(0.00596712 -0.0343822 0)
(0.0210273 -0.0290138 0)
(0.0340762 -0.0197116 0)
(0.0449827 -0.00703308 0)
(0.0532045 0.00917014 0)
(0.057783 0.0285567 0)
(0.057461 0.0502671 0)
(0.0513756 0.0726473 0)
(0.0394367 0.0938537 0)
(0.0224148 0.112421 0)
(0.00127612 0.127068 0)
(-0.0224605 0.13686 0)
(-0.0473393 0.141854 0)
(-0.0724678 0.142149 0)
(-0.0969724 0.137873 0)
(-0.119977 0.129246 0)
(-0.14064 0.116684 0)
(-0.158231 0.100845 0)
(-0.172203 0.0825459 0)
(-0.182271 0.0627246 0)
(-0.188438 0.0423345 0)
(-0.190986 0.0221797 0)
(-0.1903 0.00276336 0)
(-0.186823 -0.0154609 0)
(-0.180984 -0.0322493 0)
(-0.173159 -0.0474811 0)
(-0.16372 -0.0610839 0)
(-0.15298 -0.0730152 0)
(-0.141249 -0.0832758 0)
(-0.128821 -0.0919132 0)
(-0.11596 -0.0989871 0)
(-0.102936 -0.104606 0)
(-0.0899698 -0.108946 0)
(-0.0772363 -0.112204 0)
(-0.064844 -0.114615 0)
(-0.0527878 -0.116441 0)
(-0.0410119 -0.117926 0)
(-0.0293994 -0.119536 0)
(-0.0178218 -0.122083 0)
(-0.00583977 -0.110139 0)
(0.00630112 -0.123776 0)
(0.0188577 -0.136179 0)
(0.0308841 -0.133333 0)
(0.0429374 -0.13185 0)
(0.0553028 -0.130667 0)
(0.0681279 -0.129189 0)
(0.0815627 -0.127108 0)
(0.0955908 -0.12403 0)
(0.110025 -0.11968 0)
(0.124673 -0.11384 0)
(0.139238 -0.106298 0)
(0.153452 -0.0969372 0)
(0.167033 -0.0856448 0)
(0.179642 -0.0723707 0)
(0.190938 -0.057085 0)
(0.20056 -0.0397867 0)
(0.208089 -0.0205314 0)
(0.213073 0.000583085 0)
(0.214954 0.0233558 0)
(0.213099 0.0474628 0)
(0.206904 0.0721812 0)
(0.1959 0.0965408 0)
(0.179961 0.119342 0)
(0.159371 0.13928 0)
(0.134799 0.155193 0)
(0.107204 0.166132 0)
(0.0777683 0.171559 0)
(0.0476263 0.171308 0)
(0.0177083 0.165337 0)
(-0.0110705 0.153515 0)
(-0.0370289 0.136037 0)
(-0.0584243 0.113451 0)
(-0.0734879 0.0869385 0)
(-0.081122 0.0584813 0)
(-0.0812477 0.0304087 0)
(-0.0747099 0.00530612 0)
(-0.0636418 -0.0156234 0)
(-0.0493434 -0.0321791 0)
(-0.0322243 -0.0446248 0)
(-0.0125638 -0.0520086 0)
(0.00783607 -0.0522489 0)
(0.0274554 -0.0452547 0)
(0.0443505 -0.0336765 0)
(0.0586582 -0.0184395 0)
(0.0703602 0.00109152 0)
(0.0781218 0.0251463 0)
(0.0798014 0.0527778 0)
(0.0736833 0.0816183 0)
(0.0596041 0.109181 0)
(0.0386647 0.132916 0)
(0.0123626 0.151067 0)
(-0.0167755 0.16323 0)
(-0.0467201 0.169275 0)
(-0.0766562 0.169562 0)
(-0.105769 0.164296 0)
(-0.133098 0.153645 0)
(-0.157536 0.138023 0)
(-0.178094 0.118327 0)
(-0.194066 0.0956914 0)
(-0.205075 0.0713861 0)
(-0.211192 0.046669 0)
(-0.212947 0.0226015 0)
(-0.21095 -2.40711e-05 0)
(-0.205835 -0.02095 0)
(-0.198232 -0.0399815 0)
(-0.18859 -0.0570525 0)
(-0.177307 -0.0721221 0)
(-0.164728 -0.0851868 0)
(-0.151202 -0.0962805 0)
(-0.137041 -0.105442 0)
(-0.12254 -0.112752 0)
(-0.108025 -0.118361 0)
(-0.09378 -0.12244 0)
(-0.0800121 -0.125286 0)
(-0.0668648 -0.127219 0)
(-0.0543435 -0.128606 0)
(-0.0422835 -0.129805 0)
(-0.0304658 -0.131334 0)
(-0.0186291 -0.134184 0)
(-0.00625585 -0.122256 0)
(0.00677209 -0.136668 0)
(0.0197417 -0.148724 0)
(0.0318834 -0.145458 0)
(0.043908 -0.144155 0)
(0.0564194 -0.143522 0)
(0.0696855 -0.142766 0)
(0.0839533 -0.141441 0)
(0.0991968 -0.139001 0)
(0.115114 -0.135049 0)
(0.131483 -0.129336 0)
(0.147987 -0.121613 0)
(0.164316 -0.111741 0)
(0.180156 -0.099643 0)
(0.195142 -0.0852306 0)
(0.208917 -0.0684396 0)
(0.221071 -0.0492111 0)
(0.231114 -0.0275505 0)
(0.238512 -0.0034887 0)
(0.242601 0.0229143 0)
(0.242456 0.0515198 0)
(0.237036 0.0814881 0)
(0.225584 0.111487 0)
(0.20778 0.139895 0)
(0.183884 0.1649 0)
(0.154735 0.18484 0)
(0.121717 0.198469 0)
(0.0864851 0.205197 0)
(0.0503678 0.205148 0)
(0.0141638 0.198628 0)
(-0.0211256 0.185184 0)
(-0.0536669 0.164094 0)
(-0.0810088 0.135138 0)
(-0.10019 0.100529 0)
(-0.108824 0.063647 0)
(-0.106302 0.0281514 0)
(-0.0951131 -0.00277303 0)
(-0.079263 -0.0283446 0)
(-0.0607121 -0.0488843 0)
(-0.0393226 -0.0650981 0)
(-0.0151957 -0.0747507 0)
(0.00924341 -0.0750191 0)
(0.0334688 -0.0657616 0)
(0.054598 -0.0505842 0)
(0.0729188 -0.0316994 0)
(0.089232 -0.00828221 0)
(0.102081 0.0208965 0)
(0.107227 0.0559875 0)
(0.101217 0.0937001 0)
(0.0833186 0.130339 0)
(0.0557207 0.161169 0)
(0.0222364 0.18323 0)
(-0.0136996 0.196772 0)
(-0.0500171 0.202897 0)