/*--------------------------------*- C++ -*----------------------------------*\
| =========                 |                                                 |
| \\      /  F ield         | OpenFOAM: The Open Source CFD Toolbox           |
|  \\    /   O peration     | Version:  2412                                  |
|   \\  /    A nd           | Website:  www.openfoam.com                      |
|    \\/     M anipulation  |                                                 |
\*---------------------------------------------------------------------------*/
FoamFile
{
    version     2.0;
    format      ascii;
    arch        "LSB;label=32;scalar=64";
    class       volVectorField;
    location    "9.65";
    object      U;
}
// * * * * * * * * * * * * * * * * * * * * * * * * * * * * * * * * * * * * * //

dimensions      [0 1 -1 0 0 0 0];

internalField   nonuniform List<vector> 
6400
(
(-2.52891e-07 2.52012e-07 0)
(-6.20914e-06 1.93833e-06 0)
(-1.76923e-05 2.98761e-06 0)
(-3.21699e-05 3.37397e-06 0)
(-4.72798e-05 3.35799e-06 0)
(-6.17257e-05 3.15195e-06 0)
(-7.4916e-05 2.86112e-06 0)
(-8.66911e-05 2.57286e-06 0)
(-9.71448e-05 2.31148e-06 0)
(-0.000106475 2.08506e-06 0)
(-0.000114923 1.912e-06 0)
(-0.000122714 1.77233e-06 0)
(-0.000130006 1.64773e-06 0)
(-0.000136909 1.54235e-06 0)
(-0.000143478 1.43531e-06 0)
(-0.000149675 1.30394e-06 0)
(-0.000155406 1.15208e-06 0)
(-0.000160576 9.89078e-07 0)
(-0.000165103 8.1416e-07 0)
(-0.000168907 6.2476e-07 0)
(-0.000171902 4.17624e-07 0)
(-0.000173999 1.95172e-07 0)
(-0.000175113 -3.88001e-08 0)
(-0.000175173 -2.78784e-07 0)
(-0.000174127 -5.19062e-07 0)
(-0.000171942 -7.59378e-07 0)
(-0.000168588 -1.00333e-06 0)
(-0.000164031 -1.25408e-06 0)
(-0.000158241 -1.50928e-06 0)
(-0.000151193 -1.76589e-06 0)
(-0.000142877 -2.0192e-06 0)
(-0.000133296 -2.26754e-06 0)
(-0.000122465 -2.50943e-06 0)
(-0.000110418 -2.74187e-06 0)
(-9.72095e-05 -2.96025e-06 0)
(-8.29306e-05 -3.15503e-06 0)
(-6.77054e-05 -3.32124e-06 0)
(-5.16866e-05 -3.45675e-06 0)
(-3.50558e-05 -3.55536e-06 0)
(-1.80285e-05 -3.607e-06 0)
(-8.41154e-07 -3.61313e-06 0)
(1.62686e-05 -3.57722e-06 0)
(3.30646e-05 -3.49211e-06 0)
(4.93301e-05 -3.37234e-06 0)
(6.48771e-05 -3.21925e-06 0)
(7.95322e-05 -3.02774e-06 0)
(9.315e-05 -2.81246e-06 0)
(0.000105628 -2.57983e-06 0)
(0.000116909 -2.34042e-06 0)
(0.000126969 -2.09996e-06 0)
(0.000135802 -1.85228e-06 0)
(0.000143409 -1.60167e-06 0)
(0.000149805 -1.35509e-06 0)
(0.000155013 -1.10688e-06 0)
(0.000159059 -8.61648e-07 0)
(0.000161976 -6.21047e-07 0)
(0.000163799 -3.84116e-07 0)
(0.000164567 -1.5186e-07 0)
(0.000164323 7.66078e-08 0)
(0.000163123 2.93945e-07 0)
(0.000161037 4.98966e-07 0)
(0.000158138 6.91809e-07 0)
(0.000154504 8.70903e-07 0)
(0.000150218 1.03383e-06 0)
(0.00014536 1.18034e-06 0)
(0.00014 1.31436e-06 0)
(0.000134175 1.44586e-06 0)
(0.000127887 1.57627e-06 0)
(0.000121101 1.71492e-06 0)
(0.000113724 1.87425e-06 0)
(0.000105601 2.06623e-06 0)
(9.6522e-05 2.30087e-06 0)
(8.62549e-05 2.57467e-06 0)
(7.4608e-05 2.87027e-06 0)
(6.15139e-05 3.14878e-06 0)
(4.7146e-05 3.34498e-06 0)
(3.20958e-05 3.34704e-06 0)
(1.76832e-05 2.95791e-06 0)
(6.3045e-06 1.87468e-06 0)
(3.26202e-07 2.98083e-07 0)
(-1.95938e-06 6.19248e-06 0)
(-1.82932e-05 1.81916e-05 0)
(-4.46563e-05 2.56994e-05 0)
(-7.64759e-05 2.86762e-05 0)
(-0.000109255 2.85081e-05 0)
(-0.000140446 2.66303e-05 0)
(-0.000168824 2.40241e-05 0)
(-0.000194038 2.13707e-05 0)
(-0.000216284 1.89976e-05 0)
(-0.000236042 1.70452e-05 0)
(-0.000253887 1.55659e-05 0)
(-0.000270334 1.44533e-05 0)
(-0.000285777 1.35947e-05 0)
(-0.00030051 1.29219e-05 0)
(-0.000314695 1.22825e-05 0)
(-0.000328302 1.15107e-05 0)
(-0.000341149 1.05543e-05 0)
(-0.000352995 9.42347e-06 0)
(-0.000363602 8.12403e-06 0)
(-0.00037275 6.6564e-06 0)
(-0.000380227 5.01299e-06 0)
(-0.000385818 3.20026e-06 0)
(-0.000389311 1.23631e-06 0)
(-0.000390516 -8.47865e-07 0)
(-0.000389274 -3.01664e-06 0)
(-0.000385464 -5.25164e-06 0)
(-0.000378988 -7.55335e-06 0)
(-0.000369756 -9.92515e-06 0)
(-0.000357685 -1.23565e-05 0)
(-0.000342701 -1.48289e-05 0)
(-0.00032475 -1.73142e-05 0)
(-0.000303807 -1.97858e-05 0)
(-0.000279889 -2.22109e-05 0)
(-0.000253065 -2.4547e-05 0)
(-0.000223467 -2.67396e-05 0)
(-0.000191304 -2.87185e-05 0)
(-0.000156862 -3.04231e-05 0)
(-0.000120511 -3.18007e-05 0)
(-8.26904e-05 -3.27926e-05 0)
(-4.39144e-05 -3.33366e-05 0)
(-4.74809e-06 -3.34134e-05 0)
(3.42264e-05 -3.30323e-05 0)
(7.24419e-05 -3.21953e-05 0)
(0.000109376 -3.09694e-05 0)
(0.000144571 -2.93947e-05 0)
(0.000177627 -2.74991e-05 0)
(0.000208216 -2.53646e-05 0)
(0.000236095 -2.30654e-05 0)
(0.000261121 -2.06868e-05 0)
(0.000283242 -1.82877e-05 0)
(0.000302463 -1.58813e-05 0)
(0.000318821 -1.34933e-05 0)
(0.000332375 -1.11527e-05 0)
(0.000343207 -8.86208e-06 0)
(0.000351407 -6.63182e-06 0)
(0.00035707 -4.47159e-06 0)
(0.000360302 -2.39037e-06 0)
(0.000361224 -3.96953e-07 0)
(0.000359971 1.49968e-06 0)
(0.0003567 3.265e-06 0)
(0.00035159 4.88689e-06 0)
(0.000344832 6.35851e-06 0)
(0.000336621 7.67433e-06 0)
(0.000327155 8.82904e-06 0)
(0.000316622 9.83672e-06 0)
(0.000305174 1.07384e-05 0)
(0.000292891 1.16131e-05 0)
(0.00027976 1.25239e-05 0)
(0.000265665 1.35657e-05 0)
(0.000250362 1.48532e-05 0)
(0.000233468 1.65e-05 0)
(0.000214476 1.8582e-05 0)
(0.000192843 2.10736e-05 0)
(0.000168108 2.38189e-05 0)
(0.000140087 2.64618e-05 0)
(0.00010913 2.83771e-05 0)
(7.64702e-05 2.85631e-05 0)
(4.47056e-05 2.56035e-05 0)
(1.83681e-05 1.80671e-05 0)
(1.9867e-06 6.32344e-06 0)
(-3.12079e-06 1.77509e-05 0)
(-2.62794e-05 4.45512e-05 0)
(-6.11799e-05 6.02618e-05 0)
(-0.000102094 6.62586e-05 0)
(-0.000143575 6.55236e-05 0)
(-0.000182621 6.09803e-05 0)
(-0.000217808 5.48151e-05 0)
(-0.000248789 4.85414e-05 0)
(-0.000275891 4.29592e-05 0)
(-0.000299804 3.84397e-05 0)
(-0.000321341 3.50609e-05 0)
(-0.000341226 3.25937e-05 0)
(-0.000360017 3.08053e-05 0)
(-0.000378135 2.94994e-05 0)
(-0.000395834 2.83326e-05 0)
(-0.000413128 2.69164e-05 0)
(-0.00042981 2.50681e-05 0)
(-0.000445549 2.27532e-05 0)
(-0.000459984 1.99849e-05 0)
(-0.000472778 1.67795e-05 0)
(-0.000483607 1.31309e-05 0)
(-0.000492153 9.04645e-06 0)
(-0.000498106 4.55663e-06 0)
(-0.000501179 -2.78013e-07 0)
(-0.000501124 -5.37992e-06 0)
(-0.000497743 -1.06932e-05 0)
(-0.000490871 -1.61974e-05 0)
(-0.000480367 -2.18846e-05 0)
(-0.000466096 -2.77385e-05 0)
(-0.00044793 -3.37245e-05 0)
(-0.000425759 -3.97862e-05 0)
(-0.000399515 -4.58515e-05 0)
(-0.000369187 -5.18268e-05 0)
(-0.000334846 -5.75979e-05 0)
(-0.000296653 -6.3024e-05 0)
(-0.000254878 -6.79418e-05 0)
(-0.000209906 -7.21925e-05 0)
(-0.000162243 -7.56239e-05 0)
(-0.000112513 -7.80901e-05 0)
(-6.1437e-05 -7.94536e-05 0)
(-9.80507e-06 -7.96514e-05 0)
(4.156e-05 -7.86907e-05 0)
(9.1853e-05 -7.66093e-05 0)
(0.000140335 -7.35449e-05 0)
(0.000186357 -6.96116e-05 0)
(0.000229372 -6.49234e-05 0)
(0.000268947 -5.96576e-05 0)
(0.000304771 -5.39974e-05 0)
(0.000336663 -4.81439e-05 0)
(0.000364567 -4.22508e-05 0)
(0.000388522 -3.63912e-05 0)
(0.000408618 -3.06225e-05 0)
(0.000424973 -2.49942e-05 0)
(0.000437726 -1.95363e-05 0)
(0.000447034 -1.42632e-05 0)
(0.000453062 -9.19394e-06 0)
(0.000455985 -4.35537e-06 0)
(0.000455999 2.2655e-07 0)
(0.000453323 4.52197e-06 0)
(0.000448201 8.47063e-06 0)
(0.000440897 1.20462e-05 0)
(0.000431689 1.52331e-05 0)
(0.000420858 1.80254e-05 0)
(0.000408684 2.04242e-05 0)
(0.000395422 2.24764e-05 0)
(0.000381272 2.42869e-05 0)
(0.000366334 2.60416e-05 0)
(0.00035058 2.79206e-05 0)
(0.000333828 3.01575e-05 0)
(0.000315719 3.30268e-05 0)
(0.000295701 3.68001e-05 0)
(0.000273055 4.16511e-05 0)
(0.000246996 4.75262e-05 0)
(0.000216838 5.40652e-05 0)
(0.000182238 6.0438e-05 0)
(0.000143539 6.5191e-05 0)
(0.000102191 6.60891e-05 0)
(6.12752e-05 6.0195e-05 0)
(2.62794e-05 4.4527e-05 0)
(3.08978e-06 1.79044e-05 0)
(-3.60645e-06 3.26541e-05 0)
(-2.99485e-05 7.69008e-05 0)
(-6.85522e-05 0.000101392 0)
(-0.000112853 0.000110098 0)
(-0.000156947 0.000108069 0)
(-0.000197777 9.99599e-05 0)
(-0.000234008 8.93381e-05 0)
(-0.000265436 7.86621e-05 0)
(-0.000292565 6.92694e-05 0)
(-0.000316286 6.18066e-05 0)
(-0.000337613 5.63598e-05 0)
(-0.000357424 5.25301e-05 0)
(-0.000376371 4.99197e-05 0)
(-0.000394929 4.81779e-05 0)
(-0.000413407 4.67501e-05 0)
(-0.000431885 4.49907e-05 0)
(-0.000450189 4.25243e-05 0)
(-0.000467943 3.92041e-05 0)
(-0.000484684 3.50293e-05 0)
(-0.000499956 3.00354e-05 0)
(-0.000513336 2.42238e-05 0)
(-0.000524416 1.76107e-05 0)
(-0.000532814 1.02456e-05 0)
(-0.000538177 2.22582e-06 0)
(-0.000540195 -6.32146e-06 0)
(-0.000538606 -1.52933e-05 0)
(-0.000533187 -2.46389e-05 0)
(-0.000523742 -3.43323e-05 0)
(-0.000510089 -4.43507e-05 0)
(-0.000492053 -5.46467e-05 0)
(-0.000469469 -6.5137e-05 0)
(-0.000442208 -7.5694e-05 0)
(-0.000410204 -8.61481e-05 0)
(-0.000373488 -9.62874e-05 0)
(-0.000332206 -0.000105858 0)
(-0.000286638 -0.000114568 0)
(-0.000237224 -0.000122116 0)
(-0.000184568 -0.000128212 0)
(-0.000129415 -0.000132592 0)
(-7.26289e-05 -0.000135025 0)
(-1.51596e-05 -0.00013539 0)
(4.20007e-05 -0.000133681 0)
(9.78685e-05 -0.000129979 0)
(0.000151533 -0.000124514 0)
(0.000202204 -0.000117512 0)
(0.000249244 -0.000109225 0)
(0.000292177 -9.99618e-05 0)
(0.000330677 -9.00435e-05 0)
(0.00036457 -7.98122e-05 0)
(0.000393825 -6.9545e-05 0)
(0.000418527 -5.94032e-05 0)
(0.000438836 -4.94908e-05 0)
(0.000454944 -3.98789e-05 0)
(0.000467057 -3.06164e-05 0)
(0.000475389 -2.17336e-05 0)
(0.000480169 -1.32614e-05 0)
(0.000481638 -5.24022e-06 0)
(0.000480054 2.27956e-06 0)
(0.0004757 9.24134e-06 0)
(0.000468884 1.5566e-05 0)
(0.000459931 2.12093e-05 0)
(0.000449184 2.61471e-05 0)
(0.000436991 3.03755e-05 0)
(0.000423691 3.39156e-05 0)
(0.000409582 3.68608e-05 0)
(0.000394897 3.94005e-05 0)
(0.000379762 4.18467e-05 0)
(0.000364141 4.45413e-05 0)
(0.000347808 4.79031e-05 0)
(0.000330315 5.24151e-05 0)
(0.00031098 5.85527e-05 0)
(0.000288916 6.66231e-05 0)
(0.000263145 7.65594e-05 0)
(0.000232777 8.77756e-05 0)
(0.000197283 9.88886e-05 0)
(0.000156872 0.00010748 0)
(0.000112926 0.00010989 0)
(6.85908e-05 0.000101428 0)
(2.98333e-05 7.70627e-05 0)
(3.52839e-06 3.27256e-05 0)
(-3.73178e-06 4.86404e-05 0)
(-3.06594e-05 0.000110996 0)
(-6.95039e-05 0.000143898 0)
(-0.000113256 0.000154527 0)
(-0.000155903 0.000150367 0)
(-0.000194546 0.000137994 0)
(-0.000228098 0.000122408 0)
(-0.000256592 0.00010702 0)
(-0.000280737 9.36994e-05 0)
(-0.000301616 8.3374e-05 0)
(-0.000320414 7.60991e-05 0)
(-0.000338126 7.12438e-05 0)
(-0.000355453 6.81972e-05 0)
(-0.000372866 6.64293e-05 0)
(-0.000390663 6.51915e-05 0)
(-0.000408961 6.35978e-05 0)
(-0.000427624 6.10261e-05 0)
(-0.000446264 5.7152e-05 0)
(-0.000464353 5.19244e-05 0)
(-0.000481336 4.53936e-05 0)
(-0.000496697 3.75863e-05 0)
(-0.000509959 2.85435e-05 0)
(-0.000520688 1.83463e-05 0)
(-0.00052849 7.13153e-06 0)
(-0.000533014 -4.92638e-06 0)
(-0.000533952 -1.76773e-05 0)
(-0.000531034 -3.10369e-05 0)
(-0.000524022 -4.49564e-05 0)
(-0.000512695 -5.94002e-05 0)
(-0.00049684 -7.43155e-05 0)
(-0.000476237 -8.96066e-05 0)
(-0.000450681 -0.000105098 0)
(-0.000420024 -0.000120537 0)
(-0.000384224 -0.000135597 0)
(-0.000343374 -0.000149887 0)
(-0.000297738 -0.000162949 0)
(-0.000247779 -0.000174297 0)
(-0.000194157 -0.000183474 0)
(-0.000137703 -0.000190076 0)
(-7.93856e-05 -0.000193758 0)
(-2.0275e-05 -0.000194332 0)
(3.85044e-05 -0.000191767 0)
(9.58303e-05 -0.000186185 0)
(0.000150654 -0.00017792 0)
(0.000202072 -0.000167353 0)
(0.000249383 -0.000154924 0)
(0.000292092 -0.000141113 0)
(0.000329894 -0.000126404 0)
(0.000362662 -0.000111299 0)
(0.000390428 -9.62096e-05 0)
(0.00041335 -8.14034e-05 0)
(0.000431669 -6.70421e-05 0)
(0.000445659 -5.32195e-05 0)
(0.000455597 -3.99877e-05 0)
(0.000461755 -2.73892e-05 0)
(0.000464405 -1.54632e-05 0)
(0.000463828 -4.26201e-06 0)
(0.000460321 6.14198e-06 0)
(0.000454204 1.56647e-05 0)
(0.000445826 2.42066e-05 0)
(0.000435561 3.17023e-05 0)
(0.0004238 3.81192e-05 0)
(0.000410938 4.34594e-05 0)
(0.000397357 4.77707e-05 0)
(0.000383403 5.11997e-05 0)
(0.000369348 5.40323e-05 0)
(0.00035534 5.67225e-05 0)
(0.000341348 5.98045e-05 0)
(0.000327122 6.39157e-05 0)
(0.000312162 6.97856e-05 0)
(0.00029569 7.8136e-05 0)
(0.000276693 8.94371e-05 0)
(0.000254038 0.000103632 0)
(0.000226665 0.000119915 0)
(0.000193866 0.000136341 0)
(0.000155646 0.000149504 0)
(0.000113158 0.000154281 0)
(6.93805e-05 0.000144057 0)
(3.04361e-05 0.000111281 0)
(3.6351e-06 4.85021e-05 0)
(-3.6797e-06 6.4449e-05 0)
(-2.96537e-05 0.000144307 0)
(-6.65197e-05 0.00018473 0)
(-0.0001072 0.000196321 0)
(-0.000145874 0.000189232 0)
(-0.000179956 0.000172075 0)
(-0.000208697 0.000151302 0)
(-0.000232426 0.000131223 0)
(-0.000252069 0.000114184 0)
(-0.000268864 0.000101374 0)
(-0.000284123 9.27786e-05 0)
(-0.000298933 8.7469e-05 0)
(-0.000314015 8.45556e-05 0)
(-0.000329784 8.32937e-05 0)
(-0.000346468 8.27615e-05 0)
(-0.000364151 8.18715e-05 0)
(-0.000382693 7.97325e-05 0)
(-0.000401708 7.58206e-05 0)
(-0.000420649 6.99936e-05 0)
(-0.0004389 6.22936e-05 0)
(-0.000455867 5.27902e-05 0)
(-0.000471021 4.15696e-05 0)
(-0.000483887 2.87592e-05 0)
(-0.000494047 1.45377e-05 0)
(-0.000501125 -8.77315e-07 0)
(-0.000504791 -1.7291e-05 0)
(-0.000504755 -3.45834e-05 0)
(-0.000500755 -5.26814e-05 0)
(-0.000492548 -7.15348e-05 0)
(-0.000479889 -9.1098e-05 0)
(-0.000462503 -0.000111289 0)
(-0.000440098 -0.000131899 0)
(-0.00041243 -0.000152597 0)
(-0.000379355 -0.000172929 0)
(-0.000340889 -0.000192339 0)
(-0.000297252 -0.000210165 0)
(-0.000248898 -0.000225705 0)
(-0.000196513 -0.0002383 0)
(-0.00014099 -0.00024738 0)
(-8.33903e-05 -0.000252469 0)
(-2.48926e-05 -0.000253294 0)
(3.32612e-05 -0.000249797 0)
(8.98301e-05 -0.000242132 0)
(0.000143651 -0.000230753 0)
(0.000193727 -0.000216229 0)
(0.00023929 -0.000199227 0)
(0.000279832 -0.000180454 0)
(0.000315093 -0.000160588 0)
(0.000345024 -0.000140314 0)
(0.000369757 -0.000120196 0)
(0.000389563 -0.00010061 0)
(0.000404787 -8.17694e-05 0)
(0.000415782 -6.37805e-05 0)
(0.000422885 -4.66847e-05 0)
(0.000426403 -3.05173e-05 0)
(0.000426634 -1.53154e-05 0)
(0.000423871 -1.14006e-06 0)
(0.000418421 1.19187e-05 0)
(0.000410621 2.37456e-05 0)
(0.00040084 3.42142e-05 0)
(0.000389476 4.32335e-05 0)
(0.000376953 5.07576e-05 0)
(0.000363704 5.67955e-05 0)
(0.000350154 6.14199e-05 0)
(0.000336691 6.48312e-05 0)
(0.000323628 6.74234e-05 0)
(0.000311146 6.98034e-05 0)
(0.000299245 7.27131e-05 0)
(0.000287678 7.70408e-05 0)
(0.000275917 8.37896e-05 0)
(0.000263139 9.39631e-05 0)
(0.000248262 0.000108216 0)
(0.000230061 0.000126533 0)
(0.000207351 0.000147907 0)
(0.000179247 0.000169879 0)
(0.000145507 0.000188096 0)
(0.000106968 0.000196001 0)
(6.63139e-05 0.000184927 0)
(2.94988e-05 0.00014452 0)
(3.64291e-06 6.41177e-05 0)
(-3.55248e-06 7.94583e-05 0)
(-2.77731e-05 0.000175437 0)
(-6.13953e-05 0.000222128 0)
(-9.75606e-05 0.00023365 0)
(-0.0001309 0.000222949 0)
(-0.000159275 0.000200696 0)
(-0.000182328 0.000174783 0)
(-0.000200706 0.000150323 0)
(-0.000215529 0.000130042 0)
(-0.000228142 0.000115339 0)
(-0.000239911 0.000106098 0)
(-0.000251972 0.000101057 0)
(-0.00026504 9.89499e-05 0)
(-0.000279447 9.87852e-05 0)
(-0.000295313 9.94777e-05 0)
(-0.000312621 9.97648e-05 0)
(-0.000331176 9.85142e-05 0)
(-0.000350578 9.50104e-05 0)
(-0.000370264 8.89972e-05 0)
(-0.000389596 8.04884e-05 0)
(-0.000407943 6.95972e-05 0)
(-0.000424735 5.64712e-05 0)
(-0.000439471 4.12964e-05 0)
(-0.000451712 2.43023e-05 0)
(-0.00046108 5.75399e-06 0)
(-0.000467248 -1.41085e-05 0)
(-0.000469938 -3.51285e-05 0)
(-0.000468896 -5.72119e-05 0)
(-0.000463876 -8.03033e-05 0)
(-0.000454613 -0.000104381 0)
(-0.000440783 -0.000129409 0)
(-0.00042201 -0.000155173 0)
(-0.000397937 -0.00018127 0)
(-0.000368296 -0.000207118 0)
(-0.000332993 -0.000231965 0)
(-0.000292168 -0.000254916 0)
(-0.00024624 -0.000275014 0)
(-0.000195905 -0.000291358 0)
(-0.000142115 -0.000303174 0)
(-8.6026e-05 -0.000309828 0)
(-2.89306e-05 -0.000310952 0)
(2.78081e-05 -0.000306454 0)
(8.28363e-05 -0.000296534 0)
(0.000134889 -0.000281767 0)
(0.000182875 -0.000262935 0)
(0.00022596 -0.000240964 0)
(0.000263619 -0.000216851 0)
(0.000295644 -0.000191531 0)
(0.000322105 -0.000165898 0)
(0.000343274 -0.000140682 0)
(0.000359562 -0.000116365 0)
(0.000371434 -9.31945e-05 0)
(0.000379333 -7.12547e-05 0)
(0.000383633 -5.05476e-05 0)
(0.000384649 -3.10792e-05 0)
(0.000382662 -1.28741e-05 0)
(0.000377951 4.00124e-06 0)
(0.000370809 1.94418e-05 0)
(0.000361566 3.32945e-05 0)
(0.000350592 4.53991e-05 0)
(0.000338292 5.56338e-05 0)
(0.000325101 6.39284e-05 0)
(0.000311477 7.02914e-05 0)
(0.000297878 7.48134e-05 0)
(0.000284739 7.77445e-05 0)
(0.000272422 7.95902e-05 0)
(0.000261162 8.11107e-05 0)
(0.000251007 8.32706e-05 0)
(0.000241739 8.72352e-05 0)
(0.000232845 9.43013e-05 0)
(0.000223517 0.000105756 0)
(0.000212688 0.00012246 0)
(0.000199118 0.000144479 0)
(0.00018155 0.00017066 0)
(0.000158939 0.000198106 0)
(0.000130767 0.000221618 0)
(9.75e-05 0.000233254 0)
(6.14105e-05 0.00022225 0)
(2.793e-05 0.000175454 0)
(3.63731e-06 7.91879e-05 0)
(-3.40436e-06 9.33894e-05 0)
(-2.54901e-05 0.000203668 0)
(-5.52257e-05 0.000255159 0)
(-8.62029e-05 0.000265611 0)
(-0.000113718 0.000250807 0)
(-0.000136181 0.000223406 0)
(-0.000153662 0.000192697 0)
(-0.000167102 0.00016444 0)
(-0.000177759 0.000141622 0)
(-0.000187013 0.000125779 0)
(-0.000196199 0.000116649 0)
(-0.000206409 0.000112637 0)
(-0.00021832 0.000112027 0)
(-0.000232189 0.000113541 0)
(-0.000248006 0.000115922 0)
(-0.000265616 0.000117754 0)
(-0.000284722 0.00011771 0)
(-0.000304869 0.000114907 0)
(-0.000325471 0.000108977 0)
(-0.000345881 9.99084e-05 0)
(-0.000365461 8.7851e-05 0)
(-0.00038363 7.30161e-05 0)
(-0.000399872 5.56581e-05 0)
(-0.000413744 3.60708e-05 0)
(-0.000424876 1.45818e-05 0)
(-0.000432975 -8.51431e-06 0)
(-0.000437807 -3.30205e-05 0)
(-0.000439168 -5.88313e-05 0)
(-0.000436841 -8.59043e-05 0)
(-0.000430565 -0.000114266 0)
(-0.000419983 -0.000143962 0)
(-0.000404635 -0.000174814 0)
(-0.000384036 -0.000206371 0)
(-0.000357765 -0.000237927 0)
(-0.000325572 -0.000268521 0)
(-0.000287481 -0.000296976 0)
(-0.000243853 -0.00032203 0)
(-0.000195397 -0.000342486 0)
(-0.000143132 -0.000357322 0)
(-8.83175e-05 -0.000365716 0)
(-3.2377e-05 -0.000367192 0)
(2.31926e-05 -0.000361623 0)
(7.69134e-05 -0.000349271 0)
(0.000127409 -0.00033084 0)
(0.000173486 -0.000307338 0)
(0.000214244 -0.00028 0)
(0.000249146 -0.000250158 0)
(0.000278047 -0.000219096 0)
(0.000301163 -0.000187965 0)
(0.000318953 -0.00015767 0)
(0.000332004 -0.000128784 0)
(0.000340921 -0.000101552 0)
(0.000346223 -7.59869e-05 0)
(0.000348303 -5.20031e-05 0)
(0.00034744 -2.95431e-05 0)
(0.000343852 -8.608e-06 0)
(0.000337754 1.07246e-05 0)
(0.0003294 2.83222e-05 0)
(0.000319102 4.39908e-05 0)
(0.000307213 5.75304e-05 0)
(0.000294125 6.87804e-05 0)
(0.000280268 7.76372e-05 0)
(0.000266104 8.40949e-05 0)
(0.000252118 8.82436e-05 0)
(0.000238788 9.03744e-05 0)
(0.000226534 9.10909e-05 0)
(0.000215657 9.13091e-05 0)
(0.000206268 9.22274e-05 0)
(0.000198224 9.52863e-05 0)
(0.00019109 0.000102086 0)
(0.000184148 0.000114178 0)
(0.000176428 0.000132653 0)
(0.000166757 0.000157696 0)
(0.000153876 0.000188099 0)
(0.00013662 0.000220649 0)
(0.00011421 0.000249426 0)
(8.67049e-05 0.000265203 0)
(5.5778e-05 0.000255217 0)
(2.60287e-05 0.000203685 0)
(3.56762e-06 9.35271e-05 0)
(-3.24958e-06 0.000106131 0)
(-2.30001e-05 0.000228672 0)
(-4.85531e-05 0.000283447 0)
(-7.41575e-05 0.000291972 0)
(-9.59627e-05 0.000272863 0)
(-0.000113024 0.000240592 0)
(-0.000125828 0.00020576 0)
(-0.000135547 0.000174562 0)
(-0.000143492 0.000150121 0)
(-0.000150982 0.000133996 0)
(-0.000159194 0.000125737 0)
(-0.000169059 0.000123431 0)
(-0.000181166 0.000124927 0)
(-0.000195702 0.000128613 0)
(-0.000212546 0.000133031 0)
(-0.000231387 0.000136624 0)
(-0.000251789 0.000137914 0)
(-0.000273209 0.000135894 0)
(-0.000295022 0.000130107 0)
(-0.000316575 0.000120535 0)
(-0.000337243 0.000107365 0)
(-0.000356462 9.08724e-05 0)
(-0.00037373 7.13825e-05 0)
(-0.000388612 4.92617e-05 0)
(-0.000400756 2.49235e-05 0)
(-0.000409919 -1.26045e-06 0)
(-0.000415953 -2.90394e-05 0)
(-0.000418756 -5.8302e-05 0)
(-0.000418199 -8.90463e-05 0)
(-0.000414059 -0.000121388 0)
(-0.00040596 -0.0001555 0)
(-0.000393364 -0.000191296 0)
(-0.000375634 -0.000228326 0)
(-0.000352152 -0.000265775 0)
(-0.000322468 -0.000302456 0)
(-0.000286449 -0.000336854 0)
(-0.000244388 -0.000367326 0)
(-0.000197007 -0.000392316 0)
(-0.000145404 -0.000410498 0)
(-9.09649e-05 -0.000420835 0)
(-3.52564e-05 -0.000422722 0)
(2.00687e-05 -0.000416003 0)
(7.33823e-05 -0.00040101 0)
(0.000123175 -0.000378595 0)
(0.000168139 -0.00035001 0)
(0.000207298 -0.000316853 0)
(0.000240109 -0.000280864 0)
(0.000266516 -0.000243751 0)
(0.000286909 -0.000207003 0)
(0.000301986 -0.000171715 0)
(0.000312562 -0.000138517 0)
(0.000319395 -0.000107588 0)
(0.000323067 -7.8798e-05 0)
(0.000323948 -5.19082e-05 0)
(0.000322223 -2.6751e-05 0)
(0.000317979 -3.28768e-06 0)
(0.000311315 1.83709e-05 0)
(0.00030242 3.80249e-05 0)
(0.000291579 5.54339e-05 0)
(0.000279123 7.03594e-05 0)
(0.000265418 8.25956e-05 0)
(0.000250862 9.19998e-05 0)
(0.000235898 9.85325e-05 0)
(0.00022102 0.000102258 0)
(0.000206746 0.000103489 0)
(0.000193558 0.000102903 0)
(0.000181837 0.00010157 0)
(0.000171787 0.000100911 0)
(0.000163379 0.000102625 0)
(0.000156321 0.000108596 0)
(0.000150064 0.00012063 0)
(0.000143818 0.000140053 0)
(0.000136567 0.00016722 0)
(0.000127143 0.000200969 0)
(0.000114353 0.000237913 0)
(9.72175e-05 0.000271588 0)
(7.5352e-05 0.000291677 0)
(4.96367e-05 0.000283678 0)
(2.36909e-05 0.000229206 0)
(3.36177e-06 0.000106835 0)
(-3.07784e-06 0.000117612 0)
(-2.02945e-05 0.000250293 0)
(-4.14763e-05 0.00030691 0)
(-6.17559e-05 0.000312918 0)
(-7.83513e-05 0.000289722 0)
(-9.10614e-05 0.000253293 0)
(-0.000100731 0.000215381 0)
(-0.000108623 0.000182366 0)
(-0.000115979 0.0001574 0)
(-0.000123934 0.000141921 0)
(-0.000133377 0.000135237 0)
(-0.000144945 0.000135144 0)
(-0.000159038 0.000139159 0)
(-0.000175769 0.00014533 0)
(-0.00019493 0.000151953 0)
(-0.00021607 0.000157314 0)
(-0.000238593 0.000159826 0)
(-0.000261842 0.000158408 0)
(-0.000285144 0.000152569 0)
(-0.000307854 0.000142306 0)
(-0.000329384 0.00012786 0)
(-0.00034922 0.000109572 0)
(-0.000366899 8.78341e-05 0)
(-0.000382001 6.30791e-05 0)
(-0.000394189 3.58295e-05 0)
(-0.000403277 6.57722e-06 0)
(-0.000409248 -2.43322e-05 0)
(-0.000412177 -5.6774e-05 0)
(-0.000412108 -9.08238e-05 0)
(-0.000408912 -0.000126761 0)
(-0.000402214 -0.000164948 0)
(-0.000391387 -0.000205467 0)
(-0.000375613 -0.000247941 0)
(-0.000354027 -0.000291478 0)
(-0.000325927 -0.000334634 0)
(-0.000290994 -0.000375487 0)
(-0.000249425 -0.000411924 0)
(-0.000201957 -0.000441942 0)
(-0.000149792 -0.000463849 0)
(-9.4467e-05 -0.000476361 0)
(-3.77087e-05 -0.000478736 0)
(1.86619e-05 -0.000470774 0)
(7.28505e-05 -0.000452895 0)
(0.000123187 -0.000426114 0)
(0.00016823 -0.000391965 0)
(0.000206904 -0.000352457 0)
(0.000238649 -0.000309836 0)
(0.000263511 -0.00026633 0)
(0.000282112 -0.000223854 0)
(0.000295456 -0.000183729 0)
(0.000304646 -0.000146582 0)
(0.000310621 -0.000112425 0)
(0.000314009 -8.08828e-05 0)
(0.000315087 -5.14688e-05 0)
(0.000313861 -2.38472e-05 0)
(0.000310201 2.07135e-06 0)
(0.000304026 2.60984e-05 0)
(0.000295428 4.79001e-05 0)
(0.000284663 6.71656e-05 0)
(0.000272056 8.36179e-05 0)
(0.000257941 9.70225e-05 0)
(0.000242656 0.000107195 0)
(0.000226594 0.00011404 0)
(0.000210232 0.000117569 0)
(0.000194119 0.000118075 0)
(0.000178808 0.000116286 0)
(0.000164774 0.0001134 0)
(0.000152342 0.000111036 0)
(0.000141632 0.000111129 0)
(0.000132542 0.000115802 0)
(0.000124759 0.000127095 0)
(0.000117759 0.000146561 0)
(0.000110792 0.000174766 0)
(0.000102911 0.000210686 0)
(9.30382e-05 0.000250927 0)
(8.01069e-05 0.000288705 0)
(6.32986e-05 0.00031295 0)
(4.26423e-05 0.000307723 0)
(2.07909e-05 0.000251808 0)
(3.06878e-06 0.000118772 0)
(-2.86599e-06 0.00012771 0)
(-1.71686e-05 0.000268336 0)
(-3.36548e-05 0.000325513 0)
(-4.86941e-05 0.000328832 0)
(-6.08307e-05 0.000302341 0)
(-7.07086e-05 0.000263077 0)
(-7.93994e-05 0.000223557 0)
(-8.80175e-05 0.000190127 0)
(-9.75437e-05 0.000165867 0)
(-0.000108765 0.000151977 0)
(-0.000122144 0.000147464 0)
(-0.0001379 0.000149871 0)
(-0.000156144 0.000156527 0)
(-0.000176865 0.000165208 0)
(-0.0001998 0.000173948 0)
(-0.000224387 0.00018082 0)
(-0.000249863 0.00018415 0)
(-0.000275437 0.000182846 0)
(-0.000300394 0.000176461 0)
(-0.000324124 0.00016505 0)
(-0.000346129 0.000148936 0)
(-0.00036599 0.00012852 0)
(-0.000383306 0.000104232 0)
(-0.000397666 7.65533e-05 0)
(-0.000408716 4.61317e-05 0)
(-0.000416325 1.36586e-05 0)
(-0.000420653 -2.03441e-05 0)
(-0.000422054 -5.57083e-05 0)
(-0.000420848 -9.2625e-05 0)
(-0.000417101 -0.000131646 0)
(-0.000410481 -0.000173437 0)
(-0.000400249 -0.000218358 0)
(-0.000385351 -0.000266199 0)
(-0.000364618 -0.000316021 0)
(-0.000337038 -0.000366091 0)
(-0.000302041 -0.000413999 0)
(-0.000259714 -0.000457039 0)
(-0.000210836 -0.000492655 0)
(-0.000156757 -0.000518707 0)
(-9.91852e-05 -0.00053365 0)
(-4.00129e-05 -0.000536599 0)
(1.87892e-05 -0.000527314 0)
(7.5272e-05 -0.000506303 0)
(0.000127596 -0.000474743 0)
(0.000174143 -0.000434488 0)
(0.000213692 -0.000388013 0)
(0.00024562 -0.000338176 0)
(0.000270081 -0.000287878 0)
(0.000287998 -0.000239583 0)
(0.000300786 -0.000194863 0)
(0.000309926 -0.000154275 0)
(0.000316583 -0.000117519 0)
(0.000321396 -8.37981e-05 0)
(0.000324455 -5.22508e-05 0)
(0.000325454 -2.23009e-05 0)
(0.000323923 6.18526e-06 0)
(0.000319517 3.28621e-05 0)
(0.0003122 5.71631e-05 0)
(0.00030223 7.86359e-05 0)
(0.00028997 9.69727e-05 0)
(0.000275725 0.000111957 0)
(0.000259738 0.000123383 0)
(0.000242301 0.00013107 0)
(0.000223842 0.00013494 0)
(0.000204934 0.000135211 0)
(0.000186216 0.000132624 0)
(0.000168275 0.000128468 0)
(0.000151565 0.000124537 0)
(0.000136375 0.000122955 0)
(0.000122823 0.000126038 0)
(0.00011088 0.000136011 0)
(0.000100368 0.000154621 0)
(9.09274e-05 0.00018265 0)
(8.2e-05 0.000219281 0)
(7.2826e-05 0.000261273 0)
(6.24568e-05 0.000301809 0)
(4.98042e-05 0.000329491 0)
(3.42144e-05 0.000327213 0)
(1.72742e-05 0.000270768 0)
(2.80905e-06 0.000129166 0)
(-2.55136e-06 0.000136132 0)
(-1.31086e-05 0.000282299 0)
(-2.42017e-05 0.000339053 0)
(-3.40473e-05 0.000340193 0)
(-4.27897e-05 0.000312001 0)
(-5.19223e-05 0.000272051 0)
(-6.25126e-05 0.000232929 0)
(-7.51528e-05 0.000200763 0)
(-9.02821e-05 0.000178489 0)
(-0.000108135 0.000167028 0)
(-0.000128584 0.000165051 0)
(-0.000151295 0.000169932 0)
(-0.000176028 0.000178978 0)
(-0.00020265 0.000189826 0)
(-0.000230881 0.000200259 0)
(-0.000260077 0.000208068 0)
(-0.000289292 0.000211469 0)
(-0.000317569 0.000209439 0)
(-0.000344154 0.000201677 0)
(-0.000368537 0.000188383 0)
(-0.000390392 0.000169987 0)
(-0.000409476 0.000146936 0)
(-0.00042548 0.000119625 0)
(-0.000437965 8.85299e-05 0)
(-0.000446494 5.44431e-05 0)
(-0.000450954 1.83798e-05 0)
(-0.000451739 -1.88171e-05 0)
(-0.000449605 -5.68629e-05 0)
(-0.000445306 -9.61063e-05 0)
(-0.000439226 -0.000137508 0)
(-0.000431139 -0.000182228 0)
(-0.000420174 -0.000231076 0)
(-0.00040498 -0.000284111 0)
(-0.000384006 -0.000340395 0)
(-0.000355824 -0.00039788 0)
(-0.000319548 -0.00045354 0)
(-0.000275163 -0.000503902 0)
(-0.000223557 -0.00054571 0)
(-0.000166285 -0.000576324 0)
(-0.000105244 -0.000593943 0)
(-4.24631e-05 -0.000597565 0)
(1.9994e-05 -0.000586919 0)
(8.00827e-05 -0.000562581 0)
(0.000135821 -0.000525873 0)
(0.000185379 -0.00047895 0)
(0.000227288 -0.000424806 0)
(0.000260772 -0.000367053 0)
(0.000286065 -0.000309485 0)
(0.000304484 -0.000255306 0)
(0.000318022 -0.000206389 0)
(0.000328683 -0.000163103 0)
(0.000337893 -0.000124605 0)
(0.000346234 -8.94346e-05 0)
(0.000353474 -5.6162e-05 0)
(0.000358808 -2.38827e-05 0)
(0.000361246 7.54328e-06 0)
(0.000360071 3.74656e-05 0)
(0.000355139 6.4915e-05 0)
(0.000346802 8.91844e-05 0)
(0.000335535 0.000109973 0)
(0.000321609 0.000127181 0)
(0.000305102 0.00014063 0)
(0.000286117 0.000150025 0)
(0.000264988 0.000155121 0)
(0.000242327 0.000155985 0)
(0.000218903 0.000153315 0)
(0.000195432 0.000148485 0)
(0.000172491 0.000143429 0)
(0.00015052 0.000140419 0)
(0.000129853 0.000141895 0)
(0.000110764 0.000150183 0)
(9.34957e-05 0.000167153 0)
(7.82044e-05 0.000193758 0)
(6.49083e-05 0.000229396 0)
(5.34469e-05 0.000271092 0)
(4.33533e-05 0.000312287 0)
(3.37114e-05 0.000341694 0)
(2.34988e-05 0.000341431 0)
(1.27298e-05 0.000284936 0)
(2.52237e-06 0.000137782 0)
(-1.97349e-06 0.000142193 0)
(-7.10418e-06 0.000291069 0)
(-1.15617e-05 0.00034703 0)
(-1.63318e-05 0.000347688 0)
(-2.33862e-05 0.000320542 0)
(-3.47575e-05 0.000283064 0)
(-5.1029e-05 0.000246933 0)
(-7.17877e-05 0.000217935 0)
(-9.66175e-05 0.000198879 0)
(-0.000124986 0.000190414 0)
(-0.000155972 0.000190899 0)
(-0.000188528 0.000197704 0)
(-0.000222021 0.000208388 0)
(-0.000256305 0.000220639 0)
(-0.000291224 0.000231981 0)
(-0.000326091 0.000239795 0)
(-0.000359702 0.00024212 0)
(-0.000390854 0.000238098 0)
(-0.000418765 0.000227745 0)
(-0.00044311 0.000211541 0)
(-0.000463876 0.000190064 0)
(-0.000481122 0.000163752 0)
(-0.000494689 0.000132829 0)
(-0.000504046 9.76276e-05 0)
(-0.000508512 5.90996e-05 0)
(-0.000507895 1.87961e-05 0)
(-0.000502899 -2.18634e-05 0)
(-0.000494869 -6.23536e-05 0)
(-0.000485183 -0.000103237 0)
(-0.000474689 -0.000146067 0)
(-0.000463336 -0.000192764 0)
(-0.00045012 -0.000244826 0)
(-0.000433345 -0.000302722 0)
(-0.000410984 -0.000365581 0)
(-0.000381076 -0.000431021 0)
(-0.000342328 -0.000495205 0)
(-0.000294654 -0.000553624 0)
(-0.000239168 -0.000602155 0)
(-0.000177719 -0.000637652 0)
(-0.000112397 -0.000658111 0)
(-4.52818e-05 -0.000662482 0)
(2.15898e-05 -0.000650506 0)
(8.62095e-05 -0.000622788 0)
(0.000146539 -0.000580709 0)
(0.000200518 -0.000526632 0)
(0.0002463 -0.000464068 0)
(0.000282769 -0.000397564 0)
(0.000310161 -0.000332142 0)
(0.000330298 -0.000272067 0)
(0.000345997 -0.000219597 0)
(0.000359973 -0.000174704 0)
(0.000373941 -0.000135639 0)
(0.000388313 -9.99451e-05 0)