/*--------------------------------*- C++ -*----------------------------------*\
| =========                 |                                                 |
| \\      /  F ield         | OpenFOAM: The Open Source CFD Toolbox           |
|  \\    /   O peration     | Version:  2412                                  |
|   \\  /    A nd           | Website:  www.openfoam.com                      |
|    \\/     M anipulation  |                                                 |
\*---------------------------------------------------------------------------*/
FoamFile
{
    version     2.0;
    format      ascii;
    arch        "LSB;label=32;scalar=64";
    class       surfaceScalarField;
    location    "1.55";
    object      alphaPhi0.honey;
}
// * * * * * * * * * * * * * * * * * * * * * * * * * * * * * * * * * * * * * //

dimensions      [0 3 -1 0 0 0 0];

oriented        oriented;

internalField   nonuniform List<scalar> 
12640
(
-2.12794e-13
2.01643e-13
-1.71045e-12
-1.26469e-12
-2.18772e-12
-2.06392e-12
-2.41761e-12
-2.23513e-12
-2.6523e-12
-2.18676e-12
-2.94933e-12
-2.1045e-12
-3.30452e-12
-2.04149e-12
-3.69862e-12
-1.99694e-12
-4.11008e-12
-1.96816e-12
-4.53021e-12
-1.94393e-12
-4.94978e-12
-1.92524e-12
-5.36504e-12
-1.90848e-12
-5.76706e-12
-1.89873e-12
-6.15044e-12
-1.89342e-12
-6.50478e-12
-1.89714e-12
-6.82576e-12
-1.90437e-12
-7.10557e-12
-1.91833e-12
-7.3415e-12
-1.93436e-12
-7.52811e-12
-1.95516e-12
-7.66377e-12
-1.97722e-12
-7.74462e-12
-2.0029e-12
-7.77153e-12
-2.02766e-12
-7.74341e-12
-2.05367e-12
-7.66148e-12
-2.07865e-12
-7.52579e-12
-2.10406e-12
-7.33867e-12
-2.1276e-12
-7.10136e-12
-2.15063e-12
-6.81655e-12
-2.17169e-12
-6.48647e-12
-2.19152e-12
-6.11453e-12
-2.20893e-12
-5.70374e-12
-2.22461e-12
-5.25766e-12
-2.238e-12
-4.7795e-12
-2.24975e-12
-4.27261e-12
-2.2597e-12
-3.73992e-12
-2.26856e-12
-3.18425e-12
-2.27641e-12
-2.60832e-12
-2.28361e-12
-2.015e-12
-2.28999e-12
-1.40728e-12
-2.29562e-12
-7.88098e-13
-2.30053e-12
-1.60305e-13
-2.30492e-12
4.73503e-13
-2.30903e-12
1.11068e-12
-2.31284e-12
1.74863e-12
-2.31637e-12
2.3842e-12
-2.319e-12
3.01402e-12
-2.3205e-12
3.63383e-12
-2.31986e-12
4.23943e-12
-2.31709e-12
4.82579e-12
-2.31115e-12
5.38832e-12
-2.3025e-12
5.92119e-12
-2.2896e-12
6.41913e-12
-2.27304e-12
6.8751e-12
-2.25072e-12
7.28354e-12
-2.22421e-12
7.63724e-12
-2.19142e-12
7.93153e-12
-2.15509e-12
8.15939e-12
-2.11233e-12
8.31713e-12
-2.06679e-12
8.39852e-12
-2.0153e-12
8.40297e-12
-1.96386e-12
8.32744e-12
-1.90939e-12
8.17546e-12
-1.85876e-12
7.94602e-12
-1.80685e-12
7.64552e-12
-1.7613e-12
7.27639e-12
-1.71754e-12
6.85121e-12
-1.6859e-12
6.3774e-12
-1.66076e-12
5.87056e-12
-1.65031e-12
5.33795e-12
-1.64603e-12
4.79517e-12
-1.65606e-12
4.25041e-12
-1.67308e-12
3.72148e-12
-1.70596e-12
3.22148e-12
-1.75013e-12
2.77764e-12
-1.81829e-12
2.4172e-12
-1.91123e-12
2.1708e-12
-2.03196e-12
2.01508e-12
-2.13015e-12
1.7995e-12
-2.0781e-12
1.21781e-12
-1.71905e-12
-9.60755e-13
-1.28285e-12
-1.22232e-12
-3.55346e-12
-4.29315e-12
-4.66807e-12
-5.866e-12
-5.45612e-12
-6.23699e-12
-6.28379e-12
-6.10504e-12
-7.23867e-12
-5.86847e-12
-8.30537e-12
-5.67434e-12
-9.43312e-12
-5.54284e-12
-1.05889e-11
-5.45388e-12
-1.17433e-11
-5.3918e-12
-1.28817e-11
-5.34614e-12
-1.3982e-11
-5.32031e-12
-1.50313e-11
-5.31222e-12
-1.60083e-11
-5.32674e-12
-1.68987e-11
-5.36297e-12
-1.76814e-11
-5.42133e-12
-1.83484e-11
-5.49343e-12
-1.88849e-11
-5.58078e-12
-1.92879e-11
-5.67531e-12
-1.95488e-11
-5.77905e-12
-1.96684e-11
-5.88571e-12
-1.96438e-11
-5.99445e-12
-1.94811e-11
-6.09898e-12
-1.91821e-11
-6.20164e-12
-1.87543e-11
-6.2983e-12
-1.82026e-11
-6.3898e-12
-1.75364e-11
-6.47285e-12
-1.6763e-11
-6.54898e-12
-1.58922e-11
-6.61608e-12
-1.49321e-11
-6.67548e-12
-1.38925e-11
-6.7262e-12
-1.27811e-11
-6.76999e-12
-1.16065e-11
-6.80704e-12
-1.03754e-11
-6.83949e-12
-9.09403e-12
-6.86826e-12
-7.76762e-12
-6.89518e-12
-6.40115e-12
-6.92077e-12
-4.99898e-12
-6.94575e-12
-3.56536e-12
-6.97037e-12
-2.10415e-12
-6.99519e-12
-6.18803e-13
-7.02081e-12
8.8725e-13
-7.04753e-12
2.41075e-12
-7.07544e-12
3.94735e-12
-7.10337e-12
5.49217e-12
-7.1301e-12
7.03798e-12
-7.15279e-12
8.57698e-12
-7.16976e-12
1.00985e-11
-7.17783e-12
1.15921e-11
-7.176e-12
1.30437e-11
-7.1607e-12
1.44399e-11
-7.13097e-12
1.57625e-11
-7.08216e-12
1.69956e-11
-7.01437e-12
1.81186e-11
-6.92375e-12
1.91157e-11
-6.81315e-12
1.99654e-11
-6.6791e-12
2.06537e-11
-6.52589e-12
2.11597e-11
-6.35012e-12
2.14742e-11
-6.15997e-12
2.15822e-11
-5.95515e-12
2.14837e-11
-5.7475e-12
2.11708e-11
-5.53557e-12
2.06526e-11
-5.33068e-12
1.99295e-11
-5.13177e-12
1.90233e-11
-4.95485e-12
1.79468e-11
-4.80142e-12
1.67334e-11
-4.68522e-12
1.54024e-11
-4.60142e-12
1.3992e-11
-4.55869e-12
1.2526e-11
-4.55198e-12
1.10451e-11
-4.589e-12
9.57621e-12
-4.66578e-12
8.16578e-12
-4.79383e-12
6.85808e-12
-4.98445e-12
5.7198e-12
-5.25646e-12
4.79012e-12
-5.58893e-12
4.01524e-12
-5.8424e-12
3.09527e-12
-5.65574e-12
1.40729e-12
-4.40568e-12
-1.56775e-12
-1.80643e-12
-1.96521e-12
-4.33284e-12
-6.65189e-12
-5.75411e-12
-9.0009e-12
-6.91971e-12
-9.53216e-12
-8.17735e-12
-9.27299e-12
-9.6094e-12
-8.83957e-12
-1.11849e-11
-8.48334e-12
-1.284e-11
-8.24949e-12
-1.45235e-11
-8.10242e-12
-1.62045e-11
-8.00864e-12
-1.78511e-11
-7.95866e-12
-1.9442e-11
-7.94711e-12
-2.09447e-11
-7.98255e-12
-2.23402e-11
-8.05779e-12
-2.35998e-11
-8.18111e-12
-2.47067e-11
-8.34196e-12
-2.5637e-11
-8.53874e-12
-2.63818e-11
-8.75898e-12
-2.69269e-11
-8.99972e-12
-2.72725e-11
-9.24906e-12
-2.74127e-11
-9.50727e-12
-2.73527e-11
-9.76243e-12
-2.70936e-11
-1.00129e-11
-2.66469e-11
-1.02507e-11
-2.60192e-11
-1.0477e-11
-2.52246e-11
-1.06851e-11
-2.4273e-11
-1.08765e-11
-2.31797e-11
-1.10474e-11
-2.19561e-11
-1.11999e-11
-2.0617e-11
-1.1332e-11
-1.91738e-11
-1.14468e-11
-1.76393e-11
-1.15444e-11
-1.60232e-11
-1.16288e-11
-1.43353e-11
-1.17019e-11
-1.25827e-11
-1.17677e-11
-1.07726e-11
-1.18283e-11
-8.91014e-12
-1.18863e-11
-7.00017e-12
-1.19427e-11
-5.04653e-12
-1.19992e-11
-3.05255e-12
-1.20568e-11
-1.02117e-12
-1.21165e-11
1.04513e-12
-1.21791e-11
3.14286e-12
-1.22436e-11
5.26814e-12
-1.23085e-11
7.41416e-12
-1.23694e-11
9.5732e-12
-1.24225e-11
1.17333e-11
-1.24616e-11
1.38824e-11
-1.24831e-11
1.60027e-11
-1.24805e-11
1.80771e-11
-1.24502e-11
2.00815e-11
-1.23843e-11
2.19939e-11
-1.22798e-11
2.37848e-11
-1.21291e-11
2.54301e-11
-1.19335e-11
2.68978e-11
-1.16875e-11
2.81641e-11
-1.1396e-11
2.91963e-11
-1.10539e-11
2.99748e-11
-1.06705e-11
3.04719e-11
-1.02458e-11
3.0678e-11
-9.79735e-12
3.05753e-11
-9.32849e-12
3.01669e-11
-8.85821e-12
2.94471e-11
-8.38906e-12
2.84354e-11
-7.94426e-12
2.71431e-11
-7.53194e-12
2.56067e-11
-7.17772e-12
2.38519e-11
-6.88514e-12
2.1927e-11
-6.67063e-12
1.98686e-11
-6.53191e-12
1.77303e-11
-6.4797e-12
1.55535e-11
-6.50976e-12
1.3393e-11
-6.63028e-12
1.13003e-11
-6.84985e-12
9.34746e-12
-7.19968e-12
7.61245e-12
-7.70685e-12
6.14411e-12
-8.32106e-12
4.87762e-12
-8.79037e-12
3.50217e-12
-8.50572e-12
1.45594e-12
-6.43117e-12
-1.98406e-12
-1.92923e-12
-2.46214e-12
-4.59441e-12
-8.6617e-12
-6.21273e-12
-1.17651e-11
-7.63632e-12
-1.24002e-11
-9.2008e-12
-1.19642e-11
-1.09738e-11
-1.12964e-11
-1.29142e-11
-1.07534e-11
-1.49491e-11
-1.04008e-11
-1.70196e-11
-1.01895e-11
-1.90812e-11
-1.00701e-11
-2.11044e-11
-1.0021e-11
-2.30531e-11
-1.00421e-11
-2.48996e-11
-1.01358e-11
-2.66055e-11
-1.03049e-11
-2.81497e-11
-1.05415e-11
-2.95011e-11
-1.08447e-11
-3.06443e-11
-1.11984e-11
-3.15554e-11
-1.1598e-11
-3.22293e-11
-1.20229e-11
-3.26545e-11
-1.24675e-11
-3.28359e-11
-1.2916e-11
-3.27701e-11
-1.33651e-11
-3.2468e-11
-1.37993e-11
-3.19346e-11
-1.42167e-11
-3.11867e-11
-1.46066e-11
-3.02345e-11
-1.49697e-11
-2.90968e-11
-1.52987e-11
-2.77865e-11
-1.55961e-11
-2.63226e-11
-1.5858e-11
-2.47188e-11
-1.60884e-11
-2.29922e-11
-1.62868e-11
-2.11549e-11
-1.64587e-11
-1.92207e-11
-1.66066e-11
-1.71993e-11
-1.67368e-11
-1.51008e-11
-1.68531e-11
-1.29321e-11
-1.6961e-11
-1.07e-11
-1.70632e-11
-8.40932e-12
-1.71632e-11
-6.06431e-12
-1.72629e-11
-3.66813e-12
-1.73648e-11
-1.22329e-12
-1.74706e-11
1.26733e-12
-1.75805e-11
3.80072e-12
-1.76936e-11
6.37115e-12
-1.78053e-11
8.97198e-12
-1.79104e-11
1.15919e-11
-1.80002e-11
1.42191e-11
-1.80679e-11
1.68355e-11
-1.81034e-11
1.94232e-11
-1.81001e-11
2.19562e-11
-1.8046e-11
2.44098e-11
-1.79346e-11
2.67503e-11
-1.77531e-11
2.89488e-11
-1.7499e-11
3.09665e-11
-1.7163e-11
3.27736e-11
-1.67488e-11
3.43287e-11
-1.62489e-11
3.56039e-11
-1.56719e-11
3.65604e-11
-1.50157e-11
3.71796e-11
-1.43002e-11
3.74322e-11
-1.35322e-11
3.73134e-11
-1.27392e-11
3.68075e-11
-1.19289e-11
3.59279e-11
-1.11324e-11
3.46778e-11
-1.03631e-11
3.30915e-11
-9.65885e-12
3.11915e-11
-9.03428e-12
2.90297e-11
-8.52071e-12
2.66465e-11
-8.12436e-12
2.41053e-11
-7.86425e-12
2.14548e-11
-7.7376e-12
1.87586e-11
-7.7526e-12
1.60716e-11
-7.90972e-12
1.34655e-11
-8.22987e-12
1.1021e-11
-8.75514e-12
8.82893e-12
-9.52141e-12
6.94486e-12
-1.04509e-11
5.31934e-12
-1.11837e-11
3.67498e-12
-1.08789e-11
1.48444e-12
-8.12264e-12
-2.31806e-12
-1.9576e-12
-2.8567e-12
-4.70401e-12
-1.04574e-11
-6.49471e-12
-1.42358e-11
-8.13768e-12
-1.49294e-11
-9.96398e-12
-1.42726e-11
-1.20214e-11
-1.33487e-11
-1.42594e-11
-1.26054e-11
-1.66034e-11
-1.21246e-11
-1.89861e-11
-1.1847e-11
-2.13594e-11
-1.17053e-11
-2.36826e-11
-1.16697e-11
-2.59237e-11
-1.17336e-11
-2.80434e-11
-1.19062e-11
-3.00093e-11
-1.21844e-11
-3.17826e-11
-1.25666e-11
-3.33428e-11
-1.30348e-11
-3.46587e-11
-1.3583e-11
-3.57192e-11
-1.41875e-11
-3.65033e-11
-1.48376e-11
-3.70111e-11
-1.5507e-11
-3.72344e-11
-1.61886e-11
-3.71827e-11
-1.68612e-11
-3.68562e-11
-1.75194e-11
-3.62709e-11
-1.81454e-11
-3.5435e-11
-1.87369e-11
-3.43691e-11
-1.92821e-11
-3.30859e-11
-1.9782e-11
-3.16073e-11
-2.023e-11
-2.9948e-11
-2.06298e-11
-2.81288e-11
-2.09795e-11
-2.6164e-11
-2.12854e-11
-2.40713e-11
-2.15497e-11
-2.1863e-11
-2.17807e-11
-1.9553e-11
-2.19832e-11
-1.71506e-11
-2.21658e-11
-1.46659e-11
-2.23335e-11
-1.21056e-11
-2.24925e-11
-9.47627e-12
-2.26465e-11
-6.78256e-12
-2.27997e-11
-4.02831e-12
-2.29552e-11
-1.21684e-12
-2.31152e-11
1.64874e-12
-2.32804e-11
4.56324e-12
-2.34476e-11
7.52084e-12
-2.36116e-11
1.05112e-11
-2.37624e-11
1.35234e-11
-2.38909e-11
1.65403e-11
-2.39834e-11
1.95449e-11
-2.40302e-11
2.25115e-11
-2.40156e-11
2.54157e-11
-2.39289e-11
2.82224e-11
-2.37522e-11
3.0901e-11
-2.34774e-11
3.34093e-11
-2.30899e-11
3.57138e-11
-2.25893e-11
3.7768e-11
-2.19651e-11
3.95385e-11
-2.12238e-11
4.09782e-11
-2.03592e-11
4.20607e-11
-1.939e-11
4.27461e-11
-1.83225e-11
4.30216e-11
-1.719e-11
4.28605e-11
-1.60059e-11
4.22678e-11
-1.48096e-11
4.12362e-11
-1.36191e-11
3.97931e-11
-1.24827e-11
3.79534e-11
-1.14248e-11
3.57653e-11
-1.04935e-11
3.3266e-11
-9.70848e-12
3.0522e-11
-9.10511e-12
2.75864e-11
-8.6891e-12
2.45299e-11
-8.47468e-12
2.14116e-11
-8.45852e-12
1.83029e-11
-8.65184e-12
1.52789e-11
-9.07886e-12
1.24303e-11
-9.79429e-12
9.8523e-12
-1.08416e-11
7.60851e-12
-1.21155e-11
5.67401e-12
-1.3167e-11
3.79179e-12
-1.29009e-11
1.49088e-12
-9.60523e-12
-2.58971e-12
-1.97308e-12
-3.17597e-12
-4.79382e-12
-1.20344e-11
-6.74318e-12
-1.6414e-11
-8.60324e-12
-1.7107e-11
-1.06731e-11
-1.62052e-11
-1.29935e-11
-1.50058e-11
-1.54999e-11
-1.40589e-11
-1.81143e-11
-1.34486e-11
-2.07693e-11
-1.31053e-11
-2.34086e-11
-1.29483e-11
-2.5993e-11
-1.29335e-11
-2.84768e-11
-1.30595e-11
-3.08292e-11
-1.33229e-11
-3.30052e-11
-1.37339e-11
-3.49765e-11
-1.42757e-11
-3.67034e-11
-1.49411e-11
-3.81689e-11
-1.57027e-11
-3.93449e-11
-1.65474e-11
-4.02267e-11
-1.74421e-11
-4.07971e-11
-1.83728e-11
-4.10623e-11
-1.93094e-11
-4.10173e-11
-2.02424e-11
-4.06764e-11
-2.1147e-11
-4.00429e-11
-2.20167e-11
-3.91375e-11
-2.28323e-11
-3.79706e-11
-2.35923e-11
-3.65658e-11
-2.42847e-11
-3.49375e-11
-2.49126e-11
-3.31092e-11
-2.54706e-11
-3.10963e-11
-2.59654e-11
-2.89202e-11
-2.63973e-11
-2.65953e-11
-2.67759e-11
-2.41393e-11
-2.71061e-11
-2.15644e-11
-2.7399e-11
-1.88841e-11
-2.76616e-11
-1.61078e-11
-2.79034e-11
-1.32453e-11
-2.81303e-11
-1.03037e-11
-2.8349e-11
-7.2891e-12
-2.85645e-11
-4.20635e-12
-2.87814e-11
-1.05976e-12
-2.90025e-11
2.14531e-12
-2.92274e-11
5.4031e-12
-2.94524e-11
8.70402e-12
-2.96684e-11
1.2038e-11
-2.98651e-11
1.53891e-11
-3.00268e-11
1.87417e-11
-3.01407e-11
2.20718e-11
-3.01878e-11
2.53567e-11
-3.01541e-11
2.85623e-11
-3.00168e-11
3.16585e-11
-2.97623e-11
3.46023e-11
-2.93687e-11
3.73591e-11
-2.88301e-11
3.98794e-11
-2.81308e-11
4.21274e-11
-2.72736e-11
4.40503e-11
-2.62479e-11
4.5616e-11
-2.50681e-11
4.6776e-11
-2.3736e-11
4.751e-11
-2.2286e-11
4.77809e-11
-2.07342e-11
4.7585e-11
-1.91275e-11
4.69027e-11
-1.74886e-11
4.57528e-11
-1.58742e-11
4.41385e-11
-1.43161e-11
4.21018e-11
-1.28774e-11
3.96702e-11
-1.15915e-11
3.69078e-11
-1.05139e-11
3.38637e-11
-9.66547e-12
3.06132e-11
-9.0768e-12
2.72181e-11
-8.74965e-12
2.37546e-11
-8.69357e-12
2.02926e-11
-8.91455e-12
1.69164e-11
-9.44834e-12
1.37202e-11
-1.03607e-11
1.07987e-11
-1.16946e-11
8.23713e-12
-1.33441e-11
6.00518e-12
-1.47368e-11
3.9118e-12
-1.45884e-11
1.49108e-12
-1.08519e-11
-2.79321e-12
-1.98911e-12
-3.41524e-12
-4.8562e-12
-1.33974e-11
-6.96334e-12
-1.82751e-11
-9.02443e-12
-1.89286e-11
-1.13269e-11
-1.77506e-11
-1.38856e-11
-1.62726e-11
-1.66384e-11
-1.51139e-11
-1.94947e-11
-1.4381e-11
-2.2386e-11
-1.39779e-11
-2.52573e-11
-1.38123e-11
-2.80596e-11
-1.38328e-11
-3.07543e-11
-1.40297e-11
-3.32936e-11
-1.44086e-11
-3.56471e-11
-1.49633e-11
-3.77698e-11
-1.56917e-11
-3.96376e-11
-1.65665e-11
-4.12131e-11
-1.75734e-11
-4.24869e-11
-1.86722e-11
-4.34351e-11
-1.9844e-11
-4.40597e-11
-2.10498e-11
-4.43476e-11
-2.22745e-11
-4.43107e-11
-2.34839e-11
-4.39468e-11
-2.46674e-11
-4.32754e-11
-2.57975e-11
-4.23027e-11
-2.6868e-11
-4.10528e-11
-2.786e-11
-3.95377e-11
-2.87738e-11
-3.77829e-11
-2.95992e-11
-3.58035e-11
-3.03417e-11
-3.36237e-11
-3.09985e-11
-3.12592e-11
-3.15794e-11
-2.87313e-11
-3.20879e-11
-2.60543e-11
-3.25369e-11
-2.32455e-11
-3.2934e-11
-2.03169e-11
-3.32921e-11
-1.7282e-11
-3.36192e-11
-1.41504e-11
-3.39253e-11
-1.09316e-11
-3.42174e-11
-7.63241e-12
-3.4503e-11
-4.25944e-12
-3.47874e-11
-8.18964e-13
-3.50734e-11
2.68253e-12
-3.53606e-11
6.23575e-12
-3.56423e-11
9.83103e-12
-3.59091e-11
1.34535e-11
-3.61452e-11
1.70888e-11
-3.63355e-11
2.07151e-11
-3.64593e-11
2.43118e-11
-3.64992e-11
2.78476e-11
-3.64295e-11
3.12945e-11
-3.62312e-11
3.46108e-11
-3.58762e-11
3.77624e-11
-3.53507e-11
4.06997e-11
-3.46322e-11
4.33859e-11
-3.37182e-11
4.57659e-11
-3.25927e-11
4.78041e-11
-3.12646e-11
4.9446e-11
-2.97288e-11
5.06652e-11
-2.80155e-11
5.14158e-11
-2.61387e-11
5.16862e-11
-2.41493e-11
5.14448e-11
-2.20733e-11
5.07009e-11
-1.99744e-11
4.94444e-11
-1.78894e-11
4.77083e-11
-1.58931e-11
4.55074e-11
-1.403e-11
4.28988e-11
-1.23754e-11
3.99231e-11
-1.09679e-11
3.66533e-11
-9.86053e-12
3.3148e-11
-9.06918e-12
2.94881e-11
-8.6173e-12
2.5744e-11
-8.50434e-12
2.19952e-11
-8.74375e-12
1.8328e-11
-9.37926e-12
1.48328e-11
-1.04784e-11
1.16245e-11
-1.21128e-11
8.77569e-12
-1.41384e-11
6.29386e-12
-1.59138e-11
4.00402e-12
-1.59294e-11
1.49841e-12
-1.18694e-11
-2.90673e-12
-1.98137e-12
-3.57961e-12
-4.87915e-12
-1.45269e-11
-7.11412e-12
-1.98201e-11
-9.36251e-12
-2.03764e-11
-1.18649e-11
-1.89134e-11
-1.46394e-11
-1.71412e-11
-1.76043e-11
-1.57767e-11
-2.06717e-11
-1.49228e-11
-2.37653e-11
-1.44715e-11
-2.68274e-11
-1.43094e-11
-2.98116e-11
-1.43765e-11
-3.26702e-11
-1.46631e-11
-3.53656e-11
-1.51671e-11
-3.78501e-11
-1.58919e-11
-4.00961e-11
-1.68165e-11
-4.20602e-11
-1.7929e-11
-4.37268e-11
-1.91884e-11
-4.50638e-11
-2.05709e-11
-4.6069e-11
-2.20282e-11
-4.67223e-11
-2.35393e-11
-4.70322e-11
-2.50609e-11
-4.69898e-11
-2.65765e-11
-4.66124e-11
-2.80492e-11
-4.59014e-11
-2.9468e-11
-4.48796e-11
-3.08051e-11
-4.35556e-11
-3.20565e-11
-4.19551e-11
-3.3205e-11
-4.00916e-11
-3.42536e-11
-3.79913e-11
-3.51946e-11
-3.56697e-11
-3.60365e-11
-3.31512e-11
-3.67803e-11
-3.04511e-11
-3.7439e-11
-2.75904e-11
-3.80196e-11
-2.45831e-11
-3.85373e-11
-2.14464e-11
-3.90017e-11
-1.81923e-11
-3.94263e-11
-1.48341e-11
-3.982e-11
-1.13812e-11
-4.01936e-11
-7.84303e-12
-4.05549e-11
-4.22749e-12
-4.09104e-11
-5.4268e-13
-4.12633e-11
3.20178e-12
-4.16111e-11
6.99598e-12
-4.19472e-11
1.08258e-11
-4.22576e-11
1.46778e-11
-4.25273e-11
1.85317e-11
-4.27344e-11
2.23695e-11
-4.28598e-11
2.61628e-11
-4.2876e-11
2.98866e-11
-4.27605e-11
3.35023e-11
-4.24802e-11
3.69779e-11
-4.20137e-11
4.02655e-11
-4.13308e-11
4.33291e-11
-4.04212e-11
4.61138e-11
-3.92626e-11
4.8583e-11
-3.78577e-11
5.06791e-11
-3.61937e-11
5.23717e-11
-3.4293e-11
5.36083e-11
-3.21628e-11
5.43711e-11
-2.98524e-11
5.46184e-11
-2.73879e-11
5.43503e-11
-2.48373e-11
5.35437e-11
-2.22404e-11
5.22218e-11
-1.96806e-11
5.0385e-11
-1.72092e-11
4.80806e-11
-1.49173e-11
4.53358e-11
-1.28599e-11
4.22185e-11
-1.11157e-11
3.8778e-11
-9.71929e-12
3.50943e-11
-8.71596e-12
3.1235e-11
-8.11738e-12
2.72826e-11
-7.9361e-12
2.33159e-11
-8.18322e-12
1.94177e-11
-8.90362e-12
1.5694e-11
-1.01911e-11
1.22469e-11
-1.21131e-11
9.17687e-12
-1.45341e-11
6.48341e-12
-1.67014e-11
4.05329e-12
-1.6953e-11
1.47726e-12
-1.26419e-11
-2.9455e-12
-1.9622e-12
-3.66149e-12
-4.84229e-12
-1.54418e-11
-7.18555e-12
-2.10373e-11
-9.58344e-12
-2.1462e-11
-1.22651e-11
-1.96851e-11
-1.52169e-11
-1.76233e-11
-1.83618e-11
-1.60496e-11
-2.16007e-11
-1.50857e-11
-2.48568e-11
-1.4596e-11
-2.80715e-11
-1.44506e-11
-3.11924e-11
-1.45814e-11
-3.41791e-11
-1.4969e-11
-3.69822e-11
-1.56199e-11
-3.95697e-11
-1.65217e-11
-4.1894e-11
-1.76688e-11
-4.39343e-11
-1.90236e-11
-4.56528e-11
-2.0562e-11
-4.70423e-11
-2.22299e-11
-4.80753e-11
-2.39999e-11
-4.87565e-11
-2.58187e-11
-4.90705e-11
-2.76638e-11
-4.90318e-11
-2.94883e-11
-4.86356e-11
-3.12757e-11
-4.79031e-11
-3.29883e-11
-4.68381e-11
-3.46167e-11
-4.54656e-11
-3.61351e-11
-4.37958e-11
-3.75422e-11
-4.18555e-11
-3.88236e-11
-3.96587e-11
-3.99854e-11
-3.72316e-11
-4.10237e-11
-3.45898e-11
-4.19505e-11
-3.1757e-11
-4.27706e-11
-2.87486e-11
-4.34998e-11
-2.55852e-11
-4.41482e-11
-2.22808e-11
-4.47319e-11
-1.88523e-11
-4.5262e-11
-1.53117e-11
-4.57523e-11
-1.16718e-11
-4.62128e-11
-7.94272e-12
-4.6654e-11
-4.13503e-12
-4.70824e-11
-2.59358e-13
-4.75006e-11
3.67335e-12
-4.79063e-11
7.64918e-12
-4.82896e-11
1.16547e-11
-4.86372e-11
1.56712e-11
-4.89283e-11
1.96819e-11
-4.91432e-11
2.36616e-11
-4.9254e-11
2.75883e-11
-4.92364e-11
3.14272e-11
-4.9055e-11
3.51495e-11
-4.86824e-11
3.87105e-11
-4.8081e-11
4.20764e-11
-4.72317e-11
4.51945e-11
-4.61046e-11
4.80293e-11
-4.4695e-11
5.0523e-11
-4.29826e-11
5.26436e-11
-4.09805e-11
5.43349e-11
-3.86864e-11
5.5575e-11
-3.61422e-11
5.63151e-11
-3.33691e-11
5.65474e-11
-3.04352e-11
5.62375e-11
-2.73805e-11
5.53988e-11
-2.42936e-11
5.40183e-11
-2.12299e-11
5.21328e-11
-1.82914e-11
4.97541e-11
-1.55432e-11
4.6941e-11
-1.30872e-11
4.37296e-11
-1.0979e-11
4.01946e-11
-9.29124e-12
3.63953e-11
-8.05377e-12
3.24138e-11
-7.29969e-12
2.83234e-11
-7.03355e-12
2.42059e-11
-7.27235e-12
2.01507e-11
-8.0704e-12
1.62571e-11
-9.52933e-12
1.26454e-11
-1.17438e-11
9.39882e-12
-1.45457e-11
6.56875e-12
-1.71475e-11
4.02701e-12
-1.7658e-11
1.4492e-12
-1.32115e-11
-2.90257e-12
-1.91473e-12
-3.67314e-12
-4.76373e-12
-1.61247e-11
-7.17078e-12
-2.19459e-11
-9.70165e-12
-2.21722e-11
-1.25259e-11
-2.0076e-11
-1.56308e-11
-1.77134e-11
-1.89146e-11
-1.59463e-11
-2.22876e-11
-1.48765e-11
-2.56652e-11
-1.43644e-11
-2.89881e-11
-1.42509e-11
-3.22087e-11
-1.44576e-11
-3.52763e-11
-1.4967e-11
-3.81557e-11
-1.57723e-11
-4.07983e-11
-1.68744e-11
-4.31787e-11
-1.82457e-11
-4.52535e-11
-1.98669e-11
-4.70113e-11
-2.16821e-11
-4.84189e-11
-2.36595e-11
-4.9477e-11
-2.57378e-11
-5.01632e-11
-2.78875e-11
-5.04891e-11
-3.00517e-11
-5.04434e-11
-3.22075e-11
-5.00452e-11
-3.43071e-11
-4.92923e-11
-3.63352e-11
-4.82085e-11
-3.82558e-11
-4.67993e-11
-4.00625e-11
-4.50909e-11
-4.17323e-11
-4.30943e-11
-4.32673e-11
-4.08363e-11
-4.46572e-11
-3.8331e-11
-4.59114e-11
-3.56042e-11
-4.70301e-11
-3.26716e-11
-4.80288e-11
-2.95564e-11
-4.89155e-11
-2.62741e-11
-4.97084e-11
-2.28447e-11
-5.04191e-11
-1.92824e-11
-5.10648e-11
-1.56035e-11
-5.16571e-11
-1.18208e-11
-5.221e-11
-7.94769e-12
-5.27329e-11
-3.99667e-12
-5.32337e-11
1.94566e-14
-5.37147e-11
4.08622e-12
-5.41716e-11
8.18948e-12
-5.45952e-11
1.23112e-11
-5.49678e-11
1.6435e-11
-5.52707e-11
2.0538e-11
-5.54771e-11
2.46005e-11
-5.55626e-11
2.85918e-11
-5.54914e-11
3.24863e-11
-5.52333e-11
3.62434e-11
-5.47457e-11
3.98324e-11
-5.40008e-11
4.32044e-11
-5.29606e-11
4.63263e-11
-5.16117e-11
4.91429e-11
-4.99264e-11
5.16226e-11
-4.79083e-11
5.37087e-11
-4.55447e-11
5.53771e-11
-4.28666e-11
5.65753e-11
-3.9886e-11
5.72908e-11
-3.66655e-11
5.74803e-11
-3.32408e-11
5.71492e-11
-2.97015e-11
5.62719e-11
-2.6104e-11
5.48756e-11
-2.2557e-11
5.29568e-11
-1.9131e-11
5.05646e-11
-1.59439e-11
4.77195e-11
-1.30685e-11
4.44873e-11
-1.06052e-11
4.09134e-11
-8.60619e-12
3.7077e-11
-7.1341e-12
3.30411e-11
-6.20624e-12
2.88859e-11
-5.84197e-12
2.46899e-11
-6.05799e-12
2.05392e-11
-6.91318e-12
1.65482e-11
-8.54068e-12
1.28182e-11
-1.10226e-11
9.47121e-12
-1.42232e-11
6.53466e-12
-1.725e-11
3.95107e-12
-1.80873e-11
1.3872e-12
-1.3565e-11
-2.79876e-12
-1.86131e-12
-3.6054e-12
-4.63712e-12
-1.65944e-11
-7.10253e-12
-2.25244e-11
-9.73023e-12
-2.25211e-11
-1.26856e-11
-2.0072e-11
-1.5908e-11
-1.7424e-11
-1.93064e-11
-1.54636e-11
-2.27718e-11
-1.43109e-11
-2.62309e-11
-1.37871e-11
-2.96224e-11
-1.37223e-11
-3.28953e-11
-1.40239e-11
-3.60097e-11
-1.46648e-11
-3.89168e-11
-1.56463e-11
-4.15882e-11
-1.6951e-11
-4.39783e-11
-1.85684e-11
-4.60718e-11
-2.04499e-11
-4.78303e-11
-2.25629e-11
-4.9251e-11
-2.48404e-11
-5.03054e-11
-2.72472e-11
-5.10018e-11
-2.97168e-11
-5.13223e-11
-3.22192e-11
-5.1284e-11
-3.46963e-11
-5.08783e-11
-3.71266e-11
-5.01273e-11
-3.94635e-11
-4.90306e-11
-4.16947e-11
-4.76131e-11
-4.37875e-11
-4.5881e-11
-4.57388e-11
-4.38607e-11
-4.75298e-11
-4.15634e-11
-4.91663e-11
-3.90156e-11
-5.0642e-11
-3.62318e-11
-5.19698e-11
-3.3237e-11
-5.31541e-11
-3.00471e-11
-5.4213e-11
-2.66846e-11
-5.51575e-11
-2.31652e-11
-5.60067e-11
-1.95086e-11
-5.67736e-11
-1.57297e-11
-5.74749e-11
-1.18454e-11
-5.81224e-11
-7.8703e-12
-5.87283e-11
-3.81987e-12
-5.92993e-11
2.90069e-13
-5.98375e-11
4.44378e-12
-6.03388e-11
8.62292e-12
-6.0791e-11
1.28108e-11
-6.11785e-11
1.69855e-11
-6.1477e-11
2.11287e-11
-6.16632e-11
2.52126e-11
-6.17032e-11
2.92146e-11
-6.15663e-11
3.30985e-11
-6.12084e-11
3.68367e-11
-6.05956e-11
4.0385e-11
-5.96829e-11
4.37135e-11
-5.84474e-11
4.67715e-11
-5.68535e-11
4.95296e-11
-5.48956e-11
5.19332e-11
-5.25513e-11
5.39582e-11
-4.9839e-11
5.55514e-11
-4.67593e-11
5.66984e-11
-4.33641e-11
5.7351e-11
-3.96809e-11
5.75091e-11
-3.57944e-11
5.71377e-11
-3.1758e-11
5.62558e-11
-2.7683e-11
5.48464e-11
-2.3641e-11
5.29481e-11
-1.97586e-11
5.05662e-11
-1.61193e-11
4.77572e-11
-1.28475e-11
4.45489e-11
-1.00145e-11
4.10126e-11
-7.71502e-12
3.71999e-11
-5.9925e-12
3.31851e-11
-4.8853e-12
2.90352e-11
-4.40607e-12
2.48259e-11
-4.5776e-12
2.06534e-11
-5.48079e-12
1.6609e-11
-7.24178e-12
1.283e-11
-9.9953e-12
9.40812e-12
-1.35648e-11
6.42649e-12
-1.70473e-11
3.81193e-12
-1.8223e-11
1.32631e-12
-1.37417e-11
-2.62087e-12
-1.78073e-12
-3.47227e-12
-4.48888e-12
-1.68207e-11
-6.98773e-12
-2.27797e-11
-9.71908e-12
-2.2478e-11
-1.27759e-11
-1.96837e-11
-1.61073e-11
-1.67426e-11
-1.95857e-11
-1.46179e-11
-2.31148e-11
-1.3395e-11
-2.66135e-11
-1.28842e-11
-3.00289e-11
-1.28844e-11
-3.33151e-11
-1.32959e-11
-3.64262e-11
-1.40886e-11
-3.93306e-11
-1.52501e-11
-4.19823e-11
-1.67777e-11
-4.43628e-11
-1.86347e-11
-4.64315e-11
-2.07949e-11
-4.81822e-11
-2.3192e-11
-4.95812e-11
-2.5787e-11
-5.06339e-11
-2.85054e-11
-5.13164e-11
-3.13108e-11
-5.16432e-11
-3.41344e-11
-5.15998e-11
-3.69478e-11
-5.12064e-11
-3.96943e-11
-5.04563e-11
-4.23553e-11
-4.93725e-11
-4.48877e-11
-4.79552e-11
-4.72828e-11
-4.62294e-11
-4.95121e-11
-4.42016e-11
-5.15763e-11
-4.18978e-11
-5.34608e-11
-3.93297e-11
-5.51745e-11
-3.65231e-11
-5.6716e-11
-3.34926e-11
-5.81012e-11
-3.02627e-11
-5.93385e-11
-2.68493e-11
-6.04475e-11
-2.32748e-11
-6.14409e-11
-1.95557e-11
-6.23378e-11
-1.57122e-11
-6.31512e-11
-1.1761e-11
-6.38967e-11
-7.72084e-12
-6.45843e-11
-3.60945e-12
-6.52218e-11
5.54974e-13
-6.58108e-11
4.75296e-12
-6.63461e-11
8.96624e-12
-6.68166e-11
1.31731e-11
-6.72031e-11
1.73548e-11
-6.74844e-11
2.14857e-11
-6.763e-11
2.55446e-11
-6.76107e-11
2.94992e-11
-6.73839e-11
3.33246e-11
-6.69136e-11
3.69812e-11
-6.61504e-11
4.04426e-11
-6.5063e-11
4.36635e-11
-6.36085e-11
4.66178e-11
-6.17716e-11
4.92552e-11
-5.95211e-11
5.15534e-11
-5.68636e-11
5.34612e-11
-5.37873e-11
5.49645e-11
-5.0331e-11
5.60146e-11
-4.65105e-11
5.66087e-11
-4.24005e-11
5.6706e-11
-3.80462e-11
5.632e-11
-3.35563e-11
5.54235e-11
-2.90002e-11
5.40469e-11
-2.45076e-11
5.21802e-11
-2.01641e-11
4.98709e-11
-1.61109e-11
4.71305e-11
-1.24356e-11
4.40208e-11
-9.25963e-12
4.05753e-11
-6.64953e-12
3.6862e-11
-4.6821e-12
3.29345e-11
-3.38159e-12
2.8858e-11
-2.77036e-12
2.47089e-11
-2.88325e-12
2.05634e-11
-3.79806e-12
1.6534e-11
-5.68062e-12
1.27254e-11
-8.65728e-12
9.27984e-12
-1.26016e-11
6.25074e-12
-1.65114e-11
3.65528e-12
-1.80953e-11
1.23492e-12
-1.37064e-11
-2.39293e-12
-1.70207e-12
-3.25984e-12
-4.31276e-12
-1.68199e-11
-6.87145e-12
-2.26701e-11
-9.69433e-12
-2.20458e-11
-1.28671e-11
-1.88853e-11
-1.628e-11
-1.56913e-11
-1.98216e-11
-1.34184e-11
-2.33747e-11
-1.21629e-11
-2.68762e-11
-1.16826e-11
-3.02726e-11
-1.17703e-11
-3.35225e-11
-1.23104e-11
-3.65936e-11
-1.32627e-11
-3.94439e-11
-1.46224e-11
-4.20516e-11
-1.6367e-11
-4.43755e-11
-1.84799e-11
-4.6407e-11
-2.09031e-11
-4.81094e-11
-2.3599e-11
-4.94851e-11
-2.64897e-11
-5.05053e-11
-2.95327e-11
-5.11826e-11
-3.26498e-11
-5.14967e-11
-3.58058e-11
-5.14658e-11
-3.89334e-11
-5.1077e-11
-4.20078e-11
-5.03513e-11
-4.49757e-11
-4.92825e-11
-4.78224e-11
-4.78933e-11
-5.05095e-11
-4.61842e-11
-5.30317e-11
-4.41794e-11
-5.53651e-11
-4.1886e-11
-5.75133e-11
-3.93292e-11
-5.94665e-11
-3.65211e-11
-6.12372e-11
-3.34863e-11
-6.28281e-11
-3.02402e-11
-6.42579e-11
-2.68066e-11
-6.55371e-11
-2.32027e-11
-6.66857e-11
-1.94513e-11
-6.77168e-11
-1.5571e-11
-6.86481e-11
-1.15835e-11
-6.94917e-11
-7.50894e-12
-7.02598e-11
-3.36844e-12
-7.09589e-11
8.16588e-13
-7.15905e-11
5.02538e-12
-7.21498e-11
9.23513e-12
-7.26239e-11
1.34256e-11
-7.29959e-11
1.75716e-11
-7.32397e-11
2.1652e-11
-7.3329e-11
2.5637e-11
-7.32252e-11
2.95034e-11
-7.2893e-11
3.32155e-11
-7.2283e-11
3.67497e-11
-7.13586e-11
4.00659e-11
-7.00711e-11
4.31418e-11
-6.8396e-11
4.59327e-11
-6.62945e-11
4.84192e-11
-6.37618e-11
5.05542e-11
-6.07754e-11
5.23258e-11
-5.73599e-11
5.36882e-11
-5.35185e-11
5.46391e-11
-4.93122e-11
5.51366e-11
-4.4774e-11
5.51912e-11
-4.00034e-11
5.47698e-11
-3.50634e-11
5.38968e-11
-3.00824e-11
5.25511e-11
-2.5143e-11
5.07723e-11
-2.03925e-11
4.85566e-11
-1.59277e-11
4.59559e-11
-1.18922e-11
4.29869e-11
-8.37131e-12
3.97095e-11
-5.47497e-12
3.61568e-11
-3.25267e-12
3.23898e-11
-1.75561e-12
2.84599e-11
-9.97153e-13
2.44293e-11
-1.02032e-12
2.03799e-11
-1.92451e-12
1.63921e-11
-3.87125e-12
1.26054e-11
-7.05287e-12
9.12174e-12
-1.13085e-11
6.07789e-12
-1.56704e-11
3.4701e-12
-1.76622e-11
1.16015e-12
-1.3498e-11
-2.10339e-12
-1.60649e-12
-2.97783e-12
-4.15651e-12
-1.65419e-11
-6.77831e-12
-2.21889e-11
-9.73263e-12
-2.11765e-11
-1.30099e-11
-1.76897e-11
-1.6508e-11
-1.42699e-11
-2.0073e-11
-1.19164e-11
-2.36193e-11
-1.06562e-11
-2.70756e-11
-1.02428e-11
-3.04057e-11
-1.04358e-11
-3.35767e-11
-1.11176e-11
-3.65551e-11
-1.22449e-11
-3.93201e-11
-1.3799e-11
-4.18329e-11
-1.57739e-11
-4.40826e-11
-1.81258e-11
-4.60316e-11
-2.08238e-11
-4.76802e-11
-2.37932e-11
-4.89962e-11
-2.69892e-11
-4.99901e-11
-3.03263e-11
-5.0637e-11
-3.37628e-11
-5.09536e-11
-3.72212e-11
-5.09211e-11
-4.06707e-11
-5.05589e-11
-4.40477e-11
-4.9854e-11
-4.73319e-11
-4.88268e-11
-5.04747e-11
-4.7471e-11
-5.34655e-11
-4.58079e-11
-5.62704e-11
-4.38383e-11
-5.8887e-11
-4.15855e-11
-6.12959e-11
-3.90569e-11
-6.35039e-11
-3.62766e-11
-6.55062e-11
-3.3257e-11
-6.73181e-11
-3.00224e-11
-6.89457e-11
-2.65894e-11
-7.04083e-11
-2.29823e-11
-7.17173e-11
-1.92206e-11
-7.28912e-11
-1.53288e-11
-7.39427e-11
-1.13288e-11
-7.48866e-11
-7.24501e-12
-7.57325e-11
-3.10125e-12
-7.64876e-11
1.07849e-12
-7.71532e-11
5.26937e-12
-7.77238e-11
9.44838e-12
-7.81881e-11
1.35894e-11
-7.85261e-11
1.76698e-11
-7.87155e-11
2.16605e-11
-7.87228e-11
2.55384e-11
-7.8516e-11
2.92706e-11
-7.80491e-11
3.28348e-11
-7.72842e-11
3.61952e-11
-7.61702e-11
3.93327e-11
-7.46756e-11
4.22083e-11
-7.27554e-11
4.48063e-11
-7.03946e-11
4.70849e-11
-6.75615e-11
4.90355e-11
-6.42673e-11
5.06172e-11
-6.05034e-11
5.18308e-11
-5.6316e-11
5.26373e-11
-5.17243e-11
5.30481e-11
-4.68134e-11
5.30287e-11
-4.16352e-11
5.26017e-11
-3.63112e-11
5.17388e-11
-3.09174e-11
5.04736e-11
-2.55992e-11
4.87908e-11
-2.04538e-11
4.67354e-11
-1.56391e-11
4.43065e-11
-1.12518e-11
4.1555e-11
-7.42924e-12
3.84978e-11
-4.24676e-12
3.51852e-11
-1.78677e-12
3.1649e-11
-8.23366e-14
2.79363e-11
8.39673e-13
2.41009e-11
9.28406e-13
2.01918e-11
9.19426e-14
1.63075e-11
-1.88376e-12
1.25384e-11
-5.1822e-12
9.04599e-12
-9.72471e-12
5.93374e-12
-1.44757e-11
3.32224e-12
-1.69454e-11
1.06662e-12
-1.30725e-11
-1.78916e-12
-1.54144e-12
-2.59189e-12
-4.04292e-12
-1.59753e-11
-6.80401e-12
-2.12561e-11
-9.90007e-12
-1.98544e-11
-1.33094e-11
-1.60622e-11
-1.68546e-11
-1.25199e-11
-2.04189e-11
-1.01428e-11
-2.39001e-11
-8.94804e-12
-2.7262e-11
-8.62885e-12
-3.04718e-11
-8.95144e-12
-3.35093e-11
-9.78571e-12
-3.63561e-11
-1.10864e-11
-3.89817e-11
-1.28439e-11
-4.13751e-11
-1.50318e-11
-4.35008e-11
-1.76305e-11
-4.53572e-11
-2.05752e-11
-4.69106e-11
-2.38241e-11
-4.81698e-11
-2.72897e-11
-4.91066e-11
-3.0925e-11
-4.97363e-11
-3.46435e-11
-5.00358e-11
-3.84078e-11
-5.00228e-11
-4.21451e-11
-4.96783e-11
-4.58297e-11
-4.90205e-11
-4.94034e-11
-4.80361e-11
-5.28501e-11
-4.67431e-11
-5.61268e-11
-4.51348e-11
-5.92257e-11
-4.32306e-11
-6.21172e-11
-4.1032e-11
-6.4801e-11
-3.85607e-11
-6.72629e-11
-3.58247e-11
-6.95126e-11
-3.28471e-11
-7.15497e-11
-2.96416e-11
-7.33902e-11
-2.62333e-11
-7.50422e-11
-2.26409e-11
-7.65235e-11
-1.88907e-11