/*--------------------------------*- C++ -*----------------------------------*\
| =========                 |                                                 |
| \\      /  F ield         | OpenFOAM: The Open Source CFD Toolbox           |
|  \\    /   O peration     | Version:  2412                                  |
|   \\  /    A nd           | Website:  www.openfoam.com                      |
|    \\/     M anipulation  |                                                 |
\*---------------------------------------------------------------------------*/
FoamFile
{
    version     2.0;
    format      ascii;
    arch        "LSB;label=32;scalar=64";
    class       volScalarField;
    location    "2.6";
    object      p_rgh;
}
// * * * * * * * * * * * * * * * * * * * * * * * * * * * * * * * * * * * * * //

dimensions      [1 -1 -2 0 0 0 0];

internalField   nonuniform List<scalar> 
6400
(
13920.4
13920.4
13920.4
13920.4
13920.4
13920.4
13920.4
13920.4
13920.4
13920.4
13920.4
13920.4
13920.4
13920.4
13920.4
13920.4
13920.4
13920.4
13920.4
13920.4
13920.4
13920.4
13920.4
13920.4
13920.4
13920.4
13920.4
13920.4
13920.4
13920.4
13920.4
13920.4
13920.4
13920.4
13920.4
13920.4
13920.4
13920.4
13920.4
13920.4
13920.4
13920.4
13920.4
13920.4
13920.4
13920.4
13920.4
13920.4
13920.4
13920.4
13920.4
13920.4
13920.4
13920.4
13920.4
13920.4
13920.4
13920.4
13920.4
13920.4
13920.4
13920.4
13920.4
13920.4
13920.4
13920.4
13920.4
13920.4
13920.4
13920.4
13920.4
13920.4
13920.4
13920.4
13920.4
13920.4
13920.4
13920.4
13920.4
13920.4
13920.4
13920.4
13920.4
13920.4
13920.4
13920.4
13920.4
13920.4
13920.4
13920.4
13920.4
13920.4
13920.4
13920.4
13920.4
13920.4
13920.4
13920.4
13920.4
13920.4
13920.4
13920.4
13920.4
13920.4
13920.4
13920.4
13920.4
13920.4
13920.4
13920.4
13920.4
13920.4
13920.4
13920.4
13920.4
13920.4
13920.4
13920.4
13920.4
13920.4
13920.4
13920.4
13920.4
13920.4
13920.4
13920.4
13920.4
13920.4
13920.4
13920.4
13920.4
13920.4
13920.4
13920.4
13920.4
13920.4
13920.4
13920.4
13920.4
13920.4
13920.4
13920.4
13920.4
13920.4
13920.4
13920.4
13920.4
13920.4
13920.4
13920.4
13920.4
13920.4
13920.4
13920.4
13920.4
13920.4
13920.4
13920.4
13920.4
13920.4
13920.4
13920.4
13920.4
13920.4
13920.4
13920.4
13920.4
13920.4
13920.4
13920.4
13920.4
13920.4
13920.4
13920.4
13920.4
13920.4
13920.4
13920.4
13920.4
13920.4
13920.4
13920.4
13920.4
13920.4
13920.4
13920.4
13920.4
13920.4
13920.4
13920.4
13920.4
13920.4
13920.4
13920.4
13920.4
13920.4
13920.4
13920.4
13920.4
13920.4
13920.4
13920.4
13920.4
13920.4
13920.4
13920.4
13920.4
13920.4
13920.4
13920.4
13920.4
13920.4
13920.4
13920.4
13920.4
13920.4
13920.4
13920.4
13920.4
13920.4
13920.4
13920.4
13920.4
13920.4
13920.4
13920.4
13920.4
13920.4
13920.4
13920.4
13920.4
13920.4
13920.4
13920.4
13920.4
13920.4
13920.4
13920.4
13920.4
13920.4
13920.4
13920.4
13920.4
13920.4
13920.4
13920.4
13920.4
13920.4
13920.4
13920.4
13920.4
13920.4
13920.4
13920.4
13920.4
13920.4
13920.4
13920.4
13920.4
13920.4
13920.4
13920.4
13920.4
13920.4
13920.4
13920.4
13920.4
13920.4
13920.4
13920.4
13920.4
13920.4
13920.4
13920.4
13920.4
13920.4
13920.4
13920.4
13920.4
13920.4
13920.4
13920.4
13920.4
13920.4
13920.4
13920.4
13920.4
13920.4
13920.4
13920.4
13920.4
13920.4
13920.4
13920.4
13920.4
13920.4
13920.4
13920.4
13920.4
13920.4
13920.4
13920.4
13920.4
13920.4
13920.4
13920.4
13920.4
13920.4
13920.4
13920.4
13920.4
13920.4
13920.4
13920.4
13920.4
13920.4
13920.4
13920.4
13920.4
13920.4
13920.4
13920.4
13920.4
13920.4
13920.4
13920.4
13920.4
13920.4
13920.4
13920.4
13920.4
13920.4
13920.4
13920.4
13920.4
13920.4
13920.4
13920.4
13920.4
13920.4
13920.4
13920.4
13920.4
13920.4
13920.4
13920.4
13920.4
13920.4
13920.4
13920.4
13920.4
13920.4
13920.4
13920.4
13920.4
13920.4
13920.4
13920.4
13920.4
13920.4
13920.4
13920.4
13920.4
13920.4
13920.4
13920.4
13920.4
13920.4
13920.4
13920.4
13920.4
13920.4
13920.4
13920.4
13920.4
13920.4
13920.4
13920.4
13920.4
13920.4
13920.4
13920.4
13920.4
13920.4
13920.4
13920.4
13920.4
13920.4
13920.4
13920.4
13920.4
13920.4
13920.4
13920.4
13920.4
13920.4
13920.4
13920.4
13920.4
13920.4
13920.4
13920.4
13920.4
13920.4
13920.4
13920.4
13920.4
13920.4
13920.4
13920.4
13920.4
13920.4
13920.4
13920.4
13920.4
13920.4
13920.4
13920.4
13920.4
13920.4
13920.4
13920.4
13920.4
13920.4
13920.4
13920.4
13920.4
13920.4
13920.4
13920.4
13920.4
13920.4
13920.4
13920.4
13920.4
13920.4
13920.4
13920.4
13920.4
13920.4
13920.4
13920.4
13920.4
13920.4
13920.4
13920.4
13920.4
13920.4
13920.4
13920.4
13920.4
13920.4
13920.4
13920.4
13920.4
13920.4
13920.4
13920.4
13920.4
13920.4
13920.4
13920.4
13920.4
13920.4
13920.4
13920.4
13920.4
13920.4
13920.4
13920.4
13920.4
13920.4
13920.4
13920.4
13920.4
13920.4
13920.4
13920.4
13920.4
13920.4
13920.4
13920.4
13920.4
13920.4
13920.4
13920.4
13920.4
13920.4
13920.4
13920.4
13920.4
13920.4
13920.4
13920.4
13920.4
13920.4
13920.4
13920.4
13920.4
13920.4
13920.4
13920.4
13920.4
13920.4
13920.4
13920.4
13920.4
13920.4
13920.4
13920.4
13920.4
13920.4
13920.4
13920.4
13920.4
13920.4
13920.4
13920.4
13920.4
13920.4
13920.4
13920.4
13920.4
13920.4
13920.4
13920.4
13920.4
13920.4
13920.4
13920.4
13920.4
13920.4
13920.4
13920.4
13920.4
13920.4
13920.4
13920.4
13920.4
13920.4
13920.4
13920.4
13920.4
13920.4
13920.4
13920.4
13920.4
13920.4
13920.4
13920.4
13920.4
13920.4
13920.4
13920.4
13920.4
13920.4
13920.4
13920.4
13920.4
13920.4
13920.4
13920.4
13920.4
13920.4
13920.4
13920.4
13920.4
13920.4
13920.4
13920.4
13920.4
13920.4
13920.4
13920.4
13920.4
13920.4
13920.4
13920.4
13920.4
13920.4
13920.4
13920.4
13920.4
13920.4
13920.4
13920.4
13920.4
13920.4
13920.4
13920.4
13920.4
13920.4
13920.4
13920.4
13920.4
13920.4
13920.4
13920.4
13920.4
13920.4
13920.4
13920.4
13920.4
13920.4
13920.4
13920.4
13920.4
13920.4
13920.4
13920.4
13920.4
13920.4
13920.4
13920.4
13920.4
13920.4
13920.4
13920.4
13920.4
13920.4
13920.4
13920.4
13920.4
13920.4
13920.4
13920.4
13920.4
13920.4
13920.4
13920.4
13920.4
13920.4
13920.4
13920.4
13920.4
13920.4
13920.4
13920.4
13920.4
13920.4
13920.4
13920.4
13920.4
13920.4
13920.4
13920.4
13920.4
13920.4
13920.4
13920.4
13920.4
13920.4
13920.4
13920.4
13920.4
13920.4
13920.4
13920.4
13920.4
13920.4
13920.4
13920.4
13920.4
13920.4
13920.4
13920.4
13920.4
13920.4
13920.4
13920.4
13920.4
13920.4
13920.4
13920.4
13920.4
13920.4
13920.4
13920.4
13920.4
13920.4
13920.4
13920.4
13920.4
13920.4
13920.4
13920.4
13920.4
13920.4
13920.4
13920.4
13920.4
13920.4
13920.4
13920.4
13920.4
13920.4
13920.4
13920.4
13920.4
13920.4
13920.4
13920.4
13920.4
13920.4
13920.4
13920.4
13920.4
13920.4
13920.4
13920.4
13920.4
13920.4
13920.4
13920.4
13920.4
13920.4
13920.4
13920.4
13920.4
13920.4
13920.4
13920.4
13920.4
13920.4
13920.4
13920.4
13920.4
13920.4
13920.4
13920.4
13920.4
13920.4
13920.4
13920.4
13920.4
13920.4
13920.4
13920.4
13920.4
13920.4
13920.4
13920.4
13920.4
13920.4
13920.4
13920.4
13920.4
13920.4
13920.4
13920.4
13920.4
13920.4
13920.4
13920.4
13920.4
13920.4
13920.4
13920.4
13920.4
13920.4
13920.4
13920.4
13920.4
13920.4
13920.4
13920.4
13920.4
13920.4
13920.4
13920.4
13920.4
13920.4
13920.4
13920.4
13920.4
13920.4
13920.4
13920.4
13920.4
13920.4
13920.4
13920.4
13920.4
13920.4
13920.4
13920.4
13920.4
13920.4
13920.4
13920.4
13920.4
13920.4
13920.4
13920.4
13920.4
13920.4
13920.4
13920.4
13920.4
13920.4
13920.4
13920.4
13920.4
13920.4
13920.4
13920.4
13920.4
13920.4
13920.4
13920.4
13920.4
13920.4
13920.4
13920.4
13920.4
13920.4
13920.4
13920.4
13920.4
13920.4
13920.4
13920.4
13920.4
13920.4
13920.4
13920.4
13920.4
13920.4
13920.4
13920.4
13920.4
13920.4
13920.4
13920.4
13920.4
13920.4
13920.4
13920.4
13920.4
13920.4
13920.4
13920.4
13920.4
13920.4
13920.4
13920.4
13920.4
13920.4
13920.4
13920.4
13920.4
13920.4
13920.4
13920.4
13920.4
13920.4
13920.4
13920.4
13920.4
13920.4
13920.4
13920.4
13920.4
13920.4
13920.4
13920.4
13920.4
13920.4
13920.4
13920.4
13920.4
13920.4
13920.4
13920.4
13920.4
13920.4
13920.4
13920.4
13920.4
13920.4
13920.4
13920.4
13920.4
13920.4
13920.4
13920.4
13920.4
13920.4
13920.4
13920.4
13920.4
13920.4
13920.4
13920.4
13920.4
13920.4
13920.4
13920.4
13920.4
13920.4
13920.4
13920.4
13920.4
13920.4
13920.4
13920.4
13920.4
13920.4
13920.4
13920.4
13920.4
13920.4
13920.4
13920.4
13920.4
13920.4
13920.4
13920.4
13920.4
13920.4
13920.4
13920.4
13920.4
13920.4
13920.4
13920.4
13920.4
13920.4
13920.4
13920.4
13920.4
13920.4
13920.4
13920.4
13920.4
13920.4
13920.4
13920.4
13920.4
13920.4
13920.4
13920.4
13920.4
13920.4
13920.4
13920.4
13920.4
13920.4
13920.4
13920.4
13920.4
13920.4
13920.4
13920.4
13920.4
13920.4
13920.4
13920.4
13920.4
13920.4
13920.4
13920.4
13920.4
13920.4
13920.4
13920.4
13920.4
13920.4
13920.4
13920.4
13920.4
13920.4
13920.4
13920.4
13920.4
13920.4
13920.4
13920.4
13920.4
13920.4
13920.4
13920.4
13920.4
13920.4
13920.4
13920.4
13920.4
13920.4
13920.4
13920.4
13920.4
13920.4
13920.4
13920.4
13920.4
13920.4
13920.4
13920.4
13920.4
13920.4
13920.4
13920.4
13920.4
13920.4
13920.4
13920.4
13920.4
13920.4
13920.4
13920.4
13920.4
13920.4
13920.4
13920.4
13920.4
13920.4
13920.4
13920.4
13920.4
13920.4
13920.4
13920.4
13920.4
13920.4
13920.4
13920.4
13920.4
13920.4
13920.4
13920.4
13920.4
13920.4
13920.4
13920.4
13920.4
13920.4
13920.4
13920.4
13920.4
13920.4
13920.4
13920.4
13920.4
13920.4
13920.4
13920.4
13920.4
13920.4
13920.4
13920.4
13920.4
13920.4
13920.4
13920.4
13920.4
13920.4
13920.4
13920.4
13920.4
13920.4
13920.4
13920.4
13920.4
13920.4
13920.4
13920.4
13920.4
13920.4
13920.4
13920.4
13920.4
13920.4
13920.4
13920.4
13920.4
13920.4
13920.4
13920.4
13920.4
13920.4
13920.4
13920.4
13920.4
13920.4
13920.4
13920.4
13920.4
13920.4
13920.4
13920.4
13920.4
13920.4
13920.4
13920.4
13920.4
13920.4
13920.4
13920.4
13920.4
13920.4
13920.4
13920.4
13920.4
13920.4
13920.4
13920.4
13920.4
13920.4
13920.4
13920.4
13920.4
13920.4
13920.4
13920.4
13920.4
13920.4
13920.4
13920.4
13920.4
13920.4
13920.4
13920.4
13920.4
13920.4
13920.4
13920.4
13920.4
13920.4
13920.4
13920.4
13920.4
13920.4
13920.4
13920.4
13920.4
13920.4
13920.4
13920.4
13920.4
13920.4
13920.4
13920.4
13920.4
13920.4
13920.4
13920.4
13920.4
13920.4
13920.4
13920.4
13920.4
13920.4
13920.4
13920.4
13920.4
13920.4
13920.4
13920.4
13920.4
13920.4
13920.4
13920.4
13920.4
13920.4
13920.4
13920.4
13920.4
13920.4
13920.4
13920.4
13920.4
13920.4
13920.4
13920.4
13920.4
13920.4
13920.4
13920.4
13920.4
13920.4
13920.4
13920.4
13920.4
13920.4
13920.4
13920.4
13920.4
13920.4
13920.4
13920.4
13920.4
13920.4
13920.4
13920.4
13920.4
13920.4
13920.4
13920.4
13920.4
13920.4
13920.4
13920.4
13920.4
13920.4
13920.4
13920.4
13920.4
13920.4
13920.4
13920.4
13920.4
13920.4
13920.4
13920.4
13920.4
13920.4
13920.4
13920.4
13920.4
13920.4
13920.4
13920.4
13920.4
13920.4
13920.4
13920.4
13920.4
13920.4
13920.4
13920.4
13920.4
13920.4
13920.4
13920.4
13920.4
13920.4
13920.4
13920.4
13920.4
13920.4
13920.4
13920.4
13920.4
13920.4
13920.4
13920.4
13920.4
13920.4
13920.4
13920.4
13920.4
13920.4
13920.4
13920.4
13920.4
13920.4
13920.4
13920.4
13920.4
13920.4
13920.4
13920.4
13920.4
13920.4
13920.4
13920.4
13920.4
13920.4
13920.4
13920.4
13920.4
13920.4
13920.4
13920.4
13920.4
13920.4
13920.4
13920.4
13920.4
13920.4
13920.4
13920.4
13920.4
13920.4
13920.4
13920.4
13920.4
13920.4
13920.4
13920.4
13920.4
13920.4
13920.4
13920.4
13920.4
13920.4
13920.4
13920.4
13920.4
13920.4
13920.4
13920.4
13920.4
13920.4
13920.4
13920.4
13920.4
13920.4
13920.4
13920.4
13920.4
13920.4
13920.4
13920.4
13920.4
13920.4
13920.4
13920.4
13920.4
13920.4
13920.4
13920.4
13920.4
13920.4
13920.4
13920.4
13920.4
13920.4
13920.4
13920.4
13920.4
13920.4
13920.4
13920.4
13920.4
13920.4
13920.4
13920.4
13920.4
13920.4
13920.4
13920.4
13920.4
13920.4
13920.4
13920.4
13920.4
13920.4
13920.4
13920.4
13920.4
13920.4
13920.4
13920.4
13920.4
13920.4
13920.4
13920.4
13920.4
13920.4
13920.4
13920.4
13920.4
13920.4
13920.4
13920.4
13920.4
13920.4
13920.4
13920.4
13920.4
13920.4
13920.4
13920.4
13920.4
13920.4
13920.4
13920.4
13920.4
13920.4
13920.4
13920.4
13920.4
13920.4
13920.4
13920.4
13920.4
13920.4
13920.4
13920.4
13920.4
13920.4
13920.4
13920.4
13920.4
13920.4
13920.4
13920.4
13920.4
13920.4
13920.4
13920.4
13920.4
13920.4
13920.4
13920.4
13920.4
13920.4
13920.4
13920.4
13920.4
13920.4
13920.4
13920.4
13920.4
13920.4
13920.4
13920.4
13920.4
13920.4
13920.4
13920.4
13920.4
13920.4
13920.4
13920.4
13920.4
13920.4
13920.4
13920.4
13920.4
13920.4
13920.4
13920.4
13920.4
13920.4
13920.4
13920.4
13920.4
13920.4
13920.4
13920.4
13920.4
13920.4
13920.4
13920.4
13920.4
13920.4
13920.4
13920.4
13920.4
13920.4
13920.4
13920.4
13920.4
13920.4
13920.4
13920.4
13920.4
13920.4
13920.4
13920.4
13920.4
13920.4
13920.4
13920.4
13920.4
13920.4
13920.4
13920.4
13920.4
13920.4
13920.4
13920.4
13920.4
13920.4
13920.4
13920.4
13920.4
13920.4
13920.4
13920.4
13920.4
13920.4
13920.4
13920.4
13920.4
13920.4
13920.4
13920.4
13920.4
13920.4
13920.4
13920.4
13920.4
13920.4
13920.4
13920.4
13920.4
13920.4
13920.4
13920.4
13920.4
13920.4
13920.4
13920.4
13920.4
13920.4
13920.4
13920.4
13920.4
13920.4
13920.4
13920.4
13920.4
13920.4
13920.4
13920.4
13920.4
13920.4
13920.4
13920.4
13920.4
13920.4
13920.4
13920.4
13920.4
13920.4
13920.4
13920.4
13920.4
13920.4
13920.4
13920.4
13920.4
13920.4
13920.4
13920.4
13920.4
13920.4
13920.4
13920.4
13920.4
13920.4
13920.4
13920.4
13920.4
13920.4
13920.4
13920.4
13920.4
13920.4
13920.4
13920.4
13920.4
13920.4
13920.4
13920.4
13920.4
13920.4
13920.4
13920.4
13920.4
13920.4
13920.4
13920.4
13920.4
13920.4
13920.4
13920.4
13920.4
13920.4
13920.4
13920.4
13920.4
13920.4
13920.4
13920.4
13920.4
13920.4
13920.4
13920.4
13920.4
13920.4
13920.4
13920.4
13920.4
13920.4
13920.4
13920.4
13920.4
13920.4
13920.4
13920.4
13920.4
13920.4
13920.4
13920.4
13920.4
13920.4
0.0131463
0.0149802
0.0162466
0.01717
0.0177499
0.0180802
0.018225
0.0182117
0.0180677
0.0178204
0.0174871
0.0170841
0.0166176
0.0160959
0.0155203
0.0148994
0.0142347
0.0137858
0.0134297
0.0131116
0.0129045
0.0127314
0.0125926
0.0125253
0.0124775
0.0125267
0.0127521
0.0129799
0.0132085
0.0134353
0.0136575
0.0138719
0.0140754
0.0142648
0.0144373
0.0145897
0.0147197
0.014825
0.014904
0.0149554
0.0149785
0.0149735
0.0149408
0.0148814
0.0147969
0.0146893
0.0145609
0.0144142
0.0142521
0.0140774
0.0138929
0.0137015
0.0135059
0.0133087
0.0131124
0.0129183
0.0127615
0.0128408
0.0129874
0.0131728
0.0134428
0.013807
0.0143361
0.0153051
0.0165688
0.0177708
0.0188705
0.0198186
0.020597
0.0211669
0.021513
0.0216349
0.0215297
0.0212423
0.0207619
0.020145
0.019375
0.0184624
0.0171968
0.0153208
0.00972156
0.00972989
0.00974236
0.00976196
0.00978948
0.00982508
0.00986905
0.00992172
0.0099834
0.0100544
0.0101355
0.0102279
0.0103321
0.0104484
0.0105765
0.0107153
0.0108623
0.0110174
0.0111823
0.0113559
0.0115382
0.0117288
0.011926
0.0121287
0.0123352
0.012544
0.0127591
0.0129797
0.0132025
0.0134242
0.0136414
0.0138511
0.01405
0.0142352
0.0144036
0.0145525
0.0146794
0.0147823
0.0148596
0.01491
0.014933
0.0149285
0.0148971
0.0148397
0.0147579
0.0146535
0.0145287
0.014386
0.014228
0.0140576
0.0138775
0.0136905
0.0134995
0.0133072
0.0131167
0.0129308
0.0127521
0.0125784
0.0124068
0.0122395
0.0120782
0.0119239
0.011777
0.0116345
0.0114935
0.0113577
0.011233
0.0111217
0.0110241
0.0109393
0.0108655
0.0108019
0.0107477
0.0107021
0.0106643
0.0106337
0.0106099
0.0105924
0.0105809
0.0105755
0.0097215
0.00973167
0.00974601
0.00976662
0.00979402
0.00982862
0.00987086
0.0099212
0.00998016
0.0100485
0.0101268
0.0102151
0.010314
0.0104238
0.0105446
0.0106763
0.0108186
0.0109712
0.0111343
0.0113077
0.0114909
0.0116832
0.011884
0.0120921
0.0123064
0.0125253
0.0127519
0.0129804
0.0132094
0.0134365
0.0136588
0.0138733
0.0140768
0.0142662
0.0144385
0.0145908
0.0147205
0.0148255
0.0149041
0.0149552
0.014978
0.0149726
0.0149396
0.01488
0.0147953
0.0146876
0.0145591
0.0144125
0.0142504
0.0140758
0.0138915
0.0137002
0.0135048
0.0133077
0.0131113
0.0129174
0.012728
0.0125438
0.0123651
0.0121927
0.0120274
0.0118698
0.0117203
0.011579
0.0114464
0.0113233
0.0112106
0.0111088
0.0110178
0.0109373
0.0108672
0.0108065
0.0107544
0.0107101
0.010673
0.0106423
0.0106176
0.0105985
0.0105846
0.0105754
0.0097
0.00970981
0.00972398
0.0097444
0.00977159
0.00980592
0.00984777
0.00989762
0.00995605
0.0100237
0.0101011
0.0101886
0.0102869
0.0103961
0.0105163
0.0106477
0.0107898
0.0109428
0.0111066
0.0112809
0.0114657
0.0116602
0.0118639
0.0120758
0.012295
0.0125214
0.0127494
0.0129823
0.0132165
0.013449
0.0136768
0.0138968
0.0141057
0.0143002
0.014477
0.0146333
0.0147663
0.0148737
0.0149538
0.0150053
0.0150277
0.0150208
0.0149855
0.0149228
0.0148344
0.0147225
0.0145895
0.0144383
0.0142715
0.0140922
0.0139034
0.0137077
0.0135081
0.013307
0.0131068
0.0129099
0.0127173
0.0125303
0.0123493
0.0121752
0.0120089
0.0118508
0.0117013
0.0115603
0.0114277
0.0113045
0.0111915
0.0110894
0.0109983
0.010918
0.0108479
0.010787
0.0107346
0.0106902
0.0106529
0.0106223
0.0105977
0.0105786
0.0105646
0.0105551
0.00966044
0.00967012
0.00968413
0.00970433
0.00973116
0.009765
0.00980627
0.00985544
0.00991306
0.00997972
0.010056
0.0101423
0.0102392
0.0103471
0.0104662
0.0105968
0.0107388
0.0108924
0.0110576
0.0112342
0.011422
0.0116206
0.0118293
0.0120472
0.0122733
0.0125065
0.0127446
0.0129863
0.0132294
0.0134709
0.0137078
0.0139368
0.0141544
0.0143571
0.0145414
0.0147042
0.0148425
0.0149539
0.0150363
0.0150886
0.0151101
0.0151009
0.0150617
0.0149939
0.0148994
0.0147807
0.0146404
0.0144814
0.0143069
0.0141199
0.0139236
0.0137208
0.0135142
0.0133065
0.0130999
0.0128964
0.0126979
0.0125054
0.0123196
0.0121414
0.0119717
0.0118109
0.0116594
0.0115176
0.0113856
0.0112638
0.0111525
0.011052
0.0109621
0.0108825
0.0108127
0.0107521
0.0106999
0.0106556
0.0106183
0.0105876
0.0105629
0.0105435
0.0105292
0.0105195
0.00960345
0.00961299
0.00962677
0.00964663
0.009673
0.00970627
0.00974686
0.00979527
0.00985205
0.00991779
0.00999309
0.0100785
0.0101746
0.0102818
0.0104006
0.0105313
0.0106741
0.0108292
0.0109967
0.0111765
0.0113685
0.0115723
0.0117873
0.0120126
0.0122472
0.0124897
0.0127383
0.0129912
0.0132459
0.0134994
0.0137486
0.0139897
0.0142192
0.0144332
0.0146278
0.0147996
0.0149453
0.0150621
0.0151478
0.0152011
0.0152213
0.0152085
0.0151638
0.0150888
0.0149857
0.0148573
0.0147067
0.0145371
0.014352
0.0141546
0.0139482
0.0137358
0.0135203
0.0133042
0.0130897
0.012879
0.0126737
0.0124751
0.012284
0.0121013
0.0119278
0.011764
0.0116103
0.011467
0.0113343
0.0112123
0.0111011
0.0110008
0.0109112
0.0108318
0.0107621
0.0107016
0.0106495
0.0106052
0.0105679
0.0105371
0.0105123
0.0104928
0.0104784
0.0104687
0.0095293
0.00953864
0.00955212
0.00957155
0.00959737
0.00962996
0.00966979
0.00971736
0.00977327
0.00983813
0.00991259
0.00999728
0.0100928
0.0101998
0.0103188
0.0104501
0.0105943
0.0107516
0.0109221
0.0111061
0.0113032
0.0115133
0.0117359
0.01197
0.0122147
0.0124685
0.0127298
0.0129963
0.0132655
0.0135341
0.0137988
0.0140557
0.0143005
0.0145292
0.0147374
0.014921
0.0150764
0.0152003
0.0152903
0.0153448
0.0153631
0.0153455
0.0152933
0.0152085
0.0150938
0.0149525
0.0147881
0.0146046
0.0144055
0.0141946
0.0139754
0.013751
0.0135243
0.013298
0.0130742
0.0128549
0.0126422
0.0124367
0.0122397
0.0120519
0.011874
0.0117067
0.0115502
0.0114048
0.0112707
0.0111477
0.0110361
0.0109355
0.0108456
0.0107661
0.0106963
0.0106357
0.0105836
0.0105392
0.0105019
0.0104711
0.0104462
0.0104267
0.0104123
0.0104026
0.00943823
0.00944734
0.00946045
0.00947937
0.00950455
0.00953638
0.00957536
0.00962202
0.00967701
0.00974098
0.00981465
0.00989873
0.00999392
0.0101009
0.0102204
0.0103528
0.0104989
0.0106588
0.0108331
0.0110219
0.011225
0.0114425
0.0116738
0.0119181
0.0121745
0.0124416
0.0127177
0.0130004
0.013287
0.0135741
0.013858
0.0141343
0.0143986
0.0146459
0.0148714
0.0150702
0.0152381
0.0153712
0.0154667
0.0155227
0.0155385
0.0155144
0.0154522
0.0153544
0.0152244
0.0150662
0.0148841
0.0146825
0.0144658
0.014238
0.0140029
0.0137638
0.0135239
0.0132856
0.013051
0.0128216
0.0126011
0.0123883
0.0121848
0.0119914
0.0118089
0.0116376
0.011478
0.0113301
0.011194
0.0110697
0.010957
0.0108557
0.0107653
0.0106854
0.0106154
0.0105546
0.0105024
0.0104579
0.0104206
0.0103898
0.0103649
0.0103454
0.010331
0.0103214
0.00933059
0.00933941
0.00935211
0.00937045
0.00939489
0.00942587
0.0094639
0.00950957
0.00956357
0.00962662
0.0096995
0.009783
0.00987793
0.00998509
0.0101052
0.0102391
0.0103872
0.0105503
0.0107287
0.0109228
0.0111327
0.0113583
0.0115993
0.0118551
0.0121248
0.0124069
0.0127
0.0130016
0.0133088
0.013618
0.0139252
0.0142255
0.0145138
0.0147844
0.0150317
0.01525
0.015434
0.015579
0.0156817
0.0157396
0.015752
0.0157195
0.0156442
0.0155294
0.0153795
0.0151995
0.0149946
0.0147701
0.0145312
0.0142825
0.014028
0.0137715
0.0135158
0.0132638
0.0130176
0.0127795
0.0125482
0.0123272
0.012117
0.0119179
0.0117305
0.0115553
0.0113923
0.0112417
0.0111035
0.0109775
0.0108636
0.0107614
0.0106703
0.0105899
0.0105196
0.0104585
0.0104061
0.0103616
0.0103243
0.0102935
0.0102686
0.0102492
0.0102349
0.0102254
0.00920676
0.00921527
0.00922749
0.00924517
0.00926879
0.00929882
0.00933579
0.00938037
0.00943328
0.00949532
0.00956734
0.00965024
0.0097449
0.00985223
0.00997312
0.0101084
0.0102588
0.0104252
0.010608
0.0108077
0.0110247
0.011259
0.0115106
0.0117789
0.0120633
0.0123627
0.0126746
0.0129979
0.0133291
0.0136645
0.0139995
0.014329
0.0146468
0.0149467
0.0152215
0.0154646
0.0156693
0.0158299
0.015942
0.0160026
0.0160108
0.0159674
0.0158752
0.0157384
0.0155628
0.0153546
0.0151205
0.0148672
0.0146005
0.014326
0.0140481
0.0137707
0.0134969
0.0132291
0.0129694
0.0127193
0.0124792
0.0122504
0.0120335
0.0118289
0.011637
0.0114578
0.0112917
0.0111385
0.0109982
0.0108706
0.0107555
0.0106523
0.0105605
0.0104796
0.0104089
0.0103476
0.0102951
0.0102505
0.0102132
0.0101825
0.0101577
0.0101385
0.0101243
0.010115
0.00906722
0.00907537
0.00908706
0.00910401
0.00912671
0.00915566
0.00919146
0.00923481
0.0092865
0.00934739
0.00941843
0.00950058
0.00959485
0.00970225
0.00982377
0.00996038
0.010113
0.0102825
0.0104697
0.0106752
0.0108994
0.0111428
0.0114054
0.0116871
0.0119872
0.0123048
0.0126383
0.0129863
0.0133454
0.0137115
0.0140798
0.0144446
0.0147989
0.0151351
0.0154449
0.0157198
0.0159515
0.0161327
0.0162576
0.0163223
0.0163255
0.0162684
0.0161544
0.0159893
0.0157804
0.015536
0.0152646
0.0149744
0.0146731
0.0143667
0.0140605
0.0137584
0.0134635
0.0131779
0.0129033
0.012641
0.0123914
0.0121548
0.0119317
0.011722
0.011526
0.0113435
0.0111747
0.0110193
0.0108773
0.0107483
0.0106321
0.0105281
0.0104357
0.0103544
0.0102834
0.010222
0.0101695
0.010125
0.0100877
0.0100572
0.0100326
0.0100135
0.00999949
0.00999035
0.00891249
0.00892023
0.00893133
0.00894746
0.00896914
0.0089969
0.00903138
0.00907334
0.00912363
0.00918319
0.00925303
0.00933422
0.00942785
0.00953505
0.00965692
0.00979458
0.0099491
0.0101215
0.0103127
0.0105236
0.010755
0.0110074
0.0112813
0.0115768
0.0118936
0.0122309
0.0125876
0.0129638
0.0133548
0.0137568
0.0141648
0.0145723
0.0149716
0.0153534
0.0157077
0.0160237
0.0162909
0.0164996
0.0166421
0.0167132
0.016711
0.0166368
0.0164952
0.0162937
0.016042
0.0157509
0.0154316
0.0150946
0.0147494
0.0144035
0.0140628
0.0137314
0.0134119
0.0131063
0.0128157
0.0125409
0.0122814
0.0120373
0.0118085
0.0115946
0.0113953
0.0112104
0.0110397
0.0108828
0.0107397
0.0106098
0.0104929
0.0103885
0.0102959
0.0102144
0.0101434
0.010082
0.0100296
0.00998524
0.00994824
0.00991789
0.00989355
0.0098747
0.00986095
0.00985203
0.00874316
0.00875047
0.00876091
0.00877613
0.00879667
0.00882309
0.00885609
0.00889646
0.00894512
0.00900309
0.00907145
0.00915135
0.00924398
0.00935056
0.00947233
0.00961053
0.00976636
0.00994104
0.0101357
0.0103515
0.0105894
0.0108505
0.0111354
0.0114449
0.011779
0.0121374
0.0125176
0.0129266
0.0133539
0.0137975
0.0142525
0.0147119
0.0151667
0.015606
0.0160172
0.0163868
0.0167009
0.0169468
0.0171139
0.017195
0.0171873
0.0170922
0.0169158
0.0166681
0.0163615
0.0160105
0.0156296
0.0152327
0.0148318
0.0144363
0.0140531
0.0136864
0.0133385
0.0130105
0.0127032
0.0124149
0.0121457
0.0118947
0.0116611
0.011444
0.0112427
0.0110566
0.010885
0.0107278
0.0105844
0.0104545
0.0103376
0.0102332
0.0101408
0.0100596
0.00998883
0.0099278
0.0098757
0.00983171
0.00979508
0.00976509
0.0097411
0.00972258
0.00970912
0.00970046
0.00855991
0.00856673
0.00857646
0.00859068
0.00860995
0.00863487
0.00866618
0.00870473
0.0087515
0.00880756
0.00887407
0.00895225
0.00904338
0.00914878
0.00926979
0.00940778
0.00956411
0.00974017
0.00993734
0.010157
0.0104005
0.0106693
0.0109646
0.0112877
0.0116397
0.0120217
0.0124357
0.0128721
0.0133386
0.0138299
0.0143404
0.0148626
0.015386
0.0158977
0.016382
0.0168216
0.0171982
0.0174946
0.0176961
0.0177926
0.0177799
0.0176597
0.0174399
0.0171335
0.0167571
0.0163297
0.0158702
0.0153968
0.014925
0.0144669
0.0140308
0.0136213
0.0132397
0.0128857
0.0125603
0.0122591
0.0119807
0.0117237
0.0114866
0.0112677
0.0110659
0.01088
0.0107092
0.0105529
0.0104105
0.0102815
0.0101656
0.0100621
0.00997044
0.00988997
0.00981995
0.00975961
0.00970814
0.00966477
0.0096287
0.00959923
0.00957571
0.00955761
0.00954452
0.00953616
0.00836348
0.00836976
0.0083787
0.00839181
0.00840968
0.00843292
0.00846233
0.0084988
0.00854334
0.00859711
0.00866131
0.00873723
0.00882624
0.00892973
0.00904914
0.00918596
0.0093417
0.00951791
0.00971622
0.0099383
0.0101859
0.0104609
0.0107652
0.0111008
0.0114697
0.0118738
0.0123142
0.0127897
0.0133019
0.0138484
0.0144246
0.0150225
0.0156306
0.0162335
0.0168118
0.0173429
0.0178026
0.0181673
0.0184165
0.0185361
0.0185196
0.0183693
0.0180954
0.0177152
0.0172508
0.0167269
0.0161683
0.0155981
0.0150366
0.0144994
0.013997
0.0135346
0.0131127
0.0127271
0.0123841
0.0120697
0.0117829
0.0115212
0.0112821
0.0110633
0.0108629
0.0106792
0.0105109
0.0103571
0.0102171
0.0100904
0.00997649
0.0098748
0.00978475
0.0097057
0.00963695
0.00957774
0.0095273
0.00948483
0.00944958
0.00942082
0.00939793
0.00938035
0.0093677
0.00935968
0.00815467
0.00816038
0.00816845
0.00818034
0.00819665
0.00821803
0.00824528
0.00827936
0.00832132
0.00837234
0.0084337
0.00850673
0.00859286
0.00869355
0.00881033
0.00894478
0.00909854
0.00927334
0.00947105
0.00969364
0.0099433
0.0102224
0.0105337
0.0108799
0.0112643
0.0116898
0.0121594
0.0126748
0.0132368
0.0138462
0.014499
0.0151877
0.0158998
0.0166171
0.0173156
0.017966
0.0185359
0.0189926
0.0193076
0.0194602
0.0194414
0.0192541
0.0189125
0.0184397
0.0178652
0.0172211
0.0165394
0.0158493
0.0151762
0.0145403
0.0139551
0.0134274
0.0129581
0.0125462
0.0121732
0.0118433
0.0115486
0.0112839
0.011045
0.0108285
0.0106317
0.0104523
0.0102886
0.0101393
0.0100035
0.00988062
0.00977004
0.00967127
0.00958377
0.00950693
0.00944011
0.00938257
0.00933358
0.00929238
0.00925823
0.00923042
0.00920832
0.00919141
0.00917928
0.00917165
0.00793437
0.00793947
0.00794659
0.00795715
0.00797173
0.00799102
0.00801586
0.00804721
0.00808617
0.00813395
0.00819185
0.00826127
0.00834365
0.0084405
0.00855343
0.00868407
0.0088342
0.0090057
0.00920064
0.00942134
0.00967042
0.00995088
0.0102662
0.0106204
0.0110178
0.0114633
0.0119617
0.0125176
0.0131339
0.0138133
0.0145543
0.0153505
0.0161889
0.0170487
0.0179002
0.0187056
0.0194209
0.0200008
0.0204047
0.020603
0.0205825
0.0203482
0.0199199
0.01933
0.0186182
0.0178263
0.0169949
0.0161598
0.0153521
0.0145964
0.0139096
0.0133008
0.01277
0.012315
0.0119191
0.0115753
0.0112744
0.0110088
0.0107727
0.0105613
0.0103708
0.0101984
0.0100416
0.00989892
0.00976926
0.00965184
0.00954609
0.00945152
0.00936764
0.00929391
0.00922976
0.00917451
0.00912749
0.00908797
0.00905524
0.00902863
0.00900753
0.00899142
0.00897991
0.00897272
0.00770354
0.00770798
0.00771408
0.00772317
0.00773586
0.00775284
0.00777497
0.00780322
0.00783873
0.00788272
0.0079365
0.00800149
0.00807914
0.008171
0.00827868
0.00840389
0.00854847
0.00871444
0.00890406
0.00911996
0.0093652
0.00964345
0.00995908
0.0103173
0.0107242
0.0111865
0.0117119
0.0123079
0.0129816
0.0137363
0.0145766
0.0154976
0.0164871
0.0175221
0.0185669
0.0195723
0.020479
0.0212231
0.0217461
0.0220053
0.0219813
0.0216833
0.0211408
0.0204005
0.0195164
0.0185437
0.0175335
0.0165283
0.015564
0.0146692
0.0138636
0.0131592
0.0125589
0.0120496
0.0116231
0.0112637
0.0109576
0.0106937
0.0104633
0.0102601
0.010079
0.00991625
0.00976907
0.00963544
0.00951403
0.00940397
0.00930468
0.0092157
0.00913662
0.00906701
0.00900635
0.00895408
0.00890958
0.00887219
0.00884126
0.00881613
0.00879624
0.00878109
0.0087703
0.0087636
0.0074632
0.00746693
0.00747193
0.00747943
0.00749005
0.00750448
0.00752359
0.00754838
0.00757996
0.00761956
0.0076685
0.00772817
0.00780004
0.00788563
0.00798654
0.00810451
0.00824141
0.00839933
0.0085807
0.00878841
0.00902596
0.00929764
0.0096088
0.00996596
0.010377
0.0108513
0.0113993
0.0120324
0.012762
0.0135965
0.014545
0.0156071
0.0167735
0.0180209
0.0193073
0.0205702
0.0217287
0.0226917
0.0233737
0.0237125
0.0236785
0.0232899
0.0225909
0.0216524
0.0205495
0.019355
0.0181334
0.0169339
0.015795
0.0147473
0.0138106
0.0129984
0.0123127
0.0117464
0.0112846
0.0109078
0.0105971
0.010337
0.0101155
0.00992377
0.00975541
0.00960557
0.00947083
0.00934879
0.00923791
0.0091372
0.00904608
0.00896418
0.00889117
0.00882672
0.00877044
0.00872188
0.0086805
0.00864573
0.00861698
0.00859365
0.0085752
0.00856117
0.00855121
0.00854505
0.00721443
0.00721741
0.00722123
0.00722701
0.00723538
0.00724703
0.00726281
0.00728373
0.00731089
0.00734549
0.00738884
0.00744229
0.00750725
0.00758522
0.00767775
0.00778654
0.00791343
0.00806055
0.00823042
0.00842612
0.00865151
0.00891151
0.00921234
0.00956192
0.00997007
0.0104487
0.0110119
0.0116755
0.0124565
0.013372
0.0144306
0.0156451
0.0170127
0.0185121
0.0200973
0.0216908
0.0231823
0.0244402
0.0253364
0.0257777
0.0257248
0.0252017
0.0242825
0.0230763
0.0216905
0.0202209
0.0187495
0.0173319
0.0160051
0.014799
0.0137293
0.0128064
0.0120329
0.0114042
0.0109035
0.0105076
0.0101927
0.00993848
0.00972888
0.00955221
0.00940004
0.00926639
0.00914708
0.00903931
0.00894129
0.00885198
0.00877082
0.00869752
0.00863187
0.00857368
0.00852271
0.00847861
0.00844098
0.00840934
0.00838317
0.00836195
0.00834519
0.00833246
0.00832344
0.00831787
0.00695836
0.00696057