/*--------------------------------*- C++ -*----------------------------------*\
| =========                 |                                                 |
| \\      /  F ield         | OpenFOAM: The Open Source CFD Toolbox           |
|  \\    /   O peration     | Version:  2412                                  |
|   \\  /    A nd           | Website:  www.openfoam.com                      |
|    \\/     M anipulation  |                                                 |
\*---------------------------------------------------------------------------*/
FoamFile
{
    version     2.0;
    format      ascii;
    arch        "LSB;label=32;scalar=64";
    class       surfaceScalarField;
    location    "2.6";
    object      phi;
}
// * * * * * * * * * * * * * * * * * * * * * * * * * * * * * * * * * * * * * //

dimensions      [0 3 -1 0 0 0 0];

oriented        oriented;

internalField   nonuniform List<scalar> 
12640
(
7.87928e-14
-7.51072e-14
3.77265e-13
3.0475e-13
3.42415e-13
5.86179e-13
1.45639e-13
7.13535e-13
-1.22956e-13
7.78638e-13
-4.36792e-13
8.23967e-13
-7.88906e-13
8.63478e-13
-1.17235e-12
8.97121e-13
-1.57811e-12
9.22274e-13
-1.99411e-12
9.3613e-13
-2.41183e-12
9.41629e-13
-2.82084e-12
9.37173e-13
-3.21564e-12
9.27083e-13
-3.58824e-12
9.09095e-13
-3.93481e-12
8.86782e-13
-4.25039e-12
8.59244e-13
-4.53395e-12
8.29931e-13
-4.78203e-12
7.96729e-13
-4.99455e-12
7.62746e-13
-5.16827e-12
7.25191e-13
-5.30282e-12
6.86787e-13
-5.39646e-12
6.46607e-13
-5.4498e-12
6.06895e-13
-5.4608e-12
5.65375e-13
-5.42984e-12
5.24379e-13
-5.35571e-12
4.82602e-13
-5.23914e-12
4.41872e-13
-5.07947e-12
4.00952e-13
-4.87809e-12
3.61747e-13
-4.6356e-12
3.23546e-13
-4.35429e-12
2.87849e-13
-4.03581e-12
2.53984e-13
-3.6831e-12
2.23086e-13
-3.29864e-12
1.94612e-13
-2.88577e-12
1.69267e-13
-2.44753e-12
1.4667e-13
-1.98779e-12
1.27495e-13
-1.5106e-12
1.11874e-13
-1.02066e-12
1.00358e-13
-5.22848e-13
9.30479e-14
-2.19524e-14
8.98634e-14
4.77186e-13
9.07908e-14
9.70187e-13
9.5422e-14
1.45236e-12
1.04043e-13
1.91957e-12
1.16205e-13
2.367e-12
1.32598e-13
2.79074e-12
1.5248e-13
3.18616e-12
1.7654e-13
3.55034e-12
2.03354e-13
3.87954e-12
2.3366e-13
4.17203e-12
2.6579e-13
4.42457e-12
3.01119e-13
4.63616e-12
3.3779e-13
4.80408e-12
3.77318e-13
4.92863e-12
4.17071e-13
5.00803e-12
4.58825e-13
5.04352e-12
4.99979e-13
5.03329e-12
5.43119e-13
4.97906e-12
5.85115e-13
4.87998e-12
6.28005e-13
4.73959e-12
6.67745e-13
4.55791e-12
7.07211e-13
4.33831e-12
7.43481e-13
4.07994e-12
7.80017e-13
3.78696e-12
8.12308e-13
3.46127e-12
8.41891e-13
3.11005e-12
8.64105e-13
2.73649e-12
8.8228e-13
2.34782e-12
8.93125e-13
1.94896e-12
8.98408e-13
1.55098e-12
8.92768e-13
1.16328e-12
8.77416e-13
7.9825e-13
8.50152e-13
4.62589e-13
8.16274e-13
1.61649e-13
7.779e-13
-9.96523e-14
7.35353e-13
-3.01012e-13
6.73984e-13
-3.95406e-13
5.67419e-13
-2.96059e-13
3.76168e-13
1.5114e-13
1.90846e-13
2.85561e-13
3.78256e-13
1.2196e-12
7.46259e-14
1.91269e-12
-5.15665e-13
2.28805e-12
-1.26409e-12
2.50584e-12
-2.1272e-12
2.66709e-12
-3.08335e-12
2.80366e-12
-4.11655e-12
2.91926e-12
-5.20438e-12
3.00567e-12
-6.32427e-12
3.05841e-12
-7.44782e-12
3.07546e-12
-8.55388e-12
3.06095e-12
-9.61933e-12
3.01814e-12
-1.06317e-11
2.95381e-12
-1.15721e-11
2.86619e-12
-1.24316e-11
2.76267e-12
-1.31981e-11
2.64504e-12
-1.38672e-11
2.51747e-12
-1.44304e-11
2.3803e-12
-1.48857e-11
2.23641e-12
-1.52257e-11
2.08463e-12
-1.54504e-11
1.93038e-12
-1.5556e-11
1.77346e-12
-1.55436e-11
1.61595e-12
-1.54103e-11
1.45683e-12
-1.51581e-11
1.29958e-12
-1.47866e-11
1.14383e-12
-1.42996e-11
9.92279e-13
-1.36989e-11
8.44827e-13
-1.29899e-11
7.04255e-13
-1.21766e-11
5.7063e-13
-1.12665e-11
4.46087e-13
-1.02655e-11
3.30546e-13
-9.18224e-12
2.25443e-13
-8.02427e-12
1.30593e-13
-6.80121e-12
4.72116e-14
-5.5226e-12
-2.41588e-14
-4.19955e-12
-8.20308e-14
-2.84348e-12
-1.25596e-13
-1.46638e-12
-1.5428e-13
-8.03741e-14
-1.68057e-13
1.30289e-12
-1.67387e-13
2.67136e-12
-1.52251e-13
4.01396e-12
-1.23195e-13
5.31842e-12
-7.94078e-14
6.57389e-12
-2.13732e-14
7.76804e-12
5.17225e-14
8.89124e-12
1.38225e-13
9.93233e-12
2.38262e-13
1.08839e-11
3.49292e-13
1.17361e-11
4.71991e-13
1.24835e-11
6.03968e-13
1.31173e-11
7.46202e-13
1.36348e-11
8.95062e-13
1.40297e-11
1.05091e-12
1.4302e-11
1.2098e-12
1.44467e-11
1.37346e-12
1.44655e-11
1.53833e-12
1.43553e-11
1.70537e-12
1.41215e-11
1.86858e-12
1.3764e-11
2.02824e-12
1.32906e-11
2.18003e-12
1.27021e-11
2.32695e-12
1.2008e-11
2.46442e-12
1.12131e-11
2.59146e-12
1.03326e-11
2.7002e-12
9.37614e-12
2.79052e-12
8.3619e-12
2.85856e-12
7.30322e-12
2.90456e-12
6.22464e-12
2.92112e-12
5.14751e-12
2.90461e-12
4.10085e-12
2.8507e-12
3.10592e-12
2.76347e-12
2.18471e-12
2.64951e-12
1.35073e-12
2.51799e-12
6.24444e-13
2.36433e-12
4.19169e-14
2.15772e-12
-2.99829e-13
1.81515e-12
-2.25376e-13
1.19634e-12
3.36025e-13
1.56941e-13
6.66033e-13
9.82165e-14
2.31925e-12
-5.36258e-13
3.51212e-12
-1.51582e-12
4.19853e-12
-2.70302e-12
4.61854e-12
-4.04787e-12
4.93905e-12
-5.52618e-12
5.21239e-12
-7.10898e-12
5.43779e-12
-8.769e-12
5.60733e-12
-1.04715e-11
5.7097e-12
-1.21809e-11
5.7409e-12
-1.38614e-11
5.70521e-12
-1.54826e-11
5.61013e-12
-1.7018e-11
5.46686e-12
-1.84485e-11
5.28006e-12
-1.97529e-11
5.0555e-12
-2.09179e-11
4.80209e-12
-2.19281e-11
4.52268e-12
-2.27766e-11
4.2255e-12
-2.34536e-11
3.91171e-12
-2.39558e-11
3.58588e-12
-2.42752e-11
3.24996e-12
-2.44112e-11
2.91068e-12
-2.43603e-11
2.56788e-12
-2.41244e-11
2.22604e-12
-2.37028e-11
1.88593e-12
-2.30998e-11
1.55247e-12
-2.23177e-11
1.22624e-12
-2.13636e-11
9.117e-13
-2.02428e-11
6.09971e-13
-1.89651e-11
3.25088e-13
-1.75387e-11
5.78305e-14
-1.59755e-11
-1.88844e-13
-1.42863e-11
-4.14461e-13
-1.24849e-11
-6.16737e-13
-1.05848e-11
-7.94755e-13
-8.60163e-12
-9.45984e-13
-6.55152e-12
-1.06873e-12
-4.45176e-12
-1.16105e-12
-2.31996e-12
-1.22208e-12
-1.73818e-13
-1.25182e-12
1.9687e-12
-1.25038e-12
4.09041e-12
-1.21851e-12
6.17308e-12
-1.1556e-12
8.19979e-12
-1.06203e-12
1.0152e-11
-9.36506e-13
1.20137e-11
-7.8053e-13
1.37672e-11
-5.94028e-13
1.5399e-11
-3.80496e-13
1.6893e-11
-1.40178e-13
1.82382e-11
1.23266e-13
1.94205e-11
4.10312e-13
2.0432e-11
7.16137e-13
2.1262e-11
1.03995e-12
2.19068e-11
1.37528e-12
2.23586e-11
1.72219e-12
2.26166e-11
2.07543e-12
2.26754e-11
2.43573e-12
2.25387e-11
2.79531e-12
2.22056e-11
3.15199e-12
2.16842e-11
3.49726e-12
2.09766e-11
3.83191e-12
2.00945e-11
4.15012e-12
1.90446e-11
4.45075e-12
1.78447e-11
4.7228e-12
1.65084e-11
4.9616e-12
1.50587e-11
5.15859e-12
1.35153e-11
5.31205e-12
1.19088e-11
5.41311e-12
1.0268e-11
5.45476e-12
8.63068e-12
5.42655e-12
7.03092e-12
5.32626e-12
5.50412e-12
5.15879e-12
4.07823e-12
4.93695e-12
2.78073e-12
4.67242e-12
1.63448e-12
4.36407e-12
6.84414e-13
3.96137e-12
5.20474e-14
3.30587e-12
-9.03974e-14
2.18108e-12
6.24081e-13
6.72345e-14
1.10781e-12
-2.25812e-13
3.60242e-12
-1.17477e-12
5.38094e-12
-2.51704e-12
6.42751e-12
-4.1056e-12
7.08886e-12
-5.88122e-12
7.59719e-12
-7.81467e-12
8.03204e-12
-9.87445e-12
8.38827e-12
-1.20208e-11
8.65062e-12
-1.42132e-11
8.8055e-12
-1.64074e-11
8.84583e-12
-1.85633e-11
8.77882e-12
-2.06404e-11
8.61211e-12
-2.26065e-11
8.36381e-12
-2.44336e-11
8.04354e-12
-2.61015e-11
7.66399e-12
-2.75876e-11
7.23205e-12
-2.88773e-11
6.75835e-12
-2.99545e-11
6.25009e-12
-3.08124e-11
5.71753e-12
-3.14407e-11
5.16265e-12
-3.18357e-11
4.5937e-12
-3.19899e-11
4.01434e-12
-3.19042e-11
3.43254e-12
-3.15762e-11
2.85018e-12
-3.10101e-11
2.27438e-12
-3.02071e-11
1.70723e-12
-2.91747e-11
1.1554e-12
-2.79181e-11
6.21254e-13
-2.64481e-11
1.11145e-13
-2.47737e-11
-3.72715e-13
-2.29086e-11
-8.25175e-13
-2.08654e-11
-1.24452e-12
-1.86606e-11
-1.62666e-12
-1.63102e-11
-1.96994e-12
-1.38333e-11
-2.27056e-12
-1.12493e-11
-2.52597e-12
-8.57958e-12
-2.73249e-12
-5.84594e-12
-2.88789e-12
-3.07091e-12
-2.9907e-12
-2.77338e-13
-3.04057e-12
2.51241e-12
-3.03812e-12
5.27499e-12
-2.98305e-12
7.98818e-12
-2.87582e-12
1.0628e-11
-2.71488e-12
1.3173e-11
-2.50123e-12
1.55996e-11
-2.23434e-12
1.78887e-11
-1.91804e-12
2.00187e-11
-1.55339e-12
2.19732e-11
-1.1455e-12
2.37327e-11
-6.94845e-13
2.52846e-11
-2.07349e-13
2.66129e-11
3.15312e-13
2.77101e-11
8.64315e-13
2.85644e-11
1.43725e-12
2.91728e-11
2.02596e-12
2.95264e-11
2.6302e-12
2.96267e-11
3.24103e-12
2.94702e-11
3.85495e-12
2.90641e-11
4.45923e-12
2.84096e-11
5.0505e-12
2.75188e-11
5.61939e-12
2.63981e-11
6.16428e-12
2.50662e-11
6.67279e-12
2.35368e-11
7.13737e-12
2.18347e-11
7.54354e-12
1.99816e-11
7.88468e-12
1.80109e-11
8.14855e-12
1.59549e-11
8.32652e-12
1.38545e-11
8.40456e-12
1.17494e-11
8.37211e-12
9.6854e-12
8.22305e-12
7.70342e-12
7.96554e-12
5.84288e-12
7.6163e-12
4.13599e-12
7.19273e-12
2.6089e-12
6.70218e-12
1.32127e-12
6.05921e-12
3.95186e-13
5.04776e-12
2.06449e-14
3.35677e-12
1.00773e-12
-1.6841e-14
1.61824e-12
-5.18627e-13
5.05906e-12
-1.74588e-12
7.4948e-12
-3.41622e-12
8.95291e-12
-5.36952e-12
9.89147e-12
-7.53625e-12
1.06145e-11
-9.87557e-12
1.12247e-11
-1.23537e-11
1.17248e-11
-1.49245e-11
1.20853e-11
-1.75367e-11
1.22885e-11
-2.01431e-11
1.23296e-11
-2.26951e-11
1.22153e-11
-2.51536e-11
1.19614e-11
-2.74763e-11
1.15833e-11
-2.9634e-11
1.11028e-11
-3.15982e-11
1.05337e-11
-3.3349e-11
9.89084e-12
-3.48643e-11
9.18345e-12
-3.61309e-11
8.42705e-12
-3.7133e-11
7.63034e-12
-3.78649e-11
6.8049e-12
-3.83162e-11
5.95543e-12
-3.84848e-11
5.09327e-12
-3.83647e-11
4.22347e-12
-3.79588e-11
3.35636e-12
-3.72661e-11
2.49591e-12
-3.62936e-11
1.65157e-12
-3.50452e-11
8.27327e-13
-3.35316e-11
3.21437e-14
-3.17612e-11
-7.30003e-13
-2.97485e-11
-1.45119e-12
-2.75064e-11
-2.1279e-12
-2.50529e-11
-2.75354e-12
-2.24053e-11
-3.32504e-12
-1.95848e-11
-3.83682e-12
-1.66127e-11
-4.28534e-12
-1.35137e-11
-4.66502e-12
-1.03123e-11
-4.97199e-12
-7.03512e-12
-5.20255e-12
-3.70871e-12
-5.355e-12
-3.59834e-13
-5.42898e-12
2.9839e-12
-5.42418e-12
6.29567e-12
-5.34107e-12
9.54684e-12
-5.17817e-12
1.27108e-11
-4.93593e-12
1.57591e-11
-4.61315e-12
1.86672e-11
-4.21324e-12
2.14085e-11
-3.73758e-12
2.39617e-11
-3.1925e-12
2.63024e-11
-2.57973e-12
2.84131e-11
-1.90641e-12
3.0273e-11
-1.17489e-12
3.18701e-11
-3.95638e-13
3.31884e-11
4.26617e-13
3.42217e-11
1.28004e-12
3.4958e-11
2.16199e-12
3.53957e-11
3.06182e-12
3.55281e-11
3.97562e-12
3.53604e-11
4.88789e-12
3.4892e-11
5.79126e-12
3.41339e-11
6.67084e-12
3.3091e-11
7.52246e-12
3.17811e-11
8.33217e-12
3.02169e-11
9.09159e-12
2.84227e-11
9.78216e-12
2.64189e-11
1.03924e-11
2.42386e-11
1.09042e-11
2.19137e-11
1.1305e-11
1.94866e-11
1.15778e-11
1.69985e-11
1.17082e-11
1.44983e-11
1.16801e-11
1.20345e-11
1.14861e-11
9.65821e-12
1.11344e-11
7.4151e-12
1.06452e-11
5.33908e-12
1.00506e-11
3.4711e-12
9.3492e-12
1.87559e-12
8.43469e-12
6.81882e-13
7.02624e-12
1.08697e-13
4.70269e-12
1.46244e-12
-8.63321e-14
2.18268e-12
-7.68174e-13
6.6559e-12
-2.24065e-12
9.81718e-12
-4.20433e-12
1.17352e-11
-6.49022e-12
1.29909e-11
-9.0126e-12
1.39507e-11
-1.17215e-11
1.47509e-11
-1.45729e-11
1.53975e-11
-1.75173e-11
1.58569e-11
-2.04978e-11
1.61021e-11
-2.34595e-11
1.61314e-11
-2.63514e-11
1.59536e-11
-2.91281e-11
1.55909e-11
-3.17512e-11
1.50643e-11
-3.41828e-11
1.43969e-11
-3.63954e-11
1.36119e-11
-3.83611e-11
1.27245e-11
-4.00629e-11
1.1754e-11
-4.14802e-11
1.07136e-11
-4.26021e-11
9.6209e-12
-4.34141e-11
8.48515e-12
-4.39118e-11
7.32059e-12
-4.40858e-11
6.13439e-12
-4.39358e-11
4.94064e-12
-4.34579e-11
3.74639e-12
-4.26573e-11
2.56463e-12
-4.15355e-11
1.40144e-12
-4.01022e-11
2.68761e-13
-3.83644e-11
-8.27387e-13
-3.63359e-11
-1.87591e-12
-3.4029e-11
-2.87105e-12
-3.1462e-11
-3.80307e-12
-2.86522e-11
-4.66687e-12
-2.56219e-11
-5.45429e-12
-2.23935e-11
-6.16036e-12
-1.89931e-11
-6.77738e-12
-1.54475e-11
-7.29973e-12
-1.17861e-11
-7.721e-12
-8.03816e-12
-8.03738e-12
-4.2342e-12
-8.24643e-12
-4.05224e-13
-8.34704e-12
3.41793e-12
-8.33919e-12
7.20272e-12
-8.2215e-12
1.09181e-11
-7.99399e-12
1.45309e-11
-7.65481e-12
1.80118e-11
-7.20644e-12
2.13293e-11
-6.64992e-12
2.44575e-11
-5.99217e-12
2.73676e-11
-5.23618e-12
3.00376e-11
-4.39055e-12
3.24419e-11
-3.45839e-12
3.45641e-11
-2.45111e-12
3.63837e-11
-1.37492e-12
3.78907e-11
-2.45057e-13
3.90696e-11
9.32398e-13
3.9916e-11
2.14365e-12
4.04194e-11
3.384e-12
4.05825e-11
4.63641e-12
4.04017e-11
5.89112e-12
3.98869e-11
7.12775e-12
3.90404e-11
8.33778e-12
3.78784e-11
9.5038e-12
3.6411e-11
1.06168e-11
3.46614e-11
1.16559e-11
3.26475e-11
1.26067e-11
3.04002e-11
1.34458e-11
2.79484e-11
1.41559e-11
2.53323e-11
1.47146e-11
2.25912e-11
1.51044e-11
1.97746e-11
1.53029e-11
1.69329e-11
1.52914e-11
1.41212e-11
1.50601e-11
1.13964e-11
1.46137e-11
8.80731e-12
1.39833e-11
6.39824e-12
1.32035e-11
4.21982e-12
1.22699e-11
2.34592e-12
1.10513e-11
9.1888e-13
9.20231e-12
1.82304e-13
6.17617e-12
1.97118e-12
-1.43458e-13
2.78432e-12
-9.85053e-13
8.36685e-12
-2.67494e-12
1.2313e-11
-4.90697e-12
1.47438e-11
-7.49555e-12
1.63501e-11
-1.03455e-11
1.75722e-11
-1.3394e-11
1.85733e-11
-1.65854e-11
1.93674e-11
-1.98633e-11
1.99183e-11
-2.31673e-11
2.01959e-11
-2.6439e-11
2.01989e-11
-2.96231e-11
1.99398e-11
-3.2672e-11
1.94474e-11
-3.55439e-11
1.87488e-11
-3.82047e-11
1.7874e-11
-4.06195e-11
1.68459e-11
-4.27644e-11
1.56898e-11
-4.46147e-11
1.44255e-11
-4.61563e-11
1.30761e-11
-4.73707e-11
1.16553e-11
-4.82491e-11
1.01823e-11
-4.87783e-11
8.66755e-12
-4.89555e-11
7.1283e-12
-4.87729e-11
5.57447e-12
-4.82331e-11
4.02312e-12
-4.73342e-11
2.48332e-12
-4.60841e-11
9.70547e-13
-4.44868e-11
-5.06808e-13
-4.25552e-11
-1.93416e-12
-4.02993e-11
-3.30321e-12
-3.77372e-11
-4.60062e-12
-3.48847e-11
-5.81871e-12
-3.17646e-11
-6.94595e-12
-2.83986e-11
-7.97528e-12
-2.4814e-11
-8.89633e-12
-2.10382e-11
-9.70158e-12
-1.71023e-11
-1.03816e-11
-1.30378e-11
-1.09301e-11
-8.87792e-12
-1.13415e-11
-4.65635e-12
-1.16128e-11
-4.07357e-13
-1.17425e-11
3.83327e-12
-1.17289e-11
8.03053e-12
-1.15715e-11
1.21473e-11
-1.12681e-11
1.61496e-11
-1.08198e-11
2.00014e-11
-1.02268e-11
2.36722e-11
-9.49583e-12
2.71289e-11
-8.63064e-12
3.03454e-11
-7.64132e-12
3.32918e-11
-6.53222e-12
3.59472e-11
-5.31546e-12
3.82866e-11
-3.99789e-12
4.02959e-11
-2.59691e-12
4.19559e-11
-1.122e-12
4.3259e-11
4.08753e-13
4.41912e-11
1.98825e-12
4.47521e-11
3.5979e-12
4.49353e-11
5.22695e-12
4.47483e-11
6.85111e-12
4.41912e-11
8.45731e-12
4.32781e-11
1.0023e-11
4.2016e-11
1.1537e-11
4.04262e-11
1.29766e-11
3.85232e-11
1.43263e-11
3.63353e-11
1.55591e-11
3.38871e-11
1.66539e-11
3.12157e-11
1.75821e-11
2.83556e-11
1.83228e-11
2.53522e-11
1.88492e-11
2.22541e-11
1.91343e-11
1.91175e-11
1.91543e-11
1.60001e-11
1.88957e-11
1.29618e-11
1.8364e-11
1.00577e-11
1.75927e-11
7.34308e-12
1.66196e-11
4.88076e-12
1.54307e-11
2.75255e-12
1.388e-11
1.12589e-12
1.15348e-11
2.4094e-13
7.75749e-12
2.51572e-12
-1.96378e-13
3.41575e-12
-1.17866e-12
1.01653e-11
-3.07253e-12
1.49635e-11
-5.55156e-12
1.79505e-11
-8.42344e-12
1.99447e-11
-1.15776e-11
2.14489e-11
-1.49414e-11
2.26627e-11
-1.84452e-11
2.36004e-11
-2.2025e-11
2.42326e-11
-2.5616e-11
2.45267e-11
-2.91561e-11
2.44849e-11
-3.25913e-11
2.41264e-11
-3.58698e-11
2.34825e-11
-3.89514e-11
2.25911e-11
-4.17974e-11
2.14841e-11
-4.43785e-11
2.01932e-11
-4.66651e-11
1.87437e-11
-4.86382e-11
1.71656e-11
-5.02756e-11
1.54798e-11
-5.15654e-11
1.37099e-11
-5.24906e-11
1.18707e-11
-5.30448e-11
9.98324e-12
-5.32168e-11
8.06037e-12
-5.3006e-11
6.12271e-12
-5.24065e-11
4.18247e-12
-5.14232e-11
2.25922e-12
-5.00567e-11
3.64312e-13
-4.83174e-11
-1.48379e-12
-4.62128e-11
-3.27399e-12
-4.37592e-11
-4.98899e-12
-4.09704e-11
-6.61816e-12
-3.78681e-11
-8.14598e-12
-3.44727e-11
-9.5626e-12
-3.08115e-11
-1.08542e-11
-2.69114e-11
-1.2011e-11
-2.28045e-11
-1.30204e-11
-1.8523e-11
-1.38731e-11
-1.41022e-11
-1.45597e-11
-9.57786e-12
-1.50743e-11
-4.98697e-12
-1.54127e-11
-3.6801e-13
-1.55721e-11
4.24062e-12
-1.55508e-11
8.79842e-12
-1.5346e-11
1.32671e-11
-1.49578e-11
1.76065e-11
-1.43852e-11
2.17813e-11
-1.36334e-11
2.57543e-11
-1.27065e-11
2.94952e-11
-1.16155e-11
3.29701e-11
-1.03664e-11
3.6154e-11
-8.9725e-12
3.90173e-11
-7.44091e-12
4.15419e-11
-5.78993e-12
4.37043e-11
-4.03129e-12
4.54938e-11
-2.18731e-12
4.68928e-11
-2.69015e-13
4.78981e-11
1.70205e-12
4.84996e-11
3.71421e-12
4.87027e-11
5.7409e-12
4.8505e-11
7.76576e-12
4.79186e-11
9.76069e-12
4.69476e-11
1.1711e-11
4.56109e-11
1.35906e-11
4.39202e-11
1.53832e-11
4.19007e-11
1.70603e-11
3.9572e-11
1.85994e-11
3.69671e-11
1.99668e-11
3.41155e-11
2.11365e-11
3.10572e-11
2.20783e-11
2.7834e-11
2.27628e-11
2.4498e-11
2.31539e-11
2.11059e-11
2.32223e-11
1.77185e-11
2.29526e-11
1.43974e-11
2.23474e-11
1.1205e-11
2.14424e-11
8.20971e-12
2.02671e-11
5.47994e-12
1.88112e-11
3.12294e-12
1.68883e-11
1.30842e-12
1.40076e-11
2.93815e-13
9.42051e-12
3.08867e-12
-2.44876e-13
4.06874e-12
-1.36463e-12
1.20435e-11
-3.44807e-12
1.7748e-11
-6.16759e-12
2.13447e-11
-9.30874e-12
2.37546e-11
-1.27541e-11
2.55638e-11
-1.64107e-11
2.69908e-11
-2.02038e-11
2.80692e-11
-2.40565e-11
2.87651e-11
-2.7902e-11
2.90575e-11
-3.16759e-11
2.89492e-11
-3.53223e-11
2.84685e-11
-3.87932e-11
2.76535e-11
-4.2045e-11
2.65469e-11
-4.50431e-11
2.51887e-11
-4.7754e-11
2.36121e-11
-5.0155e-11
2.1853e-11
-5.22205e-11
1.99389e-11
-5.39348e-11
1.79004e-11
-5.52778e-11
1.57573e-11
-5.62401e-11
1.35352e-11
-5.68067e-11
1.12498e-11
-5.69737e-11
8.92538e-12
-5.67313e-11
6.57681e-12
-5.60807e-11
4.22762e-12
-5.50184e-11
1.89236e-12
-5.35517e-11
-4.06292e-13
-5.16841e-11
-2.65406e-12
-4.94295e-11
-4.82936e-12
-4.67984e-11
-6.91834e-12
-4.38109e-11
-8.90101e-12
-4.0485e-11
-1.07642e-11
-3.68469e-11
-1.24899e-11
-3.29218e-11
-1.40654e-11
-2.87418e-11
-1.54744e-11
-2.43388e-11
-1.67045e-11
-1.97493e-11
-1.7742e-11
-1.50099e-11
-1.85775e-11
-1.016e-11
-1.92024e-11
-5.24016e-12
-1.96116e-11
-2.91618e-13
-1.98012e-11
4.64226e-12
-1.97676e-11
9.51943e-12
-1.95094e-11
1.42958e-11
-1.90244e-11
1.89316e-11
-1.8316e-11
2.33853e-11
-1.73871e-11
2.76221e-11
-1.6249e-11
3.16043e-11
-1.4909e-11
3.53026e-11
-1.3382e-11
3.86835e-11
-1.16761e-11
4.17244e-11
-9.80975e-12
4.43976e-11
-7.79573e-12
4.66889e-11
-5.65919e-12
4.85772e-11
-3.41545e-12
5.00563e-11
-1.09045e-12
5.11128e-11
1.30177e-12
5.17496e-11
3.73272e-12
5.19615e-11
6.18413e-12
5.17593e-11
8.62348e-12
5.1144e-11
1.10321e-11
5.01327e-11
1.33791e-11
4.87338e-11
1.56464e-11
4.69707e-11
1.78031e-11
4.4859e-11
1.98276e-11
4.24276e-11
2.16844e-11
3.97001e-11
2.33446e-11
3.67107e-11
2.47722e-11
3.34932e-11
2.59365e-11
3.0093e-11
2.6798e-11
2.65587e-11
2.73162e-11
2.29469e-11
2.74559e-11
1.93206e-11
2.71935e-11
1.5742e-11
2.65351e-11
1.2288e-11
2.54994e-11
9.02575e-12
2.4129e-11
6.04699e-12
2.23866e-11
3.46969e-12
2.00646e-11
1.48148e-12
1.66002e-11
3.39156e-13
1.11607e-11
3.68003e-12
-2.98024e-13
4.74563e-12
-1.55158e-12
1.39919e-11
-3.82516e-12
2.06638e-11
-6.77883e-12
2.49148e-11
-1.019e-11
2.77777e-11
-1.3914e-11
2.98992e-11
-1.78498e-11
3.1541e-11
-2.19079e-11
3.27446e-11
-2.60082e-11
3.34871e-11
-3.00769e-11
3.37523e-11
-3.40514e-11
3.3555e-11
-3.78752e-11
3.29279e-11
-4.15007e-11
3.19188e-11
-4.4889e-11
3.05778e-11
-4.80031e-11
2.89477e-11
-5.0816e-11
2.70706e-11
-5.32997e-11
2.49823e-11
-5.54362e-11
2.27197e-11
-5.72026e-11
2.03091e-11
-5.85865e-11
1.77811e-11
-5.95698e-11
1.51557e-11
-6.01456e-11
1.246e-11
-6.03e-11
9.71174e-12
-6.00308e-11
6.93759e-12
-5.93297e-11
4.15503e-12
-5.82003e-11
1.39083e-12
-5.66414e-11
-1.33738e-12
-5.46635e-11
-4.0035e-12
-5.2273e-11
-6.59009e-12
-4.94872e-11
-9.07242e-12
-4.63208e-11
-1.14336e-11
-4.27979e-11
-1.36506e-11
-3.89412e-11
-1.57075e-11
-3.47816e-11
-1.75834e-11
-3.03494e-11
-1.92627e-11
-2.56812e-11
-2.07269e-11
-2.08137e-11
-2.19623e-11
-1.57877e-11
-2.29554e-11
-1.0645e-11
-2.36971e-11
-5.4294e-12
-2.41798e-11
-1.8644e-13
-2.43982e-11
5.03844e-12
-2.43489e-11
1.01978e-11
-2.40282e-11
1.52476e-11
-2.34374e-11
2.01419e-11
-2.25776e-11
2.48414e-11
-2.14588e-11
2.93041e-11
-2.00888e-11
3.34966e-11
-1.84839e-11
3.73811e-11
-1.66541e-11
4.09308e-11
-1.46184e-11
4.41138e-11
-1.23899e-11
4.69118e-11
-9.99512e-12
4.93003e-11
-7.45252e-12
5.12701e-11
-4.79283e-12
5.28043e-11
-2.03411e-12
5.39032e-11
7.92191e-13
5.45588e-11
3.66611e-12
5.47804e-11
6.55181e-12
5.45668e-11
9.42711e-12
5.39337e-11
1.22563e-11
5.28867e-11
1.50182e-11
5.14479e-11
1.76782e-11
4.96295e-11
2.02146e-11
4.74578e-11
2.2592e-11
4.49514e-11
2.4782e-11
4.214e-11
2.67448e-11
3.90487e-11
2.84484e-11
3.57146e-11
2.98513e-11
3.21775e-11
3.09101e-11
2.84836e-11
3.15794e-11
2.46883e-11
3.18139e-11
2.085e-11
3.15889e-11
1.70421e-11
3.08937e-11
1.33388e-11
2.9749e-11
9.82749e-12
2.81821e-11
6.60472e-12
2.61499e-11
3.81512e-12
2.33955e-11
1.64914e-12
1.93147e-11
3.89102e-13
1.29623e-11
4.29429e-12
-3.52676e-13
5.44488e-12
-1.75557e-12
1.60242e-11
-4.22409e-12
2.37116e-11
-7.42215e-12
2.86694e-11
-1.11015e-11
3.20082e-11
-1.51038e-11
3.44532e-11
-1.9305e-11
3.62957e-11
-2.36094e-11
3.76063e-11
-2.79293e-11
3.83676e-11
-3.21919e-11
3.85799e-11
-3.63327e-11
3.82644e-11
-4.02981e-11
3.74663e-11
-4.40439e-11
3.62407e-11
-4.75313e-11
3.4644e-11
-5.07306e-11
3.27271e-11
-5.36121e-11
3.05327e-11
-5.61555e-11
2.81052e-11
-5.8336e-11
2.54783e-11
-6.01393e-11
2.26879e-11
-6.15447e-11
1.97591e-11
-6.25426e-11
1.6723e-11
-6.3116e-11
1.35997e-11
-6.32594e-11
1.04186e-11
-6.296e-11
7.19901e-12
-6.2217e-11
3.97114e-12
-6.10241e-11
7.55628e-13
-5.93874e-11
-2.4169e-12
-5.73084e-11
-5.52519e-12
-5.48008e-11
-8.53951e-12
-5.1875e-11
-1.14389e-11
-4.85522e-11
-1.41952e-11
-4.48514e-11
-1.67883e-11
-4.08013e-11
-1.91924e-11
-3.64294e-11
-2.13879e-11
-3.17713e-11
-2.33515e-11
-2.68624e-11
-2.50649e-11
-2.1744e-11
-2.65086e-11
-1.64582e-11
-2.76685e-11
-1.10507e-11
-2.8532e-11
-5.56848e-12
-2.909e-11
-5.99965e-14
-2.93361e-11
5.42458e-12
-2.92649e-11
1.08371e-11
-2.88749e-11
1.61277e-11
-2.81654e-11
2.12521e-11
-2.71435e-11
2.61641e-11
-2.58164e-11
3.08255e-11
-2.42004e-11
3.51944e-11
-2.23077e-11
3.92394e-11
-2.01586e-11
4.29243e-11
-1.77672e-11
4.62265e-11
-1.51602e-11
4.91178e-11
-1.23581e-11
5.15857e-11
-9.39525e-12
5.36104e-11
-6.29441e-12
5.51889e-11
-3.0913e-12
5.63103e-11
1.91446e-13
5.69819e-11
3.515e-12
5.72008e-11
6.85408e-12
5.69818e-11
1.01683e-11
5.63286e-11
1.3433e-11
5.52627e-11
1.6609e-11
5.37943e-11
1.96727e-11
5.19481e-11
2.25878e-11
4.97383e-11
2.53285e-11
4.71922e-11
2.78542e-11
4.43285e-11
3.01323e-11
4.11767e-11
3.21216e-11
3.77652e-11
3.37799e-11
3.41322e-11
3.50558e-11
3.03189e-11
3.58998e-11
2.63735e-11
3.62613e-11
2.23577e-11
3.61004e-11
1.8341e-11
3.54015e-11
1.44077e-11
3.41681e-11
1.06501e-11
3.24228e-11
7.19046e-12
3.009e-11
4.17429e-12
2.68948e-11
1.82963e-12
2.21481e-11
4.36432e-13
1.4841e-11
4.92757e-12
-4.18986e-13
6.17706e-12
-1.98458e-12
1.81506e-11
-4.67813e-12
2.69209e-11
-8.13582e-12
3.26212e-11
-1.20966e-11
3.64591e-11
-1.63734e-11
3.92194e-11
-2.08332e-11
4.12478e-11
-2.5361e-11
4.26294e-11
-2.98732e-11
4.33787e-11
-3.42943e-11
4.35029e-11
-3.85644e-11
4.30401e-11
-4.26335e-11
4.20438e-11
-4.64609e-11
4.05795e-11
-5.00139e-11
3.871e-11
-5.32628e-11
3.64901e-11
-5.61862e-11
3.39699e-11
-5.87591e-11
3.11907e-11
-6.0965e-11
2.81946e-11
-6.27822e-11
2.50126e-11
-6.4199e-11
2.16802e-11
-6.51962e-11
1.82209e-11
-6.57657e-11
1.46664e-11
-6.58907e-11
1.10375e-11
-6.55667e-11
7.36613e-12
-6.47815e-11
3.67469e-12
-6.35363e-11
-2.4349e-15
-6.18269e-11
-3.64019e-12
-5.96626e-11
-7.20357e-12
-5.70487e-11
-1.06673e-11
-5.40026e-11
-1.3998e-11
-5.05387e-11
-1.71709e-11
-4.66823e-11
-2.01549e-11
-4.24571e-11
-2.29261e-11
-3.78964e-11
-2.54555e-11
-3.30329e-11
-2.77201e-11
-2.79073e-11
-2.96943e-11
-2.25608e-11
-3.1358e-11
-1.70397e-11
-3.26919e-11
-1.13921e-11
-3.36818e-11
-5.66846e-12
-3.43164e-11
7.87063e-14
-3.45873e-11
5.79764e-12
-3.44897e-11
1.14349e-11
-3.40204e-11
1.69415e-11
-3.31832e-11
2.22667e-11
-3.19832e-11
2.73672e-11
-3.04352e-11
3.21966e-11
-2.85522e-11
3.67185e-11
-2.63561e-11
4.08923e-11
-2.38629e-11
4.46906e-11
-2.11001e-11
4.80814e-11
-1.80892e-11
5.10484e-11
-1.48666e-11
5.35685e-11
-1.14595e-11
5.5636e-11
-7.90818e-12
5.72368e-11
-4.23943e-12
5.83755e-11
-4.95497e-13
5.90474e-11
3.2952e-12
5.92662e-11
7.08783e-12
5.90347e-11
1.08538e-11
5.8374e-11
1.4549e-11
5.72935e-11
1.81465e-11
5.5818e-11
2.16065e-11
5.39595e-11
2.49056e-11
5.17432e-11
2.80046e-11
4.91841e-11
3.08726e-11
4.63074e-11
3.34672e-11
4.31329e-11
3.57517e-11
3.96884e-11
3.76772e-11
3.60021e-11
3.91907e-11
3.21103e-11
4.02361e-11
2.80557e-11
4.07549e-11
2.38937e-11
4.06971e-11
1.96978e-11
4.00266e-11
1.5546e-11
3.87458e-11
1.15505e-11
3.68402e-11
7.83557e-12
3.42262e-11
4.58354e-12
3.05692e-11
2.0313e-12
2.51303e-11
4.94773e-13
1.68036e-11
5.59229e-12
-4.97437e-13
6.95264e-12
-2.26631e-12
2.0414e-11
-5.22195e-12
3.03278e-11
-8.98101e-12
3.68135e-11
-1.32382e-11
4.11451e-11
-1.77951e-11
4.42047e-11
-2.24934e-11
4.63761e-11
-2.7222e-11
4.77919e-11
-3.18899e-11
4.84833e-11
-3.64307e-11
4.84836e-11
-4.07868e-11
4.78385e-11
-4.49165e-11
4.66185e-11
-4.87858e-11
4.48953e-11
-5.23653e-11
4.27375e-11
-5.56327e-11
4.02056e-11
-5.85644e-11
3.73491e-11
-6.11434e-11
3.42154e-11
-6.33475e-11
3.08419e-11
-6.5164e-11
2.72692e-11
-6.65727e-11
2.35253e-11
-6.75638e-11
1.96447e-11
-6.81179e-11
1.56495e-11
-6.8227e-11
1.15722e-11
-6.7874e-11
7.43546e-12
-6.70547e-11
3.2753e-12
-6.57585e-11
-8.8073e-13
-6.39895e-11
-4.99248e-12
-6.17472e-11
-9.02995e-12
-5.90445e-11
-1.29541e-11
-5.58903e-11
-1.67358e-11
-5.23058e-11
-2.03381e-11
-4.83096e-11
-2.37326e-11
-4.39312e-11
-2.68844e-11
-3.91997e-11
-2.97656e-11
-3.41533e-11
-3.23437e-11
-2.88311e-11
-3.45926e-11
-2.3279e-11
-3.64852e-11
-1.75446e-11
-3.80008e-11
-1.168e-11
-3.9121e-11
-5.73887e-12
-3.98326e-11
2.23886e-13
-4.0126e-11
6.15184e-12
-3.99951e-11
1.19914e-11
-3.94396e-11
1.76876e-11
-3.84614e-11
2.31916e-11
-3.70722e-11
2.84524e-11
-3.52843e-11
3.34282e-11
-3.31197e-11
3.80734e-11
-3.05967e-11
4.23554e-11
-2.77441e-11
4.62377e-11
-2.45849e-11
4.96997e-11
-2.11571e-11
5.27151e-11
-1.74907e-11
5.52749e-11
-1.36305e-11
5.73618e-11
-9.60805e-12
5.8978e-11
-5.46986e-12
6.01158e-11
-1.24807e-12
6.07881e-11
3.00813e-12
6.09961e-11
7.26574e-12
6.07614e-11
1.14754e-11
6.00928e-11
1.5606e-11
5.90165e-11
1.96126e-11
5.7544e-11
2.34704e-11
5.57008e-11
2.71414e-11
5.34996e-11
3.0599e-11
5.09645e-11
3.3801e-11
4.81091e-11
3.67149e-11
4.49559e-11
3.92959e-11
4.15225e-11
4.14988e-11
3.783e-11
4.32685e-11
3.39075e-11
4.45398e-11
2.9787e-11
4.52529e-11
2.55225e-11
4.53343e-11
2.11715e-11
4.47469e-11
1.68245e-11
4.34577e-11
1.25848e-11
4.1443e-11
8.605e-12
3.85671e-11
5.07686e-12
3.44618e-11
2.28573e-12
2.82914e-11
5.62079e-13
1.88972e-11
6.29706e-12
-6.09306e-13
7.80573e-12
-2.63495e-12
2.28699e-11
-5.92703e-12
3.40105e-11
-1.00317e-11
4.12915e-11
-1.46163e-11
4.61011e-11
-1.94449e-11
4.94029e-11
-2.4362e-11
5.16643e-11
-2.92496e-11
5.3053e-11
-3.40304e-11
5.36413e-11
-3.86395e-11
5.34723e-11
-4.30331e-11
5.26141e-11
-4.71757e-11
5.11445e-11
-5.10416e-11
4.9146e-11
-5.46091e-11
4.66902e-11
-5.78567e-11
4.38382e-11
-6.07679e-11
4.0644e-11
-6.33214e-11
3.71506e-11
-6.5504e-11
3.34034e-11
-6.72956e-11
2.94364e-11
-6.86859e-11
2.52875e-11
-6.96544e-11
2.09812e-11
-7.01911e-11
1.65505e-11
-7.02753e-11
1.20169e-11
-6.9898e-11
7.41577e-12
-6.90422e-11
2.7742e-12
-6.77053e-11
-1.8648e-12
-6.58802e-11
-6.46627e-12
-6.35751e-11
-1.09846e-11
-6.07929e-11
-1.5386e-11
-5.75499e-11
-1.96283e-11
-5.38586e-11
-2.36784e-11
-4.97438e-11
-2.74954e-11
-4.5229e-11
-3.10461e-11
-4.03489e-11
-3.42913e-11
-3.51385e-11
-3.71985e-11
-2.9642e-11
-3.97324e-11
-2.39052e-11
-4.18645e-11
-1.79803e-11
-4.35678e-11
-1.19213e-11
-4.48219e-11
-5.78525e-12
-4.56107e-11
3.69075e-13
-4.59232e-11
6.48408e-12
-4.57542e-11
1.25008e-11
-4.5102e-11
1.83652e-11
-4.39737e-11
2.40213e-11
-4.23787e-11
2.94214e-11
-4.03375e-11
3.45149e-11
-3.78693e-11
3.92631e-11
-3.50043e-11
4.36246e-11
-3.17679e-11
4.75735e-11
-2.81994e-11
5.10797e-11
-2.43317e-11
5.41305e-11
-2.02127e-11
5.67058e-11
-1.5879e-11
5.88046e-11
-1.1382e-11
6.04169e-11
-6.75843e-12
6.15534e-11
-2.06169e-12
6.22135e-11
2.67099e-12
6.24179e-11
7.38448e-12
6.21756e-11
1.20419e-11
6.1515e-11
1.65917e-11
6.04488e-11
2.10053e-11
5.90043e-11
2.52426e-11
5.71932e-11
2.92813e-11
5.50408e-11
3.3081e-11
5.25592e-11
3.66123e-11
4.97682e-11
3.98353e-11
4.6678e-11
4.27143e-11
4.33038e-11
4.51995e-11
3.96579e-11
4.72383e-11
3.5756e-11
4.87631e-11
3.16263e-11
4.97002e-11
2.7302e-11
4.99733e-11
2.28418e-11
4.95178e-11
1.83161e-11
4.82919e-11
1.3845e-11
4.62197e-11
9.57114e-12
4.31467e-11
5.72786e-12
3.86123e-11
2.62149e-12
3.17124e-11
6.61562e-13
2.11702e-11
7.07684e-12
-7.71442e-13
8.7869e-12
-3.1664e-12
2.5641e-11
-6.88916e-12
3.80698e-11
-1.14096e-11
4.61327e-11
-1.63319e-11
5.13428e-11
-2.14191e-11
5.48094e-11
-2.65089e-11
5.70729e-11
-3.15054e-11
5.83708e-11
-3.63347e-11
5.87941e-11
-4.0953e-11
5.84169e-11
-4.53243e-11
5.73133e-11
-4.94267e-11
5.55763e-11
-5.32415e-11
5.32905e-11
-5.67522e-11
5.05307e-11
-5.99442e-11
4.73593e-11
-6.27985e-11
4.38258e-11
-6.53012e-11
3.99786e-11
-6.7433e-11
3.58575e-11
-6.91836e-11
3.1506e-11
-7.05331e-11
2.69523e-11
-7.14711e-11
2.22308e-11
-7.19754e-11
1.73626e-11
-7.20345e-11
1.23806e-11
-7.16259e-11
7.30856e-12
-7.07404e-11
2.18758e-12
-6.93622e-11
-2.94618e-12
-6.74934e-11
-8.03956e-12
-6.51317e-11
-1.30519e-11
-6.22881e-11
-1.79355e-11
-5.89685e-11
-2.26537e-11
-5.51919e-11
-2.71603e-11
-5.09748e-11
-3.1417e-11
-4.63467e-11
-3.53778e-11
-4.1337e-11
-3.90036e-11
-3.59863e-11
-4.22507e-11
-3.0337e-11
-4.50823e-11
-2.44397e-11
-4.74616e-11
-1.83474e-11
-4.93593e-11
-1.21183e-11
-5.07502e-11
-5.81207e-12
-5.16161e-11
5.10261e-13
-5.19454e-11
6.7865e-12
-5.17312e-11
1.29576e-11
-5.09752e-11
1.89629e-11
-4.96827e-11
2.47486e-11
-4.78702e-11
3.0259e-11
-4.55559e-11
3.54489e-11
-4.27699e-11
4.02712e-11
-3.95398e-11
4.46939e-11
-3.59067e-11
4.86819e-11
-3.19062e-11
5.22181e-11
-2.75892e-11
5.5279e-11
-2.29973e-11
5.78607e-11
-1.81867e-11
5.99511e-11
-1.31999e-11
6.15589e-11
-8.09529e-12
6.26817e-11
-2.91415e-12
6.33373e-11
2.28505e-12
6.35324e-11
7.45931e-12
6.32969e-11
1.25473e-11
6.26469e-11
1.75126e-11
6.16141e-11
2.23096e-11
6.02116e-11
2.69176e-11
5.84652e-11
3.13009e-11
5.63861e-11
3.5434e-11
5.39965e-11
3.9276e-11
5.1306e-11
4.27996e-11
4.8327e-11
4.59665e-11
4.50632e-11
4.8735e-11
4.15195e-11
5.10523e-11