/*--------------------------------*- C++ -*----------------------------------*\
| =========                 |                                                 |
| \\      /  F ield         | OpenFOAM: The Open Source CFD Toolbox           |
|  \\    /   O peration     | Version:  2412                                  |
|   \\  /    A nd           | Website:  www.openfoam.com                      |
|    \\/     M anipulation  |                                                 |
\*---------------------------------------------------------------------------*/
FoamFile
{
    version     2.0;
    format      ascii;
    arch        "LSB;label=32;scalar=64";
    class       volScalarField;
    location    "9.05";
    object      alpha.molasses;
}
// * * * * * * * * * * * * * * * * * * * * * * * * * * * * * * * * * * * * * //

dimensions      [0 0 0 0 0 0 0];

internalField   nonuniform List<scalar> 
6400
(
1
1
1
1
1
1
1
1
1
1
1
1
1
1
1
1
1
1
1
1
1
1
1
1
1
1
1
1
1
1
0.999999
0.999998
0.999997
0.999996
0.999996
0.999995
0.999994
0.999994
0.999993
0.999993
0.999993
0.999993
0.999993
0.999994
0.999994
0.999995
0.999996
0.999996
0.999997
0.999998
0.999999
1
1
1
1
1
1
1
1
1
1
1
1
1
1
1
1
1
1
1
1
1
1
1
1
1
1
1
1
1
1
1
1
1
1
1
1
1
1
1
1
1
1
1
1
1
1
1
0.999999
0.999999
0.999998
0.999998
0.999999
0.999999
0.999999
0.999999
0.999999
0.999999
0.999998
0.999997
0.999996
0.999995
0.999994
0.999993
0.999992
0.999991
0.99999
0.999989
0.999989
0.999989
0.999989
0.999989
0.99999
0.99999
0.999991
0.999992
0.999993
0.999994
0.999996
0.999997
0.999999
1
1
1
1
1
1
1
1
0.999999
0.999998
0.999999
0.999999
1
1
1
1
1
0.999999
0.999999
0.999999
0.999998
0.999998
0.999999
0.999999
1
1
1
1
1
1
1
1
1
1
1
1
1
1
1
1
1
1
1
1
1
1
1
1
1
0.999999
0.999999
1
1
1
1
1
1
1
0.999999
0.999998
0.999997
0.999996
0.999995
0.999995
0.999994
0.999994
0.999993
0.999993
0.999993
0.999993
0.999993
0.999993
0.999994
0.999994
0.999995
0.999996
0.999997
0.999999
1
1
1
1
1
1
1
1
1
1
1
1
1
1
1
1
1
1
1
1
1
1
0.999999
0.999999
1
1
1
1
1
1
1
1
1
1
1
1
1
1
1
1
1
1
1
1
1
1
1
1
1
0.999999
0.999999
0.999999
0.999999
0.999999
0.999999
0.999999
0.999999
0.999999
0.999999
0.999999
0.999998
0.999998
0.999997
0.999996
0.999995
0.999995
0.999994
0.999993
0.999993
0.999992
0.999992
0.999992
0.999992
0.999992
0.999993
0.999993
0.999994
0.999995
0.999996
0.999998
0.999999
1
1
1
1
1
1
1
1
1
1
1
1
1
1
1
1
1
1
1
1
1
1
1
1
1
1
1
1
1
1
1
1
0.999999
1
1
1
1
1
1
1
1
1
1
1
1
1
1
1
1
1
1
1
1
1
1
1
1
1
1
1
0.999999
0.999999
0.999998
0.999997
0.999996
0.999995
0.999994
0.999994
0.999993
0.999993
0.999993
0.999993
0.999993
0.999993
0.999994
0.999995
0.999996
0.999997
0.999998
0.999998
0.999999
1
1
1
1
1
1
1
1
1
1
1
1
1
1
1
1
1
1
1
1
1
1
1
1
1
1
0.999999
1
1
1
0.999999
0.999999
0.999999
1
1
1
1
1
1
1
1
1
1
1
1
1
1
1
1
1
1
1
1
1
1
1
1
1
1
1
1
0.999999
0.999998
0.999997
0.999996
0.999995
0.999994
0.999994
0.999993
0.999993
0.999993
0.999993
0.999994
0.999994
0.999994
0.999995
0.999996
0.999997
0.999998
0.999998
0.999999
0.999999
0.999999
0.999999
0.999999
1
1
1
1
1
1
1
1
1
1
1
1
1
1
1
1
1
1
1
1
1
0.999999
0.999999
1
1
0.999999
0.999998
0.999999
0.999999
1
1
1
1
1
1
1
1
1
1
1
1
1
1
1
1
1
1
1
1
1
1
1
1
1
1
0.999999
0.999998
0.999997
0.999996
0.999996
0.999995
0.999995
0.999995
0.999995
0.999995
0.999995
0.999995
0.999995
0.999995
0.999996
0.999996
0.999997
0.999998
0.999999
0.999999
1
1
1
0.999999
0.999999
0.999999
0.999999
1
1
1
1
1
1
1
1
1
1
1
1
1
1
1
1
1
1
1
0.999999
0.999999
1
0.999999
0.999998
0.999998
0.999999
0.999999
1
1
1
1
1
1
1
1
1
1
1
1
1
1
1
1
1
1
1
1
1
1
1
1
1
0.999999
0.999998
0.999997
0.999997
0.999996
0.999996
0.999996
0.999997
0.999997
0.999997
0.999998
0.999998
0.999998
0.999998
0.999998
0.999998
0.999999
0.999999
1
1
1
1
1
1
1
1
1
1
1
1
1
1
1
1
1
1
1
1
1
1
1
1
1
1
1
1
0.999999
0.999998
0.999999
0.999999
0.999999
0.999998
0.999998
0.999999
1
1
1
1
1
1
1
1
1
1
1
1
1
1
1
1
1
1
1
1
1
1
1
0.999999
0.999999
0.999998
0.999998
0.999997
0.999996
0.999996
0.999997
0.999997
0.999998
0.999999
0.999999
0.999999
0.999999
0.999999
0.999999
0.999999
0.999999
0.999999
0.999999
1
1
1
1
1
1
1
1
1
1
1
1
1
1
1
1
1.00001
1.00001
1.00001
1.00001
1
1
1
1
1
1
1
1
0.999999
0.999999
0.999998
0.999999
0.999999
0.999999
0.999998
0.999998
0.999999
1
1
1
1
1
1
1
1
1
1
1
1
1
1
1
1
1
1
1
1
1
1
1
0.999999
0.999999
0.999998
0.999997
0.999997
0.999997
0.999997
0.999998
0.999999
0.999999
0.999999
0.999998
0.999998
0.999998
0.999998
0.999998
0.999998
0.999997
0.999997
0.999997
0.999997
0.999997
0.999998
0.999998
1
1
1
1
1
1
1
1
1
1
1
1.00001
1.00001
1.00001
1.00001
1.00001
1.00001
1.00001
1.00001
1
1
1
1
1
1
0.999999
0.999998
0.999998
0.999999
0.999999
0.999998
0.999998
0.999999
1
1
1
1
1
1
1
1
1
1
1
1
1
1
1
1
1
1
1
1
1
1
1
1
0.999999
0.999999
0.999998
0.999998
0.999999
0.999999
0.999999
0.999998
0.999998
0.999997
0.999996
0.999995
0.999995
0.999995
0.999995
0.999994
0.999995
0.999994
0.999995
0.999995
0.999995
0.999996
0.999997
0.999998
0.999999
1
1
1
1
1
1
1
1
1.00001
1.00001
1.00001
1.00001
1.00001
1.00001
1.00001
1.00001
1.00001
1.00001
1.00001
1
1
1
1
1
0.999999
0.999999
1
0.999999
0.999998
0.999999
1
1
1
1
1
1
1
1
1.00001
1.00001
1.00001
1.00001
1.00001
1
1
1
1
1
1
1
1
1
1
1
1
0.999999
0.999999
0.999998
0.999998
0.999998
0.999998
0.999997
0.999996
0.999995
0.999993
0.999992
0.999991
0.999991
0.999991
0.999991
0.999992
0.999992
0.999994
0.999994
0.999995
0.999996
0.999997
0.999997
0.999998
0.999999
1
1
1
1
1
1
1
1
1.00001
1.00001
1.00001
1.00001
1.00001
1.00001
1.00001
1.00001
1.00001
1.00001
1.00001
1
1
1
1
1
0.999999
0.999999
1
0.999999
0.999998
0.999999
1
1
1
1
1
1
1
1
1.00001
1.00001
1.00001
1
1
1
1
1
1
1
1
1
1
1
0.999999
0.999999
0.999998
0.999998
0.999997
0.999997
0.999997
0.999996
0.999995
0.999994
0.999993
0.999991
0.99999
0.999989
0.999988
0.999987
0.999988
0.999989
0.99999
0.999991
0.999992
0.999993
0.999992
0.999994
0.999995
0.999996
0.999997
0.999998
0.999999
1
1
1
1
1
1
1
1
1.00001
1.00001
1.00001
1.00001
1.00001
1.00001
1.00001
1.00001
1.00001
1
1
1
1
1
1
0.999999
1
0.999999
0.999999
0.999999
0.999999
1
1
1
1
1
1
1
1
1.00001
1.00001
1.00001
1
1
1
1
1
1
1
1
1
1
1
0.999999
0.999999
0.999998
0.999998
0.999998
0.999998
0.999997
0.999996
0.999995
0.999993
0.999991
0.99999
0.999988
0.999987
0.999987
0.999987
0.999987
0.999987
0.999989
0.99999
0.999991
0.999992
0.999991
0.99999
0.999993
0.999995
0.999997
0.999998
0.999999
1
1
1
1
1
1
1
1
1
1
1.00001
1.00001
1.00001
1.00001
1.00001
1.00001
1
1
1
1
1
1
1
1
1
0.999999
0.999999
0.999999
0.999999
1
1
1
1
1
1
1
1
1
1
1
1
1
1
1
1
1
1
1
1
1
1
1
1
1
1
1
0.999999
0.999999
0.999997
0.999996
0.999994
0.999993
0.999993
0.999993
0.999993
0.999992
0.99999
0.999991
0.99999
0.99999
0.999991
0.999994
0.999997
0.999996
0.999994
0.999994
0.999997
0.999998
0.999999
0.999999
1
1
1
1
1
1
1
1
1
1
1
1.00001
1.00001
1.00001
1.00001
1
1
1
1
1
1
1
1
1
0.999999
1
0.999999
0.999998
0.999999
0.999999
0.999999
1
1
1
1
1
1
1
1
1
1
1
1
0.999999
0.999998
0.999998
0.999998
0.999998
0.999998
0.999998
0.999998
0.999998
0.999998
0.999998
0.999998
0.999998
0.999998
0.999997
0.999996
0.999995
0.999995
0.999995
0.999994
0.999994
0.999994
0.999994
0.999991
0.99999
0.999989
0.99999
0.99999
0.999993
0.999996
0.999998
0.999995
0.999994
0.999994
0.999996
0.999997
0.999998
0.999998
0.999999
0.999999
0.999999
0.999998
0.999999
0.999999
1
1
1
1
1
1
1
1
1
1
1
1
1
1
1
0.999999
0.999999
0.999997
0.999998
0.999998
0.999998
0.999999
0.999999
0.999999
0.999999
0.999999
1
1
1
1
1
1
1
1
1
1
0.999999
0.999999
0.999999
0.999999
0.999999
0.999998
0.999998
0.999998
0.999998
0.999998
0.999998
0.999998
0.999997
0.999996
0.999996
0.999996
0.999996
0.999996
0.999995
0.999993
0.999991
0.999991
0.999992
0.999989
0.999988
0.999991
0.999993
0.999996
0.999997
1
1
1
1
0.999999
0.999998
0.999998
0.999998
0.999998
0.999998
0.999998
0.999998
0.999998
0.999998
0.999999
0.999999
1
1
1
1
1
1
1
1
1
1
1
1
0.999999
0.999999
0.999999
0.999997
0.999998
0.999997
0.999998
0.999997
1
1
1
1
1
1
1
1
1
1
1
1
1
1
1
1
1
1
1
1
1
1
1
1
1
1
0.999999
0.999998
0.999997
0.999996
0.999996
0.999996
0.999996
0.999996
0.999996
0.999996
0.999994
0.999993
0.99999
0.999993
0.999995
0.999995
0.999996
0.999988
0.999986
0.999987
0.999988
0.999992
0.999994
0.999996
0.999998
0.999999
1
1
1
1
1
1
1
1
1
1
1
1
1
1
1
1
1
1
1
1
1
1
1
0.999998
0.999999
0.999998
0.999996
0.999996
0.999998
1
1
1
1
1
1
1
1
1
1
1
1
1
1
1
1
1.00001
1.00001
1.00001
1.00001
1.00001
1.00001
1.00001
1.00001
1.00001
1
0.999999
0.999998
0.999997
0.999996
0.999996
0.999996
0.999996
0.999996
0.99929
0.992537
0.985635
0.985343
0.992057
0.999067
0.999995
0.999995
0.999992
0.999987
0.999988
0.999991
0.999996
0.999998
0.999999
0.999999
1
1
1
1
1
1
1
1
1
1
1
1
1
1
1
1
1
1
1
1
1
1
1
1
1
0.999999
0.999998
1
1.00001
1.00001
1.00001
1.00002
1.00002
1.00002
1.00002
1.00002
1.00002
1.00002
1.00002
1.00002
1.00002
1.00002
1.00002
1.00002
1.00002
1.00002
1.00002
1.00002
1.00002
1.00002
1.00002
1.00001
1.00001
0.999826
0.99816
0.994405
0.988091
0.978587
0.964939
0.945643
0.917795
0.869389
0.786701
0.674986
0.560137
0.466747
0.421175
0.419673
0.462907
0.552891
0.668442
0.78123
0.865841
0.916052
0.94452
0.964185
0.97808
0.987766
0.994207
0.998066
0.999805
1.00001
1.00001
1.00001
1.00001
1.00001
1.00002
1.00002
1.00002
1.00002
1.00002
1.00002
1.00002
1.00002
1.00002
1.00002
1.00002
1.00002
1.00002
1.00002
1.00002
1.00002
1.00002
1.00002
1.00001
1.00001
1.00001
0.0257453
0.0393391
0.0492307
0.0573975
0.0640328
0.0695721
0.0743417
0.0785644
0.0824017
0.0859727
0.0893636
0.092634
0.095821
0.098941
0.101991
0.10495
0.107775
0.110405
0.112757
0.114725
0.116177
0.116949
0.116853
0.11566
0.113097
0.108838
0.102679
0.095449
0.0871444
0.0774543
0.0659567
0.0521438
0.035608
0.0155536
4.3203e-09
4.93969e-09
5.63496e-08
0.00608673
0.0140482
0.0150236
0.0155473
0.0146133
0.00458295
6.69392e-08
6.38515e-09
5.28318e-09
0.0145685
0.0348803
0.051606
0.0655875
0.0772297
0.0870434
0.0954511
0.102767
0.109034
0.113395
0.116036
0.117289
0.117429
0.11669
0.11526
0.113306
0.110961
0.108333
0.105505
0.102541
0.0994821
0.0963512
0.0931515
0.0898664
0.0864592
0.08287
0.0790124
0.0747666
0.06997
0.0643985
0.057724
0.0495083
0.0395565
0.0258818
5.56524e-09
1.97713e-09
4.53152e-09
7.06299e-09
9.50512e-09
1.18062e-08
1.38804e-08
1.56841e-08
1.71902e-08
1.83766e-08
1.92227e-08
1.9709e-08
1.9816e-08
1.95281e-08
1.88344e-08
1.7736e-08
1.62485e-08
1.44105e-08
1.2283e-08
9.95835e-09
7.53668e-09
5.23041e-09
3.20259e-09
1.56813e-09
4.67403e-10
8.80202e-12
9.31166e-12
9.31116e-12
9.31614e-12
9.33355e-12
9.82444e-12
4.2488e-11
5.82643e-10
1.98385e-09
3.19777e-09
5.5639e-08
0.0608637
0.256642
0.373446
0.371466
0.371776
0.37578
0.267697
0.0684497
6.57852e-08
3.88053e-09
2.82462e-09
1.21734e-09
2.46898e-10
1.88566e-11
1.29291e-11
1.23801e-11
1.22843e-11
1.22851e-11
6.38879e-12
4.47984e-10
1.55076e-09
3.19779e-09
5.2521e-09
7.61434e-09
1.00743e-08
1.24505e-08
1.4628e-08
1.65125e-08
1.80429e-08
1.91754e-08
1.98939e-08
2.01961e-08
2.00943e-08
1.96047e-08
1.87474e-08
1.75405e-08
1.60048e-08
1.41625e-08
1.20415e-08
9.68809e-09
7.18931e-09
4.61039e-09
2.04023e-09
5.72975e-09
8.75313e-12
1.19815e-12
3.45609e-12
6.09276e-12
8.81278e-12
1.10489e-11
1.36613e-11
1.57136e-11
1.7651e-11
1.91233e-11
1.99281e-11
1.98762e-11
1.88074e-11
1.64929e-11
1.27217e-11
7.5347e-12
1.54723e-12
-2.26927e-12
-2.0027e-12
-1.41667e-12
-1.10471e-11
2.46639e-13
6.29045e-13
3.50373e-13
3.50891e-13
4.81161e-12
1.5813e-11
7.80886e-11
7.09438e-11
9.82444e-12
1.42603e-07
2.11695e-06
3.92441e-06
3.10123e-06
1.3427e-06
2.16191e-07
0.0292964
0.31199
0.401444
0.401444
0.401444
0.401444
0.336389
0.0372226
2.38234e-07
1.50715e-06
2.89652e-06
4.54629e-06
3.67106e-06
1.12266e-06
8.4031e-09
3.16291e-09
1.1257e-09
1.90968e-11
4.2748e-13
3.61726e-13
1.6197e-12
7.64196e-13
-2.18232e-12
-5.25762e-12
4.61715e-14
4.21024e-14
1.93232e-12
8.43836e-12
1.86281e-11
2.65938e-11
3.2017e-11
3.49282e-11
3.55873e-11
3.2894e-11
2.98023e-11
2.61619e-11
2.21902e-11
1.63234e-11
1.13037e-11
9.7048e-12
6.75712e-12
3.88421e-12
1.4039e-12
1.40349e-11
2.00694e-14
1.65529e-15
5.046e-15
9.04423e-15
1.35575e-14
1.85437e-14
2.36637e-14
2.88113e-14
3.37694e-14
3.81834e-14
4.14895e-14
4.29395e-14
4.15797e-14
3.64728e-14
2.7133e-14
1.45923e-14
-2.10881e-15
1.69289e-15
1.70981e-15
2.00124e-15
1.91988e-14
-3.61227e-14
2.15482e-13
3.50373e-13
3.50373e-13
3.88141e-13
3.63386e-12
5.18077e-12
3.60961e-11
1.73536e-07
2.02719e-06
1.12822e-05
2.03532e-05
2.03532e-05
1.01674e-05
2.54245e-07
2.93673e-07
0.0399349
0.401444
0.401444
0.401444
0.401444
0.0548292
2.94089e-07
2.35668e-07
2.13156e-06
1.90397e-05
1.91678e-05
1.91678e-05
1.05382e-05
9.69346e-07
3.09903e-10
5.90556e-12
4.2748e-13
3.61726e-13
3.61726e-13
3.61619e-13
5.4473e-13
2.71508e-13
1.22311e-13
4.38341e-14
4.20204e-14
2.01542e-14
4.08524e-14
6.84055e-14
8.87314e-14
9.99146e-14
1.02802e-13
9.93278e-14
9.18955e-14
8.24505e-14
7.21078e-14
6.14321e-14
5.07729e-14
3.92482e-14
2.7074e-14
1.72886e-14
9.10949e-15
3.07054e-15
2.96789e-14
6.50068e-17
3.18303e-18
1.00514e-17
1.83674e-17
2.85519e-17
4.09026e-17
5.53342e-17
7.18292e-17
9.02127e-17
1.09714e-16
1.28553e-16
1.43509e-16
1.49784e-16
1.40946e-16
1.11714e-16
7.39424e-17
2.19413e-16
1.69179e-15
1.03029e-14
3.84659e-13
5.03658e-12
4.68753e-12
2.34248e-13
3.50372e-13
3.50891e-13
3.74561e-13
8.16641e-13
1.00829e-11
2.42946e-10
1.26833e-06
4.38321e-06
4.38579e-06
2.74663e-06
1.2113e-06
2.46663e-07
2.46081e-07
2.54245e-07
0.00453452
0.199769
0.254418
0.259047
0.218045
0.00842493
2.35668e-07
2.3318e-07
2.32857e-07
4.07642e-07
3.32296e-06
7.97437e-06
9.08956e-06
6.2976e-06
2.81682e-07
3.09903e-10
8.06791e-09
2.23591e-08
1.1823e-08
1.56004e-12
7.69206e-13
3.44158e-11
1.32642e-11
8.94528e-13
5.59752e-14
1.25819e-14
4.25227e-15
3.16817e-15
2.31433e-15
1.6837e-15
1.25345e-15
9.41631e-16
7.09058e-16
5.35634e-16
4.05028e-16
3.04461e-16
2.25379e-16
1.62179e-16
1.11194e-16
7.05224e-17
3.84576e-17
1.25161e-17
8.84336e-17
1.06856e-17
1.29453e-20
4.67051e-20
6.63695e-20
7.6661e-20
1.13443e-19
1.62524e-19
2.25299e-19
3.03893e-19
3.99033e-19
5.07127e-19
6.15637e-19
6.98887e-19
7.1602e-19
7.79829e-19
9.06492e-18
2.27276e-16
9.36137e-16
1.91858e-14
3.87042e-13
1.90139e-12
3.80189e-11
4.69671e-08
1.43606e-07
1.19449e-07
1.65473e-08
9.61648e-12
1.80816e-09
5.43643e-09
4.10282e-09
4.13452e-09
4.01301e-09
3.96174e-09
4.10185e-09
3.34744e-07
1.65978e-06
2.33467e-06
0.000442544
1.62395e-11
2.48647e-11
5.43667e-11
5.72972e-11
0.000324486
3.76728e-07
2.42353e-07
1.40074e-07
4.07059e-09
9.20098e-11
2.65332e-10
1.26878e-09
4.23241e-09
1.39215e-08
1.435e-09
2.55453e-07
1.02959e-06
1.02992e-06
1.01459e-06
1.53489e-07
2.55459e-11
9.75997e-12
4.49107e-13
6.58847e-14
6.6588e-15
3.94761e-15
2.86705e-15
1.91507e-15
1.24079e-15
8.16071e-16
5.41037e-16
3.59821e-16
2.40991e-16
1.6285e-16
1.1049e-16
7.45727e-17
4.94276e-17
3.15311e-17
1.87679e-17
9.72376e-18
2.91162e-18
1.49089e-17
8.40667e-20
4.64688e-22
3.66043e-21
3.01619e-21
4.45525e-22
5.87058e-22
7.59947e-22
9.68762e-22
1.23943e-21
1.75697e-21
2.4378e-21
3.24444e-21
4.05573e-21
5.35836e-21
1.13204e-19
2.53819e-18
6.56639e-17
3.92148e-15
1.16816e-13
8.18316e-13
2.93332e-11
3.44518e-08
1.53505e-07
1.5139e-07
6.67886e-08
1.16211e-09
4.87918e-09
3.0166e-08
3.23992e-08
3.03906e-08
1.0653e-08
1.39668e-08
4.60047e-08
1.10187e-07
5.52609e-07
3.96093e-06
5.20409e-06
1.59866e-11
1.59204e-11
3.26879e-11
7.49551e-11
5.68274e-11
5.70854e-11
6.16914e-11
6.25041e-11
7.01615e-11
7.69916e-11
8.5212e-11
1.06374e-07
1.90911e-07
1.91522e-07
1.90996e-07
8.17561e-08
2.38826e-09
2.25032e-09
6.13479e-07
8.51154e-07
1.35037e-07
1.72847e-10
5.78335e-12
4.02521e-13
6.2408e-14
2.54979e-15
7.31822e-16
4.00965e-16
2.04722e-16
1.00069e-16
5.0335e-17
2.60334e-17
1.37493e-17
7.44903e-18
4.15367e-18
2.37215e-18
1.37347e-18
7.95613e-19
4.51891e-19
2.43777e-19
1.16846e-19
3.22968e-20
1.32086e-19
1.61005e-22
5.10339e-24
2.9329e-23
3.67618e-23
3.00359e-23
1.17908e-23
4.28737e-24
5.97726e-24
8.6869e-24
1.26807e-23
1.84919e-23
2.49433e-23
3.12752e-23
1.73751e-22
1.24777e-20
4.06477e-19
4.33589e-17
3.41691e-15
3.1015e-14
1.47936e-12
2.78423e-10
8.0286e-08
1.53709e-07
1.5298e-07
2.5647e-08
2.34127e-10
2.00924e-08
3.24525e-08
3.23299e-08
1.28617e-08
1.28332e-10
1.06693e-10
7.14925e-11
4.22027e-11
3.14921e-11
3.00072e-11
3.00167e-11
3.07274e-11
5.3765e-11
7.66562e-11
1.55736e-10
1.90032e-10
2.08655e-10
2.06522e-10
2.33663e-10
2.66162e-10
2.65045e-10
1.74133e-10
1.27269e-10
1.26876e-10
1.27662e-10
3.41223e-10
3.44151e-09
2.25032e-09
2.24901e-09
7.84606e-08
2.76222e-07
1.27167e-07
1.692e-10
3.62148e-12
3.19761e-13
4.22727e-14
9.896e-16
3.79274e-17
9.66728e-18
3.27874e-18
1.12471e-18
4.06714e-19
1.5909e-19
6.66467e-20
2.98063e-20
1.4185e-20
7.10525e-21
3.68948e-21
1.95272e-21
1.03044e-21
5.25108e-22
2.40669e-22
6.6073e-23
2.895e-22
5.83936e-25
3.21793e-26
1.51383e-25
2.56116e-25
3.38022e-25
3.15016e-25
2.31634e-25
4.8764e-26
6.01146e-26
9.44993e-26
1.51954e-25
2.10944e-25
3.35114e-25
3.24622e-24
1.5842e-22
5.47281e-20
6.14225e-18
5.17819e-16
1.19791e-14
5.93142e-13
2.77703e-11
5.39147e-08
1.53641e-07
1.53709e-07
5.75596e-08
1.01971e-10
2.12794e-09
7.15061e-10
5.25538e-11
4.9293e-11
1.35929e-10
7.43284e-10
1.07944e-09
1.03042e-09
4.66075e-10
1.44986e-10
8.3394e-11
6.50019e-11
5.73725e-11
6.48694e-11
1.65511e-10
2.32253e-10
2.45112e-10
2.89704e-10
4.24616e-10
4.25807e-10
3.72951e-10
2.79573e-10
2.10539e-10
1.72778e-10
1.31789e-10
8.43157e-11
6.95475e-10
2.78441e-09
2.24937e-09
2.17736e-10
2.88842e-08
5.08924e-08
7.31106e-09
2.83045e-12
1.23131e-13
2.4368e-14
4.63665e-16
4.58156e-18
1.30553e-19
2.38179e-20
7.43707e-21
2.56495e-21
9.43941e-22
3.75996e-22
1.60711e-22
7.31352e-23
3.50455e-23
1.74393e-23
8.87355e-24
4.52328e-24
2.24124e-24
1.00403e-24
2.73666e-25
1.18455e-24
2.56058e-27
1.79309e-28
8.27533e-28
1.56729e-27
2.44018e-27
3.41296e-27
4.04906e-27
4.10151e-27
3.72717e-27
2.19812e-27
1.48213e-27
2.21323e-27
1.9326e-27
1.25408e-26
1.72876e-24
2.74609e-22
3.82477e-20
4.68911e-18
5.14157e-16
3.90177e-14
2.45526e-12
5.91226e-09
1.02118e-07
1.50854e-07
7.94003e-08
8.67986e-11
6.64598e-11
6.30588e-11
6.39189e-11
4.80884e-11
1.4268e-10
5.73155e-10
1.53051e-09
2.35505e-09
2.36322e-09
1.44144e-09
7.00596e-10
2.50522e-10
6.84305e-11
3.88745e-11
1.11255e-10
1.86509e-10
1.85006e-10
2.78407e-10
3.16771e-10
2.46077e-10
6.05882e-11
3.18101e-11
2.99298e-11
4.24049e-11
8.00674e-11
8.01728e-11
1.58912e-09
3.09452e-09
2.3486e-09
1.0897e-10
4.87929e-11
7.41736e-09
2.9764e-09
5.16301e-11
2.58069e-13
7.56831e-15
1.0634e-16
1.0218e-18
8.99246e-21
3.66073e-22
8.78496e-23
2.84767e-23
9.68506e-24
3.50378e-24
1.36447e-24
5.68792e-25
2.51358e-25
1.16285e-25
5.55077e-26
2.68047e-26
1.27114e-26
5.50266e-27
1.46489e-27
5.94367e-27
1.19236e-29
1.01185e-30
4.67877e-30
9.53062e-30
1.65737e-29
2.72602e-29
4.26561e-29
6.65443e-29
8.91997e-29
1.20833e-28
1.8261e-28
3.1557e-28
4.11405e-29
4.58637e-29
2.62204e-27
4.69249e-25
7.33039e-23
1.02163e-20
1.51723e-18
2.8919e-16
5.1476e-14
4.863e-12
4.79632e-09
6.21341e-08
3.63477e-08
1.456e-09
6.30268e-11
6.24889e-11
5.79105e-11
4.82541e-11
3.0805e-11
1.61862e-11
1.3851e-11
9.71721e-10
2.37084e-09
2.46049e-09
1.74344e-09
7.07491e-10
1.48112e-10
3.48148e-11
6.59256e-11
1.48797e-10
1.41338e-10
1.26286e-10
8.76381e-11
2.64209e-11
1.08899e-11
8.46085e-12
9.611e-12
1.82935e-11
4.07823e-11
2.26443e-10
1.25804e-09
2.55889e-09
1.20067e-09
4.35242e-11
1.8967e-11
2.69728e-10
4.68941e-10
2.49079e-11
1.07209e-13
1.04137e-15
1.21037e-17
1.17439e-19
8.73438e-22
1.0074e-23
1.284e-24
3.57956e-25
1.10055e-25
3.57019e-26
1.25449e-26
4.76345e-27
1.93562e-27
8.31443e-28
3.72205e-28
1.703e-28
7.73166e-29
3.23541e-29
8.41334e-30
3.19085e-29
5.82292e-32
5.8636e-33
2.72024e-32
5.87743e-32
1.11072e-31
2.03979e-31
3.72131e-31
6.79773e-31
1.25199e-30
2.42398e-30
4.92387e-30
1.10597e-29
2.38233e-29
2.27335e-30
1.54461e-29
2.62204e-27
4.69249e-25
6.97085e-23
7.99897e-21
1.18823e-18
2.8919e-16
9.66224e-14
9.75688e-12
1.22982e-10
3.72719e-10
8.78276e-10
2.70594e-10
8.30999e-11
5.10825e-11
3.16168e-11
1.82977e-11
1.13063e-11
1.38586e-11
5.04473e-12
5.10552e-11
8.43219e-10
1.29391e-09
8.51343e-10
2.03115e-10
3.45307e-11
3.82929e-11
1.27673e-10
1.25402e-10
9.03116e-11
5.48223e-11
1.371e-11
3.77861e-12
2.52066e-12
3.36083e-12
7.53914e-12
1.74794e-11
6.90341e-11
2.95874e-10
5.76388e-10
1.476e-10
1.86041e-11
1.73602e-11
2.5649e-11
2.75141e-11
1.81161e-12
9.33129e-15
6.76318e-17
6.39676e-19
5.70679e-21
4.36472e-23
3.28371e-25
1.94298e-26
4.54483e-27
1.25666e-27
3.68877e-28
1.17879e-28
4.1057e-29
1.54363e-29
6.1898e-30
2.61055e-30
1.13596e-30
4.95201e-31
2.00761e-31
5.10833e-32
1.80965e-31
2.95072e-34
3.48377e-35
1.62349e-34
3.68839e-34
7.45498e-34
1.49243e-33
3.03568e-33
6.34663e-33
1.3841e-32
3.16899e-32
7.83972e-32
2.1201e-31
7.65069e-31
1.7761e-30
1.26458e-31
1.54461e-29
3.15669e-27
5.4247e-25
6.97812e-23
7.99897e-21
2.90734e-16
5.58415e-14
5.19254e-13
3.58551e-12
3.03433e-12
1.12382e-10
8.21168e-11
4.08351e-11
1.95379e-11
9.15616e-12
4.25661e-12
2.26534e-12
2.4272e-12
5.00765e-12
1.26237e-11
1.59495e-11
7.05263e-11
1.07057e-10
9.08694e-11
3.44273e-11
2.08741e-11
1.03752e-10
1.19318e-10
6.01123e-11
3.49373e-11
8.85269e-12
1.73292e-12
7.33865e-13
7.85112e-13
1.89964e-12
3.71067e-12
7.58507e-12
1.60411e-11
2.19951e-11
9.95192e-12
7.71806e-12
5.31538e-12
2.32338e-12
5.74717e-13
2.303e-14
1.76321e-16
1.53007e-18
1.42991e-20
1.26347e-22
1.01289e-24
7.88282e-27
2.9064e-28
5.72738e-29
1.42757e-29
3.82632e-30
1.12211e-30
3.61194e-31
1.26448e-31
4.7588e-32
1.89935e-32
7.88907e-33
3.31175e-33
1.30358e-33
3.25065e-34
1.07394e-33
1.53335e-36
2.11294e-37
9.89402e-37
2.35077e-36
5.03633e-36
1.08325e-35
2.40522e-35
5.60333e-35
1.38429e-34
3.64909e-34
1.04741e-33
3.28099e-33
1.18548e-32
9.46691e-32
1.12381e-32
1.26458e-31
2.80295e-29
6.70474e-27
1.22915e-23
1.53401e-21
1.797e-17
3.61663e-15
7.37976e-14
3.34923e-13
1.02224e-12
2.51495e-12
4.28717e-12
2.97561e-12
1.4064e-12
6.01098e-13
2.58988e-13
2.35282e-13
4.25697e-13
1.65e-12
7.64495e-12
2.27354e-11
3.74566e-11
3.99626e-11
3.66647e-11
2.4986e-11
1.43765e-11
7.55604e-11
1.19395e-10
4.6321e-11
2.35163e-11
6.45786e-12
1.03422e-12
2.17976e-13
1.08294e-13
1.93299e-13
4.28019e-13
7.29286e-13
1.03455e-12
1.16847e-12
1.35317e-12
1.25031e-12
3.94817e-13
8.45581e-14
9.68197e-15
2.38967e-16
1.99598e-18
2.12888e-20
2.10564e-22
1.92523e-24
1.58475e-26
1.30435e-28
4.11003e-30
7.05719e-31
1.59747e-31
3.94031e-32
1.06965e-32
3.20578e-33
1.05169e-33
3.73498e-34
1.41724e-34
5.64025e-35
2.28693e-35
8.75996e-36
2.1441e-36
6.59624e-36
8.08206e-39
1.29997e-39
6.11381e-39
1.51385e-38
3.41951e-38
7.8382e-38
1.87651e-37
4.77414e-37
1.30633e-36
3.86766e-36
1.25547e-35
4.47914e-35
1.77715e-34
9.00657e-34
9.88253e-33
3.65849e-32
7.48076e-30
1.74902e-27
3.89207e-25
6.60927e-23
1.7798e-19
4.17999e-17
1.84629e-15
2.06229e-14
6.2687e-14
4.80075e-14
5.54394e-14
4.1151e-14
1.91722e-14
7.84053e-15
8.34249e-15
2.68626e-14
1.4487e-13
7.14938e-13
2.84987e-12
1.01951e-11
2.42524e-11
3.239e-11
3.12182e-11
2.36336e-11
1.30921e-11
5.34988e-11
1.18658e-10
4.34715e-11
1.74103e-11
5.22382e-12
7.64478e-13
1.31441e-13
2.02154e-14
7.53467e-15
1.04249e-14
2.33244e-14
3.88177e-14
5.32138e-14
7.20702e-14
3.72214e-14
7.25717e-15
1.58048e-15
1.76237e-16
3.97826e-18
3.18671e-20
3.0007e-22
2.73245e-24
2.46028e-26
1.99309e-28
1.68313e-30
5.34069e-32
8.37608e-33
1.73994e-33
3.98288e-34
1.00959e-34
2.83878e-35
8.78469e-36
2.96072e-36
1.07319e-36
4.10856e-37
1.61413e-37
6.03106e-38
1.45125e-38
4.15148e-38
4.27768e-41
8.05388e-42
3.80127e-41
9.78494e-41
2.32246e-40
5.64641e-40
1.44764e-39
3.9816e-39
1.1889e-38
3.87664e-38
1.39752e-37
5.57895e-37
2.47727e-36
1.20175e-35
1.9112e-34
2.169e-33
1.48939e-31
3.3433e-29
4.61712e-27
8.46797e-25
1.96206e-21
3.38183e-19
1.09602e-17
3.1136e-16
8.42686e-16
7.36382e-16
5.11686e-16
3.05193e-16
1.31426e-16
1.90844e-16
1.32845e-15
1.1415e-14
6.80153e-14
3.08661e-13
1.1932e-12
4.0174e-12
1.11953e-11
2.15873e-11
2.34668e-11
1.88755e-11
1.18447e-11
4.23128e-11
1.04817e-10
4.45193e-11
1.43468e-11
4.57488e-12
6.13906e-13
1.0234e-13
1.35376e-14
1.29605e-15
1.65072e-16
1.06327e-16
2.58562e-16
5.20946e-16
7.01713e-16
2.15942e-16
6.73331e-17
2.34051e-17
2.77404e-18
6.23123e-20
4.8676e-22
4.3161e-24
3.61709e-26
2.90066e-28
2.18135e-30
1.84558e-32
6.35994e-34
9.46918e-35
1.8261e-35
3.91546e-36
9.34847e-37
2.48508e-37
7.30233e-38
2.34902e-38
8.17342e-39
3.02223e-39
1.15418e-39
4.21687e-40
9.99171e-41
2.65361e-40
2.2493e-43
5.03297e-44
2.35833e-43
6.30247e-43
1.56803e-42
4.0309e-42
1.10235e-41
3.26186e-41
1.05413e-40
3.69712e-40
1.4266e-39
6.0642e-39
2.84727e-38
1.4723e-37
8.81534e-37
1.40896e-35
1.12298e-33
2.56458e-31
4.52326e-29
7.74921e-27
1.62279e-23
1.49108e-21
9.69193e-20
2.60316e-18
7.51694e-18
8.01007e-18
4.90011e-18
2.21469e-18
4.41678e-18
4.96181e-17
6.18259e-16
5.6666e-15
3.46655e-14
1.58168e-13
6.0484e-13
2.01792e-12
5.92911e-12
1.32814e-11
1.58464e-11
1.2836e-11
1.02385e-11
3.74067e-11
8.7507e-11
4.46634e-11
1.18391e-11
3.91032e-12
4.98192e-13
7.82891e-14
9.98482e-15
8.96358e-16
6.3862e-17
4.2644e-18
1.6483e-19
5.21038e-19
5.65856e-19
9.14048e-19
6.32346e-19
2.92098e-19
3.53224e-20
8.11417e-22
6.39042e-24
5.56876e-26
4.48712e-28
3.40407e-30
2.37364e-32
1.88163e-34
6.92458e-36
1.00725e-36
1.83202e-37
3.71638e-38
8.42914e-39
2.1344e-39
5.99469e-40
1.851e-40
6.21243e-41
2.22764e-41
8.29633e-42
2.97114e-42
6.94331e-43
1.70895e-42
1.16403e-45
3.1347e-46
1.43782e-45
3.97791e-45
1.02912e-44
2.76124e-44
7.90631e-44
2.4518e-43
8.30579e-43
3.07497e-42
1.25111e-41
5.58597e-41
2.73419e-40
1.47337e-39
8.85017e-39
8.71497e-38
8.94436e-36
2.07921e-33
3.61656e-31
5.20427e-29
4.75477e-26
1.60316e-23
9.86202e-22
1.78531e-20
6.34087e-20
6.7639e-20
3.37829e-20
9.19164e-20
1.27612e-18
2.1475e-17
2.97929e-16
2.99422e-15
1.94996e-14
9.36439e-14
3.70406e-13
1.26106e-12
3.83533e-12
9.51446e-12
1.20111e-11
9.53054e-12
9.2076e-12
3.5858e-11
7.93553e-11
3.20654e-11
9.10579e-12
2.89275e-12
3.88281e-13
5.94426e-14
7.00937e-15
5.75895e-16
3.66825e-17
2.08915e-18
1.11108e-19
3.18922e-21
1.34945e-21
3.62242e-21
1.89254e-21
3.01643e-21
3.63041e-22
8.79784e-24
7.21785e-26
6.32491e-28
5.01094e-30
3.68586e-32
2.46496e-34
1.89288e-36
7.08972e-38
1.00407e-38
1.7447e-39
3.38584e-40
7.35527e-41
1.78709e-41
4.82849e-42
1.43909e-42
4.68097e-43
1.63417e-43
5.95407e-44
2.09511e-44
4.83681e-45
1.10087e-44
5.89107e-48
1.85663e-48
8.35816e-48
2.37635e-47
6.32902e-47
1.7545e-46
5.20671e-46
1.67668e-45
5.90296e-45
2.27558e-44
9.64202e-44
4.47661e-43
2.27126e-42
1.26127e-41
7.78549e-41
7.12972e-40
6.33802e-38
1.37795e-35
1.99781e-33
2.07961e-31
4.84576e-29
1.82245e-25
7.61711e-24
8.38217e-23
4.37214e-22
3.76703e-22
1.48672e-21
2.69629e-20
5.18266e-19
9.62797e-18
1.5489e-16
1.72765e-15
1.19864e-14
6.03938e-14
2.47023e-13
8.72445e-13
2.86177e-12
7.32174e-12
8.55158e-12
6.76664e-12
8.50818e-12
3.59521e-11
7.53183e-11
2.2806e-11
6.74692e-12
1.95786e-12
2.83709e-13
4.4002e-14
4.72085e-15
3.54248e-16
1.93748e-17
9.89372e-19
4.79244e-20
1.8951e-21
2.77517e-23
2.48157e-23
1.17038e-23
2.10038e-23
2.96603e-24
7.88838e-26
7.00635e-28
6.32633e-30
5.0186e-32
3.63254e-34
2.36662e-36
1.78436e-38
6.76878e-40
9.3455e-41
1.57002e-41
2.94462e-42
6.18488e-43
1.451e-43
3.79454e-44
1.09759e-44
3.47612e-45
1.18604e-45
4.24058e-46
1.46949e-46
3.36087e-47
7.04375e-47
2.89827e-50
1.05739e-50
4.6807e-50
1.3599e-49
3.70281e-49
1.05233e-48
3.211e-48
1.06559e-47
3.87236e-47
1.54196e-46
6.7458e-46
3.22845e-45
1.68356e-44
9.55035e-44
5.93882e-43
5.10259e-42
3.64754e-40
6.50326e-38
8.66268e-36
1.92436e-33
4.41816e-31
1.66986e-27
4.34442e-26
2.00081e-25
2.11888e-24
1.60391e-23
4.24177e-22
1.06253e-20
2.2385e-19
4.61961e-18
8.32596e-17
9.95389e-16
7.13472e-15
3.67177e-14
1.52972e-13
5.77117e-13
2.11154e-12
5.0681e-12
5.16011e-12
4.78669e-12
8.78275e-12
3.79702e-11
7.15664e-11
1.74181e-11
5.82894e-12
1.60232e-12
2.04636e-13
3.05329e-14
3.07273e-15
2.04438e-16
9.75722e-18
4.35557e-19
1.88864e-20
7.07313e-22
1.91822e-23
2.14881e-25
8.31357e-26
1.24665e-25
1.92741e-26
5.71018e-28
5.81004e-30
5.56214e-32
4.50312e-34
3.25578e-36
2.09214e-38
1.56273e-40
6.01854e-42
8.15393e-43
1.33251e-43
2.4278e-44
4.95444e-45
1.13172e-45
2.88587e-46
8.15511e-47
2.52891e-47
8.47024e-48
2.98119e-48
1.01834e-48
2.32854e-49
4.44508e-49
1.37812e-52
5.81958e-53
2.53421e-52
7.49482e-52
2.07722e-51
6.02e-51
1.87734e-50
6.37906e-50
2.37597e-49
9.70064e-49
4.34555e-48
2.12437e-47
1.1269e-46
6.45328e-46
3.98648e-45
3.08397e-44
1.5716e-42
2.5467e-40
6.89256e-38
1.5378e-35
3.44916e-33
9.49407e-30
1.76565e-28
5.91838e-28
8.90425e-26
3.56678e-24
1.2997e-22
3.71566e-21
8.9847e-20
2.03623e-18
3.88995e-17
4.80485e-16
3.46073e-15
1.79808e-14
7.78837e-14
3.25751e-13
1.29595e-12
2.6584e-12
2.50086e-12
3.95713e-12
1.10133e-11
4.06471e-11
6.33246e-11
1.57641e-11
5.89318e-12
1.47955e-12
1.50455e-13
2.00132e-14
1.91029e-15
1.05604e-16
4.35353e-18
1.74464e-19
6.64218e-21
2.2064e-22
6.02472e-24
1.1754e-25
8.90297e-28
8.06513e-28
1.3388e-28
3.13486e-30
4.0745e-32
4.28921e-34
3.6168e-36
2.65152e-38
1.70125e-40
1.27031e-42
4.98366e-44
6.67309e-45
1.06811e-45
1.90249e-46
3.79349e-47
8.47395e-48
2.11518e-48
5.86115e-49
1.78632e-49
5.8964e-50
2.05162e-50
6.93614e-51
1.58193e-51
2.75532e-51
6.30078e-55
3.09011e-55
1.32353e-54
3.97178e-54
1.11639e-53
3.28443e-53
1.04122e-52
3.60042e-52
1.36491e-51
5.66921e-51
2.57804e-50
1.27496e-49
6.80416e-49
3.88481e-48
2.3487e-47
1.57571e-46
6.18937e-45
1.68237e-42
4.95654e-40
1.13254e-37
2.19135e-35
3.54005e-32
4.81174e-31
9.21677e-29
8.79343e-27
5.22992e-25
2.33552e-23
8.31889e-22
2.53867e-20
7.85234e-19
1.75772e-17
2.22849e-16
1.63318e-15
8.91907e-15
4.10397e-14
1.78064e-13
6.49108e-13
1.08226e-12
1.2297e-12
5.53974e-12
1.34041e-11
4.21218e-11
5.07728e-11
1.41347e-11
5.13132e-12
1.19742e-12
1.02369e-13
1.32406e-14
1.1438e-15
5.51779e-17
1.87731e-18
6.30118e-20
2.07428e-21
5.97782e-23
1.44945e-24
2.85742e-26
4.26233e-28
4.26574e-30
9.94613e-31
2.81039e-32
2.42167e-34
2.93594e-36
2.63005e-38
1.97958e-40
1.28074e-42
9.61547e-45
3.84228e-46
5.11907e-47
8.08196e-48
1.41636e-48
2.77583e-49
6.09412e-50
1.49571e-50
4.0803e-51
1.22654e-51
4.00255e-52
1.38048e-52
4.6318e-53
1.05533e-53
1.6698e-53