/*--------------------------------*- C++ -*----------------------------------*\
| =========                 |                                                 |
| \\      /  F ield         | OpenFOAM: The Open Source CFD Toolbox           |
|  \\    /   O peration     | Version:  2412                                  |
|   \\  /    A nd           | Website:  www.openfoam.com                      |
|    \\/     M anipulation  |                                                 |
\*---------------------------------------------------------------------------*/
FoamFile
{
    version     2.0;
    format      ascii;
    arch        "LSB;label=32;scalar=64";
    class       volScalarField;
    location    "8.3";
    object      p;
}
// * * * * * * * * * * * * * * * * * * * * * * * * * * * * * * * * * * * * * //

dimensions      [1 -1 -2 0 0 0 0];

internalField   nonuniform List<scalar> 
6400
(
8166.78
8166.8
8166.8
8166.75
8166.66
8166.52
8166.34
8166.13
8165.89
8165.63
8165.33
8165.02
8164.68
8164.32
8163.95
8163.56
8163.16
8162.76
8162.34
8161.92
8161.5
8161.08
8160.67
8160.26
8159.86
8159.47
8159.1
8158.75
8158.42
8158.1
8157.82
8157.55
8157.32
8157.11
8156.93
8156.78
8156.66
8156.57
8156.51
8156.48
8156.48
8156.51
8156.57
8156.66
8156.78
8156.93
8157.11
8157.32
8157.56
8157.83
8158.12
8158.43
8158.77
8159.12
8159.5
8159.89
8160.29
8160.71
8161.13
8161.55
8161.98
8162.41
8162.83
8163.25
8163.65
8164.05
8164.43
8164.79
8165.14
8165.46
8165.76
8166.03
8166.28
8166.49
8166.67
8166.82
8166.91
8166.97
8166.97
8166.95
7749.84
7749.86
7749.85
7749.8
7749.71
7749.57
7749.4
7749.2
7748.96
7748.69
7748.4
7748.09
7747.75
7747.39
7747.02
7746.64
7746.24
7745.83
7745.42
7745
7744.58
7744.16
7743.75
7743.34
7742.94
7742.56
7742.19
7741.84
7741.5
7741.19
7740.9
7740.64
7740.4
7740.19
7740.01
7739.86
7739.74
7739.65
7739.59
7739.56
7739.56
7739.59
7739.65
7739.75
7739.87
7740.02
7740.2
7740.41
7740.65
7740.92
7741.21
7741.52
7741.86
7742.21
7742.59
7742.98
7743.38
7743.79
7744.21
7744.64
7745.06
7745.49
7745.91
7746.32
7746.73
7747.12
7747.5
7747.87
7748.21
7748.53
7748.83
7749.1
7749.34
7749.55
7749.73
7749.87
7749.96
7750.01
7750.02
7750
7332.92
7332.94
7332.93
7332.88
7332.79
7332.66
7332.49
7332.28
7332.05
7331.78
7331.49
7331.17
7330.84
7330.48
7330.11
7329.72
7329.32
7328.91
7328.49
7328.07
7327.65
7327.23
7326.82
7326.41
7326.02
7325.63
7325.26
7324.91
7324.57
7324.26
7323.97
7323.71
7323.47
7323.26
7323.08
7322.93
7322.8
7322.71
7322.65
7322.62
7322.62
7322.65
7322.71
7322.81
7322.93
7323.08
7323.27
7323.48
7323.72
7323.98
7324.28
7324.59
7324.93
7325.29
7325.66
7326.05
7326.46
7326.87
7327.29
7327.72
7328.14
7328.57
7328.99
7329.41
7329.82
7330.21
7330.59
7330.96
7331.3
7331.62
7331.92
7332.19
7332.43
7332.64
7332.81
7332.95
7333.04
7333.09
7333.1
7333.08
6916.04
6916.07
6916.06
6916.01
6915.91
6915.78
6915.61
6915.41
6915.17
6914.9
6914.61
6914.29
6913.95
6913.59
6913.21
6912.81
6912.41
6912
6911.58
6911.15
6910.73
6910.3
6909.89
6909.48
6909.07
6908.69
6908.31
6907.96
6907.62
6907.3
6907.01
6906.74
6906.5
6906.29
6906.11
6905.95
6905.83
6905.74
6905.68
6905.64
6905.64
6905.68
6905.74
6905.83
6905.96
6906.11
6906.3
6906.51
6906.76
6907.03
6907.32
6907.64
6907.98
6908.34
6908.72
6909.11
6909.52
6909.94
6910.36
6910.79
6911.23
6911.66
6912.09
6912.51
6912.92
6913.32
6913.7
6914.07
6914.42
6914.74
6915.04
6915.31
6915.55
6915.76
6915.94
6916.07
6916.17
6916.22
6916.23
6916.2
6499.21
6499.24
6499.23
6499.17
6499.08
6498.94
6498.77
6498.56
6498.32
6498.05
6497.75
6497.43
6497.08
6496.71
6496.33
6495.93
6495.51
6495.09
6494.66
6494.23
6493.8
6493.37
6492.95
6492.53
6492.12
6491.73
6491.35
6490.99
6490.64
6490.32
6490.03
6489.75
6489.51
6489.29
6489.11
6488.95
6488.82
6488.73
6488.67
6488.64
6488.64
6488.67
6488.73
6488.83
6488.95
6489.11
6489.3
6489.52
6489.77
6490.04
6490.34
6490.66
6491.01
6491.38
6491.76
6492.16
6492.57
6493
6493.43
6493.87
6494.31
6494.75
6495.18
6495.61
6496.03
6496.44
6496.83
6497.2
6497.56
6497.89
6498.19
6498.47
6498.71
6498.92
6499.1
6499.24
6499.34
6499.39
6499.4
6499.38
6082.43
6082.45
6082.44
6082.38
6082.28
6082.14
6081.96
6081.75
6081.5
6081.22
6080.92
6080.58
6080.23
6079.85
6079.46
6079.05
6078.63
6078.2
6077.76
6077.32
6076.88
6076.44
6076
6075.57
6075.16
6074.75
6074.37
6074
6073.65
6073.32
6073.01
6072.74
6072.49
6072.27
6072.08
6071.92
6071.79
6071.69
6071.63
6071.59
6071.6
6071.63
6071.69
6071.79
6071.92
6072.08
6072.27
6072.49
6072.75
6073.03
6073.33
6073.66
6074.02
6074.39
6074.78
6075.19
6075.62
6076.05
6076.49
6076.94
6077.39
6077.84
6078.28
6078.72
6079.15
6079.57
6079.97
6080.36
6080.72
6081.06
6081.37
6081.65
6081.9
6082.12
6082.3
6082.44
6082.55
6082.61
6082.62
6082.6
5665.7
5665.71
5665.69
5665.63
5665.52
5665.37
5665.19
5664.97
5664.71
5664.43
5664.11
5663.77
5663.4
5663.01
5662.61
5662.18
5661.75
5661.3
5660.85
5660.4
5659.95
5659.49
5659.05
5658.61
5658.18
5657.76
5657.36
5656.98
5656.63
5656.29
5655.98
5655.69
5655.44
5655.21
5655.02
5654.85
5654.72
5654.62
5654.56
5654.52
5654.52
5654.56
5654.62
5654.72
5654.86
5655.02
5655.22
5655.44
5655.7
5655.99
5656.3
5656.64
5657
5657.39
5657.79
5658.21
5658.65
5659.09
5659.55
5660.01
5660.47
5660.94
5661.39
5661.85
5662.29
5662.72
5663.14
5663.53
5663.9
5664.25
5664.58
5664.87
5665.13
5665.35
5665.54
5665.69
5665.8
5665.87
5665.89
5665.87
5249
5249.01
5248.99
5248.91
5248.8
5248.64
5248.45
5248.22
5247.95
5247.66
5247.33
5246.97
5246.59
5246.19
5245.77
5245.33
5244.88
5244.42
5243.95
5243.48
5243.01
5242.54
5242.08
5241.63
5241.19
5240.76
5240.35
5239.95
5239.58
5239.24
5238.92
5238.62
5238.36
5238.13
5237.93
5237.76
5237.62
5237.52
5237.45
5237.42
5237.42
5237.46
5237.52
5237.63
5237.76
5237.93
5238.13
5238.36
5238.63
5238.92
5239.25
5239.6
5239.97
5240.37
5240.79
5241.22
5241.67
5242.13
5242.6
5243.08
5243.56
5244.04
5244.51
5244.98
5245.44
5245.89
5246.32
5246.73
5247.11
5247.48
5247.81
5248.11
5248.38
5248.62
5248.82
5248.97
5249.09
5249.17
5249.19
5249.18
4832.36
4832.36
4832.32
4832.24
4832.12
4831.95
4831.75
4831.51
4831.23
4830.92
4830.57
4830.2
4829.8
4829.38
4828.94
4828.49
4828.02
4827.54
4827.05
4826.56
4826.07
4825.59
4825.11
4824.64
4824.18
4823.74
4823.31
4822.9
4822.52
4822.16
4821.83
4821.52
4821.25
4821.01
4820.8
4820.63
4820.49
4820.39
4820.32
4820.29
4820.29
4820.32
4820.39
4820.5
4820.63
4820.81
4821.01
4821.26
4821.53
4821.83
4822.17
4822.53
4822.92
4823.33
4823.77
4824.22
4824.68
4825.16
4825.65
4826.15
4826.65
4827.14
4827.64
4828.13
4828.61
4829.07
4829.52
4829.95
4830.35
4830.73
4831.08
4831.39
4831.67
4831.92
4832.13
4832.3
4832.43
4832.51
4832.54
4832.54
4415.76
4415.75
4415.7
4415.61
4415.48
4415.3
4415.08
4414.83
4414.54
4414.21
4413.85
4413.46
4413.04
4412.6
4412.14
4411.66
4411.17
4410.67
4410.16
4409.65
4409.14
4408.63
4408.13
4407.64
4407.16
4406.7
4406.25
4405.83
4405.43
4405.05
4404.71
4404.39
4404.11
4403.86
4403.65
4403.47
4403.33
4403.22
4403.15
4403.11
4403.11
4403.15
4403.22
4403.33
4403.47
4403.65
4403.86
4404.11
4404.4
4404.71
4405.06
4405.44
4405.84
4406.27
4406.72
4407.2
4407.68
4408.18
4408.69
4409.21
4409.73
4410.25
4410.77
4411.28
4411.78
4412.27
4412.74
4413.19
4413.61
4414.01
4414.37
4414.7
4415
4415.26
4415.48
4415.66
4415.8
4415.9
4415.94
4415.95
3999.2
3999.18
3999.12
3999.02
3998.87
3998.68
3998.46
3998.19
3997.88
3997.53
3997.15
3996.74
3996.3
3995.84
3995.35
3994.84
3994.33
3993.8
3993.27
3992.73
3992.2
3991.67
3991.14
3990.63
3990.13
3989.64
3989.17
3988.73
3988.31
3987.92
3987.56
3987.23
3986.94
3986.68
3986.46
3986.27
3986.13
3986.02
3985.94
3985.91
3985.91
3985.94
3986.02
3986.13
3986.27
3986.46
3986.68
3986.93
3987.23
3987.56
3987.92
3988.32
3988.74
3989.19
3989.66
3990.16
3990.67
3991.19
3991.73
3992.27
3992.82
3993.37
3993.91
3994.45
3994.97
3995.49
3995.98
3996.45
3996.9
3997.32
3997.7
3998.05
3998.37
3998.64
3998.88
3999.07
3999.22
3999.33
3999.39
3999.4
3582.69
3582.66
3582.59
3582.47
3582.31
3582.11
3581.87
3581.58
3581.26
3580.89
3580.49
3580.06
3579.59
3579.09
3578.58
3578.05
3577.5
3576.94
3576.38
3575.82
3575.25
3574.69
3574.14
3573.6
3573.08
3572.57
3572.08
3571.61
3571.17
3570.76
3570.38
3570.03
3569.72
3569.46
3569.23
3569.04
3568.89
3568.77
3568.7
3568.66
3568.66
3568.7
3568.78
3568.89
3569.04
3569.23
3569.45
3569.72
3570.03
3570.37
3570.75
3571.17
3571.61
3572.09
3572.59
3573.1
3573.64
3574.19
3574.76
3575.33
3575.91
3576.48
3577.06
3577.63
3578.18
3578.72
3579.24
3579.74
3580.22
3580.66
3581.07
3581.44
3581.77
3582.06
3582.31
3582.52
3582.68
3582.8
3582.88
3582.91
3166.24
3166.19
3166.09
3165.96
3165.79
3165.57
3165.31
3165.02
3164.67
3164.29
3163.86
3163.4
3162.9
3162.38
3161.83
3161.26
3160.68
3160.09
3159.5
3158.9
3158.31
3157.72
3157.13
3156.56
3156.01
3155.47
3154.96
3154.46
3154
3153.56
3153.16
3152.8
3152.47
3152.19
3151.96
3151.76
3151.61
3151.49
3151.42
3151.38
3151.38
3151.42
3151.5
3151.61
3151.76
3151.96
3152.19
3152.47
3152.79
3153.15
3153.55
3153.99
3154.46
3154.96
3155.49
3156.03
3156.6
3157.18
3157.78
3158.38
3158.99
3159.61
3160.21
3160.81
3161.4
3161.98
3162.53
3163.06
3163.56
3164.03
3164.47
3164.86
3165.21
3165.52
3165.79
3166.01
3166.18
3166.32
3166.42
3166.47
2749.83
2749.76
2749.64
2749.49
2749.31
2749.08
2748.81
2748.49
2748.13
2747.72
2747.27
2746.78
2746.24
2745.68
2745.09
2744.49
2743.87
2743.25
2742.62
2741.99
2741.36
2740.73
2740.12
2739.51
2738.93
2738.36
2737.81
2737.29
2736.79
2736.33
2735.91
2735.52
2735.18
2734.89
2734.65
2734.45
2734.29
2734.17
2734.1
2734.06
2734.06
2734.1
2734.18
2734.29
2734.45
2734.65
2734.88
2735.17
2735.5
2735.88
2736.31
2736.77
2737.27
2737.81
2738.36
2738.94
2739.54
2740.16
2740.79
2741.43
2742.08
2742.73
2743.38
2744.01
2744.64
2745.25
2745.84
2746.41
2746.95
2747.45
2747.91
2748.32
2748.7
2749.02
2749.3
2749.54
2749.73
2749.89
2750
2750.08
2333.47
2333.37
2333.23
2333.07
2332.87
2332.63
2332.35
2332.01
2331.63
2331.2
2330.72
2330.19
2329.62
2329.01
2328.38
2327.73
2327.07
2326.41
2325.74
2325.07
2324.4
2323.74
2323.08
2322.44
2321.82
2321.22
2320.64
2320.09
2319.56
2319.07
2318.62
2318.21
2317.85
2317.54
2317.29
2317.09
2316.93
2316.81
2316.74
2316.7
2316.7
2316.74
2316.82
2316.94
2317.09
2317.29
2317.53
2317.82
2318.17
2318.58
2319.03
2319.52
2320.06
2320.63
2321.22
2321.83
2322.47
2323.12
2323.79
2324.48
2325.17
2325.86
2326.55
2327.23
2327.9
2328.55
2329.18
2329.79
2330.36
2330.9
2331.39
2331.83
2332.23
2332.57
2332.87
2333.11
2333.32
2333.49
2333.63
2333.74
1917.15
1917.01
1916.85
1916.68
1916.48
1916.23
1915.93
1915.59
1915.19
1914.73
1914.21
1913.64
1913.02
1912.36
1911.68
1910.98
1910.27
1909.57
1908.86
1908.15
1907.44
1906.73
1906.03
1905.36
1904.7
1904.06
1903.45
1902.85
1902.29
1901.76
1901.28
1900.84
1900.46
1900.14
1899.88
1899.69
1899.53
1899.41
1899.34
1899.3
1899.3
1899.34
1899.42
1899.54
1899.7
1899.89
1900.13
1900.43
1900.79
1901.22
1901.71
1902.24
1902.81
1903.42
1904.05
1904.7
1905.37
1906.06
1906.78
1907.52
1908.25
1908.99
1909.72
1910.45
1911.16
1911.86
1912.55
1913.2
1913.82
1914.39
1914.91
1915.38
1915.8
1916.17
1916.47
1916.73
1916.95
1917.13
1917.3
1917.45
1500.84
1500.68
1500.49
1500.32
1500.13
1499.88
1499.57
1499.21
1498.8
1498.32
1497.76
1497.13
1496.45
1495.74
1495
1494.24
1493.48
1492.73
1491.98
1491.23
1490.48
1489.72
1488.97
1488.24
1487.55
1486.88
1486.23
1485.59
1484.99
1484.42
1483.9
1483.42
1483.01
1482.68
1482.43
1482.24
1482.09
1481.98
1481.9
1481.86
1481.87
1481.91
1481.99
1482.11
1482.27
1482.45
1482.68
1482.97
1483.35
1483.81
1484.34
1484.91
1485.54
1486.19
1486.87
1487.55
1488.25
1488.98
1489.75
1490.54
1491.34
1492.13
1492.91
1493.68
1494.44
1495.2
1495.93
1496.64
1497.31
1497.92
1498.48
1498.99
1499.43
1499.81
1500.13
1500.39
1500.6
1500.78
1500.98
1501.16
1084.52
1084.33
1084.14
1083.99
1083.81
1083.56
1083.24
1082.88
1082.47
1081.97
1081.36
1080.67
1079.92
1079.14
1078.32
1077.48
1076.66
1075.87
1075.1
1074.31
1073.51
1072.69
1071.87
1071.1
1070.38
1069.68
1068.99
1068.3
1067.64
1067.03
1066.46
1065.93
1065.47
1065.13
1064.92
1064.77
1064.64
1064.53
1064.45
1064.41
1064.41
1064.45
1064.54
1064.67
1064.82
1064.98
1065.15
1065.42
1065.82
1066.33
1066.9
1067.54
1068.22
1068.94
1069.66
1070.39
1071.11
1071.87
1072.69
1073.56
1074.42
1075.26
1076.09
1076.91
1077.72
1078.54
1079.34
1080.12
1080.84
1081.5
1082.1
1082.64
1083.11
1083.5
1083.83
1084.1
1084.3
1084.45
1084.64
1084.84
667.99
667.814
667.751
667.715
667.605
667.356
666.995
666.635
666.267
665.782
665.107
664.3
663.453
662.598
661.69
660.718
659.818
659.012
658.227
657.416
656.559
655.65
654.735
653.899
653.184
652.471
651.717
650.956
650.233
649.572
648.941
648.321
647.772
647.422
647.295
647.231
647.127
647.007
646.908
646.865
646.872
646.911
647.01
647.165
647.324
647.444
647.506
647.697
648.152
648.734
649.38
650.091
650.855
651.648
652.452
653.212
653.911
654.676
655.593
656.582
657.528
658.424
659.293
660.151
661.015
661.908
662.812
663.686
664.485
665.19
665.817
666.393
666.911
667.307
667.619
667.904
668.081
668.095
668.107
668.279
266.485
266.955
267.423
267.637
267.7
267.565
267.269
267.004
266.763
266.399
265.77
265.029
264.376
263.846
263.169
262.238
261.448
260.827
260.222
259.59
258.948
258.328
257.773
257.155
256.317
255.513
254.862
254.295
253.807
253.42
253.057
252.672
252.288
252.015
251.844
251.564
251.182
250.835
250.603
250.49
250.484
250.581
250.787
251.115
251.544
251.939
252.184
252.408
252.742
253.093
253.457
253.881
254.388
254.936
255.6
256.475
257.369
257.893
258.385
259.018
259.701
260.405
261.116
261.802
262.482
263.293
264.238
265.03
265.552
265.968
266.402
266.876
267.313
267.647
267.947
268.172
268.161
267.82
267.231
266.758
31.3816
32.1339
32.6882
32.9599
33.0743
33.0826
33.0676
32.932
32.7297
32.528
32.3877
32.3039
32.2426
32.1302
32.0163
31.9334
31.7321
31.4449
31.165
30.8881
30.644
30.4741
30.343
30.0722
29.6877
29.2931
29.032
28.8676
28.7507
28.634
28.5074
28.4351
28.3364
28.1146
27.7107
27.248
26.873
26.6008
26.4363
26.344
26.3295
26.4136
26.5633
26.7894
27.1277
27.5632
28.1192
28.5069
28.6969
28.8214
28.928
28.9802
29.0607
29.1875
29.4056
29.7704
30.1963
30.5439
30.646
30.7326
30.9206
31.1687
31.4452
31.7165
31.9732
32.235
32.4299
32.6128
32.7437
32.8748
33.0294
33.1642
33.2748
33.3931
33.5057
33.4331
33.214
32.8811
32.3458
31.6104
-10.2959
-10.2935
-10.151
-10.0153
-9.99652
-10.0026
-9.87728
-9.90757
-10.0424
-10.1426
-9.90155
-9.59105
-9.37038
-9.40037
-9.28097
-8.71114
-8.50978
-8.56316
-8.62181
-8.69184
-8.77131
-8.84897
-8.96816
-9.20914
-8.92431
-8.85716
-8.87942
-8.90928
-8.95246
-9.10587
-9.30009
-9.39612
-9.50447
-9.73754
-10.1542
-10.4129
-10.4553
-10.4481
-10.4438
-10.4424
-10.4426
-10.4441
-10.4453
-10.446
-10.4445
-10.3398
-9.88691
-9.5233
-9.29422
-9.0876
-8.8941
-8.8477
-8.83227
-8.81472
-8.82436
-8.99279
-9.37195
-8.94213
-8.79914
-8.77869
-8.7705
-8.77266
-8.77009
-8.75574
-8.75814
-8.88852
-9.39547
-9.64225
-9.59608
-9.49568
-9.46081
-9.51339
-9.60218
-9.62786
-9.6673
-9.88849
-10.0514
-10.1183
-10.1396
-10.1372
-10.7628
-10.7778
-10.7452
-10.6733
-10.631
-10.6137
-10.5732
-10.565
-10.5699
-10.5859
-10.5326
-10.4103
-10.2419
-10.1609
-10.0352
-9.81251
-9.74378
-9.80478
-9.84331
-9.88674
-9.94894
-10.0163
-10.1008
-10.194
-10.1219
-10.1475
-10.1818
-10.2056
-10.2361
-10.3243
-10.4265
-10.4866
-10.5667
-10.7114
-10.8807
-10.9414
-10.9409
-10.9323
-10.9295
-10.9291
-10.9298
-10.931
-10.9323
-10.9369
-10.9457
-10.9292
-10.8024
-10.6106
-10.473
-10.357
-10.2456
-10.2132
-10.1994
-10.1831
-10.1622
-10.186
-10.3099
-10.1732
-10.1028
-10.0961
-10.1033
-10.1105
-10.1138
-10.1122
-10.1064
-10.1281
-10.2736
-10.3773
-10.4148
-10.4077
-10.4009
-10.3926
-10.3975
-10.3975
-10.4295
-10.5151
-10.5752
-10.605
-10.6143
-10.6129
-11.2904
-11.3167
-11.3014
-11.2427
-11.1989
-11.1801
-11.19
-11.213
-11.2005
-11.1857
-11.2066
-11.219
-11.1724
-11.1065
-10.95
-10.9003
-10.9933
-11.1341
-11.2109
-11.252
-11.2907
-11.3267
-11.3581
-11.3472
-11.4093
-11.4503
-11.4587
-11.4579
-11.4572
-11.4575
-11.4571
-11.459
-11.4598
-11.4571
-11.4498
-11.4452
-11.4402
-11.4325
-11.4278
-11.426
-11.426
-11.4269
-11.428
-11.4289
-11.429
-11.4287
-11.4393
-11.451
-11.4579
-11.4649
-11.4776
-11.492
-11.5052
-11.5123
-11.5055
-11.4657
-11.4196
-11.4693
-11.4492
-11.4328
-11.4184
-11.4068
-11.4028
-11.4008
-11.3822
-11.3315
-11.2174
-11.1846
-11.1977
-11.1913
-11.155
-11.1024
-11.0735
-11.0609
-11.0576
-11.0686
-11.0991
-11.1306
-11.1416
-11.1321
-11.8053
-11.8328
-11.8236
-11.7748
-11.7396
-11.7279
-11.7515
-11.7778
-11.7971
-11.8054
-11.812
-11.816
-11.8656
-11.9176
-11.8358
-11.7196
-11.7478
-11.8441
-11.9037
-11.9273
-11.9365
-11.9397
-11.9432
-11.9472
-11.9476
-11.9488
-11.9498
-11.949
-11.9475
-11.9462
-11.9451
-11.9441
-11.943
-11.9415
-11.9403
-11.9397
-11.9357
-11.9287
-11.924
-11.9211
-11.9195
-11.9191
-11.9202
-11.9224
-11.9234
-11.9245
-11.9289
-11.935
-11.9435
-11.9563
-11.9731
-11.9908
-12.0087
-12.023
-12.0301
-12.0365
-12.035
-12.0134
-11.9853
-11.9625
-11.9534
-11.9466
-11.9366
-11.9244
-11.9145
-11.8991
-11.8654
-11.81
-11.7597
-11.7278
-11.6996
-11.6597
-11.6248
-11.6069
-11.6033
-11.6236
-11.6524
-11.6795
-11.6866
-11.6665
-12.3008
-12.3136
-12.3065
-12.2818
-12.2646
-12.2648
-12.277
-12.291
-12.3103
-12.3467
-12.3828
-12.4106
-12.4403
-12.4831
-12.501
-12.4245
-12.3813
-12.3855
-12.4023
-12.4161
-12.4256
-12.4309
-12.4341
-12.4362
-12.4376
-12.4383
-12.4399
-12.4404
-12.4399
-12.4392
-12.4385
-12.4378
-12.4375
-12.4367
-12.4357
-12.4345
-12.43
-12.4243
-12.4205
-12.4179
-12.4171
-12.4178
-12.4189
-12.42
-12.4211
-12.4228
-12.4259
-12.43
-12.4364
-12.4477
-12.4628
-12.4754
-12.4826
-12.4878
-12.4996
-12.518
-12.526
-12.5221
-12.5094
-12.4946
-12.4819
-12.4725
-12.4588
-12.4373
-12.4112
-12.3858
-12.3572
-12.3162
-12.2729
-12.2405
-12.2209
-12.2149
-12.2062
-12.1919
-12.1841
-12.1912
-12.2105
-12.2279
-12.2279
-12.1973
-12.7846
-12.7876
-12.7914
-12.7847
-12.7854
-12.7992
-12.82
-12.8392
-12.8579
-12.8727
-12.9069
-12.9497
-12.9762
-13.0004
-13.042
-13.0148
-12.9584
-12.9171
-12.9015
-12.9057
-12.9145
-12.9199
-12.923
-12.9258
-12.928
-12.9296
-12.9307
-12.9309
-12.9303
-12.9295
-12.9285
-12.9279
-12.9277
-12.9267
-12.9267
-12.9268
-12.9237
-12.9201
-12.9173
-12.9152
-12.9147
-12.9146
-12.9144
-12.914
-12.9132
-12.9128
-12.9136
-12.9161
-12.921
-12.9301
-12.9452
-12.9631
-12.9779
-12.9918
-13.0032
-13.0122
-13.0193
-13.0239
-13.0222
-13.0154
-13.005
-12.9937
-12.9794
-12.9588
-12.9331
-12.9051
-12.8734
-12.8337
-12.7885
-12.7504
-12.7363
-12.7468
-12.7543
-12.7521
-12.7452
-12.74
-12.7504
-12.7575
-12.7476
-12.7201
-13.2804
-13.2885
-13.2985
-13.2959
-13.3094
-13.3349
-13.3585
-13.3736
-13.387
-13.4037
-13.4287
-13.4614
-13.4857
-13.5063
-13.5373
-13.537
-13.5107
-13.4711
-13.4278
-13.4093
-13.4092
-13.4124
-13.4141
-13.4164
-13.4191
-13.4211
-13.4224
-13.4227
-13.4224
-13.4218
-13.4211
-13.4204
-13.4202
-13.4198
-13.4199
-13.4194
-13.4175
-13.4154
-13.4133
-13.4116
-13.4109
-13.4102
-13.4089
-13.4073
-13.4057
-13.4044
-13.4038
-13.4043
-13.4075
-13.417
-13.435
-13.4585
-13.4832
-13.5047
-13.5213
-13.5353
-13.5421
-13.5408
-13.5378
-13.5307
-13.5236
-13.517
-13.5077
-13.4943
-13.4752
-13.4513
-13.425
-13.3898
-13.3422
-13.2915
-13.2668
-13.2652
-13.2718
-13.2723
-13.2732
-13.2796
-13.2857
-13.28
-13.2633
-13.2467
-13.7997
-13.8184
-13.8212
-13.8137
-13.8313
-13.8593
-13.8789
-13.8897
-13.9002
-13.9153
-13.9379
-13.9675
-13.9937
-14.0114
-14.0305
-14.0252
-13.9929
-13.9654
-13.9466
-13.9247
-13.91
-13.9079
-13.9072
-13.9083
-13.9111
-13.9137
-13.9152
-13.9157
-13.9154
-13.9149
-13.9142
-13.9132
-13.9126
-13.913
-13.9137
-13.9133
-13.9121
-13.9106
-13.9087
-13.9072
-13.9063
-13.9053
-13.9033
-13.9009
-13.8989
-13.8973
-13.8961
-13.8959
-13.8993
-13.9133
-13.9412
-13.9746
-14.0075
-14.0295
-14.0471
-14.058
-14.0586
-14.0514
-14.0458
-14.0413
-14.0371
-14.0329
-14.0272
-14.0191
-14.0042
-13.9825
-13.9589
-13.9324
-13.8955
-13.8476
-13.8114
-13.7939
-13.7877
-13.7863
-13.7889
-13.8093
-13.8248
-13.8135
-13.7892
-13.7891
-14.3233
-14.3401
-14.3451
-14.3389
-14.3497
-14.3732
-14.3893
-14.3993
-14.4101
-14.426
-14.4479
-14.4749
-14.5018
-14.5213
-14.5329
-14.5221
-14.4905
-14.4693
-14.4551
-14.4407
-14.4199
-14.4077
-14.4035
-14.4029
-14.4051
-14.4077
-14.4092
-14.4096
-14.4092
-14.4087
-14.4079
-14.4069
-14.4063
-14.4069
-14.408
-14.4081
-14.4074
-14.406
-14.4043
-14.4027
-14.4017
-14.4004
-14.3983
-14.3959
-14.3942
-14.393
-14.3922
-14.3926
-14.3984
-14.4193
-14.458
-14.5012
-14.5341
-14.5508
-14.5652
-14.572
-14.5735
-14.5716
-14.5676
-14.562
-14.5554
-14.5478
-14.5386
-14.5262
-14.5079
-14.485
-14.4638
-14.4471
-14.4287
-14.4023
-14.37
-14.3479
-14.3267
-14.3217
-14.3329
-14.3554
-14.3754
-14.3572
-14.3261
-14.3284
-14.8412
-14.855
-14.8653
-14.8679
-14.8715
-14.8837
-14.8957
-14.9077
-14.9205
-14.9379
-14.9605
-14.9872
-15.0139
-15.0351
-15.0479
-15.0419
-15.0103
-14.9814
-14.9641
-14.9492
-14.9333
-14.9128
-14.9038
-14.9002
-14.9012
-14.9033
-14.9044
-14.9045
-14.904
-14.9033
-14.9025
-14.9016
-14.901
-14.9019
-14.9033
-14.9037
-14.9032
-14.902
-14.9004
-14.8988
-14.8977
-14.8964
-14.8945
-14.8927
-14.892
-14.8919
-14.8924
-14.8947
-14.9037
-14.9311
-14.9788
-15.0285
-15.0573
-15.0684
-15.0805
-15.0921
-15.0986
-15.0993
-15.0949
-15.0875
-15.0781
-15.066
-15.0519
-15.035
-15.0137
-14.9901
-14.9701
-14.9572
-14.9508
-14.9476
-14.9374
-14.9191
-14.8977
-14.8893
-14.8988
-14.9141
-14.9259
-14.9005
-14.8721
-14.8594
-15.3634
-15.3724
-15.3826
-15.3895
-15.3929
-15.3966
-15.4027
-15.4149
-15.4303
-15.4493
-15.4732
-15.5011
-15.5292
-15.5517
-15.5652
-15.5638
-15.5351
-15.4968
-15.4727
-15.4557
-15.445
-15.4232
-15.4082
-15.4
-15.3994
-15.4005
-15.4009
-15.4005
-15.3998
-15.3989
-15.3979
-15.3969
-15.3963
-15.3975
-15.3995
-15.4002
-15.3996
-15.3985
-15.3971
-15.3957
-15.3947
-15.3936
-15.3923
-15.3915
-15.392
-15.3933
-15.3958
-15.4006
-15.4125
-15.4445
-15.4997
-15.5538
-15.5792
-15.5865
-15.5999
-15.6188
-15.6326
-15.636
-15.6305
-15.6193
-15.6044
-15.5873
-15.5684
-15.5479
-15.5251
-15.5022
-15.4834
-15.4718
-15.4695
-15.475
-15.4799
-15.4753
-15.4642
-15.4505
-15.442
-15.4466
-15.45
-15.4258
-15.3941
-15.3787
-15.8803
-15.8879
-15.8964
-15.9038
-15.9085
-15.9103
-15.9124
-15.9211
-15.9382
-15.9588
-15.9838
-16.013
-16.0429
-16.0666
-16.08
-16.0791
-16.052
-16.0064
-15.9752
-15.9617
-15.9546
-15.9366
-15.9152
-15.902
-15.8994
-15.899
-15.8983
-15.8973
-15.8962
-15.8951
-15.8939
-15.8929
-15.8921
-15.8937
-15.8967
-15.8977
-15.8969
-15.8955
-15.8943
-15.8933
-15.8929
-15.8925
-15.8917
-15.8919
-15.8937
-15.8965
-15.901
-15.9083
-15.9225
-15.9562
-16.0175
-16.0755
-16.1002
-16.1079
-16.1267
-16.1546
-16.1744
-16.1792
-16.1733
-16.1587
-16.1374
-16.1131
-16.0881
-16.0648
-16.042
-16.0202
-16.0012
-15.9877
-15.9821
-15.9826
-15.9854
-15.989
-15.9886
-15.9782
-15.9587
-15.9407
-15.9233
-15.896
-15.8756
-15.8726
-16.3909
-16.3978
-16.4045
-16.4118
-16.4183
-16.4231
-16.4238
-16.4279
-16.443
-16.4652
-16.4909
-16.5204
-16.552
-16.5772
-16.5901
-16.5873
-16.558
-16.5057
-16.4696
-16.4656
-16.4654
-16.4492
-16.4217
-16.4052
-16.4006
-16.3983
-16.3963
-16.3946
-16.393
-16.3917
-16.3904
-16.3896
-16.3883
-16.3903
-16.3946
-16.396
-16.3948
-16.3929
-16.3917
-16.3913
-16.3917
-16.3921
-16.3919
-16.3931
-16.3962
-16.4004
-16.4064
-16.4159
-16.4318
-16.4642
-16.5264
-16.5912
-16.6196
-16.6329
-16.6576
-16.6935
-16.7195
-16.7272
-16.7212
-16.7029
-16.6753
-16.6434
-16.6115
-16.5823
-16.5585
-16.5385
-16.5201
-16.5045
-16.4943
-16.4896
-16.4873
-16.4855
-16.4815
-16.4734
-16.4577
-16.4267
-16.3878
-16.3571
-16.3484
-16.3585
-16.8999
-16.9041
-16.9082
-16.9153
-16.9224
-16.9319
-16.9338
-16.9368
-16.9469
-16.9673
-16.9933
-17.0218
-17.0539
-17.0806
-17.0927
-17.0865
-17.0526
-16.9937
-16.9637
-16.9744
-16.9762
-16.9572
-16.9251
-16.908
-16.9017
-16.8975
-16.8944
-16.892
-16.8899
-16.8884
-16.887
-16.8861
-16.8853
-16.8868
-16.8924
-16.894
-16.8924
-16.8899
-16.8885
-16.8886
-16.8899
-16.8912
-16.8919
-16.8942
-16.8984
-16.9035
-16.9107
-16.9216
-16.9387
-16.9685
-17.0234
-17.093
-17.133
-17.1544
-17.1852
-17.2265
-17.2579
-17.2708
-17.2659
-17.2448
-17.2125
-17.175
-17.1367
-17.1012
-17.0728
-17.0524
-17.0356
-17.0196
-17.0058
-16.996
-16.9895
-16.9838
-16.977
-16.9672
-16.9511
-16.9256
-16.8934
-16.8664
-16.8538
-16.853
-17.4086
-17.4068
-17.4089
-17.4151
-17.4222
-17.4332
-17.4418
-17.4452
-17.4522
-17.4664
-17.4899
-17.5162
-17.5462
-17.5735
-17.5847
-17.5751
-17.5383
-17.4832
-17.473
-17.4888
-17.487
-17.4615
-17.4248
-17.4089
-17.4015
-17.3961
-17.3921
-17.3891
-17.3867
-17.3849
-17.3835
-17.3827
-17.3821
-17.3835
-17.3876
-17.3898
-17.3885
-17.3854
-17.384
-17.3844
-17.3863
-17.3885
-17.3904
-17.394
-17.3993
-17.4051
-17.4129
-17.4245
-17.4418
-17.4688
-17.5131
-17.5765
-17.6278
-17.6597
-17.6979
-17.7432
-17.7786
-17.7947
-17.7911
-17.7702
-17.7365
-17.6963
-17.6561
-17.6181
-17.5852
-17.5609
-17.5456
-17.5319
-17.5169
-17.5028
-17.4918
-17.4827
-17.4732
-17.4628
-17.4522
-17.4403
-17.427
-17.4113
-17.3956
-17.37
-17.9112
-17.9003
-17.9067
-17.9128
-17.9202
-17.9303
-17.9431
-17.9496
-17.9559
-17.9661
-17.9815
-18.0037
-18.0292
-18.0561
-18.066
-18.0559
-18.0231
-17.9886
-17.9913
-18.0004
-17.9962
-17.9604
-17.9223
-17.9081
-17.8998
-17.8937
-17.8892
-17.8857
-17.883
-17.8811
-17.8797
-17.8789
-17.8784
-17.8791
-17.8813
-17.883
-17.8824
-17.8792
-17.878
-17.8787
-17.8809
-17.8837
-17.887
-17.8922
-17.8985
-17.9047
-17.9127
-17.9244
-17.9411
-17.9652
-17.9999
-18.0506
-18.1031
-18.1447
-18.1882
-18.2345
-18.2732
-18.2911
-18.2905
-18.2714
-18.2383
-18.1981
-18.1594
-18.1248
-18.0928
-18.0659
-18.0495
-18.0394
-18.0266
-18.0111
-17.9959
-17.9834
-17.9718
-17.9605
-17.9506
-17.943
-17.9368
-17.932
-17.935
-17.9189
-18.4141
-18.3923
-18.4025
-18.4097
-18.4168
-18.4259
-18.437
-18.4482
-18.4539
-18.4646
-18.4711
-18.4867
-18.5072
-18.5305
-18.5398
-18.5326
-18.5113
-18.4991
-18.4996
-18.5066
-18.4914
-18.4492
-18.4181
-18.4051
-18.3966
-18.3903
-18.3854
-18.3817
-18.3788
-18.3767
-18.3752
-18.3743
-18.3741
-18.3742
-18.3744
-18.3748
-18.3742
-18.3723
-18.3712
-18.3723
-18.3746
-18.3778
-18.3821
-18.3887
-18.3959
-18.4024
-18.4102
-18.4216
-18.4372
-18.458
-18.4861
-18.5242
-18.5691
-18.613
-18.658
-18.7033
-18.7401
-18.7602
-18.7618
-18.7472
-18.719
-18.6816
-18.6455
-18.6158
-18.5917
-18.5676
-18.5483
-18.5401
-18.533
-18.5189
-18.5017
-18.4856
-18.4715
-18.4584
-18.447
-18.4372
-18.4298
-18.4281
-18.4311
-18.4402
-18.9021
-18.8943
-18.899
-18.9059
-18.9128
-18.9211
-18.9298
-18.9404
-18.9489
-18.9568
-18.9625
-18.9705
-18.9843
-19.0026
-19.0115
-19.0082
-18.9991
-18.9983
-18.9981
-18.9946
-18.9691
-18.9331
-18.9118
-18.9001
-18.892
-18.8857
-18.8808
-18.8769
-18.8739
-18.8717
-18.8701
-18.869
-18.8688
-18.8685
-18.8674
-18.8668
-18.8662
-18.8651
-18.8648
-18.866
-18.8683
-18.8716
-18.8764
-18.8836
-18.8915
-18.8983
-18.9059
-18.9165
-18.9308
-18.9491
-18.9721
-19.0011
-19.0358
-19.0734
-19.1131
-19.1526
-19.1859
-19.2067
-19.2121
-19.2035
-19.1813
-19.1518
-19.1219
-19.0953
-19.0796
-19.0626
-19.0455
-19.0362
-19.0344
-19.0243
-19.0077
-18.9889
-18.9718
-18.9559
-18.9422
-18.9313
-18.924
-18.9171
-18.9047
-18.9213
-19.398
-19.395
-19.396
-19.402
-19.4089
-19.4166
-19.4244
-19.4307
-19.4394
-19.4448
-19.4564
-19.4586
-19.4643
-19.4759
-19.4836
-19.4832
-19.4798
-19.4804
-19.4784
-19.4666
-19.4422
-19.4175
-19.4037
-19.3936
-19.3861
-19.3801
-19.3752
-19.3714
-19.3683
-19.366
-19.3644
-19.363
-19.3626
-19.3619
-19.3605
-19.3596
-19.3592
-19.3587
-19.359
-19.3602
-19.3624
-19.3657
-19.3703
-19.3772
-19.3854
-19.3925
-19.4
-19.4099
-19.4228
-19.4387
-19.4579
-19.4807
-19.5071
-19.5361
-19.5669
-19.5977
-19.6249
-19.6437
-19.6514
-19.6471
-19.6345
-19.6145
-19.5926
-19.5725
-19.5599
-19.552
-19.5409
-19.5297
-19.5312
-19.5262
-19.5115
-19.4925
-19.4723
-19.4532
-19.4369
-19.4244
-19.4157
-19.4062
-19.3913
-19.4061
-19.8917
-19.8909
-19.8928
-19.8983
-19.9054
-19.9134
-19.9213
-19.9249
-19.9282
-19.9316
-19.9478
-19.9488
-19.9476
-19.9523
-19.9569
-19.9573
-19.9554
-19.9539
-19.9487
-19.9362
-19.9192
-19.9043
-19.8943
-19.8859
-19.8791
-19.8734
-19.8688
-19.8651
-19.8622
-19.8598
-19.8581
-19.8566
-19.8558
-19.8549
-19.8537
-19.8529
-19.8529
-19.8529
-19.8535
-19.8547
-19.8569
-19.8601
-19.8643
-19.8704
-19.8779
-19.8853
-19.8929
-19.902
-19.9135
-19.9272
-19.9433
-19.9618
-19.9824
-20.0046
-20.0276
-20.0505
-20.071
-20.0865
-20.0948
-20.0952
-20.0888
-20.0771
-20.0632
-20.0498
-20.0403
-20.038
-20.0337
-20.0227
-20.0255
-20.0251
-20.0126
-19.9939
-19.9715
-19.9493
-19.9306
-19.9168
-19.9069
-19.8983
-19.8908
-19.8886
-20.3818
-20.3835
-20.388
-20.3943
-20.4026
-20.4123
-20.4209
-20.424
-20.4208
-20.4187
-20.4332
-20.436
-20.4327
-20.4329
-20.4341
-20.4337
-20.4318
-20.4289
-20.423
-20.4133
-20.4023
-20.3925
-20.3844
-20.3772
-20.3711
-20.366
-20.3618
-20.3583
-20.3554
-20.3531
-20.3513
-20.3498
-20.3488
-20.3478
-20.3469
-20.3465
-20.3467
-20.347
-20.3479
-20.349
-20.3512
-20.3544
-20.3581
-20.3633
-20.37
-20.3771
-20.3846
-20.3931
-20.4033
-20.4151
-20.4287
-20.4439
-20.4605
-20.4779
-20.4956
-20.5128
-20.5283
-20.5406
-20.5483
-20.551
-20.549
-20.5432
-20.5355
-20.5278
-20.5219
-20.5211
-20.5226
-20.5187
-20.5181
-20.5218
-20.5106
-20.4909
-20.4674
-20.4429
-20.4224
-20.4076
-20.3974
-20.3895
-20.3842
-20.3804
-20.8713
-20.8756
-20.8819
-20.8897
-20.9001
-20.9121
-20.9219
-20.9251
-20.9169
-20.9071
-20.9165
-20.9202
-20.9176
-20.9163
-20.9158
-20.9144
-20.9123
-20.9089
-20.9037
-20.8965
-20.8885
-20.881
-20.8741
-20.8679
-20.8626
-20.858
-20.8541
-20.8508
-20.8481
-20.8459
-20.8441
-20.8427
-20.8416
-20.8407
-20.8401
-20.8399
-20.8402
-20.8407
-20.8416
-20.843
-20.845
-20.8483
-20.8517
-20.8562
-20.862
-20.8685
-20.8755
-20.8834
-20.8924
-20.9026
-20.9141
-20.9267
-20.9403
-20.9543
-20.9684
-20.9819
-20.9941
-21.004
-21.0109
-21.0145
-21.015
-21.0131
-21.0094
-21.0057
-21.003
-21.0033
-21.008
-21.0094
-21.009
-21.0135
-21.0049
-20.9835
-20.9586
-20.9329
-20.9114
-20.8964
-20.8867
-20.8795
-20.8758
-20.8707
-21.3615
-21.368
-21.3743
-21.3834
-21.3955
-21.4096
-21.4206
-21.4245
-21.4142
-21.3975
-21.4022
-21.4049
-21.403
-21.4013
-21.4001
-21.3983
-21.3959
-21.3925
-21.3878
-21.382
-21.3756
-21.3694