/*--------------------------------*- C++ -*----------------------------------*\
| =========                 |                                                 |
| \\      /  F ield         | OpenFOAM: The Open Source CFD Toolbox           |
|  \\    /   O peration     | Version:  2412                                  |
|   \\  /    A nd           | Website:  www.openfoam.com                      |
|    \\/     M anipulation  |                                                 |
\*---------------------------------------------------------------------------*/
FoamFile
{
    version     2.0;
    format      ascii;
    arch        "LSB;label=32;scalar=64";
    class       volScalarField;
    location    "1.35";
    object      p_rgh;
}
// * * * * * * * * * * * * * * * * * * * * * * * * * * * * * * * * * * * * * //

dimensions      [1 -1 -2 0 0 0 0];

internalField   nonuniform List<scalar> 
6400
(
134395
134379
134346
134296
134228
134142
134040
133919
133781
133626
133454
133265
133061
132842
132610
132367
132114
131854
131590
131324
131060
130802
130553
130316
130095
129893
129712
129555
129423
129316
129233
129173
129134
129113
129106
129109
129119
129133
129146
129158
129167
129172
129175
129178
129182
129192
129211
129242
129289
129354
129441
129549
129681
129836
130013
130210
130426
130657
130900
131153
131412
131673
131933
132190
132441
132684
132915
133135
133340
133531
133705
133863
134004
134128
134234
134322
134392
134444
134478
134495
134411
134395
134362
134311
134244
134158
134055
133934
133796
133640
133467
133277
133072
132851
132618
132372
132117
131854
131587
131318
131051
130790
130538
130298
130074
129870
129688
129531
129399
129293
129212
129155
129120
129102
129099
129107
129121
129137
129153
129166
129175
129180
129181
129180
129182
129188
129203
129230
129273
129336
129420
129527
129658
129813
129991
130190
130408
130642
130888
131144
131405
131669
131933
132192
132446
132690
132924
133145
133352
133543
133719
133878
134019
134143
134250
134338
134408
134460
134495
134511
134444
134427
134395
134344
134276
134191
134087
133966
133827
133670
133496
133304
133096
132873
132635
132385
132125
131857
131584
131309
131036
130768
130509
130263
130035
129826
129641
129482
129350
129246
129168
129116
129087
129076
129081
129096
129117
129139
129159
129174
129184
129186
129184
129179
129174
129173
129181
129201
129238
129296
129377
129482
129612
129768
129949
130152
130374
130614
130866
131127
131395
131665
131934
132199
132457
132706
132943
133168
133377
133571
133749
133909
134051
134176
134283
134371
134442
134494
134528
134545
134494
134477
134445
134394
134327
134241
134138
134016
133876
133718
133541
133347
133135
132907
132664
132408
132141
131864
131582
131298
131014
130736
130467
130212
129974
129759
129568
129406
129273
129171
129098
129053
129033
129034
129050
129076
129107
129138
129165
129184
129193
129194
129186
129173
129158
129147
129144
129154
129182
129233
129308
129411
129542
129700
129885
130094
130324
130572
130833
131104
131382
131661
131939
132212
132477
132732
132975
133204
133418
133615
133795
133957
134101
134227
134334
134423
134493
134546
134580
134597
134561
134545
134512
134462
134395
134309
134206
134084
133943
133783
133604
133406
133190
132956
132706
132441
132164
131876
131582
131284
130986
130693
130410
130141
129892
129666
129467
129300
129166
129066
129000
128965
128957
128973
129005
129048
129094
129137
129173
129197
129208
129204
129189
129164
129136
129110
129092
129087
129103
129144
129212
129312
129443
129605
129796
130014
130255
130515
130790
131074
131365
131657
131947
132231
132506
132770
133020
133256
133474
133676
133859
134023
134169
134295
134403
134493
134563
134616
134650
134667
134645
134629
134597
134547
134480
134396
134292
134170
134028
133867
133685
133483
133261
133020
132761
132485
132195
131893
131583
131268
130952
130640
130338
130051
129784
129544
129334
129160
129024
128927
128868
128847
128857
128893
128947
129012
129079
129139
129188
129219
129230
129222
129195
129156
129109
129062
129023
128999
128998
129025
129085
129180
129312
129479
129679
129910
130166
130442
130735
131037
131345
131654
131959
132258
132545
132820
133080
133323
133548
133754
133941
134108
134255
134383
134491
134581
134651
134704
134738
134755
134746
134730
134698
134650
134584
134500
134398
134276
134134
133970
133785
133579
133350
133101
132831
132542
132237
131917
131587
131250
130911
130575
130249
129938
129649
129390
129165
128980
128841
128747
128699
128694
128727
128791
128875
128970
129064
129148
129213
129254
129266
129250
129210
129149
129077
129002
128935
128885
128862
128872
128921
129011
129144
129319
129532
129779
130055
130353
130668
130993
131323
131653
131977
132293
132596
132884
133155
133407
133639
133851
134042
134212
134361
134489
134598
134687
134757
134810
134844
134861
134863
134847
134817
134770
134706
134624
134523
134402
134259
134095
133907
133695
133460
133201
132918
132614
132291
131950
131596
131233
130865
130499
130142
129801
129484
129199
128953
128754
128609
128519
128484
128502
128565
128664
128788
128922
129054
129169
129256
129309
129323
129297
129237
129148
129042
128930
128826
128742
128690
128678
128713
128797
128933
129118
129349
129618
129919
130244
130588
130942
131299
131655
132003
132339
132660
132964
133247
133510
133750
133968
134163
134336
134487
134616
134724
134812
134882
134933
134967
134984
134995
134981
134951
134906
134845
134765
134667
134549
134407
134242
134051
133835
133592
133322
133026
132704
132359
131994
131611
131216
130814
130411
130016
129636
129283
128965
128691
128472
128319
128233
128214
128259
128361
128508
128685
128872
129052
129208
129325
129394
129409
129371
129284
129158
129006
128845
128692
128563
128473
128433
128451
128530
128668
128871
129124
129421
129755
130116
130495
130884
131275
131661
132037
132398
132740
133061
133360
133634
133883
134107
134306
134482
134634
134764
134868
134956
135025
135075
135108
135124
135143
135129
135102
135060
135002
134927
134832
134716
134577
134413
134221
134000
133749
133468
133156
132815
132446
132052
131636
131203
130759
130311
129869
129442
129042
128681
128372
128122
127960
127875
127874
127954
128108
128317
128563
128821
129066
129276
129432
129522
129538
129482
129360
129184
128972
128746
128527
128339
128201
128126
128124
128198
128349
128568
128850
129185
129560
129964
130388
130820
131251
131674
132083
132473
132839
133181
133495
133781
134039
134270
134473
134650
134802
134930
135035
135120
135186
135234
135265
135281
135304
135291
135267
135229
135177
135107
135018
134908
134773
134610
134417
134194
133935
133642
133314
132951
132554
132127
131672
131195
130701
130200
129700
129214
128755
128340
127985
127710
127515
127426
127445
127570
127790
128083
128422
128773
129105
129386
129592
129708
129726
129646
129477
129235
128943
128629
128325
128059
127857
127738
127712
127784
127949
128197
128519
128901
129329
129789
130267
130751
131231
131698
132145
132567
132961
133324
133656
133955
134222
134458
134665
134843
134994
135120
135222
135303
135365
135409
135438
135453
135477
135466
135445
135413
135368
135306
135226
135123
134995
134837
134645
134419
134153
133848
133502
133116
132689
132224
131725
131196
130644
130078
129508
128948
128415
127928
127508
127178
126953
126857
126900
127082
127389
127793
128257
128735
129180
129554
129826
129976
129995
129883
129652
129322
128923
128492
128072
127704
127421
127247
127194
127266
127453
127742
128118
128563
129058
129586
130131
130679
131217
131735
132227
132686
133110
133497
133846
134159
134434
134675
134884
135062
135210
135332
135430
135505
135561
135601
135626
135640
135660
135649
135634
135611
135575
135524
135455
135364
135245
135095
134908
134680
134408
134089
133728
133316
132855
132349
131800
131212
130591
129947
129292
128641
128014
127434
126926
126521
126248
126134
126201
126454
126877
127433
128067
128714
129312
129807
130162
130355
130375
130220
129908
129461
128919
128330
127754
127249
126860
126618
126538
126616
126839
127187
127635
128161
128742
129355
129983
130607
131214
131793
132334
132834
133291
133702
134070
134394
134678
134924
135133
135309
135453
135569
135659
135726
135774
135805
135826
135839
135852
135849
135839
135821
135796
135759
135706
135630
135526
135388
135208
134983
134707
134377
133992
133557
133060
132509
131903
131247
130546
129810
129052
128290
127545
126844
126220
125712
125360
125208
125295
125637
126215
126978
127847
128725
129523
130174
130636
130883
130901
130692
130273
129673
128938
128134
127346
126656
126130
125808
125701
125800
126083
126512
127057
127688
128376
129095
129823
130539
131228
131876
132475
133020
133510
133947
134332
134668
134959
135206
135414
135585
135723
135830
135910
135966
136004
136030
136044
136049
136045
136045
136044
136039
136030
136010
135977
135923
135840
135719
135552
135332
135054
134714
134309
133840
133310
132711
132043
131310
130516
129672
128791
127892
126997
126136
125351
124692
124227
124002
124099
124554
125348
126407
127608
128798
129856
130703
131294
131607
131624
131345
130794
129999
129011
127912
126826
125878
125168
124747
124620
124762
125143
125689
126363
127129
127954
128805
129654
130481
131267
131995
132657
133250
133775
134236
134637
134984
135279
135526
135730
135894
136022
136118
136183
136224
136248
136258
136261
136261
136235
136240
136250
136262
136272
136276
136269
136244
136189
136093
135944
135734
135457
135107
134683
134183
133606
132967
132231
131411
130510
129536
128506
127438
126351
125288
124295
123415
122724
122373
122456
123047
124140
125632
127329
128961
130360
131447
132192
132582
132596
132232
131516
130470
129131
127602
126076
124764
123818
123296
123186
123402
123991
124692
125529
126466
127465
128480
129479
130440
131341
132164
132896
133537
134094
134577
134993
135346
135642
135885
136081
136236
136352
136433
136480
136501
136501
136491
136480
136474
136416
136430
136454
136484
136517
136551
136580
136593
136576
136514
136392
136198
135924
135566
135121
134590
133973
133270
132467
131552
130524
129394
128186
126919
125605
124305
123078
122045
121083
120431
120386
121104
122602
124712
127122
129323
131121
132472
133392
133869
133878
133414
132505
131167
129395
127292
125175
123371
122125
121514
121536
122237
122711
123506
124537
125681
126893
128107
129286
130407
131452
132388
133198
133888
134476
134976
135402
135759
136052
136287
136471
136612
136714
136780
136806
136795
136763
136724
136692
136674
136579
136607
136651
136702
136760
136827
136900
136967
137004
136989
136902
136728
136461
136094
135625
135058
134399
133642
132772
131754
130572
129250
127847
126382
124815
122401
115558
104050
91776.1
83518.8
78649.4
84462.1
98810.5
115854
127010
130043
132289
133870
134965
135541
135547
134978
133879
132253
129952
126906
120593
106856
97499.4
94017.7
96557
102402
109775
117140
122417
124752
126248
127697
129080
130387
131610
132686
133580
134317
134926
135436
135867
136225
136512
136733
136898
137022
137108
137162
137160
137108
137029
136949
136886
136850
136713
136766
136840
136912
136994
137097
137229
137373
137475
137523
137485
137339
137082
136706
136214
135618
134931
134143
133213
132071
130717
128602
122676
110315
87821.6
59922.3
33540.5
15266.2
5994.7
2187
2135.93
5207.01
16962.2
48774
94276.2
123427
133991
135811
137045
137705
137698
137027
135722
133781
123913
94102
48748.5
20380.3
8992.59
6055.85
7671.25
12584
21359.7
36124.9
57980.9
83996.2
106755
121304
128052
130440
131886
133136
134134
134884
135482
135975
136395
136749
137027
137225
137360
137464
137525
137594
137563
137449
137296
137156
137051
136987
136779
136902
137027
137113
137202
137336
137551
137839
138090
138146
138179
138073
137841
137464
136905
135862
134157
131702
126931
116142
95784.9
66013.3
39644.2
18586.6
2112.29
-0.498182
-0.735907
5.50566
29.1103
17.0162
16.2366
37.7351
135.893
1810.03
40967.5
102505
136643
138556
139805
140515
140473
139732
138305
134954
100717
33119.4
1888.86
294.93
90.0337
34.3887
13.0303
3.9849
2.14243
2.84354
2.06467
741.039
14381.5
35371.5
61453.8
90746
113104
126961
131768
133414
134670
135828
136756
137345
137634
137785
137854
137949
138063
138166
138069
137839
137552
137324
137169
137047
79009.6
85757.2
88407.6
89029.5
89724.5
91024.2
93259.7
96306.2
98736.6
99898.4
100136
99627.9
98124
94579.5
87835.1
78367.8
67727.6
54669.7
36550.6
17489.5
3155.39
-0.0554795
-1.39614
-1.81496
-0.0943477
-0.0409595
-0.312362
1.36269
2.77887
3.26972
3.65369
8.41707
48.4503
184.889
641.139
30170.8
127981
142057
143322
143986
143951
143222
141787
126644
54834.3
2111.71
84.1684
17.206
10.9133
7.9901
5.29889
3.93379
3.34639
4.44245
4.78452
4.50626
1.31558
-2.83002
-2.32716
672.066
13606.9
36094
57992.5
67861.6
72948
77900.3
83980.3
90026.2
94432.3
96615.4
96810.6
96617.6
96996.1
97281.1
96414.6
94397.9
91632.1
89164.7
87550.1
81572.2
3473.53
3850.53
5136.32
5905.1
6368.74
7457.8
10567.6
18395.5
30644.2
36131.3
36028.1
34282.2
31635.8
25416.6
17325
9572.01
3031.85
1.8465
-0.65615
-0.483222
0.134205
0.335195
0.270111
0.654729
1.11077
0.277352
-0.25546
-0.182281
-0.366748
-0.567059
-0.10703
2.02383
9.99278
33.8914
173.488
14847.8
117645
146042
147458
148068
148024
147351
145987
65169.9
669.087
79.116
9.28873
0.203804
0.0842545
1.05656
1.93056
7.0564
10.3814
10.0713
9.9522
9.65461
8.39134
4.80638
2.6753
3.92483
-0.325044
-11.0152
69.886
6471.36
14281.8
17619.3
19958.1
23625.2
25483.2
23920
19425.1
18137.1
18755.6
20067
21115
17674.2
10199.3
6732.51
4668.6
3016.25
2795.44
21.4794
33.5868
65.3133
51.5777
10.4142
11.3867
19.2964
59.4458
2036.46
2740.56
1133.97
-0.388358
-1.87473
-1.67247
-1.78372
-1.87885
0.0892463
0.0854684
-0.108819
0.71363
4.02627
3.5209
3.15015
3.26988
-0.0808612
-0.406651
-0.509465
-1.12953
-1.50314
-1.1826
-0.449546
0.867967
4.76232
35.9468
837.064
62826.6
150604
151797
152376
152205
151705
99136.4
7866.42
49.3287
2.21793
-0.342921
-0.242577
0.110375
0.820728
1.69571
2.23342
1.77933
1.48354
1.35054
1.67858
4.74556
9.88908
9.79152
9.60314
8.39261
6.82596
1.78481
0.781187
-5.76902
-5.7727
-3.62228
-2.6301
358.622
781.459
1785.82
7481.82
17890.4
18323.3
8853.79
294.604
188.976
316.325
354.799
1208.37
2396.9
14.0937
23.1914
87.2003
61.8982
1.09946
0.259323
-0.138927
-0.855608
-1.33454
-1.47824
-1.46847
-1.14338
-1.31062
-1.25776
-1.24441
-1.21141
-0.700454
-0.634292
-0.454127
0.43459
3.90984
3.97895
3.66847
1.87769
-0.553445
-0.749493
-1.22886
-1.87842
-2.25719
-2.10853
-1.58143
-0.66499
0.0525635
0.808528
3.06887
1158.8
88418.1
154950
158016
155756
100127
4053.32
2.44216
0.0964435
-0.187726
-0.166323
0.00968118
0.356294
0.894974
1.44391
1.67269
1.68433
1.4531
1.18269
0.97643
0.549347
-0.0861598
-0.612042
-0.901908
-1.47716
0.614349
3.70203
3.61312
2.45126
-0.233988
-3.08387
-3.48331
-4.02472
-3.98689
-3.98913
-4.5605
-4.16225
-1.1515
0.884698
5.63198
127.461
244.775
123.767
891.191
2211.47
7.01852
12.3715
24.2895
6.05348
0.154947
-0.394696
-0.753274
-1.03906
-1.29199
-1.43795
-1.52271
-1.43596
-1.40203
-1.35903
-1.24515
-1.02643
-0.7326
-0.539246
-0.369826
-0.204856
0.0512061
3.01231
4.00458
-0.120063
-0.338247
-0.915588
-1.77795
-2.59078
-3.02686
-2.93968
-2.40261
-1.18941
-0.362464
0.0355527
-0.352946
-0.382155
-1.43003
27607.5
54958.7
26455.4
-1.5225
-0.784388
-0.454294
-0.413537
-0.278333
-0.123327
0.085982
0.369044
0.733344
1.20924
1.36503
1.3591
1.23532
0.974889
0.778898
0.455906
-0.104981
-0.775995
-1.46156
-2.48957
-3.74775
-4.29809
0.206797
2.48191
2.22453
1.63806
-2.49243
-4.11671
-3.91995
-3.45258
-2.55643
-1.24196
0.523997
2.15525
4.08625
20.9498
57.5531
52.9876
739.308
1498.89
3.42546
3.14807
1.52953
0.702406
-0.0405752
-0.638943
-1.00871
-1.30799
-1.55799
-1.69085
-1.70335
-1.63501
-1.53708
-1.39676
-1.24116
-1.04953
-0.813082
-0.612803
-0.421276
-0.20757
0.00966107
1.72252
3.98334
0.41979
0.0193327
-0.821216
-1.91174
-2.85867
-3.36144
-3.30124
-2.76834
-1.50683
-0.449661
0.0367315
-0.561723
-0.702949
-0.303205
-1.75207
-5.2538
-1.68409
-0.600162
-0.8198
-0.530874
-0.333263
-0.210803
-0.0833689
0.0821845
0.285706
0.542426
0.817221
0.964318
0.89558
0.749087
0.618331
0.42185
0.0902582
-0.396723
-1.01177
-1.93884
-3.05
-4.42493
-5.37891
-5.52261
-1.91756
2.32589
2.92384
1.94523
-2.43379
-3.43986
-3.39882
-3.04504
-2.24803
-0.923981
0.676377
2.6469
4.90412
10.4821
23.6117
759.603
164.235
1.81741
2.09684
1.06453
0.484897
-0.20694
-0.824824
-1.30585
-1.66964
-1.89565
-1.98631
-1.96489
-1.86367
-1.71948
-1.54306
-1.33448
-1.09721
-0.851574
-0.6247
-0.411436
-0.192821
0.0277013
0.512183
1.9915
2.12394
0.843645
-0.598716
-1.67704
-2.62649
-3.1534
-3.10352
-2.33339
-1.40668
-1.02449
-0.674128
-0.391656
-0.645051
-0.562248
-0.636012
-0.7116
-0.660732
-0.71969
-0.649655
-0.383485
-0.233331
-0.209973
-0.114807
0.0207144
0.172458
0.313898
0.431698
0.491168
0.483709
0.411982
0.278781
0.0734809
-0.249307
-0.74775
-1.45563
-2.34257
-3.4443
-4.68853
-5.71347
-6.00723
-5.36731
-0.239999
3.3133
1.0172
-2.81319
-3.52443
-3.78549
-3.53945
-2.68895
-1.31123
0.361272
1.97879
3.3095
5.30989
21.1025
775.067
1.85033
1.11803
1.3869
0.610821
0.00873797
-0.792866
-1.5062
-2.05091
-2.39068
-2.53202
-2.51018
-2.3752
-2.17398
-1.93972
-1.68795
-1.42529
-1.15834
-0.897757
-0.651755
-0.415668
-0.183334
0.0392059
0.240252
0.482575
1.53778
1.34827
0.67102
-0.274797
-1.21684
-1.96301
-2.4137
-1.58598
-1.0603
-1.20291
-0.896533
-0.726693
-0.662048
-0.632295
-0.718907
-0.94017
-0.792076
-0.664207
-0.541102
-0.0206035
-0.141368
-0.233275
-0.145203
-0.0472153
0.0528791
0.146115
0.212089
0.234192
0.204833
0.120565
-0.0224094
-0.234848
-0.542041
-0.97767
-1.56843
-2.32311
-3.25658
-4.22393
-4.99091
-5.05332
-4.24045
-2.80835
-1.85338
-2.27445
-3.31614
-4.13109
-4.67273
-4.7273
-4.17053
-2.95475
-1.30136
0.356913
1.47587
2.90834
15.3701
800.695
0.842328
0.380486
0.472963
-0.240376
-1.00193
-1.87447
-2.62283
-3.26531
-3.54582
-3.49492
-3.27569
-2.94599
-2.58893
-2.23297
-1.88837
-1.55896
-1.24747
-0.957266
-0.689304
-0.43908
-0.202555
0.0158002
0.201559
0.325186
0.35702
0.67464
0.454463
0.0832635
-0.443036
-1.37512
-1.65871
-1.11683
-0.923241
-0.972792
-0.814803
-0.702127
-0.653568
-0.64892
-0.667952
-0.664479
-0.627723
-0.57841
-0.371937
0.0920502
-0.0904377
-0.248537
-0.181149
-0.112962
-0.0439758
0.0129071
0.0427869
0.0363487
-0.0129904
-0.110801
-0.263439
-0.47982
-0.775416
-1.16488
-1.65832
-2.26466
-2.95226
-3.6432
-4.17674
-4.32535
-4.03045
-3.45932
-3.10964
-3.25197
-3.99931
-5.07354
-6.06127
-6.58337
-6.40028
-5.42219
-3.87008
-2.13051
-0.872411
0.714767
5.20822
826.78
-0.316478
-0.662334
-0.771654
-1.65812
-2.58754
-3.80966
-4.76985
-5.25605
-5.25142
-4.85388
-4.38256
-3.7437
-3.13355
-2.59884
-2.12979
-1.71594
-1.34962
-1.02525
-0.737136
-0.478814
-0.246365
-0.0417818
0.124023
0.232938
0.244179
0.130727
-0.10548
-0.409528
-0.73474
-1.01858
-1.12638
-1.0895
-0.972514
-0.841171
-0.735122
-0.66684
-0.632215
-0.622382
-0.627379
-0.628432
-0.591181
-0.536643
-0.114038
0.12739
-0.0476348
-0.270311
-0.218615
-0.168255
-0.123333
-0.0933134
-0.0877575
-0.114278
-0.179094
-0.287176
-0.444642
-0.65855
-0.939029
-1.2938
-1.72399
-2.22828
-2.76934
-3.27189
-3.63964
-3.77705
-3.6701
-3.47854
-3.50705
-3.99466
-5.02947
-6.4269
-7.81943
-8.77331
-8.97064
-8.27652
-6.83666
-5.00142
-3.53568
-1.75328
-2.54456
737.265
-1.18885
-1.78376
-2.26012
-3.55722
-4.96335
-6.58991
-7.71755
-8.12308
-7.81624
-6.92597
-5.73365
-4.72403
-3.80149
-3.02515
-2.39969
-1.8858
-1.45724
-1.09602
-0.788985
-0.525733
-0.299886
-0.110648
0.0353444
0.125229
0.145953
0.0805427
-0.0678648
-0.276731
-0.501646
-0.684436
-0.790123
-0.815311
-0.782224
-0.724976
-0.669788
-0.629073
-0.604476
-0.592
-0.583751
-0.567859
-0.53915
-0.501662
0.0198561
0.149262
-0.11486
-0.297195
-0.256104
-0.218949
-0.192115
-0.181175
-0.191781
-0.231441
-0.305666
-0.418601
-0.575111
-0.780546
-1.0403
-1.35812
-1.73309
-2.16122
-2.60863
-3.02296
-3.35171
-3.55064
-3.62186
-3.71495
-4.04048
-4.77275
-6.01847
-7.65525
-9.35146
-10.6411
-11.2004
-10.8464
-9.61211
-7.78289
-6.18021
-4.3775
-5.40773
117.622
-2.09641
-2.9518
-3.81997
-5.54557
-7.67484
-9.70387
-11.1518
-11.5412
-10.8597
-9.36817
-7.55426
-5.76163
-4.53113
-3.47963
-2.67328
-2.05031
-1.55844
-1.16267
-0.840169
-0.574907
-0.357019
-0.182598
-0.0538478
0.023271
0.0434965
0.00175784
-0.098134
-0.239618
-0.391819
-0.524086
-0.61341
-0.654127
-0.655934
-0.636669
-0.61179
-0.590199
-0.574693
-0.564011
-0.554137
-0.538803
-0.515942
-0.486187
-0.0265033
0.162333
-0.207885
-0.327527
-0.294126
-0.26631
-0.252164
-0.254445
-0.275962
-0.323666
-0.402452
-0.515722
-0.667288
-0.860472
-1.09827
-1.38167
-1.70597
-2.08773
-2.46216
-2.82347
-3.14206
-3.40317
-3.62932
-3.91183
-4.44708
-5.3413
-6.72322
-8.47908
-10.3543
-11.8663
-12.7203
-12.7004
-11.7342
-10.0121
-8.29894
-6.38815
-6.40988
-5.69711
-2.7215
-4.07233
-5.2031
-7.4905
-10.1427
-12.5922
-14.1855
-14.4986
-13.7187
-11.9638
-9.39714
-7.00276
-5.06728
-3.90129
-2.90989
-2.18216
-1.63413
-1.21133
-0.880042
-0.617728
-0.410051
-0.249622
-0.134664
-0.0662008
-0.0446099
-0.0693542
-0.134807
-0.228958
-0.334389
-0.431221
-0.504404
-0.548419
-0.566805
-0.568468
-0.562151
-0.553849
-0.545998
-0.538715
-0.529718
-0.515153
-0.499531
-0.477057
-0.105038
0.173711
-0.226296
-0.357146
-0.329681
-0.310067
-0.305324
-0.316016
-0.34441
-0.396016
-0.475293
-0.585222
-0.728756
-0.90784
-1.12444
-1.37932
-1.67149
-1.99447
-2.32717
-2.65812
-2.97573
-3.28149
-3.60477
-4.02398
-4.6723
-5.65207
-7.04849
-8.80025
-10.7897
-12.3886
-13.4395
-13.6931
-12.9965
-11.422
-9.67588
-7.45222
-6.29138
-4.8851
-2.43094
-4.77763
-6.02796
-8.88565
-11.8661
-14.7171
-16.3295
-16.6604
-15.7986
-13.8698
-11.1233
-8.03345
-5.6396
-4.19508
-3.05914
-2.25205
-1.66712
-1.23133
-0.900397
-0.646163
-0.450954
-0.30465
-0.20177
-0.139648
-0.116217
-0.128753
-0.171382
-0.235135
-0.308996
-0.380191
-0.43879
-0.479991
-0.504348
-0.516102
-0.52023
-0.520678
-0.519206
-0.516232
-0.510097
-0.499404
-0.489368
-0.47255
-0.0380754
0.179675
-0.109603
-0.386054
-0.361094
-0.347751
-0.350265
-0.366791
-0.400112
-0.453607
-0.530323
-0.634271
-0.767913
-0.932221
-1.1282
-1.35683
-1.61518
-1.89734
-2.19526
-2.50227
-2.81587
-3.14532
-3.52144
-4.00869
-4.70574
-5.70832
-7.064
-8.78996
-10.7029
-12.3668
-13.5032
-13.9224
-13.4429
-11.9861
-10.3538
-7.97244
-6.54077
-3.44159
-1.26671
-4.23872
-6.24684
-9.47601
-12.7072
-15.6368
-17.3461
-17.7279
-16.872
-14.9099
-12.0328
-8.61951
-5.93027
-4.20987
-3.07133
-2.23126
-1.63936
-1.21041
-0.892615
-0.653776
-0.474083
-0.342185
-0.250845
-0.19416
-0.169568
-0.173428
-0.200481
-0.243742
-0.295833
-0.34842
-0.39481
-0.431145
-0.456702
-0.473202
-0.483311
-0.489446
-0.49294
-0.494302
-0.492879
-0.487255
-0.483064
-0.471576
0.137465
0.179351
-0.0617698
-0.411334
-0.389115
-0.381386
-0.388798
-0.408254
-0.443599
-0.497821
-0.571413
-0.668133
-0.790706
-0.940374
-1.11643
-1.31912
-1.54667
-1.7955
-2.06245
-2.34546
-2.64691
-2.97869
-3.36864
-3.86808
-4.55271
-5.5077
-6.79682
-8.43476
-10.3039
-12.0464
-13.2393
-13.7274
-13.3784
-12.1274
-10.5066
-8.22071
-5.68931
-1.67346
0.109148
-2.61433
-5.54763
-9.02819
-12.442
-15.378
-17.1823
-17.6608
-16.8927
-15.0121
-12.1326
-8.74939
-5.8156
-4.00493
-2.91583
-2.10353
-1.54156
-1.14192
-0.851037
-0.635845
-0.476153
-0.359968
-0.27989
-0.229684
-0.205508
-0.203818
-0.220282
-0.249654
-0.286727
-0.325893
-0.362571
-0.393827
-0.41848
-0.436913
-0.450414
-0.460332
-0.46761
-0.472769
-0.476287
-0.477601
-0.477414
-0.208895
0.174153
0.175301
-0.152511
-0.43431
-0.412444
-0.409772
-0.420668
-0.442388
-0.477814
-0.530446
-0.600152
-0.689088
-0.799616
-0.936706
-1.09184
-1.26985
-1.46937
-1.68831
-1.92574
-2.18204
-2.46149
-2.7757
-3.14761
-3.61619
-4.2392
-5.08978
-6.24727
-7.76045
-9.52822
-11.3824
-12.8094
-13.4605
-13.2348
-12.1179
-10.3418
-7.62389
-3.09937
-0.725815
0.774654
-0.851762
-4.10937
-7.85019
-11.3175
-14.1699
-15.9698
-16.5368
-15.8953
-14.1417
-11.3623
-7.99225
-5.24465
-3.62876
-2.58665
-1.86482
-1.37216
-1.02515
-0.774823
-0.591081
-0.45586
-0.357924
-0.290125
-0.2472
-0.225139
-0.22078
-0.230554
-0.250662
-0.277436
-0.307029
-0.336273
-0.362997
-0.385969
-0.40496
-0.420477
-0.43331
-0.443932
-0.45299
-0.461221
-0.467473
-0.473282
0.102033
0.173275
0.169865
-0.310111
-0.449767
-0.432038
-0.432731
-0.445037
-0.468134
-0.503173
-0.552948
-0.618085
-0.699373
-0.79949
-0.919383
-1.05647
-1.21191
-1.38541
-1.5759
-1.78361
-2.00995
-2.25911
-2.54037
-2.87061
-3.2772
-3.80072
-4.49775
-5.44316
-6.72589
-8.30317
-9.34106
-10.5546
-12.2876
-12.6674
-11.5589
-9.59399
-6.22747
-2.058
-1.36775
0.475858
-0.163813
-2.59112
-6.12884
-9.55473
-12.2498
-13.9557
-14.5162
-13.9166
-12.2518
-9.63266
-6.25752
-4.22085
-3.00821
-2.10856
-1.53449
-1.1437
-0.868376
-0.669579
-0.523345
-0.41566
-0.337758
-0.283543
-0.248894
-0.230394
-0.225639
-0.231885
-0.246392
-0.26653
-0.289555
-0.313247
-0.336081
-0.357067
-0.375879
-0.392542
-0.407706
-0.421176
-0.43432
-0.446542
-0.455997
-0.470224
0.158739
0.167322
0.0121079
-0.469408
-0.456677
-0.447662
-0.450124
-0.462855
-0.485939
-0.519836
-0.566228
-0.626578
-0.699881
-0.788587
-0.893343
-1.01271
-1.14699
-1.29619
-1.45958
-1.63744
-1.83114
-2.04389
-2.28197
-2.55601
-2.88267
-3.28577
-3.80026
-4.47875
-5.39959
-6.46587
-6.84482
-8.27555
-9.19804
-10.1578
-9.46645
-7.36472
-4.58448
-2.74321
-2.55143
-0.202919
-0.355628
-1.75987
-4.45595
-7.28635
-9.57642
-10.9899
-11.4058
-10.7679
-9.21031
-6.45342
-4.18576
-2.96323
-2.15535
-1.54497
-1.15235
-0.880856
-0.686644
-0.544505
-0.438695
-0.359978
-0.30269
-0.262696
-0.237216
-0.223677
-0.220388
-0.225448
-0.236989
-0.253192
-0.272072
-0.292045
-0.312033
-0.331276
-0.349562
-0.366638
-0.383343
-0.398697
-0.41569
-0.429939
-0.3817
-0.442746
-0.189022
0.160831
-0.316067
-0.497203
-0.465949
-0.458584
-0.461821
-0.474829
-0.497154
-0.52903
-0.571607
-0.62596
-0.691327
-0.768951
-0.859715
-0.962507
-1.07704
-1.20339
-1.34096
-1.48955
-1.64973
-1.8232
-2.01331
-2.22534
-2.46698
-2.74802
-3.08246
-3.49372
-4.02174
-4.67317
-4.69907
-5.00503
-5.4844
-5.37185
-4.92055
-4.21043
-3.87326
-4.01114
-3.69239
-0.921652
-1.05596
-2.02752
-3.6584
-5.32836
-6.59287
-7.32337
-7.37023
-6.33333
-4.91044
-3.42097
-2.08444
-1.63315
-1.30843
-0.985107
-0.769741
-0.614199
-0.49863
-0.411283
-0.344695
-0.294353
-0.257338
-0.231494
-0.215433
-0.207639
-0.207086
-0.212568
-0.222914
-0.236984
-0.253419
-0.271126
-0.289368
-0.307547
-0.325539
-0.342927
-0.360736
-0.377362
-0.397652
-0.407565
0.178882
0.158777
-0.453677
-0.416312
-0.486519
-0.488268
-0.469521
-0.4633
-0.467457
-0.480472
-0.501927
-0.531146
-0.569384
-0.617721
-0.675282
-0.742436
-0.8201
-0.907495
-1.00385
-1.10886
-1.22198
-1.34263
-1.4704
-1.6053
-1.74807
-1.89985
-2.06185
-2.23438
-2.41677
-2.6094
-2.81729
-3.03622
-3.02661
-2.01586
-1.86595
-1.60994
-1.55129
-2.18136
-3.14115
-4.5211
-4.05748
-1.60948
-1.98476
-2.74608
-3.73557
-4.34279
-4.39018
-3.97259
-3.11321
-2.37377
-1.63932
-0.938718
-0.388753
-0.69126
-0.614841
-0.509206
-0.432752
-0.371621
-0.322148
-0.281996
-0.2498
-0.224841
-0.206409
-0.193895
-0.18699
-0.185146
-0.188007
-0.194952
-0.205316
-0.218457
-0.233525
-0.249816
-0.266905
-0.284439
-0.302393
-0.3204
-0.339303
-0.357879
-0.381202
0.0378189
0.248996
0.198445
-0.460675
-0.532221
-0.50652
-0.474728
-0.465358
-0.462395
-0.467212
-0.479914
-0.500214
-0.526888
-0.560759
-0.603115
-0.653216
-0.710729
-0.776263
-0.849336
-0.928984
-1.01445
-1.10497
-1.19965
-1.29735
-1.39679
-1.49666
-1.59531
-1.68984
-1.77536
-1.8443
-1.88586
-1.88585
-1.81841
-1.6561
-0.949595
0.484155
0.745472
0.441944
-0.699085
-2.7014
-3.86826
-3.52004
-2.06914
-2.4961
-3.11066
-3.79613
-3.68628
-2.6406
-1.55205
-0.643195
-0.00287188
0.385762
0.582982
0.394141
-0.0890708
-0.132644
-0.154737
-0.166821
-0.170823
-0.169773
-0.165949
-0.161215
-0.157064
-0.154293
-0.153414
-0.154849
-0.158741
-0.165271
-0.174301
-0.185532
-0.198634
-0.213118
-0.22856
-0.244751
-0.261638
-0.279327
-0.297843
-0.317419
-0.338905
-0.363441
0.314422
0.271769
-0.276825
-0.506502
-0.482632
-0.47935
-0.460755
-0.455512
-0.456006
-0.461842
-0.474001
-0.49283
-0.517032
-0.546796
-0.583362
-0.626319
-0.67498
-0.729507
-0.789508
-0.854003
-0.921915
-0.992187
-1.06358
-1.13446
-1.20277
-1.26605
-1.3212
-1.36334
-1.38531
-1.37789
-1.32812
-1.21937
-1.0361
-0.733765
-0.324734
0.478702
1.47267
1.34236
-0.255862
-2.18711
-2.69764
-2.57875
-2.13131
-2.45989
-2.89878
-3.3024
-2.62517
-1.78891
-0.635922
0.376009
1.00023
1.25098
1.12124
0.436008
0.264125
0.162384
0.0831733
0.024688
-0.017502
-0.0473489
-0.0684135
-0.0835923
-0.0951593
-0.104619
-0.113145
-0.121612
-0.130578
-0.140569
-0.151812
-0.164292
-0.177884
-0.192346
-0.207448
-0.223074
-0.239365
-0.256466
-0.274975
-0.294204
-0.317922
-0.339085
0.340827
0.184109
-0.446722
-0.470725
-0.463133
-0.450841
-0.443375
-0.441623
-0.44482
-0.45177
-0.463391
-0.480557
-0.502313
-0.528336
-0.559542
-0.595776
-0.636282
-0.680863
-0.729095
-0.780034
-0.832465
-0.88511
-0.936463
-0.984595
-1.02708
-1.06089
-1.08243
-1.08653
-1.06587
-1.01171
-0.913798
-0.759362
-0.536793
-0.23612
0.120469
0.451989
0.661461
0.463756
-0.369059
-1.1773
-1.57537
-1.62924
-1.92999
-2.13305
-2.43865
-2.60319
-2.03304
-1.01891
-0.0929898
0.743298
1.26591
1.22285
0.712973
0.556371
0.435418
0.322917
0.227713
0.151194
0.0912954
0.0449311
0.00900684
-0.0190906
-0.0415007
-0.0598025
-0.0753941
-0.0893597
-0.102446
-0.115344
-0.128512
-0.142157
-0.156318
-0.170949
-0.18599
-0.201382
-0.217316
-0.233857
-0.252029
-0.270164
-0.294376
-0.304503
0.375655
-0.33584
-0.419351
-0.429085
-0.427578
-0.423329
-0.422533
-0.424272
-0.429498
-0.437478
-0.448701
-0.464245
-0.483636
-0.506285
-0.53269
-0.562807
-0.595926
-0.631602
-0.669343
-0.708276
-0.747207
-0.784777
-0.819354
-0.848921
-0.871003
-0.882424
-0.879539
-0.857932
-0.811302
-0.732476
-0.615567
-0.453016
-0.240318
0.0177077
0.295574
0.529704
0.612032
0.4313
-0.00124294
-0.502389
-0.805586
-0.912859
-1.62031
-1.71461
-1.84514
-1.89453
-1.65523
-0.804876
0.0609212
0.614813
0.74411
0.649968
0.642479
0.581601
0.489742
0.393393
0.303856
0.226892
0.162868
0.110251
0.0672232
0.0320013
0.00300538
-0.0210451
-0.0414707
-0.0593831
-0.0755736
-0.0907516