/*--------------------------------*- C++ -*----------------------------------*\
| =========                 |                                                 |
| \\      /  F ield         | OpenFOAM: The Open Source CFD Toolbox           |
|  \\    /   O peration     | Version:  2412                                  |
|   \\  /    A nd           | Website:  www.openfoam.com                      |
|    \\/     M anipulation  |                                                 |
\*---------------------------------------------------------------------------*/
FoamFile
{
    version     2.0;
    format      ascii;
    arch        "LSB;label=32;scalar=64";
    class       volVectorField;
    location    "1.35";
    object      U;
}
// * * * * * * * * * * * * * * * * * * * * * * * * * * * * * * * * * * * * * //

dimensions      [0 1 -1 0 0 0 0];

internalField   nonuniform List<vector> 
6400
(
(0.00125278 -0.00126361 0)
(0.00356517 -0.0012519 0)
(0.00576632 -0.00125607 0)
(0.00804825 -0.00129481 0)
(0.0104619 -0.00135597 0)
(0.0130492 -0.00142807 0)
(0.0158397 -0.00151186 0)
(0.018864 -0.0016014 0)
(0.0221432 -0.00170132 0)
(0.0256842 -0.00179843 0)
(0.0294949 -0.00188788 0)
(0.0335707 -0.00197523 0)
(0.0378803 -0.00204322 0)
(0.0424047 -0.00208397 0)
(0.0471025 -0.00210438 0)
(0.0518971 -0.00208835 0)
(0.0567305 -0.00202656 0)
(0.0615177 -0.00192802 0)
(0.0661493 -0.00178663 0)
(0.0705249 -0.00158534 0)
(0.0745281 -0.00133296 0)
(0.078035 -0.00103102 0)
(0.0809284 -0.000681117 0)
(0.0830959 -0.000289142 0)
(0.0844339 0.000136945 0)
(0.0848638 0.000590083 0)
(0.0843094 0.00104664 0)
(0.0827171 0.00148683 0)
(0.0800873 0.00189885 0)
(0.0764398 0.0022768 0)
(0.0718284 0.00261561 0)
(0.0663034 0.00289551 0)
(0.0599757 0.0030944 0)
(0.0529836 0.00321193 0)
(0.0454713 0.00324746 0)
(0.0375797 0.00322079 0)
(0.0294235 0.0031559 0)
(0.0210954 0.00307855 0)
(0.0126662 0.00301678 0)
(0.00418649 0.00298781 0)
(-0.00432533 0.00300478 0)
(-0.0128444 0.0030625 0)
(-0.0213298 0.00314343 0)
(-0.029732 0.00322956 0)
(-0.0379561 0.0032922 0)
(-0.0458954 0.00330013 0)
(-0.0534286 0.00324 0)
(-0.0604154 0.00309754 0)
(-0.0667033 0.00287288 0)
(-0.0721605 0.00258211 0)
(-0.0767148 0.00224124 0)
(-0.0802981 0.0018596 0)
(-0.0828706 0.00144587 0)
(-0.084411 0.00101081 0)
(-0.0849302 0.00055918 0)
(-0.084489 0.00011702 0)
(-0.0831613 -0.000297256 0)
(-0.081026 -0.000677946 0)
(-0.0781836 -0.00101825 0)
(-0.0747434 -0.00131243 0)
(-0.0708184 -0.00155919 0)
(-0.0665225 -0.00175606 0)
(-0.0619693 -0.00189754 0)
(-0.0572537 -0.0019982 0)
(-0.0524801 -0.0020649 0)
(-0.0477357 -0.00208491 0)
(-0.0430777 -0.00207498 0)
(-0.0385659 -0.00203298 0)
(-0.0342476 -0.00197689 0)
(-0.0301581 -0.00189811 0)
(-0.0263166 -0.00181433 0)
(-0.022732 -0.00172244 0)
(-0.0194035 -0.00162985 0)
(-0.0163161 -0.00153949 0)
(-0.0134558 -0.00146072 0)
(-0.0108005 -0.00138969 0)
(-0.00831293 -0.00133212 0)
(-0.00595422 -0.00129175 0)
(-0.00367382 -0.00128836 0)
(-0.00128511 -0.00129732 0)
(0.00120025 -0.00354798 0)
(0.00315959 -0.00328637 0)
(0.0049238 -0.00324832 0)
(0.00678394 -0.00341286 0)
(0.00882387 -0.00366644 0)
(0.0110977 -0.00398251 0)
(0.0136431 -0.00435293 0)
(0.0165012 -0.00476201 0)
(0.0197115 -0.0052058 0)
(0.0232971 -0.00566763 0)
(0.0272605 -0.00612847 0)
(0.0316216 -0.00657741 0)
(0.0363642 -0.00699298 0)
(0.0414552 -0.00734441 0)
(0.0468711 -0.00762461 0)
(0.0525456 -0.00780303 0)
(0.058397 -0.0078476 0)
(0.0643358 -0.0077581 0)
(0.070267 -0.00750406 0)
(0.0760653 -0.00707042 0)
(0.0815799 -0.00644312 0)
(0.0866696 -0.00561945 0)
(0.091189 -0.00460182 0)
(0.0949909 -0.00340056 0)
(0.0979354 -0.00203347 0)
(0.0998878 -0.000525184 0)
(0.100733 0.00108022 0)
(0.100386 0.00275866 0)
(0.098784 0.00443856 0)
(0.095886 0.00608893 0)
(0.0916816 0.00768233 0)
(0.0862327 0.00916707 0)
(0.0795875 0.0104923 0)
(0.0717584 0.0116309 0)
(0.0628037 0.0125629 0)
(0.0528572 0.0132959 0)
(0.0420451 0.0138438 0)
(0.0305146 0.0142253 0)
(0.0184487 0.0144701 0)
(0.00606078 0.0145946 0)
(-0.00643728 0.0146173 0)
(-0.0188137 0.0145278 0)
(-0.0308418 0.0143031 0)
(-0.0423324 0.0139247 0)
(-0.0530988 0.0133665 0)
(-0.0629809 0.0126002 0)
(-0.071866 0.011629 0)
(-0.079654 0.0104526 0)
(-0.0862609 0.00909335 0)
(-0.0916547 0.00759388 0)
(-0.0957832 0.00599603 0)
(-0.0986175 0.00434378 0)
(-0.100171 0.00267636 0)
(-0.100497 0.00103357 0)
(-0.0996596 -0.000539466 0)
(-0.0977413 -0.00201082 0)
(-0.0948593 -0.00334258 0)
(-0.0911422 -0.00451314 0)
(-0.0867241 -0.0055064 0)
(-0.0817486 -0.00631218 0)
(-0.0763551 -0.00693335 0)
(-0.070674 -0.00736902 0)
(-0.0648532 -0.00762788 0)
(-0.0590092 -0.00773663 0)
(-0.0532314 -0.00771026 0)
(-0.0476237 -0.00755842 0)
(-0.0422509 -0.00730955 0)
(-0.0371715 -0.00698 0)
(-0.0324226 -0.00659687 0)
(-0.0280347 -0.00617521 0)
(-0.0240277 -0.00573166 0)
(-0.0203897 -0.00528694 0)
(-0.0171157 -0.00485514 0)
(-0.014181 -0.00445557 0)
(-0.0115558 -0.00409852 0)
(-0.009204 -0.00378541 0)
(-0.00707863 -0.00353301 0)
(-0.0051296 -0.00336734 0)
(-0.00328062 -0.00340915 0)
(-0.00123523 -0.00365973 0)
(0.00114542 -0.00558592 0)
(0.00286285 -0.00495121 0)
(0.00439056 -0.00487928 0)
(0.0060222 -0.00518389 0)
(0.00784224 -0.00564516 0)
(0.00990562 -0.00622339 0)
(0.0122639 -0.00690186 0)
(0.0149605 -0.00765679 0)
(0.01803 -0.00847065 0)
(0.0215039 -0.00932927 0)
(0.025397 -0.0101997 0)
(0.0297191 -0.011048 0)
(0.0344648 -0.0118523 0)
(0.0396096 -0.0125666 0)
(0.0451216 -0.0131577 0)
(0.0509458 -0.0135812 0)
(0.0569947 -0.0137935 0)
(0.0631796 -0.0137611 0)
(0.0693949 -0.0134451 0)
(0.0755133 -0.0128249 0)
(0.0813874 -0.0118698 0)
(0.0868535 -0.0105631 0)
(0.0917564 -0.00890841 0)
(0.0959375 -0.00691984 0)
(0.0992417 -0.00462534 0)
(0.101521 -0.00206948 0)
(0.102663 0.000693713 0)
(0.102539 0.00361752 0)
(0.101075 0.00660514 0)
(0.0982633 0.00958482 0)
(0.0940811 0.012473 0)
(0.0885538 0.0152052 0)
(0.0817462 0.0177403 0)
(0.0737014 0.0200149 0)
(0.0644978 0.0220053 0)
(0.054273 0.0236937 0)
(0.0431526 0.0250548 0)
(0.0312914 0.0260774 0)
(0.0188773 0.0267614 0)
(0.00613137 0.0271054 0)
(-0.00672517 0.0271138 0)
(-0.0194573 0.026779 0)
(-0.0318233 0.0260948 0)
(-0.0436225 0.0250617 0)
(-0.0546728 0.0236858 0)
(-0.0648101 0.0219667 0)
(-0.0739122 0.0199319 0)
(-0.0818731 0.0176162 0)
(-0.088592 0.0150522 0)
(-0.094019 0.0122949 0)
(-0.0981062 0.00940165 0)
(-0.10083 0.00644092 0)
(-0.102216 0.0034926 0)
(-0.102304 0.000629393 0)
(-0.101176 -0.00206789 0)
(-0.0989355 -0.00455546 0)
(-0.0957027 -0.00678576 0)
(-0.0916192 -0.00871947 0)
(-0.0868322 -0.0103327 0)
(-0.0814992 -0.0116139 0)
(-0.0757665 -0.0125624 0)
(-0.0697751 -0.0131867 0)
(-0.0636856 -0.01352 0)
(-0.0576093 -0.0135837 0)
(-0.0516448 -0.0134094 0)
(-0.0458988 -0.0130374 0)
(-0.040433 -0.0124975 0)
(-0.0353035 -0.0118345 0)
(-0.0305513 -0.0110803 0)
(-0.0261948 -0.0102765 0)
(-0.0222527 -0.0094378 0)
(-0.018721 -0.00861515 0)
(-0.0155863 -0.00781841 0)
(-0.0128176 -0.00708208 0)
(-0.0103716 -0.00642258 0)
(-0.00821869 -0.00584658 0)
(-0.0063111 -0.00538709 0)
(-0.0045956 -0.00508418 0)
(-0.00298655 -0.00515864 0)
(-0.0011827 -0.00577551 0)
(0.00108866 -0.00751557 0)
(0.00262912 -0.00647831 0)
(0.00398329 -0.00637125 0)
(0.00544367 -0.0068208 0)
(0.00710332 -0.00751118 0)
(0.00901643 -0.00836321 0)
(0.0112443 -0.00936572 0)
(0.013835 -0.0104904 0)
(0.0168203 -0.0117117 0)
(0.0202402 -0.0130013 0)
(0.0241183 -0.0143195 0)
(0.0284643 -0.0156202 0)
(0.0332759 -0.0168592 0)
(0.0385329 -0.0179839 0)
(0.0442116 -0.0189346 0)
(0.0502565 -0.0196527 0)
(0.0565755 -0.0200779 0)
(0.063075 -0.0201465 0)
(0.0696467 -0.0198169 0)
(0.0761569 -0.019026 0)
(0.0824487 -0.0177543 0)
(0.088346 -0.0159628 0)
(0.0936719 -0.0136513 0)
(0.0982523 -0.0108365 0)
(0.101914 -0.00755461 0)
(0.104493 -0.00386482 0)
(0.105859 0.00015631 0)
(0.105878 0.00440603 0)
(0.104469 0.00880006 0)
(0.101603 0.0132147 0)
(0.097268 0.0175129 0)
(0.09151 0.0216093 0)
(0.0843836 0.0254239 0)
(0.0759619 0.0288761 0)
(0.0663718 0.0319269 0)
(0.0557572 0.0345386 0)
(0.0442593 0.036664 0)
(0.0320505 0.0382808 0)
(0.0193206 0.0393678 0)
(0.00628091 0.0399142 0)
(-0.00686792 0.0399146 0)
(-0.0199062 0.0393604 0)
(-0.032607 0.0382608 0)
(-0.0447709 0.0366249 0)
(-0.0562133 0.0344722 0)
(-0.0667596 0.03182 0)
(-0.0762551 0.0287036 0)
(-0.0845732 0.0251915 0)
(-0.0915833 0.0213331 0)
(-0.0972092 0.0172074 0)
(-0.101416 0.0129169 0)
(-0.104172 0.00855561 0)
(-0.105493 0.0042392 0)
(-0.105428 7.27324e-05 0)
(-0.104064 -0.00384585 0)
(-0.101523 -0.00742904 0)
(-0.0979408 -0.0106125 0)
(-0.0934723 -0.0133453 0)
(-0.0882828 -0.0155969 0)
(-0.0825401 -0.017356 0)
(-0.0764037 -0.01862 0)
(-0.0700384 -0.0194139 0)
(-0.063609 -0.0197849 0)
(-0.0572304 -0.0197595 0)
(-0.0510101 -0.0194013 0)
(-0.0450505 -0.0187579 0)
(-0.0394189 -0.0178837 0)
(-0.0341755 -0.0168293 0)
(-0.0293528 -0.0156657 0)
(-0.0249627 -0.0144216 0)
(-0.0210337 -0.0131678 0)
(-0.0175484 -0.0119258 0)
(-0.0144827 -0.0107383 0)
(-0.011817 -0.00963304 0)
(-0.00949191 -0.00864535 0)
(-0.00748255 -0.00779667 0)
(-0.00573634 -0.00711523 0)
(-0.00418635 -0.00666696 0)
(-0.00274999 -0.00676965 0)
(-0.00112573 -0.00777993 0)
(0.00101439 -0.00928965 0)
(0.0023411 -0.00781268 0)
(0.00348269 -0.00768388 0)
(0.00472477 -0.00828407 0)
(0.00618897 -0.00920745 0)
(0.0079253 -0.0103517 0)
(0.00998956 -0.0117052 0)
(0.0124462 -0.0132254 0)
(0.0153308 -0.0148838 0)
(0.0186893 -0.0166405 0)
(0.0225543 -0.0184474 0)
(0.0269403 -0.0202513 0)
(0.0318483 -0.0219836 0)
(0.0372702 -0.0235768 0)
(0.0431795 -0.024943 0)
(0.0495218 -0.0260166 0)
(0.0562144 -0.0267108 0)
(0.0631502 -0.0269399 0)
(0.0702228 -0.0266314 0)
(0.0772822 -0.0257096 0)
(0.0841579 -0.024141 0)
(0.090664 -0.0218681 0)
(0.0965913 -0.0188798 0)
(0.101744 -0.0151995 0)
(0.105923 -0.0108691 0)
(0.108941 -0.00596598 0)
(0.110639 -0.000592265 0)
(0.110882 0.00511645 0)
(0.109575 0.0110195 0)
(0.106659 0.0169516 0)
(0.102149 0.0227643 0)
(0.0961052 0.0283237 0)
(0.0885978 0.0334956 0)
(0.0797284 0.0381872 0)
(0.0696362 0.0423348 0)
(0.0584703 0.0458715 0)
(0.0463898 0.0487484 0)
(0.0335829 0.0509386 0)
(0.0202446 0.0524125 0)
(0.00659313 0.0531513 0)
(-0.00717692 0.0531548 0)
(-0.0208375 0.0524023 0)
(-0.0341591 0.0509086 0)
(-0.0469382 0.048693 0)
(-0.0589788 0.0457622 0)
(-0.0700979 0.0421561 0)
(-0.0801036 0.0379254 0)
(-0.0888551 0.0331463 0)
(-0.0962258 0.0279103 0)
(-0.102107 0.0223159 0)
(-0.106442 0.0165102 0)
(-0.109202 0.0106417 0)
(-0.110402 0.00485246 0)
(-0.110099 -0.000719217 0)
(-0.108389 -0.00593586 0)
(-0.105413 -0.0106831 0)
(-0.101329 -0.0148718 0)
(-0.0963108 -0.0184376 0)
(-0.0905487 -0.0213429 0)
(-0.0842276 -0.0235726 0)
(-0.0775289 -0.0251336 0)
(-0.0706437 -0.0260699 0)
(-0.063737 -0.0264351 0)
(-0.0569363 -0.0262761 0)
(-0.0503609 -0.0256762 0)
(-0.0441075 -0.0247022 0)
(-0.0382402 -0.0234356 0)
(-0.0328326 -0.0219507 0)
(-0.0279047 -0.0203144 0)
(-0.0234734 -0.0186048 0)
(-0.0195512 -0.0168837 0)
(-0.0161051 -0.0151781 0)
(-0.0131268 -0.0135605 0)
(-0.0105781 -0.0120647 0)
(-0.00840885 -0.010732 0)
(-0.00657609 -0.00958892 0)
(-0.00502115 -0.00866758 0)
(-0.00367965 -0.00805995 0)
(-0.00245586 -0.00818665 0)
(-0.00105135 -0.00962872 0)
(0.000920566 -0.0108576 0)
(0.0019649 -0.0088941 0)
(0.00283376 -0.00874785 0)
(0.00381079 -0.00952042 0)
(0.00501568 -0.0106851 0)
(0.00650706 -0.0121499 0)
(0.00835796 -0.0138775 0)
(0.0106419 -0.0158232 0)
(0.013389 -0.0179583 0)
(0.0166588 -0.0202309 0)
(0.0204886 -0.0225834 0)
(0.0249084 -0.0249621 0)
(0.0299299 -0.0272472 0)
(0.035553 -0.0293922 0)
(0.0417516 -0.0312593 0)
(0.0484689 -0.0327669 0)
(0.0556327 -0.0338081 0)
(0.0631359 -0.0342723 0)
(0.07086 -0.0340549 0)
(0.0786327 -0.0330576 0)
(0.0862792 -0.0312194 0)
(0.0935982 -0.0284765 0)
(0.100333 -0.0247955 0)
(0.106257 -0.0202023 0)
(0.111142 -0.014746 0)
(0.114765 -0.00852338 0)
(0.116936 -0.00167063 0)
(0.117484 0.00565106 0)
(0.116298 0.0132116 0)
(0.113345 0.0208173 0)
(0.10864 0.0282968 0)
(0.102237 0.0354306 0)
(0.0942364 0.0420633 0)
(0.0847825 0.0480708 0)
(0.0740285 0.0533597 0)
(0.0621395 0.0578505 0)
(0.0492952 0.0615041 0)
(0.0356875 0.064283 0)
(0.0215163 0.0661511 0)
(0.00701655 0.0670816 0)
(-0.00761543 0.067099 0)
(-0.0221411 0.0661508 0)
(-0.0363023 0.0642639 0)
(-0.0499058 0.061458 0)
(-0.0627391 0.0577271 0)
(-0.0745928 0.0531198 0)
(-0.0852667 0.0477138 0)
(-0.0945933 0.0415741 0)
(-0.102422 0.034835 0)
(-0.108621 0.0276481 0)
(-0.113099 0.0201907 0)
(-0.115838 0.0126641 0)
(-0.116861 0.00525886 0)
(-0.116222 -0.00185438 0)
(-0.114032 -0.00848368 0)
(-0.110462 -0.014486 0)
(-0.105696 -0.0197457 0)
(-0.0999413 -0.0241839 0)
(-0.093413 -0.0277571 0)
(-0.0863228 -0.0304459 0)
(-0.0788885 -0.0322776 0)
(-0.0713238 -0.0333088 0)
(-0.0637975 -0.0336054 0)
(-0.0564528 -0.0332417 0)
(-0.0494182 -0.0323237 0)
(-0.0427918 -0.0309451 0)
(-0.0366476 -0.0292095 0)
(-0.0310344 -0.0272217 0)
(-0.0259884 -0.0250479 0)
(-0.0215141 -0.022812 0)
(-0.0175906 -0.0205556 0)
(-0.0142101 -0.0183534 0)
(-0.0113556 -0.0162643 0)
(-0.00897622 -0.0143415 0)
(-0.00700427 -0.0126357 0)
(-0.00539764 -0.0111687 0)
(-0.004096 -0.00999152 0)
(-0.0030225 -0.00920867 0)
(-0.00207679 -0.00935223 0)
(-0.000955189 -0.0112722 0)
(0.000802994 -0.0121662 0)
(0.00150131 -0.009661 0)
(0.00201915 -0.00949452 0)
(0.00266234 -0.0104497 0)
(0.00354689 -0.0118845 0)
(0.00473325 -0.0136925 0)
(0.00631808 -0.0158129 0)
(0.00836767 -0.018232 0)
(0.0109258 -0.0208974 0)
(0.0140674 -0.0237483 0)
(0.0178271 -0.0267191 0)
(0.0222817 -0.0297417 0)
(0.027424 -0.0326749 0)
(0.0332653 -0.0354601 0)
(0.0398133 -0.0379383 0)
(0.0469832 -0.0399929 0)
(0.0547207 -0.0414904 0)
(0.0629181 -0.0422904 0)
(0.0714551 -0.0422578 0)
(0.0801395 -0.0412627 0)
(0.0887669 -0.0392018 0)
(0.097121 -0.0360049 0)
(0.104903 -0.0316229 0)
(0.111835 -0.0260558 0)
(0.117648 -0.0193742 0)
(0.122068 -0.0117003 0)
(0.124872 -0.00320867 0)
(0.125829 0.00587613 0)
(0.124812 0.0153204 0)
(0.121825 0.0248463 0)
(0.116851 0.0341767 0)
(0.109965 0.0430554 0)
(0.101331 0.051283 0)
(0.0911193 0.0586926 0)
(0.0795128 0.0651826 0)
(0.0667116 0.0706829 0)
(0.052913 0.0751423 0)
(0.0383039 0.0785204 0)
(0.0230909 0.0807765 0)
(0.00754223 0.0819053 0)
(-0.008158 0.0819422 0)
(-0.0237623 0.0808179 0)
(-0.0389693 0.0785451 0)
(-0.0536077 0.0751315 0)
(-0.0674475 0.0705732 0)
(-0.0802399 0.064913 0)
(-0.0917743 0.0582229 0)
(-0.10185 0.0506036 0)
(-0.110263 0.0422117 0)
(-0.116856 0.0332558 0)
(-0.121522 0.0239637 0)
(-0.12422 0.0145777 0)
(-0.124998 0.0053615 0)
(-0.123909 -0.0034595 0)
(-0.121081 -0.0116449 0)
(-0.11673 -0.0190168 0)
(-0.111074 -0.0254312 0)
(-0.104363 -0.030791 0)
(-0.0968468 -0.0350407 0)
(-0.0887784 -0.0381746 0)
(-0.0804153 -0.0402334 0)
(-0.07199 -0.0412921 0)
(-0.0636861 -0.0414347 0)
(-0.0556685 -0.0407655 0)
(-0.0480774 -0.0394297 0)
(-0.0410049 -0.0375477 0)
(-0.0345253 -0.0352497 0)
(-0.0286785 -0.0326568 0)
(-0.0235018 -0.0298759 0)
(-0.018986 -0.0270223 0)
(-0.0150959 -0.0241692 0)
(-0.011816 -0.0214145 0)
(-0.00911704 -0.0188128 0)
(-0.00695171 -0.0164253 0)
(-0.00523718 -0.0142982 0)
(-0.00391971 -0.0124869 0)
(-0.00293448 -0.0110249 0)
(-0.00219813 -0.0100484 0)
(-0.00160064 -0.0101999 0)
(-0.000832689 -0.0126546 0)
(0.000659578 -0.0131567 0)
(0.0009416 -0.0100456 0)
(0.001042 -0.00986749 0)
(0.00127335 -0.0110077 0)
(0.00175887 -0.012734 0)
(0.00258007 -0.0148996 0)
(0.00382173 -0.0174592 0)
(0.0055615 -0.0203988 0)
(0.00787772 -0.0236491 0)
(0.0108432 -0.0271457 0)
(0.0145024 -0.0308405 0)
(0.0189617 -0.0345738 0)
(0.0242218 -0.0382851 0)
(0.0303021 -0.0418184 0)
(0.0372329 -0.0450412 0)
(0.0449331 -0.0477852 0)
(0.0533538 -0.0498796 0)
(0.0623913 -0.0511533 0)
(0.0719166 -0.0514222 0)
(0.0817239 -0.050536 0)
(0.0915803 -0.0483306 0)
(0.101227 -0.0447113 0)
(0.110339 -0.0396165 0)
(0.118571 -0.0330131 0)
(0.125572 -0.0249809 0)
(0.131015 -0.0156815 0)
(0.134609 -0.00531621 0)
(0.136123 0.00581715 0)
(0.13539 0.0174118 0)
(0.132337 0.0291005 0)
(0.126996 0.0405088 0)
(0.119495 0.0513459 0)
(0.110027 0.06134 0)
(0.0988308 0.0702701 0)
(0.0861606 0.0780262 0)
(0.0722337 0.0845686 0)
(0.0572594 0.089852 0)
(0.041429 0.0938384 0)
(0.0249662 0.0964999 0)
(0.00817554 0.0978336 0)
(-0.00878663 0.097892 0)
(-0.0256776 0.0966025 0)
(-0.0421649 0.0939621 0)
(-0.0580741 0.0899419 0)
(-0.0731552 0.0845314 0)
(-0.0871387 0.0777612 0)
(-0.0997676 0.069686 0)
(-0.110789 0.0604341 0)
(-0.119949 0.0502004 0)
(-0.127035 0.0392457 0)
(-0.131929 0.0278505 0)
(-0.134575 0.0163382 0)
(-0.135018 0.00504077 0)
(-0.133332 -0.00568393 0)
(-0.12968 -0.0156026 0)
(-0.124327 -0.0244894 0)
(-0.117537 -0.0321593 0)
(-0.109606 -0.0384961 0)
(-0.100845 -0.0434276 0)
(-0.0915581 -0.0469844 0)
(-0.0820416 -0.0492035 0)
(-0.0725543 -0.0501946 0)
(-0.0632961 -0.0500674 0)
(-0.05447 -0.048967 0)
(-0.0462209 -0.0470861 0)
(-0.0386296 -0.0445701 0)
(-0.0317711 -0.0415852 0)
(-0.025673 -0.0382805 0)
(-0.0203641 -0.0347917 0)
(-0.015815 -0.0312317 0)
(-0.0119881 -0.0277087 0)
(-0.00885781 -0.0243255 0)
(-0.0063707 -0.0211392 0)
(-0.00446597 -0.0182421 0)
(-0.00306918 -0.0156539 0)
(-0.00211082 -0.0134669 0)
(-0.00150879 -0.0116941 0)
(-0.00118914 -0.0105065 0)
(-0.00102086 -0.0106542 0)
(-0.000684003 -0.013708 0)
(0.000485562 -0.0137605 0)
(0.000276536 -0.00997652 0)
(-0.000114411 -0.00979883 0)
(-0.000373816 -0.0111449 0)
(-0.000360863 -0.0131644 0)
(9.92211e-06 -0.0157131 0)
(0.000822975 -0.0187588 0)
(0.00218289 -0.0222586 0)
(0.00418516 -0.0261558 0)
(0.00688399 -0.0303861 0)
(0.0104092 -0.0348829 0)
(0.0148497 -0.0394718 0)
(0.0201946 -0.0440774 0)
(0.0265268 -0.0485061 0)
(0.0338665 -0.0526283 0)
(0.0421673 -0.0562286 0)
(0.0513791 -0.0590973 0)
(0.0614086 -0.0610188 0)
(0.0721145 -0.0617633 0)
(0.0832821 -0.0611292 0)
(0.0946523 -0.0588877 0)
(0.105906 -0.0549026 0)
(0.116682 -0.049079 0)
(0.126564 -0.0413797 0)
(0.135089 -0.0318532 0)
(0.14186 -0.0207003 0)
(0.146517 -0.00816908 0)
(0.148727 0.0053861 0)
(0.148286 0.0194801 0)
(0.145134 0.0336666 0)
(0.139328 0.047498 0)
(0.131035 0.0605514 0)
(0.120496 0.0724671 0)
(0.10804 0.0830402 0)
(0.0940293 0.0921354 0)
(0.0787331 0.0997428 0)
(0.0623543 0.10587 0)
(0.0450881 0.110479 0)
(0.0271606 0.113563 0)
(0.00891224 0.115111 0)
(-0.00950881 0.115194 0)
(-0.0278916 0.113733 0)
(-0.0458857 0.11076 0)
(-0.0633272 0.106145 0)
(-0.0799263 0.0998679 0)
(-0.0953901 0.0919263 0)
(-0.109403 0.0823589 0)
(-0.121628 0.0712795 0)
(-0.131732 0.0589362 0)
(-0.139463 0.0456637 0)
(-0.144658 0.0318533 0)
(-0.14723 0.0178988 0)
(-0.147194 0.00422611 0)
(-0.144702 -0.00869146 0)
(-0.140013 -0.0205802 0)
(-0.133394 -0.0311636 0)
(-0.125169 -0.0402053 0)
(-0.115708 -0.047571 0)
(-0.105401 -0.0532086 0)
(-0.0946127 -0.0571372 0)
(-0.0836752 -0.0594179 0)
(-0.0728954 -0.0602048 0)
(-0.0624938 -0.0596544 0)
(-0.0527176 -0.0579782 0)
(-0.0437082 -0.0553835 0)
(-0.0355278 -0.0520713 0)
(-0.028255 -0.0482509 0)
(-0.0219008 -0.0440982 0)
(-0.0164649 -0.0397799 0)
(-0.0119121 -0.0354099 0)
(-0.00819676 -0.0311193 0)
(-0.00525264 -0.027019 0)
(-0.00303981 -0.0231956 0)
(-0.00147216 -0.01972 0)
(-0.000465649 -0.0166415 0)
(5.59945e-05 -0.0140253 0)
(0.000196903 -0.0119176 0)
(1.8612e-05 -0.0104973 0)
(-0.000321618 -0.0106344 0)
(-0.000500056 -0.014352 0)
(0.000272762 -0.0139157 0)
(-0.000512629 -0.00938366 0)
(-0.00146984 -0.00918652 0)
(-0.00228338 -0.010742 0)
(-0.00282671 -0.0130819 0)
(-0.00301193 -0.0160581 0)
(-0.00271878 -0.0196131 0)
(-0.00182916 -0.0237256 0)
(-0.000241837 -0.0283472 0)
(0.00212622 -0.0334063 0)
(0.00543004 -0.0387772 0)
(0.00978362 -0.0443745 0)
(0.0152078 -0.0500219 0)
(0.0217747 -0.0555318 0)
(0.0295376 -0.0607474 0)
(0.0384958 -0.0654089 0)
(0.0486023 -0.0692752 0)
(0.0597738 -0.0720647 0)
(0.0718659 -0.0735095 0)
(0.0846714 -0.0733167 0)
(0.0978918 -0.0712047 0)
(0.111137 -0.0669507 0)
(0.123979 -0.0604088 0)
(0.135932 -0.0515317 0)
(0.146409 -0.0403519 0)
(0.15489 -0.027067 0)
(0.160917 -0.012022 0)
(0.16403 0.0042842 0)
(0.163963 0.0214128 0)
(0.160686 0.0385899 0)
(0.154252 0.0552785 0)
(0.144863 0.0708885 0)
(0.132904 0.084988 0)
(0.118872 0.0973224 0)
(0.103208 0.107793 0)
(0.0862657 0.116452 0)
(0.0682482 0.123401 0)
(0.0493138 0.128629 0)
(0.0296845 0.132078 0)
(0.00973565 0.133721 0)
(-0.0103679 0.133901 0)
(-0.0304104 0.1324 0)
(-0.0501374 0.129174 0)
(-0.0693972 0.124016 0)
(-0.0878316 0.116898 0)
(-0.105127 0.107748 0)
(-0.120894 0.0965405 0)
(-0.134676 0.0833981 0)
(-0.146 0.0686164 0)
(-0.15451 0.0526214 0)
(-0.16004 0.0359608 0)
(-0.162503 0.0191823 0)
(-0.161864 0.00278851 0)
(-0.158355 -0.0127055 0)
(-0.152331 -0.0268696 0)
(-0.144102 -0.0393585 0)
(-0.13407 -0.0499111 0)
(-0.12272 -0.0583745 0)
(-0.110508 -0.0647163 0)
(-0.0978529 -0.0689303 0)
(-0.0851797 -0.0711469 0)
(-0.0728491 -0.0715494 0)
(-0.0611183 -0.0703768 0)
(-0.0502404 -0.0679164 0)
(-0.04035 -0.0643993 0)
(-0.0315268 -0.0600892 0)
(-0.0238219 -0.0552625 0)
(-0.0172208 -0.0501073 0)
(-0.0116899 -0.0448046 0)
(-0.0071657 -0.0395039 0)
(-0.0036066 -0.03435 0)
(-0.000942647 -0.0294467 0)
(0.00092054 -0.0249114 0)
(0.00208114 -0.0207891 0)
(0.00262165 -0.0171694 0)
(0.00263071 -0.0140869 0)
(0.00221156 -0.0116228 0)
(0.00144212 -0.00995452 0)
(0.000508979 -0.0100584 0)
(-0.000270612 -0.0145198 0)
(1.75062e-05 -0.0135526 0)
(-0.00140313 -0.00814868 0)
(-0.00299234 -0.00793936 0)
(-0.00448154 -0.00970963 0)
(-0.00569591 -0.0123921 0)
(-0.00651818 -0.0157982 0)
(-0.00683838 -0.0199046 0)
(-0.0065431 -0.0246932 0)
(-0.00548517 -0.0301228 0)
(-0.00353252 -0.0361074 0)
(-0.00054191 -0.0425059 0)
(0.00362584 -0.0492348 0)
(0.00906344 -0.0561008 0)
(0.015833 -0.0629026 0)
(0.0240269 -0.0694311 0)
(0.0336845 -0.0753849 0)
(0.0447786 -0.0805332 0)
(0.057243 -0.0844713 0)
(0.0709462 -0.0869056 0)
(0.0856888 -0.0874206 0)
(0.10114 -0.0856653 0)
(0.116847 -0.0813059 0)
(0.132276 -0.0741013 0)
(0.146825 -0.0639545 0)
(0.159791 -0.050915 0)
(0.170471 -0.0351645 0)
(0.178198 -0.0171258 0)
(0.182548 0.00254262 0)
(0.183034 0.0231989 0)
(0.179509 0.0440083 0)
(0.172205 0.064093 0)
(0.161384 0.0826968 0)
(0.147585 0.0992954 0)
(0.131493 0.113523 0)
(0.113758 0.125334 0)
(0.0948495 0.134969 0)
(0.0749337 0.142713 0)
(0.0540263 0.148585 0)
(0.0323059 0.152407 0)
(0.0105284 0.154161 0)
(-0.0112208 0.154291 0)
(-0.0331167 0.152815 0)
(-0.0548766 0.149447 0)
(-0.0762811 0.143858 0)
(-0.0969324 0.135998 0)
(-0.116522 0.125647 0)
(-0.134524 0.112667 0)
(-0.150289 0.0971721 0)
(-0.16319 0.0795427 0)
(-0.172724 0.0603326 0)
(-0.178624 0.0402416 0)
(-0.180859 0.0200927 0)
(-0.179468 0.000472478 0)
(-0.174685 -0.0180233 0)
(-0.166937 -0.0348132 0)
(-0.156662 -0.049459 0)
(-0.144381 -0.0616946 0)
(-0.130682 -0.0713374 0)
(-0.116105 -0.0783331 0)
(-0.101169 -0.0827244 0)
(-0.0863955 -0.0846965 0)
(-0.0722078 -0.084489 0)
(-0.0589278 -0.082431 0)
(-0.0467952 -0.0788936 0)
(-0.035927 -0.074185 0)
(-0.0264273 -0.0686781 0)
(-0.0183027 -0.0626139 0)
(-0.011466 -0.0562724 0)
(-0.00587917 -0.0498305 0)
(-0.00147174 -0.043472 0)
(0.0018482 -0.0373415 0)
(0.00417459 -0.031555 0)
(0.00560791 -0.0262027 0)
(0.00626138 -0.0213693 0)
(0.00623199 -0.0171409 0)
(0.00562102 -0.0135607 0)
(0.0045416 -0.0106965 0)
(0.003106 -0.0087411 0)
(0.001497 -0.00881007 0)
(5.21322e-06 -0.0141349 0)
(-0.000248363 -0.0126043 0)
(-0.00240004 -0.00622682 0)
(-0.00472987 -0.00600312 0)
(-0.00696871 -0.00798243 0)
(-0.00893564 -0.0109851 0)
(-0.0105211 -0.0148229 0)
(-0.0116067 -0.019507 0)
(-0.0120375 -0.0250269 0)
(-0.0116428 -0.0313289 0)
(-0.0102394 -0.0383514 0)
(-0.00767496 -0.0459605 0)
(-0.00378312 -0.0539948 0)
(0.00157455 -0.0622878 0)
(0.00848715 -0.0705949 0)
(0.0171075 -0.0786806 0)
(0.0274569 -0.0862487 0)
(0.0395941 -0.0929581 0)
(0.0534964 -0.0984228 0)
(0.0690347 -0.10222 0)
(0.086056 -0.103811 0)
(0.104183 -0.102722 0)
(0.122915 -0.0984868 0)
(0.141589 -0.0907435 0)
(0.159419 -0.0792955 0)
(0.175537 -0.0641513 0)
(0.189047 -0.0455269 0)
(0.199038 -0.0239089 0)
(0.204849 -7.37249e-05 0)
(0.206018 0.0249498 0)
(0.20229 0.0501605 0)
(0.193786 0.0743741 0)
(0.181052 0.0966474 0)
(0.164816 0.116085 0)
(0.146036 0.132232 0)
(0.125731 0.145199 0)
(0.104548 0.155585 0)
(0.0825241 0.164025 0)
(0.0593831 0.170613 0)
(0.0353123 0.174736 0)
(0.0114039 0.176123 0)
(-0.0123334 0.176396 0)
(-0.0361398 0.175303 0)
(-0.0601313 0.171958 0)
(-0.0839839 0.166126 0)
(-0.107292 0.157702 0)
(-0.129756 0.146228 0)
(-0.150631 0.13137 0)
(-0.168976 0.113141 0)
(-0.183891 0.092014 0)
(-0.194719 0.0688574 0)
(-0.201052 0.044696 0)
(-0.20292 0.0204712 0)
(-0.200512 -0.0030382 0)
(-0.194084 -0.0250329 0)
(-0.184149 -0.0448521 0)
(-0.171317 -0.0619744 0)
(-0.156247 -0.0760756 0)
(-0.13962 -0.0869381 0)
(-0.122118 -0.0945264 0)
(-0.104398 -0.0989447 0)
(-0.0870901 -0.100426 0)
(-0.0707 -0.0993033 0)
(-0.0556152 -0.0960108 0)
(-0.04207 -0.09103 0)
(-0.0301953 -0.0848343 0)
(-0.0200046 -0.0778154 0)
(-0.011456 -0.0702983 0)
(-0.00446849 -0.0625622 0)
(0.00108554 -0.0548201 0)
(0.00530292 -0.047244 0)
(0.00829406 -0.040006 0)
(0.0101818 -0.0332119 0)
(0.0110943 -0.0269714 0)
(0.0111328 -0.0213679 0)
(0.0104244 -0.0164794 0)
(0.00909419 -0.0123522 0)
(0.00726231 -0.0090578 0)
(0.00502949 -0.00680094 0)
(0.0026032 -0.00682732 0)
(0.000307375 -0.0130922 0)
(-0.000558544 -0.0109977 0)
(-0.00350011 -0.00356909 0)
(-0.00662946 -0.00330217 0)
(-0.00971572 -0.0054779 0)
(-0.0125581 -0.00875879 0)
(-0.015036 -0.0130279 0)
(-0.0170336 -0.0182899 0)
(-0.0183526 -0.0245842 0)
(-0.0187932 -0.0318544 0)
(-0.0181421 -0.0400194 0)
(-0.0161562 -0.0489688 0)
(-0.0126646 -0.0585145 0)
(-0.00749103 -0.0684728 0)
(-0.000502146 -0.0785559 0)
(0.0084457 -0.0884849 0)
(0.0194957 -0.0980012 0)
(0.0327135 -0.106655 0)
(0.0481147 -0.114099 0)
(0.0657244 -0.119713 0)
(0.0853932 -0.122894 0)
(0.106719 -0.122931 0)
(0.12913 -0.119165 0)
(0.151812 -0.111084 0)
(0.173781 -0.09835 0)
(0.193941 -0.0808549 0)
(0.21116 -0.0587934 0)
(0.224245 -0.0328199 0)
(0.23222 -0.00397462 0)
(0.234298 0.026463 0)
(0.23014 0.0570287 0)
(0.220033 0.0863467 0)
(0.204593 0.113043 0)
(0.18488 0.135858 0)
(0.162489 0.153988 0)
(0.139016 0.167799 0)
(0.115319 0.178688 0)
(0.0912145 0.187821 0)
(0.0658857 0.195178 0)
(0.0393715 0.199519 0)
(0.0128832 0.200338 0)
(-0.0137313 0.200343 0)
(-0.0396084 0.199727 0)
(-0.0660281 0.196867 0)
(-0.0925789 0.191144 0)
(-0.119029 0.182448 0)
(-0.145069 0.170074 0)
(-0.169663 0.153271 0)
(-0.19144 0.131822 0)
(-0.208991 0.106407 0)
(-0.221323 0.0783527 0)
(-0.228087 0.0491043 0)
(-0.22947 0.01993 0)
(-0.225661 -0.00812167 0)
(-0.217034 -0.0342091 0)
(-0.204312 -0.0575814 0)
(-0.188266 -0.0775698 0)
(-0.169713 -0.0937147 0)
(-0.149483 -0.105824 0)
(-0.128422 -0.113907 0)
(-0.10733 -0.11812 0)
(-0.0869648 -0.118768 0)
(-0.0679589 -0.116292 0)
(-0.0507858 -0.111291 0)
(-0.0357241 -0.104436 0)
(-0.0227968 -0.0963567 0)
(-0.0119602 -0.0874547 0)
(-0.0031047 -0.0782368 0)
(0.00396817 -0.068881 0)
(0.00940376 -0.0596355 0)
(0.0133148 -0.0506942 0)
(0.0158586 -0.0422115 0)
(0.0171921 -0.0343096 0)
(0.0174382 -0.0270991 0)
(0.0167418 -0.0206517 0)
(0.0152404 -0.0150515 0)
(0.013062 -0.0103385 0)
(0.0103421 -0.00658218 0)
(0.00721797 -0.00401695 0)
(0.00391205 -0.00398211 0)
(0.000691004 -0.011286 0)
(-0.000909811 -0.00864142 0)
(-0.00471017 -4.22856e-06 0)
(-0.00870544 0.000317545 0)
(-0.0126964 -0.00201997 0)
(-0.0165085 -0.00558069 0)
(-0.0200472 -0.01025 0)
(-0.0231525 -0.0160973 0)
(-0.0255869 -0.0231696 0)
(-0.0270566 -0.0314765 0)
(-0.0273258 -0.0409244 0)
(-0.0261337 -0.0513846 0)
(-0.0232383 -0.062673 0)
(-0.0184052 -0.0745268 0)
(-0.0114468 -0.0866867 0)
(-0.00223897 -0.0988018 0)
(0.00940956 -0.110574 0)
(0.0236481 -0.121657 0)
(0.0406278 -0.131646 0)
(0.0604759 -0.139731 0)
(0.083127 -0.145214 0)
(0.108245 -0.147009 0)
(0.13512 -0.144184 0)
(0.162792 -0.13601 0)
(0.190187 -0.121993 0)
(0.216103 -0.101855 0)
(0.238953 -0.0756679 0)
(0.256801 -0.0443124 0)
(0.268055 -0.00909356 0)
(0.271575 0.0282582 0)
(0.26699 0.0659819 0)
(0.254455 0.101989 0)
(0.234812 0.13413 0)
(0.209818 0.16041 0)
(0.182177 0.179668 0)
(0.154688 0.192753 0)
(0.128287 0.202815 0)
(0.101886 0.212221 0)
(0.0741161 0.220909 0)
(0.0452835 0.226459 0)
(0.0163065 0.227559 0)
(-0.0143233 0.227045 0)
(-0.0430004 0.226348 0)
(-0.0725607 0.223411 0)
(-0.102743 0.217764 0)
(-0.133019 0.209702 0)
(-0.163317 0.197524 0)
(-0.19264 0.179329 0)
(-0.219064 0.154426 0)
(-0.240375 0.123761 0)
(-0.255016 0.0894692 0)
(-0.26242 0.0538427 0)
(-0.262929 0.0185688 0)
(-0.257124 -0.0149179 0)
(-0.245501 -0.0458894 0)
(-0.228864 -0.0734555 0)
(-0.20827 -0.0967769 0)
(-0.184993 -0.11525 0)
(-0.160181 -0.128704 0)
(-0.134755 -0.137196 0)
(-0.109579 -0.140937 0)
(-0.0855431 -0.140291 0)
(-0.063456 -0.13586 0)
(-0.0439454 -0.128478 0)
(-0.0272837 -0.119135 0)
(-0.0133334 -0.108646 0)
(-0.00198101 -0.0975986 0)
(0.00704169 -0.086316 0)
(0.014073 -0.0750867 0)
(0.0192252 -0.0641407 0)
(0.0226901 -0.0536819 0)
(0.0246503 -0.0438305 0)
(0.0252725 -0.0347338 0)
(0.0247345 -0.0264751 0)
(0.0231666 -0.0191342 0)
(0.0207289 -0.0127357 0)
(0.0175829 -0.00737812 0)
(0.0138507 -0.00311125 0)
(0.00969462 -0.000177467 0)
(0.0053785 -7.68524e-05 0)
(0.00112004 -0.00858623 0)
(-0.0012594 -0.00551049 0)
(-0.00596738 0.0044717 0)
(-0.0108994 0.00489959 0)
(-0.0159028 0.00247881 0)
(-0.0208119 -0.00128583 0)
(-0.0255465 -0.0062964 0)
(-0.0299404 -0.0126859 0)
(-0.0337136 -0.0205346 0)
(-0.0365228 -0.0299371 0)
(-0.0380154 -0.0408216 0)
(-0.0378575 -0.0530124 0)
(-0.0357427 -0.0662735 0)
(-0.0314221 -0.080306 0)
(-0.0246706 -0.0948335 0)
(-0.0153072 -0.109512 0)
(-0.00319049 -0.124001 0)
(0.0118493 -0.137979 0)
(0.03029 -0.15109 0)
(0.0524508 -0.162471 0)
(0.078468 -0.171172 0)
(0.108192 -0.175557 0)
(0.140815 -0.174353 0)
(0.17537 -0.166674 0)
(0.210817 -0.152052 0)
(0.245532 -0.129873 0)
(0.27652 -0.09968 0)
(0.300592 -0.0623139 0)
(0.315753 -0.0192364 0)
(0.320998 0.0283226 0)
(0.316051 0.0757086 0)
(0.300821 0.120954 0)
(0.275916 0.161247 0)
(0.243427 0.19316 0)
(0.207912 0.214065 0)
(0.174967 0.22549 0)
(0.146232 0.23389 0)
(0.118389 0.242879 0)
(0.0882221 0.251494 0)
(0.0559992 0.256856 0)
(0.0229422 0.258665 0)
(-0.0148673 0.258371 0)
(-0.0502296 0.258205 0)