/*--------------------------------*- C++ -*----------------------------------*\
| =========                 |                                                 |
| \\      /  F ield         | OpenFOAM: The Open Source CFD Toolbox           |
|  \\    /   O peration     | Version:  2412                                  |
|   \\  /    A nd           | Website:  www.openfoam.com                      |
|    \\/     M anipulation  |                                                 |
\*---------------------------------------------------------------------------*/
FoamFile
{
    version     2.0;
    format      ascii;
    arch        "LSB;label=32;scalar=64";
    class       surfaceScalarField;
    location    "6.7";
    object      phi;
}
// * * * * * * * * * * * * * * * * * * * * * * * * * * * * * * * * * * * * * //

dimensions      [0 3 -1 0 0 0 0];

oriented        oriented;

internalField   nonuniform List<scalar> 
12640
(
1.71909e-08
-1.51288e-08
3.43803e-08
-5.66508e-08
2.41332e-08
-7.27844e-08
-1.80054e-08
-3.19133e-08
-6.74866e-08
5.68171e-08
-8.3222e-08
1.41148e-07
-4.06598e-08
1.55865e-07
4.51036e-08
6.92946e-08
1.22312e-07
-8.47748e-08
1.34073e-07
-2.17414e-07
5.8961e-08
-2.36765e-07
-6.78165e-08
-1.10963e-07
-1.70453e-07
1.01218e-07
-1.78847e-07
2.7725e-07
-7.62977e-08
3.03423e-07
8.38526e-08
1.49033e-07
2.06502e-07
-1.06646e-07
2.1264e-07
-3.15789e-07
9.07561e-08
-3.49693e-07
-9.19371e-08
-1.79366e-07
-2.27626e-07
1.02172e-07
-2.33043e-07
3.32084e-07
-1.0137e-07
3.7417e-07
9.19025e-08
2.01072e-07
2.33493e-07
-8.82377e-08
2.40198e-07
-3.26643e-07
1.08561e-07
-3.77511e-07
-8.37257e-08
-2.14267e-07
-2.2488e-07
6.61249e-08
-2.35285e-07
3.02223e-07
-1.12914e-07
3.62808e-07
6.82651e-08
2.20598e-07
2.03999e-07
-3.68521e-08
2.20709e-07
-2.62139e-07
1.15473e-07
-3.33695e-07
-4.66917e-08
-2.21545e-07
-1.73701e-07
2.41947e-09
-1.99306e-07
2.1107e-07
-1.17273e-07
2.94969e-07
2.04636e-08
2.19294e-07
1.37033e-07
3.55786e-08
1.73756e-07
-1.53213e-07
1.18864e-07
-2.50639e-07
8.40617e-09
-2.1502e-07
-9.73923e-08
-7.46508e-08
-1.46817e-07
9.32638e-08
-1.20795e-07
2.04838e-07
-3.81341e-08
2.1e-07
5.75414e-08
1.12829e-07
1.20321e-07
-3.47679e-08
1.22754e-07
-1.60123e-07
6.64885e-08
-2.04041e-07
-2.01918e-08
-1.47284e-07
-9.57906e-08
-1.86153e-08
-1.24269e-07
1.18772e-07
-9.15325e-08
1.96871e-07
-1.27058e-08
1.75782e-07
7.38284e-08
6.45315e-08
1.24215e-07
-8.145e-08
1.11215e-07
-1.86906e-07
3.95483e-08
-1.95468e-07
-5.46019e-08
-1.00619e-07
-1.21371e-07
4.87294e-08
-1.23924e-07
1.72957e-07
-5.95464e-08
2.04645e-07
3.75047e-08
1.26189e-07
1.14203e-07
-1.96553e-08
1.28371e-07
-1.53164e-07
7.27137e-08
-2.02134e-07
-2.10643e-08
-1.419e-07
-1.00771e-07
-7.84659e-09
-1.23913e-07
1.2624e-07
-8.1404e-08
1.9024e-07
-6.22057e-10
1.54955e-07
7.35605e-08
4.37817e-08
1.07327e-07
-8.49677e-08
9.74735e-08
-1.71277e-07
6.34849e-08
-1.82609e-07
2.49196e-08
-1.27673e-07
-3.45294e-08
-1.35064e-08
2.01569e-08
3.40762e-08
-2.43213e-08
7.05478e-08
-8.18624e-08
5.66577e-08
-9.40801e-08
-1.43459e-08
-3.32467e-08
-9.90344e-08
7.82508e-08
-1.34062e-07
1.72175e-07
-8.04076e-08
1.74621e-07
4.26808e-08
6.04297e-08
1.61831e-07
-1.18039e-07
1.93957e-07
-2.53769e-07
1.03613e-07
-2.50503e-07
-6.62044e-08
-8.99001e-08
-2.14194e-07
1.46067e-07
-2.42625e-07
3.17554e-07
-1.22263e-07
3.11745e-07
8.30664e-08
1.17484e-07
2.51171e-07
-1.60005e-07
2.75997e-07
-3.57614e-07
1.35454e-07
-3.52553e-07
-9.13316e-08
-1.39779e-07
-2.69935e-07
1.60786e-07
-2.92191e-07
3.73735e-07
-1.42781e-07
3.72867e-07
9.07516e-08
1.57233e-07
2.70791e-07
-1.48e-07
2.92484e-07
-3.66109e-07
1.45713e-07
-3.73207e-07
-8.09137e-08
-1.6954e-07
-2.54923e-07
1.23821e-07
-2.78877e-07
3.38622e-07
-1.45445e-07
3.5757e-07
6.27294e-08
1.78732e-07
2.25262e-07
-8.9294e-08
2.5471e-07
-2.94584e-07
1.43559e-07
-3.291e-07
-3.75981e-08
-1.85187e-07
-1.85535e-07
4.78279e-08
-2.23829e-07
2.39834e-07
-1.41681e-07
2.93097e-07
7.04404e-09
1.90968e-07
1.39295e-07
-1.29043e-09
1.89359e-07
-1.78401e-07
1.40304e-07
-2.52651e-07
2.62807e-08
-1.95763e-07
-9.08586e-08
-4.63317e-08
-1.5479e-07
1.15918e-07
-1.4021e-07
2.12067e-07
-6.03612e-08
2.00556e-07
4.33358e-08
9.29023e-08
1.22009e-07
-5.54778e-08
1.40661e-07
-1.72753e-07
9.22103e-08
-2.03676e-07
-1.42704e-10
-1.34356e-07
-9.28523e-08
1.35035e-09
-1.41037e-07
1.3701e-07
-1.19522e-07
2.04713e-07
-3.65507e-08
1.68667e-07
6.7744e-08
4.49238e-08
1.39678e-07
-1.04245e-07
1.39648e-07
-2.00826e-07
6.48213e-08
-1.92147e-07
-4.67563e-08
-8.06811e-08
-1.35017e-07
7.5064e-08
-1.50747e-07
1.91046e-07
-8.40933e-08
2.03831e-07
2.85737e-08
1.06454e-07
1.24647e-07
-4.71684e-08
1.51105e-07
-1.72512e-07
9.49964e-08
-2.0214e-07
-9.92371e-09
-1.23002e-07
-1.04382e-07
1.81476e-08
-1.39155e-07
1.43361e-07
-1.02368e-07
1.88073e-07
-2.12879e-08
1.35183e-07
6.16723e-08
2.04026e-08
1.18591e-07
-9.20365e-08
1.35341e-07
-1.48921e-07
1.14881e-07
-1.38247e-07
-7.13963e-08
-7.0718e-08
4.7942e-08
-2.11169e-08
3.67479e-08
6.28069e-08
-3.27634e-08
1.21945e-07
-1.09086e-07
9.87516e-08
-1.31179e-07
-7.76164e-09
-6.25703e-08
-1.37398e-07
7.28333e-08
-2.00547e-07
1.94307e-07
-1.38741e-07
2.13031e-07
2.77847e-08
9.54216e-08
2.02762e-07
-1.03818e-07
2.70808e-07
-2.66466e-07
1.74043e-07
-2.82607e-07
-4.29206e-08
-1.24882e-07
-2.53019e-07
1.25055e-07
-3.23141e-07
3.19631e-07
-1.99715e-07
3.34677e-07
5.22638e-08
1.49623e-07
2.84392e-07
-1.33772e-07
3.545e-07
-3.4896e-07
2.15288e-07
-3.64836e-07
-5.41892e-08
-1.6695e-07
-2.94915e-07
1.31346e-07
-3.63981e-07
3.55681e-07
-2.20936e-07
3.74859e-07
4.86134e-08
1.78826e-07
2.85785e-07
-1.166e-07
3.54061e-07
-3.39945e-07
2.19026e-07
-3.6554e-07
-3.50282e-08
-1.85043e-07
-2.58972e-07
9.21164e-08
-3.27996e-07
3.06546e-07
-2.11778e-07
3.42032e-07
1.40947e-08
1.88691e-07
2.18007e-07
-5.81867e-08
2.90137e-07
-2.58353e-07
2.01531e-07
-3.07193e-07
1.27845e-08
-1.8985e-07
-1.67424e-07
1.86376e-08
-2.45524e-07
2.01758e-07
-1.90866e-07
2.66982e-07
-4.43686e-08
1.91297e-07
1.11164e-07
2.54073e-08
1.97936e-07
-1.4004e-07
1.80682e-07
-2.23766e-07
7.785e-08
-1.92089e-07
-5.41969e-08
-6.94651e-08
-1.51651e-07
7.92077e-08
-1.72275e-07
1.82197e-07
-1.11261e-07
1.93647e-07
-7.64044e-11
1.12012e-07
1.08851e-07
-2.1574e-08
1.64903e-07
-1.42841e-07
1.41251e-07
-1.93541e-07
4.77108e-08
-1.48403e-07
-7.17682e-08
-2.81835e-08
-1.58023e-07
1.08349e-07
-1.65313e-07
1.91804e-07
-8.62898e-08
1.7724e-07
4.08736e-08
6.93044e-08
1.49739e-07
-7.73202e-08
1.80417e-07
-1.84901e-07
1.13613e-07
-1.94325e-07
-1.62443e-08
-9.87504e-08
-1.3828e-07
5.07492e-08
-1.84589e-07
1.72426e-07
-1.29339e-07
1.99504e-07
-4.08266e-09
1.18071e-07
1.20549e-07
-2.52433e-08
1.7603e-07
-1.50492e-07
1.35053e-07
-1.90402e-07
2.49153e-08
-1.2772e-07
-9.17765e-08
-2.31137e-09
-1.55028e-07
1.14903e-07
-1.3864e-07
1.64125e-07
-5.57314e-08
1.29177e-07
5.7968e-08
4.09547e-08
1.45269e-07
-5.03718e-08
1.62436e-07
-1.06737e-07
-9.0739e-08
-1.02772e-07
4.22722e-08
-9.33168e-08
8.73141e-08
-1.19253e-08
6.04414e-08
1.04341e-07
-3.7526e-08
1.72771e-07
-1.49271e-07
1.30752e-07
-1.89232e-07
-1.71308e-08
-1.06342e-07
-1.8699e-07
7.03433e-08
-2.62846e-07
2.38181e-07
-1.75771e-07
2.81924e-07
4.04247e-08
1.52326e-07
2.59577e-07
-9.10526e-08
3.38726e-07
-3.06469e-07
2.12304e-07
-3.5473e-07
-5.76871e-08
-1.90096e-07
-3.12298e-07
1.0254e-07
-3.91689e-07
3.52311e-07
-2.37076e-07
4.04737e-07
6.738e-08
2.18913e-07
3.41839e-07
-1.0254e-07
4.19665e-07
-3.71829e-07
2.50411e-07
-4.28346e-07
-6.77577e-08
-2.36211e-07
-3.46866e-07
9.32168e-08
-4.22741e-07
3.67783e-07
-2.53217e-07
4.29074e-07
5.87284e-08
2.45276e-07
3.29293e-07
-7.28909e-08
4.04349e-07
-3.40592e-07
2.48372e-07
-4.08289e-07
-4.01344e-08
-2.46152e-07
-2.92167e-07
4.46461e-08
-3.68937e-07
2.96311e-07
-2.38725e-07
3.72747e-07
1.28655e-08
2.43287e-07
2.39828e-07
-8.08031e-09
3.21609e-07
-2.37792e-07
2.26733e-07
-3.25597e-07
2.10168e-08
-2.36851e-07
-1.77887e-07
-3.25275e-08
-2.68277e-07
1.72434e-07
-2.1519e-07
2.7406e-07
-5.98176e-08
2.30733e-07
1.10976e-07
7.67383e-08
2.13098e-07
-1.03245e-07
2.04754e-07
-2.20396e-07
9.99953e-08
-2.23741e-07
-4.48447e-08
-1.1952e-07
-1.60723e-07
3.70332e-08
-1.96522e-07
1.70106e-07
-1.3904e-07
2.17994e-07
-1.6666e-08
1.59822e-07
1.13313e-07
2.42353e-08
1.8925e-07
-1.23362e-07
1.72926e-07
-2.10496e-07
6.91821e-08
-1.92276e-07
-7.30504e-08
-7.51244e-08
-1.81962e-07
8.34642e-08
-1.98685e-07
2.01772e-07
-1.10158e-07
2.15886e-07
4.00849e-08
1.1532e-07
1.72204e-07
-4.84323e-08
2.12883e-07
-1.87588e-07
1.37419e-07
-2.25747e-07
-1.40848e-08
-1.41183e-07
-1.57768e-07
1.97272e-08
-2.13495e-07
1.67961e-07
-1.51113e-07
2.22235e-07
-7.62828e-09
1.55015e-07
1.35215e-07
7.03383e-09
1.99036e-07
-1.37867e-07
1.5308e-07
-2.01863e-07
2.8488e-08
-1.56434e-07
-1.03502e-07
-3.46423e-08
-1.72817e-07
9.29387e-08
-1.45093e-07
1.61416e-07
-3.41639e-08
1.45184e-07
9.02809e-08
6.17006e-08
1.47195e-07
-4.21227e-08
-8.38063e-08
-7.02884e-08
-5.57226e-09
-1.25169e-07
8.0307e-08
-1.10871e-07
1.3576e-07
-4.90583e-09
9.11489e-08
1.38667e-07
-4.57602e-08
2.19671e-07
-1.92815e-07
1.62286e-07
-2.43893e-07
-2.13294e-08
-1.40738e-07
-2.24984e-07
7.6784e-08
-3.11643e-07
2.82701e-07
-2.06154e-07
3.39488e-07
4.56711e-08
1.90119e-07
2.95649e-07
-9.43577e-08
3.82803e-07
-3.48349e-07
2.38324e-07
-4.10684e-07
-6.32455e-08
-2.28341e-07
-3.43376e-07
1.02618e-07
-4.27995e-07
3.88919e-07
-2.57466e-07
4.55846e-07
7.23844e-08
2.55813e-07
3.65949e-07
-9.8821e-08
4.4663e-07
-4.00806e-07
2.64949e-07
-4.71973e-07
-7.12704e-08
-2.70245e-07
-3.62906e-07
8.56385e-08
-4.40062e-07
3.8804e-07
-2.62599e-07
4.64125e-07
5.96935e-08
2.76104e-07
3.3676e-07
-6.09589e-08
4.12504e-07
-3.51259e-07
2.53646e-07
-4.34053e-07
-3.78634e-08
-2.73405e-07
-2.91441e-07
2.85892e-08
-3.69285e-07
2.97785e-07
-2.41353e-07
3.89845e-07
6.82859e-09
2.67532e-07
2.31739e-07
1.22311e-08
3.15802e-07
-2.30483e-07
2.28034e-07
-3.34625e-07
3.08274e-08
-2.58248e-07
-1.63839e-07
-5.63844e-08
-2.58256e-07
1.57794e-07
-2.16368e-07
2.76526e-07
-7.30669e-08
2.50015e-07
9.26129e-08
1.03704e-07
2.00694e-07
-8.25127e-08
2.06571e-07
-2.17391e-07
1.15839e-07
-2.40931e-07
-2.40682e-08
-1.4828e-07
-1.47627e-07
1.22453e-08
-1.9933e-07
1.63261e-07
-1.56267e-07
2.33398e-07
-3.79111e-08
1.8928e-07
1.0088e-07
5.14212e-08
1.9289e-07
-1.13646e-07
1.8996e-07
-2.23556e-07
8.89586e-08
-2.20482e-07
-6.2284e-08
-1.02412e-07
-1.85844e-07
7.22326e-08
-2.13758e-07
2.12204e-07
-1.26718e-07
2.41261e-07
3.15458e-08
1.41016e-07
1.75353e-07
-3.62355e-08
2.24175e-07
-1.94275e-07
1.49335e-07
-2.46045e-07
-7.89549e-09
-1.63156e-07
-1.59028e-07
7.42857e-09
-2.19439e-07
1.70138e-07
-1.574e-07
2.35682e-07
-1.14737e-08
1.71675e-07
1.33776e-07
1.91277e-08
1.98064e-07
-1.34041e-07
1.50778e-07
-2.05278e-07
2.54041e-08
-1.63353e-07
-1.02756e-07
-4.145e-08
-1.60168e-07
8.74108e-08
-1.16096e-07
1.53727e-07
-1.03492e-08
1.26374e-07
7.18692e-08
3.0768e-08
-4.51615e-08
2.5831e-08
-6.81096e-08
-7.48383e-08
7.44469e-09
-1.59629e-07
1.2985e-07
-1.43721e-07
1.87461e-07
-5.71656e-09
1.20845e-07
1.74861e-07
-5.09658e-08
2.71964e-07
-2.30285e-07
1.99373e-07
-2.93683e-07
-2.09756e-08
-1.75747e-07
-2.60743e-07
7.51515e-08
-3.62125e-07
3.1396e-07
-2.42591e-07
3.85064e-07
4.25473e-08
2.24731e-07
3.25318e-07
-8.82407e-08
4.26737e-07
-3.71519e-07
2.71828e-07
-4.48311e-07
-5.68535e-08
-2.59552e-07
-3.64563e-07
9.29786e-08
-4.62713e-07
4.03121e-07
-2.86527e-07
4.83933e-07
6.25863e-08
2.82489e-07
3.77408e-07
-8.58072e-08
4.70794e-07
-4.0541e-07
2.88859e-07
-4.89656e-07
-5.80885e-08
-2.91675e-07
-3.64422e-07
6.97957e-08
-4.53645e-07
3.83603e-07
-2.81543e-07
4.72025e-07
4.30771e-08
2.92737e-07
3.28719e-07
-4.23394e-08
4.16217e-07
-3.38413e-07
2.68116e-07
-4.32993e-07
-1.811e-08
-2.85569e-07
-2.75035e-07
7.8877e-09
-3.64644e-07
2.78175e-07
-2.52256e-07
3.81688e-07
-1.56906e-08
2.76326e-07
2.08494e-07
3.47629e-08
3.04569e-07
-2.05477e-07
2.36208e-07
-3.20882e-07
5.53967e-08
-2.64213e-07
-1.3567e-07
-7.97766e-08
-2.4239e-07
1.29461e-07
-2.2259e-07
2.5925e-07
-9.87838e-08
2.54068e-07
6.15321e-08
1.27337e-07
1.82029e-07
-5.24351e-08
2.11313e-07
-1.97943e-07
1.41502e-07
-2.43179e-07
7.82123e-09
-1.70791e-07
-1.27818e-07
-1.74758e-08
-2.02748e-07
1.43286e-07
-1.80456e-07
2.34152e-07
-6.85473e-08
2.0964e-07
8.1298e-08
7.92752e-08
1.94798e-07
-9.3986e-08
2.11085e-07
-2.22292e-07
1.164e-07
-2.36991e-07
-4.39756e-08
-1.26454e-07
-1.85759e-07
5.40187e-08
-2.30176e-07
2.08731e-07
-1.4925e-07
2.52752e-07
1.52186e-08
1.60041e-07
1.72606e-07
-1.97955e-08
2.34356e-07
-1.87711e-07
1.65549e-07
-2.50837e-07
5.93465e-09
-1.75537e-07
-1.53101e-07
-6.44308e-09
-2.22203e-07
1.6013e-07
-1.65925e-07
2.32493e-07
-2.16326e-08
1.75808e-07
1.2502e-07
2.93612e-08
1.91861e-07
-1.20042e-07
1.47543e-07
-1.90745e-07
2.70625e-08
-1.52422e-07
-9.26625e-08
-3.92969e-08
-1.42084e-07
7.45672e-08
-1.03579e-07
1.21342e-07
-2.79717e-08
8.41848e-08
1.18415e-08
1.3453e-07
-9.95072e-08
4.50319e-08
-9.03622e-08
-1.07052e-07
2.79793e-08
-2.15644e-07
1.68699e-07
-1.79947e-07
2.33473e-07
-2.12415e-09
1.53662e-07
2.14595e-07
-5.00382e-08
3.23775e-07
-2.62701e-07
2.33345e-07
-3.41782e-07
-2.32737e-08
-2.13576e-07
-2.96211e-07
6.68671e-08
-4.09072e-07
3.37717e-07
-2.74307e-07
4.26492e-07
4.22551e-08
2.61568e-07
3.53866e-07
-7.38922e-08
4.65983e-07
-3.84574e-07
2.99784e-07
-4.79754e-07
-5.34944e-08
-2.92579e-07
-3.84354e-07
7.39345e-08
-4.92392e-07
4.0537e-07
-3.0991e-07
5.04442e-07
5.57349e-08
3.1066e-07
3.87421e-07
-6.27399e-08
4.90121e-07
-3.97031e-07
3.07499e-07
-4.98956e-07
-4.75594e-08
-3.1428e-07
-3.64642e-07
4.38259e-08
-4.63034e-07
3.65944e-07
-2.96008e-07
4.71253e-07
2.87113e-08
3.10171e-07
3.19726e-07
-1.4087e-08
4.16705e-07
-3.12814e-07
2.7914e-07
-4.23387e-07
-1.73895e-10
-2.98059e-07
-2.58161e-07
-2.14525e-08
-3.57921e-07
2.46837e-07
-2.60816e-07
3.65381e-07
-3.67621e-08
2.84824e-07
1.85387e-07
6.45051e-08
2.92462e-07
-1.70193e-07
2.43099e-07
-2.99558e-07
7.87836e-08
-2.69122e-07
-1.08306e-07
-1.08649e-07
-2.26802e-07
9.25475e-08
-2.28432e-07
2.35001e-07
-1.23421e-07
2.56147e-07
3.1973e-08
1.54495e-07
1.64683e-07
-1.5618e-08
2.1637e-07
-1.7213e-07
1.6603e-07
-2.42439e-07
3.74787e-08
-1.9478e-07
-1.10187e-07
-5.20759e-08
-2.06928e-07
1.17511e-07
-2.03293e-07
2.30858e-07
-9.62716e-08
2.29435e-07
6.45572e-08
1.1019e-07
1.97691e-07
-6.90727e-08
2.3055e-07
-2.15984e-07
1.40349e-07
-2.51025e-07
-2.8953e-08
-1.51854e-07
-1.86704e-07
3.11086e-08
-2.44606e-07
1.9938e-07
-1.67843e-07
2.60071e-07
2.4686e-09
1.78811e-07
1.70898e-07
6.40538e-10
2.42304e-07
-1.74752e-07
1.7742e-07
-2.50015e-07
1.57183e-08
-1.8598e-07
-1.48566e-07
-2.31429e-08
-2.22642e-07
1.43806e-07
-1.69258e-07
2.22479e-07
-2.62229e-08
1.75821e-07
1.19255e-07
4.01719e-08
1.84399e-07
-1.00853e-07
1.39495e-07
-1.68817e-07
2.15017e-08
-1.36328e-07
-9.45378e-08
-3.86395e-08
-1.38911e-07
5.54368e-08
-1.0372e-07
9.23916e-08
5.7985e-08
1.81847e-07
-6.76108e-08
1.64571e-07
-1.44345e-07
3.06246e-08
-1.13053e-07
-1.5606e-07
2.71749e-08
-2.65456e-07
1.99277e-07
-2.08616e-07
2.80049e-07
3.69533e-09
1.88979e-07
2.50007e-07
-4.53171e-08
3.67535e-07
-2.89462e-07
2.60752e-07
-3.83916e-07
-2.58271e-08
-2.48245e-07
-3.24292e-07
5.65792e-08
-4.44518e-07
3.5469e-07
-2.97113e-07
4.5971e-07
4.24106e-08
2.93357e-07
3.73261e-07
-5.83313e-08
4.91233e-07
-3.90534e-07
3.17013e-07
-5.0206e-07
-5.09862e-08
-3.19595e-07
-3.94185e-07
5.43032e-08
-5.06845e-07
4.00735e-07
-3.21643e-07
5.15703e-07
5.01001e-08
3.32475e-07
3.87475e-07
-3.96182e-08
4.94134e-07
-3.82406e-07
3.14356e-07
-4.99535e-07
-3.86126e-08
-3.30644e-07
-3.55638e-07
1.82957e-08
-4.57998e-07
3.43023e-07
-2.99177e-07
4.62762e-07
1.63622e-08
3.21789e-07
3.02881e-07
1.32283e-08
4.04423e-07
-2.83195e-07
2.79791e-07
-4.07384e-07
1.52192e-08
-3.05353e-07
-2.35281e-07
-4.93565e-08
-3.40581e-07
2.12848e-07
-2.60147e-07
3.44125e-07
-5.46321e-08
2.88781e-07
1.58444e-07
9.2263e-08
2.72163e-07
-1.33697e-07
2.41968e-07
-2.74756e-07
9.81884e-08
-2.70119e-07
-7.94317e-08
-1.34966e-07
-2.05495e-07
5.58214e-08
-2.2737e-07
2.0864e-07
-1.43175e-07
2.54826e-07
3.25512e-09
1.78477e-07
1.43977e-07
1.96716e-08
2.15483e-07
-1.45437e-07
1.84711e-07
-2.387e-07
6.40633e-08
-2.14974e-07
-9.13147e-08
-8.39374e-08
-2.05925e-07
9.19093e-08
-2.19329e-07
2.24856e-07
-1.18924e-07
2.44849e-07
4.83859e-08
1.37305e-07
1.9601e-07
-4.52342e-08
2.42391e-07
-2.07223e-07
1.57577e-07
-2.60214e-07
-1.59895e-08
-1.72591e-07
-1.83635e-07
1.00378e-08
-2.50865e-07
1.87857e-07
-1.78463e-07
2.62234e-07
-6.93194e-09
1.92197e-07
1.65908e-07
1.84539e-08
2.41927e-07
-1.60089e-07
1.80281e-07
-2.43916e-07
2.06179e-08
-1.90267e-07
-1.42038e-07
-3.60401e-08
-2.14918e-07
1.26848e-07
-1.62104e-07
2.07541e-07
-2.31651e-08
1.68934e-07
1.14299e-07
4.53122e-08
1.69883e-07
-8.40002e-08
1.18012e-07
-1.46303e-07
-9.9466e-10
-1.18123e-07
-1.0102e-07
-3.13639e-08
-1.2071e-07
5.3034e-08
6.94023e-08
1.22524e-07
1.80322e-08
1.9962e-07
-1.06799e-07
1.71235e-07
-1.97438e-07
1.41397e-08
-1.52478e-07
-1.89724e-07
2.43955e-08
-3.05104e-07
2.29118e-07
-2.33489e-07
3.22684e-07
6.84542e-09
2.21569e-07
2.77221e-07
-3.74822e-08
4.01475e-07
-3.07062e-07
2.82468e-07
-4.15195e-07
-2.57837e-08
-2.76589e-07
-3.42062e-07
4.38387e-08
-4.67542e-07
3.61003e-07
-3.12907e-07
4.79542e-07
3.94133e-08
3.16508e-07
3.80591e-07
-4.15057e-08
5.02356e-07
-3.85681e-07
3.26488e-07
-5.09888e-07
-4.5006e-08
-3.36602e-07
-3.91151e-07
3.45176e-08
-5.06559e-07
3.85861e-07
-3.25458e-07
5.12453e-07
4.095e-08
3.43672e-07
3.74785e-07
-1.73989e-08
4.83775e-07
-3.58741e-07
3.13563e-07
-4.86453e-07
-2.64395e-08
-3.364e-07
-3.34841e-07
-5.31713e-09
-4.39723e-07
3.1274e-07
-2.95211e-07
4.42119e-07
1.44473e-09
3.23249e-07
2.75883e-07
3.76253e-08
3.80592e-07
-2.48237e-07
2.73927e-07
-3.8119e-07
3.21928e-08
-3.03243e-07
-2.04368e-07
-7.33867e-08
-3.1368e-07
1.75697e-07
-2.53539e-07
3.14835e-07
-7.28019e-08
2.84203e-07
1.25886e-07
1.15196e-07
2.4439e-07
-9.62703e-08
2.3535e-07
-2.44131e-07
1.16408e-07
-2.63486e-07
-4.74621e-08
-1.55556e-07
-1.78714e-07
2.03047e-08
-2.21085e-07
1.78548e-07
-1.60134e-07
2.46704e-07
-2.60924e-08
1.95863e-07
1.1961e-07
5.17599e-08
2.09465e-07
-1.16934e-07
1.98991e-07
-2.2892e-07
8.90148e-08
-2.27815e-07
-7.03217e-08
-1.10852e-07
-1.99754e-07
6.6182e-08
-2.29485e-07
2.13507e-07
-1.37995e-07
2.52312e-07
3.13599e-08
1.58014e-07
1.89105e-07
-2.27412e-08
2.47153e-07
-1.93836e-07
1.69666e-07
-2.61127e-07
-3.23076e-09
-1.85814e-07
-1.75441e-07
-8.40494e-09
-2.4927e-07
1.72532e-07
-1.82747e-07
2.56114e-07
-1.5057e-08
1.97236e-07
1.56297e-07
3.235e-08
2.33389e-07
-1.42779e-07
1.75728e-07
-2.29951e-07
2.28298e-08
-1.85541e-07
-1.31842e-07
-4.33889e-08
-1.98787e-07
1.09211e-07
-1.46085e-07
1.8611e-07
-1.58755e-08
1.52865e-07
1.0553e-07
4.24729e-08
1.43903e-07
-7.12134e-08
8.36318e-08
-1.22093e-07
-1.73369e-08
-8.94354e-08
-7.72233e-08
-7.97013e-09
4.39733e-08
-2.14612e-08
1.06291e-07
1.12872e-07
8.66376e-09
2.19144e-07
-1.58997e-07
1.92909e-07
-2.47496e-07
1.35738e-08
-1.80566e-07
-2.15615e-07
2.29278e-08
-3.39214e-07
2.50466e-07
-2.55145e-07
3.54682e-07
7.57911e-09
2.48871e-07
2.95874e-07
-2.59004e-08
4.24781e-07
-3.13459e-07
2.97809e-07
-4.33852e-07
-2.35173e-08
-2.98148e-07
-3.49777e-07
2.7761e-08
-4.784e-07
3.55269e-07
-3.2172e-07
4.85196e-07
3.38526e-08
3.31424e-07
3.77179e-07
-2.21377e-08
5.00904e-07
-3.68833e-07
3.29036e-07
-5.0307e-07
-3.62576e-08
-3.44638e-07
-3.77452e-07
1.30197e-08
-4.94168e-07
3.59761e-07
-3.22833e-07
4.95004e-07
2.90725e-08
3.45717e-07
3.52228e-07
5.59214e-09
4.62477e-07
-3.25263e-07
3.07068e-07
-4.6037e-07
-1.18807e-08
-3.33238e-07
-3.05561e-07
-2.86618e-08
-4.1214e-07
2.74525e-07
-2.86336e-07
4.10173e-07
-1.51908e-08
3.16263e-07
2.42226e-07
6.0604e-08
3.4933e-07
-2.07555e-07
2.63881e-07
-3.45703e-07
4.99427e-08
-2.93298e-07
-1.68862e-07
-9.48081e-08
-2.81256e-07
1.3514e-07
-2.43294e-07
2.7833e-07
-9.05782e-08
2.7239e-07
9.08899e-08
1.34284e-07
2.12887e-07
-5.77655e-08
2.25425e-07
-2.08325e-07
1.3293e-07
-2.50174e-07
-1.51379e-08
-1.71101e-07
-1.49764e-07
-1.41051e-08
-2.11594e-07
1.4513e-07
-1.74047e-07
2.32362e-07
-5.389e-08
2.07077e-07
9.43494e-08
8.07635e-08
2.0017e-07
-8.67543e-08
2.08955e-07
-2.13338e-07
1.10802e-07
-2.33537e-07
-4.94135e-08
-1.33015e-07
-1.90148e-07
4.01857e-08
-2.34257e-07
1.9677e-07
-1.52649e-07
2.51959e-07
1.51394e-08
1.72641e-07
1.78653e-07
-1.20806e-09
2.45795e-07
-1.75606e-07
1.76459e-07
-2.53907e-07
8.13412e-09
-1.92008e-07
-1.63815e-07
-2.47788e-08
-2.41237e-07
1.53146e-07
-1.81141e-07
2.41973e-07
-2.11133e-08
1.94597e-07
1.43763e-07
4.29746e-08
2.18509e-07
-1.22682e-07
1.64897e-07
-2.08703e-07
2.23594e-08
-1.72867e-07
-1.1916e-07
-4.61357e-08
-1.76583e-07
9.06993e-08
-1.24695e-07
1.59016e-07
-8.42146e-09
1.293e-07
9.10809e-08
3.41538e-08
1.13428e-07
-5.81884e-08
6.16867e-08
-9.01207e-08
-3.70926e-09
-5.37451e-08
1.31329e-09
-1.67585e-07
1.36984e-07
-5.26629e-08
1.29917e-07
1.33916e-07
-1.4154e-08
2.63245e-07
-1.86052e-07
2.19131e-07
-2.75389e-07
1.14649e-08
-2.03185e-07
-2.37698e-07
1.48006e-08
-3.64528e-07
2.59142e-07
-2.70063e-07
3.74204e-07
7.14648e-09
2.69873e-07
3.05124e-07
-1.11152e-08
4.35695e-07
-3.0869e-07
3.05187e-07
-4.39426e-07
-1.98398e-08
-3.12065e-07
-3.47332e-07
9.4494e-09
-4.76243e-07
3.38605e-07
-3.223e-07
4.77423e-07
2.6964e-08
3.38047e-07
3.63807e-07
-1.31183e-09
4.86848e-07
-3.41815e-07
3.23693e-07
-4.83338e-07
-2.6351e-08
-3.44342e-07
-3.54657e-07
-9.16628e-09
-4.7036e-07
3.24785e-07
-3.1306e-07
4.65838e-07
1.63922e-08
3.39783e-07
3.2202e-07
2.84046e-08
4.31516e-07
-2.84667e-07
2.94369e-07
-4.24274e-07
2.91151e-09
-3.22712e-07
-2.70483e-07
-5.08916e-08
-3.76941e-07
2.31218e-07
-2.72211e-07
3.70162e-07
-3.12683e-08
3.02604e-07
2.04873e-07
8.14444e-08
3.12588e-07
-1.63945e-07
2.49437e-07
-3.04184e-07
6.61804e-08
-2.77379e-07
-1.31817e-07
-1.13056e-07
-2.4537e-07
9.37749e-08
-2.29302e-07
2.37711e-07
-1.05769e-07
2.55184e-07
5.64373e-08
1.49148e-07
1.79713e-07
-2.04539e-08
2.12188e-07
-1.70143e-07
1.45769e-07
-2.3195e-07
1.47685e-08
-1.81449e-07
-1.20614e-07
-4.55589e-08
-1.99018e-07
1.10812e-07
-1.8323e-07
2.13476e-07
-7.76893e-08
2.12237e-07
7.00271e-08
1.05324e-07
1.87879e-07
-5.69077e-08
2.13316e-07
-1.93552e-07
1.27388e-07
-2.32582e-07
-3.02568e-08
-1.49606e-07
-1.77597e-07
1.55092e-08
-2.32839e-07
1.76204e-07
-1.61314e-07
2.44603e-07
1.22775e-09
1.80918e-07
1.65401e-07
1.81705e-08
2.38042e-07
-1.541e-07
1.76875e-07
-2.39771e-07
1.67529e-08
-1.91451e-07
-1.49777e-07
-3.82436e-08
-2.27034e-07
1.31322e-07
-1.73084e-07
2.21473e-07
-2.39955e-08
1.85144e-07
1.29487e-07
4.98776e-08
1.98149e-07
-1.01483e-07
1.4814e-07
-1.82422e-07
1.89011e-08
-1.54095e-07
-1.05319e-07
-4.48848e-08
-1.51044e-07
7.24058e-08
-1.01353e-07
1.29132e-07
-1.27019e-09
1.02855e-07
7.95476e-08
2.61092e-08
9.48907e-08
-4.21228e-08
5.73619e-08
-6.11484e-08
-3.20201e-08
-2.24693e-07
8.41968e-08
-1.96639e-07
1.74631e-07
-3.62039e-08
1.43997e-07
1.75865e-07
-4.09167e-09
2.94207e-07
-1.92902e-07
2.31642e-07
-2.95736e-07
7.17555e-09
-2.24584e-07
-2.50568e-07
1.47474e-09
-3.76569e-07
2.56498e-07
-2.76366e-07
3.80767e-07
5.39551e-09
2.82916e-07
3.03882e-07
5.22829e-09
4.33096e-07
-2.93516e-07
3.03948e-07
-4.31476e-07
-1.48557e-08
-3.16901e-07
-3.34485e-07
-9.23913e-09
-4.60743e-07
3.12505e-07
-3.14358e-07
4.56654e-07
1.90336e-08
3.35442e-07
3.408e-07
1.89881e-08
4.6045e-07
-3.06764e-07
3.10433e-07
-4.51883e-07
-1.57736e-08
-3.35224e-07
-3.23597e-07
-2.99774e-08
-4.35876e-07
2.83569e-07
-2.96269e-07
4.26743e-07
3.61634e-09
3.25751e-07
2.85407e-07
4.89648e-08
3.91964e-07
-2.39909e-07
2.7566e-07
-3.80368e-07
1.70277e-08
-3.05001e-07
-2.31153e-07
-7.00057e-08
-3.3539e-07
1.85907e-07
-2.53018e-07
3.24526e-07
-4.5719e-08
2.8268e-07
1.65533e-07
9.82927e-08
2.71688e-07
-1.20462e-07
2.30717e-07
-2.59153e-07
7.97394e-08
-2.56065e-07
-9.49861e-08
-1.26494e-07
-2.07303e-07
5.44786e-08
-2.11608e-07
1.95452e-07
-1.17183e-07
2.33306e-07
2.42139e-08
1.58432e-07
1.46031e-07
1.30778e-08
1.95618e-07
-1.31926e-07
1.53789e-07
-2.0966e-07
4.07369e-08
-1.85584e-07
-9.22661e-08
-7.18482e-08
-1.83304e-07
7.77438e-08
-1.86698e-07
1.91018e-07
-9.62182e-08
2.10726e-07
4.74623e-08
1.23678e-07
1.72564e-07
-2.93213e-08
2.11326e-07
-1.70682e-07
1.37809e-07
-2.24784e-07
-1.34962e-08
-1.59354e-07
-1.62164e-07
-6.16407e-09
-2.24803e-07
1.5309e-07
-1.63379e-07
2.30561e-07
-9.88146e-09
1.82101e-07
1.49566e-07
3.39624e-08
2.23841e-07
-1.30777e-07
1.70676e-07
-2.19547e-07
2.22873e-08
-1.83961e-07
-1.33699e-07
-4.7655e-08
-2.07009e-07
1.08683e-07
-1.58814e-07
1.96001e-07
-2.36945e-08
1.69387e-07
1.13882e-07
5.23982e-08
1.73172e-07
-8.08467e-08
1.26462e-07
-1.53209e-07
1.28483e-08
-1.3096e-07
-9.12783e-08
-4.01074e-08
-1.23965e-07
5.59469e-08
-7.5667e-08
1.00469e-07
1.15677e-08
7.82644e-08
7.35836e-08
1.80657e-08
7.72489e-08
-3.39497e-08
-4.0075e-08
-1.55167e-07
-2.21472e-08
-2.28199e-07
1.10187e-07
-1.84177e-07
2.10159e-07
-1.34999e-08
1.76443e-07
1.92394e-07
8.99287e-09
3.04662e-07
-1.95914e-07
2.35166e-07
-3.06692e-07
6.01238e-09
-2.38315e-07
-2.51528e-07
-1.296e-08
-3.74681e-07
2.4339e-07
-2.74209e-07
3.73152e-07
2.15641e-09
2.86078e-07
2.92263e-07
2.15452e-08
4.17318e-07
-2.68599e-07
2.94339e-07
-4.09609e-07
-8.76074e-09
-3.11449e-07
-3.12003e-07
-2.68066e-08
-4.32939e-07
2.78133e-07
-2.98573e-07
4.23198e-07
1.03095e-08
3.22865e-07
3.09389e-07
3.72298e-08
4.23311e-07
-2.65307e-07
2.90244e-07
-4.09596e-07
-4.86299e-09
-3.169e-07
-2.85867e-07
-4.78525e-08
-3.92684e-07
2.38089e-07
-2.73601e-07
3.79044e-07
-8.81257e-09
3.03511e-07
2.44218e-07
6.57106e-08
3.45965e-07
-1.93189e-07
2.52104e-07
-3.30266e-07
2.99389e-08
-2.80195e-07
-1.89478e-07
-8.44875e-08
-2.89625e-07
1.40876e-07
-2.29848e-07
2.7502e-07
-5.79671e-08
2.56717e-07
1.26059e-07
1.09722e-07
2.28621e-07
-7.93578e-08
2.08682e-07
-2.12395e-07
9.0049e-08
-2.29676e-07
-6.00448e-08
-1.33834e-07
-1.68793e-07
1.93696e-08
-1.91016e-07
1.53284e-07
-1.24315e-07
2.07151e-07
-4.37434e-09
1.61044e-07
1.1327e-07
4.0931e-08
1.76378e-07
-9.52913e-08
1.56622e-07
-1.83777e-07
6.17047e-08
-1.82669e-07
-6.58161e-08
-9.13702e-08
-1.65014e-07
4.73879e-08
-1.84292e-07
1.65565e-07
-1.0881e-07
2.02026e-07
2.74211e-08
1.34582e-07
1.54738e-07
-5.27874e-09
2.031e-07
-1.45436e-07
1.4182e-07
-2.10008e-07
4.02414e-10
-1.61437e-07
-1.44377e-07
-2.37495e-08
-2.10579e-07
1.28293e-07
-1.5902e-07
2.10135e-07
-1.79873e-08
1.75835e-07
1.31725e-07
4.53098e-08
2.03957e-07
-1.06665e-07
1.58467e-07
-1.94026e-07
2.48313e-08
-1.69738e-07
-1.16171e-07
-5.24778e-08
-1.82277e-07
8.63676e-08
-1.395e-07
1.66888e-07
-2.08208e-08
1.48284e-07
9.73526e-08
5.05975e-08
1.44961e-07
-6.18332e-08
1.01581e-07
-1.22954e-07
5.39389e-09
-1.0528e-07
-7.65096e-08
-3.23053e-08
-9.43623e-08
4.28196e-08
-4.61941e-08
7.49107e-08
2.1452e-08
5.33052e-08
5.52317e-08
3.91312e-09
-2.53241e-08
-1.88324e-09
-1.14749e-07
-1.29292e-07
-2.03628e-08
-2.18232e-07
1.43327e-07
-1.82422e-07
2.35409e-07
-1.35814e-08
1.88818e-07
1.93364e-07
1.72521e-08
3.03881e-07
-1.87769e-07
2.32902e-07
-3.01128e-07
7.39564e-09
-2.41005e-07
-2.42214e-07
-2.7677e-08
-3.59905e-07
2.19546e-07
-2.63516e-07
3.50794e-07
-1.54889e-09
2.78797e-07
2.71698e-07
3.73159e-08
3.89488e-07
-2.34432e-07
2.76528e-07
-3.74204e-07
-2.61049e-09
-2.95767e-07
-2.81781e-07
-4.28031e-08
-3.94611e-07
2.36388e-07
-2.7555e-07
3.78002e-07
1.87037e-09
3.00741e-07
2.71884e-07
5.29412e-08
3.77714e-07
-2.18685e-07
2.64024e-07
-3.5784e-07
5.2681e-09
-2.90031e-07
-2.44044e-07
-6.22758e-08
-3.43361e-07
1.8982e-07
-2.46115e-07
3.24341e-07
-1.97809e-08
2.7383e-07
2.01116e-07
7.80838e-08
2.96185e-07
-1.46089e-07
2.24819e-07
-2.75645e-07
4.05843e-08
-2.49073e-07
-1.48045e-07
-9.37562e-08
-2.42233e-07
9.77013e-08
-2.03806e-07
2.23268e-07
-6.70648e-08
2.25432e-07
8.88193e-08
1.15159e-07
1.85766e-07
-4.21028e-08
1.84386e-07
-1.65379e-07
9.63386e-08
-1.98833e-07
-2.90309e-08
-1.34551e-07
-1.31928e-07
-1.02668e-08
-1.68522e-07
1.12464e-07
-1.26633e-07
1.77246e-07
-2.77047e-08
1.56562e-07
8.31747e-08
6.20722e-08
1.55416e-07
-6.12562e-08
1.54032e-07
-1.54771e-07
7.65219e-08
-1.72459e-07
-4.26473e-08
-1.03399e-07
-1.45076e-07
2.05197e-08
-1.76124e-07
1.37574e-07
-1.14822e-07
1.86136e-07
1.09299e-08
1.37661e-07
1.35347e-07
1.4674e-08
1.89129e-07
-1.18322e-07
1.39294e-07
-1.88567e-07
1.07541e-08
-1.55865e-07
-1.25212e-07
-3.69151e-08
-1.9104e-07
1.02424e-07
-1.48612e-07
1.84011e-07
-2.27481e-08
1.62556e-07
1.12862e-07
5.2102e-08
1.79617e-07
-8.2505e-08
1.41154e-07
-1.64321e-07
2.44778e-08
-1.49735e-07
-9.8072e-08
-5.29288e-08
-1.54404e-07
6.51736e-08
-1.16722e-07
1.35709e-07
-1.61696e-08
1.23463e-07
8.04273e-08
4.52801e-08
1.15346e-07
-4.49876e-08
7.60468e-08
-9.33072e-08
-9.99515e-10
-7.88642e-08
-5.96641e-08
-2.26416e-08
-6.45323e-08
3.18496e-08
-2.58132e-08
4.96845e-08
1.35917e-08
2.76471e-08
-2.95978e-09
1.4122e-07
-1.35674e-07
3.30035e-08
-1.28115e-07
-1.25878e-07
-2.89543e-09
-2.28684e-07
1.42908e-07
-1.86009e-07
2.2751e-07
-1.36739e-08
1.88762e-07
1.88163e-07
3.00978e-08
2.91668e-07
-1.65654e-07
2.21598e-07
-2.80064e-07
8.35654e-09
-2.33868e-07
-2.24125e-07
-4.24617e-08
-3.32244e-07
1.86553e-07
-2.43242e-07
3.1567e-07
-4.22234e-09
2.62235e-07
2.43507e-07
5.2081e-08
3.50182e-07
-1.93016e-07
2.50017e-07
-3.27793e-07
2.1389e-09
-2.71484e-07
-2.45608e-07
-5.69271e-08
-3.46961e-07
1.89451e-07
-2.45164e-07
3.23946e-07
-4.75433e-09
2.70987e-07
2.30488e-07
6.59222e-08
3.25324e-07
-1.69149e-07
2.31896e-07
-2.99633e-07
1.30289e-08
-2.56664e-07
-2.00594e-07
-7.31471e-08
-2.89851e-07
1.40924e-07
-2.14084e-07
2.65583e-07
-2.76897e-08
2.38746e-07
1.5867e-07
8.60932e-08
2.44681e-07
-1.0055e-07
1.94161e-07
-2.19214e-07
4.74233e-08
-2.13563e-07
-1.09377e-07
-9.79476e-08
-1.95249e-07
5.79905e-08
-1.75291e-07
1.71613e-07
-7.15987e-08
1.90582e-07
5.61652e-08
1.1489e-07
1.45041e-07
-9.89671e-09
1.58257e-07
-1.20019e-07
9.7395e-08
-1.65102e-07
-4.01708e-09
-1.29107e-07
-9.84328e-08
-3.36807e-08
-1.44589e-07
7.4449e-08
-1.23197e-07
1.44977e-07
-4.40684e-08
1.45657e-07
5.72378e-08
7.62209e-08
1.33253e-07
-3.08343e-08
1.45421e-07
-1.23879e-07
8.3911e-08
-1.55857e-07
-2.39958e-08
-1.08122e-07
-1.24104e-07
-2.25958e-09
-1.61996e-07
1.08175e-07
-1.13459e-07
1.64209e-07
-1.04832e-09
1.33547e-07
1.15111e-07
3.02999e-08
1.69655e-07
-9.03976e-08
1.29952e-07
-1.61864e-07
1.6891e-08