/*--------------------------------*- C++ -*----------------------------------*\
| =========                 |                                                 |
| \\      /  F ield         | OpenFOAM: The Open Source CFD Toolbox           |
|  \\    /   O peration     | Version:  2412                                  |
|   \\  /    A nd           | Website:  www.openfoam.com                      |
|    \\/     M anipulation  |                                                 |
\*---------------------------------------------------------------------------*/
FoamFile
{
    version     2.0;
    format      ascii;
    arch        "LSB;label=32;scalar=64";
    class       surfaceScalarField;
    location    "5.65";
    object      alphaPhi0.soap;
}
// * * * * * * * * * * * * * * * * * * * * * * * * * * * * * * * * * * * * * //

dimensions      [0 3 -1 0 0 0 0];

oriented        oriented;

internalField   nonuniform List<scalar> 
12640
(
-2.62183e-05
2.62182e-05
-4.72843e-05
2.10662e-05
-6.89078e-05
2.16238e-05
-8.99776e-05
2.107e-05
-0.000109545
1.95678e-05
-0.000127085
1.754e-05
-0.000142331
1.5246e-05
-0.000155115
1.27834e-05
-0.000165383
1.02681e-05
-0.000172945
7.56241e-06
-0.000177787
4.84233e-06
-0.000179945
2.15816e-06
-0.000179563
-3.81847e-07
-0.000176869
-2.69428e-06
-0.000171981
-4.88834e-06
-0.000165026
-6.95473e-06
-0.000156177
-8.84975e-06
-0.000145653
-1.05239e-05
-0.000133652
-1.20013e-05
-0.000120455
-1.31975e-05
-0.000106405
-1.40503e-05
-9.17948e-05
-1.46102e-05
-7.70235e-05
-1.47713e-05
-6.24911e-05
-1.45326e-05
-4.86042e-05
-1.38872e-05
-3.57374e-05
-1.2867e-05
-2.41864e-05
-1.15512e-05
-1.40164e-05
-1.01697e-05
-5.38313e-06
-8.63274e-06
1.55857e-06
-6.9411e-06
6.69945e-06
-5.14027e-06
9.82369e-06
-3.12385e-06
1.08883e-05
-1.06407e-06
1.03129e-05
5.75636e-07
8.44172e-06
1.87131e-06
5.75822e-06
2.68377e-06
2.68514e-06
3.07348e-06
-4.88616e-07
3.17413e-06
-3.54333e-06
3.05514e-06
-6.37287e-06
2.82955e-06
-8.82806e-06
2.45552e-06
-1.08702e-05
2.04261e-06
-1.24518e-05
1.58244e-06
-1.34649e-05
1.01404e-06
-1.38038e-05
3.39589e-07
-1.33185e-05
-4.8487e-07
-1.1765e-05
-1.55314e-06
-8.78617e-06
-2.97869e-06
-4.07769e-06
-4.70852e-06
2.45069e-06
-6.52748e-06
1.04597e-05
-8.00841e-06
1.96517e-05
-9.19175e-06
2.99379e-05
-1.02863e-05
4.12184e-05
-1.128e-05
5.32667e-05
-1.2048e-05
6.58293e-05
-1.25626e-05
7.85803e-05
-1.27509e-05
9.11387e-05
-1.25584e-05
0.000103198
-1.20594e-05
0.000114461
-1.1263e-05
0.000124694
-1.02329e-05
0.000133687
-8.99339e-06
0.000141303
-7.61716e-06
0.000147407
-6.10429e-06
0.000151948
-4.54075e-06
0.000154889
-2.94107e-06
0.000156169
-1.27914e-06
0.000155635
5.34341e-07
0.000153075
2.56104e-06
0.000148363
4.71289e-06
0.000141496
6.86701e-06
0.000132527
8.96834e-06
0.000121458
1.1069e-05
0.000108346
1.31108e-05
9.3309e-05
1.50361e-05
7.66064e-05
1.6703e-05
5.85884e-05
1.80179e-05
4.00838e-05
1.85041e-05
2.22795e-05
1.7804e-05
2.2279e-05
-2.79276e-05
5.41457e-05
-5.04361e-05
4.35751e-05
-7.34473e-05
4.46354e-05
-9.55857e-05
4.32084e-05
-0.000115734
3.97158e-05
-0.000133488
3.52943e-05
-0.000148576
3.03342e-05
-0.000160863
2.50703e-05
-0.000170261
1.96662e-05
-0.000176885
1.41866e-05
-0.000180858
8.8155e-06
-0.0001823
3.59972e-06
-0.000181274
-1.40787e-06
-0.000177829
-6.13952e-06
-0.000172096
-1.06216e-05
-0.000164287
-1.47643e-05
-0.000154647
-1.84899e-05
-0.000143297
-2.18741e-05
-0.000130518
-2.47817e-05
-0.00011656
-2.71559e-05
-0.000101609
-2.90008e-05
-8.60114e-05
-3.02089e-05
-6.99889e-05
-3.07945e-05
-5.38944e-05
-3.06274e-05
-3.80161e-05
-2.97657e-05
-2.27676e-05
-2.81154e-05
-8.41584e-06
-2.59026e-05
4.41359e-06
-2.29988e-05
1.54385e-05
-1.96573e-05
2.42696e-05
-1.57718e-05
3.07315e-05
-1.16016e-05
3.48813e-05
-7.27346e-06
3.6736e-05
-2.91865e-06
3.62373e-05
1.07469e-06
3.34216e-05
4.68764e-06
2.84481e-05
7.65779e-06
2.1523e-05
9.99919e-06
1.30709e-05
1.16266e-05
3.62111e-06
1.25059e-05
-6.17027e-06
1.2622e-05
-1.57636e-05
1.20499e-05
-2.4543e-05
1.0823e-05
-3.18883e-05
8.92861e-06
-3.73478e-05
6.47418e-06
-4.05303e-05
3.52242e-06
-4.11811e-05
1.66254e-07
-3.92974e-05
-3.4361e-06
-3.5058e-05
-7.2166e-06
-2.87784e-05
-1.09867e-05
-2.05849e-05
-1.47196e-05
-1.05823e-05
-1.801e-05
1.14089e-06
-2.09134e-05
1.42073e-05
-2.33522e-05
2.80817e-05
-2.51547e-05
4.24491e-05
-2.64155e-05
5.694e-05
-2.70531e-05
7.12156e-05
-2.7027e-05
8.50421e-05
-2.63854e-05
9.81908e-05
-2.52084e-05
0.000110449
-2.35216e-05
0.000121627
-2.14121e-05
0.000131575
-1.89413e-05
0.000140138
-1.61797e-05
0.000147211
-1.31776e-05
0.00015267
-9.99967e-06
0.000156362
-6.63254e-06
0.000158151
-3.06806e-06
0.000157984
7.02057e-07
0.000155933
4.61184e-06
0.000151902
8.74263e-06
0.0001458
1.29683e-05
0.000137432
1.73362e-05
0.00012675
2.17509e-05
0.000113787
2.60738e-05
9.8621e-05
3.02021e-05
8.14069e-05
3.39172e-05
6.24973e-05
3.69276e-05
4.28842e-05
3.81173e-05
2.38915e-05
3.67959e-05
4.61713e-05
-2.84004e-05
8.25466e-05
-5.1218e-05
6.63932e-05
-7.45658e-05
6.79835e-05
-9.72458e-05
6.58883e-05
-0.000117995
6.04648e-05
-0.000136278
5.35778e-05
-0.000151869
4.59251e-05
-0.000164604
3.78055e-05
-0.000174448
2.95097e-05
-0.000181431
2.1169e-05
-0.000185605
1.29897e-05
-0.000187132
5.12634e-06
-0.000186087
-2.45254e-06
-0.000182631
-9.596e-06
-0.000176866
-1.63869e-05
-0.000168961
-2.26691e-05
-0.000159127
-2.83256e-05
-0.000147489
-3.3512e-05
-0.00013433
-3.79417e-05
-0.000119902
-4.15852e-05
-0.000104464
-4.44396e-05
-8.83583e-05
-4.63143e-05
-7.19196e-05
-4.72336e-05
-5.54659e-05
-4.70818e-05
-3.94405e-05
-4.57916e-05
-2.40979e-05
-4.34588e-05
-9.91847e-06
-4.00827e-05
2.76409e-06
-3.56816e-05
1.35616e-05
-3.0455e-05
2.21489e-05
-2.43596e-05
2.8421e-05
-1.78742e-05
3.2307e-05
-1.11596e-05
3.39591e-05
-4.5709e-06
3.32836e-05
1.7503e-06
3.04293e-05
7.54215e-06
2.55439e-05
1.25437e-05
1.89688e-05
1.65753e-05
1.10664e-05
1.95299e-05
2.32947e-06
2.12433e-05
-6.6541e-06
2.16059e-05
-1.53722e-05
2.07683e-05
-2.32715e-05
1.87218e-05
-2.98206e-05
1.54775e-05
-3.46252e-05
1.12796e-05
-3.73561e-05
6.25471e-06
-3.78324e-05
6.44984e-07
-3.59662e-05
-5.29969e-06
-3.18462e-05
-1.13352e-05
-2.55988e-05
-1.72328e-05
-1.74902e-05
-2.28268e-05
-7.56218e-06
-2.79379e-05
4.08728e-06
-3.25636e-05
1.69252e-05
-3.61902e-05
3.07762e-05
-3.90052e-05
4.52139e-05
-4.08543e-05
5.98859e-05
-4.17261e-05
7.44509e-05
-4.15917e-05
8.85061e-05
-4.04407e-05
0.000101895
-3.85972e-05
0.000114349
-3.59754e-05
0.000125634
-3.26956e-05
0.000135634
-2.89412e-05
0.000144129
-2.4675e-05
0.000151063
-2.01131e-05
0.000156336
-1.52736e-05
0.000159893
-1.01912e-05
0.000161609
-4.78536e-06
0.000161487
8.22923e-07
0.000159384
6.71437e-06
0.000155255
1.28715e-05
0.000148898
1.93268e-05
0.000140254
2.59821e-05
0.000129264
3.27421e-05
0.000115945
3.93934e-05
0.000100378
4.57692e-05
8.27513e-05
5.15444e-05
6.34482e-05
5.62308e-05
4.35813e-05
5.79834e-05
2.44176e-05
5.59586e-05
7.05879e-05
-3.01155e-05
0.000112663
-5.39333e-05
9.02114e-05
-7.84833e-05
9.25336e-05
-0.000102464
8.98687e-05
-0.00012435
8.23509e-05
-0.000143483
7.27106e-05
-0.000159654
6.20959e-05
-0.000172638
5.07893e-05
-0.000182509
3.93806e-05
-0.000189384
2.80427e-05
-0.000193338
1.69434e-05
-0.000194561
6.34945e-06
-0.000193151
-3.86298e-06
-0.000189252
-1.34953e-05
-0.000183013
-2.26265e-05
-0.000174651
-3.10308e-05
-0.000164264
-3.87121e-05
-0.000152067
-4.57091e-05
-0.000138272
-5.17369e-05
-0.00012308
-5.67771e-05
-0.000106838
-6.06811e-05
-8.9804e-05
-6.33486e-05
-7.23718e-05
-6.46659e-05
-5.50291e-05
-6.44244e-05
-3.80246e-05
-6.27959e-05
-2.19123e-05
-5.95709e-05
-7.06336e-06
-5.49317e-05
6.12528e-06
-4.88706e-05
1.72935e-05
-4.16241e-05
2.61582e-05
-3.32249e-05
3.24735e-05
-2.41904e-05
3.6125e-05
-1.48115e-05
3.71235e-05
-5.56953e-06
3.55765e-05
3.29731e-06
3.17348e-05
1.1384e-05
2.59129e-05
1.83657e-05
1.85746e-05
2.39135e-05
1.01838e-05
2.79211e-05
1.28558e-06
3.01418e-05
-7.72035e-06
3.06122e-05
-1.63373e-05
2.93858e-05
-2.41588e-05
2.65441e-05
-3.07594e-05
2.20795e-05
-3.57664e-05
1.6288e-05
-3.8854e-05
9.34273e-06
-3.97758e-05
1.56595e-06
-3.83712e-05
-6.70524e-06
-3.46005e-05
-1.51073e-05
-2.84289e-05
-2.34059e-05
-2.00696e-05
-3.11875e-05
-9.6936e-06
-3.83136e-05
2.33046e-06
-4.45869e-05
1.57488e-05
-4.96092e-05
3.01841e-05
-5.34418e-05
4.53073e-05
-5.59772e-05
6.06945e-05
-5.71128e-05
7.59481e-05
-5.68458e-05
9.08225e-05
-5.53157e-05
0.000104851
-5.26254e-05
0.000117816
-4.89395e-05
0.000129556
-4.44347e-05
0.000139881
-3.92668e-05
0.000148648
-3.34421e-05
0.000155825
-2.72896e-05
0.000161327
-2.07761e-05
0.000165077
-1.39421e-05
0.000167078
-6.78664e-06
0.000167237
6.63743e-07
0.000165403
8.54944e-06
0.000161486
1.67887e-05
0.0001553
2.55122e-05
0.000146724
3.45582e-05
0.000135592
4.38741e-05
0.000121896
5.30889e-05
0.000105664
6.20013e-05
8.7089e-05
7.01192e-05
6.67098e-05
7.66098e-05
4.59028e-05
7.879e-05
2.57853e-05
7.60761e-05
9.63734e-05
-3.26427e-05
0.000145306
-5.79458e-05
0.000115515
-8.41942e-05
0.000118782
-0.000110058
0.000115732
-0.000133571
0.000105864
-0.000153827
9.29669e-05
-0.000170474
7.87421e-05
-0.000183804
6.41183e-05
-0.000193652
4.92283e-05
-0.000200268
3.46576e-05
-0.000203835
2.05113e-05
-0.000204579
7.09222e-06
-0.000202648
-5.79387e-06
-0.000198162
-1.79807e-05
-0.000191295
-2.94931e-05
-0.000182203
-4.01226e-05
-0.000171014
-4.99004e-05
-0.00015794
-5.87816e-05
-0.000143103
-6.65732e-05
-0.000126779
-7.31006e-05
-0.00010924
-7.82197e-05
-9.08324e-05
-8.17547e-05
-7.19805e-05
-8.35173e-05
-5.30232e-05
-8.33812e-05
-3.45132e-05
-8.13057e-05
-1.69088e-05
-7.71753e-05
-6.59679e-07
-7.11813e-05
1.3785e-05
-6.33157e-05
2.59042e-05
-5.37436e-05
3.54974e-05
-4.28182e-05
4.21566e-05
-3.08497e-05
4.58065e-05
-1.84615e-05
4.63121e-05
-6.07512e-06
4.38768e-05
5.7325e-06
3.87996e-05
1.64607e-05
3.15079e-05
2.56575e-05
2.25137e-05
3.29081e-05
1.23564e-05
3.80791e-05
1.69449e-06
4.08039e-05
-9.02238e-06
4.13297e-05
-1.92178e-05
3.95817e-05
-2.8546e-05
3.58715e-05
-3.65047e-05
3.00363e-05
-4.26611e-05
2.24419e-05
-4.66467e-05
1.33257e-05
-4.81722e-05
3.08982e-06
-4.70192e-05
-7.8597e-06
-4.30972e-05
-1.90306e-05
-3.65518e-05
-2.99506e-05
-2.75002e-05
-4.02391e-05
-1.62357e-05
-4.95794e-05
-3.08118e-06
-5.77428e-05
1.16469e-05
-6.4336e-05
2.75064e-05
-6.93009e-05
4.39917e-05
-7.24638e-05
6.06925e-05
-7.38143e-05
7.72223e-05
-7.33751e-05
9.31672e-05
-7.126e-05
0.000108231
-6.76888e-05
0.000122136
-6.28444e-05
0.000134573
-5.68716e-05
0.000145482
-5.01751e-05
0.000154716
-4.26753e-05
0.000162216
-3.4791e-05
0.000168043
-2.66038e-05
0.000172103
-1.80016e-05
0.000174435
-9.11968e-06
0.000174947
1.50706e-07
0.000173514
9.98063e-06
0.000169971
2.03303e-05
0.000164136
3.13463e-05
0.00015571
4.29851e-05
0.000144607
5.49772e-05
0.000130454
6.72421e-05
0.000113337
7.91177e-05
9.34728e-05
8.99838e-05
7.15853e-05
9.8497e-05
4.92641e-05
0.000101111
2.77616e-05
9.75782e-05
0.000124136
-3.56995e-05
0.000181005
-6.31194e-05
0.000142934
-9.1656e-05
0.000147318
-0.000120089
0.000144164
-0.000145732
0.000131506
-0.000167443
0.000114677
-0.000184879
9.61774e-05
-0.000198262
7.75004e-05
-0.000207884
5.88495e-05
-0.000213957
4.07302e-05
-0.000217083
2.36379e-05
-0.000217188
7.19695e-06
-0.000214642
-8.33975e-06
-0.000209455
-2.31671e-05
-0.000201828
-3.71193e-05
-0.000191818
-5.01314e-05
-0.000179653
-6.20654e-05
-0.000165465
-7.2969e-05
-0.000149355
-8.2682e-05
-0.000131589
-9.08658e-05
-0.000112445
-9.73634e-05
-9.22337e-05
-0.000101966
-7.14686e-05
-0.000104282
-5.04817e-05
-0.000104368
-2.9925e-05
-0.000101862
-1.03262e-05
-9.67735e-05
7.80698e-06
-8.93139e-05
2.39146e-05
-7.9423e-05
3.74251e-05
-6.72536e-05
4.7993e-05
-5.33856e-05
5.52461e-05
-3.81023e-05
5.88619e-05
-2.20773e-05
5.89191e-05
-6.13232e-06
5.54487e-05
9.2033e-06
4.88414e-05
2.30684e-05
3.9606e-05
3.48928e-05
2.83553e-05
4.41583e-05
1.57304e-05
5.07035e-05
2.5408e-06
5.39927e-05
-1.06626e-05
5.45321e-05
-2.32666e-05
5.21846e-05
-3.48189e-05
4.74227e-05
-4.47229e-05
3.994e-05
-5.24817e-05
3.0201e-05
-5.76048e-05
1.84488e-05
-5.97962e-05
5.28198e-06
-5.88507e-05
-8.80371e-06
-5.46915e-05
-2.31894e-05
-4.75053e-05
-3.71376e-05
-3.74696e-05
-5.02752e-05
-2.48574e-05
-6.21896e-05
-1.01687e-05
-7.24304e-05
6.28212e-06
-8.07866e-05
2.38612e-05
-8.68793e-05
4.21908e-05
-9.07918e-05
6.06792e-05
-9.23011e-05
7.88868e-05
-9.15824e-05
9.63749e-05
-8.87491e-05
0.000112791
-8.41052e-05
0.000127767
-7.7821e-05
0.000141118
-7.02226e-05
0.000152653
-6.171e-05
0.000162352
-5.23743e-05
0.000170297
-4.27363e-05
0.000176435
-3.27426e-05
0.00018085
-2.24176e-05
0.000183628
-1.18973e-05
0.000184603
-8.23885e-07
0.000183735
1.08501e-05
0.000180765
2.33018e-05
0.00017548
3.6632e-05
0.00016752
5.09448e-05
0.000156392
6.61052e-05
0.00014183
8.18037e-05
0.000123588
9.73599e-05
0.00010188
0.000111692
7.79138e-05
0.000122463
5.36606e-05
0.000125364
3.04129e-05
0.000120826
0.000154549
-3.92389e-05
0.000220244
-6.91911e-05
0.000172886
-0.000100934
0.00017906
-0.000132896
0.000176125
-0.000161526
0.000160136
-0.000184968
0.000138118
-0.000203156
0.000114365
-0.000216444
9.07879e-05
-0.00022562
6.80247e-05
-0.000231093
4.62032e-05
-0.000233342
2.58867e-05
-0.000232712
6.5672e-06
-0.000229239
-1.18123e-05
-0.000223132
-2.92745e-05
-0.000214536
-4.57163e-05
-0.000203538
-6.11292e-05
-0.000190303
-7.53015e-05
-0.000174863
-8.84089e-05
-0.000157233
-0.000100311
-0.000137726
-0.000110373
-0.000116583
-0.000118506
-9.41988e-05
-0.00012435
-7.0984e-05
-0.000127496
-4.7561e-05
-0.00012779
-2.44164e-05
-0.000125005
-2.18125e-06
-0.000119008
1.83771e-05
-0.000109872
3.66709e-05
-9.77161e-05
5.21102e-05
-8.26921e-05
6.39195e-05
-6.51942e-05
7.19102e-05
-4.60921e-05
7.56629e-05
-2.58291e-05
7.49941e-05
-5.46315e-06
7.01404e-05
1.40567e-05
6.15449e-05
3.16634e-05
4.97847e-05
4.66523e-05
3.56125e-05
5.83301e-05
1.98553e-05
6.646e-05
3.50221e-06
7.03455e-05
-1.28287e-05
7.08638e-05
-2.84076e-05
6.77652e-05
-4.27476e-05
6.17644e-05
-5.51533e-05
5.23469e-05
-6.4905e-05
3.99539e-05
-7.14957e-05
2.50411e-05
-7.45701e-05
8.35706e-06
-7.38888e-05
-9.48615e-06
-6.94433e-05
-2.76344e-05
-6.1385e-05
-4.51938e-05
-4.99736e-05
-6.16855e-05
-3.57365e-05
-7.64274e-05
-1.90641e-05
-8.91022e-05
-5.17246e-07
-9.93323e-05
1.94537e-05
-0.000106849
4.00364e-05
-0.000111374
6.08425e-05
-0.000113107
8.12105e-05
-0.00011195
0.00010066
-0.000108198
0.000118685
-0.00010213
0.00013498
-9.41156e-05
0.000149315
-8.45564e-05
0.000161586
-7.39802e-05
0.000171762
-6.25501e-05
0.000179967
-5.09405e-05
0.000186398
-3.91724e-05
0.000191318
-2.73365e-05
0.00019459
-1.51667e-05
0.00019622
-2.45125e-06
0.000196004
1.10672e-05
0.000193887
2.54187e-05
0.00018948
4.10395e-05
0.00018225
5.81745e-05
0.000171534
7.68211e-05
0.000156452
9.68861e-05
0.000136833
0.000116978
0.00011297
0.000135555
8.58176e-05
0.000149616
5.87956e-05
0.000152386
3.33854e-05
0.000146237
0.000187934
-4.31172e-05
0.000263361
-7.60268e-05
0.000205795
-0.00011169
0.000214722
-0.000149264
0.000213698
-0.000181727
0.000192599
-0.000207175
0.000163566
-0.000225923
0.000133113
-0.000238736
0.0001036
-0.000246711
7.60002e-05
-0.000251212
5.07036e-05
-0.00025248
2.71554e-05
-0.000250842
4.92872e-06
-0.000246404
-1.62518e-05
-0.00023933
-3.63491e-05
-0.000229626
-5.54207e-05
-0.000217642
-7.31136e-05
-0.000203089
-8.98548e-05
-0.000186231
-0.000105267
-0.000166906
-0.000119637
-0.000145353
-0.000131926
-0.000121836
-0.000142023
-9.67305e-05
-0.000149455
-7.05637e-05
-0.000153663
-4.39673e-05
-0.000154386
-1.76169e-05
-0.000151355
7.83975e-06
-0.000144464
3.14366e-05
-0.000133468
5.25295e-05
-0.000118808
7.03355e-05
-0.000100497
8.40951e-05
-7.89529e-05
9.30554e-05
-5.50523e-05
9.6866e-05
-2.96402e-05
9.53898e-05
-3.98768e-06
8.88128e-05
2.06328e-05
7.75702e-05
4.29049e-05
6.25014e-05
6.17199e-05
4.46099e-05
7.62215e-05
2.49296e-05
8.61407e-05
4.58073e-06
9.06953e-05
-1.56574e-05
9.11025e-05
-3.49638e-05
8.70717e-05
-5.27195e-05
7.95198e-05
-6.82028e-05
6.78306e-05
-8.05616e-05
5.23113e-05
-8.90192e-05
3.34969e-05
-9.32112e-05
1.25493e-05
-9.28016e-05
-9.89517e-06
-8.78903e-05
-3.25461e-05
-7.86881e-05
-5.43978e-05
-6.56358e-05
-7.47381e-05
-4.91622e-05
-9.29016e-05
-3.00059e-05
-0.000108259
-8.73304e-06
-0.000120606
1.4088e-05
-0.000129671
3.76823e-05
-0.000134968
6.13082e-05
-0.000136732
8.43458e-05
-0.000134987
0.000106138
-0.00012999
0.00012621
-0.000122201
0.000144071
-0.000111977
0.000159527
-0.000100013
0.000172505
-8.69579e-05
0.000183102
-7.31461e-05
0.00019149
-5.93279e-05
0.000198141
-4.58225e-05
0.000203276
-3.24703e-05
0.000207067
-1.89583e-05
0.000209461
-4.84625e-06
0.000210362
1.01647e-05
0.000209331
2.64489e-05
0.000206309
4.40611e-05
0.000200417
6.40647e-05
0.000190422
8.68158e-05
0.000175405
0.000111902
0.000154051
0.000138332
0.000126831
0.000162776
9.52476e-05
0.0001812
6.43881e-05
0.000183246
3.65566e-05
0.000174069
0.000224491
-4.83815e-05
0.000311742
-8.55904e-05
0.000243003
-0.000125152
0.000254284
-0.000169435
0.000257981
-0.000207767
0.000230931
-0.000235647
0.000191446
-0.000254377
0.000151842
-0.000265814
0.000115037
-0.000272069
8.22554e-05
-0.000274659
5.32933e-05
-0.000274566
2.70617e-05
-0.000271832
2.19371e-06
-0.000266273
-2.181e-05
-0.000257933
-4.46894e-05
-0.00024717
-6.61837e-05
-0.00023389
-8.63948e-05
-0.000218226
-0.000105519
-0.000199787
-0.000123705
-0.000178646
-0.000140778
-0.00015476
-0.000155812
-0.000128454
-0.000168329
-0.000100135
-0.000177774
-7.0364e-05
-0.000183435
-3.9943e-05
-0.000184807
-9.63001e-06
-0.000181668
1.96545e-05
-0.000173748
4.72724e-05
-0.000161085
7.20451e-05
-0.000143581
9.30125e-05
-0.000121465
0.000109242
-9.51838e-05
0.000119622
-6.5433e-05
0.000123691
-3.37101e-05
0.000121271
-1.56889e-06
0.000112431
2.94721e-05
9.77242e-05
5.7611e-05
7.84515e-05
8.09921e-05
5.57394e-05
9.89335e-05
3.10953e-05
0.000110784
5.6867e-06
0.000116102
-1.94966e-05
0.000116284
-4.32072e-05
0.000110781
-6.51805e-05
0.000101492
-8.45452e-05
8.71939e-05
-0.000100247
6.80127e-05
-0.00011111
4.43599e-05
-0.000116634
1.8072e-05
-0.000116549
-9.98277e-06
-0.000110948
-3.81469e-05
-0.000100183
-6.51627e-05
-8.4839e-05
-9.00821e-05
-6.56222e-05
-0.000112118
-4.32576e-05
-0.000130624
-1.85239e-05
-0.00014534
7.86008e-06
-0.000156055
3.50321e-05
-0.00016214
6.2234e-05
-0.000163933
8.85645e-05
-0.000161318
0.000113285
-0.000154712
0.00013573
-0.000144647
0.00015542
-0.000131667
0.000172087
-0.00011668
0.000185746
-0.000100618
0.000196535
-8.39356e-05
0.000204874
-6.76688e-05
0.000211449
-5.23999e-05
0.000216683
-3.77059e-05
0.000220944
-2.32213e-05
0.000224289
-8.19312e-06
0.000226154
8.29926e-06
0.000226836
2.57666e-05
0.000225913
4.49836e-05
0.000222485
6.74913e-05
0.000214805
9.44955e-05
0.000199922
0.000126785
0.000176331
0.000161922
0.000144358
0.00019475
0.00010582
0.000219737
7.08733e-05
0.000218193
3.99341e-05
0.000205009
0.000264425
-5.42616e-05
0.000366003
-0.000103597
0.000292338
-0.000148607
0.000299294
-0.000198528
0.000307901
-0.000242052
0.000274455
-0.000271877
0.000221271
-0.000289636
0.000169601
-0.000298012
0.000123412
-0.000300886
8.51297e-05
-0.000300913
5.33194e-05
-0.000299038
2.51877e-05
-0.000295009
-1.83574e-06
-0.000288233
-2.85861e-05
-0.000278653
-5.42707e-05
-0.000266544
-7.8293e-05
-0.000252251
-0.000100689
-0.000235508
-0.000122263
-0.000215775
-0.000143438
-0.00019265
-0.000163904
-0.00016621
-0.000182253
-0.000136641
-0.000197899
-0.000104515
-0.000209901
-7.05661e-05
-0.000217385
-3.55436e-05
-0.000219831
-3.59878e-07
-0.000216853
3.38575e-05
-0.000207966
6.6306e-05
-0.000193535
9.56869e-05
-0.000172964
0.000120869
-0.000146648
0.000140308
-0.000114623
0.00015284
-7.79662e-05
0.000157495
-3.83649e-05
0.000153887
2.03879e-06
0.000142152
4.12074e-05
0.000123361
7.64023e-05
9.86292e-05
0.000105724
6.96969e-05
0.000127866
3.85228e-05
0.000141959
6.73653e-06
0.000147889
-2.39757e-05
0.000146997
-5.29673e-05
0.000139773
-8.06972e-05
0.000129223
-0.000105359
0.000111856
-0.000125239
8.78902e-05
-0.000139022
5.81414e-05
-0.000146054
2.51037e-05
-0.000146142
-9.89434e-06
-0.000139437
-4.48526e-05
-0.000126515
-7.8084e-05
-0.000108298
-0.000108299
-8.56132e-05
-0.000134803
-5.93125e-05
-0.000156925
-3.03539e-05
-0.000174298
4.2477e-07
-0.000186834
3.22298e-05
-0.000193945
6.37602e-05
-0.000195464
9.41201e-05
-0.000191678
0.000122351
-0.000182942
0.000147627
-0.000169923
0.000169427
-0.000153468
0.000187435
-0.000134689
0.000201481
-0.000114666
0.000212047
-9.45027e-05
0.000219633
-7.5256e-05
0.000225447
-5.82138e-05
0.000230565
-4.28246e-05
0.000235481
-2.81386e-05
0.000239841
-1.25531e-05
0.00024376
4.37867e-06
0.000246599
2.29272e-05
0.0002486
4.29816e-05
0.000249147
6.69438e-05
0.000245282
9.83609e-05
0.00023167
0.000140397
0.000205338
0.000188254
0.000167073
0.000233014
0.000121485
0.000265326
8.21968e-05
0.000257482
4.52959e-05
0.00024191
0.000309721
-4.55231e-05
0.000411526
-0.000120715
0.000367531
-0.000190473
0.000369051
-0.000249377
0.000366806
-0.000295758
0.000320836
-0.000321671
0.000247184
-0.000333422
0.000181351
-0.000335067
0.000125057
-0.000331979
8.20413e-05
-0.00032868
5.00202e-05
-0.000325241
2.17479e-05
-0.000320501
-6.57669e-06
-0.000313079
-3.60085e-05
-0.000302389
-6.49604e-05
-0.000289084
-9.15996e-05
-0.000273497
-0.000116276
-0.000255434
-0.000140327
-0.000234119
-0.000164755
-0.000209019
-0.000189005
-0.00017972
-0.000211553
-0.000146497
-0.000231123
-0.000109971
-0.000246429
-7.10843e-05
-0.000256273
-3.06963e-05
-0.00026022
1.00741e-05
-0.000257625
5.02079e-05
-0.000248101
8.87676e-05
-0.000232096
0.000124363
-0.00020856
0.000155088
-0.000177374
0.000179041
-0.000138576
0.000194461
-9.33859e-05
0.000200185
-4.4089e-05
0.000195379
6.84582e-06
0.000180314
5.62738e-05
0.000155979
0.000100738
0.000123918
0.000137786
8.62874e-05
0.000165498
4.61969e-05
0.00018205
6.81387e-06
0.000187274
-2.8508e-05
0.000182321
-6.27844e-05
0.000174049
-9.78984e-05
0.000164336
-0.000130746
0.000144704
-0.00015678
0.000113925
-0.000174623
7.59842e-05
-0.000183469
3.39489e-05
-0.000183499
-9.86481e-06
-0.000175105
-5.3248e-05
-0.000159163
-9.40285e-05
-0.000136914
-0.000130549
-0.000109744
-0.000161972
-7.86131e-05
-0.000188055
-4.4323e-05
-0.000208589
-8.16668e-06
-0.00022299
2.90856e-05
-0.000231197
6.59994e-05
-0.000232378
0.000101203
-0.000226882
0.000133604
-0.000215344
0.000162213
-0.000198533
0.00018638
-0.000177636
0.0002057
-0.000154009
0.000220108
-0.000129075
0.0002302
-0.000104595
0.000236774
-8.18284e-05
0.000241544
-6.29833e-05
0.000246229
-4.75106e-05
0.000251494
-3.34051e-05
0.000257054
-1.81136e-05
0.000262002
-5.69129e-07
0.000267032
1.7897e-05
0.000273151
3.68616e-05
0.000280737
5.93581e-05
0.000284484
9.46126e-05
0.000274683
0.000150197
0.000247557
0.00021538
0.000204537
0.000276033
0.000151522
0.000318341
0.000101286
0.000307718
4.64037e-05
0.000296792
0.000356125
-2.18935e-05
0.000433161
-8.13924e-05
0.000426258
-0.000218343
0.000506002
-0.000331763
0.000480225
-0.000381884
0.000370957
-0.000398377
0.000263677
-0.000395605
0.00017858
-0.000381524
0.000110976
-0.000367665
6.81806e-05
-0.000359674
4.203e-05
-0.000356677
1.87492e-05
-0.000353677
-9.57596e-06
-0.000346826
-4.28613e-05
-0.000335442
-7.63446e-05
-0.000320493
-0.000106549
-0.000303396
-0.000133373
-0.000283591
-0.000160131
-0.000259815
-0.000188531
-0.000231476
-0.000217344
-0.000198146
-0.000244884
-0.000160098
-0.000269172
-0.000117909
-0.000288619
-7.27073e-05
-0.000301476
-2.57192e-05
-0.000307209
2.18734e-05
-0.000305218
6.92695e-05
-0.000295498
0.000115348
-0.000278176
0.000158719
-0.000251931
0.000197009
-0.000215664
0.000227371
-0.000168939
0.000247249
-0.000113264
0.000254609
-5.14501e-05
0.00024864
1.28143e-05
0.00022911
7.58034e-05
0.000196947
0.0001329
0.000153447
0.000181286
0.000103161
0.000215784
5.14414e-05
0.00023377
4.40285e-06
0.000234312
-3.4643e-05
0.000221366
-7.3029e-05
0.000212437
-0.000115567
0.000206877
-0.000158423
0.00018756
-0.000194411
0.000149913
-0.000219123
0.000100696
-0.000230969
4.57948e-05
-0.000230466
-1.03689e-05
-0.000219252
-6.44612e-05
-0.000198956
-0.000114323
-0.000171517
-0.000157986
-0.000138655
-0.000194835
-0.000101495
-0.000225216
-6.11326e-05
-0.000248952
-1.83109e-05
-0.000265814
2.54818e-05
-0.000274992
6.90139e-05
-0.000275912
0.000110683
-0.000268553
0.000148752
-0.000253414
0.000181891
-0.000231673
0.000209186
-0.000204931
0.000230519
-0.000175343
0.000246156
-0.000144712
0.000256309
-0.000114748
0.000261893
-8.74129e-05
0.000264934
-6.6026e-05
0.00026845
-5.10275e-05
0.000274143
-3.90984e-05
0.000280748
-2.47175e-05
0.000286274
-6.09552e-06
0.000292056
1.21146e-05
0.000302865
2.60529e-05
0.000322536
3.96873e-05
0.000344108
7.30402e-05
0.000345114
0.000149191
0.000318478
0.000242015
0.000271994
0.000322517
0.000201954
0.00038838
0.000105566
0.000404106
2.47232e-05
0.000377634
0.000380848
-2.79157e-06
0.000435647
6.08509e-05
0.000360115
-6.72718e-05
0.000630407
-0.000331387
0.000742006
-0.000472952
0.000512522
-0.000500178
0.000290902
-0.000486084
0.000164486
-0.000444624
6.95151e-05
-0.000409576
3.3132e-05
-0.000396914
2.93686e-05
-0.000397335
1.91702e-05
-0.000396917
-9.99345e-06
-0.000387277
-5.25006e-05
-0.000370201
-9.34214e-05
-0.000353349
-0.000123401
-0.000338763
-0.000147959
-0.000321829
-0.000177066
-0.000298409
-0.000211952
-0.000267348
-0.000248405
-0.000229362
-0.00028287
-0.00018496
-0.000313574
-0.000134775
-0.000338804
-8.02982e-05
-0.000355953
-2.40413e-05
-0.000363467
3.22812e-05
-0.000361541
8.7982e-05
-0.0003512
0.000143051
-0.000333246
0.000196267
-0.000305148
0.00024486
-0.000264259
0.000284856
-0.000208937
0.000312022
-0.000140431
0.000323148
-6.25779e-05
0.000316212
1.97491e-05
0.000290411
0.000101604
0.000246121
0.000177189
0.000187465
0.000239941
0.000121362
0.000281887
5.76464e-05
0.000297485
2.27517e-06
0.000289684
-4.56685e-05
0.000269311
-9.06564e-05
0.000257425
-0.000140719
0.000256939
-0.000192459
0.000239302
-0.000238217
0.000195673
-0.000272337
0.000134816
-0.000289639
6.30995e-05
-0.000289946
-1.00594e-05
-0.000273795
-8.06116e-05
-0.000245883
-0.000142235
-0.000209994
-0.000193875
-0.0001691
-0.000235729
-0.000124681
-0.000269636
-7.71726e-05
-0.000296461
-2.71272e-05
-0.00031586
2.45984e-05
-0.000326719
7.69793e-05
-0.000328294
0.000127924
-0.0003195
0.000174617
-0.000300108
0.000214501
-0.000271558
0.000246383
-0.000236815
0.000270555
-0.000199517
0.000287128
-0.000161287
0.000293983
-0.000121604
0.000291098
-8.45284e-05
0.000283506
-5.84337e-05
0.00028041
-4.79297e-05
0.000288178
-4.68664e-05
0.000302018
-3.8557e-05
0.000311657
-1.57333e-05
0.000316781
6.99048e-06
0.000329544
1.32904e-05
0.000369848
-6.17275e-07
0.000431187
1.17012e-05
0.000458687
0.000121691
0.000429342
0.00027136
0.000359061
0.000392797
0.000183575
0.000563866
3.46616e-06
0.000582257
-1.96366e-05
0.000399119
0.000360273
0.000164068
0.000271586
0.000329588
0.000195977
0.000270949
0.000687078
-9.84146e-05
0.00110664
-0.000435474
0.000849581
-0.000567619
0.000423046
-0.000567438
0.000164305
-0.000487876
-1.00475e-05
-0.000421753
-3.29893e-05
-0.000406995
1.46097e-05
-0.00041289
2.50655e-05
-0.000407172
-1.5712e-05
-0.00038234
-7.73329e-05
-0.000351228
-0.000124534
-0.000334354
-0.000140275
-0.000334709
-0.000147605
-0.000337921
-0.000173853
-0.000330053
-0.00021982
-0.000306076
-0.000272382
-0.000267782
-0.000321164
-0.000218561
-0.000362795
-0.000160877
-0.000396488
-9.73484e-05
-0.000419482
-3.0846e-05
-0.00042997
3.57536e-05
-0.000428141
0.000101553
-0.000417
0.000167456
-0.000399149
0.000234017
-0.00037171
0.000297649
-0.000327891
0.000351512
-0.0002628
0.00038935
-0.000178271
0.000406183
-7.94118e-05
0.000398374
2.75566e-05
0.000364896
0.000135081
0.000308241
0.000233844
0.000236899
0.000311283
0.000161314
0.000357472
8.78283e-05
0.000370971
1.52695e-05
0.000362243
-5.68345e-05
0.000341415
-0.000126877
0.000327468
-0.000193571
0.000323634
-0.000254195
0.000299926
-0.000306263
0.000247741
-0.000344247
0.000172801
-0.000363379
8.22319e-05
-0.000360132
-1.33068e-05
-0.000338557
-0.000102188
-0.000300989
-0.000179803
-0.000253692
-0.000241173
-0.000202067
-0.000287354
-0.00014799
-0.000323713
-9.10684e-05
-0.000353384
-3.10379e-05
-0.000375892
3.12026e-05
-0.000388961
9.45076e-05
-0.000391602
0.000156179
-0.000381172
0.000211373
-0.000355304
0.000257403
-0.000317589
0.000292373
-0.000271785
0.000315386
-0.00022253
0.000322751
-0.00016865
0.000308788
-0.000107641
0.000275154
-5.08934e-05
0.000237401
-2.06792e-05
0.000219499
-3.00269e-05
0.000232008
-5.93744e-05
0.000262144
-6.8693e-05
0.000284271
-3.78602e-05
0.000286871
4.39098e-06
0.000294956
5.20526e-06
0.000358307
-6.39723e-05
0.000481576
-0.000111567
0.000554093
4.91829e-05
0.000505479
0.000319975
0.000307996
0.000590279
-5.18186e-05
0.000919464
-0.000237854
0.000761426
-0.000129425
0.000289032
0.000231015
0.000440459
-0.000168867
0.000625091
1.13524e-05
0.000486937
0.000824931
0.000130202
0.00146209
-0.000294161
0.00126626
-0.000557515
0.000686399
-0.000591272
0.000198062
-0.000480206
-0.000121123
-0.000382726
-0.000130469
-0.00034684
-2.12774e-05
-0.000347179
2.54037e-05
-0.000337674
-2.52171e-05
-0.000304068
-0.000110939
-0.000269131
-0.00015947
-0.0002564
-0.000153006
-0.000270869
-0.000133137
-0.00029718
-0.000147543
-0.000312196
-0.000204804
-0.000302883
-0.000281695
-0.000269567
-0.00035448
-0.000219386
-0.000412976
-0.000160061
-0.000455814
-9.64687e-05
-0.000483074
-2.85579e-05
-0.000497881
4.31141e-05
-0.000499813
0.000119422
-0.000493308
0.000203579
-0.000483307
0.000294088
-0.000462219
0.000381015
-0.00041482
0.000450796
-0.000332581
0.000495699
-0.000223175
0.000514025
-9.77373e-05
0.000505082
3.65009e-05
0.000469411
0.000170752
0.000412195
0.000291061
0.000342333
0.000381146
0.000264242
0.000435564
0.000173343
0.000461869
6.3996e-05
0.00047159
-5.80635e-05
0.000463473
-0.00018178
0.000451182
-0.000291644
0.000433496
-0.00037807
0.000386351
-0.000436561
0.000306231
-0.000465402
0.000201639
-0.000469873
8.67001e-05
-0.00045541
-2.77704e-05
-0.000420353
-0.000137247
-0.000371175
-0.000228982
-0.000315521
-0.000296829
-0.000258528
-0.000344348
-0.000198984
-0.000383258
-0.000131214
-0.000421156
-5.42713e-05
-0.000452835
2.47746e-05
-0.000468007
9.87524e-05
-0.000465579
0.000163312