/*--------------------------------*- C++ -*----------------------------------*\
| =========                 |                                                 |
| \\      /  F ield         | OpenFOAM: The Open Source CFD Toolbox           |
|  \\    /   O peration     | Version:  2412                                  |
|   \\  /    A nd           | Website:  www.openfoam.com                      |
|    \\/     M anipulation  |                                                 |
\*---------------------------------------------------------------------------*/
FoamFile
{
    version     2.0;
    format      ascii;
    arch        "LSB;label=32;scalar=64";
    class       volScalarField;
    location    "4.5";
    object      alpha.honey;
}
// * * * * * * * * * * * * * * * * * * * * * * * * * * * * * * * * * * * * * //

dimensions      [0 0 0 0 0 0 0];

internalField   nonuniform List<scalar> 
6400
(
1
1
1
1
1
1
1
1
1
1
1
1
1
1
1
1
1
1
1
1
1
1
1
1
1
1
1
1
1
1
1
1
1
1
1
1
1
1
1
1
1
1
1
1
1
1
1
1
1
1
1
1
1
1
1
1
1
1
1
1
1
1
1
1
1
1
1
1
1
1
1
1
1
1
1
1
1
1
1
1
1
1
1
1
1
1
1
1
1
1
1
1
1
1
1
1
1
1
1
1
1
1
1
1
1
1
1
1
1
1
1
1
1
1
1
1
1
1
1
1
1
1
1
1
1
1
1
1
1
1
1
1
1
1
1
1
1
1
1
1
1
1
1
1
1
1
1
1
1
1
1
1
1
1
1
1
1
1
1
1
1
1
1
1
1
1
1
1
1
1
1
1
1
1
1
1
1
1
1
1
1
1
1
1
1
1
1
1
1
1
1
1
1
1
1
1
1
1
1
1
1
1
1
1
1
1
1
1
1
1
1
1
1
1
1
1
1
1
1
1
1
1
1
1
1
1
1
1
1
1
1
1
1
1
1
1
1
1
1
1
1
1
1
1
1
1
1
1
1
1
1
1
1
1
1
1
1
1
1
1
1
1
1
1
1
1
1
1
1
1
1
1
1
1
1
1
1
1
1
1
1
1
1
1
1
1
1
1
1
1
1
1
1
1
1
1
1
1
1
1
1
1
1
1
1
1
1
1
1
1
1
1
1
1
1
1
1
1
1
1
1
1
1
1
1
1
1
1
1
1
1
1
1
1
1
1
1
1
1
1
1
1
1
1
1
1
1
1
1
1
1
1
1
1
1
1
1
1
1
1
1
1
1
1
1
1
1
1
1
1
1
1
1
1
1
1
1
1
1
1
1
1
1
1
1
1
1
1
1
1
1
1
1
1
1
1
1
1
1
1
1
1
1
1
1
1
1
1
1
1
1
1
1
1
1
1
1
1
1
1
1
1
1
1
1
1
1
1
1
1
1
1
1
1
1
1
1
1
1
1
1
1
1
1
1
1
1
1
1
1
1
1
1
1
1
1
1
1
1
1
1
1
1
1
1
1
1
1
1
1
1
1
1
1
1
1
1
1
1
1
1
1
1
1
1
1
1
1
1
1
1
1
1
1
1
1
1
1
1
1
1
1
1
1
1
1
1
1
1
1
1
1
1
1
1
1
1
1
1
1
1
1
1
1
1
1
1
1
1
1
1
1
1
1
1
1
1
1
1
1
1
1
1
1
1
1
1
1
1
1
1
1
1
1
1
1
1
1
1
1
1
1
1
1
1
1
1
1
1
1
1
1
1
1
1
1
1
1
1
1
1
1
1
1
1
1
1
1
1
1
1
1
1
1
1
1
1
1
1
1
1
1
1
1
1
1
1
1
1
1
1
1
1
1
1
1
1
1
1
1
1
1
1
1
1
1
1
1
1
1
1
1
1
1
1
1
1
1
1
1
1
1
1
1
1
1
1
1
1
1
1
1
1
1
1
1
1
1
1
1
1
1
1
1
1
1
1
1
1
1
1
1
1
1
1
1
1
1
1
1
1
1
1
1
1
1
1
1
1
1
1
1
1
1
1
1
1
1
1
1
1
1
1
1
1
1
1
1
1
1
1
1
1
1
1
1
1
1
1
1
1
1
1
1
1
1
1
1
1
1
1
1
1
1
1
1
1
1
1
1
1
1
1
1
1
1
1
1
1
1
1
1
1
1
1
1
1
1
1
1
1
1
1
1
1
1
1
1
1
1
1
1
1
1
1
1
1
1
1
1
1
1
1
1
1
1
1
1
1
1
1
1
1
1
1
1
1
1
1
1
1
1
1
1
1
1
1
1
1
1
1
1
1
1
1
1
1
1
1
1
1
1
1
1
1
1
1
1
1
1
1
1
1
1
1
1
1
1
1
1
1
1
1
1
1
1
1
1
1
1
1
1
1
1
1
1
1
1
1
1
1
1
1
1
1
1
1
1
1
1
1
1
1
1
1
1
1
1
1
1
1
1
1
1
1
1
1
1
1
1
1
1
1
1
1
1
1
1
1
1
1
1
1
1
1
1
1
1
1
1
1
1
1
1
1
1
1
1
1
1
1
1
1
1
1
1
1
1
1
1
1
1
1
1
1
1
1
1
1
1
1
1
1
1
1
1
1
1
1
1
1
1
1
1
1
1
1
1
1
1
1
1
1
1
1
1
1
1
1
1
1
1
1
1
1
1
1
1
1
1
1
1
1
1
1
1
1
1
1
1
1
1
1
1
1
1
1
1
1
1
1
1
1
1
1
1
1
1
1
1
1
1
1
1
1
1
1
1
1
1
1
1
1
1
1
1
1
1
1
1
1
1
1
1
1
1
1
1
1
1
1
1
1
1
1
1
1
1
1
1
1
1
1
1
1
1
1
1
1
1
1
1
1
1
1
1
1
1
1
1
1
1
1
1
1
1
1
1
1
1
1
1
1
1
1
1
1
1
1
1
1
1
1
1
1
1
1
1
1
1
1
1
1
1
1
1
1
1
1
1
1
1
1
1
1
1
1
1
1
1
1
1
1
1
1
1
1
1
1
1
1
1
1
1
1
1
1
1
1
1
1
1
1
1
1
1
1
1
1
1
1
1
1
1
1
1
1
1
1
1
1
1
1
1
1
1
1
1
1
1
1
1
1
1
1
1
1
1
1
1
1
1
1
1
1
1
1
1
1
1
1
1
1
1
1
1
1
1
1
1
1
1
1
1
1
1
1
1
1
1
1
1
1
1
1
1
1
1
1
1
1
1
1
1
1
1
1
1
1
1
1
1
1
1
1
1
1
1
1
1
1
1
1
1
1
1
1
1
1
1
1
1
1
1
1
1
1
1
1
1
1
1
1
1
1
1
1
1
1
1
1
1
1
1
1
1
1
1
1
1
1
1
1
1
1
1
1
1
1
1
1
1
1
1
1
1
1
1
1
1
1
1
1
1
1
1
1
1
1
1
1
1
1
1
1
1
1
1
1
1
1
1
1
1
1
1
1
1
1
1
1
1
1
1
1
1
1
1
1
1
1
1
1
1
1
1
1
1
1
1
1
1
1
1
1
1
1
1
1
1
1
1
1
1
1
1
1
1
1
1
1
1
1
1
1
1
1
1
1
1
1
1
1
1
1
1
1
1
1
1
1
1
1
1
1
1
1
1
1
1
1
1
1
1
1
1
1
1
1
1
1
1
1
1
1
1
1
1
1
1
1
1
1
1
1
1
1
1
1
1
1
1
1
1
1
1
1
1
1
1
1
1
1
1
1
1
1
1
1
1
1
1
1
1
1
1
1
1
1
1
1
1
1
1
1
1
1
1
1
1
1
1
1
1
1
1
1
1
1
1
1
1
1
1
1
1
1
1
1
1
1
1
1
1
1
1
1
1
1
1
1
1
1
1
1
1
1
1
1
1
1
1
1
1
1
1
1
1
1
1
0.999999
0.999999
0.999999
0.999999
0.999999
0.999999
0.999999
0.999999
0.999999
0.999999
0.999999
0.999999
0.999999
0.999999
0.999999
0.999999
0.999999
0.999999
0.999999
0.999999
0.999999
0.999999
0.999999
0.999999
0.999999
0.999999
0.999999
0.999998
0.999998
0.999998
0.999998
0.999998
0.999998
0.999998
0.999998
0.999998
0.999997
0.999997
0.999997
0.999997
0.999997
0.999997
0.999997
0.999997
0.999997
0.999997
0.999997
0.999997
0.999997
0.999998
0.999998
0.999998
0.999998
0.999998
0.999998
0.999998
0.999998
0.999999
0.999999
0.999999
0.999999
0.999999
1
1
1
1
1
1
1
1
1
1
1
1
1
1
1
1
0.999999
0.999999
1.90993e-06
2.40991e-06
2.49144e-06
2.61744e-06
2.68963e-06
2.74189e-06
2.79488e-06
2.82387e-06
2.82549e-06
2.80388e-06
2.79446e-06
2.82487e-06
2.84416e-06
2.84696e-06
2.85106e-06
2.83849e-06
2.81534e-06
2.77372e-06
2.70952e-06
2.62312e-06
2.53422e-06
2.46022e-06
2.36806e-06
2.26382e-06
2.16791e-06
2.0898e-06
1.9959e-06
1.89712e-06
1.78936e-06
1.6816e-06
1.62076e-06
1.5802e-06
1.52334e-06
1.45075e-06
1.36338e-06
1.26253e-06
1.14978e-06
1.02697e-06
8.96088e-07
7.85179e-07
7.02053e-07
6.497e-07
5.92623e-07
5.32113e-07
5.07626e-07
5.0947e-07
5.38476e-07
5.77796e-07
6.192e-07
6.66986e-07
7.10603e-07
7.51791e-07
7.92863e-07
8.25829e-07
8.49736e-07
8.63999e-07
8.70208e-07
8.99741e-07
9.53069e-07
9.99312e-07
1.04016e-06
1.07735e-06
1.17517e-06
1.27546e-06
1.3685e-06
1.45743e-06
1.57717e-06
1.74801e-06
1.89759e-06
2.04455e-06
2.16259e-06
2.25137e-06
2.31802e-06
2.37389e-06
2.38756e-06
2.35385e-06
2.26157e-06
2.13072e-06
2.01871e-06
1.52578e-06
1.39338e-18
1.74969e-18
2.50799e-18
2.30979e-18
2.14114e-18
2.55653e-18
3.21124e-18
3.90234e-18
4.60946e-18
5.25338e-18
5.88788e-18
6.76144e-18
7.96402e-18
9.52129e-18
1.16255e-17
1.41905e-17
1.68474e-17
1.89719e-17
1.98964e-17
1.93132e-17
1.75514e-17
1.48974e-17
1.07996e-17
5.5185e-18
7.99135e-19
-3.50966e-26
-2.63093e-21
-8.17458e-35
-1.45433e-32
-2.43476e-30
-3.89184e-28
-3.52867e-26
-1.6535e-24
-1.50819e-24
-4.09015e-23
-3.72419e-23
-3.55362e-23
-2.31827e-23
-9.91277e-24
-2.15899e-24
-4.46807e-27
-4.48416e-45
-1.59443e-29
-2.29581e-31
-2.85192e-33
-1.85518e-34
-4.24154e-36
-8.4718e-23
-2.87362e-22
-3.8359e-22
-4.46051e-22
-2.17061e-23
1.54014e-34
4.87805e-21
1.58157e-20
2.80658e-20
3.25764e-20
5.92115e-20
9.43084e-20
6.45971e-20
3.49334e-20
2.38509e-19
1.06182e-18
1.94943e-18
2.57039e-18
2.89307e-18
3.14063e-18
3.42044e-18
3.55802e-18
3.5651e-18
3.46589e-18
3.30188e-18
3.11286e-18
2.74356e-18
2.11839e-18
1.84326e-18
2.90482e-18
3.95319e-18
4.03366e-18
1.14436e-20
9.1649e-22
1.20868e-21
1.51451e-21
1.39445e-21
1.27429e-21
1.59668e-21
2.06895e-21
2.5925e-21
2.53151e-21
2.38468e-21
1.96308e-21
2.28639e-21
3.40105e-21
5.51458e-21
6.20096e-21
6.973e-21
7.78309e-21
6.26433e-21
4.27557e-21
5.18906e-21
9.84299e-21
1.26301e-20
6.95948e-21
8.01993e-22
-6.62021e-22
6.6654e-23
-1.40189e-21
-2.72051e-20
-1.90181e-20
-2.2913e-33
-1.05814e-31
-1.61996e-30
2.4564e-33
6.32407e-32
3.06691e-31
1.85672e-30
3.35569e-29
4.4856e-28
1.27673e-27
4.67941e-27
1.60953e-27
6.91345e-29
-6.97839e-40
-3.38376e-40
2.73691e-49
-2.72134e-55
7.07475e-72
-3.53737e-70
5.18028e-42
1.92102e-43
3.40017e-45
-2.7601e-27
8.78237e-22
7.02026e-21
1.60288e-20
2.2665e-20
2.03518e-20
3.45967e-20
5.71856e-20
2.25857e-20
4.58832e-21
8.80645e-21
1.79748e-20
1.75676e-20
1.35952e-20
9.34423e-21
5.9923e-21
6.45528e-21
3.16877e-21
1.67324e-21
1.04032e-21
2.29386e-21
2.36318e-21
2.0154e-21
1.53421e-21
1.31437e-21
3.82587e-21
3.23318e-21
2.98194e-21
8.70195e-21
6.95594e-23
1.49058e-22
1.02007e-23
2.03363e-24
1.59144e-24
1.98603e-24
2.62406e-24
3.38162e-24
4.25243e-24
4.84961e-24
5.87628e-24
7.12291e-24
9.20149e-24
1.22192e-23
1.67599e-23
2.2775e-23
3.01047e-23
3.73418e-23
4.22667e-23
4.29591e-23
3.94915e-23
3.25388e-23
1.98618e-23
5.71841e-24
-1.13588e-24
-6.67826e-27
-5.73422e-24
-8.77462e-23
-3.96933e-23
-4.99788e-27
5.17552e-36
6.2327e-34
2.77118e-32
9.6927e-31
2.77254e-29
6.25154e-28
1.12984e-26
1.39883e-25
3.09349e-25
3.59262e-25
2.90368e-25
4.24454e-26
2.80135e-29
1.93152e-31
1.27785e-33
8.57234e-36
5.65012e-38
4.04213e-40
4.70673e-42
1.09014e-43
1.48368e-64
-5.68365e-31
2.87568e-24
2.29665e-23
7.00058e-23
1.57378e-22
2.80876e-22
5.11992e-22
1.3797e-21
3.10334e-21
4.54337e-21
4.38007e-21
3.89076e-21
4.2714e-21
3.70576e-21
2.37405e-21
1.29908e-21
5.11596e-22
3.61614e-22
3.45959e-22
2.97135e-22
2.50125e-22
2.10017e-22
1.85729e-22
1.62936e-22
1.48935e-22
1.35037e-22
1.30308e-22
2.0248e-22
1.37853e-22
1.31261e-25
2.17272e-25
5.37931e-26
8.9628e-27
2.91551e-27
3.6581e-27
4.94966e-27
6.55641e-27
8.51981e-27
1.05223e-26
1.30471e-26
1.66965e-26
2.22053e-26
3.04228e-26
4.31237e-26
6.14446e-26
8.50382e-26
1.09921e-25
1.28091e-25
1.3257e-25
1.23275e-25
1.04064e-25
6.78444e-26
2.42887e-26
1.6398e-26
6.82891e-26
-1.23469e-26
-2.5369e-25
-6.49884e-26
-6.87172e-31
1.17083e-33
1.33244e-31
5.45467e-30
1.87817e-28
5.27918e-27
1.16678e-25
2.04071e-24
2.45276e-23
6.06083e-23
7.08075e-23
5.86928e-23
8.78174e-24
6.68863e-27
5.09963e-29
3.85827e-31
3.05349e-33
2.40631e-35
2.00746e-37
1.95144e-39
2.39722e-41
-1.63133e-56
-2.00583e-34
2.75883e-27
2.53712e-26
1.02046e-25
2.77841e-25
6.47786e-25
1.27783e-24
3.87323e-24
1.36986e-23
2.95296e-23
2.88259e-23
1.70788e-23
1.49605e-23
1.18576e-23
7.11144e-24
3.83403e-24
1.33906e-24
8.76399e-25
7.48198e-25
5.90006e-25
4.63121e-25
4.13154e-25
3.32281e-25
2.86999e-25
2.45964e-25
2.07882e-25
2.07779e-25
2.70844e-25
1.97608e-25
2.96743e-28
5.7475e-28
2.05825e-28
1.23079e-28
4.85467e-29
1.14729e-29
1.56016e-29
2.15291e-29
2.96434e-29
3.87992e-29
4.77066e-29
6.11685e-29
7.76947e-29
9.88194e-29
1.45343e-28
2.14929e-28
3.5921e-28
6.10851e-28
7.81531e-28
6.57757e-28
4.90004e-28
4.18891e-28
2.84088e-28
7.00673e-28
3.8135e-28
2.74368e-28
-3.69878e-29
-8.08509e-28
-1.1589e-28
2.5954e-33
3.91438e-31
1.83418e-29
7.3741e-28
2.49532e-26
6.87553e-25
1.48538e-23
2.52165e-22
2.93774e-21
7.61421e-21
8.83287e-21
7.38343e-21
1.14245e-21
8.9183e-25
8.07628e-27
6.97138e-29
6.46291e-31
6.01291e-33
5.75564e-35
6.15031e-37
5.55046e-39
-4.17619e-54
-1.05438e-37
1.66628e-30
4.89527e-29
2.49187e-28
7.88933e-28
2.01847e-27
4.49308e-27
1.16614e-26
3.09521e-26
4.284e-26
4.66974e-26
4.13724e-26
3.74141e-26
2.81409e-26
1.61257e-26
7.87942e-27
3.42056e-27
2.28273e-27
1.84453e-27
1.43999e-27
1.11858e-27
8.93565e-28
7.35104e-28
6.16503e-28
5.37263e-28
4.75849e-28
4.71193e-28
6.69634e-28
4.1496e-28
8.92173e-31
1.83907e-30
7.72654e-31
5.06568e-31
3.35495e-31
1.86136e-31
9.11921e-32
9.69964e-32
1.41644e-31
1.99756e-31
2.74959e-31
3.91747e-31
5.65897e-31
8.15904e-31
1.25068e-30
2.0522e-30
3.48031e-30
6.4972e-30
1.01063e-29
1.14175e-29
9.79884e-30
1.13802e-29
7.94004e-30
4.13546e-30
2.26151e-30
8.48868e-31
-1.38703e-31
-2.90491e-30
0
7.60169e-31
4.11608e-29
1.89316e-27
7.48873e-26
2.48647e-24
6.7036e-23
1.41279e-21
2.33e-20
2.63017e-19
6.92802e-19
7.92091e-19
6.66132e-19
1.058e-19
7.38226e-23
8.37279e-25
8.81848e-27
9.60861e-29
1.06245e-30
1.18527e-32
1.39792e-34
1.853e-36
2.75658e-38
2.36803e-36
3.30447e-33
1.3058e-31
8.02856e-31
2.89435e-30
8.07581e-30
2.01733e-29
5.29839e-29
1.30786e-28
1.7801e-28
1.92003e-28
1.72882e-28
1.49319e-28
1.06923e-28
5.91775e-29
2.77515e-29
1.23482e-29
8.07581e-30
6.2249e-30
4.77798e-30
3.59957e-30
2.803e-30
2.26238e-30
1.86361e-30
1.59795e-30
1.40275e-30
1.39231e-30
1.99942e-30
1.13827e-30
3.0063e-33
6.46733e-33
2.99865e-33
2.1289e-33
1.50053e-33
1.20273e-33
8.13282e-34
7.83754e-34
7.35432e-34
1.12976e-33
1.64961e-33
2.48834e-33
3.79049e-33
5.66928e-33
9.09051e-33
1.6055e-32
3.0029e-32
5.30426e-32
7.98841e-32
9.43259e-32
9.19154e-32
9.97965e-32
7.09786e-32
2.95953e-32
1.61886e-32
3.27173e-32
6.8059e-32
1.02643e-31
1.54884e-30
6.76453e-29
3.38249e-27
1.53391e-25
5.96182e-24
1.93956e-22
5.10912e-21
1.04866e-19
1.68035e-18
1.83774e-17
4.85253e-17
5.44029e-17
4.6017e-17
7.42909e-18
4.70811e-21
6.1772e-23
8.38003e-25
1.08093e-26
1.43842e-28
1.91528e-30
2.57481e-32
3.65582e-34
6.04918e-36
2.5531e-35
6.1584e-35
4.71355e-34
3.32649e-33
1.33339e-32
3.99066e-32
1.09413e-31
2.95305e-31
6.83476e-31
9.23433e-31
9.75444e-31
8.67735e-31
7.13847e-31
4.89051e-31
2.62133e-31
1.18527e-31
5.30541e-32
3.37227e-32
2.48505e-32
1.87481e-32
1.36363e-32
1.03804e-32
8.18089e-33
6.60649e-33
5.56489e-33
4.83096e-33
4.77834e-33
6.88416e-33
3.69215e-33
1.14013e-35
2.53833e-35
1.2446e-35
9.53026e-36
7.56944e-36
6.23375e-36
5.4836e-36
5.29475e-36
6.14443e-36
6.2322e-36
9.53013e-36
1.50707e-35
2.42559e-35
3.87268e-35
6.559e-35
1.19087e-34
2.2379e-34
3.96787e-34
6.0778e-34
7.51153e-34
7.71142e-34
8.11753e-34
4.54852e-34
1.32375e-33
9.64587e-33
1.74788e-32
6.76616e-32
2.03966e-30
1.00509e-28
4.74833e-27
2.25317e-25
9.9547e-24
3.80187e-22
1.21106e-20
3.11491e-19
6.21987e-18
9.69379e-17
1.04373e-15
2.81198e-15
3.10375e-15
2.66248e-15
9.33484e-16
2.30566e-19
3.4819e-21
6.1772e-23
9.51735e-25
1.54935e-26
2.54102e-28
4.10115e-30
6.52823e-32
1.17056e-32
3.84735e-34
1.12495e-34
1.09534e-34
4.32003e-35
7.6222e-35
2.39473e-34
7.09042e-34
1.96232e-33
4.2615e-33
5.6371e-33
5.81122e-33
5.07378e-33
3.98913e-33
2.61785e-33
1.35755e-33
5.92056e-34
2.63446e-34
1.61591e-34
1.15847e-34
8.41341e-35
5.95305e-35
4.41903e-35
3.39958e-35
2.68852e-35
2.22343e-35
1.90727e-35
1.87402e-35
2.69953e-35
1.38042e-35
4.83242e-38
1.10901e-37
5.63046e-38
4.51684e-38
3.87493e-38
3.59486e-38
3.33326e-38
3.18679e-38
4.13893e-38
3.97612e-38
5.77932e-38
9.52332e-38
1.60292e-37
2.69308e-37
4.77601e-37
8.97519e-37
1.72749e-36
3.13421e-36
4.93775e-36
6.27192e-36
5.84965e-36
1.76458e-35
1.98763e-34
6.41893e-34
2.32112e-33
4.55427e-32
2.45599e-30
1.2717e-28
6.15319e-27
2.79521e-25
1.22682e-23
5.2225e-22
1.95939e-20
6.1131e-19
1.53426e-17
2.98653e-16
4.7864e-15
5.33534e-14
9.34386e-14
1.01815e-13
8.85781e-14
1.94598e-14
7.7991e-18
1.26508e-19
2.6634e-21
6.29399e-23
1.29438e-24
2.69292e-26
5.57145e-28
1.18098e-29
2.35927e-30
6.42941e-32
1.08792e-33
5.44516e-35
2.99921e-35
7.67518e-36
2.12427e-36
5.29071e-36
1.52844e-35
3.12126e-35
4.00289e-35
4.01133e-35
3.41083e-35
2.56383e-35
1.6106e-35
8.06579e-36
3.39191e-36
1.48371e-36
8.79313e-37
6.12174e-37
4.27543e-37
2.94032e-37
2.12534e-37
1.595e-37
1.23437e-37
1.00178e-37
8.48583e-38
8.26733e-38
1.18816e-37
5.83444e-38
2.26658e-40
5.36665e-40
2.78171e-40
2.30472e-40
2.07229e-40
2.08508e-40
2.16477e-40
2.17178e-40
2.7157e-40
3.09378e-40
3.75382e-40
6.44047e-40
1.13007e-39
1.98821e-39
3.68428e-39
7.19313e-39
1.43219e-38
2.62915e-38
3.69278e-38
1.21332e-37
1.71448e-36
7.8546e-36
3.44739e-35
6.38938e-34
3.78672e-32
2.27897e-30
1.26831e-28
6.52071e-27
3.09797e-25
1.35913e-23
5.57169e-22
2.2358e-20
8.1413e-19
2.49635e-17
6.12385e-16
1.20634e-14
2.01173e-13
1.22681e-12
1.04727e-12
1.09255e-12
7.78948e-13
1.30541e-14
2.0182e-16
3.04824e-18
6.14499e-20
1.43602e-21
3.78019e-23
1.04362e-24
3.11495e-26
2.80817e-27
9.98942e-29
2.25114e-30
4.48743e-32
8.41118e-34
1.68349e-35
2.05248e-36
1.11138e-36
1.79814e-37
1.03107e-37
2.5986e-37
3.26063e-37
3.17075e-37
2.59971e-37
1.86612e-37
1.12326e-37
5.4005e-38
2.18907e-38
9.36072e-39
5.34799e-39
3.60513e-39
2.42419e-39
1.61772e-39
1.13744e-39
8.32195e-40
6.29871e-40
5.01459e-40
4.19221e-40
4.04529e-40
5.79128e-40
2.7434e-40
1.16439e-42
2.84188e-42
1.49377e-42
1.2696e-42
1.17922e-42
1.25254e-42
1.41195e-42
1.59116e-42
1.89847e-42
2.34248e-42
2.62589e-42
4.68439e-42
8.56406e-42
1.57533e-41
3.05181e-41
6.12228e-41
1.08731e-40
4.10692e-40
8.0242e-39
5.01173e-38
2.49858e-37
4.56521e-36
3.06261e-34
2.25267e-32
1.51671e-30
9.34202e-29
5.2641e-27
2.71131e-25
1.27492e-23
5.46668e-22
2.13946e-20
7.78875e-19
2.72263e-17
8.22603e-16
2.10476e-14
4.0488e-13
2.82658e-12
4.86784e-12
2.35651e-11
2.37315e-11
1.60502e-11
3.3187e-13
5.91784e-15
9.71289e-17
2.07192e-18
4.74236e-20
1.19433e-21
3.67504e-23
1.04754e-24
1.27054e-25
3.95992e-27
8.47945e-29
1.73463e-30
3.27309e-32
5.64961e-34
8.96132e-36
2.57325e-37
7.12959e-38
4.14018e-38
3.62726e-39
2.60208e-39
2.80164e-39
2.22643e-39
1.51979e-39
8.74101e-40
4.02633e-40
1.56965e-40
6.51949e-41
3.59482e-41
2.3359e-41
1.51291e-41
9.78581e-42
6.68699e-42
4.767e-42
3.527e-42
2.75369e-42
2.27123e-42
2.16824e-42
3.08962e-42
1.41614e-42
6.49896e-45
1.62967e-44
8.66626e-45
7.52163e-45
7.16888e-45
7.93322e-45
9.49423e-45
1.166e-44
1.43383e-44
1.87578e-44
2.2072e-44
3.65801e-44
6.97289e-44
1.3342e-43
2.46028e-43
7.16426e-43
1.96916e-41
1.46957e-40
9.43916e-40
1.75172e-38
1.47356e-36
1.19603e-34
8.91789e-33
6.49637e-31
4.60292e-29
2.94941e-27
1.70933e-25
8.94576e-24
4.21918e-22
1.78866e-20
6.7945e-19
2.32383e-17
7.39207e-16
2.27198e-14
5.73475e-13
5.38011e-12
1.28633e-11
9.00979e-11
4.38276e-10
4.03965e-10
3.42612e-10
7.55848e-12
1.66526e-13
3.41086e-15
9.2734e-17
2.07192e-18
4.74236e-20
1.19433e-21
3.89463e-22
1.84227e-23
4.08414e-25
9.09385e-27
1.86682e-28
3.47207e-30
5.83562e-32
8.87524e-34
1.22193e-35
1.5858e-37
4.71898e-39
8.1991e-40
3.8217e-40
3.57677e-41
1.85788e-41
1.35883e-41
7.51478e-42
3.30192e-42
1.23461e-42
4.9693e-43
2.63106e-43
1.64773e-43
1.0263e-43
6.43522e-44
4.27097e-44
2.96503e-44
2.14362e-44
1.64088e-44
1.335e-44
1.2594e-44
1.7857e-44
7.93509e-45
3.90413e-47
1.00368e-46
5.39547e-47
4.76842e-47
4.65147e-47
5.32127e-47
6.67943e-47
8.76175e-47
1.17175e-46
1.57095e-46
2.05194e-46
3.30525e-46
5.97376e-46
1.11089e-45
2.22777e-44
1.60683e-43
1.76313e-42
2.56747e-41
2.65454e-39
2.70261e-37
2.72735e-35
2.57551e-33
2.15312e-31
1.51564e-29
9.74126e-28
6.51324e-26
3.97978e-24
2.16255e-22
1.04336e-20
4.45614e-19
1.67731e-17
5.55868e-16
1.69983e-14
4.53079e-13
5.52441e-12
3.15546e-11
2.13369e-10
1.65099e-09
7.76559e-09
6.77872e-09
5.86186e-09
1.44661e-10
4.01362e-12
1.02484e-13
3.41086e-15
9.2734e-17
2.64287e-18
7.64598e-19
5.00765e-20
1.58344e-21
3.80905e-23
8.48819e-25
1.71833e-26
3.08936e-28
4.94041e-30
7.03681e-32
8.9032e-34
1.09954e-35
1.60162e-37
2.31716e-39
3.52232e-41
4.69708e-42
1.7988e-42
1.52045e-43
6.4035e-44
2.93197e-44
1.05511e-44
4.09607e-45
2.08128e-45
1.25174e-45
7.50287e-46
4.55573e-46
2.93482e-46
1.98326e-46
1.40061e-46
1.05117e-46
8.42746e-47
7.85851e-47
1.10784e-46
4.77957e-47
2.50045e-49
6.58895e-49
3.58215e-49
3.21458e-49
3.20579e-49
3.77623e-49
4.93921e-49
6.84705e-49
9.79719e-49
1.35905e-48
1.94931e-48
3.1288e-48
6.17107e-48
2.01818e-46
2.02112e-45
1.76943e-44
2.19001e-42
2.86542e-40
3.41879e-38
3.71276e-36
3.66738e-34
3.29075e-32
2.72271e-30
2.31129e-28
1.69599e-26
1.02282e-24
6.25344e-23
3.62837e-21
1.83431e-19
8.07022e-18
3.10259e-16
1.10698e-14
2.57468e-13
2.4585e-12
2.45796e-11
3.62761e-10
2.78949e-08
6.83863e-08
1.0862e-07
8.95627e-08
7.89038e-08
2.35031e-09
8.30662e-11
2.48788e-12
1.02484e-13
3.66424e-15
4.34988e-16
7.70528e-17
4.32315e-18
1.06249e-19
2.55863e-21
5.67333e-23
1.09302e-24
1.83004e-26
2.65445e-28
4.16799e-30
7.08529e-32
9.86952e-34
1.20338e-35
1.33007e-37
1.33947e-39
1.24669e-41
1.42596e-43
1.25086e-44
3.64047e-45
2.6803e-46
8.9833e-47
3.60816e-47
1.76641e-47
1.01365e-47
5.85872e-48
3.44167e-48
2.15091e-48
1.41436e-48
9.75464e-49
7.1771e-49
5.66813e-49
5.22264e-49
7.31841e-49
3.06823e-49
1.69465e-51
4.57751e-51
2.52174e-51
2.29139e-51
2.33382e-51
2.82604e-51
3.83699e-51
5.58191e-51
8.46693e-51
1.21613e-50
1.80538e-50
2.82611e-50
9.65047e-49
9.16046e-48
3.47724e-46
6.92147e-44
1.16452e-41
1.72515e-39
2.27688e-37
2.70239e-35
2.93322e-33
2.90701e-31
2.5121e-29
1.94327e-27
1.51211e-25
1.28063e-23
7.96146e-22
4.52052e-20
2.26775e-18
1.00098e-16
4.05528e-15
1.14239e-13
1.37353e-12
1.55857e-11
1.85728e-10
2.44632e-09
2.64219e-07
1.37622e-06
1.1733e-06
9.16068e-07
8.19016e-07
3.1546e-08
1.49563e-09
4.71103e-11
2.48789e-12
1.16147e-13
4.44779e-14
4.30822e-15
1.45057e-16
3.82321e-18
9.16558e-20
1.88282e-21
3.25661e-23
5.72474e-25
1.00768e-26
1.58339e-28
2.22422e-30
2.81305e-32
3.21589e-34
3.3334e-36
3.14012e-38
2.69227e-40
2.10397e-42
1.54286e-44
2.82698e-46
1.53991e-47
4.23995e-48
3.14634e-49
1.56539e-49
8.71177e-50
4.84699e-50
2.75242e-50
1.66815e-50
1.06709e-50
7.18613e-51
5.18281e-51
4.032e-51
3.66868e-51
5.11044e-51
2.08315e-51
1.20712e-53
3.34261e-53
1.86542e-53
1.71674e-53
1.78487e-53
2.22135e-53
3.12221e-53
4.74597e-53
7.60228e-53
1.10093e-52
1.61685e-52
7.65576e-52
9.24208e-51
7.64059e-49
2.74544e-46
5.07563e-44
8.50431e-42
1.27896e-39
1.81123e-37
2.39195e-35
2.82788e-33
2.99737e-31
3.09772e-29
2.95228e-27
2.47373e-25
1.98858e-23
2.05938e-21
1.46843e-19
7.62565e-18
3.55731e-16
1.59768e-14
3.07174e-13
1.12979e-12
1.32379e-11
2.1051e-10
2.80236e-09
2.6874e-07
6.41563e-06
9.92902e-06
7.34807e-06
6.62155e-06
3.25421e-07
2.32714e-08
1.34678e-09
4.6843e-11
2.48597e-12
5.9071e-13
1.00596e-13
4.82863e-15
1.06325e-16
2.14342e-18
4.57873e-20
9.67217e-22
1.79988e-23
2.94698e-25
4.28635e-27
5.57255e-29
6.50882e-31
6.85925e-33
6.54457e-35
5.66894e-37
4.46642e-39
3.20432e-41
2.09315e-43
1.24947e-45
7.06164e-48
1.5417e-49
2.22758e-50
1.48663e-51
7.62838e-52
4.21117e-52
2.31352e-52
1.35921e-52
8.45689e-53
5.56062e-53
3.93111e-53
3.01208e-53
2.7065e-53
3.74682e-53
1.48543e-53
8.97947e-56
2.54932e-55
1.44081e-55
1.3434e-55
1.42652e-55
1.82291e-55
2.65085e-55
4.20153e-55
7.03452e-55
1.02389e-54
7.79455e-55
1.69079e-53
4.16507e-52
8.81298e-50
2.05827e-47
4.3679e-45
8.41542e-43
1.47342e-40
3.0757e-38
6.77279e-36
1.12652e-33
1.55896e-31
1.71676e-29
1.60406e-27
1.35507e-25
1.04388e-23
7.41511e-22
7.46114e-20
6.53317e-18
4.13514e-16
2.0384e-14
3.25848e-13
9.21927e-13
7.27276e-12
1.16721e-10
1.85956e-09
2.24473e-07
1.80062e-05
4.10232e-05
5.03326e-05
4.63979e-05
2.62056e-06
5.23581e-07
2.53117e-07
1.34312e-09
1.05353e-10
1.29056e-11
1.66281e-12
1.51834e-13
3.99863e-15
6.39746e-17
1.08509e-18
1.79433e-20
2.80789e-22
4.03648e-24
5.31523e-26
6.42018e-28
7.10309e-30
7.25113e-32
6.79975e-34
5.64101e-36
4.17652e-38
2.81224e-40
1.70215e-42
9.27407e-45
4.4857e-47
1.44486e-49
2.13174e-51
1.43029e-52
7.41841e-54
3.67636e-54
2.02573e-54
1.1559e-54
6.99431e-55
4.49045e-55
3.1121e-55
2.34828e-55
2.08353e-55
2.86665e-55
1.10548e-55
6.93374e-58
2.01858e-57
1.15524e-57
1.092e-57
1.18462e-57
1.55368e-57
2.33795e-57
3.85267e-57
6.60137e-57
9.5427e-57
3.37006e-57
2.89631e-55
1.69079e-53
4.74234e-51
1.27209e-48
3.0988e-46
6.8651e-44
1.38402e-41
2.53858e-39
4.23454e-37
6.4159e-35
8.80942e-33
1.09256e-30
1.21889e-28
1.21721e-26
1.0818e-24
8.82764e-23
1.35427e-20
4.16483e-18
4.42857e-16
2.69825e-14
2.89896e-13
3.50446e-13
2.52171e-12
4.63908e-11
8.10677e-10
9.16821e-07
0.000249958
0.000189589
0.00032385
0.00029102
1.71392e-05
2.01424e-05
1.76803e-06
1.40696e-09
1.02335e-10
1.38936e-11
3.01247e-12
4.66575e-13
2.60244e-14
5.25931e-16
8.90098e-18
1.57433e-19
2.54661e-21
3.55125e-23
4.37638e-25
4.83666e-27
4.80839e-29
4.30969e-31
3.5059e-33
2.62165e-35
1.80446e-37
1.1366e-39
6.61636e-42
3.53901e-44
1.74527e-46
7.85043e-49
3.23897e-51
1.15213e-53
2.73857e-55
3.5004e-56
1.80016e-56
1.01864e-56
6.00026e-57
3.76171e-57
2.55648e-57
1.89925e-57
1.66422e-57
2.27552e-57
8.53716e-58
5.52624e-60
1.6501e-59
9.56231e-60
9.18835e-60
1.01642e-59
1.36852e-59
2.13032e-59
3.65573e-59
6.36569e-59
5.63577e-59
3.44643e-59
3.34491e-57
3.93694e-55
1.33847e-52
4.23717e-50
1.22157e-47
3.21365e-45
7.72307e-43
1.69583e-40
3.4004e-38
6.21724e-36
1.03404e-33
1.55917e-31
2.12253e-29
2.59559e-27
2.83477e-25
2.74699e-23
2.34411e-21
7.7774e-19
5.28013e-16
3.27508e-14
2.25525e-13
2.35439e-13
3.77793e-13
3.64457e-12
9.71033e-11
8.4214e-07
0.000958031
0.00285419
0.00204735
0.00180626
0.00174979
0.000103847
9.9862e-07
1.52848e-10
2.17341e-11
4.19473e-11
1.05543e-11
9.34102e-13
4.59781e-14
1.09329e-15
1.85929e-17
3.05192e-19
4.5673e-21
6.23821e-23
7.61311e-25
8.28599e-27
8.08629e-29
7.11415e-31
5.655e-33
4.06815e-35
2.65111e-37
1.57528e-39
8.50261e-42
4.18264e-44
1.86918e-46
7.60604e-49
2.78969e-51
7.92057e-54
1.90393e-56
4.52784e-58
1.67019e-58
9.20372e-59
5.30756e-59
3.25065e-59
2.1667e-59
1.58499e-59
1.37209e-59
1.86419e-59
6.80372e-60
4.52198e-62
1.38513e-61
8.12786e-62
7.94359e-62
8.96134e-62
1.23929e-61
1.99443e-61
3.54276e-61
6.34788e-61
3.86104e-61
2.61074e-61
9.26007e-60
4.24248e-57
2.06004e-54
8.1976e-52
2.91641e-49
9.52491e-47
2.86033e-44
7.90292e-42
2.00846e-39
4.68948e-37
1.00378e-34
1.96368e-32
3.49701e-30
5.64197e-28
8.20081e-26
1.06723e-23
1.23506e-21
1.84672e-18
9.32549e-16
5.41613e-14
2.89283e-13
2.65608e-13
2.8269e-13
3.97738e-13
3.6344e-12
2.40098e-10
0.00123268
0.24733
0.14094
0.141853
0.239407
8.00554e-05
1.53024e-10
4.09096e-12
1.46502e-11
3.2161e-11
9.84958e-12
1.13648e-12
5.30877e-14
1.20396e-15
2.12775e-17
3.60676e-19
5.4585e-21
7.0803e-23
8.0552e-25
8.14845e-27
7.38523e-29
6.02025e-31
4.42879e-33
2.94697e-35
1.78081e-37
9.77329e-40
4.88385e-42
2.2206e-44
9.19748e-47
3.45919e-49
1.17862e-51
3.53936e-54
7.826e-57
2.22045e-59
1.66738e-60
8.45406e-61
4.81165e-61
2.88228e-61
1.8848e-61
1.3579e-61
1.16179e-61
1.56828e-61
5.56693e-62
3.7799e-64
1.18791e-63
7.05888e-64
7.01733e-64
8.08702e-64
1.14777e-63
1.90982e-63
3.50676e-63
6.09399e-63
2.57175e-63
2.81104e-63
1.9938e-61
9.10851e-60
4.24248e-57
2.06004e-54
9.32924e-52
3.94528e-49
1.56022e-46
5.77486e-44
2.00094e-41
6.48583e-39
1.96359e-36
5.53918e-34
1.45126e-31
3.51743e-29
7.85157e-27
1.60602e-24
2.99419e-22
3.14719e-18
1.04852e-15
7.80438e-14
6.18759e-13
9.02689e-13
4.28361e-13
3.11083e-13
4.90453e-13
5.95292e-11
0.00152219
0.475577
0.476147
0.476147
0.475479
4.11373e-05
4.10281e-12
3.39762e-12
1.33547e-11
1.83434e-11
7.12088e-12
9.73185e-13
4.61197e-14
9.72955e-16
1.66227e-17
2.71105e-19
3.90115e-21
4.84734e-23
5.26637e-25
5.04877e-27
4.29349e-29
3.26164e-31
2.22725e-33
1.37181e-35
7.64712e-38
3.86411e-40
1.77487e-42
7.41543e-45
2.81638e-47
9.7159e-50
3.04149e-52
8.66174e-55
2.16274e-57
3.47611e-60
2.12562e-62
8.04542e-63
4.43755e-63
2.60897e-63
1.67462e-63
1.18853e-63
1.0054e-63
1.34849e-63
4.65439e-64
3.21221e-66
1.03585e-65
6.23368e-66
6.30355e-66
7.43365e-66
1.08162e-65
1.86178e-65
3.52651e-65
5.52391e-65
6.93758e-65
2.73973e-65
2.13728e-64
4.78172e-62
2.42423e-59
1.42305e-56
1.08828e-53
1.10602e-50
1.38071e-47
1.76902e-44
1.0227e-41
5.71241e-39
1.81285e-33
5.11412e-31
8.91491e-29
1.22373e-26
1.46264e-24
1.62142e-22
2.05149e-20
4.05035e-18
8.40322e-16
7.92453e-14
1.17426e-12
2.39436e-12
6.96548e-13
3.11083e-13
2.75194e-13
3.14015e-11
0.00192634
0.476194
0.475698
0.475651
0.476101
0.000255332
3.3729e-12
3.3992e-12
9.50307e-12
1.11377e-11
4.53713e-12
6.57562e-13
2.86635e-14
5.61188e-16
9.30721e-18
1.44068e-19
1.94356e-21
2.26212e-23
2.29612e-25
2.05252e-27
1.62648e-29
1.14799e-31
7.25161e-34
4.1193e-36
2.11132e-38
9.81178e-41
4.13958e-43
1.58565e-45
5.50838e-48
1.7371e-50
4.96768e-53
1.2872e-55
3.04269e-58
5.87313e-61
8.85806e-64
7.8949e-65
4.14592e-65
2.39925e-65
1.51261e-65
1.05796e-65
8.85225e-66
1.17985e-65
3.95839e-66
2.7626e-68
9.14218e-68
5.57166e-68
5.73181e-68
6.91605e-68
1.03445e-67
1.83556e-67
3.61401e-67
5.84474e-67
8.20795e-67
2.92172e-67
2.06127e-66
2.13728e-64
4.78172e-62
2.42423e-59
1.42305e-56
1.08828e-53
1.10602e-50
9.20039e-48
2.0452e-44
5.72711e-38
1.99193e-34
3.50232e-31
1.02936e-28
1.90451e-26
2.6328e-24
2.9882e-22
3.00496e-20
3.56859e-18
5.44608e-16
5.27256e-14
1.07279e-12
3.9828e-12
3.58821e-12
3.78507e-13
1.86633e-13
1.36896e-12
0.00211077
0.474943
0.475202
0.475197
0.474851
0.000498838
3.40064e-12
3.3992e-12
1.01445e-11
6.56171e-12
2.49135e-12
3.71624e-13
1.43544e-14
2.56943e-16
4.13078e-18
6.10177e-20
7.75081e-22
8.44381e-24
7.98614e-26
6.62159e-28
4.85094e-30
3.16388e-32
1.84368e-34
9.63784e-37
4.53878e-39
1.92931e-41
7.42772e-44
2.59232e-46
8.20657e-49
2.3569e-51
6.13414e-54
1.44258e-56
3.05566e-59
5.91605e-62
8.6418e-65
8.47282e-67
3.9378e-67
2.23099e-67
1.38284e-67
9.53601e-68
7.89594e-68
1.04598e-67
3.40973e-68
2.39407e-70
8.13103e-70
5.01836e-70
5.2514e-70
6.48329e-70
9.97537e-70
1.82444e-69
3.75229e-69
7.06656e-69
1.12873e-68
5.41393e-69
2.1971e-68
2.06127e-66
3.70506e-64
1.70606e-61
7.74078e-59
3.79042e-56
2.20193e-53
1.46906e-50
9.204e-48
8.9478e-40
8.0804e-37
2.44527e-32
1.61727e-29
4.80332e-27
1.02799e-24
1.47112e-22
1.66495e-20
1.97142e-18
2.57422e-16
2.08598e-14
6.34854e-13
4.03024e-12
5.77848e-12
1.23801e-12
3.38907e-14
1.40537e-12
0.00184885
0.321076
0.408998
0.408449
0.318349
0.000603211
3.42547e-12
3.44348e-12
1.42747e-11
6.92308e-12
2.21871e-12
2.1205e-13
6.39153e-15
1.07591e-16
1.68076e-18
2.3284e-20
2.74188e-22
2.76014e-24
2.40224e-26
1.82259e-28
1.21638e-30
7.18507e-33
3.78121e-35
1.78452e-37
7.58566e-40
2.90351e-42
1.00534e-44
3.15845e-47
9.01301e-50
2.33609e-52
5.49443e-55
1.16968e-57
2.23914e-60
3.87512e-63
5.92388e-66
1.34577e-68
3.78109e-69
2.08862e-69
1.27417e-69
8.66772e-70
7.1059e-70
9.3581e-70
2.96276e-70
2.08188e-72
7.2573e-72
4.53582e-72
4.82716e-72
6.09704e-72
9.64623e-72
1.82023e-71
3.88121e-71
8.43766e-71
1.42003e-70
2.0741e-70
2.89496e-70
2.1971e-68
3.94619e-66
1.60115e-62
2.39222e-59
3.21949e-56
3.47484e-53
2.68324e-50
8.52596e-47
3.44179e-42
1.9332e-38
1.40464e-34
2.02156e-31
1.34837e-28
6.98757e-26
2.09689e-23
3.80154e-21
6.74575e-19
1.22336e-16
6.75958e-15
1.95812e-13
2.59722e-12
5.76489e-12
1.47449e-12
3.17967e-14
4.87319e-08
0.000942702
0.000383959
0.0202477
0.0199047
7.99753e-05
0.000602263
3.57375e-12
3.6683e-12
3.09136e-11
1.15463e-11
2.16977e-12
1.14702e-13
2.42973e-15
3.99485e-17
5.93365e-19
7.4711e-21
7.91441e-23
7.15043e-25
5.57512e-27
3.78552e-29
2.25987e-31
1.19265e-33
5.59682e-36
2.3548e-38
8.95478e-41
3.08093e-43
9.61031e-46
2.71692e-48
6.99749e-51
1.6413e-53
3.50462e-56
6.78084e-59
1.18083e-61
1.84954e-64
2.60994e-67
3.57566e-70
3.65248e-71
1.96248e-71
1.17854e-71
7.91369e-72
6.42706e-72
8.41682e-72
2.58679e-72
1.81207e-74
6.46933e-74
4.10037e-74
4.43353e-74
5.72841e-74
9.31274e-74
1.81266e-73
3.98988e-73
9.12841e-73
1.67971e-72
4.00824e-72
5.30154e-71
2.96784e-68
4.26743e-65
3.20382e-62
1.68746e-59
9.23124e-57
6.66393e-54
1.52367e-49
3.8241e-46
6.77505e-43
2.06592e-39
2.0397e-36
1.45171e-33
1.00066e-30
8.27661e-28
8.51661e-25
4.66131e-22
1.464e-19
6.57695e-17
2.75432e-15
3.22158e-14
7.03005e-13
3.24848e-12
9.4428e-13
6.55794e-15
3.42272e-08
0.000150969
1.57313e-08
3.39415e-14
2.8818e-14
4.29393e-08
0.000272396
3.99986e-12
3.69245e-12
3.7704e-11
1.74946e-11
1.87136e-12
5.40882e-14
9.25621e-16
1.43745e-17
1.96919e-19
2.28448e-21
2.23367e-23
1.86671e-25
1.34886e-27
8.51583e-30
4.73081e-32
2.32508e-34
1.01761e-36
3.98524e-39
1.4032e-41