/*--------------------------------*- C++ -*----------------------------------*\
| =========                 |                                                 |
| \\      /  F ield         | OpenFOAM: The Open Source CFD Toolbox           |
|  \\    /   O peration     | Version:  2412                                  |
|   \\  /    A nd           | Website:  www.openfoam.com                      |
|    \\/     M anipulation  |                                                 |
\*---------------------------------------------------------------------------*/
FoamFile
{
    version     2.0;
    format      ascii;
    arch        "LSB;label=32;scalar=64";
    class       volScalarField;
    location    "1.8";
    object      alpha.gasoline;
}
// * * * * * * * * * * * * * * * * * * * * * * * * * * * * * * * * * * * * * //

dimensions      [0 0 0 0 0 0 0];

internalField   nonuniform List<scalar> 
6400
(
1
1
1
0.999999
0.999999
0.999999
1
1
1
1
1
1
1
1
1
1
1
1
1
1
1
1
1
1
1
1
1
1
1
1
1
1
1
1
1
1
1
1
1
1
1
1
1
1
1
1
1
1
1
1
1
1
1
1
1
1
1
1
1
1
1
1
1
1
1
1
1
1
1
1
0.999999
1
1
1
1
1
1
1
0.999999
0.999999
0.999994
0.999999
1
1
0.999999
0.999999
0.999999
0.999999
1
1
1
1
1
1
1
1
1
1
1
1
1
1
1
1
1
1
1
1
1
1
1
1
1
1
1
1
1
1
1
1
1
1
1
1
1
1
1
1
1
1
1
1
1
1
1
1
1
1
1
1
1
1
1
1
1
1
1
1
0.999999
0.999999
0.999999
1
1
0.999999
0.999999
1
0.999999
0.999999
1
0.999999
1
0.999999
0.999999
0.999999
1
1
1
1
1
1
1
1
1
1
1
1
1
1
1
1
1
1
1
1
1
1
1
1
1
1
1
1
1
1
1
1
1
1
1
1
1
1
1
1
1
1
1
1
1
1
1
1
1
1
1
1
1
1
1
1
1
1
1
1
1
0.999999
0.999999
0.999999
0.999999
1
1
1
1
1
0.999999
0.999998
0.999998
0.999999
0.999999
1
1
0.999999
0.999999
0.999999
1
1
1
1
1
1
1
1
1
1
0.999999
0.999999
1
1
1
1
1
1
1
1
1
1
1
1
1
1
1
1
1
1
1
1
1
1
1
1
1
1
1
1
1
1
1
1
1
1
1
1
1
1
1
1
1
1
1
1
1
1
1
0.999999
0.999999
0.999999
0.999999
1
1
1
0.999999
1
0.999999
0.999999
0.999999
1
1
1
1
1
1
1
1
1
1
1
1
1
1
1
1
1
0.999999
0.999999
0.999999
1
1
1
1
1
1
1
1
1
1
1
1
1
1
1
1
1
1
1
1
1
1
1
1
1
1
1
1
1
1
1
1
1
1
1
1
1
1
1
1
1
1
1
1
1
1
1
1
1
0.999999
1
1
1
0.999999
0.999999
1
0.999999
1
1
1
1
1
1
1
1
1
1
1
1
1
1
1
1
1
1
1
0.999999
0.999999
0.999999
0.999999
1
1
1
1
1
1
1
1
1
1
1
1
1
1
1
1
1
1
1
1
1
1
1
1
1
1
1
1
1
1
1
1
1
1
1
1
1
1
1
1
1
1
1
1
1
1
1
1
1
1
1
1
1
1
1
1
1
1
1
1
1
1
1
1
1
1
1
1
1
1
1
1
1
1
1
1
0.999999
0.999999
0.999999
1
1
1
1
1
1
1
1
1
1
1
1
1
1
1
1
1
1
1
1
1
1
1
1
1
1
1
1
1
1
1
1
1
1
1
1
1
1
1
1
1
1
1
1
1
1
1
1
1
1
1
1
1
1
1
1
1
1
1
1
1
1
1
1
1
1
1
1
1
1
1
1
1
1
1
1
1
0.999999
0.999999
1
1
1
1
1
1
1
1
1
1
1
1
1
1
1
1
1
1
1
1
1
1
1
1
1
1
1
1
1
1
1
1
1
1
1
1
1
1
1
1
1
1
1
1
1
1
1
1
1
1
1
1
1
1
1
1
1
1
1
1
1
1
1
1
1
1
1
1
1
1
1
1
1
1
1
1
1
1
0.999999
1
1
1
1
1
1
1
1
1
1
1
1
1
1
1
1
1
1
1
1
1
1
1
1
1
1
1
1
1
1
1
1
1
1
1
1
1
1
1
1
1
1
1
1
1
1
1
1
1
1
1
1
1
1
1
1
1
1
1
1
1
1
1
1
1
1
1
1
1
1
1
1
1
1
1
1
1
1
1
1
1
1
1
1
1
1
1
1
1
1
1
1
1
1
1
1
1
1
1
1
1
1
1
1
1
1
1
1
1
1
1
1
1
1
1
1
1
1
1
1
1
1
1
1
1
1
1
1
1
1
1
1
1
1
1
1
1
1
1
1
1
1
1
1
1
1
1
1
1
1
1
1
1
1
1
1
1
1
1
1
1
1
1
1
1
1
1
1
1
1
1
1
1
1
1
1
1
1
1
1
1
1
1
1
1
1
1
1
1
1
1
1
1
1
1
1
1
1
1
1
1
1
1
1
1
1
1
1
1
1
1
1
1
1
1
1
1
1
1
1
1
1
1
1
1
1
1
1
1
1
1
1
1
1
1
1
1
1
1
1
1
1
1
1
1
1
1
1
1
1
1
1
1
1
1
1
1
1
1
1
1
1
1
1
1
1
1
1
1
1
1
1
1
1
1
1
1
1
1
1
1
1
1
1
1
1
1
1
1
1
1
1
1
1
1
1
1
1
1
1
1
1
1
1
1
1
1
1
1
1
1
1
1
1
1
1
1
1
1
1
1
1
1
1
1
1
1
1
1
1
1
1
1
1
1
1
1
1
1
1
1
1
1
1
1
1
1
1
1
1
1
1
1
1
1
1
1
1
1
1
1
1
1
1
1
1
1
1
1
1
1
1
1
1
1
1
1
1
1
1
1
1
1
1
1
1
1
1
1
1
1
1
1
1
1
1
1
1
1
1
1
1
1
1
1
1
1
1
1
1
1
1
1
1
1
1
1
1
1
1
1
1
1
1
1
1
1
1
1
1
1
1
1
1
1
1
1
1
1
1
1
1
1
1
1
1
1
1
1
1
1
1
1
1
1
1
1
1
1
1
1
1
1
1
1
1
1
1
1
1
1
1
1
1
1
1
1
1
1
1
1
1
1
1
1
1
1
1
1
1
1
1
1
1
1
1
1
1
1
1
1
1
1
1
1
1
1
1
1
1
1
1
1
0.999999
0.999999
1
1
1
1
1
1
1
1
1
1
1
1
1
1
1
1
1
1
1
1
1
1
1
1
1
1
1
1
1
1
1
1
1
1
1
1
1
1
1
1
1
1
1
1
1
1
1
1
1
1
1
1
1
1
0.999999
0.999999
1
1
1
1
1
1
1
1
1
1
1
1
1
1
1
1
1
1
1
1
1
1
1
1
1
1
1
1
1
1
1
1
1
1
1
1
1
1
1
1
1
1
1
1
1
1
1
1
1
1
1
1
1
1
1
1
1
0.999997
0.999998
0.999999
0.999999
0.999999
0.999999
1
1
1
1
1
1
1
1
1
1
1
1
1
1
1
1
1
1
1
1
1
1
1
1
1
1
1
1
1
1
1
1
1
1
1
1
1
1
1
1
1
1
1
1
1
1
1
1
1
1
1
1
1
1
1
1
1
1
1
1
1
1
1
1
1
1
1
1
1
0.999999
0.999999
0.999999
0.999998
0.999997
0.999941
0.99997
0.999984
0.999986
0.999985
0.999985
0.999987
0.999988
0.999989
0.99999
0.999991
0.999993
0.999997
0.999999
1
1
1
1
1
1
1
1
1
1
1
1
1
1
1
1
1
1
1
1
1
1
0.999998
0.999995
0.999991
0.999987
0.999987
0.999991
0.999995
0.999998
0.999999
1
1
1
1
1
1
1
1
1
1
1
1
1
1
1
1
1
1
1
1
1
0.999999
0.999997
0.999994
0.999993
0.999991
0.99999
0.999989
0.999988
0.999987
0.999986
0.999986
0.999985
0.999971
0.999946
0.996768
0.999488
0.999696
0.999696
0.999661
0.999638
0.998927
0.994482
0.986955
0.977263
0.965105
0.949391
0.930494
0.912896
0.902725
0.904732
0.917359
0.939921
0.96706
0.988212
1
1
1
1
0.998535
0.97779
0.977891
0.997873
1
1
0.999942
0.99799
0.997792
0.999801
0.999996
0.999965
0.999891
0.999778
0.999497
0.998785
0.998573
0.998744
0.999597
0.999871
0.999957
0.999993
0.999099
0.998004
0.999797
1
1
1
1
0.982331
0.95999
0.971853
1
1
1
1
0.9853
0.96552
0.941141
0.920535
0.909777
0.910165
0.921507
0.938529
0.956298
0.970731
0.981357
0.989394
0.995514
0.999158
0.999658
0.999674
0.999704
0.999702
0.999504
0.9981
0.670486
0.83038
0.850215
0.807212
0.740072
0.661288
0.564702
0.481641
0.418039
0.366863
0.319875
0.273027
0.22314
0.179051
0.162765
0.178267
0.218573
0.293729
0.438656
0.635049
0.733756
0.726398
0.720684
0.770936
0.999038
0.99799
0.99516
0.999461
1
1
0.999997
0.999961
0.999533
0.937499
0.829363
0.75318
0.689668
0.633153
0.588212
0.563037
0.551406
0.554002
0.575768
0.621492
0.684306
0.746774
0.84232
0.997797
0.999884
0.999994
1
1
1
0.996163
0.992333
0.997864
0.85597
0.694892
0.697455
0.720016
0.664475
0.473943
0.30311
0.225807
0.19524
0.187099
0.201433
0.240679
0.290684
0.338985
0.386145
0.435085
0.494198
0.571621
0.661148
0.736036
0.801425
0.845098
0.823704
0.694071
0.322777
0.166425
0.131776
0.0896772
0.0431555
0.00602688
1.29096e-08
1.55362e-08
3.48276e-08
4.80277e-07
1.3056e-05
0.000154151
0.00499937
0.00667157
0.00523648
0.00559661
0.010257
0.0138662
0.0306039
0.210413
0.633396
0.874428
0.930837
0.968705
0.998958
0.999732
0.999826
0.999913
1
0.999997
0.999961
0.702945
0.302395
0.125166
0.0685805
0.031652
0.00775567
3.73267e-08
9.012e-09
7.49345e-09
6.40489e-09
7.49345e-09
1.11651e-08
8.79278e-08
0.00631042
0.0286441
0.0688654
0.179349
0.499135
0.947638
0.999992
0.999999
1
0.999915
0.999804
0.999702
0.97887
0.935289
0.889424
0.70895
0.302282
0.0434616
0.0191184
0.0142546
0.00995835
0.00597635
0.00645843
0.00580314
0.000641319
1.8843e-05
7.70675e-07
6.06759e-08
2.7456e-08
1.78757e-08
0.0071323
0.0422809
0.0847121
0.12714
0.15559
0.342762
0.27504
0.000173562
-3.56071e-40
1.0842e-21
-4.2593e-09
-1.48985e-17
4.88961e-09
3.19375e-08
3.97658e-07
2.63262e-06
1.44838e-05
9.88863e-05
0.00018691
0.000362295
0.000831887
0.00420592
0.0064584
0.00774958
0.0322174
0.0651412
0.0807901
0.0856468
0.129547
0.377284
0.651728
0.81101
0.858388
0.862794
0.704575
0.480053
0.220672
0.0485411
0.000607997
1.34473e-07
1.34473e-07
9.96446e-08
3.96801e-08
1.15599e-08
7.78615e-09
6.77367e-09
6.01821e-09
6.40489e-09
1.21499e-08
4.37782e-08
5.51384e-08
5.5293e-08
5.5293e-08
0.00012928
0.00960142
0.154539
0.399085
0.640059
0.805336
0.880036
0.851931
0.709565
0.4254
0.129309
0.0479199
0.0572679
0.0501357
0.037043
0.0174574
0.0108764
0.00709681
0.00177782
0.000479749
0.000251605
0.000134317
1.75538e-05
2.83785e-06
3.95233e-07
4.59087e-08
3.89193e-09
-1.82603e-17
-6.75785e-09
5.42101e-22
4.11257e-06
0.000942119
0.27832
0.176222
0.01584
-2.62134e-08
-8.04596e-09
-1.00703e-12
3.34457e-09
2.07557e-08
9.81016e-08
4.35167e-07
1.96678e-06
1.23668e-05
4.04299e-05
8.41194e-05
0.000231846
0.00110843
0.00132802
0.000482274
0.000183127
0.000251094
9.66808e-05
4.97502e-05
5.97512e-05
8.01563e-05
0.000113645
0.000141481
0.000171647
0.0455011
0.068327
0.036795
0.00486791
0.000239415
0.000138317
3.96914e-05
1.69637e-07
1.34473e-07
1.86792e-06
2.32926e-06
5.64233e-08
9.97825e-09
9.3079e-09
5.52637e-09
5.73741e-09
3.02377e-06
1.06231e-06
5.94197e-08
5.51384e-08
5.94197e-08
1.64369e-07
0.000166763
0.00037013
0.00106778
0.0242529
0.0727102
0.0628982
0.00318446
3.63108e-05
1.75986e-05
1.06007e-05
7.8308e-06
7.72674e-06
8.58592e-06
8.43297e-05
6.19323e-05
3.76717e-05
0.000170915
0.000539087
0.000524197
0.000174952
5.02209e-05
1.55769e-05
2.19937e-06
4.56884e-07
9.70679e-08
2.00034e-08
3.22961e-09
5.29396e-25
-1.00495e-08
0
0.0215361
0.114986
8.98704e-05
0.0063618
-1.27252e-08
-4.54532e-09
-1.70266e-14
7.61814e-10
4.77477e-09
2.73701e-08
1.46689e-07
8.02371e-07
4.14023e-06
1.34718e-05
3.57892e-05
0.000235859
0.00100163
0.000973853
9.1075e-05
7.90225e-05
7.66484e-05
6.11113e-05
3.13054e-05
6.1005e-05
8.67235e-05
0.000102015
0.000116329
0.000160935
0.000171652
0.000200411
0.000254809
0.000105276
4.84766e-05
1.69757e-05
1.37139e-06
5.20174e-07
2.0597e-06
7.64517e-06
7.61971e-06
4.36902e-06
2.40175e-07
1.13447e-08
3.94605e-09
3.74911e-07
4.84463e-06
4.75933e-06
4.18013e-07
5.94197e-08
7.87901e-08
0.000161566
0.000183993
0.000278894
0.000437676
0.000377374
0.000176509
8.2566e-05
3.55534e-05
1.30505e-05
8.29297e-06
7.0077e-06
6.86195e-06
7.06103e-06
8.25604e-06
8.26174e-06
7.21056e-06
7.27249e-06
4.57973e-05
0.000251197
0.000205291
4.85903e-05
1.71417e-05
8.6068e-06
1.33562e-06
1.98718e-07
3.64922e-08
6.11277e-09
8.60482e-10
0
-6.67218e-09
1.03386e-05
0.00132459
6.87478e-06
4.07135e-05
0.00160479
-6.71726e-09
-1.85985e-09
-1.33563e-16
4.99628e-10
2.09367e-09
9.96198e-09
5.21358e-08
2.55188e-07
1.21529e-06
5.06126e-06
1.46912e-05
9.69263e-05
0.00065973
0.000965676
0.000900928
0.000509413
8.03532e-05
1.69524e-05
1.12737e-05
0.000109668
0.000230182
0.000229392
0.000198487
0.000200244
0.000250846
0.00027042
0.000211486
0.00013225
4.90645e-05
1.63271e-05
1.13079e-06
6.09488e-07
6.09549e-07
4.92826e-06
7.64924e-06
7.47522e-06
8.23988e-07
3.3319e-09
3.79683e-09
6.4424e-07
4.8462e-06
4.8372e-06
1.39476e-06
7.87901e-08
1.41875e-05
8.85418e-05
0.000260019
0.000692856
0.000864857
0.000854454
0.00069326
0.000247274
4.14675e-05
2.67631e-06
3.84485e-06
4.72671e-06
6.04235e-06
7.01585e-06
7.41858e-06
7.40703e-06
7.18476e-06
7.18696e-06
1.01341e-05
1.24918e-05
2.77225e-05
1.47266e-05
5.46239e-06
2.01728e-06
4.70707e-07
8.40409e-08
1.52672e-08
2.51172e-09
3.31047e-10
0
-3.46655e-09
8.43915e-07
9.12311e-07
5.74303e-06
3.52747e-05
-9.00925e-21
-3.03331e-09
-5.47856e-10
-2.52435e-28
8.72138e-11
7.04293e-10
3.7453e-09
1.82971e-08
8.64222e-08
4.2369e-07
1.79998e-06
6.41911e-06
2.41551e-05
0.000155027
0.000641236
0.000820412
0.000776365
0.000322874
1.12737e-05
1.00728e-05
9.61588e-06
8.96579e-06
6.85143e-06
4.47019e-06
7.2216e-06
5.71274e-05
0.000168008
0.000206492
0.000204691
0.000206219
0.000156362
2.55285e-06
9.38844e-07
7.57288e-07
3.59261e-08
3.73072e-06
3.23398e-06
3.77277e-07
2.39955e-09
3.14515e-09
6.55064e-07
4.13275e-06
1.55886e-06
1.7026e-06
1.40982e-07
1.13967e-09
1.53489e-09
4.74873e-08
1.0354e-07
1.55338e-07
1.69921e-07
1.96211e-07
2.37865e-07
6.00083e-07
1.70376e-06
2.99487e-06
4.33507e-06
4.72669e-06
6.64808e-06
7.02648e-06
7.18476e-06
7.18476e-06
7.18476e-06
7.18696e-06
5.03874e-05
6.03814e-05
5.80836e-06
2.08846e-06
6.06539e-07
1.57493e-07
4.01468e-08
9.73802e-09
3.80874e-09
1.2221e-09
0
-7.23825e-10
-5.16988e-24
1.32248e-07
6.89149e-06
2.38832e-05
6.61744e-23
-1.65881e-11
0
1.73059e-10
5.08125e-10
8.25103e-10
1.83596e-09
6.67224e-09
2.77607e-08
1.32472e-07
5.95699e-07
2.04692e-06
6.3019e-06
1.47565e-05
0.000124465
0.000699982
0.000771168
0.000766248
0.000179808
1.10008e-05
9.12185e-06
7.55204e-06
4.47019e-06
3.2904e-06
6.56366e-06
1.3296e-05
1.38637e-05
1.9923e-05
7.13366e-05
3.48816e-05
6.51629e-06
6.37117e-06
4.86783e-06
1.01926e-06
1.13141e-09
5.6136e-10
7.16299e-10
9.03346e-10
2.21481e-09
3.68944e-09
1.67463e-07
2.39862e-10
2.30124e-10
2.24593e-10
2.30124e-10
4.61991e-10
1.93441e-09
7.82387e-08
1.77191e-07
1.78334e-07
1.90838e-07
1.90837e-07
2.54633e-07
2.14893e-06
2.99012e-06
3.85593e-06
8.7782e-06
4.77641e-05
0.000126549
5.36034e-05
7.201e-06
7.18476e-06
7.18696e-06
1.34764e-05
0.000319039
0.000410714
0.000304393
8.45111e-05
2.05755e-06
5.37675e-07
1.54198e-07
2.70011e-08
9.69768e-09
5.32312e-08
2.28775e-08
5.74115e-25
2.55595e-09
1.89666e-08
3.09973e-06
1.3015e-06
1.87593e-07
2.19485e-07
6.25222e-07
6.59944e-07
2.32521e-07
1.48541e-09
1.90414e-09
3.12176e-09
8.18105e-09
3.15109e-08
1.35762e-07
4.79295e-07
1.43137e-06
4.81168e-06
4.24693e-05
0.00057187
0.000772701
0.000772482
0.000766248
0.000676635
0.000145156
1.97672e-05
2.13186e-05
2.43442e-06
5.84967e-06
2.04989e-05
2.59271e-05
2.67725e-05
1.28233e-05
1.19065e-05
1.05576e-05
7.35956e-06
1.18618e-08
8.83709e-10
3.09844e-10
4.94468e-10
6.15984e-10
7.87823e-10
3.14057e-09
4.19519e-09
1.44788e-09
2.47124e-10
2.07357e-10
1.79349e-10
2.07357e-10
4.59025e-09
2.1855e-07
5.86538e-07
5.868e-07
4.51088e-07
1.57361e-07
1.92423e-07
3.50804e-05
0.000114748
8.80498e-05
7.44093e-05
0.000188006
0.000205737
0.000194177
4.28385e-05
1.06401e-05
2.43589e-05
0.000146019
0.000374479
0.000417409
0.000416339
0.000415158
0.000403702
0.000133096
2.41225e-06
4.85834e-07
1.00732e-07
2.70992e-08
4.84835e-08
3.04557e-07
3.73611e-07
3.57242e-08
4.94704e-08
7.5345e-08
3.85844e-07
2.93723e-07
2.48239e-07
3.03931e-07
4.51712e-07
1.10343e-06
2.46162e-09
1.73935e-09
1.92346e-09
2.69619e-09
6.16331e-09
2.62428e-08
1.03659e-07
3.73587e-07
9.48776e-06
0.000244764
0.000772874
0.000772482
0.000772793
0.000767847
0.000566326
0.000460481
0.000201601
3.83609e-05
6.48285e-07
2.78116e-09
9.63019e-07
1.44416e-05
3.03915e-05
3.12225e-05
2.09343e-05
2.13463e-05
8.19655e-06
1.40664e-09
6.02764e-11
7.57487e-12
4.63621e-10
1.69234e-09
1.43327e-09
4.49594e-09
4.87947e-09
6.11776e-08
4.9879e-10
1.63906e-10
1.19506e-10
7.92634e-10
1.93832e-08
2.05852e-07
2.84597e-07
9.08691e-08
7.65139e-09
8.83272e-09
1.73855e-06
0.000105818
0.000196389
0.000202004
0.000204981
0.00020594
0.000206918
0.000206649
9.90691e-05
0.000320741
0.00040204
0.000417287
0.000418573
0.000418902
0.00041762
0.000416339
0.000366316
7.5602e-05
1.81878e-06
3.91537e-07
1.11182e-07
5.31706e-08
5.71976e-08
3.91334e-07
5.32162e-07
3.8357e-07
7.64919e-08
8.67857e-08
4.58302e-07
4.09741e-07
2.9365e-07
3.50316e-07
3.87026e-06
5.11891e-09
1.6778e-09
1.65877e-09
1.66372e-09
1.64364e-09
1.82775e-09
5.43419e-09
2.39484e-08
8.73861e-08
1.72357e-05
0.000225256
0.000526088
0.000764993
0.000670194
0.000293644
5.53289e-05
4.33108e-07
7.36925e-08
1.1916e-08
2.78116e-09
1.26621e-09
9.70565e-10
1.04552e-09
4.39818e-06
1.02778e-06
2.52126e-06
7.72744e-07
5.84305e-12
4.96351e-12
5.22245e-12
5.59418e-12
4.306e-10
2.08863e-09
2.08418e-09
5.07023e-09
4.83206e-09
6.02605e-07
2.46338e-07
7.03704e-11
8.42841e-12
4.12355e-09
1.15744e-08
7.133e-12
7.54813e-12
7.99044e-12
1.32457e-11
9.51117e-11
1.14559e-09
5.16753e-05
0.000124188
0.00012499
0.000133004
0.000186502
0.000125496
2.78818e-05
8.18268e-05
0.000415712
0.000417287
0.000418573
0.000418751
0.000418573
0.000391001
0.000218433
5.01338e-05
9.18923e-06
1.28525e-06
1.3996e-07
8.16968e-08
6.27852e-08
5.73272e-08
5.73272e-08
2.49626e-07
2.94301e-07
9.26545e-08
1.24799e-07
5.62326e-07
4.58291e-07
1.09231e-05
3.40508e-05
1.51728e-05
1.6778e-09
1.64763e-09
1.60284e-09
1.6357e-09
1.4469e-09
1.20054e-09
1.3281e-09
4.18402e-09
3.96798e-07
1.36359e-05
5.00731e-05
2.80597e-05
6.61046e-05
4.80454e-05
1.35996e-05
1.15033e-06
1.76491e-08
2.92264e-09
4.81461e-10
1.37015e-09
3.9559e-09
3.79758e-09
1.1959e-09
1.3887e-11
6.44767e-12
5.86886e-12
5.84305e-12
5.84305e-12
5.76508e-12
5.59283e-12
5.59429e-12
1.46784e-10
1.21753e-09
1.75631e-08
6.83333e-09
1.82129e-07
6.53675e-07
6.34624e-07
6.35207e-08
7.6561e-12
6.79604e-12
6.61892e-12
6.79608e-12
7.133e-12
7.54595e-12
7.85189e-12
8.20073e-12
9.28559e-12
-8.44084e-12
2.99716e-11
1.33552e-10
7.09374e-10
4.50256e-09
3.0882e-08
2.12208e-07
1.57169e-05
0.000176533
0.000324442
0.000328783
0.000233835
0.000148521
3.87981e-05
2.4653e-06
3.81678e-07
1.36021e-07
1.01685e-07
5.69432e-08
7.40581e-08
4.03256e-07
6.49091e-08
6.77325e-08
7.85871e-08
1.35092e-07
1.96565e-07
1.76047e-07
7.14544e-07
1.04907e-06
9.24653e-05
0.000502108
6.08962e-05
1.64763e-09
1.51073e-09
1.29271e-09
1.23497e-09
1.20054e-09
1.09372e-09
8.16579e-10
7.6206e-10
1.68178e-07
1.05471e-06
2.18279e-07
2.30629e-07
1.78883e-07
5.7983e-08
1.81934e-07
7.01314e-08
3.3724e-10
5.84577e-11
2.82166e-11
1.22139e-09
6.0128e-09
6.51625e-09
3.01264e-09
4.9596e-11
6.89981e-12
5.92939e-12
5.86123e-12
5.84458e-12
6.94333e-12
7.85067e-12
5.70057e-12
4.67693e-12
1.31618e-09
4.89386e-08
9.49879e-09
6.41209e-06
4.05569e-07
6.19804e-07
3.63076e-07
8.46362e-12
8.09959e-12
6.51309e-12
8.84901e-12
8.56642e-12
7.67383e-12
7.73605e-12
8.02803e-12
8.82534e-12
9.29722e-12
1.32339e-11
3.00269e-11
3.37716e-11
3.37792e-11
2.2591e-10
9.44047e-08
1.41844e-06
2.85444e-06
9.88223e-06
1.02663e-05
1.52034e-06
3.22671e-07
1.25059e-07
4.42163e-08
2.22693e-08
3.03202e-08
4.61381e-08
5.18397e-08
5.18397e-08
5.2284e-08
6.47225e-08
7.8134e-08
8.9648e-08
5.14626e-07
2.237e-07
2.31737e-07
1.25909e-06
1.67788e-05
0.000442341
0.000662482
0.000615598
8.40429e-05
1.64763e-09
7.64346e-08
1.29271e-09
1.00302e-09
8.16495e-10
6.97807e-10
4.33136e-10
2.05289e-09
1.27757e-09
7.27048e-09
6.80751e-09
3.71657e-09
7.3553e-10
5.19973e-09
8.94796e-10
-1.40898e-11
9.61778e-12
1.81518e-11
1.99987e-11
1.91721e-11
4.13432e-11
3.95424e-11
3.97107e-11
2.93909e-11
1.1476e-11
5.86594e-12
6.33157e-12
8.26371e-12
8.43733e-12
5.24502e-12
4.25887e-12
2.45974e-08
4.89865e-08
4.86921e-09
9.21512e-06
1.44684e-08
2.92465e-07
3.61723e-07
2.95913e-11
8.84897e-11
6.1394e-12
8.64021e-12
7.28341e-12
7.64786e-12
8.68221e-12
9.54372e-12
1.75037e-11
3.45959e-11
3.92699e-11
3.80953e-11
2.48766e-11
6.56679e-13
-4.05755e-13
2.49044e-10
1.41554e-11
9.41431e-09
1.2311e-09
6.13587e-09
7.30047e-09
4.75336e-09
1.57171e-09
9.54597e-10
7.85017e-09
2.15153e-08
3.0348e-08
4.61379e-08
5.18396e-08
6.45843e-08
0.000217291
0.000637174
0.00018224
1.07395e-06
3.10632e-07
2.60012e-07
1.98802e-06
1.77051e-05
0.000572838
0.000669135
0.000704371
0.000752658
0.000563021
6.69318e-05
3.64971e-06
9.3887e-08
4.5567e-09
4.00527e-10
3.63324e-10
2.38245e-10
7.02688e-11
-5.63327e-11
4.05981e-11
4.82868e-12
1.67323e-10
1.22881e-11
6.34053e-12
3.09495e-12
8.56561e-12
2.28353e-11
2.50773e-11
1.90594e-11
2.47528e-11
4.25394e-11
4.35006e-11
3.16112e-11
1.06146e-11
3.80832e-12
4.36551e-12
6.22348e-12
7.13869e-12
4.12959e-12
4.02718e-12
4.80913e-08
4.90061e-08
4.3674e-09
9.21512e-06
3.48684e-10
3.06607e-10
1.18391e-07
4.88833e-11
4.93051e-10
1.42261e-12
4.70223e-12
2.75317e-12
4.06172e-12
7.81312e-12
1.0527e-11
2.01252e-11
5.22768e-11
7.4497e-11
7.23368e-11
2.83406e-11
7.10269e-13
7.28696e-13
8.95245e-13
7.26711e-13
8.27623e-13
7.49721e-11
2.01474e-12
-7.1462e-12
1.05669e-11
3.33872e-10
7.61969e-10
9.11923e-10
6.6275e-09
1.06494e-07
6.27205e-06
0.000115674
0.000631751
0.000729964
0.000696696
0.00066512
5.07449e-05
3.96833e-07
3.82002e-07
2.39275e-06
5.76056e-06
0.000180347
0.000377217
0.000543938
0.00076571
0.000775665
0.000785619
0.000486166
2.37342e-06
8.81059e-08
3.18905e-09
1.9921e-10
7.2038e-11
6.39241e-11
4.85378e-11
9.05914e-12
1.11777e-12
6.71745e-13
5.09072e-13
1.50568e-12
3.12515e-12
4.02858e-12
5.00294e-12
5.23494e-12
4.34778e-12
3.74281e-12
5.43271e-12
5.45223e-12
2.5525e-12
1.18907e-12
1.16401e-12
1.4615e-12
3.03555e-12
4.28072e-12
3.80156e-12
3.84312e-12
4.6493e-08
4.64755e-08
3.84634e-09
8.91385e-06
2.89448e-10
2.95347e-10
3.06607e-10
9.83616e-10
1.06519e-09
3.71328e-13
1.48527e-12
9.08324e-13
8.00106e-13
1.82653e-12
2.80028e-12
3.28762e-12
3.66799e-12
4.93526e-12
3.89191e-12
9.53591e-13
7.08322e-13
7.67077e-13
1.09604e-12
7.18057e-13
7.26711e-13
8.58277e-13
1.14592e-12
1.89487e-12
9.0009e-13
3.34114e-11
2.32556e-10
4.19773e-09
1.06236e-07
1.89673e-05
0.000571429
0.000741524
0.000735784
0.000729964
0.000729964
0.000527745
3.89598e-05
9.96178e-07
3.96833e-07
1.05663e-05
9.18942e-06
1.14389e-05
3.41982e-05
7.86931e-05
0.000260012
0.000778693
0.000785619
0.000785619
0.000543984
9.22696e-07
9.54567e-08
6.44412e-09
2.65678e-10
4.03393e-11
1.13342e-11
6.24969e-12
2.71528e-12
9.91817e-13
3.64248e-13
3.32292e-13
5.05751e-13
6.38079e-13
6.50618e-13
5.99571e-13
4.76191e-13
4.06876e-13
4.22005e-13
4.14636e-13
3.60759e-13
2.60883e-13
2.95012e-13
6.19896e-13
1.8363e-12
3.72282e-12
3.71576e-12
3.78904e-12
2.38374e-08
7.44879e-09
3.84634e-09
9.38395e-06
2.88073e-10
3.20743e-10
3.91217e-10
1.41727e-09
1.23406e-09
3.57151e-13
8.60842e-13
3.26756e-13
1.03104e-13
8.66983e-14
1.90925e-13
3.16125e-13
3.7361e-13
3.46218e-13
1.52276e-13
7.05788e-14
6.15987e-14
1.32544e-13
3.17585e-13
7.01267e-13
1.93089e-12
6.49042e-12
2.00818e-11
3.72521e-11
4.07334e-11
4.14036e-10
1.31219e-08
8.52856e-08
1.1054e-06
0.00068865
0.000741595
0.000741524
0.000684055
0.000347202
0.000198207
5.63168e-05
9.68026e-06
5.61072e-07
4.36893e-07
7.4585e-05
2.34817e-05
2.27427e-05
3.67456e-05
4.62543e-05
5.40785e-05
7.8077e-05
0.000606869
0.000775398
0.000765019
0.000295796
6.17739e-06
6.00848e-08
3.06126e-09
3.84847e-10
4.85967e-11
2.76805e-11
9.53105e-12
1.89855e-12
3.2857e-13
7.16791e-14
2.92745e-14
2.23515e-14
2.24229e-14
2.36604e-14
2.57357e-14
3.32391e-14
4.47022e-14
4.27467e-14
3.20351e-14
4.01149e-14
1.20983e-13
4.97079e-13
1.74083e-12
3.68997e-12
4.45808e-12
2.44865e-10
1.29799e-11
1.41074e-11
5.16327e-09
9.39984e-06
2.88616e-10
5.2036e-10
5.5354e-10
1.12868e-09
7.66779e-10
3.4833e-13
5.01177e-13
1.7797e-13
3.22779e-14
1.08859e-14
9.26832e-15
1.47965e-14
1.79448e-14
1.74848e-14
7.8604e-15
3.55208e-15
4.11243e-15
2.10437e-14
1.21661e-13
7.07035e-13
4.06176e-12
1.77779e-11
4.69434e-11
9.29054e-11
5.33324e-10
3.67642e-09
9.92562e-08
1.12324e-05
0.000346564
0.000729927
0.000737111
0.000468457
6.42965e-05
3.93096e-05
2.49751e-05
9.60261e-06
4.86605e-06
9.36056e-07
4.46053e-05
7.6291e-05
8.31155e-05
7.02385e-05
5.031e-05
5.34906e-05
5.14921e-05
4.82962e-05
4.89014e-05
0.00066162
0.000765177
0.00054645
1.9103e-05
2.21736e-07
2.0472e-08
2.28464e-09
2.82131e-10
4.30779e-11
1.87352e-11
4.60488e-12
6.29533e-13
7.7694e-14
9.67983e-15
1.31282e-15
4.03369e-16
4.56916e-16
9.42576e-16
2.03008e-15
2.10149e-15
1.90376e-15
3.48599e-15
1.87479e-14
1.08542e-13
5.13389e-13
1.8839e-12
3.79286e-12
9.89658e-12
8.06307e-11
1.29801e-11
1.29801e-11
3.00711e-08
9.4e-06
2.91293e-10
9.91144e-10
5.36047e-10
2.02636e-10
1.74034e-10
3.42116e-13
2.86068e-13
1.0223e-13
1.81997e-14
2.71102e-15
5.97895e-16
4.01218e-16
4.11206e-16
4.03155e-16
3.07755e-16
3.64547e-16
2.15713e-15
1.82509e-14
1.41439e-13
1.10317e-12
7.38885e-12
2.64599e-11
5.34938e-11
3.28691e-10
2.42853e-09
2.24361e-08
2.44335e-07
3.73973e-05
0.000599915
0.000728036
0.000492316
2.82729e-05
2.96816e-05
3.27063e-05
2.73665e-05
1.8316e-05
1.68598e-05
5.26833e-05
6.12195e-05
2.54886e-06
8.52118e-05
8.87757e-05
8.90809e-05
8.6705e-05
5.34385e-05
4.13304e-05
4.82965e-05
0.000409623
0.000756518
0.00057708
2.80811e-05
5.94599e-07
6.05438e-08
6.12382e-09
6.82289e-10
9.75386e-11
2.23635e-11
5.61593e-12
7.90674e-13
8.28574e-14
8.87262e-15
8.76174e-16
7.65515e-17
1.45911e-17
1.85114e-17
2.63057e-17
4.59357e-17
2.3645e-16
2.23884e-15
1.82109e-14
1.15482e-13
6.10886e-13
2.11756e-12
3.89077e-12
1.55948e-11
7.48132e-11
1.29801e-11
3.17472e-10
4.30778e-07
9.4e-06
2.01051e-10
1.30255e-09
6.27105e-10
4.27081e-11
2.32385e-12
7.81192e-13
1.91881e-13
7.00818e-14
1.34034e-14
1.93712e-15
2.23839e-16
3.27496e-17
1.66737e-17
1.58392e-17
2.41576e-17
1.27629e-16
1.29614e-15
1.29764e-14
1.2544e-13
1.16528e-12
7.73907e-12
2.82354e-11
1.10764e-10
7.70688e-10
7.05105e-09
6.65271e-08
6.59913e-07
5.19866e-05
0.000607266
0.000716365
0.000194066
2.81714e-05
2.72357e-05
2.9681e-05
4.45894e-05
5.81897e-05
6.18347e-05
5.66541e-05
1.34929e-05
2.19458e-10
1.12938e-05
9.17297e-05
9.29137e-05
9.37728e-05
7.92775e-05
2.55593e-05
4.13271e-05
0.000532927
0.000723598
0.000486475
2.16041e-05
8.46183e-07
9.4097e-08
9.71287e-09
9.71616e-10
1.31446e-10
1.68726e-11
4.7492e-12
7.08794e-13
6.28184e-14
5.38658e-15
4.52343e-16
3.56285e-17
2.64698e-18
6.50193e-19
1.91026e-18
1.7623e-17
2.09291e-16
2.28854e-15
2.00567e-14
1.31201e-13
6.90667e-13
2.21913e-12
3.94094e-12
1.7815e-11
1.07649e-10
1.53169e-11
2.20151e-08
1.9945e-06
9.39328e-06
4.85274e-11
1.32345e-09
7.25542e-10
5.58496e-11
1.24982e-11
8.14575e-13
1.78974e-13
6.22718e-14
1.22164e-14
1.80744e-15
1.96781e-16
1.62598e-17
2.27443e-18
1.45824e-18
4.22472e-18
4.49489e-17
5.70351e-16
6.90497e-15
8.25649e-14
9.46873e-13
5.95277e-12
1.92812e-11
1.47554e-10
1.08032e-09
1.08741e-08
1.05884e-07
9.56394e-07
4.1143e-05
0.000505299
0.000670251
0.000215007
2.7163e-05
2.10898e-05
6.54265e-05
7.00387e-05
6.82683e-05
6.5262e-05
2.14496e-05
3.79026e-10
2.16275e-10
2.19458e-10
2.87184e-05
9.38078e-05
9.37647e-05
4.0901e-05
1.05467e-05
0.00027114
0.00068319
0.000692382
0.000318944
6.29865e-06
6.67062e-07
7.7966e-08
8.30725e-09
8.36507e-10
1.07297e-10
1.24057e-11
2.63705e-12
3.23661e-13
2.54908e-14
1.95136e-15
1.43489e-16
9.71953e-18
6.45555e-19
2.22978e-19
1.52764e-18
1.76992e-17
2.1803e-16
2.48261e-15
2.19063e-14
1.41235e-13
7.21763e-13
2.21378e-12
3.75713e-12
1.66932e-11
1.06178e-10
1.95265e-11
2.17343e-07
7.53093e-06
6.79604e-06
4.51908e-11
1.30467e-09
6.46914e-10
3.76683e-11
1.34491e-11
7.87269e-13
1.87842e-13
6.10585e-14
1.2392e-14
1.84287e-15
1.95546e-16
1.41919e-17
9.44118e-19
2.19201e-19
8.29624e-19
1.28219e-17
1.92236e-16
2.66297e-15
3.56431e-14
4.54425e-13
3.48992e-12
1.52462e-11
1.30336e-10
1.02216e-09
1.01746e-08
9.53782e-08
8.12602e-07
1.59893e-05
0.000380075
0.000615019
0.000501159
2.02286e-05
1.44133e-05
6.896e-05
7.00387e-05
7.00387e-05
4.03975e-05
3.79026e-10
3.70255e-10
2.16244e-10
1.87104e-10
2.89395e-10
3.87132e-05
5.21748e-05
4.74782e-06
3.56886e-06
0.000498961
0.000631749
0.000548203
8.81668e-05
2.09121e-06
2.77996e-07
3.26194e-08
3.49493e-09
3.5004e-10
4.48989e-11
5.08591e-12
8.23377e-13
7.93949e-14
5.64179e-15
3.96185e-16
2.6056e-17
1.50134e-18
1.24107e-19
1.40325e-19
1.55675e-18
1.84287e-17
2.26073e-16
2.57761e-15
2.26122e-14
1.43964e-13
7.02116e-13
1.81849e-12
3.35242e-12
1.07229e-11
7.98399e-11
5.31152e-12
4.33613e-07
1.41582e-05
7.87239e-06
4.24769e-11
9.08471e-10
5.31272e-10
7.37688e-12
6.47481e-12
6.63645e-13
1.9291e-13
5.66646e-14
1.24704e-14
1.85761e-15
1.91292e-16
1.29887e-17
7.45477e-19
9.43789e-20
1.57238e-19
2.1914e-18
3.88443e-17
6.08346e-16
8.96671e-15
1.27462e-13
1.2395e-12
7.33344e-12
6.82861e-11
5.47039e-10
5.46398e-09
5.05918e-08
4.28141e-07
3.16777e-06
0.000155106
0.000595981
0.000536896
7.47044e-05
3.83798e-06
4.65903e-05
7.00387e-05
6.02619e-05
4.24705e-10
3.1219e-10
3.69701e-10
1.10506e-10
1.44304e-10
2.8957e-09
7.94266e-08
1.34451e-06
7.61675e-07
9.68108e-07
0.00018764
0.000339886
0.000152255
8.42203e-06
3.52597e-07
4.71135e-08
5.67783e-09
6.29212e-10
7.63631e-11
8.54515e-12
1.36354e-12
1.37814e-13
9.92113e-15
6.88227e-16
4.52407e-17
2.74208e-18
1.41716e-19
1.71132e-20
1.10349e-19
1.60873e-18
1.80396e-17
2.1189e-16
2.39106e-15
2.03347e-14
1.21561e-13
4.99495e-13
1.37037e-12
3.17752e-12
9.14944e-12
3.13614e-11
5.17656e-12
4.31106e-07
1.41582e-05
1.41066e-05
4.15033e-11
4.46597e-10
4.4268e-10
2.43768e-12
2.4003e-12
5.84249e-13
1.66733e-13
3.97224e-14
8.83969e-15
1.3163e-15
1.36856e-16
1.02119e-17
6.44985e-19
6.07937e-20
1.58244e-20
1.98724e-19
4.00635e-18
6.88908e-17
1.0851e-15
1.62681e-14
2.20846e-13
2.00923e-12
1.3254e-11
1.09617e-10
8.75154e-10
7.69335e-09
6.18619e-08
4.67803e-07
3.25364e-05
0.000179775
0.000246309
5.64535e-05
1.03541e-06
9.17186e-06
4.03369e-05
7.03541e-06
1.88586e-09
2.38535e-10
2.15068e-10
3.81521e-11
2.52379e-10
2.46014e-08
4.75283e-08
1.55343e-07
1.42161e-07
4.13305e-07
9.68109e-07
5.72381e-06
2.56975e-06
1.36114e-06
5.36261e-08
5.12901e-09
6.41754e-10
8.09274e-11
1.02559e-11
1.79312e-12
1.83271e-13
1.31874e-14
9.30057e-16
6.22853e-17
3.88528e-18
2.21915e-19
1.10296e-20
7.99866e-21
8.70029e-20
1.31848e-18
1.37526e-17
1.5665e-16
1.70566e-15
1.38558e-14
8.05277e-14
3.3619e-13
1.1348e-12
3.29765e-12
9.75057e-12
1.33746e-11
5.08694e-12
1.39329e-07
1.41582e-05
1.41485e-05
4.15192e-11
1.85139e-10
2.36124e-10
3.14507e-12
1.88953e-12
5.52505e-13
1.28438e-13
2.74796e-14
4.97315e-15
6.92604e-16
7.45406e-17
6.29625e-18
4.85958e-19
3.95841e-20
3.81114e-21
1.38427e-20
2.87124e-19
5.21734e-18
8.61704e-17
1.3169e-15
1.92215e-14
2.67261e-13
2.34305e-12
1.20362e-11
9.07035e-11
6.54676e-10
5.5962e-09
2.93276e-07
1.94414e-06
1.84693e-06
2.7621e-06
2.74787e-06
3.58022e-07
4.71351e-07
1.11466e-06
8.47311e-08
5.43757e-08
2.42782e-10
6.5279e-11
2.10066e-11
3.01241e-10
4.73563e-09
7.81075e-09
1.88333e-08
2.09913e-08
8.23822e-08
2.19826e-07
3.18712e-07
1.08365e-07
2.33015e-08
5.48176e-09
6.33305e-10
8.57874e-11
1.38937e-11
2.33844e-12
2.25113e-13
1.64652e-14
1.18443e-15
8.06276e-17
5.1389e-18
3.04628e-19
1.63788e-20
9.11651e-22
4.30057e-21
5.67515e-20
8.52361e-19
9.25423e-18
1.03765e-16
1.07853e-15
8.69587e-15
5.38522e-14
2.67798e-13
1.08206e-12
4.75505e-12
1.125e-11
1.00226e-11
5.00345e-12
6.97445e-10
1.41581e-05
1.24504e-05
2.4079e-11
4.50129e-11
6.57244e-11
7.52366e-12
3.13073e-12
5.44533e-13
1.15364e-13
2.30604e-14
3.50863e-15
4.29353e-16
4.25246e-17
3.74199e-18
3.21956e-19
2.34354e-20
1.96566e-21
8.57806e-22
1.93953e-20
3.70962e-19
6.42204e-18
1.02651e-16
1.52642e-15
2.14671e-14
3.01512e-13
2.79948e-12
1.34398e-11
8.77881e-11
7.11818e-10
6.63603e-09
2.23219e-08
9.45152e-08
2.33059e-07
1.88797e-07
3.76386e-08
7.50896e-08
8.38701e-08
2.1314e-08
1.41109e-08
4.02076e-10
1.72392e-11
1.38547e-11
1.50671e-10
1.82517e-10
6.00617e-10
1.92359e-09
2.48988e-09
1.10917e-08
3.98124e-08
3.11468e-08
9.97475e-09
2.21166e-09
4.49381e-10
7.35279e-11
1.96579e-11
3.10817e-12
2.60511e-13
1.91401e-14
1.39174e-15
9.57998e-17
6.18885e-18
3.74081e-19
2.10093e-20
1.03856e-21
2.17193e-22
2.24575e-21
3.54689e-20
5.5906e-19
7.12352e-18
7.94532e-17
7.84448e-16
6.60734e-15
4.63926e-14
2.5829e-13
1.24435e-12
6.50167e-12
1.14517e-11
9.0518e-12
4.92862e-12
8.99068e-08
1.41531e-05
3.46449e-06
6.56081e-12
6.46344e-12
1.71325e-11
9.75001e-12
4.91818e-12
6.70184e-13
1.15561e-13
2.20948e-14
3.12632e-15
3.6492e-16
3.52761e-17